/*--------------------------------*- C++ -*----------------------------------*\
| =========                 |                                                 |
| \\      /  F ield         | OpenFOAM: The Open Source CFD Toolbox           |
|  \\    /   O peration     | Version:  2.4.0                                 |
|   \\  /    A nd           | Web:      www.OpenFOAM.org                      |
|    \\/     M anipulation  |                                                 |
\*---------------------------------------------------------------------------*/
FoamFile
{
    version     2.0;
    format      ascii;
    class       volScalarField;
    location    "2.2";
    object      alpha1;
}
// * * * * * * * * * * * * * * * * * * * * * * * * * * * * * * * * * * * * * //

dimensions      [0 0 0 0 0 0 0];

internalField   nonuniform List<scalar> 
8000
(
1
1
1
1
1
1
1
1
1
1
0.999999
0.999999
0.999999
0.999999
0.999999
0.999999
0.999999
0.999999
0.999999
0.999999
0.999999
0.999999
0.999999
0.999999
0.999999
0.999999
0.999999
0.999998
0.999998
0.999998
0.999997
0.999998
0.999998
0.999998
0.999998
0.999997
0.999995
0.999992
0.999987
0.999992
0.999995
0.999997
0.999994
0.999994
0.999994
0.999995
0.999996
0.999996
0.999998
0.999998
1
1
1
1
1
1
1
1
1
1
1
0.999999
0.999999
0.999999
0.999999
0.999999
0.999999
0.999999
0.999999
0.999999
0.999999
0.999999
0.999999
0.999999
1
0.999999
0.999999
0.999999
0.999999
0.999999
0.999999
0.999999
0.999999
0.999999
0.999999
0.999998
0.999998
0.999998
0.999997
0.999997
0.999996
0.999996
0.999995
0.999995
0.999995
0.999995
0.999996
0.999994
0.99993
0.989297
1
1
1
1
1
1
1
1
1
1
1
1
0.999999
0.999999
0.999999
0.999999
0.999999
0.999999
0.999999
0.999999
0.999999
0.999999
0.999999
0.999999
0.999999
0.999999
0.999999
0.999999
0.999999
0.999999
0.999999
0.999999
0.999999
0.999999
0.999999
0.999999
0.999999
0.999999
0.999999
0.999998
0.999998
0.999997
0.999997
0.999997
0.999994
0.999959
0.999747
0.952641
0.803345
0.606408
1
1
1
1
1
1
1
1
1
1
1
1
1
1
1
0.999999
0.999999
0.999999
0.999999
0.999999
0.999999
0.999999
0.999999
0.999999
0.999999
0.999999
0.999999
1
1
1
1
0.999999
0.999999
0.999999
0.999999
0.999999
0.999999
0.999999
1
0.999998
0.999998
0.999998
0.999939
0.999789
0.990988
0.848802
0.593909
0.479605
0.188018
0.0704592
1
1
1
1
1
1
1
1
1
1
1
1
1
1
1
1
1
1
1
1
1
1
1
1
1
1
1
1
1
1
1
0.999999
0.999999
0.999999
0.999999
0.999999
0.999999
0.999999
1
0.99993
0.999872
0.999167
0.806343
0.644527
0.416449
0.142269
0.0180135
0.0153011
0.00117213
0.00047846
1
1
1
1
1
1
1
1
1
1
1
1
1
1
1
1
1
1
1
1
1
1
1
1
1
1
1
1
1
0.999999
0.999999
0.999999
0.999999
0.999998
0.999999
0.999996
0.999905
0.999743
0.985528
0.785972
0.717231
0.247912
0.040835
0.0328892
0.00321046
0.00118733
0.000175067
9.28885e-05
1.30004e-06
7.86282e-07
1
1
1
1
1
1
1
1
1
1
1
1
1
1
1
1
1
1
1
1
1
1
1
1
1
1
1
0.999999
0.999999
0.999999
0.999999
0.999999
0.999999
0.999916
0.999656
0.949291
0.748125
0.587113
0.189581
0.0262765
0.0191434
0.00210356
0.000401629
0.000233112
7.29733e-06
1.7497e-06
9.31271e-07
7.62801e-07
7.36918e-07
5.10236e-07
1
1
1
1
1
1
1
1
1
1
1
1
1
1
1
1
1
1
1
1
1
1
1
1
1
1
0.999999
0.999999
0.999999
0.999999
0.999996
0.999676
0.987959
0.760842
0.511295
0.0551641
0.0385982
0.00319911
0.00118265
0.000119382
0.000106081
6.67823e-06
1.07948e-06
9.54923e-07
6.88749e-07
8.94756e-07
6.69897e-07
5.78766e-07
5.22275e-07
4.38519e-07
1
1
1
1
1
1
1
1
1
1
1
1
1
1
1
1
1
1
1
1
1
1
1
1
1
1
0.999998
0.999997
0.999998
0.999647
0.950467
0.536401
0.074811
0.0139767
0.0102948
0.000503263
0.000382774
2.93435e-06
9.99181e-07
7.94946e-07
7.87146e-07
7.79401e-07
7.71757e-07
6.61164e-07
5.68602e-07
5.67314e-07
5.15427e-07
4.59281e-07
4.26001e-07
3.97797e-07
1
1
1
1
1
1
1
1
1
1
1
1
1
1
1
1
1
1
1
1
1
1
1
1
1
0.999999
0.999995
0.999991
0.998827
0.488701
0.0365819
0.00485657
0.00228187
0.000305439
0.000194591
3.24854e-05
5.76677e-06
1.11593e-06
1.1096e-06
1.09103e-06
1.01791e-06
9.26728e-07
9.00965e-07
9.19078e-07
9.15117e-07
8.45431e-07
7.8811e-07
8.27706e-07
9.68799e-07
8.50794e-07
1
1
1
1
1
1
1
1
1
1
1
1
1
1
1
1
1
1
1
1
1
1
1
1
1
0.999997
0.999997
0.941939
0.108453
0.00285529
0.00154401
0.000411458
0.000444283
0.000444541
0.00031292
0.00019586
0.00012177
7.80104e-05
5.1234e-05
3.44506e-05
2.37406e-05
1.67756e-05
1.20019e-05
8.32603e-06
5.07796e-06
2.20006e-06
5.11469e-07
8.07349e-07
6.49559e-06
1.73166e-05
1
1
1
1
1
1
1
1
1
1
1
1
1
1
1
1
1
1
1
1
1
1
1
1
1
1
0.999627
0.532277
0.0322434
0.00128064
0.00110351
0.000216722
1.83877e-05
1.56294e-05
7.17986e-06
3.46029e-06
1.42696e-06
1.23644e-06
1.1192e-06
9.31574e-07
8.02475e-07
7.09974e-07
6.38758e-07
5.7523e-07
5.26638e-07
5.01061e-07
5.05165e-07
7.34953e-07
8.33195e-06
1.94942e-05
1
1
1
1
1
1
1
1
1
1
1
1
1
1
1
1
1
1
1
1
1
1
1
1
1
1
1
0.999965
0.722008
0.0498567
0.0404233
0.00121594
0.000859693
2.22914e-05
1.34313e-05
1.61593e-06
9.4075e-07
8.1919e-07
8.11342e-07
3.72059e-07
3.7433e-07
3.93128e-07
4.00861e-07
3.58845e-07
3.49907e-07
3.46868e-07
3.59367e-07
4.17916e-07
5.18416e-07
3.39e-07
1
1
1
1
1
1
1
1
1
1
1
1
1
1
1
1
1
1
1
1
1
1
1
1
1
1
1
1
1
1
0.823731
0.0555843
0.0597695
0.00398732
0.00331762
0.000375175
0.000239287
3.20165e-06
1.54742e-06
3.79658e-07
3.87146e-07
4.36082e-07
5.13347e-07
4.15406e-07
3.90643e-07
3.73113e-07
3.65345e-07
3.8707e-07
7.99323e-07
2.25708e-07
1
1
1
1
1
1
1
1
1
1
1
1
1
1
1
1
1
1
1
1
1
1
1
1
1
1
1
1
0.999999
0.999994
0.99999
0.999257
0.999998
0.700543
0.223883
0.0385597
0.0379648
0.00193719
0.00146074
4.46246e-05
2.77551e-05
2.81922e-06
1.06812e-06
5.17444e-07
4.06362e-07
3.277e-07
2.49894e-07
1.12108e-07
1.18405e-07
1.59177e-07
1
1
1
1
1
1
1
1
1
1
1
1
1
1
1
1
1
1
1
1
1
1
1
1
1
1
1
1
1
0.999999
0.999999
0.999999
1
0.999979
0.999802
0.952401
0.859308
0.277429
0.107608
0.023138
0.00836774
0.00137529
0.000738845
8.23662e-05
4.44801e-05
1.81087e-06
6.23101e-07
8.84787e-08
6.89652e-08
6.13588e-08
1
1
1
1
1
1
1
1
1
1
1
1
1
1
1
1
1
1
1
1
1
1
1
1
1
1
1
1
1
1
0.999999
0.999999
0.999998
1
1
1
0.999999
0.99994
0.965428
0.837809
0.310362
0.0930845
0.0607497
0.0089108
0.0072128
0.000653269
0.000378128
2.08079e-05
8.09682e-06
7.4837e-08
1
1
1
1
1
1
1
1
1
1
1
1
1
1
1
1
1
1
1
1
1
1
1
1
1
1
1
1
1
1
1
1
0.999999
0.999999
1
1
1
1
1
1
0.995195
0.964632
0.849723
0.355353
0.21284
0.0638109
0.0344087
0.00369054
0.00243347
3.95424e-05
1
1
1
1
1
1
1
1
1
1
1
1
1
1
1
1
1
1
1
1
1
1
1
1
1
1
1
1
1
1
1
1
1
1
1
1
1
1
1
1
1
1
1
0.999738
0.970205
0.87196
0.549735
0.147473
0.11239
0.00613388
1
1
1
1
1
1
1
1
1
1
1
1
1
1
1
1
1
1
1
1
1
1
1
1
1
1
1
1
1
1
1
1
1
1
1
1
1
1
1
1
1
1
1
1
1
0.996681
0.969747
0.93688
0.959734
0.642584
0.999984
0.999344
0.969984
0.888937
0.722491
0.447552
0.141184
0.0228074
0.00310091
0.000466992
6.50567e-05
8.58998e-06
3.08956e-06
1.52998e-06
9.40545e-07
7.27607e-07
5.62075e-07
4.5286e-07
3.94989e-07
3.65072e-07
3.47897e-07
3.3744e-07
3.31284e-07
3.28123e-07
3.26972e-07
3.26825e-07
3.26707e-07
3.25955e-07
3.24431e-07
3.22472e-07
3.20658e-07
3.19673e-07
3.20232e-07
3.22748e-07
3.2662e-07
3.29665e-07
3.12607e-07
3.07734e-07
2.97486e-07
2.86266e-07
2.77286e-07
2.72069e-07
2.69897e-07
2.68969e-07
2.68058e-07
2.67228e-07
5.25374e-07
2.17491e-07
2.85703e-07
2.87029e-07
0.919881
0.789192
0.59722
0.347282
0.138499
0.0382203
0.00863716
0.000387887
2.45514e-05
2.18625e-06
8.04321e-07
5.23593e-07
3.98947e-07
3.39667e-07
3.11864e-07
2.96993e-07
2.87986e-07
2.81889e-07
2.7731e-07
2.73597e-07
2.70451e-07
2.67656e-07
2.64918e-07
2.61854e-07
2.58113e-07
2.53595e-07
2.486e-07
2.43818e-07
2.40106e-07
2.3815e-07
2.38182e-07
2.39876e-07
2.42462e-07
2.45016e-07
2.46775e-07
4.16837e-07
2.39718e-07
2.44688e-07
2.3814e-07
2.31967e-07
2.26812e-07
2.22791e-07
2.19782e-07
2.17708e-07
2.16547e-07
2.16131e-07
2.15808e-07
2.14824e-07
2.10104e-07
2.02878e-07
0.421161
0.245554
0.0620333
0.0112827
0.00392963
0.000195614
8.0007e-05
1.58624e-06
6.55124e-07
3.39758e-07
2.54784e-07
2.5061e-07
2.49005e-07
2.47565e-07
2.45742e-07
2.43521e-07
2.41078e-07
2.38651e-07
2.36483e-07
2.34783e-07
2.33688e-07
2.33247e-07
2.33412e-07
2.34046e-07
2.34962e-07
2.35948e-07
2.36814e-07
2.37447e-07
2.37876e-07
2.38279e-07
2.38881e-07
2.3977e-07
2.40762e-07
2.41452e-07
2.41416e-07
2.40425e-07
2.39545e-07
2.37469e-07
2.35361e-07
2.33261e-07
2.31104e-07
2.28834e-07
2.26479e-07
2.24117e-07
2.21779e-07
2.19346e-07
2.16496e-07
2.12751e-07
2.07622e-07
2.00885e-07
0.0108998
0.00426753
0.00082185
3.47272e-05
1.60967e-05
8.39096e-07
8.03546e-07
6.57227e-07
2.93406e-07
2.47252e-07
2.39064e-07
2.39215e-07
2.39485e-07
2.39584e-07
2.39573e-07
2.39575e-07
2.39715e-07
2.40093e-07
2.4078e-07
2.41815e-07
2.43222e-07
2.45009e-07
2.47162e-07
2.49661e-07
2.52475e-07
2.55586e-07
2.58842e-07
2.62143e-07
2.65373e-07
2.68417e-07
2.71185e-07
2.73622e-07
2.75717e-07
2.77498e-07
2.79011e-07
2.80307e-07
2.81416e-07
2.82343e-07
2.83059e-07
2.83516e-07
2.83666e-07
2.8348e-07
2.82966e-07
2.82199e-07
2.8129e-07
2.80293e-07
2.79223e-07
2.78051e-07
2.76763e-07
2.75361e-07
3.17747e-05
1.03051e-05
1.99928e-06
4.94294e-07
4.44844e-07
4.53367e-07
3.7088e-07
3.0757e-07
2.55183e-07
2.52524e-07
2.54936e-07
2.58229e-07
2.61574e-07
2.64993e-07
2.68557e-07
2.72325e-07
2.76342e-07
2.8063e-07
2.852e-07
2.90049e-07
2.95172e-07
3.00563e-07
3.06219e-07
3.12125e-07
3.18237e-07
3.24483e-07
3.30917e-07
3.37461e-07
3.43892e-07
3.50156e-07
3.56217e-07
3.62076e-07
3.67759e-07
3.73315e-07
3.78789e-07
3.84201e-07
3.89547e-07
3.94781e-07
3.9981e-07
4.045e-07
4.08833e-07
4.12829e-07
4.16461e-07
4.20225e-07
4.24906e-07
4.29776e-07
4.35469e-07
4.40779e-07
4.45399e-07
4.48736e-07
5.92937e-07
6.44584e-07
7.16836e-07
3.63357e-07
3.28862e-07
3.05767e-07
2.87883e-07
2.82683e-07
2.8364e-07
2.90094e-07
2.97303e-07
3.04744e-07
3.12343e-07
3.20116e-07
3.28087e-07
3.3627e-07
3.44677e-07
3.53321e-07
3.6222e-07
3.714e-07
3.8089e-07
3.90705e-07
4.00844e-07
4.11311e-07
4.22155e-07
4.33461e-07
4.4526e-07
4.5737e-07
4.69759e-07
4.82193e-07
4.94392e-07
5.064e-07
5.18072e-07
5.29762e-07
5.41605e-07
5.53308e-07
5.65012e-07
5.76721e-07
5.88509e-07
5.97917e-07
6.0603e-07
6.15195e-07
6.21658e-07
6.27281e-07
6.47173e-07
6.48497e-07
6.73847e-07
6.96145e-07
7.20071e-07
7.3843e-07
4.34478e-07
4.03469e-07
3.75126e-07
3.21201e-07
3.12052e-07
3.10787e-07
3.15205e-07
3.23732e-07
3.33999e-07
3.45185e-07
3.56687e-07
3.68373e-07
3.80197e-07
3.92143e-07
4.04229e-07
4.1654e-07
4.29258e-07
4.42657e-07
4.57e-07
4.72279e-07
4.88023e-07
5.03258e-07
5.17723e-07
5.3184e-07
5.48969e-07
5.53725e-07
5.69209e-07
5.89198e-07
6.11101e-07
6.40369e-07
6.61183e-07
6.86603e-07
7.01206e-07
7.15957e-07
7.39968e-07
7.5592e-07
7.66276e-07
7.7073e-07
8.09523e-07
8.18241e-07
8.06076e-07
8.6152e-07
9.40571e-07
8.66407e-07
1.11961e-06
8.10575e-07
8.89966e-07
8.84916e-07
9.46432e-07
1.06733e-06
3.85602e-07
3.54343e-07
3.38345e-07
3.27628e-07
3.27309e-07
3.32698e-07
3.41492e-07
3.52396e-07
3.64271e-07
3.76511e-07
3.90225e-07
4.04933e-07
4.20223e-07
4.37422e-07
4.5483e-07
4.85641e-07
5.04693e-07
5.21275e-07
5.35223e-07
5.54032e-07
5.89418e-07
5.97264e-07
5.97154e-07
5.32621e-07
1.10426e-06
5.4938e-07
5.18213e-07
6.26168e-07
5.45779e-07
7.43769e-07
7.54127e-07
8.09339e-07
8.47693e-07
8.28327e-07
8.67131e-07
9.94565e-07
1.04931e-06
9.82594e-07
9.8188e-07
9.81943e-07
8.57705e-07
8.09418e-07
1.84791e-06
2.22718e-06
1.60484e-06
2.84213e-06
2.35e-06
1.00533e-06
9.49526e-07
3.02115e-06
3.75227e-07
3.61767e-07
3.62811e-07
3.74966e-07
3.92874e-07
4.18435e-07
4.47756e-07
4.84674e-07
5.12885e-07
5.07692e-07
4.76973e-07
4.88183e-07
5.10347e-07
5.64272e-07
5.84002e-07
5.43596e-07
6.23583e-07
6.83857e-07
6.42528e-07
5.85223e-07
5.59079e-07
1.60202e-06
7.63549e-07
5.81818e-07
5.46933e-07
5.21907e-07
5.17697e-07
5.20032e-07
5.34218e-07
5.43199e-07
5.2884e-07
7.85205e-07
1.21721e-06
1.09053e-06
4.96678e-07
4.89401e-07
4.89205e-07
5.92026e-07
1.67119e-06
1.70232e-06
9.99684e-07
5.14858e-07
5.14551e-07
5.16324e-07
4.06684e-06
2.84395e-06
9.23202e-07
1.60112e-06
5.97374e-06
1.74778e-05
6.24778e-07
5.23027e-07
3.81313e-07
5.14653e-07
4.31999e-07
3.8923e-07
5.60024e-07
5.37467e-07
1.00366e-06
1.11292e-06
1.05851e-06
4.36316e-07
4.13849e-07
9.93215e-07
1.60814e-06
1.61924e-06
1.0285e-06
5.64895e-07
5.58979e-07
5.58026e-07
5.58033e-07
1.78292e-06
1.5551e-06
5.30077e-07
4.93231e-07
4.92827e-07
4.93891e-07
5.01515e-07
5.04103e-07
4.98616e-07
4.98589e-07
5.9229e-07
1.22569e-06
8.27848e-07
4.9486e-07
4.89766e-07
4.90929e-07
4.89404e-07
4.8996e-07
5.01165e-07
5.08353e-07
5.10264e-07
6.06632e-07
2.62421e-06
6.23446e-06
2.87701e-06
8.88951e-07
8.82022e-07
8.82013e-07
1.94022e-06
7.87999e-06
1.86247e-06
3.69463e-07
3.61024e-07
3.60932e-07
3.61107e-07
3.61356e-07
3.62364e-07
3.63698e-07
3.65782e-07
3.68453e-07
3.67055e-07
3.75824e-07
3.74756e-07
3.74764e-07
7.45856e-07
2.39294e-06
2.43006e-06
1.63536e-06
5.63053e-07
5.62908e-07
1.67237e-06
1.9518e-06
9.44333e-07
4.96984e-07
4.92915e-07
4.9365e-07
1.34269e-06
9.73587e-07
5.03879e-07
4.98642e-07
4.99372e-07
5.02178e-07
3.21948e-06
2.27938e-06
8.06252e-07
4.92784e-07
4.8948e-07
5.15445e-07
1.20729e-06
2.24207e-06
4.40786e-06
2.70214e-05
3.49462e-05
3.49248e-05
1.62022e-05
2.02383e-06
8.86229e-07
8.82015e-07
8.96624e-07
1.94832e-05
1.29533e-05
2.78514e-06
3.7138e-07
3.96957e-07
4.17143e-07
4.27656e-07
4.43683e-07
4.49086e-07
4.60624e-07
4.75418e-07
3.70037e-07
1.14156e-06
6.53206e-07
5.57674e-07
1.3897e-06
1.24916e-06
6.6775e-07
6.60992e-07
6.60094e-07
6.65434e-07
1.49455e-06
1.96043e-06
1.73101e-06
6.41279e-07
6.77461e-07
1.33265e-06
2.81797e-06
2.80988e-06
1.23143e-06
5.68141e-07
1.56122e-06
3.33411e-06
3.33362e-06
1.5601e-06
6.97392e-07
6.92804e-07
7.57007e-07
2.20776e-06
2.83593e-05
7.16762e-05
7.17128e-05
5.34849e-05
1.36388e-05
1.21829e-06
8.83344e-07
8.81319e-07
8.83786e-07
8.88458e-07
9.0476e-07
5.29051e-07
6.16085e-07
7.3815e-07
5.86306e-07
8.33954e-07
7.76794e-07
6.65443e-07
1.23804e-06
6.15353e-07
7.51863e-07
9.40881e-07
1.01196e-06
1.76622e-06
1.54734e-06
1.58128e-06
1.28202e-06
1.88293e-06
1.2463e-06
2.36263e-06
8.72566e-07
1.04028e-06
1.83637e-06
1.20852e-06
1.88162e-06
3.07033e-06
5.18846e-06
6.2285e-06
2.81196e-06
1.62201e-06
1.30618e-06
1.11723e-06
9.86455e-07
9.33221e-07
9.11264e-07
8.78715e-07
8.01483e-07
1.63772e-06
7.68326e-07
1.30805e-06
1.79287e-06
1.74129e-06
1.18449e-06
1.02661e-06
9.62242e-07
9.25847e-07
8.96665e-07
8.60077e-07
9.36051e-07
1.37875e-06
8.42401e-07
6.27099e-07
5.1307e-07
8.5824e-07
8.66247e-07
8.40402e-07
5.73778e-07
4.76709e-07
6.83682e-07
8.71926e-07
6.90545e-07
7.29122e-07
2.60887e-06
3.66812e-06
3.65543e-06
1.32318e-06
7.48851e-07
6.28502e-07
5.82097e-07
5.38607e-07
5.58394e-07
5.58353e-07
1.21236e-06
2.78644e-06
2.78766e-06
1.50176e-06
6.42118e-07
5.89367e-07
6.0239e-07
6.0681e-07
6.17274e-07
6.37729e-07
6.70351e-07
7.36033e-07
9.12939e-07
6.47165e-07
4.95378e-07
3.6974e-07
9.81783e-07
7.46623e-06
2.06215e-05
1.69004e-05
1.22793e-06
9.71798e-07
9.63788e-07
7.12312e-07
5.93557e-07
5.97072e-07
9.82457e-07
1.38889e-06
7.73185e-07
1.76557e-07
2.11586e-07
2.28492e-07
2.65175e-07
2.7943e-07
3.10266e-07
3.55995e-07
4.0203e-07
4.64042e-07
5.38392e-07
5.89857e-07
7.42263e-07
2.19571e-06
2.61844e-06
3.04136e-07
4.38392e-07
4.40322e-07
4.18397e-07
4.00407e-07
3.83707e-07
3.6689e-07
3.51257e-07
3.47615e-07
3.71718e-07
3.99576e-07
4.28142e-07
4.51834e-07
4.70454e-07
4.78887e-07
6.25037e-07
5.79409e-07
2.69008e-07
3.05735e-07
3.10721e-07
3.07807e-07
3.06285e-07
3.03894e-07
2.99884e-07
3.97128e-06
2.49047e-05
4.76372e-05
4.76951e-05
4.32675e-05
8.43639e-06
9.74536e-07
7.13672e-07
6.16942e-07
5.50089e-07
5.17409e-07
5.09929e-07
5.53345e-08
5.76313e-08
6.84076e-08
8.09445e-08
9.2509e-08
1.01012e-07
1.05457e-07
1.05839e-07
1.02954e-07
9.80447e-08
9.23169e-08
8.65699e-08
8.19344e-08
8.79375e-08
1.00021e-07
1.03296e-07
1.03061e-07
1.00969e-07
9.75713e-08
9.32488e-08
8.83035e-08
8.2983e-08
7.74897e-08
7.19835e-08
6.65826e-08
6.13657e-08
5.63749e-08
5.16165e-08
4.70461e-08
4.25253e-08
3.84653e-08
3.58719e-08
3.33281e-08
3.08722e-08
2.85109e-08
2.62262e-08
2.39956e-08
2.18114e-08
1.97155e-08
1.88163e-08
1.96627e-08
2.22023e-08
2.54017e-08
3.10346e-08
3.93678e-08
4.8094e-08
5.71663e-08
6.66231e-08
7.63553e-08
8.61172e-08
4.30676e-08
1.51587e-08
7.82232e-09
4.74489e-09
4.45709e-09
4.88875e-09
5.26115e-09
5.48528e-09
5.56972e-09
5.54164e-09
5.43206e-09
5.2698e-09
5.07863e-09
4.87646e-09
4.67569e-09
4.48419e-09
4.30642e-09
4.14444e-09
3.99869e-09
3.86861e-09
3.75303e-09
3.6504e-09
3.55896e-09
3.47684e-09
3.40208e-09
3.33265e-09
3.26647e-09
3.20131e-09
3.13491e-09
3.06484e-09
2.98863e-09
2.90372e-09
2.80762e-09
2.69805e-09
2.57316e-09
2.4319e-09
2.27439e-09
2.10232e-09
1.91924e-09
1.73064e-09
1.54358e-09
1.36596e-09
1.20461e-09
1.0641e-09
9.46459e-10
8.51897e-10
7.79516e-10
7.27781e-10
6.94746e-10
6.78151e-10
2.00276e-05
3.7777e-08
2.05128e-08
6.10035e-09
9.65099e-10
2.27453e-10
1.17532e-10
8.28172e-11
5.97391e-11
4.24802e-11
2.94922e-11
1.96735e-11
1.23161e-11
7.03862e-12
3.57889e-12
1.58861e-12
6.09284e-13
2.01898e-13
5.89753e-14
1.71778e-14
7.76978e-15
7.11911e-15
8.61907e-15
1.08144e-14
1.3465e-14
1.65483e-14
2.00565e-14
2.39596e-14
2.81966e-14
3.26716e-14
3.72517e-14
4.17697e-14
4.60306e-14
4.9822e-14
5.29295e-14
5.51548e-14
5.63355e-14
5.63631e-14
5.51982e-14
5.28783e-14
4.95179e-14
4.52995e-14
4.04568e-14
3.52511e-14
2.99467e-14
2.47874e-14
1.99762e-14
1.56634e-14
1.19405e-14
8.84242e-15
0.00315749
2.19862e-05
1.3082e-07
5.90876e-08
1.11118e-08
2.07221e-09
7.46968e-10
5.72061e-10
4.97901e-10
4.29768e-10
3.66374e-10
3.04426e-10
2.38097e-10
1.67321e-10
1.01487e-10
5.18526e-11
2.21103e-11
7.88347e-12
2.35362e-12
5.82495e-13
1.17807e-13
1.94298e-14
2.57799e-15
2.70321e-16
2.19003e-17
1.33366e-18
5.93711e-20
1.96266e-21
6.96995e-23
6.54391e-24
1.10311e-24
1.99336e-25
3.60183e-26
6.44877e-27
1.13938e-27
1.97898e-28
3.36617e-29
5.58423e-30
8.99159e-31
1.39685e-31
2.07737e-32
2.92702e-33
3.85417e-34
4.65786e-35
5.04495e-36
4.74317e-37
3.70118e-38
2.23825e-39
9.28975e-41
1.97776e-42
0.0886906
0.00264066
1.39447e-05
2.59197e-06
4.3683e-07
6.01174e-08
7.30975e-09
2.54736e-09
2.21108e-09
2.00316e-09
1.912e-09
2.00369e-09
2.09973e-09
1.92435e-09
1.43345e-09
8.50095e-10
4.02954e-10
1.55364e-10
4.93988e-11
1.28747e-11
2.70897e-12
4.61405e-13
6.28488e-14
6.73202e-15
5.54732e-16
3.42197e-17
1.5353e-18
5.04298e-20
1.67642e-21
1.4393e-22
2.38353e-23
4.29539e-24
7.75812e-25
1.39006e-25
2.46045e-26
4.28577e-27
7.3185e-28
1.22024e-28
1.97737e-29
3.09633e-30
4.64996e-31
6.62992e-32
8.85407e-33
1.08775e-33
1.20028e-34
1.15193e-35
9.19049e-37
5.6898e-38
2.41981e-39
5.28374e-41
2.84059e-07
5.58018e-07
1.9309e-07
2.84115e-07
5.7311e-07
2.03477e-07
3.24152e-07
6.50331e-07
1.81323e-07
3.22273e-07
3.13616e-07
2.9779e-07
5.57705e-07
1.51073e-07
2.68995e-07
2.65749e-07
2.49414e-07
2.25439e-07
2.08912e-07
2.07966e-07
2.17551e-07
2.32572e-07
2.53096e-07
2.65918e-07
2.52696e-07
2.16083e-07
1.92743e-07
1.99055e-07
1.94534e-07
1.91937e-07
1.91451e-07
1.92348e-07
1.93922e-07
1.94298e-07
1.93228e-07
1.90877e-07
1.87737e-07
1.84382e-07
1.80855e-07
1.77843e-07
1.77814e-07
1.77281e-07
1.76694e-07
1.76758e-07
1.77782e-07
1.79502e-07
1.82239e-07
1.8549e-07
1.88785e-07
1.91688e-07
1.94988e-07
1.98139e-07
2.0107e-07
2.03555e-07
2.058e-07
2.07131e-07
2.06222e-07
2.07131e-07
2.08948e-07
2.09648e-07
2.10809e-07
2.14147e-07
2.15587e-07
2.20793e-07
2.27429e-07
2.35024e-07
2.43235e-07
2.48518e-07
2.5737e-07
2.61804e-07
2.84995e-07
2.96297e-07
2.96388e-07
3.24234e-07
3.37491e-07
3.48855e-07
3.60332e-07
3.69906e-07
3.76314e-07
3.82954e-07
3.9367e-07
4.05187e-07
2.77156e-07
8.70856e-07
4.44508e-07
4.47427e-07
2.99022e-07
8.6857e-07
4.32072e-07
4.29752e-07
4.06725e-07
4.11667e-07
6.00705e-07
6.63454e-07
5.45187e-07
5.15601e-07
5.01912e-07
4.93472e-07
4.89255e-07
4.89558e-07
4.98183e-07
5.38545e-07
5.58248e-07
5.71979e-07
5.78881e-07
5.74473e-07
1.10446e-06
1.76457e-06
1.50561e-06
4.20842e-07
4.14497e-07
4.26734e-07
6.1789e-07
1.16688e-06
7.09847e-07
3.82766e-07
7.22403e-07
2.389e-06
1.47311e-06
4.3999e-07
4.26407e-07
5.74566e-07
8.62891e-07
4.36815e-07
4.15637e-07
7.27638e-07
2.82123e-06
2.97418e-06
2.56911e-06
7.27199e-07
3.77855e-07
4.49551e-07
1.46075e-06
3.46172e-06
1.51428e-06
4.52702e-07
4.45948e-07
4.45338e-07
4.4502e-07
4.4502e-07
1.07619e-06
6.91277e-06
8.32033e-06
6.30641e-06
1.54509e-06
4.33222e-07
4.27913e-07
4.31219e-07
2.21784e-06
6.19895e-06
2.83918e-06
5.34042e-07
4.6314e-07
4.63299e-07
1.82282e-06
7.89289e-06
8.45693e-06
5.73888e-06
1.32292e-06
5.92615e-07
1.03177e-06
2.71124e-06
1.54404e-05
4.03256e-05
4.03444e-05
2.99496e-05
8.01467e-06
1.62679e-06
1.76082e-06
1.87192e-06
2.49995e-06
7.16534e-06
3.86777e-05
5.79245e-05
5.82845e-05
3.74455e-05
9.30213e-06
8.43959e-07
5.84162e-07
5.84083e-07
1.62437e-06
1.32232e-05
3.84051e-05
1.68946e-05
2.42079e-06
6.84883e-07
1.03734e-06
1.21738e-06
1.00377e-06
1.00481e-06
2.28578e-06
3.15357e-05
5.59922e-05
5.58754e-05
3.40068e-05
6.42421e-06
5.34272e-07
5.06392e-07
5.3199e-07
5.37572e-07
5.316e-07
5.31325e-07
8.91166e-07
4.94885e-06
3.10646e-06
2.8412e-06
2.98782e-06
1.37211e-05
1.71294e-05
6.55367e-06
1.00813e-06
2.50304e-06
7.15532e-06
6.66912e-06
2.79361e-06
5.87466e-07
5.68774e-07
8.16714e-07
5.97266e-06
3.3797e-06
1.05995e-06
1.05568e-06
1.05566e-06
1.05566e-06
1.0559e-06
9.80303e-06
2.73829e-05
2.40525e-05
8.93393e-06
1.47103e-06
1.46169e-06
8.6686e-06
7.92276e-05
0.000102329
9.78613e-05
3.58287e-05
3.49942e-06
5.56758e-07
6.55977e-07
7.11436e-06
1.08675e-05
6.11216e-06
1.34473e-06
1.25243e-06
1.25216e-06
1.25309e-06
1.44369e-05
3.45489e-05
3.07049e-05
1.13986e-05
1.87223e-06
1.81704e-06
1.55892e-06
6.69751e-07
6.72194e-07
2.01742e-06
1.4581e-06
5.10374e-07
4.92573e-07
4.92367e-07
5.91254e-07
4.08591e-06
2.53447e-06
6.80991e-07
6.37823e-07
6.71973e-07
6.72361e-07
6.86702e-07
4.85844e-06
1.64119e-05
1.21862e-05
3.92937e-06
7.59675e-07
7.65309e-07
1.00743e-06
8.38853e-07
1.18332e-06
5.92795e-06
6.34949e-06
3.32472e-06
7.19662e-07
7.73623e-07
8.47593e-07
2.77736e-06
3.04804e-06
2.45069e-06
7.33771e-07
6.79102e-07
6.59598e-07
6.56045e-07
6.78943e-07
7.21764e-07
7.84132e-07
8.53773e-07
9.60365e-07
1.07085e-06
1.08256e-06
1.08481e-06
1.08745e-06
1.26415e-06
1.93397e-07
1.88402e-07
1.85423e-07
1.84554e-07
1.87315e-07
1.93956e-07
1.94699e-07
1.84931e-07
1.69561e-07
1.55271e-07
1.51571e-07
1.47284e-07
1.43445e-07
1.4063e-07
1.38265e-07
1.36626e-07
1.35081e-07
1.32967e-07
1.29978e-07
1.26404e-07
1.22955e-07
1.20324e-07
1.18886e-07
1.18662e-07
1.19171e-07
1.19589e-07
1.19274e-07
1.18312e-07
1.17211e-07
1.15985e-07
1.14628e-07
1.13164e-07
1.11661e-07
1.10198e-07
1.08835e-07
1.0761e-07
1.06546e-07
1.05656e-07
1.04938e-07
1.04384e-07
1.03988e-07
1.03747e-07
1.03655e-07
1.03695e-07
1.03847e-07
1.04087e-07
1.04416e-07
1.04864e-07
1.05497e-07
1.06385e-07
1.0761e-07
1.09237e-07
1.11465e-07
1.14571e-07
1.18701e-07
1.21139e-07
1.18395e-07
1.25272e-07
1.31501e-07
1.34833e-07
1.36448e-07
1.38417e-07
1.41713e-07
1.46397e-07
1.52084e-07
1.5832e-07
1.64731e-07
1.71238e-07
1.77715e-07
1.09644e-07
3.90234e-07
2.07638e-07
1.38254e-07
4.46594e-07
2.3962e-07
2.4644e-07
2.50858e-07
2.54258e-07
2.57028e-07
2.59608e-07
2.62625e-07
2.66719e-07
2.72328e-07
2.64151e-07
2.73111e-07
2.83324e-07
2.93948e-07
2.89086e-07
3.01061e-07
3.11318e-07
3.18166e-07
3.18689e-07
3.16037e-07
3.17605e-07
3.22029e-07
3.26883e-07
3.32227e-07
3.35614e-07
3.30155e-07
3.09835e-07
1.94487e-07
5.80603e-07
5.02876e-07
3.95151e-07
4.23e-07
4.21626e-07
4.15858e-07
4.1412e-07
4.04808e-07
3.26303e-07
4.88119e-07
4.5473e-07
6.64793e-07
1.18073e-06
9.40882e-07
3.73289e-07
4.07906e-07
4.0292e-07
4.05156e-07
4.3468e-07
4.38421e-07
4.23885e-07
1.4722e-06
1.76659e-06
1.75203e-06
6.32623e-07
3.86369e-07
4.16929e-07
4.21794e-07
3.8429e-07
3.8076e-07
7.21385e-07
1.33431e-06
5.4826e-07
5.08265e-07
1.1285e-06
8.53341e-07
4.50522e-07
4.45292e-07
4.46506e-07
1.17644e-06
7.00235e-06
8.313e-06
8.32196e-06
4.00971e-06
5.6498e-07
1.03321e-06
5.02397e-06
1.43781e-05
1.22023e-05
5.88163e-06
1.30311e-06
4.68591e-07
4.67524e-07
5.69061e-07
1.24061e-06
4.05207e-06
9.20984e-06
9.01276e-06
9.24717e-06
1.63606e-05
4.01595e-05
4.03181e-05
4.03447e-05
3.49482e-05
1.12754e-05
6.7794e-06
1.0017e-05
4.11342e-05
4.38927e-05
4.36471e-05
1.51981e-05
7.52581e-06
7.58665e-06
5.63911e-05
3.98421e-05
1.51581e-05
2.4304e-06
5.88074e-07
6.78366e-07
7.89638e-07
4.9355e-06
5.11598e-05
8.19364e-05
8.19026e-05
8.19343e-05
7.90911e-05
2.96612e-05
3.00459e-06
1.00453e-06
5.29972e-06
4.83075e-05
3.47517e-05
1.06358e-05
2.48545e-06
2.39616e-06
5.43799e-06
4.51073e-05
5.58858e-05
5.63793e-05
2.15391e-05
2.75577e-06
9.34119e-07
4.82082e-06
4.78871e-06
2.87903e-06
2.84313e-06
6.23612e-06
3.89136e-05
4.37844e-05
4.33311e-05
1.76599e-05
4.90055e-06
2.31389e-06
9.66246e-07
5.71219e-07
5.68752e-07
5.71436e-07
8.10336e-06
7.27598e-06
2.3511e-06
1.05822e-06
1.05567e-06
1.05566e-06
1.05566e-06
3.12512e-06
2.24892e-05
2.55446e-05
1.52433e-05
2.42975e-06
7.13759e-07
8.05362e-07
1.39095e-05
9.89298e-05
5.24112e-05
1.05912e-05
7.48361e-07
5.53634e-07
5.85389e-07
1.06518e-05
7.4497e-06
2.55473e-06
1.25472e-06
1.25242e-06
1.25425e-06
1.82731e-06
1.30568e-05
3.45409e-05
2.42375e-05
6.15717e-06
7.85058e-07
1.12761e-06
2.53342e-06
2.0396e-06
8.68675e-07
5.01579e-07
4.99923e-07
4.96718e-07
4.93393e-07
4.93986e-07
5.6049e-07
1.32339e-06
7.0478e-07
6.39086e-07
6.69417e-07
6.71416e-07
6.75887e-07
1.25899e-06
4.20251e-06
2.30472e-06
8.87173e-07
8.83915e-07
8.77909e-07
2.00055e-06
4.40711e-06
4.40722e-06
2.28782e-06
6.61783e-07
7.37723e-07
7.32905e-07
6.91931e-07
6.14061e-07
5.22402e-07
4.38609e-07
3.84086e-07
3.64395e-07
3.77415e-07
4.15145e-07
4.65885e-07
5.20277e-07
5.96456e-07
6.36369e-07
7.58728e-07
8.694e-07
9.83269e-07
1.13094e-06
1.27563e-06
1.22103e-06
1.24709e-06
2.75727e-06
1.92909e-07
1.8861e-07
1.84655e-07
1.81156e-07
1.78117e-07
1.75457e-07
1.73059e-07
1.70796e-07
1.6856e-07
1.6629e-07
1.63992e-07
1.6169e-07
1.59371e-07
1.57018e-07
1.54611e-07
1.52148e-07
1.49652e-07
1.47164e-07
1.4472e-07
1.42327e-07
1.39991e-07
1.37702e-07
1.35452e-07
1.33213e-07
1.30944e-07
1.28595e-07
1.26123e-07
1.23509e-07
1.2077e-07
1.17955e-07
1.15115e-07
1.12282e-07
1.09493e-07
1.06784e-07
1.04161e-07
1.01618e-07
9.9151e-08
9.67402e-08
9.43619e-08
9.20009e-08
8.96668e-08
8.73887e-08
8.51821e-08
8.30326e-08
8.09752e-08
7.8975e-08
7.70633e-08
7.52998e-08
7.3782e-08
7.26369e-08
7.20248e-08
7.2118e-08
7.31642e-08
7.51842e-08
7.71276e-08
7.19271e-08
5.65594e-08
7.84412e-08
8.00616e-08
7.49053e-08
7.04981e-08
7.14804e-08
7.56706e-08
8.07089e-08
8.53006e-08
8.91283e-08
9.22868e-08
9.5781e-08
9.96067e-08
1.02713e-07
6.46032e-08
1.7166e-07
1.33852e-07
1.01406e-07
1.02649e-07
1.05912e-07
1.08887e-07
1.11372e-07
1.13769e-07
1.1669e-07
1.20639e-07
1.25807e-07
1.32058e-07
1.39035e-07
1.46286e-07
1.53342e-07
1.5977e-07
1.65219e-07
1.69489e-07
1.7257e-07
1.74627e-07
1.75927e-07
1.76743e-07
1.77294e-07
1.77743e-07
1.78262e-07
1.79106e-07
1.80633e-07
1.8302e-07
1.85986e-07
1.89146e-07
1.87032e-07
2.00416e-07
2.158e-07
2.31643e-07
2.50117e-07
2.70932e-07
2.91943e-07
3.10737e-07
3.23383e-07
3.17126e-07
3.24809e-07
3.18622e-07
3.12599e-07
3.24469e-07
3.44806e-07
3.4815e-07
3.49269e-07
2.13636e-07
6.22652e-07
3.38428e-07
3.9053e-07
3.7964e-07
3.68859e-07
3.54638e-07
3.6213e-07
3.82783e-07
4.09021e-07
5.22641e-07
5.85993e-07
5.83063e-07
4.9724e-07
4.96789e-07
4.9891e-07
6.09549e-07
2.2088e-06
2.30552e-06
1.20403e-06
6.45179e-07
1.37205e-06
5.89173e-06
7.59862e-06
7.154e-06
3.07229e-06
3.05385e-06
4.90449e-06
1.46365e-05
1.48961e-05
1.44704e-05
4.76885e-06
3.15935e-06
3.62018e-06
6.1607e-06
8.56693e-06
8.79868e-06
1.11842e-05
3.98216e-05
4.86917e-05
4.86321e-05
3.63487e-05
1.41363e-05
1.0098e-05
9.95954e-06
2.33522e-05
4.93679e-05
5.40407e-05
5.44944e-05
3.19508e-05
1.32316e-05
6.92473e-06
6.92009e-06
6.91954e-06
1.1443e-05
4.35017e-05
7.18406e-05
7.23121e-05
7.27931e-05
2.57071e-05
2.39218e-05
0.000106585
8.45726e-05
3.85244e-05
9.31219e-06
4.30313e-06
4.32735e-06
4.47568e-06
3.31528e-06
2.99109e-06
3.15623e-06
2.32259e-05
0.000146085
0.000171985
0.000171872
0.000138422
3.87076e-05
4.43746e-06
2.70039e-05
4.4924e-05
1.98829e-05
5.67497e-06
1.47671e-06
1.30579e-06
2.34024e-06
2.90086e-05
0.000130638
0.000109929
4.7989e-05
1.72455e-05
1.20755e-05
1.02832e-05
5.98671e-06
4.91766e-06
7.07852e-06
9.84864e-06
9.81648e-06
3.16845e-06
2.14369e-06
1.2815e-05
2.15544e-05
9.49379e-06
1.51703e-06
1.05719e-06
1.05566e-06
1.05566e-06
1.05566e-06
3.64756e-06
2.19439e-05
2.55435e-05
1.06949e-05
1.3301e-06
7.13143e-07
1.16228e-06
2.19186e-05
4.7557e-05
1.85086e-05
2.14799e-06
5.56197e-07
5.53113e-07
9.53424e-07
1.06835e-05
7.43612e-06
2.02572e-06
1.25566e-06
2.21557e-06
2.28264e-05
3.3078e-05
3.29928e-05
1.60826e-05
1.99927e-06
4.416e-07
4.38552e-07
1.20923e-06
2.51675e-06
1.9307e-06
5.96522e-07
5.02229e-07
5.05456e-07
5.05309e-07
4.87455e-07
5.32115e-07
5.38724e-07
5.19192e-07
5.49616e-07
6.43055e-07
8.28349e-07
8.79913e-07
7.90833e-07
6.874e-07
5.81735e-07
8.99014e-07
9.83565e-07
8.2875e-07
7.92029e-07
7.18625e-07
6.17137e-07
5.03955e-07
4.04055e-07
3.21434e-07
2.56795e-07
2.13057e-07
1.92169e-07
2.02909e-07
2.66123e-07
3.9474e-07
5.84705e-07
7.95106e-07
9.79652e-07
1.09394e-06
1.14373e-06
1.14967e-06
1.33723e-06
9.72712e-07
1.76536e-06
1.99827e-06
1.99737e-06
1.95309e-06
2.48135e-06
3.0481e-06
3.91445e-06
1.12246e-05
2.73877e-07
2.73109e-07
2.72216e-07
2.71145e-07
2.69875e-07
2.6841e-07
2.66768e-07
2.64951e-07
2.62938e-07
2.60762e-07
2.5845e-07
2.56028e-07
2.53515e-07
2.50839e-07
2.47859e-07
2.44518e-07
2.40932e-07
2.37356e-07
2.33907e-07
2.30476e-07
2.27037e-07
2.23434e-07
2.19712e-07
2.15932e-07
2.12038e-07
2.07946e-07
2.03532e-07
1.98729e-07
1.93631e-07
1.88482e-07
1.83482e-07
1.78363e-07
1.72992e-07
1.67539e-07
1.62077e-07
1.56644e-07
1.51322e-07
1.46037e-07
1.4069e-07
1.35238e-07
1.29762e-07
1.24426e-07
1.19265e-07
1.13981e-07
1.09041e-07
1.03981e-07
9.87435e-08
9.33238e-08
8.78167e-08
8.24283e-08
7.73719e-08
7.2679e-08
6.80636e-08
6.2752e-08
5.60539e-08
4.88536e-08
4.3797e-08
3.8755e-08
4.01551e-08
3.79256e-08
3.46003e-08
3.51374e-08
3.55349e-08
3.53903e-08
3.52967e-08
3.56276e-08
3.62621e-08
3.8256e-08
4.11184e-08
4.23774e-08
4.24398e-08
3.21364e-08
3.33938e-08
3.56087e-08
3.79898e-08
4.06402e-08