/*--------------------------------*- C++ -*----------------------------------*\
| =========                 |                                                 |
| \\      /  F ield         | OpenFOAM: The Open Source CFD Toolbox           |
|  \\    /   O peration     | Version:  2.4.0                                 |
|   \\  /    A nd           | Web:      www.OpenFOAM.org                      |
|    \\/     M anipulation  |                                                 |
\*---------------------------------------------------------------------------*/
FoamFile
{
    version     2.0;
    format      ascii;
    class       volScalarField;
    location    "2.2";
    object      H;
}
// * * * * * * * * * * * * * * * * * * * * * * * * * * * * * * * * * * * * * //

dimensions      [0 2 -2 0 0 0 0];

internalField   nonuniform List<scalar> 
8000
(
-11939.8
-11360.4
-10784
-10212.6
-9648.45
-9093.9
-8551.49
-8023.78
-7513.28
-7022.29
-6552.89
-6106.8
-5685.32
-5289.35
-4919.3
-4575.15
-4256.45
-3962.37
-3691.74
-3443.15
-3214.98
-3005.47
-2812.79
-2635.1
-2470.58
-2317.5
-2174.23
-2039.29
-1911.33
-1789.2
-1671.88
-1558.56
-1448.58
-1341.43
-1236.8
-1134.47
-1034.39
-936.607
-841.282
-748.665
-659.087
-572.946
-490.696
-412.834
-339.88
-272.351
-210.762
-155.643
-107.17
-65.8289
-11953
-11400.3
-10851.6
-10309.6
-9776.46
-9254.74
-8746.68
-8254.41
-7779.9
-7324.84
-6890.66
-6478.43
-6088.88
-5722.38
-5378.93
-5058.19
-4759.49
-4481.88
-4224.17
-3984.97
-3762.74
-3555.86
-3362.65
-3181.42
-3010.51
-2848.35
-2693.45
-2544.44
-2400.09
-2259.35
-2121.3
-1985.23
-1850.58
-1716.98
-1584.21
-1452.24
-1321.18
-1191.31
-1063.03
-936.883
-813.543
-693.821
-578.68
-469.218
-366.628
-271.824
-185.738
-111.301
-42.4398
-0.4532
-11970.3
-11452.5
-10939.5
-10433.9
-9938.38
-9455.09
-8986.09
-8533.12
-8097.63
-7680.79
-7283.43
-6906.09
-6548.99
-6212.03
-5894.84
-5596.79
-5316.98
-5054.34
-4807.62
-4575.42
-4356.26
-4148.59
-3950.86
-3761.51
-3579.04
-3401.99
-3229.05
-3058.98
-2890.74
-2723.4
-2556.24
-2388.7
-2220.42
-2051.24
-1881.16
-1710.39
-1539.32
-1368.51
-1198.7
-1030.78
-865.775
-704.993
-550.256
-403.801
-269.845
-145.876
-24.3524
-0.257404
-0.00567948
-0.000696541
-11989.8
-11511.4
-11038.1
-10572.9
-10118.3
-9676.14
-9248.23
-8835.82
-8439.84
-8060.91
-7699.34
-7355.14
-7028.07
-6717.64
-6423.12
-6143.61
-5878.04
-5625.19
-5383.74
-5152.31
-4929.43
-4713.65
-4503.52
-4297.61
-4094.6
-3893.24
-3692.39
-3491.09
-3288.52
-3084.08
-2877.33
-2668.07
-2456.29
-2242.18
-2026.11
-1808.63
-1590.49
-1372.65
-1156.43
-943.047
-732.689
-525.867
-327.525
-131.992
-1.37062
-0.024477
-0.00231511
-0.00354102
-7.34831e-05
2.31507e-06
-12008.9
-11568.6
-11133.4
-10706.1
-10288.8
-9883.32
-9490.84
-9112.27
-8748.09
-8398.48
-8063.34
-7742.28
-7434.71
-7139.82
-6856.64
-6584.06
-6320.83
-6065.62
-5817.06
-5573.72
-5334.18
-5097.03
-4860.93
-4624.63
-4387
-4147.06
-3904.03
-3657.33
-3406.65
-3151.94
-2893.39
-2631.48
-2366.89
-2100.43
-1833.04
-1565.85
-1300
-1037.18
-781.811
-536.787
-285.249
-3.46125
-0.0604691
-0.0108349
-0.000285998
-1.17603e-05
1.04635e-05
9.93557e-05
0.00110422
0.00686012
-12025.1
-11616.9
-11212.9
-10815.3
-10426
-10046.3
-9677.21
-9319.32
-8972.85
-8637.73
-8313.6
-7999.87
-7695.72
-7400.15
-7112.02
-6830.03
-6552.84
-6278.99
-6007.03
-5735.48
-5462.94
-5188.05
-4909.59
-4626.5
-4337.95
-4043.36
-3742.47
-3435.38
-3122.6
-2805.05
-2484.04
-2161.22
-1838.38
-1517.53
-1199.78
-889.018
-581.723
-269.278
-2.68638
-0.0647256
-0.0211513
-0.000955466
-7.17304e-05
3.1072e-05
0.000500174
0.00145554
0.0079933
0.0599826
0.492406
0.88772
-12037
-11652.3
-11270.6
-10893.8
-10523.2
-10159.8
-9804.32
-9457.01
-9117.95
-8786.89
-8463.29
-8146.41
-7835.28
-7528.74
-7225.52
-6924.19
-6623.28
-6321.25
-6016.53
-5707.6
-5393.01
-5071.46
-4741.82
-4403.24
-4055.19
-3697.58
-3330.78
-2955.75
-2574.04
-2187.83
-1799.78
-1413.12
-1033.05
-665.813
-293.707
-2.8283
-0.0709577
-0.0228365
-0.0010137
-9.14003e-05
2.78894e-05
0.00101165
0.00689625
0.0531978
0.432093
0.772187
1.08917
1.396
1.70138
2.00969
-12046.3
-11679.8
-11315.5
-10954.9
-10598.6
-10247.5
-9901.8
-9561.55
-9226.54
-8896.29
-8570.09
-8247.03
-7925.97
-7605.65
-7284.62
-6961.33
-6634.12
-6301.28
-5961.05
-5611.69
-5251.54
-4879.11
-4493.15
-4092.79
-3677.68
-3248.1
-2805.12
-2350.48
-1886.6
-1416.24
-941.135
-443.721
-4.18655
-0.0911713
-0.0275732
-0.00268876
-0.00011641
0.000277556
0.00115609
0.00662939
0.0492324
0.399248
0.717673
1.01282
1.2943
1.56757
1.83671
2.10521
2.37274
2.63862
-12054.2
-11703.2
-11353.9
-11007
-10663.2
-10322.5
-9985.03
-9650.56
-9318.61
-8988.49
-8659.3
-8329.95
-7999.16
-7665.44
-7327.15
-6982.44
-6629.31
-6265.6
-5889.03
-5497.26
-5087.97
-4659.02
-4208.63
-3735.6
-3239.62
-2721.37
-2182.57
-1625.52
-1053.05
-471.824
-4.59857
-0.0999861
-0.0285167
-0.00881068
-0.000445527
0.00418691
0.0367682
0.312389
0.566071
0.806828
1.04024
1.27259
1.50487
1.73285
1.95766
2.17994
2.40004
2.61819
2.83432
3.04826
-12060.9
-11723.3
-11386.9
-11052.4
-10719.8
-10389.2
-10060.1
-9732.17
-9404.65
-9076.69
-8747.21
-8414.96
-8078.46
-7736.03
-7385.69
-7025.16
-6651.86
-6262.82
-5854.75
-5424.13
-4967.32
-4480.9
-3961.98
-3408.61
-2819.89
-2196
-1538.63
-852.629
-151.986
-2.26559
-1.95762
-1.34942
-0.952001
-0.601357
-0.309636
-0.0515137
0.182138
0.400939
0.60744
0.805937
0.999885
1.1922
1.38493
1.57934
1.7761
1.97555
2.17792
2.38335
2.59213
2.80457
-12065.6
-11737.3
-11409.7
-11083.1
-10757.6
-10432.8
-10108.3
-9783.72
-9458.2
-9130.9
-8800.8
-8466.69
-8127.08
-7780.18
-7423.76
-7055.06
-6670.68
-6266.45
-5837.43
-5377.91
-4881.82
-4343.32
-3757.46
-3121.95
-2431.62
-1679.08
-863.673
-8.27058
-0.422392
-0.635611
-0.84785
-0.92636
-0.897542
-0.783621
-0.604294
-0.381855
-0.130702
0.14413
0.437556
0.745011
1.06278
1.38801
1.71806
2.0508
2.38474
2.71898
3.0532
3.3875
3.72246
4.05919
-12065.5
-11736.5
-11407.8
-11079.4
-10751.2
-10423.1
-10094.6
-9765.57
-9435.57
-9104.28
-8771.26
-8435.93
-8097.44
-7754.55
-7405.43
-7047.49
-6677.15
-6289.63
-5878.75
-5436.66
-4953.39
-4417.26
-3822.85
-3164.06
-2440.47
-1656.97
-822.534
-12.7615
-10.6696
-7.14542
-5.46099
-3.95752
-2.66414
-1.49749
-0.46989
0.453867
1.29265
2.07919
2.827
3.54256
4.22945
4.89042
5.52711
6.14091
6.73291
7.30407
7.85513
8.38658
8.89975
9.39283
-12056.1
-11707.6
-11357.8
-11006.2
-10652.6
-10296.9
-9939.62
-9581.36
-9223.05
-8865.82
-8510.87
-8159.4
-7812.4
-7470.58
-7134.14
-6802.6
-6474.58
-6147.51
-5817.37
-5478.28
-5122.18
-4738.5
-4314.03
-3833.11
-3278.42
-2632.47
-1880.48
-1016.76
-11.6736
-1.56414
-1.49777
-0.583722
0.0949711
1.03497
1.9564
2.92305
3.95143
5.06211
6.23156
7.40502
8.55833
9.67187
10.7355
11.7437
12.6938
13.5847
14.4159
15.1874
15.8994
16.5518
-12023.4
-11608.1
-11188.2
-10762.6
-10330.9
-9894.22
-9454.02
-9012.59
-8572.63
-8137.1
-7709.02
-7291.36
-6886.81
-6497.68
-6125.74
-5772.09
-5437.06
-5120.02
-4819.32
-4532.06
-4253.94
-3979.05
-3699.63
-3405.94
-3086.24
-2727.23
-2315.29
-1839.25
-1295.53
-695.308
-7.28638
-0.486277
-0.0941676
-0.0352139
0.00306947
0.0469986
0.354701
2.75257
4.78099
6.57667
8.24978
9.77575
11.1923
12.5019
13.7198
14.8535
15.908
16.8838
17.7798
18.5923
-11980.3
-11478.5
-10971
-10456.4
-9934.98
-9408.42
-8879.45
-8351.57
-7828.76
-7315.16
-6814.89
-6331.76
-5869.18
-5429.91
-5016.06
-4628.93
-4269.02
-3936.01
-3628.72
-3345.2
-3082.68
-2837.66
-2605.85
-2382.17
-2160.63
-1934.15
-1694.5
-1432.27
-1136.74
-803.551
-429.763
-31.0955
-20.9023
-0.261129
-0.0091167
-0.000524842
0.000351472
0.00650816
0.0430219
0.343808
2.67569
4.74429
6.57734
8.25224
9.82561
11.3071
12.7427
14.1239
15.4475
16.6995
-11947.7
-11381.7
-10812.1
-10238.5
-9661.78
-9083.97
-8507.98
-7937.35
-7375.95
-6827.72
-6296.48
-5785.74
-5298.54
-4837.36
-4404.08
-3999.89
-3625.32
-3280.26
-2963.97
-2675.16
-2412.05
-2172.44
-1953.83
-1753.48
-1568.53
-1396.07
-1233.22
-1077.23
-925.438
-775.315
-624.38
-470.16
-314.175
-159.615
-19.5742
-0.212094
-0.00793041
-0.00156375
-5.80753e-05
0.000366291
0.00434887
0.0346987
0.284308
2.42578
4.36856
6.2474
8.07329
9.90389
11.7514
13.5784
-11936.7
-11349.4
-10760.8
-10171.2
-9582.11
-8995.4
-8413.67
-7839.78
-7276.76
-6727.64
-6195.32
-5682.49
-5191.55
-4724.55
-4283.21
-3868.83
-3482.29
-3124.05
-2794.15
-2492.2
-2217.4
-1968.58
-1744.26
-1542.67
-1361.88
-1199.78
-1054.24
-923.129
-804.394
-696.086
-596.394
-503.632
-416.195
-332.454
-250.638
-169.06
-87.4672
-9.83658
-0.107572
-0.00431378
-0.000132523
1.06055e-06
0.000115813
0.00186305
0.00781835
0.0593368
0.469332
3.88526
6.96258
9.9233
-11931.4
-11334.4
-10738.1
-10144
-9553.78
-8969.51
-8393.28
-7827.15
-7273.09
-6732.93
-6208.45
-5701.37
-5213.29
-4745.74
-4300.19
-3877.98
-3480.34
-3108.27
-2762.56
-2443.67
-2151.73
-1886.47
-1647.28
-1433.15
-1242.73
-1074.4
-926.345
-796.619
-683.236
-584.233
-497.732
-421.978
-355.363
-296.442
-243.914
-196.607
-153.442
-113.389
-75.4274
-38.3255
-0.373126
-0.00930635
-0.00238405
-5.92282e-05
1.4534e-07
8.37485e-05
0.0025637
0.0526795
0.514194
4.71371
-11918.2
-11296.3
-10680.7
-10075.3
-9482.95
-8905.31
-8343
-7795.95
-7263.69
-6745.38
-6241.47
-5752.75
-5279.57
-4822.48
-4382.37
-3960.46
-3558.15
-3176.98
-2818.47
-2484.01
-2174.78
-1891.62
-1635.01
-1404.88
-1200.53
-1020.77
-864.023
-728.415
-611.92
-512.444
-427.906
-356.317
-295.821
-244.734
-201.551
-164.954
-133.803
-107.122
-84.0782
-63.9646
-46.1593
-30.1055
-15.0286
-0.141597
-0.00305782
-4.81012e-05
-2.36235e-05
2.58657e-05
0.00123282
0.0550296
-11745.8
-10926.7
-10210.8
-9568.9
-8981.12
-8433.79
-7917.12
-7423.98
-6949.18
-6488.96
-6040.72
-5602.81
-5174.41
-4755.41
-4346.34
-3948.25
-3562.65
-3191.33
-2836.33
-2499.74
-2183.64
-1889.76
-1621.17
-1380.64
-1167.55
-980.674
-818.443
-678.988
-560.227
-459.957
-375.946
-306.025
-248.152
-200.461
-161.286
-129.172
-102.867
-81.3102
-63.6171
-49.0534
-37.0145
-27.0045
-18.6138
-11.5006
-5.37479
-0.0493376
-0.000462172
-0.000276809
-0.000107469
6.30821e-05
-30.2481
-0.339461
-0.00517156
-0.019412
-0.0218582
-0.017516
-0.0106918
-0.000317309
0.00545041
0.0544775
0.102326
0.149244
0.194861
0.239061
0.281783
0.32311
0.363146
0.402005
0.439803
0.47665
0.512641
0.547852
0.582329
0.616094
0.649134
0.681407
0.712842
0.74334
0.77278
0.801025
0.827923
0.853315
0.877035
0.898913
0.918785
0.936488
0.951872
0.964808
0.975182
0.982895
0.987874
0.990073
0.989474
0.986085
0.979934
0.971074
0.959574
0.945502
0.928988
0.910147
-0.00681627
-0.000104328
-0.000398891
-0.000443669
-1.30936e-05
6.36161e-05
0.00144697
0.0161798
0.140324
0.25941
0.373606
0.48301
0.587793
0.688065
0.784053
0.876061
0.964421
1.04946
1.13147
1.21069
1.28731
1.36146
1.4332
1.50255
1.56948
1.63392
1.69578
1.75495
1.8113
1.86471
1.91506
1.96223
2.00611
2.0466
2.08362
2.1171
2.14697
2.17323
2.19583
2.21479
2.23011
2.24183
2.25
2.25466
2.2559
2.25379
2.24843
2.23993
2.22839
2.21393
-0.000163609
-2.47585e-06
1.00695e-05
0.000232422
0.00265376
0.0248079
0.21074
0.39277
0.572049
0.748551
0.9219
1.0907
1.25349
1.40944
1.55817
1.69971
1.83437
1.96259
2.08487
2.20169
2.31348
2.42064
2.5235
2.62211
2.71641
2.80632
2.89181
2.97281
3.04929
3.1212
3.18849
3.25116
3.30919
3.36259
3.41136
3.45554
3.49516
3.53029
3.56097
3.58729
3.60932
3.62713
3.64083
3.6505
3.65624
3.65814
3.65629
3.65081
3.64176
3.62925
0.000122269
0.000781823
0.00532416
0.0416497
0.340714
0.621549
0.886552
1.14017
1.38554
1.62117
1.84668
2.0618
2.26644
2.46074
2.64501
2.81971
2.98536
3.14251
3.29167
3.43332
3.56788
3.69567
3.817
3.93231
4.0421
4.14679
4.24628
4.34044
4.42919
4.51252
4.5904
4.6629
4.73005
4.79194
4.84866
4.9003
4.94698
4.98881
5.0259
5.05836
5.08629
5.10981
5.12901
5.14398
5.15481
5.16158
5.16436
5.16322
5.1582
5.14936
0.0530153
0.427057
0.772283
1.09301
1.38995
1.67482
1.95315
2.22415
2.48762
2.7426
2.98826
3.224
3.44944
3.66447
3.86917
4.06375
4.24854
4.42393
4.59032
4.74809
4.89763
5.03925
5.17327
5.29993
5.41946
5.53203
5.63827
5.73879
5.83359
5.92274
6.00633
6.08449
6.15734
6.22505
6.28774
6.34558
6.3987
6.44725
6.49135
6.53111
6.56665
6.59806
6.62541
6.64877
6.66818
6.68368
6.69529
6.70302
6.70686
6.70678
1.25151
1.59377
1.91982
2.23342
2.53427
2.8238
3.10326
3.37334
3.63437
3.88643
4.12946
4.36338
4.58812
4.80369
5.01013
5.20757
5.3962
5.57624
5.74793
5.91153
6.06731
6.21553
6.35641
6.49021
6.61715
6.73743
6.85128
6.9587
7.06009
7.15581
7.2462
7.33154
7.41207
7.48802
7.55959
7.62698
7.69032
7.74978
7.80546
7.85748
7.90593
7.95086
7.99234
8.03039
8.06502
8.09622
8.12393
8.14811
8.16869
8.18561
2.31441
2.61417
2.90697
3.19188
3.46853
3.73685
3.99692
4.24889
4.49286
4.72893
4.95717
5.17765
5.39043
5.59559
5.79324
5.98349
6.1665
6.34244
6.51149
6.67383
6.82968
6.97915
7.12238
7.25952
7.3907
7.51607
7.63575
7.75012
7.85958
7.96448
8.06512
8.16174
8.25456
8.34377
8.42956
8.51207
8.59146
8.66784
8.74134
8.81205
8.88005
8.94544
9.00825
9.06847
9.1262
9.18121
9.23363
9.28322
9.32995
9.37383
2.90171
3.16092
3.41528
3.66406
3.90678
4.14314
4.37302
4.59641
4.81341
5.02418
5.22892
5.42786
5.6213
5.80958
5.99191
6.16865
6.3402
6.5069
6.66905
6.82689
6.98061
7.13045
7.27658
7.41913
7.55832
7.69393
7.82625
7.95526
8.08089
8.20324
8.32221
8.43786
8.5502
8.65925
8.76509
8.86785
8.96761
9.06451
9.15878
9.25063
9.34025
9.42793
9.51411
9.59869
9.68166
9.7637
9.84421
9.92333
10.0015
10.079
3.25986
3.46906
3.67471
3.87606
4.07343
4.26722
4.45786
4.64582
4.83155
5.01551
5.19816
5.3799
5.5611
5.74203
5.92294
6.10397
6.28522
6.46672
6.64844
6.83028
7.01211
7.19383
7.37476
7.55479
7.73336
7.90994
8.08395
8.25475
8.42169
8.58411
8.74134
8.89277
9.03778
9.17575
9.3063
9.42934
9.54468
9.65246
9.75314
9.84699
9.93488
10.0181
10.0981
10.1762
10.2545
10.3326
10.4114
10.4917
10.574
10.6597
3.02102
3.24112
3.46441
3.69026
3.91811
4.14752
4.37816
4.60976
4.84225
5.0755
5.3095
5.54443
5.78064
6.01834
6.25767
6.49854
6.7412
6.98588
7.23265
7.48135
7.73179
7.98391
8.2369
8.4902
8.74318
8.99465
9.24343
9.48823
9.72768
9.96018
10.184
10.3972
10.5984
10.7856
10.9577
11.1132
11.2512
11.371
11.4728
11.5577
11.6283
11.6882
11.7412
11.792
11.8467
11.9051
11.9668
12.0302
12.0932
12.1546
4.3984
4.73908
5.07964
5.41881
5.75545
6.08874
6.41808
6.74312
7.06369
7.37973
7.69138
7.99887
8.30264
8.60318
8.90063
9.19535
9.48734
9.77647
10.0631
10.3478
10.6307
10.9117
11.1904
11.4661
11.7381
12.0052
12.2661
12.5198
12.7654
13.0008
13.2242
13.4332
13.6261
13.8026
13.9602
14.0985
14.2176
14.3173
14.3981
14.4618
14.5111
14.5486
14.5874
14.618
14.6432
14.662
14.6816
14.702
14.7189
14.7301
9.86217
10.3118
10.7457
11.1668
11.5745
11.9682
12.3479
12.7136
13.0651
13.4023
13.7248
14.0325
14.3258
14.6048
14.8695
15.1197
15.3549
15.5749
15.7798
15.9692
16.1432
16.3017
16.4446
16.5717
16.6828
16.7786
16.8589
16.9248
16.9759
17.0125
17.0359
17.0468
17.0457
17.0328
17.009
16.9764
16.936
16.889
16.837
16.7894
16.7425
16.6802
16.6099
16.5294
16.4527
16.3747
16.2918
16.2043
16.1129
16.0187
17.1454
17.6812
18.1612
18.5868
18.9604
19.2835
19.5583
19.7873
19.9721
20.1157
20.2203
20.2882
20.3221
20.324
20.2967
20.2422
20.1634
20.0615
19.9401
19.7996
19.644
19.475
19.294
19.1043
18.9076
18.706
18.5008
18.2924
18.0851
17.8797
17.6774
17.4793
17.2866
17.1002
16.9204
16.7476
16.5817
16.4213
16.2667
16.1164
15.968
15.8207
15.674
15.527
15.3795
15.2314
15.0831
14.935
14.7878
14.6415
19.3194
19.9585
20.5095
20.9725
21.3496
21.6435
21.8585
21.9992
22.0705
22.078
22.0273
21.9251
21.7757
21.5846
21.3565
21.0985
20.815
20.5105
20.1895
19.8561
19.514
19.1669
18.8183
18.4699
18.1245
17.7848
17.4529
17.1301
16.8175
16.5161
16.2264
15.9487
15.6831
15.4295
15.1871
14.9555
14.7339
14.5214
14.3183
14.1236
13.9309
13.7394
13.557
13.3801
13.2075
13.039
12.874
12.7122
12.5531
12.3961
17.8627
18.9205
19.8602
20.6739
21.358
21.9131
22.3429
22.6536
22.8535
22.9517
22.9581
22.8828
22.7364
22.5275
22.2645
21.9587
21.6169
21.2468
20.8552
20.4481
20.031
19.6087
19.1854
18.7645
18.3491
17.9418
17.5446
17.159
16.7863
16.4273
16.0821
15.7511
15.4344
15.1314
14.8417
14.5646
14.2993
14.0446
13.8003
13.5685
13.3444
13.1194
12.8973
12.6714
12.4557
12.2452
12.038
11.8339
11.6329
11.4347
15.3501
17.0137
18.5328
19.8833
21.0526
22.0376
22.842
23.4745
23.9468
24.2728
24.4668
24.5438
24.5181
24.4034
24.2126
23.9576
23.6494
23.2977
22.9113
22.4977
22.0638
21.6153
21.157
20.6932
20.2272
19.7621
19.2999
18.8426
18.3916
17.9478
17.5119
17.0846
16.666
16.2563
15.8552
15.4626
15.0781
14.701
14.3309
13.967
13.6085
13.2549
12.9072
12.5661
12.2325
11.9073
11.5908
11.2832
10.9848
10.6953
12.6947
15.2716
17.6308
19.7288
21.5477
23.0875
24.3598
25.3837
26.1817
26.7777
27.1955
27.4574
27.5844
27.5953
27.5068
27.3341
27.0902
26.7864
26.4328
26.0378
25.6087
25.1518
24.6725
24.1753
23.6639
23.1417
22.6114
22.0752
21.5352
20.9929
20.4499
19.9072
19.366
18.8272
18.2917
17.7602
17.2337
16.7129
16.1987
15.6924
15.1949
14.7078
14.2324
13.7699
13.3209
12.8859
12.4653
12.0591
11.6672
11.2894
8.59119
12.396
15.9291
19.1016
21.8806
24.2657
26.2767
27.9438
29.3018
30.3859
31.2298
31.8644
32.3174
32.6132
32.773
32.8153
32.7558
32.6082
32.3842
32.0941
31.7465
31.3491
30.9086
30.4307
29.9206
29.3829
28.8215
28.2401
27.642
27.0301
26.4071
25.7755
25.1375
24.4952
23.8505
23.2053
22.5613
21.9199
21.2828
20.6512
20.0266
19.4101
18.803
18.2062
17.6207
17.0473
16.4869
15.9401
15.4073
14.8889
0.608007
5.73878
10.4767
14.7245
18.4844
21.7842
24.6624
27.1609
29.3201
31.1776
32.7667
34.1165
35.2524
36.1962
36.9667
37.5802
38.0509
38.3914
38.6129
38.7255
38.7381
38.6593
38.4965
38.257
37.9474
37.574
37.1427
36.659
36.1283
35.5556
34.9455
34.3026
33.6311
32.9352
32.2186
31.485
30.7377
29.9801
29.2151
28.4456
27.6741
26.9032
26.1352
25.3721
24.6158
23.8681
23.1305
22.4043
21.6908
20.9911
0.00863987
0.348453
3.47807
6.59627
9.6548
12.6366
15.5255
18.3064
20.9661
23.4928
25.8724
28.0974
30.1624
32.0637
33.7996
35.3696
36.775
38.018
39.1019
40.0311
40.8107
41.4464
41.9444
42.3113
42.554
42.6797
42.6956
42.609
42.4272
42.1574
41.8068
41.3822
40.8904
40.338
39.7314
39.0765
38.3791
37.6449
36.8789
36.0861
35.2713
34.4387
33.5924
32.7361
31.8735
31.0076
30.1415
29.2778
28.419
27.5673
0.893678
0.881563
0.868799
0.855425
0.841455
0.826894
0.811782
0.796132
0.779945
0.763262
0.74609
0.728447
0.710354
0.691811
0.672854
0.653492
0.633745
0.613634
0.593184
0.572421
0.551367
0.530045
0.508476
0.48668
0.464675
0.442485
0.420135
0.397646
0.375042
0.352342
0.329564
0.306724
0.283837
0.260918
0.23798
0.215037
0.192099
0.169174
0.146266
0.123377
0.100509
0.0776609
0.054829
0.0320087
0.00919524
-0.0136158
-0.0364282
-0.0592465
-0.082077
-0.104906
-0.12765
-0.150333
-0.172994
-0.195647
-0.218289
-0.240916
-0.263556
-0.286213
-0.308891
-0.331597
-0.35433
-0.377095
-0.399898
-0.422745
-0.445647
-0.468609
-0.491641
-0.514749
-0.537939
-0.561214
-0.584583
-0.608057
-0.631639
-0.655331
-0.679131
-0.703037
-0.727042
-0.75114
-0.775323
-0.799579
-0.823888
-0.848227
-0.872562
-0.896877
-0.921111
-0.945258
-0.969279
-0.99317
-1.01688
-1.0404
-1.06371
-1.0868
-1.10963
-1.13219
-1.15446
-1.17641
-1.19802
-1.21927
-1.24013
-1.26057
-1.28056
-1.30008
-1.31913
-1.33768
-1.35572
-1.37324
-1.39025
-1.40672
-1.42264
-1.43797
-1.45276
-1.46695
-1.48053
-1.49351
-1.50585
-1.51757
-1.52871
-1.53929
-1.54924
-1.55864
-1.56756
-1.57601
-1.58403
-1.59167
-1.599
-1.6061
-1.61304
-1.61979
-1.62649
-1.63318
-1.64002
-1.64708
-1.6545
-1.66236
-1.67062
-1.67948
-1.68898
-1.69916
-1.71006
-1.72173
-1.73423
-1.7477
-1.76189
-1.77685
-1.79265
-1.80944
-1.82717
-1.84581
-1.86538
-1.88579
-1.90684
-1.92861
-1.95104
-1.97396
-1.9973
-2.02096
-2.04458
-2.06809
-2.09145
-2.11463
-2.13738
-2.15961
-2.18171
-2.20353
-2.2245
-2.24468
-2.26412
-2.28301
-2.30091
-2.31773
-2.33369
-2.34898
-2.36412
-2.37845
-2.39185
-2.40394
-2.41545
-2.42709
-2.43886
-2.45101
-2.46444
-2.47966
-2.49623
-2.51328
-2.53189
-2.55205
-2.57345
-2.59606
-2.61988
-2.64487
-2.67114
-2.69946
-2.7282
-2.75649
-2.78444
-2.8132
-2.84357
-2.87527
-2.90801
-2.94139
-2.9751
-3.00908
-3.04332
-3.07789
-3.11256
-3.14748
-3.18249
-3.21781
-3.2523
-3.28583
-3.31899
-3.35213
-3.38547
-3.41899
-3.45278
-3.48709
-3.52179
-3.55666
-3.59143
-3.62518
-3.65766
-3.68838
-3.7167
-3.74205
-3.764
-3.78276
-3.79765
-3.80735
-3.81191
-3.81212
-3.8083
-3.8017
-3.79587
-3.78607
-3.77434
-3.75983
-3.74605
-3.73231
-3.71696
-3.69924
-3.67701
-3.648
-3.60996
-3.55987
-3.49415
-3.40917
-3.30254
-3.17162
-3.015
-2.83422
-2.63343
-2.41768
-2.19321
-1.96761
-1.74861
-1.5433
-1.35756
-1.19585
-1.06085
-0.953407
-0.872911
-0.817621
-0.784846
-0.771222
-0.772983
-0.786273
-0.807464
-0.833342
-0.861346
-0.889834
-0.917216
-0.941698
-0.961828
-0.976353
-0.984374
-0.984999
-0.978247
-0.964202
-0.942937
-0.915179
-0.881778
-0.843613
-0.801678
-0.757171
-0.711133
-0.664727
-0.618459
-0.572937
-0.528642
-0.485982
-0.445187
-0.406224
-0.368736
-0.331928
-0.29448
-0.254672
-0.210754
-0.161485
-0.106256
-0.0404584
2.20039
2.19014
2.17905
2.16716
2.15446
2.14098
2.12673
2.11172
2.09596
2.07946
2.06223
2.04428
2.02563
2.00627
1.98622
1.96549
1.9441
1.92204
1.89935
1.87602
1.85208
1.82755
1.80243
1.77674
1.7505
1.72372
1.69642
1.66861
1.64031
1.61154
1.5823
1.55262
1.52249
1.49195
1.46099
1.42964
1.3979
1.36578
1.33329
1.30045
1.26727
1.23374
1.19988
1.1657
1.13121
1.09641
1.0613
1.0259
0.990203
0.954224
0.917962
0.881477
0.844805
0.807944
0.770897
0.733664
0.696251
0.658665
0.620913
0.583001
0.544939
0.506738
0.468406
0.429953
0.391389
0.352727
0.313978
0.275156
0.236277
0.19736
0.158429
0.119502
0.080608
0.0417774
0.00303342
-0.0355928
-0.0740719
-0.112378
-0.150485
-0.188363
-0.225984
-0.263319
-0.300338
-0.337014
-0.373314
-0.40921
-0.444675
-0.479681
-0.514204
-0.548216
-0.581696
-0.614621
-0.64697
-0.678721
-0.709854
-0.740351
-0.770192
-0.799362
-0.827844
-0.855623
-0.88268
-0.909016
-0.934599
-0.959433
-0.983505
-1.00681
-1.02934
-1.05111
-1.07211
-1.09234
-1.11181
-1.13054
-1.14855
-1.16585
-1.18246
-1.19841
-1.21375
-1.22853
-1.24279
-1.25659
-1.27001
-1.28312
-1.29605
-1.30884
-1.32161
-1.33445
-1.34751
-1.36087
-1.37467
-1.38901
-1.40402
-1.41981
-1.43649
-1.45414
-1.47286
-1.49275
-1.51382
-1.53613
-1.55974
-1.58465
-1.6109
-1.63859
-1.66744
-1.69753
-1.72874
-1.76114
-1.79467
-1.82932
-1.86505
-1.90145
-1.93852
-1.97625
-2.01451
-2.05299
-2.09149
-2.12982
-2.16782
-2.20532
-2.24239
-2.27862
-2.31408
-2.34865
-2.38158
-2.41293
-2.44261
-2.47062
-2.49768
-2.52315
-2.54747
-2.56914
-2.58861
-2.60563
-2.62139
-2.6353
-2.64936
-2.66086
-2.67132
-2.68106
-2.68882
-2.69406
-2.69732
-2.70018
-2.70456
-2.70851
-2.71224
-2.71648
-2.72055
-2.72359
-2.72743
-2.7321
-2.73759
-2.74491
-2.75187
-2.75978
-2.76926
-2.78015
-2.79268
-2.80774
-2.8235
-2.84026
-2.85771
-2.8772
-2.89873
-2.92206
-2.94686
-2.97307
-3.00049
-3.02917
-3.05898
-3.08803
-3.11685
-3.14577
-3.17593
-3.20731
-3.2398
-3.27345
-3.30819
-3.3439
-3.38056
-3.41686
-3.45238
-3.48674
-3.51924
-3.54925
-3.57624
-3.59997
-3.62063
-3.6365
-3.64731
-3.65329
-3.65478
-3.65224
-3.6484
-3.64608
-3.6395
-3.63332
-3.62799
-3.62178
-3.6133
-3.60153
-3.58331
-3.55629
-3.51771
-3.46445
-3.39333
-3.30126
-3.18429
-3.04139
-2.87238
-2.6801
-2.46898
-2.24458
-2.0142
-1.78575
-1.56689
-1.36435
-1.18338
-1.02762
-0.898855
-0.797159
-0.721171
-0.66848
-0.635941
-0.620116
-0.617377
-0.624254
-0.637627
-0.654835
-0.673679
-0.692411
-0.709663
-0.724074
-0.734447
-0.739996
-0.74031
-0.735462
-0.725206
-0.70955
-0.688592
-0.662679
-0.632418
-0.598523
-0.561861
-0.523348
-0.483892
-0.444274
-0.405192
-0.367249
-0.330993
-0.296866
-0.265128
-0.235933
-0.209187
-0.18453
-0.161357
-0.138813
-0.115697
-0.0903626
-0.0605979
-0.0238457
3.61674
3.60702
3.5963
3.58456
3.57181
3.55806
3.5433
3.52755
3.5108
3.49307
3.47434
3.45465
3.43397
3.41234
3.38974
3.36619
3.3417
3.31627
3.28991
3.26262
3.23442
3.2053
3.17529
3.14439
3.1126
3.07994
3.04642
3.01203
2.9768
2.94073
2.90382
2.8661
2.82756
2.78822
2.74809
2.70718
2.66549
2.62304
2.57984
2.5359
2.49123
2.44585
2.39977
2.35299
2.30554
2.25743
2.20867
2.15929
2.10929
2.05869
2.00752
1.95579
1.90352
1.85074
1.79745
1.74369
1.68947
1.63482
1.57985
1.52461
1.46914
1.41347
1.35761
1.30159
1.24545
1.18923
1.13296
1.07669
1.02045
0.964298
0.908269
0.85242
0.796797
0.741453
0.686437
0.631794
0.57757
0.523806
0.470545
0.417826
0.365688
0.314168
0.263301
0.213121
0.163659
0.114947
0.0670105
0.0198776
-0.0264271
-0.0718801
-0.11646
-0.160145
-0.202918
-0.244761
-0.285659
-0.325599
-0.36457
-0.402562
-0.439569
-0.475585
-0.510609
-0.544641
-0.577684
-0.609744
-0.64083
-0.670955
-0.700138
-0.728397
-0.755761
-0.782257
-0.807923
-0.832799
-0.85693
-0.88037
-0.903178
-0.925422
-0.94718
-0.968539
-0.989589
-1.01045
-1.03121
-1.05202
-1.07299
-1.09426
-1.11597
-1.13826
-1.16128
-1.18515
-1.21003
-1.23603
-1.26327
-1.29187
-1.32192
-1.35348
-1.38661
-1.42138
-1.45772
-1.49565
-1.53518
-1.57627
-1.61896
-1.66301
-1.70832
-1.7548
-1.80251
-1.85129
-1.90125
-1.95177
-2.00291
-2.05439
-2.10644
-2.15863
-2.21074
-2.26287
-2.31449
-2.36557
-2.41688
-2.46643
-2.51443
-2.56045
-2.60481
-2.6478
-2.68882
-2.7286
-2.7668
-2.80222
-2.83517
-2.86482
-2.89252
-2.9181
-2.94125
-2.96199
-2.98094
-2.99877
-3.01383
-3.02609
-3.03637
-3.04237
-3.04691
-3.05322
-3.05469
-3.05334
-3.05072
-3.0476
-3.04362
-3.03785
-3.03069
-3.0224
-3.01278
-3.00287
-2.99477
-2.98385
-2.97486
-2.96542
-2.95489
-2.94645
-2.94011
-2.93409
-2.92866
-2.92528
-2.92415
-2.92526
-2.92872
-2.93581
-2.94682
-2.95719
-2.96864
-2.98319
-3.0003
-3.01918
-3.03968
-3.06191
-3.08606
-3.1119
-3.13922
-3.16773
-3.19784
-3.22995
-3.26265
-3.29505
-3.32726
-3.35883
-3.38904
-3.41742
-3.44352
-3.46721
-3.4887
-3.50628
-3.51967
-3.52941
-3.53559
-3.53842
-3.54036
-3.54029
-3.53731
-3.53244
-3.52422
-3.51052
-3.48916
-3.45812
-3.41386
-3.35428
-3.27728
-3.18071
-3.0635
-2.92272
-2.75943
-2.57534
-2.37414
-2.16014
-1.939
-1.71766
-1.50322
-1.30234
-1.12001
-0.959711
-0.823409
-0.71164
-0.623661
-0.557664
-0.511086
-0.480933
-0.464055
-0.457376
-0.458056
-0.463588
-0.471849
-0.481058
-0.48978
-0.496926
-0.501687
-0.503497
-0.501936
-0.496794
-0.488073
-0.475934
-0.46057
-0.442195
-0.421096
-0.397669
-0.372397
-0.345816
-0.318437
-0.290768
-0.263279
-0.23638
-0.210316
-0.185561
-0.162421
-0.141137
-0.121811
-0.104456
-0.088951
-0.0750785
-0.0625588
-0.0510756
-0.0402598
-0.0296675
-0.0187635
-0.00687818
5.13938
5.13128
5.12203
5.1116
5.1
5.08721
5.07324
5.05806
5.04168
5.02409
5.00528
4.98525
4.96399
4.94149
4.91775
4.89276
4.86651
4.839
4.81022
4.78015
4.7488
4.71617
4.68223
4.64699
4.61045
4.5726
4.53344
4.49295
4.45115
4.40801
4.36355
4.31776
4.27065
4.2222
4.17244
4.12136
4.06896
4.01527
3.96027
3.904
3.84645
3.78765
3.7276
3.66635
3.60389
3.54026
3.47549
3.4096
3.34263
3.27461
3.20557
3.13556
3.06461
2.99276
2.92007
2.84658
2.77235
2.69741
2.62184
2.54568
2.46899
2.39184
2.31428
2.23638
2.15819
2.07995
2.00172
1.92358
1.84559
1.76781
1.69033
1.61321
1.53654
1.46039
1.38484
1.30995
1.2358
1.16244
1.08994
1.01837
0.947775
0.878213
0.809737
0.742395
0.676232
0.611291
0.54761
0.485227
0.424172
0.364474
0.306158
0.249244
0.193748
0.139684
0.0870578
0.035874
-0.0138684
-0.0621749
-0.109055
-0.154524
-0.198599
-0.241306
-0.282672
-0.322731
-0.361522
-0.399088
-0.43548
-0.470753
-0.504969
-0.538197
-0.570512
-0.601996
-0.63274
-0.662841
-0.692407
-0.721552
-0.750401
-0.779086
-0.807747
-0.83653
-0.865587
-0.895077
-0.925146
-0.955958
-0.987664
-1.02041
-1.05434
-1.08957
-1.12621
-1.16437
-1.20411
-1.24548
-1.28851
-1.33322
-1.37956
-1.42749
-1.47694
-1.52787
-1.58027
-1.634
-1.68882
-1.74463
-1.8015
-1.85923
-1.91797
-1.97703
-2.03647
-2.09594
-2.1559
-2.21592
-2.27598
-2.33668
-2.39623
-2.45487
-2.51186
-2.56819
-2.62409
-2.67967
-2.73248
-2.78308
-2.83123
-2.87663
-2.92019
-2.9616
-3.00038
-3.0368
-3.07213
-3.10254
-3.12973
-3.1528
-3.17365
-3.19295
-3.20977
-3.22429
-3.23653
-3.24663
-3.25811
-3.26703
-3.2716
-3.27336
-3.2708
-3.2688
-3.26653
-3.26233
-3.25667
-3.24816
-3.23562
-3.22179
-3.20715
-3.19208
-3.17473
-3.15507
-3.13545
-3.11692
-3.10168
-3.08642
-3.06962
-3.05306
-3.03652
-3.02356
-3.01335
-3.00518
-3.00046
-3.00038
-3.0001
-3.00218
-3.00442
-3.01065
-3.02075
-3.03332
-3.0483
-3.06531
-3.08427
-3.10523
-3.12794
-3.15254
-3.1788
-3.20579
-3.23316
-3.26046
-3.288
-3.31507
-3.34116
-3.36596
-3.38942
-3.41051
-3.4291
-3.44461
-3.4571
-3.46621
-3.47148
-3.47266
-3.46941
-3.4587
-3.44017
-3.41182
-3.37095
-3.31515
-3.24235
-3.15114
-3.04046
-2.9084
-2.75562
-2.58433
-2.39809
-2.20044
-1.99669
-1.79106
-1.5881
-1.39245
-1.2082
-1.03871
-0.886528
-0.753254
-0.639598
-0.545374
-0.469697
-0.411195
-0.367993
-0.337835
-0.318302
-0.307013
-0.301772
-0.300648
-0.302008
-0.304521
-0.307139
-0.30907
-0.30974
-0.308757
-0.305881
-0.30099
-0.294059
-0.285145
-0.27437
-0.261906
-0.247965
-0.232786
-0.216632
-0.1998
-0.182609
-0.165363
-0.148361
-0.131924
-0.116293
-0.101646
-0.088104
-0.0757013
-0.0644792
-0.0544223
-0.0455177
-0.037721
-0.0309424
-0.0250749
-0.0199973
-0.0156051
-0.0117695
-0.00832791
-0.00508213
-0.00180381
6.70357
6.70014
6.69548
6.68957
6.68239
6.67391
6.66411
6.65297
6.64046
6.62655
6.61122
6.59445
6.57621
6.55646
6.53518
6.51233
6.48789
6.46182
6.4341
6.4047
6.37358
6.34072
6.30609
6.26968
6.23146
6.1914
6.14946
6.10562
6.05985
6.01211
5.96238
5.91064
5.85688
5.80107
5.74322
5.68332
5.62136
5.55734
5.49124
5.42307
5.35283
5.28053
5.20618
5.12982
5.05145
4.97112
4.88886
4.8047
4.7187
4.6309
4.54136
4.45013
4.35729
4.2629
4.16703
4.06978
3.97121
3.87143
3.77052
3.6686
3.56575
3.4621
3.35774
3.25281
3.14741
3.04168
2.93573
2.82969
2.72368
2.61784
2.51228
2.40718
2.3028
2.19928
2.09672
1.99524
1.89496
1.79599
1.69844
1.60241
1.508
1.41531
1.32441
1.23538
1.14831
1.06325
0.980264
0.899395
0.820686
0.744167
0.669861
0.597783
0.527938
0.460322
0.394926
0.331728
0.270703
0.211813
0.155017
0.100263
0.0474948
-0.0033541
-0.0523555
-0.0995887
-0.14514
-0.189102
-0.231576
-0.272668
-0.312491
-0.351168
-0.388824
-0.425595
-0.46162
-0.497045
-0.532021
-0.566706
-0.601256
-0.635836
-0.67061
-0.705745
-0.741403
-0.777741
-0.814911
-0.853052
-0.892292
-0.932742
-0.974492
-1.01761
-1.06216
-1.10814
-1.15559
-1.20444
-1.25471
-1.30627
-1.35916
-1.41325
-1.46845
-1.52467
-1.58183
-1.63992
-1.69888
-1.75866
-1.81909
-1.88001