/*--------------------------------*- C++ -*----------------------------------*\
| =========                 |                                                 |
| \\      /  F ield         | OpenFOAM: The Open Source CFD Toolbox           |
|  \\    /   O peration     | Version:  2.4.0                                 |
|   \\  /    A nd           | Web:      www.OpenFOAM.org                      |
|    \\/     M anipulation  |                                                 |
\*---------------------------------------------------------------------------*/
FoamFile
{
    version     2.0;
    format      ascii;
    class       surfaceScalarField;
    location    "2.2";
    object      phi;
}
// * * * * * * * * * * * * * * * * * * * * * * * * * * * * * * * * * * * * * //

dimensions      [0 3 -1 0 0 0 0];

internalField   nonuniform List<scalar> 
15580
(
7.75309e-15
-1.07878e-12
2.28021e-15
-3.19702e-12
-2.44479e-14
-5.28487e-12
-6.99582e-14
-7.34565e-12
-1.31014e-13
-9.37802e-12
-2.03646e-13
-1.13807e-11
-2.83182e-13
-1.33527e-11
-3.6433e-13
-1.52928e-11
-4.41195e-13
-1.72001e-11
-5.0736e-13
-1.90738e-11
-5.55893e-13
-2.0913e-11
-5.79435e-13
-2.2717e-11
-5.70209e-13
-2.4485e-11
-5.20121e-13
-2.62163e-11
-4.20752e-13
-2.79105e-11
-2.63479e-13
-2.9567e-11
-3.94543e-14
-3.11853e-11
2.60257e-13
-3.2765e-11
6.44709e-13
-3.43059e-11
1.12293e-12
-3.58076e-11
1.70396e-12
-3.727e-11
2.39671e-12
-3.86928e-11
3.21e-12
-4.00761e-11
4.15236e-12
-4.14197e-11
5.23214e-12
-4.27238e-11
6.45728e-12
-4.39882e-11
7.83544e-12
-4.52133e-11
9.37373e-12
-4.6399e-11
1.10788e-11
-4.75457e-11
1.29568e-11
-4.86535e-11
1.50131e-11
-4.97227e-11
1.72528e-11
-5.07536e-11
1.96797e-11
-5.17465e-11
2.22968e-11
-5.2702e-11
2.51061e-11
-5.36203e-11
2.81084e-11
-5.45021e-11
3.13036e-11
-5.53476e-11
3.46903e-11
-5.61572e-11
3.82668e-11
-5.69316e-11
4.20292e-11
-5.76708e-11
4.59723e-11
-5.83759e-11
5.00881e-11
-5.9047e-11
5.43681e-11
-5.96853e-11
5.88002e-11
-6.02905e-11
6.33727e-11
-6.08651e-11
6.80724e-11
-6.14116e-11
7.28938e-11
-6.19403e-11
7.77919e-11
-6.2417e-11
8.25875e-11
-6.27129e-11
-6.29202e-11
8.70959e-11
-1.10306e-14
-1.06775e-12
-1.80505e-14
-3.19e-12
-1.42215e-14
-5.2887e-12
-1.35665e-15
-7.35852e-12
1.97296e-14
-9.39911e-12
4.90998e-14
-1.14101e-11
8.75819e-14
-1.33911e-11
1.36712e-13
-1.53419e-11
1.98637e-13
-1.7262e-11
2.76108e-13
-1.91513e-11
3.72374e-13
-2.10093e-11
4.91206e-13
-2.28358e-11
6.36769e-13
-2.46305e-11
8.13681e-13
-2.63933e-11
1.02687e-12
-2.81237e-11
1.28163e-12
-2.98218e-11
1.58352e-12
-3.14872e-11
1.93839e-12
-3.31199e-11
2.35225e-12
-3.47198e-11
2.83139e-12
-3.62867e-11
3.38215e-12
-3.78207e-11
4.01111e-12
-3.93218e-11
4.72483e-12
-4.07898e-11
5.53008e-12
-4.2225e-11
6.43354e-12
-4.36272e-11
7.44195e-12
-4.49966e-11
8.56193e-12
-4.63333e-11
9.80006e-12
-4.76372e-11
1.11629e-11
-4.89085e-11
1.26565e-11
-5.01471e-11
1.42871e-11
-5.13533e-11
1.60603e-11
-5.25267e-11
1.79817e-11
-5.36679e-11
2.00555e-11
-5.47757e-11
2.22866e-11
-5.58515e-11
2.46773e-11
-5.68927e-11
2.72315e-11
-5.79018e-11
2.99486e-11
-5.88744e-11
3.28311e-11
-5.9814e-11
3.58739e-11
-6.07137e-11
3.90776e-11
-6.15796e-11
4.24309e-11
-6.24003e-11
4.59344e-11
-6.31888e-11
4.9574e-11
-6.39301e-11
5.33729e-11
-6.46641e-11
5.70474e-11
-6.5086e-11
6.0419e-11
-6.53119e-11
6.30674e-11
-6.53391e-11
6.2627e-11
-6.53137e-11
-6.37147e-11
5.98353e-11
3.73492e-14
-1.1051e-12
1.14133e-13
-3.26679e-12
2.174e-13
-5.39197e-12
3.45168e-13
-7.48628e-12
4.9559e-13
-9.54953e-12
6.67031e-13
-1.15816e-11
8.58141e-13
-1.35822e-11
1.06784e-12
-1.55516e-11
1.29535e-12
-1.74895e-11
1.54021e-12
-1.93961e-11
1.8023e-12
-2.12714e-11
2.08178e-12
-2.31153e-11
2.37919e-12
-2.49279e-11
2.69532e-12
-2.67094e-11
3.03139e-12
-2.84598e-11
3.38881e-12
-3.01792e-11
3.76945e-12
-3.18678e-11
4.17534e-12
-3.35258e-11
4.60907e-12
-3.51535e-11
5.07329e-12
-3.6751e-11
5.57134e-12
-3.83188e-11
6.10659e-12
-3.9857e-11
6.68324e-12
-4.13665e-11
7.30548e-12
-4.28472e-11
7.97855e-12
-4.43003e-11
8.70765e-12
-4.57257e-11
9.49927e-12
-4.71249e-11
1.03599e-11
-4.84978e-11
1.12976e-11
-4.98462e-11
1.23206e-11
-5.11701e-11
1.34387e-11
-5.24715e-11
1.46625e-11
-5.37505e-11
1.60043e-11
-5.50096e-11
1.74775e-11
-5.6249e-11
1.90973e-11
-5.74712e-11
2.08814e-11
-5.86768e-11
2.28481e-11
-5.98685e-11
2.50216e-11
-6.10479e-11
2.74246e-11
-6.2217e-11
3.00946e-11
-6.33837e-11
3.30678e-11
-6.45527e-11
3.64193e-11
-6.57518e-11
4.01395e-11
-6.69089e-11
4.36245e-11
-6.74151e-11
4.6739e-11
-6.77785e-11
4.81227e-11
-6.82438e-11
3.86083e-11
-6.67742e-11
3.53347e-11
-6.40518e-11
3.02732e-11
-6.02891e-11
-5.48823e-11
2.14408e-11
3.03674e-14
-1.13546e-12
1.54216e-13
-3.39064e-12
3.7605e-13
-5.6138e-12
6.87228e-13
-7.79746e-12
1.07997e-12
-9.94227e-12
1.54719e-12
-1.20488e-11
2.08261e-12
-1.41177e-11
2.68052e-12
-1.61495e-11
3.33595e-12
-1.8145e-11
4.04445e-12
-2.01046e-11
4.80225e-12
-2.20292e-11
5.60601e-12
-2.3919e-11
6.45306e-12
-2.5775e-11
7.34102e-12
-2.75974e-11
8.26822e-12
-2.9387e-11
9.23315e-12
-3.11441e-11
1.02351e-11
-3.28697e-11
1.12732e-11
-3.4564e-11
1.23478e-11
-3.6228e-11
1.34587e-11
-3.78619e-11
1.46071e-11
-3.94672e-11
1.57938e-11
-4.10437e-11
1.70205e-11
-4.25932e-11
1.8289e-11
-4.41158e-11
1.96022e-11
-4.56134e-11
2.09625e-11
-4.70861e-11
2.2374e-11
-4.85363e-11
2.38402e-11
-4.9964e-11
2.5366e-11
-5.13721e-11
2.69565e-11
-5.27606e-11
2.86175e-11
-5.41324e-11
3.03555e-11
-5.54885e-11
3.21768e-11
-5.6831e-11
3.40904e-11
-5.81626e-11
3.61027e-11
-5.94834e-11
3.82272e-11
-6.08014e-11
4.04739e-11
-6.21151e-11
4.287e-11
-6.3444e-11
4.54689e-11
-6.48159e-11
4.83986e-11
-6.63135e-11
5.10212e-11
-6.71754e-11
5.34259e-11
-6.81565e-11
5.28332e-11
-6.89435e-11
4.80536e-11
-7.18248e-11
3.71322e-11
-6.77452e-11
3.20445e-11
-6.3323e-11
1.38712e-11
-4.86121e-11
-5.36656e-11
3.48498e-12
-3.52346e-11
-7.87202e-11
4.65146e-11
-1.36631e-10
1.33287e-13
-1.26875e-12
4.63416e-13
-3.72077e-12
9.56819e-13
-6.10721e-12
1.59873e-12
-8.43937e-12
2.37631e-12
-1.07198e-11
3.27863e-12
-1.29511e-11
4.29627e-12
-1.51353e-11
5.42142e-12
-1.72746e-11
6.64731e-12
-1.93709e-11
7.96858e-12
-2.14259e-11
9.38049e-12
-2.34411e-11
1.08796e-11
-2.54181e-11
1.24626e-11
-2.7358e-11
1.41277e-11
-2.92624e-11
1.58724e-11
-3.11317e-11
1.76959e-11
-3.29677e-11
1.95965e-11
-3.47703e-11
2.1574e-11
-3.65415e-11
2.36266e-11
-3.82807e-11
2.57548e-11
-3.99901e-11
2.79561e-11
-4.16685e-11
3.02313e-11
-4.33188e-11
3.25766e-11
-4.49385e-11
3.49928e-11
-4.6532e-11
3.74738e-11
-4.80945e-11
4.00206e-11
-4.96329e-11
4.26236e-11
-5.11393e-11
4.52837e-11
-5.26241e-11
4.7986e-11
-5.40744e-11
5.07318e-11
-5.55064e-11
5.3499e-11
-5.68995e-11
5.62897e-11
-5.82792e-11
5.90718e-11
-5.96131e-11
6.18552e-11
-6.0946e-11
6.46102e-11
-6.22384e-11
6.74251e-11
-6.36164e-11
7.01766e-11
-6.48666e-11
7.22531e-11
-6.55205e-11
7.33814e-11
-6.59625e-11
7.01067e-11
-6.60688e-11
6.68767e-11
-6.94881e-11
2.77413e-11
-6.5155e-11
1.63323e-11
-5.80318e-11
-2.63619e-11
-2.91881e-11
-3.22399e-11
-6.18682e-11
-1.01366e-10
5.80341e-12
-1.02254e-10
-4.7724e-11
-2.46357e-10
1.47588e-10
-3.95603e-10
7.05256e-11
7.72042e-11
-4.26291e-10
2.14099e-14
-1.29016e-12
1.24898e-13
-3.82425e-12
3.19905e-13
-6.30221e-12
6.01944e-13
-8.72141e-12
9.67651e-13
-1.10856e-11
1.41431e-12
-1.33978e-11
1.94006e-12
-1.56611e-11
2.54332e-12
-1.78779e-11
3.22332e-12
-2.00509e-11
3.97917e-12
-2.21817e-11
4.81088e-12
-2.42728e-11
5.71794e-12
-2.63252e-11
6.70088e-12
-2.8341e-11
7.75922e-12
-3.03207e-11
8.89385e-12
-3.22663e-11
1.01039e-11
-3.41777e-11
1.13904e-11
-3.60568e-11
1.27516e-11
-3.79027e-11
1.41886e-11
-3.97176e-11
1.56978e-11
-4.14994e-11
1.72802e-11
-4.32509e-11
1.89297e-11
-4.49683e-11
2.06465e-11
-4.66553e-11
2.24206e-11
-4.8306e-11
2.42512e-11
-4.99251e-11
2.61224e-11
-5.15041e-11
2.80319e-11
-5.30488e-11
2.99554e-11
-5.45475e-11
3.18878e-11
-5.60068e-11
3.37926e-11
-5.74112e-11
3.56639e-11
-5.87708e-11
3.74643e-11
-6.00797e-11
3.92368e-11
-6.13856e-11
4.05587e-11
-6.22679e-11
4.11574e-11
-6.28371e-11
4.0312e-11
-6.29352e-11
3.53904e-11
-6.40845e-11
2.52397e-11
-6.64788e-11
-7.34715e-13
-6.12286e-11
-1.86831e-11
-4.85299e-11
-9.40576e-11
5.764e-12
-4.97671e-11
-1.09448e-10
-8.73423e-11
-2.04566e-11
-1.68131e-10
5.16006e-11
-2.17299e-10
-1.27002e-11
-3.04821e-10
9.33258e-11
-4.82412e-10
1.29868e-10
-4.77433e-10
1.42617e-10
-5.88213e-10
1.81305e-10
1.55766e-10
-6.66774e-10
-2.75222e-14
-1.26264e-12
-1.35944e-13
-3.71583e-12
-3.18065e-13
-6.12009e-12
-5.52499e-13
-8.48698e-12
-8.20301e-13
-1.08178e-11
-1.10536e-12
-1.31127e-11
-1.39305e-12
-1.53734e-11
-1.6714e-12
-1.75996e-11
-1.92899e-12
-1.97933e-11
-2.15701e-12
-2.19537e-11
-2.34611e-12
-2.40837e-11
-2.48979e-12
-2.61815e-11
-2.57968e-12
-2.82511e-11
-2.61085e-12
-3.02895e-11
-2.57487e-12
-3.23023e-11
-2.46781e-12
-3.42847e-11
-2.2802e-12
-3.62444e-11
-2.00875e-12
-3.81741e-11
-1.64206e-12
-4.00843e-11
-1.17728e-12
-4.19642e-11
-6.004e-13
-4.38278e-11
9.1004e-14
-4.56597e-11
9.13887e-13
-4.74782e-11
1.87013e-12
-4.92623e-11
2.97931e-12
-5.10343e-11
4.24237e-12
-5.27672e-11
5.67953e-12
-5.4486e-11
7.29118e-12
-5.61592e-11
9.1011e-12
-5.78167e-11
1.11271e-11
-5.94373e-11
1.33941e-11
-6.10377e-11
1.50771e-11
-6.17627e-11
1.59352e-11
-6.2295e-11
1.40011e-11
-6.39763e-11
-6.77674e-13
-6.30286e-11
-2.69172e-11
-5.83067e-11
-7.01239e-11
-2.13059e-11
-9.57928e-11
-4.09187e-11
-1.71862e-10
1.48385e-11
-1.71141e-10
-4.92501e-11
-3.54889e-10
1.89512e-10
-5.09629e-10
4.52921e-11
-5.90929e-10
6.08438e-11
-6.2617e-10
8.68491e-11
-7.61709e-10
1.22838e-10
-8.17953e-10
1.4957e-10
-8.58174e-10
1.70088e-10
-8.7675e-10
1.61193e-10
-8.46379e-10
1.50934e-10
1.38607e-10
-8.29221e-10
-1.0746e-13
-1.15518e-12
-3.22643e-13
-3.50065e-12
-5.94165e-13
-5.84857e-12
-8.99531e-13
-8.18161e-12
-1.22032e-12
-1.0497e-11
-1.5405e-12
-1.27925e-11
-1.8475e-12
-1.50664e-11
-2.12965e-12
-1.73174e-11
-2.37854e-12
-1.95444e-11
-2.58504e-12
-2.17472e-11
-2.74365e-12
-2.39251e-11
-2.84626e-12
-2.60789e-11
-2.88952e-12
-2.82078e-11
-2.86493e-12
-3.03141e-11
-2.77109e-12
-3.23962e-11
-2.59774e-12
-3.44581e-11
-2.34588e-12
-3.64963e-11
-2.00201e-12
-3.8518e-11
-1.57088e-12
-4.05154e-11
-1.03395e-12
-4.25011e-11
-4.02524e-13
-4.44592e-11
3.49535e-13
-4.64118e-11
1.19944e-12
-4.83281e-11
2.18444e-12
-5.02473e-11
3.26202e-12
-5.21119e-11
4.48621e-12
-5.39914e-11
5.78566e-12
-5.57854e-11
7.24806e-12
-5.76216e-11
8.75372e-12
-5.93224e-11
1.01002e-11
-6.07837e-11
1.09163e-11
-6.20076e-11
1.48566e-12
-6.64278e-11
-3.31068e-11
-6.10111e-11
-8.31921e-11
-1.44508e-11
-1.01773e-10
-4.4563e-11
-5.06745e-11
-1.09406e-10
-2.66822e-10
1.94842e-10
-3.50158e-10
4.24176e-11
-4.66587e-10
1.31267e-10
-6.49778e-10
1.33942e-10
-5.99227e-10
1.38968e-10
-7.09523e-10
1.55588e-10
-7.73252e-10
1.24573e-10
-8.13204e-10
1.26802e-10
-8.13061e-10
1.22696e-10
-7.80485e-10
1.16994e-10
-7.21259e-10
1.10862e-10
-6.63524e-10
1.03458e-10
-6.08045e-10
9.54556e-11
8.68004e-11
-5.56239e-10
1.65381e-13
-1.32056e-12
5.72204e-13
-3.90747e-12
1.17708e-12
-6.45344e-12
1.96004e-12
-8.96458e-12
2.90157e-12
-1.14385e-11
3.98394e-12
-1.38749e-11
5.18902e-12
-1.62714e-11
6.50088e-12
-1.86293e-11
7.90202e-12
-2.09455e-11
9.37776e-12
-2.3223e-11
1.09104e-11
-2.54577e-11
1.24859e-11
-2.76545e-11
1.40854e-11
-2.98073e-11
1.56953e-11
-3.1924e-11
1.7294e-11
-3.39949e-11
1.88677e-11
-3.60318e-11
2.03911e-11
-3.80197e-11
2.18494e-11
-3.99763e-11
2.32119e-11
-4.18778e-11
2.44622e-11
-4.37515e-11
2.55623e-11
-4.55593e-11
2.64938e-11
-4.73433e-11
2.72093e-11
-4.90436e-11
2.76879e-11
-5.07259e-11
2.78727e-11
-5.22966e-11
2.77403e-11
-5.3859e-11
2.72189e-11
-5.5264e-11
2.61306e-11
-5.65333e-11
2.43291e-11
-5.75209e-11
7.80774e-12
-5.96181e-11
-3.10387e-11
-5.81949e-11
-9.87313e-11
8.29009e-13
-6.76238e-11
-9.21187e-11
-8.63172e-11
4.24262e-12
-2.89713e-10
1.58833e-10
-4.95791e-10
9.66726e-11
-4.29581e-10
1.28636e-10
-5.83553e-10
1.9639e-10
-6.23039e-10
1.70753e-10
-6.4639e-10
1.57293e-10
-6.32767e-10
1.25345e-10
-5.80149e-10
1.02969e-10
-5.41957e-10
8.63805e-11
-4.88852e-10
7.36966e-11
-4.29228e-10
6.30718e-11
-3.65579e-10
5.33451e-11
-2.98954e-10
4.42369e-11
-2.31197e-10
3.57009e-11
-1.62882e-10
2.71403e-11
1.82806e-11
-9.43617e-11
2.38433e-13
-1.55899e-12
9.38022e-13
-4.60706e-12
2.05403e-12
-7.56945e-12
3.52858e-12
-1.04391e-11
5.30737e-12
-1.32173e-11
7.33771e-12
-1.59052e-11
9.57026e-12
-1.8504e-11
1.19561e-11
-2.10151e-11
1.44498e-11
-2.34392e-11
1.70049e-11
-2.57781e-11
1.95794e-11
-2.80322e-11
2.21281e-11
-3.02032e-11
2.46119e-11
-3.22911e-11
2.69857e-11
-3.42978e-11
2.92134e-11
-3.62225e-11
3.12488e-11
-3.80673e-11
3.30594e-11
-3.98303e-11
3.45968e-11
-4.15137e-11
3.58336e-11
-4.31146e-11
3.67175e-11
-4.46353e-11
3.72294e-11
-4.60712e-11
3.7311e-11
-4.74249e-11
3.69576e-11
-4.86902e-11
3.61021e-11
-4.98704e-11
3.47601e-11
-5.09546e-11
3.28427e-11
-5.19416e-11
3.03955e-11
-5.28169e-11
2.74168e-11
-5.39343e-11
-2.69193e-11
-5.43949e-11
-4.18344e-11
-5.37447e-11
-4.39413e-11
-5.6088e-11
-5.14793e-12
-3.79644e-11
-1.0475e-10
7.48337e-12
-1.01751e-10
1.24323e-12
-1.27748e-11
6.98568e-11
-2.80034e-11
1.11901e-10
1.07146e-11
8.99183e-11
1.39708e-10
6.73968e-11
2.62521e-10
4.79397e-11
3.86897e-10
3.29163e-11
4.94863e-10
1.73795e-11
5.9366e-10
4.17234e-12
6.87705e-10
-7.66471e-12
7.79179e-10
-1.7777e-11
8.68939e-10
-2.6688e-11
9.57239e-10
-3.49554e-11
1.04401e-09
-4.25309e-11
1.12827e-09
-4.8565e-11
1.20877e-09
-5.33537e-11
-5.76941e-11
1.28474e-09
2.09591e-13
-1.76858e-12
7.3334e-13
-5.13081e-12
1.50957e-12
-8.34568e-12
2.4959e-12
-1.14255e-11
3.64748e-12
-1.43689e-11
4.91699e-12
-1.71748e-11
6.25602e-12
-1.9843e-11
7.61431e-12
-2.23733e-11
8.94165e-12
-2.47666e-11
1.01864e-11
-2.70229e-11
1.12983e-11
-2.91441e-11
1.22258e-11
-3.11307e-11
1.29201e-11
-3.29854e-11
1.33313e-11
-3.4709e-11
1.34141e-11
-3.63053e-11
1.31218e-11
-3.7775e-11
1.2415e-11
-3.91234e-11
1.12522e-11
-4.03509e-11
9.60222e-12
-4.14647e-11
7.43145e-12
-4.24645e-11
4.72054e-12
-4.33603e-11
1.4466e-12
-4.4151e-11
-2.39377e-12
-4.48499e-11
-6.81057e-12
-4.54536e-11
-1.17884e-11
-4.59767e-11
-1.7316e-11
-4.6414e-11
-2.34359e-11
-4.68186e-11
-9.2619e-11
-4.71245e-11
-9.99042e-11
-4.75263e-11
-9.92569e-11
-5.43921e-11
-6.87024e-11
-8.66424e-11
3.78897e-11
-1.44557e-10
1.56175e-10
-1.10802e-10
2.64769e-10
-1.07351e-10
4.5021e-10
-1.15583e-10
6.81713e-10
-1.19602e-10
8.95987e-10
-1.24355e-10
1.09837e-09
-1.34984e-10
1.28931e-09
-1.43004e-10
1.46973e-09
-1.47499e-10
1.63643e-09
-1.49318e-10
1.79035e-09
-1.4975e-10
1.93161e-09
-1.48924e-10
2.06092e-09
-1.47094e-10
2.17868e-09
-1.44448e-10
2.28472e-09
-1.40994e-10
2.37938e-09
-1.37191e-10
2.46444e-09
-1.33625e-10
2.54064e-09
-1.29547e-10
-1.24126e-10
2.60707e-09
1.81443e-13
-1.95003e-12
7.82793e-13
-5.73216e-12
1.77561e-12
-9.33849e-12
3.08976e-12
-1.27396e-11
4.65343e-12
-1.59325e-11
6.3936e-12
-1.89149e-11
8.2355e-12
-2.16849e-11
1.01035e-11
-2.42413e-11
1.19201e-11
-2.65832e-11
1.36076e-11
-2.87103e-11
1.5086e-11
-3.06225e-11
1.62758e-11
-3.23204e-11
1.70949e-11
-3.38045e-11
1.7462e-11
-3.50762e-11
1.72935e-11
-3.61368e-11
1.65067e-11
-3.69883e-11
1.50164e-11
-3.76331e-11
1.27393e-11
-3.80738e-11
9.58893e-12
-3.83143e-11
5.48205e-12
-3.83577e-11
3.31645e-13
-3.82098e-11
-5.9453e-12
-3.78741e-11
-1.34359e-11
-3.73592e-11
-2.222e-11
-3.66695e-11
-3.23729e-11
-3.58239e-11
-4.39538e-11
-3.48331e-11
-7.3316e-11
-3.36931e-11
-1.43318e-10
-3.22426e-11
-1.59696e-10
-3.11483e-11
-1.76041e-10
-3.80473e-11
-5.12622e-11
-2.11421e-10
-5.48803e-11
-1.40938e-10
2.08839e-11
-1.86566e-10
2.2076e-10
-3.07227e-10
4.38069e-10
-3.32892e-10
6.84907e-10
-3.6644e-10
8.96315e-10
-3.35763e-10
1.08092e-09
-3.19586e-10
1.2388e-09
-3.00891e-10
1.37211e-09
-2.8081e-10
1.48279e-09
-2.59998e-10
1.57422e-09
-2.41179e-10
1.64918e-09
-2.23878e-10
1.71041e-09
-2.08332e-10
1.76037e-09
-1.94405e-10
1.80141e-09
-1.82032e-10
1.83542e-09
-1.71202e-10
1.86352e-09
-1.61726e-10
1.88753e-09
-1.53558e-10
-1.46467e-10
1.90987e-09
7.00472e-13
-2.6505e-12
2.50149e-12
-7.53318e-12
5.2079e-12
-1.20449e-11
8.67923e-12
-1.62109e-11
1.27823e-11
-2.00356e-11
1.73893e-11
-2.3522e-11
2.23776e-11
-2.66732e-11
2.7627e-11
-2.94908e-11
3.30207e-11
-3.19769e-11
3.84417e-11
-3.41313e-11
4.37742e-11
-3.5955e-11
4.89e-11
-3.74461e-11
5.36999e-11
-3.86044e-11
5.80496e-11
-3.94259e-11
6.18224e-11
-3.99095e-11
6.48827e-11
-4.00486e-11
6.7091e-11
-3.98414e-11
6.82952e-11
-3.9278e-11
6.83374e-11
-3.83565e-11
6.70421e-11
-3.70624e-11
6.42267e-11
-3.53944e-11
5.96849e-11
-3.33323e-11
5.32018e-11
-3.08761e-11
4.453e-11
-2.79977e-11
3.34054e-11
-2.46993e-11
1.95129e-11
-2.09405e-11
2.55198e-12
-1.67322e-11
-1.91673e-11
-1.20455e-11
-1.13324e-10
-4.81511e-12
-1.50264e-10
-1.92701e-12
-3.45559e-10
-1.61254e-11
-4.82498e-10
-3.99959e-12
-3.93474e-10
-2.7559e-10
-5.6775e-10
-1.32952e-10
-5.58553e-10
-3.42089e-10
-6.29916e-10
-2.95077e-10
-6.73794e-10
-2.91886e-10
-6.03383e-10
-3.89997e-10
-5.50148e-10
-3.54126e-10
-4.87166e-10
-3.43792e-10
-4.4098e-10
-3.06184e-10
-4.04642e-10
-2.77517e-10
-3.74022e-10
-2.54498e-10
-3.47097e-10
-2.35257e-10
-3.23043e-10
-2.18459e-10
-3.0096e-10
-2.04115e-10
-2.80811e-10
-1.91351e-10
-2.62568e-10
-1.79969e-10
-2.46529e-10
-1.69596e-10
-1.59382e-10
-2.33614e-10
2.93549e-13
-2.94405e-12
1.15826e-12
-8.39789e-12
2.53645e-12
-1.34231e-11
4.35313e-12
-1.80276e-11
6.5382e-12
-2.22206e-11
9.02594e-12
-2.60097e-11
1.17536e-11
-2.94008e-11
1.46618e-11
-3.2399e-11
1.76926e-11
-3.50076e-11
2.07904e-11
-3.72292e-11
2.38998e-11
-3.90644e-11
2.69669e-11
-4.05132e-11
2.99364e-11
-4.15739e-11
3.27543e-11
-4.22438e-11
3.53631e-11
-4.25183e-11
3.77067e-11
-4.23922e-11
3.9723e-11
-4.18577e-11
4.13518e-11
-4.09069e-11
4.2524e-11
-3.95286e-11
4.31731e-11
-3.77116e-11
4.32197e-11
-3.5441e-11
4.25892e-11
-3.27017e-11
4.1188e-11
-2.94749e-11
3.8931e-11
-2.57407e-11
3.57074e-11
-2.14758e-11
3.14213e-11
-1.66544e-11
2.59331e-11
-1.1244e-11
1.90928e-11
-5.20528e-12
1.35115e-11
7.64385e-13
4.63176e-12
6.96434e-12
-7.28809e-11
1.32469e-11
-1.14114e-10
3.69571e-11
-3.77979e-10
-1.17827e-11
-5.35648e-10
2.47173e-11
-8.22379e-10
-5.5356e-11
-1.08787e-09
-2.95836e-11
-1.08264e-09
-2.9706e-10
-1.34212e-09
-1.30524e-10
-1.47142e-09
-2.2482e-10
-1.55115e-09
-2.64066e-10
-1.61109e-09
-2.46243e-10
-1.60173e-09
-2.86874e-10
-1.57917e-09
-2.77059e-10
-1.53284e-09
-2.8159e-10
-1.47528e-09
-2.76013e-10
-1.41184e-09
-2.67561e-10
-1.34735e-09
-2.55837e-10
-1.28536e-09
-2.4196e-10
-1.22858e-09
-2.26379e-10
-2.1112e-10
-1.17684e-09
-2.57312e-13
-2.68674e-12
-1.00391e-12
-7.65129e-12
-2.18753e-12
-1.22395e-11
-3.74551e-12
-1.64696e-11
-5.62035e-12
-2.03458e-11
-7.75839e-12
-2.38717e-11
-1.01091e-11
-2.70502e-11
-1.26238e-11
-2.98843e-11
-1.52553e-11
-3.23761e-11
-1.79567e-11
-3.45278e-11
-2.06805e-11
-3.63405e-11
-2.33781e-11
-3.78157e-11
-2.59987e-11
-3.89533e-11
-2.84882e-11
-3.97543e-11
-3.07889e-11
-4.02176e-11
-3.28375e-11
-4.03436e-11
-3.45654e-11
-4.01299e-11
-3.58953e-11
-3.95769e-11
-3.67432e-11
-3.86807e-11
-3.70128e-11
-3.7442e-11
-3.65986e-11
-3.58552e-11
-3.53788e-11
-3.39216e-11
-3.32198e-11
-3.16339e-11
-2.99657e-11
-2.89948e-11
-2.54469e-11
-2.59945e-11
-1.94628e-11
-2.26385e-11
-1.17925e-11
-1.89143e-11
-2.16569e-12
-1.48321e-11
8.97401e-12
-1.03753e-11
2.14914e-11
-5.553e-12
3.4538e-11
-2.17894e-13
3.60622e-11
3.04891e-12
1.68405e-11
7.36986e-12
2.99699e-11
1.01121e-11
-3.96633e-11
1.426e-11
-7.99109e-11
1.06637e-11
-3.68396e-10
-8.57476e-12
-5.37603e-10
3.86847e-11
-6.34079e-10
-1.28338e-10
-9.08541e-10
1.04418e-11
-9.70367e-10
-1.84418e-10
-1.12347e-09
-1.33771e-10
-1.22934e-09
-1.71187e-10
-1.26889e-09
-2.42043e-10
-1.28614e-09
-2.58766e-10
-1.23578e-09
-3.17916e-10
-1.18215e-09
-3.09469e-10
-1.1154e-09
-3.08705e-10
-1.0484e-09
-2.93385e-10
-2.71676e-10
-9.87841e-10
-5.45265e-13
-2.14147e-12
-1.9748e-12
-6.22175e-12
-4.15639e-12
-1.00579e-11
-6.99644e-12
-1.36296e-11
-1.04058e-11
-1.69365e-11
-1.42993e-11
-1.99781e-11
-1.85947e-11
-2.27548e-11
-2.32123e-11
-2.52667e-11
-2.80739e-11
-2.75145e-11
-3.31028e-11
-2.94989e-11
-3.82221e-11
-3.12212e-11
-4.33553e-11
-3.26824e-11
-4.84243e-11
-3.38843e-11
-5.33507e-11
-3.4828e-11
-5.80522e-11
-3.5516e-11
-6.24461e-11
-3.59497e-11
-6.64438e-11
-3.61322e-11
-6.99553e-11
-3.60653e-11
-7.28833e-11
-3.57528e-11
-7.51282e-11
-3.5197e-11
-7.65806e-11
-3.44028e-11
-7.71292e-11
-3.3373e-11
-7.66491e-11
-3.21139e-11
-7.50145e-11
-3.06294e-11
-7.20818e-11
-2.89273e-11
-6.77075e-11
-2.70128e-11
-6.17257e-11
-2.48961e-11
-5.39736e-11
-2.25841e-11
-4.4259e-11
-2.00899e-11
-3.23894e-11
-1.74227e-11
-1.80126e-11
-1.45946e-11
-3.35661e-12
-1.16071e-11
1.24831e-11
-8.46984e-12
2.71456e-11
-5.43571e-12
3.53229e-11
-2.75181e-12
4.47523e-11
-3.70416e-13
3.36373e-11
2.48573e-12
6.51482e-11
7.17022e-12
-6.90442e-11
5.85445e-12
-5.15942e-11
-7.00818e-12
-2.29907e-10
-6.10439e-12
-3.40145e-10
-2.35278e-11
-4.00874e-10
-1.1042e-10
-6.03514e-10
-3.94024e-11
-6.41648e-10
-2.20633e-10
-7.72524e-10
-1.87039e-10
-8.60915e-10
-2.21078e-10
-8.60596e-10
-3.09024e-10
-8.19969e-10
-3.34011e-10
-3.46274e-10
-7.45372e-10
-2.81596e-13
-1.85988e-12
-1.17547e-12
-5.32788e-12
-2.65417e-12
-8.57919e-12
-4.65422e-12
-1.16295e-11
-7.1138e-12
-1.44769e-11
-9.97189e-12
-1.71201e-11
-1.31681e-11
-1.95586e-11
-1.66423e-11
-2.17925e-11
-2.03345e-11
-2.38223e-11
-2.41843e-11
-2.56491e-11
-2.81316e-11
-2.7274e-11
-3.21152e-11
-2.86988e-11
-3.60743e-11
-2.99252e-11
-3.99469e-11
-3.09555e-11
-4.36712e-11
-3.17917e-11
-4.71843e-11
-3.24366e-11
-5.0424e-11
-3.28925e-11
-5.33269e-11
-3.31625e-11
-5.58306e-11
-3.32491e-11
-5.78721e-11
-3.31556e-11
-5.939e-11
-3.28849e-11
-6.03225e-11
-3.24405e-11
-6.0611e-11
-3.18254e-11
-6.01966e-11
-3.10437e-11
-5.90257e-11
-3.00982e-11
-5.7045e-11
-2.89935e-11
-5.42085e-11
-2.77325e-11
-5.0472e-11
-2.63206e-11
-4.58016e-11
-2.47604e-11
-4.01662e-11
-2.30581e-11
-3.35453e-11
-2.12155e-11
-2.59133e-11
-1.92391e-11
-1.7253e-11
-1.71302e-11
-7.79777e-12
-1.48909e-11
1.96342e-12
-1.2513e-11
1.15411e-11
-9.94654e-12
2.12301e-11
-7.25439e-12
2.93575e-11
-4.95391e-12
3.70834e-11
-2.68729e-12
3.06889e-11
-6.4251e-13
2.09796e-11
3.6046e-12
-6.95202e-12
4.40381e-12
-1.15374e-10
-1.99715e-12
-1.54775e-10
-1.81297e-15
-3.33201e-10
-4.2205e-11
-5.07798e-10
-1.24338e-11
-5.51911e-10
-1.76902e-10
-7.68701e-10
-9.22334e-11
-8.26792e-10
-2.7592e-10
-2.72795e-10
-9.00271e-10
-2.12998e-13
-1.64688e-12
-7.33806e-13
-4.80707e-12
-1.53755e-12
-7.77544e-12
-2.64393e-12
-1.05232e-11
-4.06234e-12
-1.30585e-11
-5.79312e-12
-1.53893e-11
-7.8285e-12
-1.75232e-11
-1.01535e-11
-1.94675e-11
-1.27465e-11
-2.12293e-11
-1.55802e-11
-2.28154e-11
-1.8622e-11
-2.42322e-11
-2.1835e-11
-2.54858e-11
-2.51779e-11
-2.65822e-11
-2.86065e-11
-2.75269e-11
-3.20733e-11
-2.83249e-11
-3.55285e-11
-2.89814e-11
-3.89203e-11
-2.95007e-11
-4.21956e-11
-2.98872e-11
-4.52997e-11
-3.01449e-11
-4.81779e-11
-3.02775e-11
-5.07746e-11
-3.02882e-11
-5.30348e-11
-3.01803e-11
-5.49036e-11
-2.99566e-11
-5.63277e-11
-2.96196e-11
-5.72544e-11
-2.91715e-11
-5.76337e-11
-2.86142e-11
-5.74169e-11
-2.79494e-11
-5.65592e-11
-2.71783e-11
-5.50176e-11
-2.63019e-11
-5.27549e-11
-2.53208e-11
-4.97353e-11
-2.42351e-11
-4.59299e-11
-2.30445e-11
-4.13118e-11
-2.17483e-11
-3.58579e-11
-2.03449e-11
-2.95388e-11
-1.88321e-11
-2.22786e-11
-1.72067e-11
-1.40684e-11
-1.54646e-11
-5.4216e-12
-1.36007e-11
3.48748e-12
-1.15963e-11
1.22496e-11
-9.40463e-12
2.03456e-11
-7.4593e-12
3.02242e-11
-5.54659e-12
3.15717e-11
-3.3608e-12
3.12437e-11
3.25957e-13
-1.06915e-11
-2.69863e-13
-1.84384e-11
-4.68681e-12
-1.90566e-10
-4.77296e-12
-2.68608e-10
-1.41832e-11
-4.28714e-10
-1.15736e-10
-6.26972e-11
-6.38812e-10
4.17416e-13
-2.06429e-12
1.14032e-12
-5.52997e-12
1.8734e-12
-8.50853e-12
2.45927e-12
-1.1109e-11
2.78124e-12
-1.33804e-11
2.75584e-12
-1.53639e-11
2.32726e-12
-1.70946e-11
1.46275e-12
-1.8603e-11
1.48614e-13
-1.99152e-11
-1.61325e-12
-2.10535e-11
-3.80806e-12
-2.20373e-11
-6.41066e-12
-2.28832e-11
-9.38731e-12
-2.36056e-11
-1.26975e-11
-2.42166e-11
-1.62953e-11
-2.47272e-11
-2.01302e-11
-2.51464e-11
-2.41486e-11
-2.54823e-11
-2.82943e-11
-2.57416e-11
-3.25089e-11
-2.59303e-11
-3.6733e-11
-2.60533e-11
-4.0906e-11
-2.61153e-11
-4.4967e-11
-2.61193e-11
-4.88546e-11
-2.6069e-11
-5.25081e-11
-2.59662e-11
-5.5866e-11
-2.58135e-11
-5.88687e-11
-2.56116e-11
-6.14556e-11
-2.53624e-11
-6.35687e-11
-2.50652e-11
-6.5149e-11
-2.47216e-11
-6.61407e-11
-2.43292e-11
-6.64865e-11
-2.38893e-11
-6.61337e-11
-2.33973e-11
-6.5027e-11
-2.28549e-11
-6.31172e-11
-2.22547e-11
-6.03508e-11
-2.15984e-11
-5.66825e-11
-2.0875e-11
-5.206e-11
-2.00872e-11
-4.64427e-11
-1.9218e-11
-3.97671e-11
-1.82718e-11
-3.19486e-11
-1.72231e-11
-2.33318e-11
-1.60761e-11
-1.41162e-11
-1.47621e-11
-4.10824e-12
-1.33685e-11
7.37181e-12
-1.22851e-11
1.84332e-11
-1.13549e-11
2.46131e-11
-1.0867e-11
3.13646e-11
-1.15245e-11
1.8505e-11
-1.32365e-12
-9.23897e-11
-4.83977e-12
-3.85981e-12
-1.51217e-10
1.73357e-11
3.12057e-11
4.20972e-11
5.03882e-11
5.64077e-11
6.04439e-11
6.27493e-11
6.35462e-11
6.30311e-11
6.13775e-11
5.87402e-11
5.5257e-11
5.10514e-11
4.62348e-11
4.09075e-11
3.51611e-11
2.90789e-11
2.27373e-11
1.6207e-11
9.55366e-12
2.8384e-12
-3.88091e-12
-1.05499e-11
-1.71161e-11
-2.35296e-11
-2.97411e-11
-3.57036e-11
-4.13688e-11
-4.66904e-11
-5.16196e-11
-5.61088e-11
-6.01062e-11
-6.35611e-11
-6.64158e-11
-6.86142e-11
-7.00892e-11
-7.07764e-11
-7.05944e-11
-6.94662e-11
-6.72894e-11
-6.39655e-11
-5.93275e-11
-5.32961e-11
-4.61812e-11
-3.81497e-11
-3.00392e-11
-2.19518e-11
-5.70767e-12
8.08507e-12
1.65233e-11
9.1143e-11
-6.33564e-11
9.22059e-11
-6.26664e-11
9.46671e-11
-6.16936e-11
9.61739e-11
-6.07565e-11
9.66809e-11
-5.96844e-11
9.62794e-11
-5.84759e-11
9.59741e-11
-5.83084e-11
9.42854e-11
-5.67125e-11
7.73677e-11
-4.08736e-11
5.34484e-11
-3.26642e-11
3.30767e-11
-3.4654e-11
1.40681e-11
-3.42636e-11
-5.68919e-12
-3.20789e-11
-2.68014e-11
-3.00071e-11
-4.9382e-11
-2.81103e-11
-7.32397e-11
-2.64698e-11
-9.79599e-11
-2.50975e-11
-1.23065e-10
-2.39952e-11
-1.47761e-10
-2.31709e-11
-1.71755e-10
-2.26333e-11
-1.94628e-10
-2.23817e-11
-2.16458e-10
-2.24016e-11
-2.37281e-10
-2.26668e-11
-2.57137e-10
-2.31663e-11
-2.7608e-10
-2.38868e-11
-2.94186e-10
-2.48087e-11
-3.11497e-10
-2.59084e-11
-3.28037e-10
-2.71635e-11
-3.43785e-10
-2.85489e-11
-3.58781e-10
-3.00473e-11
-3.73e-10
-3.1641e-11
-3.86505e-10
-3.33086e-11
-3.99399e-10
-3.50253e-11
-4.11832e-10
-3.67649e-11
-4.23939e-10
-3.85317e-11
-4.35894e-10
-4.0257e-11
-4.4792e-10
-4.18902e-11
-4.60199e-10
-4.34897e-11
-4.72916e-10
-4.50299e-11
-4.8609e-10
-4.64684e-11
-4.99076e-10
-4.78013e-11
-5.1157e-10
-4.90215e-11
-5.22942e-10
-5.01284e-11
-5.33174e-10
-5.11221e-11
-5.42297e-10
-5.2005e-11
-5.50415e-10
-5.28035e-11
-5.57607e-10
-5.3493e-11
-5.6386e-10
-5.40207e-11
-5.69216e-10
-5.44538e-11
-5.47923e-11
-5.73962e-10
5.81894e-11
-6.17607e-11
5.53538e-11
-5.98314e-11
5.01478e-11
-5.64876e-11
3.62281e-11
-4.68369e-11
7.82429e-12
-3.12806e-11
-9.62981e-12
-4.10218e-11
-1.18496e-10
5.05576e-11
-1.69075e-10
-6.13103e-12
-2.1032e-10
3.71613e-13
-2.48578e-10
5.5941e-12
-2.86826e-10
3.59358e-12
-3.21618e-10
5.28194e-13
-3.52329e-10
-1.3677e-12
-3.79863e-10
-2.47304e-12
-4.04863e-10
-3.10971e-12
-4.27823e-10
-3.50982e-12
-4.49084e-10
-3.83698e-12
-4.68874e-10
-4.20551e-12
-4.87349e-10
-4.69572e-12
-5.04621e-10
-5.3608e-12
-5.20771e-10
-6.23178e-12
-5.35852e-10
-7.32039e-12
-5.49895e-10
-8.62418e-12
-5.62932e-10
-1.0129e-11
-5.75005e-10
-1.18139e-11
-5.86158e-10
-1.36552e-11
-5.96439e-10
-1.56278e-11
-6.05896e-10
-1.77069e-11
-6.14575e-10
-1.98696e-11
-6.22527e-10
-2.20955e-11
-6.29802e-10
-2.43656e-11
-6.36449e-10
-2.6662e-11
-6.42505e-10
-2.89684e-11
-6.47998e-10
-3.12725e-11
-6.52975e-10
-3.35552e-11
-6.5743e-10
-3.58015e-11
-6.61325e-10
-3.79948e-11
-6.64678e-10
-4.0137e-11
-6.67486e-10
-4.22225e-11
-6.69709e-10
-4.42448e-11
-6.71314e-10
-4.61969e-11
-6.72259e-10
-4.80758e-11
-6.72507e-10
-4.98807e-11
-6.72018e-10
-5.16112e-11
-6.70751e-10
-5.32715e-11
-6.68695e-10
-5.48599e-11
-6.65816e-10
-5.63718e-11
-6.62025e-10
-5.78124e-11
-6.57299e-10
-5.91793e-11
-6.04938e-11
-6.51598e-10
-1.39098e-12
-3.89289e-11
-7.17698e-11
1.05474e-11
-3.89548e-11
-8.93025e-11
-4.4036e-11
-4.17556e-11
-1.63271e-10
8.79553e-11
-2.60638e-10
5.63481e-11
-2.89371e-10
7.92904e-11
-3.81309e-10
8.58072e-11
-4.4104e-10
6.01029e-11
-4.83162e-10
4.77161e-11
-5.17445e-10
3.78764e-11
-5.47084e-10
3.01667e-11
-5.72631e-10
2.41796e-11
-5.94667e-10
1.95627e-11
-6.13751e-10
1.59742e-11
-6.30372e-10
1.31114e-11
-6.44936e-10
1.07267e-11
-6.57768e-10
8.62677e-12
-6.69131e-10
6.66744e-12
-6.79239e-10
4.74705e-12
-6.88271e-10
2.8003e-12
-6.96394e-10
8.02697e-13
-7.03688e-10
-1.33022e-12
-7.10258e-10
-3.55847e-12
-7.16204e-10
-5.86847e-12
-7.21602e-10
-8.25733e-12
-7.26515e-10
-1.07143e-11
-7.30996e-10
-1.32262e-11
-7.35086e-10
-1.57799e-11
-7.38819e-10
-1.83618e-11
-7.42225e-10
-2.09597e-11
-7.45324e-10
-2.35631e-11
-7.48129e-10
-2.61638e-11
-7.50646e-10
-2.87556e-11
-7.52867e-10
-3.13343e-11
-7.54776e-10
-3.38925e-11
-7.56345e-10
-3.64255e-11
-7.5755e-10
-3.89317e-11
-7.58365e-10
-4.14079e-11
-7.58758e-10
-4.38521e-11
-7.5869e-10
-4.62643e-11
-7.58122e-10
-4.86444e-11
-7.57009e-10
-5.09928e-11
-7.55311e-10
-5.33099e-11
-7.52985e-10
-5.5597e-11
-7.49989e-10
-5.78562e-11
-7.46269e-10
-6.00916e-11
-7.41777e-10
-6.23045e-11
-7.36456e-10
-6.45005e-11
-6.6663e-11
-7.30287e-10
-1.13449e-10
-6.21112e-11
-2.1363e-10
1.10728e-10
-3.74615e-10
7.16836e-11
-4.5912e-10
4.2755e-11
-4.72111e-10
1.00946e-10
-5.34931e-10
1.19168e-10
-5.58218e-10
1.02578e-10
-5.63856e-10
9.14445e-11
-5.81718e-10
7.79648e-11
-6.00459e-10
6.64575e-11
-6.19368e-10
5.67857e-11
-6.37945e-10
4.87432e-11
-6.5584e-10
4.2075e-11
-6.72788e-10
3.65108e-11
-6.88622e-10
3.18081e-11
-7.03262e-10
2.77512e-11
-7.16694e-10
2.41589e-11
-7.28953e-10
2.08853e-11
-7.40103e-10
1.78181e-11
-7.5023e-10
1.4874e-11
-7.59425e-10
1.19945e-11
-7.67762e-10
9.1402e-12
-7.75378e-10
6.28588e-12
-7.8235e-10
3.41313e-12
-7.88684e-10
4.65581e-13
-7.94584e-10
-2.35676e-12
-8.0006e-10
-5.2389e-12
-8.05138e-10
-8.14752e-12
-8.09849e-10
-1.10697e-11
-8.1421e-10
-1.40001e-11
-8.18235e-10
-1.69353e-11
-8.21925e-10
-1.98727e-11