/*--------------------------------*- C++ -*----------------------------------*\
| =========                 |                                                 |
| \\      /  F ield         | OpenFOAM: The Open Source CFD Toolbox           |
|  \\    /   O peration     | Version:  2.4.0                                 |
|   \\  /    A nd           | Web:      www.OpenFOAM.org                      |
|    \\/     M anipulation  |                                                 |
\*---------------------------------------------------------------------------*/
FoamFile
{
    version     2.0;
    format      ascii;
    class       volScalarField;
    location    "0.3";
    object      p;
}
// * * * * * * * * * * * * * * * * * * * * * * * * * * * * * * * * * * * * * //

dimensions      [1 -1 -2 0 0 0 0];

internalField   nonuniform List<scalar> 
125
(
-0.033151
-0.033151
-0.033151
-0.033151
-0.033151
-0.0340105
-0.0340105
-0.0340105
-0.0340105
-0.0340105
-0.0348796
-0.0348796
-0.0348796
-0.0348796
-0.0348796
-0.0357583
-0.0357583
-0.0357583
-0.0357583
-0.0357583
-0.0366469
-0.0366469
-0.0366469
-0.0366469
-0.0366469
-0.0375454
-0.0375454
-0.0375454
-0.0375454
-0.0375454
-0.0384539
-0.0384539
-0.0384539
-0.0384539
-0.0384539
-0.0393725
-0.0393725
-0.0393725
-0.0393725
-0.0393725
-0.0403014
-0.0403014
-0.0403014
-0.0403014
-0.0403014
-0.0412407
-0.0412407
-0.0412407
-0.0412407
-0.0412407
-0.0421904
-0.0421904
-0.0421904
-0.0421904
-0.0421904
-0.0431508
-0.0431508
-0.0431508
-0.0431508
-0.0431508
-0.0441218
-0.0441218
-0.0441218
-0.0441218
-0.0441218
-0.0451037
-0.0451037
-0.0451037
-0.0451037
-0.0451037
-0.0460966
-0.0460966
-0.0460966
-0.0460966
-0.0460966
-0.0471005
-0.0471005
-0.0471005
-0.0471005
-0.0471005
-0.0481156
-0.0481156
-0.0481156
-0.0481156
-0.0481156
-0.0491421
-0.0491421
-0.0491421
-0.0491421
-0.0491421
-0.05018
-0.05018
-0.05018
-0.05018
-0.05018
-0.0512295
-0.0512295
-0.0512295
-0.0512295
-0.0512295
-0.0522907
-0.0522907
-0.0522907
-0.0522907
-0.0522907
-0.0533638
-0.0533638
-0.0533638
-0.0533638
-0.0533638
-0.0544488
-0.0544488
-0.0544488
-0.0544488
-0.0544488
-0.0555459
-0.0555459
-0.0555459
-0.0555459
-0.0555459
-0.0566553
-0.0566553
-0.0566553
-0.0566553
-0.0566553
)
;

boundaryField
{
    BotWall
    {
        type            calculated;
        value           nonuniform 0();
    }
    FreeStream
    {
        type            calculated;
        value           nonuniform 0();
    }
    FrontNBack
    {
        type            empty;
    }
    LeftSide
    {
        type            symmetryPlane;
    }
    RightSide
    {
        type            symmetryPlane;
    }
    procBoundary2to1
    {
        type            processor;
        value           nonuniform List<scalar> 5(-0.032301 -0.032301 -0.032301 -0.032301 -0.032301);
    }
    procBoundary2to3
    {
        type            processor;
        value           nonuniform List<scalar> 5(-0.057777 -0.057777 -0.057777 -0.057777 -0.057777);
    }
}


// ************************************************************************* //
