/*--------------------------------*- C++ -*----------------------------------*\
| =========                 |                                                 |
| \\      /  F ield         | OpenFOAM: The Open Source CFD Toolbox           |
|  \\    /   O peration     | Version:  2.4.0                                 |
|   \\  /    A nd           | Web:      www.OpenFOAM.org                      |
|    \\/     M anipulation  |                                                 |
\*---------------------------------------------------------------------------*/
FoamFile
{
    version     2.0;
    format      ascii;
    class       volScalarField;
    location    "1.8";
    object      p;
}
// * * * * * * * * * * * * * * * * * * * * * * * * * * * * * * * * * * * * * //

dimensions      [1 -1 -2 0 0 0 0];

internalField   nonuniform List<scalar> 
8000
(
0.342383
0.353383
0.365213
0.375881
0.38546
0.39423
0.402284
0.409635
0.416277
0.422205
0.427414
0.431885
0.435609
0.438542
0.440682
0.441962
0.442394
0.441752
0.43977
0.436165
0.433299
0.438283
0.453943
0.425406
0.174025
-0.42395
-1.05319
-0.896569
-0.892639
-0.892542
-0.892583
-0.892599
-0.892603
-0.892605
-0.892609
-0.892612
-0.892615
-0.892618
-0.892621
-0.892624
-0.892627
-0.89263
-0.89263
-0.89263
-0.892631
-0.892631
-0.892631
-0.892631
-0.892631
-0.892631
0.712278
0.711709
0.711263
0.711682
0.713195
0.715671
0.719138
0.723456
0.728719
0.734759
0.741714
0.749361
0.757895
0.767035
0.777076
0.787638
0.798889
0.809689
0.820386
0.835224
0.870945
0.932607
0.903007
0.387136
-0.945567
-0.694766
-0.905695
-0.914086
-0.914169
-0.91421
-0.914232
-0.914246
-0.914258
-0.914269
-0.914279
-0.914287
-0.914295
-0.914302
-0.914308
-0.914313
-0.914318
-0.914322
-0.914326
-0.91433
-0.914334
-0.914337
-0.914341
-0.914345
-0.914348
-0.914352
1.40061
1.38851
1.37823
1.37185
1.369
1.36915
1.3722
1.37808
1.38685
1.39842
1.41289
1.43021
1.45055
1.47387
1.50019
1.52916
1.56091
1.59879
1.65316
1.72714
1.74926
1.48651
0.471564
-1.41381
-1.17412
-1.01999
-0.945946
-0.937847
-0.936663
-0.936895
-0.937013
-0.937021
-0.937005
-0.936993
-0.936985
-0.936977
-0.936967
-0.936958
-0.936947
-0.936937
-0.936926
-0.936914
-0.936903
-0.936891
-0.936879
-0.936868
-0.936856
-0.936845
-0.936834
-0.936823
0.675668
0.684825
0.6956
0.707922
0.721954
0.738054
0.756001
0.776086
0.798018
0.822233
0.848381
0.877077
0.907753
0.940779
0.974889
1.01282
1.06415
1.14859
1.2384
1.10217
-0.0733007
-2.52016
-2.81846
-2.25238
-1.10638
-0.958879
-0.956556
-0.957888
-0.958018
-0.958022
-0.958012
-0.95801
-0.958013
-0.958017
-0.958021
-0.958026
-0.958031
-0.958037
-0.958043
-0.958049
-0.958055
-0.958062
-0.958068
-0.958075
-0.958082
-0.958088
-0.958095
-0.958102
-0.958109
-0.958117
0.33574
0.37674
0.421075
0.459594
0.492073
0.519523
0.542385
0.56065
0.57429
0.583195
0.587155
0.58557
0.577832
0.566188
0.561888
0.584318
0.606152
0.383809
-1.00714
-3.96515
-4.72991
-3.22715
-1.12998
-0.952969
-0.984223
-0.981463
-0.981471
-0.98161
-0.981594
-0.981513
-0.981434
-0.981367
-0.981307
-0.981251
-0.981198
-0.981149
-0.981103
-0.98106
-0.981019
-0.98098
-0.980944
-0.98091
-0.980877
-0.980847
-0.980818
-0.980792
-0.980766
-0.980743
-0.98072
-0.9807
-0.68698
-0.637685
-0.590813
-0.553319
-0.523744
-0.500629
-0.48381
-0.473385
-0.469691
-0.473093
-0.483577
-0.498868
-0.507006
-0.481182
-0.44218
-0.72108
-2.64033
-6.65918
-9.02278
-4.41903
-1.5296
-0.951218
-1.00075
-1.00005
-1.00211
-1.00237
-1.00225
-1.00214
-1.00208
-1.00204
-1.002
-1.00197
-1.00194
-1.00192
-1.00189
-1.00187
-1.00185
-1.00184
-1.00182
-1.00181
-1.0018
-1.00179
-1.00178
-1.00178
-1.00177
-1.00177
-1.00177
-1.00177
-1.00177
-1.00177
2.65736
2.6353
2.62267
2.62278
2.63746
2.66244
2.70127
2.74937
2.81425
2.89652
3.01894
3.16692
3.2176
2.2543
-1.02499
-5.99222
-8.9762
-3.8159
-1.58176
-1.03768
-1.02099
-1.02303
-1.02542
-1.02483
-1.02434
-1.02416
-1.02408
-1.02402
-1.02397
-1.02392
-1.02387
-1.02384
-1.0238
-1.02377
-1.02375
-1.02373
-1.02371
-1.02369
-1.02368
-1.02367
-1.02366
-1.02365
-1.02365
-1.02364
-1.02364
-1.02364
-1.02364
-1.02365
-1.02365
-1.02366
2.08209
2.06194
2.05404
2.06583
2.09668
2.14587
2.22016
2.33982
2.51458
2.60257
1.8253
-1.34411
-5.09346
-12.1292
-8.50955
-3.68434
-1.02829
-1.05187
-1.03932
-1.04217
-1.04283
-1.0429
-1.0429
-1.043
-1.04313
-1.04327
-1.04339
-1.0435
-1.0436
-1.0437
-1.04378
-1.04386
-1.04394
-1.04401
-1.04407
-1.04413
-1.04419
-1.04425
-1.0443
-1.04435
-1.04439
-1.04444
-1.04448
-1.04452
-1.04456
-1.0446
-1.04464
-1.04468
-1.04472
-1.04475
-2.65745
-2.65849
-2.66802
-2.68129
-2.69334
-2.65171
-2.54964
-2.68381
-4.24842
-8.34209
-16.1441
-11.8116
-3.87038
-1.39942
-1.06451
-1.06403
-1.06375
-1.06444
-1.06418
-1.06383
-1.06378
-1.06384
-1.06394
-1.06403
-1.06413
-1.06423
-1.06433
-1.06443
-1.06453
-1.06463
-1.06472
-1.06482
-1.06491
-1.065
-1.06508
-1.06517
-1.06525
-1.06533
-1.06541
-1.06548
-1.06555
-1.06562
-1.06569
-1.06576
-1.06582
-1.06588
-1.06595
-1.06601
-1.06607
-1.06612
-6.69859
-6.78169
-6.88662
-6.97192
-7.01772
-7.23734
-8.45121
-11.4099
-11.5219
-2.6635
-2.19057
-1.13132
-1.09407
-1.08319
-1.08747
-1.08787
-1.08804
-1.08786
-1.08772
-1.08762
-1.08756
-1.08751
-1.08747
-1.08744
-1.08742
-1.08741
-1.0874
-1.0874
-1.08741
-1.08742
-1.08744
-1.08746
-1.08748
-1.0875
-1.08752
-1.08755
-1.08757
-1.0876
-1.08763
-1.08766
-1.08769
-1.08772
-1.08775
-1.08778
-1.08781
-1.08784
-1.08788
-1.08791
-1.08795
-1.08798
-5.10803
-5.17469
-5.19605
-5.20371
-5.71013
-7.89247
-10.5922
-2.54401
-1.33741
-1.14827
-1.10371
-1.10491
-1.10677
-1.10742
-1.1074
-1.10758
-1.10781
-1.10802
-1.10819
-1.10831
-1.10841
-1.10848
-1.10853
-1.10858
-1.10861
-1.10863
-1.10865
-1.10866
-1.10868
-1.10869
-1.1087
-1.10871
-1.10873
-1.10874
-1.10876
-1.10878
-1.1088
-1.10883
-1.10885
-1.10888
-1.10891
-1.10895
-1.10898
-1.10902
-1.10906
-1.1091
-1.10914
-1.10919
-1.10924
-1.10928
-2.48874
-2.40376
-2.27145
-2.75068
-5.62066
-9.9892
-1.38343
-1.0997
-1.11353
-1.12515
-1.12866
-1.12887
-1.12904
-1.12942
-1.12982
-1.13014
-1.13039
-1.13058
-1.13071
-1.1308
-1.13086
-1.1309
-1.13091
-1.13091
-1.1309
-1.13088
-1.13085
-1.13083
-1.1308
-1.13077
-1.13074
-1.13071
-1.13069
-1.13067
-1.13065
-1.13064
-1.13063
-1.13063
-1.13063
-1.13063
-1.13064
-1.13066
-1.13067
-1.13069
-1.13072
-1.13074
-1.13078
-1.13081
-1.13085
-1.13089
-1.64678
-1.62271
-1.59249
-1.99333
-3.80656
-6.12576
-1.14802
-1.14415
-1.14636
-1.14742
-1.14758
-1.14766
-1.14791
-1.14819
-1.14844
-1.14864
-1.14881
-1.14896
-1.14908
-1.14917
-1.14925
-1.14933
-1.14939
-1.14944
-1.1495
-1.14955
-1.1496
-1.14966
-1.14971
-1.14977
-1.14983
-1.1499
-1.14996
-1.15003
-1.15011
-1.15018
-1.15026
-1.15035
-1.15043
-1.15051
-1.1506
-1.15069
-1.15078
-1.15088
-1.15097
-1.15106
-1.15116
-1.15126
-1.15136
-1.15146
-1.95884
-1.97161
-2.0067
-2.44985
-3.97374
-5.08036
-1.17584
-1.17134
-1.17378
-1.17425
-1.17544
-1.17527
-1.17487
-1.17436
-1.17385
-1.17336
-1.17292
-1.17253
-1.1721
-1.17179
-1.17169
-1.17143
-1.17125
-1.17118
-1.17105
-1.17092
-1.17084
-1.1708
-1.17076
-1.17073
-1.17072
-1.17075
-1.17079
-1.17083
-1.17089
-1.17096
-1.17105
-1.17113
-1.17123
-1.17133
-1.17144
-1.17155
-1.17167
-1.17179
-1.17191
-1.17204
-1.17217
-1.1723
-1.17243
-1.17256
-3.07379
-2.90184
-3.42913
-6.691
-11.6248
-1.61651
-1.27305
-1.20085
-1.19085
-1.18925
-1.18848
-1.18873
-1.18887
-1.18902
-1.18916
-1.18928
-1.18955
-1.18996
-1.1904
-1.19077
-1.19105
-1.19122
-1.19131
-1.19133
-1.1913
-1.19121
-1.19109
-1.19093
-1.19077
-1.19061
-1.19048
-1.19037
-1.19031
-1.19028
-1.19029
-1.19032
-1.19039
-1.19048
-1.19059
-1.19072
-1.19087
-1.19104
-1.19122
-1.1914
-1.1916
-1.1918
-1.19201
-1.19222
-1.19243
-1.19265
-13.0375
-12.7699
-12.4863
-12.7845
-15.0778
-17.5389
-6.45161
-5.21749
-1.45322
-1.43075
-1.43911
-1.40668
-1.31964
-1.22494
-1.19535
-1.2003
-1.1996
-1.19805
-1.19728
-1.19705
-1.19729
-1.19805
-1.19909
-1.19978
-1.20029
-1.20084
-1.20143
-1.20202
-1.20261
-1.20323
-1.20389
-1.20458
-1.20528
-1.20596
-1.20664
-1.2073
-1.20793
-1.20853
-1.20909
-1.20961
-1.21007
-1.21049
-1.2109
-1.21132
-1.21173
-1.21214
-1.21255
-1.21295
-1.21334
-1.21373
-9.7816
-9.60257
-9.41743
-9.27654
-9.19396
-9.10279
-8.62777
-8.28507
-8.27969
-14.374
-9.02956
-8.40161
-6.29837
-4.0187
-1.86087
-1.23859
-1.23579
-1.30097
-1.35254
-1.37821
-1.36632
-1.30961
-1.26405
-1.25303
-1.24926
-1.23893
-1.22769
-1.21893
-1.21295
-1.21144
-1.21489
-1.21989
-1.22265
-1.22315
-1.22311
-1.2238
-1.22465
-1.22553
-1.2262
-1.22706
-1.22864
-1.22931
-1.23021
-1.2311
-1.23192
-1.23265
-1.23334
-1.234
-1.23459
-1.23514
-2.6752
-2.62948
-2.56906
-2.49827
-2.41768
-2.31726
-2.21097
-2.12997
-2.08937
-2.20961
-2.43125
-2.36061
-1.21146
0.709054
0.901638
-9.35198
-10.6599
-8.83485
-7.19123
-6.63332
-7.23378
-6.90376
-4.154
-1.87981
-1.23559
-1.07964
-1.08257
-1.11593
-1.13913
-1.16117
-1.1992
-1.22226
-1.22035
-1.20793
-1.21569
-1.24636
-1.27307
-1.28565
-1.28409
-1.26818
-1.2532
-1.24921
-1.24812
-1.25506
-1.2563
-1.25255
-1.25717
-1.25619
-1.25711
-1.2579
-1.97352
-1.97506
-1.98088
-1.98333
-1.98094
-1.97307
-1.96165
-1.94717
-1.93201
-1.90484
-1.85292
-1.74656
-1.5913
-1.4216
-1.26378
-1.1602
-1.09077
-0.981115
-0.805383
-0.541451
-0.0913718
0.656296
1.12862
-0.566456
-8.01786
-7.49036
-6.13526
-5.82328
-7.24113
-8.54804
-5.85869
-1.31543
-0.550658
-0.423137
-0.657921
-1.20301
-1.03926
-1.09487
-1.0004
-1.22334
-1.27313
-1.26278
-1.27527
-1.29335
-1.30274
-1.30406
-1.30348
-1.30272
-1.30155
-1.30057
3.67447
3.65668
3.64909
3.65133
3.66074
3.67644
3.69807
3.72556
3.75858
3.79724
3.8415
3.89121
3.94502
4.00103
4.05978
4.12232
4.19542
4.289
4.41316
4.57783
4.79417
5.05352
5.31574
5.59122
5.81946
6.07416
6.43432
6.92207
7.37315
7.38084
5.89346
3.24851
-4.80432
-5.39269
-4.69538
3.38444
3.8637
4.36862
11.8033
6.12301
6.89368
-1.5633
-1.36542
-1.34342
-1.34309
-1.3444
-1.34533
-1.34503
-1.34385
-1.34233
-0.892631
-0.892631
-0.892631
-0.892631
-0.892631
-0.892631
-0.892631
-0.892632
-0.892632
-0.892633
-0.892634
-0.892635
-0.892636
-0.892637
-0.892639
-0.89264
-0.892642
-0.892644
-0.892647
-0.892649
-0.892652
-0.892655
-0.892658
-0.892661
-0.892665
-0.892669
-0.892673
-0.892677
-0.892681
-0.892686
-0.892691
-0.892696
-0.892702
-0.892707
-0.892713
-0.892719
-0.892725
-0.892732
-0.892738
-0.892745
-0.892752
-0.892759
-0.892767
-0.892774
-0.892782
-0.89279
-0.892798
-0.892807
-0.892815
-0.892824
-0.914356
-0.91436
-0.914364
-0.914368
-0.914373
-0.914377
-0.914382
-0.914387
-0.914392
-0.914398
-0.914403
-0.914409
-0.914415
-0.914421
-0.914427
-0.914433
-0.91444
-0.914447
-0.914454
-0.914461
-0.914468
-0.914476
-0.914484
-0.914492
-0.9145
-0.914508
-0.914516
-0.914525
-0.914534
-0.914543
-0.914552
-0.914561
-0.914571
-0.914581
-0.91459
-0.9146
-0.91461
-0.914621
-0.914631
-0.914641
-0.914652
-0.914663
-0.914674
-0.914685
-0.914696
-0.914707
-0.914718
-0.91473
-0.914741
-0.914753
-0.936813
-0.936803
-0.936793
-0.936784
-0.936776
-0.936767
-0.93676
-0.936753
-0.936746
-0.93674
-0.936734
-0.936729
-0.936725
-0.936721
-0.936717
-0.936714
-0.936712
-0.93671
-0.936708
-0.936708
-0.936707
-0.936707
-0.936708
-0.936709
-0.93671
-0.936712
-0.936714
-0.936717
-0.93672
-0.936724
-0.936728
-0.936732
-0.936737
-0.936742
-0.936748
-0.936754
-0.93676
-0.936767
-0.936774
-0.936781
-0.936789
-0.936797
-0.936805
-0.936813
-0.936822
-0.936831
-0.93684
-0.93685
-0.93686
-0.93687
-0.958124
-0.958131
-0.958139
-0.958147
-0.958155
-0.958163
-0.958171
-0.958179
-0.958188
-0.958197
-0.958206
-0.958215
-0.958224
-0.958234
-0.958244
-0.958254
-0.958264
-0.958274
-0.958285
-0.958296
-0.958307
-0.958319
-0.95833
-0.958342
-0.958354
-0.958366
-0.958378
-0.958391
-0.958404
-0.958417
-0.95843
-0.958443
-0.958457
-0.958471
-0.958484
-0.958499
-0.958513
-0.958527
-0.958542
-0.958556
-0.958571
-0.958586
-0.958601
-0.958616
-0.958632
-0.958647
-0.958663
-0.958678
-0.958694
-0.95871
-0.980681
-0.980663
-0.980646
-0.980631
-0.980617
-0.980604
-0.980593
-0.980583
-0.980573
-0.980565
-0.980558
-0.980552
-0.980547
-0.980543
-0.980539
-0.980537
-0.980536
-0.980535
-0.980535
-0.980536
-0.980538
-0.98054
-0.980543
-0.980547
-0.980551
-0.980556
-0.980562
-0.980568
-0.980575
-0.980582
-0.98059
-0.980598
-0.980607
-0.980616
-0.980626
-0.980636
-0.980647
-0.980658
-0.98067
-0.980681
-0.980694
-0.980706
-0.980719
-0.980732
-0.980746
-0.980759
-0.980774
-0.980788
-0.980802
-0.980817
-1.00178
-1.00178
-1.00179
-1.00179
-1.0018
-1.00181
-1.00181
-1.00182
-1.00183
-1.00184
-1.00186
-1.00187
-1.00188
-1.00189
-1.00191
-1.00192
-1.00194
-1.00195
-1.00197
-1.00198
-1.002
-1.00202
-1.00203
-1.00205
-1.00207
-1.00209
-1.00211
-1.00212
-1.00214
-1.00216
-1.00218
-1.0022
-1.00222
-1.00224
-1.00226
-1.00229
-1.00231
-1.00233
-1.00235
-1.00237
-1.00239
-1.00242
-1.00244
-1.00246
-1.00248
-1.00251
-1.00253
-1.00255
-1.00257
-1.0026
-1.02367
-1.02367
-1.02368
-1.02369
-1.0237
-1.02372
-1.02373
-1.02374
-1.02375
-1.02377
-1.02378
-1.0238
-1.02382
-1.02383
-1.02385
-1.02387
-1.02389
-1.02391
-1.02392
-1.02394
-1.02396
-1.02398
-1.024
-1.02403
-1.02405
-1.02407
-1.02409
-1.02411
-1.02413
-1.02416
-1.02418
-1.0242
-1.02423
-1.02425
-1.02427
-1.0243
-1.02432
-1.02435
-1.02437
-1.02439
-1.02442
-1.02444
-1.02447
-1.02449
-1.02452
-1.02454
-1.02457
-1.02459
-1.02462
-1.02465
-1.04479
-1.04482
-1.04486
-1.04489
-1.04492
-1.04496
-1.04499
-1.04502
-1.04506
-1.04509
-1.04512
-1.04515
-1.04519
-1.04522
-1.04525
-1.04528
-1.04532
-1.04535
-1.04538
-1.04541
-1.04545
-1.04548
-1.04551
-1.04555
-1.04558
-1.04561
-1.04565
-1.04568
-1.04571
-1.04575
-1.04578
-1.04581
-1.04585
-1.04588
-1.04592
-1.04595
-1.04598
-1.04602
-1.04605
-1.04609
-1.04612
-1.04616
-1.04619
-1.04623
-1.04626
-1.04629
-1.04633
-1.04636
-1.0464
-1.04643
-1.06618
-1.06624
-1.06629
-1.06635
-1.0664
-1.06645
-1.06651
-1.06656
-1.06661
-1.06666
-1.06671
-1.06676
-1.06681
-1.06685
-1.0669
-1.06695
-1.067
-1.06704
-1.06709
-1.06714
-1.06718
-1.06723
-1.06728
-1.06732
-1.06737
-1.06741
-1.06746
-1.0675
-1.06755
-1.06759
-1.06763
-1.06768
-1.06772
-1.06777
-1.06781
-1.06785
-1.0679
-1.06794
-1.06798
-1.06802
-1.06807
-1.06811
-1.06815
-1.06819
-1.06823
-1.06828
-1.06832
-1.06836
-1.0684
-1.06844
-1.08802
-1.08805
-1.08809
-1.08813
-1.08817
-1.08821
-1.08825
-1.08829
-1.08833
-1.08837
-1.08841
-1.08845
-1.0885
-1.08854
-1.08859
-1.08863
-1.08868
-1.08872
-1.08877
-1.08881
-1.08886
-1.08891
-1.08896
-1.089
-1.08905
-1.0891
-1.08915
-1.0892
-1.08925
-1.0893
-1.08935
-1.0894
-1.08945
-1.0895
-1.08955
-1.0896
-1.08965
-1.0897
-1.08975
-1.0898
-1.08985
-1.0899
-1.08995
-1.09
-1.09005
-1.0901
-1.09015
-1.0902
-1.09025
-1.0903
-1.10933
-1.10939
-1.10944
-1.10949
-1.10955
-1.1096
-1.10966
-1.10972
-1.10977
-1.10983
-1.10989
-1.10995
-1.11001
-1.11008
-1.11014
-1.1102
-1.11026
-1.11032
-1.11039
-1.11045
-1.11052
-1.11058
-1.11064
-1.11071
-1.11077
-1.11084
-1.1109
-1.11096
-1.11103
-1.11109
-1.11116
-1.11122
-1.11128
-1.11135
-1.11141
-1.11148
-1.11154
-1.1116
-1.11166
-1.11173
-1.11179
-1.11185
-1.11191
-1.11198
-1.11204
-1.1121
-1.11216
-1.11222
-1.11228
-1.11234
-1.13093
-1.13097
-1.13102
-1.13107
-1.13112
-1.13118
-1.13123
-1.13129
-1.13135
-1.13141
-1.13147
-1.13154
-1.1316
-1.13167
-1.13173
-1.1318
-1.13187
-1.13194
-1.13201
-1.13208
-1.13216
-1.13223
-1.1323
-1.13238
-1.13245
-1.13252
-1.1326
-1.13267
-1.13275
-1.13282
-1.1329
-1.13298
-1.13305
-1.13313
-1.1332
-1.13328
-1.13335
-1.13343
-1.1335
-1.13358
-1.13365
-1.13373
-1.1338
-1.13388
-1.13395
-1.13402
-1.1341
-1.13417
-1.13424
-1.13431
-1.15156
-1.15166
-1.15176
-1.15186
-1.15197
-1.15207
-1.15218
-1.15228
-1.15239
-1.15249
-1.1526
-1.1527
-1.15281
-1.15291
-1.15302
-1.15313
-1.15323
-1.15334
-1.15344
-1.15355
-1.15365
-1.15375
-1.15386
-1.15396
-1.15406
-1.15417
-1.15427
-1.15437
-1.15447
-1.15457
-1.15467
-1.15477
-1.15487
-1.15497
-1.15507
-1.15516
-1.15526
-1.15535
-1.15545
-1.15554
-1.15564
-1.15573
-1.15583
-1.15592
-1.15601
-1.1561
-1.15619
-1.15628
-1.15637
-1.15646
-1.1727
-1.17283
-1.17297
-1.17311
-1.17324
-1.17338
-1.17352
-1.17365
-1.17379
-1.17393
-1.17406
-1.1742
-1.17433
-1.17446
-1.1746
-1.17473
-1.17486
-1.17499
-1.17512
-1.17525
-1.17538
-1.17551
-1.17563
-1.17576
-1.17588
-1.176
-1.17613
-1.17625
-1.17637
-1.17649
-1.17661
-1.17672
-1.17684
-1.17695
-1.17707
-1.17718
-1.1773
-1.17741
-1.17752
-1.17763
-1.17774
-1.17785
-1.17796
-1.17807
-1.17817
-1.17828
-1.17839
-1.17849
-1.1786
-1.1787
-1.19287
-1.19308
-1.1933
-1.19352
-1.19373
-1.19395
-1.19416
-1.19437
-1.19458
-1.19478
-1.19499
-1.19519
-1.19538
-1.19558
-1.19577
-1.19596
-1.19615
-1.19633
-1.19651
-1.19669
-1.19686
-1.19704
-1.19721
-1.19737
-1.19754
-1.1977
-1.19786
-1.19802
-1.19817
-1.19832
-1.19847
-1.19862
-1.19877
-1.19891
-1.19905
-1.19919
-1.19933
-1.19947
-1.1996
-1.19973
-1.19987
-1.2
-1.20013
-1.20026
-1.20039
-1.20053
-1.20066
-1.20079
-1.20092
-1.20105
-1.2141
-1.21446
-1.2148
-1.21514
-1.21547
-1.21578
-1.21608
-1.21637
-1.21665
-1.21693
-1.21719
-1.21744
-1.21769
-1.21793
-1.21816
-1.21838
-1.2186
-1.21881
-1.21901
-1.21921
-1.21941
-1.2196
-1.21978
-1.21996
-1.22013
-1.2203
-1.22047
-1.22063
-1.22078
-1.22093
-1.22108
-1.22122
-1.22136
-1.2215
-1.22163
-1.22176
-1.22188
-1.222
-1.22211
-1.22223
-1.22233
-1.2223
-1.22254
-1.22267
-1.22278
-1.22273
-1.22298
-1.22309
-1.22318
-1.22325
-1.23567
-1.23616
-1.23662
-1.23706
-1.23747
-1.23785
-1.23822
-1.23857
-1.2389
-1.23923
-1.23954
-1.23983
-1.24012
-1.2404
-1.24066
-1.24092
-1.24117
-1.24141
-1.24164
-1.24187
-1.24209
-1.24231
-1.24251
-1.24272
-1.24291
-1.24311
-1.24329
-1.24348
-1.24365
-1.24378
-1.24398
-1.24415
-1.24431
-1.24447
-1.24462
-1.24466
-1.24482
-1.24497
-1.24511
-1.24525
-1.24519
-1.24533
-1.24552
-1.24534
-1.24582
-1.24602
-1.24627
-1.24647
-1.24655
-1.24648
-1.25858
-1.25929
-1.26
-1.26063
-1.26121
-1.26177
-1.26228
-1.26276
-1.2632
-1.26361
-1.26399
-1.26435
-1.26468
-1.265
-1.26529
-1.26557
-1.26583
-1.26607
-1.26631
-1.26653
-1.26673
-1.26693
-1.26712
-1.26731
-1.26748
-1.26765
-1.26781
-1.26796
-1.26811
-1.26826
-1.2684
-1.26853
-1.26867
-1.2688
-1.26893
-1.26905
-1.26918
-1.2693
-1.26942
-1.26954
-1.26966
-1.26978
-1.26991
-1.27003
-1.27015
-1.27028
-1.2704
-1.27051
-1.27064
-1.27066
-1.30006
-1.30018
-1.29532
-1.29496
-1.29511
-1.29488
-1.29465
-1.29446
-1.2943
-1.29416
-1.29405
-1.29397
-1.2939
-1.29385
-1.29381
-1.29379
-1.29377
-1.29371
-1.29357
-1.29367
-1.29368
-1.2937
-1.29371
-1.29374
-1.29376
-1.29378
-1.2938
-1.29382
-1.29384
-1.29386
-1.29388
-1.29391
-1.29393
-1.29394
-1.29396
-1.29398
-1.294
-1.29402
-1.29404
-1.29406
-1.29409
-1.29411
-1.29413
-1.29415
-1.29417
-1.2942
-1.29422
-1.29424
-1.29427
-1.29429
-1.34077
-1.33957
-1.33841
-1.33717
-1.33599
-1.33488
-1.33384
-1.33284
-1.33188
-1.33098
-1.33011
-1.32929
-1.32851
-1.32777
-1.32707
-1.32641
-1.32578
-1.32519
-1.32464
-1.32411
-1.32349
-1.32313
-1.3227
-1.32228
-1.32163
-1.32143
-1.32111
-1.32081
-1.32053
-1.32027
-1.32003
-1.31981
-1.3196
-1.31941
-1.31924
-1.31908
-1.31893
-1.3188
-1.31868
-1.31857
-1.31848
-1.31839
-1.31831
-1.31824
-1.31818
-1.31812
-1.31808
-1.31804
-1.31801
-1.31798
-0.892832
-0.892837
-0.892843
-0.892849
-0.892854
-0.89286
-0.892866
-0.892872
-0.892878
-0.892884
-0.89289
-0.892897
-0.892903
-0.892909
-0.892916
-0.892922
-0.892929
-0.892935
-0.892942
-0.892948
-0.892955
-0.892962
-0.892969
-0.892976
-0.892983
-0.89299
-0.892997
-0.893004
-0.893011
-0.893019
-0.893026
-0.893033
-0.893041
-0.893048
-0.893056
-0.893064
-0.893071
-0.893079
-0.893087
-0.893095
-0.893103
-0.893111
-0.893119
-0.893127
-0.893136
-0.893144
-0.893152
-0.893161
-0.893169
-0.893178
-0.893186
-0.893195
-0.893204
-0.893212
-0.893221
-0.89323
-0.893239
-0.893248
-0.893257
-0.893266
-0.893276
-0.893285
-0.893294
-0.893304
-0.893313
-0.893322
-0.893332
-0.893342
-0.893351
-0.893361
-0.893371
-0.893381
-0.893391
-0.8934
-0.89341
-0.893421
-0.893431
-0.893441
-0.893451
-0.893461
-0.893472
-0.893482
-0.893492
-0.893503
-0.893513
-0.893524
-0.893535
-0.893545
-0.893556
-0.893567
-0.893578
-0.893589
-0.893599
-0.89361
-0.893621
-0.893633
-0.893644
-0.893655
-0.893666
-0.893677
-0.893689
-0.8937
-0.893711
-0.893723
-0.893734
-0.893746
-0.893757
-0.893769
-0.89378
-0.893792
-0.893804
-0.893815
-0.893827
-0.893839
-0.893851
-0.893862
-0.893874
-0.893886
-0.893898
-0.89391
-0.893922
-0.893934
-0.893946
-0.893958
-0.89397
-0.893982
-0.893994
-0.894007
-0.894019
-0.894031
-0.894043
-0.894056
-0.894068
-0.89408
-0.894092
-0.894105
-0.894117
-0.894129
-0.894142
-0.894154
-0.894167
-0.894179
-0.894192
-0.894204
-0.894217
-0.894229
-0.894241
-0.894254
-0.894267
-0.894279
-0.894292
-0.894304
-0.894317
-0.894329
-0.894342
-0.894354
-0.894367
-0.894379
-0.894392
-0.894405
-0.894417
-0.89443
-0.894442
-0.894455
-0.894468
-0.89448
-0.894493
-0.894505
-0.894518
-0.89453
-0.894543
-0.894556
-0.894568
-0.894581
-0.894593
-0.894606
-0.894618
-0.894631
-0.894643
-0.894656
-0.894668
-0.894681
-0.894693
-0.894706
-0.894718
-0.894731
-0.894743
-0.894756
-0.894768
-0.89478
-0.894793
-0.894805
-0.894818
-0.89483
-0.894842
-0.894854
-0.894867
-0.894879
-0.894891
-0.894903
-0.894915
-0.894927
-0.89494
-0.894952
-0.894964
-0.894976
-0.894988
-0.894999
-0.895011
-0.895023
-0.895035
-0.895047
-0.895059
-0.89507
-0.895082
-0.895093
-0.895105
-0.895116
-0.895128
-0.895139
-0.895151
-0.895162
-0.895173
-0.895184
-0.895195
-0.895207
-0.895218
-0.895228
-0.895239
-0.89525
-0.895261
-0.895271
-0.895282
-0.895293
-0.895303
-0.895313
-0.895324
-0.895334
-0.895344
-0.895354
-0.895364
-0.895374
-0.895383
-0.895393
-0.895402
-0.895412
-0.895421
-0.89543
-0.895439
-0.895448
-0.895457
-0.895466
-0.895475
-0.895483
-0.895492
-0.8955
-0.895508
-0.895516
-0.895524
-0.895532
-0.895539
-0.895547
-0.895554
-0.895561
-0.895568
-0.895575
-0.895582
-0.895588
-0.895595
-0.895601
-0.895607
-0.895613
-0.895619
-0.895624
-0.89563
-0.895635
-0.89564
-0.895644
-0.895649
-0.895653
-0.895658
-0.895662
-0.895665
-0.895669
-0.895672
-0.895675
-0.895678
-0.895681
-0.895683
-0.895685
-0.895687
-0.895689
-0.89569
-0.895692
-0.895692
-0.895693
-0.895693
-0.895694
-0.895693
-0.895693
-0.914762
-0.914769
-0.914777
-0.914784
-0.914792
-0.914799
-0.914807
-0.914815
-0.914823
-0.914831
-0.914839
-0.914847
-0.914855
-0.914863
-0.914871
-0.914879
-0.914888
-0.914896
-0.914905
-0.914913
-0.914922
-0.91493
-0.914939
-0.914948
-0.914957
-0.914965
-0.914974
-0.914983
-0.914992
-0.915001
-0.915011
-0.91502
-0.915029
-0.915039
-0.915048
-0.915057
-0.915067
-0.915076
-0.915086
-0.915096
-0.915106
-0.915115
-0.915125
-0.915135
-0.915145
-0.915155
-0.915165
-0.915175
-0.915186
-0.915196
-0.915206
-0.915216
-0.915227
-0.915237
-0.915248
-0.915258
-0.915269
-0.91528
-0.91529
-0.915301
-0.915312
-0.915323
-0.915334
-0.915345
-0.915356
-0.915367
-0.915378
-0.915389
-0.9154
-0.915412
-0.915423
-0.915434
-0.915446
-0.915457
-0.915468
-0.91548
-0.915492
-0.915503
-0.915515
-0.915526
-0.915538
-0.91555
-0.915562
-0.915574
-0.915586
-0.915597
-0.915609
-0.915621
-0.915633
-0.915645
-0.915658
-0.91567
-0.915682
-0.915694
-0.915706
-0.915719
-0.915731
-0.915743
-0.915756
-0.915768
-0.91578
-0.915793
-0.915805
-0.915818
-0.91583
-0.915843
-0.915855
-0.915868
-0.915881
-0.915893
-0.915906
-0.915919
-0.915932
-0.915944
-0.915957
-0.91597
-0.915983
-0.915996
-0.916008
-0.916021
-0.916034
-0.916047
-0.91606
-0.916073
-0.916086
-0.916099
-0.916112
-0.916125
-0.916138
-0.916151
-0.916164
-0.916177
-0.91619
-0.916203
-0.916216
-0.916229
-0.916242
-0.916255
-0.916268
-0.916282
-0.916295
-0.916308
-0.916321
-0.916334
-0.916347
-0.91636
-0.916373
-0.916387
-0.9164
-0.916413
-0.916426
-0.916439
-0.916452
-0.916466
-0.916479
-0.916492
-0.916505
-0.916518
-0.916531
-0.916544
-0.916558
-0.916571
-0.916584
-0.916597
-0.91661
-0.916623
-0.916636
-0.91665
-0.916663
-0.916676
-0.916689
-0.916702
-0.916715
-0.916728
-0.916741
-0.916754
-0.916767
-0.91678
-0.916793
-0.916806
-0.916819
-0.916832
-0.916845
-0.916858
-0.916871
-0.916884
-0.916897
-0.91691
-0.916923
-0.916936
-0.916949
-0.916961
-0.916974
-0.916987
-0.917
-0.917012
-0.917025
-0.917038
-0.91705
-0.917063
-0.917076
-0.917088
-0.917101
-0.917113
-0.917126
-0.917138
-0.917151
-0.917163
-0.917175
-0.917188
-0.9172
-0.917212
-0.917224
-0.917236
-0.917248
-0.91726
-0.917272
-0.917284
-0.917296
-0.917308
-0.91732
-0.917331
-0.917343
-0.917355
-0.917366
-0.917378
-0.917389
-0.917401
-0.917412
-0.917423
-0.917434
-0.917445
-0.917456
-0.917467
-0.917478
-0.917489
-0.917499
-0.91751
-0.91752
-0.917531
-0.917541
-0.917551
-0.917561
-0.917571
-0.917581
-0.917591
-0.917601
-0.91761
-0.91762
-0.917629
-0.917638
-0.917648
-0.917657
-0.917665
-0.917674
-0.917683
-0.917691
-0.9177
-0.917708
-0.917716
-0.917724
-0.917732
-0.917739
-0.917747
-0.917754
-0.917761
-0.917768
-0.917775
-0.917782
-0.917788
-0.917795
-0.917801
-0.917807
-0.917812
-0.917818
-0.917823
-0.917829
-0.917834
-0.917838
-0.917843
-0.917847
-0.917852
-0.917856
-0.917859
-0.917863
-0.917866
-0.917869
-0.917872
-0.917875
-0.917877
-0.917879
-0.917881
-0.917883
-0.917884
-0.917885
-0.917886
-0.917886
-0.917886
-0.917886
-0.917886
-0.936879
-0.936886
-0.936893
-0.936899
-0.936906
-0.936913
-0.93692
-0.936927
-0.936935
-0.936942
-0.936949
-0.936957
-0.936964
-0.936972
-0.936979
-0.936987
-0.936995
-0.937003
-0.937011
-0.937019
-0.937027
-0.937035
-0.937043
-0.937052
-0.93706
-0.937069
-0.937077
-0.937086
-0.937095
-0.937103
-0.937112
-0.937121
-0.93713
-0.937139
-0.937149
-0.937158
-0.937167
-0.937177
-0.937186
-0.937196
-0.937205
-0.937215
-0.937225
-0.937235
-0.937245
-0.937254
-0.937265
-0.937275
-0.937285
-0.937295
-0.937305
-0.937316
-0.937326
-0.937337
-0.937347
-0.937358
-0.937369
-0.93738
-0.93739
-0.937401
-0.937412
-0.937423
-0.937435
-0.937446
-0.937457
-0.937468
-0.93748
-0.937491
-0.937502
-0.937514
-0.937526
-0.937537
-0.937549
-0.937561
-0.937573
-0.937584
-0.937596
-0.937608
-0.93762
-0.937632
-0.937645
-0.937657
-0.937669
-0.937681
-0.937694
-0.937706
-0.937718
-0.937731
-0.937743
-0.937756
-0.937769
-0.937781
-0.937794
-0.937807
-0.937819
-0.937832
-0.937845
-0.937858
-0.937871
-0.937884
-0.937897
-0.93791
-0.937923
-0.937936
-0.937949
-0.937963
-0.937976
-0.937989
-0.938002
-0.938015
-0.938029
-0.938042
-0.938055
-0.938069
-0.938082
-0.938096
-0.938109
-0.938123
-0.938136
-0.93815
-0.938163
-0.938177
-0.93819
-0.938204
-0.938217
-0.938231
-0.938244
-0.938258
-0.938272
-0.938285
-0.938299
-0.938313
-0.938326
-0.93834
-0.938354
-0.938367
-0.938381
-0.938395
-0.938408
-0.938422
-0.938436
-0.938449
-0.938463
-0.938477
-0.93849
-0.938504
-0.938518
-0.938531
-0.938545
-0.938559
-0.938572
-0.938586
-0.9386
-0.938613
-0.938627
-0.938641
-0.938654
-0.938668
-0.938681
-0.938695
-0.938709
-0.938722
-0.938736
-0.938749
-0.938763
-0.938777
-0.93879
-0.938804
-0.938817
-0.938831
-0.938844
-0.938858
-0.938871
-0.938885
-0.938898
-0.938912
-0.938925
-0.938939
-0.938952
-0.938965
-0.938979
-0.938992
-0.939006
-0.939019
-0.939032
-0.939046
-0.939059
-0.939072
-0.939085
-0.939099
-0.939112
-0.939125
-0.939138
-0.939151
-0.939165
-0.939178
-0.939191
-0.939204
-0.939217
-0.93923
-0.939243
-0.939256
-0.939269
-0.939282
-0.939295
-0.939308
-0.93932
-0.939333
-0.939346
-0.939359
-0.939371
-0.939384
-0.939396
-0.939409
-0.939422
-0.939434
-0.939446
-0.939459
-0.939471
-0.939483
-0.939495
-0.939508
-0.93952
-0.939532
-0.939544
-0.939556
-0.939567
-0.939579
-0.939591
-0.939602
-0.939614
-0.939625
-0.939637
-0.939648
-0.939659
-0.939671
-0.939682
-0.939693
-0.939703
-0.939714
-0.939725
-0.939735
-0.939746
-0.939756
-0.939767
-0.939777
-0.939787
-0.939797
-0.939807
-0.939816
-0.939826
-0.939835
-0.939845
-0.939854
-0.939863
-0.939872
-0.939881
-0.93989
-0.939898
-0.939907
-0.939915
-0.939923
-0.939931
-0.939939
-0.939946
-0.939954
-0.939961
-0.939968
-0.939975
-0.939982
-0.939988
-0.939995
-0.940001
-0.940007
-0.940013
-0.940019
-0.940024
-0.940029
-0.940034
-0.940039
-0.940044
-0.940048
-0.940052
-0.940056
-0.94006
-0.940063
-0.940067
-0.94007
-0.940072
-0.940075
-0.940077
-0.940079
-0.940081
-0.940082
-0.940084
-0.940085
-0.940085
-0.940086
-0.940086
-0.940085
-0.958722
-0.958732
-0.958742
-0.958752
-0.958763
-0.958773
-0.958783
-0.958794
-0.958804
-0.958815
-0.958826
-0.958836
-0.958847
-0.958858
-0.958869
-0.95888
-0.958891
-0.958902
-0.958914
-0.958925
-0.958936
-0.958948
-0.958959
-0.958971
-0.958982
-0.958994
-0.959006
-0.959018
-0.959029
-0.959041
-0.959053
-0.959065
-0.959077
-0.95909
-0.959102
-0.959114
-0.959126
-0.959139
-0.959151
-0.959164
-0.959176
-0.959189
-0.959201
-0.959214
-0.959227
-0.95924
-0.959252
-0.959265
-0.959278
-0.959291
-0.959304
-0.959317
-0.959331
-0.959344
-0.959357
-0.95937
-0.959384
-0.959397
-0.959411
-0.959424
-0.959438
-0.959451
-0.959465
-0.959478
-0.959492
-0.959506
-0.959519
-0.959533
-0.959547
-0.959561
-0.959575
-0.959589
-0.959603
-0.959617
-0.959631
-0.959645
-0.959659
-0.959673
-0.959687
-0.959701
-0.959716
-0.95973
-0.959744
-0.959758
-0.959773
-0.959787
-0.959801
-0.959816
-0.95983
-0.959844
-0.959859
-0.959873
-0.959888
-0.959902
-0.959917
-0.959931
-0.959946
-0.95996
-0.959975
-0.959989
-0.960004
-0.960018
-0.960033
-0.960047
-0.960062
-0.960077
-0.960091
-0.960106
-0.96012
-0.960135
-0.96015
-0.960164
-0.960179
-0.960193
-0.960208
-0.960223
-0.960237
-0.960252
-0.960266
-0.960281
-0.960296
-0.96031
-0.960325
-0.960339
-0.960354
-0.960368
-0.960383
-0.960397
-0.960412
-0.960426
-0.960441
-0.960455
-0.96047
-0.960484
-0.960499
-0.960513
-0.960527
-0.960542
-0.960556
-0.960571
-0.960585
-0.960599
-0.960613
-0.960628
-0.960642
-0.960656
-0.960671
-0.960685
-0.960699
-0.960713
-0.960727
-0.960742
-0.960756
-0.96077
-0.960784
-0.960798
-0.960812
-0.960826
-0.96084
-0.960854
-0.960868
-0.960883
-0.960897
-0.960911
-0.960924
-0.960938
-0.960952
-0.960966
-0.96098
-0.960994
-0.961008
-0.961022
-0.961036
-0.96105
-0.961064
-0.961077
-0.961091
-0.961105
-0.961119
-0.961133
-0.961146
-0.96116
-0.961174
-0.961187
-0.961201
-0.961215
-0.961228
-0.961242
-0.961256
-0.961269
-0.961283
-0.961297
-0.96131
-0.961324
-0.961337
-0.961351
-0.961364
-0.961378
-0.961391
-0.961404
-0.961418
-0.961431
-0.961444
-0.961458
-0.961471
-0.961484
-0.961497
-0.961511
-0.961524
-0.961537
-0.96155
-0.961563
-0.961576
-0.961589
-0.961602
-0.961614
-0.961627