/*--------------------------------*- C++ -*----------------------------------*\
| =========                 |                                                 |
| \\      /  F ield         | OpenFOAM: The Open Source CFD Toolbox           |
|  \\    /   O peration     | Version:  2.4.0                                 |
|   \\  /    A nd           | Web:      www.OpenFOAM.org                      |
|    \\/     M anipulation  |                                                 |
\*---------------------------------------------------------------------------*/
FoamFile
{
    version     2.0;
    format      ascii;
    class       volVectorField;
    location    "1.8";
    object      U;
}
// * * * * * * * * * * * * * * * * * * * * * * * * * * * * * * * * * * * * * //

dimensions      [0 1 -1 0 0 0 0];

internalField   nonuniform List<vector> 
8000
(
(1.66195e-07 -0.000229371 0)
(1.73661e-06 -0.000670395 0)
(4.87761e-06 -0.00109371 0)
(9.5132e-06 -0.00149934 0)
(1.55253e-05 -0.0018873 0)
(2.28284e-05 -0.00225759 0)
(3.1356e-05 -0.00261024 0)
(4.10498e-05 -0.00294523 0)
(5.18587e-05 -0.00326259 0)
(6.3726e-05 -0.00356229 0)
(7.66099e-05 -0.00384434 0)
(9.04474e-05 -0.00410868 0)
(0.000105204 -0.00435533 0)
(0.000120803 -0.00458421 0)
(0.000137214 -0.0047953 0)
(0.000154339 -0.00498852 0)
(0.000172157 -0.00516381 0)
(0.00019054 -0.00532108 0)
(0.000209454 -0.00546024 0)
(0.000228703 -0.0055812 0)
(0.000248295 -0.00568382 0)
(0.000268478 -0.00576793 0)
(0.000290263 -0.00583311 0)
(0.000313165 -0.0058793 0)
(0.000326952 -0.0059077 0)
(0.000305005 -0.00592393 0)
(0.000244603 -0.00592819 0)
(0.000149638 -0.00591803 0)
(8.43632e-05 -0.00589919 0)
(7.25418e-05 -0.00530346 0)
(0.000100307 -0.00470324 0)
(5.98882e-05 -0.00410846 0)
(1.50636e-06 -0.0035385 0)
(-6.52126e-05 -0.00299922 0)
(-0.000138948 -0.00249101 0)
(-0.000218967 -0.00201308 0)
(-0.000304097 -0.00156445 0)
(-0.000393176 -0.00114409 0)
(-0.000484919 -0.000750947 0)
(-0.000577966 -0.000384149 0)
(-0.000671389 -4.29165e-05 0)
(-0.00076506 0.000273593 0)
(-0.000858132 0.000566297 0)
(-0.000949753 0.000836178 0)
(-0.00103997 0.00108427 0)
(-0.00112862 0.00131164 0)
(-0.00121553 0.00151942 0)
(-0.00130059 0.00170874 0)
(-0.00138368 0.00188071 0)
(-0.00146475 0.00203643 0)
(2.26673e-08 -0.000242853 0)
(-1.103e-07 -0.000708719 0)
(-3.23465e-07 -0.00115508 0)
(-5.40193e-07 -0.00158225 0)
(-5.8852e-07 -0.00199043 0)
(-3.64408e-07 -0.00237988 0)
(3.10788e-07 -0.0027507 0)
(1.51071e-06 -0.00310312 0)
(3.41343e-06 -0.00343715 0)
(6.06474e-06 -0.00375296 0)
(9.63653e-06 -0.0040505 0)
(1.4146e-05 -0.00432987 0)
(1.97476e-05 -0.00459097 0)
(2.6432e-05 -0.00483382 0)
(3.43209e-05 -0.00505835 0)
(4.33892e-05 -0.00526443 0)
(5.36937e-05 -0.00545215 0)
(6.51656e-05 -0.00562116 0)
(7.76745e-05 -0.00577187 0)
(9.12518e-05 -0.00590353 0)
(0.000106586 -0.00601702 0)
(0.000126028 -0.00611103 0)
(0.000148401 -0.0061886 0)
(0.000153367 -0.00625147 0)
(7.80716e-05 -0.00625106 0)
(-3.31754e-05 -0.00624619 0)
(-0.000100573 -0.0062365 0)
(-0.000138548 -0.0061996 0)
(-0.000135334 -0.00565987 0)
(-0.000167493 -0.00468284 0)
(-0.000242735 -0.00375022 0)
(-0.000333144 -0.00289424 0)
(-0.000430843 -0.00212103 0)
(-0.000533798 -0.00142558 0)
(-0.000640579 -0.000801217 0)
(-0.00074982 -0.000241413 0)
(-0.000860813 0.000260173 0)
(-0.00097246 0.0007095 0)
(-0.00108354 0.00111172 0)
(-0.00119347 0.00147139 0)
(-0.00130185 0.00179264 0)
(-0.00140809 0.0020791 0)
(-0.0015117 0.00233406 0)
(-0.00161242 0.0025604 0)
(-0.00171014 0.00276077 0)
(-0.00180479 0.00293757 0)
(-0.00189638 0.00309299 0)
(-0.00198492 0.00322902 0)
(-0.00207047 0.00334748 0)
(-0.00215308 0.00345001 0)
(-3.70525e-07 -0.000225049 0)
(-2.53866e-06 -0.000661073 0)
(-6.21125e-06 -0.00108306 0)
(-1.0981e-05 -0.00149083 0)
(-1.63787e-05 -0.00188452 0)
(-2.20625e-05 -0.00226373 0)
(-2.76394e-05 -0.00262874 0)
(-3.28307e-05 -0.00297887 0)
(-3.725e-05 -0.0033146 0)
(-4.06439e-05 -0.00363488 0)
(-4.26194e-05 -0.00394046 0)
(-4.29356e-05 -0.00422979 0)
(-4.11786e-05 -0.00450404 0)
(-3.71072e-05 -0.00476096 0)
(-3.02742e-05 -0.00500231 0)
(-2.04614e-05 -0.00522491 0)
(-7.21838e-06 -0.00543139 0)
(9.72821e-06 -0.00561721 0)
(3.15558e-05 -0.0057861 0)
(5.98721e-05 -0.00593152 0)
(9.51843e-05 -0.00605953 0)
(0.000123982 -0.00616477 0)
(9.74903e-05 -0.0062685 0)
(-6.76136e-06 -0.00632262 0)
(-0.000122177 -0.00631147 0)
(-0.000205903 -0.00625605 0)
(-0.000636963 -0.00619644 0)
(-0.00152164 -0.00600775 0)
(-0.00233173 -0.00487579 0)
(-0.00218427 -0.00382937 0)
(-0.00246183 -0.00287299 0)
(-0.00277502 -0.00201232 0)
(-0.00304659 -0.00124315 0)
(-0.00326934 -0.000558345 0)
(-0.00345642 4.95427e-05 0)
(-0.00361506 0.000587897 0)
(-0.00374838 0.00106374 0)
(-0.00385922 0.00148373 0)
(-0.00395107 0.00185424 0)
(-0.00402709 0.00218116 0)
(-0.00408999 0.00246976 0)
(-0.00414208 0.00272463 0)
(-0.00418535 0.0029497 0)
(-0.00422148 0.00314829 0)
(-0.00425187 0.00332321 0)
(-0.00427768 0.00347686 0)
(-0.00429986 0.0036113 0)
(-0.00431917 0.0037283 0)
(-0.00433622 0.00382944 0)
(-0.00435149 0.0039161 0)
(1.44241e-07 -0.000216774 0)
(1.20164e-06 -0.000641663 0)
(3.51471e-06 -0.00105755 0)
(7.28319e-06 -0.00146403 0)
(1.26073e-05 -0.00186092 0)
(1.97644e-05 -0.00224784 0)
(2.88334e-05 -0.0026248 0)
(4.01341e-05 -0.00299146 0)
(5.37409e-05 -0.003348 0)
(7.00314e-05 -0.00369413 0)
(8.91243e-05 -0.00403019 0)
(0.000111476 -0.00435596 0)
(0.000137307 -0.00467189 0)
(0.000167138 -0.00497791 0)
(0.000201298 -0.00527453 0)
(0.000240335 -0.00556185 0)
(0.000285292 -0.00584015 0)
(0.000338487 -0.00610972 0)
(0.000403689 -0.00637109 0)
(0.000473897 -0.00662943 0)
(0.000501372 -0.00689953 0)
(0.000374224 -0.00684647 0)
(0.000181453 -0.00678321 0)
(3.35462e-06 -0.0066015 0)
(-0.000497712 -0.00637546 0)
(-0.00144127 0.00151363 0)
(-0.00169913 0.0046109 0)
(-0.00162843 0.00466733 0)
(-0.00202591 0.00471606 0)
(-0.00243023 0.00463641 0)
(-0.00278087 0.00448873 0)
(-0.00308211 0.0043086 0)
(-0.00334802 0.00412136 0)
(-0.00358439 0.00394428 0)
(-0.00379376 0.00378905 0)
(-0.00397829 0.00366266 0)
(-0.00414028 0.00356827 0)
(-0.00428203 0.00350604 0)
(-0.00440574 0.00347404 0)
(-0.00451345 0.00346897 0)
(-0.00460707 0.00348674 0)
(-0.00468833 0.0035229 0)
(-0.0047588 0.00357299 0)
(-0.00481988 0.0036328 0)
(-0.00487282 0.00369854 0)
(-0.00491873 0.00376694 0)
(-0.00495856 0.00383526 0)
(-0.00499315 0.00390132 0)
(-0.00502322 0.00396343 0)
(-0.00504938 0.00402037 0)
(5.05776e-07 -0.000234971 0)
(6.36821e-06 -0.000697447 0)
(1.81687e-05 -0.00115153 0)
(3.54603e-05 -0.00159687 0)
(5.75908e-05 -0.00203259 0)
(8.39663e-05 -0.00245909 0)
(0.000114135 -0.00287551 0)
(0.000147614 -0.00328301 0)
(0.000184018 -0.00368062 0)
(0.000222854 -0.00407037 0)
(0.000263772 -0.00445104 0)
(0.000306192 -0.00482573 0)
(0.000349733 -0.00519277 0)
(0.000393676 -0.00555662 0)
(0.000438269 -0.00591465 0)
(0.000484559 -0.0062729 0)
(0.000535647 -0.00662817 0)
(0.000582681 -0.00699457 0)
(0.00057149 -0.00738644 0)
(0.000371915 -0.00751924 0)
(8.98226e-05 -0.00767954 0)
(-0.000133834 -0.00744901 0)
(-0.00046763 -0.00677139 0)
(-0.00143111 0.00611394 0)
(-0.00223663 0.00453601 0)
(-0.00592636 0.00457475 0)
(-0.00558941 0.00470138 0)
(-0.00580545 0.00467238 0)
(-0.00607941 0.00467284 0)
(-0.00629128 0.00468236 0)
(-0.00642015 0.00468891 0)
(-0.00649818 0.00468544 0)
(-0.00654854 0.00466925 0)
(-0.00658315 0.00464054 0)
(-0.00660827 0.00460147 0)
(-0.00662754 0.00455535 0)
(-0.00664311 0.00450595 0)
(-0.00665607 0.00445689 0)
(-0.00666684 0.00441121 0)
(-0.00667549 0.00437113 0)
(-0.00668193 0.004338 0)
(-0.006686 0.00431234 0)
(-0.00668757 0.00429396 0)
(-0.00668655 0.00428216 0)
(-0.00668293 0.0042759 0)
(-0.00667675 0.00427396 0)
(-0.00666812 0.00427505 0)
(-0.00665717 0.00427796 0)
(-0.00664408 0.00428156 0)
(-0.00662906 0.0042849 0)
(1.26817e-06 -0.000303549 0)
(9.20925e-06 -0.000884656 0)
(2.37779e-05 -0.00144097 0)
(4.41366e-05 -0.00197348 0)
(6.95146e-05 -0.00248326 0)
(9.92766e-05 -0.0029708 0)
(0.00013294 -0.00343683 0)
(0.000169906 -0.00388151 0)
(0.000209691 -0.00430515 0)
(0.000251526 -0.00470775 0)
(0.000294817 -0.00508902 0)
(0.000338648 -0.00544902 0)
(0.000382918 -0.00578635 0)
(0.000428932 -0.00610188 0)
(0.000480359 -0.00639627 0)
(0.000527497 -0.00668362 0)
(0.000496855 -0.0069919 0)
(0.000210402 -0.00694394 0)
(-0.000235869 -0.00686609 0)
(-0.000605027 -0.00675 0)
(-0.000882841 -0.0052758 0)
(-0.00249911 -6.58174e-05 0)
(-0.0037777 0.000327776 0)
(-0.00673949 0.0430515 0)
(-0.00477472 0.0321465 0)
(-0.00573673 0.0242274 0)
(-0.00641165 0.0183796 0)
(-0.00688435 0.0141299 0)
(-0.00721118 0.0110811 0)
(-0.00745621 0.00892001 0)
(-0.00763814 0.00740116 0)
(-0.00776681 0.00633962 0)
(-0.00785179 0.00559918 0)
(-0.0079024 0.00508166 0)
(-0.00792666 0.00471786 0)
(-0.00793108 0.00445991 0)
(-0.00792084 0.00427531 0)
(-0.00789993 0.0041422 0)
(-0.00787143 0.00404593 0)
(-0.00783761 0.00397658 0)
(-0.00780013 0.00392732 0)
(-0.0077602 0.00389324 0)
(-0.00771864 0.00387074 0)
(-0.00767604 0.00385699 0)
(-0.0076328 0.00384979 0)
(-0.0075892 0.0038473 0)
(-0.00754544 0.00384806 0)
(-0.00750167 0.00385084 0)
(-0.00745801 0.00385465 0)
(-0.00741457 0.0038587 0)
(-8.75979e-07 -0.00032791 0)
(-5.70493e-06 -0.000955939 0)
(-1.28463e-05 -0.00155742 0)
(-2.15751e-05 -0.00213466 0)
(-2.96853e-05 -0.00268748 0)
(-3.71199e-05 -0.00321795 0)
(-4.17063e-05 -0.00372429 0)
(-4.39634e-05 -0.00420823 0)
(-4.17904e-05 -0.00466662 0)
(-3.55331e-05 -0.00510026 0)
(-2.21851e-05 -0.00550543 0)
(1.05635e-06 -0.0058847 0)
(3.25744e-05 -0.00624541 0)
(3.11694e-05 -0.00660076 0)
(-0.000152339 -0.00696175 0)
(-0.000513636 -0.0068883 0)
(-0.000871809 -0.00693918 0)
(-0.00119148 -0.00650191 0)
(-0.00181762 0.0013472 0)
(-0.00332176 -0.00607151 0)
(-0.0103417 0.0252095 0)
(-0.00787874 0.0275655 0)
(-0.0086917 0.0253995 0)
(-0.00942553 0.0243935 0)
(-0.0090232 0.0219244 0)
(-0.00867642 0.0190698 0)
(-0.00848387 0.0162862 0)
(-0.00842822 0.0137745 0)
(-0.00844561 0.0116022 0)
(-0.0084951 0.00977484 0)
(-0.00855366 0.00826813 0)
(-0.00860839 0.00704522 0)
(-0.00865224 0.00606582 0)
(-0.00868202 0.0052909 0)
(-0.00869705 0.00468485 0)
(-0.00869817 0.00421641 0)
(-0.00868697 0.0038588 0)
(-0.00866532 0.0035895 0)
(-0.00863511 0.00338992 0)
(-0.00859803 0.00324488 0)
(-0.00855557 0.00314212 0)
(-0.00850898 0.00307185 0)
(-0.00845928 0.00302629 0)
(-0.00840729 0.00299935 0)
(-0.0083537 0.00298622 0)
(-0.00829903 0.00298321 0)
(-0.00824373 0.00298744 0)
(-0.00818813 0.00299669 0)
(-0.00813254 0.00300927 0)
(-0.00807719 0.0030239 0)
(-9.69177e-07 -0.000245373 0)
(-6.20784e-06 -0.000747084 0)
(-1.36134e-05 -0.00126211 0)
(-2.13905e-05 -0.00178013 0)
(-2.70901e-05 -0.00231149 0)
(-2.92933e-05 -0.00283631 0)
(-2.53517e-05 -0.00337539 0)
(-1.30377e-05 -0.00389579 0)
(1.37278e-05 -0.00443293 0)
(5.48208e-05 -0.00494094 0)
(7.55182e-05 -0.0054912 0)
(-6.50581e-05 -0.00607 0)
(-0.000451201 -0.00627332 0)
(-0.000854978 -0.00619753 0)
(-0.00110594 -0.00670705 0)
(-0.00130625 -0.00454881 0)
(-0.00272348 0.00126111 0)
(-0.00482834 -0.00597745 0)
(-0.00685085 0.0552137 0)
(-0.00639386 0.0437601 0)
(-0.00716839 0.0372053 0)
(-0.00752596 0.0318292 0)
(-0.00769777 0.027494 0)
(-0.00767806 0.0238748 0)
(-0.00760823 0.0209498 0)
(-0.00755429 0.0184064 0)
(-0.00753572 0.0161168 0)
(-0.00754626 0.0140401 0)
(-0.0075776 0.0121686 0)
(-0.00762243 0.0105041 0)
(-0.00767455 0.00904664 0)
(-0.0077288 0.00779125 0)
(-0.00778124 0.006727 0)
(-0.00782907 0.00583832 0)
(-0.00787048 0.00510668 0)
(-0.00790443 0.00451232 0)
(-0.0079305 0.00403558 0)
(-0.00794866 0.0036579 0)
(-0.00795918 0.00336246 0)
(-0.00796255 0.00313445 0)
(-0.00795934 0.00296116 0)
(-0.00795022 0.00283187 0)
(-0.00793584 0.0027377 0)
(-0.00791688 0.00267136 0)
(-0.00789397 0.00262693 0)
(-0.00786771 0.00259965 0)
(-0.00783864 0.00258568 0)
(-0.00780728 0.00258199 0)
(-0.00777408 0.00258612 0)
(-0.00773945 0.00259615 0)
(5.96083e-08 -0.000257751 0)
(5.70445e-07 -0.000803677 0)
(-3.26427e-08 -0.00137756 0)
(-1.08793e-06 -0.00197963 0)
(-4.57266e-06 -0.00260562 0)
(-6.77567e-06 -0.00325865 0)
(-3.3921e-06 -0.00393315 0)
(4.15937e-06 -0.00463952 0)
(-4.39017e-05 -0.00538306 0)
(-0.00033306 -0.00594764 0)
(-0.000821795 -0.00594047 0)
(-0.00127911 -0.00675003 0)
(-0.00202249 -0.00666992 0)
(-0.00451881 0.000624878 0)
(-0.00579464 -0.0106457 0)
(-0.0133104 0.0295953 0)
(-0.00683519 0.0276571 0)
(-0.0106565 0.0291034 0)
(-0.0113797 0.0330244 0)
(-0.0107709 0.0326304 0)
(-0.0101882 0.0305365 0)
(-0.00972135 0.0279948 0)
(-0.00935753 0.0253822 0)
(-0.00907027 0.0228359 0)
(-0.00883647 0.0204313 0)
(-0.00863713 0.0181888 0)
(-0.00846695 0.0161144 0)
(-0.00832378 0.0142116 0)
(-0.00820596 0.0124831 0)
(-0.00811129 0.0109299 0)
(-0.00803698 0.00954978 0)
(-0.00797993 0.00833676 0)
(-0.00793689 0.00728158 0)
(-0.00790475 0.00637243 0)
(-0.00788067 0.00559588 0)
(-0.00786218 0.00493783 0)
(-0.00784724 0.00438426 0)
(-0.00783419 0.00392177 0)
(-0.0078218 0.00353795 0)
(-0.00780913 0.00322159 0)
(-0.00779557 0.00296271 0)
(-0.00778069 0.00275257 0)
(-0.00776428 0.0025836 0)
(-0.00774624 0.00244929 0)
(-0.00772657 0.00234407 0)
(-0.00770536 0.00226321 0)
(-0.00768272 0.0022027 0)
(-0.00765881 0.00215916 0)
(-0.00763379 0.00212973 0)
(-0.00760784 0.00211201 0)
(-1.89956e-07 -0.000250193 0)
(-7.86764e-06 -0.000752078 0)
(-2.86559e-05 -0.00124343 0)
(-6.26681e-05 -0.0017453 0)
(-0.000109209 -0.00222293 0)
(-0.000169135 -0.00272496 0)
(-0.00028785 -0.00319461 0)
(-0.000584388 -0.00361487 0)
(-0.00107259 -0.00403568 0)
(-0.00182023 -0.00515493 0)
(-0.00423132 0.00300479 0)
(-0.005697 -0.00641214 0)
(-0.0181551 0.0445296 0)
(-0.00977987 0.0413705 0)
(-0.0150707 0.0367929 0)
(-0.0160034 0.0375943 0)
(-0.0159611 0.0344661 0)
(-0.0161059 0.0316453 0)
(-0.0157973 0.0287945 0)
(-0.015265 0.0262708 0)
(-0.0146646 0.0238413 0)
(-0.0140648 0.0214986 0)
(-0.0134841 0.0192745 0)
(-0.012931 0.0171971 0)
(-0.0124101 0.0152831 0)
(-0.0119243 0.0135391 0)
(-0.0114751 0.0119639 0)
(-0.0110629 0.0105518 0)
(-0.0106869 0.00929423 0)
(-0.0103456 0.00818128 0)
(-0.0100367 0.00720232 0)
(-0.00975749 0.00634636 0)
(-0.00950509 0.00560237 0)
(-0.0092766 0.0049595 0)
(-0.00906921 0.00440728 0)
(-0.00888035 0.00393575 0)
(-0.00870769 0.0035356 0)
(-0.0085492 0.0031982 0)
(-0.00840311 0.00291572 0)
(-0.00826789 0.00268105 0)
(-0.00814226 0.00248784 0)
(-0.00802515 0.00233048 0)
(-0.00791564 0.00220397 0)
(-0.00781298 0.00210398 0)
(-0.00771651 0.0020267 0)
(-0.00762572 0.00196882 0)
(-0.00754016 0.00192748 0)
(-0.00745943 0.00190022 0)
(-0.00738323 0.00188489 0)
(-0.00731127 0.00187966 0)
(-1.3781e-06 -0.000154164 0)
(-1.23394e-05 -0.000425453 0)
(-3.1983e-05 -0.000657118 0)
(-5.67513e-05 -0.000847732 0)
(-9.99978e-05 -0.000993917 0)
(-0.000251729 -0.00110581 0)
(-0.00064592 -0.00119945 0)
(-0.00124963 -0.00105563 0)
(-0.00261812 0.00467315 0)
(-0.00434071 0.00522431 0)
(-0.00805718 0.0835354 0)
(-0.00751305 0.0735642 0)
(-0.0092023 0.0625109 0)
(-0.00967107 0.0512198 0)
(-0.0104404 0.0425002 0)
(-0.0104895 0.0356324 0)
(-0.0103933 0.0302522 0)
(-0.0102035 0.0258437 0)
(-0.00998925 0.022102 0)
(-0.0097561 0.0188991 0)
(-0.00950899 0.0161264 0)
(-0.00926035 0.0137127 0)
(-0.00901934 0.0116107 0)
(-0.00879157 0.00978465 0)
(-0.00857986 0.00820392 0)
(-0.00838537 0.00684042 0)
(-0.00820815 0.00566822 0)
(-0.00804764 0.00466369 0)
(-0.00790287 0.00380574 0)
(-0.00777268 0.00307588 0)
(-0.00765578 0.00245802 0)
(-0.00755085 0.00193819 0)
(-0.00745656 0.00150426 0)
(-0.00737164 0.00114562 0)
(-0.0072949 0.000852938 0)
(-0.00722523 0.000617967 0)
(-0.00716163 0.000433385 0)
(-0.0071032 0.000292673 0)
(-0.00704918 0.000190032 0)
(-0.00699888 0.000120303 0)
(-0.00695173 7.89033e-05 0)
(-0.00690727 6.17768e-05 0)
(-0.0068651 6.53406e-05 0)
(-0.00682491 8.64417e-05 0)
(-0.00678645 0.000122314 0)
(-0.00674951 0.000170538 0)
(-0.00671393 0.000229008 0)
(-0.00667959 0.000295891 0)
(-0.00664639 0.000369604 0)
(-0.00661427 0.000448779 0)
(-1.60314e-06 -0.000118762 0)
(-5.87474e-06 -0.000323344 0)
(-1.61704e-06 -0.000493918 0)
(-1.96125e-06 -0.000630172 0)
(-0.000129973 -0.000731563 0)
(-0.000578826 -0.000803224 0)
(-0.00123983 -0.000891623 0)
(-0.00217853 -0.000318519 0)
(-0.00370254 0.0507601 0)
(-0.00161224 0.0504282 0)
(-0.00305144 0.0604237 0)
(-0.00165373 0.0594754 0)
(-0.000635219 0.0539848 0)
(0.000158006 0.0474846 0)
(0.000689673 0.0411602 0)
(0.000976146 0.0354283 0)
(0.00109764 0.0304899 0)
(0.00111111 0.0262984 0)
(0.0010419 0.0227506 0)
(0.000908947 0.019735 0)
(0.000726718 0.0171536 0)
(0.000507042 0.0149268 0)
(0.000260384 0.0129933 0)
(-3.73468e-06 0.0113064 0)
(-0.000276731 0.00983041 0)
(-0.000551402 0.00853784 0)
(-0.000822057 0.00740645 0)
(-0.00108436 0.00641787 0)
(-0.00133527 0.00555626 0)
(-0.00157291 0.00480763 0)
(-0.0017963 0.00415953 0)
(-0.00200518 0.00360069 0)
(-0.00219972 0.00312084 0)
(-0.00238046 0.00271071 0)
(-0.00254813 0.00236194 0)
(-0.00270353 0.00206705 0)
(-0.0028475 0.00181938 0)
(-0.00298085 0.00161306 0)
(-0.00310438 0.00144291 0)
(-0.0032188 0.0013044 0)
(-0.0033248 0.00119359 0)
(-0.00342303 0.00110703 0)
(-0.00351408 0.00104175 0)
(-0.00359851 0.000995141 0)
(-0.00367685 0.000964951 0)
(-0.0037496 0.000949203 0)
(-0.00381723 0.000946172 0)
(-0.00388021 0.000954342 0)
(-0.00393897 0.000972374 0)
(-0.00399392 0.000999088 0)
(-1.27606e-06 -6.27532e-05 0)
(-7.94389e-06 -0.000171154 0)
(-1.38267e-05 -0.000263222 0)
(-3.13154e-05 -0.000339517 0)
(-0.000130873 -0.000401336 0)
(-0.000462209 -0.000449895 0)
(-0.00102346 -0.000455101 0)
(-0.00234242 0.015356 0)
(-0.00120483 0.028191 0)
(0.00111635 0.03333 0)
(0.00279054 0.0358983 0)
(0.00468691 0.0369911 0)
(0.00637826 0.0366814 0)
(0.00768245 0.0353945 0)
(0.00859532 0.0335389 0)
(0.00916171 0.0314344 0)
(0.00943935 0.0292927 0)
(0.00947836 0.0272278 0)
(0.00932181 0.0252843 0)
(0.00900659 0.0234712 0)
(0.00856512 0.0217579 0)
(0.0080265 0.0201232 0)
(0.00741504 0.0185552 0)
(0.0067521 0.0170341 0)
(0.00605656 0.0155612 0)
(0.00534443 0.0141429 0)
(0.00462885 0.0127928 0)
(0.00392088 0.0115175 0)
(0.00322965 0.0103278 0)
(0.00256232 0.00923087 0)
(0.00192416 0.00823248 0)
(0.00131911 0.00733081 0)
(0.000749926 0.00652475 0)
(0.000218262 0.00581041 0)
(-0.000275095 0.00518191 0)
(-0.000730039 0.00463247 0)
(-0.00114705 0.00415492 0)
(-0.00152712 0.00374217 0)
(-0.00187161 0.00338744 0)
(-0.00218216 0.00308442 0)
(-0.00246064 0.00282739 0)
(-0.00270908 0.0026112 0)
(-0.0029296 0.00243126 0)
(-0.00312438 0.0022835 0)
(-0.00329559 0.00216429 0)
(-0.0034454 0.00207042 0)
(-0.00357589 0.00199903 0)
(-0.00368906 0.00194755 0)
(-0.00378683 0.0019137 0)
(-0.00387096 0.00189544 0)
(-1.37129e-06 1.07331e-06 0)
(-1.19641e-05 9.3225e-06 0)
(-2.73532e-05 2.37879e-05 0)
(-6.17176e-05 4.2883e-05 0)
(-0.000169371 5.71495e-05 0)
(-0.000480237 4.32094e-05 0)
(-0.00104662 7.93902e-05 0)
(-0.00215748 -0.00544565 0)
(-0.0001113 -0.000655051 0)
(0.000451674 0.00388706 0)
(0.000356612 0.00786649 0)
(-0.000155128 0.0118272 0)
(-0.000606915 0.015581 0)
(-0.000720201 0.0188661 0)
(-0.000494337 0.0215833 0)
(-4.66006e-05 0.0237786 0)
(0.000513927 0.0255229 0)
(0.00111085 0.0268666 0)
(0.00169654 0.0278396 0)
(0.00223255 0.0284549 0)
(0.00268743 0.0287316 0)
(0.00303823 0.0286878 0)
(0.0032734 0.0283524 0)
(0.00339916 0.0277569 0)
(0.00342902 0.0269353 0)
(0.00337977 0.0259258 0)
(0.00326935 0.0247686 0)
(0.0031138 0.0234987 0)
(0.00292589 0.0221504 0)
(0.00271607 0.020756 0)
(0.00249248 0.0193452 0)
(0.00226113 0.0179397 0)
(0.00202619 0.0165576 0)
(0.00179115 0.0152141 0)
(0.00155846 0.0139204 0)
(0.00132989 0.0126853 0)
(0.0011066 0.0115155 0)
(0.0008893 0.0104158 0)
(0.000678392 0.0093894 0)
(0.000474121 0.00843805 0)
(0.000276589 0.00756253 0)
(8.57437e-05 0.00676267 0)
(-9.85834e-05 0.00603742 0)
(-0.00027658 0.00538489 0)
(-0.000448418 0.0048025 0)
(-0.000614248 0.00428712 0)
(-0.000774193 0.0038352 0)
(-0.00092834 0.00344283 0)
(-0.00107674 0.00310593 0)
(-0.00121941 0.00282027 0)
(2.98889e-06 0.000124355 0)
(1.43014e-05 0.000329701 0)
(2.36765e-05 0.000494288 0)
(-0.000110034 0.000621367 0)
(-0.000611475 0.000713009 0)
(-0.00135751 0.000835426 0)
(-0.00228845 0.00515463 0)
(-0.00174883 -0.00662696 0)
(-0.00396155 0.0083188 0)
(-0.00233503 0.0311297 0)
(-0.00294156 0.0526094 0)
(-0.00251118 0.0573885 0)
(-0.00229357 0.0490892 0)
(-0.00222199 0.0359037 0)
(-0.00185545 0.025733 0)
(-0.00133748 0.0195093 0)
(-0.00112314 0.0154123 0)
(-0.00155112 0.0127926 0)
(-0.00270391 0.0113705 0)
(-0.00441235 0.0110028 0)
(-0.00636887 0.0115367 0)
(-0.0082609 0.0126352 0)
(-0.00988877 0.0138574 0)
(-0.0111868 0.0148883 0)
(-0.0121518 0.0155873 0)
(-0.0127931 0.0159211 0)
(-0.0131244 0.015918 0)
(-0.0131697 0.0156413 0)
(-0.0129683 0.0151629 0)
(-0.0125739 0.0145525 0)
(-0.0120471 0.0138671 0)
(-0.0114434 0.0131489 0)
(-0.010803 0.0124257 0)
(-0.0101512 0.0117168 0)
(-0.00950322 0.0110362 0)
(-0.00886994 0.0103938 0)
(-0.00826044 0.00979571 0)
(-0.00768225 0.00924472 0)
(-0.0071405 0.00874002 0)
(-0.0066368 0.00827879 0)
(-0.00617051 0.00785919 0)
(-0.005741 0.00748044 0)
(-0.0053482 0.00714113 0)
(-0.00499168 0.00683786 0)
(-0.00467016 0.00656652 0)
(-0.00438173 0.00632322 0)
(-0.00412419 0.00610453 0)
(-0.00389519 0.00590711 0)
(-0.00369221 0.00572781 0)
(-0.00351273 0.00556424 0)
(3.52059e-06 6.30933e-05 0)
(3.23861e-05 0.000167039 0)
(9.37485e-05 0.000251184 0)
(0.00016961 0.000313681 0)
(0.000160337 0.000369554 0)
(-0.000160609 0.000462265 0)
(-0.000859003 0.000802487 0)
(-0.00138742 0.0101887 0)
(-0.00181486 0.00945433 0)
(-0.0016964 0.00698052 0)
(-0.00152417 0.0281077 0)
(-0.00165891 0.0183207 0)
(0.00503023 0.0382286 0)
(0.00210974 0.0270109 0)
(-0.004106 0.00532637 0)
(0.00246595 0.00981022 0)
(0.00323307 0.0288568 0)
(0.00284097 0.0511132 0)
(0.00316422 0.0702066 0)
(0.00356464 0.0817661 0)
(0.0038956 0.0838531 0)
(0.00392889 0.0776401 0)
(0.00393538 0.068089 0)
(0.00424135 0.0586408 0)
(0.00486083 0.0494076 0)
(0.00533202 0.0400227 0)
(0.00559684 0.0308279 0)
(0.00566439 0.022355 0)
(0.00553145 0.0150723 0)
(0.00518883 0.0093765 0)
(0.00465498 0.00535285 0)
(0.00400048 0.00262178 0)
(0.00332336 0.000651033 0)
(0.00270111 -0.000872324 0)
(0.00217322 -0.00203898 0)
(0.00174497 -0.00287352 0)
(0.00139669 -0.00341529 0)
(0.00108833 -0.00369754 0)
(0.000778547 -0.00379044 0)
(0.000469991 -0.00380285 0)
(0.000205274 -0.00377949 0)
(-2.88652e-06 -0.00367575 0)
(-0.000181262 -0.003486 0)
(-0.00036099 -0.00324499 0)
(-0.000549051 -0.00297745 0)
(-0.000742328 -0.00269725 0)
(-0.00094043 -0.00240986 0)
(-0.00114683 -0.0021234 0)
(-0.00135674 -0.00184545 0)
(-0.00155845 -0.00157747 0)
(3.07586e-06 -0.00020212 0)
(2.95857e-05 -0.000537669 0)
(8.12988e-05 -0.000812433 0)
(0.000154386 -0.00102164 0)
(0.000244068 -0.00117927 0)
(0.000344278 -0.00126155 0)
(0.000481839 -0.00125881 0)
(0.000639479 -0.00111913 0)
(0.00078356 -0.00131616 0)
(0.00102214 -0.0015703 0)
(0.0019943 -0.00181211 0)
(0.00409717 -0.00179572 0)
(0.00609439 -0.00030135 0)
(0.00810508 0.00501569 0)
(0.00921073 0.010417 0)
(0.00907673 0.00620285 0)
(0.00925387 0.00974254 0)
(0.0100419 0.0124497 0)
(0.0113962 0.0164791 0)
(0.0126168 0.0231183 0)
(0.0136088 0.0318087 0)
(0.0200874 0.0369812 0)
(0.0149939 0.00850484 0)
(0.0162593 -0.0158424 0)
(0.0232066 -0.00870998 0)
(0.0252916 0.00244556 0)
(0.0252529 0.00968787 0)
(0.0259422 0.0152946 0)
(0.0262751 0.0208668 0)
(0.0251541 0.0259484 0)
(0.0237605 0.0293 0)
(0.0237167 0.0295866 0)
(0.0242092 0.0277358 0)
(0.0243011 0.0251 0)
(0.0240135 0.0225241 0)
(0.0236186 0.0203572 0)
(0.0236138 0.0185289 0)
(0.0238589 0.0179572 0)
(0.023667 0.0180393 0)
(0.0231111 0.0166255 0)
(0.0225075 0.0138641 0)
(0.0218805 0.0119941 0)
(0.0211533 0.011745 0)
(0.020364 0.0116583 0)
(0.0196171 0.0114843 0)
(0.0189573 0.011194 0)
(0.0183559 0.0112831 0)
(0.017743 0.0114574 0)
(0.017114 0.0110924 0)
(0.016482 0.0105768 0)
(-3.23816e-07 -0.000296832 0)
(3.87344e-06 -0.000834396 0)
(1.48578e-05 -0.0013184 0)
(3.47805e-05 -0.00174928 0)
(6.31055e-05 -0.00213144 0)
(0.00010316 -0.00246299 0)
(0.00015452 -0.00275035 0)
(0.000220272 -0.00299125 0)
(0.000293233 -0.00321032 0)
(0.000363084 -0.00339281 0)
(0.000417637 -0.00345842 0)
(0.000463613 -0.00332768 0)
(0.000546266 -0.00293576 0)
(0.000738113 -0.00229723 0)
(0.000978189 -0.00184802 0)
(0.00119668 -0.00162671 0)
(0.00159361 -0.00137747 0)
(0.00236797 -0.00108929 0)
(0.00352492 -0.000715532 0)
(0.00511557 -0.000210856 0)
(0.00719279 0.000475545 0)
(0.00961771 0.0019028 0)
(0.0114896 0.00628633 0)
(0.0113463 0.00620322 0)
(0.0102428 0.00818112 0)
(0.00968238 0.0133536 0)
(0.00960007 0.0178983 0)
(0.00974871 0.0231277 0)
(0.00998431 0.0294148 0)
(0.0103769 0.034747 0)
(0.00946434 0.0289762 0)
(0.0104259 0.00688481 0)
(0.0136173 -0.00565224 0)
(0.0157443 -0.00353937 0)
(0.0144873 0.00452821 0)
(0.0137181 0.00385742 0)
(0.017017 -0.0104606 0)
(0.0187642 -0.0100614 0)
(0.0216104 0.00576241 0)
(0.0247696 0.0100674 0)
(0.0231721 0.0110332 0)
(0.0230428 0.0138964 0)
(0.0233285 0.0171319 0)
(0.0228374 0.0170931 0)
(0.0218757 0.0157276 0)
(0.020714 0.0135725 0)
(0.0197091 0.0134347 0)
(0.0189515 0.0139684 0)
(0.0183882 0.0144526 0)
(0.0179742 0.0150383 0)
(5.50425e-07 -0.000277959 0)
(5.50088e-07 -0.000788608 0)
(-8.91829e-08 -0.00125652 0)
(-8.80198e-07 -0.00168415 0)
(-1.48316e-06 -0.00207373 0)
(-8.35572e-07 -0.00242582 0)
(1.06859e-06 -0.00274185 0)
(5.12288e-06 -0.0030222 0)
(1.06421e-05 -0.00326848 0)
(1.8362e-05 -0.00348015 0)
(2.93297e-05 -0.00365761 0)
(4.93522e-05 -0.00379927 0)
(8.52089e-05 -0.00390767 0)
(0.000144006 -0.00399008 0)
(0.000224954 -0.00406608 0)
(0.000320498 -0.00414462 0)
(0.000424122 -0.00416706 0)
(0.000534189 -0.00409543 0)
(0.00065292 -0.00390854 0)
(0.000782567 -0.00359953 0)
(0.000928897 -0.00314927 0)
(0.00110597 -0.00250961 0)
(0.00130666 -0.00164714 0)
(0.00147285 -0.00108425 0)
(0.00171838 -0.000531184 0)
(0.00224043 4.9755e-05 0)
(0.00306826 0.000651151 0)
(0.00414775 0.00128729 0)
(0.00544071 0.00200518 0)
(0.00696353 0.00286781 0)
(0.00861454 0.00429942 0)
(0.00976619 0.000530348 0)
(0.00974433 -0.000478909 0)
(0.00914663 0.00617291 0)
(0.00857204 0.00654916 0)
(0.00825879 -0.00607005 0)
(0.00842568 -0.0250688 0)
(0.00862321 -0.0331388 0)
(0.00895546 -0.0339508 0)
(0.00966033 -0.0172949 0)
(0.00952079 0.00722954 0)
(0.00908731 0.0142987 0)
(0.00933139 0.0250483 0)
(0.00967485 0.0324551 0)
(0.00998672 0.0363055 0)
(0.0102144 0.03621 0)
(0.0103457 0.0329966 0)
(0.0104697 0.027464 0)
(0.0106469 0.0217057 0)
(0.010909 0.017473 0)
(-1.24199e-06 -0.000267632 0)
(-5.45106e-06 -0.000768668 0)
(-1.14764e-05 -0.00123564 0)
(-1.82907e-05 -0.00166871 0)
(-2.53366e-05 -0.00206735 0)
(-3.21803e-05 -0.0024312 0)
(-3.85975e-05 -0.00275965 0)
(-4.42789e-05 -0.00305328 0)
(-4.91038e-05 -0.00331165 0)
(-5.28196e-05 -0.00353557 0)
(-5.52963e-05 -0.00372413 0)
(-5.62595e-05 -0.00387851 0)
(-5.55979e-05 -0.00399756 0)
(-5.33779e-05 -0.00408352 0)
(-5.00862e-05 -0.00413483 0)
(-4.65336e-05 -0.00415434 0)
(-4.26206e-05 -0.00413823 0)
(-3.71375e-05 -0.00409017 0)
(-2.71613e-05 -0.00400517 0)
(-9.46535e-06 -0.00389043 0)
(2.1094e-05 -0.00374028 0)
(6.92867e-05 -0.00356774 0)
(0.000140103 -0.00336824 0)
(0.000231109 -0.00316749 0)
(0.000337475 -0.00294298 0)
(0.000454061 -0.00266873 0)
(0.000583481 -0.00229778 0)
(0.000728975 -0.00184917 0)
(0.000887965 -0.0012914 0)
(0.00103773 -0.000661079 0)
(0.00110939 7.72068e-05 0)
(0.00109552 0.000507268 0)
(0.00107099 0.00118054 0)
(0.00118484 0.00220056 0)
(0.00152279 0.00332757 0)
(0.00177252 0.00409359 0)
(0.000920877 -0.000576754 0)
(-0.000444902 0.00164715 0)
(-0.00267558 0.00118835 0)
(-0.00399877 0.00428628 0)
(-0.00401663 0.00591883 0)
(-0.00365996 0.00641947 0)
(-0.0031063 0.00713226 0)
(-0.00219611 0.00795855 0)
(-0.00096786 0.00866139 0)
(0.000451754 0.00929436 0)
(0.0018443 0.00970623 0)
(0.00312588 0.00971692 0)
(0.00427506 0.00915475 0)
(0.00527631 0.00833312 0)
(-0.00154375 0.00217696 0)
(-0.00162065 0.00230331 0)
(-0.00169547 0.00241645 0)
(-0.00176821 0.00251731 0)
(-0.00183889 0.00260675 0)
(-0.00190755 0.0026856 0)
(-0.00197423 0.00275464 0)
(-0.00203896 0.0028146 0)
(-0.00210179 0.00286616 0)
(-0.00216278 0.00290996 0)
(-0.00222197 0.00294661 0)
(-0.00227943 0.00297667 0)
(-0.0023352 0.00300066 0)
(-0.00238933 0.00301906 0)
(-0.00244189 0.00303233 0)
(-0.00249292 0.00304089 0)
(-0.00254248 0.00304514 0)
(-0.00259062 0.00304543 0)
(-0.00263739 0.00304211 0)
(-0.00268284 0.00303548 0)
(-0.00272703 0.00302582 0)
(-0.00276999 0.00301341 0)
(-0.00281177 0.0029985 0)
(-0.00285242 0.0029813 0)
(-0.00289199 0.00296203 0)
(-0.0029305 0.00294088 0)
(-0.00296802 0.00291802 0)
(-0.00300456 0.00289362 0)
(-0.00304018 0.00286783 0)
(-0.00307491 0.00284079 0)
(-0.00310878 0.00281262 0)
(-0.00314183 0.00278343 0)
(-0.0031741 0.00275333 0)
(-0.0032056 0.00272243 0)
(-0.00323638 0.00269079 0)
(-0.00326646 0.00265852 0)
(-0.00329587 0.00262568 0)
(-0.00332463 0.00259234 0)
(-0.00335279 0.00255857 0)
(-0.00338035 0.00252442 0)
(-0.00340734 0.00248995 0)
(-0.00343378 0.00245519 0)
(-0.0034597 0.00242019 0)
(-0.00348512 0.00238497 0)
(-0.00351005 0.00234954 0)
(-0.00353451 0.0023139 0)
(-0.00355851 0.00227807 0)
(-0.00358203 0.00224223 0)
(-0.00360504 0.00220708 0)
(-0.00362758 0.00217312 0)
(-0.00223283 0.00353809 0)
(-0.00230981 0.00361306 0)
(-0.00238409 0.00367614 0)
(-0.00245578 0.00372841 0)
(-0.00252494 0.00377088 0)
(-0.00259168 0.00380444 0)
(-0.00265608 0.0038299 0)
(-0.00271823 0.00384801 0)
(-0.00277821 0.00385944 0)
(-0.00283612 0.00386482 0)
(-0.00289203 0.00386471 0)
(-0.00294603 0.00385963 0)
(-0.00299819 0.00385005 0)
(-0.0030486 0.00383642 0)
(-0.00309732 0.00381913 0)
(-0.00314444 0.00379855 0)
(-0.00319001 0.00377502 0)
(-0.00323411 0.00374884 0)
(-0.00327681 0.0037203 0)
(-0.00331816 0.00368966 0)
(-0.00335823 0.00365715 0)
(-0.00339708 0.00362299 0)
(-0.00343476 0.00358737 0)
(-0.00347133 0.00355048 0)
(-0.00350683 0.00351248 0)
(-0.00354132 0.00347352 0)
(-0.00357485 0.00343373 0)
(-0.00360746 0.00339324 0)
(-0.0036392 0.00335216 0)
(-0.0036701 0.00331058 0)
(-0.00370021 0.0032686 0)
(-0.00372956 0.0032263 0)