/*--------------------------------*- C++ -*----------------------------------*\
| =========                 |                                                 |
| \\      /  F ield         | OpenFOAM: The Open Source CFD Toolbox           |
|  \\    /   O peration     | Version:  2.4.0                                 |
|   \\  /    A nd           | Web:      www.OpenFOAM.org                      |
|    \\/     M anipulation  |                                                 |
\*---------------------------------------------------------------------------*/
FoamFile
{
    version     2.0;
    format      ascii;
    class       volScalarField;
    location    "0.4";
    object      alpha1;
}
// * * * * * * * * * * * * * * * * * * * * * * * * * * * * * * * * * * * * * //

dimensions      [0 0 0 0 0 0 0];

internalField   nonuniform List<scalar> 
8000
(
1
1
1
1
1
1
1
1
1
1
1
1
1
1
1
1
1
1
1
1
1
1
1
0.999999
0.999999
0.999998
0.999997
0.999992
0.932339
0.395822
0.0313878
0.00200284
0.00015561
1.32356e-05
5.15327e-06
2.99594e-06
1.67344e-06
8.99948e-07
4.64514e-07
2.29763e-07
1.09655e-07
5.18739e-08
2.585e-08
1.47249e-08
9.96234e-09
7.66623e-09
6.28024e-09
5.24171e-09
4.38603e-09
3.6558e-09
1
1
1
1
1
1
1
1
1
1
1
1
1
1
1
1
1
1
1
1
1
1
1
0.999999
0.999998
0.999997
0.999997
0.997974
0.663045
0.0932619
0.005017
0.000361086
2.69594e-05
6.12358e-06
3.57566e-06
2.01026e-06
1.09596e-06
5.82505e-07
3.03729e-07
1.58076e-07
8.52236e-08
5.03086e-08
3.38807e-08
2.57625e-08
2.1169e-08
1.80115e-08
1.55439e-08
1.34179e-08
1.15616e-08
9.90131e-09
1
1
1
1
1
1
1
1
1
1
1
1
1
1
1
1
1
1
1
1
1
1
0.999999
0.999999
0.999998
0.999996
0.999984
0.891025
0.283489
0.0156713
0.000940908
6.65418e-05
7.3632e-06
4.32495e-06
2.46233e-06
1.36652e-06
7.5148e-07
4.16166e-07
2.37985e-07
1.45709e-07
9.88596e-08
7.50685e-08
6.21112e-08
5.36955e-08
4.7355e-08
4.19139e-08
3.72889e-08
3.30382e-08
2.92266e-08
2.56003e-08
1
1
1
1
1
1
1
1
1
1
1
1
1
1
1
1
1
1
1
1
1
1
0.999999
0.999998
0.999997
0.999997
0.997903
0.609432
0.0638889
0.00286901
0.000182819
1.32516e-05
5.26101e-06
3.06313e-06
1.74315e-06
9.98872e-07
5.91301e-07
3.7142e-07
2.53764e-07
1.90748e-07
1.56058e-07
1.36325e-07
1.23561e-07
1.12572e-07
1.0286e-07
9.31569e-08
8.4934e-08
7.69312e-08
6.98099e-08
6.21759e-08
1
1
1
1
1
1
1
1
1
1
1
1
1
1
1
1
1
1
1
1
1
1
0.999999
0.999998
0.999996
0.999989
0.907825
0.289021
0.0128517
0.000632971
3.75174e-05
6.33136e-06
3.86889e-06
2.27393e-06
1.3624e-06
8.59814e-07
5.86473e-07
4.36243e-07
3.51635e-07
3.02165e-07
2.70017e-07
2.50504e-07
2.38336e-07
2.23574e-07
2.10185e-07
1.93086e-07
1.79799e-07
1.65691e-07
1.5478e-07
1.39153e-07
1
1
1
1
1
1
1
1
1
1
1
1
1
1
1
1
1
1
1
1
1
0.999999
0.999999
0.999998
0.999996
0.999917
0.719609
0.0956249
0.00323135
0.000164659
1.10839e-05
4.91042e-06
3.02562e-06
1.88271e-06
1.24873e-06
9.00221e-07
7.11036e-07
6.02498e-07
5.34846e-07
4.90905e-07
4.50912e-07
4.27644e-07
4.23662e-07
4.04309e-07
3.92308e-07
3.6179e-07
3.42539e-07
3.17873e-07
3.09452e-07
2.79097e-07
1
1
1
1
1
1
1
1
1
1
1
1
1
1
1
1
1
1
1
1
1
0.999999
0.999999
0.999998
0.999994
0.991352
0.500976
0.0322163
0.00106828
5.08187e-05
6.99518e-06
4.22675e-06
2.62679e-06
1.79831e-06
1.33053e-06
1.0649e-06
9.29266e-07
8.52203e-07
7.93852e-07
7.60126e-07
6.89723e-07
6.4478e-07
6.68878e-07
6.38277e-07
6.47278e-07
5.9099e-07
5.63198e-07
5.13997e-07
5.30048e-07
4.83826e-07
1
1
1
1
1
1
1
1
1
1
1
1
1
1
1
1
1
1
1
1
1
0.999999
0.999999
0.999998
0.999999
0.965657
0.393596
0.0174647
0.00055648
2.54972e-05
6.585e-06
3.95326e-06
2.58602e-06
1.94326e-06
1.54606e-06
1.28197e-06
1.16981e-06
1.13479e-06
1.07447e-06
1.08676e-06
9.47563e-07
8.36305e-07
8.96415e-07
8.41986e-07
9.01336e-07
8.12886e-07
7.52215e-07
6.60469e-07
7.10559e-07
6.85102e-07
1
1
1
1
1
1
1
1
1
1
1
1
1
1
1
1
1
1
1
1
1
0.999999
0.999999
0.999998
0.999999
0.968067
0.386686
0.0161142
0.000488743
2.17206e-05
6.344e-06
3.85399e-06
2.79852e-06
2.22714e-06
1.85194e-06
1.50223e-06
1.34293e-06
1.38033e-06
1.27611e-06
1.34909e-06
1.15559e-06
9.80013e-07
1.00364e-06
8.78407e-07
1.10824e-06
9.19517e-07
7.9862e-07
5.06553e-07
8.90894e-07
7.66906e-07
1
1
1
1
1
1
1
1
1
1
1
1
1
1
1
1
1
1
1
1
1
1
0.999999
0.999998
0.999998
0.999921
0.58386
0.0495933
0.001117
2.75227e-05
7.18202e-06
3.96797e-06
3.23676e-06
2.41565e-06
2.10418e-06
1.7567e-06
1.46445e-06
1.58521e-06
1.31665e-06
1.45085e-06
1.14016e-06
9.21e-07
1.03764e-06
5.60757e-07
1.5503e-06
7.19321e-07
6.2483e-07
5.03925e-07
5.19657e-07
4.03585e-07
1
1
1
1
1
1
1
1
1
1
1
1
1
1
1
1
1
1
1
1
1
1
0.999999
0.999998
0.999996
0.999994
0.897378
0.331849
0.0332553
0.00153187
3.80663e-05
4.02682e-06
3.58693e-06
2.2734e-06
2.13926e-06
2.00413e-06
1.50961e-06
1.74559e-06
1.20328e-06
1.50886e-06
7.41769e-07
5.8164e-07
1.16451e-06
5.54281e-07
3.89489e-07
4.00416e-07
3.93801e-07
3.7158e-07
3.15851e-07
2.63323e-07
1
1
1
1
1
1
1
1
1
1
1
1
1
1
1
1
1
1
1
1
1
1
1
0.999999
0.999998
0.999996
0.999994
0.903903
0.39053
0.0703259
0.00728414
0.000189885
2.27394e-05
2.09026e-06
2.08281e-06
2.0747e-06
1.35144e-06
1.15598e-06
1.21323e-06
7.05136e-07
6.27049e-07
5.78418e-07
4.15103e-07
3.71785e-07
3.37021e-07
3.04239e-07
2.64584e-07
2.2026e-07
1.73124e-07
1.32368e-07
1
1
1
1
1
1
1
1
1
1
1
1
1
1
1
1
1
1
1
1
1
1
1
1
0.999999
0.999998
0.999996
0.999999
0.974479
0.557213
0.191594
0.0243121
0.00315909
0.000134357
5.84017e-05
2.19687e-06
1.53695e-06
1.1636e-06
1.70002e-06
6.34946e-07
5.01973e-07
4.68863e-07
3.72787e-07
2.51169e-07
2.3363e-07
2.02871e-07
1.5155e-07
9.80725e-08
4.94439e-08
1.93267e-08
1
1
1
1
1
1
1
1
1
1
1
1
1
1
1
1
1
1
1
1
1
1
1
1
1
1
1
1
1
0.999995
0.906569
0.399268
0.134344
0.0194612
0.00541405
0.000491987
0.000223442
1.37971e-05
3.79782e-06
7.27988e-07
5.39721e-07
7.20577e-07
4.36219e-07
2.24217e-07
1.97892e-07
1.62683e-07
1.13689e-07
7.29565e-08
4.19696e-08
1.19043e-08
1
1
1
1
1
1
1
1
1
1
1
1
1
1
1
1
1
1
1
1
1
1
1
1
1
1
1
1
1
1
1
0.999993
0.881778
0.37824
0.158335
0.0409104
0.0170734
0.00282362
0.00127535
0.000135306
5.0296e-05
2.25914e-06
1.0056e-06
2.11676e-07
1.94751e-07
1.86996e-07
1.45192e-07
1.13284e-07
9.6429e-08
3.07993e-08
1
1
1
1
1
1
1
1
1
1
1
1
1
1
1
1
1
1
1
1
1
1
1
1
1
1
1
1
1
1
1
1
1
0.999995
0.915922
0.516774
0.294074
0.124709
0.0608868
0.0168581
0.00742786
0.000883271
0.000399034
2.39508e-05
8.47321e-06
2.44803e-07
2.02679e-07
1.62542e-07
2.48781e-07
8.98135e-08
1
1
1
1
1
1
1
1
1
1
1
1
1
1
1
1
1
1
1
1
1
1
1
1
1
1
1
1
1
1
1
1
1
1
1
0.999997
0.958382
0.74804
0.505545
0.325244
0.196514
0.0659014
0.0305897
0.00461895
0.00217453
8.99944e-05
4.90957e-05
2.56655e-06
6.54741e-07
2.4539e-07
1
1
1
1
1
1
1
1
1
1
1
1
1
1
1
1
1
1
1
1
1
1
1
1
1
1
1
1
1
1
1
1
1
1
1
1
1
0.999708
0.985656
0.962034
0.862663
0.703673
0.470113
0.208115
0.109766
0.0169603
0.00721887
0.000776124
0.000381622
5.31887e-07
1
1
1
1
1
1
1
1
1
1
1
1
1
1
1
1
1
1
1
1
1
1
1
1
1
1
1
1
1
1
1
1
1
1
0.999999
0.999999
0.999999
0.999999
1
1
0.999999
0.994966
0.984716
0.971856
0.899602
0.580663
0.224228
0.0551722
0.0349762
0.000231703
1
1
1
1
1
1
1
1
1
1
1
1
1
1
1
1
1
1
1
1
1
1
1
1
1
1
1
1
1
1
1
1
1
1
0.999999
0.999999
0.999998
0.999997
0.999994
0.999988
0.999915
0.999772
0.9995
0.99839
0.994772
0.984138
0.960745
0.884401
0.919926
0.191239
3.04023e-09
2.51942e-09
2.07951e-09
1.70223e-09
1.38358e-09
1.11455e-09
8.92312e-10
7.09381e-10
5.60578e-10
4.4015e-10
3.42917e-10
2.64291e-10
2.01795e-10
1.52543e-10
1.13922e-10
8.40544e-11
6.12425e-11
4.40141e-11
3.11706e-11
2.17238e-11
1.48844e-11
1.00135e-11
6.60777e-12
4.27084e-12
2.70084e-12
1.66872e-12
1.00609e-12
5.90934e-13
3.37639e-13
1.87385e-13
1.00846e-13
5.25299e-14
2.6428e-14
1.28128e-14
5.97187e-15
2.66928e-15
1.14135e-15
4.65705e-16
1.80891e-16
6.67269e-17
2.33215e-17
7.70563e-18
2.40162e-18
7.04575e-19
1.94171e-19
5.01657e-20
1.21271e-20
2.73811e-21
5.77382e-22
1.16732e-22
8.47519e-09
7.23976e-09
6.17797e-09
5.22519e-09
4.39649e-09
3.66115e-09
3.0322e-09
2.49143e-09
2.03725e-09
1.65841e-09
1.34276e-09
1.07526e-09
8.54001e-10
6.72864e-10
5.23984e-10
4.03459e-10
3.07146e-10
2.30913e-10
1.71271e-10
1.25134e-10
8.99644e-11
6.35573e-11
4.40797e-11
2.99651e-11
1.9946e-11
1.29813e-11
8.25097e-12
5.11314e-12
3.08478e-12
1.80917e-12
1.0298e-12
5.67852e-13
3.02704e-13
1.55629e-13
7.69802e-14
3.65389e-14
1.65988e-14
7.19779e-15
2.97163e-15
1.16511e-15
4.32762e-16
1.51921e-16
5.02906e-17
1.56641e-17
4.58098e-18
1.25535e-18
3.21712e-19
7.69585e-20
1.71721e-20
3.65498e-21
2.24725e-08
1.97079e-08
1.73579e-08
1.51152e-08
1.31618e-08
1.1317e-08
9.70282e-09
8.21794e-09
6.9321e-09
5.83263e-09
4.90125e-09
4.06961e-09
3.35385e-09
2.75067e-09
2.23043e-09
1.78941e-09
1.42126e-09
1.11638e-09
8.66477e-10
6.63292e-10
5.00219e-10
3.71034e-10
2.70429e-10
1.93342e-10
1.35456e-10
9.28565e-11
6.22173e-11
4.06798e-11
2.5916e-11
1.60641e-11
9.67307e-12
5.64833e-12
3.19174e-12
1.7413e-12
9.1485e-13
4.61615e-13
2.23072e-13
1.02948e-13
4.52471e-14
1.88878e-14
7.4689e-15
2.79081e-15
9.83032e-16
3.25672e-16
1.01258e-16
2.94852e-17
8.02496e-18
2.03756e-18
4.81996e-19
1.0796e-19
5.57289e-08
4.98347e-08
4.52134e-08
4.01926e-08
3.61727e-08
3.20418e-08
2.86223e-08
2.49119e-08
2.16106e-08
1.87139e-08
1.62991e-08
1.40064e-08
1.19339e-08
1.01706e-08
8.57342e-09
7.15241e-09
5.91514e-09
4.84541e-09
3.93019e-09
3.14969e-09
2.49097e-09
1.94005e-09
1.48654e-09
1.11829e-09
8.2503e-10
5.95969e-10
4.21112e-10
2.90614e-10
1.95588e-10
1.28194e-10
8.17049e-11
5.05542e-11
3.03067e-11
1.7563e-11
9.81345e-12
5.27213e-12
2.71521e-12
1.33646e-12
6.26806e-13
2.7929e-13
1.17895e-13
4.70206e-14
1.7674e-14
6.24587e-15
2.07055e-15
6.42516e-16
1.8625e-16
5.03356e-17
1.26613e-17
2.98891e-18
1.26871e-07
1.14396e-07
1.06919e-07
9.51555e-08
8.79222e-08
7.94235e-08
7.55953e-08
6.72024e-08
5.98302e-08
5.30372e-08
4.78004e-08
4.25042e-08
3.72585e-08
3.29019e-08
2.87862e-08
2.49182e-08
2.14073e-08
1.82353e-08
1.54238e-08
1.29201e-08
1.07103e-08
8.76016e-09
7.06394e-09
5.59998e-09
4.35758e-09
3.32213e-09
2.4789e-09
1.80787e-09
1.2869e-09
8.92952e-10
6.03144e-10
3.95968e-10
2.52208e-10
1.55519e-10
9.26057e-11
5.30992e-11
2.92273e-11
1.53932e-11
7.73178e-12
3.69179e-12
1.67051e-12
7.14238e-13
2.87755e-13
1.08963e-13
3.86879e-14
1.2851e-14
3.98524e-15
1.15147e-15
3.09387e-16
7.73618e-17
2.58878e-07
2.318e-07
2.24986e-07
1.94119e-07
1.79911e-07
1.59096e-07
1.71319e-07
1.52827e-07
1.39443e-07
1.26049e-07
1.17026e-07
1.08188e-07
9.72047e-08
8.84175e-08
8.01845e-08
7.18928e-08
6.4098e-08
5.6537e-08
4.97061e-08
4.33682e-08
3.76304e-08
3.22889e-08
2.74382e-08
2.29932e-08
1.89411e-08
1.52993e-08
1.20986e-08
9.35469e-09
7.06389e-09
5.20357e-09
3.73515e-09
2.60916e-09
1.77093e-09
1.16568e-09
7.42373e-10
4.56173e-10
2.69609e-10
1.52738e-10
8.26443e-11
4.25566e-11
2.07822e-11
9.59297e-12
4.1727e-12
1.70552e-12
6.53343e-13
2.34011e-13
7.81944e-14
2.43252e-14
7.03111e-15
1.88477e-15
4.58069e-07
4.06191e-07
4.10917e-07
3.41657e-07
3.00431e-07
2.38142e-07
3.14532e-07
2.73209e-07
2.5192e-07
2.3385e-07
2.21114e-07
2.14941e-07
1.98707e-07
1.8424e-07
1.7312e-07
1.60353e-07
1.49236e-07
1.35308e-07
1.23205e-07
1.11223e-07
1.00872e-07
9.00375e-08
8.04662e-08
7.15112e-08
6.26909e-08
5.39486e-08
4.54457e-08
3.74069e-08
3.00531e-08
2.35509e-08
1.79901e-08
1.33848e-08
9.68845e-09
6.81229e-09
4.64361e-09
3.06083e-09
1.94498e-09
1.18728e-09
6.93563e-10
3.86177e-10
2.04147e-10
1.02077e-10
4.81091e-11
2.13045e-11
8.83942e-12
3.42745e-12
1.23909e-12
4.16772e-13
1.30165e-13
3.76759e-14
6.62583e-07
5.97309e-07
6.3281e-07
4.9948e-07
4.09791e-07
2.43572e-07
6.03541e-07
3.37862e-07
3.17406e-07
2.99834e-07
2.89472e-07
3.1102e-07
2.84667e-07
2.65738e-07
2.63452e-07
2.48605e-07
2.51066e-07
2.25423e-07
2.12415e-07
1.96443e-07
1.91948e-07
1.7138e-07
1.58968e-07
1.50717e-07
1.42246e-07
1.3186e-07
1.19452e-07
1.05433e-07
9.05712e-08
7.57256e-08
6.16485e-08
4.88808e-08
3.77387e-08
2.83464e-08
2.06831e-08
1.46281e-08
9.99918e-09
6.58274e-09
4.15671e-09
2.5066e-09
1.43704e-09
7.7986e-10
3.99011e-10
1.91778e-10
8.63098e-11
3.62697e-11
1.41959e-11
5.16354e-12
1.74188e-12
5.43965e-13
7.83141e-07
6.63648e-07
9.40203e-07
4.36858e-07
3.81817e-07
3.18398e-07
3.18559e-07
5.53843e-07
2.71992e-07
2.4738e-07
2.48043e-07
4.74367e-07
2.28107e-07
2.11495e-07
4.5265e-07
2.35257e-07
4.04785e-07
1.99866e-07
2.45259e-07
1.68552e-07
4.18011e-07
1.87619e-07
1.80283e-07
1.89935e-07
2.01305e-07
2.07115e-07
2.05992e-07
1.96956e-07
1.81561e-07
1.61923e-07
1.40152e-07
1.18017e-07
9.68236e-08
7.74224e-08
6.02965e-08
4.56562e-08
3.352e-08
2.37748e-08
1.62188e-08
1.05889e-08
6.5821e-09
3.87574e-09
2.15163e-09
1.12141e-09
5.46674e-10
2.48469e-10
1.05001e-10
4.11561e-11
1.493e-11
5.00272e-12
9.92986e-07
4.29796e-07
3.21698e-07
2.85621e-07
2.59751e-07
1.33589e-07
4.16124e-07
1.97246e-07
1.83826e-07
9.3407e-08
3.19436e-07
1.55964e-07
9.5047e-08
2.04073e-07
1.85591e-07
1.71547e-07
1.51411e-07
1.55814e-07
1.27667e-07
1.54732e-07
1.72915e-07
1.87525e-07
1.92312e-07
1.97128e-07
2.12932e-07
2.30024e-07
2.56906e-07
2.56994e-07
2.44944e-07
2.25031e-07
2.00911e-07
1.75207e-07
1.49663e-07
1.25362e-07
1.02916e-07
8.26457e-08
6.47034e-08
4.9159e-08
3.60422e-08
2.53427e-08
1.69786e-08
1.07736e-08
6.43908e-09
3.6069e-09
1.88546e-09
9.16329e-10
4.12688e-10
1.71739e-10
6.58623e-11
2.32182e-11
1.90374e-07
1.75913e-07
1.61129e-07
1.47997e-07
1.36363e-07
1.25989e-07
9.47572e-08
9.02534e-08
8.64101e-08
8.33715e-08
7.05582e-08
7.05884e-08
7.10203e-08
6.66467e-08
6.73487e-08
6.96001e-08
7.27816e-08
7.71934e-08
8.32442e-08
8.95819e-08
9.82727e-08
1.07348e-07
1.1981e-07
1.24941e-07
1.92873e-07
1.43583e-07
5.66213e-07
2.68822e-07
2.12572e-07
1.68305e-07
1.36816e-07
1.13738e-07
9.58658e-08
8.13432e-08
6.90098e-08
5.80338e-08
4.78448e-08
3.8166e-08
2.90543e-08
2.08372e-08
1.39298e-08
8.60479e-09
4.88042e-09
2.5296e-09
1.19381e-09
5.11394e-10
1.98266e-10
6.93657e-11
2.18333e-11
6.16291e-12
1.03848e-07
8.36824e-08
6.93135e-08
5.87931e-08
5.09797e-08
4.5193e-08
4.10136e-08
3.81628e-08
3.64272e-08
3.5615e-08
3.55512e-08
3.60974e-08
3.71694e-08
3.87451e-08
4.08676e-08
4.36118e-08
4.70589e-08
5.13275e-08
5.66978e-08
6.344e-08
7.12826e-08
8.25402e-08
1.00364e-07
1.22471e-07
1.31803e-07
1.34624e-07
1.17797e-07
1.08319e-07
9.50764e-08
8.3162e-08
7.28459e-08
6.28989e-08
5.26813e-08
4.19592e-08
3.13374e-08
2.18175e-08
1.41726e-08
8.65016e-09
5.00914e-09
2.79043e-09
1.50539e-09
7.82953e-10
3.87825e-10
1.80308e-10
7.76883e-11
3.07219e-11
1.10713e-11
3.61537e-12
1.06495e-12
2.85925e-13
1.2009e-08
8.08148e-09
6.73661e-09
6.08471e-09
5.94817e-09
6.30417e-09
7.18541e-09
8.58405e-09
1.03731e-08
1.23127e-08
1.4179e-08
1.59192e-08
1.76892e-08
1.98169e-08
2.27619e-08
2.68505e-08
3.1946e-08
3.75287e-08
4.36358e-08
4.99593e-08
5.60027e-08
5.80723e-08
5.51961e-08
4.40166e-08
3.03893e-08
1.97566e-08
1.42328e-08
1.24383e-08
1.20139e-08
1.13554e-08
1.02232e-08
8.70102e-09
6.97693e-09
5.24725e-09
3.68577e-09
2.41227e-09
1.47206e-09
8.41389e-10
4.54046e-10
2.33534e-10
1.15344e-10
5.47659e-11
2.48386e-11
1.06406e-11
4.25387e-12
1.57053e-12
5.31101e-13
1.63425e-13
4.55977e-14
1.17646e-14
4.6585e-09
8.412e-10
6.23172e-10
8.01135e-10
1.31149e-09
2.16589e-09
3.32223e-09
4.56971e-09
5.53688e-09
5.87691e-09
5.51635e-09
4.73624e-09
3.99189e-09
3.6308e-09
3.73346e-09
4.14709e-09
4.62581e-09
4.96097e-09
5.04311e-09
4.86078e-09
4.46849e-09
3.95132e-09
3.39761e-09
2.88025e-09
2.45312e-09
2.14732e-09
1.90887e-09
1.7289e-09
1.55948e-09
1.36355e-09
1.13848e-09
9.00824e-10
6.72432e-10
4.71711e-10
3.09944e-10
1.9036e-10
1.09293e-10
5.88322e-11
2.98684e-11
1.44107e-11
6.65083e-12
2.94246e-12
1.24287e-12
4.96725e-13
1.85819e-13
6.44201e-14
2.05299e-14
5.9763e-15
1.58498e-15
3.86823e-16
1.41256e-08
1.36415e-09
4.9898e-10
2.09702e-10
1.41756e-10
1.50321e-10
1.89897e-10
2.46251e-10
3.13299e-10
3.86091e-10
4.59033e-10
5.25963e-10
5.8099e-10
6.19436e-10
6.38537e-10
6.37713e-10
6.18434e-10
5.83829e-10
5.38141e-10
4.86128e-10
4.32451e-10
3.8104e-10
3.35538e-10
2.97325e-10
2.63248e-10
2.31248e-10
2.01859e-10
1.74077e-10
1.46417e-10
1.18639e-10
9.18001e-11
6.74403e-11
4.68408e-11
3.0648e-11
1.88343e-11
1.08496e-11
5.85719e-12
2.96934e-12
1.42003e-12
6.44627e-13
2.79386e-13
1.15889e-13
4.58735e-14
1.71956e-14
6.0435e-15
1.97264e-15
5.93414e-16
1.63566e-16
4.11527e-17
9.32655e-18
5.31159e-08
3.73215e-09
1.29327e-09
4.40962e-10
1.68884e-10
8.58238e-11
6.37136e-11
6.18566e-11
6.65254e-11
7.23872e-11
7.72785e-11
8.03815e-11
8.15126e-11
8.07068e-11
7.81447e-11
7.41126e-11
6.89696e-11
6.31078e-11
5.69101e-11
5.08063e-11
4.50236e-11
3.97373e-11
3.44543e-11
2.94595e-11
2.48936e-11
2.07865e-11
1.709e-11
1.37357e-11
1.06963e-11
8.00574e-12
5.72323e-12
3.88958e-12
2.50338e-12
1.52078e-12
8.69575e-13
4.67107e-13
2.356e-13
1.1174e-13
5.00126e-14
2.12359e-14
8.59948e-15
3.33019e-15
1.2309e-15
4.31331e-16
1.41947e-16
4.34612e-17
1.22877e-17
3.19e-18
7.551e-19
1.56685e-19
2.0803e-07
1.1469e-08
3.98038e-09
1.42785e-09
5.35522e-10
2.14868e-10
9.12638e-11
3.92855e-11
1.79093e-11
1.04205e-11
8.7234e-12
8.07515e-12
7.66869e-12
7.25332e-12
6.7859e-12
6.27336e-12
5.73242e-12
5.1893e-12
4.66847e-12
4.10497e-12
3.52111e-12
2.95739e-12
2.43838e-12
1.97778e-12
1.57853e-12
1.2372e-12
9.48027e-13
7.05897e-13
5.07408e-13
3.5004e-13
2.30628e-13
1.44543e-13
8.58758e-14
4.82153e-14
2.55148e-14
1.27022e-14
5.94501e-15
2.61845e-15
1.08848e-15
4.28987e-16
1.61071e-16
5.77868e-17
1.9788e-17
6.43007e-18
1.96501e-18
5.59423e-19
1.47228e-19
3.55981e-20
7.81254e-21
1.45422e-21
9.08676e-07
4.21225e-08
1.48463e-08
6.05412e-09
2.6491e-09
1.26729e-09
6.69325e-10
3.50708e-10
1.59148e-10
4.74343e-11
1.92526e-11
7.00837e-12
2.72169e-12
1.17817e-12
6.12414e-13
4.01739e-13
3.15911e-13
2.658e-13
2.23493e-13
1.84026e-13
1.47838e-13
1.16019e-13
8.9121e-14
6.70849e-14
4.94511e-14
3.56013e-14
2.49209e-14
1.68696e-14
1.09818e-14
6.84032e-15
4.05909e-15
2.28604e-15
1.21772e-15
6.11561e-16
2.88752e-16
1.27884e-16
5.30572e-17
2.06217e-17
7.5212e-18
2.58239e-18
8.37843e-19
2.57485e-19
7.48583e-20
2.04571e-20
5.19688e-21
1.21042e-21
2.54695e-22
4.75955e-23
7.64209e-24
9.39027e-25
0.000189394
2.14526e-07
7.43441e-08
3.50782e-08
1.81002e-08
9.95569e-09
6.6401e-09
4.93838e-09
3.5299e-09
1.10483e-09
6.00603e-10
2.5692e-10
1.10894e-10
4.6964e-11
1.86039e-11
6.60568e-12
2.08475e-12
5.87999e-13
1.47887e-13
3.2877e-14
6.40879e-15
1.08074e-15
1.54806e-16
1.87922e-17
1.87991e-18
1.48798e-19
8.80606e-21
3.60951e-22
9.60259e-24
1.93605e-25
9.86296e-27
1.54044e-27
2.47597e-28
3.54078e-29
4.63951e-30
5.77835e-31
6.44221e-32
5.73738e-33
3.30372e-34
7.80483e-36
3.16091e-38
1.40917e-41
1.4226e-69
6.11954e-72
2.59378e-74
1.0725e-76
4.27899e-79
1.63645e-81
5.98267e-84
2.00916e-86
0.0070332
1.69072e-05
1.87535e-06
7.2404e-07
3.40919e-07
1.36774e-07
6.86835e-08
5.53924e-08
9.15757e-08
1.81181e-08
1.2457e-08
5.18759e-09
2.22838e-09
9.70948e-10
4.03888e-10
1.49795e-10
4.88616e-11
1.41668e-11
3.6527e-12
8.2983e-13
1.64959e-13
2.83161e-14
4.10905e-15
5.0475e-16
5.10367e-17
4.07634e-18
2.42802e-19
9.9631e-21
2.60554e-22
4.30659e-24
5.39849e-26
1.09088e-27
1.77172e-29
2.13678e-31
1.80274e-33
9.88822e-36
3.09377e-38
4.41833e-41
1.59204e-44
3.63694e-50
1.70745e-63
7.43453e-66
3.17999e-68
1.34327e-70
5.58981e-73
2.26885e-75
8.88422e-78
3.33407e-80
1.19603e-82
3.95552e-85
2.70118e-23
7.99709e-24
2.26609e-24
6.12869e-25
1.5789e-25
3.86833e-26
8.99934e-27
1.98512e-27
4.14612e-28
8.18794e-29
1.52682e-29
2.68464e-30
4.4449e-31
6.92002e-32
1.01158e-32
1.38646e-33
1.77898e-34
2.13362e-35
2.38806e-36
2.49014e-37
2.41486e-38
2.174e-39
1.81346e-40
1.3989e-41
9.95898e-43
6.53047e-44
3.93666e-45
2.17633e-46
1.10069e-47
5.07307e-49
2.11959e-50
7.98706e-52
2.70046e-53
8.14434e-55
2.17619e-56
5.11102e-58
1.0452e-59
1.84014e-61
2.75081e-63
3.43262e-65
3.50306e-67
2.86691e-69
1.87939e-71
9.85369e-74
3.72215e-76
9.05173e-79
1.15113e-81
3.62413e-85
2.93737e-95
4.52648e-227
1.04504e-229
2.35167e-232
5.16607e-235
1.10953e-237
2.33286e-240
4.80672e-243
9.71097e-246
1.9238e-248
3.73561e-251
7.1043e-254
1.32183e-256
2.40332e-259
4.26639e-262
7.38773e-265
1.24617e-267
2.04603e-270
3.26768e-273
5.07381e-276
7.65617e-279
1.12231e-281
1.59771e-284
2.20821e-287
2.96216e-290
3.85556e-293
4.86804e-296
5.96068e-299
7.07622e-302
8.14265e-305
9.08015e-308
9.81111e-311
1.08719e-313
0
0
0
0
0
0
0
0
0
0
0
0
0
0
0
0
0
0
0
0
0
0
0
0
0
0
0
0
0
0
0
0
0
0
0
0
0
0
0
0
0
0
0
0
0
0
0
0
0
0
0
0
0
0
0
0
0
0
0
0
0
0
0
0
0
0
0
0
0
0
0
0
0
0
0
0
0
0
0
0
0
0
0
0
0
0
0
0
0
0
0
0
0
0
0
0
0
0
0
0
0
0
0
0
0
0
0
0
0
0
0
0
0
0
0
0
0
0
0
0
0
0
0
0
0
0
0
0
0
0
0
0
0
0
0
0
0
0
0
0
0
0
0
0
0
0
0
0
0
0
0
0
0
0
0
0
0
0
0
0
0
0
0
0
0
0
0
0
0
0
0
0
0
0
0
0
0
0
0
0
0
0
0
0
0
0
0
0
0
0
0
0
0
0
0
0
0
0
0
0
0
0
0
0
0
0
0
0
0
0
0
0
0
0
0
0
0
0
0
9.53768e-22
2.93751e-22
8.65831e-23
2.43532e-23
6.5236e-24
1.66151e-24
4.01732e-25
9.20779e-26
1.99778e-26
4.09742e-27
7.93317e-28
1.44797e-28
2.48798e-29
4.01884e-30
6.09402e-31
8.66208e-32
1.1524e-32
1.43277e-33
1.66204e-34
1.79583e-35
1.8042e-36
1.68229e-37
1.45302e-38
1.1602e-39
8.54616e-41
5.79568e-42
3.61153e-43
2.06343e-44
1.07896e-45
5.1481e-47
2.22923e-48
8.70986e-50
3.05453e-51
9.55982e-53
2.65238e-54
6.4732e-56
1.37687e-57
2.52438e-59
3.93581e-61
5.13175e-63
5.48097e-65
4.68769e-67
3.1849e-69
1.75001e-71
7.05768e-74
1.85695e-76
2.62863e-79
1.03637e-82
8.04686e-92
6.3693e-226
1.45794e-228
3.25342e-231
7.08856e-234
1.51026e-236
3.15064e-239
6.44223e-242
1.29185e-244
2.54069e-247
4.8987e-250
9.25232e-253
1.71001e-255
3.08897e-258
5.44909e-261
9.3782e-264
1.57258e-266
2.56719e-269
4.07735e-272
6.29718e-275
9.45317e-278
1.37884e-280
1.95349e-283
2.68747e-286
3.58908e-289
4.65164e-292
5.84917e-295
7.13396e-298
8.43732e-301
9.67408e-304
1.0751e-306
1.15779e-309
1.20068e-312
0
0
0
0
0
0
0
0
0
0
0
0
0
0
0
0
0
0
0
0
0
0
0
0
0
0
0
0
0
0
0
0
0
0
0
0
0
0
0
0
0
0
0
0
0
0
0
0
0
0
0
0
0
0
0
0
0
0
0
0
0
0
0
0
0
0
0
0
0
0
0
0
0
0
0
0
0
0
0
0
0
0
0
0
0
0
0
0
0
0
0
0
0
0
0
0
0
0
0
0
0
0
0
0
0
0
0
0
0
0
0
0
0
0
0
0
0
0
0
0
0
0
0
0
0
0
0
0
0
0
0
0
0
0
0
0
0
0
0
0
0
0
0
0
0
0
0
0
0
0
0
0
0
0
0
0
0
0
0
0
0
0
0
0
0
0
0
0
0
0
0
0
0
0
0
0
0
0
0
0
0
0
0
0
0
0
0
0
0
0
0
0
0
0
0
0
0
0
0
0
0
0
0
0
0
0
0
0
0
0
0
0
0
0
0
0
0
0
0
3.16209e-20
1.01457e-20
3.11492e-21
9.12437e-22
2.54494e-22
6.74741e-23
1.6979e-23
4.04915e-24
9.13865e-25
1.94922e-25
3.92378e-26
7.44414e-27
1.32921e-27
2.23066e-28
3.51336e-29
5.18597e-30
7.16321e-31
9.24457e-32
1.11294e-32
1.24776e-33
1.30047e-34
1.25769e-35
1.12643e-36
9.32391e-38
7.11723e-39
4.99918e-40
3.22444e-41
1.90564e-42
1.03047e-43
5.08984e-45
2.28578e-46
9.26986e-48
3.37552e-49
1.09743e-50
3.16476e-52
8.03367e-54
1.77902e-55
3.39968e-57
5.53309e-59
7.54517e-61
8.44548e-63
7.57109e-65
5.34621e-67
3.06184e-69
1.31783e-71
3.74774e-74
5.88607e-77
2.86211e-80
1.9081e-88
8.1664e-225
1.85224e-227
4.09643e-230
8.84754e-233
1.86899e-235
3.86669e-238
7.84251e-241
1.56029e-243
3.0452e-246
5.8279e-249
1.09282e-251
2.00567e-254
3.59861e-257
6.30673e-260
1.07859e-262
1.79765e-265
2.91745e-268
4.60758e-271
7.07761e-274
1.05696e-276
1.53402e-279
2.16303e-282
2.96224e-285
3.93892e-288
5.08405e-291
6.36792e-294
7.73792e-297
9.11959e-300
1.04218e-302
1.1546e-305
1.23978e-308
1.28895e-311
0
0
0
0
0
0
0
0
0
0
0
0
0
0
0
0
0
0
0
0
0
0
0
0
0
0
0
0
0
0
0
0
0
0
0
0
0
0
0
0
0
0
0
0
0
0
0
0
0
0
0
0
0
0
0
0
0
0
0
0
0
0
0
0
0
0
0
0
0
0
0
0
0
0
0
0
0
0
0
0
0
0
0
0
0
0
0
0
0
0
0
0
0
0
0
0
0
0
0
0
0
0
0
0
0
0
0
0
0
0
0
0
0
0
0
0
0
0
0
0
0
0
0
0
0
0
0
0
0
0
0
0
0
0
0
0
0
0
0
0
0
0
0
0
0
0
0
0
0
0
0
0
0
0
0
0
0
0
0
0
0
0
0
0
0
0
0
0
0
0
0
0
0
0
0
0
0
0
0
0
0
0
0
0
0
0
0
0
0
0
0
0
0
0
0
0
0
0
0
0
0
0
0
0
0
0
0
0
0
0
0
0
0
0
0
0
0
0
0
9.74876e-19
3.26556e-19
1.04652e-19
3.19921e-20
9.31023e-21
2.5749e-21
6.75721e-22
1.68013e-22
3.95247e-23
8.78498e-24
1.84231e-24
3.64029e-25
6.76809e-26
1.18236e-26
1.93809e-27
2.97654e-28
4.27685e-29
5.74042e-30
7.18586e-31
8.3754e-32
9.07323e-33
9.1189e-34
8.4858e-35
7.29632e-36
5.78374e-37
4.21697e-38
2.82142e-39
1.72816e-40
9.67482e-42
4.94722e-43
2.30507e-44
9.71741e-46
3.6796e-47
1.24451e-48
3.73558e-50
9.87698e-52
2.28015e-53
4.54763e-55
7.73588e-57
1.10465e-58
1.29774e-60
1.22295e-62
9.02045e-65
5.35301e-67
2.4579e-69
7.55234e-72
1.31323e-74
7.77511e-78
3.93704e-85
9.41885e-224
2.1158e-226
4.63549e-229
9.92039e-232
2.07699e-234
4.25986e-237
8.5674e-240
1.69062e-242
3.27352e-245
6.21703e-248
1.15718e-250
2.10869e-253
3.75752e-256
6.5418e-259
1.11171e-261
1.8416e-264
2.97144e-267
4.66683e-270
7.13077e-273
1.05955e-275
1.53046e-278
2.14829e-281
2.92954e-284
3.87987e-287
4.98907e-290
6.22709e-293
7.54216e-296
8.86209e-299
1.00995e-301
1.11604e-304
1.19561e-307
1.24157e-310
1.44524e-313
0
0
0
0
0
0
0
0
0
0
0
0
0
0
0
0
0
0
0
0
0
0
0
0
0
0
0
0
0
0
0
0
0
0
0
0
0
0
0
0
0
0
0
0
0
0
0
0
0
0
0
0
0
0
0
0
0
0
0
0
0
0
0
0
0
0
0
0
0
0
0
0
0
0
0
0
0
0
0
0
0
0
0
0
0
0
0
0
0
0
0
0
0
0
0
0
0
0
0
0
0
0
0
0
0
0
0
0
0
0
0
0
0
0
0
0
0
0
0
0
0
0
0
0
0
0
0
0
0
0
0
0
0
0
0
0
0
0
0
0
0
0
0
0
0
0
0
0
0
0
0
0
0
0
0
0
0
0
0
0
0
0
0
0
0
0
0
0
0
0
0
0
0
0
0
0
0
0
0
0
0
0
0
0
0
0
0
0
0
0
0
0
0
0
0
0
0
0
0
0
0
0
0
0
0
0
0
0
0
0
0
0
0
0
0
0
0
0
2.77186e-17
9.72378e-18
3.26276e-18
1.0441e-18
3.17996e-19
9.20173e-20
2.52585e-20
6.5674e-21
1.61513e-21
3.75181e-22
8.22049e-23
1.69661e-23
3.2938e-24
6.00679e-25
1.02756e-25
1.64655e-26
2.46776e-27
3.45407e-28
4.50791e-29
5.47666e-30
6.18297e-31
6.47468e-32
6.27663e-33
5.62097e-34
4.63973e-35
3.52148e-36
2.45136e-37
1.56093e-38
9.07107e-40
4.80649e-41
2.32244e-42
1.0196e-43
4.02296e-45
1.4183e-46
4.43981e-48
1.22502e-49
2.95361e-51
6.15903e-53
1.09694e-54
1.64301e-56
2.02947e-58
2.01588e-60
1.56297e-62
9.56908e-65
4.68139e-67
1.5547e-69
2.9901e-72
2.13281e-75
7.13602e-82
9.54737e-223
2.12291e-225
4.60514e-228
9.76081e-231
2.02453e-233
4.11473e-236
8.2031e-239
1.60504e-241
3.08249e-244
5.80825e-247
1.07294e-249
1.94102e-252
3.4348e-255
5.94043e-258
1.00316e-260
1.65185e-263
2.65017e-266
4.14002e-269
6.294e-272
9.30813e-275
1.33859e-277
1.87129e-280
2.54218e-283
3.35519e-286
4.30078e-289
5.35269e-292
6.46656e-295
7.58113e-298
8.62269e-301
9.51256e-304
1.01766e-306
1.05553e-309
1.06231e-312
0
0
0
0
0
0
0
0
0
0
0
0
0
0
0
0
0
0
0
0
0
0
0
0
0
0
0
0
0
0
0
0
0
0
0
0
0
0
0
0
0
0
0
0
0
0
0
0
0
0
0
0
0
0
0
0
0
0
0
0
0
0
0
0
0
0
0
0
0
0
0
0
0
0
0
0
0
0
0
0
0
0
0
0
0
0
0
0
0
0
0
0
0
0
0
0
0
0
0
0
0
0
0
0
0
0
0
0
0
0
0
0
0
0
0
0
0
0
0
0
0
0
0
0
0
0
0
0
0
0
0
0
0
0
0
0
0
0
0
0
0
0
0
0
0
0
0
0
0
0
0
0
0
0
0
0
0
0
0
0
0
0
0
0
0
0
0
0
0
0
0
0
0
0
0
0
0
0
0
0
0
0
0
0
0
0
0
0
0
0
0
0
0
0
0
0
0
0
0
0
0
0
0
0
0
0
0
0
0
0
0
0
0
0
0
0
0
0
7.24147e-16
2.67362e-16
9.43836e-17
3.17672e-17
1.01731e-17
3.09432e-18
8.9254e-19
2.43777e-19
6.29561e-20
1.53516e-20
3.52969e-21
7.64178e-22
1.55572e-22
2.97402e-23
5.33125e-24
8.94884e-25
1.4045e-25
2.05799e-26
2.81091e-27
3.57291e-28
4.2191e-29
4.62005e-30
4.68228e-31
4.38275e-32
3.78039e-33
2.99759e-34
2.17926e-35
1.44846e-36
8.77566e-38
4.83466e-39
2.42079e-40
1.10819e-41
4.56839e-43
1.68325e-44
5.50914e-46
1.59018e-47
4.01386e-49
8.77116e-51
1.63921e-52
2.58083e-54
3.35882e-56
3.52562e-58
2.89089e-60
1.82744e-62
9.48419e-65
3.40735e-67
7.24644e-70
6.16783e-73
1.1619e-78
8.31533e-222
1.8298e-224
3.92939e-227
8.24746e-230
1.69455e-232
3.41283e-235
6.74442e-238
1.30858e-240
2.49296e-243
4.66143e-246
8.54809e-249
1.5357e-251
2.69974e-254
4.6403e-257
7.79063e-260
1.27589e-262
2.03669e-265
3.16685e-268
4.79395e-271
7.06215e-274
1.01204e-276
1.41036e-279
1.91073e-282
2.51581e-285
3.21838e-288
3.99901e-291
4.82505e-294
5.65154e-297
6.42444e-300
7.08599e-303
7.58169e-306
7.86756e-309
7.90887e-312
1.80966e-314
0
0
0
0
0
0
0
0
0
0
0
0
0
0
0
0
0
0
0
0
0
0
0
0
0
0
0
0
0
0
0
0
0
0
0
0
0
0
0
0
0
0
0
0
0
0
0
0
0
0
0
0
0
0
0
0
0
0
0
0
0
0
0
0
0
0
0
0
0
0
0
0
0
0
0
0
0
0
0
0
0
0
0
0
0
0
0
0
0
0
0
0
0
0
0
0
0
0
0
0
0
0
0
0
0
0
0
0
0
0
0
0
0
0
0
0
0
0
0
0
0
0
0
0
0
0
0
0
0
0
0
0
0
0
0
0
0
0
0
0
0
0
0
0
0
0
0
0
0
0
0
0
0
0
0
0
0
0
0
0
0
0
0
0
0
0
0
0
0
0
0
0
0
0
0
0
0
0
0
0
0
0
0
0
0
0
0
0
0
0
0
0
0
0
0
0
0
0
0
0
0
0
0
0
0
0
0
0
0
0
0
0
0
0
0
0
0
1.53993e-14
6.01978e-15
2.24612e-15
7.98447e-16
2.69942e-16
8.66575e-17
2.63753e-17
7.59997e-18
2.07034e-18
5.32466e-19
1.29115e-19
2.94789e-20
6.32881e-21
1.27592e-21
2.41232e-22
4.27124e-23
7.07256e-24
1.09364e-24
1.57689e-25
2.11679e-26
2.64117e-27
3.05781e-28
3.27884e-29
3.24998e-30
2.9715e-31
2.50046e-32
1.9317e-33
1.36635e-34
8.82262e-36
5.18344e-37
2.7608e-38
1.32759e-39
5.7371e-41
2.21629e-42
7.6073e-44
2.30381e-45
6.10499e-47
1.40176e-48
2.75583e-50
4.57168e-52
6.28282e-54
6.98473e-56
6.08462e-58
4.00946e-60
2.18515e-62
8.5006e-65
1.99824e-67
2.00906e-70
1.77109e-75
5.89496e-221
1.28326e-223
2.7272e-226
5.6672e-229
1.1533e-231
2.30157e-234
4.50888e-237
8.67624e-240
1.64003e-242
3.04413e-245
5.544e-248
9.89641e-251
1.7295e-253
2.95654e-256
4.93927e-259
8.0532e-262
1.28044e-264
1.98408e-267
2.99458e-270
4.40054e-273
6.2937e-276
8.75775e-279
1.1853e-281
1.55985e-284
1.99539e-287
2.48046e-290
2.99554e-293
3.51346e-296
4.00122e-299
4.42325e-302
4.74548e-305
4.93985e-308
4.98868e-311
6.80184e-314
0
0
0
0
0
0
0
0
0
0
0
0
0
0
0
0
0
0
0
0
0
0
0
0
0
0
0
0
0
0
0
0
0
0
0
0
0
0
0
0
0
0
0
0
0
0
0
0
0
0
0
0
0
0
0
0
0
0
0
0
0
0
0
0
0
0
0
0
0
0
0
0
0
0
0
0
0
0
0
0
0
0
0
0
0
0
0
0
0
0
0
0
0
0
0
0
0
0
0
0
0
0
0
0
0
0
0
0
0
0
0
0
0
0
0
0
0
0
0
0
0
0
0
0
0
0
0
0
0
0
0
0
0
0
0
0
0
0
0
0
0
0
0
0
0
0
0
0
0
0
0
0
0
0
0
0
0
0
0
0
0
0
0
0
0
0
0
0
0
0
0
0
0
0
0
0
0
0
0
0
0
0
0
0
0
0
0
0
0
0
0
0
0
0
0
0
0
0
0
0
0
0
0
0
0
0
0
0
0
0
0
0
0
0
0
0
0
2.362e-13
9.78714e-14
3.86418e-14
1.45162e-14
5.18118e-15
1.75457e-15
5.62967e-16
1.70913e-16
4.9031e-17
1.32738e-17
3.38673e-18
8.1333e-19
1.83607e-19
3.89124e-20
7.73199e-21
1.43855e-21
2.50265e-22
4.06549e-23
6.158e-24
8.6842e-25
1.13842e-25
1.38498e-26
1.56096e-27
1.62682e-28
1.56465e-29
1.38577e-30
1.12759e-31
8.40805e-33
5.72948e-34
3.55701e-35
2.0051e-36
1.02242e-37
4.69607e-39
1.93367e-40
7.0994e-42
2.30971e-43
6.61103e-45
1.65087e-46
3.56099e-48
6.55628e-50
1.0154e-51
1.29894e-53
1.34069e-55
1.08197e-57
6.52966e-60
2.74957e-62
7.12886e-65
8.36463e-68
2.76546e-72
3.27085e-220
7.04978e-223
1.48414e-225
3.05666e-228
6.16832e-231
1.22132e-233
2.37516e-236
4.53959e-239
8.528e-242
1.57405e-244
2.8523e-247
5.06903e-250
8.82478e-253
1.50372e-255
2.50558e-258
4.07704e-261
6.47342e-264
1.00229e-266
1.51252e-269
2.22365e-272
3.18363e-275
4.4374e-278
6.01926e-281
7.94387e-284