/*--------------------------------*- C++ -*----------------------------------*\
| =========                 |                                                 |
| \\      /  F ield         | OpenFOAM: The Open Source CFD Toolbox           |
|  \\    /   O peration     | Version:  2.4.0                                 |
|   \\  /    A nd           | Web:      www.OpenFOAM.org                      |
|    \\/     M anipulation  |                                                 |
\*---------------------------------------------------------------------------*/
FoamFile
{
    version     2.0;
    format      ascii;
    class       volScalarField;
    location    "0.4";
    object      p_rgh;
}
// * * * * * * * * * * * * * * * * * * * * * * * * * * * * * * * * * * * * * //

dimensions      [1 -1 -2 0 0 0 0];

internalField   nonuniform List<scalar> 
8000
(
80.0872
80.0801
80.0722
80.0645
80.057
80.0496
80.0422
80.0349
80.0275
80.0202
80.013
80.0058
79.9986
79.9914
79.9843
79.9772
79.9702
79.9632
79.9562
79.9492
79.9422
79.9352
79.9284
79.9224
79.9176
79.9096
79.8814
79.8217
74.3915
31.5824
2.50335
0.159871
0.0125858
0.00128503
0.000639515
0.000458043
0.000349079
0.000286974
0.000252319
0.000233525
0.000223819
0.000219117
0.000216971
0.000215967
0.000215346
0.000214787
0.000214214
0.000213633
0.000213056
0.000212489
81.4046
81.3974
81.3893
81.3816
81.374
81.3666
81.3592
81.3518
81.3445
81.3373
81.3301
81.323
81.3159
81.3088
81.3018
81.2949
81.288
81.2811
81.2743
81.2675
81.2607
81.2538
81.2478
81.2446
81.2429
81.2207
81.1262
80.8313
53.7885
7.5571
0.40704
0.0294316
0.00240651
0.000730198
0.000514009
0.000381798
0.000306822
0.000265451
0.000243024
0.000231279
0.000225437
0.00022269
0.000221405
0.000220685
0.000220117
0.000219564
0.000219011
0.000218464
0.000217936
0.000217428
82.7128
82.7055
82.6973
82.6895
82.6819
82.6744
82.667
82.6597
82.6524
82.6452
82.6381
82.6311
82.6241
82.6172
82.6103
82.6036
82.5969
82.5903
82.5837
82.5772
82.5707
82.5645
82.5594
82.5558
82.5476
82.5122
82.4374
73.4217
23.3463
1.29104
0.0776507
0.00568304
0.000842595
0.00058464
0.000423367
0.000331205
0.000280761
0.000253488
0.000239029
0.000231641
0.000228043
0.000226344
0.000225432
0.000224745
0.000224102
0.000223474
0.00022289
0.000222333
0.000221817
0.000221336
84.0137
84.0062
83.9978
83.9898
83.9821
83.9746
83.9672
83.9598
83.9526
83.9455
83.9385
83.9316
83.9248
83.9181
83.9115
83.9051
83.8988
83.8925
83.8864
83.8802
83.874
83.8689
83.8674
83.8683
83.8447
83.731
83.3873
51.014
5.34579
0.240499
0.0154805
0.00133967
0.00067196
0.000478897
0.000365163
0.000302785
0.000269193
0.000251221
0.000241792
0.000237015
0.000234669
0.00023348
0.00023262
0.000231694
0.000230756
0.000229828
0.00022905
0.000228298
0.000227615
0.00022693
85.2929
85.2853
85.2769
85.2688
85.2611
85.2535
85.2461
85.2388
85.2316
85.2246
85.2177
85.211
85.2043
85.1979
85.1915
85.1853
85.1792
85.1732
85.1674
85.1615
85.1559
85.1515
85.1493
85.1445
85.1128
85.0258
77.1175
24.5491
1.09255
0.0539314
0.00338858
0.00076327
0.000544304
0.000402374
0.000323981
0.000281985
0.000259571
0.000247643
0.000241426
0.000238278
0.000236699
0.000236016
0.000235424
0.000234281
0.000233167
0.000231864
0.000231076
0.00023025
0.000229608
0.000228543
86.5517
86.5443
86.536
86.528
86.5204
86.513
86.5057
86.4986
86.4915
86.4846
86.4778
86.4712
86.4647
86.4582
86.452
86.4458
86.4398
86.4338
86.4279
86.4219
86.4167
86.4144
86.4148
86.3991
86.3131
86.1538
62.0469
8.24814
0.279268
0.0143586
0.00116083
0.000626921
0.000455297
0.000354132
0.000300058
0.000271223
0.000256237
0.000248436
0.00024429
0.000241935
0.000240401
0.000240789
0.000241221
0.000239709
0.000239008
0.000236586
0.000236022
0.000235311
0.000235623
0.000233442
87.7841
87.7765
87.7681
87.7602
87.7527
87.7455
87.7385
87.7317
87.7252
87.7188
87.7126
87.7067
87.7009
87.6954
87.6901
87.6849
87.68
87.6753
87.6706
87.6659
87.6625
87.6634
87.6672
87.6439
87.5181
86.5645
43.8302
2.82417
0.0938071
0.00459679
0.000787231
0.00053787
0.000392484
0.000319941
0.000280849
0.000259757
0.000250352
0.000246387
0.000243953
0.000242626
0.000238419
0.000242418
0.000243533
0.000240559
0.00024454
0.000238148
0.00023766
0.000237593
0.0002411
0.000237186
89.0035
88.9967
88.9894
88.9825
88.9759
88.9695
88.9633
88.9573
88.9514
88.9456
88.94
88.9346
88.9293
88.9242
88.9192
88.9144
88.9098
88.9052
88.9007
88.8963
88.893
88.8934
88.8958
88.8728
88.7596
85.5291
34.9207
1.55473
0.0495976
0.00235851
0.000691048
0.000451128
0.000328131
0.000273612
0.000242124
0.000222975
0.000218315
0.000220546
0.000220678
0.000226927
0.000215905
0.000220036
0.000215487
0.00021859
0.000247064
0.000232079
0.000231573
0.000240305
0.000245095
0.000245351
90.1261
90.1209
90.115
90.1094
90.104
90.0989
90.0938
90.089
90.0842
90.0796
90.0752
90.0708
90.0666
90.0626
90.0587
90.0549
90.0513
90.0477
90.0442
90.0407
90.0383
90.04
90.0444
90.0223
89.9007
86.8164
34.6583
1.43976
0.0431591
0.00193144
0.000593035
0.000371571
0.000281077
0.000236456
0.00020972
0.000185479
0.000180155
0.000189081
0.0001851
0.000201566
0.000185266
0.000173497
0.000173926
0.00022645
0.000322115
0.000215459
0.000207292
0.000323176
0.000188041
0.000121534
91.3415
91.3385
91.3354
91.3323
91.3293
91.3261
91.3229
91.3197
91.3163
91.3128
91.3093
91.3057
91.302
91.2983
91.2945
91.2906
91.2866
91.2826
91.2784
91.274
91.2701
91.2687
91.2699
91.2572
91.1809
91.0315
53.0336
4.47404
0.0981157
0.00205297
0.00035039
0.000103137
6.08688e-05
1.01412e-05
-1.81291e-06
-1.97197e-05
-3.42482e-05
-1.2522e-05
-3.19347e-05
-1.23399e-05
-3.9386e-05
-5.85134e-05
-0.000103774
7.84915e-05
0.000660672
0.000155913
0.000139815
0.000123729
0.000108548
0.000142611
92.3636
92.3627
92.3612
92.3595
92.3577
92.3558
92.3539
92.3519
92.3497
92.3475
92.3451
92.3427
92.3402
92.3377
92.335
92.3324
92.3297
92.327
92.3242
92.3213
92.3185
92.3169
92.3192
92.323
92.2967
92.1719
82.4721
30.534
3.01811
0.125481
0.00326381
0.000394897
0.000303028
0.000242071
0.000265463
0.000275114
0.000237037
0.000263698
0.00021455
0.000244841
0.000173271
0.000235202
0.000294367
-6.19597e-05
-6.98661e-05
-7.6657e-05
-8.50825e-05
-9.92327e-05
-0.000115423
-0.000130487
93.7317
93.7341
93.7371
93.7396
93.7414
93.7425
93.7429
93.7428
93.742
93.7406
93.7386
93.736
93.7327
93.7289
93.7245
93.7195
93.714
93.7079
93.7013
93.6941
93.6862
93.6778
93.6703
93.6663
93.6617
93.6228
93.4842
84.3124
36.3465
6.41167
0.641516
0.00513938
0.00264811
0.000830768
0.000679865
0.000734389
0.000535333
0.000510968
0.00047898
0.000389418
0.000337429
0.000289355
0.000232881
0.000186468
0.000141222
9.68447e-05
5.24181e-05
8.17074e-06
-3.53101e-05
-7.67901e-05
94.6215
94.6313
94.6404
94.6473
94.6523
94.6558
94.6578
94.6583
94.6574
94.6549
94.651
94.6456
94.6388
94.6304
94.6206
94.6092
94.5962
94.5817
94.5656
94.5479
94.5284
94.507
94.4838
94.4602
94.4397
94.4193
94.3593
94.1705
91.3413
51.9849
17.6395
1.9476
0.216485
0.00317792
0.00594816
0.000673628
0.000205515
0.000218277
0.000417635
0.000198432
0.000167644
0.000124532
7.2443e-05
1.67465e-05
-3.05645e-05
-7.81743e-05
-0.000127119
-0.000174978
-0.000220727
-0.000262485
96.5374
96.5473
96.5582
96.5671
96.5739
96.5788
96.5818
96.5832
96.5827
96.5806
96.5766
96.571
96.5635
96.5543
96.5432
96.5303
96.5155
96.4988
96.4801
96.4594
96.4365
96.4115
96.3841
96.3543
96.3221
96.2881
96.2543
96.2179
96.1559
96.0112
85.7076
36.7141
11.8829
1.28679
0.296452
0.0126183
0.0158123
0.00101309
0.000132139
-0.000135939
-0.0002532
-0.000128904
-0.000180522
-0.000161705
-0.000154889
-0.000165328
-0.000183955
-0.000202346
-0.000220263
-0.000237712
97.8524
97.8555
97.8569
97.8571
97.8566
97.8556
97.854
97.8519
97.8492
97.8459
97.8421
97.8378
97.8329
97.8274
97.8214
97.8148
97.8077
97.8
97.7917
97.7828
97.7734
97.7633
97.7526
97.7412
97.7292
97.7165
97.7028
97.6872
97.671
97.6641
97.6578
97.525
83.6726
34.0053
13.429
2.8985
1.05225
0.123149
0.0781635
0.00740812
0.0051562
0.000513217
-0.000187788
-0.000344306
-0.00025226
-0.000110637
-8.03626e-05
-8.46042e-05
-0.000103122
-0.000129387
100.628
100.616
100.605
100.596
100.589
100.583
100.578
100.573
100.57
100.567
100.566
100.565
100.565
100.567
100.569
100.573
100.577
100.583
100.59
100.598
100.607
100.618
100.63
100.643
100.658
100.674
100.692
100.711
100.732
100.75
100.761
100.791
100.842
100.76
89.0596
48.0264
26.471
10.4364
4.5927
1.14118
0.52682
0.0462844
0.0375231
0.00297347
0.00180571
0.000657558
0.000519819
0.000612859
0.00065669
0.000592638
101.415
101.401
101.385
101.37
101.356
101.345
101.334
101.325
101.318
101.311
101.306
101.302
101.3
101.299
101.299
101.301
101.304
101.308
101.314
101.322
101.331
101.341
101.353
101.367
101.383
101.4
101.419
101.44
101.463
101.488
101.515
101.539
101.551
101.568
101.605
101.591
94.4603
71.2514
46.9261
29.538
17.1671
5.14563
2.21297
0.282891
0.214276
0.0109531
0.0101565
0.00283808
0.000306088
-3.34916e-06
104.132
104.122
104.113
104.104
104.094
104.084
104.073
104.063
104.053
104.044
104.036
104.03
104.026
104.023
104.023
104.025
104.029
104.036
104.045
104.058
104.073
104.091
104.112
104.137
104.164
104.195
104.229
104.267
104.307
104.351
104.398
104.449
104.504
104.561
104.609
104.644
104.669
104.621
102.418
98.5244
85.7066
68.0555
43.5489
18.1758
9.23254
1.15894
0.487941
0.0452794
0.0610899
0.000719885
103.776
103.808
103.833
103.847
103.854
103.856
103.855
103.851
103.845
103.838
103.83
103.822
103.815
103.808
103.802
103.797
103.793
103.792
103.792
103.794
103.799
103.805
103.814
103.825
103.838
103.853
103.87
103.89
103.911
103.934
103.959
103.985
104.012
104.041
104.069
104.098
104.126
104.15
104.161
104.157
104.123
103.514
102.342
99.9481
87.6783
51.6865
15.8275
4.59225
4.03864
0.00476165
109.627
109.199
108.768
108.398
108.076
107.787
107.526
107.289
107.075
106.882
106.708
106.551
106.411
106.287
106.177
106.081
105.999
105.929
105.872
105.826
105.793
105.771
105.761
105.761
105.774
105.797
105.832
105.879
105.938
106.01
106.094
106.192
106.304
106.432
106.576
106.739
106.922
107.127
107.356
107.614
107.902
108.229
108.553
108.757
108.853
108.364
106.75
96.0837
101.92
20.6102
0.000211934
0.000211389
0.000210853
0.000210325
0.000209804
0.000209289
0.000208779
0.000208273
0.00020777
0.000207269
0.00020677
0.00020627
0.000205769
0.000205267
0.000204763
0.000204256
0.000203744
0.000203228
0.000202706
0.000202178
0.000201643
0.0002011
0.00020055
0.000199991
0.000199423
0.000198845
0.000198257
0.000197659
0.000197051
0.000196431
0.000195801
0.000195159
0.000194505
0.00019384
0.000193163
0.000192475
0.000191774
0.000191063
0.000190339
0.000189605
0.000188859
0.000188102
0.000187334
0.000186556
0.000185767
0.000184968
0.00018416
0.000183346
0.00018253
0.000181689
0.000216945
0.000216481
0.000216034
0.000215599
0.000215178
0.00021477
0.000214374
0.000213988
0.000213611
0.000213242
0.000212878
0.000212518
0.000212161
0.000211805
0.000211449
0.000211093
0.000210733
0.00021037
0.000210001
0.000209626
0.000209244
0.000208853
0.000208452
0.00020804
0.000207616
0.00020718
0.000206731
0.000206267
0.000205788
0.000205294
0.000204785
0.000204259
0.000203717
0.000203157
0.000202581
0.000201988
0.000201378
0.00020075
0.000200106
0.000199444
0.000198766
0.000198071
0.000197361
0.000196634
0.000195892
0.000195135
0.000194363
0.00019358
0.000192791
0.00019198
0.000220918
0.000220541
0.000220196
0.000219863
0.000219559
0.000219269
0.000219002
0.00021875
0.000218516
0.000218295
0.000218081
0.000217869
0.000217659
0.000217449
0.000217235
0.000217015
0.000216787
0.000216549
0.000216298
0.000216034
0.000215754
0.000215457
0.000215141
0.000214805
0.000214447
0.000214067
0.000213664
0.000213236
0.000212784
0.000212306
0.000211802
0.000211272
0.000210716
0.000210134
0.000209525
0.00020889
0.00020823
0.000207544
0.000206833
0.000206098
0.00020534
0.000204558
0.000203753
0.000202927
0.00020208
0.000201212
0.000200326
0.000199427
0.000198516
0.000197569
0.000226416
0.000225993
0.000225662
0.000225306
0.000225051
0.000224802
0.000224612
0.000224403
0.000224258
0.00022417
0.000224114
0.000224062
0.000224027
0.000224012
0.000223999
0.000223989
0.000223979
0.000223966
0.000223943
0.000223908
0.000223856
0.000223784
0.00022369
0.000223571
0.000223424
0.000223248
0.000223041
0.000222801
0.000222526
0.000222217
0.000221871
0.000221489
0.00022107
0.000220614
0.000220121
0.000219591
0.000219025
0.000218423
0.000217786
0.000217116
0.000216412
0.000215677
0.00021491
0.000214114
0.00021329
0.000212438
0.00021156
0.000210663
0.000209752
0.000208811
0.000227986
0.000227551
0.000227434
0.000226918
0.000226913
0.000226899
0.000227087
0.000226736
0.000226608
0.000226657
0.00022679
0.000226861
0.000226926
0.000227053
0.000227158
0.000227247
0.000227336
0.000227415
0.000227481
0.000227524
0.000227541
0.000227526
0.000227477
0.00022739
0.000227263
0.000227094
0.000226879
0.000226616
0.000226302
0.000225937
0.000225519
0.000225047
0.000224523
0.000223946
0.000223317
0.000222638
0.00022191
0.000221134
0.000220312
0.000219446
0.000218538
0.000217591
0.000216606
0.000215585
0.000214532
0.000213447
0.000212335
0.000211204
0.000210059
0.000208858
0.000232845
0.000232064
0.0002327
0.000230642
0.000230936
0.000232926
0.000234765
0.000232315
0.000232048
0.000232435
0.000233067
0.000233547
0.000233766
0.000234226
0.000234666
0.000235011
0.000235346
0.000235646
0.000235949
0.000236222
0.000236463
0.000236648
0.000236786
0.000236871
0.000236898
0.000236871
0.000236795
0.00023667
0.000236495
0.000236267
0.000235981
0.000235633
0.000235219
0.000234736
0.000234184
0.000233565
0.000232879
0.00023213
0.000231321
0.000230454
0.000229533
0.000228561
0.000227542
0.000226478
0.000225375
0.000224234
0.000223061
0.000221863
0.000220654
0.000219418
0.000236921
0.000235406
0.000238428
0.000232548
0.000231261
0.000252552
0.000254488
0.000236121
0.000234047
0.000234822
0.000235925
0.000236994
0.000236705
0.000236674
0.00023695
0.000236853
0.000236713
0.000236186
0.000235786
0.000235357
0.00023497
0.000234398
0.000233796
0.000233136
0.000232339
0.000231431
0.000230443
0.000229412
0.00022836
0.000227301
0.000226241
0.000225183
0.000224124
0.000223055
0.000221966
0.000220848
0.000219693
0.000218493
0.000217249
0.000215961
0.000214633
0.000213268
0.000211872
0.000210448
0.000208998
0.000207529
0.000206045
0.000204558
0.000203074
0.000201533
0.000246557
0.000246678
0.00025719
0.000245329
0.000243608
0.000314355
0.000360897
0.00021123
0.000213624
0.00021684
0.000222497
0.000229162
0.000222418
0.000223712
0.000226085
0.000227084
0.000229566
0.00022761
0.000227892
0.000228339
0.000229354
0.000228036
0.000227757
0.000227906
0.00022772
0.000227056
0.000226062
0.000224798
0.00022333
0.000221768
0.00022019
0.00021865
0.00021718
0.000215794
0.000214495
0.000213273
0.000212113
0.000210998
0.000209905
0.000208815
0.000207711
0.000206584
0.00020543
0.000204252
0.000203054
0.00020184
0.000200613
0.000199379
0.000198155
0.000196947
0.000127142
0.000121123
0.000277057
0.000207235
0.000203031
0.000228244
0.000229512
0.000366115
0.000204677
0.000215095
0.000216129
0.000348634
0.000217235
0.00022469
0.000252989
0.000124011
0.000152212
0.000128023
0.000110716
0.000139437
0.000287231
0.000149322
0.000151425
0.000147915
0.000149252
0.000151245
0.000150525
0.000148177
0.000146078
0.000143838
0.000141505
0.000139208
0.00013705
0.000135099
0.000133388
0.000131931
0.000130724
0.000129754
0.000128996
0.000128422
0.000127995
0.000127674
0.000127418
0.000127194
0.000126979
0.000126768
0.000126562
0.000126366
0.000126172
0.000125924
0.00047747
0.000137072
0.000119564
0.00010641
0.000100343
0.000138618
0.000229967
9.23399e-05
8.71165e-05
0.000113061
0.000216036
0.000114576
0.00013002
8.90744e-05
7.32408e-05
6.17721e-05
5.58844e-05
5.25215e-05
5.67004e-05
4.66295e-05
4.63729e-05
4.64766e-05
4.58194e-05
4.55229e-05
4.63918e-05
4.83327e-05
5.56835e-05
5.67195e-05
5.2735e-05
5.16728e-05
5.07026e-05
4.98863e-05
4.93249e-05
4.90805e-05
4.91793e-05
4.96235e-05
5.04036e-05
5.15119e-05
5.2949e-05
5.46901e-05
5.65768e-05
5.87011e-05
6.10107e-05
6.34241e-05
6.58698e-05
6.82951e-05
7.06678e-05
7.2971e-05
7.5207e-05
7.74459e-05
-0.00014422
-0.000155884
-0.000168306
-0.000180417
-0.000192571
-0.00020448
-0.0002162
-0.000225977
-0.000235512
-0.00024448
-0.000252436
-0.000259364
-0.000265412
-0.000271185
-0.000275677
-0.000279029
-0.000281272
-0.000282512
-0.000282723
-0.000282032
-0.000280328
-0.000277846
-0.000274638
-0.000271259
-0.000261735
-0.000262199
-9.36352e-06
-0.000181334
-0.000181304
-0.000179387
-0.000176006
-0.000171523
-0.000166308
-0.000160597
-0.000154556
-0.000148304
-0.000141924
-0.000135471
-0.000128969
-0.000122398
-0.000115609
-0.000108737
-0.000101822
-9.49157e-05
-8.80884e-05
-8.13967e-05
-7.48687e-05
-6.85214e-05
-6.23891e-05
-5.64952e-05
-0.000115345
-0.00015119
-0.000184486
-0.000215283
-0.00024358
-0.000269379
-0.00029259
-0.000313213
-0.000331317
-0.000346963
-0.000360253
-0.000371316
-0.000380214
-0.000387002
-0.000391802
-0.000394699
-0.000395749
-0.000395078
-0.00039279
-0.00038897
-0.000383804
-0.000377199
-0.000368816
-0.000358183
-0.000346381
-0.000335873
-0.000329857
-0.000320556
-0.000311686
-0.000301834
-0.00029143
-0.000280787
-0.000270021
-0.000259162
-0.000248169
-0.000237002
-0.000225658
-0.000214188
-0.000202688
-0.000191261
-0.000179995
-0.000168945
-0.000158142
-0.000147606
-0.000137355
-0.000127402
-0.000117765
-0.000108469
-9.9517e-05
-9.07582e-05
-0.000300276
-0.0003355
-0.000368151
-0.000397995
-0.000424903
-0.000448839
-0.000469812
-0.000487854
-0.00050303
-0.000515464
-0.000525318
-0.000532769
-0.000537983
-0.000541099
-0.000542227
-0.000541454
-0.000538903
-0.000534766
-0.000529183
-0.00052224
-0.000513701
-0.00050453
-0.000496545
-0.000488418
-0.000478941
-0.000468131
-0.0004562
-0.000443935
-0.000431328
-0.000418485
-0.000405512
-0.000392435
-0.000379271
-0.00036605
-0.000352806
-0.000339582
-0.000326425
-0.000313385
-0.000300508
-0.000287828
-0.000275374
-0.000263169
-0.000251233
-0.000239581
-0.000228228
-0.000217182
-0.000206449
-0.00019604
-0.000185997
-0.000176363
-0.000253016
-0.000267563
-0.000281536
-0.000294577
-0.000306402
-0.000316868
-0.000325885
-0.000333417
-0.000339498
-0.000344264
-0.000347837
-0.000350153
-0.000351206
-0.000351094
-0.000349928
-0.000347768
-0.000344687
-0.000340789
-0.000336171
-0.000330909
-0.000325056
-0.000318627
-0.000311603
-0.000304081
-0.000296284
-0.000288112
-0.000279678
-0.000270971
-0.000262052
-0.000252977
-0.000243786
-0.000234513
-0.000225193
-0.000215855
-0.000206532
-0.000197249
-0.000188032
-0.000178905
-0.000169888
-0.000161001
-0.000152259
-0.000143677
-0.000135267
-0.000127039
-0.000119001
-0.000111162
-0.000103533
-9.6133e-05
-8.89493e-05
-8.18015e-05
-0.000149481
-0.00016703
-0.000182951
-0.000198058
-0.000212179
-0.00022512
-0.000236805
-0.000247219
-0.000256379
-0.000264322
-0.000271098
-0.000276764
-0.000281383
-0.000285019
-0.000287734
-0.000289587
-0.000290633
-0.000290928
-0.000290545
-0.000289582
-0.000288076
-0.000285799
-0.000282974
-0.000279706
-0.000275838
-0.000271593
-0.000267007
-0.000262097
-0.000256889
-0.000251416
-0.000245708
-0.000239797
-0.000233711
-0.000227479
-0.000221128
-0.000214683
-0.000208167
-0.000201602
-0.00019501
-0.000188409
-0.000181817
-0.00017525
-0.000168723
-0.000162249
-0.00015584
-0.000149505
-0.000143249
-0.000137071
-0.000131014
-0.000125228
0.000532713
0.000462386
0.000402322
0.000350809
0.000306249
0.000267353
0.000233337
0.000203631
0.000177716
0.000155111
0.00013539
0.000118182
0.000103166
9.00682e-05
7.86573e-05
6.87511e-05
6.02218e-05
5.29332e-05
4.6557e-05
4.09198e-05
3.61541e-05
3.19082e-05
2.82378e-05
2.51549e-05
2.25888e-05
2.04755e-05
1.87699e-05
1.74361e-05
1.64412e-05
1.57547e-05
1.53485e-05
1.51964e-05
1.52745e-05
1.55602e-05
1.6033e-05
1.66736e-05
1.74642e-05
1.83884e-05
1.94309e-05
2.05776e-05
2.18157e-05
2.31332e-05
2.45192e-05
2.59639e-05
2.74587e-05
2.89938e-05
3.05547e-05
3.21255e-05
3.37384e-05
3.55626e-05
0.000152867
0.000195958
0.000162614
0.000111954
6.87786e-05
3.3567e-05
3.76952e-06
-2.17909e-05
-4.36009e-05
-6.20768e-05
-7.76576e-05
-9.07571e-05
-0.000101739
-0.000110934
-0.000118666
-0.000125207
-0.000130518
-0.000134393
-0.000137212
-0.000139022
-0.000140107
-0.000140548
-0.000140397
-0.000139715
-0.000138564
-0.000137001
-0.000135078
-0.000132838
-0.000130323
-0.000127568
-0.000124606
-0.000121465
-0.000118173
-0.000114754
-0.000111227
-0.000107614
-0.000103931
-0.000100195
-9.64188e-05
-9.26162e-05
-8.87986e-05
-8.49764e-05
-8.11589e-05
-7.73549e-05
-7.35728e-05
-6.9819e-05
-6.60936e-05
-6.23892e-05
-5.87299e-05
-5.52975e-05
0.000879027
0.000531492
0.00041688
0.000378939
0.000353816
0.000328363
0.000304836
0.000284959
0.000268621
0.000255139
0.000243894
0.000234394
0.000226256
0.000219198
0.000213046
0.000207652
0.000202608
0.000197438
0.000192548
0.000187942
0.000183539
0.000179291
0.000175181
0.000171202
0.000167352
0.000163629
0.000160033
0.000156566
0.000153228
0.000150021
0.000146944
0.000143999
0.000141185
0.0001385
0.000135945
0.000133518
0.000131216
0.000129037
0.000126979
0.00012504
0.000123216
0.000121503
0.0001199
0.000118402
0.000117007
0.000115709
0.000114503
0.000113387
0.0001124
0.00011162
0.0246181
-0.000801494
-0.000899892
-0.00102389
-0.0010015
-0.000937172
-0.000875896
-0.00082164
-0.000770917
-0.000722314
-0.000675496
-0.000630942
-0.000588762
-0.000548979
-0.000511573
-0.000476494
-0.000443666
-0.000412992
-0.000384362
-0.000357658
-0.00033276
-0.000309551
-0.000287914
-0.000267738
-0.000248917
-0.00023135
-0.000214942
-0.000199605
-0.000185257
-0.000171822
-0.00015923
-0.000147415
-0.00013632
-0.000125888
-0.00011607
-0.000106821
-9.80966e-05
-8.986e-05
-8.20753e-05
-7.47102e-05
-6.77349e-05
-6.11224e-05
-5.48475e-05
-4.88878e-05
-4.32231e-05
-3.78335e-05
-3.2692e-05
-2.77626e-05
-2.30502e-05
-1.87812e-05
0.761957
0.00238767
0.00080545
0.000634893
0.000531455
0.00045509
0.000403877
0.000365157
0.000337142
0.000293352
0.000268206
0.00024642
0.000227821
0.000211796
0.00019789
0.000185798
0.000175264
0.000166066
0.000158012
0.000150939
0.000144712
0.000139214
0.000134348
0.000130029
0.000126188
0.000122766
0.00011971
0.000116978
0.000114532
0.000112342
0.000110378
0.000108618
0.000107041
0.000105629
0.000104366
0.000103238
0.000102233
0.000101341
0.00010055
9.98524e-05
9.92399e-05
9.87051e-05
9.82413e-05
9.78421e-05
9.75017e-05
9.72137e-05
9.69718e-05
9.67741e-05
9.66392e-05
9.65911e-05
0.000180972
0.000180419
0.00017984
0.000179259
0.000178678
0.000178095
0.000177508
0.000176917
0.000176324
0.000175727
0.000175127
0.000174523
0.000173917
0.000173308
0.000172695
0.00017208
0.000171462
0.000170841
0.000170217
0.000169591
0.000168962
0.00016833
0.000167696
0.000167059
0.00016642
0.000165779
0.000165136
0.00016449
0.000163842
0.000163192
0.00016254
0.000161886
0.000161231
0.000160573
0.000159914
0.000159253
0.000158591
0.000157927
0.000157262
0.000156595
0.000155927
0.000155258
0.000154587
0.000153916
0.000153243
0.00015257
0.000151895
0.00015122
0.000150544
0.000149867
0.00014919
0.000148512
0.000147833
0.000147154
0.000146475
0.000145795
0.000145115
0.000144435
0.000143755
0.000143074
0.000142394
0.000141713
0.000141033
0.000140353
0.000139673
0.000138993
0.000138313
0.000137634
0.000136955
0.000136277
0.000135599
0.000134922
0.000134245
0.000133569
0.000132894
0.00013222
0.000131546
0.000130873
0.000130201
0.00012953
0.00012886
0.00012819
0.000127522
0.000126855
0.00012619
0.000125525
0.000124862
0.0001242
0.000123539
0.000122879
0.000122221
0.000121565
0.000120909
0.000120256
0.000119604
0.000118953
0.000118304
0.000117657
0.000117011
0.000116367
0.000115725
0.000115085
0.000114446
0.000113809
0.000113174
0.000112541
0.00011191
0.000111281
0.000110654
0.000110029
0.000109406
0.000108785
0.000108166
0.000107549
0.000106935
0.000106322
0.000105712
0.000105104
0.000104498
0.000103894
0.000103293
0.000102694
0.000102098
0.000101503
0.000100911
0.000100322
9.97347e-05
9.915e-05
9.85677e-05
9.79879e-05
9.74105e-05
9.68357e-05
9.62633e-05
9.56935e-05
9.51262e-05
9.45614e-05
9.39992e-05
9.34396e-05
9.28826e-05
9.23282e-05
9.17764e-05
9.12272e-05
9.06806e-05
9.01367e-05
8.95954e-05
8.90568e-05
8.85209e-05
8.79877e-05
8.74571e-05
8.69292e-05
8.64041e-05
8.58817e-05
8.53619e-05
8.48449e-05
8.43307e-05
8.38191e-05
8.33103e-05
8.28043e-05
8.2301e-05
8.18005e-05
8.13027e-05
8.08077e-05
8.03155e-05
7.9826e-05
7.93393e-05
7.88554e-05
7.83742e-05
7.78958e-05
7.74202e-05
7.69474e-05
7.64774e-05
7.60102e-05
7.55457e-05
7.5084e-05
7.46251e-05
7.4169e-05
7.37157e-05
7.32651e-05
7.28173e-05
7.23723e-05
7.19301e-05
7.14906e-05
7.10539e-05
7.062e-05
7.01888e-05
6.97604e-05
6.93348e-05
6.89119e-05
6.84917e-05
6.80743e-05
6.76596e-05
6.72477e-05
6.68385e-05
6.64319e-05
6.60282e-05
6.56271e-05
6.52287e-05
6.4833e-05
6.444e-05
6.40496e-05
6.36619e-05
6.32769e-05
6.28945e-05
6.25148e-05
6.21377e-05
6.17632e-05
6.13913e-05
6.1022e-05
6.06553e-05
6.02912e-05
5.99296e-05
5.95705e-05
5.9214e-05
5.88601e-05
5.85086e-05
5.81596e-05
5.78131e-05
5.7469e-05
5.71274e-05
5.67883e-05
5.64515e-05
5.61171e-05
5.57851e-05
5.54555e-05
5.51282e-05
5.48032e-05
5.44805e-05
5.41601e-05
5.3842e-05
5.35261e-05
5.32124e-05
5.29009e-05
5.25916e-05
5.22844e-05
5.19794e-05
5.16764e-05
5.13755e-05
5.10767e-05
5.07799e-05
5.04852e-05
5.01923e-05
4.99015e-05
4.96125e-05
4.93254e-05
4.90402e-05
4.87568e-05
4.84752e-05
4.81953e-05
4.79172e-05
4.76408e-05
4.73661e-05
4.7093e-05
4.68214e-05
4.65515e-05
4.6283e-05
4.6016e-05
4.57505e-05
4.54864e-05
4.52236e-05
4.49622e-05
4.4702e-05
4.44431e-05
4.41854e-05
4.39288e-05
4.36734e-05
4.3419e-05
4.31656e-05
4.29131e-05
4.26616e-05
4.2411e-05
4.21611e-05
4.19121e-05
4.16637e-05
4.1416e-05
4.11689e-05
4.09223e-05
4.06763e-05
4.04306e-05
4.01854e-05
3.99404e-05
3.96957e-05
3.94511e-05
3.92067e-05
3.89623e-05
3.87179e-05
3.84735e-05
3.82288e-05
3.79839e-05
3.77387e-05
3.74931e-05
3.72469e-05
3.70002e-05
3.67529e-05
3.65047e-05
3.62558e-05
3.60058e-05
3.57545e-05
3.55015e-05
3.52478e-05
3.4999e-05
0.000191289
0.000190744
0.000190165
0.000189583
0.000188999
0.000188412
0.000187821
0.000187224
0.000186623
0.000186018
0.000185408
0.000184794
0.000184176
0.000183553
0.000182927
0.000182296
0.000181661
0.000181022
0.00018038
0.000179733
0.000179083
0.00017843
0.000177772
0.000177112
0.000176448
0.00017578
0.00017511
0.000174436
0.00017376
0.00017308
0.000172398
0.000171713
0.000171025
0.000170334
0.000169641
0.000168946
0.000168248
0.000167548
0.000166846
0.000166141
0.000165435
0.000164727
0.000164017
0.000163305
0.000162591
0.000161876
0.000161159
0.000160441
0.000159722
0.000159001
0.000158279
0.000157556
0.000156832
0.000156107
0.000155381
0.000154654
0.000153927
0.000153198
0.00015247
0.00015174
0.00015101
0.00015028
0.000149549
0.000148819
0.000148088
0.000147356
0.000146625
0.000145894
0.000145163
0.000144432
0.000143701
0.00014297
0.00014224
0.00014151
0.00014078
0.000140051
0.000139322
0.000138594
0.000137867
0.00013714
0.000136414
0.000135689
0.000134965
0.000134242
0.00013352
0.000132798
0.000132078
0.000131359
0.000130641
0.000129925
0.000129209
0.000128495
0.000127782
0.000127071
0.000126361
0.000125653
0.000124947
0.000124241
0.000123538
0.000122836
0.000122136
0.000121438
0.000120742
0.000120047
0.000119355
0.000118664
0.000117976
0.000117289
0.000116605
0.000115923
0.000115243
0.000114565
0.000113889
0.000113216
0.000112545
0.000111876
0.00011121
0.000110546
0.000109884
0.000109225
0.000108569
0.000107915
0.000107264
0.000106615
0.000105969
0.000105326
0.000104686
0.000104048
0.000103413
0.000102781
0.000102151
0.000101525
0.000100901
0.00010028
9.96624e-05
9.90475e-05
9.84356e-05
9.78267e-05
9.72208e-05
9.66179e-05
9.60181e-05
9.54213e-05
9.48276e-05
9.42371e-05
9.36496e-05
9.30653e-05
9.24841e-05
9.19061e-05
9.13313e-05
9.07597e-05
9.01912e-05
8.9626e-05
8.9064e-05
8.85052e-05
8.79497e-05
8.73974e-05
8.68483e-05
8.63026e-05
8.57601e-05
8.52208e-05
8.46848e-05
8.41521e-05
8.36227e-05
8.30965e-05
8.25737e-05
8.20541e-05
8.15378e-05
8.10248e-05
8.0515e-05
8.00085e-05
7.95053e-05
7.90054e-05
7.85087e-05
7.80153e-05
7.75251e-05
7.70382e-05
7.65545e-05
7.6074e-05
7.55968e-05
7.51228e-05
7.4652e-05
7.41844e-05
7.37199e-05
7.32587e-05
7.28006e-05
7.23456e-05
7.18938e-05
7.14451e-05
7.09995e-05
7.0557e-05
7.01176e-05
6.96813e-05
6.9248e-05
6.88178e-05
6.83906e-05
6.79664e-05
6.75451e-05
6.71269e-05
6.67116e-05
6.62992e-05
6.58898e-05
6.54832e-05
6.50796e-05
6.46788e-05
6.42808e-05
6.38857e-05
6.34934e-05
6.31038e-05
6.2717e-05
6.2333e-05
6.19517e-05
6.1573e-05
6.11971e-05
6.08238e-05
6.04532e-05
6.00851e-05
5.97197e-05
5.93568e-05
5.89965e-05
5.86386e-05
5.82833e-05
5.79305e-05
5.75801e-05
5.72321e-05
5.68865e-05
5.65433e-05
5.62025e-05
5.58639e-05
5.55277e-05
5.51937e-05
5.4862e-05
5.45325e-05
5.42052e-05
5.38801e-05
5.3557e-05
5.32361e-05
5.29173e-05
5.26005e-05
5.22858e-05
5.1973e-05
5.16622e-05
5.13533e-05
5.10463e-05
5.07412e-05
5.0438e-05
5.01365e-05
4.98368e-05
4.95388e-05
4.92425e-05
4.89479e-05
4.86549e-05
4.83635e-05
4.80736e-05
4.77853e-05
4.74984e-05
4.7213e-05
4.6929e-05
4.66464e-05
4.6365e-05
4.6085e-05
4.58062e-05
4.55285e-05
4.5252e-05
4.49766e-05
4.47023e-05
4.4429e-05
4.41566e-05
4.38852e-05
4.36146e-05
4.33448e-05
4.30758e-05
4.28074e-05
4.25398e-05
4.22727e-05
4.20062e-05
4.17402e-05
4.14746e-05
4.12093e-05
4.09444e-05
4.06797e-05
4.04152e-05
4.01509e-05
3.98865e-05
3.96222e-05
3.93578e-05
3.90932e-05
3.88284e-05
3.85633e-05
3.82978e-05
3.80318e-05
3.77653e-05
3.74981e-05
3.72301e-05
3.69613e-05
3.66916e-05
3.64209e-05
3.61487e-05
3.58747e-05
3.55999e-05
3.53306e-05
0.000196746
0.00019611
0.000195444
0.000194775
0.000194105
0.000193431
0.000192751
0.000192067
0.000191378
0.000190683
0.000189985
0.000189282
0.000188574
0.000187862
0.000187147
0.000186427
0.000185703
0.000184975
0.000184244
0.000183509
0.000182771
0.000182029
0.000181285
0.000180537
0.000179787
0.000179033
0.000178277
0.000177519
0.000176758
0.000175995
0.000175229
0.000174462
0.000173693
0.000172922
0.000172149
0.000171375
0.000170599
0.000169822
0.000169044
0.000168265
0.000167485
0.000166704
0.000165922
0.00016514
0.000164357
0.000163574
0.000162791
0.000162007
0.000161223
0.00016044
0.000159656
0.000158873
0.000158089
0.000157307
0.000156524
0.000155743