/*--------------------------------*- C++ -*----------------------------------*\
| =========                 |                                                 |
| \\      /  F ield         | OpenFOAM: The Open Source CFD Toolbox           |
|  \\    /   O peration     | Version:  2.4.0                                 |
|   \\  /    A nd           | Web:      www.OpenFOAM.org                      |
|    \\/     M anipulation  |                                                 |
\*---------------------------------------------------------------------------*/
FoamFile
{
    version     2.0;
    format      ascii;
    class       volScalarField;
    location    "0.002";
    object      alpha1;
}
// * * * * * * * * * * * * * * * * * * * * * * * * * * * * * * * * * * * * * //

dimensions      [0 0 0 0 0 0 0];

internalField   nonuniform List<scalar> 
125
(
1.00001
0.4721
1.55006e-54
9.48097e-61
6.03007e-67
4.84014e-73
4.42595e-79
3.94239e-85
3.17633e-91
2.26704e-97
1.41656e-103
7.76332e-110
3.71286e-116
1.54422e-122
5.56757e-129
1.72664e-135
4.55688e-142
1.00732e-148
1.81958e-155
2.59264e-162
2.762e-169
2.00434e-176
8.19616e-184
1.06214e-191
0
0
0
0
0
0
0
0
0
0
0
0
0
0
0
0
0
0
0
0
0
0
0
0
0
0
0
0
0
0
0
0
0
0
0
0
0
0
0
0
0
0
0
0
0
0
0
0
0
0
0
0
0
0
0
0
0
0
0
0
0
0
0
0
0
0
0
0
0
0
0
0
0
0
0
0
0
0
0
0
0
0
0
0
0
0
0
0
0
0
0
0
0
0
0
0
0
0
0
0
0
)
;

boundaryField
{
    BotWall
    {
        type            fixedValue;
        value           uniform 1;
    }
    FreeStream
    {
        type            inletOutlet;
        inletValue      uniform 0;
        value           uniform 0;
    }
    FrontNBack
    {
        type            empty;
    }
    LeftSide
    {
        type            symmetryPlane;
    }
    RightSide
    {
        type            symmetryPlane;
    }
    procBoundary7to4
    {
        type            processor;
        value           nonuniform List<scalar> 
50
(
0.99998
0.471592
5.5131e-52
5.58513e-58
5.65806e-64
6.17325e-70
6.74688e-76
6.75927e-82
5.9441e-88
4.53261e-94
2.99519e-100
1.71824e-106
8.56431e-113
3.70419e-119
1.38467e-125
4.44129e-132
1.20872e-138
2.7461e-145
5.08708e-152
7.42128e-159
8.07743e-166
5.9798e-173
2.4914e-180
3.28509e-188
0
0
0
0
0
0
0
0
0
0
0
0
0
0
0
0
0
0
0
0
0
0
0
0
0
0
)
;
    }
    procBoundary7to5
    {
        type            processor;
        value           uniform 0;
    }
    procBoundary7to6
    {
        type            processor;
        value           uniform 0;
    }
    procBoundary7to8
    {
        type            processor;
        value           uniform 0;
    }
    procBoundary7to9
    {
        type            processor;
        value           nonuniform List<scalar> 
75
(
0.999987
0.455982
5.89738e-52
3.75451e-58
1.68955e-64
6.67818e-71
2.60065e-77
1.00491e-83
3.59517e-90
1.10926e-96
2.93484e-103
6.8329e-110
1.31604e-116
2.07641e-123
2.64638e-130
2.66958e-137
2.07421e-144
1.21171e-151
5.57449e-159
2.79858e-166
2.07396e-173
1.43679e-180
5.82728e-188
7.491e-196
0
0
0
0
0
0
0
0
0
0
0
0
0
0
0
0
0
0
0
0
0
0
0
0
0
0
0
0
0
0
0
0
0
0
0
0
0
0
0
0
0
0
0
0
0
0
0
0
0
0
0
)
;
    }
    procBoundary7to10
    {
        type            processor;
        value           uniform 0;
    }
}


// ************************************************************************* //
