/*--------------------------------*- C++ -*----------------------------------*\
| =========                 |                                                 |
| \\      /  F ield         | OpenFOAM: The Open Source CFD Toolbox           |
|  \\    /   O peration     | Version:  2.4.0                                 |
|   \\  /    A nd           | Web:      www.OpenFOAM.org                      |
|    \\/     M anipulation  |                                                 |
\*---------------------------------------------------------------------------*/
FoamFile
{
    version     2.0;
    format      ascii;
    class       volScalarField;
    location    "0.013";
    object      H;
}
// * * * * * * * * * * * * * * * * * * * * * * * * * * * * * * * * * * * * * //

dimensions      [0 2 -2 0 0 0 0];

internalField   nonuniform List<scalar> 
125
(
-0.313552
-0.289846
-0.267749
-0.247169
-0.228017
-0.210206
-0.193656
-0.178289
-0.164031
-0.150813
-0.138566
-0.12723
-0.116743
-0.107049
-0.098095
-0.0898305
-0.082208
-0.0751827
-0.0687125
-0.0627579
-0.0572817
-0.052249
-0.0476273
-0.043386
-0.0394965
-0.0359322
-0.0326682
-0.0296812
-0.0269496
-0.0244534
-0.0221738
-0.0200935
-0.0181963
-0.0164674
-0.0148928
-0.0134598
-0.0121566
-0.0109722
-0.00989645
-0.00892014
-0.00803465
-0.00723209
-0.0065052
-0.00584729
-0.00525223
-0.00471439
-0.00422861
-0.00379016
-0.00339471
-0.00303829
-0.00271728
-0.00242837
-0.00216855
-0.00193504
-0.00172536
-0.00153719
-0.00136847
-0.0012173
-0.00108196
-0.000960885
-0.000852656
-0.000755987
-0.000669714
-0.000592781
-0.000524234
-0.000463209
-0.000408928
-0.000360686
-0.000317848
-0.000279843
-0.000246155
-0.00021632
-0.000189923
-0.000166588
-0.000145979
-0.000127795
-0.000111767
-9.76511e-05
-8.52327e-05
-7.43182e-05
-6.4735e-05
-5.63292e-05
-4.89637e-05
-4.25165e-05
-3.68789e-05
-3.19546e-05
-2.76578e-05
-2.39126e-05
-2.06518e-05
-1.78158e-05
-1.5352e-05
-1.3214e-05
-1.13608e-05
-9.75635e-06
-8.36877e-06
-7.17015e-06
-6.136e-06
-5.24478e-06
-4.47769e-06
-3.8182e-06
-3.2519e-06
-2.7662e-06
-2.35019e-06
-1.99429e-06
-1.69016e-06
-1.43064e-06
-1.20943e-06
-1.02113e-06
-8.61058e-07
-7.2514e-07
-6.09899e-07
-5.123e-07
-4.2977e-07
-3.60043e-07
-3.01234e-07
-2.51707e-07
-2.10043e-07
-1.75022e-07
-1.45657e-07
-1.21049e-07
-1.00458e-07
-8.32763e-08
-6.89131e-08
-5.69443e-08
-4.70072e-08
)
;

boundaryField
{
    BotWall
    {
        type            zeroGradient;
    }
    FreeStream
    {
        type            zeroGradient;
    }
    FrontNBack
    {
        type            empty;
    }
    LeftSide
    {
        type            symmetryPlane;
    }
    RightSide
    {
        type            symmetryPlane;
    }
    procBoundary10to7
    {
        type            processor;
        value           nonuniform List<scalar> 
50
(
-0.000126501
-0.000110625
-9.66462e-05
-8.43486e-05
-7.35411e-05
-6.40525e-05
-5.57305e-05
-4.84391e-05
-4.20572e-05
-3.64773e-05
-3.16038e-05
-2.73517e-05
-2.36458e-05
-2.04196e-05
-1.76139e-05
-1.51767e-05
-1.3062e-05
-1.12291e-05
-9.64236e-06
-8.27027e-06
-7.08515e-06
-6.06271e-06
-5.18172e-06
-4.42346e-06
-3.77162e-06
-3.21196e-06
-2.73202e-06
-2.32094e-06
-1.96929e-06
-1.66886e-06
-1.41247e-06
-1.19399e-06
-1.00802e-06
-8.49934e-07
-7.15715e-07
-6.01929e-07
-5.05567e-07
-4.24082e-07
-3.55263e-07
-2.97214e-07
-2.48322e-07
-2.07209e-07
-1.72658e-07
-1.43673e-07
-1.19391e-07
-9.9097e-08
-8.21121e-08
-6.79577e-08
-5.61579e-08
-4.63554e-08
)
;
    }
    procBoundary10to8
    {
        type            processor;
        value           nonuniform List<scalar> 
75
(
-0.311855
-0.288248
-0.266247
-0.245758
-0.226693
-0.208966
-0.192495
-0.177204
-0.163018
-0.149867
-0.137686
-0.12641
-0.115981
-0.106341
-0.0974388
-0.0892225
-0.0816451
-0.0746622
-0.0682317
-0.0623142
-0.0568726
-0.0518723
-0.0472806
-0.0430673
-0.0392039
-0.0356637
-0.0324221
-0.0294558
-0.0267434
-0.0242649
-0.0220017
-0.0199364
-0.0180532
-0.016337
-0.0147741
-0.0133519
-0.0120586
-0.0108832
-0.00981574
-0.00884699
-0.00796842
-0.00717216
-0.00645101
-0.00579834
-0.00520804
-0.00467453
-0.00419268
-0.00375779
-0.00336557
-0.00301208
-0.00269373
-0.00240722
-0.00214956
-0.00191802
-0.0017101
-0.00152353
-0.00135625
-0.00120637
-0.00107219
-0.000952157
-0.000844867
-0.000749041
-0.000663524
-0.000587268
-0.000519328
-0.000458847
-0.000405052
-0.000357244
-0.000314794
-0.000277135
-0.000243756
-0.000214196
-0.000188044
-0.000164927
-0.000144512
)
;
    }
    procBoundary10to9
    {
        type            processor;
        value           uniform -3.87372e-08;
    }
    procBoundary10to11
    {
        type            processor;
        value           uniform -0.338968;
    }
}


// ************************************************************************* //
