/*--------------------------------*- C++ -*----------------------------------*\
| =========                 |                                                 |
| \\      /  F ield         | OpenFOAM: The Open Source CFD Toolbox           |
|  \\    /   O peration     | Version:  2.4.0                                 |
|   \\  /    A nd           | Web:      www.OpenFOAM.org                      |
|    \\/     M anipulation  |                                                 |
\*---------------------------------------------------------------------------*/
FoamFile
{
    version     2.0;
    format      ascii;
    class       volScalarField;
    location    "0.013";
    object      p_rgh;
}
// * * * * * * * * * * * * * * * * * * * * * * * * * * * * * * * * * * * * * //

dimensions      [1 -1 -2 0 0 0 0];

internalField   nonuniform List<scalar> 
125
(
-0.0380515
-0.0378998
-0.0377476
-0.0375948
-0.0374415
-0.0372876
-0.0371331
-0.036978
-0.0368224
-0.0366661
-0.0365094
-0.036352
-0.036194
-0.0360355
-0.0358764
-0.0357167
-0.0355564
-0.0353955
-0.035234
-0.0350719
-0.0349092
-0.0347459
-0.034582
-0.0344175
-0.0342524
-0.0340867
-0.0339204
-0.0337534
-0.0335859
-0.0334177
-0.0332489
-0.0330795
-0.0329094
-0.0327387
-0.0325674
-0.0323955
-0.0322229
-0.0320496
-0.0318758
-0.0317013
-0.0315261
-0.0313503
-0.0311739
-0.0309968
-0.030819
-0.0306406
-0.0304615
-0.0302818
-0.0301014
-0.0299203
-0.0297386
-0.0295561
-0.0293731
-0.0291893
-0.0290048
-0.0288197
-0.0286339
-0.0284474
-0.0282602
-0.0280723
-0.0278837
-0.0276945
-0.0275045
-0.0273138
-0.0271224
-0.0269303
-0.0267375
-0.026544
-0.0263498
-0.0261548
-0.0259592
-0.0257628
-0.0255657
-0.0253678
-0.0251692
-0.0249699
-0.0247698
-0.0245691
-0.0243675
-0.0241652
-0.0239622
-0.0237584
-0.0235539
-0.0233486
-0.0231425
-0.0229357
-0.0227282
-0.0225198
-0.0223107
-0.0221008
-0.0218901
-0.0216787
-0.0214665
-0.0212535
-0.0210397
-0.0208251
-0.0206097
-0.0203935
-0.0201765
-0.0199588
-0.0197402
-0.0195208
-0.0193006
-0.0190796
-0.0188577
-0.0186351
-0.0184116
-0.0181873
-0.0179622
-0.0177362
-0.0175094
-0.0172818
-0.0170533
-0.016824
-0.0165938
-0.0163628
-0.0161309
-0.0158982
-0.0156646
-0.0154301
-0.0151948
-0.0149586
-0.0147216
-0.0144836
-0.0142448
)
;

boundaryField
{
    BotWall
    {
        type            fixedFluxPressure;
        gradient        nonuniform 0();
        value           nonuniform 0();
    }
    FreeStream
    {
        type            totalPressure;
        rho             rho;
        psi             none;
        gamma           1;
        p0              nonuniform 0();
        value           nonuniform 0();
    }
    FrontNBack
    {
        type            empty;
    }
    LeftSide
    {
        type            symmetryPlane;
    }
    RightSide
    {
        type            symmetryPlane;
    }
    procBoundary10to7
    {
        type            processor;
        value           nonuniform List<scalar> 
50
(
-0.0263019
-0.0260882
-0.0258737
-0.0256584
-0.0254425
-0.0252258
-0.0250084
-0.0247903
-0.0245714
-0.0243518
-0.0241314
-0.0239103
-0.0236884
-0.0234658
-0.0232424
-0.0230183
-0.0227934
-0.0225677
-0.0223412
-0.022114
-0.021886
-0.0216572
-0.0214277
-0.0211973
-0.0209662
-0.0207342
-0.0205015
-0.020268
-0.0200336
-0.0197985
-0.0195625
-0.0193258
-0.0190882
-0.0188498
-0.0186106
-0.0183705
-0.0181296
-0.0178879
-0.0176453
-0.0174019
-0.0171577
-0.0169126
-0.0166666
-0.0164198
-0.0161722
-0.0159236
-0.0156742
-0.015424
-0.0151728
-0.0149208
)
;
    }
    procBoundary10to8
    {
        type            processor;
        value           nonuniform List<scalar> 
75
(
-0.0404688
-0.0403019
-0.0401345
-0.0399665
-0.039798
-0.0396289
-0.0394593
-0.0392892
-0.0391184
-0.0389472
-0.0387753
-0.0386029
-0.03843
-0.0382565
-0.0380824
-0.0379077
-0.0377325
-0.0375567
-0.0373803
-0.0372034
-0.0370259
-0.0368478
-0.0366691
-0.0364898
-0.0363099
-0.0361295
-0.0359484
-0.0357668
-0.0355845
-0.0354017
-0.0352183
-0.0350342
-0.0348496
-0.0346643
-0.0344784
-0.034292
-0.0341049
-0.0339172
-0.0337288
-0.0335399
-0.0333503
-0.0331601
-0.0329692
-0.0327778
-0.0325857
-0.0323929
-0.0321996
-0.0320055
-0.0318109
-0.0316156
-0.0314196
-0.031223
-0.0310257
-0.0308278
-0.0306292
-0.03043
-0.0302301
-0.0300295
-0.0298283
-0.0296263
-0.0294237
-0.0292205
-0.0290165
-0.0288119
-0.0286066
-0.0284006
-0.0281939
-0.0279865
-0.0277784
-0.0275696
-0.0273601
-0.0271499
-0.026939
-0.0267274
-0.026515
)
;
    }
    procBoundary10to9
    {
        type            processor;
        value           uniform -0.014005;
    }
    procBoundary10to11
    {
        type            processor;
        value           uniform -0.0382025;
    }
}


// ************************************************************************* //
