/*--------------------------------*- C++ -*----------------------------------*\
| =========                 |                                                 |
| \\      /  F ield         | OpenFOAM: The Open Source CFD Toolbox           |
|  \\    /   O peration     | Version:  2.4.0                                 |
|   \\  /    A nd           | Web:      www.OpenFOAM.org                      |
|    \\/     M anipulation  |                                                 |
\*---------------------------------------------------------------------------*/
FoamFile
{
    version     2.0;
    format      ascii;
    class       volScalarField;
    location    "4.8";
    object      alpha1;
}
// * * * * * * * * * * * * * * * * * * * * * * * * * * * * * * * * * * * * * //

dimensions      [0 0 0 0 0 0 0];

internalField   nonuniform List<scalar> 
8000
(
1
1
0.999999
0.999998
0.999998
0.999998
0.999997
0.999997
0.999997
0.999997
0.999997
0.999997
0.999997
0.999997
0.999997
0.999997
0.999998
0.999997
0.999997
0.999997
0.999997
0.999998
0.999997
0.999998
0.999998
0.999998
0.999998
0.999998
0.999998
0.999998
0.999998
0.999998
0.999998
0.999998
0.999998
0.999997
0.999997
0.999996
0.999996
0.999993
0.970595
0.830003
0.311263
0.0390166
0.0125299
0.00932837
0.00639394
0.00358161
0.00180981
0.000879038
1
1
0.999999
0.999998
0.999998
0.999997
0.999997
0.999997
0.999997
0.999997
0.999997
0.999997
0.999997
0.999997
0.999998
0.999997
0.999999
0.999998
0.999998
0.999998
0.999998
0.999998
0.999998
0.999998
0.999999
0.999999
0.999999
0.999999
0.999999
0.999999
0.999999
0.999999
0.999999
0.999999
0.999999
0.999998
0.999998
0.999974
0.980406
0.801349
0.254548
0.0250913
0.00403442
0.00260539
0.00183345
0.00102461
0.000492122
0.000244121
0.000123074
5.67194e-05
1
1
0.999999
0.999998
0.999998
0.999997
0.999997
0.999997
0.999997
0.999997
0.999997
0.999997
0.999998
0.999998
0.999998
0.999998
0.999998
0.999998
0.999998
0.999998
0.999998
0.999999
0.999999
0.999999
1
1
1
1
1
1
1
1
1
1
1
0.999996
0.999679
0.873388
0.315401
0.0315303
0.00127475
0.000379389
0.000534365
0.000421543
0.000187387
6.26842e-05
2.43646e-05
1.28336e-05
8.38839e-06
4.56099e-06
1
1
0.999999
0.999998
0.999998
0.999997
0.999997
0.999997
0.999997
0.999997
0.999998
0.999998
0.999998
0.999998
0.999998
0.999999
0.999999
0.999999
0.999999
0.999999
0.999999
0.999999
1
1
1
1
1
1
1
1
1
1
1
1
1
0.999551
0.639263
0.109756
0.00518054
0.00021828
8.91575e-05
5.75261e-05
3.25744e-05
1.71819e-05
8.47006e-06
2.53185e-06
2.46765e-06
2.46609e-06
3.53375e-06
2.10575e-06
1
1
0.999999
0.999998
0.999998
0.999997
0.999997
0.999997
0.999998
0.999998
0.999998
0.999998
0.999999
0.999999
0.999999
0.999999
0.999999
0.999999
0.999999
0.999999
1
1
1
1
1
1
1
1
1
1
1
1
1
1
0.999997
0.865518
0.258825
0.0228264
0.00302768
0.00115132
0.000402511
8.55657e-05
1.08299e-05
4.40768e-06
4.40717e-06
4.40635e-06
5.39495e-06
5.67382e-06
9.0087e-06
6.20232e-06
1
1
0.999999
0.999998
0.999997
0.999997
0.999997
0.999998
0.999998
0.999998
0.999999
0.999999
0.999999
1
1
0.999999
0.999999
0.999999
1
1
1
1
1
1
1
1
1
1
1
1
1
1
1
1
0.993277
0.859377
0.420236
0.117197
0.0321263
0.00880867
0.00193941
0.000344728
0.000108669
7.56514e-05
6.09851e-05
5.98758e-05
9.2021e-05
6.33444e-05
4.09717e-05
3.23241e-05
1
1
0.999998
0.999997
0.999997
0.999997
0.999997
0.999998
0.999998
0.999999
0.999999
1
1
1
1
0.999999
0.999999
0.999999
1
1
0.999999
0.999999
1
1
1
1
1
1
1
1
1
0.999999
0.999997
0.999951
0.956145
0.863216
0.684139
0.381023
0.128202
0.0288306
0.00529741
0.00141158
0.000802588
0.000558783
0.00039525
0.000297864
0.000234358
0.000175249
0.000129198
9.26981e-05
1
1
0.999998
0.999997
0.999997
0.999997
0.999997
0.999998
0.999999
1
1
1
1
1
0.999999
0.999999
0.999999
0.999999
1
0.999999
0.999998
0.999998
0.999999
1
1
1
1
0.999999
0.999998
0.999999
0.999999
0.999997
1
0.998832
0.969588
0.935401
0.856151
0.662477
0.307857
0.0686284
0.0129171
0.00417195
0.00218948
0.00129642
0.000825631
0.000569424
0.000405781
0.00029016
0.00019884
0.000129473
1
0.999999
0.999998
0.999997
0.999997
0.999997
0.999998
0.999998
0.999999
1
1
1
1
0.999999
0.999999
0.999998
0.999999
0.999999
0.999999
0.999998
0.999998
0.999998
0.999999
1
1
1
0.999999
0.999998
0.999998
0.999999
0.999998
0.999999
1
1
1
0.998511
0.96919
0.876352
0.557797
0.146672
0.0228891
0.00579064
0.0027669
0.00157855
0.000965972
0.00062738
0.000425037
0.000288469
0.000181763
0.000102882
1
0.999999
0.999997
0.999997
0.999996
0.999997
0.999997
0.999999
1
1
1
1
1
0.999998
0.999998
0.999998
0.999998
0.999998
0.999998
0.999998
0.999998
0.999998
0.999999
0.999999
0.999999
0.999999
0.999999
0.999999
0.999999
0.999999
0.999999
0.999999
1
1
1
1
0.999999
0.986939
0.814402
0.268738
0.0261517
0.00564242
0.00267588
0.00149881
0.000852344
0.000495248
0.000283172
0.000149006
6.93524e-05
2.76291e-05
1
0.999999
0.999997
0.999997
0.999996
0.999996
0.999997
0.999999
1
1
1
1
0.999999
0.999998
0.999997
0.999998
0.999998
0.999998
0.999998
0.999997
0.999998
0.999998
0.999998
0.999998
0.999998
0.999998
0.999999
0.999999
0.999999
0.999999
0.999999
0.999999
0.999999
0.999999
0.999999
0.999999
0.999999
0.99998
0.882451
0.323208
0.0240941
0.00473308
0.00217764
0.00108855
0.000523053
0.000245434
0.000108711
4.27235e-05
1.41733e-05
5.25946e-06
1
0.999999
0.999997
0.999996
0.999995
0.999995
0.999997
1
1
1
1
1
0.999999
0.999997
0.999997
0.999997
0.999997
0.999997
0.999997
0.999997
0.999997
0.999997
0.999998
0.999998
0.999998
0.999998
0.999998
0.999998
0.999998
0.999998
0.999998
0.999999
0.999999
0.999999
0.999999
0.999998
0.999997
0.99739
0.776918
0.204635
0.0153873
0.00308945
0.00124223
0.000515813
0.000199662
7.24027e-05
2.3985e-05
7.33064e-06
4.07212e-06
2.73154e-06
1
0.999999
0.999997
0.999996
0.999993
0.999994
0.999997
1
1
1
1
1
0.999998
0.999997
0.999997
0.999997
0.999997
0.999997
0.999997
0.999997
0.999997
0.999997
0.999997
0.999997
0.999997
0.999998
0.999998
0.999998
0.999998
0.999998
0.999998
0.999998
0.999998
0.999998
0.999998
0.999997
0.99591
0.810095
0.334496
0.0494352
0.00712188
0.00167714
0.000551993
0.000188344
5.93906e-05
1.68122e-05
5.6498e-06
3.90519e-06
2.59895e-06
1.66858e-06
1
0.999999
0.999997
0.999994
0.999991
0.999993
0.999997
1
1
1
1
1
0.999998
0.999997
0.999997
0.999997
0.999997
0.999997
0.999997
0.999997
0.999997
0.999997
0.999997
0.999997
0.999997
0.999997
0.999997
0.999997
0.999998
0.999998
0.999998
0.999998
0.999998
0.999998
0.999961
0.966379
0.711044
0.285285
0.054475
0.0100641
0.00244149
0.000694664
0.000200335
5.67023e-05
1.48638e-05
5.46713e-06
3.98678e-06
2.64722e-06
1.73669e-06
1.1509e-06
1
0.999999
0.999996
0.999992
0.999989
0.999992
0.999998
1
1
1
1
1
0.999998
0.999998
0.999997
0.999997
0.999997
0.999997
0.999997
0.999996
0.999996
0.999997
0.999997
0.999997
0.999997
0.999997
0.999997
0.999997
0.999997
0.999997
0.999997
0.999998
0.999996
0.999785
0.863382
0.508249
0.16319
0.0361452
0.00836263
0.00218862
0.000639454
0.000188673
5.03114e-05
1.21782e-05
5.20934e-06
3.77504e-06
2.60184e-06
1.71146e-06
1.14551e-06
7.89605e-07
1
0.999999
0.999996
0.999989
0.999988
0.999993
0.999999
1
1
1
1
1
0.999999
0.999998
0.999998
0.999997
0.999997
0.999997
0.999997
0.999997
0.999997
0.999997
0.999997
0.999997
0.999997
0.999997
0.999997
0.999997
0.999997
0.999997
0.999997
0.999921
0.954146
0.652782
0.26616
0.0670842
0.0164518
0.00437165
0.00120729
0.000344066
9.81891e-05
2.66209e-05
6.64866e-06
3.87574e-06
2.90335e-06
2.05751e-06
1.4167e-06
9.89e-07
7.19031e-07
5.42302e-07
1
0.999999
0.999995
0.999986
0.999988
0.999995
1
1
1
1
1
1
0.999999
0.999999
0.999998
0.999998
0.999998
0.999997
0.999997
0.999997
0.999997
0.999997
0.999997
0.999997
0.999997
0.999998
0.999997
0.999997
0.999997
0.999982
0.99957
0.774611
0.356921
0.0901643
0.0205242
0.00522149
0.00137045
0.000358704
9.24611e-05
2.26451e-05
5.41339e-06
2.78331e-06
2.07438e-06
1.60063e-06
1.185e-06
8.79413e-07
6.81597e-07
5.56706e-07
4.90818e-07
4.08961e-07
1
0.999999
0.999993
0.999985
0.999989
0.999997
1
1
1
1
1
1
0.999999
0.999999
0.999999
0.999998
0.999998
0.999998
0.999998
0.999997
0.999997
0.999997
0.999997
0.999997
0.999996
0.999998
0.999997
0.999997
0.999799
0.892071
0.471371
0.118173
0.0221325
0.00481669
0.00108761
0.000226829
4.65981e-05
9.79415e-06
3.39111e-06
1.84465e-06
1.33813e-06
1.00815e-06
7.82928e-07
6.33327e-07
5.6888e-07
4.89488e-07
4.36446e-07
3.78633e-07
4.4329e-07
3.72875e-07
1
0.999998
0.999992
0.999985
0.999993
0.999999
1
1
1
1
1
1
1
0.999999
0.999999
0.999999
0.999999
0.999998
0.999998
0.999998
0.999998
0.999998
0.999998
0.999996
0.999995
0.999998
0.999937
0.984285
0.610882
0.161281
0.0233726
0.00382377
0.000658283
0.000106889
1.97075e-05
5.57587e-06
2.53014e-06
1.57112e-06
1.1377e-06
8.78111e-07
6.95548e-07
5.8538e-07
5.13181e-07
4.34336e-07
5.01227e-07
4.3924e-07
3.86373e-07
2.90302e-07
4.18743e-07
3.55497e-07
1
0.999998
0.999991
0.999988
0.999996
1
1
1
1
1
1
1
1
1
0.999999
0.999999
0.999999
0.999999
0.999998
0.999998
0.999998
0.999998
0.999997
0.999989
0.999648
0.999513
0.768177
0.237483
0.0262044
0.00282339
0.000366941
5.14877e-05
8.93631e-06
3.34133e-06
1.81454e-06
1.27252e-06
9.50534e-07
7.46761e-07
6.36065e-07
5.62644e-07
5.06545e-07
4.59652e-07
4.17675e-07
3.16627e-07
4.52438e-07
3.81435e-07
3.24017e-07
1.63709e-07
4.84011e-07
2.27029e-07
0.000392218
0.00014867
4.44027e-05
9.94709e-06
1.45454e-06
1.38066e-06
1.38331e-06
1.32948e-06
1.26656e-06
1.23426e-06
1.21967e-06
1.15546e-06
1.32699e-06
1.16794e-06
1.16218e-06
5.5642e-06
5.69749e-06
2.38801e-06
7.85165e-07
7.82497e-07
8.51908e-07
5.97323e-07
4.06484e-07
4.12284e-07
3.66605e-07
3.05986e-07
5.19525e-07
6.94477e-06
5.30952e-06
1.86716e-06
2.53342e-07
1.24282e-07
1.20198e-07
9.63887e-08
1.55259e-07
1.29122e-07
1.06052e-07
9.53728e-08
9.05856e-08
8.81959e-08
8.71145e-08
8.72623e-08
8.53619e-08
9.65072e-08
9.49986e-08
9.32279e-08
2.71532e-07
1.15778e-06
1.17478e-06
4.79264e-07
2.23158e-05
7.4677e-06
1.49231e-06
1.63433e-06
1.58199e-06
1.35486e-06
1.25336e-06
1.21673e-06
1.19403e-06
1.1735e-06
1.16731e-06
1.15531e-06
1.14465e-06
1.17576e-06
1.13638e-06
4.43081e-06
5.54692e-06
3.07152e-06
9.48505e-07
7.44443e-07
6.55938e-07
6.17077e-07
5.85701e-07
5.41089e-07
4.89002e-07
4.93885e-07
2.58396e-06
1.0676e-05
1.13834e-05
1.13645e-05
1.01275e-05
4.14183e-06
7.4393e-07
1.00389e-07
1.25358e-07
2.4312e-07
1.34388e-07
1.37596e-07
1.3674e-07
1.32872e-07
1.28967e-07
1.25493e-07
1.43633e-07
1.07283e-07
1.06838e-07
9.85579e-08
1.00216e-07
4.13676e-07
1.21961e-05
1.38647e-05
1.33966e-06
1.25017e-06
1.24676e-06
3.27299e-06
4.74802e-06
1.95237e-06
1.28177e-06
1.28054e-06
1.19423e-06
1.88107e-06
1.17158e-06
1.18979e-06
1.16254e-06
1.14175e-06
1.12681e-06
1.21218e-06
3.52501e-06
3.85049e-06
3.67289e-06
1.17142e-06
7.46829e-07
6.48592e-07
5.86041e-07
5.60526e-07
5.50549e-07
5.62655e-07
1.03404e-06
6.26809e-06
4.45283e-06
2.10802e-06
1.05753e-06
4.06575e-07
2.73267e-07
2.61069e-07
2.53964e-07
2.42887e-07
2.2449e-07
2.08578e-07
1.93789e-07
1.80262e-07
1.67652e-07
1.55051e-07
1.44738e-07
1.32671e-07
1.21104e-07
2.10152e-07
1.607e-06
1.2237e-05
1.78864e-05
1.78903e-05
1.28248e-06
1.27915e-06
1.3925e-06
5.0893e-06
5.55135e-06
4.26433e-06
1.47986e-06
1.412e-06
1.19659e-06
1.88194e-06
1.34422e-06
1.28354e-06
1.16157e-06
1.14299e-06
1.07286e-06
1.88094e-06
1.33227e-06
9.95226e-07
7.60075e-07
6.45585e-07
6.51471e-07
7.92577e-07
4.92327e-07
5.00551e-07
4.96774e-07
4.87664e-07
4.73208e-07
4.59216e-07
4.74184e-07
4.89866e-07
5.81407e-07
2.06873e-06
2.16575e-06
1.94394e-06
6.42909e-07
2.45941e-07
2.54245e-07
2.51808e-07
2.44595e-07
2.32263e-07
2.15409e-07
5.29983e-07
2.20811e-06
7.54071e-06
1.12535e-05
1.17882e-05
1.19568e-05
1.21029e-05
7.47161e-06
4.86685e-06
2.24762e-06
2.62177e-06
1.06103e-05
7.17026e-06
2.81403e-06
2.68415e-06
3.25292e-06
1.71225e-06
1.61741e-06
1.37623e-06
2.22697e-06
1.12652e-06
9.14613e-07
1.10223e-06
7.9466e-07
5.92161e-07
5.75655e-07
5.53998e-07
5.20458e-07
3.8956e-07
8.13127e-07
3.65787e-07
4.88682e-07
4.51218e-07
4.31946e-07
4.24448e-07
4.24485e-07
4.30812e-07
4.47234e-07
4.81539e-07
6.17694e-07
2.07761e-06
1.36627e-06
3.71789e-07
3.24132e-07
3.101e-07
2.99727e-07
2.91623e-07
2.86177e-07
2.90291e-07
2.94252e-07
5.02189e-07
6.48509e-07
6.1218e-07
6.44016e-07
6.54695e-07
6.12098e-07
4.85277e-07
4.01918e-07
4.62335e-07
2.71066e-05
2.09709e-05
1.36375e-05
8.3364e-06
5.03035e-06
3.42874e-06
2.5742e-06
2.02749e-06
1.66029e-06
1.37614e-06
1.39974e-06
1.0305e-06
6.12325e-07
1.18309e-06
5.46089e-07
4.94366e-07
4.59051e-07
4.3157e-07
4.08192e-07
3.8713e-07
3.14207e-07
2.65696e-07
5.8225e-07
2.89765e-07
2.83959e-07
2.82383e-07
2.82935e-07
2.83115e-07
2.8067e-07
2.73137e-07
2.59245e-07
2.30261e-07
1.84391e-07
4.27456e-07
2.16924e-07
2.19395e-07
2.25737e-07
2.31511e-07
2.3383e-07
2.29888e-07
2.18076e-07
1.99548e-07
1.55224e-07
3.809e-07
2.06106e-07
2.10146e-07
2.16811e-07
2.2025e-07
2.53132e-07
1.1243e-06
6.40767e-05
4.24344e-05
2.66806e-05
1.58432e-05
8.38622e-06
2.6653e-06
2.29307e-06
1.86645e-06
1.53565e-06
1.26478e-06
1.55822e-06
7.11091e-07
6.06081e-07
4.37064e-07
4.10002e-07
3.81657e-07
3.55445e-07
3.32135e-07
3.11656e-07
2.93683e-07
2.77979e-07
2.64282e-07
1.98247e-07
2.05067e-07
2.07349e-07
2.072e-07
2.05647e-07
2.03214e-07
2.00079e-07
1.96555e-07
1.92646e-07
1.88191e-07
1.8279e-07
1.68286e-07
1.71012e-07
1.73813e-07
1.75029e-07
1.74568e-07
1.73025e-07
1.70571e-07
1.67278e-07
1.60646e-07
1.53846e-07
1.53659e-07
1.69074e-07
1.70136e-07
1.76931e-07
1.67697e-07
1.58587e-07
1.4846e-07
8.06279e-05
4.77341e-05
2.66804e-05
1.36442e-05
6.08104e-06
2.57443e-06
1.71436e-06
1.24876e-06
9.85027e-07
7.93833e-07
5.15591e-07
4.60347e-07
4.01427e-07
3.53325e-07
3.16434e-07
2.88223e-07
2.66262e-07
2.48705e-07
2.34174e-07
2.21696e-07
2.10863e-07
2.0122e-07
1.92445e-07
1.84478e-07
1.7724e-07
1.70673e-07
1.6483e-07
1.59723e-07
1.55086e-07
1.51054e-07
1.47133e-07
1.42177e-07
1.34304e-07
1.65258e-07
1.42544e-07
1.37941e-07
1.33875e-07
1.29976e-07
1.26629e-07
1.23486e-07
1.20265e-07
1.16982e-07
1.12616e-07
1.07752e-07
1.04283e-07
1.0503e-07
1.90521e-07
9.95769e-08
1.01219e-07
1.01692e-07
5.16307e-05
2.28074e-05
9.53043e-06
3.67375e-06
1.74485e-06
1.25237e-06
9.30743e-07
6.87669e-07
5.15031e-07
4.02297e-07
3.31854e-07
2.88469e-07
2.60944e-07
2.42312e-07
2.28447e-07
2.17073e-07
2.06956e-07
1.97384e-07
1.87998e-07
1.7881e-07
1.70035e-07
1.61644e-07
1.53902e-07
1.47146e-07
1.41492e-07
1.36825e-07
1.32866e-07
1.29289e-07
1.25911e-07
1.22358e-07
1.17284e-07
1.09524e-07
9.99147e-08
1.72812e-07
9.3962e-08
1.05345e-07
1.02146e-07
9.92623e-08
9.73666e-08
9.53191e-08
9.32212e-08
9.10221e-08
8.83784e-08
8.44974e-08
7.9379e-08
1.19295e-07
7.99772e-08
8.64414e-08
8.89757e-08
8.83349e-08
9.61543e-06
5.64319e-06
2.60655e-06
1.31429e-06
8.11175e-07
6.02396e-07
4.29435e-07
3.36655e-07
2.86106e-07
2.57536e-07
2.40304e-07
2.28459e-07
2.18958e-07
2.10365e-07
2.01944e-07
1.93341e-07
1.84447e-07
1.75289e-07
1.6602e-07
1.56881e-07
1.48205e-07
1.40298e-07
1.33364e-07
1.2747e-07
1.22547e-07
1.18418e-07
1.14848e-07
1.11583e-07
1.08448e-07
1.05332e-07
1.02155e-07
9.89004e-08
9.5549e-08
9.20828e-08
9.27654e-08
9.03718e-08
8.76655e-08
8.48379e-08
8.34634e-08
8.19976e-08
8.05676e-08
7.92432e-08
7.80959e-08
7.71834e-08
7.63177e-08
7.5503e-08
7.94024e-08
7.96686e-08
8.01452e-08
8.09051e-08
3.73568e-06
2.25047e-06
1.18698e-06
6.6477e-07
4.37693e-07
3.3808e-07
2.88194e-07
2.60262e-07
2.43905e-07
2.33379e-07
2.25288e-07
2.17951e-07
2.10642e-07
2.03117e-07
1.95302e-07
1.87104e-07
1.78595e-07
1.69911e-07
1.61256e-07
1.52615e-07
1.44156e-07
1.36047e-07
1.28451e-07
1.21506e-07
1.15313e-07
1.09931e-07
1.05436e-07
1.01608e-07
9.84312e-08
9.59625e-08
9.40086e-08
9.25213e-08
9.14317e-08
9.07184e-08
8.54462e-08
8.53694e-08
8.46386e-08
7.79134e-08
7.74068e-08
7.66863e-08
7.58622e-08
7.49208e-08
7.38598e-08
7.36317e-08
7.33628e-08
7.30198e-08
7.25745e-08
7.25829e-08
7.24922e-08
7.23501e-08
1.69185e-06
1.0071e-06
6.1471e-07
4.19794e-07
3.29275e-07
2.85399e-07
2.61845e-07
2.48069e-07
2.39207e-07
2.32566e-07
2.267e-07
2.20881e-07
2.14538e-07
2.0769e-07
2.0087e-07
1.93582e-07
1.85823e-07
1.77578e-07
1.70074e-07
1.62329e-07
1.54316e-07
1.46004e-07
1.37434e-07
1.28744e-07
1.20138e-07
1.11656e-07
1.04891e-07
9.86888e-08
9.26982e-08
8.83403e-08
8.45667e-08
8.1357e-08
7.83902e-08
9.84655e-08
7.25388e-08
7.50945e-08
1.03072e-07
7.1119e-08
7.09628e-08
7.11421e-08
7.14124e-08
7.17013e-08
6.70507e-08
6.73658e-08
6.78218e-08
6.83609e-08
6.57871e-08
6.64857e-08
6.67934e-08
6.29966e-08
1.06705e-06
6.88691e-07
4.72369e-07
3.61144e-07
3.05815e-07
2.77047e-07
2.61009e-07
2.51018e-07
2.44315e-07
2.38988e-07
2.34256e-07
2.30386e-07
2.25131e-07
2.16958e-07
2.11218e-07
2.05143e-07
1.98512e-07
1.86308e-07
1.79838e-07
1.7343e-07
1.67104e-07
1.60632e-07
1.5369e-07
1.46037e-07
1.38145e-07
1.23639e-07
1.16179e-07
1.10725e-07
9.85181e-08
9.32657e-08
8.85699e-08
8.537e-08
7.63674e-08
7.33088e-08
7.22007e-08
8.70455e-08
6.62286e-08
7.12506e-08
6.17559e-08
6.11942e-08
6.1037e-08
8.10216e-08
5.83609e-08
5.80418e-08
5.81219e-08
7.19832e-08
5.63909e-08
5.87502e-08
7.73104e-08
5.61674e-08
7.77493e-07
5.45863e-07
4.11955e-07
3.39677e-07
3.01472e-07
2.80222e-07
2.68042e-07
2.58431e-07
2.53776e-07
2.47735e-07
2.40198e-07
2.40042e-07
2.41891e-07
2.22197e-07
2.16222e-07
2.12138e-07
2.20787e-07
1.86414e-07
1.78985e-07
1.71971e-07
1.6559e-07
1.60164e-07
1.5563e-07
1.50759e-07
1.61914e-07
1.27962e-07
1.17242e-07
1.34918e-07
9.94924e-08
9.46461e-08
8.90872e-08
1.02732e-07
7.53585e-08
7.33696e-08
7.03165e-08
6.63345e-08
6.56911e-08
9.25325e-08
6.14506e-08
5.97261e-08
5.90077e-08
5.66217e-08
6.2441e-08
5.53056e-08
5.63908e-08
5.52788e-08
5.59773e-08
6.27689e-08
5.49647e-08
5.58596e-08
5.72706e-07
4.43878e-07
3.66924e-07
3.24646e-07
3.04837e-07
2.89915e-07
2.82676e-07
2.6411e-07
2.72232e-07
2.61985e-07
2.38048e-07
2.34118e-07
2.7476e-07
2.22441e-07
2.05802e-07
1.88456e-07
2.63244e-07
1.80486e-07
1.66317e-07
1.58528e-07
1.50744e-07
1.43282e-07
1.37071e-07
1.20955e-07
1.78813e-07
1.26785e-07
8.69268e-08
1.81616e-07
9.12206e-08
8.65755e-08
7.22941e-08
1.2111e-07
6.60986e-08
6.76558e-08
6.66028e-08
6.49412e-08
6.28833e-08
5.7764e-08
6.70438e-08
5.72608e-08
6.0153e-08
5.60249e-08
5.53832e-08
5.5006e-08
5.49071e-08
5.48954e-08
5.48229e-08
5.4365e-08
5.45378e-08
5.47409e-08
4.37212e-07
3.87049e-07
3.37286e-07
3.06634e-07
3.2109e-07
3.05692e-07
3.15319e-07
2.6454e-07
4.23549e-07
2.67673e-07
2.44472e-07
2.02355e-07
2.93235e-07
2.27018e-07
1.88615e-07
1.3617e-07
2.9145e-07
1.43025e-07
1.36996e-07
1.31913e-07
1.26341e-07
1.20266e-07
1.14059e-07
8.34741e-08
1.88456e-07
9.41563e-08
8.4904e-08
7.24009e-08
7.92411e-08
7.71862e-08
7.15104e-08
6.19627e-08
6.1109e-08
6.08029e-08
5.99087e-08
5.87042e-08
5.75319e-08
5.6848e-08
5.53231e-08
5.56377e-08
5.53945e-08
5.52939e-08
5.49156e-08
5.44589e-08
5.40881e-08
5.38757e-08
5.38129e-08
5.38626e-08
5.39916e-08
5.41682e-08
3.49946e-07
3.98283e-07
3.19225e-07
2.49672e-07
3.77669e-07
3.0927e-07
3.72831e-07
2.79869e-07
2.0027e-07
2.96044e-07
2.54307e-07
1.5085e-07
3.45879e-07
1.6166e-07
1.45383e-07
1.34154e-07
1.03631e-07
1.02498e-07
1.01656e-07
9.93866e-08
9.58427e-08
9.18369e-08
8.79172e-08
8.15022e-08
7.79836e-08
7.35432e-08
6.9315e-08
6.80427e-08
6.6257e-08
6.33832e-08
6.0603e-08
5.84601e-08
5.68704e-08
5.56637e-08
5.47654e-08
5.41453e-08
5.37593e-08
5.35415e-08
5.3424e-08
5.33578e-08
5.33194e-08
5.3305e-08
5.33202e-08
5.33705e-08
5.34576e-08
5.35787e-08
5.37282e-08
5.38991e-08
5.40845e-08
5.42784e-08
2.63106e-07
5.32566e-07
2.75574e-07
2.48887e-07
2.55121e-07
2.10376e-07
4.78984e-07
2.2523e-07
1.43465e-07
3.4827e-07
1.647e-07
1.47205e-07
1.1108e-07
1.06245e-07
1.02059e-07
9.82485e-08
9.43322e-08
8.99711e-08
8.51995e-08
8.03471e-08
7.58046e-08
7.18385e-08
6.85382e-08
5.73268e-08
1.05045e-07
5.7362e-08
5.56264e-08
5.69327e-08
5.75997e-08
5.6421e-08
5.47784e-08
5.36137e-08
5.29981e-08
5.27232e-08
5.26251e-08
5.26233e-08
5.26824e-08
5.27841e-08
5.29157e-08
5.30677e-08
5.32331e-08
5.34078e-08
5.35894e-08
5.37765e-08
5.39684e-08
5.41638e-08
5.43613e-08
5.45594e-08
5.4756e-08
5.49492e-08
2.61637e-07
2.80214e-07
2.66125e-07
2.21364e-07
2.28818e-07
2.09043e-07
1.53922e-07
1.48188e-07
1.3987e-07
1.04751e-07
9.92807e-08
9.32028e-08
8.78492e-08
8.34089e-08
7.96183e-08
7.61862e-08
7.29395e-08
6.98253e-08
6.68689e-08
6.41314e-08
6.16764e-08
5.95499e-08
5.77718e-08
5.63354e-08
5.35627e-08
5.30166e-08
5.26274e-08
5.23668e-08
5.22154e-08
5.21589e-08
5.218e-08
5.22604e-08
5.23841e-08
5.25391e-08
5.27166e-08
5.291e-08
5.31147e-08
5.33267e-08
5.35434e-08
5.37622e-08
5.39812e-08
5.41987e-08
5.44132e-08
5.46233e-08
5.48277e-08
5.5025e-08
5.52137e-08
5.53925e-08
5.55597e-08
5.57137e-08
1.13399e-07
3.35442e-07
1.60068e-07
1.13535e-07
1.6043e-07
1.38413e-07
1.10285e-07
9.38135e-08
8.39392e-08
7.6938e-08
7.1584e-08
6.74582e-08
6.42889e-08
6.18317e-08
5.98803e-08
5.82821e-08
5.69373e-08
5.5789e-08
5.48096e-08
5.3988e-08
5.33201e-08
5.28023e-08
5.24273e-08
5.21832e-08
5.20546e-08
5.20234e-08
5.2071e-08
5.21797e-08
5.23339e-08
5.25204e-08
5.27285e-08
5.29502e-08
5.31795e-08
5.34121e-08
5.3645e-08
5.38761e-08
5.41041e-08
5.43278e-08
5.45464e-08
5.4759e-08
5.49645e-08
5.51618e-08
5.53495e-08
5.55262e-08
5.56898e-08
5.58382e-08
5.5969e-08
5.60802e-08
5.61686e-08
5.62315e-08
4.6469e-08
3.44116e-08
3.43996e-08
3.38287e-08
3.08646e-08
2.76918e-08
2.4984e-08
2.27406e-08
2.08683e-08
1.92864e-08
1.79274e-08
1.67373e-08
1.56764e-08
1.4716e-08
1.38352e-08
1.30183e-08
1.22533e-08
1.15311e-08
1.08445e-08
1.01884e-08
9.55906e-09
8.95396e-09
8.37144e-09
7.81058e-09
7.27096e-09
6.75252e-09
6.25544e-09
5.78004e-09
5.3267e-09
4.89578e-09
4.48758e-09
4.10231e-09
3.74003e-09
3.40065e-09
3.08392e-09
2.78939e-09
2.5165e-09
2.26451e-09
2.03257e-09
1.81974e-09
1.62499e-09
1.44727e-09
1.28552e-09
1.13866e-09
1.00565e-09
8.85506e-10
7.77259e-10
6.80007e-10
5.92893e-10
5.15109e-10
4.45895e-10
3.84531e-10
3.30338e-10
2.82672e-10
2.40927e-10
2.04528e-10
1.72936e-10
1.45642e-10
1.22173e-10
1.02091e-10
8.49876e-11
7.04917e-11
5.82642e-11
4.79984e-11
3.94194e-11
3.22821e-11
2.637e-11
2.14929e-11
1.74854e-11
1.42042e-11
1.15266e-11
9.34787e-12
7.57955e-12
6.14723e-12
4.98886e-12
4.05297e-12
3.29716e-12
2.68672e-12
2.19333e-12
1.79408e-12
1.47044e-12
1.20753e-12
9.93441e-13
8.18628e-13
6.75483e-13
5.57939e-13
4.61156e-13
3.81266e-13
3.15177e-13
2.60405e-13
2.14952e-13
1.77198e-13
1.45827e-13
1.19764e-13
9.81242e-14
8.01779e-14
6.53184e-14
5.30399e-14
4.2919e-14
3.46004e-14
2.77847e-14
2.22199e-14
1.76938e-14
1.40271e-14
1.10694e-14
8.69418e-15
6.79559e-15
5.28526e-15
4.0897e-15
3.14812e-15
2.41041e-15
1.83549e-15
1.38989e-15
1.04642e-15
7.83201e-16
5.82652e-16
4.30774e-16
3.16469e-16
2.30993e-16
1.67502e-16
1.20666e-16
8.63656e-17
6.14359e-17
4.34605e-17
3.06077e-17
2.14992e-17
1.51053e-17
1.06628e-17
7.61067e-18
5.53998e-18
4.15527e-18
3.24511e-18
2.65963e-18
2.29366e-18
2.07415e-18
1.95087e-18
1.88964e-18
1.86742e-18
1.86883e-18
1.88366e-18
1.90519e-18
1.92896e-18
1.95204e-18
1.97243e-18
1.98879e-18
2.00017e-18
2.00587e-18
2.00541e-18
1.99841e-18
1.98463e-18
1.96393e-18
1.93627e-18
1.90173e-18
1.86047e-18
1.8128e-18
1.75913e-18
1.69999e-18
1.63602e-18
1.56795e-18
1.49662e-18
1.42293e-18
1.34782e-18
1.27224e-18
1.19715e-18
1.12343e-18
1.05191e-18
9.83314e-19
9.18231e-19
8.57116e-19
8.00277e-19
7.47873e-19
6.99917e-19
6.56279e-19
6.16679e-19
5.80686e-19
5.47709e-19
5.17043e-19
4.88084e-19
4.61206e-19
4.41804e-19
4.41856e-19
4.6853e-19
5.3079e-19
6.40895e-19
8.16488e-19
1.08561e-18
1.49602e-18
2.13133e-18
3.13716e-18
4.76123e-18
7.41311e-18
1.17506e-17
1.88021e-17
3.01341e-17
4.80771e-17
7.60208e-17
1.18794e-16
1.83145e-16
2.78332e-16
4.16852e-16
6.15311e-16
8.95454e-16
1.28537e-15
1.82088e-15
2.54711e-15
3.52031e-15
4.80981e-15
6.50022e-15
8.69388e-15
1.15135e-14
1.51049e-14
1.96402e-14
2.53211e-14
3.23822e-14
4.10945e-14
5.17699e-14
6.47641e-14
8.04816e-14
9.93795e-14
1.21972e-13
1.48833e-13
1.80604e-13
2.17994e-13
2.61788e-13
3.12848e-13
3.72115e-13
4.4062e-13
5.1948e-13
6.09903e-13
7.13192e-13
8.3075e-13
9.64075e-13
1.11477e-12
1.28453e-12
1.47516e-12
1.68857e-12
1.92676e-12
2.19185e-12
2.48602e-12
2.81157e-12
3.17089e-12
3.56642e-12
4.0007e-12
4.4763e-12
4.99586e-12
5.56201e-12
6.17741e-12
6.84469e-12
7.56641e-12
8.34503e-12
9.18291e-12
1.00822e-11
1.10448e-11
1.20723e-11
1.3166e-11
1.43267e-11
1.55546e-11
1.68495e-11
1.82102e-11
1.9635e-11
2.11212e-11
2.26651e-11
2.4262e-11
2.5906e-11
2.759e-11
2.93055e-11
3.10429e-11
3.27911e-11
3.45375e-11
3.62683e-11
3.79685e-11
3.96216e-11
4.12101e-11
4.27156e-11
4.41186e-11
4.53993e-11
4.65375e-11
4.75125e-11
4.83033e-11
4.88877e-11
4.92407e-11
4.93315e-11
4.91196e-11
4.85506e-11
4.76053e-11
4.63055e-11
4.46816e-11
4.27817e-11
4.06915e-11
3.85525e-11
3.64189e-11
3.43011e-11
3.22078e-11
3.01463e-11
2.81234e-11
2.61457e-11
2.42193e-11
2.23505e-11
2.0546e-11
1.88057e-11
6.81823e-06
2.28233e-06
4.48146e-07
4.67545e-08
4.33351e-08
4.0834e-08
3.78891e-08
3.53966e-08
3.35151e-08
3.20298e-08
3.08138e-08
2.97861e-08
2.88815e-08
2.80512e-08
2.72629e-08
2.64937e-08
2.57229e-08
2.49248e-08
2.40636e-08
2.30896e-08
2.19405e-08
2.05479e-08
1.8847e-08
1.68318e-08
1.48034e-08
1.41331e-08
1.41028e-08
1.39955e-08
1.38152e-08
1.35456e-08
1.31988e-08
1.27917e-08
1.23399e-08
1.18568e-08
1.13527e-08
1.08359e-08
1.03124e-08
9.78657e-09
9.26188e-09
8.74088e-09
8.2257e-09
7.71826e-09
7.22036e-09
6.73378e-09
6.26024e-09
5.80144e-09
5.35897e-09
4.93427e-09
4.52859e-09
4.14296e-09
3.77815e-09
3.43463e-09
3.11265e-09
2.81219e-09
2.53298e-09
2.27458e-09
2.03637e-09
1.81762e-09
1.61748e-09
1.43504e-09
1.26933e-09
1.11938e-09
9.84176e-10
8.62725e-10
7.54036e-10
6.57135e-10
5.71073e-10
4.94929e-10
4.27816e-10
3.68886e-10
3.17334e-10
2.72398e-10
2.33367e-10
1.99579e-10
1.70421e-10
1.45335e-10
1.23809e-10
1.05385e-10
8.965e-11
7.62368e-11
6.48211e-11
5.51182e-11
4.68794e-11
3.98889e-11
3.39606e-11
2.89346e-11
2.46739e-11
2.10619e-11
1.79992e-11
1.54014e-11
1.31968e-11
1.13248e-11
9.73389e-12
8.38043e-12
7.22746e-12
6.24371e-12
5.40274e-12
4.68223e-12
4.06342e-12
3.53051e-12
3.07032e-12
2.6718e-12
2.32576e-12
2.02453e-12
1.76174e-12
1.53206e-12
1.33103e-12
1.15492e-12
1.00056e-12
8.65262e-13
7.46721e-13
6.42945e-13
5.52204e-13
4.72983e-13
4.03951e-13
3.4393e-13
2.91876e-13
2.46859e-13
2.08049e-13
1.74702e-13
1.46155e-13
1.21811e-13
1.01134e-13
8.36474e-14
6.89212e-14
5.65738e-14
4.62658e-14
3.76971e-14
3.06038e-14
2.47555e-14
1.99523e-14
1.6022e-14
1.28174e-14
1.02134e-14
8.10469e-15
6.40288e-15
5.03435e-15
3.93798e-15
3.06324e-15
2.36848e-15
1.81941e-15
1.38788e-15
1.05082e-15
7.8932e-16
5.87932e-16
4.34079e-16
3.17547e-16
2.30092e-16
1.65092e-16
1.17272e-16
8.24653e-17
5.74084e-17
3.95746e-17
2.70292e-17
1.83082e-17
1.23177e-17
8.25178e-18
5.52402e-18
3.7142e-18
2.52535e-18
1.7507e-18
1.2485e-18
9.22995e-19
7.1055e-19
5.69543e-19
4.73194e-19
4.04567e-19
3.53138e-19
3.12485e-19
2.78763e-19
2.49708e-19
2.24008e-19
2.00908e-19
1.79964e-19
1.60902e-19
1.43535e-19
1.27714e-19
1.13312e-19
1.00213e-19
8.83203e-20
7.75491e-20
6.81399e-20
6.14504e-20
6.97819e-20
1.74819e-19
6.4264e-19
2.02708e-18
5.37674e-18
1.25034e-17
2.63015e-17
5.11525e-17
9.34582e-17
1.62339e-16
2.70525e-16
4.35446e-16
6.80544e-16
1.03681e-15
1.54459e-15
2.25561e-15
3.23531e-15
4.56547e-15
6.34703e-15
8.70316e-15
1.17825e-14
1.57624e-14
2.08527e-14
2.72983e-14
3.53835e-14
4.54344e-14
5.78223e-14
7.29663e-14
9.13365e-14
1.13456e-13
1.39902e-13
1.7131e-13
2.08374e-13
2.51849e-13
3.0255e-13
3.61354e-13
4.29201e-13
5.07094e-13
5.96098e-13
6.97338e-13
8.12e-13
9.41324e-13
1.08661e-12
1.2492e-12
1.43049e-12
1.63191e-12
1.85492e-12
2.10103e-12
2.37173e-12
2.66856e-12
2.99304e-12
3.34669e-12
3.73102e-12
4.14751e-12
4.59763e-12
5.08281e-12
5.60445e-12
6.16392e-12
6.76258e-12
7.40175e-12
8.08279e-12
8.80706e-12
9.57596e-12
1.0391e-11
1.12537e-11
1.21658e-11
1.31294e-11
1.41464e-11
1.52195e-11
1.63513e-11
1.75449e-11
1.88039e-11
2.01321e-11
2.15338e-11
2.30139e-11
2.45772e-11
2.62294e-11
2.79758e-11
2.98224e-11
3.17748e-11
3.38384e-11
3.60183e-11
3.83189e-11
4.07434e-11
4.3294e-11
4.59712e-11
4.87733e-11
5.16966e-11
5.47344e-11
5.78772e-11
6.11119e-11
6.4422e-11
6.77867e-11
7.11813e-11
7.4577e-11
7.79405e-11
8.12345e-11
8.44176e-11
8.74448e-11
9.02677e-11
9.28353e-11
9.5094e-11
9.69873e-11
9.84531e-11
9.94162e-11
9.97705e-11
9.93632e-11
9.81516e-11
9.62125e-11
9.37359e-11
9.07985e-11
8.7465e-11
8.37979e-11
7.98571e-11
7.56986e-11
7.13787e-11
6.69143e-11
1.75895e-05
1.78927e-05
1.78883e-05
1.60812e-05
5.59475e-06
5.47079e-07
4.58742e-08
4.4751e-08
4.41527e-08
4.33392e-08
4.27589e-08
4.24217e-08
4.2252e-08
4.21829e-08
4.21548e-08
4.21193e-08
4.20473e-08
4.19384e-08
4.18343e-08
4.18818e-08
4.23486e-08
4.43351e-08
4.95014e-08
9.33633e-08
2.82129e-07
1.66004e-07
8.91849e-08
6.61613e-08
4.9385e-08
4.04909e-08
3.5809e-08
3.24447e-08
2.98983e-08
2.79391e-08
2.64093e-08
2.51883e-08
2.41829e-08
2.33218e-08
2.25522e-08
2.18362e-08
2.11475e-08
2.04683e-08
1.97869e-08
1.90961e-08
1.83918e-08
1.76722e-08
1.69373e-08
1.61887e-08
1.54291e-08
1.46619e-08
1.38914e-08
1.31221e-08
1.23587e-08
1.16058e-08
1.08677e-08
1.01482e-08
9.45081e-09
8.77816e-09
8.13247e-09
7.51536e-09
6.92794e-09
6.37088e-09
5.84447e-09
5.34868e-09
4.88326e-09
4.44773e-09
4.04145e-09
3.66365e-09
3.31346e-09
2.9899e-09
2.69191e-09
2.41838e-09
2.1681e-09
1.93986e-09
1.73238e-09
1.54439e-09
1.37457e-09
1.22163e-09
1.0843e-09
9.61326e-10
8.51502e-10
7.5367e-10
6.66728e-10
5.89641e-10
5.21439e-10
4.61222e-10
4.08157e-10
3.61479e-10
3.20487e-10
2.8454e-10
2.53049e-10
2.25481e-10
2.01346e-10
1.80201e-10
1.61642e-10
1.45307e-10
1.30873e-10
1.18054e-10
1.06604e-10
9.63132e-11
8.7008e-11
7.85473e-11
7.08207e-11
6.37437e-11
5.72532e-11
5.1303e-11
4.58589e-11
4.08945e-11
3.63873e-11
3.23159e-11
2.86583e-11
2.53903e-11
2.24855e-11
1.99155e-11
1.76503e-11
1.56595e-11
1.39126e-11
1.23806e-11
1.10362e-11
9.85433e-12
8.81264e-12
7.89138e-12
7.07348e-12
6.34435e-12
5.6917e-12
5.10519e-12
4.57623e-12
4.09773e-12
3.66378e-12
3.26956e-12
2.91104e-12
2.58493e-12
2.28845e-12
2.01931e-12
1.77552e-12
1.55534e-12
1.35722e-12
1.17971e-12
1.02141e-12
8.80981e-13
7.57064e-13
6.48313e-13
5.53382e-13
4.7094e-13
3.99685e-13
3.38364e-13
2.85789e-13
2.40852e-13