/*--------------------------------*- C++ -*----------------------------------*\
| =========                 |                                                 |
| \\      /  F ield         | OpenFOAM: The Open Source CFD Toolbox           |
|  \\    /   O peration     | Version:  2.4.0                                 |
|   \\  /    A nd           | Web:      www.OpenFOAM.org                      |
|    \\/     M anipulation  |                                                 |
\*---------------------------------------------------------------------------*/
FoamFile
{
    version     2.0;
    format      ascii;
    class       volVectorField;
    location    "4.8";
    object      U;
}
// * * * * * * * * * * * * * * * * * * * * * * * * * * * * * * * * * * * * * //

dimensions      [0 1 -1 0 0 0 0];

internalField   nonuniform List<vector> 
8000
(
(3.22976e-07 -0.000125781 0)
(4.18092e-06 -0.000370629 0)
(1.22691e-05 -0.000608722 0)
(2.45174e-05 -0.000839921 0)
(4.07153e-05 -0.00106414 0)
(6.06901e-05 -0.00128138 0)
(8.43079e-05 -0.00149166 0)
(0.000111439 -0.00169494 0)
(0.000141955 -0.00189122 0)
(0.000175724 -0.00208047 0)
(0.000212618 -0.00226264 0)
(0.000252505 -0.00243769 0)
(0.000295261 -0.0026056 0)
(0.000340754 -0.00276629 0)
(0.000388864 -0.00291973 0)
(0.000439463 -0.00306586 0)
(0.000492432 -0.00320462 0)
(0.000547646 -0.00333593 0)
(0.000604993 -0.00345974 0)
(0.000664348 -0.00357595 0)
(0.000725607 -0.00368449 0)
(0.000788644 -0.00378524 0)
(0.000853366 -0.00387815 0)
(0.000919647 -0.00396305 0)
(0.000987404 -0.00403988 0)
(0.00105651 -0.00410844 0)
(0.00112691 -0.00416868 0)
(0.00119845 -0.00422033 0)
(0.00127112 -0.00426335 0)
(0.00134476 -0.00429739 0)
(0.00141938 -0.00432244 0)
(0.00149481 -0.00433804 0)
(0.0015711 -0.00434426 0)
(0.00164808 -0.00434045 0)
(0.00172571 -0.00432677 0)
(0.00180409 -0.00430229 0)
(0.00188397 -0.00426709 0)
(0.00196594 -0.00422014 0)
(0.00204954 -0.00416341 0)
(0.00211876 -0.00408235 0)
(0.00213579 -0.00398707 0)
(0.00212345 -0.00381979 0)
(0.00208747 -0.00356898 0)
(0.00196408 -0.00307579 0)
(0.00201911 0.000201056 0)
(0.00216465 -0.00193259 0)
(0.00218051 -0.00158681 0)
(0.00226431 -0.00101777 0)
(0.00233852 -0.00136127 0)
(0.00240037 -0.00186044 0)
(6.01603e-07 -0.000154731 0)
(5.76603e-06 -0.000455978 0)
(1.61651e-05 -0.000748871 0)
(3.15987e-05 -0.00103323 0)
(5.17861e-05 -0.00130896 0)
(7.65171e-05 -0.00157607 0)
(0.000105622 -0.00183453 0)
(0.000138941 -0.00208433 0)
(0.00017631 -0.00232543 0)
(0.000217567 -0.00255781 0)
(0.00026255 -0.00278143 0)
(0.000311101 -0.00299626 0)
(0.000363065 -0.00320228 0)
(0.00041829 -0.00339944 0)
(0.000476624 -0.00358772 0)
(0.000537921 -0.00376709 0)
(0.000602038 -0.0039375 0)
(0.000668834 -0.00409892 0)
(0.000738172 -0.00425131 0)
(0.000809919 -0.00439462 0)
(0.000883946 -0.0045288 0)
(0.000960127 -0.0046538 0)
(0.00103834 -0.00476956 0)
(0.00111847 -0.00487603 0)
(0.00120041 -0.00497315 0)
(0.00128404 -0.00506085 0)
(0.00136927 -0.00513906 0)
(0.00145599 -0.0052077 0)
(0.00154414 -0.00526672 0)
(0.00163359 -0.00531602 0)
(0.00172434 -0.00535554 0)
(0.00181617 -0.00538524 0)
(0.00190912 -0.00540498 0)
(0.00200286 -0.00541482 0)
(0.0020986 -0.00541447 0)
(0.00219867 -0.00540387 0)
(0.0023024 -0.00538403 0)
(0.00238774 -0.00535849 0)
(0.00238784 -0.00532222 0)
(0.00236394 -0.00524488 0)
(0.00238384 -0.00509447 0)
(0.00233316 -0.00452392 0)
(0.00197415 -0.000530289 0)
(0.00186091 -0.00335479 0)
(0.00204714 -0.00246403 0)
(0.0021767 -0.00266126 0)
(0.00210732 -0.00333286 0)
(0.00218715 -0.00372253 0)
(0.00235796 -0.00462823 0)
(0.00258272 -0.00583603 0)
(5.4706e-07 -0.000192251 0)
(6.302e-06 -0.000565667 0)
(1.81422e-05 -0.00092799 0)
(3.58802e-05 -0.00127918 0)
(5.91627e-05 -0.0016192 0)
(8.77058e-05 -0.00194807 0)
(0.000121281 -0.0022658 0)
(0.000159674 -0.00257241 0)
(0.000202676 -0.00286792 0)
(0.000250081 -0.00315236 0)
(0.000301689 -0.00342575 0)
(0.000357305 -0.00368811 0)
(0.000416743 -0.00393947 0)
(0.000479814 -0.00417985 0)
(0.000546345 -0.00440927 0)
(0.000616158 -0.00462776 0)
(0.000689086 -0.00483533 0)
(0.00076496 -0.00503202 0)
(0.000843624 -0.00521781 0)
(0.000924917 -0.00539277 0)
(0.00100868 -0.00555685 0)
(0.00109478 -0.00571013 0)
(0.00118305 -0.00585253 0)
(0.00127336 -0.00598416 0)
(0.00136556 -0.00610487 0)
(0.0014595 -0.00621486 0)
(0.00155506 -0.00631385 0)
(0.00165207 -0.00640219 0)
(0.00175038 -0.00647939 0)
(0.00185002 -0.00654605 0)
(0.00195034 -0.00660145 0)
(0.00205192 -0.0066465 0)
(0.00215378 -0.00668001 0)
(0.00225766 -0.00670321 0)
(0.00236731 -0.00671437 0)
(0.00246724 -0.00671772 0)
(0.00251303 -0.00671811 0)
(0.00251741 -0.00671361 0)
(0.00254083 -0.00669155 0)
(0.00262165 -0.00653083 0)
(0.00274804 -0.00477861 0)
(0.00286001 0.00306389 0)
(0.00336835 0.000454887 0)
(0.00312787 -0.00223329 0)
(0.00294363 -0.00309554 0)
(0.00304667 -0.00297032 0)
(0.00322528 -0.00300698 0)
(0.00340231 -0.00451234 0)
(0.0035726 -0.00679762 0)
(0.00373617 -0.00869191 0)
(7.20031e-07 -0.000234537 0)
(6.83425e-06 -0.000688528 0)
(1.90443e-05 -0.00112771 0)
(3.70632e-05 -0.00155231 0)
(6.05026e-05 -0.00196248 0)
(8.90724e-05 -0.00235835 0)
(0.000122535 -0.00274004 0)
(0.000160675 -0.00310767 0)
(0.000203273 -0.00346139 0)
(0.000250124 -0.00380129 0)
(0.000301018 -0.00412751 0)
(0.000355765 -0.00444014 0)
(0.000414161 -0.00473929 0)
(0.000476032 -0.00502504 0)
(0.000541178 -0.0052975 0)
(0.000609439 -0.00555672 0)
(0.000680618 -0.0058028 0)
(0.000754565 -0.00603579 0)
(0.000831083 -0.00625575 0)
(0.000910037 -0.00646274 0)
(0.000991223 -0.00665677 0)
(0.00107452 -0.00683789 0)
(0.00115972 -0.0070061 0)
(0.00124672 -0.00716142 0)
(0.00133529 -0.00730378 0)
(0.00142536 -0.00743323 0)
(0.00151665 -0.00754959 0)
(0.00160917 -0.00765295 0)
(0.00170252 -0.00774299 0)
(0.00179665 -0.00781988 0)
(0.00189114 -0.00788311 0)
(0.00198723 -0.00793293 0)
(0.00208741 -0.00796851 0)
(0.00219141 -0.00798991 0)
(0.00227185 -0.00799613 0)
(0.00224324 -0.00798911 0)
(0.00218124 -0.00797367 0)
(0.00221182 -0.00796042 0)
(0.00229678 -0.00798414 0)
(0.00235788 -0.00837918 0)
(0.00270253 -0.00600813 0)
(0.00292259 -0.00156571 0)
(0.00338914 -0.00144793 0)
(0.00368846 -0.00373231 0)
(0.00396804 -0.00505291 0)
(0.00429079 -0.00566408 0)
(0.00455749 -0.00617282 0)
(0.00472338 -0.007233 0)
(0.00476849 -0.00843066 0)
(0.00473639 -0.00977099 0)
(3.65891e-07 -0.000271243 0)
(4.56396e-06 -0.000795499 0)
(1.32976e-05 -0.00130185 0)
(2.6464e-05 -0.0017906 0)
(4.381e-05 -0.00226204 0)
(6.51308e-05 -0.00271639 0)
(9.02626e-05 -0.00315389 0)
(0.000119051 -0.00357475 0)
(0.000151342 -0.00397917 0)
(0.000186981 -0.00436735 0)
(0.000225817 -0.00473944 0)
(0.0002677 -0.00509564 0)
(0.000312479 -0.00543607 0)
(0.000360013 -0.00576089 0)
(0.000410151 -0.00607021 0)
(0.000462758 -0.00636417 0)
(0.000517685 -0.00664286 0)
(0.000574802 -0.00690638 0)
(0.000633961 -0.00715481 0)
(0.000695039 -0.00738823 0)
(0.000757889 -0.0076067 0)
(0.000822396 -0.00781027 0)
(0.000888411 -0.00799898 0)
(0.000955833 -0.00817286 0)
(0.00102451 -0.00833191 0)
(0.00109436 -0.00847616 0)
(0.00116521 -0.00860558 0)
(0.00123704 -0.00872016 0)
(0.00130963 -0.00881986 0)
(0.00138293 -0.00890463 0)
(0.00145672 -0.00897441 0)
(0.00153148 -0.0090291 0)
(0.0016082 -0.00906862 0)
(0.00168729 -0.00909309 0)
(0.00175785 -0.00910294 0)
(0.00179086 -0.00910093 0)
(0.00180176 -0.00908621 0)
(0.00185517 -0.00909156 0)
(0.0019759 -0.00925007 0)
(0.00210953 -0.00949761 0)
(0.00219751 -0.00942815 0)
(0.0023567 -0.00946091 0)
(0.00272278 -0.00993258 0)
(0.00317376 -0.0112519 0)
(0.0036165 -0.0119487 0)
(0.0039718 -0.0105053 0)
(0.00411742 -0.0083054 0)
(0.00409977 -0.00765086 0)
(0.0040395 -0.00718723 0)
(0.003936 -0.00807627 0)
(3.52471e-07 -0.000293449 0)
(3.28241e-06 -0.000861305 0)
(9.1717e-06 -0.00141024 0)
(1.79126e-05 -0.00194041 0)
(2.93602e-05 -0.00245203 0)
(4.34075e-05 -0.0029453 0)
(5.99709e-05 -0.00342041 0)
(7.8968e-05 -0.00387754 0)
(0.000100314 -0.00431687 0)
(0.000123922 -0.00473858 0)
(0.000149706 -0.00514282 0)
(0.000177576 -0.00552975 0)
(0.000207446 -0.00589951 0)
(0.000239225 -0.00625224 0)
(0.000272829 -0.00658808 0)
(0.000308166 -0.00690714 0)
(0.000345152 -0.00720955 0)
(0.000383695 -0.00749542 0)
(0.000423714 -0.00776484 0)
(0.000465117 -0.00801791 0)
(0.000507826 -0.00825474 0)
(0.000551748 -0.00847538 0)
(0.000596813 -0.00867994 0)
(0.000642925 -0.00886848 0)
(0.000690023 -0.00904107 0)
(0.000738012 -0.00919777 0)
(0.000786841 -0.00933865 0)
(0.000836402 -0.00946375 0)
(0.000886621 -0.00957315 0)
(0.000937399 -0.00966687 0)
(0.00098901 -0.00974502 0)
(0.00104224 -0.00980758 0)
(0.00109703 -0.00985462 0)
(0.00114603 -0.00988647 0)
(0.00116378 -0.00990387 0)
(0.00117515 -0.00990982 0)
(0.00121365 -0.00991075 0)
(0.00126639 -0.00991195 0)
(0.00132705 -0.00991319 0)
(0.00136996 -0.00991072 0)
(0.00139843 -0.00993209 0)
(0.00143726 -0.0102298 0)
(0.00148964 -0.0116199 0)
(0.00150789 -0.0138761 0)
(0.00150561 -0.0146454 0)
(0.0014817 -0.0111828 0)
(0.00141657 -0.00710304 0)
(0.00137207 -0.00648333 0)
(0.00139605 -0.00611754 0)
(0.00142455 -0.00646513 0)
(8.3322e-08 -0.000308251 0)
(1.27891e-06 -0.00090465 0)
(3.85479e-06 -0.00148117 0)
(7.81392e-06 -0.00203809 0)
(1.31195e-05 -0.00257564 0)
(1.97398e-05 -0.00309404 0)
(2.76525e-05 -0.00359348 0)
(3.68363e-05 -0.00407415 0)
(4.72674e-05 -0.00453624 0)
(5.89197e-05 -0.0049799 0)
(7.17671e-05 -0.00540531 0)
(8.57801e-05 -0.00581262 0)
(0.00010093 -0.00620198 0)
(0.000117185 -0.00657353 0)
(0.000134513 -0.0069274 0)
(0.000152879 -0.00726371 0)
(0.00017225 -0.00758257 0)
(0.000192587 -0.0078841 0)
(0.000213855 -0.0081684 0)
(0.000236009 -0.00843555 0)
(0.000259014 -0.00868565 0)
(0.000282823 -0.00891879 0)
(0.00030739 -0.00913504 0)
(0.000332673 -0.00933447 0)
(0.000358619 -0.00951713 0)
(0.000385156 -0.00968311 0)
(0.000412306 -0.00983243 0)
(0.000439844 -0.00996517 0)
(0.000467911 -0.0100813 0)
(0.000496182 -0.010181 0)
(0.000524735 -0.0102642 0)
(0.000555078 -0.0103309 0)
(0.000583744 -0.0103813 0)
(0.000604167 -0.0104157 0)
(0.000616594 -0.0104365 0)
(0.000634888 -0.0104422 0)
(0.000662009 -0.0104331 0)
(0.000687772 -0.0104082 0)
(0.000713329 -0.0103726 0)
(0.00074103 -0.0103358 0)
(0.000770291 -0.0103161 0)
(0.000799404 -0.010369 0)
(0.000779113 -0.0105399 0)
(0.0006587 -0.0106954 0)
(0.000447053 -0.0106109 0)
(0.000275377 -0.00965414 0)
(0.000309855 -0.00826952 0)
(0.000483131 -0.00802284 0)
(0.000642087 -0.00794844 0)
(0.000781067 -0.00799385 0)
(2.30228e-08 -0.000311112 0)
(-6.869e-08 -0.00091358 0)
(-2.70348e-07 -0.00149652 0)
(-5.58003e-07 -0.00206023 0)
(-8.71443e-07 -0.00260493 0)
(-1.15445e-06 -0.00313079 0)
(-1.35675e-06 -0.00363793 0)
(-1.43356e-06 -0.00412651 0)
(-1.34408e-06 -0.00459666 0)
(-1.05218e-06 -0.00504851 0)
(-5.23624e-07 -0.0054822 0)
(2.706e-07 -0.00589783 0)
(1.359e-06 -0.00629553 0)
(2.76424e-06 -0.00667539 0)
(4.51003e-06 -0.00703752 0)
(6.61356e-06 -0.007382 0)
(9.09508e-06 -0.00770891 0)
(1.19669e-05 -0.00801834 0)
(1.52466e-05 -0.00831034 0)
(1.89416e-05 -0.00858496 0)
(2.30682e-05 -0.00884227 0)
(2.76297e-05 -0.00908229 0)
(3.26418e-05 -0.00930507 0)
(3.81037e-05 -0.00951058 0)
(4.40335e-05 -0.0096989 0)
(5.04247e-05 -0.00986987 0)
(5.72862e-05 -0.0100236 0)
(6.45841e-05 -0.0101599 0)
(7.23351e-05 -0.0102789 0)
(8.07551e-05 -0.0103802 0)
(9.04983e-05 -0.010464 0)
(0.000101424 -0.0105295 0)
(0.000108041 -0.0105775 0)
(9.16302e-05 -0.0106062 0)
(7.19794e-05 -0.0106177 0)
(7.56539e-05 -0.0106258 0)
(8.82422e-05 -0.0106197 0)
(0.000101235 -0.0106001 0)
(0.000113412 -0.0105728 0)
(0.00012682 -0.0105391 0)
(0.000144714 -0.0105018 0)
(0.000163216 -0.0104519 0)
(0.000169948 -0.0103723 0)
(0.000166507 -0.0102529 0)
(0.000162665 -0.0101068 0)
(0.000173597 -0.00994502 0)
(0.000212413 -0.00979931 0)
(0.000277129 -0.00970305 0)
(0.00035542 -0.0096841 0)
(0.000437078 -0.00979873 0)
(-2.16405e-07 -0.000305272 0)
(-1.78512e-06 -0.000897385 0)
(-4.76158e-06 -0.00147116 0)
(-8.99773e-06 -0.00202681 0)
(-1.43339e-05 -0.00256449 0)
(-2.06414e-05 -0.00308431 0)
(-2.78122e-05 -0.00358635 0)
(-3.57464e-05 -0.00407069 0)
(-4.43495e-05 -0.00453741 0)
(-5.35316e-05 -0.0049866 0)
(-6.32087e-05 -0.00541833 0)
(-7.33001e-05 -0.00583268 0)
(-8.37307e-05 -0.00622973 0)
(-9.44265e-05 -0.00660955 0)
(-0.000105319 -0.00697222 0)
(-0.00011634 -0.00731778 0)
(-0.000127424 -0.00764633 0)
(-0.000138506 -0.00795791 0)
(-0.000149524 -0.00825259 0)
(-0.000160412 -0.00853041 0)
(-0.00017111 -0.00879147 0)
(-0.000181547 -0.00903576 0)
(-0.000191664 -0.00926339 0)
(-0.000201384 -0.00947434 0)
(-0.000210643 -0.00966874 0)
(-0.000219354 -0.00984648 0)
(-0.000227446 -0.0100078 0)
(-0.000234817 -0.0101524 0)
(-0.00024139 -0.0102807 0)
(-0.000247054 -0.0103922 0)
(-0.000251709 -0.0104875 0)
(-0.00025507 -0.0105659 0)
(-0.000256641 -0.0106282 0)
(-0.000256269 -0.0106726 0)
(-0.000256845 -0.0106999 0)
(-0.000270541 -0.0107249 0)
(-0.000285197 -0.0107381 0)
(-0.000284611 -0.010738 0)
(-0.000278554 -0.0107288 0)
(-0.000271445 -0.0107106 0)
(-0.000261635 -0.0106871 0)
(-0.000248174 -0.0106493 0)
(-0.000236351 -0.0105801 0)
(-0.000227035 -0.0104788 0)
(-0.000217301 -0.0103494 0)
(-0.00020812 -0.0102012 0)
(-0.000201932 -0.0100559 0)
(-0.000201452 -0.00994432 0)
(-0.000208345 -0.00990914 0)
(-0.000222205 -0.0100242 0)
(-1.6386e-07 -0.000291399 0)
(-1.85601e-06 -0.000858322 0)
(-5.27434e-06 -0.00140926 0)
(-1.03142e-05 -0.00194419 0)
(-1.68196e-05 -0.0024631 0)
(-2.4657e-05 -0.00296596 0)
(-3.3713e-05 -0.00345274 0)
(-4.38808e-05 -0.0039234 0)
(-5.50571e-05 -0.00437795 0)
(-6.71402e-05 -0.00481637 0)
(-8.0033e-05 -0.00523869 0)
(-9.36395e-05 -0.0056449 0)
(-0.000107869 -0.00603504 0)
(-0.000122629 -0.00640913 0)
(-0.000137836 -0.0067672 0)
(-0.0001534 -0.00710928 0)
(-0.00016924 -0.00743543 0)
(-0.000185272 -0.00774569 0)
(-0.000201417 -0.0080401 0)
(-0.000217589 -0.00831874 0)
(-0.000233715 -0.00858167 0)
(-0.000249708 -0.00882896 0)
(-0.000265497 -0.0090607 0)
(-0.000280992 -0.00927696 0)
(-0.000296124 -0.00947786 0)
(-0.000310797 -0.00966348 0)
(-0.000324943 -0.00983395 0)
(-0.000338461 -0.00998939 0)
(-0.00035128 -0.01013 0)
(-0.000363291 -0.0102558 0)
(-0.000374425 -0.0103671 0)
(-0.000384564 -0.010464 0)
(-0.000393601 -0.0105467 0)
(-0.000401325 -0.0106156 0)
(-0.000407503 -0.0106709 0)
(-0.000412449 -0.0107125 0)
(-0.000418516 -0.0107409 0)
(-0.000431775 -0.010755 0)
(-0.000444212 -0.0107572 0)
(-0.000448089 -0.0107502 0)
(-0.000449772 -0.0107379 0)
(-0.000450394 -0.0107093 0)
(-0.000450081 -0.0106377 0)
(-0.000450991 -0.0105225 0)
(-0.000454822 -0.0103601 0)
(-0.00046499 -0.0101474 0)
(-0.000486879 -0.00989304 0)
(-0.000527167 -0.00962288 0)
(-0.000591442 -0.00940415 0)
(-0.000679384 -0.00938923 0)
(-1.87691e-07 -0.000281461 0)
(-1.85572e-06 -0.00082939 0)
(-5.1934e-06 -0.0013623 0)
(-1.01078e-05 -0.0018802 0)
(-1.64712e-05 -0.0023831 0)
(-2.41777e-05 -0.002871 0)
(-3.31362e-05 -0.00334386 0)
(-4.32597e-05 -0.00380169 0)
(-5.44611e-05 -0.00424446 0)
(-6.66538e-05 -0.00467218 0)
(-7.97533e-05 -0.00508486 0)
(-9.36755e-05 -0.0054825 0)
(-0.000108339 -0.0058651 0)
(-0.000123663 -0.0062327 0)
(-0.00013957 -0.0065853 0)
(-0.00015598 -0.00692293 0)
(-0.000172821 -0.00724562 0)
(-0.000190017 -0.00755339 0)
(-0.000207497 -0.00784629 0)
(-0.00022519 -0.00812434 0)
(-0.00024303 -0.0083876 0)
(-0.000260947 -0.00863612 0)
(-0.000278882 -0.00886994 0)
(-0.000296771 -0.00908913 0)
(-0.000314556 -0.00929374 0)
(-0.000332181 -0.00948384 0)
(-0.000349596 -0.0096595 0)
(-0.000366749 -0.00982079 0)
(-0.000383599 -0.00996778 0)
(-0.000400103 -0.0101006 0)
(-0.000416236 -0.0102192 0)
(-0.000431966 -0.0103238 0)
(-0.000447282 -0.0104145 0)
(-0.000462106 -0.0104912 0)
(-0.000476298 -0.0105542 0)
(-0.000489907 -0.0106035 0)
(-0.000504274 -0.0106391 0)
(-0.000523239 -0.0106612 0)
(-0.000543203 -0.0106708 0)
(-0.000558681 -0.0106702 0)
(-0.000570759 -0.0106629 0)
(-0.00059026 -0.0106376 0)
(-0.000602525 -0.0105577 0)
(-0.000612253 -0.0104151 0)
(-0.000630124 -0.0101805 0)
(-0.000663833 -0.00981009 0)
(-0.000722794 -0.00927589 0)
(-0.00081494 -0.00861231 0)
(-0.000938411 -0.00799103 0)
(-0.00108052 -0.00767608 0)
(-1.57928e-07 -0.000269378 0)
(-1.65199e-06 -0.000794595 0)
(-4.67648e-06 -0.00130618 0)
(-9.16318e-06 -0.00180409 0)
(-1.50082e-05 -0.00228826 0)
(-2.21267e-05 -0.00275865 0)
(-3.04475e-05 -0.00321518 0)
(-3.99033e-05 -0.00365781 0)
(-5.04264e-05 -0.00408649 0)
(-6.19504e-05 -0.00450119 0)
(-7.44093e-05 -0.00490189 0)
(-8.77393e-05 -0.00528855 0)
(-0.000101877 -0.00566116 0)
(-0.00011676 -0.00601971 0)
(-0.000132328 -0.00636419 0)
(-0.000148522 -0.00669459 0)
(-0.000165283 -0.00701092 0)
(-0.000182556 -0.00731317 0)
(-0.000200283 -0.00760136 0)
(-0.000218413 -0.0078755 0)
(-0.000236891 -0.0081356 0)
(-0.000255669 -0.00838168 0)
(-0.000274697 -0.00861377 0)
(-0.000293929 -0.00883188 0)
(-0.000313321 -0.00903604 0)
(-0.000332832 -0.00922627 0)
(-0.000352423 -0.00940261 0)
(-0.00037206 -0.00956507 0)
(-0.000391709 -0.00971369 0)
(-0.000411348 -0.00984849 0)
(-0.000430953 -0.00996951 0)
(-0.000450526 -0.0100768 0)
(-0.000470025 -0.0101703 0)
(-0.00048933 -0.0102501 0)
(-0.000508146 -0.0103162 0)
(-0.000526892 -0.0103686 0)
(-0.000548695 -0.0104078 0)
(-0.000580698 -0.0104351 0)
(-0.000610238 -0.0104512 0)
(-0.000627443 -0.0104568 0)
(-0.000645545 -0.0104539 0)
(-0.000674146 -0.0104276 0)
(-0.00069436 -0.0103262 0)
(-0.000712522 -0.0101139 0)
(-0.000745388 -0.00970611 0)
(-0.000805971 -0.00899058 0)
(-0.000899892 -0.00797138 0)
(-0.00101576 -0.00690931 0)
(-0.00113395 -0.00613189 0)
(-0.00124892 -0.00574194 0)
(-1.19074e-07 -0.00026137 0)
(-1.32049e-06 -0.000771023 0)
(-3.79112e-06 -0.00126754 0)
(-7.49462e-06 -0.0017509 0)
(-1.23624e-05 -0.00222105 0)
(-1.83388e-05 -0.00267796 0)
(-2.53782e-05 -0.00312158 0)
(-3.34363e-05 -0.00355188 0)
(-4.24687e-05 -0.0039688 0)
(-5.24298e-05 -0.00437233 0)
(-6.32756e-05 -0.00476244 0)
(-7.49612e-05 -0.00513911 0)
(-8.74443e-05 -0.00550231 0)
(-0.000100681 -0.00585204 0)
(-0.000114631 -0.00618827 0)
(-0.000129252 -0.006511 0)
(-0.000144507 -0.00682022 0)
(-0.000160355 -0.00711594 0)
(-0.000176763 -0.00739814 0)
(-0.000193691 -0.00766683 0)
(-0.000211113 -0.00792201 0)
(-0.000228989 -0.0081637 0)
(-0.000247302 -0.00839186 0)
(-0.000266011 -0.00860654 0)
(-0.000285112 -0.00880768 0)
(-0.000304564 -0.00899535 0)
(-0.000324375 -0.00916944 0)
(-0.000344508 -0.00933007 0)
(-0.000364988 -0.00947703 0)
(-0.000385791 -0.00961054 0)
(-0.000406979 -0.00973027 0)
(-0.000428503 -0.00983654 0)
(-0.000450232 -0.00992881 0)
(-0.00047176 -0.0100076 0)
(-0.000493745 -0.0100725 0)
(-0.000520936 -0.0101251 0)
(-0.000563579 -0.0101605 0)
(-0.000604454 -0.0101862 0)
(-0.000628307 -0.0102048 0)
(-0.000649749 -0.0102183 0)
(-0.000678805 -0.01022 0)
(-0.000709365 -0.0101856 0)
(-0.000736168 -0.0100427 0)
(-0.000768079 -0.00969008 0)
(-0.000821021 -0.00897794 0)
(-0.000900931 -0.00786274 0)
(-0.000988766 -0.00665242 0)
(-0.00106283 -0.00569345 0)
(-0.001121 -0.00506424 0)
(-0.00116883 -0.00473752 0)
(-1.14417e-07 -0.000253086 0)
(-1.14588e-06 -0.000746748 0)
(-3.24333e-06 -0.00122786 0)
(-6.37589e-06 -0.00169637 0)
(-1.04934e-05 -0.00215224 0)
(-1.55589e-05 -0.00259545 0)
(-2.15424e-05 -0.00302594 0)
(-2.84159e-05 -0.00344364 0)
(-3.61488e-05 -0.00384853 0)
(-4.47121e-05 -0.00424055 0)
(-5.40743e-05 -0.00461968 0)
(-6.42066e-05 -0.00498586 0)
(-7.50777e-05 -0.00533907 0)
(-8.66601e-05 -0.00567927 0)
(-9.89229e-05 -0.00600642 0)
(-0.000111841 -0.00632049 0)
(-0.000125383 -0.00662145 0)
(-0.000139528 -0.00690928 0)
(-0.000154246 -0.00718393 0)
(-0.000169516 -0.00744538 0)
(-0.000185311 -0.00769359 0)
(-0.000201611 -0.00792853 0)
(-0.000218388 -0.00815014 0)
(-0.000235626 -0.00835839 0)
(-0.00025329 -0.0085532 0)
(-0.000271365 -0.00873455 0)
(-0.000289809 -0.00890228 0)
(-0.000308609 -0.00905638 0)
(-0.000327725 -0.00919664 0)
(-0.000347128 -0.00932306 0)
(-0.000366594 -0.00943523 0)
(-0.000385745 -0.00953312 0)
(-0.0004045 -0.00961616 0)
(-0.000426138 -0.00968533 0)
(-0.000461705 -0.00974337 0)
(-0.000513287 -0.00978646 0)
(-0.000557447 -0.00981377 0)
(-0.000582963 -0.0098353 0)
(-0.000605474 -0.00985462 0)
(-0.000633387 -0.00987279 0)
(-0.000662935 -0.00986967 0)
(-0.00069264 -0.0098004 0)
(-0.00073017 -0.00956145 0)
(-0.000786362 -0.00897656 0)
(-0.000861149 -0.00797578 0)
(-0.000933206 -0.00684797 0)
(-0.000982701 -0.0059098 0)
(-0.00100791 -0.00522863 0)
(-0.00101327 -0.00479087 0)
(-0.00100455 -0.0045794 0)
(-7.13472e-08 -0.000247934 0)
(-8.8326e-07 -0.000731401 0)
(-2.60133e-06 -0.00120244 0)
(-5.22337e-06 -0.00166101 0)
(-8.72499e-06 -0.00210709 0)
(-1.30841e-05 -0.00254066 0)
(-1.82893e-05 -0.00296167 0)
(-2.43213e-05 -0.0033701 0)
(-3.11681e-05 -0.00376592 0)
(-3.88049e-05 -0.0041491 0)
(-4.72199e-05 -0.00451962 0)
(-5.63838e-05 -0.00487745 0)
(-6.6287e-05 -0.00522256 0)
(-7.68965e-05 -0.00555491 0)
(-8.82061e-05 -0.00587449 0)
(-0.000100179 -0.00618125 0)
(-0.000112815 -0.00647518 0)
(-0.000126073 -0.00675625 0)
(-0.000139958 -0.00702443 0)
(-0.000154425 -0.00727971 0)
(-0.000169486 -0.00752206 0)
(-0.00018509 -0.00775152 0)
(-0.000201257 -0.00796802 0)
(-0.000217925 -0.00817168 0)
(-0.000235121 -0.00836238 0)
(-0.000252775 -0.00854039 0)
(-0.00027094 -0.00870549 0)
(-0.000289586 -0.00885817 0)
(-0.00030873 -0.00899802 0)
(-0.000327773 -0.00912585 0)
(-0.000345424 -0.00924096 0)
(-0.000362047 -0.00934533 0)
(-0.000389199 -0.00943955 0)
(-0.00046441 -0.00947746 0)
(-0.000548321 -0.00950524 0)
(-0.000588773 -0.00952718 0)
(-0.000610901 -0.00954739 0)
(-0.000632005 -0.00957362 0)
(-0.000656324 -0.0095977 0)
(-0.000682842 -0.00960051 0)
(-0.000713049 -0.00954788 0)
(-0.000754135 -0.00935535 0)
(-0.000813577 -0.00887138 0)
(-0.000886197 -0.00802921 0)
(-0.00094477 -0.00709518 0)
(-0.000974427 -0.00631654 0)
(-0.000974457 -0.0057332 0)
(-0.000947488 -0.0053392 0)
(-0.000898089 -0.00512683 0)
(-0.000830473 -0.0050857 0)
(-1.19869e-07 -0.000241927 0)
(-1.26047e-06 -0.000713341 0)
(-3.56614e-06 -0.00117235 0)
(-6.99006e-06 -0.00161898 0)
(-1.14588e-05 -0.00205324 0)
(-1.69177e-05 -0.00247516 0)
(-2.33254e-05 -0.00288471 0)
(-3.06451e-05 -0.00328189 0)
(-3.88395e-05 -0.00366669 0)
(-4.7874e-05 -0.00403911 0)
(-5.77118e-05 -0.0043991 0)
(-6.83202e-05 -0.00474666 0)
(-7.9661e-05 -0.00508174 0)
(-9.1702e-05 -0.00540433 0)
(-0.000104401 -0.00571435 0)
(-0.000117724 -0.00601181 0)
(-0.000131622 -0.0062966 0)
(-0.000146059 -0.00656878 0)
(-0.000160975 -0.00682817 0)
(-0.000176329 -0.0070749 0)
(-0.000192046 -0.0073087 0)
(-0.000208074 -0.00752981 0)
(-0.000224321 -0.00773786 0)
(-0.000240718 -0.00793323 0)
(-0.000257167 -0.00811534 0)
(-0.000273594 -0.00828487 0)
(-0.000289858 -0.00844091 0)
(-0.00030552 -0.00858443 0)
(-0.000319784 -0.00871387 0)
(-0.000332618 -0.00883087 0)
(-0.000350708 -0.008935 0)
(-0.000396394 -0.00903566 0)
(-0.000474641 -0.00911957 0)
(-0.000542363 -0.00914778 0)
(-0.000575298 -0.00916744 0)
(-0.000599328 -0.00919284 0)
(-0.000624152 -0.00922403 0)
(-0.000652164 -0.0092605 0)
(-0.000685525 -0.0092691 0)
(-0.000728244 -0.00920939 0)
(-0.000785429 -0.00899583 0)
(-0.000854753 -0.00854605 0)
(-0.000919377 -0.00791671 0)
(-0.000960744 -0.00729971 0)
(-0.000970494 -0.00681129 0)
(-0.000945747 -0.00646169 0)
(-0.000888103 -0.00625224 0)
(-0.000801116 -0.00618256 0)
(-0.00068818 -0.00624954 0)
(-0.000552289 -0.00644813 0)
(-8.94876e-08 -0.000232513 0)
(-6.90791e-07 -0.000686716 0)
(-1.90417e-06 -0.00112991 0)
(-3.73551e-06 -0.00156193 0)
(-6.18552e-06 -0.00198264 0)
(-9.26847e-06 -0.0023919 0)
(-1.29817e-05 -0.00278961 0)
(-1.73337e-05 -0.0031757 0)
(-2.23068e-05 -0.0035501 0)
(-2.79031e-05 -0.00391275 0)
(-3.40924e-05 -0.00426363 0)
(-4.08737e-05 -0.0046027 0)
(-4.82054e-05 -0.00492996 0)
(-5.60865e-05 -0.00524538 0)
(-6.44641e-05 -0.00554902 0)
(-7.334e-05 -0.00584085 0)
(-8.265e-05 -0.00612098 0)
(-9.24022e-05 -0.00638938 0)
(-0.00010252 -0.00664629 0)
(-0.000113021 -0.00689162 0)
(-0.000123813 -0.00712578 0)
(-0.00013492 -0.00734862 0)
(-0.000146239 -0.00756082 0)
(-0.000157845 -0.00776208 0)
(-0.000169707 -0.00795353 0)
(-0.000181788 -0.00813451 0)
(-0.000192992 -0.00830672 0)
(-0.00020093 -0.00846901 0)
(-0.000207025 -0.00862525 0)
(-0.000234432 -0.0087773 0)
(-0.000352321 -0.00880903 0)
(-0.000484629 -0.00883196 0)
(-0.00053482 -0.0088464 0)
(-0.00055731 -0.00885624 0)
(-0.000577535 -0.00885908 0)
(-0.000607026 -0.00888597 0)
(-0.000655789 -0.00887698 0)
(-0.000724855 -0.00882957 0)
(-0.000809327 -0.00870128 0)
(-0.000882573 -0.00842289 0)
(-0.000930644 -0.00801391 0)
(-0.00096086 -0.0076649 0)
(-0.000966678 -0.00743218 0)
(-0.000938069 -0.00729511 0)
(-0.000871288 -0.00726378 0)
(-0.000768828 -0.00734006 0)
(-0.000633811 -0.00752555 0)
(-0.000468908 -0.00781985 0)
(-0.0002764 -0.00822183 0)
(-5.85694e-05 -0.00872225 0)
(2.67508e-08 -0.00023557 0)
(-6.24454e-07 -0.000693222 0)
(-2.2047e-06 -0.00113765 0)
(-4.75319e-06 -0.0015691 0)
(-8.22805e-06 -0.0019878 0)
(-1.25912e-05 -0.00239393 0)
(-1.77962e-05 -0.00278766 0)
(-2.38132e-05 -0.0031691 0)
(-3.05891e-05 -0.00353839 0)
(-3.80975e-05 -0.00389559 0)
(-4.62735e-05 -0.00424081 0)
(-5.51005e-05 -0.00457406 0)
(-6.44999e-05 -0.00489544 0)
(-7.4473e-05 -0.00520488 0)
(-8.49253e-05 -0.00550252 0)
(-9.58878e-05 -0.00578822 0)
(-0.00010725 -0.00606214 0)
(-0.000119087 -0.00632405 0)
(-0.000131276 -0.00657421 0)
(-0.000143955 -0.00681223 0)
(-0.000156997 -0.00703858 0)
(-0.000170655 -0.00725261 0)
(-0.00018488 -0.00745519 0)
(-0.000199986 -0.00764522 0)
(-0.000215358 -0.00782424 0)
(-0.000229961 -0.00799021 0)
(-0.000244236 -0.00814654 0)
(-0.00027223 -0.00829229 0)
(-0.000357863 -0.00842752 0)
(-0.000485147 -0.00855994 0)
(-0.000585681 -0.00857069 0)
(-0.000639734 -0.00856424 0)
(-0.000688562 -0.00854079 0)
(-0.000741376 -0.00851297 0)
(-0.000814336 -0.00843568 0)
(-0.000898437 -0.0082477 0)
(-0.000949631 -0.00793068 0)
(-0.000939894 -0.0076255 0)
(-0.000922544 -0.00755901 0)
(-0.000901286 -0.00765457 0)
(-0.000853551 -0.00777801 0)
(-0.000768058 -0.00796404 0)
(-0.000646014 -0.00822679 0)
(-0.000490952 -0.00856374 0)
(-0.000305015 -0.0089787 0)
(-9.00278e-05 -0.00946799 0)
(0.000152018 -0.0100357 0)
(0.000419423 -0.0106829 0)
(0.000710142 -0.0114126 0)
(0.00102233 -0.01221 0)
(-3.51716e-07 -0.000220043 0)
(-2.30604e-06 -0.000649724 0)
(-5.84299e-06 -0.00106894 0)
(-1.07763e-05 -0.00147765 0)
(-1.69569e-05 -0.00187581 0)
(-2.42977e-05 -0.0022634 0)
(-3.27202e-05 -0.0026404 0)
(-4.21783e-05 -0.00300676 0)
(-5.26e-05 -0.00336248 0)
(-6.39599e-05 -0.0037075 0)
(-7.61821e-05 -0.00404188 0)
(-8.92619e-05 -0.00436546 0)
(-0.000103109 -0.0046784 0)
(-0.000117741 -0.00498039 0)
(-0.000133043 -0.00527171 0)
(-0.000149057 -0.00555179 0)
(-0.000165634 -0.00582112 0)
(-0.000182849 -0.00607863 0)
(-0.000200507 -0.00632525 0)
(-0.000218741 -0.00655906 0)
(-0.00023735 -0.00678173 0)
(-0.00025656 -0.00698999 0)
(-0.000275827 -0.00718669 0)
(-0.000294308 -0.00736619 0)
(-0.000310322 -0.00753354 0)
(-0.000329971 -0.00768123 0)
(-0.000383215 -0.0078258 0)
(-0.000513539 -0.00786729 0)
(-0.000649774 -0.00788353 0)
(-0.000719396 -0.00787289 0)
(-0.000795592 -0.00785598 0)
(-0.000879979 -0.00774143 0)
(-0.000958051 -0.0077131 0)
(-0.00100506 -0.00730327 0)
(-0.000953815 -0.00711789 0)
(-0.000876579 -0.0076079 0)
(-0.000817116 -0.00807697 0)
(-0.000728076 -0.00844137 0)
(-0.00059588 -0.00882309 0)
(-0.000430137 -0.00925901 0)
(-0.000238423 -0.00974725 0)
(-2.25959e-05 -0.010288 0)
(0.000216999 -0.0108851 0)
(0.000480095 -0.0115422 0)
(0.000765774 -0.0122665 0)
(0.00107304 -0.0130436 0)
(0.00140078 -0.013882 0)
(0.00174815 -0.0147818 0)
(0.00211351 -0.0157514 0)
(0.00249602 -0.016773 0)
(1.25334e-07 -0.000214866 0)
(-9.30932e-08 -0.000634578 0)
(-1.03031e-06 -0.00104412 0)
(-2.83337e-06 -0.0014433 0)
(-5.59766e-06 -0.00183196 0)
(-9.36629e-06 -0.00220999 0)
(-1.42385e-05 -0.00257729 0)
(-2.02504e-05 -0.00293379 0)
(-2.75209e-05 -0.00327945 0)
(-3.60719e-05 -0.00361423 0)
(-4.60473e-05 -0.00393816 0)
(-5.74534e-05 -0.0042512 0)
(-7.04676e-05 -0.00455348 0)
(-8.50778e-05 -0.00484487 0)
(-0.000101501 -0.00512564 0)
(-0.000119703 -0.0053955 0)
(-0.000139937 -0.00565493 0)
(-0.000162153 -0.00590334 0)
(-0.000186685 -0.00614154 0)
(-0.000213586 -0.00636843 0)
(-0.000243128 -0.00658535 0)
(-0.000274156 -0.00679027 0)
(-0.000303991 -0.0069854 0)
(-0.000333416 -0.00716868 0)
(-0.000388145 -0.00734784 0)
(-0.000551968 -0.00744178 0)
(-0.000753014 -0.00753544 0)
(-0.000885189 -0.00752018 0)
(-0.00098781 -0.00748187 0)
(-0.00107271 -0.00699663 0)
(-0.00107595 -0.00692495 0)
(-0.00100487 -0.00670538 0)
(-0.000907885 -0.00738098 0)
(-0.000827465 -0.00820948 0)
(-0.000721014 -0.00883071 0)
(-0.00056973 -0.00940244 0)
(-0.00038934 -0.010003 0)
(-0.000189697 -0.0106384 0)
(2.89952e-05 -0.0113116 0)
(0.000268223 -0.0120272 0)
(0.000528289 -0.0127884 0)
(0.000808773 -0.0135978 0)
(0.00110899 -0.0144569 0)
(0.00142888 -0.015369 0)
(0.00176746 -0.0163461 0)
(0.00212428 -0.0173631 0)
(0.00249893 -0.0184321 0)
(0.0028917 -0.019554 0)
(0.0033006 -0.0207387 0)
(0.00372485 -0.0219625 0)
(0.00253041 -0.00253705 0)
(0.00273278 -0.00361375 0)
(0.0030238 -0.0054901 0)
(0.00340652 -0.00847832 0)
(0.00383137 -0.0120086 0)
(0.0042385 -0.0152103 0)
(0.00458918 -0.0178357 0)
(0.0048794 -0.0198786 0)
(0.00513209 -0.0213743 0)
(0.00537219 -0.0223529 0)
(0.00562227 -0.0228393 0)
(0.00590376 -0.0228574 0)
(0.00623707 -0.022411 0)
(0.00664461 -0.0214887 0)
(0.00716566 -0.0200758 0)
(0.00778993 -0.0182157 0)
(0.00850966 -0.0159347 0)
(0.00937565 -0.0128901 0)
(0.0104106 -0.00884932 0)
(0.0116285 -0.00421166 0)
(0.0130404 0.00101027 0)
(0.0146785 0.00688185 0)
(0.0165603 0.0134085 0)
(0.0186822 0.020552 0)
(0.0210309 0.0282552 0)
(0.0235907 0.0364732 0)
(0.0264265 0.0451105 0)
(0.0293653 0.0536778 0)
(0.0323778 0.0618665 0)
(0.0356371 0.070013 0)
(0.0390342 0.0783678 0)
(0.0424606 0.0867178 0)
(0.0458822 0.0948539 0)
(0.0492705 0.102625 0)
(0.0525791 0.109929 0)
(0.0557735 0.116697 0)
(0.0588313 0.122887 0)
(0.0617309 0.12847 0)
(0.064456 0.133436 0)
(0.0669955 0.137783 0)
(0.0693429 0.141528 0)
(0.0714956 0.144694 0)
(0.0734548 0.147315 0)
(0.0752248 0.149429 0)