/*--------------------------------*- C++ -*----------------------------------*\
| =========                 |                                                 |
| \\      /  F ield         | OpenFOAM: The Open Source CFD Toolbox           |
|  \\    /   O peration     | Version:  2.4.0                                 |
|   \\  /    A nd           | Web:      www.OpenFOAM.org                      |
|    \\/     M anipulation  |                                                 |
\*---------------------------------------------------------------------------*/
FoamFile
{
    version     2.0;
    format      ascii;
    class       surfaceScalarField;
    location    "1.8";
    object      phi;
}
// * * * * * * * * * * * * * * * * * * * * * * * * * * * * * * * * * * * * * //

dimensions      [0 3 -1 0 0 0 0];

internalField   nonuniform List<scalar> 
15580
(
-7.57358e-14
-1.96208e-12
-2.53109e-13
-5.75545e-12
-5.0847e-13
-9.40871e-12
-8.31522e-13
-1.29175e-11
-1.2132e-12
-1.6282e-11
-1.64547e-12
-1.95025e-11
-2.12125e-12
-2.25791e-11
-2.63417e-12
-2.55122e-11
-3.17853e-12
-2.8302e-11
-3.74913e-12
-3.09484e-11
-4.34118e-12
-3.34518e-11
-4.9502e-12
-3.58122e-11
-5.57196e-12
-3.80298e-11
-6.20234e-12
-4.01045e-11
-6.83729e-12
-4.20365e-11
-7.47273e-12
-4.38259e-11
-8.10448e-12
-4.54725e-11
-8.72816e-12
-4.69765e-11
-9.33914e-12
-4.83379e-11
-9.93235e-12
-4.95565e-11
-1.05023e-11
-5.06323e-11
-1.10429e-11
-5.15654e-11
-1.15478e-11
-5.23555e-11
-1.20107e-11
-5.3002e-11
-1.24231e-11
-5.3504e-11
-1.27643e-11
-5.3863e-11
-1.30271e-11
-5.40919e-11
-4.49838e-11
-5.42285e-11
-4.51146e-11
-5.42222e-11
-4.52577e-11
-5.42243e-11
-4.57282e-11
-5.39659e-11
-4.61243e-11
-5.3804e-11
-4.64709e-11
-5.35063e-11
-4.68103e-11
-5.31704e-11
-4.71555e-11
-5.28333e-11
-4.75063e-11
-5.24975e-11
-4.78613e-11
-5.21623e-11
-4.82198e-11
-5.18282e-11
-4.85818e-11
-5.14958e-11
-4.89471e-11
-5.11656e-11
-4.93157e-11
-5.08381e-11
-4.96873e-11
-5.05135e-11
-5.00619e-11
-5.01917e-11
-5.04393e-11
-4.98728e-11
-5.08196e-11
-4.95564e-11
-5.12025e-11
-4.92425e-11
-5.1588e-11
-4.89306e-11
-5.1976e-11
-4.86204e-11
-5.23663e-11
-4.83116e-11
-4.80038e-11
-5.27589e-11
-3.80492e-14
-1.92403e-12
-1.61133e-13
-5.63236e-12
-3.65983e-13
-9.20386e-12
-6.43849e-13
-1.26396e-11
-9.86822e-13
-1.5939e-11
-1.38769e-12
-1.91016e-11
-1.83983e-12
-2.2127e-11
-2.33715e-12
-2.50149e-11
-2.87398e-12
-2.77651e-11
-3.44499e-12
-3.03774e-11
-4.04516e-12
-3.28516e-11
-4.66967e-12
-3.51877e-11
-5.31388e-12
-3.73856e-11
-5.97321e-12
-3.94452e-11
-6.64313e-12
-4.13666e-11
-7.31908e-12
-4.31499e-11
-7.99639e-12
-4.47952e-11
-8.67022e-12
-4.63027e-11
-9.33554e-12
-4.76725e-11
-9.98697e-12
-4.8905e-11
-1.06188e-11
-5.00004e-11
-1.1225e-11
-5.09592e-11
-1.17987e-11
-5.17817e-11
-1.23322e-11
-5.24686e-11
-1.28158e-11
-5.30204e-11
-1.32405e-11
-5.34383e-11
-1.3983e-11
-5.37228e-11
-4.43044e-11
-5.38847e-11
-4.46129e-11
-5.39137e-11
-4.49365e-11
-5.39007e-11
-4.52825e-11
-5.36199e-11
-4.56841e-11
-5.34023e-11
-4.60964e-11
-5.3094e-11
-4.65061e-11
-5.27608e-11
-4.69155e-11
-5.24238e-11
-4.73278e-11
-5.20852e-11
-4.77439e-11
-5.17463e-11
-4.8164e-11
-5.14081e-11
-4.85882e-11
-5.10716e-11
-4.90165e-11
-5.07373e-11
-4.94489e-11
-5.04057e-11
-4.98854e-11
-5.0077e-11
-5.03259e-11
-4.97512e-11
-5.07704e-11
-4.94283e-11
-5.12187e-11
-4.91081e-11
-5.16707e-11
-4.87904e-11
-5.21265e-11
-4.84748e-11
-5.25857e-11
-4.81612e-11
-5.30483e-11
-4.7849e-11
-4.75381e-11
-5.35141e-11
-1.51756e-14
-1.90885e-12
-5.40272e-14
-5.59351e-12
-1.14768e-13
-9.14311e-12
-1.9782e-13
-1.25565e-11
-3.03248e-13
-1.58336e-11
-4.30854e-13
-1.8974e-11
-5.80226e-13
-2.19776e-11
-7.50788e-13
-2.48444e-11
-9.41835e-13
-2.75741e-11
-1.15257e-12
-3.01667e-11
-1.38215e-12
-3.26221e-11
-1.62968e-12
-3.49402e-11
-1.89426e-12
-3.7121e-11
-2.17503e-12
-3.91644e-11
-2.47115e-12
-4.10705e-11
-2.78183e-12
-4.28392e-11
-3.1064e-12
-4.44707e-11
-3.44427e-12
-4.59648e-11
-3.79501e-12
-4.73218e-11
-4.15834e-12
-4.85417e-11
-4.53421e-12
-4.96246e-11
-4.92278e-12
-5.05706e-11
-5.32453e-12
-5.138e-11
-5.74034e-12
-5.20528e-11
-6.17166e-12
-5.25891e-11
-6.62042e-12
-5.29895e-11
-7.55788e-12
-5.32556e-11
-3.77027e-11
-5.34138e-11
-3.81899e-11
-5.34265e-11
-3.87585e-11
-5.33321e-11
-3.93448e-11
-5.30337e-11
-3.99692e-11
-5.27779e-11
-4.06061e-11
-5.24571e-11
-4.12471e-11
-5.21197e-11
-4.18915e-11
-5.17794e-11
-4.25376e-11
-5.14392e-11
-4.31836e-11
-5.11002e-11
-4.38283e-11
-5.07634e-11
-4.44709e-11
-5.0429e-11
-4.51107e-11
-5.00975e-11
-4.57474e-11
-4.9769e-11
-4.63808e-11
-4.94436e-11
-4.70107e-11
-4.91213e-11
-4.76371e-11
-4.88019e-11
-4.826e-11
-4.84853e-11
-4.88794e-11
-4.8171e-11
-4.94954e-11
-4.78589e-11
-5.0108e-11
-4.75485e-11
-5.07174e-11
-4.72396e-11
-4.69319e-11
-5.13236e-11
-5.7987e-15
-1.90305e-12
-2.70704e-14
-5.57224e-12
-6.52613e-14
-9.10492e-12
-1.20627e-13
-1.25012e-11
-1.93446e-13
-1.57607e-11
-2.84004e-13
-1.88834e-11
-3.92598e-13
-2.1869e-11
-5.19532e-13
-2.47174e-11
-6.65125e-13
-2.74285e-11
-8.29703e-13
-3.00021e-11
-1.01362e-12
-3.24382e-11
-1.21723e-12
-3.47366e-11
-1.44094e-12
-3.68973e-11
-1.68516e-12
-3.89202e-11
-1.95035e-12
-4.08053e-11
-2.23701e-12
-4.25526e-11
-2.54566e-12
-4.4162e-11
-2.87687e-12
-4.56336e-11
-3.23127e-12
-4.69674e-11
-3.60951e-12
-4.81634e-11
-4.0123e-12
-4.92218e-11
-4.44036e-12
-5.01426e-11
-4.89452e-12
-5.09258e-11
-5.37554e-12
-5.15717e-11
-5.8841e-12
-5.20805e-11
-6.42047e-12
-5.24531e-11
-8.5666e-12
-5.26909e-11
-3.69982e-11
-5.28197e-11
-3.75927e-11
-5.28319e-11
-3.82948e-11
-5.263e-11
-3.88906e-11
-5.24379e-11
-3.95376e-11
-5.21309e-11
-4.02001e-11
-5.17945e-11
-4.08639e-11
-5.1456e-11
-4.1527e-11
-5.11163e-11
-4.21897e-11
-5.07764e-11
-4.28522e-11
-5.04378e-11
-4.35142e-11
-5.01014e-11
-4.41756e-11
-4.97676e-11
-4.48362e-11
-4.94369e-11
-4.54959e-11
-4.91093e-11
-4.61546e-11
-4.8785e-11
-4.6812e-11
-4.84639e-11
-4.74682e-11
-4.81457e-11
-4.81231e-11
-4.78304e-11
-4.87766e-11
-4.75175e-11
-4.94286e-11
-4.72068e-11
-5.00791e-11
-4.6898e-11
-5.0728e-11
-4.65907e-11
-4.62847e-11
-5.13752e-11
3.41197e-15
-1.90646e-12
1.21247e-14
-5.58095e-12
2.36813e-14
-9.11648e-12
3.52771e-14
-1.25128e-11
4.43026e-14
-1.57698e-11
4.82985e-14
-1.88874e-11
4.49414e-14
-2.18657e-11
3.20004e-14
-2.47045e-11
7.33483e-15
-2.74038e-11
-3.11585e-14
-2.99636e-11
-8.55338e-14
-3.23838e-11
-1.57863e-13
-3.46642e-11
-2.50207e-13
-3.68049e-11
-3.64705e-13
-3.88057e-11
-5.03515e-13
-4.06665e-11
-6.68945e-13
-4.23871e-11
-8.6335e-13
-4.39676e-11
-1.08932e-12
-4.54076e-11
-1.34951e-12
-4.67072e-11
-1.64691e-12
-4.7866e-11
-1.98459e-12
-4.88841e-11
-2.36609e-12
-4.97611e-11
-2.79516e-12
-5.04968e-11
-3.27647e-12
-5.10904e-11
-3.81437e-12
-5.15426e-11
-4.41102e-12
-5.18565e-11
-7.51806e-12
-5.20421e-11
-3.4632e-11
-5.21229e-11
-3.53674e-11
-5.20966e-11
-3.61465e-11
-5.18509e-11
-3.69355e-11
-5.16489e-11
-3.77181e-11
-5.13483e-11
-3.84942e-11
-5.10184e-11
-3.92643e-11
-5.06859e-11
-4.00275e-11
-5.03531e-11
-4.07836e-11
-5.00203e-11
-4.1533e-11
-4.96885e-11
-4.22759e-11
-4.93584e-11
-4.30129e-11
-4.90306e-11
-4.37444e-11
-4.87054e-11
-4.44707e-11
-4.8383e-11
-4.51923e-11
-4.80634e-11
-4.59095e-11
-4.77467e-11
-4.66226e-11
-4.74326e-11
-4.73319e-11
-4.71211e-11
-4.80376e-11
-4.68118e-11
-4.87399e-11
-4.65046e-11
-4.94389e-11
-4.6199e-11
-5.01347e-11
-4.58949e-11
-4.5592e-11
-5.08274e-11
6.31799e-15
-1.91278e-12
2.06472e-14
-5.59528e-12
3.95742e-14
-9.13541e-12
6.03841e-14
-1.25336e-11
8.05552e-14
-1.57899e-11
9.77314e-14
-1.89046e-11
1.0969e-13
-2.18776e-11
1.14321e-13
-2.47091e-11
1.09596e-13
-2.73991e-11
9.35491e-14
-2.99476e-11
6.42439e-14
-3.23545e-11
1.97597e-14
-3.46198e-11
-4.18473e-14
-3.67433e-11
-1.22555e-13
-3.8725e-11
-2.2442e-13
-4.05646e-11
-3.49588e-13
-4.2262e-11
-5.00346e-13
-4.38168e-11
-6.79131e-13
-4.52289e-11
-8.88607e-13
-4.64977e-11
-1.13167e-12
-4.7623e-11
-1.41153e-12
-4.86043e-11
-1.73153e-12
-4.94411e-11
-2.09513e-12
-5.01332e-11
-2.50642e-12
-5.06791e-11
-2.97395e-12
-5.10751e-11
-3.51606e-12
-5.13144e-11
-9.52718e-12
-5.14037e-11
-3.24982e-11
-5.14725e-11
-3.31802e-11
-5.14146e-11
-3.39657e-11
-5.10654e-11
-3.47804e-11
-5.08341e-11
-3.56098e-11
-5.0519e-11
-3.64441e-11
-5.01842e-11
-3.728e-11
-4.985e-11
-3.8116e-11
-4.95171e-11
-3.89507e-11
-4.91855e-11
-3.97832e-11
-4.8856e-11
-4.06125e-11
-4.8529e-11
-4.14383e-11
-4.82049e-11
-4.226e-11
-4.78837e-11
-4.30775e-11
-4.75655e-11
-4.38904e-11
-4.72505e-11
-4.46986e-11
-4.69384e-11
-4.55021e-11
-4.66291e-11
-4.63007e-11
-4.63225e-11
-4.70945e-11
-4.60181e-11
-4.78833e-11
-4.57157e-11
-4.86672e-11
-4.54151e-11
-4.94461e-11
-4.5116e-11
-4.4818e-11
-5.02201e-11
-7.78252e-15
-1.905e-12
-3.14877e-14
-5.57158e-12
-7.10177e-14
-9.09588e-12
-1.26094e-13
-1.24785e-11
-1.96522e-13
-1.57195e-11
-2.82134e-13
-1.8819e-11
-3.82815e-13
-2.1777e-11
-4.98426e-13
-2.45935e-11
-6.28852e-13
-2.72687e-11
-7.73902e-13
-2.98025e-11
-9.3339e-13
-3.2195e-11
-1.10699e-12
-3.44462e-11
-1.29435e-12
-3.65559e-11
-1.49493e-12
-3.85244e-11
-1.70813e-12
-4.03514e-11
-1.93303e-12
-4.20371e-11
-2.16872e-12
-4.35812e-11
-2.41375e-12
-4.49838e-11
-2.66671e-12
-4.62448e-11
-2.92544e-12
-4.73643e-11
-3.18782e-12
-4.83419e-11
-3.45089e-12
-4.9178e-11
-3.71218e-12
-4.98719e-11
-3.96747e-12
-5.04238e-11
-4.20858e-12
-5.0834e-11
-4.4152e-12
-5.11078e-11
-3.72025e-11
-5.12604e-11
-4.66914e-11
-5.12573e-11
-4.68836e-11
-5.12224e-11
-4.70584e-11
-5.08905e-11
-4.72122e-11
-5.06804e-11
-4.73657e-11
-5.03655e-11
-4.75354e-11
-5.00144e-11
-4.77288e-11
-4.96566e-11
-4.79484e-11
-4.92975e-11
-4.81953e-11
-4.89386e-11
-4.847e-11
-4.85814e-11
-4.87721e-11
-4.82269e-11
-4.91009e-11
-4.7876e-11
-4.94555e-11
-4.75291e-11
-4.98344e-11
-4.71866e-11
-5.02363e-11
-4.68486e-11
-5.06596e-11
-4.6515e-11
-5.1103e-11
-4.61857e-11
-5.1565e-11
-4.58605e-11
-5.20442e-11
-4.5539e-11
-5.25391e-11
-4.52208e-11
-5.30485e-11
-4.49057e-11
-5.35713e-11
-4.45932e-11
-4.42831e-11
-5.41062e-11
-2.46608e-14
-1.88034e-12
-9.16495e-14
-5.50459e-12
-1.9663e-13
-8.9909e-12
-3.36717e-13
-1.23384e-11
-5.09327e-13
-1.55469e-11
-7.12138e-13
-1.86162e-11
-9.43029e-13
-2.15461e-11
-1.20007e-12
-2.43365e-11
-1.48143e-12
-2.69873e-11
-1.78541e-12
-2.94985e-11
-2.11033e-12
-3.18701e-11
-2.45458e-12
-3.41019e-11
-2.81647e-12
-3.61941e-11
-3.19433e-12
-3.81466e-11
-3.58634e-12
-3.99594e-11
-3.99063e-12
-4.16328e-11
-4.40508e-12
-4.31667e-11
-4.82748e-12
-4.45614e-11
-5.25528e-12
-4.5817e-11
-5.68573e-12
-4.69338e-11
-6.11568e-12
-4.79119e-11
-6.54174e-12
-4.87519e-11
-6.95978e-12
-4.94538e-11
-7.36497e-12
-5.00187e-11
-7.75158e-12
-5.04474e-11
-8.60838e-12
-5.07425e-11
-4.26998e-11
-5.09159e-11
-4.30304e-11
-5.09267e-11
-4.33973e-11
-5.08556e-11
-4.37474e-11
-5.05404e-11
-4.41262e-11
-5.03016e-11
-4.45266e-11
-4.99651e-11
-4.4941e-11
-4.95999e-11
-4.53695e-11
-4.92282e-11
-4.58127e-11
-4.88544e-11
-4.62705e-11
-4.84808e-11
-4.67427e-11
-4.81091e-11
-4.7229e-11
-4.77406e-11
-4.7729e-11
-4.7376e-11
-4.82423e-11
-4.70159e-11
-4.87682e-11
-4.66607e-11
-4.93061e-11
-4.63106e-11
-4.98556e-11
-4.59656e-11
-5.04159e-11
-4.56254e-11
-5.09865e-11
-4.52899e-11
-5.15666e-11
-4.49588e-11
-5.21557e-11
-4.46317e-11
-5.27532e-11
-4.43082e-11
-5.33585e-11
-4.3988e-11
-4.36707e-11
-5.39709e-11
-9.27344e-15
-1.87107e-12
-3.9159e-14
-5.4747e-12
-9.02017e-14
-8.93985e-12
-1.62193e-13
-1.22664e-11
-2.5488e-13
-1.54542e-11
-3.67992e-13
-1.85031e-11
-5.0123e-13
-2.14128e-11
-6.54304e-13
-2.41834e-11
-8.26906e-13
-2.68147e-11
-1.01876e-12
-2.93067e-11
-1.22959e-12
-3.16592e-11
-1.45916e-12
-3.38723e-11
-1.70725e-12
-3.5946e-11
-1.9737e-12
-3.78801e-11
-2.25839e-12
-3.96747e-11
-2.5613e-12
-4.13299e-11
-2.88241e-12
-4.28456e-11
-3.22195e-12
-4.42219e-11
-3.58008e-12
-4.54589e-11
-3.95732e-12
-4.65566e-11
-4.35412e-12
-4.75151e-11
-4.77145e-12
-4.83346e-11
-5.21011e-12
-4.90152e-11
-5.67178e-12
-4.9557e-11
-6.1585e-12
-4.99607e-11
-7.285e-12
-5.02267e-11
-3.88448e-11
-5.03757e-11
-3.93827e-11
-5.03888e-11
-3.99853e-11
-5.0253e-11
-4.05195e-11
-5.00062e-11
-4.11185e-11
-4.97025e-11
-4.17422e-11
-4.93414e-11
-4.23767e-11
-4.89655e-11
-4.30196e-11
-4.85852e-11
-4.36694e-11
-4.82045e-11
-4.43245e-11
-4.78256e-11
-4.49838e-11
-4.74498e-11
-4.56465e-11
-4.7078e-11
-4.63118e-11
-4.67106e-11
-4.69796e-11
-4.63482e-11
-4.76494e-11
-4.59909e-11
-4.83211e-11
-4.56389e-11
-4.89947e-11
-4.5292e-11
-4.96699e-11
-4.49502e-11
-5.03468e-11
-4.4613e-11
-5.10254e-11
-4.42802e-11
-5.17056e-11
-4.39515e-11
-5.23874e-11
-4.36264e-11
-5.30707e-11
-4.33047e-11
-4.2986e-11
-5.37554e-11
-2.45745e-15
-1.86861e-12
-1.15888e-14
-5.46557e-12
-2.89284e-14
-8.92251e-12
-5.58454e-14
-1.22395e-11
-9.3608e-14
-1.54165e-11
-1.43387e-13
-1.84533e-11
-2.06286e-13
-2.13499e-11
-2.83335e-13
-2.41064e-11
-3.75525e-13
-2.67225e-11
-4.838e-13
-2.91984e-11
-6.09097e-13
-3.15339e-11
-7.52324e-13
-3.37291e-11
-9.14417e-13
-3.57839e-11
-1.0963e-12
-3.76982e-11
-1.29895e-12
-3.94721e-11
-1.52337e-12
-4.11055e-11
-1.77063e-12
-4.25983e-11
-2.04182e-12
-4.39507e-11
-2.33816e-12
-4.51625e-11
-2.66089e-12
-4.62338e-11
-3.0114e-12
-4.71646e-11
-3.3911e-12
-4.79549e-11
-3.80164e-12
-4.86046e-11
-4.24485e-12
-4.91138e-11
-4.72275e-12
-4.94828e-11
-6.4813e-12
-4.97133e-11
-3.66552e-11
-4.98354e-11
-3.72087e-11
-4.98353e-11
-3.78616e-11
-4.96002e-11
-3.84911e-11
-4.93767e-11
-3.91704e-11
-4.90232e-11
-3.98772e-11
-4.86346e-11
-4.05996e-11
-4.82431e-11
-4.13328e-11
-4.7852e-11
-4.20745e-11
-4.74629e-11
-4.2823e-11
-4.70771e-11
-4.3577e-11
-4.66958e-11
-4.43353e-11
-4.63197e-11
-4.50967e-11
-4.59492e-11
-4.58605e-11
-4.55844e-11
-4.6626e-11
-4.52255e-11
-4.73925e-11
-4.48723e-11
-4.81598e-11
-4.45248e-11
-4.89274e-11
-4.41826e-11
-4.9695e-11
-4.38454e-11
-5.04625e-11
-4.35128e-11
-5.12296e-11
-4.31844e-11
-5.19961e-11
-4.28599e-11
-5.2762e-11
-4.25388e-11
-4.2221e-11
-5.3527e-11
-4.20753e-15
-1.8644e-12
-1.67059e-14
-5.45307e-12
-3.82225e-14
-8.901e-12
-6.99103e-14
-1.22078e-11
-1.12956e-13
-1.53734e-11
-1.68577e-13
-1.83977e-11
-2.38009e-13
-2.12805e-11
-3.22508e-13
-2.40219e-11
-4.23332e-13
-2.66217e-11
-5.41761e-13
-2.908e-11
-6.79061e-13
-3.13966e-11
-8.36519e-13
-3.35717e-11
-1.0154e-12
-3.5605e-11
-1.21698e-12
-3.74966e-11
-1.44251e-12
-3.92465e-11
-1.69322e-12
-4.08547e-11
-1.97032e-12
-4.23212e-11
-2.27496e-12
-4.36461e-11
-2.60822e-12
-4.48293e-11
-2.97109e-12
-4.5871e-11
-3.36443e-12
-4.67713e-11
-3.78897e-12
-4.75304e-11
-4.24533e-12
-4.81483e-11
-4.73395e-12
-4.86252e-11
-5.25463e-12
-4.89621e-11
-8.72501e-12
-4.91625e-11
-3.68947e-11
-4.92623e-11
-3.74726e-11
-4.92574e-11
-3.81045e-11
-4.89683e-11
-3.87581e-11
-4.87231e-11
-3.94149e-11
-4.83665e-11
-4.00777e-11
-4.79719e-11
-4.07493e-11
-4.75715e-11
-4.14301e-11
-4.71712e-11
-4.212e-11
-4.6773e-11
-4.28184e-11
-4.63787e-11
-4.35249e-11
-4.59893e-11
-4.42391e-11
-4.56055e-11
-4.49605e-11
-4.52278e-11
-4.56886e-11
-4.48563e-11
-4.64228e-11
-4.44913e-11
-4.71626e-11
-4.41324e-11
-4.79077e-11
-4.37797e-11
-4.86576e-11
-4.34327e-11
-4.94118e-11
-4.30911e-11
-5.017e-11
-4.27546e-11
-5.09318e-11
-4.24227e-11
-5.16967e-11
-4.2095e-11
-5.24643e-11
-4.17712e-11
-4.14509e-11
-5.32344e-11
3.94752e-15
-1.86835e-12
1.19524e-14
-5.46108e-12
2.08064e-14
-8.90985e-12
2.7699e-14
-1.22147e-11
2.99707e-14
-1.53757e-11
2.5105e-14
-1.83928e-11
1.06765e-14
-2.12661e-11
-1.56444e-14
-2.39955e-11
-5.61646e-14
-2.65812e-11
-1.1315e-13
-2.9023e-11
-1.88925e-13
-3.13209e-11
-2.85831e-13
-3.34748e-11
-4.0635e-13
-3.54845e-11
-5.53045e-13
-3.73499e-11
-7.2867e-13
-3.90709e-11
-9.36135e-13
-4.06473e-11
-1.17851e-12
-4.20789e-11
-1.45912e-12
-4.33654e-11
-1.78126e-12
-4.45071e-11
-2.14868e-12
-4.55035e-11
-2.56472e-12
-4.63552e-11
-3.03368e-12
-4.70614e-11
-3.55918e-12
-4.76228e-11
-4.14598e-12
-4.80384e-11
-4.79441e-12
-4.83136e-11
-1.12799e-11
-4.84593e-11
-3.65653e-11
-4.85022e-11
-3.73639e-11
-4.84588e-11
-3.81658e-11
-4.81663e-11
-3.89416e-11
-4.79474e-11
-3.97132e-11
-4.75949e-11
-4.04929e-11
-4.71921e-11
-4.12834e-11
-4.6781e-11
-4.20828e-11
-4.63717e-11
-4.28885e-11
-4.59673e-11
-4.36983e-11
-4.5569e-11
-4.45104e-11
-4.51772e-11
-4.53236e-11
-4.47923e-11
-4.6137e-11
-4.44144e-11
-4.69499e-11
-4.40434e-11
-4.77618e-11
-4.36793e-11
-4.85725e-11
-4.33217e-11
-4.93818e-11
-4.29704e-11
-5.01895e-11
-4.2625e-11
-5.09956e-11
-4.22851e-11
-5.17999e-11
-4.19502e-11
-5.26026e-11
-4.162e-11
-5.34035e-11
-4.1294e-11
-5.42027e-11
-4.09719e-11
-4.06534e-11
-5.50002e-11
-1.02528e-15
-1.86732e-12
-7.63975e-15
-5.45446e-12
-2.19319e-14
-8.89556e-12
-4.52165e-14
-1.21914e-11
-7.86589e-14
-1.53422e-11
-1.23304e-13
-1.83481e-11
-1.80094e-13
-2.12093e-11
-2.49897e-13
-2.39257e-11
-3.3352e-13
-2.64976e-11
-4.31736e-13
-2.89248e-11
-5.45293e-13
-3.12073e-11
-6.74947e-13
-3.33451e-11
-8.21464e-13
-3.5338e-11
-9.85658e-13
-3.71857e-11
-1.16839e-12
-3.88882e-11
-1.37063e-12
-4.0445e-11
-1.59344e-12
-4.18561e-11
-1.83806e-12
-4.31208e-11
-2.10592e-12
-4.42393e-11
-2.3987e-12
-4.52108e-11
-2.71814e-12
-4.60358e-11
-3.06598e-12
-4.67136e-11
-3.44442e-12
-4.72443e-11
-3.86066e-12
-4.76221e-11
-4.33319e-12
-4.78411e-11
-1.6513e-11
-4.79055e-11
-3.60096e-11
-4.79645e-11
-3.65723e-11
-4.78961e-11
-3.71049e-11
-4.76337e-11
-3.77024e-11
-4.73499e-11
-3.83462e-11
-4.69511e-11
-3.90189e-11
-4.65194e-11
-3.97124e-11
-4.60875e-11
-4.04232e-11
-4.56609e-11
-4.11493e-11
-4.52412e-11
-4.18892e-11
-4.4829e-11
-4.26418e-11
-4.44246e-11
-4.3406e-11
-4.40281e-11
-4.41809e-11
-4.36395e-11
-4.49656e-11
-4.32587e-11
-4.57594e-11
-4.28855e-11
-4.65615e-11
-4.25196e-11
-4.73712e-11
-4.21608e-11
-4.81876e-11
-4.18086e-11
-4.90102e-11
-4.14625e-11
-4.98382e-11
-4.11223e-11
-5.06709e-11
-4.07873e-11
-5.15077e-11
-4.04572e-11
-5.2348e-11
-4.01316e-11
-3.98102e-11
-5.31913e-11
-2.44672e-14
-1.84286e-12
-9.18009e-14
-5.38713e-12
-1.97547e-13
-8.78981e-12
-3.38168e-13
-1.20508e-11
-5.10316e-13
-1.51701e-11
-7.10856e-13
-1.81476e-11
-9.36756e-13
-2.09834e-11
-1.18514e-12
-2.36773e-11
-1.4531e-12
-2.62296e-11
-1.73782e-12
-2.86401e-11
-2.03629e-12
-3.09088e-11
-2.34552e-12
-3.30359e-11
-2.66214e-12
-3.50213e-11
-2.98271e-12
-3.68652e-11
-3.30335e-12
-3.85675e-11
-3.61996e-12
-4.01284e-11
-3.92811e-12
-4.15479e-11
-4.22294e-12
-4.2826e-11
-4.49968e-12
-4.39625e-11
-4.75278e-12
-4.49577e-11
-4.97784e-12
-4.58107e-11
-5.1695e-12
-4.65219e-11
-5.32384e-12
-4.709e-11
-5.42797e-12
-4.7518e-11
-5.4576e-12
-4.78115e-11
-4.92847e-11
-4.79876e-11
-4.95445e-11
-4.79634e-11
-4.94965e-11
-4.7944e-11
-4.98368e-11
-4.72934e-11
-5.02619e-11
-4.69248e-11
-5.07044e-11
-4.65085e-11
-5.11384e-11
-4.60855e-11
-5.156e-11
-4.56659e-11
-5.19737e-11
-4.52473e-11
-5.23855e-11
-4.48294e-11
-5.28008e-11
-4.44137e-11
-5.32238e-11
-4.40016e-11
-5.36574e-11
-4.35945e-11
-5.41037e-11
-4.31932e-11
-5.45639e-11
-4.27985e-11
-5.50389e-11
-4.24105e-11
-5.55289e-11
-4.20296e-11
-5.60339e-11
-4.16557e-11
-5.6554e-11
-4.12885e-11
-5.70886e-11
-4.09279e-11
-5.76373e-11
-4.05735e-11
-5.81996e-11
-4.0225e-11
-5.87749e-11
-3.98819e-11
-5.93627e-11
-3.95439e-11
-3.92106e-11
-5.99622e-11
-2.528e-14
-1.81758e-12
-9.63379e-14
-5.31607e-12
-2.0942e-13
-8.67673e-12
-3.61378e-13
-1.18988e-11
-5.49287e-13
-1.49822e-11
-7.70381e-13
-1.79265e-11
-1.02206e-12
-2.07317e-11
-1.30182e-12
-2.33976e-11
-1.60728e-12
-2.59241e-11
-1.93607e-12
-2.83113e-11
-2.28593e-12
-3.0559e-11
-2.65454e-12
-3.26673e-11
-3.03963e-12
-3.46362e-11
-3.43884e-12
-3.6466e-11
-3.84982e-12
-3.81566e-11
-4.27005e-12
-3.97082e-11
-4.69699e-12
-4.1121e-11
-5.12788e-12
-4.23951e-11
-5.55994e-12
-4.35305e-11
-5.99011e-12
-4.45275e-11
-6.4152e-12
-4.53857e-11
-6.83139e-12
-4.61057e-11
-7.23444e-12
-4.66869e-11
-7.62126e-12
-4.71312e-11
-8.47465e-12
-4.74368e-11
-4.41154e-11
-4.76124e-11
-4.44449e-11
-4.76339e-11
-4.48338e-11
-4.75551e-11
-4.50902e-11
-4.70371e-11
-4.54048e-11
-4.66103e-11
-4.57617e-11
-4.61515e-11
-4.61475e-11
-4.56998e-11
-4.65587e-11
-4.52546e-11
-4.69948e-11
-4.48112e-11
-4.74552e-11
-4.4369e-11
-4.79393e-11
-4.39296e-11
-4.84465e-11
-4.34944e-11
-4.8976e-11
-4.30649e-11
-4.95272e-11
-4.26421e-11
-5.00991e-11
-4.22265e-11
-5.06909e-11
-4.18187e-11
-5.13016e-11
-4.14189e-11
-5.19304e-11
-4.10269e-11
-5.25762e-11
-4.06428e-11
-5.3238e-11
-4.02661e-11
-5.3915e-11
-3.98965e-11
-5.46062e-11
-3.95338e-11
-5.53106e-11
-3.91774e-11
-5.60274e-11
-3.88271e-11
-3.84824e-11
-5.67556e-11
-8.12304e-15
-1.80945e-12
-3.52904e-14
-5.2889e-12
-8.27564e-14
-8.62927e-12
-1.5096e-13
-1.18306e-11
-2.40233e-13
-1.48929e-11
-3.50798e-13
-1.78159e-11
-4.82822e-13
-2.05997e-11
-6.364e-13
-2.3244e-11
-8.11637e-13
-2.57489e-11
-1.0086e-12
-2.81143e-11
-1.22746e-12
-3.03401e-11
-1.46837e-12
-3.24264e-11
-1.73167e-12
-3.43729e-11
-2.01776e-12
-3.61799e-11
-2.32722e-12
-3.78471e-11
-2.66078e-12
-3.93746e-11
-3.01931e-12
-4.07624e-11
-3.40388e-12
-4.20105e-11
-3.81556e-12
-4.31188e-11
-4.25577e-12
-4.40873e-11
-4.72553e-12
-4.49159e-11
-5.22662e-12
-4.56046e-11
-5.76008e-12
-4.61535e-11
-6.32858e-12
-4.65627e-11
-7.41182e-12
-4.68326e-11
-4.11504e-11
-4.69816e-11
-4.17934e-11
-4.69909e-11
-4.25632e-11
-4.67853e-11
-4.32417e-11
-4.63586e-11
-4.39347e-11
-4.59172e-11
-4.46323e-11
-4.54539e-11
-4.53379e-11
-4.49941e-11
-4.60552e-11
-4.45373e-11
-4.67834e-11
-4.4083e-11
-4.75201e-11
-4.36323e-11
-4.82632e-11
-4.31864e-11
-4.90113e-11
-4.27464e-11
-4.97632e-11
-4.2313e-11
-5.05182e-11
-4.1887e-11
-5.1276e-11
-4.14688e-11
-5.20361e-11
-4.10586e-11
-5.27985e-11
-4.06565e-11
-5.35631e-11
-4.02624e-11
-5.43298e-11
-3.9876e-11
-5.50989e-11
-3.94971e-11
-5.58702e-11
-3.91252e-11
-5.66438e-11
-3.87601e-11
-5.74199e-11
-3.84014e-11
-5.81984e-11
-3.80486e-11
-3.77015e-11
-5.89793e-11
-6.95366e-15
-1.8025e-12
-2.81347e-14
-5.26772e-12
-6.42399e-14
-8.59316e-12
-1.16107e-13
-1.17788e-11
-1.84485e-13
-1.48245e-11
-2.70064e-13
-1.77304e-11
-3.73467e-13
-2.04963e-11
-4.95283e-13
-2.31222e-11
-6.3605e-13
-2.56081e-11
-7.96301e-13
-2.7954e-11
-9.76529e-13
-3.01599e-11
-1.17725e-12
-3.22256e-11
-1.39896e-12
-3.41512e-11
-1.64218e-12
-3.59366e-11
-1.90745e-12
-3.75818e-11
-2.19534e-12
-3.90868e-11
-2.50643e-12
-4.04513e-11
-2.84139e-12
-4.16756e-11
-3.20085e-12
-4.27593e-11
-3.58554e-12
-4.37026e-11
-3.99618e-12
-4.45053e-11
-4.43362e-12
-4.51672e-11
-4.89885e-12
-4.56882e-11
-5.39293e-12
-4.60686e-11
-6.92836e-12
-4.63095e-11
-3.92857e-11
-4.6439e-11
-3.98366e-11
-4.644e-11
-4.05622e-11
-4.60597e-11
-4.12435e-11
-4.56772e-11
-4.19469e-11
-4.52138e-11
-4.26604e-11
-4.47404e-11
-4.33812e-11
-4.42734e-11
-4.41095e-11
-4.3809e-11
-4.48458e-11
-4.33467e-11
-4.55902e-11
-4.28879e-11
-4.63425e-11
-4.24341e-11
-4.71026e-11
-4.19864e-11
-4.787e-11
-4.15456e-11
-4.86445e-11
-4.11125e-11
-4.94259e-11
-4.06874e-11
-5.0214e-11
-4.02705e-11
-5.10086e-11
-3.9862e-11
-5.18093e-11
-3.94616e-11
-5.26161e-11
-3.90692e-11
-5.34288e-11
-3.86844e-11
-5.4247e-11
-3.8307e-11
-5.50707e-11
-3.79365e-11
-5.58995e-11
-3.75726e-11
-5.67332e-11
-3.72149e-11
-3.68632e-11
-5.75715e-11
-8.614e-15
-1.79388e-12
-3.46435e-14
-5.24169e-12
-7.83898e-14
-8.54941e-12
-1.40237e-13
-1.17169e-11
-2.20635e-13
-1.47441e-11
-3.20073e-13
-1.76309e-11
-4.39085e-13
-2.03773e-11
-5.78219e-13
-2.29831e-11
-7.38051e-13
-2.54483e-11
-9.19158e-13
-2.77729e-11
-1.12213e-12
-2.99569e-11
-1.34754e-12
-3.20002e-11
-1.59596e-12
-3.39028e-11
-1.86794e-12
-3.56647e-11
-2.16401e-12
-3.72858e-11
-2.48464e-12
-3.87661e-11
-2.83028e-12
-4.01057e-11
-3.20126e-12
-4.13046e-11
-3.59789e-12
-4.23627e-11
-4.02032e-12
-4.32802e-11
-4.46861e-12
-4.4057e-11
-4.94266e-12
-4.46931e-11
-5.44223e-12
-4.51887e-11
-5.96658e-12
-4.55443e-11
-8.84493e-12
-4.5762e-11
-3.94685e-11
-4.58743e-11
-4.0034e-11
-4.58745e-11
-4.06922e-11
-4.54015e-11
-4.1377e-11
-4.49925e-11
-4.20766e-11
-4.45142e-11
-4.27936e-11
-4.40235e-11
-4.35286e-11
-4.35384e-11
-4.428e-11
-4.30576e-11
-4.50457e-11
-4.2581e-11
-4.58242e-11
-4.21095e-11
-4.66141e-11
-4.16442e-11
-4.74142e-11
-4.11862e-11
-4.82238e-11
-4.07361e-11
-4.90419e-11
-4.02943e-11
-4.9868e-11
-3.98613e-11
-5.07014e-11
-3.94371e-11
-5.15416e-11
-3.90217e-11
-5.23882e-11
-3.8615e-11
-5.32408e-11
-3.82166e-11
-5.40989e-11
-3.78263e-11
-5.49623e-11
-3.74436e-11
-5.58306e-11
-3.70682e-11
-5.67034e-11
-3.66998e-11
-5.75804e-11
-3.63379e-11
-3.59823e-11
-5.84612e-11
-4.46546e-15
-1.78942e-12
-1.88976e-14
-5.22726e-12
-4.45244e-14
-8.52379e-12
-8.26463e-14
-1.16788e-11
-1.34529e-13
-1.46923e-11
-2.01421e-13
-1.7564e-11
-2.84545e-13
-2.02941e-11
-3.85122e-13
-2.28825e-11
-5.04353e-13
-2.53291e-11
-6.43456e-13
-2.76338e-11
-8.03635e-13
-2.97967e-11
-9.86129e-13
-3.18177e-11
-1.19217e-12
-3.36968e-11
-1.42304e-12
-3.54338e-11
-1.68003e-12
-3.70288e-11
-1.96451e-12
-3.84816e-11
-2.27784e-12
-3.97924e-11
-2.62152e-12
-4.09609e-11
-2.99699e-12
-4.19872e-11
-3.40591e-12
-4.28712e-11
-3.84994e-12
-4.36129e-11
-4.33115e-12
-4.42119e-11
-4.85132e-12
-4.46685e-11
-5.4109e-12
-4.49847e-11
-1.02258e-11
-4.51674e-11
-3.87564e-11
-4.52457e-11
-3.94016e-11
-4.52293e-11
-4.00852e-11
-4.4718e-11
-4.07893e-11
-4.42884e-11
-4.15111e-11
-4.37923e-11
-4.22508e-11
-4.32838e-11
-4.30077e-11
-4.27815e-11
-4.37803e-11
-4.2285e-11
-4.45671e-11
-4.17942e-11
-4.53667e-11
-4.13098e-11
-4.61781e-11
-4.08328e-11
-4.70003e-11
-4.03639e-11
-4.78326e-11
-3.99038e-11
-4.86743e-11
-3.94527e-11
-4.95247e-11
-3.90109e-11
-5.03833e-11
-3.85785e-11
-5.12496e-11
-3.81555e-11
-5.21231e-11
-3.77415e-11
-5.30034e-11
-3.73363e-11
-5.389e-11
-3.69396e-11
-5.47827e-11
-3.6551e-11
-5.56809e-11
-3.617e-11
-5.65843e-11
-3.57964e-11
-5.74925e-11
-3.54297e-11
-3.50696e-11
-5.84052e-11
7.68329e-16
-2.1736e-16
-5.62701e-15
-1.77267e-14
-3.86044e-14
-7.01977e-14
-1.14333e-13
-1.72744e-13
-2.47111e-13
-3.39073e-13
-4.50278e-13
-5.8238e-13
-7.37104e-13
-9.16232e-13
-1.12169e-12
-1.3555e-12
-1.61991e-12
-1.91736e-12
-2.25058e-12
-2.62244e-12
-3.03617e-12
-3.4955e-12
-4.00654e-12
-4.57898e-12
-1.27226e-11
-3.7787e-11
-3.84899e-11
-3.92478e-11
-4.00254e-11
-4.0824e-11
-4.16406e-11
-4.24733e-11
-4.33206e-11
-4.41811e-11
-4.50538e-11
-4.59375e-11
-4.68314e-11
-4.77347e-11
-4.86465e-11
-4.95663e-11
-5.04932e-11
-5.14268e-11
-5.23665e-11
-5.33117e-11
-5.4262e-11
-5.52169e-11
-5.6176e-11
-5.71388e-11
-5.8105e-11
-5.90743e-11
-5.31535e-11
-4.76968e-11
-5.35501e-11
-4.73902e-11
-5.39484e-11
-4.70839e-11
-5.43483e-11
-4.67777e-11
-5.47496e-11
-4.64714e-11
-5.51521e-11
-4.61648e-11
-5.55556e-11
-4.58579e-11
-5.59598e-11
-4.55506e-11
-5.63646e-11
-4.52429e-11
-5.67696e-11
-4.49346e-11
-5.71747e-11
-4.46258e-11
-5.75797e-11
-4.43164e-11
-5.79844e-11
-4.40064e-11
-5.83884e-11
-4.36958e-11
-5.87916e-11
-4.33845e-11
-5.91939e-11
-4.30727e-11
-5.95948e-11
-4.27602e-11
-5.99944e-11
-4.24472e-11
-6.03923e-11
-4.21335e-11
-6.07885e-11
-4.18192e-11
-6.11826e-11
-4.15044e-11
-6.15745e-11
-4.11891e-11
-6.19641e-11
-4.08732e-11
-6.23511e-11
-4.05568e-11
-6.27354e-11
-4.024e-11
-6.31169e-11
-3.99228e-11
-6.34953e-11
-3.96052e-11
-6.38706e-11
-3.92872e-11
-6.42426e-11
-3.8969e-11
-6.46112e-11
-3.86506e-11
-6.49761e-11
-3.8332e-11
-6.53374e-11
-3.80133e-11
-6.56949e-11
-3.76946e-11
-6.60484e-11
-3.73759e-11
-6.63979e-11
-3.70573e-11
-6.67433e-11
-3.67388e-11
-6.70844e-11
-3.64206e-11
-6.74212e-11
-3.61026e-11
-6.77535e-11
-3.5785e-11
-6.80813e-11
-3.54677e-11
-6.84046e-11
-3.51508e-11
-6.87232e-11
-3.48342e-11
-6.90371e-11
-3.45181e-11
-6.93462e-11
-3.42023e-11
-6.96505e-11
-3.38868e-11
-6.99499e-11
-3.35716e-11
-7.02444e-11
-3.32567e-11
-7.05339e-11
-3.29412e-11
-7.08185e-11
-3.2622e-11
-3.23013e-11
-7.10943e-11
-5.39828e-11
-4.72281e-11
-5.44542e-11
-4.69188e-11
-5.49281e-11
-4.661e-11
-5.54043e-11
-4.63015e-11
-5.58824e-11
-4.59933e-11
-5.63622e-11
-4.5685e-11
-5.68433e-11
-4.53768e-11
-5.73255e-11
-4.50684e-11
-5.78085e-11
-4.47599e-11
-5.82919e-11
-4.44512e-11
-5.87755e-11
-4.41422e-11
-5.92589e-11
-4.3833e-11
-5.97419e-11
-4.35234e-11
-6.02241e-11
-4.32135e-11
-6.07053e-11
-4.29033e-11
-6.11852e-11
-4.25928e-11
-6.16634e-11
-4.2282e-11
-6.21398e-11
-4.19708e-11
-6.26141e-11
-4.16592e-11
-6.3086e-11
-4.13474e-11
-6.35552e-11
-4.10352e-11
-6.40215e-11
-4.07227e-11
-6.44848e-11
-4.041e-11
-6.49446e-11
-4.00969e-11
-6.54009e-11
-3.97837e-11
-6.58534e-11
-3.94703e-11
-6.6302e-11
-3.91566e-11
-6.67463e-11
-3.88429e-11
-6.71863e-11
-3.85291e-11
-6.76217e-11
-3.82152e-11
-6.80524e-11
-3.79013e-11
-6.84781e-11
-3.75876e-11
-6.88989e-11
-3.72739e-11
-6.93144e-11
-3.69604e-11
-6.97245e-11
-3.66472e-11
-7.01291e-11
-3.63342e-11
-7.05281e-11
-3.60216e-11
-7.09214e-11
-3.57094e-11
-7.13087e-11
-3.53976e-11
-7.16901e-11
-3.50863e-11
-7.20654e-11
-3.47755e-11
-7.24345e-11
-3.44651e-11
-7.27973e-11
-3.41553e-11
-7.31538e-11
-3.38458e-11
-7.35038e-11
-3.35368e-11
-7.38474e-11
-3.32281e-11
-7.41844e-11
-3.29197e-11
-7.45148e-11
-3.26108e-11
-7.48387e-11
-3.22982e-11
-3.1981e-11
-7.5159e-11
-5.19266e-11
-4.66251e-11
-5.25264e-11
-4.6319e-11
-5.31231e-11
-4.60133e-11
-5.37166e-11
-4.5708e-11
-5.4307e-11
-4.54029e-11
-5.48941e-11
-4.50979e-11
-5.5478e-11
-4.47929e-11
-5.60585e-11
-4.44879e-11
-5.66356e-11
-4.41828e-11
-5.72093e-11
-4.38775e-11
-5.77794e-11
-4.35721e-11
-5.83459e-11
-4.32665e-11
-5.89087e-11
-4.29606e-11
-5.94677e-11
-4.26546e-11
-6.00227e-11
-4.23483e-11
-6.05737e-11
-4.20418e-11
-6.11206e-11
-4.17351e-11
-6.16633e-11
-4.14281e-11
-6.22016e-11
-4.11209e-11
-6.27355e-11
-4.08135e-11
-6.32649e-11
-4.05058e-11
-6.37896e-11
-4.0198e-11
-6.43095e-11
-3.989e-11
-6.48246e-11
-3.95818e-11
-6.53348e-11
-3.92736e-11
-6.58398e-11
-3.89652e-11
-6.63397e-11
-3.86567e-11
-6.68344e-11
-3.83483e-11
-6.73236e-11
-3.80398e-11
-6.78074e-11
-3.77314e-11
-6.82857e-11
-3.74231e-11
-6.87583e-11
-3.7115e-11
-6.92252e-11
-3.6807e-11
-6.96862e-11
-3.64993e-11
-7.01414e-11
-3.6192e-11
-7.05905e-11
-3.5885e-11
-7.10337e-11
-3.55785e-11
-7.14706e-11
-3.52724e-11
-7.19014e-11
-3.49668e-11
-7.2326e-11
-3.46618e-11
-7.27442e-11
-3.43573e-11
-7.3156e-11
-3.40533e-11
-7.35614e-11
-3.37499e-11
-7.39603e-11
-3.34469e-11
-7.43526e-11
-3.31444e-11
-7.47383e-11
-3.28423e-11
-7.51174e-11
-3.25406e-11
-7.54899e-11
-3.22384e-11
-7.58556e-11
-3.19325e-11
-3.16244e-11
-7.62121e-11
-5.20206e-11
-4.59797e-11
-5.26642e-11
-4.56754e-11
-5.33057e-11
-4.53718e-11
-5.3945e-11
-4.50687e-11
-5.45821e-11
-4.47659e-11
-5.52167e-11
-4.44633e-11
-5.58487e-11
-4.41609e-11