/*--------------------------------*- C++ -*----------------------------------*\
| =========                 |                                                 |
| \\      /  F ield         | OpenFOAM: The Open Source CFD Toolbox           |
|  \\    /   O peration     | Version:  2.4.0                                 |
|   \\  /    A nd           | Web:      www.OpenFOAM.org                      |
|    \\/     M anipulation  |                                                 |
\*---------------------------------------------------------------------------*/
FoamFile
{
    version     2.0;
    format      ascii;
    class       volVectorField;
    location    "1.8";
    object      U;
}
// * * * * * * * * * * * * * * * * * * * * * * * * * * * * * * * * * * * * * //

dimensions      [0 1 -1 0 0 0 0];

internalField   nonuniform List<vector> 
8000
(
(-1.86237e-07 -0.000202352 0)
(-1.17223e-06 -0.000591175 0)
(-2.89523e-06 -0.000964328 0)
(-5.22855e-06 -0.00132199 0)
(-8.06789e-06 -0.00166432 0)
(-1.13406e-05 -0.00199145 0)
(-1.49857e-05 -0.00230348 0)
(-1.89532e-05 -0.00260051 0)
(-2.31924e-05 -0.00288264 0)
(-2.76633e-05 -0.00314992 0)
(-3.23219e-05 -0.00340241 0)
(-3.71365e-05 -0.00364015 0)
(-4.20663e-05 -0.00386318 0)
(-4.70851e-05 -0.00407152 0)
(-5.21522e-05 -0.00426519 0)
(-5.72451e-05 -0.00444417 0)
(-6.23193e-05 -0.00460847 0)
(-6.7353e-05 -0.00475806 0)
(-7.22922e-05 -0.00489293 0)
(-7.71202e-05 -0.00501301 0)
(-8.18033e-05 -0.00511827 0)
(-8.63816e-05 -0.00520864 0)
(-9.06877e-05 -0.00528407 0)
(-9.39286e-05 -0.00534441 0)
(-9.44994e-05 -0.00538938 0)
(-9.45799e-05 -0.00541853 0)
(-0.000114189 -0.00543251 0)
(-0.000187926 -0.00543599 0)
(-0.000299034 -0.00543649 0)
(-0.000401601 -0.00543684 0)
(-0.000501247 -0.00543107 0)
(-0.000370837 -0.00541409 0)
(-0.000361381 -0.00538245 0)
(-0.000369133 -0.00534846 0)
(-0.000375653 -0.00531507 0)
(-0.000379014 -0.00528194 0)
(-0.000381613 -0.00524885 0)
(-0.000384324 -0.00521583 0)
(-0.000387185 -0.00518296 0)
(-0.000390103 -0.00515031 0)
(-0.000393045 -0.00511791 0)
(-0.000396006 -0.00508578 0)
(-0.000398991 -0.00505393 0)
(-0.000401999 -0.00502235 0)
(-0.00040503 -0.00499102 0)
(-0.000408083 -0.00495991 0)
(-0.000411157 -0.004929 0)
(-0.000414251 -0.00489826 0)
(-0.000417364 -0.00486763 0)
(-0.000420496 -0.0048371 0)
(-3.24346e-08 -0.000191958 0)
(-6.57311e-07 -0.000562724 0)
(-1.95938e-06 -0.000920204 0)
(-3.89927e-06 -0.00126428 0)
(-6.39821e-06 -0.00159484 0)
(-9.38875e-06 -0.0019118 0)
(-1.28135e-05 -0.0022151 0)
(-1.66235e-05 -0.00250468 0)
(-2.07706e-05 -0.00278049 0)
(-2.52128e-05 -0.0030425 0)
(-2.99067e-05 -0.00329067 0)
(-3.48158e-05 -0.003525 0)
(-3.98987e-05 -0.00374547 0)
(-4.51234e-05 -0.00395206 0)
(-5.04479e-05 -0.00414479 0)
(-5.58428e-05 -0.00432366 0)
(-6.12629e-05 -0.00448868 0)
(-6.66795e-05 -0.00463987 0)
(-7.20388e-05 -0.00477725 0)
(-7.73182e-05 -0.00490087 0)
(-8.24823e-05 -0.00501075 0)
(-8.75542e-05 -0.00510696 0)
(-9.23588e-05 -0.00518956 0)
(-9.61828e-05 -0.0052586 0)
(-9.77361e-05 -0.00531419 0)
(-9.9491e-05 -0.00535646 0)
(-0.000118702 -0.00538555 0)
(-0.000185512 -0.00540251 0)
(-0.000290516 -0.00540606 0)
(-0.000412665 -0.00540798 0)
(-0.000493154 -0.0053765 0)
(-0.000366709 -0.00535482 0)
(-0.000358068 -0.00532406 0)
(-0.000366508 -0.00529057 0)
(-0.000373506 -0.00525673 0)
(-0.000377343 -0.00522277 0)
(-0.000380428 -0.0051888 0)
(-0.00038363 -0.00515494 0)
(-0.000386986 -0.00512126 0)
(-0.000390405 -0.00508782 0)
(-0.000393854 -0.00505466 0)
(-0.00039733 -0.0050218 0)
(-0.000400838 -0.00498924 0)
(-0.000404377 -0.00495698 0)
(-0.000407949 -0.00492499 0)
(-0.00041155 -0.00489326 0)
(-0.000415182 -0.00486174 0)
(-0.000418842 -0.00483041 0)
(-0.00042253 -0.00479922 0)
(-0.000426243 -0.00476816 0)
(-3.52216e-08 -0.000192138 0)
(-2.37534e-07 -0.000562675 0)
(-6.29488e-07 -0.000919476 0)
(-1.20471e-06 -0.00126253 0)
(-1.9593e-06 -0.00159184 0)
(-2.8926e-06 -0.00190738 0)
(-4.0011e-06 -0.00220916 0)
(-5.2826e-06 -0.00249717 0)
(-6.72991e-06 -0.0027714 0)
(-8.33946e-06 -0.00303186 0)
(-1.01016e-05 -0.00327853 0)
(-1.20129e-05 -0.00351143 0)
(-1.40618e-05 -0.00373055 0)
(-1.62465e-05 -0.00393589 0)
(-1.85537e-05 -0.00412747 0)
(-2.09849e-05 -0.00430529 0)
(-2.35245e-05 -0.00446936 0)
(-2.61777e-05 -0.0046197 0)
(-2.89252e-05 -0.00475632 0)
(-3.17843e-05 -0.00487923 0)
(-3.47589e-05 -0.00498847 0)
(-3.79134e-05 -0.00508406 0)
(-4.11235e-05 -0.00516603 0)
(-4.3795e-05 -0.0052344 0)
(-4.48756e-05 -0.00528922 0)
(-4.7046e-05 -0.00533055 0)
(-6.5817e-05 -0.0053585 0)
(-0.000130493 -0.0053746 0)
(-0.000237129 -0.00537726 0)
(-0.000389637 -0.00537262 0)
(-0.000417566 -0.00534314 0)
(-0.000318725 -0.00532146 0)
(-0.000314332 -0.00529087 0)
(-0.000324215 -0.00525784 0)
(-0.000332453 -0.00522432 0)
(-0.000338042 -0.00519059 0)
(-0.00034301 -0.00515679 0)
(-0.000348055 -0.00512306 0)
(-0.00035319 -0.00508947 0)
(-0.000358328 -0.0050561 0)
(-0.00036344 -0.00502297 0)
(-0.000368521 -0.00499012 0)
(-0.000373574 -0.00495756 0)
(-0.000378599 -0.00492527 0)
(-0.000383595 -0.00489325 0)
(-0.000388564 -0.00486147 0)
(-0.000393506 -0.00482991 0)
(-0.00039842 -0.00479854 0)
(-0.000403308 -0.00476732 0)
(-0.00040817 -0.00473622 0)
(-2.07084e-09 -0.000190002 0)
(-1.03099e-07 -0.000556589 0)
(-3.36186e-07 -0.000909719 0)
(-7.08817e-07 -0.00124936 0)
(-1.2208e-06 -0.00157546 0)
(-1.87422e-06 -0.001888 0)
(-2.66984e-06 -0.00218695 0)
(-3.61187e-06 -0.00247229 0)
(-4.70064e-06 -0.002744 0)
(-5.94147e-06 -0.00300206 0)
(-7.3337e-06 -0.00324646 0)
(-8.88428e-06 -0.00347717 0)
(-1.05912e-05 -0.0036942 0)
(-1.24639e-05 -0.00389753 0)
(-1.44984e-05 -0.00408715 0)
(-1.67076e-05 -0.00426306 0)
(-1.90845e-05 -0.00442525 0)
(-2.16457e-05 -0.00457372 0)
(-2.4379e-05 -0.00470847 0)
(-2.73137e-05 -0.0048295 0)
(-3.04549e-05 -0.00493681 0)
(-3.38616e-05 -0.00503039 0)
(-3.73821e-05 -0.00511026 0)
(-4.0487e-05 -0.0051764 0)
(-4.24821e-05 -0.00522883 0)
(-4.6802e-05 -0.00526758 0)
(-6.67409e-05 -0.00529277 0)
(-0.000127265 -0.00530702 0)
(-0.00023708 -0.00530807 0)
(-0.000470444 -0.00529113 0)
(-0.000332089 -0.00526829 0)
(-0.000307856 -0.00523718 0)
(-0.000313709 -0.00520257 0)
(-0.000323272 -0.00516793 0)
(-0.000329817 -0.00513343 0)
(-0.000335069 -0.00509916 0)
(-0.000340207 -0.00506517 0)
(-0.000345457 -0.00503153 0)
(-0.000350753 -0.00499824 0)
(-0.000356048 -0.00496531 0)
(-0.000361331 -0.00493274 0)
(-0.000366605 -0.00490052 0)
(-0.000371869 -0.00486862 0)
(-0.000377124 -0.00483703 0)
(-0.000382368 -0.00480572 0)
(-0.000387602 -0.00477464 0)
(-0.000392824 -0.00474378 0)
(-0.000398034 -0.00471308 0)
(-0.000403232 -0.00468252 0)
(-0.000408416 -0.00465207 0)
(5.06836e-09 -0.000190479 0)
(5.69825e-08 -0.000557662 0)
(1.41128e-07 -0.000911064 0)
(2.38052e-07 -0.00125067 0)
(3.26017e-07 -0.00157648 0)
(3.82514e-07 -0.00188847 0)
(3.90255e-07 -0.00218664 0)
(3.28681e-07 -0.00247098 0)
(1.83407e-07 -0.00274149 0)
(-6.61909e-08 -0.00299816 0)
(-4.32192e-07 -0.00324098 0)
(-9.36508e-07 -0.00346995 0)
(-1.58904e-06 -0.00368507 0)
(-2.41447e-06 -0.00388633 0)
(-3.42046e-06 -0.00407374 0)
(-4.63624e-06 -0.0042473 0)
(-6.06654e-06 -0.00440701 0)
(-7.74664e-06 -0.00455287 0)
(-9.67728e-06 -0.00468489 0)
(-1.19099e-05 -0.00480309 0)
(-1.44612e-05 -0.00490747 0)
(-1.74046e-05 -0.00499806 0)
(-2.0589e-05 -0.00507486 0)
(-2.35782e-05 -0.00513793 0)
(-2.59912e-05 -0.00518726 0)
(-3.1776e-05 -0.00522297 0)
(-5.2181e-05 -0.00524527 0)
(-0.000108605 -0.0052573 0)
(-0.000223928 -0.00525838 0)
(-0.000475542 -0.00523798 0)
(-0.00029138 -0.00521818 0)
(-0.000287161 -0.00518898 0)
(-0.00030001 -0.00515656 0)
(-0.000310918 -0.00512344 0)
(-0.000317668 -0.00508992 0)
(-0.000323439 -0.00505617 0)
(-0.000329283 -0.00502239 0)
(-0.000335228 -0.0049887 0)
(-0.000341159 -0.00495519 0)
(-0.000347039 -0.00492192 0)
(-0.00035287 -0.00488894 0)
(-0.000358661 -0.00485626 0)
(-0.000364415 -0.00482388 0)
(-0.000370136 -0.0047918 0)
(-0.000375825 -0.00476 0)
(-0.000381485 -0.00472846 0)
(-0.000387116 -0.00469715 0)
(-0.000392721 -0.00466604 0)
(-0.0003983 -0.0046351 0)
(-0.000403854 -0.0046043 0)
(1.47679e-08 -0.000190917 0)
(9.91237e-08 -0.000558681 0)
(2.34638e-07 -0.000912385 0)
(3.98014e-07 -0.00125203 0)
(5.67547e-07 -0.00157763 0)
(7.21018e-07 -0.00188916 0)
(8.42708e-07 -0.00218664 0)
(9.12206e-07 -0.00247006 0)
(9.17042e-07 -0.00273943 0)
(8.36369e-07 -0.00299472 0)
(6.60627e-07 -0.00323593 0)
(3.67154e-07 -0.00346305 0)
(-5.06467e-08 -0.00367606 0)
(-6.19051e-07 -0.00387495 0)
(-1.34137e-06 -0.0040597 0)
(-2.24975e-06 -0.00423027 0)
(-3.34302e-06 -0.00438666 0)
(-4.66139e-06 -0.00452881 0)
(-6.19873e-06 -0.0046567 0)
(-8.01726e-06 -0.00477027 0)
(-1.0124e-05 -0.0048695 0)
(-1.25847e-05 -0.00495431 0)
(-1.51693e-05 -0.00502468 0)
(-1.74521e-05 -0.00508041 0)
(-1.95385e-05 -0.0051214 0)
(-2.701e-05 -0.00514759 0)
(-5.07168e-05 -0.00516039 0)
(-0.000102152 -0.0051663 0)
(-0.000222361 -0.00516094 0)
(-0.000453886 -0.0051305 0)
(-0.000269408 -0.00510767 0)
(-0.000269437 -0.00507656 0)
(-0.000283635 -0.00504333 0)
(-0.000294939 -0.00501027 0)
(-0.000302099 -0.00497745 0)
(-0.000308441 -0.00494484 0)
(-0.000314938 -0.00491246 0)
(-0.000321568 -0.00488033 0)
(-0.000328204 -0.00484846 0)
(-0.000334801 -0.00481686 0)
(-0.000341359 -0.00478553 0)
(-0.00034788 -0.00475446 0)
(-0.000354365 -0.00472364 0)
(-0.000360812 -0.00469306 0)
(-0.00036722 -0.00466269 0)
(-0.00037359 -0.00463251 0)
(-0.00037992 -0.00460249 0)
(-0.000386211 -0.00457262 0)
(-0.000392463 -0.00454285 0)
(-0.000398674 -0.00451317 0)
(-1.06193e-08 -0.000191556 0)
(-1.30001e-07 -0.000560253 0)
(-3.78985e-07 -0.000914578 0)
(-7.57314e-07 -0.00125457 0)
(-1.25953e-06 -0.00158025 0)
(-1.88465e-06 -0.00189164 0)
(-2.62948e-06 -0.00218877 0)
(-3.49566e-06 -0.00247165 0)
(-4.47917e-06 -0.00274028 0)
(-5.58258e-06 -0.00299468 0)
(-6.79989e-06 -0.00323485 0)
(-8.1345e-06 -0.00346079 0)
(-9.57731e-06 -0.00367248 0)
(-1.11325e-05 -0.00386992 0)
(-1.27866e-05 -0.00405309 0)
(-1.45444e-05 -0.00422199 0)
(-1.63842e-05 -0.00437657 0)
(-1.83095e-05 -0.00451682 0)
(-2.02936e-05 -0.00464269 0)
(-2.23775e-05 -0.00475416 0)
(-2.45874e-05 -0.00485118 0)
(-2.68516e-05 -0.00493371 0)
(-2.82609e-05 -0.00500167 0)
(-2.70941e-05 -0.00505497 0)
(-2.53488e-05 -0.00509343 0)
(-4.54794e-05 -0.00511714 0)
(-0.000125992 -0.00512717 0)
(-0.000248503 -0.00512865 0)
(-0.000395188 -0.00512201 0)
(-0.000577435 -0.00508805 0)
(-0.000374919 -0.005066 0)
(-0.00036462 -0.00503476 0)
(-0.000374233 -0.00500075 0)
(-0.000380958 -0.00496649 0)
(-0.000383225 -0.00493228 0)
(-0.00038472 -0.00489819 0)
(-0.000386608 -0.00486431 0)
(-0.000388893 -0.0048307 0)
(-0.000391433 -0.00479741 0)
(-0.000394177 -0.00476446 0)
(-0.000397114 -0.00473187 0)
(-0.000400239 -0.00469965 0)
(-0.000403543 -0.00466779 0)
(-0.000407013 -0.00463627 0)
(-0.000410638 -0.00460506 0)
(-0.000414405 -0.00457414 0)
(-0.000418304 -0.00454347 0)
(-0.000422324 -0.00451303 0)
(-0.000426455 -0.00448277 0)
(-0.000430687 -0.00445268 0)
(-4.57414e-08 -0.000189255 0)
(-3.98678e-07 -0.000553786 0)
(-1.0805e-06 -0.000904328 0)
(-2.0642e-06 -0.00124087 0)
(-3.32127e-06 -0.00156339 0)
(-4.82727e-06 -0.0018719 0)
(-6.56697e-06 -0.00216637 0)
(-8.52145e-06 -0.0024468 0)
(-1.06797e-05 -0.0027132 0)
(-1.30231e-05 -0.00296557 0)
(-1.55437e-05 -0.00320389 0)
(-1.82216e-05 -0.00342819 0)
(-2.10519e-05 -0.00363845 0)
(-2.40116e-05 -0.0038347 0)
(-2.70983e-05 -0.00401692 0)
(-3.02837e-05 -0.00418515 0)
(-3.35665e-05 -0.00433938 0)
(-3.69085e-05 -0.00447966 0)
(-4.03171e-05 -0.00460597 0)
(-4.3777e-05 -0.00471838 0)
(-4.73525e-05 -0.00481687 0)
(-5.08709e-05 -0.00490156 0)
(-5.35328e-05 -0.0049724 0)
(-5.38376e-05 -0.00502956 0)
(-5.46144e-05 -0.00507303 0)
(-7.67151e-05 -0.00510312 0)
(-0.000153269 -0.00512014 0)
(-0.000269219 -0.00512254 0)
(-0.000404536 -0.00512237 0)
(-0.00049387 -0.00508574 0)
(-0.000352497 -0.00506406 0)
(-0.000344349 -0.00503203 0)
(-0.000353692 -0.00499618 0)
(-0.000361099 -0.00495928 0)
(-0.000365124 -0.00492199 0)
(-0.000368462 -0.0048846 0)
(-0.000372029 -0.00484732 0)
(-0.000375843 -0.00481031 0)
(-0.0003798 -0.00477368 0)
(-0.00038386 -0.00473751 0)
(-0.000388018 -0.00470183 0)
(-0.000392274 -0.00466667 0)
(-0.000396625 -0.00463203 0)
(-0.000401065 -0.0045979 0)
(-0.00040559 -0.00456425 0)
(-0.000410194 -0.00453105 0)
(-0.000414872 -0.00449826 0)
(-0.00041962 -0.00446585 0)
(-0.000424432 -0.00443377 0)
(-0.000429304 -0.00440199 0)
(-1.01916e-08 -0.000187055 0)
(-1.57431e-07 -0.000547485 0)
(-4.76074e-07 -0.000894198 0)
(-9.67311e-07 -0.00122716 0)
(-1.627e-06 -0.00154632 0)
(-2.45072e-06 -0.00185167 0)
(-3.43712e-06 -0.00214318 0)
(-4.58249e-06 -0.00242083 0)
(-5.88636e-06 -0.0026846 0)
(-7.34402e-06 -0.00293448 0)
(-8.9562e-06 -0.00317047 0)
(-1.07171e-05 -0.00339255 0)
(-1.26295e-05 -0.00360072 0)
(-1.46863e-05 -0.00379498 0)
(-1.68933e-05 -0.00397534 0)
(-1.92411e-05 -0.0041418 0)
(-2.17393e-05 -0.00429436 0)
(-2.43739e-05 -0.00443305 0)
(-2.71667e-05 -0.00455787 0)
(-3.0126e-05 -0.00466884 0)
(-3.33197e-05 -0.00476599 0)
(-3.66174e-05 -0.00484933 0)
(-3.94159e-05 -0.00491891 0)
(-4.06795e-05 -0.00497476 0)
(-4.33201e-05 -0.00501697 0)
(-6.29458e-05 -0.00504562 0)
(-0.000129952 -0.00506246 0)
(-0.000243251 -0.00506438 0)
(-0.000440284 -0.00504905 0)
(-0.000398207 -0.00502574 0)
(-0.000326917 -0.00499874 0)
(-0.000324495 -0.00496328 0)
(-0.000333938 -0.00492604 0)
(-0.000341544 -0.00488849 0)
(-0.000347022 -0.0048509 0)
(-0.000352064 -0.00481347 0)
(-0.000357227 -0.0047763 0)
(-0.000362504 -0.00473949 0)
(-0.000367824 -0.00470309 0)
(-0.000373161 -0.00466715 0)
(-0.000378512 -0.0046317 0)
(-0.000383879 -0.00459674 0)
(-0.00038926 -0.00456228 0)
(-0.000394655 -0.0045283 0)
(-0.000400064 -0.00449476 0)
(-0.000405486 -0.00446166 0)
(-0.000410921 -0.00442894 0)
(-0.000416369 -0.00439658 0)
(-0.000421829 -0.00436455 0)
(-0.000427301 -0.00433281 0)
(-2.01707e-09 -0.00018712 0)
(-4.22022e-08 -0.000547397 0)
(-1.44371e-07 -0.000893713 0)
(-3.18377e-07 -0.00122607 0)
(-5.75066e-07 -0.00154445 0)
(-9.22587e-07 -0.00184887 0)
(-1.3717e-06 -0.00213931 0)
(-1.92881e-06 -0.00241578 0)
(-2.60464e-06 -0.00267827 0)
(-3.40364e-06 -0.00292678 0)
(-4.33727e-06 -0.00316131 0)
(-5.40808e-06 -0.00338184 0)
(-6.62923e-06 -0.00358839 0)
(-8.00117e-06 -0.00378095 0)
(-9.53998e-06 -0.00395952 0)
(-1.12432e-05 -0.00412409 0)
(-1.31304e-05 -0.00427466 0)
(-1.51944e-05 -0.00441124 0)
(-1.74667e-05 -0.00453381 0)
(-1.99589e-05 -0.00464237 0)
(-2.27345e-05 -0.00473693 0)
(-2.56561e-05 -0.00481748 0)
(-2.81945e-05 -0.00488401 0)
(-2.96058e-05 -0.00493651 0)
(-3.31943e-05 -0.00497502 0)
(-5.21666e-05 -0.00499965 0)
(-0.000114144 -0.00501307 0)
(-0.00023069 -0.00501358 0)
(-0.000488331 -0.00499853 0)
(-0.000314893 -0.00497558 0)
(-0.000301214 -0.00494233 0)
(-0.000310937 -0.00490499 0)
(-0.000321363 -0.00486686 0)
(-0.00032811 -0.00482842 0)
(-0.000333811 -0.00478994 0)
(-0.000339598 -0.00475166 0)
(-0.000345574 -0.00471372 0)
(-0.000351634 -0.0046762 0)
(-0.000357721 -0.00463917 0)
(-0.000363825 -0.00460266 0)
(-0.000369943 -0.0045667 0)
(-0.000376072 -0.00453129 0)
(-0.000382208 -0.00449642 0)
(-0.000388348 -0.00446206 0)
(-0.00039449 -0.00442819 0)
(-0.000400631 -0.00439477 0)
(-0.000406769 -0.00436176 0)
(-0.000412904 -0.00432913 0)
(-0.000419034 -0.00429684 0)
(-0.000425158 -0.00426487 0)
(-7.32373e-09 -0.00018655 0)
(-6.81657e-08 -0.000545644 0)
(-2.00519e-07 -0.000890721 0)
(-4.10648e-07 -0.00122177 0)
(-7.07707e-07 -0.00153877 0)
(-1.09951e-06 -0.00184172 0)
(-1.59785e-06 -0.00213061 0)
(-2.21026e-06 -0.00240543 0)
(-2.94999e-06 -0.00266617 0)
(-3.82325e-06 -0.00291283 0)
(-4.84509e-06 -0.00314541 0)
(-6.01975e-06 -0.00336391 0)
(-7.36477e-06 -0.0035683 0)
(-8.88145e-06 -0.00375861 0)
(-1.05907e-05 -0.00393481 0)
(-1.24893e-05 -0.00409691 0)
(-1.46018e-05 -0.0042449 0)
(-1.6918e-05 -0.00437879 0)
(-1.94762e-05 -0.00449858 0)
(-2.22792e-05 -0.00460426 0)
(-2.53821e-05 -0.00469585 0)
(-2.85941e-05 -0.00477334 0)
(-3.14018e-05 -0.00483674 0)
(-3.33861e-05 -0.00488605 0)
(-3.88844e-05 -0.00492133 0)
(-6.0325e-05 -0.00494279 0)
(-0.000119549 -0.00495381 0)
(-0.000240331 -0.00495351 0)
(-0.000501952 -0.0049249 0)
(-0.000304528 -0.00489781 0)
(-0.000300277 -0.00486079 0)
(-0.000312921 -0.00482075 0)
(-0.000323225 -0.00478059 0)
(-0.000329228 -0.00474073 0)
(-0.000334372 -0.00470129 0)
(-0.000339739 -0.00466236 0)
(-0.000345337 -0.004624 0)
(-0.000351035 -0.00458625 0)
(-0.000356785 -0.00454913 0)
(-0.000362585 -0.00451265 0)
(-0.000368434 -0.0044768 0)
(-0.000374331 -0.00444156 0)
(-0.000380272 -0.0044069 0)
(-0.000386253 -0.00437281 0)
(-0.00039227 -0.00433923 0)
(-0.00039832 -0.00430612 0)
(-0.000404401 -0.00427345 0)
(-0.000410508 -0.00424117 0)
(-0.000416639 -0.00420926 0)
(-0.000422791 -0.00417767 0)
(9.78953e-09 -0.000186425 0)
(6.16063e-08 -0.000545108 0)
(1.32186e-07 -0.000889611 0)
(2.00582e-07 -0.00121992 0)
(2.4209e-07 -0.00153604 0)
(2.37349e-07 -0.00183794 0)
(1.64186e-07 -0.00212562 0)
(6.74804e-09 -0.00239907 0)
(-2.57182e-07 -0.0026583 0)
(-6.41267e-07 -0.00290329 0)
(-1.16924e-06 -0.00313405 0)
(-1.85327e-06 -0.00335056 0)
(-2.7201e-06 -0.00355284 0)
(-3.78121e-06 -0.00374087 0)
(-5.06775e-06 -0.00391466 0)
(-6.59069e-06 -0.00407421 0)
(-8.38596e-06 -0.00421953 0)
(-1.04643e-05 -0.00435061 0)
(-1.28785e-05 -0.00446748 0)
(-1.5659e-05 -0.00457015 0)
(-1.88567e-05 -0.00465865 0)
(-2.22497e-05 -0.00473299 0)
(-2.53209e-05 -0.0047932 0)
(-2.81346e-05 -0.00483929 0)
(-3.66903e-05 -0.00487135 0)
(-6.35262e-05 -0.00488983 0)
(-0.000122255 -0.00489859 0)
(-0.00024933 -0.00489798 0)
(-0.000503885 -0.00487021 0)
(-0.000303377 -0.00484771 0)
(-0.000301605 -0.00481361 0)
(-0.000315776 -0.00477496 0)
(-0.000327098 -0.00473519 0)
(-0.000334005 -0.00469509 0)
(-0.000340066 -0.00465501 0)
(-0.000346342 -0.00461518 0)
(-0.000352811 -0.00457575 0)
(-0.000359328 -0.00453684 0)
(-0.000365843 -0.00449849 0)
(-0.00037235 -0.00446077 0)
(-0.00037885 -0.00442367 0)
(-0.00038534 -0.00438721 0)
(-0.00039182 -0.00435136 0)
(-0.000398288 -0.00431611 0)
(-0.000404743 -0.00428141 0)
(-0.000411185 -0.00424723 0)
(-0.000417613 -0.00421353 0)
(-0.000424028 -0.00418028 0)
(-0.000430428 -0.00414744 0)
(-0.000436815 -0.00411498 0)
(3.08769e-09 -0.000187259 0)
(-2.17981e-08 -0.000547128 0)
(-1.02095e-07 -0.000892379 0)
(-2.49132e-07 -0.00122304 0)
(-4.74407e-07 -0.00153912 0)
(-7.84037e-07 -0.00184064 0)
(-1.18896e-06 -0.00212761 0)
(-1.69245e-06 -0.00240005 0)
(-2.30607e-06 -0.00265795 0)
(-3.03006e-06 -0.00290132 0)
(-3.87791e-06 -0.00313014 0)
(-4.84646e-06 -0.0033444 0)
(-5.95297e-06 -0.00354407 0)
(-7.19009e-06 -0.00372913 0)
(-8.58113e-06 -0.00389954 0)
(-1.01125e-05 -0.00405526 0)
(-1.18156e-05 -0.00419626 0)
(-1.36708e-05 -0.00432249 0)
(-1.57388e-05 -0.00443395 0)
(-1.80193e-05 -0.00453056 0)
(-2.05509e-05 -0.00461241 0)
(-2.29342e-05 -0.00467934 0)
(-2.44891e-05 -0.00473145 0)
(-2.58378e-05 -0.00476835 0)
(-3.6408e-05 -0.00479046 0)
(-7.26842e-05 -0.00479908 0)
(-0.000136135 -0.00480169 0)
(-0.000266337 -0.00479379 0)
(-0.000486124 -0.00476853 0)
(-0.000293844 -0.00474649 0)
(-0.000291384 -0.00470936 0)
(-0.000304605 -0.00466695 0)
(-0.000314921 -0.00462405 0)
(-0.000321044 -0.00458186 0)
(-0.000326437 -0.00454061 0)
(-0.000332122 -0.00450032 0)
(-0.000338076 -0.00446098 0)
(-0.00034416 -0.00442252 0)
(-0.000350325 -0.0043849 0)
(-0.000356567 -0.00434809 0)
(-0.000362882 -0.00431203 0)
(-0.000369268 -0.00427668 0)
(-0.000375716 -0.00424199 0)
(-0.000382223 -0.00420791 0)
(-0.00038878 -0.00417439 0)
(-0.000395384 -0.00414139 0)
(-0.000402028 -0.00410886 0)
(-0.000408708 -0.00407675 0)
(-0.000415418 -0.00404503 0)
(-0.000422153 -0.00401366 0)
(-4.35108e-08 -0.000185983 0)
(-3.97832e-07 -0.00054344 0)
(-1.0847e-06 -0.000886417 0)
(-2.07513e-06 -0.00121494 0)
(-3.33344e-06 -0.00152903 0)
(-4.83113e-06 -0.00182869 0)
(-6.54235e-06 -0.00211394 0)
(-8.44614e-06 -0.00238479 0)
(-1.05157e-05 -0.00264126 0)
(-1.27345e-05 -0.00288333 0)
(-1.50699e-05 -0.00311101 0)
(-1.75117e-05 -0.0033243 0)
(-2.00159e-05 -0.0035232 0)
(-2.25797e-05 -0.00370769 0)
(-2.51441e-05 -0.00387776 0)
(-2.77099e-05 -0.0040334 0)
(-3.02017e-05 -0.00417458 0)
(-3.26259e-05 -0.00430129 0)
(-3.49488e-05 -0.0044135 0)
(-3.7251e-05 -0.00451118 0)
(-3.93484e-05 -0.0045943 0)
(-4.01203e-05 -0.00466281 0)
(-3.73309e-05 -0.00471663 0)
(-3.38276e-05 -0.00475564 0)
(-5.85609e-05 -0.00477993 0)
(-0.000159599 -0.00479037 0)
(-0.000310553 -0.00479097 0)
(-0.000451061 -0.00478537 0)
(-0.000577971 -0.00473922 0)
(-0.000399995 -0.00470623 0)
(-0.000390967 -0.0046654 0)
(-0.000402211 -0.00462269 0)
(-0.000410728 -0.00458025 0)
(-0.000414718 -0.0045382 0)
(-0.000417649 -0.00449657 0)
(-0.000420739 -0.00445545 0)
(-0.000424056 -0.0044149 0)
(-0.000427492 -0.004375 0)
(-0.000431016 -0.00433578 0)
(-0.000434641 -0.00429726 0)
(-0.000438379 -0.00425947 0)
(-0.000442238 -0.00422239 0)
(-0.000446218 -0.004186 0)
(-0.000450319 -0.00415027 0)
(-0.000454538 -0.00411517 0)
(-0.000458872 -0.00408066 0)
(-0.000463318 -0.00404669 0)
(-0.000467869 -0.00401324 0)
(-0.000472523 -0.00398026 0)
(-0.000477273 -0.00394773 0)
(-4.28201e-08 -0.000182623 0)
(-4.13331e-07 -0.000534038 0)
(-1.1428e-06 -0.000871597 0)
(-2.20713e-06 -0.00119527 0)
(-3.57275e-06 -0.00150504 0)
(-5.21519e-06 -0.00180089 0)
(-7.11082e-06 -0.00208279 0)
(-9.24224e-06 -0.00235073 0)
(-1.15869e-05 -0.00260472 0)
(-1.41296e-05 -0.00284474 0)
(-1.68475e-05 -0.00307081 0)
(-1.97274e-05 -0.00328293 0)
(-2.27453e-05 -0.00348113 0)
(-2.58892e-05 -0.00366541 0)
(-2.91331e-05 -0.00383582 0)
(-3.2464e-05 -0.00399236 0)
(-3.58506e-05 -0.00413507 0)
(-3.92862e-05 -0.00426398 0)
(-4.27704e-05 -0.00437908 0)
(-4.63522e-05 -0.00448043 0)
(-4.98769e-05 -0.00456794 0)
(-5.24925e-05 -0.00464175 0)
(-5.26747e-05 -0.00470167 0)
(-5.33412e-05 -0.00474805 0)
(-7.613e-05 -0.00478062 0)
(-0.000155679 -0.00479993 0)
(-0.000276508 -0.00480244 0)
(-0.000424016 -0.00480371 0)
(-0.00050708 -0.00473908 0)
(-0.000362902 -0.00469667 0)
(-0.000354096 -0.00465281 0)
(-0.00036334 -0.00460974 0)
(-0.000370655 -0.00456714 0)
(-0.000374595 -0.00452433 0)
(-0.000377909 -0.00448126 0)
(-0.000381532 -0.00443816 0)
(-0.000385478 -0.00439526 0)
(-0.000389638 -0.00435275 0)
(-0.00039397 -0.00431078 0)
(-0.000398465 -0.00426945 0)
(-0.000403122 -0.00422883 0)
(-0.000407934 -0.00418896 0)
(-0.000412894 -0.00414984 0)
(-0.000417994 -0.00411147 0)
(-0.000423227 -0.00407382 0)
(-0.000428584 -0.00403688 0)
(-0.000434059 -0.0040006 0)
(-0.000439643 -0.00396494 0)
(-0.00044533 -0.00392988 0)
(-0.000451111 -0.00389537 0)
(-7.92451e-09 -0.000181071 0)
(-1.39e-07 -0.000529436 0)
(-4.31669e-07 -0.000864002 0)
(-8.92678e-07 -0.00118474 0)
(-1.52202e-06 -0.00149164 0)
(-2.32149e-06 -0.00178466 0)
(-3.29123e-06 -0.00206379 0)
(-4.43395e-06 -0.00232903 0)
(-5.74838e-06 -0.00258035 0)
(-7.23779e-06 -0.00281776 0)
(-8.89969e-06 -0.00304123 0)
(-1.07396e-05 -0.00325078 0)
(-1.27541e-05 -0.00344638 0)
(-1.4953e-05 -0.00362805 0)
(-1.73311e-05 -0.00379578 0)
(-1.99042e-05 -0.00394957 0)
(-2.26622e-05 -0.00408942 0)
(-2.56352e-05 -0.00421535 0)
(-2.88373e-05 -0.00432734 0)
(-3.23494e-05 -0.00442542 0)
(-3.60414e-05 -0.00450956 0)
(-3.92656e-05 -0.00457979 0)
(-4.08697e-05 -0.00463612 0)
(-4.38092e-05 -0.00467859 0)
(-6.5073e-05 -0.00470725 0)
(-0.000137232 -0.00472357 0)
(-0.000256478 -0.00472508 0)
(-0.000468683 -0.004707 0)
(-0.000423908 -0.00466311 0)
(-0.000349154 -0.00461957 0)
(-0.000346914 -0.00457208 0)
(-0.000357185 -0.00452538 0)
(-0.000365524 -0.0044795 0)
(-0.000371634 -0.00443415 0)
(-0.000377306 -0.00438929 0)
(-0.000383125 -0.004345 0)
(-0.00038908 -0.00430135 0)
(-0.000395089 -0.00425842 0)
(-0.000401121 -0.00421624 0)
(-0.000407174 -0.00417487 0)
(-0.000413245 -0.00413431 0)
(-0.000419335 -0.00409456 0)
(-0.000425442 -0.00405562 0)
(-0.000431568 -0.00401745 0)
(-0.000437711 -0.00398003 0)
(-0.000443872 -0.00394332 0)
(-0.000450051 -0.00390727 0)
(-0.00045625 -0.00387185 0)
(-0.000462468 -0.00383702 0)
(-0.000468705 -0.00380275 0)
(-1.06182e-08 -0.000180734 0)
(-1.14708e-07 -0.000528218 0)
(-3.38694e-07 -0.000861725 0)
(-6.88891e-07 -0.00118126 0)
(-1.16828e-06 -0.00148682 0)
(-1.78345e-06 -0.00177841 0)
(-2.53753e-06 -0.00205601 0)
(-3.43806e-06 -0.00231964 0)
(-4.48635e-06 -0.0025693 0)
(-5.69056e-06 -0.00280497 0)
(-7.05006e-06 -0.00302665 0)
(-8.57453e-06 -0.00323435 0)
(-1.02613e-05 -0.00342806 0)
(-1.21225e-05 -0.00360777 0)
(-1.41525e-05 -0.00377349 0)
(-1.63664e-05 -0.0039252 0)
(-1.87535e-05 -0.00406289 0)
(-2.134e-05 -0.00418657 0)
(-2.41363e-05 -0.00429623 0)
(-2.72059e-05 -0.00439184 0)
(-3.04074e-05 -0.00447341 0)
(-3.31471e-05 -0.00454091 0)
(-3.45199e-05 -0.00459433 0)
(-3.7809e-05 -0.00463369 0)
(-5.78188e-05 -0.00465906 0)
(-0.000124979 -0.00467282 0)
(-0.000246151 -0.00467322 0)
(-0.000517667 -0.00464705 0)
(-0.000340306 -0.00460812 0)
(-0.000323576 -0.00456359 0)
(-0.000332864 -0.00451771 0)
(-0.000343499 -0.00447215 0)
(-0.000350339 -0.00442656 0)
(-0.000356015 -0.004381 0)
(-0.000361753 -0.00433563 0)
(-0.0003677 -0.00429065 0)
(-0.000373757 -0.00424619 0)
(-0.000379875 -0.00420237 0)
(-0.000386045 -0.00415926 0)
(-0.000392269 -0.00411691 0)
(-0.000398547 -0.00407536 0)
(-0.000404878 -0.00403462 0)
(-0.00041126 -0.00399468 0)
(-0.00041769 -0.00395552 0)
(-0.000424168 -0.00391711 0)
(-0.000430692 -0.00387943 0)
(-0.00043726 -0.00384243 0)
(-0.000443871 -0.00380607 0)
(-0.000450521 -0.00377033 0)
(-0.00045721 -0.00373517 0)
(-1.26534e-08 -0.000179774 0)
(-1.42677e-07 -0.000525342 0)
(-4.16453e-07 -0.000856925 0)
(-8.3759e-07 -0.00117452 0)
(-1.40547e-06 -0.00147811 0)
(-2.12456e-06 -0.00176769 0)
(-2.99655e-06 -0.00204326 0)
(-4.02894e-06 -0.00230482 0)
(-5.22249e-06 -0.00255236 0)
(-6.58649e-06 -0.00278587 0)
(-8.11992e-06 -0.00300535 0)
(-9.83437e-06 -0.0032108 0)
(-1.17261e-05 -0.00340221 0)
(-1.38098e-05 -0.00357958 0)
(-1.60773e-05 -0.0037429 0)
(-1.85465e-05 -0.00389217 0)
(-2.12023e-05 -0.00402739 0)
(-2.40753e-05 -0.00414855 0)
(-2.71665e-05 -0.00425565 0)
(-3.05301e-05 -0.00434868 0)
(-3.39804e-05 -0.00442764 0)
(-3.69508e-05 -0.00449251 0)
(-3.8832e-05 -0.0045433 0)
(-4.37509e-05 -0.00458003 0)
(-6.5402e-05 -0.00460286 0)
(-0.000129465 -0.00461482 0)
(-0.000254133 -0.0046148 0)
(-0.00053308 -0.00456973 0)
(-0.000326091 -0.00452799 0)
(-0.000320908 -0.00448043 0)
(-0.000334109 -0.00443203 0)
(-0.00034515 -0.00438428 0)
(-0.000351752 -0.00433698 0)
(-0.000357476 -0.0042901 0)
(-0.000363459 -0.00424373 0)
(-0.00036971 -0.00419796 0)
(-0.000376086 -0.00415289 0)
(-0.000382534 -0.00410858 0)
(-0.000389047 -0.00406508 0)
(-0.000395625 -0.00402242 0)
(-0.000402263 -0.00398061 0)
(-0.000408959 -0.00393965 0)
(-0.000415707 -0.00389952 0)
(-0.000422504 -0.0038602 0)
(-0.000429348 -0.00382166 0)
(-0.000436235 -0.00378385 0)
(-0.000443162 -0.00374675 0)
(-0.000450127 -0.00371031 0)
(-0.000457127 -0.00367451 0)
(-0.000464159 -0.00363931 0)
(-5.93596e-09 -0.000179012 0)
(-7.44541e-08 -0.00052301 0)
(-2.29842e-07 -0.00085297 0)
(-4.8241e-07 -0.00116888 0)
(-8.39555e-07 -0.00147073 0)
(-1.31294e-06 -0.0017585 0)
(-1.90972e-06 -0.00203219 0)
(-2.64315e-06 -0.0022918 0)
(-3.51866e-06 -0.00253731 0)
(-4.55115e-06 -0.00276873 0)
(-5.74393e-06 -0.00298604 0)
(-7.11445e-06 -0.00318926 0)
(-8.66336e-06 -0.00337836 0)
(-1.04118e-05 -0.00355337 0)
(-1.23566e-05 -0.00371427 0)
(-1.45232e-05 -0.00386107 0)
(-1.69031e-05 -0.00399377 0)
(-1.95381e-05 -0.00411239 0)
(-2.24365e-05 -0.00421692 0)
(-2.56508e-05 -0.00430738 0)
(-2.89643e-05 -0.00438379 0)
(-3.1835e-05 -0.00444615 0)
(-3.40272e-05 -0.00449448 0)
(-4.0783e-05 -0.00452884 0)
(-6.51628e-05 -0.00454951 0)
(-0.000126715 -0.00455995 0)
(-0.000257049 -0.0045601 0)
(-0.000530244 -0.0045111 0)
(-0.000318372 -0.00446979 0)
(-0.000315628 -0.00442163 0)
(-0.000329744 -0.004372 0)
(-0.000341003 -0.00432274 0)
(-0.000347697 -0.00427385 0)
(-0.000353559 -0.00422536 0)
(-0.00035971 -0.00417741 0)
(-0.000366134 -0.0041301 0)
(-0.000372685 -0.00408354 0)
(-0.000379313 -0.0040378 0)
(-0.000386011 -0.00399293 0)
(-0.000392779 -0.00394897 0)
(-0.000399616 -0.00390593 0)
(-0.000406517 -0.0038638 0)
(-0.000413477 -0.00382257 0)
(-0.000420493 -0.0037822 0)
(-0.000427561 -0.00374267 0)
(-0.000434679 -0.00370393 0)
(-0.000441843 -0.00366595 0)
(-0.000449051 -0.0036287 0)
(-0.000456298 -0.00359212 0)
(-0.000463582 -0.0035562 0)
(4.58513e-09 -0.000178924 0)
(9.26986e-09 -0.000522516 0)
(-1.20336e-08 -0.000851858 0)
(-7.82062e-08 -0.00116695 0)
(-2.05545e-07 -0.00146779 0)
(-4.12314e-07 -0.00175437 0)
(-7.10808e-07 -0.00202669 0)
(-1.11866e-06 -0.00228476 0)
(-1.64512e-06 -0.00252856 0)
(-2.30878e-06 -0.0027581 0)
(-3.11614e-06 -0.00297337 0)
(-4.08843e-06 -0.00317436 0)
(-5.22932e-06 -0.00336106 0)
(-6.56474e-06 -0.00353347 0)
(-8.09449e-06 -0.00369157 0)
(-9.8509e-06 -0.00383534 0)
(-1.18301e-05 -0.0039648 0)
(-1.40868e-05 -0.00407989 0)
(-1.66363e-05 -0.00418063 0)
(-1.95277e-05 -0.00426698 0)
(-2.24787e-05 -0.00433894 0)
(-2.49231e-05 -0.00439641 0)
(-2.7096e-05 -0.00443935 0)
(-3.61045e-05 -0.00446776 0)
(-6.56836e-05 -0.00448259 0)
(-0.000126438 -0.00448899 0)
(-0.000263238 -0.00448576 0)
(-0.000521035 -0.00443138 0)
(-0.0003108 -0.00438684 0)
(-0.000309601 -0.00433575 0)
(-0.000324636 -0.00428376 0)
(-0.000336476 -0.00423266 0)
(-0.000343731 -0.00418235 0)
(-0.000350175 -0.00413276 0)
(-0.000356914 -0.00408393 0)
(-0.000363921 -0.00403591 0)
(-0.000371049 -0.00398877 0)
(-0.000378247 -0.00394254 0)
(-0.000385509 -0.00389726 0)
(-0.000392836 -0.00385293 0)
(-0.000400224 -0.00380955 0)
(-0.000407667 -0.00376712 0)
(-0.000415161 -0.00372561 0)
(-0.000422702 -0.00368499 0)
(-0.000430285 -0.00364522 0)
(-0.000437907 -0.00360627 0)
(-0.000445563 -0.0035681 0)
(-0.000453252 -0.00353066 0)
(-0.000460969 -0.00349393 0)
(-0.000468712 -0.00345787 0)
(-0.000423645 -0.00480663 0)
(-0.000426811 -0.00477618 0)
(-0.000429991 -0.00474575 0)
(-0.000433184 -0.0047153 0)
(-0.000436389 -0.00468483 0)
(-0.000439605 -0.00465431 0)
(-0.000442829 -0.00462374 0)
(-0.00044606 -0.0045931 0)
(-0.000449297 -0.0045624 0)
(-0.000452536 -0.00453162 0)
(-0.000455777 -0.00450076 0)
(-0.000459018 -0.00446983 0)