/*--------------------------------*- C++ -*----------------------------------*\
| =========                 |                                                 |
| \\      /  F ield         | OpenFOAM: The Open Source CFD Toolbox           |
|  \\    /   O peration     | Version:  2.4.0                                 |
|   \\  /    A nd           | Web:      www.OpenFOAM.org                      |
|    \\/     M anipulation  |                                                 |
\*---------------------------------------------------------------------------*/
FoamFile
{
    version     2.0;
    format      ascii;
    class       volScalarField;
    location    "4.7";
    object      p_rgh;
}
// * * * * * * * * * * * * * * * * * * * * * * * * * * * * * * * * * * * * * //

dimensions      [1 -1 -2 0 0 0 0];

internalField   nonuniform List<scalar> 
125
(
0.00107666
0.00107568
0.00107368
0.00107451
0.00107703
0.000400827
0.000400743
0.000400478
0.00040059
0.000400869
1.63268e-05
1.64334e-05
1.66098e-05
1.65389e-05
1.6286e-05
-4.47188e-05
-4.46612e-05
-4.45308e-05
-4.45828e-05
-4.47509e-05
-2.03521e-05
-2.03295e-05
-2.02625e-05
-2.02882e-05
-2.03721e-05
-5.52918e-06
-5.50992e-06
-5.45924e-06
-5.47828e-06
-5.54592e-06
-3.30042e-06
-3.27795e-06
-3.22623e-06
-3.24576e-06
-3.31715e-06
-4.27018e-06
-4.24673e-06
-4.19354e-06
-4.21375e-06
-4.28699e-06
-4.85528e-06
-4.83234e-06
-4.77956e-06
-4.79966e-06
-4.87182e-06
-4.93814e-06
-4.91587e-06
-4.86418e-06
-4.88388e-06
-4.95429e-06
-4.89507e-06
-4.87331e-06
-4.82272e-06
-4.84202e-06
-4.91084e-06
-4.86776e-06
-4.84643e-06
-4.79685e-06
-4.81578e-06
-4.88316e-06
-4.86045e-06
-4.83955e-06
-4.79095e-06
-4.80952e-06
-4.87549e-06
-4.85807e-06
-4.83761e-06
-4.78998e-06
-4.8082e-06
-4.87277e-06
-4.85502e-06
-4.835e-06
-4.78834e-06
-4.80619e-06
-4.86937e-06
-4.85115e-06
-4.83155e-06
-4.78585e-06
-4.80335e-06
-4.86515e-06
-4.84704e-06
-4.82787e-06
-4.78313e-06
-4.80028e-06
-4.86071e-06
-4.84294e-06
-4.82419e-06
-4.78039e-06
-4.79718e-06
-4.85627e-06
-4.83883e-06
-4.8205e-06
-4.77765e-06
-4.79408e-06
-4.85184e-06
-4.8347e-06
-4.81679e-06
-4.77487e-06
-4.79095e-06
-4.84738e-06
-4.83054e-06
-4.81304e-06
-4.77205e-06
-4.78777e-06
-4.8429e-06
-4.82635e-06
-4.80926e-06
-4.76918e-06
-4.78455e-06
-4.83841e-06
-4.82212e-06
-4.80544e-06
-4.76627e-06
-4.78129e-06
-4.8339e-06
-4.81787e-06
-4.80159e-06
-4.76333e-06
-4.778e-06
-4.82939e-06
-4.8136e-06
-4.79772e-06
-4.76035e-06
-4.77467e-06
-4.82487e-06
)
;

boundaryField
{
    BotWall
    {
        type            fixedFluxPressure;
        gradient        nonuniform 0();
        value           nonuniform 0();
    }
    FreeStream
    {
        type            totalPressure;
        rho             rho;
        psi             none;
        gamma           1;
        p0              nonuniform 0();
        value           nonuniform 0();
    }
    FrontNBack
    {
        type            empty;
    }
    LeftSide
    {
        type            symmetryPlane;
    }
    RightSide
    {
        type            symmetryPlane;
    }
    procBoundary1to0
    {
        type            processor;
        value           nonuniform List<scalar> 5(-0.00372306 -0.0037216 -0.00371846 -0.00371976 -0.00372365);
    }
    procBoundary1to2
    {
        type            processor;
        value           nonuniform List<scalar> 5(-4.8093e-06 -4.79381e-06 -4.75733e-06 -4.77131e-06 -4.82032e-06);
    }
}


// ************************************************************************* //
