/*--------------------------------*- C++ -*----------------------------------*\
| =========                 |                                                 |
| \\      /  F ield         | OpenFOAM: The Open Source CFD Toolbox           |
|  \\    /   O peration     | Version:  2.4.0                                 |
|   \\  /    A nd           | Web:      www.OpenFOAM.org                      |
|    \\/     M anipulation  |                                                 |
\*---------------------------------------------------------------------------*/
FoamFile
{
    version     2.0;
    format      ascii;
    class       volScalarField;
    location    "2.6";
    object      alpha1;
}
// * * * * * * * * * * * * * * * * * * * * * * * * * * * * * * * * * * * * * //

dimensions      [0 0 0 0 0 0 0];

internalField   nonuniform List<scalar> 
8000
(
1
1
1
1
1
1
1
1
1
1
1
1
1
1
1
0.999999
0.999999
0.999998
0.999998
0.999839
0.998584
0.76466
0.165323
0.0123143
0.009043
5.91875e-05
3.84288e-05
4.44028e-06
1.58853e-06
1.15319e-06
1.14565e-06
1.14403e-06
1.14363e-06
1.14582e-06
1.60607e-06
5.47605e-06
6.57818e-06
6.40611e-06
1.78783e-06
8.77185e-07
8.77117e-07
9.05417e-07
9.16275e-07
9.09312e-07
8.82347e-07
1.00915e-06
4.05226e-06
6.55175e-06
2.56166e-06
1.21589e-06
1
1
1
1
1
1
1
1
1
1
1
1
1
1
0.999999
0.999999
0.999998
0.999891
0.998643
0.670126
0.0717905
0.00775227
0.00445498
0.000113068
6.59601e-05
1.72292e-06
1.0054e-06
1.01029e-06
1.86523e-06
3.27871e-06
2.75805e-06
1.14361e-06
1.14359e-06
1.14375e-06
1.1447e-06
1.1847e-06
3.14527e-06
6.16102e-06
1.78033e-06
8.97136e-07
9.01599e-07
9.10989e-07
2.14908e-06
2.50864e-06
8.82007e-07
8.90554e-07
1.90317e-06
4.41106e-06
2.52894e-06
1.21674e-06
1
1
1
1
1
1
1
1
1
1
1
1
1
0.999999
0.999999
0.999995
0.999097
0.70269
0.0566878
0.00451049
0.00204172
8.45961e-05
3.80461e-05
1.72384e-06
9.44608e-07
9.50615e-07
9.98505e-07
1.10388e-06
1.51684e-06
3.27809e-06
5.22447e-06
5.21797e-06
2.79133e-06
1.49293e-06
1.38511e-06
1.26633e-06
1.31381e-06
1.53185e-06
1.69529e-06
1.62192e-06
1.85842e-06
2.22391e-06
2.79719e-06
2.50552e-06
1.67938e-06
1.83617e-06
1.41406e-06
1.56761e-06
1.62587e-06
1.61362e-06
1
1
1
1
1
1
1
1
1
1
1
1
0.999999
0.999998
0.999904
0.92268
0.120598
0.00276316
0.00103217
7.77641e-05
2.57616e-05
1.80341e-06
9.55786e-07
9.44878e-07
9.37328e-07
9.38492e-07
9.48843e-07
9.86447e-07
1.10296e-06
1.50336e-06
1.55272e-06
1.97098e-06
2.01999e-06
3.77011e-06
4.53519e-06
4.5362e-06
2.24407e-06
1.16091e-06
1.19601e-06
2.81187e-06
3.8109e-06
3.52571e-06
1.31269e-06
1.2497e-06
1.29404e-06
1.30787e-06
1.41199e-06
1.41364e-06
3.12377e-06
1.79184e-06
1
1
1
1
1
1
1
1
1
1
1
0.999999
0.999999
0.999651
0.615785
0.0110916
0.000366708
0.000184833
0.000116928
0.000148516
9.65225e-05
4.90513e-05
2.29011e-05
9.99045e-06
3.74783e-06
9.45747e-07
9.40649e-07
9.42618e-07
9.48196e-07
9.49216e-07
9.51497e-07
1.02801e-06
9.95457e-07
9.98763e-07
3.86113e-06
3.2962e-06
1.30518e-06
1.15265e-06
1.15259e-06
1.86425e-06
3.79783e-06
2.16875e-06
1.13194e-06
1.12766e-06
1.12765e-06
1.12713e-06
1.12713e-06
2.37876e-06
3.20549e-06
3.19533e-06
1
1
1
1
1
1
1
1
1
1
1
0.999999
0.999997
0.94433
0.0571168
0.000974778
0.000947941
0.000227714
1.22216e-05
1.18518e-05
1.17536e-05
7.75244e-06
1.35228e-05
1.68056e-05
1.67816e-05
1.28766e-05
5.38024e-06
1.15949e-06
1.73328e-06
9.55005e-07
1.121e-06
9.95298e-07
9.94363e-07
1.00702e-06
1.02574e-06
1.40741e-06
2.33394e-06
2.32508e-06
1.18582e-06
1.18607e-06
1.20343e-06
1.1702e-06
1.20087e-06
1.62662e-06
1.70838e-06
1.58544e-06
1.45268e-06
1.36426e-06
1.26075e-06
1.16762e-06
1
1
1
1
1
1
1
1
1
1
1
1
1
0.999991
0.999893
0.361687
0.044287
0.0181423
0.000606041
0.000592681
1.05988e-05
7.42636e-06
7.09525e-06
3.92766e-06
2.97534e-06
1.79298e-06
1.59091e-06
1.10391e-06
1.09203e-06
1.04804e-06
1.06261e-06
1.11645e-06
1.16912e-06
1.29471e-06
1.62161e-06
1.4815e-06
9.85919e-07
9.84159e-07
1.86868e-06
1.31149e-06
1.99512e-06
1.84989e-06
7.22432e-06
2.05334e-05
4.67561e-05
7.1388e-05
7.13925e-05
5.32858e-05
2.18707e-05
5.59697e-06
1
1
1
1
1
1
1
1
1
1
1
1
1
0.999999
0.999989
0.999794
0.999626
0.795575
0.0241962
0.0448272
0.00402439
0.00505563
1.50601e-05
1.40281e-05
1.89457e-05
8.88449e-07
7.20039e-07
6.86176e-07
6.84458e-07
6.83146e-07
6.82501e-07
6.81961e-07
6.81713e-07
6.84405e-07
7.0748e-07
7.1055e-07
6.84034e-07
7.38693e-07
8.0018e-07
8.10244e-07
8.12346e-07
8.17928e-07
8.19002e-07
8.40535e-07
9.37367e-07
1.18208e-06
1.67129e-06
2.40108e-06
3.06099e-06
5.47634e-06
1
1
1
1
1
1
1
1
1
1
1
1
1
1
0.999999
0.999999
1
0.999992
0.999739
0.999998
0.962393
0.882969
0.298113
0.0685741
0.0160448
0.0100782
0.00580291
0.00210428
0.000337084
0.000244543
0.000237486
0.00017505
7.30283e-05
1.4693e-05
2.41309e-06
2.31545e-06
1.64649e-06
1.3707e-06
1.94147e-06
2.31478e-06
2.06496e-06
2.23147e-06
2.37002e-06
1.773e-06
1.43401e-06
1.35064e-06
1.1449e-06
9.57307e-07
7.958e-07
6.59099e-07
1
1
1
1
1
1
1
1
1
1
1
1
1
1
1
1
1
1
0.999998
0.999998
1
0.999999
0.999968
0.999851
0.99831
0.989763
0.73092
0.332687
0.0894178
0.0251944
0.0152742
0.00854659
0.00286277
0.000694705
0.000536312
0.000415915
0.000176383
3.05456e-05
6.43119e-06
6.33325e-06
9.37799e-06
7.06955e-06
3.9599e-06
2.07417e-06
2.03607e-06
1.72742e-06
1.5025e-06
1.31885e-06
1.139e-06
9.62501e-07
1
1
1
1
1
1
1
1
1
1
1
1
1
1
1
1
1
1
1
1
1
0.999999
0.999998
0.999997
0.999998
0.999999
0.999979
0.999815
0.999344
0.987566
0.915945
0.590077
0.19719
0.0455201
0.0329907
0.0145761
0.003951
0.00124664
0.0007645
0.000361978
7.32232e-05
7.57082e-06
5.79154e-06
3.39226e-06
2.24135e-06
1.91775e-06
1.63562e-06
1.40486e-06
1.25438e-06
1.13079e-06
1
1
1
1
1
1
1
1
1
1
1
1
1
1
1
1
1
1
1
1
1
1
1
1
0.999999
0.999999
0.999998
0.999996
0.999999
0.999999
0.999998
0.999943
0.999681
0.963078
0.947072
0.679691
0.221626
0.0511849
0.0324471
0.0116371
0.00293532
0.000988452
0.000380616
0.000104603
1.53515e-05
2.75074e-06
2.96513e-06
2.64892e-06
2.41815e-06
2.2472e-06
1
1
1
1
1
1
1
1
1
1
1
1
1
1
1
1
1
1
1
1
1
1
1
1
1
0.999999
0.999999
0.999999
0.999998
0.999998
0.999998
0.999998
1
1
0.999999
0.999978
0.99551
0.958945
0.886443
0.405388
0.0867982
0.0395434
0.0118216
0.0024591
0.000732529
0.000258367
8.76208e-05
2.34476e-05
3.26627e-06
2.80405e-06
1
1
1
1
1
1
1
1
1
1
1
1
1
1
1
1
1
1
1
1
1
1
1
1
1
1
1
0.999999
0.999999
0.999999
0.999998
0.999999
0.999999
0.999999
1
1
1
1
0.999998
0.999972
0.964135
0.886353
0.375333
0.0835133
0.0347559
0.00879114
0.00275568
0.000783732
0.000180719
2.66651e-05
1
1
1
1
1
1
1
1
1
1
1
1
1
1
1
1
1
1
1
1
1
1
1
1
1
1
1
1
1
0.999999
0.999999
0.999999
1
1
1
1
1
1
1
1
1
1
0.999962
0.965968
0.692891
0.256566
0.0953398
0.0315926
0.0080273
0.00144265
1
1
1
1
1
1
1
1
1
1
1
1
1
1
1
1
1
1
1
1
1
1
1
1
1
1
1
1
1
1
1
1
1
1
1
1
1
1
1
1
1
0.999999
0.999999
1
1
0.972111
0.798645
0.444409
0.179994
0.0494115
1
1
1
1
1
1
1
1
1
1
1
1
1
1
1
1
1
1
1
1
1
1
1
1
1
1
1
1
1
1
1
1
1
1
1
1
1
1
1
0.999999
0.999998
0.999996
0.999993
0.999986
0.999988
1
0.999995
0.963455
0.811902
0.442546
1
1
1
1
1
1
1
1
1
1
1
1
1
1
1
1
1
1
1
1
1
1
1
1
1
1
1
1
1
1
1
1
1
1
1
1
1
1
1
0.999999
0.999998
0.999995
0.999987
0.999967
0.999943
0.999961
0.999986
1
0.999981
0.935786
1
1
1
1
1
1
1
1
1
1
1
1
1
1
1
1
1
1
1
1
1
1
1
1
1
1
1
1
1
1
1
1
1
1
1
1
1
1
1
0.999999
0.999998
0.999995
0.999988
0.999968
0.999926
0.99992
0.999956
0.999983
0.999998
0.999996
1
1
1
1
1
1
1
1
1
1
1
1
1
1
1
1
1
1
1
1
1
1
1
1
1
1
1
1
1
1
1
1
1
1
1
1
1
1
1
1
0.999999
0.999997
0.999992
0.999987
0.999978
0.999934
0.999954
0.99998
0.999996
1
1.21589e-06
1.21594e-06
1.21608e-06
1.24168e-06
3.62459e-06
5.96005e-06
2.23968e-06
1.45396e-06
1.45618e-06
1.50811e-06
1.59282e-06
1.68739e-06
1.43248e-06
1.44735e-06
1.47044e-06
1.87506e-06
2.25117e-06
2.18009e-06
1.92088e-06
2.26998e-06
2.78678e-06
3.15195e-06
4.13023e-06
5.14099e-06
4.22733e-06
2.06651e-06
1.55786e-06
1.55926e-06
1.87073e-06
2.60409e-06
2.19065e-06
1.74991e-06
2.12111e-06
5.01145e-06
5.2563e-06
3.62116e-06
1.39153e-06
1.27174e-06
9.65322e-07
1.03162e-06
1.46516e-06
2.65298e-06
3.0782e-06
1.63716e-06
1.24527e-06
1.14669e-06
1.04416e-06
9.52653e-07
8.70688e-07
9.20361e-07
1.21647e-06
1.21668e-06
1.22285e-06
3.05299e-06
5.96109e-06
5.97757e-06
4.34962e-06
1.45844e-06
1.45589e-06
1.45774e-06
1.88412e-06
2.74778e-06
1.43247e-06
1.44139e-06
2.58303e-06
5.0564e-06
4.92096e-06
2.49364e-06
1.92061e-06
2.00815e-06
3.49087e-06
5.91708e-06
6.62677e-06
3.1409e-06
1.34868e-06
1.26389e-06
1.23788e-06
1.88187e-06
4.03117e-06
4.03183e-06
2.246e-06
1.03582e-06
9.37017e-07
8.5824e-07
8.163e-07
8.56725e-07
9.57171e-07
1.95826e-06
6.20684e-07
8.40866e-07
7.94436e-07
1.15033e-06
2.83256e-06
2.1396e-06
8.86469e-07
9.08786e-07
8.00101e-07
7.342e-07
8.58027e-07
9.56287e-07
1.72352e-06
1.79132e-06
2.21654e-06
2.40726e-06
3.11574e-06
5.85766e-06
5.97303e-06
5.39946e-06
1.45993e-06
1.4596e-06
2.07185e-06
2.74777e-06
1.43469e-06
2.49519e-06
6.97426e-06
8.87006e-06
2.55951e-06
1.92042e-06
1.92042e-06
1.92192e-06
2.3949e-06
5.80103e-06
6.32023e-06
1.17667e-06
1.17667e-06
1.1777e-06
1.24505e-06
2.94141e-06
4.03502e-06
1.13832e-06
6.4845e-07
6.48116e-07
6.45044e-07
6.37715e-07
6.39601e-07
8.19027e-07
2.39114e-06
2.49322e-06
5.53566e-07
5.53981e-07
5.56025e-07
7.59225e-07
2.02291e-06
2.21365e-06
4.72823e-07
4.61034e-07
4.35199e-07
7.86977e-07
1.96408e-06
1.95335e-06
1.74285e-06
1.36439e-06
2.22445e-06
4.2782e-06
2.72688e-06
1.89962e-06
3.85382e-06
9.48676e-06
3.41186e-06
2.23085e-06
1.89121e-06
1.65231e-06
1.64613e-06
3.51567e-06
6.59186e-06
8.86179e-06
1.92379e-06
1.92062e-06
1.9205e-06
1.92212e-06
2.36261e-06
5.09433e-06
6.39873e-06
1.17816e-06
1.17811e-06
1.70937e-06
5.15413e-06
6.79659e-06
6.60248e-07
6.46378e-07
6.46364e-07
6.54899e-07
1.28755e-06
6.39304e-07
7.41589e-07
2.91358e-06
4.5141e-06
2.28013e-06
5.55426e-07
5.54049e-07
5.54252e-07
5.57719e-07
9.49769e-07
2.16149e-06
5.92725e-07
4.26526e-07
4.32143e-07
1.0685e-06
1.9645e-06
8.87798e-07
1.30932e-06
1.08865e-06
1.08807e-06
1.48861e-06
2.73135e-06
1.69218e-06
2.31729e-06
9.66547e-06
7.75291e-06
3.67214e-06
1.93793e-06
1.66099e-06
2.01525e-06
2.73248e-06
3.64833e-06
9.16274e-06
4.95e-06
2.18592e-06
2.01714e-06
2.08942e-06
2.34367e-06
5.54998e-06
7.18112e-06
1.21464e-06
1.18894e-06
2.70147e-06
6.64174e-06
6.82364e-06
4.19592e-06
9.40872e-07
8.04196e-07
1.2789e-06
2.73208e-06
1.61189e-06
7.94163e-07
3.02355e-06
4.5255e-06
4.21171e-06
1.33093e-06
6.00822e-07
6.34439e-07
5.76768e-07
1.92512e-06
3.42045e-06
7.01836e-07
5.39315e-07
5.25848e-07
6.87446e-07
1.36863e-06
5.78443e-07
1.11443e-06
1.0932e-06
1.08754e-06
1.08604e-06
1.08597e-06
1.16385e-06
6.60328e-06
9.68235e-06
9.66024e-06
4.5303e-06
2.0043e-06
1.66787e-06
1.67735e-06
2.15592e-06
4.90376e-06
9.16223e-06
8.39265e-06
3.81888e-06
2.13964e-06
2.17713e-06
2.8978e-06
5.28118e-06
7.18236e-06
4.0711e-06
2.713e-06
3.23004e-06
3.56612e-06
5.51376e-06
6.47389e-06
5.36136e-06
2.67118e-06
2.64265e-06
2.95536e-06
2.81587e-06
2.20832e-06
2.11456e-06
2.11955e-06
3.52091e-06
3.64337e-06
2.94265e-06
1.19501e-06
1.14249e-06
3.2847e-06
3.77667e-06
2.80704e-06
1.04831e-06
1.12497e-06
2.16716e-06
8.92514e-07
8.92547e-07
1.80837e-06
2.29783e-06
1.39112e-06
1.63496e-06
1.72302e-06
1.9044e-06
1.90412e-06
4.99967e-06
3.82321e-06
1.74904e-06
1.96441e-06
4.91462e-06
5.30312e-06
4.93231e-06
1.75727e-06
1.72718e-06
5.62582e-06
7.49706e-06
7.49335e-06
2.94838e-06
2.4379e-06
5.28649e-06
3.78183e-06
1.42553e-06
2.804e-06
8.05411e-06
8.17105e-06
6.56919e-06
2.0627e-06
1.51875e-06
1.97679e-06
4.69384e-06
4.7529e-06
2.31243e-06
1.89918e-06
3.35253e-06
4.54758e-06
2.97472e-06
1.81775e-06
1.49226e-06
1.82218e-06
2.25467e-06
2.80007e-06
3.7725e-06
3.47948e-06
2.77121e-06
2.46885e-06
2.42651e-06
3.13946e-06
2.86919e-06
1.64212e-06
1.47492e-06
1.62277e-06
2.50658e-06
3.14751e-06
7.43814e-06
4.29182e-06
2.9233e-06
2.07627e-06
1.62023e-06
1.38624e-06
1.24068e-06
1.15174e-06
1.10907e-06
1.15339e-06
1.22625e-06
1.31723e-06
1.49022e-06
2.19683e-06
4.89802e-06
4.901e-06
2.79748e-06
8.49045e-07
9.97849e-07
1.02795e-06
1.04904e-06
4.24287e-06
6.55435e-06
4.1268e-06
9.69333e-07
7.67415e-07
7.48994e-07
4.35217e-06
2.67e-06
9.77748e-07
7.4024e-07
3.27861e-06
1.66608e-06
1.36795e-06
1.17958e-06
1.32417e-06
1.46742e-06
2.8045e-06
1.45291e-06
1.63131e-06
1.40224e-06
3.3006e-06
2.92811e-06
2.38829e-06
5.34333e-06
5.77239e-07
5.42274e-07
5.45491e-07
5.71348e-07
5.99212e-07
5.7329e-07
5.6132e-07
5.57118e-07
5.22209e-07
5.72671e-07
7.48438e-07
8.92558e-07
9.17068e-07
8.5465e-07
7.61502e-07
6.71846e-07
6.01536e-07
5.53801e-07
5.18192e-07
4.84936e-07
4.56907e-07
4.7498e-07
5.29162e-07
5.58859e-07
5.57814e-07
5.30976e-07
6.4185e-07
7.87864e-07
8.43929e-07
8.37966e-07
7.14367e-07
5.58378e-07
4.00769e-07
2.49435e-07
1.22167e-06
6.61865e-07
5.50935e-07
6.63022e-07
6.77624e-07
6.41972e-07
8.07285e-07
1.23379e-06
1.1416e-06
1.0841e-06
1.39582e-06
1.15851e-06
1.61694e-06
2.31215e-06
2.21557e-06
2.14232e-06
7.99929e-07
6.57129e-07
5.33557e-07
4.26246e-07
3.33302e-07
2.54943e-07
1.92604e-07
1.47403e-07
1.19159e-07
1.01203e-07
9.26611e-08
9.26918e-08
9.85563e-08
1.08567e-07
1.21302e-07
1.35239e-07
1.49971e-07
1.65528e-07
1.80514e-07
1.9356e-07
2.0773e-07
2.31936e-07
2.64004e-07
2.91247e-07
3.00318e-07
2.94814e-07
2.5032e-07
2.70842e-07
2.76168e-07
2.61315e-07
2.43662e-07
2.27225e-07
2.08454e-07
1.89549e-07
1.72292e-07
2.86192e-07
4.27295e-07
4.60509e-07
4.40237e-07
4.64494e-07
5.52505e-07
6.25699e-07
6.52212e-07
7.35523e-07
1.56515e-06
6.19491e-07
1.2921e-06
1.35008e-06
5.37876e-07
2.25699e-07
1.00062e-06
8.51615e-07
6.84612e-07
5.1074e-07
3.48478e-07
2.15788e-07
1.22065e-07
6.52615e-08
3.58647e-08
2.29817e-08
1.83803e-08
1.7293e-08
1.74403e-08
1.82675e-08
1.95359e-08
2.05941e-08
2.03959e-08
2.13445e-08
2.43243e-08
2.95443e-08
4.01819e-08
7.13647e-08
1.13319e-07
1.48801e-07
1.6102e-07
1.36474e-07
8.51082e-08
7.82224e-08
8.56875e-08
9.4034e-08
9.85682e-08
9.87508e-08
9.9661e-08
1.09667e-07
1.37064e-07
1.85153e-07
2.48088e-07
3.11994e-07
3.6036e-07
3.72322e-07
3.14363e-07
1.78256e-07
6.02902e-08
4.77906e-08
3.68368e-08
3.73786e-08
3.21287e-08
2.98086e-08
2.86798e-08
2.65909e-08
2.11402e-06
1.94691e-06
1.70336e-06
1.3774e-06
1.0047e-06
6.47992e-07
3.64169e-07
1.76963e-07
7.47821e-08
2.87957e-08
1.19526e-08
7.22633e-09
6.60855e-09
7.18675e-09
8.1159e-09
9.15613e-09
1.01935e-08
1.11277e-08
1.19286e-08
1.26226e-08
1.32772e-08
1.38127e-08
1.41789e-08
1.49624e-08
1.72312e-08
2.14397e-08
2.71707e-08
3.36835e-08
3.97267e-08
4.36243e-08
4.42175e-08
4.14334e-08
3.62421e-08
3.01038e-08
2.43391e-08
1.97643e-08
1.66295e-08
1.47528e-08
1.37658e-08
1.33829e-08
1.34951e-08
1.38988e-08
1.40233e-08
1.34947e-08
1.27411e-08
1.19756e-08
1.1292e-08
1.07349e-08
1.03196e-08
1.00425e-08
2.8635e-06
2.84568e-06
2.63696e-06
2.22032e-06
1.64879e-06
1.05254e-06
5.66826e-07
2.54074e-07
9.3987e-08
2.88694e-08
8.04227e-09
3.05779e-09
2.46311e-09
2.85879e-09
3.4511e-09
4.04448e-09
4.55719e-09
4.97021e-09
5.28622e-09
5.52453e-09
5.71113e-09
5.8837e-09
6.08727e-09
6.36717e-09
6.75469e-09
7.24646e-09
7.7917e-09
8.29919e-09
8.66319e-09
8.79507e-09
8.64534e-09
8.21152e-09
7.53638e-09
6.70179e-09
5.81652e-09
4.99452e-09
4.32727e-09
3.86184e-09
3.59555e-09
3.4884e-09
3.48436e-09
3.53041e-09
3.58719e-09
3.63137e-09
3.65287e-09
3.65065e-09
3.62877e-09
3.59361e-09
3.55217e-09
3.51109e-09
2.93785e-06
3.32341e-06
3.21278e-06
2.70532e-06
1.98539e-06
1.24664e-06
6.61781e-07
2.9583e-07
1.11692e-07
3.61183e-08
1.0448e-08
3.095e-09
1.29052e-09
9.43912e-10
9.60698e-10
1.05495e-09
1.14814e-09
1.2205e-09
1.26501e-09
1.27976e-09
1.27067e-09
1.24492e-09
1.20919e-09
1.1695e-09
1.13012e-09
1.09304e-09
1.0577e-09
1.02145e-09
9.80554e-10
9.31664e-10
8.73211e-10
8.06188e-10
7.33975e-10
6.61291e-10
5.92796e-10
5.31955e-10
4.80545e-10
4.38827e-10
4.06122e-10
3.81407e-10
3.6373e-10
3.52344e-10
3.46647e-10
3.46064e-10
3.49951e-10
3.57566e-10
3.68122e-10
3.80856e-10
3.95111e-10
4.10395e-10
0.00016545
9.44021e-06
4.87174e-06
3.84309e-06
2.97706e-06
2.04393e-06
1.20658e-06
6.14836e-07
2.73453e-07
1.07784e-07
3.85345e-08
1.2959e-08
4.31259e-09
1.50288e-09
5.8036e-10
2.68844e-10
1.64901e-10
1.34146e-10
1.28206e-10
1.29013e-10
1.29966e-10
1.28885e-10
1.25425e-10
1.19926e-10
1.12924e-10
1.05047e-10
9.68672e-11
8.87355e-11
8.08672e-11
7.34012e-11
6.64872e-11
6.00821e-11
5.41871e-11
4.88e-11
4.3913e-11
3.95123e-11
3.55755e-11
3.20715e-11
2.89622e-11
2.62058e-11
2.37616e-11
2.15926e-11
1.96679e-11
1.79629e-11
1.64594e-11
1.51442e-11
1.40078e-11
1.30442e-11
1.22494e-11
1.16208e-11
0.00818801
0.0009707
9.22825e-05
5.33701e-06
3.5743e-06
2.02353e-06
9.72954e-07
4.19718e-07
1.73765e-07
7.38858e-08
3.36168e-08
1.6249e-08
8.03976e-09
3.93168e-09
1.86193e-09
8.4692e-10
3.69751e-10
1.55617e-10
6.37815e-11
2.60159e-11
1.10756e-11
5.38201e-12
3.29649e-12
2.56451e-12
2.31264e-12
2.21181e-12
2.14174e-12
2.06096e-12
1.95806e-12
1.83304e-12
1.69009e-12
1.53484e-12
1.3734e-12
1.21142e-12
1.05383e-12
9.04557e-13
7.66922e-13
6.42484e-13
5.32022e-13
4.35596e-13
3.52708e-13
2.82511e-13
2.23845e-13
1.7549e-13
1.36156e-13
1.04625e-13
7.96857e-14
6.02429e-14
4.53187e-14
3.40498e-14
0.124986
0.0186366
0.00124719
2.17255e-05
6.76049e-06
2.60599e-06
1.17062e-06
5.84513e-07
3.15399e-07
1.79938e-07
1.05461e-07
6.16824e-08
3.52438e-08
1.94324e-08
1.02817e-08
5.21277e-09
2.53488e-09
1.18505e-09
5.34226e-10
2.33024e-10
9.86928e-11
4.0726e-11
1.64275e-11
6.49645e-12
2.52537e-12
9.67147e-13
3.65571e-13
1.3658e-13
5.04887e-14
1.84801e-14
6.70038e-15
2.40691e-15
8.56602e-16
3.01989e-16
1.05435e-16
3.64431e-17
1.24658e-17
4.21817e-18
1.41139e-18
4.66779e-19
1.52522e-19
4.92198e-20
1.56805e-20
4.9298e-21
1.52894e-21
4.6763e-22
1.41011e-22
4.19342e-23
1.23439e-23
3.6874e-24
0.499323
0.0747133
0.00303301
2.48872e-05
6.45043e-06
2.44834e-06
1.27959e-06
7.81056e-07
5.05558e-07
3.31241e-07
2.13715e-07
1.33559e-07
8.01819e-08
4.61149e-08
2.54177e-08
1.34545e-08
6.85954e-09
3.37913e-09
1.61354e-09
7.49085e-10
3.39056e-10
1.50002e-10
6.50093e-11
2.76542e-11
1.1566e-11
4.76263e-12
1.9331e-12
7.74102e-13
3.06038e-13
1.19508e-13
4.61108e-14
1.75816e-14
6.625e-15
2.46693e-15
9.07636e-16
3.29886e-16
1.18415e-16
4.19689e-17
1.46823e-17
5.06844e-18
1.72598e-18
5.79624e-19
1.91898e-19
6.26147e-20
2.01296e-20
6.37416e-21
1.98753e-21
6.10076e-22
1.84296e-22
5.47758e-23
0.620488
0.0846537
0.00214821
1.07248e-05
3.21153e-06
1.64738e-06
1.07834e-06
7.55327e-07
5.31223e-07
3.63735e-07
2.38485e-07
1.48755e-07
8.82535e-08
4.99365e-08
2.70586e-08
1.41057e-08
7.10791e-09
3.47675e-09
1.65664e-09
7.71258e-10
3.51708e-10
1.57432e-10
6.9294e-11
3.0034e-11
1.28334e-11
5.41097e-12
2.25269e-12
9.26484e-13
3.76552e-13
1.51268e-13
6.0068e-14
2.3578e-14
9.14749e-15
3.50726e-15
1.32869e-15
4.97247e-16
1.83784e-16
6.70685e-17
2.41593e-17
8.58784e-18
3.01158e-18
1.04158e-18
3.55189e-19
1.1939e-19
3.95462e-20
1.29046e-20
4.14736e-21
1.3124e-21
4.08805e-22
1.25314e-22
0.25545
0.00864818
4.42032e-05
6.23439e-06
1.59202e-06
8.42938e-07
5.73133e-07
4.09008e-07
2.86674e-07
1.91174e-07
1.19293e-07
6.93316e-08
3.76308e-08
1.91556e-08
9.20067e-09
4.20012e-09
1.84334e-09
7.82933e-10
3.23007e-10
1.29829e-10
5.09844e-11
1.96093e-11
7.40059e-12
2.74435e-12
1.00083e-12
3.59132e-13
1.26827e-13
4.40798e-14
1.5076e-14
5.07294e-15
1.67903e-15
5.4647e-16
1.74854e-16
5.49898e-17
1.69939e-17
5.1597e-18
1.53888e-18
4.5078e-19
1.29674e-19
3.66283e-20
1.01581e-20
2.76568e-21
7.39173e-22
1.93915e-22
4.99307e-23
1.26177e-23
3.12908e-24
7.61456e-25
1.81816e-25
4.25932e-26
1.03694e-06
1.18958e-06
1.29599e-06
1.26295e-06
1.79751e-06
7.03285e-06
7.23376e-06
5.66011e-06
1.39555e-06
9.70168e-07
9.851e-07
1.10047e-06
1.28408e-06
1.98589e-06
2.15571e-06
1.47459e-06
1.4042e-06
1.53457e-06
1.4916e-06
2.45229e-06
2.05146e-06
1.1504e-06
8.64481e-07
8.34919e-07
9.80737e-07
2.04078e-06
3.82155e-06
3.76551e-06
1.86364e-06
1.20913e-06
9.60441e-07
1.07656e-06
1.28085e-06
1.40651e-06
1.36863e-06
2.40691e-06
5.04815e-06
3.64716e-06
1.37805e-06
1.18934e-06
1.75419e-06
1.18153e-06
1.04959e-06
1.03982e-06
1.44961e-06
4.11998e-06
4.7091e-06
3.42876e-06
1.39988e-06
1.36965e-06
1.30084e-06
4.8974e-06
3.93886e-06
1.67346e-06
1.38479e-06
1.32104e-06
1.83739e-06
1.26389e-06
1.21436e-06
3.19567e-06
5.54144e-06
2.67415e-06
1.48521e-06
1.30833e-06
1.13772e-06
1.27798e-06
2.85099e-06
4.52836e-06
4.00868e-06
1.95474e-06
1.37347e-06
1.18684e-06
1.06415e-06
1.46582e-06
4.27556e-06
6.28693e-06
4.12003e-06
1.63463e-06
9.70078e-07
1.06499e-06
1.50557e-06
4.74663e-06
5.80815e-06
5.01411e-06
2.28276e-06
1.70563e-06
1.36498e-06
1.12434e-06
1.49759e-06
3.60347e-06
4.36783e-06
2.30432e-06
1.60801e-06
1.33624e-06
1.25209e-06
2.25013e-06
4.8569e-06
3.42975e-06
2.43832e-06
1.8311e-06
1.92938e-06
4.83799e-06
4.78891e-06
1.80019e-06
1.44997e-06
1.97276e-06
4.00326e-06
5.60468e-06
1.81528e-06
1.53304e-06
1.22196e-06
1.15567e-06
1.16869e-06
2.45954e-06
4.91735e-06
4.81197e-06
2.21923e-06
1.30186e-06
1.15231e-06
1.18793e-06
1.40805e-06
4.18516e-06
4.66635e-06
2.40104e-06
1.22395e-06
1.2011e-06
1.16217e-06
1.05774e-06
3.17748e-06
5.04657e-06
9.49402e-07
1.13349e-06
9.13066e-07
8.49089e-07
9.45768e-07
1e-06
1.79935e-06
1.27154e-06
7.70633e-07
9.37032e-07
1.01304e-06
2.26731e-06
2.26413e-06
1.96479e-06
1.01373e-06
1.01578e-06
9.90427e-07
9.33338e-07
8.52088e-07
7.36005e-07
5.98688e-07
4.84538e-07
4.2304e-07
4.06734e-07
4.12173e-07
4.30447e-07
4.44098e-07
4.59471e-07
4.81502e-07
4.96752e-07
5.22044e-07
5.49975e-07
6.48167e-07
8.4242e-07
8.77367e-07
1.20943e-06
2.02101e-06
2.01961e-06
1.10006e-06
8.31268e-07
8.08591e-07
8.53834e-07
8.56419e-07
1.37178e-06
2.37893e-06
2.3808e-06
1.37219e-06
7.01659e-07
7.53329e-07
8.59564e-07
1.51798e-06
5.75453e-07
1.39044e-06
2.77429e-06
2.82458e-06
2.03107e-06
8.65366e-07
8.78309e-07
9.58247e-07
1.46718e-06
1.91917e-06
3.23273e-06
3.74877e-06
3.65203e-06
1.12364e-06
4.851e-07
3.82414e-07
3.24235e-07
3.17341e-07
3.14714e-07
3.13883e-07
3.15099e-07
3.19205e-07
3.26789e-07
3.3849e-07
3.55256e-07
3.78243e-07
4.0822e-07
4.44221e-07
4.80411e-07
4.99146e-07
4.72278e-07
7.72651e-07
4.76055e-07
3.36545e-07
2.96186e-07
2.43275e-07
2.39831e-07
2.56179e-07
2.71436e-07
2.8306e-07
2.90705e-07
2.94746e-07
2.96452e-07
2.97176e-07
2.94833e-07
2.81231e-07
2.49335e-07
2.09769e-07
1.88169e-07
1.90541e-07
1.99228e-07
2.1233e-07
2.27143e-07
2.4251e-07
2.57453e-07
2.69508e-07
2.77023e-07
2.81344e-07
2.86495e-07
2.96534e-07
3.26955e-07
5.01545e-07
2.88457e-07
4.4825e-07
1.02572e-06
3.61021e-07
3.24794e-07
4.0024e-07
5.12163e-07
1.01092e-06
2.42108e-06
4.6669e-06
5.31226e-06
2.73959e-06
1.15074e-06
1.18152e-06
2.70633e-06
4.05272e-06
6.89671e-06
1.90575e-05
2.77649e-05
2.71908e-05
8.17416e-06
7.49474e-07
3.93488e-07
4.12601e-07
3.35514e-06
1.51077e-05
2.84487e-05
3.53522e-05
4.85172e-05
9.24506e-05
0.00012176
0.000121624
0.00012176
0.000117386
4.44455e-05
1.48089e-05
9.15737e-06
2.087e-05
4.48324e-05
4.48238e-05
4.04555e-05
1.05476e-05
8.798e-06
8.78338e-06
9.32913e-06
1.10126e-05
1.31002e-05
9.92426e-06
5.58715e-06
3.6974e-06
9.33009e-06
1.24704e-05
1.65865e-05
3.80472e-05
8.40696e-05
8.41001e-05
5.16061e-05
1.79448e-06
1.7833e-06
1.24272e-06
7.18461e-07
1.22284e-06
1.67826e-06
6.39032e-07
9.05392e-07
9.57347e-07
1.43135e-06
2.37623e-06
2.37221e-06
1.91006e-06
6.60502e-07
4.90649e-07
1.68598e-06
3.31432e-06
3.31551e-06
1.49442e-06
7.27362e-07
7.29696e-07
7.05107e-07
7.27794e-07
8.525e-07
8.62912e-07
1.76759e-06
3.49157e-06
3.77403e-06
1.94798e-06
7.13604e-07
9.23354e-07
2.5229e-06
2.52151e-06
2.11237e-06
1.18049e-06
1.17901e-06
1.2226e-06
2.7735e-06
3.03653e-06
2.82809e-06
8.26832e-07
8.3091e-07
9.1229e-07
9.10603e-07
1.32678e-06
2.32927e-06
3.99542e-06
3.98894e-06
3.23764e-06
7.65779e-07
6.75853e-07
6.81427e-07
8.92472e-07
2.38953e-06
4.14193e-06
4.11124e-06
2.87186e-06
5.98606e-07
5.69334e-07
5.78482e-07
1.50952e-06
2.88508e-06
2.91128e-06
1.89401e-06
1.05154e-06
1.05083e-06
1.44871e-06
3.58464e-06
4.01049e-06
2.3028e-06
5.49813e-07
5.5985e-07
1.20867e-06
4.42325e-06
5.19284e-06
3.47571e-06
3.95829e-07
3.36031e-07
1.43666e-06
3.58568e-06
3.56738e-06
2.67495e-06
9.45682e-07
3.51728e-06
4.26366e-06
1.24959e-06
3.97188e-07
3.16452e-07
1.30666e-06
4.062e-06
4.62293e-06
4.33224e-06
9.57172e-07
4.09258e-07
3.10538e-07
9.70907e-07
4.09549e-06
5.67306e-06
5.65162e-06
2.01367e-06
5.34526e-07
5.34653e-07
5.36328e-07
5.42978e-07
1.26042e-06
4.17384e-06
5.60278e-06
5.5957e-06
2.0533e-06
4.61041e-07
4.1942e-07
4.0218e-07
1.1003e-06
1.79337e-06
1.11859e-06
1.759e-06
3.6201e-06
3.64756e-06
1.94464e-06
5.24332e-07
5.33969e-07
5.36573e-07
7.67143e-07
2.38959e-06
2.83526e-06
2.35679e-06
5.25445e-07
5.09838e-07
1.66682e-06
2.29174e-06
3.65458e-07
4.3575e-07
3.76945e-07
1.60991e-06
2.89305e-06
2.8746e-06
1.71652e-06
5.32833e-07
4.94462e-07
4.38576e-07
3.92185e-07
1.08612e-06
1.48222e-06
4.00047e-07
4.22491e-07
4.25746e-07
4.20318e-07
4.05376e-07
3.95155e-07
3.98218e-07
4.04374e-07
4.09705e-07
4.1864e-07
4.4334e-07
4.70302e-07
4.96933e-07
5.44681e-07
4.32201e-07
4.84179e-07
4.49232e-07
5.76608e-07
4.05174e-07
4.7015e-07
1.76947e-06
2.28376e-06
2.0556e-06
6.00847e-07
5.59407e-07
5.41604e-07
5.1082e-07
4.41958e-07
1.20991e-06
1.7612e-06
1.68784e-06
6.14271e-07
5.81511e-07
5.34887e-07
4.57934e-07
1.01919e-06
1.45397e-06
1.34863e-06
5.2355e-07
4.06307e-07
4.32849e-07
5.62124e-07
5.64569e-07
7.89504e-07
1.76959e-06
3.18591e-06
3.18222e-06
1.52055e-06
3.42103e-07
2.47062e-07
2.06418e-07
2.0454e-07
2.07679e-07
2.08748e-07
2.09437e-07
2.10465e-07
2.1211e-07
2.14523e-07
2.17882e-07
2.22464e-07
2.28643e-07
2.36782e-07
2.47075e-07
2.59398e-07
2.72756e-07
2.83079e-07
2.79938e-07
2.5025e-07
1.96979e-07
1.48365e-07
1.53163e-07
1.56266e-07
1.55782e-07
1.55378e-07
1.5403e-07
1.51369e-07
1.47216e-07
1.41236e-07
1.33148e-07
1.2324e-07
1.12822e-07
1.04052e-07
9.89314e-08
9.80595e-08
1.00253e-07
1.03577e-07
1.06865e-07
1.10178e-07
1.14079e-07
1.19158e-07
1.26104e-07
1.35371e-07
1.46703e-07
1.58815e-07
1.69545e-07
1.76628e-07
1.78844e-07
1.76775e-07
1.72583e-07
1.7106e-07
1.92008e-07
1.94388e-07
1.96971e-07
2.56449e-07
2.73296e-07
9.37583e-07
2.65569e-06
3.1038e-06
2.91862e-06
6.3237e-07
2.52019e-07
3.83149e-07
3.08129e-06
8.16566e-06
8.16231e-06
6.47896e-06
6.88927e-07
3.15309e-07
4.18874e-07
3.85794e-07
2.77826e-07
2.59473e-07
5.38182e-07
4.07903e-06
2.62916e-05
8.23753e-05
9.89513e-05
9.71214e-05
2.56857e-05
1.79242e-06
4.67609e-07
5.95417e-07
2.85485e-06
1.18209e-05
2.37399e-05
1.87467e-05
5.36583e-06
7.09442e-07
8.9143e-07
8.44811e-06
2.25947e-05
2.37413e-05
1.98874e-05
2.36461e-06
1.99308e-07
1.36284e-07
9.70827e-08
6.9087e-08
4.53573e-08
2.66125e-08
1.20438e-08
5.60576e-09
2.42633e-09
8.383e-10
2.33841e-10
4.18075e-11
3.88365e-12
7.93383e-07
4.56209e-07
4.2715e-07
4.05075e-07
3.90878e-07
4.01708e-07
1.22294e-06
3.58668e-06
3.80185e-06
3.32578e-06
6.51834e-07
4.11629e-07
3.68975e-07
3.44386e-07
3.22902e-07
3.37696e-07
1.07386e-06
1.50363e-06
2.60211e-07
3.25504e-07
3.61903e-07
3.7285e-07
9.75436e-07
3.43357e-06
5.38883e-06
5.329e-06
3.80722e-06
5.78027e-07
4.15698e-07
3.91319e-07
3.73543e-07
3.646e-07
3.72419e-07
9.2812e-07
3.05727e-06
3.34595e-06
2.89435e-06
5.07582e-07
4.08512e-07
4.16464e-07
4.37036e-07
1.71333e-06
4.61537e-06
5.05349e-06
4.86059e-06
1.22417e-06
3.74468e-07
3.60981e-07
3.34225e-07
2.74935e-07
1.11621e-06
3.40811e-06
3.74115e-06
3.34227e-06
5.43581e-07
2.83468e-07
2.53513e-07
2.39261e-07
2.40118e-07
9.03808e-07
1.83057e-06
2.68707e-06
1.41559e-06
1.99047e-06
5.01522e-06
5.0087e-06
3.9715e-06
5.50601e-07
3.62684e-07
3.68624e-07
4.47432e-07
1.94847e-06
5.15724e-06
5.34037e-06
4.4895e-06
6.24152e-07
3.04409e-07
2.91925e-07
9.52373e-07
1.73908e-06
3.76424e-07
3.8609e-07
7.49391e-07
3.26877e-06
4.25523e-06
2.98299e-06
4.75511e-07
3.04056e-07
3.23293e-07
1.68644e-06
3.8057e-06
1.22462e-06
2.60214e-07
2.58604e-07
2.54987e-07
9.37327e-07
3.33881e-06
5.35458e-06
6.34443e-07
5.42756e-07
5.42147e-07
1.64685e-06
4.40211e-06
4.56769e-06
4.25099e-06
8.7878e-07
3.59278e-07
3.68509e-07
3.77399e-07
3.83148e-07
3.87077e-07
3.95651e-07
3.96581e-07
4.66871e-07
2.04384e-06
3.33395e-06
3.04051e-06
5.37937e-07
3.57557e-07
3.43377e-07
7.33415e-07
2.87649e-06
3.71125e-06
3.6665e-06
1.15421e-06
4.07023e-07
4.08155e-07
4.0061e-07
3.87003e-07
3.73476e-07
3.63234e-07
3.48604e-07
3.44309e-07
3.89917e-07
1.11201e-06
1.26572e-06
3.41087e-07
3.58874e-07
3.68378e-07
3.7545e-07
3.81661e-07
3.87203e-07
3.91923e-07
3.99679e-07
4.03036e-07
3.97441e-07
5.66566e-07
3.29277e-07
3.37253e-07
3.6931e-07
3.91213e-07
4.01987e-07
4.01745e-07
5.2491e-07
3.04861e-07
4.01805e-07
3.96668e-07
3.79127e-07
5.39507e-07
2.7881e-07
2.962e-07
5.5865e-07
4.02824e-07
9.31235e-07
1.8398e-06
4.13907e-07
3.35788e-07
3.99601e-07
4.21248e-07
4.35103e-07
4.35603e-07
4.32269e-07
8.59735e-07
3.94876e-07
6.51929e-07
5.95244e-07
2.62328e-07
2.78432e-07
2.39065e-07
2.35616e-07
2.50135e-07
2.75616e-07
2.91894e-07
3.04e-07
1.12264e-06
1.57694e-06
1.51097e-06
3.9006e-07
2.20949e-07
1.68791e-07
1.47996e-07
1.43632e-07
1.39964e-07
1.36949e-07
1.34559e-07
1.32707e-07
1.31292e-07
1.30219e-07
1.29393e-07
1.28704e-07
1.28017e-07
1.27144e-07
1.2582e-07
1.23682e-07
1.20303e-07
1.15329e-07
1.08727e-07
1.01064e-07
9.35627e-08
8.76406e-08
8.39527e-08
8.17591e-08
7.96427e-08
7.69185e-08
7.3675e-08
6.99055e-08
6.57703e-08
6.15841e-08
5.77141e-08
5.44583e-08
5.19612e-08
5.0196e-08
4.90197e-08
4.82684e-08
4.78372e-08
4.77079e-08
4.79223e-08
4.85338e-08
4.95734e-08
5.10451e-08
5.29462e-08
5.52962e-08
5.81628e-08
6.16705e-08
6.59803e-08
7.12294e-08
7.7434e-08
8.43782e-08
9.15444e-08
9.81638e-08
1.03456e-07
1.07059e-07
1.09587e-07
1.13177e-07
1.20013e-07
1.22698e-07
5.67342e-07
1.43325e-06
1.43395e-06
9.06559e-07
1.86947e-07
1.46355e-07
1.42326e-07
1.4101e-07
5.738e-07
1.40855e-06
1.04243e-06
1.96976e-07
1.43363e-07
1.69457e-07
2.44526e-07
4.21418e-07
1.69732e-07
7.47433e-08
4.89897e-07
4.45953e-06
1.31242e-05
1.99731e-05
3.91319e-06
1.97012e-07
1.2468e-07
1.04381e-07
9.95216e-08
9.27883e-08
4.97885e-07
1.46782e-06
1.62151e-06
3.39278e-07
1.82217e-07
1.10092e-07
6.90132e-08
4.1996e-08
2.37894e-08
1.44991e-08
9.24903e-09
5.23884e-09
2.92149e-09
1.5797e-09
7.61482e-10
3.26712e-10
1.24163e-10
4.15105e-11
1.21115e-11
3.05993e-12
6.63396e-13
1.21571e-13
1.83514e-14
2.17609e-15
1.82073e-16
7.87113e-18