/*--------------------------------*- C++ -*----------------------------------*\
| =========                 |                                                 |
| \\      /  F ield         | OpenFOAM: The Open Source CFD Toolbox           |
|  \\    /   O peration     | Version:  2.4.0                                 |
|   \\  /    A nd           | Web:      www.OpenFOAM.org                      |
|    \\/     M anipulation  |                                                 |
\*---------------------------------------------------------------------------*/
FoamFile
{
    version     2.0;
    format      ascii;
    class       volScalarField;
    location    "2.6";
    object      H;
}
// * * * * * * * * * * * * * * * * * * * * * * * * * * * * * * * * * * * * * //

dimensions      [0 2 -2 0 0 0 0];

internalField   nonuniform List<scalar> 
8000
(
-12028.1
-11622.3
-11210.9
-10790.5
-10357.8
-9909.44
-9441.91
-8951.56
-8434.83
-7888.48
-7309.84
-6697.21
-6050.18
-5369.97
-4659.59
-3924.08
-3170.66
-2409.17
-1650.93
-906.084
-180.02
-2.04099
-4.58997
-3.43492
-2.52432
-1.54385
-0.927998
-0.470865
-0.116397
0.160659
0.379348
0.55785
0.707828
0.835493
0.944005
1.0353
1.11066
1.17138
1.2186
1.25374
1.27803
1.29276
1.29928
1.29898
1.29367
1.28471
1.2734
1.26073
1.24757
1.23486
-12019.9
-11597
-11166.2
-10722.5
-10261.2
-9777.43
-9266.16
-8722.45
-8141.58
-7519.36
-6852.62
-6139.71
-5381
-4579.27
-3740.02
-2872.53
-1991.62
-1117.81
-283.081
-3.37751
-0.241732
-0.322151
-0.40867
-0.440717
-0.476881
-0.3727
-0.226415
-0.054108
0.121474
0.28208
0.422615
0.542536
0.64293
0.725321
0.791326
0.842569
0.880693
0.907305
0.923808
0.931858
0.932947
0.928563
0.92019
0.90916
0.896523
0.883586
0.871436
0.861036
0.853099
0.848407
-12010.6
-11568.1
-11115
-10644.5
-10149.7
-9623.77
-9059.63
-8450.3
-7789.32
-7071.27
-6292.58
-5452.27
-4552.63
-3599.75
-2605.92
-1598.08
-623.235
-7.15386
-0.558925
-0.435008
-0.358456
-0.296264
-0.25288
-0.208289
-0.160779
-0.0976501
-0.0167636
0.0740634
0.166758
0.255119
0.335458
0.405899
0.465715
0.514917
0.553893
0.583285
0.603929
0.616779
0.622869
0.623262
0.619109
0.611619
0.601998
0.591471
0.580757
0.571093
0.563579
0.559254
0.559055
0.563838
-11997.7
-11528
-11043.5
-10534.9
-9992.6
-9407.11
-8768.91
-8068.99
-7299.51
-6454.82
-5532.44
-4533.83
-3463.42
-2326.68
-1140.82
-11.061
-0.616061
-0.656023
-0.722965
-0.750724
-0.745764
-0.703784
-0.631443
-0.544847
-0.454802
-0.364915
-0.27739
-0.195126
-0.118896
-0.0493201
0.0132204
0.0685718
0.116694
0.157734
0.191932
0.219577
0.241166
0.2572
0.268291
0.275141
0.278518
0.279269
0.278384
0.276959
0.275881
0.275436
0.276269
0.279903
0.287751
0.301013
-11978.5
-11468.7
-10939.3
-10377.6
-9771.37
-9108.54
-8377.57
-7568.26
-6672.58
-5685.95
-4609.06
-3453.19
-2251.2
-1068.34
-13.4025
-10.3024
-7.19139
-5.56594
-4.29605
-3.34075
-2.6393
-2.14972
-1.815
-1.5821
-1.41312
-1.28304
-1.17644
-1.0842
-1.00113
-0.924364
-0.852346
-0.784304
-0.719907
-0.659126
-0.602057
-0.548635
-0.499087
-0.45354
-0.411982
-0.374223
-0.33993
-0.308595
-0.279669
-0.252342
-0.225592
-0.198209
-0.169031
-0.137562
-0.103183
-0.0651822
-11965.5
-11430.3
-10875.8
-10288.6
-9655.09
-8961.37
-8193.89
-7340.49
-6391.61
-5340.46
-4179.62
-2896.11
-1488.28
-14.359
-1.69853
-2.00078
-2.39941
-2.72608
-2.98727
-3.16694
-3.26047
-3.28583
-3.25078
-3.15291
-3.00675
-2.82694
-2.62739
-2.42006
-2.21399
-2.01504
-1.82715
-1.65245
-1.49188
-1.34553
-1.21294
-1.0933
-0.985635
-0.888745
-0.801329
-0.722153
-0.649907
-0.583275
-0.52098
-0.461765
-0.404395
-0.347731
-0.290717
-0.232321
-0.171695
-0.107971
-11979.7
-11476.4
-10963.5
-10432.7
-9874.6
-9279.39
-8637.45
-7939.88
-7179.45
-6352
-5458.11
-4504.91
-3506.7
-2475.98
-1428.68
-26.9762
-1.9519
-2.84535
-2.47261
-2.49984
-2.41384
-2.33491
-2.24069
-2.13785
-2.02051
-1.88736
-1.74128
-1.58773
-1.43247
-1.28007
-1.13365
-0.994923
-0.864634
-0.742828
-0.629092
-0.522718
-0.422919
-0.328866
-0.239748
-0.154836
-0.0735174
0.00474254
0.0804014
0.153822
0.225412
0.295492
0.364409
0.43374
0.503602
0.574141
-12008.2
-11562.6
-11110.1
-10645.6
-10163.5
-9657.33
-9120.03
-8543.85
-7920.52
-7241.64
-6499.4
-5687.37
-4801.17
-3847.47
-2845.27
-1808.48
-873.434
-9.72434
-2.69306
-4.01726
-3.02294
-2.57025
-2.0994
-1.86279
-1.65651
-1.47772
-1.31108
-1.15081
-0.995313
-0.845189
-0.70136
-0.563923
-0.432949
-0.308908
-0.191953
-0.0815417
0.0228844
0.121941
0.216139
0.305931
0.391701
0.473766
0.552343
0.627814
0.700588
0.770993
0.839341
0.905678
0.970143
1.03271
-12033.2
-11638.9
-11242.6
-10842.9
-10438.2
-10026.3
-9604.42
-9169.02
-8715.77
-8239.68
-7735.21
-7195.93
-6614.58
-5982.23
-5295.32
-4558.53
-3771.4
-2930.44
-2020.18
-1107.02
-12.5317
-0.312365
-0.263348
-0.472301
-0.303589
-0.378831
-0.397395
-0.393608
-0.373141
-0.343522
-0.303073
-0.255547
-0.20207
-0.143796
-0.0825373
-0.0203381
0.0428075
0.10688
0.171366
0.235988
0.300806
0.365887
0.43122
0.496754
0.562423
0.628115
0.693673
0.758876
0.823475
0.887212
-12031.9
-11635.9
-11240.8
-10846.6
-10453.6
-10061.6
-9670.49
-9280.07
-8889.76
-8498.65
-8105.39
-7708.02
-7303.91
-6889.68
-6461.17
-6013.4
-5540.61
-5036.34
-4493.62
-3905.61
-3272.63
-2596.75
-1872.25
-1089.65
-257.543
-3.62349
-0.14667
-0.0852649
-0.0542432
-0.0620433
-0.0519296
-0.0438976
-0.0340816
-0.0224188
-0.00949313
0.00440055
0.0513223
0.101452
0.154023
0.209124
0.267101
0.326234
0.386184
0.446806
0.507872
0.569143
0.63046
0.69168
0.752654
0.813227
-12013.4
-11579.8
-11145.5
-10711.1
-10277.3
-9845.27
-9416.57
-8992.72
-8575.2
-8165.3
-7764.03
-7371.96
-6989.17
-6615.15
-6248.81
-5888.37
-5531.4
-5174.8
-4814.79
-4446.86
-4065.73
-3665.39
-3239.38
-2781.88
-2289.82
-1771.61
-1229.33
-659.445
-144.515
-1.91548
-0.0690555
-0.032905
-0.0214225
-0.0249673
-0.013747
-0.000927773
0.000195004
0.000277337
0.00115247
0.00952188
0.0847741
0.16015
0.234359
0.30758
0.378888
0.448496
0.51699
0.584691
0.651686
0.717925
-11982.3
-11486.6
-10990.1
-10493.6
-9998.36
-9506.09
-9018.97
-8539.33
-8069.5
-7611.7
-7167.88
-6739.66
-6328.22
-5934.28
-5558.07
-5199.35
-4857.32
-4530.7
-4217.84
-3916.69
-3624.91
-3339.91
-3058.96
-2779.23
-2497.95
-2212.51
-1920.61
-1620.63
-1313.19
-1004.8
-697.127
-387.1
-109.426
-1.41264
-0.037977
-0.0128914
-0.000667048
-4.69965e-05
-3.10312e-05
1.99439e-05
0.000223774
0.00108454
0.00898264
0.0797693
0.151393
0.223742
0.296835
0.370238
0.443626
0.516816
-11954.6
-11404
-10853.9
-10305.6
-9760.6
-9221.06
-8689.26
-8167.65
-7658.66
-7164.62
-6687.6
-6229.4
-5791.44
-5374.8
-4980.14
-4607.74
-4257.46
-3928.77
-3620.83
-3332.49
-3062.35
-2808.84
-2570.24
-2344.77
-2131
-1927.11
-1731.38
-1542.34
-1358.65
-1179.19
-1003.1
-829.919
-659.65
-492.517
-328.986
-165.548
-1.88389
-0.0341422
-0.00758043
-0.00316823
-0.000227887
-1.9143e-05
7.16799e-05
0.000942405
0.00847724
0.0770072
0.146773
0.218223
0.291815
0.367257
-11940.2
-11360.8
-10782.7
-10207.3
-9636.36
-9072.04
-8516.63
-7972.53
-7442.11
-6927.68
-6431.32
-5954.89
-5499.94
-5067.7
-4659.04
-4274.47
-3914.14
-3577.91
-3265.3
-2975.56
-2707.71
-2460.59
-2232.85
-2023.03
-1829.67
-1651.29
-1486.47
-1333.79
-1191.84
-1059.26
-934.714
-816.798
-705.073
-598.483
-496.165
-397.39
-301.186
-206.457
-113.456
-28.3888
-0.323016
-0.00715985
-0.00164893
-0.00011404
-2.85297e-05
0.000119266
0.00116466
0.0107645
0.0977028
0.185104
-11933.5
-11341
-10750
-10161.9
-9578.55
-9002.14
-8434.94
-7879.29
-7337.53
-6811.89
-6304.41
-5816.94
-5351.01
-4907.9
-4488.54
-4093.57
-3723.32
-3377.81
-3056.82
-2759.86
-2486.23
-2235.02
-2005.18
-1795.54
-1604.8
-1431.64
-1274.64
-1132.43
-1003.62
-886.853
-780.839
-684.359
-596.276
-515.544
-441.212
-372.45
-308.609
-249.291
-194.409
-143.971
-97.3746
-53.8497
-13.3773
-0.155797
-0.0118968
-0.0153811
-0.000448924
4.0554e-06
0.00100251
0.0116817
-11935.2
-11346.3
-10759.5
-10176.6
-9599.47
-9030
-8470.26
-7922.27
-7387.97
-6869.21
-6367.66
-5884.8
-5421.89
-4979.97
-4559.87
-4162.19
-3787.3
-3435.38
-3106.41
-2800.19
-2516.35
-2254.37
-2013.58
-1793.17
-1592.24
-1409.79
-1244.73
-1095.93
-962.219
-842.399
-735.29
-639.725
-554.578
-478.773
-411.299
-351.212
-297.639
-249.766
-206.816
-168.063
-133.259
-101.926
-73.764
-48.3933
-24.7208
-0.269069
-0.012368
-0.0128556
-0.000284577
2.88851e-05
-11947.3
-11382.8
-10821.2
-10264.4
-9714.06
-9172.07
-8640.03
-8119.46
-7611.7
-7117.97
-6639.3
-6176.59
-5730.57
-5301.87
-4891
-4498.38
-4124.34
-3769.16
-3433.03
-3116.07
-2818.33
-2539.76
-2280.24
-2039.54
-1817.31
-1613.12
-1426.4
-1256.48
-1102.61
-963.925
-839.513
-728.396
-629.562
-541.985
-464.639
-396.515
-336.62
-284.054
-237.935
-197.422
-161.723
-130.091
-101.857
-76.518
-53.8583
-33.9387
-16.6709
-0.178643
-0.00666408
-0.00485509
-11960.8
-11423.8
-10890.5
-10363.3
-9844.15
-9334.56
-8835.83
-8348.9
-7874.45
-7412.89
-6964.46
-6529.28
-6107.41
-5698.9
-5303.78
-4922.18
-4554.24
-4200.22
-3860.41
-3535.18
-3224.93
-2930.05
-2650.95
-2387.98
-2141.41
-1911.44
-1698.12
-1501.38
-1321.01
-1156.65
-1007.78
-873.789
-753.91
-647.3
-553.033
-470.135
-397.605
-334.433
-279.627
-232.227
-191.318
-156.037
-125.572
-99.1577
-76.0506
-55.5309
-37.0046
-20.5129
-7.75085
-0.0836666
-11947.1
-11384
-10829.3
-10287.7
-9762.33
-9254.91
-8765.9
-8294.98
-7841.29
-7403.73
-6981.08
-6572.2
-6176.03
-5791.73
-5418.64
-5056.35
-4704.63
-4363.5
-4033.15
-3713.94
-3406.36
-3111.01
-2828.52
-2559.58
-2304.8
-2064.78
-1839.98
-1630.74
-1437.28
-1259.6
-1097.55
-950.817
-818.898
-701.155
-596.817
-505.01
-424.785
-355.143
-295.064
-243.531
-199.547
-162.153
-130.438
-103.547
-80.684
-61.1337
-44.3154
-29.904
-17.9477
-8.63379
-11761.1
-10973
-10290.3
-9684.66
-9136.76
-8633.26
-8164.56
-7723.61
-7305.1
-6905.03
-6520.31
-6148.63
-5788.22
-5437.8
-5096.51
-4763.8
-4439.45
-4123.49
-3816.16
-3517.93
-3229.36
-2951.18
-2684.15
-2429.06
-2186.69
-1957.75
-1742.86
-1542.5
-1356.99
-1186.48
-1030.92
-890.097
-763.601
-650.865
-551.182
-463.728
-387.592
-321.808
-265.379
-217.302
-176.594
-142.31
-113.557
-89.5115
-69.4402
-52.7149
-38.8241
-27.3547
-17.9285
-10.096
1.22327
1.21339
1.20574
1.20072
1.19872
1.1999
1.20421
1.21198
1.22317
1.23769
1.25539
1.27603
1.29928
1.32482
1.35229
1.3813
1.41145
1.44234
1.47363
1.50499
1.53602
1.56639
1.59594
1.62448
1.65183
1.67789
1.7027
1.72615
1.74819
1.76883
1.78802
1.80581
1.82228
1.83753
1.85142
1.86405
1.87554
1.88608
1.89566
1.9044
1.9124
1.91976
1.92653
1.93278
1.93871
1.94437
1.94987
1.95528
1.96069
1.9662
0.847595
0.85114
0.859418
0.872708
0.891131
0.914613
0.943067
0.976246
1.01388
1.05544
1.10034
1.14793
1.19741
1.24815
1.29939
1.35046
1.40059
1.44923
1.49596
1.54036
1.5821
1.62094
1.65664
1.68904
1.71834
1.74458
1.76777
1.78808
1.80567
1.8206
1.83307
1.84337
1.85172
1.8583
1.86332
1.86698
1.8695
1.87108
1.87181
1.872
1.87178
1.87133
1.87085
1.87037
1.87005
1.8701
1.87055
1.87152
1.87308
1.87531
0.574344
0.591189
0.614839
0.645567
0.683461
0.728402
0.779918
0.837475
0.900223
0.967277
1.03745
1.10949
1.1821
1.25409
1.32433
1.39162
1.45491
1.51387
1.56783
1.61644
1.65954
1.69717
1.72929
1.756
1.77799
1.79543
1.80871
1.81827
1.82447
1.8276
1.82825
1.82676
1.82344
1.81862
1.8126
1.80567
1.7981
1.79002
1.78161
1.77322
1.76495
1.75695
1.7494
1.74236
1.7359
1.73024
1.7254
1.72147
1.71851
1.71652
0.320861
0.348241
0.383947
0.428567
0.482408
0.545353
0.616423
0.694763
0.778973
0.867886
0.959794
1.05289
1.14533
1.23536
1.32135
1.40182
1.47547
1.54194
1.60054
1.65106
1.6936
1.72849
1.75607
1.77677
1.79163
1.80112
1.80599
1.80671
1.80369
1.79795
1.78976
1.77955
1.76772
1.75455
1.7404
1.72556
1.71018
1.69434
1.67836
1.66244
1.64667
1.63119
1.61613
1.60159
1.58759
1.57434
1.5619
1.55034
1.53974
1.53008
-0.0227703
0.024876
0.0785562
0.138937
0.206508
0.281519
0.364006
0.453743
0.550034
0.65195
0.75824
0.867286
0.977228
1.08606
1.19177
1.29251
1.38618
1.47161
1.54682
1.61135
1.66542
1.7096
1.74441
1.77046
1.78911
1.80108
1.80727
1.80828
1.80487
1.79778
1.7877
1.77501
1.76014
1.74333
1.72496
1.70537
1.68465
1.66297
1.64048
1.61749
1.59412
1.57047
1.54675
1.52307
1.49944
1.47617
1.45332
1.43099
1.40931
1.38832
-0.0404593
0.031346
0.107776
0.189007
0.275045
0.365716
0.460688
0.559251
0.66026
0.762966
0.866495
0.969634
1.07107
1.16968
1.26423
1.35356
1.43639
1.51202
1.58008
1.64013
1.69201
1.73587
1.77191
1.80041
1.82214
1.8377
1.84757
1.85245
1.85278
1.84906
1.84179
1.83149
1.81837
1.80269
1.78465
1.76447
1.74232
1.71841
1.69282
1.66569
1.63721
1.60764
1.57713
1.54574
1.51364
1.48103
1.44816
1.41516
1.38212
1.34929
0.645384
0.717178
0.789246
0.86131
0.932963
1.00389
1.07368
1.14208
1.20881
1.27375
1.3368
1.3977
1.45599
1.51137
1.56358
1.61258
1.6582
1.70005
1.73799
1.77193
1.80214
1.82865
1.8512
1.87002
1.88538
1.89737
1.90579
1.91087
1.91269
1.91162
1.90764
1.90089
1.89127
1.87884
1.86385
1.84638
1.82641
1.80392
1.77913
1.75212
1.72301
1.69188
1.65885
1.62404
1.58753
1.54966
1.51072
1.47089
1.43034
1.38922
1.09305
1.15136
1.20756
1.26168
1.31369
1.3637
1.41142
1.45708
1.5006
1.54196
1.58113
1.61813
1.65296
1.68563
1.71615
1.74453
1.77078
1.79492
1.81699
1.83702
1.85486
1.87052
1.88406
1.89552
1.90481
1.91189
1.91689
1.91957
1.91983
1.91773
1.91337
1.9066
1.89753
1.88578
1.87154
1.85484
1.83577
1.81407
1.79
1.76359
1.73491
1.70404
1.67113
1.63617
1.59942
1.56095
1.52098
1.47951
1.43678
1.39305
0.949859
1.0112
1.07106
1.12928
1.18573
1.24028
1.29282
1.34327
1.39154
1.43759
1.4814
1.52293
1.56218
1.59915
1.63382
1.66619
1.69624
1.72395
1.7493
1.77226
1.79277
1.81081
1.82632
1.83925
1.84956
1.8572
1.86214
1.86434
1.86377
1.86042
1.85427
1.84533
1.83364
1.81921
1.80214
1.7824
1.76015
1.73545
1.70841
1.67915
1.6478
1.61449
1.57934
1.54252
1.50417
1.46441
1.42342
1.38146
1.3387
1.29529
0.87324
0.932535
0.990958
1.04836
1.10459
1.15951
1.21298
1.26488
1.31507
1.36345
1.40991
1.45433
1.49663
1.5367
1.57444
1.60974
1.64251
1.67265
1.70005
1.72461
1.74623
1.76482
1.78028
1.79255
1.80155
1.80722
1.80953
1.80845
1.80399
1.79616
1.78505
1.77075
1.75336
1.73301
1.70986
1.68406
1.65579
1.62523
1.59258
1.55804
1.52182
1.4841
1.4451
1.40502
1.36407
1.32237
1.2802
1.23768
1.19496
1.15222
0.783313
0.847727
0.91104
0.973129
1.03388
1.09318
1.15093
1.20703
1.26137
1.31384
1.36432
1.41271
1.45889
1.50269
1.54397
1.58257
1.61834
1.65113
1.68079
1.70718
1.73017
1.74964
1.76548
1.77762
1.78597
1.79051
1.79122
1.78811
1.78124
1.77067
1.75652
1.7389
1.718
1.69398
1.66707
1.63748
1.60546
1.57125
1.53511
1.4973
1.45807
1.41769
1.3764
1.33443
1.29201
1.24936
1.20665
1.16406
1.12175
1.07985
0.589678
0.662095
0.733956
0.805141
0.875518
0.944938
1.01323
1.08022
1.14571
1.2095
1.27138
1.33113
1.38856
1.44345
1.4956
1.54475
1.59067
1.63314
1.672
1.70708
1.73824
1.76537
1.78835
1.80712
1.82164
1.83188
1.83786
1.83963
1.83726
1.83085
1.82054
1.80648
1.78887
1.76791
1.74382
1.71686
1.68728
1.65534
1.6213
1.58545
1.54804
1.50934
1.46959
1.42904
1.3879
1.34638
1.30466
1.26292
1.22131
1.17995
0.444112
0.522009
0.600622
0.679638
0.758755
0.837677
0.916114
0.993772
1.07036
1.14559
1.21917
1.29083
1.36027
1.42722
1.49132
1.55234
1.61005
1.66422
1.71468
1.76124
1.80376
1.8421
1.87618
1.90591
1.93125
1.95218
1.9687
1.98086
1.98871
1.99234
1.99187
1.98743
1.97918
1.96729
1.95196
1.93339
1.91179
1.8874
1.86045
1.83116
1.79977
1.76653
1.73164
1.69534
1.65783
1.61931
1.57999
1.54003
1.4996
1.45886
0.273797
0.363472
0.453851
0.544743
0.635938
0.727198
0.818269
0.908875
0.998728
1.08753
1.17497
1.26074
1.34455
1.42608
1.50506
1.58121
1.65427
1.724
1.79018
1.85256
1.91093
1.96514
2.01505
2.06058
2.10166
2.13825
2.17032
2.19787
2.22095
2.23961
2.25391
2.26396
2.26987
2.27177
2.26981
2.26416
2.25498
2.24246
2.22678
2.20815
2.18676
2.16281
2.1365
2.10804
2.0776
2.0454
2.0116
1.97639
1.93993
1.9024
0.109514
0.208407
0.309486
0.412133
0.515986
0.620679
0.725845
0.831117
0.936125
1.04051
1.1439
1.24597
1.34637
1.44479
1.54092
1.63447
1.72518
1.81278
1.89704
1.97775
2.05471
2.12774
2.1967
2.26146
2.3219
2.37795
2.42953
2.47661
2.51917
2.55721
2.59071
2.61973
2.64434
2.66461
2.68065
2.69257
2.70049
2.70455
2.70489
2.70166
2.69502
2.68511
2.67212
2.65619
2.6375
2.61621
2.59248
2.56648
2.53836
2.50828
0.00132759
0.01558
0.143396
0.272159
0.401632
0.531131
0.660264
0.788663
0.915983
1.0419
1.16612
1.28836
1.40838
1.52594
1.64083
1.75285
1.86182
1.96756
2.06991
2.16873
2.26388
2.35524
2.44268
2.5261
2.60542
2.68054
2.7514
2.81794
2.88013
2.93793
2.99132
3.04032
3.08492
3.12515
3.16106
3.19269
3.2201
3.24336
3.26256
3.27778
3.28912
3.29669
3.30059
3.30094
3.29786
3.29147
3.2819
3.26927
3.25371
3.23535
-0.00016449
0.00109713
0.0180532
0.16899
0.320341
0.471056
0.620809
0.769295
0.916237
1.06138
1.20449
1.34536
1.48378
1.61958
1.7526
1.88267
2.00966
2.13342
2.25385
2.37081
2.4842
2.59392
2.69986
2.80194
2.90007
2.99418
3.08418
3.17002
3.25165
3.32902
3.40208
3.47082
3.53521
3.59525
3.65092
3.70225
3.74925
3.79195
3.83038
3.86458
3.8946
3.92051
3.94237
3.96025
3.97422
3.98436
3.99077
3.99353
3.99274
3.98849
-0.0351738
-0.00101637
0.0173697
0.178419
0.34143
0.50425
0.66649
0.827798
0.987855
1.14637
1.30308
1.45775
1.61014
1.76006
1.90731
2.05173
2.19316
2.33144
2.46645
2.59805
2.72612
2.85057
2.97128
3.08816
3.20113
3.3101
3.415
3.51577
3.61234
3.70467
3.79271
3.87642
3.95578
4.03076
4.10134
4.16751
4.22928
4.28664
4.33961
4.3882
4.43245
4.47238
4.50802
4.53942
4.56663
4.58971
4.6087
4.62367
4.63469
4.64184
-0.110746
-0.00422353
0.0197802
0.199119
0.379076
0.55787
0.735221
0.910877
1.08461
1.25619
1.42545
1.59218
1.75623
1.91743
2.07565
2.23075
2.3826
2.53109
2.67609
2.81751
2.95525
3.0892
3.21929
3.34543
3.46754
3.58555
3.69938
3.80899
3.91431
4.01529
4.11188
4.20405
4.29177
4.375
4.45372
4.52792
4.5976
4.66274
4.72334
4.77943
4.831
4.87809
4.92072
4.95891
4.99272
5.02217
5.04733
5.06824
5.08496
5.09755
-0.249233
-0.0774315
0.11154
0.294933
0.477577
0.659156
0.83939
1.01803
1.19486
1.36966
1.54223
1.7124
1.87999
2.04484
2.2068
2.36571
2.52144
2.67386
2.82282
2.96822
3.10993
3.24783
3.38184
3.51183
3.63773
3.75944
3.87689
3.98999
4.09868
4.2029
4.3026
4.39773
4.48824
4.57412
4.65532
4.73183
4.80365
4.87076
4.93317
4.99088
5.04391
5.09229
5.13603
5.17519
5.20978
5.23987
5.2655
5.28673
5.30362
5.31625
1.97057
1.97374
1.97701
1.98038
1.9839
1.98775
1.99155
1.99543
1.99937
2.00363
2.00807
2.01271
2.01753
2.02258
2.0278
2.03319
2.03882
2.04469
2.05079
2.05715
2.0637
2.07046
2.07749
2.08476
2.09227
2.10006
2.10811
2.11632
2.12467
2.13331
2.14219
2.15131
2.16067
2.17023
2.18002
2.19006
2.20039
2.21076
2.22129
2.2321
2.24315
2.25432
2.26569
2.27723
2.28895
2.30092
2.31294
2.32501
2.33716
2.34952
2.36199
2.37473
2.38734
2.39997
2.41275
2.4256
2.43852
2.45143
2.46438
2.47744
2.49051
2.50329
2.51611
2.52893
2.54169
2.55437
2.56703
2.57958
2.59189
2.60398
2.61601
2.62791
2.63965
2.65125
2.66281
2.67414
2.68507
2.69579
2.70642
2.71691
2.72723
2.73752
2.74751
2.75721
2.76661
2.77595
2.7851
2.79408
2.80289
2.81162
2.82009
2.8282
2.83622
2.84408
2.85177
2.85933
2.86681
2.87387
2.88075
2.88743
2.89391
2.90028
2.90615
2.9115
2.91663
2.92139
2.92579
2.92968
2.93269
2.93532
2.93727
2.9385
2.9389
2.93849
2.93717
2.93459
2.93067
2.92547
2.91872
2.91022
2.8997
2.88706
2.87175
2.85357
2.83241
2.80792
2.77974
2.74757
2.71126
2.67044
2.6247
2.57407
2.51794
2.45614
2.38855
2.31504
2.23546
2.14979
2.05824
1.96108
1.85861
1.75143
1.64002
1.52505
1.40692
1.28637
1.16414
1.04109
0.918054
0.795881
0.675425
0.557521
0.442953
0.332431
0.226583
0.125956
0.0310015
-0.0579269
-0.140578
-0.216809
-0.286573
-0.349919
-0.406983
-0.45797
-0.503148
-0.542842
-0.577401
-0.607181
-0.632569
-0.653966
-0.671746
-0.686279
-0.697922
-0.707017
-0.713879
-0.718773
-0.721968
-0.723681
-0.724134
-0.723505
-0.721964
-0.719611
-0.7166
-0.713013
-0.7089
-0.704377
-0.699447
-0.694169
-0.688559
-0.682631
-0.676352
-0.669755
-0.662826
-0.65558
-0.647961
-0.64
-0.631678
-0.622988
-0.613945
-0.60457
-0.594901
-0.584986
-0.574885
-0.564664
-0.554396
-0.544153
-0.534011
-0.524042
-0.514313
-0.504888
-0.495819
-0.487145
-0.4789
-0.471102
-0.463764
-0.456891
-0.450483
-0.444532
-0.439028
-0.433958
-0.429306
-0.425061
-0.42121
-0.41774
-0.414638
-0.411896
-0.409503
-0.407451
-0.405732
-0.40434
-0.403271
-0.402527
-0.402111
-0.402031
-0.402298
-0.402929
-0.403944
-0.405369
-0.407237
-0.409587
-0.412468
-0.415933
-0.420047
-0.424876
-0.430493
-0.436972
-0.444352
-0.452648
-0.461832
-0.47187
-0.482707
-0.494251
-0.506425
-0.519167
-0.532493
-0.54639
-0.561168
-0.577095
-0.593814
-0.611219
-0.629135
-0.647255
-0.665947
-0.685458
-0.705397
-0.725661
-0.747124
-0.77146
-0.800393
-0.834311
-0.871385
-0.910646
-0.950869
-0.988743
-1.02078
-1.0509
-1.0785
-1.09839
-1.11334
-1.12216
-1.12389
-1.12084
-1.11364
-1.10898
-1.10166
-1.0908
-1.07537
-1.05506
-1.02956
-0.99662
-0.956845
-0.91057
-0.858615
-0.801984
-0.743645
-0.682218
-0.613454
-0.518827
-0.376168
-0.157034
1.87768
1.87956
1.88167
1.88404
1.88672
1.88968
1.89288
1.89643
1.90028
1.90445
1.90896
1.91375
1.91885
1.92424
1.93001
1.93615
1.94266
1.94945
1.95653
1.96399
1.97182
1.98
1.9885
1.99734
2.0065
2.01601
2.02587
2.03597
2.0463
2.05695
2.06795
2.07929
2.09084
2.10267
2.11475
2.12714
2.1398
2.15277
2.16592
2.17928
2.19275
2.20648
2.22037
2.23441
2.24859
2.2629
2.27733
2.29178
2.30628
2.32074
2.33534
2.34996
2.36459
2.37927
2.39394
2.40849
2.42295
2.43725
2.45155
2.46572
2.47977
2.49369
2.50736
2.52078
2.53398
2.54699
2.55976
2.57232
2.5845
2.59626
2.60765
2.61875
2.6295
2.63999
2.64999
2.65944
2.66841
2.67714
2.68552
2.69357
2.70114
2.70827
2.71489
2.72124
2.72702
2.73217
2.73697
2.74137
2.74537
2.74906
2.75227
2.75511
2.75744
2.75952
2.76121
2.76252
2.76353
2.76403
2.76398
2.76317
2.76165
2.75932
2.756
2.75158
2.7459
2.73901
2.73068
2.72084
2.70922
2.69592
2.68082
2.6637
2.64449
2.62302
2.59913
2.57284
2.54396
2.51223
2.47747
2.43945
2.39804
2.35302
2.30433
2.25185
2.19542
2.13503
2.07066
2.00251
1.93068
1.85537
1.77674
1.69509
1.61053
1.52334
1.4338
1.3422
1.24893
1.15412
1.05817
0.96149
0.864586
0.768003
0.672265
0.577868
0.485296
0.394961
0.307281
0.222644
0.141405
0.063877
-0.00966815
-0.0790036
-0.143952
-0.204391
-0.260249
-0.311509
-0.3582
-0.400394
-0.438211
-0.471804
-0.501363
-0.5271
-0.549254
-0.568084
-0.583831
-0.596757
-0.607106
-0.615149
-0.621105
-0.625198
-0.627639
-0.628635
-0.628366
-0.627004
-0.62468
-0.621551
-0.617718
-0.61328
-0.608334
-0.602961
-0.597233
-0.591209
-0.584953
-0.5785
-0.571893
-0.565163
-0.558324
-0.551385
-0.544341
-0.537156
-0.529846
-0.522365
-0.514704
-0.506841
-0.498769
-0.490487
-0.482003
-0.473334
-0.46451
-0.455566
-0.446543
-0.437488
-0.428451
-0.41948
-0.410628
-0.401943
-0.393472
-0.385256
-0.377333
-0.369735
-0.362486
-0.355601
-0.349092
-0.342964
-0.337217
-0.33185
-0.326857
-0.322231
-0.317963
-0.314043
-0.310462
-0.307208
-0.304269
-0.301635
-0.299296
-0.297241
-0.295463
-0.293956
-0.292714
-0.291736
-0.291021
-0.290572
-0.290395
-0.290498
-0.290894
-0.291599
-0.292635
-0.294025
-0.295798
-0.297988
-0.300631
-0.303764
-0.307427
-0.311655
-0.316479
-0.321919
-0.327975
-0.334632
-0.34185
-0.349553
-0.35765
-0.366067
-0.374699
-0.383492
-0.39247
-0.401799
-0.411686
-0.42216
-0.433095
-0.443951
-0.454501
-0.464756
-0.474973
-0.485334
-0.496325
-0.508856
-0.524211
-0.543708
-0.56812
-0.596266
-0.627821
-0.659578
-0.6871
-0.706764
-0.717643
-0.720763
-0.716799
-0.706525
-0.690901
-0.670322
-0.644006
-0.612496
-0.577877
-0.542236
-0.506005
-0.469602
-0.430809
-0.389093
-0.345201
-0.300594
-0.256851
-0.215249
-0.176757
-0.142038
-0.111377
-0.084568
-0.0612091
-0.0409418
-0.0238351
-0.0106001
1.71572
1.7155
1.71563
1.71611
1.71693
1.71811
1.71968
1.72167
1.72398
1.72664
1.72961
1.73305
1.73688
1.74109
1.74568
1.75066
1.75605
1.76181
1.76791
1.77444
1.78135
1.78865
1.79634
1.80446
1.81294
1.82171
1.8308
1.84016
1.84994
1.86004
1.87042
1.88109
1.89203
1.90325
1.91479
1.92651
1.93844
1.95052
1.96288
1.97539
1.98804
2.00084
2.01379
2.02674
2.03973
2.05261
2.06558
2.07855
2.09146
2.1043
2.11706
2.12977
2.14231
2.15471
2.16691
2.17905
2.19099
2.2027
2.21414
2.22531
2.23618
2.24674
2.25689
2.26683
2.27646
2.2856
2.29433
2.3025
2.31031
2.31761
2.32438
2.33061
2.33628
2.3412
2.34544
2.34881
2.35156
2.35353
2.35472
2.3551
2.35456
2.35323
2.35103
2.34803
2.34409
2.33914
2.3332
2.32642
2.3187
2.3101
2.30063
2.29011
2.27873
2.26649
2.25331
2.23921
2.22422
2.20825
2.19106
2.17301
2.15387
2.13345
2.11168
2.08829
2.06334
2.03648
2.00786
1.9773
1.94469
1.90996
1.87306
1.83396
1.79266
1.7492
1.70355
1.65578
1.60591
1.5539
1.49995
1.44402
1.38619
1.32658
1.26526
1.20242
1.13812
1.07249
1.00568
0.937827
0.869168
0.79995
0.730431
0.660874
0.591539
0.522693
0.454613
0.387552
0.321747
0.257423
0.194769
0.133984
0.0752637
0.0187918
-0.0352619
-0.0867506
-0.135551
-0.181565
-0.224714
-0.264943
-0.302227
-0.33656
-0.367953
-0.396438
-0.42207
-0.444921
-0.465079
-0.482656
-0.497766
-0.510542
-0.521127
-0.529662
-0.536305
-0.54121
-0.544527
-0.546417
-0.547025
-0.54646
-0.544889
-0.542424
-0.539174
-0.535245
-0.530728
-0.525706
-0.520254
-0.514423
-0.508286
-0.501885
-0.495263
-0.488462
-0.481509
-0.474438
-0.467278
-0.460053
-0.452789
-0.445505
-0.438226
-0.430961
-0.423717
-0.416485
-0.409255
-0.402002
-0.394709
-0.387362
-0.379951
-0.372474
-0.364938
-0.357353
-0.349734
-0.342102
-0.334481
-0.326896
-0.319375
-0.311946
-0.30464
-0.297484
-0.290505
-0.28373
-0.277179
-0.270874
-0.264831
-0.259062
-0.253577
-0.248381
-0.243477
-0.238864
-0.234541
-0.230503
-0.226744
-0.223256
-0.22003
-0.217058
-0.21433
-0.211836
-0.209565
-0.20751
-0.205661
-0.20401
-0.202551
-0.201279
-0.200191
-0.199283
-0.198558
-0.198016
-0.197662
-0.197502
-0.197545
-0.1978
-0.198279
-0.198994
-0.199958
-0.201184
-0.202682
-0.204459
-0.206519
-0.20886
-0.211473
-0.214339
-0.217434
-0.220726
-0.224163
-0.227697
-0.231238
-0.234715
-0.238076
-0.241308
-0.244439
-0.247521
-0.250594
-0.253654
-0.256648
-0.259547
-0.262413
-0.265396
-0.268701
-0.272564
-0.277238
-0.282974
-0.289903
-0.297864
-0.306318
-0.314081
-0.319906
-0.322249
-0.320083
-0.313309
-0.302491
-0.288515
-0.27225
-0.254358
-0.235284
-0.215279
-0.194635
-0.173805
-0.153367
-0.133835
-0.115525
-0.0985193
-0.0827649
-0.0682931
-0.055226
-0.043695
-0.0337792
-0.0254792
-0.0187198
-0.0133665
-0.00924246
-0.00615041
-0.00389776
-0.00231417
-0.00125871
-0.000615497
1.52307
1.51854
1.51436
1.51053
1.50705
1.50395
1.50126
1.49891
1.49688
1.4952
1.49397
1.49311
1.49262
1.49251
1.49276
1.49338
1.49436
1.49571
1.49742
1.49949
1.50192
1.50476
1.50798
1.51148
1.5153
1.51944
1.52398
1.52884
1.53396
1.53934
1.54495
1.55077
1.55677
1.56295
1.56929
1.57581
1.58242
1.58907
1.59589
1.60278
1.60978
1.61677
1.62373
1.63062
1.63751
1.64438
1.65111
1.65768
1.66404
1.67014
1.67602
1.68165
1.68707
1.69223
1.69702
1.70161
1.7059
1.70984
1.71342
1.71661
1.71941
1.72187
1.72397
1.72558
1.72679
1.72754
1.72795
1.72789
1.72729
1.72618
1.72446
1.72207
1.71901
1.7152
1.71063
1.70515
1.69872
1.69128
1.68282
1.67332
1.66276
1.65116
1.63857
1.62494
1.61025
1.59445
1.57757
1.55961
1.54051
1.52027
1.4989
1.47642
1.45287
1.42824
1.40257
1.37589
1.34822
1.3196
1.2901
1.25979
1.22862
1.19675
1.16399
1.13043
1.09596
1.06053
1.02413
0.986738
0.948376
0.909074
0.868881
0.827869
0.786106
0.743657
0.700634
0.65708
0.613085
0.568724
0.52409
0.479284
0.434411
0.389586
0.34493
0.30056
0.25658
0.213092
0.170193
0.127989
0.0865875
0.0460991
0.00663601
-0.0316916
-0.0687793
-0.104529
-0.138852
-0.171666
-0.202901
-0.232499
-0.260414
-0.28661
-0.311061
-0.333755
-0.354686
-0.373861
-0.391293
-0.407005
-0.421029
-0.433399
-0.444167
-0.453386
-0.461115
-0.467419
-0.47237
-0.476041
-0.47851
-0.479857
-0.480162
-0.479508
-0.477976
-0.475648
-0.472603
-0.468918
-0.464669
-0.459924
-0.454749
-0.449205
-0.443348
-0.43723
-0.430896
-0.424386
-0.417733
-0.410965
-0.404108
-0.397182
-0.390206
-0.383196
-0.376166
-0.369127
-0.362089
-0.355061
-0.348052
-0.34107
-0.334124
-0.327222
-0.32037
-0.313574
-0.306836
-0.300153
-0.29352
-0.286931
-0.280381
-0.27387
-0.2674
-0.260974
-0.254598
-0.24828
-0.242031
-0.235863
-0.229787
-0.223818
-0.21797
-0.212256
-0.206691
-0.201287
-0.196056
-0.191009
-0.186155
-0.181501
-0.177051
-0.172811
-0.168782
-0.164963
-0.161353
-0.157949
-0.154747
-0.151741
-0.148924
-0.146289
-0.143828
-0.141533
-0.139395
-0.137405
-0.135555
-0.133838
-0.132246
-0.130772
-0.129412
-0.128159
-0.127012
-0.125968
-0.125024
-0.124181
-0.123439
-0.122799
-0.122261
-0.121827
-0.121494
-0.121264
-0.121131
-0.12109
-0.121133
-0.121249
-0.121424
-0.121639
-0.121875
-0.122108
-0.122315
-0.12247
-0.122548
-0.122519
-0.122355
-0.122037
-0.121557
-0.120915
-0.120119
-0.119185
-0.118126
-0.116958
-0.115699
-0.114368
-0.112984
-0.111562
-0.110104
-0.108597
-0.107011
-0.105297
-0.103383
-0.10117
-0.0985171
-0.095292
-0.091426
-0.0869019
-0.0817509
-0.0760583
-0.0699566
-0.0636068
-0.0571755
-0.0508141
-0.0446487
-0.0387759
-0.0332701
-0.0281908
-0.023583
-0.0194733
-0.0158666
-0.0127452
-0.0100776
-0.00782823
-0.00596202
-0.00444313
-0.0032337
-0.0022937
-0.001582
-0.00105807
-0.000683812
-0.000425052
-0.000252557
-0.000142379
-7.5609e-05
-3.77354e-05
1.372
1.36091
1.35011
1.33959
1.32937
1.31944
1.30982
1.30052
1.29155
1.28283
1.27448
1.26646
1.25877
1.25142
1.24439
1.2377
1.23134
1.22531
1.21961
1.21422
1.20916
1.20441
1.19999
1.19591
1.1921
1.18851
1.18527
1.18231
1.1796
1.17712
1.17485
1.17277
1.17085
1.16908
1.16743
1.1659
1.16445
1.16303
1.16168
1.16034
1.15901
1.15766
1.1563
1.15479
1.15318
1.15149
1.14966
1.14765
1.14541
1.14295
1.14025
1.13729
1.13404
1.13049
1.12662
1.12241
1.11784
1.1129
1.10757
1.10183
1.09567
1.08911
1.08216
1.07483
1.06705
1.05883
1.05026
1.04129
1.03187
1.022
1.01166
1.00082
0.989427
0.977541
0.965087
0.952036
0.938366
0.924057
0.909098
0.89348
0.877205
0.860295
0.842754
0.824574
0.805749
0.786342
0.766293
0.745584
0.724211
0.702177
0.679494
0.656179
0.632255
0.607753
0.582705
0.557149
0.531127
0.504686
0.477877
0.450759
0.423395
0.395832
0.36811
0.340256
0.312297
0.284264
0.25619
0.228112
0.200072
0.172113
0.144282
0.116631
0.0892107
0.0620759
0.0352756
0.00885859
-0.0171286
-0.0426378
-0.0676204
-0.0920281
-0.115814
-0.138931
-0.161334
-0.182981
-0.203832
-0.22385
-0.243003
-0.261262
-0.278602
-0.295001
-0.310441
-0.324906