/*--------------------------------*- C++ -*----------------------------------*\
| =========                 |                                                 |
| \\      /  F ield         | OpenFOAM: The Open Source CFD Toolbox           |
|  \\    /   O peration     | Version:  2.4.0                                 |
|   \\  /    A nd           | Web:      www.OpenFOAM.org                      |
|    \\/     M anipulation  |                                                 |
\*---------------------------------------------------------------------------*/
FoamFile
{
    version     2.0;
    format      ascii;
    class       surfaceScalarField;
    location    "2.6";
    object      phi;
}
// * * * * * * * * * * * * * * * * * * * * * * * * * * * * * * * * * * * * * //

dimensions      [0 3 -1 0 0 0 0];

internalField   nonuniform List<scalar> 
15580
(
-4.16548e-13
-1.7137e-12
-1.57083e-12
-5.16078e-12
-3.38923e-12
-8.60274e-12
-5.80703e-12
-1.20214e-11
-8.76376e-12
-1.54094e-11
-1.21953e-11
-1.87617e-11
-1.60422e-11
-2.20758e-11
-2.02362e-11
-2.53507e-11
-2.47145e-11
-2.85875e-11
-2.93994e-11
-3.17895e-11
-3.422e-11
-3.49616e-11
-3.90826e-11
-3.81119e-11
-4.3903e-11
-4.12489e-11
-4.85647e-11
-4.43868e-11
-5.29605e-11
-4.75405e-11
-5.69318e-11
-5.07394e-11
-6.03322e-11
-5.40052e-11
-6.38119e-11
-5.65296e-11
-6.73821e-11
-5.90073e-11
-7.43401e-11
-6.41384e-11
-1.39541e-10
-6.13825e-11
-1.96537e-10
-2.38282e-11
-1.96156e-10
-6.83822e-11
-2.11456e-10
-4.03135e-11
-6.30826e-10
4.18053e-10
-1.01676e-09
3.3082e-10
-9.79547e-10
5.28331e-10
-1.254e-09
5.85615e-10
-1.45753e-09
4.74691e-10
-1.48786e-09
4.21686e-10
-1.42872e-09
3.74519e-10
-1.36227e-09
3.2569e-10
-1.3019e-09
2.80231e-10
-1.25378e-09
2.37059e-10
-1.2176e-09
1.97061e-10
-1.19029e-09
1.61245e-10
-1.1684e-09
1.293e-10
-1.15144e-09
1.027e-10
-1.13973e-09
8.02631e-11
-1.13059e-09
5.78037e-11
-1.1232e-09
3.69404e-11
-1.11642e-09
1.74981e-11
-1.10899e-09
-9.22609e-13
-1.1005e-09
-1.83862e-11
-1.08969e-09
-3.59213e-11
-1.07532e-09
-5.33917e-11
-1.05691e-09
-7.01991e-11
-1.03343e-09
-8.74368e-11
-1.0059e-09
-1.0209e-10
-1.17317e-10
-9.74515e-10
-9.11724e-14
-1.62253e-12
-4.23813e-13
-4.82814e-12
-1.03815e-12
-7.98841e-12
-1.96097e-12
-1.10986e-11
-3.20981e-12
-1.41605e-11
-4.79795e-12
-1.71736e-11
-6.73026e-12
-2.01435e-11
-9.01059e-12
-2.30703e-11
-1.16328e-11
-2.59653e-11
-1.45935e-11
-2.88288e-11
-1.78756e-11
-3.16795e-11
-2.14703e-11
-3.45172e-11
-2.53464e-11
-3.73727e-11
-2.9487e-11
-4.02462e-11
-3.38411e-11
-4.31864e-11
-3.85904e-11
-4.59901e-11
-4.37783e-11
-4.88174e-11
-5.07815e-11
-5.41918e-11
-1.16381e-10
-5.21977e-11
-1.88426e-10
-1.05048e-11
-1.65231e-10
-8.47486e-11
-1.59198e-10
-2.98605e-11
-4.6327e-10
2.3569e-10
-7.18905e-10
2.15321e-10
-7.37122e-10
4.36271e-10
-9.95642e-10
5.8934e-10
-1.03304e-09
5.65726e-10
-9.65152e-10
5.1773e-10
-9.50566e-10
4.60105e-10
-9.3544e-10
4.0656e-10
-9.20354e-10
3.59432e-10
-9.10402e-10
3.15738e-10
-9.05991e-10
2.7582e-10
-9.08395e-10
2.39462e-10
-9.16732e-10
2.05399e-10
-9.29407e-10
1.7392e-10
-9.45004e-10
1.44897e-10
-9.60461e-10
1.18157e-10
-9.74226e-10
9.40284e-11
-9.87208e-10
7.0786e-11
-9.98263e-10
4.79956e-11
-1.00745e-09
2.66826e-11
-1.01396e-09
5.58938e-12
-1.0172e-09
-1.5142e-11
-1.01648e-09
-3.66445e-11
-1.01187e-09
-5.80058e-11
-1.00353e-09
-7.85335e-11
-9.93262e-10
-9.77066e-11
-9.78344e-10
-1.17008e-10
-1.35949e-10
-9.59712e-10
-8.50816e-14
-1.53745e-12
-4.47328e-13
-4.4659e-12
-1.14976e-12
-7.28597e-12
-2.23652e-12
-1.00118e-11
-3.74447e-12
-1.26526e-11
-5.71641e-12
-1.52016e-11
-8.18641e-12
-1.76735e-11
-1.12016e-11
-2.00551e-11
-1.4798e-11
-2.2369e-11
-1.90329e-11
-2.45939e-11
-2.39481e-11
-2.67643e-11
-2.96158e-11
-2.88495e-11
-3.60869e-11
-3.09016e-11
-4.34648e-11
-3.28683e-11
-5.19049e-11
-3.47463e-11
-6.11548e-11
-3.69503e-11
-1.10652e-10
-3.8309e-11
-1.70837e-10
-3.4656e-11
-1.88345e-10
-3.50144e-11
-1.74904e-10
-2.39456e-11
-3.55112e-10
9.54592e-11
-4.83547e-10
9.85739e-11
-5.1705e-10
2.69194e-10
-7.09878e-10
4.08148e-10
-7.31764e-10
4.58157e-10
-6.20077e-10
4.77652e-10
-5.16588e-10
4.62237e-10
-4.34585e-10
4.35728e-10
-3.76684e-10
4.02204e-10
-3.36514e-10
3.66391e-10
-3.08196e-10
3.31114e-10
-2.91961e-10
2.99502e-10
-2.84408e-10
2.68268e-10
-2.83347e-10
2.38401e-10
-2.88709e-10
2.10761e-10
-2.96938e-10
1.82149e-10
-3.08696e-10
1.56655e-10
-3.21919e-10
1.31381e-10
-3.34814e-10
1.06923e-10
-3.47495e-10
8.34673e-11
-3.60694e-10
6.11942e-11
-3.72446e-10
3.84345e-11
-3.8346e-10
1.66032e-11
-3.94753e-10
-3.84915e-12
-4.06503e-10
-2.48939e-11
-4.19214e-10
-4.52951e-11
-4.32881e-10
-6.48668e-11
-4.46792e-10
-8.37954e-11
-4.61687e-10
-1.02113e-10
-1.19465e-10
-4.78172e-10
-4.98187e-13
-1.03926e-12
-1.87482e-12
-3.08927e-12
-4.07422e-12
-5.08657e-12
-7.07996e-12
-7.00606e-12
-1.08744e-11
-8.85814e-12
-1.54556e-11
-1.06204e-11
-2.08153e-11
-1.23138e-11
-2.69666e-11
-1.39039e-11
-3.39107e-11
-1.54248e-11
-4.16765e-11
-1.68281e-11
-5.02772e-11
-1.81636e-11
-5.97628e-11
-1.93639e-11
-7.01598e-11
-2.05046e-11
-8.15004e-11
-2.15277e-11
-9.75127e-11
-2.28633e-11
-1.92182e-10
-2.41825e-11
-2.3269e-10
1.53128e-12
-2.6668e-10
-6.66252e-13
-3.32917e-10
3.1222e-11
-4.04627e-10
4.77651e-11
-4.19014e-10
1.09846e-10
-5.02035e-10
1.81594e-10
-4.62928e-10
2.30087e-10
-3.23973e-10
2.69194e-10
-1.59707e-10
2.93891e-10
1.21175e-11
3.05828e-10
1.67152e-10
3.07202e-10
3.01887e-10
3.00993e-10
4.14416e-10
2.89675e-10
5.05819e-10
2.74988e-10
5.78419e-10
2.58514e-10
6.36888e-10
2.41034e-10
6.81589e-10
2.23566e-10
7.14472e-10
2.05518e-10
7.38418e-10
1.86815e-10
7.5055e-10
1.70017e-10
7.54327e-10
1.52878e-10
7.50037e-10
1.35671e-10
7.39242e-10
1.17719e-10
7.22874e-10
9.98352e-11
7.02036e-10
8.20317e-11
6.75236e-10
6.52343e-11
6.43852e-10
4.79871e-11
6.09247e-10
3.0756e-11
5.70514e-10
1.38396e-11
5.27854e-10
-2.63585e-12
4.81604e-10
-1.8616e-11
4.31591e-10
-3.37831e-11
3.77057e-10
-4.75784e-11
-6.16302e-11
3.19223e-10
-4.32209e-13
-6.07056e-13
-1.76705e-12
-1.75443e-12
-4.00218e-12
-2.85144e-12
-7.11402e-12
-3.89423e-12
-1.10935e-11
-4.87862e-12
-1.59274e-11
-5.78656e-12
-2.16181e-11
-6.62308e-12
-2.81545e-11
-7.36742e-12
-3.55434e-11
-8.03601e-12
-4.37674e-11
-8.60407e-12
-5.28311e-11
-9.09985e-12
-6.2717e-11
-9.47807e-12
-7.34483e-11
-9.77331e-12
-9.98164e-11
-1.01956e-11
-1.78478e-10
-1.09868e-11
-1.89352e-10
-1.33079e-11
-1.39889e-10
-4.79321e-11
-7.75846e-11
-6.29703e-11
-3.36999e-11
-1.26627e-11
2.2558e-11
-8.4928e-12
1.1959e-10
1.28142e-11
2.55942e-10
4.52425e-11
4.1897e-10
6.70587e-11
5.97971e-10
9.01929e-11
7.83986e-10
1.07876e-10
9.66478e-10
1.23336e-10
1.13861e-09
1.35072e-10
1.29504e-09
1.44557e-10
1.43455e-09
1.50172e-10
1.55666e-09
1.52877e-10
1.6621e-09
1.53068e-10
1.75186e-09
1.51273e-10
1.82765e-09
1.47776e-10
1.8903e-09
1.42872e-10
1.94002e-09
1.37091e-10
1.97917e-09
1.3087e-10
2.00851e-09
1.23537e-10
2.02961e-09
1.14571e-10
2.04131e-09
1.06016e-10
2.0444e-09
9.67511e-11
2.03959e-09
8.68412e-11
2.02715e-09
7.7674e-11
2.0066e-09
6.85336e-11
1.97739e-09
5.99694e-11
1.93817e-09
5.30638e-11
1.88696e-09
4.8573e-11
1.82513e-09
4.32119e-11
1.75587e-09
3.548e-11
1.68531e-09
2.29722e-11
1.15467e-11
1.61214e-09
2.34599e-14
-6.30516e-13
1.07966e-13
-1.83893e-12
1.32669e-13
-2.87614e-12
-8.14381e-14
-3.68012e-12
-7.18047e-13
-4.24201e-12
-1.9521e-12
-4.55251e-12
-3.97161e-12
-4.60357e-12
-6.95458e-12
-4.38445e-12
-1.1102e-11
-3.88861e-12
-1.66044e-11
-3.10164e-12
-2.36784e-11
-2.02584e-12
-3.24971e-11
-6.59367e-13
-4.3372e-11
9.63715e-13
-1.65484e-10
3.32352e-12
-1.82585e-10
5.12541e-12
-1.92402e-10
-3.49087e-12
-9.79574e-11
-1.42377e-10
-1.15051e-10
-4.58764e-11
-8.07573e-11
-4.69568e-11
4.11148e-11
-1.30365e-10
2.50251e-10
-1.96322e-10
4.12227e-10
-1.16734e-10
4.85291e-10
-6.00512e-12
5.10206e-10
6.52778e-11
5.15011e-10
1.0307e-10
5.22387e-10
1.1596e-10
5.42361e-10
1.15099e-10
5.76515e-10
1.10403e-10
6.20818e-10
1.05869e-10
6.71602e-10
1.02093e-10
7.25845e-10
9.88244e-11
7.81832e-10
9.52871e-11
8.38304e-10
9.13041e-11
8.94124e-10
8.70512e-11
9.48587e-10
8.26288e-11
1.00183e-09
7.76303e-11
1.05281e-09
7.2555e-11
1.10014e-09
6.72422e-11
1.14454e-09
6.16154e-11
1.18521e-09
5.60752e-11
1.22113e-09
5.09291e-11
1.25246e-09
4.63447e-11
1.27756e-09
4.34243e-11
1.29494e-09
4.25975e-11
1.30518e-09
4.28207e-11
1.30838e-09
4.53755e-11
1.28734e-09
6.42502e-11
1.27078e-09
5.20426e-11
1.24753e-09
4.622e-11
3.86658e-11
1.22041e-09
9.03914e-13
-1.53443e-12
2.94449e-12
-3.87951e-12
5.73857e-12
-5.67022e-12
9.04724e-12
-6.98879e-12
1.2642e-11
-7.83676e-12
1.63009e-11
-8.21142e-12
1.98059e-11
-8.10853e-12
2.294e-11
-7.51855e-12
2.54836e-11
-6.43225e-12
2.72148e-11
-4.83281e-12
2.78954e-11
-2.70648e-12
2.72563e-11
-2.02652e-14
2.49741e-11
3.24589e-12
2.15895e-11
6.98079e-12
1.07501e-11
1.12288e-11
-9.52897e-11
2.24113e-11
-2.56834e-10
1.823e-11
-2.81884e-10
-2.08265e-11
-3.44371e-10
1.55308e-11
-2.09863e-10
-2.64874e-10
-3.23127e-10
-8.30575e-11
-3.23489e-10
-1.16372e-10
-3.76219e-10
4.67257e-11
-4.71962e-10
1.6102e-10
-5.04476e-10
1.35585e-10
-5.03759e-10
1.15242e-10
-5.37658e-10
1.48998e-10
-5.90923e-10
1.63668e-10
-6.42206e-10
1.57153e-10
-6.80227e-10
1.40115e-10
-6.99681e-10
1.18278e-10
-7.03473e-10
9.90794e-11
-6.9319e-10
8.10206e-11
-6.72101e-10
6.59624e-11
-6.4263e-10
5.31576e-11
-6.07899e-10
4.28991e-11
-5.69506e-10
3.41622e-11
-5.28473e-10
2.62091e-11
-4.86136e-10
1.92793e-11
-4.43312e-10
1.32506e-11
-4.00196e-10
7.81352e-12
-3.56478e-10
2.62605e-12
-3.1147e-10
-1.583e-12
-2.63767e-10
-5.10553e-12
-2.11623e-10
-9.32372e-12
-1.51678e-10
-1.45695e-11
-5.50688e-11
-3.2359e-11
1.68482e-11
-1.98744e-11
8.25874e-11
-1.95192e-11
-1.9355e-11
1.40608e-10
-4.98894e-13
-1.03554e-12
-1.51119e-12
-2.86721e-12
-2.78208e-12
-4.39934e-12
-4.1748e-12
-5.59606e-12
-5.55598e-12
-6.45558e-12
-6.80085e-12
-6.96655e-12
-7.778e-12
-7.13138e-12
-8.36145e-12
-6.9351e-12
-8.40777e-12
-6.38593e-12
-7.77725e-12
-5.46333e-12
-6.29982e-12
-4.1839e-12
-3.80149e-12
-2.5186e-12
-5.97572e-14
-4.95834e-13
4.99029e-12
1.93075e-12
1.15006e-11
4.71849e-12
1.86355e-11
6.3141e-12
1.27757e-11
7.73918e-12
-7.80603e-11
7.92675e-12
-7.56287e-11
1.22311e-11
-3.3412e-10
-8.32421e-12
-5.24648e-10
1.07471e-10
-6.35661e-10
-5.35902e-12
-8.58882e-10
2.69947e-10
-1.03362e-09
3.35759e-10
-8.48553e-10
-4.94833e-11
-7.38403e-10
5.09258e-12
-6.90955e-10
1.0155e-10
-6.96086e-10
1.68798e-10
-7.18913e-10
1.7998e-10
-7.22713e-10
1.43914e-10
-6.74338e-10
6.99032e-11
-6.32731e-10
5.74728e-11
-6.18708e-10
6.69978e-11
-6.00791e-10
4.80447e-11
-5.44113e-10
-3.51992e-12
-4.86025e-10
-1.51887e-11
-4.31671e-10
-2.01926e-11
-3.81772e-10
-2.36898e-11
-3.34853e-10
-2.76398e-11
-2.91207e-10
-3.03954e-11
-2.50453e-10
-3.29398e-11
-2.1294e-10
-3.48876e-11
-1.77273e-10
-3.725e-11
-1.42039e-10
-4.03399e-11
-1.07049e-10
-4.43134e-11
-7.15399e-11
-5.00785e-11
-5.15347e-11
-5.23641e-11
-1.81913e-11
-5.32179e-11
1.26486e-11
-5.03591e-11
-4.92688e-11
4.25625e-11
-1.17055e-13
-9.18481e-13
-3.23454e-13
-2.66082e-12
-4.85886e-13
-4.2369e-12
-4.7671e-13
-5.60524e-12
-1.69422e-13
-6.76287e-12
5.63655e-13
-7.69963e-12
1.85234e-12
-8.42007e-12
3.83138e-12
-8.91414e-12
6.64044e-12
-9.19499e-12
1.04282e-11
-9.25113e-12
1.53507e-11
-9.10638e-12
2.15777e-11
-8.74558e-12
2.92887e-11
-8.2068e-12
3.86882e-11
-7.46877e-12
4.99963e-11
-6.58958e-12
6.18424e-11
-5.53209e-12
7.39415e-11
-4.35993e-12
8.43881e-11
-2.84532e-12
8.69471e-11
-1.64747e-12
7.8111e-11
4.00939e-13
8.81421e-11
1.1282e-12
7.81296e-11
2.44852e-12
3.444e-10
3.02611e-12
6.72309e-10
7.53317e-12
5.44395e-10
7.83526e-11
5.3338e-10
1.61074e-11
4.87936e-10
1.46994e-10
4.27096e-10
2.29638e-10
3.47009e-10
2.60067e-10
5.33512e-10
-4.25882e-11
6.16995e-10
-1.35797e-11
6.09121e-10
6.53462e-11
5.56739e-10
1.1938e-10
5.12938e-10
9.18453e-11
5.3361e-10
-2.41919e-11
5.62585e-10
-4.41639e-11
5.46262e-10
-3.86924e-12
5.38643e-10
-1.60711e-11
5.64149e-10
-5.31453e-11
5.92781e-10
-5.90274e-11
6.12909e-10
-5.3068e-11
6.23611e-10
-4.55899e-11
6.29656e-10
-4.32946e-11
6.30997e-10
-4.16813e-11
6.26745e-10
-4.00611e-11
6.15282e-10
-3.86158e-11
6.00314e-10
-3.73957e-11
5.83554e-10
-3.64579e-11
5.69082e-10
-3.58866e-11
-3.5566e-11
5.55379e-10
8.09195e-13
-1.72768e-12
2.89204e-12
-4.74366e-12
6.06687e-12
-7.41174e-12
1.02444e-11
-9.78272e-12
1.53456e-11
-1.18642e-11
2.13127e-11
-1.36667e-11
2.80873e-11
-1.51947e-11
3.56323e-11
-1.64591e-11
4.38982e-11
-1.74609e-11
5.28594e-11
-1.82123e-11
6.24632e-11
-1.87102e-11
7.2687e-11
-1.89693e-11
8.34616e-11
-1.89814e-11
9.47585e-11
-1.87657e-11
1.06475e-10
-1.83062e-11
1.18571e-10
-1.76284e-11
1.30916e-10
-1.67047e-11
1.43636e-10
-1.55647e-11
1.56142e-10
-1.41535e-11
1.69063e-10
-1.25201e-11
1.80714e-10
-1.05372e-11
1.91346e-10
-8.21343e-12
1.98105e-10
-5.20931e-12
2.00349e-10
-1.29101e-12
2.02293e-10
2.88713e-12
1.81837e-10
7.94621e-12
3.15728e-10
1.22434e-11
5.26882e-10
1.82497e-11
7.51219e-10
3.56854e-11
6.81902e-10
2.67283e-11
6.71773e-10
-3.44986e-12
6.13106e-10
1.24013e-10
5.50715e-10
1.81772e-10
5.91167e-10
5.13929e-11
6.57475e-10
-9.05002e-11
5.68547e-10
4.47649e-11
4.87112e-10
7.75657e-11
4.30165e-10
4.08763e-11
4.19059e-10
-4.20402e-11
4.16783e-10
-5.67505e-11
3.82845e-10
-1.91306e-11
3.6904e-10
-3.17852e-11
3.67637e-10
-4.18911e-11
3.66277e-10
-4.03216e-11
3.61844e-10
-3.56275e-11
3.57204e-10
-3.39767e-11
3.5292e-10
-3.31114e-11
3.4882e-10
-3.23577e-11
3.44669e-10
-3.17352e-11
-3.12892e-11
3.40392e-10
3.42509e-14
-1.76193e-12
3.38561e-13
-5.04797e-12
9.86245e-13
-8.05942e-12
1.98795e-12
-1.07844e-11
3.35458e-12
-1.32308e-11
5.09522e-12
-1.54073e-11
7.21962e-12
-1.73191e-11
9.73469e-12
-1.89742e-11
1.26486e-11
-2.03749e-11
1.59654e-11
-2.15291e-11
1.96912e-11
-2.24359e-11
2.38259e-11
-2.31041e-11
2.83726e-11
-2.35281e-11
3.33259e-11
-2.37189e-11
3.86848e-11
-2.36651e-11
4.4438e-11
-2.33815e-11
5.05815e-11
-2.28483e-11
5.71036e-11
-2.20869e-11
6.40152e-11
-2.10651e-11
7.13111e-11
-1.9816e-11
7.90618e-11
-1.82879e-11
8.73795e-11
-1.65311e-11
9.66339e-11
-1.44637e-11
1.07507e-10
-1.21646e-11
1.19926e-10
-9.53123e-12
1.34552e-10
-6.73508e-12
1.49453e-10
-3.49534e-12
1.60183e-10
-4.08185e-14
1.63052e-10
3.2353e-12
1.67958e-10
6.8648e-12
1.53434e-10
1.0571e-11
2.61416e-10
1.58735e-11
4.228e-10
2.03523e-11
4.44097e-10
3.00956e-11
3.62443e-10
-8.84613e-12
3.30793e-10
7.64153e-11
3.04586e-10
1.03772e-10
3.17993e-10
2.74698e-11
3.23911e-10
-4.79579e-11
2.3495e-10
3.22115e-11
1.68079e-10
4.77403e-11
1.36049e-10
2.44741e-13
1.16906e-10
-2.27479e-11
7.78924e-11
-1.30809e-12
5.23405e-11
-1.00756e-11
4.22507e-11
-2.38869e-11
3.76544e-11
-2.85151e-11
3.42644e-11
-2.89677e-11
3.09391e-11
-2.84099e-11
-2.86508e-11
2.83007e-11
-6.89793e-14
-1.69295e-12
-3.16619e-13
-4.80033e-12
-7.13512e-13
-7.66253e-12
-1.19992e-12
-1.0298e-11
-1.72102e-12
-1.27097e-11
-2.22748e-12
-1.49009e-11
-2.6726e-12
-1.6874e-11
-3.01439e-12
-1.86324e-11
-3.21121e-12
-2.0178e-11
-3.22584e-12
-2.15145e-11
-3.0188e-12
-2.2643e-11
-2.55543e-12
-2.35674e-11
-1.79556e-12
-2.4288e-11
-7.05146e-13
-2.48093e-11
7.59842e-13
-2.51301e-11
2.63471e-12
-2.52564e-11
4.97108e-12
-2.51847e-11
7.80739e-12
-2.49232e-11
1.12078e-11
-2.44655e-11
1.52152e-11
-2.38234e-11
1.99134e-11
-2.29861e-11
2.53537e-11
-2.19714e-11
3.16524e-11
-2.07623e-11
3.8874e-11
-1.93862e-11
4.71603e-11
-1.78176e-11
5.6525e-11
-1.60997e-11
6.72185e-11
-1.41889e-11
7.9322e-11
-1.21443e-11
9.24561e-11
-9.89882e-12
1.06807e-10
-7.53569e-12
1.22122e-10
-4.81995e-12
1.37918e-10
-2.21984e-12
1.42647e-10
6.55727e-13
1.58789e-10
3.09087e-12
1.43023e-10
6.63162e-12
2.09193e-10
1.0175e-11
2.9718e-10
1.57841e-11
3.07008e-10
1.7642e-11
2.69069e-10
-1.00189e-11
2.41695e-10
5.95854e-11
2.41017e-10
4.84182e-11
2.5531e-10
-1.40476e-11
2.11572e-10
2.09916e-11
1.78152e-10
3.21114e-11
1.64434e-10
3.64235e-12
1.66735e-10
-2.6188e-11
1.5871e-10
-2.04896e-11
1.48975e-10
-1.92329e-11
1.42655e-10
-2.20904e-11
-2.31549e-11
1.37159e-10
-2.19702e-13
-1.47324e-12
-7.47077e-13
-4.27296e-12
-1.50718e-12
-6.90242e-12
-2.45367e-12
-9.35152e-12
-3.54109e-12
-1.16223e-11
-4.72571e-12
-1.37163e-11
-5.96446e-12
-1.56352e-11
-7.21632e-12
-1.73805e-11
-8.4404e-12
-1.8954e-11
-9.5981e-12
-2.03568e-11
-1.06502e-11
-2.15909e-11
-1.15603e-11
-2.26573e-11
-1.22902e-11
-2.35581e-11
-1.28055e-11
-2.4294e-11
-1.30684e-11
-2.48672e-11
-1.30463e-11
-2.52784e-11
-1.27012e-11
-2.55298e-11
-1.20025e-11
-2.56219e-11
-1.09109e-11
-2.55571e-11
-9.39857e-12
-2.53357e-11
-7.42426e-12
-2.49604e-11
-4.96415e-12
-2.44315e-11
-1.97441e-12
-2.37521e-11
1.56154e-12
-2.29222e-11
5.68923e-12
-2.19453e-11
1.04114e-11
-2.08219e-11
1.57777e-11
-1.95553e-11
2.17802e-11
-1.81468e-11
2.84799e-11
-1.65985e-11
3.58589e-11
-1.49147e-11
4.41319e-11
-1.3093e-11
5.30509e-11
-1.11389e-11
6.27487e-11
-9.04205e-12
7.26237e-11
-6.80357e-12
8.359e-11
-4.35974e-12
9.46521e-11
-1.88202e-12
9.50479e-11
4.18797e-13
1.09847e-10
2.58186e-12
9.413e-11
5.64387e-12
1.45233e-10
8.47161e-12
1.80997e-10
1.26547e-11
1.71254e-10
-4.30504e-12
1.6566e-10
2.65855e-11
1.74991e-10
2.27804e-11
2.07526e-10
-2.88907e-11
1.80205e-10
1.13297e-12
1.66348e-10
-6.63315e-12
1.60606e-10
-1.34901e-11
1.5167e-10
-1.3155e-11
-1.13388e-11
1.39854e-10
-1.66574e-13
-1.30667e-12
-6.84286e-13
-3.75524e-12
-1.52811e-12
-6.0586e-12
-2.65314e-12
-8.22649e-12
-4.01596e-12
-1.02594e-11
-5.57419e-12
-1.2158e-11
-7.28661e-12
-1.39228e-11
-9.11284e-12
-1.55543e-11
-1.10137e-11
-1.70531e-11
-1.29507e-11
-1.84198e-11
-1.48865e-11
-1.96551e-11
-1.67843e-11
-2.07596e-11
-1.86083e-11
-2.1734e-11
-2.03231e-11
-2.25792e-11
-2.18943e-11
-2.3296e-11
-2.32875e-11
-2.38853e-11
-2.44693e-11
-2.4348e-11
-2.54062e-11
-2.4685e-11
-2.60657e-11
-2.48975e-11
-2.64149e-11
-2.49865e-11
-2.6422e-11
-2.49534e-11
-2.60546e-11
-2.47989e-11
-2.52814e-11
-2.45253e-11
-2.4071e-11
-2.41326e-11
-2.23922e-11
-2.36241e-11
-2.0215e-11
-2.29991e-11
-1.75081e-11
-2.22621e-11
-1.42439e-11
-2.14111e-11
-1.03896e-11
-2.04528e-11
-5.92169e-12
-1.93826e-11
-8.03884e-13
-1.82108e-11
4.98608e-12
-1.69288e-11
1.1496e-11
-1.55519e-11
1.87586e-11
-1.40662e-11
2.68919e-11
-1.24931e-11
3.58181e-11
-1.08083e-11
4.5274e-11
-9.03704e-12
5.49683e-11
-7.11769e-12
6.57118e-11
-5.16075e-12
7.56506e-11
-3.24241e-12
8.74979e-11
-1.63788e-12
8.23122e-11
8.30473e-13
1.04165e-10
4.7273e-12
1.26555e-10
3.90545e-13
1.08278e-10
-1.06139e-11
1.10727e-10
-1.31618e-12
1.19512e-10
-1.54172e-11
1.13347e-10
-7.32396e-12
1.03244e-10
-3.05173e-12
-3.57771e-12
9.54827e-11
-2.68376e-13
-1.03829e-12
-9.77257e-13
-3.04636e-12
-2.06436e-12
-4.97149e-12
-3.48526e-12
-6.8056e-12
-5.19761e-12
-8.54708e-12
-7.16099e-12
-1.01946e-11
-9.33652e-12
-1.17472e-11
-1.16869e-11
-1.32039e-11
-1.41759e-11
-1.4564e-11
-1.67688e-11
-1.5827e-11
-1.94315e-11
-1.69924e-11
-2.2131e-11
-1.806e-11
-2.48351e-11
-1.90299e-11
-2.75122e-11
-1.99022e-11
-3.0131e-11
-2.06772e-11
-3.26609e-11
-2.13554e-11
-3.50713e-11
-2.19375e-11
-3.73321e-11
-2.24243e-11
-3.94129e-11
-2.28167e-11
-4.12834e-11
-2.3116e-11
-4.29133e-11
-2.33234e-11
-4.42716e-11
-2.34406e-11
-4.53278e-11
-2.34692e-11
-4.60493e-11
-2.3411e-11
-4.64053e-11
-2.32682e-11
-4.63613e-11
-2.3043e-11
-4.58854e-11
-2.2738e-11
-4.49407e-11
-2.23558e-11
-4.34941e-11
-2.18994e-11
-4.15049e-11
-2.13718e-11
-3.8939e-11
-2.07766e-11
-3.57506e-11
-2.01172e-11
-3.19047e-11
-1.93979e-11
-2.73487e-11
-1.86222e-11
-2.20461e-11
-1.77956e-11
-1.59333e-11
-1.69211e-11
-8.96438e-12
-1.6006e-11
-1.02992e-12
-1.50522e-11
7.87869e-12
-1.40694e-11
1.76924e-11
-1.30562e-11
2.80525e-11
-1.1998e-11
3.98428e-11
-1.09746e-11
5.38901e-11
-1.0566e-11
6.32248e-11
-1.01338e-11
6.26693e-11
-1.01246e-11
7.26935e-11
-1.13404e-11
7.0366e-11
-1.309e-11
7.7484e-11
-1.4442e-11
8.92119e-11
-1.47794e-11
-1.44005e-11
1.00036e-10
-1.46155e-13
-8.92139e-13
-5.72325e-13
-2.62019e-12
-1.25568e-12
-4.28814e-12
-2.16904e-12
-5.89224e-12
-3.28637e-12
-7.42975e-12
-4.58256e-12
-8.89846e-12
-6.03329e-12
-1.02965e-11
-7.61486e-12
-1.16224e-11
-9.30413e-12
-1.28748e-11
-1.10783e-11
-1.40528e-11
-1.29151e-11
-1.51556e-11
-1.47922e-11
-1.61829e-11
-1.66878e-11
-1.71343e-11
-1.858e-11
-1.801e-11
-2.04471e-11
-1.88101e-11
-2.22673e-11
-1.95352e-11
-2.40191e-11
-2.01858e-11
-2.56806e-11
-2.07628e-11
-2.723e-11
-2.12672e-11
-2.86457e-11
-2.17003e-11
-2.99056e-11
-2.20635e-11
-3.09879e-11
-2.23583e-11
-3.18703e-11
-2.25867e-11
-3.2531e-11
-2.27503e-11
-3.29476e-11
-2.28516e-11
-3.30979e-11
-2.28927e-11
-3.29596e-11
-2.28764e-11
-3.25103e-11
-2.28051e-11
-3.17274e-11
-2.26823e-11
-3.05886e-11
-2.25106e-11
-2.90709e-11
-2.22943e-11
-2.71517e-11
-2.20363e-11
-2.4808e-11
-2.17417e-11
-2.20163e-11
-2.14138e-11
-1.87534e-11
-2.10585e-11
-1.49947e-11
-2.06798e-11
-1.07159e-11
-2.02848e-11
-5.89039e-12
-1.98777e-11
-4.92317e-13
-1.94674e-11
5.50963e-12
-1.90581e-11
1.21733e-11
-1.86616e-11
1.94812e-11
-1.82825e-11
2.68503e-11
-1.79351e-11
3.43617e-11
-1.76452e-11
4.16946e-11
-1.7483e-11
4.54936e-11
-1.72286e-11
4.9839e-11
-1.75145e-11
5.32242e-11
-1.78272e-11
5.65255e-11
-1.80812e-11
-1.81649e-11
6.02899e-11
-4.15021e-14
-8.50637e-13
-1.69352e-13
-2.49234e-12
-3.79004e-13
-4.07848e-12
-6.62794e-13
-5.60845e-12
-1.0142e-12
-7.07834e-12
-1.42734e-12
-8.48533e-12
-1.89658e-12
-9.82727e-12
-2.41629e-12
-1.11027e-11
-2.98054e-12
-1.23105e-11
-3.58297e-12
-1.34503e-11
-4.21667e-12
-1.45219e-11
-4.87404e-12
-1.55255e-11
-5.54682e-12
-1.64615e-11
-6.22598e-12
-1.73308e-11
-6.90177e-12
-1.81343e-11
-7.56374e-12
-1.88732e-11
-8.20077e-12
-1.95487e-11
-8.8011e-12
-2.01624e-11
-9.35251e-12
-2.07158e-11
-9.84219e-12
-2.12106e-11
-1.02571e-11
-2.16486e-11
-1.05839e-11
-2.20316e-11
-1.08091e-11
-2.23615e-11
-1.09191e-11
-2.26403e-11
-1.09008e-11
-2.287e-11
-1.07409e-11
-2.30526e-11
-1.04269e-11
-2.31903e-11
-9.94685e-12
-2.32852e-11
-9.28977e-12
-2.33393e-11
-8.44542e-12
-2.3355e-11
-7.40539e-12
-2.33343e-11
-6.16227e-12
-2.32795e-11
-4.71117e-12
-2.31928e-11
-3.0487e-12
-2.30762e-11
-1.17486e-12
-2.29324e-11
9.0827e-13
-2.27629e-11
3.19414e-12
-2.25707e-11
5.67339e-12
-2.23569e-11
8.3309e-12
-2.21249e-11
1.1148e-11
-2.18752e-11
1.40982e-11
-2.16118e-11
1.71494e-11
-2.13338e-11
2.02602e-11
-2.1046e-11
2.33604e-11
-2.07454e-11
2.63151e-11
-2.04377e-11
2.92551e-11
-2.01727e-11
3.17352e-11
-1.98954e-11
3.19492e-11
-1.9413e-11
3.35327e-11
-1.9708e-11
-1.97514e-11
3.51192e-11
1.75134e-13
-1.02577e-12
6.88144e-13
-3.00535e-12
1.48345e-12
-4.87379e-12
2.48546e-12
-6.61046e-12
3.62917e-12
-8.22205e-12
4.85894e-12
-9.7151e-12
6.12756e-12
-1.10959e-11
7.39541e-12
-1.23705e-11
8.62977e-12
-1.35449e-11
9.80416e-12
-1.46247e-11
1.08977e-11
-1.56154e-11
1.18944e-11
-1.65223e-11
1.2783e-11
-1.73501e-11
1.35559e-11
-1.81038e-11
1.42092e-11
-1.87876e-11
1.4742e-11
-1.94059e-11
1.5156e-11
-1.99627e-11
1.54553e-11
-2.04618e-11
1.56461e-11
-2.09066e-11
1.57362e-11
-2.13007e-11
1.57348e-11
-2.16472e-11
1.56523e-11
-2.19491e-11
1.55001e-11
-2.22093e-11
1.52904e-11
-2.24305e-11
1.50357e-11
-2.26153e-11
1.47493e-11
-2.27662e-11
1.44443e-11
-2.28853e-11
1.41341e-11
-2.2975e-11
1.3832e-11
-2.30372e-11
1.35511e-11
-2.30741e-11
1.33043e-11
-2.30875e-11
1.31039e-11
-2.30791e-11
1.29619e-11
-2.30508e-11
1.28896e-11
-2.3004e-11
1.28976e-11
-2.29404e-11
1.29961e-11
-2.28614e-11
1.31939e-11
-2.27685e-11
1.34998e-11
-2.26627e-11
1.39205e-11
-2.25457e-11
1.44634e-11
-2.24181e-11
1.51331e-11
-2.22815e-11
1.59355e-11
-2.21362e-11
1.68733e-11
-2.19838e-11
1.79521e-11
-2.18241e-11
1.9173e-11
-2.16586e-11
2.0488e-11
-2.14877e-11
2.1905e-11
-2.13125e-11
2.37184e-11
-2.123e-11
2.47268e-11
-2.11473e-11
-2.11596e-11
2.55088e-11
7.47124e-13
-1.7729e-12
2.45031e-12
-4.70854e-12
4.77651e-12
-7.19999e-12
7.51699e-12
-9.35094e-12
1.0504e-11
-1.12091e-11
1.36034e-11
-1.28145e-11
1.67088e-11
-1.42013e-11
1.97374e-11
-1.53991e-11
2.26256e-11
-1.64331e-11
2.53258e-11
-1.7325e-11
2.78037e-11
-1.80934e-11
3.00358e-11
-1.87543e-11
3.20073e-11
-1.93216e-11
3.37107e-11
-1.98072e-11
3.51443e-11
-2.02213e-11
3.63112e-11
-2.05729e-11
3.72182e-11
-2.08697e-11
3.78748e-11
-2.11184e-11
3.82929e-11
-2.13248e-11
3.84863e-11
-2.14941e-11
3.84698e-11
-2.16306e-11
3.8259e-11
-2.17383e-11
3.78703e-11
-2.18206e-11
3.73202e-11
-2.18805e-11
3.66255e-11
-2.19206e-11
3.58026e-11
-2.19433e-11
3.48679e-11
-2.19506e-11
3.38374e-11
-2.19445e-11
3.27268e-11
-2.19266e-11
3.15511e-11
-2.18984e-11
3.03249e-11
-2.18613e-11
2.90622e-11
-2.18165e-11
2.77767e-11
-2.17652e-11
2.64811e-11
-2.17084e-11
2.5188e-11
-2.16472e-11
2.39091e-11
-2.15826e-11
2.26561e-11
-2.15154e-11
2.14399e-11
-2.14465e-11
2.02712e-11
-2.1377e-11
1.91606e-11
-2.13076e-11
1.81185e-11
-2.12393e-11
1.71554e-11
-2.11731e-11
1.62817e-11
-2.11101e-11
1.55088e-11
-2.10512e-11
1.48483e-11
-2.09981e-11
1.43118e-11
-2.09513e-11
1.391e-11
-2.09106e-11
1.3558e-11
-2.0878e-11
1.32666e-11
-2.08559e-11
-2.08411e-11
1.26915e-11
1.76271e-11
3.23186e-11
4.45186e-11
5.45676e-11
6.27585e-11
6.93441e-11
7.45428e-11
7.85437e-11
8.15106e-11
8.35856e-11
8.48923e-11
8.5538e-11
8.56164e-11
8.52092e-11
8.43879e-11
8.3215e-11
8.17454e-11
8.0027e-11
7.81022e-11
7.60081e-11
7.37775e-11
7.14392e-11
6.90186e-11
6.65381e-11
6.40176e-11
6.14743e-11
5.89237e-11
5.63792e-11
5.38526e-11
5.13542e-11
4.88929e-11
4.64764e-11
4.41112e-11
4.18028e-11
3.95555e-11
3.73729e-11
3.52576e-11
3.3211e-11
3.1234e-11
2.93264e-11
2.74871e-11
2.57139e-11
2.40038e-11
2.23524e-11
2.07542e-11
1.92079e-11
1.76974e-11
1.62192e-11
1.47628e-11
1.33281e-11
-9.39145e-10
-1.32645e-10
-8.99745e-10
-1.47772e-10
-8.56402e-10
-1.62634e-10
-8.09422e-10
-1.7701e-10
-7.59288e-10
-1.90505e-10
-7.05658e-10
-2.03028e-10
-6.50298e-10
-2.17183e-10
-5.93099e-10
-2.30969e-10
-5.34443e-10
-2.43968e-10
-4.75195e-10
-2.55731e-10
-4.1615e-10
-2.66163e-10
-3.58105e-10
-2.75219e-10
-3.01219e-10
-2.83584e-10
-2.46282e-10
-2.906e-10
-1.94553e-10
-2.95844e-10
-1.46113e-10
-3.00296e-10
-1.01798e-10
-3.03709e-10
-5.97905e-11
-3.08058e-10
-2.07044e-11
-3.11953e-10
1.5791e-11
-3.14889e-10
4.95898e-11
-3.16964e-10
7.91394e-11
-3.17963e-10
1.0533e-10
-3.18024e-10
1.28441e-10
-3.17931e-10
1.48122e-10
-3.17442e-10
1.63885e-10
-3.17429e-10
1.78923e-10
-3.18383e-10
1.92241e-10
-3.19213e-10
2.03749e-10
-3.19708e-10
2.12195e-10
-3.19064e-10
2.20089e-10
-3.20498e-10
2.2556e-10
-3.21476e-10
2.30737e-10
-3.23569e-10
2.35957e-10
-3.25389e-10
2.44244e-10
-3.28811e-10
2.50181e-10
-3.29295e-10
2.56e-10
-3.31621e-10
2.60475e-10
-3.33712e-10
2.67436e-10
-3.3567e-10
2.73701e-10
-3.37851e-10
2.80192e-10
-3.40716e-10
2.86551e-10
-3.43469e-10
2.92938e-10
-3.46386e-10
2.9892e-10
-3.48553e-10
3.05247e-10
-3.50586e-10
3.11441e-10
-3.52645e-10
3.17585e-10
-3.54788e-10
3.23692e-10
-3.56971e-10
3.30068e-10
-3.59191e-10
-3.61455e-10
3.36935e-10
-9.37948e-10
-1.54409e-10
-9.13763e-10
-1.71957e-10
-8.87898e-10
-1.88499e-10
-8.60815e-10
-2.04093e-10
-8.32883e-10
-2.18436e-10
-8.03776e-10
-2.32135e-10
-7.7628e-10
-2.44679e-10
-7.50268e-10
-2.5698e-10
-7.26433e-10
-2.67803e-10
-7.05162e-10
-2.77002e-10
-6.86815e-10
-2.8451e-10
-6.7114e-10
-2.90894e-10
-6.58195e-10
-2.96529e-10
-6.48557e-10
-3.00238e-10
-6.42145e-10
-3.02257e-10
-6.40757e-10
-3.01684e-10
-6.41914e-10
-3.02553e-10
-6.46883e-10
-3.03088e-10
-6.55632e-10
-3.03204e-10
-6.672e-10
-3.03322e-10
-6.81214e-10
-3.0295e-10
-6.96602e-10
-3.02575e-10
-7.13373e-10
-3.01253e-10
-7.31186e-10
-3.00119e-10
-7.49385e-10
-2.99243e-10
-7.67746e-10
-2.99067e-10
-7.86617e-10
-2.99512e-10
-8.05306e-10
-3.00525e-10
-8.23073e-10
-3.01941e-10
-8.38873e-10
-3.03263e-10
-8.5504e-10
-3.04331e-10
-8.7016e-10
-3.06356e-10
-8.84976e-10
-3.08754e-10
-8.98875e-10
-3.1149e-10
-9.13567e-10
-3.14119e-10
-9.25984e-10
-3.16877e-10
-9.38142e-10
-3.19464e-10
-9.49992e-10
-3.21862e-10
-9.60241e-10
-3.25421e-10
-9.69253e-10
-3.28838e-10
-9.77481e-10
-3.32488e-10
-9.85138e-10
-3.35812e-10
-9.92809e-10
-3.38715e-10
-1.00028e-09
-3.41081e-10
-1.00794e-09
-3.42931e-10
-1.01568e-09
-3.44906e-10
-1.02334e-09
-3.47128e-10
-1.03117e-09
-3.49139e-10
-1.0393e-09
-3.51056e-10
-3.52805e-10
-1.04795e-09
-4.96468e-10
-1.36113e-10
-5.16583e-10
-1.51842e-10
-5.38689e-10
-1.66393e-10
-5.62902e-10
-1.7988e-10
-5.88965e-10
-1.92374e-10
-6.18199e-10
-2.02901e-10
-6.47967e-10
-2.14911e-10
-6.80515e-10
-2.24433e-10
-7.16448e-10
-2.31869e-10
-7.54317e-10
-2.39134e-10
-7.94164e-10
-2.44663e-10
-8.3617e-10
-2.48889e-10
-8.8029e-10
-2.52409e-10
-9.25176e-10
-2.55353e-10
-9.7011e-10
-2.57322e-10
-1.01286e-09
-2.58937e-10
-1.0556e-09
-2.59808e-10
-1.09801e-09
-2.60683e-10
-1.13988e-09
-2.61327e-10
-1.18141e-09
-2.61799e-10
-1.22214e-09
-2.62213e-10
-1.26251e-09
-2.62204e-10
-1.30095e-09
-2.62811e-10
-1.33838e-09
-2.62692e-10
-1.37376e-09
-2.63867e-10
-1.40736e-09
-2.65469e-10
-1.43921e-09
-2.67663e-10
-1.46947e-09
-2.70262e-10
-1.49774e-09
-2.73666e-10
-1.52374e-09
-2.77269e-10
-1.54688e-09
-2.81184e-10
-1.56809e-09
-2.85145e-10
-1.5875e-09
-2.89349e-10
-1.60539e-09
-2.936e-10
-1.62204e-09
-2.97464e-10
-1.63781e-09
-3.01114e-10
-1.65301e-09
-3.04264e-10
-1.66631e-09
-3.08563e-10
-1.67833e-09
-3.13397e-10
-1.68944e-09
-3.17725e-10
-1.70031e-09
-3.21623e-10
-1.71096e-09
-3.25161e-10
-1.72138e-09
-3.28298e-10
-1.73103e-09
-3.31426e-10
-1.74027e-09
-3.33693e-10
-1.74927e-09
-3.35903e-10
-1.75867e-09
-3.37733e-10
-1.76854e-09
-3.39264e-10
-1.77919e-09
-3.40412e-10
-3.4091e-10
-1.79108e-09
2.57443e-10
-7.43331e-11
1.92005e-10
-8.64033e-11
1.23556e-10
-9.79447e-11
5.22621e-11
-1.08586e-10
-2.24906e-11
-1.17621e-10
-9.96309e-11
-1.25761e-10
-1.80859e-10
-1.33683e-10
-2.64383e-10
-1.40909e-10
-3.47988e-10
-1.48264e-10
-4.33608e-10
-1.53513e-10
-5.20604e-10
-1.57666e-10
-6.0847e-10
-1.61023e-10
-6.97009e-10
-1.63869e-10
-7.85347e-10
-1.67015e-10
-8.71941e-10
-1.70727e-10
-9.54872e-10
-1.76007e-10
-1.03313e-09
-1.81547e-10
-1.10786e-09
-1.85959e-10
-1.17934e-09
-1.89847e-10
-1.24776e-09
-1.93379e-10
-1.31292e-09
-1.97054e-10
-1.3741e-09
-2.01023e-10
-1.43169e-09
-2.05224e-10
-1.48372e-09
-2.10654e-10
-1.53151e-09
-2.16081e-10
-1.57581e-09
-2.21165e-10
-1.61697e-09
-2.26507e-10
-1.65487e-09
-2.32362e-10
-1.68823e-09
-2.40307e-10
-1.71786e-09
-2.47641e-10
-1.74444e-09
-2.54602e-10
-1.76897e-09
-2.60611e-10
-1.7921e-09
-2.66217e-10
-1.81254e-09
-2.73167e-10
-1.83123e-09
-2.78777e-10
-1.84925e-09
-2.83092e-10
-1.86571e-09
-2.87803e-10