/*--------------------------------*- C++ -*----------------------------------*\
| =========                 |                                                 |
| \\      /  F ield         | OpenFOAM: The Open Source CFD Toolbox           |
|  \\    /   O peration     | Version:  2.4.0                                 |
|   \\  /    A nd           | Web:      www.OpenFOAM.org                      |
|    \\/     M anipulation  |                                                 |
\*---------------------------------------------------------------------------*/
FoamFile
{
    version     2.0;
    format      ascii;
    class       volScalarField;
    location    "2";
    object      H;
}
// * * * * * * * * * * * * * * * * * * * * * * * * * * * * * * * * * * * * * //

dimensions      [0 2 -2 0 0 0 0];

internalField   nonuniform List<scalar> 
125
(
-68.6708
-68.6539
-68.6382
-68.6472
-68.6733
-68.7351
-68.7185
-68.7032
-68.7121
-68.7375
-68.724
-68.7079
-68.6929
-68.7015
-68.7264
-68.6371
-68.6213
-68.6067
-68.6151
-68.6393
-68.4739
-68.4585
-68.4443
-68.4525
-68.476
-68.2343
-68.2195
-68.2057
-68.2136
-68.2364
-67.9185
-67.9041
-67.8908
-67.8985
-67.9206
-67.5268
-67.5129
-67.5
-67.5075
-67.5288
-67.0597
-67.0463
-67.0338
-67.041
-67.0616
-66.5178
-66.505
-66.493
-66.4999
-66.5197
-65.9023
-65.89
-65.8785
-65.8851
-65.9041
-65.2144
-65.2026
-65.1916
-65.1979
-65.2161
-64.4554
-64.4442
-64.4337
-64.4397
-64.457
-63.627
-63.6164
-63.6064
-63.6121
-63.6286
-62.7312
-62.7212
-62.7117
-62.7171
-62.7328
-61.7702
-61.7608
-61.7518
-61.7569
-61.7717
-60.7463
-60.7374
-60.729
-60.7338
-60.7477
-59.6621
-59.6538
-59.6459
-59.6504
-59.6634
-58.5205
-58.5128
-58.5055
-58.5096
-58.5217
-57.3245
-57.3174
-57.3106
-57.3144
-57.3257
-56.0773
-56.0708
-56.0645
-56.068
-56.0784
-54.7825
-54.7765
-54.7707
-54.7739
-54.7835
-53.4434
-53.4381
-53.4328
-53.4357
-53.4444
-52.0641
-52.0593
-52.0545
-52.0571
-52.065
-50.6483
-50.6441
-50.6398
-50.6421
-50.6492
)
;

boundaryField
{
    BotWall
    {
        type            zeroGradient;
    }
    FreeStream
    {
        type            zeroGradient;
    }
    FrontNBack
    {
        type            empty;
    }
    LeftSide
    {
        type            symmetryPlane;
    }
    RightSide
    {
        type            symmetryPlane;
    }
    procBoundary1to0
    {
        type            processor;
        value           nonuniform List<scalar> 5(-68.5159 -68.4986 -68.4826 -68.4918 -68.5184);
    }
    procBoundary1to2
    {
        type            processor;
        value           nonuniform List<scalar> 5(-49.1963 -49.1926 -49.1888 -49.1908 -49.1971);
    }
}


// ************************************************************************* //
