/*--------------------------------*- C++ -*----------------------------------*\
| =========                 |                                                 |
| \\      /  F ield         | OpenFOAM: The Open Source CFD Toolbox           |
|  \\    /   O peration     | Version:  2.4.0                                 |
|   \\  /    A nd           | Web:      www.OpenFOAM.org                      |
|    \\/     M anipulation  |                                                 |
\*---------------------------------------------------------------------------*/
FoamFile
{
    version     2.0;
    format      ascii;
    class       volScalarField;
    location    "2";
    object      p;
}
// * * * * * * * * * * * * * * * * * * * * * * * * * * * * * * * * * * * * * //

dimensions      [1 -1 -2 0 0 0 0];

internalField   nonuniform List<scalar> 
125
(
-0.0144114
-0.0144114
-0.0144114
-0.0144114
-0.0144114
-0.0150639
-0.0150639
-0.0150639
-0.0150639
-0.0150639
-0.0157228
-0.0157227
-0.0157227
-0.0157227
-0.0157228
-0.0163887
-0.0163887
-0.0163887
-0.0163887
-0.0163887
-0.0170622
-0.0170622
-0.0170622
-0.0170622
-0.0170622
-0.0177432
-0.0177432
-0.0177432
-0.0177432
-0.0177432
-0.0184318
-0.0184318
-0.0184318
-0.0184318
-0.0184318
-0.0191281
-0.0191281
-0.0191281
-0.0191281
-0.0191281
-0.0198322
-0.0198322
-0.0198322
-0.0198322
-0.0198322
-0.0205441
-0.0205441
-0.0205441
-0.0205441
-0.0205441
-0.021264
-0.021264
-0.021264
-0.021264
-0.021264
-0.0219919
-0.0219919
-0.0219919
-0.0219919
-0.0219919
-0.0227279
-0.0227279
-0.0227279
-0.0227279
-0.0227279
-0.0234721
-0.0234721
-0.0234721
-0.0234721
-0.0234721
-0.0242247
-0.0242247
-0.0242247
-0.0242247
-0.0242247
-0.0249856
-0.0249856
-0.0249856
-0.0249856
-0.0249856
-0.025755
-0.025755
-0.025755
-0.025755
-0.025755
-0.026533
-0.026533
-0.026533
-0.026533
-0.026533
-0.0273197
-0.0273197
-0.0273197
-0.0273197
-0.0273197
-0.0281152
-0.0281152
-0.0281152
-0.0281152
-0.0281152
-0.0289196
-0.0289196
-0.0289196
-0.0289196
-0.0289196
-0.0297329
-0.0297329
-0.0297329
-0.0297329
-0.0297329
-0.0305553
-0.0305553
-0.0305553
-0.0305553
-0.0305553
-0.0313869
-0.0313869
-0.0313869
-0.0313869
-0.0313869
-0.0322277
-0.0322277
-0.0322277
-0.0322277
-0.0322277
)
;

boundaryField
{
    BotWall
    {
        type            calculated;
        value           nonuniform 0();
    }
    FreeStream
    {
        type            calculated;
        value           nonuniform 0();
    }
    FrontNBack
    {
        type            empty;
    }
    LeftSide
    {
        type            symmetryPlane;
    }
    RightSide
    {
        type            symmetryPlane;
    }
    procBoundary1to0
    {
        type            processor;
        value           nonuniform List<scalar> 5(-0.0137649 -0.0137649 -0.0137649 -0.0137649 -0.0137649);
    }
    procBoundary1to2
    {
        type            processor;
        value           nonuniform List<scalar> 5(-0.033078 -0.033078 -0.033078 -0.033078 -0.033078);
    }
}


// ************************************************************************* //
