/*--------------------------------*- C++ -*----------------------------------*\
| =========                 |                                                 |
| \\      /  F ield         | OpenFOAM: The Open Source CFD Toolbox           |
|  \\    /   O peration     | Version:  2.4.0                                 |
|   \\  /    A nd           | Web:      www.OpenFOAM.org                      |
|    \\/     M anipulation  |                                                 |
\*---------------------------------------------------------------------------*/
FoamFile
{
    version     2.0;
    format      ascii;
    class       volScalarField;
    location    "2";
    object      p_rgh;
}
// * * * * * * * * * * * * * * * * * * * * * * * * * * * * * * * * * * * * * //

dimensions      [1 -1 -2 0 0 0 0];

internalField   nonuniform List<scalar> 
125
(
-2.0227e-05
-2.0219e-05
-2.02154e-05
-2.02186e-05
-2.02273e-05
-2.11947e-05
-2.11874e-05
-2.11839e-05
-2.1187e-05
-2.1195e-05
-2.11954e-05
-2.11886e-05
-2.11851e-05
-2.11882e-05
-2.11957e-05
-2.09997e-05
-2.0993e-05
-2.09896e-05
-2.09926e-05
-2.09999e-05
-2.08489e-05
-2.08423e-05
-2.0839e-05
-2.08419e-05
-2.08491e-05
-2.07354e-05
-2.07288e-05
-2.07256e-05
-2.07285e-05
-2.07355e-05
-2.06282e-05
-2.06218e-05
-2.06186e-05
-2.06215e-05
-2.06284e-05
-2.0518e-05
-2.05117e-05
-2.05086e-05
-2.05114e-05
-2.05181e-05
-2.0405e-05
-2.03989e-05
-2.03958e-05
-2.03985e-05
-2.04051e-05
-2.02905e-05
-2.02844e-05
-2.02814e-05
-2.02841e-05
-2.02906e-05
-2.01747e-05
-2.01688e-05
-2.01658e-05
-2.01684e-05
-2.01748e-05
-2.00578e-05
-2.0052e-05
-2.00491e-05
-2.00516e-05
-2.00579e-05
-1.99395e-05
-1.99338e-05
-1.9931e-05
-1.99335e-05
-1.99396e-05
-1.982e-05
-1.98144e-05
-1.98116e-05
-1.98141e-05
-1.982e-05
-1.96991e-05
-1.96936e-05
-1.96909e-05
-1.96933e-05
-1.96991e-05
-1.95769e-05
-1.95715e-05
-1.95688e-05
-1.95712e-05
-1.95769e-05
-1.94533e-05
-1.94481e-05
-1.94454e-05
-1.94477e-05
-1.94533e-05
-1.93284e-05
-1.93233e-05
-1.93207e-05
-1.93229e-05
-1.93284e-05
-1.92021e-05
-1.9197e-05
-1.91945e-05
-1.91967e-05
-1.9202e-05
-1.90743e-05
-1.90694e-05
-1.90669e-05
-1.90691e-05
-1.90743e-05
-1.89452e-05
-1.89404e-05
-1.8938e-05
-1.89401e-05
-1.89451e-05
-1.88146e-05
-1.88099e-05
-1.88075e-05
-1.88096e-05
-1.88145e-05
-1.86826e-05
-1.8678e-05
-1.86757e-05
-1.86777e-05
-1.86824e-05
-1.8549e-05
-1.85446e-05
-1.85423e-05
-1.85443e-05
-1.85489e-05
-1.8414e-05
-1.84097e-05
-1.84074e-05
-1.84094e-05
-1.84139e-05
)
;

boundaryField
{
    BotWall
    {
        type            fixedFluxPressure;
        gradient        nonuniform 0();
        value           nonuniform 0();
    }
    FreeStream
    {
        type            totalPressure;
        rho             rho;
        psi             none;
        gamma           1;
        p0              nonuniform 0();
        value           nonuniform 0();
    }
    FrontNBack
    {
        type            empty;
    }
    LeftSide
    {
        type            symmetryPlane;
    }
    RightSide
    {
        type            symmetryPlane;
    }
    procBoundary1to0
    {
        type            processor;
        value           nonuniform List<scalar> 5(-1.81181e-05 -1.81103e-05 -1.81068e-05 -1.811e-05 -1.81184e-05);
    }
    procBoundary1to2
    {
        type            processor;
        value           nonuniform List<scalar> 5(-1.82775e-05 -1.82732e-05 -1.8271e-05 -1.82729e-05 -1.82773e-05);
    }
}


// ************************************************************************* //
