/*--------------------------------*- C++ -*----------------------------------*\
| =========                 |                                                 |
| \\      /  F ield         | OpenFOAM: The Open Source CFD Toolbox           |
|  \\    /   O peration     | Version:  2.4.0                                 |
|   \\  /    A nd           | Web:      www.OpenFOAM.org                      |
|    \\/     M anipulation  |                                                 |
\*---------------------------------------------------------------------------*/
FoamFile
{
    version     2.0;
    format      ascii;
    class       surfaceScalarField;
    location    "2";
    object      phi;
}
// * * * * * * * * * * * * * * * * * * * * * * * * * * * * * * * * * * * * * //

dimensions      [0 3 -1 0 0 0 0];

internalField   nonuniform List<scalar> 
220
(
3.0443e-18
-2.84571e-10
1.86039e-17
-2.84574e-10
-8.07934e-20
-2.84576e-10
-2.15095e-17
-2.84575e-10
-2.8457e-10
-3.14752e-18
-2.84571e-10
1.54737e-17
-2.84574e-10
3.69715e-18
-2.84576e-10
-1.61195e-17
-2.84575e-10
-2.8457e-10
-9.08515e-18
-2.84571e-10
1.25226e-17
-2.84574e-10
7.33494e-18
-2.84576e-10
-1.09968e-17
-2.84575e-10
-2.8457e-10
-1.47574e-17
-2.84571e-10
9.75584e-18
-2.84574e-10
1.08265e-17
-2.84576e-10
-6.1491e-18
-2.84575e-10
-2.8457e-10
-2.01458e-17
-2.84571e-10
7.17964e-18
-2.84574e-10
1.41645e-17
-2.84576e-10
-1.59168e-18
-2.84575e-10
-2.8457e-10
-2.52342e-17
-2.84571e-10
4.80088e-18
-2.84574e-10
1.73407e-17
-2.84576e-10
2.66238e-18
-2.84575e-10
-2.8457e-10
-3.00088e-17
-2.84571e-10
2.62607e-18
-2.84574e-10
2.03467e-17
-2.84576e-10
6.60273e-18
-2.84575e-10
-2.8457e-10
-3.44573e-17
-2.8457e-10
6.60826e-19
-2.84574e-10
2.31748e-17
-2.84576e-10
1.02205e-17
-2.84575e-10
-2.8457e-10
-3.85686e-17
-2.8457e-10
-1.09021e-18
-2.84574e-10
2.58177e-17
-2.84576e-10
1.35079e-17
-2.84575e-10
-2.8457e-10
-4.23323e-17
-2.8457e-10
-2.62333e-18
-2.84574e-10
2.82688e-17
-2.84577e-10
1.64583e-17
-2.84575e-10
-2.8457e-10
-4.57394e-17
-2.8457e-10
-3.93578e-18
-2.84574e-10
3.05219e-17
-2.84577e-10
1.90663e-17
-2.84575e-10
-2.8457e-10
-4.87823e-17
-2.8457e-10
-5.02587e-18
-2.84574e-10
3.25718e-17
-2.84577e-10
2.13279e-17
-2.84575e-10
-2.8457e-10
-5.14547e-17
-2.8457e-10
-5.89295e-18
-2.84574e-10
3.44138e-17
-2.84577e-10
2.32408e-17
-2.84575e-10
-2.8457e-10
-5.37521e-17
-2.8457e-10
-6.53753e-18
-2.84574e-10
3.60439e-17
-2.84577e-10
2.48043e-17
-2.84575e-10
-2.8457e-10
-5.56713e-17
-2.8457e-10
-6.96125e-18
-2.84574e-10
3.74592e-17
-2.84577e-10
2.6019e-17
-2.84575e-10
-2.8457e-10
-5.72111e-17
-2.8457e-10
-7.16697e-18
-2.84574e-10
3.86575e-17
-2.84577e-10
2.68875e-17
-2.84575e-10
-2.8457e-10
-5.83718e-17
-2.8457e-10
-7.15873e-18
-2.84575e-10
3.96376e-17
-2.84577e-10
2.74143e-17
-2.84575e-10
-2.8457e-10
-5.91557e-17
-2.8457e-10
-6.94184e-18
-2.84575e-10
4.03993e-17
-2.84577e-10
2.76052e-17
-2.84575e-10
-2.8457e-10
-5.95668e-17
-2.8457e-10
-6.52281e-18
-2.84575e-10
4.09432e-17
-2.84577e-10
2.74682e-17
-2.84575e-10
-2.8457e-10
-5.96109e-17
-2.8457e-10
-5.90937e-18
-2.84575e-10
4.12711e-17
-2.84577e-10
2.70129e-17
-2.84575e-10
-2.8457e-10
-5.92959e-17
-2.8457e-10
-5.11048e-18
-2.84575e-10
4.13858e-17
-2.84577e-10
2.62507e-17
-2.84575e-10
-2.8457e-10
-5.86314e-17
-2.8457e-10
-4.13628e-18
-2.84575e-10
4.12914e-17
-2.84577e-10
2.5194e-17
-2.84575e-10
-2.8457e-10
-5.76288e-17
-2.8457e-10
-2.99804e-18
-2.84575e-10
4.09933e-17
-2.84577e-10
2.38585e-17
-2.84575e-10
-2.8457e-10
-5.63015e-17
-2.8457e-10
-1.70812e-18
-2.84575e-10
4.04963e-17
-2.84577e-10
2.22651e-17
-2.84575e-10
-2.8457e-10
-5.46647e-17
-2.7944e-19
3.98083e-17
2.04256e-17
)
;

boundaryField
{
    BotWall
    {
        type            calculated;
        value           nonuniform 0();
    }
    FreeStream
    {
        type            calculated;
        value           nonuniform 0();
    }
    FrontNBack
    {
        type            empty;
        value           nonuniform 0();
    }
    LeftSide
    {
        type            symmetryPlane;
        value           uniform 0;
    }
    RightSide
    {
        type            symmetryPlane;
        value           uniform 0;
    }
    procBoundary1to0
    {
        type            processor;
        value           nonuniform List<scalar> 5(2.84571e-10 2.84574e-10 2.84576e-10 2.84575e-10 2.8457e-10);
    }
    procBoundary1to2
    {
        type            processor;
        value           nonuniform List<scalar> 5(-2.8457e-10 -2.84575e-10 -2.84577e-10 -2.84575e-10 -2.8457e-10);
    }
}


// ************************************************************************* //
