/*--------------------------------*- C++ -*----------------------------------*\
| =========                 |                                                 |
| \\      /  F ield         | OpenFOAM: The Open Source CFD Toolbox           |
|  \\    /   O peration     | Version:  2.4.0                                 |
|   \\  /    A nd           | Web:      www.OpenFOAM.org                      |
|    \\/     M anipulation  |                                                 |
\*---------------------------------------------------------------------------*/
FoamFile
{
    version     2.0;
    format      ascii;
    class       volVectorField;
    location    "2";
    object      U;
}
// * * * * * * * * * * * * * * * * * * * * * * * * * * * * * * * * * * * * * //

dimensions      [0 1 -1 0 0 0 0];

internalField   nonuniform List<vector> 
125
(
(-2.25624e-09 -0.00142294 0)
(3.98965e-09 -0.00142295 0)
(6.29594e-09 -0.00142296 0)
(-6.34612e-09 -0.00142296 0)
(-5.59373e-09 -0.00142293 0)
(-3.6637e-09 -0.00142272 0)
(1.99174e-09 -0.00142274 0)
(6.47318e-09 -0.00142275 0)
(-4.46188e-09 -0.00142274 0)
(-4.39785e-09 -0.00142272 0)
(-4.98575e-09 -0.0014228 0)
(1.23123e-10 -0.00142281 0)
(6.65547e-09 -0.00142283 0)
(-2.70256e-09 -0.00142282 0)
(-3.29034e-09 -0.0014228 0)
(-6.22259e-09 -0.00142285 0)
(-1.61612e-09 -0.00142287 0)
(6.84202e-09 -0.00142288 0)
(-1.06766e-09 -0.00142287 0)
(-2.26977e-09 -0.00142285 0)
(-7.37323e-09 -0.00142286 0)
(-3.2249e-09 -0.00142288 0)
(7.03202e-09 -0.00142289 0)
(4.42232e-10 -0.00142288 0)
(-1.33592e-09 -0.00142286 0)
(-8.43675e-09 -0.00142286 0)
(-4.70232e-09 -0.00142287 0)
(7.2246e-09 -0.00142288 0)
(1.82668e-09 -0.00142288 0)
(-4.88525e-10 -0.00142285 0)
(-9.41259e-09 -0.00142285 0)
(-6.04805e-09 -0.00142287 0)
(7.41885e-09 -0.00142288 0)
(3.08576e-09 -0.00142287 0)
(2.73095e-10 -0.00142285 0)
(-1.03005e-08 -0.00142285 0)
(-7.26225e-09 -0.00142287 0)
(7.61378e-09 -0.00142288 0)
(4.22002e-09 -0.00142287 0)
(9.49947e-10 -0.00142285 0)
(-1.11007e-08 -0.00142285 0)
(-8.34553e-09 -0.00142287 0)
(7.80838e-09 -0.00142288 0)
(5.23041e-09 -0.00142287 0)
(1.54331e-09 -0.00142285 0)
(-1.18132e-08 -0.00142285 0)
(-9.29891e-09 -0.00142287 0)
(8.00158e-09 -0.00142288 0)
(6.11827e-09 -0.00142287 0)
(2.0547e-09 -0.00142285 0)
(-1.24388e-08 -0.00142285 0)
(-1.01239e-08 -0.00142287 0)
(8.1923e-09 -0.00142288 0)
(6.88534e-09 -0.00142287 0)
(2.48594e-09 -0.00142285 0)
(-1.29782e-08 -0.00142285 0)
(-1.08224e-08 -0.00142287 0)
(8.3794e-09 -0.00142288 0)
(7.53378e-09 -0.00142287 0)
(2.83907e-09 -0.00142285 0)
(-1.34326e-08 -0.00142285 0)
(-1.13968e-08 -0.00142287 0)
(8.56174e-09 -0.00142288 0)
(8.06617e-09 -0.00142287 0)
(3.11643e-09 -0.00142285 0)
(-1.38033e-08 -0.00142285 0)
(-1.18499e-08 -0.00142287 0)
(8.73815e-09 -0.00142288 0)
(8.4855e-09 -0.00142287 0)
(3.32062e-09 -0.00142285 0)
(-1.4092e-08 -0.00142285 0)
(-1.2185e-08 -0.00142287 0)
(8.90745e-09 -0.00142288 0)
(8.79517e-09 -0.00142287 0)
(3.45448e-09 -0.00142285 0)
(-1.43007e-08 -0.00142285 0)
(-1.24058e-08 -0.00142287 0)
(9.06845e-09 -0.00142288 0)
(8.99898e-09 -0.00142287 0)
(3.52111e-09 -0.00142285 0)
(-1.44316e-08 -0.00142285 0)
(-1.25165e-08 -0.00142287 0)
(9.21997e-09 -0.00142288 0)
(9.10113e-09 -0.00142287 0)
(3.52387e-09 -0.00142285 0)
(-1.44871e-08 -0.00142285 0)
(-1.25216e-08 -0.00142287 0)
(9.36085e-09 -0.00142288 0)
(9.1062e-09 -0.00142287 0)
(3.46631e-09 -0.00142285 0)
(-1.44701e-08 -0.00142285 0)
(-1.2426e-08 -0.00142287 0)
(9.48993e-09 -0.00142288 0)
(9.01912e-09 -0.00142287 0)
(3.35223e-09 -0.00142285 0)
(-1.43834e-08 -0.00142285 0)
(-1.22351e-08 -0.00142287 0)
(9.60609e-09 -0.00142288 0)
(8.84515e-09 -0.00142287 0)
(3.18557e-09 -0.00142285 0)
(-1.42304e-08 -0.00142285 0)
(-1.19546e-08 -0.00142287 0)
(9.70824e-09 -0.00142288 0)
(8.58987e-09 -0.00142287 0)
(2.97049e-09 -0.00142285 0)
(-1.40145e-08 -0.00142285 0)
(-1.15904e-08 -0.00142287 0)
(9.79534e-09 -0.00142289 0)
(8.25913e-09 -0.00142287 0)
(2.71127e-09 -0.00142285 0)
(-1.37393e-08 -0.00142285 0)
(-1.11488e-08 -0.00142287 0)
(9.8664e-09 -0.00142289 0)
(7.85921e-09 -0.00142287 0)
(2.41251e-09 -0.00142285 0)
(-1.34087e-08 -0.00142285 0)
(-1.06365e-08 -0.00142287 0)
(9.92048e-09 -0.00142289 0)
(7.39675e-09 -0.00142287 0)
(2.07906e-09 -0.00142285 0)
(-1.30268e-08 -0.00142285 0)
(-1.006e-08 -0.00142287 0)
(9.95673e-09 -0.00142289 0)
(6.87781e-09 -0.00142287 0)
(1.71509e-09 -0.00142285 0)
)
;

boundaryField
{
    BotWall
    {
        type            fixedValue;
        value           nonuniform 0();
    }
    FreeStream
    {
        type            zeroGradient;
    }
    FrontNBack
    {
        type            empty;
    }
    LeftSide
    {
        type            symmetryPlane;
    }
    RightSide
    {
        type            symmetryPlane;
    }
    procBoundary1to0
    {
        type            processor;
        value           nonuniform List<vector> 5((-7.61238e-10 -0.00142419 0) (6.11856e-09 -0.00142421 0) (6.12441e-09 -0.00142422 0) (-8.35747e-09 -0.00142422 0) (-6.88119e-09 -0.00142419 0));
    }
    procBoundary1to2
    {
        type            processor;
        value           nonuniform List<vector> 5((-1.25977e-08 -0.00142285 0) (-9.42634e-09 -0.00142287 0) (9.97436e-09 -0.00142289 0) (6.30916e-09 -0.00142287 0) (1.3254e-09 -0.00142285 0));
    }
}


// ************************************************************************* //
