/*--------------------------------*- C++ -*----------------------------------*\
| =========                 |                                                 |
| \\      /  F ield         | OpenFOAM: The Open Source CFD Toolbox           |
|  \\    /   O peration     | Version:  2.4.0                                 |
|   \\  /    A nd           | Web:      www.OpenFOAM.org                      |
|    \\/     M anipulation  |                                                 |
\*---------------------------------------------------------------------------*/
FoamFile
{
    version     2.0;
    format      ascii;
    class       volScalarField;
    location    "4.8";
    object      p;
}
// * * * * * * * * * * * * * * * * * * * * * * * * * * * * * * * * * * * * * //

dimensions      [1 -1 -2 0 0 0 0];

internalField   nonuniform List<scalar> 
125
(
-0.033078
-0.0330778
-0.0330774
-0.0330775
-0.033078
-0.0339376
-0.0339374
-0.033937
-0.0339372
-0.0339376
-0.0348068
-0.0348067
-0.0348063
-0.0348064
-0.0348068
-0.0356858
-0.0356856
-0.0356852
-0.0356854
-0.0356858
-0.0365745
-0.0365743
-0.036574
-0.0365741
-0.0365745
-0.0374732
-0.037473
-0.0374726
-0.0374728
-0.0374732
-0.0383819
-0.0383817
-0.0383814
-0.0383815
-0.0383819
-0.0393007
-0.0393005
-0.0393002
-0.0393003
-0.0393007
-0.0402298
-0.0402296
-0.0402293
-0.0402294
-0.0402298
-0.0411692
-0.0411691
-0.0411687
-0.0411689
-0.0411692
-0.0421191
-0.042119
-0.0421187
-0.0421188
-0.0421191
-0.0430797
-0.0430795
-0.0430792
-0.0430794
-0.0430797
-0.0440509
-0.0440508
-0.0440505
-0.0440506
-0.0440509
-0.045033
-0.0450329
-0.0450326
-0.0450327
-0.045033
-0.0460261
-0.0460259
-0.0460257
-0.0460258
-0.0460261
-0.0470302
-0.0470301
-0.0470298
-0.0470299
-0.0470302
-0.0480455
-0.0480454
-0.0480452
-0.0480453
-0.0480455
-0.0490722
-0.0490721
-0.0490718
-0.0490719
-0.0490722
-0.0501103
-0.0501102
-0.05011
-0.0501101
-0.0501103
-0.05116
-0.0511599
-0.0511597
-0.0511598
-0.05116
-0.0522214
-0.0522213
-0.0522211
-0.0522212
-0.0522214
-0.0532947
-0.0532946
-0.0532944
-0.0532945
-0.0532947
-0.05438
-0.0543799
-0.0543796
-0.0543797
-0.0543799
-0.0554773
-0.0554772
-0.055477
-0.0554771
-0.0554773
-0.0565869
-0.0565868
-0.0565866
-0.0565867
-0.0565869
)
;

boundaryField
{
    BotWall
    {
        type            calculated;
        value           nonuniform 0();
    }
    FreeStream
    {
        type            calculated;
        value           nonuniform 0();
    }
    FrontNBack
    {
        type            empty;
    }
    LeftSide
    {
        type            symmetryPlane;
    }
    RightSide
    {
        type            symmetryPlane;
    }
    procBoundary2to1
    {
        type            processor;
        value           nonuniform List<scalar> 5(-0.0322278 -0.0322276 -0.0322272 -0.0322274 -0.0322278);
    }
    procBoundary2to3
    {
        type            processor;
        value           nonuniform List<scalar> 5(-0.0577089 -0.0577088 -0.0577086 -0.0577087 -0.0577089);
    }
}


// ************************************************************************* //
