/*--------------------------------*- C++ -*----------------------------------*\
| =========                 |                                                 |
| \\      /  F ield         | OpenFOAM: The Open Source CFD Toolbox           |
|  \\    /   O peration     | Version:  2.4.0                                 |
|   \\  /    A nd           | Web:      www.OpenFOAM.org                      |
|    \\/     M anipulation  |                                                 |
\*---------------------------------------------------------------------------*/
FoamFile
{
    version     2.0;
    format      ascii;
    class       surfaceScalarField;
    location    "4.8";
    object      phi;
}
// * * * * * * * * * * * * * * * * * * * * * * * * * * * * * * * * * * * * * //

dimensions      [0 3 -1 0 0 0 0];

internalField   nonuniform List<scalar> 
220
(
1.04278e-15
-1.73324e-10
8.86957e-16
-1.73613e-10
-4.93212e-16
-1.74323e-10
-1.3787e-15
-1.74019e-10
-1.73234e-10
1.30498e-15
-1.73325e-10
1.15509e-15
-1.73613e-10
-6.15585e-16
-1.74321e-10
-1.71972e-15
-1.74018e-10
-1.73236e-10
1.57815e-15
-1.73327e-10
1.43693e-15
-1.73613e-10
-7.42745e-16
-1.74319e-10
-2.07514e-15
-1.74017e-10
-1.73238e-10
1.85998e-15
-1.73329e-10
1.72997e-15
-1.73613e-10
-8.73673e-16
-1.74316e-10
-2.44193e-15
-1.74015e-10
-1.7324e-10
2.14805e-15
-1.73331e-10
2.03159e-15
-1.73613e-10
-1.00731e-15
-1.74313e-10
-2.81693e-15
-1.74014e-10
-1.73243e-10
2.43985e-15
-1.73334e-10
2.33908e-15
-1.73612e-10
-1.14257e-15
-1.7431e-10
-3.19691e-15
-1.74011e-10
-1.73246e-10
2.73281e-15
-1.73336e-10
2.64966e-15
-1.73612e-10
-1.27833e-15
-1.74306e-10
-3.57855e-15
-1.74009e-10
-1.7325e-10
3.02435e-15
-1.73339e-10
2.96048e-15
-1.73612e-10
-1.41348e-15
-1.74301e-10
-3.95851e-15
-1.74007e-10
-1.73254e-10
3.31186e-15
-1.73343e-10
3.2687e-15
-1.73612e-10
-1.54688e-15
-1.74296e-10
-4.33346e-15
-1.74004e-10
-1.73258e-10
3.59278e-15
-1.73346e-10
3.5715e-15
-1.73612e-10
-1.67743e-15
-1.74291e-10
-4.7001e-15
-1.74001e-10
-1.73263e-10
3.86458e-15
-1.7335e-10
3.8661e-15
-1.73612e-10
-1.80402e-15
-1.74286e-10
-5.0552e-15
-1.73998e-10
-1.73268e-10
4.12482e-15
-1.73354e-10
4.14982e-15
-1.73612e-10
-1.92561e-15
-1.74279e-10
-5.39566e-15
-1.73994e-10
-1.73273e-10
4.37118e-15
-1.73359e-10
4.42006e-15
-1.73612e-10
-2.04119e-15
-1.74273e-10
-5.71852e-15
-1.7399e-10
-1.73279e-10
4.60148e-15
-1.73363e-10
4.67439e-15
-1.73612e-10
-2.14982e-15
-1.74266e-10
-6.021e-15
-1.73987e-10
-1.73285e-10
4.81371e-15
-1.73368e-10
4.91058e-15
-1.73613e-10
-2.25061e-15
-1.74259e-10
-6.30055e-15
-1.73982e-10
-1.73291e-10
5.00605e-15
-1.73373e-10
5.12657e-15
-1.73613e-10
-2.34279e-15
-1.74252e-10
-6.55488e-15
-1.73978e-10
-1.73298e-10
5.1769e-15
-1.73378e-10
5.32055e-15
-1.73613e-10
-2.42563e-15
-1.74244e-10
-6.78197e-15
-1.73974e-10
-1.73305e-10
5.32492e-15
-1.73383e-10
5.49098e-15
-1.73613e-10
-2.49856e-15
-1.74236e-10
-6.98011e-15
-1.73969e-10
-1.73312e-10
5.44902e-15
-1.73389e-10
5.63661e-15
-1.73613e-10
-2.56109e-15
-1.74228e-10
-7.14794e-15
-1.73965e-10
-1.73319e-10
5.5484e-15
-1.73394e-10
5.75647e-15
-1.73613e-10
-2.61284e-15
-1.74219e-10
-7.28446e-15
-1.7396e-10
-1.73326e-10
5.62255e-15
-1.734e-10
5.84994e-15
-1.73614e-10
-2.65357e-15
-1.74211e-10
-7.38902e-15
-1.73955e-10
-1.73333e-10
5.67127e-15
-1.73406e-10
5.91671e-15
-1.73614e-10
-2.68317e-15
-1.74202e-10
-7.46136e-15
-1.73951e-10
-1.73341e-10
5.69467e-15
-1.73411e-10
5.95681e-15
-1.73614e-10
-2.70164e-15
-1.74193e-10
-7.50163e-15
-1.73946e-10
-1.73348e-10
5.69316e-15
-1.73417e-10
5.97064e-15
-1.73614e-10
-2.70914e-15
-1.74185e-10
-7.51033e-15
-1.73941e-10
-1.73356e-10
5.66747e-15
5.95889e-15
-2.70594e-15
-7.48839e-15
)
;

boundaryField
{
    BotWall
    {
        type            calculated;
        value           nonuniform 0();
    }
    FreeStream
    {
        type            calculated;
        value           nonuniform 0();
    }
    FrontNBack
    {
        type            empty;
        value           nonuniform 0();
    }
    LeftSide
    {
        type            symmetryPlane;
        value           uniform 0;
    }
    RightSide
    {
        type            symmetryPlane;
        value           uniform 0;
    }
    procBoundary2to1
    {
        type            processor;
        value           nonuniform List<scalar> 5(1.73323e-10 1.73613e-10 1.74324e-10 1.7402e-10 1.73233e-10);
    }
    procBoundary2to3
    {
        type            processor;
        value           nonuniform List<scalar> 5(-1.73423e-10 -1.73615e-10 -1.74176e-10 -1.73936e-10 -1.73363e-10);
    }
}


// ************************************************************************* //
