/*--------------------------------*- C++ -*----------------------------------*\
| =========                 |                                                 |
| \\      /  F ield         | OpenFOAM: The Open Source CFD Toolbox           |
|  \\    /   O peration     | Version:  2.4.0                                 |
|   \\  /    A nd           | Web:      www.OpenFOAM.org                      |
|    \\/     M anipulation  |                                                 |
\*---------------------------------------------------------------------------*/
FoamFile
{
    version     2.0;
    format      ascii;
    class       volVectorField;
    location    "4.8";
    object      U;
}
// * * * * * * * * * * * * * * * * * * * * * * * * * * * * * * * * * * * * * //

dimensions      [0 1 -1 0 0 0 0];

internalField   nonuniform List<vector> 
125
(
(1.06828e-07 -0.000866618 0)
(3.29216e-07 -0.000868066 0)
(4.77552e-08 -0.000871617 0)
(-2.5649e-07 -0.000870099 0)
(-3.2541e-07 -0.000866166 0)
(1.33315e-07 -0.000866624 0)
(4.06429e-07 -0.000868065 0)
(7.74344e-08 -0.000871609 0)
(-3.34547e-07 -0.000870094 0)
(-3.82118e-07 -0.000866173 0)
(1.60011e-07 -0.000866631 0)
(4.85585e-07 -0.000868064 0)
(1.08371e-07 -0.000871599 0)
(-4.14727e-07 -0.000870088 0)
(-4.39546e-07 -0.000866183 0)
(1.86673e-07 -0.00086664 0)
(5.65877e-07 -0.000868064 0)
(1.40214e-07 -0.000871587 0)
(-4.9622e-07 -0.000870081 0)
(-4.97136e-07 -0.000866194 0)
(2.13061e-07 -0.00086665 0)
(6.46502e-07 -0.000868063 0)
(1.72611e-07 -0.000871573 0)
(-5.78219e-07 -0.000870072 0)
(-5.54333e-07 -0.000866207 0)
(2.38937e-07 -0.000866661 0)
(7.2666e-07 -0.000868063 0)
(2.05213e-07 -0.000871557 0)
(-6.59925e-07 -0.000870063 0)
(-6.10597e-07 -0.000866222 0)
(2.6407e-07 -0.000866674 0)
(8.05574e-07 -0.000868062 0)
(2.37674e-07 -0.000871539 0)
(-7.40555e-07 -0.000870052 0)
(-6.65402e-07 -0.000866239 0)
(2.88238e-07 -0.000866688 0)
(8.82485e-07 -0.000868062 0)
(2.69658e-07 -0.000871518 0)
(-8.19348e-07 -0.00087004 0)
(-7.18247e-07 -0.000866258 0)
(3.11231e-07 -0.000866704 0)
(9.5667e-07 -0.000868062 0)
(3.00841e-07 -0.000871495 0)
(-8.95577e-07 -0.000870026 0)
(-7.68657e-07 -0.000866279 0)
(3.3285e-07 -0.000866722 0)
(1.02744e-06 -0.000868061 0)
(3.30914e-07 -0.00087147 0)
(-9.6855e-07 -0.000870012 0)
(-8.1619e-07 -0.000866301 0)
(3.52913e-07 -0.00086674 0)
(1.09416e-06 -0.000868061 0)
(3.59585e-07 -0.000871442 0)
(-1.03762e-06 -0.000869996 0)
(-8.60437e-07 -0.000866326 0)
(3.71253e-07 -0.00086676 0)
(1.15624e-06 -0.000868061 0)
(3.86586e-07 -0.000871413 0)
(-1.1022e-06 -0.000869979 0)
(-9.01032e-07 -0.000866352 0)
(3.87726e-07 -0.000866782 0)
(1.21316e-06 -0.000868062 0)
(4.11673e-07 -0.000871382 0)
(-1.16175e-06 -0.000869961 0)
(-9.37654e-07 -0.00086638 0)
(4.02204e-07 -0.000866804 0)
(1.26444e-06 -0.000868062 0)
(4.34627e-07 -0.000871348 0)
(-1.2158e-06 -0.000869943 0)
(-9.70026e-07 -0.000866409 0)
(4.14584e-07 -0.000866828 0)
(1.3097e-06 -0.000868062 0)
(4.5526e-07 -0.000871313 0)
(-1.26394e-06 -0.000869923 0)
(-9.97923e-07 -0.00086644 0)
(4.24786e-07 -0.000866852 0)
(1.34862e-06 -0.000868063 0)
(4.73416e-07 -0.000871277 0)
(-1.30585e-06 -0.000869902 0)
(-1.02117e-06 -0.000866472 0)
(4.32753e-07 -0.000866878 0)
(1.38095e-06 -0.000868064 0)
(4.88968e-07 -0.000871239 0)
(-1.34126e-06 -0.000869881 0)
(-1.03965e-06 -0.000866506 0)
(4.38453e-07 -0.000866904 0)
(1.40653e-06 -0.000868064 0)
(5.01828e-07 -0.000871199 0)
(-1.37e-06 -0.000869859 0)
(-1.0533e-06 -0.00086654 0)
(4.41879e-07 -0.000866931 0)
(1.42527e-06 -0.000868065 0)
(5.11938e-07 -0.000871159 0)
(-1.39196e-06 -0.000869836 0)
(-1.0621e-06 -0.000866575 0)
(4.43049e-07 -0.000866958 0)
(1.43718e-06 -0.000868066 0)
(5.19279e-07 -0.000871117 0)
(-1.40714e-06 -0.000869813 0)
(-1.0661e-06 -0.000866612 0)
(4.42003e-07 -0.000866986 0)
(1.44233e-06 -0.000868067 0)
(5.23863e-07 -0.000871075 0)
(-1.41558e-06 -0.000869789 0)
(-1.06539e-06 -0.000866648 0)
(4.3881e-07 -0.000867015 0)
(1.44088e-06 -0.000868068 0)
(5.2574e-07 -0.000871032 0)
(-1.41743e-06 -0.000869765 0)
(-1.06012e-06 -0.000866685 0)
(4.33556e-07 -0.000867043 0)
(1.43306e-06 -0.00086807 0)
(5.24989e-07 -0.000870989 0)
(-1.4129e-06 -0.000869741 0)
(-1.05049e-06 -0.000866723 0)
(4.26351e-07 -0.000867072 0)
(1.41917e-06 -0.000868071 0)
(5.21724e-07 -0.000870946 0)
(-1.40226e-06 -0.000869717 0)
(-1.03673e-06 -0.00086676 0)
(4.17326e-07 -0.0008671 0)
(1.3996e-06 -0.000868073 0)
(5.16086e-07 -0.000870902 0)
(-1.38587e-06 -0.000869693 0)
(-1.01914e-06 -0.000866798 0)
)
;

boundaryField
{
    BotWall
    {
        type            fixedValue;
        value           nonuniform 0();
    }
    FreeStream
    {
        type            zeroGradient;
    }
    FrontNBack
    {
        type            empty;
    }
    LeftSide
    {
        type            symmetryPlane;
    }
    RightSide
    {
        type            symmetryPlane;
    }
    procBoundary2to1
    {
        type            processor;
        value           nonuniform List<vector> 5((8.07924e-08 -0.000866613 0) (2.54748e-07 -0.000868067 0) (1.9679e-08 -0.000871623 0) (-1.81358e-07 -0.000870103 0) (-2.69986e-07 -0.00086616 0));
    }
    procBoundary2to3
    {
        type            processor;
        value           nonuniform List<vector> 5((4.06629e-07 -0.000867128 0) (1.37476e-06 -0.000868074 0) (5.08246e-07 -0.000870859 0) (-1.36414e-06 -0.00086967 0) (-9.9802e-07 -0.000866835 0));
    }
}


// ************************************************************************* //
