/*--------------------------------*- C++ -*----------------------------------*\
| =========                 |                                                 |
| \\      /  F ield         | OpenFOAM: The Open Source CFD Toolbox           |
|  \\    /   O peration     | Version:  2.4.0                                 |
|   \\  /    A nd           | Web:      www.OpenFOAM.org                      |
|    \\/     M anipulation  |                                                 |
\*---------------------------------------------------------------------------*/
FoamFile
{
    version     2.0;
    format      ascii;
    class       volScalarField;
    location    "1.5";
    object      H;
}
// * * * * * * * * * * * * * * * * * * * * * * * * * * * * * * * * * * * * * //

dimensions      [0 2 -2 0 0 0 0];

internalField   nonuniform List<scalar> 
500
(
-11853.7
-11853.7
-11853.7
-11853.7
-11853.7
-11097.1
-11097.1
-11097.1
-11097.1
-11097.1
-10332.9
-10332.9
-10332.9
-10332.9
-10332.9
-9561.62
-9561.65
-9561.66
-9561.65
-9561.62
-8783.67
-8783.7
-8783.71
-8783.7
-8783.67
-7999.36
-7999.39
-7999.4
-7999.39
-7999.36
-7208.88
-7208.92
-7208.93
-7208.92
-7208.88
-6412.27
-6412.3
-6412.31
-6412.3
-6412.26
-5609.32
-5609.35
-5609.36
-5609.35
-5609.32
-4799.63
-4799.65
-4799.66
-4799.65
-4799.63
-3982.54
-3982.55
-3982.55
-3982.55
-3982.54
-3157.14
-3157.14
-3157.14
-3157.14
-3157.14
-2322.3
-2322.29
-2322.28
-2322.29
-2322.3
-1476.68
-1476.65
-1476.63
-1476.65
-1476.68
-125.555
-125.523
-125.512
-125.523
-125.556
-97.28
-97.2544
-97.2457
-97.2546
-97.281
-97.9851
-97.9599
-97.9513
-97.9601
-97.9861
-98.549
-98.5243
-98.5158
-98.5245
-98.5501
-98.9697
-98.9455
-98.9372
-98.9457
-98.9707
-99.2455
-99.2218
-99.2136
-99.222
-99.2465
-99.375
-99.3519
-99.3439
-99.3521
-99.376
-99.3576
-99.3351
-99.3273
-99.3353
-99.3585
-99.1928
-99.171
-99.1635
-99.1712
-99.1937
-98.881
-98.8599
-98.8526
-98.86
-98.8818
-98.4227
-98.4023
-98.3953
-98.4025
-98.4235
-97.8192
-97.7996
-97.7928
-97.7998
-97.82
-97.0722
-97.0535
-97.047
-97.0536
-97.073
-96.1842
-96.1663
-96.1601
-96.1664
-96.1849
-95.1579
-95.1409
-95.135
-95.141
-95.1586
-93.9967
-93.9806
-93.975
-93.9808
-93.9974
-92.7047
-92.6895
-92.6843
-92.6897
-92.7053
-91.2864
-91.2721
-91.2672
-91.2722
-91.2869
-89.7467
-89.7334
-89.7288
-89.7335
-89.7472
-88.0913
-88.0789
-88.0747
-88.079
-88.0918
-86.3261
-86.3147
-86.3108
-86.3148
-86.3266
-84.4578
-84.4474
-84.4438
-84.4474
-84.4582
-82.4933
-82.4838
-82.4806
-82.4839
-82.4936
-80.4399
-80.4314
-80.4285
-80.4314
-80.4402
-78.3055
-78.2979
-78.2953
-78.2979
-78.3057
-76.098
-76.0913
-76.0891
-76.0913
-76.0982
-73.8259
-73.8201
-73.8182
-73.8201
-73.8261
-71.4977
-71.4928
-71.4912
-71.4928
-71.4979
-69.1223
-69.1182
-69.1169
-69.1182
-69.1224
-66.7084
-66.7052
-66.7042
-66.7052
-66.7085
-64.2652
-64.2627
-64.262
-64.2627
-64.2653
-61.8016
-61.7998
-61.7994
-61.7998
-61.8016
-59.3265
-59.3254
-59.3252
-59.3254
-59.3264
-56.8487
-56.8483
-56.8484
-56.8483
-56.8487
-54.377
-54.3772
-54.3775
-54.3771
-54.3769
-51.9197
-51.9204
-51.9209
-51.9204
-51.9196
-49.4849
-49.4862
-49.4869
-49.4862
-49.4848
-47.0806
-47.0823
-47.0832
-47.0823
-47.0804
-44.714
-44.7161
-44.7171
-44.7161
-44.7138
-42.3921
-42.3946
-42.3957
-42.3945
-42.3919
-40.1213
-40.1242
-40.1254
-40.1241
-40.1211
-37.9076
-37.9108
-37.9121
-37.9107
-37.9075
-35.7564
-35.7598
-35.7612
-35.7597
-35.7562
-33.6723
-33.6759
-33.6774
-33.6758
-33.6721
-31.6596
-31.6633
-31.6648
-31.6632
-31.6594
-29.7217
-29.7254
-29.727
-29.7254
-29.7214
-27.8614
-27.8652
-27.8668
-27.8651
-27.8612
-26.081
-26.0848
-26.0864
-26.0847
-26.0807
-24.382
-24.3858
-24.3874
-24.3857
-24.3818
-22.7653
-22.7691
-22.7707
-22.7691
-22.7651
-21.2314
-21.2351
-21.2366
-21.235
-21.2312
-19.7798
-19.7835
-19.7849
-19.7834
-19.7797
-18.4099
-18.4134
-18.4148
-18.4134
-18.4097
-17.1202
-17.1236
-17.1249
-17.1235
-17.12
-15.909
-15.9122
-15.9134
-15.9121
-15.9088
-14.7739
-14.7769
-14.7781
-14.7769
-14.7737
-13.7124
-13.7152
-13.7164
-13.7152
-13.7122
-12.7214
-12.7241
-12.7252
-12.7241
-12.7213
-11.7978
-11.8003
-11.8013
-11.8003
-11.7977
-10.9381
-10.9404
-10.9413
-10.9404
-10.938
-10.1386
-10.1407
-10.1415
-10.1407
-10.1385
-9.39546
-9.39741
-9.39817
-9.39738
-9.39536
-8.70493
-8.70671
-8.7074
-8.70668
-8.70485
-8.06312
-8.06473
-8.06535
-8.0647
-8.06305
-7.46618
-7.46762
-7.46818
-7.4676
-7.46611
-6.91032
-6.91161
-6.91211
-6.91159
-6.91026
-6.39186
-6.393
-6.39344
-6.39298
-6.3918
-5.90723
-5.90824
-5.90863
-5.90823
-5.90719
-5.45306
-5.45394
-5.45428
-5.45393
-5.45302
-5.02614
-5.0269
-5.0272
-5.02689
-5.0261
-4.62346
-4.62412
-4.62437
-4.62411
-4.62342
-4.24223
-4.2428
-4.24302
-4.24279
-4.24221
-3.87991
-3.8804
-3.88058
-3.88039
-3.87989
-3.53417
-3.53458
-3.53473
-3.53457
-3.53415
-3.20291
-3.20325
-3.20338
-3.20325
-3.20289
-2.88427
-2.88455
-2.88466
-2.88455
-2.88426
-2.57661
-2.57685
-2.57694
-2.57685
-2.5766
-2.27852
-2.27871
-2.27878
-2.27871
-2.27851
-1.98876
-1.98892
-1.98897
-1.98892
-1.98876
-1.70631
-1.70644
-1.70648
-1.70643
-1.70631
-1.43031
-1.43041
-1.43044
-1.4304
-1.43031
-1.16005
-1.16012
-1.16015
-1.16012
-1.16005
-0.894962
-0.895015
-0.895034
-0.895014
-0.89496
-0.634591
-0.634627
-0.63464
-0.634627
-0.63459
-0.378575
-0.378596
-0.378603
-0.378595
-0.378574
-0.126617
-0.126623
-0.126626
-0.126623
-0.126616
)
;

boundaryField
{
    BotWall
    {
        type            zeroGradient;
    }
    FreeStream
    {
        type            zeroGradient;
    }
    FrontNBack
    {
        type            empty;
    }
    LeftSide
    {
        type            symmetryPlane;
    }
    RightSide
    {
        type            symmetryPlane;
    }
}


// ************************************************************************* //
