/*--------------------------------*- C++ -*----------------------------------*\
| =========                 |                                                 |
| \\      /  F ield         | OpenFOAM: The Open Source CFD Toolbox           |
|  \\    /   O peration     | Version:  2.4.0                                 |
|   \\  /    A nd           | Web:      www.OpenFOAM.org                      |
|    \\/     M anipulation  |                                                 |
\*---------------------------------------------------------------------------*/
FoamFile
{
    version     2.0;
    format      ascii;
    class       volScalarField;
    location    "1.5";
    object      p;
}
// * * * * * * * * * * * * * * * * * * * * * * * * * * * * * * * * * * * * * //

dimensions      [1 -1 -2 0 0 0 0];

internalField   nonuniform List<scalar> 
500
(
0.427578
0.427581
0.427559
0.42758
0.427577
0.39762
0.397622
0.3976
0.397622
0.39762
0.367539
0.367542
0.36752
0.367542
0.367539
0.337011
0.337013
0.336992
0.337013
0.337011
0.306396
0.3064
0.306379
0.3064
0.306396
0.275221
0.275224
0.275203
0.275224
0.27522
0.243025
0.243029
0.243008
0.243029
0.243025
0.208175
0.208177
0.208156
0.208176
0.208175
0.174322
0.174326
0.174305
0.174326
0.174322
0.161569
0.161585
0.161566
0.161585
0.161568
0.201796
0.201839
0.201827
0.201839
0.201795
0.211745
0.211784
0.211784
0.211783
0.211742
-0.337871
-0.337994
-0.338039
-0.337994
-0.337869
-2.16598
-2.16652
-2.16671
-2.16651
-2.16596
-3.70105
-3.70216
-3.70254
-3.70215
-3.70101
-0.0162095
-0.0162093
-0.0162093
-0.0162093
-0.0162095
-0.00615825
-0.00615845
-0.00615847
-0.00615845
-0.00615825
-0.00863297
-0.00863288
-0.00863288
-0.00863288
-0.00863297
-0.0100815
-0.0100815
-0.0100815
-0.0100815
-0.0100815
-0.0107738
-0.0107738
-0.0107738
-0.0107738
-0.0107738
-0.011316
-0.011316
-0.011316
-0.011316
-0.011316
-0.0119002
-0.0119001
-0.0119001
-0.0119001
-0.0119002
-0.0125201
-0.0125201
-0.0125201
-0.0125201
-0.0125201
-0.0131527
-0.0131527
-0.0131527
-0.0131527
-0.0131527
-0.0137909
-0.0137909
-0.0137909
-0.0137909
-0.0137909
-0.0144351
-0.0144351
-0.0144351
-0.0144351
-0.0144351
-0.0150863
-0.0150863
-0.0150863
-0.0150863
-0.0150863
-0.0157448
-0.0157448
-0.0157448
-0.0157448
-0.0157448
-0.0164107
-0.0164107
-0.0164107
-0.0164107
-0.0164107
-0.017084
-0.017084
-0.017084
-0.017084
-0.017084
-0.0177648
-0.0177648
-0.0177648
-0.0177648
-0.0177648
-0.0184533
-0.0184532
-0.0184532
-0.0184532
-0.0184533
-0.0191494
-0.0191494
-0.0191494
-0.0191494
-0.0191494
-0.0198532
-0.0198532
-0.0198532
-0.0198532
-0.0198532
-0.020565
-0.020565
-0.020565
-0.020565
-0.020565
-0.0212847
-0.0212846
-0.0212846
-0.0212846
-0.0212847
-0.0220124
-0.0220124
-0.0220123
-0.0220124
-0.0220124
-0.0227482
-0.0227482
-0.0227482
-0.0227482
-0.0227482
-0.0234922
-0.0234922
-0.0234922
-0.0234922
-0.0234922
-0.0242446
-0.0242446
-0.0242446
-0.0242446
-0.0242446
-0.0250053
-0.0250053
-0.0250053
-0.0250053
-0.0250053
-0.0257745
-0.0257745
-0.0257745
-0.0257745
-0.0257745
-0.0265523
-0.0265523
-0.0265523
-0.0265523
-0.0265523
-0.0273388
-0.0273388
-0.0273388
-0.0273388
-0.0273388
-0.0281341
-0.0281341
-0.0281341
-0.0281341
-0.0281341
-0.0289382
-0.0289382
-0.0289382
-0.0289382
-0.0289382
-0.0297513
-0.0297513
-0.0297513
-0.0297513
-0.0297513
-0.0305735
-0.0305735
-0.0305735
-0.0305735
-0.0305735
-0.0314049
-0.0314049
-0.0314049
-0.0314049
-0.0314049
-0.0322455
-0.0322455
-0.0322455
-0.0322455
-0.0322455
-0.0330955
-0.0330955
-0.0330955
-0.0330955
-0.0330955
-0.033955
-0.033955
-0.033955
-0.033955
-0.033955
-0.0348241
-0.0348241
-0.0348241
-0.0348241
-0.0348241
-0.0357029
-0.0357029
-0.0357029
-0.0357029
-0.0357029
-0.0365915
-0.0365915
-0.0365915
-0.0365915
-0.0365915
-0.03749
-0.03749
-0.03749
-0.03749
-0.03749
-0.0383986
-0.0383986
-0.0383986
-0.0383986
-0.0383986
-0.0393173
-0.0393173
-0.0393173
-0.0393173
-0.0393173
-0.0402462
-0.0402462
-0.0402462
-0.0402462
-0.0402462
-0.0411855
-0.0411855
-0.0411855
-0.0411855
-0.0411855
-0.0421353
-0.0421353
-0.0421353
-0.0421353
-0.0421353
-0.0430956
-0.0430956
-0.0430956
-0.0430956
-0.0430956
-0.0440667
-0.0440667
-0.0440667
-0.0440667
-0.0440667
-0.0450487
-0.0450487
-0.0450487
-0.0450487
-0.0450487
-0.0460416
-0.0460415
-0.0460415
-0.0460415
-0.0460416
-0.0470455
-0.0470455
-0.0470455
-0.0470455
-0.0470455
-0.0480607
-0.0480607
-0.0480607
-0.0480607
-0.0480607
-0.0490872
-0.0490872
-0.0490872
-0.0490872
-0.0490872
-0.0501251
-0.0501251
-0.0501251
-0.0501251
-0.0501251
-0.0511747
-0.0511747
-0.0511747
-0.0511747
-0.0511747
-0.0522359
-0.0522359
-0.0522359
-0.0522359
-0.0522359
-0.053309
-0.053309
-0.053309
-0.053309
-0.053309
-0.0543941
-0.0543941
-0.0543941
-0.0543941
-0.0543941
-0.0554912
-0.0554912
-0.0554912
-0.0554912
-0.0554912
-0.0566007
-0.0566007
-0.0566007
-0.0566007
-0.0566007
-0.0577224
-0.0577224
-0.0577224
-0.0577224
-0.0577224
-0.0588568
-0.0588568
-0.0588568
-0.0588568
-0.0588568
-0.0600037
-0.0600037
-0.0600037
-0.0600037
-0.0600037
-0.0611635
-0.0611635
-0.0611635
-0.0611635
-0.0611635
-0.0623362
-0.0623362
-0.0623362
-0.0623362
-0.0623362
-0.063522
-0.063522
-0.063522
-0.063522
-0.063522
-0.064721
-0.064721
-0.064721
-0.064721
-0.064721
-0.0659334
-0.0659334
-0.0659334
-0.0659334
-0.0659334
-0.0671594
-0.0671594
-0.0671594
-0.0671594
-0.0671594
-0.068399
-0.068399
-0.068399
-0.068399
-0.068399
-0.0696524
-0.0696524
-0.0696524
-0.0696524
-0.0696524
-0.0709199
-0.0709199
-0.0709199
-0.0709199
-0.0709199
-0.0722015
-0.0722015
-0.0722015
-0.0722015
-0.0722015
-0.0734974
-0.0734973
-0.0734973
-0.0734973
-0.0734974
-0.0748077
-0.0748077
-0.0748077
-0.0748077
-0.0748077
-0.0761327
-0.0761327
-0.0761327
-0.0761327
-0.0761327
-0.0774724
-0.0774724
-0.0774724
-0.0774724
-0.0774724
-0.0788271
-0.0788271
-0.0788271
-0.0788271
-0.0788271
-0.0801969
-0.0801969
-0.0801969
-0.0801969
-0.0801969
-0.081582
-0.081582
-0.081582
-0.081582
-0.081582
-0.0829826
-0.0829826
-0.0829826
-0.0829826
-0.0829826
-0.0843988
-0.0843988
-0.0843988
-0.0843988
-0.0843988
-0.0858308
-0.0858308
-0.0858308
-0.0858308
-0.0858308
-0.0872787
-0.0872787
-0.0872787
-0.0872787
-0.0872787
-0.0887429
-0.0887429
-0.0887429
-0.0887429
-0.0887429
)
;

boundaryField
{
    BotWall
    {
        type            calculated;
        value           nonuniform List<scalar> 5(0.442398 0.442401 0.442379 0.442401 0.442398);
    }
    FreeStream
    {
        type            calculated;
        value           nonuniform List<scalar> 5(-0.089479 -0.089479 -0.089479 -0.089479 -0.089479);
    }
    FrontNBack
    {
        type            empty;
    }
    LeftSide
    {
        type            symmetryPlane;
    }
    RightSide
    {
        type            symmetryPlane;
    }
}


// ************************************************************************* //
