/*--------------------------------*- C++ -*----------------------------------*\
| =========                 |                                                 |
| \\      /  F ield         | OpenFOAM: The Open Source CFD Toolbox           |
|  \\    /   O peration     | Version:  2.4.0                                 |
|   \\  /    A nd           | Web:      www.OpenFOAM.org                      |
|    \\/     M anipulation  |                                                 |
\*---------------------------------------------------------------------------*/
FoamFile
{
    version     2.0;
    format      ascii;
    class       volScalarField;
    location    "1.5";
    object      p_rgh;
}
// * * * * * * * * * * * * * * * * * * * * * * * * * * * * * * * * * * * * * //

dimensions      [1 -1 -2 0 0 0 0];

internalField   nonuniform List<scalar> 
500
(
0.442398
0.442401
0.442379
0.442401
0.442398
0.442246
0.442248
0.442226
0.442248
0.442246
0.442304
0.442307
0.442285
0.442307
0.442304
0.442251
0.442253
0.442232
0.442253
0.44225
0.442451
0.442455
0.442434
0.442455
0.442451
0.442434
0.442437
0.442417
0.442437
0.442434
0.441745
0.441749
0.441728
0.441749
0.441745
0.438753
0.438755
0.438734
0.438755
0.438753
0.437114
0.437118
0.437097
0.437118
0.437114
0.456934
0.45695
0.456931
0.45695
0.456933
0.530098
0.530141
0.530129
0.530141
0.530096
0.57335
0.57339
0.573389
0.573389
0.573348
0.0574102
0.0572872
0.0572427
0.0572878
0.0574119
-1.73665
-1.73718
-1.73738
-1.73718
-1.73663
-3.64808
-3.64917
-3.64954
-3.64916
-3.64803
-0.0079511
-0.00795097
-0.00795097
-0.00795097
-0.0079511
0.00268322
0.00268302
0.002683
0.00268302
0.00268322
0.000798121
0.00079821
0.000798213
0.00079821
0.00079812
-5.42292e-05
-5.41663e-05
-5.41625e-05
-5.41666e-05
-5.423e-05
-0.000143672
-0.000143663
-0.000143661
-0.000143664
-0.000143673
-7.62414e-05
-7.62422e-05
-7.62404e-05
-7.62425e-05
-7.62421e-05
-4.40508e-05
-4.40434e-05
-4.40416e-05
-4.40436e-05
-4.40514e-05
-4.0707e-05
-4.06951e-05
-4.06933e-05
-4.06953e-05
-4.07076e-05
-4.31079e-05
-4.30958e-05
-4.30941e-05
-4.30961e-05
-4.31085e-05
-4.40971e-05
-4.40859e-05
-4.40842e-05
-4.40862e-05
-4.40977e-05
-4.39398e-05
-4.39291e-05
-4.39275e-05
-4.39294e-05
-4.39404e-05
-4.35553e-05
-4.35448e-05
-4.35433e-05
-4.35451e-05
-4.35558e-05
-4.32246e-05
-4.32143e-05
-4.32128e-05
-4.32145e-05
-4.32251e-05
-4.29361e-05
-4.2926e-05
-4.29246e-05
-4.29262e-05
-4.29367e-05
-4.26533e-05
-4.26433e-05
-4.2642e-05
-4.26436e-05
-4.26538e-05
-4.23649e-05
-4.23552e-05
-4.23539e-05
-4.23554e-05
-4.23655e-05
-4.20715e-05
-4.2062e-05
-4.20608e-05
-4.20622e-05
-4.20721e-05
-4.17745e-05
-4.17652e-05
-4.1764e-05
-4.17654e-05
-4.1775e-05
-4.14743e-05
-4.14651e-05
-4.1464e-05
-4.14654e-05
-4.14748e-05
-4.11708e-05
-4.11618e-05
-4.11608e-05
-4.11621e-05
-4.11713e-05
-4.08639e-05
-4.08551e-05
-4.08541e-05
-4.08554e-05
-4.08644e-05
-4.05536e-05
-4.0545e-05
-4.0544e-05
-4.05453e-05
-4.05541e-05
-4.02398e-05
-4.02314e-05
-4.02305e-05
-4.02317e-05
-4.02403e-05
-3.99226e-05
-3.99143e-05
-3.99135e-05
-3.99146e-05
-3.9923e-05
-3.96018e-05
-3.95937e-05
-3.95929e-05
-3.95939e-05
-3.96022e-05
-3.92774e-05
-3.92695e-05
-3.92687e-05
-3.92697e-05
-3.92778e-05
-3.89493e-05
-3.89417e-05
-3.89409e-05
-3.89419e-05
-3.89498e-05
-3.86177e-05
-3.86102e-05
-3.86095e-05
-3.86104e-05
-3.86181e-05
-3.82823e-05
-3.8275e-05
-3.82743e-05
-3.82752e-05
-3.82827e-05
-3.79432e-05
-3.7936e-05
-3.79354e-05
-3.79362e-05
-3.79436e-05
-3.76003e-05
-3.75933e-05
-3.75928e-05
-3.75935e-05
-3.76007e-05
-3.72536e-05
-3.72468e-05
-3.72463e-05
-3.7247e-05
-3.72539e-05
-3.6903e-05
-3.68963e-05
-3.68959e-05
-3.68965e-05
-3.69033e-05
-3.65485e-05
-3.6542e-05
-3.65416e-05
-3.65422e-05
-3.65488e-05
-3.619e-05
-3.61837e-05
-3.61833e-05
-3.61839e-05
-3.61904e-05
-3.58276e-05
-3.58214e-05
-3.5821e-05
-3.58216e-05
-3.58279e-05
-3.5461e-05
-3.54551e-05
-3.54547e-05
-3.54552e-05
-3.54614e-05
-3.50905e-05
-3.50846e-05
-3.50843e-05
-3.50848e-05
-3.50908e-05
-3.47157e-05
-3.47101e-05
-3.47098e-05
-3.47102e-05
-3.4716e-05
-3.43368e-05
-3.43313e-05
-3.43311e-05
-3.43315e-05
-3.43371e-05
-3.39537e-05
-3.39483e-05
-3.39481e-05
-3.39485e-05
-3.3954e-05
-3.35663e-05
-3.35611e-05
-3.35609e-05
-3.35612e-05
-3.35666e-05
-3.31745e-05
-3.31695e-05
-3.31693e-05
-3.31696e-05
-3.31748e-05
-3.27784e-05
-3.27735e-05
-3.27734e-05
-3.27737e-05
-3.27787e-05
-3.23779e-05
-3.23732e-05
-3.23731e-05
-3.23733e-05
-3.23782e-05
-3.19729e-05
-3.19683e-05
-3.19682e-05
-3.19685e-05
-3.19732e-05
-3.15634e-05
-3.1559e-05
-3.15589e-05
-3.15591e-05
-3.15637e-05
-3.11493e-05
-3.1145e-05
-3.1145e-05
-3.11451e-05
-3.11496e-05
-3.07306e-05
-3.07265e-05
-3.07264e-05
-3.07266e-05
-3.07309e-05
-3.03073e-05
-3.03032e-05
-3.03032e-05
-3.03033e-05
-3.03075e-05
-2.98792e-05
-2.98753e-05
-2.98753e-05
-2.98754e-05
-2.98794e-05
-2.94463e-05
-2.94425e-05
-2.94425e-05
-2.94426e-05
-2.94465e-05
-2.90086e-05
-2.9005e-05
-2.9005e-05
-2.90051e-05
-2.90088e-05
-2.8566e-05
-2.85625e-05
-2.85625e-05
-2.85626e-05
-2.85662e-05
-2.81185e-05
-2.81151e-05
-2.81152e-05
-2.81152e-05
-2.81187e-05
-2.7666e-05
-2.76627e-05
-2.76628e-05
-2.76628e-05
-2.76662e-05
-2.72084e-05
-2.72053e-05
-2.72054e-05
-2.72054e-05
-2.72086e-05
-2.67458e-05
-2.67428e-05
-2.67428e-05
-2.67428e-05
-2.67459e-05
-2.62779e-05
-2.6275e-05
-2.62751e-05
-2.62751e-05
-2.62781e-05
-2.58049e-05
-2.58021e-05
-2.58022e-05
-2.58022e-05
-2.5805e-05
-2.53266e-05
-2.53239e-05
-2.5324e-05
-2.5324e-05
-2.53267e-05
-2.48429e-05
-2.48404e-05
-2.48405e-05
-2.48404e-05
-2.4843e-05
-2.43539e-05
-2.43514e-05
-2.43515e-05
-2.43515e-05
-2.4354e-05
-2.38594e-05
-2.3857e-05
-2.38571e-05
-2.38571e-05
-2.38595e-05
-2.33593e-05
-2.33571e-05
-2.33572e-05
-2.33572e-05
-2.33594e-05
-2.28537e-05
-2.28516e-05
-2.28517e-05
-2.28517e-05
-2.28538e-05
-2.23425e-05
-2.23405e-05
-2.23406e-05
-2.23405e-05
-2.23426e-05
-2.18255e-05
-2.18237e-05
-2.18237e-05
-2.18237e-05
-2.18256e-05
-2.13028e-05
-2.13011e-05
-2.13011e-05
-2.13011e-05
-2.13029e-05
-2.07743e-05
-2.07726e-05
-2.07727e-05
-2.07727e-05
-2.07743e-05
-2.02398e-05
-2.02383e-05
-2.02384e-05
-2.02383e-05
-2.02399e-05
-1.96994e-05
-1.9698e-05
-1.96981e-05
-1.9698e-05
-1.96995e-05
-1.9153e-05
-1.91517e-05
-1.91517e-05
-1.91517e-05
-1.91531e-05
-1.86005e-05
-1.85992e-05
-1.85993e-05
-1.85993e-05
-1.86005e-05
-1.80418e-05
-1.80407e-05
-1.80407e-05
-1.80407e-05
-1.80418e-05
-1.74769e-05
-1.74758e-05
-1.74759e-05
-1.74759e-05
-1.74769e-05
-1.69057e-05
-1.69047e-05
-1.69048e-05
-1.69047e-05
-1.69057e-05
-1.63281e-05
-1.63272e-05
-1.63273e-05
-1.63272e-05
-1.63281e-05
-1.5744e-05
-1.57433e-05
-1.57433e-05
-1.57433e-05
-1.5744e-05
-1.51535e-05
-1.51529e-05
-1.51529e-05
-1.51529e-05
-1.51535e-05
-1.45563e-05
-1.45558e-05
-1.45558e-05
-1.45558e-05
-1.45563e-05
-1.39526e-05
-1.39522e-05
-1.39521e-05
-1.39522e-05
-1.39526e-05
-1.3342e-05
-1.33417e-05
-1.33417e-05
-1.33417e-05
-1.3342e-05
-1.27246e-05
-1.27244e-05
-1.27244e-05
-1.27244e-05
-1.27246e-05
-1.20996e-05
-1.20996e-05
-1.20996e-05
-1.20996e-05
-1.20996e-05
)
;

boundaryField
{
    BotWall
    {
        type            fixedFluxPressure;
        gradient        uniform 0;
        value           nonuniform List<scalar> 5(0.442398 0.442401 0.442379 0.442401 0.442398);
    }
    FreeStream
    {
        type            totalPressure;
        rho             rho;
        psi             none;
        gamma           1;
        p0              uniform 0;
        value           nonuniform List<scalar> 5(-1.17851e-05 -1.17853e-05 -1.17853e-05 -1.17853e-05 -1.17851e-05);
    }
    FrontNBack
    {
        type            empty;
    }
    LeftSide
    {
        type            symmetryPlane;
    }
    RightSide
    {
        type            symmetryPlane;
    }
}


// ************************************************************************* //
