/*--------------------------------*- C++ -*----------------------------------*\
| =========                 |                                                 |
| \\      /  F ield         | OpenFOAM: The Open Source CFD Toolbox           |
|  \\    /   O peration     | Version:  2.4.0                                 |
|   \\  /    A nd           | Web:      www.OpenFOAM.org                      |
|    \\/     M anipulation  |                                                 |
\*---------------------------------------------------------------------------*/
FoamFile
{
    version     2.0;
    format      ascii;
    class       surfaceScalarField;
    location    "1.5";
    object      phi;
}
// * * * * * * * * * * * * * * * * * * * * * * * * * * * * * * * * * * * * * //

dimensions      [0 3 -1 0 0 0 0];

internalField   nonuniform List<scalar> 
895
(
9.11668e-19
-9.11731e-19
5.51636e-19
3.60019e-19
-5.7308e-19
1.12464e-18
-9.37817e-19
3.64669e-19
-9.37863e-19
2.7829e-18
-3.69305e-18
1.66472e-18
1.48085e-18
-1.73031e-18
4.52339e-18
-2.86242e-18
1.49974e-18
-3.79813e-18
4.69891e-18
-8.3901e-18
2.79855e-18
3.38415e-18
-2.91e-18
1.0236e-17
-4.8339e-18
3.42676e-18
-8.62987e-18
6.69574e-18
-1.50838e-17
3.9735e-18
6.10951e-18
-4.1326e-18
1.83463e-17
-6.88929e-18
6.18664e-18
-1.5517e-17
8.72665e-18
-2.38083e-17
5.16757e-18
9.67178e-18
-5.37628e-18
2.88944e-17
-8.9805e-18
9.79404e-18
-2.44954e-17
1.08547e-17
-3.46608e-17
6.41118e-18
1.41184e-17
-6.67117e-18
4.19809e-17
-1.11709e-17
1.42968e-17
-3.56643e-17
1.30148e-17
-4.76735e-17
7.67304e-18
1.94633e-17
-7.98616e-18
5.7644e-17
-1.33957e-17
1.97092e-17
-4.90582e-17
1.52841e-17
-6.29555e-17
8.99019e-18
2.576e-17
-9.35831e-18
7.59962e-17
-1.57318e-17
2.60854e-17
-6.47883e-17
1.75831e-17
-8.05367e-17
1.03253e-17
3.30204e-17
-1.07501e-17
9.70748e-17
-1.81003e-17
3.34379e-17
-8.28871e-17
1.9995e-17
-1.0053e-16
1.17204e-17
4.12973e-17
-1.22039e-17
1.21002e-16
-2.05844e-17
4.18204e-17
-1.0347e-16
2.24426e-17
-1.22971e-16
1.3138e-17
5.06037e-17
-1.36825e-17
1.47825e-16
-2.31063e-17
5.12458e-17
-1.26576e-16
2.50512e-17
-1.48021e-16
1.46444e-17
6.10117e-17
-1.52525e-17
1.77723e-16
-2.57929e-17
6.17871e-17
-1.52368e-16
2.78102e-17
-1.75831e-16
1.61066e-17
7.27158e-17
-1.67815e-17
2.10612e-16
-2.86362e-17
7.36423e-17
-1.81004e-16
3.08226e-17
-1.81441e-15
1.77366e-17
8.58026e-17
-1.84755e-17
2.46823e-16
-3.17435e-17
8.69116e-17
-1.86797e-15
3.5637e-17
-3.21531e-10
1.97064e-17
-3.21537e-10
-2.0508e-17
-3.21538e-10
-3.67192e-17
-3.21537e-10
-3.21531e-10
3.55368e-17
-3.21531e-10
2.05792e-17
-3.21537e-10
-2.14448e-17
-3.21538e-10
-3.66056e-17
-3.21537e-10
-3.21531e-10
3.36822e-17
-3.21531e-10
1.72887e-17
-3.21537e-10
-1.7925e-17
-3.21538e-10
-3.45491e-17
-3.21537e-10
-3.21531e-10
2.21884e-17
-3.21531e-10
1.43058e-17
-3.21537e-10
-1.47186e-17
-3.21538e-10
-2.28287e-17
-3.21537e-10
-3.21531e-10
1.63906e-17
-3.21531e-10
1.08219e-17
-3.21537e-10
-1.10187e-17
-3.21538e-10
-1.68318e-17
-3.21537e-10
-3.21531e-10
1.19984e-17
-3.21531e-10
7.74037e-18
-3.21537e-10
-7.73219e-18
-3.21538e-10
-1.22559e-17
-3.21537e-10
-3.21531e-10
7.30944e-18
-3.21531e-10
5.04893e-18
-3.21537e-10
-4.84688e-18
-3.21538e-10
-7.39442e-18
-3.21537e-10
-3.21531e-10
2.55818e-18
-3.21531e-10
2.55819e-18
-3.21537e-10
-2.1735e-18
-3.21538e-10
-2.48263e-18
-3.21537e-10
-3.21531e-10
-1.81375e-18
-3.21531e-10
2.32848e-19
-3.21537e-10
3.22558e-19
-3.21538e-10
2.03665e-18
-3.21537e-10
-3.21531e-10
-5.69885e-18
-3.21531e-10
-1.88659e-18
-3.21537e-10
2.60006e-18
-3.21538e-10
6.05512e-18
-3.21537e-10
-3.21531e-10
-9.12835e-18
-3.21531e-10
-3.77011e-18
-3.21537e-10
4.62829e-18
-3.21538e-10
9.60352e-18
-3.21537e-10
-3.21531e-10
-1.21228e-17
-3.21531e-10
-5.40824e-18
-3.21537e-10
6.39724e-18
-3.21538e-10
1.27019e-17
-3.21537e-10
-3.21531e-10
-1.46765e-17
-3.21531e-10
-6.79835e-18
-3.21537e-10
7.90379e-18
-3.21538e-10
1.53445e-17
-3.21537e-10
-3.21531e-10
-1.67784e-17
-3.21531e-10
-7.93778e-18
-3.21537e-10
9.14488e-18
-3.21538e-10
1.75196e-17
-3.21537e-10
-3.21531e-10
-1.84215e-17
-3.21531e-10
-8.82385e-18
-3.21537e-10
1.01175e-17
-3.21538e-10
1.92202e-17
-3.21537e-10
-3.21531e-10
-1.96033e-17
-3.21531e-10
-9.45503e-18
-3.21537e-10
1.082e-17
-3.21538e-10
2.04438e-17
-3.21537e-10
-3.21531e-10
-2.03248e-17
-3.21531e-10
-9.83148e-18
-3.21537e-10
1.12524e-17
-3.21538e-10
2.11914e-17
-3.21537e-10
-3.21531e-10
-2.05897e-17
-3.21531e-10
-9.95509e-18
-3.21537e-10
1.14166e-17
-3.21538e-10
2.14668e-17
-3.21537e-10
-3.21531e-10
-2.04046e-17
-3.21531e-10
-9.82946e-18
-3.21537e-10
1.13164e-17
-3.21538e-10
2.12769e-17
-3.21537e-10
-3.2153e-10
-1.97789e-17
-3.21531e-10
-9.45985e-18
-3.21537e-10
1.09572e-17
-3.21538e-10
2.06316e-17
-3.21537e-10
-3.2153e-10
-1.87255e-17
-3.21531e-10
-8.85327e-18
-3.21537e-10
1.03465e-17
-3.21539e-10
1.95441e-17
-3.21537e-10
-3.2153e-10
-1.72599e-17
-3.21531e-10
-8.01838e-18
-3.21537e-10
9.49338e-18
-3.21539e-10
1.80306e-17
-3.21537e-10
-3.2153e-10
-1.54009e-17
-3.21531e-10
-6.96555e-18
-3.21537e-10
8.40883e-18
-3.21539e-10
1.61105e-17
-3.21537e-10
-3.2153e-10
-1.317e-17
-3.21531e-10
-5.70677e-18
-3.21537e-10
7.10555e-18
-3.21539e-10
1.38063e-17
-3.21537e-10
-3.2153e-10
-1.05915e-17
-3.21531e-10
-4.25559e-18
-3.21537e-10
5.59793e-18
-3.21539e-10
1.11431e-17
-3.21537e-10
-3.2153e-10
-7.69245e-18
-3.21531e-10
-2.62703e-18
-3.21537e-10
3.9019e-18
-3.21539e-10
8.14892e-18
-3.21537e-10
-3.2153e-10
-4.50217e-18
-3.21531e-10
-8.3748e-19
-3.21537e-10
2.03487e-18
-3.21539e-10
4.85431e-18
-3.21537e-10
-3.2153e-10
-1.05229e-18
-3.21531e-10
1.09543e-18
-3.21537e-10
1.55852e-20
-3.21539e-10
1.29202e-18
-3.21537e-10
-3.2153e-10
2.62365e-18
-3.21531e-10
3.15296e-18
-3.21537e-10
-2.13605e-18
-3.21539e-10
-2.50315e-18
-3.21537e-10
-3.2153e-10
6.49044e-18
-3.21531e-10
5.31545e-18
-3.21537e-10
-4.39912e-18
-3.21539e-10
-6.49472e-18
-3.21537e-10
-3.2153e-10
1.05116e-17
-3.21531e-10
7.56247e-18
-3.21537e-10
-6.75191e-18
-3.21539e-10
-1.06448e-17
-3.21537e-10
-3.2153e-10
1.46495e-17
-3.21531e-10
9.87304e-18
-3.21537e-10
-9.17212e-18
-3.21539e-10
-1.49145e-17
-3.21537e-10
-3.2153e-10
1.8866e-17
-3.21531e-10
1.22258e-17
-3.21537e-10
-1.1637e-17
-3.21538e-10
-1.92642e-17
-3.21537e-10
-3.2153e-10
2.31227e-17
-3.21531e-10
1.45993e-17
-3.21537e-10
-1.41238e-17
-3.21538e-10
-2.36542e-17
-3.21537e-10
-3.2153e-10
2.73814e-17
-3.21531e-10
1.6972e-17
-3.21537e-10
-1.66097e-17
-3.21538e-10
-2.80449e-17
-3.21537e-10
-3.2153e-10
3.16042e-17
-3.21531e-10
1.93229e-17
-3.21537e-10
-1.90723e-17
-3.21538e-10
-3.2397e-17
-3.21537e-10
-3.21531e-10
3.57545e-17
-3.21531e-10
2.16314e-17
-3.21537e-10
-2.14895e-17
-3.21538e-10
-3.66726e-17
-3.21537e-10
-3.21531e-10
3.97966e-17
-3.21531e-10
2.38774e-17
-3.21537e-10
-2.38405e-17
-3.21538e-10
-4.08349e-17
-3.21537e-10
-3.21531e-10
4.36968e-17
-3.21531e-10
2.60422e-17
-3.21537e-10
-2.6105e-17
-3.21538e-10
-4.4849e-17
-3.21537e-10
-3.21531e-10
4.74233e-17
-3.21531e-10
2.81079e-17
-3.21537e-10
-2.82642e-17
-3.21538e-10
-4.86819e-17
-3.21537e-10
-3.21531e-10
5.09468e-17
-3.21531e-10
3.00581e-17
-3.21537e-10
-3.03007e-17
-3.21538e-10
-5.23034e-17
-3.21537e-10
-3.21531e-10
5.42405e-17
-3.21531e-10
3.18777e-17
-3.21537e-10
-3.21986e-17
-3.21538e-10
-5.56859e-17
-3.21537e-10
-3.21531e-10
5.72806e-17
-3.21531e-10
3.35534e-17
-3.21537e-10
-3.39438e-17
-3.21538e-10
-5.88048e-17
-3.21536e-10
-3.21531e-10
6.00464e-17
-3.21531e-10
3.50737e-17
-3.21537e-10
-3.55241e-17
-3.21538e-10
-6.16388e-17
-3.21536e-10
-3.21531e-10
6.25207e-17
-3.21531e-10
3.64289e-17
-3.21537e-10
-3.69294e-17
-3.21538e-10
-6.41701e-17
-3.21536e-10
-3.21531e-10
6.46895e-17
-3.21531e-10
3.76111e-17
-3.21536e-10
-3.81514e-17
-3.21538e-10
-6.63845e-17
-3.21536e-10
-3.21531e-10
6.65424e-17
-3.21531e-10
3.86145e-17
-3.21536e-10
-3.91841e-17
-3.21538e-10
-6.82712e-17
-3.21536e-10
-3.21531e-10
6.80726e-17
-3.21531e-10
3.94354e-17
-3.21536e-10
-4.00235e-17
-3.21538e-10
-6.98235e-17
-3.21536e-10
-3.21531e-10
6.92767e-17
-3.21531e-10
4.00717e-17
-3.21536e-10
-4.06678e-17
-3.21538e-10
-7.10378e-17
-3.21536e-10
-3.21531e-10
7.0155e-17
-3.21532e-10
4.05237e-17
-3.21536e-10
-4.11173e-17
-3.21537e-10
-7.19146e-17
-3.21536e-10
-3.21531e-10
7.07107e-17
-3.21532e-10
4.07931e-17
-3.21536e-10
-4.1374e-17
-3.21537e-10
-7.24575e-17
-3.21536e-10
-3.21531e-10
7.09505e-17
-3.21532e-10
4.08838e-17
-3.21536e-10
-4.1442e-17
-3.21537e-10
-7.26735e-17
-3.21536e-10
-3.21531e-10
7.08841e-17
-3.21532e-10
4.0801e-17
-3.21536e-10
-4.13272e-17
-3.21537e-10
-7.25727e-17
-3.21536e-10
-3.21532e-10
7.05238e-17
-3.21532e-10
4.05517e-17
-3.21536e-10
-4.10369e-17
-3.21537e-10
-7.2168e-17
-3.21536e-10
-3.21532e-10
6.98844e-17
-3.21532e-10
4.01442e-17
-3.21536e-10
-4.05803e-17
-3.21537e-10
-7.1475e-17
-3.21536e-10
-3.21532e-10
6.89831e-17
-3.21532e-10
3.95879e-17
-3.21536e-10
-3.99674e-17
-3.21537e-10
-7.05115e-17
-3.21536e-10
-3.21532e-10
6.78392e-17
-3.21532e-10
3.88937e-17
-3.21536e-10
-3.92097e-17
-3.21537e-10
-6.92975e-17
-3.21536e-10
-3.21532e-10
6.64733e-17
-3.21532e-10
3.8073e-17
-3.21536e-10
-3.83196e-17
-3.21537e-10
-6.78546e-17
-3.21536e-10
-3.21532e-10
6.4908e-17
-3.21532e-10
3.71383e-17
-3.21536e-10
-3.73103e-17
-3.21537e-10
-6.62062e-17
-3.21536e-10
-3.21532e-10
6.31667e-17
-3.21532e-10
3.61026e-17
-3.21536e-10
-3.61959e-17
-3.21537e-10
-6.43766e-17
-3.21536e-10
-3.21532e-10
6.1274e-17
-3.21532e-10
3.49794e-17
-3.21536e-10
-3.49906e-17
-3.21537e-10
-6.23914e-17
-3.21536e-10
-3.21532e-10
5.92551e-17
-3.21532e-10
3.37828e-17
-3.21536e-10
-3.37095e-17
-3.21537e-10
-6.02766e-17
-3.21536e-10
-3.21532e-10
5.71356e-17
-3.21532e-10
3.25268e-17
-3.21536e-10
-3.23676e-17
-3.21536e-10
-5.80591e-17
-3.21536e-10
-3.21532e-10
5.49418e-17
-3.21532e-10
3.12259e-17
-3.21536e-10
-3.09802e-17
-3.21536e-10
-5.57657e-17
-3.21536e-10
-3.21532e-10
5.26996e-17
-3.21533e-10
2.98944e-17
-3.21536e-10
-2.95626e-17
-3.21536e-10
-5.34237e-17
-3.21536e-10
-3.21532e-10
5.04352e-17
-3.21533e-10
2.85466e-17
-3.21536e-10
-2.81301e-17
-3.21536e-10
-5.106e-17
-3.21536e-10
-3.21532e-10
4.81745e-17
-3.21533e-10
2.71968e-17
-3.21536e-10
-2.66977e-17
-3.21536e-10
-4.87015e-17
-3.21536e-10
-3.21532e-10
4.59427e-17
-3.21533e-10
2.58589e-17
-3.21536e-10
-2.52804e-17
-3.21536e-10
-4.63745e-17
-3.21536e-10
-3.21532e-10
4.37647e-17
-3.21533e-10
2.45465e-17
-3.21536e-10
-2.38927e-17
-3.21536e-10
-4.41046e-17
-3.21536e-10
-3.21532e-10
4.16644e-17
-3.21533e-10
2.32728e-17
-3.21536e-10
-2.25484e-17
-3.21536e-10
-4.19166e-17
-3.21536e-10
-3.21533e-10
3.96645e-17
-3.21533e-10
2.20504e-17
-3.21536e-10
-2.12612e-17
-3.21536e-10
-3.98341e-17
-3.21536e-10
-3.21533e-10
3.77864e-17
-3.21533e-10
2.08913e-17
-3.21536e-10
-2.00435e-17
-3.21536e-10
-3.78792e-17
-3.21536e-10
-3.21533e-10
3.60499e-17
-3.21533e-10
1.98066e-17
-3.21536e-10
-1.89071e-17
-3.21536e-10
-3.60724e-17
-3.21536e-10
-3.21533e-10
3.44726e-17
-3.21533e-10
1.88063e-17
-3.21536e-10
-1.78625e-17
-3.21536e-10
-3.44319e-17
-3.21536e-10
-3.21533e-10
3.30696e-17
-3.21533e-10
1.78994e-17
-3.21536e-10
-1.6919e-17
-3.21536e-10
-3.29732e-17
-3.21536e-10
-3.21533e-10
3.18531e-17
-3.21533e-10
1.70932e-17
-3.21536e-10
-1.60841e-17
-3.21536e-10
-3.17089e-17
-3.21536e-10
-3.21533e-10
3.0832e-17
-3.21533e-10
1.63935e-17
-3.21536e-10
-1.53635e-17
-3.21536e-10
-3.0648e-17
-3.21536e-10
-3.21533e-10
3.00113e-17
-3.21533e-10
1.58041e-17
-3.21536e-10
-1.47607e-17
-3.21536e-10
-2.97954e-17
-3.21536e-10
-3.21533e-10
2.93915e-17
-3.21533e-10
1.53268e-17
-3.21536e-10
-1.42768e-17
-3.21536e-10
-2.91513e-17
-3.21536e-10
-3.21533e-10
2.89682e-17
-3.21533e-10
1.49607e-17
-3.21536e-10
-1.39103e-17
-3.21536e-10
-2.87111e-17
-3.21536e-10
-3.21533e-10
2.87319e-17
-3.21533e-10
1.47025e-17
-3.21536e-10
-1.36564e-17
-3.21536e-10
-2.84643e-17
-3.21536e-10
-3.21533e-10
2.86672e-17
-3.21533e-10
1.45459e-17
-3.21536e-10
-1.35075e-17
-3.21536e-10
-2.83945e-17
-3.21536e-10
-3.21533e-10
2.87525e-17
-3.21533e-10
1.44817e-17
-3.21536e-10
-1.34524e-17
-3.21536e-10
-2.84787e-17
-3.21536e-10
-3.21533e-10
2.8961e-17
-3.21533e-10
1.44983e-17
-3.21536e-10
-1.34771e-17
-3.21536e-10
-2.86887e-17
-3.21536e-10
-3.21533e-10
2.92645e-17
-3.21533e-10
1.45819e-17
-3.21536e-10
-1.35651e-17
-3.21536e-10
-2.89943e-17
-3.21536e-10
-3.21533e-10
2.9642e-17
1.47068e-17
-1.36882e-17
-2.9373e-17
)
;

boundaryField
{
    BotWall
    {
        type            calculated;
        value           nonuniform List<scalar> 5(-4.83833e-23 8.8617e-23 1.45819e-22 9.45302e-23 -8.88515e-23);
    }
    FreeStream
    {
        type            calculated;
        value           nonuniform List<scalar> 5(-3.21533e-10 -3.21536e-10 -3.21536e-10 -3.21536e-10 -3.21533e-10);
    }
    FrontNBack
    {
        type            empty;
        value           nonuniform 0();
    }
    LeftSide
    {
        type            symmetryPlane;
        value           uniform 0;
    }
    RightSide
    {
        type            symmetryPlane;
        value           uniform 0;
    }
}


// ************************************************************************* //
