/*--------------------------------*- C++ -*----------------------------------*\
| =========                 |                                                 |
| \\      /  F ield         | OpenFOAM: The Open Source CFD Toolbox           |
|  \\    /   O peration     | Version:  2.4.0                                 |
|   \\  /    A nd           | Web:      www.OpenFOAM.org                      |
|    \\/     M anipulation  |                                                 |
\*---------------------------------------------------------------------------*/
FoamFile
{
    version     2.0;
    format      ascii;
    class       volVectorField;
    location    "1.5";
    object      U;
}
// * * * * * * * * * * * * * * * * * * * * * * * * * * * * * * * * * * * * * //

dimensions      [0 1 -1 0 0 0 0];

internalField   nonuniform List<vector> 
500
(
(2.68004e-10 1.7764e-09 0)
(3.98844e-10 1.80042e-09 0)
(-2.4288e-12 1.80103e-09 0)
(-4.09631e-10 1.80043e-09 0)
(-2.76265e-10 1.77638e-09 0)
(8.1043e-10 -4.65148e-09 0)
(1.19894e-09 -4.697e-09 0)
(-7.35603e-12 -4.6887e-09 0)
(-1.23147e-09 -4.69695e-09 0)
(-8.35312e-10 -4.65175e-09 0)
(1.35506e-09 7.63949e-09 0)
(1.99859e-09 7.77852e-09 0)
(-1.2358e-11 7.80068e-09 0)
(-2.05323e-09 7.77867e-09 0)
(-1.39686e-09 7.63871e-09 0)
(1.9143e-09 -1.12181e-08 0)
(2.80997e-09 -1.12756e-08 0)
(-1.74526e-11 -1.12289e-08 0)
(-2.88727e-09 -1.12753e-08 0)
(-1.97346e-09 -1.12197e-08 0)
(2.47203e-09 1.56535e-08 0)
(3.61678e-09 1.59635e-08 0)
(-2.26404e-11 1.60393e-08 0)
(-3.71703e-09 1.5964e-08 0)
(-2.54878e-09 1.56508e-08 0)
(3.04905e-09 -1.17535e-08 0)
(4.43987e-09 -1.17601e-08 0)
(-2.78908e-11 -1.16424e-08 0)
(-4.56337e-09 -1.17594e-08 0)
(-3.14361e-09 -1.17577e-08 0)
(3.62287e-09 2.71254e-08 0)
(5.25674e-09 2.76592e-08 0)
(-3.32194e-11 2.78214e-08 0)
(-5.40383e-09 2.76602e-08 0)
(-3.73552e-09 2.71195e-08 0)
(4.21901e-09 -6.36595e-08 0)
(6.09268e-09 -6.35943e-08 0)
(-3.86041e-11 -6.33767e-08 0)
(-6.26369e-09 -6.35928e-08 0)
(-4.35003e-09 -6.36672e-08 0)
(4.81104e-09 -1.33468e-07 0)
(6.92107e-09 -1.32734e-07 0)
(-4.40126e-11 -1.32468e-07 0)
(-7.11637e-09 -1.32732e-07 0)
(-4.9608e-09 -1.33476e-07 0)
(5.42716e-09 -1.79888e-07 0)
(7.76982e-09 -1.79595e-07 0)
(-4.94679e-11 -1.79253e-07 0)
(-7.9898e-09 -1.79592e-07 0)
(-5.596e-09 -1.79899e-07 0)
(6.04201e-09 1.02228e-06 0)
(8.6137e-09 1.02405e-06 0)
(-5.50029e-11 1.02457e-06 0)
(-8.85875e-09 1.02405e-06 0)
(-6.23028e-09 1.02225e-06 0)
(6.68993e-09 4.33052e-06 0)
(9.48821e-09 4.33279e-06 0)
(-6.06288e-11 4.33374e-06 0)
(-9.75902e-09 4.33279e-06 0)
(-6.89823e-09 4.33046e-06 0)
(7.3458e-09 2.92752e-06 0)
(1.0362e-08 2.92992e-06 0)
(-6.64547e-11 2.93095e-06 0)
(-1.06597e-08 2.92992e-06 0)
(-7.57505e-09 2.92744e-06 0)
(8.00948e-09 -2.01234e-05 0)
(1.12522e-08 -2.0128e-05 0)
(-7.20411e-11 -2.01291e-05 0)
(-1.15769e-08 -2.0128e-05 0)
(-8.26007e-09 -2.01233e-05 0)
(8.84027e-09 -0.000157428 0)
(1.23628e-08 -0.000157467 0)
(-7.87345e-11 -0.00015748 0)
(-1.2722e-08 -0.000157466 0)
(-9.11874e-09 -0.000157427 0)
(9.15241e-09 -0.00131628 0)
(1.27807e-08 -0.00131627 0)
(-8.13611e-11 -0.00131627 0)
(-1.31522e-08 -0.00131627 0)
(-9.44052e-09 -0.00131628 0)
(7.9867e-09 -0.0029768 0)
(1.11932e-08 -0.00297682 0)
(-5.07348e-11 -0.00297683 0)
(-1.14823e-08 -0.00297682 0)
(-8.22224e-09 -0.00297679 0)
(5.63487e-09 -0.00162984 0)
(8.3746e-09 -0.00162991 0)
(-2.07429e-11 -0.00162992 0)
(-8.58144e-09 -0.00162991 0)
(-5.81731e-09 -0.00162984 0)
(3.9539e-09 -0.00152475 0)
(6.26881e-09 -0.00152478 0)
(7.45206e-12 -0.00152479 0)
(-6.40036e-09 -0.00152478 0)
(-4.08845e-09 -0.00152475 0)
(2.60433e-09 -0.00156892 0)
(4.53224e-09 -0.00156894 0)
(3.39093e-11 -0.00156895 0)
(-4.59482e-09 -0.00156894 0)
(-2.6956e-09 -0.00156892 0)
(1.34083e-09 -0.00160559 0)
(2.91395e-09 -0.00160562 0)
(5.8733e-11 -0.00160563 0)
(-2.91317e-09 -0.00160562 0)
(-1.39281e-09 -0.00160559 0)
(1.38996e-10 -0.00161135 0)
(1.38836e-09 -0.00161138 0)
(8.18938e-11 -0.00161139 0)
(-1.32975e-09 -0.00161138 0)
(-1.5557e-10 -0.00161135 0)
(-9.52828e-10 -0.00160919 0)
(4.54234e-12 -0.00160922 0)
(1.03331e-10 -0.00160923 0)
(1.06231e-10 -0.00160922 0)
(9.67716e-10 -0.00160919 0)
(-1.91286e-09 -0.00160774 0)
(-1.21501e-09 -0.00160777 0)
(1.22995e-10 -0.00160778 0)
(1.37221e-09 -0.00160777 0)
(1.95524e-09 -0.00160774 0)
(-2.74189e-09 -0.0016075 0)
(-2.27079e-09 -0.00160753 0)
(1.4085e-10 -0.00160754 0)
(2.46864e-09 -0.00160753 0)
(2.8078e-09 -0.0016075 0)
(-3.44479e-09 -0.00160759 0)
(-3.1676e-09 -0.00160762 0)
(1.56874e-10 -0.00160763 0)
(3.40036e-09 -0.00160762 0)
(3.53032e-09 -0.00160759 0)
(-4.02453e-09 -0.00160765 0)
(-3.90858e-09 -0.00160768 0)
(1.71055e-10 -0.00160769 0)
(4.17054e-09 -0.00160768 0)
(4.12582e-09 -0.00160765 0)
(-4.48321e-09 -0.00160766 0)
(-4.49613e-09 -0.00160769 0)
(1.83393e-10 -0.0016077 0)
(4.78165e-09 -0.00160769 0)
(4.59648e-09 -0.00160766 0)
(-4.82332e-09 -0.00160766 0)
(-4.93325e-09 -0.00160769 0)
(1.93896e-10 -0.00160769 0)
(5.23681e-09 -0.00160769 0)
(4.94489e-09 -0.00160766 0)
(-5.04813e-09 -0.00160765 0)
(-5.22389e-09 -0.00160768 0)
(2.02588e-10 -0.00160769 0)
(5.5401e-09 -0.00160768 0)
(5.17443e-09 -0.00160765 0)
(-5.16154e-09 -0.00160765 0)
(-5.37286e-09 -0.00160768 0)
(2.095e-10 -0.00160769 0)
(5.6965e-09 -0.00160768 0)
(5.28915e-09 -0.00160765 0)
(-5.16806e-09 -0.00160765 0)
(-5.38571e-09 -0.00160768 0)
(2.14677e-10 -0.00160769 0)
(5.71178e-09 -0.00160768 0)
(5.29371e-09 -0.00160765 0)
(-5.0727e-09 -0.00160765 0)
(-5.26873e-09 -0.00160768 0)
(2.18175e-10 -0.00160769 0)
(5.59243e-09 -0.00160768 0)
(5.19329e-09 -0.00160765 0)
(-4.88101e-09 -0.00160765 0)
(-5.02888e-09 -0.00160768 0)
(2.20059e-10 -0.00160769 0)
(5.3457e-09 -0.00160768 0)
(4.99364e-09 -0.00160765 0)
(-4.59902e-09 -0.00160765 0)
(-4.67377e-09 -0.00160768 0)
(2.20407e-10 -0.00160769 0)
(4.97946e-09 -0.00160768 0)
(4.70097e-09 -0.00160765 0)
(-4.23319e-09 -0.00160765 0)
(-4.21164e-09 -0.00160768 0)
(2.19303e-10 -0.00160769 0)
(4.50228e-09 -0.00160768 0)
(4.32201e-09 -0.00160765 0)
(-3.79042e-09 -0.00160765 0)
(-3.65126e-09 -0.00160768 0)
(2.16844e-10 -0.00160769 0)
(3.92325e-09 -0.00160768 0)
(3.86385e-09 -0.00160765 0)
(-3.27795e-09 -0.00160765 0)
(-3.0019e-09 -0.00160768 0)
(2.13133e-10 -0.00160769 0)
(3.252e-09 -0.00160768 0)
(3.334e-09 -0.00160765 0)
(-2.70335e-09 -0.00160765 0)
(-2.27324e-09 -0.00160768 0)
(2.08281e-10 -0.00160769 0)
(2.49859e-09 -0.00160768 0)
(2.74026e-09 -0.00160765 0)
(-2.07441e-09 -0.00160765 0)
(-1.47534e-09 -0.00160768 0)
(2.02404e-10 -0.00160769 0)
(1.67344e-09 -0.00160768 0)
(2.09072e-09 -0.00160765 0)
(-1.39914e-09 -0.00160765 0)
(-6.18489e-10 -0.00160768 0)
(1.95624e-10 -0.00160769 0)
(7.87258e-10 -0.00160768 0)
(1.39363e-09 -0.00160765 0)
(-6.85672e-10 -0.00160765 0)
(2.86819e-10 -0.00160768 0)
(1.88067e-10 -0.00160769 0)
(-1.49073e-10 -0.00160768 0)
(6.57397e-10 -0.00160765 0)
(5.78171e-11 -0.00160765 0)
(1.23e-09 -0.00160768 0)
(1.79862e-10 -0.00160769 0)
(-1.12456e-09 -0.00160768 0)
(-1.09529e-10 -0.00160765 0)
(8.23148e-10 -0.00160765 0)
(2.20048e-09 -0.00160768 0)
(1.71137e-10 -0.00160769 0)
(-2.12823e-09 -0.00160768 0)
(-8.98701e-10 -0.00160765 0)
(1.60223e-09 -0.00160765 0)
(3.18775e-09 -0.00160768 0)
(1.62023e-10 -0.00160769 0)
(-3.14917e-09 -0.00160768 0)
(-1.70176e-09 -0.00160765 0)
(2.38711e-09 -0.00160765 0)
(4.18152e-09 -0.00160768 0)
(1.52647e-10 -0.00160769 0)
(-4.1767e-09 -0.00160768 0)
(-2.51051e-09 -0.00160765 0)
(3.17006e-09 -0.00160765 0)
(5.17174e-09 -0.00160768 0)
(1.43134e-10 -0.00160769 0)
(-5.2004e-09 -0.00160768 0)
(-3.31697e-09 -0.00160765 0)
(3.94367e-09 -0.00160765 0)
(6.14876e-09 -0.00160768 0)
(1.33605e-10 -0.00160769 0)
(-6.21024e-09 -0.00160768 0)
(-4.11347e-09 -0.00160765 0)
(4.70083e-09 -0.00160765 0)
(7.10337e-09 -0.00160768 0)
(1.24175e-10 -0.00160769 0)
(-7.19668e-09 -0.00160768 0)
(-4.89271e-09 -0.00160765 0)
(5.43489e-09 -0.00160765 0)
(8.02689e-09 -0.00160768 0)
(1.14953e-10 -0.00160769 0)
(-8.15072e-09 -0.00160768 0)
(-5.64782e-09 -0.00160765 0)
(6.13965e-09 -0.00160765 0)
(8.91128e-09 -0.00160768 0)
(1.0604e-10 -0.00160769 0)
(-9.06402e-09 -0.00160768 0)
(-6.37241e-09 -0.00160765 0)
(6.80944e-09 -0.00160765 0)
(9.74914e-09 -0.00160768 0)
(9.75268e-11 -0.00160769 0)
(-9.92893e-09 -0.00160768 0)
(-7.06065e-09 -0.00160765 0)
(7.43917e-09 -0.00160765 0)
(1.05338e-08 -0.00160768 0)
(8.94971e-11 -0.00160769 0)
(-1.07386e-08 -0.00160768 0)
(-7.70727e-09 -0.00160765 0)
(8.02432e-09 -0.00160765 0)
(1.12596e-08 -0.00160768 0)
(8.20225e-11 -0.00160769 0)
(-1.14869e-08 -0.00160768 0)
(-8.30765e-09 -0.00160765 0)
(8.56104e-09 -0.00160765 0)
(1.19212e-08 -0.00160768 0)
(7.51644e-11 -0.00160769 0)
(-1.21687e-08 -0.00160768 0)
(-8.85784e-09 -0.00160765 0)
(9.04612e-09 -0.00160766 0)
(1.25148e-08 -0.00160768 0)
(6.89728e-11 -0.00160769 0)
(-1.27798e-08 -0.00160768 0)
(-9.35452e-09 -0.00160765 0)
(9.47703e-09 -0.00160766 0)
(1.30368e-08 -0.00160768 0)
(6.34862e-11 -0.00160769 0)
(-1.33167e-08 -0.00160768 0)
(-9.79511e-09 -0.00160765 0)
(9.85188e-09 -0.00160766 0)
(1.3485e-08 -0.00160768 0)
(5.87321e-11 -0.00160769 0)
(-1.3777e-08 -0.00160768 0)
(-1.01777e-08 -0.00160765 0)
(1.01695e-08 -0.00160766 0)
(1.38579e-08 -0.00160768 0)
(5.47264e-11 -0.00160769 0)
(-1.41591e-08 -0.00160768 0)
(-1.05011e-08 -0.00160765 0)
(1.04293e-08 -0.00160766 0)
(1.41547e-08 -0.00160768 0)
(5.14743e-11 -0.00160769 0)
(-1.44624e-08 -0.00160768 0)
(-1.07647e-08 -0.00160766 0)
(1.06314e-08 -0.00160766 0)
(1.43757e-08 -0.00160768 0)
(4.89708e-11 -0.00160769 0)
(-1.4687e-08 -0.00160768 0)
(-1.09687e-08 -0.00160766 0)
(1.07766e-08 -0.00160766 0)
(1.45217e-08 -0.00160768 0)
(4.72008e-11 -0.00160769 0)
(-1.48341e-08 -0.00160768 0)
(-1.11138e-08 -0.00160766 0)
(1.08659e-08 -0.00160766 0)
(1.45946e-08 -0.00160768 0)
(4.61406e-11 -0.00160769 0)
(-1.49053e-08 -0.00160768 0)
(-1.12013e-08 -0.00160766 0)
(1.09013e-08 -0.00160766 0)
(1.45966e-08 -0.00160768 0)
(4.57582e-11 -0.00160769 0)
(-1.49033e-08 -0.00160768 0)
(-1.12331e-08 -0.00160766 0)
(1.0885e-08 -0.00160766 0)
(1.45309e-08 -0.00160768 0)
(4.60145e-11 -0.00160769 0)
(-1.48311e-08 -0.00160768 0)
(-1.12115e-08 -0.00160766 0)
(1.08196e-08 -0.00160766 0)
(1.44008e-08 -0.00160768 0)
(4.68641e-11 -0.00160769 0)
(-1.46924e-08 -0.00160768 0)
(-1.11394e-08 -0.00160766 0)
(1.07083e-08 -0.00160766 0)
(1.42106e-08 -0.00160768 0)
(4.82568e-11 -0.00160769 0)
(-1.44916e-08 -0.00160768 0)
(-1.10199e-08 -0.00160766 0)
(1.05544e-08 -0.00160766 0)
(1.39646e-08 -0.00160768 0)
(5.01377e-11 -0.00160769 0)
(-1.42331e-08 -0.00160768 0)
(-1.08566e-08 -0.00160766 0)
(1.03616e-08 -0.00160766 0)
(1.36676e-08 -0.00160768 0)
(5.24492e-11 -0.00160769 0)
(-1.39221e-08 -0.00160768 0)
(-1.06531e-08 -0.00160766 0)
(1.01337e-08 -0.00160766 0)
(1.33247e-08 -0.00160768 0)
(5.51312e-11 -0.00160769 0)
(-1.35637e-08 -0.00160768 0)
(-1.04136e-08 -0.00160766 0)
(9.87471e-09 -0.00160766 0)
(1.29411e-08 -0.00160768 0)
(5.81223e-11 -0.00160768 0)
(-1.31634e-08 -0.00160768 0)
(-1.01421e-08 -0.00160766 0)
(9.58879e-09 -0.00160766 0)
(1.25222e-08 -0.00160768 0)
(6.13603e-11 -0.00160768 0)
(-1.27268e-08 -0.00160768 0)
(-9.84288e-09 -0.00160766 0)
(9.28009e-09 -0.00160766 0)
(1.20733e-08 -0.00160768 0)
(6.47832e-11 -0.00160768 0)
(-1.22594e-08 -0.00160768 0)
(-9.52034e-09 -0.00160766 0)
(8.95279e-09 -0.00160766 0)
(1.15999e-08 -0.00160768 0)
(6.83296e-11 -0.00160768 0)
(-1.1767e-08 -0.00160768 0)
(-9.17875e-09 -0.00160766 0)
(8.61106e-09 -0.00160766 0)
(1.11074e-08 -0.00160768 0)
(7.19392e-11 -0.00160768 0)
(-1.1255e-08 -0.00160768 0)
(-8.82242e-09 -0.00160766 0)
(8.259e-09 -0.00160766 0)
(1.0601e-08 -0.00160768 0)
(7.55533e-11 -0.00160768 0)
(-1.0729e-08 -0.00160768 0)
(-8.4556e-09 -0.00160766 0)
(7.90062e-09 -0.00160766 0)
(1.00859e-08 -0.00160768 0)
(7.91147e-11 -0.00160768 0)
(-1.01943e-08 -0.00160768 0)
(-8.08242e-09 -0.00160766 0)
(7.53981e-09 -0.00160766 0)
(9.567e-09 -0.00160768 0)
(8.25689e-11 -0.00160768 0)
(-9.65605e-09 -0.00160768 0)
(-7.70689e-09 -0.00160766 0)
(7.18031e-09 -0.00160766 0)
(9.04909e-09 -0.00160768 0)
(8.58634e-11 -0.00160768 0)
(-9.11916e-09 -0.00160768 0)
(-7.33289e-09 -0.00160766 0)
(6.82569e-09 -0.00160766 0)
(8.53672e-09 -0.00160768 0)
(8.89487e-11 -0.00160768 0)
(-8.58838e-09 -0.00160768 0)
(-6.96409e-09 -0.00160766 0)
(6.47935e-09 -0.00160766 0)
(8.03421e-09 -0.00160768 0)
(9.1778e-11 -0.00160768 0)
(-8.06816e-09 -0.00160768 0)
(-6.60401e-09 -0.00160766 0)
(6.14445e-09 -0.00160766 0)
(7.5456e-09 -0.00160768 0)
(9.43084e-11 -0.00160768 0)
(-7.56271e-09 -0.00160768 0)
(-6.2559e-09 -0.00160766 0)
(5.82394e-09 -0.00160766 0)
(7.07465e-09 -0.00160768 0)
(9.65008e-11 -0.00160768 0)
(-7.07593e-09 -0.00160768 0)
(-5.92281e-09 -0.00160766 0)
(5.5205e-09 -0.00160766 0)
(6.62483e-09 -0.00160768 0)
(9.83206e-11 -0.00160768 0)
(-6.6114e-09 -0.00160768 0)
(-5.60751e-09 -0.00160766 0)
(5.23653e-09 -0.00160766 0)
(6.19926e-09 -0.00160768 0)
(9.9739e-11 -0.00160768 0)
(-6.17236e-09 -0.00160768 0)
(-5.31247e-09 -0.00160766 0)
(4.97413e-09 -0.00160766 0)
(5.80074e-09 -0.00160768 0)
(1.00733e-10 -0.00160768 0)
(-5.76169e-09 -0.00160768 0)
(-5.03986e-09 -0.00160766 0)
(4.73504e-09 -0.00160766 0)
(5.43166e-09 -0.00160768 0)
(1.01289e-10 -0.00160768 0)
(-5.38186e-09 -0.00160768 0)
(-4.79147e-09 -0.00160766 0)
(4.52064e-09 -0.00160766 0)
(5.09401e-09 -0.00160768 0)
(1.014e-10 -0.00160768 0)
(-5.03491e-09 -0.00160768 0)
(-4.56872e-09 -0.00160766 0)
(4.33189e-09 -0.00160766 0)
(4.78932e-09 -0.00160768 0)
(1.0107e-10 -0.00160768 0)
(-4.7224e-09 -0.00160768 0)
(-4.37259e-09 -0.00160766 0)
(4.16929e-09 -0.00160766 0)
(4.51866e-09 -0.00160768 0)
(1.00316e-10 -0.00160768 0)
(-4.44539e-09 -0.00160768 0)
(-4.20362e-09 -0.00160766 0)
(4.03286e-09 -0.00160766 0)
(4.28252e-09 -0.00160768 0)
(9.91669e-11 -0.00160768 0)
(-4.20435e-09 -0.00160768 0)
(-4.0618e-09 -0.00160766 0)
(3.92209e-09 -0.00160767 0)
(4.08087e-09 -0.00160768 0)
(9.76669e-11 -0.00160768 0)
(-3.99917e-09 -0.00160768 0)
(-3.94661e-09 -0.00160766 0)
(3.83589e-09 -0.00160767 0)
(3.91302e-09 -0.00160768 0)
(9.58759e-11 -0.00160768 0)
(-3.82909e-09 -0.00160768 0)
(-3.85692e-09 -0.00160766 0)
(3.77262e-09 -0.00160767 0)
(3.77769e-09 -0.00160768 0)
(9.38706e-11 -0.00160768 0)
(-3.69265e-09 -0.00160768 0)
(-3.79102e-09 -0.00160766 0)
(3.72998e-09 -0.00160767 0)
(3.67291e-09 -0.00160768 0)
(9.17451e-11 -0.00160768 0)
(-3.58773e-09 -0.00160768 0)
(-3.74653e-09 -0.00160766 0)
(3.7051e-09 -0.00160767 0)
(3.59602e-09 -0.00160768 0)
(8.96109e-11 -0.00160768 0)
(-3.51146e-09 -0.00160768 0)
(-3.72047e-09 -0.00160766 0)
(3.69446e-09 -0.00160767 0)
(3.54371e-09 -0.00160768 0)
(8.75963e-11 -0.00160768 0)
(-3.46027e-09 -0.00160768 0)
(-3.70921e-09 -0.00160766 0)
(3.69407e-09 -0.00160767 0)
(3.51213e-09 -0.00160768 0)
(8.58461e-11 -0.00160768 0)
(-3.43003e-09 -0.00160768 0)
(-3.70861e-09 -0.00160766 0)
(3.69957e-09 -0.00160767 0)
(3.49707e-09 -0.00160768 0)
(8.45218e-11 -0.00160768 0)
(-3.41619e-09 -0.00160768 0)
(-3.71416e-09 -0.00160767 0)
(3.70605e-09 -0.00160767 0)
(3.49363e-09 -0.00160768 0)
(8.37919e-11 -0.00160768 0)
(-3.41354e-09 -0.00160768 0)
(-3.72076e-09 -0.00160766 0)
)
;

boundaryField
{
    BotWall
    {
        type            fixedValue;
        value           uniform (0 0 0);
    }
    FreeStream
    {
        type            zeroGradient;
    }
    FrontNBack
    {
        type            empty;
    }
    LeftSide
    {
        type            symmetryPlane;
    }
    RightSide
    {
        type            symmetryPlane;
    }
}


// ************************************************************************* //
