/*--------------------------------*- C++ -*----------------------------------*\
| =========                 |                                                 |
| \\      /  F ield         | OpenFOAM: The Open Source CFD Toolbox           |
|  \\    /   O peration     | Version:  2.4.0                                 |
|   \\  /    A nd           | Web:      www.OpenFOAM.org                      |
|    \\/     M anipulation  |                                                 |
\*---------------------------------------------------------------------------*/
FoamFile
{
    version     2.0;
    format      ascii;
    class       volScalarField;
    location    "3";
    object      alpha1;
}
// * * * * * * * * * * * * * * * * * * * * * * * * * * * * * * * * * * * * * //

dimensions      [0 0 0 0 0 0 0];

internalField   nonuniform List<scalar> 
8000
(
1
0.999999
0.999996
0.999995
0.999996
0.999998
0.999999
1
0.999999
0.999999
0.999999
0.999999
0.999998
0.999998
0.999998
0.999998
0.999997
0.999997
0.999997
0.999996
0.999997
0.999996
0.999997
0.999997
0.999996
0.999997
0.999997
0.999738
0.996706
0.721347
0.399025
0.0950497
0.00882225
0.00481783
0.000356462
3.24509e-05
1.36534e-05
1.03526e-06
9.45924e-07
8.68124e-07
8.69093e-07
8.59188e-07
8.32734e-07
7.99446e-07
6.04639e-07
5.43834e-07
3.27956e-07
2.60077e-07
1.87792e-07
1.2802e-07
1
0.999999
0.999997
0.999997
0.999998
0.999999
0.999999
0.999999
0.999999
0.999999
0.999999
0.999999
0.999999
0.999998
0.999998
0.999998
0.999998
0.999998
0.999997
0.999997
0.999998
0.999997
0.999999
0.999997
0.999996
0.999717
0.986307
0.653386
0.245509
0.022224
0.00408632
0.0019336
4.69325e-05
1.67891e-05
2.87935e-06
1.36899e-06
1.36635e-06
1.13263e-06
1.12763e-06
1.12172e-06
1.08242e-06
1.01763e-06
9.52896e-07
1.07201e-06
6.16739e-07
6.58798e-07
3.26812e-07
2.51299e-07
1.82017e-07
1.21663e-07
1
0.999999
0.999997
0.999998
0.999999
0.999999
0.999999
0.999999
0.999999
0.999999
0.999999
0.999999
0.999999
0.999999
0.999998
0.999998
0.999998
0.999998
0.999998
0.999998
0.999998
0.999997
0.999996
0.999843
0.998258
0.631804
0.14303
0.00851439
0.00288053
0.00065816
4.06698e-05
1.48616e-05
3.37761e-06
2.68696e-06
2.67711e-06
2.09984e-06
1.93329e-06
1.70416e-06
1.54436e-06
1.41427e-06
1.29162e-06
1.15401e-06
9.98536e-07
1.27417e-06
5.80984e-07
6.88608e-07
3.04459e-07
2.30294e-07
1.65256e-07
1.10213e-07
1
0.999999
0.999997
0.999998
0.999998
0.999999
0.999999
0.999999
0.999999
0.999999
0.999999
0.999999
0.999999
0.999999
0.999999
0.999999
0.999999
0.999998
0.999998
0.999998
0.999998
0.999983
0.998832
0.716709
0.134885
0.00635914
0.000921887
0.000289154
3.23891e-05
6.67422e-06
4.15426e-06
2.81058e-06
2.84329e-06
3.46991e-06
3.01677e-06
2.77738e-06
2.62143e-06
1.79842e-06
1.62666e-06
1.35077e-06
1.12808e-06
9.29447e-07
7.42046e-07
4.43096e-07
3.59585e-07
2.02547e-07
1.58652e-07
1.10338e-07
7.05227e-08
4.13528e-08
1
0.999999
0.999997
0.999998
0.999998
0.999999
0.999999
0.999999
0.999999
0.999999
0.999999
0.999999
0.999999
0.999999
0.999999
0.999999
0.999999
0.999998
0.999998
0.999998
0.99972
0.899381
0.236836
0.00981303
0.000534694
0.000102802
2.34775e-05
5.85431e-06
4.13656e-06
3.61787e-06
3.09026e-06
2.80146e-06
1.93289e-06
3.17791e-06
1.97638e-06
1.62443e-06
1.26003e-06
1.32057e-06
8.49669e-07
5.86176e-07
4.58229e-07
3.30863e-07
2.21382e-07
1.18453e-07
7.49096e-08
4.82616e-08
2.48727e-08
1.0573e-08
4.63328e-09
1.90059e-09
1
0.999999
0.999997
0.999998
0.999999
0.999999
1
0.999999
0.999999
0.999999
0.999999
0.999999
0.999999
0.999999
0.999999
0.999999
0.999999
0.999998
0.999998
0.998938
0.555186
0.030846
0.000772856
5.29505e-05
6.88522e-06
3.74524e-06
2.95017e-06
2.82958e-06
2.59783e-06
2.26234e-06
1.91859e-06
1.61421e-06
1.26102e-06
7.31141e-07
7.81838e-07
5.45005e-07
3.72487e-07
1.85622e-07
1.76344e-07
1.03642e-07
7.42548e-08
3.9174e-08
1.9111e-08
9.3781e-09
4.53963e-09
1.95626e-09
8.39836e-10
3.7725e-10
1.95303e-10
1.21796e-10
1
0.999999
0.999998
0.999998
0.999999
0.999999
0.999999
0.999999
0.999999
0.999999
0.999999
0.999999
0.999999
0.999999
0.999999
0.999999
0.999999
0.999997
0.997359
0.267134
0.00389858
7.5463e-05
4.22667e-06
2.48136e-06
2.3096e-06
2.17887e-06
1.95762e-06
1.6938e-06
1.40315e-06
1.12183e-06
8.6778e-07
6.46651e-07
4.61637e-07
3.15025e-07
2.04895e-07
1.26322e-07
7.33964e-08
4.00402e-08
2.05449e-08
1.00259e-08
4.75081e-09
2.23922e-09
1.0734e-09
5.37057e-10
2.89757e-10
1.72683e-10
1.14093e-10
8.29167e-11
6.5711e-11
5.63098e-11
1
0.999999
0.999998
0.999998
0.999999
0.999999
0.999999
0.999999
0.999999
0.999999
0.999999
0.999999
0.999999
0.999999
0.999999
0.999999
0.999998
0.996965
0.19717
0.00127644
1.43971e-05
2.66287e-06
2.08159e-06
1.87229e-06
1.64475e-06
1.38491e-06
1.1146e-06
8.56845e-07
6.28419e-07
4.38992e-07
2.91432e-07
1.83518e-07
1.0949e-07
6.18925e-08
3.32431e-08
1.7102e-08
8.55614e-09
4.25539e-09
2.15535e-09
1.13316e-09
6.24652e-10
3.62332e-10
2.21526e-10
1.43029e-10
9.77457e-11
7.09043e-11
5.47698e-11
4.51329e-11
3.95828e-11
3.66691e-11
1
0.999999
0.999998
0.999999
0.999999
0.999999
0.999999
0.999999
0.999999
0.999999
0.999999
0.999999
0.999999
0.999999
0.999999
0.999998
0.999168
0.355219
0.00212932
1.16945e-05
2.71228e-06
1.92785e-06
1.63202e-06
1.37807e-06
1.11384e-06
8.55292e-07
6.21763e-07
4.26663e-07
2.7577e-07
1.6777e-07
9.62503e-08
5.23859e-08
2.73821e-08
1.40249e-08
7.22645e-09
3.83794e-09
2.12504e-09
1.22164e-09
7.21614e-10
4.35311e-10
2.68619e-10
1.70653e-10
1.12398e-10
7.71749e-11
5.55114e-11
4.205e-11
3.36997e-11
2.86054e-11
2.56134e-11
2.4002e-11
1
1
0.999999
0.999999
0.999999
1
0.999999
0.999999
0.999999
0.999999
0.999999
1
1
0.999999
0.999997
0.999952
0.762579
0.0117035
1.74099e-05
2.67012e-06
1.87453e-06
1.51233e-06
1.24878e-06
9.90247e-07
7.41982e-07
5.21694e-07
3.42708e-07
2.10048e-07
1.20482e-07
6.52894e-08
3.40433e-08
1.75729e-08
9.29137e-09
5.16431e-09
3.02803e-09
1.84117e-09
1.13618e-09
7.024e-10
4.34307e-10
2.70319e-10
1.70972e-10
1.10809e-10
7.40085e-11
5.11493e-11
3.6749e-11
2.76009e-11
2.18015e-11
1.81463e-11
1.58751e-11
1.45158e-11
1
1
0.999999
0.999999
0.999999
1
1
1
0.999999
1
1
1
1
0.999999
0.999998
0.99934
0.263004
0.000202227
3.52693e-06
1.9544e-06
1.50682e-06
1.24184e-06
1.00829e-06
7.77186e-07
5.60129e-07
3.74663e-07
2.32257e-07
1.34036e-07
7.28407e-08
3.80531e-08
1.97221e-08
1.05346e-08
5.97006e-09
3.59778e-09
2.25432e-09
1.4286e-09
8.99552e-10
5.601e-10
3.46437e-10
2.14844e-10
1.34875e-10
8.6327e-11
5.65688e-11
3.80565e-11
2.63802e-11
1.89514e-11
1.41855e-11
1.11197e-11
9.14409e-12
7.87521e-12
1
1
0.999999
0.999999
1
1
1
1
1
1
1
1
1
0.999999
0.999992
0.864928
0.00915631
3.8562e-06
2.16848e-06
1.51002e-06
1.26041e-06
1.05846e-06
8.51878e-07
6.42664e-07
4.49156e-07
2.89548e-07
1.72643e-07
9.61919e-08
5.10562e-08
2.66107e-08
1.4177e-08
8.01364e-09
4.86909e-09
3.12158e-09
2.0442e-09
1.3324e-09
8.53692e-10
5.37066e-10
3.33699e-10
2.06614e-10
1.28597e-10
8.09628e-11
5.17208e-11
3.35542e-11
2.2119e-11
1.48435e-11
1.01794e-11
7.17159e-12
5.21854e-12
3.93896e-12
1
1
1
1
1
1
1
1
1
1
1
1
1
1
0.999834
0.40032
0.00010191
2.35427e-06
1.6283e-06
1.31772e-06
1.13367e-06
9.57619e-07
7.68699e-07
5.74659e-07
3.95397e-07
2.49588e-07
1.45389e-07
7.93857e-08
4.17311e-08
2.1952e-08
1.20866e-08
7.19361e-09
4.62272e-09
3.11158e-09
2.11778e-09
1.42326e-09
9.34892e-10
5.99911e-10
3.78012e-10
2.35722e-10
1.4664e-10
9.15868e-11
5.76421e-11
3.65943e-11
2.34192e-11
1.50943e-11
9.79714e-12
6.4118e-12
4.24126e-12
2.84373e-12
1
1
1
1
1
1
1
1
1
1
1
1
1
0.999999
0.995237
0.0252328
1.98141e-06
1.77415e-06
1.36671e-06
1.17078e-06
1.01378e-06
8.5257e-07
6.79657e-07
5.04304e-07
3.44246e-07
2.15517e-07
1.24631e-07
6.78351e-08
3.58777e-08
1.92728e-08
1.10169e-08
6.87959e-09
4.64255e-09
3.26714e-09
2.31482e-09
1.61506e-09
1.09913e-09
7.2876e-10
4.72446e-10
3.01246e-10
1.90174e-10
1.19572e-10
7.52068e-11
4.74284e-11
3.00001e-11
1.90138e-11
1.20557e-11
7.63595e-12
4.82739e-12
3.04549e-12
1
1
1
1
1
1
1
1
0.999999
0.999999
0.999999
1
1
0.999946
0.469048
4.59387e-05
1.96642e-06
1.46177e-06
1.23651e-06
1.07954e-06
9.34577e-07
7.82946e-07
6.22292e-07
4.61341e-07
3.15279e-07
1.97912e-07
1.14932e-07
6.29862e-08
3.37093e-08
1.84634e-08
1.08522e-08
7.01137e-09
4.9103e-09
3.592e-09
2.64961e-09
1.9276e-09
1.36907e-09
9.46996e-10
6.39129e-10
4.22552e-10
2.74994e-10
1.77011e-10
1.13163e-10
7.20668e-11
4.57946e-11
2.90462e-11
1.83759e-11
1.15792e-11
7.25482e-12
4.51156e-12
1
1
1
1
1
1
1
1
0.999999
0.999998
0.999998
0.999998
1
0.99791
0.021807
2.38309e-06
1.51803e-06
1.26787e-06
1.10817e-06
9.71081e-07
8.35117e-07
6.93222e-07
5.46822e-07
4.0404e-07
2.76737e-07
1.75137e-07
1.03129e-07
5.76235e-08
3.16048e-08
1.78133e-08
1.0797e-08
7.19793e-09
5.20853e-09
3.94987e-09
3.0342e-09
2.30921e-09
1.72213e-09
1.25386e-09
8.9159e-10
6.20648e-10
4.24317e-10
2.85869e-10
1.90381e-10
1.25652e-10
8.23373e-11
5.36252e-11
3.47229e-11
2.23452e-11
1.42788e-11
9.04879e-12
1
1
1
1
1
1
1
0.999999
0.999998
0.999997
0.999997
0.999997
0.999888
0.255753
4.07022e-06
1.52361e-06
1.28081e-06
1.10958e-06
9.69475e-07
8.38611e-07
7.07662e-07
5.75074e-07
4.44664e-07
3.23603e-07
2.19953e-07
1.39447e-07
8.31331e-08
4.75505e-08
2.69791e-08
1.58535e-08
1.00418e-08
6.97328e-09
5.23235e-09
4.10756e-09
3.27188e-09
2.59128e-09
2.01906e-09
1.54143e-09
1.15253e-09
8.45171e-10
6.09218e-10
4.32708e-10
3.03539e-10
2.10714e-10
1.44978e-10
9.89688e-11
6.70706e-11
4.51288e-11
3.01397e-11
1.99673e-11
1
1
1
1
1
1
0.999999
0.999999
0.999997
0.999997
0.999985
0.999387
0.436242
2.90129e-06
1.43389e-06
1.27227e-06
1.12984e-06
9.88579e-07
8.49516e-07
7.15721e-07
5.89106e-07
4.68886e-07
3.562e-07
2.55985e-07
1.73374e-07
1.10759e-07
6.73518e-08
3.97619e-08
2.35035e-08
1.44482e-08
9.54838e-09
6.87196e-09
5.31734e-09
4.30392e-09
3.54791e-09
2.92363e-09
2.38335e-09
1.91313e-09
1.51028e-09
1.17323e-09
8.98149e-10
6.78762e-10
5.07285e-10
3.75517e-10
2.75686e-10
2.00923e-10
1.45467e-10
1.04658e-10
7.48339e-11
5.31714e-11
1
1
1
1
1
0.999999
0.999996
0.999998
0.999992
0.999842
0.796552
0.0239873
0.0122325
7.14136e-07
8.01103e-07
7.73647e-07
6.47074e-07
5.86619e-07
4.99932e-07
4.08294e-07
3.2435e-07
2.48809e-07
1.83068e-07
1.28763e-07
8.66331e-08
5.60665e-08
3.53677e-08
2.22352e-08
1.43434e-08
9.76739e-09
7.13668e-09
5.57944e-09
4.58572e-09
3.87673e-09
3.31049e-09
2.82146e-09
2.38396e-09
1.99084e-09
1.64176e-09
1.33747e-09
1.07741e-09
8.59274e-10
6.79328e-10
5.32992e-10
4.15412e-10
3.21883e-10
2.48105e-10
1.90313e-10
1.45314e-10
1.10457e-10
1
1
1
1
0.999999
0.999993
0.999951
0.999914
0.744279
0.0473252
0.028992
8.69791e-05
0.000101526
7.07338e-07
6.64893e-07
5.62456e-07
5.01852e-07
4.23986e-07
3.49358e-07
2.80958e-07
2.20129e-07
1.66994e-07
1.22125e-07
8.60436e-08
5.86045e-08
3.88989e-08
2.55298e-08
1.6918e-08
1.15949e-08
8.38524e-09
6.45314e-09
5.25574e-09
4.46322e-09
3.88562e-09
3.41951e-09
3.01272e-09
2.64202e-09
2.29936e-09
1.98366e-09
1.69621e-09
1.43834e-09
1.21047e-09
1.01188e-09
8.40933e-10
6.95315e-10
5.7237e-10
4.69331e-10
3.83507e-10
3.12386e-10
2.53706e-10
7.94358e-08
4.31721e-08
1.91659e-08
6.71815e-09
2.3875e-09
1.22846e-09
7.44331e-10
4.83399e-10
3.39209e-10
2.58972e-10
2.15346e-10
1.94163e-10
1.87655e-10
1.91618e-10
2.03879e-10
2.23464e-10
2.50202e-10
2.84645e-10
3.27933e-10
3.8169e-10
4.47916e-10
5.28822e-10
6.26646e-10
7.43444e-10
8.8089e-10
1.04012e-09
1.22162e-09
1.42524e-09
1.65027e-09
1.89559e-09
2.15995e-09
2.44222e-09
2.74165e-09
3.0582e-09
3.39267e-09
3.7469e-09
4.12381e-09
4.52743e-09
4.96277e-09
5.43576e-09
5.95304e-09
6.52177e-09
7.14939e-09
7.84338e-09
8.61108e-09
9.45941e-09
1.03947e-08
1.14226e-08
1.2548e-08
1.37747e-08
7.31688e-08
3.81712e-08
1.60168e-08
4.79657e-09
1.22647e-09
5.24878e-10
3.26324e-10
2.32311e-10
1.84462e-10
1.61982e-10
1.5443e-10
1.5669e-10
1.66282e-10
1.82115e-10
2.03979e-10
2.3233e-10
2.68193e-10
3.13062e-10
3.68768e-10
4.373e-10
5.20597e-10
6.20309e-10
7.37584e-10
8.72907e-10
1.02602e-09
1.19596e-09
1.38119e-09
1.57982e-09
1.78991e-09
2.00982e-09
2.23843e-09
2.47544e-09
2.72155e-09
2.97845e-09
3.24891e-09
3.5366e-09
3.84602e-09
4.18223e-09
4.55068e-09
4.957e-09
5.40673e-09
5.90522e-09
6.4574e-09
7.06769e-09
7.73998e-09
8.47756e-09
9.28321e-09
1.01593e-08
1.1108e-08
1.21314e-08
6.63244e-08
3.48203e-08
1.49794e-08
4.73981e-09
1.11372e-09
3.42254e-10
2.02536e-10
1.56465e-10
1.37005e-10
1.32015e-10
1.35939e-10
1.46327e-10
1.6229e-10
1.83864e-10
2.11751e-10
2.47159e-10
2.91636e-10
3.46874e-10
4.14477e-10
4.95711e-10
5.91281e-10
7.01168e-10
8.24576e-10
9.59981e-10
1.10532e-09
1.25826e-09
1.41654e-09
1.57827e-09
1.74228e-09
1.90828e-09
2.07696e-09
2.25007e-09
2.43022e-09
2.6208e-09
2.82576e-09
3.04934e-09
3.29589e-09
3.56965e-09
3.87459e-09
4.21429e-09
4.59188e-09
5.01002e-09
5.47091e-09
5.97643e-09
6.52825e-09
7.12799e-09
7.77745e-09
8.47887e-09
9.2351e-09
1.005e-08
2.14024e-08
9.22709e-09
2.71698e-09
5.56483e-10
2.04176e-10
1.44225e-10
1.1925e-10
1.10961e-10
1.1188e-10
1.18768e-10
1.30396e-10
1.46605e-10
1.67909e-10
1.95295e-10
2.30038e-10
2.73506e-10
3.26929e-10
3.91166e-10
4.66496e-10
5.5248e-10
6.47929e-10
7.50999e-10
8.59399e-10
9.70691e-10
1.08262e-09
1.19346e-09
1.30222e-09
1.40884e-09
1.51424e-09
1.62019e-09
1.72922e-09
1.84441e-09
1.9691e-09
2.10672e-09
2.26058e-09
2.43371e-09
2.62875e-09
2.84794e-09
3.09307e-09
3.36557e-09
3.66661e-09
3.99719e-09
4.35835e-09
4.75128e-09
5.17755e-09
5.63923e-09
6.1391e-09
6.68083e-09
7.26911e-09
7.90998e-09
6.90365e-10
2.67268e-10
1.43772e-10
1.05964e-10
9.19235e-11
8.77835e-11
8.9319e-11
9.47501e-11
1.03447e-10
1.15461e-10
1.31314e-10
1.51853e-10
1.78109e-10
2.11128e-10
2.51772e-10
3.00524e-10
3.57313e-10
4.21423e-10
4.91486e-10
5.65603e-10
6.41565e-10
7.17138e-10
7.90381e-10
8.59913e-10
9.25121e-10
9.86241e-10
1.04434e-09
1.1012e-09
1.15912e-09
1.22072e-09
1.28869e-09
1.36563e-09
1.45388e-09
1.55542e-09
1.67185e-09
1.8044e-09
1.95394e-09
2.12111e-09
2.30642e-09
2.51033e-09
2.73344e-09
2.97654e-09
3.2408e-09
3.52779e-09
3.83964e-09
4.17909e-09
4.5496e-09
4.95551e-09
5.40226e-09
5.89669e-09
8.98005e-11
7.5045e-11
6.86539e-11
6.702e-11
6.8484e-11
7.22789e-11
7.81776e-11
8.63429e-11
9.72361e-11
1.11529e-10
1.29999e-10
1.53393e-10
1.82277e-10
2.16878e-10
2.56955e-10
3.01731e-10
3.49912e-10
3.99803e-10
4.49507e-10
4.97184e-10
5.41311e-10
5.80898e-10
6.15636e-10
6.4593e-10
6.72846e-10
6.97971e-10
7.23229e-10
7.50677e-10
7.82324e-10
8.19982e-10
8.65172e-10
9.19074e-10
9.82536e-10
1.05611e-09
1.14011e-09
1.2347e-09
1.34e-09
1.45615e-09
1.58338e-09
1.72213e-09
1.87305e-09
2.0371e-09
2.21556e-09
2.41007e-09
2.6227e-09
2.85608e-09
3.11347e-09
3.39903e-09
3.71808e-09
4.07754e-09
5.16083e-11
4.99047e-11
5.02386e-11
5.21145e-11
5.53738e-11
6.01221e-11
6.66718e-11
7.548e-11
8.70727e-11
1.0195e-10
1.20475e-10
1.4276e-10
1.68571e-10
1.97279e-10
2.27869e-10
2.59034e-10
2.89329e-10
3.17368e-10
3.42023e-10
3.62596e-10
3.78915e-10
3.91354e-10
4.00777e-10
4.08408e-10
4.1568e-10
4.24071e-10
4.3496e-10
4.49524e-10
4.68681e-10
4.93073e-10
5.23089e-10
5.58911e-10
6.00574e-10
6.48029e-10
7.01208e-10
7.60071e-10
8.24655e-10
8.95105e-10
9.71695e-10
1.05485e-09
1.14517e-09
1.24342e-09
1.35062e-09
1.46805e-09
1.59733e-09
1.74057e-09
1.90049e-09
2.08063e-09
2.28558e-09
2.52133e-09
3.55043e-11
3.55729e-11
3.66316e-11
3.86478e-11
4.17503e-11
4.61827e-11
5.22525e-11
6.02695e-11
7.0475e-11
8.29656e-11
9.76251e-11
1.1408e-10
1.31696e-10
1.49622e-10
1.66891e-10
1.82544e-10
1.9577e-10
2.06035e-10
2.13156e-10
2.17326e-10
2.19081e-10
2.19211e-10
2.18655e-10
2.18374e-10
2.19256e-10
2.22034e-10
2.27254e-10
2.35263e-10
2.46235e-10
2.60208e-10
2.77131e-10
2.9691e-10
3.19441e-10
3.44644e-10
3.72479e-10
4.02954e-10
4.3613e-10
4.72128e-10
5.11128e-10
5.53378e-10
5.99216e-10
6.4909e-10
7.03601e-10
7.63554e-10
8.30031e-10
9.04475e-10
9.88794e-10
1.08549e-09
1.19779e-09
1.32983e-09
2.33424e-11
2.34168e-11
2.41629e-11
2.56301e-11
2.79405e-11
3.12497e-11
3.57049e-11
4.14002e-11
4.83323e-11
5.63639e-11
6.52057e-11
7.44243e-11
8.34806e-11
9.17951e-11
9.88294e-11
1.04167e-10
1.0758e-10
1.09057e-10
1.08809e-10
1.07225e-10
1.04813e-10
1.02126e-10
9.9692e-11
9.79606e-11
9.72696e-11
9.78356e-11
9.97654e-11
1.03079e-10
1.07741e-10
1.13684e-10
1.2084e-10
1.29147e-10
1.3856e-10
1.4905e-10
1.60599e-10
1.73201e-10
1.86853e-10
2.01561e-10
2.17351e-10
2.34282e-10
2.52466e-10
2.72105e-10
2.93518e-10
3.17188e-10
3.43806e-10
3.74323e-10
4.10008e-10
4.52515e-10
5.03946e-10
5.66933e-10
1.3793e-11
1.35688e-11
1.37994e-11
1.45014e-11
1.57223e-11
1.75149e-11
1.99115e-11
2.29e-11
2.64059e-11
3.02822e-11
3.43127e-11
3.823e-11
4.17468e-11
4.45961e-11
4.65713e-11
4.75578e-11
4.75503e-11
4.66506e-11
4.50489e-11
4.29913e-11
4.07435e-11
3.85554e-11
3.6635e-11
3.51335e-11
3.4143e-11
3.37032e-11
3.3815e-11
3.44552e-11
3.55898e-11
3.71837e-11
3.9205e-11
4.16254e-11
4.44178e-11
4.75525e-11
5.0995e-11
5.4706e-11
5.86445e-11
6.27751e-11
6.70797e-11
7.15716e-11
7.63129e-11
8.14336e-11
8.71523e-11
9.37986e-11
1.01836e-10
1.11885e-10
1.24753e-10
1.41456e-10
1.63248e-10
1.91645e-10
7.0801e-12
6.62729e-12
6.45171e-12
6.52857e-12
6.85307e-12
7.42449e-12
8.2453e-12
9.2936e-12
1.05214e-11
1.18545e-11
1.31964e-11
1.44369e-11
1.54661e-11
1.61896e-11
1.65429e-11
1.65007e-11
1.60804e-11
1.53373e-11
1.43548e-11
1.32308e-11
1.20636e-11
1.09399e-11
9.9268e-12
9.06902e-12
8.38952e-12
7.89369e-12
7.57457e-12
7.41814e-12
7.40732e-12
7.5245e-12
7.75247e-12
8.0743e-12
8.47277e-12
8.92998e-12
9.42771e-12
9.94873e-12
1.04791e-11
1.10113e-11
1.15482e-11
1.21068e-11
1.27222e-11
1.34514e-11
1.43769e-11
1.561e-11
1.72945e-11
1.96114e-11
2.27839e-11
2.70839e-11
3.28393e-11
4.04404e-11
3.09317e-12
2.53352e-12
2.17182e-12
1.95754e-12
1.86336e-12
1.87516e-12
1.97275e-12
2.14278e-12
2.37055e-12
2.63603e-12
2.91392e-12
3.17528e-12
3.39063e-12
3.53373e-12
3.58538e-12
3.53626e-12
3.39588e-12
3.17613e-12
2.89594e-12
2.57821e-12
2.24645e-12
1.92169e-12
1.62043e-12
1.3536e-12
1.12662e-12
9.40144e-13
7.91389e-13
6.7543e-13
5.86437e-13
5.18598e-13
4.66717e-13
4.26513e-13
3.94679e-13
3.68804e-13
3.47209e-13
3.28771e-13
3.12749e-13
2.98654e-13
2.86142e-13
2.74952e-13
2.6486e-13
2.55666e-13
2.47182e-13
2.39235e-13
2.31673e-13
2.24365e-13
2.17208e-13
2.10126e-13
2.03071e-13
1.96015e-13
1.93753e-12
1.34353e-12
9.48652e-13
6.81951e-13
4.98881e-13
3.71038e-13
2.79737e-13
2.12563e-13
1.6103e-13
1.19513e-13
8.46988e-14
5.51867e-14
3.10445e-14
1.32562e-14
3.11401e-15
1.64738e-15
9.07735e-16
4.93034e-16
2.64974e-16
1.41488e-16
7.53689e-17
4.02002e-17
2.15347e-17
1.16101e-17
6.30656e-18
3.45225e-18
1.9088e-18
1.066e-18
6.0117e-19
3.42425e-19
1.97146e-19
1.14904e-19
6.79774e-20
4.1e-20
2.53856e-20
1.63009e-20
1.1003e-20
7.92244e-21
6.15287e-21
5.16555e-21
4.64877e-21
4.41667e-21
4.35715e-21
4.4017e-21
4.50794e-21
4.64932e-21
4.80894e-21
4.97592e-21
5.14316e-21
5.30601e-21
1.91796e-12
1.20637e-12
7.58078e-13
4.75804e-13
2.97979e-13
1.85853e-13
1.15114e-13
7.05134e-14
4.24626e-14
2.49204e-14
1.40787e-14
7.53215e-15
3.74479e-15
1.71e-15
7.39989e-16
3.42885e-16
1.52566e-16
6.5001e-17
2.6435e-17
1.02092e-17
3.71138e-18
1.25075e-18
3.80061e-19
9.92262e-20
2.18928e-20
7.55279e-21
3.29537e-21
1.84385e-21
1.41174e-21
1.36045e-21
1.4614e-21
1.63248e-21
1.84404e-21
2.08522e-21
2.35185e-21
2.64201e-21
2.95446e-21
3.28781e-21
3.64046e-21
4.01051e-21
4.39581e-21
4.79393e-21
5.20227e-21
5.61809e-21
6.03858e-21
6.46091e-21
6.8823e-21
7.30008e-21
7.71169e-21
8.1148e-21
2.78013e-12
1.69512e-12
1.02126e-12
6.07116e-13
3.55592e-13
2.04834e-13
1.15795e-13
6.40745e-14
3.45974e-14
1.81629e-14
9.23279e-15
4.52544e-15
2.13131e-15
9.63142e-16
4.18531e-16
1.75504e-16
7.03974e-17
2.69762e-17
9.86512e-18
3.44046e-18
1.1445e-18
3.64144e-19
1.11769e-19
3.38018e-20
1.05761e-20
3.78665e-21
1.76072e-21
1.2157e-21
1.13744e-21
1.21826e-21
1.3678e-21
1.56123e-21
1.79306e-21
2.06326e-21
2.3731e-21
2.72386e-21
3.11641e-21
3.55128e-21
4.02843e-21
4.54726e-21
5.10661e-21
5.70478e-21
6.33956e-21
7.00834e-21
7.70813e-21
8.43573e-21
9.18776e-21
9.96083e-21
1.07499e-20
1.15503e-20
5.67834e-12
3.52249e-12
2.15622e-12
1.29994e-12
7.70344e-13
4.47797e-13
2.54796e-13
1.41607e-13
7.6704e-14
4.04099e-14
2.06653e-14
1.02406e-14
4.91043e-15
2.27593e-15
1.01892e-15
4.40424e-16
1.83753e-16
7.40144e-17
2.87951e-17
1.08274e-17
3.93811e-18
1.38688e-18
4.73602e-19
1.57273e-19
5.11732e-20
1.66935e-20
5.83587e-21
2.53115e-21
1.57488e-21
1.34012e-21
1.33709e-21
1.42529e-21
1.56801e-21
1.75867e-21
1.99935e-21
2.29473e-21
2.65036e-21
3.07201e-21
3.56537e-21
4.13576e-21
4.78782e-21
5.52527e-21
6.35062e-21
7.26498e-21
8.26788e-21
9.3572e-21
1.05291e-20
1.17782e-20
1.30996e-20
1.4487e-20
1.311e-11
8.52141e-12
5.47634e-12
3.47486e-12
2.17376e-12
1.33862e-12
8.10227e-13
4.81286e-13
2.80162e-13
1.59593e-13
8.88475e-14
4.82797e-14
2.55781e-14
1.31971e-14
6.6241e-15
3.23114e-15
1.53001e-15
7.02516e-16
3.12426e-16
1.34417e-16
5.58809e-17
2.24222e-17
8.67449e-18
3.23301e-18
1.16052e-18
4.01679e-19
1.34741e-19
4.45306e-20
1.52043e-20
5.99368e-21
3.16894e-21
2.30731e-21
2.04651e-21
1.98602e-21
2.01475e-21
2.1056e-21
2.25558e-21
2.46915e-21
2.75377e-21
3.11876e-21
3.57494e-21
4.13447e-21
4.81067e-21
5.61771e-21
6.57021e-21
7.68278e-21
8.96939e-21
1.04427e-20
1.21134e-20
1.39892e-20
3.7529e-11
2.62995e-11
1.82872e-11
1.26082e-11
8.61224e-12
5.82312e-12
3.89379e-12
2.57244e-12
1.67739e-12
1.0784e-12
6.82801e-13
4.25273e-13
2.60233e-13
1.56247e-13
9.19242e-14
5.2918e-14
2.97654e-14
1.63354e-14
8.73444e-15
4.54382e-15
2.29668e-15
1.12646e-15
5.35476e-16
2.46426e-16
1.09677e-16
4.71672e-17
1.95865e-17
7.85038e-18
3.0375e-18
1.13616e-18
4.12618e-19
1.47197e-19
5.31332e-20
2.07477e-20
9.77329e-21
6.00656e-21
4.62577e-21
4.05066e-21
3.77891e-21
3.6553e-21
3.63438e-21
3.70598e-21
3.87256e-21
4.14242e-21
4.52782e-21
5.04454e-21
5.71187e-21
6.55278e-21
7.59406e-21
8.86639e-21
8.35837e-11
6.29574e-11
4.71941e-11
3.51997e-11
2.6114e-11
1.92641e-11
1.41257e-11
1.02917e-11
7.4473e-12
5.34996e-12
3.81355e-12
2.6959e-12
1.88894e-12
1.31097e-12
9.00559e-13
6.11826e-13
4.10725e-13
2.72176e-13
1.77847e-13
1.1445e-13
7.24433e-14
4.50386e-14
2.74628e-14
1.63991e-14
9.57522e-15
5.45832e-15
3.03314e-15
1.64063e-15
8.62563e-16
4.40203e-16
2.17796e-16
1.04349e-16
4.83652e-17
2.16701e-17
9.38248e-18
3.92724e-18
1.59246e-18
6.29165e-19
2.45664e-19
9.79125e-20
4.24316e-20
2.17991e-20
1.39447e-20
1.07066e-20
9.16968e-21
8.32128e-21
7.81621e-21
7.53886e-21
7.45364e-21
7.55546e-21
2.05469e-10
1.65945e-10
1.33656e-10
1.07349e-10
8.59715e-11
6.86448e-11
5.46373e-11
4.33432e-11
3.42619e-11
2.6981e-11
2.11615e-11
1.65253e-11
1.2845e-11
9.93449e-12
7.64235e-12
5.84528e-12
4.44325e-12
3.35523e-12
2.51577e-12
1.87215e-12
1.38203e-12
1.01153e-12
7.33659e-13
5.27005e-13
3.74689e-13
2.63487e-13
1.8312e-13
1.25659e-13
8.50481e-14
5.67015e-14
3.71837e-14
2.39457e-14
1.51159e-14
9.3352e-15
5.62864e-15
3.30634e-15
1.88804e-15
1.04579e-15
5.60669e-16
2.90315e-16
1.4489e-16
6.95625e-17
3.20741e-17
1.41874e-17
6.02148e-18
2.45997e-18
9.77225e-19
3.87342e-19
1.61892e-19
7.78474e-20
1.5106e-08
1.58867e-08
1.67045e-08
1.75604e-08
1.84551e-08
1.93897e-08
2.03651e-08
2.13827e-08
2.24438e-08
2.355e-08
2.47033e-08
2.59061e-08
2.71612e-08
2.84721e-08
2.98431e-08
3.1279e-08
3.27858e-08
3.43706e-08
3.60415e-08
3.78081e-08
3.96814e-08
4.1674e-08
4.38e-08
4.60753e-08
4.85176e-08
5.11462e-08
5.39822e-08
5.70479e-08
6.03673e-08
6.39652e-08
6.78667e-08
7.20969e-08
7.66797e-08
8.16371e-08
8.69879e-08
9.27466e-08
9.89223e-08
1.05517e-07
1.12525e-07
1.19928e-07
1.27694e-07
1.35769e-07
1.44072e-07
1.5249e-07
1.60865e-07
1.69005e-07
1.7668e-07
1.83651e-07
1.89699e-07
1.94666e-07
1.98498e-07
2.0128e-07
2.03252e-07
2.04789e-07
2.0635e-07
2.08399e-07
2.11292e-07
2.15148e-07
2.19778e-07
2.24316e-07
2.25927e-07
2.32939e-07
9.24799e-07
5.84261e-06
1.50601e-05
1.80267e-05
6.786e-07
3.48393e-07
3.47769e-07
4.12943e-07
2.24483e-07
2.2965e-07
2.3125e-07
2.28031e-07
2.20016e-07
3.6703e-07
1.77306e-07
2.01919e-07
2.07623e-07
2.42501e-07
1.83563e-06
5.47694e-06
6.57401e-06
3.71923e-07
2.54251e-07
2.5239e-07
2.59244e-07
2.68017e-07
2.74704e-07
6.32523e-07
9.5564e-07
3.40008e-07
1.04966e-06
2.64536e-06
6.12243e-06
6.77861e-06
6.79968e-06
3.11509e-06
3.94121e-07
2.69668e-07
2.66798e-07
2.69683e-07
2.73101e-07
2.74969e-07
3.47523e-07
1.39133e-06
2.62851e-06
5.48924e-07
2.63831e-07
2.70778e-07
2.81709e-07
1.1391e-06
3.69865e-06
9.32894e-06
1.1025e-05
1.10106e-05
4.77878e-06
6.57573e-07
4.16173e-07
2.62807e-06
1.27315e-05
1.92265e-05
1.84578e-05
4.30288e-06
3.00366e-07
2.44758e-07
2.42658e-07
2.41143e-07
2.39691e-07
2.37021e-07
2.30898e-07
2.24517e-07
2.1662e-07
2.17146e-07
1.11536e-06
2.92921e-06
2.89018e-06
3.28786e-07
2.10891e-06
6.28869e-06
6.01805e-06
9.84722e-07
1.15738e-06
6.10504e-06
9.75364e-06
1.01789e-06
3.06643e-07
3.0726e-07
3.78957e-07
3.81598e-07
6.29828e-07
5.91431e-06
2.15889e-05
2.97665e-05
1.19152e-05
8.26173e-07
2.90891e-07
2.90892e-07
2.91145e-07
2.95552e-07
6.49529e-07
1.03526e-06
3.51755e-07
2.94091e-07
7.71828e-07
1.02957e-06
9.41194e-07
2.59699e-07
2.54931e-07
2.54905e-07
2.54059e-07
2.52471e-07
2.51383e-07
2.50741e-07
2.50426e-07
2.50324e-07
2.50339e-07
2.50405e-07
2.50491e-07
2.50581e-07
2.50689e-07
2.56898e-07
1.1255e-06
2.79852e-06
1.31823e-06
2.98824e-07
2.21651e-07
2.1646e-07
2.12233e-07
2.08537e-07
2.06002e-07
2.0745e-07
2.21884e-07
4.6932e-07
2.25436e-07
1.60203e-07
1.60756e-07
1.57124e-07
1.52147e-07
1.46884e-07
1.41736e-07
1.36857e-07
1.32306e-07
1.28099e-07
1.24242e-07
1.20732e-07
1.17565e-07
1.1474e-07
1.12264e-07
1.1013e-07
1.08338e-07
1.0689e-07
1.0579e-07
1.05048e-07
1.04671e-07
1.04673e-07
1.05071e-07
1.05882e-07
1.0713e-07
1.08844e-07
1.11058e-07
1.13809e-07
1.1714e-07
1.21098e-07
1.25733e-07
1.31091e-07
1.3721e-07
1.44122e-07
1.51846e-07
1.60377e-07
1.69706e-07
1.79821e-07
1.90679e-07
2.02217e-07
2.14355e-07
2.27004e-07
2.40058e-07
2.5339e-07
2.6683e-07
2.80158e-07
2.93094e-07
3.05307e-07
3.16442e-07
3.26164e-07
3.34155e-07
3.39937e-07
3.41704e-07
3.40015e-07
3.41535e-07
3.48863e-07
3.70463e-07
3.51984e-07
3.54553e-07
6.63061e-07
7.35516e-07
6.14619e-07
4.03753e-07
4.06428e-07
4.08757e-07
9.23057e-07
2.31911e-06
1.57702e-06
5.04861e-07
5.08724e-07
5.16851e-07
5.37993e-07
5.45402e-07
5.48622e-07
5.50027e-07
6.01865e-07
2.51237e-06
4.35652e-06
4.35529e-06
2.33394e-06
9.18154e-07
9.18911e-07
1.06595e-06
8.34025e-07
7.26131e-07
7.49185e-07
7.60492e-07
7.28208e-07
6.94577e-07
6.69213e-07
6.71195e-07
1.63746e-06
3.17516e-06
3.17113e-06
1.39624e-06
5.11122e-07
5.2408e-07
4.61974e-07
2.94375e-07
1.82573e-07
1.05156e-07
5.23218e-08
2.11804e-08
6.51934e-09
1.36315e-09
1.47171e-10
1.3232e-08
1.38714e-08
1.45393e-08
1.52371e-08
1.59663e-08
1.67287e-08
1.75265e-08
1.83622e-08
1.9239e-08
2.01604e-08
2.11308e-08
2.21551e-08
2.32394e-08
2.43905e-08
2.56163e-08
2.69261e-08
2.83303e-08
2.98406e-08
3.14701e-08
3.32334e-08
3.51462e-08
3.72254e-08
3.94889e-08
4.19555e-08
4.46441e-08
4.75741e-08
5.07642e-08
5.42323e-08
5.79951e-08
6.20671e-08
6.64607e-08
7.1185e-08
7.62458e-08
8.16443e-08
8.73772e-08
9.34354e-08
9.98031e-08
1.06457e-07
1.13364e-07
1.20477e-07
1.27732e-07
1.35045e-07
1.423e-07
1.49356e-07
1.56046e-07
1.62199e-07
1.67665e-07
1.72353e-07
1.76269e-07
1.79543e-07
1.8243e-07
1.85286e-07
1.88516e-07
1.9248e-07
1.97377e-07
2.03091e-07
2.09001e-07
2.13967e-07
2.17137e-07
2.19298e-07
2.46127e-07
2.34917e-07
9.11239e-07
4.61888e-06
9.08055e-06
1.75993e-06
3.50508e-07
3.51594e-07
7.35519e-07
3.30666e-07
2.23386e-07
2.12576e-07
2.01927e-07
1.92941e-07
1.86179e-07
3.62435e-07
1.76206e-07
1.91564e-07
1.94005e-07
1.89457e-07
7.6227e-07
1.99301e-06
1.61481e-06
2.26633e-07
2.27822e-07
2.35898e-07
2.4912e-07
2.57059e-07
4.21853e-07
1.26161e-06
3.14802e-06
7.28193e-06
8.19567e-06
8.22639e-06
7.72811e-06
1.98353e-06
2.9746e-07
2.36567e-07
2.35921e-07
2.4114e-07
2.51827e-07
2.67119e-07
2.72659e-07
5.9536e-07
1.54918e-06
1.60881e-06
1.18812e-06
4.9106e-07
6.18897e-07
2.66233e-06
8.12404e-06
1.73952e-05
1.72347e-05
1.64782e-05
4.04092e-06
4.47053e-07
2.95502e-07
2.97814e-07
4.31555e-07
4.63238e-06
1.59717e-05
1.92247e-05
1.71273e-05
2.80702e-06
2.63657e-07
2.53151e-07
2.50801e-07
2.5227e-07
2.57113e-07
2.66324e-07
3.35645e-07
2.18653e-07
2.17849e-07
2.07174e-07
2.25771e-07
8.94637e-07
1.51027e-06
2.92273e-07
2.75884e-07
2.79619e-07
7.78516e-07
5.29463e-06
1.62446e-05
1.93907e-05
1.35464e-05
1.62631e-06
3.39081e-07
3.29135e-07
1.38103e-06
2.56675e-06
5.25714e-06
1.65157e-05
2.97673e-05
2.9526e-05
1.45582e-05
9.61793e-07
2.93152e-07
2.93177e-07
6.04373e-07
1.52174e-06
1.51906e-06
9.70385e-07
2.90558e-07
2.9056e-07
2.90706e-07
2.90876e-07
3.01959e-07
6.74156e-07
4.71329e-07
2.54759e-07
2.54481e-07
2.62467e-07
2.65667e-07
2.685e-07
2.70756e-07
2.7218e-07
2.72563e-07
2.71804e-07
2.69974e-07
2.67443e-07
2.65196e-07
2.65016e-07
2.67804e-07
5.414e-07
1.49541e-06
1.49702e-06
1.23479e-06
2.41541e-07
2.29541e-07
2.19865e-07
2.13897e-07
2.08685e-07
3.17752e-07
1.30775e-06
2.13359e-06
2.62947e-07
1.92073e-07
2.10771e-07
2.17149e-07
2.16782e-07
2.13395e-07
2.08948e-07
2.04869e-07
2.02086e-07
2.00445e-07
1.99327e-07
1.94475e-07
1.91642e-07
1.89522e-07
1.873e-07
1.84946e-07
1.82732e-07
1.80896e-07
1.79377e-07
1.78096e-07
1.77007e-07
1.76034e-07
1.75129e-07
1.74253e-07
1.73397e-07
1.72602e-07
1.71915e-07
1.70737e-07
1.69498e-07
1.69677e-07
1.70989e-07
1.72649e-07
1.74364e-07
1.77296e-07
1.76621e-07
1.74379e-07
1.73721e-07
1.74572e-07
1.76513e-07
1.78971e-07
1.82015e-07
1.86096e-07
1.91528e-07
1.98206e-07
2.06024e-07
2.14911e-07
2.24814e-07
2.35682e-07
2.47466e-07
2.60118e-07
2.736e-07
2.87884e-07
3.02958e-07
3.18814e-07
3.35437e-07
3.52757e-07
3.70601e-07
3.88353e-07
4.05279e-07
4.2155e-07
4.36041e-07
4.48564e-07
4.59141e-07
4.67801e-07
4.73373e-07
4.79086e-07
4.90361e-07
5.02424e-07
5.13864e-07
5.25572e-07
5.38975e-07
5.55962e-07
5.7679e-07
5.99512e-07
6.18251e-07
6.23886e-07
6.23617e-07
6.15662e-07
6.1503e-07
1.74377e-06
2.90537e-06
2.90558e-06
1.40329e-06
7.24199e-07
7.24208e-07
7.28546e-07
7.13396e-07
6.9039e-07
6.72617e-07
6.68908e-07
6.71182e-07
6.79452e-07
6.86735e-07
6.88911e-07
1.58609e-06
3.79073e-06
1.74396e-06
4.11815e-07
3.4095e-07
2.48877e-07
1.51409e-07
7.29818e-08
2.62665e-08
6.33737e-09
7.84279e-10
1.09286e-08
1.14417e-08
1.1981e-08
1.25487e-08
1.31475e-08
1.37804e-08