/*--------------------------------*- C++ -*----------------------------------*\
| =========                 |                                                 |
| \\      /  F ield         | OpenFOAM: The Open Source CFD Toolbox           |
|  \\    /   O peration     | Version:  2.4.0                                 |
|   \\  /    A nd           | Web:      www.OpenFOAM.org                      |
|    \\/     M anipulation  |                                                 |
\*---------------------------------------------------------------------------*/
FoamFile
{
    version     2.0;
    format      ascii;
    class       volScalarField;
    location    "3";
    object      H;
}
// * * * * * * * * * * * * * * * * * * * * * * * * * * * * * * * * * * * * * //

dimensions      [0 2 -2 0 0 0 0];

internalField   nonuniform List<scalar> 
8000
(
-11936.4
-11353.4
-10781.6
-10226.8
-9693.35
-9184.18
-8700.78
-8243.4
-7811.14
-7402.13
-7013.71
-6642.55
-6284.88
-5936.61
-5593.58
-5251.67
-4906.98
-4556
-4195.76
-3823.97
-3439.09
-3040.55
-2628.74
-2205.18
-1772.19
-1333.02
-889.85
-445.67
-4.39798
-0.0973535
-1.798
-1.91588
-1.51357
-1.27699
-1.02589
-0.865547
-0.734936
-0.623118
-0.527834
-0.448717
-0.384082
-0.331747
-0.289455
-0.255191
-0.227234
-0.204164
-0.184834
-0.16834
-0.153983
-0.141232
-11958.1
-11417.6
-10886.2
-10368.3
-9867.05
-9384.36
-8920.81
-8475.83
-8047.86
-7634.51
-7232.67
-6838.76
-6448.87
-6059.01
-5665.21
-5263.82
-4851.59
-4425.93
-3984.95
-3527.69
-3054.18
-2565.75
-2064.99
-1555.46
-1037.97
-513.918
-4.79748
-0.0906338
-0.00335644
-0.0710701
-0.145183
-0.205024
-0.248074
-0.289538
-0.291838
-0.281433
-0.266417
-0.249565
-0.234741
-0.221798
-0.210458
-0.200388
-0.191252
-0.182738
-0.174568
-0.166546
-0.158502
-0.150326
-0.141956
-0.133381
-11975.3
-11468.2
-10967.4
-10476
-9995.74
-9527.46
-9070.79
-8624.42
-8186.15
-7753.12
-7321.94
-6888.89
-6450.17
-6002.09
-5541.27
-5064.91
-4570.9
-4058.06
-3526.19
-2976.25
-2410.35
-1832.98
-1248.85
-656.095
-20.5973
-0.290565
-0.0699864
-0.0574276
-0.0750011
-0.0966225
-0.117061
-0.135674
-0.151083
-0.164602
-0.174504
-0.181457
-0.187008
-0.191703
-0.195354
-0.197788
-0.198861
-0.198471
-0.196566
-0.193142
-0.188239
-0.181954
-0.174413
-0.165783
-0.156252
-0.146027
-11986.6
-11501.1
-11018.8
-10541.1
-10068.6
-9600.8
-9136.6
-8673.94
-8210.13
-7741.96
-7265.91
-6778.42
-6276.11
-5756.05
-5215.95
-4654.46
-4071.26
-3467.21
-2844.26
-2205.66
-1557.02
-908.142
-256.265
-2.91359
-0.099385
-0.129287
-0.157125
-0.184796
-0.207956
-0.227314
-0.243646
-0.256841
-0.268095
-0.277374
-0.284194
-0.288658
-0.290827
-0.290742
-0.288461
-0.284048
-0.277594
-0.269224
-0.259097
-0.247411
-0.234395
-0.220302
-0.205402
-0.18997
-0.17428
-0.158592
-11992.3
-11517
-11041.9
-10566.7
-10090.6
-9612.09
-9129.09
-8638.9
-8138.42
-7624.31
-7093.23
-6542.1
-5968.34
-5370.18
-4746.85
-4098.87
-3428.05
-2737.5
-2030.94
-1313.1
-597.721
-5.87952
-0.181703
-0.292417
-0.369706
-0.446899
-0.506487
-0.547398
-0.573492
-0.58693
-0.589848
-0.584313
-0.572244
-0.555361
-0.53493
-0.512045
-0.487476
-0.461777
-0.435321
-0.408382
-0.381163
-0.353833
-0.326563
-0.299591
-0.273191
-0.247566
-0.222914
-0.199418
-0.177234
-0.156489
-11992.8
-11517.4
-11039.4
-10556.8
-10067.3
-9568.5
-9057.35
-8530.63
-7985.01
-7417.21
-6824.29
-6203.93
-5554.67
-4876.24
-4169.84
-3438.51
-2687.35
-1923.84
-1157.78
-399.955
-5.39127
-4.70154
-3.31529
-2.72027
-2.24687
-1.86327
-1.56449
-1.33989
-1.17436
-1.05254
-0.9609
-0.888701
-0.828175
-0.774138
-0.723474
-0.674466
-0.626364
-0.578971
-0.532401
-0.486906
-0.442793
-0.400366
-0.359899
-0.321624
-0.285722
-0.252324
-0.221507
-0.193302
-0.167694
-0.144626
-11988
-11502.1
-11010.6
-10510
-9996.85
-9467.68
-8918.86
-8346.89
-7748.49
-7120.84
-6461.86
-5770.47
-5047.01
-4293.65
-3514.66
-2715.39
-1897.16
-1042.56
-81.2608
-1.91752
-2.35088
-2.73889
-2.94263
-2.94849
-2.83348
-2.65139
-2.43737
-2.21388
-1.99466
-1.78761
-1.59667
-1.42329
-1.26733
-1.1278
-1.00324
-0.892014
-0.792553
-0.703394
-0.623262
-0.551078
-0.485953
-0.427161
-0.374113
-0.326326
-0.283393
-0.244959
-0.210702
-0.180321
-0.153527
-0.130034
-11978.3
-11472.1
-10957.6
-10430
-9884.77
-9317.79
-8725.15
-8103.44
-7449.91
-6762.63
-6040.85
-5285.28
-4498.67
-3686.13
-2854.02
-2003.19
-1106.89
-50.863
-1.498
-2.42597
-3.26586
-3.6768
-3.78246
-3.70143
-3.51142
-3.26293
-2.98847
-2.70861
-2.43598
-2.17794
-1.93837
-1.7189
-1.51972
-1.34015
-1.17902
-1.03491
-0.906346
-0.791846
-0.690028
-0.599618
-0.519466
-0.448538
-0.385914
-0.330768
-0.282359
-0.240015
-0.203124
-0.171125
-0.143501
-0.119773
-11964.9
-11431.2
-10887.4
-10327.7
-9747.07
-9140.85
-8505.31
-7837.48
-7135.4
-6398.21
-5626.39
-4822.1
-3990
-3138.46
-2280.07
-1428.31
-584.576
-10.767
-7.91678
-6.90924
-6.26211
-5.67124
-5.12828
-4.62838
-4.16818
-3.74508
-3.35687
-3.00154
-2.67714
-2.38176
-2.11351
-1.87054
-1.65101
-1.45316
-1.27529
-1.11577
-0.973102
-0.845837
-0.732643
-0.632274
-0.543573
-0.465463
-0.396941
-0.337074
-0.284994
-0.239892
-0.201018
-0.167676
-0.139223
-0.115068
-11949.3
-11384.1
-10808
-10214.8
-9599.1
-8956.42
-8283.32
-7577.44
-6837.62
-6063.79
-5256.91
-4418.81
-3552.75
-2665.32
-1770.01
-890.737
-9.72907
-8.10833
-6.65386
-6.19415
-5.73888
-5.29425
-4.86443
-4.45211
-4.05942
-3.6879
-3.33855
-3.01187
-2.70793
-2.42643
-2.1668
-1.92825
-1.70988
-1.51069
-1.32964
-1.16569
-1.01778
-0.884884
-0.765996
-0.66012
-0.566283
-0.483533
-0.410938
-0.347592
-0.292621
-0.245181
-0.204462
-0.169701
-0.140189
-0.115272
-11932.5
-11333.7
-10724
-10097.1
-9447.75
-8771.83
-8066.31
-7329.53
-6561.28
-5763
-4938.08
-4092.24
-3233.86
-2373.88
-1523.39
-685.92
-15.8778
-11.1454
-9.92897
-8.88692
-7.95376
-7.1157
-6.3626
-5.68576
-5.07717
-4.52956
-4.03643
-3.59207
-3.19144
-2.83013
-2.50431
-2.21061
-1.94609
-1.70816
-1.4945
-1.30307
-1.132
-0.979611
-0.844322
-0.724679
-0.619312
-0.526929
-0.446306
-0.376289
-0.315784
-0.263767
-0.219286
-0.181458
-0.149462
-0.122545
-11914.5
-11279.8
-10634.5
-9972.6
-9289.32
-8580.9
-7844.82
-7079.69
-6285.07
-5461.03
-4607.86
-3726.2
-2818.55
-1892.19
-962.609
-9.73937
-8.0689
-6.91221
-6.5975
-6.26133
-5.91022
-5.54761
-5.17821
-4.8071
-4.43917
-4.07874
-3.72944
-3.39413
-3.07497
-2.77345
-2.49055
-2.22676
-1.98223
-1.75683
-1.55016
-1.36169
-1.19072
-1.03645
-0.897988
-0.774397
-0.66468
-0.567819
-0.482783
-0.408544
-0.344092
-0.28845
-0.240678
-0.199888
-0.165249
-0.135992
-11895.3
-11222.5
-10539.6
-9841.18
-9122.71
-8380.92
-7613.88
-6821.15
-6003.91
-5165.13
-4309.76
-3444.99
-2580.42
-1728.2
-903.835
-15.28
-10.8985
-9.97955
-9.16974
-8.42109
-7.72166
-7.06507
-6.44826
-5.86975
-5.32868
-4.82421
-4.35538
-3.92099
-3.51971
-3.15005
-2.81049
-2.49946
-2.21541
-1.9568
-1.72213
-1.50995
-1.31881
-1.14732
-0.994105
-0.857814
-0.737129
-0.630763
-0.537465
-0.456025
-0.385284
-0.324139
-0.271547
-0.226533
-0.188194
-0.155696
-11875.1
-11162.1
-10440.1
-9704.32
-8950.91
-8177.36
-7382.36
-6565.77
-5728.33
-4871.03
-3994.09
-3094.52
-2159.74
-1152.37
-10.6925
-1.41079
-3.7861
-6.05061
-7.63094
-8.50453
-8.7826
-8.62659
-8.19091
-7.59809
-6.93496
-6.25818
-5.60206
-4.98557
-4.41775
-3.90148
-3.43606
-3.01884
-2.64627
-2.31448
-2.01963
-1.75809
-1.52654
-1.32192
-1.1415
-0.98278
-0.843529
-0.721706
-0.615458
-0.523098
-0.443087
-0.374022
-0.314626
-0.263736
-0.220301
-0.183372
-11852.2
-11093.7
-10326.8
-9546.97
-8750.8
-7936.07
-7101.87
-6248.77
-5379.14
-4497.47
-3610.73
-2727.93
-1858.05
-1008.36
-15.224
-11.4546
-11.3755
-11.1672
-10.8301
-10.3801
-9.83543
-9.21875
-8.55478
-7.86769
-7.17885
-6.50556
-5.86072
-5.25309
-4.6879
-4.16759
-3.69254
-3.26164
-2.87287
-2.52363
-2.21105
-1.93218
-1.6841
-1.46403
-1.26932
-1.09751
-0.946317
-0.813646
-0.697559
-0.596286
-0.508207
-0.43184
-0.365842
-0.308988
-0.260174
-0.218401
-11827.2
-11019.3
-10204.8
-9380.48
-8543.66
-7692.79
-6827.25
-5947.59
-5056.21
-4158.86
-3265.45
-2383.24
-1483.85
-425.713
-53.6736
-43.4907
-40.6778
-36.9918
-32.9001
-28.7616
-24.8186
-21.2139
-18.0144
-15.2354
-12.8591
-10.8497
-9.16315
-7.75375
-6.57816
-5.59732
-4.77735
-4.0896
-3.51029
-3.01998
-2.60292
-2.24645
-1.94038
-1.67657
-1.44843
-1.25065
-1.07889
-0.929566
-0.799704
-0.686791
-0.588686
-0.503547
-0.429773
-0.365963
-0.310886
-0.263453
-11794.3
-10921
-10042.2
-9155.31
-8258.97
-7353.23
-6439.74
-5521.82
-4604.57
-3694.8
-2800.85
-1931.12
-1095.35
-26.1948
-19.4681
-19.0599
-18.6192
-18.0295
-17.2432
-16.2647
-15.1317
-13.8978
-12.6191
-11.3458
-10.1176
-8.96289
-7.89907
-6.93458
-6.07097
-5.30494
-4.63013
-4.03851
-3.52137
-3.07008
-2.67649
-2.33316
-2.03349
-1.77171
-1.54282
-1.34253
-1.16717
-1.01359
-0.879085
-0.761333
-0.658313
-0.568267
-0.489656
-0.421127
-0.361484
-0.309667
-11748.2
-10781.8
-9808.41
-8826.05
-7834.67
-6835.82
-5832.67
-4829.96
-3834.32
-2851.85
-1883.39
-916.35
-14.6479
-10.982
-11.0102
-11.0292
-10.994
-10.8738
-10.6521
-10.3256
-9.90129
-9.39443
-8.82464
-8.21324
-7.58093
-6.9461
-6.32394
-5.72614
-5.16093
-4.63352
-4.1466
-3.70087
-3.29559
-2.92905
-2.5989
-2.30248
-2.03701
-1.79971
-1.58794
-1.39921
-1.23121
-1.08185
-0.949226
-0.831601
-0.727418
-0.635271
-0.553889
-0.482128
-0.418953
-0.363431
-11673.8
-10556.4
-9425.69
-8276.25
-7104.15
-5906.23
-4680.72
-3431.19
-2180.33
-1006.39
-10.7104
-1.99005
-4.20162
-4.82591
-5.77045
-6.45528
-6.90107
-7.14081
-7.2098
-7.14117
-6.96449
-6.70565
-6.38711
-6.02806
-5.64466
-5.25016
-4.85509
-4.46756
-4.09351
-3.73706
-3.40085
-3.08633
-2.79406
-2.52395
-2.2754
-2.04756
-1.83934
-1.64956
-1.47699
-1.3204
-1.1786
-1.05042
-0.934752
-0.830562
-0.736867
-0.652751
-0.577362
-0.509907
-0.449652
-0.395919
-11565
-10225.1
-8857.65
-7448.74
-5988.79
-4478.71
-2946.93
-1463.6
-16.2211
-1.76303
-3.87541
-3.80439
-4.34953
-4.79812
-5.16282
-5.42151
-5.57861
-5.64543
-5.63449
-5.5575
-5.42512
-5.24735
-5.03372
-4.79331
-4.53456
-4.26502
-3.99119
-3.71839
-3.45083
-3.19166
-2.94313
-2.70675
-2.48342
-2.27357
-2.07729
-1.89442
-1.72461
-1.56741
-1.42227
-1.28857
-1.16569
-1.05299
-0.949837
-0.855589
-0.769634
-0.691378
-0.62025
-0.555706
-0.497229
-0.444331
-0.129694
-0.119087
-0.109212
-0.0999445
-0.0912019
-0.0829343
-0.0751167
-0.067747
-0.0608326
-0.0543822
-0.0484041
-0.0429038
-0.0378825
-0.0333359
-0.0292548
-0.0256244
-0.0224257
-0.0196358
-0.0172288
-0.0151772
-0.0134521
-0.0120245
-0.0108659
-0.00994872
-0.00924701
-0.00873661
-0.00839547
-0.00820375
-0.0081439
-0.00820059
-0.00836068
-0.00861304
-0.00894843
-0.00935932
-0.00983973
-0.0103851
-0.0109919
-0.0116579
-0.0123815
-0.0131623
-0.014
-0.0148953
-0.0158494
-0.0168636
-0.0179399
-0.0190803
-0.0202875
-0.0215641
-0.0229129
-0.0243372
-0.124625
-0.115743
-0.106811
-0.0979166
-0.089171
-0.0806762
-0.0725201
-0.06478
-0.0575175
-0.0507778
-0.04459
-0.0389684
-0.0339141
-0.0294164
-0.0254554
-0.0220038
-0.0190288
-0.016494
-0.0143612
-0.0125915
-0.0111468
-0.00999037
-0.00908788
-0.00840757
-0.00792067
-0.00760154
-0.0074276
-0.00737931
-0.00743998
-0.00759556
-0.00783437
-0.00814692
-0.00852559
-0.00896444
-0.00945895
-0.0100058
-0.0106028
-0.0112485
-0.0119424
-0.0126843
-0.0134749
-0.014315
-0.015206
-0.0161495
-0.0171474
-0.0182018
-0.0193152
-0.0204899
-0.0217288
-0.0230347
-0.135321
-0.124351
-0.113322
-0.102428
-0.0918374
-0.0816895
-0.0721152
-0.0632433
-0.0551181
-0.0477602
-0.0411694
-0.0353282
-0.0302054
-0.0257593
-0.0219411
-0.0186974
-0.0159731
-0.0137127
-0.0118627
-0.0103722
-0.00919395
-0.00828495
-0.00760661
-0.00712488
-0.00681008
-0.00663674
-0.00658327
-0.00663158
-0.00676677
-0.00697668
-0.00725158
-0.0075838
-0.00796742
-0.00839803
-0.0088724
-0.00938837
-0.00994459
-0.0105404
-0.0111758
-0.0118511
-0.0125671
-0.0133249
-0.0141258
-0.0149714
-0.0158636
-0.0168043
-0.0177955
-0.0188394
-0.0199386
-0.0210954
-0.143146
-0.128151
-0.113786
-0.100302
-0.0878036
-0.0763482
-0.0659631
-0.0566472
-0.0483757
-0.0411049
-0.0347763
-0.0293215
-0.0246655
-0.0207308
-0.0174396
-0.0147162
-0.0124889
-0.0106909
-0.00926135
-0.0081454
-0.00729463
-0.00666672
-0.0062252
-0.00593902
-0.00578207
-0.00573265
-0.00577293
-0.00588846
-0.00606764
-0.00630135
-0.00658248
-0.00690563
-0.0072668
-0.00766314
-0.00809271
-0.00855433
-0.00904742
-0.0095719
-0.0101281
-0.0107166
-0.0113382
-0.0119942
-0.0126857
-0.0134143
-0.0141814
-0.0149887
-0.015838
-0.0167312
-0.0176703
-0.0186572
-0.137274
-0.119643
-0.103618
-0.0891856
-0.0763048
-0.064911
-0.0549205
-0.0462363
-0.0387523
-0.0323578
-0.0269413
-0.0223933
-0.0186088
-0.0154893
-0.0129434
-0.0108884
-0.00925001
-0.00796241
-0.00696827
-0.00621804
-0.00566944
-0.00528681
-0.00504033
-0.00490539
-0.00486186
-0.00489346
-0.00498715
-0.00513267
-0.00532197
-0.00554892
-0.00580886
-0.00609841
-0.00641513
-0.00675741
-0.00712426
-0.00751518
-0.00793007
-0.00836917
-0.00883294
-0.00932206
-0.00983737
-0.0103799
-0.0109506
-0.0115508
-0.0121817
-0.0128447
-0.0135413
-0.0142728
-0.0150409
-0.0158471
-0.12401
-0.105727
-0.0896379
-0.0755867
-0.0634081
-0.0529319
-0.0439878
-0.0364093
-0.0300366
-0.024719
-0.0203167
-0.0167018
-0.0137589
-0.0113848
-0.00948877
-0.0079916
-0.00682497
-0.00593052
-0.00525892
-0.00476885
-0.00442605
-0.00420232
-0.00407475
-0.00402484
-0.00403779
-0.00410194
-0.00420815
-0.00434935
-0.00452016
-0.00471656
-0.0049356
-0.00517518
-0.00543389
-0.00571082
-0.0060055
-0.00631779
-0.00664778
-0.00699578
-0.00736225
-0.00774777
-0.00815304
-0.00857884
-0.00902601
-0.00949546
-0.00998814
-0.0105051
-0.0110473
-0.011616
-0.0122121
-0.012837
-0.109564
-0.0918402
-0.0765954
-0.0635696
-0.0525145
-0.0431955
-0.0353938
-0.0289075
-0.0235528
-0.0191641
-0.0155937
-0.0127116
-0.0104042
-0.0085734
-0.00713517
-0.00601826
-0.00516276
-0.00451874
-0.00404494
-0.00370755
-0.00347913
-0.00333752
-0.00326506
-0.00324773
-0.00327455
-0.00333696
-0.0034284
-0.00354385
-0.00367957
-0.00383281
-0.00400156
-0.00418446
-0.00438059
-0.00458939
-0.0048106
-0.00504416
-0.00529019
-0.00554893
-0.00582072
-0.00610598
-0.00640521
-0.00671894
-0.00704775
-0.00739227
-0.00775313
-0.00813103
-0.00852665
-0.00894072
-0.00937399
-0.00982721
-0.0994991
-0.0822724
-0.0677178
-0.0554924
-0.0452847
-0.0368133
-0.0298264
-0.0241001
-0.0194372
-0.0156654
-0.0126352
-0.0102185
-0.0083057
-0.00680444
-0.00563715
-0.0047393
-0.00405763
-0.0035485
-0.00317642
-0.00291278
-0.00273463
-0.00262376
-0.00256579
-0.00254948
-0.00256609
-0.0026089
-0.0026728
-0.00275392
-0.00284939
-0.00295709
-0.00307552
-0.00320361
-0.00334067
-0.00348625
-0.00364012
-0.0038022
-0.00397253
-0.00415123
-0.00433852
-0.00453462
-0.00473984
-0.00495449
-0.00517892
-0.0054135
-0.00565862
-0.00591467
-0.00618205
-0.00646121
-0.00675255
-0.00705653
-0.0946706
-0.0775396
-0.0632307
-0.0513454
-0.0415287
-0.0334667
-0.0268838
-0.0215401
-0.0172279
-0.0137693
-0.0110126
-0.00882959
-0.00711284
-0.00577269
-0.00473503
-0.003939
-0.00333496
-0.0028827
-0.00254986
-0.00231061
-0.00214444
-0.00203517
-0.00197015
-0.00193954
-0.00193574
-0.00195295
-0.00198673
-0.00203376
-0.00209156
-0.00215828
-0.00223261
-0.0023136
-0.00240059
-0.00249315
-0.002591
-0.00269401
-0.00280211
-0.00291533
-0.00303373
-0.00315742
-0.00328654
-0.00342123
-0.00356169
-0.00370809
-0.00386062
-0.00401951
-0.00418494
-0.00435714
-0.00453633
-0.00472273
-0.0943489
-0.0768777
-0.0623689
-0.0503864
-0.0405445
-0.0325052
-0.0259741
-0.0206974
-0.0164576
-0.01307
-0.0103785
-0.00825244
-0.00658315
-0.00528075
-0.00427146
-0.00349509
-0.00290286
-0.00245551
-0.00212157
-0.00187605
-0.00169918
-0.00157542
-0.00149265
-0.00144146
-0.00141458
-0.00140647
-0.00141287
-0.0014306
-0.00145725
-0.00149103
-0.00153063
-0.00157508
-0.0016237
-0.001676
-0.00173165
-0.00179042
-0.0018522
-0.00191689
-0.00198448
-0.00205498
-0.00212842
-0.00220484
-0.00228432
-0.00236693
-0.00245274
-0.00254185
-0.00263433
-0.0027303
-0.00282982
-0.00293302
-0.100025
-0.0812842
-0.0657722
-0.0530012
-0.0425429
-0.0340238
-0.027119
-0.02155
-0.0170804
-0.013511
-0.0106747
-0.00843241
-0.00666892
-0.00528939
-0.0042162
-0.00338618
-0.00274824
-0.00226127
-0.00189241
-0.00161553
-0.00140997
-0.0012595
-0.00115143
-0.00107588
-0.00102524
-0.000993625
-0.00097656
-0.000970631
-0.000973261
-0.000982509
-0.000996929
-0.00101545
-0.00103727
-0.00106182
-0.00108869
-0.00111757
-0.00114826
-0.00118061
-0.00121454
-0.00124999
-0.00128691
-0.00132531
-0.00136518
-0.00140653
-0.00144938
-0.00149375
-0.00153967
-0.00158717
-0.00163627
-0.001687
-0.111412
-0.0908686
-0.0737883
-0.0596596
-0.0480314
-0.0385089
-0.0307515
-0.0244651
-0.0193974
-0.0153331
-0.0120904
-0.00951647
-0.00748374
-0.00588663
-0.00463824
-0.00366746
-0.00291604
-0.00233717
-0.00189346
-0.00155521
-0.0012989
-0.00110602
-0.000962061
-0.000855694
-0.000778124
-0.000722549
-0.000683736
-0.000657675
-0.000641308
-0.000632315
-0.000628945
-0.000629879
-0.000634132
-0.00064097
-0.000649849
-0.000660367
-0.000672232
-0.000685228
-0.000699202
-0.000714042
-0.000729671
-0.000746033
-0.000763092
-0.000780821
-0.000799206
-0.000818236
-0.000837908
-0.00085822
-0.000879172
-0.000900767
-0.128283
-0.105267
-0.0860345
-0.0700378
-0.0567935
-0.045878
-0.0369221
-0.029607
-0.0236585
-0.0188425
-0.0149604
-0.0118446
-0.00935461
-0.00737329
-0.00580346
-0.00456503
-0.00359273
-0.0028331
-0.00224251
-0.00178557
-0.00143379
-0.00116431
-0.000958956
-0.000803291
-0.000685961
-0.000598061
-0.000532631
-0.000484306
-0.00044898
-0.000423518
-0.000405533
-0.000393217
-0.0003852
-0.000380451
-0.000378192
-0.000377843
-0.000378968
-0.000381243
-0.000384428
-0.000388343
-0.000392857
-0.000397871
-0.000403313
-0.00040913
-0.000415282
-0.00042174
-0.000428482
-0.000435491
-0.000442755
-0.000450265
-0.152097
-0.125713
-0.103543
-0.0849869
-0.0695154
-0.0566663
-0.0460366
-0.0372768
-0.0300858
-0.0242052
-0.0194145
-0.0155265
-0.0123829
-0.00985078
-0.00781868
-0.00619386
-0.00489944
-0.00387195
-0.00305926
-0.00241873
-0.00191565
-0.00152191
-0.00121479
-0.00097609
-0.000791215
-0.000648561
-0.000538941
-0.000455061
-0.000391154
-0.000342676
-0.00030607
-0.000278561
-0.000257997
-0.000242715
-0.000231436
-0.000223179
-0.000217197
-0.000212948
-0.000210025
-0.000208121
-0.000207005
-0.000206505
-0.000206489
-0.000206859
-0.000207541
-0.000208478
-0.000209627
-0.000210957
-0.000212443
-0.000214065
-0.182773
-0.152489
-0.126834
-0.105174
-0.0869489
-0.0716654
-0.0588919
-0.0482523
-0.0394196
-0.0321114
-0.0260847
-0.021131
-0.0170728
-0.0137587
-0.0110611
-0.00887229
-0.00710178
-0.00567406
-0.00452624
-0.00360617
-0.0028708
-0.00228468
-0.0018188
-0.00144947
-0.0011574
-0.000926986
-0.00074562
-0.000603162
-0.000491482
-0.000404087
-0.00033581
-0.000282549
-0.000241062
-0.000208794
-0.000183735
-0.000164312
-0.000149293
-0.000137689
-0.000128728
-0.000121808
-0.000116462
-0.000112326
-0.00010912
-0.000106628
-0.000104682
-0.000103154
-0.000101945
-0.000100977
-0.000100204
-9.95947e-05
-0.222704
-0.187783
-0.157936
-0.132495
-0.110868
-0.0925338
-0.0770354
-0.0639706
-0.0529884
-0.0437827
-0.0360879
-0.029674
-0.0243427
-0.0199234
-0.0162701
-0.0132583
-0.0107819
-0.0087511
-0.00709001
-0.00573474
-0.00463172
-0.00373614
-0.00301067
-0.0024243
-0.00195136
-0.00157068
-0.00126482
-0.00101951
-0.000823061
-0.00066596
-0.000540471
-0.000440324
-0.000360454
-0.000296781
-0.000246023
-0.000205548
-0.000173252
-0.000147457
-0.000126823
-0.00011029
-9.70123e-05
-8.63247e-05
-7.76992e-05
-7.07198e-05
-6.50581e-05
-6.04553e-05
-5.67077e-05
-5.36542e-05
-5.11541e-05
-4.90922e-05
-0.264736
-0.225855
-0.192282
-0.163353
-0.138484
-0.117152
-0.098897
-0.0833111
-0.0700351
-0.058753
-0.0491878
-0.041097
-0.0342693
-0.0285206
-0.0236915
-0.019644
-0.0162591
-0.0134347
-0.0110829
-0.00912878
-0.00750851
-0.00616771
-0.00506034
-0.00414748
-0.00339631
-0.00277926
-0.00227318
-0.00185876
-0.00151985
-0.00124304
-0.00101721
-0.000833126
-0.00068319
-0.000561129
-0.000461792
-0.000380953
-0.000315151
-0.000261564
-0.000217887
-0.000182246
-0.000153119
-0.000129271
-0.000109702
-9.36018e-05
-8.0317e-05
-6.93191e-05
-6.01817e-05
-5.25607e-05
-4.61786e-05
-4.08113e-05
-0.314722
-0.272067
-0.234781
-0.202251
-0.173923
-0.149302
-0.127944
-0.109451
-0.0934717
-0.0796896
-0.0678259
-0.057633
-0.0488923
-0.0414111
-0.0350199
-0.02957
-0.0249313
-0.0209902
-0.0176478
-0.014818
-0.0124264
-0.0104086
-0.00870877
-0.00727922
-0.00607878
-0.00507223
-0.00422944
-0.00352472
-0.00293619
-0.00244527
-0.00203621
-0.00169569
-0.00141246
-0.00117705
-0.000981499
-0.000819119
-0.000684315
-0.000572404
-0.000479483
-0.000402296
-0.000338136
-0.000284756
-0.000240291
-0.000203198
-0.000172199
-0.000146241
-0.000124451
-0.000106114
-9.06374e-05
-7.75342e-05
-0.348083
-0.305567
-0.267843
-0.234427
-0.204877
-0.178788
-0.155794
-0.13556
-0.117785
-0.102195
-0.0885446
-0.0766108
-0.0661947
-0.0571178
-0.0492205
-0.04236
-0.0364096
-0.0312564
-0.0268003
-0.0229528
-0.0196357
-0.0167799
-0.0143248
-0.0122171
-0.0104101
-0.00886302
-0.00754008
-0.00641025
-0.00544649
-0.00462534
-0.00392644
-0.0033322
-0.00282744
-0.00239904
-0.00203574
-0.00172786
-0.0014671
-0.00124634
-0.0010595
-0.000901404
-0.000767629
-0.000654415
-0.000558568
-0.000477379
-0.000408553
-0.000350149
-0.000300527
-0.000258304
-0.000222315
-0.000191577
-0.396552
-0.353461
-0.314655
-0.279759
-0.248424
-0.220326
-0.195166
-0.172669
-0.152579
-0.134664
-0.118711
-0.104523
-0.091923
-0.0807472
-0.0708482
-0.0620917
-0.054356
-0.047531
-0.0415174
-0.0362255
-0.0315748
-0.0274927
-0.0239142
-0.0207812
-0.0180416
-0.0156489
-0.0135618
-0.0117434
-0.0101609
-0.00878542
-0.00759112
-0.00655532
-0.00565794
-0.00488129
-0.00420978
-0.00362974
-0.00312915
-0.00269748
-0.00232553
-0.00200525
-0.00172963
-0.00149256
-0.00128872
-0.00111349
-0.000962888
-0.000833433
-0.000722136
-0.000626413
-0.000544036
-0.000473088
-0.0255407
-0.0264044
-0.0272952
-0.0282143
-0.029163
-0.0301426
-0.0311544
-0.0321997
-0.0332799
-0.0343963
-0.0355505
-0.0367438
-0.0379777
-0.0392538
-0.0405735
-0.0419385
-0.0433504
-0.0448109
-0.0463216
-0.0478844
-0.049501
-0.0511733
-0.0529031
-0.0546925
-0.0565434
-0.0584579
-0.060438
-0.0624859
-0.0646039
-0.0667942
-0.0690591
-0.071401
-0.0738222
-0.0763254
-0.0789129
-0.0815874
-0.0843514
-0.0872078
-0.090159
-0.093208
-0.0963575
-0.0996104
-0.102969
-0.106438
-0.110018
-0.113713
-0.117526
-0.121461
-0.125519
-0.129704
-0.13402
-0.138469
-0.143055
-0.147781
-0.152649
-0.157665
-0.16283
-0.168149
-0.173625
-0.179262
-0.185065
-0.191037
-0.197187
-0.203529
-0.210071
-0.216783
-0.223607
-0.230694
-0.237968
-0.245427
-0.253069
-0.260899
-0.268919
-0.277133
-0.285545
-0.294163
-0.302991
-0.312038
-0.321313
-0.330822
-0.340582
-0.350604
-0.36087
-0.371345
-0.382111
-0.393119
-0.404365
-0.415844
-0.427554
-0.439495
-0.451663
-0.464051
-0.476683
-0.489553
-0.502666
-0.516
-0.529577
-0.543386
-0.557451
-0.571802
-0.586413
-0.601279
-0.616395
-0.631752
-0.647336
-0.66314
-0.679137
-0.695265
-0.711544
-0.727925
-0.744355
-0.760801
-0.77724
-0.793642
-0.809936
-0.82613
-0.842194
-0.858163
-0.874076
-0.889895
-0.905688
-0.921329
-0.936714
-0.95177
-0.966768
-0.981627
-0.996226
-1.01051
-1.02444
-1.03794
-1.05098
-1.06349
-1.07541
-1.0867
-1.09732
-1.10722
-1.11631
-1.12454
-1.13199
-1.1386
-1.14424
-1.14888
-1.15275
-1.15579
-1.15795
-1.15909
-1.15958
-1.15934
-1.15839
-1.15677
-1.15451
-1.15173
-1.14857
-1.14481
-1.14023
-1.13533
-1.13029
-1.125
-1.11951
-1.11388
-1.1082
-1.10251
-1.09685
-1.0913
-1.08589
-1.08065
-1.07561
-1.07079
-1.06624
-1.06198
-1.05806
-1.05447
-1.05123
-1.04833
-1.04575
-1.04347
-1.04146
-1.03968
-1.0381
-1.0367
-1.03544
-1.0343
-1.03326
-1.0323
-1.03134
-1.03041
-1.02953
-1.02869
-1.02787
-1.02707
-1.02627
-1.02548
-1.02469
-1.02389
-1.02306
-1.02222
-1.02134
-1.02042
-1.01946
-1.01846
-1.01742
-1.01634
-1.01522
-1.01407
-1.0129
-1.01171
-1.01051
-1.00933
-1.00816
-1.00703
-1.00593
-1.00488
-1.00389
-1.00297
-1.00213
-1.0014
-1.00078
-1.0003
-0.999965
-0.999797
-0.999814
-1.00003
-1.00047
-1.00115
-1.00208
-1.00329
-1.0048
-1.00661
-1.00874
-1.01121
-1.01401
-1.01715
-1.02064
-1.02448
-1.02868
-1.03324
-1.03816
-1.04344
-1.04909
-1.0551
-1.06148
-1.0682
-1.07528
-1.0827
-1.09045
-1.09851
-1.10688
-1.11554
-1.12446
-1.13362
-1.143
-1.15256
-1.16227
-1.17209
-1.18197
-1.19184
-1.20164
-1.2113
-1.22073
-1.22981
-1.23844
-1.24647
-1.25379
-1.26031
-1.26585
-1.27021
-1.27317
-1.27447
-1.27384
-1.271
-1.26565
-1.25744
-1.24594
-1.23072
-1.21137
-1.18749
-1.15865
-1.12456
-1.08504
-1.03999
-0.989466
-0.933824
-0.873548
-0.809266
-0.741704
-0.671691
-0.600159
-0.528116
-0.456781
-0.387626
-0.322046
-0.261253
-0.206271
-0.157757
-0.116115
-0.0814695
-0.0536641
-0.0322764
-0.016661
-0.00600683
-0.024145
-0.0249398
-0.0257578
-0.0266003
-0.0274686
-0.0283639
-0.0292876
-0.0302409
-0.0312251
-0.0322416
-0.0332915
-0.0343762
-0.0354971
-0.0366556
-0.0378529
-0.0390905
-0.04037
-0.0416926
-0.04306
-0.0444737
-0.0459353
-0.0474464
-0.0490088
-0.050624
-0.0522939
-0.0540203
-0.055805
-0.05765
-0.0595572
-0.0615286
-0.0635663
-0.0656723
-0.0678488
-0.0700981
-0.0724224
-0.0748239
-0.0773052
-0.0798685
-0.0825164
-0.0852513
-0.0880759
-0.0909927
-0.0940044
-0.0971137
-0.100323
-0.103636
-0.107055
-0.110583
-0.114223
-0.117978
-0.12185
-0.125844
-0.129961
-0.134206
-0.138581
-0.143089
-0.147735
-0.152521
-0.15745
-0.162527
-0.167755
-0.173138
-0.178682
-0.184399
-0.190287
-0.196309
-0.202516
-0.208896
-0.215444
-0.222157
-0.22904
-0.236097
-0.24333
-0.250745
-0.258348
-0.266145
-0.274141
-0.282346
-0.290764
-0.299401
-0.308265
-0.317361
-0.326679
-0.336216
-0.345985
-0.355971
-0.366166
-0.376564
-0.387163
-0.397965
-0.408974
-0.420193
-0.431603
-0.443224
-0.455086
-0.467147
-0.479475
-0.492064
-0.504904
-0.517994
-0.531333
-0.544918
-0.558746
-0.572813
-0.587112
-0.601618
-0.616316
-0.631183
-0.646209
-0.661379
-0.676669
-0.692038
-0.707381
-0.722809
-0.738195
-0.753728
-0.769377
-0.785093
-0.800878
-0.816786
-0.832882
-0.849006
-0.865195
-0.881369
-0.897777
-0.914253
-0.930683
-0.946996
-0.963126
-0.979009
-0.994583
-1.00979
-1.02458
-1.0389
-1.0527
-1.06595
-1.07859
-1.09055
-1.10183
-1.11237
-1.12214
-1.13117
-1.13948
-1.14683
-1.1532
-1.15867
-1.16357
-1.1678
-1.17136
-1.17425
-1.17651
-1.17827
-1.17951
-1.17998
-1.17973
-1.17895
-1.17796
-1.17655
-1.17475
-1.17261
-1.17014
-1.16739
-1.1644
-1.16125
-1.15795
-1.15456
-1.15114
-1.14773
-1.14438
-1.14113
-1.13801
-1.13505
-1.13227
-1.12971
-1.12736
-1.12524
-1.12337
-1.12175
-1.12038
-1.11925
-1.11835
-1.11765
-1.11711
-1.11672
-1.11644
-1.11624
-1.1161
-1.11601
-1.11597
-1.11597
-1.116
-1.11607
-1.11617
-1.11631
-1.11648
-1.11663
-1.11681
-1.11697
-1.11712
-1.11725
-1.11737
-1.11749
-1.11762
-1.1178
-1.11804
-1.11835
-1.11869
-1.11903
-1.11932
-1.11958
-1.1198
-1.11999
-1.12016
-1.1203
-1.12043
-1.12055
-1.12067
-1.12081
-1.12097
-1.12115
-1.12138
-1.12165
-1.122
-1.12244
-1.12297
-1.12363
-1.12443
-1.12541
-1.12657
-1.1279
-1.12938
-1.13101
-1.13279
-1.1347
-1.13676
-1.13896
-1.14129
-1.14376
-1.14636
-1.14911
-1.152
-1.15503
-1.15821
-1.16153
-1.16501
-1.16863
-1.1724
-1.1763
-1.18034
-1.1845
-1.18877
-1.19313
-1.19757
-1.20207
-1.2066
-1.21114
-1.21564
-1.22007
-1.2244
-1.22856
-1.2325
-1.23615
-1.23944
-1.24228
-1.24456
-1.24617
-1.247
-1.24689
-1.24568
-1.24321
-1.23926
-1.23362
-1.22603
-1.21619
-1.20377
-1.1884
-1.16963
-1.14701
-1.12
-1.08815
-1.05113
-1.00875
-0.960928
-0.907725
-0.849338
-0.786153
-0.718773
-0.648048
-0.575093
-0.501238
-0.428051
-0.357267
-0.290434
-0.228879
-0.173688
-0.12568
-0.0853475
-0.052819
-0.0278582
-0.00988904
-0.0220844
-0.0227907
-0.0235159
-0.0242616
-0.0250289
-0.0258191
-0.0266334
-0.027473
-0.0283389
-0.0292325
-0.0301548
-0.0311069
-0.0320901
-0.0331054
-0.0341541
-0.0352374
-0.0363564
-0.0375125
-0.0387069
-0.0399408
-0.0412157
-0.0425328
-0.0438937
-0.0452996
-0.0467521
-0.0482528
-0.049803
-0.0514045
-0.0530589
-0.0547678
-0.056533
-0.0583562
-0.0602393
-0.0621841
-0.0641924
-0.0662664
-0.0684079
-0.0706191
-0.072902
-0.0752589
-0.0776919
-0.0802034
-0.0827956
-0.0854711
-0.0882322
-0.0910815
-0.0940216
-0.0970552
-0.100185
-0.103413
-0.106744
-0.110179
-0.113722
-0.117375
-0.121142
-0.125026
-0.129031
-0.133158
-0.137412
-0.141795
-0.146311
-0.150963
-0.155757
-0.160694
-0.165767
-0.170983
-0.17635
-0.181864
-0.187521
-0.193324
-0.199277
-0.205383
-0.211645
-0.218066
-0.224651
-0.231403
-0.238327
-0.245427
-0.252708
-0.260174
-0.267827
-0.275673
-0.28371
-0.291933
-0.300352
-0.308963
-0.317767
-0.32676
-0.335944
-0.345309
-0.354858
-0.364623
-0.37456
-0.384728
-0.395126
-0.40574
-0.416568
-0.427611
-0.43887
-0.450346
-0.462042
-0.473964
-0.486119
-0.498502
-0.511121
-0.523989
-0.537114
-0.550518
-0.564229
-0.578121
-0.5922
-0.606552
-0.621029
-0.635836
-0.650878
-0.666107
-0.681505
-0.69706
-0.712773
-0.728649
-0.744737
-0.761079
-0.777548
-0.794031
-0.81082
-0.827726
-0.844633
-0.861474
-0.87819
-0.894735
-0.911041
-0.927079
-0.942831
-0.958259
-0.973336
-0.988036
-1.00234
-1.01622
-1.02966
-1.04268
-1.05533
-1.06739
-1.07886
-1.08984
-1.10013
-1.10993
-1.11929
-1.12823
-1.13691
-1.14498
-1.15257
-1.15982
-1.16668
-1.17279
-1.17864
-1.1841
-1.18906
-1.19347
-1.19732
-1.20055
-1.20323
-1.20548
-1.20732
-1.20876
-1.20984
-1.21058
-1.21102
-1.21118
-1.21108
-1.2108
-1.21035
-1.20979
-1.20913
-1.20842
-1.20767
-1.20692
-1.2062
-1.20553
-1.20492
-1.20439
-1.20396
-1.20366
-1.20343
-1.20328
-1.20323
-1.20324
-1.20334
-1.2035
-1.20373
-1.20401
-1.20435
-1.20474
-1.20522
-1.20581
-1.20651
-1.20725
-1.20803
-1.20878
-1.20954
-1.21035
-1.21126
-1.21232
-1.21345
-1.21461
-1.21577
-1.2169
-1.21801
-1.21913
-1.22018
-1.22117
-1.22209
-1.22293
-1.22367
-1.22432
-1.22487
-1.22534
-1.22574
-1.22605
-1.22627
-1.2264
-1.22643
-1.22638
-1.22624
-1.22604
-1.22579
-1.2255
-1.22521
-1.22492
-1.22463
-1.22433
-1.22397
-1.22355
-1.22306
-1.22249
-1.22185
-1.22113
-1.22035
-1.21949
-1.21857
-1.21759
-1.21655
-1.21547
-1.21435
-1.21319
-1.212
-1.21077
-1.20952
-1.20824
-1.20693
-1.20559
-1.20422
-1.20283
-1.20142
-1.19999
-1.19854
-1.19705
-1.19552
-1.19392
-1.19224
-1.19046
-1.18852
-1.18638
-1.184
-1.18129
-1.17819
-1.17464
-1.17057
-1.16593
-1.16064
-1.1546
-1.1477
-1.13978
-1.13065
-1.1201