/*--------------------------------*- C++ -*----------------------------------*\
| =========                 |                                                 |
| \\      /  F ield         | OpenFOAM: The Open Source CFD Toolbox           |
|  \\    /   O peration     | Version:  2.4.0                                 |
|   \\  /    A nd           | Web:      www.OpenFOAM.org                      |
|    \\/     M anipulation  |                                                 |
\*---------------------------------------------------------------------------*/
FoamFile
{
    version     2.0;
    format      ascii;
    class       volScalarField;
    location    "3";
    object      p;
}
// * * * * * * * * * * * * * * * * * * * * * * * * * * * * * * * * * * * * * //

dimensions      [1 -1 -2 0 0 0 0];

internalField   nonuniform List<scalar> 
8000
(
-1.7514
-1.74875
-1.74514
-1.74085
-1.73719
-1.73328
-1.7291
-1.72458
-1.72045
-1.71586
-1.71095
-1.70595
-1.70056
-1.69506
-1.68908
-1.6829
-1.67618
-1.66906
-1.66135
-1.65295
-1.64471
-1.63628
-1.62553
-1.60259
-1.55332
-1.51979
-1.74426
-2.89014
-5.01516
-6.61106
-7.03499
-3.91946
-1.22666
-0.904424
-0.898194
-0.875771
-0.872192
-0.872493
-0.872556
-0.872406
-0.872249
-0.872132
-0.872075
-0.87204
-0.871998
-0.871961
-0.871927
-0.871903
-0.871885
-0.871875
-2.06459
-2.06586
-2.06533
-2.06317
-2.05931
-2.05333
-2.04573
-2.03621
-2.0248
-2.01128
-1.9962
-1.97876
-1.95914
-1.93712
-1.91271
-1.8855
-1.85562
-1.82258
-1.78714
-1.74867
-1.70559
-1.64436
-1.55362
-1.49136
-1.73646
-2.97615
-6.07701
-7.17548
-6.61293
-2.67605
-0.809234
-0.721886
-0.903121
-0.895522
-0.894416
-0.894962
-0.894935
-0.894864
-0.89481
-0.894761
-0.894711
-0.894646
-0.894573
-0.894495
-0.89442
-0.894341
-0.894263
-0.894188
-0.894117
-0.89405
-3.01988
-3.01068
-3.00069
-2.99425
-2.98961
-2.98674
-2.98574
-2.98633
-2.98863
-2.99253
-2.99814
-3.00535
-3.01419
-3.0246
-3.03652
-3.05
-3.06556
-3.08477
-3.10675
-3.1171
-3.07714
-3.00019
-3.26152
-4.97753
-8.4047
-7.11734
-5.05517
-1.46078
-0.800423
-0.862486
-0.920577
-0.913902
-0.913319
-0.91317
-0.913192
-0.913372
-0.9135
-0.913591
-0.913662
-0.913718
-0.913761
-0.913792
-0.913813
-0.913823
-0.91384
-0.913845
-0.91385
-0.913853
-0.913857
-0.913863
-3.52841
-3.52633
-3.52643
-3.53
-3.53662
-3.54581
-3.55781
-3.57281
-3.59064
-3.61143
-3.63523
-3.6621
-3.69203
-3.72517
-3.76185
-3.80357
-3.85048
-3.89369
-3.90272
-3.86983
-4.02904
-5.14371
-7.70885
-6.60313
-4.10104
-1.43922
-0.894867
-0.913413
-0.933868
-0.93195
-0.931934
-0.931814
-0.931853
-0.931893
-0.932249
-0.932383
-0.932508
-0.932628
-0.932736
-0.932838
-0.932934
-0.933025
-0.933112
-0.933195
-0.933276
-0.933356
-0.933435
-0.933513
-0.933592
-0.93367
-3.06569
-3.07864
-3.09294
-3.10824
-3.1246
-3.14203
-3.16073
-3.1812
-3.20292
-3.22622
-3.251
-3.27741
-3.3055
-3.33601
-3.36959
-3.40352
-3.42363
-3.4131
-3.44326
-3.86172
-5.08894
-6.204
-3.66875
-1.56238
-0.953483
-0.948913
-0.954251
-0.953688
-0.953571
-0.953606
-0.953699
-0.953788
-0.953493
-0.953557
-0.954151
-0.95422
-0.954284
-0.954349
-0.954425
-0.954488
-0.954552
-0.954616
-0.95468
-0.954743
-0.954807
-0.954872
-0.954937
-0.955003
-0.95507
-0.955139
-3.17316
-3.18211
-3.19368
-3.20711
-3.22185
-3.23763
-3.25479
-3.27368
-3.2939
-3.31543
-3.3385
-3.36325
-3.39098
-3.42143
-3.44641
-3.4397
-3.40031
-3.5437
-4.51529
-6.35866
-4.19019
-1.91942
-1.01004
-0.977145
-0.977384
-0.97687
-0.976738
-0.97671
-0.976721
-0.976726
-0.976726
-0.976726
-0.976726
-0.97671
-0.976716
-0.976729
-0.976739
-0.976746
-0.97676
-0.976779
-0.976799
-0.976822
-0.976847
-0.976875
-0.976905
-0.976939
-0.976975
-0.977015
-0.977057
-0.977102
-2.36116
-2.37886
-2.39789
-2.41638
-2.43425
-2.45139
-2.46847
-2.48516
-2.50159
-2.51732
-2.53373
-2.55201
-2.57257
-2.57598
-2.51286
-2.39243
-2.68492
-4.68149
-8.08977
-2.58348
-1.11653
-1.00258
-0.99919
-0.998964
-0.998982
-0.998987
-0.998982
-0.998977
-0.998974
-0.998973
-0.998973
-0.998975
-0.998979
-0.998984
-0.99899
-0.998998
-0.999008
-0.99902
-0.999034
-0.999049
-0.999067
-0.999088
-0.99911
-0.999135
-0.999161
-0.999191
-0.999222
-0.999256
-0.999292
-0.999331
-1.91021
-1.93502
-1.96129
-1.98577
-2.00808
-2.02885
-2.04816
-2.0663
-2.08274
-2.09874
-2.11601
-2.13466
-2.13388
-2.05887
-1.9206
-2.23807
-4.43317
-8.10746
-2.05285
-1.03317
-1.02219
-1.02161
-1.0217
-1.02175
-1.02174
-1.02173
-1.02172
-1.02171
-1.0217
-1.0217
-1.02169
-1.02169
-1.02169
-1.02168
-1.02168
-1.02168
-1.02169
-1.02169
-1.0217
-1.0217
-1.02171
-1.02172
-1.02174
-1.02175
-1.02177
-1.02179
-1.02181
-1.02183
-1.02186
-1.02189
-1.81302
-1.83321
-1.8557
-1.87753
-1.89856
-1.91902
-1.93922
-1.95921
-1.97911
-1.9998
-2.02134
-2.03746
-2.02937
-1.99667
-2.10041
-2.81739
-4.12197
-2.26957
-1.05499
-1.04442
-1.04393
-1.04405
-1.04412
-1.04414
-1.04414
-1.04414
-1.04414
-1.04415
-1.04415
-1.04416
-1.04416
-1.04417
-1.04418
-1.04419
-1.04419
-1.0442
-1.04422
-1.04423
-1.04424
-1.04426
-1.04427
-1.04429
-1.04431
-1.04433
-1.04435
-1.04437
-1.0444
-1.04442
-1.04445
-1.04448
-1.5415
-1.55769
-1.57548
-1.59274
-1.6097
-1.6264
-1.64315
-1.65991
-1.67703
-1.69508
-1.71317
-1.72294
-1.70968
-1.69932
-1.89929
-2.68417
-3.43705
-1.1187
-1.06752
-1.06674
-1.0669
-1.06699
-1.06701
-1.06701
-1.06702
-1.06703
-1.06704
-1.06704
-1.06705
-1.06706
-1.06707
-1.06707
-1.06708
-1.06709
-1.0671
-1.06711
-1.06713
-1.06714
-1.06715
-1.06717
-1.06719
-1.0672
-1.06722
-1.06724
-1.06726
-1.06728
-1.06731
-1.06733
-1.06736
-1.06739
-1.51324
-1.52458
-1.53756
-1.5502
-1.56254
-1.57451
-1.58637
-1.59827
-1.61072
-1.62383
-1.63263
-1.62224
-1.59243
-1.66883
-2.226
-3.24709
-1.98632
-1.09154
-1.08987
-1.08991
-1.09
-1.09003
-1.09004
-1.09005
-1.09005
-1.09006
-1.09007
-1.09008
-1.09008
-1.09009
-1.0901
-1.09011
-1.09012
-1.09013
-1.09014
-1.09016
-1.09017
-1.09019
-1.0902
-1.09022
-1.09024
-1.09026
-1.09028
-1.0903
-1.09032
-1.09035
-1.09037
-1.0904
-1.09042
-1.09045
-1.16499
-1.17601
-1.18756
-1.19826
-1.2084
-1.21799
-1.22726
-1.23653
-1.24654
-1.25682
-1.2585
-1.23086
-1.18956
-1.35903
-2.26074
-3.50397
-1.1494
-1.11378
-1.11309
-1.11325
-1.11334
-1.11336
-1.11336
-1.11336
-1.11337
-1.11338
-1.11339
-1.11339
-1.1134
-1.11341
-1.11342
-1.11343
-1.11344
-1.11345
-1.11346
-1.11348
-1.11349
-1.11351
-1.11352
-1.11354
-1.11356
-1.11358
-1.1136
-1.11362
-1.11364
-1.11367
-1.11369
-1.11372
-1.11374
-1.11377
-1.28334
-1.28989
-1.29763
-1.30526
-1.31269
-1.31993
-1.32716
-1.33472
-1.34278
-1.34968
-1.34753
-1.32942
-1.34044
-1.57415
-2.19431
-2.28548
-1.13799
-1.13669
-1.13678
-1.13687
-1.13689
-1.1369
-1.1369
-1.13691
-1.13692
-1.13692
-1.13693
-1.13694
-1.13694
-1.13695
-1.13696
-1.13697
-1.13698
-1.13699
-1.137
-1.13702
-1.13703
-1.13705
-1.13706
-1.13708
-1.1371
-1.13712
-1.13714
-1.13716
-1.13718
-1.1372
-1.13723
-1.13725
-1.13728
-1.1373
-0.989821
-0.994128
-0.998449
-1.0024
-1.00617
-1.00979
-1.01381
-1.01942
-1.02618
-1.02233
-0.976631
-0.900301
-1.09731
-2.36522
-4.33434
-1.26511
-1.16097
-1.16013
-1.16033
-1.16042
-1.16043
-1.16043
-1.16043
-1.16044
-1.16044
-1.16045
-1.16046
-1.16046
-1.16047
-1.16048
-1.16049
-1.1605
-1.16051
-1.16052
-1.16054
-1.16055
-1.16057
-1.16058
-1.1606
-1.16062
-1.16064
-1.16066
-1.16068
-1.1607
-1.16072
-1.16075
-1.16077
-1.1608
-1.16083
-1.16085
-1.10674
-1.10969
-1.11342
-1.11706
-1.12052
-1.12384
-1.12738
-1.1315
-1.13515
-1.13126
-1.10958
-1.09569
-1.25941
-1.85805
-2.51672
-1.18529
-1.18416
-1.1843
-1.18439
-1.18441
-1.18441
-1.18442
-1.18442
-1.18443
-1.18443
-1.18444
-1.18444
-1.18445
-1.18446
-1.18446
-1.18447
-1.18448
-1.18448
-1.18449
-1.1845
-1.18451
-1.18452
-1.18454
-1.18455
-1.18456
-1.18458
-1.18459
-1.18461
-1.18462
-1.18464
-1.18466
-1.18468
-1.1847
-1.18472
-1.18475
-0.836881
-0.82906
-0.820991
-0.815341
-0.81238
-0.812367
-0.816512
-0.824437
-0.82339
-0.779494
-0.704307
-0.924949
-2.30684
-4.46895
-1.32577
-1.20858
-1.20732
-1.20762
-1.20775
-1.20777
-1.20777
-1.20778
-1.20778
-1.20779
-1.2078
-1.2078
-1.20781
-1.20781
-1.20782
-1.20782
-1.20783
-1.20783
-1.20784
-1.20785
-1.20786
-1.20787
-1.20788
-1.2079
-1.20791
-1.20793
-1.20794
-1.20796
-1.20798
-1.208
-1.20802
-1.20804
-1.20807
-1.20809
-1.20812
-1.20814
-1.0466
-1.0318
-1.01993
-1.01307
-1.01069
-1.01212
-1.01743
-1.02401
-1.02758
-1.03138
-1.08765
-1.31005
-1.81881
-2.00579
-1.23357
-1.23235
-1.23255
-1.23265
-1.23267
-1.23266
-1.23265
-1.23264
-1.23263
-1.23261
-1.2326
-1.23258
-1.23256
-1.23254
-1.23252
-1.2325
-1.23248
-1.23246
-1.23244
-1.23243
-1.23241
-1.23239
-1.23238
-1.23236
-1.23235
-1.23234
-1.23233
-1.23232
-1.23232
-1.23231
-1.23231
-1.23231
-1.23231
-1.23231
-1.23231
-1.23231
1.02985
0.988013
0.947006
0.918504
0.900016
0.893237
0.899374
0.934075
0.991687
0.972657
0.281483
-1.81151
-3.20599
-1.25713
-1.25467
-1.25508
-1.25527
-1.25528
-1.25524
-1.25521
-1.25517
-1.25514
-1.25511
-1.25507
-1.25503
-1.255
-1.25497
-1.25493
-1.25491
-1.25488
-1.25486
-1.25484
-1.25482
-1.25481
-1.2548
-1.25479
-1.25478
-1.25478
-1.25478
-1.25479
-1.25479
-1.2548
-1.25482
-1.25483
-1.25485
-1.25486
-1.25488
-1.25491
-1.25493
-1.25495
1.72777
1.6064
1.487
1.39311
1.3239
1.29401
1.33712
1.42554
1.15958
-0.527363
-5.88489
-2.21184
-1.4138
-1.29284
-1.28019
-1.28182
-1.28256
-1.28254
-1.28234
-1.28216
-1.282
-1.28184
-1.28167
-1.28151
-1.28134
-1.28118
-1.28103
-1.28088
-1.28073
-1.28059
-1.28045
-1.28033
-1.28021
-1.28009
-1.27998
-1.27988
-1.27979
-1.2797
-1.27962
-1.27955
-1.27948
-1.27942
-1.27936
-1.27931
-1.27926
-1.27922
-1.27918
-1.27915
-1.27912
-1.2791
-3.46524
-3.56368
-3.66818
-3.74885
-3.77858
-3.80479
-4.18972
-5.65646
-8.38463
-2.68058
-1.25926
-1.29709
-1.29264
-1.29974
-1.30054
-1.3003
-1.30006
-1.29994
-1.29986
-1.29981
-1.29976
-1.29973
-1.29971
-1.2997
-1.29969
-1.29969
-1.29969
-1.2997
-1.29971
-1.29973
-1.29975
-1.29978
-1.29981
-1.29984
-1.29987
-1.29991
-1.29994
-1.29998
-1.30003
-1.30007
-1.30011
-1.30016
-1.30021
-1.30025
-1.3003
-1.30035
-1.3004
-1.30046
-1.30051
-1.30056
-0.87187
-0.871873
-0.871881
-0.871894
-0.871914
-0.871938
-0.871968
-0.872003
-0.872042
-0.872085
-0.872133
-0.872184
-0.87224
-0.872299
-0.872361
-0.872427
-0.872497
-0.87257
-0.872646
-0.872726
-0.872808
-0.872894
-0.872983
-0.873074
-0.873169
-0.873266
-0.873366
-0.873469
-0.873574
-0.873682
-0.873792
-0.873905
-0.87402
-0.874137
-0.874256
-0.874378
-0.874501
-0.874627
-0.874754
-0.874883
-0.875014
-0.875147
-0.875281
-0.875416
-0.875553
-0.875692
-0.875831
-0.875972
-0.876115
-0.876258
-0.893989
-0.893934
-0.893885
-0.893843
-0.893808
-0.893779
-0.893758
-0.893744
-0.893736
-0.893734
-0.893739
-0.893751
-0.893768
-0.893791
-0.89382
-0.893855
-0.893895
-0.893941
-0.893991
-0.894047
-0.894107
-0.894172
-0.894242
-0.894317
-0.894395
-0.894478
-0.894565
-0.894657
-0.894752
-0.894851
-0.894953
-0.895059
-0.895169
-0.895282
-0.895398
-0.895517
-0.89564
-0.895765
-0.895894
-0.896025
-0.896159
-0.896296
-0.896435
-0.896576
-0.89672
-0.896866
-0.897015
-0.897166
-0.897318
-0.897473
-0.913871
-0.913881
-0.913895
-0.913913
-0.913934
-0.913959
-0.913989
-0.914022
-0.91406
-0.914102
-0.914148
-0.914198
-0.914252
-0.91431
-0.914372
-0.914438
-0.914508
-0.914581
-0.914658
-0.914739
-0.914824
-0.914912
-0.915004
-0.915099
-0.915197
-0.915299
-0.915404
-0.915512
-0.915624
-0.915738
-0.915856
-0.915976
-0.916099
-0.916226
-0.916355
-0.916486
-0.91662
-0.916757
-0.916896
-0.917038
-0.917182
-0.917328
-0.917476
-0.917626
-0.917778
-0.917932
-0.918088
-0.918246
-0.918405
-0.918566
-0.933748
-0.933828
-0.933908
-0.933989
-0.934072
-0.934156
-0.934241
-0.934328
-0.934417
-0.934507
-0.934599
-0.934692
-0.934788
-0.934885
-0.934985
-0.935086
-0.935189
-0.935295
-0.935402
-0.935512
-0.935624
-0.935738
-0.935854
-0.935972
-0.936093
-0.936216
-0.936341
-0.936468
-0.936598
-0.936729
-0.936863
-0.936999
-0.937138
-0.937278
-0.937421
-0.937566
-0.937713
-0.937862
-0.938013
-0.938166
-0.938321
-0.938478
-0.938636
-0.938797
-0.938959
-0.939123
-0.939289
-0.939456
-0.939625
-0.939795
-0.955209
-0.95528
-0.955353
-0.955428
-0.955504
-0.955582
-0.955662
-0.955744
-0.955828
-0.955914
-0.956002
-0.956092
-0.956184
-0.956278
-0.956375
-0.956473
-0.956575
-0.956678
-0.956784
-0.956892
-0.957002
-0.957115
-0.95723
-0.957348
-0.957468
-0.95759
-0.957715
-0.957842
-0.957972
-0.958104
-0.958238
-0.958375
-0.958513
-0.958655
-0.958798
-0.958944
-0.959092
-0.959242
-0.959395
-0.959549
-0.959706
-0.959864
-0.960025
-0.960188
-0.960352
-0.960519
-0.960687
-0.960857
-0.961029
-0.961202
-0.977149
-0.9772
-0.977253
-0.977309
-0.977368
-0.97743
-0.977494
-0.977562
-0.977632
-0.977705
-0.97778
-0.977858
-0.977939
-0.978023
-0.97811
-0.978199
-0.978291
-0.978385
-0.978483
-0.978583
-0.978685
-0.978791
-0.978899
-0.979009
-0.979122
-0.979238
-0.979356
-0.979477
-0.979601
-0.979727
-0.979855
-0.979986
-0.980119
-0.980255
-0.980393
-0.980533
-0.980676
-0.980821
-0.980968
-0.981117
-0.981269
-0.981423
-0.981578
-0.981736
-0.981896
-0.982057
-0.982221
-0.982386
-0.982553
-0.982722
-0.999372
-0.999415
-0.999461
-0.99951
-0.999561
-0.999615
-0.999671
-0.99973
-0.999791
-0.999855
-0.999922
-0.999991
-1.00006
-1.00014
-1.00021
-1.00029
-1.00038
-1.00046
-1.00055
-1.00064
-1.00073
-1.00083
-1.00093
-1.00103
-1.00113
-1.00124
-1.00135
-1.00146
-1.00157
-1.00169
-1.00181
-1.00193
-1.00205
-1.00218
-1.00231
-1.00244
-1.00258
-1.00271
-1.00285
-1.00299
-1.00314
-1.00328
-1.00343
-1.00358
-1.00373
-1.00389
-1.00404
-1.0042
-1.00436
-1.00452
-1.02192
-1.02195
-1.02198
-1.02202
-1.02206
-1.0221
-1.02215
-1.0222
-1.02225
-1.0223
-1.02235
-1.02241
-1.02247
-1.02253
-1.0226
-1.02267
-1.02274
-1.02281
-1.02289
-1.02296
-1.02304
-1.02313
-1.02321
-1.0233
-1.02339
-1.02349
-1.02358
-1.02368
-1.02379
-1.02389
-1.024
-1.02411
-1.02422
-1.02433
-1.02445
-1.02457
-1.02469
-1.02481
-1.02494
-1.02507
-1.0252
-1.02533
-1.02547
-1.0256
-1.02574
-1.02588
-1.02603
-1.02617
-1.02632
-1.02647
-1.04451
-1.04455
-1.04458
-1.04462
-1.04466
-1.0447
-1.04475
-1.04479
-1.04484
-1.04489
-1.04494
-1.04499
-1.04505
-1.04511
-1.04517
-1.04523
-1.0453
-1.04536
-1.04543
-1.0455
-1.04558
-1.04565
-1.04573
-1.04581
-1.0459
-1.04598
-1.04607
-1.04616
-1.04625
-1.04635
-1.04644
-1.04654
-1.04664
-1.04675
-1.04685
-1.04696
-1.04707
-1.04718
-1.0473
-1.04741
-1.04753
-1.04765
-1.04778
-1.0479
-1.04803
-1.04816
-1.04829
-1.04842
-1.04856
-1.0487
-1.06742
-1.06745
-1.06748
-1.06752
-1.06755
-1.06759
-1.06763
-1.06767
-1.06771
-1.06776
-1.0678
-1.06785
-1.0679
-1.06795
-1.06801
-1.06806
-1.06812
-1.06818
-1.06824
-1.0683
-1.06837
-1.06844
-1.06851
-1.06858
-1.06865
-1.06873
-1.0688
-1.06888
-1.06896
-1.06905
-1.06913
-1.06922
-1.06931
-1.0694
-1.0695
-1.06959
-1.06969
-1.06979
-1.06989
-1.06999
-1.0701
-1.07021
-1.07031
-1.07043
-1.07054
-1.07065
-1.07077
-1.07089
-1.07101
-1.07113
-1.09048
-1.09052
-1.09055
-1.09058
-1.09062
-1.09066
-1.09069
-1.09073
-1.09078
-1.09082
-1.09086
-1.09091
-1.09096
-1.09101
-1.09106
-1.09111
-1.09116
-1.09122
-1.09127
-1.09133
-1.09139
-1.09146
-1.09152
-1.09158
-1.09165
-1.09172
-1.09179
-1.09186
-1.09193
-1.09201
-1.09209
-1.09216
-1.09224
-1.09233
-1.09241
-1.0925
-1.09258
-1.09267
-1.09276
-1.09285
-1.09295
-1.09304
-1.09314
-1.09324
-1.09334
-1.09344
-1.09354
-1.09364
-1.09375
-1.09386
-1.1138
-1.11383
-1.11386
-1.1139
-1.11393
-1.11397
-1.114
-1.11404
-1.11408
-1.11412
-1.11416
-1.1142
-1.11425
-1.11429
-1.11434
-1.11438
-1.11443
-1.11448
-1.11454
-1.11459
-1.11464
-1.1147
-1.11475
-1.11481
-1.11487
-1.11493
-1.115
-1.11506
-1.11512
-1.11519
-1.11526
-1.11533
-1.1154
-1.11547
-1.11554
-1.11562
-1.11569
-1.11577
-1.11585
-1.11593
-1.11601
-1.11609
-1.11618
-1.11626
-1.11635
-1.11644
-1.11653
-1.11662
-1.11671
-1.1168
-1.13733
-1.13736
-1.13739
-1.13742
-1.13746
-1.13749
-1.13752
-1.13756
-1.1376
-1.13763
-1.13767
-1.13771
-1.13775
-1.1378
-1.13784
-1.13788
-1.13793
-1.13797
-1.13802
-1.13807
-1.13812
-1.13817
-1.13822
-1.13828
-1.13833
-1.13838
-1.13844
-1.1385
-1.13856
-1.13862
-1.13868
-1.13874
-1.1388
-1.13886
-1.13893
-1.13899
-1.13906
-1.13913
-1.1392
-1.13927
-1.13934
-1.13941
-1.13948
-1.13956
-1.13963
-1.13971
-1.13979
-1.13987
-1.13995
-1.14003
-1.16088
-1.16091
-1.16094
-1.16098
-1.16101
-1.16104
-1.16108
-1.16111
-1.16115
-1.16118
-1.16122
-1.16126
-1.1613
-1.16134
-1.16138
-1.16143
-1.16147
-1.16151
-1.16156
-1.1616
-1.16165
-1.1617
-1.16175
-1.16179
-1.16184
-1.16189
-1.16195
-1.162
-1.16205
-1.16211
-1.16216
-1.16222
-1.16227
-1.16233
-1.16239
-1.16245
-1.1625
-1.16257
-1.16263
-1.16269
-1.16275
-1.16281
-1.16288
-1.16294
-1.16301
-1.16308
-1.16314
-1.16321
-1.16328
-1.16335
-1.18477
-1.18479
-1.18482
-1.18484
-1.18487
-1.1849
-1.18493
-1.18496
-1.18499
-1.18502
-1.18505
-1.18508
-1.18512
-1.18515
-1.18519
-1.18522
-1.18526
-1.1853
-1.18534
-1.18538
-1.18542
-1.18546
-1.1855
-1.18554
-1.18559
-1.18563
-1.18567
-1.18572
-1.18577
-1.18581
-1.18586
-1.18591
-1.18596
-1.18601
-1.18606
-1.18611
-1.18616
-1.18621
-1.18626
-1.18632
-1.18637
-1.18642
-1.18648
-1.18654
-1.18659
-1.18665
-1.18671
-1.18677
-1.18682
-1.18688
-1.20817
-1.2082
-1.20823
-1.20826
-1.20829
-1.20832
-1.20836
-1.20839
-1.20842
-1.20846
-1.20849
-1.20853
-1.20857
-1.20861
-1.20865
-1.20868
-1.20872
-1.20877
-1.20881
-1.20885
-1.20889
-1.20893
-1.20898
-1.20902
-1.20906
-1.20911
-1.20915
-1.2092
-1.20925
-1.20929
-1.20934
-1.20939
-1.20943
-1.20948
-1.20953
-1.20958
-1.20963
-1.20968
-1.20973
-1.20978
-1.20983
-1.20988
-1.20993
-1.20998
-1.21004
-1.21009
-1.21014
-1.2102
-1.21025
-1.2103
-1.23232
-1.23233
-1.23233
-1.23234
-1.23236
-1.23237
-1.23238
-1.2324
-1.23242
-1.23243
-1.23245
-1.23247
-1.23249
-1.23252
-1.23254
-1.23257
-1.23259
-1.23262
-1.23265
-1.23267
-1.2327
-1.23273
-1.23276
-1.2328
-1.23283
-1.23286
-1.2329
-1.23293
-1.23297
-1.233
-1.23304
-1.23308
-1.23312
-1.23316
-1.2332
-1.23324
-1.23328
-1.23332
-1.23336
-1.2334
-1.23344
-1.23349
-1.23353
-1.23357
-1.23362
-1.23366
-1.23371
-1.23375
-1.2338
-1.23385
-1.25498
-1.25501
-1.25504
-1.25507
-1.2551
-1.25514
-1.25517
-1.25521
-1.25524
-1.25528
-1.25532
-1.25536
-1.2554
-1.25544
-1.25548
-1.25552
-1.25556
-1.2556
-1.25564
-1.25569
-1.25573
-1.25577
-1.25582
-1.25586
-1.25591
-1.25595
-1.256
-1.25604
-1.25609
-1.25613
-1.25618
-1.25622
-1.25627
-1.25632
-1.25636
-1.25641
-1.25646
-1.2565
-1.25655
-1.2566
-1.25664
-1.25669
-1.25674
-1.25679
-1.25683
-1.25688
-1.25693
-1.25698
-1.25702
-1.25707
-1.27908
-1.27906
-1.27905
-1.27904
-1.27903
-1.27903
-1.27903
-1.27903
-1.27904
-1.27905
-1.27906
-1.27907
-1.27908
-1.2791
-1.27911
-1.27913
-1.27916
-1.27918
-1.2792
-1.27923
-1.27925
-1.27928
-1.27931
-1.27934
-1.27937
-1.2794
-1.27944
-1.27947
-1.27951
-1.27954
-1.27958
-1.27961
-1.27965
-1.27969
-1.27973
-1.27977
-1.27981
-1.27985
-1.27989
-1.27993
-1.27997
-1.28001
-1.28005
-1.28009
-1.28014
-1.28018
-1.28022
-1.28027
-1.28031
-1.28035
-1.30061
-1.30067
-1.30072
-1.30078
-1.30083
-1.30089
-1.30094
-1.301
-1.30105
-1.30111
-1.30116
-1.30122
-1.30128
-1.30133
-1.30139
-1.30145
-1.3015
-1.30156
-1.30161
-1.30167
-1.30173
-1.30178
-1.30184
-1.30189
-1.30195
-1.302
-1.30206
-1.30211
-1.30217
-1.30222
-1.30228
-1.30233
-1.30238
-1.30244
-1.30249
-1.30254
-1.3026
-1.30265
-1.3027
-1.30275
-1.30281
-1.30286
-1.30291
-1.30296
-1.30301
-1.30306
-1.30311
-1.30316
-1.30321
-1.30326
-0.876368
-0.876446
-0.876524
-0.876603
-0.876683
-0.876763
-0.876844
-0.876926
-0.877009
-0.877092
-0.877176
-0.877261
-0.877346
-0.877432
-0.877519
-0.877607
-0.877695
-0.877784
-0.877874
-0.877965
-0.878056
-0.878149
-0.878242
-0.878336
-0.878431
-0.878528
-0.878625
-0.878723
-0.878823
-0.878924
-0.879026
-0.87913
-0.879235
-0.879342
-0.879451
-0.879562
-0.879675
-0.87979
-0.879908
-0.880029
-0.880152
-0.880279
-0.88041
-0.880544
-0.880683
-0.880827
-0.880976
-0.88113
-0.881291
-0.881459
-0.881634
-0.881818
-0.88201
-0.882213
-0.882427
-0.882654
-0.882894
-0.883148
-0.883418
-0.883707
-0.884013
-0.884343
-0.884704
-0.885103
-0.880334
-0.878828
-0.880756
-0.881126
-0.881489
-0.881835
-0.882166
-0.882475
-0.882768
-0.883046
-0.88331
-0.883479
-0.883842
-0.884099
-0.884339
-0.884574
-0.884812
-0.883831
-0.883424
-0.885244
-0.885438
-0.885626
-0.88581
-0.885983
-0.886147
-0.886292
-0.88632
-0.886458
-0.886841
-0.887015
-0.887134
-0.886895
-0.887026
-0.887176
-0.887306
-0.887428
-0.887545
-0.887662
-0.887775
-0.887885
-0.887996
-0.888106
-0.887586
-0.888741
-0.888828
-0.888943
-0.889064
-0.889236
-0.889425
-0.889546
-0.888811
-0.888979
-0.889175
-0.8893
-0.889331
-0.89057
-0.890777
-0.887864
-0.888429
-0.888648
-0.888822
-0.888996
-0.889168
-0.889335
-0.8895
-0.889664
-0.889828
-0.889995
-0.890161
-0.890339
-0.890528
-0.890106
-0.890304
-0.889623
-0.890621
-0.889348
-0.889658
-0.888853
-0.889075
-0.889956
-0.888495
-0.891881
-0.891894
-0.891904
-0.891913
-0.891867
-0.891864
-0.892252
-0.892445
-0.888972
-0.895909
-0.895676
-0.895514
-0.895384
-0.895275
-0.895184
-0.89511
-0.894899
-0.895106
-0.895047
-0.895196
-0.895076
-0.895107
-0.89511
-0.895118
-0.895135
-0.895156
-0.895182
-0.895213
-0.895249
-0.895289
-0.895333
-0.895377
-0.895424
-0.895473
-0.895525
-0.895579
-0.895635
-0.895695
-0.895183
-0.895749
-0.895805
-0.895852
-0.895903
-0.895953
-0.896
-0.896046
-0.896091
-0.896136
-0.896112
-0.896223
-0.896262
-0.896295
-0.896325
-0.896353
-0.896379
-0.896402
-0.896423
-0.896443
-0.896459
-0.896471
-0.896478
-0.896483
-0.896485
-0.896485
-0.896483
-0.89648
-0.896475
-0.896468
-0.89646
-0.896451
-0.89644
-0.896427
-0.896414
-0.896398
-0.896382
-0.896365
-0.896346
-0.896326
-0.896306
-0.896284
-0.896262
-0.896238
-0.896214
-0.896188
-0.89616
-0.896132
-0.896102
-0.896072
-0.896041
-0.89601
-0.895978
-0.895945
-0.895912
-0.895879
-0.895846
-0.895813
-0.89578
-0.895747
-0.895715
-0.895683
-0.895652
-0.895622
-0.895592
-0.895564
-0.895537
-0.895508
-0.895483
-0.89546
-0.895439
-0.895397
-0.895411
-0.895394
-0.895378
-0.895362
-0.895341
-0.89502
-0.895162
-0.895157
-0.895135
-0.895116
-0.895096
-0.895075
-0.89505
-0.895021
-0.894998
-0.894974
-0.894671
-0.894646
-0.894785
-0.8947
-0.894652
-0.894596
-0.894522
-0.894436
-0.894373
-0.894319
-0.894246
-0.894171
-0.894092
-0.894021
-0.893947
-0.893663
-0.893609
-0.893679
-0.893581
-0.893509
-0.893432
-0.893363
-0.893281
-0.893196
-0.89311
-0.893024
-0.892936
-0.892846
-0.892758
-0.897594
-0.89768
-0.897766
-0.897853
-0.897942
-0.898031
-0.898121
-0.898211
-0.898303
-0.898396
-0.898489
-0.898583
-0.898678
-0.898774
-0.89887
-0.898967
-0.899065
-0.899164
-0.899263
-0.899364
-0.899464
-0.899566
-0.899668
-0.899771
-0.899874
-0.899978
-0.900082
-0.900187
-0.900292
-0.900398
-0.900504
-0.90061
-0.900717
-0.900824
-0.900931
-0.901038
-0.901145
-0.901253
-0.90136
-0.901467
-0.901573
-0.901679
-0.901785
-0.901889
-0.901993
-0.902096
-0.902197
-0.902297
-0.902395
-0.902491
-0.902585
-0.902677
-0.902765
-0.90285
-0.902931
-0.903008
-0.903079
-0.903145
-0.903204
-0.903257
-0.903301
-0.903336
-0.903367
-0.903374
-0.900497
-0.905217
-0.905211
-0.90522
-0.905241
-0.905535
-0.90558
-0.905635
-0.9057
-0.90577
-0.905849
-0.905832
-0.906044
-0.906156
-0.906268
-0.906385
-0.906509
-0.905986
-0.90633
-0.906538
-0.906661
-0.906787
-0.906908
-0.907027
-0.907159
-0.907306
-0.907447
-0.907545
-0.907635
-0.907709
-0.908113
-0.908249
-0.908324
-0.908416
-0.90852
-0.908623
-0.908724
-0.908822
-0.908918
-0.909014
-0.909101
-0.90916
-0.909455
-0.909224
-0.909372
-0.909601
-0.909743
-0.90975
-0.909872
-0.91037
-0.910526
-0.910576
-0.910627
-0.910718
-0.910845
-0.910945
-0.911021
-0.909538
-0.910646
-0.910777
-0.910884
-0.910992
-0.9111
-0.911208
-0.911314
-0.911417
-0.911491
-0.911623
-0.911717
-0.911805
-0.911899
-0.911959
-0.911759
-0.91231
-0.912363
-0.912422
-0.912473
-0.91247
-0.912457
-0.911119
-0.913685
-0.913784
-0.913726
-0.913856
-0.914259
-0.914524
-0.914974
-0.915466
-0.911074
-0.911493
-0.912581
-0.912887
-0.913119
-0.913348
-0.913676
-0.913853
-0.914019
-0.914386
-0.914537
-0.914679
-0.914817
-0.91495
-0.915081
-0.915083
-0.91527
-0.915382
-0.915488
-0.915593
-0.915692
-0.915787
-0.915879
-0.915968
-0.916058
-0.916145
-0.916231
-0.916315
-0.916395
-0.916471
-0.916543
-0.916617
-0.916672
-0.916725
-0.916876
-0.916935
-0.916989
-0.917041
-0.91709
-0.917137
-0.917183
-0.917202
-0.916977
-0.917585
-0.917622
-0.917669
-0.917714
-0.917757
-0.917794
-0.917822
-0.917847
-0.91787
-0.917876
-0.917887
-0.9179
-0.917914
-0.917929
-0.917941
-0.917952
-0.917962
-0.917969
-0.917975
-0.91798
-0.917983
-0.917985
-0.917985
-0.917983
-0.91798
-0.917977
-0.917972
-0.917966
-0.91796
-0.917954
-0.917948
-0.917942
-0.917932
-0.917918
-0.917901
-0.917882
-0.917862
-0.917841
-0.91782
-0.917796
-0.917773
-0.917748
-0.917723
-0.917698
-0.917673
-0.917649
-0.917624
-0.917599
-0.917575
-0.917552
-0.917529
-0.917506
-0.917484
-0.917463
-0.917442
-0.917421
-0.917402
-0.917382
-0.917362
-0.917344
-0.917325
-0.917305
-0.917285
-0.917264
-0.917241
-0.917216
-0.917186
-0.917157
-0.917128
-0.917099
-0.917071
-0.917042
-0.917012
-0.916981
-0.916947
-0.916911
-0.916874
-0.916826
-0.916786
-0.916775
-0.916494
-0.916475
-0.916482
-0.916438
-0.916399
-0.91635
-0.916291
-0.916228
-0.916161
-0.916093
-0.916026
-0.915958
-0.915884
-0.91582
-0.915754
-0.915277
-0.915593
-0.915538
-0.915463
-0.915385
-0.915307
-0.915227
-0.915144
-0.915059
-0.914976
-0.91869
-0.918778
-0.918867
-0.918957
-0.919047
-0.919139
-0.919231
-0.919324
-0.919417
-0.919512
-0.919607
-0.919703
-0.9198
-0.919897
-0.919996
-0.920095
-0.920194
-0.920294
-0.920395
-0.920497
-0.920599
-0.920702
-0.920805
-0.920909
-0.921014
-0.921119
-0.921225
-0.921331
-0.921438
-0.921545
-0.921653
-0.921761
-0.92187
-0.921979
-0.922089
-0.922199
-0.92231
-0.922421
-0.922533
-0.922645
-0.922758
-0.922871
-0.922984
-0.923098
-0.923213
-0.923328
-0.923444
-0.92356
-0.923677
-0.923795
-0.923914
-0.924033
-0.924154
-0.924275
-0.924397
-0.92452
-0.924643
-0.924768
-0.924894
-0.924955
-0.925086
-0.925265
-0.925404
-0.924285
-0.925335
-0.925475
-0.9256
-0.92603
-0.926155
-0.926549
-0.926666
-0.926781
-0.926894
-0.927005
-0.927114
-0.927221
-0.927329
-0.927433
-0.927534
-0.927634
-0.927731
-0.927816
-0.927685
-0.928196
-0.928286
-0.928496
-0.928603
-0.928722
-0.92881
-0.928869
-0.928953
-0.929222
-0.929343
-0.929379
-0.929421
-0.929487
-0.929553
-0.929613
-0.929666
-0.929714
-0.929748
-0.929786
-0.929812
-0.929727
-0.929773
-0.929669
-0.929768
-0.929805
-0.929767
-0.929615
-0.929565
-0.931237
-0.931272
-0.93117
-0.931117
-0.931089
-0.931056
-0.931017
-0.930976
-0.930934
-0.930891
-0.930282
-0.928652
-0.934535
-0.934468
-0.93442
-0.934385
-0.934361
-0.934346
-0.934061
-0.934231
-0.934248
-0.934273
-0.934309
-0.934356
-0.934411
-0.934468
-0.934575
-0.934668
-0.934779
-0.934887
-0.93502
-0.935175
-0.935519
-0.935881
-0.933924
-0.934019
-0.934269
-0.934321
-0.934156
-0.934316
-0.93455
-0.934765
-0.934963
-0.935106
-0.935136
-0.935298
-0.935473
-0.93525
-0.935499
-0.935869
-0.936
-0.936131
-0.936257
-0.936381
-0.936502
-0.936582
-0.936541
-0.936865
-0.936962
-0.937055
-0.937144
-0.93723
-0.937314
-0.937396
-0.937476
-0.937556
-0.937633
-0.937709
-0.937783
-0.937905
-0.937656
-0.938026
-0.938095
-0.938174
-0.938257
-0.938332
-0.938401
-0.938466
-0.938527
-0.93858
-0.938631
-0.938694
-0.938749
-0.938447
-0.939233
-0.939246
-0.939276
-0.939308
-0.939346
-0.939394
-0.939486
-0.939618
-0.939214
-0.93929
-0.939385
-0.939441
-0.939477
-0.939525
-0.939567
-0.939602
-0.939632
-0.939655
-0.939676
-0.939695
-0.93971
-0.93972
-0.939726
-0.93973
-0.939732
-0.939733
-0.939724
-0.939734
-0.939717
-0.939724
-0.939729
-0.939672
-0.939537
-0.939764
-0.939753
-0.939736
-0.939717
-0.939697
-0.939676
-0.939653
-0.939633
-0.939611
-0.939589
-0.939568
-0.939548
-0.939528
-0.939509
-0.939491
-0.939474
-0.939457
-0.939441
-0.939425
-0.93941
-0.939394
-0.939379
-0.939363
-0.939348
-0.939333
-0.939318
-0.939302
-0.939287
-0.939271
-0.939255
-0.939238
-0.939221
-0.939202
-0.939183
-0.939163
-0.939142
-0.93912
-0.939096
-0.939071
-0.939044
-0.939016
-0.938986
-0.938954
-0.938919
-0.938881
-0.938838
-0.938789
-0.938735
-0.938672
-0.938613
-0.938557
-0.938495
-0.938382
-0.938379
-0.938305
-0.938229
-0.938169
-0.938095
-0.938021
-0.937924
-0.937853
-0.937655
-0.937495
-0.937873
-0.937791
-0.937705
-0.937621
-0.937539
-0.937458
-0.937376
-0.937293
-0.937213
-0.939927
-0.940021
-0.940115
-0.94021
-0.940306
-0.940403
-0.9405
-0.940599
-0.940698
-0.940798
-0.940899
-0.941001
-0.941103
-0.941206
-0.94131
-0.941415
-0.94152
-0.941626
-0.941733
-0.941841
-0.941949
-0.942058
-0.942167
-0.942277
-0.942388
-0.9425
-0.942612
-0.942724
-0.942837
-0.942951
-0.943065
-0.94318
-0.943295
-0.94341
-0.943526
-0.943643
-0.94376
-0.943877
-0.943995
-0.944112
-0.944231
-0.944349
-0.944468
-0.944587
-0.944706
-0.944825
-0.944945
-0.945065
-0.945185
-0.945305
-0.945426
-0.945546
-0.945667
-0.945788
-0.945908
-0.946027
-0.946147
-0.946267
-0.946384
-0.946414
-0.946537
-0.946663
-0.946787
-0.946909
-0.946513
-0.947599
-0.947667
-0.947782
-0.948124
-0.94824
-0.948355
-0.948471
-0.948585
-0.9487
-0.948815
-0.948929
-0.949043
-0.949156
-0.949267
-0.949378
-0.949488
-0.94954
-0.949646
-0.949794
-0.949896
-0.949978
-0.949986
-0.950045
-0.951351
-0.951473
-0.951491
-0.95159
-0.951703
-0.951819
-0.951934
-0.95205
-0.952166
-0.952284
-0.952403
-0.952523
-0.952645
-0.952768
-0.952893
-0.953023
-0.953168
-0.953298
-0.953363
-0.951641
-0.951806
-0.95255
-0.952704
-0.95274
-0.952876
-0.953017
-0.95315
-0.953286
-0.953372
-0.953589
-0.953672
-0.953792
-0.953952
-0.95407
-0.951737
-0.954282
-0.95439
-0.954454
-0.95457
-0.954684
-0.954452
-0.954588
-0.954724
-0.954828
-0.954926
-0.955019
-0.955107
-0.955184
-0.955256
-0.955325
-0.95536
-0.955348
-0.955367
-0.955416
-0.955518
-0.955473
-0.955413
-0.955398
-0.955373
-0.95536
-0.955044
-0.952823
-0.956227
-0.956187
-0.955972
-0.955919
-0.955877
-0.955825
-0.95578
-0.955422
-0.953792
-0.958241
-0.958197
-0.958153
-0.958116
-0.958085
-0.95806
-0.958043
-0.957925
-0.957225
-0.959058
-0.959073
-0.959087
-0.959106
-0.959131
-0.95916
-0.959194
-0.95923
-0.959269
-0.95931
-0.959345
-0.959359
-0.959382
-0.959844
-0.95983
-0.959828
-0.959884
-0.959925
-0.959956
-0.960004
-0.960049
-0.960077
-0.96011
-0.960153
-0.960121
-0.959716
-0.959899
-0.959808
-0.959837
-0.960224
-0.960422
-0.960361
-0.96032