/*--------------------------------*- C++ -*----------------------------------*\
| =========                 |                                                 |
| \\      /  F ield         | OpenFOAM: The Open Source CFD Toolbox           |
|  \\    /   O peration     | Version:  2.4.0                                 |
|   \\  /    A nd           | Web:      www.OpenFOAM.org                      |
|    \\/     M anipulation  |                                                 |
\*---------------------------------------------------------------------------*/
FoamFile
{
    version     2.0;
    format      ascii;
    class       volScalarField;
    location    "3";
    object      p_rgh;
}
// * * * * * * * * * * * * * * * * * * * * * * * * * * * * * * * * * * * * * //

dimensions      [1 -1 -2 0 0 0 0];

internalField   nonuniform List<scalar> 
8000
(
52.9376
52.9403
52.9437
52.9479
52.9516
52.9557
52.9599
52.9644
52.9685
52.9731
52.978
52.983
52.9884
52.9939
52.9998
53.006
53.0127
53.0198
53.0275
53.0359
53.0441
53.0526
53.0634
53.0863
53.1355
53.1691
52.9446
51.7848
49.4967
33.0911
15.3317
2.09847
0.153689
0.26055
0.0268326
0.0318296
0.034398
0.0334182
0.0333505
0.0334964
0.033653
0.0337698
0.0338257
0.0338582
0.0338901
0.0339234
0.0339462
0.0339663
0.03398
0.0339876
53.9748
53.9735
53.9739
53.9761
53.98
53.986
53.9936
54.0031
54.0145
54.0281
54.0431
54.0605
54.0802
54.1022
54.1266
54.1538
54.1836
54.2167
54.2521
54.2905
54.3337
54.3949
54.4857
54.5479
54.3027
53.0476
49.2078
29.7616
7.8456
-0.523036
0.34419
0.3129
0.027688
0.0336257
0.0339648
0.0333356
0.0333622
0.0334204
0.0334745
0.033523
0.0335707
0.033632
0.0337015
0.0337866
0.0338362
0.0339175
0.0339768
0.0340479
0.0341156
0.0341788
54.3699
54.379
54.3889
54.3954
54.4
54.4029
54.4039
54.4033
54.401
54.3971
54.3915
54.3843
54.3755
54.365
54.3531
54.3396
54.3241
54.3048
54.2829
54.2725
54.3125
54.3894
54.128
52.4033
48.8867
29.4917
3.96792
-0.0296485
0.312741
0.125249
0.0323075
0.0375257
0.037461
0.0375711
0.037548
0.0373357
0.0371978
0.0370946
0.0370137
0.0369503
0.0369006
0.0368623
0.0368325
0.0368381
0.0367816
0.0367826
0.0367561
0.0367487
0.036741
0.0367322
55.2117
55.2137
55.2135
55.2099
55.2034
55.1942
55.1822
55.1672
55.1494
55.1286
55.1048
55.0779
55.048
55.0148
54.9781
54.9364
54.8895
54.8463
54.8372
54.8701
54.7109
53.5954
50.9637
35.772
4.66385
-0.0989184
0.131343
0.0762467
0.0409593
0.0413917
0.0412621
0.0413046
0.0412666
0.0412636
0.0408812
0.0407332
0.0405996
0.0404313
0.0403133
0.0401959
0.040087
0.0399841
0.0398864
0.0397868
0.0397007
0.0396119
0.0395305
0.039449
0.0393684
0.0392884
57.0247
57.0117
56.9973
56.982
56.9657
56.9484
56.9297
56.9092
56.8874
56.8641
56.8394
56.8129
56.7849
56.7543
56.7208
56.6868
56.6667
56.6772
56.6471
56.2286
54.9849
47.9404
11.3224
0.0128487
0.0734378
0.0524847
0.0424591
0.0419803
0.0419957
0.0419305
0.0418065
0.0417003
0.0419439
0.0419536
0.0412884
0.0411984
0.0411134
0.0410517
0.0409482
0.0408688
0.040798
0.0407266
0.040656
0.0405863
0.04052
0.0404537
0.0403869
0.0403199
0.0402524
0.0401837
58.2676
58.2586
58.2469
58.2335
58.2188
58.2031
58.186
58.167
58.1468
58.1253
58.1022
58.0775
58.0497
58.0193
57.9943
58.001
58.0404
57.897
56.9253
55.018
30.3736
0.962081
0.0543513
0.0437433
0.0407215
0.0410458
0.0411297
0.0411503
0.0411254
0.0411003
0.0410797
0.0410606
0.0410399
0.0410232
0.0410206
0.0409929
0.0409724
0.0409547
0.0409396
0.0409167
0.0408947
0.04087
0.0408437
0.0408152
0.0407842
0.0407505
0.040714
0.0406747
0.0406325
0.0405876
60.43
60.4122
60.3931
60.3746
60.3568
60.3397
60.3226
60.3059
60.2895
60.2737
60.2573
60.239
60.2185
60.2151
60.2782
60.3986
60.1061
58.1095
54.5383
14.9524
0.164269
0.0421401
0.0411272
0.0412452
0.0412169
0.0412038
0.0411946
0.0411841
0.0411687
0.0411523
0.0411366
0.0411213
0.0411057
0.0410916
0.0410789
0.041066
0.0410525
0.0410385
0.0410237
0.0410074
0.0409891
0.0409688
0.0409464
0.0409217
0.0408948
0.0408657
0.0408342
0.0408003
0.0407641
0.0407255
62.2313
62.2064
62.18
62.1556
62.1333
62.1126
62.0933
62.0751
62.0587
62.0427
62.0254
62.0067
62.0075
62.0825
62.2208
61.9033
59.7082
55.8425
11.4469
0.109766
0.0411401
0.0409786
0.0408524
0.0407952
0.0407872
0.0407836
0.0407759
0.0407668
0.0407589
0.0407528
0.0407486
0.040746
0.0407444
0.0407432
0.0407419
0.0407401
0.0407371
0.0407329
0.0407271
0.0407196
0.0407103
0.0406991
0.040686
0.040671
0.0406539
0.0406347
0.0406134
0.0405899
0.0405642
0.0405362
63.6788
63.6586
63.636
63.6142
63.5932
63.5728
63.5525
63.5325
63.5126
63.492
63.4704
63.4543
63.4624
63.4951
63.3913
62.6743
61.3163
21.6938
0.166948
0.0411187
0.0410338
0.0408598
0.0407727
0.0407428
0.0407251
0.0407061
0.0406868
0.0406695
0.0406549
0.0406427
0.0406323
0.040623
0.0406142
0.0406054
0.040596
0.0405858
0.0405747
0.0405624
0.040549
0.0405343
0.0405183
0.040501
0.0404822
0.040462
0.0404402
0.0404169
0.0403919
0.0403653
0.0403369
0.0403068
65.3007
65.2844
65.2666
65.2493
65.2324
65.2157
65.199
65.1822
65.1651
65.147
65.1289
65.1192
65.1324
65.1428
64.9427
64.1548
47.7982
0.75779
0.0407816
0.0405958
0.0403804
0.040266
0.0402276
0.0402068
0.0401851
0.0401633
0.040144
0.0401279
0.0401146
0.0401034
0.0400934
0.0400838
0.0400743
0.0400643
0.0400537
0.0400423
0.04003
0.0400169
0.0400028
0.0399876
0.0399714
0.0399541
0.0399355
0.0399157
0.0398947
0.0398723
0.0398485
0.0398234
0.0397969
0.0397689
66.6793
66.6679
66.6549
66.6422
66.6299
66.618
66.6061
66.5942
66.5817
66.5686
66.5598
66.5702
66.6
66.5236
65.9664
64.9012
16.781
0.0515463
0.039885
0.0397434
0.0396226
0.039572
0.0395489
0.0395283
0.039507
0.0394872
0.0394702
0.0394561
0.0394441
0.0394334
0.0394232
0.039413
0.0394023
0.0393909
0.0393786
0.0393655
0.0393515
0.0393365
0.0393205
0.0393035
0.0392854
0.0392663
0.039246
0.0392245
0.0392019
0.0391781
0.039153
0.0391267
0.039099
0.0390701
68.3779
68.3668
68.3552
68.3445
68.3344
68.3248
68.3156
68.3063
68.2963
68.286
68.2843
68.312
68.3533
68.1838
67.2815
56.8011
0.628696
0.0383784
0.0389529
0.0387393
0.0386373
0.0386063
0.0385897
0.0385705
0.0385502
0.0385317
0.0385162
0.0385032
0.038492
0.0384816
0.0384715
0.038461
0.0384499
0.0384381
0.0384254
0.0384119
0.0383975
0.0383821
0.0383658
0.0383485
0.0383302
0.0383109
0.0382905
0.0382691
0.0382465
0.0382229
0.0381982
0.0381724
0.0381454
0.0381174
69.6099
69.6033
69.5955
69.5879
69.5805
69.5732
69.566
69.5585
69.5504
69.5435
69.5456
69.5638
69.5528
69.319
68.6873
26.7987
0.0433728
0.0377279
0.0375886
0.0374816
0.0374429
0.0374256
0.037408
0.0373882
0.0373689
0.037352
0.0373379
0.0373262
0.037316
0.0373064
0.0372969
0.037287
0.0372763
0.0372649
0.0372527
0.0372395
0.0372255
0.0372105
0.0371946
0.0371777
0.0371598
0.0371408
0.0371209
0.0371
0.037078
0.037055
0.0370309
0.0370059
0.0369797
0.0369526
71.2537
71.2494
71.2451
71.2411
71.2374
71.2337
71.2297
71.2241
71.2173
71.2212
71.2669
71.3432
71.1462
69.8783
67.5708
1.72423
0.0357913
0.0366216
0.0363953
0.0362891
0.0362637
0.0362537
0.0362392
0.0362216
0.0362043
0.036189
0.036176
0.0361648
0.0361547
0.0361449
0.0361349
0.0361242
0.0361126
0.0361002
0.0360868
0.0360725
0.0360572
0.0360409
0.0360237
0.0360055
0.0359862
0.035966
0.0359448
0.0359227
0.0358995
0.0358754
0.0358503
0.0358242
0.0357972
0.0357693
72.4871
72.4842
72.4805
72.4768
72.4734
72.47
72.4665
72.4624
72.4587
72.4626
72.4843
72.4982
72.3345
71.7319
32.6496
0.0370282
0.0349705
0.0347956
0.0346928
0.0346603
0.0346469
0.0346319
0.0346144
0.0345966
0.0345803
0.0345663
0.0345548
0.0345454
0.0345373
0.0345299
0.0345225
0.0345148
0.0345065
0.0344977
0.0344881
0.0344778
0.0344668
0.034455
0.0344423
0.0344288
0.0344145
0.0343993
0.0343832
0.0343662
0.0343483
0.0343295
0.0343097
0.0342891
0.0342676
0.0342451
74.1074
74.1152
74.1232
74.1289
74.1318
74.1319
74.1277
74.1198
74.1208
74.1646
74.2398
74.0192
72.6374
70.3213
1.52283
0.0329545
0.034149
0.0338326
0.0336897
0.033658
0.0336479
0.0336329
0.0336148
0.0335974
0.0335821
0.0335694
0.0335591
0.0335508
0.0335438
0.0335372
0.0335305
0.0335233
0.0335153
0.0335065
0.0334966
0.0334857
0.0334738
0.0334607
0.0334464
0.0334311
0.0334145
0.0333968
0.0333779
0.0333579
0.0333367
0.0333144
0.033291
0.0332665
0.033241
0.0332145
75.248
75.2628
75.2746
75.2815
75.2839
75.2825
75.2771
75.2705
75.2669
75.263
75.2067
74.9843
74.4674
18.4473
0.0304611
0.0314867
0.0312713
0.0311559
0.0311312
0.0311312
0.0311311
0.0311304
0.0311316
0.0311359
0.0311436
0.0311547
0.0311688
0.0311852
0.0312034
0.0312225
0.0312418
0.031261
0.0312798
0.0312978
0.031315
0.0313311
0.0313462
0.0313599
0.0313724
0.0313835
0.0313932
0.0314013
0.031408
0.0314131
0.0314166
0.0314186
0.031419
0.0314179
0.0314153
0.0314111
78.6748
78.6329
78.5919
78.5634
78.5449
78.5381
78.5442
78.5789
78.6364
78.6174
77.9253
75.7866
31.391
0.0291851
0.0315262
0.0311106
0.0309109
0.03089
0.030915
0.0309391
0.0309614
0.0309856
0.0310123
0.0310407
0.0310703
0.0311004
0.0311305
0.0311597
0.0311873
0.0312127
0.0312355
0.0312554
0.0312721
0.0312857
0.0312962
0.0313036
0.031308
0.0313094
0.031308
0.0313039
0.0312971
0.0312877
0.031276
0.031262
0.0312458
0.0312275
0.0312073
0.0311853
0.0311615
0.0311361
80.723
80.6017
80.4823
80.3884
80.3192
80.2892
80.3321
80.4206
80.1542
78.4556
57.3051
0.960119
0.844969
0.0156754
0.0283303
0.0266984
0.0259518
0.025963
0.0261524
0.0263251
0.0264822
0.0266393
0.0267994
0.0269607
0.027121
0.0272791
0.0274339
0.0275845
0.0277301
0.02787
0.0280038
0.0281312
0.0282519
0.0283659
0.0284731
0.0285735
0.0286674
0.0287547
0.0288355
0.0289102
0.0289789
0.0290417
0.0290989
0.0291506
0.0291972
0.0292388
0.0292757
0.029308
0.029336
0.0293599
76.8804
76.7819
76.6774
76.5968
76.567
76.5403
76.152
74.6824
51.7553
2.38963
2.36236
0.0406081
0.0462113
0.0311356
0.0303356
0.0305671
0.0308015
0.0309205
0.0309903
0.0310411
0.0310792
0.0311063
0.0311244
0.0311354
0.0311406
0.0311406
0.0311357
0.0311263
0.0311125
0.0310947
0.0310731
0.031048
0.0310198
0.0309888
0.0309551
0.0309192
0.0308811
0.0308412
0.0307996
0.0307564
0.0307118
0.0306659
0.0306189
0.0305708
0.0305217
0.0304718
0.030421
0.0303695
0.0303174
0.0302647
0.0339892
0.0339852
0.0339758
0.0339614
0.0339419
0.033917
0.0338872
0.0338526
0.0338135
0.0337702
0.0337227
0.0336712
0.0336159
0.0335569
0.0334942
0.033428
0.0333584
0.0332855
0.0332092
0.0331298
0.0330472
0.0329615
0.0328728
0.0327812
0.0326868
0.0325895
0.0324895
0.0323868
0.0322815
0.0321737
0.0320635
0.0319508
0.0318358
0.0317186
0.0315992
0.0314777
0.0313542
0.0312288
0.0311015
0.0309723
0.0308415
0.030709
0.0305749
0.0304394
0.0303024
0.0301641
0.0300245
0.0298836
0.0297414
0.0295984
0.0342372
0.0342904
0.034338
0.0343796
0.0344147
0.0344428
0.0344641
0.0344786
0.0344865
0.0344878
0.0344828
0.0344715
0.0344542
0.0344309
0.0344018
0.0343672
0.0343271
0.0342817
0.0342311
0.0341755
0.034115
0.0340498
0.03398
0.0339056
0.0338269
0.0337439
0.0336568
0.0335657
0.0334706
0.0333718
0.0332693
0.0331632
0.0330536
0.0329406
0.0328244
0.0327049
0.0325824
0.0324569
0.0323286
0.0321974
0.0320635
0.031927
0.0317879
0.0316464
0.0315024
0.0313562
0.0312078
0.0310572
0.0309045
0.0307497
0.0367219
0.0367095
0.0366946
0.0366768
0.0366554
0.03663
0.0366005
0.0365668
0.0365291
0.0364872
0.0364413
0.0363912
0.0363371
0.0362791
0.0362171
0.0361512
0.0360814
0.0360079
0.0359307
0.0358498
0.0357652
0.0356771
0.0355855
0.0354905
0.0353921
0.0352903
0.0351852
0.035077
0.0349656
0.0348511
0.0347336
0.0346131
0.0344897
0.0343636
0.0342347
0.0341031
0.0339689
0.0338322
0.033693
0.0335515
0.0334077
0.0332616
0.0331135
0.0329633
0.0328111
0.0326571
0.0325012
0.0323437
0.0321846
0.0320239
0.0392086
0.0391286
0.0390481
0.0389668
0.0388841
0.0388001
0.0387147
0.0386278
0.0385392
0.0384491
0.0383572
0.0382635
0.0381679
0.0380705
0.0379711
0.0378698
0.0377664
0.037661
0.0375535
0.0374438
0.037332
0.0372181
0.0371019
0.0369836
0.036863
0.0367402
0.0366152
0.0364879
0.0363584
0.0362266
0.0360927
0.0359565
0.0358181
0.0356776
0.0355349
0.0353901
0.0352432
0.0350942
0.0349432
0.0347903
0.0346353
0.0344785
0.0343198
0.0341593
0.033997
0.033833
0.0336673
0.0335
0.0333312
0.0331609
0.0401136
0.0400421
0.0399691
0.0398945
0.0398182
0.0397402
0.0396602
0.0395784
0.0394946
0.0394088
0.039321
0.039231
0.0391388
0.0390445
0.0389479
0.0388491
0.0387481
0.0386447
0.0385389
0.0384309
0.0383204
0.0382076
0.0380924
0.0379748
0.0378548
0.0377325
0.0376077
0.0374805
0.037351
0.0372191
0.0370848
0.0369482
0.0368092
0.036668
0.0365245
0.0363787
0.0362307
0.0360805
0.0359281
0.0357736
0.0356171
0.0354584
0.0352978
0.0351352
0.0349706
0.0348042
0.034636
0.0344659
0.0342942
0.0341208
0.0405399
0.0404894
0.0404361
0.04038
0.0403211
0.0402594
0.0401949
0.0401277
0.0400577
0.0399849
0.0399093
0.039831
0.03975
0.0396662
0.0395797
0.0394905
0.0393986
0.039304
0.0392067
0.0391067
0.039004
0.0388987
0.0387908
0.0386802
0.0385671
0.0384513
0.038333
0.0382121
0.0380887
0.0379628
0.0378344
0.0377035
0.0375703
0.0374346
0.0372966
0.0371562
0.0370135
0.0368686
0.0367214
0.036572
0.0364205
0.0362669
0.0361112
0.0359535
0.0357939
0.0356323
0.0354688
0.0353035
0.0351364
0.0349678
0.0406844
0.0406408
0.0405948
0.0405462
0.0404951
0.0404415
0.0403853
0.0403265
0.0402652
0.0402012
0.0401346
0.0400654
0.0399935
0.0399191
0.0398419
0.0397621
0.0396797
0.0395946
0.0395069
0.0394165
0.0393234
0.0392277
0.0391293
0.0390283
0.0389247
0.0388184
0.0387095
0.0385981
0.038484
0.0383674
0.0382482
0.0381265
0.0380023
0.0378756
0.0377464
0.0376148
0.0374808
0.0373444
0.0372056
0.0370645
0.0369211
0.0367755
0.0366277
0.0364777
0.0363255
0.0361713
0.036015
0.0358567
0.0356964
0.0355342
0.0405059
0.0404733
0.0404383
0.0404009
0.040361
0.0403187
0.0402739
0.0402267
0.0401769
0.0401246
0.0400697
0.0400122
0.0399522
0.0398896
0.0398244
0.0397566
0.0396862
0.0396132
0.0395375
0.0394593
0.0393784
0.0392949
0.0392088
0.0391201
0.0390288
0.0389349
0.0388385
0.0387394
0.0386378
0.0385337
0.038427
0.0383179
0.0382062
0.0380921
0.0379755
0.0378565
0.0377351
0.0376113
0.0374851
0.0373567
0.0372259
0.0370929
0.0369576
0.0368201
0.0366805
0.0365387
0.0363949
0.036249
0.036101
0.0359512
0.0402749
0.0402411
0.0402055
0.040168
0.0401285
0.040087
0.0400436
0.0399981
0.0399505
0.0399009
0.0398491
0.0397953
0.0397392
0.039681
0.0396206
0.039558
0.0394931
0.0394261
0.0393567
0.0392852
0.0392113
0.0391352
0.0390568
0.0389761
0.0388931
0.0388078
0.0387202
0.0386303
0.0385382
0.0384437
0.038347
0.038248
0.0381467
0.0380432
0.0379374
0.0378294
0.0377192
0.0376067
0.0374921
0.0373753
0.0372564
0.0371353
0.0370121
0.0368868
0.0367595
0.0366301
0.0364987
0.0363653
0.0362299
0.0360927
0.0397393
0.0397083
0.0396757
0.0396414
0.0396055
0.039568
0.0395287
0.0394877
0.039445
0.0394005
0.0393542
0.039306
0.039256
0.0392041
0.0391504
0.0390947
0.0390371
0.0389776
0.0389161
0.0388527
0.0387873
0.0387199
0.0386505
0.0385791
0.0385057
0.0384303
0.0383529
0.0382735
0.038192
0.0381086
0.0380231
0.0379356
0.0378461
0.0377546
0.0376611
0.0375656
0.0374681
0.0373687
0.0372673
0.0371639
0.0370586
0.0369514
0.0368422
0.0367312
0.0366183
0.0365035
0.0363869
0.0362684
0.0361481
0.0360261
0.0390399
0.0390083
0.0389753
0.038941
0.0389053
0.0388681
0.0388295
0.0387895
0.038748
0.038705
0.0386605
0.0386144
0.0385669
0.0385178
0.0384671
0.0384149
0.0383611
0.0383057
0.0382487
0.0381901
0.0381298
0.038068
0.0380045
0.0379394
0.0378726
0.0378042
0.0377341
0.0376623
0.0375889
0.0375138
0.0374371
0.0373587
0.0372786
0.0371968
0.0371134
0.0370283
0.0369415
0.0368531
0.036763
0.0366712
0.0365779
0.0364828
0.0363862
0.0362879
0.0361881
0.0360866
0.0359836
0.0358789
0.0357726
0.0356648
0.0380881
0.0380577
0.0380262
0.0379934
0.0379595
0.0379244
0.037888
0.0378505
0.0378117
0.0377717
0.0377305
0.037688
0.0376442
0.0375992
0.0375529
0.0375053
0.0374563
0.0374061
0.0373546
0.0373018
0.0372476
0.0371921
0.0371353
0.0370771
0.0370176
0.0369567
0.0368944
0.0368308
0.0367658
0.0366994
0.0366316
0.0365625
0.036492
0.0364201
0.0363469
0.0362723
0.0361963
0.0361189
0.0360402
0.0359601
0.0358787
0.0357959
0.0357117
0.0356263
0.0355394
0.0354513
0.0353618
0.035271
0.0351787
0.0350854
0.0369243
0.0368951
0.0368648
0.0368334
0.036801
0.0367675
0.0367329
0.0366973
0.0366607
0.0366229
0.0365841
0.0365443
0.0365034
0.0364613
0.0364183
0.0363741
0.0363289
0.0362825
0.0362351
0.0361866
0.036137
0.0360863
0.0360346
0.0359817
0.0359278
0.0358728
0.0358167
0.0357595
0.0357013
0.035642
0.0355816
0.0355201
0.0354575
0.0353939
0.0353292
0.0352635
0.0351967
0.0351288
0.0350598
0.0349898
0.0349187
0.0348465
0.0347733
0.034699
0.0346236
0.0345473
0.0344698
0.0343913
0.0343116
0.0342309
0.0357404
0.0357106
0.0356798
0.0356481
0.0356155
0.035582
0.0355476
0.0355123
0.0354761
0.035439
0.0354011
0.0353622
0.0353225
0.035282
0.0352405
0.0351982
0.0351551
0.0351111
0.0350663
0.0350206
0.0349741
0.0349268
0.0348786
0.0348297
0.0347799
0.0347293
0.0346779
0.0346256
0.0345725
0.0345187
0.034464
0.0344085
0.0343522
0.0342951
0.0342372
0.0341786
0.0341189
0.0340585
0.0339973
0.0339353
0.0338726
0.033809
0.0337446
0.0336795
0.0336135
0.0335468
0.0334793
0.033411
0.0333417
0.0332719
0.0342217
0.0341975
0.0341723
0.0341463
0.0341193
0.0340915
0.0340628
0.0340332
0.0340028
0.0339715
0.0339393
0.0339064
0.0338726
0.033838
0.0338025
0.0337663
0.0337293
0.0336914
0.0336528
0.0336135
0.0335733
0.0335324
0.0334908
0.0334484
0.0334053
0.0333614
0.0333168
0.0332716
0.0332256
0.0331788
0.0331314
0.0330834
0.0330346
0.0329851
0.032935
0.0328841
0.0328328
0.0327808
0.0327281
0.0326747
0.0326207
0.0325661
0.0325108
0.0324549
0.0323984
0.0323412
0.0322834
0.032225
0.0321658
0.032106
0.033187
0.0331585
0.033129
0.0330986
0.0330674
0.0330353
0.0330023
0.0329686
0.032934
0.0328988
0.0328627
0.032826
0.0327886
0.0327505
0.0327118
0.0326724
0.0326325
0.0325919
0.0325508
0.0325092
0.032467
0.0324243
0.032381
0.0323373
0.0322931
0.0322484
0.0322032
0.0321576
0.0321116
0.0320651
0.0320182
0.0319709
0.0319232
0.0318751
0.0318265
0.0317776
0.0317283
0.0316786
0.0316286
0.0315781
0.0315273
0.0314761
0.0314246
0.0313727
0.0313204
0.0312678
0.0312148
0.0311614
0.0311075
0.0310534
0.0314054
0.0313982
0.0313896
0.0313796
0.0313681
0.0313553
0.0313411
0.0313257
0.031309
0.031291
0.0312718
0.0312515
0.03123
0.0312074
0.0311837
0.031159
0.0311332
0.0311065
0.0310789
0.0310503
0.0310208
0.0309904
0.0309592
0.0309272
0.0308945
0.0308609
0.0308266
0.0307916
0.0307559
0.0307195
0.0306825
0.0306448
0.0306066
0.0305677
0.0305282
0.0304882
0.0304477
0.0304066
0.030365
0.0303229
0.0302804
0.0302373
0.0301938
0.0301498
0.0301054
0.0300606
0.0300153
0.0299696
0.0299234
0.0298767
0.0311091
0.0310807
0.031051
0.03102
0.0309877
0.0309544
0.03092
0.0308847
0.0308484
0.0308113
0.0307734
0.0307348
0.0306954
0.0306555
0.0306149
0.0305738
0.0305322
0.0304901
0.0304476
0.0304047
0.0303614
0.0303177
0.0302737
0.0302294
0.0301849
0.0301401
0.030095
0.0300497
0.0300043
0.0299586
0.0299128
0.0298668
0.0298206
0.0297743
0.0297279
0.0296814
0.0296348
0.029588
0.0295412
0.0294943
0.0294472
0.0294002
0.029353
0.0293057
0.0292584
0.029211
0.0291635
0.0291159
0.0290682
0.0290206
0.0293798
0.029396
0.0294087
0.029418
0.0294241
0.0294272
0.0294274
0.0294249
0.0294199
0.0294124
0.0294026
0.0293906
0.0293766
0.0293607
0.0293429
0.0293235
0.0293024
0.0292797
0.0292556
0.0292302
0.0292035
0.0291755
0.0291465
0.0291163
0.0290852
0.0290531
0.0290201
0.0289863
0.0289516
0.0289163
0.0288802
0.0288435
0.0288061
0.0287682
0.0287297
0.0286907
0.0286513
0.0286113
0.028571
0.0285303
0.0284891
0.0284477
0.0284059
0.0283638
0.0283214
0.0282787
0.0282357
0.0281925
0.0281491
0.0281052
0.0302114
0.0301576
0.0301034
0.0300488
0.0299939
0.0299387
0.0298833
0.0298276
0.0297718
0.0297158
0.0296597
0.0296035
0.0295473
0.029491
0.0294348
0.0293785
0.0293224
0.0292662
0.0292102
0.0291543
0.0290984
0.0290427
0.0289871
0.0289317
0.0288765
0.0288214
0.0287665
0.0287117
0.0286572
0.0286029
0.0285487
0.0284948
0.028441
0.0283875
0.0283342
0.0282811
0.0282283
0.0281756
0.0281232
0.028071
0.028019
0.0279672
0.0279157
0.0278643
0.0278132
0.0277623
0.0277116
0.0276611
0.0276109
0.0275609
0.0294881
0.0294106
0.0293324
0.0292534
0.0291737
0.0290933
0.0290122
0.0289304
0.0288479
0.0287647
0.0286807
0.0285961
0.0285108
0.0284247
0.028338
0.0282504
0.0281622
0.0280732
0.0279834
0.0278928
0.0278013
0.027709
0.0276159
0.0275218
0.0274267
0.0273306
0.0272335
0.0271352
0.0270358
0.0269351
0.026833
0.0267295
0.0266244
0.0265176
0.026409
0.0262985
0.0261858
0.0260709
0.0259534
0.0258331
0.0257099
0.0255833
0.0254532
0.0253191
0.0251807
0.0250375
0.0248891
0.0247349
0.0245745
0.0244071
0.024232
0.0240486
0.0238559
0.023653
0.023439
0.0232128
0.0229733
0.022719
0.0224487
0.0221609
0.0218541
0.0215252
0.0212016
0.0210665
0.0263318
0.0279969
0.0251359
0.024748
0.0243851
0.0240426
0.0237016
0.0233923
0.0230999
0.0228212
0.0225572
0.0223958
0.022023
0.0217677
0.0215277
0.0212941
0.0211418
0.0223186
0.0227846
0.0206313
0.0204311
0.0202429
0.0200591
0.0198872
0.0197229
0.0195969
0.0195863
0.0194157
0.0190709
0.0189825
0.0190502
0.0193249
0.0191952
0.0188471
0.0185702
0.0184421
0.0183243
0.0182078
0.0180952
0.0179852
0.0178779
0.0178241
0.018411
0.0171442
0.0170414
0.0169267
0.0168062
0.0166806
0.0166292
0.0168107
0.0176369
0.0174687
0.0169371
0.0165909
0.0165466
0.0154265
0.0157631
0.0190256
0.0184195
0.0174387
0.0170495
0.0168728
0.0167008
0.016533
0.0163678
0.0162039
0.0160393
0.015873
0.0157061
0.015528
0.0153879
0.0159064
0.0157067
0.0162505
0.0153475
0.0168459
0.0165208
0.0170549
0.016843
0.016228
0.0178846
0.0140292
0.0139777
0.0139676
0.0139632
0.0140092
0.0140254
0.0139219
0.0145712
0.0184843
0.0105874
0.0102241
0.010357
0.0104869
0.0105958
0.0106869
0.0107806
0.0110118
0.010768
0.0108247
0.0107012
0.0108346
0.0107993
0.0107591
0.0107507
0.0107345
0.010713
0.0106865
0.0106555
0.0106199
0.0105799
0.0105357
0.0104918
0.0104452
0.0103959
0.0103442
0.0102903
0.0102341
0.0102212
0.0108227
0.0101774
0.0100668
0.0100151
0.00996389
0.00991412
0.00986627
0.00982049
0.00977548
0.00973167
0.00976878
0.00964492
0.00960211
0.00956897
0.00953853
0.00951021
0.00948444
0.00946097
0.0094395
0.00941993
0.00940346
0.00939116
0.00938345
0.00937874
0.00937684
0.00937663
0.00937812
0.00938133
0.00938623
0.00939273
0.00940078
0.00941032
0.00942133
0.00943376
0.00944758
0.0094627
0.00947905
0.00949658
0.00951533
0.0095352
0.0095561
0.00957794
0.00960068
0.00962446
0.00964955
0.00967602
0.0097038
0.0097327
0.00976258
0.00979332
0.00982483
0.00985703
0.00988985
0.00992318
0.00995684
0.00999067
0.0100245
0.0100583
0.0100918
0.010125
0.0101577
0.0101902
0.0102219
0.0102522
0.0102813
0.0103094
0.0103369
0.0103677
0.0103916
0.0104142
0.0104525
0.0104976
0.0104773
0.0104827
0.0104989
0.010515
0.0105637
0.0109596
0.0107787
0.0107255
0.0107477
0.0107676
0.0107887
0.0108098
0.0108354
0.0108639
0.0108896
0.0110163
0.011419
0.0114435
0.0111963
0.0112044
0.0112532
0.0113171
0.0113782
0.0114583
0.0115223
0.0115771
0.0116487
0.0117218
0.0117993
0.0118709
0.011996
0.0123634
0.0124169
0.0122513
0.0123024
0.0123742
0.0124479
0.012508
0.012584
0.012665
0.0127479
0.0128328
0.0129201
0.0130093
0.0130971
0.0306288
0.0305434
0.030457
0.0303697
0.0302815
0.0301925
0.0301026
0.0300118
0.0299202
0.0298277
0.0297345
0.0296404
0.0295455
0.0294499
0.0293535
0.0292563
0.0291584
0.0290598
0.0289605
0.0288605
0.0287598
0.0286585
0.0285565
0.028454
0.0283509
0.0282472
0.0281431
0.0280384
0.0279333
0.0278279
0.027722
0.0276159
0.0275094
0.0274028
0.027296
0.0271891
0.0270822
0.0269754
0.0268687
0.0267623
0.0266562
0.0265506
0.0264455
0.0263412
0.0262378
0.0261354
0.0260343
0.0259347
0.0258367
0.0257407
0.0256469
0.0255557
0.0254675
0.0253828
0.025302
0.0252258
0.0251547
0.0250893
0.02503
0.0249778
0.0249344
0.0248989
0.0249052
0.0251032
0.0282254
0.023102
0.0230306
0.0230214
0.0230218
0.022705
0.0226547
0.0225987
0.022533
0.0224632
0.0223837
0.0224105
0.0221884
0.0220769
0.0219651
0.021848
0.0217554
0.0223459
0.0219811
0.0216967
0.0215739
0.021448
0.0213281
0.0212098
0.021086
0.0209857
0.0209491
0.0210786
0.0210392
0.0209661
0.0205346
0.0200825
0.0199142
0.0198195
0.0197156
0.0196122
0.0195119
0.0194147
0.0193193
0.0192406
0.0192066
0.0191508
0.0188325
0.0190251
0.0188839
0.0187675
0.018927
0.0194305
0.0192999
0.0187608
0.0179187
0.0176704
0.0176116
0.0175203
0.0174015
0.017532
0.0180812
0.0197434
0.0185204
0.0175995
0.0173527
0.0172444
0.0171364
0.0170282
0.016922
0.0168194
0.0167499
0.0166115
0.0165167
0.016429
0.0163357
0.016313
0.0165468
0.0159285
0.0158749
0.0158155
0.0157923
0.0160442
0.0166606
0.0181714
0.0152841
0.0145273
0.014515
0.0143838
0.0140393
0.0138398
0.0135379
0.0136663
0.0187884
0.0183568
0.0164437
0.0153883
0.015119
0.0148899
0.0145797
0.014453
0.0142874
0.0138898
0.0137014
0.0135592
0.0134216
0.0132878
0.0131581
0.0131765
0.0129778
0.0128541
0.012748
0.0126438
0.0125452
0.01245
0.012358
0.0122694
0.0121795
0.0120918
0.0120058
0.0119216
0.0118416
0.0117663
0.0116939
0.0116352
0.0116325
0.0115797
0.0114145
0.0113002
0.0112454
0.0111929
0.0111439
0.0110969
0.0110562
0.0110922
0.0113627
0.0106521
0.010611
0.0105645
0.0105205
0.0104771
0.0104396
0.0104118
0.0103867
0.0103636
0.0103575
0.0103458
0.0103329
0.0103186
0.010304
0.0102912
0.0102799
0.0102706
0.010263
0.0102568
0.0102521
0.0102489
0.0102473
0.0102472
0.0102487
0.0102513
0.0102549
0.0102594
0.0102651
0.0102716
0.0102778
0.0102834
0.0102897
0.0103002
0.0103144
0.0103313
0.01035
0.0103697
0.0103904
0.0104124
0.0104356
0.0104596
0.0104843
0.0105094
0.0105348
0.0105602
0.0105855
0.0106108
0.0106358
0.0106605
0.0106847
0.0107085
0.0107317
0.0107546
0.010777
0.010799
0.0108205
0.0108411
0.0108617
0.0108821
0.0109015
0.0109215
0.0109416
0.0109622
0.010984
0.0110068
0.0110325
0.0110632
0.0110932
0.0111225
0.0111518
0.0111812
0.0112112
0.011242
0.0112739
0.0113093
0.0113456
0.011383
0.01143
0.0114696
0.0115433
0.0118888
0.011907
0.0118171
0.0118237
0.011863
0.0119127
0.0119701
0.0120325
0.0120982
0.0121658
0.0122335
0.012302
0.0123758
0.0124398
0.0125556
0.0131542
0.0127257
0.0127069
0.0127783
0.0128505
0.0129234
0.0129995
0.0130797
0.0131632
0.0132462
0.0318993
0.0318114
0.0317226
0.0316329
0.0315424
0.0314511
0.031359
0.0312661
0.0311724
0.031078
0.0309827
0.0308868
0.0307901
0.0306927
0.0305946
0.0304958
0.0303963
0.0302961
0.0301953
0.0300939
0.0299918
0.0298891
0.0297858
0.029682
0.0295775
0.0294726
0.029367
0.029261
0.0291544
0.0290473
0.0289397
0.0288317
0.0287231
0.0286141
0.0285047
0.0283947
0.0282843
0.0281735
0.0280622
0.0279504
0.0278381
0.0277254
0.0276122
0.0274984
0.0273841
0.0272692
0.0271537
0.0270375
0.0269206
0.0268029
0.0266843
0.026565
0.026445
0.0263241
0.0262024
0.0260801
0.0259571
0.0258313
0.0257052
0.0256506
0.0255126
0.0253371
0.0252634
0.0264936
0.0253641
0.0251343
0.0250089
0.0246071
0.0244825
0.0240626
0.0239356
0.023819
0.023705
0.0235933
0.0234847
0.0233771
0.0232698
0.0231662
0.0230657
0.0229655
0.0228684
0.0228082
0.0229599
0.0224056
0.0223164
0.0221193
0.0220657
0.0220438
0.0222105
0.0222737
0.022188
0.0219024
0.021399
0.0212294
0.0211801
0.0211129
0.0210467
0.0209867
0.0209328
0.020885
0.0208498
0.0208283
0.0208565
0.0209542
0.0209057
0.0209954
0.0209075
0.0210895
0.0217562
0.0222078
0.0222547
0.0203963
0.0194986
0.0194406
0.0194883
0.0195162
0.0195501
0.0195887
0.01963
0.0196816
0.0199448
0.0211066
0.0229185
0.0162381
0.0161369
0.016183
0.0162181
0.0162425
0.0162652
0.0165853
0.0163942
0.0163531
0.0163276
0.0162913
0.0162439
0.0161885
0.0161288
0.016035
0.0159789
0.0160958
0.0166138
0.0166715
0.0165165
0.0161582
0.0150544
0.0167106
0.0165955
0.0167105
0.0177172
0.01818
0.0180206
0.0177865
0.0174103
0.0159746
0.0155212
0.0154702
0.0153078
0.015171
0.0154818
0.0152165
0.0147376
0.0146056
0.0144748
0.014348
0.0142247
0.0141033
0.014046
0.0141143
0.0137451
0.0136413
0.0135491
0.0134598
0.013374
0.0132905
0.0132089
0.0131287
0.0130495
0.012973
0.0128977
0.0128213
0.0127275
0.0130344
0.0126157
0.012511
0.0124318
0.0123489
0.012274
0.012204
0.0121383
0.0120763
0.0120222
0.01197
0.0119222
0.0119454
0.0123091
0.0113741
0.0113577
0.0113284
0.0112978
0.0112625
0.0112127
0.0111473
0.0111559
0.0116384
0.0115628
0.011364
0.0111689
0.0111301
0.0110844
0.0110431
0.011006
0.0109735
0.0109498
0.0109288
0.0109107
0.010896
0.0108858
0.0108791
0.0108755
0.0108738
0.0108735
0.0108845
0.0108724
0.0108838
0.0108789
0.0108769
0.0109816
0.0111482
0.010855
0.0108562
0.0108728
0.0108917
0.0109118
0.0109328
0.0109541
0.0109721
0.0109916
0.0110124
0.0110328
0.0110526
0.0110719
0.0110906
0.0111087
0.0111262
0.011143
0.0111593
0.0111752
0.0111911
0.0112068
0.0112226
0.0112384
0.0112541
0.0112696
0.0112853
0.0113012
0.0113172
0.0113335
0.0113502
0.0113674
0.0113853
0.0114041
0.0114238
0.0114443
0.0114657
0.0114885
0.0115128
0.0115388
0.0115664
0.0115959
0.0116274
0.0116613
0.0116981
0.011739
0.0117852
0.0118376
0.0118942
0.0119587
0.0120175
0.0120745
0.0121411
0.0122704
0.0122493
0.0123226
0.0124082
0.0124582
0.0125343
0.0126138
0.0127035
0.0128473
0.0132416
0.0134162
0.0128911
0.0128321
0.0129152
0.0129924
0.0130658
0.0131397
0.0132165
0.0132964
0.013376
0.0330289
0.0329356
0.0328414
0.0327463
0.0326504
0.0325537
0.0324561
0.0323577
0.0322585
0.0321585
0.0320577
0.0319561
0.0318537
0.0317506
0.0316468
0.0315422
0.0314368
0.0313308
0.0312241
0.0311167
0.0310086
0.0308998
0.0307904
0.0306804
0.0305698
0.0304586
0.0303468
0.0302345
0.0301216
0.0300082
0.0298942
0.0297798
0.029665
0.0295496
0.0294339
0.0293177
0.0292011
0.0290842
0.0289669
0.0288492
0.0287313
0.028613
0.0284945
0.0283757
0.0282567
0.0281374
0.0280178
0.0278979
0.0277779
0.0276576
0.0275373
0.0274169
0.0272967
0.0271767
0.0270568
0.026938
0.0268179
0.0266981
0.0265807
0.0265591
0.026428
0.0263019
0.026196
0.0261217
0.026564
0.0253908
0.0253189
0.0252228
0.0248613
0.0247267
0.0246102
0.0244944
0.0243792
0.0242646
0.0241499
0.0240354
0.0239219
0.0238095
0.0236984
0.0235871
0.0234771
0.0234327
0.0233192
0.0231762
0.0231875
0.0234551
0.0236357
0.0235796
0.0221521
0.0215672
0.0214779
0.021377
0.0212629
0.0211473
0.0210312
0.0209158
0.0207993
0.0206814
0.0205621
0.0204415
0.0203197
0.0201966
0.0200712
0.0199415
0.0198071
0.0199401
0.020629
0.0226021
0.0224373
0.0213756
0.020366
0.0202321
0.0200962
0.0199558
0.0198224
0.0197026
0.0196211
0.0193921
0.0193004
0.0191803