/*--------------------------------*- C++ -*----------------------------------*\
| =========                 |                                                 |
| \\      /  F ield         | OpenFOAM: The Open Source CFD Toolbox           |
|  \\    /   O peration     | Version:  2.4.0                                 |
|   \\  /    A nd           | Web:      www.OpenFOAM.org                      |
|    \\/     M anipulation  |                                                 |
\*---------------------------------------------------------------------------*/
FoamFile
{
    version     2.0;
    format      ascii;
    class       surfaceScalarField;
    location    "3";
    object      phi;
}
// * * * * * * * * * * * * * * * * * * * * * * * * * * * * * * * * * * * * * //

dimensions      [0 3 -1 0 0 0 0];

internalField   nonuniform List<scalar> 
15580
(
1.76018e-14
-2.2174e-12
8.54188e-14
-6.54988e-12
2.09308e-13
-1.07872e-11
3.89223e-13
-1.49337e-11
6.24994e-13
-1.89936e-11
9.14669e-13
-2.29682e-11
1.2578e-12
-2.68627e-11
1.65177e-12
-3.06762e-11
2.0979e-12
-3.44159e-11
2.59491e-12
-3.80791e-11
3.14816e-12
-4.1676e-11
3.75945e-12
-4.52012e-11
4.44072e-12
-4.86695e-11
5.19837e-12
-5.20715e-11
6.05313e-12
-5.54279e-11
7.01701e-12
-5.87228e-11
8.121e-12
-6.19852e-11
9.38291e-12
-6.51892e-11
1.08438e-11
-6.83737e-11
1.25257e-11
-7.14983e-11
1.44756e-11
-7.46128e-11
1.67164e-11
-7.76572e-11
1.9294e-11
-8.06932e-11
2.22422e-11
-8.36525e-11
2.56094e-11
-8.66095e-11
2.88294e-11
-8.88745e-11
3.16839e-11
-9.10349e-11
2.62633e-11
-9.52503e-11
-8.22027e-12
-9.14906e-11
-1.63563e-11
-8.46317e-11
-1.09567e-10
2.12604e-12
-7.85945e-11
-1.18807e-10
-5.95992e-11
-9.34128e-11
-3.01485e-10
2.34887e-10
-5.37746e-10
1.12779e-10
-5.43031e-10
6.91131e-11
-5.79775e-10
5.08615e-11
-5.96093e-10
-2.85514e-12
-5.64951e-10
-5.40651e-11
-5.0969e-10
-1.00756e-10
-4.38995e-10
-1.46302e-10
-3.63303e-10
-1.87634e-10
-2.98098e-10
-2.24982e-10
-2.42021e-10
-2.58765e-10
-1.92613e-10
-2.89248e-10
-1.49669e-10
-3.16699e-10
-1.12897e-10
-3.41327e-10
-8.16843e-11
-3.6339e-10
-5.56532e-11
-3.83073e-10
-4.00616e-10
-3.45701e-11
-3.72781e-14
-2.18012e-12
-1.05598e-13
-6.48156e-12
-1.80789e-13
-1.0712e-11
-2.52317e-13
-1.48622e-11
-3.13375e-13
-1.89326e-11
-3.62298e-13
-2.29193e-11
-3.97969e-13
-2.6827e-11
-4.22649e-13
-3.06516e-11
-4.36173e-13
-3.44024e-11
-4.4085e-13
-3.80745e-11
-4.33548e-13
-4.16833e-11
-4.13186e-13
-4.52216e-11
-3.70441e-13
-4.87123e-11
-2.97613e-13
-5.21443e-11
-1.76754e-13
-5.55488e-11
9.56863e-15
-5.89091e-11
2.88863e-13
-6.22645e-11
6.91258e-13
-6.55916e-11
1.25175e-12
-6.89342e-11
2.01625e-12
-7.22628e-11
3.02562e-12
-7.56222e-11
4.35728e-12
-7.89889e-11
6.05821e-12
-8.23941e-11
7.41753e-12
-8.50118e-11
8.32608e-12
-8.75181e-11
-1.37996e-12
-9.13517e-11
-4.07191e-11
-8.97238e-11
-5.5275e-11
-8.11745e-11
-1.72584e-10
2.58117e-11
-1.44602e-10
-1.12614e-10
-1.33915e-10
-8.56073e-12
-3.63675e-10
1.10953e-10
-4.91947e-10
3.48588e-11
-4.15543e-10
1.58484e-10
-4.36422e-10
1.33658e-10
-4.14853e-10
4.75443e-11
-3.49732e-10
-1.42594e-11
-2.84094e-10
-6.8494e-11
-2.21774e-10
-1.16385e-10
-1.63741e-10
-1.58788e-10
-1.13396e-10
-1.96647e-10
-7.05086e-11
-2.30521e-10
-3.46903e-11
-2.608e-10
-5.71277e-12
-2.87743e-10
1.67674e-11
-3.11728e-10
3.30827e-11
-3.33014e-10
4.35721e-11
-3.51817e-10
4.85949e-11
-3.68413e-10
4.85404e-11
-3.83018e-10
-3.95888e-10
4.38119e-11
1.05717e-13
-2.28584e-12
3.81475e-13
-6.75732e-12
7.92046e-13
-1.11226e-11
1.30552e-12
-1.53756e-11
1.89027e-12
-1.95173e-11
2.51553e-12
-2.35446e-11
3.15102e-12
-2.74625e-11
3.76757e-12
-3.12681e-11
4.33678e-12
-3.49716e-11
4.8313e-12
-3.8569e-11
5.22519e-12
-4.20772e-11
5.49325e-12
-4.54896e-11
5.61334e-12
-4.88324e-11
5.56311e-12
-5.20941e-11
5.32714e-12
-5.53128e-11
4.88731e-12
-5.84693e-11
4.24042e-12
-6.16176e-11
3.37523e-12
-6.47264e-11
2.3129e-12
-6.78719e-11
1.05766e-12
-7.10076e-11
-3.30238e-13
-7.42343e-11
-2.10959e-12
-7.72095e-11
-4.24572e-12
-8.0258e-11
-1.04365e-11
-8.55415e-11
-8.89981e-11
-8.43638e-11
-1.02857e-10
-7.9203e-11
-2.02717e-10
1.01365e-11
-1.99619e-10
-8.42721e-11
-1.79858e-10
6.04995e-12
-3.10113e-10
1.76417e-11
-3.11185e-10
-7.48962e-12
-2.50243e-10
5.00112e-11
-2.51334e-10
3.59494e-11
-9.32323e-11
3.82346e-13
7.64767e-11
-3.60514e-11
1.96095e-10
-7.20742e-11
2.87942e-10
-1.06106e-10
3.57179e-10
-1.37731e-10
4.07731e-10
-1.66937e-10
4.4267e-10
-1.93728e-10
4.64168e-10
-2.18145e-10
4.73938e-10
-2.40291e-10
4.7343e-10
-2.60292e-10
4.63947e-10
-2.7826e-10
4.46614e-10
-2.94395e-10
4.22475e-10
-3.08876e-10
3.92521e-10
-3.21862e-10
3.57646e-10
-3.33538e-10
3.18695e-10
-3.44067e-10
-3.53619e-10
2.76426e-10
6.14188e-14
-2.34726e-12
1.72415e-13
-6.86832e-12
2.81562e-13
-1.12317e-11
3.48839e-13
-1.54429e-11
3.36961e-13
-1.95054e-11
2.08802e-13
-2.34164e-11
-7.1257e-14
-2.71824e-11
-5.40926e-13
-3.07984e-11
-1.23722e-12
-3.42753e-11
-2.20167e-12
-3.76045e-11
-3.47545e-12
-4.08034e-11
-5.107e-12
-4.38581e-11
-7.14363e-12
-4.67957e-11
-9.64351e-12
-4.95942e-11
-1.26608e-11
-5.22955e-11
-1.62661e-11
-5.48641e-11
-2.05186e-11
-5.73651e-11
-2.55015e-11
-5.97435e-11
-3.12694e-11
-6.2104e-11
-3.79203e-11
-6.43567e-11
-4.55686e-11
-6.6586e-11
-5.41016e-11
-6.93734e-11
-1.14015e-10
-7.07236e-11
-1.45701e-10
-7.08689e-11
-2.00227e-10
-2.99589e-11
-1.78571e-10
-1.0086e-10
-1.15587e-10
-5.2847e-11
-1.75437e-10
-2.44221e-11
-1.39546e-10
-2.98417e-11
-9.10895e-11
-3.08144e-11
-5.08767e-11
-4.77024e-11
6.37266e-11
-6.45921e-11
1.80062e-10
-8.03864e-11
2.78381e-10
-9.79365e-11
3.57012e-10
-1.14682e-10
4.1656e-10
-1.31622e-10
4.58747e-10
-1.48293e-10
4.85479e-10
-1.64464e-10
4.98489e-10
-1.79947e-10
4.99403e-10
-1.94641e-10
4.89719e-10
-2.08461e-10
4.70797e-10
-2.21369e-10
4.43888e-10
-2.33382e-10
4.10195e-10
-2.44567e-10
3.70793e-10
-2.54993e-10
3.26644e-10
-2.64727e-10
2.78638e-10
-2.73856e-10
2.27561e-10
-2.82462e-10
1.74123e-10
-2.90629e-10
-2.98433e-10
1.18937e-10
-1.17277e-13
-2.22998e-12
-4.4653e-13
-6.53907e-12
-9.92609e-13
-1.06857e-11
-1.77392e-12
-1.46616e-11
-2.80871e-12
-1.84707e-11
-4.11732e-12
-2.21078e-11
-5.721e-12
-2.55788e-11
-7.64491e-12
-2.88745e-11
-9.91634e-12
-3.20039e-11
-1.25681e-11
-3.49528e-11
-1.56368e-11
-3.77347e-11
-1.91659e-11
-4.0329e-11
-2.32055e-11
-4.27561e-11
-2.78131e-11
-4.49866e-11
-3.30579e-11
-4.70506e-11
-3.90153e-11
-4.89067e-11
-4.57781e-11
-5.06023e-11
-5.34338e-11
-5.20878e-11
-6.2102e-11
-5.34358e-11
-7.19375e-11
-5.45212e-11
-9.4604e-11
-5.59468e-11
-1.49662e-10
-5.6815e-11
-1.74516e-10
-4.62344e-11
-1.68594e-10
-7.67906e-11
-1.35348e-10
-6.32054e-11
-1.8942e-10
-4.67872e-11
-1.76776e-10
-6.54917e-11
-1.38007e-10
-6.31905e-11
-9.59365e-11
-7.19124e-11
-4.52073e-11
-8.15436e-11
-2.37787e-12
-9.05319e-11
3.27345e-11
-9.97044e-11
6.13026e-11
-1.08955e-10
8.32601e-11
-1.19894e-10
9.82119e-11
-1.29634e-10
1.05982e-10
-1.39392e-10
1.06687e-10
-1.48998e-10
1.00598e-10
-1.58376e-10
8.81156e-11
-1.67464e-10
6.97049e-11
-1.76231e-10
4.59179e-11
-1.84674e-10
1.7363e-11
-1.92814e-10
-1.53467e-11
-2.00673e-10
-5.16261e-11
-2.08288e-10
-9.09244e-11
-2.15694e-10
-1.32725e-10
-2.22927e-10
-1.76563e-10
-2.30017e-10
-2.22032e-10
-2.36993e-10
-2.6878e-10
-2.43881e-10
-2.507e-10
-3.16514e-10
-4.6497e-14
-2.18348e-12
-2.46813e-13
-6.33875e-12
-6.36635e-13
-1.02958e-11
-1.23753e-12
-1.40607e-11
-2.07333e-12
-1.76349e-11
-3.16464e-12
-2.10165e-11
-4.53678e-12
-2.42066e-11
-6.21004e-12
-2.72013e-11
-8.21262e-12
-3.00013e-11
-1.05652e-11
-3.26003e-11
-1.33006e-11
-3.49993e-11
-1.64406e-11
-3.7189e-11
-2.00254e-11
-3.91713e-11
-2.40785e-11
-4.09334e-11
-2.86497e-11
-4.24794e-11
-3.37634e-11
-4.3793e-11
-3.94846e-11
-4.48811e-11
-4.58617e-11
-4.57108e-11
-5.30276e-11
-4.62699e-11
-1.06001e-10
-4.73081e-11
-1.37946e-10
-4.84241e-11
-1.44809e-10
-4.99525e-11
-1.37575e-10
-5.34685e-11
-1.66443e-10
-4.79218e-11
-1.68226e-10
-6.14227e-11
-1.53522e-10
-6.14913e-11
-1.52589e-10
-6.64248e-11
-1.42552e-10
-7.32278e-11
-1.34975e-10
-7.94886e-11
-1.30902e-10
-8.56166e-11
-1.29748e-10
-9.16862e-11
-1.31722e-10
-9.77307e-11
-1.36756e-10
-1.0392e-10
-1.46664e-10
-1.09986e-10
-1.60072e-10
-1.16226e-10
-1.77179e-10
-1.22285e-10
-1.97891e-10
-1.28285e-10
-2.22015e-10
-1.34252e-10
-2.49276e-10
-1.40203e-10
-2.79369e-10
-1.46137e-10
-3.11983e-10
-1.5206e-10
-3.4681e-10
-1.57987e-10
-3.83554e-10
-1.63929e-10
-4.21947e-10
-1.69894e-10
-4.61751e-10
-1.75891e-10
-5.02754e-10
-1.81923e-10
-5.44774e-10
-1.87997e-10
-5.87656e-10
-1.94112e-10
-6.31268e-10
-2.00268e-10
-2.06465e-10
-6.75503e-10
-1.65888e-13
-2.0176e-12
-6.43639e-13
-5.861e-12
-1.42681e-12
-9.51266e-12
-2.51472e-12
-1.29728e-11
-3.90897e-12
-1.62406e-11
-5.60928e-12
-1.93162e-11
-7.61816e-12
-2.21977e-11
-9.93395e-12
-2.48855e-11
-1.25587e-11
-2.73765e-11
-1.54877e-11
-2.96713e-11
-1.87213e-11
-3.17657e-11
-2.22496e-11
-3.36607e-11
-2.60694e-11
-3.53515e-11
-3.01619e-11
-3.68409e-11
-3.45223e-11
-3.81191e-11
-3.91404e-11
-3.91749e-11
-4.40443e-11
-3.99772e-11
-4.91691e-11
-4.0586e-11
-1.67485e-10
-4.18481e-11
-1.76765e-10
-4.2614e-11
-1.76654e-10
-4.85353e-11
-1.80502e-10
-4.61045e-11
-1.85592e-10
-4.83786e-11
-1.82843e-10
-5.06713e-11
-1.9123e-10
-5.30351e-11
-1.9648e-10
-5.62413e-11
-2.03748e-10
-5.91569e-11
-2.14869e-10
-6.2107e-11
-2.29199e-10
-6.51591e-11
-2.46481e-10
-6.83337e-11
-2.66505e-10
-7.16622e-11
-2.89082e-10
-7.51536e-11
-3.1419e-10
-7.88127e-11
-3.41539e-10
-8.26371e-11
-3.71142e-10
-8.66228e-11
-4.02657e-10
-9.07707e-11
-4.35873e-10
-9.50686e-11
-4.70614e-10
-9.95109e-11
-5.06723e-10
-1.04094e-10
-5.44045e-10
-1.08815e-10
-5.82437e-10
-1.13668e-10
-6.21776e-10
-1.18648e-10
-6.61954e-10
-1.23751e-10
-7.02877e-10
-1.28972e-10
-7.44463e-10
-1.34304e-10
-7.86645e-10
-1.39742e-10
-8.29364e-10
-1.45278e-10
-8.72571e-10
-1.50905e-10
-9.16225e-10
-1.56614e-10
-1.62398e-10
-9.60293e-10
-2.34769e-13
-1.78283e-12
-9.09234e-13
-5.18653e-12
-2.00021e-12
-8.42169e-12
-3.48882e-12
-1.14842e-11
-5.35645e-12
-1.4373e-11
-7.58616e-12
-1.70865e-11
-1.01597e-11
-1.96242e-11
-1.30603e-11
-2.19848e-11
-1.62682e-11
-2.41686e-11
-1.97654e-11
-2.61741e-11
-2.35282e-11
-2.80029e-11
-2.75353e-11
-2.96536e-11
-3.17581e-11
-3.11287e-11
-3.61749e-11
-3.24241e-11
-4.07522e-11
-3.35418e-11
-4.54335e-11
-3.44935e-11
-5.00563e-11
-3.53544e-11
-1.85192e-10
-3.64373e-11
-1.93161e-10
-3.67365e-11
-1.9849e-10
-3.72855e-11
-2.11413e-10
-3.56116e-11
-2.19444e-10
-3.80734e-11
-2.31052e-10
-3.67705e-11
-2.45817e-10
-3.59071e-11
-2.63398e-10
-3.54536e-11
-2.8419e-10
-3.54497e-11
-3.07492e-10
-3.58548e-11
-3.32958e-10
-3.66407e-11
-3.60328e-10
-3.77888e-11
-3.89385e-10
-3.9277e-11
-4.19962e-10
-4.10852e-11
-4.51921e-10
-4.31951e-11
-4.85143e-10
-4.559e-11
-5.19525e-10
-4.82553e-11
-5.54971e-10
-5.11766e-11
-5.91401e-10
-5.43412e-11
-6.28732e-10
-5.77371e-11
-6.66891e-10
-6.13524e-11
-7.05809e-10
-6.51758e-11
-7.45428e-10
-6.91965e-11
-7.85692e-10
-7.34037e-11
-8.26554e-10
-7.77866e-11
-8.67971e-10
-8.23345e-11
-9.09906e-10
-8.70365e-11
-9.52329e-10
-9.18817e-11
-9.95211e-10
-9.68592e-11
-1.03853e-09
-1.01958e-10
-1.08227e-09
-1.07167e-10
-1.12641e-09
-1.12475e-10
-1.17871e-10
-1.17093e-09
-1.74803e-13
-1.60803e-12
-7.04859e-13
-4.65648e-12
-1.58725e-12
-7.5393e-12
-2.8146e-12
-1.02568e-11
-4.37986e-12
-1.28077e-11
-6.2755e-12
-1.51908e-11
-8.49466e-12
-1.74051e-11
-1.10298e-11
-1.94497e-11
-1.38744e-11
-2.1324e-11
-1.70212e-11
-2.30273e-11
-2.04644e-11
-2.45597e-11
-2.41976e-11
-2.59204e-11
-2.82165e-11
-2.71098e-11
-3.25126e-11
-2.8128e-11
-3.70725e-11
-2.89819e-11
-4.18845e-11
-2.96815e-11
-8.29989e-11
-3.02457e-11
-1.20356e-10
-3.06756e-11
-1.2619e-10
-3.09021e-11
-1.36268e-10
-2.72072e-11
-1.50113e-10
-2.17671e-11
-1.71207e-10
-1.69789e-11
-1.95094e-10
-1.28838e-11
-2.21487e-10
-9.51372e-12
-2.50109e-10
-6.83165e-12
-2.80756e-10
-4.80272e-12
-3.13221e-10
-3.39005e-12
-3.47306e-10
-2.55524e-12
-3.82835e-10
-2.25998e-12
-4.19645e-10
-2.46727e-12
-4.57588e-10
-3.14235e-12
-4.96531e-10
-4.25216e-12
-5.36356e-10
-5.76501e-12
-5.7696e-10
-7.65091e-12
-6.18255e-10
-9.88195e-12
-6.60164e-10
-1.24323e-11
-7.02623e-10
-1.52782e-11
-7.45577e-10
-1.83978e-11
-7.88982e-10
-2.17708e-11
-8.32801e-10
-2.53784e-11
-8.77001e-10
-2.92029e-11
-9.2156e-10
-3.32277e-11
-9.66457e-10
-3.74373e-11
-1.01168e-09
-4.18165e-11
-1.05721e-09
-4.63511e-11
-1.10304e-09
-5.10275e-11
-1.14916e-09
-5.58325e-11
-1.19558e-09
-6.07536e-11
-1.24227e-09
-6.57787e-11
-7.08961e-11
-1.28925e-09
-1.47343e-13
-1.46068e-12
-5.75937e-13
-4.22788e-12
-1.28061e-12
-6.83463e-12
-2.25994e-12
-9.27751e-12
-3.51238e-12
-1.15553e-11
-5.03609e-12
-1.36671e-11
-6.82964e-12
-1.56115e-11
-8.89144e-12
-1.73879e-11
-1.1221e-11
-1.89944e-11
-1.38175e-11
-2.04307e-11
-1.66823e-11
-2.16949e-11
-1.98162e-11
-2.27866e-11
-2.32236e-11
-2.37024e-11
-2.6911e-11
-2.44406e-11
-3.08932e-11
-2.49997e-11
-3.72474e-11
-2.54028e-11
-1.0132e-10
-2.58082e-11
-1.06193e-10
-2.58028e-11
-1.1377e-10
-2.3325e-11
-1.28414e-10
-1.25634e-11
-1.47447e-10
-2.7339e-12
-1.70366e-10
5.94074e-12
-1.96667e-10
1.34169e-11
-2.2593e-10
1.97487e-11
-2.57767e-10
2.50057e-11
-2.91832e-10
2.92619e-11
-3.27813e-10
3.25914e-11
-3.65436e-10
3.50676e-11
-4.04458e-10
3.67622e-11
-4.44669e-10
3.77441e-11
-4.8589e-10
3.80787e-11
-5.2797e-10
3.78271e-11
-5.7078e-10
3.70454e-11
-6.14216e-10
3.57848e-11
-6.58189e-10
3.40916e-11
-7.02629e-10
3.20076e-11
-7.47478e-10
2.957e-11
-7.92688e-10
2.68125e-11
-8.38224e-10
2.37651e-11
-8.84057e-10
2.0455e-11
-9.30166e-10
1.69065e-11
-9.76536e-10
1.31417e-11
-1.02315e-09
9.18099e-12
-1.07001e-09
5.04281e-12
-1.11711e-09
7.47446e-13
-1.16444e-09
-3.70024e-12
-1.212e-09
-8.27494e-12
-1.25978e-09
-1.29661e-11
-1.3078e-09
-1.77613e-11
-2.26487e-11
-1.35605e-09
-9.23287e-14
-1.36835e-12
-3.85338e-13
-3.93487e-12
-8.82245e-13
-6.33772e-12
-1.58027e-12
-8.57949e-12
-2.47588e-12
-1.06597e-11
-3.56567e-12
-1.25773e-11
-4.84511e-12
-1.43321e-11
-6.31007e-12
-1.59229e-11
-7.95479e-12
-1.73497e-11
-9.77436e-12
-1.86112e-11
-1.17615e-11
-1.97078e-11
-1.39103e-11
-2.06378e-11
-1.62108e-11
-2.14019e-11
-1.86554e-11
-2.1996e-11
-2.12343e-11
-2.24208e-11
-5.25628e-11
-2.26929e-11
-9.04238e-11
-2.29252e-11
-9.34509e-11
-2.27757e-11
-1.0629e-10
-1.04859e-11
-1.23858e-10
5.00502e-12
-1.45401e-10
1.88084e-11
-1.70341e-10
3.08813e-11
-1.9826e-10
4.13355e-11
-2.28793e-10
5.02818e-11
-2.61613e-10
5.78256e-11
-2.96424e-10
6.40729e-11
-3.32962e-10
6.91294e-11
-3.70993e-10
7.30989e-11
-4.10313e-10
7.60819e-11
-4.50743e-10
7.81744e-11
-4.92131e-10
7.94665e-11
-5.34346e-10
8.00415e-11
-5.77275e-10
7.99753e-11
-6.20827e-10
7.93367e-11
-6.64923e-10
7.81873e-11
-7.09498e-10
7.65822e-11
-7.54498e-10
7.45704e-11
-7.99881e-10
7.21954e-11
-8.45611e-10
6.94955e-11
-8.91661e-10
6.65051e-11
-9.38009e-10
6.32543e-11
-9.84638e-10
5.977e-11
-1.03153e-09
5.60763e-11
-1.07868e-09
5.21946e-11
-1.12608e-09
4.81442e-11
-1.17372e-09
4.39425e-11
-1.2216e-09
3.96054e-11
-1.26972e-09
3.51474e-11
-1.31806e-09
3.05817e-11
2.59204e-11
-1.36663e-09
-1.09654e-13
-1.2587e-12
-4.11417e-13
-3.63311e-12
-8.93741e-13
-5.85539e-12
-1.55263e-12
-7.9206e-12
-2.38479e-12
-9.82752e-12
-3.38665e-12
-1.15754e-11
-4.55548e-12
-1.31633e-11
-5.88752e-12
-1.45909e-11
-7.38007e-12
-1.58572e-11
-9.02868e-12
-1.69626e-11
-1.08311e-11
-1.79054e-11
-1.27833e-11
-1.86856e-11
-1.48817e-11
-1.93034e-11
-1.71042e-11
-1.97736e-11
-1.97544e-11
-2.01255e-11
-8.95536e-11
-2.04067e-11
-9.21465e-11
-2.03322e-11
-1.00807e-10
-1.41153e-11
-1.18204e-10
6.91103e-12
-1.38813e-10
2.56138e-11
-1.62286e-10
4.22816e-11
-1.88382e-10
5.6978e-11
-2.16843e-10
6.97962e-11
-2.47411e-10
8.08501e-11
-2.79852e-10
9.02663e-11
-3.13952e-10
9.81731e-11
-3.49519e-10
1.04696e-10
-3.8638e-10
1.09959e-10
-4.24378e-10
1.1408e-10
-4.63377e-10
1.17173e-10
-5.03255e-10
1.19344e-10
-5.43906e-10
1.20692e-10
-5.85237e-10
1.21307e-10
-6.27171e-10
1.2127e-10
-6.69638e-10
1.20654e-10
-7.12581e-10
1.19525e-10
-7.55951e-10
1.17941e-10
-7.99709e-10
1.15953e-10
-8.43819e-10
1.13606e-10
-8.88256e-10
1.10942e-10
-9.32997e-10
1.07995e-10
-9.78022e-10
1.04796e-10
-1.02332e-09
1.01373e-10
-1.06887e-09
9.77497e-11
-1.11468e-09
9.39488e-11
-1.16072e-09
8.9989e-11
-1.20701e-09
8.58877e-11
-1.25352e-09
8.16605e-11
-1.30026e-09
7.73213e-11
7.28832e-11
-1.34722e-09
-4.7987e-14
-1.21071e-12
-2.13048e-13
-3.46805e-12
-5.00958e-13
-5.56748e-12
-9.10014e-13
-7.51155e-12
-1.43859e-12
-9.29894e-12
-2.08502e-12
-1.0929e-11
-2.84786e-12
-1.24004e-11
-3.72561e-12
-1.37131e-11
-4.71719e-12
-1.48656e-11
-5.82093e-12
-1.58588e-11
-7.03457e-12
-1.66917e-11
-8.35556e-12
-1.73646e-11
-9.79335e-12
-1.78656e-11
-1.13883e-11
-1.81787e-11
-2.03925e-11
-1.83128e-11
-7.22972e-11
-1.86147e-11
-7.41769e-11
-1.84525e-11
-9.03716e-11
2.07929e-12
-1.09415e-10
2.59541e-11
-1.31252e-10
4.74508e-11
-1.55491e-10
6.65205e-11
-1.81827e-10
8.33145e-11
-2.10023e-10
9.79922e-11
-2.3988e-10
1.10708e-10
-2.71226e-10
1.21612e-10
-3.03906e-10
1.30853e-10
-3.37782e-10
1.38572e-10
-3.72729e-10
1.44906e-10
-4.08635e-10
1.49986e-10
-4.45398e-10
1.53937e-10
-4.8293e-10
1.56876e-10
-5.21149e-10
1.58911e-10
-5.59984e-10
1.60142e-10
-5.99372e-10
1.60658e-10
-6.39259e-10
1.60541e-10
-6.79597e-10
1.59863e-10
-7.20346e-10
1.5869e-10
-7.61471e-10
1.57078e-10
-8.02942e-10
1.55078e-10
-8.44736e-10
1.52736e-10
-8.86833e-10
1.50092e-10
-9.29217e-10
1.47179e-10
-9.71873e-10
1.44029e-10
-1.01479e-09
1.40669e-10
-1.05797e-09
1.37122e-10
-1.10139e-09
1.3341e-10
-1.14505e-09
1.29552e-10
-1.18896e-09
1.25564e-10
-1.2331e-09
1.21462e-10
1.17258e-10
-1.27747e-09
-4.7553e-14
-1.16316e-12
-1.67944e-13
-3.34766e-12
-3.52847e-13
-5.38258e-12
-6.00709e-13
-7.26369e-12
-9.09637e-13
-8.99001e-12
-1.278e-12
-1.05606e-11
-1.70379e-12
-1.19747e-11
-2.18593e-12
-1.3231e-11
-2.72269e-12
-1.43288e-11
-3.31548e-12
-1.5266e-11
-3.966e-12
-1.60412e-11
-4.6755e-12
-1.66551e-11
-5.41315e-12
-1.7128e-11
-6.09085e-12
-1.7501e-11
-9.17336e-11
-1.7814e-11
-9.31307e-11
-1.76858e-11
-1.04453e-10
-7.1306e-12
-1.24105e-10
2.1732e-11
-1.4539e-10
4.72384e-11
-1.68035e-10
7.00965e-11
-1.91965e-10
9.04501e-11
-2.17099e-10
1.08448e-10
-2.43357e-10
1.24251e-10
-2.70671e-10
1.38022e-10
-2.98978e-10
1.49919e-10
-3.28216e-10
1.60091e-10
-3.58324e-10
1.68681e-10
-3.89244e-10
1.75826e-10
-4.20916e-10
1.81659e-10
-4.53286e-10
1.86307e-10
-4.86302e-10
1.89891e-10
-5.19913e-10
1.92523e-10
-5.54075e-10
1.94304e-10
-5.88747e-10
1.9533e-10
-6.2389e-10
1.95684e-10
-6.59472e-10
1.95445e-10
-6.95463e-10
1.9468e-10
-7.31837e-10
1.93452e-10
-7.68573e-10
1.91814e-10
-8.05651e-10
1.89815e-10
-8.43056e-10
1.87497e-10
-8.80775e-10
1.84897e-10
-9.18796e-10
1.8205e-10
-9.57111e-10
1.78983e-10
-9.95712e-10
1.75723e-10
-1.03459e-09
1.72292e-10
-1.07375e-09
1.68709e-10
-1.11318e-09
1.64993e-10
-1.15287e-09
1.61158e-10
1.57219e-10
-1.19284e-09
-1.83828e-14
-1.14478e-12
-9.25382e-14
-3.2735e-12
-2.28215e-13
-5.2469e-12
-4.25084e-13
-7.06682e-12
-6.83555e-13
-8.73154e-12
-1.00452e-12
-1.02397e-11
-1.38918e-12
-1.159e-11
-1.8387e-12
-1.27815e-11
-2.3536e-12
-1.38139e-11
-2.93213e-12
-1.46875e-11
-3.57118e-12
-1.54021e-11
-4.27995e-12
-1.59463e-11
-5.10835e-12
-1.62996e-11
-8.51259e-12
-1.64641e-11
-6.76066e-11
-1.68596e-11
-6.86232e-11
-1.66692e-11
-8.76642e-11
1.19104e-11
-1.08198e-10
4.22658e-11
-1.30524e-10
6.95647e-11
-1.54217e-10
9.37894e-11
-1.7898e-10
1.15213e-10
-2.04626e-10
1.34094e-10
-2.31029e-10
1.50654e-10
-2.58097e-10
1.6509e-10
-2.85761e-10
1.77582e-10
-3.13965e-10
1.88295e-10
-3.42666e-10
1.97382e-10
-3.71829e-10
2.04988e-10
-4.0142e-10
2.1125e-10
-4.3141e-10
2.16298e-10
-4.61774e-10
2.20255e-10
-4.92486e-10
2.23235e-10
-5.23524e-10
2.25342e-10
-5.54866e-10
2.26672e-10
-5.86495e-10
2.27313e-10
-6.18393e-10
2.27344e-10
-6.50547e-10
2.26834e-10
-6.82944e-10
2.25849e-10
-7.15574e-10
2.24444e-10
-7.48428e-10
2.22669e-10
-7.81501e-10
2.20569e-10
-8.14786e-10
2.18183e-10
-8.48281e-10
2.15545e-10
-8.81983e-10
2.12685e-10
-9.1589e-10
2.09631e-10
-9.50003e-10
2.06404e-10
-9.8432e-10
2.03027e-10
-1.01884e-09
1.99516e-10
-1.05357e-09
1.95888e-10
1.92156e-10
-1.08851e-09
7.51856e-14
-1.21996e-12
3.0526e-13
-3.50358e-12
6.64944e-13
-5.60659e-12
1.1161e-12
-7.51797e-12
1.62332e-12
-9.23876e-12
2.15308e-12
-1.07694e-11
2.67377e-12
-1.21107e-11
3.15427e-12
-1.3262e-11
3.56336e-12
-1.4223e-11
3.86732e-12
-1.49915e-11
4.04043e-12
-1.55753e-11
4.09702e-12
-1.60029e-11
4.11968e-12
-1.63222e-11
-8.71314e-11
-1.67055e-11
-1.04021e-10
-1.6416e-11
-1.20659e-10
-3.17053e-14
-1.43747e-10
3.49989e-11
-1.669e-10
6.54183e-11
-1.89925e-10
9.25893e-11
-2.12927e-10
1.16791e-10
-2.35955e-10
1.38241e-10
-2.59014e-10
1.57153e-10
-2.82105e-10
1.73745e-10
-3.05232e-10
1.88217e-10
-3.28404e-10
2.00754e-10
-3.51633e-10
2.11524e-10
-3.74934e-10
2.20684e-10
-3.98325e-10
2.28379e-10
-4.21824e-10
2.34748e-10
-4.45447e-10
2.39921e-10
-4.69211e-10
2.44019e-10
-4.93129e-10
2.47153e-10
-5.17214e-10
2.49426e-10
-5.41475e-10
2.50933e-10
-5.65922e-10
2.5176e-10
-5.90561e-10
2.51983e-10
-6.154e-10
2.51673e-10
-6.40444e-10
2.50893e-10
-6.65698e-10
2.49697e-10
-6.91165e-10
2.48137e-10
-7.16852e-10
2.46255e-10
-7.4276e-10
2.44091e-10
-7.68895e-10
2.4168e-10
-7.9526e-10
2.3905e-10
-8.21859e-10
2.36229e-10
-8.48695e-10
2.33241e-10
-8.75772e-10
2.30104e-10
-9.03095e-10
2.26838e-10
-9.30665e-10
2.23458e-10
2.19978e-10
-9.58487e-10
2.12827e-13
-1.43279e-12
6.96284e-13
-3.98704e-12
1.36159e-12
-6.27189e-12
2.16001e-12
-8.31639e-12
3.04427e-12
-1.0123e-11
3.98159e-12
-1.17068e-11
4.93171e-12
-1.30608e-11
5.87647e-12
-1.42067e-11
6.78063e-12
-1.51272e-11
7.65933e-12
-1.58702e-11
7.94461e-12
-1.58605e-11
7.6332e-12
-1.56915e-11
1.68749e-12
-1.51531e-11
-5.68605e-11
-1.4244e-11
-8.21518e-11
8.87524e-12
-1.28045e-10
4.58617e-11
-1.72017e-10
7.89711e-11
-2.14514e-10
1.07915e-10
-2.54934e-10
1.3301e-10
-2.92929e-10
1.54786e-10
-3.28397e-10
1.73709e-10
-3.61401e-10
1.90157e-10
-3.92092e-10
2.04436e-10
-4.20668e-10
2.16793e-10
-4.47343e-10
2.27429e-10
-4.72332e-10
2.36513e-10
-4.95842e-10
2.44194e-10
-5.18066e-10
2.50603e-10
-5.3918e-10
2.55862e-10
-5.59342e-10
2.60084e-10
-5.78695e-10
2.63372e-10
-5.97366e-10
2.65824e-10
-6.15468e-10
2.67529e-10
-6.33103e-10
2.68568e-10
-6.50361e-10
2.69017e-10
-6.67321e-10
2.68944e-10
-6.84057e-10
2.68409e-10
-7.00632e-10
2.67467e-10
-7.17103e-10
2.66168e-10
-7.33522e-10
2.64556e-10
-7.49935e-10
2.62668e-10
-7.66384e-10
2.6054e-10
-7.82907e-10
2.58202e-10
-7.99536e-10
2.5568e-10
-8.16303e-10
2.52997e-10
-8.33236e-10
2.50174e-10
-8.5036e-10
2.47228e-10
-8.67698e-10
2.44176e-10
-8.85271e-10
2.41031e-10
2.37804e-10
-9.03096e-10
-4.72776e-13
-9.60014e-13
-1.7267e-12
-2.73311e-12
-3.60579e-12
-4.39281e-12
-5.90899e-12
-6.01318e-12
-8.48592e-12
-7.5461e-12
-1.10984e-11
-9.09431e-12
-1.35957e-11
-1.05635e-11
-1.56706e-11
-1.21318e-11
-1.78457e-11
-1.29521e-11
-2.00729e-11
-1.36429e-11
-2.12503e-11
-1.53127e-11
-5.25075e-11
-1.10465e-11
-1.57608e-10
3.76761e-11
-1.94502e-10
2.26504e-11
-2.43868e-10
5.82407e-11
-2.88696e-10
9.06901e-11
-3.28816e-10
1.19091e-10
-3.64287e-10
1.43386e-10
-3.95558e-10
1.64281e-10
-4.2314e-10
1.82367e-10
-4.47483e-10
1.98053e-10
-4.68983e-10
2.11657e-10
-4.87985e-10
2.23439e-10
-5.04799e-10
2.33607e-10
-5.19704e-10
2.42333e-10
-5.3295e-10
2.4976e-10
-5.44769e-10
2.56013e-10
-5.55371e-10
2.61205e-10
-5.64948e-10
2.65438e-10
-5.73672e-10
2.68808e-10
-5.817e-10
2.71401e-10
-5.89174e-10
2.73298e-10
-5.96219e-10
2.74574e-10
-6.02947e-10
2.75296e-10
-6.09455e-10
2.75526e-10
-6.15831e-10
2.7532e-10
-6.22152e-10
2.7473e-10
-6.28484e-10
2.73799e-10
-6.34885e-10
2.7257e-10
-6.41407e-10
2.71078e-10
-6.48095e-10
2.69356e-10
-6.54986e-10
2.67431e-10
-6.62115e-10
2.65331e-10
-6.69511e-10
2.63076e-10
-6.772e-10
2.60686e-10
-6.85205e-10
2.58179e-10
-6.93546e-10
2.55569e-10
-7.02239e-10
2.5287e-10
-7.11302e-10
2.50093e-10
2.47248e-10
-7.20745e-10
-1.35598e-12
3.9597e-13
-4.92433e-12
8.35237e-13
-1.03243e-11
1.00714e-12
-1.72013e-11
8.63839e-13
-2.52469e-11
4.99486e-13
-3.40898e-11
-2.51341e-13
-4.34381e-11
-1.2152e-12
-5.30495e-11
-2.52047e-12
-6.05412e-11
-5.86161e-12
-7.68678e-11
-4.08026e-12
-1.8808e-10
2.7377e-11
-2.12363e-10
1.25971e-11
-6.90841e-10
5.16155e-10
-1.01848e-09
3.50289e-10
-1.24256e-09
2.82321e-10
-1.38457e-09
2.32695e-10
-1.46651e-09
2.01036e-10
-1.50696e-09
1.83839e-10
-1.51984e-09
1.77154e-10
-1.515e-09
1.77533e-10
-1.49919e-09
1.82237e-10
-1.47675e-09
1.89224e-10
-1.4504e-09
1.97088e-10
-1.42175e-09
2.04949e-10
-1.39172e-09
2.1231e-10
-1.3609e-09
2.18932e-10
-1.32962e-09
2.24734e-10
-1.29813e-09
2.29722e-10
-1.26664e-09
2.33946e-10
-1.23531e-09
2.37472e-10
-1.20428e-09
2.40372e-10
-1.17369e-09
2.42713e-10
-1.14367e-09
2.44556e-10
-1.11434e-09
2.45957e-10
-1.08577e-09
2.46964e-10
-1.05807e-09
2.47619e-10
-1.0313e-09
2.47961e-10
-1.00553e-09
2.48023e-10
-9.80792e-10
2.47834e-10
-9.57135e-10
2.47421e-10
-9.34587e-10
2.46807e-10
-9.13168e-10
2.46013e-10
-8.92895e-10
2.45057e-10
-8.73776e-10
2.43956e-10
-8.55814e-10
2.42724e-10
-8.3901e-10
2.41375e-10
-8.23359e-10
2.39918e-10
-8.08855e-10
2.38366e-10
-7.95489e-10
2.36726e-10
2.35008e-10
-7.83249e-10
-9.0949e-13
-3.54941e-12
-7.78906e-12
-1.35559e-11
-2.07214e-11
-2.93255e-11
-3.92176e-11
-5.34562e-11
-1.69431e-10
-2.4049e-10
-5.07466e-10
-7.09368e-10
-5.99657e-10
-7.45757e-10
-8.42889e-10
-8.98956e-10
-9.24256e-10
-9.29698e-10
-9.24381e-10
-9.14369e-10
-9.02836e-10
-8.90984e-10
-8.78959e-10
-8.66504e-10
-8.53318e-10
-8.39196e-10
-8.24056e-10
-8.07913e-10
-7.90857e-10
-7.73018e-10
-7.54551e-10
-7.3561e-10
-7.16343e-10
-6.96887e-10
-6.77365e-10
-6.57888e-10
-6.38555e-10
-6.19453e-10
-6.00661e-10
-5.82247e-10
-5.64273e-10
-5.46795e-10
-5.2986e-10
-5.13511e-10
-4.97785e-10
-4.82716e-10
-4.68332e-10
-4.54657e-10
-4.41713e-10
-4.29517e-10
-1.82238e-11
-4.16254e-10
-6.41052e-12
-4.3021e-10
1.08191e-12
-4.42698e-10
4.48167e-12
-4.53918e-10
4.037e-12
-4.64053e-10
1.31485e-14
-4.7327e-10
-7.31298e-12
-4.81717e-10
-1.76602e-11
-4.89525e-10
-3.07514e-11
-4.96808e-10
-4.63196e-11
-5.03661e-10
-6.41129e-11
-5.10164e-10
-8.38977e-11
-5.16383e-10
-1.0546e-10
-5.22372e-10
-1.28608e-10
-5.28172e-10
-1.53168e-10
-5.33816e-10
-1.78989e-10
-5.39327e-10
-2.05937e-10
-5.44722e-10
-2.33895e-10
-5.50011e-10
-2.62763e-10
-5.55202e-10
-2.92452e-10
-5.60296e-10
-3.22885e-10
-5.65295e-10
-3.53997e-10
-5.70195e-10
-3.85729e-10
-5.74994e-10
-4.1803e-10
-5.79688e-10
-4.50855e-10
-5.8427e-10
-4.84163e-10
-5.88736e-10
-5.17917e-10
-5.93081e-10
-5.52082e-10
-5.97299e-10
-5.86626e-10
-6.01386e-10
-6.21522e-10
-6.05336e-10
-6.5674e-10
-6.09147e-10
-6.92255e-10
-6.12813e-10
-7.28041e-10
-6.16332e-10
-7.64076e-10
-6.197e-10
-8.00337e-10
-6.22914e-10
-8.36803e-10
-6.25973e-10
-8.73453e-10
-6.28874e-10
-9.10269e-10
-6.31617e-10
-9.47231e-10
-6.34199e-10
-9.84324e-10
-6.3662e-10
-1.02153e-09
-6.38881e-10
-1.05884e-09
-6.4098e-10
-1.09623e-09
-6.42919e-10
-1.1337e-09
-6.44697e-10
-1.17123e-09
-6.46317e-10
-1.20881e-09
-6.47779e-10
-1.24644e-09
-6.49085e-10
-1.2841e-09
-6.50236e-10
-1.3218e-09
-6.51235e-10
-6.52092e-10
-1.35952e-09
3.48211e-11
-4.07263e-10
2.19803e-11
-4.17369e-10
5.69466e-12
-4.26413e-10
-1.36457e-11
-4.34577e-10
-3.56717e-11
-4.42027e-10
-6.00392e-11
-4.48902e-10
-8.64335e-11
-4.55323e-10
-1.14571e-10
-4.61388e-10
-1.44197e-10
-4.67181e-10
-1.75092e-10
-4.72766e-10
-2.07061e-10
-4.78194e-10
-2.39943e-10
-4.83502e-10
-2.73596e-10
-4.88719e-10
-3.07906e-10
-4.93863e-10
-3.42776e-10
-4.98946e-10
-3.78127e-10
-5.03976e-10
-4.13894e-10
-5.08955e-10
-4.50024e-10
-5.13881e-10
-4.86473e-10
-5.18752e-10
-5.23207e-10
-5.23563e-10
-5.60195e-10
-5.28307e-10
-5.97412e-10
-5.32979e-10
-6.34836e-10
-5.37571e-10
-6.72447e-10
-5.42076e-10
-7.10228e-10
-5.46489e-10
-7.48162e-10
-5.50802e-10
-7.86233e-10
-5.5501e-10
-8.24426e-10
-5.59106e-10
-8.62725e-10
-5.63086e-10
-9.01117e-10
-5.66945e-10
-9.39586e-10
-5.70678e-10
-9.78118e-10
-5.74281e-10
-1.0167e-09
-5.77752e-10
-1.05531e-09
-5.81085e-10
-1.09395e-09
-5.8428e-10
-1.13259e-09
-5.87332e-10
-1.17122e-09
-5.9024e-10
-1.20984e-09
-5.93003e-10
-1.24842e-09
-5.95618e-10
-1.28695e-09
-5.98084e-10
-1.32543e-09
-6.00401e-10
-1.36384e-09
-6.02569e-10
-1.40218e-09
-6.04586e-10
-1.44042e-09
-6.06452e-10
-1.47857e-09
-6.08169e-10
-1.51662e-09
-6.09735e-10
-1.55455e-09
-6.11152e-10
-1.59237e-09
-6.12419e-10
-1.63006e-09
-6.13538e-10
-6.14509e-10
-1.66765e-09
2.31512e-10
-3.6235e-10
1.84545e-10
-3.70402e-10
1.3603e-10
-3.77898e-10
8.64021e-11
-3.84949e-10
3.60227e-11
-3.91647e-10
-1.48098e-11
-3.9807e-10
-6.58545e-11
-4.04278e-10
-1.16921e-10
-4.10322e-10
-1.67864e-10
-4.16239e-10
-2.18572e-10
-4.22058e-10
-2.68967e-10
-4.27799e-10
-3.18995e-10
-4.33474e-10
-3.68622e-10
-4.39091e-10
-4.17832e-10
-4.44653e-10
-4.66618e-10
-4.5016e-10
-5.14984e-10
-4.5561e-10
-5.62939e-10
-4.61e-10
-6.10496e-10
-4.66324e-10
-6.57672e-10
-4.71576e-10
-7.04483e-10
-4.76751e-10
-7.50947e-10
-4.81843e-10
-7.97079e-10
-4.86846e-10
-8.42896e-10
-4.91754e-10
-8.88409e-10
-4.96563e-10
-9.33632e-10
-5.01266e-10
-9.78576e-10
-5.05859e-10
-1.02325e-09
-5.10338e-10
-1.06765e-09
-5.14699e-10
-1.1118e-09
-5.18938e-10
-1.15569e-09
-5.23052e-10
-1.19933e-09
-5.27038e-10
-1.24272e-09
-5.30893e-10
-1.28586e-09
-5.34614e-10
-1.32874e-09
-5.382e-10
-1.37138e-09
-5.41648e-10
-1.41375e-09
-5.44956e-10
-1.45587e-09
-5.48122e-10
-1.49773e-09
-5.51147e-10
-1.53932e-09
-5.54027e-10
-1.58064e-09
-5.56763e-10
-1.62169e-09
-5.59353e-10
-1.66246e-09
-5.61798e-10
-1.70294e-09
-5.64097e-10
-1.74315e-09
-5.6625e-10
-1.78306e-09
-5.68257e-10
-1.82268e-09
-5.70117e-10
-1.862e-09
-5.7183e-10
-1.90102e-09
-5.73397e-10
-1.93974e-09
-5.74818e-10
-5.76094e-10
-1.97816e-09
6.25267e-11
-3.05939e-10
5.32828e-12
-3.13203e-10
-5.22972e-11
-3.20273e-10
-1.10059e-10
-3.27187e-10
-1.6773e-10
-3.33976e-10
-2.25138e-10
-3.40662e-10
-2.82154e-10
-3.47262e-10
-3.38689e-10
-3.53787e-10
-3.94683e-10
-3.60245e-10
-4.50102e-10
-3.66639e-10
-5.04931e-10
-3.7297e-10
-5.59168e-10
-3.79237e-10
-6.12822e-10
-3.85437e-10
-6.65909e-10
-3.91566e-10
-7.18449e-10
-3.9762e-10
-7.70464e-10
-4.03595e-10
-8.21979e-10
-4.09485e-10
-8.73016e-10
-4.15287e-10
-9.23598e-10
-4.20994e-10
-9.73747e-10
-4.26603e-10
-1.02348e-09
-4.3211e-10
-1.07282e-09
-4.3751e-10
-1.12177e-09
-4.42801e-10
-1.17035e-09
-4.47979e-10