/*--------------------------------*- C++ -*----------------------------------*\
| =========                 |                                                 |
| \\      /  F ield         | OpenFOAM: The Open Source CFD Toolbox           |
|  \\    /   O peration     | Version:  2.4.0                                 |
|   \\  /    A nd           | Web:      www.OpenFOAM.org                      |
|    \\/     M anipulation  |                                                 |
\*---------------------------------------------------------------------------*/
FoamFile
{
    version     2.0;
    format      ascii;
    class       volVectorField;
    location    "3";
    object      U;
}
// * * * * * * * * * * * * * * * * * * * * * * * * * * * * * * * * * * * * * //

dimensions      [0 1 -1 0 0 0 0];

internalField   nonuniform List<vector> 
8000
(
(3.28869e-09 -0.000225362 0)
(3.14069e-07 -0.00066429 0)
(1.07462e-06 -0.00109215 0)
(2.27377e-06 -0.00150966 0)
(3.95584e-06 -0.00191749 0)
(6.03921e-06 -0.00231612 0)
(8.6003e-06 -0.00270607 0)
(1.15185e-05 -0.0030876 0)
(1.49161e-05 -0.00346118 0)
(1.86424e-05 -0.00382686 0)
(2.28838e-05 -0.0041852 0)
(2.74765e-05 -0.00453603 0)
(3.26838e-05 -0.00488009 0)
(3.83559e-05 -0.00521691 0)
(4.48271e-05 -0.00554757 0)
(5.20117e-05 -0.00587109 0)
(6.02655e-05 -0.00618914 0)
(6.96638e-05 -0.00649986 0)
(8.04639e-05 -0.00680595 0)
(9.30515e-05 -0.00710406 0)
(0.000107363 -0.0073985 0)
(0.000124182 -0.00768354 0)
(0.000142924 -0.00796575 0)
(0.00016535 -0.00823581 0)
(0.000191893 -0.00850291 0)
(0.000225838 -0.00875426 0)
(0.000256008 -0.00900588 0)
(0.000235841 -0.00925832 0)
(9.41112e-05 -0.00918464 0)
(-0.000110411 -0.00907402 0)
(-0.000382985 -0.00870422 0)
(-0.000728203 -0.00843918 0)
(-0.00078027 -0.00671323 0)
(-0.00111929 0.000680796 0)
(-0.00240047 -0.00793965 0)
(-0.00565014 0.0115843 0)
(-0.00462028 0.00781096 0)
(-0.0050252 0.00144873 0)
(-0.0046194 -0.00205702 0)
(-0.00430328 -0.00720099 0)
(-0.00381944 -0.0119202 0)
(-0.00319507 -0.0161876 0)
(-0.00263584 -0.020097 0)
(-0.00214746 -0.0236757 0)
(-0.00172373 -0.0269476 0)
(-0.00135606 -0.0299299 0)
(-0.0010388 -0.0326412 0)
(-0.000767481 -0.0350987 0)
(-0.00053913 -0.0373187 0)
(-0.000351195 -0.0393207 0)
(-1.1365e-07 -0.000217443 0)
(-5.57756e-07 -0.000644697 0)
(-1.14433e-06 -0.00106432 0)
(-1.74525e-06 -0.0014761 0)
(-2.28816e-06 -0.00188026 0)
(-2.72708e-06 -0.00227653 0)
(-3.07052e-06 -0.00266544 0)
(-3.29924e-06 -0.00304657 0)
(-3.46525e-06 -0.00342088 0)
(-3.51591e-06 -0.00378777 0)
(-3.54169e-06 -0.00414872 0)
(-3.39697e-06 -0.00450284 0)
(-3.22109e-06 -0.00485233 0)
(-2.70622e-06 -0.00519577 0)
(-2.06832e-06 -0.00553627 0)
(-7.55983e-07 -0.00587159 0)
(8.92852e-07 -0.00620585 0)
(3.75749e-06 -0.00653573 0)
(7.28206e-06 -0.00686634 0)
(1.26832e-05 -0.00719297 0)
(1.91377e-05 -0.00752135 0)
(2.89247e-05 -0.00784506 0)
(4.26129e-05 -0.00816885 0)
(6.35867e-05 -0.00848608 0)
(7.76437e-05 -0.00880315 0)
(2.99732e-05 -0.00913267 0)
(-0.000145952 -0.00923792 0)
(-0.000383713 -0.00935157 0)
(-0.000688429 -0.00890523 0)
(-0.00120221 -0.00813187 0)
(-0.00144169 0.000458914 0)
(-0.0018299 -0.008531 0)
(-0.00311159 -0.00835835 0)
(-0.00393259 0.0402923 0)
(-0.00391065 0.0211038 0)
(-0.00342897 0.0118924 0)
(-0.00300179 0.00418537 0)
(-0.00253744 -0.00243039 0)
(-0.00202491 -0.00814412 0)
(-0.00152973 -0.0131353 0)
(-0.00109386 -0.017557 0)
(-0.000720204 -0.0215089 0)
(-0.00040566 -0.0250465 0)
(-0.00014778 -0.0282042 0)
(5.73679e-05 -0.0310196 0)
(0.000211914 -0.0335206 0)
(0.000318264 -0.0357307 0)
(0.000379557 -0.0376797 0)
(0.00039854 -0.0393909 0)
(0.000378523 -0.0408925 0)
(1.99253e-07 -0.000220497 0)
(1.70986e-06 -0.0006544 0)
(4.45583e-06 -0.00108078 0)
(8.21437e-06 -0.00149898 0)
(1.26628e-05 -0.00190886 0)
(1.75795e-05 -0.00230993 0)
(2.26664e-05 -0.00270258 0)
(2.77512e-05 -0.00308638 0)
(3.25275e-05 -0.00346229 0)
(3.68623e-05 -0.00382989 0)
(4.04362e-05 -0.00419079 0)
(4.31679e-05 -0.00454444 0)
(4.47218e-05 -0.00489321 0)
(4.509e-05 -0.00523633 0)
(4.39211e-05 -0.00557691 0)
(4.13305e-05 -0.00591386 0)
(3.69184e-05 -0.00625089 0)
(3.08989e-05 -0.0065867 0)
(2.26307e-05 -0.00692503 0)
(1.31029e-05 -0.00726457 0)
(4.2576e-06 -0.00760765 0)
(2.66685e-06 -0.00795419 0)
(-1.60508e-07 -0.00830684 0)
(-6.9979e-05 -0.0086809 0)
(-0.000365532 -0.00875549 0)
(-0.000725862 -0.00884465 0)
(-0.000996147 -0.00853543 0)
(-0.00153054 -0.00751049 0)
(-0.00197777 0.00358906 0)
(-0.0022839 -0.00610017 0)
(-0.00204339 0.00321397 0)
(-0.00175386 0.0186752 0)
(-0.00270105 0.0122458 0)
(-0.00154272 0.00793472 0)
(-5.07633e-07 0.00288342 0)
(0.00113969 -0.00215478 0)
(0.00199312 -0.00682796 0)
(0.0026247 -0.0110862 0)
(0.00309443 -0.0149576 0)
(0.00343087 -0.0184541 0)
(0.00365287 -0.0216046 0)
(0.00377492 -0.0244306 0)
(0.00380918 -0.0269556 0)
(0.00376694 -0.0291953 0)
(0.00365732 -0.0311836 0)
(0.00348934 -0.0329465 0)
(0.00327118 -0.0345031 0)
(0.00300984 -0.0358795 0)
(0.00271294 -0.0370956 0)
(0.0023866 -0.0381738 0)
(1.81667e-07 -0.000237594 0)
(9.27544e-07 -0.000698472 0)
(1.85885e-06 -0.00114518 0)
(2.64028e-06 -0.00157763 0)
(2.93642e-06 -0.00199612 0)
(2.45404e-06 -0.00240053 0)
(8.88155e-07 -0.00279151 0)
(-2.02759e-06 -0.00316886 0)
(-6.62498e-06 -0.00353369 0)
(-1.31699e-05 -0.0038856 0)
(-2.20538e-05 -0.00422638 0)
(-3.35547e-05 -0.00455526 0)
(-4.81519e-05 -0.00487507 0)
(-6.6135e-05 -0.00518433 0)
(-8.81125e-05 -0.00548755 0)
(-0.000114456 -0.00578196 0)
(-0.000146094 -0.00607471 0)
(-0.000183207 -0.00636078 0)
(-0.000225072 -0.00665128 0)
(-0.000267535 -0.00693733 0)
(-0.000314104 -0.00723774 0)
(-0.00040581 -0.00754221 0)
(-0.000662693 -0.00778103 0)
(-0.000976793 -0.00804965 0)
(-0.00122143 -0.00794797 0)
(-0.00156756 -0.00737105 0)
(-0.00167704 0.00195401 0)
(-0.00144677 -0.00415412 0)
(-0.000595878 0.0047063 0)
(-0.000778997 0.00184901 0)
(-0.00074186 -0.00153233 0)
(1.54753e-06 -0.0034596 0)
(0.000989989 -0.00559696 0)
(0.00185844 -0.00779551 0)
(0.00257775 -0.00996987 0)
(0.00313182 -0.0121453 0)
(0.00353417 -0.0142745 0)
(0.00380591 -0.0163367 0)
(0.00396202 -0.0183102 0)
(0.00401451 -0.0201702 0)
(0.00397653 -0.0219067 0)
(0.0038594 -0.0235136 0)
(0.00367372 -0.0249915 0)
(0.00342917 -0.026348 0)
(0.00313446 -0.0275903 0)
(0.00279852 -0.0287278 0)
(0.00242806 -0.0297722 0)
(0.00203029 -0.0307351 0)
(0.00161091 -0.031629 0)
(0.00117526 -0.0324652 0)
(-2.24646e-07 -0.000229144 0)
(-1.88255e-06 -0.0006712 0)
(-5.28975e-06 -0.00109723 0)
(-1.05818e-05 -0.00150706 0)
(-1.77874e-05 -0.0019011 0)
(-2.71535e-05 -0.00227889 0)
(-3.87184e-05 -0.00264113 0)
(-5.2821e-05 -0.00298697 0)
(-6.94916e-05 -0.00331751 0)
(-8.91738e-05 -0.00363141 0)
(-0.00011191 -0.00393037 0)
(-0.000138278 -0.00421238 0)
(-0.000168351 -0.00448003 0)
(-0.000202916 -0.00473038 0)
(-0.000242183 -0.00496736 0)
(-0.00028721 -0.00518666 0)
(-0.000337589 -0.00539405 0)
(-0.000392512 -0.00558291 0)
(-0.000450983 -0.00576218 0)
(-0.000528811 -0.00592538 0)
(-0.000681576 -0.00609326 0)
(-0.000921951 -0.00622985 0)
(-0.00117984 -0.00625658 0)
(-0.00138758 -0.00625261 0)
(-0.00151278 -0.00230508 0)
(-0.00166237 -0.00867987 0)
(-0.000804303 -0.00427908 0)
(-0.00121583 -0.00521413 0)
(-0.000994658 -0.00648227 0)
(-0.000567525 -0.0074773 0)
(-0.000182916 -0.00847644 0)
(0.000133053 -0.00950742 0)
(0.000391389 -0.0106198 0)
(0.000593037 -0.0118874 0)
(0.000739412 -0.0130832 0)
(0.000831195 -0.0142945 0)
(0.000864856 -0.015494 0)
(0.000842439 -0.0166608 0)
(0.000767402 -0.0177827 0)
(0.000642678 -0.0188579 0)
(0.00047268 -0.0198808 0)
(0.000262127 -0.0208513 0)
(1.58938e-05 -0.0217724 0)
(-0.000261273 -0.0226495 0)
(-0.000564684 -0.0234882 0)
(-0.000890054 -0.0242937 0)
(-0.00123346 -0.0250711 0)
(-0.00159146 -0.0258256 0)
(-0.00196098 -0.0265614 0)
(-0.00233944 -0.0272823 0)
(1.50513e-08 -0.000219475 0)
(-8.55501e-07 -0.000640455 0)
(-3.14412e-06 -0.00104367 0)
(-7.04498e-06 -0.00142898 0)
(-1.27553e-05 -0.0017967 0)
(-2.04116e-05 -0.0021463 0)
(-3.02272e-05 -0.00247824 0)
(-4.23558e-05 -0.00279153 0)
(-5.70126e-05 -0.00308686 0)
(-7.43813e-05 -0.00336274 0)
(-9.46583e-05 -0.00362017 0)
(-0.000118106 -0.00385703 0)
(-0.000144953 -0.00407481 0)
(-0.000175724 -0.00427065 0)
(-0.000210396 -0.00444666 0)
(-0.000248032 -0.00459869 0)
(-0.00028509 -0.00472929 0)
(-0.000325423 -0.00483361 0)
(-0.000406947 -0.00492242 0)
(-0.000619534 -0.00500201 0)
(-0.000882468 -0.00507038 0)
(-0.00107011 -0.00510514 0)
(-0.00123457 -0.00417103 0)
(-0.00163757 -0.00721889 0)
(-0.000866416 -0.00530993 0)
(-0.001271 -0.00540583 0)
(-0.00127508 -0.00639817 0)
(-0.00118476 -0.00727263 0)
(-0.0011072 -0.00810447 0)
(-0.00105799 -0.00891743 0)
(-0.00103607 -0.00971444 0)
(-0.00103877 -0.0104992 0)
(-0.00106647 -0.0112745 0)
(-0.0011257 -0.0121092 0)
(-0.00121916 -0.0128769 0)
(-0.00134156 -0.0136182 0)
(-0.00149323 -0.0143395 0)
(-0.00167302 -0.0150454 0)
(-0.00187922 -0.0157365 0)
(-0.0021092 -0.0164128 0)
(-0.00236068 -0.0170772 0)
(-0.00263104 -0.0177328 0)
(-0.0029179 -0.0183814 0)
(-0.00321896 -0.0190253 0)
(-0.0035322 -0.0196662 0)
(-0.00385582 -0.0203055 0)
(-0.00418825 -0.0209444 0)
(-0.00452814 -0.0215836 0)
(-0.00487435 -0.0222239 0)
(-0.00522594 -0.0228656 0)
(-2.83859e-07 -0.000214968 0)
(-2.69886e-06 -0.000623959 0)
(-7.69286e-06 -0.00101218 0)
(-1.51195e-05 -0.00137987 0)
(-2.51139e-05 -0.00172698 0)
(-3.74147e-05 -0.00205371 0)
(-5.23488e-05 -0.0023598 0)
(-6.95296e-05 -0.00264542 0)
(-8.94316e-05 -0.00291009 0)
(-0.000111464 -0.00315397 0)
(-0.000136299 -0.00337632 0)
(-0.000163229 -0.00357736 0)
(-0.000193404 -0.00375607 0)
(-0.000225334 -0.00391272 0)
(-0.000256951 -0.00404567 0)
(-0.000279929 -0.00415471 0)
(-0.000303841 -0.00423861 0)
(-0.000410423 -0.00430516 0)
(-0.000763363 -0.00436622 0)
(-0.00122496 -0.00442349 0)
(-0.00147023 -0.00452612 0)
(-0.00171605 -0.00478817 0)
(-0.00142735 -0.0049427 0)
(-0.00148353 -0.00525659 0)
(-0.0015031 -0.00592865 0)
(-0.00154239 -0.00643206 0)
(-0.00159425 -0.00688582 0)
(-0.00166891 -0.00731608 0)
(-0.0017702 -0.0077313 0)
(-0.00189687 -0.00814515 0)
(-0.00204651 -0.0085641 0)
(-0.00221734 -0.0089914 0)
(-0.00240819 -0.00942788 0)
(-0.00261835 -0.00987512 0)
(-0.00284669 -0.0103359 0)
(-0.00309152 -0.0108078 0)
(-0.00335085 -0.0112896 0)
(-0.00362305 -0.0117815 0)
(-0.00390676 -0.012284 0)
(-0.00420078 -0.0127967 0)
(-0.0045039 -0.013319 0)
(-0.00481506 -0.0138511 0)
(-0.00513333 -0.0143927 0)
(-0.00545791 -0.0149436 0)
(-0.00578809 -0.0155036 0)
(-0.00612329 -0.0160724 0)
(-0.00646301 -0.0166496 0)
(-0.0068068 -0.0172346 0)
(-0.00715432 -0.0178268 0)
(-0.00750527 -0.0184255 0)
(-3.78198e-07 -0.000188564 0)
(-3.86303e-06 -0.000548287 0)
(-1.08144e-05 -0.000890423 0)
(-2.11887e-05 -0.00121479 0)
(-3.46054e-05 -0.00152126 0)
(-5.11021e-05 -0.00180966 0)
(-7.0269e-05 -0.00207989 0)
(-9.2298e-05 -0.00233182 0)
(-0.000116628 -0.00256537 0)
(-0.000143609 -0.00278045 0)
(-0.000172632 -0.00297698 0)
(-0.000204505 -0.00315498 0)
(-0.000237867 -0.00331436 0)
(-0.0002699 -0.00345512 0)
(-0.000291815 -0.00357702 0)
(-0.000313444 -0.00368068 0)
(-0.000426543 -0.00376873 0)
(-0.000805487 -0.0038464 0)
(-0.00132152 -0.00393406 0)
(-0.00163209 -0.00403686 0)
(-0.00190924 -0.00478569 0)
(-0.00192088 -0.00473652 0)
(-0.00181047 -0.00470633 0)
(-0.00188638 -0.0047091 0)
(-0.00202341 -0.00476528 0)
(-0.00218455 -0.0048592 0)
(-0.00236257 -0.00498715 0)
(-0.00255793 -0.00514825 0)
(-0.00276954 -0.00533981 0)
(-0.00299559 -0.0055593 0)
(-0.00323444 -0.00580478 0)
(-0.00348485 -0.00607472 0)
(-0.00374581 -0.00636783 0)
(-0.00401642 -0.00668283 0)
(-0.00429591 -0.00701892 0)
(-0.00458358 -0.00737544 0)
(-0.00487878 -0.00775152 0)
(-0.00518088 -0.00814639 0)
(-0.00548932 -0.00855936 0)
(-0.00580358 -0.00898972 0)
(-0.00612322 -0.00943672 0)
(-0.00644782 -0.00989956 0)
(-0.00677701 -0.0103774 0)
(-0.00711049 -0.0108695 0)
(-0.00744798 -0.0113749 0)
(-0.00778925 -0.0118926 0)
(-0.0081341 -0.0124216 0)
(-0.00848237 -0.0129611 0)
(-0.00883391 -0.0135099 0)
(-0.0091886 -0.0140671 0)
(-2.44803e-07 -0.000168931 0)
(-2.91108e-06 -0.000490378 0)
(-8.47897e-06 -0.000795247 0)
(-1.6915e-05 -0.00108336 0)
(-2.81046e-05 -0.00135465 0)
(-4.19687e-05 -0.00160894 0)
(-5.84392e-05 -0.00184627 0)
(-7.74669e-05 -0.00206647 0)
(-9.89853e-05 -0.0022697 0)
(-0.000123002 -0.00245576 0)
(-0.000149543 -0.00262501 0)
(-0.000178506 -0.00277716 0)
(-0.000208672 -0.00291283 0)
(-0.000237486 -0.00303152 0)
(-0.000267023 -0.00313438 0)
(-0.000326973 -0.00322183 0)
(-0.000476833 -0.00329758 0)
(-0.000690211 -0.00337944 0)
(-0.000910908 -0.00342442 0)
(-0.00119558 -0.00347561 0)
(-0.00137474 -0.00317477 0)
(-0.00129437 -0.00286501 0)
(-0.00144267 -0.00261988 0)
(-0.00165321 -0.0024284 0)
(-0.00188133 -0.00228699 0)
(-0.00212026 -0.00219357 0)
(-0.00237273 -0.00214639 0)
(-0.00263902 -0.00214349 0)
(-0.00291778 -0.00218278 0)
(-0.00320747 -0.00226215 0)
(-0.00350678 -0.00237953 0)
(-0.00381458 -0.00253285 0)
(-0.00412987 -0.00272009 0)
(-0.00445178 -0.00293932 0)
(-0.00477954 -0.00318867 0)
(-0.00511249 -0.00346636 0)
(-0.00545008 -0.00377069 0)
(-0.00579184 -0.00410007 0)
(-0.00613736 -0.00445296 0)
(-0.00648632 -0.00482789 0)
(-0.00683845 -0.00522346 0)
(-0.00719354 -0.0056383 0)
(-0.00755139 -0.00607105 0)
(-0.00791189 -0.00652042 0)
(-0.00827492 -0.00698512 0)
(-0.00864038 -0.00746388 0)
(-0.00900822 -0.00795547 0)
(-0.00937839 -0.00845868 0)
(-0.00975084 -0.00897233 0)
(-0.0101255 -0.00949527 0)
(-2.43441e-07 -0.000151939 0)
(-2.41088e-06 -0.000439821 0)
(-6.88244e-06 -0.000711514 0)
(-1.3599e-05 -0.000966906 0)
(-2.25515e-05 -0.00120579 0)
(-3.36415e-05 -0.00142811 0)
(-4.69377e-05 -0.00163362 0)
(-6.23223e-05 -0.00182233 0)
(-7.99247e-05 -0.00199395 0)
(-9.96386e-05 -0.00214855 0)
(-0.000121716 -0.00228577 0)
(-0.000145689 -0.00240578 0)
(-0.000170513 -0.00250804 0)
(-0.000194235 -0.00259277 0)
(-0.000224009 -0.0026596 0)
(-0.000291905 -0.00271064 0)
(-0.000447722 -0.00275121 0)
(-0.000678865 -0.00277442 0)
(-0.000958274 -0.00277834 0)
(-0.0012963 -0.00201799 0)
(-0.0011139 -0.00122635 0)
(-0.0012435 -0.000548994 0)
(-0.00145131 2.70435e-05 0)
(-0.00168387 0.000509592 0)
(-0.00193076 0.000904586 0)
(-0.00219458 0.00121732 0)
(-0.00247501 0.00145327 0)
(-0.00276989 0.00161793 0)
(-0.00307695 0.00171671 0)
(-0.00339429 0.00175484 0)
(-0.00372036 0.00173729 0)
(-0.00405384 0.00166877 0)
(-0.00439363 0.00155367 0)
(-0.0047388 0.00139601 0)
(-0.0050886 0.0011995 0)
(-0.00544238 0.0009675 0)
(-0.00579964 0.00070305 0)
(-0.00615996 0.000408923 0)
(-0.00652301 8.76349e-05 0)
(-0.00688854 -0.000258515 0)
(-0.00725635 -0.000627419 0)
(-0.00762629 -0.00101714 0)
(-0.00799826 -0.00142587 0)
(-0.00837218 -0.00185193 0)
(-0.00874803 -0.00229376 0)
(-0.00912573 -0.00274988 0)
(-0.00950527 -0.0032189 0)
(-0.00988665 -0.00369952 0)
(-0.0102699 -0.00419051 0)
(-0.0106549 -0.0046907 0)
(-1.09168e-07 -0.000141189 0)
(-1.55934e-06 -0.000407225 0)
(-4.67478e-06 -0.000656872 0)
(-9.44265e-06 -0.00089005 0)
(-1.58361e-05 -0.00110671 0)
(-2.37748e-05 -0.00130675 0)
(-3.32707e-05 -0.00149011 0)
(-4.42315e-05 -0.00165666 0)
(-5.67298e-05 -0.00180635 0)
(-7.07084e-05 -0.001939 0)
(-8.61692e-05 -0.00205458 0)
(-0.000102028 -0.00215286 0)
(-0.000116396 -0.00223373 0)
(-0.000130652 -0.00229679 0)
(-0.000168392 -0.0023425 0)
(-0.000274141 -0.00237291 0)
(-0.000442208 -0.00240136 0)
(-0.000672687 -0.00239846 0)
(-0.00109572 -0.00188837 0)
(-0.00098256 -0.000524932 0)
(-0.00106179 0.000685324 0)
(-0.00124539 0.00174614 0)
(-0.001466 0.00266423 0)
(-0.00170359 0.00344745 0)
(-0.00195771 0.00410397 0)
(-0.00222848 0.0046427 0)
(-0.00251427 0.00507283 0)
(-0.002813 0.00540351 0)
(-0.00312281 0.00564369 0)
(-0.00344215 0.00580197 0)
(-0.00376971 0.00588643 0)
(-0.00410435 0.00590457 0)
(-0.00444514 0.00586326 0)
(-0.00479124 0.00576869 0)
(-0.00514197 0.00562644 0)
(-0.00549677 0.00544149 0)
(-0.00585517 0.00521827 0)
(-0.00621678 0.00496072 0)
(-0.0065813 0.00467234 0)
(-0.00694847 0.00435626 0)
(-0.0073181 0.00401525 0)
(-0.00769004 0.0036518 0)
(-0.00806416 0.00326814 0)
(-0.00844036 0.00286628 0)
(-0.00881856 0.00244806 0)
(-0.00919874 0.00201515 0)
(-0.00958084 0.00156907 0)
(-0.00996482 0.00111124 0)
(-0.0103507 0.000642959 0)
(-0.0107383 0.00016542 0)
(-2.05748e-07 -0.000131098 0)
(-1.76984e-06 -0.0003777 0)
(-4.86096e-06 -0.000608638 0)
(-9.43264e-06 -0.000823824 0)
(-1.54016e-05 -0.00102321 0)
(-2.2753e-05 -0.0012067 0)
(-3.1422e-05 -0.0013743 0)
(-4.14396e-05 -0.00152592 0)
(-5.27789e-05 -0.0016616 0)
(-6.55921e-05 -0.00178125 0)
(-7.95473e-05 -0.00188497 0)
(-9.32403e-05 -0.00197264 0)
(-0.000103901 -0.00204442 0)
(-0.00011705 -0.0021003 0)
(-0.000170507 -0.00214117 0)
(-0.000328952 -0.00216889 0)
(-0.00056872 -0.0021826 0)
(-0.00085839 -0.00215789 0)
(-0.00119504 -0.000217359 0)
(-0.00103377 0.00152974 0)
(-0.0011776 0.00307427 0)
(-0.00138782 0.00442611 0)
(-0.00161575 0.00559874 0)
(-0.00185385 0.00660488 0)
(-0.00210583 0.0074571 0)
(-0.00237207 0.00816776 0)
(-0.00265106 0.00874886 0)
(-0.00294113 0.00921202 0)
(-0.00324088 0.00956841 0)
(-0.00354913 0.00982863 0)
(-0.00386487 0.0100026 0)
(-0.00418718 0.0100995 0)
(-0.00451528 0.0101276 0)
(-0.00484849 0.0100944 0)
(-0.00518622 0.0100069 0)
(-0.00552796 0.00987086 0)
(-0.00587331 0.00969178 0)
(-0.00622189 0.00947439 0)
(-0.00657343 0.00922289 0)
(-0.00692767 0.00894097 0)
(-0.00728442 0.00863192 0)
(-0.00764352 0.00829862 0)
(-0.00800483 0.00794363 0)
(-0.00836826 0.00756925 0)
(-0.00873371 0.00717749 0)
(-0.00910113 0.00677018 0)
(-0.00947046 0.00634895 0)
(-0.00984165 0.0059153 0)
(-0.0102147 0.00547055 0)
(-0.0105895 0.00501596 0)
(-3.29976e-08 -0.000122188 0)
(-8.38064e-07 -0.000351219 0)
(-2.61416e-06 -0.000564731 0)
(-5.40706e-06 -0.000762586 0)
(-9.14783e-06 -0.000944588 0)
(-1.38675e-05 -0.00111068 0)
(-1.94805e-05 -0.00126065 0)
(-2.60784e-05 -0.00139455 0)
(-3.35887e-05 -0.00151214 0)
(-4.21442e-05 -0.00161358 0)
(-5.12184e-05 -0.00169853 0)
(-5.98529e-05 -0.00176716 0)
(-6.74626e-05 -0.00181876 0)
(-8.38422e-05 -0.00185428 0)
(-0.000133259 -0.00187684 0)
(-0.000250857 -0.00190144 0)
(-0.000478953 -0.0018924 0)
(-0.000972942 -0.000658656 0)
(-0.000838506 0.00156996 0)
(-0.000945224 0.00357622 0)
(-0.00113202 0.00537021 0)
(-0.00134336 0.00695793 0)
(-0.00156435 0.00834858 0)
(-0.00179679 0.00955321 0)
(-0.00204161 0.0105844 0)
(-0.00229793 0.0114554 0)
(-0.00256444 0.0121792 0)
(-0.00283999 0.0127688 0)
(-0.00312362 0.0132369 0)
(-0.00341449 0.0135955 0)
(-0.00371184 0.013856 0)
(-0.004015 0.014029 0)
(-0.00432335 0.0141241 0)
(-0.00463636 0.01415 0)
(-0.00495357 0.0141146 0)
(-0.00527456 0.014025 0)
(-0.00559898 0.0138873 0)
(-0.00592654 0.0137073 0)
(-0.00625698 0.0134897 0)
(-0.00659009 0.0132388 0)
(-0.00692569 0.0129586 0)
(-0.00726364 0.0126522 0)
(-0.00760382 0.0123227 0)
(-0.00794614 0.0119726 0)
(-0.00829053 0.0116043 0)
(-0.00863692 0.0112197 0)
(-0.00898527 0.0108208 0)
(-0.00933555 0.0104091 0)
(-0.00968773 0.00998609 0)
(-0.0100418 0.00955312 0)
(-1.08762e-07 -0.000118507 0)
(-7.4528e-07 -0.000340228 0)
(-1.95493e-06 -0.000546597 0)
(-3.68611e-06 -0.000737544 0)
(-5.92111e-06 -0.000913009 0)
(-8.618e-06 -0.00107292 0)
(-1.17887e-05 -0.00121722 0)
(-1.54866e-05 -0.00134585 0)
(-1.9876e-05 -0.00145877 0)
(-2.4718e-05 -0.00155593 0)
(-2.79503e-05 -0.00163727 0)
(-2.55307e-05 -0.00170273 0)
(-2.31219e-05 -0.00175227 0)
(-7.56895e-05 -0.00178639 0)
(-0.000271115 -0.00180622 0)
(-0.000560577 -0.00181849 0)
(-0.000862321 -0.00179898 0)
(-0.00129587 0.00108613 0)
(-0.00108419 0.00365759 0)
(-0.00122565 0.00594307 0)
(-0.00142622 0.00796055 0)
(-0.00163335 0.00973153 0)
(-0.00184067 0.0112765 0)
(-0.00205444 0.0126147 0)
(-0.00227664 0.013764 0)
(-0.00250689 0.0147408 0)
(-0.00274444 0.0155603 0)
(-0.00298869 0.0162369 0)
(-0.00323918 0.0167843 0)
(-0.00349546 0.0172153 0)
(-0.0037571 0.017542 0)
(-0.0040237 0.0177755 0)
(-0.00429489 0.0179261 0)
(-0.0045703 0.0180028 0)
(-0.00484963 0.0180142 0)
(-0.0051326 0.0179677 0)
(-0.00541894 0.0178701 0)
(-0.00570845 0.0177272 0)
(-0.00600093 0.0175444 0)
(-0.00629623 0.0173263 0)
(-0.00659419 0.0170771 0)
(-0.00689471 0.0168005 0)
(-0.00719769 0.0164995 0)
(-0.00750305 0.0161771 0)
(-0.00781072 0.0158356 0)
(-0.00812067 0.0154774 0)
(-0.00843283 0.0151043 0)
(-0.00874718 0.014718 0)
(-0.00906368 0.0143201 0)
(-0.00938232 0.0139119 0)
(7.17869e-09 -0.000115528 0)
(-3.40047e-07 -0.000331431 0)
(-1.16939e-06 -0.000532084 0)
(-2.48542e-06 -0.00071739 0)
(-4.31441e-06 -0.000887215 0)
(-6.61064e-06 -0.00104145 0)
(-9.45e-06 -0.00117995 0)
(-1.28111e-05 -0.00130257 0)
(-1.68367e-05 -0.00140922 0)
(-2.117e-05 -0.00149965 0)
(-2.48837e-05 -0.00157371 0)
(-2.66855e-05 -0.0016309 0)
(-3.33327e-05 -0.00167206 0)
(-6.73877e-05 -0.00170092 0)
(-0.000181757 -0.00173301 0)
(-0.000421912 -0.00172591 0)
(-0.000967235 0.000372218 0)
(-0.00080533 0.0031836 0)
(-0.000934597 0.00572782 0)
(-0.00112613 0.0080208 0)
(-0.00132955 0.0100746 0)
(-0.00153349 0.0119026 0)
(-0.00174155 0.0135181 0)
(-0.00195524 0.0149344 0)
(-0.00217422 0.0161648 0)
(-0.00239781 0.0172229 0)
(-0.00262554 0.0181218 0)
(-0.00285707 0.0188746 0)
(-0.00309215 0.0194945 0)
(-0.00333053 0.0199938 0)
(-0.003572 0.0203845 0)
(-0.00381635 0.0206779 0)
(-0.00406339 0.0208844 0)
(-0.00431296 0.0210134 0)
(-0.00456488 0.0210737 0)
(-0.00481902 0.0210731 0)
(-0.00507526 0.0210186 0)
(-0.00533348 0.0209165 0)
(-0.00559361 0.0207725 0)
(-0.00585556 0.0205915 0)
(-0.00611928 0.0203779 0)
(-0.00638472 0.0201355 0)
(-0.00665185 0.0198678 0)
(-0.00692064 0.0195778 0)
(-0.00719108 0.0192681 0)
(-0.00746316 0.0189409 0)
(-0.00773688 0.0185983 0)
(-0.00801224 0.0182421 0)
(-0.00828926 0.0178739 0)
(-0.00856792 0.0174951 0)
(6.82426e-08 -0.000111903 0)
(1.29895e-06 -0.000320953 0)
(3.67292e-06 -0.00051493 0)
(6.97503e-06 -0.000693561 0)
(1.0891e-05 -0.000856645 0)
(1.5122e-05 -0.00100402 0)
(1.93149e-05 -0.00113558 0)
(2.30455e-05 -0.00125128 0)
(2.63079e-05 -0.0013511 0)
(3.10859e-05 -0.00143506 0)
(4.15395e-05 -0.00150323 0)
(5.14678e-05 -0.00155593 0)
(1.43935e-06 -0.00159423 0)
(-0.000203906 -0.00161955 0)
(-0.00051366 -0.00163653 0)
(-0.000944758 -0.00161017 0)
(-0.00160242 0.00209432 0)
(-0.00124521 0.0053886 0)
(-0.0013911 0.00829169 0)
(-0.00159609 0.0108395 0)
(-0.00179497 0.0130701 0)
(-0.00198126 0.015018 0)
(-0.00216489 0.0167138 0)
(-0.0023492 0.0181838 0)
(-0.0025343 0.0194507 0)
(-0.00271992 0.0205341 0)
(-0.00290604 0.0214514 0)
(-0.00309279 0.0222184 0)
(-0.00328032 0.0228495 0)
(-0.00346878 0.0233584 0)
(-0.0036583 0.0237575 0)
(-0.00384901 0.0240585 0)
(-0.004041 0.0242718 0)
(-0.00423437 0.0244071 0)
(-0.00442919 0.0244734 0)
(-0.00462553 0.0244783 0)
(-0.00482343 0.0244292 0)
(-0.00502296 0.0243324 0)
(-0.00522414 0.0241935 0)
(-0.00542702 0.0240178 0)
(-0.00563163 0.0238095 0)
(-0.005838 0.0235728 0)
(-0.00604617 0.023311 0)
(-0.00625616 0.0230273 0)
(-0.00646801 0.0227243 0)
(-0.00668174 0.0224044 0)
(-0.00689739 0.0220696 0)
(-0.00711498 0.0217218 0)
(-0.00733455 0.0213626 0)
(-0.00755611 0.0209933 0)
(5.24716e-07 -0.000136957 0)
(3.30263e-06 -0.000386891 0)
(7.90606e-06 -0.000613388 0)
(1.38623e-05 -0.000816958 0)
(2.06758e-05 -0.000997996 0)
(2.80345e-05 -0.00115676 0)
(3.55852e-05 -0.00129348 0)
(4.31808e-05 -0.00140813 0)
(5.09507e-05 -0.00150072 0)
(5.92576e-05 -0.00157077 0)
(6.7033e-05 -0.00161853 0)
(6.398e-05 -0.00164584 0)
(3.19586e-05 -0.00166156 0)
(-6.55161e-05 -0.00168218 0)
(-0.000350803 -0.00165385 0)
(-0.00130528 0.00159326 0)
(-0.00122342 0.00470215 0)
(-0.00152511 0.00750211 0)
(-0.00186916 0.0100407 0)
(-0.00219524 0.0123337 0)
(-0.00249133 0.014392 0)
(-0.00276439 0.0162262 0)
(-0.00301834 0.0178491 0)
(-0.0032549 0.0192741 0)
(-0.0034755 0.0205155 0)
(-0.00368175 0.0215874 0)
(-0.00387536 0.0225036 0)
(-0.00405793 0.0232777 0)
(-0.00423095 0.0239226 0)
(-0.00439576 0.0244507 0)
(-0.00455356 0.0248737 0)
(-0.00470542 0.0252023 0)
(-0.00485231 0.0254466 0)
(-0.00499508 0.0256158 0)
(-0.00513448 0.0257181 0)
(-0.00527121 0.0257611 0)
(-0.00540587 0.0257517 0)
(-0.00553899 0.0256959 0)
(-0.00567107 0.0255992 0)
(-0.00580254 0.0254665 0)
(-0.00593379 0.0253021 0)
(-0.00606516 0.0251097 0)
(-0.00619698 0.0248928 0)
(-0.00632952 0.0246543 0)
(-0.00646305 0.0243968 0)
(-0.0065978 0.0241226 0)
(-0.00673398 0.0238338 0)
(-0.00687179 0.0235319 0)
(-0.00701139 0.0232187 0)
(-0.00715295 0.0228955 0)
(-8.52742e-07 -0.000143153 0)
(-7.65997e-06 -0.000400972 0)
(-2.03518e-05 -0.000631528 0)
(-3.72588e-05 -0.000836874 0)
(-5.73408e-05 -0.00101714 0)
(-7.84739e-05 -0.00117508 0)
(-9.96154e-05 -0.00130921 0)
(-0.000117727 -0.00142367 0)
(-0.000129731 -0.00151398 0)
(-0.000136221 -0.00158803 0)
(-0.000165175 -0.00164558 0)
(-0.000306055 -0.00149085 0)
(-0.000593398 -0.00126148 0)
(-0.00102149 -0.00116487 0)
(-0.00268672 0.00349316 0)
(-0.00216859 0.00781402 0)
(-0.00242894 0.0114262 0)
(-0.00275557 0.0144197 0)
(-0.00304499 0.0168949 0)
(-0.00328342 0.0189529 0)
(-0.0034891 0.0206755 0)
(-0.00367092 0.0221269 0)
(-0.00383218 0.0233554 0)
(-0.00397496 0.0243967 0)
(-0.00410138 0.0252772 0)
(-0.00421354 0.0260166 0)
(-0.0043134 0.0266306 0)
(-0.00440271 0.0271322 0)
(-0.00448308 0.0275327 0)
(-0.00455597 0.0278423 0)
(-0.0046227 0.0280702 0)
(-0.00468446 0.0282251 0)
(-0.00474232 0.0283148 0)
(-0.0047972 0.0283466 0)
(-0.00484997 0.0283272 0)
(-0.00490135 0.0282624 0)
(-0.004952 0.0281578 0)
(-0.00500249 0.0280184 0)
(-0.00505331 0.0278483 0)
(-0.00510492 0.0276517 0)
(-0.00515767 0.0274319 0)
(-0.00521191 0.0271919 0)
(-0.00526793 0.0269346 0)
(-0.00532597 0.0266621 0)
(-0.00538627 0.0263767 0)
(-0.005449 0.02608 0)
(-0.00551434 0.0257737 0)
(-0.00558245 0.0254591 0)
(-0.00565344 0.0251375 0)
(-0.00572744 0.0248097 0)
(-2.56807e-06 -4.09088e-05 0)
(-2.18646e-05 -0.000134091 0)
(-5.76995e-05 -0.000235788 0)
(-0.000107462 -0.000354801 0)
(-0.000168239 -0.000481438 0)
(-0.000236813 -0.000633246 0)
(-0.000307743 -0.000791673 0)
(-0.000374095 -0.000986572 0)
(-0.000440643 -0.00119288 0)
(-0.000586707 -0.00118336 0)
(-0.00088283 -0.00105853 0)
(-0.00132057 -0.000745702 0)
(-0.00301899 0.00532897 0)
(-0.00454434 0.00564786 0)
(-0.0137739 0.00773336 0)
(-0.0107526 0.00978585 0)
(-0.0113025 0.01176 0)
(-0.0118591 0.0136122 0)
(-0.0121441 0.0153271 0)
(-0.0121734 0.0168991 0)
(-0.0120756 0.0183262 0)
(-0.0119132 0.0196093 0)
(-0.0117137 0.0207519 0)
(-0.0114916 0.0217598 0)
(-0.0112556 0.0226407 0)
(-0.0110115 0.0234032 0)
(-0.0107625 0.0240566 0)
(-0.0105111 0.0246103 0)
(-0.0102588 0.0250734 0)
(-0.0100072 0.0254546 0)
(-0.00975752 0.0257619 0)
(-0.00951083 0.0260029 0)
(-0.0092682 0.0261845 0)
(-0.00903058 0.026313 0)
(-0.00879881 0.026394 0)
(-0.00857361 0.0264328 0)
(-0.00835561 0.0264339 0)
(-0.00814533 0.0264017 0)
(-0.00794321 0.0263397 0)
(-0.00774957 0.0262515 0)
(-0.00756471 0.0261399 0)
(-0.00738881 0.0260076 0)
(-0.00722202 0.0258571 0)
(-0.00706444 0.0256903 0)
(-0.00691611 0.0255091 0)
(-0.00677705 0.0253153 0)
(-0.00664724 0.0251102 0)
(-0.00652663 0.0248951 0)
(-0.00641517 0.0246711 0)
(-0.00631277 0.0244393 0)
(-1.42318e-06 0.000111106 0)
(-1.50971e-05 0.000287918 0)
(-4.26775e-05 0.000424108 0)
(-8.28403e-05 0.000514568 0)
(-0.00013247 0.00056972 0)
(-0.000187159 0.000576199 0)
(-0.000258404 0.000544717 0)
(-0.000401165 0.000446021 0)
(-0.000719299 0.000335742 0)
(-0.00128424 0.000571277 0)
(-0.00282843 0.00422486 0)
(-0.00367045 0.00409307 0)
(-0.00849085 0.0753218 0)
(-0.00435865 0.0647151 0)
(-0.00602023 0.049186 0)
(-0.00695365 0.0374374 0)
(-0.00736602 0.0292444 0)
(-0.00745917 0.0239657 0)
(-0.00743325 0.0209026 0)
(-0.00736037 0.0193955 0)
(-0.00727049 0.0188974 0)
(-0.00717608 0.0189964 0)
(-0.00708074 0.0194076 0)
(-0.0069833 0.0199497 0)
(-0.00688118 0.0205169 0)
(-0.0067722 0.0210535 0)
(-0.0066552 0.0215343 0)
(-0.00652993 0.0219518 0)
(-0.0063969 0.0223071 0)
(-0.00625702 0.0226053 0)
(-0.00611148 0.0228525 0)
(-0.00596153 0.023055 0)
(-0.00580841 0.0232182 0)
(-0.00565324 0.0233469 0)
(-0.00549709 0.023445 0)
(-0.00534088 0.023516 0)
(-0.00518544 0.0235629 0)
(-0.00503153 0.0235879 0)
(-0.00487981 0.0235934 0)
(-0.00473085 0.0235812 0)
(-0.00458518 0.023553 0)
(-0.00444326 0.0235101 0)
(-0.00430552 0.023454 0)
(-0.0041723 0.0233857 0)
(-0.00404392 0.0233064 0)
(-0.00392068 0.0232168 0)
(-0.00380281 0.0231179 0)
(-0.00369053 0.0230104 0)
(-0.00358402 0.0228948 0)
(-0.00348342 0.0227719 0)
(-0.000201922 -0.0411241 0)
(-8.97112e-05 -0.042748 0)
(-1.29381e-05 -0.0442114 0)
(3.0145e-05 -0.0455324 0)
(4.14458e-05 -0.0467286 0)
(2.30274e-05 -0.0478164 0)
(-2.29296e-05 -0.0488107 0)
(-9.41793e-05 -0.0497255 0)
(-0.000188474 -0.0505728 0)
(-0.000303627 -0.0513635 0)
(-0.000437556 -0.0521069 0)
(-0.000588313 -0.0528109 0)
(-0.000754106 -0.0534821 0)
(-0.000933309 -0.054126 0)
(-0.00112446 -0.0547468 0)
(-0.00132627 -0.0553481 0)
(-0.00153759 -0.0559323 0)
(-0.00175744 -0.0565014 0)
(-0.00198493 -0.0570567 0)
(-0.00221932 -0.0575991 0)
(-0.00245995 -0.0581289 0)
(-0.00270625 -0.0586465 0)
(-0.00295773 -0.0591517 0)
(-0.00321396 -0.0596443 0)
(-0.00347456 -0.0601241 0)
(-0.00373917 -0.0605907 0)
(-0.00400748 -0.0610436 0)
(-0.00427922 -0.0614825 0)
(-0.00455412 -0.0619069 0)
(-0.00483194 -0.0623164 0)
(-0.00511245 -0.0627107 0)
(-0.00539543 -0.0630894 0)
(-0.00568069 -0.0634522 0)
(-0.00596802 -0.0637989 0)
(-0.00625725 -0.0641293 0)
(-0.0065482 -0.0644431 0)
(-0.0068407 -0.0647402 0)
(-0.0071346 -0.0650205 0)
(-0.00742975 -0.065284 0)
(-0.007726 -0.0655305 0)
(-0.00802324 -0.0657603 0)
(-0.00832132 -0.0659733 0)
(-0.00862015 -0.0661695 0)
(-0.00891961 -0.0663493 0)
(-0.00921961 -0.0665126 0)
(-0.00952007 -0.0666597 0)
(-0.0098209 -0.0667909 0)
(-0.0101221 -0.0669063 0)
(-0.0104238 -0.0670063 0)
(-0.0107254 -0.0670914 0)
(0.000322767 -0.0422118 0)
(0.000234578 -0.0433743 0)
(0.000117238 -0.0444039 0)
(-2.60593e-05 -0.0453222 0)
(-0.000192262 -0.0461487 0)
(-0.000378511 -0.0469002 0)
(-0.000582169 -0.0475914 0)
(-0.000800839 -0.0482347 0)
(-0.00103237 -0.0488404 0)
(-0.00127487 -0.0494169 0)
(-0.00152669 -0.0499711 0)
(-0.00178639 -0.0505081 0)
(-0.00205279 -0.0510321 0)
(-0.00232485 -0.0515458 0)
(-0.00260174 -0.0520514 0)