/*--------------------------------*- C++ -*----------------------------------*\
| =========                 |                                                 |
| \\      /  F ield         | OpenFOAM: The Open Source CFD Toolbox           |
|  \\    /   O peration     | Version:  2.4.0                                 |
|   \\  /    A nd           | Web:      www.OpenFOAM.org                      |
|    \\/     M anipulation  |                                                 |
\*---------------------------------------------------------------------------*/
FoamFile
{
    version     2.0;
    format      ascii;
    class       volScalarField;
    location    "2.1";
    object      alpha1;
}
// * * * * * * * * * * * * * * * * * * * * * * * * * * * * * * * * * * * * * //

dimensions      [0 0 0 0 0 0 0];

internalField   nonuniform List<scalar> 
8000
(
1
1
1
1
1
1
1
1
1
1
0.999999
0.999999
0.999999
0.999999
0.999999
0.999999
0.999999
0.999999
0.999999
0.999999
0.999999
0.999999
0.999999
0.999999
0.999999
0.999999
0.999999
0.999999
0.999999
0.999998
0.999997
0.999995
0.999986
0.999978
0.999995
0.999996
0.999997
0.999995
0.999993
0.999979
0.999929
0.999878
0.999956
0.999984
0.999993
0.999996
0.999994
0.999992
0.999986
0.99999
1
1
1
1
1
1
1
1
1
1
1
0.999999
0.999999
0.999999
0.999999
0.999999
0.999999
0.999999
0.999999
0.999999
0.999999
0.999999
0.999999
0.999999
0.999999
0.999999
1
0.999999
0.999999
0.999999
0.999999
0.999999
0.999998
0.999998
0.999998
0.999997
0.999997
0.999996
0.999996
0.999995
0.999994
0.999993
0.999991
0.99999
0.999991
0.999992
0.999993
0.999996
0.999996
0.999997
1
1
1
1
1
1
1
1
1
1
1
0.999999
0.999999
0.999999
0.999999
0.999999
0.999999
0.999999
0.999999
0.999999
0.999999
0.999999
0.999999
0.999999
0.999999
0.999999
0.999999
0.999999
0.999999
0.999999
0.999999
0.999999
0.999999
0.999999
0.999998
0.999998
0.999998
0.999997
0.999997
0.999996
0.999996
0.999995
0.999995
0.999994
0.999992
0.999993
0.999994
0.999994
0.999997
0.999997
1
1
1
1
1
1
1
1
1
1
1
1
1
0.999999
0.999999
0.999999
0.999999
0.999999
0.999999
0.999999
0.999999
0.999999
0.999999
0.999999
0.999999
0.999999
0.999999
0.999999
0.999999
0.999999
0.999999
0.999999
0.999999
0.999999
0.999999
0.999999
0.999999
0.999999
0.999998
0.999998
0.999997
0.999997
0.999996
0.999995
0.999994
0.999996
0.999996
0.999994
0.999961
0.998492
1
1
1
1
1
1
1
1
1
1
1
1
1
1
1
0.999999
0.999999
0.999999
0.999999
0.999999
0.999999
0.999999
0.999999
0.999999
0.999999
0.999999
0.999999
0.999999
0.999999
0.999999
0.999999
0.999999
0.999999
0.999999
0.999999
0.999999
0.999999
0.999999
0.999999
0.999999
0.999998
0.999998
0.999998
0.999998
0.999996
0.999915
0.999729
0.948755
0.850438
0.631093
1
1
1
1
1
1
1
1
1
1
1
1
1
1
1
1
1
1
1
1
1
1
1
1
1
1
1
1
1
1
1
1
1
1
0.999999
0.999999
0.999999
0.999999
0.999999
0.999999
0.999999
0.999996
0.9999
0.999817
0.951455
0.766433
0.56924
0.379876
0.207921
0.0345306
1
1
1
1
1
1
1
1
1
1
1
1
1
1
1
1
1
1
1
1
1
1
1
1
1
1
1
1
1
1
1
1
1
0.999999
0.999999
0.999999
0.999999
0.999999
0.999989
0.999916
0.999679
0.947587
0.732921
0.633322
0.190804
0.0652614
0.0250562
0.00622905
0.00299072
0.000396811
1
1
1
1
1
1
1
1
1
1
1
1
1
1
1
1
1
1
1
1
1
1
1
1
1
1
1
1
1
1
1
0.999999
0.999999
0.999998
0.999999
0.999996
0.999911
0.999512
0.907365
0.749407
0.497506
0.100979
0.0193173
0.0133649
0.000879713
0.000349872
6.56868e-05
2.03227e-05
8.89104e-06
8.33555e-07
1
1
1
1
1
1
1
1
1
1
1
1
1
1
1
1
1
1
1
1
1
1
1
1
1
1
1
1
1
0.999999
0.999999
0.999998
0.999999
0.999975
0.999594
0.944215
0.740982
0.374734
0.0412539
0.0292743
0.00119683
0.00035451
9.76571e-05
4.80669e-05
1.2935e-06
5.12598e-07
3.78518e-07
3.46089e-07
4.84621e-07
3.33919e-07
1
1
1
1
1
1
1
1
1
1
1
1
1
1
1
1
1
1
1
1
1
1
1
1
1
1
1
1
0.999999
0.999998
0.999999
0.999985
0.999383
0.857925
0.429343
0.0440037
0.0175289
0.00592181
0.000346673
0.000232412
8.10783e-07
6.36077e-07
5.9117e-07
5.79459e-07
5.59424e-07
3.54905e-07
3.34936e-07
3.31108e-07
3.36576e-07
3.40816e-07
1
1
1
1
1
1
1
1
1
1
1
1
1
1
1
1
1
1
1
1
1
1
1
1
1
1
1
0.999999
0.999998
0.999997
0.999662
0.885518
0.272044
0.0162194
0.0102677
0.00131689
0.000195991
0.000118008
4.00686e-06
2.21251e-06
7.06747e-07
5.28546e-07
5.18151e-07
4.79817e-07
4.40931e-07
3.83231e-07
3.57501e-07
3.4931e-07
3.57977e-07
3.88208e-07
1
1
1
1
1
1
1
1
1
1
1
1
1
1
1
1
1
1
1
1
1
1
1
1
1
1
1
0.999998
0.999904
0.99856
0.432542
0.0157157
0.00340376
0.000893831
0.000359286
0.000185932
0.0001016
5.73922e-05
3.33967e-05
2.11034e-05
1.43632e-05
1.6345e-05
1.57068e-05
9.28863e-06
3.45358e-06
8.27396e-07
4.12896e-07
1.84222e-06
3.12024e-06
3.09644e-06
1
1
1
1
1
1
1
1
1
1
1
1
1
1
1
1
1
1
1
1
1
1
1
1
1
1
1
0.999999
0.998573
0.377886
0.00527056
0.000227999
0.000184793
5.5522e-05
2.5694e-05
2.38908e-05
8.97386e-06
4.77787e-06
9.58499e-06
3.24595e-05
9.72086e-05
0.000101972
0.000101821
5.73098e-05
1.79035e-05
7.79935e-06
5.21018e-06
3.76282e-06
2.48363e-06
1.35789e-06
1
1
1
1
1
1
1
1
1
1
1
1
1
1
1
1
1
1
1
1
1
1
1
1
1
1
1
1
0.999999
0.999924
0.322834
0.0112738
0.0110235
0.000516943
0.000343561
1.83205e-05
4.34572e-06
8.35175e-07
8.26052e-07
8.16199e-07
8.00516e-07
7.90731e-07
7.4783e-07
6.38221e-07
6.26189e-07
6.14701e-07
6.04006e-07
6.10119e-07
5.84945e-07
6.44136e-07
1
1
1
1
1
1
1
1
1
1
1
1
1
1
1
1
1
1
1
1
1
1
1
1
1
1
1
1
1
0.999998
0.999691
0.999528
0.301576
0.0216363
0.0268295
0.00155372
0.0010512
1.08298e-05
6.66101e-06
8.17362e-07
8.09685e-07
8.00004e-07
8.72082e-07
6.43986e-07
6.1456e-07
5.93886e-07
5.7856e-07
5.63295e-07
5.86614e-07
6.02286e-07
1
1
1
1
1
1
1
1
1
1
1
1
1
1
1
1
1
1
1
1
1
1
1
1
1
1
1
1
1
1
0.999999
0.999998
0.999695
0.98313
0.579287
0.05997
0.0764808
0.00324413
0.00316421
0.000146442
0.000161572
3.8775e-06
2.73063e-06
7.36628e-07
6.24006e-07
6.22523e-07
6.57332e-07
2.75878e-07
2.64904e-07
2.73273e-07
1
1
1
1
1
1
1
1
1
1
1
1
1
1
1
1
1
1
1
1
1
1
1
1
1
1
1
1
1
1
0.999999
0.999999
0.999996
0.999999
0.999976
0.979875
0.965655
0.651395
0.186128
0.0548975
0.0338309
0.00250254
0.0022266
0.000298019
8.2879e-05
4.15313e-06
3.18768e-06
1.64958e-07
9.88246e-08
5.16117e-08
1
1
1
1
1
1
1
1
1
1
1
1
1
1
1
1
1
1
1
1
1
1
1
1
1
1
1
1
1
1
1
0.999999
0.999999
0.999999
0.999999
1
1
1
0.989062
0.966168
0.876176
0.373607
0.116824
0.0644557
0.0254886
0.00138683
0.00161496
7.37323e-06
2.30171e-05
4.35104e-09
1
1
1
1
1
1
1
1
1
1
1
1
1
1
1
1
1
1
1
1
1
1
1
1
1
1
1
1
1
1
1
1
1
1
1
1
1
1
1
1
1
1
0.973967
0.94084
0.802338
0.358142
0.0975852
0.0408104
0.0066362
4.84787e-09
1
1
1
1
1
1
1
1
1
1
1
1
1
1
1
1
1
1
1
1
1
1
1
1
1
1
1
1
1
1
1
1
1
1
1
1
1
1
1
1
1
1
1
0.999998
0.991162
0.980782
0.925994
0.966162
0.760617
1.13944e-08
0.999996
1.00002
1.00001
0.999797
0.993161
0.976486
0.94622
0.813567
0.371518
0.0763641
0.0125225
0.0020387
0.000266844
1.72484e-05
2.11427e-06
2.06368e-06
2.36286e-06
1.96944e-06
1.30147e-06
1.09295e-06
9.88159e-07
8.59132e-07
7.69181e-07
6.96506e-07
6.36091e-07
5.88187e-07
5.52323e-07
5.28614e-07
5.15241e-07
5.01542e-07
5.02717e-07
5.06767e-07
5.21887e-07
5.22913e-07
9.06083e-07
5.25386e-07
4.76474e-07
8.78529e-07
6.10233e-07
6.34338e-07
6.00977e-07
6.32541e-07
6.32623e-07
7.33857e-07
6.67829e-07
7.31882e-07
7.91596e-07
7.56389e-07
6.63604e-07
1.21603e-06
0.999999
0.999996
0.999979
0.999979
0.999967
0.977996
0.920365
0.807687
0.464402
0.109753
0.0154367
0.00198199
0.000192103
9.56191e-06
2.05719e-06
2.29326e-06
1.08546e-06
9.41215e-07
7.94515e-07
6.67739e-07
5.70576e-07
5.00508e-07
4.53134e-07
4.22871e-07
4.05093e-07
3.95926e-07
3.93513e-07
3.98075e-07
4.0697e-07
4.03506e-07
4.22386e-07
4.35156e-07
4.58054e-07
6.22125e-07
5.43143e-07
5.82225e-07
4.7153e-07
6.02615e-07
5.81546e-07
5.31525e-07
5.27628e-07
7.67045e-07
6.61205e-07
5.69366e-07
5.81944e-07
7.4085e-07
5.88327e-07
5.72862e-07
8.41754e-07
5.63758e-07
0.999995
0.999973
0.994135
0.953068
0.864066
0.704037
0.454114
0.196045
0.0566459
0.0115706
0.00175096
0.000151382
5.74686e-06
2.13174e-06
9.62525e-07
3.65345e-07
4.14203e-07
3.88809e-07
3.44628e-07
3.12058e-07
2.99271e-07
2.96072e-07
2.98089e-07
3.02686e-07
3.09967e-07
3.18976e-07
3.30641e-07
3.44059e-07
3.56176e-07
3.60602e-07
3.54012e-07
3.71994e-07
3.55887e-07
7.55915e-07
4.03048e-07
3.5523e-07
3.89827e-07
3.82618e-07
4.24169e-07
4.35492e-07
4.55287e-07
9.28137e-07
4.24073e-07
4.18906e-07
4.52625e-07
8.83144e-07
3.72121e-07
4.93009e-07
1.04706e-06
4.95722e-07
0.953627
0.873262
0.738573
0.515561
0.281754
0.111681
0.0346035
0.00981969
0.001415
6.78389e-05
5.61457e-06
1.15966e-06
6.77426e-07
3.94453e-07
2.93866e-07
2.56609e-07
2.36487e-07
2.26588e-07
2.26016e-07
2.29585e-07
2.34728e-07
2.40906e-07
2.47884e-07
2.55359e-07
2.63253e-07
2.71739e-07
2.80815e-07
2.89799e-07
2.97306e-07
3.01712e-07
3.01611e-07
2.96102e-07
2.8503e-07
2.68537e-07
5.79385e-07
2.41856e-07
3.27197e-07
3.21957e-07
3.17252e-07
3.13126e-07
3.0677e-07
2.94935e-07
6.35469e-07
2.3538e-07
3.39426e-07
2.58533e-07
3.68186e-07
3.82473e-07
3.96128e-07
4.89452e-07
0.42842
0.256952
0.135162
0.0247942
0.0111957
0.00164167
0.000243193
4.22274e-05
3.70344e-06
1.11967e-06
4.19519e-07
2.77939e-07
2.20368e-07
1.93871e-07
1.83727e-07
1.81505e-07
1.83556e-07
1.87877e-07
1.93142e-07
1.98514e-07
2.03556e-07
2.08142e-07
2.12379e-07
2.16495e-07
2.20662e-07
2.24793e-07
2.2845e-07
2.3096e-07
2.31679e-07
2.30218e-07
2.26452e-07
2.20312e-07
2.11633e-07
2.00676e-07
1.90326e-07
2.37802e-07
2.33326e-07
2.26823e-07
2.18966e-07
2.10585e-07
2.01924e-07
1.92279e-07
1.80339e-07
2.30844e-07
4.55925e-07
1.64394e-07
2.64995e-07
2.79597e-07
2.89073e-07
2.84871e-07
0.0270487
0.00330355
0.00203415
0.000105815
4.96057e-05
2.37379e-06
1.4456e-06
7.77059e-07
4.33078e-07
2.64558e-07
1.91797e-07
1.72586e-07
1.68404e-07
1.69757e-07
1.73364e-07
1.77669e-07
1.81931e-07
1.85797e-07
1.89127e-07
1.919e-07
1.94166e-07
1.96019e-07
1.97568e-07
1.98907e-07
2.00071e-07
2.01016e-07
2.01607e-07
2.01661e-07
2.01022e-07
1.99638e-07
1.97577e-07
1.94988e-07
1.9204e-07
1.88842e-07
1.85421e-07
1.8173e-07
1.77709e-07
1.73337e-07
1.68658e-07
1.63781e-07
1.58865e-07
1.5409e-07
1.49693e-07
1.4632e-07
1.46052e-07
1.59142e-07
1.58468e-07
1.57909e-07
1.57259e-07
1.56685e-07
0.000251957
7.12079e-06
4.63638e-06
1.03515e-06
6.27539e-07
5.85406e-07
2.90352e-07
2.15208e-07
1.8406e-07
1.76754e-07
1.79468e-07
1.85092e-07
1.91049e-07
1.9654e-07
2.01286e-07
2.0523e-07
2.08418e-07
2.10926e-07
2.12844e-07
2.14258e-07
2.15236e-07
2.15821e-07
2.16046e-07
2.15961e-07
2.15597e-07
2.1501e-07
2.14217e-07
2.13179e-07
2.11815e-07
2.10072e-07
2.07947e-07
2.05433e-07
2.02547e-07
1.99286e-07
1.95655e-07
1.91655e-07
1.87272e-07
1.82503e-07
1.77351e-07
1.71874e-07
1.66205e-07
1.60506e-07
1.54862e-07
1.49288e-07
1.43732e-07
1.3809e-07
1.32444e-07
1.27113e-07
1.22365e-07
1.18292e-07
6.4354e-07
5.48232e-07
9.20464e-07
3.29844e-07
2.10582e-07
1.92442e-07
1.94584e-07
2.05767e-07
2.16109e-07
2.25354e-07
2.33564e-07
2.40866e-07
2.47353e-07
2.53111e-07
2.58242e-07
2.62817e-07
2.67007e-07
2.70823e-07
2.74332e-07
2.77536e-07
2.80475e-07
2.83041e-07
2.85136e-07
2.87023e-07
2.8861e-07
2.90043e-07
2.91356e-07
2.92512e-07
2.93141e-07
2.92951e-07
2.9209e-07
2.9058e-07
2.88699e-07
2.86333e-07
2.8352e-07
2.8031e-07
2.76605e-07
2.72333e-07
2.67376e-07
2.61738e-07
2.55734e-07
2.49818e-07
2.43943e-07
2.37912e-07
2.31807e-07
2.24759e-07
2.16732e-07
2.08836e-07
2.0116e-07
1.91061e-07
2.67384e-07
2.46101e-07
2.57606e-07
2.36145e-07
2.45248e-07
2.59099e-07
2.72946e-07
2.85972e-07
2.97599e-07
3.08063e-07
3.17531e-07
3.26558e-07
3.34924e-07
3.42573e-07
3.49458e-07
3.54548e-07
3.59862e-07
3.6498e-07
3.70236e-07
3.75009e-07
3.80602e-07
3.85347e-07
3.8649e-07
3.89296e-07
3.91621e-07
3.94496e-07
3.97228e-07
4.02258e-07
4.08454e-07
4.11895e-07
4.14088e-07
4.13584e-07
4.14076e-07
4.13845e-07
4.12768e-07
4.12125e-07
4.11345e-07
4.10132e-07
4.07969e-07
4.04122e-07
3.99248e-07
3.96125e-07
3.93466e-07
3.87424e-07
3.85402e-07
3.8173e-07
3.75141e-07
3.73071e-07
3.84657e-07
3.51704e-07
3.46856e-07
3.57938e-07
3.70619e-07
3.81868e-07
3.91727e-07
4.02608e-07
4.08238e-07
4.18132e-07
4.21736e-07
4.23628e-07
4.2214e-07
4.26227e-07
4.34354e-07
4.48727e-07
4.69441e-07
4.57943e-07
4.5154e-07
4.49246e-07
4.54461e-07
4.53131e-07
4.76238e-07
5.08207e-07
4.75865e-07
4.7465e-07
4.65632e-07
4.73647e-07
4.55186e-07
4.50756e-07
4.7925e-07
4.90059e-07
5.07703e-07
4.94995e-07
4.98397e-07
5.02813e-07
4.97803e-07
4.99028e-07
5.03082e-07
5.06603e-07
5.11828e-07
5.15146e-07
5.10447e-07
5.19318e-07
5.48195e-07
5.11329e-07
5.13118e-07
5.13059e-07
5.09532e-07
4.84968e-07
1.03026e-06
3.72894e-07
4.13219e-07
4.51642e-07
4.96557e-07
5.40345e-07
4.95385e-07
5.82727e-07
4.14442e-07
6.26252e-07
4.89684e-07
8.99937e-07
5.28592e-07
4.85482e-07
5.09259e-07
4.40854e-07
6.69612e-07
7.32771e-07
6.05709e-07
5.48536e-07
4.59393e-07
5.36357e-07
4.7428e-07
1.00109e-06
5.23375e-07
5.78424e-07
4.68211e-07
1.04317e-06
5.07438e-07
7.74107e-07
4.67942e-07
4.61378e-07
8.18718e-07
4.95545e-07
4.8882e-07
9.57642e-07
4.92796e-07
4.8569e-07
9.13392e-07
4.93394e-07
4.85585e-07
9.50765e-07
4.93893e-07
4.8864e-07
9.37291e-07
6.0744e-07
6.68658e-07
5.1588e-07
1.17704e-06
5.63848e-07
5.25456e-07
7.82831e-07
1.25842e-06
4.46144e-07
4.38097e-07
1.03721e-06
2.58327e-06
2.58519e-06
1.76889e-06
4.60697e-07
4.17647e-07
4.17563e-07
8.52269e-07
1.65661e-06
8.48669e-07
4.38805e-07
4.34699e-07
4.91654e-07
1.21654e-06
1.22432e-06
6.87741e-07
4.76712e-07
4.74659e-07
4.65652e-07
4.65593e-07
7.51265e-07
9.14486e-07
7.77392e-07
4.95165e-07
5.07754e-07
4.95073e-07
4.88613e-07
4.79272e-07
4.88998e-07
4.96536e-07
4.88995e-07
4.86806e-07
4.85622e-07
4.85138e-07
4.85104e-07
4.85443e-07
4.8559e-07
4.86806e-07
4.88447e-07
4.89251e-07
6.77775e-07
1.52565e-06
6.48107e-07
6.00369e-07
5.86494e-07
5.55148e-07
5.29389e-07
4.43698e-07
4.36807e-07
4.37785e-07
4.64123e-07
4.6463e-07
6.46688e-07
4.23297e-07
4.17713e-07
4.17575e-07
4.17659e-07
9.74076e-07
1.63987e-06
1.40821e-06
5.08753e-07
4.3573e-07
4.35618e-07
4.35242e-07
4.42133e-07
1.48859e-06
1.59212e-06
1.27507e-06
4.76053e-07
4.65661e-07
4.68599e-07
4.70293e-07
4.71668e-07
4.7816e-07
2.18181e-06
1.44986e-06
5.12057e-07
4.79958e-07
1.664e-06
1.25655e-06
4.96446e-07
4.94896e-07
4.93442e-07
4.92043e-07
4.90431e-07
4.88736e-07
4.87874e-07
4.90168e-07
5.01474e-07
5.37566e-07
7.25492e-07
1.96627e-06
1.98492e-06
1.14403e-06
6.02247e-07
5.94035e-07
5.57098e-07
6.95263e-07
7.14578e-07
5.60054e-07
1.13553e-06
6.13276e-07
6.63775e-07
1.11317e-06
9.36032e-07
8.79655e-07
1.0237e-06
1.25647e-06
1.1121e-06
1.14541e-06
1.12298e-06
1.01328e-06
9.11968e-07
8.42399e-07
7.97939e-07
7.91111e-07
7.95378e-07
7.83068e-07
7.49438e-07
7.27403e-07
7.30431e-07
7.62489e-07
8.72913e-07
1.37019e-06
4.50249e-06
8.4586e-06
8.45676e-06
4.99997e-06
2.31511e-06
1.43278e-06
1.25814e-06
1.13122e-06
9.85285e-07
8.59452e-07
7.60011e-07
6.82212e-07
6.22682e-07
5.80512e-07
5.47516e-07
5.50562e-07
5.9292e-07
7.52806e-07
1.32865e-06
3.88322e-06
9.1847e-06
1.04084e-05
4.66109e-06
6.9804e-07
5.36119e-07
6.38349e-07
6.6108e-07
7.0297e-07
7.00217e-07
1.11924e-06
4.20178e-07
7.33592e-07
7.39782e-07
9.4515e-07
2.73144e-06
2.7733e-06
2.21995e-06
8.13078e-07
7.91142e-07
8.19517e-07
9.28989e-07
1.65903e-06
1.65609e-06
1.14195e-06
9.30579e-07
9.8974e-07
1.4752e-06
1.47013e-06
1.10602e-06
1.01349e-06
9.454e-07
7.42733e-07
2.15515e-06
4.32777e-06
2.06529e-06
1.19628e-06
1.19776e-06
1.15262e-06
1.07964e-06
9.90766e-07
9.11855e-07
8.39083e-07
7.48494e-07
6.4028e-07
1.26792e-06
7.36991e-07
1.53911e-06
1.15464e-06
1.24458e-06
3.98754e-06
9.71314e-06
1.04141e-05
4.54872e-06
2.99098e-07
3.40463e-07
3.72813e-07
3.91335e-07
3.82262e-07
3.56974e-07
3.54623e-07
4.04654e-07
4.13217e-07
4.16459e-07
4.10972e-07
3.89553e-07
3.9562e-07
3.98098e-07
4.0919e-07
4.18855e-07
4.31401e-07
4.45347e-07
4.58483e-07
4.8226e-07
5.03223e-07
5.2218e-07
5.43951e-07
5.71425e-07
6.11034e-07
6.51876e-07
6.88321e-07
7.17642e-07
7.35693e-07
7.36801e-07
7.32087e-07
7.22445e-07
6.90911e-07
6.97634e-07
9.61255e-07
2.29476e-06
2.29756e-06
1.76617e-06
9.01756e-07
8.51498e-07
7.89027e-07
7.0796e-07
6.21303e-07
5.30009e-07
4.51492e-07
3.84732e-07
3.34406e-07
2.99452e-07
2.78135e-07
2.65149e-07
6.09029e-08
6.8077e-08
7.18624e-08
7.26016e-08
7.2464e-08
7.37885e-08
7.46426e-08
7.02319e-08
6.43837e-08
5.8333e-08
5.24318e-08
4.69433e-08
4.2015e-08
3.76639e-08
3.38081e-08
3.03403e-08
2.71976e-08
2.43791e-08
2.19104e-08
1.98017e-08
1.80363e-08
1.65842e-08
1.54164e-08
1.45132e-08
1.3864e-08
1.3463e-08
1.33025e-08
1.33672e-08
1.36322e-08
1.40617e-08
1.46095e-08
1.52197e-08
1.58305e-08
1.63831e-08
1.68556e-08
1.73395e-08
1.83695e-08
1.92219e-08
1.99138e-08
2.02771e-08
2.04258e-08
2.04112e-08
2.02525e-08
1.99579e-08
1.95351e-08
1.89939e-08
1.8347e-08
1.76092e-08
1.67956e-08
1.59213e-08
3.81506e-09
3.27634e-09
2.8063e-09
2.4011e-09
2.05223e-09
1.75234e-09
1.49461e-09
1.2724e-09
1.07956e-09
9.10717e-10
7.61346e-10
6.27851e-10
5.07615e-10
3.99085e-10
3.01815e-10
2.16464e-10
1.44666e-10
8.87507e-11
5.04228e-11
2.83011e-11
1.6019e-11
9.75081e-12
6.42002e-12
4.42308e-12
3.08427e-12
2.14085e-12
1.47184e-12
1.00187e-12
6.758e-13
4.5223e-13
3.00513e-13
1.98424e-13
1.3018e-13
8.47899e-14
5.47338e-14
3.49294e-14
2.19693e-14
1.35706e-14
8.20128e-15
4.82953e-15
2.7595e-15
1.52317e-15
8.08463e-16
4.10609e-16
1.9847e-16
9.07315e-17
3.89389e-17
1.55429e-17
5.69997e-18
1.88752e-18
4.67922e-09
4.41966e-09
4.18025e-09
3.96625e-09
3.75873e-09
3.54405e-09
3.32243e-09
3.09865e-09
2.87751e-09
2.66232e-09
2.45533e-09
2.25757e-09
2.06747e-09
1.87911e-09
1.67841e-09
1.44302e-09
1.1432e-09
7.7712e-10
4.16779e-10
2.06085e-10
7.93983e-11
2.44686e-11
5.90489e-12
1.08961e-12
1.4975e-13
1.49997e-14
1.15478e-15
1.22216e-16
3.95735e-17
1.85398e-17
8.69152e-18
3.94667e-18
1.72942e-18
7.29482e-19
2.95442e-19
1.14576e-19
4.24221e-20
1.49463e-20
4.99222e-21
1.57393e-21
4.66e-22
1.28766e-22
3.29534e-23
7.73432e-24
1.64341e-24
3.10555e-25
5.08563e-26
6.9289e-27
7.30241e-28
5.04161e-29
1.72929e-08
6.07069e-09
3.67434e-09
3.84996e-09
4.49359e-09
4.96474e-09
5.18284e-09
5.19426e-09
5.05147e-09
4.77043e-09
4.36843e-09
3.91056e-09
3.53487e-09
3.49426e-09
4.04367e-09
5.42097e-09
7.02564e-09
7.17125e-09
4.15648e-09
2.54175e-09
1.10458e-09
3.73659e-10
9.69607e-11
1.89258e-11
2.71102e-12
2.76554e-13
1.93928e-14
9.00978e-16
2.91532e-17
1.22464e-18
1.73082e-19
3.64664e-20
7.97039e-21
1.7278e-21
3.69695e-22
7.77912e-23
1.60419e-23
3.23139e-24
6.33737e-25
1.20588e-25
2.21709e-26
3.91708e-27
6.59689e-28
1.04602e-28
1.53211e-29
2.01363e-30
2.27212e-31
2.0526e-32
1.31114e-33
4.41235e-35
6.15495e-07
6.02954e-07
5.98756e-07
8.85237e-07
7.86322e-07
6.58222e-07
6.56065e-07
1.14204e-06
1.48068e-06
9.62043e-07
4.79962e-07
5.68978e-07
1.14936e-06
1.46602e-06
1.47122e-06
6.93405e-07
6.49263e-07
6.71458e-07
6.49414e-07
6.52127e-07
1.69146e-06
2.49415e-06
1.30792e-06
5.16695e-07
5.0955e-07
5.21638e-07
7.88062e-07
2.67082e-06
2.75931e-06
2.14555e-06
7.11665e-07
6.80091e-07
6.80602e-07
1.53869e-06
2.74642e-06
2.74229e-06
1.96827e-06
5.45457e-07
4.23488e-07
4.38703e-07
1.55685e-06
7.54299e-06
7.99504e-06
7.16683e-06
2.26585e-06
7.08953e-07
7.00211e-07
6.99997e-07
4.40397e-06
1.07884e-05
1.07801e-05
7.87618e-06
2.2228e-06
5.96366e-07
5.67953e-07
9.37684e-07
1.22311e-06
1.43193e-06
4.61229e-06
3.4895e-05
4.58095e-05
4.58745e-05
2.8297e-05
7.54029e-06
2.84181e-06
1.28334e-06
8.17e-07
1.31242e-06
7.46161e-06
5.84581e-05
7.51606e-05
7.5288e-05
5.04322e-05
1.12851e-05
2.53799e-06
2.8729e-06
5.43597e-06
5.47258e-06
2.94606e-06
9.45429e-07
1.83535e-06
6.89145e-06
7.48654e-05
0.000176339
0.000176359
0.000176332
9.14991e-05
1.25657e-05
2.31337e-06
2.30931e-06
2.426e-06
2.01309e-06
1.55197e-06
3.70211e-06
4.50526e-05
0.000250869
0.000270031
0.000271133
0.000109765
1.99293e-05
5.42005e-05
4.02526e-05
1.4486e-05
4.6301e-06
4.42373e-06
1.12589e-05
1.87185e-05
9.3835e-06
8.3568e-06
8.44317e-06
4.04497e-05
0.000292279
0.000438654
0.000439003
0.000438655
0.000192086
2.76383e-05
1.02997e-06
3.23119e-07
3.18679e-07
3.18327e-07
3.85482e-07
1.65104e-06
1.312e-05
0.000200051
0.000361079
0.000359008
0.0002221
4.39186e-05
1.95053e-06
3.43112e-07
3.36834e-07
3.44314e-07
3.51575e-07
3.53502e-07
4.09396e-07
1.62054e-06
2.84209e-05
7.27277e-05
4.85216e-05
1.38972e-05
1.38922e-06
4.15912e-07
4.1246e-07
4.22583e-07
4.29141e-07
4.29666e-07
4.32307e-07
3.42417e-06
8.43377e-05
0.000177287
0.000106547
2.00986e-05
1.08479e-06
8.53464e-07
6.52882e-06
4.37153e-05
2.2839e-05
4.60913e-06
4.6241e-07
4.36661e-07
4.3691e-07
4.37004e-07
1.65779e-06
2.559e-06
2.56616e-06
1.20349e-06
1.35176e-06
5.36848e-06
7.119e-05
6.53934e-05
2.11704e-05
2.16483e-06
3.72023e-07
5.72066e-07
7.4176e-07
7.35665e-07
3.67055e-07
3.62897e-07
5.37189e-07
4.42725e-06
6.85546e-06
5.87326e-06
1.81306e-06
3.73334e-07
3.68703e-07
4.9481e-07
6.26653e-06
7.65188e-06
2.6964e-06
5.98114e-07
1.26132e-06
9.02929e-06
2.13199e-05
1.76802e-05
4.12215e-06
3.4737e-07
4.09531e-07
3.75742e-06
5.06835e-06
4.92295e-06
1.65653e-06
2.2829e-07
2.0551e-07
2.05976e-07
2.14441e-07
2.35321e-07
2.69652e-07
3.19606e-07
3.80413e-07
4.39873e-07
4.98855e-07
5.18388e-07
8.39318e-07
3.75482e-06
1.97243e-06
7.34042e-07
7.31108e-07
1.59887e-06
5.79271e-06
6.22107e-06
3.94728e-06
9.21499e-07
6.44327e-07
2.1309e-06
5.19703e-06
5.20954e-06
2.18575e-06
1.02547e-06
1.02338e-06
1.74099e-06
5.25005e-06
5.32528e-06
3.47883e-06
1.52936e-06
1.526e-06
2.06003e-06
1.46408e-06
1.17235e-06
1.40139e-06
6.65911e-06
9.87755e-06
9.89282e-06
6.06746e-06
1.44514e-06
1.05103e-06
1.09317e-06
1.07783e-06
1.03255e-06
1.90432e-06
8.45191e-06
1.89317e-05
8.46719e-06
2.02719e-06
1.00849e-06
1.00578e-06
1.00578e-06
1.55396e-06
7.08845e-06
7.74338e-06
7.64213e-06
3.11057e-06
5.44496e-07
7.64794e-07
1.05759e-06
1.20185e-06
1.0426e-06
8.43129e-07
6.98915e-07
6.33416e-07
6.12202e-07
6.10055e-07
6.44346e-07
4.64429e-07
2.70802e-07
1.63808e-07
1.21916e-07
9.69486e-08
7.2554e-08
4.93214e-08
3.09613e-08
1.9934e-08
1.68989e-08
2.18581e-08
3.53395e-08
5.84921e-08
9.2329e-08
1.37295e-07
1.92746e-07
2.56636e-07
3.27526e-07
4.04116e-07
4.8342e-07
5.60973e-07
6.45638e-07
7.87132e-07
8.79019e-07
8.69989e-07
8.22995e-07
8.23719e-07
6.63129e-07
8.35082e-07
8.35245e-07
8.83155e-07
9.78511e-07
7.03057e-07
1.07216e-06
8.95535e-07
1.12453e-06
7.0506e-07
7.8479e-07
7.32447e-07
8.68529e-07
8.50911e-07
1.15579e-06
1.04737e-06
1.61082e-06
1.26126e-06
1.55552e-06
9.78485e-07
8.6716e-07
1.40907e-06
9.01447e-07
9.32734e-07
1.04161e-06
1.34565e-06
1.25121e-06
1.08873e-06
1.2713e-06
9.68341e-07
1.12158e-06
9.94792e-07
1.49174e-06
1.97468e-06
2.21372e-06
1.65163e-06
2.91239e-06
1.53655e-06
1.51475e-06
1.57343e-06
1.94927e-06
3.17366e-06
2.11761e-06
1.4676e-06
1.61715e-06
1.7483e-06
2.61929e-06
1.61908e-06
1.69235e-06
1.96713e-06
2.66046e-06
2.48873e-06
2.56198e-06
2.66783e-06
8.27744e-06
9.46006e-06
8.2253e-06
2.42025e-06
1.65559e-06
2.15746e-06
3.72229e-06
5.64835e-06
2.32637e-05
3.67254e-05
3.67256e-05
1.96594e-05
4.58476e-06
8.93797e-07
8.94754e-07
9.70028e-07
1.07679e-06
1.07749e-06
2.74071e-06
2.06185e-05
0.000117261
0.00014183
0.000142033
0.00010253
2.77488e-05
2.3313e-06
7.28903e-06
2.2885e-05
2.22672e-05
9.51934e-06
5.70717e-06
5.3202e-06
4.8654e-06
4.84126e-06
2.0806e-05
0.000134111
0.000184327
0.000184543
0.000184327
0.000184541
0.000178368
8.14769e-05
2.90265e-05
1.16625e-05
7.79632e-06
7.79963e-06
4.85469e-05
7.78261e-05
7.78183e-05
4.95409e-05
9.44136e-06
4.92718e-06
4.92226e-06
1.68859e-05
0.000154147
0.000289507
0.000290038
0.000293949
0.000145653
6.5549e-05
3.86667e-05
1.55341e-05
3.21895e-06
1.05546e-06
3.05184e-06
2.17002e-05
0.000177373
0.000300555
0.000301575
0.000300552
0.000301572
0.000210568
6.11351e-05
1.42177e-05
1.92145e-06
3.44995e-07
3.38853e-07
3.36807e-07
4.04367e-07
5.00045e-06
6.31761e-06
1.5439e-06
1.36448e-06
6.80947e-06
4.20656e-05
2.20888e-05
4.55305e-06
4.45321e-07
4.10498e-07
4.09943e-07
4.09915e-07
1.25785e-06
1.87145e-05
3.50616e-05
3.5081e-05
2.80954e-05
8.55134e-06
1.44659e-06
9.34266e-07
9.54498e-07
7.12151e-06
4.01871e-05
4.38193e-05
4.00079e-05
1.30459e-05
1.18067e-06
4.39649e-07
5.41294e-07
7.50704e-07
7.1462e-07
7.14478e-07
1.33079e-06
2.11273e-05
3.76492e-05
3.78998e-05
2.29676e-05
5.80779e-06
2.09834e-06
1.05343e-06
3.64082e-07
3.59137e-07
3.59059e-07
3.59059e-07
4.34975e-07
7.04098e-06
8.79519e-06
3.22359e-06
4.96089e-07
4.30425e-07
4.60181e-07
3.75708e-07
1.08431e-06
1.06983e-05
1.57201e-05
1.57454e-05
9.89328e-06
3.71011e-06
5.23037e-06
5.19663e-06
1.7852e-06
2.55424e-07
2.67047e-07
2.91039e-07
2.77049e-07
2.42186e-07
2.08702e-07
1.76039e-07
1.66324e-07
1.69924e-07
1.88306e-07
2.2834e-07
2.97852e-07
3.9473e-07
5.0201e-07
6.41768e-07
7.75272e-07
7.78056e-07
7.10528e-07
1.15368e-06
5.2618e-06
3.84319e-06
1.34753e-06
7.37146e-07
1.45218e-06
5.78235e-06
6.02386e-06
4.28129e-06
1.38238e-06
8.72557e-07
1.17162e-06
3.04001e-06
4.96917e-06
2.04117e-06
1.50908e-06
1.87834e-06
2.045e-06
1.94105e-06
1.94835e-06
2.05495e-06
1.88199e-06
1.87711e-06
1.96408e-06
2.17341e-06
6.24556e-06
6.39884e-06
5.08205e-06
1.95781e-06
2.45425e-06
2.37715e-06
4.33731e-06
3.57766e-06
2.0343e-06
1.99101e-06
1.98271e-06
2.01624e-06
2.08025e-06
1.93279e-06
1.9726e-06
1.56865e-06
1.38141e-06
1.48788e-06
1.22305e-06
1.9969e-06
2.00424e-06
1.94257e-06
1.60999e-06
1.08119e-06
5.96755e-07
4.13402e-07
3.5522e-07
2.90575e-07
2.27306e-07
1.8466e-07
1.67784e-07
1.61318e-07
1.55488e-07
1.48674e-07
1.4042e-07
1.16121e-07
8.29432e-08
5.85249e-08
4.47641e-08
3.72796e-08
3.38024e-08
3.5259e-08
4.40448e-08
6.48359e-08
1.03937e-07
1.66044e-07
2.49674e-07
3.49283e-07
4.57083e-07
5.65312e-07
6.6937e-07
7.72718e-07
8.94801e-07
1.05589e-06
1.19896e-06
1.32565e-06
1.41568e-06
1.37022e-06
1.33876e-06
5.77412e-06
4.21012e-06
1.35579e-06
1.83959e-06
6.71389e-07
1.47691e-06
5.20441e-07
7.09391e-07
1.31642e-06
3.65992e-07
5.0062e-07
4.96095e-07
4.26187e-07
4.91686e-07
5.6713e-07
7.48851e-07
1.11256e-06
1.66557e-06
2.44364e-06
1.37413e-06
7.69186e-07
6.80345e-07
1.20328e-06
6.75373e-07
6.09471e-07
6.05959e-07
6.93063e-07
8.77124e-07
1.16776e-06
1.4125e-06
1.21905e-06
6.42202e-07
4.28733e-07
4.45024e-07
5.53076e-07
2.48564e-06
3.57543e-06
3.4657e-06
1.00793e-06
5.86094e-07
4.76934e-07
5.78023e-07
6.14354e-07
9.28711e-07
4.54612e-07
4.27423e-07
5.9034e-07
2.74509e-06
3.89526e-06
3.25629e-06
7.613e-07
7.06055e-07
9.37228e-07
2.27538e-06
2.1367e-06
3.97082e-07
4.06621e-07
4.08151e-07
4.99641e-07
7.5581e-07
9.60059e-07
9.70236e-07
5.02592e-06
1.53227e-05
1.68344e-05
1.42444e-05
1.82497e-06
7.06123e-07
6.81638e-07
7.2228e-07
7.93684e-07
8.85212e-07
9.9741e-07
2.89625e-06
5.80158e-06
9.05658e-06
1.32774e-05
1.72343e-05
8.6531e-06
1.06474e-05
1.41138e-05
7.61503e-06
4.61873e-06
3.72224e-06
3.86539e-06
4.44774e-06
4.93746e-06
5.63907e-06
5.89017e-06
7.62191e-06
7.64237e-06
7.19386e-06
9.09876e-06
1.13121e-05
1.40462e-05
4.44457e-05
3.67451e-05
1.86109e-05
8.4126e-06
2.07065e-06
2.05061e-06
2.38782e-06
7.99545e-06
5.41233e-05
7.78245e-05
7.78177e-05
7.30588e-05
2.54649e-05
4.17658e-06
1.24308e-05
3.88806e-05
4.11795e-05
2.92133e-05
1.88461e-05
1.87031e-05
2.76411e-05
8.65686e-05
6.01678e-05
3.4985e-05
8.39585e-06
1.30701e-05
5.46068e-05
7.51739e-05
7.50792e-05
6.31303e-05
4.33118e-05
3.88307e-05
2.96046e-05
1.60053e-05
7.84757e-06
7.80242e-06
3.32181e-05
4.15835e-05
4.18814e-05
1.81285e-05
2.51029e-06
6.52887e-07
4.75348e-06
1.09899e-05
5.37802e-06
1.46592e-06
1.18714e-06
1.2287e-06
1.20166e-06
1.88112e-06
2.47571e-05
4.62192e-05
4.63e-05
2.68593e-05
5.63931e-06
7.63806e-06
2.56573e-05
3.50591e-05
2.70637e-05
6.93946e-06
1.77334e-06
1.03959e-05
3.11708e-05
3.13491e-05
2.07366e-05
4.6077e-06
3.41976e-06
1.43702e-05
1.87435e-05
1.8789e-05
9.84044e-06
6.82457e-06
1.27865e-05
1.27964e-05
1.03839e-05
3.87775e-06
1.56655e-06
1.50923e-06
1.46349e-06
2.46905e-06
7.00757e-06
3.43389e-06
7.22828e-07
3.62136e-07
3.59115e-07
4.08956e-07
4.99054e-06
9.69657e-06
9.64357e-06
4.08805e-06
9.81331e-07
4.63841e-06
1.79981e-05
1.85713e-05
1.65177e-05
5.10918e-06
4.09136e-07
2.35536e-07
2.16171e-07
2.10933e-07
1.99648e-07
1.84498e-07
1.73085e-07
1.59701e-07
1.3949e-07
1.20425e-07
1.08271e-07
1.0652e-07
1.16733e-07
1.3915e-07
1.74748e-07
2.27252e-07
3.095e-07
4.45393e-07
6.43279e-07
8.41089e-07
8.6848e-07
1.25654e-06
1.61612e-06
1.0398e-06
1.20555e-06
2.46464e-06
5.2587e-06
5.25804e-06
3.25521e-06
1.1891e-06
2.76101e-06
5.69689e-06
2.151e-06
1.59894e-06
1.60009e-06
1.81392e-06
1.60926e-06
3.0787e-06
1.61777e-06
1.70773e-06
1.6463e-06
1.84575e-06
1.86372e-06
1.84873e-06
1.77061e-06
2.81667e-06
1.25497e-06
1.42785e-06
1.40978e-06
1.29504e-06
1.24006e-06
1.1892e-06
1.23133e-06
1.25052e-06
1.21527e-06
1.14634e-06
1.08615e-06
1.06306e-06
1.02819e-06
9.85906e-07
9.26158e-07
8.62789e-07
7.9384e-07
7.13675e-07
6.56071e-07
5.83206e-07
5.57006e-07
5.19986e-07
4.98116e-07
4.66266e-07
4.18046e-07
3.4526e-07
2.67312e-07
2.00458e-07
1.55897e-07
1.27487e-07
1.0375e-07
8.48438e-08
7.35264e-08
6.69559e-08
6.33716e-08
6.12551e-08
6.06701e-08
6.15586e-08
6.45836e-08
7.10414e-08
8.28791e-08
1.01629e-07
1.30335e-07
1.72831e-07
2.30527e-07
3.04878e-07
4.31575e-07
6.94376e-07
9.40699e-07
1.26147e-06
1.34439e-06
1.3673e-06
1.34949e-06
1.31322e-06
1.36086e-06
1.48144e-06
1.74731e-06
2.2019e-06
2.0936e-06
2.17709e-06
2.53549e-06
2.82534e-06
5.49777e-06
1.21759e-05
6.91748e-06
4.15994e-06
9.82085e-06
4.74845e-07
4.50448e-07
5.09131e-07
4.77783e-07
3.92268e-07
3.61024e-07
3.86737e-07
7.8856e-07
3.24783e-07
4.68131e-07
5.21515e-07
6.04718e-07
7.752e-07
1.08912e-06
2.43725e-06
6.08707e-07
5.3384e-07
5.16872e-07
5.74488e-07
8.53458e-07
3.72686e-07
4.30385e-07
4.78064e-07
5.1635e-07
5.83279e-07
7.33542e-07
1.04165e-06
2.30436e-07
2.80289e-07
3.15162e-07
3.48881e-07
3.82294e-07
4.35481e-07
4.63179e-07
1.00126e-06
3.41799e-07
3.41303e-07
4.21309e-07
6.32573e-07
2.50139e-07
3.32797e-07
3.38888e-07
3.88693e-07
1.91454e-06
3.90967e-06
1.26606e-06
3.52229e-07
3.17645e-07
2.91873e-07
2.88327e-07
3.02183e-07
3.16774e-07
3.28857e-07
3.73281e-07
5.82721e-07
2.32587e-06
2.85576e-06
2.81227e-06
8.8949e-07
5.61996e-07
7.03299e-07
6.64736e-07
5.53785e-07
4.06345e-07
3.96521e-07
4.37494e-07
4.42056e-07
8.26643e-07
5.95301e-06
1.90916e-05
2.42788e-05
2.42325e-05
1.38715e-05
1.42304e-06
4.35766e-07
4.12177e-07
3.80423e-07
3.74146e-07
3.55122e-07
4.40374e-07
3.80997e-06
1.02242e-05
1.06842e-05