/*--------------------------------*- C++ -*----------------------------------*\
| =========                 |                                                 |
| \\      /  F ield         | OpenFOAM: The Open Source CFD Toolbox           |
|  \\    /   O peration     | Version:  2.4.0                                 |
|   \\  /    A nd           | Web:      www.OpenFOAM.org                      |
|    \\/     M anipulation  |                                                 |
\*---------------------------------------------------------------------------*/
FoamFile
{
    version     2.0;
    format      ascii;
    class       volScalarField;
    location    "2.1";
    object      p;
}
// * * * * * * * * * * * * * * * * * * * * * * * * * * * * * * * * * * * * * //

dimensions      [1 -1 -2 0 0 0 0];

internalField   nonuniform List<scalar> 
8000
(
5.87136
5.83498
5.79587
5.76072
5.72935
5.70087
5.67501
5.65174
5.6311
5.61308
5.59765
5.58482
5.57457
5.56689
5.56178
5.55924
5.55927
5.56184
5.56697
5.57467
5.58502
5.59778
5.61318
5.63112
5.65164
5.67472
5.70037
5.72857
5.75932
5.79263
5.82848
5.86685
5.90874
5.95574
5.99501
6.04333
6.09456
6.14674
6.20204
6.25955
6.31949
6.40728
6.43182
6.4972
6.5644
6.63456
6.70442
6.77823
6.85798
6.93393
4.75175
4.73007
4.70679
4.68588
4.66731
4.65056
4.6355
4.62211
4.61041
4.60042
4.59213
4.58553
4.58062
4.5774
4.57587
4.57602
4.57784
4.58134
4.58649
4.59331
4.6018
4.6118
4.62365
4.63721
4.65213
4.66884
4.68738
4.70719
4.7288
4.75203
4.77685
4.8033
4.83138
4.86105
4.89231
4.92517
4.95967
4.99574
5.03339
5.07265
5.11345
5.15559
5.19914
5.2448
5.29057
5.33816
5.38699
5.43707
5.48897
5.54266
3.46505
3.45985
3.45418
3.44881
3.44366
3.43864
3.43375
3.429
3.42441
3.41999
3.41576
3.41172
3.40787
3.40421
3.40074
3.39747
3.39437
3.39145
3.38868
3.38605
3.38354
3.38114
3.37882
3.37655
3.3743
3.37204
3.36972
3.36733
3.36477
3.36203
3.35904
3.35575
3.35207
3.34798
3.34334
3.33814
3.33223
3.32557
3.31799
3.30945
3.29977
3.2889
3.27661
3.26289
3.24837
3.23198
3.21502
3.19448
3.16258
3.12321
2.03975
2.04215
2.04449
2.04661
2.04867
2.05075
2.05289
2.0551
2.0574
2.05981
2.06235
2.06502
2.06784
2.07083
2.07399
2.07732
2.08085
2.08456
2.08848
2.09258
2.09689
2.10138
2.10609
2.11096
2.11605
2.12129
2.12674
2.13231
2.13808
2.14395
2.14999
2.15609
2.16236
2.16862
2.17505
2.18141
2.18791
2.19427
2.20076
2.20698
2.21331
2.21955
2.22702
2.23582
2.24275
2.23055
2.20739
2.11486
1.87367
1.21805
0.905796
0.913283
0.921791
0.92964
0.936721
0.943208
0.949181
0.954662
0.959656
0.96418
0.968243
0.971867
0.975057
0.97784
0.980217
0.982218
0.98384
0.985122
0.986052
0.986679
0.986981
0.98702
0.986761
0.986292
0.985557
0.98467
0.983549
0.982347
0.980945
0.97955
0.977993
0.976549
0.974976
0.973656
0.972249
0.971265
0.970209
0.969757
0.969515
0.971326
0.975392
0.979796
0.968911
0.952
0.83158
0.443321
-0.142222
-2.89047
-4.06017
-4.75965
-0.56471
-0.555837
-0.547025
-0.539274
-0.53228
-0.525802
-0.519791
-0.514245
-0.509169
-0.504552
-0.50039
-0.496673
-0.493402
-0.490565
-0.488168
-0.486201
-0.484671
-0.48357
-0.48291
-0.482681
-0.482902
-0.48356
-0.484684
-0.486257
-0.488315
-0.490834
-0.493867
-0.497378
-0.501437
-0.505995
-0.511146
-0.516822
-0.523152
-0.530077
-0.53781
-0.54593
-0.553413
-0.558643
-0.565387
-0.589692
-0.62985
-0.75261
-1.09511
-1.62423
-4.90972
-6.08429
-6.7254
-6.39148
-5.15052
-2.96323
-1.29419
-1.28351
-1.2711
-1.25979
-1.24988
-1.24115
-1.23346
-1.22679
-1.22114
-1.21652
-1.21291
-1.21033
-1.20877
-1.20826
-1.20878
-1.21039
-1.21304
-1.21685
-1.22174
-1.22784
-1.23509
-1.24364
-1.2534
-1.26459
-1.27706
-1.2911
-1.30652
-1.3237
-1.34235
-1.363
-1.38531
-1.41002
-1.43625
-1.46382
-1.49108
-1.52463
-1.57828
-1.63416
-1.76588
-2.16346
-3.22069
-7.59965
-10.2259
-9.87792
-7.49596
-5.46054
-3.02125
-1.56682
-1.41012
-1.48703
-2.85404
-2.84654
-2.84033
-2.83538
-2.83107
-2.82715
-2.82365
-2.82056
-2.81793
-2.81572
-2.81397
-2.81263
-2.81175
-2.81128
-2.81126
-2.81165
-2.81248
-2.8137
-2.81535
-2.81739
-2.81984
-2.82267
-2.82588
-2.82948
-2.8334
-2.83772
-2.8423
-2.84731
-2.85255
-2.85828
-2.8638
-2.86937
-2.87519
-2.88296
-2.88143
-2.95465
-3.47868
-5.01131
-9.1202
-11.6163
-10.5396
-8.39326
-2.4255
-1.66434
-1.5302
-1.51674
-1.51355
-1.51702
-1.51329
-1.5119
-2.73637
-2.73898
-2.73889
-2.73743
-2.73538
-2.73299
-2.73014
-2.7269
-2.72313
-2.71899
-2.71429
-2.70922
-2.70354
-2.69747
-2.69072
-2.68358
-2.67563
-2.66727
-2.65797
-2.64823
-2.63738
-2.62605
-2.6134
-2.60024
-2.58549
-2.57016
-2.55306
-2.53579
-2.51714
-2.49651
-2.46231
-2.40226
-2.35678
-2.70288
-4.20581
-8.71345
-11.7327
-8.94299
-4.70064
-4.02215
-1.589
-1.53864
-1.5427
-1.53866
-1.53625
-1.53605
-1.53626
-1.5363
-1.53616
-1.53605
-4.93646
-4.92766
-4.9213
-4.91696
-4.91363
-4.91103
-4.90916
-4.90807
-4.90778
-4.90828
-4.90956
-4.91165
-4.91452
-4.91818
-4.92264
-4.92788
-4.93392
-4.94074
-4.94837
-4.95676
-4.96598
-4.97596
-4.98675
-4.99823
-5.01074
-5.02489
-5.04162
-5.05614
-5.04927
-5.00076
-5.01888
-5.59014
-7.44074
-9.98002
-10.4654
-4.87869
-2.04677
-1.20957
-1.56271
-1.546
-1.55567
-1.55634
-1.55666
-1.55666
-1.55658
-1.55665
-1.5567
-1.55676
-1.55681
-1.55686
-4.45696
-4.45812
-4.45661
-4.45455
-4.45302
-4.45214
-4.45189
-4.45221
-4.45317
-4.45471
-4.45693
-4.45973
-4.46322
-4.46727
-4.47202
-4.47726
-4.48321
-4.48956
-4.49662
-4.50393
-4.51194
-4.51996
-4.52876
-4.53802
-4.54934
-4.55884
-4.55369
-4.51361
-4.50572
-4.8794
-6.13398
-7.93402
-6.8366
-2.09166
-1.4465
-1.58535
-1.58956
-1.57289
-1.57927
-1.58031
-1.58054
-1.58056
-1.58058
-1.58064
-1.58071
-1.58076
-1.5808
-1.58083
-1.58086
-1.58089
-6.60555
-6.59455
-6.58619
-6.58042
-6.57625
-6.57335
-6.57177
-6.57157
-6.57277
-6.57536
-6.57932
-6.58462
-6.59119
-6.599
-6.60792
-6.61791
-6.62879
-6.64051
-6.6528
-6.66557
-6.67847
-6.69191
-6.70656
-6.72234
-6.72795
-6.69346
-6.62115
-6.78275
-7.95014
-10.04
-5.55943
-2.50735
-1.52751
-1.54484
-1.57735
-1.58893
-1.59655
-1.59673
-1.5969
-1.59698
-1.59603
-1.59662
-1.59692
-1.59829
-1.59884
-1.59905
-1.59902
-1.59984
-1.59939
-1.59954
-5.86084
-5.8329
-5.80101
-5.7739
-5.75267
-5.73665
-5.72546
-5.71903
-5.71737
-5.7205
-5.72843
-5.74118
-5.7588
-5.78133
-5.80885
-5.84142
-5.87916
-5.92214
-5.97046
-6.02426
-6.08414
-6.15127
-6.22521
-6.29522
-6.33548
-6.36473
-6.66427
-7.90058
-9.5382
-4.74819
-1.65534
-1.59606
-1.60253
-1.61049
-1.61515
-1.61486
-1.61429
-1.61291
-1.61548
-1.61572
-1.61515
-1.61269
-1.61418
-1.61618
-1.6175
-1.61828
-1.61881
-1.61929
-1.61974
-1.62013
-7.73562
-7.66569
-7.59975
-7.54919
-7.51211
-7.4864
-7.4715
-7.46744
-7.47423
-7.49196
-7.52065
-7.56045
-7.61148
-7.67397
-7.74813
-7.83429
-7.93277
-8.04397
-8.16833
-8.30636
-8.45866
-8.62593
-8.80884
-9.00717
-9.2197
-9.44874
-9.71754
-10.0759
-10.4922
-10.4159
-6.72137
-1.73296
-1.62719
-1.6468
-1.6292
-1.63873
-1.64391
-1.64516
-1.64495
-1.6449
-1.64518
-1.64557
-1.64575
-1.64593
-1.64609
-1.64623
-1.64635
-1.64644
-1.64651
-1.64658
-3.8978
-3.89131
-3.88264
-3.87422
-3.86662
-3.85968
-3.85332
-3.84745
-3.84211
-3.83721
-3.83279
-3.82874
-3.82511
-3.82177
-3.8188
-3.81601
-3.81353
-3.81111
-3.80892
-3.80666
-3.80451
-3.8021
-3.79967
-3.79702
-3.79523
-3.79383
-3.78696
-3.75495
-3.69623
-3.76715
-4.42235
-5.86159
-7.78723
-1.5759
-1.77913
-1.80601
-1.68523
-1.66765
-1.66737
-1.66826
-1.6688
-1.66863
-1.6686
-1.66859
-1.66857
-1.66856
-1.66853
-1.66851
-1.6685
-1.66848
-1.52361
-1.56526
-1.60593
-1.63804
-1.66236
-1.68011
-1.6917
-1.69713
-1.69637
-1.68937
-1.6761
-1.65644
-1.6303
-1.59748
-1.55784
-1.51109
-1.45705
-1.39531
-1.32566
-1.24759
-1.16083
-1.06474
-0.958994
-0.842844
-0.716062
-0.577807
-0.4271
-0.259912
-0.0725716
0.122076
0.257309
0.241317
-0.477479
-4.39202
-9.38204
-4.37161
-5.60167
-2.12869
-1.95681
-1.71422
-1.69202
-1.69016
-1.69148
-1.69237
-1.69244
-1.6922
-1.69197
-1.69179
-1.69163
-1.69152
-1.45633
-1.48009
-1.50704
-1.53067
-1.55032
-1.56661
-1.57982
-1.59006
-1.59731
-1.60159
-1.60291
-1.60126
-1.59663
-1.58901
-1.57837
-1.56467
-1.54788
-1.52794
-1.50482
-1.47844
-1.44876
-1.41567
-1.37916
-1.33907
-1.29539
-1.24797
-1.19691
-1.1419
-1.08227
-1.01588
-0.944252
-0.885753
-0.881957
-0.901609
-1.07937
-2.96135
-5.43686
-11.7866
-11.3887
-4.52324
-2.92307
-1.98138
-1.8764
-1.73315
-1.71634
-1.71352
-1.71326
-1.71366
-1.71342
-1.71317
0.303366
0.284451
0.267274
0.251988
0.237696
0.22442
0.212647
0.202812
0.195313
0.190435
0.188493
0.189692
0.194304
0.202465
0.214416
0.230221
0.25011
0.274071
0.302332
0.334801
0.371723
0.412904
0.458629
0.508578
0.563103
0.621725
0.684894
0.751926
0.823391
0.89827
0.977325
1.05979
1.14912
1.2463
1.34347
1.39959
1.47087
1.4657
0.77119
-1.94811
-8.69476
-10.8487
-7.57601
-4.2482
-2.33385
-1.78562
-1.78667
-1.73509
-1.73123
-1.73538
-1.32849
-1.30265
-1.28493
-1.27676
-1.27472
-1.27657
-1.28113
-1.28756
-1.29511
-1.30311
-1.31097
-1.31818
-1.32434
-1.32906
-1.33206
-1.33305
-1.33185
-1.32826
-1.32216
-1.31343
-1.30201
-1.28785
-1.27092
-1.25126
-1.22885
-1.20383
-1.17619
-1.14618
-1.11376
-1.07936
-1.04288
-1.00493
-0.965345
-0.924971
-0.883118
-0.840074
-0.793951
-0.752916
-0.73859
-0.733845
-0.71834
-0.66755
-2.87771
-6.15229
-11.3174
-12.7164
-8.45965
-3.84374
-1.37834
-1.76683
3.12719
2.69676
2.26428
1.89199
1.56802
1.2776
1.01465
0.776659
0.561688
0.367849
0.193443
0.0370224
-0.102633
-0.22656
-0.335648
-0.430657
-0.512246
-0.580978
-0.637343
-0.681755
-0.714575
-0.736093
-0.74656
-0.746151
-0.73501
-0.713189
-0.680708
-0.637471
-0.583337
-0.518017
-0.441148
-0.352173
-0.250415
-0.13494
-0.00459981
0.142067
0.306822
0.492035
0.701124
0.938878
1.20928
1.51227
1.82967
2.12264
2.38812
3.58174
5.24067
10.3807
-4.15876
-1.78006
7.01407
7.10232
7.1853
7.19508
6.72318
6.07806
4.80801
2.31857
-0.276944
-1.17799
-1.32898
-1.3517
-1.35492
-1.35524
-1.35514
-1.35507
-1.35502
-1.3551
-1.355
-1.35492
-1.35484
-1.35476
-1.35468
-1.35461
-1.35453
-1.35446
-1.35439
-1.35433
-1.35427
-1.35422
-1.35418
-1.35414
-1.35412
-1.3541
-1.35389
-1.35408
-1.35406
-1.35406
-1.35422
-1.35425
-1.35428
-1.35434
-1.3544
-1.35446
-1.35453
-1.35462
-1.35468
-1.35479
-1.35486
-1.35472
5.59731
5.64383
5.67793
5.66606
5.64864
4.77023
3.8154
2.32064
-0.0861595
-1.19235
-1.35598
-1.37558
-1.37784
-1.37807
-1.37808
-1.37805
-1.37803
-1.37801
-1.37799
-1.37798
-1.37797
-1.37796
-1.37795
-1.37795
-1.37795
-1.37795
-1.37796
-1.37797
-1.37799
-1.37801
-1.37804
-1.37807
-1.3781
-1.37814
-1.37822
-1.37826
-1.37828
-1.37839
-1.37847
-1.37855
-1.37863
-1.37862
-1.37877
-1.37884
-1.37897
-1.37902
-1.37917
-1.3793
-1.37934
-1.37951
3.04736
2.88932
1.97658
1.10484
0.551734
-0.204785
-0.80467
-0.871975
-1.08224
-1.34067
-1.40148
-1.40201
-1.4012
-1.40121
-1.40122
-1.40118
-1.40116
-1.40114
-1.40113
-1.40111
-1.4011
-1.40109
-1.40109
-1.40109
-1.4011
-1.40111
-1.40112
-1.40114
-1.40116
-1.40119
-1.40122
-1.40126
-1.40129
-1.40115
-1.40137
-1.40141
-1.40148
-1.40154
-1.40161
-1.40169
-1.40177
-1.40162
-1.40195
-1.40204
-1.40216
-1.40205
-1.40217
-1.40235
-1.4022
-1.40233
-0.448638
-1.42092
-2.42525
-3.29145
-3.37656
-2.48948
-1.85839
-1.5171
-1.45417
-1.43039
-1.42404
-1.42394
-1.42404
-1.42407
-1.42405
-1.42404
-1.42403
-1.42402
-1.42402
-1.42402
-1.42402
-1.42402
-1.42402
-1.42403
-1.42404
-1.42405
-1.42406
-1.42407
-1.42409
-1.42411
-1.42413
-1.42416
-1.42418
-1.4242
-1.42408
-1.42428
-1.42435
-1.42439
-1.42444
-1.42448
-1.42453
-1.42457
-1.42446
-1.42471
-1.42481
-1.42484
-1.42491
-1.42498
-1.42505
-1.42509
-4.96433
-4.4007
-4.0518
-2.46031
-1.90467
-1.54919
-1.46245
-1.44489
-1.4454
-1.44583
-1.44581
-1.44576
-1.44576
-1.44578
-1.44579
-1.44581
-1.44583
-1.44585
-1.44587
-1.4459
-1.44592
-1.44595
-1.44598
-1.44601
-1.44604
-1.44607
-1.4461
-1.44614
-1.44618
-1.44621
-1.44625
-1.4463
-1.44634
-1.44638
-1.44642
-1.44647
-1.44652
-1.44658
-1.44663
-1.44668
-1.44674
-1.44679
-1.44685
-1.44692
-1.44687
-1.44707
-1.44718
-1.44726
-1.44732
-1.4474
-2.75804
-1.56725
-1.47389
-1.47288
-1.46878
-1.46844
-1.46936
-1.46933
-1.46926
-1.46922
-1.46919
-1.46916
-1.46912
-1.46909
-1.46907
-1.46905
-1.46903
-1.46901
-1.469
-1.46899
-1.46899
-1.46898
-1.46898
-1.46898
-1.46898
-1.46899
-1.469
-1.46901
-1.46902
-1.46903
-1.46904
-1.46906
-1.46908
-1.4691
-1.46912
-1.46915
-1.46917
-1.4692
-1.46923
-1.46926
-1.46929
-1.46932
-1.46935
-1.46939
-1.46943
-1.46947
-1.46951
-1.46955
-1.46959
-1.46963
-1.48608
-1.49097
-1.49093
-1.49039
-1.49037
-1.4904
-1.49051
-1.49054
-1.49055
-1.49056
-1.49057
-1.49059
-1.4906
-1.49061
-1.49062
-1.49063
-1.49065
-1.49066
-1.49067
-1.49069
-1.4907
-1.49072
-1.49074
-1.49075
-1.49077
-1.49079
-1.49081
-1.49083
-1.49085
-1.49087
-1.4909
-1.49092
-1.49094
-1.49097
-1.491
-1.49102
-1.49105
-1.49108
-1.4911
-1.49113
-1.49116
-1.49119
-1.49122
-1.49126
-1.49129
-1.49132
-1.49135
-1.49139
-1.49142
-1.49146
-1.51241
-1.51259
-1.51238
-1.51243
-1.51244
-1.51248
-1.51252
-1.51256
-1.5126
-1.51263
-1.51267
-1.5127
-1.51273
-1.51276
-1.51279
-1.51281
-1.51284
-1.51287
-1.51289
-1.51292
-1.51295
-1.51297
-1.51299
-1.51302
-1.51304
-1.51306
-1.51309
-1.51311
-1.51313
-1.51315
-1.51317
-1.51319
-1.51321
-1.51323
-1.51325
-1.51327
-1.51329
-1.51331
-1.51333
-1.51335
-1.51337
-1.51339
-1.51341
-1.51342
-1.51344
-1.51346
-1.51348
-1.5135
-1.51351
-1.51353
-1.53599
-1.53592
-1.53588
-1.53584
-1.53581
-1.53579
-1.53576
-1.53574
-1.53572
-1.53571
-1.53569
-1.53568
-1.53567
-1.53566
-1.53565
-1.53564
-1.53563
-1.53562
-1.53561
-1.53561
-1.5356
-1.53559
-1.53559
-1.53558
-1.53558
-1.53557
-1.53556
-1.53556
-1.53555
-1.53555
-1.53554
-1.53553
-1.53553
-1.53552
-1.53552
-1.53552
-1.53551
-1.53551
-1.53551
-1.53551
-1.53551
-1.5355
-1.5355
-1.5355
-1.5355
-1.53551
-1.53551
-1.53551
-1.53551
-1.53551
-1.5569
-1.55693
-1.55698
-1.55702
-1.55706
-1.55709
-1.55713
-1.55716
-1.5572
-1.55723
-1.55725
-1.55728
-1.55731
-1.55733
-1.55734
-1.55737
-1.55739
-1.5574
-1.55742
-1.55743
-1.55745
-1.55745
-1.55747
-1.55748
-1.55748
-1.55749
-1.5575
-1.5575
-1.55751
-1.55751
-1.55751
-1.55752
-1.55752
-1.55752
-1.55752
-1.55752
-1.55753
-1.55753
-1.55753
-1.55753
-1.55753
-1.55753
-1.55752
-1.55753
-1.55753
-1.55754
-1.55754
-1.55753
-1.55726
-1.55728
-1.58091
-1.58094
-1.58094
-1.58094
-1.58095
-1.58093
-1.58089
-1.58092
-1.58089
-1.58065
-1.5808
-1.58076
-1.58073
-1.58067
-1.58063
-1.58055
-1.58057
-1.58053
-1.58047
-1.58046
-1.5804
-1.58009
-1.5803
-1.58028
-1.58019
-1.57987
-1.5801
-1.58007
-1.57989
-1.57985
-1.57965
-1.57963
-1.5796
-1.57933
-1.57954
-1.57951
-1.57946
-1.57946
-1.57944
-1.57919
-1.57938
-1.57935
-1.57931
-1.57945
-1.57946
-1.57937
-1.57902
-1.57931
-1.57928
-1.57938
-1.5997
-1.5998
-1.59989
-1.60025
-1.6003
-1.60035
-1.60082
-1.60087
-1.60089
-1.60093
-1.60096
-1.60058
-1.60101
-1.60103
-1.60104
-1.60108
-1.60108
-1.60108
-1.60134
-1.60134
-1.60134
-1.60134
-1.60134
-1.60135
-1.60127
-1.60134
-1.60134
-1.60135
-1.60136
-1.60136
-1.60137
-1.60138
-1.60139
-1.6014
-1.60141
-1.60141
-1.60143
-1.60144
-1.60145
-1.60146
-1.60147
-1.60149
-1.60151
-1.60153
-1.60113
-1.60159
-1.6016
-1.60162
-1.60164
-1.60165
-1.62048
-1.62079
-1.62109
-1.62136
-1.62161
-1.62177
-1.62206
-1.62226
-1.62244
-1.6226
-1.62276
-1.62258
-1.62283
-1.62294
-1.62304
-1.62315
-1.62324
-1.62333
-1.6234
-1.62342
-1.62364
-1.6237
-1.62375
-1.6238
-1.62384
-1.62388
-1.62392
-1.62328
-1.62365
-1.6235
-1.6235
-1.6232
-1.6234
-1.62342
-1.62341
-1.62341
-1.62339
-1.62338
-1.62337
-1.62335
-1.62333
-1.62332
-1.6233
-1.62329
-1.62327
-1.62324
-1.62362
-1.62354
-1.62354
-1.62353
-1.64661
-1.64665
-1.64661
-1.64635
-1.64641
-1.64644
-1.64643
-1.64652
-1.64651
-1.64657
-1.64649
-1.64653
-1.64651
-1.64649
-1.64649
-1.64647
-1.64644
-1.6464
-1.64637
-1.64633
-1.64629
-1.64623
-1.64618
-1.64612
-1.64607
-1.646
-1.64593
-1.64585
-1.6457
-1.6456
-1.64728
-1.64722
-1.64714
-1.64706
-1.64698
-1.64691
-1.64684
-1.64677
-1.6467
-1.64663
-1.64657
-1.6465
-1.64644
-1.64639
-1.64633
-1.64628
-1.64622
-1.64587
-1.6452
-1.64774
-1.66842
-1.6684
-1.66842
-1.6684
-1.66839
-1.66837
-1.66814
-1.66837
-1.6685
-1.66848
-1.66845
-1.66841
-1.66836
-1.66861
-1.66859
-1.66856
-1.66854
-1.66851
-1.66847
-1.66843
-1.66865
-1.66852
-1.66851
-1.66846
-1.66842
-1.66856
-1.66852
-1.66845
-1.66833
-1.66839
-1.66728
-1.66837
-1.66832
-1.66827
-1.66822
-1.66817
-1.66811
-1.66806
-1.668
-1.6679
-1.66779
-1.66771
-1.66766
-1.66757
-1.6675
-1.66743
-1.66734
-1.66671
-1.66626
-1.6686
-1.69144
-1.69136
-1.6913
-1.69124
-1.6912
-1.69117
-1.69114
-1.69112
-1.6911
-1.69109
-1.69108
-1.69107
-1.69106
-1.69106
-1.69105
-1.69104
-1.69104
-1.69103
-1.69103
-1.69102
-1.69102
-1.69101
-1.69101
-1.691
-1.691
-1.69099
-1.69099
-1.69098
-1.69098
-1.69098
-1.69098
-1.69097
-1.69095
-1.69094
-1.69094
-1.69092
-1.6909
-1.69115
-1.69115
-1.69114
-1.69113
-1.69112
-1.69111
-1.6911
-1.69109
-1.69108
-1.69107
-1.69107
-1.69107
-1.69106
-1.7131
-1.71311
-1.71313
-1.71315
-1.71316
-1.71318
-1.71319
-1.7132
-1.71321
-1.71322
-1.71323
-1.71323
-1.71324
-1.71325
-1.71325
-1.71326
-1.71326
-1.71326
-1.71327
-1.71327
-1.71327
-1.71327
-1.71327
-1.71327
-1.71327
-1.71327
-1.71327
-1.71326
-1.71326
-1.71326
-1.71325
-1.71325
-1.71324
-1.71324
-1.71323
-1.71323
-1.71322
-1.71322
-1.71321
-1.7132
-1.71319
-1.71319
-1.71318
-1.71317
-1.71317
-1.71316
-1.71316
-1.71316
-1.71315
-1.71315
-1.73566
-1.73573
-1.73572
-1.73571
-1.73571
-1.73571
-1.73571
-1.73571
-1.73571
-1.73571
-1.73571
-1.73571
-1.7357
-1.7357
-1.7357
-1.7357
-1.73569
-1.73569
-1.73569
-1.73569
-1.73568
-1.73568
-1.73568
-1.73567
-1.73567
-1.73567
-1.73566
-1.73566
-1.73565
-1.73565
-1.73565
-1.73564
-1.73564
-1.73563
-1.73563
-1.73562
-1.73562
-1.73561
-1.73561
-1.7356
-1.7356
-1.73559
-1.73558
-1.73558
-1.73557
-1.73556
-1.73556
-1.73555
-1.73554
-1.73553
-1.75769
-1.75935
-1.75985
-1.75979
-1.75964
-1.75954
-1.75945
-1.75937
-1.7593
-1.75922
-1.75915
-1.75909
-1.75902
-1.75896
-1.75891
-1.75885
-1.7588
-1.75875
-1.75871
-1.75866
-1.75862
-1.75858
-1.75855
-1.75851
-1.75848
-1.75845
-1.75842
-1.75839
-1.75836
-1.75833
-1.75831
-1.75828
-1.75826
-1.75824
-1.75822
-1.7582
-1.75818
-1.75816
-1.75814
-1.75812
-1.75811
-1.75809
-1.75807
-1.75806
-1.75804
-1.75803
-1.75801
-1.758
-1.75799
-1.75797
-1.77993
-1.77998
-1.78007
-1.78015
-1.78022
-1.78027
-1.78031
-1.78035
-1.78038
-1.78041
-1.78043
-1.78044
-1.78046
-1.78047
-1.78047
-1.78048
-1.78048
-1.78049
-1.78049
-1.78049
-1.78049
-1.78048
-1.78048
-1.78048
-1.78047
-1.78047
-1.78046
-1.78046
-1.78045
-1.78045
-1.78044
-1.78043
-1.78042
-1.78042
-1.78041
-1.7804
-1.78039
-1.78038
-1.78038
-1.78037
-1.78036
-1.78035
-1.78034
-1.78033
-1.78032
-1.78031
-1.7803
-1.78029
-1.78029
-1.78028
-1.35501
-1.35507
-1.35514
-1.35503
-1.3552
-1.35521
-1.35531
-1.35541
-1.35522
-1.3558
-1.35551
-1.35572
-1.35585
-1.35572
-1.35586
-1.35601
-1.35616
-1.35633
-1.35648
-1.35666
-1.35684
-1.35636
-1.35754
-1.35774
-1.35795
-1.35818
-1.35841
-1.35863
-1.35879
-1.35955
-1.35982
-1.36006
-1.36033
-1.36061
-1.36088
-1.36117
-1.36208
-1.36239
-1.36262
-1.36297
-1.3633
-1.36362
-1.36364
-1.36464
-1.36503
-1.3654
-1.36577
-1.36616
-1.36656
-1.36684
-1.36724
-1.36976
-1.37025
-1.37067
-1.37112
-1.37184
-1.37235
-1.37284
-1.37331
-1.37366
-1.36673
-1.36726
-1.36839
-1.36906
-1.3695
-1.36992
-1.37009
-1.37086
-1.3712
-1.37125
-1.36094
-1.36146
-1.36292
-1.36364
-1.3625
-1.36317
-1.36381
-1.3643
-1.36565
-1.36525
-1.3664
-1.3668
-1.36652
-1.36526
-1.36545
-1.36705
-1.36914
-1.37022
-1.36996
-1.3703
-1.37076
-1.37122
-1.3714
-1.37211
-1.37321
-1.37093
-1.35861
-1.36023
-1.36314
-1.36348
-1.3635
-1.36337
-1.36314
-1.36236
-1.36211
-1.36509
-1.36151
-1.36559
-1.36457
-1.36398
-1.36401
-1.35842
-1.34723
-1.33898
-1.33983
-1.34682
-1.3504
-1.35058
-1.34915
-1.34774
-1.34653
-1.34529
-1.34418
-1.34375
-1.33973
-1.32313
-1.32241
-1.37909
-1.37896
-1.37772
-1.3765
-1.37553
-1.37475
-1.3741
-1.37355
-1.3731
-1.37277
-1.37261
-1.35273
-1.36334
-1.36322
-1.36293
-1.36266
-1.36252
-1.36241
-1.36235
-1.36237
-1.36251
-1.36309
-1.36302
-1.32394
-1.35534
-1.35664
-1.35699
-1.35725
-1.36
-1.34556
-1.35452
-1.35486
-1.3549
-1.35499
-1.35503
-1.35502
-1.35509
-1.3547
-1.35459
-1.35409
-1.35406
-1.3546
-1.3439
-1.34602
-1.35372
-1.35313
-1.35283
-1.35275
-1.35256
-1.35238
-1.35217
-1.35203
-1.35198
-1.35201
-1.35108
-1.35135
-1.35128
-1.35115
-1.35109
-1.35109
-1.3508
-1.3503
-1.35172
-1.35104
-1.3513
-1.35144
-1.34778
-1.34909
-1.34933
-1.34885
-1.34893
-1.34961
-1.34924
-1.34936
-1.34931
-1.34926
-1.34927
-1.34928
-1.34929
-1.34931
-1.34933
-1.34935
-1.34938
-1.3494
-1.34943
-1.34946
-1.34949
-1.34869
-1.34922
-1.34922
-1.34923
-1.34947
-1.34946
-1.34931
-1.34995
-1.34993
-1.34983
-1.35023
-1.34992
-1.34992
-1.35042
-1.3504
-1.35038
-1.35056
-1.35052
-1.35046
-1.35096
-1.35087
-1.35086
-1.35086
-1.35095
-1.35091
-1.35097
-1.35103
-1.35037
-1.35039
-1.35071
-1.35072
-1.35072
-1.35074
-1.35076
-1.35077
-1.35079
-1.35077
-1.34816
-1.35087
-1.35093
-1.35094
-1.35095
-1.35096
-1.35097
-1.35093
-1.35078
-1.3509
-1.35103
-1.35105
-1.35119
-1.35136
-1.35152
-1.35174
-1.35198
-1.35225
-1.3526
-1.35318
-1.35329
-1.35335
-1.35339
-1.35334
-1.35324
-1.35309
-1.35291
-1.35273
-1.35256
-1.35242
-1.35229
-1.3522
-1.35213
-1.35208
-1.35205
-1.35204
-1.35203
-1.35203
-1.35204
-1.35205
-1.35206
-1.35208
-1.35209
-1.35211
-1.35212
-1.35213
-1.35214
-1.35214
-1.35214
-1.37968
-1.37978
-1.37988
-1.37995
-1.37998
-1.37987
-1.38031
-1.38058
-1.3805
-1.38066
-1.38086
-1.38095
-1.3811
-1.38125
-1.3814
-1.38156
-1.38172
-1.38219
-1.38211
-1.3823
-1.3824
-1.38259
-1.3832
-1.38344
-1.38374
-1.38377
-1.38407
-1.3843
-1.38455
-1.38485
-1.38521
-1.38539
-1.38567
-1.38595
-1.38622
-1.38653
-1.38593
-1.38728
-1.38759
-1.38795
-1.38828
-1.38776
-1.38889
-1.38923
-1.38969
-1.39015
-1.38993
-1.39099
-1.39143
-1.392
-1.3923
-1.39274
-1.39317
-1.39361
-1.39399
-1.39354
-1.39486
-1.39528
-1.39523
-1.39597
-1.39645
-1.39682
-1.39719
-1.38866
-1.38913
-1.38979
-1.39027
-1.39064
-1.39094
-1.39127
-1.39158
-1.3918
-1.3924
-1.39248
-1.39156
-1.37539
-1.37575
-1.37742
-1.37876
-1.37624
-1.37925
-1.38357
-1.3839
-1.38804
-1.38744
-1.38736
-1.38722
-1.38718
-1.38707
-1.38583
-1.38402
-1.38291
-1.38311
-1.3836
-1.38469
-1.38559
-1.38505
-1.38369
-1.38152
-1.38134
-1.38098
-1.3741
-1.374
-1.38336
-1.38363
-1.3813
-1.38113
-1.3806
-1.37901
-1.37517
-1.37211
-1.37084
-1.37425
-1.375
-1.37495
-1.3755
-1.37602
-1.37512
-1.37608
-1.37561
-1.37288
-1.36952
-1.36836
-1.37019
-1.37297
-1.3765
-1.37849
-1.37963
-1.38007
-1.37997
-1.38014
-1.38026
-1.38034
-1.38027
-1.37973
-1.38011
-1.38002
-1.3808
-1.36607
-1.37484
-1.37532
-1.37492
-1.37491
-1.37492
-1.37482
-1.37489
-1.3752
-1.37463
-1.3745
-1.37685
-1.37537
-1.37442
-1.37399
-1.3739
-1.37396
-1.37378
-1.37204
-1.37339
-1.37325
-1.37275
-1.37231
-1.37206
-1.3718
-1.37156
-1.37133
-1.3712
-1.3711
-1.37089
-1.37058
-1.3755
-1.37463
-1.37425
-1.37394
-1.37361
-1.37332
-1.37305
-1.37278
-1.37254
-1.37219
-1.37129
-1.37303
-1.37276
-1.37256
-1.37243
-1.37233
-1.37235
-1.37236
-1.37099
-1.37094
-1.37155
-1.37153
-1.37153
-1.37152
-1.37147
-1.37132
-1.3713
-1.3713
-1.37131
-1.37133
-1.37136
-1.37138
-1.37141
-1.37144
-1.37148
-1.37152
-1.37156
-1.37161
-1.37165
-1.3717
-1.37174
-1.37179
-1.37185
-1.37193
-1.37091
-1.3714
-1.37154
-1.37142
-1.3717
-1.37175
-1.37174
-1.37231
-1.37237
-1.37228
-1.37243
-1.3725
-1.37203
-1.3729
-1.37282
-1.37297
-1.373
-1.37306
-1.3731
-1.37314
-1.37318
-1.3732
-1.37324
-1.37325
-1.37323
-1.37318
-1.37358
-1.37354
-1.37364
-1.37365
-1.3733
-1.37351
-1.37359
-1.37361
-1.37363
-1.37364
-1.37365
-1.37369
-1.37372
-1.37374
-1.37374
-1.37374
-1.37368
-1.37364
-1.37362
-1.37362
-1.37364
-1.37364
-1.37366
-1.37368
-1.37371
-1.37377
-1.37385
-1.37397
-1.37414
-1.37439
-1.37472
-1.37511
-1.37512
-1.37501
-1.3749
-1.3748
-1.37471
-1.37463
-1.37457
-1.37452
-1.37447
-1.37444
-1.37441
-1.3744
-1.37439
-1.37438
-1.37439
-1.3744
-1.37441
-1.37443
-1.37446
-1.37449
-1.37452
-1.37456
-1.3746
-1.37464
-1.37469
-1.37419
-1.37447
-1.3745
-1.37457
-1.40249
-1.40182
-1.40218
-1.40243
-1.40213
-1.40307
-1.40326
-1.40336
-1.40344
-1.40359
-1.40369
-1.4038
-1.4039
-1.40401
-1.40344
-1.40449
-1.40459
-1.40463
-1.40474
-1.40531
-1.4054
-1.40553
-1.4057
-1.40584
-1.40599
-1.40594
-1.40624
-1.4064
-1.40652
-1.4067
-1.40694
-1.40711
-1.40643
-1.4067
-1.40689
-1.40705
-1.40717
-1.40743
-1.40762
-1.40759
-1.40808
-1.40825
-1.40856
-1.40878
-1.40813
-1.4088
-1.409
-1.40915
-1.4095
-1.40879
-1.40908
-1.40928
-1.40946
-1.40964
-1.40982
-1.41
-1.41017
-1.41032
-1.41045
-1.41055
-1.40962
-1.41148
-1.41142
-1.41129
-1.41136
-1.41146
-1.41157
-1.41169
-1.41178
-1.41186
-1.41199
-1.41212
-1.41223
-1.41011
-1.41323
-1.41396
-1.4134
-1.41565
-1.41616
-1.41619
-1.41651
-1.41695
-1.41724
-1.41754
-1.41776
-1.41793
-1.41806
-1.41818
-1.41825
-1.41831
-1.41844
-1.40926
-1.41339
-1.41741
-1.41735
-1.41713
-1.41712
-1.41721
-1.41708
-1.41651
-1.41552
-1.41557
-1.41868
-1.41978
-1.40917
-1.41373
-1.41374
-1.4127
-1.41889
-1.4172
-1.41764
-1.42003
-1.39381
-1.40755
-1.409
-1.39603
-1.39843
-1.39822
-1.39778
-1.39775
-1.40359
-1.40295
-1.40306
-1.40336
-1.40316
-1.40042
-1.40043
-1.40252
-1.39852
-1.39861
-1.39901
-1.39918
-1.39837
-1.40009
-1.39762
-1.39994
-1.39997
-1.39986
-1.39973
-1.3995
-1.39946
-1.39954
-1.39635
-1.39607
-1.40138
-1.39529
-1.39577
-1.39751
-1.39315
-1.39617
-1.39557
-1.39287
-1.39605
-1.39511
-1.39441
-1.3979
-1.39623
-1.39501
-1.39808
-1.39588
-1.39543
-1.39524
-1.3937
-1.3955
-1.39515
-1.39588
-1.3956
-1.39517
-1.39509
-1.39495
-1.39502
-1.39345
-1.39462
-1.39447
-1.39435
-1.39428
-1.39423
-1.39418
-1.39283
-1.39281
-1.39328
-1.39216
-1.39341
-1.39331
-1.39305
-1.39385
-1.39387
-1.39359
-1.39352
-1.3935
-1.3935
-1.3935
-1.39351
-1.39352
-1.39353
-1.39355
-1.39356
-1.39359
-1.39361
-1.39365
-1.39368
-1.39372
-1.39375
-1.39379
-1.39383
-1.39386
-1.3939
-1.39394
-1.39398
-1.39391
-1.39396
-1.39405
-1.3941
-1.39403
-1.39406
-1.39464
-1.3941
-1.39461
-1.39383
-1.39491
-1.39494
-1.39499
-1.39509
-1.39513
-1.39479
-1.39525
-1.39531
-1.39534
-1.39538
-1.39542
-1.39546
-1.39549
-1.39528
-1.39567
-1.39573
-1.39577
-1.3958
-1.39584
-1.39588
-1.3959
-1.39592
-1.39595
-1.39597
-1.396
-1.39602
-1.39604
-1.39605
-1.39607
-1.39609
-1.39611
-1.39613
-1.39615
-1.39616
-1.39617
-1.39617
-1.39618
-1.39619
-1.3962
-1.39622
-1.39623
-1.39624
-1.39626
-1.39627
-1.3963
-1.39632
-1.39636
-1.3964
-1.39644
-1.39649
-1.39654
-1.39659
-1.39664
-1.39667
-1.3967
-1.39672
-1.39673
-1.39674
-1.39674
-1.39674
-1.39674
-1.39674
-1.39674
-1.39673
-1.39673
-1.39674
-1.39676
-1.39677
-1.39679
-1.39681
-1.39683
-1.39683
-1.39686
-1.39688
-1.3969
-1.39693
-1.39696
-1.39599
-1.39679
-1.39649
-1.39673
-1.42515
-1.42519
-1.42521
-1.42528
-1.42534
-1.42536
-1.42543
-1.42513
-1.4256
-1.42578
-1.42588
-1.42594
-1.426
-1.42606
-1.42498
-1.4266
-1.42666
-1.42672
-1.42683
-1.42668
-1.42713
-1.42726
-1.42737
-1.42745
-1.42754
-1.42754
-1.42739
-1.42769
-1.42782
-1.42794
-1.42803
-1.42812
-1.42822
-1.42832
-1.42802
-1.42861
-1.42871
-1.42887
-1.42882
-1.4292
-1.42936
-1.42948
-1.42959
-1.42971
-1.42836
-1.43041
-1.43052
-1.43064
-1.43075
-1.43088
-1.431
-1.43114
-1.43127
-1.43141
-1.43155
-1.4317
-1.43149
-1.43166
-1.43176
-1.43181
-1.43202
-1.43217
-1.43235
-1.43251
-1.43266
-1.43283
-1.43298
-1.43315
-1.43333
-1.43347
-1.43031
-1.43056
-1.43099
-1.43117
-1.43123
-1.43137
-1.43151
-1.43161
-1.43167
-1.43173
-1.43177
-1.43178
-1.43152
-1.43173
-1.43177
-1.43046
-1.43049
-1.43055
-1.43043
-1.43019
-1.43017
-1.43807
-1.43774
-1.4376
-1.43744
-1.43728
-1.43717
-1.43703
-1.43684
-1.43646
-1.43096
-1.43404
-1.43478
-1.43457
-1.43441
-1.43425
-1.43394
-1.43419
-1.4346
-1.43497
-1.42759
-1.42775
-1.42761
-1.4275
-1.42769
-1.42631
-1.42682
-1.42653
-1.42658
-1.42648
-1.42661
-1.42715
-1.42749
-1.42705
-1.42763
-1.42726
-1.4269
-1.4266
-1.42626
-1.42579
-1.42513
-1.42471
-1.42497
-1.42434
-1.42329
-1.42299
-1.42818
-1.42823
-1.42804
-1.42751
-1.42864
-1.42875
-1.4288
-1.42029
-1.42334
-1.42547
-1.41929
-1.41961
-1.4127
-1.41726
-1.41762
-1.41685
-1.41936
-1.41017
-1.41519
-1.4155
-1.41487
-1.41496
-1.41473
-1.41413
-1.41744
-1.41738
-1.41729
-1.41716
-1.41712
-1.41722
-1.4171
-1.417
-1.4177
-1.41737
-1.41739
-1.41734
-1.41621
-1.41623
-1.41638
-1.41641
-1.41597
-1.41609
-1.41584
-1.41605
-1.41612
-1.41614
-1.41617
-1.41619
-1.41621
-1.4162
-1.4162
-1.41621
-1.41622
-1.41622
-1.41622
-1.41622
-1.41622
-1.41623
-1.41625
-1.41626
-1.41628
-1.41629
-1.41631
-1.41633
-1.41636
-1.41638
-1.41641
-1.41644
-1.41647
-1.4165
-1.41647
-1.41655
-1.41657
-1.41664
-1.41668
-1.41672
-1.41664
-1.41694
-1.41695
-1.41699
-1.41713
-1.417
-1.41745
-1.4174
-1.41752
-1.41715
-1.41765
-1.4177
-1.4177
-1.41779
-1.41785
-1.41788
-1.41795
-1.418
-1.41805
-1.41809
-1.41816
-1.4182
-1.41825
-1.41828
-1.4183
-1.41832
-1.41834
-1.41836
-1.41838
-1.41839
-1.4184
-1.41841
-1.41842
-1.41843
-1.41844
-1.41846
-1.41848
-1.41851
-1.41853
-1.41856
-1.41858
-1.4186
-1.41859
-1.41857
-1.41856
-1.41855
-1.41856
-1.41856
-1.41857
-1.41858
-1.4186
-1.41862
-1.41865
-1.41867
-1.41871
-1.41874
-1.41877
-1.4188
-1.41883
-1.41886
-1.41888
-1.41889
-1.4189
-1.41891
-1.41892
-1.41893
-1.41893
-1.41894
-1.41891
-1.41849
-1.41901
-1.41879
-1.41872
-1.41918
-1.41917
-1.41926
-1.41928
-1.41929
-1.41896
-1.41906
-1.41933
-1.41936
-1.41933
-1.41913
-1.41917
-1.41951
-1.41984
-1.41944
-1.44746
-1.4475
-1.44755
-1.4476
-1.44765
-1.4477
-1.44775
-1.4478
-1.44786
-1.44791
-1.44797
-1.44802
-1.44801
-1.44799
-1.44784
-1.44801
-1.44772
-1.44829
-1.44849
-1.44855
-1.44863
-1.44869
-1.44875
-1.44882
-1.44888
-1.44894
-1.449
-1.44906
-1.44912
-1.44918
-1.44924
-1.44931
-1.44937
-1.44944
-1.4495
-1.44957
-1.44964
-1.4497
-1.44977
-1.44984
-1.44991
-1.44998
-1.44989
-1.45
-1.45017
-1.45008
-1.45029
-1.45035
-1.45047
-1.45055
-1.45062
-1.45068
-1.45075
-1.45081
-1.45088
-1.45095
-1.45103
-1.45074
-1.45081
-1.45106
-1.4511
-1.45115
-1.45119
-1.45123
-1.45127
-1.4513
-1.45074
-1.45077
-1.45071
-1.45042
-1.45069
-1.4508
-1.44829
-1.45225
-1.45222
-1.4522
-1.45218
-1.45215
-1.45209
-1.45208
-1.45206
-1.45184
-1.45092
-1.45424
-1.4542
-1.45406
-1.45401
-1.45397
-1.45387
-1.44711
-1.45392
-1.45383
-1.45372
-1.4549
-1.45482
-1.45324
-1.45316
-1.45316