/*--------------------------------*- C++ -*----------------------------------*\
| =========                 |                                                 |
| \\      /  F ield         | OpenFOAM: The Open Source CFD Toolbox           |
|  \\    /   O peration     | Version:  2.4.0                                 |
|   \\  /    A nd           | Web:      www.OpenFOAM.org                      |
|    \\/     M anipulation  |                                                 |
\*---------------------------------------------------------------------------*/
FoamFile
{
    version     2.0;
    format      ascii;
    class       volScalarField;
    location    "2.1";
    object      p_rgh;
}
// * * * * * * * * * * * * * * * * * * * * * * * * * * * * * * * * * * * * * //

dimensions      [1 -1 -2 0 0 0 0];

internalField   nonuniform List<scalar> 
8000
(
87.5673
87.5309
87.4918
87.4567
87.4253
87.3968
87.371
87.3477
87.3271
87.309
87.2936
87.2807
87.2705
87.2628
87.2576
87.2551
87.2551
87.2577
87.2628
87.2705
87.2809
87.2937
87.309
87.327
87.3475
87.3706
87.3963
87.4244
87.4552
87.4884
87.5242
87.5624
87.6035
87.6499
87.6905
87.739
87.7903
87.8423
87.8975
87.9538
88.0098
88.0934
88.1242
88.1919
88.2598
88.3302
88.3999
88.4735
88.5528
88.6291
87.7981
87.7764
87.7531
87.7322
87.7136
87.6969
87.6818
87.6684
87.6567
87.6467
87.6384
87.6318
87.6269
87.6236
87.6221
87.6222
87.624
87.6275
87.6327
87.6395
87.648
87.658
87.6699
87.6834
87.6984
87.7151
87.7337
87.7534
87.7751
87.7982
87.8231
87.8495
87.8776
87.9072
87.9384
87.9713
88.0057
88.0417
88.0793
88.1185
88.1593
88.2013
88.2447
88.2903
88.3361
88.3838
88.4327
88.4831
88.535
88.5887
87.8617
87.8565
87.8508
87.8455
87.8403
87.8353
87.8304
87.8256
87.8211
87.8166
87.8124
87.8083
87.8045
87.8008
87.7973
87.794
87.7909
87.788
87.7852
87.7826
87.7801
87.7777
87.7754
87.7731
87.7709
87.7686
87.7663
87.7639
87.7614
87.7586
87.7556
87.7523
87.7486
87.7445
87.7399
87.7346
87.7287
87.722
87.7144
87.7058
87.6961
87.6852
87.6728
87.659
87.6444
87.628
87.6112
87.5907
87.559
87.5196
87.7868
87.7892
87.7915
87.7936
87.7957
87.7977
87.7999
87.8021
87.8044
87.8068
87.8093
87.812
87.8148
87.8178
87.8209
87.8243
87.8278
87.8315
87.8354
87.8395
87.8438
87.8483
87.853
87.8579
87.863
87.8682
87.8737
87.8793
87.885
87.8909
87.8969
87.903
87.9093
87.9156
87.922
87.9283
87.9348
87.9412
87.9476
87.9538
87.9601
87.9663
87.9737
87.9824
87.9893
87.9772
87.954
87.8614
87.6174
86.8379
88.0031
88.0106
88.0191
88.027
88.0341
88.0406
88.0465
88.052
88.057
88.0615
88.0656
88.0692
88.0724
88.0752
88.0775
88.0795
88.0811
88.0824
88.0833
88.084
88.0843
88.0843
88.084
88.0836
88.0828
88.082
88.0808
88.0796
88.0782
88.0769
88.0753
88.0739
88.0723
88.071
88.0695
88.0686
88.0675
88.067
88.0668
88.0686
88.0726
88.077
88.0661
88.0492
87.9286
87.5334
86.9319
79.8175
70.2265
50.7391
87.883
87.8919
87.9007
87.9084
87.9154
87.9219
87.9279
87.9334
87.9385
87.9431
87.9473
87.951
87.9543
87.9571
87.9595
87.9615
87.963
87.9641
87.9647
87.965
87.9648
87.9641
87.963
87.9614
87.9593
87.9568
87.9538
87.9503
87.9462
87.9417
87.9365
87.9308
87.9245
87.9176
87.9098
87.9017
87.8942
87.889
87.8823
87.8579
87.8177
87.6947
87.3439
86.8076
79.3154
62.0472
44.2537
28.1162
14.4
1.50536
88.5038
88.5145
88.5269
88.5383
88.5482
88.5569
88.5646
88.5713
88.5769
88.5815
88.5851
88.5877
88.5893
88.5898
88.5893
88.5876
88.585
88.5812
88.5763
88.5702
88.5629
88.5544
88.5446
88.5334
88.521
88.5069
88.4915
88.4743
88.4557
88.435
88.4127
88.388
88.3617
88.3342
88.3069
88.2733
88.2197
88.1638
88.0312
87.6271
86.549
77.5697
55.9863
47.5385
10.8414
1.79013
0.678868
0.470665
0.341381
0.0354022
88.2944
88.3018
88.3081
88.313
88.3173
88.3212
88.3247
88.3278
88.3305
88.3327
88.3344
88.3358
88.3366
88.3371
88.3371
88.3367
88.3359
88.3347
88.333
88.331
88.3285
88.3257
88.3225
88.3189
88.315
88.3107
88.3061
88.3011
88.2958
88.2901
88.2846
88.279
88.2731
88.2653
88.2669
88.1934
87.6617
86.0933
73.7245
57.0693
35.5659
2.16813
0.815834
1.04344
0.0584181
0.0243794
0.00210134
-0.00543645
-0.00273658
-0.00206831
89.7624
89.7598
89.7598
89.7613
89.7634
89.7657
89.7686
89.7718
89.7756
89.7797
89.7844
89.7895
89.7952
89.8013
89.808
89.8152
89.8231
89.8315
89.8408
89.8505
89.8614
89.8727
89.8853
89.8985
89.9132
89.9286
89.9457
89.9629
89.9816
90.0022
90.0364
90.0963
90.1419
89.7936
88.256
78.7107
57.204
26.6774
0.58421
0.172956
0.0520018
0.0257358
-0.00169503
-0.00216312
-0.00400961
-0.00387908
-0.00410078
-0.0041414
-0.00399142
-0.00389691
88.9126
88.9214
88.9278
88.9321
88.9355
88.9381
88.9399
88.941
88.9413
88.9408
88.9395
88.9374
88.9346
88.9309
88.9264
88.9212
88.9152
88.9083
88.9007
88.8923
88.8831
88.8731
88.8623
88.8509
88.8383
88.8242
88.8075
88.7929
88.7997
88.8482
88.8301
88.2576
86.3514
70.7563
30.7152
0.7371
1.12554
0.891473
0.0237825
0.0299414
-0.00110692
-0.00179118
-0.00210791
-0.00211139
-0.00203119
-0.00212748
-0.00218144
-0.00223451
-0.00228695
-0.00233137
90.7425
90.7413
90.7428
90.7449
90.7464
90.7473
90.7475
90.7472
90.7463
90.7447
90.7425
90.7397
90.7362
90.7322
90.7274
90.7222
90.7162
90.7099
90.7028
90.6955
90.6875
90.6795
90.6707
90.6614
90.6501
90.6406
90.6457
90.6858
90.6935
90.3197
89.0338
76.5473
20.2097
1.0037
1.09164
0.114796
0.00564402
0.0150177
-0.00203983
-0.00324503
-0.00361314
-0.00365342
-0.00367291
-0.00373799
-0.00380743
-0.00386734
-0.00390414
-0.00393875
-0.00397131
-0.00399397
89.9442
89.9552
89.9636
89.9694
89.9735
89.9764
89.978
89.9782
89.977
89.9744
89.9705
89.9652
89.9586
89.9508
89.9419
89.9319
89.921
89.9093
89.897
89.8842
89.8713
89.8579
89.8432
89.8274
89.8218
89.8563
89.9286
89.7669
88.5905
86.373
37.1099
0.584083
0.394907
0.139253
0.0559893
0.0279544
0.0123269
0.00794598
0.00549259
0.00425157
0.00455981
0.00416049
0.00379799
0.00181604
0.000710502
0.000254349
0.000244428
-0.000442881
0.000133547
-1.54978e-05
92.0393
92.0672
92.0991
92.1262
92.1475
92.1635
92.1747
92.1811
92.1827
92.1796
92.1717
92.1589
92.1413
92.1188
92.0913
92.0587
92.021
91.978
91.9297
91.8759
91.816
91.7489
91.6749
91.6049
91.5646
91.5354
91.2358
89.9994
88.2245
33.2557
0.473697
0.0474878
0.0368594
0.0164529
0.00892003
0.00903024
0.00816276
0.00914248
0.00703575
0.00899463
0.0158018
0.0187215
0.0172184
0.0109349
0.00582172
0.00406818
0.00328148
0.00266104
0.00209332
0.0015977
91.5148
91.5848
91.6507
91.7013
91.7384
91.7641
91.779
91.783
91.7762
91.7585
91.7298
91.69
91.639
91.5765
91.5023
91.4162
91.3177
91.2065
91.0821
90.9441
90.7918
90.6245
90.4416
90.2433
90.0308
89.8017
89.5329
89.1745
88.7582
88.8271
26.4333
1.0114
1.09273
0.0476194
0.0482922
0.00701789
0.000478814
-0.00111597
-0.000905647
-0.00086415
-0.00114424
-0.00153222
-0.00171922
-0.00190534
-0.00206963
-0.00221071
-0.0023265
-0.00241861
-0.00249222
-0.00255845
96.703
96.7095
96.7182
96.7266
96.7342
96.7411
96.7475
96.7534
96.7587
96.7636
96.768
96.7721
96.7757
96.779
96.782
96.7848
96.7873
96.7897
96.7919
96.7942
96.7963
96.7987
96.8011
96.8038
96.8056
96.807
96.8139
96.8459
96.9046
96.8335
96.1479
94.6925
23.7153
2.23101
2.54156
0.0140334
0.0850934
-0.000251121
-0.000381205
-0.00185407
-0.00239176
-0.00222036
-0.00218751
-0.00219608
-0.00218558
-0.00217175
-0.00215076
-0.00212701
-0.00211661
-0.00209591
100.428
100.386
100.345
100.313
100.289
100.271
100.259
100.254
100.255
100.262
100.275
100.295
100.321
100.354
100.393
100.44
100.494
100.556
100.625
100.704
100.79
100.886
100.992
101.108
101.235
101.373
101.524
101.691
101.879
102.073
102.208
102.192
101.443
95.8677
50.3874
3.32983
3.75518
-0.114731
0.0491305
-0.0108397
0.0128728
-0.00107667
-0.00251657
-0.0036037
-0.00368201
-0.00344384
-0.00321222
-0.00307158
-0.00291278
-0.00280121
101.845
101.821
101.794
101.771
101.751
101.735
101.722
101.711
101.704
101.7
101.699
101.7
101.705
101.712
101.723
101.737
101.754
101.774
101.797
101.823
101.853
101.886
101.922
101.962
102.006
102.054
102.105
102.16
102.219
102.286
102.357
102.416
102.419
102.4
102.22
98.2956
94.3755
56.1
9.23114
2.76488
2.22489
-0.0160873
0.0608571
0.00818601
0.00313976
-0.00203599
-0.00187105
-0.0025819
-0.00234666
-0.00210222
104.955
104.936
104.919
104.904
104.89
104.876
104.865
104.855
104.847
104.842
104.84
104.842
104.846
104.854
104.866
104.882
104.902
104.926
104.954
104.987
105.024
105.065
105.11
105.16
105.215
105.274
105.337
105.404
105.475
105.55
105.629
105.712
105.801
105.898
105.995
106.051
106.123
106.118
104.297
99.2219
83.2133
29.3358
6.18081
4.11891
2.02282
0.0905413
0.112963
-0.000902506
0.00456609
-0.00194773
104.674
104.7
104.717
104.725
104.727
104.726
104.721
104.715
104.707
104.699
104.691
104.684
104.678
104.673
104.67
104.669
104.67
104.674
104.68
104.689
104.7
104.714
104.731
104.751
104.773
104.798
104.826
104.856
104.888
104.923
104.959
104.997
105.037
105.077
105.119
105.162
105.208
105.249
105.264
105.268
105.284
105.335
100.411
93.6827
74.0792
26.3744
3.46905
2.1664
1.06925
-0.0110358
110.48
110.049
109.617
109.245
108.921
108.63
108.367
108.129
107.914
107.72
107.546
107.39
107.25
107.126
107.017
106.922
106.84
106.772
106.715
106.671
106.638
106.616
106.606
106.606
106.618
106.639
106.672
106.715
106.769
106.835
106.911
107
107.102
107.218
107.348
107.495
107.659
107.845
108.054
108.291
108.562
108.865
109.182
109.475
108.808
108.905
104.78
114.161
77.921
-0.00190091
88.7097
88.7995
88.882
88.8747
87.8697
85.8849
82.1832
69.036
30.9251
6.3105
1.03031
0.165284
0.0197093
-0.000658403
-0.00177639
-0.0017083
-0.00164221
-0.00175285
-0.00170688
-0.00163923
-0.00156846
-0.00150154
-0.00143007
-0.00135891
-0.00128991
-0.00122266
-0.00115766
-0.00109705
-0.00104043
-0.000989159
-0.000946291
-0.000911548
-0.000885116
-0.000865343
-0.000626189
-0.000843156
-0.000827919
-0.000802208
-0.000977975
-0.0010114
-0.00103882
-0.0010969
-0.00115463
-0.00120987
-0.00128813
-0.00136749
-0.00142725
-0.00153596
-0.00161958
-0.00143298
88.6436
88.6898
88.7225
88.7107
88.6923
86.0194
80.3579
69.6606
39.2174
9.1468
1.2803
0.161848
0.013405
-0.00173241
-0.0023516
-0.00230858
-0.00238071
-0.00237323
-0.0023699
-0.00236749
-0.00236361
-0.0023598
-0.00235667
-0.00235502
-0.00235563
-0.00235905
-0.00236642
-0.00237884
-0.00239503
-0.00241617
-0.00244244
-0.00247333
-0.00250874
-0.00253125
-0.00262143
-0.00265696
-0.00267978
-0.0027792
-0.00286396
-0.00294428
-0.0030305
-0.00299456
-0.00315793
-0.0032362
-0.00336026
-0.00340243
-0.00355888
-0.00369795
-0.00371333
-0.00390108
87.4436
87.2837
85.8865
81.6062
73.666
59.6273
38.2841
16.7974
5.01722
1.0176
0.141772
0.00848067
-0.00279698
-0.00310474
-0.00321135
-0.00322887
-0.0032037
-0.00318203
-0.00317216
-0.00315918
-0.00314784
-0.00314056
-0.00313786
-0.00313929
-0.00314467
-0.00315399
-0.00316725
-0.00318437
-0.00320492
-0.00323097
-0.00326315
-0.00330027
-0.00334044
-0.00315735
-0.00340815
-0.00345081
-0.00352264
-0.00358646
-0.00365238
-0.0037255
-0.00380347
-0.00361526
-0.00399215
-0.00408421
-0.00419848
-0.00405503
-0.0042141
-0.00437967
-0.00418602
-0.0043616
81.3879
73.6387
61.2765
41.6044
21.8031
8.34848
2.4799
0.731257
0.0854439
-0.00438165
-0.00327859
-0.00354577
-0.00369284
-0.00374005
-0.0037332
-0.00372607
-0.00371988
-0.00371397
-0.00371008
-0.0037083
-0.00370786
-0.00370905
-0.0037121
-0.00371713
-0.00372425
-0.00373352
-0.00374495
-0.00375856
-0.00377438
-0.00379258
-0.00381448
-0.00384029
-0.00386397
-0.00388795
-0.00373982
-0.00396655
-0.00403456
-0.00407368
-0.00411766
-0.00416281
-0.00420876
-0.00425618
-0.00411276
-0.00440087
-0.00448993
-0.00452154
-0.00458685
-0.00465331
-0.00472259
-0.00475767
33.1745
19.0511
8.96815
1.10609
0.496957
0.0340832
0.00103623
0.00138399
-0.00242717
-0.00307243
-0.00311062
-0.00307473
-0.00308092
-0.00309993
-0.00311749
-0.0031348
-0.0031545
-0.0031757
-0.00319814
-0.00322191
-0.00324702
-0.00327351
-0.00330138
-0.00333063
-0.00336124
-0.00339318
-0.00342645
-0.00346113
-0.00349756
-0.00353596
-0.0035761
-0.00361782
-0.00366112
-0.00370291
-0.00374499
-0.00379328
-0.00384421
-0.00389767
-0.00395049
-0.00400494
-0.00406111
-0.00411673
-0.00417177
-0.0042379
-0.0041747
-0.00439678
-0.00450189
-0.00457424
-0.00464069
-0.00471578
1.05975
0.185124
0.168067
0.00134615
0.000564624
-0.00320854
-0.00420638
-0.00423731
-0.00419943
-0.00417507
-0.00414791
-0.00411552
-0.00408202
-0.00405334
-0.00402846
-0.0040068
-0.00398839
-0.00397306
-0.00396069
-0.00395112
-0.00394423
-0.0039399
-0.00393802
-0.00393849
-0.00394122
-0.00394613
-0.00395317
-0.00396232
-0.00397356
-0.00398677
-0.00400188
-0.00401883
-0.0040376
-0.00405813
-0.00408042
-0.00410443
-0.00413015
-0.00415738
-0.00418616
-0.00421642
-0.00424815
-0.00428127
-0.00431566
-0.00435082
-0.00438788
-0.00442603
-0.00446585
-0.00450691
-0.00454896
-0.0045924
0.023564
-0.0029526
-0.00313291
-0.00290507
-0.00292629
-0.00295471
-0.00308979
-0.00312514
-0.00314192
-0.00315234
-0.00316541
-0.0031776
-0.00318904
-0.00320042
-0.00321209
-0.00322419
-0.00323682
-0.00325003
-0.00326387
-0.00327838
-0.00329359
-0.00330951
-0.00332616
-0.00334357
-0.00336174
-0.00338067
-0.00340037
-0.00342085
-0.0034421
-0.00346413
-0.00348692
-0.00351046
-0.00353476
-0.00355983
-0.00358564
-0.00361219
-0.00363945
-0.00366743
-0.00369611
-0.00372547
-0.00375552
-0.00378623
-0.00381763
-0.0038497
-0.00388235
-0.00391573
-0.00394975
-0.00398419
-0.00401905
-0.00405425
-0.00259676
-0.00278612
-0.00254154
-0.00264117
-0.00266334
-0.00270469
-0.00274719
-0.00278676
-0.00282106
-0.00285379
-0.00288537
-0.00291609
-0.00294603
-0.00297523
-0.00300373
-0.00303156
-0.00305874
-0.0030853
-0.00311127
-0.00313667
-0.00316151
-0.00318582
-0.00320964
-0.003233
-0.00325593
-0.00327846
-0.00330061
-0.00332241
-0.00334392
-0.00336517
-0.00338617
-0.00340693
-0.00342745
-0.00344778
-0.00346793
-0.00348791
-0.00350778
-0.00352753
-0.00354716
-0.00356669
-0.00358607
-0.00360528
-0.00362437
-0.00364337
-0.00366232
-0.00368124
-0.00370012
-0.00371887
-0.0037375
-0.00375669
-0.0038367
-0.00377584
-0.00373004
-0.00369176
-0.0036644
-0.00363945
-0.00361433
-0.00359105
-0.00357092
-0.00355337
-0.00353785
-0.00352387
-0.00351124
-0.00349974
-0.00348925
-0.00347975
-0.00347095
-0.00346271
-0.00345492
-0.0034476
-0.00344031
-0.00343317
-0.0034267
-0.00342018
-0.00341385
-0.00340758
-0.00340142
-0.00339516
-0.00338855
-0.00338223
-0.0033763
-0.00337106
-0.00336599
-0.00336141
-0.00335735
-0.00335369
-0.00335043
-0.00334775
-0.00334568
-0.00334416
-0.00334313
-0.00334261
-0.00334249
-0.00334299
-0.00334355
-0.00334494
-0.00334662
-0.00334912
-0.00334915
-0.00335567
-0.00237073
-0.00240804
-0.00244875
-0.00248895
-0.002527
-0.00256304
-0.00259958
-0.00263307
-0.0026647
-0.00269451
-0.00272244
-0.00274877
-0.00277344
-0.00279494
-0.00280885
-0.00283339
-0.00285208
-0.00286852
-0.00288438
-0.00289838
-0.00290883
-0.0029066
-0.00293168
-0.00294101
-0.00294899
-0.00295536
-0.00296254
-0.00296669
-0.00297446
-0.00297668
-0.00297367
-0.00297948
-0.00298137
-0.0029827
-0.00298475
-0.00298618
-0.00298749
-0.00298796
-0.00298775
-0.00298776
-0.00298835
-0.0029894
-0.00297812
-0.00299285
-0.00299407
-0.00299543
-0.00299658
-0.00299363
-0.00267629
-0.00275596
-0.00401584
-0.0040349
-0.00403848
-0.00402904
-0.00404388
-0.00402077
-0.00399225
-0.0040057
-0.00398508
-0.00371083
-0.00389507
-0.00385633
-0.00382467
-0.0037669
-0.00370538
-0.0036254
-0.00365644
-0.00361983
-0.00356491
-0.00354954
-0.00349955
-0.00313971
-0.00338972
-0.00337067
-0.00328983
-0.00291094
-0.00319416
-0.00313365
-0.00298664
-0.00295176
-0.00271595
-0.00272468
-0.00269346
-0.00238111
-0.00263034
-0.00260095
-0.00251198
-0.00255724
-0.00253137
-0.00224005
-0.00247342
-0.00244975
-0.00235968
-0.00253193
-0.00253517
-0.0024582
-0.00205486
-0.00240129
-0.00236666
-0.00244974
-0.00035854
-0.000535503
-0.00061721
-0.000922431
-0.000828657
-0.000881937
-0.00142582
-0.00159929
-0.00162347
-0.00166039
-0.00165338
-0.00119708
-0.0017059
-0.00176136
-0.00177315
-0.00180791
-0.00174123
-0.00173961
-0.00205206
-0.00206589
-0.0020667
-0.00206527
-0.00206895
-0.0020479
-0.00195533
-0.00204185
-0.00206971
-0.00207692
-0.00208413
-0.00209207
-0.00209947
-0.00210859
-0.00211494
-0.0021244
-0.00213329
-0.0021426
-0.00215291
-0.00216307
-0.00217439
-0.00218701
-0.00220076
-0.00221616
-0.00223379
-0.00223745
-0.00175482
-0.00229961
-0.00231983
-0.00233845
-0.0023571
-0.00237559
0.00115807
0.000841806
0.000548109
0.000276637
2.54578e-05
-0.000118841
-0.000427438
-0.000621895
-0.000801843
-0.000970186
-0.00107518
-0.000828409
-0.00109687
-0.0012996
-0.00140976
-0.00151006
-0.00160317
-0.00169081
-0.00166688
-0.00167505
-0.00192771
-0.00206102
-0.00211158
-0.00216054
-0.00220436
-0.00224301
-0.00228004
-0.00147312
-0.00191522
-0.00185802
-0.00185957
-0.00144612
-0.0016879
-0.00178012
-0.00177322
-0.00176507
-0.00175456
-0.00174168
-0.00172683
-0.00171041
-0.00169365
-0.0016765
-0.00165717
-0.00162417
-0.00148399
-0.00145729
-0.00191894
-0.0018882
-0.00188988
-0.00188772
-0.00258316
-0.00262039
-0.00259616
-0.00227679
-0.00238863
-0.00241987
-0.00236412
-0.00246974
-0.00246862
-0.00251343
-0.00240846
-0.00246098
-0.00244059
-0.00242452
-0.00242813
-0.0024165
-0.00239432
-0.00236374
-0.00232884
-0.00229121
-0.00224892
-0.00220109
-0.00214587
-0.00208981
-0.00203153
-0.00195997
-0.00184058
-0.00144696
-0.000913097
-0.000813654
-0.0028368
-0.00302933
-0.00303852
-0.00297756
-0.00291475
-0.00285585
-0.00279571
-0.00273464
-0.00267357
-0.00261279
-0.00255065
-0.00248203
-0.00242241
-0.00236788
-0.00229783
-0.00218729
-0.00188237
-0.00101585
-0.000223958
-0.00332576
-0.00202524
-0.00201839
-0.0020331
-0.00201272
-0.0019902
-0.00197249
-0.0017066
-0.00200573
-0.00210075
-0.00207915
-0.00203242
-0.00181649
-0.00175783
-0.00206783
-0.0021879
-0.00215355
-0.00213455
-0.0020951
-0.00197699
-0.00194287
-0.00221215
-0.00210126
-0.00208718
-0.00198898
-0.00195101
-0.00212776
-0.00209203
-0.00202782
-0.0019255
-0.00184578
-0.000524237
-0.00183941
-0.00187995
-0.00182891
-0.00178045
-0.00173287
-0.00168687
-0.00164127
-0.00159383
-0.00150162
-0.00139938
-0.00125499
-0.00126163
-0.00108678
-0.00105852
-0.000977134
-0.000619804
0.000580239
0.0010923
-0.00182001
-0.00271318
-0.0026363
-0.00256869
-0.00251068
-0.00247207
-0.00243879
-0.00241115
-0.00238891
-0.00236885
-0.00235349
-0.00234279
-0.00233616
-0.002331
-0.00232228
-0.00231422
-0.00230727
-0.00230097
-0.00229415
-0.00228794
-0.00228201
-0.00227442
-0.00226679
-0.00226001
-0.00225245
-0.00224488
-0.00223581
-0.00222665
-0.0022187
-0.00221215
-0.00221032
-0.00220902
-0.00220295
-0.00219045
-0.00218031
-0.00215439
-0.0019918
-0.00197239
-0.00228108
-0.00236179
-0.00235664
-0.00235278
-0.00235239
-0.0023526
-0.00235301
-0.00235357
-0.00234924
-0.00234242
-0.00234174
-0.00234473
-0.0023384
-0.00203631
-0.00204542
-0.00206574
-0.00208304
-0.00209697
-0.00210901
-0.00212022
-0.00213167
-0.00214232
-0.00215194
-0.00216091
-0.00216918
-0.00217624
-0.00218274
-0.00218824
-0.00219319
-0.00219763
-0.0022016
-0.00220485
-0.00220716
-0.00220886
-0.00220993
-0.00221036
-0.00221024
-0.00220936
-0.00220794
-0.00220586
-0.00220329
-0.00220027
-0.0021964
-0.00219164
-0.00218639
-0.0021802
-0.00217447
-0.00216894
-0.00216427
-0.00216097
-0.00215309
-0.00214556
-0.00213856
-0.00213181
-0.00212514
-0.00211875
-0.00211276
-0.00210737
-0.0021028
-0.00209947
-0.00209667
-0.00209262
-0.00208786
-0.00223263
-0.00229792
-0.00228954
-0.00228359
-0.00228477
-0.00228701
-0.00228774
-0.00228709
-0.00228565
-0.00228379
-0.0022817
-0.00227948
-0.00227719
-0.00227487
-0.00227251
-0.00227009
-0.00226758
-0.00226496
-0.00226221
-0.00225933
-0.00225631
-0.00225314
-0.00224984
-0.0022464
-0.00224284
-0.00223915
-0.00223534
-0.00223141
-0.00222733
-0.00222314
-0.00221882
-0.00221442
-0.0022101
-0.00220583
-0.00220166
-0.00219734
-0.0021923
-0.00218704
-0.00218115
-0.00217495
-0.00216859
-0.00216213
-0.00215554
-0.00214884
-0.00214202
-0.00213513
-0.00212815
-0.00212111
-0.00211399
-0.00210673
-0.00189674
-0.00355742
-0.00405746
-0.00399245
-0.00384767
-0.0037415
-0.00365769
-0.00357952
-0.00350339
-0.00342999
-0.00335991
-0.00329326
-0.00322997
-0.00316991
-0.00311298
-0.00305905
-0.00300797
-0.0029596
-0.00291379
-0.00287036
-0.0028292
-0.00279016
-0.0027531
-0.00271791
-0.00268445
-0.00265263
-0.00262232
-0.00259343
-0.00256587
-0.00253955
-0.00251438
-0.00249029
-0.00246722
-0.00244508
-0.00242384
-0.00240342
-0.00238376
-0.00236482
-0.00234655
-0.0023289
-0.00231185
-0.00229535
-0.00227936
-0.00226386
-0.0022488
-0.00223416
-0.0022199
-0.00220601
-0.00219248
-0.00217937
-0.00176329
-0.00181427
-0.00191037
-0.00199299
-0.00205712
-0.002109
-0.00215244
-0.00218889
-0.00221924
-0.0022443
-0.00226483
-0.00228149
-0.00229479
-0.00230523
-0.00231323
-0.002319
-0.00232262
-0.00232504
-0.0023268
-0.00232684
-0.00232577
-0.00232374
-0.00232089
-0.00231733
-0.00231314
-0.00230839
-0.00230314
-0.00229744
-0.00229135
-0.0022849
-0.00227813
-0.00227107
-0.00226374
-0.00225617
-0.00224839
-0.00224041
-0.00223224
-0.00222392
-0.00221544
-0.00220682
-0.00219808
-0.00218923
-0.00218028
-0.00217123
-0.00216209
-0.00215288
-0.00214359
-0.00213424
-0.00212483
-0.00211537
-0.00176582
-0.00182688
-0.00190191
-0.00176396
-0.00194945
-0.00196608
-0.00206341
-0.00212954
-0.00190698
-0.00253322
-0.00228142
-0.00247954
-0.0025685
-0.00240952
-0.00255094
-0.00276397
-0.00291251
-0.00308134
-0.00324005
-0.00341568
-0.00350858
-0.00296534
-0.00424303
-0.0045097
-0.00471552
-0.00494176
-0.00515174
-0.00522311
-0.00537979
-0.0061835
-0.00656762
-0.00681102
-0.00708132
-0.00729585
-0.00746733
-0.00776201
-0.00872677
-0.00915625
-0.00939842
-0.00974111
-0.00998579
-0.00982146
-0.00980204
-0.0108719
-0.0116554
-0.0121467
-0.0125233
-0.0129161
-0.0130147
-0.0127777
-0.0131786
-0.0159361
-0.0168751
-0.0174274
-0.0178802
-0.0185775
-0.0190639
-0.0195368
-0.0197458
-0.0176671
-0.00985478
-0.0103862
-0.0129215
-0.0152635
-0.01608
-0.0166248
-0.0168358
-0.0175625
-0.0174043
-0.0133665
-0.00170656
-0.00221813
-0.00567375
-0.00954281
-0.00910641
-0.00974684
-0.0101815
-0.0106681
-0.0122194
-0.0119855
-0.0130587
-0.0130549
-0.00731414
0.00209745
0.00191013
0.000311338
-0.00859722
-0.016021
-0.0165871
-0.016927
-0.0173713
-0.0178649
-0.0180821
-0.0186203
-0.016395
0.00241653
0.0162774
0.0147436
-0.00113176
-0.00869212
-0.0059534
-0.006949
-0.00878412
-0.00880127
-0.00856801
-0.0109973
-0.00681655
-0.0116473
-0.0107036
-0.0101133
-0.00757174
0.0182554
0.0412016
0.0494782
0.0486023
0.0218082
0.00501324
0.00269317
0.00406997
0.00547418
0.0066877
0.00793147
0.009147
0.0104927
0.0295356
0.059068
0.0596244
-0.0080584
-0.0222428
-0.0243738
-0.0232817
-0.0223162
-0.0215349
-0.0208762
-0.0203322
-0.0198796
-0.0194482
-0.017138
0.00630716
-0.00624928
-0.00890789
-0.00962929
-0.00943183
-0.00929825
-0.00918803
-0.00912318
-0.00914543
-0.00928673
-0.00962021
-0.00305547
0.0434969
0.00641055
-0.00183195
-0.00371047
-0.00399312
-0.00628008
0.0111467
0.000506331
-0.00129789
-0.0016744
-0.00176233
-0.00180845
-0.00179289
-0.00176404
-0.00130686
-0.00118762
-0.000806599
-0.000755319
-0.000981787
0.0150159
0.0124276
0.0011694
0.000234453
0.000387856
0.000485533
0.000693136
0.000869592
0.00104889
0.00119156
0.00125941
0.00154133
0.00266097
0.00231164
0.00205671
0.002067
0.00213181
0.0021366
0.00289127
0.00350507
0.00169
0.00220297
0.00198816
0.00247289
0.00712477
0.00552593
0.0041894
0.0043662
0.00429138
0.00388696
0.00435517
0.00423157
0.00401046
0.00395012
0.00394213
0.0039326
0.00391803
0.00390109
0.00388247
0.00386339
0.00384366
0.00382217
0.00379899
0.0037716
0.00376519
0.00480125
0.00412713
0.00402744
0.00402384
0.00385108
0.00420159
0.00438013
0.00356148
0.00333952
0.00340859
0.00313035
0.00369083
0.00368893
0.00294471
0.0028729
0.00288964
0.00276915
0.00309668
0.00315549
0.00250769
0.00244581
0.00245554
0.00249708
0.00235847
0.00237449
0.00233416
0.00269911
0.00361306
0.00359891
0.00297099
0.00259023
0.00255934
0.00253799
0.00252173
0.002504
0.00254945
0.00309706
0.00655496
0.00300382
0.00242546
0.0023307
0.00232078
0.00231167
0.00234576
0.00282881
0.00303422
0.00290431
0.00241365
0.00218492
0.00205929
0.00191653
0.00177147
0.00153684
0.00127494
0.000992683
0.000638912
5.89452e-05
-5.05426e-05
-0.000111693
-0.000159681
-0.000131426
-3.39741e-05
0.000112764
0.000285985
0.000464991
0.000632534
0.000778848
0.000899685
0.000993817
0.00106283
0.00111154
0.00114389
0.0011633
0.00117273
0.00117475
0.00117212
0.00116793
0.0011614
0.00115305
0.001143
0.0011325
0.00113195
0.00113116
0.00112434
0.00111935
0.00111532
-0.0040659
-0.00415468
-0.00425793
-0.00432156
-0.00434092
-0.00425506
-0.00466272
-0.00494538
-0.00484932
-0.00504105
-0.00523622
-0.00533402
-0.00546794
-0.00561845
-0.00575102
-0.00591805
-0.00602991
-0.00652442
-0.00642863
-0.0066585
-0.0067673
-0.00692012
-0.00757243
-0.00780135
-0.00809363
-0.00810199
-0.0084117
-0.00865343
-0.00889099
-0.00921667
-0.00956354
-0.00975079
-0.00998634
-0.010227
-0.0104855
-0.0108358
-0.01013
-0.0115966
-0.0119036
-0.0122665
-0.0125675
-0.0119418
-0.0131565
-0.0135475
-0.0140012
-0.0144491
-0.0141539
-0.0153001
-0.015735
-0.0162859
-0.0165213
-0.0169827
-0.0174004
-0.0178292
-0.0177551
-0.0172134
-0.0186307
-0.019523
-0.0195331
-0.0202378
-0.0205896
-0.0207971
-0.0197317
-0.010099
-0.0105675
-0.0126242
-0.0143415
-0.0150044
-0.0153102
-0.0156284
-0.0159322
-0.0161549
-0.0166143
-0.0152404
-0.00642935
0.0117547
0.0114077
0.00651177
-0.000939624
-0.000489197
-0.0031004
-0.00614494
-0.00651865
-0.0117078
-0.0114136
-0.0113693
-0.0112672
-0.0112257
-0.00981171
0.000677257
0.00659417
0.0077163
0.00750664
0.00702515
0.00543486
-0.00338114
-0.00711686
-0.00717822
-0.00532649
-0.00514447
-0.00145376
0.00781803
0.00791148
-0.0037571
-0.00729614
-0.00534377
-0.00517405
-0.00365868
0.00914159
0.0240293
0.0271376
0.0287223
0.0132051
0.00591609
0.00376605
0.00132752
-0.000197718
0.000527545
-0.000272338
0.00172199
0.0171621
0.0305846
0.0318282
0.0299157
0.0272202
0.0162589
0.00206092
-0.00290611
-0.0043517
-0.00438484
-0.00455551
-0.00467622
-0.0047439
-0.00429911
-0.00365398
-0.0044255
-0.00435439
-0.00468229
0.0129219
0.00252661
0.000609626
0.000671895
0.000680644
0.000674362
0.00077148
0.000767675
0.00189126
0.00379079
0.00391833
0.00100391
0.000882596
0.00125501
0.00164149
0.00173385
0.002182
0.00505936
0.00709332
0.00543527
0.00337839
0.00290523
0.00328628
0.00354021
0.00381685
0.00405306
0.00428953
0.00446699
0.00617953
0.00774459
0.00807103
0.00193659
0.00140119
0.0014803
0.00170815
0.00197306
0.00226496
0.00254129
0.0028092
0.00305749
0.00394616
0.00498505
0.00279616
0.00283542
0.00303066
0.00316134
0.00326145
0.00329931
0.0040675
0.00585545
0.00590795
0.00481525
0.00432676
0.00445436
0.00446103
0.00422973
0.00426289
0.00428124
0.00428363
0.00427285
0.00424643
0.00421322
0.00419126
0.00416357
0.00412918
0.00409098
0.00405428
0.00401853
0.00398252
0.00394475
0.00390984
0.00388085
0.00382761
0.00376776
0.00372465
0.00508106
0.00447109
0.00412939
0.00420245
0.00397829
0.0042813
0.00430747
0.0036008
0.00330209
0.00334896
0.00322023
0.00330809
0.00393313
0.00282567
0.00286111
0.00274287
0.00272979
0.00265837
0.00261353
0.00258295
0.00253042
0.00250694
0.00248108
0.00248186
0.00284123
0.0029016
0.00239563
0.00218162
0.0021149
0.00210409
0.00261228
0.00234197
0.00213724
0.00211309
0.00209478
0.00208122
0.00207409
0.00202522
0.00200028
0.00194607
0.00192826
0.00193811
0.00198308
0.00207986
0.00210261
0.0020937
0.00205451
0.0020074
0.00194599
0.00191146
0.00187476
0.00181337
0.00172236
0.001599
0.00143125
0.00118018
0.000855808
0.000455675
0.000453778
0.00055358
0.000665736
0.000766518
0.000853013
0.000927516
0.00099086
0.00104359
0.00108706
0.00112305
0.00115289
0.00117606
0.00119321
0.00120387
0.00120777
0.00120641
0.00119915
0.00118638
0.00117085
0.00115515
0.00113365
0.00110842
0.00107811
0.00103051
0.000980613
0.00183728
0.0014309
0.00117069
0.0011401
-0.00451128
-0.0037709
-0.00421397
-0.00445009
-0.00409754
-0.00511336
-0.00529794
-0.0053891
-0.00548286
-0.00562713
-0.00572186
-0.00580893
-0.00588389
-0.00594486
-0.00531595
-0.0064466
-0.00659714
-0.00665014
-0.00672011
-0.00732579
-0.00742836
-0.00755926
-0.00771928
-0.00784616
-0.00796439
-0.00789378
-0.00821683
-0.0084179
-0.00856421
-0.0087373
-0.00896656
-0.0089754
-0.00821292
-0.00848797
-0.00888017
-0.00907989
-0.00920787
-0.00945878
-0.00964836
-0.00958579
-0.0101164
-0.0102896
-0.0105831
-0.0106316
-0.00988419
-0.0106078
-0.011009
-0.0111659
-0.0115019
-0.0106763
-0.0109768
-0.0113196
-0.011502
-0.0116798
-0.0118539
-0.0120119
-0.012168
-0.0123127
-0.0121123
-0.0113571
-0.0102991
-0.0123767
-0.0133428
-0.0133044
-0.0133812
-0.0134746
-0.0135797
-0.0136879
-0.0137696
-0.0136962
-0.0135787
-0.0134414
-0.0132031
-0.0107535
-0.0145844
-0.0151561
-0.0143038
-0.0170891
-0.0178525
-0.0179529
-0.0182636
-0.0186583
-0.0189061
-0.0191451
-0.0193491
-0.0193708
-0.019503
-0.0196561
-0.0195668
-0.0194484
-0.0193479
-0.00764642
-0.0124128
-0.0179416
-0.01873
-0.0190334
-0.019021
-0.0190891
-0.0184955
-0.0140966
-0.0111315
-0.0111896
-0.0146884
-0.0197443
-0.0108934
-0.0147756
-0.0125873
-0.0113622
-0.0185381
-0.0177088
-0.0181585
-0.0198156
0.0112965
-0.00463032
-0.00816659
0.00259624
0.00057734
0.00423292
0.00638788
0.00640538
-0.000427712
-0.00142759
-0.0019075
-0.00297796
-0.00390207
-0.00184791
-0.00185821
-0.00184207
0.00285655
0.00279344
0.000422053
-0.0010463
-0.000393902
-0.00177436
0.0012204
-0.00156498
-0.00192286
-0.00183842
-0.00169839
-0.00147889
-0.00138354
0.000438396
0.00540697
0.00569355
-0.00122874
0.00309986
0.00279384
0.00254663
0.00768047
0.00400274
0.00293393
0.00520525
0.00274018
0.00540149
0.00611888
0.0017511
0.00207973
0.0031991
0.00104115
0.0036001
0.00405097
0.00350086
0.00478909
0.00348234
0.00384134
0.0029075
0.00264199
0.00288891
0.00296192
0.00309591
0.00310983
0.0050588
0.00359248
0.00351576
0.00360464
0.00367241
0.0037265
0.00416285
0.00590469
0.00591265
0.00498881
0.00584787
0.00490262
0.00610868
0.00641352
0.00544374
0.00447665
0.00437082
0.00442666
0.00444341
0.00444466
0.00444153
0.00443314
0.0044226
0.00440616
0.00438979
0.00437094
0.00434841
0.00432094
0.00428822
0.00425494
0.00422269
0.00419125
0.00416175
0.00413588
0.00411616
0.0040947
0.00405841
0.00404965
0.00414498