/*--------------------------------*- C++ -*----------------------------------*\
| =========                 |                                                 |
| \\      /  F ield         | OpenFOAM: The Open Source CFD Toolbox           |
|  \\    /   O peration     | Version:  2.4.0                                 |
|   \\  /    A nd           | Web:      www.OpenFOAM.org                      |
|    \\/     M anipulation  |                                                 |
\*---------------------------------------------------------------------------*/
FoamFile
{
    version     2.0;
    format      ascii;
    class       volScalarField;
    location    "0.006";
    object      H;
}
// * * * * * * * * * * * * * * * * * * * * * * * * * * * * * * * * * * * * * //

dimensions      [0 2 -2 0 0 0 0];

internalField   nonuniform List<scalar> 
125
(
-3.13624
-2.88554
-2.65199
-2.43471
-2.23281
-2.04544
-1.87178
-1.71103
-1.56242
-1.42519
-1.29865
-1.18209
-1.07487
-0.976356
-0.885955
-0.803098
-0.727248
-0.657894
-0.594557
-0.536783
-0.484144
-0.43624
-0.392696
-0.353158
-0.3173
-0.284814
-0.255417
-0.228843
-0.204847
-0.183202
-0.163699
-0.146143
-0.130356
-0.116174
-0.103447
-0.0920359
-0.0818152
-0.0726693
-0.0644926
-0.0571892
-0.0506717
-0.0448608
-0.0396844
-0.0350771
-0.03098
-0.0273397
-0.0241078
-0.0212411
-0.0187002
-0.01645
-0.0144589
-0.0126984
-0.0111431
-0.00977017
-0.00855921
-0.00749197
-0.00655216
-0.00572523
-0.00499823
-0.00435961
-0.0037991
-0.00330757
-0.00287689
-0.00249987
-0.00217012
-0.00188197
-0.00163041
-0.001411
-0.00121981
-0.00105339
-0.000908661
-0.000782934
-0.000673826
-0.000579244
-0.000497343
-0.000426503
-0.0003653
-0.000312485
-0.000266964
-0.000227776
-0.000194084
-0.000165152
-0.000140341
-0.000119091
-0.000100917
-8.53937e-05
-7.21534e-05
-6.08763e-05
-5.12851e-05
-4.31398e-05
-3.62326e-05
-3.03842e-05
-2.54398e-05
-2.12662e-05
-1.77488e-05
-1.47891e-05
-1.23027e-05
-1.02173e-05
-8.47125e-06
-7.01164e-06
-5.79358e-06
-4.77886e-06
-3.93498e-06
-3.23439e-06
-2.65384e-06
-2.17357e-06
-1.77698e-06
-1.45011e-06
-1.18117e-06
-9.60325e-07
-7.79312e-07
-6.31206e-07
-5.10299e-07
-4.11731e-07
-3.31562e-07
-2.66482e-07
-2.13771e-07
-1.7112e-07
-1.36731e-07
-1.0901e-07
-8.67396e-08
-6.88791e-08
-5.45925e-08
-4.31544e-08
-3.40525e-08
)
;

boundaryField
{
    BotWall
    {
        type            zeroGradient;
    }
    FreeStream
    {
        type            zeroGradient;
    }
    FrontNBack
    {
        type            empty;
    }
    LeftSide
    {
        type            symmetryPlane;
    }
    RightSide
    {
        type            symmetryPlane;
    }
    procBoundary8to5
    {
        type            processor;
        value           nonuniform List<scalar> 
50
(
-0.000436646
-0.000373921
-0.000319806
-0.000273175
-0.000233041
-0.000198543
-0.000168925
-0.00014353
-0.000121785
-0.00010319
-8.73099e-05
-7.37671e-05
-6.22339e-05
-5.24261e-05
-4.40976e-05
-3.70358e-05
-3.1057e-05
-2.60027e-05
-2.17366e-05
-1.81413e-05
-1.51163e-05
-1.25751e-05
-1.04438e-05
-8.6592e-06
-7.16743e-06
-5.92255e-06
-4.88544e-06
-4.02294e-06
-3.30688e-06
-2.71344e-06
-2.22252e-06
-1.81712e-06
-1.48296e-06
-1.20803e-06
-9.82221e-07
-7.97137e-07
-6.45701e-07
-5.2204e-07
-4.21258e-07
-3.39255e-07
-2.72703e-07
-2.18745e-07
-1.75139e-07
-1.39948e-07
-1.11591e-07
-8.87879e-08
-7.05152e-08
-5.58883e-08
-4.41931e-08
-3.48938e-08
)
;
    }
    procBoundary8to6
    {
        type            processor;
        value           nonuniform List<scalar> 
75
(
-3.15157
-2.9019
-2.66912
-2.45235
-2.25075
-2.0635
-1.88979
-1.72885
-1.57992
-1.44228
-1.31524
-1.19811
-1.09027
-0.991097
-0.900004
-0.816436
-0.739865
-0.669789
-0.605733
-0.54725
-0.493918
-0.44534
-0.401144
-0.36098
-0.324523
-0.291467
-0.261529
-0.234445
-0.209969
-0.187875
-0.167951
-0.150004
-0.133854
-0.119337
-0.1063
-0.094605
-0.0841234
-0.0747389
-0.0663446
-0.0588433
-0.0521462
-0.0461727
-0.0408495
-0.03611
-0.031894
-0.028147
-0.0248198
-0.0218678
-0.019251
-0.0169333
-0.0148822
-0.0130687
-0.0114665
-0.0100522
-0.00880475
-0.00770547
-0.00673753
-0.00588597
-0.00513743
-0.00447999
-0.00390309
-0.00339728
-0.00295419
-0.00256641
-0.00222732
-0.0019311
-0.00167255
-0.00144712
-0.00125073
-0.00107983
-0.000931257
-0.000802221
-0.000690274
-0.000593256
-0.000509269
)
;
    }
    procBoundary8to7
    {
        type            processor;
        value           uniform -2.68321e-08;
    }
    procBoundary8to9
    {
        type            processor;
        value           uniform -3.40501;
    }
    procBoundary8to10
    {
        type            processor;
        value           nonuniform List<scalar> 
75
(
-0.0146165
-0.012836
-0.011263
-0.00987454
-0.0086499
-0.00757066
-0.00662034
-0.00578423
-0.00504921
-0.00440361
-0.00383703
-0.00334022
-0.00290497
-0.002524
-0.00219082
-0.00189972
-0.00164561
-0.001424
-0.00123093
-0.00106288
-0.000916761
-0.00078984
-0.00067971
-0.000584253
-0.000501604
-0.000430124
-0.000368376
-0.000315096
-0.000269179
-0.000229654
-0.000195673
-0.000166497
-0.000141479
-0.000120053
-0.000101729
-8.60786e-05
-7.27307e-05
-6.13625e-05
-5.16942e-05
-4.34837e-05
-3.65214e-05
-3.06264e-05
-2.56428e-05
-2.14361e-05
-1.78909e-05
-1.49077e-05
-1.24016e-05
-1.02998e-05
-8.53981e-06
-7.06858e-06
-5.84083e-06
-4.818e-06
-3.96735e-06
-3.26114e-06
-2.67586e-06
-2.19169e-06
-1.79189e-06
-1.46233e-06
-1.19119e-06
-9.68522e-07
-7.85987e-07
-6.36652e-07
-5.14719e-07
-4.15324e-07
-3.34472e-07
-2.68844e-07
-2.15662e-07
-1.72657e-07
-1.37948e-07
-1.09997e-07
-8.75277e-08
-6.95083e-08
-5.50822e-08
-4.35579e-08
-3.43754e-08
)
;
    }
    procBoundary8to11
    {
        type            processor;
        value           nonuniform List<scalar> 
50
(
-3.14019
-2.89013
-2.65709
-2.4402
-2.23859
-2.05142
-1.87787
-1.71717
-1.56853
-1.43124
-1.30458
-1.18788
-1.08048
-0.98176
-0.891136
-0.808043
-0.731947
-0.662343
-0.598752
-0.540724
-0.487834
-0.439684
-0.395899
-0.356129
-0.320047
-0.287348
-0.257747
-0.23098
-0.206802
-0.184986
-0.165323
-0.147617
-0.131692
-0.117382
-0.104536
-0.0930157
-0.082695
-0.0734574
-0.0651972
-0.0578178
-0.0512314
-0.0453581
-0.0401254
-0.0354675
-0.0313249
-0.0276437
-0.0243754
-0.0214761
-0.0189062
-0.0166304
)
;
    }
}


// ************************************************************************* //
