/*--------------------------------*- C++ -*----------------------------------*\
| =========                 |                                                 |
| \\      /  F ield         | OpenFOAM: The Open Source CFD Toolbox           |
|  \\    /   O peration     | Version:  2.4.0                                 |
|   \\  /    A nd           | Web:      www.OpenFOAM.org                      |
|    \\/     M anipulation  |                                                 |
\*---------------------------------------------------------------------------*/
FoamFile
{
    version     2.0;
    format      ascii;
    class       volScalarField;
    location    "0.006";
    object      p_rgh;
}
// * * * * * * * * * * * * * * * * * * * * * * * * * * * * * * * * * * * * * //

dimensions      [1 -1 -2 0 0 0 0];

internalField   nonuniform List<scalar> 
125
(
-0.0172954
-0.0172574
-0.0172192
-0.0171808
-0.0171424
-0.0171037
-0.017065
-0.017026
-0.016987
-0.0169478
-0.0169085
-0.016869
-0.0168293
-0.0167896
-0.0167496
-0.0167096
-0.0166694
-0.016629
-0.0165885
-0.0165478
-0.016507
-0.016466
-0.0164249
-0.0163837
-0.0163423
-0.0163007
-0.016259
-0.0162171
-0.0161751
-0.0161329
-0.0160906
-0.0160481
-0.0160054
-0.0159626
-0.0159197
-0.0158765
-0.0158333
-0.0157898
-0.0157462
-0.0157025
-0.0156586
-0.0156145
-0.0155702
-0.0155258
-0.0154813
-0.0154365
-0.0153916
-0.0153466
-0.0153014
-0.015256
-0.0152104
-0.0151647
-0.0151188
-0.0150727
-0.0150265
-0.0149801
-0.0149335
-0.0148868
-0.0148399
-0.0147928
-0.0147455
-0.0146981
-0.0146505
-0.0146027
-0.0145547
-0.0145066
-0.0144583
-0.0144098
-0.0143611
-0.0143122
-0.0142632
-0.014214
-0.0141646
-0.014115
-0.0140653
-0.0140153
-0.0139652
-0.0139149
-0.0138644
-0.0138137
-0.0137629
-0.0137118
-0.0136606
-0.0136092
-0.0135576
-0.0135057
-0.0134538
-0.0134016
-0.0133492
-0.0132966
-0.0132438
-0.0131909
-0.0131377
-0.0130844
-0.0130308
-0.0129771
-0.0129232
-0.012869
-0.0128147
-0.0127601
-0.0127054
-0.0126505
-0.0125953
-0.01254
-0.0124844
-0.0124287
-0.0123727
-0.0123166
-0.0122602
-0.0122036
-0.0121468
-0.0120898
-0.0120326
-0.0119752
-0.0119176
-0.0118597
-0.0118017
-0.0117434
-0.011685
-0.0116263
-0.0115673
-0.0115082
-0.0114489
-0.0113893
-0.0113295
)
;

boundaryField
{
    BotWall
    {
        type            fixedFluxPressure;
        gradient        nonuniform 0();
        value           nonuniform 0();
    }
    FreeStream
    {
        type            totalPressure;
        rho             rho;
        psi             none;
        gamma           1;
        p0              nonuniform 0();
        value           nonuniform 0();
    }
    FrontNBack
    {
        type            empty;
    }
    LeftSide
    {
        type            symmetryPlane;
    }
    RightSide
    {
        type            symmetryPlane;
    }
    procBoundary8to5
    {
        type            processor;
        value           nonuniform List<scalar> 
50
(
-0.0140234
-0.0139732
-0.0139228
-0.0138723
-0.0138215
-0.0137706
-0.0137195
-0.0136682
-0.0136168
-0.0135651
-0.0135132
-0.0134612
-0.0134089
-0.0133565
-0.0133039
-0.0132511
-0.0131981
-0.0131449
-0.0130915
-0.0130379
-0.0129841
-0.0129301
-0.0128759
-0.0128215
-0.012767
-0.0127122
-0.0126572
-0.012602
-0.0125466
-0.012491
-0.0124352
-0.0123792
-0.012323
-0.0122666
-0.01221
-0.0121532
-0.0120961
-0.0120389
-0.0119814
-0.0119238
-0.0118659
-0.0118078
-0.0117495
-0.011691
-0.0116323
-0.0115733
-0.0115141
-0.0114548
-0.0113952
-0.0113353
)
;
    }
    procBoundary8to6
    {
        type            processor;
        value           nonuniform List<scalar> 
75
(
-0.0173076
-0.0172694
-0.0172312
-0.0171927
-0.0171542
-0.0171155
-0.0170767
-0.0170377
-0.0169986
-0.0169593
-0.0169199
-0.0168804
-0.0168407
-0.0168008
-0.0167608
-0.0167207
-0.0166804
-0.01664
-0.0165994
-0.0165587
-0.0165178
-0.0164768
-0.0164357
-0.0163943
-0.0163529
-0.0163112
-0.0162695
-0.0162275
-0.0161854
-0.0161432
-0.0161008
-0.0160583
-0.0160156
-0.0159727
-0.0159297
-0.0158865
-0.0158432
-0.0157997
-0.015756
-0.0157122
-0.0156683
-0.0156241
-0.0155798
-0.0155354
-0.0154908
-0.015446
-0.015401
-0.0153559
-0.0153106
-0.0152652
-0.0152196
-0.0151738
-0.0151279
-0.0150818
-0.0150355
-0.014989
-0.0149424
-0.0148956
-0.0148487
-0.0148015
-0.0147542
-0.0147067
-0.0146591
-0.0146112
-0.0145632
-0.0145151
-0.0144667
-0.0144182
-0.0143694
-0.0143206
-0.0142715
-0.0142222
-0.0141728
-0.0141232
-0.0140734
)
;
    }
    procBoundary8to7
    {
        type            processor;
        value           uniform -0.0112695;
    }
    procBoundary8to9
    {
        type            processor;
        value           uniform -0.0173333;
    }
    procBoundary8to10
    {
        type            processor;
        value           nonuniform List<scalar> 
75
(
-0.0152154
-0.0151697
-0.0151237
-0.0150776
-0.0150314
-0.0149849
-0.0149383
-0.0148916
-0.0148446
-0.0147975
-0.0147502
-0.0147027
-0.0146551
-0.0146073
-0.0145593
-0.0145111
-0.0144628
-0.0144142
-0.0143655
-0.0143166
-0.0142676
-0.0142183
-0.0141689
-0.0141193
-0.0140695
-0.0140196
-0.0139694
-0.0139191
-0.0138686
-0.0138179
-0.013767
-0.0137159
-0.0136646
-0.0136132
-0.0135615
-0.0135097
-0.0134577
-0.0134055
-0.0133531
-0.0133005
-0.0132477
-0.0131947
-0.0131415
-0.0130881
-0.0130346
-0.0129808
-0.0129268
-0.0128727
-0.0128183
-0.0127637
-0.012709
-0.012654
-0.0125988
-0.0125435
-0.0124879
-0.0124321
-0.0123761
-0.01232
-0.0122636
-0.012207
-0.0121502
-0.0120931
-0.0120359
-0.0119785
-0.0119208
-0.011863
-0.0118049
-0.0117466
-0.0116881
-0.0116294
-0.0115705
-0.0115113
-0.011452
-0.0113924
-0.0113326
)
;
    }
    procBoundary8to11
    {
        type            processor;
        value           nonuniform List<scalar> 
50
(
-0.017299
-0.017261
-0.0172228
-0.0171845
-0.0171461
-0.0171075
-0.0170687
-0.0170299
-0.0169908
-0.0169517
-0.0169124
-0.0168729
-0.0168333
-0.0167936
-0.0167537
-0.0167136
-0.0166735
-0.0166331
-0.0165926
-0.016552
-0.0165112
-0.0164703
-0.0164292
-0.016388
-0.0163466
-0.0163051
-0.0162634
-0.0162216
-0.0161796
-0.0161374
-0.0160951
-0.0160526
-0.01601
-0.0159672
-0.0159243
-0.0158812
-0.015838
-0.0157946
-0.015751
-0.0157073
-0.0156634
-0.0156193
-0.0155751
-0.0155307
-0.0154862
-0.0154415
-0.0153966
-0.0153516
-0.0153064
-0.015261
)
;
    }
}


// ************************************************************************* //
