/*--------------------------------*- C++ -*----------------------------------*\
| =========                 |                                                 |
| \\      /  F ield         | OpenFOAM: The Open Source CFD Toolbox           |
|  \\    /   O peration     | Version:  2.4.0                                 |
|   \\  /    A nd           | Web:      www.OpenFOAM.org                      |
|    \\/     M anipulation  |                                                 |
\*---------------------------------------------------------------------------*/
FoamFile
{
    version     2.0;
    format      ascii;
    class       volScalarField;
    location    "2.9";
    object      p;
}
// * * * * * * * * * * * * * * * * * * * * * * * * * * * * * * * * * * * * * //

dimensions      [1 -1 -2 0 0 0 0];

internalField   nonuniform List<scalar> 
8000
(
-0.131676
-0.129214
-0.127036
-0.125304
-0.123845
-0.122556
-0.121404
-0.120372
-0.119444
-0.118601
-0.117829
-0.117111
-0.116438
-0.115792
-0.11517
-0.114555
-0.113945
-0.113321
-0.112689
-0.112024
-0.111333
-0.110584
-0.109797
-0.109014
-0.108402
-0.107709
-0.105507
-0.0972105
-0.088085
-0.125053
-0.300824
-0.40394
-0.0112679
-0.0106835
-0.0107736
-0.0107954
-0.0107949
-0.010793
-0.0107928
-0.0107933
-0.0107938
-0.010794
-0.0107942
-0.0107944
-0.0107945
-0.0107945
-0.0107945
-0.0107945
-0.0107944
-0.0107944
0.00556359
0.00698197
0.00873717
0.0103891
0.0118728
0.0132244
0.0144704
0.0156218
0.0166847
0.0176651
0.0185687
0.0194014
0.0201676
0.0208729
0.0215203
0.0221155
0.0226602
0.0231611
0.0236178
0.0240392
0.0244263
0.0247984
0.025142
0.0253845
0.0256904
0.0255369
0.0275356
0.0365694
0.0472228
0.00228975
-0.2162
-0.475736
-0.0326576
-0.0321392
-0.0322466
-0.0322678
-0.0322663
-0.0322641
-0.0322641
-0.0322648
-0.0322656
-0.0322663
-0.032267
-0.0322676
-0.0322683
-0.032269
-0.0322696
-0.0322703
-0.0322709
-0.0322716
-0.0537168
-0.0532882
-0.0529028
-0.052515
-0.0520795
-0.0515845
-0.0510326
-0.0504243
-0.049761
-0.0490403
-0.0482629
-0.0474257
-0.0465296
-0.0455707
-0.0445502
-0.0434631
-0.0423113
-0.0410881
-0.0397972
-0.0384293
-0.0369866
-0.03545
-0.0338355
-0.032213
-0.0304073
-0.029001
-0.0253388
-0.014841
-0.00280749
-0.0446256
-0.253248
-0.51062
-0.0541885
-0.0537163
-0.0538168
-0.0538431
-0.0538425
-0.0538397
-0.053839
-0.0538393
-0.0538397
-0.05384
-0.0538403
-0.0538406
-0.0538409
-0.0538412
-0.0538415
-0.0538419
-0.0538422
-0.0538426
-0.00662201
-0.00650762
-0.00630599
-0.00608181
-0.00585765
-0.00563446
-0.00541082
-0.00518649
-0.00496231
-0.00473866
-0.0045164
-0.00429549
-0.00407683
-0.00386009
-0.00364648
-0.00343524
-0.0032278
-0.00302281
-0.00282264
-0.00262485
-0.00242863
-0.00222243
-0.00201804
-0.00190513
-0.0017495
-0.00212437
-0.00011757
0.00948143
0.0213545
-0.0258423
-0.262393
-0.586231
-0.075684
-0.075227
-0.0753235
-0.0753514
-0.0753516
-0.0753489
-0.0753484
-0.0753488
-0.0753493
-0.0753498
-0.0753503
-0.0753508
-0.0753513
-0.0753518
-0.0753523
-0.0753528
-0.0753534
-0.0753539
-0.0198342
-0.020264
-0.0207266
-0.0211123
-0.0214145
-0.0216439
-0.0218055
-0.0219003
-0.0219284
-0.0218901
-0.021786
-0.0216164
-0.021382
-0.0210828
-0.0207196
-0.0202923
-0.0198015
-0.019247
-0.01863
-0.0179494
-0.0172025
-0.01638
-0.0154923
-0.014636
-0.0137017
-0.0131929
-0.0100909
0.000741573
0.0136404
-0.036233
-0.277745
-0.60506
-0.0972392
-0.0967896
-0.0968813
-0.096911
-0.096912
-0.0969093
-0.0969086
-0.096909
-0.0969095
-0.0969099
-0.0969103
-0.0969108
-0.0969112
-0.0969117
-0.0969121
-0.0969126
-0.0969131
-0.0969136
-0.0195002
-0.0199745
-0.0204746
-0.0209237
-0.0213283
-0.0217008
-0.022045
-0.0223618
-0.0226513
-0.0229143
-0.0231514
-0.0233635
-0.0235509
-0.0237147
-0.0238551
-0.0239729
-0.0240683
-0.0241422
-0.0241947
-0.0242266
-0.0242332
-0.0242077
-0.0241598
-0.0241958
-0.0242338
-0.0246757
-0.0223661
-0.0121428
-0.000965774
-0.0576799
-0.311329
-0.632707
-0.118765
-0.118318
-0.118408
-0.118439
-0.11844
-0.118438
-0.118437
-0.118438
-0.118439
-0.118439
-0.11844
-0.11844
-0.118441
-0.118442
-0.118442
-0.118443
-0.118443
-0.118444
-0.0327996
-0.0335129
-0.0342754
-0.0349549
-0.0355557
-0.0360966
-0.0365842
-0.0370199
-0.0374039
-0.037737
-0.0380194
-0.0382521
-0.0384343
-0.0385669
-0.0386484
-0.0386794
-0.0386574
-0.0385828
-0.0384523
-0.038266
-0.0380139
-0.0376895
-0.037301
-0.036963
-0.0366021
-0.0364231
-0.033082
-0.0218791
-0.0130322
-0.0810966
-0.341913
-0.611571
-0.140314
-0.139871
-0.139959
-0.13999
-0.139992
-0.13999
-0.139989
-0.13999
-0.139991
-0.139992
-0.139992
-0.139993
-0.139994
-0.139995
-0.139995
-0.139996
-0.139997
-0.139998
-0.0528056
-0.0532807
-0.0537852
-0.0542456
-0.0546685
-0.0550667
-0.055443
-0.0557985
-0.056132
-0.0564445
-0.0567346
-0.0570032
-0.057248
-0.0574702
-0.0576663
-0.0578376
-0.0579791
-0.0580929
-0.0581724
-0.0582196
-0.0582206
-0.0581736
-0.0580859
-0.0580797
-0.058071
-0.0580851
-0.0547682
-0.0442335
-0.0396854
-0.117572
-0.371486
-0.570889
-0.161855
-0.161412
-0.1615
-0.161532
-0.161534
-0.161532
-0.161531
-0.161532
-0.161533
-0.161533
-0.161534
-0.161535
-0.161536
-0.161537
-0.161537
-0.161538
-0.161539
-0.16154
-0.086641
-0.0860876
-0.0855514
-0.0851628
-0.0849182
-0.0847993
-0.0847984
-0.0849145
-0.0851469
-0.0854968
-0.0859641
-0.0865515
-0.0872601
-0.088095
-0.0890579
-0.0901564
-0.0913928
-0.0927782
-0.0943151
-0.0960178
-0.0978844
-0.0999314
-0.102178
-0.104744
-0.107523
-0.110532
-0.11111
-0.106822
-0.109977
-0.181737
-0.378618
-0.506357
-0.183394
-0.18295
-0.183042
-0.183074
-0.183076
-0.183074
-0.183073
-0.183074
-0.183076
-0.183077
-0.183078
-0.183079
-0.18308
-0.183082
-0.183083
-0.183084
-0.183086
-0.183087
-0.1041
-0.103578
-0.103137
-0.10286
-0.102727
-0.102722
-0.10284
-0.103084
-0.103453
-0.103949
-0.10457
-0.105321
-0.106199
-0.107209
-0.108347
-0.109622
-0.111027
-0.112573
-0.114253
-0.116078
-0.118031
-0.12013
-0.122405
-0.125025
-0.127804
-0.129959
-0.127644
-0.120691
-0.139002
-0.274712
-0.523771
-0.386333
-0.204887
-0.20449
-0.204577
-0.204608
-0.20461
-0.204609
-0.204609
-0.204611
-0.204613
-0.204614
-0.204616
-0.204618
-0.20462
-0.204622
-0.204624
-0.204626
-0.204629
-0.204631
-0.0528425
-0.0542006
-0.0555275
-0.0565767
-0.0573758
-0.0579665
-0.0583639
-0.0585695
-0.0585846
-0.0584081
-0.0580404
-0.0574777
-0.0567183
-0.055755
-0.0545838
-0.053194
-0.0515797
-0.049727
-0.0476278
-0.0452561
-0.0425855
-0.0395971
-0.0364494
-0.0335467
-0.0305987
-0.0234707
-0.00105208
0.0318459
-0.0345506
-0.48143
-1.17704
-0.255251
-0.226299
-0.226017
-0.22609
-0.226121
-0.226125
-0.226124
-0.226126
-0.226128
-0.226131
-0.226133
-0.226136
-0.226139
-0.226142
-0.226145
-0.226149
-0.226152
-0.226156
-0.226159
-0.0768457
-0.0761337
-0.0753361
-0.0746781
-0.0741911
-0.0738584
-0.0736736
-0.073635
-0.0737465
-0.0740079
-0.074424
-0.0749939
-0.0757241
-0.0766133
-0.0776694
-0.0788912
-0.0802884
-0.0818607
-0.0836178
-0.0855565
-0.087675
-0.089988
-0.0926214
-0.0958592
-0.0994419
-0.100293
-0.0917628
-0.08068
-0.14592
-0.456389
-0.873202
-0.250032
-0.247688
-0.247573
-0.247624
-0.247647
-0.247653
-0.247655
-0.247659
-0.247663
-0.247668
-0.247672
-0.247677
-0.247681
-0.247686
-0.247691
-0.247695
-0.2477
-0.247705
-0.24771
-0.164427
-0.161445
-0.158631
-0.156371
-0.15456
-0.153108
-0.151999
-0.151232
-0.15081
-0.150731
-0.150999
-0.151611
-0.152574
-0.153885
-0.155559
-0.157587
-0.159994
-0.162767
-0.165938
-0.169488
-0.173453
-0.177825
-0.182736
-0.188289
-0.19424
-0.19858
-0.198162
-0.199606
-0.252497
-0.433928
-0.712709
-0.269607
-0.269028
-0.26911
-0.269142
-0.269147
-0.269149
-0.269152
-0.269156
-0.269161
-0.269165
-0.26917
-0.269175
-0.26918
-0.269185
-0.26919
-0.269196
-0.269202
-0.269208
-0.269215
0.0432661
0.0440031
0.0451854
0.0464694
0.0477474
0.0490243
0.0503145
0.0516222
0.0529527
0.0543035
0.0556874
0.0570963
0.0585559
0.0600473
0.0616124
0.0632195
0.0649243
0.0666896
0.068583
0.0706044
0.0727862
0.0749269
0.076406
0.0774325
0.083556
0.110282
0.153549
0.0691354
-0.53589
-1.5285
-0.408185
-0.290797
-0.290458
-0.290542
-0.290577
-0.290584
-0.290586
-0.290591
-0.290597
-0.290605
-0.290612
-0.29062
-0.290629
-0.290638
-0.290647
-0.290656
-0.290666
-0.290676
-0.290686
-0.290696
-0.0468437
-0.0445216
-0.042378
-0.0406478
-0.0392213
-0.0380438
-0.0371005
-0.0364066
-0.0359563
-0.0357604
-0.0358077
-0.0361087
-0.0366486
-0.0374384
-0.0384591
-0.0397228
-0.0412051
-0.0429193
-0.0448283
-0.0469422
-0.0492323
-0.0518308
-0.0548729
-0.058025
-0.0585071
-0.0517507
-0.0469227
-0.111091
-0.35305
-0.785492
-0.316708
-0.312157
-0.311981
-0.312037
-0.312061
-0.312067
-0.31207
-0.312074
-0.31208
-0.312086
-0.312092
-0.312098
-0.312105
-0.312113
-0.312121
-0.312129
-0.312138
-0.312148
-0.312158
-0.312169
0.15537
0.158012
0.160979
0.163613
0.165832
0.167697
0.169216
0.170396
0.171213
0.171673
0.171748
0.171449
0.170744
0.169646
0.168115
0.16617
0.163765
0.160931
0.157635
0.15389
0.149462
0.143959
0.13763
0.135015
0.146576
0.164711
0.0772632
-0.3788
-1.07268
-0.419508
-0.333724
-0.333349
-0.333395
-0.333427
-0.333441
-0.33345
-0.33346
-0.333471
-0.333482
-0.333494
-0.333505
-0.333518
-0.33353
-0.333543
-0.333556
-0.33357
-0.333583
-0.333597
-0.333611
-0.333625
0.20291
0.20741
0.211923
0.215644
0.218643
0.22102
0.222823
0.224021
0.224625
0.224604
0.223974
0.222695
0.220787
0.218201
0.214961
0.211007
0.206379
0.201027
0.194969
0.187897
0.179387
0.169842
0.164928
0.176509
0.192445
0.0751736
-0.473203
-1.21248
-0.41956
-0.354708
-0.354508
-0.354508
-0.354537
-0.354556
-0.354572
-0.354585
-0.354599
-0.354614
-0.35463
-0.354646
-0.354663
-0.35468
-0.354698
-0.354717
-0.354737
-0.354758
-0.354779
-0.354801
-0.354825
-0.354849
0.453612
0.461586
0.470167
0.478031
0.485245
0.492032
0.498459
0.504546
0.510295
0.515713
0.520806
0.525567
0.529997
0.534061
0.537762
0.541035
0.543893
0.546075
0.547235
0.546809
0.547047
0.556497
0.582714
0.573281
0.311009
-0.517237
-1.02265
-0.433683
-0.370187
-0.375757
-0.37599
-0.376017
-0.376033
-0.376056
-0.376083
-0.376104
-0.376126
-0.376149
-0.376172
-0.376195
-0.376218
-0.376242
-0.376266
-0.37629
-0.376315
-0.37634
-0.376366
-0.376393
-0.37642
-0.376448
0.821191
0.826704
0.832376
0.836944
0.840442
0.842938
0.844533
0.845146
0.844842
0.843506
0.841239
0.8379
0.833644
0.828317
0.822178
0.815063
0.807068
0.79735
0.786283
0.779307
0.796018
0.843737
0.7883
0.161646
-1.43183
-0.952111
-0.427781
-0.390536
-0.397043
-0.396679
-0.396503
-0.396555
-0.396612
-0.396661
-0.396692
-0.396723
-0.396754
-0.396786
-0.396818
-0.396848
-0.396877
-0.396904
-0.396932
-0.396956
-0.396977
-0.396993
-0.396999
-0.397008
-0.397016
-0.397018
1.23659
1.23137
1.22689
1.22529
1.22678
1.23107
1.23799
1.24743
1.25934
1.27359
1.29014
1.30884
1.3297
1.35234
1.37684
1.40137
1.42714
1.45779
1.50761
1.57788
1.56165
1.19595
0.0237775
-1.54022
-1.14986
-0.799326
-0.449707
-0.419281
-0.417648
-0.418134
-0.418404
-0.418519
-0.418587
-0.418653
-0.418716
-0.418773
-0.418823
-0.418865
-0.418899
-0.418927
-0.418949
-0.418542
-0.41913
-0.419117
-0.419115
-0.419188
-0.419044
-0.418992
-0.4189
-0.418968
-0.0107943
-0.0107942
-0.0107941
-0.010794
-0.0107939
-0.0107938
-0.0107937
-0.0107936
-0.0107935
-0.0107935
-0.0107934
-0.0107933
-0.0107932
-0.0107932
-0.0107931
-0.0107931
-0.0107931
-0.010793
-0.010793
-0.010793
-0.010793
-0.010793
-0.0107931
-0.0107931
-0.0107931
-0.0107932
-0.0107932
-0.0107933
-0.0107933
-0.0107934
-0.0107935
-0.0107936
-0.0107936
-0.0107937
-0.0107938
-0.010794
-0.0107941
-0.0107942
-0.0107943
-0.0107945
-0.0107946
-0.0107947
-0.0107949
-0.0107951
-0.0107952
-0.0107954
-0.0107956
-0.0107958
-0.010796
-0.0107963
-0.0322722
-0.0322728
-0.0322735
-0.0322741
-0.0322747
-0.0322753
-0.0322759
-0.0322765
-0.032277
-0.0322776
-0.0322781
-0.0322787
-0.0322792
-0.0322797
-0.0322802
-0.0322807
-0.0322812
-0.0322816
-0.0322821
-0.0322825
-0.032283
-0.0322834
-0.0322838
-0.0322842
-0.0322845
-0.0322849
-0.0322852
-0.0322855
-0.0322858
-0.0322861
-0.0322864
-0.0322867
-0.0322869
-0.0322871
-0.0322873
-0.0322875
-0.0322877
-0.0322878
-0.0322879
-0.0322881
-0.0322881
-0.0322882
-0.0322882
-0.0322882
-0.0322882
-0.0322882
-0.0322881
-0.0322881
-0.032288
-0.0322878
-0.0538429
-0.0538433
-0.0538437
-0.053844
-0.0538444
-0.0538448
-0.0538452
-0.0538456
-0.053846
-0.0538464
-0.0538468
-0.0538472
-0.0538477
-0.0538481
-0.0538485
-0.0538489
-0.0538493
-0.0538497
-0.0538502
-0.0538506
-0.053851
-0.0538514
-0.0538518
-0.0538522
-0.0538526
-0.053853
-0.0538534
-0.0538538
-0.0538541
-0.0538545
-0.0538549
-0.0538552
-0.0538555
-0.0538559
-0.0538562
-0.0538565
-0.0538568
-0.0538571
-0.0538573
-0.0538576
-0.0538578
-0.0538581
-0.0538583
-0.0538585
-0.0538587
-0.0538588
-0.053859
-0.0538591
-0.0538592
-0.0538593
-0.0753545
-0.0753551
-0.0753557
-0.0753563
-0.0753569
-0.0753575
-0.0753581
-0.0753587
-0.0753594
-0.07536
-0.0753606
-0.0753613
-0.0753619
-0.0753625
-0.0753632
-0.0753638
-0.0753644
-0.075365
-0.0753656
-0.0753662
-0.0753668
-0.0753674
-0.075368
-0.0753685
-0.0753691
-0.0753696
-0.0753701
-0.0753706
-0.0753711
-0.0753715
-0.075372
-0.0753724
-0.0753728
-0.0753732
-0.0753735
-0.0753738
-0.0753741
-0.0753744
-0.0753746
-0.0753749
-0.075375
-0.0753752
-0.0753753
-0.0753754
-0.0753754
-0.0753754
-0.0753754
-0.0753754
-0.0753753
-0.0753751
-0.0969142
-0.0969147
-0.0969153
-0.0969158
-0.0969164
-0.096917
-0.0969176
-0.0969182
-0.0969189
-0.0969195
-0.0969201
-0.0969208
-0.0969214
-0.0969221
-0.0969228
-0.0969234
-0.0969241
-0.0969248
-0.0969254
-0.0969261
-0.0969268
-0.0969274
-0.0969281
-0.0969287
-0.0969293
-0.09693
-0.0969306
-0.0969312
-0.0969318
-0.0969324
-0.0969329
-0.0969335
-0.096934
-0.0969345
-0.096935
-0.0969355
-0.0969359
-0.0969363
-0.0969367
-0.0969371
-0.0969374
-0.0969377
-0.096938
-0.0969382
-0.0969385
-0.0969386
-0.0969388
-0.0969389
-0.096939
-0.096939
-0.118445
-0.118446
-0.118446
-0.118447
-0.118448
-0.118449
-0.118449
-0.11845
-0.118451
-0.118452
-0.118453
-0.118454
-0.118454
-0.118455
-0.118456
-0.118457
-0.118458
-0.118459
-0.11846
-0.11846
-0.118461
-0.118462
-0.118463
-0.118464
-0.118465
-0.118465
-0.118466
-0.118467
-0.118468
-0.118468
-0.118469
-0.11847
-0.11847
-0.118471
-0.118472
-0.118472
-0.118473
-0.118473
-0.118474
-0.118474
-0.118475
-0.118475
-0.118475
-0.118476
-0.118476
-0.118476
-0.118476
-0.118476
-0.118476
-0.118476
-0.139999
-0.14
-0.140001
-0.140002
-0.140003
-0.140004
-0.140005
-0.140006
-0.140007
-0.140008
-0.140009
-0.14001
-0.140011
-0.140012
-0.140013
-0.140014
-0.140016
-0.140017
-0.140018
-0.140019
-0.14002
-0.140021
-0.140023
-0.140024
-0.140025
-0.140026
-0.140027
-0.140028
-0.140029
-0.14003
-0.140031
-0.140032
-0.140033
-0.140034
-0.140035
-0.140036
-0.140037
-0.140038
-0.140039
-0.140039
-0.14004
-0.140041
-0.140042
-0.140042
-0.140043
-0.140043
-0.140044
-0.140044
-0.140044
-0.140045
-0.161542
-0.161543
-0.161544
-0.161545
-0.161546
-0.161547
-0.161549
-0.16155
-0.161551
-0.161553
-0.161554
-0.161556
-0.161557
-0.161558
-0.16156
-0.161561
-0.161563
-0.161564
-0.161566
-0.161568
-0.161569
-0.161571
-0.161572
-0.161574
-0.161575
-0.161577
-0.161578
-0.16158
-0.161581
-0.161583
-0.161584
-0.161586
-0.161587
-0.161589
-0.16159
-0.161591
-0.161593
-0.161594
-0.161595
-0.161596
-0.161597
-0.161598
-0.161599
-0.1616
-0.161601
-0.161602
-0.161603
-0.161604
-0.161604
-0.161605
-0.183089
-0.183091
-0.183092
-0.183094
-0.183096
-0.183098
-0.1831
-0.183102
-0.183104
-0.183106
-0.183108
-0.18311
-0.183112
-0.183115
-0.183117
-0.183119
-0.183122
-0.183124
-0.183126
-0.183129
-0.183131
-0.183134
-0.183136
-0.183138
-0.183141
-0.183143
-0.183145
-0.183148
-0.18315
-0.183153
-0.183155
-0.183157
-0.18316
-0.183162
-0.183164
-0.183166
-0.183168
-0.183171
-0.183173
-0.183175
-0.183177
-0.183178
-0.18318
-0.183182
-0.183184
-0.183185
-0.183187
-0.183188
-0.183189
-0.183191
-0.204633
-0.204636
-0.204638
-0.204641
-0.204643
-0.204646
-0.204649
-0.204652
-0.204654
-0.204657
-0.20466
-0.204663
-0.204666
-0.204669
-0.204672
-0.204676
-0.204679
-0.204682
-0.204686
-0.204689
-0.204692
-0.204696
-0.204699
-0.204702
-0.204705
-0.204709
-0.204712
-0.204716
-0.204719
-0.204723
-0.204726
-0.20473
-0.204733
-0.204737
-0.20474
-0.204743
-0.204747
-0.20475
-0.204753
-0.204756
-0.20476
-0.204763
-0.204766
-0.204769
-0.204772
-0.204775
-0.204777
-0.20478
-0.204783
-0.204785
-0.226163
-0.226167
-0.226171
-0.226175
-0.226179
-0.226184
-0.226188
-0.226193
-0.226197
-0.226202
-0.226207
-0.226212
-0.226217
-0.226222
-0.226227
-0.226233
-0.226238
-0.226243
-0.226249
-0.226254
-0.22626
-0.226265
-0.226271
-0.226276
-0.226281
-0.226287
-0.226292
-0.226297
-0.226303
-0.226309
-0.226314
-0.22632
-0.226325
-0.226331
-0.226336
-0.226341
-0.226347
-0.226352
-0.226357
-0.226362
-0.226366
-0.226371
-0.226376
-0.22638
-0.226385
-0.226389
-0.226393
-0.226397
-0.226401
-0.226405
-0.247715
-0.24772
-0.247725
-0.24773
-0.247735
-0.247741
-0.247746
-0.247752
-0.247758
-0.247763
-0.247769
-0.247776
-0.247782
-0.247788
-0.247795
-0.247801
-0.247808
-0.247815
-0.247822
-0.247829
-0.247836
-0.247843
-0.247849
-0.247856
-0.247863
-0.247871
-0.247878
-0.247886
-0.247893
-0.247901
-0.24791
-0.247918
-0.247926
-0.247934
-0.247942
-0.24795
-0.247959
-0.247967
-0.247975
-0.247983
-0.247991
-0.247999
-0.248007
-0.248014
-0.248022
-0.248029
-0.248037
-0.248044
-0.248051
-0.248058
-0.269221
-0.269229
-0.269236
-0.269244
-0.269252
-0.26926
-0.269268
-0.269277
-0.269286
-0.269296
-0.269305
-0.269315
-0.269325
-0.269336
-0.269346
-0.269357
-0.269368
-0.269379
-0.269391
-0.269402
-0.269413
-0.269424
-0.269435
-0.269445
-0.269457
-0.269469
-0.269481
-0.269492
-0.269504
-0.269516
-0.269529
-0.269542
-0.269554
-0.269567
-0.269578
-0.26959
-0.269602
-0.269614
-0.269626
-0.269638
-0.269649
-0.269661
-0.269673
-0.269684
-0.269696
-0.269707
-0.269719
-0.26973
-0.269741
-0.269752
-0.290707
-0.290718
-0.290728
-0.29074
-0.290751
-0.290762
-0.290774
-0.290785
-0.290797
-0.290809
-0.290822
-0.290834
-0.290847
-0.29086
-0.290873
-0.290886
-0.2909
-0.290913
-0.290927
-0.29094
-0.290953
-0.290967
-0.29098
-0.290993
-0.291006
-0.291022
-0.291038
-0.291053
-0.291068
-0.291085
-0.291103
-0.29112
-0.291137
-0.291155
-0.291172
-0.29119
-0.291207
-0.291225
-0.291244
-0.291271
-0.291291
-0.291311
-0.291335
-0.291361
-0.291386
-0.291412
-0.291437
-0.291462
-0.291485
-0.291508
-0.31218
-0.312191
-0.312204
-0.312216
-0.31223
-0.312243
-0.312258
-0.312273
-0.312288
-0.312304
-0.31232
-0.312337
-0.312355
-0.312373
-0.312391
-0.312411
-0.31243
-0.312449
-0.312469
-0.312488
-0.312507
-0.312528
-0.312547
-0.312567
-0.312584
-0.312611
-0.312633
-0.312651
-0.312675
-0.312699
-0.312714
-0.312737
-0.312753
-0.312788
-0.31281
-0.312831
-0.312856
-0.312877
-0.312704
-0.3128
-0.312926
-0.312937
-0.312846
-0.31297
-0.313072
-0.31311
-0.313055
-0.313075
-0.31308
-0.313078
-0.33364
-0.333654
-0.333669
-0.333684
-0.333698
-0.333713
-0.333728
-0.333743
-0.333757
-0.333772
-0.333786
-0.3338
-0.333815
-0.333829
-0.333843
-0.333856
-0.333868
-0.333878
-0.333881
-0.333891
-0.333901
-0.333916
-0.333927
-0.33374
-0.334009
-0.334023
-0.333997
-0.334004
-0.334004
-0.333991
-0.333787
-0.334081
-0.33407
-0.334091
-0.334099
-0.334086
-0.333236
-0.334224
-0.333969
-0.333939
-0.333894
-0.333211
-0.334661
-0.334635
-0.334929
-0.334631
-0.334486
-0.335637
-0.33532
-0.335597
-0.354875
-0.354902
-0.35493
-0.35496
-0.354992
-0.355025
-0.35506
-0.355095
-0.355133
-0.355173
-0.355213
-0.355255
-0.3553
-0.355346
-0.35539
-0.355433
-0.355474
-0.355328
-0.355638
-0.355626
-0.355657
-0.355765
-0.355825
-0.35614
-0.356181
-0.356285
-0.356298
-0.356423
-0.355946
-0.356031
-0.356114
-0.35618
-0.356258
-0.356351
-0.356448
-0.354382
-0.356069
-0.356142
-0.356125
-0.356553
-0.356287
-0.355919
-0.355422
-0.356044
-0.356082
-0.355627
-0.357476
-0.357526
-0.357584
-0.357943
-0.376476
-0.376503
-0.376531
-0.376563
-0.376599
-0.376631
-0.37665
-0.376664
-0.376691
-0.376726
-0.37675
-0.376726
-0.37675
-0.376668
-0.376734
-0.376384
-0.376477
-0.376447
-0.376454
-0.377117
-0.37651
-0.377778
-0.377384
-0.377373
-0.37741
-0.377398
-0.377393
-0.377985
-0.377785
-0.377876
-0.377532
-0.377553
-0.376641
-0.377462
-0.377392
-0.377376
-0.37892
-0.378897
-0.378897
-0.379792
-0.378798
-0.37883
-0.378049
-0.377929
-0.378428
-0.377566
-0.380391
-0.380402
-0.380424
-0.380757
-0.39703
-0.396996
-0.396799
-0.397038
-0.397043
-0.39706
-0.397031
-0.396634
-0.397813
-0.397786
-0.397917
-0.397879
-0.396871
-0.398661
-0.398611
-0.398588
-0.39857
-0.39859
-0.398551
-0.397272
-0.400301
-0.400271
-0.400255
-0.400246
-0.40024
-0.400239
-0.400268
-0.400265
-0.398588
-0.399696
-0.399707
-0.399701
-0.401077
-0.401015
-0.400978
-0.402036
-0.401979
-0.40194
-0.401952
-0.401998
-0.402045
-0.402057
-0.40208
-0.401273
-0.401337
-0.401424
-0.401494
-0.401542
-0.401587
-0.401621
-0.41887
-0.419312
-0.419204
-0.419078
-0.420179
-0.420084
-0.420026
-0.421392
-0.421273
-0.421234
-0.421428
-0.421504
-0.420812
-0.421083
-0.421083
-0.421057
-0.42104
-0.421127
-0.421107
-0.419683
-0.422671
-0.422656
-0.422655
-0.422662
-0.422675
-0.422695
-0.422718
-0.422708
-0.422377
-0.42273
-0.422826
-0.422877
-0.422943
-0.423027
-0.42311
-0.423194
-0.423192
-0.422244
-0.422355
-0.422488
-0.422551
-0.422653
-0.422829
-0.422912
-0.422951
-0.422028
-0.424224
-0.424342
-0.424448
-0.424263
-0.0107966
-0.0107966
-0.0107966
-0.0107966
-0.0107966
-0.0107966
-0.0107966
-0.0107966
-0.0107966
-0.0107966
-0.0107966
-0.0107966
-0.0107966
-0.0107966
-0.0107966
-0.0107966
-0.0107966
-0.0107966
-0.0107966
-0.0107966
-0.0107966
-0.0107966
-0.0107966
-0.0107966
-0.0107966
-0.0107966
-0.0107966
-0.0107966
-0.0107967
-0.0107967
-0.0107967
-0.0107967
-0.0107967
-0.0107968
-0.0107968
-0.0107968
-0.0107969
-0.0107969
-0.0107969
-0.010797
-0.010797
-0.010797
-0.0107971
-0.0107971
-0.0107972
-0.0107972
-0.0107973
-0.0107973
-0.0107974
-0.0107974
-0.0107975
-0.0107975
-0.0107976
-0.0107977
-0.0107977
-0.0107978
-0.0107979
-0.0107979
-0.010798
-0.0107981
-0.0107981
-0.0107982
-0.0107983
-0.0107984
-0.0107984
-0.0107985
-0.0107986
-0.0107987
-0.0107987
-0.0107988
-0.0107989
-0.010799
-0.010799
-0.0107991
-0.0107992
-0.0107993
-0.0107993
-0.0107994
-0.0107995
-0.0107995
-0.0107996
-0.0107997
-0.0107997
-0.0107998
-0.0107999
-0.0107999
-0.0108
-0.0108
-0.0108001
-0.0108001
-0.0108002
-0.0108002
-0.0108002
-0.0108003
-0.0108003
-0.0108003
-0.0108003
-0.0108003
-0.0108003
-0.0108003
-0.0108003
-0.0108003
-0.0108003
-0.0108002
-0.0108002
-0.0108002
-0.0108001
-0.0108001
-0.0108
-0.0107999
-0.0107998
-0.0107998
-0.0107997
-0.0107995
-0.0107994
-0.0107993
-0.0107992
-0.010799
-0.0107989
-0.0107987
-0.0107985
-0.0107984
-0.0107982
-0.010798
-0.0107978
-0.0107975
-0.0107973
-0.010797
-0.0107968
-0.0107965
-0.0107962
-0.010796
-0.0107957
-0.0107954
-0.010795
-0.0107947
-0.0107944
-0.010794
-0.0107937
-0.0107933
-0.0107929
-0.0107925
-0.0107921
-0.0107917
-0.0107913
-0.0107908
-0.0107904
-0.01079
-0.0107895
-0.010789
-0.0107886
-0.0107881
-0.0107876
-0.0107871
-0.0107866
-0.0107861
-0.0107856
-0.0107851
-0.0107846
-0.0107841
-0.0107835
-0.010783
-0.0107825
-0.010782
-0.0107814
-0.0107809
-0.0107804
-0.0107799
-0.0107793
-0.0107788
-0.0107783
-0.0107778
-0.0107773
-0.0107768
-0.0107763
-0.0107758
-0.0107753
-0.0107748
-0.0107744
-0.0107739
-0.0107735
-0.0107731
-0.0107727
-0.0107723
-0.0107719
-0.0107715
-0.0107712
-0.0107709
-0.0107706
-0.0107703
-0.01077
-0.0107698
-0.0107695
-0.0107693
-0.0107692
-0.010769
-0.0107689
-0.0107688
-0.0107687
-0.0107687
-0.0107687
-0.0107687
-0.0107688
-0.0107689
-0.010769
-0.0107692
-0.0107694
-0.0107696
-0.0107699
-0.0107702
-0.0107705
-0.0107709
-0.0107713
-0.0107717
-0.0107722
-0.0107728
-0.0107734
-0.010774
-0.0107746
-0.0107753
-0.0107761
-0.0107769
-0.0107777
-0.0107786
-0.0107795
-0.0107804
-0.0107814
-0.0107825
-0.0107836
-0.0107847
-0.0107859
-0.0107871
-0.0107884
-0.0107897
-0.010791
-0.0107924
-0.0107938
-0.0107953
-0.0107968
-0.0107984
-0.0108
-0.0108016
-0.0108033
-0.010805
-0.0108068
-0.0108086
-0.0108104
-0.0108123
-0.0108142
-0.0108162
-0.0108182
-0.0108202
-0.0108223
-0.0108244
-0.0108266
-0.0108287
-0.010831
-0.0108332
-0.0108355
-0.0108378
-0.0108402
-0.0108426
-0.010845
-0.0108474
-0.0108499
-0.0108525
-0.010855
-0.0108576
-0.0108603
-0.0108629
-0.0108657
-0.0108684
-0.0108712
-0.010874
-0.0108769
-0.0108798
-0.0108827
-0.0108857
-0.0108888
-0.0108919
-0.010895
-0.0108982
-0.0109015
-0.0109048
-0.0109082
-0.0109117
-0.0109152
-0.0109188
-0.0109225
-0.0109263
-0.0109302
-0.0109341
-0.0109383
-0.0109425
-0.0109469
-0.0109516
-0.0109563
-0.0109609
-0.0109656
-0.0109703
-0.0322873
-0.032287
-0.0322867
-0.0322864
-0.0322861
-0.0322858
-0.0322855
-0.0322852
-0.0322849
-0.0322846
-0.0322842
-0.0322839
-0.0322836
-0.0322833
-0.032283
-0.0322827
-0.0322823
-0.032282
-0.0322817
-0.0322814
-0.032281
-0.0322807
-0.0322804
-0.03228
-0.0322797
-0.0322793
-0.032279
-0.0322786
-0.0322783
-0.0322779
-0.0322776
-0.0322772
-0.0322769
-0.0322765
-0.0322762
-0.0322758
-0.0322754
-0.0322751
-0.0322747
-0.0322743
-0.0322739
-0.0322736
-0.0322732
-0.0322728
-0.0322724
-0.032272
-0.0322716
-0.0322712
-0.0322708
-0.0322704
-0.03227
-0.0322696
-0.0322692
-0.0322688
-0.0322684
-0.032268
-0.0322676
-0.0322672
-0.0322668
-0.0322663
-0.0322659
-0.0322655
-0.0322651
-0.0322646
-0.0322642
-0.0322638
-0.0322633
-0.0322629
-0.0322624
-0.032262
-0.0322615
-0.0322611
-0.0322606
-0.0322602
-0.0322597
-0.0322593
-0.0322588
-0.0322584
-0.0322579
-0.0322574
-0.032257
-0.0322565
-0.032256
-0.0322556
-0.0322551
-0.0322546
-0.0322542
-0.0322537
-0.0322532
-0.0322528
-0.0322523
-0.0322518
-0.0322513
-0.0322509
-0.0322504
-0.0322499
-0.0322494
-0.032249
-0.0322485
-0.032248
-0.0322476
-0.0322471
-0.0322466
-0.0322462
-0.0322457
-0.0322453
-0.0322448
-0.0322443
-0.0322439
-0.0322434
-0.032243
-0.0322426
-0.0322421
-0.0322417
-0.0322413
-0.0322409
-0.0322404
-0.03224
-0.0322396
-0.0322392
-0.0322389
-0.0322385
-0.0322381
-0.0322378
-0.0322374
-0.0322371
-0.0322367
-0.0322364
-0.0322361
-0.0322358
-0.0322355
-0.0322352
-0.032235
-0.0322347
-0.0322345
-0.0322343
-0.0322341
-0.0322339
-0.0322337
-0.0322336
-0.0322334
-0.0322333
-0.0322332
-0.0322331
-0.0322331
-0.0322331
-0.0322331
-0.0322331
-0.0322331
-0.0322332
-0.0322333
-0.0322334
-0.0322335
-0.0322337
-0.0322339
-0.0322341
-0.0322344
-0.0322347
-0.032235
-0.0322354
-0.0322358
-0.0322362
-0.0322367
-0.0322372
-0.0322377
-0.0322383
-0.0322389
-0.0322396
-0.0322403
-0.032241
-0.0322418
-0.0322427
-0.0322436
-0.0322445
-0.0322455
-0.0322465
-0.0322476
-0.0322487
-0.0322499
-0.0322511
-0.0322524
-0.0322537
-0.0322551
-0.0322566
-0.0322581
-0.0322597
-0.0322613
-0.032263
-0.0322647
-0.0322665
-0.0322684
-0.0322703
-0.0322723
-0.0322744
-0.0322765
-0.0322787
-0.032281
-0.0322833
-0.0322857
-0.0322882
-0.0322907
-0.0322933
-0.032296
-0.0322987
-0.0323015
-0.0323044
-0.0323074
-0.0323104
-0.0323135
-0.0323167
-0.03232
-0.0323233
-0.0323267
-0.0323302
-0.0323337
-0.0323374
-0.0323411
-0.0323448
-0.0323487
-0.0323526
-0.0323566
-0.0323607
-0.0323648
-0.032369
-0.0323733
-0.0323777
-0.0323821
-0.0323866
-0.0323912
-0.0323958
-0.0324005
-0.0324053
-0.0324102
-0.0324151
-0.0324201
-0.0324251
-0.0324302
-0.0324354
-0.0324407
-0.032446
-0.0324513
-0.0324568
-0.0324623
-0.0324678
-0.0324734
-0.0324791
-0.0324848
-0.0324906
-0.0324965
-0.0325023
-0.0325083
-0.0325143
-0.0325203
-0.0325265
-0.0325326
-0.0325388
-0.0325451
-0.0325514
-0.0325578
-0.0325642
-0.0325706
-0.0325772
-0.0325837
-0.0325904
-0.032597
-0.0326038
-0.0326106
-0.0326174
-0.0326243
-0.0326313
-0.0326383
-0.0326454
-0.0326526
-0.0326598
-0.0326672
-0.0326746
-0.0326821
-0.0326896
-0.0326973
-0.0327051
-0.032713
-0.0327211
-0.0327292
-0.0327375
-0.032746
-0.0327546
-0.0327634
-0.0327724
-0.0327816
-0.0327911
-0.0328007
-0.0328106
-0.0328208
-0.0328313
-0.0328421
-0.0328532
-0.0328645
-0.0328761
-0.0328879
-0.0328996
-0.0538594
-0.0538592
-0.0538589
-0.0538587
-0.0538584
-0.0538581
-0.0538579
-0.0538576
-0.0538573
-0.053857
-0.0538567
-0.0538564
-0.0538561
-0.0538558
-0.0538555
-0.0538552
-0.0538548
-0.0538545
-0.0538542
-0.0538538
-0.0538535
-0.0538531
-0.0538528
-0.0538524
-0.0538521
-0.0538517
-0.0538513
-0.0538509
-0.0538506
-0.0538502
-0.0538498
-0.0538494
-0.053849
-0.0538486
-0.0538482
-0.0538477
-0.0538473
-0.0538469
-0.0538464
-0.053846
-0.0538456
-0.0538451
-0.0538447
-0.0538442
-0.0538438
-0.0538433
-0.0538428
-0.0538423
-0.0538418
-0.0538414
-0.0538409
-0.0538404
-0.0538399
-0.0538394
-0.0538388
-0.0538383
-0.0538378
-0.0538373
-0.0538367
-0.0538362
-0.0538356
-0.0538351
-0.0538345
-0.053834
-0.0538334
-0.0538328
-0.0538322
-0.0538316
-0.0538311
-0.0538305
-0.0538298
-0.0538292
-0.0538286
-0.053828
-0.0538274
-0.0538267
-0.0538261
-0.0538254
-0.0538248
-0.0538241
-0.0538234
-0.0538228
-0.0538221
-0.0538214
-0.0538207
-0.05382
-0.0538193
-0.0538186
-0.0538178
-0.0538171
-0.0538164
-0.0538156
-0.0538149
-0.0538141
-0.0538134
-0.0538126
-0.0538118
-0.053811
-0.0538102
-0.0538095
-0.0538087
-0.0538078
-0.053807
-0.0538062
-0.0538054
-0.0538046
-0.0538037
-0.0538029
-0.053802
-0.0538012
-0.0538003
-0.0537995
-0.0537986
-0.0537977
-0.0537969
-0.053796
-0.0537951
-0.0537943
-0.0537934
-0.0537925
-0.0537916
-0.0537908
-0.0537899
-0.053789
-0.0537882
-0.0537873
-0.0537864
-0.0537856
-0.0537847
-0.0537839
-0.0537831
-0.0537822
-0.0537814
-0.0537806
-0.0537798
-0.053779
-0.0537782
-0.0537775
-0.0537768
-0.053776
-0.0537753
-0.0537746
-0.053774
-0.0537733
-0.0537727
-0.0537721
-0.0537716
-0.053771
-0.0537705
-0.0537701
-0.0537696
-0.0537692
-0.0537688
-0.0537685
-0.0537682
-0.053768
-0.0537678
-0.0537676
-0.0537675
-0.0537675
-0.0537675
-0.0537675
-0.0537676
-0.0537678
-0.053768
-0.0537683
-0.0537686
-0.053769
-0.0537695
-0.0537701
-0.0537707
-0.0537714
-0.0537722
-0.0537731
-0.053774
-0.053775
-0.0537761
-0.0537773
-0.0537786
-0.05378
-0.0537815
-0.0537831
-0.0537847
-0.0537865
-0.0537884
-0.0537904
-0.0537925
-0.0537946
-0.053797
-0.0537994
-0.0538019
-0.0538046
-0.0538073
-0.0538102
-0.0538132
-0.0538164
-0.0538196
-0.053823
-0.0538265
-0.0538301
-0.0538339
-0.0538378
-0.0538418
-0.053846
-0.0538503
-0.0538548
-0.0538593
-0.053864
-0.0538689
-0.0538739
-0.053879
-0.0538843
-0.0538897
-0.0538952
-0.0539009
-0.0539067
-0.0539127