/*--------------------------------*- C++ -*----------------------------------*\
| =========                 |                                                 |
| \\      /  F ield         | OpenFOAM: The Open Source CFD Toolbox           |
|  \\    /   O peration     | Version:  2.4.0                                 |
|   \\  /    A nd           | Web:      www.OpenFOAM.org                      |
|    \\/     M anipulation  |                                                 |
\*---------------------------------------------------------------------------*/
FoamFile
{
    version     2.0;
    format      ascii;
    class       volScalarField;
    location    "1.1";
    object      p;
}
// * * * * * * * * * * * * * * * * * * * * * * * * * * * * * * * * * * * * * //

dimensions      [1 -1 -2 0 0 0 0];

internalField   nonuniform List<scalar> 
125
(
-0.0577192
-0.0577192
-0.0577192
-0.0577192
-0.0577192
-0.0588538
-0.0588538
-0.0588538
-0.0588538
-0.0588538
-0.0600011
-0.0600011
-0.0600011
-0.0600011
-0.0600011
-0.0611611
-0.0611611
-0.0611611
-0.0611611
-0.0611611
-0.0623342
-0.0623342
-0.0623342
-0.0623342
-0.0623342
-0.0635203
-0.0635203
-0.0635203
-0.0635203
-0.0635203
-0.0647196
-0.0647196
-0.0647196
-0.0647196
-0.0647196
-0.0659323
-0.0659323
-0.0659323
-0.0659323
-0.0659323
-0.0671586
-0.0671586
-0.0671586
-0.0671586
-0.0671586
-0.0683985
-0.0683985
-0.0683985
-0.0683985
-0.0683985
-0.0696523
-0.0696523
-0.0696523
-0.0696523
-0.0696523
-0.0709201
-0.0709201
-0.0709201
-0.0709201
-0.0709201
-0.072202
-0.072202
-0.072202
-0.072202
-0.072202
-0.0734982
-0.0734982
-0.0734982
-0.0734982
-0.0734982
-0.0748089
-0.0748089
-0.0748089
-0.0748089
-0.0748089
-0.0761342
-0.0761342
-0.0761342
-0.0761342
-0.0761342
-0.0774743
-0.0774743
-0.0774743
-0.0774743
-0.0774743
-0.0788293
-0.0788293
-0.0788293
-0.0788293
-0.0788293
-0.0801995
-0.0801995
-0.0801995
-0.0801995
-0.0801995
-0.081585
-0.081585
-0.081585
-0.081585
-0.081585
-0.0829859
-0.0829859
-0.0829859
-0.0829859
-0.0829859
-0.0844025
-0.0844025
-0.0844025
-0.0844025
-0.0844025
-0.0858348
-0.0858348
-0.0858348
-0.0858348
-0.0858348
-0.0872832
-0.0872832
-0.0872832
-0.0872832
-0.0872832
-0.0887477
-0.0887477
-0.0887477
-0.0887477
-0.0887477
)
;

boundaryField
{
    BotWall
    {
        type            calculated;
        value           nonuniform 0();
    }
    FreeStream
    {
        type            calculated;
        value           nonuniform List<scalar> 5(-0.089484 -0.089484 -0.089484 -0.089484 -0.089484);
    }
    FrontNBack
    {
        type            empty;
    }
    LeftSide
    {
        type            symmetryPlane;
    }
    RightSide
    {
        type            symmetryPlane;
    }
    procBoundary3to2
    {
        type            processor;
        value           nonuniform List<scalar> 5(-0.0565971 -0.0565971 -0.0565971 -0.0565971 -0.0565971);
    }
}


// ************************************************************************* //
