/*--------------------------------*- C++ -*----------------------------------*\
| =========                 |                                                 |
| \\      /  F ield         | OpenFOAM: The Open Source CFD Toolbox           |
|  \\    /   O peration     | Version:  2.4.0                                 |
|   \\  /    A nd           | Web:      www.OpenFOAM.org                      |
|    \\/     M anipulation  |                                                 |
\*---------------------------------------------------------------------------*/
FoamFile
{
    version     2.0;
    format      ascii;
    class       volScalarField;
    location    "0.2";
    object      alpha1;
}
// * * * * * * * * * * * * * * * * * * * * * * * * * * * * * * * * * * * * * //

dimensions      [0 0 0 0 0 0 0];

internalField   nonuniform List<scalar> 
1000
(
0.0143505
0.973547
0.0160252
0.988923
0.0160253
0.973547
0.0143505
0.0511642
0.996368
0.0511642
4.75748e-08
1.6065e-06
0.00258654
0.168801
0.00258653
1.60651e-06
4.75744e-08
0.00578597
0.983243
0.00578597
1.84471e-11
3.41222e-10
3.02206e-09
2.27205e-07
3.02205e-09
3.41228e-10
1.84401e-11
2.79888e-10
6.04946e-10
2.80293e-10
7.67549e-43
2.65329e-41
3.01246e-40
1.31106e-38
3.01239e-40
2.65329e-41
7.67541e-43
1.3389e-50
8.28982e-54
5.49076e-50
2.07721e-47
7.56979e-46
9.22388e-45
4.77194e-43
9.2234e-45
7.56968e-46
2.07717e-47
5.47325e-55
4.00349e-59
2.22545e-54
7.52193e-51
2.90535e-49
3.8395e-48
2.36421e-46
3.83917e-48
2.90524e-49
7.52175e-51
9.45304e-58
4.48326e-65
1.55703e-57
2.20376e-53
9.03593e-52
1.30288e-50
9.51124e-49
1.30271e-50
9.03538e-52
2.20372e-53
1.08584e-59
7.10739e-67
1.18282e-59
2.19466e-55
9.57461e-54
1.51094e-52
1.29917e-50
1.51066e-52
9.57377e-54
2.19465e-55
3.07176e-61
3.30065e-68
2.92764e-61
4.69116e-57
2.19686e-55
3.80823e-54
3.83088e-52
3.80728e-54
2.1966e-55
4.69121e-57
1.90048e-62
2.523e-69
1.71905e-62
1.62758e-58
8.34398e-57
1.60178e-55
1.87368e-53
1.60126e-55
8.34264e-57
1.62759e-58
1.7201e-63
1.9603e-70
1.57839e-63
7.60456e-60
4.40426e-58
9.50854e-57
1.28565e-54
9.5047e-57
4.40328e-58
7.60426e-60
1.42862e-64
1.31317e-71
1.3314e-64
4.21052e-61
2.87789e-59
7.16747e-58
1.11304e-55
7.16399e-58
2.87698e-59
4.20995e-61
1.14587e-65
7.97328e-73
1.07965e-65
2.50693e-62
2.14625e-60
6.4106e-59
1.13548e-56
6.40696e-59
2.14524e-60
2.50618e-62
1.00987e-66
4.32766e-74
9.69184e-67
1.46207e-63
1.71212e-61
6.50191e-60
1.30419e-57
6.49772e-60
1.71088e-61
1.46131e-63
1.06255e-67
1.9987e-75
1.03805e-67
7.2937e-65
1.37042e-62
7.24482e-61
1.63398e-58
7.23965e-61
1.36882e-62
7.28873e-65
7.34972e-69
7.07786e-77
7.21306e-69
2.17093e-66
1.01364e-63
8.66436e-62
2.18256e-59
8.65767e-62
1.0115e-63
2.17166e-66
2.9191e-70
1.44869e-78
2.85464e-70
1.45492e-68
6.78964e-65
1.092e-62
3.05523e-60
1.09111e-62
6.75972e-65
1.49605e-68
7.0846e-72
5.56898e-84
6.83156e-72
1.147e-70
5.23983e-66
1.43068e-63
4.42284e-61
1.42947e-63
5.20076e-66
1.5696e-70
6.15665e-73
6.14609e-85
6.08716e-73
2.37437e-72
5.03264e-67
1.92887e-64
6.55134e-62
1.9272e-64
4.98369e-67
5.39976e-72
1.74864e-73
6.55801e-86
1.75392e-73
6.09211e-74
7.66906e-68
2.65225e-65
9.84379e-63
2.64993e-65
7.59351e-68
2.67227e-73
5.1783e-74
6.76271e-87
5.20795e-74
1.14285e-76
1.47771e-68
3.69202e-66
1.48955e-63
3.68882e-66
1.46338e-68
3.55309e-75
1.50457e-74
6.7391e-88
1.51409e-74
3.30889e-77
3.00078e-69
5.17104e-67
2.256e-64
5.16664e-67
2.97163e-69
3.26853e-77
4.26966e-75
6.49163e-89
4.29682e-75
9.34941e-78
5.96264e-70
7.24952e-68
3.40187e-65
7.24354e-68
5.90481e-70
9.23631e-78
1.18186e-75
6.05012e-90
1.18937e-75
2.57235e-78
1.15931e-70
1.01288e-68
5.08389e-66
1.01208e-68
1.14809e-70
2.54161e-78
3.18906e-76
5.4647e-91
3.20931e-76
6.88528e-79
2.20526e-71
1.40509e-69
7.49925e-67
1.40403e-69
2.18396e-71
6.80459e-79
8.38379e-77
4.79709e-92
8.43701e-77
1.79158e-79
4.10318e-72
1.92903e-70
1.08801e-67
1.92767e-70
4.06365e-72
1.77108e-79
2.14611e-77
4.11022e-93
2.15973e-77
4.52943e-80
7.46514e-73
2.61356e-71
1.54759e-68
2.61183e-71
7.39343e-73
4.47858e-80
5.34624e-78
3.45872e-94
5.38018e-78
1.112e-80
1.32751e-73
3.4855e-72
2.15205e-69
3.48337e-72
1.3148e-73
1.09969e-80
1.29533e-78
2.88224e-95
1.30355e-78
2.6492e-81
2.30629e-74
4.56466e-73
2.91819e-70
4.5621e-73
2.28429e-74
2.62023e-81
3.0507e-79
2.40251e-96
3.07006e-79
6.11849e-82
3.91233e-75
5.85716e-74
3.84981e-71
5.85417e-74
3.87515e-75
6.05289e-82
6.97996e-80
2.02416e-97
7.02425e-80
1.36811e-82
6.47657e-76
7.34785e-75
4.93092e-72
7.34446e-75
6.41526e-76
1.35389e-82
1.55058e-80
1.73824e-98
1.56041e-80
2.95748e-83
1.0456e-76
8.99313e-76
6.12015e-73
8.98942e-76
1.03574e-76
2.92785e-83
3.3425e-81
1.52716e-99
3.36368e-81
6.17409e-84
1.64514e-77
1.07162e-76
7.34861e-74
1.07123e-76
1.62969e-77
6.1144e-84
6.9877e-82
1.3698e-100
7.03189e-82
1.24429e-84
2.52084e-78
1.24072e-77
8.52287e-75
1.24032e-77
2.49725e-78
1.2326e-84
1.41585e-82
1.24579e-101
1.42477e-82
2.42081e-85
3.7589e-79
1.39306e-78
9.53443e-76
1.39266e-78
3.72387e-79
2.39859e-85
2.77866e-83
1.13835e-102
2.79609e-83
4.54605e-86
5.45018e-80
1.51398e-79
1.02748e-76
1.51361e-79
5.39958e-80
4.50513e-86
5.27844e-84
1.05012e-103
5.31131e-84
8.23792e-87
7.67784e-81
1.58994e-80
1.06541e-77
1.58959e-80
7.60685e-81
8.16497e-87
9.69896e-85
9.57057e-105
9.75884e-85
1.43987e-87
1.04997e-81
1.61089e-81
1.06183e-78
1.61058e-81
1.04031e-81
1.42733e-87
1.72261e-85
8.51273e-106
1.73314e-85
2.42626e-88
1.39267e-82
1.57248e-82
1.01614e-79
1.57219e-82
1.37992e-82
2.40558e-88
2.95513e-86
7.38301e-107
2.97296e-86
3.93938e-89
1.79003e-83
1.47719e-83
9.32876e-81
1.47693e-83
1.77374e-83
3.90658e-89
4.89293e-87
6.21929e-108
4.922e-87
6.15933e-90
2.22747e-84
1.33429e-84
8.20934e-82
1.33403e-84
2.20735e-84
6.10927e-90
7.81319e-88
5.07646e-109
7.85884e-88
9.26777e-91
2.68098e-85
1.15827e-85
6.91968e-83
1.158e-85
2.65699e-85
9.19428e-91
1.20231e-88
4.00963e-110
1.2092e-88
1.34109e-91
3.11806e-86
9.66224e-87
5.58306e-84
9.65942e-87
3.09046e-86
1.33072e-91
1.78147e-89
3.05967e-111
1.79146e-89
1.86495e-92
3.50073e-87
7.74932e-88
4.30943e-85
7.74628e-88
3.47013e-87
1.85092e-92
2.53959e-90
2.25395e-112
2.55348e-90
2.49048e-93
3.79036e-88
5.98218e-89
3.18061e-86
5.97894e-89
3.75772e-88
2.47225e-93
3.48018e-91
1.60247e-113
3.49872e-91
3.1913e-94
3.95379e-89
4.45363e-90
2.24365e-87
4.45027e-90
3.9203e-89
3.16859e-94
4.58061e-92
1.09912e-114
4.60431e-92
3.92072e-95
3.96931e-90
3.20689e-91
1.5121e-88
3.20354e-91
3.93632e-90
3.89364e-95
5.78564e-93
7.26897e-116
5.81464e-93
4.61442e-96
3.83129e-91
2.24211e-92
9.73271e-90
2.23892e-92
3.80007e-91
4.58358e-96
7.00651e-94
4.63271e-117
7.04042e-94
5.19827e-97
3.55187e-92
1.52933e-93
5.98086e-91
1.52643e-93
3.52355e-92
5.16474e-97
8.12804e-95
2.84329e-118
8.16592e-95
5.60035e-98
3.15943e-93
1.02296e-94
3.5077e-92
1.02045e-94
3.13481e-93
5.56557e-98
9.02423e-96
1.67907e-119
9.06459e-96
5.76504e-99
2.69376e-94
6.74243e-96
1.96273e-93
6.72177e-96
2.67328e-94
5.73069e-99
9.58026e-97
9.53606e-121
9.62123e-97
5.66541e-100
2.1992e-95
4.39363e-97
1.04743e-94
4.37743e-97
2.18291e-95
5.63317e-100
9.71599e-98
5.21041e-122
9.75557e-98
5.31023e-101
1.71747e-96
2.83329e-98
5.32921e-96
2.82121e-98
1.70509e-96
5.28151e-101
9.40454e-99
2.74228e-123
9.44089e-99
4.7431e-102
1.28174e-97
1.80478e-99
2.58419e-97
1.79621e-99
1.27276e-97
4.71876e-102
8.68015e-100
1.39248e-124
8.71186e-100
4.03353e-103
9.13201e-99
1.13075e-100
1.19395e-98
1.12496e-100
9.06999e-99
4.01395e-103
7.63232e-101
6.82913e-126
7.65857e-101
3.26285e-104
6.20543e-100
6.92803e-102
5.25486e-100
6.89098e-102
6.16459e-100
3.24791e-104
6.38749e-102
3.23391e-127
6.40812e-102
2.50854e-105
4.01798e-101
4.12531e-103
2.203e-101
4.10273e-103
3.99237e-101
2.49771e-105
5.08349e-103
1.47622e-128
5.09885e-103
1.83141e-106
2.47676e-102
2.37336e-104
8.79758e-103
2.36027e-104
2.46147e-102
1.82396e-106
3.84392e-104
6.48247e-130
3.85478e-104
1.26862e-107
1.45221e-103
1.31262e-105
3.34707e-104
1.30541e-105
1.44351e-103
1.26376e-107
2.75932e-105
2.73581e-131
2.76661e-105
8.33123e-109
8.09276e-105
6.95047e-107
1.21345e-105
6.91265e-107
8.04561e-105
8.30116e-109
1.87886e-106
1.11068e-132
1.8835e-106
5.18291e-110
4.28313e-106
3.51235e-108
4.19344e-107
3.49348e-108
4.25879e-106
5.16534e-110
1.21257e-107
4.34559e-134
1.21536e-107
3.05195e-111
2.15137e-107
1.68971e-109
1.38179e-108
1.68077e-109
2.13942e-107
3.04229e-111
7.41129e-109
1.63927e-135
7.42695e-109
1.69963e-112
1.0248e-108
7.72331e-111
4.34238e-110
7.68326e-111
1.01925e-108
1.69468e-112
4.28641e-110
5.94679e-137
4.29459e-110
8.94387e-114
4.62595e-110
3.3486e-112
1.30166e-111
3.33173e-112
4.60169e-110
8.92042e-114
2.34384e-111
2.06599e-138
2.34774e-111
4.44318e-115
1.97707e-111
1.3752e-113
3.72221e-113
1.36856e-113
1.96714e-111
4.43298e-115
1.21059e-112
6.85752e-140
1.21226e-112
2.08197e-116
7.99314e-113
5.34261e-115
1.01495e-114
5.31815e-115
7.95507e-113
2.07793e-116
5.90069e-114
2.17786e-141
5.90699e-114
9.19418e-118
3.05438e-114
1.96134e-116
2.63416e-116
1.95291e-116
3.04071e-114
9.17971e-118
2.71194e-115
6.63651e-143
2.71395e-115
3.82374e-119
1.10239e-115
6.79807e-118
6.49117e-118
6.7708e-118
1.09778e-115
3.81917e-119
1.17435e-116
1.93862e-144
1.17483e-116
1.49664e-120
3.75578e-117
2.22304e-119
1.51584e-119
2.21477e-119
3.74117e-117
1.49542e-120
4.78809e-118
5.3984e-146
4.78846e-118
5.50986e-122
1.2072e-118
6.85446e-121
3.35118e-121
6.83095e-121
1.20285e-118
5.50739e-122
1.83695e-119
1.42765e-147
1.8365e-119
1.9069e-123
3.65904e-120
1.9918e-122
7.01753e-123
1.98551e-122
3.64689e-120
1.90671e-123
6.62759e-121
3.60239e-149
6.62398e-121
6.20157e-125
1.04547e-121
5.4525e-124
1.39386e-124
5.43656e-124
1.04224e-121
6.20279e-125
2.2477e-122
8.76126e-151
2.2459e-122
1.89469e-126
2.81522e-123
1.4058e-125
2.62806e-126
1.40193e-125
2.80702e-123
1.89552e-126
7.16309e-124
2.05759e-152
7.15594e-124
5.43723e-128
7.14411e-125
3.41359e-127
4.70065e-128
3.40454e-127
7.12405e-125
5.44076e-128
2.14474e-125
4.60074e-154
2.14226e-125
1.46559e-129
1.70867e-126
7.8073e-129
7.96148e-130
7.78737e-129
1.70404e-126
1.46689e-129
6.03344e-127
9.60393e-156
6.02536e-127
3.71078e-131
3.85228e-128
1.68219e-130
1.27418e-131
1.67824e-130
3.84262e-128
3.71533e-131
1.59478e-128
1.86273e-157
1.59219e-128
8.82581e-133
8.18857e-130
3.4153e-132
1.92503e-133
3.40843e-132
8.17081e-130
8.84049e-133
3.96078e-130
3.41537e-159
3.95282e-130
1.97175e-134
1.64137e-131
6.53512e-134
2.74891e-135
6.52426e-134
1.63838e-131
1.97591e-134
9.24084e-132
6.03578e-161
9.21866e-132
4.13551e-136
3.10149e-133
1.17822e-135
3.7186e-137
1.17668e-135
3.09694e-133
4.14603e-136
2.0241e-133
1.03527e-162
2.01845e-133
8.13582e-138
5.51891e-135
1.99955e-137
4.76609e-139
1.99763e-137
5.51276e-135
8.15993e-138
4.1583e-135
1.69183e-164
4.14508e-135
1.50105e-139
9.24628e-137
3.19387e-139
5.77818e-141
3.19193e-139
9.23926e-137
1.50612e-139
8.01035e-137
2.55105e-166
7.98177e-137
2.59805e-141
1.45901e-138
4.80359e-141
6.61146e-143
4.80238e-141
1.45842e-138
2.60789e-141
1.4472e-138
3.50537e-168
1.44148e-138
4.22141e-143
2.16987e-140
6.80815e-143
7.1456e-145
6.80883e-143
2.16978e-140
4.23914e-143
2.4536e-140
4.42141e-170
2.44295e-140
6.44668e-145
3.04541e-142
9.10555e-145
7.30308e-147
9.10963e-145
3.04637e-142
6.47647e-145
3.90785e-142
5.13907e-172
3.88942e-142
9.26377e-147
4.03958e-144
1.15103e-146
7.05147e-149
1.15195e-146
4.04228e-144
9.31068e-147
5.85325e-144
5.51379e-174
5.82347e-144
1.25251e-148
5.06492e-146
1.37561e-148
6.42002e-151
1.37718e-148
5.0701e-146
1.25942e-148
8.24316e-146
5.46176e-176
8.19818e-146
1.59139e-150
5.99386e-148
1.55225e-150
5.50512e-153
1.55457e-150
6.00214e-148
1.60093e-150
1.08997e-147
4.98791e-178
1.08363e-147
1.90119e-152
6.69894e-150
1.65514e-152
4.44562e-155
1.65819e-152
6.71057e-150
1.91356e-152
1.35379e-149
4.18608e-180
1.34543e-149
2.13725e-154
7.0756e-152
1.66914e-154
3.38104e-157
1.6728e-154
7.09039e-152
2.15209e-154
1.58026e-151
3.20999e-182
1.56994e-151
2.26249e-156
7.06803e-154
1.59351e-156
2.42591e-159
1.59757e-156
7.08528e-154
2.27909e-156
1.73462e-153
2.22517e-184
1.7227e-153
2.25706e-158
6.68279e-156
1.44172e-158
1.66476e-161
1.4459e-158
6.70141e-156
2.27435e-158
1.79176e-155
1.36571e-186
1.77885e-155
2.12361e-160
5.98565e-158
1.23759e-160
1.17092e-163
1.24161e-160
6.00436e-158
2.14054e-160
1.74296e-157
7.12747e-189
1.72984e-157
1.88653e-162
5.08323e-160
1.0092e-162
1.09637e-165
1.01283e-162
5.10082e-160
1.90214e-162
1.59806e-159
2.90811e-191
1.58553e-159
1.58428e-164
4.09658e-162
7.82811e-165
1.83801e-167
7.85894e-165
4.1121e-162
1.59786e-164
1.38229e-161
7.93379e-194
1.37102e-161
1.25932e-166
3.13565e-164
5.78391e-167
3.89567e-169
5.80891e-167
3.14868e-164
1.27053e-166
1.12916e-163
1.44642e-196
1.11955e-163
9.48817e-169
2.28159e-166
4.07694e-169
6.62717e-171
4.09673e-169
2.29223e-166
9.57715e-169
8.72103e-166
1.73747e-199
8.64252e-166
6.78131e-171
1.57892e-168
2.74483e-171
7.63225e-173
2.76029e-171
1.58748e-168
6.84969e-171
6.3721e-168
5.16673e-203
6.3101e-168
4.56876e-173
1.03346e-170
1.75655e-173
6.98496e-175
1.76737e-173
1.0396e-170
4.61697e-173
4.37401e-170
5.11702e-209
4.32931e-170
2.76593e-175
6.12004e-173
1.02282e-175
5.04482e-177
1.02945e-175
6.15822e-173
2.79586e-175
2.6895e-172
2.8424e-216
2.66123e-172
1.20672e-177
2.60259e-175
4.37292e-178
2.27511e-179
4.40214e-178
2.61933e-175
1.21998e-177
1.17001e-174
1.18587e-219
1.1575e-174
)
;

boundaryField
{
    BotWall
    {
        type            constantAlphaContactAngle;
        gradient        nonuniform List<scalar> 10(3992.33 7.36271 66.6862 0.000717968 66.6858 7.36282 3992.33 4250.56 2.17673 4250.56);
        limit           gradient;
        theta0          30;
        value           nonuniform List<scalar> 10(0.0281813 0.973572 0.0162563 0.988923 0.0162563 0.973572 0.0281813 0.0658896 0.996375 0.0658896);
    }
    FreeStream
    {
        type            inletOutlet;
        inletValue      uniform 0;
        value           uniform 0;
    }
    FrontNBack
    {
        type            empty;
    }
    LeftSide
    {
        type            cyclic;
    }
    RightSide
    {
        type            cyclic;
    }
}


// ************************************************************************* //
