/*--------------------------------*- C++ -*----------------------------------*\
| =========                 |                                                 |
| \\      /  F ield         | OpenFOAM: The Open Source CFD Toolbox           |
|  \\    /   O peration     | Version:  2.4.0                                 |
|   \\  /    A nd           | Web:      www.OpenFOAM.org                      |
|    \\/     M anipulation  |                                                 |
\*---------------------------------------------------------------------------*/
FoamFile
{
    version     2.0;
    format      ascii;
    class       volScalarField;
    location    "0.2";
    object      H;
}
// * * * * * * * * * * * * * * * * * * * * * * * * * * * * * * * * * * * * * //

dimensions      [0 2 -2 0 0 0 0];

internalField   nonuniform List<scalar> 
1000
(
-2263.25
-7575.31
-2089.04
-10206.6
-2089.04
-7575.34
-2263.26
-1304.97
-8772.5
-1304.97
-1874.3
-5453.95
-2251.04
-9816.57
-2251.02
-5453.99
-1874.33
-1222.71
-3204.98
-1222.71
-1790.53
-4961.63
-2064.35
-7092.82
-2064.32
-4961.73
-1790.57
-1067.43
-2321.98
-1067.43
-1703.01
-4526.95
-1964.21
-6633.24
-1964.17
-4527.09
-1703.07
-1013.25
-2143.75
-1013.25
-1613.77
-4139.94
-1856.77
-6194.71
-1856.71
-4140.13
-1613.85
-960.368
-1977.9
-960.376
-1524.38
-3793.03
-1746.45
-5778.29
-1746.39
-3793.27
-1524.47
-908.921
-1823.6
-908.93
-1436.01
-3480.25
-1636.45
-5384.49
-1636.38
-3480.53
-1436.11
-859.018
-1680.08
-859.028
-1349.52
-3196.85
-1528.95
-5013.3
-1528.88
-3197.16
-1349.63
-810.744
-1546.64
-810.756
-1265.54
-2938.98
-1425.41
-4664.35
-1425.33
-2939.31
-1265.65
-764.165
-1422.63
-764.178
-1184.52
-2703.51
-1326.71
-4337.01
-1326.63
-2703.86
-1184.64
-719.329
-1307.44
-719.343
-1106.78
-2487.84
-1233.36
-4030.43
-1233.28
-2488.21
-1106.91
-676.269
-1200.52
-676.284
-1032.52
-2289.8
-1145.56
-3743.65
-1145.48
-2290.19
-1032.65
-635.007
-1101.34
-635.022
-961.855
-2107.56
-1063.32
-3475.66
-1063.24
-2107.96
-961.982
-595.548
-1009.43
-595.564
-894.836
-1939.57
-986.519
-3225.38
-986.446
-1939.96
-894.96
-557.888
-924.323
-557.904
-831.467
-1784.47
-914.957
-2991.76
-914.888
-1784.86
-831.589
-522.012
-845.602
-522.029
-771.714
-1641.09
-848.38
-2773.77
-848.315
-1641.47
-771.832
-487.897
-772.864
-487.913
-715.512
-1508.42
-786.51
-2570.4
-786.449
-1508.79
-715.624
-455.511
-705.73
-455.527
-662.753
-1385.64
-729.005
-2380.72
-728.949
-1385.99
-662.86
-424.819
-643.842
-424.835
-613.262
-1272.08
-675.509
-2203.81
-675.457
-1272.42
-613.363
-395.779
-586.857
-395.795
-566.877
-1167.12
-625.712
-2038.87
-625.665
-1167.44
-566.971
-368.343
-534.451
-368.358
-523.442
-1070.18
-579.341
-1885.09
-579.297
-1070.47
-523.529
-342.461
-486.315
-342.476
-482.813
-980.691
-536.149
-1741.76
-536.11
-980.961
-482.893
-318.079
-442.155
-318.094
-444.852
-898.143
-495.917
-1608.21
-495.882
-898.39
-444.925
-295.142
-401.691
-295.156
-409.425
-822.043
-458.448
-1483.83
-458.415
-822.267
-409.491
-273.591
-364.655
-273.605
-376.405
-751.932
-423.559
-1368.02
-423.529
-752.133
-376.465
-253.368
-330.795
-253.381
-345.668
-687.378
-391.084
-1260.27
-391.057
-687.558
-345.721
-234.413
-299.872
-234.426
-317.092
-627.98
-360.87
-1160.06
-360.845
-628.138
-317.139
-216.67
-271.66
-216.682
-290.561
-573.358
-332.774
-1066.95
-332.751
-573.498
-290.602
-200.078
-245.945
-200.09
-265.961
-523.162
-306.662
-980.479
-306.642
-523.283
-265.997
-184.582
-222.527
-184.593
-243.182
-477.061
-282.411
-900.256
-282.392
-477.165
-243.213
-170.124
-201.219
-170.135
-222.118
-434.748
-259.901
-825.888
-259.884
-434.838
-222.144
-156.651
-181.845
-156.661
-202.664
-395.937
-239.023
-757.014
-239.007
-396.013
-202.686
-144.108
-164.244
-144.118
-184.722
-360.362
-219.672
-693.287
-219.657
-360.426
-184.74
-132.445
-148.263
-132.454
-168.196
-327.773
-201.748
-634.38
-201.734
-327.826
-168.211
-121.61
-133.762
-121.619
-152.994
-297.94
-185.159
-579.984
-185.146
-297.983
-153.005
-111.557
-120.614
-111.565
-139.026
-270.647
-169.816
-529.804
-169.804
-270.682
-139.036
-102.238
-108.697
-102.246
-126.211
-245.695
-155.636
-483.558
-155.625
-245.724
-126.218
-93.6093
-97.9033
-93.6168
-114.465
-222.899
-142.54
-440.982
-142.53
-222.921
-114.471
-85.628
-88.1319
-85.635
-103.715
-202.087
-130.455
-401.822
-130.445
-202.104
-103.718
-78.2535
-79.2907
-78.2601
-93.8857
-183.098
-119.309
-365.84
-119.3
-183.11
-93.8882
-71.4469
-71.2955
-71.4531
-84.9101
-165.784
-109.037
-332.809
-109.028
-165.793
-84.9115
-65.1711
-64.0691
-65.1769
-76.723
-150.01
-99.5774
-302.516
-99.5697
-150.016
-76.7235
-59.3909
-57.5412
-59.3963
-69.2635
-135.647
-90.8722
-274.759
-90.8651
-135.651
-69.2633
-54.0727
-51.6474
-54.0777
-62.4743
-122.579
-82.8668
-249.349
-82.8602
-122.58
-62.4736
-49.1847
-46.3292
-49.1895
-56.302
-110.697
-75.5102
-226.107
-75.5041
-110.697
-56.3008
-44.697
-41.5332
-44.7014
-50.6961
-99.9
-68.7545
-204.866
-68.7489
-99.8988
-50.6947
-40.5809
-37.2105
-40.585
-45.6101
-90.0967
-62.5551
-185.472
-62.55
-90.0945
-45.6084
-36.8097
-33.3168
-36.8135
-41.0003
-81.2013
-56.8704
-167.778
-56.8657
-81.1985
-40.9984
-33.3581
-29.8116
-33.3615
-36.8261
-73.1353
-51.6614
-151.648
-51.6571
-73.132
-36.8242
-30.2021
-26.6582
-30.2053
-33.0502
-65.8264
-46.8918
-136.957
-46.8878
-65.8227
-33.0481
-27.3194
-23.823
-27.3224
-29.6375
-59.2079
-42.5278
-123.587
-42.5242
-59.204
-29.6355
-24.689
-21.2754
-24.6918
-26.5561
-53.2186
-38.538
-111.428
-38.5347
-53.2147
-26.5541
-22.2913
-18.9879
-22.2939
-23.7763
-47.8025
-34.893
-100.382
-34.89
-47.7986
-23.7743
-20.1079
-16.9352
-20.1102
-21.2707
-42.908
-31.5657
-90.3527
-31.563
-42.904
-21.2688
-18.1215
-15.0943
-18.1236
-19.0143
-38.4877
-28.5307
-81.2556
-28.5283
-38.4839
-19.0125
-16.3162
-13.4446
-16.3182
-16.984
-34.4985
-25.7647
-73.0106
-25.7625
-34.4948
-16.9822
-14.6772
-11.967
-14.6789
-15.1587
-30.9007
-23.2458
-65.5442
-23.2438
-30.8972
-15.157
-13.1904
-10.6446
-13.1921
-13.5189
-27.6581
-20.9539
-58.7887
-20.9521
-27.6547
-13.5173
-11.8432
-9.46174
-11.8447
-12.0471
-24.7376
-18.8702
-52.6817
-18.8686
-24.7345
-12.0456
-10.6236
-8.40446
-10.625
-10.7271
-22.109
-16.9775
-47.1657
-16.976
-22.1061
-10.7257
-9.52053
-7.46003
-9.52178
-9.5441
-19.7448
-15.2597
-42.1879
-15.2584
-19.742
-9.54282
-8.52388
-6.61696
-8.52501
-8.48475
-17.6197
-13.7021
-37.6999
-13.7009
-17.6172
-8.48356
-7.62421
-5.86485
-7.62525
-7.53683
-15.711
-12.2909
-33.6571
-12.2898
-15.7086
-7.53574
-6.81287
-5.19435
-6.81381
-6.68927
-13.9977
-11.0136
-30.0186
-11.0126
-13.9955
-6.68826
-6.08189
-4.59697
-6.08274
-5.932
-12.461
-9.85845
-26.747
-9.85762
-12.459
-5.93108
-5.42392
-4.06511
-5.42469
-5.25591
-11.0836
-8.81481
-23.8081
-8.81407
-11.0818
-5.25506
-4.83223
-3.59187
-4.83293
-4.65273
-9.84989
-7.87278
-21.1704
-7.87211
-9.8482
-4.65196
-4.30064
-3.17108
-4.30128
-4.115
-8.74563
-7.02325
-18.8054
-7.02266
-8.74409
-4.11429
-3.82351
-2.79718
-3.82408
-3.63596
-7.75796
-6.25789
-16.6867
-6.25736
-7.75656
-3.63532
-3.39565
-2.46514
-3.39616
-3.20952
-6.87522
-5.56901
-14.7906
-5.56854
-6.87395
-3.20894
-3.01233
-2.1705
-3.01279
-2.83018
-6.08684
-4.94958
-13.0953
-4.94916
-6.08569
-2.82965
-2.66923
-1.9092
-2.66965
-2.49298
-5.38325
-4.39314
-11.5809
-4.39278
-5.3822
-2.4925
-2.36243
-1.67762
-2.3628
-2.19345
-4.75579
-3.8938
-10.2295
-3.89347
-4.75485
-2.19303
-2.08833
-1.47254
-2.08867
-1.92759
-4.19665
-3.44613
-9.02458
-3.44584
-4.1958
-1.92721
-1.84368
-1.29103
-1.84398
-1.69178
-3.69876
-3.04521
-7.95133
-3.04495
-3.698
-1.69144
-1.62551
-1.13051
-1.62578
-1.48278
-3.25576
-2.68651
-6.99627
-2.68629
-3.25508
-1.48248
-1.43115
-0.988635
-1.43139
-1.29769
-2.86188
-2.36593
-6.14718
-2.36573
-2.86128
-1.29741
-1.25814
-0.863338
-1.25835
-1.13388
-2.51196
-2.07972
-5.39301
-2.07954
-2.51142
-1.13364
-1.10429
-0.752759
-1.10448
-0.989034
-2.20133
-1.82446
-4.72376
-1.82431
-2.20085
-0.98882
-0.967597
-0.65524
-0.967767
-0.861047
-1.92578
-1.59706
-4.13041
-1.59692
-1.92535
-0.860858
-0.846263
-0.569304
-0.846413
-0.748051
-1.68154
-1.39469
-3.60483
-1.39458
-1.68117
-0.747884
-0.738658
-0.493632
-0.73879
-0.648372
-1.46523
-1.21481
-3.13968
-1.21471
-1.46489
-0.648225
-0.643315
-0.427051
-0.643432
-0.560514
-1.27378
-1.0551
-2.72837
-1.05501
-1.27349
-0.560386
-0.558914
-0.368515
-0.559016
-0.483145
-1.10448
-0.913455
-2.36495
-0.913378
-1.10422
-0.483034
-0.484264
-0.317097
-0.484354
-0.415075
-0.95486
-0.787994
-2.04411
-0.787928
-0.954635
-0.414978
-0.418299
-0.27197
-0.418377
-0.355244
-0.822737
-0.677005
-1.76107
-0.676948
-0.822542
-0.35516
-0.360058
-0.232401
-0.360126
-0.302707
-0.706145
-0.578947
-1.51154
-0.578899
-0.705976
-0.302635
-0.308682
-0.197738
-0.30874
-0.256627
-0.603326
-0.492433
-1.29168
-0.492392
-0.60318
-0.256565
-0.263399
-0.167406
-0.26345
-0.216256
-0.51271
-0.416216
-1.09808
-0.416181
-0.512585
-0.216204
-0.223521
-0.140891
-0.223564
-0.180933
-0.432897
-0.349176
-0.927673
-0.349147
-0.432791
-0.180889
-0.18843
-0.117742
-0.188466
-0.150069
-0.362636
-0.29031
-0.777727
-0.290286
-0.362547
-0.150032
-0.157576
-0.0975575
-0.157607
-0.123144
-0.300815
-0.238721
-0.645812
-0.2387
-0.300741
-0.123114
-0.130468
-0.079984
-0.130494
-0.0996978
-0.246441
-0.193605
-0.529765
-0.193589
-0.246379
-0.0996733
-0.106668
-0.0647087
-0.106689
-0.0793219
-0.198631
-0.154249
-0.427661
-0.154236
-0.198581
-0.0793022
-0.0857861
-0.0514561
-0.0858031
-0.0616565
-0.1566
-0.120015
-0.337791
-0.120005
-0.156561
-0.0616412
-0.0674746
-0.039983
-0.0674881
-0.0463844
-0.119649
-0.0903386
-0.258633
-0.0903309
-0.119618
-0.0463728
-0.0514245
-0.0300756
-0.0514348
-0.0332258
-0.0871537
-0.0647188
-0.188839
-0.0647133
-0.0871317
-0.0332175
-0.0373601
-0.021546
-0.0373676
-0.0219351
-0.0585595
-0.0427129
-0.127203
-0.0427093
-0.0585447
-0.0219296
-0.0250356
-0.014229
-0.0250407
-0.0122966
-0.033368
-0.0239308
-0.0726527
-0.0239287
-0.0333596
-0.0122935
-0.0142312
-0.00798019
-0.0142341
-0.0041212
-0.0111317
-0.00802937
-0.0242236
-0.00802868
-0.0111289
-0.00412016
-0.00474958
-0.00267291
-0.00475054
)
;

boundaryField
{
    BotWall
    {
        type            zeroGradient;
    }
    FreeStream
    {
        type            zeroGradient;
    }
    FrontNBack
    {
        type            empty;
    }
    LeftSide
    {
        type            cyclic;
    }
    RightSide
    {
        type            cyclic;
    }
}


// ************************************************************************* //
