/*--------------------------------*- C++ -*----------------------------------*\
| =========                 |                                                 |
| \\      /  F ield         | OpenFOAM: The Open Source CFD Toolbox           |
|  \\    /   O peration     | Version:  2.4.0                                 |
|   \\  /    A nd           | Web:      www.OpenFOAM.org                      |
|    \\/     M anipulation  |                                                 |
\*---------------------------------------------------------------------------*/
FoamFile
{
    version     2.0;
    format      ascii;
    class       volScalarField;
    location    "0.2";
    object      p;
}
// * * * * * * * * * * * * * * * * * * * * * * * * * * * * * * * * * * * * * //

dimensions      [1 -1 -2 0 0 0 0];

internalField   nonuniform List<scalar> 
1000
(
1.14776
93.6632
0.834548
2.69975
0.834551
93.6632
1.14776
0.330855
1.97842
0.330855
-0.00142716
-0.0198102
0.0295173
0.0437363
0.0295177
-0.0198103
-0.00142713
0.548226
1.38091
0.548226
-0.00127238
0.0125949
-0.00581917
0.00030433
-0.00581858
0.0125947
-0.00127232
0.00259493
-0.0276074
0.00259517
-0.00393967
0.00725789
-0.00825886
0.00240641
-0.00825828
0.00725768
-0.00393959
0.000772755
0.00353281
0.000773003
-0.00527261
0.0034153
-0.00981387
0.0016884
-0.00981331
0.00341512
-0.0052725
-0.00064785
-0.00144428
-0.000647591
-0.00590839
0.00204578
-0.0104763
0.000832565
-0.0104757
0.00204561
-0.00590827
-0.00140593
-0.00496979
-0.00140566
-0.00647091
0.00139345
-0.0109589
0.000156994
-0.0109583
0.00139327
-0.00647076
-0.00199442
-0.00614041
-0.00199414
-0.00709174
0.00070313
-0.0114858
-0.000455429
-0.0114853
0.000702961
-0.00709157
-0.00260528
-0.0066442
-0.00260498
-0.00774534
-6.85896e-05
-0.0120518
-0.00108154
-0.0120513
-6.87558e-05
-0.00774515
-0.00324674
-0.00720134
-0.00324643
-0.00840867
-0.000856927
-0.0126307
-0.00173086
-0.0126302
-0.000857089
-0.00840845
-0.00390023
-0.00785039
-0.0038999
-0.00907683
-0.00163671
-0.0132141
-0.00239634
-0.0132137
-0.00163687
-0.00907658
-0.00455855
-0.00852731
-0.00455821
-0.00975039
-0.00240806
-0.0138019
-0.0030733
-0.0138015
-0.00240821
-0.00975011
-0.00522149
-0.00920661
-0.00522113
-0.0104288
-0.00317476
-0.0143948
-0.00376001
-0.0143944
-0.00317491
-0.0104285
-0.00589083
-0.00988708
-0.00589045
-0.0111125
-0.00393862
-0.014993
-0.00445569
-0.0149926
-0.00393877
-0.0111122
-0.00656639
-0.0105712
-0.00656601
-0.0118022
-0.00470001
-0.0155971
-0.00515972
-0.0155967
-0.00470015
-0.0118019
-0.00724759
-0.0112598
-0.00724716
-0.0124981
-0.0054598
-0.0162067
-0.00587151
-0.0162064
-0.00545993
-0.0124977
-0.00793432
-0.0119531
-0.00793383
-0.0131989
-0.00622288
-0.0168186
-0.00659063
-0.0168183
-0.006223
-0.0131984
-0.00862662
-0.012651
-0.00862608
-0.013902
-0.00699243
-0.0174327
-0.00731675
-0.0174324
-0.00699254
-0.0139014
-0.00932454
-0.0133534
-0.00932394
-0.0146096
-0.0077651
-0.0180505
-0.00804963
-0.0180502
-0.00776521
-0.014609
-0.0100281
-0.0140605
-0.0100274
-0.0153219
-0.00854071
-0.0186725
-0.00878909
-0.0186723
-0.00854081
-0.0153213
-0.0107374
-0.0147721
-0.0107367
-0.0160386
-0.00931992
-0.0192988
-0.00953501
-0.0192986
-0.00932002
-0.016038
-0.0114527
-0.0154884
-0.0114521
-0.0167594
-0.0101032
-0.0199297
-0.0102873
-0.0199295
-0.0101032
-0.0167589
-0.0121741
-0.0162093
-0.0121735
-0.0174842
-0.0108906
-0.0205654
-0.0110459
-0.0205652
-0.0108907
-0.0174837
-0.0129018
-0.0169349
-0.0129013
-0.0182132
-0.0116824
-0.021206
-0.0118107
-0.0212058
-0.0116825
-0.0182128
-0.0136356
-0.0176652
-0.0136351
-0.0189467
-0.0124787
-0.0218519
-0.0125817
-0.0218517
-0.0124788
-0.0189462
-0.0143753
-0.0184003
-0.0143749
-0.0196845
-0.0132795
-0.0225032
-0.0133589
-0.022503
-0.0132796
-0.0196841
-0.015121
-0.0191402
-0.0151206
-0.0204268
-0.0140849
-0.0231601
-0.0141423
-0.0231599
-0.014085
-0.0204264
-0.0158728
-0.0198848
-0.0158724
-0.0211736
-0.0148951
-0.0238228
-0.0149318
-0.0238226
-0.0148952
-0.0211732
-0.0166306
-0.0206343
-0.0166302
-0.0219248
-0.0157101
-0.0244913
-0.0157275
-0.0244911
-0.0157101
-0.0219245
-0.0173945
-0.0213887
-0.0173942
-0.0226806
-0.0165299
-0.0251658
-0.0165293
-0.0251657
-0.01653
-0.0226803
-0.0181646
-0.022148
-0.0181643
-0.023441
-0.0173547
-0.0258465
-0.0173372
-0.0258464
-0.0173547
-0.0234407
-0.0189408
-0.0229121
-0.0189405
-0.024206
-0.0181845
-0.0265334
-0.0181513
-0.0265332
-0.0181845
-0.0242057
-0.0197232
-0.0236813
-0.019723
-0.0249757
-0.0190193
-0.0272266
-0.0189715
-0.0272264
-0.0190193
-0.0249754
-0.0205118
-0.0244554
-0.0205116
-0.0257501
-0.0198592
-0.0279262
-0.0197978
-0.027926
-0.0198593
-0.0257498
-0.0213067
-0.0252346
-0.0213065
-0.0265292
-0.0207043
-0.0286322
-0.0206303
-0.0286321
-0.0207044
-0.0265289
-0.0221078
-0.0260188
-0.0221076
-0.0273131
-0.0215547
-0.0293448
-0.0214689
-0.0293447
-0.0215547
-0.0273129
-0.0229153
-0.0268081
-0.0229151
-0.0281019
-0.0224103
-0.030064
-0.0223137
-0.0300638
-0.0224103
-0.0281017
-0.023729
-0.0276025
-0.0237289
-0.0288955
-0.0232712
-0.0307897
-0.0231646
-0.0307896
-0.0232713
-0.0288953
-0.0245492
-0.0284021
-0.024549
-0.0296941
-0.0241376
-0.0315222
-0.0240217
-0.0315221
-0.0241376
-0.0296939
-0.0253757
-0.0292068
-0.0253755
-0.0304977
-0.0250093
-0.0322614
-0.0248849
-0.0322613
-0.0250093
-0.0304975
-0.0262086
-0.0300168
-0.0262085
-0.0313063
-0.0258865
-0.0330074
-0.0257544
-0.0330073
-0.0258866
-0.0313061
-0.027048
-0.0308321
-0.0270478
-0.03212
-0.0267693
-0.0337602
-0.02663
-0.03376
-0.0267693
-0.0321198
-0.0278938
-0.0316526
-0.0278937
-0.0329388
-0.0276576
-0.0345198
-0.0275118
-0.0345197
-0.0276577
-0.0329386
-0.0287462
-0.0324785
-0.0287461
-0.0337628
-0.0285516
-0.0352863
-0.0283999
-0.0352862
-0.0285516
-0.0337626
-0.0296051
-0.0333097
-0.029605
-0.034592
-0.0294512
-0.0360597
-0.0292943
-0.0360595
-0.0294513
-0.0345919
-0.0304706
-0.0341464
-0.0304705
-0.0354265
-0.0303566
-0.03684
-0.0301949
-0.0368398
-0.0303566
-0.0354264
-0.0313427
-0.0349885
-0.0313426
-0.0362663
-0.0312677
-0.0376272
-0.0311018
-0.0376271
-0.0312677
-0.0362662
-0.0322214
-0.0358361
-0.0322213
-0.0371115
-0.0321847
-0.0384214
-0.032015
-0.0384213
-0.0321847
-0.0371114
-0.0331068
-0.0366892
-0.0331067
-0.0379622
-0.0331075
-0.0392227
-0.0329346
-0.0392225
-0.0331075
-0.0379621
-0.0339989
-0.0375479
-0.0339989
-0.0388183
-0.0340363
-0.0400309
-0.0338606
-0.0400308
-0.0340363
-0.0388182
-0.0348978
-0.0384122
-0.0348977
-0.03968
-0.034971
-0.0408462
-0.034793
-0.0408461
-0.034971
-0.0396799
-0.0358034
-0.0392821
-0.0358033
-0.0405473
-0.0359117
-0.0416685
-0.0357318
-0.0416684
-0.0359117
-0.0405472
-0.0367159
-0.0401577
-0.0367158
-0.0414202
-0.0368586
-0.0424979
-0.0366772
-0.0424978
-0.0368586
-0.0414202
-0.0376351
-0.0410391
-0.0376351
-0.0422989
-0.0378115
-0.0433344
-0.037629
-0.0433343
-0.0378115
-0.0422988
-0.0385613
-0.0419262
-0.0385612
-0.0431833
-0.0387706
-0.0441781
-0.0385874
-0.044178
-0.0387706
-0.0431832
-0.0394944
-0.0428192
-0.0394943
-0.0440735
-0.039736
-0.0450288
-0.0395523
-0.0450287
-0.039736
-0.0440735
-0.0404344
-0.043718
-0.0404344
-0.0449697
-0.0407076
-0.0458868
-0.0405239
-0.0458867
-0.0407076
-0.0449696
-0.0413814
-0.0446227
-0.0413814
-0.0458717
-0.0416856
-0.0467519
-0.0415021
-0.0467518
-0.0416856
-0.0458716
-0.0423355
-0.0455333
-0.0423355
-0.0467797
-0.04267
-0.0476242
-0.042487
-0.0476241
-0.04267
-0.0467797
-0.0432966
-0.04645
-0.0432966
-0.0476938
-0.0436608
-0.0485038
-0.0434787
-0.0485037
-0.0436608
-0.0476937
-0.0442649
-0.0473727
-0.0442648
-0.048614
-0.0446581
-0.0493906
-0.0444771
-0.0493905
-0.0446581
-0.0486139
-0.0452402
-0.0483015
-0.0452402
-0.0495403
-0.045662
-0.0502847
-0.0454823
-0.0502846
-0.045662
-0.0495402
-0.0462228
-0.0492364
-0.0462228
-0.0504728
-0.0466725
-0.051186
-0.0464944
-0.051186
-0.0466725
-0.0504728
-0.0472126
-0.0501775
-0.0472125
-0.0514116
-0.0476897
-0.0520947
-0.0475134
-0.0520947
-0.0476897
-0.0514116
-0.0482096
-0.0511248
-0.0482096
-0.0523568
-0.0487136
-0.0530108
-0.0485394
-0.0530107
-0.0487136
-0.0523567
-0.049214
-0.0520785
-0.0492139
-0.0533083
-0.0497442
-0.0539342
-0.0495723
-0.0539341
-0.0497442
-0.0533083
-0.0502256
-0.0530384
-0.0502256
-0.0542663
-0.0507818
-0.054865
-0.0506122
-0.0548649
-0.0507818
-0.0542662
-0.0512447
-0.0540048
-0.0512447
-0.0552307
-0.0518262
-0.0558032
-0.0516593
-0.0558032
-0.0518262
-0.0552307
-0.0522712
-0.0549775
-0.0522712
-0.0562018
-0.0528776
-0.0567489
-0.0527134
-0.0567489
-0.0528776
-0.0562017
-0.0533052
-0.0559568
-0.0533052
-0.0571794
-0.053936
-0.0577021
-0.0537748
-0.057702
-0.053936
-0.0571794
-0.0543467
-0.0569426
-0.0543467
-0.0581637
-0.0550015
-0.0586627
-0.0548433
-0.0586627
-0.0550015
-0.0581637
-0.0553958
-0.057935
-0.0553958
-0.0591547
-0.0560741
-0.0596309
-0.0559191
-0.0596309
-0.0560741
-0.0591547
-0.0564524
-0.058934
-0.0564524
-0.0601526
-0.057154
-0.0606067
-0.0570023
-0.0606066
-0.057154
-0.0601525
-0.0575167
-0.0599397
-0.0575167
-0.0611572
-0.0582411
-0.06159
-0.0580928
-0.0615899
-0.0582411
-0.0611572
-0.0585887
-0.0609522
-0.0585887
-0.0621688
-0.0593355
-0.0625809
-0.0591908
-0.0625809
-0.0593355
-0.0621688
-0.0596685
-0.0619715
-0.0596685
-0.0631873
-0.0604373
-0.0635796
-0.0602962
-0.0635795
-0.0604373
-0.0631873
-0.060756
-0.0629977
-0.060756
-0.0642129
-0.0615465
-0.0645858
-0.0614091
-0.0645858
-0.0615465
-0.0642128
-0.0618514
-0.0640307
-0.0618514
-0.0652455
-0.0626633
-0.0655999
-0.0625297
-0.0655998
-0.0626633
-0.0652455
-0.0629546
-0.0650708
-0.0629546
-0.0662852
-0.0637876
-0.0666216
-0.0636578
-0.0666216
-0.0637876
-0.0662852
-0.0640658
-0.0661179
-0.0640658
-0.0673322
-0.0649196
-0.0676511
-0.0647937
-0.0676511
-0.0649196
-0.0673322
-0.0651849
-0.067172
-0.0651849
-0.0683864
-0.0660592
-0.0686885
-0.0659373
-0.0686884
-0.0660592
-0.0683863
-0.0663121
-0.0682333
-0.0663121
-0.0694479
-0.0672066
-0.0697337
-0.0670888
-0.0697336
-0.0672066
-0.0694478
-0.0674473
-0.0693019
-0.0674473
-0.0705167
-0.0683618
-0.0707867
-0.068248
-0.0707867
-0.0683618
-0.0705167
-0.0685907
-0.0703777
-0.0685907
-0.071593
-0.069525
-0.0718477
-0.0694152
-0.0718477
-0.069525
-0.071593
-0.0697422
-0.0714608
-0.0697422
-0.0726768
-0.070696
-0.0729167
-0.0705904
-0.0729166
-0.070696
-0.0726768
-0.070902
-0.0725513
-0.070902
-0.0737681
-0.0718751
-0.0739936
-0.0717737
-0.0739936
-0.0718751
-0.0737681
-0.07207
-0.0736493
-0.07207
-0.0748671
-0.0730623
-0.0750785
-0.072965
-0.0750785
-0.0730623
-0.074867
-0.0732464
-0.0747547
-0.0732463
-0.0759736
-0.0742576
-0.0761715
-0.0741645
-0.0761715
-0.0742576
-0.0759736
-0.0744311
-0.0758678
-0.0744311
-0.077088
-0.0754612
-0.0772726
-0.0753722
-0.0772726
-0.0754612
-0.077088
-0.0756242
-0.0769885
-0.0756242
-0.0782101
-0.076673
-0.0783819
-0.0765881
-0.0783819
-0.076673
-0.0782101
-0.0768259
-0.0781168
-0.0768259
-0.07934
-0.0778932
-0.0794993
-0.0778125
-0.0794993
-0.0778932
-0.07934
-0.0780361
-0.079253
-0.078036
-0.0804779
-0.0791218
-0.0806249
-0.0790452
-0.0806249
-0.0791218
-0.0804779
-0.0792548
-0.080397
-0.0792548
-0.0816237
-0.0803589
-0.0817587
-0.0802864
-0.0817587
-0.0803589
-0.0816237
-0.0804822
-0.0815489
-0.0804822
-0.0827775
-0.0816045
-0.0829009
-0.0815361
-0.0829009
-0.0816045
-0.0827775
-0.0817183
-0.0827087
-0.0817183
-0.0839395
-0.0828588
-0.0840514
-0.0827944
-0.0840514
-0.0828588
-0.0839395
-0.0829632
-0.0838766
-0.0829632
-0.0851095
-0.0841217
-0.0852103
-0.0840613
-0.0852103
-0.0841217
-0.0851096
-0.0842168
-0.0850525
-0.0842168
-0.0862879
-0.0853935
-0.0863772
-0.0853373
-0.0863772
-0.0853935
-0.0862879
-0.0854792
-0.086237
-0.0854792
-0.0874748
-0.086674
-0.0875518
-0.0866227
-0.0875518
-0.086674
-0.0874748
-0.0867505
-0.0874304
-0.0867504
-0.0886698
-0.0879636
-0.0887354
-0.0879162
-0.0887354
-0.0879636
-0.0886698
-0.0880309
-0.0886315
-0.0880308
-0.0898713
-0.0892621
-0.0899358
-0.0892113
-0.0899358
-0.0892621
-0.0898713
-0.0893221
-0.0898332
-0.0893221
)
;

boundaryField
{
    BotWall
    {
        type            calculated;
        value           nonuniform List<scalar> 10(1.14834 93.6814 0.835153 2.71826 0.835156 93.6814 1.14834 0.332106 1.99706 0.332107);
    }
    FreeStream
    {
        type            calculated;
        value           nonuniform List<scalar> 10(-0.0904727 -0.0899135 -0.0905451 -0.0898552 -0.0905451 -0.0899135 -0.0904727 -0.0899712 -0.09043 -0.0899712);
    }
    FrontNBack
    {
        type            empty;
    }
    LeftSide
    {
        type            cyclic;
    }
    RightSide
    {
        type            cyclic;
    }
}


// ************************************************************************* //
