/*--------------------------------*- C++ -*----------------------------------*\
| =========                 |                                                 |
| \\      /  F ield         | OpenFOAM: The Open Source CFD Toolbox           |
|  \\    /   O peration     | Version:  2.4.0                                 |
|   \\  /    A nd           | Web:      www.OpenFOAM.org                      |
|    \\/     M anipulation  |                                                 |
\*---------------------------------------------------------------------------*/
FoamFile
{
    version     2.0;
    format      ascii;
    class       volScalarField;
    location    "0.2";
    object      p_rgh;
}
// * * * * * * * * * * * * * * * * * * * * * * * * * * * * * * * * * * * * * //

dimensions      [1 -1 -2 0 0 0 0];

internalField   nonuniform List<scalar> 
1000
(
1.14834
93.6814
0.835153
2.71826
0.835156
93.6814
1.14834
0.332106
1.99706
0.332107
-0.000495143
-0.0188781
0.0305925
0.0540091
0.0305928
-0.0188782
-0.00049511
0.549478
1.43625
0.549478
0.000286072
0.0141533
-0.00426072
0.0018628
-0.00426013
0.0141531
0.000286132
0.00415338
-0.0260489
0.00415362
-0.00175038
0.00944718
-0.00606956
0.0045957
-0.00606898
0.00944698
-0.00175029
0.00296205
0.0057221
0.0029623
-0.00244804
0.00623987
-0.0069893
0.00451296
-0.00698874
0.00623969
-0.00244794
0.00217672
0.00138029
0.00217697
-0.00244409
0.00551008
-0.00701196
0.00429687
-0.00701142
0.00550991
-0.00244397
0.00205837
-0.00150548
0.00205864
-0.00236237
0.00550198
-0.00685032
0.00426553
-0.0068498
0.00550181
-0.00236223
0.00211411
-0.00203188
0.0021144
-0.00233445
0.00546042
-0.0067285
0.00430186
-0.006728
0.00546025
-0.00233428
0.00215201
-0.00188691
0.00215231
-0.00233474
0.00534202
-0.00664118
0.00432907
-0.0066407
0.00534185
-0.00233454
0.00216387
-0.00179073
0.00216417
-0.00234015
0.00521159
-0.00656214
0.00433765
-0.00656169
0.00521142
-0.00233993
0.00216828
-0.00178187
0.00216861
-0.00234579
0.00509433
-0.00648306
0.0043347
-0.00648263
0.00509417
-0.00234554
0.00217249
-0.00179627
0.00217283
-0.00235217
0.00499017
-0.00640369
0.00432493
-0.00640329
0.00499001
-0.00235189
0.00217673
-0.00180838
0.0021771
-0.00235871
0.00489534
-0.00632466
0.00431009
-0.00632428
0.00489519
-0.00235841
0.00217927
-0.00181698
0.00217964
-0.00236583
0.00480806
-0.0062463
0.00429099
-0.00624594
0.00480792
-0.00236551
0.0021803
-0.00182448
0.00218068
-0.0023742
0.00472802
-0.00616902
0.00426832
-0.00616869
0.00472788
-0.00237383
0.00218044
-0.0018318
0.00218087
-0.00238393
0.00465437
-0.00609256
0.00424265
-0.00609224
0.00465423
-0.0023835
0.00217985
-0.00183897
0.00218033
-0.00239379
0.00458224
-0.00601353
0.00421448
-0.00601323
0.00458211
-0.0023933
0.0021785
-0.00184589
0.00217904
-0.00240105
0.0045085
-0.00593174
0.00418418
-0.00593147
0.00450838
-0.0024005
0.00217638
-0.00185251
0.00217698
-0.00240798
0.00443652
-0.00584886
0.004152
-0.0058486
0.00443642
-0.00240734
0.00217354
-0.00185883
0.00217421
-0.00241469
0.00436653
-0.00576526
0.00411815
-0.00576501
0.00436643
-0.0024141
0.00216988
-0.00186484
0.0021705
-0.00242078
0.0042979
-0.00568103
0.00408281
-0.0056808
0.0042978
-0.00242022
0.00216514
-0.00187053
0.00216572
-0.00242605
0.00423023
-0.00559633
0.00404609
-0.00559611
0.00423014
-0.00242553
0.00215932
-0.00187589
0.00215986
-0.00243023
0.00416337
-0.00551137
0.00400812
-0.00551116
0.00416329
-0.00242975
0.00215222
-0.00188091
0.00215271
-0.00243358
0.00409722
-0.00542637
0.00396896
-0.00542617
0.00409715
-0.00243313
0.00214409
-0.00188559
0.00214455
-0.00243625
0.00403172
-0.00534149
0.00392869
-0.0053413
0.00403165
-0.00243582
0.00213512
-0.00188991
0.00213555
-0.00243822
0.00396681
-0.00525691
0.00388738
-0.00525672
0.00396674
-0.00243781
0.00212531
-0.00189388
0.00212571
-0.00243945
0.00390242
-0.00517274
0.00384508
-0.00517256
0.00390236
-0.00243907
0.00211462
-0.00189748
0.00211499
-0.00243993
0.00383852
-0.00508912
0.00380183
-0.00508895
0.00383847
-0.00243957
0.00210305
-0.0019007
0.00210341
-0.00243968
0.00377507
-0.00500615
0.00375768
-0.00500598
0.00377502
-0.00243934
0.00209063
-0.00190355
0.00209096
-0.00243868
0.00371203
-0.0049239
0.00371267
-0.00492374
0.00371198
-0.00243836
0.00207736
-0.00190602
0.00207767
-0.00243695
0.00364937
-0.00484246
0.00366684
-0.0048423
0.00364933
-0.00243665
0.00206325
-0.00190809
0.00206353
-0.00243449
0.00358707
-0.00476188
0.00362023
-0.00476172
0.00358703
-0.00243421
0.0020483
-0.00190976
0.00204857
-0.0024313
0.0035251
-0.00468222
0.00357288
-0.00468206
0.00352506
-0.00243103
0.00203254
-0.00191103
0.00203279
-0.00242739
0.00346345
-0.00460352
0.00352483
-0.00460336
0.00346342
-0.00242713
0.00201596
-0.0019119
0.00201619
-0.00242276
0.00340209
-0.0045258
0.00347611
-0.00452565
0.00340206
-0.00242252
0.00199858
-0.00191235
0.00199879
-0.00241742
0.00334102
-0.00444911
0.00342675
-0.00444896
0.00334099
-0.0024172
0.00198041
-0.00191238
0.00198061
-0.00241138
0.00328021
-0.00437346
0.0033768
-0.00437331
0.00328019
-0.00241117
0.00196145
-0.00191199
0.00196164
-0.00240464
0.00321966
-0.00429886
0.00332628
-0.00429871
0.00321964
-0.00240444
0.00194172
-0.00191116
0.0019419
-0.00239721
0.00315935
-0.00422532
0.00327522
-0.00422518
0.00315933
-0.00239702
0.00192123
-0.00190991
0.00192139
-0.0023891
0.00309928
-0.00415284
0.00322366
-0.0041527
0.00309926
-0.00238892
0.00189998
-0.00190822
0.00190013
-0.00238032
0.00303943
-0.00408143
0.00317161
-0.0040813
0.00303941
-0.00238015
0.00187799
-0.00190608
0.00187813
-0.00237087
0.00297979
-0.00401108
0.00311911
-0.00401095
0.00297978
-0.00237072
0.00185526
-0.0019035
0.00185539
-0.00236077
0.00292036
-0.00394179
0.00306617
-0.00394166
0.00292035
-0.00236062
0.0018318
-0.00190047
0.00183192
-0.00235003
0.00286113
-0.00387354
0.00301283
-0.00387341
0.00286112
-0.00234989
0.00180763
-0.00189699
0.00180774
-0.00233865
0.00280209
-0.00380632
0.00295909
-0.00380619
0.00280208
-0.00233851
0.00178274
-0.00189305
0.00178285
-0.00232664
0.00274324
-0.00374012
0.00290498
-0.00374
0.00274323
-0.00232651
0.00175716
-0.00188865
0.00175725
-0.00231402
0.00268455
-0.00367492
0.00285052
-0.0036748
0.00268455
-0.0023139
0.00173088
-0.00188379
0.00173097
-0.00230079
0.00262604
-0.0036107
0.00279571
-0.00361058
0.00262604
-0.00230068
0.00170392
-0.00187847
0.001704
-0.00228697
0.00256769
-0.00354744
0.00274059
-0.00354733
0.00256768
-0.00228687
0.00167628
-0.00187268
0.00167635
-0.00227257
0.00250949
-0.00348513
0.00268515
-0.00348502
0.00250948
-0.00227247
0.00164797
-0.00186642
0.00164804
-0.00225759
0.00245143
-0.00342374
0.00262942
-0.00342363
0.00245143
-0.0022575
0.00161901
-0.00185969
0.00161907
-0.00224206
0.00239351
-0.00336325
0.0025734
-0.00336314
0.0023935
-0.00224197
0.00158939
-0.00185249
0.00158945
-0.00222598
0.00233572
-0.00330363
0.00251711
-0.00330353
0.00233571
-0.00222589
0.00155914
-0.00184482
0.00155919
-0.00220936
0.00227804
-0.00324488
0.00246055
-0.00324478
0.00227804
-0.00220928
0.00152824
-0.00183667
0.00152829
-0.00219221
0.00222048
-0.00318695
0.00240374
-0.00318685
0.00222048
-0.00219213
0.00149672
-0.00182805
0.00149677
-0.00217455
0.00216302
-0.00312983
0.00234668
-0.00312973
0.00216302
-0.00217448
0.00146458
-0.00181896
0.00146462
-0.00215638
0.00210566
-0.00307349
0.00228939
-0.0030734
0.00210566
-0.00215631
0.00143183
-0.00180939
0.00143187
-0.00213772
0.00204838
-0.00301792
0.00223186
-0.00301783
0.00204838
-0.00213766
0.00139847
-0.00179935
0.00139851
-0.00211858
0.00199117
-0.00296308
0.00217411
-0.00296299
0.00199117
-0.00211852
0.00136452
-0.00178884
0.00136455
-0.00209897
0.00193404
-0.00290896
0.00211615
-0.00290887
0.00193403
-0.00209891
0.00132997
-0.00177785
0.00133
-0.0020789
0.00187696
-0.00285552
0.00205797
-0.00285544
0.00187695
-0.00207885
0.00129484
-0.0017664
0.00129487
-0.00205838
0.00181992
-0.00280275
0.00199958
-0.00280268
0.00181992
-0.00205833
0.00125913
-0.00175447
0.00125916
-0.00203742
0.00176293
-0.00275063
0.00194099
-0.00275056
0.00176292
-0.00203737
0.00122285
-0.00174208
0.00122288
-0.00201603
0.00170596
-0.00269913
0.0018822
-0.00269906
0.00170596
-0.00201599
0.00118601
-0.00172922
0.00118603
-0.00199422
0.00164901
-0.00264823
0.00182321
-0.00264816
0.001649
-0.00199418
0.00114861
-0.0017159
0.00114863
-0.00197201
0.00159206
-0.0025979
0.00176403
-0.00259783
0.00159206
-0.00197197
0.00111066
-0.00170211
0.00111068
-0.00194939
0.00153512
-0.00254812
0.00170466
-0.00254806
0.00153511
-0.00194935
0.00107216
-0.00168787
0.00107218
-0.00192638
0.00147816
-0.00249888
0.00164509
-0.00249882
0.00147815
-0.00192635
0.00103312
-0.00167317
0.00103314
-0.001903
0.00142117
-0.00245015
0.00158535
-0.00245009
0.00142117
-0.00190296
0.000993549
-0.00165802
0.000993565
-0.00187923
0.00136416
-0.0024019
0.00152541
-0.00240184
0.00136415
-0.0018792
0.000953448
-0.00164242
0.000953463
-0.00185511
0.0013071
-0.00235412
0.00146529
-0.00235407
0.00130709
-0.00185508
0.000912823
-0.00162638
0.000912837
-0.00183062
0.00124998
-0.00230679
0.00140498
-0.00230674
0.00124998
-0.00183059
0.000871679
-0.00160989
0.000871692
-0.00180579
0.0011928
-0.00225989
0.00134448
-0.00225983
0.0011928
-0.00180576
0.000830023
-0.00159297
0.000830035
-0.00178062
0.00113554
-0.00221338
0.0012838
-0.00221334
0.00113554
-0.00178059
0.000787858
-0.00157561
0.000787869
-0.00175511
0.0010782
-0.00216727
0.00122292
-0.00216722
0.0010782
-0.00175509
0.000745189
-0.00155783
0.0007452
-0.00172927
0.00102076
-0.00212151
0.00116186
-0.00212147
0.00102076
-0.00172925
0.000702022
-0.00153962
0.000702033
-0.00170312
0.000963216
-0.00207611
0.00110061
-0.00207606
0.000963213
-0.0017031
0.00065836
-0.00152099
0.00065837
-0.00167665
0.000905552
-0.00203102
0.00103916
-0.00203098
0.000905548
-0.00167663
0.000614209
-0.00150195
0.000614219
-0.00164987
0.000847759
-0.00198625
0.000977511
-0.00198621
0.000847755
-0.00164985
0.000569571
-0.0014825
0.000569581
-0.00162279
0.000789827
-0.00194175
0.000915665
-0.00194172
0.000789822
-0.00162277
0.000524453
-0.00146265
0.000524462
-0.00159542
0.000731744
-0.00189753
0.000853617
-0.0018975
0.00073174
-0.0015954
0.000478856
-0.0014424
0.000478865
-0.00156775
0.000673502
-0.00185355
0.000791361
-0.00185352
0.000673497
-0.00156773
0.000432787
-0.00142175
0.000432795
-0.0015398
0.000615088
-0.0018098
0.000728895
-0.00180977
0.000615084
-0.00153978
0.000386247
-0.00140073
0.000386255
-0.00151156
0.000556493
-0.00176626
0.000666215
-0.00176624
0.000556488
-0.00151155
0.000339242
-0.00137932
0.00033925
-0.00148306
0.000497705
-0.00172292
0.000603315
-0.00172289
0.0004977
-0.00148305
0.000291774
-0.00135755
0.000291782
-0.00145428
0.000438714
-0.00167974
0.000540192
-0.00167972
0.000438709
-0.00145427
0.000243848
-0.0013354
0.000243856
-0.00142523
0.00037951
-0.00163671
0.000476841
-0.00163669
0.000379504
-0.00142523
0.000195467
-0.0013129
0.000195475
-0.00139593
0.00032008
-0.00159382
0.000413257
-0.0015938
0.000320075
-0.00139592
0.000146634
-0.00129005
0.000146642
-0.00136636
0.000260415
-0.00155105
0.000349434
-0.00155103
0.00026041
-0.00136636
9.73541e-05
-0.00126686
9.73614e-05
-0.00133655
0.000200504
-0.00150837
0.000285369
-0.00150835
0.000200498
-0.00133655
4.76296e-05
-0.00124333
4.76367e-05
-0.00130649
0.000140334
-0.00146577
0.000221054
-0.00146575
0.000140328
-0.00130648
-2.53539e-06
-0.00121948
-2.52847e-06
-0.00127618
7.98957e-05
-0.00142322
0.000156484
-0.00142321
7.98899e-05
-0.00127618
-5.3137e-05
-0.00119531
-5.31302e-05
-0.00124563
1.91767e-05
-0.00138071
9.16552e-05
-0.0013807
1.91709e-05
-0.00124563
-0.000104172
-0.00117083
-0.000104165
-0.00121485
-4.18341e-05
-0.00133823
2.65728e-05
-0.00133822
-4.18399e-05
-0.00121485
-0.000155638
-0.00114605
-0.000155632
-0.00118383
-0.000103147
-0.00129579
-3.87508e-05
-0.00129578
-0.000103153
-0.00118383
-0.000207536
-0.00112094
-0.00020753
-0.00115258
-0.000164773
-0.00125332
-0.000104366
-0.00125332
-0.000164779
-0.00115259
-0.000259848
-0.00109556
-0.000259842
-0.0011212
-0.000226722
-0.0012105
-0.000170548
-0.0012105
-0.000226728
-0.00112121
-0.000312505
-0.00107022
-0.000312499
-0.00108978
-0.000289025
-0.0011668
-0.000237657
-0.0011668
-0.000289031
-0.0010898
-0.000365438
-0.00104536
-0.000365433
-0.00105798
-0.000351722
-0.00112358
-0.000304341
-0.00112359
-0.000351727
-0.00105799
-0.000418997
-0.00101962
-0.000418992
-0.00102402
-0.000414834
-0.00108848
-0.000364007
-0.00108849
-0.00041484
-0.00102403
-0.000474794
-0.000985931
-0.000474787
)
;

boundaryField
{
    BotWall
    {
        type            fixedFluxPressure;
        gradient        uniform 0;
        value           nonuniform List<scalar> 10(1.14834 93.6814 0.835153 2.71826 0.835156 93.6814 1.14834 0.332106 1.99706 0.332107);
    }
    FreeStream
    {
        type            totalPressure;
        rho             rho;
        psi             none;
        gamma           1;
        p0              uniform 0;
        value           nonuniform List<scalar> 10(-0.00100549 -0.000446288 -0.00107792 -0.000387988 -0.00107793 -0.000446294 -0.0010055 -0.000504044 -0.000962775 -0.000504034);
    }
    FrontNBack
    {
        type            empty;
    }
    LeftSide
    {
        type            cyclic;
    }
    RightSide
    {
        type            cyclic;
    }
}


// ************************************************************************* //
