/*--------------------------------*- C++ -*----------------------------------*\
| =========                 |                                                 |
| \\      /  F ield         | OpenFOAM: The Open Source CFD Toolbox           |
|  \\    /   O peration     | Version:  2.4.0                                 |
|   \\  /    A nd           | Web:      www.OpenFOAM.org                      |
|    \\/     M anipulation  |                                                 |
\*---------------------------------------------------------------------------*/
FoamFile
{
    version     2.0;
    format      ascii;
    class       surfaceScalarField;
    location    "0.2";
    object      phi;
}
// * * * * * * * * * * * * * * * * * * * * * * * * * * * * * * * * * * * * * //

dimensions      [0 3 -1 0 0 0 0];

internalField   nonuniform List<scalar> 
1890
(
-2.93885e-11
-1.51974e-09
-4.10798e-10
-1.13065e-09
3.26676e-10
-1.94552e-09
-3.26677e-10
2.15984e-11
4.10798e-10
-1.94552e-09
2.93884e-11
-1.13064e-09
5.09956e-11
-1.51974e-09
1.15463e-10
-1.19424e-09
-1.15463e-10
2.36138e-11
-1.19424e-09
-4.63958e-11
-1.47516e-09
-9.56107e-11
-1.08143e-09
-8.42001e-11
-1.95693e-09
8.41998e-11
-1.46802e-10
9.56108e-11
-1.95693e-09
4.63953e-11
-1.08143e-09
1.81443e-12
-1.47516e-09
-2.01648e-11
-1.17226e-09
2.01648e-11
-9.7926e-10
-1.17226e-09
-4.23531e-11
-1.42486e-09
-9.33868e-11
-1.0304e-09
-4.93751e-11
-2.00094e-09
4.93747e-11
-2.45551e-10
9.33876e-11
-2.00094e-09
4.23527e-11
-1.03039e-09
-7.94754e-12
-1.42486e-09
-3.53157e-12
-1.17667e-09
3.53168e-12
-9.86323e-10
-1.17667e-09
-3.77861e-11
-1.38112e-09
-7.83825e-11
-9.89803e-10
-4.08973e-11
-2.03843e-09
4.08964e-11
-3.27345e-10
7.83838e-11
-2.03843e-09
3.77858e-11
-9.89794e-10
-5.95406e-12
-1.38112e-09
-4.19382e-12
-1.17843e-09
4.19423e-12
-9.94711e-10
-1.17843e-09
-3.33174e-11
-1.34328e-09
-6.54612e-11
-9.57659e-10
-3.36997e-11
-2.07019e-09
3.36982e-11
-3.94743e-10
6.5463e-11
-2.0702e-09
3.33173e-11
-9.57649e-10
-4.52702e-12
-1.34327e-09
-4.01932e-12
-1.17894e-09
4.01998e-12
-1.00275e-09
-1.17894e-09
-2.91127e-11
-1.31079e-09
-5.42721e-11
-9.325e-10
-2.77499e-11
-2.09671e-09
2.77479e-11
-4.50241e-10
5.42742e-11
-2.09672e-09
2.91127e-11
-9.32487e-10
-3.38036e-12
-1.31078e-09
-3.84557e-12
-1.17848e-09
3.84646e-12
-1.01044e-09
-1.17847e-09
-2.51796e-11
-1.28315e-09
-4.4615e-11
-9.13064e-10
-2.28691e-11
-2.11846e-09
2.28666e-11
-4.95976e-10
4.46174e-11
-2.11847e-09
2.51797e-11
-9.13049e-10
-2.45966e-12
-1.28314e-09
-3.75099e-12
-1.17719e-09
3.7521e-12
-1.01795e-09
-1.17717e-09
-2.15125e-11
-1.2599e-09
-3.63106e-11
-8.98266e-10
-1.88835e-11
-2.13589e-09
1.88807e-11
-5.33741e-10
3.63132e-11
-2.1359e-09
2.15128e-11
-8.98249e-10
-1.73548e-12
-1.25989e-09
-3.69047e-12
-1.17523e-09
3.69178e-12
-1.02533e-09
-1.17522e-09
-1.81155e-11
-1.24062e-09
-2.91793e-11
-8.87202e-10
-1.56381e-11
-2.14943e-09
1.5635e-11
-5.65014e-10
2.91819e-11
-2.14945e-09
1.81159e-11
-8.87183e-10
-1.17057e-12
-1.24061e-09
-3.63719e-12
-1.17276e-09
3.63868e-12
-1.0326e-09
-1.17275e-09
-1.49894e-11
-1.2249e-09
-2.3057e-11
-8.79135e-10
-1.30007e-11
-2.15948e-09
1.29973e-11
-5.91012e-10
2.30596e-11
-2.15951e-09
1.49899e-11
-8.79113e-10
-7.30325e-13
-1.22489e-09
-3.58767e-12
-1.16991e-09
3.58932e-12
-1.03978e-09
-1.16988e-09
-1.21285e-11
-1.21239e-09
-1.78006e-11
-8.73463e-10
-1.08602e-11
-2.16642e-09
1.08566e-11
-6.12729e-10
1.78031e-11
-2.16646e-09
1.21291e-11
-8.73439e-10
-3.84693e-13
-1.21237e-09
-3.54367e-12
-1.16675e-09
3.54547e-12
-1.04687e-09
-1.16672e-09
-9.5214e-12
-1.20278e-09
-1.32874e-11
-8.69697e-10
-9.12325e-12
-2.17059e-09
9.11961e-12
-6.30972e-10
1.32897e-11
-2.17063e-09
9.52208e-12
-8.69672e-10
-9.23255e-14
-1.20276e-09
-3.50608e-12
-1.16333e-09
3.50801e-12
-1.05388e-09
-1.1633e-09
-7.15355e-12
-1.1957e-09
-9.41374e-12
-8.67436e-10
-7.71231e-12
-2.17229e-09
7.70864e-12
-6.46392e-10
9.41585e-12
-2.17234e-09
7.1543e-12
-8.6741e-10
7.08992e-14
-1.19567e-09
-3.47478e-12
-1.15979e-09
3.47682e-12
-1.06084e-09
-1.15976e-09
-5.00741e-12
-1.19084e-09
-6.09441e-12
-8.66349e-10
-6.5634e-12
-2.17182e-09
6.55975e-12
-6.59516e-10
6.09623e-12
-2.17187e-09
5.00821e-12
-8.66322e-10
1.54119e-13
-1.19082e-09
-3.44922e-12
-1.15618e-09
3.45136e-12
-1.06774e-09
-1.15615e-09
-3.06079e-12
-1.18798e-09
-3.26664e-12
-8.66144e-10
-5.62432e-12
-2.16946e-09
5.62075e-12
-6.70761e-10
3.26813e-12
-2.16952e-09
3.06164e-12
-8.66116e-10
2.01158e-13
-1.18796e-09
-3.42881e-12
-1.15255e-09
3.43103e-12
-1.0746e-09
-1.15252e-09
-1.27307e-12
-1.18693e-09
-9.21624e-13
-8.66495e-10
-4.85279e-12
-2.16553e-09
4.84934e-12
-6.80463e-10
9.2268e-13
-2.16559e-09
1.27397e-12
-8.66467e-10
2.1931e-13
-1.18691e-09
-3.41291e-12
-1.14892e-09
3.41519e-12
-1.08142e-09
-1.14888e-09
3.61665e-13
-1.1875e-09
1.25301e-12
-8.67386e-10
-4.21474e-12
-2.16006e-09
4.21145e-12
-6.88889e-10
-1.2521e-12
-2.16013e-09
-3.60975e-13
-8.67358e-10
2.12852e-13
-1.18748e-09
-3.40083e-12
-1.14531e-09
3.40315e-12
-1.08823e-09
-1.14527e-09
1.59463e-12
-1.18928e-09
3.20273e-12
-8.68994e-10
-3.68385e-12
-2.15318e-09
3.68074e-12
-6.96254e-10
-3.20224e-12
-2.15325e-09
-1.59386e-12
-8.68966e-10
1.86459e-13
-1.18926e-09
-3.39187e-12
-1.14173e-09
3.39423e-12
-1.09501e-09
-1.14169e-09
2.75116e-12
-1.19218e-09
4.82928e-12
-8.71073e-10
-3.23989e-12
-2.14511e-09
3.237e-12
-7.0273e-10
-4.82916e-12
-2.14518e-09
-2.75039e-12
-8.71045e-10
1.46074e-13
-1.19216e-09
-3.38537e-12
-1.1382e-09
3.38774e-12
-1.10179e-09
-1.13815e-09
3.78694e-12
-1.19606e-09
6.21125e-12
-8.73497e-10
-2.8669e-12
-2.13603e-09
2.86423e-12
-7.08462e-10
-6.21148e-12
-2.13611e-09
-3.78621e-12
-8.7347e-10
9.58149e-14
-1.19604e-09
-3.38068e-12
-1.13472e-09
3.38305e-12
-1.10855e-09
-1.13468e-09
4.70262e-12
-1.20078e-09
7.38704e-12
-8.76181e-10
-2.55232e-12
-2.12609e-09
2.54988e-12
-7.13564e-10
-7.38759e-12
-2.12617e-09
-4.70192e-12
-8.76156e-10
1.66016e-14
-1.20076e-09
-3.37722e-12
-1.13133e-09
3.37957e-12
-1.11531e-09
-1.13128e-09
5.50547e-12
-1.20621e-09
8.38451e-12
-8.7906e-10
-2.28633e-12
-2.11542e-09
2.28412e-12
-7.18134e-10
-8.38536e-12
-2.1155e-09
-5.50483e-12
-8.79037e-10
-7.08233e-14
-1.20619e-09
-3.37444e-12
-1.12802e-09
3.37675e-12
-1.12206e-09
-1.12798e-09
6.20411e-12
-1.21222e-09
9.22598e-12
-8.82082e-10
-2.06121e-12
-2.10413e-09
2.05924e-12
-7.22255e-10
-9.2271e-12
-2.10421e-09
-6.20353e-12
-8.8206e-10
-1.99051e-13
-1.2122e-09
-3.37189e-12
-1.12485e-09
3.37416e-12
-1.1288e-09
-1.12481e-09
6.80715e-12
-1.2187e-09
9.93007e-12
-8.85205e-10
-1.8709e-12
-2.09233e-09
1.86914e-12
-7.25995e-10
-9.93142e-12
-2.09241e-09
-6.80664e-12
-8.85185e-10
-3.22375e-13
-1.21868e-09
-3.36916e-12
-1.12181e-09
3.37137e-12
-1.13555e-09
-1.12176e-09
7.32281e-12
-1.22558e-09
1.05126e-11
-8.88395e-10
-1.71055e-12
-2.08011e-09
1.709e-12
-7.29414e-10
-1.05141e-11
-2.08019e-09
-7.32236e-12
-8.88377e-10
-4.39756e-13
-1.22556e-09
-3.36589e-12
-1.11888e-09
3.36802e-12
-1.14228e-09
-1.11883e-09
7.75879e-12
-1.23278e-09
1.09872e-11
-8.91623e-10
-1.57626e-12
-2.06755e-09
1.57492e-12
-7.32566e-10
-1.09889e-11
-2.06763e-09
-7.75841e-12
-8.91607e-10
-5.53202e-13
-1.23277e-09
-3.36179e-12
-1.11607e-09
3.36383e-12
-1.14901e-09
-1.11602e-09
8.12223e-12
-1.24024e-09
1.13657e-11
-8.94867e-10
-1.46486e-12
-2.05471e-09
1.4637e-12
-7.35494e-10
-1.13675e-11
-2.05479e-09
-8.12193e-12
-8.94853e-10
-6.6286e-13
-1.24023e-09
-3.35659e-12
-1.11338e-09
3.35854e-12
-1.15572e-09
-1.11333e-09
8.41974e-12
-1.24789e-09
1.16586e-11
-8.98106e-10
-1.37367e-12
-2.04168e-09
1.37269e-12
-7.3824e-10
-1.16606e-11
-2.04176e-09
-8.4195e-12
-8.98094e-10
-7.68435e-13
-1.24788e-09
-3.3501e-12
-1.1108e-09
3.35195e-12
-1.16242e-09
-1.11075e-09
8.65737e-12
-1.25567e-09
1.18753e-11
-9.01324e-10
-1.30041e-12
-2.02851e-09
1.29958e-12
-7.4084e-10
-1.18773e-11
-2.02858e-09
-8.6572e-12
-9.01314e-10
-8.69539e-13
-1.25567e-09
-3.34214e-12
-1.10832e-09
3.34388e-12
-1.16911e-09
-1.10828e-09
8.84072e-12
-1.26355e-09
1.20239e-11
-9.04507e-10
-1.24307e-12
-2.01524e-09
1.24239e-12
-7.43326e-10
-1.2026e-11
-2.01532e-09
-8.84062e-12
-9.04499e-10
-9.65798e-13
-1.26354e-09
-3.33257e-12
-1.10596e-09
3.3342e-12
-1.17578e-09
-1.10591e-09
8.97495e-12
-1.27146e-09
1.2112e-11
-9.07644e-10
-1.19987e-12
-2.00193e-09
1.19932e-12
-7.45725e-10
-1.2114e-11
-2.002e-09
-8.9749e-12
-9.07639e-10
-1.0569e-12
-1.27146e-09
-3.32129e-12
-1.10369e-09
3.3228e-12
-1.18242e-09
-1.10365e-09
9.06481e-12
-1.27938e-09
1.21462e-11
-9.10725e-10
-1.16916e-12
-1.98861e-09
1.16873e-12
-7.48063e-10
-1.21483e-11
-1.98869e-09
-9.06482e-12
-9.10722e-10
-1.14258e-12
-1.27938e-09
-3.3082e-12
-1.10153e-09
3.3096e-12
-1.18904e-09
-1.10148e-09
9.11468e-12
-1.28727e-09
1.21327e-11
-9.13743e-10
-1.14943e-12
-1.97533e-09
1.14911e-12
-7.50361e-10
-1.21347e-11
-1.9754e-09
-9.11474e-12
-9.13742e-10
-1.22266e-12
-1.28727e-09
-3.29326e-12
-1.09946e-09
3.29454e-12
-1.19562e-09
-1.09941e-09
9.12861e-12
-1.2951e-09
1.2077e-11
-9.16692e-10
-1.13926e-12
-1.96211e-09
1.13905e-12
-7.5264e-10
-1.2079e-11
-1.96218e-09
-9.12871e-12
-9.16692e-10
-1.29702e-12
-1.2951e-09
-3.27642e-12
-1.09748e-09
3.27758e-12
-1.20218e-09
-1.09743e-09
9.11033e-12
-1.30284e-09
1.19842e-11
-9.19565e-10
-1.13736e-12
-1.94899e-09
1.13724e-12
-7.54914e-10
-1.19862e-11
-1.94906e-09
-9.11047e-12
-9.19568e-10
-1.36559e-12
-1.30285e-09
-3.25765e-12
-1.09558e-09
3.25869e-12
-1.2087e-09
-1.09554e-09
9.06328e-12
-1.31048e-09
1.18589e-11
-9.22361e-10
-1.14248e-12
-1.93599e-09
1.14245e-12
-7.57199e-10
-1.18608e-11
-1.93606e-09
-9.06345e-12
-9.22365e-10
-1.42834e-12
-1.31048e-09
-3.23693e-12
-1.09378e-09
3.23785e-12
-1.21517e-09
-1.09374e-09
8.99063e-12
-1.31798e-09
1.17053e-11
-9.25076e-10
-1.15351e-12
-1.92313e-09
1.15356e-12
-7.59506e-10
-1.17071e-11
-1.9232e-09
-8.99083e-12
-9.25082e-10
-1.48531e-12
-1.31799e-09
-3.21427e-12
-1.09205e-09
3.21508e-12
-1.2216e-09
-1.09201e-09
8.89531e-12
-1.32534e-09
1.15271e-11
-9.27707e-10
-1.1694e-12
-1.91044e-09
1.16953e-12
-7.61845e-10
-1.15288e-11
-1.9105e-09
-8.89554e-12
-9.27715e-10
-1.53653e-12
-1.32535e-09
-3.18967e-12
-1.09039e-09
3.19037e-12
-1.22798e-09
-1.09035e-09
8.78001e-12
-1.33254e-09
1.13279e-11
-9.30255e-10
-1.1892e-12
-1.89792e-09
1.1894e-12
-7.64224e-10
-1.13295e-11
-1.89798e-09
-8.78025e-12
-9.30264e-10
-1.58212e-12
-1.33255e-09
-3.16315e-12
-1.08881e-09
3.16374e-12
-1.23431e-09
-1.08877e-09
8.64719e-12
-1.33956e-09
1.11107e-11
-9.32719e-10
-1.21206e-12
-1.8856e-09
1.21233e-12
-7.66648e-10
-1.11123e-11
-1.88565e-09
-8.64744e-12
-9.32729e-10
-1.62218e-12
-1.33957e-09
-3.13474e-12
-1.0873e-09
3.13522e-12
-1.24058e-09
-1.08726e-09
8.49912e-12
-1.3464e-09
1.08786e-11
-9.35098e-10
-1.2372e-12
-1.87348e-09
1.23753e-12
-7.69123e-10
-1.088e-11
-1.87354e-09
-8.49939e-12
-9.3511e-10
-1.65686e-12
-1.34641e-09
-3.10446e-12
-1.08585e-09
3.10484e-12
-1.24679e-09
-1.08582e-09
8.33788e-12
-1.35305e-09
1.06339e-11
-9.37394e-10
-1.26392e-12
-1.86158e-09
1.26432e-12
-7.71651e-10
-1.06353e-11
-1.86164e-09
-8.33816e-12
-9.37407e-10
-1.68631e-12
-1.35307e-09
-3.07237e-12
-1.08447e-09
3.07264e-12
-1.25293e-09
-1.08443e-09
8.16538e-12
-1.35951e-09
1.0379e-11
-9.39608e-10
-1.29162e-12
-1.84991e-09
1.29208e-12
-7.74235e-10
-1.03803e-11
-1.84997e-09
-8.16566e-12
-9.39621e-10
-1.71072e-12
-1.35952e-09
-3.03849e-12
-1.08314e-09
3.03867e-12
-1.25901e-09
-1.0831e-09
7.98334e-12
-1.36576e-09
1.01161e-11
-9.41741e-10
-1.31975e-12
-1.83848e-09
1.32026e-12
-7.76875e-10
-1.01173e-11
-1.83853e-09
-7.98363e-12
-9.41755e-10
-1.73027e-12
-1.36577e-09
-3.0029e-12
-1.08187e-09
3.00298e-12
-1.26501e-09
-1.08183e-09
7.79336e-12
-1.37181e-09
9.84695e-12
-9.43794e-10
-1.34784e-12
-1.82728e-09
1.34841e-12
-7.79571e-10
-9.84805e-12
-1.82733e-09
-7.79364e-12
-9.43809e-10
-1.74516e-12
-1.37182e-09
-2.96564e-12
-1.08064e-09
2.96563e-12
-1.27094e-09
-1.08061e-09
7.59686e-12
-1.37765e-09
9.57324e-12
-9.45771e-10
-1.37548e-12
-1.81633e-09
1.3761e-12
-7.82323e-10
-9.57426e-12
-1.81638e-09
-7.59715e-12
-9.45787e-10
-1.7556e-12
-1.37766e-09
-2.92677e-12
-1.07947e-09
2.92669e-12
-1.2768e-09
-1.07944e-09
7.39517e-12
-1.38328e-09
9.29646e-12
-9.47672e-10
-1.40232e-12
-1.80563e-09
1.40299e-12
-7.85128e-10
-9.2974e-12
-1.80568e-09
-7.39545e-12
-9.47688e-10
-1.76179e-12
-1.3833e-09
-2.88638e-12
-1.07835e-09
2.88621e-12
-1.28257e-09
-1.07832e-09
7.18946e-12
-1.3887e-09
9.01794e-12
-9.495e-10
-1.42804e-12
-1.79519e-09
1.42876e-12
-7.87985e-10
-9.01879e-12
-1.79523e-09
-7.18975e-12
-9.49518e-10
-1.76396e-12
-1.38872e-09
-2.84452e-12
-1.07727e-09
2.84427e-12
-1.28826e-09
-1.07724e-09
6.98082e-12
-1.39392e-09
8.73884e-12
-9.51258e-10
-1.4524e-12
-1.785e-09
1.45316e-12
-7.9089e-10
-8.73962e-12
-1.78504e-09
-6.9811e-12
-9.51276e-10
-1.76233e-12
-1.39394e-09
-2.80128e-12
-1.07623e-09
2.80096e-12
-1.29386e-09
-1.0762e-09
6.77021e-12
-1.39894e-09
8.46019e-12
-9.52948e-10
-1.47518e-12
-1.77506e-09
1.47598e-12
-7.93842e-10
-8.4609e-12
-1.7751e-09
-6.77048e-12
-9.52966e-10
-1.75712e-12
-1.39896e-09
-2.75672e-12
-1.07523e-09
2.75634e-12
-1.29937e-09
-1.0752e-09
6.55851e-12
-1.40375e-09
8.18291e-12
-9.54573e-10
-1.4962e-12
-1.76538e-09
1.49703e-12
-7.96835e-10
-8.18355e-12
-1.76542e-09
-6.55878e-12
-9.54591e-10
-1.74854e-12
-1.40377e-09
-2.71095e-12
-1.07427e-09
2.7105e-12
-1.3048e-09
-1.07424e-09
6.3465e-12
-1.40836e-09
7.90779e-12
-9.56134e-10
-1.51531e-12
-1.75596e-09
1.51617e-12
-7.99866e-10
-7.90835e-12
-1.756e-09
-6.34677e-12
-9.56153e-10
-1.73681e-12
-1.40838e-09
-2.66403e-12
-1.07334e-09
2.66352e-12
-1.31012e-09
-1.07331e-09
6.1349e-12
-1.41277e-09
7.63552e-12
-9.57635e-10
-1.53239e-12
-1.74679e-09
1.53329e-12
-8.02932e-10
-7.63602e-12
-1.74683e-09
-6.13516e-12
-9.57654e-10
-1.72215e-12
-1.41279e-09
-2.61606e-12
-1.07245e-09
2.61549e-12
-1.31536e-09
-1.07242e-09
5.92434e-12
-1.41699e-09
7.3667e-12
-9.59077e-10
-1.54737e-12
-1.73788e-09
1.5483e-12
-8.06028e-10
-7.36713e-12
-1.73791e-09
-5.92459e-12
-9.59096e-10
-1.70477e-12
-1.41701e-09
-2.56713e-12
-1.07158e-09
2.5665e-12
-1.32049e-09
-1.07155e-09
5.71538e-12
-1.42102e-09
7.10184e-12
-9.60464e-10
-1.56018e-12
-1.72921e-09
1.56113e-12
-8.09149e-10
-7.10223e-12
-1.72925e-09
-5.71563e-12
-9.60483e-10
-1.68488e-12
-1.42104e-09
-2.51732e-12
-1.07075e-09
2.51664e-12
-1.32552e-09
-1.07072e-09
5.50852e-12
-1.42486e-09
6.84141e-12
-9.61796e-10
-1.57077e-12
-1.7208e-09
1.57174e-12
-8.12291e-10
-6.84173e-12
-1.72084e-09
-5.50877e-12
-9.61816e-10
-1.66268e-12
-1.42489e-09
-2.46672e-12
-1.06995e-09
2.46599e-12
-1.33046e-09
-1.06992e-09
5.30422e-12
-1.42853e-09
6.58576e-12
-9.63078e-10
-1.57911e-12
-1.71264e-09
1.5801e-12
-8.15451e-10
-6.58604e-12
-1.71267e-09
-5.30447e-12
-9.63097e-10
-1.63837e-12
-1.42855e-09
-2.41542e-12
-1.06917e-09
2.41465e-12
-1.33529e-09
-1.06914e-09
5.10287e-12
-1.43202e-09
6.33522e-12
-9.6431e-10
-1.5852e-12
-1.70472e-09
1.5862e-12
-8.18622e-10
-6.33545e-12
-1.70475e-09
-5.10311e-12
-9.6433e-10
-1.61213e-12
-1.43204e-09
-2.36352e-12
-1.06842e-09
2.36271e-12
-1.34001e-09
-1.06839e-09
4.90482e-12
-1.43534e-09
6.09006e-12
-9.65496e-10
-1.58905e-12
-1.69704e-09
1.59006e-12
-8.21801e-10
-6.09024e-12
-1.69707e-09
-4.90506e-12
-9.65515e-10
-1.58417e-12
-1.43536e-09
-2.31111e-12
-1.06769e-09
2.31025e-12
-1.34463e-09
-1.06767e-09
4.71037e-12
-1.4385e-09
5.85048e-12
-9.66636e-10
-1.59066e-12
-1.6896e-09
1.59168e-12
-8.24984e-10
-5.85063e-12
-1.68963e-09
-4.71061e-12
-9.66655e-10
-1.55465e-12
-1.43852e-09
-2.25826e-12
-1.06699e-09
2.25738e-12
-1.34915e-09
-1.06696e-09
4.51979e-12
-1.4415e-09
5.61667e-12
-9.67733e-10
-1.59008e-12
-1.68239e-09
1.59111e-12
-8.28165e-10
-5.61678e-12
-1.68242e-09
-4.52003e-12
-9.67752e-10
-1.52375e-12
-1.44152e-09
-2.20509e-12
-1.06631e-09
2.20417e-12
-1.35356e-09
-1.06628e-09
4.33332e-12
-1.44434e-09
5.38876e-12
-9.68788e-10
-1.58734e-12
-1.67541e-09
1.58837e-12
-8.3134e-10
-5.38883e-12
-1.67544e-09
-4.33354e-12
-9.68807e-10
-1.49164e-12
-1.44436e-09
-2.15167e-12
-1.06565e-09
2.15072e-12
-1.35786e-09
-1.06562e-09
4.15113e-12
-1.44703e-09
5.16685e-12
-9.69804e-10
-1.58249e-12
-1.66866e-09
1.58352e-12
-8.34506e-10
-5.16689e-12
-1.66869e-09
-4.15136e-12
-9.69822e-10
-1.45849e-12
-1.44705e-09
-2.09808e-12
-1.06501e-09
2.09711e-12
-1.36206e-09
-1.06498e-09
3.97342e-12
-1.44958e-09
4.95102e-12
-9.70781e-10
-1.57558e-12
-1.66214e-09
1.57661e-12
-8.37659e-10
-4.95102e-12
-1.66216e-09
-3.97364e-12
-9.708e-10
-1.42444e-12
-1.4496e-09
-2.04443e-12
-1.06439e-09
2.04344e-12
-1.36614e-09
-1.06436e-09
3.80031e-12
-1.45199e-09
4.74131e-12
-9.71722e-10
-1.56668e-12
-1.65583e-09
1.5677e-12
-8.40793e-10
-4.74129e-12
-1.65585e-09
-3.80053e-12
-9.7174e-10
-1.38965e-12
-1.45201e-09
-1.99079e-12
-1.06379e-09
1.98978e-12
-1.37012e-09
-1.06376e-09
3.63193e-12
-1.45427e-09
4.53776e-12
-9.72628e-10
-1.55585e-12
-1.64974e-09
1.55687e-12
-8.43906e-10
-4.5377e-12
-1.64976e-09
-3.63215e-12
-9.72646e-10
-1.35426e-12
-1.45429e-09
-1.93725e-12
-1.0632e-09
1.93622e-12
-1.374e-09
-1.06318e-09
3.46836e-12
-1.45642e-09
4.34035e-12
-9.735e-10
-1.54317e-12
-1.64385e-09
1.54419e-12
-8.46993e-10
-4.34027e-12
-1.64387e-09
-3.46858e-12
-9.73518e-10
-1.31842e-12
-1.45644e-09
-1.88389e-12
-1.06264e-09
1.88284e-12
-1.37776e-09
-1.06262e-09
3.30969e-12
-1.45845e-09
4.14909e-12
-9.74339e-10
-1.52871e-12
-1.63818e-09
1.52972e-12
-8.50051e-10
-4.14899e-12
-1.6382e-09
-3.30991e-12
-9.74357e-10
-1.28224e-12
-1.45847e-09
-1.83079e-12
-1.06209e-09
1.82973e-12
-1.38142e-09
-1.06207e-09
3.15597e-12
-1.46036e-09
3.96394e-12
-9.75147e-10
-1.51256e-12
-1.6327e-09
1.51356e-12
-8.53078e-10
-3.96382e-12
-1.63272e-09
-3.15619e-12
-9.75164e-10
-1.24585e-12
-1.46038e-09
-1.77804e-12
-1.06156e-09
1.77697e-12
-1.38498e-09
-1.06154e-09
3.00724e-12
-1.46216e-09
3.78487e-12
-9.75925e-10
-1.4948e-12
-1.62742e-09
1.49579e-12
-8.56068e-10
-3.78473e-12
-1.62744e-09
-3.00747e-12
-9.75942e-10
-1.20938e-12
-1.46218e-09
-1.72572e-12
-1.06104e-09
1.72463e-12
-1.38843e-09
-1.06102e-09
2.86354e-12
-1.46385e-09
3.61182e-12
-9.76673e-10
-1.47552e-12
-1.62233e-09
1.47649e-12
-8.5902e-10
-3.61167e-12
-1.62235e-09
-2.86376e-12
-9.7669e-10
-1.17293e-12
-1.46387e-09
-1.67389e-12
-1.06054e-09
1.6728e-12
-1.39178e-09
-1.06052e-09
2.72487e-12
-1.46544e-09
3.44475e-12
-9.77393e-10
-1.4548e-12
-1.61743e-09
1.45577e-12
-8.61931e-10
-3.44457e-12
-1.61745e-09
-2.72509e-12
-9.77409e-10
-1.13661e-12
-1.46545e-09
-1.62265e-12
-1.06005e-09
1.62155e-12
-1.39502e-09
-1.06003e-09
2.59123e-12
-1.46693e-09
3.28357e-12
-9.78086e-10
-1.43275e-12
-1.61272e-09
1.4337e-12
-8.64797e-10
-3.28338e-12
-1.61273e-09
-2.59146e-12
-9.78101e-10
-1.10053e-12
-1.46695e-09
-1.57206e-12
-1.05958e-09
1.57096e-12
-1.39816e-09
-1.05956e-09
2.46263e-12
-1.46833e-09
3.12822e-12
-9.78751e-10
-1.40946e-12
-1.60818e-09
1.41039e-12
-8.67617e-10
-3.12802e-12
-1.60819e-09
-2.46286e-12
-9.78766e-10
-1.06477e-12
-1.46834e-09
-1.52221e-12
-1.05913e-09
1.5211e-12
-1.40121e-09
-1.05911e-09
2.33904e-12
-1.46964e-09
2.97863e-12
-9.79391e-10
-1.38502e-12
-1.60381e-09
1.38594e-12
-8.70388e-10
-2.97842e-12
-1.60383e-09
-2.33927e-12
-9.79405e-10
-1.02942e-12
-1.46965e-09
-1.47316e-12
-1.05868e-09
1.47206e-12
-1.40415e-09
-1.05866e-09
2.22044e-12
-1.47086e-09
2.8347e-12
-9.80005e-10
-1.35955e-12
-1.59962e-09
1.36045e-12
-8.73108e-10
-2.83448e-12
-1.59963e-09
-2.22067e-12
-9.80019e-10
-9.94572e-13
-1.47088e-09
-1.42501e-12
-1.05825e-09
1.4239e-12
-1.407e-09
-1.05823e-09
2.10679e-12
-1.47201e-09
2.69636e-12
-9.80595e-10
-1.33316e-12
-1.59559e-09
1.33403e-12
-8.75775e-10
-2.69613e-12
-1.5956e-09
-2.10703e-12
-9.80608e-10
-9.60289e-13
-1.47203e-09
-1.37781e-12
-1.05783e-09
1.37671e-12
-1.40976e-09
-1.05781e-09
1.99807e-12
-1.47308e-09
2.5635e-12
-9.8116e-10
-1.30595e-12
-1.59172e-09
1.30681e-12
-8.78388e-10
-2.56327e-12
-1.59173e-09
-1.9983e-12
-9.81173e-10
-9.26643e-13
-1.4731e-09
-1.33165e-12
-1.05743e-09
1.33056e-12
-1.41242e-09
-1.05741e-09
1.89421e-12
-1.47408e-09
2.43604e-12
-9.81702e-10
-1.27806e-12
-1.58801e-09
1.27889e-12
-8.80945e-10
-2.4358e-12
-1.58802e-09
-1.89445e-12
-9.81714e-10
-8.93694e-13
-1.4741e-09
-1.28661e-12
-1.05704e-09
1.28552e-12
-1.41499e-09
-1.05702e-09
1.79518e-12
-1.47502e-09
2.31387e-12
-9.8222e-10
-1.24962e-12
-1.58444e-09
1.25042e-12
-8.83445e-10
-2.31362e-12
-1.58446e-09
-1.79542e-12
-9.82233e-10
-8.61498e-13
-1.47503e-09
-1.24276e-12
-1.05665e-09
1.24168e-12
-1.41747e-09
-1.05664e-09
1.70092e-12
-1.47589e-09
2.19687e-12
-9.82716e-10
-1.22076e-12
-1.58103e-09
1.22154e-12
-8.85887e-10
-2.19663e-12
-1.58104e-09
-1.70116e-12
-9.82728e-10
-8.30104e-13
-1.4759e-09
-1.20017e-12
-1.05628e-09
1.1991e-12
-1.41987e-09
-1.05627e-09
1.61137e-12
-1.4767e-09
2.08495e-12
-9.8319e-10
-1.19164e-12
-1.57775e-09
1.19239e-12
-8.88271e-10
-2.08471e-12
-1.57776e-09
-1.61162e-12
-9.83201e-10
-7.99553e-13
-1.47672e-09
-1.15894e-12
-1.05592e-09
1.15788e-12
-1.42219e-09
-1.05591e-09
1.52648e-12
-1.47746e-09
1.97797e-12
-9.83641e-10
-1.16242e-12
-1.57461e-09
1.16313e-12
-8.90597e-10
-1.97773e-12
-1.57462e-09
-1.52674e-12
-9.83652e-10
-7.69886e-13
-1.47747e-09
-1.11914e-12
-1.05558e-09
1.1181e-12
-1.42443e-09
-1.05556e-09
1.4462e-12
-1.47817e-09
1.8758e-12
-9.84071e-10
-1.13328e-12
-1.5716e-09
1.13395e-12
-8.92864e-10
-1.87558e-12
-1.57161e-09
-1.44646e-12
-9.84081e-10
-7.41139e-13
-1.47818e-09
-1.08085e-12
-1.05524e-09
1.07983e-12
-1.42659e-09
-1.05522e-09
1.37048e-12
-1.47882e-09
1.77834e-12
-9.84479e-10
-1.10439e-12
-1.56872e-09
1.10502e-12
-8.95073e-10
-1.77813e-12
-1.56873e-09
-1.37074e-12
-9.84489e-10
-7.13348e-13
-1.47884e-09
-1.04416e-12
-1.0549e-09
1.04317e-12
-1.42868e-09
-1.05489e-09
1.29929e-12
-1.47944e-09
1.68544e-12
-9.84865e-10
-1.07596e-12
-1.56596e-09
1.07653e-12
-8.97226e-10
-1.68525e-12
-1.56597e-09
-1.29955e-12
-9.84874e-10
-6.8655e-13
-1.47945e-09
-1.00917e-12
-1.05458e-09
1.00821e-12
-1.43069e-09
-1.05457e-09
1.2326e-12
-1.48001e-09
1.59699e-12
-9.85229e-10
-1.04818e-12
-1.56331e-09
1.0487e-12
-8.99323e-10
-1.59682e-12
-1.56332e-09
-1.23286e-12
-9.85238e-10
-6.6079e-13
-1.48002e-09
-9.75972e-13
-1.05427e-09
9.75037e-13
-1.43264e-09
-1.05425e-09
1.17043e-12
-1.48054e-09
1.51289e-12
-9.85572e-10
-1.02125e-12
-1.56078e-09
1.02171e-12
-9.01366e-10
-1.51276e-12
-1.56079e-09
-1.17069e-12
-9.8558e-10
-6.36122e-13
-1.48055e-09
-9.44671e-13
-1.05396e-09
9.43771e-13
-1.43453e-09
-1.05394e-09
1.11282e-12
-1.48105e-09
1.43308e-12
-9.85892e-10
-9.95378e-13
-1.55835e-09
9.95772e-13
-9.03357e-10
-1.43298e-12
-1.55836e-09
-1.11308e-12
-9.859e-10
-6.12612e-13
-1.48106e-09
-9.15386e-13
-1.05366e-09
9.14524e-13
-1.43636e-09
-1.05364e-09
1.05983e-12
-1.48152e-09
1.35754e-12
-9.8619e-10
-9.70743e-13
-1.55602e-09
9.71071e-13
-9.05299e-10
-1.35747e-12
-1.55603e-09
-1.06009e-12
-9.86198e-10
-5.90339e-13
-1.48153e-09
-8.88251e-13
-1.05336e-09
8.8743e-13
-1.43814e-09
-1.05334e-09
1.01161e-12
-1.48196e-09
1.2863e-12
-9.86465e-10
-9.47518e-13
-1.55379e-09
9.47779e-13
-9.07194e-10
-1.28627e-12
-1.55379e-09
-1.01187e-12
-9.86472e-10
-5.69401e-13
-1.48197e-09
-8.63419e-13
-1.05306e-09
8.62639e-13
-1.43986e-09
-1.05305e-09
9.68329e-13
-1.48238e-09
1.21948e-12
-9.86716e-10
-9.25848e-13
-1.55164e-09
9.26041e-13
-9.09046e-10
-1.21949e-12
-1.55165e-09
-9.68589e-13
-9.86723e-10
-5.49908e-13
-1.48239e-09
-8.41069e-13
-1.05277e-09
8.40331e-13
-1.44155e-09
-1.05276e-09
9.30236e-13
-1.48278e-09
1.15731e-12
-9.86943e-10
-9.05843e-13
-1.54958e-09
9.05971e-13
-9.10858e-10
-1.15735e-12
-1.54958e-09
-9.30495e-13
-9.8695e-10
-5.31979e-13
-1.48278e-09
-8.21412e-13
-1.05248e-09
8.20714e-13
-1.44319e-09
-1.05247e-09
8.97633e-13
-1.48316e-09
1.1001e-12
-9.87145e-10
-8.8758e-13
-1.54759e-09
8.87647e-13
-9.12633e-10
-1.10018e-12
-1.5476e-09
-8.97892e-13
-9.87152e-10
-5.1573e-13
-1.48317e-09
-8.04702e-13
-1.05219e-09
8.04041e-13
-1.4448e-09
-1.05218e-09
8.70882e-13
-1.48353e-09
1.0483e-12
-9.87323e-10
-8.71092e-13
-1.54567e-09
8.71106e-13
-9.14375e-10
-1.04842e-12
-1.54568e-09
-8.71141e-13
-9.87329e-10
-5.01261e-13
-1.48354e-09
-7.91237e-13
-1.0519e-09
7.90609e-13
-1.44638e-09
-1.05189e-09
8.50385e-13
-1.48389e-09
1.00245e-12
-9.87475e-10
-8.56362e-13
-1.54381e-09
8.5633e-13
-9.16088e-10
-1.0026e-12
-1.54382e-09
-8.50645e-13
-9.87481e-10
-4.88635e-13
-1.4839e-09
-7.81363e-13
-1.05161e-09
7.80762e-13
-1.44794e-09
-1.0516e-09
8.36576e-13
-1.48425e-09
9.63166e-13
-9.87601e-10
-8.43299e-13
-1.54201e-09
8.4323e-13
-9.17774e-10
-9.63342e-13
-1.54201e-09
-8.36837e-13
-9.87608e-10
-4.77864e-13
-1.48426e-09
-7.75459e-13
-1.05131e-09
7.7488e-13
-1.44949e-09
-1.0513e-09
8.29938e-13
-1.48461e-09
9.31073e-13
-9.87702e-10
-8.31787e-13
-1.54024e-09
8.31692e-13
-9.19438e-10
-9.31268e-13
-1.54025e-09
-8.30201e-13
-9.87709e-10
-4.68896e-13
-1.48462e-09
-7.73978e-13
-1.05101e-09
7.73413e-13
-1.45104e-09
-1.051e-09
8.31054e-13
-1.48498e-09
9.07059e-13
-9.87778e-10
-8.22125e-13
-1.53851e-09
8.22013e-13
-9.21082e-10
-9.07267e-13
-1.53852e-09
-8.31319e-13
-9.87785e-10
-4.61521e-13
-1.48499e-09
-7.7771e-13
-1.05069e-09
7.77151e-13
-1.45259e-09
-1.05068e-09
8.28025e-13
9.07477e-13
-8.29889e-13
8.29768e-13
-9.07695e-13
-8.28289e-13
-4.63285e-13
-7.76791e-13
7.76237e-13
)
;

boundaryField
{
    BotWall
    {
        type            calculated;
        value           nonuniform List<scalar> 10(7.72239e-10 2.6914e-12 5.01977e-10 7.7231e-18 5.01974e-10 2.69144e-12 7.72238e-10 2.17257e-10 1.4103e-13 2.17257e-10);
    }
    FreeStream
    {
        type            calculated;
        value           nonuniform List<scalar> 10(-1.48534e-09 -9.87858e-10 -1.53678e-09 -9.22742e-10 -1.53678e-09 -9.87864e-10 -1.48535e-09 -1.05038e-09 -1.45415e-09 -1.05037e-09);
    }
    FrontNBack
    {
        type            empty;
        value           nonuniform 0();
    }
    LeftSide
    {
        type            cyclic;
        value           nonuniform List<scalar> 
100
(
5.09958e-11
1.81509e-12
-7.94647e-12
-5.95268e-12
-4.52541e-12
-3.3786e-12
-2.45782e-12
-1.73363e-12
-1.16876e-12
-7.2861e-13
-3.83079e-13
-9.04072e-14
7.17652e-14
1.54335e-13
2.01334e-13
2.1922e-13
2.12495e-13
1.85847e-13
1.46195e-13
9.45252e-14
1.50811e-14
-7.25395e-14
-2.01579e-13
-3.2482e-13
-4.42193e-13
-5.55634e-13
-6.65272e-13
-7.70808e-13
-8.71853e-13
-9.68037e-13
-1.05904e-12
-1.14463e-12
-1.2246e-12
-1.29884e-12
-1.36729e-12
-1.42992e-12
-1.48675e-12
-1.53786e-12
-1.58333e-12
-1.62327e-12
-1.65783e-12
-1.68718e-12
-1.71148e-12
-1.73093e-12
-1.74572e-12
-1.75607e-12
-1.76218e-12
-1.76427e-12
-1.76256e-12
-1.75727e-12
-1.74862e-12
-1.73683e-12
-1.72211e-12
-1.70467e-12
-1.68473e-12
-1.66247e-12
-1.63811e-12
-1.61183e-12
-1.58382e-12
-1.55427e-12
-1.52333e-12
-1.49119e-12
-1.45801e-12
-1.42393e-12
-1.38912e-12
-1.35371e-12
-1.31784e-12
-1.28164e-12
-1.24524e-12
-1.20875e-12
-1.17228e-12
-1.13595e-12
-1.09986e-12
-1.06409e-12
-1.02874e-12
-9.93879e-13
-9.59591e-13
-9.25943e-13
-8.92994e-13
-8.60801e-13
-8.29412e-13
-7.98871e-13
-7.69218e-13
-7.40488e-13
-7.12719e-13
-6.85949e-13
-6.60222e-13
-6.35591e-13
-6.12121e-13
-5.89893e-13
-5.69002e-13
-5.49557e-13
-5.31675e-13
-5.15471e-13
-5.01042e-13
-4.88451e-13
-4.77708e-13
-4.68761e-13
-4.61399e-13
-4.63167e-13
)
;
    }
    RightSide
    {
        type            cyclic;
        value           nonuniform List<scalar> 
100
(
-5.09958e-11
-1.81509e-12
7.94647e-12
5.95268e-12
4.52541e-12
3.3786e-12
2.45782e-12
1.73363e-12
1.16876e-12
7.2861e-13
3.83079e-13
9.04072e-14
-7.17652e-14
-1.54335e-13
-2.01334e-13
-2.1922e-13
-2.12495e-13
-1.85847e-13
-1.46195e-13
-9.45252e-14
-1.50811e-14
7.25395e-14
2.01579e-13
3.2482e-13
4.42193e-13
5.55634e-13
6.65272e-13
7.70808e-13
8.71853e-13
9.68037e-13
1.05904e-12
1.14463e-12
1.2246e-12
1.29884e-12
1.36729e-12
1.42992e-12
1.48675e-12
1.53786e-12
1.58333e-12
1.62327e-12
1.65783e-12
1.68718e-12
1.71148e-12
1.73093e-12
1.74572e-12
1.75607e-12
1.76218e-12
1.76427e-12
1.76256e-12
1.75727e-12
1.74862e-12
1.73683e-12
1.72211e-12
1.70467e-12
1.68473e-12
1.66247e-12
1.63811e-12
1.61183e-12
1.58382e-12
1.55427e-12
1.52333e-12
1.49119e-12
1.45801e-12
1.42393e-12
1.38912e-12
1.35371e-12
1.31784e-12
1.28164e-12
1.24524e-12
1.20875e-12
1.17228e-12
1.13595e-12
1.09986e-12
1.06409e-12
1.02874e-12
9.93879e-13
9.59591e-13
9.25943e-13
8.92994e-13
8.60801e-13
8.29412e-13
7.98871e-13
7.69218e-13
7.40488e-13
7.12719e-13
6.85949e-13
6.60222e-13
6.35591e-13
6.12121e-13
5.89893e-13
5.69002e-13
5.49557e-13
5.31675e-13
5.15471e-13
5.01042e-13
4.88451e-13
4.77708e-13
4.68761e-13
4.61399e-13
4.63167e-13
)
;
    }
}


// ************************************************************************* //
