/*--------------------------------*- C++ -*----------------------------------*\
| =========                 |                                                 |
| \\      /  F ield         | OpenFOAM: The Open Source CFD Toolbox           |
|  \\    /   O peration     | Version:  2.4.0                                 |
|   \\  /    A nd           | Web:      www.OpenFOAM.org                      |
|    \\/     M anipulation  |                                                 |
\*---------------------------------------------------------------------------*/
FoamFile
{
    version     2.0;
    format      ascii;
    class       volScalarField;
    location    "0.2";
    object      T;
}
// * * * * * * * * * * * * * * * * * * * * * * * * * * * * * * * * * * * * * //

dimensions      [0 0 0 1 0 0 0];

internalField   nonuniform List<scalar> 
1000
(
296.929
294.903
297.019
293.827
297.019
294.903
296.929
297.432
294.413
297.432
296.97
295.002
296.818
293.908
296.818
295.002
296.97
297.383
296.69
297.383
297.016
295.272
296.865
294.101
296.865
295.272
297.016
297.413
296.723
297.413
297.064
295.511
296.92
294.353
296.92
295.511
297.064
297.443
296.821
297.443
297.113
295.724
296.979
294.594
296.979
295.724
297.113
297.472
296.913
297.472
297.162
295.915
297.04
294.823
297.04
295.915
297.162
297.5
296.997
297.5
297.211
296.087
297.1
295.04
297.1
296.087
297.21
297.528
297.076
297.528
297.258
296.243
297.159
295.244
297.159
296.242
297.258
297.554
297.15
297.554
297.304
296.384
297.216
295.436
297.216
296.384
297.304
297.58
297.218
297.58
297.349
296.514
297.271
295.616
297.271
296.514
297.349
297.605
297.281
297.605
297.392
296.632
297.322
295.784
297.322
296.632
297.391
297.628
297.34
297.628
297.432
296.741
297.37
295.942
297.37
296.741
297.432
297.651
297.395
297.651
297.471
296.841
297.415
296.089
297.415
296.841
297.471
297.673
297.445
297.673
297.508
296.934
297.458
296.227
297.458
296.934
297.508
297.693
297.492
297.693
297.543
297.019
297.497
296.355
297.497
297.019
297.543
297.713
297.535
297.713
297.576
297.098
297.534
296.475
297.534
297.098
297.576
297.732
297.575
297.732
297.607
297.171
297.568
296.587
297.568
297.171
297.607
297.75
297.612
297.75
297.636
297.238
297.599
296.691
297.599
297.238
297.636
297.766
297.646
297.766
297.663
297.301
297.629
296.788
297.629
297.3
297.663
297.782
297.677
297.782
297.688
297.358
297.656
296.879
297.656
297.358
297.688
297.798
297.706
297.797
297.712
297.412
297.682
296.964
297.682
297.412
297.712
297.812
297.733
297.812
297.735
297.461
297.705
297.042
297.705
297.461
297.735
297.825
297.757
297.825
297.755
297.506
297.727
297.116
297.727
297.506
297.755
297.838
297.779
297.838
297.775
297.548
297.748
297.184
297.748
297.548
297.775
297.85
297.8
297.85
297.793
297.587
297.767
297.248
297.767
297.587
297.793
297.861
297.818
297.861
297.81
297.622
297.785
297.307
297.785
297.622
297.81
297.871
297.835
297.871
297.826
297.655
297.802
297.362
297.802
297.655
297.826
297.881
297.851
297.881
297.84
297.685
297.817
297.413
297.817
297.685
297.84
297.89
297.865
297.89
297.854
297.712
297.831
297.461
297.831
297.712
297.854
297.899
297.878
297.899
297.866
297.738
297.845
297.505
297.845
297.738
297.866
297.906
297.889
297.906
297.878
297.761
297.857
297.546
297.857
297.761
297.878
297.914
297.9
297.914
297.889
297.782
297.869
297.584
297.869
297.782
297.889
297.921
297.91
297.921
297.898
297.802
297.879
297.619
297.879
297.802
297.898
297.927
297.918
297.927
297.908
297.82
297.889
297.651
297.889
297.82
297.908
297.933
297.926
297.933
297.916
297.836
297.898
297.681
297.898
297.836
297.916
297.939
297.934
297.939
297.924
297.851
297.907
297.709
297.907
297.851
297.924
297.944
297.94
297.944
297.931
297.865
297.914
297.734
297.914
297.865
297.931
297.949
297.946
297.949
297.937
297.877
297.922
297.758
297.922
297.877
297.937
297.953
297.952
297.953
297.943
297.889
297.928
297.779
297.928
297.889
297.943
297.957
297.956
297.957
297.948
297.899
297.934
297.799
297.934
297.899
297.948
297.961
297.961
297.961
297.953
297.909
297.94
297.817
297.94
297.909
297.953
297.964
297.965
297.964
297.958
297.918
297.945
297.834
297.945
297.918
297.958
297.967
297.968
297.967
297.962
297.925
297.95
297.849
297.95
297.925
297.962
297.97
297.972
297.97
297.966
297.933
297.954
297.863
297.954
297.933
297.966
297.973
297.975
297.973
297.969
297.939
297.958
297.876
297.958
297.939
297.969
297.975
297.977
297.975
297.972
297.945
297.962
297.887
297.962
297.945
297.972
297.978
297.98
297.978
297.975
297.95
297.966
297.898
297.966
297.95
297.975
297.98
297.982
297.98
297.977
297.955
297.969
297.908
297.969
297.955
297.977
297.982
297.984
297.982
297.98
297.96
297.972
297.917
297.972
297.96
297.98
297.983
297.985
297.983
297.982
297.964
297.974
297.925
297.974
297.964
297.982
297.985
297.987
297.985
297.984
297.967
297.977
297.932
297.977
297.967
297.984
297.986
297.988
297.986
297.985
297.971
297.979
297.939
297.979
297.971
297.985
297.988
297.99
297.988
297.987
297.974
297.981
297.945
297.981
297.974
297.987
297.989
297.991
297.989
297.988
297.976
297.983
297.95
297.983
297.976
297.988
297.99
297.992
297.99
297.99
297.979
297.984
297.955
297.984
297.979
297.99
297.991
297.993
297.991
297.991
297.981
297.986
297.96
297.986
297.981
297.991
297.992
297.993
297.992
297.992
297.983
297.987
297.964
297.987
297.983
297.992
297.993
297.994
297.993
297.993
297.985
297.988
297.968
297.988
297.985
297.993
297.993
297.995
297.993
297.993
297.986
297.99
297.971
297.99
297.986
297.993
297.994
297.995
297.994
297.994
297.988
297.991
297.974
297.991
297.988
297.994
297.995
297.996
297.995
297.995
297.989
297.992
297.977
297.992
297.989
297.995
297.995
297.996
297.995
297.995
297.99
297.992
297.979
297.992
297.99
297.995
297.996
297.997
297.996
297.996
297.991
297.993
297.981
297.993
297.991
297.996
297.996
297.997
297.996
297.996
297.992
297.994
297.983
297.994
297.992
297.996
297.997
297.997
297.997
297.997
297.993
297.995
297.985
297.995
297.993
297.997
297.997
297.998
297.997
297.997
297.994
297.995
297.987
297.995
297.994
297.997
297.997
297.998
297.997
297.997
297.995
297.996
297.988
297.996
297.995
297.997
297.998
297.998
297.998
297.998
297.995
297.996
297.99
297.996
297.995
297.998
297.998
297.998
297.998
297.998
297.996
297.997
297.991
297.997
297.996
297.998
297.998
297.999
297.998
297.998
297.996
297.997
297.992
297.997
297.996
297.998
297.998
297.999
297.998
297.998
297.997
297.997
297.993
297.997
297.997
297.998
297.999
297.999
297.999
297.999
297.997
297.998
297.994
297.998
297.997
297.999
297.999
297.999
297.999
297.999
297.997
297.998
297.994
297.998
297.997
297.999
297.999
297.999
297.999
297.999
297.998
297.998
297.995
297.998
297.998
297.999
297.999
297.999
297.999
297.999
297.998
297.998
297.996
297.998
297.998
297.999
297.999
297.999
297.999
297.999
297.998
297.999
297.996
297.999
297.998
297.999
297.999
297.999
297.999
297.999
297.998
297.999
297.997
297.999
297.998
297.999
297.999
298
297.999
297.999
297.999
297.999
297.997
297.999
297.999
297.999
297.999
298
297.999
297.999
297.999
297.999
297.997
297.999
297.999
297.999
297.999
298
297.999
298
297.999
297.999
297.998
297.999
297.999
298
298
298
298
298
297.999
297.999
297.998
297.999
297.999
298
298
298
298
298
297.999
297.999
297.998
297.999
297.999
298
298
298
298
298
297.999
297.999
297.999
297.999
297.999
298
298
298
298
298
297.999
297.999
297.999
297.999
297.999
298
298
298
298
298
297.999
298
297.999
298
297.999
298
298
298
298
298
298
298
297.999
298
298
298
298
298
298
298
298
298
297.999
298
298
298
298
298
298
298
298
298
297.999
298
298
298
298
298
298
298
298
298
297.999
298
298
298
298
298
298
298
298
298
297.999
298
298
298
298
298
298
298
298
298
298
298
298
298
298
298
298
298
298
298
298
298
298
298
298
298
298
298
298
298
298
298
298
298
298
298
298
298
298
298
298
298
298
298
298
298
298
298
298
298
298
298
298
298
298
298
298
298
298
298
298
298
298
298
298
298
298
298
298
298
298
298
298
298
298
298
298
298
298
298
298
298
298
298
298
298
298
298
298
298
298
298
298
298
298
298
298
298
298
298
298
298
298
298
298
298
298
)
;

boundaryField
{
    BotWall
    {
        type            fixedValue;
        value           uniform 293;
    }
    FreeStream
    {
        type            fixedValue;
        value           uniform 298;
    }
    FrontNBack
    {
        type            empty;
    }
    LeftSide
    {
        type            cyclic;
    }
    RightSide
    {
        type            cyclic;
    }
}


// ************************************************************************* //
