/*--------------------------------*- C++ -*----------------------------------*\
| =========                 |                                                 |
| \\      /  F ield         | OpenFOAM: The Open Source CFD Toolbox           |
|  \\    /   O peration     | Version:  2.4.0                                 |
|   \\  /    A nd           | Web:      www.OpenFOAM.org                      |
|    \\/     M anipulation  |                                                 |
\*---------------------------------------------------------------------------*/
FoamFile
{
    version     2.0;
    format      ascii;
    class       volVectorField;
    location    "0.2";
    object      U;
}
// * * * * * * * * * * * * * * * * * * * * * * * * * * * * * * * * * * * * * //

dimensions      [0 1 -1 0 0 0 0];

internalField   nonuniform List<vector> 
1000
(
(0.00308001 -0.0161443 0)
(-0.0300548 -0.00349411 0)
(-0.000680289 -0.0143106 0)
(-3.25392e-08 9.20921e-05 0)
(0.000680296 -0.0143106 0)
(0.0300548 -0.00349409 0)
(-0.00308011 -0.0161442 0)
(0.0437803 -0.00808585 0)
(3.86259e-10 0.000777737 0)
(-0.0437803 -0.00808585 0)
(0.00338783 -0.0177388 0)
(-0.0297787 -0.0106819 0)
(-0.0341174 -0.0221998 0)
(-5.06747e-08 3.78281e-05 0)
(0.0341174 -0.0221998 0)
(0.0297788 -0.0106819 0)
(-0.00338821 -0.0177387 0)
(-0.00246476 -0.013305 0)
(1.20649e-09 -0.00144046 0)
(0.00246476 -0.013305 0)
(0.00193815 -0.0153521 0)
(-0.0256827 -0.0154358 0)
(-0.0278972 -0.0211209 0)
(-1.17507e-07 -0.00198415 0)
(0.0278972 -0.0211209 0)
(0.0256831 -0.0154358 0)
(-0.00193881 -0.0153521 0)
(-0.00225435 -0.0128037 0)
(6.71786e-09 -0.00951534 0)
(0.0022544 -0.0128037 0)
(0.000894867 -0.0139786 0)
(-0.0219386 -0.010508 0)
(-0.0227658 -0.0203164 0)
(-2.76207e-07 -0.00333465 0)
(0.0227658 -0.0203164 0)
(0.0219393 -0.0105079 0)
(-0.000895751 -0.0139786 0)
(-0.00234414 -0.0119039 0)
(6.02566e-08 -0.0146311 0)
(0.00234424 -0.0119039 0)
(0.000101536 -0.0135022 0)
(-0.0185384 -0.00948759 0)
(-0.0185608 -0.0204507 0)
(-4.19419e-07 -0.0037269 0)
(0.0185608 -0.0204508 0)
(0.0185393 -0.0094875 0)
(-0.000102593 -0.0135022 0)
(-0.00230865 -0.0117188 0)
(1.0734e-07 -0.010399 0)
(0.0023088 -0.0117188 0)
(-0.000506251 -0.0132264 0)
(-0.0154706 -0.00928761 0)
(-0.0151205 -0.0208025 0)
(-5.44444e-07 -0.00424032 0)
(0.0151205 -0.0208026 0)
(0.0154718 -0.0092875 0)
(0.000505069 -0.0132264 0)
(-0.00225158 -0.0117514 0)
(1.4777e-07 -0.00984256 0)
(0.00225178 -0.0117513 0)
(-0.000970985 -0.0129594 0)
(-0.0127162 -0.0091956 0)
(-0.0123159 -0.0210848 0)
(-6.49127e-07 -0.00473922 0)
(0.0123158 -0.021085 0)
(0.0127175 -0.00919547 0)
(0.000969723 -0.0129594 0)
(-0.00219603 -0.0117757 0)
(1.81926e-07 -0.010001 0)
(0.00219629 -0.0117756 0)
(-0.00132186 -0.0127085 0)
(-0.0102529 -0.00905563 0)
(-0.0100402 -0.0212863 0)
(-7.32051e-07 -0.00516414 0)
(0.0100401 -0.0212865 0)
(0.0102544 -0.00905547 0)
(0.00132056 -0.0127084 0)
(-0.00214729 -0.0117663 0)
(2.10368e-07 -0.0101989 0)
(0.00214759 -0.0117661 0)
(-0.00158262 -0.012494 0)
(-0.00805759 -0.00892408 0)
(-0.00820017 -0.0214377 0)
(-7.92564e-07 -0.00550975 0)
(0.00820006 -0.0214379 0)
(0.00805911 -0.0089239 0)
(0.00158133 -0.0124939 0)
(-0.00210349 -0.0117425 0)
(2.33671e-07 -0.0102996 0)
(0.00210385 -0.0117423 0)
(-0.00177257 -0.0123188 0)
(-0.00610735 -0.00882537 0)
(-0.00671598 -0.0215531 0)
(-8.30762e-07 -0.00579322 0)
(0.00671583 -0.0215534 0)
(0.00610889 -0.00882517 0)
(0.00177131 -0.0123187 0)
(-0.00206373 -0.0117143 0)
(2.52392e-07 -0.0103675 0)
(0.00206413 -0.0117141 0)
(-0.00190697 -0.0121786 0)
(-0.00438024 -0.00875701 0)
(-0.0055205 -0.0216369 0)
(-8.47446e-07 -0.00602898 0)
(0.00552031 -0.0216372 0)
(0.00438176 -0.00875678 0)
(0.00190578 -0.0121784 0)
(-0.00202786 -0.0116837 0)
(2.67055e-07 -0.0104342 0)
(0.00202831 -0.0116835 0)
(-0.00199781 -0.0120689 0)
(-0.00285553 -0.00871117 0)
(-0.00455791 -0.0216916 0)
(-8.44042e-07 -0.00622672 0)
(0.00455767 -0.021692 0)
(0.002857 -0.00871093 0)
(0.00199671 -0.0120688 0)
(-0.00199582 -0.0116507 0)
(2.78162e-07 -0.0105037 0)
(0.0019963 -0.0116505 0)
(-0.00205438 -0.0119863 0)
(-0.00151394 -0.00868221 0)
(-0.00378221 -0.0217202 0)
(-8.225e-07 -0.00639351 0)
(0.00378194 -0.0217206 0)
(0.00151533 -0.00868196 0)
(0.00205339 -0.0119861 0)
(-0.00196739 -0.0116158 0)
(2.86204e-07 -0.0105737 0)
(0.00196791 -0.0116155 0)
(-0.00208395 -0.0119273 0)
(-0.000337743 -0.00866635 0)
(-0.00315583 -0.0217256 0)
(-7.85177e-07 -0.00653501 0)
(0.00315551 -0.0217261 0)
(0.000339026 -0.00866608 0)
(0.00208309 -0.0119271 0)
(-0.00194227 -0.0115799 0)
(2.91434e-07 -0.0106431 0)
(0.00194283 -0.0115796 0)
(-0.00209216 -0.0118894 0)
(0.00068921 -0.00866039 0)
(-0.0026483 -0.0217109 0)
(-7.34709e-07 -0.00665588 0)
(0.00264794 -0.0217114 0)
(-0.000688055 -0.00866011 0)
(0.00209144 -0.0118892 0)
(-0.00192012 -0.0115437 0)
(2.94099e-07 -0.0107119 0)
(0.0019207 -0.0115433 0)
(-0.00208334 -0.0118705 0)
(0.00158157 -0.00866131 0)
(-0.00223516 -0.021679 0)
(-6.73879e-07 -0.00675983 0)
(0.00223475 -0.0216796 0)
(-0.00158056 -0.00866103 0)
(0.00208277 -0.0118703 0)
(-0.00190054 -0.0115073 0)
(2.94532e-07 -0.0107803 0)
(0.00190115 -0.0115069 0)
(-0.00206082 -0.0118687 0)
(0.00235258 -0.00866788 0)
(-0.00189691 -0.0216315 0)
(-6.05499e-07 -0.00684984 0)
(0.00189647 -0.0216321 0)
(-0.00235171 -0.00866759 0)
(0.00206039 -0.0118684 0)
(-0.00188313 -0.011471 0)
(2.93002e-07 -0.0108484 0)
(0.00188376 -0.0114706 0)
(-0.00202727 -0.0118809 0)
(0.00301467 -0.0086807 0)
(-0.00161847 -0.0215692 0)
(-5.32347e-07 -0.00692829 0)
(0.00161799 -0.0215699 0)
(-0.00301396 -0.00868042 0)
(0.00202699 -0.0118807 0)
(-0.00186746 -0.011435 0)
(2.89735e-07 -0.0109164 0)
(0.0018681 -0.0114346 0)
(-0.00198532 -0.0119048 0)
(0.00357967 -0.0086993 0)
(-0.0013882 -0.021494 0)
(-4.56986e-07 -0.00699708 0)
(0.0013877 -0.0214947 0)
(-0.00357912 -0.00869902 0)
(0.00198518 -0.0119046 0)
(-0.00185316 -0.0113994 0)
(2.84955e-07 -0.0109842 0)
(0.00185382 -0.011399 0)
(-0.0019371 -0.0119391 0)
(0.00405824 -0.00872208 0)
(-0.00119695 -0.0214078 0)
(-3.81704e-07 -0.00705779 0)
(0.00119643 -0.0214086 0)
(-0.00405784 -0.00872181 0)
(0.00193709 -0.0119388 0)
(-0.00183989 -0.0113644 0)
(2.79013e-07 -0.0110518 0)
(0.00184055 -0.0113639 0)
(-0.00188434 -0.0119824 0)
(0.00445998 -0.00874785 0)
(-0.00103757 -0.0213124 0)
(-3.08461e-07 -0.00711167 0)
(0.00103703 -0.0213132 0)
(-0.00445972 -0.00874759 0)
(0.00188445 -0.0119822 0)
(-0.00182732 -0.01133 0)
(2.71867e-07 -0.0111194 0)
(0.00182797 -0.0113295 0)
(-0.00182845 -0.0120335 0)
(0.00479345 -0.00877583 0)
(-0.000904442 -0.021209 0)
(-2.38855e-07 -0.0071598 0)
(0.000903885 -0.0212098 0)
(-0.00479332 -0.00877558 0)
(0.00182865 -0.0120332 0)
(-0.00181514 -0.0112964 0)
(2.6364e-07 -0.011187 0)
(0.00181578 -0.011296 0)
(-0.00177057 -0.0120909 0)
(0.00506632 -0.00880546 0)
(-0.000793146 -0.0210989 0)
(-1.74108e-07 -0.00720306 0)
(0.000792581 -0.0210998 0)
(-0.00506631 -0.00880523 0)
(0.00177086 -0.0120907 0)
(-0.00180312 -0.011264 0)
(2.54459e-07 -0.0112545 0)
(0.00180375 -0.0112636 0)
(-0.00171165 -0.0121536 0)
(0.00528543 -0.00883628 0)
(-0.000700182 -0.0209833 0)
(-1.15075e-07 -0.00724219 0)
(0.000699613 -0.0209841 0)
(-0.00528553 -0.00883606 0)
(0.00171202 -0.0121534 0)
(-0.00179107 -0.0112329 0)
(2.44333e-07 -0.0113219 0)
(0.00179168 -0.0112325 0)
(-0.00165245 -0.0122206 0)
(0.00545688 -0.00886792 0)
(-0.000622748 -0.0208629 0)
(-6.22652e-08 -0.00727785 0)
(0.00062218 -0.0208637 0)
(-0.00545707 -0.00886773 0)
(0.00165287 -0.0122204 0)
(-0.0017788 -0.0112031 0)
(2.33402e-07 -0.0113893 0)
(0.00177939 -0.0112026 0)
(-0.00159355 -0.0122912 0)
(0.00558612 -0.00890008 0)
(-0.000558576 -0.0207388 0)
(-1.58803e-08 -0.00731057 0)
(0.000558013 -0.0207396 0)
(-0.0055864 -0.0088999 0)
(0.00159402 -0.0122911 0)
(-0.00176618 -0.0111744 0)
(2.21807e-07 -0.0114566 0)
(0.00176674 -0.0111739 0)
(-0.00153544 -0.0123647 0)
(0.00567804 -0.00893249 0)
(-0.000505804 -0.0206116 0)
(2.41394e-08 -0.00734086 0)
(0.000505251 -0.0206124 0)
(-0.00567838 -0.00893234 0)
(0.00153593 -0.0123645 0)
(-0.00175309 -0.0111469 0)
(2.09669e-07 -0.0115238 0)
(0.00175362 -0.0111465 0)
(-0.00147848 -0.0124404 0)
(0.00573698 -0.00896495 0)
(-0.000462877 -0.0204822 0)
(5.80643e-08 -0.00736914 0)
(0.000462337 -0.020483 0)
(-0.00573737 -0.00896482 0)
(0.00147899 -0.0124402 0)
(-0.00173943 -0.0111205 0)
(1.97096e-07 -0.0115909 0)
(0.00173994 -0.0111201 0)
(-0.00142296 -0.0125177 0)
(0.00576686 -0.00899727 0)
(-0.000428476 -0.020351 0)
(8.63228e-08 -0.00739578 0)
(0.000427952 -0.0203518 0)
(-0.00576729 -0.00899716 0)
(0.00142349 -0.0125176 0)
(-0.00172514 -0.0110953 0)
(1.84191e-07 -0.0116578 0)
(0.00172561 -0.0110948 0)
(-0.0013691 -0.0125961 0)
(0.00577118 -0.00902931 0)
(-0.000401465 -0.0202187 0)
(1.09451e-07 -0.00742113 0)
(0.000400961 -0.0202194 0)
(-0.00577165 -0.00902922 0)
(0.00136963 -0.012596 0)
(-0.00171016 -0.0110711 0)
(1.71049e-07 -0.0117246 0)
(0.0017106 -0.0110707 0)
(-0.00131706 -0.0126751 0)
(0.0057531 -0.00906093 0)
(-0.000380854 -0.0200857 0)
(1.28049e-07 -0.00744549 0)
(0.000380371 -0.0200864 0)
(-0.00575359 -0.00906087 0)
(0.00131758 -0.0126751 0)
(-0.00169445 -0.0110479 0)
(1.57761e-07 -0.0117911 0)
(0.00169486 -0.0110475 0)
(-0.00126694 -0.0127544 0)
(0.00571545 -0.00909204 0)
(-0.000365766 -0.0199524 0)
(1.42735e-07 -0.00746911 0)
(0.000365305 -0.0199532 0)
(-0.00571595 -0.009092 0)
(0.00126745 -0.0127544 0)
(-0.00167799 -0.0110258 0)
(1.44409e-07 -0.0118575 0)
(0.00167836 -0.0110254 0)
(-0.00121881 -0.0128335 0)
(0.00566077 -0.00912256 0)
(-0.000355422 -0.0198194 0)
(1.54121e-07 -0.00749224 0)
(0.000354986 -0.0198201 0)
(-0.00566128 -0.00912254 0)
(0.0012193 -0.0128335 0)
(-0.00166076 -0.0110046 0)
(1.31068e-07 -0.0119235 0)
(0.0016611 -0.0110042 0)
(-0.00117271 -0.0129122 0)
(0.00559135 -0.0091524 0)
(-0.000349124 -0.0196868 0)
(1.62781e-07 -0.00751508 0)
(0.000348713 -0.0196875 0)
(-0.00559186 -0.0091524 0)
(0.00117318 -0.0129122 0)
(-0.00164276 -0.0109844 0)
(1.17808e-07 -0.0119892 0)
(0.00164307 -0.010984 0)
(-0.00112864 -0.0129901 0)
(0.00550927 -0.00918152 0)
(-0.000346246 -0.019555 0)
(1.69239e-07 -0.00753781 0)
(0.00034586 -0.0195557 0)
(-0.00550977 -0.00918154 0)
(0.00112909 -0.0129901 0)
(-0.00162399 -0.0109651 0)
(1.0469e-07 -0.0120546 0)
(0.00162427 -0.0109646 0)
(-0.0010866 -0.013067 0)
(0.00541636 -0.00920988 0)
(-0.000346224 -0.0194244 0)
(1.73954e-07 -0.00756057 0)
(0.000345864 -0.019425 0)
(-0.00541686 -0.00920991 0)
(0.00108702 -0.0130671 0)
(-0.00160447 -0.0109466 0)
(9.17694e-08 -0.0121195 0)
(0.00160471 -0.0109462 0)
(-0.00104654 -0.0131428 0)
(0.0053143 -0.00923743 0)
(-0.000348551 -0.019295 0)
(1.77317e-07 -0.00758351 0)
(0.000348217 -0.0192957 0)
(-0.00531478 -0.00923748 0)
(0.00104693 -0.0131428 0)
(-0.0015842 -0.0109289 0)
(7.90939e-08 -0.0121841 0)
(0.00158441 -0.0109285 0)
(-0.00100842 -0.0132171 0)
(0.00520458 -0.00926417 0)
(-0.000352773 -0.0191672 0)
(1.79653e-07 -0.00760671 0)
(0.000352465 -0.0191678 0)
(-0.00520505 -0.00926423 0)
(0.00100879 -0.0132172 0)
(-0.0015632 -0.010912 0)
(6.67055e-08 -0.0122481 0)
(0.00156339 -0.0109116 0)
(-0.000972173 -0.0132899 0)
(0.00508855 -0.00929007 0)
(-0.000358486 -0.0190411 0)
(1.81221e-07 -0.00763028 0)
(0.000358204 -0.0190417 0)
(-0.005089 -0.00929015 0)
(0.000972518 -0.01329 0)
(-0.0015415 -0.0108958 0)
(5.46398e-08 -0.0123117 0)
(0.00154166 -0.0108954 0)
(-0.000937742 -0.013361 0)
(0.00496739 -0.00931512 0)
(-0.000365329 -0.0189169 0)
(1.82223e-07 -0.00765429 0)
(0.000365071 -0.0189175 0)
(-0.00496782 -0.00931522 0)
(0.000938061 -0.0133612 0)
(-0.00151912 -0.0108804 0)
(4.29273e-08 -0.0123747 0)
(0.00151925 -0.01088 0)
(-0.000905045 -0.0134304 0)
(0.00484218 -0.00933933 0)
(-0.000372983 -0.0187946 0)
(1.8281e-07 -0.00767877 0)
(0.000372749 -0.0187952 0)
(-0.00484259 -0.00933944 0)
(0.000905339 -0.0134305 0)
(-0.0014961 -0.0108656 0)
(3.1593e-08 -0.0124371 0)
(0.0014962 -0.0108652 0)
(-0.000874002 -0.0134979 0)
(0.00471388 -0.00936271 0)
(-0.000381168 -0.0186746 0)
(1.83089e-07 -0.00770378 0)
(0.000380957 -0.0186751 0)
(-0.00471426 -0.00936283 0)
(0.000874273 -0.013498 0)
(-0.00147245 -0.0108514 0)
(2.06574e-08 -0.0124989 0)
(0.00147253 -0.0108511 0)
(-0.000844531 -0.0135634 0)
(0.00458332 -0.00938525 0)
(-0.000389638 -0.0185567 0)
(1.83132e-07 -0.00772934 0)
(0.00038945 -0.0185572 0)
(-0.00458368 -0.00938538 0)
(0.000844779 -0.0135635 0)
(-0.00144822 -0.0108379 0)
(1.01371e-08 -0.01256 0)
(0.00144828 -0.0108375 0)
(-0.000816546 -0.0136269 0)
(0.00445125 -0.00940698 0)
(-0.000398183 -0.0184411 0)
(1.82986e-07 -0.00775546 0)
(0.000398016 -0.0184417 0)
(-0.00445159 -0.00940712 0)
(0.000816772 -0.0136271 0)
(-0.00142344 -0.0108249 0)
(4.46945e-11 -0.0126204 0)
(0.00142348 -0.0108245 0)
(-0.000789963 -0.0136884 0)
(0.00431834 -0.0094279 0)
(-0.00040662 -0.018328 0)
(1.82675e-07 -0.00778214 0)
(0.000406473 -0.0183285 0)
(-0.00431866 -0.00942805 0)
(0.000790168 -0.0136886 0)
(-0.00139815 -0.0108124 0)
(-9.61027e-09 -0.0126801 0)
(0.00139817 -0.0108121 0)
(-0.000764694 -0.0137479 0)
(0.00418517 -0.00944805 0)
(-0.000414793 -0.0182173 0)
(1.82208e-07 -0.00780938 0)
(0.000414666 -0.0182178 0)
(-0.00418547 -0.0094482 0)
(0.00076488 -0.0137481 0)
(-0.00137238 -0.0108005 0)
(-1.88212e-08 -0.012739 0)
(0.00137239 -0.0108001 0)
(-0.000740658 -0.0138052 0)
(0.00405224 -0.00946743 0)
(-0.000422572 -0.018109 0)
(1.81586e-07 -0.00783717 0)
(0.000422464 -0.0181095 0)
(-0.00405252 -0.00946759 0)
(0.000740825 -0.0138054 0)
(-0.00134619 -0.010789 0)
(-2.7584e-08 -0.0127972 0)
(0.00134617 -0.0107886 0)
(-0.000717771 -0.0138605 0)
(0.00392001 -0.00948607 0)
(-0.00042985 -0.0180033 0)
(1.80802e-07 -0.00786549 0)
(0.000429758 -0.0180038 0)
(-0.00392028 -0.00948624 0)
(0.000717921 -0.0138607 0)
(-0.00131959 -0.010778 0)
(-3.58968e-08 -0.0128545 0)
(0.00131956 -0.0107776 0)
(-0.000695956 -0.0139137 0)
(0.00378886 -0.009504 0)
(-0.000436536 -0.0179001 0)
(1.79846e-07 -0.00789431 0)
(0.000436461 -0.0179006 0)
(-0.00378911 -0.00950417 0)
(0.000696089 -0.0139139 0)
(-0.00129265 -0.0107674 0)
(-4.37599e-08 -0.0129109 0)
(0.0012926 -0.010767 0)
(-0.000675134 -0.0139649 0)
(0.00365913 -0.00952123 0)
(-0.000442562 -0.0177995 0)
(1.78708e-07 -0.0079236 0)
(0.000442502 -0.0177999 0)
(-0.00365936 -0.00952141 0)
(0.000675252 -0.0139651 0)
(-0.0012654 -0.0107572 0)
(-5.1175e-08 -0.0129665 0)
(0.00126534 -0.0107569 0)
(-0.000655234 -0.014014 0)
(0.0035311 -0.00953779 0)
(-0.000447871 -0.0177014 0)
(1.77378e-07 -0.00795334 0)
(0.000447826 -0.0177018 0)
(-0.00353131 -0.00953798 0)
(0.000655337 -0.0140142 0)
(-0.00123787 -0.0107474 0)
(-5.81458e-08 -0.0130212 0)
(0.0012378 -0.0107471 0)
(-0.000636185 -0.0140611 0)
(0.00340503 -0.00955371 0)
(-0.000452423 -0.0176059 0)
(1.75846e-07 -0.00798347 0)
(0.000452391 -0.0176063 0)
(-0.00340523 -0.0095539 0)
(0.000636275 -0.0140613 0)
(-0.00121013 -0.0107379 0)
(-6.46772e-08 -0.0130749 0)
(0.00121004 -0.0107376 0)
(-0.000617922 -0.0141062 0)
(0.00328112 -0.00956902 0)
(-0.000456189 -0.017513 0)
(1.74107e-07 -0.00801397 0)
(0.00045617 -0.0175133 0)
(-0.0032813 -0.0095692 0)
(0.000617999 -0.0141064 0)
(-0.00118219 -0.0107288 0)
(-7.07756e-08 -0.0131277 0)
(0.0011821 -0.0107285 0)
(-0.000600382 -0.0141493 0)
(0.00315955 -0.00958372 0)
(-0.000459152 -0.0174226 0)
(1.72157e-07 -0.00804478 0)
(0.000459144 -0.0174229 0)
(-0.00315972 -0.00958391 0)
(0.000600448 -0.0141495 0)
(-0.00115412 -0.0107201 0)
(-7.64485e-08 -0.0131796 0)
(0.00115401 -0.0107198 0)
(-0.000583506 -0.0141906 0)
(0.00304046 -0.00959786 0)
(-0.000461302 -0.0173347 0)
(1.69995e-07 -0.00807588 0)
(0.000461305 -0.017335 0)
(-0.00304062 -0.00959805 0)
(0.000583562 -0.0141908 0)
(-0.00112594 -0.0107116 0)
(-8.17046e-08 -0.0132304 0)
(0.00112583 -0.0107113 0)
(-0.000567241 -0.0142299 0)
(0.00292399 -0.00961145 0)
(-0.000462639 -0.0172493 0)
(1.67622e-07 -0.00810721 0)
(0.000462652 -0.0172497 0)
(-0.00292413 -0.00961164 0)
(0.000567286 -0.0142302 0)
(-0.00109771 -0.0107034 0)
(-8.65539e-08 -0.0132802 0)
(0.00109759 -0.0107031 0)
(-0.000551536 -0.0142675 0)
(0.00281021 -0.00962452 0)
(-0.000463171 -0.0171665 0)
(1.65042e-07 -0.00813873 0)
(0.000463193 -0.0171668 0)
(-0.00281034 -0.00962471 0)
(0.000551571 -0.0142677 0)
(-0.00106945 -0.0106955 0)
(-9.10072e-08 -0.013329 0)
(0.00106932 -0.0106952 0)
(-0.000536342 -0.0143033 0)
(0.00269922 -0.00963708 0)
(-0.00046291 -0.017086 0)
(1.62262e-07 -0.0081704 0)
(0.00046294 -0.0170864 0)
(-0.00269934 -0.00963727 0)
(0.000536369 -0.0143035 0)
(-0.00104122 -0.0106879 0)
(-9.50764e-08 -0.0133768 0)
(0.00104108 -0.0106876 0)
(-0.000521617 -0.0143373 0)
(0.00259106 -0.00964916 0)
(-0.000461874 -0.0170081 0)
(1.5929e-07 -0.00820216 0)
(0.000461912 -0.0170084 0)
(-0.00259117 -0.00964936 0)
(0.000521636 -0.0143375 0)
(-0.00101304 -0.0106805 0)
(-9.87745e-08 -0.0134236 0)
(0.00101289 -0.0106802 0)
(-0.00050732 -0.0143697 0)
(0.00248579 -0.00966078 0)
(-0.000460085 -0.0169325 0)
(1.56137e-07 -0.00823398 0)
(0.000460131 -0.0169328 0)
(-0.00248589 -0.00966098 0)
(0.000507331 -0.0143699 0)
(-0.00098495 -0.0106733 0)
(-1.02115e-07 -0.0134693 0)
(0.000984803 -0.0106731 0)
(-0.000493414 -0.0144004 0)
(0.00238343 -0.00967196 0)
(-0.000457571 -0.0168592 0)
(1.52813e-07 -0.00826581 0)
(0.000457622 -0.0168595 0)
(-0.00238352 -0.00967215 0)
(0.000493419 -0.0144006 0)
(-0.000956995 -0.0106664 0)
(-1.05113e-07 -0.0135139 0)
(0.000956843 -0.0106662 0)
(-0.000479867 -0.0144296 0)
(0.00228399 -0.00968272 0)
(-0.000454359 -0.0167883 0)
(1.49332e-07 -0.0082976 0)
(0.000454416 -0.0167886 0)
(-0.00228408 -0.00968291 0)
(0.000479865 -0.0144298 0)
(-0.000929205 -0.0106597 0)
(-1.07784e-07 -0.0135574 0)
(0.000929049 -0.0106595 0)
(-0.000466647 -0.0144573 0)
(0.00218748 -0.00969307 0)
(-0.000450481 -0.0167197 0)
(1.45707e-07 -0.00832932 0)
(0.000450544 -0.01672 0)
(-0.00218756 -0.00969326 0)
(0.000466639 -0.0144575 0)
(-0.000901615 -0.0106532 0)
(-1.10144e-07 -0.0135999 0)
(0.000901455 -0.010653 0)
(-0.000453727 -0.0144834 0)
(0.0020939 -0.00970303 0)
(-0.000445972 -0.0166534 0)
(1.41952e-07 -0.00836092 0)
(0.000446039 -0.0166536 0)
(-0.00209397 -0.00970322 0)
(0.000453713 -0.0144837 0)
(-0.000874256 -0.0106469 0)
(-1.12209e-07 -0.0136413 0)
(0.000874094 -0.0106467 0)
(-0.000441083 -0.0145082 0)
(0.00200324 -0.00971262 0)
(-0.000440866 -0.0165892 0)
(1.38083e-07 -0.00839236 0)
(0.000440938 -0.0165894 0)
(-0.0020033 -0.0097128 0)
(0.000441064 -0.0145084 0)
(-0.00084716 -0.0106408 0)
(-1.13998e-07 -0.0136817 0)
(0.000846996 -0.0106406 0)
(-0.000428692 -0.0145317 0)
(0.00191547 -0.00972185 0)
(-0.000435201 -0.0165272 0)
(1.34113e-07 -0.00842361 0)
(0.000435276 -0.0165274 0)
(-0.00191553 -0.00972203 0)
(0.000428668 -0.0145319 0)
(-0.000820358 -0.0106349 0)
(-1.15528e-07 -0.0137209 0)
(0.000820193 -0.0106347 0)
(-0.000416536 -0.0145538 0)
(0.00183057 -0.00973074 0)
(-0.000429013 -0.0164673 0)
(1.30057e-07 -0.00845462 0)
(0.000429092 -0.0164676 0)
(-0.00183062 -0.00973091 0)
(0.000416508 -0.014554 0)
(-0.000793879 -0.0106292 0)
(-1.16816e-07 -0.0137591 0)
(0.000793712 -0.0106289 0)
(-0.000404598 -0.0145747 0)
(0.00174851 -0.00973929 0)
(-0.00042234 -0.0164095 0)
(1.2593e-07 -0.00848535 0)
(0.000422422 -0.0164098 0)
(-0.00174856 -0.00973946 0)
(0.000404565 -0.0145749 0)
(-0.00076775 -0.0106236 0)
(-1.17882e-07 -0.0137963 0)
(0.000767583 -0.0106234 0)
(-0.000392864 -0.0145944 0)
(0.00166926 -0.00974752 0)
(-0.000415221 -0.0163538 0)
(1.21744e-07 -0.00851578 0)
(0.000415306 -0.016354 0)
(-0.0016693 -0.00974769 0)
(0.000392827 -0.0145945 0)
(-0.000741999 -0.0106182 0)
(-1.18741e-07 -0.0138323 0)
(0.000741832 -0.010618 0)
(-0.000381321 -0.0146129 0)
(0.00159277 -0.00975545 0)
(-0.000407695 -0.0163 0)
(1.17513e-07 -0.00854587 0)
(0.000407782 -0.0163002 0)
(-0.00159282 -0.00975562 0)
(0.000381281 -0.0146131 0)
(-0.000716651 -0.0106129 0)
(-1.19412e-07 -0.0138674 0)
(0.000716484 -0.0106127 0)
(-0.000369961 -0.0146303 0)
(0.00151902 -0.00976307 0)
(-0.000399801 -0.0162482 0)
(1.13246e-07 -0.00857559 0)
(0.00039989 -0.0162484 0)
(-0.00151906 -0.00976324 0)
(0.000369917 -0.0146305 0)
(-0.000691732 -0.0106079 0)
(-1.19911e-07 -0.0139014 0)
(0.000691565 -0.0106076 0)
(-0.000358776 -0.0146467 0)
(0.00144796 -0.00977041 0)
(-0.000391577 -0.0161983 0)
(1.08952e-07 -0.00860491 0)
(0.000391668 -0.0161985 0)
(-0.001448 -0.00977057 0)
(0.00035873 -0.0146469 0)
(-0.000667264 -0.0106029 0)
(-1.20251e-07 -0.0139343 0)
(0.000667098 -0.0106027 0)
(-0.000347762 -0.0146621 0)
(0.00137955 -0.00977747 0)
(-0.000383062 -0.0161502 0)
(1.04639e-07 -0.0086338 0)
(0.000383155 -0.0161504 0)
(-0.00137958 -0.00977763 0)
(0.000347712 -0.0146623 0)
(-0.000643271 -0.0105981 0)
(-1.20445e-07 -0.0139662 0)
(0.000643106 -0.0105979 0)
(-0.000336915 -0.0146765 0)
(0.00131374 -0.00978426 0)
(-0.000374296 -0.016104 0)
(1.0031e-07 -0.00866224 0)
(0.00037439 -0.0161041 0)
(-0.00131377 -0.00978441 0)
(0.000336863 -0.0146767 0)
(-0.000619776 -0.0105935 0)
(-1.20504e-07 -0.0139972 0)
(0.000619612 -0.0105933 0)
(-0.000326236 -0.0146901 0)
(0.00125049 -0.00979078 0)
(-0.000365317 -0.0160595 0)
(9.59639e-08 -0.0086902 0)
(0.000365412 -0.0160596 0)
(-0.00125052 -0.00979093 0)
(0.000326182 -0.0146902 0)
(-0.000596799 -0.010589 0)
(-1.20435e-07 -0.0140271 0)
(0.000596637 -0.0105888 0)
(-0.000315727 -0.0147027 0)
(0.00118976 -0.00979705 0)
(-0.000356165 -0.0160167 0)
(9.15973e-08 -0.00871766 0)
(0.000356261 -0.0160168 0)
(-0.00118978 -0.00979719 0)
(0.00031567 -0.0147029 0)
(-0.000574361 -0.0105846 0)
(-1.20241e-07 -0.0140561 0)
(0.000574202 -0.0105844 0)
(-0.00030539 -0.0147146 0)
(0.0011315 -0.00980307 0)
(-0.000346879 -0.0159756 0)
(8.72009e-08 -0.0087446 0)
(0.000346976 -0.0159757 0)
(-0.00113152 -0.00980321 0)
(0.000305331 -0.0147147 0)
(-0.000552484 -0.0105804 0)
(-1.1992e-07 -0.0140841 0)
(0.000552328 -0.0105802 0)
(-0.000295234 -0.0147257 0)
(0.00107567 -0.00980884 0)
(-0.000337502 -0.0159361 0)
(8.27608e-08 -0.008771 0)
(0.000337599 -0.0159362 0)
(-0.0010757 -0.00980897 0)
(0.000295173 -0.0147258 0)
(-0.000531186 -0.0105763 0)
(-1.19469e-07 -0.0141111 0)
(0.000531033 -0.0105761 0)
(-0.000285266 -0.014736 0)
(0.00102224 -0.00981437 0)
(-0.000328074 -0.0158982 0)
(7.82574e-08 -0.00879685 0)
(0.000328171 -0.0158983 0)
(-0.00102226 -0.0098145 0)
(0.000285203 -0.0147362 0)
(-0.000510487 -0.0105723 0)
(-1.18878e-07 -0.0141373 0)
(0.000510337 -0.0105721 0)
(-0.000275497 -0.0147457 0)
(0.00097116 -0.00981968 0)
(-0.000318639 -0.0158618 0)
(7.36666e-08 -0.00882213 0)
(0.000318735 -0.0158619 0)
(-0.000971181 -0.0098198 0)
(0.000275433 -0.0147458 0)
(-0.000490407 -0.0105684 0)
(-1.18132e-07 -0.0141626 0)
(0.00049026 -0.0105682 0)
(-0.00026594 -0.0147547 0)
(0.000922392 -0.00982475 0)
(-0.000309241 -0.0158269 0)
(6.89605e-08 -0.00884685 0)
(0.000309337 -0.0158271 0)
(-0.000922413 -0.00982487 0)
(0.000265875 -0.0147548 0)
(-0.000470963 -0.0105647 0)
(-1.17215e-07 -0.014187 0)
(0.000470821 -0.0105645 0)
(-0.000256608 -0.0147631 0)
(0.000875902 -0.00982959 0)
(-0.000299928 -0.0157935 0)
(6.4109e-08 -0.00887098 0)
(0.000300022 -0.0157936 0)
(-0.000875923 -0.00982971 0)
(0.000256543 -0.0147633 0)
(-0.000452174 -0.010561 0)
(-1.16105e-07 -0.0142106 0)
(0.000452037 -0.0105608 0)
(-0.000247518 -0.014771 0)
(0.000831654 -0.00983422 0)
(-0.000290747 -0.0157614 0)
(5.90824e-08 -0.00889453 0)
(0.000290839 -0.0157615 0)
(-0.000831676 -0.00983433 0)
(0.000247454 -0.0147711 0)
(-0.00043406 -0.0105575 0)
(-1.14781e-07 -0.0142333 0)
(0.000433929 -0.0105573 0)
(-0.000238687 -0.0147783 0)
(0.000789618 -0.00983862 0)
(-0.000281751 -0.0157307 0)
(5.38553e-08 -0.00891749 0)
(0.00028184 -0.0157308 0)
(-0.000789641 -0.00983873 0)
(0.000238623 -0.0147784 0)
(-0.000416638 -0.010554 0)
(-1.13223e-07 -0.0142553 0)
(0.000416513 -0.0105539 0)
(-0.000230131 -0.0147851 0)
(0.000749765 -0.00984281 0)
(-0.000272992 -0.0157012 0)
(4.84106e-08 -0.00893987 0)
(0.000273078 -0.0157013 0)
(-0.000749789 -0.00984291 0)
(0.000230068 -0.0147852 0)
(-0.000399928 -0.0105507 0)
(-1.11415e-07 -0.0142765 0)
(0.00039981 -0.0105505 0)
(-0.000221867 -0.0147914 0)
(0.000712071 -0.00984678 0)
(-0.000264524 -0.015673 0)
(4.27448e-08 -0.00896167 0)
(0.000264605 -0.0156731 0)
(-0.000712097 -0.00984687 0)
(0.000221806 -0.0147915 0)
(-0.000383949 -0.0105474 0)
(-1.09348e-07 -0.0142971 0)
(0.000383838 -0.0105473 0)
(-0.000213912 -0.0147973 0)
(0.000676516 -0.00985053 0)
(-0.000256401 -0.015646 0)
(3.68725e-08 -0.00898292 0)
(0.000256477 -0.0156461 0)
(-0.000676544 -0.00985062 0)
(0.000213853 -0.0147975 0)
(-0.000368721 -0.0105442 0)
(-1.07024e-07 -0.0143169 0)
(0.000368618 -0.0105441 0)
(-0.000206282 -0.0148029 0)
(0.000643089 -0.00985407 0)
(-0.000248678 -0.0156201 0)
(3.08311e-08 -0.00900361 0)
(0.000248748 -0.0156202 0)
(-0.00064312 -0.00985415 0)
(0.000206225 -0.014803 0)
(-0.000354266 -0.0105411 0)
(-1.04458e-07 -0.0143361 0)
(0.000354173 -0.010541 0)
(-0.000198989 -0.014808 0)
(0.000611787 -0.00985738 0)
(-0.000241407 -0.0155953 0)
(2.46836e-08 -0.00902377 0)
(0.00024147 -0.0155954 0)
(-0.000611821 -0.00985746 0)
(0.000198936 -0.0148081 0)
(-0.000340609 -0.0105381 0)
(-1.01681e-07 -0.0143547 0)
(0.000340525 -0.0105379 0)
(-0.000192047 -0.0148129 0)
(0.000582617 -0.00986047 0)
(-0.000234637 -0.0155716 0)
(1.85199e-08 -0.00904343 0)
(0.000234693 -0.0155716 0)
(-0.000582654 -0.00986055 0)
(0.000191998 -0.014813 0)
(-0.000327778 -0.0105351 0)
(-9.87442e-08 -0.0143727 0)
(0.000327703 -0.0105349 0)
(-0.00018547 -0.0148174 0)
(0.000555603 -0.00986333 0)
(-0.000228411 -0.0155488 0)
(1.24539e-08 -0.00906261 0)
(0.00022846 -0.0155488 0)
(-0.000555643 -0.00986341 0)
(0.000185425 -0.0148175 0)
(-0.000315803 -0.0105321 0)
(-9.57128e-08 -0.0143902 0)
(0.000315738 -0.010532 0)
(-0.000179271 -0.0148217 0)
(0.000530783 -0.00986596 0)
(-0.000222766 -0.0155269 0)
(6.61863e-09 -0.00908133 0)
(0.000222807 -0.015527 0)
(-0.000530826 -0.00986604 0)
(0.00017923 -0.0148218 0)
(-0.000304723 -0.0105292 0)
(-9.26691e-08 -0.0144072 0)
(0.000304667 -0.010529 0)
(-0.000173469 -0.0148258 0)
(0.000508216 -0.00986835 0)
(-0.00021773 -0.0155059 0)
(1.15723e-09 -0.00909965 0)
(0.000217763 -0.0155059 0)
(-0.000508263 -0.00986843 0)
(0.000173432 -0.0148259 0)
(-0.000294582 -0.0105263 0)
(-8.9706e-08 -0.0144238 0)
(0.000294535 -0.0105261 0)
(-0.000168091 -0.0148297 0)
(0.000487984 -0.0098705 0)
(-0.000213321 -0.0154856 0)
(-3.78885e-09 -0.00911757 0)
(0.000213348 -0.0154857 0)
(-0.000488035 -0.00987057 0)
(0.000168059 -0.0148298 0)
(-0.000285434 -0.0105234 0)
(-8.69209e-08 -0.01444 0)
(0.000285396 -0.0105233 0)
(-0.000163177 -0.0148334 0)
(0.000470192 -0.0098724 0)
(-0.000209549 -0.0154661 0)
(-8.0932e-09 -0.00913513 0)
(0.000209569 -0.0154662 0)
(-0.000470246 -0.00987247 0)
(0.000163148 -0.0148335 0)
(-0.000277341 -0.0105205 0)
(-8.44085e-08 -0.0144559 0)
(0.000277311 -0.0105204 0)
(-0.000158784 -0.0148371 0)
(0.000454968 -0.00987405 0)
(-0.000206414 -0.0154473 0)
(-1.16581e-08 -0.00915232 0)
(0.000206428 -0.0154474 0)
(-0.000455024 -0.00987412 0)
(0.000158758 -0.0148372 0)
(-0.000270376 -0.0105176 0)
(-8.22515e-08 -0.0144716 0)
(0.000270352 -0.0105175 0)
(-0.000154993 -0.0148407 0)
(0.000442459 -0.00987544 0)
(-0.000203911 -0.015429 0)
(-1.4426e-08 -0.00916935 0)
(0.000203921 -0.0154291 0)
(-0.000442518 -0.0098755 0)
(0.00015497 -0.0148408 0)
(-0.00026462 -0.0105146 0)
(-8.0514e-08 -0.0144871 0)
(0.000264601 -0.0105145 0)
(-0.000151917 -0.0148444 0)
(0.000432847 -0.00987658 0)
(-0.000202047 -0.0154105 0)
(-1.63873e-08 -0.00918675 0)
(0.000202054 -0.0154106 0)
(-0.000432908 -0.00987664 0)
(0.000151896 -0.0148445 0)
(-0.000260174 -0.0105115 0)
(-7.92369e-08 -0.0145033 0)
(0.000260158 -0.0105114 0)
(-0.00014971 -0.0148485 0)
(0.000426366 -0.00987746 0)
(-0.000200856 -0.0153913 0)
(-1.75822e-08 -0.00920474 0)
(0.000200861 -0.0153914 0)
(-0.000426427 -0.00987753 0)
(0.00014969 -0.0148486 0)
(-0.000257166 -0.010508 0)
(-7.84391e-08 -0.0145203 0)
(0.000257152 -0.0105079 0)
(-0.000148555 -0.0148517 0)
(0.000423241 -0.00987831 0)
(-0.000200371 -0.015376 0)
(-1.81036e-08 -0.00921939 0)
(0.000200374 -0.0153761 0)
(-0.000423304 -0.00987838 0)
(0.000148537 -0.0148518 0)
(-0.000255723 -0.0105054 0)
(-7.81034e-08 -0.014534 0)
(0.00025571 -0.0105053 0)
)
;

boundaryField
{
    BotWall
    {
        type            fixedValue;
        value           uniform (0 0 0);
    }
    FreeStream
    {
        type            zeroGradient;
    }
    FrontNBack
    {
        type            empty;
    }
    LeftSide
    {
        type            cyclic;
    }
    RightSide
    {
        type            cyclic;
    }
}


// ************************************************************************* //
