/*--------------------------------*- C++ -*----------------------------------*\
| =========                 |                                                 |
| \\      /  F ield         | OpenFOAM: The Open Source CFD Toolbox           |
|  \\    /   O peration     | Version:  2.4.0                                 |
|   \\  /    A nd           | Web:      www.OpenFOAM.org                      |
|    \\/     M anipulation  |                                                 |
\*---------------------------------------------------------------------------*/
FoamFile
{
    version     2.0;
    format      ascii;
    class       volScalarField;
    location    "4.8";
    object      H;
}
// * * * * * * * * * * * * * * * * * * * * * * * * * * * * * * * * * * * * * //

dimensions      [0 2 -2 0 0 0 0];

internalField   nonuniform List<scalar> 
125
(
-12006.6
-12006.8
-12007.3
-12007.1
-12006.6
-11557.4
-11558
-11559.5
-11558.8
-11557.3
-11103.7
-11104.6
-11107.2
-11106
-11103.5
-10645.7
-10647
-10650.6
-10648.9
-10645.3
-10183.7
-10185.3
-10189.9
-10187.8
-10183.2
-9717.91
-9719.91
-9725.52
-9722.99
-9717.33
-9248.75
-9251.12
-9257.69
-9254.73
-9248.06
-8776.52
-8779.26
-8786.72
-8783.37
-8775.71
-8301.55
-8304.65
-8312.94
-8309.23
-8300.63
-7824.18
-7827.63
-7836.65
-7832.61
-7823.15
-7344.72
-7348.5
-7358.13
-7353.83
-7343.6
-6863.5
-6867.57
-6877.67
-6873.17
-6862.29
-6380.77
-6385.09
-6395.49
-6390.86
-6379.48
-5896.76
-5901.27
-5911.78
-5907.1
-5895.41
-5411.6
-5416.23
-5426.62
-5422
-5410.21
-4925.35
-4930.03
-4940.05
-4935.58
-4923.96
-4437.96
-4442.58
-4451.98
-4447.77
-4436.58
-3949.22
-3953.68
-3962.18
-3958.35
-3947.9
-3458.81
-3463
-3470.33
-3466.99
-3457.58
-2966.21
-2970.01
-2975.91
-2973.16
-2965.12
-2470.77
-2474.05
-2478.27
-2476.23
-2469.84
-1971.62
-1974.29
-1976.62
-1975.36
-1970.91
-1467.78
-1469.73
-1470
-1469.6
-1467.31
-958.112
-959.254
-957.358
-957.856
-957.908
-118.374
-118.07
-114.37
-115.654
-118.669
)
;

boundaryField
{
    BotWall
    {
        type            zeroGradient;
    }
    FreeStream
    {
        type            zeroGradient;
    }
    FrontNBack
    {
        type            empty;
    }
    LeftSide
    {
        type            symmetryPlane;
    }
    RightSide
    {
        type            symmetryPlane;
    }
    procBoundary0to1
    {
        type            processor;
        value           nonuniform List<scalar> 5(-93.3275 -93.11 -90.0853 -91.1233 -93.5607);
    }
}


// ************************************************************************* //
