/*--------------------------------*- C++ -*----------------------------------*\
| =========                 |                                                 |
| \\      /  F ield         | OpenFOAM: The Open Source CFD Toolbox           |
|  \\    /   O peration     | Version:  2.4.0                                 |
|   \\  /    A nd           | Web:      www.OpenFOAM.org                      |
|    \\/     M anipulation  |                                                 |
\*---------------------------------------------------------------------------*/
FoamFile
{
    version     2.0;
    format      ascii;
    class       surfaceScalarField;
    location    "4.8";
    object      phi;
}
// * * * * * * * * * * * * * * * * * * * * * * * * * * * * * * * * * * * * * //

dimensions      [0 3 -1 0 0 0 0];

internalField   nonuniform List<scalar> 
220
(
1.81299e-17
-1.81306e-17
2.66638e-17
-8.53497e-18
-5.98661e-18
3.26495e-17
-2.41069e-17
1.81192e-17
-2.41079e-17
5.55784e-17
-7.37102e-17
8.13701e-17
-3.43287e-17
-1.83771e-17
1.32394e-16
-7.42074e-17
7.39472e-17
-9.83171e-17
9.45978e-17
-1.68309e-16
1.38126e-16
-7.78592e-17
-3.14086e-17
3.01925e-16
-1.26658e-16
1.69195e-16
-2.24977e-16
1.35251e-16
-3.03562e-16
1.97051e-16
-1.39662e-16
-4.51685e-17
5.44142e-16
-1.81535e-16
3.05558e-16
-4.06514e-16
1.77567e-16
-4.81131e-16
2.58212e-16
-2.2031e-16
-5.96796e-17
8.6203e-16
-2.3891e-16
4.84786e-16
-6.45426e-16
2.21672e-16
-7.02805e-16
3.21757e-16
-3.20397e-16
-7.5013e-17
1.2588e-15
-2.9899e-16
7.0876e-16
-9.44418e-16
2.67578e-16
-9.70385e-16
3.87746e-16
-4.40568e-16
-9.11839e-17
1.73772e-15
-3.61842e-16
9.79415e-16
-1.30626e-15
3.1544e-16
-1.28583e-15
4.56356e-16
-5.81487e-16
-1.08282e-16
2.30236e-15
-4.27712e-16
1.29884e-15
-1.73398e-15
3.65258e-16
-1.65109e-15
5.27644e-16
-7.43875e-16
-1.26317e-16
2.95631e-15
-4.96657e-16
1.66918e-15
-2.23063e-15
4.17215e-16
-2.0683e-15
6.01816e-16
-9.28479e-16
-1.45397e-16
3.70352e-15
-5.68971e-16
2.09275e-15
-2.79961e-15
4.71301e-16
-2.53961e-15
6.78929e-16
-1.13611e-15
-1.65526e-16
4.54797e-15
-6.44705e-16
2.57193e-15
-3.44431e-15
5.27725e-16
-3.06733e-15
7.5922e-16
-1.36761e-15
-1.8683e-16
5.49402e-15
-7.24201e-16
3.10929e-15
-4.16852e-15
5.86469e-16
-3.6538e-15
8.42749e-16
-1.62389e-15
-2.09313e-16
6.54608e-15
-8.0751e-16
3.70749e-15
-4.97603e-15
6.47772e-16
-4.30158e-15
9.29785e-16
-1.90591e-15
-2.33115e-16
7.70898e-15
-8.95021e-16
4.36939e-15
-5.87105e-15
7.1161e-16
-5.01319e-15
1.02039e-15
-2.21469e-15
-2.58242e-16
8.98761e-15
-9.86792e-16
5.09794e-15
-6.85784e-15
7.78247e-16
-5.79144e-15
1.11488e-15
-2.55132e-15
-2.84852e-16
1.03873e-14
-1.08326e-15
5.89635e-15
-7.94111e-15
8.47657e-16
-6.6391e-15
1.21332e-15
-2.91699e-15
-3.12957e-16
1.19136e-14
-1.1845e-15
6.76789e-15
-9.12561e-15
9.20122e-16
-7.55922e-15
1.31609e-15
-3.31296e-15
-3.42705e-16
1.35724e-14
-1.29108e-15
7.71626e-15
-1.04167e-14
9.95636e-16
-8.55486e-15
1.42316e-15
-3.74048e-15
-3.74118e-16
1.53697e-14
-1.40269e-15
8.74483e-15
-1.18194e-14
1.07444e-15
-9.6293e-15
1.53491e-15
-4.20096e-15
-4.07717e-16
1.73123e-14
-1.51991e-15
9.85702e-15
-1.33393e-14
1.15647e-15
-1.07858e-14
1.6516e-15
-4.69608e-15
-4.41487e-16
1.94054e-14
-1.64242e-15
1.1058e-14
-1.49817e-14
1.24236e-15
-1.20281e-14
1.77239e-15
-5.22611e-15
-4.79529e-16
2.16573e-14
-1.77277e-15
1.23512e-14
-1.67545e-14
1.33124e-15
-1.33594e-14
1.90693e-15
-5.80181e-15
-5.22531e-16
2.40867e-14
-1.91472e-15
1.37434e-14
-1.86693e-14
1.41585e-15
-1.17692e-13
2.07003e-15
-5.12047e-14
-5.75618e-16
2.67324e-14
-2.07476e-15
1.52425e-14
-1.65817e-13
1.50574e-15
2.3746e-15
-6.77704e-16
-2.3678e-15
)
;

boundaryField
{
    BotWall
    {
        type            calculated;
        value           nonuniform List<scalar> 5(6.24112e-24 2.00981e-23 -1.02301e-22 -5.15163e-23 2.12384e-23);
    }
    FreeStream
    {
        type            calculated;
        value           nonuniform 0();
    }
    FrontNBack
    {
        type            empty;
        value           nonuniform 0();
    }
    LeftSide
    {
        type            symmetryPlane;
        value           uniform 0;
    }
    RightSide
    {
        type            symmetryPlane;
        value           uniform 0;
    }
    procBoundary0to1
    {
        type            processor;
        value           nonuniform List<scalar> 5(-1.73322e-10 -1.7361e-10 -1.74328e-10 -1.74024e-10 -1.73229e-10);
    }
}


// ************************************************************************* //
