/*--------------------------------*- C++ -*----------------------------------*\
| =========                 |                                                 |
| \\      /  F ield         | OpenFOAM: The Open Source CFD Toolbox           |
|  \\    /   O peration     | Version:  2.4.0                                 |
|   \\  /    A nd           | Web:      www.OpenFOAM.org                      |
|    \\/     M anipulation  |                                                 |
\*---------------------------------------------------------------------------*/
FoamFile
{
    version     2.0;
    format      ascii;
    class       volScalarField;
    location    "4.8";
    object      T;
}
// * * * * * * * * * * * * * * * * * * * * * * * * * * * * * * * * * * * * * //

dimensions      [0 0 0 1 0 0 0];

internalField   nonuniform List<scalar> 
125
(
293.091
293.091
293.091
293.091
293.091
293.275
293.275
293.274
293.274
293.275
293.46
293.46
293.459
293.46
293.461
293.648
293.647
293.646
293.646
293.648
293.837
293.836
293.834
293.835
293.837
294.027
294.026
294.024
294.025
294.027
294.219
294.218
294.215
294.216
294.219
294.412
294.411
294.408
294.409
294.412
294.606
294.605
294.601
294.603
294.606
294.801
294.8
294.796
294.798
294.802
294.997
294.996
294.992
294.994
294.998
295.194
295.192
295.188
295.19
295.194
295.391
295.39
295.385
295.387
295.392
295.589
295.587
295.583
295.585
295.59
295.788
295.786
295.781
295.783
295.788
295.986
295.984
295.98
295.982
295.987
296.186
296.184
296.18
296.182
296.186
296.385
296.384
296.38
296.382
296.386
296.586
296.584
296.581
296.583
296.586
296.787
296.786
296.783
296.784
296.788
296.99
296.989
296.987
296.988
296.99
297.194
297.193
297.192
297.192
297.194
297.4
297.399
297.399
297.399
297.4
297.608
297.608
297.609
297.608
297.608
297.949
297.949
297.951
297.95
297.949
)
;

boundaryField
{
    BotWall
    {
        type            fixedValue;
        value           uniform 293;
    }
    FreeStream
    {
        type            fixedValue;
        value           nonuniform 0();
    }
    FrontNBack
    {
        type            empty;
    }
    LeftSide
    {
        type            symmetryPlane;
    }
    RightSide
    {
        type            symmetryPlane;
    }
    procBoundary0to1
    {
        type            processor;
        value           nonuniform List<scalar> 5(297.949 297.949 297.95 297.95 297.949);
    }
}


// ************************************************************************* //
