/*--------------------------------*- C++ -*----------------------------------*\
| =========                 |                                                 |
| \\      /  F ield         | OpenFOAM: The Open Source CFD Toolbox           |
|  \\    /   O peration     | Version:  2.4.0                                 |
|   \\  /    A nd           | Web:      www.OpenFOAM.org                      |
|    \\/     M anipulation  |                                                 |
\*---------------------------------------------------------------------------*/
FoamFile
{
    version     2.0;
    format      ascii;
    class       volScalarField;
    location    "4.6";
    object      H;
}
// * * * * * * * * * * * * * * * * * * * * * * * * * * * * * * * * * * * * * //

dimensions      [0 2 -2 0 0 0 0];

internalField   nonuniform List<scalar> 
125
(
-7.28394
-7.26665
-7.24231
-7.25227
-7.27985
-7.0412
-7.02466
-7.00153
-7.01097
-7.03714
-6.79223
-6.77643
-6.75449
-6.76342
-6.78822
-6.53713
-6.52208
-6.50131
-6.50974
-6.53318
-6.27604
-6.26173
-6.2421
-6.25005
-6.27216
-6.0091
-5.99553
-5.97702
-5.98449
-6.00531
-5.73648
-5.72364
-5.70623
-5.71324
-5.73279
-5.45835
-5.44624
-5.42991
-5.43646
-5.45478
-5.17492
-5.16353
-5.14826
-5.15438
-5.17148
-4.88641
-4.87575
-4.86152
-4.8672
-4.88312
-4.59305
-4.58311
-4.5699
-4.57516
-4.58992
-4.29512
-4.2859
-4.27369
-4.27854
-4.29215
-3.99289
-3.98438
-3.97316
-3.9776
-3.9901
-3.68667
-3.67886
-3.66861
-3.67266
-3.68406
-3.37677
-3.36967
-3.36037
-3.36403
-3.37436
-3.06355
-3.05715
-3.04879
-3.05208
-3.06135
-2.74738
-2.74166
-2.73424
-2.73715
-2.74539
-2.42864
-2.42361
-2.4171
-2.41965
-2.42687
-2.10775
-2.10341
-2.09779
-2.09999
-2.1062
-1.78514
-1.78148
-1.77675
-1.77859
-1.78382
-1.46127
-1.45828
-1.45443
-1.45593
-1.46018
-1.1366
-1.13429
-1.13131
-1.13247
-1.13576
-0.811657
-0.810006
-0.807885
-0.808711
-0.811051
-0.48694
-0.485951
-0.484682
-0.485176
-0.486576
-0.162993
-0.162662
-0.162237
-0.162402
-0.162871
)
;

boundaryField
{
    BotWall
    {
        type            zeroGradient;
    }
    FreeStream
    {
        type            zeroGradient;
    }
    FrontNBack
    {
        type            empty;
    }
    LeftSide
    {
        type            symmetryPlane;
    }
    RightSide
    {
        type            symmetryPlane;
    }
    procBoundary3to2
    {
        type            processor;
        value           nonuniform List<scalar> 5(-7.5198 -7.50176 -7.47618 -7.48667 -7.5157);
    }
}


// ************************************************************************* //
