/*--------------------------------*- C++ -*----------------------------------*\
| =========                 |                                                 |
| \\      /  F ield         | OpenFOAM: The Open Source CFD Toolbox           |
|  \\    /   O peration     | Version:  2.4.0                                 |
|   \\  /    A nd           | Web:      www.OpenFOAM.org                      |
|    \\/     M anipulation  |                                                 |
\*---------------------------------------------------------------------------*/
FoamFile
{
    version     2.0;
    format      ascii;
    class       surfaceScalarField;
    location    "4.6";
    object      phi;
}
// * * * * * * * * * * * * * * * * * * * * * * * * * * * * * * * * * * * * * //

dimensions      [0 3 -1 0 0 0 0];

internalField   nonuniform List<scalar> 
220
(
-1.12501e-16
-1.98762e-10
-9.06375e-17
-1.98724e-10
1.48984e-16
-1.98668e-10
2.94026e-16
-1.98693e-10
-1.9877e-10
-1.3231e-16
-1.98762e-10
-1.10767e-16
-1.98724e-10
1.56917e-16
-1.98668e-10
3.15223e-16
-1.98693e-10
-1.9877e-10
-1.50737e-16
-1.98761e-10
-1.29414e-16
-1.98724e-10
1.64115e-16
-1.98668e-10
3.34477e-16
-1.98693e-10
-1.98769e-10
-1.67808e-16
-1.98761e-10
-1.46612e-16
-1.98724e-10
1.70599e-16
-1.98668e-10
3.51849e-16
-1.98693e-10
-1.98769e-10
-1.83552e-16
-1.98761e-10
-1.62397e-16
-1.98724e-10
1.76395e-16
-1.98669e-10
3.67402e-16
-1.98693e-10
-1.98768e-10
-1.98004e-16
-1.98761e-10
-1.76808e-16
-1.98724e-10
1.81528e-16
-1.98669e-10
3.81204e-16
-1.98693e-10
-1.98768e-10
-2.11199e-16
-1.98761e-10
-1.89889e-16
-1.98724e-10
1.86027e-16
-1.98669e-10
3.93329e-16
-1.98694e-10
-1.98768e-10
-2.2318e-16
-1.9876e-10
-2.01686e-16
-1.98724e-10
1.89924e-16
-1.9867e-10
4.03856e-16
-1.98694e-10
-1.98767e-10
-2.33989e-16
-1.9876e-10
-2.12251e-16
-1.98724e-10
1.93253e-16
-1.9867e-10
4.12869e-16
-1.98694e-10
-1.98767e-10
-2.43678e-16
-1.9876e-10
-2.2164e-16
-1.98724e-10
1.9605e-16
-1.98671e-10
4.2046e-16
-1.98694e-10
-1.98766e-10
-2.52299e-16
-1.9876e-10
-2.29912e-16
-1.98724e-10
1.98354e-16
-1.98671e-10
4.26725e-16
-1.98695e-10
-1.98766e-10
-2.59913e-16
-1.98759e-10
-2.37132e-16
-1.98724e-10
2.00207e-16
-1.98672e-10
4.31769e-16
-1.98695e-10
-1.98766e-10
-2.66583e-16
-1.98759e-10
-2.4337e-16
-1.98724e-10
2.01655e-16
-1.98672e-10
4.35705e-16
-1.98695e-10
-1.98765e-10
-2.72379e-16
-1.98759e-10
-2.48703e-16
-1.98724e-10
2.02745e-16
-1.98672e-10
4.38654e-16
-1.98695e-10
-1.98765e-10
-2.77377e-16
-1.98759e-10
-2.53212e-16
-1.98724e-10
2.03529e-16
-1.98673e-10
4.40744e-16
-1.98696e-10
-1.98764e-10
-2.81658e-16
-1.98758e-10
-2.56986e-16
-1.98724e-10
2.04064e-16
-1.98673e-10
4.42117e-16
-1.98696e-10
-1.98764e-10
-2.85313e-16
-1.98758e-10
-2.60122e-16
-1.98724e-10
2.04409e-16
-1.98674e-10
4.42924e-16
-1.98696e-10
-1.98763e-10
-2.88437e-16
-1.98758e-10
-2.62722e-16
-1.98724e-10
2.04629e-16
-1.98674e-10
4.43327e-16
-1.98696e-10
-1.98763e-10
-2.91135e-16
-1.98757e-10
-2.64901e-16
-1.98725e-10
2.04792e-16
-1.98675e-10
4.43504e-16
-1.98696e-10
-1.98763e-10
-2.93518e-16
-1.98757e-10
-2.6678e-16
-1.98725e-10
2.04973e-16
-1.98675e-10
4.43645e-16
-1.98697e-10
-1.98762e-10
-2.95706e-16
-1.98757e-10
-2.6849e-16
-1.98725e-10
2.0525e-16
-1.98676e-10
4.43956e-16
-1.98697e-10
-1.98762e-10
-2.9783e-16
-1.98757e-10
-2.70172e-16
-1.98725e-10
2.05708e-16
-1.98676e-10
4.44656e-16
-1.98697e-10
-1.98761e-10
-3.00037e-16
-1.98756e-10
-2.71984e-16
-1.98725e-10
2.06443e-16
-1.98677e-10
4.45996e-16
-1.98697e-10
-1.98761e-10
-3.02513e-16
-1.98756e-10
-2.74147e-16
-1.98725e-10
2.07578e-16
-1.98677e-10
4.48317e-16
-1.98698e-10
-1.9876e-10
-3.05479e-16
-2.77171e-16
2.09325e-16
4.52315e-16
)
;

boundaryField
{
    BotWall
    {
        type            calculated;
        value           nonuniform 0();
    }
    FreeStream
    {
        type            calculated;
        value           nonuniform List<scalar> 5(-1.98756e-10 -1.98725e-10 -1.98678e-10 -1.98698e-10 -1.9876e-10);
    }
    FrontNBack
    {
        type            empty;
        value           nonuniform 0();
    }
    LeftSide
    {
        type            symmetryPlane;
        value           uniform 0;
    }
    RightSide
    {
        type            symmetryPlane;
        value           uniform 0;
    }
    procBoundary3to2
    {
        type            processor;
        value           nonuniform List<scalar> 5(1.98762e-10 1.98724e-10 1.98667e-10 1.98692e-10 1.9877e-10);
    }
}


// ************************************************************************* //
