/*--------------------------------*- C++ -*----------------------------------*\
| =========                 |                                                 |
| \\      /  F ield         | OpenFOAM: The Open Source CFD Toolbox           |
|  \\    /   O peration     | Version:  2.4.0                                 |
|   \\  /    A nd           | Web:      www.OpenFOAM.org                      |
|    \\/     M anipulation  |                                                 |
\*---------------------------------------------------------------------------*/
FoamFile
{
    version     2.0;
    format      ascii;
    class       volScalarField;
    location    "1.2";
    object      H;
}
// * * * * * * * * * * * * * * * * * * * * * * * * * * * * * * * * * * * * * //

dimensions      [0 2 -2 0 0 0 0];

internalField   nonuniform List<scalar> 
8000
(
-11964.3
-11433.4
-10904
-10377.2
-9854.15
-9335.88
-8823.46
-8317.94
-7820.29
-7331.44
-6852.22
-6383.4
-5925.6
-5479.38
-5045.13
-4623.12
-4213.48
-3816.19
-3431.07
-3057.75
-2695.71
-2344.17
-2002.07
-1667.89
-1339.28
-1012.53
-682.551
-345.135
-3.24392
-2.86053
-1.99552
-1.79328
-1.66011
-1.5869
-1.55982
-1.56254
-1.57998
-1.60042
-1.61607
-1.62264
-1.61856
-1.60401
-1.5802
-1.54876
-1.51144
-1.46983
-1.42535
-1.37911
-1.33203
-1.28478
-11963.9
-11432.1
-10901.9
-10374.2
-9850.06
-9330.65
-8817
-8310.15
-7811.07
-7320.7
-6839.86
-6369.3
-5909.67
-5461.47
-5025.1
-4600.78
-4188.6
-3788.47
-3400.14
-3023.12
-2656.77
-2300.22
-1952.45
-1612.36
-1279.03
-952.031
-631.83
-320.076
-3.34617
-2.92448
-2.37819
-2.29606
-2.21967
-2.14845
-2.08193
-2.0193
-1.95961
-1.90201
-1.84584
-1.79067
-1.73624
-1.68244
-1.62929
-1.57684
-1.52517
-1.47439
-1.42456
-1.37577
-1.32804
-1.28143
-11963.5
-11431
-10900.1
-10371.7
-9846.85
-9326.71
-8812.31
-8304.64
-7804.7
-7313.37
-6831.49
-6359.77
-5898.83
-5449.16
-5011.11
-4584.88
-4170.54
-3768
-3377.01
-2997.21
-2628.13
-2269.26
-1920.09
-1580.23
-1249.51
-927.991
-616.101
-314.512
-3.98948
-3.11761
-2.80902
-2.69727
-2.59075
-2.48909
-2.39208
-2.29948
-2.21104
-2.1265
-2.04561
-1.96814
-1.89387
-1.8226
-1.75415
-1.68836
-1.62507
-1.56414
-1.50545
-1.44889
-1.39433
-1.34169
-11963.3
-11430.3
-10899
-10370.2
-9845.03
-9324.6
-8809.9
-8301.92
-7801.61
-7309.84
-6827.4
-6355
-5893.21
-5442.51
-5003.23
-4575.59
-4159.65
-3755.38
-3362.59
-2981.04
-2610.38
-2250.24
-1900.24
-1560.01
-1229.32
-908.083
-596.603
-295.698
-4.90744
-3.62248
-3.37819
-3.20362
-3.04175
-2.89144
-2.75174
-2.62171
-2.50047
-2.3872
-2.28111
-2.18147
-2.08762
-1.99899
-1.91506
-1.83539
-1.75959
-1.68736
-1.6184
-1.55249
-1.48942
-1.42901
-11963.1
-11429.7
-10897.8
-10368.6
-9842.93
-9321.98
-8806.7
-8298.09
-7797.06
-7304.47
-6821.09
-6347.61
-5884.6
-5432.53
-4991.72
-4562.4
-4144.63
-3738.38
-3343.47
-2959.58
-2586.28
-2222.97
-1868.87
-1522.97
-1184.01
-850.584
-520.821
-189.721
-5.18645
-3.77284
-3.54803
-3.34643
-3.15877
-2.98627
-2.82901
-2.68626
-2.55675
-2.43895
-2.3312
-2.23193
-2.13967
-2.05319
-1.97147
-1.89373
-1.81936
-1.74794
-1.67918
-1.61288
-1.54892
-1.4872
-11962.7
-11428.5
-10895.9
-10365.6
-9838.95
-9316.81
-8800.24
-8290.21
-7787.65
-7293.41
-6808.26
-6332.88
-5867.84
-5413.6
-4970.47
-4538.65
-4118.15
-3708.85
-3310.43
-2922.38
-2543.9
-2173.82
-1810.42
-1451.18
-1092.79
-732.03
-368.058
-3.50672
-3.29241
-2.51849
-2.43028
-2.34401
-2.26293
-2.18984
-2.12592
-2.07096
-2.02376
-1.9825
-1.94511
-1.90962
-1.87432
-1.83791
-1.79955
-1.7588
-1.71558
-1.67006
-1.6226
-1.57365
-1.5237
-1.47321
-11962.2
-11427
-10893.2
-10361.9
-9833.94
-9310.46
-8792.43
-8280.83
-7776.59
-7280.55
-6793.49
-6316.06
-5848.82
-5392.19
-4946.45
-4511.73
-4087.99
-3675.03
-3272.43
-2879.63
-2495.87
-2120.34
-1752.25
-1391.07
-1036.76
-690.044
-352.448
-3.83337
-3.19783
-2.74357
-2.66259
-2.58414
-2.50821
-2.43495
-2.36437
-2.29632
-2.23057
-2.16682
-2.10474
-2.04404
-1.98445
-1.92578
-1.8679
-1.81072
-1.75424
-1.69847
-1.64346
-1.58927
-1.53597
-1.48364
-11961.8
-11425.8
-10891.3
-10359.2
-9830.52
-9306.31
-8787.54
-8275.16
-7770.06
-7273.07
-6784.93
-6306.27
-5837.62
-5379.35
-4931.75
-4494.91
-4068.84
-3653.38
-3248.27
-2853.2
-2467.82
-2091.8
-1724.95
-1367.22
-1018.83
-680.251
-352.112
-4.69626
-3.55843
-3.31235
-3.18518
-3.06348
-2.94708
-2.83579
-2.72939
-2.62764
-2.53026
-2.43698
-2.34755
-2.26172
-2.17924
-2.0999
-2.0235
-1.94987
-1.87886
-1.81032
-1.74413
-1.68019
-1.61839
-1.55863
-11961.5
-11425
-10890
-10357.5
-9828.53
-9304
-8784.9
-8272.16
-7766.64
-7269.13
-6780.34
-6300.89
-5831.26
-5371.85
-4922.92
-4484.62
-4056.99
-3639.97
-3233.39
-2837.06
-2450.72
-2074.12
-1707.03
-1349.29
-1000.99
-662.52
-334.79
-5.91539
-4.32891
-4.07943
-3.87215
-3.67891
-3.49889
-3.33119
-3.17487
-3.029
-2.89265
-2.76491
-2.64494
-2.53197
-2.42531
-2.32432
-2.2285
-2.13736
-2.05052
-1.96765
-1.88846
-1.81269
-1.74014
-1.67061
-11961.3
-11424.3
-10888.8
-10355.7
-9826.09
-9300.91
-8781.1
-8267.56
-7761.15
-7262.64
-6772.72
-6291.99
-5820.94
-5359.97
-4909.34
-4469.19
-4039.56
-3620.35
-3211.34
-2812.17
-2422.32
-2041.07
-1667.47
-1300.35
-938.504
-580.535
-222.507
-6.71371
-4.83614
-4.51239
-4.22251
-3.96082
-3.72592
-3.51574
-3.32777
-3.15931
-3.00762
-2.87009
-2.74433
-2.62825
-2.52009
-2.41842
-2.32214
-2.2304
-2.1426
-2.05831
-1.97722
-1.89913
-1.8239
-1.75142
-11960.8
-11423
-10886.5
-10352.3
-9821.5
-9294.96
-8773.65
-8258.49
-7750.31
-7249.9
-6757.94
-6275.04
-5801.67
-5338.2
-4884.86
-4441.73
-4008.73
-3585.6
-3171.84
-2766.69
-2368.96
-1976.83
-1587.6
-1197.74
-803.837
-404.949
-3.85154
-3.5882
-2.81105
-2.74639
-2.67834
-2.61168
-2.54989
-2.49469
-2.4463
-2.40382
-2.36563
-2.32982
-2.29447
-2.25796
-2.21903
-2.17692
-2.13127
-2.08211
-2.02973
-1.97465
-1.91744
-1.85874
-1.79915
-1.73922
-11960.3
-11421.2
-10883.5
-10348.1
-9815.84
-9287.78
-8764.83
-8247.91
-7737.84
-7235.4
-6741.27
-6256.01
-5780.08
-5313.78
-4857.29
-4410.61
-3973.55
-3545.75
-3126.66
-2715.59
-2311.76
-1914.44
-1523.16
-1137.98
-759.681
-389.884
-4.20397
-3.42765
-3.03254
-2.96093
-2.89096
-2.82274
-2.75632
-2.69164
-2.62852
-2.56669
-2.50582
-2.44561
-2.38576
-2.32603
-2.26627
-2.2064
-2.1464
-2.08634
-2.0263
-1.96642
-1.90683
-1.84768
-1.78913
-1.73128
-11959.8
-11419.9
-10881.3
-10345
-9811.92
-9283.02
-8759.21
-8241.36
-7730.28
-7226.72
-6731.3
-6244.58
-5766.98
-5298.77
-4840.14
-4391.1
-3951.58
-3521.39
-3100.29
-2688
-2284.31
-1889.09
-1502.39
-1124.46
-755.734
-396.809
-5.1308
-3.85271
-3.64959
-3.53028
-3.41524
-3.3043
-3.19727
-3.09394
-2.99411
-2.89757
-2.80413
-2.71361
-2.62584
-2.54067
-2.45796
-2.37759
-2.29945
-2.22345
-2.14951
-2.07755
-2.00752
-1.93935
-1.873
-1.80843
-11959.5
-11419
-10879.8
-10343
-9809.48
-9280.15
-8755.91
-8237.6
-7726
-7221.82
-6725.68
-6238.11
-5759.51
-5290.2
-4830.39
-4380.18
-3939.59
-3508.58
-3087.05
-2674.89
-2271.98
-1878.26
-1493.71
-1118.36
-752.295
-395.496
-6.4262
-4.72452
-4.52117
-4.34009
-4.16574
-3.99833
-3.83784
-3.6842
-3.53723
-3.39673
-3.26244
-3.1341
-3.01143
-2.89414
-2.78195
-2.67458
-2.57174
-2.47319
-2.37868
-2.28797
-2.20086
-2.11714
-2.03663
-1.95916
-11959.3
-11418.3
-10878.7
-10341.5
-9807.54
-9277.78
-8753.09
-8234.28
-7722.11
-7217.28
-6720.38
-6231.95
-5752.39
-5282.03
-4821.08
-4369.68
-3927.85
-3495.53
-3072.58
-2658.78
-2253.86
-1857.52
-1469.47
-1089.51
-717.575
-354.411
-8.35111
-6.04643
-5.69975
-5.38654
-5.09863
-4.83253
-4.58566
-4.35605
-4.14209
-3.94244
-3.7559
-3.58137
-3.41784
-3.26438
-3.12012
-2.98426
-2.85604
-2.73482
-2.61997
-2.51096
-2.4073
-2.30858
-2.21441
-2.12446
-11959
-11417.4
-10877.3
-10339.3
-9804.63
-9274.03
-8748.38
-8228.52
-7715.19
-7209.08
-6710.79
-6220.82
-5739.58
-5267.37
-4804.34
-4350.56
-3905.91
-3470.13
-3042.77
-2623.16
-2210.37
-1803.2
-1399.96
-997.581
-588.741
-153.776
-7.53503
-5.7206
-5.56503
-5.36246
-5.13546
-4.89949
-4.66454
-4.43682
-4.21992
-4.01564
-3.82456
-3.6465
-3.4808
-3.32652
-3.18261
-3.04799
-2.92164
-2.8026
-2.69002
-2.58315
-2.48136
-2.38414
-2.29103
-2.20169
-11958.5
-11415.9
-10874.6
-10335.4
-9799.23
-9267.03
-8739.64
-8217.88
-7702.5
-7194.17
-6693.47
-6200.89
-5716.78
-5241.34
-4774.65
-4316.58
-3866.79
-3424.69
-2989.34
-2559.41
-2133.15
-1708.55
-1283.81
-858.203
-433.088
-4.21541
-3.71389
-3.19495
-3.21296
-3.21441
-3.20188
-3.17789
-3.14473
-3.10436
-3.05839
-3.00813
-2.95456
-2.89842
-2.84022
-2.78033
-2.71899
-2.6564
-2.59267
-2.52794
-2.46232
-2.39597
-2.32904
-2.2617
-2.19416
-2.12662
-11957.9
-11414.2
-10871.6
-10331.2
-9793.72
-9260.11
-8731.18
-8207.74
-7690.52
-7180.16
-6677.21
-6182.08
-5695.08
-5216.36
-4745.91
-4283.58
-3829.05
-3381.9
-2941.61
-2507.67
-2079.73
-1657.65
-1241.74
-832.758
-431.92
-4.78142
-3.6895
-3.47147
-3.40711
-3.3438
-3.28123
-3.21914
-3.15732
-3.09564
-3.03397
-2.97222
-2.91032
-2.84821
-2.78584
-2.72319
-2.66024
-2.597
-2.53349
-2.46976
-2.40588
-2.34191
-2.27795
-2.21411
-2.15049
-2.08721
-11957.5
-11412.9
-10869.6
-10328.4
-9790.19
-9255.81
-8726.08
-8201.74
-7683.5
-7171.95
-6667.63
-6170.92
-5682.14
-5201.47
-4728.98
-4264.67
-3808.46
-3360.21
-2919.8
-2487.14
-2062.21
-1645.13
-1236.12
-835.527
-443.73
-5.73724
-4.25358
-4.10666
-3.99003
-3.87699
-3.76741
-3.66111
-3.55791
-3.45764
-3.36012
-3.2652
-3.17272
-3.08254
-2.99452
-2.90853
-2.82448
-2.74227
-2.6618
-2.58302
-2.50585
-2.43026
-2.3562
-2.28364
-2.21257
-2.14295
-11957.2
-11412
-10868
-10326.2
-9787.43
-9252.45
-8722.07
-8197.04
-7678.02
-7165.61
-6660.32
-6162.58
-5672.71
-5190.98
-4717.53
-4252.47
-3795.83
-3347.62
-2907.8
-2476.35
-2053.28
-1638.61
-1232.44
-834.86
-445.845
-7.0571
-5.18961
-5.00639
-4.83166
-4.66194
-4.4976
-4.33883
-4.18569
-4.03815
-3.8961
-3.75941
-3.62787
-3.50129
-3.37943
-3.26208
-3.149
-3.03998
-2.93481
-2.83331
-2.73528
-2.64057
-2.54902
-2.46047
-2.37482
-2.29192
-1.23787
-1.19165
-1.14637
-1.1022
-1.05922
-1.01749
-0.977051
-0.937895
-0.900016
-0.863397
-0.828017
-0.79385
-0.760869
-0.729047
-0.698355
-0.668766
-0.640251
-0.612782
-0.586331
-0.56087
-0.536371
-0.512806
-0.490148
-0.468369
-0.447443
-0.427341
-0.408039
-0.389509
-0.371727
-0.354668
-0.338306
-0.322618
-0.30758
-0.29317
-0.279365
-0.266144
-0.253486
-0.24137
-0.229776
-0.218684
-0.208077
-0.197935
-0.188241
-0.178978
-0.170129
-0.161678
-0.153609
-0.145908
-0.138559
-0.131549
-1.23594
-1.19158
-1.14835
-1.10625
-1.06525
-1.02535
-0.986533
-0.948795
-0.912122
-0.876505
-0.841933
-0.808397
-0.775887
-0.744394
-0.713906
-0.684412
-0.655897
-0.628347
-0.601747
-0.576079
-0.551325
-0.527466
-0.504481
-0.482351
-0.461053
-0.440566
-0.420867
-0.401935
-0.383746
-0.366279
-0.349511
-0.333421
-0.317985
-0.303184
-0.288995
-0.275398
-0.262373
-0.249899
-0.237957
-0.226527
-0.215593
-0.205134
-0.195133
-0.185574
-0.176439
-0.167713
-0.159379
-0.151422
-0.143827
-0.136581
-1.29087
-1.2418
-1.19439
-1.14857
-1.10429
-1.06147
-1.02008
-0.980062
-0.941369
-0.903962
-0.867803
-0.832857
-0.799091
-0.766472
-0.73497
-0.704557
-0.675205
-0.646886
-0.619572
-0.593238
-0.567858
-0.543406
-0.519856
-0.497184
-0.475365
-0.454375
-0.434188
-0.414782
-0.396133
-0.378218
-0.361014
-0.344498
-0.328649
-0.313444
-0.298862
-0.284883
-0.271487
-0.258652
-0.24636
-0.234591
-0.223327
-0.212549
-0.20224
-0.192383
-0.18296
-0.173955
-0.165352
-0.157136
-0.149292
-0.141804
-1.37112
-1.3156
-1.26232
-1.21116
-1.16203
-1.11483
-1.06945
-1.02582
-0.983861
-0.943497
-0.904661
-0.867288
-0.83132
-0.796702
-0.763381
-0.731309
-0.700439
-0.67073
-0.642139
-0.614629
-0.588161
-0.5627
-0.538213
-0.514667
-0.492031
-0.470274
-0.449367
-0.429283
-0.409992
-0.39147
-0.37369
-0.356626
-0.340256
-0.324554
-0.309499
-0.295067
-0.281236
-0.267986
-0.255296
-0.243146
-0.231516
-0.220387
-0.209741
-0.199559
-0.189825
-0.180521
-0.171631
-0.163139
-0.15503
-0.147288
-1.42767
-1.37026
-1.31495
-1.26167
-1.21037
-1.16099
-1.11348
-1.06777
-1.0238
-0.981509
-0.940826
-0.901692
-0.864048
-0.827838
-0.793007
-0.759502
-0.727276
-0.696281
-0.666471
-0.637806
-0.610245
-0.583748
-0.558278
-0.533801
-0.510281
-0.487685
-0.465983
-0.445142
-0.425133
-0.405928
-0.387498
-0.369817
-0.352858
-0.336595
-0.321005
-0.306063
-0.291746
-0.278031
-0.264897
-0.252322
-0.240286
-0.228769
-0.217751
-0.207214
-0.197139
-0.18751
-0.178308
-0.169517
-0.161121
-0.153105
-1.42261
-1.37228
-1.32253
-1.2736
-1.22568
-1.17889
-1.13334
-1.08907
-1.04614
-1.00454
-0.964279
-0.925346
-0.88772
-0.851379
-0.816295
-0.782441
-0.749786
-0.718299
-0.68795
-0.658709
-0.630544
-0.603426
-0.577324
-0.552208
-0.528049
-0.504819
-0.482488
-0.461029
-0.440413
-0.420614
-0.401606
-0.383361
-0.365854
-0.349062
-0.332958
-0.317519
-0.302722
-0.288545
-0.274964
-0.26196
-0.24951
-0.237594
-0.226193
-0.215288
-0.20486
-0.19489
-0.185361
-0.176257
-0.16756
-0.159255
-1.43233
-1.3821
-1.33299
-1.28504
-1.23826
-1.19268
-1.1483
-1.10512
-1.06315
-1.02237
-0.982783
-0.944376
-0.907135
-0.871047
-0.836098
-0.802269
-0.769545
-0.737907
-0.707336
-0.677812
-0.649313
-0.621818
-0.595305
-0.569751
-0.545133
-0.521427
-0.49861
-0.476656
-0.455542
-0.435245
-0.415738
-0.397
-0.379006
-0.361732
-0.345156
-0.329254
-0.314005
-0.299386
-0.285375
-0.271952
-0.259096
-0.246787
-0.235004
-0.22373
-0.212945
-0.20263
-0.192769
-0.183344
-0.174338
-0.165736
-1.50085
-1.44495
-1.39088
-1.33856
-1.28794
-1.23896
-1.19156
-1.14569
-1.10132
-1.05839
-1.01686
-0.976702
-0.937872
-0.900335
-0.864059
-0.829011
-0.79516
-0.762474
-0.730925
-0.700482
-0.671118
-0.642803
-0.61551
-0.589211
-0.563879
-0.539488
-0.516009
-0.493418
-0.471688
-0.450793
-0.430709
-0.41141
-0.392871
-0.37507
-0.357982
-0.341584
-0.325852
-0.310766
-0.296303
-0.282442
-0.269161
-0.256441
-0.244261
-0.232603
-0.221446
-0.210773
-0.200566
-0.190808
-0.181481
-0.172568
-1.60393
-1.53996
-1.47853
-1.41954
-1.36285
-1.30835
-1.25595
-1.20554
-1.15704
-1.11036
-1.06543
-1.02216
-0.980501
-0.940381
-0.901743
-0.864531
-0.828693
-0.79418
-0.760945
-0.728945
-0.698137
-0.668481
-0.63994
-0.612475
-0.586051
-0.560635
-0.536193
-0.512694
-0.490106
-0.468399
-0.447545
-0.427515
-0.408281
-0.389817
-0.372097
-0.355095
-0.338788
-0.32315
-0.308158
-0.293791
-0.280025
-0.266839
-0.254213
-0.242126
-0.230559
-0.219491
-0.208905
-0.198782
-0.189106
-0.179858
-1.68162
-1.6144
-1.54971
-1.48746
-1.42757
-1.36997
-1.31457
-1.26129
-1.21005
-1.16076
-1.11335
-1.06774
-1.02385
-0.981632
-0.941004
-0.901909
-0.864289
-0.828089
-0.793257
-0.759744
-0.727502
-0.696486
-0.666655
-0.637966
-0.610381
-0.583862
-0.558371
-0.533875
-0.510338
-0.487729
-0.466016
-0.445167
-0.425152
-0.405944
-0.387514
-0.369834
-0.352879
-0.336622
-0.321039
-0.306106
-0.291799
-0.278096
-0.264974
-0.252413
-0.240391
-0.228888
-0.217885
-0.207364
-0.197304
-0.18769
-1.67944
-1.6202
-1.56181
-1.50453
-1.44852
-1.39392
-1.3408
-1.28922
-1.23921
-1.19076
-1.14386
-1.09849
-1.05464
-1.01227
-0.971336
-0.931818
-0.893676
-0.856875
-0.821378
-0.787151
-0.75416
-0.722369
-0.691744
-0.662253
-0.633861
-0.606536
-0.580247
-0.554961
-0.530648
-0.507276
-0.484817
-0.46324
-0.442516
-0.422619
-0.40352
-0.385192
-0.367609
-0.350745
-0.334576
-0.319076
-0.304224
-0.289994
-0.276365
-0.263315
-0.250823
-0.238868
-0.227431
-0.216491
-0.20603
-0.196029
-1.67427
-1.6182
-1.56314
-1.50916
-1.45632
-1.40466
-1.35421
-1.30499
-1.25701
-1.21029
-1.16483
-1.12063
-1.07769
-1.036
-0.995556
-0.95634
-0.918343
-0.88155
-0.845944
-0.811507
-0.77822
-0.746061
-0.715009
-0.685041
-0.656133
-0.628261
-0.6014
-0.575524
-0.550608
-0.526626
-0.503552
-0.48136
-0.460024
-0.439519
-0.41982
-0.4009
-0.382736
-0.365303
-0.348576
-0.332533
-0.31715
-0.302405
-0.288275
-0.274739
-0.261776
-0.249365
-0.237486
-0.22612
-0.215248
-0.20485
-1.74559
-1.68444
-1.62496
-1.5671
-1.51084
-1.45615
-1.40299
-1.35135
-1.30119
-1.2525
-1.20524
-1.15939
-1.11493
-1.07183
-1.03007
-0.989626
-0.950471
-0.912581
-0.875932
-0.840498
-0.806254
-0.773173
-0.74123
-0.710398
-0.680651
-0.651963
-0.624306
-0.597654
-0.57198
-0.547258
-0.523462
-0.500564
-0.47854
-0.457363
-0.437007
-0.417449
-0.398662
-0.380622
-0.363307
-0.34669
-0.330751
-0.315466
-0.300812
-0.286768
-0.273314
-0.260427
-0.248088
-0.236277
-0.224975
-0.214163
-1.88459
-1.81277
-1.74356
-1.67686
-1.61255
-1.55052
-1.49069
-1.43297
-1.37727
-1.32352
-1.27166
-1.2216
-1.1733
-1.12668
-1.0817
-1.0383
-0.99643
-0.956038
-0.917079
-0.879508
-0.843283
-0.808362
-0.774704
-0.742271
-0.711025
-0.68093
-0.651951
-0.624053
-0.597202
-0.571367
-0.546515
-0.522615
-0.499637
-0.477553
-0.456332
-0.435947
-0.416371
-0.397577
-0.379538
-0.36223
-0.345627
-0.329706
-0.314442
-0.299813
-0.285796
-0.27237
-0.259513
-0.247205
-0.235425
-0.224155
-2.03845
-1.95612
-1.87725
-1.80162
-1.72908
-1.65944
-1.59258
-1.52835
-1.46662
-1.4073
-1.35027
-1.29543
-1.24269
-1.19197
-1.14317
-1.09623
-1.05108
-1.00763
-0.965826
-0.925608
-0.886914
-0.849688
-0.813877
-0.779429
-0.746296
-0.71443
-0.683789
-0.654327
-0.626006
-0.598783
-0.572623
-0.547487
-0.52334
-0.500149
-0.47788
-0.4565
-0.435979
-0.416288
-0.397396
-0.379275
-0.361899
-0.34524
-0.329273
-0.313974
-0.299317
-0.285279
-0.271838
-0.258972
-0.246658
-0.234877
-2.11582
-2.03319
-1.95363
-1.87696
-1.80306
-1.73183
-1.66317
-1.59698
-1.5332
-1.47173
-1.41251
-1.35547
-1.30053
-1.24762
-1.19667
-1.14762
-1.1004
-1.05495
-1.0112
-0.969101
-0.928589
-0.889609
-0.852108
-0.816033
-0.781335
-0.747966
-0.71588
-0.685032
-0.65538
-0.626882
-0.599498
-0.573189
-0.547918
-0.523649
-0.500348
-0.477979
-0.456512
-0.435912
-0.416151
-0.397199
-0.379025
-0.361603
-0.344906
-0.328906
-0.313578
-0.298899
-0.284843
-0.271388
-0.25851
-0.24619
-2.05929
-1.99238
-1.92608
-1.86059
-1.79606
-1.73265
-1.67049
-1.60968
-1.5503
-1.49242
-1.43609
-1.38134
-1.32818
-1.27663
-1.22667
-1.17831
-1.1315
-1.08624
-1.0425
-1.00025
-0.959449
-0.92007
-0.882078
-0.845436
-0.81011
-0.776065
-0.743263
-0.711671
-0.681254
-0.651976
-0.623804
-0.596704
-0.570644
-0.54559
-0.52151
-0.498375
-0.476152
-0.454813
-0.434327
-0.414666
-0.395801
-0.377707
-0.360356
-0.343722
-0.327779
-0.312504
-0.297871
-0.283859
-0.270443
-0.257603
-2.02439
-1.96213
-1.90055
-1.83975
-1.77982
-1.72085
-1.66291
-1.60607
-1.55038
-1.49588
-1.44263
-1.39064
-1.33993
-1.29053
-1.24244
-1.19566
-1.1502
-1.10605
-1.0632
-1.02165
-0.981378
-0.94237
-0.904607
-0.868073
-0.832745
-0.798601
-0.765619
-0.733775
-0.703044
-0.6734
-0.644818
-0.617271
-0.590734
-0.565179
-0.54058
-0.51691
-0.494143
-0.472252
-0.451211
-0.430994
-0.411577
-0.392932
-0.375036
-0.357864
-0.341392
-0.325597
-0.310456
-0.295945
-0.282043
-0.268729
-2.07477
-2.00804
-1.94274
-1.87886
-1.8164
-1.75537
-1.69575
-1.63754
-1.58074
-1.52534
-1.47134
-1.41872
-1.36749
-1.31763
-1.26913
-1.22197
-1.17616
-1.13166
-1.08847
-1.04657
-1.00593
-0.966554
-0.928407
-0.891473
-0.855729
-0.821154
-0.787726
-0.755421
-0.724216
-0.694086
-0.665008
-0.636956
-0.609906
-0.583832
-0.55871
-0.534514
-0.511219
-0.488801
-0.467235
-0.446495
-0.426558
-0.407399
-0.388995
-0.371321
-0.354356
-0.338075
-0.322458
-0.30748
-0.293122
-0.279362
-2.21166
-2.13395
-2.05869
-1.98577
-1.91513
-1.84668
-1.78034
-1.71605
-1.65374
-1.59336
-1.53483
-1.47812
-1.42317
-1.36993
-1.31835
-1.26839
-1.22001
-1.17317
-1.12783
-1.08394
-1.04149
-1.00042
-0.960706
-0.922314
-0.885209
-0.849361
-0.814736
-0.781303
-0.749032
-0.717893
-0.687854
-0.658888
-0.630964
-0.604055
-0.578131
-0.553166
-0.529131
-0.506
-0.483746
-0.462343
-0.441766
-0.421988
-0.402985
-0.384733
-0.367208
-0.350386
-0.334244
-0.31876
-0.303912
-0.289679
-0.126397
-0.122882
-0.119439
-0.116066
-0.112762
-0.109527
-0.106361
-0.103262
-0.10023
-0.0972636
-0.0943626
-0.0915261
-0.0887533
-0.0860435
-0.0833957
-0.0808094
-0.0782836
-0.0758175
-0.0734104
-0.0710614
-0.0687698
-0.0665346
-0.0643551
-0.0622305
-0.0601598
-0.0581424
-0.0561773
-0.0542637
-0.0524007
-0.0505876
-0.0488235
-0.0471075
-0.0454388
-0.0438166
-0.04224
-0.0407082
-0.0392203
-0.0377755
-0.0363731
-0.0350121
-0.0336917
-0.0324111
-0.0311695
-0.0299661
-0.0288
-0.0276706
-0.0265769
-0.0255181
-0.0244936
-0.0235024
-0.0225439
-0.0216172
-0.0207217
-0.0198565
-0.0190209
-0.0182142
-0.0174356
-0.0166844
-0.01596
-0.0152616
-0.0145884
-0.0139399
-0.0133154
-0.0127142
-0.0121355
-0.0115789
-0.0110437
-0.0105291
-0.0100347
-0.00955979
-0.00910379
-0.00866614
-0.00824625
-0.00784356
-0.00745752
-0.0070876
-0.00673326
-0.00639399
-0.00606928
-0.00575863
-0.00546157
-0.00517761
-0.0049063
-0.00464719
-0.00439982
-0.00416378
-0.00393865
-0.00372401
-0.00351948
-0.00332465
-0.00313916
-0.00296264
-0.00279474
-0.0026351
-0.0024834
-0.00233931
-0.00220251
-0.00207269
-0.00194956
-0.00183284
-0.00172224
-0.00161749
-0.00151834
-0.00142454
-0.00133583
-0.001252
-0.0011728
-0.00109803
-0.00102748
-0.000960941
-0.000898219
-0.000839129
-0.000783491
-0.000731133
-0.000681889
-0.000635599
-0.000592112
-0.00055128
-0.000512965
-0.000477031
-0.000443352
-0.000411803
-0.000382269
-0.000354636
-0.000328799
-0.000304656
-0.000282109
-0.000261067
-0.00024144
-0.000223146
-0.000206105
-0.000190242
-0.000175484
-0.000161764
-0.000149017
-0.000137182
-0.000126201
-0.00011602
-0.000106587
-9.78526e-05
-8.9771e-05
-8.22987e-05
-7.53946e-05
-6.90201e-05
-6.31388e-05
-5.77165e-05
-5.27211e-05
-4.81223e-05
-4.38919e-05
-4.00032e-05
-3.64314e-05
-3.31531e-05
-3.01466e-05
-2.73914e-05
-2.48686e-05
-2.25604e-05
-2.04501e-05
-1.85224e-05
-1.67629e-05
-1.51582e-05
-1.3696e-05
-1.23646e-05
-1.11534e-05
-1.00524e-05
-9.0525e-06
-8.14517e-06
-7.32254e-06
-6.57735e-06
-5.90291e-06
-5.29303e-06
-4.74202e-06
-4.24465e-06
-3.79608e-06
-3.39191e-06
-3.02806e-06
-2.70082e-06
-2.40677e-06
-2.1428e-06
-1.90604e-06
-1.69389e-06
-1.50397e-06
-1.33411e-06
-1.18234e-06
-1.04687e-06
-9.26049e-07
-8.18411e-07
-7.22606e-07
-6.37418e-07
-5.61743e-07
-4.94586e-07
-4.35047e-07
-3.82314e-07
-3.35655e-07
-2.94412e-07
-2.57993e-07
-2.25865e-07
-1.97551e-07
-1.72624e-07
-1.507e-07
-1.31438e-07
-1.1453e-07
-9.97041e-08
-8.67166e-08
-7.53511e-08
-6.5415e-08
-5.67371e-08
-4.91657e-08
-4.25661e-08
-3.68193e-08
-3.18199e-08
-2.7475e-08
-2.37025e-08
-2.04302e-08
-1.75946e-08
-1.51395e-08
-1.30159e-08
-1.11807e-08
-9.59638e-09
-8.22971e-09
-7.05193e-09
-6.03769e-09
-5.16518e-09
-4.41501e-09
-3.771e-09
-3.21837e-09
-2.7444e-09
-2.33827e-09
-1.9905e-09
-1.69325e-09
-1.43926e-09
-1.22242e-09
-1.03704e-09
-8.78797e-10
-7.44578e-10
-6.30284e-10
-5.3271e-10
-4.49312e-10
-3.78069e-10
-3.17779e-10
-2.66907e-10
-2.23383e-10
-1.87207e-10
-1.56435e-10
-1.29405e-10
-1.07299e-10
-8.89407e-11
-7.33817e-11
-5.98721e-11
-4.7789e-11
-3.64215e-11
-2.78614e-11
-2.1414e-11
-1.65259e-11
-1.27916e-11
-9.92251e-12
-7.71006e-12
-5.99984e-12
-4.67524e-12
-3.64742e-12
-2.84848e-12
-2.22642e-12
-1.74136e-12
-1.36265e-12
-1.06665e-12
-8.35095e-13
-6.53831e-13
-5.1186e-13
-4.00626e-13
-3.13457e-13
-2.45143e-13
-1.9161e-13
-1.49669e-13
-1.1682e-13
-9.11048e-14
-7.09845e-14
-5.52523e-14
-4.29606e-14
-3.33651e-14
-2.58814e-14
-2.00505e-14
-1.55126e-14
-1.1985e-14
-9.24613e-15
-7.12256e-15
-5.47833e-15
-4.20716e-15
-3.22595e-15
-2.46986e-15
-1.88835e-15
-1.44205e-15
-1.10039e-15
-8.39659e-16
-6.41506e-16
-4.91801e-16
-3.7971e-16
-2.96992e-16
-2.37456e-16
-1.96554e-16
-1.71068e-16
-1.58894e-16
-0.131254
-0.127619
-0.124058
-0.120569
-0.117151
-0.113805
-0.110528
-0.107321
-0.104183
-0.101112
-0.0981087
-0.0951718
-0.0923004
-0.0894939
-0.0867514
-0.084072
-0.0814551
-0.0788998
-0.0764052
-0.0739706
-0.071595
-0.0692777
-0.0670178
-0.0648145
-0.0626669
-0.0605742
-0.0585355
-0.0565499
-0.0546167
-0.0527349
-0.0509036
-0.0491221
-0.0473894
-0.0457047
-0.0440672
-0.0424759
-0.04093
-0.0394287
-0.0379711
-0.0365564
-0.0351837
-0.0338521
-0.0325609
-0.0313092
-0.0300961
-0.0289209
-0.0277827
-0.0266807
-0.0256141
-0.0245821
-0.0235839
-0.0226187
-0.0216857
-0.0207842
-0.0199134
-0.0190725
-0.0182608
-0.0174775
-0.0167219
-0.0159933
-0.015291
-0.0146143
-0.0139624
-0.0133347
-0.0127305
-0.0121491
-0.0115899
-0.0110523
-0.0105356
-0.0100391
-0.00956237
-0.00910467
-0.00866546
-0.00824414
-0.00784016
-0.00745295
-0.00708197
-0.00672668
-0.00638656
-0.00606109
-0.00574978
-0.00545214
-0.00516768
-0.00489594
-0.00463646
-0.0043888
-0.00415252
-0.00392721
-0.00371244
-0.00350781
-0.00331294
-0.00312745
-0.00295096
-0.00278312
-0.00262357
-0.00247199
-0.00232804
-0.0021914
-0.00206177
-0.00193885
-0.00182234
-0.00171197
-0.00160746
-0.00150856
-0.00141501
-0.00132657
-0.00124301
-0.00116408
-0.00108959
-0.00101931
-0.000953049
-0.000890603
-0.000831788
-0.000776422
-0.000724334
-0.000675355
-0.000629328
-0.000586098
-0.00054552
-0.000507452
-0.00047176
-0.000438317
-0.000406998
-0.000377687
-0.000350272
-0.000324646
-0.000300706
-0.000278357
-0.000257505
-0.000238062
-0.000219945
-0.000203074
-0.000187374
-0.000172773
-0.000159204
-0.000146601
-0.000134904
-0.000124055
-0.000114
-0.000104687
-9.60669e-05
-8.8094e-05
-8.07251e-05
-7.39192e-05
-6.76379e-05
-6.18449e-05
-5.65063e-05
-5.159e-05
-4.7066e-05
-4.29062e-05
-3.90842e-05
-3.55751e-05
-3.2356e-05
-2.94051e-05
-2.67022e-05
-2.42285e-05
-2.19663e-05
-1.98992e-05
-1.8012e-05
-1.62903e-05
-1.4721e-05
-1.32918e-05
-1.19913e-05
-1.08088e-05
-9.73463e-06
-8.75966e-06
-7.87552e-06
-7.07443e-06
-6.34925e-06
-5.69335e-06
-5.10066e-06
-4.56557e-06
-4.08291e-06
-3.64796e-06
-3.25636e-06
-2.90411e-06
-2.58756e-06
-2.30336e-06
-2.04845e-06
-1.82003e-06
-1.61554e-06
-1.43265e-06
-1.26925e-06
-1.12339e-06
-9.9333e-07
-8.77468e-07
-7.74359e-07
-6.82692e-07
-6.0128e-07
-5.29049e-07
-4.65031e-07
-4.08349e-07
-3.58215e-07
-3.13919e-07
-2.74822e-07
-2.4035e-07
-2.09988e-07
-1.83275e-07
-1.59797e-07
-1.39183e-07
-1.21105e-07
-1.05267e-07
-9.1407e-08
-7.92903e-08
-6.87095e-08
-5.94797e-08
-5.14372e-08
-4.44368e-08
-3.83502e-08
-3.30637e-08
-2.84771e-08
-2.45021e-08
-2.10608e-08
-1.80847e-08
-1.55138e-08
-1.32952e-08
-1.13826e-08
-9.73566e-09
-8.31891e-09
-7.10143e-09
-6.05632e-09
-5.16005e-09
-4.39224e-09
-3.73513e-09
-3.17333e-09
-2.69349e-09
-2.28403e-09
-1.935e-09
-1.63778e-09
-1.38488e-09
-1.16987e-09
-9.87258e-10
-8.32326e-10
-7.01003e-10
-5.89755e-10
-4.95605e-10
-4.16043e-10
-3.48785e-10
-2.91994e-10
-2.44117e-10
-2.03722e-10
-1.69735e-10
-1.41157e-10
-1.17093e-10
-9.69264e-11
-8.00085e-11
-6.57913e-11
-5.3815e-11
-4.37936e-11
-3.54764e-11
-2.86377e-11
-2.30521e-11
-1.85123e-11
-1.4836e-11
-1.18682e-11
-9.4788e-12
-7.55943e-12
-6.02075e-12
-4.78942e-12
-3.80557e-12
-3.02054e-12
-2.39495e-12
-1.89698e-12
-1.50103e-12
-1.18653e-12
-9.36976e-13
-7.3915e-13
-5.82482e-13
-4.5853e-13
-3.6056e-13
-2.83203e-13
-2.22185e-13
-1.74105e-13
-1.36261e-13
-1.06508e-13
-8.3142e-14
-6.48147e-14
-5.04573e-14
-3.92241e-14
-3.04469e-14
-2.35982e-14
-1.82618e-14
-1.41098e-14
-1.08843e-14
-8.38241e-15
-6.44504e-15
-4.94737e-15
-3.79175e-15
-2.90182e-15
-2.21803e-15
-1.69401e-15
-1.2937e-15
-9.89201e-16
-7.58964e-16
-5.8645e-16
-4.59065e-16
-3.67341e-16
-3.04315e-16
-2.65064e-16
-2.46372e-16
-0.136299
-0.132542
-0.12886
-0.125253
-0.121719
-0.118257
-0.114868
-0.11155
-0.108302
-0.105124
-0.102016
-0.0989754
-0.0960025
-0.0930962
-0.0902558
-0.0874805
-0.0847694
-0.0821217
-0.0795365
-0.0770131
-0.0745506
-0.0721481
-0.0698048
-0.0675198
-0.0652923
-0.0631213
-0.061006
-0.0589456
-0.0569392
-0.0549858
-0.0530846
-0.0512348
-0.0494354
-0.0476856
-0.0459844
-0.0443311
-0.0427247
-0.0411643
-0.0396492
-0.0381783
-0.0367509
-0.0353661
-0.0340229
-0.0327207
-0.0314584
-0.0302354
-0.0290506
-0.0279033
-0.0267927
-0.0257179
-0.0246781
-0.0236726
-0.0227004
-0.0217608
-0.020853
-0.0199763
-0.0191298
-0.0183129
-0.0175247
-0.0167644
-0.0160315
-0.0153251
-0.0146445
-0.013989
-0.0133579
-0.0127506
-0.0121663
-0.0116044
-0.0110643
-0.0105452
-0.0100466
-0.00956784
-0.00910831
-0.00866741
-0.00824455
-0.00783916
-0.00745067
-0.00707852
-0.00672218
-0.00638112
-0.00605481
-0.00574275
-0.00544444
-0.0051594
-0.00488716
-0.00462725
-0.00437922
-0.00414264
-0.00391707
-0.00370211
-0.00349734
-0.00330238
-0.00311682
-0.00294032
-0.00277249
-0.002613
-0.00246149
-0.00231765
-0.00218113
-0.00205165
-0.00192889
-0.00181256
-0.00170239
-0.00159809
-0.00149941
-0.0014061
-0.00131789
-0.00123457
-0.0011559
-0.00108165
-0.00101163
-0.000945621
-0.000883431
-0.00082487
-0.000769758
-0.000717921
-0.000669192
-0.00062341
-0.000580422
-0.000540082
-0.000502247
-0.000466784
-0.000433563
-0.000402461
-0.000373362
-0.000346152
-0.000320726
-0.000296979
-0.000274817
-0.000254145
-0.000234877
-0.000216928
-0.000200218
-0.000184674
-0.000170222
-0.000156795
-0.00014433
-0.000132764
-0.00012204
-0.000112104
-0.000102905
-9.43929e-05
-8.65233e-05
-7.92524e-05
-7.25395e-05
-6.63465e-05
-6.06371e-05
-5.53776e-05
-5.05361e-05
-4.60829e-05
-4.19898e-05
-3.82306e-05
-3.47808e-05
-3.16174e-05
-2.87189e-05
-2.60652e-05
-2.36376e-05
-2.14187e-05
-1.93921e-05
-1.75428e-05
-1.58566e-05
-1.43204e-05
-1.2922e-05
-1.16502e-05
-1.04946e-05
-9.44533e-06
-8.49354e-06
-7.63091e-06
-6.8498e-06
-6.14312e-06
-5.50436e-06
-4.92753e-06
-4.4071e-06
-3.93798e-06
-3.51552e-06
-3.13544e-06
-2.7938e-06
-2.48701e-06
-2.21178e-06
-1.96511e-06
-1.74425e-06
-1.5467e-06
-1.37016e-06
-1.21257e-06
-1.07203e-06
-9.46821e-07
-8.3539e-07
-7.36322e-07
-6.48336e-07
-5.70274e-07
-5.01091e-07
-4.39841e-07
-3.85672e-07
-3.37817e-07
-2.95586e-07
-2.58359e-07
-2.25579e-07
-1.96746e-07
-1.71412e-07
-1.49179e-07
-1.29688e-07
-1.12621e-07
-9.76924e-08
-8.46496e-08
-7.32672e-08
-6.33453e-08
-5.47064e-08
-4.71933e-08
-4.06668e-08
-3.50038e-08
-3.0096e-08
-2.58474e-08
-2.21739e-08
-1.90013e-08
-1.62646e-08
-1.39065e-08
-1.18771e-08
-1.01327e-08
-8.63486e-09
-7.35032e-09
-6.25001e-09
-5.30855e-09
-4.50398e-09
-3.81716e-09
-3.23155e-09
-2.73281e-09
-2.30852e-09
-1.94797e-09
-1.64193e-09
-1.38248e-09
-1.16277e-09
-9.76884e-10
-8.19823e-10
-6.87225e-10
-5.75426e-10
-4.81229e-10
-4.01972e-10
-3.35371e-10
-2.79403e-10
-2.32531e-10
-1.93192e-10
-1.60254e-10
-1.32753e-10
-1.09753e-10
-9.05923e-11
-7.46181e-11
-6.12972e-11
-5.01903e-11
-4.09267e-11
-3.33095e-11
-2.706e-11
-2.19436e-11
-1.77635e-11
-1.43551e-11
-1.15811e-11
-9.32786e-12
-7.50092e-12
-6.02235e-12
-4.82784e-12
-3.86447e-12
-3.0888e-12
-2.46526e-12
-1.9648e-12
-1.56373e-12
-1.2428e-12
-9.8636e-13
-7.8175e-13
-6.18725e-13
-4.89014e-13
-3.85956e-13
-3.04186e-13
-2.39399e-13