/*--------------------------------*- C++ -*----------------------------------*\
| =========                 |                                                 |
| \\      /  F ield         | OpenFOAM: The Open Source CFD Toolbox           |
|  \\    /   O peration     | Version:  2.4.0                                 |
|   \\  /    A nd           | Web:      www.OpenFOAM.org                      |
|    \\/     M anipulation  |                                                 |
\*---------------------------------------------------------------------------*/
FoamFile
{
    version     2.0;
    format      ascii;
    class       volScalarField;
    location    "1.2";
    object      p;
}
// * * * * * * * * * * * * * * * * * * * * * * * * * * * * * * * * * * * * * //

dimensions      [1 -1 -2 0 0 0 0];

internalField   nonuniform List<scalar> 
8000
(
-0.479501
-0.482185
-0.485076
-0.487718
-0.490137
-0.492395
-0.494515
-0.496496
-0.498338
-0.500037
-0.501596
-0.503009
-0.504279
-0.505396
-0.506363
-0.507169
-0.507814
-0.50828
-0.50855
-0.508613
-0.508626
-0.508954
-0.509432
-0.506098
-0.489062
-0.463242
-0.528431
-0.935779
-1.54388
-0.562529
-0.458174
-0.457878
-0.457918
-0.457942
-0.457946
-0.457944
-0.457942
-0.457942
-0.457941
-0.457941
-0.45794
-0.45794
-0.45794
-0.45794
-0.45794
-0.45794
-0.45794
-0.45794
-0.45794
-0.457939
-0.500889
-0.503752
-0.506835
-0.50967
-0.512292
-0.514768
-0.517122
-0.519355
-0.521467
-0.523458
-0.525329
-0.52708
-0.528712
-0.53022
-0.531606
-0.532865
-0.533996
-0.534984
-0.535822
-0.536506
-0.537158
-0.53802
-0.538817
-0.53646
-0.524425
-0.510004
-0.571012
-0.870663
-1.23538
-0.504327
-0.480465
-0.480206
-0.480257
-0.480283
-0.480285
-0.480283
-0.480282
-0.480281
-0.480281
-0.48028
-0.48028
-0.48028
-0.48028
-0.48028
-0.48028
-0.48028
-0.48028
-0.48028
-0.48028
-0.48028
-0.575401
-0.576673
-0.578211
-0.579818
-0.58149
-0.583246
-0.585095
-0.587036
-0.58907
-0.591196
-0.593417
-0.595731
-0.598146
-0.60066
-0.603281
-0.606007
-0.608851
-0.611803
-0.614873
-0.618077
-0.621561
-0.625482
-0.629296
-0.62986
-0.623053
-0.623668
-0.711393
-0.987548
-1.08112
-0.507601
-0.502747
-0.50255
-0.502598
-0.50262
-0.502622
-0.50262
-0.502619
-0.502619
-0.502618
-0.502618
-0.502618
-0.502618
-0.502618
-0.502618
-0.502618
-0.502618
-0.502618
-0.502618
-0.502618
-0.502618
-0.599521
-0.600099
-0.60085
-0.601747
-0.602797
-0.604002
-0.605359
-0.606863
-0.608515
-0.610312
-0.612255
-0.614342
-0.61658
-0.618967
-0.621512
-0.624215
-0.627086
-0.630119
-0.633328
-0.636753
-0.640564
-0.64485
-0.648621
-0.648117
-0.641246
-0.653969
-0.781312
-1.07127
-0.922761
-0.526247
-0.524981
-0.524909
-0.524943
-0.524957
-0.524958
-0.524957
-0.524956
-0.524956
-0.524956
-0.524955
-0.524955
-0.524955
-0.524956
-0.524956
-0.524956
-0.524956
-0.524956
-0.524956
-0.524956
-0.524957
-0.610421
-0.611788
-0.613384
-0.614975
-0.616558
-0.618158
-0.619781
-0.621427
-0.623094
-0.624778
-0.626481
-0.628198
-0.62993
-0.631675
-0.633433
-0.635201
-0.636975
-0.638738
-0.640492
-0.64234
-0.644595
-0.647238
-0.647507
-0.637456
-0.61779
-0.65902
-0.962668
-1.49728
-0.793388
-0.547754
-0.547254
-0.547282
-0.54731
-0.547315
-0.547313
-0.547311
-0.54731
-0.547308
-0.547307
-0.547307
-0.547306
-0.547305
-0.547305
-0.547304
-0.547304
-0.547304
-0.547303
-0.547303
-0.547303
-0.547302
-0.583243
-0.586201
-0.589337
-0.592164
-0.594716
-0.597067
-0.59924
-0.601236
-0.603052
-0.60469
-0.606147
-0.607424
-0.608515
-0.609421
-0.610133
-0.610651
-0.610955
-0.611029
-0.610864
-0.610619
-0.610661
-0.610782
-0.60693
-0.5892
-0.563369
-0.631791
-1.04535
-1.64529
-0.643898
-0.569848
-0.569559
-0.569613
-0.56964
-0.569643
-0.569641
-0.569639
-0.569639
-0.569638
-0.569638
-0.569638
-0.569637
-0.569637
-0.569637
-0.569637
-0.569637
-0.569637
-0.569637
-0.569637
-0.569637
-0.569637
-0.62703
-0.629625
-0.632455
-0.63509
-0.637552
-0.639904
-0.642165
-0.644338
-0.646421
-0.648418
-0.650328
-0.652152
-0.653889
-0.655541
-0.657103
-0.658579
-0.659955
-0.661224
-0.662388
-0.663581
-0.665049
-0.66646
-0.664524
-0.652667
-0.639756
-0.708811
-1.02389
-1.3694
-0.605768
-0.592154
-0.591898
-0.591955
-0.591981
-0.591984
-0.591982
-0.59198
-0.59198
-0.591979
-0.591979
-0.591979
-0.591979
-0.591979
-0.591979
-0.591979
-0.591979
-0.591979
-0.591979
-0.591979
-0.591979
-0.591979
-0.697299
-0.698215
-0.699369
-0.700637
-0.702014
-0.703511
-0.705132
-0.706877
-0.708744
-0.710734
-0.712848
-0.71509
-0.717458
-0.719961
-0.722597
-0.725377
-0.728293
-0.731355
-0.734581
-0.738121
-0.742141
-0.746064
-0.746606
-0.739515
-0.740391
-0.832596
-1.1202
-1.20619
-0.617067
-0.614406
-0.614253
-0.614299
-0.614319
-0.614321
-0.614319
-0.614318
-0.614317
-0.614317
-0.614317
-0.614317
-0.614317
-0.614317
-0.614317
-0.614317
-0.614317
-0.614317
-0.614317
-0.614317
-0.614317
-0.614317
-0.717333
-0.717775
-0.71837
-0.719117
-0.720021
-0.721082
-0.722295
-0.723659
-0.725169
-0.726826
-0.728628
-0.730579
-0.732677
-0.734929
-0.737333
-0.7399
-0.74262
-0.745508
-0.7486
-0.752072
-0.756012
-0.759397
-0.758349
-0.750709
-0.763239
-0.894038
-1.19201
-1.04001
-0.637448
-0.636625
-0.636618
-0.63665
-0.63666
-0.63666
-0.636658
-0.636658
-0.636657
-0.636657
-0.636657
-0.636657
-0.636657
-0.636657
-0.636657
-0.636657
-0.636657
-0.636657
-0.636657
-0.636657
-0.636657
-0.636657
-0.726316
-0.727576
-0.729054
-0.730532
-0.732003
-0.73349
-0.735
-0.736533
-0.738086
-0.739658
-0.741247
-0.742853
-0.744473
-0.746108
-0.747756
-0.749412
-0.75106
-0.752702
-0.75444
-0.756593
-0.759132
-0.759278
-0.749047
-0.729261
-0.770942
-1.07637
-1.61071
-0.897585
-0.659359
-0.658923
-0.65898
-0.659011
-0.659015
-0.659012
-0.65901
-0.659008
-0.659007
-0.659006
-0.659006
-0.659005
-0.659005
-0.659004
-0.659004
-0.659003
-0.659003
-0.659003
-0.659003
-0.659002
-0.659002
-0.659002
-0.692354
-0.695239
-0.698278
-0.700991
-0.703416
-0.705625
-0.707641
-0.709464
-0.711095
-0.71253
-0.713771
-0.714813
-0.715658
-0.716299
-0.716734
-0.716946
-0.716917
-0.71664
-0.716287
-0.716267
-0.716352
-0.712121
-0.692727
-0.664433
-0.739109
-1.19167
-1.8476
-0.745492
-0.681547
-0.681246
-0.681311
-0.68134
-0.681343
-0.681341
-0.681339
-0.681338
-0.681338
-0.681338
-0.681337
-0.681337
-0.681337
-0.681337
-0.681337
-0.681337
-0.681337
-0.681337
-0.681338
-0.681338
-0.681338
-0.681338
-0.738511
-0.740985
-0.74368
-0.746174
-0.748488
-0.75068
-0.752771
-0.754761
-0.756651
-0.758441
-0.760133
-0.761726
-0.763221
-0.764615
-0.765912
-0.767096
-0.768162
-0.769109
-0.770083
-0.771363
-0.772641
-0.770377
-0.757116
-0.741257
-0.812083
-1.15596
-1.56435
-0.714347
-0.703855
-0.703596
-0.703658
-0.703685
-0.703688
-0.703685
-0.703684
-0.703683
-0.703683
-0.703683
-0.703682
-0.703682
-0.703682
-0.703682
-0.703682
-0.703682
-0.703682
-0.703682
-0.703682
-0.703682
-0.703682
-0.703682
-0.806897
-0.807752
-0.808826
-0.809997
-0.811265
-0.812639
-0.814126
-0.815722
-0.81743
-0.819247
-0.821178
-0.823222
-0.825384
-0.827662
-0.830066
-0.832586
-0.835228
-0.838005
-0.841066
-0.844614
-0.848166
-0.848389
-0.840027
-0.836169
-0.921449
-1.22532
-1.40503
-0.728092
-0.726071
-0.725953
-0.725998
-0.726017
-0.726019
-0.726017
-0.726016
-0.726016
-0.726016
-0.726015
-0.726015
-0.726016
-0.726016
-0.726016
-0.726016
-0.726016
-0.726016
-0.726017
-0.726017
-0.726017
-0.726017
-0.726017
-0.830988
-0.831445
-0.832041
-0.832761
-0.833614
-0.834598
-0.835715
-0.83696
-0.838333
-0.839831
-0.841459
-0.843211
-0.845096
-0.847108
-0.849259
-0.851535
-0.853948
-0.856519
-0.859415
-0.862758
-0.865751
-0.864771
-0.856516
-0.862186
-0.973726
-1.26926
-1.23995
-0.749033
-0.748308
-0.748338
-0.748372
-0.748379
-0.748377
-0.748375
-0.748374
-0.748373
-0.748373
-0.748372
-0.748371
-0.748371
-0.748371
-0.74837
-0.74837
-0.74837
-0.748369
-0.748369
-0.748369
-0.748369
-0.748368
-0.748368
-0.846799
-0.847309
-0.847985
-0.848771
-0.849667
-0.850674
-0.851794
-0.853022
-0.854361
-0.855806
-0.857362
-0.859023
-0.860798
-0.862681
-0.86468
-0.866782
-0.868998
-0.871379
-0.874135
-0.877303
-0.879421
-0.8757
-0.865108
-0.885289
-1.05659
-1.39723
-1.09007
-0.771059
-0.770586
-0.770662
-0.770697
-0.7707
-0.770698
-0.770697
-0.770696
-0.770696
-0.770696
-0.770696
-0.770697
-0.770697
-0.770697
-0.770697
-0.770698
-0.770698
-0.770698
-0.770698
-0.770698
-0.770699
-0.770699
-0.770699
-0.828639
-0.830226
-0.831975
-0.833605
-0.835122
-0.836559
-0.837929
-0.83923
-0.840461
-0.84162
-0.842704
-0.843712
-0.844642
-0.84549
-0.846244
-0.846882
-0.847398
-0.847971
-0.849105
-0.8507
-0.848038
-0.828143
-0.793914
-0.865884
-1.3745
-2.22022
-0.962204
-0.793392
-0.792959
-0.793048
-0.793085
-0.793086
-0.793081
-0.793077
-0.793075
-0.793073
-0.793071
-0.79307
-0.793068
-0.793067
-0.793066
-0.793065
-0.793064
-0.793063
-0.793062
-0.793061
-0.79306
-0.793059
-0.793058
-0.793057
-0.806803
-0.809586
-0.812492
-0.815062
-0.817333
-0.819376
-0.821211
-0.822843
-0.824266
-0.825483
-0.826491
-0.827291
-0.827879
-0.828254
-0.8284
-0.828302
-0.827955
-0.827536
-0.827452
-0.827439
-0.823033
-0.803561
-0.776167
-0.853727
-1.30556
-1.94113
-0.842295
-0.815586
-0.81528
-0.815353
-0.815385
-0.815387
-0.815385
-0.815383
-0.815383
-0.815383
-0.815382
-0.815382
-0.815382
-0.815383
-0.815383
-0.815383
-0.815383
-0.815383
-0.815383
-0.815383
-0.815383
-0.815383
-0.815383
-0.815383
-0.872458
-0.874162
-0.876093
-0.877959
-0.879761
-0.881536
-0.883298
-0.885049
-0.886787
-0.888517
-0.890237
-0.891951
-0.893659
-0.895366
-0.897063
-0.898744
-0.900417
-0.902237
-0.904508
-0.906904
-0.905727
-0.893158
-0.878057
-0.954324
-1.31723
-1.7391
-0.842057
-0.837861
-0.837654
-0.837713
-0.837739
-0.837741
-0.837738
-0.837737
-0.837736
-0.837736
-0.837735
-0.837735
-0.837735
-0.837735
-0.837735
-0.837735
-0.837734
-0.837734
-0.837734
-0.837734
-0.837734
-0.837733
-0.837733
-0.837733
-0.914225
-0.914951
-0.915845
-0.916821
-0.917881
-0.919037
-0.920288
-0.921637
-0.923079
-0.924618
-0.92625
-0.927982
-0.929809
-0.931739
-0.933762
-0.935878
-0.9381
-0.940578
-0.943543
-0.946548
-0.946121
-0.936267
-0.92908
-1.01275
-1.33515
-1.58464
-0.86107
-0.860029
-0.860022
-0.86006
-0.860072
-0.860072
-0.86007
-0.860069
-0.860069
-0.860068
-0.860068
-0.860068
-0.860068
-0.860068
-0.860068
-0.860068
-0.860068
-0.860068
-0.860068
-0.860068
-0.860068
-0.860068
-0.860068
-0.860068
-0.933371
-0.934051
-0.934854
-0.935716
-0.936644
-0.937649
-0.93873
-0.939888
-0.941118
-0.942422
-0.943795
-0.945241
-0.946755
-0.948342
-0.949988
-0.951697
-0.953485
-0.955513
-0.957932
-0.960011
-0.958064
-0.947969
-0.949023
-1.05468
-1.36357
-1.42572
-0.882887
-0.882308
-0.882388
-0.882425
-0.882429
-0.882425
-0.882423
-0.882422
-0.882422
-0.882421
-0.88242
-0.88242
-0.882419
-0.882419
-0.882419
-0.882419
-0.882418
-0.882418
-0.882418
-0.882417
-0.882417
-0.882417
-0.882417
-0.882416
-0.457939
-0.457939
-0.457939
-0.457939
-0.457939
-0.457939
-0.457939
-0.457939
-0.457939
-0.457939
-0.457939
-0.457939
-0.457939
-0.457939
-0.457939
-0.457939
-0.457939
-0.457939
-0.457939
-0.457939
-0.457939
-0.457939
-0.457939
-0.457939
-0.457939
-0.457939
-0.457939
-0.457939
-0.457939
-0.457939
-0.457939
-0.457939
-0.457939
-0.457939
-0.457939
-0.457939
-0.457939
-0.457939
-0.457939
-0.457939
-0.457939
-0.457939
-0.457939
-0.457939
-0.457938
-0.457938
-0.457938
-0.457938
-0.457938
-0.457938
-0.48028
-0.48028
-0.48028
-0.480279
-0.480279
-0.480279
-0.480279
-0.480279
-0.480279
-0.480279
-0.480279
-0.480279
-0.480279
-0.480279
-0.480279
-0.480279
-0.480279
-0.480279
-0.480279
-0.480279
-0.480279
-0.480279
-0.480279
-0.480279
-0.480279
-0.480279
-0.480279
-0.480279
-0.480279
-0.480279
-0.480279
-0.480279
-0.480279
-0.480279
-0.480279
-0.480279
-0.480279
-0.480279
-0.480279
-0.480279
-0.480279
-0.480279
-0.480279
-0.480279
-0.480279
-0.480278
-0.480278
-0.480278
-0.480278
-0.480278
-0.502618
-0.502618
-0.502618
-0.502618
-0.502618
-0.502618
-0.502618
-0.502618
-0.502618
-0.502618
-0.502618
-0.502618
-0.502618
-0.502618
-0.502618
-0.502618
-0.502618
-0.502618
-0.502618
-0.502618
-0.502618
-0.502618
-0.502618
-0.502618
-0.502618
-0.502618
-0.502618
-0.502618
-0.502618
-0.502618
-0.502618
-0.502618
-0.502618
-0.502618
-0.502618
-0.502618
-0.502618
-0.502618
-0.502618
-0.502618
-0.502618
-0.502618
-0.502618
-0.502618
-0.502618
-0.502618
-0.502618
-0.502618
-0.502618
-0.502618
-0.524957
-0.524957
-0.524957
-0.524957
-0.524957
-0.524957
-0.524957
-0.524957
-0.524957
-0.524957
-0.524957
-0.524957
-0.524957
-0.524957
-0.524957
-0.524957
-0.524957
-0.524958
-0.524958
-0.524958
-0.524958
-0.524958
-0.524958
-0.524958
-0.524958
-0.524958
-0.524958
-0.524958
-0.524958
-0.524958
-0.524958
-0.524958
-0.524958
-0.524958
-0.524958
-0.524958
-0.524958
-0.524958
-0.524958
-0.524958
-0.524957
-0.524957
-0.524957
-0.524957
-0.524957
-0.524957
-0.524957
-0.524957
-0.524957
-0.524957
-0.547302
-0.547302
-0.547302
-0.547301
-0.547301
-0.547301
-0.547301
-0.547301
-0.547301
-0.5473
-0.5473
-0.5473
-0.5473
-0.5473
-0.5473
-0.5473
-0.547299
-0.547299
-0.547299
-0.547299
-0.547299
-0.547299
-0.547299
-0.547299
-0.547299
-0.547299
-0.547299
-0.547299
-0.547299
-0.547299
-0.547298
-0.547298
-0.547298
-0.547298
-0.547298
-0.547298
-0.547298
-0.547298
-0.547298
-0.547298
-0.547298
-0.547298
-0.547298
-0.547298
-0.547298
-0.547298
-0.547298
-0.547298
-0.547298
-0.547298
-0.569637
-0.569637
-0.569637
-0.569637
-0.569637
-0.569637
-0.569637
-0.569637
-0.569637
-0.569637
-0.569637
-0.569637
-0.569637
-0.569637
-0.569637
-0.569637
-0.569637
-0.569637
-0.569637
-0.569637
-0.569637
-0.569637
-0.569637
-0.569637
-0.569637
-0.569637
-0.569637
-0.569637
-0.569637
-0.569637
-0.569637
-0.569637
-0.569637
-0.569637
-0.569637
-0.569637
-0.569637
-0.569637
-0.569637
-0.569637
-0.569637
-0.569637
-0.569637
-0.569637
-0.569637
-0.569637
-0.569637
-0.569637
-0.569637
-0.569637
-0.591979
-0.591979
-0.591979
-0.591979
-0.591979
-0.591979
-0.591979
-0.591979
-0.591979
-0.591979
-0.591978
-0.591978
-0.591978
-0.591978
-0.591978
-0.591978
-0.591978
-0.591978
-0.591978
-0.591978
-0.591978
-0.591978
-0.591978
-0.591978
-0.591978
-0.591978
-0.591978
-0.591978
-0.591978
-0.591978
-0.591978
-0.591978
-0.591978
-0.591978
-0.591978
-0.591978
-0.591978
-0.591978
-0.591978
-0.591978
-0.591977
-0.591977
-0.591977
-0.591977
-0.591977
-0.591977
-0.591977
-0.591977
-0.591977
-0.591977
-0.614317
-0.614317
-0.614317
-0.614317
-0.614317
-0.614317
-0.614317
-0.614317
-0.614317
-0.614317
-0.614317
-0.614317
-0.614317
-0.614317
-0.614317
-0.614317
-0.614317
-0.614317
-0.614317
-0.614317
-0.614317
-0.614317
-0.614317
-0.614317
-0.614317
-0.614317
-0.614317
-0.614317
-0.614317
-0.614317
-0.614317
-0.614317
-0.614317
-0.614317
-0.614317
-0.614317
-0.614317
-0.614317
-0.614317
-0.614317
-0.614317
-0.614317
-0.614317
-0.614317
-0.614316
-0.614316
-0.614316
-0.614316
-0.614316
-0.614316
-0.636657
-0.636657
-0.636657
-0.636657
-0.636657
-0.636657
-0.636657
-0.636658
-0.636658
-0.636658
-0.636658
-0.636658
-0.636658
-0.636658
-0.636658
-0.636658
-0.636658
-0.636658
-0.636658
-0.636658
-0.636658
-0.636657
-0.636657
-0.636657
-0.636657
-0.636657
-0.636657
-0.636657
-0.636657
-0.636657
-0.636657
-0.636657
-0.636657
-0.636657
-0.636657
-0.636657
-0.636657
-0.636657
-0.636657
-0.636657
-0.636657
-0.636657
-0.636657
-0.636657
-0.636657
-0.636657
-0.636657
-0.636657
-0.636657
-0.636657
-0.659002
-0.659001
-0.659001
-0.659001
-0.659001
-0.659001
-0.659
-0.659
-0.659
-0.659
-0.659
-0.659
-0.659
-0.658999
-0.658999
-0.658999
-0.658999
-0.658999
-0.658999
-0.658999
-0.658999
-0.658999
-0.658998
-0.658998
-0.658998
-0.658998
-0.658998
-0.658998
-0.658998
-0.658998
-0.658998
-0.658998
-0.658998
-0.658998
-0.658998
-0.658997
-0.658997
-0.658997
-0.658997
-0.658997
-0.658997
-0.658997
-0.658997
-0.658997
-0.658997
-0.658997
-0.658997
-0.658997
-0.658997
-0.658997
-0.681338
-0.681338
-0.681338
-0.681338
-0.681338
-0.681338
-0.681338
-0.681338
-0.681338
-0.681338
-0.681338
-0.681338
-0.681338
-0.681338
-0.681338
-0.681338
-0.681338
-0.681338
-0.681338
-0.681338
-0.681338
-0.681338
-0.681338
-0.681338
-0.681338
-0.681338
-0.681337
-0.681337
-0.681337
-0.681337
-0.681337
-0.681337
-0.681337
-0.681337
-0.681337
-0.681337
-0.681337
-0.681337
-0.681337
-0.681337
-0.681337
-0.681337
-0.681337
-0.681337
-0.681337
-0.681337
-0.681337
-0.681337
-0.681337
-0.681337
-0.703682
-0.703682
-0.703682
-0.703682
-0.703682
-0.703681
-0.703681
-0.703681
-0.703681
-0.703681
-0.703681
-0.703681
-0.703681
-0.703681
-0.703681
-0.70368
-0.70368
-0.70368
-0.70368
-0.70368
-0.70368
-0.70368
-0.70368
-0.70368
-0.70368
-0.703679
-0.703679
-0.703679
-0.703679
-0.703679
-0.703679
-0.703679
-0.703679
-0.703679
-0.703679
-0.703678
-0.703678
-0.703678
-0.703678
-0.703678
-0.703678
-0.703678
-0.703678
-0.703678
-0.703678
-0.703678
-0.703677
-0.703677
-0.703677
-0.703677
-0.726017
-0.726017
-0.726017
-0.726018
-0.726018
-0.726018
-0.726018
-0.726018
-0.726018
-0.726018
-0.726018
-0.726018
-0.726018
-0.726018
-0.726018
-0.726018
-0.726018
-0.726018
-0.726018
-0.726018
-0.726018
-0.726018
-0.726018
-0.726018
-0.726018
-0.726018
-0.726018
-0.726018
-0.726018
-0.726018
-0.726018
-0.726018
-0.726018
-0.726018
-0.726018
-0.726018
-0.726018
-0.726018
-0.726018
-0.726018
-0.726017
-0.726017
-0.726017
-0.726017
-0.726017
-0.726017
-0.726017
-0.726017
-0.726017
-0.726017
-0.748368
-0.748367
-0.748367
-0.748367
-0.748367
-0.748366
-0.748366
-0.748366
-0.748366
-0.748365
-0.748365
-0.748365
-0.748365
-0.748365
-0.748364
-0.748364
-0.748364
-0.748364
-0.748363
-0.748363
-0.748363
-0.748363
-0.748363
-0.748362
-0.748362
-0.748362
-0.748362
-0.748362
-0.748362
-0.748361
-0.748361
-0.748361
-0.748361
-0.748361
-0.748361
-0.74836
-0.74836
-0.74836
-0.74836
-0.74836
-0.74836
-0.74836
-0.748359
-0.748359
-0.748359
-0.748359
-0.748359
-0.748359
-0.748359
-0.748359
-0.770699
-0.770699
-0.770699
-0.770699
-0.7707
-0.7707
-0.7707
-0.7707
-0.7707
-0.7707
-0.7707
-0.7707
-0.7707
-0.7707
-0.7707
-0.7707
-0.7707
-0.7707
-0.7707
-0.7707
-0.7707
-0.7707
-0.7707
-0.7707
-0.7707
-0.7707
-0.7707
-0.7707
-0.7707
-0.7707
-0.7707
-0.770699
-0.770699
-0.770699
-0.770699
-0.770699
-0.770699
-0.770699
-0.770699
-0.770699
-0.770699
-0.770699
-0.770699
-0.770699
-0.770698
-0.770698
-0.770698
-0.770698
-0.770698
-0.770698
-0.793057
-0.793056
-0.793055
-0.793055
-0.793054
-0.793054
-0.793053
-0.793052
-0.793052
-0.793051
-0.793051
-0.793051
-0.79305
-0.79305
-0.793049
-0.793049
-0.793048
-0.793048
-0.793048
-0.793047
-0.793047
-0.793047
-0.793046
-0.793046
-0.793046
-0.793045
-0.793045
-0.793045
-0.793045
-0.793044
-0.793044
-0.793044
-0.793044
-0.793043
-0.793043
-0.793043
-0.793043
-0.793042
-0.793042
-0.793042
-0.793042
-0.793042
-0.793041
-0.793041
-0.793041
-0.793041
-0.793041
-0.79304
-0.79304
-0.79304
-0.815383
-0.815383
-0.815383
-0.815383
-0.815384
-0.815384
-0.815383
-0.815383
-0.815383
-0.815383
-0.815383
-0.815383
-0.815383
-0.815383
-0.815383
-0.815383
-0.815383
-0.815383
-0.815383
-0.815383
-0.815383
-0.815383
-0.815383
-0.815383
-0.815383
-0.815382
-0.815382
-0.815382
-0.815382
-0.815382
-0.815382
-0.815382
-0.815382
-0.815382
-0.815382
-0.815381
-0.815381
-0.815381
-0.815381
-0.815381
-0.815381
-0.815381
-0.815381
-0.81538
-0.81538
-0.81538
-0.81538
-0.81538
-0.81538
-0.81538
-0.837733
-0.837733
-0.837732
-0.837732
-0.837732
-0.837732
-0.837731
-0.837731
-0.837731
-0.837731
-0.83773
-0.83773
-0.83773
-0.83773
-0.837729
-0.837729
-0.837729
-0.837729
-0.837728
-0.837728
-0.837728
-0.837728
-0.837727
-0.837727
-0.837727
-0.837727
-0.837726
-0.837726
-0.837726
-0.837726
-0.837726
-0.837725
-0.837725
-0.837725
-0.837725
-0.837724
-0.837724
-0.837724
-0.837724
-0.837724
-0.837723
-0.837723
-0.837723
-0.837723
-0.837723
-0.837722
-0.837722
-0.837722
-0.837722
-0.837722
-0.860068
-0.860068
-0.860068
-0.860068
-0.860068
-0.860068
-0.860068
-0.860068
-0.860068
-0.860068
-0.860067
-0.860067
-0.860067
-0.860067
-0.860067
-0.860067
-0.860067
-0.860067
-0.860067
-0.860067
-0.860066
-0.860066
-0.860066
-0.860066
-0.860066
-0.860066
-0.860066
-0.860065
-0.860065
-0.860065
-0.860065
-0.860065
-0.860065
-0.860065
-0.860064
-0.860064
-0.860064
-0.860064
-0.860064
-0.860064
-0.860063
-0.860063
-0.860063
-0.860063
-0.860063
-0.860062
-0.860062
-0.860062
-0.860062
-0.860062
-0.882416
-0.882416
-0.882415
-0.882415
-0.882415
-0.882415
-0.882414
-0.882414
-0.882414
-0.882413
-0.882413
-0.882413
-0.882413
-0.882412
-0.882412
-0.882412
-0.882412
-0.882411
-0.882411
-0.882411
-0.882411
-0.88241
-0.88241
-0.88241
-0.88241
-0.882409
-0.882409
-0.882409
-0.882409
-0.882408
-0.882408
-0.882408
-0.882408
-0.882407
-0.882407
-0.882407
-0.882407
-0.882406
-0.882406
-0.882406
-0.882406
-0.882405
-0.882405
-0.882405
-0.882405
-0.882404
-0.882404
-0.882404
-0.882404
-0.882403
-0.457938
-0.457938
-0.457938
-0.457938
-0.457938
-0.457938
-0.457938
-0.457939
-0.457939
-0.457939
-0.457939
-0.457939
-0.457939
-0.457939
-0.457939
-0.457939
-0.457939
-0.457939
-0.457939
-0.457939
-0.457939
-0.457939
-0.457939
-0.457939
-0.457939
-0.457939
-0.457939
-0.457939
-0.457939
-0.457939
-0.457939
-0.457939
-0.457939
-0.457939
-0.457939
-0.457939
-0.457939
-0.457939
-0.457939
-0.457939
-0.457939
-0.457939
-0.457939
-0.457939
-0.457939
-0.457939
-0.457939
-0.457939
-0.457939
-0.457939
-0.457939
-0.457939
-0.457939
-0.457939
-0.457939
-0.457939
-0.457939
-0.457939
-0.457939
-0.457939
-0.457939
-0.457939
-0.457939
-0.457939
-0.457939
-0.457939
-0.457939
-0.457939
-0.457939
-0.457939
-0.457939
-0.457939
-0.457939
-0.457939
-0.457939
-0.457939
-0.457939
-0.457939
-0.457939
-0.457939
-0.457939
-0.457939
-0.457939
-0.457939
-0.457939
-0.457939
-0.457939
-0.457939
-0.457939
-0.457939
-0.457939
-0.457939
-0.457939
-0.457939
-0.457939
-0.457939
-0.457939
-0.457939
-0.457939
-0.457939
-0.457939
-0.457939
-0.457939
-0.457939
-0.457939
-0.457939
-0.457939
-0.457939
-0.457939
-0.457939
-0.457939
-0.457939
-0.457939
-0.457939
-0.457939
-0.457939
-0.457939
-0.457939
-0.457939
-0.457939
-0.457939
-0.457939
-0.457939
-0.457939
-0.457939
-0.457939
-0.457939
-0.457939
-0.457939
-0.457939
-0.457939
-0.457939
-0.457939
-0.457939
-0.457939
-0.457939
-0.457939
-0.457939
-0.457939
-0.457939
-0.457939
-0.457939
-0.457939
-0.457939
-0.457938
-0.457938
-0.457938
-0.457938
-0.457938
-0.457938
-0.457938
-0.457938
-0.457938
-0.457938
-0.457938
-0.457938
-0.457938
-0.457938
-0.457938
-0.457938
-0.457938
-0.457938
-0.457938
-0.457938
-0.457938
-0.457938
-0.457938
-0.457938
-0.457938
-0.457938
-0.457938
-0.457938
-0.457938
-0.457938
-0.457938
-0.457938
-0.457938
-0.457937
-0.457937
-0.457937
-0.457937
-0.457937
-0.457937
-0.457937
-0.457937
-0.457937
-0.457937
-0.457937
-0.457937
-0.457937
-0.457937
-0.457937
-0.457937
-0.457937
-0.457937
-0.457937
-0.457937
-0.457936
-0.457936
-0.457936
-0.457936
-0.457936
-0.457936
-0.457936
-0.457936
-0.457936
-0.457936
-0.457936
-0.457936
-0.457936
-0.457936
-0.457936
-0.457936
-0.457935
-0.457935
-0.457935
-0.457935
-0.457935
-0.457935
-0.457935
-0.457935
-0.457935
-0.457935
-0.457935
-0.457935
-0.457934
-0.457934
-0.457934
-0.457934
-0.457934
-0.457934
-0.457934
-0.457934
-0.457934
-0.457934
-0.457934
-0.457933
-0.457933
-0.457933
-0.457933
-0.457933
-0.457933
-0.457933
-0.457933
-0.457933
-0.457933
-0.457932
-0.457932
-0.457932
-0.457932
-0.457932
-0.457932
-0.457932
-0.457932
-0.457931
-0.457931
-0.457931
-0.457931
-0.457931
-0.457931
-0.457931
-0.457931
-0.45793
-0.45793
-0.45793
-0.45793
-0.45793
-0.45793
-0.457929
-0.457929
-0.457929
-0.457929
-0.457929
-0.457929
-0.457929
-0.457928
-0.457928
-0.457928
-0.457928
-0.457928
-0.457928
-0.457927
-0.457927
-0.457927
-0.457927
-0.457927
-0.457927
-0.457926
-0.457926
-0.457926
-0.457926
-0.457926
-0.457925
-0.457925
-0.457925
-0.457925
-0.457925
-0.457924
-0.457924
-0.457924
-0.480278
-0.480278
-0.480278
-0.480278
-0.480278
-0.480278
-0.480278
-0.480278
-0.480278
-0.480278
-0.480278
-0.480278
-0.480278
-0.480279
-0.480279
-0.480279
-0.480279
-0.480279
-0.480279
-0.480279
-0.480279
-0.480279
-0.480279
-0.480279
-0.480279
-0.480279
-0.480279
-0.480279
-0.480279
-0.480279
-0.480279
-0.480279
-0.480279
-0.480279
-0.480279
-0.480279
-0.480279
-0.480279
-0.480279
-0.480279
-0.480279
-0.480279
-0.480279
-0.480279
-0.480279
-0.480279
-0.480279
-0.480279
-0.480279
-0.480279
-0.480279
-0.480279
-0.480279
-0.480279
-0.480279
-0.480279
-0.480279
-0.480279
-0.480279
-0.480279
-0.480279
-0.480279
-0.480279
-0.480279
-0.480279
-0.480279
-0.480279
-0.480279
-0.480279
-0.480279
-0.480279
-0.480279
-0.480279
-0.480279
-0.480279
-0.480279
-0.480279
-0.480279
-0.480279
-0.480279
-0.480279
-0.480279
-0.480279
-0.480279
-0.480279
-0.480279
-0.480279
-0.480279
-0.480279
-0.480279
-0.480279
-0.480279
-0.480279
-0.480279
-0.480279
-0.480279
-0.480279
-0.480279
-0.480279
-0.480279
-0.480279
-0.480279
-0.480279
-0.480278
-0.480278
-0.480278
-0.480278
-0.480278
-0.480278
-0.480278
-0.480278
-0.480278
-0.480278
-0.480278
-0.480278
-0.480278
-0.480278
-0.480278
-0.480278
-0.480278
-0.480278
-0.480278
-0.480278
-0.480278
-0.480278
-0.480278
-0.480278
-0.480278
-0.480278
-0.480278
-0.480278
-0.480278
-0.480278
-0.480278
-0.480278
-0.480278
-0.480278
-0.480278
-0.480278
-0.480278
-0.480278
-0.480278
-0.480278
-0.480278
-0.480278
-0.480278
-0.480278
-0.480278
-0.480278
-0.480278
-0.480278
-0.480278
-0.480277
-0.480277
-0.480277
-0.480277
-0.480277
-0.480277
-0.480277
-0.480277
-0.480277
-0.480277
-0.480277
-0.480277
-0.480277
-0.480277
-0.480277
-0.480277
-0.480277
-0.480277
-0.480277
-0.480277
-0.480277
-0.480277
-0.480277
-0.480277
-0.480277
-0.480276
-0.480276
-0.480276
-0.480276
-0.480276
-0.480276
-0.480276
-0.480276
-0.480276
-0.480276
-0.480276
-0.480276
-0.480276
-0.480276
-0.480276
-0.480276
-0.480276
-0.480276
-0.480275
-0.480275
-0.480275
-0.480275
-0.480275
-0.480275
-0.480275
-0.480275
-0.480275
-0.480275
-0.480275
-0.480275
-0.480275
-0.480275
-0.480274
-0.480274
-0.480274
-0.480274
-0.480274
-0.480274
-0.480274
-0.480274
-0.480274
-0.480274
-0.480274
-0.480274
-0.480273
-0.480273
-0.480273
-0.480273
-0.480273
-0.480273
-0.480273
-0.480273
-0.480273
-0.480273
-0.480273
-0.480272
-0.480272
-0.480272
-0.480272
-0.480272
-0.480272
-0.480272
-0.480272
-0.480272
-0.480271
-0.480271
-0.480271
-0.480271
-0.480271
-0.480271
-0.480271
-0.480271
-0.48027
-0.48027
-0.48027
-0.48027
-0.48027
-0.48027
-0.48027
-0.48027
-0.480269
-0.480269
-0.480269
-0.480269
-0.480269
-0.480269
-0.480269
-0.480268
-0.480268
-0.480268
-0.480268
-0.480268
-0.480268
-0.480267
-0.480267
-0.480267
-0.480267
-0.480267
-0.480267
-0.480266
-0.480266
-0.480266
-0.480266
-0.480266
-0.480265
-0.480265
-0.480265
-0.480265
-0.480265
-0.480265
-0.480264
-0.480264
-0.480264
-0.480264
-0.480264
-0.480263
-0.480263
-0.480263
-0.480263
-0.480262
-0.480262
-0.480262
-0.480262
-0.502618
-0.502618
-0.502618
-0.502618
-0.502618
-0.502618
-0.502618
-0.502618
-0.502618
-0.502618
-0.502618
-0.502618
-0.502618
-0.502618
-0.502618
-0.502618
-0.502618
-0.502618
-0.502618
-0.502618
-0.502618
-0.502618
-0.502618
-0.502618
-0.502618
-0.502618
-0.502618
-0.502618
-0.502618
-0.502618
-0.502618
-0.502618
-0.502618
-0.502618
-0.502618
-0.502618
-0.502618
-0.502618
-0.502618
-0.502618
-0.502618
-0.502618
-0.502618
-0.502618
-0.502618
-0.502618
-0.502618
-0.502618
-0.502618
-0.502618
-0.502618
-0.502618
-0.502618
-0.502618
-0.502618
-0.502618
-0.502618
-0.502618
-0.502618
-0.502618
-0.502618
-0.502618
-0.502618
-0.502618
-0.502618
-0.502618
-0.502618
-0.502618
-0.502618
-0.502618
-0.502618
-0.502618
-0.502618
-0.502618
-0.502618
-0.502618
-0.502618
-0.502618
-0.502618
-0.502618
-0.502618
-0.502618
-0.502618
-0.502618
-0.502618
-0.502618
-0.502618
-0.502618
-0.502618
-0.502618
-0.502618
-0.502618
-0.502618
-0.502618
-0.502618
-0.502618
-0.502618
-0.502618
-0.502618
-0.502618
-0.502618
-0.502618
-0.502618
-0.502618
-0.502618
-0.502618
-0.502618
-0.502618
-0.502618
-0.502618
-0.502618
-0.502618
-0.502618
-0.502618
-0.502618
-0.502618
-0.502618
-0.502618
-0.502618
-0.502618
-0.502618
-0.502618
-0.502618
-0.502618
-0.502618
-0.502618
-0.502618
-0.502618
-0.502617
-0.502617
-0.502617
-0.502617
-0.502617
-0.502617
-0.502617
-0.502617
-0.502617
-0.502617
-0.502617
-0.502617
-0.502617
-0.502617
-0.502617
-0.502617
-0.502617
-0.502617
-0.502617
-0.502617
-0.502617
-0.502617
-0.502617
-0.502617
-0.502617
-0.502617
-0.502617
-0.502617
-0.502617
-0.502616
-0.502616
-0.502616
-0.502616
-0.502616
-0.502616
-0.502616
-0.502616
-0.502616
-0.502616
-0.502616
-0.502616
-0.502616
-0.502616
-0.502616
-0.502616
-0.502616
-0.502616
-0.502616
-0.502616
-0.502615
-0.502615
-0.502615
-0.502615
-0.502615
-0.502615
-0.502615
-0.502615
-0.502615
-0.502615
-0.502615
-0.502615
-0.502615
-0.502615
-0.502615
-0.502615
-0.502615
-0.502614
-0.502614
-0.502614
-0.502614
-0.502614
-0.502614
-0.502614
-0.502614
-0.502614
-0.502614
-0.502614
-0.502614
-0.502614
-0.502613
-0.502613
-0.502613
-0.502613
-0.502613
-0.502613
-0.502613
-0.502613
-0.502613
-0.502613
-0.502613
-0.502612
-0.502612
-0.502612
-0.502612
-0.502612
-0.502612
-0.502612
-0.502612
-0.502612
-0.502612
-0.502611
-0.502611
-0.502611
-0.502611
-0.502611
-0.502611
-0.502611
-0.502611
-0.502611
-0.50261
-0.50261
-0.50261
-0.50261
-0.50261
-0.50261
-0.50261
-0.50261
-0.502609
-0.502609
-0.502609
-0.502609
-0.502609
-0.502609
-0.502609
-0.502609
-0.502608
-0.502608
-0.502608
-0.502608
-0.502608
-0.502608
-0.502607
-0.502607
-0.502607
-0.502607
-0.502607
-0.502607
-0.502607
-0.502606
-0.502606
-0.502606
-0.502606
-0.502606
-0.502605
-0.502605
-0.502605
-0.502605
-0.502605
-0.502605
-0.502604
-0.502604
-0.502604
-0.502604
-0.502604
-0.502603
-0.502603
-0.502603
-0.502603
-0.502603
-0.502602
-0.502602
-0.502602
-0.502602
-0.502601
-0.502601
-0.502601
-0.502601
-0.502601
-0.5026
-0.5026
-0.5026
-0.5026
-0.524957
-0.524957
-0.524957
-0.524957
-0.524957
-0.524957
-0.524957
-0.524958
-0.524958
-0.524958
-0.524958
-0.524958
-0.524958
-0.524958
-0.524958
-0.524958
-0.524958
-0.524958
-0.524958
-0.524958
-0.524958
-0.524958
-0.524958
-0.524958
-0.524958
-0.524958
-0.524958
-0.524958
-0.524958
-0.524958
-0.524958
-0.524958
-0.524958
-0.524958
-0.524958
-0.524958
-0.524958
-0.524958
-0.524958
-0.524958
-0.524958
-0.524958
-0.524958
-0.524958
-0.524958