/*--------------------------------*- C++ -*----------------------------------*\
| =========                 |                                                 |
| \\      /  F ield         | OpenFOAM: The Open Source CFD Toolbox           |
|  \\    /   O peration     | Version:  2.4.0                                 |
|   \\  /    A nd           | Web:      www.OpenFOAM.org                      |
|    \\/     M anipulation  |                                                 |
\*---------------------------------------------------------------------------*/
FoamFile
{
    version     2.0;
    format      ascii;
    class       surfaceScalarField;
    location    "0.007";
    object      phi;
}
// * * * * * * * * * * * * * * * * * * * * * * * * * * * * * * * * * * * * * //

dimensions      [0 3 -1 0 0 0 0];

internalField   nonuniform List<scalar> 
123
(
4.8881e-16
1.89326e-15
-6.29702e-09
-6.29702e-09
-6.29701e-09
-6.297e-09
-6.29699e-09
-6.29697e-09
-6.29695e-09
-6.29693e-09
-6.29691e-09
-6.29689e-09
-6.29686e-09
-6.29683e-09
-6.2968e-09
-6.29676e-09
-6.29673e-09
-6.29669e-09
-6.29665e-09
-6.29662e-09
-6.29658e-09
-6.29654e-09
-6.29649e-09
-6.29645e-09
-6.28736e-09
-6.28737e-09
-6.28738e-09
-6.28739e-09
-6.2874e-09
-6.28741e-09
-6.28742e-09
-6.28743e-09
-6.28744e-09
-6.28745e-09
-6.28746e-09
-6.28747e-09
-6.28748e-09
-6.28749e-09
-6.2875e-09
-6.28751e-09
-6.28752e-09
-6.28753e-09
-6.28754e-09
-6.28755e-09
-6.28755e-09
-6.28756e-09
-6.28757e-09
-6.28758e-09
-6.28758e-09
-6.28759e-09
-6.2876e-09
-6.28761e-09
-6.28761e-09
-6.28762e-09
-6.28763e-09
-6.28763e-09
-6.28764e-09
-6.28764e-09
-6.28765e-09
-6.28766e-09
-6.28766e-09
-6.28767e-09
-6.28767e-09
-6.28768e-09
-6.28768e-09
-6.28768e-09
-6.28769e-09
-6.28769e-09
-6.2877e-09
-6.2877e-09
-6.2877e-09
-6.28771e-09
-6.28771e-09
-6.28771e-09
-6.28771e-09
-6.28772e-09
-6.28772e-09
-6.28772e-09
-6.28772e-09
-6.28772e-09
-6.28772e-09
-6.28772e-09
-6.28772e-09
-6.28772e-09
-6.28772e-09
-6.28772e-09
-6.28772e-09
-6.28772e-09
-6.28771e-09
-6.28771e-09
-6.28771e-09
-6.2877e-09
-6.2877e-09
-6.2877e-09
-6.28769e-09
-6.28769e-09
-6.28768e-09
-6.28767e-09
-6.28767e-09
-6.28766e-09
-6.28765e-09
-6.28765e-09
-6.28764e-09
-6.28763e-09
-6.28762e-09
-6.28761e-09
-6.2876e-09
-6.28759e-09
-6.28758e-09
-6.28757e-09
-6.28756e-09
-6.28755e-09
-6.28754e-09
-6.28753e-09
-6.28752e-09
-6.2875e-09
-6.28749e-09
-6.28748e-09
-6.28747e-09
-6.28746e-09
-6.28744e-09
-6.28743e-09
-6.28742e-09
)
;

boundaryField
{
    BotWall
    {
        type            calculated;
        value           uniform -4.96678e-21;
    }
    FreeStream
    {
        type            calculated;
        value           uniform -6.28741e-09;
    }
    FrontNBack
    {
        type            empty;
        value           nonuniform 0();
    }
    LeftSide
    {
        type            symmetryPlane;
        value           nonuniform 0();
    }
    RightSide
    {
        type            symmetryPlane;
        value           nonuniform 0();
    }
    procBoundary7to4
    {
        type            processor;
        value           nonuniform List<scalar> 
50
(
-6.31989e-17
-1.84016e-16
-3.29136e-16
-3.5747e-16
-4.70686e-16
-6.20603e-16
-7.67537e-16
-9.06995e-16
-1.03816e-15
-1.16193e-15
-1.27872e-15
-1.3887e-15
-1.492e-15
-1.58879e-15
-1.67922e-15
-1.7635e-15
-1.84179e-15
-1.91429e-15
-1.9812e-15
-2.04272e-15
-2.09905e-15
-2.15039e-15
-2.19696e-15
-2.23896e-15
-2.2766e-15
-2.97826e-15
-3.40268e-15
-3.81774e-15
-4.22147e-15
-4.61198e-15
-4.98754e-15
-5.34656e-15
-5.68762e-15
-6.00955e-15
-6.31136e-15
-6.59233e-15
-6.85198e-15
-7.09007e-15
-7.30664e-15
-7.50195e-15
-7.6765e-15
-7.83103e-15
-7.96644e-15
-8.08385e-15
-8.1845e-15
-8.26976e-15
-8.34106e-15
-8.39989e-15
-8.44805e-15
-8.47494e-15
)
;
    }
    procBoundary7to5
    {
        type            processor;
        value           nonuniform List<scalar> 
75
(
1.23955e-14
1.22707e-14
1.21464e-14
1.20228e-14
1.18997e-14
1.17773e-14
1.16554e-14
1.15341e-14
1.14133e-14
1.12931e-14
1.11735e-14
1.10543e-14
1.09357e-14
1.08176e-14
1.07e-14
1.05829e-14
1.04663e-14
1.03501e-14
1.02344e-14
1.0119e-14
1.0004e-14
9.88935e-15
9.77499e-15
9.66086e-15
9.5469e-15
9.43303e-15
9.31917e-15
9.2052e-15
9.09102e-15
8.97649e-15
8.86145e-15
8.74572e-15
8.62909e-15
8.51133e-15
8.39218e-15
8.27133e-15
8.14847e-15
8.02321e-15
7.89518e-15
7.76392e-15
7.62896e-15
7.48979e-15
7.34586e-15
7.19658e-15
7.04134e-15
6.87949e-15
6.71036e-15
6.53326e-15
6.34749e-15
6.15233e-15
5.94711e-15
5.73112e-15
5.50371e-15
5.26426e-15
5.0122e-15
4.74704e-15
4.46833e-15
4.17577e-15
3.86912e-15
3.5483e-15
3.21335e-15
2.86445e-15
2.50194e-15
2.12633e-15
1.73831e-15
1.33871e-15
9.28534e-16
5.08928e-16
8.11125e-17
-3.5148e-16
-7.88483e-16
-1.22852e-15
-1.66958e-15
-2.10961e-15
-2.54654e-15
)
;
    }
    procBoundary7to6
    {
        type            processor;
        value           uniform -6.29641e-09;
    }
    procBoundary7to8
    {
        type            processor;
        value           uniform 6.28734e-09;
    }
    procBoundary7to9
    {
        type            processor;
        value           nonuniform List<scalar> 
75
(
-4.25604e-16
-1.22044e-15
-2.71295e-15
-2.94077e-15
-5.61079e-15
-8.84843e-15
-1.18776e-14
-1.46713e-14
-1.72751e-14
-1.97182e-14
-2.20093e-14
-2.41534e-14
-2.61563e-14
-2.80241e-14
-2.97627e-14
-3.13781e-14
-3.28757e-14
-3.4261e-14
-3.55391e-14
-3.67152e-14
-3.77941e-14
-3.87805e-14
-3.96789e-14
-4.04938e-14
-4.12295e-14
-3.6574e-15
-3.70157e-15
-3.74319e-15
-3.78213e-15
-3.81827e-15
-3.85151e-15
-3.88177e-15
-3.90897e-15
-3.93305e-15
-3.95399e-15
-3.97177e-15
-3.9864e-15
-3.99793e-15
-4.00641e-15
-4.01193e-15
-4.0146e-15
-4.01456e-15
-4.01199e-15
-4.00705e-15
-3.99997e-15
-3.99096e-15
-3.98029e-15
-3.96821e-15
-3.95498e-15
-3.94091e-15
-3.92626e-15
-3.91132e-15
-3.89637e-15
-3.88168e-15
-3.86752e-15
-3.85412e-15
-3.84172e-15
-3.83052e-15
-3.8207e-15
-3.8124e-15
-3.80576e-15
-3.80086e-15
-3.79777e-15
-3.79651e-15
-3.79708e-15
-3.79946e-15
-3.80358e-15
-3.80938e-15
-3.81674e-15
-3.82554e-15
-3.83565e-15
-3.84687e-15
-3.85903e-15
-3.87213e-15
-3.87796e-15
)
;
    }
    procBoundary7to10
    {
        type            processor;
        value           nonuniform List<scalar> 
50
(
-6.29701e-16
-6.85306e-16
-7.41217e-16
-7.97448e-16
-8.54006e-16
-9.10902e-16
-9.68146e-16
-1.02575e-15
-1.08372e-15
-1.14207e-15
-1.20082e-15
-1.25996e-15
-1.31951e-15
-1.37947e-15
-1.43986e-15
-1.50067e-15
-1.56192e-15
-1.62359e-15
-1.6857e-15
-1.74822e-15
-1.81117e-15
-1.87453e-15
-1.93827e-15
-2.0024e-15
-2.06688e-15
-2.13169e-15
-2.19679e-15
-2.26216e-15
-2.32774e-15
-2.39349e-15
-2.45936e-15
-2.52528e-15
-2.59119e-15
-2.65701e-15
-2.72266e-15
-2.78806e-15
-2.8531e-15
-2.91768e-15
-2.9817e-15
-3.04503e-15
-3.10755e-15
-3.16913e-15
-3.22964e-15
-3.28893e-15
-3.34686e-15
-3.40327e-15
-3.45803e-15
-3.51097e-15
-3.56195e-15
-3.61081e-15
)
;
    }
}


// ************************************************************************* //
