/*--------------------------------*- C++ -*----------------------------------*\
| =========                 |                                                 |
| \\      /  F ield         | OpenFOAM: The Open Source CFD Toolbox           |
|  \\    /   O peration     | Version:  2.4.0                                 |
|   \\  /    A nd           | Web:      www.OpenFOAM.org                      |
|    \\/     M anipulation  |                                                 |
\*---------------------------------------------------------------------------*/
FoamFile
{
    version     2.0;
    format      ascii;
    class       volScalarField;
    location    "0.003";
    object      p_rgh;
}
// * * * * * * * * * * * * * * * * * * * * * * * * * * * * * * * * * * * * * //

dimensions      [1 -1 -2 0 0 0 0];

internalField   nonuniform List<scalar> 
125
(
-0.0666531
-0.0665376
-0.0664195
-0.066299
-0.0661761
-0.0660508
-0.0659233
-0.0657934
-0.0656612
-0.0655267
-0.0653899
-0.0652508
-0.0651093
-0.0649656
-0.0648195
-0.0646711
-0.0645204
-0.0643673
-0.064212
-0.0640543
-0.0638942
-0.0637319
-0.0635673
-0.0634003
-0.063231
-0.0630593
-0.0628854
-0.0627091
-0.0625305
-0.0623496
-0.0621663
-0.0619807
-0.0617928
-0.0616026
-0.06141
-0.0612152
-0.061018
-0.0608185
-0.0606166
-0.0604125
-0.060206
-0.0599972
-0.0597861
-0.0595727
-0.0593569
-0.0591389
-0.0589185
-0.0586958
-0.0584708
-0.0582435
-0.0580139
-0.0577819
-0.0575477
-0.0573111
-0.0570723
-0.0568311
-0.0565876
-0.0563419
-0.0560938
-0.0558434
-0.0555907
-0.0553358
-0.0550785
-0.0548189
-0.0545571
-0.0542929
-0.0540264
-0.0537577
-0.0534867
-0.0532133
-0.0529377
-0.0526598
-0.0523797
-0.0520972
-0.0518124
-0.0515254
-0.0512361
-0.0509445
-0.0506506
-0.0503545
-0.050056
-0.0497553
-0.0494524
-0.0491471
-0.0488396
-0.0485298
-0.0482178
-0.0479034
-0.0475869
-0.047268
-0.0469469
-0.0466235
-0.0462979
-0.04597
-0.0456398
-0.0453074
-0.0449727
-0.0446358
-0.0442967
-0.0439553
-0.0436116
-0.0432658
-0.0429177
-0.0425673
-0.0422148
-0.0418601
-0.0415031
-0.0411439
-0.0407825
-0.040419
-0.0400532
-0.0396852
-0.0393151
-0.0389427
-0.0385682
-0.0381915
-0.0378126
-0.0374315
-0.0370483
-0.0366629
-0.0362754
-0.0358855
-0.0354934
-0.0350989
-0.0347021
)
;

boundaryField
{
    BotWall
    {
        type            fixedFluxPressure;
        gradient        nonuniform 0();
        value           nonuniform 0();
    }
    FreeStream
    {
        type            totalPressure;
        rho             rho;
        psi             none;
        gamma           1;
        p0              nonuniform 0();
        value           nonuniform 0();
    }
    FrontNBack
    {
        type            empty;
    }
    LeftSide
    {
        type            symmetryPlane;
    }
    RightSide
    {
        type            symmetryPlane;
    }
    procBoundary10to7
    {
        type            processor;
        value           nonuniform List<scalar> 
50
(
-0.0643287
-0.0638331
-0.0633375
-0.062842
-0.0623466
-0.0618512
-0.0613558
-0.0608604
-0.060365
-0.0598695
-0.0593739
-0.0588781
-0.0583823
-0.0578863
-0.0573901
-0.0568937
-0.0563971
-0.0559003
-0.0554032
-0.0549058
-0.0544081
-0.0539101
-0.0534118
-0.0529131
-0.0524141
-0.0519146
-0.0514147
-0.0509144
-0.0504135
-0.0499122
-0.0494104
-0.048908
-0.0484051
-0.0479016
-0.0473974
-0.0468927
-0.0463873
-0.0458812
-0.0453744
-0.044867
-0.0443587
-0.0438498
-0.04334
-0.0428295
-0.0423181
-0.0418059
-0.0412929
-0.0407789
-0.0402641
-0.0397483
)
;
    }
    procBoundary10to8
    {
        type            processor;
        value           nonuniform List<scalar> 
75
(
-0.102961
-0.102409
-0.101858
-0.101309
-0.100762
-0.100215
-0.0996705
-0.0991268
-0.0985844
-0.0980433
-0.0975035
-0.0969649
-0.0964276
-0.0958914
-0.0953565
-0.0948228
-0.0942902
-0.0937588
-0.0932286
-0.0926995
-0.0921715
-0.0916446
-0.0911187
-0.090594
-0.0900703
-0.0895476
-0.0890259
-0.0885052
-0.0879855
-0.0874668
-0.086949
-0.0864322
-0.0859162
-0.0854012
-0.084887
-0.0843737
-0.0838612
-0.0833496
-0.0828387
-0.0823287
-0.0818194
-0.0813108
-0.080803
-0.0802959
-0.0797895
-0.0792838
-0.0787787
-0.0782743
-0.0777705
-0.0772673
-0.0767647
-0.0762626
-0.0757611
-0.0752601
-0.0747596
-0.0742596
-0.0737601
-0.073261
-0.0727624
-0.0722642
-0.0717663
-0.0712688
-0.0707717
-0.0702749
-0.0697784
-0.0692822
-0.0687863
-0.0682907
-0.0677953
-0.0673
-0.066805
-0.0663101
-0.065815
-0.0653197
-0.0648243
)
;
    }
    procBoundary10to9
    {
        type            processor;
        value           uniform -0.0343032;
    }
    procBoundary10to11
    {
        type            processor;
        value           uniform -0.0667657;
    }
}


// ************************************************************************* //
