/*--------------------------------*- C++ -*----------------------------------*\
| =========                 |                                                 |
| \\      /  F ield         | OpenFOAM: The Open Source CFD Toolbox           |
|  \\    /   O peration     | Version:  2.4.0                                 |
|   \\  /    A nd           | Web:      www.OpenFOAM.org                      |
|    \\/     M anipulation  |                                                 |
\*---------------------------------------------------------------------------*/
FoamFile
{
    version     2.0;
    format      ascii;
    class       volVectorField;
    location    "0.003";
    object      U;
}
// * * * * * * * * * * * * * * * * * * * * * * * * * * * * * * * * * * * * * //

dimensions      [0 1 -1 0 0 0 0];

internalField   nonuniform List<vector> 
125
(
(5.79284e-05 -0.0513039 0)
(5.74766e-05 -0.0513039 0)
(5.70243e-05 -0.0513039 0)
(5.65716e-05 -0.0513039 0)
(5.61187e-05 -0.0513039 0)
(5.56655e-05 -0.0513039 0)
(5.5212e-05 -0.0513039 0)
(5.47584e-05 -0.0513039 0)
(5.43048e-05 -0.0513039 0)
(5.3851e-05 -0.0513039 0)
(5.33973e-05 -0.0513039 0)
(5.29437e-05 -0.0513039 0)
(5.24902e-05 -0.0513039 0)
(5.20369e-05 -0.0513039 0)
(5.15839e-05 -0.0513039 0)
(5.11312e-05 -0.0513039 0)
(5.06789e-05 -0.0513039 0)
(5.0227e-05 -0.0513039 0)
(4.97757e-05 -0.0513039 0)
(4.93251e-05 -0.0513039 0)
(4.88751e-05 -0.0513039 0)
(4.84258e-05 -0.0513039 0)
(4.79774e-05 -0.0513039 0)
(4.75298e-05 -0.0513039 0)
(4.70832e-05 -0.0513038 0)
(4.66376e-05 -0.0513038 0)
(4.61931e-05 -0.0513038 0)
(4.57498e-05 -0.0513038 0)
(4.53076e-05 -0.0513038 0)
(4.48668e-05 -0.0513038 0)
(4.44272e-05 -0.0513038 0)
(4.39891e-05 -0.0513038 0)
(4.35524e-05 -0.0513038 0)
(4.31172e-05 -0.0513038 0)
(4.26836e-05 -0.0513038 0)
(4.22516e-05 -0.0513038 0)
(4.18212e-05 -0.0513038 0)
(4.13925e-05 -0.0513037 0)
(4.09655e-05 -0.0513037 0)
(4.05403e-05 -0.0513037 0)
(4.01169e-05 -0.0513037 0)
(3.96953e-05 -0.0513037 0)
(3.92755e-05 -0.0513037 0)
(3.88577e-05 -0.0513037 0)
(3.84417e-05 -0.0513037 0)
(3.80276e-05 -0.0513037 0)
(3.76154e-05 -0.0513037 0)
(3.72051e-05 -0.0513037 0)
(3.67968e-05 -0.0513037 0)
(3.63904e-05 -0.0513036 0)
(3.59859e-05 -0.0513036 0)
(3.55834e-05 -0.0513036 0)
(3.51827e-05 -0.0513036 0)
(3.47841e-05 -0.0513036 0)
(3.43873e-05 -0.0513036 0)
(3.39924e-05 -0.0513036 0)
(3.35994e-05 -0.0513036 0)
(3.32083e-05 -0.0513036 0)
(3.28191e-05 -0.0513036 0)
(3.24317e-05 -0.0513036 0)
(3.20461e-05 -0.0513036 0)
(3.16624e-05 -0.0513035 0)
(3.12805e-05 -0.0513035 0)
(3.09004e-05 -0.0513035 0)
(3.0522e-05 -0.0513035 0)
(3.01454e-05 -0.0513035 0)
(2.97706e-05 -0.0513035 0)
(2.93975e-05 -0.0513035 0)
(2.90262e-05 -0.0513035 0)
(2.86565e-05 -0.0513035 0)
(2.82886e-05 -0.0513035 0)
(2.79224e-05 -0.0513035 0)
(2.75579e-05 -0.0513035 0)
(2.71951e-05 -0.0513035 0)
(2.68339e-05 -0.0513035 0)
(2.64745e-05 -0.0513035 0)
(2.61168e-05 -0.0513035 0)
(2.57607e-05 -0.0513034 0)
(2.54064e-05 -0.0513034 0)
(2.50537e-05 -0.0513034 0)
(2.47028e-05 -0.0513034 0)
(2.43537e-05 -0.0513034 0)
(2.40062e-05 -0.0513034 0)
(2.36605e-05 -0.0513034 0)
(2.33166e-05 -0.0513034 0)
(2.29744e-05 -0.0513034 0)
(2.26339e-05 -0.0513034 0)
(2.22953e-05 -0.0513034 0)
(2.19584e-05 -0.0513034 0)
(2.16234e-05 -0.0513034 0)
(2.12901e-05 -0.0513034 0)
(2.09586e-05 -0.0513034 0)
(2.06289e-05 -0.0513034 0)
(2.0301e-05 -0.0513034 0)
(1.99749e-05 -0.0513034 0)
(1.96506e-05 -0.0513034 0)
(1.9328e-05 -0.0513034 0)
(1.90072e-05 -0.0513034 0)
(1.86881e-05 -0.0513034 0)
(1.83707e-05 -0.0513034 0)
(1.80549e-05 -0.0513034 0)
(1.77409e-05 -0.0513034 0)
(1.74284e-05 -0.0513034 0)
(1.71175e-05 -0.0513034 0)
(1.68082e-05 -0.0513034 0)
(1.65003e-05 -0.0513034 0)
(1.61938e-05 -0.0513034 0)
(1.58887e-05 -0.0513034 0)
(1.55849e-05 -0.0513034 0)
(1.52824e-05 -0.0513034 0)
(1.4981e-05 -0.0513034 0)
(1.46807e-05 -0.0513034 0)
(1.43814e-05 -0.0513034 0)
(1.4083e-05 -0.0513034 0)
(1.37855e-05 -0.0513034 0)
(1.34886e-05 -0.0513034 0)
(1.31924e-05 -0.0513034 0)
(1.28968e-05 -0.0513034 0)
(1.26015e-05 -0.0513034 0)
(1.23065e-05 -0.0513034 0)
(1.20118e-05 -0.0513035 0)
(1.17171e-05 -0.0513035 0)
(1.14225e-05 -0.0513035 0)
(1.11277e-05 -0.0513035 0)
(1.08328e-05 -0.0513035 0)
)
;

boundaryField
{
    BotWall
    {
        type            fixedValue;
        value           nonuniform 0();
    }
    FreeStream
    {
        type            zeroGradient;
    }
    FrontNBack
    {
        type            empty;
    }
    LeftSide
    {
        type            symmetryPlane;
    }
    RightSide
    {
        type            symmetryPlane;
    }
    procBoundary10to7
    {
        type            processor;
        value           nonuniform List<vector> 
50
(
(-2.34223e-05 -0.051261 0)
(-2.31468e-05 -0.0512613 0)
(-2.28728e-05 -0.0512616 0)
(-2.26004e-05 -0.0512618 0)
(-2.23294e-05 -0.0512621 0)
(-2.20598e-05 -0.0512623 0)
(-2.17915e-05 -0.0512626 0)
(-2.15245e-05 -0.0512628 0)
(-2.12588e-05 -0.0512631 0)
(-2.09942e-05 -0.0512633 0)
(-2.07309e-05 -0.0512636 0)
(-2.04686e-05 -0.0512638 0)
(-2.02074e-05 -0.051264 0)
(-1.99473e-05 -0.0512643 0)
(-1.96882e-05 -0.0512645 0)
(-1.94302e-05 -0.0512647 0)
(-1.91731e-05 -0.0512649 0)
(-1.8917e-05 -0.0512652 0)
(-1.86619e-05 -0.0512654 0)
(-1.84078e-05 -0.0512656 0)
(-1.81547e-05 -0.0512658 0)
(-1.79026e-05 -0.051266 0)
(-1.76515e-05 -0.0512662 0)
(-1.74014e-05 -0.0512665 0)
(-1.71523e-05 -0.0512667 0)
(-1.69043e-05 -0.0512669 0)
(-1.66574e-05 -0.0512671 0)
(-1.64117e-05 -0.0512673 0)
(-1.6167e-05 -0.0512675 0)
(-1.59236e-05 -0.0512677 0)
(-1.56813e-05 -0.0512678 0)
(-1.54403e-05 -0.051268 0)
(-1.52006e-05 -0.0512682 0)
(-1.49621e-05 -0.0512684 0)
(-1.47249e-05 -0.0512686 0)
(-1.44891e-05 -0.0512688 0)
(-1.42545e-05 -0.0512689 0)
(-1.40213e-05 -0.0512691 0)
(-1.37895e-05 -0.0512693 0)
(-1.35589e-05 -0.0512694 0)
(-1.33296e-05 -0.0512696 0)
(-1.31016e-05 -0.0512698 0)
(-1.28749e-05 -0.0512699 0)
(-1.26493e-05 -0.0512701 0)
(-1.24248e-05 -0.0512702 0)
(-1.22014e-05 -0.0512704 0)
(-1.19791e-05 -0.0512705 0)
(-1.17576e-05 -0.0512707 0)
(-1.1537e-05 -0.0512708 0)
(-1.13171e-05 -0.051271 0)
)
;
    }
    procBoundary10to8
    {
        type            processor;
        value           nonuniform List<vector> 
75
(
(-5.11812e-05 -0.0512351 0)
(-5.07036e-05 -0.0512355 0)
(-5.0229e-05 -0.0512359 0)
(-4.97575e-05 -0.0512363 0)
(-4.9289e-05 -0.0512367 0)
(-4.88236e-05 -0.0512372 0)
(-4.83613e-05 -0.0512376 0)
(-4.7902e-05 -0.051238 0)
(-4.74458e-05 -0.0512384 0)
(-4.69927e-05 -0.0512388 0)
(-4.65426e-05 -0.0512392 0)
(-4.60956e-05 -0.0512396 0)
(-4.56516e-05 -0.05124 0)
(-4.52107e-05 -0.0512404 0)
(-4.47728e-05 -0.0512408 0)
(-4.4338e-05 -0.0512412 0)
(-4.39061e-05 -0.0512416 0)
(-4.34773e-05 -0.051242 0)
(-4.30514e-05 -0.0512424 0)
(-4.26286e-05 -0.0512428 0)
(-4.22087e-05 -0.0512432 0)
(-4.17918e-05 -0.0512436 0)
(-4.13779e-05 -0.0512439 0)
(-4.0967e-05 -0.0512443 0)
(-4.0559e-05 -0.0512447 0)
(-4.01539e-05 -0.0512451 0)
(-3.97518e-05 -0.0512455 0)
(-3.93527e-05 -0.0512458 0)
(-3.89565e-05 -0.0512462 0)
(-3.85632e-05 -0.0512466 0)
(-3.81729e-05 -0.0512469 0)
(-3.77855e-05 -0.0512473 0)
(-3.7401e-05 -0.0512476 0)
(-3.70195e-05 -0.051248 0)
(-3.66408e-05 -0.0512484 0)
(-3.62651e-05 -0.0512487 0)
(-3.58922e-05 -0.0512491 0)
(-3.55222e-05 -0.0512494 0)
(-3.51551e-05 -0.0512498 0)
(-3.47909e-05 -0.0512501 0)
(-3.44295e-05 -0.0512505 0)
(-3.40709e-05 -0.0512508 0)
(-3.37152e-05 -0.0512511 0)
(-3.33624e-05 -0.0512515 0)
(-3.30123e-05 -0.0512518 0)
(-3.2665e-05 -0.0512521 0)
(-3.23206e-05 -0.0512525 0)
(-3.19789e-05 -0.0512528 0)
(-3.16399e-05 -0.0512531 0)
(-3.13037e-05 -0.0512534 0)
(-3.09702e-05 -0.0512538 0)
(-3.06394e-05 -0.0512541 0)
(-3.03112e-05 -0.0512544 0)
(-2.99857e-05 -0.0512547 0)
(-2.96629e-05 -0.051255 0)
(-2.93426e-05 -0.0512553 0)
(-2.90249e-05 -0.0512556 0)
(-2.87097e-05 -0.0512559 0)
(-2.8397e-05 -0.0512562 0)
(-2.80868e-05 -0.0512565 0)
(-2.7779e-05 -0.0512568 0)
(-2.74736e-05 -0.0512571 0)
(-2.71706e-05 -0.0512574 0)
(-2.68698e-05 -0.0512577 0)
(-2.65713e-05 -0.051258 0)
(-2.6275e-05 -0.0512583 0)
(-2.59809e-05 -0.0512586 0)
(-2.56889e-05 -0.0512589 0)
(-2.53989e-05 -0.0512592 0)
(-2.5111e-05 -0.0512594 0)
(-2.4825e-05 -0.0512597 0)
(-2.45409e-05 -0.05126 0)
(-2.42586e-05 -0.0512602 0)
(-2.39781e-05 -0.0512605 0)
(-2.36994e-05 -0.0512608 0)
)
;
    }
    procBoundary10to9
    {
        type            processor;
        value           uniform (1.05374e-05 -0.0513035 0);
    }
    procBoundary10to11
    {
        type            processor;
        value           uniform (5.83799e-05 -0.0513039 0);
    }
}


// ************************************************************************* //
