/*--------------------------------*- C++ -*----------------------------------*\
| =========                 |                                                 |
| \\      /  F ield         | OpenFOAM: The Open Source CFD Toolbox           |
|  \\    /   O peration     | Version:  2.4.0                                 |
|   \\  /    A nd           | Web:      www.OpenFOAM.org                      |
|    \\/     M anipulation  |                                                 |
\*---------------------------------------------------------------------------*/
FoamFile
{
    version     2.0;
    format      ascii;
    class       volScalarField;
    location    "0.2";
    object      H;
}
// * * * * * * * * * * * * * * * * * * * * * * * * * * * * * * * * * * * * * //

dimensions      [0 2 -2 0 0 0 0];

internalField   nonuniform List<scalar> 
500
(
-11252.9
-11252.9
-11252.9
-11252.9
-11252.9
-9286.49
-9286.47
-9286.48
-9286.47
-9286.49
-7294.09
-7294.06
-7294.07
-7294.06
-7294.1
-5272.65
-5272.6
-5272.61
-5272.61
-5272.65
-3219.06
-3219.01
-3219.02
-3219.01
-3219.07
-155.325
-155.307
-155.31
-155.308
-155.328
-118.462
-118.447
-118.45
-118.448
-118.464
-119.995
-119.98
-119.983
-119.981
-119.997
-121.287
-121.273
-121.275
-121.274
-121.289
-122.336
-122.322
-122.324
-122.322
-122.338
-123.138
-123.124
-123.126
-123.125
-123.14
-123.692
-123.678
-123.681
-123.679
-123.694
-123.998
-123.984
-123.986
-123.984
-124
-124.055
-124.041
-124.043
-124.042
-124.057
-123.865
-123.851
-123.853
-123.852
-123.867
-123.43
-123.417
-123.419
-123.417
-123.432
-122.754
-122.741
-122.743
-122.742
-122.756
-121.841
-121.829
-121.831
-121.829
-121.843
-120.697
-120.685
-120.687
-120.686
-120.699
-119.329
-119.317
-119.319
-119.318
-119.331
-117.744
-117.732
-117.734
-117.733
-117.745
-115.95
-115.94
-115.941
-115.94
-115.952
-113.958
-113.948
-113.95
-113.949
-113.96
-111.779
-111.769
-111.77
-111.77
-111.78
-109.422
-109.413
-109.414
-109.414
-109.424
-106.902
-106.893
-106.894
-106.894
-106.903
-104.23
-104.222
-104.223
-104.222
-104.231
-101.42
-101.412
-101.413
-101.413
-101.421
-98.4865
-98.4797
-98.4806
-98.4801
-98.4876
-95.4442
-95.4379
-95.4387
-95.4383
-95.4452
-92.3078
-92.302
-92.3028
-92.3024
-92.3087
-89.0925
-89.0873
-89.0879
-89.0877
-89.0934
-85.8137
-85.8091
-85.8096
-85.8094
-85.8145
-82.4867
-82.4826
-82.483
-82.4829
-82.4874
-79.1268
-79.1231
-79.1235
-79.1234
-79.1274
-75.7488
-75.7456
-75.7459
-75.7459
-75.7494
-72.3677
-72.3649
-72.3651
-72.3651
-72.3681
-68.9974
-68.9951
-68.9952
-68.9953
-68.9979
-65.6518
-65.6499
-65.6499
-65.6501
-65.6522
-62.3439
-62.3423
-62.3423
-62.3425
-62.3442
-59.0859
-59.0847
-59.0846
-59.0848
-59.0862
-55.8893
-55.8884
-55.8883
-55.8885
-55.8896
-52.7647
-52.764
-52.7638
-52.7641
-52.7649
-49.7215
-49.7211
-49.7209
-49.7212
-49.7217
-46.7684
-46.7682
-46.7679
-46.7683
-46.7685
-43.9128
-43.9128
-43.9125
-43.9129
-43.9129
-41.1611
-41.1612
-41.1609
-41.1613
-41.1612
-38.5186
-38.5189
-38.5185
-38.5189
-38.5186
-35.9895
-35.9899
-35.9895
-35.9899
-35.9895
-33.5769
-33.5774
-33.577
-33.5774
-33.5769
-31.2829
-31.2834
-31.283
-31.2834
-31.2829
-29.1084
-29.109
-29.1085
-29.109
-29.1084
-27.0536
-27.0542
-27.0537
-27.0542
-27.0536
-25.1175
-25.1181
-25.1177
-25.1182
-25.1175
-23.2986
-23.2992
-23.2987
-23.2992
-23.2986
-21.5943
-21.5949
-21.5944
-21.5949
-21.5943
-20.0016
-20.0021
-20.0017
-20.0022
-20.0016
-18.5166
-18.5171
-18.5167
-18.5172
-18.5167
-17.1353
-17.1357
-17.1353
-17.1358
-17.1353
-15.8529
-15.8533
-15.8529
-15.8534
-15.853
-14.6645
-14.6649
-14.6645
-14.6649
-14.6646
-13.565
-13.5653
-13.5649
-13.5653
-13.565
-12.5489
-12.5491
-12.5488
-12.5492
-12.549
-11.6109
-11.6111
-11.6107
-11.6112
-11.611
-10.7456
-10.7457
-10.7453
-10.7458
-10.7457
-9.94759
-9.94767
-9.94732
-9.94774
-9.94767
-9.21173
-9.21176
-9.21142
-9.21183
-9.21181
-8.53296
-8.53295
-8.53263
-8.53302
-8.53305
-7.90648
-7.90643
-7.90612
-7.9065
-7.90657
-7.32773
-7.32765
-7.32735
-7.32772
-7.32783
-6.79244
-6.79233
-6.79205
-6.7924
-6.79254
-6.29663
-6.29649
-6.29622
-6.29656
-6.29673
-5.83662
-5.83646
-5.83621
-5.83653
-5.83672
-5.40905
-5.40888
-5.40863
-5.40894
-5.40915
-5.01087
-5.01069
-5.01046
-5.01075
-5.01097
-4.63933
-4.63913
-4.63891
-4.63919
-4.63942
-4.29194
-4.29174
-4.29154
-4.2918
-4.29204
-3.96653
-3.96632
-3.96613
-3.96638
-3.96662
-3.66113
-3.66093
-3.66075
-3.66099
-3.66122
-3.37405
-3.37384
-3.37367
-3.3739
-3.37413
-3.10376
-3.10356
-3.1034
-3.10361
-3.10384
-2.84896
-2.84877
-2.84862
-2.84882
-2.84904
-2.60849
-2.6083
-2.60816
-2.60835
-2.60856
-2.38134
-2.38116
-2.38103
-2.38121
-2.38141
-2.16663
-2.16647
-2.16635
-2.16651
-2.1667
-1.96358
-1.96343
-1.96332
-1.96347
-1.96365
-1.7715
-1.77136
-1.77126
-1.7714
-1.77156
-1.58977
-1.58964
-1.58955
-1.58968
-1.58983
-1.41784
-1.41772
-1.41763
-1.41775
-1.41789
-1.25518
-1.25507
-1.25499
-1.2551
-1.25522
-1.10133
-1.10123
-1.10116
-1.10125
-1.10137
-0.955839
-0.955753
-0.955694
-0.955775
-0.955875
-0.818298
-0.818224
-0.818173
-0.818243
-0.81833
-0.688307
-0.688243
-0.6882
-0.68826
-0.688334
-0.565481
-0.565428
-0.565392
-0.565442
-0.565504
-0.449454
-0.449411
-0.449382
-0.449422
-0.449472
-0.339867
-0.339835
-0.339813
-0.339844
-0.339882
-0.236379
-0.236356
-0.23634
-0.236362
-0.236389
-0.138655
-0.138641
-0.138632
-0.138645
-0.138661
-0.0463752
-0.0463707
-0.0463676
-0.0463719
-0.0463772
)
;

boundaryField
{
    BotWall
    {
        type            zeroGradient;
    }
    FreeStream
    {
        type            zeroGradient;
    }
    FrontNBack
    {
        type            empty;
    }
    LeftSide
    {
        type            symmetryPlane;
    }
    RightSide
    {
        type            symmetryPlane;
    }
}


// ************************************************************************* //
