/*--------------------------------*- C++ -*----------------------------------*\
| =========                 |                                                 |
| \\      /  F ield         | OpenFOAM: The Open Source CFD Toolbox           |
|  \\    /   O peration     | Version:  2.4.0                                 |
|   \\  /    A nd           | Web:      www.OpenFOAM.org                      |
|    \\/     M anipulation  |                                                 |
\*---------------------------------------------------------------------------*/
FoamFile
{
    version     2.0;
    format      ascii;
    class       volScalarField;
    location    "0.2";
    object      p;
}
// * * * * * * * * * * * * * * * * * * * * * * * * * * * * * * * * * * * * * //

dimensions      [1 -1 -2 0 0 0 0];

internalField   nonuniform List<scalar> 
500
(
0.135123
0.135164
0.135164
0.135164
0.135123
0.559893
0.560032
0.560023
0.56003
0.559886
0.854887
0.854944
0.854927
0.85494
0.854872
-1.67024
-1.67082
-1.6708
-1.67082
-1.67022
-11.3307
-11.3324
-11.3322
-11.3323
-11.3306
-20.7548
-20.7568
-20.7564
-20.7567
-20.7544
-0.0259525
-0.0259519
-0.0259519
-0.0259519
-0.0259525
0.00334151
0.00334091
0.00334094
0.00334091
0.00334152
-0.00212822
-0.00212807
-0.00212806
-0.00212807
-0.00212823
-0.00503491
-0.00503477
-0.00503477
-0.00503477
-0.00503491
-0.0058648
-0.00586478
-0.00586478
-0.00586479
-0.0058648
-0.00624103
-0.00624104
-0.00624103
-0.00624104
-0.00624103
-0.00671015
-0.00671015
-0.00671014
-0.00671015
-0.00671015
-0.00726392
-0.00726391
-0.0072639
-0.00726391
-0.00726392
-0.00784058
-0.00784056
-0.00784056
-0.00784057
-0.00784058
-0.00842014
-0.00842013
-0.00842012
-0.00842013
-0.00842014
-0.00900307
-0.00900306
-0.00900305
-0.00900306
-0.00900307
-0.00959186
-0.00959185
-0.00959184
-0.00959185
-0.00959187
-0.0101874
-0.0101874
-0.0101874
-0.0101874
-0.0101874
-0.0107896
-0.0107896
-0.0107896
-0.0107896
-0.0107896
-0.0113987
-0.0113986
-0.0113986
-0.0113986
-0.0113987
-0.0120145
-0.0120145
-0.0120144
-0.0120145
-0.0120145
-0.0126371
-0.0126371
-0.0126371
-0.0126371
-0.0126371
-0.0132668
-0.0132668
-0.0132667
-0.0132668
-0.0132668
-0.0139034
-0.0139034
-0.0139034
-0.0139034
-0.0139034
-0.0145472
-0.0145472
-0.0145471
-0.0145472
-0.0145472
-0.0151981
-0.0151981
-0.0151981
-0.0151981
-0.0151981
-0.0158563
-0.0158563
-0.0158563
-0.0158563
-0.0158563
-0.0165218
-0.0165218
-0.0165218
-0.0165218
-0.0165218
-0.0171948
-0.0171948
-0.0171948
-0.0171948
-0.0171948
-0.0178753
-0.0178753
-0.0178753
-0.0178753
-0.0178753
-0.0185634
-0.0185634
-0.0185634
-0.0185634
-0.0185634
-0.0192591
-0.0192591
-0.0192591
-0.0192591
-0.0192591
-0.0199626
-0.0199626
-0.0199626
-0.0199626
-0.0199626
-0.020674
-0.020674
-0.020674
-0.020674
-0.020674
-0.0213933
-0.0213933
-0.0213933
-0.0213933
-0.0213933
-0.0221206
-0.0221206
-0.0221206
-0.0221206
-0.0221206
-0.0228561
-0.0228561
-0.0228561
-0.0228561
-0.0228561
-0.0235997
-0.0235997
-0.0235997
-0.0235997
-0.0235997
-0.0243517
-0.0243517
-0.0243517
-0.0243517
-0.0243517
-0.025112
-0.025112
-0.025112
-0.025112
-0.025112
-0.0258809
-0.0258809
-0.0258809
-0.0258809
-0.0258809
-0.0266583
-0.0266583
-0.0266583
-0.0266583
-0.0266583
-0.0274444
-0.0274444
-0.0274444
-0.0274444
-0.0274444
-0.0282392
-0.0282392
-0.0282392
-0.0282392
-0.0282392
-0.0290429
-0.0290429
-0.0290429
-0.0290429
-0.0290429
-0.0298556
-0.0298556
-0.0298556
-0.0298556
-0.0298556
-0.0306774
-0.0306774
-0.0306774
-0.0306774
-0.0306774
-0.0315083
-0.0315083
-0.0315083
-0.0315083
-0.0315083
-0.0323485
-0.0323485
-0.0323485
-0.0323485
-0.0323485
-0.0331981
-0.0331981
-0.0331981
-0.0331981
-0.0331981
-0.0340572
-0.0340572
-0.0340572
-0.0340572
-0.0340572
-0.0349258
-0.0349258
-0.0349258
-0.0349258
-0.0349258
-0.0358042
-0.0358042
-0.0358042
-0.0358042
-0.0358042
-0.0366923
-0.0366923
-0.0366923
-0.0366923
-0.0366923
-0.0375904
-0.0375904
-0.0375903
-0.0375904
-0.0375904
-0.0384984
-0.0384984
-0.0384984
-0.0384984
-0.0384984
-0.0394166
-0.0394166
-0.0394166
-0.0394166
-0.0394166
-0.0403451
-0.0403451
-0.0403451
-0.0403451
-0.0403451
-0.0412839
-0.0412839
-0.0412839
-0.0412839
-0.0412839
-0.0422332
-0.0422332
-0.0422332
-0.0422332
-0.0422332
-0.0431931
-0.0431931
-0.0431931
-0.0431931
-0.0431931
-0.0441637
-0.0441637
-0.0441637
-0.0441637
-0.0441637
-0.0451451
-0.0451451
-0.0451451
-0.0451451
-0.0451451
-0.0461375
-0.0461375
-0.0461375
-0.0461375
-0.0461375
-0.0471409
-0.0471409
-0.0471409
-0.0471409
-0.0471409
-0.0481556
-0.0481556
-0.0481556
-0.0481556
-0.0481556
-0.0491815
-0.0491815
-0.0491815
-0.0491815
-0.0491815
-0.0502189
-0.0502189
-0.0502189
-0.0502189
-0.0502189
-0.0512679
-0.0512679
-0.0512679
-0.0512679
-0.0512679
-0.0523286
-0.0523286
-0.0523286
-0.0523286
-0.0523286
-0.0534012
-0.0534012
-0.0534012
-0.0534012
-0.0534012
-0.0544857
-0.0544857
-0.0544857
-0.0544857
-0.0544857
-0.0555823
-0.0555823
-0.0555823
-0.0555823
-0.0555823
-0.0566911
-0.0566911
-0.0566911
-0.0566911
-0.0566911
-0.0578123
-0.0578123
-0.0578123
-0.0578123
-0.0578123
-0.0589461
-0.0589461
-0.0589461
-0.0589461
-0.0589461
-0.0600924
-0.0600924
-0.0600924
-0.0600924
-0.0600924
-0.0612516
-0.0612516
-0.0612516
-0.0612516
-0.0612516
-0.0624237
-0.0624237
-0.0624237
-0.0624237
-0.0624237
-0.0636089
-0.0636089
-0.0636089
-0.0636089
-0.0636089
-0.0648073
-0.0648073
-0.0648073
-0.0648073
-0.0648073
-0.0660191
-0.0660191
-0.0660191
-0.0660191
-0.0660191
-0.0672444
-0.0672444
-0.0672444
-0.0672444
-0.0672444
-0.0684834
-0.0684834
-0.0684834
-0.0684834
-0.0684834
-0.0697362
-0.0697362
-0.0697362
-0.0697362
-0.0697362
-0.071003
-0.071003
-0.071003
-0.071003
-0.071003
-0.0722839
-0.0722839
-0.0722839
-0.0722839
-0.0722839
-0.0735791
-0.0735791
-0.0735791
-0.0735791
-0.0735791
-0.0748888
-0.0748888
-0.0748888
-0.0748888
-0.0748888
-0.0762131
-0.0762131
-0.0762131
-0.0762131
-0.0762131
-0.0775521
-0.0775521
-0.0775521
-0.0775521
-0.0775521
-0.0789061
-0.0789061
-0.0789061
-0.0789061
-0.0789061
-0.0802752
-0.0802752
-0.0802752
-0.0802752
-0.0802752
-0.0816596
-0.0816596
-0.0816596
-0.0816596
-0.0816596
-0.0830595
-0.0830595
-0.0830595
-0.0830595
-0.0830595
-0.0844749
-0.0844749
-0.0844749
-0.0844749
-0.0844749
-0.0859062
-0.0859062
-0.0859062
-0.0859062
-0.0859062
-0.0873534
-0.0873534
-0.0873534
-0.0873534
-0.0873534
-0.0888168
-0.0888168
-0.0888168
-0.0888168
-0.0888168
)
;

boundaryField
{
    BotWall
    {
        type            calculated;
        value           nonuniform List<scalar> 5(0.149944 0.149984 0.149984 0.149984 0.149943);
    }
    FreeStream
    {
        type            calculated;
        value           nonuniform List<scalar> 5(-0.0895525 -0.0895525 -0.0895525 -0.0895525 -0.0895525);
    }
    FrontNBack
    {
        type            empty;
    }
    LeftSide
    {
        type            symmetryPlane;
    }
    RightSide
    {
        type            symmetryPlane;
    }
}


// ************************************************************************* //
