/*--------------------------------*- C++ -*----------------------------------*\
| =========                 |                                                 |
| \\      /  F ield         | OpenFOAM: The Open Source CFD Toolbox           |
|  \\    /   O peration     | Version:  2.4.0                                 |
|   \\  /    A nd           | Web:      www.OpenFOAM.org                      |
|    \\/     M anipulation  |                                                 |
\*---------------------------------------------------------------------------*/
FoamFile
{
    version     2.0;
    format      ascii;
    class       volScalarField;
    location    "0.2";
    object      p_rgh;
}
// * * * * * * * * * * * * * * * * * * * * * * * * * * * * * * * * * * * * * //

dimensions      [1 -1 -2 0 0 0 0];

internalField   nonuniform List<scalar> 
500
(
0.149944
0.149984
0.149984
0.149984
0.149943
0.604519
0.604658
0.604649
0.604656
0.604512
0.929652
0.929709
0.929692
0.929705
0.929637
-1.565
-1.56558
-1.56556
-1.56558
-1.56498
-11.1947
-11.1963
-11.1961
-11.1963
-11.1945
-20.7172
-20.7193
-20.7188
-20.7191
-20.7169
-0.022661
-0.0226604
-0.0226604
-0.0226604
-0.022661
0.00716075
0.00716015
0.00716018
0.00716015
0.00716076
0.00222459
0.00222475
0.00222476
0.00222475
0.00222459
-0.000142558
-0.000142421
-0.000142415
-0.000142424
-0.000142562
-0.000426893
-0.00042688
-0.000426872
-0.000426882
-0.000426896
-0.000251484
-0.000251498
-0.00025149
-0.0002515
-0.000251487
-0.000162808
-0.000162805
-0.000162797
-0.000162807
-0.000162811
-0.000152557
-0.000152544
-0.000152536
-0.000152546
-0.00015256
-0.000158902
-0.000158888
-0.00015888
-0.00015889
-0.000158905
-0.000161787
-0.000161775
-0.000161767
-0.000161776
-0.00016179
-0.000161601
-0.000161589
-0.000161582
-0.000161591
-0.000161603
-0.000160773
-0.000160762
-0.000160755
-0.000160763
-0.000160776
-0.000160079
-0.000160067
-0.00016006
-0.000160069
-0.000160081
-0.000159498
-0.000159487
-0.00015948
-0.000159488
-0.0001595
-0.000158935
-0.000158924
-0.000158917
-0.000158926
-0.000158937
-0.00015836
-0.000158349
-0.000158343
-0.000158351
-0.000158362
-0.000157774
-0.000157764
-0.000157757
-0.000157765
-0.000157776
-0.000157181
-0.00015717
-0.000157164
-0.000157172
-0.000157183
-0.000156581
-0.000156571
-0.000156565
-0.000156572
-0.000156583
-0.000155974
-0.000155965
-0.000155959
-0.000155966
-0.000155976
-0.000155361
-0.000155352
-0.000155346
-0.000155353
-0.000155363
-0.000154741
-0.000154732
-0.000154726
-0.000154733
-0.000154743
-0.000154114
-0.000154105
-0.0001541
-0.000154106
-0.000154116
-0.00015348
-0.000153471
-0.000153466
-0.000153473
-0.000153482
-0.000152839
-0.000152831
-0.000152825
-0.000152832
-0.000152841
-0.000152191
-0.000152183
-0.000152178
-0.000152184
-0.000152193
-0.000151536
-0.000151528
-0.000151523
-0.000151529
-0.000151537
-0.000150873
-0.000150865
-0.00015086
-0.000150866
-0.000150875
-0.000150203
-0.000150195
-0.000150191
-0.000150196
-0.000150204
-0.000149525
-0.000149518
-0.000149513
-0.000149519
-0.000149527
-0.00014884
-0.000148833
-0.000148829
-0.000148834
-0.000148842
-0.000148148
-0.00014814
-0.000148136
-0.000148141
-0.000148149
-0.000147447
-0.00014744
-0.000147436
-0.000147441
-0.000147448
-0.000146739
-0.000146732
-0.000146728
-0.000146733
-0.00014674
-0.000146022
-0.000146016
-0.000146012
-0.000146017
-0.000146023
-0.000145298
-0.000145292
-0.000145288
-0.000145293
-0.000145299
-0.000144566
-0.00014456
-0.000144556
-0.00014456
-0.000144567
-0.000143825
-0.00014382
-0.000143816
-0.00014382
-0.000143826
-0.000143077
-0.000143071
-0.000143068
-0.000143072
-0.000143077
-0.00014232
-0.000142314
-0.000142311
-0.000142315
-0.00014232
-0.000141554
-0.000141549
-0.000141546
-0.000141549
-0.000141555
-0.00014078
-0.000140775
-0.000140772
-0.000140775
-0.00014078
-0.000139997
-0.000139992
-0.000139989
-0.000139993
-0.000139998
-0.000139206
-0.000139201
-0.000139198
-0.000139201
-0.000139206
-0.000138406
-0.000138401
-0.000138398
-0.000138401
-0.000138406
-0.000137596
-0.000137592
-0.000137589
-0.000137592
-0.000137596
-0.000136778
-0.000136774
-0.000136771
-0.000136774
-0.000136778
-0.000135951
-0.000135947
-0.000135944
-0.000135947
-0.000135951
-0.000135114
-0.00013511
-0.000135108
-0.00013511
-0.000135114
-0.000134268
-0.000134264
-0.000134262
-0.000134264
-0.000134268
-0.000133413
-0.000133409
-0.000133407
-0.000133409
-0.000133412
-0.000132548
-0.000132544
-0.000132542
-0.000132544
-0.000132547
-0.000131673
-0.00013167
-0.000131668
-0.00013167
-0.000131673
-0.000130789
-0.000130786
-0.000130784
-0.000130785
-0.000130788
-0.000129895
-0.000129892
-0.00012989
-0.000129891
-0.000129894
-0.000128991
-0.000128988
-0.000128986
-0.000128987
-0.00012899
-0.000128076
-0.000128074
-0.000128072
-0.000128073
-0.000128075
-0.000127152
-0.000127149
-0.000127148
-0.000127149
-0.000127151
-0.000126217
-0.000126215
-0.000126213
-0.000126214
-0.000126216
-0.000125272
-0.000125269
-0.000125268
-0.000125269
-0.000125271
-0.000124316
-0.000124314
-0.000124313
-0.000124313
-0.000124315
-0.00012335
-0.000123348
-0.000123346
-0.000123347
-0.000123348
-0.000122372
-0.00012237
-0.000122369
-0.00012237
-0.000122371
-0.000121384
-0.000121382
-0.000121382
-0.000121382
-0.000121383
-0.000120385
-0.000120383
-0.000120383
-0.000120382
-0.000120383
-0.000119375
-0.000119373
-0.000119372
-0.000119372
-0.000119373
-0.000118353
-0.000118352
-0.000118351
-0.000118351
-0.000118351
-0.00011732
-0.000117319
-0.000117318
-0.000117318
-0.000117318
-0.000116276
-0.000116275
-0.000116274
-0.000116273
-0.000116274
-0.00011522
-0.000115219
-0.000115218
-0.000115217
-0.000115217
-0.000114152
-0.000114151
-0.00011415
-0.000114149
-0.000114149
-0.000113072
-0.000113071
-0.000113071
-0.00011307
-0.000113069
-0.00011198
-0.000111979
-0.000111979
-0.000111978
-0.000111977
-0.000110876
-0.000110875
-0.000110875
-0.000110874
-0.000110873
-0.000109759
-0.000109759
-0.000109759
-0.000109757
-0.000109757
-0.000108631
-0.00010863
-0.00010863
-0.000108629
-0.000108628
-0.000107489
-0.000107489
-0.000107489
-0.000107487
-0.000107486
-0.000106335
-0.000106335
-0.000106335
-0.000106333
-0.000106332
-0.000105168
-0.000105168
-0.000105168
-0.000105166
-0.000105165
-0.000103988
-0.000103988
-0.000103988
-0.000103986
-0.000103984
-0.000102795
-0.000102795
-0.000102795
-0.000102793
-0.000102791
-0.000101588
-0.000101589
-0.000101589
-0.000101586
-0.000101584
-0.000100368
-0.000100369
-0.000100369
-0.000100366
-0.000100364
-9.91344e-05
-9.91352e-05
-9.91358e-05
-9.91327e-05
-9.91303e-05
-9.7887e-05
-9.7888e-05
-9.78887e-05
-9.78854e-05
-9.78828e-05
-9.66257e-05
-9.66268e-05
-9.66276e-05
-9.66241e-05
-9.66213e-05
-9.53503e-05
-9.53516e-05
-9.53525e-05
-9.53488e-05
-9.53458e-05
-9.40607e-05
-9.40621e-05
-9.40631e-05
-9.40592e-05
-9.4056e-05
-9.27567e-05
-9.27583e-05
-9.27594e-05
-9.27553e-05
-9.27518e-05
-9.14381e-05
-9.14399e-05
-9.14411e-05
-9.14368e-05
-9.14331e-05
-9.0105e-05
-9.01069e-05
-9.01082e-05
-9.01037e-05
-9.00998e-05
-8.87572e-05
-8.87591e-05
-8.87605e-05
-8.87558e-05
-8.87517e-05
-8.73937e-05
-8.73958e-05
-8.73973e-05
-8.73923e-05
-8.7388e-05
-8.60109e-05
-8.60142e-05
-8.60164e-05
-8.6011e-05
-8.60057e-05
)
;

boundaryField
{
    BotWall
    {
        type            fixedFluxPressure;
        gradient        uniform 0;
        value           nonuniform List<scalar> 5(0.149944 0.149984 0.149984 0.149984 0.149943);
    }
    FreeStream
    {
        type            totalPressure;
        rho             rho;
        psi             none;
        gamma           1;
        p0              uniform 0;
        value           nonuniform List<scalar> 5(-8.5314e-05 -8.53185e-05 -8.53217e-05 -8.53158e-05 -8.53095e-05);
    }
    FrontNBack
    {
        type            empty;
    }
    LeftSide
    {
        type            symmetryPlane;
    }
    RightSide
    {
        type            symmetryPlane;
    }
}


// ************************************************************************* //
