/*--------------------------------*- C++ -*----------------------------------*\
| =========                 |                                                 |
| \\      /  F ield         | OpenFOAM: The Open Source CFD Toolbox           |
|  \\    /   O peration     | Version:  2.4.0                                 |
|   \\  /    A nd           | Web:      www.OpenFOAM.org                      |
|    \\/     M anipulation  |                                                 |
\*---------------------------------------------------------------------------*/
FoamFile
{
    version     2.0;
    format      ascii;
    class       volVectorField;
    location    "0.2";
    object      U;
}
// * * * * * * * * * * * * * * * * * * * * * * * * * * * * * * * * * * * * * //

dimensions      [0 1 -1 0 0 0 0];

internalField   nonuniform List<vector> 
500
(
(6.34561e-10 -5.89005e-08 0)
(5.36957e-10 -5.85273e-08 0)
(-2.42909e-11 -5.85189e-08 0)
(-6.11724e-10 -5.85254e-08 0)
(-6.84971e-10 -5.88946e-08 0)
(1.91607e-09 4.04458e-06 0)
(1.62204e-09 4.04698e-06 0)
(-7.30838e-11 4.04693e-06 0)
(-1.84718e-09 4.04697e-06 0)
(-2.06792e-09 4.04454e-06 0)
(3.24033e-09 2.05948e-05 0)
(2.74556e-09 2.05999e-05 0)
(-1.22698e-10 2.05996e-05 0)
(-3.12384e-09 2.05999e-05 0)
(-3.49559e-09 2.05945e-05 0)
(4.59628e-09 1.89299e-05 0)
(3.89291e-09 1.89305e-05 0)
(-1.73716e-10 1.89299e-05 0)
(-4.42898e-09 1.89303e-05 0)
(-4.95823e-09 1.89294e-05 0)
(5.88838e-09 -8.97047e-05 0)
(4.97478e-09 -8.97287e-05 0)
(-2.25022e-10 -8.97272e-05 0)
(-5.6701e-09 -8.97283e-05 0)
(-6.35821e-09 -8.97037e-05 0)
(7.23746e-09 -0.000707579 0)
(6.06907e-09 -0.00070766 0)
(-2.86643e-10 -0.000707649 0)
(-6.9568e-09 -0.000707658 0)
(-7.83807e-09 -0.000707571 0)
(7.83052e-09 -0.00339626 0)
(6.57824e-09 -0.00339623 0)
(-3.05087e-10 -0.00339623 0)
(-7.52488e-09 -0.00339623 0)
(-8.47163e-09 -0.00339626 0)
(4.84153e-09 -0.00778125 0)
(-1.16165e-09 -0.00778122 0)
(2.18817e-09 -0.00778122 0)
(4.31456e-09 -0.00778122 0)
(-3.9544e-09 -0.00778125 0)
(-1.06108e-09 -0.00441886 0)
(-1.15617e-08 -0.00441898 0)
(4.64868e-09 -0.00441898 0)
(1.87979e-08 -0.00441898 0)
(3.4944e-09 -0.00441886 0)
(-5.79587e-09 -0.00412808 0)
(-2.06394e-08 -0.00412811 0)
(7.04921e-09 -0.0041281 0)
(3.18564e-08 -0.00412811 0)
(9.73426e-09 -0.00412808 0)
(-9.89676e-09 -0.00422776 0)
(-2.89308e-08 -0.00422776 0)
(9.38833e-09 -0.00422775 0)
(4.4023e-08 -0.00422776 0)
(1.52976e-08 -0.00422775 0)
(-1.38328e-08 -0.00431895 0)
(-3.68991e-08 -0.00431896 0)
(1.16665e-08 -0.00431896 0)
(5.57632e-08 -0.00431896 0)
(2.06553e-08 -0.00431895 0)
(-1.76728e-08 -0.00433429 0)
(-4.46093e-08 -0.00433431 0)
(1.38836e-08 -0.00433431 0)
(6.71428e-08 -0.00433431 0)
(2.5877e-08 -0.00433429 0)
(-2.1334e-08 -0.00432935 0)
(-5.19768e-08 -0.00432937 0)
(1.60393e-08 -0.00432937 0)
(7.80767e-08 -0.00432937 0)
(3.08797e-08 -0.00432934 0)
(-2.47749e-08 -0.00432579 0)
(-5.89595e-08 -0.00432581 0)
(1.8133e-08 -0.00432581 0)
(8.85215e-08 -0.00432581 0)
(3.56218e-08 -0.00432578 0)
(-2.79951e-08 -0.00432517 0)
(-6.55556e-08 -0.00432519 0)
(2.01641e-08 -0.00432519 0)
(9.8475e-08 -0.00432519 0)
(4.01022e-08 -0.00432516 0)
(-3.10016e-08 -0.00432537 0)
(-7.17716e-08 -0.0043254 0)
(2.21323e-08 -0.0043254 0)
(1.07943e-07 -0.0043254 0)
(4.43281e-08 -0.00432537 0)
(-3.37981e-08 -0.00432552 0)
(-7.761e-08 -0.00432554 0)
(2.40372e-08 -0.00432555 0)
(1.16927e-07 -0.00432554 0)
(4.83028e-08 -0.00432551 0)
(-3.63858e-08 -0.00432554 0)
(-8.30715e-08 -0.00432557 0)
(2.58785e-08 -0.00432557 0)
(1.25428e-07 -0.00432557 0)
(5.20276e-08 -0.00432553 0)
(-3.87662e-08 -0.00432553 0)
(-8.8157e-08 -0.00432556 0)
(2.76562e-08 -0.00432556 0)
(1.33446e-07 -0.00432556 0)
(5.55039e-08 -0.00432552 0)
(-4.09417e-08 -0.00432552 0)
(-9.28684e-08 -0.00432555 0)
(2.93699e-08 -0.00432556 0)
(1.40984e-07 -0.00432555 0)
(5.87341e-08 -0.00432552 0)
(-4.29152e-08 -0.00432552 0)
(-9.72083e-08 -0.00432555 0)
(3.10198e-08 -0.00432556 0)
(1.48043e-07 -0.00432555 0)
(6.17211e-08 -0.00432551 0)
(-4.46901e-08 -0.00432552 0)
(-1.0118e-07 -0.00432556 0)
(3.26057e-08 -0.00432556 0)
(1.54628e-07 -0.00432555 0)
(6.44688e-08 -0.00432551 0)
(-4.62705e-08 -0.00432552 0)
(-1.04788e-07 -0.00432556 0)
(3.41277e-08 -0.00432557 0)
(1.60742e-07 -0.00432555 0)
(6.69812e-08 -0.00432551 0)
(-4.76608e-08 -0.00432552 0)
(-1.08036e-07 -0.00432556 0)
(3.55861e-08 -0.00432557 0)
(1.66391e-07 -0.00432555 0)
(6.9263e-08 -0.00432551 0)
(-4.88659e-08 -0.00432552 0)
(-1.1093e-07 -0.00432556 0)
(3.6981e-08 -0.00432557 0)
(1.71581e-07 -0.00432555 0)
(7.13196e-08 -0.00432551 0)
(-4.98912e-08 -0.00432551 0)
(-1.13476e-07 -0.00432556 0)
(3.83127e-08 -0.00432557 0)
(1.76317e-07 -0.00432555 0)
(7.31566e-08 -0.0043255 0)
(-5.07423e-08 -0.00432551 0)
(-1.15679e-07 -0.00432556 0)
(3.95816e-08 -0.00432558 0)
(1.80608e-07 -0.00432555 0)
(7.47801e-08 -0.0043255 0)
(-5.14251e-08 -0.00432551 0)
(-1.17548e-07 -0.00432556 0)
(4.07882e-08 -0.00432558 0)
(1.84461e-07 -0.00432555 0)
(7.61966e-08 -0.0043255 0)
(-5.19461e-08 -0.00432551 0)
(-1.19089e-07 -0.00432556 0)
(4.1933e-08 -0.00432558 0)
(1.87884e-07 -0.00432555 0)
(7.74127e-08 -0.0043255 0)
(-5.23116e-08 -0.00432551 0)
(-1.2031e-07 -0.00432556 0)
(4.30164e-08 -0.00432559 0)
(1.90887e-07 -0.00432555 0)
(7.84357e-08 -0.00432549 0)
(-5.25282e-08 -0.00432551 0)
(-1.21219e-07 -0.00432556 0)
(4.40392e-08 -0.00432559 0)
(1.93478e-07 -0.00432555 0)
(7.92725e-08 -0.00432549 0)
(-5.26026e-08 -0.0043255 0)
(-1.21825e-07 -0.00432556 0)
(4.5002e-08 -0.00432559 0)
(1.95669e-07 -0.00432555 0)
(7.99305e-08 -0.00432549 0)
(-5.25415e-08 -0.0043255 0)
(-1.22137e-07 -0.00432556 0)
(4.59055e-08 -0.00432559 0)
(1.97467e-07 -0.00432555 0)
(8.04171e-08 -0.00432549 0)
(-5.23515e-08 -0.0043255 0)
(-1.22164e-07 -0.00432557 0)
(4.67505e-08 -0.0043256 0)
(1.98885e-07 -0.00432556 0)
(8.07393e-08 -0.00432548 0)
(-5.20392e-08 -0.0043255 0)
(-1.21914e-07 -0.00432557 0)
(4.75378e-08 -0.0043256 0)
(1.99933e-07 -0.00432556 0)
(8.09044e-08 -0.00432548 0)
(-5.16108e-08 -0.0043255 0)
(-1.21398e-07 -0.00432557 0)
(4.82683e-08 -0.0043256 0)
(2.00621e-07 -0.00432556 0)
(8.09194e-08 -0.00432548 0)
(-5.10725e-08 -0.0043255 0)
(-1.20623e-07 -0.00432557 0)
(4.89427e-08 -0.00432561 0)
(2.0096e-07 -0.00432556 0)
(8.0791e-08 -0.00432547 0)
(-5.04301e-08 -0.00432549 0)
(-1.19601e-07 -0.00432557 0)
(4.95621e-08 -0.00432561 0)
(2.00962e-07 -0.00432556 0)
(8.05256e-08 -0.00432547 0)
(-4.96891e-08 -0.00432549 0)
(-1.18339e-07 -0.00432557 0)
(5.01274e-08 -0.00432561 0)
(2.00636e-07 -0.00432556 0)
(8.01294e-08 -0.00432547 0)
(-4.88546e-08 -0.00432549 0)
(-1.16847e-07 -0.00432557 0)
(5.06396e-08 -0.00432562 0)
(1.99994e-07 -0.00432556 0)
(7.96082e-08 -0.00432546 0)
(-4.79316e-08 -0.00432549 0)
(-1.15134e-07 -0.00432557 0)
(5.10995e-08 -0.00432562 0)
(1.99046e-07 -0.00432556 0)
(7.89674e-08 -0.00432546 0)
(-4.69244e-08 -0.00432549 0)
(-1.13208e-07 -0.00432557 0)
(5.15083e-08 -0.00432562 0)
(1.97803e-07 -0.00432556 0)
(7.8212e-08 -0.00432546 0)
(-4.58371e-08 -0.00432548 0)
(-1.11079e-07 -0.00432558 0)
(5.18669e-08 -0.00432563 0)
(1.96275e-07 -0.00432556 0)
(7.73467e-08 -0.00432546 0)
(-4.46733e-08 -0.00432548 0)
(-1.08756e-07 -0.00432558 0)
(5.21765e-08 -0.00432563 0)
(1.94473e-07 -0.00432556 0)
(7.63757e-08 -0.00432545 0)
(-4.34366e-08 -0.00432548 0)
(-1.06246e-07 -0.00432558 0)
(5.2438e-08 -0.00432564 0)
(1.92405e-07 -0.00432556 0)
(7.5303e-08 -0.00432545 0)
(-4.21298e-08 -0.00432548 0)
(-1.03557e-07 -0.00432558 0)
(5.26526e-08 -0.00432564 0)
(1.90083e-07 -0.00432556 0)
(7.41321e-08 -0.00432545 0)
(-4.07558e-08 -0.00432548 0)
(-1.00698e-07 -0.00432558 0)
(5.28213e-08 -0.00432564 0)
(1.87516e-07 -0.00432556 0)
(7.28663e-08 -0.00432544 0)
(-3.9317e-08 -0.00432548 0)
(-9.76774e-08 -0.00432558 0)
(5.29453e-08 -0.00432565 0)
(1.84713e-07 -0.00432556 0)
(7.15089e-08 -0.00432544 0)
(-3.7816e-08 -0.00432547 0)
(-9.4502e-08 -0.00432558 0)
(5.30258e-08 -0.00432565 0)
(1.81685e-07 -0.00432556 0)
(7.00626e-08 -0.00432544 0)
(-3.62549e-08 -0.00432547 0)
(-9.11801e-08 -0.00432558 0)
(5.3064e-08 -0.00432565 0)
(1.7844e-07 -0.00432556 0)
(6.85304e-08 -0.00432543 0)
(-3.46358e-08 -0.00432547 0)
(-8.77193e-08 -0.00432558 0)
(5.3061e-08 -0.00432565 0)
(1.74989e-07 -0.00432556 0)
(6.69148e-08 -0.00432543 0)
(-3.2961e-08 -0.00432547 0)
(-8.41274e-08 -0.00432558 0)
(5.30181e-08 -0.00432566 0)
(1.71341e-07 -0.00432556 0)
(6.52188e-08 -0.00432543 0)
(-3.12326e-08 -0.00432547 0)
(-8.04122e-08 -0.00432559 0)
(5.29366e-08 -0.00432566 0)
(1.67506e-07 -0.00432556 0)
(6.34452e-08 -0.00432543 0)
(-2.9453e-08 -0.00432547 0)
(-7.65816e-08 -0.00432559 0)
(5.28178e-08 -0.00432566 0)
(1.63494e-07 -0.00432556 0)
(6.15969e-08 -0.00432542 0)
(-2.76246e-08 -0.00432547 0)
(-7.26435e-08 -0.00432559 0)
(5.2663e-08 -0.00432567 0)
(1.59314e-07 -0.00432556 0)
(5.96771e-08 -0.00432542 0)
(-2.57501e-08 -0.00432546 0)
(-6.86059e-08 -0.00432559 0)
(5.24737e-08 -0.00432567 0)
(1.54978e-07 -0.00432556 0)
(5.76892e-08 -0.00432542 0)
(-2.38323e-08 -0.00432546 0)
(-6.44772e-08 -0.00432559 0)
(5.22513e-08 -0.00432567 0)
(1.50494e-07 -0.00432556 0)
(5.56368e-08 -0.00432541 0)
(-2.18745e-08 -0.00432546 0)
(-6.02657e-08 -0.00432559 0)
(5.19973e-08 -0.00432568 0)
(1.45875e-07 -0.00432556 0)
(5.3524e-08 -0.00432541 0)
(-1.988e-08 -0.00432546 0)
(-5.59799e-08 -0.00432559 0)
(5.17131e-08 -0.00432568 0)
(1.41131e-07 -0.00432556 0)
(5.1355e-08 -0.00432541 0)
(-1.78526e-08 -0.00432546 0)
(-5.16286e-08 -0.00432559 0)
(5.14003e-08 -0.00432568 0)
(1.36274e-07 -0.00432556 0)
(4.91344e-08 -0.00432541 0)
(-1.57963e-08 -0.00432546 0)
(-4.72209e-08 -0.00432559 0)
(5.10605e-08 -0.00432568 0)
(1.31314e-07 -0.00432556 0)
(4.68673e-08 -0.0043254 0)
(-1.37156e-08 -0.00432546 0)
(-4.27658e-08 -0.00432559 0)
(5.06953e-08 -0.00432569 0)
(1.26264e-07 -0.00432556 0)
(4.45589e-08 -0.0043254 0)
(-1.16149e-08 -0.00432546 0)
(-3.82726e-08 -0.0043256 0)
(5.03064e-08 -0.00432569 0)
(1.21136e-07 -0.00432556 0)
(4.2215e-08 -0.0043254 0)
(-9.49919e-09 -0.00432546 0)
(-3.3751e-08 -0.0043256 0)
(4.98954e-08 -0.00432569 0)
(1.15942e-07 -0.00432556 0)
(3.98414e-08 -0.0043254 0)
(-7.37355e-09 -0.00432546 0)
(-2.92104e-08 -0.0043256 0)
(4.94641e-08 -0.00432569 0)
(1.10695e-07 -0.00432556 0)
(3.74444e-08 -0.0043254 0)
(-5.24327e-09 -0.00432546 0)
(-2.46606e-08 -0.0043256 0)
(4.90142e-08 -0.00432569 0)
(1.05407e-07 -0.00432556 0)
(3.50303e-08 -0.00432539 0)
(-3.11374e-09 -0.00432546 0)
(-2.01116e-08 -0.0043256 0)
(4.85474e-08 -0.0043257 0)
(1.00091e-07 -0.00432556 0)
(3.26056e-08 -0.00432539 0)
(-9.90489e-10 -0.00432546 0)
(-1.55731e-08 -0.0043256 0)
(4.80656e-08 -0.0043257 0)
(9.47593e-08 -0.00432556 0)
(3.01772e-08 -0.00432539 0)
(1.12095e-09 -0.00432546 0)
(-1.1055e-08 -0.0043256 0)
(4.75704e-08 -0.0043257 0)
(8.94259e-08 -0.00432556 0)
(2.77516e-08 -0.00432539 0)
(3.21505e-09 -0.00432546 0)
(-6.56734e-09 -0.0043256 0)
(4.70637e-08 -0.0043257 0)
(8.41033e-08 -0.00432556 0)
(2.53357e-08 -0.00432539 0)
(5.28637e-09 -0.00432546 0)
(-2.11979e-09 -0.0043256 0)
(4.65473e-08 -0.0043257 0)
(7.88041e-08 -0.00432556 0)
(2.2936e-08 -0.00432538 0)
(7.32961e-09 -0.00432546 0)
(2.2779e-09 -0.0043256 0)
(4.60229e-08 -0.0043257 0)
(7.35413e-08 -0.00432556 0)
(2.05591e-08 -0.00432538 0)
(9.33964e-09 -0.00432546 0)
(6.61615e-09 -0.0043256 0)
(4.54923e-08 -0.0043257 0)
(6.83274e-08 -0.00432556 0)
(1.82112e-08 -0.00432538 0)
(1.13116e-08 -0.00432546 0)
(1.08856e-08 -0.0043256 0)
(4.49573e-08 -0.0043257 0)
(6.31749e-08 -0.00432556 0)
(1.58985e-08 -0.00432538 0)
(1.32409e-08 -0.00432546 0)
(1.50769e-08 -0.0043256 0)
(4.44197e-08 -0.00432571 0)
(5.80958e-08 -0.00432556 0)
(1.36266e-08 -0.00432538 0)
(1.51232e-08 -0.00432546 0)
(1.91814e-08 -0.0043256 0)
(4.38812e-08 -0.00432571 0)
(5.31022e-08 -0.00432556 0)
(1.14011e-08 -0.00432538 0)
(1.69547e-08 -0.00432546 0)
(2.31901e-08 -0.0043256 0)
(4.33436e-08 -0.00432571 0)
(4.82055e-08 -0.00432556 0)
(9.22703e-09 -0.00432538 0)
(1.87318e-08 -0.00432546 0)
(2.70949e-08 -0.00432561 0)
(4.28086e-08 -0.00432571 0)
(4.34172e-08 -0.00432556 0)
(7.10895e-09 -0.00432538 0)
(2.04514e-08 -0.00432546 0)
(3.08875e-08 -0.00432561 0)
(4.22779e-08 -0.00432571 0)
(3.87481e-08 -0.00432555 0)
(5.05119e-09 -0.00432538 0)
(2.21106e-08 -0.00432546 0)
(3.45603e-08 -0.00432561 0)
(4.17531e-08 -0.00432571 0)
(3.42089e-08 -0.00432555 0)
(3.0576e-09 -0.00432538 0)
(2.37072e-08 -0.00432546 0)
(3.81057e-08 -0.00432561 0)
(4.12362e-08 -0.00432571 0)
(2.98098e-08 -0.00432555 0)
(1.13169e-09 -0.00432537 0)
(2.5239e-08 -0.00432546 0)
(4.15168e-08 -0.00432561 0)
(4.07286e-08 -0.00432571 0)
(2.55608e-08 -0.00432555 0)
(-7.2338e-10 -0.00432537 0)
(2.67041e-08 -0.00432546 0)
(4.47867e-08 -0.00432561 0)
(4.02322e-08 -0.00432571 0)
(2.14715e-08 -0.00432555 0)
(-2.50471e-09 -0.00432537 0)
(2.81011e-08 -0.00432546 0)
(4.79088e-08 -0.00432561 0)
(3.97487e-08 -0.00432571 0)
(1.75512e-08 -0.00432555 0)
(-4.20964e-09 -0.00432537 0)
(2.94284e-08 -0.00432547 0)
(5.08771e-08 -0.00432561 0)
(3.92798e-08 -0.00432571 0)
(1.38091e-08 -0.00432555 0)
(-5.83561e-09 -0.00432537 0)
(3.06847e-08 -0.00432547 0)
(5.36854e-08 -0.00432561 0)
(3.88273e-08 -0.0043257 0)
(1.02541e-08 -0.00432555 0)
(-7.38013e-09 -0.00432537 0)
(3.18686e-08 -0.00432547 0)
(5.63282e-08 -0.00432561 0)
(3.83932e-08 -0.0043257 0)
(6.89489e-09 -0.00432555 0)
(-8.84064e-09 -0.00432537 0)
(3.29786e-08 -0.00432547 0)
(5.87996e-08 -0.00432561 0)
(3.79792e-08 -0.0043257 0)
(3.74029e-09 -0.00432555 0)
(-1.02145e-08 -0.00432537 0)
(3.4013e-08 -0.00432547 0)
(6.10944e-08 -0.00432561 0)
(3.75873e-08 -0.0043257 0)
(7.98932e-10 -0.00432555 0)
(-1.14986e-08 -0.00432537 0)
(3.49698e-08 -0.00432547 0)
(6.32072e-08 -0.00432561 0)
(3.72197e-08 -0.0043257 0)
(-1.9205e-09 -0.00432555 0)
(-1.26899e-08 -0.00432537 0)
(3.58468e-08 -0.00432548 0)
(6.51328e-08 -0.00432561 0)
(3.68783e-08 -0.0043257 0)
(-4.40925e-09 -0.00432555 0)
(-1.37847e-08 -0.00432537 0)
(3.66415e-08 -0.00432548 0)
(6.68659e-08 -0.00432561 0)
(3.65655e-08 -0.0043257 0)
(-6.65848e-09 -0.00432554 0)
(-1.4779e-08 -0.00432537 0)
(3.73507e-08 -0.00432548 0)
(6.84013e-08 -0.00432561 0)
(3.62835e-08 -0.0043257 0)
(-8.6592e-09 -0.00432554 0)
(-1.56683e-08 -0.00432537 0)
(3.79713e-08 -0.00432548 0)
(6.97339e-08 -0.00432561 0)
(3.60347e-08 -0.0043257 0)
(-1.04023e-08 -0.00432554 0)
(-1.64478e-08 -0.00432538 0)
(3.84994e-08 -0.00432548 0)
(7.08584e-08 -0.00432561 0)
(3.58215e-08 -0.00432569 0)
(-1.18784e-08 -0.00432554 0)
(-1.71121e-08 -0.00432538 0)
(3.89311e-08 -0.00432549 0)
(7.17693e-08 -0.00432561 0)
(3.56464e-08 -0.00432569 0)
(-1.30782e-08 -0.00432554 0)
(-1.76557e-08 -0.00432538 0)
(3.9263e-08 -0.00432549 0)
(7.24629e-08 -0.00432561 0)
(3.55123e-08 -0.00432569 0)
(-1.39929e-08 -0.00432554 0)
(-1.80733e-08 -0.00432538 0)
(3.94939e-08 -0.00432549 0)
(7.29392e-08 -0.00432561 0)
(3.54232e-08 -0.00432569 0)
(-1.46162e-08 -0.00432554 0)
(-1.83613e-08 -0.00432538 0)
(3.9621e-08 -0.00432549 0)
(7.31959e-08 -0.00432561 0)
(3.53825e-08 -0.00432568 0)
(-1.49403e-08 -0.00432554 0)
(-1.85147e-08 -0.00432538 0)
)
;

boundaryField
{
    BotWall
    {
        type            fixedValue;
        value           uniform (0 0 0);
    }
    FreeStream
    {
        type            zeroGradient;
    }
    FrontNBack
    {
        type            empty;
    }
    LeftSide
    {
        type            symmetryPlane;
    }
    RightSide
    {
        type            symmetryPlane;
    }
}


// ************************************************************************* //
