/*--------------------------------*- C++ -*----------------------------------*\
| =========                 |                                                 |
| \\      /  F ield         | OpenFOAM: The Open Source CFD Toolbox           |
|  \\    /   O peration     | Version:  2.4.0                                 |
|   \\  /    A nd           | Web:      www.OpenFOAM.org                      |
|    \\/     M anipulation  |                                                 |
\*---------------------------------------------------------------------------*/
FoamFile
{
    version     2.0;
    format      ascii;
    class       surfaceScalarField;
    location    "3.4";
    object      phi;
}
// * * * * * * * * * * * * * * * * * * * * * * * * * * * * * * * * * * * * * //

dimensions      [0 3 -1 0 0 0 0];

internalField   nonuniform List<scalar> 
220
(
-3.70402e-17
-2.31458e-10
-2.97693e-17
-2.31452e-10
2.86649e-17
-2.31446e-10
5.66942e-17
-2.31449e-10
-2.3146e-10
-3.98082e-17
-2.31458e-10
-3.20519e-17
-2.31452e-10
3.0024e-17
-2.31446e-10
5.96512e-17
-2.31449e-10
-2.3146e-10
-4.23427e-17
-2.31458e-10
-3.41329e-17
-2.31452e-10
3.12486e-17
-2.31446e-10
6.23076e-17
-2.31449e-10
-2.3146e-10
-4.46498e-17
-2.31458e-10
-3.60189e-17
-2.31452e-10
3.2343e-17
-2.31446e-10
6.46734e-17
-2.31449e-10
-2.3146e-10
-4.67363e-17
-2.31458e-10
-3.77169e-17
-2.31452e-10
3.33119e-17
-2.31446e-10
6.67596e-17
-2.31449e-10
-2.31459e-10
-4.861e-17
-2.31458e-10
-3.92343e-17
-2.31452e-10
3.41604e-17
-2.31446e-10
6.85778e-17
-2.31449e-10
-2.31459e-10
-5.02798e-17
-2.31458e-10
-4.05789e-17
-2.31452e-10
3.48938e-17
-2.31446e-10
7.01406e-17
-2.31449e-10
-2.31459e-10
-5.17551e-17
-2.31458e-10
-4.1759e-17
-2.31452e-10
3.55181e-17
-2.31446e-10
7.14616e-17
-2.31449e-10
-2.31459e-10
-5.30465e-17
-2.31458e-10
-4.27838e-17
-2.31452e-10
3.60396e-17
-2.31446e-10
7.25552e-17
-2.31449e-10
-2.31459e-10
-5.41653e-17
-2.31458e-10
-4.36629e-17
-2.31452e-10
3.64654e-17
-2.31446e-10
7.34368e-17
-2.31449e-10
-2.31459e-10
-5.51236e-17
-2.31458e-10
-4.44067e-17
-2.31452e-10
3.68027e-17
-2.31446e-10
7.41231e-17
-2.31449e-10
-2.31459e-10
-5.59348e-17
-2.31458e-10
-4.50264e-17
-2.31452e-10
3.70594e-17
-2.31446e-10
7.46317e-17
-2.31449e-10
-2.31459e-10
-5.66129e-17
-2.31458e-10
-4.55341e-17
-2.31452e-10
3.72442e-17
-2.31446e-10
7.49817e-17
-2.3145e-10
-2.31459e-10
-5.71733e-17
-2.31458e-10
-4.59426e-17
-2.31452e-10
3.73661e-17
-2.31447e-10
7.51934e-17
-2.3145e-10
-2.31459e-10
-5.76322e-17
-2.31458e-10
-4.62659e-17
-2.31452e-10
3.74349e-17
-2.31447e-10
7.52886e-17
-2.3145e-10
-2.31459e-10
-5.80074e-17
-2.31458e-10
-4.65188e-17
-2.31452e-10
3.74611e-17
-2.31447e-10
7.52907e-17
-2.3145e-10
-2.31459e-10
-5.83174e-17
-2.31457e-10
-4.67172e-17
-2.31452e-10
3.7456e-17
-2.31447e-10
7.52247e-17
-2.3145e-10
-2.31459e-10
-5.85826e-17
-2.31457e-10
-4.68783e-17
-2.31452e-10
3.74314e-17
-2.31447e-10
7.51177e-17
-2.3145e-10
-2.31459e-10
-5.88244e-17
-2.31457e-10
-4.70206e-17
-2.31452e-10
3.74005e-17
-2.31447e-10
7.49987e-17
-2.3145e-10
-2.31458e-10
-5.90662e-17
-2.31457e-10
-4.71639e-17
-2.31452e-10
3.73769e-17
-2.31447e-10
7.4899e-17
-2.3145e-10
-2.31458e-10
-5.93324e-17
-2.31457e-10
-4.73293e-17
-2.31452e-10
3.73754e-17
-2.31447e-10
7.48518e-17
-2.3145e-10
-2.31458e-10
-5.96492e-17
-2.31457e-10
-4.75391e-17
-2.31452e-10
3.74114e-17
-2.31447e-10
7.48926e-17
-2.3145e-10
-2.31458e-10
-6.00464e-17
-2.31457e-10
-4.78186e-17
-2.31452e-10
3.75027e-17
-2.31447e-10
7.50618e-17
-2.3145e-10
-2.31458e-10
-6.05625e-17
-2.31457e-10
-4.82028e-17
-2.31452e-10
3.76725e-17
-2.31447e-10
7.54141e-17
-2.3145e-10
-2.31458e-10
-6.12518e-17
-4.87596e-17
3.7947e-17
7.60566e-17
)
;

boundaryField
{
    BotWall
    {
        type            calculated;
        value           nonuniform 0();
    }
    FreeStream
    {
        type            calculated;
        value           nonuniform List<scalar> 5(-2.31457e-10 -2.31452e-10 -2.31447e-10 -2.3145e-10 -2.31458e-10);
    }
    FrontNBack
    {
        type            empty;
        value           nonuniform 0();
    }
    LeftSide
    {
        type            symmetryPlane;
        value           uniform 0;
    }
    RightSide
    {
        type            symmetryPlane;
        value           uniform 0;
    }
    procBoundary3to2
    {
        type            processor;
        value           nonuniform List<scalar> 5(2.31458e-10 2.31452e-10 2.31446e-10 2.31449e-10 2.3146e-10);
    }
}


// ************************************************************************* //
