/*--------------------------------*- C++ -*----------------------------------*\
| =========                 |                                                 |
| \\      /  F ield         | OpenFOAM: The Open Source CFD Toolbox           |
|  \\    /   O peration     | Version:  2.4.0                                 |
|   \\  /    A nd           | Web:      www.OpenFOAM.org                      |
|    \\/     M anipulation  |                                                 |
\*---------------------------------------------------------------------------*/
FoamFile
{
    version     2.0;
    format      ascii;
    class       volScalarField;
    location    "0.015";
    object      H;
}
// * * * * * * * * * * * * * * * * * * * * * * * * * * * * * * * * * * * * * //

dimensions      [0 2 -2 0 0 0 0];

internalField   nonuniform List<scalar> 
125
(
-0.0726693
-0.0668031
-0.0613671
-0.0563335
-0.0516761
-0.0473699
-0.0433916
-0.0397189
-0.036331
-0.0332082
-0.0303318
-0.0276846
-0.0252502
-0.0230131
-0.0209589
-0.0190742
-0.0173463
-0.0157634
-0.0143144
-0.0129891
-0.0117778
-0.0106717
-0.00966221
-0.00874179
-0.00790318
-0.0071397
-0.00644518
-0.00581388
-0.00524048
-0.00472009
-0.00424818
-0.00382056
-0.00343339
-0.00308311
-0.00276645
-0.00248042
-0.00222226
-0.00198943
-0.00177962
-0.0015907
-0.00142073
-0.00126792
-0.00113066
-0.00100746
-0.000896968
-0.000797957
-0.000709304
-0.000629991
-0.00055909
-0.000495763
-0.000439246
-0.00038885
-0.000343948
-0.000303975
-0.000268419
-0.000236821
-0.000208762
-0.000183869
-0.000161802
-0.000142258
-0.000124964
-0.000109674
-9.61674e-05
-8.42477e-05
-7.37376e-05
-6.44788e-05
-5.63299e-05
-4.91644e-05
-4.28696e-05
-3.73448e-05
-3.25005e-05
-2.82569e-05
-2.45431e-05
-2.12962e-05
-1.84603e-05
-1.59857e-05
-1.38287e-05
-1.19503e-05
-1.03163e-05
-8.89642e-06
-7.66375e-06
-6.59479e-06
-5.66879e-06
-4.86751e-06
-4.17486e-06
-3.5768e-06
-3.06098e-06
-2.61658e-06
-2.23416e-06
-1.90538e-06
-1.62315e-06
-1.3811e-06
-1.17373e-06
-9.96324e-07
-8.44713e-07
-7.15313e-07
-6.04978e-07
-5.11044e-07
-4.31173e-07
-3.63304e-07
-3.05736e-07
-2.5698e-07
-2.15705e-07
-1.80834e-07
-1.51401e-07
-1.26605e-07
-1.05715e-07
-8.81497e-08
-7.34214e-08
-6.10721e-08
-5.07151e-08
-4.20655e-08
-3.48429e-08
-2.88214e-08
-2.38106e-08
-1.96287e-08
-1.6179e-08
-1.3299e-08
-1.09281e-08
-8.95898e-09
-7.33144e-09
-5.98948e-09
-4.90867e-09
-3.9801e-09
-3.25798e-09
)
;

boundaryField
{
    BotWall
    {
        type            zeroGradient;
    }
    FreeStream
    {
        type            zeroGradient;
    }
    FrontNBack
    {
        type            empty;
    }
    LeftSide
    {
        type            symmetryPlane;
    }
    RightSide
    {
        type            symmetryPlane;
    }
    procBoundary5to2
    {
        type            processor;
        value           nonuniform List<scalar> 
50
(
-1.5952e-05
-1.37994e-05
-1.1925e-05
-1.02943e-05
-8.87734e-06
-7.64725e-06
-6.58053e-06
-5.65648e-06
-4.85687e-06
-4.16572e-06
-3.56892e-06
-3.0542e-06
-2.61075e-06
-2.22915e-06
-1.90113e-06
-1.61948e-06
-1.37796e-06
-1.17106e-06
-9.94043e-07
-8.42771e-07
-7.13648e-07
-6.03573e-07
-5.09853e-07
-4.30169e-07
-3.62436e-07
-3.05013e-07
-2.56361e-07
-2.1519e-07
-1.80401e-07
-1.51031e-07
-1.26288e-07
-1.05456e-07
-8.79423e-08
-7.32325e-08
-6.0909e-08
-5.05946e-08
-4.19577e-08
-3.47537e-08
-2.87423e-08
-2.37445e-08
-1.95886e-08
-1.61252e-08
-1.32643e-08
-1.08969e-08
-8.94106e-09
-7.31219e-09
-5.97324e-09
-4.88048e-09
-3.98234e-09
-3.23741e-09
)
;
    }
    procBoundary5to3
    {
        type            processor;
        value           nonuniform List<scalar> 
75
(
-0.0725813
-0.0667214
-0.0612913
-0.0562633
-0.051611
-0.0473098
-0.043336
-0.0396675
-0.0362835
-0.0331644
-0.0302915
-0.0276474
-0.0252159
-0.0229816
-0.02093
-0.0190476
-0.0173219
-0.0157411
-0.014294
-0.0129704
-0.0117607
-0.010656
-0.00964796
-0.00872879
-0.00789134
-0.00712894
-0.0064354
-0.00580499
-0.00523242
-0.00471278
-0.00424156
-0.00381458
-0.00342798
-0.00307822
-0.00276205
-0.00247645
-0.00221869
-0.00198622
-0.00177673
-0.00158811
-0.0014184
-0.00126584
-0.00112879
-0.00100579
-0.000895479
-0.000796628
-0.000708119
-0.000628934
-0.00055815
-0.000494926
-0.000438503
-0.000388189
-0.000343361
-0.000303455
-0.000267959
-0.000236413
-0.000208402
-0.00018355
-0.00016152
-0.000142009
-0.000124744
-0.00010948
-9.5997e-05
-8.40975e-05
-7.36053e-05
-6.43624e-05
-5.62274e-05
-4.90741e-05
-4.279e-05
-3.72747e-05
-3.24386e-05
-2.82022e-05
-2.44947e-05
-2.12533e-05
-1.8422e-05
)
;
    }
    procBoundary5to4
    {
        type            processor;
        value           uniform -2.6407e-09;
    }
    procBoundary5to6
    {
        type            processor;
        value           uniform -0.0789964;
    }
    procBoundary5to7
    {
        type            processor;
        value           nonuniform List<scalar> 
75
(
-0.0004306
-0.000381143
-0.000337086
-0.00029787
-0.000262993
-0.000232002
-0.000204487
-0.000180079
-0.000158446
-0.000139288
-0.000122339
-0.000107355
-9.41215e-05
-8.24441e-05
-7.2149e-05
-6.30809e-05
-5.51009e-05
-4.8085e-05
-4.19224e-05
-3.65144e-05
-3.17732e-05
-2.76205e-05
-2.39868e-05
-2.08104e-05
-1.80364e-05
-1.56163e-05
-1.3507e-05
-1.16705e-05
-1.00732e-05
-8.68532e-06
-7.48071e-06
-6.43624e-06
-5.53158e-06
-4.74889e-06
-4.07245e-06
-3.48847e-06
-2.98486e-06
-2.55108e-06
-2.17782e-06
-1.85706e-06
-1.58167e-06
-1.34557e-06
-1.14333e-06
-9.70348e-07
-8.22533e-07
-6.96407e-07
-5.889e-07
-4.97356e-07
-4.19534e-07
-3.53447e-07
-2.97382e-07
-2.4991e-07
-2.09745e-07
-1.75794e-07
-1.47159e-07
-1.23033e-07
-1.02717e-07
-8.5639e-08
-7.13059e-08
-5.93002e-08
-4.92431e-08
-4.0837e-08
-3.38152e-08
-2.79698e-08
-2.31006e-08
-1.90435e-08
-1.56881e-08
-1.28978e-08
-1.05981e-08
-8.6798e-09
-7.10444e-09
-5.82312e-09
-4.72775e-09
-3.87866e-09
-3.15608e-09
)
;
    }
    procBoundary5to8
    {
        type            processor;
        value           nonuniform List<scalar> 
50
(
-0.0718741
-0.0660589
-0.0606714
-0.0556837
-0.0510698
-0.0468048
-0.0428654
-0.0392294
-0.0358761
-0.0327858
-0.0299402
-0.0273218
-0.0249143
-0.0227025
-0.0206721
-0.0188095
-0.0171024
-0.0155388
-0.0141078
-0.0127992
-0.0116035
-0.0105118
-0.00951574
-0.00860772
-0.00778059
-0.00702772
-0.00634299
-0.00572071
-0.00515562
-0.00464288
-0.00417799
-0.00375682
-0.00337555
-0.00303068
-0.00271897
-0.00243747
-0.00218343
-0.00195436
-0.00174798
-0.00156217
-0.00139503
-0.0012448
-0.00110986
-0.000988775
-0.000880195
-0.000782909
-0.000695814
-0.000617906
-0.000548271
-0.000486082
)
;
    }
}


// ************************************************************************* //
