/*--------------------------------*- C++ -*----------------------------------*\
| =========                 |                                                 |
| \\      /  F ield         | OpenFOAM: The Open Source CFD Toolbox           |
|  \\    /   O peration     | Version:  2.4.0                                 |
|   \\  /    A nd           | Web:      www.OpenFOAM.org                      |
|    \\/     M anipulation  |                                                 |
\*---------------------------------------------------------------------------*/
FoamFile
{
    version     2.0;
    format      ascii;
    class       volScalarField;
    location    "0.015";
    object      alpha1;
}
// * * * * * * * * * * * * * * * * * * * * * * * * * * * * * * * * * * * * * //

dimensions      [0 0 0 0 0 0 0];

internalField   nonuniform List<scalar> 
125
(
1
1
1
1
0.3299
9.01018e-143
1.82517e-148
3.38125e-154
5.48578e-160
7.69967e-166
9.34363e-172
9.82068e-178
8.94784e-184
7.05811e-190
4.80083e-196
2.79549e-202
1.37804e-208
5.65796e-215
1.88988e-221
4.96011e-228
9.69081e-235
1.28493e-241
9.5671e-249
2.24943e-256
0
0
0
0
0
0
0
0
0
0
0
0
0
0
0
0
0
0
0
0
0
0
0
0
0
0
0
0
0
0
0
0
0
0
0
0
0
0
0
0
0
0
0
0
0
0
0
0
0
0
0
0
0
0
0
0
0
0
0
0
0
0
0
0
0
0
0
0
0
0
0
0
0
0
0
0
0
0
0
0
0
0
0
0
0
0
0
0
0
0
0
0
0
0
0
0
0
0
0
0
0
)
;

boundaryField
{
    BotWall
    {
        type            fixedValue;
        value           uniform 1;
    }
    FreeStream
    {
        type            inletOutlet;
        inletValue      uniform 0;
        value           uniform 0;
    }
    FrontNBack
    {
        type            empty;
    }
    LeftSide
    {
        type            symmetryPlane;
    }
    RightSide
    {
        type            symmetryPlane;
    }
    procBoundary4to1
    {
        type            processor;
        value           uniform 0;
    }
    procBoundary4to2
    {
        type            processor;
        value           nonuniform List<scalar> 
75
(
1
1
1
1
0.321748
1.32625e-145
3.53312e-151
7.84459e-157
1.44803e-162
2.23604e-168
2.91316e-174
3.22893e-180
3.06051e-186
2.4855e-192
1.72669e-198
1.02056e-204
5.08228e-211
2.10029e-217
7.04143e-224
1.85101e-230
3.61655e-237
4.79005e-244
3.55974e-251
8.34929e-259
0
0
0
0
0
0
0
0
0
0
0
0
0
0
0
0
0
0
0
0
0
0
0
0
0
0
0
0
0
0
0
0
0
0
0
0
0
0
0
0
0
0
0
0
0
0
0
0
0
0
0
)
;
    }
    procBoundary4to3
    {
        type            processor;
        value           uniform 0;
    }
    procBoundary4to5
    {
        type            processor;
        value           uniform 0;
    }
    procBoundary4to6
    {
        type            processor;
        value           uniform 0;
    }
    procBoundary4to7
    {
        type            processor;
        value           nonuniform List<scalar> 
50
(
1
1
1
1
0.330344
1.40058e-145
2.33709e-151
3.92328e-157
6.00669e-163
8.11414e-169
9.55719e-175
9.80529e-181
8.73709e-187
6.74644e-193
4.49734e-199
2.56929e-205
1.24404e-211
5.02345e-218
1.65114e-224
4.26633e-231
8.21041e-238
1.07252e-244
7.86886e-252
1.82369e-259
0
0
0
0
0
0
0
0
0
0
0
0
0
0
0
0
0
0
0
0
0
0
0
0
0
0
)
;
    }
}


// ************************************************************************* //
