/*--------------------------------*- C++ -*----------------------------------*\
| =========                 |                                                 |
| \\      /  F ield         | OpenFOAM: The Open Source CFD Toolbox           |
|  \\    /   O peration     | Version:  2.4.0                                 |
|   \\  /    A nd           | Web:      www.OpenFOAM.org                      |
|    \\/     M anipulation  |                                                 |
\*---------------------------------------------------------------------------*/
FoamFile
{
    version     2.0;
    format      ascii;
    class       volScalarField;
    location    "0.015";
    object      p;
}
// * * * * * * * * * * * * * * * * * * * * * * * * * * * * * * * * * * * * * //

dimensions      [1 -1 -2 0 0 0 0];

internalField   nonuniform List<scalar> 
125
(
0.0302441
0.0383889
-0.0192458
0.108264
-0.66107
-0.0862487
0.0232509
0.00748343
-0.00501007
-0.00763835
-0.00721017
-0.00690212
-0.0069748
-0.00716234
-0.00734531
-0.00751411
-0.00767917
-0.00784506
-0.00801214
-0.00818
-0.00834846
-0.00851753
-0.00868721
-0.00885751
-0.00902845
-0.00920001
-0.0093722
-0.00954503
-0.00971849
-0.00989259
-0.0100673
-0.0102427
-0.0104187
-0.0105954
-0.0107727
-0.0109507
-0.0111294
-0.0113086
-0.0114886
-0.0116692
-0.0118505
-0.0120324
-0.012215
-0.0123983
-0.0125823
-0.0127669
-0.0129522
-0.0131382
-0.0133249
-0.0135123
-0.0137003
-0.0138891
-0.0140785
-0.0142687
-0.0144595
-0.0146511
-0.0148433
-0.0150363
-0.0152299
-0.0154243
-0.0156194
-0.0158152
-0.0160118
-0.016209
-0.016407
-0.0166057
-0.0168051
-0.0170053
-0.0172062
-0.0174079
-0.0176103
-0.0178134
-0.0180173
-0.0182219
-0.0184273
-0.0186335
-0.0188404
-0.019048
-0.0192565
-0.0194657
-0.0196756
-0.0198864
-0.0200979
-0.0203102
-0.0205232
-0.0207371
-0.0209517
-0.0211672
-0.0213834
-0.0216004
-0.0218182
-0.0220369
-0.0222563
-0.0224765
-0.0226976
-0.0229194
-0.0231421
-0.0233656
-0.0235899
-0.0238151
-0.0796236
-0.080055
-0.0804881
-0.0809227
-0.0813589
-0.0817967
-0.0822361
-0.0826771
-0.0831198
-0.0835641
-0.08401
-0.0844576
-0.0849068
-0.0853577
-0.0858102
-0.0862644
-0.0867203
-0.0871779
-0.0876371
-0.088098
-0.0885607
-0.089025
-0.089491
-0.0899588
-0.0904281
)
;

boundaryField
{
    BotWall
    {
        type            calculated;
        value           uniform 0.0351875;
    }
    FreeStream
    {
        type            calculated;
        value           uniform -0.0906631;
    }
    FrontNBack
    {
        type            empty;
    }
    LeftSide
    {
        type            symmetryPlane;
    }
    RightSide
    {
        type            symmetryPlane;
    }
    procBoundary4to1
    {
        type            processor;
        value           nonuniform List<scalar> 
50
(
-0.0137177
-0.0139063
-0.0140956
-0.0142857
-0.0144764
-0.0146678
-0.0148599
-0.0150528
-0.0152463
-0.0154406
-0.0156355
-0.0158312
-0.0160277
-0.0162248
-0.0164227
-0.0166212
-0.0168206
-0.0170206
-0.0172214
-0.017423
-0.0176252
-0.0178283
-0.018032
-0.0182366
-0.0184418
-0.0186479
-0.0188547
-0.0190622
-0.0192705
-0.0194796
-0.0196895
-0.0199001
-0.0201115
-0.0203237
-0.0205367
-0.0207504
-0.0209649
-0.0211803
-0.0213964
-0.0216133
-0.021831
-0.0220495
-0.0222689
-0.022489
-0.0227099
-0.0229317
-0.0231543
-0.0233777
-0.0236019
-0.0238269
)
;
    }
    procBoundary4to2
    {
        type            processor;
        value           nonuniform List<scalar> 
75
(
0.0291877
0.0371786
-0.0196602
0.104429
-0.650262
-0.0848509
0.0228894
0.00731299
-0.00504629
-0.00764775
-0.00722616
-0.00692309
-0.00699662
-0.00718378
-0.00736644
-0.0075351
-0.00770006
-0.00786585
-0.00803282
-0.00820057
-0.00836892
-0.00853788
-0.00870745
-0.00887765
-0.00904847
-0.00921993
-0.00939201
-0.00956473
-0.00973809
-0.00991208
-0.0100867
-0.010262
-0.0104379
-0.0106145
-0.0107917
-0.0109696
-0.0111481
-0.0113273
-0.0115072
-0.0116877
-0.0118688
-0.0120507
-0.0122332
-0.0124164
-0.0126002
-0.0127848
-0.01297
-0.0131559
-0.0133425
-0.0135297
-0.0796243
-0.0800557
-0.0804887
-0.0809233
-0.0813594
-0.0817972
-0.0822366
-0.0826776
-0.0831203
-0.0835645
-0.0840104
-0.084458
-0.0849072
-0.085358
-0.0858105
-0.0862647
-0.0867205
-0.0871781
-0.0876373
-0.0880982
-0.0885608
-0.0890251
-0.0894911
-0.0899588
-0.0904281
)
;
    }
    procBoundary4to3
    {
        type            processor;
        value           uniform -0.024041;
    }
    procBoundary4to5
    {
        type            processor;
        value           uniform -0.0791938;
    }
    procBoundary4to6
    {
        type            processor;
        value           nonuniform List<scalar> 
75
(
-0.00919572
-0.00936789
-0.0095407
-0.00971414
-0.00988822
-0.0100629
-0.0102383
-0.0104143
-0.010591
-0.0107683
-0.0109462
-0.0111248
-0.0113041
-0.0114841
-0.0116646
-0.0118459
-0.0120278
-0.0122104
-0.0123937
-0.0125776
-0.0127623
-0.0129476
-0.0131336
-0.0133202
-0.0135076
-0.0136956
-0.0138844
-0.0140738
-0.0142639
-0.0144548
-0.0146463
-0.0148385
-0.0150315
-0.0152251
-0.0154195
-0.0156146
-0.0158104
-0.0160069
-0.0162042
-0.0164021
-0.0166009
-0.0168003
-0.0170005
-0.0172014
-0.017403
-0.0176054
-0.0178085
-0.0180124
-0.018217
-0.0184224
-0.0186286
-0.0188355
-0.0190431
-0.0192516
-0.0194608
-0.0196707
-0.0198815
-0.020093
-0.0203053
-0.0205183
-0.0207322
-0.0209468
-0.0211623
-0.0213785
-0.0215955
-0.0218133
-0.022032
-0.0222514
-0.0224716
-0.0226927
-0.0229145
-0.0231372
-0.0233607
-0.023585
-0.0238102
)
;
    }
    procBoundary4to7
    {
        type            processor;
        value           nonuniform List<scalar> 
50
(
0.0301901
0.0383404
-0.0193373
0.108356
-0.661695
-0.0863213
0.0232737
0.00749582
-0.00500495
-0.00763467
-0.00720613
-0.0068978
-0.00697044
-0.007158
-0.00734098
-0.00750979
-0.00767486
-0.00784075
-0.00800784
-0.0081757
-0.00834418
-0.00851325
-0.00868293
-0.00885324
-0.00902417
-0.0796222
-0.0800536
-0.0804867
-0.0809213
-0.0813575
-0.0817953
-0.0822347
-0.0826758
-0.0831185
-0.0835628
-0.0840087
-0.0844563
-0.0849055
-0.0853564
-0.0858089
-0.0862631
-0.086719
-0.0871766
-0.0876358
-0.0880967
-0.0885594
-0.0890237
-0.0894897
-0.0899575
-0.090427
)
;
    }
}


// ************************************************************************* //
