/*--------------------------------*- C++ -*----------------------------------*\
| =========                 |                                                 |
| \\      /  F ield         | OpenFOAM: The Open Source CFD Toolbox           |
|  \\    /   O peration     | Version:  2.4.0                                 |
|   \\  /    A nd           | Web:      www.OpenFOAM.org                      |
|    \\/     M anipulation  |                                                 |
\*---------------------------------------------------------------------------*/
FoamFile
{
    version     2.0;
    format      ascii;
    class       volScalarField;
    location    "0.015";
    object      T;
}
// * * * * * * * * * * * * * * * * * * * * * * * * * * * * * * * * * * * * * //

dimensions      [0 0 0 1 0 0 0];

internalField   nonuniform List<scalar> 
125
(
293.502
294.508
295.52
296.539
297.95
297.95
297.949
297.949
297.948
297.948
297.948
297.948
297.948
297.948
297.948
297.948
297.948
297.949
297.949
297.95
297.95
297.951
297.951
297.952
297.953
297.953
297.954
297.955
297.956
297.957
297.958
297.959
297.96
297.961
297.962
297.963
297.964
297.965
297.966
297.967
297.968
297.969
297.97
297.971
297.972
297.973
297.974
297.975
297.976
297.977
297.978
297.979
297.98
297.981
297.982
297.983
297.983
297.984
297.985
297.986
297.986
297.987
297.988
297.988
297.989
297.99
297.99
297.991
297.991
297.992
297.992
297.993
297.993
297.993
297.994
297.994
297.994
297.995
297.995
297.995
297.996
297.996
297.996
297.996
297.997
297.997
297.997
297.997
297.997
297.997
297.998
297.998
297.998
297.998
297.998
297.998
297.998
297.998
297.999
297.999
298
298
298
298
298
298
298
298
298
298
298
298
298
298
298
298
298
298
298
298
298
298
298
298
298
)
;

boundaryField
{
    BotWall
    {
        type            fixedValue;
        value           uniform 293;
    }
    FreeStream
    {
        type            fixedValue;
        value           uniform 298;
    }
    FrontNBack
    {
        type            empty;
    }
    LeftSide
    {
        type            symmetryPlane;
    }
    RightSide
    {
        type            symmetryPlane;
    }
    procBoundary4to1
    {
        type            processor;
        value           nonuniform List<scalar> 
50
(
297.978
297.979
297.98
297.981
297.982
297.983
297.983
297.984
297.985
297.986
297.986
297.987
297.988
297.988
297.989
297.99
297.99
297.991
297.991
297.992
297.992
297.993
297.993
297.993
297.994
297.994
297.995
297.995
297.995
297.995
297.996
297.996
297.996
297.996
297.997
297.997
297.997
297.997
297.997
297.998
297.998
297.998
297.998
297.998
297.998
297.998
297.998
297.998
297.999
297.999
)
;
    }
    procBoundary4to2
    {
        type            processor;
        value           nonuniform List<scalar> 
75
(
293.501
294.506
295.516
296.534
297.949
297.949
297.948
297.948
297.947
297.947
297.947
297.947
297.947
297.947
297.947
297.947
297.947
297.948
297.948
297.948
297.949
297.95
297.95
297.951
297.952
297.952
297.953
297.954
297.955
297.956
297.957
297.958
297.959
297.96
297.961
297.962
297.963
297.964
297.965
297.967
297.968
297.969
297.97
297.971
297.972
297.973
297.974
297.975
297.976
297.977
298
298
298
298
298
298
298
298
298
298
298
298
298
298
298
298
298
298
298
298
298
298
298
298
298
)
;
    }
    procBoundary4to3
    {
        type            processor;
        value           uniform 297.999;
    }
    procBoundary4to5
    {
        type            processor;
        value           uniform 298;
    }
    procBoundary4to6
    {
        type            processor;
        value           nonuniform List<scalar> 
75
(
297.953
297.954
297.955
297.956
297.957
297.958
297.959
297.96
297.961
297.962
297.963
297.964
297.965
297.966
297.967
297.968
297.969
297.97
297.971
297.972
297.973
297.974
297.975
297.976
297.977
297.978
297.979
297.98
297.981
297.982
297.983
297.983
297.984
297.985
297.986
297.986
297.987
297.988
297.988
297.989
297.99
297.99
297.991
297.991
297.992
297.992
297.993
297.993
297.993
297.994
297.994
297.994
297.995
297.995
297.995
297.996
297.996
297.996
297.996
297.997
297.997
297.997
297.997
297.997
297.997
297.998
297.998
297.998
297.998
297.998
297.998
297.998
297.998
297.999
297.999
)
;
    }
    procBoundary4to7
    {
        type            processor;
        value           nonuniform List<scalar> 
50
(
293.502
294.508
295.52
296.54
297.95
297.95
297.949
297.949
297.949
297.948
297.948
297.948
297.948
297.948
297.948
297.948
297.948
297.949
297.949
297.95
297.95
297.951
297.951
297.952
297.953
298
298
298
298
298
298
298
298
298
298
298
298
298
298
298
298
298
298
298
298
298
298
298
298
298
)
;
    }
}


// ************************************************************************* //
