/*--------------------------------*- C++ -*----------------------------------*\
| =========                 |                                                 |
| \\      /  F ield         | OpenFOAM: The Open Source CFD Toolbox           |
|  \\    /   O peration     | Version:  2.4.0                                 |
|   \\  /    A nd           | Web:      www.OpenFOAM.org                      |
|    \\/     M anipulation  |                                                 |
\*---------------------------------------------------------------------------*/
FoamFile
{
    version     2.0;
    format      ascii;
    class       volVectorField;
    location    "0.015";
    object      U;
}
// * * * * * * * * * * * * * * * * * * * * * * * * * * * * * * * * * * * * * //

dimensions      [0 1 -1 0 0 0 0];

internalField   nonuniform List<vector> 
125
(
(1.48473e-07 -1.77401e-05 0)
(4.72518e-07 4.8537e-05 0)
(8.27384e-07 -0.000141454 0)
(1.19247e-06 0.000547741 0)
(1.88737e-06 -0.00227906 0)
(2.37586e-06 -0.0180025 0)
(3.46522e-06 -0.0210552 0)
(4.75636e-06 -0.0168164 0)
(6.03589e-06 -0.0159664 0)
(7.26994e-06 -0.0160388 0)
(8.44918e-06 -0.0161769 0)
(9.57665e-06 -0.0162122 0)
(1.06534e-05 -0.0162086 0)
(1.16791e-05 -0.0162032 0)
(1.26529e-05 -0.0162018 0)
(1.35745e-05 -0.0162019 0)
(1.44436e-05 -0.016202 0)
(1.526e-05 -0.016202 0)
(1.60238e-05 -0.0162019 0)
(1.67351e-05 -0.0162019 0)
(1.73942e-05 -0.0162018 0)
(1.80014e-05 -0.0162017 0)
(1.85573e-05 -0.0162017 0)
(1.90624e-05 -0.0162016 0)
(1.95177e-05 -0.0162015 0)
(1.99238e-05 -0.0162014 0)
(2.02819e-05 -0.0162013 0)
(2.0593e-05 -0.0162013 0)
(2.08582e-05 -0.0162012 0)
(2.1079e-05 -0.0162011 0)
(2.12566e-05 -0.016201 0)
(2.13925e-05 -0.0162009 0)
(2.14883e-05 -0.0162008 0)
(2.15455e-05 -0.0162007 0)
(2.15659e-05 -0.0162007 0)
(2.15511e-05 -0.0162006 0)
(2.15029e-05 -0.0162005 0)
(2.14231e-05 -0.0162004 0)
(2.13136e-05 -0.0162003 0)
(2.11762e-05 -0.0162002 0)
(2.10128e-05 -0.0162001 0)
(2.08252e-05 -0.0162 0)
(2.06154e-05 -0.0161999 0)
(2.03851e-05 -0.0161999 0)
(2.01363e-05 -0.0161998 0)
(1.98708e-05 -0.0161997 0)
(1.95903e-05 -0.0161996 0)
(1.92966e-05 -0.0161995 0)
(1.89914e-05 -0.0161994 0)
(1.86764e-05 -0.0161993 0)
(1.83532e-05 -0.0161993 0)
(1.80232e-05 -0.0161992 0)
(1.7688e-05 -0.0161991 0)
(1.7349e-05 -0.016199 0)
(1.70076e-05 -0.0161989 0)
(1.66648e-05 -0.0161989 0)
(1.6322e-05 -0.0161988 0)
(1.59803e-05 -0.0161987 0)
(1.56406e-05 -0.0161986 0)
(1.53039e-05 -0.0161986 0)
(1.4971e-05 -0.0161985 0)
(1.46428e-05 -0.0161984 0)
(1.43198e-05 -0.0161984 0)
(1.40028e-05 -0.0161983 0)
(1.36923e-05 -0.0161982 0)
(1.33886e-05 -0.0161982 0)
(1.30923e-05 -0.0161981 0)
(1.28036e-05 -0.0161981 0)
(1.25227e-05 -0.016198 0)
(1.225e-05 -0.0161979 0)
(1.19855e-05 -0.0161979 0)
(1.17293e-05 -0.0161978 0)
(1.14814e-05 -0.0161978 0)
(1.12419e-05 -0.0161977 0)
(1.10106e-05 -0.0161977 0)
(1.07875e-05 -0.0161976 0)
(1.05725e-05 -0.0161976 0)
(1.03653e-05 -0.0161975 0)
(1.01658e-05 -0.0161975 0)
(9.97384e-06 -0.0161974 0)
(9.78913e-06 -0.0161974 0)
(9.61144e-06 -0.0161973 0)
(9.44053e-06 -0.0161973 0)
(9.27613e-06 -0.0161972 0)
(9.11797e-06 -0.0161972 0)
(8.96579e-06 -0.0161971 0)
(8.81931e-06 -0.0161971 0)
(8.67825e-06 -0.016197 0)
(8.54236e-06 -0.016197 0)
(8.41136e-06 -0.016197 0)
(8.285e-06 -0.0161969 0)
(8.16302e-06 -0.0161969 0)
(8.04519e-06 -0.0161968 0)
(7.93127e-06 -0.0161968 0)
(7.82104e-06 -0.0161968 0)
(7.71429e-06 -0.0161967 0)
(7.6108e-06 -0.0161967 0)
(7.5104e-06 -0.0161966 0)
(7.41289e-06 -0.0161966 0)
(7.31812e-06 -0.0161966 0)
(5.30707e-06 -0.0161936 0)
(5.39183e-06 -0.0161937 0)
(5.47636e-06 -0.0161937 0)
(5.56037e-06 -0.0161938 0)
(5.64357e-06 -0.0161938 0)
(5.72561e-06 -0.0161939 0)
(5.80611e-06 -0.0161939 0)
(5.88466e-06 -0.016194 0)
(5.96085e-06 -0.016194 0)
(6.03425e-06 -0.0161941 0)
(6.10442e-06 -0.0161941 0)
(6.17096e-06 -0.0161942 0)
(6.23348e-06 -0.0161942 0)
(6.29162e-06 -0.0161943 0)
(6.34509e-06 -0.0161944 0)
(6.39362e-06 -0.0161944 0)
(6.43703e-06 -0.0161945 0)
(6.47519e-06 -0.0161945 0)
(6.50806e-06 -0.0161946 0)
(6.53564e-06 -0.0161947 0)
(6.55803e-06 -0.0161947 0)
(6.5754e-06 -0.0161948 0)
(6.58797e-06 -0.0161949 0)
(6.59609e-06 -0.016195 0)
(6.60014e-06 -0.016195 0)
)
;

boundaryField
{
    BotWall
    {
        type            fixedValue;
        value           uniform (0 0 0);
    }
    FreeStream
    {
        type            zeroGradient;
    }
    FrontNBack
    {
        type            empty;
    }
    LeftSide
    {
        type            symmetryPlane;
    }
    RightSide
    {
        type            symmetryPlane;
    }
    procBoundary4to1
    {
        type            processor;
        value           nonuniform List<vector> 
50
(
(1.34752e-05 -0.0161827 0)
(1.32204e-05 -0.0161828 0)
(1.29618e-05 -0.0161829 0)
(1.27004e-05 -0.016183 0)
(1.24374e-05 -0.016183 0)
(1.21736e-05 -0.0161831 0)
(1.19099e-05 -0.0161832 0)
(1.16473e-05 -0.0161833 0)
(1.13865e-05 -0.0161834 0)
(1.11282e-05 -0.0161834 0)
(1.08731e-05 -0.0161835 0)
(1.06219e-05 -0.0161836 0)
(1.0375e-05 -0.0161837 0)
(1.01329e-05 -0.0161837 0)
(9.89614e-06 -0.0161838 0)
(9.665e-06 -0.0161839 0)
(9.43982e-06 -0.0161839 0)
(9.22087e-06 -0.016184 0)
(9.00835e-06 -0.0161841 0)
(8.80243e-06 -0.0161841 0)
(8.60323e-06 -0.0161842 0)
(8.41082e-06 -0.0161842 0)
(8.22524e-06 -0.0161843 0)
(8.04648e-06 -0.0161844 0)
(7.87452e-06 -0.0161844 0)
(7.70927e-06 -0.0161845 0)
(7.55066e-06 -0.0161845 0)
(7.39857e-06 -0.0161846 0)
(7.25285e-06 -0.0161846 0)
(7.11335e-06 -0.0161847 0)
(6.97989e-06 -0.0161847 0)
(6.8523e-06 -0.0161848 0)
(6.73037e-06 -0.0161848 0)
(6.6139e-06 -0.0161849 0)
(6.50268e-06 -0.0161849 0)
(6.39651e-06 -0.016185 0)
(6.29515e-06 -0.016185 0)
(6.19841e-06 -0.0161851 0)
(6.10606e-06 -0.0161851 0)
(6.0179e-06 -0.0161852 0)
(5.93373e-06 -0.0161852 0)
(5.85333e-06 -0.0161853 0)
(5.77652e-06 -0.0161853 0)
(5.70312e-06 -0.0161854 0)
(5.63293e-06 -0.0161854 0)
(5.56579e-06 -0.0161854 0)
(5.50153e-06 -0.0161855 0)
(5.44e-06 -0.0161855 0)
(5.38104e-06 -0.0161856 0)
(5.32453e-06 -0.0161856 0)
)
;
    }
    procBoundary4to2
    {
        type            processor;
        value           nonuniform List<vector> 
75
(
(1.25943e-07 -1.74459e-05 0)
(4.0658e-07 4.77375e-05 0)
(7.19419e-07 -0.000138711 0)
(1.04568e-06 0.000536969 0)
(1.68391e-06 -0.0022669 0)
(2.07997e-06 -0.0180245 0)
(2.8191e-06 -0.0209691 0)
(3.75944e-06 -0.016788 0)
(4.69876e-06 -0.0159457 0)
(5.6052e-06 -0.0160176 0)
(6.47006e-06 -0.0161542 0)
(7.29643e-06 -0.0161892 0)
(8.08547e-06 -0.0161857 0)
(8.83689e-06 -0.0161805 0)
(9.55018e-06 -0.0161792 0)
(1.0225e-05 -0.0161794 0)
(1.0861e-05 -0.0161796 0)
(1.14583e-05 -0.0161797 0)
(1.20167e-05 -0.0161798 0)
(1.25363e-05 -0.0161799 0)
(1.30174e-05 -0.0161799 0)
(1.34601e-05 -0.01618 0)
(1.38649e-05 -0.0161801 0)
(1.42322e-05 -0.0161802 0)
(1.45625e-05 -0.0161803 0)
(1.48565e-05 -0.0161803 0)
(1.51148e-05 -0.0161804 0)
(1.53383e-05 -0.0161805 0)
(1.55278e-05 -0.0161806 0)
(1.56842e-05 -0.0161807 0)
(1.58085e-05 -0.0161808 0)
(1.59018e-05 -0.0161809 0)
(1.59652e-05 -0.016181 0)
(1.59999e-05 -0.0161811 0)
(1.60071e-05 -0.0161812 0)
(1.5988e-05 -0.0161813 0)
(1.59441e-05 -0.0161814 0)
(1.58765e-05 -0.0161815 0)
(1.57866e-05 -0.0161816 0)
(1.56759e-05 -0.0161817 0)
(1.55457e-05 -0.0161818 0)
(1.53974e-05 -0.0161819 0)
(1.52324e-05 -0.016182 0)
(1.50521e-05 -0.0161821 0)
(1.48578e-05 -0.0161822 0)
(1.46511e-05 -0.0161822 0)
(1.44331e-05 -0.0161823 0)
(1.42053e-05 -0.0161824 0)
(1.39688e-05 -0.0161825 0)
(1.37251e-05 -0.0161826 0)
(-4.40601e-06 -0.016194 0)
(-4.52102e-06 -0.016194 0)
(-4.6362e-06 -0.0161941 0)
(-4.75117e-06 -0.0161941 0)
(-4.86547e-06 -0.0161941 0)
(-4.97859e-06 -0.0161942 0)
(-5.08999e-06 -0.0161942 0)
(-5.19905e-06 -0.0161942 0)
(-5.30515e-06 -0.0161943 0)
(-5.40764e-06 -0.0161943 0)
(-5.50588e-06 -0.0161944 0)
(-5.59926e-06 -0.0161944 0)
(-5.68717e-06 -0.0161944 0)
(-5.76909e-06 -0.0161945 0)
(-5.84453e-06 -0.0161945 0)
(-5.91312e-06 -0.0161946 0)
(-5.97453e-06 -0.0161946 0)
(-6.02858e-06 -0.0161947 0)
(-6.07516e-06 -0.0161947 0)
(-6.11427e-06 -0.0161948 0)
(-6.14602e-06 -0.0161948 0)
(-6.17063e-06 -0.0161949 0)
(-6.18843e-06 -0.0161949 0)
(-6.19986e-06 -0.016195 0)
(-6.20544e-06 -0.016195 0)
)
;
    }
    procBoundary4to3
    {
        type            processor;
        value           uniform (7.22591e-06 -0.0161965 0);
    }
    procBoundary4to5
    {
        type            processor;
        value           uniform (5.22228e-06 -0.0161936 0);
    }
    procBoundary4to6
    {
        type            processor;
        value           nonuniform List<vector> 
75
(
(-1.6987e-05 -0.0162026 0)
(-1.73052e-05 -0.0162026 0)
(-1.75845e-05 -0.0162025 0)
(-1.78258e-05 -0.0162024 0)
(-1.80303e-05 -0.0162023 0)
(-1.8199e-05 -0.0162022 0)
(-1.8333e-05 -0.0162021 0)
(-1.84338e-05 -0.016202 0)
(-1.85024e-05 -0.0162019 0)
(-1.85402e-05 -0.0162018 0)
(-1.85487e-05 -0.0162017 0)
(-1.85292e-05 -0.0162016 0)
(-1.84831e-05 -0.0162015 0)
(-1.84119e-05 -0.0162014 0)
(-1.8317e-05 -0.0162013 0)
(-1.81999e-05 -0.0162012 0)
(-1.80621e-05 -0.0162011 0)
(-1.79051e-05 -0.016201 0)
(-1.77303e-05 -0.0162009 0)
(-1.75392e-05 -0.0162008 0)
(-1.73331e-05 -0.0162007 0)
(-1.71136e-05 -0.0162006 0)
(-1.6882e-05 -0.0162005 0)
(-1.66397e-05 -0.0162004 0)
(-1.63879e-05 -0.0162003 0)
(-1.61279e-05 -0.0162002 0)
(-1.58609e-05 -0.0162002 0)
(-1.55881e-05 -0.0162001 0)
(-1.53107e-05 -0.0162 0)
(-1.50297e-05 -0.0161999 0)
(-1.4746e-05 -0.0161998 0)
(-1.44607e-05 -0.0161997 0)
(-1.41746e-05 -0.0161996 0)
(-1.38885e-05 -0.0161995 0)
(-1.36033e-05 -0.0161994 0)
(-1.33196e-05 -0.0161994 0)
(-1.3038e-05 -0.0161993 0)
(-1.27593e-05 -0.0161992 0)
(-1.24837e-05 -0.0161991 0)
(-1.22119e-05 -0.016199 0)
(-1.19443e-05 -0.016199 0)
(-1.16812e-05 -0.0161989 0)
(-1.14229e-05 -0.0161988 0)
(-1.11696e-05 -0.0161987 0)
(-1.09216e-05 -0.0161987 0)
(-1.0679e-05 -0.0161986 0)
(-1.0442e-05 -0.0161985 0)
(-1.02105e-05 -0.0161984 0)
(-9.98479e-06 -0.0161984 0)
(-9.76473e-06 -0.0161983 0)
(-9.55032e-06 -0.0161982 0)
(-9.34154e-06 -0.0161982 0)
(-9.13831e-06 -0.0161981 0)
(-8.94053e-06 -0.016198 0)
(-8.74811e-06 -0.016198 0)
(-8.56092e-06 -0.0161979 0)
(-8.37882e-06 -0.0161978 0)
(-8.20166e-06 -0.0161978 0)
(-8.02931e-06 -0.0161977 0)
(-7.86158e-06 -0.0161977 0)
(-7.69832e-06 -0.0161976 0)
(-7.53936e-06 -0.0161975 0)
(-7.38453e-06 -0.0161975 0)
(-7.23367e-06 -0.0161974 0)
(-7.08661e-06 -0.0161974 0)
(-6.94319e-06 -0.0161973 0)
(-6.80326e-06 -0.0161973 0)
(-6.66665e-06 -0.0161972 0)
(-6.53323e-06 -0.0161971 0)
(-6.40284e-06 -0.0161971 0)
(-6.27537e-06 -0.016197 0)
(-6.15067e-06 -0.016197 0)
(-6.02864e-06 -0.0161969 0)
(-5.90915e-06 -0.0161969 0)
(-5.7921e-06 -0.0161968 0)
)
;
    }
    procBoundary4to7
    {
        type            processor;
        value           nonuniform List<vector> 
50
(
(-1.18288e-07 -1.7756e-05 0)
(-3.77403e-07 4.85801e-05 0)
(-6.5934e-07 -0.000141604 0)
(-9.53814e-07 0.000548323 0)
(-1.51503e-06 -0.00227972 0)
(-1.92645e-06 -0.0180013 0)
(-2.87425e-06 -0.0210598 0)
(-3.97956e-06 -0.0168179 0)
(-5.07223e-06 -0.0159675 0)
(-6.12535e-06 -0.01604 0)
(-7.1316e-06 -0.0161781 0)
(-8.09359e-06 -0.0162135 0)
(-9.01233e-06 -0.0162098 0)
(-9.88764e-06 -0.0162044 0)
(-1.07191e-05 -0.016203 0)
(-1.15066e-05 -0.0162031 0)
(-1.22499e-05 -0.0162033 0)
(-1.2949e-05 -0.0162033 0)
(-1.36042e-05 -0.0162032 0)
(-1.42156e-05 -0.0162031 0)
(-1.47834e-05 -0.016203 0)
(-1.53082e-05 -0.016203 0)
(-1.57903e-05 -0.0162029 0)
(-1.62303e-05 -0.0162028 0)
(-1.6629e-05 -0.0162027 0)
(2.50548e-06 -0.0161906 0)
(2.57502e-06 -0.0161905 0)
(2.64416e-06 -0.0161905 0)
(2.71271e-06 -0.0161904 0)
(2.78042e-06 -0.0161904 0)
(2.84706e-06 -0.0161903 0)
(2.91232e-06 -0.0161902 0)
(2.97591e-06 -0.0161901 0)
(3.03751e-06 -0.0161901 0)
(3.09679e-06 -0.01619 0)
(3.15344e-06 -0.0161899 0)
(3.20713e-06 -0.0161899 0)
(3.25757e-06 -0.0161898 0)
(3.30449e-06 -0.0161897 0)
(3.34765e-06 -0.0161896 0)
(3.38686e-06 -0.0161896 0)
(3.42196e-06 -0.0161895 0)
(3.45286e-06 -0.0161894 0)
(3.47951e-06 -0.0161893 0)
(3.5019e-06 -0.0161892 0)
(3.52012e-06 -0.0161892 0)
(3.53427e-06 -0.0161891 0)
(3.54453e-06 -0.016189 0)
(3.55113e-06 -0.0161889 0)
(3.55434e-06 -0.0161888 0)
)
;
    }
}


// ************************************************************************* //
