/*--------------------------------*- C++ -*----------------------------------*\
| =========                 |                                                 |
| \\      /  F ield         | OpenFOAM: The Open Source CFD Toolbox           |
|  \\    /   O peration     | Version:  2.4.0                                 |
|   \\  /    A nd           | Web:      www.OpenFOAM.org                      |
|    \\/     M anipulation  |                                                 |
\*---------------------------------------------------------------------------*/
FoamFile
{
    version     2.0;
    format      ascii;
    class       volScalarField;
    location    "0.4";
    object      H;
}
// * * * * * * * * * * * * * * * * * * * * * * * * * * * * * * * * * * * * * //

dimensions      [0 2 -2 0 0 0 0];

internalField   nonuniform List<scalar> 
500
(
-11484.8
-11484.8
-11484.8
-11484.8
-11484.8
-9985.64
-9985.63
-9985.63
-9985.63
-9985.64
-8468.67
-8468.66
-8468.67
-8468.67
-8468.68
-6932.9
-6932.88
-6932.88
-6932.88
-6932.9
-5377.28
-5377.26
-5377.26
-5377.26
-5377.28
-3800.77
-3800.75
-3800.75
-3800.75
-3800.77
-2202.26
-2202.24
-2202.24
-2202.24
-2202.27
-65.7362
-65.7326
-65.733
-65.7327
-65.7366
-49.5757
-49.573
-49.5733
-49.5731
-49.5761
-50.2763
-50.2736
-50.2739
-50.2737
-50.2767
-50.932
-50.9293
-50.9296
-50.9294
-50.9324
-51.5416
-51.5389
-51.5392
-51.539
-51.5419
-52.1038
-52.1011
-52.1014
-52.1012
-52.1041
-52.6175
-52.6149
-52.6151
-52.615
-52.6179
-53.0816
-53.079
-53.0793
-53.0791
-53.082
-53.4951
-53.4926
-53.4928
-53.4927
-53.4955
-53.8571
-53.8546
-53.8548
-53.8547
-53.8575
-54.1667
-54.1641
-54.1644
-54.1643
-54.167
-54.423
-54.4205
-54.4208
-54.4207
-54.4234
-54.6255
-54.623
-54.6233
-54.6232
-54.6259
-54.7735
-54.7711
-54.7713
-54.7713
-54.7739
-54.8666
-54.8642
-54.8645
-54.8644
-54.867
-54.9044
-54.9021
-54.9023
-54.9022
-54.9047
-54.8866
-54.8843
-54.8845
-54.8844
-54.8869
-54.8131
-54.8108
-54.811
-54.811
-54.8134
-54.6838
-54.6817
-54.6819
-54.6818
-54.6842
-54.499
-54.4969
-54.4971
-54.497
-54.4994
-54.2588
-54.2568
-54.2569
-54.2569
-54.2592
-53.9637
-53.9616
-53.9618
-53.9618
-53.964
-53.614
-53.6121
-53.6122
-53.6122
-53.6144
-53.2106
-53.2087
-53.2089
-53.2088
-53.2109
-52.7541
-52.7523
-52.7525
-52.7524
-52.7545
-52.2456
-52.2439
-52.244
-52.244
-52.246
-51.6862
-51.6845
-51.6846
-51.6846
-51.6865
-51.077
-51.0753
-51.0755
-51.0755
-51.0773
-50.4194
-50.4178
-50.418
-50.4179
-50.4197
-49.715
-49.7135
-49.7136
-49.7136
-49.7153
-48.9654
-48.9639
-48.964
-48.964
-48.9656
-48.1723
-48.1709
-48.1711
-48.171
-48.1726
-47.3378
-47.3364
-47.3366
-47.3366
-47.338
-46.4638
-46.4625
-46.4626
-46.4626
-46.464
-45.5524
-45.5512
-45.5514
-45.5514
-45.5527
-44.6061
-44.605
-44.6051
-44.6051
-44.6063
-43.6271
-43.626
-43.6262
-43.6261
-43.6273
-42.6179
-42.6169
-42.617
-42.617
-42.6181
-41.5811
-41.5801
-41.5803
-41.5802
-41.5813
-40.5192
-40.5184
-40.5185
-40.5185
-40.5194
-39.4351
-39.4343
-39.4344
-39.4344
-39.4353
-38.3314
-38.3306
-38.3308
-38.3307
-38.3316
-37.2109
-37.2102
-37.2104
-37.2103
-37.2111
-36.0765
-36.0759
-36.076
-36.076
-36.0767
-34.931
-34.9304
-34.9305
-34.9305
-34.9311
-33.7772
-33.7766
-33.7768
-33.7767
-33.7773
-32.6179
-32.6174
-32.6175
-32.6175
-32.618
-31.456
-31.4556
-31.4557
-31.4556
-31.4561
-30.2942
-30.2938
-30.2939
-30.2939
-30.2943
-29.1352
-29.1349
-29.1349
-29.1349
-29.1353
-27.9816
-27.9813
-27.9814
-27.9814
-27.9817
-26.8361
-26.8358
-26.8359
-26.8359
-26.8362
-25.701
-25.7008
-25.7009
-25.7009
-25.7011
-24.5788
-24.5786
-24.5787
-24.5787
-24.5789
-23.4716
-23.4715
-23.4716
-23.4715
-23.4717
-22.3817
-22.3816
-22.3817
-22.3816
-22.3818
-21.3109
-21.3108
-21.3109
-21.3109
-21.311
-20.2612
-20.2611
-20.2612
-20.2612
-20.2612
-19.2341
-19.2341
-19.2342
-19.2341
-19.2342
-18.2313
-18.2313
-18.2314
-18.2313
-18.2314
-17.2541
-17.2541
-17.2542
-17.2541
-17.2541
-16.3037
-16.3037
-16.3037
-16.3037
-16.3037
-15.381
-15.3811
-15.3811
-15.3811
-15.3811
-14.4871
-14.4871
-14.4872
-14.4872
-14.4871
-13.6225
-13.6225
-13.6226
-13.6226
-13.6225
-12.7877
-12.7878
-12.7879
-12.7878
-12.7878
-11.9832
-11.9833
-11.9834
-11.9833
-11.9833
-11.2092
-11.2092
-11.2093
-11.2093
-11.2092
-10.4656
-10.4656
-10.4657
-10.4657
-10.4656
-9.75231
-9.75241
-9.75244
-9.75243
-9.75235
-9.0692
-9.06929
-9.06933
-9.06932
-9.06923
-8.41585
-8.41594
-8.41597
-8.41596
-8.41588
-7.79177
-7.79186
-7.79189
-7.79188
-7.7918
-7.19637
-7.19646
-7.19649
-7.19648
-7.1964
-6.62895
-6.62904
-6.62907
-6.62906
-6.62898
-6.08875
-6.08883
-6.08885
-6.08885
-6.08877
-5.5749
-5.57498
-5.575
-5.575
-5.57492
-5.0865
-5.08657
-5.08659
-5.08659
-5.08652
-4.62257
-4.62264
-4.62265
-4.62265
-4.62259
-4.18211
-4.18217
-4.18219
-4.18219
-4.18213
-3.76408
-3.76414
-3.76416
-3.76416
-3.7641
-3.36743
-3.36749
-3.3675
-3.3675
-3.36745
-2.99109
-2.99114
-2.99115
-2.99115
-2.99111
-2.63399
-2.63403
-2.63404
-2.63404
-2.63401
-2.29506
-2.2951
-2.29511
-2.29511
-2.29507
-1.97324
-1.97327
-1.97328
-1.97328
-1.97325
-1.6675
-1.66753
-1.66753
-1.66754
-1.66751
-1.37682
-1.37684
-1.37684
-1.37685
-1.37682
-1.10019
-1.10021
-1.10022
-1.10022
-1.1002
-0.836667
-0.836681
-0.836684
-0.836685
-0.836672
-0.585292
-0.585302
-0.585304
-0.585305
-0.585296
-0.345158
-0.345164
-0.345165
-0.345166
-0.34516
-0.115381
-0.115383
-0.115384
-0.115384
-0.115382
)
;

boundaryField
{
    BotWall
    {
        type            zeroGradient;
    }
    FreeStream
    {
        type            zeroGradient;
    }
    FrontNBack
    {
        type            empty;
    }
    LeftSide
    {
        type            symmetryPlane;
    }
    RightSide
    {
        type            symmetryPlane;
    }
}


// ************************************************************************* //
