/*--------------------------------*- C++ -*----------------------------------*\
| =========                 |                                                 |
| \\      /  F ield         | OpenFOAM: The Open Source CFD Toolbox           |
|  \\    /   O peration     | Version:  2.4.0                                 |
|   \\  /    A nd           | Web:      www.OpenFOAM.org                      |
|    \\/     M anipulation  |                                                 |
\*---------------------------------------------------------------------------*/
FoamFile
{
    version     2.0;
    format      ascii;
    class       volScalarField;
    location    "0.4";
    object      p;
}
// * * * * * * * * * * * * * * * * * * * * * * * * * * * * * * * * * * * * * //

dimensions      [1 -1 -2 0 0 0 0];

internalField   nonuniform List<scalar> 
500
(
0.188031
0.188021
0.18802
0.188021
0.188031
0.140557
0.140561
0.14056
0.140561
0.140556
0.20607
0.206135
0.206134
0.206135
0.20607
0.625378
0.625533
0.62553
0.625533
0.625375
1.08179
1.08181
1.0818
1.0818
1.08178
-1.44359
-1.4443
-1.4443
-1.4443
-1.44359
-12.7055
-12.707
-12.7069
-12.7069
-12.7054
-25.7029
-25.7033
-25.7032
-25.7033
-25.7027
-0.0201729
-0.0201725
-0.0201725
-0.0201725
-0.020173
-9.89512e-05
-9.94407e-05
-9.94496e-05
-9.94381e-05
-9.89468e-05
-0.00382117
-0.00382109
-0.00382111
-0.00382109
-0.00382117
-0.00601404
-0.00601396
-0.00601398
-0.00601396
-0.00601404
-0.00679752
-0.00679753
-0.00679755
-0.00679753
-0.00679752
-0.00724794
-0.00724798
-0.00724799
-0.00724797
-0.00724794
-0.00775613
-0.00775615
-0.00775617
-0.00775615
-0.00775613
-0.0083247
-0.00832472
-0.00832473
-0.00832472
-0.0083247
-0.00891213
-0.00891214
-0.00891216
-0.00891214
-0.00891213
-0.009504
-0.00950402
-0.00950403
-0.00950402
-0.009504
-0.0101003
-0.0101003
-0.0101004
-0.0101003
-0.0101003
-0.0107028
-0.0107028
-0.0107029
-0.0107028
-0.0107028
-0.0113121
-0.0113121
-0.0113122
-0.0113121
-0.0113121
-0.0119283
-0.0119283
-0.0119283
-0.0119283
-0.0119283
-0.0125514
-0.0125514
-0.0125514
-0.0125514
-0.0125514
-0.0131814
-0.0131814
-0.0131815
-0.0131814
-0.0131814
-0.0138185
-0.0138185
-0.0138185
-0.0138185
-0.0138185
-0.0144627
-0.0144627
-0.0144627
-0.0144627
-0.0144627
-0.015114
-0.015114
-0.015114
-0.015114
-0.015114
-0.0157726
-0.0157727
-0.0157727
-0.0157727
-0.0157726
-0.0164386
-0.0164386
-0.0164386
-0.0164386
-0.0164386
-0.017112
-0.017112
-0.017112
-0.017112
-0.017112
-0.0177929
-0.017793
-0.017793
-0.017793
-0.0177929
-0.0184815
-0.0184815
-0.0184815
-0.0184815
-0.0184815
-0.0191777
-0.0191777
-0.0191777
-0.0191777
-0.0191777
-0.0198816
-0.0198816
-0.0198817
-0.0198816
-0.0198816
-0.0205935
-0.0205935
-0.0205935
-0.0205935
-0.0205935
-0.0213132
-0.0213132
-0.0213132
-0.0213132
-0.0213132
-0.022041
-0.022041
-0.022041
-0.022041
-0.022041
-0.0227769
-0.022777
-0.022777
-0.022777
-0.0227769
-0.0235211
-0.0235211
-0.0235211
-0.0235211
-0.0235211
-0.0242735
-0.0242735
-0.0242735
-0.0242735
-0.0242735
-0.0250343
-0.0250344
-0.0250344
-0.0250344
-0.0250343
-0.0258037
-0.0258037
-0.0258037
-0.0258037
-0.0258037
-0.0265816
-0.0265816
-0.0265816
-0.0265816
-0.0265816
-0.0273682
-0.0273682
-0.0273682
-0.0273682
-0.0273682
-0.0281635
-0.0281636
-0.0281636
-0.0281635
-0.0281635
-0.0289678
-0.0289678
-0.0289678
-0.0289678
-0.0289678
-0.029781
-0.029781
-0.029781
-0.029781
-0.029781
-0.0306033
-0.0306033
-0.0306033
-0.0306033
-0.0306033
-0.0314348
-0.0314348
-0.0314348
-0.0314348
-0.0314348
-0.0322755
-0.0322755
-0.0322755
-0.0322755
-0.0322755
-0.0331256
-0.0331256
-0.0331256
-0.0331256
-0.0331256
-0.0339852
-0.0339853
-0.0339853
-0.0339853
-0.0339852
-0.0348544
-0.0348545
-0.0348545
-0.0348545
-0.0348544
-0.0357334
-0.0357334
-0.0357334
-0.0357334
-0.0357334
-0.0366221
-0.0366221
-0.0366221
-0.0366221
-0.0366221
-0.0375207
-0.0375207
-0.0375207
-0.0375207
-0.0375207
-0.0384294
-0.0384294
-0.0384294
-0.0384294
-0.0384294
-0.0393482
-0.0393482
-0.0393482
-0.0393482
-0.0393482
-0.0402772
-0.0402772
-0.0402772
-0.0402772
-0.0402772
-0.0412166
-0.0412166
-0.0412166
-0.0412166
-0.0412166
-0.0421665
-0.0421665
-0.0421665
-0.0421665
-0.0421665
-0.043127
-0.043127
-0.043127
-0.043127
-0.043127
-0.0440982
-0.0440982
-0.0440983
-0.0440982
-0.0440982
-0.0450803
-0.0450803
-0.0450803
-0.0450803
-0.0450803
-0.0460733
-0.0460733
-0.0460733
-0.0460733
-0.0460733
-0.0470774
-0.0470774
-0.0470774
-0.0470774
-0.0470774
-0.0480927
-0.0480927
-0.0480927
-0.0480927
-0.0480927
-0.0491193
-0.0491193
-0.0491193
-0.0491193
-0.0491193
-0.0501574
-0.0501574
-0.0501574
-0.0501574
-0.0501574
-0.0512071
-0.0512071
-0.0512071
-0.0512071
-0.0512071
-0.0522685
-0.0522685
-0.0522685
-0.0522685
-0.0522685
-0.0533417
-0.0533417
-0.0533417
-0.0533417
-0.0533417
-0.0544269
-0.0544269
-0.0544269
-0.0544269
-0.0544269
-0.0555242
-0.0555242
-0.0555242
-0.0555242
-0.0555242
-0.0566338
-0.0566338
-0.0566338
-0.0566338
-0.0566338
-0.0577557
-0.0577557
-0.0577557
-0.0577557
-0.0577557
-0.0588902
-0.0588902
-0.0588902
-0.0588902
-0.0588902
-0.0600373
-0.0600373
-0.0600373
-0.0600373
-0.0600373
-0.0611972
-0.0611972
-0.0611972
-0.0611972
-0.0611972
-0.0623701
-0.0623701
-0.0623701
-0.0623701
-0.0623701
-0.063556
-0.063556
-0.063556
-0.063556
-0.063556
-0.0647552
-0.0647552
-0.0647552
-0.0647552
-0.0647552
-0.0659678
-0.0659678
-0.0659678
-0.0659678
-0.0659678
-0.0671939
-0.0671939
-0.0671939
-0.0671939
-0.0671939
-0.0684336
-0.0684336
-0.0684336
-0.0684336
-0.0684336
-0.0696873
-0.0696873
-0.0696873
-0.0696873
-0.0696873
-0.0709549
-0.0709549
-0.0709549
-0.0709549
-0.0709549
-0.0722366
-0.0722366
-0.0722366
-0.0722366
-0.0722366
-0.0735327
-0.0735327
-0.0735327
-0.0735327
-0.0735327
-0.0748432
-0.0748432
-0.0748432
-0.0748432
-0.0748432
-0.0761683
-0.0761683
-0.0761683
-0.0761683
-0.0761683
-0.0775082
-0.0775082
-0.0775082
-0.0775082
-0.0775082
-0.0788631
-0.0788631
-0.0788631
-0.0788631
-0.0788631
-0.0802331
-0.0802331
-0.0802331
-0.0802331
-0.0802331
-0.0816184
-0.0816184
-0.0816184
-0.0816184
-0.0816184
-0.0830191
-0.0830191
-0.0830191
-0.0830191
-0.0830191
-0.0844355
-0.0844355
-0.0844355
-0.0844355
-0.0844355
-0.0858677
-0.0858677
-0.0858677
-0.0858677
-0.0858677
-0.0873158
-0.0873158
-0.0873158
-0.0873158
-0.0873158
-0.0887801
-0.0887801
-0.0887801
-0.0887801
-0.0887801
)
;

boundaryField
{
    BotWall
    {
        type            calculated;
        value           nonuniform List<scalar> 5(0.202852 0.202842 0.202841 0.202842 0.202851);
    }
    FreeStream
    {
        type            calculated;
        value           nonuniform List<scalar> 5(-0.0895164 -0.0895164 -0.0895164 -0.0895164 -0.0895164);
    }
    FrontNBack
    {
        type            empty;
    }
    LeftSide
    {
        type            symmetryPlane;
    }
    RightSide
    {
        type            symmetryPlane;
    }
}


// ************************************************************************* //
