/*--------------------------------*- C++ -*----------------------------------*\
| =========                 |                                                 |
| \\      /  F ield         | OpenFOAM: The Open Source CFD Toolbox           |
|  \\    /   O peration     | Version:  2.4.0                                 |
|   \\  /    A nd           | Web:      www.OpenFOAM.org                      |
|    \\/     M anipulation  |                                                 |
\*---------------------------------------------------------------------------*/
FoamFile
{
    version     2.0;
    format      ascii;
    class       volScalarField;
    location    "0.4";
    object      p_rgh;
}
// * * * * * * * * * * * * * * * * * * * * * * * * * * * * * * * * * * * * * //

dimensions      [1 -1 -2 0 0 0 0];

internalField   nonuniform List<scalar> 
500
(
0.202852
0.202842
0.202841
0.202842
0.202851
0.185183
0.185188
0.185187
0.185188
0.185182
0.280835
0.2809
0.280899
0.2809
0.280834
0.730618
0.730773
0.73077
0.730772
0.730614
1.21784
1.21786
1.21786
1.21786
1.21784
-1.27638
-1.27709
-1.27709
-1.27709
-1.27638
-12.5068
-12.5082
-12.5082
-12.5082
-12.5067
-25.6078
-25.6082
-25.6081
-25.6082
-25.6076
-0.0158201
-0.0158197
-0.0158197
-0.0158197
-0.0158201
0.0047934
0.00479291
0.0047929
0.00479291
0.0047934
0.00161674
0.00161681
0.0016168
0.00161681
0.00161674
-2.44959e-05
-2.44171e-05
-2.44314e-05
-2.44163e-05
-2.44972e-05
-0.000250179
-0.000250192
-0.000250206
-0.000250191
-0.00025018
-0.000136578
-0.000136614
-0.000136628
-0.000136613
-0.000136579
-7.44519e-05
-7.4476e-05
-7.44899e-05
-7.44751e-05
-7.44527e-05
-6.63462e-05
-6.63621e-05
-6.6376e-05
-6.63612e-05
-6.63469e-05
-7.06613e-05
-7.06762e-05
-7.069e-05
-7.06752e-05
-7.0662e-05
-7.29132e-05
-7.2929e-05
-7.29428e-05
-7.2928e-05
-7.29138e-05
-7.30374e-05
-7.30537e-05
-7.30675e-05
-7.30527e-05
-7.3038e-05
-7.26798e-05
-7.26961e-05
-7.27098e-05
-7.26951e-05
-7.26804e-05
-7.24039e-05
-7.24201e-05
-7.24337e-05
-7.24191e-05
-7.24045e-05
-7.22097e-05
-7.22257e-05
-7.22392e-05
-7.22246e-05
-7.22101e-05
-7.20318e-05
-7.20478e-05
-7.20612e-05
-7.20467e-05
-7.20323e-05
-7.18485e-05
-7.18644e-05
-7.18777e-05
-7.18633e-05
-7.18489e-05
-7.16598e-05
-7.16755e-05
-7.16888e-05
-7.16745e-05
-7.16602e-05
-7.14683e-05
-7.14839e-05
-7.1497e-05
-7.14828e-05
-7.14686e-05
-7.12747e-05
-7.12901e-05
-7.13031e-05
-7.1289e-05
-7.12749e-05
-7.1079e-05
-7.10943e-05
-7.11072e-05
-7.10932e-05
-7.10792e-05
-7.08812e-05
-7.08963e-05
-7.09091e-05
-7.08952e-05
-7.08814e-05
-7.06811e-05
-7.06961e-05
-7.07087e-05
-7.0695e-05
-7.06812e-05
-7.04788e-05
-7.04936e-05
-7.0506e-05
-7.04925e-05
-7.04789e-05
-7.02742e-05
-7.02888e-05
-7.03011e-05
-7.02877e-05
-7.02742e-05
-7.00672e-05
-7.00817e-05
-7.00938e-05
-7.00806e-05
-7.00672e-05
-6.9858e-05
-6.98722e-05
-6.98842e-05
-6.98711e-05
-6.98579e-05
-6.96464e-05
-6.96604e-05
-6.96722e-05
-6.96593e-05
-6.96463e-05
-6.94324e-05
-6.94462e-05
-6.94578e-05
-6.94451e-05
-6.94323e-05
-6.9216e-05
-6.92296e-05
-6.9241e-05
-6.92285e-05
-6.92158e-05
-6.89971e-05
-6.90106e-05
-6.90218e-05
-6.90094e-05
-6.8997e-05
-6.87758e-05
-6.8789e-05
-6.88001e-05
-6.87879e-05
-6.87756e-05
-6.85521e-05
-6.8565e-05
-6.85759e-05
-6.85639e-05
-6.85518e-05
-6.83258e-05
-6.83385e-05
-6.83492e-05
-6.83374e-05
-6.83255e-05
-6.80969e-05
-6.81095e-05
-6.81199e-05
-6.81083e-05
-6.80966e-05
-6.78655e-05
-6.78778e-05
-6.78881e-05
-6.78767e-05
-6.78652e-05
-6.76316e-05
-6.76436e-05
-6.76537e-05
-6.76425e-05
-6.76312e-05
-6.7395e-05
-6.74068e-05
-6.74166e-05
-6.74057e-05
-6.73946e-05
-6.71557e-05
-6.71673e-05
-6.71769e-05
-6.71662e-05
-6.71553e-05
-6.69138e-05
-6.69251e-05
-6.69345e-05
-6.6924e-05
-6.69134e-05
-6.66692e-05
-6.66802e-05
-6.66894e-05
-6.66791e-05
-6.66687e-05
-6.64218e-05
-6.64326e-05
-6.64416e-05
-6.64315e-05
-6.64213e-05
-6.61717e-05
-6.61822e-05
-6.6191e-05
-6.61811e-05
-6.61712e-05
-6.59187e-05
-6.5929e-05
-6.59376e-05
-6.5928e-05
-6.59182e-05
-6.5663e-05
-6.5673e-05
-6.56813e-05
-6.5672e-05
-6.56625e-05
-6.54044e-05
-6.54142e-05
-6.54223e-05
-6.54131e-05
-6.54039e-05
-6.51429e-05
-6.51524e-05
-6.51603e-05
-6.51514e-05
-6.51424e-05
-6.48785e-05
-6.48878e-05
-6.48954e-05
-6.48868e-05
-6.4878e-05
-6.46112e-05
-6.46202e-05
-6.46276e-05
-6.46192e-05
-6.46106e-05
-6.43409e-05
-6.43496e-05
-6.43568e-05
-6.43486e-05
-6.43403e-05
-6.40675e-05
-6.4076e-05
-6.4083e-05
-6.4075e-05
-6.40669e-05
-6.37911e-05
-6.37993e-05
-6.38061e-05
-6.37984e-05
-6.37905e-05
-6.35117e-05
-6.35196e-05
-6.35262e-05
-6.35187e-05
-6.35111e-05
-6.32291e-05
-6.32368e-05
-6.32432e-05
-6.32359e-05
-6.32285e-05
-6.29434e-05
-6.29509e-05
-6.2957e-05
-6.295e-05
-6.29428e-05
-6.26546e-05
-6.26617e-05
-6.26677e-05
-6.26609e-05
-6.26539e-05
-6.23625e-05
-6.23694e-05
-6.23751e-05
-6.23685e-05
-6.23618e-05
-6.20671e-05
-6.20738e-05
-6.20793e-05
-6.2073e-05
-6.20665e-05
-6.17685e-05
-6.17749e-05
-6.17802e-05
-6.17741e-05
-6.17678e-05
-6.14666e-05
-6.14728e-05
-6.14778e-05
-6.14719e-05
-6.14659e-05
-6.11613e-05
-6.11672e-05
-6.11721e-05
-6.11664e-05
-6.11606e-05
-6.08526e-05
-6.08583e-05
-6.0863e-05
-6.08575e-05
-6.08519e-05
-6.05405e-05
-6.05459e-05
-6.05504e-05
-6.05452e-05
-6.05398e-05
-6.02249e-05
-6.02301e-05
-6.02344e-05
-6.02294e-05
-6.02242e-05
-5.99058e-05
-5.99108e-05
-5.99149e-05
-5.99101e-05
-5.99051e-05
-5.95832e-05
-5.9588e-05
-5.95919e-05
-5.95873e-05
-5.95825e-05
-5.9257e-05
-5.92616e-05
-5.92653e-05
-5.92609e-05
-5.92563e-05
-5.89272e-05
-5.89315e-05
-5.89351e-05
-5.89308e-05
-5.89265e-05
-5.85937e-05
-5.85978e-05
-5.86012e-05
-5.85971e-05
-5.8593e-05
-5.82565e-05
-5.82604e-05
-5.82636e-05
-5.82598e-05
-5.82558e-05
-5.79156e-05
-5.79193e-05
-5.79223e-05
-5.79186e-05
-5.79149e-05
-5.75709e-05
-5.75744e-05
-5.75772e-05
-5.75737e-05
-5.75702e-05
-5.72224e-05
-5.72256e-05
-5.72283e-05
-5.7225e-05
-5.72217e-05
-5.687e-05
-5.6873e-05
-5.68755e-05
-5.68724e-05
-5.68693e-05
-5.65137e-05
-5.65166e-05
-5.65189e-05
-5.6516e-05
-5.6513e-05
-5.61534e-05
-5.61561e-05
-5.61583e-05
-5.61555e-05
-5.61527e-05
-5.57892e-05
-5.57917e-05
-5.57937e-05
-5.57911e-05
-5.57885e-05
-5.54209e-05
-5.54232e-05
-5.5425e-05
-5.54226e-05
-5.54202e-05
-5.50485e-05
-5.50506e-05
-5.50523e-05
-5.50501e-05
-5.50478e-05
-5.4672e-05
-5.46739e-05
-5.46755e-05
-5.46734e-05
-5.46713e-05
-5.42913e-05
-5.42931e-05
-5.42945e-05
-5.42926e-05
-5.42906e-05
-5.39064e-05
-5.3908e-05
-5.39093e-05
-5.39075e-05
-5.39057e-05
-5.35172e-05
-5.35187e-05
-5.35198e-05
-5.35182e-05
-5.35166e-05
-5.31238e-05
-5.3125e-05
-5.3126e-05
-5.31245e-05
-5.31231e-05
-5.27259e-05
-5.2727e-05
-5.27278e-05
-5.27265e-05
-5.27252e-05
-5.23236e-05
-5.23246e-05
-5.23252e-05
-5.23241e-05
-5.2323e-05
-5.19169e-05
-5.19177e-05
-5.19182e-05
-5.19172e-05
-5.19162e-05
-5.15057e-05
-5.15063e-05
-5.15067e-05
-5.15058e-05
-5.1505e-05
-5.10899e-05
-5.10903e-05
-5.10906e-05
-5.10899e-05
-5.10892e-05
-5.06695e-05
-5.06698e-05
-5.06699e-05
-5.06693e-05
-5.06688e-05
-5.02445e-05
-5.02446e-05
-5.02445e-05
-5.02441e-05
-5.02437e-05
-4.98146e-05
-4.98146e-05
-4.98144e-05
-4.98141e-05
-4.98139e-05
-4.93794e-05
-4.93794e-05
-4.93792e-05
-4.93789e-05
-4.93788e-05
)
;

boundaryField
{
    BotWall
    {
        type            fixedFluxPressure;
        gradient        uniform 0;
        value           nonuniform List<scalar> 5(0.202852 0.202842 0.202841 0.202842 0.202851);
    }
    FreeStream
    {
        type            totalPressure;
        rho             rho;
        psi             none;
        gamma           1;
        p0              uniform 0;
        value           nonuniform List<scalar> 5(-4.91604e-05 -4.91604e-05 -4.91603e-05 -4.91601e-05 -4.91598e-05);
    }
    FrontNBack
    {
        type            empty;
    }
    LeftSide
    {
        type            symmetryPlane;
    }
    RightSide
    {
        type            symmetryPlane;
    }
}


// ************************************************************************* //
