/*--------------------------------*- C++ -*----------------------------------*\
| =========                 |                                                 |
| \\      /  F ield         | OpenFOAM: The Open Source CFD Toolbox           |
|  \\    /   O peration     | Version:  2.4.0                                 |
|   \\  /    A nd           | Web:      www.OpenFOAM.org                      |
|    \\/     M anipulation  |                                                 |
\*---------------------------------------------------------------------------*/
FoamFile
{
    version     2.0;
    format      ascii;
    class       surfaceScalarField;
    location    "0.4";
    object      phi;
}
// * * * * * * * * * * * * * * * * * * * * * * * * * * * * * * * * * * * * * //

dimensions      [0 3 -1 0 0 0 0];

internalField   nonuniform List<scalar> 
895
(
9.98878e-19
-9.98767e-19
4.6341e-19
5.35366e-19
-5.3826e-19
1.00167e-18
-1.07533e-18
5.3707e-19
-1.0751e-18
3.02109e-18
-4.01726e-18
1.40881e-18
2.1519e-18
-1.63691e-18
4.05292e-18
-3.25454e-18
2.15887e-18
-4.3267e-18
5.10407e-18
-9.11848e-18
2.39978e-18
4.86047e-18
-2.78649e-18
9.24454e-18
-5.50029e-18
4.87649e-18
-9.82449e-18
7.26061e-18
-1.63764e-17
3.43835e-18
8.68657e-18
-3.98939e-18
1.66769e-17
-7.82527e-18
8.71547e-18
-1.76479e-17
9.67491e-18
-2.60491e-17
4.51722e-18
1.38471e-17
-5.23925e-18
2.64366e-17
-1.04143e-17
1.38926e-17
-2.80611e-17
1.24351e-17
-3.8483e-17
5.50782e-18
2.07758e-17
-6.40899e-18
3.83551e-17
-1.33612e-17
2.08458e-17
-4.14218e-17
1.51186e-17
-1.30071e-16
6.28782e-18
2.96069e-17
-7.3712e-18
5.20137e-17
-1.62546e-17
2.97297e-17
-1.3996e-16
1.64151e-17
-6.56685e-10
6.9428e-18
-6.56686e-10
-8.21901e-18
-6.56686e-10
-1.78408e-17
-6.56686e-10
-6.56685e-10
1.72229e-17
-6.56685e-10
7.97036e-18
-6.56686e-10
-9.33828e-18
-6.56686e-10
-1.86336e-17
-6.56686e-10
-6.56685e-10
2.25078e-17
-6.56685e-10
6.65402e-18
-6.56686e-10
-5.67542e-18
-6.56686e-10
-2.26334e-17
-6.56686e-10
-6.56685e-10
1.09104e-17
-6.56685e-10
6.17011e-18
-6.56686e-10
-2.77314e-18
-6.56686e-10
-9.65623e-18
-6.56686e-10
-6.56685e-10
6.68705e-18
-6.56685e-10
4.43034e-18
-6.56686e-10
1.3708e-18
-6.56686e-10
-4.06579e-18
-6.56686e-10
-6.56685e-10
4.79078e-18
-6.56685e-10
2.92191e-18
-6.56686e-10
5.26582e-18
-6.56686e-10
-8.08614e-19
-6.56686e-10
-6.56685e-10
2.48507e-18
-6.56685e-10
1.87954e-18
-6.56686e-10
8.6763e-18
-6.56686e-10
2.85922e-18
-6.56686e-10
-6.56685e-10
-1.5921e-19
-6.56685e-10
1.03993e-18
-6.56686e-10
1.18664e-17
-6.56686e-10
6.86815e-18
-6.56686e-10
-6.56685e-10
-2.59991e-18
-6.56685e-10
3.03985e-19
-6.56686e-10
1.4935e-17
-6.56686e-10
1.06745e-17
-6.56686e-10
-6.56685e-10
-4.69432e-18
-6.56685e-10
-3.0685e-19
-6.56686e-10
1.78598e-17
-6.56686e-10
1.41341e-17
-6.56686e-10
-6.56685e-10
-6.49892e-18
-6.56685e-10
-7.70056e-19
-6.56686e-10
2.06175e-17
-6.56686e-10
1.73021e-17
-6.56686e-10
-6.56685e-10
-8.06655e-18
-6.56685e-10
-1.08668e-18
-6.56686e-10
2.32086e-17
-6.56686e-10
2.02301e-17
-6.56686e-10
-6.56685e-10
-9.41501e-18
-6.56685e-10
-1.26644e-18
-6.56686e-10
2.56418e-17
-6.56686e-10
2.29347e-17
-6.56686e-10
-6.56685e-10
-1.05503e-17
-6.56685e-10
-1.31808e-18
-6.56687e-10
2.79253e-17
-6.56686e-10
2.54208e-17
-6.56686e-10
-6.56685e-10
-1.148e-17
-6.56685e-10
-1.24851e-18
-6.56687e-10
3.00651e-17
-6.56686e-10
2.76944e-17
-6.56686e-10
-6.56685e-10
-1.22135e-17
-6.56685e-10
-1.06408e-18
-6.56687e-10
3.20665e-17
-6.56687e-10
2.97639e-17
-6.56686e-10
-6.56685e-10
-1.2761e-17
-6.56685e-10
-7.71067e-19
-6.56687e-10
3.3935e-17
-6.56687e-10
3.16381e-17
-6.56686e-10
-6.56685e-10
-1.31321e-17
-6.56685e-10
-3.75744e-19
-6.56687e-10
3.56757e-17
-6.56687e-10
3.33255e-17
-6.56686e-10
-6.56685e-10
-1.33362e-17
-6.56685e-10
1.1579e-19
-6.56687e-10
3.72938e-17
-6.56687e-10
3.4834e-17
-6.56686e-10
-6.56685e-10
-1.33821e-17
-6.56685e-10
6.97652e-19
-6.56687e-10
3.87938e-17
-6.56687e-10
3.61712e-17
-6.56686e-10
-6.56685e-10
-1.32782e-17
-6.56685e-10
1.3642e-18
-6.56687e-10
4.01802e-17
-6.56687e-10
3.73442e-17
-6.56686e-10
-6.56685e-10
-1.30326e-17
-6.56685e-10
2.11002e-18
-6.56687e-10
4.14571e-17
-6.56687e-10
3.83599e-17
-6.56686e-10
-6.56684e-10
-1.26531e-17
-6.56685e-10
2.92997e-18
-6.56687e-10
4.26282e-17
-6.56687e-10
3.92247e-17
-6.56686e-10
-6.56684e-10
-1.21469e-17
-6.56685e-10
3.81914e-18
-6.56687e-10
4.36971e-17
-6.56687e-10
3.99446e-17
-6.56686e-10
-6.56684e-10
-1.15209e-17
-6.56685e-10
4.77285e-18
-6.56687e-10
4.46668e-17
-6.56687e-10
4.05253e-17
-6.56686e-10
-6.56684e-10
-1.07818e-17
-6.56685e-10
5.78664e-18
-6.56687e-10
4.55404e-17
-6.56687e-10
4.0972e-17
-6.56686e-10
-6.56684e-10
-9.93563e-18
-6.56685e-10
6.85627e-18
-6.56687e-10
4.63204e-17
-6.56687e-10
4.12899e-17
-6.56686e-10
-6.56684e-10
-8.98845e-18
-6.56685e-10
7.97768e-18
-6.56687e-10
4.70093e-17
-6.56687e-10
4.14835e-17
-6.56686e-10
-6.56684e-10
-7.94593e-18
-6.56685e-10
9.14695e-18
-6.56687e-10
4.76094e-17
-6.56687e-10
4.15575e-17
-6.56686e-10
-6.56684e-10
-6.81356e-18
-6.56685e-10
1.03603e-17
-6.56687e-10
4.81228e-17
-6.56687e-10
4.15161e-17
-6.56686e-10
-6.56684e-10
-5.59665e-18
-6.56685e-10
1.16141e-17
-6.56687e-10
4.85514e-17
-6.56687e-10
4.13636e-17
-6.56686e-10
-6.56684e-10
-4.30042e-18
-6.56685e-10
1.29048e-17
-6.56687e-10
4.88973e-17
-6.56687e-10
4.1104e-17
-6.56686e-10
-6.56684e-10
-2.92998e-18
-6.56685e-10
1.42289e-17
-6.56687e-10
4.91621e-17
-6.56687e-10
4.07414e-17
-6.56686e-10
-6.56684e-10
-1.49041e-18
-6.56685e-10
1.55828e-17
-6.56687e-10
4.93479e-17
-6.56687e-10
4.02799e-17
-6.56686e-10
-6.56684e-10
1.32443e-20
-6.56685e-10
1.69633e-17
-6.56687e-10
4.94565e-17
-6.56687e-10
3.97234e-17
-6.56686e-10
-6.56684e-10
1.57591e-18
-6.56685e-10
1.83668e-17
-6.56687e-10
4.94898e-17
-6.56687e-10
3.90761e-17
-6.56686e-10
-6.56684e-10
3.19249e-18
-6.56685e-10
1.97899e-17
-6.56687e-10
4.94497e-17
-6.56687e-10
3.83422e-17
-6.56686e-10
-6.56684e-10
4.85784e-18
-6.56685e-10
2.12292e-17
-6.56687e-10
4.93383e-17
-6.56687e-10
3.7526e-17
-6.56686e-10
-6.56684e-10
6.56676e-18
-6.56685e-10
2.26812e-17
-6.56687e-10
4.91578e-17
-6.56687e-10
3.66319e-17
-6.56686e-10
-6.56684e-10
8.31397e-18
-6.56685e-10
2.41425e-17
-6.56687e-10
4.89104e-17
-6.56687e-10
3.56645e-17
-6.56686e-10
-6.56684e-10
1.00941e-17
-6.56685e-10
2.56096e-17
-6.56687e-10
4.85984e-17
-6.56687e-10
3.46282e-17
-6.56686e-10
-6.56684e-10
1.19019e-17
-6.56685e-10
2.7079e-17
-6.56687e-10
4.82243e-17
-6.56688e-10
3.35281e-17
-6.56686e-10
-6.56684e-10
1.37318e-17
-6.56685e-10
2.85472e-17
-6.56687e-10
4.77906e-17
-6.56688e-10
3.23688e-17
-6.56686e-10
-6.56684e-10
1.55783e-17
-6.56685e-10
3.00107e-17
-6.56687e-10
4.73001e-17
-6.56688e-10
3.11554e-17
-6.56686e-10
-6.56684e-10
1.74361e-17
-6.56685e-10
3.14659e-17
-6.56687e-10
4.67556e-17
-6.56688e-10
2.9893e-17
-6.56686e-10
-6.56684e-10
1.92994e-17
-6.56685e-10
3.29095e-17
-6.56687e-10
4.616e-17
-6.56688e-10
2.85867e-17
-6.56686e-10
-6.56684e-10
2.1163e-17
-6.56685e-10
3.43379e-17
-6.56687e-10
4.55162e-17
-6.56688e-10
2.72418e-17
-6.56686e-10
-6.56684e-10
2.30212e-17
-6.56685e-10
3.57479e-17
-6.56687e-10
4.48273e-17
-6.56688e-10
2.58636e-17
-6.56686e-10
-6.56684e-10
2.48688e-17
-6.56685e-10
3.71359e-17
-6.56687e-10
4.40966e-17
-6.56688e-10
2.44572e-17
-6.56686e-10
-6.56684e-10
2.67004e-17
-6.56685e-10
3.84989e-17
-6.56687e-10
4.33273e-17
-6.56688e-10
2.3028e-17
-6.56686e-10
-6.56684e-10
2.85109e-17
-6.56685e-10
3.98336e-17
-6.56687e-10
4.25226e-17
-6.56688e-10
2.15813e-17
-6.56686e-10
-6.56684e-10
3.02952e-17
-6.56685e-10
4.1137e-17
-6.56687e-10
4.1686e-17
-6.56688e-10
2.01223e-17
-6.56686e-10
-6.56683e-10
3.20484e-17
-6.56685e-10
4.24062e-17
-6.56687e-10
4.08207e-17
-6.56688e-10
1.86561e-17
-6.56686e-10
-6.56683e-10
3.37658e-17
-6.56685e-10
4.36384e-17
-6.56687e-10
3.99302e-17
-6.56688e-10
1.71877e-17
-6.56686e-10
-6.56683e-10
3.5443e-17
-6.56685e-10
4.4831e-17
-6.56687e-10
3.9018e-17
-6.56688e-10
1.57221e-17
-6.56686e-10
-6.56683e-10
3.70757e-17
-6.56685e-10
4.59816e-17
-6.56687e-10
3.80874e-17
-6.56688e-10
1.42641e-17
-6.56686e-10
-6.56683e-10
3.866e-17
-6.56685e-10
4.70878e-17
-6.56687e-10
3.71418e-17
-6.56688e-10
1.28183e-17
-6.56686e-10
-6.56683e-10
4.01922e-17
-6.56685e-10
4.81478e-17
-6.56687e-10
3.61847e-17
-6.56688e-10
1.13891e-17
-6.56686e-10
-6.56683e-10
4.16689e-17
-6.56685e-10
4.91597e-17
-6.56687e-10
3.52194e-17
-6.56688e-10
9.98091e-18
-6.56686e-10
-6.56683e-10
4.30871e-17
-6.56685e-10
5.01218e-17
-6.56687e-10
3.42492e-17
-6.56688e-10
8.59764e-18
-6.56686e-10
-6.56683e-10
4.44441e-17
-6.56686e-10
5.1033e-17
-6.56687e-10
3.32775e-17
-6.56688e-10
7.24314e-18
-6.56686e-10
-6.56683e-10
4.57376e-17
-6.56686e-10
5.1892e-17
-6.56687e-10
3.23075e-17
-6.56688e-10
5.921e-18
-6.56686e-10
-6.56683e-10
4.69656e-17
-6.56686e-10
5.26981e-17
-6.56687e-10
3.13423e-17
-6.56688e-10
4.63453e-18
-6.56686e-10
-6.56683e-10
4.81266e-17
-6.56686e-10
5.34509e-17
-6.56687e-10
3.0385e-17
-6.56688e-10
3.38681e-18
-6.56686e-10
-6.56683e-10
4.92194e-17
-6.56686e-10
5.415e-17
-6.56687e-10
2.94387e-17
-6.56687e-10
2.18065e-18
-6.56686e-10
-6.56683e-10
5.02432e-17
-6.56686e-10
5.47956e-17
-6.56687e-10
2.85064e-17
-6.56687e-10
1.01858e-18
-6.56686e-10
-6.56683e-10
5.11978e-17
-6.56686e-10
5.5388e-17
-6.56687e-10
2.75911e-17
-6.56687e-10
-9.71194e-20
-6.56686e-10
-6.56683e-10
5.20831e-17
-6.56686e-10
5.5928e-17
-6.56687e-10
2.66954e-17
-6.56687e-10
-1.16444e-18
-6.56686e-10
-6.56683e-10
5.28996e-17
-6.56686e-10
5.64164e-17
-6.56687e-10
2.58223e-17
-6.56687e-10
-2.18163e-18
-6.56686e-10
-6.56683e-10
5.36483e-17
-6.56686e-10
5.68548e-17
-6.56687e-10
2.49744e-17
-6.56687e-10
-3.14718e-18
-6.56686e-10
-6.56683e-10
5.43303e-17
-6.56686e-10
5.72446e-17
-6.56687e-10
2.41544e-17
-6.56687e-10
-4.05987e-18
-6.56686e-10
-6.56683e-10
5.49474e-17
-6.56686e-10
5.75879e-17
-6.56687e-10
2.33648e-17
-6.56687e-10
-4.91866e-18
-6.56686e-10
-6.56683e-10
5.55016e-17
-6.56686e-10
5.7887e-17
-6.56687e-10
2.26083e-17
-6.56687e-10
-5.72277e-18
-6.56686e-10
-6.56683e-10
5.59955e-17
-6.56686e-10
5.81444e-17
-6.56687e-10
2.18872e-17
-6.56687e-10
-6.47164e-18
-6.56686e-10
-6.56683e-10
5.64317e-17
-6.56686e-10
5.83632e-17
-6.56687e-10
2.12041e-17
-6.56687e-10
-7.16489e-18
-6.56686e-10
-6.56683e-10
5.68136e-17
-6.56686e-10
5.85465e-17
-6.56687e-10
2.05614e-17
-6.56687e-10
-7.80235e-18
-6.56685e-10
-6.56683e-10
5.71446e-17
-6.56686e-10
5.86979e-17
-6.56687e-10
1.99613e-17
-6.56687e-10
-8.38403e-18
-6.56685e-10
-6.56683e-10
5.74288e-17
-6.56686e-10
5.88214e-17
-6.56687e-10
1.94062e-17
-6.56687e-10
-8.91014e-18
-6.56685e-10
-6.56683e-10
5.76704e-17
-6.56686e-10
5.89211e-17
-6.56687e-10
1.88985e-17
-6.56687e-10
-9.38105e-18
-6.56685e-10
-6.56683e-10
5.7874e-17
-6.56687e-10
5.90017e-17
-6.56687e-10
1.84402e-17
-6.56687e-10
-9.79734e-18
-6.56685e-10
-6.56683e-10
5.80448e-17
-6.56687e-10
5.90682e-17
-6.56687e-10
1.80336e-17
-6.56687e-10
-1.01598e-17
-6.56685e-10
-6.56683e-10
5.81882e-17
-6.56687e-10
5.91258e-17
-6.56687e-10
1.76806e-17
-6.56687e-10
-1.04696e-17
-6.56685e-10
-6.56683e-10
5.83105e-17
-6.56687e-10
5.91804e-17
-6.56687e-10
1.7383e-17
-6.56687e-10
-1.07281e-17
-6.56685e-10
-6.56683e-10
5.84184e-17
-6.56687e-10
5.92385e-17
-6.56687e-10
1.71424e-17
-6.56687e-10
-1.09374e-17
-6.56685e-10
-6.56684e-10
5.85195e-17
-6.56687e-10
5.93068e-17
-6.56687e-10
1.69599e-17
-6.56687e-10
-1.10999e-17
-6.56685e-10
-6.56684e-10
5.86223e-17
-6.56687e-10
5.93933e-17
-6.56687e-10
1.68362e-17
-6.56687e-10
-1.12192e-17
-6.56685e-10
-6.56684e-10
5.87371e-17
-6.56687e-10
5.95066e-17
-6.56687e-10
1.67709e-17
-6.56687e-10
-1.12999e-17
-6.56685e-10
-6.56684e-10
5.88752e-17
-6.56687e-10
5.96566e-17
-6.56687e-10
1.6763e-17
-6.56687e-10
-1.13481e-17
-6.56685e-10
-6.56684e-10
5.90503e-17
-6.56687e-10
5.98541e-17
-6.56687e-10
1.68102e-17
-6.56687e-10
-1.13715e-17
-6.56685e-10
-6.56684e-10
5.9278e-17
-6.56687e-10
6.01118e-17
-6.56687e-10
1.69087e-17
-6.56687e-10
-1.13802e-17
-6.56685e-10
-6.56684e-10
5.95783e-17
-6.56687e-10
6.04451e-17
-6.56687e-10
1.70523e-17
-6.56687e-10
-1.13876e-17
-6.56685e-10
-6.56684e-10
5.99811e-17
-6.56687e-10
6.08766e-17
-6.56687e-10
1.723e-17
-6.56686e-10
-1.14155e-17
-6.56685e-10
-6.56684e-10
6.0531e-17
6.14319e-17
1.74156e-17
-1.15049e-17
)
;

boundaryField
{
    BotWall
    {
        type            calculated;
        value           nonuniform List<scalar> 5(-2.07553e-23 1.50541e-22 2.33613e-22 1.67308e-22 -3.20316e-23);
    }
    FreeStream
    {
        type            calculated;
        value           nonuniform List<scalar> 5(-6.56687e-10 -6.56687e-10 -6.56686e-10 -6.56685e-10 -6.56684e-10);
    }
    FrontNBack
    {
        type            empty;
        value           nonuniform 0();
    }
    LeftSide
    {
        type            symmetryPlane;
        value           uniform 0;
    }
    RightSide
    {
        type            symmetryPlane;
        value           uniform 0;
    }
}


// ************************************************************************* //
