/*--------------------------------*- C++ -*----------------------------------*\
| =========                 |                                                 |
| \\      /  F ield         | OpenFOAM: The Open Source CFD Toolbox           |
|  \\    /   O peration     | Version:  2.4.0                                 |
|   \\  /    A nd           | Web:      www.OpenFOAM.org                      |
|    \\/     M anipulation  |                                                 |
\*---------------------------------------------------------------------------*/
FoamFile
{
    version     2.0;
    format      ascii;
    class       volVectorField;
    location    "0.4";
    object      U;
}
// * * * * * * * * * * * * * * * * * * * * * * * * * * * * * * * * * * * * * //

dimensions      [0 1 -1 0 0 0 0];

internalField   nonuniform List<vector> 
500
(
(3.77486e-10 -2.26339e-07 0)
(3.49014e-10 -2.26512e-07 0)
(-1.06289e-11 -2.26511e-07 0)
(-3.82271e-10 -2.26512e-07 0)
(-4.0005e-10 -2.26339e-07 0)
(1.13268e-09 -9.09671e-07 0)
(1.04655e-09 -9.09956e-07 0)
(-3.20208e-11 -9.09947e-07 0)
(-1.14687e-09 -9.09955e-07 0)
(-1.20079e-09 -9.09667e-07 0)
(1.9005e-09 -1.27979e-06 0)
(1.75539e-09 -1.27968e-06 0)
(-5.36537e-11 -1.27966e-06 0)
(-1.9237e-09 -1.27968e-06 0)
(-2.01483e-09 -1.27978e-06 0)
(2.6834e-09 4.27129e-06 0)
(2.4775e-09 4.27422e-06 0)
(-7.55376e-11 4.27424e-06 0)
(-2.71477e-09 4.27421e-06 0)
(-2.8447e-09 4.27128e-06 0)
(3.51044e-09 2.40207e-05 0)
(3.24127e-09 2.40262e-05 0)
(-9.77748e-11 2.40261e-05 0)
(-3.54876e-09 2.40261e-05 0)
(-3.71963e-09 2.40206e-05 0)
(4.35725e-09 2.99996e-05 0)
(4.02024e-09 2.99986e-05 0)
(-1.20665e-10 2.99984e-05 0)
(-4.40025e-09 2.99985e-05 0)
(-4.616e-09 2.99993e-05 0)
(5.10901e-09 -9.56901e-05 0)
(4.7031e-09 -9.57194e-05 0)
(-1.44027e-10 -9.5719e-05 0)
(-5.15755e-09 -9.57193e-05 0)
(-5.41878e-09 -9.56897e-05 0)
(5.6095e-09 -0.000751373 0)
(5.12448e-09 -0.000751424 0)
(-1.70415e-10 -0.000751422 0)
(-5.66363e-09 -0.000751424 0)
(-5.97757e-09 -0.00075137 0)
(5.99691e-09 -0.00248057 0)
(5.49207e-09 -0.00248053 0)
(-1.76639e-10 -0.00248054 0)
(-6.05119e-09 -0.00248054 0)
(-6.37872e-09 -0.00248057 0)
(6.56792e-09 -0.00572428 0)
(5.45964e-09 -0.00572424 0)
(2.74234e-10 -0.00572424 0)
(-5.36037e-09 -0.00572424 0)
(-6.747e-09 -0.00572428 0)
(4.64575e-09 -0.00338291 0)
(2.95392e-09 -0.003383 0)
(7.26422e-10 -0.00338299 0)
(-2.18314e-09 -0.003383 0)
(-4.61029e-09 -0.00338291 0)
(3.52058e-09 -0.00315149 0)
(1.32011e-09 -0.0031515 0)
(1.16269e-09 -0.0031515 0)
(1.05997e-10 -0.0031515 0)
(-3.27082e-09 -0.00315149 0)
(2.83559e-09 -0.0032128 0)
(1.84714e-10 -0.0032128 0)
(1.58427e-09 -0.0032128 0)
(1.87959e-09 -0.0032128 0)
(-2.37397e-09 -0.0032128 0)
(2.21459e-09 -0.00327736 0)
(-8.2917e-10 -0.00327735 0)
(1.99157e-09 -0.00327735 0)
(3.51543e-09 -0.00327735 0)
(-1.54305e-09 -0.00327735 0)
(1.58509e-09 -0.00328934 0)
(-1.79705e-09 -0.00328935 0)
(2.38513e-09 -0.00328935 0)
(5.0896e-09 -0.00328935 0)
(-7.05547e-10 -0.00328934 0)
(1.00216e-09 -0.00328621 0)
(-2.66707e-09 -0.00328621 0)
(2.76522e-09 -0.00328621 0)
(6.55024e-09 -0.00328621 0)
(8.32005e-11 -0.0032862 0)
(4.94228e-10 -0.00328367 0)
(-3.41411e-09 -0.00328368 0)
(3.13213e-09 -0.00328368 0)
(7.87211e-09 -0.00328368 0)
(7.9435e-10 -0.00328367 0)
(5.86645e-11 -0.00328318 0)
(-4.04406e-09 -0.00328319 0)
(3.48612e-09 -0.00328319 0)
(9.06098e-09 -0.00328319 0)
(1.43019e-09 -0.00328318 0)
(-3.1361e-10 -0.00328331 0)
(-4.56915e-09 -0.00328332 0)
(3.82743e-09 -0.00328332 0)
(1.0129e-08 -0.00328332 0)
(1.99946e-09 -0.00328331 0)
(-6.28698e-10 -0.00328342 0)
(-4.99853e-09 -0.00328342 0)
(4.15635e-09 -0.00328342 0)
(1.10854e-08 -0.00328342 0)
(2.50796e-09 -0.00328341 0)
(-8.90478e-10 -0.00328344 0)
(-5.33902e-09 -0.00328344 0)
(4.47309e-09 -0.00328344 0)
(1.19367e-08 -0.00328344 0)
(2.95927e-09 -0.00328343 0)
(-1.10236e-09 -0.00328343 0)
(-5.59688e-09 -0.00328344 0)
(4.7779e-09 -0.00328344 0)
(1.26893e-08 -0.00328344 0)
(3.35652e-09 -0.00328343 0)
(-1.26783e-09 -0.00328343 0)
(-5.77825e-09 -0.00328343 0)
(5.07098e-09 -0.00328343 0)
(1.33492e-08 -0.00328343 0)
(3.70292e-09 -0.00328342 0)
(-1.39031e-09 -0.00328342 0)
(-5.88914e-09 -0.00328343 0)
(5.35253e-09 -0.00328343 0)
(1.39223e-08 -0.00328343 0)
(4.00167e-09 -0.00328342 0)
(-1.47309e-09 -0.00328342 0)
(-5.93523e-09 -0.00328343 0)
(5.62275e-09 -0.00328343 0)
(1.44144e-08 -0.00328343 0)
(4.25582e-09 -0.00328342 0)
(-1.51928e-09 -0.00328342 0)
(-5.92188e-09 -0.00328343 0)
(5.88178e-09 -0.00328343 0)
(1.48307e-08 -0.00328343 0)
(4.46827e-09 -0.00328342 0)
(-1.53181e-09 -0.00328342 0)
(-5.85413e-09 -0.00328343 0)
(6.12978e-09 -0.00328343 0)
(1.51762e-08 -0.00328343 0)
(4.64176e-09 -0.00328342 0)
(-1.51344e-09 -0.00328342 0)
(-5.7367e-09 -0.00328343 0)
(6.36689e-09 -0.00328343 0)
(1.54556e-08 -0.00328343 0)
(4.77889e-09 -0.00328342 0)
(-1.46677e-09 -0.00328342 0)
(-5.57399e-09 -0.00328343 0)
(6.59322e-09 -0.00328343 0)
(1.56733e-08 -0.00328343 0)
(4.88211e-09 -0.00328342 0)
(-1.39424e-09 -0.00328342 0)
(-5.37009e-09 -0.00328343 0)
(6.80888e-09 -0.00328343 0)
(1.58333e-08 -0.00328343 0)
(4.95372e-09 -0.00328342 0)
(-1.29812e-09 -0.00328342 0)
(-5.12881e-09 -0.00328343 0)
(7.01397e-09 -0.00328343 0)
(1.59394e-08 -0.00328343 0)
(4.99589e-09 -0.00328342 0)
(-1.18057e-09 -0.00328342 0)
(-4.85369e-09 -0.00328343 0)
(7.20856e-09 -0.00328343 0)
(1.59951e-08 -0.00328343 0)
(5.01067e-09 -0.00328342 0)
(-1.04358e-09 -0.00328342 0)
(-4.54802e-09 -0.00328343 0)
(7.39273e-09 -0.00328343 0)
(1.60038e-08 -0.00328343 0)
(4.99998e-09 -0.00328342 0)
(-8.89053e-10 -0.00328342 0)
(-4.21484e-09 -0.00328343 0)
(7.56655e-09 -0.00328343 0)
(1.59684e-08 -0.00328343 0)
(4.96564e-09 -0.00328342 0)
(-7.18747e-10 -0.00328342 0)
(-3.85701e-09 -0.00328343 0)
(7.73008e-09 -0.00328344 0)
(1.58918e-08 -0.00328343 0)
(4.90939e-09 -0.00328342 0)
(-5.34335e-10 -0.00328342 0)
(-3.47716e-09 -0.00328343 0)
(7.88338e-09 -0.00328344 0)
(1.57767e-08 -0.00328343 0)
(4.83285e-09 -0.00328342 0)
(-3.37399e-10 -0.00328342 0)
(-3.07779e-09 -0.00328343 0)
(8.02651e-09 -0.00328344 0)
(1.56257e-08 -0.00328343 0)
(4.73759e-09 -0.00328342 0)
(-1.29436e-10 -0.00328342 0)
(-2.66122e-09 -0.00328343 0)
(8.15953e-09 -0.00328344 0)
(1.5441e-08 -0.00328343 0)
(4.6251e-09 -0.00328342 0)
(8.81257e-11 -0.00328342 0)
(-2.22966e-09 -0.00328343 0)
(8.2825e-09 -0.00328344 0)
(1.5225e-08 -0.00328343 0)
(4.4968e-09 -0.00328342 0)
(3.13921e-10 -0.00328342 0)
(-1.7852e-09 -0.00328343 0)
(8.39548e-09 -0.00328344 0)
(1.49799e-08 -0.00328343 0)
(4.3541e-09 -0.00328342 0)
(5.4664e-10 -0.00328342 0)
(-1.32983e-09 -0.00328343 0)
(8.49855e-09 -0.00328344 0)
(1.47076e-08 -0.00328343 0)
(4.19831e-09 -0.00328342 0)
(7.85024e-10 -0.00328342 0)
(-8.65463e-10 -0.00328343 0)
(8.59179e-09 -0.00328344 0)
(1.44104e-08 -0.00328343 0)
(4.03073e-09 -0.00328342 0)
(1.02786e-09 -0.00328342 0)
(-3.93932e-10 -0.00328343 0)
(8.67528e-09 -0.00328344 0)
(1.409e-08 -0.00328343 0)
(3.85264e-09 -0.00328342 0)
(1.27396e-09 -0.00328342 0)
(8.29941e-11 -0.00328343 0)
(8.74912e-09 -0.00328344 0)
(1.37485e-08 -0.00328343 0)
(3.66526e-09 -0.00328342 0)
(1.52221e-09 -0.00328342 0)
(5.63605e-10 -0.00328343 0)
(8.81341e-09 -0.00328344 0)
(1.33877e-08 -0.00328343 0)
(3.46979e-09 -0.00328342 0)
(1.77149e-09 -0.00328342 0)
(1.04624e-09 -0.00328343 0)
(8.86827e-09 -0.00328344 0)
(1.30095e-08 -0.00328343 0)
(3.26741e-09 -0.00328342 0)
(2.02075e-09 -0.00328342 0)
(1.5293e-09 -0.00328343 0)
(8.91382e-09 -0.00328344 0)
(1.26157e-08 -0.00328343 0)
(3.05926e-09 -0.00328342 0)
(2.26895e-09 -0.00328342 0)
(2.01122e-09 -0.00328343 0)
(8.95022e-09 -0.00328344 0)
(1.22081e-08 -0.00328343 0)
(2.84647e-09 -0.00328342 0)
(2.5151e-09 -0.00328342 0)
(2.49049e-09 -0.00328344 0)
(8.9776e-09 -0.00328344 0)
(1.17884e-08 -0.00328343 0)
(2.63011e-09 -0.00328342 0)
(2.75825e-09 -0.00328342 0)
(2.96566e-09 -0.00328344 0)
(8.99613e-09 -0.00328344 0)
(1.13583e-08 -0.00328343 0)
(2.41125e-09 -0.00328342 0)
(2.99748e-09 -0.00328342 0)
(3.4353e-09 -0.00328344 0)
(9.00599e-09 -0.00328344 0)
(1.09196e-08 -0.00328343 0)
(2.19091e-09 -0.00328342 0)
(3.23192e-09 -0.00328342 0)
(3.89807e-09 -0.00328344 0)
(9.00737e-09 -0.00328344 0)
(1.04739e-08 -0.00328343 0)
(1.97009e-09 -0.00328342 0)
(3.46075e-09 -0.00328342 0)
(4.35266e-09 -0.00328344 0)
(9.00045e-09 -0.00328344 0)
(1.00229e-08 -0.00328343 0)
(1.74974e-09 -0.00328342 0)
(3.68317e-09 -0.00328343 0)
(4.79783e-09 -0.00328344 0)
(8.98547e-09 -0.00328344 0)
(9.5681e-09 -0.00328343 0)
(1.53077e-09 -0.00328342 0)
(3.89845e-09 -0.00328343 0)
(5.2324e-09 -0.00328344 0)
(8.96263e-09 -0.00328344 0)
(9.11108e-09 -0.00328343 0)
(1.31405e-09 -0.00328342 0)
(4.10592e-09 -0.00328343 0)
(5.65524e-09 -0.00328344 0)
(8.93218e-09 -0.00328344 0)
(8.65334e-09 -0.00328343 0)
(1.10041e-09 -0.00328342 0)
(4.30494e-09 -0.00328343 0)
(6.06532e-09 -0.00328344 0)
(8.89437e-09 -0.00328344 0)
(8.19631e-09 -0.00328343 0)
(8.9062e-10 -0.00328342 0)
(4.49494e-09 -0.00328343 0)
(6.46166e-09 -0.00328344 0)
(8.84945e-09 -0.00328344 0)
(7.74138e-09 -0.00328343 0)
(6.85407e-10 -0.00328342 0)
(4.67542e-09 -0.00328343 0)
(6.84337e-09 -0.00328344 0)
(8.7977e-09 -0.00328344 0)
(7.28989e-09 -0.00328343 0)
(4.85445e-10 -0.00328342 0)
(4.84591e-09 -0.00328343 0)
(7.20961e-09 -0.00328344 0)
(8.7394e-09 -0.00328344 0)
(6.84311e-09 -0.00328343 0)
(2.91351e-10 -0.00328342 0)
(5.00602e-09 -0.00328343 0)
(7.55965e-09 -0.00328344 0)
(8.67483e-09 -0.00328344 0)
(6.40223e-09 -0.00328343 0)
(1.03686e-10 -0.00328342 0)
(5.15544e-09 -0.00328343 0)
(7.89283e-09 -0.00328344 0)
(8.60431e-09 -0.00328344 0)
(5.9684e-09 -0.00328343 0)
(-7.70448e-11 -0.00328342 0)
(5.29388e-09 -0.00328343 0)
(8.20858e-09 -0.00328344 0)
(8.52814e-09 -0.00328344 0)
(5.54268e-09 -0.00328343 0)
(-2.50398e-10 -0.00328342 0)
(5.42116e-09 -0.00328343 0)
(8.50642e-09 -0.00328344 0)
(8.44665e-09 -0.00328344 0)
(5.12606e-09 -0.00328343 0)
(-4.15988e-10 -0.00328342 0)
(5.53713e-09 -0.00328343 0)
(8.78594e-09 -0.00328344 0)
(8.36016e-09 -0.00328344 0)
(4.71947e-09 -0.00328343 0)
(-5.7349e-10 -0.00328342 0)
(5.64172e-09 -0.00328343 0)
(9.04683e-09 -0.00328344 0)
(8.26903e-09 -0.00328344 0)
(4.32375e-09 -0.00328343 0)
(-7.22637e-10 -0.00328342 0)
(5.73493e-09 -0.00328343 0)
(9.28888e-09 -0.00328344 0)
(8.17359e-09 -0.00328344 0)
(3.93967e-09 -0.00328343 0)
(-8.63222e-10 -0.00328342 0)
(5.8168e-09 -0.00328343 0)
(9.51195e-09 -0.00328344 0)
(8.07421e-09 -0.00328344 0)
(3.56793e-09 -0.00328343 0)
(-9.95095e-10 -0.00328342 0)
(5.88745e-09 -0.00328343 0)
(9.71599e-09 -0.00328344 0)
(7.97126e-09 -0.00328344 0)
(3.20914e-09 -0.00328343 0)
(-1.11816e-09 -0.00328342 0)
(5.94705e-09 -0.00328343 0)
(9.90104e-09 -0.00328344 0)
(7.86509e-09 -0.00328344 0)
(2.86386e-09 -0.00328343 0)
(-1.23239e-09 -0.00328342 0)
(5.99582e-09 -0.00328343 0)
(1.00672e-08 -0.00328344 0)
(7.75611e-09 -0.00328344 0)
(2.53255e-09 -0.00328343 0)
(-1.33778e-09 -0.00328342 0)
(6.03406e-09 -0.00328343 0)
(1.02148e-08 -0.00328344 0)
(7.64468e-09 -0.00328344 0)
(2.21562e-09 -0.00328343 0)
(-1.43441e-09 -0.00328342 0)
(6.06208e-09 -0.00328343 0)
(1.03439e-08 -0.00328344 0)
(7.53122e-09 -0.00328344 0)
(1.9134e-09 -0.00328343 0)
(-1.52237e-09 -0.00328342 0)
(6.08028e-09 -0.00328343 0)
(1.04551e-08 -0.00328344 0)
(7.41611e-09 -0.00328344 0)
(1.62615e-09 -0.00328343 0)
(-1.60183e-09 -0.00328342 0)
(6.08907e-09 -0.00328343 0)
(1.05487e-08 -0.00328344 0)
(7.29976e-09 -0.00328344 0)
(1.35408e-09 -0.00328343 0)
(-1.67298e-09 -0.00328342 0)
(6.08893e-09 -0.00328343 0)
(1.06253e-08 -0.00328344 0)
(7.18259e-09 -0.00328344 0)
(1.09731e-09 -0.00328343 0)
(-1.73605e-09 -0.00328342 0)
(6.08034e-09 -0.00328343 0)
(1.06853e-08 -0.00328344 0)
(7.06502e-09 -0.00328344 0)
(8.55941e-10 -0.00328343 0)
(-1.7913e-09 -0.00328342 0)
(6.06384e-09 -0.00328343 0)
(1.07296e-08 -0.00328344 0)
(6.94746e-09 -0.00328344 0)
(6.29986e-10 -0.00328343 0)
(-1.83902e-09 -0.00328342 0)
(6.04e-09 -0.00328343 0)
(1.07587e-08 -0.00328344 0)
(6.83033e-09 -0.00328344 0)
(4.19422e-10 -0.00328343 0)
(-1.87953e-09 -0.00328342 0)
(6.0094e-09 -0.00328343 0)
(1.07734e-08 -0.00328344 0)
(6.71408e-09 -0.00328344 0)
(2.24174e-10 -0.00328343 0)
(-1.91317e-09 -0.00328342 0)
(5.97265e-09 -0.00328343 0)
(1.07746e-08 -0.00328344 0)
(6.59914e-09 -0.00328344 0)
(4.41236e-11 -0.00328343 0)
(-1.94029e-09 -0.00328342 0)
(5.93036e-09 -0.00328343 0)
(1.07631e-08 -0.00328344 0)
(6.48594e-09 -0.00328344 0)
(-1.20891e-10 -0.00328343 0)
(-1.96125e-09 -0.00328342 0)
(5.88318e-09 -0.00328343 0)
(1.07397e-08 -0.00328344 0)
(6.37492e-09 -0.00328344 0)
(-2.71067e-10 -0.00328343 0)
(-1.97644e-09 -0.00328342 0)
(5.83174e-09 -0.00328343 0)
(1.07055e-08 -0.00328344 0)
(6.26653e-09 -0.00328344 0)
(-4.06639e-10 -0.00328343 0)
(-1.98624e-09 -0.00328342 0)
(5.77671e-09 -0.00328343 0)
(1.06615e-08 -0.00328344 0)
(6.16122e-09 -0.00328344 0)
(-5.27877e-10 -0.00328343 0)
(-1.99105e-09 -0.00328342 0)
(5.71874e-09 -0.00328343 0)
(1.06085e-08 -0.00328344 0)
(6.05942e-09 -0.00328344 0)
(-6.35085e-10 -0.00328343 0)
(-1.99124e-09 -0.00328342 0)
(5.65849e-09 -0.00328343 0)
(1.05478e-08 -0.00328344 0)
(5.96159e-09 -0.00328343 0)
(-7.28603e-10 -0.00328343 0)
(-1.98723e-09 -0.00328342 0)
(5.59663e-09 -0.00328343 0)
(1.04803e-08 -0.00328344 0)
(5.86817e-09 -0.00328343 0)
(-8.0881e-10 -0.00328343 0)
(-1.97941e-09 -0.00328342 0)
(5.53385e-09 -0.00328343 0)
(1.04073e-08 -0.00328344 0)
(5.77961e-09 -0.00328343 0)
(-8.76138e-10 -0.00328343 0)
(-1.96819e-09 -0.00328342 0)
(5.47083e-09 -0.00328343 0)
(1.03299e-08 -0.00328344 0)
(5.69635e-09 -0.00328343 0)
(-9.31075e-10 -0.00328343 0)
(-1.95399e-09 -0.00328342 0)
(5.40829e-09 -0.00328343 0)
(1.02495e-08 -0.00328344 0)
(5.61883e-09 -0.00328343 0)
(-9.74194e-10 -0.00328343 0)
(-1.93726e-09 -0.00328342 0)
(5.34699e-09 -0.00328343 0)
(1.01674e-08 -0.00328344 0)
(5.54747e-09 -0.00328343 0)
(-1.00617e-09 -0.00328343 0)
(-1.91848e-09 -0.00328342 0)
(5.28774e-09 -0.00328343 0)
(1.00851e-08 -0.00328344 0)
(5.4827e-09 -0.00328343 0)
(-1.02781e-09 -0.00328343 0)
(-1.89817e-09 -0.00328342 0)
(5.23142e-09 -0.00328343 0)
(1.00044e-08 -0.00328344 0)
(5.42492e-09 -0.00328343 0)
(-1.04012e-09 -0.00328343 0)
(-1.87693e-09 -0.00328342 0)
(5.17901e-09 -0.00328343 0)
(9.9271e-09 -0.00328344 0)
(5.37453e-09 -0.00328343 0)
(-1.0443e-09 -0.00328343 0)
(-1.85546e-09 -0.00328342 0)
(5.13162e-09 -0.00328344 0)
(9.85535e-09 -0.00328344 0)
(5.33188e-09 -0.00328343 0)
(-1.04184e-09 -0.00328343 0)
(-1.83457e-09 -0.00328342 0)
(5.0905e-09 -0.00328344 0)
(9.79164e-09 -0.00328344 0)
(5.29732e-09 -0.00328343 0)
(-1.03457e-09 -0.00328343 0)
(-1.81522e-09 -0.00328342 0)
(5.05723e-09 -0.00328344 0)
(9.73903e-09 -0.00328344 0)
(5.27121e-09 -0.00328343 0)
(-1.02486e-09 -0.00328343 0)
(-1.79865e-09 -0.00328342 0)
(5.03389e-09 -0.00328344 0)
(9.7015e-09 -0.00328344 0)
(5.25401e-09 -0.00328343 0)
(-1.01579e-09 -0.00328343 0)
(-1.78649e-09 -0.00328342 0)
(5.02263e-09 -0.00328344 0)
(9.68325e-09 -0.00328344 0)
(5.24604e-09 -0.00328343 0)
(-1.01081e-09 -0.00328342 0)
(-1.78052e-09 -0.00328342 0)
)
;

boundaryField
{
    BotWall
    {
        type            fixedValue;
        value           uniform (0 0 0);
    }
    FreeStream
    {
        type            zeroGradient;
    }
    FrontNBack
    {
        type            empty;
    }
    LeftSide
    {
        type            symmetryPlane;
    }
    RightSide
    {
        type            symmetryPlane;
    }
}


// ************************************************************************* //
