/*--------------------------------*- C++ -*----------------------------------*\
| =========                 |                                                 |
| \\      /  F ield         | OpenFOAM: The Open Source CFD Toolbox           |
|  \\    /   O peration     | Version:  2.4.0                                 |
|   \\  /    A nd           | Web:      www.OpenFOAM.org                      |
|    \\/     M anipulation  |                                                 |
\*---------------------------------------------------------------------------*/
FoamFile
{
    version     2.0;
    format      ascii;
    class       volScalarField;
    location    "2";
    object      alpha1;
}
// * * * * * * * * * * * * * * * * * * * * * * * * * * * * * * * * * * * * * //

dimensions      [0 0 0 0 0 0 0];

internalField   nonuniform List<scalar> 
8000
(
1
1
1
1
1
1
1
1
1
1
1
0.999999
0.999999
0.999999
0.999999
0.999999
0.999998
0.999998
0.999998
0.999998
0.999999
0.999999
0.999999
0.999998
0.999999
0.999999
0.999998
0.999998
0.999998
0.999998
0.999998
0.999997
0.999995
0.999968
0.999881
0.999851
0.999855
0.999964
0.999994
0.999994
0.999952
0.999668
0.999434
0.999469
0.999734
0.999963
1.00001
0.985916
0.911452
0.749791
1
1
1
1
1
1
1
1
1
1
1
0.999999
0.999999
0.999999
0.999999
0.999999
0.999998
0.999998
0.999998
0.999998
0.999999
0.999999
0.999999
0.999998
0.999999
0.999999
0.999999
0.999999
0.999999
0.999999
0.999999
0.999999
0.999999
0.999999
0.999998
0.999998
0.999997
0.999997
0.999996
0.999996
0.999995
0.999995
0.999993
0.999989
0.999992
0.999996
0.999998
1
1
0.998798
1
1
1
1
1
1
1
1
1
1
1
0.999999
0.999999
0.999999
0.999999
0.999999
0.999999
0.999998
0.999998
0.999998
0.999998
0.999999
0.999999
0.999999
0.999999
0.999999
0.999999
0.999999
0.999999
0.999999
0.999999
0.999999
0.999999
0.999998
0.999998
0.999998
0.999997
0.999996
0.999996
0.999995
0.999994
0.999994
0.999992
0.999988
0.999985
0.99999
0.999992
0.999995
0.999997
1
1
1
1
1
1
1
1
1
1
1
1
1
0.999999
0.999999
0.999999
0.999999
0.999999
0.999999
0.999999
0.999999
0.999999
0.999999
0.999999
0.999999
0.999999
0.999999
0.999999
0.999999
0.999999
0.999999
0.999999
0.999999
0.999999
0.999999
0.999999
0.999998
0.999998
0.999997
0.999997
0.999996
0.999995
0.999993
0.999991
0.999988
0.999985
0.999982
0.999985
0.999989
0.999992
0.999995
1
1
1
1
1
1
1
1
1
1
1
1
1
0.999999
0.999999
0.999999
0.999999
0.999999
0.999999
0.999999
0.999999
0.999999
0.999999
0.999999
0.999999
0.999999
0.999999
0.999999
0.999999
0.999999
0.999999
0.999999
0.999999
0.999999
0.999999
0.999999
0.999999
0.999998
0.999998
0.999997
0.999997
0.999996
0.999994
0.999993
0.999991
0.999987
0.999991
0.999991
0.999994
0.999996
1
1
1
1
1
1
1
1
1
1
1
1
1
1
1
0.999999
0.999999
0.999999
0.999999
0.999999
0.999999
0.999999
0.999999
0.999999
0.999999
0.999999
0.999999
0.999999
0.999999
0.999999
0.999999
0.999999
0.999999
0.999999
0.999999
0.999999
0.999999
0.999999
0.999999
0.999999
0.999998
0.999998
0.999997
0.999996
0.999996
0.999995
0.999993
0.999993
0.999955
0.999817
1
1
1
1
1
1
1
1
1
1
1
1
1
1
1
1
1
1
1
0.999999
0.999999
0.999999
0.999999
0.999999
0.999999
0.999999
0.999999
0.999999
0.999999
0.999999
0.999999
1
1
1
0.999999
0.999999
0.999999
0.999999
0.999999
0.999999
0.999999
0.999999
0.999998
0.999998
0.999997
0.999946
0.999775
0.963781
0.842889
0.66113
1
1
1
1
1
1
1
1
1
1
1
1
1
1
1
1
1
1
1
1
1
1
1
1
1
1
1
1
1
1
1
1
1
1
1
1
0.999999
0.999999
1
0.999999
0.999999
0.999999
0.999934
0.99973
0.960808
0.826186
0.622184
0.407425
0.158887
0.0548
1
1
1
1
1
1
1
1
1
1
1
1
1
1
1
1
1
1
1
1
1
1
1
1
1
1
1
1
1
1
1
1
1
1
1
0.999999
0.999999
0.999999
0.999999
0.99995
0.999616
0.987728
0.803137
0.597559
0.289132
0.12406
0.0148773
0.0109504
0.00121017
0.00017253
1
1
1
1
1
1
1
1
1
1
1
1
1
1
1
1
1
1
1
1
1
1
1
1
1
1
1
1
1
1
1
1
1
0.999999
0.999999
0.999999
0.999999
0.999824
0.999254
0.832907
0.541867
0.288576
0.0261492
0.0228379
0.00144986
0.00105512
3.95049e-05
4.3209e-05
1.29576e-06
5.7165e-07
1
1
1
1
1
1
1
1
1
1
1
1
1
1
1
1
1
1
1
1
1
1
1
1
1
1
1
1
1
1
1
1
0.999999
0.999999
0.999999
0.999843
0.998855
0.689667
0.346285
0.0359891
0.00892649
0.00449685
0.000255407
0.000184062
2.30832e-06
1.12339e-06
5.71893e-07
5.81336e-07
5.86393e-07
3.34369e-07
1
1
1
1
1
1
1
1
1
1
1
1
1
1
1
1
1
1
1
1
1
1
1
1
1
1
1
1
1
1
1
0.999999
0.999997
0.999988
0.99904
0.704588
0.184483
0.0117786
0.00602662
0.000687409
0.000106909
5.27838e-05
1.3314e-06
1.00818e-06
7.69434e-07
7.6363e-07
5.42947e-07
5.07784e-07
4.45642e-07
3.0532e-07
1
1
1
1
1
1
1
1
1
1
1
1
1
1
1
1
1
1
1
1
1
1
1
1
1
1
1
1
1
1
0.999999
0.999997
0.999947
0.922846
0.244745
0.00995164
0.00133455
0.00021571
5.40838e-05
2.02491e-05
4.75586e-06
1.94666e-06
1.96254e-06
1.35168e-06
1.14366e-06
1.01697e-06
9.06599e-07
8.65247e-07
8.46635e-07
8.14476e-07
1
1
1
1
1
1
1
1
1
1
1
1
1
1
1
1
1
1
1
1
1
1
1
1
1
1
1
1
1
1
0.999999
0.999995
0.958309
0.228297
0.00335508
8.03255e-05
9.55993e-06
9.48995e-06
9.20807e-06
7.27829e-06
3.74122e-06
1.59168e-06
1.97164e-06
6.38084e-06
1.20138e-05
1.20001e-05
1.12573e-05
4.75856e-06
8.63135e-07
6.90136e-07
1
1
1
1
1
1
1
1
1
1
1
1
1
1
1
1
1
1
1
1
1
1
1
1
1
1
1
1
1
1
0.999999
0.999994
0.949315
0.256865
0.0323587
0.000871059
0.000337191
5.2458e-05
7.97479e-06
4.40609e-06
2.42242e-06
1.58908e-06
1.24898e-06
1.07194e-06
9.85133e-07
9.08378e-07
8.26397e-07
7.70686e-07
7.69709e-07
7.32416e-07
1
1
1
1
1
1
1
1
1
1
1
1
1
1
1
1
1
1
1
1
1
1
1
1
1
1
1
1
1
1
1
0.999999
1
0.999786
0.623167
0.0652469
0.0223589
0.00115995
0.000820729
1.36765e-05
4.67132e-06
1.13307e-06
1.12721e-06
1.12009e-06
9.97118e-07
7.77066e-07
6.22821e-07
5.51595e-07
1.04763e-06
6.42408e-07
1
1
1
1
1
1
1
1
1
1
1
1
1
1
1
1
1
1
1
1
1
1
1
1
1
1
1
1
1
1
1
1
1
0.999999
1
0.999931
0.652158
0.0722894
0.0541021
0.00239133
0.00211884
9.78344e-05
6.01751e-05
2.99696e-06
1.74724e-06
1.2231e-06
6.53718e-07
5.31452e-07
4.30169e-07
4.87106e-07
1
1
1
1
1
1
1
1
1
1
1
1
1
1
1
1
1
1
1
1
1
1
1
1
1
1
1
1
1
1
1
0.999999
0.999999
0.999999
0.999999
0.999998
0.999989
0.993162
0.915336
0.431925
0.134522
0.0498033
0.0214649
0.00327887
0.00123855
0.000834895
0.000171154
0.000110546
9.66313e-08
1.41887e-07
1
1
1
1
1
1
1
1
1
1
1
1
1
1
1
1
1
1
1
1
1
1
1
1
1
1
1
1
1
1
1
1
1
1
0.999999
0.999999
1
1
1
0.999992
0.987165
0.951611
0.833953
0.314821
0.0753857
0.0946707
0.0194551
0.0195549
8.32123e-11
8.74935e-09
1
1
1
1
1
1
1
1
1
1
1
1
1
1
1
1
1
1
1
1
1
1
1
1
1
1
1
1
1
1
1
1
1
1
1
1
1
1
1
1
1
1
1
0.996807
0.952641
0.981244
0.817168
0.925016
0.424756
1.43038e-08
0.554099
0.393201
0.270192
0.179684
0.110599
0.0583303
0.0237073
0.00680723
0.00151343
0.000367708
0.000115825
4.22912e-05
1.14794e-05
3.80509e-06
3.79928e-06
3.79749e-06
7.21835e-06
4.94154e-06
2.99994e-06
2.99344e-06
2.70492e-06
3.78736e-06
2.41316e-06
2.62126e-06
2.38282e-06
2.64967e-06
2.60699e-06
2.54829e-06
2.72712e-06
2.88125e-06
2.99705e-06
3.10093e-06
3.43523e-06
3.5953e-06
3.03431e-06
2.36976e-06
1.98929e-06
1.80965e-06
1.61295e-06
1.33171e-06
2.351e-06
1.1112e-05
3.1143e-05
3.16523e-05
3.16098e-05
2.89661e-05
1.14304e-05
1.67384e-06
3.36883e-07
3.30445e-07
0.960189
0.903642
0.834467
0.734947
0.602362
0.433419
0.237252
0.0887116
0.0228111
0.0042817
0.000712694
0.000125804
2.22496e-05
4.1621e-06
4.27006e-06
3.79925e-06
6.43384e-06
4.09159e-06
3.84989e-06
3.23278e-06
2.70692e-06
3.78871e-06
2.32439e-06
2.77518e-06
1.82982e-06
3.1217e-06
2.46839e-06
2.12833e-06
2.72824e-06
2.45539e-06
2.05701e-06
1.75427e-06
1.80604e-06
1.61221e-06
1.57528e-06
1.57467e-06
1.88962e-06
1.41451e-06
1.41937e-06
1.32874e-06
2.21138e-06
2.14819e-06
1.78149e-06
1.61036e-06
1.41919e-06
1.25399e-06
1.28579e-06
1.48609e-06
7.65489e-07
9.15921e-07
1
1
0.999979
0.970144
0.933521
0.861978
0.697237
0.435343
0.175443
0.0323653
0.00254821
0.000125839
6.73185e-06
5.13706e-06
3.90653e-06
4.41083e-06
3.61964e-06
3.61876e-06
3.1193e-06
3.17144e-06
3.15158e-06
1.30817e-06
2.25812e-06
2.63179e-06
1.32185e-06
1.3294e-06
1.97667e-06
2.12823e-06
2.49968e-06
1.41078e-06
2.37865e-06
1.31898e-06
1.95664e-06
1.54393e-06
1.64594e-06
1.76085e-06
1.92555e-06
1.41065e-06
1.28813e-06
1.32129e-06
1.32453e-06
1.39324e-06
1.38614e-06
1.29779e-06
1.12206e-06
1.05482e-06
9.98621e-07
9.63566e-07
9.34541e-07
9.73863e-07
0.999996
0.999998
0.999997
0.999996
0.999971
0.987461
0.934245
0.82452
0.510816
0.11896
0.0100345
0.000325377
4.23217e-06
3.0793e-06
1.95531e-06
5.1545e-06
2.45195e-06
2.40853e-06
2.24083e-06
2.68783e-06
9.39109e-07
1.16563e-06
2.3167e-06
7.0402e-07
1.20119e-06
1.35446e-06
1.53595e-06
2.56166e-06
9.29576e-07
9.22175e-07
9.13268e-07
1.17223e-06
1.14091e-06
1.78425e-06
1.47079e-06
2.26769e-06
1.05242e-06
1.30754e-06
1.39849e-06
1.49696e-06
1.60331e-06
1.53684e-06
1.31861e-06
1.10242e-06
9.60378e-07
9.42621e-07
9.39941e-07
9.57406e-07
9.82972e-07
9.97338e-07
0.999996
0.999968
0.998033
0.958367
0.867723
0.702217
0.423456
0.13349
0.0245307
0.00303329
3.24608e-05
1.799e-06
2.474e-06
2.00594e-06
1.47439e-06
1.0026e-06
1.04201e-06
8.48803e-07
7.08345e-07
6.20381e-07
5.86844e-07
5.3302e-07
5.19428e-07
6.59207e-07
6.50344e-07
6.06751e-07
5.5264e-07
5.06353e-07
6.08529e-07
7.14337e-07
8.2509e-07
9.29213e-07
1.01386e-06
1.04625e-06
1.07913e-06
9.70854e-07
1.05137e-06
1.21569e-06
1.37999e-06
1.54849e-06
1.38996e-06
1.09307e-06
1.09714e-06
1.02412e-06
9.93968e-07
1.00993e-06
1.06592e-06
1.1466e-06
1.21376e-06
1.2682e-06
0.961403
0.870478
0.713849
0.510146
0.26433
0.0812737
0.0183792
0.00357027
4.17577e-05
3.19828e-05
1.34551e-06
1.06329e-06
7.55015e-07
5.67057e-07
4.37025e-07
3.51621e-07
3.01337e-07
2.73777e-07
2.5942e-07
2.52084e-07
2.48002e-07
2.4419e-07
2.38652e-07
2.32215e-07
2.28393e-07
2.30714e-07
2.40443e-07
2.55768e-07
2.73032e-07
2.88956e-07
3.01636e-07
3.1094e-07
3.20033e-07
3.36623e-07
3.71179e-07
4.30231e-07
5.0736e-07
5.86451e-07
6.55097e-07
6.98336e-07
7.17368e-07
7.2765e-07
7.14347e-07
7.03629e-07
6.99936e-07
7.0156e-07
7.13813e-07
7.449e-07
1.53932e-06
1.04981e-06
0.462486
0.25382
0.0945911
0.0288868
0.00622703
0.000975849
6.74195e-05
4.06708e-05
8.65441e-07
8.56002e-07
8.58364e-07
5.19515e-07
3.14978e-07
2.06296e-07
1.63866e-07
1.44668e-07
1.33148e-07
1.26459e-07
1.22938e-07
1.21592e-07
1.21808e-07
1.23204e-07
1.2557e-07
1.28807e-07
1.32858e-07
1.37643e-07
1.43044e-07
1.48919e-07
1.5513e-07
1.61578e-07
1.68208e-07
1.75005e-07
1.81982e-07
1.89159e-07
1.96557e-07
2.04205e-07
2.12152e-07
2.20476e-07
2.2927e-07
2.38572e-07
2.4823e-07
2.57782e-07
2.66501e-07
2.73748e-07
2.79436e-07
2.8407e-07
2.88064e-07
2.91109e-07
2.94566e-07
3.52825e-07
0.0205799
0.00421529
0.000749241
0.000167089
1.35837e-05
5.28229e-06
3.88968e-07
6.48846e-07
4.53419e-07
3.57572e-07
2.14468e-07
1.29779e-07
9.49466e-08
8.49744e-08
8.56262e-08
8.97702e-08
9.42106e-08
9.88374e-08
1.03485e-07
1.07811e-07
1.11837e-07
1.15596e-07
1.19119e-07
1.22446e-07
1.25606e-07
1.28614e-07
1.31473e-07
1.3417e-07
1.36683e-07
1.38987e-07
1.41051e-07
1.42847e-07
1.44345e-07
1.4552e-07
1.4635e-07
1.46819e-07
1.46913e-07
1.4663e-07
1.45974e-07
1.44955e-07
1.43587e-07
1.41886e-07
1.39875e-07
1.37586e-07
1.35058e-07
1.32339e-07
1.29478e-07
1.26529e-07
1.23542e-07
1.20567e-07
4.46734e-05
1.50854e-06
7.49959e-07
7.52465e-07
6.52371e-07
3.64693e-07
1.7728e-07
1.6739e-07
1.51115e-07
1.33776e-07
1.22918e-07
1.21288e-07
1.23556e-07
1.26911e-07
1.30113e-07
1.32758e-07
1.34833e-07
1.36479e-07
1.37886e-07
1.39469e-07
1.4126e-07
1.4266e-07
1.43571e-07
1.44062e-07
1.44181e-07
1.43956e-07
1.43395e-07
1.42494e-07
1.41242e-07
1.39628e-07
1.3765e-07
1.35307e-07
1.32607e-07
1.29563e-07
1.26211e-07
1.22592e-07
1.18709e-07
1.14629e-07
1.1041e-07
1.0611e-07
1.01755e-07
9.73096e-08
9.27302e-08
8.80736e-08
8.33473e-08
7.85703e-08
7.37758e-08
6.90111e-08
6.42184e-08
5.94889e-08
4.39833e-07
3.18627e-07
2.455e-07
2.33085e-07
2.15583e-07
1.95839e-07
1.89185e-07
1.94399e-07
2.00245e-07
2.06857e-07
2.14125e-07
2.21575e-07
2.28674e-07
2.35206e-07
2.41086e-07
2.46315e-07
2.50977e-07
2.55316e-07
2.59436e-07
2.63035e-07
2.65937e-07
2.68451e-07
2.70622e-07
2.72559e-07
2.74227e-07
2.75559e-07
2.76555e-07
2.77256e-07
2.77484e-07
2.77176e-07
2.76414e-07
2.75106e-07
2.7339e-07
2.70871e-07
2.677e-07
2.6473e-07
2.60769e-07
2.56191e-07
2.51171e-07
2.46039e-07
2.41356e-07
2.36627e-07
2.30398e-07
2.23984e-07
2.16986e-07
2.09522e-07
2.01514e-07
1.94837e-07
1.86876e-07
1.78389e-07
3.01135e-07
2.81214e-07
2.76339e-07
2.83746e-07
2.92407e-07
3.01864e-07
3.12767e-07
3.24524e-07
3.36383e-07
3.55049e-07
3.65513e-07
3.75688e-07
3.85621e-07
3.95304e-07
4.04245e-07
4.11108e-07
4.15931e-07
4.18867e-07
4.23694e-07
4.25034e-07
4.26414e-07
4.26977e-07
4.23612e-07
4.25719e-07
4.3098e-07
4.33603e-07
4.33843e-07
4.39122e-07
4.4605e-07
4.46089e-07
4.49302e-07
4.48283e-07
4.55182e-07
4.56757e-07
4.39386e-07
4.46993e-07
4.46081e-07
4.43352e-07
4.38282e-07
4.27085e-07
4.23931e-07
4.37085e-07
4.28076e-07
4.31905e-07
4.26894e-07
4.22405e-07
3.89307e-07
3.98042e-07
3.94766e-07
3.96827e-07
2.77393e-07
2.70818e-07
2.76359e-07
2.95094e-07
3.22647e-07
3.52356e-07
3.76805e-07
3.90675e-07
7.805e-07
3.44902e-07
3.62237e-07
3.50277e-07
3.55059e-07
5.7245e-07
4.00613e-07
4.49761e-07
4.15039e-07
5.05256e-07
4.15206e-07
6.4388e-07
4.39594e-07
8.79061e-07
4.09963e-07
4.5458e-07
4.31323e-07
8.05363e-07
3.96375e-07
3.95623e-07
6.85171e-07
4.45598e-07
8.40048e-07
4.0314e-07
4.86088e-07
9.27587e-07
3.91984e-07
4.94786e-07
5.00597e-07
5.14064e-07
5.8134e-07
5.01518e-07
6.27424e-07
5.16863e-07
6.35127e-07
5.54869e-07
5.52932e-07
9.70565e-07
3.96696e-07
5.2016e-07
4.72108e-07
8.7148e-07
7.86044e-07
7.61152e-07
7.39033e-07
7.2222e-07
7.08763e-07
6.93813e-07
6.75731e-07
6.58352e-07
6.4287e-07
6.19794e-07
5.97627e-07
5.75405e-07
5.54985e-07
5.44237e-07
5.25477e-07
5.01489e-07
4.81163e-07
4.6383e-07
4.48692e-07
4.32648e-07
4.22025e-07
4.12044e-07
4.06412e-07
4.08715e-07
4.34219e-07
5.09841e-07
6.17114e-07
6.60783e-07
7.32887e-07
7.15754e-07
5.70015e-07
4.68322e-07
4.40499e-07
4.38819e-07
4.30732e-07
4.1158e-07
3.95306e-07
3.87905e-07
6.53375e-07
4.05635e-07
4.02045e-07
4.0542e-07
4.05539e-07
7.41308e-07
5.36993e-07
5.82386e-07
6.28023e-07
6.36045e-07
6.28806e-07
6.10648e-07
6.88669e-07
6.88672e-07
1.33029e-06
1.33155e-06
6.71629e-07
6.30472e-07
6.30422e-07
8.89173e-07
8.90364e-07
5.54482e-07
5.49845e-07
5.4982e-07
5.50227e-07
1.99907e-06
1.50038e-06
5.34842e-07
4.73523e-07
4.72724e-07
4.71981e-07
4.70177e-07
4.69824e-07
4.70211e-07
4.72986e-07
4.79388e-07
4.91416e-07
2.22819e-06
1.94644e-05
2.66792e-05
2.66752e-05
2.58817e-05
9.77965e-06
1.24797e-06
4.48921e-07
8.12406e-07
1.02157e-06
8.92918e-07
4.69903e-07
4.26155e-07
4.08735e-07
4.01187e-07
3.99807e-07
4.07055e-07
4.41169e-07
5.09941e-07
5.3375e-07
7.81803e-07
1.90364e-06
8.58565e-07
6.90484e-07
6.19771e-07
7.39124e-07
7.06198e-07
6.85532e-07
6.91877e-07
6.97052e-07
6.9764e-07
7.07665e-07
7.2428e-07
7.50203e-07
7.88921e-07
8.51678e-07
9.42439e-07
3.14789e-06
3.38775e-06
2.6221e-06
6.85501e-07
5.4094e-07
4.75062e-07
1.08933e-06
8.10572e-07
1.17692e-06
1.25379e-06
1.00296e-06
1.02459e-06
1.07102e-06
1.18753e-06
1.28987e-06
1.29116e-06
1.19844e-06
1.06297e-06
9.22642e-07
7.95451e-07
6.97979e-07
6.26187e-07
5.78699e-07
5.54882e-07
5.52487e-07
5.68833e-07
6.0652e-07
6.77343e-07
8.09572e-07
1.06707e-06
3.27532e-06
1.2328e-05
1.27119e-05
9.85557e-06
2.29445e-06
9.64976e-07
7.80579e-07
6.52852e-07
1.21936e-06
5.76561e-07
7.10386e-07
9.46666e-07
9.47854e-07
8.11383e-07
8.91342e-07
9.04227e-07
9.06872e-07
8.61814e-07
8.84002e-07
8.86394e-07
8.87576e-07
8.76186e-07
8.56513e-07
8.45695e-07
8.26287e-07
8.27009e-07
8.59617e-07
9.27598e-07
9.77364e-07
8.35948e-07
8.38449e-07
8.34123e-07
8.24866e-07
8.12466e-07
7.95992e-07
7.76772e-07
7.6105e-07
7.57618e-07
7.65569e-07
1.52315e-06
5.5822e-07
8.16159e-07
7.95093e-07
7.72278e-07
7.39789e-07
7.00056e-07
6.6004e-07
6.27059e-07
6.05553e-07
5.96726e-07
6.00112e-07
5.77785e-07
5.70623e-07
5.59989e-07
5.67701e-07
6.01566e-07
6.34827e-07
6.75258e-07
4.76165e-07
5.75772e-07
6.61582e-07
7.53761e-07
8.36186e-07
8.95413e-07
9.2856e-07
9.56852e-07
1.40591e-06
5.62389e-07
1.02792e-06
1.12782e-06
1.23606e-06
1.05334e-06
8.58378e-07
8.93814e-07
3.01615e-07
5.54843e-07
1.21898e-06
8.91846e-07
1.00957e-06
1.09712e-06
9.80542e-07
8.31873e-07
7.30385e-07
7.05655e-07
6.98344e-07
6.8512e-07
7.12712e-07
8.99362e-07
7.52483e-07
3.5633e-07
5.55471e-07
5.83828e-07
6.01111e-07
5.94206e-07
5.51411e-07
4.72019e-07
4.02607e-07
4.0026e-07
4.24294e-07
3.76061e-07
2.94672e-07
2.44593e-07
2.29753e-07
1.65944e-07
1.23853e-07
1.14246e-07
9.57407e-08
8.06533e-08
1.58407e-07
1.69402e-07
1.74772e-07
1.77009e-07
1.77613e-07
1.76657e-07
1.74251e-07
1.70733e-07
1.66487e-07
1.69464e-07
1.64503e-07
1.59075e-07
1.52548e-07
1.46171e-07
1.3951e-07
1.30984e-07
1.25512e-07
1.16877e-07
1.07184e-07
9.96142e-08
8.99424e-08
8.02965e-08
7.08582e-08
6.15846e-08
5.27047e-08
4.43267e-08
3.66048e-08
2.96667e-08
2.35919e-08
1.84227e-08
1.42172e-08
1.09311e-08
8.26463e-09
6.21041e-09
4.65596e-09
3.49482e-09
2.63308e-09
1.99355e-09
1.5151e-09
1.15156e-09
8.71427e-10
6.54704e-10
4.86273e-10
3.55173e-10
2.53801e-10
1.76841e-10
1.19651e-10
7.83254e-11
4.94855e-11
3.01294e-11
8.27141e-09
7.88162e-09
7.54666e-09
7.2505e-09
6.98421e-09
6.72291e-09
6.47824e-09
6.24753e-09
6.0163e-09
5.76553e-09
5.48193e-09
5.16588e-09
4.82844e-09
4.51771e-09
4.27897e-09
3.06863e-09
2.11648e-09
1.30074e-09
6.9042e-10
3.16794e-10
1.34211e-10
6.3145e-11
3.87649e-11
2.83651e-11
2.14845e-11
1.60363e-11
1.1704e-11
8.34324e-12
5.80641e-12
3.94463e-12
2.61656e-12
1.69556e-12
1.07416e-12
6.65792e-13
4.03983e-13
2.39976e-13
1.39444e-13
7.91043e-14
4.36643e-14
2.33441e-14
1.20197e-14
5.9216e-15
2.7712e-15
1.22208e-15
5.0331e-16
1.91602e-16
6.65943e-17
2.0807e-17
5.72128e-18
1.3398e-18
1.29248e-08
1.20546e-08
1.10786e-08
9.86702e-09
8.50635e-09
7.26237e-09
6.39501e-09
6.08837e-09
6.37343e-09
7.09751e-09
7.9778e-09
8.80157e-09
8.67189e-09
7.57945e-09
2.73653e-08
2.49295e-08
2.05931e-08
1.5284e-08
9.3777e-09
4.55364e-09
1.67691e-09
4.43933e-10
7.88147e-11
8.51636e-12
5.29086e-13
2.97691e-14
4.67621e-15
1.25706e-15
3.66519e-16
1.079e-16
3.15881e-17
9.16239e-18
2.62383e-18
7.3929e-19
2.04277e-19
5.51793e-20
1.45266e-20
3.71619e-21
9.21137e-22
2.20603e-22
5.08994e-23
1.12794e-23
2.39179e-24
4.82745e-25
9.19159e-26
1.62405e-26
2.5815e-27
3.48037e-28
3.53807e-29
2.02502e-30
3.30998e-07
3.32316e-07
3.34538e-07
3.34191e-07
3.27511e-07
3.18488e-07
3.08044e-07
2.96726e-07
2.84281e-07
4.24534e-07
4.0394e-06
4.80554e-05
0.000113004
0.000113002
0.000113001
0.000113002
0.000112994
0.000112987
5.27748e-05
7.08678e-06
3.55836e-07
2.96126e-07
2.95206e-07
4.39479e-07
7.17559e-06
9.32355e-05
0.000132422
0.000132938
9.08573e-05
1.89249e-05
7.96459e-07
1.65709e-06
2.16619e-05
9.09472e-05
9.38041e-05
9.36755e-05
9.38051e-05
4.95394e-05
1.21173e-05
7.02148e-06
6.26425e-06
2.92544e-06
4.53112e-07
2.96242e-07
2.93615e-07
2.92877e-07
2.92735e-07
2.94506e-07
2.59491e-06
2.19866e-05
2.56024e-05
2.44351e-05
5.86884e-06
4.19131e-06
4.08552e-05
3.55396e-05
1.37268e-05
2.15564e-06
5.32003e-07
5.27985e-07
5.58217e-07
8.67973e-06
8.3394e-05
0.000106726
7.17099e-05
1.48217e-05
8.44075e-07
3.93344e-07
3.85777e-07
1.05615e-06
1.8776e-05
4.57471e-05
4.12853e-05
1.08065e-05
5.02038e-06
5.02368e-06
3.22844e-05
6.3713e-05
6.36753e-05
4.71169e-05
1.04921e-05
9.75867e-07
2.02437e-06
3.96626e-06
1.65263e-06
3.47032e-07
3.28544e-07
3.2822e-07
3.28045e-07
3.27898e-07
3.27757e-07
3.27605e-07
3.27603e-07
6.0075e-07
3.81883e-06
2.05936e-06
4.3515e-07
3.33577e-07
3.31916e-07
3.3188e-07
3.32049e-07
4.73891e-07
1.0477e-05
9.41744e-06
3.29603e-06
4.58772e-07
3.59741e-07
3.58368e-07
3.58364e-07
4.45462e-07
5.75171e-06
1.09213e-05
4.2723e-06
6.5252e-07
5.00979e-07
4.99493e-07
4.99491e-07
8.81606e-07
7.02511e-06
7.67244e-06
3.96294e-06
6.67368e-07
4.87269e-07
7.55222e-07
8.75626e-06
1.16163e-05
9.00775e-06
2.03197e-06
4.65986e-07
4.60379e-07
4.67525e-07
4.90033e-07
6.79898e-07
3.78567e-06
4.4117e-06
4.05958e-06
1.24369e-06
4.59788e-07
4.56595e-07
4.99203e-07
5.01604e-07
4.62527e-07
4.35535e-07
9.53205e-07
1.2671e-06
9.64724e-07
6.84737e-07
7.94049e-07
1.50601e-06
1.35934e-06
6.90666e-07
3.4048e-07
3.48563e-07
3.61805e-07
3.67284e-07
4.16109e-07
5.81809e-07
4.18433e-07
4.01129e-07
3.69813e-07
3.69759e-07
3.65328e-07
4.93096e-07
5.2172e-07
4.2824e-07
3.73773e-07
3.23607e-07
2.90225e-07
2.58356e-07
2.26608e-07
1.96299e-07
1.69028e-07
1.45531e-07
1.25716e-07
1.09167e-07
9.55323e-08
8.46468e-08
7.6459e-08
7.0907e-08
6.78739e-08
6.7297e-08
6.93439e-08
7.54054e-08
8.67306e-08
1.03256e-07
1.27024e-07
1.56926e-07
1.9487e-07
2.39566e-07
2.87775e-07
3.56715e-07
4.26302e-07
5.65548e-07
6.7563e-07
7.60454e-07
8.82957e-07
9.76296e-07
1.07101e-06
1.11585e-06
1.27989e-06
1.2554e-06
1.17788e-06
2.10553e-06
1.49261e-06
1.36661e-06
1.31987e-06
3.33834e-06
2.17564e-06
1.24138e-06
2.96581e-06
6.95693e-06
4.24851e-06
2.08549e-06
1.17209e-06
1.35321e-06
1.23627e-06
5.24658e-06
7.03901e-06
2.76197e-06
1.7847e-06
1.78285e-06
1.83791e-06
1.93167e-06
2.80816e-06
7.54417e-06
1.3499e-05
6.83508e-06
4.26389e-06
4.27555e-06
3.85474e-06
2.85709e-06
1.9802e-06
1.63823e-06
1.56412e-06
2.39624e-06
9.9821e-06
1.61311e-05
1.61332e-05
1.31012e-05
6.85984e-06
3.53212e-06
1.34109e-06
9.43115e-07
8.18957e-07
8.16761e-07
7.76932e-07
6.89227e-07
6.07889e-07
5.26986e-07
4.419e-07
3.55071e-07
2.71854e-07
1.97502e-07
1.3571e-07
8.80117e-08
5.38423e-08
3.11282e-08
1.71073e-08
9.06161e-09
4.76944e-09
2.65162e-09
1.70805e-09
1.36478e-09
1.3193e-09
1.42363e-09
1.61075e-09
1.85402e-09
2.14694e-09
2.50252e-09
2.96523e-09
3.61066e-09
4.5287e-09
5.81636e-09
7.55535e-09
9.82453e-09
1.26801e-08
1.63652e-08
2.10564e-08
2.65758e-08
3.25463e-08
3.88535e-08
4.58572e-08
5.38103e-08
6.19724e-08
6.95957e-08
7.78281e-08
8.81292e-08
9.87957e-08
1.0537e-07
1.06075e-07
1.01319e-07
9.76427e-08
9.75243e-08
9.49439e-08
9.28822e-08
8.9043e-08
8.24827e-08
7.52412e-08
6.80567e-08
6.45711e-08
1.96756e-06
3.27416e-06
3.25995e-06
3.09865e-06
1.29744e-06
3.63814e-07
4.55566e-07
5.84873e-06
1.16186e-05
1.15239e-05
6.48105e-06
2.00719e-06
4.5103e-06
5.12615e-05
3.79006e-05
1.41994e-05
2.99395e-06
2.34721e-06
1.00278e-05
1.31134e-05
1.3147e-05
3.40178e-06
4.68156e-06
2.41417e-05
3.6841e-05
2.76194e-05
7.98648e-06
3.69867e-06
9.08461e-06
5.58189e-06
1.27384e-06
1.8905e-06
1.10544e-05
4.04679e-05
1.99993e-05
5.46595e-06
1.49625e-06
4.79925e-07
3.965e-07
3.76238e-07
3.60633e-07
3.60826e-07
9.95612e-07
9.53863e-06
1.22226e-05
1.2319e-05
5.63773e-06
7.60119e-07
1.67882e-06
1.71711e-05
1.0785e-05
2.81546e-06
1.06638e-06
1.07081e-06
2.44237e-06
2.05561e-05
2.88335e-05
2.88039e-05
2.25659e-05
4.9147e-06
1.71966e-06
1.54689e-05
5.65878e-05
2.57781e-05
4.16885e-06
9.01743e-07
8.86249e-07
5.79221e-06
2.90479e-05
3.08582e-05
2.74733e-05
8.77042e-06
8.70651e-07
1.75199e-06
1.26954e-05
1.63408e-05
1.59586e-05
6.63701e-06
2.4137e-06
9.16819e-07
5.96671e-07
5.93967e-07
4.83642e-06
7.85783e-06
7.81006e-06
5.49933e-06
2.11872e-06
1.23271e-06
6.63311e-07
3.33251e-07
3.27749e-07
3.27605e-07
3.27603e-07
5.8845e-07
5.26377e-06
3.06203e-06
6.95438e-07
3.36342e-07
3.31978e-07
3.3188e-07
3.31879e-07
7.5602e-07
1.3773e-06
5.81446e-07
3.63295e-07
3.60061e-07
3.59002e-07
3.58368e-07
3.58363e-07
7.70083e-07
7.88134e-06
1.10072e-05
1.10384e-05
5.99094e-06
8.75905e-07
5.01325e-07
5.66271e-07
4.95495e-06
8.05193e-06
7.63561e-06
2.3707e-06
6.76757e-07
3.74478e-06
1.31885e-05
1.34078e-05
1.11546e-05
3.0372e-06
4.70802e-07
4.60026e-07
4.6004e-07
6.99472e-07
2.31277e-06
2.37755e-06
1.5121e-06
5.74746e-07
4.79573e-07
4.7607e-07
4.56915e-07
4.56714e-07
1.4852e-06
1.70942e-06
1.58636e-06
5.38623e-07
4.2601e-07
4.24784e-07
4.09141e-07
1.15184e-06
1.53484e-06
1.05054e-06
3.87892e-07
3.81977e-07
3.89461e-07
4.06254e-07
4.23979e-07
4.50462e-07
4.31013e-07
4.10227e-07
3.94443e-07
3.72691e-07
3.47129e-07
3.20575e-07
2.93209e-07
2.64295e-07
2.41379e-07
2.19634e-07
1.97619e-07
1.76075e-07
1.55223e-07
1.35189e-07
1.16198e-07
9.86246e-08
8.29195e-08
6.94865e-08
5.85782e-08
5.02495e-08
4.43755e-08
4.07256e-08
3.90751e-08
3.9339e-08
4.17293e-08
4.7006e-08
5.61901e-08
7.55274e-08
1.05723e-07
1.40046e-07
1.89373e-07
2.41713e-07
3.02078e-07
3.82575e-07
4.37254e-07
5.87206e-07
6.50505e-07
1.01879e-06
1.04473e-06
1.05999e-06
1.37515e-06
1.51461e-06
1.6241e-06
1.59992e-06
1.95389e-06
1.30754e-06
3.05515e-06
2.1543e-06
2.41358e-06
2.33184e-06
3.15396e-06
3.33586e-06
3.73272e-06
4.52954e-06
8.10088e-06
6.96071e-06
3.98504e-06
3.55285e-06
3.01687e-06
2.82539e-06
3.04739e-06
6.45814e-06
7.03437e-06
4.14896e-06
3.16322e-06
2.47456e-06
2.1552e-06
2.08973e-06
2.16416e-06
2.61603e-06
2.87634e-06
2.98811e-06
2.5496e-06
2.12316e-06
1.90699e-06
1.78118e-06
1.86179e-06
2.22472e-06
5.32943e-06
9.39124e-06
9.68971e-06
5.70319e-06
3.26802e-06
1.90253e-06
1.21233e-06
9.05872e-07
8.65968e-07
7.79379e-07
7.19336e-07
6.71555e-07
6.10771e-07
5.40646e-07
4.66717e-07
3.9085e-07
3.15942e-07
2.45606e-07
1.83137e-07
1.30814e-07
8.95601e-08
5.89573e-08
3.75767e-08
2.34676e-08
1.46299e-08
9.34536e-09
6.3211e-09
4.68613e-09
3.9085e-09
3.69406e-09
3.90174e-09
4.48766e-09
5.47655e-09
6.95418e-09
9.06921e-09
1.20751e-08
1.64022e-08
2.25502e-08
3.09462e-08
4.18974e-08
5.54815e-08
7.1518e-08
8.95743e-08
1.13021e-07
1.44057e-07
1.76584e-07
2.05256e-07
2.31038e-07
2.59294e-07
2.98438e-07
3.3893e-07
3.77037e-07
4.2466e-07
4.99623e-07
5.71757e-07
6.18361e-07
6.33586e-07
5.82419e-07
5.68825e-07
5.62472e-07
5.29769e-07
5.22265e-07
5.46711e-07
4.96243e-07
4.58247e-07
4.34953e-07
4.41349e-07
1.13954e-06
9.75926e-07
9.64088e-07
9.65217e-07
9.75091e-07
1.46455e-06
1.10272e-06
1.0136e-06
9.47438e-07
9.34799e-07
9.33688e-07
9.29494e-07
9.16375e-07
9.03373e-07
9.16807e-07
8.87651e-07
9.12269e-07
1.40119e-06
1.51156e-06
1.40298e-06
1.24209e-06
1.16592e-06
1.07898e-06
1.27785e-06
1.31159e-06
1.3978e-06
3.93419e-06
3.10562e-06
1.51146e-06
1.45432e-06
2.47155e-06
1.73066e-06
1.70428e-06
1.67461e-06
1.46134e-06
1.31241e-06
1.25521e-06
1.44221e-06
6.48049e-06
7.30786e-06
6.15417e-06
1.71092e-06
1.2869e-06
1.34192e-06
1.20108e-06
1.08123e-06
2.08106e-06
6.88279e-06
7.05133e-06
3.91704e-06
1.08709e-06
1.06144e-06
1.06134e-06
1.68073e-06
1.4113e-05
2.51404e-05
1.3152e-05
2.77951e-06
1.68027e-06
3.41029e-06
6.07924e-06
5.23432e-06
1.67834e-06
1.45449e-06
2.26949e-06
1.00528e-05
1.08395e-05
8.46125e-06
3.01577e-06
1.37182e-06
8.85512e-07
7.34083e-07
7.11957e-07
8.61926e-07
1.79144e-06
5.48358e-06
1.2031e-05
8.41821e-06
4.60732e-06
1.9203e-06
1.26815e-06
8.81201e-07
8.9208e-07
9.04039e-07
9.34422e-07
1.87765e-06
4.78822e-06
4.79369e-06
3.7047e-06
9.44412e-07
3.33894e-07
3.64531e-07
6.05745e-07
4.98242e-06
6.84254e-06
6.8447e-06
3.81158e-06
6.21332e-07
3.38424e-07
3.60859e-07
1.71095e-06
4.33753e-06
4.33056e-06
1.40446e-06
3.04314e-06
4.06723e-06
4.0947e-06
2.45138e-06
5.68127e-07
2.36261e-06
4.52139e-06
1.84361e-06
5.18443e-07
5.11617e-07
5.0769e-07
9.47677e-07
1.21455e-06
7.8528e-07
5.9581e-07
5.90112e-07
5.81575e-07
5.73433e-07
5.66135e-07
5.57817e-07
5.45611e-07
5.30436e-07
5.12379e-07
4.70712e-07
1.59196e-06
1.8184e-06
7.03994e-07
4.67818e-07
4.65504e-07
4.55648e-07
5.49173e-07
5.9466e-07
5.14e-07
5.09213e-07
8.63768e-07
1.11589e-06
5.65931e-07
5.38041e-07
5.20007e-07
4.94129e-07
4.61838e-07
3.89463e-07
1.25611e-06
1.5443e-06
6.34664e-07
4.43764e-07
3.89511e-07
3.58574e-07
3.37002e-07
3.20317e-07
3.02953e-07
2.83951e-07
2.63061e-07
2.40726e-07
2.17324e-07
1.93234e-07
1.69122e-07
1.45872e-07
1.24307e-07
1.04966e-07
8.8056e-08
7.35289e-08
6.12049e-08
5.08795e-08
4.23782e-08
3.55629e-08
3.03122e-08
2.64985e-08
2.39797e-08
2.26089e-08
2.22632e-08
2.28838e-08
2.45248e-08
2.74248e-08
3.21272e-08
3.97152e-08
5.23463e-08
6.93983e-08
1.12234e-07
1.75119e-07
2.09367e-07
2.58687e-07
3.89509e-07
3.24265e-07
6.60012e-07
4.71151e-07
9.94047e-07
6.16217e-07
1.95383e-06
9.61841e-07
8.53925e-07
1.87738e-06
1.49823e-06
2.62255e-06
1.2985e-06
3.18128e-06
1.41299e-06
1.50373e-06
2.18642e-06
3.78687e-06
2.95866e-06
4.87701e-06
4.63803e-06
3.89765e-06
5.39595e-06
8.02822e-06
7.27035e-06
4.01907e-06
3.09897e-06
2.83657e-06
2.42129e-06
2.41986e-06
2.77797e-06
2.52996e-06
2.01174e-06
2.15204e-06
2.66396e-06
2.93625e-06
3.20426e-06
3.56479e-06
7.58706e-06
2.57567e-06
4.17987e-06
2.28588e-06
3.40976e-06
1.75187e-06
2.3127e-06
2.45844e-06
3.75802e-06
2.72067e-06
2.41803e-06
1.57978e-06
1.1494e-06
1.04811e-06
9.27493e-07
7.99035e-07
7.23913e-07
6.71693e-07
6.14343e-07
5.61748e-07
5.08175e-07
4.51614e-07
3.93593e-07
3.35824e-07
2.80066e-07
2.28132e-07
1.81573e-07
1.41443e-07
1.08182e-07
8.16575e-08
6.13158e-08
4.63751e-08
3.5992e-08
2.9368e-08
2.5814e-08
2.4778e-08
2.58545e-08
2.87886e-08
3.34794e-08
3.99866e-08
4.85444e-08
5.95813e-08
7.37116e-08
9.17148e-08
1.14873e-07
1.44564e-07
1.8193e-07
2.27518e-07
2.815e-07
3.43016e-07
4.09294e-07
4.76157e-07
5.80661e-07
7.97094e-07
9.48087e-07
9.40901e-07
9.03954e-07
8.83972e-07
1.00939e-06
1.09402e-06
1.1747e-06
1.32636e-06
1.60164e-06
1.59633e-06
4.32948e-06
3.04476e-06
1.37992e-06
1.44121e-06
1.68533e-06
1.26136e-06
1.72292e-06
7.93135e-06
5.96745e-06
1.82794e-06
1.76694e-06
2.15604e-06
1.00528e-06
1.00781e-06
1.00896e-06
1.00786e-06
9.81703e-07
9.85011e-07
9.80559e-07
9.57535e-07
9.64208e-07
9.89645e-07
1.06105e-06
9.89019e-07
8.31803e-07
7.68673e-07
1.09522e-06
9.01347e-07
1.03119e-06
1.38459e-06
1.51452e-06
1.03468e-06
9.49827e-07
1.02987e-06
1.02578e-06
1.10602e-06
1.60424e-06
1.47031e-06
8.57879e-07
1.05437e-06
1.51499e-06
9.4894e-07
9.92068e-07
1.51172e-06
1.71418e-06
8.33709e-07
1.0555e-06
1.0653e-06
2.18309e-06
2.26045e-06
9.3135e-07
1.06858e-06
1.24027e-06
2.52228e-06
2.53469e-06
1.26745e-06
1.10966e-06
1.07855e-06
2.75939e-06
3.34896e-06
8.16847e-07
1.47788e-06
2.97594e-06
2.96938e-06
1.49825e-06
2.75499e-06
3.4165e-06
1.65753e-06
1.42002e-06
1.5995e-06
1.67572e-06
3.4001e-06
1.05279e-06
1.73039e-06
1.74349e-06
2.31573e-06
2.94402e-06
2.20254e-06
1.56509e-06
1.42031e-06
1.4108e-06
2.45476e-06
1.94963e-06
2.21869e-06
1.72422e-06
2.12109e-06
2.07863e-06
2.61338e-06
2.18903e-06
1.96913e-06
1.32984e-06
1.2571e-06
1.47181e-06
1.61354e-06
1.59852e-06
1.25777e-06
2.49639e-06
1.95023e-06
1.66617e-06
1.57031e-06
1.60013e-06
1.82703e-06
1.27174e-06
1.54052e-06
2.19012e-06
2.09847e-06
1.28339e-06
1.27496e-06