/*--------------------------------*- C++ -*----------------------------------*\
| =========                 |                                                 |
| \\      /  F ield         | OpenFOAM: The Open Source CFD Toolbox           |
|  \\    /   O peration     | Version:  2.4.0                                 |
|   \\  /    A nd           | Web:      www.OpenFOAM.org                      |
|    \\/     M anipulation  |                                                 |
\*---------------------------------------------------------------------------*/
FoamFile
{
    version     2.0;
    format      ascii;
    class       volScalarField;
    location    "2";
    object      H;
}
// * * * * * * * * * * * * * * * * * * * * * * * * * * * * * * * * * * * * * //

dimensions      [0 2 -2 0 0 0 0];

internalField   nonuniform List<scalar> 
8000
(
-11953.2
-11398.5
-10840.8
-10279.5
-9714.99
-9148.96
-8583.84
-8022.81
-7469.53
-6927.86
-6401.68
-5894.63
-5409.95
-4950.34
-4517.85
-4113.87
-3739.07
-3393.53
-3076.71
-2787.61
-2524.85
-2286.75
-2071.46
-1877.05
-1701.54
-1543.03
-1399.68
-1269.8
-1151.83
-1044.34
-946.078
-855.926
-772.891
-696.089
-624.719
-558.06
-495.515
-436.653
-381.07
-328.589
-279.274
-232.719
-188.695
-146.908
-107.119
-69.381
-34.5427
-0.471319
-0.0473242
-0.00293633
-11942.8
-11367.9
-10791.5
-10213.8
-9635.64
-9059.02
-8486.58
-7921.53
-7367.39
-6827.79
-6306.26
-5806.02
-5329.83
-4879.92
-4457.88
-4064.67
-3700.63
-3365.51
-3058.56
-2778.63
-2524.22
-2293.63
-2085
-1896.42
-1725.99
-1571.84
-1432.23
-1305.54
-1190.27
-1085.09
-988.808
-900.389
-818.92
-743.611
-673.733
-608.641
-548.03
-491.446
-438.518
-388.941
-342.431
-298.736
-257.635
-218.93
-182.417
-147.815
-114.596
-81.5333
-45.7509
-0.631508
-11939.7
-11359
-10778.7
-10199.8
-9623.68
-9052.64
-8489.29
-7936.56
-7397.52
-6875.21
-6372.46
-5891.81
-5435.34
-5004.68
-4600.89
-4224.53
-3875.62
-3553.73
-3258.02
-2987.3
-2740.15
-2514.96
-2310.02
-2123.55
-1953.81
-1799.09
-1657.79
-1528.39
-1409.53
-1299.95
-1198.54
-1104.32
-1016.43
-934.149
-856.84
-783.977
-715.123
-649.918
-588.075
-529.364
-473.61
-420.684
-370.496
-322.987
-278.122
-235.881
-196.24
-159.155
-124.527
-92.1677
-11947.1
-11381.9
-10818.6
-10259
-9704.91
-9158.6
-8622.4
-8098.75
-7590.04
-7098.57
-6626.4
-6175.32
-5746.76
-5341.76
-4960.99
-4604.68
-4272.69
-3964.55
-3679.44
-3416.34
-3174
-2951.03
-2745.97
-2557.28
-2383.45
-2222.99
-2074.48
-1936.58
-1808.03
-1687.7
-1574.56
-1467.7
-1366.31
-1269.71
-1177.32
-1088.65
-1003.3
-920.993
-841.495
-764.671
-690.467
-618.908
-550.083
-484.137
-421.256
-361.661
-305.591
-253.286
-204.939
-161.106
-11956.7
-11411.3
-10869
-10332.1
-9802.66
-9282.96
-8775.13
-8281.24
-7803.21
-7342.76
-6901.36
-6480.21
-6080.19
-5701.85
-5345.44
-5010.88
-4697.8
-4405.59
-4133.4
-3880.19
-3644.81
-3425.97
-3222.34
-3032.56
-2855.28
-2689.16
-2532.92
-2385.37
-2245.37
-2111.89
-1983.99
-1860.84
-1741.72
-1626
-1513.18
-1402.82
-1294.63
-1188.31
-1083.75
-981.007
-880.272
-781.905
-686.312
-593.98
-505.474
-421.392
-342.36
-269.036
-201.826
-141.201
-11971
-11454.4
-10941.7
-10435.4
-9937.74
-9450.78
-8976.49
-8516.56
-8072.47
-7645.48
-7236.55
-6846.39
-6475.44
-6123.86
-5791.55
-5478.2
-5183.25
-4905.97
-4645.47
-4400.72
-4170.61
-3953.94
-3749.5
-3556.07
-3372.42
-3197.36
-3029.75
-2868.48
-2712.55
-2561.02
-2413.02
-2267.82
-2124.76
-1983.31
-1843.03
-1703.57
-1564.75
-1426.54
-1289.06
-1152.61
-1017.69
-884.937
-755.186
-629.464
-509.028
-394.884
-288.19
-191.485
-101.493
-17.5516
-11986.8
-11501.8
-11021.1
-10547.4
-10082.8
-9629.31
-9188.57
-8761.98
-8350.66
-7955.45
-7576.92
-7215.38
-6870.9
-6543.31
-6232.26
-5937.17
-5657.35
-5391.95
-5140.01
-4900.51
-4672.35
-4454.43
-4245.62
-4044.78
-3850.83
-3662.67
-3479.28
-3299.68
-3122.92
-2948.14
-2774.54
-2601.4
-2428.08
-2254.07
-2078.99
-1902.63
-1724.97
-1546.26
-1366.98
-1187.92
-1010.15
-835.171
-664.582
-500.414
-347.734
-203.259
-64.1229
-0.749119
-0.0156061
-0.00155328
-12003.6
-11552.5
-11105.7
-10665.9
-10235.1
-9815
-9407.05
-9012.29
-8631.49
-8265.14
-7913.44
-7576.39
-7253.76
-6945.12
-6649.91
-6367.39
-6096.76
-5837.1
-5587.45
-5346.8
-5114.12
-4888.37
-4668.52
-4453.54
-4242.45
-4034.26
-3828.01
-3622.8
-3417.72
-3211.93
-3004.64
-2795.1
-2582.7
-2366.91
-2147.43
-1924.17
-1697.4
-1467.85
-1236.69
-1005.46
-776.017
-555.562
-343.467
-131.524
-1.53802
-0.031889
-0.00550072
-0.00504816
-0.000112936
7.13532e-07
-12020.3
-11602.5
-11188.9
-10781.9
-10383.3
-9994.4
-9616.38
-9249.9
-8895.39
-8552.99
-8222.6
-7903.95
-7596.56
-7299.84
-7013.08
-6735.48
-6466.18
-6204.3
-5948.9
-5699.06
-5453.86
-5212.35
-4973.61
-4736.74
-4500.82
-4264.92
-4028.13
-3789.54
-3548.2
-3303.21
-3053.67
-2798.75
-2537.7
-2269.95
-1995.18
-1713.49
-1425.56
-1133.24
-838.764
-544.108
-225.075
-2.57397
-0.0548299
-0.0113503
-0.000395657
-1.60411e-05
2.17062e-05
0.000160923
0.00146124
0.00793823
-12035.8
-11648.8
-11265.5
-10887.9
-10517.4
-10154.9
-9801.29
-9456.77
-9121.46
-8795.21
-8477.72
-8168.51
-7867
-7572.51
-7284.33
-7001.71
-6723.84
-6449.96
-6179.28
-5910.99
-5644.32
-5378.46
-5112.61
-4845.91
-4577.49
-4306.43
-4031.73
-3752.37
-3467.25
-3175.26
-2875.27
-2566.21
-2247.1
-1917.22
-1576.14
-1223.99
-860.443
-487.231
-116.126
-1.45526
-0.0394845
-0.000980571
-8.18431e-05
6.55421e-05
0.000767207
0.00262916
0.0145911
0.104877
0.822932
1.45211
-12047.9
-11684.8
-11324.6
-10968.6
-10617.9
-10272.9
-9934.09
-9601.39
-9274.7
-8953.72
-8638.03
-8327.14
-8020.49
-7717.51
-7417.6
-7120.16
-6824.6
-6530.33
-6236.75
-5943.26
-5649.22
-5353.93
-5056.66
-4756.57
-4452.71
-4144.04
-3829.4
-3507.53
-3177.09
-2836.74
-2485.06
-2120.72
-1742.4
-1349.08
-938.851
-507.311
-48.6471
-0.643308
-0.0240835
-0.00210128
0.000538743
0.00148821
0.0110131
0.0859794
0.708626
1.27829
1.81129
2.32465
2.83445
3.33268
-12054.7
-11704.9
-11356.7
-11011
-10668.2
-10328.6
-9992.26
-9659.04
-9328.73
-9001.05
-8675.64
-8352.14
-8030.19
-7709.43
-7389.5
-7070.08
-6750.81
-6431.36
-6111.33
-5790.27
-5467.65
-5142.81
-4814.93
-4483.08
-4146.13
-3802.78
-3451.6
-3091.11
-2719.86
-2336.42
-1939.2
-1526.27
-1095.44
-643.074
-152.463
-1.76461
-0.053272
-0.00434379
0.00322287
0.0378718
0.324302
0.599697
0.87983
1.16758
1.48141
1.82412
2.18269
2.54981
2.91894
3.28522
-12056.2
-11708.6
-11361.6
-11015.2
-10669.5
-10324.6
-9980.38
-9636.69
-9293.43
-8950.44
-8607.61
-8264.84
-7922.08
-7579.29
-7236.46
-6893.55
-6550.54
-6207.3
-5863.63
-5519.19
-5173.4
-4825.39
-4473.97
-4117.95
-3756.3
-3387.27
-3009.04
-2620.04
-2218.91
-1803.98
-1372.13
-919.097
-448.633
-4.34977
-0.125114
-0.0700881
-0.00738943
0.0362341
0.318245
0.593169
0.863559
1.13064
1.40113
1.67837
1.9647
2.26123
2.5673
2.88136
3.20163
3.5263
-12052.6
-11697.5
-11341.9
-10985.5
-10628.2
-10269.9
-9910.43
-9549.92
-9188.39
-8825.97
-8462.9
-8099.45
-7735.97
-7372.83
-7010.41
-6649.06
-6289.07
-5930.61
-5573.65
-5217.96
-4862.95
-4507.69
-4150.79
-3790.49
-3424.72
-3051.34
-2668.11
-2272.83
-1863.09
-1434.99
-981.322
-496.533
-4.71507
-2.67343
-1.2372
-0.130201
0.798638
1.6791
2.54367
3.39339
4.22762
5.04093
5.8371
6.62341
7.40573
8.18734
8.96827
9.7527
10.5411
11.3299
-12043.4
-11669.7
-11295
-10918.8
-10540.9
-10161.1
-9779.45
-9396.23
-9011.85
-8626.88
-8242
-7858.01
-7475.78
-7096.17
-6720.07
-6348.29
-5981.56
-5620.42
-5265.2
-4915.92
-4572.19
-4233.06
-3896.92
-3561.23
-3222.51
-2880.01
-2529.47
-2165.93
-1783.43
-1375.23
-936.6
-472.824
-4.91221
-0.731891
-0.617076
-0.140905
0.245569
2.34816
4.4777
6.74354
9.09149
11.4576
13.7988
16.1043
18.3557
20.533
22.6174
24.5891
26.4314
28.1275
-12027
-11620.2
-11211.2
-10799.2
-10384.1
-9965.87
-9545.09
-9122.59
-8699.48
-8277.04
-7856.7
-7439.96
-7028.36
-6623.44
-6226.71
-5839.59
-5463.36
-5099.17
-4747.9
-4410.16
-4086.17
-3775.71
-3478
-3191.63
-2914.45
-2643.53
-2375.07
-2104.52
-1826.76
-1536.75
-1230.66
-913.57
-587.777
-257.941
-3.23698
-0.421918
-0.0248392
0.0704585
0.64342
5.62472
10.3604
15.129
20.032
25.0728
30.0475
34.7928
39.2465
43.3651
47.1119
50.4412
-11998.5
-11534
-11066.1
-10593.8
-10117.3
-9637.28
-9155.08
-8672.43
-8191.26
-7713.61
-7241.57
-6777.21
-6322.59
-5879.69
-5450.45
-5036.71
-4640.19
-4262.42
-3904.7
-3568.02
-3252.96
-2959.69
-2687.87
-2436.62
-2204.48
-1989.42
-1788.79
-1599.42
-1417.73
-1240.02
-1062.99
-884.29
-703.156
-520.606
-339.175
-160.15
-1.92147
-0.0917772
-0.00257163
0.006532
0.0306083
0.212258
1.63009
13.1189
23.3428
32.5398
40.9525
48.8427
56.6762
64.3669
-11962.7
-11427
-10888.7
-10348
-9805.94
-9264.18
-8724.76
-8189.75
-7661.16
-7140.92
-6630.86
-6132.78
-5648.47
-5179.79
-4728.61
-4296.85
-3886.4
-3499.05
-3136.37
-2799.56
-2489.39
-2206.07
-1949.28
-1718.11
-1511.19
-1326.67
-1162.37
-1015.87
-884.563
-765.785
-656.882
-555.309
-458.724
-365.105
-272.83
-180.86
-88.4555
-0.836338
-0.0194315
-0.0060001
-0.000215737
8.29167e-05
0.00128416
0.0113308
0.0249965
0.0742222
0.436613
3.41807
28.5067
51.5391
-11928.3
-11325.6
-10726.2
-10133.4
-9550.51
-8979.41
-8421.15
-7876.07
-7344.1
-6825.09
-6318.96
-5825.89
-5346.42
-4881.48
-4432.42
-4000.95
-3589.16
-3199.42
-2834.1
-2495.15
-2183.95
-1901.26
-1647.12
-1420.89
-1221.35
-1046.74
-895.01
-763.843
-650.844
-553.616
-469.85
-397.381
-334.227
-278.595
-228.873
-183.623
-141.609
-101.97
-64.4673
-29.2058
-0.277614
-0.00696916
-0.00171931
-6.7605e-05
7.97043e-05
0.00274778
0.122628
2.22811
35.0794
67.5575
-11747.2
-10930.5
-10216.2
-9574.62
-8986.03
-8436.69
-7916.79
-7419.16
-6938.57
-6471.23
-6014.5
-5566.74
-5127.13
-4695.58
-4272.5
-3858.75
-3455.56
-3068.27
-2703.79
-2364.12
-2051.22
-1766.52
-1510.67
-1283.49
-1084.04
-910.785
-761.713
-634.55
-526.882
-436.283
-360.41
-297.074
-244.29
-200.3
-163.581
-132.836
-106.971
-85.0684
-66.3454
-50.1245
-35.8189
-22.9437
-11.0557
-0.101456
-0.000659387
0.0302308
0.0613667
0.0884453
0.0987793
8.91847
-0.168455
-0.313917
-0.443537
-0.581032
-0.732804
-0.897457
-1.05207
-1.1611
-1.27067
-1.41632
-1.56998
-1.71835
-1.85866
-1.99148
-2.11794
-2.23919
-2.35623
-2.46904
-2.57803
-2.68332
-2.78488
-2.88287
-2.97712
-3.06788
-3.15505
-3.23872
-3.31884
-3.39535
-3.46815
-3.53701
-3.60138
-3.66118
-3.71582
-3.76469
-3.80733
-3.84381
-3.87444
-3.89931
-3.91865
-3.93295
-3.94254
-3.94755
-3.94787
-3.94167
-3.92994
-3.91381
-3.89331
-3.87058
-3.84635
-3.82086
-0.0726575
-0.0357807
-0.00594656
-0.0667356
-0.135526
-0.212084
-0.305922
-0.430489
-0.571411
-0.690968
-0.831658
-0.995317
-1.16289
-1.32885
-1.49222
-1.65272
-1.81058
-1.9655
-2.11777
-2.26731
-2.41423
-2.55868
-2.70052
-2.84007
-2.97719
-3.11209
-3.24444
-3.37429
-3.50151
-3.62573
-3.74674
-3.8643
-3.9782
-4.08808
-4.19364
-4.29459
-4.39088
-4.4824
-4.56926
-4.65138
-4.72875
-4.80092
-4.86765
-4.92854
-4.98332
-5.03166
-5.07351
-5.10872
-5.13683
-5.15752
-61.721
-32.2157
-4.15305
-0.0768771
-0.0125281
-0.0307364
-0.0662198
-0.126509
-0.222195
-0.360296
-0.485306
-0.646944
-0.825273
-1.00295
-1.17861
-1.35258
-1.52506
-1.69628
-1.8663
-2.03524
-2.20309
-2.36974
-2.53534
-2.69966
-2.86255
-3.02409
-3.18418
-3.34275
-3.49983
-3.65528
-3.8093
-3.96153
-4.11217
-4.26089
-4.40768
-4.55232
-4.69459
-4.83417
-4.97085
-5.10427
-5.23403
-5.35968
-5.48076
-5.59678
-5.70724
-5.81175
-5.9099
-6.00139
-6.08596
-6.16341
-121.953
-87.2891
-57.3465
-32.2544
-9.78808
-0.101274
-0.0614265
-0.0616597
-0.101518
-0.185924
-0.307335
-0.436619
-0.597856
-0.761134
-0.923766
-1.08599
-1.2477
-1.40915
-1.57032
-1.73076
-1.89034
-2.0493
-2.20778
-2.36597
-2.52443
-2.68338
-2.84319
-3.00413
-3.16618
-3.32973
-3.49472
-3.66115
-3.82888
-3.99784
-4.16767
-4.33823
-4.50886
-4.67948
-4.84952
-5.01853
-5.18599
-5.35132
-5.51389
-5.6731
-5.82833
-5.97895
-6.12437
-6.26401
-6.39733
-6.52383
-88.4213
-39.2792
-0.432995
-0.00682773
-0.000805906
-0.0117396
-0.0388134
-0.093841
-0.179734
-0.264449
-0.36073
-0.469595
-0.576308
-0.679623
-0.779721
-0.877083
-0.972382
-1.06643
-1.16014
-1.25439
-1.3501
-1.4481
-1.54923
-1.65422
-1.76374
-1.87832
-1.99834
-2.12404
-2.25556
-2.39296
-2.53618
-2.68511
-2.83952
-2.99913
-3.1636
-3.33248
-3.50529
-3.6816
-3.86096
-4.0429
-4.2269
-4.41228
-4.59838
-4.78445
-4.96977
-5.15356
-5.33516
-5.51388
-5.68909
-5.86019
-0.207377
-0.00496866
-0.000101723
-0.000925273
-0.000996333
-7.87703e-05
-0.00185441
-0.0307005
-0.057119
-0.0849709
-0.109988
-0.132602
-0.152629
-0.170205
-0.184899
-0.196844
-0.207647
-0.218903
-0.232139
-0.248752
-0.26999
-0.296925
-0.330454
-0.371297
-0.419999
-0.476937
-0.542336
-0.616287
-0.698764
-0.789644
-0.888717
-0.995697
-1.11023
-1.23193
-1.36036
-1.49505
-1.63555
-1.7814
-1.93216
-2.08735
-2.24648
-2.40903
-2.57446
-2.74221
-2.9117
-3.08241
-3.25381
-3.42542
-3.59689
-3.76767
-0.00329642
-0.00221561
-5.95142e-05
3.41973e-05
0.000458249
0.00174704
0.0110234
0.0929393
0.170968
0.24526
0.31972
0.396592
0.475497
0.555683
0.636027
0.715574
0.793204
0.867399
0.936644
0.999616
1.05512
1.10211
1.13974
1.16735
1.1845
1.19091
1.1865
1.17132
1.14557
1.10956
1.06368
1.0084
0.94424
0.871743
0.791479
0.704021
0.60994
0.509798
0.404147
0.293524
0.178453
0.0594365
-0.0630376
-0.188505
-0.316527
-0.44669
-0.578614
-0.711955
-0.846396
-0.981668
0.000107321
0.00114225
0.00393018
0.0260536
0.21983
0.40286
0.577939
0.746844
0.912557
1.077
1.24101
1.40478
1.5675
1.7279
1.88431
2.03491
2.17923
2.31709
2.44839
2.57204
2.68647
2.79042
2.8829
2.96321
3.03091
3.0858
3.12784
3.1572
3.17417
3.17913
3.17257
3.15502
3.12707
3.0893
3.04234
2.98678
2.92322
2.85225
2.77443
2.6903
2.60039
2.5052
2.40522
2.30089
2.19267
2.08098
1.96623
1.84882
1.72912
1.6075
0.0575285
0.462175
0.828251
1.16406
1.47553
1.76584
2.03753
2.29555
2.54417
2.78608
3.02246
3.25361
3.47925
3.69865
3.91082
4.11465
4.30904
4.49299
4.66559
4.8272
4.97821
5.11806
5.24625
5.36243
5.46634
5.55788
5.63703
5.70389
5.75865
5.80155
5.83289
5.85302
5.86228
5.86107
5.84976
5.82875
5.79842
5.75914
5.71128
5.65521
5.59128
5.51983
5.44123
5.35584
5.264
5.16608
5.06246
4.95351
4.83964
4.72128
2.00538
2.49779
2.92911
3.31318
3.66291
3.9879
4.29513
4.58949
4.87421
5.15122
5.4215
5.68539
5.94277
6.19325
6.43631
6.67133
6.89772
7.11493
7.32182
7.51705
7.70001
7.87102
8.03041
8.17846
8.3154
8.44147
8.55689
8.66183
8.75648
8.84099
8.91547
8.98002
9.03471
9.07961
9.11475
9.14016
9.15587
9.16189
9.15821
9.14479
9.12162
9.08866
9.04595
8.99349
8.93133
8.85956
8.77829
8.68771
8.58806
8.47967
3.80213
4.24092
4.65031
5.03352
5.39443
5.73682
6.06398
6.37855
6.68253
6.97735
7.26394
7.54282
7.81421
8.07803
8.33417
8.58241
8.82236
9.05358
9.27615
9.49041
9.69666
9.89523
10.0864
10.2705
10.4478
10.6184
10.7826
10.9404
11.092
11.2375
11.3767
11.5096
11.636
11.7557
11.8685
11.9739
12.0716
12.1611
12.2418
12.3133
12.375
12.4262
12.4664
12.4949
12.5112
12.5147
12.5049
12.4814
12.4437
12.3917
3.64527
3.99709
4.33965
4.67258
4.99591
5.30997
5.61518
5.91209
6.20133
6.48338
6.75907
7.02894
7.29362
7.55381
7.80962
8.06164
8.31038
8.55637
8.80002
9.04187
9.28214
9.52136
9.75948
9.99695
10.2338
10.4701
10.7055
10.9401
11.1739
11.4068
11.6392
11.8711
12.1031
12.3348
12.5658
12.7959
13.0242
13.25
13.4725
13.6906
13.9035
14.1099
14.3086
14.4982
14.6777
14.8456
15.0002
15.1407
15.2653
15.373
3.85369
4.18236
4.51122
4.83966
5.16773
5.49639
5.82002
6.13256
6.42903
6.70565
6.96012
7.1916
7.40065
7.58913
7.75954
7.91468
8.05738
8.1908
8.31831
8.44336
8.56935
8.69951
8.83674
8.98363
9.14239
9.31495
9.50332
9.70932
9.93453
10.179
10.4382
10.7101
10.9929
11.2854
11.5869
11.8969
12.2147
12.5394
12.8703
13.2064
13.5468
13.8901
14.2353
14.5808
14.9249
15.266
15.6019
15.9302
16.2481
16.5529
12.1115
12.8763
13.6134
14.3103
14.9543
15.5322
16.0376
16.4672
16.819
17.093
17.2911
17.4163
17.4731
17.4687
17.4126
17.3118
17.174
17.0063
16.8162
16.6113
16.399
16.1861
15.9789
15.7821
15.5995
15.4346
15.2921
15.1637
15.0493
14.9525
14.8805
14.8435
14.8417
14.8729
14.9364
15.0313
15.1571
15.3128
15.4976
15.7102
15.9476
16.2068
16.4846
16.7778
17.0832
17.4009
17.7271
18.0568
18.3857
18.7083
29.6618
31.0213
32.197
33.1842
33.9821
34.5941
35.0256
35.286
35.387
35.3421
35.1664
34.8761
34.4899
34.0231
33.492
32.9157
32.313
31.6975
31.0839
30.4786
29.8893
29.3211
28.779
28.2671
27.7885
27.3456
26.94
26.5727
26.2442
25.9546
25.7037
25.4907
25.3168
25.1811
25.0803
25.01
24.9653
24.9408
24.9309
24.9304
24.936
24.9446
24.9545
24.9656
24.968
24.9625
24.9467
24.9242
24.891
24.8451
53.3131
55.6969
57.585
58.9854
59.9222
60.4321
60.5602
60.3547
59.8653
59.1403
58.2245
57.1593
55.9824
54.7267
53.4216
52.0921
50.76
49.4424
48.1516
46.9018
45.7035
44.5634
43.486
42.4728
41.5232
40.6317
39.7931
39.0022
38.2548
37.5514
36.8923
36.2763
35.6979
35.1544
34.6394
34.1477
33.6738
33.2131
32.7611
32.3143
31.8692
31.4227
30.9721
30.5156
30.0522
29.5805
29.1031
28.6215
28.1359
27.6464
71.5106
77.8356
83.1882
87.5115
90.8198
93.1746
94.6646
95.3915
95.4595
94.9651
94.0104
92.6727
91.0248
89.1286
87.045
84.8253
82.5116
80.1454
77.7537
75.3576
72.9779
70.6306
68.3252
66.0755
63.8912
61.7825
59.7554
57.8127
55.955
54.1792
52.48
50.8552
49.3021
47.8143
46.3858
45.0113
43.6867
42.4086
41.174
39.98
38.8237
37.7025
36.6149
35.5594
34.5347
33.5396
32.5726
31.6326
30.718
29.8275
72.2626
90.5076
106.232
119.498
130.442
139.246
146.114
151.256
154.872
157.151
158.263
158.364
157.59
156.065
153.899
151.195
148.042
144.52
140.7
136.647
132.416
128.058
123.621
119.144
114.666
110.217
105.827
101.516
97.3042
93.2044
89.2284
85.3847
81.6793
78.1156
74.6952
71.4183
68.2843
65.2914
62.4368
59.7168
57.127
54.6625
52.3181
50.0883
47.9677
45.9509
44.0325
42.207
40.4696
38.8152
97.2445
123.788
147.088
167.222
184.371
198.871
211.029
221.107
229.32
235.844
240.821
244.367
246.582
247.556
247.372
246.111
243.854
240.683
236.683
231.941
226.543
220.578
214.132
207.293
200.143
192.761
185.222
177.595
169.943
162.324
154.789
147.382
140.142
133.099
126.28
119.706
113.392
107.349
101.584
96.0999
90.8959
85.9692
81.3144
76.9241
72.7894
68.9005
65.2463
61.8154
58.5961
55.5764
31.8486
54.1961
76.1465
97.8079
119.212
140.227
160.688
180.417
199.228
216.937
233.367
248.354
261.756
273.451
283.348
291.387
297.537
301.801
304.212
304.83
303.744
301.062
296.911
291.433
284.779
277.105
268.57
259.332
249.544
239.366
228.93
218.358
207.76
197.231
186.857
176.709
166.847
157.318
148.162
139.404
131.065
123.155
115.679
108.634
102.015
95.8102
90.0064
84.587
79.534
74.8278
-3.80094
-3.78576
-3.77044
-3.75497
-3.73935
-3.72358
-3.70768
-3.69167
-3.6756
-3.65952
-3.64376
-3.63101
-3.6188
-3.60332
-3.58857
-3.57465
-3.56156
-3.54917
-3.53375
-3.51988
-3.50855
-3.49795
-3.48772
-3.4779
-3.46903
-3.46562
-3.46025
-3.45447
-3.44701
-3.43927
-3.43508
-3.43231
-3.43123
-3.43245
-3.43088
-3.4299
-3.42922
-3.42647
-3.4247
-3.42458
-3.42422
-3.42369
-3.4235
-3.42399
-3.4253
-3.42761
-3.43105
-3.43567
-3.44165
-3.44967
-3.45798
-3.46702
-3.47568
-3.48501
-3.49625
-3.50402
-3.50947
-3.51384
-3.51724
-3.5193
-3.51992
-3.51958
-3.52109
-3.51768
-3.50894
-3.49728
-3.4854
-3.47188
-3.45619
-3.43839
-3.41952
-3.39911
-3.3749
-3.34771
-3.32028
-3.29229
-3.26537
-3.23795
-3.20927
-3.17946
-3.14886
-3.11948
-3.09076
-3.0625
-3.0348
-3.0081
-2.98262
-2.95851
-2.93596
-2.91517
-2.89633
-2.87962
-2.8652
-2.85321
-2.84385
-2.83688
-2.83252
-2.8308
-2.83166
-2.83507
-2.84097
-2.84919
-2.86008
-2.87217
-2.88577
-2.90121
-2.91854
-2.93775
-2.95901
-2.98252
-3.00891
-3.03788
-3.06941
-3.10403
-3.14178
-3.18253
-3.22629
-3.27315
-3.32352
-3.37718
-3.43463
-3.49639
-3.56277
-3.63384
-3.7107
-3.79298
-3.88089
-3.97434
-4.07302
-4.17545
-4.27996
-4.3855
-4.49163
-4.59937
-4.70868
-4.81996
-4.93382
-5.05109
-5.172
-5.29668
-5.42513
-5.55732
-5.6928
-5.83123
-5.97168
-6.1129
-6.25343
-6.39147
-6.52498
-6.65161
-6.76899
-6.8748
-6.96654
-7.04173
-7.09798
-7.1331
-7.14515
-7.13253
-7.09435
-7.03052
-6.94196
-6.83033
-6.69774
-6.5465
-6.37893
-6.19734
-6.00392
-5.80083
-5.59013
-5.37381
-5.15375
-4.93174
-4.70942
-4.48834
-4.26992
-4.05547
-3.84615
-3.64299
-3.44684
-3.2584
-3.07824
-2.90672
-2.74407
-2.59038
-2.44558
-2.30951
-2.18187
-2.06233
-1.95047
-1.84587
-1.74814
-1.65692
-1.57195
-1.49309
-1.42032
-1.35376
-1.2938
-1.24122
-1.19615
-1.15804
-1.12489
-1.09494
-1.0668
-1.03941
-1.01254
-0.985906
-0.95921
-0.931981
-0.904479
-0.877147
-0.849941
-0.823143
-0.797903
-0.775087
-0.755528
-0.740138
-0.728967
-0.72174
-0.718203
-0.718427
-0.722141
-0.729032
-0.738717
-0.750929
-0.765648
-0.783221
-0.803637
-0.823826
-0.840032
-0.850975
-0.84455
-0.816572
-0.770634
-0.713001
-0.649344
-0.584477
-0.521303
-0.461307
-0.404949
-0.35389
-0.308733
-0.268453
-0.232169
-0.199517
-0.170239
-0.144107
-0.12089
-0.10031
-0.0820923
-0.0659839
-0.0517628
-0.0392391
-0.0282528
-0.018669
-0.0103714
-0.00325651
0.00277205
0.00780694
0.0119395
0.0152607
0.0178605
0.019827
0.0212453
0.0221957
0.0227525
0.0229833
0.0229482
0.0226996
0.0222826
0.0217351
0.0210886
0.0203688
0.0195966
0.0187891
0.0179596
0.0171192
0.0162766
0.0154389
0.014612
0.0137984
0.0129999
0.0122178
0.0114532
0.0107074
0.00998158
0.00927684
0.00859434
0.00793516
0.00729998
0.00668824
0.00609709
0.00552196
0.00495742
0.00439753
0.00383503
0.00326085
0.00266216
0.00201955
0.0013063
0.000486644
-5.16716
-5.17165
-5.17344
-5.17267
-5.16917
-5.16318
-5.1547
-5.1443
-5.13164
-5.11654
-5.09947
-5.08152
-5.06374
-5.04874
-5.02517
-4.99857
-4.97204
-4.94735
-4.92537
-4.90446
-4.88447
-4.86469
-4.84664
-4.83066
-4.81433
-4.79624
-4.77858
-4.76299
-4.75077
-4.73989
-4.73104
-4.72427
-4.71923
-4.71572
-4.70789
-4.69977
-4.69262
-4.68623
-4.68038
-4.67466
-4.66888
-4.66295
-4.65705
-4.6519
-4.6463
-4.64077
-4.63463
-4.62833
-4.62165
-4.61502
-4.60498
-4.59286
-4.57931
-4.56418
-4.54731
-4.52998
-4.51048
-4.48976
-4.46786
-4.44453
-4.42146
-4.39867
-4.37543
-4.34548
-4.31469
-4.28425
-4.2536
-4.22306
-4.19318
-4.16154
-4.12927
-4.09565
-4.06218
-4.02914
-3.99665
-3.96364
-3.93056
-3.89729
-3.86447
-3.8326
-3.80211
-3.77332
-3.74678
-3.72237
-3.70035
-3.68073
-3.66374
-3.64957
-3.63813
-3.62949
-3.62371
-3.62085
-3.62096
-3.62415
-3.63077
-3.64031
-3.65319
-3.66955
-3.68921
-3.71205
-3.73783
-3.76628
-3.79686
-3.82896
-3.86254
-3.89756
-3.934
-3.97186
-4.01103
-4.05135
-4.09307
-4.13562
-4.17944
-4.22465
-4.27206
-4.32236
-4.37581
-4.43327
-4.49437
-4.5589
-4.62744
-4.70142
-4.78137
-4.86721
-4.95797
-5.05428
-5.15741
-5.26903
-5.38889
-5.51612
-5.64979
-5.78843
-5.93003
-6.07288
-6.2155
-6.35646
-6.49427
-6.62766
-6.75536
-6.87625
-6.98886
-7.09207
-7.18477
-7.2661
-7.33493
-7.39029
-7.43135
-7.45706
-7.46656
-7.45922
-7.4345
-7.3918
-7.33081
-7.25134
-7.15347
-7.03747
-6.90381
-6.75324
-6.58669
-6.40532
-6.21047
-6.0037
-5.7867
-5.56126
-5.32928
-5.09261
-4.85309
-4.61247
-4.37241
-4.13444
-3.89997
-3.67025
-3.44639
-3.22937
-3.02
-2.81894
-2.62673
-2.44375
-2.27026
-2.10639
-1.95214
-1.80743
-1.67206
-1.54577
-1.42821
-1.31899
-1.21768
-1.12383
-1.03697
-0.956643
-0.882394
-0.813807
-0.750517
-0.692217
-0.638626
-0.589498
-0.544557
-0.503648
-0.466633
-0.433321
-0.403486
-0.376638
-0.352207
-0.329981
-0.309787
-0.291341
-0.274428
-0.258827
-0.244471
-0.231266
-0.219162
-0.208281
-0.198725
-0.190581
-0.183951
-0.178869
-0.175327
-0.173385
-0.172889
-0.173522
-0.175074
-0.177341
-0.180185
-0.183595
-0.187623
-0.192455
-0.198452
-0.205684
-0.213165
-0.218599
-0.220289
-0.217227
-0.209701
-0.198774
-0.185718
-0.171432
-0.157354
-0.143851
-0.131163
-0.118905
-0.107089
-0.095675
-0.0845314
-0.073646
-0.0630787
-0.0529111
-0.0432206
-0.0340662
-0.0254896
-0.0175212
-0.0101826
-0.00348891
0.00255175
0.00793799
0.0126759
0.0167797
0.0202718
0.0231828
0.0255504
0.0274181
0.0288331
0.0298445
0.0305013
0.0308511
0.0309381
0.030803
0.0304818
0.030006
0.0294027
0.0286946
0.0279009
0.0270374
0.0261176
0.0251528
0.024153
0.0231275
0.0220845
0.0210322
0.0199759
0.0189253
0.0178859
0.0168604
0.0158514
0.0148622
0.0138957
0.0129542
0.0120406
0.0111575
0.0103072
0.00949055
0.00870291
0.00793684
0.00718319
0.00643154
0.00566814
0.00487625
0.0040336
0.00310555
0.00204313
0.000778774
-6.21731
-6.25294
-6.28659
-6.3182
-6.34773
-6.37519
-6.40039
-6.42344
-6.44428
-6.4629
-6.47929
-6.49345
-6.50536
-6.51501
-6.52241
-6.52755
-6.53048
-6.53126
-6.52977
-6.52599
-6.51994
-6.51162
-6.501
-6.4881
-6.47279
-6.45505
-6.43515
-6.41291
-6.38926
-6.36501
-6.34009
-6.31392
-6.28637
-6.25699
-6.22542
-6.19213
-6.15769
-6.12262
-6.0877
-6.05195
-6.01578
-5.97901
-5.94258
-5.90598
-5.86917
-5.83211
-5.79512
-5.75843
-5.72102
-5.68304
-5.64505
-5.60749
-5.57028
-5.53363
-5.49877
-5.46418
-5.42755
-5.39183
-5.35802
-5.32562
-5.29415
-5.26272
-5.23128
-5.20054
-5.17066
-5.14226
-5.1139
-5.08617
-5.05904
-5.03305
-5.00791
-4.98398
-4.96133
-4.93992
-4.91966
-4.90062
-4.88265
-4.86504
-4.84883
-4.83449
-4.82264
-4.81343
-4.80706
-4.80369
-4.80326
-4.806
-4.81196
-4.82077
-4.83263
-4.8475
-4.86568
-4.88701
-4.91145
-4.93941
-4.9704
-5.00497
-5.04292
-5.08455
-5.12999
-5.17888
-5.23119
-5.28679
-5.34546
-5.40696
-5.47166
-5.5392
-5.60999
-5.68398
-5.76129
-5.84208
-5.92568
-6.0112
-6.09891
-6.18918
-6.28178
-6.37608
-6.4712
-6.56634
-6.66158
-6.75675
-6.85164
-6.94596
-7.03937
-7.13146
-7.22174
-7.30966
-7.39458
-7.47589
-7.55307
-7.62502
-7.69091
-7.75013
-7.80168
-7.84461
-7.8781
-7.90137
-7.91371
-7.91458
-7.90354
-7.88009
-7.84388
-7.79481
-7.73267
-7.65737
-7.56892
-7.4674
-7.35318
-7.22627
-7.08698
-6.93591
-6.77344
-6.60017
-6.4168
-6.22413
-6.02308
-5.81462
-5.59984
-5.37982
-5.15573
-4.92872
-4.69996
-4.4706
-4.24175
-4.0145
-3.78986
-3.56879
-3.35216
-3.14079
-2.93538
-2.73657
-2.54489
-2.36081
-2.1847
-2.01682
-1.85738
-1.70648
-1.56418
-1.43044
-1.30516
-1.18817
-1.07927
-0.978199
-0.884657
-0.798315
-0.718818
-0.645797
-0.578871
-0.517655
-0.461773
-0.410841
-0.364506
-0.322394
-0.284179
-0.24953
-0.218162
-0.189822
-0.164315
-0.141438
-0.120968
-0.102658
-0.0862645
-0.0716166
-0.058554
-0.0469506
-0.0366741
-0.0276072
-0.0196156
-0.0125908
-0.00640933
-0.00100731
0.00356144
0.00736268
0.0105109
0.0130512
0.0149946
0.0163367
0.0170733
0.0173016
0.0170015
0.0162008
0.0149542
0.0133159
0.0112989
0.00894368
0.0062886
0.00329987
4.39036e-06
-0.00362958
-0.00756525
-0.0112323
-0.0142796
-0.0165472
-0.0179847
-0.0186979
-0.0188857
-0.0188048
-0.0184634
-0.0178038
-0.0167615
-0.0152547
-0.0132633
-0.01081
-0.00794144
-0.00472592
-0.00124552
0.00241246
0.00616233
0.00992416
0.0136262
0.0172055
0.0206088
0.0237916
0.0267189
0.0293638
0.0317075
0.0337389
0.0354542
0.0368569
0.0379573
0.0387717
0.0393201
0.039625
0.0397099
0.0395976
0.0393099
0.0388665
0.038285
0.0375808
0.0367674
0.0358564
0.0348579
0.0337815
0.032636
0.0314304
0.0301737
0.0288741
0.0275368
0.0261716
0.0247946
0.023421
0.0220593
0.020716
0.0193975
0.0181108
0.0168625
0.0156579
0.0145013
0.0133952
0.0123403
0.0113336
0.0103741
0.00945882
0.00858001
0.00772344
0.0068673
0.00597396
0.0049944
0.00388222
0.00257831
0.000995953
-6.61747
-6.6807
-6.74191
-6.80099
-6.85788
-6.91252
-6.96484
-7.01477
-7.06229
-7.10735
-7.14991
-7.18993
-7.22739
-7.26231
-7.2947
-7.32444
-7.35165
-7.37631
-7.39838
-7.41779
-7.43472
-7.44915
-7.46106
-7.47049
-7.47752
-7.48201
-7.48403
-7.48381
-7.4813
-7.47636
-7.46927
-7.46005
-7.44862
-7.43495
-7.41938
-7.40182
-7.38253
-7.36128
-7.33808
-7.31348
-7.28736
-7.25995
-7.23108
-7.20108
-7.17056
-7.13964
-7.10876
-7.0777
-7.0464
-7.01614
-6.98677
-6.95803
-6.92991
-6.90285
-6.87628
-6.84972
-6.82388
-6.79924
-6.77587
-6.75406
-6.73285
-6.7131
-6.6945
-6.67717
-6.66096
-6.64559
-6.63128
-6.61794
-6.60604
-6.59574
-6.58684
-6.57995
-6.57491
-6.57182
-6.57044
-6.57067
-6.57202
-6.5746
-6.57888
-6.58526
-6.59386
-6.60464
-6.61765
-6.63274
-6.6502
-6.66957
-6.69112
-6.71493
-6.74109
-6.76965
-6.80045
-6.83342
-6.86849
-6.90548
-6.94437
-6.98508
-7.02793
-7.07293
-7.11989
-7.16853
-7.21876
-7.27037
-7.32305
-7.37693
-7.43215
-7.48828
-7.54481
-7.60171
-7.65893
-7.71622
-7.77286
-7.82816
-7.88183
-7.93344
-7.98253
-8.02849
-8.07061
-8.10823
-8.1407
-8.16746
-8.18792
-8.20155
-8.20773
-8.20584
-8.1953
-8.17576
-8.14697
-8.10876
-8.06107
-8.00353
-7.93604
-7.85869
-7.77164
-7.675
-7.56889
-7.45383
-7.33014
-7.19822
-7.05845
-6.9113
-6.75716
-6.59659
-6.42994
-6.25768
-6.08024
-5.89811
-5.71177
-5.52177
-5.32865
-5.13297
-4.93528
-4.73615
-4.53616
-4.33589
-4.13595
-3.93694
-3.73945
-3.54407
-3.35136
-3.16187
-2.97613
-2.79462
-2.6178
-2.44608
-2.27985
-2.11944
-1.96513
-1.81715
-1.67572
-1.54096
-1.41297
-1.29181
-1.17747
-1.06991
-0.969052
-0.874777
-0.786931
-0.705331
-0.629765
-0.56
-0.495783
-0.43685
-0.382922
-0.333717
-0.288946
-0.248324
-0.211561
-0.178383
-0.148516
-0.121701
-0.0976864
-0.0762311
-0.0571057
-0.0400927
-0.0249932
-0.0116243
0.000124729
0.0104329
0.0194646
0.0273712
0.0342799
0.0402996
0.0455277
0.050046
0.0539358
0.0572616
0.0600863
0.0624831
0.0645044
0.0661796
0.067536
0.0685909
0.0693753
0.0699047
0.0701926
0.0702532
0.0700962
0.0697191
0.0691492
0.0683841
0.0674247
0.0662622
0.0648975
0.0633471
0.0616087
0.0596801
0.0575653
0.0553271
0.0530453
0.0507898
0.0486217
0.0465604
0.0446015
0.0427377
0.0409911
0.0393856
0.0379595
0.0367589
0.0358214
0.0351731
0.0348264
0.0347789
0.0350131
0.0354992
0.0362018
0.0370819
0.0380977
0.0392049
0.0403604
0.0415248
0.0426654
0.0437559
0.0447753
0.0457053
0.046529
0.0472287
0.0477855
0.0481865
0.0484266
0.0485063
0.0484292
0.048201
0.0478277
0.0473153
0.0466697
0.0458963
0.0450001
0.0439864
0.0428606
0.0416284
0.0402969
0.0388743
0.0373699
0.0357946
0.0341586
0.0324754
0.0307614
0.0290334
0.0273047
0.0255812
0.0238753
0.0221952
0.0205499
0.0189477
0.0173987
0.0159106
0.0144931
0.0131521
0.0118886
0.0106943
0.00956759
0.00850904
0.0075151
0.00657898
0.00569068
0.00482991
0.00395612
0.00301891
0.00197034
0.000750457
-5.99109
-6.08112
-6.16995
-6.25763
-6.34358
-6.42832
-6.51163
-6.59327
-6.67344
-6.75201
-6.82892
-6.90412
-6.97757
-7.04919
-7.11894
-7.18676
-7.25259
-7.31638
-7.37808
-7.43764
-7.49503
-7.55022
-7.6032
-7.65396
-7.70249
-7.74877
-7.79287
-7.8348
-7.87455
-7.91208
-7.9474
-7.98053
-8.01146
-8.0402
-8.06672
-8.09104
-8.11315
-8.13308
-8.15084
-8.16648
-8.18003
-8.19155
-8.20109
-8.20871
-8.2145
-8.21852
-8.22087
-8.22165
-8.22099
-8.219
-8.21579
-8.21144
-8.20613
-8.20011
-8.19343
-8.1863
-8.17902
-8.17182
-8.16491
-8.15833