/*--------------------------------*- C++ -*----------------------------------*\
| =========                 |                                                 |
| \\      /  F ield         | OpenFOAM: The Open Source CFD Toolbox           |
|  \\    /   O peration     | Version:  2.4.0                                 |
|   \\  /    A nd           | Web:      www.OpenFOAM.org                      |
|    \\/     M anipulation  |                                                 |
\*---------------------------------------------------------------------------*/
FoamFile
{
    version     2.0;
    format      ascii;
    class       volScalarField;
    location    "2";
    object      p;
}
// * * * * * * * * * * * * * * * * * * * * * * * * * * * * * * * * * * * * * //

dimensions      [1 -1 -2 0 0 0 0];

internalField   nonuniform List<scalar> 
8000
(
6.66676
6.63928
6.61178
6.58789
6.56683
6.54792
6.53102
6.51618
6.50344
6.49284
6.48439
6.47811
6.47404
6.47219
6.47261
6.47534
6.48041
6.48793
6.49784
6.51026
6.52534
6.54292
6.56326
6.58653
6.61255
6.64168
6.67389
6.70947
6.74838
6.79096
6.83714
6.88736
6.94146
7.00006
7.06315
7.14583
7.21567
7.29155
7.38707
7.47509
7.56987
7.66962
7.891
7.97922
8.1365
8.26647
8.23044
6.2411
2.06433
-0.508248
5.20053
5.18713
5.1708
5.15516
5.14078
5.12743
5.11499
5.10345
5.09283
5.08315
5.0744
5.06656
5.05964
5.05361
5.04845
5.04413
5.04062
5.03786
5.03582
5.03439
5.03358
5.0331
5.03332
5.03407
5.03446
5.03524
5.03602
5.03663
5.03693
5.03677
5.03602
5.03433
5.03166
5.02766
5.02216
5.01484
5.00586
4.99446
4.98044
4.96369
4.94403
4.921
4.8944
4.8658
4.83247
4.79365
4.74224
4.67232
4.5031
3.87687
5.2006
5.18181
5.16289
5.14612
5.13094
5.11687
5.10381
5.09177
5.08078
5.0708
5.06185
5.0539
5.04695
5.04097
5.03595
5.03188
5.02874
5.02651
5.02518
5.02471
5.0251
5.02632
5.02836
5.03119
5.03479
5.03914
5.04421
5.05
5.05645
5.06356
5.0713
5.07967
5.08862
5.09814
5.10821
5.11885
5.12995
5.14158
5.15361
5.16607
5.1788
5.19193
5.20524
5.21866
5.2335
5.24531
5.25876
5.26933
5.27577
5.29056
3.79432
3.78134
3.76648
3.75277
3.74045
3.72922
3.71897
3.70968
3.70134
3.69397
3.68757
3.68212
3.67763
3.6741
3.67154
3.66995
3.66933
3.66971
3.67108
3.67346
3.67685
3.68128
3.68677
3.69332
3.70098
3.70975
3.71966
3.73075
3.74304
3.75656
3.77135
3.78745
3.80491
3.82376
3.84408
3.86588
3.88927
3.91425
3.94097
3.96942
3.99976
4.03199
4.0663
4.10269
4.14136
4.18399
4.22592
4.27215
4.32235
4.37687
3.06743
3.05899
3.05049
3.04293
3.03607
3.02969
3.02374
3.01824
3.0132
3.0086
3.00444
3.00072
2.99744
2.99458
2.99215
2.99013
2.98851
2.98731
2.98649
2.98607
2.98602
2.98634
2.98702
2.98805
2.98944
2.99117
2.99323
2.99563
2.99834
3.00139
3.00474
3.00842
3.0124
3.01671
3.02133
3.0263
3.03158
3.03725
3.04324
3.04967
3.05645
3.06374
3.07138
3.07963
3.08853
3.10086
3.11155
3.12368
3.12453
3.11865
1.7067
1.70443
1.7016
1.69895
1.6966
1.69453
1.69271
1.69114
1.68983
1.68878
1.68799
1.68747
1.6872
1.6872
1.68746
1.68797
1.68874
1.68975
1.69101
1.6925
1.69422
1.69616
1.69831
1.70064
1.70316
1.70584
1.70868
1.71164
1.71472
1.71787
1.7211
1.72434
1.7276
1.73081
1.73396
1.73697
1.73986
1.7425
1.7449
1.7469
1.74853
1.74981
1.75154
1.75458
1.75722
1.74872
1.72827
1.64352
1.40336
0.95399
0.677926
0.679491
0.681478
0.683479
0.685437
0.687379
0.689326
0.691277
0.693233
0.695185
0.697133
0.699064
0.700974
0.702845
0.704669
0.706425
0.708099
0.709665
0.711105
0.712386
0.713484
0.714361
0.714986
0.715313
0.7153
0.7149
0.714054
0.712717
0.710807
0.70828
0.705026
0.701011
0.696082
0.690223
0.683218
0.675077
0.665484
0.654514
0.641976
0.628792
0.615158
0.599228
0.571379
0.534458
0.424094
0.08612
-0.537858
-3.15556
-4.2169
-4.78017
-0.551473
-0.548334
-0.544829
-0.541224
-0.537448
-0.533443
-0.52921
-0.524749
-0.520076
-0.515181
-0.510078
-0.504752
-0.499215
-0.493446
-0.487461
-0.48123
-0.474772
-0.468048
-0.461083
-0.453825
-0.446308
-0.438464
-0.430338
-0.421847
-0.413045
-0.403833
-0.394274
-0.384256
-0.373847
-0.362924
-0.351552
-0.339605
-0.327137
-0.314077
-0.300494
-0.286334
-0.270895
-0.2525
-0.230129
-0.212418
-0.224439
-0.303472
-0.698992
-1.49754
-4.5354
-5.99385
-7.4158
-8.08833
-5.77391
-4.06153
-1.65997
-1.65415
-1.64692
-1.63906
-1.63059
-1.62142
-1.61152
-1.60088
-1.58951
-1.57737
-1.56447
-1.55076
-1.53623
-1.52083
-1.50453
-1.48727
-1.46901
-1.44969
-1.42924
-1.4076
-1.38467
-1.3604
-1.33464
-1.30739
-1.27841
-1.24775
-1.21506
-1.18051
-1.14356
-1.10455
-1.06269
-1.01867
-0.971418
-0.921823
-0.866884
-0.805965
-0.738934
-0.689555
-0.693961
-1.05683
-2.03102
-4.5969
-7.61002
-9.39849
-7.63362
-6.48355
-2.40457
-2.02053
-1.5395
-1.47986
-3.01874
-3.00295
-2.98554
-2.96945
-2.95464
-2.94077
-2.92768
-2.91539
-2.90385
-2.89309
-2.88304
-2.87375
-2.86512
-2.85722
-2.84992
-2.84333
-2.83727
-2.83191
-2.827
-2.82277
-2.8189
-2.81571
-2.81276
-2.8105
-2.80834
-2.80689
-2.80535
-2.80456
-2.80343
-2.80317
-2.80264
-2.80373
-2.80315
-2.7961
-2.77033
-2.75363
-2.90303
-3.85434
-5.83376
-8.78795
-10.1067
-7.13438
-3.18873
-3.15443
-1.55568
-1.50074
-1.50184
-1.49953
-1.49795
-1.49802
-4.46033
-4.43668
-4.4122
-4.39067
-4.37166
-4.35457
-4.3392
-4.32554
-4.31357
-4.30329
-4.29466
-4.28769
-4.28234
-4.27862
-4.27649
-4.276
-4.27709
-4.27983
-4.28416
-4.29017
-4.29778
-4.30712
-4.3181
-4.33088
-4.34535
-4.36168
-4.37973
-4.39973
-4.42196
-4.44775
-4.47662
-4.49869
-4.48598
-4.44408
-4.63207
-5.8609
-8.45759
-9.28135
-8.95579
-4.5064
-1.62586
-1.22257
-1.52821
-1.51837
-1.51825
-1.51896
-1.51894
-1.51887
-1.5188
-1.51893
-4.93983
-4.9216
-4.90152
-4.88383
-4.86879
-4.85594
-4.84513
-4.83628
-4.82946
-4.8246
-4.82177
-4.82091
-4.82209
-4.82524
-4.83048
-4.83771
-4.84709
-4.8585
-4.87215
-4.88788
-4.90597
-4.92622
-4.94897
-4.97395
-5.00159
-5.03149
-5.06454
-5.10122
-5.14286
-5.18166
-5.19366
-5.16527
-5.27941
-6.17414
-8.35858
-7.73122
-6.08074
-2.11573
-1.47088
-1.54053
-1.54989
-1.53858
-1.54071
-1.54163
-1.54186
-1.54182
-1.54177
-1.54183
-1.5419
-1.54196
-6.01708
-6.00703
-5.99846
-5.99233
-5.98811
-5.98554
-5.9846
-5.98534
-5.9878
-5.992
-5.99796
-6.00571
-6.01526
-6.02663
-6.03982
-6.05486
-6.07175
-6.0905
-6.11113
-6.13364
-6.15803
-6.1843
-6.21246
-6.24245
-6.27436
-6.30835
-6.34498
-6.38321
-6.41677
-6.43405
-6.45808
-6.65245
-7.30359
-7.6802
-4.40754
-2.30956
-1.57746
-1.55684
-1.55655
-1.55846
-1.56081
-1.56069
-1.56061
-1.56069
-1.5608
-1.56098
-1.56116
-1.56134
-1.56152
-1.56169
-5.46724
-5.46936
-5.46979
-5.46968
-5.46982
-5.47034
-5.47127
-5.47258
-5.47433
-5.47651
-5.47915
-5.48222
-5.48575
-5.48967
-5.49402
-5.49869
-5.5037
-5.50893
-5.5144
-5.51991
-5.52552
-5.53097
-5.53629
-5.54117
-5.54595
-5.55068
-5.55498
-5.55249
-5.53097
-5.50375
-5.61868
-6.18649
-6.81474
-3.22233
-1.6325
-1.58559
-1.57859
-1.57959
-1.57963
-1.58003
-1.58038
-1.57958
-1.58002
-1.58021
-1.58036
-1.5806
-1.58132
-1.58171
-1.58203
-1.58229
-6.69899
-6.68008
-6.66282
-6.64992
-6.64069
-6.63459
-6.63146
-6.63137
-6.63428
-6.64025
-6.64925
-6.66134
-6.67648
-6.69476
-6.71616
-6.74079
-6.7686
-6.79976
-6.83422
-6.87216
-6.91353
-6.95856
-7.00713
-7.05961
-7.11606
-7.17743
-7.24266
-7.30597
-7.35516
-7.41162
-7.63679
-8.32874
-8.91836
-4.22939
-1.90482
-1.65469
-1.59403
-1.59886
-1.60352
-1.60414
-1.60432
-1.60442
-1.60467
-1.60491
-1.60514
-1.60536
-1.60554
-1.60572
-1.60588
-1.60604
-5.89723
-5.86986
-5.84111
-5.81763
-5.79965
-5.78642
-5.7776
-5.77312
-5.77296
-5.77712
-5.7856
-5.79839
-5.81553
-5.83706
-5.86306
-5.8936
-5.92881
-5.96878
-6.0137
-6.0637
-6.11901
-6.17982
-6.24641
-6.31899
-6.39794
-6.4836
-6.57662
-6.67706
-6.78324
-6.89053
-7.00448
-7.18258
-7.55463
-8.04928
-7.39293
-3.6073
-1.99997
-1.69752
-1.62834
-1.62941
-1.62991
-1.63035
-1.63049
-1.6304
-1.63046
-1.63046
-1.63037
-1.63033
-1.63032
-1.63033
-5.47321
-5.4671
-5.46284
-5.46021
-5.45849
-5.45746
-5.45709
-5.45737
-5.45829
-5.4598
-5.4619
-5.4645
-5.46763
-5.4712
-5.47525
-5.47968
-5.48454
-5.48974
-5.49536
-5.50127
-5.50759
-5.51417
-5.52119
-5.52842
-5.53617
-5.54409
-5.55258
-5.5611
-5.57028
-5.58013
-5.59343
-5.60884
-5.60789
-5.53728
-5.46749
-6.13002
-9.36714
-5.31891
-4.31238
-2.00388
-1.87682
-1.68561
-1.66206
-1.65285
-1.65303
-1.65349
-1.65383
-1.65403
-1.6539
-1.65378
-3.15221
-3.17436
-3.19558
-3.21496
-3.23337
-3.25089
-3.2671
-3.28159
-3.29399
-3.30398
-3.31128
-3.31563
-3.31675
-3.31442
-3.30839
-3.29848
-3.28444
-3.26611
-3.24324
-3.21569
-3.18322
-3.14569
-3.10284
-3.05456
-3.00057
-2.94076
-2.87483
-2.8027
-2.72408
-2.63879
-2.54589
-2.4444
-2.33649
-2.23705
-2.16496
-2.05226
-1.99673
-3.46744
-10.0345
-12.7378
-10.2534
-4.51275
-2.33547
-1.88965
-1.73182
-1.69611
-1.6973
-1.66944
-1.67378
-1.67451
-3.88512
-3.88525
-3.89435
-3.90956
-3.92785
-3.94763
-3.96795
-3.98797
-4.00692
-4.02414
-4.03905
-4.05113
-4.05996
-4.06516
-4.0664
-4.06341
-4.05594
-4.04377
-4.02677
-4.00475
-3.97764
-3.94531
-3.90774
-3.86485
-3.81668
-3.76319
-3.70448
-3.64057
-3.57163
-3.49774
-3.4192
-3.33615
-3.24869
-3.15611
-3.05891
-2.96631
-2.90597
-2.87931
-2.82562
-2.70465
-4.05953
-8.60969
-14.009
-14.4632
-7.00616
-8.19386
-2.34452
-1.95681
-1.70735
-1.69452
0.498068
0.0465309
-0.40878
-0.801612
-1.14367
-1.44997
-1.72655
-1.97574
-2.19929
-2.39894
-2.57622
-2.73243
-2.86867
-2.98582
-3.08464
-3.16574
-3.22966
-3.2768
-3.30751
-3.32206
-3.32066
-3.30343
-3.27046
-3.22174
-3.15723
-3.07678
-2.98018
-2.86708
-2.73708
-2.58957
-2.42384
-2.2389
-2.03362
-1.80648
-1.55574
-1.27903
-0.972726
-0.631714
-0.253969
0.152132
0.58664
1.06827
1.53439
1.72944
1.31019
4.17867
-5.60598
1.88762
-6.06657
-1.71564
-1.25684
-1.13208
-0.682874
-0.358611
-0.369742
-0.668822
-1.02786
-1.22671
-1.28099
-1.2921
-1.29461
-1.29486
-1.29449
-1.29338
-1.29341
-1.29334
-1.29259
-1.29336
-1.29358
-1.29358
-1.29343
-1.29294
-1.29351
-1.29356
-1.29351
-1.29351
-1.29352
-1.29357
-1.29362
-1.29353
-1.29361
-1.2937
-1.29381
-1.29388
-1.29395
-1.29406
-1.29416
-1.29425
-1.29432
-1.29433
-1.29462
-1.29479
-1.29461
-1.29423
-1.29442
-1.29478
-1.29524
-1.29557
-1.29577
-1.29591
3.20763
3.19592
2.95412
2.10233
1.07227
0.144928
-0.592976
-0.994881
-1.20185
-1.29721
-1.31653
-1.31838
-1.31853
-1.31846
-1.31855
-1.31835
-1.31717
-1.31836
-1.31844
-1.31852
-1.3184
-1.31852
-1.31927
-1.31946
-1.31916
-1.31938
-1.31991
-1.31998
-1.32025
-1.32063
-1.32088
-1.32113
-1.3214
-1.32163
-1.32184
-1.32204
-1.32211
-1.32252
-1.32274
-1.32291
-1.32303
-1.3233
-1.32364
-1.32392
-1.32416
-1.32441
-1.32467
-1.32488
-1.32492
-1.32526
5.31818
5.33086
5.1676
4.24975
4.00976
3.30976
2.03756
0.628644
-0.639702
-1.24951
-1.33522
-1.33939
-1.33964
-1.33965
-1.33963
-1.33962
-1.33963
-1.33964
-1.33966
-1.33967
-1.33969
-1.33887
-1.33933
-1.33918
-1.33981
-1.33984
-1.34019
-1.34016
-1.34002
-1.34003
-1.34005
-1.34016
-1.34024
-1.34029
-1.34039
-1.34045
-1.34043
-1.34051
-1.34057
-1.34065
-1.34072
-1.34077
-1.34085
-1.34092
-1.34098
-1.34104
-1.34109
-1.34114
-1.34118
-1.34124
4.43004
4.469
4.511
4.52164
4.41475
3.93423
3.1454
1.96766
0.0114923
-1.17499
-1.34831
-1.36138
-1.36187
-1.36175
-1.3612
-1.36075
-1.3621
-1.36211
-1.36213
-1.36202
-1.36185
-1.36198
-1.36185
-1.36263
-1.36289
-1.36298
-1.363
-1.36252
-1.3633
-1.36332
-1.36334
-1.36337
-1.36339
-1.36342
-1.36347
-1.36309
-1.36356
-1.3637
-1.36375
-1.36376
-1.36372
-1.36376
-1.36376
-1.36376
-1.36376
-1.36375
-1.36374
-1.36373
-1.36371
-1.36369
3.07391
2.9498
2.41496
1.01039
0.226674
-0.741963
-1.72689
-1.71122
-1.35548
-1.37026
-1.3884
-1.38425
-1.3846
-1.38479
-1.3848
-1.38473
-1.3847
-1.38468
-1.38466
-1.38464
-1.38463
-1.38461
-1.38459
-1.3846
-1.3846
-1.38461
-1.3846
-1.38458
-1.3846
-1.3846
-1.3846
-1.3846
-1.38459
-1.38458
-1.38456
-1.38454
-1.38456
-1.38457
-1.38456
-1.38446
-1.38453
-1.38452
-1.38451
-1.3845
-1.38447
-1.38446
-1.38444
-1.38442
-1.38439
-1.38434
-1.09151
-2.01621
-2.69358
-3.39284
-3.50503
-2.5694
-1.68539
-1.43949
-1.40873
-1.40506
-1.40691
-1.40707
-1.40705
-1.40703
-1.40702
-1.40702
-1.40702
-1.40701
-1.40701
-1.407
-1.407
-1.40699
-1.40699
-1.40698
-1.40698
-1.40697
-1.40697
-1.40696
-1.40696
-1.40695
-1.40694
-1.40693
-1.40692
-1.40691
-1.4069
-1.40689
-1.40687
-1.40685
-1.40683
-1.4068
-1.40678
-1.40675
-1.40673
-1.4067
-1.40667
-1.40663
-1.4066
-1.40657
-1.40652
-1.40648
-5.25272
-5.03219
-3.89325
-2.42192
-1.64595
-1.46614
-1.42343
-1.42316
-1.42838
-1.42818
-1.42815
-1.4283
-1.42837
-1.42843
-1.42847
-1.42852
-1.42856
-1.42859
-1.42863
-1.42866
-1.42869
-1.42871
-1.42874
-1.42877
-1.42879
-1.42881
-1.42883
-1.42885
-1.42887
-1.42889
-1.42891
-1.42892
-1.42894
-1.42895
-1.42897
-1.42898
-1.42899
-1.429
-1.42901
-1.42902
-1.42903
-1.42904
-1.42904
-1.42905
-1.42905
-1.42905
-1.42906
-1.42906
-1.42906
-1.42907
-2.45874
-1.66857
-1.47459
-1.44942
-1.4502
-1.45102
-1.45144
-1.45136
-1.45133
-1.45134
-1.45133
-1.45132
-1.45132
-1.45132
-1.45131
-1.45131
-1.45131
-1.45131
-1.45131
-1.45132
-1.45132
-1.45132
-1.45133
-1.45134
-1.45134
-1.45135
-1.45135
-1.45136
-1.45137
-1.45137
-1.45138
-1.45138
-1.45139
-1.45139
-1.4514
-1.4514
-1.4514
-1.45141
-1.45141
-1.45141
-1.45141
-1.45141
-1.45141
-1.45141
-1.45141
-1.45141
-1.4514
-1.4514
-1.4514
-1.4514
-1.47306
-1.47586
-1.47652
-1.47618
-1.47594
-1.47586
-1.47575
-1.47562
-1.47549
-1.47537
-1.47526
-1.47515
-1.47505
-1.47496
-1.47487
-1.4748
-1.47472
-1.47466
-1.4746
-1.47454
-1.47449
-1.47445
-1.4744
-1.47436
-1.47433
-1.4743
-1.47427
-1.47424
-1.47421
-1.47419
-1.47417
-1.47415
-1.47413
-1.47411
-1.47409
-1.47408
-1.47406
-1.47405
-1.47404
-1.47402
-1.47401
-1.474
-1.47399
-1.47398
-1.47397
-1.47396
-1.47395
-1.47394
-1.47393
-1.47392
-1.498
-1.49802
-1.49797
-1.49789
-1.49781
-1.49775
-1.49768
-1.49761
-1.49755
-1.49749
-1.49743
-1.49737
-1.49732
-1.49727
-1.49722
-1.49717
-1.49712
-1.49708
-1.49704
-1.497
-1.49697
-1.49693
-1.4969
-1.49687
-1.49684
-1.49681
-1.49678
-1.49675
-1.49673
-1.4967
-1.49667
-1.49665
-1.49662
-1.4966
-1.49658
-1.49655
-1.49653
-1.49651
-1.49648
-1.49646
-1.49644
-1.49642
-1.4964
-1.49638
-1.49636
-1.49634
-1.49632
-1.4963
-1.49628
-1.49626
-1.51899
-1.51903
-1.51906
-1.51908
-1.5191
-1.51912
-1.51913
-1.51914
-1.51914
-1.51914
-1.51914
-1.51914
-1.51914
-1.51913
-1.51913
-1.51912
-1.51912
-1.51911
-1.5191
-1.51909
-1.51909
-1.51908
-1.51907
-1.51906
-1.51904
-1.51903
-1.51902
-1.51901
-1.51899
-1.51898
-1.51897
-1.51895
-1.51893
-1.51892
-1.5189
-1.51889
-1.51887
-1.51885
-1.51883
-1.51881
-1.51879
-1.51878
-1.51876
-1.51874
-1.51872
-1.5187
-1.51868
-1.51866
-1.51865
-1.51863
-1.54198
-1.542
-1.542
-1.542
-1.54199
-1.54198
-1.54196
-1.54194
-1.54172
-1.54191
-1.54188
-1.54185
-1.54182
-1.54169
-1.54174
-1.54173
-1.54169
-1.54166
-1.54163
-1.5416
-1.54159
-1.54134
-1.54156
-1.54157
-1.54154
-1.54135
-1.54153
-1.54152
-1.54165
-1.54162
-1.54141
-1.54136
-1.54136
-1.5411
-1.54132
-1.54132
-1.54128
-1.54123
-1.54118
-1.54113
-1.54108
-1.54103
-1.54093
-1.54088
-1.54084
-1.54058
-1.54081
-1.54082
-1.54075
-1.5407
-1.56184
-1.56198
-1.56211
-1.56222
-1.56232
-1.56241
-1.5625
-1.56257
-1.56263
-1.56269
-1.56274
-1.56278
-1.56282
-1.56286
-1.5629
-1.56293
-1.56297
-1.56299
-1.56302
-1.56304
-1.56307
-1.56309
-1.56311
-1.56313
-1.56316
-1.56317
-1.56316
-1.56319
-1.56322
-1.56322
-1.56324
-1.56327
-1.56327
-1.56328
-1.56328
-1.56327
-1.56327
-1.56326
-1.56312
-1.56325
-1.56324
-1.56324
-1.56324
-1.5631
-1.56319
-1.56321
-1.56323
-1.56322
-1.56322
-1.56322
-1.58252
-1.58274
-1.58268
-1.58288
-1.58312
-1.58328
-1.58344
-1.58347
-1.58361
-1.58374
-1.58386
-1.58397
-1.58407
-1.58352
-1.58385
-1.58397
-1.58402
-1.58408
-1.58412
-1.58416
-1.58419
-1.58422
-1.58424
-1.58426
-1.58428
-1.58429
-1.58425
-1.58415
-1.58415
-1.58467
-1.58482
-1.58486
-1.5845
-1.58471
-1.58463
-1.58472
-1.58473
-1.58475
-1.58476
-1.58477
-1.58478
-1.5848
-1.58481
-1.58482
-1.58484
-1.58489
-1.58441
-1.58491
-1.58493
-1.58494
-1.60618
-1.60632
-1.60644
-1.60655
-1.60666
-1.60676
-1.60685
-1.60693
-1.607
-1.60706
-1.60711
-1.60716
-1.60719
-1.60709
-1.60751
-1.60753
-1.60748
-1.60746
-1.60746
-1.60747
-1.60746
-1.60741
-1.60752
-1.60752
-1.60753
-1.60749
-1.60745
-1.60743
-1.60742
-1.60739
-1.60737
-1.60735
-1.60733
-1.60729
-1.60724
-1.6072
-1.60715
-1.60712
-1.60707
-1.60703
-1.60698
-1.60694
-1.60689
-1.6068
-1.60655
-1.60797
-1.60796
-1.60792
-1.60789
-1.60786
-1.63003
-1.63033
-1.63039
-1.63049
-1.63048
-1.63048
-1.6305
-1.63048
-1.63047
-1.63044
-1.63043
-1.63041
-1.63039
-1.63037
-1.63035
-1.63033
-1.6303
-1.63028
-1.63026
-1.63023
-1.63018
-1.63023
-1.63021
-1.63019
-1.63018
-1.63017
-1.63016
-1.63015
-1.63014
-1.63012
-1.63009
-1.62968
-1.63012
-1.63021
-1.63018
-1.63015
-1.63012
-1.6301
-1.63007
-1.63004
-1.63002
-1.62999
-1.62997
-1.62995
-1.62994
-1.62991
-1.62989
-1.62988
-1.62986
-1.62985
-1.65367
-1.6536
-1.65354
-1.65348
-1.65343
-1.65338
-1.65334
-1.65329
-1.65303
-1.65295
-1.65314
-1.6531
-1.65301
-1.65306
-1.65303
-1.65301
-1.6527
-1.6528
-1.65272
-1.65278
-1.65276
-1.65272
-1.65275
-1.65274
-1.65271
-1.65269
-1.65268
-1.65266
-1.65265
-1.65255
-1.65261
-1.65249
-1.65257
-1.65257
-1.65256
-1.65255
-1.65256
-1.65256
-1.65255
-1.65255
-1.65255
-1.65257
-1.65258
-1.65258
-1.65259
-1.6526
-1.6526
-1.6526
-1.6526
-1.65261
-1.675
-1.67507
-1.67502
-1.67497
-1.67495
-1.67494
-1.67492
-1.67491
-1.6749
-1.67488
-1.67488
-1.67487
-1.67486
-1.67485
-1.67484
-1.67483
-1.67483
-1.67482
-1.67481
-1.67481
-1.67481
-1.6748
-1.6748
-1.6748
-1.67479
-1.67479
-1.67479
-1.67479
-1.67478
-1.67478
-1.67478
-1.67478
-1.67478
-1.67478
-1.67478
-1.67478
-1.67478
-1.67478
-1.67478
-1.67478
-1.67478
-1.67478
-1.67479
-1.67479
-1.67479
-1.67479
-1.67479
-1.6748
-1.6748
-1.6748
-1.69701
-1.69768
-1.69769
-1.69763
-1.69761
-1.6976
-1.69759
-1.69758
-1.69756
-1.69753
-1.69751
-1.69749
-1.69746
-1.69744
-1.69741
-1.69739
-1.69737
-1.69735
-1.69734
-1.69732
-1.69731
-1.6973
-1.69729
-1.69728
-1.69727
-1.69726
-1.69726
-1.69725
-1.69725
-1.69725
-1.69724
-1.69724
-1.69724
-1.69724
-1.69724
-1.69724
-1.69724
-1.69724
-1.69725
-1.69725
-1.69725
-1.69725
-1.69725
-1.69726
-1.69726
-1.69726
-1.69727
-1.69727
-1.69727
-1.69728
-1.71833
-1.71803
-1.71798
-1.71811
-1.71826
-1.71838
-1.71848
-1.71857
-1.71865
-1.71872
-1.71878
-1.71884
-1.71889
-1.71893
-1.71897
-1.71901
-1.71905
-1.71908
-1.71911
-1.71914
-1.71916
-1.71918
-1.71921
-1.71923
-1.71924
-1.71926
-1.71928
-1.7193
-1.71931
-1.71933
-1.71934
-1.71936
-1.71937
-1.71938
-1.71939
-1.7194
-1.71941
-1.71943
-1.71944
-1.71945
-1.71945
-1.71946
-1.71947
-1.71948
-1.71949
-1.7195
-1.71951
-1.71951
-1.71952
-1.71953
-1.29601
-1.2961
-1.29621
-1.29632
-1.29643
-1.29655
-1.29668
-1.29681
-1.29697
-1.29715
-1.29705
-1.29633
-1.29517
-1.29466
-1.29485
-1.29526
-1.29576
-1.29672
-1.2981
-1.29903
-1.29947
-1.29967
-1.2999
-1.30013
-1.29994
-1.29893
-1.27723
-1.27754
-1.29026
-1.29149
-1.27798
-1.27888
-1.27881
-1.27845
-1.27856
-1.27916
-1.27987
-1.2809
-1.2808
-1.28023
-1.28034
-1.28113
-1.28173
-1.28195
-1.28221
-1.28246
-1.28271
-1.28296
-1.28321
-1.28338
-1.28109
-1.28234
-1.26981
-1.26892
-1.2672
-1.27107
-1.28524
-1.28525
-1.2852
-1.28534
-1.28552
-1.28576
-1.28583
-1.27088
-1.29436
-1.29472
-1.29486
-1.29491
-1.29513
-1.2956
-1.29602
-1.2798
-1.28289
-1.28382
-1.28022
-1.28028
-1.28025
-1.27926
-1.27917
-1.2891
-1.28906
-1.28893
-1.28949
-1.28948
-1.29081
-1.29079
-1.29078
-1.29079
-1.29081
-1.29083
-1.29086
-1.29089
-1.29092
-1.29096
-1.28925
-1.29025
-1.29026
-1.29026
-1.29025
-1.29024
-1.29021
-1.29017
-1.28904
-1.28955
-1.2921
-1.29205
-1.29199
-1.29195
-1.2919
-1.29187
-1.29182
-1.28916
-1.29255
-1.29254
-1.29247
-1.29243
-1.29239
-1.29236
-1.2923
-1.29194
-1.2937
-1.29364
-1.29351
-1.29361
-1.29359
-1.2922
-1.29338
-1.29327
-1.29295
-1.2928
-1.29252
-1.2922
-1.29207
-1.29243
-1.29201
-1.29203
-1.29194
-1.29187
-1.29182
-1.29181
-1.2918
-1.29177
-1.29177
-1.29185
-1.29175
-1.29193
-1.29187
-1.29198
-1.29177
-1.29192
-1.29202
-1.29213
-1.29225
-1.29238
-1.29252
-1.29267
-1.29277
-1.29297
-1.29311
-1.29321
-1.29331
-1.29341
-1.29352
-1.29362
-1.29375
-1.29386
-1.29397
-1.29408
-1.29419
-1.2943
-1.29442
-1.29453
-1.29464
-1.29475
-1.29487
-1.29499
-1.2951
-1.29522
-1.29534
-1.29546
-1.29558
-1.2957
-1.29582
-1.29594
-1.29606
-1.29618
-1.29631
-1.29643
-1.29655
-1.29667
-1.29679
-1.29692
-1.29704
-1.29717
-1.2973
-1.29741
-1.29755
-1.29771
-1.29783
-1.29793
-1.29805
-1.29816
-1.29804
-1.29832
-1.29839
-1.29848
-1.29801
-1.29843
-1.29827
-1.29882
-1.29775
-1.29864
-1.29875
-1.29881
-1.29896
-1.29902
-1.29908
-1.29865
-1.29995
-1.30005
-1.30019
-1.30035
-1.30053
-1.30084
-1.30132
-1.30028
-1.30242
-1.30233
-1.30236
-1.30228
-1.30214
-1.30188
-1.30152
-1.30123
-1.30103
-1.30076
-1.30033
-1.30014
-1.3009
-1.3008
-1.30071
-1.30064
-1.3006
-1.30058
-1.30056
-1.30054
-1.30053
-1.30053
-1.30053
-1.30054
-1.30055
-1.30057
-1.30059
-1.30062
-1.30065
-1.30068
-1.30072
-1.30075
-1.30079
-1.30084
-1.30088
-1.30093
-1.30098
-1.30102
-1.30107
-1.30113
-1.30118
-1.30123
-1.30128
-1.30133
-1.30139
-1.30144
-1.30149
-1.30155
-1.3016
-1.30166
-1.30171
-1.30176
-1.30182
-1.30187
-1.30192
-1.30197
-1.30203
-1.30208
-1.30213
-1.30219
-1.30224
-1.30229
-1.30235
-1.3024
-1.30245
-1.30249
-1.30254
-1.30259
-1.30263
-1.30267
-1.30271
-1.30274
-1.30277
-1.3028
-1.32546
-1.32559
-1.32573
-1.32603
-1.32619
-1.32549
-1.32569
-1.32575
-1.32576
-1.32593
-1.33052
-1.32687
-1.32898
-1.30321
-1.31472
-1.32203
-1.31968
-1.3193
-1.32388
-1.32158
-1.32188
-1.31429
-1.31559
-1.3157
-1.30561
-1.3136
-1.31325
-1.31157
-1.31206
-1.31426
-1.31177
-1.31267
-1.31303
-1.29118
-1.30761
-1.30818
-1.30815
-1.30839
-1.30883
-1.30928
-1.30972
-1.31015
-1.31056
-1.31093
-1.30935
-1.30973
-1.31023
-1.30718
-1.30827
-1.29814
-1.30313
-1.30377
-1.30395
-1.30433
-1.30551
-1.30621
-1.30668
-1.30703
-1.31171
-1.31207
-1.31027
-1.31981
-1.29312
-1.31409
-1.31448
-1.31262
-1.31289
-1.31321
-1.31338
-1.31239
-1.31483
-1.31474
-1.31032
-1.31107
-1.31189
-1.30986
-1.31033
-1.31047
-1.31044
-1.31044
-1.31045
-1.31061
-1.31076
-1.31078
-1.3109
-1.31234
-1.31244
-1.31253
-1.31262
-1.31271
-1.3128
-1.3129
-1.31299
-1.3131
-1.31066
-1.31199
-1.31212
-1.31223
-1.31235
-1.31247
-1.3126
-1.31274
-1.3126
-1.31312
-1.31324
-1.31337
-1.31349
-1.31361
-1.31374
-1.31388
-1.314
-1.3126
-1.31273
-1.31303
-1.31312
-1.31303
-1.31317
-1.31327
-1.31189
-1.31217
-1.31231
-1.31154
-1.31306
-1.31305
-1.31294
-1.31402
-1.31402
-1.31398
-1.31396
-1.31395
-1.31395
-1.31398
-1.31388
-1.3142
-1.31412
-1.31406
-1.31403
-1.31401
-1.314
-1.314
-1.31391
-1.31398
-1.31397
-1.31398
-1.314
-1.31403
-1.31407
-1.31395
-1.3142
-1.31424
-1.3143
-1.31436
-1.31443
-1.3145
-1.31456
-1.31465
-1.31474
-1.31483
-1.31492
-1.31502
-1.31512
-1.31523
-1.31534
-1.31545
-1.31556
-1.31567
-1.31579
-1.3159
-1.31602
-1.31614
-1.31626
-1.31637
-1.31649
-1.31661
-1.31673
-1.31685
-1.31697
-1.3171
-1.31722
-1.31734
-1.31746
-1.31759
-1.31771
-1.31784
-1.31796
-1.31809
-1.31821
-1.31834
-1.31847
-1.31859
-1.31872
-1.31885
-1.31897
-1.3191
-1.31923
-1.31937
-1.3195
-1.31962
-1.31973
-1.31985
-1.31983
-1.31994
-1.3203
-1.32039
-1.32047
-1.32058
-1.32068
-1.32079
-1.32089
-1.31995
-1.3204
-1.32058
-1.32068
-1.32079
-1.32084
-1.32098
-1.32099
-1.3209
-1.32179
-1.32186
-1.32191
-1.32194
-1.32197
-1.32204
-1.32207
-1.32208
-1.32207
-1.32214
-1.32217
-1.32219
-1.32219
-1.32224
-1.32227
-1.32226
-1.32195
-1.32188
-1.32263
-1.32262
-1.32261
-1.32262
-1.32264
-1.32265
-1.32267
-1.32268
-1.32269
-1.3227
-1.32271
-1.32273
-1.32274
-1.32276
-1.32278
-1.3228
-1.32282
-1.32285
-1.32288
-1.3229
-1.32293
-1.32296
-1.32299
-1.32303
-1.32306
-1.3231
-1.32314
-1.32318
-1.32322
-1.32327
-1.32331
-1.32335
-1.3234
-1.32345
-1.32349
-1.32354
-1.32359
-1.32364
-1.32369
-1.32374
-1.32379
-1.32384
-1.32388
-1.32393
-1.32398
-1.32403
-1.32407
-1.32412
-1.32417
-1.32422
-1.32426
-1.32431
-1.32435
-1.32439
-1.32442
-1.32445
-1.32448
-1.32451
-1.32454
-1.32456
-1.32457
-1.32457
-1.32457
-1.32456
-1.34112
-1.34124
-1.34126
-1.34129
-1.34133
-1.34094
-1.3413
-1.34132
-1.34134
-1.34139
-1.34143
-1.34147
-1.34151
-1.34154
-1.34155
-1.34153
-1.34151
-1.34152
-1.34142
-1.34142
-1.34135
-1.34126
-1.34114
-1.34106
-1.34095
-1.34083
-1.33917
-1.33963
-1.33937
-1.33914
-1.33886
-1.33923
-1.33905
-1.33886
-1.3387
-1.3385
-1.33826
-1.33814
-1.33795
-1.3371
-1.33782
-1.33766
-1.33746
-1.33731
-1.33709
-1.33687
-1.33692
-1.33673
-1.33649
-1.3386
-1.3385
-1.33841
-1.33835
-1.33829
-1.33823
-1.33059
-1.339
-1.339
-1.33829
-1.33946
-1.33777
-1.33839
-1.33797
-1.3378
-1.3382
-1.33821
-1.33762
-1.33915
-1.33902
-1.3388
-1.33861
-1.33848
-1.33837
-1.33834
-1.33827
-1.33819
-1.33417
-1.33634
-1.33632
-1.33624
-1.33617
-1.3361
-1.33605
-1.33601
-1.33599
-1.336
-1.33595
-1.33591
-1.33654
-1.33655
-1.33654
-1.33657
-1.33671
-1.33672
-1.33572
-1.33578
-1.33592
-1.33599
-1.33591
-1.33601
-1.3361
-1.33481
-1.33492
-1.3335
-1.33448
-1.33404
-1.33413
-1.33426
-1.33339
-1.3344
-1.33339
-1.3348
-1.33478
-1.33485
-1.33493
-1.33505
-1.335
-1.33526
-1.3353
-1.33537
-1.33544
-1.33551
-1.33559
-1.33567
-1.33574
-1.33579
-1.33583
-1.33587
-1.33589
-1.33583
-1.33636
-1.33639
-1.33643
-1.33647
-1.33653
-1.33656
-1.3366
-1.33664
-1.33667
-1.3366
-1.33687
-1.33691
-1.33695
-1.33699
-1.33701
-1.33702
-1.33705
-1.33697
-1.33738
-1.33743
-1.33748
-1.33753
-1.33758
-1.33764
-1.3377
-1.33777
-1.33783
-1.3379
-1.33797
-1.33805
-1.33812
-1.3382
-1.33827
-1.33835
-1.33843
-1.33851
-1.3386
-1.33868
-1.33877
-1.33885
-1.33894
-1.33903
-1.33911
-1.3392
-1.33929
-1.33939
-1.33948
-1.33957
-1.33966
-1.33976
-1.33985
-1.33994
-1.34004
-1.34013
-1.34023
-1.34032
-1.34042
-1.34051
-1.3406
-1.3407
-1.34079
-1.34089
-1.34053
-1.34095
-1.34101
-1.3414
-1.34149
-1.34154
-1.34169
-1.34116
-1.34182
-1.34194
-1.34224
-1.34232
-1.34243
-1.34246
-1.34263
-1.34272
-1.34324
-1.34256
-1.3429
-1.34309
-1.34321
-1.34332
-1.34342
-1.34353
-1.34368
-1.34383
-1.34381
-1.34395
-1.34405
-1.34413
-1.34421
-1.34429
-1.34321
-1.34469
-1.34477
-1.34482
-1.34484
-1.34486
-1.34502
-1.34506
-1.34472
-1.345
-1.34502
-1.34503
-1.34503
-1.34502
-1.34502
-1.34501
-1.34499
-1.34498
-1.34497
-1.34496
-1.34496
-1.34495
-1.34495
-1.34496
-1.34496
-1.34497
-1.34498
-1.34499
-1.34501
-1.34503
-1.34504
-1.34507
-1.34509
-1.34511
-1.34514
-1.34517
-1.34521
-1.34524
-1.34528
-1.34532
-1.34536
-1.3454
-1.34544
-1.34549
-1.34553
-1.34558
-1.34563
-1.34568
-1.34573
-1.34578
-1.34583
-1.34588
-1.34594
-1.34598
-1.34603
-1.34608
-1.34613
-1.34619
-1.34626
-1.34632
-1.34639
-1.34646
-1.34654
-1.34663
-1.34631
-1.34666
-1.34683
-1.34694
-1.34707
-1.34717
-1.34733
-1.34675
-1.34712
-1.34715
-1.34717
-1.34719
-1.36366
-1.36364
-1.36361
-1.36358
-1.36354
-1.3635
-1.36346
-1.3634
-1.36335
-1.3633
-1.36318
-1.36318
-1.36298
-1.36284
-1.36278
-1.3627
-1.36262
-1.36252
-1.36233
-1.36261
-1.36246
-1.36244
-1.36236
-1.36228
-1.36181
-1.36184
-1.36135
-1.36143
-1.36105
-1.36113
-1.3611
-1.36108
-1.36086
-1.36125
-1.36136
-1.3613
-1.36061
-1.36049
-1.3606
-1.36063
-1.36067
-1.36043
-1.36035
-1.36101
-1.36082
-1.36072
-1.36045
-1.35995
-1.36009
-1.36047
-1.36055
-1.36046
-1.36025
-1.36091
-1.3604
-1.36118
-1.36099
-1.36098
-1.3609
-1.35966
-1.361
-1.36135
-1.36126
-1.36118
-1.3607
-1.36108
-1.36096
-1.3608
-1.36071
-1.3607
-1.36092
-1.36068
-1.36031
-1.36046
-1.36039
-1.36007
-1.36022
-1.36018
-1.36013
-1.36002
-1.36006
-1.35992
-1.35986
-1.35961
-1.35892
-1.35919
-1.35914
-1.35907
-1.35904
-1.35893
-1.35871
-1.35884
-1.35849
-1.35853
-1.35852
-1.35849
-1.35846
-1.35843
-1.35847
-1.35844
-1.35844
-1.35844
-1.35843
-1.35842
-1.35843
-1.35843
-1.35843
-1.35846
-1.35846
-1.35848
-1.35848
-1.35852
-1.35854
-1.35855
-1.35857
-1.35859
-1.35861
-1.35864
-1.35866
-1.35869
-1.35871
-1.35875
-1.35878
-1.35882
-1.35884
-1.35889
-1.35893
-1.35896
-1.35898
-1.3589
-1.35916
-1.3592
-1.35923
-1.35927
-1.3593
-1.35936
-1.3594
-1.35944
-1.35948
-1.35952
-1.35951
-1.35957
-1.35962
-1.35967
-1.35971
-1.35975
-1.3598
-1.35985
-1.3599
-1.35995
-1.36
-1.36006
-1.36011
-1.36017
-1.36022
-1.36028
-1.36034
-1.3604
-1.36046
-1.36053
-1.36059
-1.36066
-1.36073
-1.3608
-1.36087
-1.36094
-1.36102
-1.36109
-1.36117
-1.36124
-1.36132
-1.3614
-1.36148
-1.36156
-1.36164
-1.36173
-1.36181
-1.36189
-1.36198
-1.36206
-1.36215
-1.36224
-1.36232
-1.36241
-1.3625
-1.36258
-1.36267
-1.36275
-1.36285
-1.36274
-1.36302
-1.36315
-1.3632
-1.3633
-1.36339
-1.36348
-1.36353
-1.36358
-1.36365
-1.36377
-1.36389
-1.36398
-1.36405
-1.36414
-1.36422
-1.36373
-1.36442
-1.36449
-1.36458
-1.3647
-1.36436
-1.36492
-1.36498
-1.36502
-1.36508
-1.36511
-1.36405
-1.36579
-1.3658
-1.3662
-1.36574
-1.36595
-1.36599
-1.36606
-1.36615
-1.36622
-1.36627
-1.36632
-1.36636
-1.3664
-1.36645
-1.36649
-1.36653
-1.36657
-1.3666
-1.36664
-1.36667
-1.3667
-1.36673
-1.36676
-1.36679
-1.36683
-1.36686
-1.3669
-1.36693
-1.36697
-1.367
-1.36702
-1.36705
-1.36708
-1.36712
-1.36716
-1.36721
-1.36726
-1.36729
-1.3673
-1.36729
-1.36729
-1.3673
-1.36731
-1.36733
-1.36735
-1.36738
-1.36741
-1.36744
-1.36747
-1.36751
-1.36754
-1.36758
-1.36762
-1.36766
-1.36769
-1.36773
-1.36777
-1.3678
-1.36784
-1.36788
-1.36791
-1.36702
-1.36785
-1.36792
-1.36789
-1.36797
-1.3682
-1.36822
-1.36827
-1.36826
-1.36821
-1.3682
-1.36873
-1.36875
-1.3688
-1.36892
-1.36894
-1.36883
-1.36859
-1.3687
-1.36737
-1.36792
-1.36781
-1.38429
-1.38429
-1.38427
-1.38317
-1.38446
-1.38456
-1.38453
-1.38507
-1.38505
-1.38502
-1.38499
-1.38496
-1.38493
-1.38491
-1.38488
-1.38485
-1.38481
-1.38478
-1.38475
-1.38472
-1.38469
-1.38466
-1.38462
-1.38458
-1.38454
-1.38451
-1.38446
-1.38443
-1.38439
-1.38435
-1.3843
-1.38426
-1.38422
-1.38418
-1.38413
-1.38409
-1.38405
-1.384
-1.38396
-1.38392
-1.38388
-1.38384
-1.3838
-1.38376
-1.38372
-1.38369
-1.38365
-1.38362
-1.38358
-1.38355
-1.38352
-1.38348
-1.38345
-1.38342
-1.38339
-1.38335
-1.38331
-1.38327
-1.38322
-1.38318
-1.38313
-1.38309
-1.38305
-1.383
-1.38296
-1.38291
-1.38287
-1.38283
-1.38279
-1.38274
-1.38271
-1.38267
-1.38263
-1.38259
-1.38256
-1.38252
-1.38248
-1.38244
-1.3824
-1.38237
-1.38234
-1.3823
-1.38227
-1.38224
-1.38222
-1.38219
-1.38217
-1.38215
-1.38213
-1.38212
-1.3821
-1.38209
-1.38203
-1.38201
-1.38196
-1.38159
-1.38193
-1.38193
-1.38195
-1.38189
-1.38121
-1.38171
-1.38168
-1.38151
-1.38077
-1.38128
-1.38111
-1.38111
-1.38174