/*--------------------------------*- C++ -*----------------------------------*\
| =========                 |                                                 |
| \\      /  F ield         | OpenFOAM: The Open Source CFD Toolbox           |
|  \\    /   O peration     | Version:  2.4.0                                 |
|   \\  /    A nd           | Web:      www.OpenFOAM.org                      |
|    \\/     M anipulation  |                                                 |
\*---------------------------------------------------------------------------*/
FoamFile
{
    version     2.0;
    format      ascii;
    class       volScalarField;
    location    "2";
    object      p_rgh;
}
// * * * * * * * * * * * * * * * * * * * * * * * * * * * * * * * * * * * * * //

dimensions      [1 -1 -2 0 0 0 0];

internalField   nonuniform List<scalar> 
8000
(
88.3627
88.3352
88.3077
88.2839
88.2628
88.2439
88.227
88.2121
88.1994
88.1888
88.1803
88.174
88.1699
88.1681
88.1685
88.1712
88.1763
88.1838
88.1937
88.2061
88.2212
88.2388
88.2591
88.2824
88.3084
88.3375
88.3697
88.4053
88.4442
88.4868
88.5329
88.5831
88.637
88.6934
88.7496
88.8298
88.9
88.9846
89.0825
89.1706
89.2619
89.3389
89.5415
89.6325
89.8111
89.9594
89.9271
86.8056
76.6461
61.0852
88.2468
88.2334
88.2171
88.2015
88.1871
88.1737
88.1613
88.1498
88.1391
88.1294
88.1207
88.1128
88.1059
88.0998
88.0947
88.0903
88.0868
88.084
88.082
88.0806
88.0798
88.0793
88.0795
88.0803
88.0807
88.0815
88.0823
88.0829
88.0832
88.083
88.0823
88.0805
88.0779
88.0738
88.0683
88.061
88.052
88.0405
88.0265
88.0097
87.99
87.9669
87.9402
87.9112
87.8782
87.8396
87.7884
87.7186
87.5494
86.825
89.5973
89.5785
89.5595
89.5428
89.5276
89.5135
89.5005
89.4884
89.4774
89.4674
89.4585
89.4505
89.4435
89.4375
89.4325
89.4284
89.4253
89.423
89.4217
89.4212
89.4216
89.4229
89.4249
89.4278
89.4314
89.4357
89.4408
89.4466
89.453
89.4601
89.4679
89.4762
89.4852
89.4947
89.5047
89.5153
89.5264
89.5379
89.5499
89.5623
89.575
89.5881
89.6013
89.6143
89.6289
89.6411
89.6548
89.6655
89.6722
89.6872
89.5413
89.5283
89.5135
89.4998
89.4874
89.4762
89.466
89.4567
89.4483
89.441
89.4345
89.4291
89.4246
89.421
89.4185
89.4169
89.4162
89.4166
89.418
89.4203
89.4237
89.4282
89.4337
89.4402
89.4479
89.4567
89.4666
89.4777
89.49
89.5035
89.5183
89.5344
89.5518
89.5707
89.591
89.6127
89.6361
89.661
89.6877
89.7161
89.7463
89.7784
89.8126
89.8487
89.8871
89.9295
89.9716
90.0182
90.0686
90.1234
90.1648
90.1563
90.1478
90.1403
90.1334
90.127
90.1211
90.1156
90.1105
90.1059
90.1018
90.098
90.0948
90.0919
90.0894
90.0874
90.0858
90.0846
90.0837
90.0833
90.0833
90.0836
90.0843
90.0853
90.0867
90.0884
90.0905
90.0929
90.0956
90.0987
90.102
90.1057
90.1097
90.114
90.1186
90.1236
90.1288
90.1345
90.1404
90.1468
90.1535
90.1607
90.1683
90.1763
90.1851
90.1971
90.2081
90.2203
90.2213
90.2157
90.1544
90.1521
90.1493
90.1466
90.1443
90.1422
90.1404
90.1388
90.1375
90.1365
90.1357
90.1351
90.1349
90.1349
90.1351
90.1356
90.1364
90.1374
90.1386
90.1401
90.1418
90.1438
90.1459
90.1483
90.1508
90.1535
90.1563
90.1593
90.1623
90.1655
90.1687
90.172
90.1752
90.1784
90.1816
90.1846
90.1875
90.1901
90.1925
90.1945
90.1961
90.1973
90.199
90.2019
90.2045
90.196
90.1754
90.0906
89.8472
89.3858
90.476
90.4775
90.4795
90.4815
90.4835
90.4854
90.4874
90.4893
90.4913
90.4932
90.4952
90.4971
90.499
90.5009
90.5027
90.5044
90.5061
90.5077
90.5091
90.5104
90.5115
90.5124
90.513
90.5133
90.5133
90.5129
90.512
90.5107
90.5088
90.5063
90.503
90.499
90.4941
90.4882
90.4812
90.4731
90.4635
90.4525
90.44
90.4267
90.4131
90.3971
90.3693
90.3323
90.2218
89.8794
89.2403
83.444
71.7066
55.0921
90.5969
90.6001
90.6036
90.6072
90.6109
90.6149
90.6192
90.6236
90.6283
90.6332
90.6383
90.6436
90.6492
90.6549
90.6609
90.6671
90.6736
90.6803
90.6873
90.6945
90.7021
90.7099
90.718
90.7265
90.7353
90.7445
90.7541
90.7641
90.7745
90.7854
90.7968
90.8088
90.8212
90.8343
90.8479
90.862
90.8774
90.8958
90.9182
90.9359
90.9238
90.8448
90.4435
89.6266
83.0998
69.5741
49.8657
29.9424
9.97829
2.36042
90.8388
90.8446
90.8518
90.8597
90.8681
90.8773
90.8872
90.8979
90.9092
90.9214
90.9343
90.948
90.9625
90.9779
90.9942
91.0115
91.0297
91.049
91.0695
91.0911
91.1141
91.1383
91.1641
91.1913
91.2203
91.251
91.2837
91.3182
91.3552
91.3942
91.436
91.48
91.5273
91.5769
91.6318
91.6927
91.7597
91.8091
91.8047
91.4374
90.4328
86.7855
66.9808
46.4915
20.1998
6.33393
0.480894
0.507716
0.102708
0.0679641
90.8303
90.8461
90.8635
90.8796
90.8944
90.9083
90.9214
90.9337
90.9452
90.956
90.966
90.9753
90.984
90.9919
90.9992
91.0058
91.0118
91.0172
91.0221
91.0263
91.0302
91.0334
91.0363
91.0386
91.0407
91.0422
91.0437
91.0445
91.0456
91.0459
91.0464
91.0453
91.0459
91.0529
91.0787
91.0954
90.9459
89.9785
87.9464
69.6393
41.4592
21.0542
0.779194
0.507879
0.132625
0.151138
0.0562956
0.0589505
0.0566589
0.056521
90.7391
90.7627
90.7872
90.8088
90.8278
90.8449
90.8602
90.8739
90.8859
90.8961
90.9048
90.9117
90.9171
90.9208
90.9229
90.9234
90.9223
90.9196
90.9153
90.9093
90.9016
90.8923
90.8813
90.8685
90.8541
90.8377
90.8197
90.7997
90.7775
90.7517
90.7228
90.7007
90.7134
90.7552
90.5672
89.3239
86.6346
56.8639
25.0412
0.43985
0.786722
0.775291
0.0725575
0.0757211
0.0588245
0.0580039
0.0579689
0.0580458
0.0581155
0.0579642
91.6099
91.6282
91.6483
91.6659
91.681
91.6938
91.7046
91.7135
91.7203
91.7252
91.728
91.7289
91.7277
91.7245
91.7193
91.7121
91.7027
91.6913
91.6776
91.6619
91.6438
91.6236
91.6008
91.5758
91.5482
91.5183
91.4852
91.4486
91.4069
91.3681
91.3561
91.3844
91.2701
90.3745
88.1001
60.769
13.0352
0.601884
0.700577
0.123971
0.0594847
0.0656551
0.058641
0.0576878
0.0574391
0.0574801
0.0575084
0.0574474
0.0573646
0.0572994
91.883
91.8931
91.9017
91.9078
91.912
91.9146
91.9155
91.9148
91.9123
91.9081
91.9022
91.8944
91.8849
91.8735
91.8603
91.8453
91.8284
91.8096
91.789
91.7665
91.7421
91.7158
91.6877
91.6577
91.6258
91.5918
91.5551
91.5169
91.4833
91.466
91.442
91.2474
90.5914
82.7916
20.7777
0.27016
0.172617
0.0855226
0.0702488
0.0650872
0.0612456
0.0610868
0.0611671
0.0610354
0.0609025
0.0607111
0.0605214
0.0603322
0.0601516
0.0599792
93.7832
93.7811
93.7807
93.7808
93.7806
93.7801
93.7792
93.7779
93.7761
93.774
93.7713
93.7683
93.7647
93.7608
93.7564
93.7518
93.7468
93.7415
93.7361
93.7306
93.7249
93.7195
93.7142
93.7093
93.7045
93.6998
93.6955
93.698
93.7195
93.7467
93.6317
93.0635
88.3664
20.7049
0.338934
0.0662089
0.0663075
0.0652916
0.0652252
0.0646375
0.0639452
0.0645323
0.0641309
0.0643681
0.0647719
0.0645341
0.0637345
0.0627138
0.0620176
0.0617397
93.9018
93.9207
93.938
93.9509
93.9601
93.9662
93.9693
93.9694
93.9665
93.9606
93.9516
93.9395
93.9243
93.9061
93.8847
93.86
93.8322
93.8011
93.7666
93.7286
93.6873
93.6423
93.5937
93.5412
93.4847
93.4234
93.3582
93.2948
93.2456
93.1892
92.964
92.2715
86.668
22.8498
2.96289
0.0978112
0.105653
0.0726586
0.063592
0.0626265
0.0622464
0.062064
0.0617835
0.0615235
0.0612859
0.0610569
0.0608668
0.0606867
0.0605228
0.0603606
96.0539
96.0813
96.1101
96.1335
96.1515
96.1647
96.1736
96.178
96.1782
96.174
96.1656
96.1528
96.1356
96.1141
96.0881
96.0576
96.0224
95.9824
95.9375
95.8875
95.8321
95.7713
95.7048
95.6322
95.5532
95.4676
95.3745
95.2741
95.1679
95.0606
94.9467
94.7685
94.3965
93.8804
56.776
4.62321
1.93048
0.107475
0.142643
0.0606549
0.0592482
0.058454
0.0583125
0.0584094
0.0583372
0.0583114
0.0583837
0.0584202
0.0584735
0.058429
97.8283
97.8344
97.8387
97.8413
97.843
97.844
97.8444
97.8441
97.8432
97.8417
97.8396
97.837
97.8339
97.8303
97.8263
97.8218
97.817
97.8118
97.8061
97.8002
97.7939
97.7873
97.7803
97.7731
97.7653
97.7574
97.7489
97.7404
97.7312
97.7214
97.708
97.6926
97.6936
97.7642
97.834
97.1645
58.5969
3.73606
2.89494
-0.0498791
0.0494946
0.0353907
0.0551094
0.0585166
0.058206
0.0576907
0.0572989
0.0570867
0.0572052
0.0573324
101.5
101.477
101.456
101.437
101.418
101.401
101.385
101.37
101.358
101.348
101.341
101.336
101.335
101.337
101.343
101.353
101.367
101.386
101.409
101.436
101.469
101.506
101.549
101.597
101.651
101.711
101.777
101.849
101.928
102.013
102.106
102.207
102.315
102.415
102.487
102.599
102.654
100.481
85.9038
33.4487
5.32474
2.34636
1.60709
0.181229
0.129074
0.123242
0.053745
0.0753691
0.0596532
0.0589364
102.117
102.117
102.108
102.093
102.074
102.055
102.034
102.014
101.995
101.978
101.963
101.951
101.942
101.937
101.936
101.939
101.946
101.958
101.975
101.997
102.025
102.057
102.094
102.137
102.186
102.239
102.298
102.362
102.431
102.504
102.583
102.666
102.753
102.846
102.943
103.036
103.096
103.123
103.177
103.297
100.605
92.3481
74.6834
20.1115
2.60833
3.43102
1.43939
1.83751
0.0484451
0.0612722
107.851
107.399
106.944
106.551
106.209
105.903
105.626
105.377
105.153
104.954
104.776
104.62
104.484
104.367
104.268
104.187
104.123
104.076
104.045
104.03
104.032
104.049
104.082
104.131
104.195
104.276
104.372
104.485
104.615
104.763
104.929
105.114
105.319
105.546
105.797
106.074
106.38
106.721
107.099
107.505
107.939
108.421
108.887
108.745
103.663
109.551
82.4442
101.324
40.5549
0.0625257
44.6142
31.812
22.3783
15.4309
9.86929
5.37079
2.23004
0.673391
0.19379
0.0906302
0.0678875
0.0617294
0.0596253
0.0601157
0.0600847
0.0601599
0.0611798
0.0602243
0.0598501
0.0598535
0.0599771
0.0605513
0.0598728
0.0598451
0.0598698
0.0598973
0.0598802
0.0598285
0.0597918
0.0598911
0.0598208
0.0597407
0.0596563
0.0595988
0.0594845
0.0593222
0.0591896
0.0590907
0.0589968
0.0589707
0.0587584
0.0592919
0.0610788
0.0615062
0.0613112
0.0607354
0.0588681
0.0577538
0.0574455
0.0573065
83.0025
78.3726
72.4812
63.5016
51.6432
36.9181
20.1591
7.62582
2.03671
0.428034
0.117235
0.0674507
0.0588457
0.0574375
0.0573577
0.0575175
0.0589154
0.0575275
0.0574364
0.0573001
0.0573764
0.0573501
0.0564741
0.0563239
0.0565477
0.0564301
0.0558516
0.0557542
0.0555337
0.055128
0.0548505
0.0545755
0.0543098
0.0540578
0.0538504
0.053647
0.0536032
0.0531539
0.052939
0.0527561
0.0527054
0.0524293
0.0520686
0.0517696
0.051517
0.0512511
0.0509888
0.0507946
0.0506975
0.0503691
89.7148
89.7275
89.5625
86.1684
82.8887
76.2508
61.3053
38.1595
15.3197
2.83469
0.274199
0.0689819
0.0588417
0.0587051
0.0586174
0.0586667
0.0585998
0.0585881
0.0585271
0.0585175
0.0584957
0.0591661
0.0587821
0.0589623
0.0582255
0.0581916
0.0578951
0.0579389
0.0581076
0.05801
0.0580684
0.0578717
0.0578514
0.0577596
0.0576666
0.0576177
0.0576515
0.0575357
0.0574642
0.057384
0.0573124
0.0572666
0.0571922
0.0571089
0.0570357
0.0569773
0.0569228
0.0568677
0.0568256
0.0567661
90.1767
90.2158
90.2578
90.2683
90.1593
88.6238
83.3475
72.917
44.5072
10.2768
0.918159
0.0863514
0.0587754
0.0588046
0.0592523
0.0599806
0.0584004
0.0583872
0.0583522
0.0584952
0.0585209
0.0584092
0.058634
0.0577176
0.0575013
0.0574232
0.05742
0.0579841
0.0570676
0.0570513
0.0570333
0.0570174
0.0569942
0.0570245
0.0569412
0.0573891
0.0568206
0.0567056
0.0566576
0.0566565
0.0567088
0.0566649
0.0566424
0.0566237
0.0566152
0.0566221
0.0566335
0.0566434
0.0566652
0.0566901
90.1709
90.0444
89.3438
84.5416
75.9939
60.8489
35.9868
11.1655
2.18835
0.332219
0.0570428
0.0585646
0.0582665
0.0580364
0.0579871
0.0580186
0.0580513
0.0580486
0.0580579
0.0580715
0.0580825
0.0580991
0.0581092
0.0581181
0.058119
0.0581051
0.0581101
0.0581247
0.0581095
0.0581157
0.0581278
0.0581413
0.0581575
0.0581712
0.0581871
0.0582011
0.0581865
0.0581973
0.0582214
0.0583273
0.0582451
0.0582281
0.0582406
0.0582478
0.0582725
0.0582857
0.0583093
0.0583406
0.0583757
0.0584316
83.9989
75.1653
60.864
42.446
20.9521
5.96503
1.37831
0.336088
0.0599325
0.0627437
0.0582317
0.0580495
0.0580435
0.0580473
0.0580402
0.0580352
0.0580348
0.058037
0.0580409
0.0580452
0.0580498
0.0580544
0.0580585
0.0580625
0.0580671
0.0580727
0.0580785
0.0580853
0.0580939
0.058104
0.0581148
0.0581256
0.0581368
0.0581484
0.0581615
0.0581777
0.0581987
0.0582243
0.0582531
0.0582812
0.0583086
0.0583365
0.0583606
0.0583887
0.05842
0.0584528
0.0584864
0.0585222
0.0586425
0.0586379
37.0771
18.8702
5.94754
1.61648
0.391357
0.107434
0.069915
0.0678278
0.0590858
0.0592846
0.0593168
0.0591399
0.059051
0.0589846
0.0589328
0.0588875
0.0588467
0.0588099
0.0587762
0.058745
0.0587159
0.0586885
0.0586627
0.0586383
0.0586152
0.0585933
0.0585726
0.0585529
0.0585343
0.0585166
0.0584998
0.058484
0.0584693
0.0584555
0.0584428
0.0584309
0.0584201
0.05841
0.0584008
0.0583926
0.0583854
0.0583793
0.0583743
0.0583699
0.058366
0.0583626
0.0583596
0.0583567
0.0583541
0.0583583
0.895773
0.219039
0.102327
0.075319
0.060772
0.0592135
0.0583571
0.0584598
0.0584688
0.0584553
0.0584514
0.0584473
0.0584477
0.0584514
0.0584535
0.0584543
0.0584553
0.0584555
0.0584544
0.0584521
0.0584487
0.0584446
0.0584397
0.0584343
0.0584284
0.0584223
0.0584161
0.0584099
0.0584038
0.0583979
0.0583924
0.0583872
0.0583824
0.058378
0.0583741
0.0583707
0.0583678
0.0583654
0.0583635
0.0583623
0.0583615
0.0583613
0.0583617
0.0583625
0.0583637
0.0583653
0.0583672
0.0583694
0.0583716
0.0583743
0.0631267
0.0564067
0.0556769
0.0560107
0.0562442
0.0562968
0.0563889
0.0565211
0.0566503
0.0567684
0.0568808
0.056987
0.0570856
0.0571777
0.057263
0.0573415
0.0574134
0.057479
0.0575394
0.0575949
0.0576459
0.0576924
0.057735
0.0577739
0.0578096
0.0578423
0.0578723
0.0578999
0.0579253
0.0579488
0.0579705
0.0579906
0.0580093
0.0580268
0.0580432
0.0580585
0.058073
0.0580868
0.0580998
0.0581123
0.0581241
0.0581355
0.0581464
0.058157
0.0581671
0.058177
0.0581865
0.0581958
0.0582047
0.0582134
0.0565372
0.0564979
0.0565452
0.0566245
0.0566979
0.0567649
0.0568335
0.0568976
0.0569615
0.0570237
0.0570837
0.0571414
0.0571966
0.0572492
0.0572991
0.0573464
0.0573911
0.057434
0.0574746
0.057513
0.0575495
0.0575844
0.0576177
0.0576496
0.0576802
0.0577097
0.0577382
0.0577657
0.0577925
0.0578187
0.0578444
0.0578696
0.0578942
0.0579184
0.0579422
0.0579655
0.0579883
0.0580107
0.0580329
0.0580548
0.0580763
0.0580973
0.0581178
0.0581378
0.0581573
0.0581762
0.0581947
0.0582126
0.0582296
0.058246
0.0578997
0.0578588
0.0578289
0.057801
0.0577819
0.0577683
0.0577592
0.0577541
0.0577514
0.0577505
0.0577514
0.0577544
0.0577592
0.0577634
0.0577683
0.0577744
0.0577813
0.0577882
0.0577962
0.0578046
0.0578136
0.0578232
0.057833
0.0578436
0.0578555
0.0578677
0.0578798
0.0578925
0.0579065
0.05792
0.0579347
0.0579501
0.057967
0.0579834
0.0579978
0.0580149
0.0580323
0.0580495
0.0580668
0.0580851
0.0581041
0.0581242
0.0581417
0.0581617
0.0581798
0.0581976
0.0582133
0.0582318
0.0582504
0.058269
0.0572693
0.0572548
0.0572492
0.0572521
0.0572639
0.0572824
0.0573036
0.0573272
0.0575818
0.0573518
0.057378
0.0574117
0.0574404
0.0575902
0.0575263
0.0575391
0.0575804
0.0576165
0.057634
0.0576851
0.0576826
0.0579696
0.057704
0.0577025
0.0577244
0.0579536
0.0577367
0.0577456
0.0576459
0.0576457
0.0578961
0.0578996
0.0579085
0.0582128
0.0579432
0.05795
0.0579959
0.0580464
0.0581054
0.0581451
0.05821
0.0582422
0.0583533
0.0583944
0.0584429
0.0587367
0.0584524
0.0584518
0.0585185
0.0586109
0.0598243
0.0596845
0.0595586
0.0594439
0.0593389
0.0592453
0.0591629
0.0590902
0.0590254
0.0589662
0.0589128
0.0588642
0.0588223
0.0587842
0.0587457
0.0587074
0.058674
0.0586442
0.0586165
0.0585902
0.0585656
0.0585424
0.0585212
0.0584984
0.0584777
0.058477
0.0584888
0.0584703
0.0584461
0.0584421
0.0584049
0.0583705
0.0583623
0.0583601
0.0583593
0.0583585
0.0583659
0.0583708
0.0585313
0.0583866
0.0583896
0.0583888
0.0583877
0.0585604
0.0584515
0.0584361
0.0584259
0.0584318
0.0584333
0.0584334
0.0615061
0.0612843
0.0614067
0.0612063
0.0609031
0.0607432
0.0605805
0.0605766
0.0604371
0.0602705
0.0601533
0.0600457
0.0599461
0.0606315
0.0602608
0.0600466
0.0599823
0.0599299
0.0598844
0.0598451
0.059812
0.0597843
0.059763
0.0597452
0.0597298
0.0598871
0.0616093
0.0624098
0.0624113
0.0618183
0.0600943
0.0592226
0.0595006
0.0593315
0.0594316
0.0593317
0.0592726
0.0592542
0.0592398
0.0592275
0.0592152
0.0592031
0.059197
0.0591944
0.0591736
0.0591501
0.0597369
0.0591288
0.0591007
0.0590815
0.0602172
0.0600796
0.0599573
0.0598408
0.0597345
0.0596383
0.0595507
0.0594728
0.0594054
0.0593478
0.0593002
0.0592629
0.0594505
0.0595709
0.0590776
0.0588613
0.0589023
0.0589175
0.0589737
0.0589414
0.0589869
0.0590391
0.0589043
0.0589073
0.0589054
0.0589549
0.0590072
0.0590239
0.0590211
0.0590457
0.0590522
0.0590508
0.0590696
0.0591025
0.0591401
0.059184
0.0592284
0.0592675
0.0593135
0.0593642
0.0594224
0.0594931
0.0597586
0.0607463
0.0610388
0.059332
0.0585951
0.0584987
0.0585137
0.0585319
0.0587859
0.0584183
0.0583744
0.058298
0.0583106
0.0582934
0.0582808
0.0583005
0.0583181
0.0583361
0.0583497
0.0583701
0.0583908
0.0584094
0.0584305
0.0584513
0.0584769
0.0585007
0.0585244
0.058557
0.0586079
0.0585488
0.0585673
0.0585831
0.0585946
0.0586034
0.0586101
0.0586165
0.0586286
0.0586538
0.0586842
0.0591639
0.0586254
0.0585644
0.058598
0.0586172
0.058644
0.0586684
0.0586915
0.0587144
0.0587387
0.0587617
0.0587829
0.0587996
0.0588152
0.0588389
0.0588613
0.0588781
0.0588943
0.0589117
0.057435
0.0575156
0.0575885
0.0576566
0.0577176
0.0577724
0.0578193
0.0578657
0.0581706
0.05817
0.0580285
0.0580758
0.0581709
0.058105
0.0581128
0.0581434
0.0583921
0.0583195
0.0584631
0.0583694
0.0584012
0.0584526
0.0584082
0.0584093
0.0584206
0.0584377
0.0584536
0.0584706
0.0584812
0.0585982
0.0585261
0.0586047
0.0585428
0.0585523
0.0585651
0.0585669
0.0585584
0.0585493
0.0585496
0.0585483
0.0585501
0.0585291
0.0585128
0.0585006
0.0584911
0.0584797
0.0584752
0.0584721
0.0584678
0.058463
0.0584384
0.0583727
0.0584291
0.0584718
0.0584942
0.0585093
0.0585226
0.0585347
0.0585463
0.0585597
0.0585689
0.058577
0.0585845
0.0585931
0.0586007
0.0586075
0.0586143
0.0586192
0.0586235
0.0586272
0.0586308
0.0586327
0.0586357
0.0586383
0.0586404
0.0586423
0.0586438
0.058645
0.0586449
0.0586446
0.0586457
0.0586467
0.0586464
0.0586455
0.058645
0.0586448
0.0586449
0.0586449
0.0586448
0.0586442
0.0586432
0.0586424
0.0586414
0.0586401
0.0586385
0.0586366
0.0586344
0.0586318
0.0586288
0.0586257
0.0587828
0.0581149
0.0581039
0.0581659
0.0581861
0.0581913
0.0582007
0.0582168
0.0582373
0.05826
0.058284
0.0583084
0.0583327
0.0583565
0.0583794
0.0584009
0.0584208
0.058439
0.0584554
0.0584701
0.0584831
0.058495
0.0585054
0.0585147
0.0585228
0.0585297
0.0585354
0.05854
0.0585437
0.0585468
0.0585491
0.0585508
0.0585518
0.0585522
0.0585521
0.0585516
0.0585508
0.0585497
0.0585482
0.0585463
0.0585442
0.0585419
0.0585393
0.0585366
0.0585337
0.0585307
0.0585275
0.0585243
0.058521
0.0585173
0.0598285
0.0601332
0.0601837
0.0600536
0.059903
0.0597798
0.0596784
0.05959
0.0595113
0.0594411
0.0593786
0.0593228
0.0592725
0.0592273
0.0591888
0.0591503
0.0591141
0.0590822
0.0590527
0.0590256
0.0590006
0.0589774
0.0589556
0.0589351
0.0589157
0.0588975
0.0588802
0.0588638
0.0588482
0.0588333
0.0588191
0.0588055
0.0587926
0.0587801
0.0587682
0.0587567
0.0587457
0.0587351
0.0587249
0.0587151
0.0587056
0.0586965
0.0586876
0.058679
0.0586707
0.0586627
0.0586549
0.0586474
0.0586401
0.058633
0.0572055
0.0571136
0.0570072
0.0568993
0.0567849
0.0566636
0.056538
0.0564009
0.0562485
0.0560785
0.0564709
0.0607234
0.0670967
0.0676136
0.0674241
0.0670096
0.0665111
0.0655481
0.0593361
0.054728
0.0537477
0.053548
0.053316
0.0530928
0.0538258
0.0617493
0.0866048
0.0863358
0.0702292
0.0632245
0.0752733
0.074445
0.0761224
0.0820436
0.0821693
0.0815549
0.0808544
0.0762718
0.0733689
0.0735227
0.0733569
0.0722996
0.0714991
0.0712702
0.0710058
0.0707596
0.0705092
0.070258
0.0701948
0.0715793
0.0741577
0.0728109
0.083853
0.0846122
0.0892743
0.0849746
0.0690504
0.0681168
0.0680335
0.0678962
0.0677204
0.068131
0.0740569
0.0908883
0.0645939
0.059661
0.0583979
0.0583134
0.0580885
0.0576812
0.0586799
0.0770678
0.0736155
0.0702424
0.0733755
0.0733176
0.0755348
0.0790472
0.0791419
0.0678802
0.0649771
0.0643373
0.0638679
0.0640299
0.0625112
0.0624299
0.0624348
0.0624242
0.0624073
0.0623858
0.0623597
0.0623294
0.0622956
0.0622769
0.0642456
0.0631035
0.0629683
0.0629584
0.0629646
0.0629827
0.0630119
0.063059
0.064992
0.0644003
0.0613564
0.0611823
0.0612261
0.061272
0.0613154
0.0613568
0.0618296
0.0649086
0.0609824
0.0607079
0.060763
0.060802
0.060842
0.0609038
0.0614562
0.0618705
0.0598143
0.0596056
0.0597181
0.05964
0.0603039
0.06192
0.0605325
0.0600807
0.0602739
0.0604262
0.060713
0.0610335
0.0611731
0.0610636
0.0615407
0.0614838
0.0613484
0.0613586
0.0614055
0.0614249
0.0614366
0.0614569
0.0614594
0.0614136
0.0615425
0.0613432
0.0613808
0.0612751
0.061544
0.0613834
0.0612246
0.0610917
0.0609732
0.0608423
0.0607047
0.0605574
0.0604724
0.060252
0.060118
0.0600087
0.0599102
0.0598099
0.0597088
0.0596182
0.0594709
0.0593591
0.0592464
0.0591334
0.0590199
0.058906
0.058792
0.0586774
0.0585624
0.0584466
0.0583303
0.0582136
0.0580962
0.0579781
0.0578596
0.0577405
0.0576209
0.0575005
0.0573795
0.0572588
0.0571383
0.0570183
0.0568987
0.0567797
0.0566611
0.0565426
0.0564252
0.0563071
0.0561933
0.0560752
0.0559562
0.0558483
0.0557214
0.0555716
0.0554548
0.0553596
0.0552422
0.0551254
0.055318
0.0549938
0.0549132
0.0548207
0.0554474
0.0549345
0.055019
0.0546051
0.0560016
0.0548908
0.054608
0.0544716
0.0543432
0.0542672
0.054535
0.0551106
0.0534653
0.0532877
0.0531483
0.0529859
0.0528137
0.0525764
0.0524729
0.053993
0.0513184
0.0511998
0.0511728
0.0512223
0.0512807
0.0514704
0.0518015
0.0520908
0.0523582
0.0532293
0.0541542
0.0543442
0.0533401
0.0529391
0.0527606
0.0526609
0.0526653
0.0526804
0.0527012
0.0527128
0.0527135
0.0527098
0.0527012
0.0526866
0.0526669
0.0526427
0.0526149
0.0525841
0.0525509
0.0525156
0.0524783
0.052439
0.0523978
0.0523548
0.05231
0.0522636
0.0522159
0.052167
0.052117
0.0520663
0.0520148
0.0519628
0.0519103
0.0518574
0.0518043
0.051751
0.0516976
0.0516441
0.0515907
0.0515372
0.0514836
0.0514303
0.0513782
0.0513263
0.0512744
0.0512224
0.0511701
0.0511176
0.0510649
0.0510118
0.0509588
0.0509059
0.0508538
0.0508034
0.0507541
0.0507056
0.0506577
0.0506109
0.0505659
0.0505246
0.050489
0.0504579
0.0504279
0.0503992
0.0502548
0.0502376
0.050091
0.049781
0.0494781
0.0500934
0.0499102
0.0502882
0.0507489
0.0505653
0.0455644
0.0488476
0.0469477
0.0765381
0.063935
0.0546902
0.0561237
0.0564536
0.0525019
0.0550469
0.0547562
0.0615504
0.060346
0.0618297
0.0729558
0.0642138
0.0629647
0.0642856
0.0642358
0.0617576
0.0638915
0.0630377
0.0634346
0.087681
0.0695861
0.0678287
0.0675338
0.0672059
0.0667596
0.0663055
0.0658726
0.0654403
0.0650808
0.0654029
0.0672097
0.0668371
0.0657919
0.0684372
0.0674253
0.0788195
0.0733114
0.0720147
0.0716908
0.0713124
0.0702521
0.0710296
0.0712326
0.0708775
0.0656956
0.0638927
0.0654315
0.0570117
0.0870601
0.0635712
0.0614197
0.0630086
0.0627363
0.0628221
0.0645466
0.065685
0.0629678
0.0615299
0.0653109
0.0646333
0.0647067
0.0670361
0.0665336
0.0656316
0.0653186
0.0651953
0.0651603
0.0649952
0.0651898
0.0654205
0.0652964
0.0636714
0.0632953
0.0631302
0.0629931
0.0628734
0.062782
0.0626884
0.0625913
0.0625094
0.065333
0.0638195
0.0634928
0.0633526
0.0632385
0.0631182
0.0629886
0.0628803
0.0630673
0.0624832
0.0623448
0.0622173
0.0620952
0.0619736
0.0618494
0.0617401
0.0622011
0.0638536
0.0637282
0.0630129
0.0625059
0.0625676
0.062435
0.0626902
0.064327
0.0640111
0.0634371
0.0640686
0.0628028
0.0635816
0.0637093
0.0624492
0.0617889
0.0616153
0.0616371
0.0616472
0.0616618
0.061765
0.0618701
0.0614852
0.0614855
0.0615353
0.0615653
0.0615889
0.0615997
0.06168
0.0617858
0.0617126
0.061635
0.0616159
0.0615923
0.0615663
0.0615848
0.0617349
0.0614483
0.0613477
0.0612932
0.0612288
0.0611626
0.0610937
0.0610301
0.0609416
0.0608554
0.0607651
0.0606689
0.060568
0.0604631
0.0603548
0.0602439
0.060131
0.0600167
0.0599009
0.0597842
0.0596667
0.0595486
0.0594298
0.0593104
0.0591907
0.0590706
0.0589502
0.0588296
0.0587086
0.0585874
0.0584659
0.0583438
0.0582211
0.0580981
0.057975
0.0578522
0.05773
0.0576076
0.0574862
0.0573645
0.0572431
0.057123
0.057
0.0568842
0.0567611
0.0566693
0.0565417
0.0564113
0.0563018
0.056184
0.05607
0.0559583
0.0558706
0.0558314
0.0558684
0.0554363
0.0553663
0.0552765
0.0552396
0.0551507
0.0550761
0.0550406
0.0562702
0.0557234
0.0553084
0.0551637
0.0550178
0.0549474
0.0548232
0.0550913
0.0552299
0.0541092
0.0539554
0.0538499
0.0537972
0.0537621
0.0536985
0.0537017
0.0537133
0.0537284
0.0536288
0.0535662
0.0535205
0.0535106
0.0534687
0.0534745
0.0537306
0.0543738
0.054471
0.0533937
0.0532095
0.0531036
0.0530361
0.0529954
0.052976
0.0529557
0.0529401
0.0529252
0.0529084
0.0528895
0.0528689
0.0528467
0.052823
0.0527978
0.0527715
0.0527443
0.0527163
0.0526877
0.0526585
0.0526283
0.0525969
0.052564
0.0525296
0.0524936
0.052456
0.052417
0.0523766
0.052335
0.0522923
0.0522487
0.0522041
0.0521588
0.0521129
0.0520665
0.0520197
0.0519726
0.0519253
0.0518779
0.0518301
0.0517821
0.0517347
0.0516881
0.0516431
0.0515988
0.0515538
0.0515087
0.0514643
0.0514203
0.051377
0.0513366
0.0512979
0.0512579
0.0512216
0.0511823
0.0511504
0.0511193
0.0510892
0.0510608
0.0510399
0.0510259
0.0510237
0.0510275
0.0510358
0.0569021
0.0567699
0.0567427
0.0567106
0.0566718
0.0571023
0.056717
0.0566925
0.0566643
0.0566135
0.0565746
0.0565331
0.0564901
0.0564643
0.0564536
0.0564657
0.0564897
0.0565171
0.0566345
0.056626
0.0566753
0.0567663
0.0568744
0.0569724
0.057085
0.057209
0.0590842
0.0585557
0.0586842
0.0589064
0.0592714
0.0588375
0.0590148
0.059201
0.0593496
0.0595306
0.0597669
0.0599094
0.0605082
0.0614274
0.0606156
0.0604083
0.0605698
0.0607251
0.0609319
0.0611412
0.0611796
0.0617621
0.0620202
0.059651
0.059515
0.0596068
0.0596674
0.0597734
0.0608694
0.0694238
0.060021
0.0591592
0.0597722
0.0587479
0.060662
0.0599698
0.060095
0.0602454
0.0599152
0.0605456
0.061201
0.0594821
0.0591537
0.0592405
0.0593892
0.0595065
0.0596121
0.0596522
0.0598033
0.0601921
0.0647529
0.0622807
0.0619833
0.0618416
0.0618569
0.0618974
0.06195
0.0619882
0.062016
0.062078
0.0623758
0.0624114
0.0616909
0.0614525
0.0614151
0.0613896
0.0612662
0.0616201
0.06277
0.0627118
0.0623236
0.0619846
0.06204
0.0619452
0.0619637
0.0634782
0.0633614
0.0645392
0.0637001
0.0642239
0.0641324
0.0638708
0.0645859
0.0637162
0.0649087
0.063276
0.0631877
0.0631203
0.0630379
0.062958
0.0630264
0.0627332
0.0626723
0.062606
0.062534
0.0624597
0.0623814
0.0623056
0.0622308
0.0621823
0.0621392
0.0620945
0.0621658
0.062247
0.0616214
0.0615766
0.0615307
0.0614884
0.0614386
0.0614169
0.0613698
0.0613313
0.0613243
0.0614195
0.061097
0.0610614
0.0610224
0.06098
0.0609507
0.0609345
0.0609793
0.0610848
0.0605957
0.0605345
0.0604814
0.0604272
0.0603705
0.060311
0.0602483
0.0601827
0.0601142
0.0600434
0.0599706
0.0598958
0.0598194
0.0597415
0.0596623
0.0595819
0.0595003
0.0594176
0.0593339
0.0592492
0.0591635
0.0590769
0.0589895
0.0589013
0.0588124
0.0587227
0.0586323
0.0585413
0.0584496
0.0583574
0.0582648
0.058172
0.0580792
0.0579864
0.0578955
0.0578066
0.057715
0.0576246
0.0575416
0.0574416
0.0573772
0.0572664
0.0572199
0.0570909
0.0575551
0.0570551
0.0569907
0.05668
0.0565555
0.0566036
0.0563411
0.057028
0.0562204
0.0561123
0.0558639
0.0559166
0.0557395
0.0558722
0.0556834
0.0555299
0.0551373
0.0560342
0.0556321
0.0551701
0.0549758
0.0548424
0.0547068
0.0545966
0.0544799
0.0543093
0.0542813
0.0541585
0.0540964
0.0540397
0.0539771
0.0539262
0.0553479
0.0534521
0.0535044
0.0532983
0.0533661
0.0532138
0.0530985
0.0530689
0.0535154
0.053146
0.0531087
0.0530276
0.0529942
0.0529889
0.0529829
0.0529824
0.0529907
0.053
0.0530064
0.0530105
0.0530117
0.0530099
0.0530052
0.0529978
0.0529879
0.0529755
0.0529607
0.052944
0.0529258
0.0529061
0.0528853
0.0528633
0.0528395
0.0528135
0.0527851
0.0527543
0.0527212
0.0526862
0.0526494
0.0526109
0.052571
0.0525298
0.0524875
0.0524444
0.0524005
0.0523561
0.0523113
0.0522662
0.0522208
0.0521751
0.0521286
0.0520799
0.0520326
0.052007
0.051972
0.051921
0.0518652
0.0518076
0.0517535
0.0516962
0.0516334
0.0515719
0.0515159
0.0514237
0.0519753
0.0515135
0.0512137
0.051101
0.0509924
0.0508548
0.0507377
0.0518324
0.0513011
0.0509274
0.0509005
0.0509156
0.0567148
0.056739
0.0567686
0.0568008
0.0568299
0.05687
0.0569121
0.0569749
0.0570208
0.0570756
0.0571992
0.0571988
0.0573857
0.0575121
0.0575994
0.0576715
0.0577594
0.0578879
0.0580886
0.0577674
0.0579097
0.0579363
0.0580218
0.0581087
0.0586132
0.0585778
0.0590118
0.0589555
0.0593685
0.0592375
0.0592802
0.0593421
0.0595813
0.0591107
0.0590212
0.0590837
0.0598635
0.0599959
0.0597733
0.0597541
0.0597239
0.060077
0.0601595
0.0593889
0.0595655
0.0596622
0.0600793
0.0606278
0.0602688
0.0599487
0.059997
0.0600838
0.0601696
0.0596139
0.0601772
0.0592473
0.0594222
0.0594449
0.0595359
0.0609179
0.0593764
0.0590923
0.0591819
0.0593057
0.0598442
0.0593941
0.0594597
0.0596129
0.0596995
0.0598037
0.0595381
0.0597999
0.0601307
0.0600081
0.0600784
0.0604402
0.0602532
0.0602823
0.0602771
0.0603824
0.0603521
0.0605112
0.0605621
0.0607912
0.0615867
0.0612674
0.0612911
0.0613494
0.0613821
0.0615202
0.0616899
0.0615848
0.0619852
0.0619415
0.0618793
0.0619064
0.0619284
0.0619508
0.0619269
0.0619612
0.0619534
0.0619573
0.061953
0.0619477
0.0619446
0.0619389
0.0619435
0.0618998
0.0618984
0.0618807
0.0618789
0.0618302
0.0618085
0.0617973
0.0617787
0.0617601
0.0617332
0.061707
0.061681
0.0616544
0.0616264
0.0615947
0.0615632
0.0615288
0.0614976
0.0614543
0.061426
0.0614011
0.0614583
0.0615641
0.0612567
0.0611538
0.0611053
0.0610758
0.0610196
0.0609663
0.0609228
0.0608878
0.0608503
0.0608244
0.0608532
0.0607826
0.0607209
0.0606664
0.0606146
0.0605657
0.0605179
0.0604664
0.0604134
0.060359
0.0603044
0.0602492
0.0601931
0.0601361
0.060078
0.0600186
0.059958
0.059896
0.0598326
0.0597678
0.0597016
0.0596341
0.0595653
0.0594951
0.0594236
0.0593509
0.059277
0.059202
0.0591259
0.0590487
0.0589705
0.0588913
0.0588113
0.0587305
0.0586489
0.0585666
0.0584836
0.0584001
0.0583162
0.0582321
0.0581482
0.0580634
0.0579793
0.0579113
0.0578126
0.0577478
0.0576459
0.0575893
0.0574792
0.0576376
0.0573016
0.0571865
0.0571295
0.0570507
0.0569746
0.0568876
0.0568623
0.0568231
0.0567087
0.0566005
0.0565093
0.0564372
0.0564986
0.0563445
0.0564781
0.0571095
0.0562579
0.0559957
0.0559072
0.0558017
0.0562691
0.0555182
0.0554635
0.0554187
0.0553668
0.0555398
0.0569141
0.0546778
0.0546583
0.0543683
0.0549656
0.0547186
0.0544628
0.0544012
0.0543424
0.0542651
0.0542037
0.054149
0.0540916
0.0540364
0.0539933
0.0539446
0.0538859
0.0538308
0.0537773
0.0537314