/*--------------------------------*- C++ -*----------------------------------*\
| =========                 |                                                 |
| \\      /  F ield         | OpenFOAM: The Open Source CFD Toolbox           |
|  \\    /   O peration     | Version:  2.4.0                                 |
|   \\  /    A nd           | Web:      www.OpenFOAM.org                      |
|    \\/     M anipulation  |                                                 |
\*---------------------------------------------------------------------------*/
FoamFile
{
    version     2.0;
    format      ascii;
    class       surfaceScalarField;
    location    "2";
    object      phi;
}
// * * * * * * * * * * * * * * * * * * * * * * * * * * * * * * * * * * * * * //

dimensions      [0 3 -1 0 0 0 0];

internalField   nonuniform List<scalar> 
15580
(
-3.02173e-13
-1.47548e-12
-1.08462e-12
-4.39027e-12
-2.28361e-12
-7.23381e-12
-3.86345e-12
-9.98575e-12
-5.78694e-12
-1.26414e-11
-8.01609e-12
-1.51967e-11
-1.05122e-11
-1.76479e-11
-1.3236e-11
-1.9992e-11
-1.61477e-11
-2.22259e-11
-1.92071e-11
-2.43472e-11
-2.23739e-11
-2.63539e-11
-2.56073e-11
-2.82439e-11
-2.88665e-11
-3.00162e-11
-3.2111e-11
-3.16694e-11
-3.53001e-11
-3.3203e-11
-3.83934e-11
-3.46168e-11
-4.13511e-11
-3.59108e-11
-4.41335e-11
-3.70854e-11
-4.67016e-11
-3.81416e-11
-4.9017e-11
-3.90804e-11
-5.1042e-11
-3.99036e-11
-5.27397e-11
-4.06128e-11
-5.4074e-11
-4.12107e-11
-5.50096e-11
-4.16995e-11
-5.55124e-11
-4.20826e-11
-5.55485e-11
-4.23631e-11
-5.50864e-11
-4.25449e-11
-5.40932e-11
-4.2632e-11
-5.25397e-11
-4.26289e-11
-5.03939e-11
-4.25405e-11
-4.76286e-11
-4.23719e-11
-4.42113e-11
-4.21289e-11
-4.01169e-11
-4.18172e-11
-3.531e-11
-4.14435e-11
-2.97676e-11
-4.10139e-11
-2.34463e-11
-4.05377e-11
-1.63318e-11
-4.00141e-11
-8.36967e-12
-3.94607e-11
4.63438e-13
-3.8883e-11
1.02368e-11
-3.82915e-11
2.09989e-11
-3.76938e-11
3.29942e-11
-3.70978e-11
4.63961e-11
-3.65217e-11
6.0987e-11
-3.59492e-11
7.62939e-11
-3.54361e-11
9.23785e-11
-3.49535e-11
1.08035e-10
-3.48106e-11
1.21318e-10
-3.49043e-11
1.31808e-10
-3.47467e-11
-3.59396e-11
1.43086e-10
-8.9095e-14
-1.38639e-12
-4.27239e-13
-4.05213e-12
-1.02589e-12
-6.63516e-12
-1.86613e-12
-9.14551e-12
-2.92671e-12
-1.15808e-11
-4.18446e-12
-1.39389e-11
-5.61457e-12
-1.62178e-11
-7.19075e-12
-1.84158e-11
-8.88556e-12
-2.05311e-11
-1.06704e-11
-2.25624e-11
-1.25159e-11
-2.45084e-11
-1.43917e-11
-2.63682e-11
-1.6267e-11
-2.81408e-11
-1.81106e-11
-2.98258e-11
-1.9891e-11
-3.14227e-11
-2.15763e-11
-3.29315e-11
-2.3135e-11
-3.43522e-11
-2.45352e-11
-3.56851e-11
-2.5746e-11
-3.69309e-11
-2.67362e-11
-3.80902e-11
-2.74756e-11
-3.91641e-11
-2.79347e-11
-4.01538e-11
-2.80848e-11
-4.10606e-11
-2.78982e-11
-4.18861e-11
-2.73485e-11
-4.26323e-11
-2.64106e-11
-4.33009e-11
-2.50611e-11
-4.38944e-11
-2.32782e-11
-4.44148e-11
-2.10421e-11
-4.48649e-11
-1.83355e-11
-4.52471e-11
-1.5143e-11
-4.55644e-11
-1.14525e-11
-4.58194e-11
-7.25417e-12
-4.60156e-11
-2.54227e-12
-4.61554e-11
2.68646e-12
-4.62426e-11
8.42772e-12
-4.6279e-11
1.4683e-11
-4.62694e-11
2.14378e-11
-4.62155e-11
2.86773e-11
-4.61225e-11
3.6378e-11
-4.59922e-11
4.45136e-11
-4.58294e-11
5.30505e-11
-4.56347e-11
6.19398e-11
-4.5411e-11
7.11523e-11
-4.51617e-11
8.06075e-11
-4.48913e-11
9.02549e-11
-4.46009e-11
9.97403e-11
-4.4296e-11
1.08792e-10
-4.39557e-11
1.17764e-10
-4.37191e-11
-4.34e-11
1.20194e-10
-2.052e-13
-1.18119e-12
-7.36341e-13
-3.52099e-12
-1.55329e-12
-5.8182e-12
-2.6365e-12
-8.06231e-12
-3.9653e-12
-1.0252e-11
-5.51826e-12
-1.2386e-11
-7.27325e-12
-1.44628e-11
-9.20763e-12
-1.64814e-11
-1.12983e-11
-1.84404e-11
-1.35219e-11
-2.03388e-11
-1.58547e-11
-2.21756e-11
-1.82729e-11
-2.395e-11
-2.07525e-11
-2.56611e-11
-2.32697e-11
-2.73086e-11
-2.58006e-11
-2.88918e-11
-2.83217e-11
-3.04104e-11
-3.08094e-11
-3.18645e-11
-3.32407e-11
-3.32537e-11
-3.55932e-11
-3.45784e-11
-3.78446e-11
-3.58388e-11
-3.99735e-11
-3.70352e-11
-4.19591e-11
-3.81682e-11
-4.37814e-11
-3.92383e-11
-4.54211e-11
-4.02464e-11
-4.68601e-11
-4.11933e-11
-4.80811e-11
-4.208e-11
-4.9068e-11
-4.29075e-11
-4.98058e-11
-4.3677e-11
-5.0281e-11
-4.43897e-11
-5.04812e-11
-4.50469e-11
-5.03959e-11
-4.56498e-11
-5.00154e-11
-4.61999e-11
-4.93326e-11
-4.66984e-11
-4.83412e-11
-4.71468e-11
-4.70375e-11
-4.75462e-11
-4.54182e-11
-4.78983e-11
-4.3484e-11
-4.82037e-11
-4.12354e-11
-4.84641e-11
-3.86782e-11
-4.86797e-11
-3.58183e-11
-4.88522e-11
-3.26667e-11
-4.8981e-11
-2.92338e-11
-4.90676e-11
-2.55342e-11
-4.91106e-11
-2.15848e-11
-4.91111e-11
-1.74096e-11
-4.90665e-11
-1.3033e-11
-4.89775e-11
-8.4888e-12
-4.88403e-11
-3.79091e-12
-4.86536e-11
9.02018e-13
-4.8412e-11
-4.81053e-11
5.60735e-12
-1.05524e-13
-1.07566e-12
-4.49061e-13
-3.17745e-12
-1.0274e-12
-5.23986e-12
-1.82263e-12
-7.26708e-12
-2.81689e-12
-9.25775e-12
-3.99234e-12
-1.12105e-11
-5.33114e-12
-1.31241e-11
-6.8154e-12
-1.49971e-11
-8.42724e-12
-1.68286e-11
-1.01488e-11
-1.86173e-11
-1.19621e-11
-2.03623e-11
-1.38493e-11
-2.20627e-11
-1.57927e-11
-2.37178e-11
-1.77745e-11
-2.53267e-11
-1.97772e-11
-2.68891e-11
-2.17833e-11
-2.84043e-11
-2.37757e-11
-2.98721e-11
-2.57375e-11
-3.1292e-11
-2.76519e-11
-3.2664e-11
-2.95027e-11
-3.3988e-11
-3.1274e-11
-3.52639e-11
-3.29503e-11
-3.64919e-11
-3.45164e-11
-3.76722e-11
-3.59577e-11
-3.88051e-11
-3.726e-11
-3.98909e-11
-3.84098e-11
-4.09302e-11
-3.93938e-11
-4.19235e-11
-4.01995e-11
-4.28713e-11
-4.08147e-11
-4.37746e-11
-4.12277e-11
-4.46339e-11
-4.14271e-11
-4.54503e-11
-4.14025e-11
-4.62245e-11
-4.11429e-11
-4.69579e-11
-4.06385e-11
-4.76512e-11
-3.98787e-11
-4.8306e-11
-3.88539e-11
-4.89231e-11
-3.75533e-11
-4.95043e-11
-3.59669e-11
-5.00505e-11
-3.40827e-11
-5.05639e-11
-3.18898e-11
-5.10451e-11
-2.93739e-11
-5.14969e-11
-2.65217e-11
-5.19198e-11
-2.33151e-11
-5.23171e-11
-1.97372e-11
-5.26889e-11
-1.57643e-11
-5.30394e-11
-1.13735e-11
-5.33683e-11
-6.53378e-12
-5.368e-11
-1.21203e-12
-5.39753e-11
4.63781e-12
-5.42619e-11
-5.4543e-11
1.10755e-11
-9.19534e-14
-9.83706e-13
-3.30066e-13
-2.93934e-12
-6.9621e-13
-4.87372e-12
-1.18116e-12
-6.78213e-12
-1.77477e-12
-8.66414e-12
-2.46611e-12
-1.05192e-11
-3.24357e-12
-1.23466e-11
-4.095e-12
-1.41457e-11
-5.0077e-12
-1.59159e-11
-5.96861e-12
-1.76564e-11
-6.96426e-12
-1.93666e-11
-7.98095e-12
-2.1046e-11
-9.00471e-12
-2.2694e-11
-1.00214e-11
-2.431e-11
-1.10169e-11
-2.58937e-11
-1.19768e-11
-2.74444e-11
-1.28868e-11
-2.89621e-11
-1.37326e-11
-3.04462e-11
-1.45001e-11
-3.18965e-11
-1.51752e-11
-3.33129e-11
-1.57439e-11
-3.46952e-11
-1.61925e-11
-3.60433e-11
-1.65075e-11
-3.73572e-11
-1.66755e-11
-3.86371e-11
-1.66837e-11
-3.98828e-11
-1.65191e-11
-4.10948e-11
-1.61696e-11
-4.2273e-11
-1.56228e-11
-4.34181e-11
-1.48671e-11
-4.45302e-11
-1.3891e-11
-4.561e-11
-1.26836e-11
-4.66577e-11
-1.12338e-11
-4.76744e-11
-9.53142e-12
-4.86603e-11
-7.56581e-12
-4.96168e-11
-5.32758e-12
-5.05442e-11
-2.80619e-12
-5.14445e-11
7.10994e-15
-5.23176e-11
3.12304e-12
-5.31664e-11
6.54986e-12
-5.39907e-11
1.02989e-11
-5.47941e-11
1.43783e-11
-5.55762e-11
1.88005e-11
-5.6342e-11
2.35736e-11
-5.70903e-11
2.87126e-11
-5.7828e-11
3.42269e-11
-5.85537e-11
4.01386e-11
-5.928e-11
4.64656e-11
-6.0007e-11
5.32778e-11
-6.07875e-11
6.03339e-11
-6.1318e-11
-6.17629e-11
6.75538e-11
-1.36122e-14
-9.70093e-13
-6.93461e-14
-2.88361e-12
-1.68121e-13
-4.77494e-12
-3.03714e-13
-6.64654e-12
-4.69344e-13
-8.49851e-12
-6.57657e-13
-1.03309e-11
-8.60779e-13
-1.21435e-11
-1.07032e-12
-1.39362e-11
-1.27749e-12
-1.57087e-11
-1.47304e-12
-1.74608e-11
-1.64744e-12
-1.91922e-11
-1.79081e-12
-2.09027e-11
-1.89306e-12
-2.25918e-11
-1.94382e-12
-2.42593e-11
-1.93263e-12
-2.59048e-11
-1.84882e-12
-2.75283e-11
-1.68169e-12
-2.91292e-11
-1.42045e-12
-3.07074e-11
-1.05432e-12
-3.22626e-11
-5.72509e-13
-3.37947e-11
3.56512e-14
-3.53033e-11
7.80784e-13
-3.67884e-11
1.67333e-12
-3.82498e-11
2.72356e-12
-3.96873e-11
3.94151e-12
-4.11008e-11
5.33693e-12
-4.24902e-11
6.91933e-12
-4.38554e-11
8.69769e-12
-4.51965e-11
1.06808e-11
-4.65134e-11
1.28768e-11
-4.7806e-11
1.52936e-11
-4.90745e-11
1.79381e-11
-5.03189e-11
2.08172e-11
-5.15394e-11
2.39365e-11
-5.27361e-11
2.73018e-11
-5.39095e-11
3.09168e-11
-5.50595e-11
3.47866e-11
-5.61873e-11
3.89128e-11
-5.72927e-11
4.32994e-11
-5.83773e-11
4.79464e-11
-5.94411e-11
5.2857e-11
-6.04868e-11
5.80304e-11
-6.15155e-11
6.34751e-11
-6.2535e-11
6.92019e-11
-6.35547e-11
7.52711e-11
-6.46228e-11
8.14431e-11
-6.5452e-11
8.75431e-11
-6.61069e-11
9.2949e-11
-6.65014e-11
9.73416e-11
-6.76479e-11
-6.68577e-11
9.45046e-11
9.40855e-15
-9.79501e-13
4.83574e-14
-2.92256e-12
1.21077e-13
-4.84766e-12
2.29176e-13
-6.75464e-12
3.7518e-13
-8.64452e-12
5.62367e-13
-1.0518e-11
7.9469e-13
-1.23758e-11
1.07666e-12
-1.42181e-11
1.41333e-12
-1.60454e-11
1.81014e-12
-1.78576e-11
2.27299e-12
-1.96551e-11
2.80804e-12
-2.14377e-11
3.42182e-12
-2.32055e-11
4.12106e-12
-2.49585e-11
4.9128e-12
-2.66966e-11
5.80419e-12
-2.84196e-11
6.8027e-12
-3.01277e-11
7.91581e-12
-3.18205e-11
9.1513e-12
-3.34981e-11
1.05169e-11
-3.51603e-11
1.20205e-11
-3.6807e-11
1.36701e-11
-3.8438e-11
1.54735e-11
-4.00532e-11
1.74386e-11
-4.16524e-11
1.95733e-11
-4.32354e-11
2.18849e-11
-4.48018e-11
2.43807e-11
-4.63513e-11
2.70675e-11
-4.78833e-11
2.99517e-11
-4.93975e-11
3.30386e-11
-5.08929e-11
3.63328e-11
-5.23687e-11
3.98379e-11
-5.3824e-11
4.35554e-11
-5.52569e-11
4.74863e-11
-5.6667e-11
5.16273e-11
-5.80505e-11
5.59757e-11
-5.94079e-11
6.05211e-11
-6.07328e-11
6.52561e-11
-6.20276e-11
7.01615e-11
-6.32826e-11
7.52285e-11
-6.45081e-11
8.0438e-11
-6.56964e-11
8.58151e-11
-6.68925e-11
9.10456e-11
-6.77655e-11
9.5913e-11
-6.84221e-11
9.98681e-11
-6.87208e-11
1.0182e-10
-6.97491e-11
9.49978e-11
-6.90537e-11
8.94662e-11
-6.67627e-11
8.49938e-11
-6.32812e-11
-5.76808e-11
7.58085e-11
2.87869e-14
-1.00829e-12
1.11406e-13
-3.00517e-12
2.4997e-13
-4.98622e-12
4.49135e-13
-6.95381e-12
7.13113e-13
-8.9085e-12
1.04573e-12
-1.08507e-11
1.45046e-12
-1.27805e-11
1.93052e-12
-1.46982e-11
2.48892e-12
-1.66038e-11
3.12851e-12
-1.84972e-11
3.85205e-12
-2.03786e-11
4.66235e-12
-2.2248e-11
5.56218e-12
-2.41054e-11
6.5546e-12
-2.59509e-11
7.64273e-12
-2.77847e-11
8.8302e-12
-2.96071e-11
1.01207e-11
-3.14182e-11
1.15189e-11
-3.32187e-11
1.30295e-11
-3.50086e-11
1.46582e-11
-3.6789e-11
1.6411e-11
-3.85598e-11
1.82954e-11
-4.03224e-11
2.03189e-11
-4.20767e-11
2.24909e-11
-4.38244e-11
2.48205e-11
-4.5565e-11
2.73195e-11
-4.73008e-11
2.99989e-11
-4.90307e-11
3.28729e-11
-5.07573e-11
3.59542e-11
-5.24788e-11
3.92595e-11
-5.41982e-11
4.28032e-11
-5.59124e-11
4.66037e-11
-5.76245e-11
5.0677e-11
-5.93303e-11
5.50423e-11
-6.10322e-11
5.97163e-11
-6.27246e-11
6.47169e-11
-6.44085e-11
7.00632e-11
-6.60791e-11
7.57781e-11
-6.77426e-11
8.19083e-11
-6.94128e-11
8.84349e-11
-7.10348e-11
9.45624e-11
-7.18238e-11
1.00083e-10
-7.24628e-11
1.02684e-10
-7.32037e-11
9.50538e-11
-7.2536e-11
8.36021e-11
-6.91169e-11
7.8274e-11
-6.46326e-11
5.95272e-11
-5.03347e-11
-1.26051e-11
5.36961e-12
1.29054e-11
-8.87919e-11
4.2127e-11
-8.69024e-11
3.98121e-14
-1.0481e-12
1.76962e-13
-3.14232e-12
4.21688e-13
-5.23095e-12
7.79302e-13
-7.31142e-12
1.25289e-12
-9.38209e-12
1.8439e-12
-1.14417e-11
2.55224e-12
-1.34888e-11
3.37685e-12
-1.55228e-11
4.3157e-12
-1.75426e-11
5.36636e-12
-1.95479e-11
6.5258e-12
-2.15381e-11
7.79117e-12
-2.35134e-11
9.15928e-12
-2.54735e-11
1.06276e-11
-2.74193e-11
1.21936e-11
-2.93507e-11
1.38559e-11
-3.12694e-11
1.56132e-11
-3.31755e-11
1.74658e-11
-3.50713e-11
1.94145e-11
-3.69574e-11
2.14623e-11
-3.88368e-11
2.36128e-11
-4.07102e-11
2.58719e-11
-4.25816e-11
2.82472e-11
-4.4452e-11
3.07486e-11
-4.63257e-11
3.33883e-11
-4.82048e-11
3.61807e-11
-5.00932e-11
3.91444e-11
-5.19944e-11
4.22983e-11
-5.39112e-11
4.56693e-11
-5.58498e-11
4.92804e-11
-5.78093e-11
5.31694e-11
-5.98014e-11
5.73623e-11
-6.18174e-11
6.19107e-11
-6.38786e-11
6.68401e-11
-6.59616e-11
7.22234e-11
-6.81079e-11
7.80931e-11
-7.02782e-11
8.4576e-11
-7.25619e-11
9.08853e-11
-7.40519e-11
9.70531e-11
-7.55806e-11
1.0044e-10
-7.6585e-11
9.26451e-11
-8.07569e-11
7.53547e-11
-7.55836e-11
6.99592e-11
-6.8163e-11
6.19253e-12
-8.82426e-12
8.69364e-12
-7.1619e-11
-1.04701e-10
4.87622e-11
-8.74211e-11
-6.76147e-11
-2.96324e-10
2.14272e-10
-4.60035e-10
7.49198e-11
4.55787e-11
-4.63486e-10
1.43237e-13
-1.19134e-12
5.69495e-13
-3.56858e-12
1.26747e-12
-5.92892e-12
2.22176e-12
-8.26571e-12
3.4171e-12
-1.05774e-11
4.838e-12
-1.28626e-11
6.46949e-12
-1.51203e-11
8.29637e-12
-1.73497e-11
1.03044e-11
-1.95506e-11
1.24789e-11
-2.17224e-11
1.48066e-11
-2.38658e-11
1.72739e-11
-2.59806e-11
1.98688e-11
-2.80684e-11
2.25786e-11
-3.0129e-11
2.53932e-11
-3.21654e-11
2.83011e-11
-3.41773e-11
3.12946e-11
-3.6169e-11
3.43634e-11
-3.81401e-11
3.75031e-11
-4.00971e-11
4.07047e-11
-4.20385e-11
4.39681e-11
-4.39736e-11
4.72861e-11
-4.58996e-11
5.06639e-11
-4.78298e-11
5.40964e-11
-4.97582e-11
5.75963e-11
-5.17046e-11
6.11605e-11
-5.36574e-11
6.48122e-11
-5.5646e-11
6.85505e-11
-5.76495e-11
7.24125e-11
-5.97118e-11
7.63997e-11
-6.17965e-11
8.05679e-11
-6.39696e-11
8.49202e-11
-6.61698e-11
8.95408e-11
-6.84992e-11
9.44437e-11
-7.08645e-11
9.97632e-11
-7.34274e-11
1.04669e-10
-7.51838e-11
1.09209e-10
-7.71026e-11
1.08061e-10
-8.05347e-11
7.72457e-11
-7.7206e-11
6.18902e-11
-7.10072e-11
-2.29965e-11
3.95566e-12
-2.33179e-11
-7.52645e-11
5.36498e-12
-9.68459e-11
-2.66206e-10
2.62747e-10
-4.7846e-10
1.40635e-10
-6.04479e-10
1.74782e-10
-8.58763e-10
1.86671e-10
-8.34404e-10
1.89928e-10
-9.34056e-10
1.74572e-10
1.09418e-10
-9.97896e-10
2.43551e-13
-1.43489e-12
9.06231e-13
-4.23126e-12
1.94466e-12
-6.96735e-12
3.32774e-12
-9.64879e-12
5.02538e-12
-1.22751e-11
7.00832e-12
-1.48455e-11
9.2484e-12
-1.73604e-11
1.17182e-11
-1.98195e-11
1.43913e-11
-2.22237e-11
1.7242e-11
-2.45731e-11
2.02454e-11
-2.68693e-11
2.33772e-11
-2.91124e-11
2.6614e-11
-3.13052e-11
2.99323e-11
-3.34474e-11
3.33102e-11
-3.55433e-11
3.6725e-11
-3.75921e-11
4.0156e-11
-3.95999e-11
4.3581e-11
-4.15652e-11
4.69808e-11
-4.34968e-11
5.03339e-11
-4.53915e-11
5.36224e-11
-4.72622e-11
5.68259e-11
-4.91031e-11
5.9929e-11
-5.09328e-11
6.29124e-11
-5.27416e-11
6.57643e-11
-5.45565e-11
6.8468e-11
-5.63611e-11
7.10169e-11
-5.81949e-11
7.33986e-11
-6.00312e-11
7.56146e-11
-6.19278e-11
7.76597e-11
-6.38416e-11
7.95492e-11
-6.58591e-11
8.12913e-11
-6.7912e-11
8.29153e-11
-7.01232e-11
8.4223e-11
-7.21722e-11
8.51645e-11
-7.43689e-11
8.21041e-11
-7.88622e-11
3.16102e-11
-7.62946e-11
1.62176e-11
-6.88167e-11
-8.4535e-11
2.34768e-11
-6.22738e-11
-9.32693e-11
-1.39334e-10
8.10162e-11
-3.77001e-10
1.62402e-10
-6.02406e-10
1.2856e-10
-5.53759e-10
2.14111e-10
-7.2587e-10
3.12746e-10
-8.2491e-10
2.73822e-10
-8.83616e-10
2.45377e-10
-8.88499e-10
1.9481e-10
-8.6664e-10
1.52712e-10
1.18991e-10
-8.76212e-10
1.61054e-13
-1.59594e-12
6.58034e-13
-4.72824e-12
1.47229e-12
-7.78161e-12
2.57025e-12
-1.07468e-11
3.9195e-12
-1.36243e-11
5.4888e-12
-1.64148e-11
7.24756e-12
-1.91192e-11
9.16619e-12
-2.17381e-11
1.12153e-11
-2.42728e-11
1.33663e-11
-2.67241e-11
1.55905e-11
-2.90935e-11
1.78599e-11
-3.13817e-11
2.01455e-11
-3.35908e-11
2.24195e-11
-3.57214e-11
2.46522e-11
-3.7776e-11
2.68151e-11
-3.9755e-11
2.88772e-11
-4.1662e-11
3.08088e-11
-4.34968e-11
3.25764e-11
-4.52644e-11
3.41487e-11
-4.69638e-11
3.54889e-11
-4.86023e-11
3.65632e-11
-5.01774e-11
3.73302e-11
-5.16998e-11
3.77532e-11
-5.31647e-11
3.77846e-11
-5.45878e-11
3.73841e-11
-5.59606e-11
3.64959e-11
-5.73068e-11
3.50758e-11
-5.86111e-11
3.30577e-11
-5.99097e-11
3.03927e-11
-6.11766e-11
2.69988e-11
-6.24652e-11
2.28177e-11
-6.37308e-11
1.77551e-11
-6.50606e-11
1.19536e-11
-6.68675e-11
-3.64544e-11
-6.74957e-11
-5.92836e-11
-6.61667e-11
-1.49421e-10
1.37571e-11
-1.72593e-10
-4.56453e-11
-2.67283e-10
1.18168e-10
-4.31086e-10
7.0538e-11
-4.24754e-10
7.4685e-11
-4.12866e-10
1.50513e-10
-4.78071e-10
1.93766e-10
-4.58552e-10
1.94592e-10
-3.41286e-10
1.9548e-10
-2.4917e-10
1.81706e-10
-1.67419e-10
1.63626e-10
-1.15238e-10
1.42629e-10
-8.54306e-11
1.22905e-10
1.04336e-10
-7.0776e-11
1.36299e-13
-1.73224e-12
4.47892e-13
-5.03983e-12
8.88254e-13
-8.22197e-12
1.43557e-12
-1.12941e-11
2.06793e-12
-1.42567e-11
2.7634e-12
-1.71103e-11
3.4998e-12
-1.98556e-11
4.25489e-12
-2.24932e-11
5.00596e-12
-2.50239e-11
5.73021e-12
-2.74484e-11
6.40417e-12
-2.97675e-11
7.00437e-12
-3.19819e-11
7.5064e-12
-3.40928e-11
7.886e-12
-3.61009e-11
8.11758e-12
-3.80076e-11
8.17601e-12
-3.98134e-11
8.03418e-12
-4.15202e-11
7.66588e-12
-4.31285e-11
7.04201e-12
-4.46406e-11
6.13497e-12
-4.60568e-11
4.91288e-12
-4.73803e-11
3.34635e-12
-4.86109e-11
1.39951e-12
-4.9753e-11
-9.59443e-13
-5.08057e-11
-3.77218e-12
-5.17751e-11
-7.07373e-12
-5.2659e-11
-1.09142e-11
-5.34663e-11
-1.53328e-11
-5.41925e-11
-2.03919e-11
-5.48506e-11
-2.61382e-11
-5.54303e-11
-3.26553e-11
-5.59481e-11
-3.99958e-11
-5.63902e-11
-5.04778e-11
-5.68344e-11
-9.22833e-11
-5.72651e-11
-1.02085e-10
-5.79527e-11
-9.89499e-11
-6.93016e-11
-8.12868e-11
-3.906e-12
-1.51393e-10
2.44661e-11
-9.04319e-11
5.72066e-11
-7.86522e-11
5.87584e-11
-4.34134e-11
3.94462e-11
6.52253e-11
4.18748e-11
2.11552e-10
4.74392e-11
3.55751e-10
5.03935e-11
4.98763e-10
5.24674e-11
6.23765e-10
5.67044e-11
7.36161e-10
5.12297e-11
8.3164e-10
4.71504e-11
9.12904e-10
4.16413e-11
3.53104e-11
9.8193e-10
-6.0484e-14
-1.67175e-12
-1.48854e-13
-4.95146e-12
-2.40858e-13
-8.12997e-12
-3.4683e-13
-1.11881e-11
-4.79693e-13
-1.41238e-11
-6.54648e-13
-1.69353e-11
-8.89055e-13
-1.96212e-11
-1.20205e-12
-2.21802e-11
-1.61452e-12
-2.46114e-11
-2.14865e-12
-2.69142e-11
-2.82806e-12
-2.9088e-11
-3.67725e-12
-3.11327e-11
-4.72191e-12
-3.30482e-11
-5.9882e-12
-3.48347e-11
-7.50332e-12
-3.64925e-11
-9.29448e-12
-3.80222e-11
-1.13899e-11
-3.94248e-11
-1.38172e-11
-4.07012e-11
-1.66051e-11
-4.18526e-11
-1.97812e-11
-4.28807e-11
-2.33741e-11
-4.37874e-11
-2.74105e-11
-4.45745e-11
-3.19186e-11
-4.52449e-11
-3.69232e-11
-4.5801e-11
-4.24513e-11
-4.6247e-11
-4.85249e-11
-4.65854e-11
-5.51689e-11
-4.68224e-11
-6.24011e-11
-4.69603e-11
-7.02432e-11
-4.70085e-11
-7.87053e-11
-4.69682e-11
-8.78003e-11
-4.68531e-11
-9.77361e-11
-4.66608e-11
-1.44223e-10
-4.65686e-11
-1.55154e-10
-4.63345e-11
-1.66789e-10
-4.63181e-11
-1.88372e-10
-4.77187e-11
-1.29599e-10
-6.26781e-11
8.59299e-12
-1.13726e-10
1.83967e-10
-1.18167e-10
3.70927e-10
-1.28202e-10
5.29147e-10
-1.18774e-10
6.77047e-10
-1.06026e-10
8.18286e-10
-9.37997e-11
9.5171e-10
-8.303e-11
1.07921e-09
-7.50372e-11
1.20805e-09
-7.21274e-11
1.32168e-09
-6.24073e-11
1.42585e-09
-5.70161e-11
1.5204e-09
-5.29109e-11
-5.00562e-11
1.60577e-09
2.34607e-13
-1.90636e-12
8.06094e-13
-5.52295e-12
1.63968e-12
-8.96355e-12
2.68916e-12
-1.22376e-11
3.90962e-12
-1.53443e-11
5.25699e-12
-1.82827e-11
6.68812e-12
-2.10523e-11
8.16009e-12
-2.36522e-11
9.63047e-12
-2.60818e-11
1.10564e-11
-2.83401e-11
1.23951e-11
-3.04268e-11
1.36028e-11
-3.23404e-11
1.46352e-11
-3.40807e-11
1.54464e-11
-3.56458e-11
1.59897e-11
-3.70358e-11
1.62154e-11
-3.8248e-11
1.60735e-11
-3.92829e-11
1.5509e-11
-4.01368e-11
1.44672e-11
-4.08108e-11
1.28861e-11
-4.12996e-11
1.07044e-11
-4.16057e-11
7.85132e-12
-4.17214e-11
4.25741e-12
-4.1651e-11
-1.59968e-13
-4.13837e-11
-5.48013e-12
-4.09269e-11
-1.18009e-11
-4.02646e-11
-1.92136e-11
-3.94096e-11
-2.7836e-11
-3.83379e-11
-3.77739e-11
-3.70707e-11
-4.91683e-11
-3.55737e-11
-6.21343e-11
-3.38871e-11
-7.70917e-11
-3.19598e-11
-1.31517e-10
-2.9486e-11
-1.51822e-10
-2.76086e-11
-1.72015e-10
-2.61258e-11
-1.95772e-10
-2.39612e-11
-8.83913e-11
-1.70026e-10
-9.29589e-11
-1.09159e-10
-3.4519e-11
-1.76607e-10
9.95829e-11
-2.62304e-10
2.35597e-10
-2.54787e-10
3.72986e-10
-2.43416e-10
4.76077e-10
-1.9689e-10
5.59711e-10
-1.66664e-10
6.29751e-10
-1.45078e-10
6.86016e-10
-1.28392e-10
7.39204e-10
-1.15596e-10
7.8689e-10
-1.04702e-10
8.29739e-10
-9.57592e-11
-8.81115e-11
8.67794e-10
2.65684e-13
-2.17204e-12
1.0426e-12
-6.29987e-12
2.27562e-12
-1.01966e-11
3.89531e-12
-1.38573e-11
5.83737e-12
-1.72863e-11
8.04176e-12
-2.04871e-11
1.0452e-11
-2.34626e-11
1.30149e-11
-2.6215e-11
1.56792e-11
-2.87462e-11
1.83962e-11
-3.10571e-11
2.11179e-11
-3.31485e-11
2.37975e-11
-3.502e-11
2.63883e-11
-3.66715e-11
2.88434e-11
-3.81009e-11
3.11149e-11
-3.93072e-11
3.31536e-11
-4.02867e-11
3.4908e-11
-4.10372e-11
3.63243e-11
-4.15531e-11
3.7345e-11
-4.18314e-11
3.7909e-11
-4.18637e-11
3.79497e-11
-4.16464e-11
3.73961e-11
-4.11678e-11
3.61691e-11
-4.0424e-11
3.41843e-11
-3.93989e-11
3.13463e-11
-3.80889e-11
2.75535e-11
-3.64717e-11
2.26895e-11
-3.45456e-11
1.66312e-11
-3.22796e-11
9.23616e-12
-2.96757e-11
3.52727e-13
-2.66903e-11
-1.02033e-11
-2.33311e-11
-2.26295e-11
-1.95335e-11
-3.66663e-11
-1.54628e-11
-6.26115e-11
-1.09496e-11
-1.02243e-10
-2.80525e-12
-1.21836e-10
-4.64246e-12
-2.77253e-10
-1.4616e-11
-3.84722e-10
-1.68012e-12
-3.46384e-10
-2.14856e-10
-5.15749e-10
-9.29383e-11
-5.50878e-10
-2.19658e-10
-5.99937e-10
-1.94357e-10
-6.3875e-10
-1.58076e-10
-6.59985e-10
-1.45429e-10
-6.96665e-10
-1.08398e-10
-7.17554e-10
-1.07503e-10
-7.24944e-10
-1.08205e-10
-7.18555e-10
-1.11091e-10
-7.0009e-10
-1.14224e-10
-1.10968e-10
-6.77234e-10
1.02515e-13
-2.27456e-12
3.02565e-13
-6.49992e-12
5.5576e-13
-1.04498e-11
8.4755e-13
-1.41491e-11
1.1624e-12
-1.76012e-11
1.48469e-12
-2.08094e-11
1.79895e-12
-2.37769e-11
2.09047e-12
-2.65065e-11
2.34516e-12
-2.90009e-11
2.55025e-12
-3.12622e-11
2.69373e-12
-3.3292e-11
2.76526e-12
-3.50915e-11
2.75516e-12
-3.66614e-11
2.65573e-12
-3.80015e-11
2.45964e-12
-3.91111e-11
2.16184e-12
-3.99889e-11
1.75718e-12
-4.06326e-11
1.2433e-12
-4.10392e-11
6.16992e-13
-4.12051e-11
-1.21255e-13
-4.11254e-11
-9.72895e-13
-4.07948e-11
-1.93423e-12
-4.02065e-11
-3.00502e-12
-3.93532e-11
-4.17754e-12
-3.82263e-11
-5.44975e-12
-3.68167e-11
-6.80844e-12
-3.51131e-11
-8.24941e-12
-3.31047e-11
-9.75161e-12
-3.07774e-11
-1.13081e-11
-2.81191e-11
-1.28861e-11
-2.51123e-11
-1.4473e-11
-2.17442e-11
-1.60146e-11
-1.79919e-11
-1.76373e-11
-1.38401e-11
-1.93325e-11
-9.2544e-12
-1.68182e-11
-5.32011e-12
-2.33258e-11
-1.11343e-12
-5.18841e-11
3.83612e-12
-6.42675e-11
1.0639e-11
-2.69562e-10
-9.56235e-12
-3.83686e-10
2.11865e-11
-5.13369e-10
-8.99707e-11
-7.10411e-10
2.71282e-12
-6.9486e-10
-1.73412e-10
-8.42614e-10
2.32454e-12
-9.27295e-10
-2.37163e-11
-9.97713e-10
-3.70847e-11
-1.05301e-09
-5.29047e-11
-1.05899e-09
-1.05117e-10
-1.01434e-09
-1.58869e-10
-1.46703e-10
-9.78609e-10
-2.55276e-13
-2.01928e-12
-8.81569e-13
-5.87363e-12
-1.84276e-12
-9.48857e-12
-3.15427e-12
-1.28375e-11
-4.82502e-12
-1.59304e-11
-6.85791e-12
-1.87765e-11
-9.25014e-12
-2.13846e-11
-1.19935e-11
-2.37631e-11
-1.50745e-11
-2.59199e-11
-1.84747e-11
-2.7862e-11
-2.21703e-11
-2.95963e-11
-2.61332e-11
-3.11286e-11
-3.03302e-11
-3.24644e-11
-3.47235e-11
-3.36081e-11
-3.92706e-11
-3.4564e-11
-4.39246e-11
-3.5335e-11
-4.86331e-11
-3.59241e-11
-5.33396e-11
-3.63327e-11
-5.79817e-11
-3.65629e-11
-6.24925e-11
-3.66147e-11
-6.67983e-11
-3.64889e-11
-7.08205e-11
-3.61843e-11
-7.44727e-11
-3.5701e-11
-7.76626e-11
-3.50364e-11
-8.02889e-11
-3.41904e-11
-8.22432e-11
-3.31588e-11
-8.34059e-11
-3.19419e-11
-8.36492e-11
-3.05342e-11
-8.28316e-11
-2.89367e-11
-8.0801e-11
-2.71428e-11
-7.73899e-11
-2.51553e-11
-7.24157e-11
-2.29662e-11
-6.56742e-11
-2.05816e-11
-5.69347e-11
-1.79939e-11
-4.70403e-11
-1.52145e-11
-3.59309e-11
-1.22228e-11
-2.31726e-11
-9.39914e-12
-1.20211e-11
-7.15457e-12
-1.70244e-11
-4.70156e-12
6.0202e-12
-1.87926e-12
-8.97944e-11
5.84364e-12
-8.53242e-11
-1.75732e-12
-2.54311e-10
-4.42393e-12
-3.01137e-10
4.91518e-11
-3.03551e-10
-2.12989e-11
-3.63912e-10
2.32873e-11
-4.22015e-10
5.25671e-12
-4.0012e-10
-1.26556e-10
-4.52558e-10
-1.06432e-10
-4.88586e-11
-5.50402e-10
2.05601e-13
-2.22489e-12
3.29018e-13
-5.99705e-12
1.05344e-13
-9.2649e-12
-5.95746e-13
-1.21365e-11
-1.86531e-12
-1.46609e-11
-3.7625e-12
-1.68793e-11
-6.31995e-12
-1.88272e-11
-9.54818e-12
-2.05349e-11
-1.34395e-11
-2.20286e-11
-1.79709e-11
-2.33306e-11
-2.3107e-11
-2.44602e-11
-2.8802e-11
-2.54336e-11
-3.50014e-11
-2.62651e-11
-4.16432e-11
-2.69663e-11
-4.86596e-11
-2.75477e-11
-5.5977e-11
-2.80175e-11
-6.3518e-11
-2.83831e-11
-7.12005e-11
-2.86502e-11
-7.89396e-11
-2.88238e-11
-8.66469e-11
-2.89074e-11
-9.42315e-11
-2.89043e-11
-1.016e-10
-2.88159e-11
-1.08657e-10
-2.86442e-11
-1.15304e-10
-2.83888e-11
-1.21444e-10
-2.80505e-11
-1.26976e-10
-2.7627e-11
-1.318e-10
-2.71182e-11
-1.35814e-10
-2.65199e-11
-1.3892e-10
-2.58307e-11
-1.41019e-10
-2.5044e-11
-1.42017e-10
-2.41575e-11
-1.41821e-10
-2.31614e-11
-1.40351e-10
-2.2052e-11
-1.3753e-10
-2.0815e-11
-1.333e-10
-1.94442e-11
-1.27603e-10
-1.792e-11
-1.2077e-10
-1.62318e-11
-1.1359e-10
-1.43346e-11
-1.06122e-10
-1.217e-11
-9.84638e-11
-9.86706e-12
-8.69825e-11
-7.83086e-12
-8.32107e-11
-5.5821e-12
-8.44632e-11
-3.18298e-12
-3.14332e-11
-3.87835e-12
-5.9042e-11
6.31004e-12
-3.33261e-11
-2.42625e-12
-4.85803e-11
2.05459e-11
-1.73934e-10
-5.64225e-13
-4.23789e-10
1.43424e-10
5.84739e-11
-5.31121e-10
1.71751e-11
3.05781e-11
4.07132e-11
4.79767e-11
5.27159e-11
5.52366e-11
5.58094e-11
5.46745e-11
5.20459e-11
4.81153e-11
4.30551e-11
3.70215e-11
3.01564e-11
2.25901e-11
1.44425e-11
5.82497e-12
-3.15814e-12
-1.24083e-11
-2.18322e-11
-3.13396e-11
-4.08439e-11
-5.02598e-11
-5.9504e-11
-6.84928e-11
-7.71433e-11
-8.53703e-11
-9.30886e-11
-1.00208e-10
-1.06639e-10
-1.12283e-10
-1.17041e-10
-1.20802e-10
-1.23454e-10
-1.24869e-10
-1.24913e-10
-1.23433e-10
-1.20265e-10
-1.152e-10
-1.0797e-10
-9.84369e-11
-8.68676e-11
-7.30497e-11
-5.68446e-11
-4.21417e-11
-1.76387e-11
-9.83916e-13
3.47783e-11
5.21454e-11
2.01866e-10
2.08879e-10
1.55729e-10
-3.69352e-11
1.66075e-10
-3.77758e-11
1.72845e-10
-3.80386e-11
1.77093e-10
-3.8014e-11
1.79843e-10
-3.75292e-11
1.81184e-10
-3.65785e-11
1.80744e-10
-3.56138e-11
1.83525e-10
-3.52773e-11
1.90335e-10
-3.53979e-11
1.90712e-10
-3.50556e-11
1.86928e-10
-3.5714e-11
1.93358e-10
-3.79897e-11
2.05275e-10
-4.24641e-11
2.21106e-10
-5.27069e-11
2.16565e-10
-6.21123e-11
2.31034e-10
-7.17669e-11
2.39298e-10
-7.49709e-11
2.55581e-10
-7.74759e-11
2.76541e-10
-7.84349e-11
3.01282e-10
-7.95161e-11
3.2718e-10
-8.07367e-11
3.53818e-10
-8.17067e-11
3.83599e-10
-8.32246e-11
4.18201e-10
-8.52496e-11
4.54296e-10
-8.80312e-11
4.92294e-10
-9.17475e-11
5.33047e-10
-9.68681e-11
5.72926e-10
-1.04355e-10
5.92334e-10
-1.07169e-10
6.4993e-10
-1.1275e-10
6.85063e-10
-1.12983e-10
7.22495e-10
-1.22347e-10
7.49366e-10
-1.26908e-10
7.816e-10
-1.23356e-10
8.32484e-10
-1.11722e-10
8.93139e-10
-9.84708e-11
9.64824e-10
-8.77296e-11
1.04967e-09
-7.91338e-11
1.1437e-09
-7.29729e-11
1.25042e-09
-6.96238e-11
1.36275e-09
-6.82795e-11
1.48878e-09
-6.78568e-11
1.62521e-09
-6.42284e-11
1.78735e-09
-6.77554e-11
1.93962e-09
-5.06653e-11
2.09157e-09
-3.97885e-11
2.24488e-09
-3.07639e-11
2.39907e-09
-2.15408e-11
2.55454e-09
-1.36827e-11
-6.56106e-12
2.71245e-09
1.25743e-10
-4.30416e-11
1.2952e-10
-4.18103e-11
1.33571e-10
-4.21294e-11
1.37819e-10
-4.22626e-11
1.42453e-10
-4.21628e-11
1.4796e-10
-4.20855e-11
1.54394e-10
-4.20476e-11
1.61062e-10
-4.19457e-11
1.67273e-10
-4.16094e-11
1.73313e-10
-4.10949e-11
1.78484e-10
-4.08857e-11
1.81837e-10
-4.13419e-11
1.86067e-10
-4.6695e-11
1.90156e-10
-5.67953e-11
1.94845e-10
-6.6801e-11
1.99435e-10
-7.63574e-11
2.09551e-10
-8.50865e-11
2.24885e-10
-9.28097e-11
2.46153e-10
-9.97035e-11
2.72433e-10
-1.05796e-10
3.02627e-10
-1.10931e-10
3.36599e-10
-1.15679e-10
3.72552e-10
-1.19177e-10
4.08753e-10
-1.21451e-10
4.42193e-10
-1.21471e-10
4.72413e-10
-1.21968e-10
4.97905e-10
-1.2236e-10
5.16151e-10
-1.22601e-10
5.32029e-10
-1.23048e-10
5.42533e-10
-1.23253e-10
5.52902e-10
-1.23352e-10
5.53893e-10
-1.23338e-10
5.50274e-10
-1.23289e-10
5.50024e-10
-1.23106e-10
5.61209e-10
-1.22907e-10
5.85318e-10
-1.2258e-10
6.20086e-10
-1.22497e-10
6.63664e-10
-1.22712e-10
7.136e-10
-1.22909e-10
7.67325e-10
-1.23349e-10
8.22953e-10
-1.23908e-10
8.79372e-10
-1.24276e-10
9.39542e-10
-1.24399e-10
9.93606e-10
-1.21819e-10
1.06206e-09
-1.19116e-10
1.1359e-09
-1.13628e-10
1.21393e-09
-1.08802e-10
1.29704e-09
-1.0465e-10
1.38396e-09
-1.00604e-10
-9.64206e-11
1.47382e-09
1.02834e-11
-4.7715e-11
1.59478e-11
-4.74743e-11
1.85026e-11
-4.72113e-11
2.24755e-11
-4.68343e-11
2.72626e-11
-4.70436e-11
3.22332e-11
-4.70562e-11
3.71962e-11
-4.70105e-11
4.219e-11
-4.69396e-11
4.74398e-11
-4.68592e-11
5.31529e-11
-4.68079e-11
5.90373e-11
-4.67701e-11
6.45833e-11
-4.68879e-11
6.84509e-11
-5.05627e-11
7.09614e-11
-5.93058e-11
7.25985e-11
-6.84382e-11
7.33216e-11
-7.70804e-11
7.1729e-11
-8.3494e-11
6.85653e-11
-8.9646e-11
6.46202e-11
-9.57584e-11
5.95929e-11
-1.00769e-10
5.36744e-11
-1.05012e-10
4.64062e-11
-1.08411e-10
3.97424e-11
-1.12513e-10
3.37423e-11
-1.15451e-10
2.9681e-11
-1.17409e-10
2.70534e-11
-1.19341e-10
2.61038e-11
-1.2141e-10
2.64626e-11
-1.2296e-10
2.7192e-11
-1.23777e-10
2.85807e-11
-1.24642e-10
3.10305e-11
-1.25802e-10
3.43561e-11
-1.26663e-10
3.83458e-11
-1.27278e-10
4.28119e-11
-1.27572e-10
4.7401e-11
-1.27496e-10
5.20132e-11
-1.27192e-10
5.60311e-11
-1.26515e-10
5.89484e-11
-1.2563e-10
6.082e-11
-1.2478e-10
6.13227e-11
-1.23852e-10
6.00149e-11
-1.226e-10
5.70901e-11
-1.21351e-10
5.2668e-11
-1.19977e-10
4.92287e-11
-1.18379e-10
4.67256e-11
-1.16613e-10
4.777e-11
-1.14673e-10
5.14991e-11
-1.12531e-10
5.70375e-11
-1.10189e-10
6.40141e-11
-1.07581e-10
-1.04799e-10
7.23929e-11
1.82016e-11
-5.48412e-11
2.56711e-11
-5.49438e-11
3.34648e-11
-5.5005e-11
4.16599e-11
-5.52196e-11
4.7958e-11
-5.46083e-11
5.42433e-11
-5.41434e-11
6.09881e-11
-5.37553e-11
6.72309e-11
-5.31824e-11
7.26194e-11
-5.22476e-11
7.9542e-11
-5.37305e-11
8.81117e-11
-5.53398e-11
8.90558e-11
-4.7832e-11
8.80971e-11
-4.9604e-11
8.03627e-11
-5.15714e-11
6.61264e-11
-5.42019e-11
4.77609e-11
-5.87149e-11
2.63155e-11
-6.20485e-11
2.01285e-12
-6.53433e-11
-2.40086e-11
-6.97369e-11
-5.15504e-11
-7.32269e-11
-7.97305e-11
-7.68322e-11
-1.07244e-10
-8.08972e-11
-1.33834e-10
-8.59235e-11
-1.58962e-10
-9.03227e-11
-1.82004e-10
-9.43679e-11
-2.03434e-10
-9.79106e-11
-2.24088e-10
-1.00755e-10
-2.43732e-10
-1.03316e-10
-2.62057e-10
-1.05453e-10
-2.79709e-10
-1.06989e-10
-2.97207e-10
-1.08304e-10
-3.14572e-10
-1.09299e-10
-3.31891e-10
-1.09959e-10
-3.49127e-10
-1.10336e-10