/*--------------------------------*- C++ -*----------------------------------*\
| =========                 |                                                 |
| \\      /  F ield         | OpenFOAM: The Open Source CFD Toolbox           |
|  \\    /   O peration     | Version:  2.4.0                                 |
|   \\  /    A nd           | Web:      www.OpenFOAM.org                      |
|    \\/     M anipulation  |                                                 |
\*---------------------------------------------------------------------------*/
FoamFile
{
    version     2.0;
    format      ascii;
    class       volScalarField;
    location    "2";
    object      T;
}
// * * * * * * * * * * * * * * * * * * * * * * * * * * * * * * * * * * * * * //

dimensions      [0 0 0 1 0 0 0];

internalField   nonuniform List<scalar> 
8000
(
293.113
293.34
293.568
293.797
294.028
294.26
294.491
294.72
294.946
295.168
295.383
295.59
295.788
295.976
296.153
296.318
296.471
296.613
296.742
296.86
296.968
297.065
297.153
297.233
297.304
297.369
297.428
297.481
297.529
297.573
297.613
297.65
297.684
297.715
297.745
297.772
297.797
297.821
297.844
297.866
297.886
297.905
297.923
297.94
297.956
297.972
297.986
298
298
298
293.117
293.352
293.588
293.824
294.061
294.296
294.53
294.761
294.988
295.209
295.422
295.626
295.821
296.005
296.177
296.338
296.487
296.624
296.75
296.864
296.968
297.062
297.148
297.225
297.294
297.357
297.414
297.466
297.513
297.556
297.596
297.632
297.665
297.696
297.725
297.751
297.776
297.799
297.821
297.841
297.86
297.878
297.895
297.91
297.925
297.94
297.953
297.967
297.981
298
293.119
293.356
293.593
293.83
294.066
294.299
294.529
294.755
294.976
295.189
295.395
295.591
295.778
295.954
296.119
296.273
296.416
296.547
296.668
296.779
296.88
296.972
297.056
297.132
297.201
297.264
297.322
297.375
297.424
297.469
297.51
297.549
297.584
297.618
297.65
297.679
297.708
297.734
297.76
297.784
297.806
297.828
297.849
297.868
297.886
297.904
297.92
297.935
297.949
297.962
293.116
293.347
293.577
293.806
294.032
294.256
294.475
294.689
294.897
295.098
295.291
295.475
295.651
295.816
295.972
296.117
296.253
296.379
296.496
296.603
296.702
296.794
296.877
296.955
297.026
297.091
297.152
297.208
297.261
297.31
297.356
297.4
297.441
297.481
297.519
297.555
297.59
297.623
297.656
297.687
297.718
297.747
297.775
297.802
297.828
297.852
297.875
297.896
297.916
297.934
293.112
293.335
293.556
293.776
293.992
294.205
294.412
294.614
294.81
294.998
295.179
295.351
295.514
295.669
295.815
295.951
296.079
296.199
296.31
296.414
296.51
296.599
296.683
296.76
296.833
296.901
296.964
297.025
297.082
297.137
297.189
297.239
297.288
297.335
297.381
297.426
297.471
297.514
297.557
297.599
297.64
297.68
297.719
297.757
297.793
297.828
297.86
297.89
297.917
297.942
293.106
293.317
293.527
293.734
293.937
294.136
294.33
294.518
294.7
294.874
295.041
295.201
295.353
295.496
295.632
295.76
295.881
295.994
296.101
296.201
296.295
296.384
296.467
296.546
296.621
296.693
296.761
296.827
296.891
296.953
297.013
297.073
297.131
297.189
297.247
297.304
297.36
297.417
297.473
297.529
297.584
297.638
297.691
297.743
297.792
297.839
297.882
297.922
297.959
297.993
293.099
293.298
293.494
293.688
293.878
294.063
294.243
294.418
294.586
294.748
294.902
295.05
295.191
295.325
295.452
295.573
295.687
295.796
295.899
295.997
296.09
296.179
296.264
296.346
296.426
296.503
296.578
296.651
296.723
296.795
296.866
296.936
297.007
297.078
297.15
297.222
297.295
297.368
297.441
297.514
297.587
297.659
297.728
297.795
297.858
297.917
297.974
298
298
298
293.093
293.277
293.46
293.639
293.816
293.987
294.154
294.315
294.471
294.621
294.765
294.903
295.034
295.161
295.281
295.397
295.507
295.614
295.716
295.814
295.909
296.001
296.091
296.179
296.266
296.351
296.435
296.519
296.603
296.687
296.772
296.857
296.944
297.032
297.122
297.213
297.306
297.4
297.494
297.589
297.683
297.773
297.86
297.946
297.999
298
298
298
298
298
293.086
293.257
293.426
293.592
293.755
293.914
294.069
294.218
294.363
294.503
294.638
294.769
294.894
295.016
295.133
295.246
295.356
295.463
295.568
295.67
295.77
295.869
295.967
296.063
296.16
296.256
296.353
296.451
296.549
296.65
296.752
296.856
296.963
297.072
297.184
297.299
297.417
297.537
297.657
297.778
297.908
297.999
298
298
298
298
298
298
298
298
293.079
293.238
293.394
293.549
293.7
293.848
293.993
294.134
294.271
294.404
294.534
294.66
294.784
294.904
295.022
295.137
295.251
295.363
295.474
295.583
295.692
295.801
295.91
296.019
296.129
296.239
296.352
296.466
296.582
296.702
296.825
296.951
297.081
297.216
297.356
297.5
297.648
297.801
297.953
297.999
298
298
298
298
298
298
298
298
298
298.001
293.074
293.223
293.37
293.516
293.659
293.8
293.939
294.075
294.208
294.339
294.469
294.596
294.721
294.845
294.967
295.089
295.21
295.33
295.45
295.57
295.69
295.811
295.933
296.055
296.18
296.306
296.434
296.566
296.701
296.84
296.984
297.133
297.288
297.448
297.616
297.793
297.98
298
298
298
298
298
298
298
298
298.001
298.001
298.001
298.002
298.002
293.072
293.215
293.357
293.498
293.639
293.777
293.915
294.051
294.186
294.32
294.453
294.585
294.717
294.848
294.979
295.11
295.24
295.371
295.502
295.633
295.765
295.897
296.032
296.167
296.305
296.445
296.589
296.736
296.888
297.045
297.207
297.376
297.552
297.737
297.938
297.999
298
298
298
298
298
298
298
298.001
298.001
298.001
298.001
298.001
298.002
298.002
293.071
293.213
293.355
293.497
293.638
293.779
293.92
294.06
294.201
294.341
294.481
294.621
294.761
294.901
295.042
295.182
295.322
295.462
295.603
295.744
295.885
296.027
296.171
296.316
296.464
296.615
296.77
296.929
297.093
297.262
297.439
297.624
297.817
297.998
298
298
298
298
298
298
298
298.001
298.001
298.001
298.001
298.001
298.001
298.002
298.002
298.002
293.073
293.218
293.363
293.509
293.655
293.801
293.948
294.096
294.244
294.392
294.54
294.689
294.837
294.986
295.134
295.282
295.429
295.575
295.721
295.867
296.012
296.157
296.303
296.45
296.6
296.753
296.909
297.071
297.238
297.413
297.599
297.797
297.998
297.999
297.999
298
298
298.001
298.001
298.002
298.002
298.003
298.003
298.004
298.004
298.004
298.005
298.005
298.006
298.006
293.076
293.229
293.382
293.536
293.691
293.846
294.002
294.159
294.316
294.473
294.63
294.787
294.944
295.099
295.253
295.405
295.555
295.702
295.847
295.99
296.131
296.269
296.407
296.544
296.683
296.823
296.966
297.114
297.271
297.438
297.617
297.807
297.998
298
298
298
298
298.001
298.002
298.004
298.005
298.006
298.008
298.009
298.01
298.011
298.012
298.014
298.015
298.015
293.083
293.249
293.417
293.585
293.755
293.926
294.098
294.27
294.443
294.616
294.788
294.958
295.127
295.292
295.454
295.613
295.766
295.915
296.059
296.197
296.329
296.456
296.578
296.695
296.808
296.919
297.029
297.14
297.253
297.372
297.497
297.627
297.76
297.895
297.999
298
298
298
298
298.003
298.006
298.008
298.011
298.014
298.017
298.019
298.022
298.024
298.026
298.028
293.095
293.285
293.476
293.669
293.864
294.06
294.257
294.454
294.651
294.846
295.039
295.229
295.415
295.596
295.772
295.941
296.103
296.257
296.404
296.541
296.67
296.79
296.901
297.004
297.099
297.187
297.269
297.346
297.42
297.493
297.565
297.638
297.713
297.787
297.861
297.935
297.999
298
298
298
298
298
298.001
298.007
298.013
298.018
298.023
298.027
298.031
298.035
293.109
293.328
293.548
293.769
293.991
294.213
294.433
294.652
294.868
295.081
295.289
295.493
295.691
295.882
296.067
296.243
296.411
296.569
296.718
296.855
296.982
297.098
297.203
297.298
297.382
297.458
297.525
297.585
297.638
297.687
297.731
297.773
297.812
297.851
297.888
297.926
297.964
298
298
298
298
298
298
298
298
298
298
298.002
298.016
298.028
293.123
293.37
293.615
293.857
294.095
294.329
294.557
294.78
294.998
295.21
295.417
295.618
295.814
296.004
296.188
296.364
296.533
296.692
296.841
296.98
297.107
297.223
297.327
297.419
297.501
297.572
297.634
297.688
297.734
297.774
297.808
297.838
297.863
297.886
297.906
297.925
297.942
297.958
297.974
297.988
298
298
298
298
298
298
298
298.001
298.019
298.037
293.197
293.531
293.823
294.086
294.326
294.551
294.763
294.967
295.163
295.354
295.541
295.724
295.904
296.08
296.253
296.422
296.587
296.746
296.895
297.033
297.161
297.278
297.382
297.475
297.557
297.628
297.689
297.741
297.785
297.822
297.853
297.879
297.9
297.918
297.933
297.946
297.956
297.965
297.973
297.98
297.985
297.991
297.995
298
298
298
298
298
298
298.005
298
298
298
298
298
298
298
297.999
297.999
297.999
297.999
297.999
297.999
297.999
297.999
297.999
297.999
297.999
297.999
297.999
297.998
297.998
297.998
297.998
297.998
297.998
297.998
297.998
297.998
297.998
297.998
297.998
297.998
297.998
297.998
297.998
297.998
297.998
297.998
297.998
297.998
297.998
297.998
297.998
297.998
297.998
297.998
297.998
297.998
297.998
298
298
298
298
298
298
298
298
298
298
298
297.999
297.999
297.999
297.999
297.999
297.999
297.999
297.999
297.999
297.999
297.999
297.999
297.998
297.998
297.998
297.998
297.998
297.998
297.998
297.998
297.998
297.998
297.998
297.998
297.998
297.998
297.998
297.997
297.997
297.997
297.997
297.997
297.997
297.997
297.997
297.997
297.997
297.997
297.997
297.975
297.987
297.998
298
298
298
298
298
298
298
298
298
298
297.999
297.999
297.999
297.999
297.999
297.999
297.999
297.999
297.999
297.999
297.999
297.998
297.998
297.998
297.998
297.998
297.998
297.998
297.998
297.998
297.998
297.998
297.997
297.997
297.997
297.997
297.997
297.997
297.997
297.997
297.997
297.997
297.997
297.997
297.997
297.997
297.997
297.95
297.964
297.977
297.987
297.996
298
298
298
298
298
298
298
298
298
297.999
297.999
297.999
297.999
297.999
297.999
297.999
297.999
297.999
297.999
297.999
297.999
297.998
297.998
297.998
297.998
297.998
297.998
297.998
297.998
297.998
297.998
297.998
297.997
297.997
297.997
297.997
297.997
297.997
297.997
297.997
297.997
297.997
297.997
297.996
297.996
297.964
297.984
298
298
298
298
298
298
298
298
298
298
298
298
298
298
297.999
297.999
297.999
297.999
297.999
297.999
297.999
297.999
297.999
297.999
297.999
297.999
297.999
297.999
297.999
297.999
297.998
297.998
297.998
297.998
297.998
297.998
297.998
297.998
297.998
297.998
297.997
297.997
297.997
297.997
297.997
297.997
297.997
297.997
298
298
298
298
298
298
298
298
298
298
298
298
298
298
298
298
298
298
298
298
298
298
298
298
298
298
298
298
298
298
298
297.999
297.999
297.999
297.999
297.999
297.999
297.999
297.999
297.999
297.999
297.999
297.999
297.998
297.998
297.998
297.998
297.998
297.998
297.998
298
298
298
298
298
298
298
298
298
298
298
298
298
298
298
298
298
298
298.001
298.001
298.001
298.001
298.001
298.001
298.001
298.001
298.001
298.001
298.001
298.001
298.001
298.001
298.001
298
298
298
298
298
298
298
298
298
298
298
298
298
298
298
298
297.999
298
298
298
298
298
298
298
298
298.001
298.001
298.001
298.001
298.001
298.001
298.001
298.001
298.001
298.001
298.001
298.001
298.001
298.002
298.002
298.002
298.002
298.002
298.002
298.002
298.002
298.002
298.002
298.002
298.002
298.002
298.002
298.002
298.002
298.002
298.002
298.001
298.001
298.001
298.001
298.001
298.001
298.001
298.001
298.001
298.001
298.001
298
298
298
298.001
298.001
298.001
298.001
298.001
298.001
298.002
298.002
298.002
298.002
298.002
298.002
298.002
298.002
298.002
298.003
298.003
298.003
298.003
298.003
298.003
298.003
298.003
298.003
298.003
298.003
298.003
298.003
298.003
298.003
298.003
298.003
298.003
298.003
298.003
298.003
298.003
298.003
298.003
298.003
298.003
298.003
298.003
298.003
298.003
298.003
298.003
298.001
298.001
298.002
298.002
298.002
298.002
298.002
298.003
298.003
298.003
298.003
298.003
298.003
298.003
298.004
298.004
298.004
298.004
298.004
298.004
298.004
298.004
298.004
298.004
298.005
298.005
298.005
298.005
298.005
298.005
298.005
298.005
298.005
298.005
298.005
298.005
298.005
298.005
298.005
298.005
298.005
298.005
298.005
298.005
298.005
298.005
298.005
298.005
298.005
298.005
298.002
298.002
298.003
298.003
298.003
298.003
298.003
298.004
298.004
298.004
298.004
298.004
298.004
298.004
298.005
298.005
298.005
298.005
298.005
298.005
298.005
298.005
298.006
298.006
298.006
298.006
298.006
298.006
298.006
298.006
298.006
298.006
298.006
298.006
298.007
298.007
298.007
298.007
298.007
298.007
298.007
298.007
298.007
298.007
298.007
298.007
298.007
298.007
298.007
298.007
298.002
298.002
298.002
298.003
298.003
298.003
298.003
298.003
298.003
298.004
298.004
298.004
298.004
298.004
298.004
298.004
298.005
298.005
298.005
298.005
298.005
298.005
298.005
298.005
298.006
298.006
298.006
298.006
298.006
298.006
298.006
298.007
298.007
298.007
298.007
298.007
298.007
298.007
298.007
298.008
298.008
298.008
298.008
298.008
298.008
298.008
298.008
298.008
298.008
298.008
298.002
298.002
298.002
298.003
298.003
298.003
298.003
298.003
298.004
298.004
298.004
298.004
298.004
298.004
298.004
298.004
298.004
298.005
298.005
298.005
298.005
298.005
298.005
298.005
298.005
298.005
298.005
298.005
298.005
298.006
298.006
298.006
298.006
298.006
298.006
298.007
298.007
298.007
298.007
298.007
298.007
298.008
298.008
298.008
298.008
298.008
298.009
298.009
298.009
298.009
298.007
298.007
298.007
298.008
298.008
298.009
298.009
298.009
298.009
298.009
298.01
298.01
298.01
298.01
298.01
298.01
298.009
298.009
298.009
298.009
298.009
298.009
298.009
298.009
298.009
298.008
298.008
298.008
298.008
298.008
298.008
298.008
298.008
298.008
298.008
298.008
298.008
298.008
298.009
298.009
298.009
298.009
298.009
298.009
298.009
298.01
298.01
298.01
298.01
298.01
298.016
298.017
298.018
298.018
298.019
298.019
298.019
298.019
298.019
298.019
298.019
298.019
298.019
298.019
298.018
298.018
298.018
298.017
298.017
298.017
298.016
298.016
298.016
298.016
298.015
298.015
298.015
298.015
298.014
298.014
298.014
298.014
298.014
298.014
298.014
298.014
298.014
298.014
298.014
298.014
298.014
298.014
298.014
298.014
298.014
298.014
298.014
298.014
298.014
298.014
298.029
298.031
298.032
298.032
298.033
298.033
298.033
298.033
298.033
298.033
298.032
298.031
298.031
298.03
298.029
298.029
298.028
298.027
298.026
298.026
298.025
298.024
298.024
298.023
298.023
298.022
298.022
298.021
298.021
298.021
298.02
298.02
298.02
298.019
298.019
298.019
298.019
298.018
298.018
298.018
298.018
298.017
298.017
298.017
298.017
298.016
298.016
298.016
298.015
298.015
298.039
298.043
298.046
298.048
298.05
298.051
298.052
298.052
298.052
298.052
298.052
298.051
298.05
298.049
298.048
298.047
298.045
298.044
298.043
298.041
298.04
298.039
298.038
298.036
298.035
298.034
298.033
298.032
298.031
298.03
298.029
298.028
298.027
298.026
298.026
298.025
298.024
298.023
298.023
298.022
298.021
298.021
298.02
298.02
298.019
298.018
298.018
298.017
298.017
298.016
298.04
298.05
298.058
298.066
298.072
298.077
298.08
298.083
298.085
298.086
298.087
298.087
298.087
298.086
298.085
298.083
298.081
298.079
298.077
298.075
298.073
298.07
298.068
298.065
298.063
298.061
298.058
298.056
298.053
298.051
298.049
298.047
298.045
298.043
298.041
298.039
298.038
298.036
298.034
298.033
298.031
298.03
298.029
298.028
298.026
298.025
298.024
298.023
298.022
298.021
298.053
298.068
298.081
298.092
298.101
298.109
298.116
298.122
298.126
298.13
298.132
298.134
298.136
298.136
298.136
298.135
298.134
298.132
298.13
298.128
298.125
298.121
298.118
298.114
298.11
298.106
298.102
298.098
298.093
298.089
298.085
298.081
298.077
298.073
298.069
298.066
298.062
298.059
298.056
298.053
298.05
298.047
298.045
298.042
298.04
298.038
298.036
298.034
298.032
298.031
298.018
298.03
298.042
298.054
298.066
298.077
298.088
298.099
298.11
298.119
298.128
298.137
298.144
298.15
298.156
298.16
298.164
298.166
298.167
298.168
298.167
298.166
298.163
298.16
298.157
298.152
298.148
298.143
298.137
298.132
298.126
298.12
298.114
298.108
298.103
298.097
298.092
298.086
298.081
298.077
298.072
298.068
298.064
298.06
298.056
298.053
298.049
298.047
298.044
298.041
297.998
297.998
297.998
297.998
297.998
297.998
297.998
297.998
297.998
297.998
297.998
297.998
297.998
297.998
297.998
297.998
297.998
297.998
297.998
297.998
297.998
297.998
297.998
297.998
297.998
297.998
297.998
297.998
297.998
297.998
297.998
297.998
297.998
297.998
297.998
297.998
297.998
297.998
297.998
297.998
297.998
297.998
297.998
297.998
297.998
297.998
297.998
297.998
297.998
297.998
297.998
297.998
297.998
297.998
297.998
297.998
297.998
297.998
297.998
297.998
297.998
297.998
297.998
297.998
297.998
297.998
297.998
297.998
297.998
297.998
297.998
297.998
297.998
297.998
297.998
297.998
297.998
297.998
297.998
297.998
297.998
297.998
297.998
297.998
297.998
297.998
297.998
297.998
297.998
297.998
297.998
297.998
297.998
297.998
297.998
297.998
297.998
297.998
297.998
297.998
297.998
297.998
297.998
297.998
297.998
297.998
297.998
297.998
297.998
297.998
297.998
297.998
297.998
297.998
297.998
297.998
297.998
297.998
297.998
297.998
297.998
297.998
297.998
297.998
297.998
297.998
297.998
297.998
297.998
297.998
297.998
297.998
297.998
297.997
297.997
297.997
297.997
297.997
297.997
297.997
297.997
297.997
297.997
297.997
297.997
297.997
297.997
297.996
297.996
297.996
297.996
297.996
297.996
297.996
297.996
297.996
297.996
297.996
297.996
297.996
297.996
297.996
297.996
297.996
297.996
297.997
297.997
297.997
297.997
297.997
297.997
297.997
297.997
297.998
297.998
297.998
297.998
297.998
297.998
297.998
297.998
297.998
297.998
297.999
297.999
297.999
297.999
297.999
297.999
297.999
297.999
297.999
297.999
297.999
297.999
297.999
297.999
297.999
297.999
297.999
297.999
297.999
297.999
297.999
297.999
297.999
297.999
297.999
298
298
298
298
298
298
298
298
298
298
298
298
298
298
298
298
298
298
298
298
298
298
298
298
298
298
298
298
298
298
298
298
298
298
298
298
298
298
298
298
298
298
298
298
298
298
298
298
298
298
298
298
298
298
298
298
298
298
298
298
298
298
298
298
298
298
298
298
298
298
298
298
298
298
298
298
298
298
298
298
298
298
298
298
298
298
298
298
298
298
298
298
297.997
297.997
297.997
297.997
297.997
297.997
297.997
297.997
297.997
297.997
297.997
297.997
297.997
297.997
297.997
297.997
297.997
297.997
297.997
297.997
297.997
297.997
297.997
297.997
297.997
297.997
297.997
297.997
297.997
297.997
297.997
297.997
297.997
297.997
297.997
297.997
297.997
297.997
297.997
297.997
297.997
297.997
297.997
297.997
297.997
297.997
297.997
297.997
297.997
297.997
297.997
297.997
297.997
297.997
297.998
297.998
297.998
297.998
297.998
297.998
297.998
297.998
297.998
297.998
297.998
297.998
297.998
297.998
297.998
297.998
297.998
297.998
297.998
297.998
297.998
297.998
297.998
297.998
297.998
297.998
297.998
297.998
297.998
297.998
297.998
297.998
297.998
297.998
297.998
297.998
297.998
297.998
297.998
297.998
297.998
297.998
297.998
297.998
297.998
297.998
297.998
297.998
297.998
297.998
297.998
297.998
297.998
297.998
297.998
297.998
297.998
297.998
297.998
297.998
297.998
297.998
297.998
297.998
297.998
297.997
297.997
297.997
297.997
297.997
297.997
297.997
297.997
297.997
297.997
297.997
297.997
297.997
297.997
297.997
297.997
297.997
297.996
297.996
297.996
297.996
297.996
297.996
297.996
297.996
297.996
297.996
297.996
297.996
297.996
297.996
297.996
297.996
297.996
297.996
297.996
297.996
297.996
297.996
297.996
297.996
297.997
297.997
297.997
297.997
297.997
297.997
297.997
297.997
297.998
297.998
297.998
297.998
297.998
297.998
297.998
297.998
297.999
297.999
297.999
297.999
297.999
297.999
297.999
297.999
297.999
297.999
297.999
297.999
297.999
297.999
298
298
298
298
298
298
298
298
298
298
298
298
298
298
298
298
298
298
298
298
298
298
298
298
298
298
298
298
298
298
298
298
298
298
298
298
298
298
298
298
298
298
298
298
298
298
298
298
298
298
298
298
298
298
298
298
298
298
298
298
298
298
298
298
298
298
298
298
298
298
298
298
298
298
298
298
298
298
298
298
298
298
298
298
298
298
298
298
298
298
298
298
298
298
298
298
298
298
298
298
298
298
298
298
298
298
298
298
298
298
297.997
297.997
297.997
297.997
297.997
297.996
297.996
297.996
297.996
297.996
297.996
297.996
297.996
297.996
297.996
297.996
297.996
297.996
297.996
297.996
297.996
297.996
297.996
297.996
297.996
297.996
297.996
297.996
297.996
297.997
297.997
297.997
297.997
297.997
297.997
297.997
297.997
297.997
297.997
297.997
297.997
297.997
297.997
297.997
297.997
297.997
297.997
297.997
297.997
297.997
297.997
297.997
297.997
297.997
297.997
297.997
297.997
297.997
297.997
297.997
297.997
297.997
297.997
297.997
297.997
297.997
297.997
297.997
297.997
297.997
297.997
297.997
297.997
297.997
297.997
297.997
297.997
297.997
297.997
297.997
297.997
297.997
297.997
297.997
297.997
297.997
297.997
297.997
297.997
297.997
297.997
297.997
297.997
297.997
297.997
297.997
297.997
297.997
297.997
297.997
297.997
297.997
297.997
297.997
297.997
297.997
297.997
297.997
297.997
297.997
297.997
297.997
297.997
297.997
297.997
297.996
297.996
297.996
297.996
297.996
297.996
297.996
297.996
297.996
297.996
297.996
297.996
297.996
297.996
297.996
297.996
297.996
297.996
297.996
297.996
297.996
297.996
297.996
297.996
297.996
297.996
297.996
297.996
297.996
297.996
297.996
297.996
297.996
297.996
297.996
297.996
297.996
297.996
297.997
297.997
297.997
297.997
297.997
297.997
297.997
297.997
297.998
297.998
297.998
297.998
297.998
297.998
297.998
297.998
297.998
297.999
297.999
297.999
297.999
297.999
297.999
297.999
297.999
297.999
297.999
297.999
297.999
298
298
298
298
298
298
298
298
298
298
298
298
298
298
298
298
298
298
298
298
298
298
298
298
298
298
298
298
298
298
298
298
298
298
298
298
298
298
298
298
298
298
298
298
298
298
298
298
298
298
298
298
298
298
298
298
298
298
298
298
298
298
298
298
298
298
298
298
298
298
298
298
298
298
298
298
298
298
298
298
298
298
298
298
298
298
298
298
298
298
298
298
298
298
298
298
298
298
298
298
298
298
298
298
298
298
298
298
298
298
298
298
298
298
298
298
298
298
297.996
297.996
297.996
297.996
297.996
297.996
297.996
297.996
297.996
297.996
297.996
297.996
297.996
297.996
297.996
297.996
297.996
297.996
297.996
297.996
297.996
297.996
297.996
297.996
297.996
297.996
297.996
297.996
297.996
297.996
297.996
297.996
297.996
297.996
297.996
297.996
297.996
297.996
297.996
297.996
297.996
297.996
297.996
297.996
297.996
297.996
297.996
297.996
297.996
297.996
297.996
297.996
297.996
297.996
297.996
297.996
297.996
297.996
297.996
297.996
297.996
297.996
297.996
297.996
297.996
297.996
297.996
297.996
297.996
297.996
297.996
297.996
297.996
297.996
297.996
297.996
297.996
297.996
297.996
297.996
297.996
297.996
297.996
297.996
297.996
297.996
297.996
297.996
297.996
297.996
297.996
297.996
297.996
297.996
297.996
297.996
297.996
297.996
297.996
297.996
297.996
297.996
297.996
297.996
297.996
297.996
297.996
297.996
297.996
297.996
297.996
297.996
297.996
297.996
297.996
297.996
297.996
297.996
297.996
297.996
297.995
297.995
297.995
297.995
297.995
297.996
297.996
297.996
297.996
297.996
297.996
297.996
297.996
297.996
297.996
297.996
297.996
297.996
297.996
297.996
297.996
297.996
297.996
297.997
297.997
297.997
297.997
297.997
297.997
297.997
297.997
297.997
297.998
297.998
297.998
297.998
297.998
297.998
297.998
297.998
297.998
297.998
297.999
297.999
297.999
297.999
297.999
297.999
297.999
297.999
297.999
297.999
297.999
297.999
297.999
298
298
298
298
298
298
298
298
298
298
298
298
298
298
298
298
298
298
298
298
298
298
298
298
298
298
298
298
298
298
298
298
298
298
298
298
298
298
298
298
298
298
298
298
298
298
298
298
298
298
298
298
298
298
298
298
298
298
298
298
298
298
298
298
298
298
298
298
298
298
298
298
298
298
298
298
298
298
298
298
298
298
298
298
298
298
298
298
298
298
298
298
298
298
298
298
298
298
298
298
298
298
298
298
298
298
298
298
298
298
298
298
298
298
298
298
298
298
298
298
298
298
298
298
298
297.997
297.997
297.997
297.997
297.997
297.996
297.996
297.996
297.996
297.996
297.996
297.996
297.996
297.996
297.996
297.996
297.996
297.996
297.996
297.996
297.996
297.996
297.996
297.996
297.996
297.996
297.996
297.996
297.996
297.996
297.996
297.996
297.996
297.996
297.996
297.996
297.996
297.996
297.996
297.996
297.996
297.995
297.995
297.995
297.995
297.995
297.995
297.995
297.995
297.995
297.995
297.995
297.995
297.995
297.995
297.995
297.996
297.996
297.996
297.996
297.996
297.996
297.996
297.996
297.996
297.996
297.996
297.996
297.996
297.996
297.996
297.996
297.996
297.996
297.996
297.996
297.996
297.996
297.996
297.996
297.996
297.996
297.996
297.996
297.996
297.996
297.996
297.996
297.996
297.996
297.996
297.996
297.996
297.996
297.996
297.996
297.996
297.996
297.996
297.996
297.996
297.996
297.996
297.996
297.996
297.996
297.996
297.996
297.996
297.996
297.996
297.996
297.996
297.996
297.996
297.996
297.996
297.996
297.996
297.996
297.996
297.996
297.996
297.996
297.996
297.996
297.996
297.996
297.996
297.997
297.997
297.997
297.997
297.997
297.997
297.997
297.997
297.997
297.997
297.997
297.997
297.998
297.998
297.998
297.998
297.998
297.998
297.998
297.998
297.998
297.998
297.998
297.999
297.999
297.999
297.999
297.999
297.999
297.999
297.999
297.999
297.999
297.999
297.999
297.999
297.999
297.999
298
298
298
298
298
298
298
298
298
298
298
298
298
298
298
298
298
298
298
298
298
298
298
298
298
298
298
298
298
298
298
298
298
298
298
298
298
298
298
298
298
298
298
298
298
298
298
298
298
298
298
298
298
298
298
298
298
298
298
298
298
298
298
298
298
298
298
298
298
298
298
298
298
298
298
298
298
298
298
298
298
298
298
298
298
298
298
298
298
298
298
298
298
298
298
298
298
298
298
298
298
298
298
298
298
298
298
298
298
298
298
298
298
298
298
298
298
298
298
298
298
298
298
298
298
298
298
298
298
298
298
298
298
297.998
297.998
297.998
297.998
297.998
297.998
297.998
297.997
297.997
297.997
297.997
297.997
297.997
297.997
297.997
297.997
297.997
297.997
297.997
297.997
297.997
297.997
297.997
297.997
297.997
297.997
297.997
297.997
297.997
297.996
297.996
297.996
297.996
297.996
297.996
297.996
297.996
297.996
297.996
297.996
297.996
297.996
297.996
297.996
297.996
297.996
297.996
297.996
297.996
297.996
297.996
297.996
297.996
297.996
297.996
297.996
297.996
297.996
297.996
297.996
297.996
297.996
297.996
297.996
297.996
297.996
297.996
297.996
297.996
297.996
297.996
297.996
297.996
297.996
297.996
297.996
297.996
297.996
297.996
297.996
297.996
297.996
297.996
297.996
297.996
297.996
297.996
297.996
297.996
297.996
297.996
297.996
297.996
297.996
297.996
297.996
297.996
297.996
297.996
297.996
297.996
297.996
297.996
297.996
297.996
297.996
297.997
297.997
297.997
297.997
297.997
297.997
297.997
297.997
297.997
297.997
297.997
297.997
297.997
297.997
297.997
297.997
297.997
297.997
297.998
297.998
297.998
297.998
297.998
297.998
297.998
297.998
297.998
297.998
297.998
297.998
297.998
297.998
297.998
297.999
297.999
297.999
297.999
297.999
297.999
297.999
297.999
297.999
297.999
297.999
297.999
297.999
297.999
297.999
297.999
297.999
297.999
298
298
298
298
298
298
298
298
298
298
298
298
298
298
298
298
298
298
298
298
298
298
298
298
298
298
298
298
298
298
298
298
298
298
298
298
298
298
298
298
298
298
298
298
298
298
298
298
298
298
298
298
298
298
298
298
298
298
298
298
298
298
298
298
298
298
298
298
298
298
298
298
298
298
298
298
298
298
298
298
298
298
298
298
298
298
298
298
298
298
298
298
298
298
298
298
298
298
298
298
298
298
298
298
298
298
298
298
298
298
298
298
298
298
298
298
298
298
298
298
298
298
298
298
298
298
298
298
298
298
298
298
298
298
298
298
298
298
298
298
298
298
298
297.999
297.999
297.999
297.999
297.999
297.999
297.999
297.999
297.999
297.999
297.999
297.999
297.999
297.999
297.999
297.999
297.999
297.999
297.999
297.999
297.999
297.999
297.998
297.998
297.998
297.998
297.998
297.998
297.998
297.998
297.998
297.998
297.998
297.998
297.998
297.998
297.998
297.998
297.998
297.998
297.998
297.998
297.998
297.998
297.998
297.998
297.998
297.998
297.998
297.997
297.997
297.997
297.997
297.997
297.997
297.997
297.997
297.997
297.997
297.997
297.997
297.997
297.997
297.997
297.997
297.997
297.997
297.997
297.997
297.997
297.997
297.997
297.997
297.997
297.997
297.997
297.997
297.997
297.997
297.997
297.997
297.997
297.997
297.997
297.997
297.997
297.997
297.997
297.997
297.997
297.997
297.997
297.997
297.997
297.998
297.998
297.998
297.998
297.998
297.998
297.998
297.998
297.998
297.998
297.998
297.998
297.998
297.998
297.998
297.998
297.998
297.998
297.998
297.998
297.998
297.998
297.998
297.998
297.998
297.999
297.999
297.999
297.999
297.999
297.999
297.999
297.999
297.999
297.999
297.999
297.999
297.999
297.999
297.999
297.999
297.999
297.999
297.999
297.999
297.999
297.999
297.999
298
298
298
298
298
298
298
298
298
298
298
298
298
298
298
298
298
298
298
298
298
298
298
298
298
298
298
298
298
298
298
298
298
298
298
298
298
298
298
298
298
298
298
298
298
298
298
298
298
298
298
298
298
298
298
298
298
298
298
298
298
298
298
298
298
298
298
298
298
298
298
298
298
298
298
298
298
298
298
298
298
298
298
298
298
298
298
298
298
298
298
298
298
298
298
298
298
298
298
298
298
298
298
298
298
298
298
298
298
298
298
298
298
298
298
298
298
298
298
298
298
298
298
298
298
298
298
298
298
298
298
298
298
298
298
298
298
298
298
298
298
298
298
298
298
298
298
298
298
298
298
298
298
298
298
298
298
298
298.001
298.001
298.001
298.001
298.001
298.001
298.001
298.001
298.001
298
298
298
298
298
298
298
298
298
298
298
298
298
298
298
298
298
298
298
298
298
298
298
298
298
297.999
297.999
297.999
297.999
297.999
297.999
297.999
297.999
297.999
297.999
297.999
297.999
297.999
297.999
297.999
297.999
297.999
297.999
297.999
297.999
297.999
297.999
297.999
297.999
297.999
297.999
297.999
297.999
297.999
297.999
297.999
297.999
297.999
297.999
297.999
297.999
297.999
297.999
297.999
297.999
297.999
297.999
297.999
297.999
297.999
297.999
297.999
297.999
297.999
297.999
297.999
297.999
297.999
297.999
297.999
297.999
297.999
297.999
297.999
297.999
297.999
297.999
297.999
297.999
297.999
297.999
297.999
297.999
297.999
297.999
297.999
297.999
297.999
297.999
297.999
297.999
297.999
297.999
297.999
297.999
297.999
297.999
297.999
297.999
297.999
298