/*--------------------------------*- C++ -*----------------------------------*\
| =========                 |                                                 |
| \\      /  F ield         | OpenFOAM: The Open Source CFD Toolbox           |
|  \\    /   O peration     | Version:  2.4.0                                 |
|   \\  /    A nd           | Web:      www.OpenFOAM.org                      |
|    \\/     M anipulation  |                                                 |
\*---------------------------------------------------------------------------*/
FoamFile
{
    version     2.0;
    format      ascii;
    class       volVectorField;
    location    "2";
    object      U;
}
// * * * * * * * * * * * * * * * * * * * * * * * * * * * * * * * * * * * * * //

dimensions      [0 1 -1 0 0 0 0];

internalField   nonuniform List<vector> 
8000
(
(-6.33461e-07 -0.000159671 0)
(-4.80625e-06 -0.000469324 0)
(-1.26664e-05 -0.000768883 0)
(-2.3846e-05 -0.00105777 0)
(-3.79467e-05 -0.00133546 0)
(-5.46401e-05 -0.00160151 0)
(-7.36187e-05 -0.00185554 0)
(-9.45777e-05 -0.00209719 0)
(-0.000117198 -0.00232615 0)
(-0.000141165 -0.00254214 0)
(-0.00016615 -0.00274493 0)
(-0.000191833 -0.0029343 0)
(-0.000217884 -0.00311011 0)
(-0.000243981 -0.00327224 0)
(-0.000269796 -0.00342061 0)
(-0.000295006 -0.00355519 0)
(-0.000319291 -0.003676 0)
(-0.000342328 -0.00378308 0)
(-0.00036381 -0.00387655 0)
(-0.000383417 -0.00395652 0)
(-0.000400858 -0.00402321 0)
(-0.000415816 -0.00407683 0)
(-0.000428024 -0.00411766 0)
(-0.000437162 -0.00414602 0)
(-0.000442997 -0.00416226 0)
(-0.000445202 -0.00416681 0)
(-0.000443583 -0.0041601 0)
(-0.000437798 -0.00414267 0)
(-0.000427704 -0.00411501 0)
(-0.000412929 -0.00407781 0)
(-0.000393388 -0.00403159 0)
(-0.000368665 -0.00397721 0)
(-0.000338736 -0.00391521 0)
(-0.000303124 -0.00384664 0)
(-0.000261863 -0.00377204 0)
(-0.000214384 -0.00369268 0)
(-0.000160805 -0.00360886 0)
(-0.000100466 -0.00352252 0)
(-3.35197e-05 -0.00343405 0)
(4.08611e-05 -0.00334545 0)
(0.000122743 -0.00325699 0)
(0.000213596 -0.00317044 0)
(0.000314876 -0.00308585 0)
(0.000427141 -0.00300583 0)
(0.000548848 -0.00293291 0)
(0.000675819 -0.00287176 0)
(0.000804554 -0.00280611 0)
(0.000919827 -0.00285361 0)
(0.00101407 -0.00298076 0)
(0.00110024 -0.00309432 0)
(1.9097e-09 -0.000141555 0)
(-1.62553e-06 -0.000417844 0)
(-5.33055e-06 -0.000686962 0)
(-1.11016e-05 -0.000948449 0)
(-1.87496e-05 -0.00120188 0)
(-2.80736e-05 -0.00144687 0)
(-3.88776e-05 -0.00168309 0)
(-5.0956e-05 -0.00191024 0)
(-6.40964e-05 -0.00212806 0)
(-7.80725e-05 -0.00233634 0)
(-9.26539e-05 -0.00253488 0)
(-0.000107599 -0.00272353 0)
(-0.000122667 -0.00290216 0)
(-0.000137605 -0.00307069 0)
(-0.000152164 -0.00322906 0)
(-0.00016609 -0.00337725 0)
(-0.000179129 -0.00351527 0)
(-0.000191028 -0.00364314 0)
(-0.000201534 -0.00376094 0)
(-0.000210399 -0.00386878 0)
(-0.000217377 -0.00396676 0)
(-0.00022223 -0.00405506 0)
(-0.000224722 -0.00413386 0)
(-0.000224631 -0.00420336 0)
(-0.000221735 -0.00426382 0)
(-0.000215836 -0.00431548 0)
(-0.000206728 -0.00435866 0)
(-0.000194244 -0.00439366 0)
(-0.000178201 -0.00442086 0)
(-0.000158468 -0.00444057 0)
(-0.000134894 -0.00445328 0)
(-0.000107388 -0.0044593 0)
(-7.58433e-05 -0.00445922 0)
(-4.02156e-05 -0.00445334 0)
(-4.51992e-07 -0.00444234 0)
(4.34311e-05 -0.00442651 0)
(9.14352e-05 -0.00440638 0)
(0.0001435 -0.00438254 0)
(0.000199514 -0.00435602 0)
(0.000259329 -0.00432699 0)
(0.000322729 -0.00429668 0)
(0.000389496 -0.00426499 0)
(0.00045927 -0.00423353 0)
(0.000531819 -0.00420111 0)
(0.000606666 -0.00417146 0)
(0.000683328 -0.00414381 0)
(0.000760914 -0.00412086 0)
(0.000837573 -0.0041006 0)
(0.000907992 -0.00408062 0)
(0.000954245 -0.00410823 0)
(-4.34838e-07 -0.000130666 0)
(-3.25794e-06 -0.000385094 0)
(-8.59877e-06 -0.000632635 0)
(-1.62351e-05 -0.000873253 0)
(-2.59333e-05 -0.00110691 0)
(-3.75081e-05 -0.00133357 0)
(-5.07846e-05 -0.00155316 0)
(-6.55878e-05 -0.00176561 0)
(-8.17341e-05 -0.00197087 0)
(-9.90385e-05 -0.00216886 0)
(-0.000117311 -0.00235953 0)
(-0.000136363 -0.00254283 0)
(-0.000156002 -0.00271873 0)
(-0.000176038 -0.00288718 0)
(-0.000196277 -0.00304819 0)
(-0.000216532 -0.00320174 0)
(-0.000236614 -0.00334785 0)
(-0.000256336 -0.00348655 0)
(-0.000275516 -0.00361787 0)
(-0.000293974 -0.00374187 0)
(-0.000311539 -0.00385862 0)
(-0.000328037 -0.0039682 0)
(-0.000343309 -0.00407071 0)
(-0.000357193 -0.00416626 0)
(-0.000369545 -0.00425496 0)
(-0.000380216 -0.00433696 0)
(-0.00038908 -0.00441237 0)
(-0.000396006 -0.00448135 0)
(-0.000400886 -0.00454405 0)
(-0.000403609 -0.00460064 0)
(-0.000404091 -0.00465125 0)
(-0.000402241 -0.00469606 0)
(-0.000398005 -0.00473518 0)
(-0.000391315 -0.00476882 0)
(-0.000382145 -0.00479703 0)
(-0.000370451 -0.00482002 0)
(-0.000356243 -0.00483777 0)
(-0.000339497 -0.00485049 0)
(-0.000320271 -0.00485803 0)
(-0.000298576 -0.00486064 0)
(-0.000274521 -0.00485796 0)
(-0.000248139 -0.00485023 0)
(-0.000219601 -0.00483688 0)
(-0.000188938 -0.00481814 0)
(-0.000156428 -0.00479313 0)
(-0.000122103 -0.00476206 0)
(-8.63432e-05 -0.00472373 0)
(-4.94155e-05 -0.00467807 0)
(-1.16722e-05 -0.00462361 0)
(2.59332e-05 -0.00455952 0)
(-9.53155e-08 -0.000109242 0)
(-1.8173e-06 -0.000324566 0)
(-5.46734e-06 -0.000536457 0)
(-1.09787e-05 -0.000744657 0)
(-1.81742e-05 -0.000948932 0)
(-2.68918e-05 -0.00114906 0)
(-3.69852e-05 -0.00134485 0)
(-4.83132e-05 -0.0015361 0)
(-6.07332e-05 -0.00172264 0)
(-7.41026e-05 -0.00190432 0)
(-8.82775e-05 -0.002081 0)
(-0.000103116 -0.00225256 0)
(-0.000118474 -0.00241889 0)
(-0.00013421 -0.00257991 0)
(-0.000150183 -0.00273553 0)
(-0.000166253 -0.0028857 0)
(-0.000182281 -0.00303038 0)
(-0.000198131 -0.00316953 0)
(-0.000213668 -0.00330313 0)
(-0.000228763 -0.00343118 0)
(-0.000243282 -0.00355369 0)
(-0.000257104 -0.00367067 0)
(-0.000270101 -0.00378216 0)
(-0.000282161 -0.00388821 0)
(-0.000293162 -0.00398885 0)
(-0.000302999 -0.00408417 0)
(-0.000311558 -0.00417423 0)
(-0.000318745 -0.00425911 0)
(-0.000324449 -0.0043389 0)
(-0.000328588 -0.00441371 0)
(-0.000331056 -0.00448364 0)
(-0.000331781 -0.0045488 0)
(-0.000330659 -0.00460932 0)
(-0.00032763 -0.00466532 0)
(-0.000322587 -0.00471694 0)
(-0.000315476 -0.0047643 0)
(-0.000306187 -0.00480758 0)
(-0.00029467 -0.00484687 0)
(-0.0002808 -0.00488239 0)
(-0.000264528 -0.00491421 0)
(-0.000245709 -0.00494258 0)
(-0.000224279 -0.00496756 0)
(-0.000200067 -0.00498943 0)
(-0.000172982 -0.00500819 0)
(-0.000142813 -0.00502419 0)
(-0.000109424 -0.00503739 0)
(-7.25646e-05 -0.00504819 0)
(-3.20115e-05 -0.00505644 0)
(1.26118e-05 -0.00506269 0)
(6.17763e-05 -0.00506667 0)
(-1.95212e-07 -0.000103578 0)
(-1.45984e-06 -0.000307473 0)
(-3.85458e-06 -0.000508055 0)
(-7.27628e-06 -0.000705289 0)
(-1.16154e-05 -0.000899137 0)
(-1.67794e-05 -0.00108955 0)
(-2.26785e-05 -0.00127647 0)
(-2.92188e-05 -0.00145983 0)
(-3.63011e-05 -0.00163958 0)
(-4.3822e-05 -0.00181564 0)
(-5.16756e-05 -0.00198797 0)
(-5.97524e-05 -0.0021565 0)
(-6.79426e-05 -0.00232118 0)
(-7.61325e-05 -0.00248198 0)
(-8.42102e-05 -0.00263884 0)
(-9.20594e-05 -0.00279172 0)
(-9.95684e-05 -0.00294061 0)
(-0.000106619 -0.00308548 0)
(-0.000113102 -0.0032263 0)
(-0.000118899 -0.00336307 0)
(-0.000123904 -0.00349578 0)
(-0.000127999 -0.00362443 0)
(-0.000131082 -0.00374904 0)
(-0.000133038 -0.00386961 0)
(-0.000133771 -0.00398618 0)
(-0.000133167 -0.00409877 0)
(-0.000131139 -0.00420742 0)
(-0.000127573 -0.00431217 0)
(-0.000122392 -0.0044131 0)
(-0.000115482 -0.00451022 0)
(-0.000106776 -0.00460365 0)
(-9.61612e-05 -0.00469343 0)
(-8.35808e-05 -0.00477967 0)
(-6.89205e-05 -0.00486243 0)
(-5.21345e-05 -0.00494187 0)
(-3.31049e-05 -0.00501804 0)
(-1.1797e-05 -0.00509113 0)
(1.19133e-05 -0.0051612 0)
(3.80513e-05 -0.0052285 0)
(6.67498e-05 -0.00529306 0)
(9.80279e-05 -0.00535522 0)
(0.000132029 -0.00541498 0)
(0.00016877 -0.00547276 0)
(0.000208406 -0.00552856 0)
(0.000250964 -0.00558284 0)
(0.000296656 -0.0056356 0)
(0.000345641 -0.00568732 0)
(0.000398179 -0.00573815 0)
(0.00045411 -0.00578899 0)
(0.000512265 -0.00584053 0)
(9.63612e-09 -9.48623e-05 0)
(-2.59103e-07 -0.000282929 0)
(-8.7464e-07 -0.000469221 0)
(-1.81969e-06 -0.000653673 0)
(-3.0386e-06 -0.000836229 0)
(-4.47011e-06 -0.00101682 0)
(-6.05242e-06 -0.00119539 0)
(-7.72018e-06 -0.00137185 0)
(-9.40517e-06 -0.00154613 0)
(-1.10347e-05 -0.00171816 0)
(-1.25341e-05 -0.00188789 0)
(-1.3825e-05 -0.00205523 0)
(-1.4828e-05 -0.00222013 0)
(-1.54608e-05 -0.00238253 0)
(-1.56403e-05 -0.00254239 0)
(-1.52817e-05 -0.00269965 0)
(-1.42993e-05 -0.00285427 0)
(-1.26076e-05 -0.00300621 0)
(-1.01193e-05 -0.00315544 0)
(-6.74958e-06 -0.00330193 0)
(-2.41019e-06 -0.00344566 0)
(2.98086e-06 -0.00358661 0)
(9.51223e-06 -0.00372477 0)
(1.72613e-05 -0.00386013 0)
(2.63163e-05 -0.00399268 0)
(3.67481e-05 -0.00412246 0)
(4.86438e-05 -0.00424942 0)
(6.20656e-05 -0.00437365 0)
(7.70987e-05 -0.0044951 0)
(9.37949e-05 -0.00461389 0)
(0.000112236 -0.00472996 0)
(0.000132462 -0.00484347 0)
(0.00015455 -0.00495435 0)
(0.000178526 -0.00506285 0)
(0.000204461 -0.00516882 0)
(0.000232367 -0.00527264 0)
(0.000262306 -0.00537411 0)
(0.000294279 -0.00547373 0)
(0.000328331 -0.00557121 0)
(0.000364459 -0.00566727 0)
(0.000402682 -0.00576145 0)
(0.000443002 -0.00585476 0)
(0.000485457 -0.00594652 0)
(0.000530203 -0.00603811 0)
(0.000577381 -0.00612862 0)
(0.000626996 -0.00622027 0)
(0.00067779 -0.00631247 0)
(0.00072574 -0.00641091 0)
(0.000762644 -0.00652966 0)
(0.000770278 -0.00654888 0)
(-4.31046e-09 -9.82194e-05 0)
(1.75439e-07 -0.00029239 0)
(6.11758e-07 -0.000484359 0)
(1.32728e-06 -0.000674219 0)
(2.33867e-06 -0.000862052 0)
(3.66353e-06 -0.00104792 0)
(5.33438e-06 -0.00123188 0)
(7.38064e-06 -0.00141396 0)
(9.84619e-06 -0.00159418 0)
(1.27671e-05 -0.00177257 0)
(1.61956e-05 -0.00194914 0)
(2.01724e-05 -0.00212388 0)
(2.47568e-05 -0.00229681 0)
(2.99927e-05 -0.00246791 0)
(3.5945e-05 -0.00263718 0)
(4.26602e-05 -0.00280461 0)
(5.02077e-05 -0.00297019 0)
(5.86361e-05 -0.00313391 0)
(6.8018e-05 -0.00329575 0)
(7.84036e-05 -0.00345569 0)
(8.98676e-05 -0.00361372 0)
(0.000102462 -0.00376981 0)
(0.00011626 -0.00392396 0)
(0.000131317 -0.00407613 0)
(0.000147702 -0.00422631 0)
(0.000165472 -0.00437447 0)
(0.000184687 -0.0045206 0)
(0.000205407 -0.00466464 0)
(0.000227675 -0.00480662 0)
(0.000251555 -0.00494642 0)
(0.000277064 -0.00508413 0)
(0.000304265 -0.00521957 0)
(0.000333142 -0.00535289 0)
(0.000363752 -0.00548382 0)
(0.000396029 -0.00561263 0)
(0.000430018 -0.00573893 0)
(0.00046559 -0.00586315 0)
(0.000502755 -0.00598474 0)
(0.000541313 -0.00610434 0)
(0.000581265 -0.00622119 0)
(0.000622453 -0.00633623 0)
(0.000664872 -0.00644856 0)
(0.000708074 -0.00655989 0)
(0.000750776 -0.00667045 0)
(0.000788699 -0.00678591 0)
(0.000810397 -0.0069232 0)
(0.000791258 -0.00696343 0)
(0.000744559 -0.0069115 0)
(0.000701326 -0.0068753 0)
(0.000644877 -0.00671202 0)
(5.34788e-08 -9.82464e-05 0)
(4.64188e-07 -0.000292976 0)
(1.32712e-06 -0.000486043 0)
(2.67006e-06 -0.000677594 0)
(4.51414e-06 -0.000867751 0)
(6.89576e-06 -0.0010566 0)
(9.83585e-06 -0.0012442 0)
(1.33719e-05 -0.00143061 0)
(1.75161e-05 -0.00161584 0)
(2.2307e-05 -0.00179992 0)
(2.77487e-05 -0.00198285 0)
(3.38846e-05 -0.00216464 0)
(4.07122e-05 -0.00234529 0)
(4.82833e-05 -0.00252479 0)
(5.65893e-05 -0.00270315 0)
(6.56951e-05 -0.00288034 0)
(7.55867e-05 -0.00305637 0)
(8.63462e-05 -0.00323123 0)
(9.79552e-05 -0.00340492 0)
(0.000110518 -0.00357741 0)
(0.000124011 -0.00374874 0)
(0.000138566 -0.00391884 0)
(0.000154158 -0.00408775 0)
(0.000170946 -0.00425541 0)
(0.000188905 -0.00442183 0)
(0.000208225 -0.00458694 0)
(0.000228884 -0.00475071 0)
(0.000251101 -0.00491308 0)
(0.000274861 -0.00507392 0)
(0.000300409 -0.00523319 0)
(0.000327739 -0.00539062 0)
(0.000357114 -0.00554623 0)
(0.000388543 -0.00569947 0)
(0.000422292 -0.00585053 0)
(0.000458383 -0.00599839 0)
(0.000497055 -0.00614354 0)
(0.00053836 -0.00628428 0)
(0.000582616 -0.00642155 0)
(0.000630127 -0.00655266 0)
(0.000681219 -0.00667969 0)
(0.000734973 -0.00679989 0)
(0.000786004 -0.00691998 0)
(0.000817312 -0.00705022 0)
(0.00079646 -0.00706771 0)
(0.00072912 -0.00698769 0)
(0.000657204 -0.00690481 0)
(0.000535687 -0.00667382 0)
(0.000272151 -0.00626721 0)
(-1.58523e-05 -0.00600865 0)
(-0.000233796 -0.00506267 0)
(3.65496e-08 -0.000102758 0)
(6.82525e-07 -0.000307099 0)
(2.17458e-06 -0.000510252 0)
(4.57295e-06 -0.000712221 0)
(7.89278e-06 -0.000912999 0)
(1.21527e-05 -0.00111257 0)
(1.73494e-05 -0.00131093 0)
(2.34865e-05 -0.00150804 0)
(3.05424e-05 -0.00170389 0)
(3.85083e-05 -0.00189847 0)
(4.73523e-05 -0.00209177 0)
(5.70598e-05 -0.00228381 0)
(6.75975e-05 -0.00247458 0)
(7.89498e-05 -0.00266413 0)
(9.10907e-05 -0.00285247 0)
(0.000104006 -0.00303969 0)
(0.000117687 -0.00322579 0)
(0.000132121 -0.00341094 0)
(0.00014733 -0.00359514 0)
(0.000163299 -0.00377861 0)
(0.000180097 -0.00396134 0)
(0.000197702 -0.00414363 0)
(0.000216248 -0.00432544 0)
(0.000235699 -0.00450717 0)
(0.00025628 -0.00468873 0)
(0.000277922 -0.00487061 0)
(0.000300975 -0.00505264 0)
(0.000325319 -0.00523542 0)
(0.000351465 -0.00541867 0)
(0.000379218 -0.00560306 0)
(0.000409291 -0.00578823 0)
(0.000441385 -0.00597481 0)
(0.000476441 -0.00616246 0)
(0.000514031 -0.00635154 0)
(0.000555389 -0.0065419 0)
(0.000600182 -0.00673323 0)
(0.000650088 -0.00692583 0)
(0.000704319 -0.0071187 0)
(0.000760042 -0.00731626 0)
(0.000798759 -0.00752571 0)
(0.000780758 -0.00773192 0)
(0.00069361 -0.00760963 0)
(0.000568958 -0.00745379 0)
(0.000352554 -0.00711916 0)
(6.44124e-05 -0.00687807 0)
(-0.000227975 -0.00603629 0)
(-0.000756625 -0.00422533 0)
(-0.001503 0.00162227 0)
(-0.00233971 -0.00525859 0)
(-0.00453833 0.00567095 0)
(2.06704e-07 -0.000107156 0)
(2.3797e-06 -0.000321782 0)
(6.82917e-06 -0.000536327 0)
(1.34487e-05 -0.000750435 0)
(2.20886e-05 -0.00096378 0)
(3.25793e-05 -0.00117612 0)
(4.48296e-05 -0.00138721 0)
(5.86804e-05 -0.0015969 0)
(7.4063e-05 -0.00180503 0)
(9.0804e-05 -0.00201153 0)
(0.00010886 -0.00221629 0)
(0.000128043 -0.00241935 0)
(0.000148342 -0.00262065 0)
(0.000169554 -0.00282031 0)
(0.000191707 -0.00301833 0)
(0.000214578 -0.00321491 0)
(0.000238245 -0.0034101 0)
(0.00026246 -0.0036042 0)
(0.000287362 -0.00379731 0)
(0.000312676 -0.00398982 0)
(0.000338611 -0.0041819 0)
(0.000364865 -0.00437399 0)
(0.000391728 -0.0045664 0)
(0.000418876 -0.00475955 0)
(0.000446687 -0.00495395 0)
(0.000474827 -0.00514992 0)
(0.000503768 -0.00534831 0)
(0.000533191 -0.00554908 0)
(0.000563657 -0.00575374 0)
(0.000594906 -0.00596147 0)
(0.000627551 -0.00617493 0)
(0.000661427 -0.00639183 0)
(0.000697139 -0.00661679 0)
(0.000735112 -0.00684472 0)
(0.000776901 -0.00708331 0)
(0.000824482 -0.00732329 0)
(0.000871209 -0.00758147 0)
(0.000879499 -0.00785508 0)
(0.00076281 -0.0078419 0)
(0.000549324 -0.00779516 0)
(0.000218185 -0.00775569 0)
(-0.000127845 -0.00746988 0)
(-0.000235554 -0.00643055 0)
(-0.000755068 0.000233666 0)
(-0.00187201 -0.00359342 0)
(-0.0055514 0.00705018 0)
(-0.00625567 -0.0011195 0)
(-0.00591623 0.0343868 0)
(-0.00757238 0.0144226 0)
(-0.00783656 0.0115926 0)
(4.52093e-07 -0.000132951 0)
(3.93827e-06 -0.000394659 0)
(1.06856e-05 -0.000652159 0)
(2.04152e-05 -0.000905393 0)
(3.28087e-05 -0.00115437 0)
(4.75907e-05 -0.00139905 0)
(6.45423e-05 -0.0016395 0)
(8.34313e-05 -0.00187566 0)
(0.000104059 -0.0021077 0)
(0.0001262 -0.00233555 0)
(0.000149672 -0.00255945 0)
(0.000174254 -0.00277934 0)
(0.000199782 -0.00299557 0)
(0.00022604 -0.00320803 0)
(0.000252878 -0.00341726 0)
(0.000280084 -0.00362304 0)
(0.000307519 -0.00382618 0)
(0.000334975 -0.00402629 0)
(0.000362325 -0.00422455 0)
(0.000389366 -0.0044203 0)
(0.00041598 -0.00461524 0)
(0.000441976 -0.00480831 0)
(0.000467244 -0.00500194 0)
(0.000491617 -0.00519444 0)
(0.000514987 -0.00538931 0)
(0.000537236 -0.00558389 0)
(0.000558259 -0.0057832 0)
(0.00057802 -0.0059831 0)
(0.000596401 -0.00619088 0)
(0.000613416 -0.00640009 0)
(0.000628813 -0.00662134 0)
(0.000643053 -0.0068446 0)
(0.00065779 -0.00708501 0)
(0.000677383 -0.00732738 0)
(0.000696914 -0.00759662 0)
(0.000669559 -0.00788014 0)
(0.000478672 -0.00787918 0)
(0.000192925 -0.0078656 0)
(-0.00011636 -0.0073449 0)
(-0.000515921 -0.00654469 0)
(-0.000877177 0.00118 0)
(-0.00186453 -0.00439339 0)
(-0.0033778 -0.00699336 0)
(-0.00584437 0.0368818 0)
(-0.00487432 0.0292279 0)
(-0.00598615 0.0374416 0)
(-0.00690084 0.0271306 0)
(-0.00716871 0.0208207 0)
(-0.00697816 0.0153012 0)
(-0.00697982 0.0112432 0)
(1.85942e-07 -0.000151281 0)
(2.73177e-06 -0.000447511 0)
(7.93629e-06 -0.000737241 0)
(1.56289e-05 -0.0010203 0)
(2.54799e-05 -0.00129658 0)
(3.72267e-05 -0.00156599 0)
(5.05921e-05 -0.00182853 0)
(6.53703e-05 -0.00208418 0)
(8.12874e-05 -0.002333 0)
(9.81589e-05 -0.00257502 0)
(0.000115701 -0.00281037 0)
(0.00013375 -0.0030391 0)
(0.000152006 -0.00326143 0)
(0.000170326 -0.00347742 0)
(0.000188384 -0.00368737 0)
(0.000206057 -0.00389135 0)
(0.000222982 -0.00408979 0)
(0.00023906 -0.00428274 0)
(0.000253876 -0.00447081 0)
(0.000267355 -0.00465401 0)
(0.000279018 -0.00483321 0)
(0.000288815 -0.00500833 0)
(0.000296187 -0.00518066 0)
(0.000301111 -0.00534992 0)
(0.000302928 -0.00551804 0)
(0.000301655 -0.0056844 0)
(0.000296505 -0.00585187 0)
(0.000287473 -0.00601925 0)
(0.000273483 -0.00619086 0)
(0.000254652 -0.00636446 0)
(0.000231183 -0.00654651 0)
(0.000206831 -0.00673292 0)
(0.00017923 -0.00693402 0)
(0.000115781 -0.00714515 0)
(-8.4541e-05 -0.0073057 0)
(-0.000351319 -0.00749302 0)
(-0.000621052 -0.00718473 0)
(-0.00114178 -0.00626102 0)
(-0.00201535 0.00338999 0)
(-0.00281772 -0.00430473 0)
(-0.00373056 0.0145402 0)
(-0.00234648 0.0275242 0)
(-0.00456287 0.025401 0)
(-0.00410479 0.0295918 0)
(-0.0029945 0.0272374 0)
(-0.00231837 0.0246378 0)
(-0.0016195 0.0213843 0)
(-0.00110195 0.0179794 0)
(-0.000767162 0.0149707 0)
(-0.000598965 0.0123066 0)
(3.5293e-07 -0.000171823 0)
(2.09761e-06 -0.000503995 0)
(5.10054e-06 -0.000824965 0)
(9.09386e-06 -0.00113497 0)
(1.38666e-05 -0.00143424 0)
(1.92196e-05 -0.00172296 0)
(2.49967e-05 -0.00200133 0)
(3.10011e-05 -0.0022695 0)
(3.70784e-05 -0.00252767 0)
(4.30174e-05 -0.00277594 0)
(4.86669e-05 -0.00301451 0)
(5.38001e-05 -0.00324346 0)
(5.82707e-05 -0.003463 0)
(6.1832e-05 -0.00367316 0)
(6.43446e-05 -0.00387418 0)
(6.5537e-05 -0.00406605 0)
(6.52794e-05 -0.00424906 0)
(6.32679e-05 -0.00442312 0)
(5.93861e-05 -0.00458863 0)
(5.32867e-05 -0.00474537 0)
(4.48721e-05 -0.00489392 0)
(3.37348e-05 -0.00503388 0)
(1.98045e-05 -0.00516609 0)
(2.59086e-06 -0.00528985 0)
(-1.79368e-05 -0.00540643 0)
(-4.23995e-05 -0.00551468 0)
(-7.08145e-05 -0.00561651 0)
(-0.000104018 -0.00571007 0)
(-0.000141688 -0.00579824 0)
(-0.000183825 -0.00587796 0)
(-0.000229 -0.00595352 0)
(-0.000284051 -0.00602054 0)
(-0.000375542 -0.00608791 0)
(-0.000531119 -0.0061552 0)
(-0.000706161 -0.00614292 0)
(-0.000826864 -0.00590013 0)
(-0.00097954 0.00250496 0)
(-0.00123951 0.000869675 0)
(-0.000413312 0.0213644 0)
(-0.000622948 0.0107138 0)
(-0.000587617 0.00973332 0)
(7.08612e-05 0.0107096 0)
(0.00107909 0.0113471 0)
(0.00224714 0.011768 0)
(0.0034344 0.0120473 0)
(0.00451502 0.0121345 0)
(0.0054717 0.0115475 0)
(0.00630063 0.0107578 0)
(0.00700425 0.00980954 0)
(0.00760127 0.00875584 0)
(-2.52647e-07 -0.000168626 0)
(-8.17909e-07 -0.00049509 0)
(-1.52495e-06 -0.000810611 0)
(-2.30347e-06 -0.00111506 0)
(-3.2413e-06 -0.00140833 0)
(-4.4329e-06 -0.00169034 0)
(-6.04216e-06 -0.00196103 0)
(-8.18098e-06 -0.00222036 0)
(-1.10524e-05 -0.0024683 0)
(-1.47783e-05 -0.00270488 0)
(-1.96016e-05 -0.00293007 0)
(-2.56461e-05 -0.00314394 0)
(-3.31924e-05 -0.0033465 0)
(-4.2357e-05 -0.00353786 0)
(-5.34578e-05 -0.00371805 0)
(-6.65941e-05 -0.00388723 0)
(-8.21225e-05 -0.00404542 0)
(-0.000100114 -0.00419287 0)
(-0.000120967 -0.0043296 0)
(-0.000144713 -0.00445591 0)
(-0.000171795 -0.00457184 0)
(-0.000202189 -0.00467778 0)
(-0.00023639 -0.00477374 0)
(-0.000274296 -0.00486026 0)
(-0.000316473 -0.00493727 0)
(-0.000362761 -0.00500549 0)
(-0.000413848 -0.00506478 0)
(-0.000469257 -0.00511606 0)
(-0.000528723 -0.00515906 0)
(-0.0005903 -0.00519486 0)
(-0.000658752 -0.00522303 0)
(-0.000758539 -0.00524541 0)
(-0.00092315 -0.00526384 0)
(-0.00111499 -0.00530174 0)
(-0.001256 -0.00539235 0)
(-0.00179392 -0.00654672 0)
(-0.00138657 0.00100333 0)
(-0.00048153 0.000162943 0)
(0.000743829 -0.000940797 0)
(0.00226214 -0.00159046 0)
(0.0035899 -0.00182593 0)
(0.00483412 -0.00178784 0)
(0.00600591 -0.0016158 0)
(0.00710859 -0.00143678 0)
(0.00813991 -0.00132414 0)
(0.00915869 -0.00123624 0)
(0.0101246 -0.00120428 0)
(0.0109989 -0.00124884 0)
(0.0118089 -0.00138723 0)
(0.0125297 -0.00160824 0)
(5.36842e-07 -0.000172438 0)
(3.6875e-06 -0.000505132 0)
(9.29916e-06 -0.000825226 0)
(1.6913e-05 -0.00113235 0)
(2.60954e-05 -0.00142618 0)
(3.64537e-05 -0.00170645 0)
(4.76594e-05 -0.00197292 0)
(5.93503e-05 -0.0022254 0)
(7.12123e-05 -0.00246372 0)
(8.28745e-05 -0.00268773 0)
(9.40297e-05 -0.00289735 0)
(0.000104292 -0.00309247 0)
(0.000113355 -0.00327307 0)
(0.000120808 -0.00343909 0)
(0.000126338 -0.00359057 0)
(0.000129496 -0.00372746 0)
(0.000129955 -0.00384991 0)
(0.000127218 -0.00395788 0)
(0.000120933 -0.00405162 0)
(0.000110539 -0.0041311 0)
(9.56465e-05 -0.00419671 0)
(7.56195e-05 -0.0042484 0)
(5.00139e-05 -0.00428678 0)
(1.81072e-05 -0.00431175 0)
(-2.06363e-05 -0.00432422 0)
(-6.70801e-05 -0.00432398 0)
(-0.000121924 -0.00431242 0)
(-0.000185896 -0.00428908 0)
(-0.000258776 -0.0042561 0)
(-0.00034029 -0.00421264 0)
(-0.000436589 -0.0041621 0)
(-0.000575672 -0.00410246 0)
(-0.000787278 -0.00403459 0)
(-0.00103123 -0.00398869 0)
(-0.00125151 -0.00387047 0)
(-0.00149321 -0.00401355 0)
(-0.00145429 -0.0215308 0)
(-0.00089058 -0.019058 0)
(-0.000656168 -0.0267961 0)
(0.000486286 -0.0240575 0)
(0.00133467 -0.0220784 0)
(0.00247185 -0.0196343 0)
(0.00341725 -0.017325 0)
(0.00417988 -0.0154281 0)
(0.00478335 -0.0138951 0)
(0.00527984 -0.0127364 0)
(0.00571431 -0.0113757 0)
(0.00611358 -0.0102459 0)
(0.00647577 -0.00929986 0)
(0.00679994 -0.0085055 0)
(3.63091e-07 -0.00020459 0)
(4.4449e-06 -0.000593061 0)
(1.24563e-05 -0.000961009 0)
(2.39611e-05 -0.00130862 0)
(3.83388e-05 -0.00163605 0)
(5.50481e-05 -0.00194342 0)
(7.36178e-05 -0.00223083 0)
(9.36147e-05 -0.00249829 0)
(0.000114623 -0.00274588 0)
(0.000136245 -0.00297352 0)
(0.000158094 -0.00318123 0)
(0.000179793 -0.00336883 0)
(0.000200968 -0.0035363 0)
(0.000221248 -0.00368333 0)
(0.00024025 -0.00380989 0)
(0.000257592 -0.00391549 0)
(0.000272869 -0.00400008 0)
(0.000285665 -0.00406295 0)
(0.00029553 -0.0041041 0)
(0.000301997 -0.00412248 0)
(0.000304553 -0.0041182 0)
(0.000302652 -0.00408976 0)
(0.000295693 -0.00403745 0)
(0.000283026 -0.00395916 0)
(0.000263935 -0.0038555 0)
(0.000237628 -0.00372347 0)
(0.00020323 -0.00356425 0)
(0.000159746 -0.00337351 0)
(0.0001062 -0.00315341 0)
(4.17611e-05 -0.00289778 0)
(-3.42315e-05 -0.00261039 0)
(-0.000124751 -0.00228184 0)
(-0.000241157 -0.00191622 0)
(-0.00039836 -0.00155658 0)
(-0.000584965 -0.00109064 0)
(-0.000808172 -0.00117948 0)
(-0.00130928 -0.0025244 0)
(-0.00227789 -0.00237048 0)
(-0.00355913 -0.0265464 0)
(-0.00354645 -0.0208297 0)
(-0.00467003 -0.0395531 0)
(-0.00444257 -0.0275987 0)
(-0.00484338 -0.0221672 0)
(-0.00517597 -0.018031 0)
(-0.0054723 -0.0152758 0)
(-0.00567075 -0.013298 0)
(-0.0057999 -0.0118582 0)
(-0.00580468 -0.0107748 0)
(-0.00568502 -0.0099249 0)
(-0.00551508 -0.00918038 0)
(3.26694e-07 -0.000233822 0)
(1.50927e-06 -0.000672965 0)
(3.32372e-06 -0.00108445 0)
(5.54571e-06 -0.00146906 0)
(8.00682e-06 -0.00182749 0)
(1.05914e-05 -0.00216031 0)
(1.3163e-05 -0.00246802 0)
(1.562e-05 -0.00275104 0)
(1.78256e-05 -0.00300967 0)
(1.96968e-05 -0.00324418 0)
(2.11051e-05 -0.00345471 0)
(2.19949e-05 -0.00364135 0)
(2.22468e-05 -0.00380409 0)
(2.18366e-05 -0.00394286 0)
(2.06522e-05 -0.00405746 0)
(1.87038e-05 -0.00414765 0)
(1.58822e-05 -0.00421304 0)
(1.22355e-05 -0.0042532 0)
(7.65282e-06 -0.00426755 0)
(2.22361e-06 -0.00425544 0)
(-4.16952e-06 -0.00421607 0)
(-1.13901e-05 -0.00414858 0)
(-1.95655e-05 -0.00405191 0)
(-2.8505e-05 -0.00392491 0)
(-3.83466e-05 -0.00376631 0)
(-4.88364e-05 -0.00357461 0)
(-6.01163e-05 -0.0033483 0)
(-7.18542e-05 -0.00308545 0)
(-8.41705e-05 -0.00278434 0)
(-9.6668e-05 -0.00244249 0)
(-0.000109554 -0.0020581 0)
(-0.000122621 -0.00162792 0)
(-0.000135368 -0.00115011 0)
(-0.000144504 -0.000619473 0)
(-0.000141253 -3.29751e-05 0)
(-0.0001656 0.000168567 0)
(-0.000247482 0.000416357 0)
(-0.000425748 0.000850776 0)
(-0.00108284 -0.00125073 0)
(-0.00181446 0.000703458 0)
(-0.0042149 -0.0106387 0)
(-0.00510388 -0.00496896 0)
(-0.00443599 -0.0245955 0)
(-0.00803295 -0.00386487 0)
(-0.00758258 -0.00874942 0)
(-0.00752107 -0.00771728 0)
(-0.00844037 -0.00872896 0)
(-0.00851295 -0.0119073 0)
(-0.00825103 -0.0130506 0)
(-0.00795452 -0.0130946 0)
(-6.55287e-07 -0.000212377 0)
(-3.94728e-06 -0.000614128 0)
(-1.01876e-05 -0.000992714 0)
(-1.92683e-05 -0.00134803 0)
(-3.11975e-05 -0.00168009 0)
(-4.60162e-05 -0.00198897 0)
(-6.37241e-05 -0.00227481 0)
(-8.42903e-05 -0.00253777 0)
(-0.000107616 -0.00277806 0)
(-0.000133587 -0.00299584 0)
(-0.000162017 -0.00319129 0)
(-0.000192718 -0.00336458 0)
(-0.000225421 -0.00351581 0)
(-0.00025987 -0.00364506 0)
(-0.000295713 -0.00375237 0)
(-0.000332625 -0.00383771 0)
(-0.000370173 -0.00390102 0)
(-0.000407964 -0.00394215 0)
(-0.000445474 -0.00396091 0)
(-0.000482241 -0.00395701 0)
(-0.000517642 -0.00393015 0)
(-0.000551139 -0.00387988 0)
(-0.000581993 -0.00380579 0)
(-0.000609579 -0.00370727 0)
(-0.000633027 -0.00358379 0)
(-0.000651606 -0.00343459 0)
(-0.000664288 -0.00325904 0)
(-0.000670217 -0.00305623 0)
(-0.000668176 -0.00282546 0)
(-0.00065716 -0.00256566 0)
(-0.000635689 -0.00227611 0)
(-0.000602478 -0.00195559 0)
(-0.000555682 -0.0016034 0)
(-0.000494484 -0.00121822 0)
(-0.000418703 -0.000799704 0)
(-0.000330709 -0.000347071 0)
(-0.000230835 0.000145706 0)
(-0.000139854 0.000533794 0)
(-9.86294e-05 0.000651644 0)
(-7.61834e-05 0.00109044 0)
(-0.000176435 0.00165495 0)
(-0.000692352 0.00134753 0)
(-0.00120527 0.00138923 0)
(-0.00196306 0.0062598 0)
(-0.00293484 0.00110553 0)
(-0.00275345 0.00359301 0)
(-0.00417951 0.00128476 0)
(0.000392771 -0.0193447 0)
(-0.00592112 -0.0181097 0)
(-0.00426498 -0.0161659 0)
(9.29465e-07 -0.000205855 0)
(2.65182e-06 -0.000580737 0)
(2.51812e-06 -0.000923836 0)
(-9.32304e-07 -0.00123724 0)
(-8.65162e-06 -0.00152285 0)
(-2.12251e-05 -0.00178239 0)
(-3.90025e-05 -0.00201749 0)
(-6.21417e-05 -0.00222961 0)
(-9.06516e-05 -0.00242014 0)
(-0.000124399 -0.00259032 0)
(-0.000163152 -0.00274132 0)
(-0.000206574 -0.00287416 0)
(-0.000254271 -0.0029898 0)
(-0.000305762 -0.00308905 0)
(-0.000360539 -0.00317272 0)
(-0.000418021 -0.00324142 0)
(-0.000477619 -0.00329582 0)
(-0.000538674 -0.00333638 0)
(-0.00060054 -0.00336364 0)
(-0.000662497 -0.0033779 0)
(-0.000723857 -0.00337968 0)
(-0.000783848 -0.00336912 0)
(-0.000841752 -0.00334671 0)
(-0.000896754 -0.00331249 0)
(-0.000948116 -0.003267 0)
(-0.000994989 -0.00321017 0)
(-0.00103663 -0.00314267 0)
(-0.00107216 -0.00306432 0)
(-0.00110086 -0.00297605 0)
(-0.00112185 -0.00287758 0)
(-0.00113445 -0.00277021 0)
(-0.00113782 -0.00265357 0)
(-0.00113135 -0.00252954 0)
(-0.00111425 -0.00239765 0)
(-0.00108592 -0.00226056 0)
(-0.00104597 -0.00211752 0)
(-0.000995632 -0.00197197 0)
(-0.000938691 -0.00182288 0)
(-0.000880099 -0.00166925 0)
(-0.000815783 -0.00148941 0)
(-0.000741866 -0.00137305 0)
(-0.00068597 -0.00151424 0)
(-0.000651989 -0.00165638 0)
(-0.000547848 -0.00187344 0)
(-0.000334836 -0.00177852 0)
(-0.000320561 -0.00271192 0)
(-0.000384382 -0.00144478 0)
(-0.000367118 -0.00195694 0)
(0.000190385 0.0101284 0)
(-0.0079071 0.00648021 0)
(6.92402e-05 -0.000220055 0)
(0.000195755 -0.000592577 0)
(0.000291319 -0.000905425 0)
(0.000360476 -0.00116833 0)
(0.000407645 -0.0013893 0)
(0.000436007 -0.00157495 0)
(0.000447854 -0.00173077 0)
(0.000445154 -0.00186138 0)
(0.000429694 -0.00197065 0)
(0.000403091 -0.00206181 0)
(0.000366796 -0.00213755 0)
(0.000322121 -0.00220014 0)
(0.000270252 -0.00225144 0)
(0.000212276 -0.00229301 0)
(0.000149186 -0.00232611 0)
(8.19104e-05 -0.00235179 0)
(1.13028e-05 -0.00237087 0)
(-6.18215e-05 -0.00238404 0)
(-0.000136704 -0.00239174 0)
(-0.000212604 -0.00239436 0)
(-0.000288825 -0.00239209 0)
(-0.000364674 -0.00238504 0)
(-0.000439484 -0.00237311 0)
(-0.000512582 -0.00235621 0)
(-0.000583308 -0.00233393 0)
(-0.00065099 -0.00230592 0)
(-0.000714946 -0.00227144 0)
(-0.000774484 -0.00222983 0)
(-0.000828872 -0.00217992 0)
(-0.000877377 -0.00212064 0)
(-0.000919185 -0.00205022 0)
(-0.000953503 -0.00196706 0)
(-0.000979381 -0.00186853 0)
(-0.000995943 -0.00175228 0)
(-0.00100204 -0.00161447 0)
(-0.000996691 -0.00145166 0)
(-0.000978411 -0.00125827 0)
(-0.000945898 -0.00102911 0)
(-0.000897024 -0.000755772 0)
(-0.000830495 -0.000430356 0)
(-0.000745109 -4.14589e-05 0)
(-0.000642718 0.000422718 0)
(-0.00052461 0.000986659 0)
(-0.000399435 0.00162577 0)
(-0.000246832 0.00262553 0)
(-8.59393e-05 0.0035222 0)
(0.00013374 0.00480471 0)
(0.000387469 0.00579617 0)
(0.000751566 0.00739718 0)
(0.00118185 0.00987001 0)
(0.00119437 -0.00321184 0)
(0.00128753 -0.00335863 0)
(0.0013599 -0.00346658 0)
(0.00140535 -0.00349948 0)
(0.00143251 -0.00345131 0)
(0.00144606 -0.00333851 0)
(0.00145139 -0.00321095 0)
(0.00145483 -0.00311737 0)
(0.00148279 -0.00304988 0)
(0.00152809 -0.00307178 0)
(0.00153055 -0.00337672 0)
(0.00151513 -0.00364036 0)
(0.0015851 -0.00429524 0)
(0.00170099 -0.00556459 0)
(0.00175469 -0.00836456 0)
(0.00179527 -0.00827847 0)
(0.00187067 -0.00872303 0)
(0.00196855 -0.00820948 0)
(0.00211785 -0.00771305 0)
(0.00230432 -0.00734843 0)
(0.00251224 -0.00711971 0)
(0.0027195 -0.00700254 0)
(0.00294176 -0.00698872 0)
(0.00320205 -0.00716039 0)
(0.00348699 -0.00767827 0)
(0.00378778 -0.0084508 0)
(0.00410187 -0.00951405 0)
(0.00441367 -0.0110588 0)
(0.00466977 -0.0133772 0)
(0.00497248 -0.0115735 0)
(0.0053361 -0.013567 0)
(0.00563654 -0.0154838 0)
(0.00588349 -0.0175191 0)
(0.0061121 -0.0168116 0)
(0.00643158 -0.0136222 0)
(0.00687231 -0.0108621 0)
(0.00740901 -0.00864565 0)