/*--------------------------------*- C++ -*----------------------------------*\
| =========                 |                                                 |
| \\      /  F ield         | OpenFOAM: The Open Source CFD Toolbox           |
|  \\    /   O peration     | Version:  2.4.0                                 |
|   \\  /    A nd           | Web:      www.OpenFOAM.org                      |
|    \\/     M anipulation  |                                                 |
\*---------------------------------------------------------------------------*/
FoamFile
{
    version     2.0;
    format      ascii;
    class       volScalarField;
    location    "3.2";
    object      H;
}
// * * * * * * * * * * * * * * * * * * * * * * * * * * * * * * * * * * * * * //

dimensions      [0 2 -2 0 0 0 0];

internalField   nonuniform List<scalar> 
8000
(
-12020
-11600.3
-11181
-10762.6
-10345.2
-9929.13
-9514.65
-9101.93
-8691.11
-8282.3
-7875.57
-7470.95
-7068.42
-6667.94
-6269.42
-5872.75
-5477.75
-5084.26
-4692.02
-4300.8
-3910.31
-3520.25
-3130.34
-2740.36
-2350.17
-1959.81
-1569.49
-1179.71
-791.253
-405.216
-4.05443
-3.16162
-3.0425
-3.05916
-3.07358
-3.08529
-3.09387
-3.09895
-3.10022
-3.09742
-3.09037
-3.07893
-3.06303
-3.04266
-3.01786
-2.98875
-2.95547
-2.91823
-2.87727
-2.83286
-12021.1
-11603.4
-11186.1
-10769.7
-10354.3
-9940.12
-9527.42
-9116.32
-8706.95
-8299.36
-7893.6
-7489.66
-7087.5
-6687.06
-6288.26
-5890.98
-5495.1
-5100.48
-4706.96
-4314.38
-3922.56
-3531.34
-3140.55
-2750.07
-2359.8
-1969.75
-1580
-1190.82
-802.685
-416.387
-4.36787
-3.27161
-3.26709
-3.27721
-3.2853
-3.29039
-3.29169
-3.28854
-3.28044
-3.26701
-3.24802
-3.22335
-3.19303
-3.15717
-3.11598
-3.06976
-3.01885
-2.96365
-2.9046
-2.84216
-12022.3
-11607
-11192.1
-10778
-10364.9
-9952.93
-9542.3
-9133.1
-8725.4
-8319.24
-7914.61
-7511.48
-7109.81
-6709.53
-6310.57
-5912.84
-5516.27
-5120.78
-4726.3
-4332.76
-3940.11
-3548.28
-3157.2
-2766.79
-2376.96
-1987.61
-1598.62
-1209.89
-821.379
-433.181
-4.76383
-3.56022
-3.57551
-3.5882
-3.59402
-3.59223
-3.58233
-3.56413
-3.53758
-3.50286
-3.46025
-3.4102
-3.35321
-3.28987
-3.22084
-3.14678
-3.0684
-2.98635
-2.90135
-2.81407
-12023
-11609.2
-11195.8
-10783.1
-10371.4
-9960.71
-9551.23
-9143.01
-8736.09
-8330.46
-7926.07
-7522.88
-7120.82
-6719.83
-6319.86
-5920.84
-5522.77
-5125.64
-4729.48
-4334.33
-3940.25
-3547.31
-3155.59
-2765.14
-2376.01
-1988.22
-1601.77
-1216.63
-832.708
-449.665
-5.6619
-4.21663
-4.19392
-4.16276
-4.12114
-4.06847
-4.00487
-3.93103
-3.84792
-3.75665
-3.6584
-3.55435
-3.44564
-3.33334
-3.21844
-3.10182
-2.98436
-2.86658
-2.7493
-2.63321
-12023.7
-11611.3
-11199.4
-10788.2
-10377.8
-9968.44
-9560.06
-9152.7
-8746.34
-8340.91
-7936.33
-7532.52
-7129.4
-6726.92
-6325.03
-5923.74
-5523.09
-5123.15
-4724.05
-4325.95
-3929.05
-3533.55
-3139.69
-2747.73
-2357.91
-1970.54
-1586.12
-1205.54
-830.293
-462.694
-7.23613
-5.33685
-5.17912
-5.00903
-4.82771
-4.63794
-4.44297
-4.24614
-4.05018
-3.85712
-3.66846
-3.48519
-3.30796
-3.13713
-2.97285
-2.81511
-2.66382
-2.51881
-2.38002
-2.24749
-12024.3
-11613.1
-11202.2
-10791.8
-10381.9
-9972.7
-9564.06
-9155.94
-8748.25
-8340.87
-7933.71
-7526.65
-7119.64
-6712.63
-6305.63
-5898.71
-5491.98
-5085.61
-4679.84
-4274.92
-3871.13
-3468.83
-3068.31
-2669.83
-2273.55
-1879.67
-1488.8
-1102.43
-721.677
-338.726
-10.6256
-7.46811
-6.7336
-6.07495
-5.4926
-4.98156
-4.53463
-4.1438
-3.80117
-3.49938
-3.23194
-2.99326
-2.77874
-2.58459
-2.40773
-2.2456
-2.0962
-1.95802
-1.82977
-1.71062
-12024.4
-11613.1
-11201.8
-10790.6
-10379.5
-9968.29
-9556.97
-9145.41
-8733.46
-8320.99
-7907.87
-7494.01
-7079.38
-6663.97
-6247.86
-5831.21
-5414.2
-4997.12
-4580.28
-4164.03
-3748.68
-3334.52
-2921.66
-2509.83
-2098.22
-1685.29
-1269.18
-849.327
-429.883
-4.40479
-3.80783
-3.2523
-3.18878
-3.10112
-2.99448
-2.87385
-2.7438
-2.60822
-2.47039
-2.33287
-2.19771
-2.06635
-1.93992
-1.81917
-1.70453
-1.5962
-1.4943
-1.39882
-1.30959
-1.22652
-12023.7
-11610.9
-11198
-10784.7
-10370.8
-9956.21
-9540.67
-9123.96
-8705.89
-8286.25
-7864.91
-7441.79
-7016.87
-6590.25
-6162.08
-5732.62
-5302.19
-4871.24
-4440.26
-4009.7
-3579.99
-3151.54
-2724.75
-2300.14
-1878.67
-1461.98
-1051.79
-646.198
-227.266
-4.60484
-3.41607
-3.24371
-3.06715
-2.87882
-2.68866
-2.5028
-2.3249
-2.15703
-2.00022
-1.8548
-1.72076
-1.59767
-1.48502
-1.38207
-1.28824
-1.20273
-1.12492
-1.05408
-0.989533
-0.930784
-12022.3
-11606.5
-11190
-10772.4
-10353.3
-9932.26
-9508.94
-9083
-8654.16
-8222.2
-7786.98
-7348.5
-6906.87
-6462.34
-6015.28
-5566.2
-5115.72
-4664.53
-4213.37
-3762.95
-3313.94
-2866.85
-2422.03
-1979.86
-1541.07
-1107.13
-679.427
-258.038
-3.37509
-3.04416
-2.4591
-2.35173
-2.23082
-2.10319
-1.97381
-1.84622
-1.72288
-1.60546
-1.49515
-1.39253
-1.29803
-1.21153
-1.1329
-1.06173
-0.997475
-0.939554
-0.887367
-0.840217
-0.797526
-0.758795
-12019.1
-11596.6
-11172.5
-10745.8
-10315.9
-9882.2
-9444.13
-9001.29
-8553.38
-8100.25
-7641.89
-7178.47
-6710.36
-6238.08
-5762.36
-5284.06
-4804.17
-4323.73
-3843.82
-3365.46
-2889.57
-2416.93
-1948.13
-1483.49
-1022.16
-555.607
-41.178
-0.63844
-1.12672
-1.19531
-1.34
-1.40989
-1.42442
-1.40371
-1.36149
-1.30705
-1.24655
-1.18397
-1.12226
-1.06302
-1.00738
-0.955809
-0.908471
-0.865282
-0.825992
-0.790225
-0.757622
-0.727684
-0.700064
-0.674403
-12013.5
-11579.6
-11143
-10702.4
-10256.6
-9804.73
-9346.22
-8880.56
-8407.45
-7926.84
-7438.89
-6944.02
-6442.88
-5936.36
-5425.56
-4911.77
-4396.39
-3880.89
-3366.74
-2855.34
-2347.93
-1845.42
-1348.15
-856.754
-380.231
-3.77413
-0.0906139
-0.209154
-0.329803
-0.453579
-0.558339
-0.642185
-0.706773
-0.754226
-0.786888
-0.807113
-0.817147
-0.818987
-0.814751
-0.805975
-0.793981
-0.779813
-0.764242
-0.747812
-0.73087
-0.713627
-0.696196
-0.678571
-0.660814
-0.642909
-12005.8
-11556.2
-11102.8
-10644
-10178
-9703.78
-9220.44
-8727.38
-8224.29
-7711.18
-7188.38
-6656.56
-6116.69
-5570.07
-5018.24
-4462.99
-3906.21
-3349.89
-2795.93
-2246.25
-1703.13
-1169.28
-643.935
-103.531
-1.37783
-1.60361
-1.26538
-1.11409
-1.00956
-0.915716
-0.840061
-0.784976
-0.748966
-0.728478
-0.719443
-0.717903
-0.720527
-0.724842
-0.729239
-0.732545
-0.734044
-0.733447
-0.730575
-0.725413
-0.718012
-0.70847
-0.696925
-0.683515
-0.668442
-0.651902
-11995.7
-11525.3
-11050
-10567.3
-10075.1
-9572.04
-9056.84
-8528.78
-7987.56
-7433.3
-6866.6
-6288.5
-5700.51
-5104.52
-4502.79
-3897.84
-3292.41
-2689.09
-2090.04
-1497.34
-917.007
-359.636
-3.71458
-0.115963
-0.186982
-0.263976
-0.34534
-0.41651
-0.47843
-0.532259
-0.579111
-0.619942
-0.655545
-0.686515
-0.713297
-0.736231
-0.755423
-0.770926
-0.782979
-0.791531
-0.796552
-0.798085
-0.796126
-0.790752
-0.782078
-0.770271
-0.755549
-0.738181
-0.718481
-0.696793
-11982.4
-11485.2
-10981.7
-10468.8
-9943.88
-9404.83
-8850.19
-8279.06
-7691.16
-7086.83
-6467.04
-5833.37
-5188.01
-4533.64
-3873.49
-3211.17
-2550.65
-1894.91
-1242.88
-588.407
-5.53362
-0.137334
-0.250083
-0.331362
-0.435269
-0.523051
-0.594274
-0.650317
-0.694539
-0.73048
-0.761282
-0.789053
-0.815146
-0.839962
-0.863326
-0.884683
-0.903323
-0.918466
-0.929563
-0.936186
-0.938036
-0.935011
-0.927088
-0.914479
-0.897475
-0.876458
-0.851876
-0.82423
-0.794057
-0.761919
-11964.7
-11431.5
-10890.8
-10338.5
-9771.28
-9186.54
-8582.5
-7958.06
-7313.14
-6648.53
-5965.67
-5266.84
-4555.09
-3834.19
-3108.6
-2383.79
-1667.12
-968.1
-291.207
-3.84392
-2.79386
-1.62171
-1.15087
-0.919015
-0.83824
-0.841166
-0.884611
-0.943086
-1.0034
-1.05947
-1.10878
-1.15028
-1.18381
-1.20947
-1.22745
-1.23801
-1.24142
-1.23788
-1.22779
-1.21155
-1.18958
-1.16237
-1.13036
-1.09407
-1.05415
-1.01121
-0.965903
-0.918885
-0.870808
-0.822309
-11942.5
-11364.5
-10778.1
-10178.6
-9562.27
-8926.22
-8268.59
-7588.47
-6885.99
-6162.31
-5419.62
-4661.1
-3890.76
-3112.8
-2330.03
-1542.66
-755.711
-7.24689
-0.290587
-0.584316
-0.920873
-1.21614
-1.46231
-1.66055
-1.81452
-1.92856
-2.00796
-2.05778
-2.08267
-2.0869
-2.07409
-2.04749
-2.00981
-1.9633
-1.90968
-1.85042
-1.78668
-1.71918
-1.64879
-1.57615
-1.5018
-1.42624
-1.35
-1.2735
-1.19735
-1.12204
-1.04809
-0.976012
-0.906272
-0.839314
-11915.2
-11282.4
-10641
-9986.22
-9314.41
-8623.06
-7910.81
-7177.48
-6424.01
-5652.5
-4866.13
-4069.13
-3266.56
-2463.49
-1662.91
-862.306
-8.89402
-7.89714
-5.93659
-5.30554
-4.85199
-4.51926
-4.26638
-4.06721
-3.90625
-3.76935
-3.64185
-3.51622
-3.3869
-3.25177
-3.11049
-2.96365
-2.81279
-2.65972
-2.50628
-2.35406
-2.20448
-2.05835
-1.91672
-1.78012
-1.64899
-1.52369
-1.4044
-1.29138
-1.18471
-1.08449
-0.990742
-0.903445
-0.822539
-0.747943
-11883.4
-11188
-10486.1
-9774.57
-9051.25
-8315.15
-7566.5
-6806.68
-6038.22
-5265
-4492.63
-3729.1
-2984.74
-2270
-1588.32
-920.953
-17.4676
-14.7481
-11.8735
-10.2516
-9.24612
-8.39174
-7.6508
-6.99323
-6.4009
-5.86003
-5.36367
-4.90598
-4.4791
-4.08296
-3.71709
-3.37988
-3.06996
-2.78585
-2.52635
-2.28984
-2.07442
-1.87845
-1.70027
-1.53829
-1.39109
-1.25731
-1.13582
-1.02557
-0.925642
-0.835211
-0.753543
-0.679969
-0.613885
-0.554729
-11854
-11102.3
-10351
-9600.17
-8850.2
-8102.14
-7357.67
-6618.88
-5887.97
-5166.86
-4456.93
-3758.92
-3072.78
-2395.77
-1718.71
-1037.08
-425.555
-8.51795
-6.24441
-5.65832
-4.82632
-4.35537
-4.05922
-3.78755
-3.52409
-3.27392
-3.04056
-2.82633
-2.62731
-2.43697
-2.25341
-2.07658
-1.90723
-1.74669
-1.59608
-1.45575
-1.32533
-1.20506
-1.09454
-0.993236
-0.90059
-0.81605
-0.739086
-0.669189
-0.605882
-0.548716
-0.497267
-0.451135
-0.40994
-0.373322
-11825.9
-11018.8
-10215.6
-9418.98
-8631.82
-7856.88
-7096.94
-6354.83
-5633.26
-4934.79
-4261.76
-3616.34
-3000.53
-2416.24
-1865.69
-1352.63
-883.459
-453.908
-5.82029
-13.3541
-6.47727
-3.96692
-2.96739
-2.40059
-1.99606
-1.69768
-1.47761
-1.31019
-1.17674
-1.06521
-0.971504
-0.894583
-0.832552
-0.781195
-0.735697
-0.692231
-0.649187
-0.606524
-0.564704
-0.524223
-0.485584
-0.449039
-0.414735
-0.382768
-0.353186
-0.325999
-0.301189
-0.278709
-0.258493
-0.240456
-2.78529
-2.73489
-2.68197
-2.62687
-2.56991
-2.5114
-2.4517
-2.39091
-2.3295
-2.26771
-2.2058
-2.14394
-2.08244
-2.02144
-1.96114
-1.90174
-1.84319
-1.78562
-1.72924
-1.67423
-1.62047
-1.5681
-1.51719
-1.46775
-1.41981
-1.3734
-1.32854
-1.28527
-1.2436
-1.20362
-1.16533
-1.12865
-1.09363
-1.06024
-1.02852
-0.998333
-0.969615
-0.942301
-0.916348
-0.8917
-0.868314
-0.846113
-0.825082
-0.805185
-0.78635
-0.768557
-0.751768
-0.735963
-0.721099
-0.707183
-2.7768
-2.70897
-2.63916
-2.56782
-2.49538
-2.42224
-2.3489
-2.27536
-2.20198
-2.12925
-2.05729
-1.98642
-1.91681
-1.84865
-1.78209
-1.71728
-1.65441
-1.59341
-1.53441
-1.47741
-1.42255
-1.36976
-1.31902
-1.27033
-1.22368
-1.17907
-1.13648
-1.09589
-1.05729
-1.02065
-0.98598
-0.953381
-0.922563
-0.893605
-0.866454
-0.840995
-0.817132
-0.794783
-0.773863
-0.754297
-0.736027
-0.718932
-0.702961
-0.688068
-0.674178
-0.661219
-0.649136
-0.637895
-0.627366
-0.617566
-2.72525
-2.63504
-2.54439
-2.45369
-2.36344
-2.27403
-2.18604
-2.09962
-2.01489
-1.93212
-1.85168
-1.77361
-1.69803
-1.62504
-1.55476
-1.48725
-1.42262
-1.361
-1.30223
-1.24632
-1.19326
-1.14302
-1.0955
-1.05064
-1.00839
-0.968677
-0.931427
-0.896569
-0.864027
-0.833723
-0.805577
-0.779526
-0.755458
-0.733268
-0.712887
-0.694191
-0.677069
-0.66141
-0.647104
-0.634041
-0.622133
-0.611238
-0.601291
-0.592213
-0.583916
-0.576308
-0.569339
-0.562828
-0.556775
-0.551146
-2.5188
-2.40626
-2.29622
-2.18897
-2.0848
-1.98398
-1.88685
-1.79363
-1.70414
-1.61857
-1.53704
-1.45947
-1.38582
-1.31608
-1.25019
-1.1881
-1.12977
-1.07512
-1.02398
-0.976344
-0.93206
-0.89099
-0.852997
-0.817947
-0.785704
-0.756134
-0.729101
-0.704472
-0.682111
-0.661884
-0.643657
-0.627296
-0.61267
-0.599644
-0.588097
-0.577872
-0.568868
-0.56096
-0.554027
-0.547949
-0.542609
-0.537902
-0.533759
-0.53009
-0.526799
-0.523791
-0.520986
-0.518295
-0.515714
-0.51318
-2.12114
-2.00066
-1.88618
-1.77754
-1.67466
-1.57744
-1.48586
-1.39967
-1.31883
-1.24321
-1.17264
-1.10695
-1.04595
-0.989459
-0.937285
-0.889245
-0.845116
-0.804721
-0.767864
-0.734349
-0.703988
-0.676593
-0.65198
-0.629969
-0.610385
-0.59306
-0.577829
-0.564535
-0.553021
-0.543139
-0.534741
-0.527687
-0.521836
-0.517057
-0.513217
-0.510203
-0.507864
-0.506113
-0.504837
-0.503938
-0.503325
-0.502929
-0.502675
-0.502433
-0.50217
-0.501807
-0.501304
-0.500647
-0.499765
-0.498617
-1.59969
-1.49654
-1.40062
-1.31152
-1.22886
-1.15235
-1.08161
-1.01643
-0.956502
-0.901544
-0.85128
-0.805439
-0.763751
-0.725962
-0.691819
-0.661088
-0.633546
-0.608977
-0.58718
-0.567963
-0.55114
-0.536539
-0.523992
-0.513338
-0.504425
-0.497105
-0.491236
-0.486678
-0.483297
-0.480962
-0.479547
-0.478927
-0.478985
-0.479608
-0.480701
-0.482161
-0.4838
-0.485648
-0.487579
-0.48952
-0.491418
-0.493242
-0.494832
-0.496128
-0.497175
-0.497942
-0.498377
-0.49845
-0.498143
-0.49744
-1.14938
-1.07793
-1.01192
-0.951087
-0.895163
-0.843875
-0.796968
-0.754175
-0.715245
-0.679935
-0.648013
-0.619257
-0.593462
-0.570434
-0.549993
-0.531967
-0.516199
-0.502539
-0.490845
-0.480982
-0.472818
-0.466229
-0.461091
-0.457283
-0.454689
-0.45319
-0.452673
-0.453024
-0.454134
-0.455892
-0.458195
-0.460939
-0.464026
-0.467364
-0.470891
-0.474484
-0.478022
-0.481547
-0.484946
-0.488168
-0.491204
-0.493971
-0.496375
-0.498362
-0.500068
-0.501384
-0.502298
-0.502796
-0.502873
-0.502523
-0.877245
-0.828434
-0.783917
-0.743304
-0.706252
-0.672463
-0.641673
-0.613656
-0.588214
-0.565176
-0.544394
-0.525736
-0.509087
-0.494341
-0.481402
-0.470181
-0.46059
-0.452544
-0.445961
-0.440754
-0.436839
-0.434128
-0.432532
-0.431959
-0.432318
-0.433514
-0.435453
-0.438043
-0.441189
-0.444801
-0.44879
-0.453069
-0.457556
-0.462171
-0.466864
-0.471545
-0.476085
-0.480543
-0.484814
-0.488857
-0.49264
-0.49615
-0.499286
-0.501954
-0.504321
-0.506285
-0.507835
-0.508963
-0.509664
-0.509935
-0.723506
-0.69124
-0.661636
-0.634395
-0.609273
-0.586075
-0.564653
-0.544894
-0.526712
-0.510049
-0.494861
-0.481115
-0.468786
-0.457849
-0.448282
-0.440057
-0.433141
-0.427496
-0.423077
-0.41983
-0.417698
-0.416613
-0.416505
-0.417298
-0.418912
-0.421266
-0.424276
-0.427859
-0.431932
-0.436414
-0.441225
-0.44629
-0.451537
-0.456896
-0.462304
-0.467723
-0.473004
-0.478196
-0.48321
-0.488008
-0.492548
-0.496801
-0.500759
-0.50426
-0.507436
-0.510218
-0.512592
-0.514551
-0.516072
-0.517164
-0.650385
-0.627765
-0.606355
-0.586021
-0.56668
-0.548289
-0.53084
-0.514351
-0.498857
-0.484405
-0.471044
-0.458825
-0.447791
-0.437977
-0.429407
-0.422092
-0.416029
-0.4112
-0.407577
-0.405116
-0.403765
-0.403459
-0.404128
-0.405695
-0.408077
-0.41119
-0.414947
-0.419263
-0.424053
-0.429235
-0.434729
-0.440461
-0.446358
-0.452353
-0.458388
-0.464408
-0.470326
-0.476118
-0.481744
-0.487155
-0.492313
-0.497187
-0.501755
-0.50596
-0.509808
-0.513285
-0.516386
-0.519062
-0.521309
-0.523163
-0.624878
-0.606761
-0.588624
-0.570559
-0.552684
-0.535131
-0.518047
-0.50158
-0.485878
-0.471079
-0.45731
-0.444682
-0.433284
-0.423183
-0.414428
-0.407041
-0.401025
-0.396362
-0.393017
-0.390938
-0.39006
-0.390306
-0.391591
-0.393824
-0.396908
-0.400746
-0.405241
-0.410295
-0.415816
-0.421713
-0.4279
-0.4343
-0.440836
-0.44744
-0.454071
-0.460644
-0.467088
-0.473405
-0.479545
-0.485462
-0.491131
-0.496518
-0.501597
-0.506357
-0.51078
-0.514874
-0.5186
-0.521886
-0.524821
-0.527382
-0.634136
-0.615393
-0.595942
-0.576062
-0.556035
-0.536139
-0.516639
-0.497785
-0.479803
-0.462893
-0.447223
-0.43293
-0.420118
-0.408857
-0.399188
-0.391122
-0.384642
-0.379711
-0.376269
-0.374242
-0.373539
-0.374063
-0.375708
-0.378365
-0.381921
-0.386265
-0.391288
-0.396885
-0.402955
-0.409403
-0.416142
-0.42309
-0.430173
-0.437325
-0.444501
-0.451629
-0.458628
-0.46553
-0.472272
-0.478803
-0.485098
-0.491151
-0.49693
-0.502416
-0.507604
-0.512486
-0.517012
-0.521135
-0.524945
-0.528399
-0.673528
-0.649076
-0.623859
-0.598283
-0.572745
-0.547614
-0.523231
-0.499896
-0.477868
-0.457361
-0.438543
-0.421538
-0.406425
-0.393245
-0.382002
-0.372669
-0.36519
-0.35949
-0.355472
-0.35303
-0.352045
-0.352394
-0.353951
-0.356591
-0.360188
-0.364625
-0.369785
-0.375562
-0.381855
-0.38857
-0.395623
-0.402934
-0.410435
-0.418062
-0.425764
-0.433484
-0.44116
-0.448781
-0.456302
-0.463686
-0.470886
-0.477903
-0.484698
-0.491248
-0.497539
-0.503562
-0.509269
-0.514597
-0.51964
-0.524342
-0.72838
-0.694045
-0.65949
-0.625218
-0.591696
-0.559342
-0.528516
-0.499513
-0.472564
-0.447842
-0.425459
-0.405477
-0.387907
-0.372722
-0.35986
-0.349228
-0.340716
-0.334194
-0.329523
-0.326557
-0.325149
-0.325153
-0.326426
-0.32883
-0.332236
-0.336522
-0.341576
-0.347292
-0.353578
-0.360345
-0.367517
-0.375023
-0.3828
-0.39079
-0.39894
-0.407202
-0.415532
-0.423889
-0.432234
-0.44053
-0.448749
-0.456845
-0.464797
-0.472573
-0.480144
-0.4875
-0.494612
-0.501402
-0.507912
-0.514109
-0.773997
-0.726443
-0.680167
-0.635628
-0.59322
-0.553382
-0.51637
-0.482348
-0.451411
-0.423593
-0.398872
-0.377181
-0.358414
-0.342436
-0.32909
-0.318202
-0.309592
-0.303074
-0.298466
-0.295588
-0.294268
-0.294346
-0.295669
-0.298098
-0.301505
-0.305775
-0.310803
-0.316496
-0.322769
-0.329548
-0.336767
-0.344365
-0.352288
-0.360487
-0.368917
-0.377536
-0.386305
-0.395184
-0.404139
-0.413132
-0.422131
-0.431106
-0.44001
-0.448824
-0.457516
-0.466053
-0.47441
-0.482573
-0.490488
-0.498131
-0.775536
-0.715272
-0.658791
-0.606289
-0.557888
-0.513666
-0.473736
-0.438001
-0.40632
-0.37851
-0.354363
-0.333648
-0.316121
-0.301532
-0.289631
-0.280175
-0.272927
-0.267665
-0.26418
-0.262279
-0.261786
-0.262541
-0.264401
-0.267238
-0.27094
-0.275407
-0.280552
-0.286299
-0.292582
-0.299343
-0.306531
-0.314099
-0.322008
-0.330219
-0.338698
-0.347413
-0.356333
-0.365426
-0.374664
-0.384016
-0.393454
-0.402945
-0.412468
-0.421976
-0.431458
-0.440877
-0.450209
-0.459424
-0.46851
-0.477412
-0.679727
-0.617713
-0.561671
-0.511343
-0.466445
-0.426669
-0.391693
-0.361186
-0.334809
-0.312225
-0.293104
-0.277125
-0.263982
-0.253385
-0.245064
-0.238768
-0.234269
-0.23136
-0.229853
-0.229585
-0.230408
-0.232195
-0.234835
-0.238232
-0.242304
-0.24698
-0.252202
-0.257919
-0.264088
-0.270673
-0.277642
-0.284967
-0.292624
-0.300591
-0.308845
-0.317368
-0.326139
-0.335137
-0.344342
-0.353732
-0.363288
-0.37298
-0.382791
-0.392694
-0.402669
-0.412676
-0.422702
-0.432715
-0.442689
-0.452618
-0.501981
-0.455154
-0.413786
-0.377437
-0.345693
-0.318154
-0.294445
-0.274207
-0.257105
-0.242822
-0.231063
-0.221556
-0.214049
-0.208313
-0.204141
-0.201347
-0.199766
-0.199249
-0.199671
-0.200919
-0.202898
-0.205528
-0.20874
-0.212477
-0.216693
-0.22135
-0.226416
-0.231868
-0.237685
-0.243853
-0.250359
-0.257193
-0.264346
-0.27181
-0.279579
-0.287643
-0.295994
-0.304623
-0.313519
-0.322668
-0.332058
-0.341672
-0.351493
-0.361495
-0.371664
-0.381973
-0.392397
-0.402909
-0.413482
-0.424089
-0.340936
-0.312451
-0.287553
-0.26594
-0.247324
-0.231432
-0.218005
-0.206798
-0.197583
-0.190146
-0.184291
-0.179836
-0.176616
-0.174484
-0.173304
-0.172961
-0.17335
-0.174381
-0.175978
-0.178076
-0.180622
-0.18357
-0.186886
-0.190543
-0.194521
-0.198804
-0.203385
-0.208256
-0.213418
-0.218869
-0.224612
-0.230652
-0.236992
-0.243637
-0.250591
-0.257857
-0.265437
-0.273332
-0.281539
-0.290056
-0.298877
-0.307994
-0.317395
-0.327068
-0.336997
-0.347161
-0.357539
-0.368108
-0.378841
-0.389709
-0.224498
-0.210509
-0.19837
-0.187956
-0.179139
-0.171789
-0.16578
-0.160984
-0.157281
-0.154554
-0.152695
-0.151601
-0.15118
-0.151345
-0.152022
-0.153142
-0.154649
-0.156491
-0.158627
-0.161024
-0.163654
-0.166498
-0.169543
-0.172779
-0.176203
-0.179815
-0.18362
-0.187626
-0.191841
-0.196277
-0.200947
-0.205865
-0.211046
-0.216502
-0.222248
-0.228297
-0.234659
-0.241345
-0.248362
-0.255718
-0.263415
-0.271454
-0.279835
-0.28855
-0.297595
-0.306958
-0.316626
-0.326583
-0.33681
-0.347286
-0.697255
-0.690074
-0.683085
-0.676312
-0.669661
-0.66317
-0.656868
-0.650739
-0.644768
-0.638951
-0.633282
-0.627753
-0.62236
-0.617096
-0.611957
-0.606939
-0.602067
-0.597317
-0.592595
-0.587914
-0.58335
-0.578922
-0.574527
-0.570183
-0.565905
-0.561688
-0.557515
-0.553383
-0.549306
-0.545232
-0.541178
-0.537156
-0.533152
-0.529163
-0.525183
-0.521207
-0.517233
-0.513258
-0.509275
-0.505279
-0.501319
-0.49731
-0.493237
-0.489139
-0.485066
-0.480934
-0.476764
-0.472566
-0.468336
-0.46407
-0.459768
-0.455433
-0.451076
-0.446697
-0.44225
-0.437756
-0.433251
-0.42872
-0.424164
-0.419612
-0.414999
-0.410359
-0.40571
-0.401051
-0.396379
-0.391694
-0.387003
-0.382295
-0.377583
-0.37287
-0.368175
-0.363464
-0.358747
-0.354045
-0.349362
-0.344698
-0.340053
-0.335433
-0.330839
-0.326277
-0.321739
-0.317239
-0.312777
-0.308381
-0.304003
-0.299662
-0.295374
-0.291143
-0.286964
-0.28284
-0.27877
-0.274758
-0.270812
-0.266919
-0.263083
-0.259313
-0.255607
-0.251966
-0.248403
-0.244898
-0.241456
-0.238085
-0.234784
-0.231552
-0.228389
-0.225302
-0.222276
-0.219307
-0.216405
-0.213568
-0.210793
-0.208077
-0.20542
-0.202826
-0.200275
-0.197782
-0.195351
-0.192976
-0.190658
-0.188399
-0.186207
-0.184067
-0.181985
-0.179966
-0.178003
-0.176096
-0.174245
-0.172458
-0.170717
-0.169033
-0.167407
-0.165834
-0.164311
-0.162839
-0.16143
-0.160068
-0.158756
-0.157501
-0.156298
-0.155149
-0.154058
-0.153011
-0.152019
-0.151085
-0.150193
-0.149339
-0.148531
-0.147764
-0.147039
-0.146364
-0.145722
-0.145121
-0.144566
-0.144055
-0.143588
-0.143154
-0.142769
-0.142432
-0.142145
-0.141892
-0.141682
-0.141522
-0.14141
-0.141348
-0.141337
-0.141356
-0.141405
-0.141488
-0.141606
-0.141756
-0.141937
-0.142154
-0.142407
-0.142691
-0.143017
-0.143389
-0.143794
-0.144234
-0.144715
-0.145236
-0.145793
-0.146388
-0.147011
-0.147659
-0.148342
-0.149056
-0.149802
-0.150583
-0.151404
-0.152276
-0.153184
-0.154128
-0.155122
-0.15616
-0.157248
-0.158359
-0.159502
-0.160681
-0.161892
-0.163134
-0.164407
-0.165719
-0.167051
-0.168404
-0.169769
-0.171157
-0.172564
-0.173986
-0.175424
-0.176888
-0.178387
-0.179909
-0.181455
-0.183034
-0.184641
-0.186265
-0.187901
-0.189549
-0.191204
-0.192869
-0.194528
-0.19619
-0.197853
-0.199512
-0.201183
-0.202858
-0.204533
-0.206203
-0.207858
-0.209494
-0.211093
-0.21266
-0.214209
-0.215741
-0.217266
-0.218774
-0.220264
-0.221748
-0.223228
-0.224698
-0.226166
-0.227634
-0.229099
-0.230558
-0.232016
-0.23348
-0.234954
-0.236456
-0.23798
-0.239516
-0.241072
-0.242629
-0.2442
-0.245786
-0.247378
-0.248975
-0.25058
-0.252193
-0.253821
-0.255468
-0.257143
-0.258837
-0.260516
-0.26219
-0.263866
-0.265548
-0.267246
-0.26897
-0.270731
-0.272533
-0.274387
-0.27627
-0.2782
-0.280166
-0.282168
-0.284211
-0.286292
-0.28842
-0.290586
-0.292788
-0.295041
-0.297341
-0.299701
-0.302117
-0.304596
-0.307154
-0.309712
-0.312306
-0.314949
-0.317626
-0.320325
-0.32304
-0.325765
-0.328492
-0.331208
-0.333847
-0.336067
-0.336001
-0.323202
-0.239486
-0.610596
-0.605626
-0.600803
-0.596122
-0.591586
-0.587163
-0.582866
-0.578686
-0.574617
-0.570644
-0.566766
-0.562974
-0.559263
-0.555621
-0.552077
-0.548576
-0.545104
-0.541632
-0.538194
-0.534814
-0.531453
-0.528125
-0.524785
-0.521435
-0.51806
-0.514688
-0.511302
-0.507892
-0.504481
-0.501013
-0.497486
-0.493927
-0.490334
-0.486698
-0.483013
-0.479274
-0.475492
-0.471671
-0.467771
-0.463798
-0.459765
-0.455693
-0.451563
-0.447372
-0.443134
-0.438827
-0.43445
-0.430006
-0.42552
-0.420981
-0.416409
-0.411775
-0.407093
-0.402361
-0.397605
-0.392817
-0.387999
-0.383154
-0.378283
-0.373388
-0.368484
-0.363563
-0.358639
-0.353714
-0.348791
-0.343878
-0.33897
-0.334069
-0.329185
-0.324321
-0.31948
-0.314664
-0.309877
-0.305122
-0.300398
-0.295713
-0.291066
-0.286465
-0.28191
-0.277398
-0.272932
-0.268517
-0.264153
-0.259843
-0.255587
-0.251387
-0.247246
-0.243159
-0.239136
-0.235175
-0.231278
-0.227447
-0.223687
-0.219988
-0.216358
-0.212794
-0.209295
-0.205866
-0.202501
-0.199206
-0.19598
-0.192822
-0.189733
-0.186709
-0.183751
-0.18086
-0.178032
-0.175268
-0.172566
-0.169922
-0.167342
-0.164822
-0.16236
-0.159957
-0.157613
-0.155326
-0.153098
-0.150929
-0.148821
-0.146771
-0.144782
-0.142854
-0.140982
-0.139168
-0.137413
-0.135713
-0.13407
-0.132485
-0.130959
-0.129489
-0.128077
-0.126722
-0.125424
-0.124182
-0.122999
-0.121863
-0.120782
-0.119754
-0.118779
-0.117857
-0.116991
-0.116176
-0.115411
-0.114698
-0.114036
-0.113421
-0.112851
-0.112329
-0.111852
-0.111422
-0.111038
-0.110705
-0.110425
-0.110197
-0.110018
-0.10988
-0.109784
-0.109735
-0.109732
-0.109773
-0.109858
-0.109994
-0.11017
-0.110388
-0.110655
-0.110967
-0.111325
-0.11171
-0.112133
-0.112594
-0.113096
-0.113636
-0.11422
-0.114843
-0.115503
-0.116198
-0.11693
-0.117704
-0.118518
-0.119375
-0.120273
-0.121212
-0.122185
-0.123198
-0.124253
-0.125345
-0.126482
-0.127665
-0.1289
-0.130174
-0.131477
-0.132826
-0.134219
-0.135655
-0.137147
-0.13866
-0.140198
-0.14177
-0.143371
-0.144999
-0.14666
-0.148351
-0.150058
-0.151789
-0.153533
-0.155301
-0.15709
-0.158895
-0.16073
-0.162569
-0.164415
-0.166275
-0.168145
-0.170018
-0.17189
-0.173758
-0.175627
-0.177483
-0.179322
-0.181149
-0.182958
-0.184749
-0.186531
-0.188298
-0.190044
-0.191768
-0.193466
-0.195137
-0.19679
-0.198419
-0.200008
-0.201575
-0.203111
-0.204634
-0.206145
-0.207637
-0.209109
-0.210558
-0.211994
-0.213432
-0.214836
-0.216212
-0.217565
-0.218901
-0.220232
-0.221551
-0.222851
-0.224129
-0.225385
-0.226644
-0.2279
-0.229141
-0.230374
-0.231604
-0.23285
-0.234106
-0.235364
-0.23662
-0.23787
-0.239116
-0.240369
-0.241663
-0.242942
-0.244235
-0.245566
-0.246933
-0.248334
-0.24978
-0.251276
-0.252804
-0.254376
-0.255992
-0.257676
-0.259433
-0.261258
-0.263149
-0.2651
-0.26711
-0.269193
-0.271359
-0.273597
-0.275923
-0.278339
-0.280845
-0.283461
-0.286149
-0.288864
-0.291599
-0.294375
-0.297186
-0.300022
-0.302881
-0.305772
-0.308685
-0.311599
-0.314447
-0.316868
-0.316854
-0.303793
-0.221932
-0.547099
-0.544224
-0.541421
-0.538676
-0.535988
-0.53334
-0.530719
-0.528133
-0.525577
-0.523039
-0.520503
-0.517979
-0.515472
-0.512921
-0.51032
-0.507694
-0.505063
-0.502396
-0.499686
-0.496935
-0.494145
-0.491279
-0.48834
-0.485333
-0.482274
-0.479145
-0.475942
-0.47267
-0.469337
-0.465904
-0.462373
-0.458771
-0.455104
-0.451364
-0.44753
-0.443601
-0.439601
-0.435532
-0.431396
-0.427174
-0.422888
-0.418535
-0.414117
-0.409641
-0.405118
-0.400521
-0.395871
-0.391181
-0.386448
-0.381684
-0.376871
-0.372035
-0.367171
-0.362288
-0.357388
-0.35248
-0.347557
-0.342632
-0.337706
-0.332786
-0.327871
-0.322969
-0.318078
-0.31321
-0.308357
-0.30353
-0.298728
-0.293954
-0.289212
-0.284506
-0.279841
-0.275209
-0.270619
-0.266071
-0.261563
-0.257102
-0.252681
-0.24831
-0.243983
-0.239704
-0.235474
-0.231294
-0.227162
-0.223084
-0.219058
-0.215085
-0.211167
-0.207305
-0.203501
-0.199751
-0.196063
-0.192433
-0.188864
-0.185353
-0.181905
-0.178517
-0.17519
-0.171923
-0.168721
-0.165577
-0.162499
-0.159483
-0.156531
-0.153641
-0.150814
-0.14805
-0.145342
-0.142698
-0.140113
-0.137588
-0.135125
-0.132722
-0.130378
-0.128097
-0.125877
-0.123718
-0.12162
-0.119585
-0.117609
-0.115694
-0.11384
-0.112045
-0.110311
-0.108635
-0.107021
-0.105463
-0.103965
-0.102527
-0.101148
-0.0998317
-0.0985739
-0.0973765
-0.0962377
-0.0951554
-0.094126
-0.0931548
-0.0922389
-0.0913783
-0.0905723
-0.0898236
-0.0891278
-0.0884903
-0.087906
-0.0873761
-0.0868986
-0.0864735
-0.0860975
-0.0857711
-0.0854908
-0.0852672
-0.085101
-0.0849904
-0.084932
-0.0849254
-0.0849713
-0.0850624
-0.0852017
-0.0853877
-0.0856205
-0.0858998
-0.0862254
-0.0866018
-0.0870161
-0.0874762
-0.0879884
-0.088556
-0.0891789
-0.0898404
-0.0905449
-0.0912975
-0.0920955
-0.0929388
-0.0938257
-0.0947546
-0.0957204
-0.0967321
-0.0977893
-0.0988931
-0.100043
-0.101237
-0.102481
-0.103776
-0.105122
-0.106522
-0.10797
-0.109468
-0.111013
-0.112607
-0.114255
-0.115952
-0.117699
-0.119495
-0.121335
-0.123225
-0.125158
-0.127131
-0.129138
-0.131187
-0.133276
-0.135403
-0.137565
-0.139766
-0.141996
-0.144252
-0.146527
-0.148825
-0.151149
-0.153491
-0.155863
-0.158234
-0.16061
-0.163
-0.165397
-0.167805
-0.170209
-0.172599
-0.174973
-0.177342
-0.179691
-0.18204
-0.184364
-0.186672
-0.188958
-0.191237
-0.193507
-0.19575
-0.197974
-0.200185
-0.20237
-0.204503
-0.206593
-0.208639
-0.210664
-0.212658
-0.214609
-0.216508
-0.218358
-0.220176
-0.221927
-0.223622
-0.225259
-0.226844
-0.228354
-0.229795
-0.231173
-0.232505
-0.23378
-0.235012
-0.236168
-0.237238
-0.238249
-0.239195
-0.240113
-0.240995
-0.241849
-0.242697
-0.243517
-0.244275
-0.244956
-0.245579
-0.246195
-0.246805
-0.24738
-0.247952
-0.24853
-0.249126
-0.249747
-0.250422
-0.25117
-0.251994
-0.252883
-0.253831
-0.254833
-0.255914
-0.257047
-0.258241
-0.259508
-0.260887
-0.262389
-0.264013
-0.265762
-0.267632
-0.269625
-0.271758
-0.273999
-0.276322
-0.278718
-0.281168
-0.283705
-0.286324
-0.289019
-0.29179
-0.294639
-0.297568
-0.300559
-0.303493
-0.305789
-0.304875
-0.288918
-0.203298
-0.511212
-0.509775
-0.508305
-0.506815
-0.50528
-0.503699
-0.502061
-0.500365
-0.498627
-0.496791
-0.49488
-0.492869
-0.490786
-0.488628
-0.486381
-0.484042
-0.48161
-0.479091
-0.476464
-0.473727
-0.470895
-0.467981
-0.464944
-0.461823
-0.458596
-0.455278
-0.451862
-0.448369
-0.444767
-0.441069
-0.43729
-0.433427
-0.429485
-0.425463
-0.421363
-0.417191
-0.412952
-0.408651
-0.404293
-0.399875
-0.395404
-0.390886
-0.386325
-0.381725
-0.37709
-0.372426
-0.367732
-0.363016
-0.35828
-0.353528
-0.348766
-0.343998
-0.339219
-0.334443
-0.32967
-0.324896
-0.320137
-0.315381
-0.310641
-0.305916
-0.301208
-0.296517
-0.291848
-0.287201
-0.282579
-0.27798
-0.27341
-0.268867
-0.264352
-0.25987
-0.255419
-0.251001
-0.246617
-0.242266
-0.237951
-0.233673
-0.229433
-0.22523
-0.221067
-0.216943
-0.212859
-0.208817
-0.204817
-0.20086
-0.196948
-0.193081
-0.189261
-0.185488
-0.181765
-0.178091
-0.174469
-0.170899
-0.167383
-0.163919
-0.160513
-0.157163
-0.15387
-0.150636
-0.14746
-0.144343
-0.141287
-0.138292
-0.135358
-0.132486
-0.129677
-0.126926
-0.124239
-0.121614
-0.119051
-0.116549
-0.114112
-0.111737
-0.109427
-0.10718
-0.104998
-0.102881
-0.100828
-0.0988408
-0.0969184
-0.0950613
-0.0932662
-0.0915349
-0.0898676
-0.0882637
-0.0867227
-0.0852454
-0.0838309
-0.0824813
-0.0811915
-0.079967
-0.0788072
-0.0777112
-0.0766758
-0.0757012
-0.0747851
-0.0739303
-0.0731345