/*--------------------------------*- C++ -*----------------------------------*\
| =========                 |                                                 |
| \\      /  F ield         | OpenFOAM: The Open Source CFD Toolbox           |
|  \\    /   O peration     | Version:  2.4.0                                 |
|   \\  /    A nd           | Web:      www.OpenFOAM.org                      |
|    \\/     M anipulation  |                                                 |
\*---------------------------------------------------------------------------*/
FoamFile
{
    version     2.0;
    format      ascii;
    class       surfaceScalarField;
    location    "0.002";
    object      phi;
}
// * * * * * * * * * * * * * * * * * * * * * * * * * * * * * * * * * * * * * //

dimensions      [0 3 -1 0 0 0 0];

internalField   nonuniform List<scalar> 
124
(
2.90509e-12
-8.82311e-09
-8.82312e-09
-8.82343e-09
-8.82383e-09
-8.82418e-09
-8.82442e-09
-8.82455e-09
-8.82461e-09
-8.8246e-09
-8.82454e-09
-8.82446e-09
-8.82437e-09
-8.82427e-09
-8.82417e-09
-8.82408e-09
-8.82398e-09
-8.82388e-09
-8.82379e-09
-8.82369e-09
-8.82359e-09
-8.8235e-09
-8.8234e-09
-8.8233e-09
-8.82321e-09
-8.82311e-09
-8.82302e-09
-8.82293e-09
-8.82283e-09
-8.82274e-09
-8.82265e-09
-8.82256e-09
-8.82247e-09
-8.82238e-09
-8.82229e-09
-8.8222e-09
-8.82211e-09
-8.82202e-09
-8.82194e-09
-8.82185e-09
-8.82177e-09
-8.82168e-09
-8.82159e-09
-8.82151e-09
-8.82143e-09
-8.82134e-09
-8.82126e-09
-8.82117e-09
-8.82109e-09
-8.82101e-09
-8.82092e-09
-8.82084e-09
-8.82076e-09
-8.82067e-09
-8.82059e-09
-8.82051e-09
-8.82043e-09
-8.82034e-09
-8.82026e-09
-8.82018e-09
-8.8201e-09
-8.82001e-09
-8.81993e-09
-8.81985e-09
-8.81977e-09
-8.81968e-09
-8.8196e-09
-8.81952e-09
-8.81944e-09
-8.81935e-09
-8.81927e-09
-8.81919e-09
-8.81911e-09
-8.81903e-09
-8.81894e-09
-8.81886e-09
-8.81878e-09
-8.8187e-09
-8.81862e-09
-8.81853e-09
-8.81845e-09
-8.81837e-09
-8.81829e-09
-8.81821e-09
-8.81812e-09
-8.81804e-09
-8.81796e-09
-8.81788e-09
-8.8178e-09
-8.81771e-09
-8.81763e-09
-8.81755e-09
-8.81747e-09
-8.81739e-09
-8.81731e-09
-8.81722e-09
-8.81714e-09
-8.81706e-09
-8.81698e-09
-8.8169e-09
-8.81682e-09
-8.81674e-09
-8.81665e-09
-8.81657e-09
-8.81649e-09
-8.81641e-09
-8.81633e-09
-8.81625e-09
-8.81617e-09
-8.81609e-09
-8.81601e-09
-8.81593e-09
-8.81585e-09
-8.81576e-09
-8.81568e-09
-8.8156e-09
-8.81552e-09
-8.81544e-09
-8.81536e-09
-8.81528e-09
-8.8152e-09
-8.81513e-09
-8.81505e-09
-8.81497e-09
)
;

boundaryField
{
    BotWall
    {
        type            calculated;
        value           uniform -1.0558e-11;
    }
    FreeStream
    {
        type            calculated;
        value           nonuniform 0();
    }
    FrontNBack
    {
        type            empty;
        value           nonuniform 0();
    }
    LeftSide
    {
        type            symmetryPlane;
        value           nonuniform 0();
    }
    RightSide
    {
        type            symmetryPlane;
        value           uniform 0;
    }
    procBoundary11to8
    {
        type            processor;
        value           nonuniform List<scalar> 
50
(
-8.20757e-14
-8.20609e-14
-8.2046e-14
-8.20309e-14
-8.20156e-14
-8.2e-14
-8.1984e-14
-8.19674e-14
-8.195e-14
-8.19317e-14
-8.19124e-14
-8.1892e-14
-8.18702e-14
-8.18469e-14
-8.18221e-14
-8.17956e-14
-8.17672e-14
-8.17368e-14
-8.17044e-14
-8.16697e-14
-8.16328e-14
-8.15934e-14
-8.15514e-14
-8.15068e-14
-8.14594e-14
-8.1409e-14
-8.13557e-14
-8.12993e-14
-8.12396e-14
-8.11767e-14
-8.11102e-14
-8.10402e-14
-8.09666e-14
-8.08892e-14
-8.08078e-14
-8.07225e-14
-8.06331e-14
-8.05394e-14
-8.04414e-14
-8.0339e-14
-8.0232e-14
-8.01203e-14
-8.00038e-14
-7.98825e-14
-7.97561e-14
-7.96245e-14
-7.94882e-14
-7.93462e-14
-7.91997e-14
-7.90475e-14
)
;
    }
    procBoundary11to9
    {
        type            processor;
        value           nonuniform List<scalar> 
75
(
8.33491e-12
1.51802e-13
2.86844e-15
3.08837e-13
4.00901e-13
3.53258e-13
2.42021e-13
1.28411e-13
5.56334e-14
-7.87193e-15
-5.47617e-14
-8.15689e-14
-9.30458e-14
-9.71848e-14
-9.80284e-14
-9.76696e-14
-9.70961e-14
-9.66798e-14
-9.64803e-14
-9.64275e-14
-9.64216e-14
-9.63778e-14
-9.62418e-14
-9.59876e-14
-9.56126e-14
-9.51271e-14
-9.45502e-14
-9.39038e-14
-9.32094e-14
-9.24871e-14
-9.17545e-14
-9.10261e-14
-9.03138e-14
-8.96265e-14
-8.89708e-14
-8.83514e-14
-8.77712e-14
-8.72316e-14
-8.6733e-14
-8.62747e-14
-8.58555e-14
-8.54736e-14
-8.51269e-14
-8.48129e-14
-8.45293e-14
-8.42736e-14
-8.40434e-14
-8.38363e-14
-8.36502e-14
-8.3483e-14
-8.33328e-14
-8.31979e-14
-8.30767e-14
-8.29679e-14
-8.287e-14
-8.27821e-14
-8.2703e-14
-8.26318e-14
-8.25678e-14
-8.25101e-14
-8.24582e-14
-8.24115e-14
-8.23695e-14
-8.23316e-14
-8.22976e-14
-8.22669e-14
-8.22392e-14
-8.22143e-14
-8.21918e-14
-8.21715e-14
-8.2153e-14
-8.2136e-14
-8.21203e-14
-8.21051e-14
-8.20904e-14
)
;
    }
    procBoundary11to10
    {
        type            processor;
        value           uniform -8.81489e-09;
    }
}


// ************************************************************************* //
