/*--------------------------------*- C++ -*----------------------------------*\
| =========                 |                                                 |
| \\      /  F ield         | OpenFOAM: The Open Source CFD Toolbox           |
|  \\    /   O peration     | Version:  2.4.0                                 |
|   \\  /    A nd           | Web:      www.OpenFOAM.org                      |
|    \\/     M anipulation  |                                                 |
\*---------------------------------------------------------------------------*/
FoamFile
{
    version     2.0;
    format      ascii;
    class       volScalarField;
    location    "0.003";
    object      H;
}
// * * * * * * * * * * * * * * * * * * * * * * * * * * * * * * * * * * * * * //

dimensions      [0 2 -2 0 0 0 0];

internalField   nonuniform List<scalar> 
125
(
-8299.08
-140.35
-102.69
-97.9152
-93.4232
-89.178
-85.1557
-81.3362
-77.7019
-74.2372
-70.9283
-67.7628
-64.7298
-61.8198
-59.0245
-56.3365
-53.7492
-51.2573
-48.8556
-46.5399
-44.3066
-42.1522
-40.0741
-38.0697
-36.1368
-34.2734
-32.4779
-30.7487
-29.0843
-27.4835
-25.9449
-24.4674
-23.0499
-21.6912
-20.3902
-19.1457
-17.9567
-16.822
-15.7403
-14.7105
-13.7313
-12.8014
-11.9195
-11.0843
-10.2943
-9.54811
-8.84435
-8.18152
-7.55815
-6.97275
-6.42383
-5.90988
-5.4294
-4.9809
-4.56289
-4.17392
-3.81252
-3.47729
-3.16682
-2.87974
-2.61472
-2.37047
-2.14572
-1.93927
-1.74994
-1.5766
-1.41818
-1.27362
-1.14195
-1.02222
-0.913545
-0.815069
-0.725994
-0.645565
-0.573072
-0.50785
-0.449276
-0.396767
-0.349782
-0.307817
-0.270405
-0.237115
-0.207547
-0.181336
-0.158145
-0.137665
-0.119614
-0.103735
-0.0897936
-0.0775779
-0.0668953
-0.0575721
-0.0494516
-0.0423931
-0.0362701
-0.0309696
-0.0263905
-0.0224428
-0.0190467
-0.0161313
-4.04074e-103
-3.67823e-104
1.13514e-104
-6.2617e-106
-6.18451e-106
-7.91658e-108
8.72968e-108
-9.54333e-109
-2.80822e-109
3.08382e-111
1.8737e-111
-4.11538e-112
-6.43255e-113
2.67501e-115
4.00137e-116
-9.22262e-116
-1.04739e-116
-3.06143e-118
-5.23169e-119
-1.46778e-119
-1.51001e-120
-1.0289e-121
-1.32521e-122
-2.01844e-123
-3.37864e-124
)
;

boundaryField
{
    BotWall
    {
        type            zeroGradient;
    }
    FreeStream
    {
        type            zeroGradient;
    }
    FrontNBack
    {
        type            empty;
    }
    LeftSide
    {
        type            symmetryPlane;
    }
    RightSide
    {
        type            symmetryPlane;
    }
    procBoundary4to1
    {
        type            processor;
        value           nonuniform List<scalar> 
50
(
-6.5699
-6.04385
-5.5521
-5.09313
-4.66541
-4.26744
-3.89772
-3.55479
-3.23722
-2.94361
-2.67258
-2.4228
-2.193
-1.98191
-1.78835
-1.61114
-1.44919
-1.30143
-1.16684
-1.04448
-0.933405
-0.832766
-0.741739
-0.659551
-0.585476
-0.518833
-0.458985
-0.405336
-0.357332
-0.314458
-0.276236
-0.242226
-0.212021
-0.185244
-0.161553
-0.140632
-0.122192
-0.105971
-0.0917298
-0.0792513
-0.0683389
-0.0588152
-0.0505201
-0.0433097
-0.037055
-0.0316404
-0.0269627
-0.0229301
-0.0194608
-0.0164825
)
;
    }
    procBoundary4to2
    {
        type            processor;
        value           nonuniform List<scalar> 
75
(
-8327.52
-143.042
-104.677
-99.8832
-95.3536
-91.0644
-86.9945
-83.1246
-79.4377
-75.9187
-72.5542
-69.3324
-66.2428
-63.276
-60.4241
-57.6798
-55.0369
-52.4899
-50.034
-47.6651
-45.3796
-43.1742
-41.0463
-38.9934
-37.0133
-35.1041
-33.2643
-31.4922
-29.7864
-28.1456
-26.5686
-25.0543
-23.6014
-22.2088
-20.8754
-19.6001
-18.3816
-17.2189
-16.1106
-15.0555
-14.0524
-13.0999
-12.1966
-11.3412
-10.5322
-9.76813
-9.04759
-8.36902
-7.73092
-7.13175
-1.14267e-98
-1.26176e-99
-1.38297e-100
-1.50442e-101
-1.62148e-102
-1.73171e-103
-1.83463e-104
-1.92844e-105
-2.01007e-106
-2.07757e-107
-2.13025e-108
-2.16716e-109
-2.18714e-110
-2.18975e-111
-2.17531e-112
-2.14437e-113
-2.09759e-114
-2.0361e-115
-1.96145e-116
-1.87533e-117
-1.77957e-118
-1.67611e-119
-1.56721e-120
-1.46495e-121
-1.80637e-122
)
;
    }
    procBoundary4to3
    {
        type            processor;
        value           uniform -0.0136338;
    }
    procBoundary4to5
    {
        type            processor;
        value           uniform -3.89572e-95;
    }
    procBoundary4to6
    {
        type            processor;
        value           nonuniform List<scalar> 
75
(
-34.1628
-32.3702
-30.644
-28.9828
-27.3852
-25.85
-24.376
-22.962
-21.6069
-20.3095
-19.0687
-17.8833
-16.7521
-15.674
-14.6477
-13.6719
-12.7454
-11.8667
-11.0347
-10.2477
-9.50454
-8.80364
-8.14355
-7.52281
-6.93993
-6.39339
-5.88171
-5.40338
-4.95691
-4.54082
-4.15364
-3.79394
-3.46029
-3.15129
-2.86558
-2.60184
-2.35877
-2.13512
-1.92968
-1.74128
-1.5688
-1.41116
-1.26732
-1.1363
-1.01717
-0.909036
-0.811051
-0.722421
-0.642393
-0.570263
-0.505366
-0.447084
-0.394836
-0.348085
-0.306328
-0.269101
-0.235975
-0.206553
-0.180471
-0.157394
-0.137013
-0.11905
-0.103248
-0.0893741
-0.0772171
-0.0665857
-0.057307
-0.0492251
-0.0422
-0.0361058
-0.0308301
-0.0262724
-0.0223431
-0.0189627
-0.0160606
)
;
    }
    procBoundary4to7
    {
        type            processor;
        value           nonuniform List<scalar> 
50
(
-8297.07
-140.111
-102.528
-97.7715
-93.2811
-89.0346
-85.0108
-81.1902
-77.5554
-74.0905
-70.7818
-67.6169
-64.5849
-61.6762
-58.8825
-56.1964
-53.6113
-51.1217
-48.7226
-46.4098
-44.1794
-42.0282
-39.9534
-37.9524
-36.023
-2.88625e-98
-3.08243e-99
-3.26907e-100
-3.44316e-101
-3.60162e-102
-3.74148e-103
-3.86011e-104
-3.95535e-105
-4.02536e-106
-4.06875e-107
-4.08469e-108
-4.07295e-109
-4.03382e-110
-3.96813e-111
-3.87723e-112
-3.76296e-113
-3.62757e-114
-3.47362e-115
-3.30396e-116
-3.1216e-117
-2.92964e-118
-2.73117e-119
-2.52952e-120
-2.34287e-121
-2.84647e-122
)
;
    }
}


// ************************************************************************* //
