/*--------------------------------*- C++ -*----------------------------------*\
| =========                 |                                                 |
| \\      /  F ield         | OpenFOAM: The Open Source CFD Toolbox           |
|  \\    /   O peration     | Version:  2.4.0                                 |
|   \\  /    A nd           | Web:      www.OpenFOAM.org                      |
|    \\/     M anipulation  |                                                 |
\*---------------------------------------------------------------------------*/
FoamFile
{
    version     2.0;
    format      ascii;
    class       volScalarField;
    location    "0.003";
    object      p;
}
// * * * * * * * * * * * * * * * * * * * * * * * * * * * * * * * * * * * * * //

dimensions      [1 -1 -2 0 0 0 0];

internalField   nonuniform List<scalar> 
125
(
415.626
-4.50352
-0.662662
-0.0621119
-0.140518
-0.19425
-0.203618
-0.200172
-0.197558
-0.196563
-0.196009
-0.195422
-0.194778
-0.19412
-0.193466
-0.192816
-0.192169
-0.191524
-0.190881
-0.190241
-0.189603
-0.188967
-0.188334
-0.187703
-0.187075
-0.186449
-0.185826
-0.185205
-0.184587
-0.183972
-0.183359
-0.182748
-0.18214
-0.181535
-0.180933
-0.180333
-0.179735
-0.17914
-0.178548
-0.177959
-0.177372
-0.176788
-0.176207
-0.175629
-0.175053
-0.17448
-0.173909
-0.173342
-0.172777
-0.172214
-0.171655
-0.171098
-0.170545
-0.169994
-0.169445
-0.1689
-0.168357
-0.167817
-0.16728
-0.166746
-0.166215
-0.165686
-0.16516
-0.164637
-0.164117
-0.1636
-0.163086
-0.162574
-0.162065
-0.161559
-0.161057
-0.160556
-0.160059
-0.159565
-0.159073
-0.158584
-0.158099
-0.157616
-0.157136
-0.156658
-0.156184
-0.155713
-0.155244
-0.154778
-0.154315
-0.153855
-0.153398
-0.152944
-0.152492
-0.152043
-0.151598
-0.151155
-0.150715
-0.150277
-0.149843
-0.149411
-0.148982
-0.148555
-0.148131
-0.147709
-0.103307
-0.103238
-0.103169
-0.103099
-0.103029
-0.102959
-0.102888
-0.102816
-0.102744
-0.102671
-0.102598
-0.102524
-0.10245
-0.102375
-0.1023
-0.102225
-0.102149
-0.102073
-0.101996
-0.101919
-0.101841
-0.101764
-0.101686
-0.101607
-0.101524
)
;

boundaryField
{
    BotWall
    {
        type            calculated;
        value           uniform 415.631;
    }
    FreeStream
    {
        type            calculated;
        value           uniform -0.101481;
    }
    FrontNBack
    {
        type            empty;
    }
    LeftSide
    {
        type            symmetryPlane;
    }
    RightSide
    {
        type            symmetryPlane;
    }
    procBoundary4to1
    {
        type            processor;
        value           nonuniform List<scalar> 
50
(
-0.0924634
-0.0926625
-0.0928598
-0.0930556
-0.0932499
-0.0934427
-0.0936341
-0.093824
-0.0940125
-0.0941995
-0.0943851
-0.0945692
-0.0947519
-0.0949331
-0.0951128
-0.0952911
-0.0954679
-0.0956432
-0.0958171
-0.0959895
-0.0961604
-0.0963299
-0.0964978
-0.0966643
-0.0968293
-0.0969928
-0.0971549
-0.0973154
-0.0974744
-0.097632
-0.0977881
-0.0979426
-0.0980957
-0.0982473
-0.0983974
-0.098546
-0.0986931
-0.0988387
-0.0989828
-0.0991254
-0.0992666
-0.0994062
-0.0995443
-0.0996809
-0.0998161
-0.0999497
-0.100082
-0.100213
-0.100342
-0.100469
)
;
    }
    procBoundary4to2
    {
        type            processor;
        value           nonuniform List<scalar> 
75
(
1.5325
-4.26557
-0.533464
0.0547615
-0.0230298
-0.0768916
-0.0870727
-0.0846004
-0.0829353
-0.0828626
-0.0832218
-0.0835458
-0.0838101
-0.084058
-0.0843061
-0.0845551
-0.0848035
-0.0850505
-0.0852963
-0.0855408
-0.085784
-0.086026
-0.0862668
-0.0865062
-0.0867444
-0.0869813
-0.0872169
-0.0874512
-0.0876842
-0.0879159
-0.0881463
-0.0883753
-0.0886031
-0.0888294
-0.0890545
-0.0892781
-0.0895005
-0.0897214
-0.089941
-0.0901593
-0.0903761
-0.0905916
-0.0908056
-0.0910183
-0.0912296
-0.0914395
-0.0916478
-0.0918546
-0.0920595
-0.0922624
-0.105056
-0.104911
-0.104767
-0.104622
-0.104478
-0.104333
-0.104189
-0.104044
-0.103899
-0.103754
-0.10361
-0.103464
-0.103319
-0.103174
-0.103028
-0.102882
-0.102736
-0.10259
-0.102443
-0.102296
-0.102148
-0.102
-0.101852
-0.101703
-0.101549
)
;
    }
    procBoundary4to3
    {
        type            processor;
        value           uniform -0.147288;
    }
    procBoundary4to5
    {
        type            processor;
        value           uniform -0.103375;
    }
    procBoundary4to6
    {
        type            processor;
        value           nonuniform List<scalar> 
75
(
-0.0644895
-0.0649876
-0.0654826
-0.0659745
-0.0664635
-0.0669496
-0.0674326
-0.0679127
-0.0683898
-0.0688639
-0.069335
-0.0698031
-0.0702681
-0.0707301
-0.071189
-0.0716449
-0.0720977
-0.0725474
-0.072994
-0.0734375
-0.0738779
-0.0743152
-0.0747494
-0.0751804
-0.0756083
-0.076033
-0.0764546
-0.076873
-0.0772882
-0.0777003
-0.0781092
-0.0785149
-0.0789174
-0.0793167
-0.0797129
-0.0801058
-0.0804955
-0.0808819
-0.0812652
-0.0816453
-0.0820221
-0.0823957
-0.082766
-0.0831332
-0.0834971
-0.0838577
-0.0842152
-0.0845694
-0.0849203
-0.0852681
-0.0856126
-0.0859538
-0.0862918
-0.0866266
-0.0869582
-0.0872865
-0.0876116
-0.0879334
-0.0882521
-0.0885675
-0.0888797
-0.0891886
-0.0894944
-0.089797
-0.0900963
-0.0903925
-0.0906855
-0.0909752
-0.0912618
-0.0915452
-0.0918255
-0.0921025
-0.0923765
-0.0926472
-0.0929148
)
;
    }
    procBoundary4to7
    {
        type            processor;
        value           nonuniform List<scalar> 
50
(
1.59829
-4.35555
-0.513831
0.08589
0.00622646
-0.0487677
-0.0593689
-0.0571354
-0.0557309
-0.0559426
-0.0565905
-0.0572009
-0.0577496
-0.0582805
-0.0588105
-0.0593403
-0.059868
-0.0603931
-0.0609153
-0.0614347
-0.0619514
-0.0624652
-0.062976
-0.0634838
-0.0639883
-0.103879
-0.10378
-0.103682
-0.103584
-0.103486
-0.103388
-0.10329
-0.103191
-0.103093
-0.102995
-0.102897
-0.102799
-0.102701
-0.102603
-0.102504
-0.102406
-0.102307
-0.102208
-0.102109
-0.10201
-0.10191
-0.101811
-0.101711
-0.10161
-0.101505
)
;
    }
}


// ************************************************************************* //
