/*--------------------------------*- C++ -*----------------------------------*\
| =========                 |                                                 |
| \\      /  F ield         | OpenFOAM: The Open Source CFD Toolbox           |
|  \\    /   O peration     | Version:  2.4.0                                 |
|   \\  /    A nd           | Web:      www.OpenFOAM.org                      |
|    \\/     M anipulation  |                                                 |
\*---------------------------------------------------------------------------*/
FoamFile
{
    version     2.0;
    format      ascii;
    class       volVectorField;
    location    "0.003";
    object      U;
}
// * * * * * * * * * * * * * * * * * * * * * * * * * * * * * * * * * * * * * //

dimensions      [0 1 -1 0 0 0 0];

internalField   nonuniform List<vector> 
125
(
(5.37084e-05 0.00327721 0)
(-0.0001218 -0.00874523 0)
(-0.000130261 -0.050335 0)
(-0.000129314 -0.0748143 0)
(-0.000104647 -0.0536073 0)
(-6.86589e-05 -0.0504059 0)
(-2.50712e-05 -0.0507855 0)
(2.19292e-05 -0.0513779 0)
(6.84214e-05 -0.0515086 0)
(0.000111555 -0.0514875 0)
(0.00014958 -0.0514646 0)
(0.000181642 -0.0514583 0)
(0.000207542 -0.0514576 0)
(0.000227523 -0.051457 0)
(0.000242109 -0.0514557 0)
(0.000251973 -0.0514543 0)
(0.00025785 -0.051453 0)
(0.000260474 -0.0514517 0)
(0.000260533 -0.0514505 0)
(0.000258649 -0.0514493 0)
(0.000255358 -0.0514481 0)
(0.000251111 -0.051447 0)
(0.000246277 -0.0514459 0)
(0.000241143 -0.0514448 0)
(0.00023593 -0.0514438 0)
(0.000230797 -0.0514428 0)
(0.000225855 -0.0514418 0)
(0.000221175 -0.0514408 0)
(0.000216799 -0.0514399 0)
(0.000212742 -0.0514389 0)
(0.000209006 -0.051438 0)
(0.000205581 -0.0514371 0)
(0.000202449 -0.0514362 0)
(0.000199586 -0.0514353 0)
(0.00019697 -0.0514345 0)
(0.000194574 -0.0514336 0)
(0.000192376 -0.0514328 0)
(0.000190352 -0.051432 0)
(0.000188481 -0.0514311 0)
(0.000186744 -0.0514303 0)
(0.000185124 -0.0514295 0)
(0.000183606 -0.0514287 0)
(0.000182175 -0.0514279 0)
(0.00018082 -0.0514271 0)
(0.00017953 -0.0514263 0)
(0.000178297 -0.0514255 0)
(0.000177112 -0.0514248 0)
(0.000175969 -0.051424 0)
(0.000174861 -0.0514232 0)
(0.000173784 -0.0514224 0)
(0.000172734 -0.0514217 0)
(0.000171705 -0.0514209 0)
(0.000170696 -0.0514201 0)
(0.000169703 -0.0514194 0)
(0.000168725 -0.0514186 0)
(0.000167758 -0.0514179 0)
(0.000166802 -0.0514171 0)
(0.000165855 -0.0514164 0)
(0.000164916 -0.0514156 0)
(0.000163983 -0.0514149 0)
(0.000163056 -0.0514141 0)
(0.000162134 -0.0514134 0)
(0.000161216 -0.0514127 0)
(0.000160302 -0.0514119 0)
(0.000159391 -0.0514112 0)
(0.000158482 -0.0514105 0)
(0.000157576 -0.0514097 0)
(0.000156672 -0.051409 0)
(0.00015577 -0.0514083 0)
(0.00015487 -0.0514076 0)
(0.00015397 -0.0514068 0)
(0.000153072 -0.0514061 0)
(0.000152176 -0.0514054 0)
(0.00015128 -0.0514047 0)
(0.000150385 -0.051404 0)
(0.000149491 -0.0514033 0)
(0.000148598 -0.0514026 0)
(0.000147705 -0.0514019 0)
(0.000146814 -0.0514011 0)
(0.000145923 -0.0514004 0)
(0.000145034 -0.0513998 0)
(0.000144145 -0.0513991 0)
(0.000143257 -0.0513984 0)
(0.00014237 -0.0513977 0)
(0.000141484 -0.051397 0)
(0.000140599 -0.0513963 0)
(0.000139716 -0.0513956 0)
(0.000138833 -0.0513949 0)
(0.000137952 -0.0513943 0)
(0.000137073 -0.0513936 0)
(0.000136195 -0.0513929 0)
(0.000135318 -0.0513922 0)
(0.000134443 -0.0513916 0)
(0.00013357 -0.0513909 0)
(0.000132699 -0.0513902 0)
(0.000131829 -0.0513896 0)
(0.000130962 -0.0513889 0)
(0.000130096 -0.0513883 0)
(0.000129233 -0.0513876 0)
(0.000128372 -0.051387 0)
(-6.85055e-06 -0.0513401 0)
(-6.58059e-06 -0.05134 0)
(-6.31701e-06 -0.0513398 0)
(-6.06043e-06 -0.0513397 0)
(-5.81146e-06 -0.0513396 0)
(-5.57071e-06 -0.0513395 0)
(-5.33873e-06 -0.0513394 0)
(-5.11609e-06 -0.0513393 0)
(-4.90329e-06 -0.0513392 0)
(-4.70082e-06 -0.0513391 0)
(-4.50912e-06 -0.051339 0)
(-4.32865e-06 -0.051339 0)
(-4.1598e-06 -0.0513389 0)
(-4.00302e-06 -0.0513388 0)
(-3.85874e-06 -0.0513387 0)
(-3.72749e-06 -0.0513386 0)
(-3.60982e-06 -0.0513386 0)
(-3.50637e-06 -0.0513385 0)
(-3.41772e-06 -0.0513384 0)
(-3.34422e-06 -0.0513383 0)
(-3.28582e-06 -0.0513383 0)
(-3.24184e-06 -0.0513382 0)
(-3.21086e-06 -0.0513382 0)
(-3.19072e-06 -0.0513383 0)
(-3.17902e-06 -0.0513376 0)
)
;

boundaryField
{
    BotWall
    {
        type            fixedValue;
        value           uniform (0 0 0);
    }
    FreeStream
    {
        type            zeroGradient;
    }
    FrontNBack
    {
        type            empty;
    }
    LeftSide
    {
        type            symmetryPlane;
    }
    RightSide
    {
        type            symmetryPlane;
    }
    procBoundary4to1
    {
        type            processor;
        value           nonuniform List<vector> 
50
(
(0.000116875 -0.051131 0)
(0.000116057 -0.0511318 0)
(0.000115271 -0.0511326 0)
(0.000114512 -0.0511334 0)
(0.000113777 -0.0511343 0)
(0.000113063 -0.0511351 0)
(0.000112366 -0.0511359 0)
(0.000111685 -0.0511367 0)
(0.000111017 -0.0511375 0)
(0.000110359 -0.0511383 0)
(0.000109711 -0.0511392 0)
(0.00010907 -0.05114 0)
(0.000108436 -0.0511408 0)
(0.000107808 -0.0511416 0)
(0.000107183 -0.0511424 0)
(0.000106562 -0.0511432 0)
(0.000105944 -0.051144 0)
(0.000105329 -0.0511448 0)
(0.000104715 -0.0511456 0)
(0.000104102 -0.0511464 0)
(0.000103491 -0.0511471 0)
(0.00010288 -0.0511479 0)
(0.00010227 -0.0511487 0)
(0.000101661 -0.0511495 0)
(0.000101051 -0.0511503 0)
(0.000100442 -0.0511511 0)
(9.98332e-05 -0.0511518 0)
(9.92244e-05 -0.0511526 0)
(9.86156e-05 -0.0511534 0)
(9.8007e-05 -0.0511542 0)
(9.73985e-05 -0.0511549 0)
(9.67903e-05 -0.0511557 0)
(9.61822e-05 -0.0511565 0)
(9.55745e-05 -0.0511572 0)
(9.49671e-05 -0.051158 0)
(9.43602e-05 -0.0511588 0)
(9.37537e-05 -0.0511595 0)
(9.31479e-05 -0.0511603 0)
(9.25428e-05 -0.051161 0)
(9.19384e-05 -0.0511618 0)
(9.13349e-05 -0.0511625 0)
(9.07323e-05 -0.0511633 0)
(9.01308e-05 -0.051164 0)
(8.95303e-05 -0.0511648 0)
(8.89311e-05 -0.0511655 0)
(8.83331e-05 -0.0511662 0)
(8.77365e-05 -0.051167 0)
(8.71414e-05 -0.0511677 0)
(8.65478e-05 -0.0511684 0)
(8.59558e-05 -0.0511692 0)
)
;
    }
    procBoundary4to2
    {
        type            processor;
        value           nonuniform List<vector> 
75
(
(0.000483717 0.00320328 0)
(0.000372591 -0.00862577 0)
(0.000373789 -0.0501307 0)
(0.000227722 -0.0740398 0)
(0.000187594 -0.0532081 0)
(0.000185756 -0.0500409 0)
(0.000204544 -0.0504146 0)
(0.000231203 -0.0510003 0)
(0.000256372 -0.0511319 0)
(0.000274946 -0.0511136 0)
(0.000285376 -0.0510936 0)
(0.000288335 -0.05109 0)
(0.000285489 -0.051092 0)
(0.000278684 -0.051094 0)
(0.000269516 -0.0510954 0)
(0.000259189 -0.0510967 0)
(0.000248522 -0.0510979 0)
(0.000238025 -0.0510992 0)
(0.000227984 -0.0511004 0)
(0.00021854 -0.0511016 0)
(0.000209747 -0.0511028 0)
(0.000201608 -0.051104 0)
(0.0001941 -0.0511052 0)
(0.000187189 -0.0511063 0)
(0.000180836 -0.0511074 0)
(0.000175001 -0.0511084 0)
(0.000169646 -0.0511095 0)
(0.000164735 -0.0511105 0)
(0.000160233 -0.0511115 0)
(0.000156108 -0.0511125 0)
(0.000152328 -0.0511135 0)
(0.000148866 -0.0511144 0)
(0.000145694 -0.0511154 0)
(0.000142788 -0.0511163 0)
(0.000140124 -0.0511172 0)
(0.00013768 -0.0511181 0)
(0.000135437 -0.051119 0)
(0.000133376 -0.0511199 0)
(0.00013148 -0.0511208 0)
(0.000129732 -0.0511216 0)
(0.000128118 -0.0511225 0)
(0.000126624 -0.0511234 0)
(0.000125238 -0.0511242 0)
(0.00012395 -0.0511251 0)
(0.000122747 -0.0511259 0)
(0.000121622 -0.0511268 0)
(0.000120565 -0.0511276 0)
(0.000119568 -0.0511285 0)
(0.000118625 -0.0511293 0)
(0.000117729 -0.0511301 0)
(1.37417e-05 -0.051319 0)
(1.32688e-05 -0.0513189 0)
(1.28075e-05 -0.0513188 0)
(1.23588e-05 -0.0513187 0)
(1.19237e-05 -0.0513186 0)
(1.15032e-05 -0.0513184 0)
(1.10982e-05 -0.0513183 0)
(1.07094e-05 -0.0513182 0)
(1.03374e-05 -0.0513181 0)
(9.98292e-06 -0.0513181 0)
(9.64618e-06 -0.051318 0)
(9.32752e-06 -0.0513179 0)
(9.0271e-06 -0.0513178 0)
(8.74507e-06 -0.0513177 0)
(8.48154e-06 -0.0513176 0)
(8.23677e-06 -0.0513175 0)
(8.01122e-06 -0.0513174 0)
(7.80574e-06 -0.0513174 0)
(7.62172e-06 -0.0513173 0)
(7.46118e-06 -0.0513172 0)
(7.32666e-06 -0.0513171 0)
(7.22084e-06 -0.0513171 0)
(7.14585e-06 -0.0513171 0)
(7.10207e-06 -0.0513172 0)
(7.08586e-06 -0.0513164 0)
)
;
    }
    procBoundary4to3
    {
        type            processor;
        value           uniform (0.000127514 -0.0513863 0);
    }
    procBoundary4to5
    {
        type            processor;
        value           uniform (-7.12627e-06 -0.0513402 0);
    }
    procBoundary4to6
    {
        type            processor;
        value           nonuniform List<vector> 
75
(
(-0.000182263 -0.0514509 0)
(-0.000177845 -0.0514502 0)
(-0.000173643 -0.0514495 0)
(-0.000169666 -0.0514487 0)
(-0.000165921 -0.051448 0)
(-0.00016241 -0.0514473 0)
(-0.000159132 -0.0514467 0)
(-0.000156085 -0.051446 0)
(-0.00015326 -0.0514453 0)
(-0.000150647 -0.0514447 0)
(-0.000148236 -0.051444 0)
(-0.000146012 -0.0514434 0)
(-0.000143962 -0.0514427 0)
(-0.000142073 -0.0514421 0)
(-0.000140329 -0.0514415 0)
(-0.000138717 -0.0514408 0)
(-0.000137225 -0.0514402 0)
(-0.00013584 -0.0514396 0)
(-0.000134549 -0.051439 0)
(-0.000133344 -0.0514383 0)
(-0.000132213 -0.0514377 0)
(-0.000131148 -0.0514371 0)
(-0.000130141 -0.0514365 0)
(-0.000129184 -0.0514359 0)
(-0.00012827 -0.0514353 0)
(-0.000127394 -0.0514347 0)
(-0.00012655 -0.0514341 0)
(-0.000125734 -0.0514334 0)
(-0.000124942 -0.0514328 0)
(-0.000124169 -0.0514322 0)
(-0.000123413 -0.0514316 0)
(-0.000122671 -0.051431 0)
(-0.00012194 -0.0514304 0)
(-0.000121218 -0.0514298 0)
(-0.000120504 -0.0514292 0)
(-0.000119796 -0.0514286 0)
(-0.000119093 -0.051428 0)
(-0.000118393 -0.0514274 0)
(-0.000117696 -0.0514268 0)
(-0.000117001 -0.0514262 0)
(-0.000116307 -0.0514256 0)
(-0.000115614 -0.051425 0)
(-0.000114921 -0.0514244 0)
(-0.000114228 -0.0514238 0)
(-0.000113534 -0.0514232 0)
(-0.00011284 -0.0514226 0)
(-0.000112145 -0.051422 0)
(-0.000111449 -0.0514214 0)
(-0.000110753 -0.0514209 0)
(-0.000110055 -0.0514203 0)
(-0.000109356 -0.0514197 0)
(-0.000108656 -0.0514191 0)
(-0.000107955 -0.0514185 0)
(-0.000107252 -0.0514179 0)
(-0.000106549 -0.0514173 0)
(-0.000105845 -0.0514167 0)
(-0.00010514 -0.0514162 0)
(-0.000104433 -0.0514156 0)
(-0.000103726 -0.051415 0)
(-0.000103018 -0.0514144 0)
(-0.00010231 -0.0514138 0)
(-0.0001016 -0.0514133 0)
(-0.00010089 -0.0514127 0)
(-0.00010018 -0.0514121 0)
(-9.94687e-05 -0.0514116 0)
(-9.87571e-05 -0.051411 0)
(-9.80452e-05 -0.0514104 0)
(-9.73329e-05 -0.0514098 0)
(-9.66204e-05 -0.0514093 0)
(-9.59077e-05 -0.0514087 0)
(-9.51949e-05 -0.0514081 0)
(-9.4482e-05 -0.0514076 0)
(-9.37692e-05 -0.051407 0)
(-9.30564e-05 -0.0514065 0)
(-9.23437e-05 -0.0514059 0)
)
;
    }
    procBoundary4to7
    {
        type            processor;
        value           nonuniform List<vector> 
50
(
(-0.000664532 0.00328448 0)
(-0.000815197 -0.00875207 0)
(-0.000808233 -0.0502934 0)
(-0.000720047 -0.0748294 0)
(-0.00061104 -0.0536058 0)
(-0.000517789 -0.0504028 0)
(-0.00044691 -0.0507837 0)
(-0.000395687 -0.0513777 0)
(-0.000358539 -0.0515095 0)
(-0.000330605 -0.0514891 0)
(-0.000308601 -0.051467 0)
(-0.000290587 -0.0514614 0)
(-0.000275469 -0.0514613 0)
(-0.000262603 -0.0514612 0)
(-0.000251561 -0.0514605 0)
(-0.000242001 -0.0514595 0)
(-0.000233631 -0.0514586 0)
(-0.000226191 -0.0514577 0)
(-0.000219463 -0.0514568 0)
(-0.000213268 -0.0514559 0)
(-0.000207473 -0.051455 0)
(-0.000201984 -0.0514541 0)
(-0.000196742 -0.0514533 0)
(-0.000191715 -0.0514525 0)
(-0.000186889 -0.0514517 0)
(-5.70024e-06 -0.0512736 0)
(-5.50116e-06 -0.0512736 0)
(-5.30608e-06 -0.0512737 0)
(-5.11539e-06 -0.0512737 0)
(-4.92939e-06 -0.0512738 0)
(-4.74837e-06 -0.0512738 0)
(-4.5726e-06 -0.0512739 0)
(-4.40227e-06 -0.0512739 0)
(-4.23759e-06 -0.0512739 0)
(-4.07872e-06 -0.051274 0)
(-3.92585e-06 -0.051274 0)
(-3.77916e-06 -0.051274 0)
(-3.63887e-06 -0.0512741 0)
(-3.50526e-06 -0.0512741 0)
(-3.37865e-06 -0.0512741 0)
(-3.25942e-06 -0.0512742 0)
(-3.14806e-06 -0.0512742 0)
(-3.04512e-06 -0.0512742 0)
(-2.95132e-06 -0.0512742 0)
(-2.8675e-06 -0.0512743 0)
(-2.79462e-06 -0.0512743 0)
(-2.73373e-06 -0.0512743 0)
(-2.68583e-06 -0.0512744 0)
(-2.65166e-06 -0.0512746 0)
(-2.63167e-06 -0.0512739 0)
)
;
    }
}


// ************************************************************************* //
