/*--------------------------------*- C++ -*----------------------------------*\
| =========                 |                                                 |
| \\      /  F ield         | OpenFOAM: The Open Source CFD Toolbox           |
|  \\    /   O peration     | Version:  2.4.0                                 |
|   \\  /    A nd           | Web:      www.OpenFOAM.org                      |
|    \\/     M anipulation  |                                                 |
\*---------------------------------------------------------------------------*/
FoamFile
{
    version     2.0;
    format      ascii;
    class       volScalarField;
    location    "2.5";
    object      p_rgh;
}
// * * * * * * * * * * * * * * * * * * * * * * * * * * * * * * * * * * * * * //

dimensions      [1 -1 -2 0 0 0 0];

internalField   nonuniform List<scalar> 
8000
(
27.606
27.6065
27.6072
27.608
27.6088
27.6097
27.6107
27.6118
27.613
27.6143
27.6156
27.6171
27.6187
27.6205
27.6223
27.6243
27.6264
27.6288
27.6313
27.634
27.6369
27.6401
27.6434
27.6464
27.6495
27.6561
27.6755
27.7034
27.6474
27.2753
22.888
0.00903497
0.0094738
0.00937579
0.00934571
0.00934411
0.00934513
0.00934332
0.00933975
0.00933541
0.00933054
0.00932513
0.0093192
0.00931279
0.00930594
0.00929869
0.00929108
0.00928314
0.00927491
0.00926641
28.9583
28.961
28.9639
28.9666
28.9689
28.971
28.9728
28.9743
28.9756
28.9766
28.9773
28.9778
28.9781
28.978
28.9777
28.9771
28.9763
28.9751
28.9737
28.972
28.97
28.9677
28.9649
28.9615
28.9578
28.9563
28.9637
28.9743
28.9152
28.6265
17.6174
0.00954361
0.0100003
0.00989324
0.00986608
0.00986582
0.00986734
0.00986624
0.00986378
0.00986086
0.00985766
0.00985411
0.00985021
0.00984596
0.00984136
0.00983644
0.00983119
0.00982564
0.00981979
0.00981365
30.2389
30.243
30.247
30.2504
30.2532
30.2557
30.2577
30.2593
30.2605
30.2614
30.2618
30.2618
30.2614
30.2606
30.2594
30.2578
30.2558
30.2533
30.2505
30.2472
30.2435
30.2394
30.2346
30.2292
30.2241
30.2223
30.2258
30.2119
30.0992
29.8494
7.74437
0.0102744
0.0106477
0.0105524
0.0105297
0.010529
0.0105293
0.0105273
0.010524
0.0105203
0.0105163
0.010512
0.0105073
0.0105023
0.0104969
0.0104912
0.0104852
0.0104789
0.0104723
0.0104654
31.8187
31.8218
31.8255
31.8288
31.8317
31.8343
31.8365
31.8384
31.8401
31.8413
31.8423
31.8429
31.8431
31.843
31.8425
31.8416
31.8404
31.8387
31.8365
31.834
31.8309
31.8272
31.8225
31.8173
31.8155
31.8239
31.8297
31.7366
31.3758
23.1856
0.482251
0.0111369
0.0113309
0.0112686
0.0112446
0.011239
0.0112355
0.0112304
0.0112244
0.0112179
0.0112113
0.0112044
0.0111972
0.0111898
0.0111821
0.0111742
0.011166
0.0111576
0.011149
0.0111402
33.1218
33.1271
33.1322
33.1363
33.1396
33.1424
33.1445
33.146
33.1469
33.1471
33.1468
33.1457
33.1441
33.1418
33.1387
33.1351
33.1306
33.1255
33.1197
33.113
33.1054
33.0963
33.0865
33.0817
33.0911
33.0948
32.9565
32.4414
26.9398
3.34367
0.0227069
0.0120467
0.0120081
0.0119858
0.0119762
0.0119696
0.0119624
0.0119544
0.0119458
0.011937
0.0119279
0.0119185
0.0119089
0.0118991
0.0118891
0.0118789
0.0118685
0.0118579
0.0118472
0.0118363
34.898
34.8984
34.8994
34.9011
34.9034
34.9063
34.9098
34.9138
34.9185
34.9238
34.9296
34.9361
34.9432
34.951
34.9594
34.9685
34.9783
34.9889
35.0001
35.0115
35.023
35.0382
35.0678
35.1157
35.1001
34.754
33.7861
26.2252
4.51373
0.167108
0.0135816
0.0128965
0.0128785
0.0128681
0.0128539
0.0128384
0.0128229
0.0128077
0.0127926
0.0127776
0.0127626
0.0127478
0.0127329
0.0127182
0.0127035
0.0126888
0.0126742
0.0126596
0.012645
0.0126304
36.4084
36.4089
36.41
36.4115
36.4133
36.4154
36.4177
36.4203
36.4231
36.4261
36.4293
36.4326
36.4359
36.4394
36.4428
36.4463
36.4496
36.4526
36.4541
36.4542
36.4599
36.495
36.5634
36.4802
35.6595
33.7254
18.5184
2.77623
0.205812
0.0202935
0.0138575
0.0137535
0.0137128
0.0136737
0.0136386
0.0136069
0.0135773
0.0135494
0.013523
0.0134981
0.0134745
0.0134521
0.0134308
0.0134104
0.0133908
0.013372
0.0133537
0.0133361
0.0133189
0.0133021
37.581
37.5838
37.5864
37.5891
37.5924
37.5962
37.6005
37.6053
37.6107
37.6164
37.6227
37.6293
37.6364
37.6439
37.652
37.6601
37.6681
37.6756
37.6881
37.7186
37.7667
37.7183
37.2498
35.9151
29.8597
9.04964
0.999893
0.0798263
0.0122759
0.0147733
0.0144592
0.014281
0.0142532
0.0142588
0.0142591
0.014254
0.0142475
0.0142409
0.0142343
0.0142276
0.0142205
0.0142131
0.0142054
0.0141974
0.0141889
0.0141801
0.0141708
0.0141612
0.0141511
0.0141406
39.5164
39.5159
39.5188
39.5252
39.5347
39.5471
39.5625
39.5808
39.6023
39.6267
39.6547
39.6857
39.7206
39.7587
39.8004
39.8453
39.896
39.9631
40.0629
40.1499
39.9689
38.7448
36.4404
17.2277
1.99418
-0.0382075
0.013833
0.0176301
0.0149398
0.014745
0.0147695
0.0148037
0.014821
0.0148298
0.0148353
0.0148389
0.0148408
0.014841
0.0148401
0.0148382
0.0148355
0.0148321
0.0148279
0.0148231
0.0148176
0.0148115
0.0148047
0.0147974
0.0147895
0.014781
39.8535
39.8706
39.8888
39.9058
39.9217
39.937
39.9516
39.9657
39.9792
39.9921
40.0044
40.0161
40.0267
40.0352
40.0433
40.0644
40.1246
40.1974
39.9816
38.4842
35.4357
21.625
2.73206
-0.0932237
0.0719779
0.0216967
0.0149822
0.0153308
0.0153967
0.0154291
0.0154723
0.0155184
0.0155614
0.0156001
0.0156349
0.0156665
0.015695
0.0157206
0.0157435
0.0157634
0.0157806
0.0157953
0.0158074
0.015817
0.0158244
0.0158296
0.0158328
0.0158342
0.0158339
0.0158319
40.6776
40.723
40.7684
40.804
40.8297
40.847
40.8559
40.8567
40.8487
40.8319
40.8053
40.7684
40.7232
40.6823
40.6656
40.6427
40.3438
38.7762
35.5255
23.1392
2.82112
0.102491
0.172683
0.0148063
0.0186752
0.0178929
0.0174756
0.0173849
0.0173744
0.01735
0.0173156
0.0172807
0.0172479
0.017217
0.017187
0.0171577
0.0171289
0.0171006
0.0170728
0.0170456
0.0170188
0.0169924
0.0169667
0.0169416
0.0169171
0.016893
0.0168694
0.0168462
0.0168232
0.0168005
42.4459
42.4877
42.5297
42.5662
42.5987
42.6281
42.6546
42.6777
42.6975
42.7136
42.7296
42.7574
42.823
42.8906
42.6247
40.5575
36.263
22.1425
0.368451
-0.0728587
0.142728
0.017261
0.0204988
0.0179455
0.0177982
0.0180014
0.018107
0.0181355
0.0181475
0.0181596
0.0181719
0.018183
0.0181927
0.0182012
0.0182083
0.0182124
0.0182149
0.0182158
0.0182149
0.0182123
0.0182079
0.0182018
0.0181942
0.0181851
0.0181745
0.0181626
0.0181493
0.0181348
0.018119
0.018102
47.332
47.3125
47.3057
47.3209
47.3547
47.409
47.4797
47.5737
47.6938
47.861
48.0615
48.1474
47.0016
43.0334
37.6714
18.477
-0.684806
0.206417
-0.00691352
0.0179665
0.0188532
0.0161062
0.0165084
0.017008
0.0172915
0.0174653
0.0176073
0.0177387
0.0178598
0.0179704
0.0180713
0.0181631
0.0182461
0.0183206
0.0183924
0.0184591
0.0185194
0.0185733
0.0186215
0.0186642
0.0187017
0.0187342
0.018762
0.0187854
0.0188045
0.0188197
0.018831
0.0188388
0.0188433
0.0188447
46.8446
46.8492
46.8668
46.9046
46.9582
47.0409
47.178
47.3974
47.498
46.6867
43.1571
40.387
26.6686
-2.07567
-1.62641
0.153298
0.0252949
0.0323216
0.0238232
0.0230337
0.023053
0.023056
0.022954
0.0228193
0.0226817
0.0225579
0.0224468
0.0223456
0.0222528
0.0221674
0.0220887
0.0220158
0.0219485
0.0218857
0.0218196
0.0217559
0.0216943
0.0216344
0.0215759
0.0215185
0.0214622
0.0214066
0.0213517
0.0212974
0.0212436
0.0211902
0.0211371
0.0210841
0.0210313
0.0209786
42.0841
42.136
42.1835
42.221
42.3115
42.5288
42.5999
41.0279
35.4104
30.152
0.249592
1.12552
1.17773
0.0285146
0.0305925
0.0260329
0.025123
0.0253715
0.0257418
0.0257219
0.0255907
0.0254391
0.0252917
0.0251518
0.0250154
0.024881
0.0247487
0.0246189
0.0244918
0.0243679
0.0242472
0.0241298
0.0240157
0.0239044
0.0237984
0.0236958
0.0235962
0.0234996
0.0234057
0.0233144
0.0232253
0.0231384
0.0230534
0.0229701
0.0228885
0.0228084
0.0227296
0.022652
0.0225755
0.0224999
39.3089
39.2418
39.1652
39.114
39.0202
38.3728
36.3184
28.0808
-2.2295
0.172533
0.229483
0.0258899
0.0456755
0.028269
0.02747
0.0271745
0.0270623
0.0269663
0.0268179
0.0266539
0.0265075
0.0263776
0.0262589
0.0261482
0.0260434
0.0259433
0.0258471
0.0257539
0.0256634
0.0255749
0.0254881
0.0254027
0.0253187
0.025236
0.0251543
0.0250733
0.024993
0.0249133
0.0248341
0.0247553
0.0246769
0.0245988
0.0245209
0.0244432
0.0243656
0.0242881
0.0242105
0.024133
0.0240554
0.0239776
44.8364
44.6994
44.5644
44.3502
43.6571
42.2691
22.1654
-0.0801884
-0.00550162
0.0367875
0.0362268
0.0327119
0.0310698
0.0306646
0.0304491
0.0301361
0.0297726
0.0294372
0.0291459
0.0288891
0.0286598
0.0284534
0.0282669
0.0280975
0.0279425
0.0277997
0.0276672
0.0275434
0.0274268
0.0273163
0.027211
0.02711
0.027012
0.0269169
0.0268241
0.0267334
0.0266443
0.0265565
0.0264699
0.0263841
0.0262989
0.0262142
0.0261299
0.0260458
0.0259617
0.0258777
0.0257935
0.0257092
0.0256246
0.0255396
48.4143
48.4437
48.4948
48.0005
45.5364
38.3083
0.116187
0.0318894
0.0326673
0.0311105
0.0309376
0.0309649
0.0308972
0.030794
0.0306284
0.0304408
0.0302511
0.0300661
0.0298881
0.0297185
0.0295585
0.0294086
0.0292687
0.0291385
0.0290172
0.0289039
0.0287976
0.0286975
0.0286026
0.0285122
0.0284254
0.0283414
0.0282601
0.0281807
0.0281029
0.0280263
0.0279504
0.027875
0.0277994
0.0277236
0.0276471
0.0275699
0.0274916
0.0274123
0.0273318
0.02725
0.0271668
0.0270822
0.0269961
0.0269085
50.583
50.6413
50.7136
50.3402
48.4433
32.3371
0.0310565
0.033703
0.0331085
0.0328688
0.0328937
0.0329334
0.0329212
0.0328726
0.0327991
0.0327048
0.0325927
0.032467
0.0323322
0.0321925
0.0320511
0.0319105
0.0317726
0.0316388
0.0315097
0.0313859
0.0312674
0.031154
0.0310454
0.0309411
0.0308405
0.0307431
0.0306481
0.0305549
0.0304626
0.0303707
0.0302787
0.0301866
0.0300944
0.030002
0.029909
0.0298153
0.0297207
0.0296251
0.0295283
0.0294303
0.029331
0.0292303
0.0291282
0.0290247
52.5277
52.5918
52.6685
52.3179
50.5366
30.7062
0.034096
0.0372175
0.0366413
0.0364775
0.0365257
0.0365273
0.0365258
0.0364991
0.036451
0.0363824
0.0362946
0.036189
0.0360681
0.0359344
0.0357903
0.0356382
0.0354801
0.0353177
0.0351526
0.034986
0.0348187
0.0346515
0.0344847
0.0343186
0.0341534
0.0339891
0.0338257
0.0336631
0.0335012
0.03334
0.0331792
0.0330187
0.0328581
0.0326972
0.0325361
0.0323749
0.0322133
0.0320509
0.0318874
0.0317231
0.0315579
0.0313918
0.0312247
0.0310567
0.00925768
0.00924874
0.0092396
0.0092303
0.00922085
0.00921126
0.00920155
0.00919174
0.00918183
0.00917183
0.00916176
0.00915161
0.0091414
0.00913114
0.00912081
0.00911044
0.00910001
0.00908954
0.00907902
0.00906845
0.00905784
0.00904719
0.00903648
0.00902574
0.00901494
0.0090041
0.00899321
0.00898226
0.00897126
0.00896021
0.00894911
0.00893794
0.00892671
0.00891543
0.00890408
0.00889266
0.00888118
0.00886963
0.00885801
0.00884632
0.00883456
0.00882272
0.00881081
0.00879881
0.00878674
0.00877459
0.00876236
0.00875005
0.00873775
0.00872534
0.00980723
0.00980054
0.00979359
0.00978638
0.00977894
0.00977126
0.00976336
0.00975524
0.00974691
0.00973839
0.00972966
0.00972076
0.00971167
0.00970241
0.00969298
0.00968338
0.00967363
0.00966373
0.00965368
0.00964348
0.00963314
0.00962267
0.00961206
0.00960132
0.00959046
0.00957946
0.00956835
0.00955711
0.00954576
0.00953429
0.0095227
0.009511
0.00949919
0.00948726
0.00947522
0.00946308
0.00945082
0.00943846
0.00942599
0.00941341
0.00940073
0.00938794
0.00937504
0.00936204
0.00934894
0.00933573
0.00932242
0.00930902
0.0092956
0.009282
0.0104583
0.0104509
0.0104432
0.0104353
0.0104271
0.0104187
0.0104101
0.0104013
0.0103922
0.0103829
0.0103735
0.0103638
0.010354
0.0103439
0.0103337
0.0103233
0.0103127
0.0103019
0.010291
0.0102799
0.0102687
0.0102573
0.0102457
0.010234
0.0102221
0.0102101
0.0101979
0.0101856
0.0101731
0.0101605
0.0101478
0.0101349
0.0101218
0.0101087
0.0100954
0.0100819
0.0100683
0.0100546
0.0100408
0.0100268
0.0100127
0.0099984
0.00998402
0.00996951
0.00995487
0.0099401
0.00992521
0.0099102
0.00989516
0.00987997
0.0111312
0.0111219
0.0111124
0.0111028
0.0110929
0.0110829
0.0110726
0.0110622
0.0110516
0.0110408
0.0110298
0.0110186
0.0110073
0.0109958
0.0109841
0.0109723
0.0109603
0.0109481
0.0109358
0.0109233
0.0109107
0.0108979
0.0108849
0.0108718
0.0108586
0.0108452
0.0108316
0.0108179
0.0108041
0.0107901
0.010776
0.0107617
0.0107473
0.0107327
0.0107181
0.0107032
0.0106882
0.0106731
0.0106579
0.0106425
0.0106269
0.0106113
0.0105955
0.0105795
0.0105635
0.0105472
0.0105309
0.0105145
0.010498
0.0104813
0.0118253
0.0118141
0.0118027
0.0117913
0.0117797
0.0117679
0.011756
0.011744
0.0117318
0.0117195
0.011707
0.0116944
0.0116817
0.0116688
0.0116558
0.0116426
0.0116293
0.0116159
0.0116022
0.0115885
0.0115746
0.0115605
0.0115463
0.0115319
0.0115173
0.0115026
0.0114878
0.0114728
0.0114576
0.0114423
0.0114268
0.0114111
0.0113953
0.0113793
0.0113632
0.0113469
0.0113305
0.0113139
0.0112972
0.0112802
0.0112632
0.0112459
0.0112285
0.0112109
0.0111932
0.0111754
0.0111573
0.0111391
0.0111209
0.0111024
0.0126158
0.0126012
0.0125866
0.012572
0.0125573
0.0125425
0.0125277
0.0125129
0.0124979
0.0124829
0.0124678
0.0124526
0.0124374
0.012422
0.0124065
0.0123909
0.0123752
0.0123593
0.0123433
0.0123272
0.012311
0.0122946
0.0122781
0.0122615
0.0122447
0.0122277
0.0122106
0.0121934
0.012176
0.0121584
0.0121407
0.0121228
0.0121047
0.0120865
0.0120681
0.0120496
0.0120309
0.0120122
0.0119934
0.0119742
0.0119546
0.0119349
0.0119149
0.0118948
0.0118746
0.0118543
0.0118339
0.0118134
0.0117929
0.0117722
0.0132856
0.0132694
0.0132535
0.0132377
0.0132221
0.0132065
0.0131911
0.0131757
0.0131603
0.0131449
0.0131295
0.013114
0.0130984
0.0130828
0.0130671
0.0130512
0.0130352
0.0130191
0.0130028
0.0129864
0.0129698
0.012953
0.0129361
0.0129189
0.0129016
0.0128841
0.0128664
0.0128485
0.0128304
0.0128121
0.0127937
0.012775
0.0127561
0.012737
0.0127177
0.0126982
0.0126784
0.0126583
0.0126379
0.0126176
0.0125973
0.0125768
0.0125561
0.0125352
0.012514
0.0124926
0.0124709
0.0124491
0.0124272
0.0124049
0.0141297
0.0141184
0.0141067
0.0140945
0.0140819
0.014069
0.0140556
0.0140418
0.0140277
0.0140131
0.0139982
0.0139829
0.0139672
0.0139511
0.0139347
0.0139179
0.0139008
0.0138834
0.0138655
0.0138474
0.0138289
0.0138101
0.013791
0.0137716
0.0137518
0.0137317
0.0137114
0.0136907
0.0136697
0.0136485
0.0136269
0.0136051
0.013583
0.0135606
0.013538
0.0135151
0.0134919
0.0134684
0.0134448
0.0134208
0.0133967
0.0133723
0.0133476
0.0133228
0.0132977
0.0132725
0.013247
0.0132213
0.0131956
0.0131697
0.014772
0.0147624
0.0147523
0.0147417
0.0147306
0.014719
0.014707
0.0146944
0.0146815
0.014668
0.0146541
0.0146398
0.014625
0.0146098
0.0145941
0.0145781
0.0145616
0.0145447
0.0145274
0.0145097
0.0144916
0.0144731
0.0144542
0.014435
0.0144153
0.0143953
0.0143749
0.0143541
0.014333
0.0143115
0.0142897
0.0142675
0.014245
0.0142221
0.0141989
0.0141754
0.0141515
0.0141274
0.0141029
0.0140781
0.0140531
0.0140277
0.014002
0.0139761
0.0139499
0.0139233
0.0138966
0.0138696
0.0138425
0.0138149
0.0158283
0.0158234
0.0158171
0.0158095
0.0158006
0.0157906
0.0157795
0.0157674
0.0157543
0.0157402
0.0157251
0.0157092
0.0156925
0.015675
0.0156566
0.0156376
0.0156178
0.0155973
0.0155761
0.0155543
0.0155319
0.0155089
0.0154853
0.0154612
0.0154365
0.0154113
0.0153856
0.0153593
0.0153327
0.0153055
0.015278
0.01525
0.0152216
0.0151928
0.0151636
0.015134
0.0151041
0.0150738
0.0150432
0.0150122
0.014981
0.0149494
0.0149175
0.0148854
0.014853
0.0148203
0.0147874
0.0147542
0.014721
0.0146876
0.0167779
0.0167555
0.0167332
0.0167109
0.0166885
0.0166661
0.0166436
0.0166209
0.016598
0.016575
0.0165517
0.0165281
0.0165043
0.0164802
0.0164557
0.0164309
0.0164058
0.0163804
0.0163545
0.0163283
0.0163018
0.0162748
0.0162475
0.0162198
0.0161917
0.0161632
0.0161343
0.016105
0.0160753
0.0160453
0.0160149
0.0159841
0.0159529
0.0159214
0.0158895
0.0158573
0.0158247
0.0157917
0.0157584
0.0157248
0.0156909
0.0156566
0.0156221
0.0155872
0.015552
0.0155166
0.0154809
0.0154449
0.0154089
0.0153723
0.0180839
0.0180647
0.0180444
0.0180231
0.0180007
0.0179774
0.0179532
0.0179281
0.017902
0.0178751
0.0178474
0.0178189
0.0177896
0.0177595
0.0177287
0.0176972
0.017665
0.0176322
0.0175987
0.0175645
0.0175298
0.0174944
0.0174585
0.0174221
0.0173851
0.0173476
0.0173096
0.0172711
0.0172322
0.0171929
0.0171531
0.0171129
0.0170723
0.0170313
0.01699
0.0169483
0.0169062
0.0168639
0.0168213
0.0167783
0.0167351
0.0166916
0.0166479
0.0166039
0.0165597
0.0165152
0.0164706
0.0164257
0.016381
0.0163362
0.018843
0.0188386
0.0188316
0.018822
0.0188102
0.0187961
0.01878
0.0187619
0.0187419
0.0187202
0.0186968
0.0186719
0.0186455
0.0186177
0.0185885
0.0185581
0.0185265
0.0184937
0.0184598
0.0184249
0.0183891
0.0183523
0.0183146
0.018276
0.0182367
0.0181965
0.0181557
0.0181141
0.0180719
0.018029
0.0179855
0.0179414
0.0178968
0.0178517
0.017806
0.0177599
0.0177133
0.0176663
0.0176188
0.017571
0.0175228
0.0174743
0.0174254
0.0173762
0.0173267
0.0172769
0.0172268
0.0171766
0.0171264
0.0170757
0.020926
0.0208733
0.0208205
0.0207676
0.0207146
0.0206615
0.0206081
0.0205545
0.0205007
0.0204466
0.0203922
0.0203376
0.0202827
0.0202275
0.0201719
0.0201161
0.0200599
0.0200035
0.0199467
0.0198896
0.0198322
0.0197745
0.0197166
0.0196583
0.0195997
0.0195409
0.0194818
0.0194225
0.0193629
0.019303
0.019243
0.0191827
0.0191222
0.0190616
0.0190007
0.0189397
0.0188786
0.0188173
0.0187559
0.0186943
0.0186327
0.0185709
0.0185091
0.0184472
0.0183852
0.0183233
0.0182612
0.0181992
0.0181376
0.0180759
0.0224251
0.0223512
0.0222778
0.0222051
0.0221328
0.022061
0.0219895
0.0219183
0.0218473
0.0217765
0.0217059
0.0216353
0.0215649
0.0214944
0.0214239
0.0213534
0.0212828
0.0212121
0.0211414
0.0210705
0.0209995
0.0209284
0.0208571
0.0207856
0.020714
0.0206422
0.0205703
0.0204982
0.0204259
0.0203535
0.0202809
0.0202082
0.0201353
0.0200623
0.0199892
0.019916
0.0198427
0.0197692
0.0196958
0.0196222
0.0195486
0.0194749
0.0194012
0.0193275
0.0192537
0.01918
0.0191062
0.0190326
0.0189594
0.0188859
0.0238998
0.0238218
0.0237435
0.0236651
0.0235864
0.0235074
0.0234282
0.0233487
0.0232688
0.0231886
0.0231081
0.0230273
0.0229461
0.0228645
0.0227826
0.0227004
0.0226178
0.0225348
0.0224516
0.022368
0.0222842
0.0222
0.0221155
0.0220308
0.0219458
0.0218605
0.0217751
0.0216895
0.0216036
0.0215176
0.0214315
0.0213452
0.0212588
0.0211723
0.0210857
0.0209991
0.0209124
0.0208259
0.0207393
0.0206529
0.0205666
0.0204803
0.0203942
0.0203082
0.0202224
0.0201368
0.0200514
0.0199663
0.019882
0.0197977
0.0254543
0.0253686
0.0252824
0.0251957
0.0251084
0.0250206
0.0249322
0.0248431
0.0247534
0.0246631
0.024572
0.0244803
0.0243878
0.0242947
0.0242008
0.0241062
0.024011
0.023915
0.0238183
0.023721
0.023623
0.0235244
0.0234251
0.0233253
0.023225
0.0231242
0.023023
0.0229214
0.0228194
0.0227168
0.0226139
0.0225106
0.022407
0.0223031
0.0221988
0.0220941
0.0219892
0.0218843
0.0217794
0.0216746
0.0215698
0.0214651
0.0213604
0.0212556
0.0211508
0.021046
0.0209412
0.0208366
0.0207325
0.0206281
0.0268195
0.026729
0.026637
0.0265435
0.0264485
0.0263521
0.0262543
0.0261551
0.0260545
0.0259526
0.0258493
0.0257448
0.025639
0.0255321
0.0254239
0.0253146
0.0252043
0.025093
0.0249808
0.0248672
0.0247526
0.0246373
0.0245212
0.0244046
0.0242873
0.0241699
0.0240547
0.0239368
0.0238187
0.0237
0.0235803
0.0234609
0.0233419
0.0232227
0.0231028
0.0229822
0.0228613
0.0227409
0.0226211
0.0225019
0.0223833
0.0222653
0.0221479
0.0220312
0.0219153
0.0218003
0.0216864
0.0215741
0.0214637
0.021354
0.0289196
0.0288129
0.0287047
0.0285949
0.0284834
0.0283704
0.0282557
0.0281393
0.0280213
0.0279016
0.0277801
0.027657
0.0275321
0.0274055
0.0272772
0.0271473
0.0270158
0.0268832
0.0267491
0.0266119
0.026473
0.0263335
0.0261946
0.0260536
0.0259089
0.025762
0.0256314
0.0254843
0.0253403
0.0251922
0.0250364
0.0248835
0.0247325
0.0245806
0.0244252
0.0242676
0.024109
0.0239512
0.0237937
0.0236353
0.0234758
0.0233174
0.0231636
0.0230179
0.0228736
0.0227296
0.0225864
0.0224435
0.022301
0.0221579
0.0308877
0.0307176
0.0305464
0.0303742
0.0302008
0.0300264
0.029851
0.0296745
0.029497
0.0293184
0.0291387
0.028958
0.0287762
0.0285935
0.0284101
0.0282261
0.028042
0.0278589
0.0276726
0.0274816
0.0272952
0.0271265
0.0269943
0.026787
0.0266051
0.0263793
0.0263453
0.0260495
0.0258585
0.025676
0.0254928
0.0253174
0.0251315
0.0249434
0.024778
0.0246126
0.0244491
0.0242923
0.0241271
0.0239595
0.0237881
0.0236092
0.0234274
0.0232653
0.0231008
0.0230052
0.0227126
0.0225638
0.0224138
0.0223102
0.00871594
0.00870927
0.0087024
0.0086955
0.00868857
0.00868157
0.00867451
0.00866738
0.00866018
0.00865292
0.00864558
0.00863818
0.00863071
0.00862317
0.00861555
0.00860787
0.00860011
0.00859228
0.00858438
0.0085764
0.00856835
0.00856022
0.00855201
0.00854373
0.00853537
0.00852693
0.0085184
0.0085098
0.00850112
0.00849236
0.00848351
0.00847458
0.00846556
0.00845646
0.00844728
0.00843801
0.00842865
0.0084192
0.00840966
0.00840003
0.00839031
0.0083805
0.0083706
0.00836061
0.00835052
0.00834033
0.00833005
0.00831968
0.0083092
0.00829863
0.00828796
0.00827719
0.00826632
0.00825535
0.00824428
0.0082331
0.00822182
0.00821043
0.00819894
0.00818734
0.00817564
0.00816382
0.0081519
0.00813987
0.00812773
0.00811548
0.00810311
0.00809063
0.00807804
0.00806533
0.00805251
0.00803957
0.00802651
0.00801333
0.00800004
0.00798662
0.00797309
0.00795943
0.00794566
0.00793175
0.00791773
0.00790358
0.0078893
0.0078749
0.00786037
0.00784571
0.00783092
0.00781601
0.00780096
0.00778578
0.00777047
0.00775502
0.00773944
0.00772373
0.00770788
0.0076919
0.00767578
0.00765952
0.00764312
0.00762658
0.0076099
0.00759308
0.00757612
0.00755901
0.00754176
0.00752437
0.00750683
0.00748914
0.00747131
0.00745333
0.00743521
0.00741693
0.0073985
0.00737993
0.0073612
0.00734232
0.00732328
0.0073041
0.00728475
0.00726525
0.0072456
0.00722579
0.00720582
0.00718569
0.00716541
0.00714496
0.00712436
0.00710359
0.00708266
0.00706157
0.00704031
0.00701889
0.0069973
0.00697555
0.00695363
0.00693155
0.00690929
0.00688687
0.00686428
0.00684152
0.00681859
0.00679548
0.00677221
0.00674876
0.00672514
0.00670134
0.00667737
0.00665323
0.0066289
0.0066044
0.00657973
0.00655487
0.00652984
0.00650462
0.00647923
0.00645366
0.0064279
0.00640197
0.00637585
0.00634955
0.00632306
0.00629639
0.00626954
0.0062425
0.00621527
0.00618786
0.00616026
0.00613248
0.0061045
0.00607634
0.00604799
0.00601945
0.00599072
0.0059618
0.00593269
0.00590339
0.0058739
0.00584421
0.00581434
0.00578427
0.00575401
0.00572355
0.0056929
0.00566206
0.00563103
0.0055998
0.00556837
0.00553675
0.00550494
0.00547293
0.00544073
0.00540833
0.00537574
0.00534295
0.00530996
0.00527678
0.0052434
0.00520983
0.00517606
0.0051421
0.00510794
0.00507358
0.00503903
0.00500429
0.00496935
0.00493421
0.00489888
0.00486336
0.00482764
0.00479173
0.00475563
0.00471933
0.00468284
0.00464616
0.00460928
0.00457222
0.00453497
0.00449752
0.00445989
0.00442207
0.00438406
0.00434587
0.00430749
0.00426893
0.00423018
0.00419125
0.00415214
0.00411285
0.00407338
0.00403373
0.0039939
0.0039539
0.00391373
0.00387338
0.00383287
0.00379218
0.00375133
0.00371032
0.00366914
0.0036278
0.0035863
0.00354464
0.00350283
0.00346087
0.00341876
0.0033765
0.0033341
0.00329156
0.00324888
0.00320606
0.00316311
0.00312003
0.00307683
0.00303351
0.00299007
0.00294651
0.00290285
0.00285907
0.0028152
0.00277123
0.00272717
0.00268302
0.00263878
0.00259447
0.00255009
0.00250564
0.00246113
0.00241656
0.00237195
0.00232729
0.0022826
0.00223787
0.00219313
0.00214837
0.0021036
0.00205883
0.00201406
0.00196932
0.00192459
0.0018799
0.00183525
0.00179065
0.00174611
0.00170164
0.00165725
0.00161295
0.00156874
0.00152465
0.00148067
0.00143683
0.00139313
0.00134959
0.00130621
0.00126301
0.00122
0.0011772
0.00113457
0.00109207
0.0010499
0.00100904
0.00927157
0.0092642
0.00925667
0.00924913
0.00924156
0.00923391
0.00922618
0.00921839
0.00921051
0.00920256
0.00919453
0.00918642
0.00917824
0.00916997
0.00916163
0.0091532
0.00914469
0.0091361
0.00912742
0.00911867
0.00910982
0.0091009
0.00909188
0.00908278
0.0090736
0.00906432
0.00905496
0.0090455
0.00903596
0.00902633
0.0090166
0.00900678
0.00899687
0.00898686
0.00897677
0.00896657
0.00895628
0.00894589
0.00893541
0.00892482
0.00891414
0.00890336
0.00889247
0.00888149
0.0088704
0.00885921
0.00884792
0.00883652
0.00882502
0.00881341
0.00880169
0.00878986
0.00877793
0.00876589
0.00875374
0.00874147
0.0087291
0.00871661
0.00870401
0.00869129
0.00867846
0.00866552
0.00865245
0.00863927
0.00862597
0.00861256
0.00859902
0.00858536
0.00857158
0.00855767
0.00854365
0.0085295
0.00851522
0.00850082
0.00848629
0.00847164
0.00845685
0.00844194
0.0084269
0.00841172
0.00839642
0.00838098
0.00836541
0.0083497
0.00833386
0.00831788
0.00830177
0.00828551
0.00826912
0.00825259
0.00823592
0.00821911
0.00820216
0.00818506
0.00816782
0.00815043
0.0081329
0.00811523
0.0080974
0.00807943
0.00806131
0.00804304
0.00802462
0.00800604
0.00798732
0.00796844
0.00794941
0.00793022
0.00791088
0.00789138
0.00787172
0.00785191
0.00783193
0.0078118
0.0077915
0.00777105
0.00775043
0.00772965
0.0077087
0.00768759
0.00766632
0.00764488
0.00762327
0.00760149
0.00757955
0.00755743
0.00753514
0.00751269
0.00749006
0.00746726
0.00744429
0.00742114
0.00739781
0.00737432
0.00735064
0.00732679
0.00730276
0.00727855
0.00725416
0.0072296
0.00720485
0.00717992
0.00715481
0.00712952
0.00710404
0.00707838
0.00705253
0.0070265
0.00700029
0.00697388
0.00694729
0.00692051
0.00689355
0.00686639
0.00683905
0.00681151
0.00678379
0.00675587
0.00672776
0.00669946
0.00667097
0.00664228
0.0066134
0.00658432
0.00655505
0.00652558
0.00649592
0.00646606
0.00643601
0.00640575
0.0063753
0.00634465
0.0063138
0.00628276
0.00625151
0.00622006
0.00618842
0.00615657
0.00612452
0.00609227
0.00605982
0.00602716
0.0059943
0.00596125
0.00592798
0.00589452
0.00586085
0.00582698
0.0057929
0.00575862
0.00572413
0.00568944
0.00565455
0.00561945
0.00558414
0.00554863
0.00551292
0.005477
0.00544088
0.00540455
0.00536801
0.00533127
0.00529432
0.00525717
0.00521982
0.00518226
0.00514449
0.00510653
0.00506835
0.00502998
0.0049914
0.00495261
0.00491363
0.00487444
0.00483505
0.00479546
0.00475567
0.00471568
0.00467549
0.0046351
0.00459451
0.00455372
0.00451274
0.00447156
0.00443019
0.00438863
0.00434687
0.00430492
0.00426278
0.00422045
0.00417793
0.00413523
0.00409234
0.00404927
0.00400602
0.00396259
0.00391897
0.00387519
0.00383123
0.00378709
0.00374279
0.00369832
0.00365368
0.00360888
0.00356391
0.00351879
0.00347352
0.00342809
0.00338252
0.00333679
0.00329093
0.00324492
0.00319878
0.00315251
0.00310611
0.00305958
0.00301293
0.00296617
0.0029193
0.00287232
0.00282523
0.00277805
0.00273078
0.00268342
0.00263598
0.00258847
0.00254089
0.00249324
0.00244554
0.00239779
0.00234999
0.00230216
0.0022543
0.00220642
0.00215853
0.00211063
0.00206274
0.00201486
0.001967
0.00191917
0.00187138
0.00182364
0.00177596
0.00172834
0.00168081
0.00163337
0.00158603
0.0015388
0.0014917
0.00144474
0.00139792
0.00135127
0.00130479
0.0012585
0.00121241
0.00116654
0.00112085
0.0010753
0.00103007
0.000986268
0.00986839
0.0098602
0.00985179
0.00984335
0.00983486
0.00982629
0.00981764
0.00980891
0.00980009
0.00979119
0.0097822
0.00977313
0.00976397
0.00975473
0.00974539
0.00973597
0.00972646
0.00971686
0.00970717
0.00969738
0.00968751
0.00967754
0.00966748
0.00965732
0.00964707
0.00963672
0.00962628
0.00961573
0.00960509
0.00959435
0.00958352
0.00957258
0.00956154
0.00955039
0.00953915
0.0095278
0.00951635
0.00950479
0.00949312
0.00948135
0.00946947
0.00945748
0.00944539
0.00943318
0.00942086
0.00940843
0.00939589
0.00938323
0.00937046
0.00935758
0.00934458
0.00933146
0.00931822
0.00930487
0.0092914
0.00927781
0.00926409
0.00925026
0.0092363
0.00922222
0.00920802
0.00919369
0.00917923
0.00916465
0.00914994
0.0091351
0.00912013
0.00910504
0.00908981
0.00907445
0.00905896
0.00904333
0.00902757
0.00901168
0.00899565
0.00897948
0.00896318
0.00894674
0.00893016
0.00891344
0.00889657
0.00887957
0.00886243
0.00884514
0.0088277
0.00881013
0.0087924
0.00877453
0.00875652
0.00873835
0.00872004
0.00870158
0.00868296
0.0086642
0.00864528
0.00862621
0.00860699
0.00858761
0.00856808
0.00854839
0.00852854
0.00850854
0.00848838
0.00846806
0.00844758
0.00842694
0.00840613
0.00838517
0.00836404
0.00834275
0.00832129
0.00829967
0.00827789
0.00825593
0.00823381
0.00821152
0.00818906
0.00816644
0.00814364
0.00812067
0.00809752
0.00807421
0.00805072
0.00802706
0.00800322
0.00797921
0.00795502
0.00793065
0.00790611
0.00788139
0.00785648
0.0078314
0.00780614
0.0077807
0.00775507
0.00772926
0.00770327
0.00767709
0.00765073
0.00762418
0.00759745
0.00757052
0.00754341
0.00751612
0.00748863
0.00746095
0.00743309
0.00740503
0.00737678
0.00734833
0.0073197
0.00729087
0.00726184
0.00723262
0.00720321
0.00717359
0.00714378
0.00711377
0.00708357
0.00705316
0.00702256
0.00699175
0.00696075
0.00692954
0.00689813
0.00686651
0.0068347
0.00680268
0.00677045
0.00673802
0.00670539
0.00667255
0.0066395
0.00660624
0.00657278
0.00653911
0.00650523
0.00647114
0.00643685
0.00640234
0.00636762
0.00633269
0.00629755
0.0062622
0.00622664
0.00619086
0.00615487
0.00611867
0.00608226
0.00604563
0.00600879
0.00597173
0.00593447
0.00589698
0.00585928
0.00582137
0.00578324
0.0057449
0.00570634
0.00566757
0.00562858
0.00558938
0.00554996
0.00551032
0.00547048
0.00543041
0.00539013
0.00534964
0.00530893
0.00526801
0.00522687
0.00518552
0.00514396
0.00510218
0.00506019
0.00501799
0.00497558
0.00493295
0.00489012
0.00484707
0.00480382
0.00476035
0.00471668
0.0046728
0.00462872
0.00458443
0.00453993
0.00449524
0.00445034
0.00440524
0.00435994
0.00431444
0.00426874
0.00422285
0.00417677
0.00413049
0.00408402
0.00403737
0.00399052
0.0039435
0.00389629
0.0038489
0.00380133
0.00375359
0.00370567
0.00365758
0.00360933
0.00356091
0.00351233
0.00346359
0.00341469
0.00336565
0.00331645
0.00326711
0.00321763
0.00316802
0.00311827
0.0030684
0.0030184
0.00296828
0.00291806
0.00286772
0.00281728
0.00276675
0.00271612
0.00266541
0.00261462
0.00256376
0.00251283
0.00246185
0.00241081
0.00235973
0.00230862
0.00225747
0.00220631
0.00215514
0.00210397
0.0020528
0.00200165
0.00195053
0.00189944
0.0018484
0.00179742
0.00174651
0.00169568
0.00164494
0.0015943
0.00154378
0.00149339
0.00144314
0.00139304
0.00134311
0.00129337
0.00124382
0.00119448
0.00114537
0.00109645
0.00104766
0.000999231
0.000952309
0.0104686
0.0104596
0.0104503
0.0104411
0.0104318
0.0104224
0.0104129
0.0104033
0.0103936
0.0103838
0.0103739
0.010364
0.0103539
0.0103437
0.0103335
0.0103231
0.0103126
0.0103021
0.0102914
0.0102806
0.0102697
0.0102588