/*--------------------------------*- C++ -*----------------------------------*\
| =========                 |                                                 |
| \\      /  F ield         | OpenFOAM: The Open Source CFD Toolbox           |
|  \\    /   O peration     | Version:  2.4.0                                 |
|   \\  /    A nd           | Web:      www.OpenFOAM.org                      |
|    \\/     M anipulation  |                                                 |
\*---------------------------------------------------------------------------*/
FoamFile
{
    version     2.0;
    format      ascii;
    class       surfaceScalarField;
    location    "2.5";
    object      phi;
}
// * * * * * * * * * * * * * * * * * * * * * * * * * * * * * * * * * * * * * //

dimensions      [0 3 -1 0 0 0 0];

internalField   nonuniform List<scalar> 
15580
(
5.08007e-15
-2.19652e-12
1.97804e-14
-6.44731e-12
4.47318e-14
-1.05563e-11
8.08527e-14
-1.45236e-11
1.28569e-13
-1.83488e-11
1.8792e-13
-2.20317e-11
2.58623e-13
-2.55723e-11
3.40149e-13
-2.89702e-11
4.31751e-13
-3.22254e-11
5.32513e-13
-3.53377e-11
6.41364e-13
-3.83071e-11
7.57136e-13
-4.11334e-11
8.78551e-13
-4.38167e-11
1.00432e-12
-4.63568e-11
1.13308e-12
-4.87539e-11
1.26358e-12
-5.10081e-11
1.39452e-12
-5.31193e-11
1.5249e-12
-5.50877e-11
1.65366e-12
-5.69134e-11
1.78037e-12
-5.85967e-11
1.9045e-12
-6.01377e-11
2.02657e-12
-6.15367e-11
2.1469e-12
-6.2794e-11
2.26754e-12
-6.391e-11
2.39007e-12
-6.48849e-11
2.51875e-12
-6.57194e-11
2.65716e-12
-6.64137e-11
2.81212e-12
-6.69692e-11
2.98959e-12
-6.73874e-11
3.19417e-12
-6.76706e-11
-2.47331e-11
-6.78341e-11
-2.4448e-11
-6.78458e-11
-2.42951e-11
-6.60357e-11
-2.40746e-11
-6.4192e-11
-2.38083e-11
-6.24119e-11
-2.35511e-11
-6.06578e-11
-2.33447e-11
-5.89072e-11
-2.32137e-11
-5.71589e-11
-2.31715e-11
-5.54195e-11
-2.32251e-11
-5.36977e-11
-2.33779e-11
-5.20004e-11
-2.36307e-11
-5.03329e-11
-2.39828e-11
-4.86984e-11
-2.44322e-11
-4.70991e-11
-2.49759e-11
-4.55361e-11
-2.56104e-11
-4.40102e-11
-2.63317e-11
-4.25215e-11
-2.71357e-11
-4.10699e-11
-2.80181e-11
-3.96547e-11
-3.82753e-11
-2.89744e-11
2.38347e-14
-2.22035e-12
9.68888e-14
-6.52037e-12
2.16819e-13
-1.06762e-11
3.79494e-13
-1.46863e-11
5.80962e-13
-1.85503e-11
8.17365e-13
-2.22681e-11
1.08492e-12
-2.58398e-11
1.37991e-12
-2.92652e-11
1.69865e-12
-3.25442e-11
2.03751e-12
-3.56766e-11
2.39285e-12
-3.86624e-11
2.76103e-12
-4.15016e-11
3.13844e-12
-4.41941e-11
3.52138e-12
-4.67398e-11
3.90619e-12
-4.91387e-11
4.2891e-12
-5.1391e-11
4.66635e-12
-5.34965e-11
5.03409e-12
-5.54554e-11
5.38845e-12
-5.72678e-11
5.72543e-12
-5.89337e-11
6.04108e-12
-6.04533e-11
6.33122e-12
-6.18269e-11
6.59177e-12
-6.30545e-11
6.81837e-12
-6.41366e-11
7.0068e-12
-6.50734e-11
7.15236e-12
-6.5865e-11
7.25048e-12
-6.65118e-11
7.29601e-12
-6.70147e-11
7.28541e-12
-6.73768e-11
7.21771e-12
-6.7603e-11
-1.90962e-11
-6.77336e-11
-1.92236e-11
-6.77184e-11
-1.93397e-11
-6.59195e-11
-1.94793e-11
-6.40524e-11
-1.96692e-11
-6.2222e-11
-1.99328e-11
-6.03942e-11
-2.0289e-11
-5.85511e-11
-2.07509e-11
-5.66969e-11
-2.13271e-11
-5.48433e-11
-2.2022e-11
-5.30028e-11
-2.28367e-11
-5.11856e-11
-2.37702e-11
-4.93993e-11
-2.48195e-11
-4.76491e-11
-2.59801e-11
-4.59385e-11
-2.72466e-11
-4.42696e-11
-2.86131e-11
-4.26437e-11
-3.00732e-11
-4.10615e-11
-3.162e-11
-3.9523e-11
-3.32471e-11
-3.80277e-11
-3.65749e-11
-3.49475e-11
4.5587e-14
-2.26594e-12
1.63245e-13
-6.63803e-12
3.42643e-13
-1.08556e-11
5.77812e-13
-1.49214e-11
8.62986e-13
-1.88354e-11
1.19255e-12
-2.25977e-11
1.56105e-12
-2.62083e-11
1.9631e-12
-2.96673e-11
2.39344e-12
-3.29745e-11
2.84682e-12
-3.613e-11
3.31805e-12
-3.91337e-11
3.80192e-12
-4.19855e-11
4.29321e-12
-4.46853e-11
4.78665e-12
-4.72332e-11
5.27694e-12
-4.9629e-11
5.75867e-12
-5.18727e-11
6.22638e-12
-5.39642e-11
6.67446e-12
-5.59035e-11
7.09725e-12
-5.76905e-11
7.4889e-12
-5.93253e-11
7.84348e-12
-6.08079e-11
8.15488e-12
-6.21383e-11
8.41691e-12
-6.33166e-11
8.62312e-12
-6.43428e-11
8.76697e-12
-6.52172e-11
8.84186e-12
-6.59399e-11
8.84202e-12
-6.6512e-11
8.76256e-12
-6.69352e-11
8.59723e-12
-6.72114e-11
3.86719e-12
-6.73591e-11
-1.40527e-11
-6.74215e-11
-1.441e-11
-6.73611e-11
-1.48776e-11
-6.5452e-11
-1.54073e-11
-6.35227e-11
-1.60357e-11
-6.15936e-11
-1.67801e-11
-5.96497e-11
-1.76559e-11
-5.76753e-11
-1.86745e-11
-5.56783e-11
-1.98431e-11
-5.36747e-11
-2.11647e-11
-5.16812e-11
-2.26389e-11
-4.97115e-11
-2.42622e-11
-4.77761e-11
-2.60289e-11
-4.58824e-11
-2.79316e-11
-4.40358e-11
-2.99613e-11
-4.22398e-11
-3.21083e-11
-4.04968e-11
-3.43621e-11
-3.88077e-11
-3.67121e-11
-3.71729e-11
-3.91477e-11
-3.55921e-11
-3.40642e-11
-4.16584e-11
2.317e-14
-2.28911e-12
1.04735e-13
-6.71959e-12
2.44835e-13
-1.09957e-11
4.38037e-13
-1.51146e-11
6.79075e-13
-1.90765e-11
9.62863e-13
-2.28815e-11
1.28436e-12
-2.65298e-11
1.63865e-12
-3.00215e-11
2.02075e-12
-3.33566e-11
2.42575e-12
-3.6535e-11
2.8486e-12
-3.95565e-11
3.28428e-12
-4.24211e-11
3.7275e-12
-4.51286e-11
4.17304e-12
-4.76787e-11
4.61526e-12
-5.00713e-11
5.04859e-12
-5.2306e-11
5.46693e-12
-5.43826e-11
5.86423e-12
-5.63008e-11
6.23381e-12
-5.80601e-11
6.56902e-12
-5.96605e-11
6.86248e-12
-6.11014e-11
7.10678e-12
-6.23826e-11
7.29358e-12
-6.35034e-11
7.41451e-12
-6.44637e-11
7.46091e-12
-6.52636e-11
7.42634e-12
-6.59053e-11
7.30664e-12
-6.63923e-11
7.09225e-12
-6.67209e-11
5.02163e-12
-6.69318e-11
-1.77595e-11
-6.71727e-11
-1.80679e-11
-6.7113e-11
-1.85105e-11
-6.69186e-11
-1.92275e-11
-6.4735e-11
-2.01084e-11
-6.26418e-11
-2.11645e-11
-6.05375e-11
-2.24312e-11
-5.8383e-11
-2.39275e-11
-5.6179e-11
-2.56599e-11
-5.39459e-11
-2.76273e-11
-5.17073e-11
-2.98237e-11
-4.94848e-11
-3.22392e-11
-4.7296e-11
-3.48609e-11
-4.51544e-11
-3.76736e-11
-4.30697e-11
-4.06606e-11
-4.10488e-11
-4.38043e-11
-3.90962e-11
-4.70864e-11
-3.72147e-11
-5.04886e-11
-3.54055e-11
-5.3993e-11
-3.36686e-11
-5.75819e-11
-3.20032e-11
-3.04075e-11
-6.12385e-11
6.21316e-14
-2.35124e-12
2.18572e-13
-6.87603e-12
4.54014e-13
-1.12312e-11
7.6067e-13
-1.54213e-11
1.13155e-12
-1.94473e-11
1.56021e-12
-2.33101e-11
2.04071e-12
-2.70103e-11
2.56738e-12
-3.05482e-11
3.1349e-12
-3.39241e-11
3.73789e-12
-3.7138e-11
4.37124e-12
-4.01899e-11
5.02951e-12
-4.30794e-11
5.70744e-12
-4.58065e-11
6.39911e-12
-4.83704e-11
7.09877e-12
-5.07709e-11
7.79956e-12
-5.30068e-11
8.49477e-12
-5.50778e-11
9.17602e-12
-5.6982e-11
9.83507e-12
-5.87192e-11
1.04613e-11
-6.02867e-11
1.10439e-11
-6.1684e-11
1.15688e-11
-6.29075e-11
1.20216e-11
-6.39561e-11
1.23839e-11
-6.48261e-11
1.264e-11
-6.55197e-11
1.27724e-11
-6.60377e-11
1.2749e-11
-6.63689e-11
9.27764e-12
-6.66445e-11
-1.47341e-11
-6.69249e-11
-1.49518e-11
-6.6955e-11
-1.51218e-11
-6.6943e-11
-1.63584e-11
-6.5682e-11
-1.78277e-11
-6.32657e-11
-1.96755e-11
-6.0794e-11
-2.19269e-11
-5.82861e-11
-2.45774e-11
-5.57324e-11
-2.76054e-11
-5.31509e-11
-3.09806e-11
-5.05708e-11
-3.46673e-11
-4.80205e-11
-3.86282e-11
-4.5524e-11
-4.28255e-11
-4.30987e-11
-4.72231e-11
-4.07568e-11
-5.17866e-11
-3.85062e-11
-5.64838e-11
-3.63516e-11
-6.12851e-11
-3.42949e-11
-6.61632e-11
-3.23365e-11
-7.10935e-11
-3.04752e-11
-7.60535e-11
-2.87086e-11
-8.1023e-11
-2.70337e-11
-2.54467e-11
-8.59838e-11
-7.20341e-15
-2.34404e-12
-1.01743e-14
-6.87306e-12
2.35834e-15
-1.12437e-11
3.76173e-14
-1.54565e-11
1.0189e-13
-1.95116e-11
2.01028e-13
-2.34093e-11
3.4042e-13
-2.71497e-11
5.25563e-13
-3.07334e-11
7.61733e-13
-3.41603e-11
1.05489e-12
-3.74311e-11
1.41092e-12
-4.05459e-11
1.83714e-12
-4.35056e-11
2.34079e-12
-4.63102e-11
2.93164e-12
-4.89613e-11
3.61914e-12
-5.14584e-11
4.4168e-12
-5.38045e-11
5.33727e-12
-5.59982e-11
6.39952e-12
-5.80443e-11
7.62043e-12
-5.99401e-11
9.02651e-12
-6.16928e-11
1.06402e-11
-6.32977e-11
1.25006e-11
-6.47679e-11
1.4643e-11
-6.60986e-11
1.71307e-11
-6.73137e-11
1.95958e-11
-6.79848e-11
2.20922e-11
-6.85342e-11
9.7039e-12
-6.88093e-11
-6.79442e-12
-6.90069e-11
-4.67742e-12
-6.90419e-11
-2.78492e-12
-6.88475e-11
-2.54955e-12
-6.71784e-11
-4.98866e-12
-6.32429e-11
-9.03974e-12
-5.92146e-11
-1.44192e-11
-5.54145e-11
-2.08946e-11
-5.18108e-11
-2.82528e-11
-4.83742e-11
-3.62997e-11
-4.5104e-11
-4.48598e-11
-4.20107e-11
-5.37767e-11
-3.91036e-11
-6.29142e-11
-3.63865e-11
-7.21556e-11
-3.38573e-11
-8.14029e-11
-3.15095e-11
-9.05755e-11
-2.93337e-11
-9.96083e-11
-2.73187e-11
-1.0845e-10
-2.54529e-11
-1.17062e-10
-2.37244e-11
-1.25416e-10
-2.21219e-11
-1.3349e-10
-2.06345e-11
-1.41271e-10
-1.92524e-11
-1.79663e-11
-1.48752e-10
-5.54804e-15
-2.33849e-12
-1.10971e-15
-6.8775e-12
2.43176e-14
-1.12691e-11
7.78662e-14
-1.55101e-11
1.66888e-13
-1.96006e-11
3.00276e-13
-2.35427e-11
4.86394e-13
-2.73358e-11
7.35515e-13
-3.09825e-11
1.05654e-12
-3.44813e-11
1.46102e-12
-3.78356e-11
1.95817e-12
-4.1043e-11
2.56103e-12
-4.41085e-11
3.27889e-12
-4.7028e-11
4.12655e-12
-4.98089e-11
5.113e-12
-5.24449e-11
6.25511e-12
-5.49466e-11
7.56083e-12
-5.7304e-11
9.04935e-12
-5.95328e-11
1.07263e-11
-6.1617e-11
1.26143e-11
-6.35808e-11
1.47175e-11
-6.54009e-11
1.70691e-11
-6.71195e-11
1.96784e-11
-6.87079e-11
2.25826e-11
-7.02178e-11
2.56883e-11
-7.27775e-11
-1.24985e-11
-7.20052e-11
-1.26021e-11
-7.17046e-11
-1.06045e-11
-7.10045e-11
-9.99012e-12
-6.96563e-11
-2.21439e-11
-5.66937e-11
-3.48134e-11
-5.45089e-11
-4.88127e-11
-4.92436e-11
-6.3224e-11
-4.48032e-11
-7.76654e-11
-4.09731e-11
-9.19124e-11
-3.75638e-11
-1.05796e-10
-3.44902e-11
-1.19196e-10
-3.17047e-11
-1.32032e-10
-2.91741e-11
-1.44264e-10
-2.6872e-11
-1.55874e-10
-2.47759e-11
-1.66865e-10
-2.28664e-11
-1.77249e-10
-2.11254e-11
-1.87046e-10
-1.95367e-11
-1.9628e-10
-1.80852e-11
-2.04976e-10
-1.67572e-11
-2.1316e-10
-1.55401e-11
-2.20859e-10
-1.44228e-11
-2.28099e-10
-1.33951e-11
-2.34903e-10
-1.24479e-11
-1.15732e-11
-2.41296e-10
3.90484e-14
-2.37754e-12
1.21893e-13
-6.96034e-12
2.46646e-13
-1.13939e-11
4.27066e-13
-1.56905e-11
6.78253e-13
-1.98518e-11
1.01526e-12
-2.38797e-11
1.45506e-12
-2.77756e-11
2.01409e-12
-3.15415e-11
2.71179e-12
-3.5179e-11
3.56625e-12
-3.86901e-11
4.60014e-12
-4.20769e-11
5.83322e-12
-4.53416e-11
7.29223e-12
-4.8487e-11
8.99821e-12
-5.15149e-11
1.09828e-11
-5.44294e-11
1.3267e-11
-5.72308e-11
1.58879e-11
-5.99248e-11
1.88639e-11
-6.25088e-11
2.22397e-11
-6.49928e-11
2.60411e-11
-6.73823e-11
3.03379e-11
-6.96977e-11
3.41833e-11
-7.0965e-11
3.76428e-11
-7.21674e-11
2.20761e-11
-7.26221e-11
-1.52214e-12
-7.24102e-11
-2.9501e-12
-7.07561e-11
-3.73928e-11
-3.72619e-11
-1.17985e-10
9.58727e-12
-1.852e-10
-2.441e-12
-2.45707e-10
3.81394e-12
-3.03463e-10
3.24685e-12
-3.52705e-10
-1.48983e-15
-3.94021e-10
-3.48751e-12
-4.28033e-10
-6.96089e-12
-4.55419e-10
-1.01779e-11
-4.76938e-10
-1.29713e-11
-4.93385e-10
-1.52575e-11
-5.05542e-10
-1.70179e-11
-5.14136e-10
-1.82779e-11
-5.19819e-10
-1.90923e-11
-5.23158e-10
-1.95274e-11
-5.24632e-10
-1.96516e-11
-5.24639e-10
-1.95296e-11
-5.23506e-10
-1.92187e-11
-5.21495e-10
-1.87676e-11
-5.18819e-10
-1.82161e-11
-5.15646e-10
-1.75962e-11
-5.12108e-10
-1.69328e-11
-5.08311e-10
-1.62451e-11
-1.55474e-11
-5.04337e-10
-6.22995e-14
-2.31524e-12
-1.4189e-13
-6.88075e-12
-1.75443e-13
-1.13603e-11
-1.25463e-13
-1.57405e-11
4.51191e-14
-2.00224e-11
3.6783e-13
-2.42024e-11
8.79066e-13
-2.82869e-11
1.60983e-12
-3.22723e-11
2.60229e-12
-3.61715e-11
3.89189e-12
-3.99797e-11
5.53307e-12
-4.37181e-11
7.5702e-12
-4.73787e-11
1.00772e-11
-5.09941e-11
1.31119e-11
-5.45495e-11
1.67761e-11
-5.80937e-11
2.11457e-11
-6.16005e-11
2.63661e-11
-6.51452e-11
3.25514e-11
-6.86941e-11
3.99256e-11
-7.2367e-11
4.77834e-11
-7.524e-11
5.63155e-11
-7.82298e-11
5.871e-11
-8.37262e-11
2.04875e-11
-8.00328e-11
2.13716e-11
-7.39994e-11
-1.17369e-10
6.63303e-11
-1.49944e-10
-3.81815e-11
-1.68334e-10
-1.88713e-11
-1.93431e-10
3.46839e-11
-2.42435e-10
4.65635e-11
-2.80863e-10
4.22415e-11
-3.15388e-10
3.77724e-11
-3.47805e-10
3.24151e-11
-3.77771e-10
2.64787e-11
-4.05095e-10
2.03632e-11
-4.29683e-10
1.44096e-11
-4.51528e-10
8.87411e-12
-4.70709e-10
3.92343e-12
-4.87353e-10
-3.74134e-13
-5.01645e-10
-3.98581e-12
-5.13779e-10
-6.95815e-12
-5.23965e-10
-9.34157e-12
-5.32406e-10
-1.12101e-11
-5.39296e-10
-1.26398e-11
-5.44812e-10
-1.37029e-11
-5.49115e-10
-1.44647e-11
-5.52349e-10
-1.49817e-11
-5.54644e-10
-1.53018e-11
-5.56112e-10
-1.54646e-11
-5.56854e-10
-1.55027e-11
-1.54424e-11
-5.56959e-10
1.64368e-13
-2.47961e-12
6.2767e-13
-7.34405e-12
1.37391e-12
-1.21066e-11
2.39307e-12
-1.67597e-11
3.67696e-12
-2.13063e-11
5.21627e-12
-2.57417e-11
7.0052e-12
-3.00758e-11
9.0363e-12
-3.43034e-11
1.13076e-11
-3.84427e-11
1.38145e-11
-4.24866e-11
1.65605e-11
-4.64641e-11
1.95449e-11
-5.03632e-11
2.27784e-11
-5.42275e-11
2.62656e-11
-5.80367e-11
3.00313e-11
-6.18594e-11
3.41096e-11
-6.56787e-11
3.85822e-11
-6.96179e-11
4.2798e-11
-7.29099e-11
4.68063e-11
-7.63754e-11
4.63783e-11
-8.22244e-11
-1.26129e-11
-8.06064e-11
-2.97221e-11
-7.37454e-11
-1.04871e-10
-4.93732e-12
-1.37549e-10
-4.13219e-11
-1.65098e-10
9.38798e-11
-3.11559e-10
1.08279e-10
-3.89535e-10
5.91046e-11
-4.00815e-10
4.5964e-11
-3.93017e-10
3.87653e-11
-3.84679e-10
3.39041e-11
-3.77527e-10
3.062e-11
-3.72914e-10
2.78024e-11
-3.7137e-10
2.49344e-11
-3.72873e-10
2.18666e-11
-3.771e-10
1.86361e-11
-3.83575e-10
1.53494e-11
-3.9177e-10
1.21189e-11
-4.0118e-10
9.03518e-12
-4.11327e-10
6.16105e-12
-4.2182e-10
3.5352e-12
-4.32334e-10
1.17249e-12
-4.42615e-10
-9.29195e-13
-4.52488e-10
-2.76678e-12
-4.61819e-10
-4.37201e-12
-4.7052e-10
-5.76335e-12
-4.7854e-10
-6.96218e-12
-4.85852e-10
-7.98964e-12
-4.92451e-10
-8.86558e-12
-4.98345e-10
-9.60814e-12
-1.02336e-11
-5.03554e-10
4.78785e-13
-2.95839e-12
1.80292e-12
-8.66819e-12
3.85778e-12
-1.41614e-11
6.53797e-12
-1.94398e-11
9.74548e-12
-2.45138e-11
1.33941e-11
-2.93904e-11
1.73961e-11
-3.40778e-11
2.16712e-11
-3.85785e-11
2.61292e-11
-4.29007e-11
3.06835e-11
-4.70409e-11
3.523e-11
-5.10106e-11
3.96657e-11
-5.47988e-11
4.38806e-11
-5.84424e-11
4.77929e-11
-6.1949e-11
5.1329e-11
-6.53955e-11
5.34182e-11
-6.77679e-11
5.38585e-11
-7.00582e-11
5.0127e-11
-7.4529e-11
-1.39456e-11
-7.21688e-11
-4.83872e-11
-5.66771e-11
-6.55514e-11
-6.35375e-11
-8.24332e-11
-5.68636e-11
-3.24923e-10
2.37552e-10
-5.61381e-10
1.95136e-10
-6.75259e-10
2.07758e-10
-7.49e-10
1.8202e-10
-8.22912e-10
1.33016e-10
-8.74739e-10
9.77909e-11
-9.08256e-10
7.22822e-11
-9.27934e-10
5.35824e-11
-9.36981e-10
3.96669e-11
-9.38282e-10
2.91035e-11
-9.34245e-10
2.08975e-11
-9.26746e-10
1.43674e-11
-9.17162e-10
9.05204e-12
-9.06456e-10
4.64324e-12
-8.95281e-10
9.44202e-13
-8.83993e-10
-2.25297e-12
-8.72822e-10
-5.00959e-12
-8.61901e-10
-7.38609e-12
-8.51286e-10
-9.44291e-12
-8.40992e-10
-1.12231e-11
-8.30997e-10
-1.27612e-11
-8.21283e-10
-1.40865e-11
-8.11822e-10
-1.52244e-11
-8.02587e-10
-1.6197e-11
-7.93553e-10
-1.70238e-11
-7.84696e-10
-1.77222e-11
-7.75997e-10
-1.83074e-11
-1.87928e-11
-7.67438e-10
4.6413e-13
-3.42252e-12
1.66896e-12
-9.87302e-12
3.53304e-12
-1.60255e-11
6.02462e-12
-2.19314e-11
9.11944e-12
-2.76086e-11
1.2787e-11
-3.3058e-11
1.70017e-11
-3.82924e-11
2.17221e-11
-4.32988e-11
2.69103e-11
-4.8089e-11
3.25151e-11
-5.26458e-11
3.85195e-11
-5.70149e-11
4.48813e-11
-6.11606e-11
5.16039e-11
-6.5165e-11
5.70937e-11
-6.74388e-11
6.18574e-11
-7.01987e-11
5.78809e-11
-7.51156e-11
-6.91607e-12
-7.00937e-11
-1.03906e-10
1.43966e-11
-8.02645e-11
-9.59014e-11
-3.35441e-10
1.98499e-10
-5.16868e-10
1.1789e-10
-6.98175e-10
1.24444e-10
-7.31248e-10
2.70625e-10
-8.34764e-10
2.98653e-10
-8.74666e-10
2.4766e-10
-8.92449e-10
1.99803e-10
-9.16289e-10
1.56856e-10
-9.38488e-10
1.1999e-10
-9.55599e-10
8.93928e-11
-9.66577e-10
6.45608e-11
-9.71616e-10
4.47057e-11
-9.71486e-10
2.89732e-11
-9.67143e-10
1.65549e-11
-9.59495e-10
6.71866e-12
-9.49207e-10
-1.23504e-12
-9.3758e-10
-6.98378e-12
-9.24913e-10
-1.17232e-11
-9.1164e-10
-1.55256e-11
-8.98075e-10
-1.8575e-11
-8.84437e-10
-2.1024e-11
-8.70888e-10
-2.29923e-11
-8.57538e-10
-2.45724e-11
-8.44463e-10
-2.58368e-11
-8.31707e-10
-2.68424e-11
-8.19297e-10
-2.76346e-11
-8.07244e-10
-2.82497e-11
-7.95551e-10
-2.87172e-11
-7.84212e-10
-2.9061e-11
-7.73218e-10
-2.9301e-11
-2.94533e-11
-7.62558e-10
-4.34211e-13
-2.98831e-12
-1.29952e-12
-9.00772e-12
-2.28819e-12
-1.50368e-11
-3.119e-12
-2.11006e-11
-3.589e-12
-2.71387e-11
-3.42928e-12
-3.32177e-11
-2.49618e-12
-3.92255e-11
-4.93527e-13
-4.53015e-11
2.70549e-12
-5.1288e-11
7.49114e-12
-5.74314e-11
1.24719e-11
-6.19957e-11
1.7702e-11
-6.63908e-11
2.158e-11
-7.0192e-11
-2.46671e-11
-8.20248e-11
-7.93621e-11
-5.16258e-11
-1.58145e-10
3.05609e-12
-1.29051e-10
-9.92251e-11
-5.35564e-10
4.20909e-10
-8.98647e-10
2.67182e-10
-9.68757e-10
2.68609e-10
-1.1451e-09
2.94237e-10
-1.28932e-09
2.68661e-10
-1.26472e-09
2.46023e-10
-1.18618e-09
2.20108e-10
-1.12803e-09
1.89518e-10
-1.08697e-09
1.58741e-10
-1.05934e-09
1.29229e-10
-1.04137e-09
1.02018e-10
-1.02969e-09
7.77059e-11
-1.02164e-09
5.65183e-11
-1.01535e-09
3.84143e-11
-1.00957e-09
2.31908e-11
-1.00359e-09
1.05794e-11
-9.9741e-10
5.34987e-13
-9.90245e-10
-8.39943e-12
-9.81791e-10
-1.54385e-11
-9.72435e-10
-2.10785e-11
-9.62362e-10
-2.55991e-11
-9.51726e-10
-2.92111e-11
-9.40665e-10
-3.20852e-11
-9.29296e-10
-3.43604e-11
-9.1772e-10
-3.61493e-11
-9.06014e-10
-3.75426e-11
-8.94243e-10
-3.86135e-11
-8.82457e-10
-3.94205e-11
-8.70696e-10
-4.00109e-11
-8.5899e-10
-4.04226e-11
-8.47365e-10
-4.06864e-11
-8.35838e-10
-4.08274e-11
-4.0866e-11
-8.24426e-10
-1.95764e-13
-2.79255e-12
-3.89915e-13
-8.81356e-12
-2.85515e-13
-1.51412e-11
4.59929e-13
-2.1846e-11
2.077e-12
-2.87557e-11
4.95813e-12
-3.60988e-11
9.30776e-12
-4.35752e-11
1.55203e-11
-5.1514e-11
2.13175e-11
-5.70853e-11
2.84222e-11
-6.45492e-11
-4.02615e-12
-7.70557e-11
-6.78462e-11
-8.236e-11
-1.44486e-10
2.38007e-12
-8.75198e-11
-1.39161e-10
-4.23746e-10
2.846e-10
-5.40546e-10
1.19856e-10
-8.28219e-10
1.88447e-10
-7.39088e-10
3.31778e-10
-8.85321e-10
4.13415e-10
-9.54585e-10
3.37873e-10
-9.5022e-10
2.89872e-10
-9.31518e-10
2.4996e-10
-9.00568e-10
2.15072e-10
-8.65323e-10
1.84864e-10
-8.33239e-10
1.57434e-10
-8.06535e-10
1.32036e-10
-7.85801e-10
1.08495e-10
-7.7066e-10
8.68768e-11
-7.60245e-10
6.72915e-11
-7.5353e-10
4.98028e-11
-7.49514e-10
3.43989e-11
-7.4732e-10
2.09965e-11
-7.46198e-10
9.45708e-12
-7.45198e-10
-4.64991e-13
-7.44865e-10
-8.73239e-12
-7.4455e-10
-1.5753e-11
-7.43995e-10
-2.16332e-11
-7.43056e-10
-2.65383e-11
-7.41651e-10
-3.06166e-11
-7.39739e-10
-3.39967e-11
-7.37311e-10
-3.6789e-11
-7.34373e-10
-3.90868e-11
-7.30948e-10
-4.0968e-11
-7.27064e-10
-4.24977e-11
-7.22754e-10
-4.373e-11
-7.18055e-10
-4.47098e-11
-7.13003e-10
-4.54744e-11
-7.07635e-10
-4.60551e-11
-7.01984e-10
-4.64778e-11
-4.67646e-11
-6.96086e-10
6.30501e-13
-3.42305e-12
2.29857e-12
-1.04816e-11
4.81999e-12
-1.76627e-11
7.98394e-12
-2.501e-11
1.16524e-11
-3.24242e-11
1.55603e-11
-4.00067e-11
1.95619e-11
-4.75768e-11
2.2563e-11
-5.54262e-11
-2.64917e-11
-7.91515e-11
-1.84881e-10
2.13257e-11
-1.41601e-10
-1.21113e-10
-2.28896e-10
4.9101e-12
-6.15425e-10
3.8891e-10
-1.03936e-09
2.84771e-10
-1.06233e-09
3.07577e-10
-1.31423e-09
3.71751e-10
-1.46083e-09
3.35052e-10
-1.4427e-09
3.13641e-10
-1.3152e-09
2.85918e-10
-1.22927e-09
2.5194e-10
-1.15947e-09
2.20074e-10
-1.1001e-09
1.90589e-10
-1.04847e-09
1.63444e-10
-1.0022e-09
1.38594e-10
-9.60639e-10
1.15874e-10
-9.2375e-10
9.51472e-11
-8.91574e-10
7.63189e-11
-8.64015e-10
5.93183e-11
-8.40798e-10
4.40746e-11
-8.215e-10
3.05043e-11
-8.05606e-10
1.8505e-11
-7.92563e-10
7.9532e-12
-7.81765e-10
-1.34007e-12
-7.72948e-10
-9.28264e-12
-7.65429e-10
-1.62507e-11
-7.58887e-10
-2.22956e-11
-7.52994e-10
-2.75262e-11
-7.47489e-10
-3.20433e-11
-7.42169e-10
-3.59367e-11
-7.3688e-10
-3.92853e-11
-7.31511e-10
-4.21579e-11
-7.25984e-10
-4.46141e-11
-7.20247e-10
-4.67052e-11
-7.14269e-10
-4.84756e-11
-7.08035e-10
-4.99638e-11
-7.01542e-10
-5.12028e-11
-6.94795e-10
-5.22214e-11
-6.87806e-10
-5.30446e-11
-6.80589e-10
-5.3694e-11
-5.41886e-11
-6.73165e-10
-1.98718e-13
-3.22433e-12
-1.47648e-12
-9.20387e-12
-4.33952e-12
-1.47996e-11
-9.31797e-12
-2.00316e-11
-1.68341e-11
-2.49081e-11
-2.74202e-11
-2.94207e-11
-4.81851e-11
-3.40206e-11
-1.85159e-10
-4.02069e-11
-2.31283e-10
-3.39466e-11
-2.88685e-10
7.8727e-11
-5.13751e-10
1.03952e-10
-6.48047e-10
1.39206e-10
-5.96181e-10
3.37044e-10
-8.0918e-10
4.9777e-10
-9.57193e-10
4.5559e-10
-9.96757e-10
4.11315e-10
-1.02169e-09
3.59981e-10
-1.0189e-09
3.10857e-10
-1.001e-09
2.68015e-10
-9.79025e-10
2.29967e-10
-9.54992e-10
1.96041e-10
-9.30167e-10
1.65764e-10
-9.0549e-10
1.38766e-10
-8.81617e-10
1.14721e-10
-8.59071e-10
9.33282e-11
-8.38231e-10
7.43077e-11
-8.19316e-10
5.74037e-11
-8.02383e-10
4.23849e-11
-7.87353e-10
2.90444e-11
-7.74046e-10
1.7198e-11
-7.62224e-10
6.68282e-12
-7.51628e-10
-2.64285e-12
-7.42043e-10
-1.0925e-11
-7.3307e-10
-1.82558e-11
-7.24575e-10
-2.47458e-11
-7.16385e-10
-3.04858e-11
-7.08355e-10
-3.55555e-11
-7.00374e-10
-4.00248e-11
-6.92355e-10
-4.39559e-11
-6.84236e-10
-4.74038e-11
-6.75977e-10
-5.04174e-11
-6.6755e-10
-5.30404e-11
-6.58944e-10
-5.53116e-11
-6.50154e-10
-5.72657e-11
-6.41184e-10
-5.89334e-11
-6.32045e-10
-6.03424e-11
-6.22749e-10
-6.1517e-11
-6.13315e-10
-6.2479e-11
-6.03761e-10
-6.32478e-11
-6.38406e-11
-5.94109e-10
-1.44875e-12
-1.77558e-12
-5.72306e-12
-4.92955e-12
-1.28675e-11
-7.65524e-12
-2.29996e-11
-9.89943e-12
-3.6284e-11
-1.16237e-11
-6.5377e-11
-1.28644e-11
-1.96349e-10
-1.45134e-11
-2.15104e-10
-2.14521e-11
-2.84591e-10
3.55407e-11
-2.97863e-10
9.19988e-11
-3.94996e-10
2.01086e-10
-5.45582e-10
2.89792e-10
-5.66252e-10
3.57714e-10
-4.63086e-10
3.94604e-10
-3.99974e-10
3.92477e-10
-3.62599e-10
3.73941e-10
-3.48321e-10
3.45703e-10
-3.50258e-10
3.12794e-10
-3.60899e-10
2.78655e-10
-3.76053e-10
2.45122e-10
-3.93222e-10
2.13209e-10
-4.10917e-10
1.83459e-10
-4.28254e-10
1.56103e-10
-4.44709e-10
1.31177e-10
-4.59979e-10
1.08598e-10
-4.73889e-10
8.82181e-11
-4.86347e-10
6.98618e-11
-4.97307e-10
5.33449e-11
-5.06754e-10
3.84907e-11
-5.14691e-10
2.51354e-11
-5.21136e-10
1.31277e-11
-5.26067e-10
2.28872e-12
-5.29666e-10
-7.32592e-12
-5.31958e-10
-1.59646e-11
-5.33001e-10
-2.3702e-11
-5.32872e-10
-3.06154e-11
-5.31645e-10
-3.67824e-11
-5.29396e-10
-4.2274e-11
-5.26197e-10
-4.71547e-11
-5.22118e-10
-5.14828e-11
-5.17224e-10
-5.53109e-11
-5.11579e-10
-5.8686e-11
-5.0524e-10
-6.16502e-11
-4.98265e-10
-6.4241e-11
-4.90706e-10
-6.64918e-11
-4.82617e-10
-6.84321e-11
-4.74046e-10
-7.00881e-11
-4.65042e-10
-7.14829e-11
-4.55652e-10
-7.26371e-11
-7.35686e-11
-4.45924e-10
-8.0377e-13
-9.71813e-13
-3.07107e-12
-2.66225e-12
-6.65055e-12
-4.07576e-12
-1.13484e-11
-5.20154e-12
-1.702e-11
-6.05192e-12
-2.00314e-10
-6.67101e-12
-2.08115e-10
-6.7124e-12
-2.52382e-10
2.28151e-11
-2.87262e-10
7.04208e-11
-3.33315e-10
1.38052e-10
-3.28318e-10
1.96089e-10
-2.8182e-10
2.43295e-10
-2.00305e-10
2.76199e-10
-1.02965e-10
2.97264e-10
-1.72314e-11
3.06743e-10
5.02872e-11
3.06422e-10
9.7804e-11
2.98186e-10
1.26581e-10
2.84017e-10
1.39526e-10
2.6571e-10
1.39864e-10
2.44784e-10
1.30636e-10
2.22438e-10
1.14517e-10
1.99578e-10
9.37537e-11
1.76866e-10
7.0164e-11
1.54767e-10
4.51703e-11
1.33591e-10
1.98482e-11
1.1354e-10
-5.01955e-12
9.47295e-11
-2.88878e-11
7.72131e-11
-5.1399e-11
6.1002e-11
-7.23408e-11
4.60773e-11
-9.16119e-11
3.23987e-11
-1.09234e-10
1.99109e-11
-1.25111e-10
8.55081e-12
-1.39333e-10
-1.74256e-12
-1.51919e-10
-1.11157e-11
-1.62955e-10
-1.95792e-11
-1.72507e-10
-2.72306e-11
-1.80637e-10
-3.41437e-11
-1.87405e-10
-4.03873e-11
-1.92864e-10
-4.60231e-11
-1.97069e-10
-5.11059e-11
-2.00072e-10
-5.56839e-11
-2.01923e-10
-5.97989e-11
-2.02677e-10
-6.34874e-11
-2.02387e-10
-6.6781e-11
-2.01112e-10
-6.97071e-11
-1.98911e-10
-7.22896e-11
-1.95844e-10
-7.45495e-11
-1.91976e-10
-7.65049e-11
-7.81723e-11
-1.87373e-10
-2.87605e-13
-6.84208e-13
-1.10176e-12
-1.8481e-12
-2.37099e-12
-2.80653e-12
-4.01585e-12
-3.55668e-12
-6.42948e-12
-4.08835e-12
-1.66004e-10
-4.41138e-12
-1.68222e-10
-4.49436e-12
-1.75525e-10
3.01182e-11
-1.6974e-10
6.46359e-11
-1.28412e-10
9.67239e-11
-5.9282e-11
1.26958e-10
3.04625e-11
1.5355e-10
1.31095e-10
1.75566e-10
2.35507e-10
1.92852e-10
3.3702e-10
2.05231e-10
4.30726e-10
2.12716e-10
5.13341e-10
2.15571e-10
5.83104e-10
2.14254e-10
6.39469e-10
2.09345e-10
6.82775e-10
2.01478e-10
7.13928e-10
1.91285e-10
7.34148e-10
1.79358e-10
7.44788e-10
1.66227e-10
7.47204e-10
1.5235e-10
7.42684e-10
1.38111e-10
7.32402e-10
1.23823e-10
7.17402e-10
1.0973e-10
6.98597e-10
9.60177e-11
6.76782e-10
8.28172e-11
6.52645e-10
7.02142e-11
6.26787e-10
5.82566e-11
5.99736e-10
4.69621e-11
5.71961e-10
3.63253e-11
5.43894e-10
2.63246e-11
5.1585e-10
1.69287e-11
4.88165e-10
8.10545e-12
4.61136e-10
-2.0203e-13
4.34946e-10
-7.95291e-12
4.09804e-10
-1.5246e-11
3.85866e-10
-2.20847e-11
3.63248e-10
-2.84878e-11
3.42034e-10
-3.44697e-11
3.22277e-10
-4.00428e-11
3.04009e-10
-4.52192e-11
2.87238e-10
-5.00097e-11
2.71954e-10
-5.44235e-11
2.58133e-10
-5.84687e-11
2.45737e-10
-6.2153e-11
2.34715e-10
-6.54835e-11
-6.84673e-11
2.2501e-10
-1.91732e-13
-7.14657e-13
-1.51223e-12
-2.52214e-12
-4.12273e-12
-1.62645e-10
-1.63892e-10
-1.39482e-10
-9.20664e-11
-2.55863e-11
5.74196e-11
1.53218e-10
2.57691e-10
3.67108e-10
4.77956e-10
5.87025e-10
6.91546e-10
7.89284e-10
8.78566e-10
9.58258e-10
1.02771e-09
1.08669e-09
1.13528e-09
1.17381e-09
1.20281e-09
1.22292e-09
1.23487e-09
1.23946e-09
1.23746e-09
1.22968e-09
1.21688e-09
1.1998e-09
1.17912e-09
1.15546e-09
1.12942e-09
1.10151e-09
1.07217e-09
1.04185e-09
1.01089e-09
9.79592e-10
9.48168e-10
9.16866e-10
8.85982e-10
8.55604e-10
8.25836e-10
7.96757e-10
7.6842e-10
7.40857e-10
7.14076e-10
6.88071e-10
-3.00004e-11
-3.69309e-11
-3.10918e-11
-3.56205e-11
-3.22443e-11
-3.4343e-11
-3.34538e-11
-3.30976e-11
-3.47165e-11
-3.18833e-11
-3.60284e-11
-3.06993e-11
-3.73858e-11
-2.95449e-11
-3.87852e-11
-2.84195e-11
-4.0223e-11
-2.73226e-11
-4.16961e-11
-2.62539e-11
-4.32011e-11
-2.5213e-11
-4.47351e-11
-2.41997e-11
-4.62951e-11
-2.3214e-11
-4.78783e-11
-2.22556e-11
-4.9482e-11
-2.13246e-11
-5.11037e-11
-2.04208e-11
-5.27411e-11
-1.95442e-11
-5.43916e-11
-1.86948e-11
-5.60532e-11
-1.78724e-11
-5.77239e-11
-1.7077e-11
-5.94015e-11
-1.63084e-11
-6.10843e-11
-1.55665e-11
-6.27704e-11
-1.4851e-11
-6.44583e-11
-1.41617e-11
-6.61463e-11
-1.34984e-11
-6.7833e-11
-1.28608e-11
-6.9517e-11
-1.22485e-11
-7.11968e-11
-1.16612e-11
-7.28714e-11
-1.10986e-11
-7.45396e-11
-1.05601e-11
-7.62002e-11
-1.00454e-11
-7.78523e-11
-9.5539e-12
-7.9495e-11
-9.08523e-12
-8.11273e-11
-8.63878e-12
-8.27487e-11
-8.21398e-12
-8.43582e-11
-7.8102e-12
-8.59554e-11
-7.42676e-12
-8.75397e-11
-7.06297e-12
-8.91105e-11
-6.71807e-12
-9.06676e-11
-6.39129e-12
-9.22107e-11
-6.08182e-12
-9.37396e-11
-5.7888e-12
-9.5254e-11
-5.51133e-12
-9.67542e-11
-5.24841e-12
-9.824e-11
-4.99896e-12
-9.97118e-11
-4.76192e-12
-1.0117e-10
-4.53663e-12
-1.02614e-10
-4.32354e-12
-1.04045e-10
-4.12503e-12
-3.94378e-12
-1.05459e-10
-3.67149e-11
-3.51636e-11
-3.85427e-11
-3.37926e-11
-4.0425e-11
-3.24608e-11
-4.23557e-11
-3.11669e-11
-4.43293e-11
-2.99097e-11
-4.63403e-11
-2.86883e-11
-4.83836e-11
-2.75015e-11
-5.04544e-11
-2.63486e-11
-5.25482e-11
-2.52289e-11
-5.46605e-11
-2.41415e-11
-5.67873e-11
-2.30862e-11
-5.89248e-11
-2.20623e-11
-6.10692e-11
-2.10695e-11
-6.32173e-11
-2.01075e-11
-6.53659e-11
-1.9176e-11
-6.75119e-11
-1.82748e-11
-6.96527e-11
-1.74034e-11
-7.17857e-11
-1.65618e-11
-7.39085e-11
-1.57497e-11
-7.60189e-11
-1.49666e-11
-7.81149e-11
-1.42124e-11
-8.01947e-11
-1.34867e-11
-8.22565e-11
-1.27892e-11
-8.42988e-11
-1.21194e-11
-8.63203e-11
-1.1477e-11
-8.83196e-11
-1.08615e-11
-9.02956e-11
-1.02725e-11
-9.22474e-11
-9.70947e-12
-9.4174e-11
-9.17196e-12
-9.60747e-11
-8.65943e-12
-9.79487e-11
-8.17133e-12
-9.97955e-11
-7.70709e-12
-1.01615e-10
-7.26609e-12
-1.03406e-10
-6.84771e-12
-1.05168e-10
-6.45127e-12
-1.06903e-10
-6.07604e-12
-1.08608e-10
-5.72128e-12
-1.10285e-10
-5.38619e-12
-1.11933e-10
-5.06994e-12
-1.13553e-10
-4.77167e-12
-1.15144e-10
-4.49049e-12
-1.16707e-10
-4.22546e-12
-1.18243e-10
-3.97559e-12
-1.19752e-10
-3.73979e-12
-1.21234e-10
-3.51691e-12
-1.2269e-10
-3.30581e-12
-1.24121e-10
-3.10574e-12
-1.25527e-10
-2.91711e-12
-1.2691e-10
-2.74227e-12
-2.58039e-12
-1.28273e-10
-4.4234e-11
-3.25879e-11
-4.68649e-11
-3.11617e-11
-4.95418e-11
-2.97838e-11
-5.22561e-11
-2.84526e-11
-5.49996e-11
-2.71662e-11
-5.77647e-11
-2.59231e-11
-6.05445e-11
-2.47218e-11
-6.33323e-11
-2.35608e-11
-6.61222e-11
-2.24389e-11
-6.89086e-11
-2.13551e-11
-7.16866e-11
-2.03082e-11
-7.44513e-11
-1.92975e-11
-7.71987e-11
-1.83222e-11
-7.99248e-11
-1.73814e-11
-8.26261e-11
-1.64747e-11
-8.52996e-11
-1.56013e-11
-8.79423e-11
-1.47607e-11
-9.05519e-11
-1.39523e-11
-9.31259e-11
-1.31756e-11
-9.56625e-11
-1.243e-11
-9.81599e-11
-1.1715e-11
-1.00617e-10
-1.103e-11
-1.03031e-10
-1.03744e-11
-1.05403e-10
-9.74765e-12
-1.07731e-10
-9.14916e-12
-1.10014e-10
-8.57834e-12
-1.12252e-10
-8.03455e-12
-1.14444e-10
-7.51717e-12
-1.16591e-10
-7.02558e-12
-1.18691e-10
-6.55912e-12
-1.20745e-10
-6.11712e-12
-1.22753e-10
-5.69891e-12
-1.24716e-10
-5.30376e-12
-1.26633e-10
-4.93094e-12
-1.28504e-10
-4.57969e-12
-1.30331e-10
-4.24919e-12
-1.32114e-10
-3.93861e-12
-1.33853e-10
-3.64705e-12
-1.35549e-10
-3.37362e-12
-1.37203e-10
-3.11736e-12
-1.38817e-10
-2.87732e-12
-1.4039e-10
-2.65248e-12
-1.41923e-10
-2.44179e-12
-1.43419e-10
-2.2441e-12
-1.44878e-10
-2.0582e-12
-1.46301e-10
-1.88294e-12
-1.47689e-10
-1.71756e-12
-1.49043e-10
-1.56253e-12
-1.50365e-10
-1.42028e-12
-1.29218e-12
-1.51654e-10
-6.4947e-11
-2.88795e-11
-6.86923e-11
-2.74164e-11
-7.24604e-11
-2.60157e-11
-7.62386e-11
-2.46744e-11
-8.0015e-11
-2.33898e-11
-8.37789e-11
-2.21593e-11
-8.75204e-11
-2.09802e-11
-9.1231e-11
-1.98503e-11
-9.49026e-11
-1.87673e-11
-9.85284e-11
-1.77293e-11
-1.02102e-10
-1.67344e-11
-1.05619e-10
-1.57811e-11
-1.09073e-10
-1.48679e-11
-1.12461e-10
-1.39933e-11
-1.1578e-10
-1.31561e-11
-1.19026e-10
-1.23552e-11
-1.22197e-10
-1.15895e-11
-1.25291e-10
-1.08578e-11
-1.28308e-10
-1.01594e-11
-1.31245e-10
-9.49313e-12
-1.34101e-10
-8.85819e-12
-1.36878e-10
-8.25367e-12
-1.39573e-10
-7.67871e-12
-1.42189e-10
-7.13248e-12
-1.44724e-10
-6.61414e-12
-1.47179e-10
-6.12289e-12
-1.49556e-10
-5.65792e-12
-1.51854e-10
-5.21846e-12
-1.54076e-10
-4.8037e-12
-1.56222e-10
-4.41288e-12