/*--------------------------------*- C++ -*----------------------------------*\
| =========                 |                                                 |
| \\      /  F ield         | OpenFOAM: The Open Source CFD Toolbox           |
|  \\    /   O peration     | Version:  2.4.0                                 |
|   \\  /    A nd           | Web:      www.OpenFOAM.org                      |
|    \\/     M anipulation  |                                                 |
\*---------------------------------------------------------------------------*/
FoamFile
{
    version     2.0;
    format      ascii;
    class       volScalarField;
    location    "0.9";
    object      p;
}
// * * * * * * * * * * * * * * * * * * * * * * * * * * * * * * * * * * * * * //

dimensions      [1 -1 -2 0 0 0 0];

internalField   nonuniform List<scalar> 
125
(
-0.0578023
-0.0578023
-0.0578023
-0.0578023
-0.0578023
-0.0589339
-0.0589339
-0.0589339
-0.0589339
-0.058934
-0.0600782
-0.0600782
-0.0600782
-0.0600782
-0.0600782
-0.0612352
-0.0612352
-0.0612352
-0.0612352
-0.0612352
-0.0624052
-0.0624052
-0.0624052
-0.0624052
-0.0624052
-0.0635882
-0.0635882
-0.0635882
-0.0635882
-0.0635882
-0.0647844
-0.0647844
-0.0647844
-0.0647844
-0.0647844
-0.0659939
-0.0659939
-0.0659939
-0.0659939
-0.0659939
-0.067217
-0.067217
-0.067217
-0.067217
-0.067217
-0.0684537
-0.0684537
-0.0684537
-0.0684537
-0.0684537
-0.0697042
-0.0697042
-0.0697042
-0.0697042
-0.0697042
-0.0709686
-0.0709686
-0.0709686
-0.0709686
-0.0709686
-0.0722472
-0.0722472
-0.0722472
-0.0722472
-0.0722472
-0.07354
-0.07354
-0.07354
-0.07354
-0.07354
-0.0748473
-0.0748473
-0.0748473
-0.0748473
-0.0748473
-0.0761691
-0.0761691
-0.0761691
-0.0761691
-0.0761691
-0.0775057
-0.0775057
-0.0775057
-0.0775057
-0.0775057
-0.0788572
-0.0788572
-0.0788572
-0.0788572
-0.0788572
-0.0802238
-0.0802238
-0.0802238
-0.0802238
-0.0802238
-0.0816056
-0.0816056
-0.0816056
-0.0816056
-0.0816056
-0.0830029
-0.0830029
-0.0830029
-0.0830029
-0.0830029
-0.0844157
-0.0844157
-0.0844157
-0.0844157
-0.0844157
-0.0858444
-0.0858443
-0.0858443
-0.0858443
-0.0858444
-0.0872889
-0.0872889
-0.0872889
-0.0872889
-0.0872889
-0.0887496
-0.0887496
-0.0887496
-0.0887496
-0.0887496
)
;

boundaryField
{
    BotWall
    {
        type            calculated;
        value           nonuniform 0();
    }
    FreeStream
    {
        type            calculated;
        value           nonuniform List<scalar> 5(-0.089484 -0.089484 -0.089484 -0.089484 -0.089484);
    }
    FrontNBack
    {
        type            empty;
    }
    LeftSide
    {
        type            symmetryPlane;
    }
    RightSide
    {
        type            symmetryPlane;
    }
    procBoundary3to2
    {
        type            processor;
        value           nonuniform List<scalar> 5(-0.0566832 -0.0566831 -0.0566832 -0.0566831 -0.0566832);
    }
}


// ************************************************************************* //
