/*--------------------------------*- C++ -*----------------------------------*\
| =========                 |                                                 |
| \\      /  F ield         | OpenFOAM: The Open Source CFD Toolbox           |
|  \\    /   O peration     | Version:  2.4.0                                 |
|   \\  /    A nd           | Web:      www.OpenFOAM.org                      |
|    \\/     M anipulation  |                                                 |
\*---------------------------------------------------------------------------*/
FoamFile
{
    version     2.0;
    format      ascii;
    class       volVectorField;
    location    "0.9";
    object      U;
}
// * * * * * * * * * * * * * * * * * * * * * * * * * * * * * * * * * * * * * //

dimensions      [0 1 -1 0 0 0 0];

internalField   nonuniform List<vector> 
125
(
(1.75615e-08 -0.0019177 0)
(1.51248e-08 -0.00191773 0)
(-1.45515e-10 -0.00191772 0)
(-1.85154e-08 -0.00191773 0)
(-2.11597e-08 -0.00191771 0)
(1.69381e-08 -0.0019177 0)
(1.45156e-08 -0.00191773 0)
(-2.88272e-10 -0.00191772 0)
(-1.75518e-08 -0.00191773 0)
(-2.00413e-08 -0.00191771 0)
(1.62883e-08 -0.0019177 0)
(1.38879e-08 -0.00191773 0)
(-4.21526e-10 -0.00191772 0)
(-1.65976e-08 -0.00191773 0)
(-1.89328e-08 -0.00191771 0)
(1.56128e-08 -0.0019177 0)
(1.32417e-08 -0.00191773 0)
(-5.4647e-10 -0.00191772 0)
(-1.56507e-08 -0.00191773 0)
(-1.78316e-08 -0.00191771 0)
(1.49129e-08 -0.0019177 0)
(1.25777e-08 -0.00191773 0)
(-6.64276e-10 -0.00191772 0)
(-1.47108e-08 -0.00191773 0)
(-1.67372e-08 -0.00191771 0)
(1.41905e-08 -0.0019177 0)
(1.18969e-08 -0.00191773 0)
(-7.76005e-10 -0.00191772 0)
(-1.37781e-08 -0.00191773 0)
(-1.56494e-08 -0.00191771 0)
(1.34483e-08 -0.0019177 0)
(1.12013e-08 -0.00191773 0)
(-8.82569e-10 -0.00191772 0)
(-1.28534e-08 -0.00191773 0)
(-1.45692e-08 -0.00191771 0)
(1.269e-08 -0.0019177 0)
(1.04936e-08 -0.00191773 0)
(-9.84703e-10 -0.00191772 0)
(-1.19383e-08 -0.00191773 0)
(-1.34983e-08 -0.00191771 0)
(1.192e-08 -0.0019177 0)
(9.77763e-09 -0.00191773 0)
(-1.08293e-09 -0.00191772 0)
(-1.10354e-08 -0.00191773 0)
(-1.244e-08 -0.00191772 0)
(1.11444e-08 -0.0019177 0)
(9.05804e-09 -0.00191773 0)
(-1.17751e-09 -0.00191772 0)
(-1.01484e-08 -0.00191773 0)
(-1.13988e-08 -0.00191772 0)
(1.037e-08 -0.0019177 0)
(8.34069e-09 -0.00191772 0)
(-1.26845e-09 -0.00191772 0)
(-9.28217e-09 -0.00191773 0)
(-1.03808e-08 -0.00191772 0)
(9.60507e-09 -0.0019177 0)
(7.6325e-09 -0.00191772 0)
(-1.35545e-09 -0.00191772 0)
(-8.44262e-09 -0.00191773 0)
(-9.39383e-09 -0.00191772 0)
(8.85892e-09 -0.0019177 0)
(6.94142e-09 -0.00191772 0)
(-1.43792e-09 -0.00191772 0)
(-7.63686e-09 -0.00191772 0)
(-8.44684e-09 -0.00191772 0)
(8.14176e-09 -0.0019177 0)
(6.27622e-09 -0.00191772 0)
(-1.51501e-09 -0.00191771 0)
(-6.87286e-09 -0.00191772 0)
(-7.55022e-09 -0.00191772 0)
(7.46437e-09 -0.0019177 0)
(5.64628e-09 -0.00191772 0)
(-1.58566e-09 -0.00191771 0)
(-6.15921e-09 -0.00191772 0)
(-6.71508e-09 -0.00191772 0)
(6.83768e-09 -0.0019177 0)
(5.06116e-09 -0.00191772 0)
(-1.64868e-09 -0.00191771 0)
(-5.50469e-09 -0.00191772 0)
(-5.95279e-09 -0.00191772 0)
(6.27214e-09 -0.0019177 0)
(4.53009e-09 -0.00191772 0)
(-1.7029e-09 -0.00191771 0)
(-4.91771e-09 -0.00191772 0)
(-5.27419e-09 -0.00191772 0)
(5.77699e-09 -0.0019177 0)
(4.06139e-09 -0.00191772 0)
(-1.74726e-09 -0.00191771 0)
(-4.40562e-09 -0.00191772 0)
(-4.68862e-09 -0.00191772 0)
(5.35944e-09 -0.0019177 0)
(3.66175e-09 -0.00191772 0)
(-1.78104e-09 -0.00191771 0)
(-3.97403e-09 -0.00191772 0)
(-4.20296e-09 -0.00191772 0)
(5.02383e-09 -0.0019177 0)
(3.3355e-09 -0.00191772 0)
(-1.80405e-09 -0.00191771 0)
(-3.62599e-09 -0.00191772 0)
(-3.82046e-09 -0.00191772 0)
(4.77074e-09 -0.0019177 0)
(3.08388e-09 -0.00191772 0)
(-1.81674e-09 -0.00191771 0)
(-3.3612e-09 -0.00191772 0)
(-3.53972e-09 -0.00191772 0)
(4.5963e-09 -0.0019177 0)
(2.90446e-09 -0.00191772 0)
(-1.82045e-09 -0.00191771 0)
(-3.17548e-09 -0.00191772 0)
(-3.35378e-09 -0.00191772 0)
(4.49174e-09 -0.0019177 0)
(2.79072e-09 -0.00191772 0)
(-1.8175e-09 -0.00191771 0)
(-3.06029e-09 -0.00191772 0)
(-3.24957e-09 -0.00191772 0)
(4.44329e-09 -0.00191771 0)
(2.73202e-09 -0.00191772 0)
(-1.81131e-09 -0.00191772 0)
(-3.0028e-09 -0.00191773 0)
(-3.20774e-09 -0.00191772 0)
(4.43206e-09 -0.0019177 0)
(2.71336e-09 -0.00191772 0)
(-1.80616e-09 -0.00191771 0)
(-2.98574e-09 -0.00191772 0)
(-3.20286e-09 -0.00191772 0)
)
;

boundaryField
{
    BotWall
    {
        type            fixedValue;
        value           nonuniform 0();
    }
    FreeStream
    {
        type            zeroGradient;
    }
    FrontNBack
    {
        type            empty;
    }
    LeftSide
    {
        type            symmetryPlane;
    }
    RightSide
    {
        type            symmetryPlane;
    }
    procBoundary3to2
    {
        type            processor;
        value           nonuniform List<vector> 5((1.81583e-08 -0.0019177 0) (1.57158e-08 -0.00191773 0) (8.03237e-12 -0.00191772 0) (-1.94858e-08 -0.00191773 0) (-2.22859e-08 -0.00191771 0));
    }
}


// ************************************************************************* //
