/*--------------------------------*- C++ -*----------------------------------*\
| =========                 |                                                 |
| \\      /  F ield         | OpenFOAM: The Open Source CFD Toolbox           |
|  \\    /   O peration     | Version:  2.4.0                                 |
|   \\  /    A nd           | Web:      www.OpenFOAM.org                      |
|    \\/     M anipulation  |                                                 |
\*---------------------------------------------------------------------------*/
FoamFile
{
    version     2.0;
    format      ascii;
    class       surfaceScalarField;
    location    "0.008";
    object      phi;
}
// * * * * * * * * * * * * * * * * * * * * * * * * * * * * * * * * * * * * * //

dimensions      [0 3 -1 0 0 0 0];

internalField   nonuniform List<scalar> 
124
(
-3.8511e-09
-3.85103e-09
-3.85096e-09
-3.85089e-09
-3.85082e-09
-3.85075e-09
-3.85068e-09
-3.85061e-09
-3.85055e-09
-3.85048e-09
-3.85042e-09
-3.85036e-09
-3.8503e-09
-3.85024e-09
-3.85019e-09
-3.85013e-09
-3.85008e-09
-3.85003e-09
-3.84998e-09
-3.84994e-09
-3.84989e-09
-3.84985e-09
-3.8498e-09
-3.84976e-09
-3.84972e-09
-3.84968e-09
-3.84964e-09
-3.8496e-09
-3.84957e-09
-3.84953e-09
-3.84949e-09
-3.84946e-09
-3.84943e-09
-3.84939e-09
-3.84936e-09
-3.84932e-09
-3.84929e-09
-3.84926e-09
-3.84923e-09
-3.8492e-09
-3.84917e-09
-3.84913e-09
-3.8491e-09
-3.84907e-09
-3.84904e-09
-3.84901e-09
-3.84898e-09
-3.84896e-09
-3.84893e-09
-3.8489e-09
-3.84887e-09
-3.84884e-09
-3.84881e-09
-3.84879e-09
-3.84876e-09
-3.84873e-09
-3.8487e-09
-3.84868e-09
-3.84865e-09
-3.84862e-09
-3.8486e-09
-3.84857e-09
-3.84854e-09
-3.84852e-09
-3.84849e-09
-3.84847e-09
-3.84844e-09
-3.84842e-09
-3.84839e-09
-3.84837e-09
-3.84834e-09
-3.84832e-09
-3.8483e-09
-3.84827e-09
-3.84825e-09
-3.84822e-09
-3.8482e-09
-3.84818e-09
-3.84816e-09
-3.84813e-09
-3.84811e-09
-3.84809e-09
-3.84807e-09
-3.84804e-09
-3.84802e-09
-3.848e-09
-3.84798e-09
-3.84796e-09
-3.84793e-09
-3.84791e-09
-3.84789e-09
-3.84787e-09
-3.84785e-09
-3.84783e-09
-3.84781e-09
-3.84779e-09
-3.84777e-09
-3.84775e-09
-3.84773e-09
-3.84771e-09
-3.84769e-09
-3.84767e-09
-3.84765e-09
-3.84763e-09
-3.84761e-09
-3.84759e-09
-3.84758e-09
-3.84756e-09
-3.84754e-09
-3.84752e-09
-3.8475e-09
-3.84748e-09
-3.84747e-09
-3.84745e-09
-3.84743e-09
-3.84741e-09
-3.8474e-09
-3.84738e-09
-3.84736e-09
-3.84734e-09
-3.84733e-09
-3.84731e-09
-3.84729e-09
-3.84728e-09
)
;

boundaryField
{
    BotWall
    {
        type            calculated;
        value           nonuniform 0();
    }
    FreeStream
    {
        type            calculated;
        value           nonuniform 0();
    }
    FrontNBack
    {
        type            empty;
        value           nonuniform 0();
    }
    LeftSide
    {
        type            symmetryPlane;
        value           nonuniform 0();
    }
    RightSide
    {
        type            symmetryPlane;
        value           nonuniform 0();
    }
    procBoundary6to3
    {
        type            processor;
        value           nonuniform List<scalar> 
50
(
-2.18941e-15
-2.22632e-15
-2.26359e-15
-2.30119e-15
-2.33909e-15
-2.37726e-15
-2.41567e-15
-2.4543e-15
-2.49312e-15
-2.5321e-15
-2.57121e-15
-2.61042e-15
-2.6497e-15
-2.68902e-15
-2.72836e-15
-2.76768e-15
-2.80696e-15
-2.84617e-15
-2.88527e-15
-2.92425e-15
-2.96307e-15
-3.00171e-15
-3.04014e-15
-3.07832e-15
-3.11624e-15
-3.15387e-15
-3.19118e-15
-3.22815e-15
-3.26474e-15
-3.30094e-15
-3.33672e-15
-3.37206e-15
-3.40693e-15
-3.44131e-15
-3.47518e-15
-3.50851e-15
-3.54128e-15
-3.57348e-15
-3.60508e-15
-3.63607e-15
-3.66641e-15
-3.69611e-15
-3.72513e-15
-3.75346e-15
-3.78108e-15
-3.80798e-15
-3.83415e-15
-3.85956e-15
-3.88419e-15
-3.90805e-15
)
;
    }
    procBoundary6to4
    {
        type            processor;
        value           nonuniform List<scalar> 
75
(
-8.95898e-15
-8.83337e-15
-8.6656e-15
-8.45951e-15
-8.21926e-15
-7.94928e-15
-7.65416e-15
-7.33858e-15
-7.00719e-15
-6.66455e-15
-6.31507e-15
-5.96289e-15
-5.6119e-15
-5.26561e-15
-4.92717e-15
-4.59934e-15
-4.28444e-15
-3.98441e-15
-3.70076e-15
-3.4346e-15
-3.1867e-15
-2.95745e-15
-2.74698e-15
-2.5551e-15
-2.38142e-15
-2.22533e-15
-2.08607e-15
-1.96277e-15
-1.85445e-15
-1.76009e-15
-1.67863e-15
-1.60899e-15
-1.55013e-15
-1.50103e-15
-1.46071e-15
-1.42825e-15
-1.40279e-15
-1.38354e-15
-1.36979e-15
-1.36088e-15
-1.35623e-15
-1.35531e-15
-1.35769e-15
-1.36295e-15
-1.37076e-15
-1.38083e-15
-1.39289e-15
-1.40674e-15
-1.4222e-15
-1.43911e-15
-1.45736e-15
-1.47682e-15
-1.49743e-15
-1.51909e-15
-1.54175e-15
-1.56535e-15
-1.58986e-15
-1.61523e-15
-1.64143e-15
-1.66844e-15
-1.69621e-15
-1.72473e-15
-1.75398e-15
-1.78392e-15
-1.81454e-15
-1.84582e-15
-1.87772e-15
-1.91024e-15
-1.94333e-15
-1.97699e-15
-2.01119e-15
-2.0459e-15
-2.0811e-15
-2.11677e-15
-2.15288e-15
)
;
    }
    procBoundary6to5
    {
        type            processor;
        value           uniform -3.84726e-09;
    }
    procBoundary6to7
    {
        type            processor;
        value           uniform 3.85117e-09;
    }
    procBoundary6to8
    {
        type            processor;
        value           nonuniform List<scalar> 
75
(
-2.70473e-14
-2.67986e-14
-2.6552e-14
-2.63075e-14
-2.60648e-14
-2.58237e-14
-2.55843e-14
-2.53464e-14
-2.51099e-14
-2.48749e-14
-2.46413e-14
-2.44091e-14
-2.41782e-14
-2.39488e-14
-2.37208e-14
-2.34941e-14
-2.32689e-14
-2.3045e-14
-2.28225e-14
-2.26014e-14
-2.23816e-14
-2.21632e-14
-2.19462e-14
-2.17306e-14
-2.15163e-14
-2.13034e-14
-2.10918e-14
-2.08815e-14
-2.06726e-14
-2.04649e-14
-2.02586e-14
-2.00536e-14
-1.98499e-14
-1.96475e-14
-1.94464e-14
-1.92465e-14
-1.9048e-14
-1.88508e-14
-1.86548e-14
-1.84602e-14
-1.82669e-14
-1.80748e-14
-1.78841e-14
-1.76947e-14
-1.75066e-14
-1.73198e-14
-1.71344e-14
-1.69504e-14
-1.67676e-14
-1.65863e-14
-1.64063e-14
-1.62277e-14
-1.60505e-14
-1.58747e-14
-1.57003e-14
-1.55274e-14
-1.53558e-14
-1.51858e-14
-1.50171e-14
-1.485e-14
-1.46843e-14
-1.45201e-14
-1.43573e-14
-1.41961e-14
-1.40363e-14
-1.3878e-14
-1.37213e-14
-1.3566e-14
-1.34123e-14
-1.32601e-14
-1.31093e-14
-1.29601e-14
-1.28124e-14
-1.26662e-14
-1.25215e-14
)
;
    }
    procBoundary6to9
    {
        type            processor;
        value           nonuniform List<scalar> 
50
(
-6.32333e-14
-6.33081e-14
-6.31557e-14
-6.27921e-14
-6.22351e-14
-6.15034e-14
-6.06171e-14
-5.95966e-14
-5.84626e-14
-5.72358e-14
-5.59361e-14
-5.4583e-14
-5.31948e-14
-5.17885e-14
-5.03795e-14
-4.8982e-14
-4.76083e-14
-4.62688e-14
-4.49724e-14
-4.37263e-14
-4.2536e-14
-4.14053e-14
-4.03369e-14
-3.93318e-14
-3.83903e-14
-3.75114e-14
-3.66932e-14
-3.59335e-14
-3.52291e-14
-3.45767e-14
-3.39727e-14
-3.34132e-14
-3.28943e-14
-3.24122e-14
-3.19632e-14
-3.15435e-14
-3.11499e-14
-3.07791e-14
-3.04282e-14
-3.00945e-14
-2.97757e-14
-2.94696e-14
-2.91743e-14
-2.88883e-14
-2.861e-14
-2.83382e-14
-2.8072e-14
-2.78104e-14
-2.75528e-14
-2.72986e-14
)
;
    }
}


// ************************************************************************* //
