/*--------------------------------*- C++ -*----------------------------------*\
| =========                 |                                                 |
| \\      /  F ield         | OpenFOAM: The Open Source CFD Toolbox           |
|  \\    /   O peration     | Version:  2.4.0                                 |
|   \\  /    A nd           | Web:      www.OpenFOAM.org                      |
|    \\/     M anipulation  |                                                 |
\*---------------------------------------------------------------------------*/
FoamFile
{
    version     2.0;
    format      ascii;
    class       volScalarField;
    location    "0.012";
    object      p_rgh;
}
// * * * * * * * * * * * * * * * * * * * * * * * * * * * * * * * * * * * * * //

dimensions      [1 -1 -2 0 0 0 0];

internalField   nonuniform List<scalar> 
125
(
0.0659294
-0.042308
0.338558
-1.76281
-0.20016
0.0524114
0.0184959
-0.00526848
-0.00973767
-0.00849495
-0.0075899
-0.00741974
-0.0074578
-0.00748174
-0.0074774
-0.00746519
-0.00745353
-0.00744292
-0.00743257
-0.00742215
-0.00741166
-0.00740111
-0.00739053
-0.00737991
-0.00736925
-0.00735855
-0.00734781
-0.00733704
-0.00732622
-0.00731536
-0.00730446
-0.00729353
-0.00728255
-0.00727153
-0.00726047
-0.00724938
-0.00723824
-0.00722705
-0.00721583
-0.00720457
-0.00719326
-0.00718192
-0.00717053
-0.0071591
-0.00714763
-0.00713611
-0.00712456
-0.00711296
-0.00710131
-0.00708963
-0.0070779
-0.00706613
-0.00705432
-0.00704246
-0.00703056
-0.00701861
-0.00700662
-0.00699459
-0.00698251
-0.00697039
-0.00695822
-0.00694601
-0.00693375
-0.00692145
-0.0069091
-0.00689671
-0.00688427
-0.00687179
-0.00685926
-0.00684668
-0.00683406
-0.00682139
-0.00680867
-0.00679591
-0.0067831
-0.00677025
-0.00675734
-0.00674439
-0.00673139
-0.00671834
-0.00670525
-0.00669211
-0.00667892
-0.00666567
-0.00665239
-0.00663905
-0.00662566
-0.00661223
-0.00659874
-0.0065852
-0.00657162
-0.00655798
-0.0065443
-0.00653056
-0.00651678
-0.00650294
-0.00648905
-0.00647511
-0.00646112
-0.00644708
-0.00643299
-0.00641884
-0.00640465
-0.0063904
-0.0063761
-0.00636174
-0.00634733
-0.00633287
-0.00631836
-0.00630379
-0.00628917
-0.0062745
-0.00625977
-0.00624499
-0.00623015
-0.00621526
-0.00620031
-0.00618531
-0.00617025
-0.00615514
-0.00613998
-0.00612475
-0.00610947
-0.00609413
-0.00607873
)
;

boundaryField
{
    BotWall
    {
        type            fixedFluxPressure;
        gradient        uniform 0;
        value           uniform 0.0659294;
    }
    FreeStream
    {
        type            totalPressure;
        rho             rho;
        psi             none;
        gamma           1;
        p0              nonuniform 0();
        value           nonuniform 0();
    }
    FrontNBack
    {
        type            empty;
    }
    LeftSide
    {
        type            symmetryPlane;
    }
    RightSide
    {
        type            symmetryPlane;
    }
    procBoundary11to8
    {
        type            processor;
        value           nonuniform List<scalar> 
50
(
-0.00676892
-0.00675601
-0.00674305
-0.00673004
-0.00671698
-0.00670387
-0.00669072
-0.00667751
-0.00666426
-0.00665096
-0.00663761
-0.00662421
-0.00661077
-0.00659727
-0.00658372
-0.00657013
-0.00655648
-0.00654279
-0.00652904
-0.00651524
-0.00650139
-0.0064875
-0.00647355
-0.00645955
-0.00644549
-0.00643139
-0.00641723
-0.00640303
-0.00638877
-0.00637445
-0.00636009
-0.00634567
-0.0063312
-0.00631668
-0.0063021
-0.00628747
-0.00627279
-0.00625805
-0.00624325
-0.00622841
-0.00621351
-0.00619855
-0.00618354
-0.00616847
-0.00615335
-0.00613817
-0.00612294
-0.00610765
-0.0060923
-0.0060769
)
;
    }
    procBoundary11to9
    {
        type            processor;
        value           nonuniform List<scalar> 
75
(
0.065409
-0.042593
0.337134
-1.75555
-0.199605
0.0522667
0.0184474
-0.00526835
-0.00973071
-0.0084913
-0.00758802
-0.00741809
-0.00745603
-0.00747992
-0.00747557
-0.00746338
-0.00745173
-0.00744114
-0.00743079
-0.00742039
-0.0074099
-0.00739936
-0.00738879
-0.00737818
-0.00736753
-0.00735684
-0.00734611
-0.00733534
-0.00732453
-0.00731369
-0.0073028
-0.00729187
-0.0072809
-0.00726989
-0.00725884
-0.00724775
-0.00723662
-0.00722545
-0.00721424
-0.00720298
-0.00719168
-0.00718035
-0.00716897
-0.00715754
-0.00714608
-0.00713458
-0.00712303
-0.00711144
-0.0070998
-0.00708813
-0.00707641
-0.00706464
-0.00705284
-0.00704099
-0.00702909
-0.00701716
-0.00700518
-0.00699315
-0.00698108
-0.00696897
-0.00695681
-0.0069446
-0.00693236
-0.00692006
-0.00690772
-0.00689534
-0.00688291
-0.00687043
-0.00685791
-0.00684534
-0.00683273
-0.00682007
-0.00680736
-0.0067946
-0.00678179
)
;
    }
    procBoundary11to10
    {
        type            processor;
        value           uniform -0.00606326;
    }
}


// ************************************************************************* //
