/*--------------------------------*- C++ -*----------------------------------*\
| =========                 |                                                 |
| \\      /  F ield         | OpenFOAM: The Open Source CFD Toolbox           |
|  \\    /   O peration     | Version:  2.4.0                                 |
|   \\  /    A nd           | Web:      www.OpenFOAM.org                      |
|    \\/     M anipulation  |                                                 |
\*---------------------------------------------------------------------------*/
FoamFile
{
    version     2.0;
    format      ascii;
    class       volScalarField;
    location    "2.9";
    object      p;
}
// * * * * * * * * * * * * * * * * * * * * * * * * * * * * * * * * * * * * * //

dimensions      [1 -1 -2 0 0 0 0];

internalField   nonuniform List<scalar> 
500
(
0.603946
0.604053
0.604193
0.604068
0.603947
0.574182
0.574291
0.574432
0.574305
0.574182
0.544024
0.544133
0.544272
0.544146
0.544023
0.513574
0.513684
0.513825
0.513698
0.513573
0.482732
0.482843
0.482985
0.482857
0.482731
0.451597
0.45171
0.451853
0.451724
0.451596
0.420057
0.420171
0.420315
0.420185
0.420056
0.388223
0.388339
0.388484
0.388353
0.388222
0.356008
0.356125
0.356271
0.356139
0.356007
0.323584
0.323703
0.323851
0.323717
0.323583
0.290699
0.29082
0.290969
0.290834
0.290698
0.25667
0.256792
0.256941
0.256805
0.256669
0.219969
0.220088
0.220236
0.220102
0.219969
0.183793
0.183911
0.184057
0.183924
0.183792
0.168751
0.168895
0.169058
0.168909
0.16875
0.209299
0.209541
0.209779
0.209555
0.209298
0.228108
0.228456
0.22877
0.228468
0.228105
-0.3106
-0.310698
-0.310782
-0.310687
-0.310599
-2.20352
-2.20567
-2.20762
-2.20568
-2.2035
-3.93468
-3.94005
-3.94417
-3.94006
-3.93464
-0.0166397
-0.0166386
-0.0166382
-0.0166386
-0.0166398
-0.0100628
-0.0100625
-0.0100626
-0.0100625
-0.0100628
-0.0119153
-0.0119146
-0.0119145
-0.0119146
-0.0119153
-0.0131229
-0.0131221
-0.013122
-0.0131221
-0.0131229
-0.0138262
-0.0138255
-0.0138254
-0.0138255
-0.0138262
-0.0144265
-0.0144258
-0.0144257
-0.0144258
-0.0144265
-0.0150562
-0.0150555
-0.0150554
-0.0150555
-0.0150562
-0.0157126
-0.015712
-0.0157119
-0.015712
-0.0157126
-0.0163805
-0.0163798
-0.0163797
-0.0163798
-0.0163805
-0.0170549
-0.0170543
-0.0170541
-0.0170543
-0.0170549
-0.017736
-0.0177354
-0.0177353
-0.0177354
-0.017736
-0.0184246
-0.018424
-0.0184239
-0.018424
-0.0184246
-0.0191209
-0.0191203
-0.0191202
-0.0191203
-0.0191209
-0.019825
-0.0198244
-0.0198243
-0.0198244
-0.019825
-0.020537
-0.0205364
-0.0205363
-0.0205364
-0.020537
-0.0212569
-0.0212563
-0.0212562
-0.0212563
-0.0212569
-0.0219848
-0.0219843
-0.0219842
-0.0219843
-0.0219848
-0.0227209
-0.0227204
-0.0227203
-0.0227204
-0.0227209
-0.0234652
-0.0234647
-0.0234646
-0.0234647
-0.0234652
-0.0242178
-0.0242173
-0.0242172
-0.0242173
-0.0242178
-0.0249787
-0.0249783
-0.0249782
-0.0249783
-0.0249787
-0.0257482
-0.0257477
-0.0257476
-0.0257477
-0.0257482
-0.0265263
-0.0265258
-0.0265257
-0.0265258
-0.0265263
-0.027313
-0.0273126
-0.0273125
-0.0273126
-0.027313
-0.0281085
-0.0281081
-0.028108
-0.0281081
-0.0281085
-0.0289129
-0.0289125
-0.0289124
-0.0289125
-0.0289129
-0.0297263
-0.0297259
-0.0297258
-0.0297259
-0.0297263
-0.0305488
-0.0305484
-0.0305483
-0.0305484
-0.0305488
-0.0313804
-0.03138
-0.0313799
-0.03138
-0.0313804
-0.0322213
-0.0322209
-0.0322208
-0.0322209
-0.0322213
-0.0330716
-0.0330712
-0.0330712
-0.0330712
-0.0330716
-0.0339314
-0.033931
-0.033931
-0.033931
-0.0339314
-0.0348008
-0.0348004
-0.0348003
-0.0348004
-0.0348008
-0.0356798
-0.0356795
-0.0356794
-0.0356795
-0.0356799
-0.0365687
-0.0365684
-0.0365683
-0.0365684
-0.0365687
-0.0374675
-0.0374672
-0.0374672
-0.0374672
-0.0374675
-0.0383764
-0.0383761
-0.038376
-0.0383761
-0.0383764
-0.0392954
-0.0392951
-0.039295
-0.0392951
-0.0392954
-0.0402246
-0.0402243
-0.0402242
-0.0402243
-0.0402246
-0.0411642
-0.0411639
-0.0411639
-0.0411639
-0.0411642
-0.0421143
-0.042114
-0.042114
-0.042114
-0.0421143
-0.043075
-0.0430747
-0.0430747
-0.0430747
-0.043075
-0.0440464
-0.0440462
-0.0440461
-0.0440462
-0.0440464
-0.0450287
-0.0450284
-0.0450283
-0.0450284
-0.0450287
-0.0460219
-0.0460216
-0.0460216
-0.0460216
-0.0460219
-0.0470262
-0.0470259
-0.0470259
-0.0470259
-0.0470262
-0.0480417
-0.0480415
-0.0480414
-0.0480415
-0.0480417
-0.0490685
-0.0490683
-0.0490682
-0.0490683
-0.0490685
-0.0501068
-0.0501066
-0.0501065
-0.0501066
-0.0501068
-0.0511567
-0.0511565
-0.0511564
-0.0511565
-0.0511567
-0.0522183
-0.0522181
-0.052218
-0.0522181
-0.0522183
-0.0532917
-0.0532915
-0.0532915
-0.0532915
-0.0532917
-0.0543771
-0.054377
-0.0543769
-0.054377
-0.0543771
-0.0554747
-0.0554745
-0.0554745
-0.0554745
-0.0554747
-0.0565845
-0.0565843
-0.0565843
-0.0565843
-0.0565845
-0.0577066
-0.0577065
-0.0577064
-0.0577065
-0.0577066
-0.0588413
-0.0588412
-0.0588411
-0.0588412
-0.0588413
-0.0599887
-0.0599885
-0.0599885
-0.0599885
-0.0599887
-0.0611488
-0.0611487
-0.0611486
-0.0611487
-0.0611488
-0.0623219
-0.0623218
-0.0623217
-0.0623218
-0.0623219
-0.0635081
-0.063508
-0.0635079
-0.063508
-0.0635081
-0.0647075
-0.0647074
-0.0647074
-0.0647074
-0.0647075
-0.0659203
-0.0659202
-0.0659202
-0.0659202
-0.0659203
-0.0671467
-0.0671466
-0.0671466
-0.0671466
-0.0671467
-0.0683867
-0.0683866
-0.0683866
-0.0683866
-0.0683867
-0.0696406
-0.0696405
-0.0696405
-0.0696405
-0.0696406
-0.0709084
-0.0709084
-0.0709083
-0.0709084
-0.0709084
-0.0721904
-0.0721904
-0.0721903
-0.0721904
-0.0721904
-0.0734867
-0.0734867
-0.0734867
-0.0734867
-0.0734867
-0.0747975
-0.0747975
-0.0747974
-0.0747975
-0.0747975
-0.0761229
-0.0761229
-0.0761229
-0.0761229
-0.0761229
-0.0774631
-0.0774631
-0.0774631
-0.0774631
-0.0774631
-0.0788183
-0.0788182
-0.0788182
-0.0788182
-0.0788183
-0.0801885
-0.0801885
-0.0801885
-0.0801885
-0.0801885
-0.0815741
-0.0815741
-0.0815741
-0.0815741
-0.0815741
-0.0829751
-0.0829751
-0.0829751
-0.0829751
-0.0829751
-0.0843918
-0.0843918
-0.0843918
-0.0843918
-0.0843918
-0.0858243
-0.0858242
-0.0858242
-0.0858242
-0.0858243
-0.0872727
-0.0872727
-0.0872727
-0.0872727
-0.0872727
-0.0887373
-0.0887373
-0.0887373
-0.0887373
-0.0887373
)
;

boundaryField
{
    BotWall
    {
        type            calculated;
        value           nonuniform List<scalar> 5(0.618767 0.618873 0.619013 0.618888 0.618767);
    }
    FreeStream
    {
        type            calculated;
        value           nonuniform List<scalar> 5(-0.0894737 -0.0894737 -0.0894737 -0.0894737 -0.0894737);
    }
    FrontNBack
    {
        type            empty;
    }
    LeftSide
    {
        type            symmetryPlane;
    }
    RightSide
    {
        type            symmetryPlane;
    }
}


// ************************************************************************* //
