/*--------------------------------*- C++ -*----------------------------------*\
| =========                 |                                                 |
| \\      /  F ield         | OpenFOAM: The Open Source CFD Toolbox           |
|  \\    /   O peration     | Version:  2.4.0                                 |
|   \\  /    A nd           | Web:      www.OpenFOAM.org                      |
|    \\/     M anipulation  |                                                 |
\*---------------------------------------------------------------------------*/
FoamFile
{
    version     2.0;
    format      ascii;
    class       volScalarField;
    location    "2.9";
    object      p_rgh;
}
// * * * * * * * * * * * * * * * * * * * * * * * * * * * * * * * * * * * * * //

dimensions      [1 -1 -2 0 0 0 0];

internalField   nonuniform List<scalar> 
500
(
0.618767
0.618873
0.619013
0.618888
0.618767
0.618808
0.618917
0.619058
0.618931
0.618808
0.618789
0.618897
0.619037
0.618911
0.618788
0.618813
0.618924
0.619065
0.618938
0.618813
0.618786
0.618898
0.61904
0.618912
0.618786
0.61881
0.618924
0.619067
0.618938
0.61881
0.618777
0.618892
0.619035
0.618905
0.618776
0.618801
0.618918
0.619062
0.618931
0.6188
0.6188
0.618917
0.619063
0.618931
0.618799
0.618948
0.619068
0.619216
0.619082
0.618948
0.619001
0.619122
0.61927
0.619135
0.619
0.618275
0.618397
0.618546
0.618411
0.618275
0.615251
0.615369
0.615517
0.615383
0.61525
0.613125
0.613243
0.613389
0.613257
0.613125
0.632516
0.63266
0.632823
0.632673
0.632515
0.70788
0.708121
0.708359
0.708135
0.707878
0.761892
0.762241
0.762554
0.762253
0.76189
0.258782
0.258684
0.258599
0.258694
0.258783
-1.59814
-1.6003
-1.60224
-1.6003
-1.59813
-3.82196
-3.82717
-3.83116
-3.82718
-3.82192
-0.00540002
-0.00539888
-0.00539852
-0.00539888
-0.00540003
0.00179327
0.0017936
0.00179347
0.00179359
0.00179327
0.00056403
0.000564797
0.000564887
0.000564796
0.000564027
-1.33394e-05
-1.25575e-05
-1.24279e-05
-1.25582e-05
-1.33428e-05
-7.93893e-05
-7.86748e-05
-7.85554e-05
-7.86756e-05
-7.93926e-05
-3.52963e-05
-3.46125e-05
-3.45007e-05
-3.46133e-05
-3.52994e-05
-1.34498e-05
-1.27765e-05
-1.26662e-05
-1.27773e-05
-1.3453e-05
-1.10719e-05
-1.04094e-05
-1.0299e-05
-1.04102e-05
-1.1075e-05
-1.27554e-05
-1.21071e-05
-1.19969e-05
-1.21079e-05
-1.27584e-05
-1.35473e-05
-1.29142e-05
-1.28043e-05
-1.2915e-05
-1.35503e-05
-1.35648e-05
-1.29465e-05
-1.28372e-05
-1.29474e-05
-1.35678e-05
-1.34226e-05
-1.28188e-05
-1.27099e-05
-1.28196e-05
-1.34255e-05
-1.33159e-05
-1.27263e-05
-1.2618e-05
-1.27271e-05
-1.33187e-05
-1.32394e-05
-1.26638e-05
-1.25561e-05
-1.26646e-05
-1.32421e-05
-1.31684e-05
-1.26068e-05
-1.24997e-05
-1.26076e-05
-1.31711e-05
-1.30954e-05
-1.25476e-05
-1.24411e-05
-1.25484e-05
-1.3098e-05
-1.30204e-05
-1.24863e-05
-1.23805e-05
-1.24871e-05
-1.30231e-05
-1.29446e-05
-1.24239e-05
-1.23189e-05
-1.24247e-05
-1.29472e-05
-1.28682e-05
-1.23607e-05
-1.22566e-05
-1.23615e-05
-1.28707e-05
-1.27911e-05
-1.22968e-05
-1.21935e-05
-1.22976e-05
-1.27936e-05
-1.27134e-05
-1.2232e-05
-1.21296e-05
-1.22328e-05
-1.27159e-05
-1.2635e-05
-1.21664e-05
-1.20649e-05
-1.21672e-05
-1.26374e-05
-1.25559e-05
-1.20999e-05
-1.19994e-05
-1.21007e-05
-1.25583e-05
-1.24761e-05
-1.20325e-05
-1.1933e-05
-1.20333e-05
-1.24785e-05
-1.23956e-05
-1.19642e-05
-1.18658e-05
-1.1965e-05
-1.23979e-05
-1.23144e-05
-1.18951e-05
-1.17978e-05
-1.18958e-05
-1.23167e-05
-1.22325e-05
-1.1825e-05
-1.17289e-05
-1.18258e-05
-1.22347e-05
-1.21498e-05
-1.1754e-05
-1.16591e-05
-1.17548e-05
-1.21519e-05
-1.20664e-05
-1.16821e-05
-1.15884e-05
-1.16828e-05
-1.20685e-05
-1.19822e-05
-1.16093e-05
-1.15168e-05
-1.161e-05
-1.19843e-05
-1.18973e-05
-1.15355e-05
-1.14443e-05
-1.15362e-05
-1.18993e-05
-1.18116e-05
-1.14607e-05
-1.13709e-05
-1.14615e-05
-1.18136e-05
-1.17251e-05
-1.1385e-05
-1.12966e-05
-1.13857e-05
-1.17271e-05
-1.16379e-05
-1.13084e-05
-1.12213e-05
-1.13091e-05
-1.16398e-05
-1.15498e-05
-1.12307e-05
-1.11451e-05
-1.12314e-05
-1.15517e-05
-1.1461e-05
-1.11521e-05
-1.1068e-05
-1.11527e-05
-1.14627e-05
-1.13713e-05
-1.10724e-05
-1.09898e-05
-1.10731e-05
-1.1373e-05
-1.12808e-05
-1.09918e-05
-1.09107e-05
-1.09924e-05
-1.12825e-05
-1.11894e-05
-1.09101e-05
-1.08306e-05
-1.09107e-05
-1.11911e-05
-1.10972e-05
-1.08274e-05
-1.07495e-05
-1.0828e-05
-1.10988e-05
-1.10042e-05
-1.07437e-05
-1.06674e-05
-1.07443e-05
-1.10057e-05
-1.09102e-05
-1.06589e-05
-1.05843e-05
-1.06595e-05
-1.09118e-05
-1.08154e-05
-1.0573e-05
-1.05001e-05
-1.05736e-05
-1.08169e-05
-1.07197e-05
-1.04861e-05
-1.04149e-05
-1.04867e-05
-1.07211e-05
-1.06231e-05
-1.03981e-05
-1.03286e-05
-1.03987e-05
-1.06245e-05
-1.05255e-05
-1.0309e-05
-1.02413e-05
-1.03096e-05
-1.05269e-05
-1.04271e-05
-1.02188e-05
-1.01529e-05
-1.02194e-05
-1.04284e-05
-1.03277e-05
-1.01275e-05
-1.00633e-05
-1.01281e-05
-1.03289e-05
-1.02273e-05
-1.00351e-05
-9.97273e-06
-1.00356e-05
-1.02285e-05
-1.0126e-05
-9.94157e-06
-9.881e-06
-9.94207e-06
-1.01271e-05
-1.00236e-05
-9.84688e-06
-9.78814e-06
-9.84737e-06
-1.00248e-05
-9.9203e-06
-9.75104e-06
-9.69415e-06
-9.75151e-06
-9.92142e-06
-9.81597e-06
-9.65404e-06
-9.59901e-06
-9.6545e-06
-9.81705e-06
-9.71061e-06
-9.55586e-06
-9.5027e-06
-9.55631e-06
-9.71165e-06
-9.60422e-06
-9.45651e-06
-9.40523e-06
-9.45694e-06
-9.60521e-06
-9.49677e-06
-9.35595e-06
-9.30657e-06
-9.35637e-06
-9.49772e-06
-9.38825e-06
-9.2542e-06
-9.20672e-06
-9.2546e-06
-9.38916e-06
-9.27864e-06
-9.15123e-06
-9.10566e-06
-9.15161e-06
-9.27952e-06
-9.16794e-06
-9.04703e-06
-9.00338e-06
-9.0474e-06
-9.16878e-06
-9.05612e-06
-8.94159e-06
-8.89987e-06
-8.94195e-06
-9.05692e-06
-8.94317e-06
-8.83491e-06
-8.79512e-06
-8.83525e-06
-8.94393e-06
-8.82908e-06
-8.72696e-06
-8.68911e-06
-8.72729e-06
-8.8298e-06
-8.71382e-06
-8.61774e-06
-8.58184e-06
-8.61805e-06
-8.7145e-06
-8.59738e-06
-8.50724e-06
-8.4733e-06
-8.50754e-06
-8.59802e-06
-8.47974e-06
-8.39545e-06
-8.36346e-06
-8.39573e-06
-8.48035e-06
-8.36089e-06
-8.28235e-06
-8.25233e-06
-8.28261e-06
-8.36146e-06
-8.2408e-06
-8.16793e-06
-8.13989e-06
-8.16817e-06
-8.24133e-06
-8.11946e-06
-8.05219e-06
-8.02612e-06
-8.05241e-06
-8.11995e-06
-7.99685e-06
-7.9351e-06
-7.91102e-06
-7.93531e-06
-7.99731e-06
-7.87296e-06
-7.81666e-06
-7.79458e-06
-7.81685e-06
-7.87337e-06
-7.74775e-06
-7.69686e-06
-7.67678e-06
-7.69703e-06
-7.74812e-06
-7.62121e-06
-7.57568e-06
-7.55761e-06
-7.57583e-06
-7.62155e-06
-7.49333e-06
-7.45311e-06
-7.43707e-06
-7.45325e-06
-7.49363e-06
-7.36407e-06
-7.32914e-06
-7.31514e-06
-7.32926e-06
-7.36433e-06
-7.23343e-06
-7.20377e-06
-7.19181e-06
-7.20387e-06
-7.23364e-06
-7.10137e-06
-7.07697e-06
-7.06707e-06
-7.07705e-06
-7.10155e-06
-6.96788e-06
-6.94873e-06
-6.9409e-06
-6.94879e-06
-6.96802e-06
-6.83295e-06
-6.81903e-06
-6.81326e-06
-6.81907e-06
-6.83305e-06
-6.69649e-06
-6.68788e-06
-6.68424e-06
-6.6879e-06
-6.69655e-06
-6.55811e-06
-6.55528e-06
-6.55407e-06
-6.55529e-06
-6.55813e-06
)
;

boundaryField
{
    BotWall
    {
        type            fixedFluxPressure;
        gradient        uniform 0;
        value           nonuniform List<scalar> 5(0.618767 0.618873 0.619013 0.618888 0.618767);
    }
    FreeStream
    {
        type            totalPressure;
        rho             rho;
        psi             none;
        gamma           1;
        p0              uniform 0;
        value           nonuniform List<scalar> 5(-6.48829e-06 -6.48865e-06 -6.48887e-06 -6.48865e-06 -6.48828e-06);
    }
    FrontNBack
    {
        type            empty;
    }
    LeftSide
    {
        type            symmetryPlane;
    }
    RightSide
    {
        type            symmetryPlane;
    }
}


// ************************************************************************* //
