/*--------------------------------*- C++ -*----------------------------------*\
| =========                 |                                                 |
| \\      /  F ield         | OpenFOAM: The Open Source CFD Toolbox           |
|  \\    /   O peration     | Version:  2.4.0                                 |
|   \\  /    A nd           | Web:      www.OpenFOAM.org                      |
|    \\/     M anipulation  |                                                 |
\*---------------------------------------------------------------------------*/
FoamFile
{
    version     2.0;
    format      ascii;
    class       surfaceScalarField;
    location    "2.9";
    object      phi;
}
// * * * * * * * * * * * * * * * * * * * * * * * * * * * * * * * * * * * * * //

dimensions      [0 3 -1 0 0 0 0];

internalField   nonuniform List<scalar> 
895
(
3.63065e-18
-3.63122e-18
2.20813e-18
1.42245e-18
-2.31193e-18
4.518e-18
-3.62081e-18
1.30862e-18
-3.62154e-18
1.11882e-17
-1.48202e-17
6.86618e-18
5.74306e-18
-7.16672e-18
1.8549e-17
-1.11703e-17
5.31067e-18
-1.4793e-17
1.91491e-17
-3.39703e-17
1.18012e-17
1.30894e-17
-1.22938e-17
4.2642e-17
-1.91309e-17
1.21461e-17
-3.3925e-17
2.75019e-17
-6.14732e-17
1.69932e-17
2.35964e-17
-1.76757e-17
7.73087e-17
-2.74901e-17
2.19587e-17
-6.14163e-17
3.62881e-17
-9.77624e-17
2.24699e-17
3.74129e-17
-2.33384e-17
1.23115e-16
-3.62885e-17
3.49071e-17
-9.77059e-17
4.5492e-17
-1.43256e-16
2.82255e-17
5.46775e-17
-2.92758e-17
1.80614e-16
-4.55099e-17
5.11394e-17
-1.43217e-16
5.51782e-17
-1.98435e-16
3.4296e-17
7.55579e-17
-3.55232e-17
2.50431e-16
-5.52199e-17
7.08344e-17
-1.98438e-16
6.53198e-17
-2.63756e-16
4.06726e-17
1.00203e-16
-4.20714e-17
3.33172e-16
-6.5392e-17
9.41533e-17
-2.63831e-16
7.59974e-17
-3.39754e-16
4.73988e-17
1.288e-16
-4.89632e-17
4.29532e-16
-7.61073e-17
1.21296e-16
-3.39939e-16
8.71777e-17
-4.26933e-16
5.4463e-17
1.61513e-16
-5.61866e-17
5.4018e-16
-8.73328e-17
1.5244e-16
-4.27273e-16
9.89511e-17
-5.25885e-16
6.19147e-17
1.98548e-16
-6.37905e-17
6.65883e-16
-9.91594e-17
1.87808e-16
-5.26433e-16
1.11282e-16
-6.37169e-16
6.97415e-17
2.40087e-16
-7.17617e-17
8.07385e-16
-1.11552e-16
2.27597e-16
-6.37986e-16
1.2427e-16
-7.61439e-16
7.7997e-17
2.86359e-16
-8.01534e-17
9.65533e-16
-1.2461e-16
2.72053e-16
-7.62597e-16
1.37873e-16
-8.99313e-16
8.66683e-17
3.37562e-16
-8.89516e-17
1.14115e-15
-1.38294e-16
3.21394e-16
-9.00891e-16
1.52183e-16
-1.0515e-15
9.58007e-17
3.93943e-16
-9.82012e-17
1.33515e-15
-1.52693e-16
3.75885e-16
-1.05359e-15
1.6717e-16
-1.21867e-15
1.05375e-16
4.55738e-16
-1.07882e-16
1.54841e-15
-1.6778e-16
4.35783e-16
-1.22137e-15
1.83049e-16
-1.40172e-15
1.15582e-16
5.23204e-16
-1.18181e-16
1.78217e-15
-1.83774e-16
5.01376e-16
-1.40514e-15
2.00112e-16
-1.60183e-15
1.26487e-16
5.96828e-16
-1.29222e-16
2.03788e-15
-2.0098e-16
5.73134e-16
-1.60612e-15
2.18773e-16
-8.30785e-15
1.39408e-16
6.76192e-16
-1.42151e-16
2.31944e-15
-2.19801e-16
6.50783e-16
-8.33223e-15
2.46664e-16
-2.38567e-10
1.59063e-16
-2.38577e-10
-1.6179e-16
-2.38585e-10
-2.47946e-16
-2.38578e-10
-2.38567e-10
2.49398e-16
-2.38568e-10
1.5822e-16
-2.38577e-10
-1.6105e-16
-2.38585e-10
-2.50615e-16
-2.38577e-10
-2.38568e-10
2.34156e-16
-2.38568e-10
1.52559e-16
-2.38577e-10
-1.5524e-16
-2.38585e-10
-2.35314e-16
-2.38577e-10
-2.38568e-10
2.07829e-16
-2.38568e-10
1.38094e-16
-2.38577e-10
-1.40684e-16
-2.38584e-10
-2.08811e-16
-2.38577e-10
-2.38568e-10
1.88963e-16
-2.38568e-10
1.25772e-16
-2.38577e-10
-1.28252e-16
-2.38584e-10
-1.89812e-16
-2.38577e-10
-2.38568e-10
1.72329e-16
-2.38569e-10
1.14736e-16
-2.38577e-10
-1.17099e-16
-2.38584e-10
-1.7306e-16
-2.38577e-10
-2.38568e-10
1.55617e-16
-2.38569e-10
1.04172e-16
-2.38577e-10
-1.0642e-16
-2.38584e-10
-1.56231e-16
-2.38577e-10
-2.38569e-10
1.3881e-16
-2.38569e-10
9.37481e-17
-2.38577e-10
-9.58818e-17
-2.38584e-10
-1.39307e-16
-2.38577e-10
-2.38569e-10
1.22334e-16
-2.38569e-10
8.34795e-17
-2.38577e-10
-8.54989e-17
-2.38583e-10
-1.22715e-16
-2.38577e-10
-2.38569e-10
1.06339e-16
-2.38569e-10
7.34471e-17
-2.38577e-10
-7.53523e-17
-2.38583e-10
-1.06607e-16
-2.38577e-10
-2.38569e-10
9.08276e-17
-2.38569e-10
6.36975e-17
-2.38577e-10
-6.5489e-17
-2.38583e-10
-9.09838e-17
-2.38577e-10
-2.38569e-10
7.57982e-17
-2.38569e-10
5.42508e-17
-2.38577e-10
-5.59289e-17
-2.38583e-10
-7.58459e-17
-2.38577e-10
-2.38569e-10
6.12744e-17
-2.38569e-10
4.51214e-17
-2.38577e-10
-4.66869e-17
-2.38583e-10
-6.12165e-17
-2.38577e-10
-2.38569e-10
4.72874e-17
-2.38569e-10
3.63258e-17
-2.38577e-10
-3.77796e-17
-2.38583e-10
-4.71271e-17
-2.38577e-10
-2.38569e-10
3.38663e-17
-2.38569e-10
2.78816e-17
-2.38577e-10
-2.92246e-17
-2.38583e-10
-3.36071e-17
-2.38577e-10
-2.38569e-10
2.10379e-17
-2.38569e-10
1.98062e-17
-2.38577e-10
-2.10395e-17
-2.38583e-10
-2.06836e-17
-2.38577e-10
-2.38569e-10
8.82719e-18
-2.38569e-10
1.21159e-17
-2.38577e-10
-1.32407e-17
-2.38583e-10
-8.3819e-18
-2.38577e-10
-2.38569e-10
-2.74205e-18
-2.38569e-10
4.82612e-18
-2.38577e-10
-5.84393e-18
-2.38583e-10
3.27409e-18
-2.38577e-10
-2.38569e-10
-1.36476e-17
-2.38569e-10
-2.04852e-18
-2.38577e-10
1.13627e-18
-2.38583e-10
1.42618e-17
-2.38577e-10
-2.38569e-10
-2.38683e-17
-2.38569e-10
-8.49464e-18
-2.38577e-10
7.68628e-18
-2.38583e-10
2.456e-17
-2.38577e-10
-2.38569e-10
-3.33854e-17
-2.38569e-10
-1.44999e-17
-2.38577e-10
1.37937e-17
-2.38583e-10
3.41495e-17
-2.38577e-10
-2.38569e-10
-4.2182e-17
-2.38569e-10
-2.00534e-17
-2.38577e-10
1.94473e-17
-2.38583e-10
4.30132e-17
-2.38577e-10
-2.38569e-10
-5.02431e-17
-2.38569e-10
-2.51452e-17
-2.38577e-10
2.46373e-17
-2.38583e-10
5.11362e-17
-2.38577e-10
-2.38569e-10
-5.75563e-17
-2.38569e-10
-2.97673e-17
-2.38577e-10
2.93555e-17
-2.38583e-10
5.85056e-17
-2.38577e-10
-2.38569e-10
-6.41114e-17
-2.38569e-10
-3.3913e-17
-2.38577e-10
3.35949e-17
-2.38583e-10
6.51112e-17
-2.38577e-10
-2.38569e-10
-6.99008e-17
-2.38569e-10
-3.75771e-17
-2.38577e-10
3.73504e-17
-2.38583e-10
7.09453e-17
-2.38577e-10
-2.38569e-10
-7.49195e-17
-2.38569e-10
-4.07565e-17
-2.38577e-10
4.06187e-17
-2.38583e-10
7.60028e-17
-2.38577e-10
-2.38569e-10
-7.91655e-17
-2.38569e-10
-4.34496e-17
-2.38577e-10
4.33982e-17
-2.38583e-10
8.02815e-17
-2.38577e-10
-2.38569e-10
-8.26395e-17
-2.38569e-10
-4.56567e-17
-2.38577e-10
4.5689e-17
-2.38583e-10
8.37821e-17
-2.38577e-10
-2.38569e-10
-8.53453e-17
-2.38569e-10
-4.738e-17
-2.38577e-10
4.74934e-17
-2.38583e-10
8.65085e-17
-2.38577e-10
-2.38569e-10
-8.72896e-17
-2.38569e-10
-4.86239e-17
-2.38577e-10
4.88155e-17
-2.38583e-10
8.84672e-17
-2.38577e-10
-2.38569e-10
-8.84823e-17
-2.38569e-10
-4.93944e-17
-2.38577e-10
4.96614e-17
-2.38584e-10
8.96683e-17
-2.38577e-10
-2.38568e-10
-8.89364e-17
-2.38568e-10
-4.96997e-17
-2.38577e-10
5.00393e-17
-2.38584e-10
9.01248e-17
-2.38577e-10
-2.38568e-10
-8.8668e-17
-2.38568e-10
-4.95501e-17
-2.38577e-10
4.99593e-17
-2.38584e-10
8.98528e-17
-2.38577e-10
-2.38568e-10
-8.76962e-17
-2.38568e-10
-4.89576e-17
-2.38577e-10
4.94335e-17
-2.38584e-10
8.88716e-17
-2.38578e-10
-2.38568e-10
-8.60431e-17
-2.38568e-10
-4.79365e-17
-2.38577e-10
4.8476e-17
-2.38584e-10
8.72035e-17
-2.38578e-10
-2.38568e-10
-8.3734e-17
-2.38568e-10
-4.65027e-17
-2.38577e-10
4.71028e-17
-2.38584e-10
8.48738e-17
-2.38578e-10
-2.38568e-10
-8.07967e-17
-2.38568e-10
-4.4674e-17
-2.38578e-10
4.53318e-17
-2.38584e-10
8.19107e-17
-2.38578e-10
-2.38568e-10
-7.7262e-17
-2.38568e-10
-4.24701e-17
-2.38578e-10
4.31824e-17
-2.38584e-10
7.8345e-17
-2.38578e-10
-2.38568e-10
-7.31631e-17
-2.38568e-10
-3.9912e-17
-2.38578e-10
4.0676e-17
-2.38584e-10
7.42102e-17
-2.38578e-10
-2.38568e-10
-6.85353e-17
-2.38568e-10
-3.70226e-17
-2.38578e-10
3.78352e-17
-2.38584e-10
6.95421e-17
-2.38578e-10
-2.38568e-10
-6.34164e-17
-2.38568e-10
-3.38259e-17
-2.38578e-10
3.46841e-17
-2.38584e-10
6.43785e-17
-2.38578e-10
-2.38568e-10
-5.78458e-17
-2.38568e-10
-3.03471e-17
-2.38578e-10
3.1248e-17
-2.38585e-10
5.87593e-17
-2.38578e-10
-2.38568e-10
-5.18644e-17
-2.38568e-10
-2.66123e-17
-2.38578e-10
2.7553e-17
-2.38585e-10
5.27256e-17
-2.38578e-10
-2.38567e-10
-4.55146e-17
-2.38568e-10
-2.26487e-17
-2.38578e-10
2.36263e-17
-2.38585e-10
4.63202e-17
-2.38578e-10
-2.38567e-10
-3.88395e-17
-2.38568e-10
-1.84839e-17
-2.38578e-10
1.94955e-17
-2.38585e-10
3.95865e-17
-2.38578e-10
-2.38567e-10
-3.18827e-17
-2.38568e-10
-1.41456e-17
-2.38578e-10
1.51886e-17
-2.38585e-10
3.25685e-17
-2.38578e-10
-2.38567e-10
-2.46882e-17
-2.38567e-10
-9.66215e-18
-2.38578e-10
1.07337e-17
-2.38585e-10
2.53106e-17
-2.38578e-10
-2.38567e-10
-1.72997e-17
-2.38567e-10
-5.06126e-18
-2.38578e-10
6.15882e-18
-2.38585e-10
1.78568e-17
-2.38578e-10
-2.38567e-10
-9.76028e-18
-2.38567e-10
-3.70505e-19
-2.38578e-10
1.49144e-18
-2.38585e-10
1.02505e-17
-2.38578e-10
-2.38567e-10
-2.11201e-18
-2.38567e-10
4.38325e-18
-2.38578e-10
-3.24146e-18
-2.38585e-10
2.53413e-18
-2.38578e-10
-2.38567e-10
5.6042e-18
-2.38567e-10
9.17406e-18
-2.38578e-10
-8.01385e-18
-2.38585e-10
-5.25096e-18
-2.38578e-10
-2.38567e-10
1.33494e-17
-2.38567e-10
1.39771e-17
-2.38578e-10
-1.28008e-17
-2.38585e-10
-1.30655e-17
-2.38578e-10
-2.38567e-10
2.10867e-17
-2.38567e-10
1.8769e-17
-2.38578e-10
-1.75789e-17
-2.38585e-10
-2.08724e-17
-2.38578e-10
-2.38567e-10
2.87815e-17
-2.38568e-10
2.35278e-17
-2.38578e-10
-2.23261e-17
-2.38585e-10
-2.86367e-17
-2.38578e-10
-2.38567e-10
3.64023e-17
-2.38568e-10
2.82337e-17
-2.38578e-10
-2.70224e-17
-2.38585e-10
-3.63264e-17
-2.38578e-10
-2.38567e-10
4.39202e-17
-2.38568e-10
3.28684e-17
-2.38578e-10
-3.16497e-17
-2.38584e-10
-4.39127e-17
-2.38578e-10
-2.38567e-10
5.13097e-17
-2.38568e-10
3.74163e-17
-2.38578e-10
-3.61919e-17
-2.38584e-10
-5.13697e-17
-2.38578e-10
-2.38568e-10
5.8549e-17
-2.38568e-10
4.18635e-17
-2.38578e-10
-4.06352e-17
-2.38584e-10
-5.86752e-17
-2.38578e-10
-2.38568e-10
6.56193e-17
-2.38568e-10
4.61988e-17
-2.38578e-10
-4.49683e-17
-2.38584e-10
-6.58106e-17
-2.38578e-10
-2.38568e-10
7.25058e-17
-2.38568e-10
5.04132e-17
-2.38578e-10
-4.9182e-17
-2.38584e-10
-7.27607e-17
-2.38578e-10
-2.38568e-10
7.9197e-17
-2.38568e-10
5.44999e-17
-2.38578e-10
-5.32696e-17
-2.38584e-10
-7.95139e-17
-2.38578e-10
-2.38568e-10
8.56851e-17
-2.38568e-10
5.84547e-17
-2.38578e-10
-5.72264e-17
-2.38584e-10
-8.60622e-17
-2.38578e-10
-2.38568e-10
9.19653e-17
-2.38568e-10
6.22753e-17
-2.38578e-10
-6.10502e-17
-2.38584e-10
-9.24009e-17
-2.38578e-10
-2.38568e-10
9.80359e-17
-2.38568e-10
6.59614e-17
-2.38578e-10
-6.47405e-17
-2.38584e-10
-9.85281e-17
-2.38578e-10
-2.38568e-10
1.03898e-16
-2.38568e-10
6.95146e-17
-2.38578e-10
-6.82987e-17
-2.38584e-10
-1.04445e-16
-2.38578e-10
-2.38568e-10
1.09554e-16
-2.38568e-10
7.29377e-17
-2.38578e-10
-7.17276e-17
-2.38583e-10
-1.10154e-16
-2.38578e-10
-2.38568e-10
1.1501e-16
-2.38569e-10
7.62349e-17
-2.38577e-10
-7.5031e-17
-2.38583e-10
-1.15661e-16
-2.38578e-10
-2.38568e-10
1.20271e-16
-2.38569e-10
7.94108e-17
-2.38577e-10
-7.82135e-17
-2.38583e-10
-1.2097e-16
-2.38578e-10
-2.38569e-10
1.25343e-16
-2.38569e-10
8.24707e-17
-2.38577e-10
-8.12799e-17
-2.38583e-10
-1.26089e-16
-2.38577e-10
-2.38569e-10
1.30231e-16
-2.38569e-10
8.54191e-17
-2.38577e-10
-8.42349e-17
-2.38583e-10
-1.31023e-16
-2.38577e-10
-2.38569e-10
1.34941e-16
-2.38569e-10
8.826e-17
-2.38577e-10
-8.7082e-17
-2.38583e-10
-1.35775e-16
-2.38577e-10
-2.38569e-10
1.39474e-16
-2.38569e-10
9.09961e-17
-2.38577e-10
-8.98237e-17
-2.38582e-10
-1.40349e-16
-2.38577e-10
-2.38569e-10
1.43829e-16
-2.38569e-10
9.36277e-17
-2.38577e-10
-9.24601e-17
-2.38582e-10
-1.44743e-16
-2.38577e-10
-2.38569e-10
1.48e-16
-2.38569e-10
9.61526e-17
-2.38577e-10
-9.49888e-17
-2.38582e-10
-1.4895e-16
-2.38577e-10
-2.38569e-10
1.51976e-16
-2.3857e-10
9.8565e-17
-2.38577e-10
-9.74036e-17
-2.38582e-10
-1.52961e-16
-2.38577e-10
-2.3857e-10
1.5574e-16
-2.3857e-10
1.00855e-16
-2.38577e-10
-9.96939e-17
-2.38582e-10
-1.56756e-16
-2.38577e-10
-2.3857e-10
1.59263e-16
-2.3857e-10
1.03005e-16
-2.38577e-10
-1.01843e-16
-2.38581e-10
-1.60308e-16
-2.38577e-10
-2.3857e-10
1.62516e-16
-2.3857e-10
1.04998e-16
-2.38577e-10
-1.03833e-16
-2.38581e-10
-1.63586e-16
-2.38577e-10
-2.3857e-10
1.65477e-16
-2.3857e-10
1.06823e-16
-2.38577e-10
-1.05652e-16
-2.38581e-10
-1.66569e-16
-2.38577e-10
-2.3857e-10
1.6812e-16
1.08461e-16
-1.07279e-16
-1.69233e-16
)
;

boundaryField
{
    BotWall
    {
        type            calculated;
        value           nonuniform List<scalar> 5(-1.81761e-23 7.4492e-23 -2.48621e-22 7.69384e-23 -9.18581e-23);
    }
    FreeStream
    {
        type            calculated;
        value           nonuniform List<scalar> 5(-2.3857e-10 -2.38577e-10 -2.38581e-10 -2.38577e-10 -2.3857e-10);
    }
    FrontNBack
    {
        type            empty;
        value           nonuniform 0();
    }
    LeftSide
    {
        type            symmetryPlane;
        value           uniform 0;
    }
    RightSide
    {
        type            symmetryPlane;
        value           uniform 0;
    }
}


// ************************************************************************* //
