/*--------------------------------*- C++ -*----------------------------------*\
| =========                 |                                                 |
| \\      /  F ield         | OpenFOAM: The Open Source CFD Toolbox           |
|  \\    /   O peration     | Version:  2.4.0                                 |
|   \\  /    A nd           | Web:      www.OpenFOAM.org                      |
|    \\/     M anipulation  |                                                 |
\*---------------------------------------------------------------------------*/
FoamFile
{
    version     2.0;
    format      ascii;
    class       volVectorField;
    location    "2.9";
    object      U;
}
// * * * * * * * * * * * * * * * * * * * * * * * * * * * * * * * * * * * * * //

dimensions      [0 1 -1 0 0 0 0];

internalField   nonuniform List<vector> 
500
(
(9.87889e-10 -5.48134e-10 0)
(1.66459e-09 -5.54885e-10 0)
(-3.00805e-11 -5.52071e-10 0)
(-1.67767e-09 -5.55008e-10 0)
(-9.71226e-10 -5.48116e-10 0)
(3.00101e-09 1.36744e-09 0)
(5.07425e-09 1.44935e-09 0)
(-8.68815e-11 1.48141e-09 0)
(-5.1135e-09 1.44818e-09 0)
(-2.95437e-09 1.36753e-09 0)
(5.07019e-09 -2.53229e-09 0)
(8.59221e-09 -2.42695e-09 0)
(-1.40807e-10 -2.32916e-09 0)
(-8.65814e-09 -2.43014e-09 0)
(-4.99697e-09 -2.53211e-09 0)
(7.1882e-09 3.11953e-09 0)
(1.22127e-08 3.5041e-09 0)
(-1.91996e-10 3.70214e-09 0)
(-1.23062e-08 3.49784e-09 0)
(-7.09204e-09 3.11981e-09 0)
(9.36551e-09 -4.74915e-09 0)
(1.59484e-08 -4.302e-09 0)
(-2.4016e-10 -3.96203e-09 0)
(-1.607e-08 -4.31212e-09 0)
(-9.24985e-09 -4.74886e-09 0)
(1.15913e-08 4.86165e-09 0)
(1.97907e-08 5.78773e-09 0)
(-2.85235e-10 6.3055e-09 0)
(-1.99406e-08 5.77276e-09 0)
(-1.14595e-08 4.86193e-09 0)
(1.38828e-08 -7.47195e-09 0)
(2.37589e-08 -6.43685e-09 0)
(-3.27122e-10 -5.69391e-09 0)
(-2.39376e-08 -6.45728e-09 0)
(-1.37385e-08 -7.47185e-09 0)
(1.62258e-08 6.3771e-09 0)
(2.78412e-08 8.10378e-09 0)
(-3.65696e-10 9.11026e-09 0)
(-2.80491e-08 8.07693e-09 0)
(-1.60727e-08 6.37697e-09 0)
(1.86418e-08 -1.08406e-08 0)
(3.20614e-08 -8.94561e-09 0)
(-4.00855e-10 -7.62103e-09 0)
(-3.2299e-08 -8.9793e-09 0)
(-1.84838e-08 -1.08412e-08 0)
(2.11141e-08 1.0029e-08 0)
(3.64053e-08 1.28437e-08 0)
(-4.32476e-10 1.45309e-08 0)
(-3.66731e-08 1.28022e-08 0)
(-2.0955e-08 1.00278e-08 0)
(2.36664e-08 -7.59309e-09 0)
(4.08995e-08 -4.52812e-09 0)
(-4.60475e-10 -2.41366e-09 0)
(-4.11979e-08 -4.57749e-09 0)
(-2.35104e-08 -7.59534e-09 0)
(2.62808e-08 1.77538e-08 0)
(4.55287e-08 2.1975e-08 0)
(-4.84703e-10 2.4557e-08 0)
(-4.58582e-08 2.19169e-08 0)
(-2.61321e-08 1.77504e-08 0)
(2.89823e-08 -5.74565e-08 0)
(5.03209e-08 -5.2974e-08 0)
(-5.05063e-10 -4.98981e-08 0)
(-5.06821e-08 -5.30409e-08 0)
(-2.88452e-08 -5.74612e-08 0)
(3.17522e-08 -1.63358e-07 0)
(5.526e-08 -1.57652e-07 0)
(-5.21398e-10 -1.54131e-07 0)
(-5.56533e-08 -1.57729e-07 0)
(-3.16313e-08 -1.63363e-07 0)
(3.46154e-08 -2.02773e-07 0)
(6.03728e-08 -1.96648e-07 0)
(-5.33611e-10 -1.92534e-07 0)
(-6.07989e-08 -1.96734e-07 0)
(-3.45151e-08 -2.02779e-07 0)
(3.75592e-08 1.02123e-06 0)
(6.56525e-08 1.03051e-06 0)
(-5.41517e-10 1.03635e-06 0)
(-6.61117e-08 1.03042e-06 0)
(-3.74845e-08 1.02121e-06 0)
(4.06302e-08 4.69701e-06 0)
(7.11645e-08 4.7116e-06 0)
(-5.44983e-10 4.72193e-06 0)
(-7.16578e-08 4.71151e-06 0)
(-4.05861e-08 4.69696e-06 0)
(4.38356e-08 3.80407e-06 0)
(7.69235e-08 3.82259e-06 0)
(-5.51586e-10 3.835e-06 0)
(-7.74621e-08 3.8225e-06 0)
(-4.38302e-08 3.80399e-06 0)
(4.71412e-08 -2.0954e-05 0)
(8.2898e-08 -2.09587e-05 0)
(-5.398e-10 -2.09685e-05 0)
(-8.34639e-08 -2.09589e-05 0)
(-4.7175e-08 -2.09539e-05 0)
(5.13909e-08 -0.000164864 0)
(9.04571e-08 -0.000165015 0)
(-5.25824e-10 -0.000165146 0)
(-9.10572e-08 -0.000165016 0)
(-5.14729e-08 -0.000164862 0)
(5.2722e-08 -0.000951448 0)
(9.28945e-08 -0.000951383 0)
(-5.20254e-10 -0.000951346 0)
(-9.35059e-08 -0.000951383 0)
(-5.28209e-08 -0.000951448 0)
(4.86431e-08 -0.00217107 0)
(8.68584e-08 -0.00217104 0)
(-4.96051e-10 -0.002171 0)
(-8.74265e-08 -0.00217104 0)
(-4.87252e-08 -0.00217107 0)
(4.32916e-08 -0.00121585 0)
(7.83169e-08 -0.00121595 0)
(-4.79659e-10 -0.00121601 0)
(-7.88342e-08 -0.00121595 0)
(-4.33417e-08 -0.00121585 0)
(3.8826e-08 -0.0011352 0)
(7.08547e-08 -0.00113526 0)
(-4.63291e-10 -0.0011353 0)
(-7.13239e-08 -0.00113526 0)
(-3.88467e-08 -0.0011352 0)
(3.4786e-08 -0.00116483 0)
(6.40066e-08 -0.00116487 0)
(-4.46639e-10 -0.0011649 0)
(-6.44299e-08 -0.00116487 0)
(-3.47797e-08 -0.00116483 0)
(3.09058e-08 -0.00119107 0)
(5.74499e-08 -0.00119111 0)
(-4.30007e-10 -0.00119114 0)
(-5.78286e-08 -0.00119111 0)
(-3.08739e-08 -0.00119107 0)
(2.71292e-08 -0.00119543 0)
(5.10953e-08 -0.00119547 0)
(-4.13539e-10 -0.0011955 0)
(-5.14307e-08 -0.00119547 0)
(-2.70728e-08 -0.00119543 0)
(2.34945e-08 -0.00119396 0)
(4.498e-08 -0.001194 0)
(-3.97238e-10 -0.00119403 0)
(-4.52734e-08 -0.001194 0)
(-2.34145e-08 -0.00119396 0)
(2.00253e-08 -0.00119292 0)
(3.91327e-08 -0.00119296 0)
(-3.81085e-10 -0.00119299 0)
(-3.93855e-08 -0.00119296 0)
(-1.99229e-08 -0.00119292 0)
(1.67249e-08 -0.00119274 0)
(3.356e-08 -0.00119278 0)
(-3.65074e-10 -0.00119281 0)
(-3.37735e-08 -0.00119278 0)
(-1.66013e-08 -0.00119274 0)
(1.35915e-08 -0.0011928 0)
(2.8262e-08 -0.00119284 0)
(-3.492e-10 -0.00119287 0)
(-2.84377e-08 -0.00119284 0)
(-1.34479e-08 -0.0011928 0)
(1.06248e-08 -0.00119284 0)
(2.32398e-08 -0.00119288 0)
(-3.33463e-10 -0.00119291 0)
(-2.33792e-08 -0.00119288 0)
(-1.04625e-08 -0.00119284 0)
(7.82562e-09 -0.00119285 0)
(1.84953e-08 -0.00119289 0)
(-3.17862e-10 -0.00119292 0)
(-1.86e-08 -0.00119289 0)
(-7.64601e-09 -0.00119285 0)
(5.19463e-09 -0.00119285 0)
(1.40303e-08 -0.00119289 0)
(-3.02396e-10 -0.00119292 0)
(-1.41018e-08 -0.00119289 0)
(-4.999e-09 -0.00119285 0)
(2.73207e-09 -0.00119285 0)
(9.84578e-09 -0.00119288 0)
(-2.87064e-10 -0.00119291 0)
(-9.88565e-09 -0.00119288 0)
(-2.5218e-09 -0.00119285 0)
(4.3778e-10 -0.00119285 0)
(5.94203e-09 -0.00119288 0)
(-2.71867e-10 -0.00119291 0)
(-5.95195e-09 -0.00119288 0)
(-2.14263e-10 -0.00119285 0)
(-1.68876e-09 -0.00119285 0)
(2.31883e-09 -0.00119288 0)
(-2.56805e-10 -0.00119291 0)
(-2.30047e-09 -0.00119288 0)
(1.92411e-09 -0.00119285 0)
(-3.64839e-09 -0.00119285 0)
(-1.02472e-09 -0.00119288 0)
(-2.41881e-10 -0.00119291 0)
(1.06969e-09 -0.00119288 0)
(3.89415e-09 -0.00119285 0)
(-5.44234e-09 -0.00119285 0)
(-4.09015e-09 -0.00119288 0)
(-2.27096e-10 -0.00119291 0)
(4.16002e-09 -0.00119288 0)
(5.69707e-09 -0.00119285 0)
(-7.07217e-09 -0.00119285 0)
(-6.87966e-09 -0.00119288 0)
(-2.12452e-10 -0.00119291 0)
(6.97272e-09 -0.00119289 0)
(7.33443e-09 -0.00119285 0)
(-8.53985e-09 -0.00119285 0)
(-9.39611e-09 -0.00119288 0)
(-1.97953e-10 -0.00119291 0)
(9.51065e-09 -0.00119289 0)
(8.8082e-09 -0.00119285 0)
(-9.84769e-09 -0.00119285 0)
(-1.16431e-08 -0.00119288 0)
(-1.83603e-10 -0.00119291 0)
(1.17774e-08 -0.00119289 0)
(1.01207e-08 -0.00119285 0)
(-1.09984e-08 -0.00119285 0)
(-1.36248e-08 -0.00119288 0)
(-1.69405e-10 -0.00119291 0)
(1.37771e-08 -0.00119289 0)
(1.12747e-08 -0.00119285 0)
(-1.19952e-08 -0.00119285 0)
(-1.53462e-08 -0.00119289 0)
(-1.55366e-10 -0.00119291 0)
(1.55149e-08 -0.00119289 0)
(1.22733e-08 -0.00119285 0)
(-1.28414e-08 -0.00119285 0)
(-1.6813e-08 -0.00119289 0)
(-1.41492e-10 -0.00119291 0)
(1.69963e-08 -0.00119289 0)
(1.31199e-08 -0.00119284 0)
(-1.35409e-08 -0.00119284 0)
(-1.80314e-08 -0.00119289 0)
(-1.27788e-10 -0.00119292 0)
(1.82277e-08 -0.00119289 0)
(1.38186e-08 -0.00119284 0)
(-1.4098e-08 -0.00119284 0)
(-1.90085e-08 -0.00119289 0)
(-1.14262e-10 -0.00119292 0)
(1.92162e-08 -0.00119289 0)
(1.43735e-08 -0.00119284 0)
(-1.45172e-08 -0.00119284 0)
(-1.97519e-08 -0.00119289 0)
(-1.00921e-10 -0.00119292 0)
(1.99694e-08 -0.00119289 0)
(1.47893e-08 -0.00119284 0)
(-1.48036e-08 -0.00119284 0)
(-2.02701e-08 -0.00119289 0)
(-8.77751e-11 -0.00119292 0)
(2.04957e-08 -0.00119289 0)
(1.5071e-08 -0.00119284 0)
(-1.49624e-08 -0.00119284 0)
(-2.05718e-08 -0.00119289 0)
(-7.48326e-11 -0.00119292 0)
(2.08041e-08 -0.00119289 0)
(1.52239e-08 -0.00119284 0)
(-1.49993e-08 -0.00119284 0)
(-2.06668e-08 -0.00119289 0)
(-6.21033e-11 -0.00119292 0)
(2.09042e-08 -0.00119289 0)
(1.52537e-08 -0.00119284 0)
(-1.49201e-08 -0.00119284 0)
(-2.05649e-08 -0.00119289 0)
(-4.95979e-11 -0.00119292 0)
(2.08061e-08 -0.00119289 0)
(1.51664e-08 -0.00119284 0)
(-1.4731e-08 -0.00119284 0)
(-2.0277e-08 -0.00119289 0)
(-3.73272e-11 -0.00119292 0)
(2.05205e-08 -0.00119289 0)
(1.49682e-08 -0.00119284 0)
(-1.44386e-08 -0.00119284 0)
(-1.9814e-08 -0.00119289 0)
(-2.53028e-11 -0.00119292 0)
(2.00585e-08 -0.00119289 0)
(1.46657e-08 -0.00119284 0)
(-1.40495e-08 -0.00119284 0)
(-1.91875e-08 -0.00119289 0)
(-1.35368e-11 -0.00119292 0)
(1.94318e-08 -0.00119289 0)
(1.42657e-08 -0.00119284 0)
(-1.35706e-08 -0.00119284 0)
(-1.84094e-08 -0.00119289 0)
(-2.04152e-12 -0.00119292 0)
(1.86523e-08 -0.00119289 0)
(1.37751e-08 -0.00119284 0)
(-1.3009e-08 -0.00119284 0)
(-1.74918e-08 -0.00119289 0)
(9.17033e-12 -0.00119292 0)
(1.77322e-08 -0.00119289 0)
(1.3201e-08 -0.00119284 0)
(-1.23718e-08 -0.00119284 0)
(-1.64473e-08 -0.00119289 0)
(2.00858e-11 -0.00119292 0)
(1.66841e-08 -0.00119289 0)
(1.25507e-08 -0.00119284 0)
(-1.16663e-08 -0.00119284 0)
(-1.52884e-08 -0.00119289 0)
(3.06918e-11 -0.00119292 0)
(1.55207e-08 -0.00119289 0)
(1.18315e-08 -0.00119284 0)
(-1.08999e-08 -0.00119284 0)
(-1.40279e-08 -0.00119289 0)
(4.09752e-11 -0.00119292 0)
(1.42547e-08 -0.00119289 0)
(1.10509e-08 -0.00119284 0)
(-1.00799e-08 -0.00119284 0)
(-1.26784e-08 -0.00119289 0)
(5.0923e-11 -0.00119292 0)
(1.2899e-08 -0.00119289 0)
(1.02163e-08 -0.00119284 0)
(-9.21359e-09 -0.00119284 0)
(-1.12528e-08 -0.00119289 0)
(6.05224e-11 -0.00119292 0)
(1.14665e-08 -0.00119289 0)
(9.33509e-09 -0.00119284 0)
(-8.30822e-09 -0.00119284 0)
(-9.76368e-09 -0.00119289 0)
(6.97612e-11 -0.00119292 0)
(9.96967e-09 -0.00119289 0)
(8.41457e-09 -0.00119284 0)
(-7.37093e-09 -0.00119284 0)
(-8.22331e-09 -0.00119289 0)
(7.86274e-11 -0.00119292 0)
(8.4211e-09 -0.00119289 0)
(7.46195e-09 -0.00119284 0)
(-6.40867e-09 -0.00119284 0)
(-6.64383e-09 -0.00119289 0)
(8.71099e-11 -0.00119292 0)
(6.83292e-09 -0.00119289 0)
(6.48427e-09 -0.00119284 0)
(-5.42819e-09 -0.00119284 0)
(-5.03696e-09 -0.00119289 0)
(9.51983e-11 -0.00119292 0)
(5.21695e-09 -0.00119289 0)
(5.48837e-09 -0.00119284 0)
(-4.436e-09 -0.00119284 0)
(-3.41401e-09 -0.00119289 0)
(1.02884e-10 -0.00119292 0)
(3.58453e-09 -0.00119289 0)
(4.48083e-09 -0.00119284 0)
(-3.43833e-09 -0.00119284 0)
(-1.78572e-09 -0.00119289 0)
(1.10157e-10 -0.00119292 0)
(1.94652e-09 -0.00119289 0)
(3.46793e-09 -0.00119284 0)
(-2.44108e-09 -0.00119284 0)
(-1.62284e-10 -0.00119289 0)
(1.17013e-10 -0.00119292 0)
(3.13151e-10 -0.00119289 0)
(2.45565e-09 -0.00119284 0)
(-1.44977e-09 -0.00119284 0)
(1.44679e-09 -0.00119289 0)
(1.23445e-10 -0.00119292 0)
(-1.30599e-09 -0.00119289 0)
(1.44958e-09 -0.00119284 0)
(-4.69547e-10 -0.00119284 0)
(3.03269e-09 -0.00119289 0)
(1.2945e-10 -0.00119292 0)
(-2.90202e-09 -0.00119289 0)
(4.5492e-10 -0.00119284 0)
(4.94864e-10 -0.00119284 0)
(4.5874e-09 -0.00119289 0)
(1.35027e-10 -0.00119292 0)
(-4.46687e-09 -0.00119289 0)
(-5.23561e-10 -0.00119284 0)
(1.4392e-09 -0.00119284 0)
(6.10368e-09 -0.00119289 0)
(1.40175e-10 -0.00119292 0)
(-5.99326e-09 -0.00119289 0)
(-1.48154e-09 -0.00119284 0)
(2.35964e-09 -0.00119284 0)
(7.57518e-09 -0.00119289 0)
(1.44896e-10 -0.00119292 0)
(-7.47477e-09 -0.00119289 0)
(-2.41518e-09 -0.00119284 0)
(3.25288e-09 -0.00119284 0)
(8.99642e-09 -0.00119289 0)
(1.49195e-10 -0.00119292 0)
(-8.90587e-09 -0.00119289 0)
(-3.32112e-09 -0.00119284 0)
(4.11607e-09 -0.00119284 0)
(1.03628e-08 -0.00119289 0)
(1.53078e-10 -0.00119292 0)
(-1.02819e-08 -0.00119289 0)
(-4.19648e-09 -0.00119284 0)
(4.94687e-09 -0.00119284 0)
(1.16706e-08 -0.00119289 0)
(1.56554e-10 -0.00119292 0)
(-1.15992e-08 -0.00119289 0)
(-5.03891e-09 -0.00119284 0)
(5.74341e-09 -0.00119284 0)
(1.2917e-08 -0.00119289 0)
(1.59635e-10 -0.00119292 0)
(-1.28549e-08 -0.00119289 0)
(-5.84651e-09 -0.00119284 0)
(6.50431e-09 -0.00119284 0)
(1.41002e-08 -0.00119289 0)
(1.62332e-10 -0.00119292 0)
(-1.4047e-08 -0.00119289 0)
(-6.6179e-09 -0.00119284 0)
(7.22863e-09 -0.00119284 0)
(1.52189e-08 -0.00119289 0)
(1.64661e-10 -0.00119292 0)
(-1.51743e-08 -0.00119289 0)
(-7.35214e-09 -0.00119284 0)
(7.91586e-09 -0.00119284 0)
(1.62729e-08 -0.00119289 0)
(1.6664e-10 -0.00119292 0)
(-1.62367e-08 -0.00119289 0)
(-8.04871e-09 -0.00119284 0)
(8.5659e-09 -0.00119284 0)
(1.72626e-08 -0.00119289 0)
(1.68289e-10 -0.00119292 0)
(-1.72343e-08 -0.00119289 0)
(-8.70751e-09 -0.00119284 0)
(9.17899e-09 -0.00119284 0)
(1.8189e-08 -0.00119289 0)
(1.69628e-10 -0.00119292 0)
(-1.81684e-08 -0.00119289 0)
(-9.32879e-09 -0.00119284 0)
(9.75568e-09 -0.00119284 0)
(1.90538e-08 -0.00119289 0)
(1.7068e-10 -0.00119292 0)
(-1.90405e-08 -0.00119289 0)
(-9.91312e-09 -0.00119284 0)
(1.02968e-08 -0.00119284 0)
(1.9859e-08 -0.00119289 0)
(1.7147e-10 -0.00119292 0)
(-1.98526e-08 -0.00119289 0)
(-1.04613e-08 -0.00119284 0)
(1.08033e-08 -0.00119284 0)
(2.06071e-08 -0.00119289 0)
(1.72024e-10 -0.00119292 0)
(-2.06073e-08 -0.00119289 0)
(-1.09744e-08 -0.00119284 0)
(1.12763e-08 -0.00119284 0)
(2.13008e-08 -0.00119289 0)
(1.72368e-10 -0.00119292 0)
(-2.13073e-08 -0.00119289 0)
(-1.14535e-08 -0.00119284 0)
(1.1717e-08 -0.00119284 0)
(2.19428e-08 -0.00119289 0)
(1.72529e-10 -0.00119292 0)
(-2.19552e-08 -0.00119289 0)
(-1.18999e-08 -0.00119284 0)
(1.21266e-08 -0.00119284 0)
(2.25361e-08 -0.00119289 0)
(1.72535e-10 -0.00119291 0)
(-2.2554e-08 -0.00119289 0)
(-1.23147e-08 -0.00119284 0)
(1.25062e-08 -0.00119284 0)
(2.30832e-08 -0.00119289 0)
(1.72414e-10 -0.00119291 0)
(-2.31062e-08 -0.00119289 0)
(-1.2699e-08 -0.00119284 0)
(1.28567e-08 -0.00119284 0)
(2.35863e-08 -0.00119289 0)
(1.72193e-10 -0.00119291 0)
(-2.36142e-08 -0.00119289 0)
(-1.30538e-08 -0.00119284 0)
(1.31788e-08 -0.00119285 0)
(2.40475e-08 -0.00119289 0)
(1.71899e-10 -0.00119291 0)
(-2.40797e-08 -0.00119289 0)
(-1.33798e-08 -0.00119284 0)
(1.34727e-08 -0.00119285 0)
(2.44679e-08 -0.00119289 0)
(1.71557e-10 -0.00119291 0)
(-2.45042e-08 -0.00119289 0)
(-1.36772e-08 -0.00119285 0)
(1.37384e-08 -0.00119285 0)
(2.48481e-08 -0.00119289 0)
(1.71193e-10 -0.00119291 0)
(-2.4888e-08 -0.00119289 0)
(-1.39461e-08 -0.00119285 0)
(1.39754e-08 -0.00119285 0)
(2.51877e-08 -0.00119289 0)
(1.70829e-10 -0.00119291 0)
(-2.52308e-08 -0.00119289 0)
(-1.41858e-08 -0.00119285 0)
(1.41824e-08 -0.00119285 0)
(2.54853e-08 -0.00119289 0)
(1.70485e-10 -0.00119291 0)
(-2.55312e-08 -0.00119289 0)
(-1.43952e-08 -0.00119285 0)
(1.43576e-08 -0.00119285 0)
(2.57384e-08 -0.00119289 0)
(1.70181e-10 -0.00119291 0)
(-2.57866e-08 -0.00119289 0)
(-1.45724e-08 -0.00119285 0)
(1.4499e-08 -0.00119285 0)
(2.59438e-08 -0.00119288 0)
(1.69935e-10 -0.00119291 0)
(-2.59939e-08 -0.00119289 0)
(-1.47153e-08 -0.00119285 0)
(1.46046e-08 -0.00119285 0)
(2.60987e-08 -0.00119288 0)
(1.69774e-10 -0.00119291 0)
(-2.61501e-08 -0.00119288 0)
(-1.48221e-08 -0.00119285 0)
(1.46709e-08 -0.00119285 0)
(2.61972e-08 -0.00119288 0)
(1.69717e-10 -0.0011929 0)
(-2.62494e-08 -0.00119288 0)
(-1.48891e-08 -0.00119285 0)
)
;

boundaryField
{
    BotWall
    {
        type            fixedValue;
        value           uniform (0 0 0);
    }
    FreeStream
    {
        type            zeroGradient;
    }
    FrontNBack
    {
        type            empty;
    }
    LeftSide
    {
        type            symmetryPlane;
    }
    RightSide
    {
        type            symmetryPlane;
    }
}


// ************************************************************************* //
