/*--------------------------------*- C++ -*----------------------------------*\
| =========                 |                                                 |
| \\      /  F ield         | OpenFOAM: The Open Source CFD Toolbox           |
|  \\    /   O peration     | Version:  2.4.0                                 |
|   \\  /    A nd           | Web:      www.OpenFOAM.org                      |
|    \\/     M anipulation  |                                                 |
\*---------------------------------------------------------------------------*/
FoamFile
{
    version     2.0;
    format      ascii;
    class       volScalarField;
    location    "0.013";
    object      H;
}
// * * * * * * * * * * * * * * * * * * * * * * * * * * * * * * * * * * * * * //

dimensions      [0 2 -2 0 0 0 0];

internalField   nonuniform List<scalar> 
125
(
-0.0363176
-0.0330214
-0.0300047
-0.0272457
-0.0247241
-0.0224211
-0.0203192
-0.0184021
-0.0166549
-0.0150635
-0.0136151
-0.0122977
-0.0111003
-0.0100128
-0.00902562
-0.00813023
-0.00731863
-0.00658349
-0.00591807
-0.00531618
-0.00477212
-0.00428069
-0.0038371
-0.00343699
-0.00307634
-0.00275151
-0.00245914
-0.00219618
-0.00195984
-0.0017476
-0.00155713
-0.00138632
-0.00123328
-0.00109624
-0.000973648
-0.00086405
-0.000766153
-0.000678777
-0.000600854
-0.00053142
-0.000469601
-0.000414608
-0.00036573
-0.000322323
-0.00028381
-0.000249669
-0.00021943
-0.000192673
-0.000169017
-0.000148123
-0.000129686
-0.000113433
-9.91179e-05
-8.65227e-05
-7.54515e-05
-6.57297e-05
-5.72014e-05
-4.97277e-05
-4.3185e-05
-3.74633e-05
-3.24648e-05
-2.81029e-05
-2.43004e-05
-2.09893e-05
-1.81092e-05
-1.56069e-05
-1.34351e-05
-1.15524e-05
-9.92208e-06
-8.51201e-06
-7.29381e-06
-6.24263e-06
-5.33662e-06
-4.55664e-06
-3.88603e-06
-3.31009e-06
-2.81609e-06
-2.39286e-06
-2.03073e-06
-1.72127e-06
-1.45714e-06
-1.232e-06
-1.04032e-06
-8.77338e-07
-7.38941e-07
-6.21578e-07
-5.22176e-07
-4.38091e-07
-3.67066e-07
-3.07151e-07
-2.56681e-07
-2.14188e-07
-1.78523e-07
-1.48574e-07
-1.23487e-07
-1.0252e-07
-8.49424e-08
-7.03246e-08
-5.81248e-08
-4.79793e-08
-3.95488e-08
-3.25432e-08
-2.67463e-08
-2.19586e-08
-1.79879e-08
-1.47257e-08
-1.20331e-08
-9.80813e-09
-8.00273e-09
-6.5034e-09
-5.27553e-09
-4.2859e-09
-3.46922e-09
-2.80573e-09
-2.26635e-09
-1.8032e-09
-1.46914e-09
-1.18471e-09
-9.45036e-10
-7.72515e-10
-6.04636e-10
-4.70059e-10
-3.62355e-10
-3.35479e-10
-2.64171e-10
)
;

boundaryField
{
    BotWall
    {
        type            zeroGradient;
    }
    FreeStream
    {
        type            zeroGradient;
    }
    FrontNBack
    {
        type            empty;
    }
    LeftSide
    {
        type            symmetryPlane;
    }
    RightSide
    {
        type            symmetryPlane;
    }
    procBoundary5to2
    {
        type            processor;
        value           nonuniform List<scalar> 
50
(
-3.30205e-06
-2.80914e-06
-2.3869e-06
-2.02562e-06
-1.71688e-06
-1.45336e-06
-1.22878e-06
-1.03756e-06
-8.74998e-07
-7.36942e-07
-6.19868e-07
-5.20722e-07
-4.36876e-07
-3.66024e-07
-3.06286e-07
-2.55932e-07
-2.13572e-07
-1.77996e-07
-1.48142e-07
-1.23119e-07
-1.02204e-07
-8.46984e-08
-7.01062e-08
-5.7951e-08
-4.78218e-08
-3.94258e-08
-3.24471e-08
-2.66611e-08
-2.18884e-08
-1.79345e-08
-1.46707e-08
-1.19965e-08
-9.78472e-09
-7.9731e-09
-6.47801e-09
-5.26109e-09
-4.27317e-09
-3.45814e-09
-2.79223e-09
-2.25999e-09
-1.80441e-09
-1.45983e-09
-1.18373e-09
-9.37205e-10
-7.71238e-10
-6.06788e-10
-4.66116e-10
-3.6396e-10
-3.37915e-10
-2.57671e-10
)
;
    }
    procBoundary5to3
    {
        type            processor;
        value           nonuniform List<scalar> 
75
(
-0.036253
-0.0329627
-0.0299515
-0.0271974
-0.0246803
-0.0223814
-0.0202833
-0.0183696
-0.0166255
-0.015037
-0.0135912
-0.0122761
-0.0110809
-0.00999523
-0.00900982
-0.008116
-0.00730583
-0.00657198
-0.00590772
-0.00530688
-0.00476377
-0.00427319
-0.00383038
-0.00343096
-0.00307094
-0.00274667
-0.0024548
-0.0021923
-0.00195638
-0.0017445
-0.00155436
-0.00138385
-0.00123107
-0.00109428
-0.000971897
-0.000862492
-0.000764766
-0.000677543
-0.000599758
-0.000530447
-0.000468737
-0.000413842
-0.000365051
-0.000321722
-0.000283278
-0.000249198
-0.000219015
-0.000192306
-0.000168693
-0.000147838
-0.000129435
-0.000113211
-9.89232e-05
-8.63515e-05
-7.53012e-05
-6.55978e-05
-5.70858e-05
-4.96265e-05
-4.30964e-05
-3.73859e-05
-3.23972e-05
-2.80438e-05
-2.42489e-05
-2.09444e-05
-1.80702e-05
-1.55729e-05
-1.34056e-05
-1.15267e-05
-9.89984e-06
-8.49272e-06
-7.27711e-06
-6.22815e-06
-5.32412e-06
-4.54585e-06
-3.87668e-06
)
;
    }
    procBoundary5to4
    {
        type            processor;
        value           uniform -1.76924e-10;
    }
    procBoundary5to6
    {
        type            processor;
        value           uniform -0.0399165;
    }
    procBoundary5to7
    {
        type            processor;
        value           nonuniform List<scalar> 
75
(
-0.000126501
-0.000110625
-9.66462e-05
-8.43486e-05
-7.35411e-05
-6.40525e-05
-5.57305e-05
-4.84391e-05
-4.20572e-05
-3.64773e-05
-3.16038e-05
-2.73517e-05
-2.36458e-05
-2.04196e-05
-1.76139e-05
-1.51767e-05
-1.3062e-05
-1.12291e-05
-9.64236e-06
-8.27027e-06
-7.08515e-06
-6.06271e-06
-5.18172e-06
-4.42346e-06
-3.77162e-06
-3.21196e-06
-2.73202e-06
-2.32094e-06
-1.96929e-06
-1.66886e-06
-1.41247e-06
-1.19399e-06
-1.00802e-06
-8.49934e-07
-7.15715e-07
-6.01929e-07
-5.05567e-07
-4.24082e-07
-3.55263e-07
-2.97214e-07
-2.48322e-07
-2.07209e-07
-1.72658e-07
-1.43673e-07
-1.19391e-07
-9.9097e-08
-8.21121e-08
-6.79577e-08
-5.61579e-08
-4.63554e-08
-3.81991e-08
-3.14347e-08
-2.58369e-08
-2.12024e-08
-1.73653e-08
-1.42204e-08
-1.16078e-08
-9.47177e-09
-7.72443e-09
-6.27507e-09
-5.10751e-09
-4.111e-09
-3.35458e-09
-2.70329e-09
-2.184e-09
-1.76589e-09
-1.39571e-09
-1.14898e-09
-8.82103e-10
-7.75028e-10
-5.73056e-10
-4.64048e-10
-3.6594e-10
-3.03987e-10
-2.54176e-10
)
;
    }
    procBoundary5to8
    {
        type            processor;
        value           nonuniform List<scalar> 
50
(
-0.0356637
-0.0324221
-0.0294558
-0.0267434
-0.0242649
-0.0220017
-0.0199364
-0.0180532
-0.016337
-0.0147741
-0.0133519
-0.0120586
-0.0108832
-0.00981574
-0.00884699
-0.00796842
-0.00717216
-0.00645101
-0.00579834
-0.00520804
-0.00467453
-0.00419268
-0.00375779
-0.00336557
-0.00301208
-0.00269373
-0.00240722
-0.00214956
-0.00191802
-0.0017101
-0.00152353
-0.00135625
-0.00120637
-0.00107219
-0.000952157
-0.000844867
-0.000749041
-0.000663524
-0.000587268
-0.000519328
-0.000458847
-0.000405052
-0.000357244
-0.000314794
-0.000277135
-0.000243756
-0.000214196
-0.000188044
-0.000164927
-0.000144512
)
;
    }
}


// ************************************************************************* //
