/*--------------------------------*- C++ -*----------------------------------*\
| =========                 |                                                 |
| \\      /  F ield         | OpenFOAM: The Open Source CFD Toolbox           |
|  \\    /   O peration     | Version:  2.4.0                                 |
|   \\  /    A nd           | Web:      www.OpenFOAM.org                      |
|    \\/     M anipulation  |                                                 |
\*---------------------------------------------------------------------------*/
FoamFile
{
    version     2.0;
    format      ascii;
    class       volVectorField;
    location    "0.013";
    object      U;
}
// * * * * * * * * * * * * * * * * * * * * * * * * * * * * * * * * * * * * * //

dimensions      [0 1 -1 0 0 0 0];

internalField   nonuniform List<vector> 
125
(
(-5.25292e-05 -0.0146093 0)
(-5.20601e-05 -0.0146089 0)
(-5.1593e-05 -0.0146085 0)
(-5.11282e-05 -0.014608 0)
(-5.06655e-05 -0.0146076 0)
(-5.02049e-05 -0.0146072 0)
(-4.97464e-05 -0.0146068 0)
(-4.929e-05 -0.0146064 0)
(-4.88357e-05 -0.014606 0)
(-4.83834e-05 -0.0146055 0)
(-4.79332e-05 -0.0146051 0)
(-4.74851e-05 -0.0146047 0)
(-4.70389e-05 -0.0146043 0)
(-4.65948e-05 -0.0146039 0)
(-4.61526e-05 -0.0146035 0)
(-4.57124e-05 -0.0146031 0)
(-4.52741e-05 -0.0146027 0)
(-4.48378e-05 -0.0146023 0)
(-4.44033e-05 -0.014602 0)
(-4.39707e-05 -0.0146016 0)
(-4.354e-05 -0.0146012 0)
(-4.31112e-05 -0.0146008 0)
(-4.26841e-05 -0.0146004 0)
(-4.22588e-05 -0.0146 0)
(-4.18353e-05 -0.0145996 0)
(-4.14135e-05 -0.0145993 0)
(-4.09934e-05 -0.0145989 0)
(-4.0575e-05 -0.0145985 0)
(-4.01583e-05 -0.0145982 0)
(-3.97432e-05 -0.0145978 0)
(-3.93297e-05 -0.0145974 0)
(-3.89177e-05 -0.0145971 0)
(-3.85073e-05 -0.0145967 0)
(-3.80984e-05 -0.0145963 0)
(-3.76909e-05 -0.014596 0)
(-3.72849e-05 -0.0145956 0)
(-3.68802e-05 -0.0145953 0)
(-3.6477e-05 -0.0145949 0)
(-3.6075e-05 -0.0145946 0)
(-3.56743e-05 -0.0145942 0)
(-3.52749e-05 -0.0145939 0)
(-3.48766e-05 -0.0145936 0)
(-3.44795e-05 -0.0145932 0)
(-3.40836e-05 -0.0145929 0)
(-3.36887e-05 -0.0145926 0)
(-3.32948e-05 -0.0145922 0)
(-3.29019e-05 -0.0145919 0)
(-3.251e-05 -0.0145916 0)
(-3.2119e-05 -0.0145912 0)
(-3.17288e-05 -0.0145909 0)
(-3.13394e-05 -0.0145906 0)
(-3.09508e-05 -0.0145903 0)
(-3.05628e-05 -0.01459 0)
(-3.01756e-05 -0.0145897 0)
(-2.97889e-05 -0.0145894 0)
(-2.94028e-05 -0.014589 0)
(-2.90172e-05 -0.0145887 0)
(-2.86321e-05 -0.0145884 0)
(-2.82474e-05 -0.0145881 0)
(-2.7863e-05 -0.0145879 0)
(-2.74789e-05 -0.0145876 0)
(-2.70951e-05 -0.0145873 0)
(-2.67115e-05 -0.014587 0)
(-2.6328e-05 -0.0145867 0)
(-2.59447e-05 -0.0145864 0)
(-2.55614e-05 -0.0145861 0)
(-2.51781e-05 -0.0145859 0)
(-2.47947e-05 -0.0145856 0)
(-2.44113e-05 -0.0145853 0)
(-2.40277e-05 -0.014585 0)
(-2.36439e-05 -0.0145848 0)
(-2.32599e-05 -0.0145845 0)
(-2.28756e-05 -0.0145843 0)
(-2.2491e-05 -0.014584 0)
(-2.2106e-05 -0.0145838 0)
(-2.17206e-05 -0.0145835 0)
(-2.13348e-05 -0.0145833 0)
(-2.09485e-05 -0.014583 0)
(-2.05616e-05 -0.0145828 0)
(-2.01742e-05 -0.0145825 0)
(-1.97862e-05 -0.0145823 0)
(-1.93976e-05 -0.0145821 0)
(-1.90084e-05 -0.0145818 0)
(-1.86186e-05 -0.0145816 0)
(-1.8228e-05 -0.0145814 0)
(-1.78368e-05 -0.0145812 0)
(-1.74449e-05 -0.014581 0)
(-1.70524e-05 -0.0145807 0)
(-1.66591e-05 -0.0145805 0)
(-1.62652e-05 -0.0145803 0)
(-1.58706e-05 -0.0145801 0)
(-1.54754e-05 -0.0145799 0)
(-1.50795e-05 -0.0145797 0)
(-1.46831e-05 -0.0145796 0)
(-1.4286e-05 -0.0145794 0)
(-1.38885e-05 -0.0145792 0)
(-1.34905e-05 -0.014579 0)
(-1.30921e-05 -0.0145788 0)
(-1.26933e-05 -0.0145787 0)
(-1.22942e-05 -0.0145785 0)
(-1.18949e-05 -0.0145783 0)
(-1.14955e-05 -0.0145782 0)
(-1.10961e-05 -0.014578 0)
(-1.06967e-05 -0.0145779 0)
(-1.02976e-05 -0.0145777 0)
(-9.89869e-06 -0.0145776 0)
(-9.50024e-06 -0.0145774 0)
(-9.10233e-06 -0.0145773 0)
(-8.70511e-06 -0.0145772 0)
(-8.30872e-06 -0.014577 0)
(-7.91332e-06 -0.0145769 0)
(-7.51905e-06 -0.0145768 0)
(-7.12608e-06 -0.0145767 0)
(-6.73457e-06 -0.0145766 0)
(-6.34467e-06 -0.0145765 0)
(-5.95656e-06 -0.0145764 0)
(-5.5704e-06 -0.0145763 0)
(-5.18635e-06 -0.0145762 0)
(-4.80458e-06 -0.0145761 0)
(-4.42522e-06 -0.014576 0)
(-4.04844e-06 -0.0145759 0)
(-3.67437e-06 -0.0145759 0)
(-3.30314e-06 -0.0145758 0)
(-2.93484e-06 -0.0145757 0)
(-2.56956e-06 -0.0145757 0)
)
;

boundaryField
{
    BotWall
    {
        type            fixedValue;
        value           nonuniform 0();
    }
    FreeStream
    {
        type            zeroGradient;
    }
    FrontNBack
    {
        type            empty;
    }
    LeftSide
    {
        type            symmetryPlane;
    }
    RightSide
    {
        type            symmetryPlane;
    }
    procBoundary5to2
    {
        type            processor;
        value           nonuniform List<vector> 
50
(
(3.61695e-05 -0.0145625 0)
(3.56124e-05 -0.0145623 0)
(3.50544e-05 -0.014562 0)
(3.44955e-05 -0.0145618 0)
(3.39357e-05 -0.0145615 0)
(3.33749e-05 -0.0145613 0)
(3.2813e-05 -0.014561 0)
(3.225e-05 -0.0145608 0)
(3.1686e-05 -0.0145606 0)
(3.11207e-05 -0.0145603 0)
(3.05543e-05 -0.0145601 0)
(2.99868e-05 -0.0145599 0)
(2.94179e-05 -0.0145597 0)
(2.88479e-05 -0.0145594 0)
(2.82766e-05 -0.0145592 0)
(2.77041e-05 -0.014559 0)
(2.71303e-05 -0.0145588 0)
(2.65553e-05 -0.0145586 0)
(2.59792e-05 -0.0145584 0)
(2.54018e-05 -0.0145582 0)
(2.48233e-05 -0.014558 0)
(2.42438e-05 -0.0145578 0)
(2.36632e-05 -0.0145576 0)
(2.30817e-05 -0.0145574 0)
(2.24993e-05 -0.0145573 0)
(2.19162e-05 -0.0145571 0)
(2.13323e-05 -0.0145569 0)
(2.07479e-05 -0.0145568 0)
(2.01631e-05 -0.0145566 0)
(1.95779e-05 -0.0145564 0)
(1.89926e-05 -0.0145563 0)
(1.84073e-05 -0.0145561 0)
(1.78222e-05 -0.014556 0)
(1.72375e-05 -0.0145558 0)
(1.66533e-05 -0.0145557 0)
(1.60699e-05 -0.0145556 0)
(1.54874e-05 -0.0145554 0)
(1.49061e-05 -0.0145553 0)
(1.43262e-05 -0.0145552 0)
(1.3748e-05 -0.0145551 0)
(1.31716e-05 -0.014555 0)
(1.25973e-05 -0.0145549 0)
(1.20253e-05 -0.0145548 0)
(1.14558e-05 -0.0145547 0)
(1.08891e-05 -0.0145546 0)
(1.03254e-05 -0.0145545 0)
(9.76487e-06 -0.0145544 0)
(9.20766e-06 -0.0145543 0)
(8.65396e-06 -0.0145542 0)
(8.1039e-06 -0.0145541 0)
)
;
    }
    procBoundary5to3
    {
        type            processor;
        value           nonuniform List<vector> 
75
(
(7.92459e-05 -0.0145893 0)
(7.86249e-05 -0.0145889 0)
(7.80055e-05 -0.0145884 0)
(7.73876e-05 -0.014588 0)
(7.67714e-05 -0.0145875 0)
(7.61567e-05 -0.0145871 0)
(7.55435e-05 -0.0145867 0)
(7.4932e-05 -0.0145863 0)
(7.4322e-05 -0.0145858 0)
(7.37136e-05 -0.0145854 0)
(7.31067e-05 -0.014585 0)
(7.25014e-05 -0.0145846 0)
(7.18976e-05 -0.0145841 0)
(7.12953e-05 -0.0145837 0)
(7.06946e-05 -0.0145833 0)
(7.00954e-05 -0.0145829 0)
(6.94978e-05 -0.0145825 0)
(6.89016e-05 -0.0145821 0)
(6.8307e-05 -0.0145817 0)
(6.77138e-05 -0.0145813 0)
(6.71222e-05 -0.0145809 0)
(6.6532e-05 -0.0145805 0)
(6.59434e-05 -0.0145801 0)
(6.53562e-05 -0.0145797 0)
(6.47704e-05 -0.0145793 0)
(6.41861e-05 -0.0145789 0)
(6.36033e-05 -0.0145785 0)
(6.30219e-05 -0.0145781 0)
(6.24419e-05 -0.0145777 0)
(6.18633e-05 -0.0145773 0)
(6.1286e-05 -0.014577 0)
(6.07102e-05 -0.0145766 0)
(6.01356e-05 -0.0145762 0)
(5.95624e-05 -0.0145759 0)
(5.89905e-05 -0.0145755 0)
(5.84199e-05 -0.0145751 0)
(5.78505e-05 -0.0145748 0)
(5.72823e-05 -0.0145744 0)
(5.67153e-05 -0.014574 0)
(5.61495e-05 -0.0145737 0)
(5.55848e-05 -0.0145733 0)
(5.50212e-05 -0.014573 0)
(5.44586e-05 -0.0145726 0)
(5.38971e-05 -0.0145723 0)
(5.33365e-05 -0.0145719 0)
(5.27769e-05 -0.0145716 0)
(5.22182e-05 -0.0145712 0)
(5.16603e-05 -0.0145709 0)
(5.11032e-05 -0.0145706 0)
(5.05469e-05 -0.0145702 0)
(4.99913e-05 -0.0145699 0)
(4.94364e-05 -0.0145696 0)
(4.88821e-05 -0.0145693 0)
(4.83283e-05 -0.0145689 0)
(4.77751e-05 -0.0145686 0)
(4.72223e-05 -0.0145683 0)
(4.66699e-05 -0.014568 0)
(4.61178e-05 -0.0145677 0)
(4.5566e-05 -0.0145674 0)
(4.50144e-05 -0.0145671 0)
(4.4463e-05 -0.0145668 0)
(4.39117e-05 -0.0145665 0)
(4.33604e-05 -0.0145662 0)
(4.28092e-05 -0.0145659 0)
(4.22578e-05 -0.0145656 0)
(4.17063e-05 -0.0145653 0)
(4.11545e-05 -0.014565 0)
(4.06025e-05 -0.0145647 0)
(4.00502e-05 -0.0145644 0)
(3.94975e-05 -0.0145641 0)
(3.89443e-05 -0.0145639 0)
(3.83906e-05 -0.0145636 0)
(3.78363e-05 -0.0145633 0)
(3.72814e-05 -0.0145631 0)
(3.67259e-05 -0.0145628 0)
)
;
    }
    procBoundary5to4
    {
        type            processor;
        value           uniform (-2.20734e-06 -0.0145756 0);
    }
    procBoundary5to6
    {
        type            processor;
        value           uniform (-5.30006e-05 -0.0146097 0);
    }
    procBoundary5to7
    {
        type            processor;
        value           nonuniform List<vector> 
75
(
(-2.21593e-05 -0.0144931 0)
(-2.19094e-05 -0.0144934 0)
(-2.16598e-05 -0.0144936 0)
(-2.14103e-05 -0.0144939 0)
(-2.11609e-05 -0.0144941 0)
(-2.09116e-05 -0.0144943 0)
(-2.06624e-05 -0.0144946 0)
(-2.04131e-05 -0.0144948 0)
(-2.01638e-05 -0.014495 0)
(-1.99144e-05 -0.0144952 0)
(-1.96648e-05 -0.0144955 0)
(-1.94151e-05 -0.0144957 0)
(-1.91651e-05 -0.0144959 0)
(-1.89149e-05 -0.0144961 0)
(-1.86644e-05 -0.0144963 0)
(-1.84135e-05 -0.0144965 0)
(-1.81623e-05 -0.0144968 0)
(-1.79106e-05 -0.014497 0)
(-1.76584e-05 -0.0144972 0)
(-1.74058e-05 -0.0144974 0)
(-1.71526e-05 -0.0144976 0)
(-1.68989e-05 -0.0144978 0)
(-1.66445e-05 -0.0144979 0)
(-1.63895e-05 -0.0144981 0)
(-1.61339e-05 -0.0144983 0)
(-1.58775e-05 -0.0144985 0)
(-1.56205e-05 -0.0144987 0)
(-1.53626e-05 -0.0144989 0)
(-1.5104e-05 -0.014499 0)
(-1.48446e-05 -0.0144992 0)
(-1.45844e-05 -0.0144994 0)
(-1.43234e-05 -0.0144996 0)
(-1.40615e-05 -0.0144997 0)
(-1.37988e-05 -0.0144999 0)
(-1.35353e-05 -0.0145 0)
(-1.32708e-05 -0.0145002 0)
(-1.30055e-05 -0.0145003 0)
(-1.27394e-05 -0.0145005 0)
(-1.24724e-05 -0.0145006 0)
(-1.22045e-05 -0.0145008 0)
(-1.19359e-05 -0.0145009 0)
(-1.16664e-05 -0.0145011 0)
(-1.13962e-05 -0.0145012 0)
(-1.11252e-05 -0.0145013 0)
(-1.08535e-05 -0.0145015 0)
(-1.05811e-05 -0.0145016 0)
(-1.03082e-05 -0.0145017 0)
(-1.00346e-05 -0.0145018 0)
(-9.76062e-06 -0.0145019 0)
(-9.48616e-06 -0.0145021 0)
(-9.21135e-06 -0.0145022 0)
(-8.93626e-06 -0.0145023 0)
(-8.66098e-06 -0.0145024 0)
(-8.38561e-06 -0.0145025 0)
(-8.11023e-06 -0.0145026 0)
(-7.83496e-06 -0.0145027 0)
(-7.5599e-06 -0.0145027 0)
(-7.28517e-06 -0.0145028 0)
(-7.01089e-06 -0.0145029 0)
(-6.73719e-06 -0.014503 0)
(-6.46419e-06 -0.014503 0)
(-6.19204e-06 -0.0145031 0)
(-5.92086e-06 -0.0145032 0)
(-5.65079e-06 -0.0145032 0)
(-5.38198e-06 -0.0145033 0)
(-5.11456e-06 -0.0145034 0)
(-4.84868e-06 -0.0145034 0)
(-4.58447e-06 -0.0145035 0)
(-4.32206e-06 -0.0145035 0)
(-4.0616e-06 -0.0145035 0)
(-3.80321e-06 -0.0145036 0)
(-3.54699e-06 -0.0145036 0)
(-3.29307e-06 -0.0145036 0)
(-3.04153e-06 -0.0145037 0)
(-2.79244e-06 -0.0145037 0)
)
;
    }
    procBoundary5to8
    {
        type            processor;
        value           nonuniform List<vector> 
50
(
(-3.5627e-05 -0.0144783 0)
(-3.53292e-05 -0.0144786 0)
(-3.50328e-05 -0.014479 0)
(-3.47378e-05 -0.0144793 0)
(-3.44443e-05 -0.0144796 0)
(-3.41521e-05 -0.01448 0)
(-3.38613e-05 -0.0144803 0)
(-3.35719e-05 -0.0144807 0)
(-3.32839e-05 -0.014481 0)
(-3.29972e-05 -0.0144813 0)
(-3.27118e-05 -0.0144816 0)
(-3.24277e-05 -0.014482 0)
(-3.2145e-05 -0.0144823 0)
(-3.18635e-05 -0.0144826 0)
(-3.15833e-05 -0.0144829 0)
(-3.13043e-05 -0.0144833 0)
(-3.10265e-05 -0.0144836 0)
(-3.075e-05 -0.0144839 0)
(-3.04747e-05 -0.0144842 0)
(-3.02005e-05 -0.0144845 0)
(-2.99275e-05 -0.0144848 0)
(-2.96557e-05 -0.0144851 0)
(-2.93849e-05 -0.0144854 0)
(-2.91153e-05 -0.0144857 0)
(-2.88468e-05 -0.014486 0)
(-2.85793e-05 -0.0144863 0)
(-2.83128e-05 -0.0144866 0)
(-2.80474e-05 -0.0144869 0)
(-2.77829e-05 -0.0144872 0)
(-2.75195e-05 -0.0144875 0)
(-2.72569e-05 -0.0144878 0)
(-2.69953e-05 -0.0144881 0)
(-2.67346e-05 -0.0144884 0)
(-2.64747e-05 -0.0144887 0)
(-2.62157e-05 -0.0144889 0)
(-2.59575e-05 -0.0144892 0)
(-2.57001e-05 -0.0144895 0)
(-2.54434e-05 -0.0144898 0)
(-2.51874e-05 -0.01449 0)
(-2.49321e-05 -0.0144903 0)
(-2.46775e-05 -0.0144906 0)
(-2.44235e-05 -0.0144908 0)
(-2.417e-05 -0.0144911 0)
(-2.39172e-05 -0.0144914 0)
(-2.36648e-05 -0.0144916 0)
(-2.34129e-05 -0.0144919 0)
(-2.31615e-05 -0.0144921 0)
(-2.29104e-05 -0.0144924 0)
(-2.26597e-05 -0.0144926 0)
(-2.24093e-05 -0.0144929 0)
)
;
    }
}


// ************************************************************************* //
