/*--------------------------------*- C++ -*----------------------------------*\
| =========                 |                                                 |
| \\      /  F ield         | OpenFOAM: The Open Source CFD Toolbox           |
|  \\    /   O peration     | Version:  2.4.0                                 |
|   \\  /    A nd           | Web:      www.OpenFOAM.org                      |
|    \\/     M anipulation  |                                                 |
\*---------------------------------------------------------------------------*/
FoamFile
{
    version     2.0;
    format      ascii;
    class       volScalarField;
    location    "0.4";
    object      alpha1;
}
// * * * * * * * * * * * * * * * * * * * * * * * * * * * * * * * * * * * * * //

dimensions      [0 0 0 0 0 0 0];

internalField   nonuniform List<scalar> 
8000
(
1
1
1
1
1
1
1
1
1
1
1
1
1
1
1
1
1
1
1
1
1
1
1
1
1
1
1
1
1
1
1
1
1
1
1
1
1
1
1
1
1
1
1
1
1
1
1
1
0.999999
0.998902
1
1
1
1
1
1
1
1
1
1
1
1
1
1
1
1
1
1
1
1
1
1
1
1
1
1
1
1
1
1
1
1
1
1
1
1
1
1
1
1
1
1
1
1
1
1
1
1
1
0.989231
1
1
1
1
1
1
1
1
1
1
1
1
1
1
1
1
1
1
1
1
1
1
1
1
1
1
1
1
1
1
1
1
1
1
1
1
1
1
1
1
1
1
1
1
1
1
1
0.999999
1
0.966238
1
1
1
1
1
1
1
1
1
1
1
1
1
1
1
1
1
1
1
1
1
1
1
1
1
1
1
1
1
1
1
1
1
1
1
1
1
1
1
1
1
1
1
1
1
1
1
0.999999
0.999973
0.928216
1
1
1
1
1
1
1
1
1
1
1
1
1
1
1
1
1
1
1
1
1
1
1
1
1
1
1
1
1
1
1
1
1
1
1
1
1
1
1
1
1
1
1
1
1
1
1
0.999998
0.999421
0.870999
1
1
1
1
1
1
1
1
1
1
1
1
1
1
1
1
1
1
1
1
1
1
1
1
1
1
1
1
1
1
1
1
1
1
1
1
1
1
1
1
1
1
1
1
1
1
0.999999
0.999995
0.996923
0.789526
1
1
1
1
1
1
1
1
1
1
1
1
1
1
1
1
1
1
1
1
1
1
1
1
1
1
1
1
1
1
1
1
1
1
1
1
1
1
1
1
1
1
1
1
1
1
0.999999
0.999999
0.989276
0.682481
1
1
1
1
1
1
1
1
1
1
1
1
1
1
1
1
1
1
1
1
1
1
1
1
1
1
1
1
1
1
1
1
1
1
1
1
1
1
1
1
1
1
1
1
1
0.999999
0.999998
0.999987
0.970833
0.551919
1
1
1
1
1
1
1
1
1
1
1
1
1
1
1
1
1
1
1
1
1
1
1
1
1
1
1
1
1
1
1
1
1
1
1
1
1
1
1
1
1
1
1
1
1
0.999999
0.999997
0.999552
0.934011
0.402267
1
1
1
1
1
1
1
1
1
1
1
1
1
1
1
1
1
1
1
1
1
1
1
1
1
1
1
1
1
1
1
1
1
1
1
1
1
1
1
1
1
1
1
1
0.999999
0.999998
0.999994
0.997301
0.866273
0.2445
1
1
1
1
1
1
1
1
1
1
1
1
1
1
1
1
1
1
1
1
1
1
1
1
1
1
1
1
1
1
1
1
1
1
1
1
1
1
1
1
1
1
1
1
0.999999
0.999997
0.999997
0.988171
0.737779
0.112757
1
1
1
1
1
1
1
1
1
1
1
1
1
1
1
1
1
1
1
1
1
1
1
1
1
1
1
1
1
1
1
1
1
1
1
1
1
1
1
1
1
1
1
0.999999
0.999998
0.999996
0.999781
0.955768
0.522532
0.0414164
1
1
1
1
1
1
1
1
1
1
1
1
1
1
1
1
1
1
1
1
1
1
1
1
1
1
1
1
1
1
1
1
1
1
1
1
1
1
1
1
1
1
0.999999
0.999999
0.999997
0.999994
0.996965
0.867804
0.276222
0.0133142
1
1
1
1
1
1
1
1
1
1
1
1
1
1
1
1
1
1
1
1
1
1
1
1
1
1
1
1
1
1
1
1
1
1
1
1
1
1
1
1
1
1
0.999999
0.999998
0.999996
0.999985
0.97946
0.671526
0.0987024
0.00396195
1
1
1
1
1
1
1
1
1
1
1
1
1
1
1
1
1
1
1
1
1
1
1
1
1
1
1
1
1
1
1
1
1
1
1
1
1
1
1
1
1
0.999999
0.999999
0.999997
0.999996
0.998404
0.904767
0.368724
0.0273512
0.00110845
1
1
1
1
1
1
1
1
1
1
1
1
1
1
1
1
1
1
1
1
1
1
1
1
1
1
1
1
1
1
1
1
1
1
1
1
1
1
1
1
1
0.999999
0.999998
0.999997
0.999992
0.981763
0.698239
0.123994
0.00693834
0.000288171
1
1
1
1
1
1
1
1
1
1
1
1
1
1
1
1
1
1
1
1
1
1
1
1
1
1
1
1
1
1
1
1
1
1
1
1
1
1
1
1
0.999999
0.999999
0.999998
0.999995
0.997756
0.89238
0.355682
0.0297211
0.001713
6.72271e-05
1
1
1
1
1
1
1
1
1
1
1
1
1
1
1
1
1
1
1
1
1
1
1
1
1
1
1
1
1
1
1
1
1
1
1
1
1
1
1
0.999999
0.999999
0.999998
0.999997
0.99991
0.970242
0.631451
0.100925
0.00656723
0.000397828
1.36877e-05
1
1
1
1
1
1
1
1
1
1
1
1
1
1
1
1
1
1
1
1
1
1
1
1
1
1
1
1
1
1
1
1
1
1
1
1
1
1
1
0.999999
0.999999
0.999997
0.999983
0.993505
0.827312
0.25954
0.0207374
0.00144753
8.46283e-05
3.71335e-06
1
1
1
1
1
1
1
1
1
1
1
1
1
1
1
1
1
1
1
1
1
1
1
1
1
1
1
1
1
1
1
1
1
1
1
1
1
1
0.999999
0.999999
0.999998
0.999997
0.999012
0.930161
0.475467
0.0571191
0.00415474
0.000301376
1.60899e-05
1.57779e-06
0.107793
0.000425198
8.11676e-07
3.10294e-08
1.3789e-09
5.64544e-11
2.08443e-12
7.02297e-14
2.17659e-15
6.22374e-17
1.64154e-18
3.98505e-20
8.87436e-22
1.80553e-23
3.34086e-25
5.59409e-27
8.43084e-29
1.13695e-30
1.36331e-32
1.44361e-34
1.33994e-36
1.08145e-38
7.52648e-41
4.48207e-43
2.27135e-45
9.82215e-48
3.71356e-50
1.31535e-52
5.09761e-55
3.54458e-57
8.12233e-59
3.03865e-60
1.16501e-61
4.29304e-63
1.51314e-64
5.10411e-66
1.64941e-67
5.1102e-69
1.51817e-70
4.32241e-72
1.17785e-73
3.06633e-75
7.60949e-77
1.79568e-78
4.01992e-80
8.51838e-82
1.70503e-83
3.2176e-85
5.71664e-87
9.30058e-89
0.100626
0.000353192
7.86239e-07
2.92813e-08
1.19771e-09
4.57941e-11
1.59014e-12
5.05362e-14
1.47896e-15
3.99337e-17
9.93932e-19
2.2745e-20
4.76746e-22
9.11228e-24
1.58033e-25
2.47341e-27
3.47307e-29
4.34742e-31
4.8176e-33
4.69055e-35
3.97946e-37
2.91575e-39
1.82793e-41
9.7213e-44
4.3632e-46
1.66606e-48
5.76294e-51
2.73985e-53
5.24678e-55
2.20557e-56
9.85911e-58
4.25157e-59
1.75406e-60
6.9199e-62
2.61181e-63
9.43869e-65
3.26848e-66
1.08502e-67
3.45242e-69
1.05208e-70
3.06606e-72
8.52935e-74
2.26005e-75
5.69061e-77
1.35853e-78
3.06855e-80
6.54442e-82
1.31558e-83
2.48925e-85
4.30596e-87
0.0894361
0.000270525
7.22603e-07
2.68355e-08
1.00409e-09
3.56631e-11
1.15976e-12
3.46456e-14
9.54447e-16
2.42652e-17
5.68341e-19
1.22246e-20
2.40462e-22
4.3042e-24
6.97269e-26
1.01625e-27
1.324e-29
1.53113e-31
1.55967e-33
1.38765e-35
1.0684e-37
7.04722e-40
3.94035e-42
1.85058e-44
7.30887e-47
2.731e-49
2.56666e-51
1.03459e-52
5.32598e-54
2.67823e-55
1.29156e-56
5.96115e-58
2.6321e-59
1.11194e-60
4.49654e-62
1.74165e-63
6.46478e-65
2.29995e-66
7.83916e-68
2.55719e-69
7.97129e-71
2.37003e-72
6.707e-74
1.80247e-75
4.5904e-77
1.1056e-78
2.51349e-80
5.3846e-82
1.08551e-83
1.99732e-85
0.0736155
0.000189531
6.2835e-07
2.3756e-08
8.08514e-10
2.6534e-11
8.04634e-13
2.25121e-14
5.81918e-16
1.38876e-17
3.05193e-19
6.15193e-21
1.13207e-22
1.89139e-24
2.85175e-26
3.85507e-28
4.63922e-30
4.93136e-32
4.59063e-34
3.70712e-36
2.56978e-38
1.51175e-40
7.4656e-43
3.12486e-45
1.52131e-47
3.36175e-49
1.86265e-50
1.08227e-51
6.07095e-53
3.26866e-54
1.6864e-55
8.33044e-57
3.93879e-58
1.78279e-59
7.72771e-61
3.20921e-62
1.27718e-63
4.87029e-65
1.77836e-66
6.21054e-68
2.07104e-69
6.58243e-71
1.98993e-72
5.70957e-74
1.55168e-75
3.98656e-77
9.66472e-79
2.20738e-80
4.74324e-82
9.28701e-84
0.0549847
0.000119063
5.17108e-07
2.01951e-08
6.22122e-10
1.87642e-11
5.28213e-13
1.37874e-14
3.33248e-16
7.44141e-18
1.52951e-19
2.88019e-21
4.9418e-23
7.67909e-25
1.07345e-26
1.34017e-28
1.48253e-30
1.44057e-32
1.21778e-34
8.8598e-37
5.48274e-39
2.85766e-41
1.31118e-43
1.05121e-45
4.38525e-47
2.84948e-48
1.84197e-49
1.14969e-50
6.90128e-52
3.97596e-53
2.19567e-54
1.16146e-55
5.88367e-57
2.85458e-58
1.3268e-59
5.90919e-61
2.52183e-62
1.03086e-63
4.03285e-65
1.50792e-66
5.38004e-68
1.82824e-69
5.90559e-71
1.80958e-72
5.24971e-74
1.43924e-75
3.72224e-77
9.06735e-79
2.07768e-80
4.33061e-82
0.0370982
6.46573e-05
4.11415e-07
1.64056e-08
4.55599e-10
1.2562e-11
3.26688e-13
7.92196e-15
1.78363e-16
3.71332e-18
7.1136e-20
1.24695e-21
1.98754e-23
2.86116e-25
3.69221e-27
4.23696e-29
4.2855e-31
3.78336e-33
2.88384e-35
1.87584e-37
1.03616e-39
5.51474e-42
8.36201e-44
5.04257e-45
3.67396e-46
2.62985e-47
1.82255e-48
1.21776e-49
7.82406e-51
4.82542e-52
2.85365e-53
1.61722e-54
8.78115e-56
4.56835e-57
2.27746e-58
1.088e-59
4.97957e-61
2.18215e-62
9.14663e-64
3.66196e-65
1.39803e-66
5.08026e-68
1.75384e-69
5.74075e-71
1.77836e-72
5.20439e-74
1.43643e-75
3.73352e-77
9.12626e-79
2.02589e-80
0.0222191
2.88793e-05
3.46284e-07
1.26887e-08
3.16797e-10
7.94452e-12
1.89919e-13
4.25904e-15
8.89488e-17
1.71957e-18
3.05811e-20
4.96993e-22
7.32807e-24
9.72871e-26
1.15328e-27
1.20981e-29
1.11198e-31
8.85741e-34
6.04723e-36
3.56011e-38
2.3873e-40
6.67228e-42
4.96447e-43
3.99658e-44
3.15765e-45
2.42411e-46
1.79949e-47
1.28739e-48
8.85613e-50
5.84933e-51
3.70586e-52
2.25093e-53
1.31048e-54
7.31256e-56
3.91083e-57
2.00422e-58
9.83797e-60
4.6218e-61
2.07569e-62
8.89858e-64
3.63549e-65
1.41293e-66
5.2142e-68
1.82366e-69
6.03413e-71
1.88565e-72
5.55613e-74
1.54145e-75
4.02114e-77
9.51047e-79
0.0116442
1.33836e-05
3.02263e-07
9.30955e-09
2.08699e-10
4.73855e-12
1.03601e-13
2.13813e-15
4.12291e-17
7.36809e-19
1.21102e-20
1.81625e-22
2.46532e-24
3.00257e-26
3.25084e-28
3.0973e-30
2.56854e-32
1.83578e-34
1.16141e-36
1.07074e-38
4.8641e-40
4.15828e-41
3.67618e-42
3.19686e-43
2.71193e-44
2.23192e-45
1.77488e-46
1.35989e-47
1.00194e-48
7.08949e-50
4.81356e-51
3.13462e-52
1.95729e-53
1.17169e-54
6.72313e-56
3.69628e-57
1.9459e-58
9.80015e-60
4.71581e-61
2.16489e-62
9.46575e-64
3.93514e-65
1.55265e-66
5.80375e-68
2.05174e-69
6.84854e-71
2.15502e-72
6.38392e-74
1.77791e-75
4.48197e-77
0.00533801
7.10947e-06
2.44597e-07
6.44471e-09
1.29709e-10
2.65546e-12
5.28179e-14
9.97804e-16
1.76726e-17
2.90482e-19
4.39e-21
6.04416e-23
7.51064e-25
8.34124e-27
8.19343e-29
7.03979e-31
5.24932e-33
3.60688e-35
4.82647e-37
3.10187e-38
2.95942e-39
2.86508e-40
2.73609e-41
2.5587e-42
2.32955e-43
2.05526e-44
1.75108e-45
1.43723e-46
1.13446e-47
8.60227e-49
6.26134e-50
4.37264e-51
2.92891e-52
1.88119e-53
1.15817e-54
6.83094e-56
3.85667e-57
2.08214e-58
1.07348e-59
5.2772e-61
2.4696e-62
1.09832e-63
4.63408e-65
1.85169e-66
6.9957e-68
2.49493e-69
8.38657e-71
2.6536e-72
7.89227e-74
2.12146e-75
0.00215992
3.55228e-06
1.824e-07
4.1759e-09
7.55045e-11
1.38862e-12
2.49878e-14
4.29501e-16
6.94528e-18
1.04377e-19
1.44184e-21
1.81127e-23
2.0472e-25
2.05883e-27
1.82158e-29
1.41047e-31
1.06298e-33
2.07264e-35
1.69966e-36
1.78969e-37
1.89565e-38
1.98506e-39
2.0423e-40
2.05258e-41
2.00513e-42
1.89637e-43
1.73127e-44
1.52249e-45
1.28783e-46
1.04673e-47
8.1694e-49
6.1193e-50
4.39744e-51
3.03049e-52
2.00179e-53
1.26651e-54
7.66784e-56
4.43724e-57
2.45093e-58
1.2902e-59
6.46245e-61
3.07492e-62
1.38753e-63
5.92775e-65
2.39381e-66
9.1236e-68
3.27699e-69
1.10779e-70
3.51957e-72
1.00913e-73
0.000770589
1.64184e-06
1.24223e-07
2.50147e-09
4.06808e-11
6.70086e-13
1.08479e-14
1.68527e-16
2.47085e-18
3.3715e-20
4.2272e-22
4.81052e-24
4.90829e-26
4.43673e-28
3.54465e-30
2.94512e-32
8.09314e-34
7.95205e-35
9.20689e-36
1.06718e-36
1.22455e-37
1.38396e-38
1.53248e-39
1.65429e-40
1.73347e-41
1.7573e-42
1.71913e-43
1.62001e-44
1.46865e-45
1.27971e-46
1.07105e-47
8.60553e-49
6.63448e-50
4.90536e-51
3.47606e-52
2.35876e-53
1.53112e-54
9.49565e-56
5.61853e-57
3.16691e-58
1.69777e-59
8.64293e-61
4.17132e-62
1.90552e-63
8.22646e-65
3.35131e-66
1.28644e-67
4.64719e-69
1.57755e-70
4.82621e-72
0.000244144
7.04291e-07
7.7153e-08
1.3769e-09
2.01541e-11
2.96479e-13
4.29246e-15
5.98104e-17
7.88332e-19
9.68067e-21
1.09179e-22
1.11524e-24
1.01829e-26
8.31215e-29
7.58436e-31
2.79613e-32
3.17759e-33
4.0412e-34
5.12906e-35
6.44753e-36
7.99562e-37
9.73763e-38
1.15922e-38
1.34308e-39
1.50896e-40
1.63926e-41
1.71821e-42
1.73493e-43
1.68564e-44
1.57457e-45
1.4131e-46
1.21773e-47
1.00703e-48
7.98673e-50
6.07002e-51
4.41654e-52
3.07295e-53
2.04198e-54
1.29405e-55
7.80894e-57
4.4803e-58
2.44017e-59
1.25963e-60
6.15321e-62
2.84013e-63
1.23684e-64
5.07469e-66
1.95927e-67
7.10746e-69
2.32074e-70
6.90799e-05
3.00114e-07
4.41376e-08
7.00707e-10
9.23412e-12
1.2103e-13
1.55804e-15
1.93078e-17
2.26452e-19
2.47439e-21
2.48036e-23
2.248e-25
1.8449e-27
1.81258e-29
8.45314e-31
1.08805e-31
1.51935e-32
2.11234e-33
2.90848e-34
3.95411e-35
5.28816e-36
6.92857e-37
8.85667e-38
1.10043e-38
1.32483e-39
1.54171e-40
1.73093e-41
1.87236e-42
1.94931e-43
1.95163e-44
1.87776e-45
1.73509e-46
1.5387e-47
1.3086e-48
1.06632e-49
8.31632e-51
6.20039e-52
4.41341e-53
2.99485e-54
1.93451e-55
1.18769e-56
6.92016e-58
3.82067e-59
1.9958e-60
9.84934e-62
4.58545e-63
2.0111e-64
8.29923e-66
3.2176e-67
1.12162e-68
1.65762e-05
1.6907e-07
2.32749e-08
3.29262e-10
3.91073e-12
4.56483e-14
5.20499e-16
5.69544e-18
5.88354e-20
5.64846e-22
4.96408e-24
3.9995e-26
4.05112e-28
2.22451e-29
3.19838e-30
4.90257e-31
7.46866e-32
1.12637e-32
1.67779e-33
2.46111e-34
3.54287e-35
4.98641e-36
6.8369e-37
9.10266e-38
1.17369e-38
1.4625e-39
1.75829e-40
2.03703e-41
2.27191e-42
2.43738e-43
2.51349e-44
2.48963e-45
2.3668e-46
2.15765e-47
1.88435e-48
1.57472e-49
1.25766e-50
9.58627e-52
6.96381e-53
4.81406e-54
3.16228e-55
1.97093e-56
1.16377e-57
6.5006e-59
3.43002e-60
1.70717e-61
8.0038e-63
3.53051e-64
1.46294e-65
5.4456e-67
4.87003e-06
1.00529e-07
1.13055e-08
1.42469e-10
1.52645e-12
1.58807e-14
1.6012e-16
1.53952e-18
1.38889e-20
1.15797e-22
8.91745e-25
8.68417e-27
5.09783e-28
8.09357e-29
1.36145e-29
2.27306e-30
3.75483e-31
6.12574e-32
9.84713e-33
1.55528e-33
2.40577e-34
3.6325e-35
5.33689e-36
7.60845e-37
1.05009e-37
1.4005e-38
1.80235e-39
2.23562e-40
2.67028e-41
3.06873e-42
3.39051e-43
3.59855e-44
3.6658e-45
3.58074e-46
3.35018e-47
2.99867e-48
2.56445e-49
2.09252e-50
1.62683e-51
1.2033e-52
8.45544e-54
5.63639e-55
3.55899e-56
2.12561e-57
1.19909e-58
6.37998e-60
3.19734e-61
1.50748e-62
6.67615e-64
2.65421e-65
1.48571e-06
5.58879e-08
5.07066e-09
5.68017e-11
5.48721e-13
5.09036e-15
4.53497e-17
3.82071e-19
2.9942e-21
2.16938e-23
1.87996e-25
1.02365e-26
1.76933e-27
3.26448e-28
5.97315e-29
1.08065e-29
1.93034e-30
3.39816e-31
5.88194e-32
9.98378e-33
1.65689e-33
2.68063e-34
4.21627e-35
6.43167e-36
9.49632e-37
1.35494e-37
1.86574e-38
2.47679e-39
3.16691e-40
3.89694e-41
4.61095e-42
5.24146e-43
5.71869e-44
5.98232e-45
5.99337e-46
5.74318e-47
5.25705e-48
4.59034e-49
3.8181e-50
3.02083e-51
2.27018e-52
1.61821e-53
1.09248e-54
6.97556e-56
4.20649e-57
2.39233e-58
1.28143e-59
6.45699e-61
3.05595e-62
1.2978e-63
4.3447e-07
2.88142e-08
2.09487e-09
2.08236e-11
1.81047e-13
1.49605e-15
1.17583e-17
8.6618e-20
5.90755e-22
4.38296e-24
1.83098e-25
3.36086e-26
6.79354e-27
1.36163e-27
2.69685e-28
5.27177e-29
1.01555e-29
1.92437e-30
3.57894e-31
6.5165e-32
1.15856e-32
2.00605e-33
3.37469e-34
5.50414e-35
8.68854e-36
1.32549e-36
1.95193e-37
2.7718e-38
3.79206e-39
4.9937e-40
6.32432e-41
7.69545e-42
8.98743e-43
1.00632e-43
1.07896e-44
1.10633e-45
1.08341e-46
1.0119e-47
9.00134e-49
7.6153e-50
6.11879e-51
4.66266e-52
3.36483e-53
2.29639e-54
1.48002e-55
8.99538e-57
5.14883e-58
2.77225e-59
1.40189e-60
6.36019e-62
1.93224e-07
1.37244e-08
7.98112e-10
7.04677e-12
5.50264e-14
4.03924e-16
2.78994e-18
1.79273e-20
1.15332e-22
3.02857e-24
5.59882e-25
1.23674e-25
2.71193e-26
5.87368e-27
1.25514e-27
2.64287e-28
5.47513e-29
1.11394e-29
2.22108e-30
4.33018e-31
8.23486e-32
1.5241e-32
2.73946e-33
4.77318e-34
8.04944e-35
1.31211e-35
2.06505e-36
3.13486e-37
4.58594e-38
6.45891e-39
8.74974e-40
1.13891e-40
1.42288e-41
1.7042e-42
1.95432e-43
2.14303e-44
2.24404e-45
2.24082e-46
2.13086e-47
1.92693e-48
1.65475e-49
1.34757e-50
1.0392e-51
7.5783e-53
5.2186e-54
3.38871e-55
2.07214e-56
1.19181e-57
6.43781e-59
3.12038e-60
8.99621e-08
6.01383e-09
2.79969e-10
2.20549e-12
1.54484e-14
1.00391e-16
6.06244e-19
3.48611e-21
5.00575e-23
8.24895e-24
1.98181e-24
4.74587e-25
1.12225e-25
2.61761e-26
6.01566e-27
1.36039e-27
3.02267e-28
6.5873e-29
1.40527e-29
2.92842e-30
5.94839e-31
1.17536e-31
2.25496e-32
4.19362e-33
7.54935e-34
1.31392e-34
2.20855e-35
3.58168e-36
5.59883e-37
8.42782e-38
1.22039e-38
1.69813e-39
2.26794e-40
2.90368e-41
3.55927e-42
4.17147e-43
4.66817e-44
4.98126e-45
5.06134e-46
4.89014e-47
4.48646e-48
3.90313e-49
3.21532e-50
2.50457e-51
1.84215e-52
1.27757e-53
8.34276e-55
5.12398e-56
2.95557e-57
1.53046e-58
3.95768e-08
2.41578e-09
9.0165e-11
6.37754e-13
4.00615e-15
2.29886e-17
1.2193e-19
9.68464e-22
1.0876e-22
2.81085e-23
7.33509e-24
1.89014e-24
4.80365e-25
1.20282e-25
2.96411e-26
7.17964e-27
1.70682e-27
3.97581e-28
9.05775e-29
2.01436e-29
4.36454e-30
9.19664e-31
1.88141e-31
3.7313e-32
7.16463e-33
1.3304e-33
2.38658e-34
4.13176e-35
6.89655e-36
1.10872e-36
1.71489e-37
2.54903e-38
3.63676e-39
4.97399e-40
6.51291e-41
8.1534e-42
9.74557e-43
1.11067e-43
1.20525e-44
1.2436e-45
1.2184e-46
1.13189e-47
9.95635e-49
8.28074e-50
6.50269e-51
4.81448e-52
3.3561e-53
2.20015e-54
1.35459e-55
7.49339e-57
3.54535e-91
2.05181e-92
1.14148e-93
6.08752e-95
3.10681e-96
1.51534e-97
7.05558e-99
3.1325e-100
1.3246e-101
5.3284e-103
2.03647e-104
7.38474e-106
2.53702e-107
8.24433e-109
2.5298e-110
7.31657e-112
1.99043e-113
5.08256e-115
1.2154e-116
2.71513e-118
5.65157e-120
1.09305e-121
1.95836e-123
3.2398e-125
4.93139e-127
6.87954e-129
8.75852e-131
1.01278e-132
1.05805e-134
9.92651e-137
8.3066e-139
6.15117e-141
3.99387e-143
2.24879e-145
1.08344e-147
4.39291e-150
1.46764e-152
3.93021e-155
8.12884e-158
1.23374e-160
1.27474e-163
8.00001e-167
2.59448e-170
3.7181e-174
1.97256e-178
1.63786e-183
2.03846e-190
3.72276e-202
1.90955e-282
4.18537e-285
8.99587e-288
1.89835e-290
3.93809e-293
8.04111e-296
1.61778e-298
3.20927e-301
6.27904e-304
1.2114e-306
2.30299e-309
4.31234e-312
0
0
0
0
0
0
0
0
0
0
0
0
0
0
0
0
0
0
0
0
0
0
0
0
0
0
0
0
0
0
0
0
0
0
0
0
0
0
0
0
0
0
0
0
0
0
0
0
0
0
0
0
0
0
0
0
0
0
0
0
0
0
0
0
0
0
0
0
0
0
0
0
0
0
0
0
0
0
0
0
0
0
0
0
0
0
0
0
0
0
0
0
0
0
0
0
0
0
0
0
0
0
0
0
0
0
0
0
0
0
0
0
0
0
0
0
0
0
0
0
0
0
0
0
0
0
0
0
0
0
0
0
0
0
0
0
0
0
0
0
0
0
0
0
0
0
0
0
0
0
0
0
0
0
0
0
0
0
0
0
0
0
0
0
0
0
0
0
0
0
0
0
0
0
0
0
0
0
0
0
0
0
0
0
0
0
0
0
0
0
0
0
0
0
0
0
0
0
0
0
0
0
0
0
0
0
0
0
0
0
0
0
0
0
0
0
0
0
0
0
0
0
0
0
0
0
0
0
0
0
0
0
0
0
0
0
0
0
0
0
1.71546e-89
1.03655e-90
6.01951e-92
3.35055e-93
1.78452e-94
9.08231e-96
4.41218e-97
2.0436e-98
9.01411e-100
3.78191e-101
1.50735e-102
5.69949e-104
2.04143e-105
6.91546e-107
2.21188e-108
6.66731e-110
1.89029e-111
5.03023e-113
1.25356e-114
2.91847e-116
6.33154e-118
1.27649e-119
2.38447e-121
4.11382e-123
6.53221e-125
9.50978e-127
1.26399e-128
1.52667e-130
1.66684e-132
1.63537e-134
1.43217e-136
1.11087e-138
7.56302e-141
4.47107e-143
2.26536e-145
9.67967e-148
3.41712e-150
9.70306e-153
2.13809e-155
3.47987e-158
3.89304e-161
2.68508e-164
9.78022e-168
1.6055e-171
9.88297e-176
1.00048e-180
1.70176e-187
5.57874e-199
4.37886e-281
9.65428e-284
2.08707e-286
4.42931e-289
9.24013e-292
1.89719e-294
3.83791e-297
7.65496e-300
1.50584e-302
2.92087e-305
5.58276e-308
1.05036e-310
2.03265e-313
0
0
0
0
0
0
0
0
0
0
0
0
0
0
0
0
0
0
0
0
0
0
0
0
0
0
0
0
0
0
0
0
0
0
0
0
0
0
0
0
0
0
0
0
0
0
0
0
0
0
0
0
0
0
0
0
0
0
0
0
0
0
0
0
0
0
0
0
0
0
0
0
0
0
0
0
0
0
0
0
0
0
0
0
0
0
0
0
0
0
0
0
0
0
0
0
0
0
0
0
0
0
0
0
0
0
0
0
0
0
0
0
0
0
0
0
0
0
0
0
0
0
0
0
0
0
0
0
0
0
0
0
0
0
0
0
0
0
0
0
0
0
0
0
0
0
0
0
0
0
0
0
0
0
0
0
0
0
0
0
0
0
0
0
0
0
0
0
0
0
0
0
0
0
0
0
0
0
0
0
0
0
0
0
0
0
0
0
0
0
0
0
0
0
0
0
0
0
0
0
0
0
0
0
0
0
0
0
0
0
0
0
0
0
0
0
0
0
0
0
0
0
0
0
0
0
0
0
0
0
0
0
0
0
0
0
0
0
0
8.33576e-88
5.25976e-89
3.18911e-90
1.85309e-91
1.03021e-92
5.47238e-94
2.77436e-95
1.34086e-96
6.17077e-98
2.70085e-99
1.12284e-100
4.42793e-102
1.65387e-103
5.84168e-105
1.94796e-106
6.12114e-108
1.80902e-109
5.01788e-111
1.30344e-112
3.16324e-114
7.15404e-116
1.50376e-117
2.92921e-119
5.27111e-121
8.73244e-123
1.32682e-124
1.84129e-126
2.32303e-128
2.65075e-130
2.71972e-132
2.49263e-134
2.02515e-136
1.4457e-138
8.97335e-141
4.78132e-143
2.15293e-145
8.0303e-148
2.41752e-150
5.67385e-153
9.89827e-156
1.19802e-158
9.06853e-162
3.70169e-165
6.94498e-169
4.95428e-173
6.10553e-178
1.41679e-184
8.31523e-196
1.03085e-279
2.28646e-282
4.97204e-285
1.0613e-287
2.22662e-290
4.59732e-293
9.35152e-296
1.87542e-298
3.70922e-301
7.23347e-304
1.38996e-306
2.62907e-309
4.89001e-312
2.0462e-315
0
0
0
0
0
0
0
0
0
0
0
0
0
0
0
0
0
0
0
0
0
0
0
0
0
0
0
0
0
0
0
0
0
0
0
0
0
0
0
0
0
0
0
0
0
0
0
0
0
0
0
0
0
0
0
0
0
0
0
0
0
0
0
0
0
0
0
0
0
0
0
0
0
0
0
0
0
0
0
0
0
0
0
0
0
0
0
0
0
0
0
0
0
0
0
0
0
0
0
0
0
0
0
0
0
0
0
0
0
0
0
0
0
0
0
0
0
0
0
0
0
0
0
0
0
0
0
0
0
0
0
0
0
0
0
0
0
0
0
0
0
0
0
0
0
0
0
0
0
0
0
0
0
0
0
0
0
0
0
0
0
0
0
0
0
0
0
0
0
0
0
0
0
0
0
0
0
0
0
0
0
0
0
0
0
0
0
0
0
0
0
0
0
0
0
0
0
0
0
0
0
0
0
0
0
0
0
0
0
0
0
0
0
0
0
0
0
0
0
0
0
0
0
0
0
0
0
0
0
0
0
0
0
0
0
0
0
0
4.07132e-86
2.68315e-87
1.69886e-88
1.03073e-89
5.98246e-91
3.31739e-92
1.7555e-93
8.85505e-95
4.25268e-96
1.94215e-97
8.42378e-99
3.46526e-100
1.34997e-101
4.97277e-103
1.72914e-104
5.66546e-106
1.7457e-107
5.04836e-109
1.36718e-110
3.45924e-112
8.15731e-114
1.78802e-115
3.63252e-117
6.81892e-119
1.17873e-120
1.86935e-122
2.70869e-124
3.56976e-126
4.25715e-128
4.56775e-130
4.38104e-132
3.72817e-134
2.7906e-136
1.81853e-138
1.01898e-140
4.83482e-143
1.90518e-145
6.07977e-148
1.51933e-150
2.83963e-153
3.71525e-156
3.0822e-159
1.4068e-162
3.00967e-166
2.48479e-170
3.72178e-175
1.17599e-181
1.23233e-192
2.50658e-278
5.59413e-281
1.22383e-283
2.62773e-286
5.54481e-289
1.15132e-291
2.35496e-294
4.74867e-297
9.44269e-300
1.85129e-302
3.57618e-305
6.79969e-308
1.27095e-310
2.39954e-313
0
0
0
0
0
0
0
0
0
0
0
0
0
0
0
0
0
0
0
0
0
0
0
0
0
0
0
0
0
0
0
0
0
0
0
0
0
0
0
0
0
0
0
0
0
0
0
0
0
0
0
0
0
0
0
0
0
0
0
0
0
0
0
0
0
0
0
0
0
0
0
0
0
0
0
0
0
0
0
0
0
0
0
0
0
0
0
0
0
0
0
0
0
0
0
0
0
0
0
0
0
0
0
0
0
0
0
0
0
0
0
0
0
0
0
0
0
0
0
0
0
0
0
0
0
0
0
0
0
0
0
0
0
0
0
0
0
0
0
0
0
0
0
0
0
0
0
0
0
0
0
0
0
0
0
0
0
0
0
0
0
0
0
0
0
0
0
0
0
0
0
0
0
0
0
0
0
0
0
0
0
0
0
0
0
0
0
0
0
0
0
0
0
0
0
0
0
0
0
0
0
0
0
0
0
0
0
0
0
0
0
0
0
0
0
0
0
0
0
0
0
0
0
0
0
0
0
0
0
0
0
0
0
0
0
0
0
0
2.00022e-84
1.37704e-85
9.10633e-87
5.76981e-88
3.49693e-89
2.02464e-90
1.11854e-91
5.88965e-93
2.95228e-94
1.40708e-95
6.36835e-97
2.73326e-98
1.11081e-99
4.26808e-101
1.54788e-102
5.28901e-104
1.69946e-105
5.12486e-107
1.44724e-108
3.81847e-110
9.39023e-112
2.14667e-113
4.54911e-115
8.90919e-117
1.6071e-118
2.66037e-120
4.02514e-122
5.54126e-124
6.90633e-126
7.74895e-128
7.77753e-130
6.93199e-132
5.44025e-134
3.72191e-136
2.19296e-138
1.09632e-140
4.56335e-143
1.5433e-145
4.10507e-148
8.2153e-151
1.16091e-153
1.05405e-156
5.36755e-160
1.30639e-163
1.24649e-167
2.26528e-172
9.72693e-179
1.81478e-189
6.32835e-277
1.4214e-279
3.12893e-282
6.75884e-285
1.43458e-287
2.99583e-290
6.1621e-293
1.24937e-295
2.49772e-298
4.92277e-301
9.55893e-304
1.82684e-306
3.43186e-309
6.32853e-312
7.84301e-315
0
0
0
0
0
0
0
0
0
0
0
0
0
0
0
0
0
0
0
0
0
0
0
0
0
0
0
0
0
0
0
0
0
0
0
0
0
0
0
0
0
0
0
0
0
0
0
0
0
0
0
0
0
0
0
0
0
0
0
0
0
0
0
0
0
0
0
0
0
0
0
0
0
0
0
0
0
0
0
0
0
0
0
0
0
0
0
0
0
0
0
0
0
0
0
0
0
0
0
0
0
0
0
0
0
0
0
0
0
0
0
0
0
0
0
0
0
0
0
0
0
0
0
0
0
0
0
0
0
0
0
0
0
0
0
0
0
0
0
0
0
0
0
0
0
0
0
0
0
0
0
0
0
0
0
0
0
0
0
0
0
0
0
0
0
0
0
0
0
0
0
0
0
0
0
0
0
0
0
0
0
0
0
0
0
0
0
0
0
0
0
0
0
0
0
0
0
0
0
0
0
0
0
0
0
0
0
0
0
0
0
0
0
0
0
0
0
0
0
0
0
0
0
0
0
0
0
0
0
0
0
0
0
0
0
0
0
9.89114e-83
7.11432e-84
4.91453e-85
3.25238e-86
2.05867e-87
1.24469e-88
7.18016e-90
3.94724e-91
2.06552e-92
1.02755e-93
4.85361e-95
2.17379e-96
9.21762e-98
3.69489e-99
1.39782e-100
4.98192e-102
1.6696e-103
5.25104e-105
1.54653e-106
4.25572e-108
1.09155e-109
2.60289e-111
5.75428e-113
1.17584e-114
2.21351e-116
3.82492e-118
6.04278e-120
8.68969e-122
1.13184e-123
1.32791e-125
1.39464e-127
1.3018e-129
1.0711e-131
7.6924e-134
4.76542e-136
2.50981e-138
1.10331e-140
3.95333e-143
1.11884e-145
2.39615e-148
3.65385e-151
3.62559e-154
2.05529e-157
5.67753e-161
6.25124e-165
1.37583e-169
8.01103e-176
2.65336e-186
1.66547e-275
3.76566e-278
8.34257e-281
1.81327e-283
3.87181e-286
8.13254e-289
1.68222e-291
3.42945e-294
6.89278e-297
1.3656e-299
2.66524e-302
5.11909e-305
9.66375e-308
1.79062e-310
3.28513e-313
0
0
0
0
0
0
0
0
0
0
0
0
0
0
0
0
0
0
0
0
0
0
0
0
0
0
0
0
0
0
0
0
0
0
0
0
0
0
0
0
0
0
0
0
0
0
0
0
0
0
0
0
0
0
0
0
0
0
0
0
0
0
0
0
0
0
0
0
0
0
0
0
0
0
0
0
0
0
0
0
0
0
0
0
0
0
0
0
0
0
0
0
0
0
0
0
0
0
0
0
0
0
0
0
0
0
0
0
0
0
0
0
0
0
0
0
0
0
0
0
0
0
0
0
0
0
0
0
0
0
0
0
0
0
0
0
0
0
0
0
0
0
0
0
0
0
0
0
0
0
0
0
0
0
0
0
0
0
0
0
0
0
0
0
0
0
0
0
0
0
0
0
0
0
0
0
0
0
0
0
0
0
0
0
0
0
0
0
0
0
0
0
0
0
0
0
0
0
0
0
0
0
0
0
0
0
0
0
0
0
0
0
0
0
0
0
0
0
0
0
0
0
0
0
0
0
0
0
0
0
0
0
0
0
0
0
0
4.92584e-81
3.70202e-82
2.67173e-83
1.84703e-84
1.22117e-85
7.71133e-87
4.64549e-88
2.66669e-89
1.45693e-90
7.5663e-92
3.73046e-93
1.74371e-94
7.71582e-96
3.22715e-97
1.27374e-98
4.73587e-100
1.65563e-101
5.43152e-103
1.66861e-104
4.78951e-106
1.28145e-107
3.18775e-109
7.35245e-111
1.56769e-112
3.07997e-114
5.55563e-116
9.16468e-118
1.37661e-119
1.87373e-121
2.29851e-123
2.52576e-125
2.46884e-127
2.12938e-129
1.60515e-131
1.04536e-133
5.79912e-136
2.69172e-138
1.02154e-140
3.07472e-143
7.0424e-146
1.15776e-148
1.25366e-151
7.8938e-155
2.46902e-158
3.13199e-162
8.33163e-167
6.56335e-173
3.84749e-183
4.58022e-274
1.04274e-276
2.32545e-279
5.08664e-282
1.0928e-284
2.30895e-287
4.80332e-290
9.84619e-293
1.98952e-295
3.962e-298
7.77136e-301
1.4999e-303
2.84489e-306
5.29563e-309
9.66179e-312
1.65893e-314
0
0
0
0
0
0
0
0
0
0
0
0
0
0
0
0
0
0
0
0
0
0
0
0
0
0
0
0
0
0
0
0
0
0
0
0
0
0
0
0
0
0
0
0
0
0
0
0
0
0
0
0
0
0
0
0
0
0
0
0
0
0
0
0
0
0
0
0
0
0
0
0
0
0
0
0
0
0
0
0
0
0
0
0
0
0
0
0
0
0
0
0
0
0
0
0
0
0
0
0
0
0
0
0
0
0
0
0
0
0
0
0
0
0
0
0
0
0
0
0
0
0
0
0
0
0
0
0
0
0
0
0
0
0
0
0
0
0
0
0
0
0
0
0
0
0
0
0
0
0
0
0
0
0
0
0
0
0
0
0
0
0
0
0
0
0
0
0
0
0
0
0
0
0
0
0
0
0
0
0
0
0
0
0
0
0
0
0
0
0
0
0
0
0
0
0
0
0
0
0
0
0
0
0
0
0
0
0
0
0
0
0
0
0
0
0
0
0
0
0
0
0
0
0
0
0
0
0
0
0
0
0
0
0
0
0
2.47186e-79
1.94131e-80
1.46386e-81
1.05728e-82
7.30229e-84
4.81656e-85
3.03053e-86
1.81673e-87
1.03642e-88
5.61957e-90
2.89234e-91
1.41115e-92
6.51686e-94
2.84436e-95
1.17142e-96
4.54422e-98
1.65738e-99
5.67234e-101
1.81789e-102
5.44346e-104
1.51939e-105
3.94327e-107
9.48955e-109
2.11137e-110
4.32919e-112
8.15151e-114
1.40403e-115
2.20276e-117
3.1329e-119
4.01786e-121
4.61893e-123
4.72716e-125
4.27332e-127
3.38053e-129
2.31399e-131
1.3518e-133
6.62317e-136
2.66131e-138
8.51486e-141
2.08436e-143
3.6907e-146
4.35471e-149
3.03883e-152
1.07361e-155
1.56632e-159
5.02554e-164
5.34302e-170
5.52604e-180
1.31744e-272
3.02073e-275
6.78272e-278
1.49336e-280
3.22841e-283
6.8622e-286
1.43577e-288
2.95942e-291
6.01155e-294
1.20327e-296
2.37179e-299
4.59933e-302
8.76343e-305
1.63845e-307
3.00271e-310
5.40583e-313
0
0
0
0
0
0
0
0
0
0
0
0
0
0
0
0
0
0
0
0
0
0
0
0
0
0
0
0
0
0
0
0
0
0
0
0
0
0
0
0
0
0
0
0
0
0
0
0
0
0
0
0
0
0
0
0
0
0
0
0
0
0
0
0
0
0
0
0
0
0
0
0
0
0
0
0
0
0
0
0
0
0
0
0
0
0
0
0
0
0
0
0
0
0
0
0
0
0
0
0
0
0
0
0
0
0
0
0
0
0
0
0
0
0
0
0
0
0
0
0
0
0
0
0
0
0
0
0
0
0
0
0
0
0
0
0
0
0
0
0
0
0
0
0
0
0
0
0
0
0
0
0
0
0
0
0
0
0
0
0
0
0
0
0
0
0
0
0
0
0
0
0
0
0
0
0
0
0
0
0
0
0
0
0
0
0
0
0
0
0
0
0
0
0
0
0
0
0
0
0
0
0
0
0
0
0
0
0
0
0
0
0
0
0
0
0
0
0
0
0
0
0
0
0
0
0
0
0
0
0
0
0
0
0
0
0
1.25073e-77
1.02654e-78
8.08843e-80
6.10371e-81
4.40418e-82
3.03461e-83
1.99434e-84
1.24864e-85
7.43861e-87
4.21134e-88
2.26292e-89
1.1525e-90
5.55527e-92
2.53046e-93
1.08751e-94
4.40201e-96
1.67515e-97
5.98157e-99
1.99999e-100
6.24799e-102
1.81948e-103
4.92674e-105
1.2371e-106
2.87223e-108
6.14629e-110
1.20802e-111
2.17241e-113
3.55954e-115
5.28939e-117
7.09096e-119
8.52673e-121
9.13526e-123
8.65374e-125
7.18255e-127
5.16617e-129
3.17722e-131
1.64264e-133
6.98544e-136
2.3745e-138
6.20775e-141
1.18269e-143
1.51827e-146
1.17156e-149
4.66373e-153
7.81099e-157
3.01591e-161
4.31612e-167
7.8499e-177
3.96154e-271
9.15015e-274
2.06898e-276
4.58578e-279
9.97701e-282
2.13359e-284
4.48998e-287
9.30597e-290
1.90032e-292
3.82287e-295
7.57159e-298
1.47502e-300
2.8228e-303
5.29976e-306
9.75156e-309
1.75614e-311
3.32951e-314
0
0
0
0
0
0
0
0
0
0
0
0
0
0
0
0
0
0
0
0
0
0
0
0
0
0
0
0
0
0
0
0
0
0
0
0
0
0
0
0
0
0
0
0
0
0
0
0
0
0
0
0
0
0
0
0
0
0
0
0
0
0
0
0
0
0
0
0
0
0
0
0
0
0
0
0
0
0
0
0
0
0
0
0
0
0
0
0
0
0
0
0
0
0
0
0
0
0
0
0
0
0
0
0
0
0
0
0
0
0
0
0
0
0
0
0
0
0
0
0
0
0
0
0
0
0
0
0
0
0
0
0
0
0
0
0
0
0
0
0
0
0
0
0
0
0
0
0
0
0
0
0
0
0
0
0
0
0
0
0
0
0
0
0
0
0
0
0
0
0
0
0
0
0
0
0
0
0
0
0
0
0
0
0
0
0
0
0
0
0
0
0
0
0
0
0
0
0
0
0
0
0
0
0
0
0
0
0
0
0
0
0
0
0
0
0
0
0
0
0
0
0
0
0
0
0
0
0
0
0
0
0
0
0
0
6.38579e-76
5.47745e-77
4.50986e-78
3.55589e-79
2.68062e-80
1.92951e-81
1.32457e-82
8.66148e-84
5.38862e-85
3.18553e-86
1.78711e-87
9.50154e-89
4.78051e-90
2.27269e-91
1.0193e-92
4.3054e-94
1.70955e-95
6.36915e-97
2.22188e-98
7.24191e-100
2.20029e-101
6.21621e-103
1.62863e-104
3.94569e-106
8.8115e-108
1.80763e-109
3.39366e-111
5.80677e-113
9.01402e-115
1.26298e-116
1.58825e-118
1.7809e-120
1.76737e-122
1.53862e-124
1.1625e-126
7.52395e-129
4.103e-131
1.84572e-133
6.66169e-136
1.85856e-138
3.80584e-141
5.30746e-144
4.51841e-147
2.02159e-150
3.87929e-154
1.79816e-158
3.45425e-164
1.10096e-173
1.24326e-269
2.89314e-272
6.58849e-275
1.47021e-277
3.21926e-280
6.92651e-283
1.4661e-285
3.05539e-288
6.27184e-291
1.26795e-293
2.52309e-296
4.93708e-299
9.48809e-302
1.78847e-304
3.3032e-307
5.97114e-310
1.05582e-312
0
0
0
0
0
0
0
0
0
0
0
0
0
0
0
0
0
0
0
0
0
0
0
0
0
0
0
0
0
0
0
0
0
0
0
0
0
0
0
0
0
0
0
0
0
0
0
0
0
0
0
0
0
0
0
0
0
0
0
0
0
0
0
0
0
0
0
0
0
0
0
0
0
0
0
0
0
0
0
0
0
0
0
0
0
0
0
0
0
0
0
0
0
0
0
0
0
0
0
0
0
0
0
0
0
0
0
0
0
0
0
0
0
0
0
0
0
0
0
0
0
0
0
0
0
0
0
0
0
0
0
0
0
0
0
0
0
0
0
0
0
0
0
0
0
0
0
0
0
0
0
0
0
0
0
0
0
0
0
0
0
0
0
0
0
0
0
0
0
0
0
0
0
0
0
0
0
0
0
0
0
0
0
0
0
0
0
0
0
0
0
0
0
0
0
0
0
0
0
0
0
0
0
0
0
0
0
0
0
0
0
0
0
0
0
0
0
0
0
0
0
0
0
0
0
0
0
0
0
0
0
0
0
0
0
3.29186e-74
2.95083e-75
2.53874e-76
2.09147e-77
1.64721e-78
1.23859e-79
8.88134e-81
6.06557e-82
3.94077e-83
2.43253e-84
1.42478e-85
7.90783e-87
4.15294e-88
2.0606e-89
9.64466e-91
4.25101e-92
1.76126e-93
6.84644e-95
2.49188e-96
8.47371e-98
2.68604e-99
7.91725e-101
2.16422e-102
5.47092e-104
1.27493e-105
2.72962e-107
5.34935e-109
9.55689e-111
1.54953e-112
2.26865e-114
2.98287e-116
3.49956e-118
3.63722e-120
3.3201e-122
2.63399e-124
1.79328e-126
1.03099e-128
4.90339e-131
1.87789e-133
5.58641e-136
1.22818e-138
1.85766e-141
1.74086e-144
8.73174e-148
1.91575e-151
1.06332e-155
2.73359e-161
1.52136e-170
4.06111e-268
9.52186e-271
2.18395e-273
4.9066e-276
1.0813e-278
2.3407e-281
4.98298e-284
1.04411e-286
2.15425e-289
4.37619e-292
8.74778e-295
1.71905e-297
3.31692e-300
6.27582e-303
1.16319e-305
2.10959e-308
3.73833e-311
6.51092e-314
0
0
0
0
0
0
0
0
0
0
0
0
0
0
0
0
0
0
0
0
0
0
0
0
0
0
0
0
0
0
0
0
0
0
0
0
0
0
0
0
0
0
0
0
0
0
0
0
0
0
0
0
0
0
0
0
0
0
0
0
0
0
0
0
0
0
0
0
0
0
0
0
0
0
0
0
0
0
0
0
0
0
0
0
0
0
0
0
0
0
0
0
0
0
0
0
0
0
0
0
0
0
0
0
0
0
0
0
0
0
0
0
0
0
0
0
0
0
0
0
0
0
0
0
0
0
0
0
0
0
0
0
0
0
0
0
0
0
0
0
0
0
0
0
0
0
0
0
0
0
0
0
0
0
0
0
0
0
0
0
0
0
0
0
0
0
0
0
0
0
0
0
0
0
0
0
0
0
0
0
0
0
0
0
0
0
0
0
0
0
0
0
0
0
0
0
0
0
0
0
0
0
0
0
0
0
0
0
0
0
0
0
0
0
0
0
0
0
0
0
0
0
0
0
0
0
0
0
0
0
0
0
0
0
1.71368e-72
1.60524e-73
1.44302e-74
1.24201e-75
1.02189e-76
8.02648e-78
6.01134e-79
4.28759e-80
2.90885e-81
1.87476e-82
1.14639e-83
6.6418e-85
3.64067e-86
1.88526e-87
9.20822e-89
4.23501e-90
1.83075e-91
7.42488e-93
2.81936e-94
1.00019e-95
3.30753e-97
1.01706e-98
2.90046e-100
7.6496e-102
1.85999e-103
4.15554e-105