/*--------------------------------*- C++ -*----------------------------------*\
| =========                 |                                                 |
| \\      /  F ield         | OpenFOAM: The Open Source CFD Toolbox           |
|  \\    /   O peration     | Version:  2.4.0                                 |
|   \\  /    A nd           | Web:      www.OpenFOAM.org                      |
|    \\/     M anipulation  |                                                 |
\*---------------------------------------------------------------------------*/
FoamFile
{
    version     2.0;
    format      ascii;
    class       volScalarField;
    location    "0.4";
    object      H;
}
// * * * * * * * * * * * * * * * * * * * * * * * * * * * * * * * * * * * * * //

dimensions      [0 2 -2 0 0 0 0];

internalField   nonuniform List<scalar> 
8000
(
-11805.7
-10960.4
-10124.6
-9304.53
-8505.95
-7734.16
-6993.89
-6289.21
-5623.47
-4999.23
-4418.33
-3881.81
-3390
-2942.56
-2538.54
-2176.45
-1854.38
-1570.03
-1320.87
-1104.16
-917.086
-756.793
-620.466
-505.381
-408.948
-328.742
-262.524
-208.257
-164.111
-128.464
-99.8889
-77.1512
-59.1905
-45.1066
-34.1432
-25.6707
-19.1707
-14.2199
-10.4762
-7.66553
-5.57011
-4.01861
-2.87716
-2.04192
-1.43264
-0.987223
-0.656876
-0.402176
-0.191176
-0.00176367
-11805.8
-10960.4
-10124.6
-9304.55
-8505.95
-7734.14
-6993.85
-6289.14
-5623.36
-4999.09
-4418.15
-3881.59
-3389.75
-2942.28
-2538.23
-2176.12
-1854.02
-1569.66
-1320.49
-1103.78
-916.713
-756.429
-620.115
-505.048
-408.635
-328.452
-262.257
-208.015
-163.895
-128.272
-99.7207
-77.0052
-59.0651
-45.0001
-34.0535
-25.596
-19.109
-14.1694
-10.4352
-7.63225
-5.54305
-3.9962
-2.85777
-2.02371
-1.41343
-0.964429
-0.627979
-0.366031
-0.145813
-0.00134782
-11805.7
-10960.4
-10124.6
-9304.49
-8505.85
-7733.99
-6993.65
-6288.88
-5623.03
-4998.7
-4417.69
-3881.07
-3389.17
-2941.65
-2537.56
-2175.42
-1853.3
-1568.94
-1319.77
-1103.07
-916.02
-755.763
-619.484
-504.457
-408.088
-327.95
-261.803
-207.609
-163.535
-127.956
-99.446
-76.7691
-58.8642
-44.8307
-33.9121
-25.4791
-19.0132
-14.0916
-10.3724
-7.58174
-5.50232
-3.96287
-2.82948
-1.99796
-1.38733
-0.934104
-0.586672
-0.298337
-0.0260434
-0.00024507
-11805.7
-10960.4
-10124.5
-9304.36
-8505.65
-7733.72
-6993.28
-6288.42
-5622.48
-4998.04
-4416.94
-3880.23
-3388.25
-2940.66
-2536.52
-2174.34
-1852.21
-1567.83
-1318.67
-1102
-914.987
-754.779
-618.556
-503.593
-407.293
-327.226
-261.151
-207.027
-163.022
-127.508
-99.0591
-76.4381
-58.5837
-44.5954
-33.7166
-25.3181
-18.8818
-13.9852
-10.2869
-7.51331
-5.4475
-3.91847
-2.79249
-1.9654
-1.35618
-0.901484
-0.551031
-0.263142
-0.00241375
-2.34283e-05
-11805.7
-10960.3
-10124.4
-9304.14
-8505.35
-7733.3
-6992.74
-6287.75
-5621.66
-4997.1
-4415.87
-3879.04
-3386.96
-2939.28
-2535.07
-2172.85
-1850.69
-1566.32
-1317.18
-1100.55
-913.588
-753.449
-617.308
-502.434
-406.23
-326.261
-260.285
-206.258
-162.345
-126.919
-98.5516
-76.0052
-58.218
-44.2894
-33.463
-25.1098
-18.7124
-13.8485
-10.1773
-7.42596
-5.37796
-3.86283
-2.7473
-1.92771
-1.32368
-0.872817
-0.526601
-0.246862
-0.00226398
-2.27172e-05
-11805.7
-10960.2
-10124.2
-9303.84
-8504.91
-7732.72
-6992
-6286.83
-5620.58
-4995.84
-4414.45
-3877.47
-3385.26
-2937.49
-2533.2
-2170.92
-1848.74
-1564.37
-1315.26
-1098.68
-911.802
-751.757
-615.723
-500.967
-404.887
-325.045
-259.195
-205.292
-161.498
-126.183
-97.9191
-75.4667
-57.7641
-43.9105
-33.1496
-24.853
-18.5038
-13.6805
-10.0431
-7.31931
-5.29349
-3.79581
-2.69365
-1.88394
-1.28687
-0.840936
-0.499343
-0.225942
-0.00207036
-2.22947e-05
-11805.6
-10960
-10123.9
-9303.43
-8504.34
-7731.97
-6991.05
-6285.68
-5619.21
-4994.27
-4412.68
-3875.53
-3383.17
-2935.27
-2530.89
-2168.56
-1846.35
-1561.99
-1312.93
-1096.42
-909.634
-749.706
-613.807
-499.196
-403.268
-323.582
-257.887
-204.134
-160.484
-125.304
-97.1648
-74.8257
-57.2247
-43.4609
-32.7784
-24.5494
-18.2577
-13.4827
-9.88522
-7.19413
-5.19447
-3.7172
-2.63025
-1.83073
-1.23859
-0.791707
-0.439325
-0.0635185
-0.000585092
-9.49403e-05
-11805.6
-10959.8
-10123.6
-9302.92
-8503.64
-7731.05
-6989.9
-6284.28
-5617.58
-4992.39
-4410.58
-3873.23
-3380.69
-2932.65
-2528.17
-2165.78
-1843.55
-1559.21
-1310.2
-1093.78
-907.107
-747.319
-611.579
-497.14
-401.392
-321.888
-256.374
-202.797
-159.315
-124.292
-96.2971
-74.0894
-56.606
-42.946
-32.3539
-24.2027
-17.977
-13.2574
-9.70566
-7.05176
-5.08169
-3.62716
-2.55644
-1.76643
-1.17549
-0.71777
-0.340152
-0.00312033
-2.94052e-05
-3.13732e-05
-11805.5
-10959.6
-10123.2
-9302.31
-8502.81
-7729.97
-6988.55
-6282.66
-5615.68
-4990.22
-4408.16
-3870.58
-3377.85
-2929.66
-2525.06
-2162.6
-1840.35
-1556.03
-1307.09
-1090.77
-904.234
-744.608
-609.05
-494.808
-399.266
-319.971
-254.663
-201.287
-157.995
-123.151
-95.3202
-73.2614
-55.9111
-42.3684
-31.8784
-23.8148
-17.6634
-13.0059
-9.50549
-6.89314
-4.95603
-3.52684
-2.47483
-1.6981
-1.11743
-0.671343
-0.312144
-0.00286056
-2.74996e-05
-2.54837e-05
-11805.4
-10959.3
-10122.7
-9301.6
-8501.83
-7728.71
-6986.99
-6280.79
-5613.49
-4987.73
-4405.38
-3867.55
-3374.6
-2926.22
-2521.5
-2158.97
-1836.7
-1552.4
-1303.53
-1087.33
-900.954
-741.514
-606.166
-492.15
-396.843
-317.787
-252.717
-199.569
-156.496
-121.855
-94.2123
-72.3234
-55.1247
-41.7156
-31.3416
-23.3776
-17.3105
-12.7234
-9.28083
-6.71538
-4.81553
-3.4153
-2.38524
-1.62493
-1.05701
-0.622078
-0.27179
-0.00248622
-2.50328e-05
-2.39164e-05
-11805.3
-10959
-10122.1
-9300.72
-8500.64
-7727.18
-6985.1
-6278.52
-5610.84
-4984.72
-4402.04
-3863.9
-3370.69
-2922.12
-2517.25
-2154.63
-1832.33
-1548.08
-1299.3
-1083.25
-897.059
-737.844
-602.748
-489.004
-393.98
-315.21
-250.422
-197.548
-154.734
-120.336
-92.9147
-71.2267
-54.2071
-40.9553
-30.7178
-22.8706
-16.902
-12.397
-9.02184
-6.51074
-4.65378
-3.28629
-2.27976
-1.53417
-0.971092
-0.513921
-0.00472049
-4.40371e-05
-3.91929e-05
-2.8363e-05
-11805.2
-10958.6
-10121.4
-9299.64
-8499.18
-7725.3
-6982.78
-6275.75
-5607.63
-4981.09
-4398
-3859.51
-3366.01
-2917.2
-2512.18
-2149.47
-1827.16
-1542.97
-1294.31
-1078.44
-892.487
-733.548
-598.758
-485.341
-390.654
-312.224
-247.77
-195.219
-152.709
-118.594
-91.4319
-69.9771
-53.1645
-40.0941
-30.0133
-22.2997
-16.4434
-12.0315
-8.73229
-6.28195
-4.4722
-3.13962
-2.15615
-1.42095
-0.854184
-0.395047
-0.00361746
-3.43e-05
-3.15024e-05
-2.78431e-05
-11805
-10958.1
-10120.5
-9298.42
-8497.53
-7723.19
-6980.19
-6272.67
-5604.06
-4977.05
-4393.53
-3854.66
-3360.84
-2911.79
-2506.59
-2143.79
-1821.48
-1537.35
-1288.84
-1073.18
-887.49
-728.858
-594.409
-481.354
-387.041
-308.987
-244.901
-192.703
-150.527
-116.721
-89.8406
-68.6393
-52.0512
-39.1767
-29.2647
-21.6944
-15.9583
-11.6455
-8.42666
-6.04004
-4.27932
-2.98291
-2.0248
-1.30667
-0.751831
-0.311848
-0.00285268
-2.86745e-05
-2.84117e-05
-2.36306e-05
-11804.8
-10957.5
-10119.6
-9297.01
-8495.64
-7720.79
-6977.25
-6269.19
-5600.04
-4972.51
-4388.52
-3849.23
-3355.06
-2905.74
-2500.36
-2137.48
-1815.17
-1531.13
-1282.79
-1067.36
-881.97
-723.685
-589.619
-476.97
-383.075
-305.438
-241.761
-189.955
-148.148
-114.683
-88.1132
-67.1902
-50.8479
-38.1875
-28.4593
-21.0447
-15.4385
-11.2323
-8.0993
-5.78011
-4.07041
-2.81008
-1.87308
-1.15522
-0.558818
-0.00513233
-4.81226e-05
-4.21699e-05
-3.69362e-05
-2.69415e-05
-11804.6
-10956.9
-10118.5
-9295.4
-8493.49
-7718.06
-6973.92
-6265.24
-5595.5
-4967.4
-4382.89
-3843.14
-3348.6
-2898.99
-2493.42
-2130.45
-1808.15
-1524.22
-1276.07
-1060.93
-875.874
-717.983
-584.348
-472.156
-378.727
-301.556
-238.333
-186.962
-145.562
-112.473
-86.2444
-65.6264
-49.5526
-37.1254
-27.5968
-20.3504
-14.8838
-10.7915
-7.74934
-5.50023
-3.84174
-2.61511
-1.69591
-0.985837
-0.416207
-0.00380334
-3.73253e-05
-3.70714e-05
-3.22922e-05
-2.48618e-05
-11804.4
-10956.2
-10117.2
-9293.61
-8491.09
-7715.03
-6970.24
-6260.9
-5590.51
-4961.8
-4376.73
-3836.49
-3341.55
-2891.64
-2485.87
-2122.82
-1800.54
-1516.74
-1268.82
-1053.98
-869.305
-711.847
-578.686
-466.992
-374.073
-297.409
-234.679
-183.777
-142.817
-110.133
-84.2709
-63.9792
-48.192
-36.0126
-26.6952
-19.626
-14.3057
-10.3316
-7.38242
-5.20359
-3.59483
-2.3986
-1.48604
-0.731141
-0.00671332
-6.28905e-05
-5.88971e-05
-4.95724e-05
-3.62276e-05
-2.82584e-05
-11804.1
-10955.3
-10115.8
-9291.59
-8488.41
-7711.65
-6966.14
-6256.08
-5584.98
-4955.6
-4369.93
-3829.17
-3333.8
-2883.57
-2477.61
-2114.47
-1792.24
-1508.59
-1260.93
-1046.44
-862.19
-705.215
-572.58
-461.435
-369.075
-292.966
-230.774
-180.383
-139.899
-107.652
-82.1842
-62.2425
-46.7614
-34.8457
-25.752
-18.8694
-13.7017
-9.84949
-6.99422
-4.88355
-3.31822
-2.14058
-1.22848
-0.509887
-0.00466108
-4.61096e-05
-4.70238e-05
-4.16562e-05
-3.25179e-05
-2.87285e-05
-11803.8
-10954.4
-10114.3
-9289.35
-8485.45
-7707.92
-6961.63
-6250.79
-5578.93
-4948.84
-4362.52
-3821.21
-3325.39
-2874.83
-2468.67
-2105.47
-1783.29
-1499.83
-1252.46
-1038.36
-854.58
-698.137
-566.075
-455.529
-363.775
-288.265
-226.652
-176.809
-136.836
-105.054
-80.0054
-60.4343
-45.276
-33.6371
-24.7767
-18.0873
-13.0759
-9.34633
-6.58282
-4.5351
-3.00412
-1.82657
-0.861405
-0.00791035
-7.46675e-05
-7.49439e-05
-6.81467e-05
-5.13421e-05
-4.10089e-05
-3.53086e-05
-11803.5
-10953.4
-10112.5
-9286.87
-8482.17
-7703.81
-6956.67
-6244.98
-5572.31
-4941.45
-4354.45
-3812.56
-3316.27
-2865.38
-2459.02
-2095.77
-1773.68
-1490.43
-1243.4
-1029.73
-846.474
-690.613
-559.177
-449.282
-358.183
-283.318
-222.326
-173.069
-133.639
-102.351
-77.7451
-58.5639
-43.7436
-32.3928
-23.7736
-17.2817
-12.4277
-8.81818
-6.1398
-4.14379
-2.63588
-1.47752
-0.603311
-0.00552957
-5.7128e-05
-5.79973e-05
-5.11103e-05
-4.16776e-05
-3.77932e-05
-3.46863e-05
-11803.1
-10952.3
-10110.6
-9284.11
-8478.54
-7699.28
-6951.22
-6238.63
-5565.09
-4933.43
-4345.71
-3803.21
-3306.45
-2855.23
-2448.69
-2085.4
-1763.43
-1480.43
-1233.78
-1020.59
-837.904
-682.678
-551.919
-442.723
-352.328
-278.151
-217.82
-169.185
-130.328
-99.5607
-75.418
-56.6435
-42.1737
-31.1196
-22.7463
-16.453
-11.7535
-8.25724
-5.65248
-3.6888
-2.16274
-0.929784
-0.00852691
-8.39952e-05
-9.96549e-05
-9.14139e-05
-7.10092e-05
-5.99072e-05
-5.2765e-05
-4.64835e-05
-8.71007e-05
-0.000229642
-0.000401422
-0.000552508
-0.000680224
-0.000784408
-0.000865517
-0.000924583
-0.000963156
-0.000983216
-0.000987047
-0.000977096
-0.000955834
-0.000925627
-0.00088865
-0.000846823
-0.000801784
-0.000754894
-0.000707246
-0.000659702
-0.000612925
-0.000567412
-0.000523525
-0.000481524
-0.000441581
-0.000403806
-0.000368256
-0.00033495
-0.000303872
-0.000274985
-0.000248231
-0.000223536
-0.000200817
-0.000179982
-0.000160931
-0.000143565
-0.000127779
-0.00011347
-0.000100536
-8.88752e-05
-7.83915e-05
-6.89905e-05
-6.05822e-05
-5.30811e-05
-4.64062e-05
-4.04816e-05
-3.52361e-05
-3.06032e-05
-2.65216e-05
-2.29344e-05
-0.000426867
-0.00024323
-0.000232641
-0.000272621
-0.000323068
-0.000370359
-0.000410767
-0.000443696
-0.000469406
-0.000488362
-0.000501069
-0.00050804
-0.000509794
-0.000506853
-0.000499745
-0.000489
-0.000475145
-0.000458693
-0.000440142
-0.000419961
-0.000398588
-0.000376421
-0.000353821
-0.000331104
-0.000308544
-0.000286374
-0.000264787
-0.000243937
-0.000223947
-0.000204909
-0.000186885
-0.000169916
-0.000154023
-0.000139208
-0.000125459
-0.000112754
-0.000101061
-9.03387e-05
-8.05433e-05
-7.16255e-05
-6.35341e-05
-5.62163e-05
-4.96191e-05
-4.36897e-05
-3.83765e-05
-3.36295e-05
-2.94003e-05
-2.56431e-05
-2.23144e-05
-1.93733e-05
-0.000262621
-0.000237151
-0.000265182
-0.000283907
-0.000294178
-0.000298698
-0.000299707
-0.000298809
-0.00029703
-0.000294926
-0.000292704
-0.000290345
-0.000287699
-0.000284562
-0.000280738
-0.000276067
-0.000270445
-0.000263829
-0.000256231
-0.000247709
-0.000238358
-0.000228299
-0.000217664
-0.000206595
-0.000195233
-0.00018371
-0.000172154
-0.000160679
-0.000149385
-0.00013836
-0.000127679
-0.000117403
-0.000107578
-9.82432e-05
-8.94224e-05
-8.11319e-05
-7.33788e-05
-6.61628e-05
-5.94772e-05
-5.33097e-05
-4.76439e-05
-4.24598e-05
-3.77345e-05
-3.34435e-05
-2.95609e-05
-2.606e-05
-2.2914e-05
-2.00961e-05
-1.75803e-05
-1.53412e-05
-3.9332e-05
-5.48324e-05
-7.85539e-05
-9.81136e-05
-0.000113339
-0.00012473
-0.000133013
-0.000138937
-0.000143149
-0.000146135
-0.000148213
-0.000149566
-0.000150275
-0.000150367
-0.000149839
-0.000148684
-0.000146902
-0.000144505
-0.000141521
-0.000137988
-0.000133954
-0.000129476
-0.000124613
-0.00011943
-0.000113989
-0.000108354
-0.000102586
-9.67438e-05
-9.08817e-05
-8.50507e-05
-7.92966e-05
-7.36606e-05
-6.81784e-05
-6.28807e-05
-5.77927e-05
-5.29348e-05
-4.83224e-05
-4.39662e-05
-3.9873e-05
-3.60456e-05
-3.24836e-05
-2.91835e-05
-2.61392e-05
-2.33429e-05
-2.07847e-05
-1.84536e-05
-1.63376e-05
-1.4424e-05
-1.26996e-05
-1.11512e-05
-2.40617e-05
-2.48644e-05
-3.11617e-05
-3.7225e-05
-4.28833e-05
-4.80716e-05
-5.2759e-05
-5.69363e-05
-6.06063e-05
-6.37764e-05
-6.64556e-05
-6.86531e-05
-7.03785e-05
-7.16434e-05
-7.24613e-05
-7.28489e-05
-7.28255e-05
-7.24136e-05
-7.16381e-05
-7.05259e-05
-6.91057e-05
-6.74073e-05
-6.54617e-05
-6.33001e-05
-6.09539e-05
-5.84545e-05
-5.58325e-05
-5.31179e-05
-5.03394e-05
-4.75242e-05
-4.4698e-05
-4.18843e-05
-3.91048e-05
-3.63785e-05
-3.37226e-05
-3.11515e-05
-2.86775e-05
-2.63105e-05
-2.40582e-05
-2.19262e-05
-1.99184e-05
-1.80365e-05
-1.62809e-05
-1.46505e-05
-1.31431e-05
-1.17552e-05
-1.04826e-05
-9.32049e-06
-8.26338e-06
-7.30544e-06
-2.13434e-05
-1.85062e-05
-1.99307e-05
-2.14772e-05
-2.30504e-05
-2.45944e-05
-2.60734e-05
-2.74636e-05
-2.87474e-05
-2.99113e-05
-3.09438e-05
-3.18357e-05
-3.25797e-05
-3.317e-05
-3.36028e-05
-3.38763e-05
-3.39908e-05
-3.39483e-05
-3.37529e-05
-3.34103e-05
-3.2928e-05
-3.23148e-05
-3.15806e-05
-3.07365e-05
-2.97943e-05
-2.87661e-05
-2.76648e-05
-2.6503e-05
-2.52933e-05
-2.40483e-05
-2.27799e-05
-2.14995e-05
-2.02177e-05
-1.89447e-05
-1.76892e-05
-1.64596e-05
-1.52628e-05
-1.4105e-05
-1.29913e-05
-1.1926e-05
-1.09123e-05
-9.95258e-06
-9.04835e-06
-8.20043e-06
-7.40894e-06
-6.6734e-06
-5.99279e-06
-5.36564e-06
-4.79011e-06
-4.26404e-06
-4.96084e-05
-2.52836e-05
-1.89864e-05
-1.71661e-05
-1.67576e-05
-1.66988e-05
-1.66862e-05
-1.66547e-05
-1.66022e-05
-1.65376e-05
-1.64682e-05
-1.63972e-05
-1.63236e-05
-1.6244e-05
-1.6153e-05
-1.60447e-05
-1.59131e-05
-1.5753e-05
-1.55602e-05
-1.53316e-05
-1.50654e-05
-1.4761e-05
-1.44187e-05
-1.40401e-05
-1.36273e-05
-1.31831e-05
-1.2711e-05
-1.22146e-05
-1.16981e-05
-1.11656e-05
-1.06214e-05
-1.00696e-05
-9.51451e-06
-8.95997e-06
-8.4097e-06
-7.86718e-06
-7.33555e-06
-6.8176e-06
-6.31582e-06
-5.83228e-06
-5.36875e-06
-4.92661e-06
-4.50691e-06
-4.11037e-06
-3.73742e-06
-3.3882e-06
-3.06261e-06
-2.76031e-06
-2.48079e-06
-2.22336e-06
-2.63184e-05
-2.18628e-05
-2.06008e-05
-1.93163e-05
-1.80293e-05
-1.67674e-05
-1.55578e-05
-1.44239e-05
-1.33829e-05
-1.24445e-05
-1.16118e-05
-1.08819e-05
-1.02472e-05
-9.69749e-06
-9.22073e-06
-8.80462e-06
-8.43729e-06
-8.10797e-06
-7.80729e-06
-7.52738e-06
-7.26188e-06
-7.00577e-06
-6.75528e-06
-6.50762e-06
-6.26091e-06
-6.01394e-06
-5.76606e-06
-5.51708e-06
-5.26716e-06
-5.01674e-06
-4.76645e-06
-4.51707e-06
-4.26948e-06
-4.02462e-06
-3.78343e-06
-3.54685e-06
-3.3158e-06
-3.0911e-06
-2.87352e-06
-2.66376e-06
-2.46238e-06
-2.26987e-06
-2.0866e-06
-1.91286e-06
-1.7488e-06
-1.59451e-06
-1.44997e-06
-1.31509e-06
-1.18968e-06
-1.07353e-06
-1.98591e-05
-1.70125e-05
-1.57772e-05
-1.46231e-05
-1.35422e-05
-1.25309e-05
-1.15871e-05
-1.07094e-05
-9.89667e-06
-9.14746e-06
-8.45973e-06
-7.83084e-06
-7.25758e-06
-6.73626e-06
-6.26287e-06
-5.83324e-06
-5.44319e-06
-5.08859e-06
-4.76555e-06
-4.47038e-06
-4.19971e-06
-3.95046e-06
-3.71989e-06
-3.50557e-06
-3.30538e-06
-3.11746e-06
-2.94028e-06
-2.77251e-06
-2.61307e-06
-2.46107e-06
-2.31582e-06
-2.17674e-06
-2.04343e-06
-1.91556e-06
-1.7929e-06
-1.6753e-06
-1.56264e-06
-1.45487e-06
-1.35192e-06
-1.25378e-06
-1.16041e-06
-1.07179e-06
-9.87883e-07
-9.08645e-07
-8.34016e-07
-7.63921e-07
-6.98266e-07
-6.36945e-07
-5.79833e-07
-5.2679e-07
-1.77377e-05
-1.56721e-05
-1.43824e-05
-1.32016e-05
-1.21184e-05
-1.11215e-05
-1.02026e-05
-9.35538e-06
-8.57491e-06
-7.85702e-06
-7.19782e-06
-6.59359e-06
-6.04067e-06
-5.53545e-06
-5.07442e-06
-4.65416e-06
-4.27137e-06
-3.92288e-06
-3.60572e-06
-3.31705e-06
-3.05426e-06
-2.81487e-06
-2.59663e-06
-2.39745e-06
-2.21542e-06
-2.04881e-06
-1.89605e-06
-1.75574e-06
-1.62659e-06
-1.5075e-06
-1.39746e-06
-1.29559e-06
-1.20111e-06
-1.11335e-06
-1.0317e-06
-9.55642e-07
-8.84722e-07
-8.1854e-07
-7.56746e-07
-6.99033e-07
-6.45128e-07
-5.94788e-07
-5.47797e-07
-5.03957e-07
-4.63089e-07
-4.25027e-07
-3.89616e-07
-3.56712e-07
-3.26177e-07
-2.97881e-07
-1.89348e-05
-1.59891e-05
-1.41642e-05
-1.28066e-05
-1.16885e-05
-1.06979e-05
-9.78873e-06
-8.94539e-06
-8.16325e-06
-7.44065e-06
-6.77594e-06
-6.16678e-06
-5.6102e-06
-5.10282e-06
-4.64104e-06
-4.22126e-06
-3.84e-06
-3.49391e-06
-3.1799e-06
-2.89506e-06
-2.63673e-06
-2.40247e-06
-2.19004e-06
-1.99738e-06
-1.82263e-06
-1.66407e-06
-1.52016e-06
-1.38947e-06
-1.27073e-06
-1.16277e-06
-1.06453e-06
-9.75067e-07
-8.9352e-07
-8.19117e-07
-7.51167e-07
-6.89047e-07
-6.32201e-07
-5.80131e-07
-5.32391e-07
-4.88583e-07
-4.4835e-07
-4.11376e-07
-3.77375e-07
-3.46091e-07
-3.17296e-07
-2.90784e-07
-2.66369e-07
-2.43884e-07
-2.23177e-07
-2.0411e-07
-2.03658e-05
-1.82386e-05
-1.63936e-05
-1.47234e-05
-1.32174e-05
-1.18635e-05
-1.06493e-05
-9.5624e-06
-8.59069e-06
-7.72248e-06
-6.94681e-06
-6.25356e-06
-5.63352e-06
-5.07844e-06
-4.58095e-06
-4.13458e-06
-3.73364e-06
-3.37315e-06
-3.04873e-06
-2.75658e-06
-2.49332e-06
-2.25599e-06
-2.04196e-06
-1.84889e-06
-1.67469e-06
-1.51747e-06
-1.37557e-06
-1.24745e-06
-1.13176e-06
-1.02726e-06
-9.32841e-07
-8.475e-07
-7.70332e-07
-7.00523e-07
-6.37338e-07
-5.80117e-07
-5.28266e-07
-4.81249e-07
-4.38588e-07
-3.99852e-07
-3.64655e-07
-3.32649e-07
-3.03525e-07
-2.77004e-07
-2.52836e-07
-2.30799e-07
-2.10692e-07
-1.92335e-07
-1.75568e-07
-1.60244e-07
-1.89429e-05
-1.73223e-05
-1.57872e-05
-1.43435e-05
-1.30051e-05
-1.17748e-05
-1.06494e-05
-9.62293e-06
-8.68839e-06
-7.83888e-06
-7.0678e-06
-6.36894e-06
-5.73647e-06
-5.16487e-06
-4.64895e-06
-4.18378e-06
-3.76478e-06
-3.38763e-06
-3.04835e-06
-2.74328e-06
-2.46906e-06
-2.22262e-06
-2.00118e-06
-1.80221e-06
-1.62345e-06
-1.46282e-06
-1.31849e-06
-1.18879e-06
-1.07222e-06
-9.67437e-07
-8.73228e-07
-7.8851e-07
-7.12308e-07
-6.43746e-07
-5.8204e-07
-5.26485e-07
-4.76447e-07
-4.31361e-07
-3.90717e-07
-3.54061e-07
-3.20982e-07
-2.91116e-07
-2.64134e-07
-2.39744e-07
-2.17682e-07
-1.97714e-07
-1.79629e-07
-1.6324e-07
-1.48378e-07
-1.34893e-07
-2.20586e-05
-1.93194e-05
-1.7028e-05
-1.51034e-05
-1.34733e-05
-1.20744e-05
-1.0856e-05
-9.77996e-06
-8.81909e-06
-7.95445e-06
-7.17288e-06
-6.46492e-06
-5.82337e-06
-5.24232e-06
-4.71659e-06
-4.24148e-06
-3.81262e-06
-3.42592e-06
-3.07756e-06
-2.76399e-06
-2.48193e-06
-2.22837e-06
-2.00053e-06
-1.79591e-06
-1.61222e-06
-1.44736e-06
-1.29945e-06
-1.16678e-06
-1.0478e-06
-9.41124e-07
-8.45485e-07
-7.59749e-07
-6.82891e-07
-6.13992e-07
-5.52223e-07
-4.9684e-07
-4.47176e-07
-4.02631e-07
-3.62668e-07
-3.26806e-07
-2.94613e-07
-2.65703e-07
-2.39731e-07
-2.16389e-07
-1.95401e-07
-1.76519e-07
-1.59524e-07
-1.44219e-07
-1.30428e-07
-1.17995e-07
-2.20654e-05
-1.9924e-05
-1.79547e-05
-1.61605e-05
-1.45335e-05
-1.30616e-05
-1.17314e-05
-1.05306e-05
-9.44778e-06
-8.47267e-06
-7.59559e-06
-6.80755e-06
-6.10015e-06
-5.46557e-06
-4.89657e-06
-4.3865e-06
-3.92932e-06
-3.51957e-06
-3.15232e-06
-2.82316e-06
-2.52815e-06
-2.26375e-06
-2.0268e-06
-1.81448e-06
-1.62427e-06
-1.4539e-06
-1.30132e-06
-1.16472e-06
-1.04245e-06
-9.33039e-07
-8.35146e-07
-7.47581e-07
-6.69269e-07
-5.99241e-07
-5.3663e-07
-4.80654e-07
-4.30613e-07
-3.85879e-07
-3.45886e-07
-3.1013e-07
-2.7816e-07
-2.49569e-07
-2.23996e-07
-2.01117e-07
-1.80642e-07
-1.62314e-07
-1.45903e-07
-1.31201e-07
-1.18027e-07
-1.06215e-07
-2.42418e-05
-2.11834e-05
-1.87254e-05
-1.66984e-05
-1.49758e-05
-1.34717e-05
-1.21319e-05
-1.09242e-05
-9.82942e-06
-8.83554e-06
-7.93397e-06
-7.11764e-06
-6.38003e-06
-5.71487e-06
-5.11609e-06
-4.57782e-06
-4.09451e-06
-3.66095e-06
-3.2723e-06
-2.92412e-06
-2.61235e-06
-2.33331e-06
-2.08366e-06
-1.86038e-06
-1.66075e-06
-1.48233e-06
-1.32291e-06
-1.1805e-06
-1.05333e-06
-9.39791e-07
-8.38452e-07
-7.48022e-07
-6.67343e-07
-5.95379e-07
-5.31199e-07
-4.73972e-07
-4.2295e-07
-3.77466e-07
-3.36923e-07
-3.00786e-07
-2.68577e-07
-2.39869e-07
-2.14282e-07
-1.91474e-07
-1.71142e-07
-1.53015e-07
-1.36851e-07
-1.22435e-07
-1.09575e-07
-9.80999e-08
-2.59285e-05
-2.33218e-05
-2.09164e-05
-1.87278e-05
-1.67527e-05
-1.49784e-05
-1.33878e-05
-1.19634e-05
-1.06883e-05
-9.54726e-06
-8.52642e-06
-7.61335e-06
-6.79691e-06
-6.06703e-06
-5.41466e-06
-4.83164e-06
-4.31066e-06
-3.84516e-06
-3.42925e-06
-3.05769e-06
-2.7258e-06
-2.42939e-06
-2.16471e-06
-1.92843e-06
-1.71756e-06
-1.52941e-06
-1.36159e-06
-1.21196e-06
-1.07857e-06
-9.59715e-07
-8.53833e-07
-7.59537e-07
-6.75586e-07
-6.00864e-07
-5.34374e-07
-4.75223e-07
-4.22612e-07
-3.75829e-07
-3.34235e-07
-2.9726e-07
-2.64396e-07
-2.35189e-07
-2.09235e-07
-1.86172e-07
-1.65679e-07
-1.47471e-07
-1.31292e-07
-1.16915e-07
-1.0414e-07
-9.27854e-08
-3.0674e-05
-2.67517e-05
-2.3442e-05
-2.06446e-05
-1.82638e-05
-1.62171e-05
-1.44379e-05
-1.28757e-05
-1.14926e-05
-1.0261e-05
-9.16055e-06
-8.17539e-06
-7.29294e-06
-6.50265e-06
-5.79531e-06
-5.16268e-06
-4.5973e-06
-4.0924e-06
-3.64178e-06
-3.23982e-06
-2.88144e-06
-2.56204e-06
-2.27747e-06
-2.02402e-06
-1.79836e-06
-1.59749e-06
-1.41875e-06
-1.25973e-06
-1.1183e-06
-9.92557e-07
-8.80785e-07
-7.81461e-07
-6.93224e-07
-6.14857e-07
-5.45276e-07
-4.83511e-07
-4.28698e-07
-3.80067e-07
-3.36931e-07
-2.98677e-07
-2.6476e-07
-2.34693e-07
-2.08044e-07
-1.84429e-07
-1.63504e-07
-1.44965e-07
-1.28543e-07
-1.13995e-07
-1.01109e-07
-8.9696e-08
-3.1594e-05
-2.85744e-05
-2.57018e-05
-2.30224e-05
-2.05597e-05
-1.83208e-05
-1.63016e-05
-1.44909e-05
-1.28737e-05
-1.14331e-05
-1.01519e-05
-9.01345e-06
-8.00237e-06
-7.10451e-06
-6.30717e-06
-5.59902e-06
-4.96999e-06
-4.41118e-06
-3.91471e-06
-3.4736e-06
-3.08168e-06
-2.73346e-06
-2.4241e-06
-2.1493e-06
-1.90524e-06
-1.6885e-06
-1.49608e-06
-1.32528e-06
-1.17371e-06
-1.03924e-06
-9.19978e-07
-8.14226e-07
-7.20482e-07
-6.37406e-07
-5.63805e-07
-4.98616e-07
-4.40893e-07
-3.89795e-07
-3.44573e-07
-3.04562e-07
-2.6917e-07
-2.37871e-07
-2.10197e-07
-1.85733e-07
-1.64113e-07
-1.45007e-07
-1.28128e-07
-1.13217e-07
-1.00047e-07
-8.84159e-08
-4.08748e-05
-3.59207e-05
-3.1566e-05
-2.77453e-05
-2.43963e-05
-2.14625e-05
-1.88938e-05
-1.66448e-05
-1.4675e-05
-1.29483e-05
-1.14329e-05
-1.0101e-05
-8.92864e-06
-7.89526e-06
-6.98328e-06
-6.17763e-06
-5.46535e-06
-4.83527e-06
-4.27767e-06
-3.78411e-06
-3.34715e-06
-2.96029e-06
-2.61777e-06
-2.31453e-06
-2.04608e-06
-1.80845e-06
-1.59812e-06
-1.41198e-06
-1.24728e-06
-1.10157e-06
-9.72682e-07
-8.58702e-07
-7.57924e-07
-6.68839e-07
-5.90109e-07
-5.20546e-07
-4.59098e-07
-4.04831e-07
-3.56918e-07
-3.14626e-07
-2.77304e-07
-2.44376e-07
-2.15332e-07
-1.89718e-07
-1.67136e-07
-1.4723e-07
-1.29688e-07
-1.14231e-07
-1.00614e-07
-8.86203e-08
-2.05173e-05
-1.89425e-05
-1.74702e-05
-1.60952e-05
-1.48127e-05
-1.36176e-05
-1.25053e-05
-1.14712e-05
-1.0511e-05
-9.62035e-06
-8.79528e-06
-8.03183e-06
-7.32627e-06
-6.67498e-06
-6.07453e-06
-5.52164e-06
-5.01317e-06
-4.54614e-06
-4.11772e-06
-3.72522e-06
-3.36609e-06
-3.03792e-06
-2.73843e-06
-2.46548e-06
-2.21705e-06
-1.99122e-06
-1.78623e-06
-1.6004e-06
-1.43217e-06
-1.28007e-06
-1.14275e-06
-1.01894e-06
-9.07464e-07
-8.07233e-07
-7.17235e-07
-6.36536e-07
-5.64275e-07
-4.99658e-07
-4.41954e-07
-3.90494e-07
-3.44665e-07
-3.03903e-07
-2.67698e-07
-2.3558e-07
-2.07127e-07
-1.8195e-07
-1.59701e-07
-1.40064e-07
-1.22751e-07
-1.07505e-07
-9.40942e-08
-8.23104e-08
-7.19667e-08
-6.28958e-08
-5.49484e-08
-4.79911e-08
-4.19054e-08
-3.6586e-08
-3.19394e-08
-2.78827e-08
-2.43428e-08
-2.1255e-08
-1.85626e-08
-1.62155e-08
-1.41695e-08
-1.23862e-08
-1.08317e-08
-9.47654e-09
-8.2948e-09
-7.26404e-09
-6.36455e-09
-5.57932e-09
-4.8935e-09
-4.29407e-09
-3.76984e-09
-3.31116e-09
-2.90943e-09
-2.55729e-09
-2.24854e-09
-1.97767e-09
-1.73962e-09
-1.53048e-09
-1.34657e-09
-1.18484e-09
-1.04231e-09
-9.16867e-10
-8.06311e-10
-7.08829e-10
-6.2286e-10
-5.47082e-10
-4.80369e-10
-4.21416e-10
-3.69511e-10
-3.23566e-10
-2.83154e-10
-2.47427e-10
-2.1608e-10
-1.88544e-10
-1.64228e-10
-1.42623e-10
-1.23754e-10
-1.07302e-10
-9.28944e-11
-8.02043e-11
-6.89474e-11
-5.88706e-11
-4.97535e-11
-4.19078e-11
-3.52538e-11
-2.96239e-11
-2.48691e-11
-2.08582e-11
-1.74777e-11
-1.46302e-11
-1.22332e-11
-1.02165e-11
-8.52105e-12
-7.09675e-12
-5.90136e-12
-4.89909e-12
-4.05971e-12
-3.35762e-12
-2.77118e-12
-2.28208e-12
-1.87485e-12
-1.5364e-12
-1.25568e-12
-1.02333e-12
-8.31476e-13
-6.73456e-13
-5.43654e-13
-4.3734e-13
-3.50532e-13
-2.79884e-13
-2.22586e-13
-1.76286e-13
-1.39017e-13
-1.09139e-13
-8.52871e-14
-6.63307e-14
-5.1334e-14
-3.95268e-14
-3.02766e-14
-2.3067e-14
-1.74776e-14
-1.31678e-14
-9.86354e-15
-7.34475e-15
-5.43611e-15
-3.99863e-15
-2.92274e-15
-2.1226e-15
-1.53142e-15
-1.09752e-15
-7.81216e-16
-5.52231e-16
-3.87623e-16
-2.7014e-16
-1.869e-16
-1.28357e-16
-8.74936e-17
-5.91876e-17
-3.97316e-17
-2.64635e-17
-1.74871e-17
-1.14632e-17
-7.45359e-18
-4.80676e-18
-3.07415e-18
-1.94958e-18
-1.2259e-18
-7.6424e-19
-4.72304e-19
-2.89328e-19
-1.75669e-19
-1.05706e-19
-6.30314e-20
-3.72422e-20
-2.18018e-20
-1.26442e-20
-7.2643e-21
-4.13392e-21
-2.33003e-21
-1.30062e-21
-7.1895e-22
-3.93519e-22
-2.13265e-22
-1.14425e-22
-6.07772e-23
-3.19551e-23
-1.66298e-23
-8.56544e-24
-4.36608e-24
-2.20233e-24
-1.09923e-24
-5.42849e-25
-2.65229e-25
-1.28199e-25
-6.12972e-26
-2.89905e-26
-1.35613e-26
-6.27402e-27
-2.87053e-27
-1.29874e-27
-5.81023e-28
-2.57011e-28
-1.124e-28
-4.85974e-29
-2.07712e-29
-8.77577e-30
-3.66487e-30
-1.51271e-30
-6.17091e-31
-2.48779e-31
-9.91117e-32
-3.90173e-32
-1.5177e-32
-5.8329e-33
-2.21478e-33
-8.30808e-34
-3.07871e-34
-1.12697e-34
-4.07484e-35
-1.45525e-35
-5.13297e-36
-1.78807e-36
-6.15121e-37
-2.08966e-37
-7.00982e-38
-2.32184e-38
-7.59332e-39
-2.45178e-39
-7.81559e-40
-2.45952e-40
-7.6406e-41
-2.34299e-41
-7.09188e-42
-2.11874e-42
-6.24742e-43
-1.81807e-43
-5.22138e-44
-1.47981e-44
-4.13863e-45
-1.14213e-45
-3.11002e-46
-8.35571e-47
-2.21491e-47
-5.79246e-48
-1.49447e-48
-3.80374e-49
-9.5503e-50
-2.36531e-50
-5.77842e-51
-1.39239e-51
-3.30925e-52
-7.75709e-53
-1.7933e-53
-4.08861e-54
-9.19295e-55
-2.03833e-55
-4.45676e-56
-9.60896e-57
-2.04283e-57
-4.28228e-58
-8.85095e-59
-1.8037e-59
-3.62401e-60
-7.17875e-61
-1.40195e-61
-2.69918e-62
-5.12312e-63
-9.5858e-64
-1.76809e-64
-3.21481e-65
-5.76192e-66
-1.01797e-66
-1.77275e-67
-3.04296e-68
-5.14842e-69
-8.58566e-70
-1.41119e-70
-2.28616e-71
-3.65027e-72
-5.74431e-73
-8.90917e-74
-1.36181e-74
-2.05151e-75
-3.04578e-76
-4.45645e-77
-6.42598e-78
-9.13157e-79
-1.2788e-79
-1.76485e-80
-2.40025e-81
-3.21696e-82
-4.24885e-83
-5.53008e-84
-7.09309e-85
-8.98278e-86
-1.25837e-86
-1.73813e-05
-1.608e-05
-1.48602e-05
-1.37182e-05
-1.26503e-05
-1.16527e-05
-1.0722e-05
-9.85463e-06
-9.04731e-06
-8.29677e-06
-7.59985e-06
-6.95351e-06
-6.35481e-06
-5.80093e-06
-5.28915e-06
-4.81687e-06
-4.38158e-06
-3.9809e-06
-3.61255e-06
-3.27435e-06
-2.96426e-06
-2.68029e-06
-2.42059e-06
-2.18341e-06
-1.96708e-06
-1.77002e-06
-1.59077e-06
-1.42794e-06
-1.28022e-06
-1.14639e-06
-1.02532e-06
-9.15931e-07
-8.17239e-07
-7.28319e-07
-6.48313e-07
-5.76427e-07
-5.11925e-07
-4.54128e-07
-4.02411e-07
-3.56195e-07
-3.14952e-07
-2.78196e-07
-2.45483e-07
-2.16405e-07
-1.90593e-07
-1.67708e-07
-1.47445e-07
-1.29524e-07
-1.13695e-07
-9.97291e-08
-8.7421e-08
-7.65858e-08
-6.70572e-08
-5.86861e-08
-5.13387e-08
-4.48957e-08
-3.92503e-08
-3.43077e-08
-2.99833e-08
-2.62022e-08
-2.28979e-08
-2.00116e-08
-1.74914e-08
-1.52916e-08
-1.33717e-08
-1.16965e-08
-1.02346e-08
-8.959e-09
-7.84566e-09
-6.87375e-09
-6.02505e-09
-5.28364e-09
-4.63566e-09
-4.06907e-09
-3.57336e-09
-3.13938e-09
-2.75921e-09
-2.42596e-09
-2.13363e-09
-1.87703e-09
-1.65164e-09
-1.45353e-09
-1.27928e-09
-1.12595e-09
-9.90991e-10
-8.72115e-10
-7.67322e-10
-6.74908e-10
-5.93404e-10
-5.21565e-10
-4.58219e-10
-4.02315e-10
-3.53025e-10
-3.09517e-10
-2.71151e-10
-2.37357e-10
-2.07596e-10
-1.81379e-10
-1.5826e-10
-1.37922e-10
-1.20058e-10
-1.04376e-10
-9.06076e-11
-7.8514e-11
-6.78856e-11
-5.85372e-11
-5.03866e-11
-4.32203e-11
-3.70132e-11
-3.16468e-11
-2.70146e-11
-2.30221e-11
-1.95859e-11
-1.66327e-11
-1.40985e-11
-1.19273e-11
-1.00701e-11
-8.48415e-12
-7.13229e-12
-5.98207e-12
-5.00531e-12
-4.17752e-12
-3.47747e-12
-2.88678e-12
-2.38955e-12
-1.97203e-12
-1.62237e-12
-1.33034e-12
-1.08717e-12
-8.85297e-13
-7.18254e-13
-5.805e-13
-4.67303e-13
-3.74633e-13
-2.99062e-13
-2.37685e-13
-1.88047e-13
-1.48078e-13
-1.16043e-13
-9.04868e-14
-7.01991e-14
-5.4175e-14
-4.15841e-14
-3.17438e-14
-2.40956e-14
-1.81846e-14
-1.36429e-14
-1.01739e-14
-7.54034e-15
-5.5535e-15
-4.06407e-15
-2.95475e-15
-2.13401e-15
-1.53086e-15
-1.09066e-15
-7.71629e-16
-5.42056e-16
-3.7805e-16
-2.61743e-16
-1.79876e-16
-1.22688e-16
-8.3045e-17
-5.57778e-17
-3.71708e-17
-2.45749e-17
-1.6117e-17
-1.04843e-17
-6.76418e-18
-4.32779e-18
-2.74569e-18
-1.72715e-18
-1.07711e-18
-6.65892e-19
-4.08054e-19
-2.47835e-19
-1.49176e-19
-8.89794e-20
-5.25889e-20
-3.07945e-20
-1.78645e-20
-1.02662e-20
-5.84377e-21
-3.29459e-21
-1.8395e-21
-1.01708e-21
-5.56834e-22
-3.01843e-22
-1.61989e-22
-8.60602e-23
-4.52585e-23
-2.35583e-23
-1.21367e-23
-6.1878e-24
-3.1219e-24
-1.55854e-24
-7.69839e-25
-3.76212e-25
-1.81881e-25
-8.69823e-26
-4.11466e-26
-1.92516e-26
-8.9084e-27
-4.07665e-27
-1.84479e-27
-8.25479e-28
-3.65216e-28
-1.59753e-28
-6.90843e-29
-2.95333e-29
-1.24801e-29
-5.21285e-30
-2.15206e-30
-8.7807e-31
-3.54059e-31
-1.41081e-31
-5.55494e-32
-2.16116e-32
-8.3074e-33
-3.15493e-33
-1.18369e-33
-4.38716e-34
-1.60622e-34
-5.80867e-35
-2.07481e-35
-7.31955e-36
-2.55019e-36
-8.7745e-37
-2.98133e-37
-1.00026e-37
-3.31367e-38
-1.08387e-38
-3.50023e-39
-1.11595e-39
-3.51238e-40
-1.0913e-40
-3.34699e-41
-1.01323e-41
-3.02754e-42
-8.92845e-43
-2.59865e-43
-7.46423e-44
-2.11577e-44
-5.91804e-45