/*--------------------------------*- C++ -*----------------------------------*\
| =========                 |                                                 |
| \\      /  F ield         | OpenFOAM: The Open Source CFD Toolbox           |
|  \\    /   O peration     | Version:  2.4.0                                 |
|   \\  /    A nd           | Web:      www.OpenFOAM.org                      |
|    \\/     M anipulation  |                                                 |
\*---------------------------------------------------------------------------*/
FoamFile
{
    version     2.0;
    format      ascii;
    class       volScalarField;
    location    "1.7";
    object      p;
}
// * * * * * * * * * * * * * * * * * * * * * * * * * * * * * * * * * * * * * //

dimensions      [1 -1 -2 0 0 0 0];

internalField   nonuniform List<scalar> 
8000
(
-0.61866
-0.575635
-0.530893
-0.492721
-0.460546
-0.433733
-0.411708
-0.394944
-0.382832
-0.375542
-0.372918
-0.376415
-0.385219
-0.395867
-0.401368
-0.401239
-0.368574
-0.285614
-0.160081
-0.00784852
0.149166
0.245075
0.315848
0.415722
0.491842
0.543893
0.810621
1.73154
-0.361825
-6.65966
-5.54684
-6.89193
-8.16913
-3.33852
-1.02697
0.0221119
-0.0655804
-0.556804
-1.41199
-1.38238
-1.34882
-1.34767
-1.35101
-1.35058
-1.34943
-1.34936
-1.34999
-1.35057
-1.35085
-1.35099
1.97486
1.96956
1.96718
1.96818
1.97198
1.97826
1.98701
1.9982
2.01189
2.02801
2.04666
2.0677
2.09117
2.11701
2.14558
2.17705
2.21208
2.25029
2.29154
2.33345
2.37548
2.41904
2.46828
2.53197
2.6255
2.76644
2.94958
3.13362
3.36037
3.57596
3.86893
4.1277
3.90801
0.338334
-1.41391
-7.54103
-8.41596
-3.10286
-0.731676
0.482227
-0.562204
-1.31077
-1.4203
-1.3707
-1.35574
-1.36802
-1.37616
-1.37723
-1.37676
-1.37627
2.69149
2.68047
2.66809
2.65768
2.64963
2.64364
2.63958
2.63738
2.63709
2.63868
2.6422
2.64763
2.65504
2.66443
2.67589
2.68943
2.70505
2.72272
2.74231
2.76366
2.78646
2.81062
2.8359
2.86241
2.88998
2.91875
2.94771
2.97634
3.0056
3.04141
3.08247
3.12225
3.16494
3.20834
3.29705
3.31149
3.05119
0.306756
-1.60547
-6.55196
-8.35921
-6.29428
-1.86633
-0.193128
-0.601679
-1.34129
-1.40889
-1.38306
-1.38644
-1.39162
4.30491
4.27931
4.25363
4.2321
4.21426
4.19946
4.18748
4.17835
4.17204
4.16858
4.16791
4.17004
4.17493
4.1826
4.19298
4.2061
4.2219
4.24042
4.26157
4.28541
4.31183
4.34093
4.37256
4.40688
4.44361
4.48296
4.52443
4.56828
4.61367
4.66109
4.70937
4.75929
4.80971
4.86332
4.91907
4.97542
5.02318
5.06166
5.15771
5.22139
5.11325
2.70798
1.03262
-5.41826
-6.44401
-3.46257
-1.53185
-1.02539
-1.37219
-1.37434
4.60791
4.57436
4.5386
4.50739
4.48069
4.45769
4.43809
4.42185
4.40898
4.39947
4.39331
4.39047
4.39096
4.39476
4.40188
4.41232
4.42609
4.4432
4.46366
4.4875
4.51474
4.54541
4.57955
4.61721
4.65842
4.70325
4.75176
4.80401
4.86009
4.92012
4.98413
5.05233
5.12469
5.20147
5.28256
5.36853
5.45957
5.55738
5.66114
5.76703
5.87106
5.96291
6.11681
6.35016
6.56707
2.89931
-2.6801
-4.90835
-3.22
-1.90992
4.83616
4.80272
4.76779
4.73727
4.71082
4.68761
4.66739
4.65013
4.63587
4.62458
4.61626
4.6109
4.60849
4.60903
4.61253
4.61897
4.62839
4.64077
4.65615
4.67454
4.69597
4.72045
4.74803
4.77873
4.81261
4.84968
4.89001
4.93364
4.98068
5.0311
5.08507
5.14255
5.20375
5.2686
5.33736
5.40991
5.4866
5.56718
5.65202
5.74095
5.8351
5.93508
6.03958
6.13648
6.21772
6.31543
6.45893
6.46206
2.77279
-0.557005
4.19773
4.17196
4.14429
4.11956
4.09768
4.07806
4.0605
4.04498
4.03152
4.02011
4.01074
4.0034
3.99807
3.99473
3.99336
3.99395
3.99646
4.00089
4.00721
4.01538
4.02539
4.0372
4.05077
4.06608
4.0831
4.10175
4.12201
4.14384
4.16718
4.19198
4.21818
4.24572
4.27453
4.30455
4.33569
4.3679
4.40106
4.4351
4.46995
4.50549
4.5417
4.57839
4.61557
4.65318
4.69174
4.73048
4.76451
4.79072
4.81193
4.71735
3.40015
3.38094
3.36024
3.3415
3.32466
3.30927
3.29518
3.2824
3.27094
3.26079
3.25195
3.2444
3.23813
3.23314
3.2294
3.22691
3.22566
3.22561
3.22677
3.22911
3.2326
3.23723
3.24298
3.24982
3.25773
3.26668
3.27662
3.28753
3.29939
3.31215
3.32577
3.34021
3.35542
3.37136
3.38796
3.40517
3.4229
3.44111
3.45972
3.47863
3.49776
3.51698
3.5362
3.55529
3.57417
3.59265
3.62291
3.63136
3.64565
3.67032
2.45544
2.4406
2.42505
2.41135
2.39933
2.38865
2.3792
2.37099
2.36403
2.35833
2.35388
2.3507
2.34879
2.34814
2.34877
2.35069
2.3539
2.35842
2.36425
2.3714
2.3799
2.38975
2.40098
2.41361
2.42764
2.44313
2.46007
2.47851
2.49847
2.52
2.54313
2.5679
2.59436
2.62256
2.65256
2.68443
2.7182
2.75397
2.79182
2.83183
2.8741
2.91873
2.96584
3.01551
3.06791
3.12325
3.20438
3.26689
3.33103
3.3908
1.11518
1.11043
1.10502
1.0999
1.09511
1.09057
1.08625
1.08216
1.07831
1.0747
1.07135
1.06827
1.06545
1.0629
1.06062
1.05862
1.0569
1.05546
1.05431
1.05344
1.05287
1.05257
1.05257
1.05284
1.05341
1.05427
1.05541
1.05683
1.05855
1.06054
1.06282
1.06537
1.06823
1.07135
1.07478
1.07846
1.08249
1.08675
1.09136
1.09621
1.10146
1.10693
1.1128
1.1188
1.12536
1.1329
1.1635
1.16756
1.17206
1.06213
-0.0752486
-0.0755898
-0.0760373
-0.0766131
-0.0773204
-0.0781481
-0.0790828
-0.080114
-0.0812339
-0.0824376
-0.0837216
-0.0850853
-0.0865293
-0.0880574
-0.0896743
-0.0913886
-0.0932094
-0.09515
-0.0972239
-0.0994499
-0.101846
-0.104437
-0.107245
-0.110303
-0.113637
-0.117288
-0.121287
-0.125685
-0.130517
-0.135846
-0.141712
-0.148191
-0.155327
-0.163217
-0.171904
-0.181511
-0.192076
-0.203755
-0.21653
-0.23069
-0.246251
-0.263655
-0.28283
-0.302682
-0.319017
-0.332521
-0.377092
-0.573611
-0.998968
-1.81122
-1.2787
-1.27726
-1.27582
-1.27477
-1.27413
-1.27385
-1.27394
-1.27439
-1.2752
-1.27638
-1.27793
-1.27986
-1.28216
-1.28484
-1.28791
-1.29136
-1.29521
-1.29945
-1.30408
-1.30912
-1.31456
-1.32042
-1.3267
-1.3334
-1.34052
-1.34809
-1.35609
-1.36455
-1.37345
-1.38284
-1.39268
-1.40303
-1.41384
-1.42521
-1.43704
-1.44946
-1.46235
-1.47588
-1.48988
-1.50488
-1.52058
-1.536
-1.54675
-1.55242
-1.58312
-1.7405
-2.13023
-3.07881
-3.34051
-3.08385
-2.48548
-2.48365
-2.48187
-2.48025
-2.47867
-2.47711
-2.47558
-2.47408
-2.47262
-2.47121
-2.46985
-2.46853
-2.46726
-2.46603
-2.46483
-2.46367
-2.46251
-2.46137
-2.46021
-2.45904
-2.45782
-2.45655
-2.45519
-2.45374
-2.45215
-2.45041
-2.44847
-2.44633
-2.44393
-2.44126
-2.43824
-2.43488
-2.43109
-2.42687
-2.42211
-2.41683
-2.41089
-2.40446
-2.39764
-2.39027
-2.37915
-2.35747
-2.32983
-2.36941
-2.65203
-3.97639
-4.23793
-3.90047
-3.02119
-2.00466
-3.44835
-3.43963
-3.42969
-3.42073
-3.41296
-3.40621
-3.4004
-3.39553
-3.39162
-3.38866
-3.38667
-3.38565
-3.38559
-3.38649
-3.38836
-3.39119
-3.39499
-3.39974
-3.40544
-3.41209
-3.41969
-3.42822
-3.43768
-3.44805
-3.45934
-3.4715
-3.48458
-3.49848
-3.51328
-3.52886
-3.5453
-3.56247
-3.58047
-3.59909
-3.6185
-3.63851
-3.65964
-3.68171
-3.70298
-3.71543
-3.71493
-3.7525
-4.02047
-4.64161
-4.61665
-4.11223
-2.85862
-1.81473
-1.62911
-1.64192
-4.94179
-4.9267
-4.91203
-4.8995
-4.88858
-4.87888
-4.87034
-4.86298
-4.8568
-4.85181
-4.84799
-4.84534
-4.84385
-4.84348
-4.84424
-4.84609
-4.84901
-4.85297
-4.85795
-4.86391
-4.8708
-4.87859
-4.88723
-4.89666
-4.90684
-4.91768
-4.92913
-4.9411
-4.95352
-4.96627
-4.97929
-4.99239
-5.00552
-5.01844
-5.03128
-5.04412
-5.05686
-5.06524
-5.05889
-5.04
-5.10673
-5.52374
-6.21995
-4.56059
-2.8963
-1.78052
-1.6614
-1.66843
-1.66686
-1.66638
-5.01706
-4.99466
-4.96878
-4.94534
-4.92493
-4.90707
-4.89148
-4.87811
-4.86694
-4.85796
-4.85113
-4.84644
-4.84386
-4.8434
-4.84502
-4.84874
-4.85454
-4.86245
-4.87246
-4.88459
-4.89887
-4.91532
-4.93398
-4.95489
-4.97808
-5.00364
-5.03158
-5.06201
-5.09495
-5.13055
-5.16881
-5.20989
-5.25381
-5.30091
-5.35143
-5.40529
-5.45932
-5.50753
-5.55852
-5.6928
-6.07156
-6.45982
-3.91378
-1.88178
-1.7153
-1.69068
-1.68919
-1.68839
-1.68835
-1.68837
-6.74374
-6.70704
-6.67211
-6.64367
-6.62044
-6.60136
-6.5862
-6.57497
-6.56767
-6.5643
-6.56483
-6.56928
-6.57765
-6.58998
-6.60631
-6.62668
-6.6512
-6.67992
-6.71298
-6.75049
-6.79261
-6.83947
-6.8913
-6.94827
-7.01064
-7.07863
-7.15256
-7.23268
-7.31937
-7.41296
-7.51385
-7.62244
-7.73928
-7.86486
-7.99948
-8.14252
-8.29334
-8.45909
-8.66968
-8.95817
-9.14651
-8.38768
-3.81494
-1.97835
-1.68085
-1.68528
-1.70533
-1.71034
-1.71185
-1.71158
-4.94954
-4.93522
-4.91783
-4.90378
-4.89384
-4.88714
-4.88293
-4.88072
-4.88018
-4.88098
-4.88282
-4.88546
-4.88866
-4.89223
-4.896
-4.89982
-4.90357
-4.90714
-4.91046
-4.91347
-4.91611
-4.91838
-4.92027
-4.9218
-4.92299
-4.92391
-4.92463
-4.92524
-4.92585
-4.92663
-4.92769
-4.92928
-4.93153
-4.93475
-4.93911
-4.94529
-4.95399
-4.96552
-4.97441
-4.96748
-4.95448
-5.08177
-5.77352
-6.09611
-2.2833
-1.77094
-1.81511
-1.73531
-1.73491
-1.73418
-6.00245
-5.97648
-5.95796
-5.94838
-5.94441
-5.94385
-5.94552
-5.94858
-5.95228
-5.95591
-5.95889
-5.96066
-5.96077
-5.95881
-5.95439
-5.9472
-5.93695
-5.92337
-5.90622
-5.8853
-5.86039
-5.83135
-5.79799
-5.76019
-5.71781
-5.67076
-5.61892
-5.56224
-5.50065
-5.43412
-5.36264
-5.28624
-5.20495
-5.11889
-5.02819
-4.93307
-4.83376
-4.73031
-4.62295
-4.51343
-4.40865
-4.31369
-4.19785
-4.24279
-6.13156
-10.1074
-5.26361
-5.11535
-1.78123
-1.7488
-1.2737
-1.72221
-2.17272
-2.55981
-2.89562
-3.19547
-3.46563
-3.70865
-3.92647
-4.12099
-4.29389
-4.4466
-4.58028
-4.69589
-4.79423
-4.87594
-4.94155
-4.99145
-5.02597
-5.04531
-5.04961
-5.03894
-5.01327
-4.97253
-4.91656
-4.84511
-4.7579
-4.65449
-4.53443
-4.39708
-4.24177
-4.06756
-3.87351
-3.65829
-3.42056
-3.15844
-2.87008
-2.55284
-2.20408
-1.81922
-1.39269
-0.919463
-0.412059
0.0920601
0.616435
0.995549
3.26324
6.89735
-4.73194
-2.34315
-1.35108
-1.3511
-1.35119
-1.35128
-1.35137
-1.35145
-1.35153
-1.35159
-1.35165
-1.35171
-1.35177
-1.35182
-1.35179
-1.35162
-1.35314
-1.35323
-1.35327
-1.35332
-1.35336
-1.3534
-1.35343
-1.35347
-1.35351
-1.35354
-1.35357
-1.3536
-1.35363
-1.35361
-1.35367
-1.35371
-1.35374
-1.35377
-1.3538
-1.35383
-1.35385
-1.35388
-1.35391
-1.35393
-1.35396
-1.35398
-1.35401
-1.35403
-1.35405
-1.35408
-1.3541
-1.35411
-1.35413
-1.35415
-1.35416
-1.35418
-1.37596
-1.3759
-1.37598
-1.37608
-1.37608
-1.37604
-1.37598
-1.37592
-1.37586
-1.37583
-1.37575
-1.37546
-1.37651
-1.37649
-1.37643
-1.37641
-1.37639
-1.37637
-1.37636
-1.37635
-1.37634
-1.37634
-1.37634
-1.37634
-1.37634
-1.37635
-1.37636
-1.37637
-1.37638
-1.3764
-1.37642
-1.37644
-1.37646
-1.37648
-1.3765
-1.37652
-1.37654
-1.37656
-1.37658
-1.3766
-1.37662
-1.37664
-1.37666
-1.37668
-1.3767
-1.37673
-1.37675
-1.37678
-1.3768
-1.37683
-1.39419
-1.39563
-1.39629
-1.39653
-1.39671
-1.39691
-1.3971
-1.39721
-1.3972
-1.3973
-1.39734
-1.39743
-1.39747
-1.39751
-1.39753
-1.39755
-1.39757
-1.39759
-1.39761
-1.39762
-1.39764
-1.39766
-1.39768
-1.39769
-1.3977
-1.39771
-1.39772
-1.39772
-1.39772
-1.39773
-1.39769
-1.39767
-1.39838
-1.39837
-1.39835
-1.39834
-1.39833
-1.39832
-1.39832
-1.39831
-1.39831
-1.3983
-1.39829
-1.39829
-1.39828
-1.39828
-1.39827
-1.39826
-1.39825
-1.39824
-1.36774
-1.38884
-1.40611
-1.41558
-1.41936
-1.42031
-1.4205
-1.42055
-1.42057
-1.42058
-1.42056
-1.42051
-1.42069
-1.42068
-1.42069
-1.42066
-1.42063
-1.4206
-1.42057
-1.42054
-1.42051
-1.42045
-1.4204
-1.42079
-1.42068
-1.4207
-1.42115
-1.42095
-1.42093
-1.42093
-1.42086
-1.42085
-1.42079
-1.42074
-1.42072
-1.42059
-1.42067
-1.42065
-1.42061
-1.42058
-1.42055
-1.42052
-1.42049
-1.42045
-1.42038
-1.42032
-1.42096
-1.42094
-1.42075
-1.42072
-1.37163
-1.3409
-1.33176
-1.36988
-1.41229
-1.43286
-1.43981
-1.44187
-1.44252
-1.44271
-1.44276
-1.44275
-1.44274
-1.44273
-1.44274
-1.44275
-1.44275
-1.44274
-1.44274
-1.44272
-1.44265
-1.44203
-1.44274
-1.44259
-1.44261
-1.44305
-1.44305
-1.44301
-1.44351
-1.44347
-1.44346
-1.44313
-1.44345
-1.4434
-1.44342
-1.44362
-1.44363
-1.44364
-1.44366
-1.44368
-1.4436
-1.4437
-1.44374
-1.4438
-1.44384
-1.4427
-1.44325
-1.44259
-1.44252
-1.44141
-1.55913
-1.27306
-0.96284
-1.00355
-1.23288
-1.38819
-1.44651
-1.46117
-1.46397
-1.46443
-1.46451
-1.46447
-1.46469
-1.46466
-1.4655
-1.46513
-1.4651
-1.46572
-1.46518
-1.46518
-1.46592
-1.46591
-1.46553
-1.46543
-1.46581
-1.46579
-1.46577
-1.46576
-1.46575
-1.46573
-1.46572
-1.46571
-1.4657
-1.46568
-1.46567
-1.46566
-1.46565
-1.46564
-1.46563
-1.46562
-1.46562
-1.46561
-1.4656
-1.4656
-1.4656
-1.4656
-1.4656
-1.4656
-1.4656
-1.4656
3.54151
2.5295
1.46355
0.369922
-0.655818
-1.28051
-1.45628
-1.48302
-1.48634
-1.48682
-1.48687
-1.48654
-1.48652
-1.48816
-1.48815
-1.48814
-1.48814
-1.48813
-1.48813
-1.48813
-1.48813
-1.48812
-1.48812
-1.48812
-1.48812
-1.48813
-1.48813
-1.48813
-1.48813
-1.48813
-1.48814
-1.48814
-1.48814
-1.48814
-1.48814
-1.48814
-1.48814
-1.48813
-1.48813
-1.48812
-1.48811
-1.4881
-1.48808
-1.48787
-1.48787
-1.48788
-1.48787
-1.48786
-1.48768
-1.48811
3.69611
3.66369
2.84878
1.70483
0.0554979
-1.20052
-1.47557
-1.50769
-1.51046
-1.51074
-1.51001
-1.50998
-1.51037
-1.5104
-1.5104
-1.51042
-1.51042
-1.51043
-1.51043
-1.51044
-1.51044
-1.51044
-1.51045
-1.51045
-1.51045
-1.51045
-1.51045
-1.51045
-1.51045
-1.51045
-1.51045
-1.51045
-1.51045
-1.51045
-1.51045
-1.51045
-1.51045
-1.51045
-1.51044
-1.51044
-1.51043
-1.51043
-1.51042
-1.51042
-1.51042
-1.51042
-1.51041
-1.51041
-1.51041
-1.51041
3.44073
3.43097
2.82308
1.68555
0.177822
-1.20944
-1.50249
-1.53111
-1.53292
-1.53304
-1.53299
-1.53299
-1.53298
-1.53302
-1.53299
-1.53299
-1.533
-1.53298
-1.53293
-1.53299
-1.53298
-1.53297
-1.53297
-1.53297
-1.53296
-1.53296
-1.53296
-1.53295
-1.53295
-1.53294
-1.53294
-1.53293
-1.53293
-1.53292
-1.53292
-1.53291
-1.53291
-1.5329
-1.5329
-1.53289
-1.53289
-1.53288
-1.53288
-1.53287
-1.53287
-1.53286
-1.53286
-1.53285
-1.53285
-1.53284
0.692585
-0.0509374
-0.488725
-0.87938
-1.19252
-1.45892
-1.54595
-1.55498
-1.55526
-1.55526
-1.55526
-1.55526
-1.55518
-1.55518
-1.55525
-1.55525
-1.55522
-1.55523
-1.55506
-1.55519
-1.5552
-1.55524
-1.55524
-1.55524
-1.55523
-1.55523
-1.55523
-1.55523
-1.55522
-1.55522
-1.55522
-1.55521
-1.55521
-1.55521
-1.55521
-1.5552
-1.5552
-1.5552
-1.5552
-1.55519
-1.55519
-1.55519
-1.55519
-1.55519
-1.55518
-1.55518
-1.55518
-1.55518
-1.55518
-1.55518
-2.06699
-2.01828
-1.80594
-1.65454
-1.58372
-1.57856
-1.57775
-1.5777
-1.57775
-1.57777
-1.57777
-1.57776
-1.57775
-1.57775
-1.57776
-1.57776
-1.57776
-1.57776
-1.57775
-1.57775
-1.57775
-1.57774
-1.57774
-1.57774
-1.57773
-1.57773
-1.57772
-1.57772
-1.57772
-1.57771
-1.57771
-1.57771
-1.5777
-1.5777
-1.57769
-1.57769
-1.57769
-1.57768
-1.57768
-1.57767
-1.57767
-1.57767
-1.57766
-1.57766
-1.57765
-1.57765
-1.57765
-1.57764
-1.57764
-1.57764
-2.62364
-2.00222
-1.70605
-1.60598
-1.59821
-1.60025
-1.60013
-1.60012
-1.60013
-1.60012
-1.60011
-1.6001
-1.60008
-1.60007
-1.60006
-1.60005
-1.60005
-1.60004
-1.60003
-1.60002
-1.60002
-1.60001
-1.60001
-1.6
-1.59999
-1.59999
-1.59998
-1.59998
-1.59997
-1.59997
-1.59996
-1.59996
-1.59996
-1.59995
-1.59995
-1.59994
-1.59994
-1.59994
-1.59993
-1.59993
-1.59993
-1.59993
-1.59992
-1.59992
-1.59992
-1.59992
-1.59991
-1.59991
-1.59991
-1.59991
-1.61598
-1.59143
-1.62448
-1.62277
-1.62275
-1.6228
-1.6228
-1.62278
-1.62276
-1.62275
-1.62273
-1.62272
-1.62271
-1.62269
-1.62268
-1.62267
-1.62266
-1.62264
-1.62263
-1.62262
-1.62261
-1.6226
-1.62258
-1.62257
-1.62256
-1.62255
-1.62254
-1.62253
-1.62252
-1.62251
-1.6225
-1.62249
-1.62248
-1.62247
-1.62246
-1.62245
-1.62244
-1.62244
-1.62243
-1.62242
-1.62242
-1.62241
-1.62241
-1.6224
-1.6224
-1.62239
-1.62239
-1.62239
-1.62238
-1.62238
-1.64548
-1.64439
-1.64448
-1.64476
-1.64473
-1.64471
-1.64471
-1.64472
-1.64473
-1.64473
-1.64473
-1.64473
-1.64473
-1.64473
-1.64473
-1.64474
-1.64475
-1.64475
-1.64475
-1.64475
-1.64475
-1.64474
-1.64472
-1.64471
-1.64469
-1.64468
-1.64466
-1.64465
-1.64464
-1.64463
-1.64462
-1.64461
-1.64461
-1.6446
-1.64459
-1.64459
-1.64458
-1.64458
-1.64458
-1.64457
-1.64457
-1.64457
-1.64457
-1.64456
-1.64456
-1.64456
-1.64456
-1.64456
-1.64456
-1.64456
-1.66648
-1.66659
-1.66657
-1.6666
-1.66663
-1.66665
-1.6662
-1.66668
-1.6667
-1.66669
-1.66662
-1.66665
-1.66663
-1.6667
-1.66666
-1.66663
-1.66708
-1.66706
-1.66719
-1.66722
-1.66727
-1.66727
-1.66729
-1.6673
-1.66728
-1.66726
-1.66723
-1.66721
-1.66719
-1.66718
-1.66716
-1.66714
-1.66713
-1.66712
-1.66711
-1.6671
-1.66709
-1.66708
-1.66707
-1.66707
-1.66706
-1.66706
-1.66705
-1.66705
-1.66705
-1.66704
-1.66704
-1.66704
-1.66704
-1.66704
-1.68846
-1.68858
-1.68869
-1.68882
-1.68894
-1.68906
-1.68918
-1.68929
-1.68922
-1.68885
-1.6893
-1.68939
-1.68949
-1.68958
-1.68968
-1.68977
-1.68987
-1.68997
-1.69007
-1.69013
-1.6871
-1.68725
-1.68749
-1.68762
-1.68773
-1.68788
-1.68801
-1.68809
-1.68816
-1.6882
-1.68829
-1.68836
-1.68842
-1.68848
-1.68853
-1.68858
-1.68863
-1.68867
-1.68871
-1.68875
-1.68879
-1.68882
-1.68885
-1.68888
-1.68891
-1.68893
-1.68895
-1.68898
-1.689
-1.68901
-1.7116
-1.71174
-1.7119
-1.71203
-1.71214
-1.71223
-1.71231
-1.71237
-1.71242
-1.71245
-1.71248
-1.71249
-1.71249
-1.71248
-1.71248
-1.71247
-1.71246
-1.71244
-1.71237
-1.71232
-1.71233
-1.7123
-1.71228
-1.71227
-1.71225
-1.71223
-1.7122
-1.71217
-1.71214
-1.71211
-1.71209
-1.71206
-1.71204
-1.71202
-1.712
-1.71198
-1.71196
-1.71195
-1.71193
-1.71192
-1.71191
-1.7119
-1.71189
-1.71188
-1.71187
-1.71187
-1.71186
-1.71186
-1.71185
-1.71185
-1.73442
-1.73462
-1.73478
-1.7349
-1.73501
-1.73508
-1.73514
-1.73518
-1.7352
-1.7352
-1.73519
-1.73518
-1.73516
-1.73514
-1.73511
-1.73508
-1.73505
-1.73502
-1.73499
-1.73496
-1.73493
-1.73489
-1.73484
-1.7348
-1.73476
-1.73472
-1.73468
-1.73464
-1.73461
-1.73457
-1.73454
-1.73451
-1.73448
-1.73446
-1.73444
-1.73441
-1.73439
-1.73437
-1.73436
-1.73434
-1.73432
-1.73431
-1.7343
-1.73428
-1.73427
-1.73426
-1.73425
-1.73425
-1.73424
-1.73423
-1.75777
-1.75829
-1.7585
-1.75848
-1.75843
-1.75838
-1.75834
-1.75829
-1.75824
-1.75818
-1.75813
-1.75807
-1.75801
-1.75795
-1.7579
-1.75784
-1.75779
-1.75773
-1.75768
-1.75763
-1.75758
-1.75753
-1.75749
-1.75744
-1.7574
-1.75736
-1.75732
-1.75728
-1.75725
-1.75721
-1.75718
-1.75715
-1.75712
-1.75709
-1.75706
-1.75704
-1.75701
-1.75699
-1.75697
-1.75695
-1.75693
-1.75691
-1.75689
-1.75688
-1.75686
-1.75685
-1.75683
-1.75682
-1.75681
-1.7568
-1.78723
-1.77756
-1.77944
-1.78038
-1.78036
-1.78022
-1.7802
-1.78015
-1.7801
-1.78
-1.78001
-1.78
-1.77995
-1.78001
-1.77997
-1.77993
-1.77989
-1.77985
-1.77981
-1.77978
-1.77975
-1.77971
-1.77968
-1.77965
-1.77962
-1.77959
-1.77956
-1.77953
-1.7795
-1.77948
-1.77945
-1.77943
-1.7794
-1.77938
-1.77936
-1.77934
-1.77932
-1.7793
-1.77928
-1.77926
-1.77925
-1.77923
-1.77921
-1.7792
-1.77919
-1.77917
-1.77916
-1.77915
-1.77914
-1.77913
-1.35418
-1.35419
-1.35419
-1.3542
-1.35421
-1.35421
-1.35421
-1.35416
-1.35419
-1.35419
-1.35419
-1.3542
-1.3542
-1.35421
-1.35421
-1.35421
-1.35421
-1.35422
-1.35422
-1.35423
-1.35423
-1.35424
-1.35425
-1.35425
-1.35426
-1.35427
-1.35427
-1.35428
-1.35429
-1.3543
-1.35431
-1.35432
-1.35433
-1.35434
-1.35435
-1.35437
-1.35437
-1.35437
-1.35438
-1.3532
-1.35453
-1.35454
-1.35455
-1.35456
-1.35457
-1.35457
-1.35457
-1.35457
-1.35457
-1.35445
-1.35455
-1.35554
-1.35539
-1.3554
-1.35481
-1.35521
-1.35522
-1.35522
-1.35522
-1.35522
-1.35523
-1.35523
-1.35523
-1.35524
-1.35524
-1.35524
-1.35509
-1.35521
-1.35521
-1.35521
-1.3552
-1.3552
-1.3552
-1.35519
-1.35519
-1.35519
-1.35518
-1.35518
-1.35517
-1.35517
-1.35516
-1.35515
-1.35514
-1.35513
-1.35511
-1.3551
-1.35508
-1.35506
-1.35504
-1.35501
-1.35499
-1.35496
-1.35493
-1.35451
-1.3548
-1.35588
-1.35585
-1.35583
-1.35582
-1.35581
-1.35492
-1.35517
-1.35518
-1.35518
-1.3552
-1.35522
-1.35524
-1.35526
-1.35529
-1.35532
-1.35535
-1.35425
-1.35469
-1.35484
-1.3546
-1.35479
-1.35467
-1.35478
-1.35481
-1.35484
-1.35486
-1.35488
-1.3546
-1.35466
-1.35491
-1.35493
-1.35494
-1.35496
-1.35497
-1.35499
-1.35501
-1.35503
-1.35505
-1.35507
-1.35509
-1.35511
-1.35514
-1.35488
-1.35513
-1.35515
-1.35515
-1.35493
-1.35511
-1.35515
-1.35518
-1.35522
-1.35526
-1.35529
-1.35533
-1.35542
-1.35337
-1.35426
-1.35466
-1.35467
-1.3547
-1.35488
-1.35487
-1.35473
-1.35527
-1.35528
-1.35524
-1.35526
-1.35531
-1.35532
-1.35523
-1.35543
-1.35547
-1.35546
-1.35545
-1.35542
-1.3554
-1.35541
-1.35544
-1.35515
-1.35517
-1.35499
-1.3548
-1.35475
-1.35475
-1.3547
-1.35359
-1.3546
-1.35461
-1.3546
-1.3546
-1.35461
-1.35463
-1.35131
-1.35366
-1.35367
-1.35354
-1.35365
-1.35369
-1.35335
-1.35344
-1.35351
-1.35355
-1.35357
-1.35359
-1.3536
-1.35361
-1.35362
-1.35363
-1.3536
-1.35358
-1.35358
-1.35359
-1.35359
-1.3536
-1.3536
-1.3536
-1.35361
-1.35361
-1.35362
-1.35362
-1.35363
-1.35364
-1.35365
-1.35366
-1.35367
-1.35368
-1.35369
-1.3537
-1.35371
-1.35372
-1.35373
-1.35374
-1.35376
-1.35377
-1.35378
-1.3538
-1.35381
-1.35383
-1.35384
-1.35386
-1.35387
-1.35389
-1.3539
-1.35391
-1.35391
-1.35392
-1.35392
-1.35392
-1.35391
-1.35391
-1.3539
-1.35389
-1.35388
-1.35388
-1.35387
-1.35386
-1.35386
-1.35385
-1.35384
-1.35384
-1.35383
-1.35383
-1.35383
-1.35382
-1.35382
-1.35382
-1.35382
-1.35382
-1.35382
-1.35382
-1.35382
-1.35382
-1.35382
-1.35382
-1.35382
-1.35383
-1.35383
-1.35383
-1.35383
-1.35383
-1.35384
-1.35384
-1.35384
-1.35385
-1.35385
-1.35385
-1.35386
-1.35386
-1.35386
-1.35387
-1.35387
-1.35387
-1.35388
-1.35388
-1.35388
-1.35389
-1.35389
-1.35389
-1.3539
-1.3539
-1.3539
-1.35391
-1.35391
-1.35391
-1.35392
-1.37686
-1.37688
-1.37689
-1.37691
-1.37693
-1.37695
-1.37697
-1.377
-1.37706
-1.37577
-1.37585
-1.3759
-1.37592
-1.37594
-1.37596
-1.37598
-1.376
-1.37601
-1.37603
-1.37604
-1.37606
-1.37607
-1.37608
-1.37609
-1.3761
-1.37611
-1.37611
-1.37612
-1.37613
-1.37614
-1.37615
-1.37616
-1.37617
-1.37618
-1.3762
-1.37621
-1.37623
-1.37624
-1.37625
-1.37627
-1.37628
-1.3763
-1.37632
-1.37634
-1.37636
-1.37639
-1.37625
-1.37636
-1.37632
-1.37639
-1.37646
-1.37647
-1.37649
-1.37752
-1.37753
-1.37754
-1.37755
-1.37755
-1.37755
-1.37756
-1.37756
-1.37755
-1.37755
-1.37755
-1.37754
-1.37753
-1.37752
-1.37751
-1.37749
-1.37748
-1.37747
-1.37745
-1.37742
-1.37706
-1.37724
-1.37722
-1.37722
-1.3772
-1.3772
-1.37718
-1.37716
-1.37714
-1.37711
-1.37709
-1.37707
-1.37677
-1.37681
-1.3769
-1.37687
-1.37684
-1.37681
-1.37678
-1.37675
-1.3767
-1.37662
-1.37787
-1.37785
-1.37783
-1.37782
-1.37781
-1.37682
-1.37717
-1.37719
-1.37718
-1.37718
-1.37717
-1.37715
-1.37717
-1.37717
-1.37716
-1.37717
-1.37659
-1.37701
-1.37701
-1.37697
-1.37712
-1.37697
-1.37718
-1.37718
-1.37718
-1.37719
-1.37719
-1.37719
-1.37719
-1.37719
-1.3772
-1.3772
-1.37721
-1.37722
-1.37722
-1.37723
-1.37724
-1.37724
-1.37725
-1.37726
-1.37726
-1.37727
-1.37718
-1.37728
-1.37728
-1.37731
-1.37731
-1.37722
-1.37732
-1.37729
-1.37731
-1.3773
-1.37733
-1.37734
-1.37704
-1.37697
-1.3778
-1.37779
-1.37765
-1.37773
-1.37822
-1.37718
-1.37773
-1.37775
-1.37775
-1.37777
-1.37779
-1.37782
-1.37784
-1.37788
-1.37793
-1.37799
-1.3776
-1.37764
-1.3777
-1.3776
-1.3777
-1.37773
-1.37776
-1.37778
-1.37801
-1.37362
-1.37615
-1.37625
-1.37616
-1.37619
-1.37616
-1.37615
-1.37608
-1.37603
-1.37596
-1.37586
-1.37568
-1.3756
-1.37653
-1.37653
-1.37649
-1.37644
-1.37642
-1.37641
-1.37642
-1.37643
-1.37644
-1.37648
-1.37652
-1.37656
-1.37645
-1.37455
-1.37475
-1.37526
-1.37544
-1.37551
-1.37558
-1.37564
-1.37569
-1.37573
-1.37577
-1.3758
-1.37583
-1.37586
-1.37589
-1.37591
-1.37593
-1.37595
-1.37596
-1.37598
-1.376
-1.37601
-1.37603
-1.37604
-1.37606
-1.37607
-1.37608
-1.37609
-1.37611
-1.37612
-1.37613
-1.37613
-1.37614
-1.37615
-1.37615
-1.37616
-1.37616
-1.37616
-1.37617
-1.37618
-1.37619
-1.37619
-1.37619
-1.37619
-1.37619
-1.37619
-1.37619
-1.37619
-1.37618
-1.37618
-1.37618
-1.37617
-1.37617
-1.37617
-1.37617
-1.37616
-1.37616
-1.37616
-1.37616
-1.37616
-1.37616
-1.37616
-1.37616
-1.37616
-1.37616
-1.37617
-1.37617
-1.37617
-1.37617
-1.37618
-1.37618
-1.37618
-1.37618
-1.37619
-1.37619
-1.37619
-1.3762
-1.3762
-1.3762
-1.37621
-1.37621
-1.37621
-1.37622
-1.37622
-1.37623
-1.37623
-1.37623
-1.37624
-1.37624
-1.37624
-1.37625
-1.37625
-1.37626
-1.37626
-1.37626
-1.37627
-1.37627
-1.37627
-1.37628
-1.39823
-1.39822
-1.39822
-1.3982
-1.39817
-1.39816
-1.39816
-1.39817
-1.39818
-1.39816
-1.39814
-1.39814
-1.39814
-1.39814
-1.39813
-1.39812
-1.39812
-1.39811
-1.3981
-1.3981
-1.39809
-1.39808
-1.39807
-1.39807
-1.39806
-1.39805
-1.39804
-1.39803
-1.39802
-1.398
-1.39799
-1.39798
-1.39796
-1.39794
-1.39792
-1.39789
-1.39787
-1.39784
-1.3978
-1.39777
-1.39773
-1.39769
-1.39764
-1.39759
-1.39754
-1.39748
-1.39739
-1.39727
-1.39726
-1.39965
-1.39959
-1.39949
-1.39945
-1.39941
-1.39937
-1.39934
-1.39931
-1.39929
-1.39927
-1.39925
-1.39924
-1.39922
-1.39919
-1.39893
-1.39926
-1.39921
-1.39921
-1.3992
-1.39915
-1.39943
-1.39942
-1.39942
-1.39942
-1.39942
-1.39856
-1.39912
-1.39913
-1.39912
-1.39913
-1.39921
-1.39922
-1.39924
-1.39925
-1.39926
-1.39928
-1.3993
-1.39823
-1.39888
-1.39891
-1.3989
-1.39894
-1.39897
-1.399
-1.39743
-1.3989
-1.39892
-1.39896
-1.39902
-1.39904
-1.39891
-1.39906
-1.39907
-1.39908
-1.39908
-1.39899
-1.39895
-1.3991
-1.39911
-1.39911
-1.39911
-1.39912
-1.39911
-1.39911
-1.39912
-1.39912
-1.39912
-1.39911
-1.39911
-1.39911
-1.39911
-1.39911
-1.39911
-1.39911
-1.39911
-1.39911
-1.39911
-1.39911
-1.39911
-1.3991
-1.3991
-1.3991
-1.39909
-1.39909
-1.39908
-1.39907
-1.39906
-1.39905
-1.39904
-1.39903
-1.39902
-1.39899
-1.39902
-1.399
-1.39901
-1.399
-1.39898
-1.39887
-1.39867
-1.39941
-1.39948
-1.39942
-1.3994
-1.39939
-1.39941
-1.39941
-1.3994
-1.39938
-1.39938
-1.39934
-1.39936
-1.39933
-1.39929
-1.39925
-1.3992
-1.39915
-1.3991
-1.39903
-1.39896
-1.39889
-1.39882
-1.39873
-1.39857
-1.39823
-1.3977
-1.39743
-1.39891
-1.39936
-1.39952
-1.39957
-1.39958
-1.3996
-1.39963
-1.39967
-1.39972
-1.39977
-1.39983
-1.39995
-1.39664
-1.39864
-1.3988
-1.39846
-1.39851
-1.39856
-1.39859
-1.39861
-1.39863
-1.39864
-1.39864
-1.39862
-1.39859
-1.39855
-1.39558
-1.39676
-1.39887
-1.39883
-1.39875
-1.39904
-1.39794
-1.39845
-1.39848
-1.39847
-1.39846
-1.39843
-1.39841
-1.3984
-1.3984
-1.3984
-1.39841
-1.39841
-1.39842
-1.39843
-1.39844
-1.39846
-1.39847
-1.39849
-1.3985
-1.39852
-1.39854
-1.39856
-1.39859
-1.39862
-1.39866
-1.3987
-1.39876
-1.39882
-1.39891
-1.39903
-1.3992
-1.39939
-1.39941
-1.39935
-1.39927
-1.39918
-1.39908
-1.39899
-1.3989
-1.39882
-1.39875
-1.39869
-1.39864
-1.3986
-1.39857
-1.39855
-1.39852
-1.39851
-1.3985
-1.39849
-1.39848
-1.39848
-1.39847
-1.39847
-1.39848
-1.39848
-1.39848
-1.39848
-1.39849
-1.39849
-1.39849
-1.3985
-1.3985
-1.39851
-1.39851
-1.39852
-1.39852
-1.39853
-1.39853
-1.39854
-1.39854
-1.39855
-1.39855
-1.39856
-1.39856
-1.39857
-1.39857
-1.39858
-1.39858
-1.39858
-1.39859
-1.39859
-1.3986
-1.3986
-1.39861
-1.39861
-1.39861
-1.39862
-1.39862
-1.39863
-1.39863
-1.39863
-1.39864
-1.42093
-1.42094
-1.42091
-1.42089
-1.42094
-1.42093
-1.42092
-1.42091
-1.42097
-1.42097
-1.42096
-1.42095
-1.42095
-1.42095
-1.42094
-1.42094
-1.42094
-1.42094
-1.42095
-1.42095
-1.42096
-1.42097
-1.42097
-1.41953
-1.41952
-1.4197
-1.41971
-1.4197
-1.41971
-1.41972
-1.41972
-1.41972
-1.41972
-1.41971
-1.41971
-1.41969
-1.41967
-1.42076
-1.42077
-1.42051
-1.42053
-1.42085
-1.42086
-1.42088
-1.42091
-1.42093
-1.42092
-1.42092
-1.42094
-1.42098
-1.421
-1.42102
-1.42102
-1.42102
-1.42102
-1.42101
-1.421
-1.42098
-1.42097
-1.42094
-1.42092
-1.42089
-1.42084
-1.41994
-1.42196
-1.42193
-1.42191
-1.4219
-1.42188
-1.42186
-1.42183
-1.42182
-1.42181
-1.4218
-1.42117
-1.42137
-1.42138
-1.42138
-1.42137
-1.42137
-1.42138
-1.42138
-1.42139
-1.42139
-1.4214
-1.42141
-1.42065
-1.42115
-1.42117
-1.42118
-1.42119
-1.4212
-1.42121
-1.42123
-1.42124
-1.42125
-1.42126
-1.42127
-1.42129
-1.4213
-1.42131
-1.42132
-1.42133
-1.42135
-1.42136
-1.42137
-1.42139
-1.4214
-1.42142
-1.42143
-1.42145
-1.42146
-1.42148
-1.4215
-1.42151
-1.42153
-1.42155
-1.42157
-1.42159
-1.42161
-1.42163
-1.42165
-1.42167
-1.42169
-1.42171
-1.42173
-1.42176
-1.42178
-1.42181
-1.42183
-1.42186
-1.42189
-1.42192
-1.42196
-1.42199
-1.42203
-1.42206
-1.42206
-1.42219
-1.42223
-1.42228
-1.42235
-1.42241
-1.42246
-1.42156
-1.42164
-1.42173
-1.42171
-1.42174
-1.4217
-1.42157
-1.42163
-1.42161
-1.42113
-1.42156
-1.42163
-1.42147
-1.42085
-1.42137
-1.42141
-1.42146
-1.4215
-1.42152
-1.42156
-1.4216
-1.42165
-1.42168
-1.4217
-1.42174
-1.42177
-1.42179
-1.42181
-1.42183
-1.42187
-1.42194
-1.42192
-1.42192
-1.42192
-1.42191
-1.42188
-1.42186
-1.42182
-1.4218
-1.4218
-1.42158
-1.42153
-1.4217
-1.42163
-1.42151
-1.42145
-1.42139
-1.42134
-1.42128
-1.42121
-1.42115
-1.42114
-1.4211
-1.42103
-1.42147
-1.42147
-1.42149
-1.42159
-1.42157
-1.42153
-1.42154
-1.42149
-1.42146
-1.42101
-1.42055
-1.42108
-1.42099
-1.42087
-1.42083
-1.42081
-1.42081
-1.42084
-1.42081
-1.4209
-1.42091
-1.42093
-1.42094
-1.42095
-1.42096
-1.42097
-1.42098
-1.42101
-1.42103
-1.42106
-1.42109
-1.42111
-1.42113
-1.42116
-1.42118
-1.4212
-1.42122
-1.42124
-1.42127
-1.42135
-1.42151
-1.42133
-1.42124
-1.4212
-1.42118
-1.42114
-1.42109
-1.42104
-1.42099
-1.42095
-1.42092
-1.4209
-1.42088
-1.42086
-1.42085
-1.42084
-1.42084
-1.42084
-1.42084
-1.42084
-1.42084
-1.42084
-1.42084
-1.42084
-1.42085
-1.42085
-1.42085
-1.42086
-1.42086
-1.42087
-1.42087
-1.42087
-1.42088
-1.42088
-1.42089
-1.42089
-1.4209
-1.4209
-1.4209
-1.42091
-1.42091
-1.42092
-1.42092
-1.42093
-1.42093
-1.42093
-1.42094
-1.42094
-1.42095
-1.42095
-1.42095
-1.42096
-1.42096
-1.42097
-1.42097
-1.42097
-1.42098
-1.42098
-1.42099
-1.42099
-1.42099
-1.421
-1.44143
-1.44149
-1.4415
-1.44148
-1.44151
-1.44184
-1.44184
-1.44183
-1.44183
-1.44182
-1.44181
-1.4418
-1.44179
-1.44177
-1.44176
-1.44174
-1.44171
-1.44167
-1.44164
-1.44154
-1.4419
-1.44186
-1.44204
-1.44198
-1.4414
-1.44347
-1.44338
-1.44337
-1.44334
-1.4437
-1.4437
-1.4437
-1.44369
-1.44367
-1.44366
-1.44366
-1.44361
-1.44331
-1.44328
-1.44323
-1.44234
-1.44269
-1.4427
-1.44271
-1.44285
-1.44287
-1.44284
-1.44287
-1.44289
-1.4429
-1.44291
-1.44293
-1.44296
-1.44298
-1.443
-1.44302
-1.44304
-1.44306
-1.44309
-1.44311
-1.44314
-1.44316
-1.44252
-1.44267
-1.44274
-1.44277
-1.44285
-1.44292
-1.44294
-1.44296
-1.44292
-1.44319
-1.44321
-1.44323
-1.44324
-1.44325
-1.44326
-1.44328
-1.44329
-1.4433
-1.44331
-1.44332
-1.44333
-1.44334
-1.44335
-1.44335
-1.44336
-1.44336
-1.44337
-1.44337
-1.44338
-1.44339
-1.4434
-1.44341
-1.44341
-1.44342
-1.44343
-1.44343
-1.44344
-1.44345
-1.44346
-1.44346
-1.44347
-1.44348
-1.44349
-1.44349
-1.4435
-1.44351
-1.44352
-1.44353
-1.44353
-1.44354