/*--------------------------------*- C++ -*----------------------------------*\
| =========                 |                                                 |
| \\      /  F ield         | OpenFOAM: The Open Source CFD Toolbox           |
|  \\    /   O peration     | Version:  2.4.0                                 |
|   \\  /    A nd           | Web:      www.OpenFOAM.org                      |
|    \\/     M anipulation  |                                                 |
\*---------------------------------------------------------------------------*/
FoamFile
{
    version     2.0;
    format      ascii;
    class       surfaceScalarField;
    location    "1.7";
    object      phi;
}
// * * * * * * * * * * * * * * * * * * * * * * * * * * * * * * * * * * * * * //

dimensions      [0 3 -1 0 0 0 0];

internalField   nonuniform List<scalar> 
15580
(
4.36269e-13
-2.47541e-12
1.64687e-12
-7.05108e-12
3.54894e-12
-1.12884e-11
6.06378e-12
-1.52089e-11
9.11866e-12
-1.88201e-11
1.26337e-11
-2.21272e-11
1.65366e-11
-2.51354e-11
2.07436e-11
-2.78483e-11
2.51853e-11
-3.02692e-11
2.97851e-11
-3.24007e-11
3.44807e-11
-3.42442e-11
3.91763e-11
-3.5802e-11
4.37591e-11
-3.7075e-11
4.81919e-11
-3.80631e-11
5.24863e-11
-3.87607e-11
5.68417e-11
-3.9165e-11
6.17031e-11
-3.92683e-11
6.77724e-11
-3.90801e-11
7.61643e-11
-3.86016e-11
8.71077e-11
-3.78888e-11
1.0063e-10
-3.6985e-11
1.15527e-10
-3.58802e-11
1.31092e-10
-3.44832e-11
1.47142e-10
-3.26525e-11
1.63479e-10
-3.02302e-11
1.78076e-10
-2.69496e-11
1.91687e-10
-2.24542e-11
2.12548e-10
-1.7946e-11
2.10214e-10
-1.24021e-11
2.64516e-10
-7.67581e-12
3.8933e-10
-1.99098e-12
5.62157e-10
5.76017e-12
7.60605e-10
1.19671e-11
8.67209e-10
2.66085e-11
9.20335e-10
-1.1197e-11
9.26258e-10
3.99256e-11
9.43284e-10
9.63569e-11
1.06649e-09
8.61376e-11
1.18829e-09
7.69311e-11
1.31323e-09
7.93015e-11
1.429e-09
1.01366e-10
1.52722e-09
1.19395e-10
1.62351e-09
1.12961e-10
1.73378e-09
8.75137e-11
1.8448e-09
7.42337e-11
1.939e-09
8.28849e-11
2.01686e-09
9.54641e-11
2.09158e-09
9.64884e-11
2.16398e-09
9.66514e-11
9.86465e-11
2.23105e-09
-1.09755e-13
-2.36566e-12
-3.18555e-13
-6.84228e-12
-5.65255e-13
-1.10417e-11
-8.19337e-13
-1.49548e-11
-1.05525e-12
-1.85842e-11
-1.24992e-12
-2.19325e-11
-1.38379e-12
-2.50015e-11
-1.43834e-12
-2.77938e-11
-1.39726e-12
-3.03103e-11
-1.24447e-12
-3.25535e-11
-9.64886e-13
-3.45238e-11
-5.439e-13
-3.6223e-11
3.2315e-14
-3.76512e-11
7.78749e-13
-3.88095e-11
1.71521e-12
-3.96972e-11
2.86516e-12
-4.0315e-11
4.25977e-12
-4.06629e-11
5.92204e-12
-4.07424e-11
7.87614e-12
-4.05557e-11
1.0092e-11
-4.01046e-11
1.25018e-11
-3.93949e-11
1.50472e-11
-3.84255e-11
1.77638e-11
-3.71999e-11
2.08234e-11
-3.57121e-11
2.45626e-11
-3.39695e-11
2.9578e-11
-3.19649e-11
3.68445e-11
-2.97207e-11
4.61506e-11
-2.72522e-11
5.83571e-11
-2.46095e-11
7.23488e-11
-2.16708e-11
8.87453e-11
-1.83977e-11
1.0814e-10
-1.49259e-11
1.22609e-10
-1.11533e-11
1.37392e-10
-7.74394e-12
1.28694e-10
-3.38523e-12
1.67219e-10
1.20191e-12
2.57006e-10
6.34886e-12
3.20683e-10
2.24602e-11
4.04215e-10
-6.60016e-12
4.28491e-10
5.50254e-11
4.35868e-10
9.39889e-11
4.64103e-10
9.11589e-11
5.41735e-10
3.53295e-11
6.13922e-10
1.53265e-11
6.45603e-10
4.25526e-11
6.55776e-10
7.27123e-11
6.859e-10
6.53395e-11
7.39612e-10
4.27764e-11
8.01172e-10
3.50922e-11
3.45187e-11
8.65299e-10
-8.92385e-14
-2.27642e-12
-3.86704e-13
-6.54481e-12
-8.77205e-13
-1.05512e-11
-1.52465e-12
-1.43074e-11
-2.2931e-12
-1.78157e-11
-3.1472e-12
-2.10784e-11
-4.05095e-12
-2.40978e-11
-4.96878e-12
-2.68759e-11
-5.86398e-12
-2.94151e-11
-6.70011e-12
-3.17173e-11
-7.43915e-12
-3.37847e-11
-8.04301e-12
-3.56192e-11
-8.47158e-12
-3.72227e-11
-8.68417e-12
-3.85969e-11
-8.63732e-12
-3.9744e-11
-8.28684e-12
-4.06655e-11
-7.58635e-12
-4.13634e-11
-6.4893e-12
-4.18395e-11
-4.94916e-12
-4.20958e-11
-2.91976e-12
-4.2134e-11
-3.57993e-13
-4.19567e-11
2.78117e-12
-4.15647e-11
6.54262e-12
-4.09613e-11
1.09773e-11
-4.01467e-11
1.61339e-11
-3.91261e-11
2.20681e-11
-3.78991e-11
2.88225e-11
-3.64751e-11
3.64225e-11
-3.48522e-11
4.486e-11
-3.30471e-11
5.4241e-11
-3.10518e-11
6.47337e-11
-2.88904e-11
7.6357e-11
-2.65492e-11
8.92701e-11
-2.40665e-11
1.02927e-10
-2.14011e-11
1.18113e-10
-1.85714e-11
1.34837e-10
-1.55435e-11
1.50324e-10
-1.2329e-11
1.63891e-10
-9.60015e-12
1.62318e-10
-5.80944e-12
2.19257e-10
-2.12504e-12
3.11837e-10
1.3024e-12
3.92477e-10
1.05186e-11
4.30316e-10
-2.50956e-12
4.3451e-10
1.11328e-11
4.12923e-10
6.414e-11
4.2991e-10
5.57253e-11
4.83522e-10
1.17276e-11
5.12345e-10
1.39527e-11
5.27439e-10
1.99982e-11
1.11735e-11
5.50785e-10
-2.75348e-13
-2.00107e-12
-1.00773e-12
-5.81243e-12
-2.13466e-12
-9.42424e-12
-3.6087e-12
-1.28333e-11
-5.38272e-12
-1.60417e-11
-7.40977e-12
-1.90514e-11
-9.6434e-12
-2.18642e-11
-1.20373e-11
-2.4482e-11
-1.45457e-11
-2.69067e-11
-1.71229e-11
-2.91402e-11
-1.97235e-11
-3.11841e-11
-2.23024e-11
-3.30403e-11
-2.48146e-11
-3.47105e-11
-2.72151e-11
-3.61965e-11
-2.94593e-11
-3.74998e-11
-3.15024e-11
-3.86224e-11
-3.33001e-11
-3.95657e-11
-3.48078e-11
-4.03318e-11
-3.59817e-11
-4.09219e-11
-3.67777e-11
-4.13381e-11
-3.71526e-11
-4.15817e-11
-3.70625e-11
-4.16548e-11
-3.64653e-11
-4.15586e-11
-3.53169e-11
-4.12951e-11
-3.35776e-11
-4.08653e-11
-3.12051e-11
-4.02716e-11
-2.81658e-11
-3.95145e-11
-2.44216e-11
-3.85963e-11
-1.99513e-11
-3.75175e-11
-1.47229e-11
-3.62802e-11
-8.72893e-12
-3.48844e-11
-1.94597e-12
-3.33321e-11
5.6114e-12
-3.16238e-11
1.39708e-11
-2.97605e-11
2.31429e-11
-2.77435e-11
3.31698e-11
-2.55704e-11
4.40847e-11
-2.32438e-11
5.52375e-11
-2.0753e-11
6.7501e-11
-1.80728e-11
8.06762e-11
-1.52924e-11
9.34129e-11
-1.22428e-11
1.03074e-10
-9.57224e-12
1.06396e-10
-6.19388e-12
1.19871e-10
-2.42024e-12
1.81147e-10
2.83084e-12
2.31482e-10
5.38998e-12
2.52287e-10
-9.0773e-12
2.56657e-10
9.58207e-12
2.69708e-10
6.94784e-12
-7.38875e-12
2.8827e-10
-3.21251e-13
-1.67982e-12
-1.25115e-12
-4.88253e-12
-2.74009e-12
-7.9353e-12
-4.73197e-12
-1.08414e-11
-7.1727e-12
-1.3601e-11
-1.00101e-11
-1.6214e-11
-1.31935e-11
-1.86807e-11
-1.66741e-11
-2.10015e-11
-2.04041e-11
-2.31767e-11
-2.43372e-11
-2.5207e-11
-2.84284e-11
-2.70929e-11
-3.26335e-11
-2.88351e-11
-3.69095e-11
-3.04345e-11
-4.12141e-11
-3.18919e-11
-4.55057e-11
-3.32082e-11
-4.97435e-11
-3.43845e-11
-5.38873e-11
-3.5422e-11
-5.78973e-11
-3.63218e-11
-6.17341e-11
-3.70851e-11
-6.53586e-11
-3.77136e-11
-6.87319e-11
-3.82084e-11
-7.18153e-11
-3.85714e-11
-7.45701e-11
-3.88038e-11
-7.69575e-11
-3.89078e-11
-7.89382e-11
-3.88846e-11
-8.04729e-11
-3.87369e-11
-8.15216e-11
-3.84658e-11
-8.20435e-11
-3.80745e-11
-8.19973e-11
-3.75636e-11
-8.134e-11
-3.69375e-11
-8.00283e-11
-3.61961e-11
-7.80155e-11
-3.53449e-11
-7.52562e-11
-3.43831e-11
-7.16988e-11
-3.33179e-11
-6.72955e-11
-3.21469e-11
-6.19858e-11
-3.08801e-11
-5.5717e-11
-2.95126e-11
-4.84114e-11
-2.80586e-11
-3.99741e-11
-2.651e-11
-3.03806e-11
-2.4886e-11
-1.94509e-11
-2.31725e-11
-7.63183e-12
-2.13913e-11
5.66728e-12
-1.94931e-11
2.08499e-11
-1.75991e-11
3.87976e-11
-1.60483e-11
5.73245e-11
-1.48979e-11
6.11826e-11
-1.31336e-11
8.22728e-11
-1.15978e-11
1.032e-10
-1.39795e-11
-1.81475e-11
1.13959e-10
-3.35609e-13
-1.34421e-12
-1.27097e-12
-3.94717e-12
-2.74959e-12
-6.45668e-12
-4.72298e-12
-8.86805e-12
-7.14407e-12
-1.11799e-11
-9.96711e-12
-1.3391e-11
-1.31477e-11
-1.55002e-11
-1.66424e-11
-1.75067e-11
-2.04091e-11
-1.941e-11
-2.44067e-11
-2.12094e-11
-2.85948e-11
-2.29048e-11
-3.2934e-11
-2.44959e-11
-3.73856e-11
-2.59829e-11
-4.19117e-11
-2.73658e-11
-4.6475e-11
-2.86449e-11
-5.10386e-11
-2.98209e-11
-5.55663e-11
-3.08943e-11
-6.00222e-11
-3.18659e-11
-6.43706e-11
-3.27367e-11
-6.85764e-11
-3.35078e-11
-7.26043e-11
-3.41805e-11
-7.64194e-11
-3.47563e-11
-7.99864e-11
-3.52367e-11
-8.32705e-11
-3.56237e-11
-8.6236e-11
-3.59191e-11
-8.88476e-11
-3.61253e-11
-9.10688e-11
-3.62446e-11
-9.28634e-11
-3.62798e-11
-9.41935e-11
-3.62336e-11
-9.50217e-11
-3.61092e-11
-9.53077e-11
-3.59101e-11
-9.50127e-11
-3.564e-11
-9.40929e-11
-3.53029e-11
-9.25076e-11
-3.49032e-11
-9.02088e-11
-3.44456e-11
-8.71534e-11
-3.39356e-11
-8.32878e-11
-3.33782e-11
-7.85661e-11
-3.27804e-11
-7.29285e-11
-3.21476e-11
-6.63259e-11
-3.14886e-11
-5.86894e-11
-3.0809e-11
-4.99608e-11
-3.01199e-11
-4.00269e-11
-2.9427e-11
-2.88793e-11
-2.87467e-11
-1.68443e-11
-2.80833e-11
-4.32018e-12
-2.74223e-11
9.42415e-12
-2.68836e-11
2.42478e-11
-2.67064e-11
3.39357e-11
-2.65191e-11
-2.70192e-11
4.26029e-11
-2.44553e-13
-1.09966e-12
-9.52356e-13
-3.23936e-12
-2.09147e-12
-5.31756e-12
-3.62714e-12
-7.33239e-12
-5.5248e-12
-9.28223e-12
-7.75017e-12
-1.11656e-11
-1.02692e-11
-1.29811e-11
-1.30482e-11
-1.47277e-11
-1.60538e-11
-1.64044e-11
-1.92528e-11
-1.80104e-11
-2.26126e-11
-1.95451e-11
-2.61006e-11
-2.1008e-11
-2.96847e-11
-2.23987e-11
-3.33331e-11
-2.37173e-11
-3.70145e-11
-2.49636e-11
-4.06975e-11
-2.61379e-11
-4.43514e-11
-2.72404e-11
-4.79456e-11
-2.82716e-11
-5.14501e-11
-2.92322e-11
-5.48349e-11
-3.0123e-11
-5.80707e-11
-3.09447e-11
-6.11282e-11
-3.16987e-11
-6.39789e-11
-3.2386e-11
-6.65944e-11
-3.30082e-11
-6.89469e-11
-3.35666e-11
-7.10091e-11
-3.40631e-11
-7.27543e-11
-3.44995e-11
-7.41562e-11
-3.48778e-11
-7.51895e-11
-3.52002e-11
-7.58296e-11
-3.54691e-11
-7.60529e-11
-3.56868e-11
-7.58366e-11
-3.58563e-11
-7.51596e-11
-3.59799e-11
-7.40018e-11
-3.6061e-11
-7.23451e-11
-3.61023e-11
-7.0173e-11
-3.61076e-11
-6.74717e-11
-3.60795e-11
-6.42296e-11
-3.60224e-11
-6.04381e-11
-3.5939e-11
-5.60926e-11
-3.58342e-11
-5.11912e-11
-3.57104e-11
-4.57378e-11
-3.55733e-11
-3.974e-11
-3.54249e-11
-3.32151e-11
-3.52716e-11
-2.6184e-11
-3.51143e-11
-1.86453e-11
-3.4961e-11
-1.07187e-11
-3.48103e-11
-2.75258e-12
-3.46725e-11
5.31897e-12
-3.45918e-11
-3.4534e-11
1.2631e-11
-1.81217e-13
-9.1844e-13
-7.05719e-13
-2.71486e-12
-1.55163e-12
-4.47165e-12
-2.69565e-12
-6.18837e-12
-4.11428e-12
-7.86361e-12
-5.78386e-12
-9.49601e-12
-7.68065e-12
-1.10843e-11
-9.78091e-12
-1.26275e-11
-1.20609e-11
-1.41244e-11
-1.44969e-11
-1.55744e-11
-1.70654e-11
-1.69766e-11
-1.97428e-11
-1.83305e-11
-2.2506e-11
-1.96356e-11
-2.53318e-11
-2.08915e-11
-2.81972e-11
-2.20982e-11
-3.10796e-11
-2.32555e-11
-3.39566e-11
-2.43634e-11
-3.68059e-11
-2.54223e-11
-3.96058e-11
-2.64324e-11
-4.23346e-11
-2.73942e-11
-4.49711e-11
-2.83083e-11
-4.74944e-11
-2.91754e-11
-4.98841e-11
-2.99963e-11
-5.21201e-11
-3.07722e-11
-5.41827e-11
-3.1504e-11
-5.60528e-11
-3.2193e-11
-5.77118e-11
-3.28405e-11
-5.91418e-11
-3.34479e-11
-6.03252e-11
-3.40168e-11
-6.12454e-11
-3.45489e-11
-6.18863e-11
-3.50459e-11
-6.22329e-11
-3.55097e-11
-6.22708e-11
-3.5942e-11
-6.1987e-11
-3.63449e-11
-6.13691e-11
-3.67203e-11
-6.04064e-11
-3.70703e-11
-5.90891e-11
-3.73968e-11
-5.74094e-11
-3.77021e-11
-5.53608e-11
-3.79877e-11
-5.2939e-11
-3.8256e-11
-5.01412e-11
-3.85082e-11
-4.69677e-11
-3.87467e-11
-4.34206e-11
-3.8972e-11
-3.95057e-11
-3.91865e-11
-3.52305e-11
-3.93895e-11
-3.06077e-11
-3.95838e-11
-2.56518e-11
-3.97662e-11
-2.03812e-11
-3.99431e-11
-1.48685e-11
-4.01045e-11
-4.02534e-11
-9.14915e-12
-1.48389e-13
-7.70051e-13
-5.62345e-13
-2.30091e-12
-1.21874e-12
-3.81525e-12
-2.09868e-12
-5.30843e-12
-3.18389e-12
-6.7784e-12
-4.45664e-12
-8.22326e-12
-5.89968e-12
-9.64129e-12
-7.49621e-12
-1.10309e-11
-9.22981e-12
-1.23908e-11
-1.10844e-11
-1.37198e-11
-1.30444e-11
-1.50166e-11
-1.50943e-11
-1.62806e-11
-1.72191e-11
-1.75108e-11
-1.94041e-11
-1.87066e-11
-2.16348e-11
-1.98675e-11
-2.3897e-11
-2.09932e-11
-2.6177e-11
-2.20835e-11
-2.84611e-11
-2.31382e-11
-3.07362e-11
-2.41573e-11
-3.29892e-11
-2.51411e-11
-3.52077e-11
-2.60898e-11
-3.73794e-11
-2.70037e-11
-3.94921e-11
-2.78836e-11
-4.15343e-11
-2.873e-11
-4.34947e-11
-2.95437e-11
-4.5362e-11
-3.03256e-11
-4.71256e-11
-3.10768e-11
-4.8775e-11
-3.17986e-11
-5.02997e-11
-3.24921e-11
-5.16898e-11
-3.31588e-11
-5.29353e-11
-3.38004e-11
-5.40264e-11
-3.44186e-11
-5.49531e-11
-3.50152e-11
-5.57057e-11
-3.55923e-11
-5.62739e-11
-3.6152e-11
-5.66475e-11
-3.66967e-11
-5.68155e-11
-3.72288e-11
-5.67665e-11
-3.7751e-11
-5.64883e-11
-3.82659e-11
-5.59674e-11
-3.87768e-11
-5.51892e-11
-3.92864e-11
-5.41374e-11
-3.97985e-11
-5.27935e-11
-4.03159e-11
-5.1137e-11
-4.08429e-11
-4.91439e-11
-4.13826e-11
-4.67882e-11
-4.19395e-11
-4.40367e-11
-4.25177e-11
-4.08577e-11
-4.31221e-11
-3.72008e-11
-4.37614e-11
-4.42162e-11
-3.32381e-11
-3.92389e-14
-7.30813e-13
-1.63365e-13
-2.17678e-12
-3.71588e-13
-3.60703e-12
-6.59357e-13
-5.02066e-12
-1.02156e-12
-6.41619e-12
-1.45259e-12
-7.79223e-12
-1.94637e-12
-9.14752e-12
-2.49642e-12
-1.04809e-11
-3.09596e-12
-1.17913e-11
-3.73787e-12
-1.30779e-11
-4.41481e-12
-1.43397e-11
-5.11924e-12
-1.55761e-11
-5.84347e-12
-1.67865e-11
-6.57967e-12
-1.79704e-11
-7.31997e-12
-1.91272e-11
-8.05643e-12
-2.02568e-11
-8.78114e-12
-2.13588e-11
-9.48619e-12
-2.24331e-11
-1.01638e-11
-2.34797e-11
-1.08061e-11
-2.44987e-11
-1.14057e-11
-2.54902e-11
-1.1955e-11
-2.64544e-11
-1.24468e-11
-2.73918e-11
-1.28741e-11
-2.83027e-11
-1.32301e-11
-2.91877e-11
-1.35081e-11
-3.00475e-11
-1.3702e-11
-3.0883e-11
-1.38058e-11
-3.16948e-11
-1.38135e-11
-3.24843e-11
-1.37201e-11
-3.32523e-11
-1.352e-11
-3.40005e-11
-1.32087e-11
-3.47299e-11
-1.27811e-11
-3.54428e-11
-1.22332e-11
-3.61403e-11
-1.156e-11
-3.68252e-11
-1.07579e-11
-3.74989e-11
-9.82143e-12
-3.81652e-11
-8.74718e-12
-3.88253e-11
-7.52865e-12
-3.94845e-11
-6.16196e-12
-4.01435e-11
-4.63845e-12
-4.081e-11
-2.95327e-12
-4.14836e-11
-1.09398e-12
-4.21752e-11
9.46055e-13
-4.28829e-11
3.18584e-12
-4.36224e-11
5.6366e-12
-4.43903e-11
8.33016e-12
-4.52113e-11
1.11311e-11
-4.5923e-11
1.40505e-11
-4.66807e-11
-4.78686e-11
1.72391e-11
-2.03086e-15
-7.28783e-13
-8.63036e-15
-2.17018e-12
-2.10541e-14
-3.5946e-12
-4.04629e-14
-5.00125e-12
-6.72454e-14
-6.38941e-12
-1.01092e-13
-7.75839e-12
-1.41061e-13
-9.10755e-12
-1.85653e-13
-1.04363e-11
-2.32859e-13
-1.17441e-11
-2.80233e-13
-1.30305e-11
-3.24928e-13
-1.4295e-11
-3.63759e-13
-1.55373e-11
-3.93237e-13
-1.67571e-11
-4.09627e-13
-1.7954e-11
-4.08969e-13
-1.91279e-11
-3.8715e-13
-2.02786e-11
-3.39908e-13
-2.1406e-11
-2.62916e-13
-2.25101e-11
-1.51778e-13
-2.35909e-11
-2.12618e-15
-2.46484e-11
1.90388e-13
-2.56827e-11
4.29979e-13
-2.6694e-11
7.20742e-13
-2.76825e-11
1.06651e-12
-2.86484e-11
1.47088e-12
-2.95921e-11
1.93701e-12
-3.05137e-11
2.46772e-12
-3.14137e-11
3.06517e-12
-3.22923e-11
3.731e-12
-3.31501e-11
4.46592e-12
-3.39872e-11
5.27001e-12
-3.48046e-11
6.14201e-12
-3.56019e-11
7.07985e-12
-3.63806e-11
8.07967e-12
-3.71401e-11
9.13671e-12
-3.78823e-11
1.02437e-11
-3.86059e-11
1.13925e-11
-3.9314e-11
1.25715e-11
-4.00043e-11
1.37685e-11
-4.06815e-11
1.49665e-11
-4.13415e-11
1.61486e-11
-4.1992e-11
1.72908e-11
-4.26259e-11
1.83712e-11
-4.32557e-11
1.93581e-11
-4.38698e-11
2.02255e-11
-4.44899e-11
2.08993e-11
-4.5064e-11
2.13038e-11
-4.56158e-11
2.09778e-11
-4.64755e-11
1.41187e-11
-4.61947e-11
-4.5601e-11
9.21099e-12
1.50629e-14
-7.43846e-13
5.79514e-14
-2.21307e-12
1.24952e-13
-3.6616e-12
2.11998e-13
-5.08829e-12
3.15586e-13
-6.493e-12
4.32682e-13
-7.87548e-12
5.60661e-13
-9.23553e-12
6.97239e-13
-1.05729e-11
8.40441e-13
-1.18873e-11
9.8854e-13
-1.31786e-11
1.14006e-12
-1.44465e-11
1.2937e-12
-1.56909e-11
1.44838e-12
-1.69117e-11
1.60317e-12
-1.81088e-11
1.75733e-12
-1.9282e-11
1.91024e-12
-2.04315e-11
2.06146e-12
-2.15572e-11
2.21064e-12
-2.26593e-11
2.35764e-12
-2.37379e-11
2.50232e-12
-2.4793e-11
2.64479e-12
-2.58252e-11
2.78508e-12
-2.68343e-11
2.92347e-12
-2.78209e-11
3.06004e-12
-2.8785e-11
3.19516e-12
-2.97272e-11
3.32877e-12
-3.06473e-11
3.46115e-12
-3.15461e-11
3.59184e-12
-3.24229e-11
3.7208e-12
-3.32791e-11
3.84673e-12
-3.41131e-11
3.96896e-12
-3.49268e-11
4.08478e-12
-3.57177e-11
4.19246e-12
-3.64883e-11
4.28709e-12
-3.72347e-11
4.36531e-12
-3.79605e-11
4.41903e-12
-3.86596e-11
4.44262e-12
-3.93376e-11
4.42345e-12
-3.99851e-11
4.35284e-12
-4.06109e-11
4.21195e-12
-4.12006e-11
3.98808e-12
-4.17682e-11
3.65466e-12
-4.22924e-11
3.19659e-12
-4.27976e-11
2.58001e-12
-4.32532e-11
1.64432e-12
-4.35542e-11
-3.29756e-14
-4.38394e-11
-6.55983e-12
-4.38391e-11
-1.61713e-11
-4.32376e-11
-2.05461e-11
-4.1886e-11
-3.59119e-11
-3.02352e-11
2.12564e-14
-7.65103e-13
7.26069e-14
-2.26442e-12
1.49547e-13
-3.73854e-12
2.51059e-13
-5.18981e-12
3.75317e-13
-6.61725e-12
5.19835e-13
-8.02e-12
6.81525e-13
-9.39722e-12
8.56802e-13
-1.07482e-11
1.04162e-12
-1.20721e-11
1.23159e-12
-1.33685e-11
1.42197e-12
-1.46369e-11
1.60784e-12
-1.58768e-11
1.78405e-12
-1.70879e-11
1.94535e-12
-1.82701e-11
2.08639e-12
-1.94231e-11
2.20185e-12
-2.05469e-11
2.28637e-12
-2.16418e-11
2.33471e-12
-2.27076e-11
2.3417e-12
-2.37449e-11
2.30236e-12
-2.47537e-11
2.21184e-12
-2.57347e-11
2.06554e-12
-2.6688e-11
1.8591e-12
-2.76145e-11
1.58836e-12
-2.85143e-11
1.24954e-12
-2.93884e-11
8.39014e-13
-3.02367e-11
3.53644e-13
-3.10607e-11
-2.0968e-13
-3.18596e-11
-8.53411e-13
-3.26353e-11
-1.58023e-12
-3.33863e-11
-2.3919e-12
-3.41151e-11
-3.29084e-12
-3.48188e-11
-4.2782e-12
-3.5501e-11
-5.35643e-12
-3.61565e-11
-6.52621e-12
-3.67907e-11
-7.79038e-12
-3.73954e-11
-9.14943e-12
-3.79786e-11
-1.06072e-11
-3.85273e-11
-1.21644e-11
-3.90537e-11
-1.38263e-11
-3.95386e-11
-1.55937e-11
-4.00008e-11
-1.74729e-11
-4.04133e-11
-1.94691e-11
-4.08014e-11
-2.16148e-11
-4.11074e-11
-2.51419e-11
-4.17628e-11
-3.96031e-11
-4.13176e-11
-4.34506e-11
-4.01244e-11
-5.7868e-11
-2.88203e-11
-8.52777e-11
-1.44769e-11
-5.99627e-11
-6.12269e-11
7.06248e-14
-8.35728e-13
3.02708e-13
-2.4965e-12
6.92585e-13
-4.12842e-12
1.22507e-12
-5.72229e-12
1.88523e-12
-7.27741e-12
2.65833e-12
-8.7931e-12
3.52981e-12
-1.02687e-11
4.48528e-12
-1.17036e-11
5.5105e-12
-1.30973e-11
6.5914e-12
-1.44494e-11
7.71406e-12
-1.57596e-11
8.86471e-12
-1.70275e-11
1.00297e-11
-1.8253e-11
1.11957e-11
-1.9436e-11
1.23493e-11
-2.05766e-11
1.34773e-11
-2.1675e-11
1.45669e-11
-2.27313e-11
1.56053e-11
-2.3746e-11
1.65797e-11
-2.47194e-11
1.74781e-11
-2.5652e-11
1.8288e-11
-2.65446e-11
1.89977e-11
-2.73978e-11
1.95955e-11
-2.82122e-11
2.00702e-11
-2.8989e-11
2.04105e-11
-2.97287e-11
2.06062e-11
-3.04325e-11
2.06466e-11
-3.11011e-11
2.05225e-11
-3.17356e-11
2.0224e-11
-3.23368e-11
1.97434e-11
-3.29058e-11
1.90714e-11
-3.34431e-11
1.82023e-11
-3.39497e-11
1.71274e-11
-3.44261e-11
1.58437e-11
-3.48728e-11
1.4343e-11
-3.529e-11
1.26255e-11
-3.5678e-11
1.06835e-11
-3.60365e-11
8.52121e-12
-3.63651e-11
6.13095e-12
-3.66634e-11
3.5225e-12
-3.69302e-11
6.84386e-13
-3.71626e-11
-2.37609e-12
-3.73528e-11
-5.68476e-12
-3.74927e-11
-2.00992e-11
-3.7692e-11
-3.14991e-11
-3.73653e-11
-4.79485e-11
-2.48682e-11
-5.42931e-11
-3.37884e-11
-3.47811e-11
-4.83323e-11
-4.86499e-11
-6.014e-13
-6.77128e-12
-1.01841e-10
1.73e-13
-1.00873e-12
6.07765e-13
-2.93127e-12
1.26383e-12
-4.78449e-12
2.12159e-12
-6.58005e-12
3.16065e-12
-8.31647e-12
4.36007e-12
-9.99252e-12
5.69848e-12
-1.16071e-11
7.15419e-12
-1.31593e-11
8.70525e-12
-1.46484e-11
1.03295e-11
-1.60737e-11
1.20047e-11
-1.74348e-11
1.37084e-11
-1.87312e-11
1.54181e-11
-1.99627e-11
1.71113e-11
-2.11293e-11
1.87656e-11
-2.22309e-11
2.03582e-11
-2.32677e-11
2.18668e-11
-2.424e-11
2.3269e-11
-2.51481e-11
2.45424e-11
-2.59927e-11
2.56648e-11
-2.67745e-11
2.66144e-11
-2.74942e-11
2.73696e-11
-2.81529e-11
2.79091e-11
-2.87517e-11
2.82123e-11
-2.92922e-11
2.82593e-11
-2.97756e-11
2.80309e-11
-3.02041e-11
2.75092e-11
-3.05794e-11
2.66778e-11
-3.09042e-11
2.55215e-11
-3.11805e-11
2.4028e-11
-3.14122e-11
2.21866e-11
-3.16017e-11
1.99907e-11
-3.17538e-11
1.7436e-11
-3.18714e-11
1.45243e-11
-3.19611e-11
1.12604e-11
-3.20261e-11
7.65752e-12
-3.20751e-11
3.73299e-12
-3.2112e-11
-4.83851e-13
-3.21483e-11
-4.96003e-12
-3.21873e-11
-9.64781e-12
-3.22424e-11
-1.44944e-11
-3.2316e-11
-1.93944e-11
-3.24528e-11
-4.60107e-11
-3.27891e-11
-5.19665e-11
-3.3234e-11
-5.26712e-11
-3.66791e-11
-4.27002e-11
-3.48392e-11
-4.40484e-11
-3.24196e-11
-5.10702e-11
-4.13106e-11
-1.13671e-11
-4.03044e-11
-3.74865e-11
1.93481e-11
1.75138e-13
-1.18387e-12
7.67237e-13
-3.52337e-12
1.7701e-12
-5.78735e-12
3.14304e-12
-7.95299e-12
4.84678e-12
-1.00202e-11
6.84325e-12
-1.1989e-11
9.09554e-12
-1.38594e-11
1.15678e-11
-1.56316e-11
1.42251e-11
-1.73057e-11
1.70334e-11
-1.88821e-11
1.99595e-11
-2.03609e-11
2.29708e-11
-2.17425e-11
2.60352e-11
-2.30271e-11
2.91209e-11
-2.42149e-11
3.21963e-11
-2.53063e-11
3.52299e-11
-2.63013e-11
3.819e-11
-2.72001e-11
4.10448e-11
-2.80029e-11
4.37619e-11
-2.87098e-11
4.63082e-11
-2.93207e-11
4.86498e-11
-2.98359e-11
5.07521e-11
-3.02552e-11
5.25791e-11
-3.05787e-11
5.40934e-11
-3.08065e-11
5.52567e-11
-3.09389e-11
5.60284e-11
-3.09758e-11
5.6367e-11
-3.09179e-11
5.62283e-11
-3.07655e-11
5.55672e-11
-3.05195e-11
5.43357e-11
-3.01807e-11
5.2485e-11
-2.97509e-11
4.99628e-11
-2.92316e-11
4.67168e-11
-2.86254e-11
4.2691e-11
-2.79353e-11
3.78299e-11
-2.7165e-11
3.20741e-11
-2.63193e-11
2.53659e-11
-2.54038e-11
1.76427e-11
-2.44251e-11
8.84621e-12
-2.33907e-11
-1.08216e-12
-2.2314e-11
-1.21851e-11
-2.12131e-11
-4.0508e-11
-2.10764e-11
-5.8031e-11
-2.05082e-11
-6.95932e-11
-2.17021e-11
-6.68211e-11
-3.9414e-11
-2.38274e-11
-7.78329e-11
7.72267e-11
-1.33474e-10
1.91249e-10
-1.55333e-10
3.28801e-10
-1.77857e-10
-1.6912e-10
4.60435e-10
4.33641e-13
-1.61751e-12
1.51444e-12
-4.60417e-12
3.13014e-12
-7.40305e-12
5.22241e-12
-1.00453e-11
7.73639e-12
-1.25342e-11
1.06207e-11
-1.48733e-11
1.38275e-11
-1.70661e-11
1.73118e-11
-1.9116e-11
2.10321e-11
-2.10259e-11
2.49491e-11
-2.2799e-11
2.9026e-11
-2.44378e-11
3.32281e-11
-2.59446e-11
3.75224e-11
-2.73213e-11
4.1877e-11
-2.85695e-11
4.6261e-11
-2.96902e-11
5.06439e-11
-3.06842e-11
5.49953e-11
-3.15515e-11
5.92841e-11
-3.22918e-11
6.34784e-11
-3.2904e-11
6.75446e-11
-3.3387e-11
7.1447e-11
-3.37382e-11
7.51472e-11
-3.39554e-11
7.86033e-11
-3.40348e-11
8.17695e-11
-3.39727e-11
8.45945e-11
-3.3764e-11
8.70222e-11
-3.34035e-11
8.89889e-11
-3.28846e-11
9.04241e-11
-3.22006e-11
9.12477e-11
-3.13431e-11
9.13708e-11
-3.03039e-11
9.06923e-11
-2.90724e-11
8.90996e-11
-2.76389e-11
8.64649e-11
-2.59907e-11
8.26455e-11
-2.41159e-11
7.74803e-11
-2.19998e-11
7.07888e-11
-1.96278e-11
6.23681e-11
-1.69831e-11
5.19915e-11
-1.40485e-11
3.94079e-11
-1.08071e-11
2.43306e-11
-7.23675e-12
6.46607e-12
-3.31277e-12
-3.55747e-11
3.11474e-12
-5.88251e-11
2.62203e-12
-6.87548e-11
-1.17748e-11
-9.75338e-11
-1.0626e-11
-3.18042e-11
-1.43478e-10
-6.97393e-11
-9.55386e-11
-3.22265e-11
-1.92845e-10
5.29187e-11
-2.63002e-10
-2.66971e-10
1.50769e-10
9.91041e-14
-1.71661e-12
4.91302e-13
-4.99637e-12
1.15597e-12
-8.06772e-12
2.01746e-12
-1.09068e-11
3.01062e-12
-1.35273e-11
4.07959e-12
-1.59423e-11
5.17682e-12
-1.81634e-11
6.26239e-12
-2.02015e-11
7.30324e-12
-2.20668e-11
8.27259e-12
-2.37684e-11
9.14928e-12
-2.53145e-11
9.9172e-12
-2.67125e-11
1.05647e-11
-2.79688e-11
1.10842e-11
-2.9089e-11
1.14715e-11
-3.00775e-11
1.17254e-11
-3.09382e-11
1.18476e-11
-3.16737e-11
1.18417e-11
-3.22859e-11
1.17134e-11
-3.27757e-11
1.14696e-11
-3.31432e-11
1.11186e-11
-3.33873e-11
1.06696e-11
-3.35064e-11
1.01321e-11
-3.34973e-11
9.516e-12
-3.33566e-11
8.83116e-12
-3.30791e-11
8.08718e-12
-3.26595e-11
7.29314e-12
-3.20905e-11
6.45728e-12
-3.13648e-11
5.58706e-12
-3.04729e-11
4.6884e-12
-2.94052e-11
3.76646e-12
-2.81505e-11
2.82397e-12
-2.66964e-11
1.86333e-12
-2.50301e-11
8.83402e-13
-2.3136e-11
-1.16193e-13
-2.10002e-11
-1.14091e-12
-1.86031e-11
-2.1931e-12
-1.59309e-11
-3.28325e-12
-1.29584e-11
-4.41687e-12
-9.67344e-12
-5.61292e-12
-6.0407e-12
-6.8695e-12
-2.05619e-12
-6.11031e-12
1.5593e-12
-1.69893e-11
5.43736e-12
-4.63764e-11
1.42808e-11
-6.44335e-11
7.40698e-12
-1.96837e-10
-1.10728e-11
-2.91409e-10
-9.42005e-13
-2.87144e-10
-1.96894e-10
-4.14541e-10
-1.35605e-10
-2.60381e-10
-4.21131e-10
4.63304e-13
-2.17992e-12
1.30712e-12
-5.84018e-12
2.22705e-12
-8.98764e-12
3.05895e-12
-1.17387e-11
3.67733e-12
-1.41457e-11
3.98801e-12
-1.6253e-11
3.92299e-12
-1.80983e-11
3.4359e-12
-1.97144e-11
2.49841e-12
-2.11293e-11
1.09695e-12
-2.23669e-11
-7.69729e-13
-2.34478e-11
-3.09275e-12
-2.43895e-11
-5.85469e-12
-2.52069e-11
-9.03115e-12
-2.59125e-11
-1.25916e-11
-2.65171e-11
-1.65005e-11
-2.70293e-11
-2.07178e-11
-2.74563e-11
-2.51997e-11
-2.7804e-11
-2.98986e-11
-2.80768e-11
-3.4764e-11
-2.82778e-11
-3.97419e-11
-2.84094e-11
-4.47759e-11
-2.84724e-11
-4.98062e-11
-2.8467e-11
-5.47706e-11
-2.83922e-11
-5.96035e-11
-2.82463e-11
-6.42369e-11
-2.80261e-11
-6.85994e-11
-2.77281e-11
-7.26171e-11
-2.73471e-11
-7.62124e-11
-2.68775e-11
-7.93058e-11
-2.63118e-11
-8.1814e-11
-2.56423e-11
-8.36519e-11
-2.48585e-11
-8.47314e-11
-2.39506e-11
-8.49633e-11
-2.2904e-11
-8.42569e-11
-2.17066e-11
-8.25214e-11
-2.03385e-11
-7.96676e-11
-1.87848e-11
-7.56076e-11
-1.70184e-11
-7.02598e-11
-1.50212e-11
-6.35448e-11
-1.27556e-11
-5.53997e-11
-1.02014e-11
-4.65379e-11
-7.30249e-12
-3.70729e-11
-4.0276e-12
-2.56585e-11
-1.68043e-12
-2.47049e-11
1.01465e-12
-3.76653e-11
1.84096e-12
-4.54694e-11
6.86205e-12
-2.36238e-10
-6.1156e-12
-4.10598e-10
3.88154e-11
-3.26299e-10
-3.44165e-10
1.72201e-11
3.07799e-11
4.11923e-11
4.88536e-11
5.41079e-11
5.72549e-11
5.85566e-11
5.82421e-11
5.65128e-11
5.35459e-11
4.94981e-11
4.45086e-11
3.87017e-11
3.21892e-11
2.50721e-11
1.74428e-11
9.38647e-12
9.82455e-13
-7.69432e-12
-1.65722e-11
-2.55815e-11
-3.46539e-11
-4.37209e-11
-5.27131e-11
-6.15594e-11
-7.01855e-11
-7.85136e-11
-8.64607e-11
-9.39382e-11
-1.0085e-10
-1.07092e-10
-1.12551e-10
-1.17101e-10
-1.20605e-10
-1.22912e-10
-1.23851e-10
-1.23235e-10
-1.20854e-10
-1.16475e-10
-1.09831e-10
-1.00632e-10
-8.85345e-11
-7.31621e-11
-5.54425e-11
-3.50281e-11
-1.54079e-11
8.32994e-12
2.09173e-11
7.30815e-11
-2.84549e-10
2.29091e-09
1.01985e-10
2.34242e-09
1.06114e-10
2.38569e-09
1.10263e-10
2.42049e-09
1.14762e-10
2.44859e-09
1.17803e-10
2.47086e-09
1.20092e-10
2.48816e-09
1.2171e-10
2.5013e-09
1.22807e-10
2.51067e-09
1.23808e-10
2.51707e-09
1.24397e-10
2.52061e-09
1.2518e-10
2.52166e-09
1.26002e-10
2.52113e-09
1.26363e-10
2.52417e-09
1.23962e-10
2.51674e-09
1.27658e-10
2.50438e-09
1.28174e-10
2.48781e-09
1.28161e-10
2.46802e-09
1.27586e-10
2.44568e-09
1.26671e-10
2.42143e-09
1.25378e-10
2.39574e-09
1.2382e-10
2.36904e-09
1.22069e-10
2.34168e-09
1.20138e-10
2.31399e-09
1.18036e-10
2.28622e-09
1.15775e-10
2.25858e-09
1.13407e-10
2.23122e-09
1.11071e-10
2.2043e-09
1.08722e-10
2.17791e-09
1.06292e-10
2.15216e-09
1.03882e-10
2.12727e-09
1.01365e-10
2.10346e-09
9.87666e-11
2.08107e-09
9.5921e-11
2.06027e-09
9.29818e-11
2.04113e-09
9.00715e-11
2.02368e-09
8.71994e-11
2.00794e-09
8.43765e-11
1.99394e-09
8.1608e-11
1.98167e-09
7.89019e-11
1.97114e-09
7.6269e-11
1.96233e-09
7.37282e-11
1.95523e-09
7.12574e-11
1.94976e-09
6.88487e-11
1.94584e-09
6.64975e-11
1.94343e-09
6.41906e-11
1.94247e-09
6.19308e-11
1.94287e-09
5.97305e-11
1.94454e-09
5.7597e-11
1.94742e-09
5.55428e-11
5.35563e-11
1.95148e-09
9.34012e-10
3.32723e-11
1.00373e-09
3.6398e-11
1.07333e-09
4.06598e-11
1.1434e-09
4.46964e-11
1.21194e-09
4.9261e-11
1.27837e-09
5.36616e-11
1.34255e-09
5.7529e-11
1.40485e-09
6.05021e-11
1.46442e-09
6.42423e-11
1.52113e-09
6.76875e-11
1.5765e-09
6.98096e-11
1.63055e-09
7.1956e-11
1.68036e-09
7.65513e-11
1.72357e-09
8.07485e-11
1.76666e-09
8.45692e-11
1.80636e-09
8.84698e-11
1.8429e-09
9.16307e-11
1.87628e-09
9.42017e-11
1.9067e-09
9.62505e-11
1.93423e-09
9.78481e-11
1.959e-09
9.90483e-11
1.98115e-09
9.99257e-11
2.00092e-09
1.00366e-10
2.01847e-09
1.00485e-10
2.03405e-09
1.00198e-10
2.04772e-09
9.97329e-11
2.05952e-09
9.92671e-11
2.06953e-09
9.87206e-11
2.07768e-09
9.81418e-11
2.08413e-09
9.743e-11
2.08862e-09
9.68703e-11
2.09151e-09
9.58783e-11
2.0938e-09
9.36276e-11
2.09518e-09
9.16098e-11
2.09578e-09
8.9466e-11
2.09573e-09
8.72506e-11
2.09503e-09
8.50755e-11
2.09387e-09
8.27661e-11
2.09233e-09
8.04478e-11
2.09047e-09
7.81287e-11
2.08837e-09
7.58248e-11
2.08609e-09
7.35417e-11
2.08366e-09
7.12789e-11
2.08113e-09
6.90242e-11
2.07862e-09
6.66977e-11
2.07643e-09
6.41261e-11
2.07483e-09
6.13336e-11
2.07414e-09
5.8279e-11
2.07439e-09
5.5295e-11
5.2343e-11
2.0756e-09
5.80215e-10
3.84142e-12
6.12485e-10
4.1288e-12
6.47075e-10
6.06933e-12
6.8375e-10
8.02178e-12
7.23292e-10
9.71898e-12
7.65308e-10
1.16456e-11
8.09323e-10
1.35144e-11
8.54348e-10
1.54767e-11
9.00904e-10
1.76862e-11
9.48455e-10
2.0137e-11
9.94812e-10
2.34525e-11
1.03996e-09
2.68122e-11
1.08597e-09
3.05332e-11
1.1323e-09
3.44262e-11
1.17907e-09
3.77979e-11
1.22655e-09
4.09894e-11
1.27419e-09
4.39898e-11
1.32159e-09
4.68039e-11
1.36837e-09
4.94636e-11
1.41419e-09
5.20316e-11
1.45884e-09
5.43975e-11
1.50198e-09
5.67848e-11
1.5426e-09
5.97437e-11
1.58197e-09
6.11189e-11
1.61978e-09
6.23899e-11
1.65564e-09
6.38674e-11
1.68923e-09
6.56758e-11
1.7205e-09
6.74516e-11
1.75016e-09
6.84851e-11
1.77797e-09
6.96172e-11
1.80428e-09
7.05648e-11
1.82969e-09
7.04704e-11
1.85154e-09
7.17728e-11
1.87159e-09
7.15604e-11
1.8897e-09
7.13568e-11
1.90527e-09
7.16768e-11
1.91932e-09
7.10314e-11
1.93164e-09
7.0439e-11
1.94241e-09
6.96845e-11
1.95162e-09
6.89144e-11
1.95946e-09
6.7988e-11
1.96602e-09
6.69808e-11
1.97153e-09
6.57642e-11
1.9763e-09
6.42625e-11
1.98041e-09
6.25872e-11
1.98341e-09
6.11193e-11
1.98773e-09
5.70191e-11
1.99281e-09
5.31946e-11
1.99878e-09
4.93303e-11
4.61636e-11
2.00496e-09
2.97168e-10
-5.05698e-12
3.05031e-10
-3.73332e-12
3.16878e-10
-5.77808e-12
3.32572e-10
-7.67188e-12
3.49414e-10
-7.1238e-12
3.65937e-10
-4.87739e-12
3.82507e-10
-3.05538e-12
4.00037e-10
-2.05335e-12
4.19282e-10
-1.55871e-12
4.406e-10
-1.18089e-12
4.64676e-10
-6.23326e-13
4.91313e-10
1.7488e-13
5.19904e-10
1.94255e-12
5.50092e-10
4.23794e-12
5.82021e-10
5.86871e-12
6.15536e-10
7.47509e-12
6.50402e-10
9.12317e-12
6.86404e-10
1.08021e-11
7.23431e-10
1.24366e-11
7.61322e-10
1.41403e-11
7.99528e-10
1.6192e-11
8.38572e-10
1.77409e-11
8.78458e-10
1.98569e-11
9.16947e-10
2.26305e-11
9.54428e-10
2.49084e-11
9.91401e-10
2.68942e-11
1.02814e-09
2.89418e-11
1.06526e-09
3.03258e-11
1.10119e-09
3.25571e-11
1.13661e-09
3.41921e-11
1.1716e-09
3.55796e-11
1.20508e-09
3.69862e-11
1.23873e-09
3.81253e-11
1.2711e-09
3.91929e-11
1.30248e-09
3.99773e-11
1.33345e-09
4.07067e-11
1.36288e-09
4.15977e-11
1.39149e-09
4.1835e-11
1.41901e-09
4.21561e-11
1.44544e-09
4.24915e-11
1.47039e-09
4.30359e-11