/*--------------------------------*- C++ -*----------------------------------*\
| =========                 |                                                 |
| \\      /  F ield         | OpenFOAM: The Open Source CFD Toolbox           |
|  \\    /   O peration     | Version:  2.4.0                                 |
|   \\  /    A nd           | Web:      www.OpenFOAM.org                      |
|    \\/     M anipulation  |                                                 |
\*---------------------------------------------------------------------------*/
FoamFile
{
    version     2.0;
    format      ascii;
    class       volVectorField;
    location    "1.7";
    object      U;
}
// * * * * * * * * * * * * * * * * * * * * * * * * * * * * * * * * * * * * * //

dimensions      [0 1 -1 0 0 0 0];

internalField   nonuniform List<vector> 
8000
(
(7.56217e-07 -0.000244462 0)
(7.11508e-06 -0.000698 0)
(1.95077e-05 -0.00111762 0)
(3.72565e-05 -0.00150447 0)
(5.97429e-05 -0.00185968 0)
(8.61367e-05 -0.00218385 0)
(0.000116019 -0.00247785 0)
(0.000148547 -0.002742 0)
(0.000183356 -0.0029769 0)
(0.000219604 -0.00318267 0)
(0.000257003 -0.00335971 0)
(0.000294661 -0.00350833 0)
(0.000332033 -0.00362877 0)
(0.000368041 -0.00372124 0)
(0.000402674 -0.00378455 0)
(0.000436529 -0.00381896 0)
(0.000472303 -0.00382259 0)
(0.000514747 -0.00379752 0)
(0.000570965 -0.00374192 0)
(0.000648091 -0.00366403 0)
(0.000747288 -0.00357836 0)
(0.000862057 -0.00350334 0)
(0.000985026 -0.0033881 0)
(0.00111316 -0.00320915 0)
(0.00124262 -0.00293177 0)
(0.00136668 -0.00255963 0)
(0.00148522 -0.00195712 0)
(0.00159054 -0.00106107 0)
(0.00165592 -0.000470883 0)
(0.00188459 0.000256477 0)
(0.00255465 0.00109158 0)
(0.00364446 0.00202327 0)
(0.00501012 0.00288714 0)
(0.00652537 0.0037903 0)
(0.00746853 0.000752018 0)
(0.00757477 0.00619166 0)
(0.00756654 0.0132769 0)
(0.00789408 0.0140218 0)
(0.00884793 0.0120042 0)
(0.0100448 0.0112761 0)
(0.010988 0.0115209 0)
(0.0117147 0.0123096 0)
(0.0125175 0.0118954 0)
(0.013598 0.0107613 0)
(0.0145477 0.0104987 0)
(0.015199 0.0112971 0)
(0.0158201 0.012197 0)
(0.0164418 0.0129362 0)
(0.0170361 0.0135431 0)
(0.0175955 0.0139789 0)
(-3.36079e-07 -0.00024542 0)
(-1.63271e-06 -0.000704585 0)
(-3.47911e-06 -0.00113256 0)
(-5.54596e-06 -0.00152991 0)
(-7.55327e-06 -0.00189701 0)
(-9.32965e-06 -0.0022343 0)
(-1.06686e-05 -0.00254194 0)
(-1.14736e-05 -0.00282034 0)
(-1.15383e-05 -0.00306953 0)
(-1.08204e-05 -0.00328984 0)
(-9.08695e-06 -0.0034812 0)
(-6.35295e-06 -0.00364385 0)
(-2.34669e-06 -0.0037776 0)
(2.85143e-06 -0.00388258 0)
(9.60286e-06 -0.00395846 0)
(1.78202e-05 -0.00400514 0)
(2.80318e-05 -0.0040225 0)
(4.01312e-05 -0.00401061 0)
(5.47002e-05 -0.00396968 0)
(7.13351e-05 -0.00390005 0)
(9.009e-05 -0.00380246 0)
(0.000109803 -0.00367701 0)
(0.000130663 -0.00352383 0)
(0.000153052 -0.00334186 0)
(0.000179543 -0.00313195 0)
(0.00021363 -0.0028932 0)
(0.000260977 -0.00262759 0)
(0.000327158 -0.00233651 0)
(0.000413027 -0.00203701 0)
(0.000517771 -0.00171339 0)
(0.000643457 -0.00132581 0)
(0.000790828 -0.000847928 0)
(0.0009294 -0.000392293 0)
(0.00102777 9.8344e-05 0)
(0.00107371 0.000407981 0)
(0.00118843 0.00111198 0)
(0.00151556 0.00201088 0)
(0.00217468 0.00336729 0)
(0.00304259 0.00159981 0)
(0.0034449 0.00783431 0)
(0.00356056 0.0133862 0)
(0.00348134 0.0142569 0)
(0.00384797 0.0079159 0)
(0.00488677 0.00332982 0)
(0.00523147 0.00465646 0)
(0.00492709 0.00683432 0)
(0.00523811 0.0063288 0)
(0.00576984 0.00553352 0)
(0.00618732 0.00518199 0)
(0.00665988 0.00522434 0)
(-5.2328e-08 -0.000232593 0)
(-1.57395e-06 -0.000671041 0)
(-4.72241e-06 -0.00108284 0)
(-9.32589e-06 -0.00146804 0)
(-1.50586e-05 -0.00182678 0)
(-2.16266e-05 -0.00215915 0)
(-2.8727e-05 -0.00246532 0)
(-3.60891e-05 -0.0027454 0)
(-4.34109e-05 -0.00299959 0)
(-5.04139e-05 -0.00322799 0)
(-5.67878e-05 -0.00343081 0)
(-6.22401e-05 -0.00360815 0)
(-6.6449e-05 -0.0037602 0)
(-6.90985e-05 -0.00388706 0)
(-6.98488e-05 -0.00398895 0)
(-6.83488e-05 -0.00406595 0)
(-6.42393e-05 -0.00411829 0)
(-5.71379e-05 -0.00414605 0)
(-4.66862e-05 -0.00414954 0)
(-3.24896e-05 -0.00412881 0)
(-1.42235e-05 -0.00408424 0)
(8.50292e-06 -0.00401579 0)
(3.59923e-05 -0.00392393 0)
(6.86955e-05 -0.00380847 0)
(0.000106936 -0.00367027 0)
(0.000151239 -0.00350905 0)
(0.000201867 -0.00332648 0)
(0.000259262 -0.00312222 0)
(0.000323301 -0.00289927 0)
(0.000394504 -0.00265628 0)
(0.000473567 -0.00239749 0)
(0.000562031 -0.00212065 0)
(0.000659754 -0.00183392 0)
(0.000767099 -0.00153082 0)
(0.000883674 -0.00121741 0)
(0.00101262 -0.00086049 0)
(0.00114109 -0.000502105 0)
(0.00123882 -8.69994e-05 0)
(0.00131263 5.35064e-05 0)
(0.00151989 0.000635164 0)
(0.00197325 0.00112869 0)
(0.00265753 0.00177266 0)
(0.00341277 0.000554982 0)
(0.00366448 0.0022212 0)
(0.00351863 0.00787163 0)
(0.00324795 0.0084744 0)
(0.00353516 0.00382466 0)
(0.0040726 0.00285709 0)
(0.0041304 0.00266205 0)
(0.00430912 0.00145642 0)
(-5.31747e-07 -0.000218806 0)
(-4.43419e-06 -0.000632148 0)
(-1.18296e-05 -0.00102164 0)
(-2.23096e-05 -0.00138767 0)
(-3.54078e-05 -0.00173061 0)
(-5.07089e-05 -0.00205077 0)
(-6.78478e-05 -0.00234846 0)
(-8.64462e-05 -0.00262399 0)
(-0.000106151 -0.00287762 0)
(-0.000126579 -0.00310963 0)
(-0.000147387 -0.00332026 0)
(-0.000168188 -0.00350977 0)
(-0.000188651 -0.00367838 0)
(-0.000208382 -0.00382633 0)
(-0.000227061 -0.0039538 0)
(-0.000244286 -0.00406105 0)
(-0.000259753 -0.00414825 0)
(-0.000273045 -0.00421562 0)
(-0.000283882 -0.00426334 0)
(-0.000291822 -0.00429164 0)
(-0.000296624 -0.00430067 0)
(-0.000297812 -0.00429066 0)
(-0.000295193 -0.00426176 0)
(-0.000288242 -0.00421416 0)
(-0.000276835 -0.00414803 0)
(-0.000260391 -0.00406352 0)
(-0.0002389 -0.00396083 0)
(-0.000211725 -0.00384004 0)
(-0.000179037 -0.0037014 0)
(-0.000140145 -0.00354481 0)
(-9.54462e-05 -0.00337067 0)
(-4.4179e-05 -0.00317868 0)
(1.29543e-05 -0.00296956 0)
(7.68627e-05 -0.00274253 0)
(0.000146722 -0.00249882 0)
(0.000223865 -0.00223674 0)
(0.000306874 -0.00195893 0)
(0.00039628 -0.0016617 0)
(0.00049048 -0.00134701 0)
(0.000594087 -0.000988704 0)
(0.000698767 -0.000647943 0)
(0.000782234 -0.000237588 0)
(0.000837216 2.12086e-06 0)
(0.000916545 0.000467493 0)
(0.00111651 0.00112517 0)
(0.00153554 0.00131966 0)
(0.00201815 -7.61105e-05 0)
(0.00212504 0.00133072 0)
(0.00211334 0.00143458 0)
(0.00219801 0.000153324 0)
(-4.87055e-07 -0.000183582 0)
(-5.31904e-06 -0.000533595 0)
(-1.49217e-05 -0.000866488 0)
(-2.89192e-05 -0.00118229 0)
(-4.67649e-05 -0.00148106 0)
(-6.79884e-05 -0.00176285 0)
(-9.21719e-05 -0.00202773 0)
(-0.000118925 -0.00227579 0)
(-0.00014786 -0.00250712 0)
(-0.000178605 -0.00272181 0)
(-0.00021079 -0.00291997 0)
(-0.000244064 -0.00310171 0)
(-0.000278072 -0.00326715 0)
(-0.00031248 -0.00341641 0)
(-0.000346945 -0.00354961 0)
(-0.000381146 -0.00366688 0)
(-0.000414751 -0.00376835 0)
(-0.000447447 -0.00385418 0)
(-0.00047891 -0.00392447 0)
(-0.000508836 -0.00397942 0)
(-0.000536902 -0.00401909 0)
(-0.000562809 -0.00404372 0)
(-0.000586238 -0.00405335 0)
(-0.000606886 -0.00404825 0)
(-0.000624436 -0.00402841 0)
(-0.000638578 -0.00399415 0)
(-0.000648991 -0.00394538 0)
(-0.000655355 -0.00388252 0)
(-0.000657345 -0.00380535 0)
(-0.000654613 -0.00371442 0)
(-0.000646833 -0.0036093 0)
(-0.000633619 -0.00349075 0)
(-0.000614638 -0.00335808 0)
(-0.000589459 -0.00321232 0)
(-0.000557741 -0.00305238 0)
(-0.000518992 -0.00287975 0)
(-0.000472837 -0.00269279 0)
(-0.000418609 -0.00249364 0)
(-0.000355847 -0.00227977 0)
(-0.000283609 -0.00205427 0)
(-0.00020214 -0.00181387 0)
(-0.000111518 -0.00156265 0)
(-1.11688e-05 -0.00129261 0)
(0.000104752 -0.000996772 0)
(0.00024365 -0.000707507 0)
(0.000383472 -0.000586655 0)
(0.000478676 -0.000541666 0)
(0.000560904 -0.000324944 0)
(0.00071232 -0.000520536 0)
(0.000876892 -0.00107384 0)
(-5.80322e-07 -0.000150988 0)
(-5.47658e-06 -0.000440823 0)
(-1.50533e-05 -0.000718473 0)
(-2.89291e-05 -0.000983884 0)
(-4.66112e-05 -0.00123701 0)
(-6.76854e-05 -0.00147781 0)
(-9.17881e-05 -0.00170626 0)
(-0.000118575 -0.00192235 0)
(-0.000147703 -0.00212606 0)
(-0.000178843 -0.00231742 0)
(-0.000211664 -0.00249643 0)
(-0.000245852 -0.00266313 0)
(-0.000281091 -0.00281756 0)
(-0.000317079 -0.00295978 0)
(-0.000353508 -0.00308984 0)
(-0.000390092 -0.00320783 0)
(-0.000426526 -0.00331385 0)
(-0.000462536 -0.00340798 0)
(-0.000497819 -0.00349036 0)
(-0.000532112 -0.00356112 0)
(-0.000565111 -0.0036204 0)
(-0.000596559 -0.00366837 0)
(-0.00062615 -0.00370522 0)
(-0.000653635 -0.00373113 0)
(-0.000678694 -0.00374635 0)
(-0.000701085 -0.00375108 0)
(-0.000720476 -0.00374563 0)
(-0.000736628 -0.00373023 0)
(-0.000749186 -0.00370525 0)
(-0.000757915 -0.00367097 0)
(-0.000762432 -0.00362783 0)
(-0.000762499 -0.00357618 0)
(-0.000757701 -0.00351651 0)
(-0.000747794 -0.00344927 0)
(-0.000732323 -0.00337503 0)
(-0.000711029 -0.00329435 0)
(-0.000683416 -0.00320789 0)
(-0.000649201 -0.00311637 0)
(-0.00060785 -0.0030205 0)
(-0.000559043 -0.00292127 0)
(-0.000502193 -0.00281941 0)
(-0.000436794 -0.00271624 0)
(-0.000362181 -0.00261232 0)
(-0.000277982 -0.00250958 0)
(-0.000185148 -0.00240876 0)
(-8.53281e-05 -0.00231338 0)
(2.23797e-05 -0.00220762 0)
(0.00013769 -0.00214253 0)
(0.000234614 -0.00221586 0)
(0.000307304 -0.00231797 0)
(-3.79937e-07 -0.000119099 0)
(-4.03794e-06 -0.000350452 0)
(-1.13588e-05 -0.000574686 0)
(-2.21023e-05 -0.000791537 0)
(-3.59122e-05 -0.00100077 0)
(-5.2478e-05 -0.00120217 0)
(-7.15244e-05 -0.00139556 0)
(-9.27833e-05 -0.00158078 0)
(-0.000115988 -0.00175771 0)
(-0.000140872 -0.00192625 0)
(-0.000167173 -0.00208631 0)
(-0.000194628 -0.00223784 0)
(-0.000222981 -0.0023808 0)
(-0.000251974 -0.00251517 0)
(-0.000281356 -0.00264095 0)
(-0.000310875 -0.00275816 0)
(-0.000340284 -0.00286684 0)
(-0.000369337 -0.00296705 0)
(-0.000397792 -0.00305885 0)
(-0.000425408 -0.00314234 0)
(-0.000451949 -0.00321762 0)
(-0.00047718 -0.00328483 0)
(-0.00050087 -0.00334411 0)
(-0.000522791 -0.00339563 0)
(-0.000542718 -0.00343955 0)
(-0.000560431 -0.0034761 0)
(-0.000575713 -0.00350548 0)
(-0.000588353 -0.00352797 0)
(-0.000598144 -0.00354378 0)
(-0.000604887 -0.00355326 0)
(-0.000608385 -0.00355667 0)
(-0.000608459 -0.0035544 0)
(-0.000604925 -0.00354674 0)
(-0.000597627 -0.00353417 0)
(-0.000586399 -0.00351701 0)
(-0.00057112 -0.00349582 0)
(-0.000551646 -0.00347095 0)
(-0.000527899 -0.00344307 0)
(-0.00049977 -0.00341255 0)
(-0.000467239 -0.00338019 0)
(-0.000430237 -0.00334635 0)
(-0.000388822 -0.00331201 0)
(-0.000342981 -0.00327753 0)
(-0.000292877 -0.00324412 0)
(-0.000238536 -0.00321203 0)
(-0.000180196 -0.00318268 0)
(-0.000118161 -0.00315599 0)
(-5.32113e-05 -0.00313408 0)
(1.25102e-05 -0.00311615 0)
(7.2855e-05 -0.00312398 0)
(-2.84269e-07 -0.000100853 0)
(-2.98872e-06 -0.00029745 0)
(-8.41725e-06 -0.00048885 0)
(-1.64062e-05 -0.000674962 0)
(-2.67097e-05 -0.000855698 0)
(-3.9114e-05 -0.00103097 0)
(-5.34276e-05 -0.00120069 0)
(-6.94632e-05 -0.00136479 0)
(-8.70313e-05 -0.0015232 0)
(-0.000105943 -0.00167586 0)
(-0.000126007 -0.00182274 0)
(-0.000147038 -0.0019638 0)
(-0.000168847 -0.002099 0)
(-0.000191249 -0.00222835 0)
(-0.000214059 -0.00235185 0)
(-0.000237096 -0.0024695 0)
(-0.000260178 -0.00258134 0)
(-0.000283127 -0.0026874 0)
(-0.000305767 -0.00278773 0)
(-0.000327925 -0.0028824 0)
(-0.000349428 -0.00297149 0)
(-0.000370109 -0.00305509 0)
(-0.000389801 -0.0031333 0)
(-0.000408344 -0.00320623 0)
(-0.000425576 -0.00327401 0)
(-0.000441346 -0.00333678 0)
(-0.000455498 -0.00339469 0)
(-0.00046789 -0.0034479 0)
(-0.000478377 -0.00349658 0)
(-0.000486825 -0.0035409 0)
(-0.000493099 -0.00358106 0)
(-0.00049708 -0.00361723 0)
(-0.000498644 -0.00364963 0)
(-0.000497687 -0.00367844 0)
(-0.000494102 -0.00370388 0)
(-0.000487801 -0.00372613 0)
(-0.000478698 -0.00374539 0)
(-0.000466726 -0.00376186 0)
(-0.000451822 -0.00377571 0)
(-0.000433949 -0.0037871 0)
(-0.000413071 -0.00379618 0)
(-0.000389185 -0.00380309 0)
(-0.000362294 -0.00380787 0)
(-0.000332433 -0.00381066 0)
(-0.00029965 -0.00381137 0)
(-0.000264028 -0.0038101 0)
(-0.000225661 -0.0038066 0)
(-0.000184783 -0.00380114 0)
(-0.000141582 -0.00379281 0)
(-9.62069e-05 -0.00378152 0)
(-2.5789e-07 -8.23977e-05 0)
(-2.41953e-06 -0.000244889 0)
(-6.66218e-06 -0.000404864 0)
(-1.28327e-05 -0.000562108 0)
(-2.07345e-05 -0.000716427 0)
(-3.02044e-05 -0.00086764 0)
(-4.1102e-05 -0.00101558 0)
(-5.32933e-05 -0.0011601 0)
(-6.66462e-05 -0.00130108 0)
(-8.10308e-05 -0.00143839 0)
(-9.63202e-05 -0.00157193 0)
(-0.00011239 -0.00170163 0)
(-0.000129119 -0.00182741 0)
(-0.000146387 -0.00194922 0)
(-0.000164079 -0.00206702 0)
(-0.000182078 -0.00218078 0)
(-0.000200274 -0.00229049 0)
(-0.000218557 -0.00239616 0)
(-0.00023682 -0.00249778 0)
(-0.000254959 -0.00259541 0)
(-0.00027287 -0.00268907 0)
(-0.000290455 -0.00277882 0)
(-0.000307616 -0.00286473 0)
(-0.000324259 -0.00294688 0)
(-0.000340291 -0.00302537 0)
(-0.000355624 -0.00310029 0)
(-0.000370169 -0.00317177 0)
(-0.000383842 -0.00323994 0)
(-0.000396559 -0.00330493 0)
(-0.000408238 -0.0033669 0)
(-0.000418801 -0.003426 0)
(-0.000428166 -0.00348243 0)
(-0.000436257 -0.00353633 0)
(-0.000442995 -0.00358793 0)
(-0.000448298 -0.0036374 0)
(-0.000452087 -0.00368497 0)
(-0.000454275 -0.0037308 0)
(-0.000454776 -0.00377516 0)
(-0.000453491 -0.00381821 0)
(-0.000450324 -0.00386023 0)
(-0.000445158 -0.00390132 0)
(-0.000437874 -0.00394184 0)
(-0.000428328 -0.0039818 0)
(-0.000416373 -0.0040216 0)
(-0.000401826 -0.00406114 0)
(-0.000384496 -0.00410089 0)
(-0.000364123 -0.00414058 0)
(-0.000340409 -0.00418084 0)
(-0.000313049 -0.00422099 0)
(-0.000282004 -0.00426173 0)
(-4.50238e-08 -7.25725e-05 0)
(-6.65579e-07 -0.000216699 0)
(-1.97944e-06 -0.000359566 0)
(-3.9676e-06 -0.000500938 0)
(-6.57925e-06 -0.000640598 0)
(-9.76488e-06 -0.000778347 0)
(-1.34768e-05 -0.000914007 0)
(-1.76654e-05 -0.00104741 0)
(-2.22776e-05 -0.00117842 0)
(-2.72579e-05 -0.0013069 0)
(-3.25481e-05 -0.00143274 0)
(-3.8089e-05 -0.00155585 0)
(-4.3819e-05 -0.00167612 0)
(-4.96766e-05 -0.0017935 0)
(-5.55982e-05 -0.00190792 0)
(-6.15214e-05 -0.00201933 0)
(-6.73815e-05 -0.00212771 0)
(-7.31168e-05 -0.00223303 0)
(-7.86622e-05 -0.00233527 0)
(-8.3958e-05 -0.00243446 0)
(-8.89398e-05 -0.00253059 0)
(-9.35511e-05 -0.00262369 0)
(-9.77286e-05 -0.00271382 0)
(-0.000101421 -0.00280101 0)
(-0.000104565 -0.00288534 0)
(-0.000107116 -0.00296689 0)
(-0.000109014 -0.00304575 0)
(-0.000110219 -0.00312202 0)
(-0.000110672 -0.00319583 0)
(-0.000110345 -0.00326732 0)
(-0.000109176 -0.00333665 0)
(-0.000107146 -0.00340398 0)
(-0.000104192 -0.00346952 0)
(-0.000100307 -0.00353348 0)
(-9.54223e-05 -0.0035961 0)
(-8.95401e-05 -0.00365763 0)
(-8.25831e-05 -0.00371837 0)
(-7.45632e-05 -0.00377861 0)
(-6.53881e-05 -0.00383874 0)
(-5.50752e-05 -0.00389908 0)
(-4.35107e-05 -0.00396011 0)
(-3.07103e-05 -0.00402221 0)
(-1.65331e-05 -0.00408597 0)
(-9.84481e-07 -0.00415181 0)
(1.61083e-05 -0.00422049 0)
(3.48078e-05 -0.0042924 0)
(5.54395e-05 -0.00436852 0)
(7.83442e-05 -0.00444906 0)
(0.000103072 -0.0045362 0)
(0.00012531 -0.00463192 0)
(-4.36263e-09 -7.33034e-05 0)
(-3.21532e-08 -0.000218236 0)
(-1.05213e-07 -0.000361424 0)
(-2.31547e-07 -0.000502781 0)
(-4.16223e-07 -0.000642229 0)
(-6.60148e-07 -0.000779687 0)
(-9.57661e-07 -0.000915083 0)
(-1.29958e-06 -0.00104835 0)
(-1.67103e-06 -0.00117942 0)
(-2.05484e-06 -0.00130824 0)
(-2.42891e-06 -0.00143476 0)
(-2.76992e-06 -0.00155893 0)
(-3.05009e-06 -0.00168072 0)
(-3.24155e-06 -0.0018001 0)
(-3.31219e-06 -0.00191704 0)
(-3.23103e-06 -0.00203151 0)
(-2.96292e-06 -0.00214352 0)
(-2.47518e-06 -0.00225305 0)
(-1.73085e-06 -0.00236011 0)
(-6.97016e-07 -0.0024647 0)
(6.63821e-07 -0.00256685 0)
(2.38313e-06 -0.00266656 0)
(4.49758e-06 -0.00276388 0)
(7.03519e-06 -0.00285884 0)
(1.00302e-05 -0.0029515 0)
(1.35048e-05 -0.00304189 0)
(1.7489e-05 -0.0031301 0)
(2.19958e-05 -0.00321617 0)
(2.7049e-05 -0.00330023 0)
(3.26483e-05 -0.00338231 0)
(3.8809e-05 -0.0034626 0)
(4.55126e-05 -0.00354113 0)
(5.27627e-05 -0.00361815 0)
(6.05163e-05 -0.00369366 0)
(6.87625e-05 -0.00376803 0)
(7.74261e-05 -0.00384122 0)
(8.64781e-05 -0.00391374 0)
(9.58024e-05 -0.0039855 0)
(0.000105348 -0.00405722 0)
(0.00011495 -0.00412868 0)
(0.000124528 -0.00420095 0)
(0.000133847 -0.00427361 0)
(0.00014277 -0.00434822 0)
(0.000151032 -0.00442398 0)
(0.00015872 -0.00450316 0)
(0.00016605 -0.00458442 0)
(0.00017223 -0.00467164 0)
(0.000170312 -0.00476402 0)
(0.000141367 -0.00480816 0)
(9.68109e-05 -0.00484895 0)
(2.22537e-08 -7.24702e-05 0)
(2.50547e-07 -0.000215829 0)
(6.89318e-07 -0.00035753 0)
(1.31055e-06 -0.000497506 0)
(2.08026e-06 -0.000635697 0)
(2.96871e-06 -0.000772041 0)
(3.95429e-06 -0.000906487 0)
(5.0164e-06 -0.00103898 0)
(6.13956e-06 -0.00116949 0)
(7.30755e-06 -0.00129795 0)
(8.50924e-06 -0.00142435 0)
(9.73169e-06 -0.00154865 0)
(1.09676e-05 -0.00167083 0)
(1.22065e-05 -0.00179086 0)
(1.34445e-05 -0.00190872 0)
(1.46728e-05 -0.00202441 0)
(1.58913e-05 -0.00213791 0)
(1.7092e-05 -0.00224922 0)
(1.82786e-05 -0.00235834 0)
(1.94434e-05 -0.00246528 0)
(2.05942e-05 -0.00257003 0)
(2.17222e-05 -0.00267261 0)
(2.28397e-05 -0.00277302 0)
(2.39355e-05 -0.00287127 0)
(2.50261e-05 -0.00296738 0)
(2.60959e-05 -0.00306134 0)
(2.71656e-05 -0.00315317 0)
(2.8212e-05 -0.00324285 0)
(2.92591e-05 -0.00333039 0)
(3.02724e-05 -0.00341576 0)
(3.12775e-05 -0.00349898 0)
(3.22239e-05 -0.00357995 0)
(3.31357e-05 -0.00365871 0)
(3.39408e-05 -0.00373511 0)
(3.46568e-05 -0.00380921 0)
(3.5184e-05 -0.00388077 0)
(3.55264e-05 -0.0039499 0)
(3.55517e-05 -0.00401621 0)
(3.52369e-05 -0.00407996 0)
(3.44016e-05 -0.0041405 0)
(3.29565e-05 -0.00419836 0)
(3.07082e-05 -0.00425249 0)
(2.77532e-05 -0.00430384 0)
(2.44098e-05 -0.00435066 0)
(2.01619e-05 -0.00439483 0)
(8.9901e-06 -0.0044346 0)
(-2.62269e-05 -0.00446251 0)
(-8.52397e-05 -0.00447197 0)
(-0.000142439 -0.00441064 0)
(-0.000202318 -0.00429661 0)
(5.39897e-08 -7.67341e-05 0)
(3.28379e-07 -0.000227457 0)
(8.36111e-07 -0.000375488 0)
(1.55365e-06 -0.00052087 0)
(2.4621e-06 -0.000663635 0)
(3.5432e-06 -0.000803797 0)
(4.7745e-06 -0.000941366 0)
(6.13018e-06 -0.00107634 0)
(7.57874e-06 -0.00120872 0)
(9.08726e-06 -0.0013385 0)
(1.06181e-05 -0.00146567 0)
(1.21334e-05 -0.00159023 0)
(1.35919e-05 -0.00171219 0)
(1.49527e-05 -0.00183154 0)
(1.61727e-05 -0.0019483 0)
(1.72093e-05 -0.00206246 0)
(1.80199e-05 -0.00217407 0)
(1.85614e-05 -0.00228311 0)
(1.87935e-05 -0.00238965 0)
(1.8673e-05 -0.00249369 0)
(1.81642e-05 -0.0025953 0)
(1.72244e-05 -0.00269447 0)
(1.58239e-05 -0.00279131 0)
(1.39205e-05 -0.00288579 0)
(1.14928e-05 -0.00297803 0)
(8.49834e-06 -0.00306799 0)
(4.92549e-06 -0.00315582 0)
(7.30912e-07 -0.00324141 0)
(-4.08604e-06 -0.00332497 0)
(-9.57093e-06 -0.00340629 0)
(-1.57127e-05 -0.00348568 0)
(-2.25606e-05 -0.00356276 0)
(-3.00924e-05 -0.00363797 0)
(-3.83628e-05 -0.00371069 0)
(-4.73396e-05 -0.00378159 0)
(-5.7084e-05 -0.00384969 0)
(-6.75566e-05 -0.00391598 0)
(-7.88309e-05 -0.00397898 0)
(-9.08891e-05 -0.00404021 0)
(-0.000103846 -0.00409743 0)
(-0.0001176 -0.00415293 0)
(-0.000131747 -0.0042033 0)
(-0.000145405 -0.00425202 0)
(-0.000160328 -0.00429497 0)
(-0.000188808 -0.00433982 0)
(-0.000253379 -0.00432589 0)
(-0.000326347 -0.004282 0)
(-0.000391397 -0.00416133 0)
(-0.000506702 -0.00395582 0)
(-0.000651682 -0.00331818 0)
(5.74182e-08 -7.49234e-05 0)
(1.22426e-06 -0.000223368 0)
(3.69157e-06 -0.000370133 0)
(7.39702e-06 -0.000514975 0)
(1.21983e-05 -0.000657678 0)
(1.79628e-05 -0.000798049 0)
(2.45704e-05 -0.000935912 0)
(3.1907e-05 -0.00107112 0)
(3.98576e-05 -0.00120353 0)
(4.83105e-05 -0.00133305 0)
(5.71519e-05 -0.00145955 0)
(6.62732e-05 -0.00158298 0)
(7.55621e-05 -0.00170327 0)
(8.49138e-05 -0.00182037 0)
(9.4217e-05 -0.00193425 0)
(0.000103371 -0.00204489 0)
(0.000112266 -0.00215229 0)
(0.000120805 -0.00225647 0)
(0.000128879 -0.00235743 0)
(0.000136398 -0.00245522 0)
(0.000143251 -0.00254987 0)
(0.000149358 -0.00264143 0)
(0.000154605 -0.00272997 0)
(0.000158924 -0.00281554 0)
(0.000162198 -0.00289821 0)
(0.000164371 -0.00297803 0)
(0.000165325 -0.0030551 0)
(0.000165021 -0.00312941 0)
(0.000163336 -0.00320112 0)
(0.00016025 -0.00327013 0)
(0.00015564 -0.00333665 0)
(0.000149506 -0.00340046 0)
(0.000141724 -0.00346184 0)
(0.000132319 -0.0035204 0)
(0.000121174 -0.00357654 0)
(0.000108331 -0.00362958 0)
(9.36715e-05 -0.00368013 0)
(7.72064e-05 -0.00372713 0)
(5.88689e-05 -0.00377145 0)
(3.9091e-05 -0.00381146 0)
(1.89475e-05 -0.00384834 0)
(-1.7067e-06 -0.00387988 0)
(-3.22541e-05 -0.0039093 0)
(-0.000102478 -0.00393627 0)
(-0.000195844 -0.00395834 0)
(-0.000285313 -0.0038829 0)
(-0.000384736 -0.003752 0)
(-0.000457111 -0.00261396 0)
(-0.000396577 -0.000813391 0)
(-0.000596509 -0.0048607 0)
(3.88017e-07 -9.56515e-05 0)
(2.72567e-06 -0.00028107 0)
(7.05566e-06 -0.000460715 0)
(1.31481e-05 -0.000634676 0)
(2.07845e-05 -0.000803023 0)
(2.97837e-05 -0.000965809 0)
(3.9978e-05 -0.00112308 0)
(5.11981e-05 -0.00127487 0)
(6.32688e-05 -0.00142121 0)
(7.6015e-05 -0.00156212 0)
(8.92569e-05 -0.00169764 0)
(0.000102818 -0.00182778 0)
(0.000116516 -0.00195259 0)
(0.000130174 -0.00207209 0)
(0.000143607 -0.00218632 0)
(0.000156641 -0.00229533 0)
(0.000169089 -0.00239916 0)
(0.000180779 -0.00249789 0)
(0.000191523 -0.00259157 0)
(0.000201154 -0.00268028 0)
(0.000209482 -0.00276409 0)
(0.000216348 -0.0028431 0)
(0.000221563 -0.0029174 0)
(0.000224982 -0.00298711 0)
(0.000226413 -0.00305231 0)
(0.000225734 -0.00311317 0)
(0.000222757 -0.00316973 0)
(0.000217389 -0.00322222 0)
(0.00020945 -0.00327064 0)
(0.000198892 -0.0033153 0)
(0.000185549 -0.00335611 0)
(0.000169435 -0.00339347 0)
(0.000150408 -0.0034272 0)
(0.000128572 -0.0034578 0)
(0.00010382 -0.00348492 0)
(7.6342e-05 -0.00350925 0)
(4.60382e-05 -0.00353018 0)
(1.33479e-05 -0.00354865 0)
(-2.10172e-05 -0.00356363 0)
(-5.51128e-05 -0.00357635 0)
(-9.05429e-05 -0.00358546 0)
(-0.000143693 -0.00359387 0)
(-0.000248887 -0.00360071 0)
(-0.000362445 -0.00360041 0)
(-0.000420158 -0.00354123 0)
(-0.000453505 -0.00232376 0)
(-0.000470562 -0.00282644 0)
(-0.000387747 -0.00441055 0)
(-5.5871e-05 0.00143193 0)
(-5.17388e-05 0.000554119 0)
(1.11322e-07 -0.000100693 0)
(3.07057e-06 -0.000297114 0)
(9.39919e-06 -0.00048809 0)
(1.89427e-05 -0.000673206 0)
(3.13296e-05 -0.00085211 0)
(4.621e-05 -0.0010245 0)
(6.32802e-05 -0.00119012 0)
(8.22479e-05 -0.00134874 0)
(0.000102836 -0.00150019 0)
(0.000124764 -0.00164431 0)
(0.00014777 -0.00178097 0)
(0.000171582 -0.00191007 0)
(0.000195951 -0.00203154 0)
(0.000220612 -0.00214533 0)
(0.000245322 -0.00225138 0)
(0.000269818 -0.00234971 0)
(0.00029386 -0.00244029 0)
(0.00031718 -0.00252317 0)
(0.000339538 -0.00259838 0)
(0.000360653 -0.00266599 0)
(0.000380279 -0.00272609 0)
(0.000398119 -0.00277879 0)
(0.000413917 -0.00282422 0)
(0.000427349 -0.00286256 0)
(0.000438149 -0.00289402 0)
(0.000445959 -0.00291883 0)
(0.0004505 -0.00293729 0)
(0.000451373 -0.00294973 0)
(0.000448284 -0.00295656 0)
(0.000440792 -0.00295822 0)
(0.000428585 -0.00295526 0)
(0.000411175 -0.00294831 0)
(0.000388241 -0.00293809 0)
(0.000359237 -0.00292541 0)
(0.000323817 -0.00291129 0)
(0.000281357 -0.00289677 0)
(0.00023163 -0.00288319 0)
(0.000174508 -0.00287191 0)
(0.000110426 -0.00286468 0)
(3.64192e-05 -0.00286348 0)
(-6.14194e-05 -0.00287106 0)
(-0.000199323 -0.00288971 0)
(-0.000341792 -0.00292568 0)
(-0.000453475 -0.00299072 0)
(-0.00064191 -0.00344165 0)
(-0.000671568 -0.00417545 0)
(0.000266374 -0.00440603 0)
(0.0010075 -0.00598576 0)
(0.00209061 -0.00716235 0)
(0.00317776 -0.00790488 0)
(9.69706e-07 -0.000145181 0)
(6.83421e-06 -0.000421068 0)
(1.75528e-05 -0.000682826 0)
(3.24871e-05 -0.000930802 0)
(5.10368e-05 -0.00116532 0)
(7.27376e-05 -0.00138667 0)
(9.71941e-05 -0.00159512 0)
(0.000124045 -0.00179094 0)
(0.000152943 -0.00197433 0)
(0.00018357 -0.00214551 0)
(0.000215615 -0.00230466 0)
(0.000248801 -0.00245193 0)
(0.00028285 -0.00258746 0)
(0.00031751 -0.00271133 0)
(0.000352523 -0.00282365 0)
(0.000387655 -0.00292446 0)
(0.00042265 -0.00301379 0)
(0.000457278 -0.00309164 0)
(0.000491271 -0.00315799 0)
(0.000524388 -0.00321277 0)
(0.00055633 -0.00325594 0)
(0.000586828 -0.00328735 0)
(0.000615534 -0.00330691 0)
(0.000642127 -0.00331443 0)
(0.000666191 -0.00330978 0)
(0.000687332 -0.00329272 0)
(0.000705033 -0.00326307 0)
(0.000718801 -0.00322056 0)
(0.000727994 -0.00316499 0)
(0.000731983 -0.00309607 0)
(0.000729963 -0.00301358 0)
(0.000721132 -0.00291725 0)
(0.000704479 -0.00280684 0)
(0.000678969 -0.00268212 0)
(0.000643339 -0.00254288 0)
(0.000596325 -0.00238898 0)
(0.000536531 -0.00222024 0)
(0.000462356 -0.00203671 0)
(0.000370576 -0.00183827 0)
(0.000254148 -0.00162532 0)
(0.000112207 -0.00139757 0)
(-4.79e-05 -0.00111756 0)
(-0.00022111 -0.00122044 0)
(-0.000546526 -0.00273652 0)
(-0.000768477 -0.00444772 0)
(-0.000795482 -0.0200945 0)
(-0.000326747 -0.0184571 0)
(-0.00074767 -0.0305096 0)
(0.000517361 -0.0284691 0)
(0.00074524 -0.0261098 0)
(-1.07346e-07 -0.000167115 0)
(1.90761e-06 -0.000483179 0)
(6.16412e-06 -0.000781315 0)
(1.23568e-05 -0.00106186 0)
(1.98937e-05 -0.00132519 0)
(2.82516e-05 -0.00157172 0)
(3.70063e-05 -0.00180186 0)
(4.58111e-05 -0.00201605 0)
(5.43766e-05 -0.00221466 0)
(6.24657e-05 -0.0023981 0)
(6.98872e-05 -0.00256669 0)
(7.64938e-05 -0.00272075 0)
(8.21749e-05 -0.00286052 0)
(8.68549e-05 -0.00298622 0)
(9.04873e-05 -0.00309796 0)
(9.3052e-05 -0.00319584 0)
(9.45517e-05 -0.00327984 0)
(9.50074e-05 -0.00334991 0)
(9.44585e-05 -0.00340585 0)
(9.29539e-05 -0.00344747 0)
(9.05591e-05 -0.00347435 0)
(8.7339e-05 -0.00348614 0)
(8.33757e-05 -0.0034822 0)
(7.87387e-05 -0.00346197 0)
(7.35194e-05 -0.00342457 0)
(6.77811e-05 -0.0033692 0)
(6.16176e-05 -0.0032947 0)
(5.50755e-05 -0.00320002 0)
(4.82466e-05 -0.00308364 0)
(4.11502e-05 -0.00294425 0)
(3.38723e-05 -0.00277995 0)
(2.63954e-05 -0.00258904 0)
(1.87984e-05 -0.00236924 0)
(1.10205e-05 -0.00211838 0)
(3.13586e-06 -0.00183374 0)
(-4.9714e-06 -0.00151255 0)
(-1.3273e-05 -0.00115165 0)
(-2.19971e-05 -0.000747435 0)
(-3.09683e-05 -0.000296401 0)
(-3.93772e-05 0.000206397 0)
(-4.56072e-05 0.000765051 0)
(-5.15763e-05 0.00138618 0)
(-9.1049e-05 0.00176053 0)
(-0.000186995 0.00232981 0)
(-0.000388241 0.0020317 0)
(-0.000959369 -0.000448977 0)
(-0.00157479 -0.000694452 0)
(-0.00248821 -0.0236005 0)
(-0.00288899 -0.0236783 0)
(-0.0042807 -0.0295068 0)
(1.3754e-06 -0.000191389 0)
(6.85377e-06 -0.000537451 0)
(1.41096e-05 -0.000852299 0)
(2.14133e-05 -0.00113851 0)
(2.74571e-05 -0.0013984 0)
(3.13416e-05 -0.00163406 0)
(3.2439e-05 -0.00184743 0)
(3.03036e-05 -0.00204025 0)
(2.46483e-05 -0.00221413 0)
(1.53061e-05 -0.00237051 0)
(2.22772e-06 -0.0025107 0)
(-1.4559e-05 -0.00263585 0)
(-3.49384e-05 -0.00274698 0)
(-5.87491e-05 -0.002845 0)
(-8.57598e-05 -0.00293068 0)
(-0.000115716 -0.00300469 0)
(-0.000148301 -0.00306756 0)
(-0.000183193 -0.00311975 0)
(-0.00022001 -0.0031616 0)
(-0.000258375 -0.00319335 0)
(-0.000297854 -0.00321516 0)
(-0.000338023 -0.0032271 0)
(-0.000378396 -0.00322914 0)
(-0.000418508 -0.00322118 0)
(-0.000457824 -0.00320306 0)
(-0.000495835 -0.00317449 0)
(-0.000531957 -0.00313521 0)
(-0.000565635 -0.00308477 0)
(-0.000596238 -0.00302281 0)
(-0.000623162 -0.00294875 0)
(-0.00064573 -0.0028622 0)
(-0.000663292 -0.00276243 0)
(-0.000675134 -0.00264912 0)
(-0.000680563 -0.00252135 0)
(-0.000678843 -0.00237906 0)
(-0.00066926 -0.0022211 0)
(-0.000651082 -0.00204788 0)
(-0.000623592 -0.00185794 0)
(-0.000586072 -0.00165254 0)
(-0.000537857 -0.00142975 0)
(-0.000478694 -0.00119239 0)
(-0.000408686 -0.000937791 0)
(-0.000329909 -0.000671117 0)
(-0.00024418 -0.000383194 0)
(-0.000204569 -0.000643006 0)
(-0.00022248 -0.000987261 0)
(-0.000331141 -0.00113018 0)
(-0.000813503 -0.00301215 0)
(-0.000781601 0.000100252 0)
(-0.00467244 -0.0480906 0)
(6.9203e-05 -0.00022375 0)
(0.000196521 -0.000601925 0)
(0.00029381 -0.000919035 0)
(0.000365666 -0.0011851 0)
(0.000416494 -0.0014084 0)
(0.000449438 -0.00159575 0)
(0.000466724 -0.00175285 0)
(0.000470245 -0.0018845 0)
(0.000461691 -0.0019947 0)
(0.00044257 -0.00208684 0)
(0.000414211 -0.00216372 0)
(0.000377797 -0.00222771 0)
(0.000334372 -0.00228076 0)
(0.000284881 -0.00232451 0)
(0.000230167 -0.00236029 0)
(0.000171004 -0.00238923 0)
(0.000108094 -0.0024122 0)
(4.20993e-05 -0.00242993 0)
(-2.6373e-05 -0.00244296 0)
(-9.67314e-05 -0.00245169 0)
(-0.000168421 -0.00245641 0)
(-0.000240883 -0.00245726 0)
(-0.000313583 -0.00245427 0)
(-0.000385957 -0.00244736 0)
(-0.000457462 -0.00243634 0)
(-0.000527498 -0.00242087 0)
(-0.000595484 -0.0024005 0)
(-0.000660749 -0.00237465 0)
(-0.000722644 -0.00234255 0)
(-0.00078039 -0.00230327 0)
(-0.000833241 -0.00225567 0)
(-0.000880267 -0.00219838 0)
(-0.00092059 -0.00212973 0)
(-0.000953076 -0.00204774 0)
(-0.000976673 -0.00195001 0)
(-0.00098998 -0.00183376 0)
(-0.000991715 -0.00169553 0)
(-0.000980138 -0.00153135 0)
(-0.000953672 -0.00133636 0)
(-0.000910111 -0.00110485 0)
(-0.000847344 -0.000829909 0)
(-0.000762354 -0.000503321 0)
(-0.000652968 -0.000115189 0)
(-0.000518413 0.000346375 0)
(-0.000363392 0.000894598 0)
(-0.000202488 0.00155248 0)
(-2.68611e-05 0.00252097 0)
(0.000136806 0.0034072 0)
(0.000295465 0.0047319 0)
(0.000419942 0.00694125 0)
(0.0181046 0.0142703 0)
(0.0185513 0.0144498 0)
(0.0189296 0.0145557 0)
(0.0192396 0.0146537 0)
(0.0194894 0.0146788 0)
(0.0196887 0.0146433 0)
(0.0198454 0.0145626 0)
(0.0199658 0.0144527 0)
(0.0200548 0.0143463 0)
(0.0201164 0.0142378 0)
(0.0201554 0.01415 0)
(0.020173 0.014083 0)
(0.0201754 0.0140085 0)
(0.0201854 0.0139114 0)
(0.0201732 0.0137263 0)
(0.0200986 0.0134844 0)
(0.019977 0.0132153 0)
(0.0198283 0.0129361 0)
(0.0196591 0.0126566 0)
(0.0194719 0.0123697 0)
(0.0192711 0.012079 0)
(0.0190608 0.0117877 0)
(0.0188439 0.0114945 0)
(0.0186231 0.0111979 0)
(0.0184008 0.0108962 0)
(0.0181788 0.0105924 0)
(0.0179584 0.0102972 0)
(0.017741 0.0100059 0)
(0.0175277 0.00970997 0)
(0.0173188 0.0094162 0)
(0.0171158 0.00912818 0)
(0.0169204 0.00884691 0)
(0.0167352 0.00857127 0)
(0.0165621 0.0083014 0)
(0.0164022 0.00803774 0)
(0.0162558 0.00778101 0)
(0.016123 0.00753194 0)
(0.016004 0.00729135 0)