/*--------------------------------*- C++ -*----------------------------------*\
| =========                 |                                                 |
| \\      /  F ield         | OpenFOAM: The Open Source CFD Toolbox           |
|  \\    /   O peration     | Version:  2.4.0                                 |
|   \\  /    A nd           | Web:      www.OpenFOAM.org                      |
|    \\/     M anipulation  |                                                 |
\*---------------------------------------------------------------------------*/
FoamFile
{
    version     2.0;
    format      ascii;
    class       volScalarField;
    location    "0.004";
    object      alpha1;
}
// * * * * * * * * * * * * * * * * * * * * * * * * * * * * * * * * * * * * * //

dimensions      [0 0 0 0 0 0 0];

internalField   nonuniform List<scalar> 
125
(
1
1
0.170098
1.3066e-75
1.53905e-81
1.95104e-87
2.47581e-93
2.87792e-99
2.93448e-105
2.59276e-111
1.98388e-117
1.31693e-123
7.59058e-130
3.79399e-136
1.63791e-142
6.06339e-149
1.90336e-155
4.98465e-162
1.06375e-168
1.78667e-175
2.23756e-182
1.90488e-189
9.12121e-197
1.38146e-204
0
0
0
0
0
0
0
0
0
0
0
0
0
0
0
0
0
0
0
0
0
0
0
0
0
0
0
0
0
0
0
0
0
0
0
0
0
0
0
0
0
0
0
0
0
0
0
0
0
0
0
0
0
0
0
0
0
0
0
0
0
0
0
0
0
0
0
0
0
0
0
0
0
0
0
0
0
0
0
0
0
0
0
0
0
0
0
0
0
0
0
0
0
0
0
0
0
0
0
0
0
)
;

boundaryField
{
    BotWall
    {
        type            fixedValue;
        value           uniform 1;
    }
    FreeStream
    {
        type            inletOutlet;
        inletValue      uniform 0;
        value           uniform 0;
    }
    FrontNBack
    {
        type            empty;
    }
    LeftSide
    {
        type            symmetryPlane;
    }
    RightSide
    {
        type            symmetryPlane;
    }
    procBoundary4to1
    {
        type            processor;
        value           uniform 0;
    }
    procBoundary4to2
    {
        type            processor;
        value           nonuniform List<scalar> 
75
(
1
1
0.157073
6.30554e-79
1.09445e-84
1.81044e-90
2.76852e-96
3.68221e-102
4.16542e-108
3.99417e-114
3.2532e-120
2.26467e-126
1.35266e-132
6.94179e-139
3.05507e-145
1.14655e-151
3.6335e-158
9.57569e-165
2.05137e-171
3.45239e-178
4.32661e-185
3.6823e-192
1.7615e-199
2.66405e-207
0
0
0
0
0
0
0
0
0
0
0
0
0
0
0
0
0
0
0
0
0
0
0
0
0
0
0
0
0
0
0
0
0
0
0
0
0
0
0
0
0
0
0
0
0
0
0
0
0
0
0
)
;
    }
    procBoundary4to3
    {
        type            processor;
        value           uniform 0;
    }
    procBoundary4to5
    {
        type            processor;
        value           uniform 0;
    }
    procBoundary4to6
    {
        type            processor;
        value           uniform 0;
    }
    procBoundary4to7
    {
        type            processor;
        value           nonuniform List<scalar> 
50
(
1
1
0.170797
4.67966e-78
3.20904e-84
2.67408e-90
2.65482e-96
2.6697e-102
2.46697e-108
2.02711e-114
1.46195e-120
9.2441e-127
5.10433e-133
2.45456e-139
1.02404e-145
3.67828e-152
1.12467e-158
2.8796e-165
6.02212e-172
9.93139e-179
1.22341e-185
1.02553e-192
4.83951e-200
7.23038e-208
0
0
0
0
0
0
0
0
0
0
0
0
0
0
0
0
0
0
0
0
0
0
0
0
0
0
)
;
    }
}


// ************************************************************************* //
