/*--------------------------------*- C++ -*----------------------------------*\
| =========                 |                                                 |
| \\      /  F ield         | OpenFOAM: The Open Source CFD Toolbox           |
|  \\    /   O peration     | Version:  2.4.0                                 |
|   \\  /    A nd           | Web:      www.OpenFOAM.org                      |
|    \\/     M anipulation  |                                                 |
\*---------------------------------------------------------------------------*/
FoamFile
{
    version     2.0;
    format      ascii;
    class       volScalarField;
    location    "0.004";
    object      p;
}
// * * * * * * * * * * * * * * * * * * * * * * * * * * * * * * * * * * * * * //

dimensions      [1 -1 -2 0 0 0 0];

internalField   nonuniform List<scalar> 
125
(
-0.0430607
0.0526759
-0.746583
-0.109195
0.0080129
-0.0114641
-0.0267866
-0.0298448
-0.0292255
-0.0287778
-0.0287949
-0.0289478
-0.0290937
-0.0292222
-0.0293462
-0.029471
-0.0295969
-0.0297234
-0.0298504
-0.0299778
-0.0301057
-0.0302341
-0.0303629
-0.0304922
-0.030622
-0.0307523
-0.030883
-0.0310142
-0.0311459
-0.0312781
-0.0314107
-0.0315439
-0.0316775
-0.0318116
-0.0319462
-0.0320813
-0.0322169
-0.032353
-0.0324896
-0.0326267
-0.0327643
-0.0329024
-0.033041
-0.0331802
-0.0333198
-0.0334599
-0.0336006
-0.0337417
-0.0338834
-0.0340256
-0.0341684
-0.0343116
-0.0344554
-0.0345997
-0.0347445
-0.0348899
-0.0350358
-0.0351822
-0.0353292
-0.0354767
-0.0356247
-0.0357733
-0.0359224
-0.0360721
-0.0362223
-0.0363731
-0.0365244
-0.0366763
-0.0368288
-0.0369818
-0.0371353
-0.0372895
-0.0374442
-0.0375994
-0.0377552
-0.0379116
-0.0380686
-0.0382262
-0.0383843
-0.038543
-0.0387023
-0.0388622
-0.0390226
-0.0391837
-0.0393453
-0.0395075
-0.0396704
-0.0398338
-0.0399978
-0.0401624
-0.0403277
-0.0404935
-0.0406599
-0.040827
-0.0409947
-0.041163
-0.0413318
-0.0415014
-0.0416715
-0.0418422
-0.0841246
-0.0844517
-0.0847799
-0.0851094
-0.0854401
-0.085772
-0.0861051
-0.0864395
-0.086775
-0.0871119
-0.0874499
-0.0877892
-0.0881298
-0.0884716
-0.0888146
-0.089159
-0.0895046
-0.0898514
-0.0901996
-0.090549
-0.0908997
-0.0912518
-0.0916051
-0.0919597
-0.0923149
)
;

boundaryField
{
    BotWall
    {
        type            calculated;
        value           uniform -0.0381173;
    }
    FreeStream
    {
        type            calculated;
        value           uniform -0.0924926;
    }
    FrontNBack
    {
        type            empty;
    }
    LeftSide
    {
        type            symmetryPlane;
    }
    RightSide
    {
        type            symmetryPlane;
    }
    procBoundary4to1
    {
        type            processor;
        value           nonuniform List<scalar> 
50
(
-0.0343335
-0.0344757
-0.0346185
-0.0347618
-0.0349056
-0.03505
-0.0351949
-0.0353403
-0.0354863
-0.0356328
-0.0357798
-0.0359274
-0.0360756
-0.0362242
-0.0363735
-0.0365233
-0.0366736
-0.0368245
-0.036976
-0.037128
-0.0372806
-0.0374338
-0.0375875
-0.0377418
-0.0378967
-0.0380521
-0.0382081
-0.0383647
-0.0385219
-0.0386797
-0.038838
-0.0389969
-0.0391565
-0.0393166
-0.0394773
-0.0396386
-0.0398005
-0.039963
-0.0401261
-0.0402898
-0.0404541
-0.040619
-0.0407845
-0.0409507
-0.0411174
-0.0412848
-0.0414528
-0.0416214
-0.0417906
-0.0419605
)
;
    }
    procBoundary4to2
    {
        type            processor;
        value           nonuniform List<scalar> 
75
(
-0.0419894
0.0402798
-0.714439
-0.104284
0.00665888
-0.0122676
-0.0270706
-0.0300066
-0.0294058
-0.0289767
-0.0289972
-0.0291484
-0.0292926
-0.0294201
-0.0295432
-0.0296671
-0.0297921
-0.0299177
-0.0300438
-0.0301703
-0.0302973
-0.0304248
-0.0305527
-0.0306811
-0.03081
-0.0309394
-0.0310692
-0.0311996
-0.0313304
-0.0314616
-0.0315934
-0.0317257
-0.0318584
-0.0319917
-0.0321254
-0.0322596
-0.0323944
-0.0325296
-0.0326653
-0.0328015
-0.0329383
-0.0330755
-0.0332132
-0.0333515
-0.0334903
-0.0336296
-0.0337693
-0.0339096
-0.0340504
-0.0341917
-0.0841309
-0.0844577
-0.0847857
-0.0851149
-0.0854453
-0.085777
-0.0861098
-0.0864439
-0.0867792
-0.0871157
-0.0874535
-0.0877925
-0.0881328
-0.0884743
-0.0888171
-0.0891611
-0.0895064
-0.089853
-0.0902009
-0.09055
-0.0909004
-0.0912522
-0.0916052
-0.0919595
-0.0923144
)
;
    }
    procBoundary4to3
    {
        type            processor;
        value           uniform -0.0420135;
    }
    procBoundary4to5
    {
        type            processor;
        value           uniform -0.0837987;
    }
    procBoundary4to6
    {
        type            processor;
        value           nonuniform List<scalar> 
75
(
-0.0307058
-0.0308365
-0.0309677
-0.0310993
-0.0312315
-0.0313641
-0.0314972
-0.0316308
-0.0317649
-0.0318994
-0.0320345
-0.0321701
-0.0323062
-0.0324428
-0.0325798
-0.0327174
-0.0328555
-0.0329941
-0.0331332
-0.0332728
-0.033413
-0.0335536
-0.0336948
-0.0338365
-0.0339787
-0.0341214
-0.0342647
-0.0344085
-0.0345528
-0.0346976
-0.034843
-0.0349889
-0.0351354
-0.0352824
-0.0354299
-0.035578
-0.0357266
-0.0358757
-0.0360255
-0.0361757
-0.0363265
-0.0364779
-0.0366298
-0.0367823
-0.0369354
-0.037089
-0.0372432
-0.0373979
-0.0375532
-0.0377091
-0.0378655
-0.0380226
-0.0381802
-0.0383384
-0.0384971
-0.0386565
-0.0388164
-0.038977
-0.0391381
-0.0392998
-0.0394621
-0.039625
-0.0397885
-0.0399526
-0.0401173
-0.0402826
-0.0404485
-0.040615
-0.0407822
-0.0409499
-0.0411183
-0.0412873
-0.0414569
-0.0416271
-0.041798
)
;
    }
    procBoundary4to7
    {
        type            processor;
        value           nonuniform List<scalar> 
50
(
-0.0432602
0.0531848
-0.748297
-0.109418
0.00812315
-0.0113836
-0.0267336
-0.0297983
-0.0291781
-0.0287295
-0.0287465
-0.0288996
-0.0290456
-0.0291743
-0.0292984
-0.0294233
-0.0295493
-0.029676
-0.0298032
-0.0299307
-0.0300588
-0.0301873
-0.0303162
-0.0304456
-0.0305755
-0.0841383
-0.0844647
-0.0847922
-0.085121
-0.085451
-0.0857822
-0.0861146
-0.0864482
-0.0867831
-0.0871192
-0.0874565
-0.0877951
-0.088135
-0.088476
-0.0888184
-0.089162
-0.0895068
-0.089853
-0.0902004
-0.0905491
-0.090899
-0.0912503
-0.0916029
-0.0919567
-0.0923113
)
;
    }
}


// ************************************************************************* //
