/*--------------------------------*- C++ -*----------------------------------*\
| =========                 |                                                 |
| \\      /  F ield         | OpenFOAM: The Open Source CFD Toolbox           |
|  \\    /   O peration     | Version:  2.4.0                                 |
|   \\  /    A nd           | Web:      www.OpenFOAM.org                      |
|    \\/     M anipulation  |                                                 |
\*---------------------------------------------------------------------------*/
FoamFile
{
    version     2.0;
    format      ascii;
    class       volScalarField;
    location    "0.004";
    object      p_rgh;
}
// * * * * * * * * * * * * * * * * * * * * * * * * * * * * * * * * * * * * * //

dimensions      [1 -1 -2 0 0 0 0];

internalField   nonuniform List<scalar> 
125
(
-0.0381173
0.0675243
-0.742025
-0.10862
0.00875466
-0.0105559
-0.0257112
-0.0286018
-0.0278141
-0.0271974
-0.027045
-0.0270277
-0.0270027
-0.0269598
-0.0269117
-0.0268637
-0.0268162
-0.0267688
-0.0267211
-0.0266733
-0.0266253
-0.026577
-0.0265286
-0.0264801
-0.0264313
-0.0263824
-0.0263333
-0.026284
-0.0262345
-0.0261848
-0.026135
-0.0260849
-0.0260347
-0.0259843
-0.0259337
-0.0258829
-0.0258319
-0.0257807
-0.0257294
-0.0256778
-0.0256261
-0.0255742
-0.025522
-0.0254697
-0.0254172
-0.0253645
-0.0253116
-0.0252585
-0.0252052
-0.0251517
-0.025098
-0.0250441
-0.02499
-0.0249357
-0.0248811
-0.0248264
-0.0247715
-0.0247164
-0.0246611
-0.0246056
-0.0245498
-0.0244939
-0.0244377
-0.0243814
-0.0243248
-0.024268
-0.024211
-0.0241538
-0.0240964
-0.0240388
-0.023981
-0.0239229
-0.0238646
-0.0238061
-0.0237474
-0.0236885
-0.0236293
-0.02357
-0.0235104
-0.0234506
-0.0233906
-0.0233303
-0.0232698
-0.0232091
-0.0231482
-0.0230871
-0.0230257
-0.0229641
-0.0229022
-0.0228402
-0.0227779
-0.0227153
-0.0226526
-0.0225896
-0.0225263
-0.0224629
-0.0223992
-0.0223352
-0.022271
-0.0222066
-0.00618902
-0.00606543
-0.00594139
-0.00581689
-0.00569193
-0.00556652
-0.00544064
-0.0053143
-0.00518749
-0.00506022
-0.00493248
-0.00480427
-0.00467559
-0.00454644
-0.00441681
-0.0042867
-0.00415611
-0.00402505
-0.0038935
-0.00376146
-0.00362895
-0.00349597
-0.00336253
-0.0032285
-0.00309333
)
;

boundaryField
{
    BotWall
    {
        type            fixedFluxPressure;
        gradient        uniform 0;
        value           uniform -0.0381173;
    }
    FreeStream
    {
        type            totalPressure;
        rho             rho;
        psi             none;
        gamma           1;
        p0              uniform 0;
        value           uniform -0.00302537;
    }
    FrontNBack
    {
        type            empty;
    }
    LeftSide
    {
        type            symmetryPlane;
    }
    RightSide
    {
        type            symmetryPlane;
    }
    procBoundary4to1
    {
        type            processor;
        value           nonuniform List<scalar> 
50
(
-0.0252631
-0.0252082
-0.0251531
-0.0250978
-0.0250423
-0.0249865
-0.0249306
-0.0248745
-0.0248182
-0.0247617
-0.0247049
-0.024648
-0.0245909
-0.0245335
-0.024476
-0.0244182
-0.0243602
-0.024302
-0.0242437
-0.0241851
-0.0241262
-0.0240672
-0.024008
-0.0239485
-0.0238889
-0.023829
-0.0237689
-0.0237085
-0.023648
-0.0235873
-0.0235263
-0.0234651
-0.0234037
-0.023342
-0.0232802
-0.0232181
-0.0231558
-0.0230932
-0.0230305
-0.0229675
-0.0229043
-0.0228408
-0.0227771
-0.0227132
-0.0226491
-0.0225847
-0.0225201
-0.0224553
-0.0223902
-0.0223249
)
;
    }
    procBoundary4to2
    {
        type            processor;
        value           nonuniform List<scalar> 
75
(
-0.037046
0.0551282
-0.710199
-0.103708
0.00740065
-0.0113594
-0.0259952
-0.0287635
-0.0279944
-0.0273963
-0.0272472
-0.0272283
-0.0272016
-0.0271577
-0.0271087
-0.0270598
-0.0270115
-0.0269631
-0.0269145
-0.0268658
-0.0268169
-0.0267678
-0.0267185
-0.026669
-0.0266194
-0.0265695
-0.0265195
-0.0264693
-0.026419
-0.0263684
-0.0263177
-0.0262667
-0.0262156
-0.0261643
-0.0261129
-0.0260612
-0.0260093
-0.0259573
-0.0259051
-0.0258527
-0.0258
-0.0257472
-0.0256943
-0.0256411
-0.0255877
-0.0255341
-0.0254803
-0.0254264
-0.0253722
-0.0253177
-0.00619535
-0.0060715
-0.00594718
-0.00582241
-0.00569718
-0.00557149
-0.00544534
-0.00531872
-0.00519163
-0.00506408
-0.00493606
-0.00480756
-0.0046786
-0.00454916
-0.00441924
-0.00428885
-0.00415797
-0.00402662
-0.00389478
-0.00376245
-0.00362964
-0.00349637
-0.00336263
-0.0032283
-0.00309284
)
;
    }
    procBoundary4to3
    {
        type            processor;
        value           uniform -0.0221419;
    }
    procBoundary4to5
    {
        type            processor;
        value           uniform -0.00631216;
    }
    procBoundary4to6
    {
        type            processor;
        value           nonuniform List<scalar> 
75
(
-0.0263359
-0.0262868
-0.0262374
-0.0261879
-0.0261382
-0.0260883
-0.0260382
-0.025988
-0.0259375
-0.0258869
-0.0258361
-0.0257851
-0.0257339
-0.0256825
-0.025631
-0.0255792
-0.0255272
-0.0254751
-0.0254228
-0.0253703
-0.0253175
-0.0252646
-0.0252115
-0.0251582
-0.0251047
-0.025051
-0.0249971
-0.024943
-0.0248888
-0.0248343
-0.0247796
-0.0247247
-0.0246696
-0.0246143
-0.0245588
-0.0245031
-0.0244472
-0.0243911
-0.0243347
-0.0242782
-0.0242215
-0.0241645
-0.0241073
-0.02405
-0.0239924
-0.0239346
-0.0238766
-0.0238184
-0.0237599
-0.0237013
-0.0236424
-0.0235833
-0.023524
-0.0234645
-0.0234047
-0.0233448
-0.0232846
-0.0232242
-0.0231635
-0.0231027
-0.0230416
-0.0229803
-0.0229187
-0.022857
-0.022795
-0.0227328
-0.0226703
-0.0226076
-0.0225447
-0.0224816
-0.0224182
-0.0223546
-0.0222907
-0.0222267
-0.0221623
)
;
    }
    procBoundary4to7
    {
        type            processor;
        value           nonuniform List<scalar> 
50
(
-0.0383169
0.0680332
-0.743723
-0.108842
0.00886492
-0.0104754
-0.0256583
-0.0285553
-0.0277667
-0.0271491
-0.0269966
-0.0269794
-0.0269546
-0.0269118
-0.0268639
-0.026816
-0.0267687
-0.0267214
-0.0266739
-0.0266262
-0.0265783
-0.0265302
-0.026482
-0.0264335
-0.0263848
-0.00620272
-0.00607844
-0.00595369
-0.00582849
-0.00570283
-0.00557671
-0.00545012
-0.00532307
-0.00519555
-0.00506756
-0.0049391
-0.00481017
-0.00468077
-0.00455089
-0.00442053
-0.00428969
-0.00415837
-0.00402657
-0.00389428
-0.00376151
-0.00362825
-0.00349451
-0.0033603
-0.00322551
-0.00308978
)
;
    }
}


// ************************************************************************* //
