/*--------------------------------*- C++ -*----------------------------------*\
| =========                 |                                                 |
| \\      /  F ield         | OpenFOAM: The Open Source CFD Toolbox           |
|  \\    /   O peration     | Version:  2.4.0                                 |
|   \\  /    A nd           | Web:      www.OpenFOAM.org                      |
|    \\/     M anipulation  |                                                 |
\*---------------------------------------------------------------------------*/
FoamFile
{
    version     2.0;
    format      ascii;
    class       surfaceScalarField;
    location    "0.004";
    object      phi;
}
// * * * * * * * * * * * * * * * * * * * * * * * * * * * * * * * * * * * * * //

dimensions      [0 3 -1 0 0 0 0];

internalField   nonuniform List<scalar> 
123
(
8.44784e-16
3.17841e-15
-5.16322e-09
-5.16321e-09
-5.16318e-09
-5.16313e-09
-5.16307e-09
-5.16299e-09
-5.1629e-09
-5.16279e-09
-5.16268e-09
-5.16255e-09
-5.16242e-09
-5.16227e-09
-5.16212e-09
-5.16197e-09
-5.16181e-09
-5.16165e-09
-5.16148e-09
-5.16132e-09
-5.16115e-09
-5.16098e-09
-5.16082e-09
-5.16066e-09
-5.1605e-09
-5.16034e-09
-5.16019e-09
-5.16004e-09
-5.15989e-09
-5.15975e-09
-5.15962e-09
-5.15949e-09
-5.15936e-09
-5.15924e-09
-5.15913e-09
-5.15902e-09
-5.15891e-09
-5.15881e-09
-5.15872e-09
-5.15862e-09
-5.15853e-09
-5.15845e-09
-5.15837e-09
-5.15829e-09
-5.15822e-09
-5.15815e-09
-5.15808e-09
-5.15801e-09
-5.15795e-09
-5.15788e-09
-5.15782e-09
-5.15776e-09
-5.1577e-09
-5.15765e-09
-5.15759e-09
-5.15754e-09
-5.15748e-09
-5.15743e-09
-5.15738e-09
-5.15733e-09
-5.15728e-09
-5.15723e-09
-5.15718e-09
-5.15713e-09
-5.15708e-09
-5.15703e-09
-5.15698e-09
-5.15693e-09
-5.15689e-09
-5.15684e-09
-5.15679e-09
-5.15674e-09
-5.1567e-09
-5.15665e-09
-5.15661e-09
-5.15656e-09
-5.15651e-09
-5.15647e-09
-5.15642e-09
-5.15638e-09
-5.15633e-09
-5.15629e-09
-5.15625e-09
-5.1562e-09
-5.15616e-09
-5.15611e-09
-5.15607e-09
-5.15603e-09
-5.15598e-09
-5.15594e-09
-5.1559e-09
-5.15586e-09
-5.15581e-09
-5.15577e-09
-5.15573e-09
-5.15569e-09
-5.15565e-09
-5.15561e-09
-5.15557e-09
-5.15197e-09
-5.15196e-09
-5.15195e-09
-5.15195e-09
-5.15194e-09
-5.15193e-09
-5.15192e-09
-5.15191e-09
-5.15191e-09
-5.1519e-09
-5.1519e-09
-5.1519e-09
-5.15189e-09
-5.15189e-09
-5.1519e-09
-5.1519e-09
-5.15191e-09
-5.15191e-09
-5.15192e-09
-5.15193e-09
-5.15195e-09
-5.15196e-09
-5.15197e-09
-5.15199e-09
)
;

boundaryField
{
    BotWall
    {
        type            calculated;
        value           uniform -3.55057e-19;
    }
    FreeStream
    {
        type            calculated;
        value           uniform -5.15201e-09;
    }
    FrontNBack
    {
        type            empty;
        value           nonuniform 0();
    }
    LeftSide
    {
        type            symmetryPlane;
        value           nonuniform 0();
    }
    RightSide
    {
        type            symmetryPlane;
        value           nonuniform 0();
    }
    procBoundary4to1
    {
        type            processor;
        value           nonuniform List<scalar> 
50
(
-6.66625e-14
-6.49733e-14
-6.34568e-14
-6.2098e-14
-6.08823e-14
-5.97957e-14
-5.88247e-14
-5.79567e-14
-5.71799e-14
-5.64836e-14
-5.58577e-14
-5.52931e-14
-5.47819e-14
-5.43166e-14
-5.38908e-14
-5.34988e-14
-5.31356e-14
-5.27967e-14
-5.24785e-14
-5.21775e-14
-5.18911e-14
-5.16168e-14
-5.13525e-14
-5.10966e-14
-5.08475e-14
-5.0604e-14
-5.03652e-14
-5.01301e-14
-4.9898e-14
-4.96683e-14
-4.94407e-14
-4.92146e-14
-4.89897e-14
-4.87658e-14
-4.85427e-14
-4.83202e-14
-4.80982e-14
-4.78766e-14
-4.76553e-14
-4.74344e-14
-4.72136e-14
-4.69932e-14
-4.67729e-14
-4.6553e-14
-4.63333e-14
-4.61139e-14
-4.58948e-14
-4.56762e-14
-4.54579e-14
-4.52401e-14
)
;
    }
    procBoundary4to2
    {
        type            processor;
        value           nonuniform List<scalar> 
75
(
-9.34319e-16
-2.56976e-15
-6.98428e-15
-1.54812e-14
-3.30453e-14
-5.14931e-14
-6.90322e-14
-8.53669e-14
-1.00462e-13
-1.14314e-13
-1.26895e-13
-1.38176e-13
-1.48141e-13
-1.56788e-13
-1.64126e-13
-1.70178e-13
-1.74976e-13
-1.78565e-13
-1.80996e-13
-1.82332e-13
-1.82643e-13
-1.82003e-13
-1.80493e-13
-1.78198e-13
-1.75204e-13
-1.716e-13
-1.67474e-13
-1.62912e-13
-1.58e-13
-1.52818e-13
-1.47443e-13
-1.41948e-13
-1.36399e-13
-1.30856e-13
-1.25374e-13
-1.2e-13
-1.14776e-13
-1.09735e-13
-1.04906e-13
-1.00311e-13
-9.59653e-14
-9.18808e-14
-8.80632e-14
-8.45141e-14
-8.12315e-14
-7.82098e-14
-7.5441e-14
-7.29146e-14
-7.06185e-14
-6.85392e-14
-4.47204e-15
-4.47177e-15
-4.46853e-15
-4.45909e-15
-4.43949e-15
-4.4051e-15
-4.35077e-15
-4.2711e-15
-4.1608e-15
-4.01522e-15
-3.8309e-15
-3.6062e-15
-3.34186e-15
-3.0414e-15
-2.71131e-15
-2.36093e-15
-2.002e-15
-1.64782e-15
-1.31219e-15
-1.00824e-15
-7.47213e-16
-5.37458e-16
-3.83731e-16
-2.86853e-16
-2.42674e-16
)
;
    }
    procBoundary4to3
    {
        type            processor;
        value           uniform -5.15553e-09;
    }
    procBoundary4to5
    {
        type            processor;
        value           uniform 5.15198e-09;
    }
    procBoundary4to6
    {
        type            processor;
        value           nonuniform List<scalar> 
75
(
1.48284e-14
1.44053e-14
1.39464e-14
1.34604e-14
1.29554e-14
1.24391e-14
1.19184e-14
1.13998e-14
1.08891e-14
1.03911e-14
9.91008e-15
9.44959e-15
9.01237e-15
8.6005e-15
8.21541e-15
7.85795e-15
7.52841e-15
7.22664e-15
6.95204e-15
6.70368e-15
6.48037e-15
6.28067e-15
6.103e-15
5.94568e-15
5.80697e-15
5.68509e-15
5.57834e-15
5.48504e-15
5.4036e-15
5.33253e-15
5.27043e-15
5.21605e-15
5.16825e-15
5.12602e-15
5.08847e-15
5.05482e-15
5.02441e-15
4.99669e-15
4.97119e-15
4.94754e-15
4.92542e-15
4.90461e-15
4.88492e-15
4.86622e-15
4.84842e-15
4.83145e-15
4.81529e-15
4.79994e-15
4.78538e-15
4.77166e-15
4.75879e-15
4.74682e-15
4.73577e-15
4.72569e-15
4.71661e-15
4.70859e-15
4.70167e-15
4.69587e-15
4.69125e-15
4.68783e-15
4.68565e-15
4.68474e-15
4.68513e-15
4.68685e-15
4.68991e-15
4.69434e-15
4.70016e-15
4.70738e-15
4.71602e-15
4.7261e-15
4.73761e-15
4.75059e-15
4.76503e-15
4.78095e-15
4.79835e-15
)
;
    }
    procBoundary4to7
    {
        type            processor;
        value           nonuniform List<scalar> 
50
(
9.00395e-17
2.60091e-16
5.84725e-16
1.34166e-15
2.96305e-15
4.59131e-15
6.14731e-15
7.60926e-15
8.96583e-15
1.02116e-14
1.13419e-14
1.23528e-14
1.32418e-14
1.40075e-14
1.46502e-14
1.51714e-14
1.5574e-14
1.58619e-14
1.60403e-14
1.61154e-14
1.60941e-14
1.59841e-14
1.57937e-14
1.55316e-14
1.52068e-14
-4.92536e-15
-4.8009e-15
-4.64591e-15
-4.44748e-15
-4.19044e-15
-3.85771e-15
-3.43108e-15
-2.8923e-15
-2.22463e-15
-1.41478e-15
-4.55407e-16
6.6163e-16
1.92727e-15
3.31618e-15
4.80115e-15
6.34459e-15
7.90094e-15
9.4198e-15
1.08498e-14
1.21429e-14
1.32581e-14
1.41655e-14
1.48482e-14
1.5304e-14
1.553e-14
)
;
    }
}


// ************************************************************************* //
