/*--------------------------------*- C++ -*----------------------------------*\
| =========                 |                                                 |
| \\      /  F ield         | OpenFOAM: The Open Source CFD Toolbox           |
|  \\    /   O peration     | Version:  2.4.0                                 |
|   \\  /    A nd           | Web:      www.OpenFOAM.org                      |
|    \\/     M anipulation  |                                                 |
\*---------------------------------------------------------------------------*/
FoamFile
{
    version     2.0;
    format      ascii;
    class       volScalarField;
    location    "0.004";
    object      T;
}
// * * * * * * * * * * * * * * * * * * * * * * * * * * * * * * * * * * * * * //

dimensions      [0 0 0 1 0 0 0];

internalField   nonuniform List<scalar> 
125
(
293.799
295.405
297.852
297.851
297.851
297.851
297.851
297.852
297.854
297.856
297.859
297.862
297.865
297.869
297.873
297.877
297.882
297.887
297.891
297.896
297.901
297.906
297.911
297.916
297.921
297.926
297.931
297.935
297.94
297.944
297.948
297.952
297.956
297.959
297.962
297.966
297.969
297.971
297.974
297.976
297.978
297.98
297.982
297.984
297.986
297.987
297.988
297.99
297.991
297.992
297.992
297.993
297.994
297.995
297.995
297.996
297.996
297.996
297.997
297.997
297.997
297.998
297.998
297.998
297.998
297.998
297.999
297.999
297.999
297.999
297.999
297.999
297.999
297.999
297.999
297.999
297.999
298
298
298
298
298
298
298
298
298
298
298
298
298
298
298
298
298
298
298
298
298
298
298
298
298
298
298
298
298
298
298
298
298
298
298
298
298
298
298
298
298
298
298
298
298
298
298
298
)
;

boundaryField
{
    BotWall
    {
        type            fixedValue;
        value           uniform 293;
    }
    FreeStream
    {
        type            fixedValue;
        value           uniform 298;
    }
    FrontNBack
    {
        type            empty;
    }
    LeftSide
    {
        type            symmetryPlane;
    }
    RightSide
    {
        type            symmetryPlane;
    }
    procBoundary4to1
    {
        type            processor;
        value           nonuniform List<scalar> 
50
(
297.993
297.994
297.994
297.995
297.995
297.996
297.996
297.997
297.997
297.997
297.998
297.998
297.998
297.998
297.998
297.999
297.999
297.999
297.999
297.999
297.999
297.999
297.999
297.999
297.999
297.999
298
298
298
298
298
298
298
298
298
298
298
298
298
298
298
298
298
298
298
298
298
298
298
298
)
;
    }
    procBoundary4to2
    {
        type            processor;
        value           nonuniform List<scalar> 
75
(
293.794
295.389
297.842
297.841
297.84
297.84
297.841
297.842
297.844
297.847
297.85
297.853
297.857
297.861
297.866
297.871
297.876
297.881
297.886
297.892
297.897
297.903
297.909
297.914
297.919
297.925
297.93
297.934
297.939
297.944
297.948
297.952
297.956
297.96
297.963
297.966
297.969
297.972
297.975
297.977
297.979
297.981
297.983
297.985
297.986
297.988
297.989
297.99
297.991
297.992
298
298
298
298
298
298
298
298
298
298
298
298
298
298
298
298
298
298
298
298
298
298
298
298
298
)
;
    }
    procBoundary4to3
    {
        type            processor;
        value           uniform 298;
    }
    procBoundary4to5
    {
        type            processor;
        value           uniform 298;
    }
    procBoundary4to6
    {
        type            processor;
        value           nonuniform List<scalar> 
75
(
297.926
297.931
297.935
297.94
297.944
297.948
297.952
297.956
297.959
297.962
297.966
297.969
297.971
297.974
297.976
297.978
297.98
297.982
297.984
297.986
297.987
297.988
297.989
297.991
297.992
297.992
297.993
297.994
297.995
297.995
297.996
297.996
297.996
297.997
297.997
297.997
297.998
297.998
297.998
297.998
297.998
297.999
297.999
297.999
297.999
297.999
297.999
297.999
297.999
297.999
297.999
297.999
298
298
298
298
298
298
298
298
298
298
298
298
298
298
298
298
298
298
298
298
298
298
298
)
;
    }
    procBoundary4to7
    {
        type            processor;
        value           nonuniform List<scalar> 
50
(
293.799
295.406
297.853
297.852
297.851
297.851
297.852
297.853
297.855
297.857
297.859
297.862
297.866
297.869
297.873
297.878
297.882
297.887
297.892
297.897
297.902
297.906
297.911
297.916
297.921
298
298
298
298
298
298
298
298
298
298
298
298
298
298
298
298
298
298
298
298
298
298
298
298
298
)
;
    }
}


// ************************************************************************* //
