/*--------------------------------*- C++ -*----------------------------------*\
| =========                 |                                                 |
| \\      /  F ield         | OpenFOAM: The Open Source CFD Toolbox           |
|  \\    /   O peration     | Version:  2.4.0                                 |
|   \\  /    A nd           | Web:      www.OpenFOAM.org                      |
|    \\/     M anipulation  |                                                 |
\*---------------------------------------------------------------------------*/
FoamFile
{
    version     2.0;
    format      ascii;
    class       volVectorField;
    location    "3.7";
    object      U;
}
// * * * * * * * * * * * * * * * * * * * * * * * * * * * * * * * * * * * * * //

dimensions      [0 1 -1 0 0 0 0];

internalField   nonuniform List<vector> 
8000
(
(2.45654e-07 -0.000205672 0)
(1.87968e-06 -0.000599776 0)
(5.02321e-06 -0.000976646 0)
(9.59209e-06 -0.00133613 0)
(1.55239e-05 -0.00167813 0)
(2.27817e-05 -0.0020027 0)
(3.1358e-05 -0.00230991 0)
(4.12316e-05 -0.0025998 0)
(5.24011e-05 -0.0028724 0)
(6.48381e-05 -0.00312772 0)
(7.85334e-05 -0.00336578 0)
(9.3441e-05 -0.00358658 0)
(0.000109529 -0.00379014 0)
(0.000126722 -0.00397646 0)
(0.00014495 -0.00414555 0)
(0.000164094 -0.0042974 0)
(0.000184025 -0.00443203 0)
(0.000204525 -0.00454943 0)
(0.000225366 -0.00464964 0)
(0.000246365 -0.0047326 0)
(0.000267887 -0.00479834 0)
(0.000290585 -0.004847 0)
(0.000311701 -0.00487932 0)
(0.000316384 -0.0048989 0)
(0.00027594 -0.00491078 0)
(0.000182716 -0.00491355 0)
(0.000126237 -0.00492237 0)
(0.000132931 -0.00574815 0)
(0.000270473 -0.00784908 0)
(0.000334852 -0.00987877 0)
(0.000387066 -0.0117926 0)
(0.000435136 -0.0135803 0)
(0.000479232 -0.0152415 0)
(0.000517899 -0.0167789 0)
(0.00055085 -0.0181965 0)
(0.000578357 -0.0194991 0)
(0.000600784 -0.0206917 0)
(0.000618461 -0.0217798 0)
(0.000631684 -0.0227685 0)
(0.000640717 -0.0236631 0)
(0.000645791 -0.0244687 0)
(0.000647099 -0.0251901 0)
(0.000644808 -0.0258321 0)
(0.000639056 -0.0263992 0)
(0.000629968 -0.0268957 0)
(0.000617657 -0.027326 0)
(0.00060224 -0.0276941 0)
(0.000583835 -0.0280041 0)
(0.000562576 -0.0282598 0)
(0.000538611 -0.0284649 0)
(8.37516e-10 -0.00021482 0)
(5.5262e-07 -0.000626278 0)
(2.01261e-06 -0.00101992 0)
(4.54304e-06 -0.0013959 0)
(8.28565e-06 -0.00175434 0)
(1.34036e-05 -0.00209533 0)
(2.00383e-05 -0.00241896 0)
(2.83654e-05 -0.00272521 0)
(3.85299e-05 -0.00301409 0)
(5.07195e-05 -0.00328545 0)
(6.50896e-05 -0.00353923 0)
(8.18471e-05 -0.00377511 0)
(0.000101167 -0.00399298 0)
(0.000123282 -0.00419234 0)
(0.000148392 -0.00437299 0)
(0.00017673 -0.00453425 0)
(0.000208494 -0.00467577 0)
(0.000244004 -0.0047966 0)
(0.000284098 -0.00489613 0)
(0.000330237 -0.00497293 0)
(0.000382453 -0.00502662 0)
(0.000429009 -0.00505829 0)
(0.000428355 -0.00507817 0)
(0.000364881 -0.00508513 0)
(0.000282395 -0.00508846 0)
(0.000253324 -0.00506263 0)
(0.000288796 -0.00505164 0)
(0.000464457 -0.00682272 0)
(0.000484557 -0.00866551 0)
(0.000499092 -0.0104405 0)
(0.000503179 -0.0121261 0)
(0.000495247 -0.0137197 0)
(0.000476684 -0.0152215 0)
(0.000450776 -0.0166315 0)
(0.000420139 -0.0179498 0)
(0.00038649 -0.0191764 0)
(0.000350941 -0.0203121 0)
(0.000314222 -0.0213579 0)
(0.000276796 -0.0223154 0)
(0.000238918 -0.0231869 0)
(0.000200688 -0.0239747 0)
(0.000162091 -0.0246818 0)
(0.000123045 -0.0253114 0)
(8.3425e-05 -0.0258669 0)
(4.30979e-05 -0.0263522 0)
(1.93897e-06 -0.026771 0)
(-4.01516e-05 -0.0271274 0)
(-8.32392e-05 -0.0274256 0)
(-0.00012735 -0.0276696 0)
(-0.000172472 -0.0278635 0)
(1.63786e-09 -0.000214132 0)
(4.99524e-07 -0.000628987 0)
(1.97842e-06 -0.00103036 0)
(4.70786e-06 -0.00141823 0)
(8.94288e-06 -0.00179249 0)
(1.49698e-05 -0.00215329 0)
(2.30279e-05 -0.00250058 0)
(3.34114e-05 -0.00283467 0)
(4.63586e-05 -0.00315547 0)
(6.21839e-05 -0.00346345 0)
(8.1147e-05 -0.00375849 0)
(0.000103599 -0.00404127 0)
(0.000129845 -0.00431156 0)
(0.000160263 -0.00457037 0)
(0.000195179 -0.00481727 0)
(0.000234999 -0.00505368 0)
(0.000280544 -0.0052787 0)
(0.000333589 -0.00549417 0)
(0.000396914 -0.00569933 0)
(0.000465194 -0.00590127 0)
(0.000500317 -0.00611434 0)
(0.000406602 -0.00602374 0)
(0.000251268 -0.0059214 0)
(9.07587e-05 -0.00576065 0)
(-0.000492225 -0.00571034 0)
(-0.00192952 -0.00563855 0)
(-0.00247361 -0.00642751 0)
(-0.00194876 -0.00755012 0)
(-0.00202883 -0.0088653 0)
(-0.00214868 -0.0102909 0)
(-0.00222104 -0.011766 0)
(-0.00224912 -0.0132437 0)
(-0.00225392 -0.0146898 0)
(-0.0022455 -0.0160806 0)
(-0.00222817 -0.0174005 0)
(-0.0022047 -0.0186397 0)
(-0.0021774 -0.0197925 0)
(-0.00214817 -0.0208561 0)
(-0.00211852 -0.0218297 0)
(-0.00208962 -0.0227137 0)
(-0.00206241 -0.0235099 0)
(-0.00203762 -0.0242209 0)
(-0.00201583 -0.0248499 0)
(-0.00199747 -0.0254009 0)
(-0.00198282 -0.0258781 0)
(-0.00197207 -0.0262864 0)
(-0.00196526 -0.0266304 0)
(-0.00196239 -0.0269152 0)
(-0.00196335 -0.0271455 0)
(-0.00196797 -0.0273262 0)
(4.35208e-07 -0.000220677 0)
(5.01715e-06 -0.000651906 0)
(1.43962e-05 -0.00107267 0)
(2.839e-05 -0.00148292 0)
(4.6766e-05 -0.00188236 0)
(6.92796e-05 -0.00227119 0)
(9.58872e-05 -0.00264914 0)
(0.000126411 -0.00301665 0)
(0.00016091 -0.00337345 0)
(0.000199188 -0.00372029 0)
(0.000241392 -0.00405678 0)
(0.000287252 -0.00438409 0)
(0.000336943 -0.00470158 0)
(0.000390144 -0.0050109 0)
(0.000447684 -0.00531076 0)
(0.000510895 -0.00560334 0)
(0.000582962 -0.00588812 0)
(0.000655247 -0.00617489 0)
(0.000671528 -0.00648345 0)
(0.00048912 -0.00652741 0)
(0.000188676 -0.00658657 0)
(-8.96657e-05 -0.00633791 0)
(-0.000471389 -0.00574683 0)
(-0.00152391 0.00924135 0)
(-0.00203724 0.00846412 0)
(-0.00495973 0.00455268 0)
(-0.00470583 0.000566242 0)
(-0.00497237 -0.00302856 0)
(-0.00524347 -0.00620192 0)
(-0.00541405 -0.0089919 0)
(-0.00547799 -0.0114434 0)
(-0.0054724 -0.0136018 0)
(-0.00542316 -0.0155086 0)
(-0.00534513 -0.0171994 0)
(-0.00524779 -0.0187036 0)
(-0.00513809 -0.0200445 0)
(-0.00502135 -0.0212397 0)
(-0.00490167 -0.022303 0)
(-0.00478219 -0.0232452 0)
(-0.00466532 -0.0240754 0)
(-0.00455294 -0.0248014 0)
(-0.00444642 -0.0254307 0)
(-0.00434676 -0.0259704 0)
(-0.00425464 -0.0264275 0)
(-0.00417044 -0.0268089 0)
(-0.00409434 -0.0271213 0)
(-0.00402633 -0.0273713 0)
(-0.00396626 -0.0275649 0)
(-0.00391387 -0.0277081 0)
(-0.00386881 -0.0278063 0)
(7.29254e-07 -0.000278323 0)
(5.69816e-06 -0.000814441 0)
(1.52218e-05 -0.00133108 0)
(2.92249e-05 -0.00182912 0)
(4.72993e-05 -0.00230962 0)
(6.96075e-05 -0.00277325 0)
(9.58121e-05 -0.00322107 0)
(0.000126175 -0.00365345 0)
(0.000160322 -0.00407156 0)
(0.000198453 -0.00447526 0)
(0.000240189 -0.00486599 0)
(0.000285775 -0.0052425 0)
(0.000335637 -0.00560682 0)
(0.000392098 -0.00595641 0)
(0.000456625 -0.0062997 0)
(0.000510247 -0.00664684 0)
(0.000463754 -0.00703828 0)
(0.000215547 -0.00692378 0)
(-0.000132999 -0.00677549 0)
(-0.000454437 -0.00650605 0)
(-0.000888533 -0.00334389 0)
(-0.00300568 0.00212158 0)
(-0.00525312 0.00271653 0)
(-0.00786147 0.0391721 0)
(-0.00520052 0.0261918 0)
(-0.00569199 0.0161954 0)
(-0.00593493 0.00825461 0)
(-0.00603067 0.00192296 0)
(-0.00604487 -0.00316846 0)
(-0.00603488 -0.0072914 0)
(-0.00600822 -0.0106714 0)
(-0.00596398 -0.0134825 0)
(-0.00590296 -0.015853 0)
(-0.00582775 -0.0178748 0)
(-0.00574151 -0.0196128 0)
(-0.00564745 -0.021113 0)
(-0.00554867 -0.0224084 0)
(-0.00544809 -0.0235239 0)
(-0.00534826 -0.0244792 0)
(-0.00525139 -0.0252909 0)
(-0.00515924 -0.0259736 0)
(-0.00507318 -0.0265406 0)
(-0.00499421 -0.0270041 0)
(-0.00492298 -0.0273756 0)
(-0.00485988 -0.0276656 0)
(-0.00480507 -0.0278839 0)
(-0.00475849 -0.0280394 0)
(-0.00471996 -0.0281402 0)
(-0.0046892 -0.0281934 0)
(-0.00466582 -0.0282056 0)
(-5.19099e-07 -0.00027757 0)
(-1.96807e-06 -0.000819409 0)
(-3.00852e-06 -0.00134727 0)
(-3.15369e-06 -0.00186343 0)
(-1.17124e-06 -0.00236553 0)
(3.02555e-06 -0.00285756 0)
(1.06732e-05 -0.00333505 0)
(2.16486e-05 -0.00380362 0)
(3.72593e-05 -0.00425652 0)
(5.78772e-05 -0.00470045 0)
(8.60851e-05 -0.00512684 0)
(0.000124832 -0.00554693 0)
(0.000167134 -0.0059622 0)
(0.000153802 -0.00639883 0)
(-9.54341e-05 -0.00669492 0)
(-0.000502441 -0.00673812 0)
(-0.000812224 -0.00731522 0)
(-0.00105099 -0.00667789 0)
(-0.00215133 0.00173497 0)
(-0.00320471 -0.00477124 0)
(-0.0107292 0.0442886 0)
(-0.00675105 0.035072 0)
(-0.00825605 0.0262208 0)
(-0.00878876 0.0195964 0)
(-0.00815716 0.013 0)
(-0.00753522 0.00708716 0)
(-0.00705447 0.00195185 0)
(-0.00670386 -0.00248465 0)
(-0.00643463 -0.00633471 0)
(-0.00621679 -0.0097034 0)
(-0.00603274 -0.0126634 0)
(-0.00587236 -0.0152659 0)
(-0.00572932 -0.0175488 0)
(-0.00559982 -0.0195417 0)
(-0.00548186 -0.0212695 0)
(-0.00537458 -0.022755 0)
(-0.00527778 -0.0240194 0)
(-0.00519155 -0.0250833 0)
(-0.00511608 -0.0259666 0)
(-0.00505147 -0.0266885 0)
(-0.00499776 -0.0272672 0)
(-0.00495484 -0.02772 0)
(-0.00492245 -0.0280628 0)
(-0.00490025 -0.0283104 0)
(-0.00488777 -0.028476 0)
(-0.00488449 -0.0285718 0)
(-0.00488983 -0.0286084 0)
(-0.00490318 -0.028595 0)
(-0.00492391 -0.02854 0)
(-0.0049514 -0.0284505 0)
(3.58449e-07 -0.000269961 0)
(2.598e-06 -0.000807188 0)
(8.10687e-06 -0.00134461 0)
(1.83934e-05 -0.00187843 0)
(3.4331e-05 -0.0024157 0)
(5.79031e-05 -0.00294692 0)
(9.04421e-05 -0.00348328 0)
(0.000135092 -0.00400878 0)
(0.000197118 -0.00454329 0)
(0.000275431 -0.00507386 0)
(0.00032639 -0.00563491 0)
(0.000186991 -0.00627299 0)
(-0.000176089 -0.00616316 0)
(-0.000506948 -0.00619711 0)
(-0.000708673 -0.0063099 0)
(-0.000753171 -0.00118761 0)
(-0.00128325 -0.0036518 0)
(-0.00336797 0.00198835 0)
(-0.00343166 0.0498004 0)
(-0.00264532 0.0463432 0)
(-0.003368 0.0400663 0)
(-0.00285373 0.0316199 0)
(-0.00230324 0.0232326 0)
(-0.00175369 0.0155394 0)
(-0.00132505 0.00892622 0)
(-0.00101169 0.00326201 0)
(-0.000791858 -0.00157333 0)
(-0.000645416 -0.00570158 0)
(-0.000551773 -0.00923992 0)
(-0.000502698 -0.0122881 0)
(-0.000492079 -0.0149252 0)
(-0.000514917 -0.0172108 0)
(-0.000567016 -0.0191885 0)
(-0.000644897 -0.020892 0)
(-0.000745522 -0.0223483 0)
(-0.000866122 -0.0235809 0)
(-0.00100412 -0.0246109 0)
(-0.0011571 -0.0254584 0)
(-0.00132279 -0.0261425 0)
(-0.00149909 -0.0266818 0)
(-0.00168407 -0.0270937 0)
(-0.00187595 -0.0273947 0)
(-0.00207312 -0.0276001 0)
(-0.00227415 -0.027724 0)
(-0.00247774 -0.0277789 0)
(-0.00268279 -0.0277761 0)
(-0.00288832 -0.0277255 0)
(-0.0030935 -0.0276359 0)
(-0.00329763 -0.0275145 0)
(-0.00350012 -0.0273677 0)
(-5.05929e-07 -0.0002872 0)
(1.94022e-06 -0.000888007 0)
(9.17269e-06 -0.00150798 0)
(2.30765e-05 -0.00216017 0)
(4.46098e-05 -0.00282408 0)
(7.97358e-05 -0.00352813 0)
(0.000128066 -0.00423821 0)
(0.000151092 -0.00501989 0)
(8.20033e-07 -0.00587894 0)
(-0.00039473 -0.00629389 0)
(-0.000783608 -0.00659154 0)
(-0.000990189 -0.00780407 0)
(-0.000912949 -0.00519956 0)
(-0.00154935 -0.00119404 0)
(-0.00376626 -0.0088824 0)
(-0.00419864 0.0155457 0)
(-0.00337759 0.00955673 0)
(-0.0049052 0.0180744 0)
(-0.00490692 0.0238885 0)
(-0.00318401 0.0228851 0)
(-0.00191391 0.0198208 0)
(-0.000706617 0.0160517 0)
(0.000292375 0.0120291 0)
(0.00105175 0.00805036 0)
(0.00160579 0.00429117 0)
(0.00199488 0.000818411 0)
(0.00225154 -0.0023547 0)
(0.00239921 -0.00523587 0)
(0.00245707 -0.00783616 0)
(0.00244004 -0.0101679 0)
(0.00236013 -0.012244 0)
(0.00222686 -0.0140806 0)
(0.00204832 -0.0156925 0)
(0.00183146 -0.0170954 0)
(0.00158251 -0.0183056 0)
(0.00130709 -0.0193398 0)
(0.00101031 -0.0202149 0)
(0.000696831 -0.0209472 0)
(0.00037083 -0.0215527 0)
(3.60354e-05 -0.0220466 0)
(-0.000304275 -0.0224431 0)
(-0.000647272 -0.0227551 0)
(-0.000990548 -0.0229945 0)
(-0.00133209 -0.0231718 0)
(-0.00167025 -0.0232964 0)
(-0.0020037 -0.0233765 0)
(-0.00233139 -0.023419 0)
(-0.00265255 -0.0234303 0)
(-0.00296659 -0.0234154 0)
(-0.00327312 -0.0233788 0)
(7.78839e-07 -0.000320926 0)
(3.86112e-06 -0.000987354 0)
(9.00152e-06 -0.0016715 0)
(1.96452e-05 -0.00237293 0)
(4.03959e-05 -0.00307991 0)
(2.64273e-05 -0.00380773 0)
(-0.000226832 -0.00450874 0)
(-0.000780146 -0.00460332 0)
(-0.00141129 -0.00556114 0)
(-0.00232812 -0.0055257 0)
(-0.00384243 -0.000328237 0)
(-0.00559749 -0.0160265 0)
(-0.0131868 0.0218358 0)
(-0.00694202 0.00905668 0)
(-0.0103331 0.0139418 0)
(-0.0110987 0.0151942 0)
(-0.0110603 0.0141251 0)
(-0.0108178 0.0126573 0)
(-0.0101738 0.0106917 0)
(-0.00929557 0.00850489 0)
(-0.00837436 0.00619199 0)
(-0.00750044 0.00382445 0)
(-0.00671161 0.00147548 0)
(-0.00602169 -0.000789821 0)
(-0.00542971 -0.00292506 0)
(-0.00492854 -0.00490248 0)
(-0.00451524 -0.00671184 0)
(-0.00418318 -0.00835315 0)
(-0.00392499 -0.00983226 0)
(-0.00373371 -0.0111587 0)
(-0.00360262 -0.012341 0)
(-0.00352509 -0.0133909 0)
(-0.00349485 -0.0143198 0)
(-0.00350593 -0.0151387 0)
(-0.00355276 -0.015858 0)
(-0.00363019 -0.0164876 0)
(-0.00373352 -0.0170366 0)
(-0.00385855 -0.0175135 0)
(-0.0040015 -0.017926 0)
(-0.0041591 -0.0182812 0)
(-0.00432848 -0.0185855 0)
(-0.00450716 -0.0188446 0)
(-0.00469306 -0.0190636 0)
(-0.00488438 -0.0192472 0)
(-0.00507965 -0.0193994 0)
(-0.00527762 -0.0195238 0)
(-0.00547728 -0.0196236 0)
(-0.0056778 -0.0197016 0)
(-0.0058785 -0.0197603 0)
(-0.00607883 -0.0198019 0)
(-1.04893e-06 -0.000336132 0)
(-1.06332e-05 -0.000966394 0)
(-2.46359e-05 -0.00157024 0)
(-6.25553e-05 -0.00210596 0)
(-0.000233158 -0.00263195 0)
(-0.000704773 -0.00309885 0)
(-0.00150969 -0.00392694 0)
(-0.00383382 0.00280854 0)
(-0.00485369 -0.00560874 0)
(-0.0108308 0.0310901 0)
(-0.00481899 0.0425131 0)
(-0.0100145 0.0349346 0)
(-0.00987325 0.0320637 0)
(-0.00981026 0.0249133 0)
(-0.0102484 0.0191278 0)
(-0.0104251 0.014025 0)
(-0.0104072 0.00958606 0)
(-0.0102656 0.00569625 0)
(-0.0100556 0.00232606 0)
(-0.00980846 -0.000569023 0)
(-0.00953854 -0.00304922 0)
(-0.00925955 -0.00517763 0)
(-0.00898084 -0.00701194 0)
(-0.00871096 -0.00860307 0)
(-0.00845916 -0.00999057 0)
(-0.00823084 -0.0112051 0)
(-0.00802846 -0.0122707 0)
(-0.00785279 -0.0132069 0)
(-0.00770361 -0.0140297 0)
(-0.00758005 -0.0147521 0)
(-0.00748084 -0.0153853 0)
(-0.0074045 -0.0159388 0)
(-0.00734945 -0.0164205 0)
(-0.0073141 -0.0168376 0)
(-0.00729694 -0.0171965 0)
(-0.00729649 -0.0175029 0)
(-0.0073114 -0.017762 0)
(-0.00734037 -0.0179786 0)
(-0.00738222 -0.0181572 0)
(-0.00743582 -0.018302 0)
(-0.00750014 -0.0184167 0)
(-0.00757422 -0.0185049 0)
(-0.00765715 -0.0185697 0)
(-0.00774812 -0.018614 0)
(-0.00784636 -0.0186404 0)
(-0.00795115 -0.0186513 0)
(-0.00806184 -0.0186485 0)
(-0.00817784 -0.018634 0)
(-0.00829859 -0.0186093 0)
(-0.00842359 -0.0185757 0)
(1.74703e-06 -0.000157655 0)
(-3.91419e-06 -0.000429241 0)
(-3.50233e-05 -0.000653527 0)
(-0.00019808 -0.000829413 0)
(-0.000675385 -0.000965363 0)
(-0.00137777 -0.00112378 0)
(-0.00365331 0.0135535 0)
(-0.000615609 0.0456026 0)
(-0.00194142 0.0313126 0)
(-0.00243076 0.0307816 0)
(-0.0022869 0.0307468 0)
(-0.00212035 0.0295246 0)
(-0.00172278 0.0272444 0)
(-0.00153492 0.0242712 0)
(-0.00151047 0.0207338 0)
(-0.00161565 0.0169368 0)
(-0.00179891 0.0131216 0)
(-0.00202602 0.00945719 0)
(-0.00227433 0.00605147 0)
(-0.00252589 0.0029606 0)
(-0.00277415 0.000194592 0)
(-0.00301879 -0.0022551 0)
(-0.00326129 -0.0043987 0)
(-0.00350101 -0.00625584 0)
(-0.00373653 -0.00785421 0)
(-0.0039678 -0.0092248 0)
(-0.00419549 -0.0103981 0)
(-0.00442015 -0.0114021 0)
(-0.00464207 -0.0122611 0)
(-0.00486145 -0.0129958 0)
(-0.00507845 -0.0136232 0)
(-0.00529328 -0.0141576 0)
(-0.0055062 -0.0146108 0)
(-0.00571745 -0.0149927 0)
(-0.00592723 -0.0153121 0)
(-0.00613573 -0.0155764 0)
(-0.00634303 -0.0157925 0)
(-0.00654918 -0.0159666 0)
(-0.00675415 -0.0161042 0)
(-0.00695791 -0.0162103 0)
(-0.00716036 -0.0162892 0)
(-0.00736143 -0.016345 0)
(-0.007561 -0.016381 0)
(-0.00775903 -0.0164003 0)
(-0.00795543 -0.0164054 0)
(-0.00815019 -0.0163986 0)
(-0.00834327 -0.0163818 0)
(-0.00853469 -0.0163564 0)
(-0.00872444 -0.0163238 0)
(-0.00891255 -0.0162851 0)
(1.9339e-06 -7.71553e-05 0)
(-1.35497e-06 -0.000208051 0)
(-2.95744e-05 -0.000315838 0)
(-0.000125363 -0.000401172 0)
(-0.000419401 -0.000489644 0)
(-0.00121871 -0.00050205 0)
(-0.00302168 0.0110551 0)
(-0.0010538 0.0168468 0)
(-0.000342094 0.019796 0)
(0.000273221 0.0217106 0)
(0.000737249 0.022835 0)
(0.00114584 0.0231398 0)
(0.00143558 0.0225067 0)
(0.00159942 0.0210428 0)
(0.00163495 0.018893 0)
(0.00154363 0.0162631 0)
(0.00133747 0.0133644 0)
(0.00103274 0.0103834 0)
(0.000647236 0.00746602 0)
(0.000197122 0.00472186 0)
(-0.000301185 0.00221293 0)
(-0.000832081 -3.92623e-05 0)
(-0.0013797 -0.00202696 0)
(-0.00193191 -0.00376175 0)
(-0.00248336 -0.0052684 0)
(-0.00302098 -0.00656881 0)
(-0.00353721 -0.00769564 0)
(-0.00403004 -0.00867811 0)
(-0.00449955 -0.00953763 0)
(-0.0049465 -0.0102897 0)
(-0.00537196 -0.010946 0)
(-0.00577732 -0.0115157 0)
(-0.00616407 -0.0120069 0)
(-0.00653348 -0.0124275 0)
(-0.00688656 -0.0127851 0)
(-0.00722404 -0.0130873 0)
(-0.00754647 -0.013341 0)
(-0.00785432 -0.0135526 0)
(-0.00814798 -0.013728 0)
(-0.00842786 -0.0138721 0)
(-0.0086944 -0.0139892 0)
(-0.00894812 -0.0140831 0)
(-0.00918962 -0.0141568 0)
(-0.00941957 -0.0142128 0)
(-0.00963869 -0.0142533 0)
(-0.00984778 -0.0142799 0)
(-0.0100477 -0.0142943 0)
(-0.0102392 -0.0142979 0)
(-0.0104233 -0.014292 0)
(-0.0106006 -0.0142777 0)
(5.81601e-06 -9.87677e-06 0)
(8.33712e-06 -1.23224e-05 0)
(-4.25483e-05 1.01672e-06 0)
(-0.000210654 2.1115e-05 0)
(-0.000481092 5.96532e-06 0)
(-0.00152906 6.42951e-05 0)
(-0.00306521 0.00606831 0)
(-0.0012605 0.0110211 0)
(-0.000695857 0.0151682 0)
(-7.95587e-05 0.0183962 0)
(0.000615717 0.0207391 0)
(0.00133463 0.0222815 0)
(0.0019992 0.0231028 0)
(0.00255421 0.0232893 0)
(0.00296211 0.0229295 0)
(0.0032044 0.0221132 0)
(0.00328179 0.0209308 0)
(0.0032101 0.0194715 0)
(0.00301237 0.0178164 0)
(0.00271181 0.016036 0)
(0.0023292 0.0141786 0)
(0.0018817 0.0122823 0)
(0.00138389 0.0103791 0)
(0.000850842 0.00850139 0)
(0.00029509 0.00666888 0)
(-0.000281765 0.00489933 0)
(-0.000874389 0.00322104 0)
(-0.0014776 0.00165558 0)
(-0.00208645 0.0002166 0)
(-0.00269621 -0.00109004 0)
(-0.00330174 -0.00226514 0)
(-0.0038995 -0.00331491 0)
(-0.00448714 -0.00425105 0)
(-0.00505907 -0.00508958 0)
(-0.00561101 -0.00584498 0)
(-0.00613965 -0.00652954 0)
(-0.00664274 -0.00715326 0)
(-0.00711887 -0.00772391 0)
(-0.00756735 -0.00824742 0)
(-0.00798795 -0.008728 0)
(-0.00838104 -0.00916856 0)
(-0.00874767 -0.00957079 0)
(-0.0090894 -0.00993621 0)
(-0.00940788 -0.010266 0)
(-0.00970462 -0.0105613 0)
(-0.00998091 -0.0108229 0)
(-0.010238 -0.011052 0)
(-0.0104774 -0.01125 0)
(-0.0107008 -0.0114187 0)
(-0.0109099 -0.0115608 0)
(2.16032e-05 5.97988e-06 0)
(4.45391e-05 2.83748e-05 0)
(-9.93112e-05 5.96473e-05 0)
(-0.000636286 9.3042e-05 0)
(-0.00143031 0.000105527 0)
(-0.00335987 0.0036336 0)
(-0.00239956 0.00412233 0)
(-0.00255026 0.00264702 0)
(-0.00338819 0.00254564 0)
(-0.00485704 0.0026181 0)
(-0.00687599 0.00307009 0)
(-0.00930236 0.00399269 0)
(-0.0119728 0.00538694 0)
(-0.0146872 0.00710447 0)
(-0.0172531 0.00887847 0)
(-0.019484 0.0104218 0)
(-0.0212273 0.0115012 0)
(-0.0224329 0.0120107 0)
(-0.0231625 0.0120143 0)
(-0.0235212 0.0116578 0)
(-0.0236008 0.0110712 0)
(-0.0234661 0.0103534 0)
(-0.0231632 0.00956664 0)
(-0.0227305 0.00875139 0)
(-0.0222037 0.00792676 0)
(-0.0216145 0.00709986 0)
(-0.0210076 0.00630541 0)
(-0.0204153 0.00555742 0)
(-0.0198602 0.00484119 0)
(-0.0193561 0.00413203 0)
(-0.0189084 0.00340539 0)
(-0.0185126 0.00264323 0)
(-0.0181585 0.00183944 0)
(-0.017839 0.0010005 0)
(-0.0175475 0.000137412 0)
(-0.0172786 -0.00073698 0)
(-0.0170275 -0.00160944 0)
(-0.0167898 -0.00246663 0)
(-0.0165628 -0.00329875 0)
(-0.016345 -0.00410826 0)
(-0.0161357 -0.00487123 0)
(-0.015936 -0.00557602 0)
(-0.0157475 -0.00622245 0)
(-0.0155726 -0.0068165 0)
(-0.0154128 -0.00736316 0)
(-0.015269 -0.00786287 0)
(-0.0151403 -0.00831857 0)
(-0.0150227 -0.00872611 0)
(-0.0149099 -0.00908072 0)
(-0.014798 -0.0093922 0)
(2.15073e-05 8.67531e-05 0)
(5.64693e-05 0.00021695 0)
(-5.08374e-05 0.000311352 0)
(-0.000579521 0.000396373 0)
(-0.00148131 0.000609535 0)
(-0.00676075 -0.00316727 0)
(0.00938325 0.0184415 0)
(-0.00984238 0.0260496 0)
(-0.000120158 0.0442845 0)
(-0.00147134 0.0662663 0)
(-0.0014133 0.0815888 0)
(-0.00119866 0.0927562 0)
(-0.000861712 0.0975403 0)
(-0.000373637 0.0965649 0)
(0.000146925 0.0900822 0)
(0.000622313 0.0781362 0)
(0.00083099 0.0618099 0)
(0.000976899 0.0456168 0)
(0.00144733 0.0328095 0)
(0.00221089 0.0230031 0)
(0.00274553 0.0149249 0)
(0.00298062 0.00802935 0)
(0.00285756 0.00217308 0)
(0.00230742 -0.00273018 0)
(0.00130369 -0.00669013 0)
(-0.000107582 -0.00963056 0)
(-0.00180046 -0.0115515 0)
(-0.00364643 -0.0126017 0)
(-0.00554226 -0.0130324 0)
(-0.00739992 -0.013099 0)
(-0.0091193 -0.0130124 0)
(-0.010597 -0.0129347 0)
(-0.0117646 -0.0129384 0)
(-0.0126105 -0.0130316 0)
(-0.0131667 -0.0131845 0)
(-0.0134833 -0.0133811 0)
(-0.0136194 -0.0136359 0)
(-0.0136068 -0.0139233 0)
(-0.0134704 -0.0142047 0)
(-0.0132593 -0.0144682 0)
(-0.0130499 -0.0146862 0)
(-0.0128941 -0.0148375 0)
(-0.0127746 -0.014895 0)
(-0.012652 -0.0148656 0)
(-0.0125262 -0.0147754 0)
(-0.0124425 -0.014627 0)
(-0.012463 -0.0144927 0)
(-0.0126065 -0.0144383 0)
(-0.0127845 -0.0145633 0)
(-0.0128884 -0.014668 0)
(1.0797e-05 -0.000143309 0)
(6.57007e-05 -0.000416949 0)
(0.00015095 -0.000669193 0)
(0.00010731 -0.000902066 0)
(-0.000401231 -0.00109555 0)
(-0.00137923 -0.00142538 0)
(-0.00210121 -0.000732895 0)
(-0.00120011 0.0179335 0)
(-0.000389542 0.00222308 0)
(0.00105442 0.0144736 0)
(0.00356747 -0.000399435 0)
(0.00613106 0.0126573 0)
(0.00896132 0.00805765 0)
(0.0111395 0.0177789 0)
(0.0120778 0.0225033 0)
(0.0126777 0.0291653 0)
(0.0205214 0.0322873 0)
(0.0137806 0.00683794 0)
(0.0132584 -0.0149989 0)
(0.0186088 -0.00945031 0)
(0.0201439 0.00074235 0)
(0.0195892 0.0100876 0)
(0.0192563 0.0201656 0)
(0.018953 0.0312621 0)
(0.0183806 0.0418996 0)
(0.017623 0.0498199 0)
(0.016927 0.0538926 0)
(0.0160602 0.0549721 0)
(0.0152666 0.0543308 0)
(0.014585 0.0515858 0)
(0.0145401 0.0458118 0)
(0.014277 0.0372866 0)
(0.0138437 0.0277052 0)
(0.013361 0.0188546 0)
(0.0128659 0.0115538 0)
(0.0124624 0.00576029 0)
(0.0121753 0.00110923 0)
(0.0119384 -0.00299042 0)
(0.011874 -0.00676706 0)
(0.0120733 -0.00897089 0)
(0.0122348 -0.00819185 0)
(0.0120742 -0.00698145 0)
(0.0114205 -0.00724611 0)
(0.0110417 -0.00829524 0)
(0.0109336 -0.00886273 0)
(0.0109957 -0.00780119 0)
(0.0108425 -0.00494036 0)
(0.0104204 -0.00219612 0)
(0.00968986 -0.00443003 0)
(0.00905718 -0.00732792 0)
(-5.28621e-07 -0.000304252 0)
(6.6369e-06 -0.000843148 0)
(2.4918e-05 -0.00130785 0)
(5.43061e-05 -0.00171541 0)
(8.72171e-05 -0.00203151 0)
(0.000110925 -0.00225593 0)
(0.000131505 -0.00235726 0)
(0.000159441 -0.00224952 0)
(0.000121049 -0.00249394 0)
(0.000430581 -0.00269177 0)
(0.00111917 -0.00282821 0)
(0.00178568 -0.00267426 0)
(0.00280832 -0.00236069 0)
(0.00413936 -0.00184842 0)
(0.00595511 -0.00126146 0)
(0.00812185 -0.000555513 0)
(0.0104086 0.000925971 0)
(0.0120462 0.00540242 0)
(0.0119343 0.00510435 0)
(0.0109623 0.00451668 0)
(0.010505 0.00655715 0)
(0.0105881 0.00817843 0)
(0.0110346 0.0098934 0)
(0.0117661 0.012021 0)
(0.0126785 0.0155129 0)
(0.0138338 0.0202867 0)
(0.0149107 0.0261249 0)
(0.0152732 0.0314696 0)
(0.0123411 0.0103792 0)
(0.0165739 -0.0236587 0)
(0.0223513 -0.0205271 0)
(0.0240082 -0.0099797 0)
(0.0233514 -0.00350395 0)
(0.0229976 -0.000595921 0)
(0.0224977 -0.00144287 0)
(0.0224468 -0.00585073 0)
(0.0226118 -0.00860332 0)
(0.0227752 -0.0104363 0)
(0.0215901 -0.0175107 0)
(0.020762 -0.0266516 0)
(0.0207336 -0.0170022 0)
(0.0200415 -0.0044122 0)
(0.0190372 -0.0039484 0)
(0.0183633 -0.00991232 0)
(0.0181554 -0.0184078 0)
(0.0183064 -0.021624 0)
(0.0183326 -0.00862834 0)
(0.0177716 -0.000252146 0)
(0.01725 0.000979961 0)
(0.0165161 0.00105561 0)
(2.99041e-07 -0.000288006 0)
(4.70891e-07 -0.000834833 0)
(1.98038e-06 -0.00135293 0)
(5.04851e-06 -0.00184334 0)
(1.24636e-05 -0.00230703 0)
(2.54316e-05 -0.00274508 0)
(4.7622e-05 -0.0031576 0)
(7.95437e-05 -0.0035481 0)
(0.000116431 -0.0039454 0)
(0.000152525 -0.00426503 0)
(0.000188731 -0.00448086 0)
(0.000232346 -0.00454813 0)
(0.000291927 -0.00452233 0)
(0.000373057 -0.0043917 0)
(0.000474279 -0.00417205 0)
(0.000599164 -0.00384126 0)
(0.000764686 -0.00333162 0)
(0.00100177 -0.00262007 0)
(0.00122236 -0.00220017 0)
(0.00142648 -0.0018457 0)
(0.00174614 -0.00145303 0)
(0.00220247 -0.00103207 0)
(0.00276233 -0.000529585 0)
(0.00344674 5.95301e-05 0)
(0.00435616 0.000770322 0)
(0.00559781 0.0015939 0)
(0.00721486 0.00265779 0)
(0.0091335 0.00369965 0)
(0.010756 0.0044555 0)
(0.0107373 0.00321584 0)
(0.00931177 0.00571667 0)
(0.00819572 0.0128834 0)
(0.0075381 0.0191156 0)
(0.00703499 0.0231178 0)
(0.00653722 0.0233621 0)
(0.00590099 0.0165781 0)
(0.00581612 0.00892032 0)
(0.00599294 0.00898354 0)
(0.00522653 0.0168564 0)
(0.00345773 0.00879851 0)
(0.00258039 0.00691729 0)
(0.00217397 0.0135569 0)
(0.0019189 0.0110656 0)
(0.00164589 0.00564406 0)
(0.00103084 -0.00302965 0)
(4.05896e-05 -0.00586044 0)
(-0.000429022 0.00495951 0)
(-0.000848326 0.0127024 0)
(-0.00115832 0.0123148 0)
(-0.00132109 0.0108921 0)
(-2.70717e-07 -0.000287383 0)
(-2.2717e-06 -0.000825002 0)
(-6.39174e-06 -0.0013254 0)
(-1.27624e-05 -0.00178859 0)
(-2.14554e-05 -0.00221444 0)
(-3.27591e-05 -0.00260291 0)
(-4.68269e-05 -0.00295393 0)
(-6.41456e-05 -0.00326739 0)
(-8.51228e-05 -0.00354319 0)
(-0.000109762 -0.00378015 0)
(-0.000135678 -0.00397779 0)
(-0.000159944 -0.00413517 0)
(-0.0001788 -0.00425419 0)
(-0.000189774 -0.00433578 0)
(-0.000189596 -0.004384 0)
(-0.000174991 -0.0044008 0)
(-0.000140984 -0.00439236 0)
(-8.42168e-05 -0.00436512 0)
(-6.50489e-06 -0.00433607 0)
(8.50054e-05 -0.00429683 0)
(0.000186722 -0.0041983 0)
(0.000298744 -0.00402177 0)
(0.000424111 -0.00376224 0)
(0.000565283 -0.00342722 0)
(0.000727194 -0.00301531 0)
(0.000913657 -0.0025314 0)
(0.0011271 -0.00194582 0)
(0.001342 -0.00135391 0)
(0.00152935 -0.000762806 0)
(0.00169476 -0.000272193 0)
(0.00191805 0.000345376 0)
(0.00238248 0.00109424 0)
(0.00319284 0.0019383 0)
(0.00422679 0.00248578 0)
(0.00533104 0.00258772 0)
(0.00634277 0.00193266 0)
(0.00695033 -0.00108433 0)
(0.00733034 -0.000311868 0)
(0.00775248 0.00249836 0)
(0.00819518 0.0015751 0)
(0.00848961 0.000865512 0)
(0.00866194 0.00155989 0)
(0.00878896 0.00206843 0)
(0.00866091 0.00223475 0)
(0.0082761 0.00108404 0)
(0.0074676 -0.00137989 0)
(0.00721116 0.00298747 0)
(0.00753492 0.00513045 0)
(0.00801318 0.00510591 0)
(0.00851612 0.00481653 0)
(-3.50247e-07 -0.000265827 0)
(-3.83808e-06 -0.000764486 0)
(-1.07047e-05 -0.00123039 0)
(-2.05754e-05 -0.00166394 0)
(-3.29467e-05 -0.00206531 0)
(-4.72987e-05 -0.00243478 0)
(-6.31874e-05 -0.00277235 0)
(-8.00926e-05 -0.00307823 0)
(-9.7557e-05 -0.00335229 0)
(-0.000114994 -0.00359472 0)
(-0.000131869 -0.00380527 0)
(-0.000147513 -0.00398442 0)
(-0.000161361 -0.00413204 0)
(-0.000172815 -0.00424903 0)
(-0.000181421 -0.00433532 0)
(-0.000186817 -0.00439223 0)
(-0.000188802 -0.00441973 0)
(-0.000187516 -0.00441967 0)
(-0.00018328 -0.00439194 0)
(-0.000176578 -0.00433828 0)
(-0.000166752 -0.00425742 0)
(-0.000152549 -0.00415132 0)
(-0.000131575 -0.00401893 0)
(-0.000101939 -0.00386392 0)
(-6.10175e-05 -0.00368563 0)
(-7.07197e-06 -0.00349011 0)
(6.23091e-05 -0.00327702 0)
(0.000147452 -0.0030558 0)
(0.000248312 -0.00282363 0)
(0.000362514 -0.00258565 0)
(0.000489718 -0.00232051 0)
(0.000633088 -0.00199722 0)
(0.000799367 -0.00157388 0)
(0.000971149 -0.00123793 0)
(0.00110919 -0.00094087 0)
(0.00122052 -0.000599134 0)
(0.00126014 -0.00031812 0)
(0.00122502 0.000329338 0)
(0.00121808 0.00166247 0)
(0.0013491 0.00161621 0)
(0.00145684 0.00505191 0)
(0.0013601 0.0106682 0)
(0.00110487 0.0135569 0)
(0.000827981 0.0119807 0)
(0.00102187 0.00738179 0)
(0.00130826 0.00572072 0)
(0.00104038 0.00553811 0)
(0.000990777 0.00239888 0)
(0.00128228 -0.00230211 0)
(0.00178058 -0.00757081 0)
(0.000512102 -0.0286232 0)
(0.00048323 -0.0287382 0)
(0.000452191 -0.0288132 0)
(0.000419196 -0.0288514 0)
(0.000384465 -0.028856 0)
(0.000348225 -0.0288298 0)
(0.000310711 -0.0287755 0)
(0.000272154 -0.0286956 0)
(0.000232788 -0.0285926 0)
(0.000192839 -0.0284685 0)
(0.000152527 -0.0283254 0)
(0.000112064 -0.0281652 0)
(7.16511e-05 -0.0279894 0)
(3.14766e-05 -0.0277996 0)
(-8.28208e-06 -0.0275972 0)
(-4.74609e-05 -0.0273835 0)
(-8.59083e-05 -0.0271595 0)
(-0.000123486 -0.0269263 0)
(-0.000160068 -0.0266847 0)
(-0.000195541 -0.0264357 0)
(-0.000229803 -0.0261799 0)
(-0.000262765 -0.0259179 0)
(-0.000294346 -0.0256504 0)
(-0.000324478 -0.025378 0)
(-0.0003531 -0.025101 0)
(-0.000380163 -0.0248199 0)
(-0.000405624 -0.0245352 0)
(-0.000429449 -0.0242472 0)
(-0.000451612 -0.0239561 0)
(-0.000472092 -0.0236624 0)
(-0.000490878 -0.0233663 0)
(-0.000507963 -0.023068 0)
(-0.000523345 -0.0227679 0)
(-0.000537031 -0.0224662 0)
(-0.000549031 -0.022163 0)
(-0.000559362 -0.0218587 0)
(-0.000568044 -0.0215535 0)
(-0.000575105 -0.0212476 0)
(-0.000580576 -0.0209414 0)
(-0.000584495 -0.020635 0)
(-0.000586905 -0.0203287 0)
(-0.000587854 -0.0200229 0)
(-0.000587398 -0.0197179 0)
(-0.0005856 -0.0194142 0)
(-0.00058253 -0.019112 0)
(-0.000578271 -0.0188119 0)
(-0.000572912 -0.0185145 0)
(-0.000566557 -0.0182204 0)
(-0.000559014 -0.0179308 0)
(-0.000551124 -0.0176479 0)
(-0.000218553 -0.0280112 0)
(-0.000265507 -0.0281167 0)
(-0.000313221 -0.0281836 0)
(-0.000361558 -0.0282154 0)
(-0.000410363 -0.0282153 0)
(-0.000459471 -0.0281864 0)
(-0.000508708 -0.0281315 0)
(-0.0005579 -0.0280532 0)
(-0.000606873 -0.0279538 0)
(-0.000655458 -0.0278354 0)
(-0.000703492 -0.0277001 0)
(-0.00075082 -0.0275496 0)
(-0.000797298 -0.0273853 0)
(-0.000842791 -0.0272088 0)
(-0.000887175 -0.0270213 0)
(-0.000930337 -0.0268239 0)
(-0.000972174 -0.0266175 0)
(-0.00101259 -0.0264031 0)
(-0.00105151 -0.0261814 0)
(-0.00108885 -0.0259532 0)
(-0.00112456 -0.025719 0)
(-0.00115857 -0.0254795 0)
(-0.00119083 -0.025235 0)
(-0.00122131 -0.0249861 0)
(-0.00124997 -0.0247331 0)
(-0.00127677 -0.0244763 0)
(-0.00130169 -0.0242162 0)
(-0.00132472 -0.023953 0)
(-0.00134584 -0.0236869 0)
(-0.00136503 -0.0234182 0)