/*--------------------------------*- C++ -*----------------------------------*\
| =========                 |                                                 |
| \\      /  F ield         | OpenFOAM: The Open Source CFD Toolbox           |
|  \\    /   O peration     | Version:  2.4.0                                 |
|   \\  /    A nd           | Web:      www.OpenFOAM.org                      |
|    \\/     M anipulation  |                                                 |
\*---------------------------------------------------------------------------*/
FoamFile
{
    version     2.0;
    format      ascii;
    class       volVectorField;
    location    "2.2";
    object      U;
}
// * * * * * * * * * * * * * * * * * * * * * * * * * * * * * * * * * * * * * //

dimensions      [0 1 -1 0 0 0 0];

internalField   nonuniform List<vector> 
8000
(
(3.12264e-07 -0.00029118 0)
(4.09687e-06 -0.000900518 0)
(1.08159e-05 -0.00154294 0)
(2.14445e-05 -0.00221428 0)
(3.40791e-05 -0.00292453 0)
(5.36248e-05 -0.00366495 0)
(8.41891e-05 -0.00444457 0)
(0.000126057 -0.00526035 0)
(0.000101956 -0.00612422 0)
(-0.000197913 -0.00701167 0)
(-0.00073837 -0.00693476 0)
(-0.0011855 -0.00767462 0)
(-0.00161232 -0.00717959 0)
(-0.00369332 0.000935728 0)
(-0.00480583 -0.0089354 0)
(-0.0114135 0.0383292 0)
(-0.00691899 0.0413174 0)
(-0.00873313 0.0422947 0)
(-0.00952468 0.0460566 0)
(-0.00764119 0.0416988 0)
(-0.00627441 0.0351877 0)
(-0.00544456 0.0295465 0)
(-0.00501074 0.0249827 0)
(-0.00480719 0.0212943 0)
(-0.00472314 0.0182612 0)
(-0.00469879 0.0156965 0)
(-0.00470923 0.0134744 0)
(-0.00474278 0.0115183 0)
(-0.00479321 0.00978326 0)
(-0.00485644 0.00824224 0)
(-0.00492929 0.00687764 0)
(-0.00500899 0.00567601 0)
(-0.00509302 0.00462544 0)
(-0.0051791 0.00371429 0)
(-0.00526524 0.00293081 0)
(-0.00534977 0.00226306 0)
(-0.00543137 0.00169917 0)
(-0.00550904 0.00122752 0)
(-0.00558226 0.000836993 0)
(-0.00565058 0.000517111 0)
(-0.00571331 0.000258211 0)
(-0.00576997 5.17271e-05 0)
(-0.0058206 -0.000109961 0)
(-0.00586541 -0.000233631 0)
(-0.00590502 -0.000325264 0)
(-0.00593991 -0.000390077 0)
(-0.00597028 -0.000432552 0)
(-0.00599636 -0.000456514 0)
(-0.00601843 -0.000465205 0)
(-0.00603681 -0.000461362 0)
(-2.25581e-07 -0.000309778 0)
(-7.18918e-06 -0.000933689 0)
(-2.60915e-05 -0.00156084 0)
(-5.71521e-05 -0.00219941 0)
(-9.84231e-05 -0.00284017 0)
(-0.000152065 -0.00350282 0)
(-0.0002661 -0.00416991 0)
(-0.000585137 -0.00465643 0)
(-0.00110752 -0.00519244 0)
(-0.00185734 -0.00725076 0)
(-0.0039878 0.00230368 0)
(-0.00509328 -0.00809724 0)
(-0.0161953 0.0335363 0)
(-0.00883059 0.038653 0)
(-0.0130615 0.0359515 0)
(-0.0142769 0.0377836 0)
(-0.0139393 0.0354806 0)
(-0.0135079 0.0324885 0)
(-0.0126424 0.0291189 0)
(-0.0116438 0.0262982 0)
(-0.0107628 0.023632 0)
(-0.0100607 0.0210931 0)
(-0.00949148 0.0187148 0)
(-0.00901715 0.0165203 0)
(-0.00861288 0.0145154 0)
(-0.00826341 0.0126962 0)
(-0.007959 0.0110535 0)
(-0.00769313 0.00957609 0)
(-0.00746103 0.00825261 0)
(-0.00725888 0.00707211 0)
(-0.00708335 0.00602409 0)
(-0.00693136 0.00509843 0)
(-0.00680003 0.00428526 0)
(-0.00668663 0.00357488 0)
(-0.00658864 0.00295784 0)
(-0.00650377 0.00242496 0)
(-0.00642994 0.00196743 0)
(-0.00636534 0.00157692 0)
(-0.00630848 0.00124569 0)
(-0.00625814 0.00096659 0)
(-0.00621316 0.000733151 0)
(-0.00617228 0.000539619 0)
(-0.00613471 0.000381075 0)
(-0.00610001 0.000253032 0)
(-0.00606743 0.000151457 0)
(-0.0060364 7.2846e-05 0)
(-0.00600672 1.40989e-05 0)
(-0.00597824 -2.75253e-05 0)
(-0.00595083 -5.4443e-05 0)
(-0.00592439 -6.87762e-05 0)
(-1.37433e-06 -0.000200209 0)
(-1.47353e-05 -0.000564572 0)
(-4.09309e-05 -0.000890921 0)
(-7.81986e-05 -0.00118121 0)
(-0.000142016 -0.00143177 0)
(-0.000310373 -0.00165372 0)
(-0.0007029 -0.00186888 0)
(-0.00134549 -0.00168065 0)
(-0.00277017 0.00425876 0)
(-0.00392654 0.00377763 0)
(-0.00444506 0.0670809 0)
(-0.00398643 0.0616096 0)
(-0.00555703 0.0555032 0)
(-0.0059236 0.0473432 0)
(-0.0063943 0.0400124 0)
(-0.00628565 0.0338775 0)
(-0.00605095 0.0289566 0)
(-0.00578465 0.0249416 0)
(-0.00554697 0.0215886 0)
(-0.0053458 0.0187894 0)
(-0.00516356 0.0163933 0)
(-0.00500246 0.0142919 0)
(-0.00486404 0.0124224 0)
(-0.0047482 0.0107477 0)
(-0.00465344 0.00924399 0)
(-0.00457773 0.00789398 0)
(-0.00451898 0.00668368 0)
(-0.00447525 0.00560104 0)
(-0.00444475 0.00463541 0)
(-0.00442584 0.00377713 0)
(-0.00441698 0.00301734 0)
(-0.00441673 0.00234781 0)
(-0.00442375 0.00176082 0)
(-0.00443677 0.00124913 0)
(-0.00445465 0.000805905 0)
(-0.00447633 0.000424753 0)
(-0.00450089 9.96861e-05 0)
(-0.00452748 -0.000174863 0)
(-0.00455536 -0.000404056 0)
(-0.00458379 -0.000592656 0)
(-0.00461233 -0.000745043 0)
(-0.00464089 -0.000865369 0)
(-0.00466919 -0.000957649 0)
(-0.00469707 -0.00102545 0)
(-0.00472444 -0.00107203 0)
(-0.004751 -0.00110029 0)
(-0.00477659 -0.00111275 0)
(-0.00480112 -0.0011116 0)
(-0.00482456 -0.00109877 0)
(-0.00484688 -0.00107595 0)
(-1.6494e-06 -0.000137304 0)
(-9.71621e-06 -0.000375702 0)
(-1.79145e-05 -0.000577555 0)
(-3.96703e-05 -0.000741707 0)
(-0.000153196 -0.000869483 0)
(-0.00051295 -0.000973295 0)
(-0.00109995 -0.00110086 0)
(-0.00274107 0.0146006 0)
(-0.00222841 0.0153 0)
(-0.00258561 0.0198367 0)
(-0.00409888 0.0374164 0)
(-0.00227093 0.0405991 0)
(-0.00135972 0.0400488 0)
(-0.000513523 0.0377989 0)
(0.000133562 0.0348663 0)
(0.000534025 0.0317275 0)
(0.000742592 0.028711 0)
(0.00081846 0.0259215 0)
(0.0007987 0.0233772 0)
(0.000711997 0.0210608 0)
(0.000580004 0.0189483 0)
(0.000417316 0.0170169 0)
(0.000234182 0.0152486 0)
(3.8276e-05 0.0136301 0)
(-0.000164503 0.0121511 0)
(-0.000369621 0.0108032 0)
(-0.000573634 0.00957912 0)
(-0.000773962 0.00847137 0)
(-0.000968739 0.00747267 0)
(-0.00115666 0.00657553 0)
(-0.00133686 0.0057724 0)
(-0.00150881 0.00505574 0)
(-0.00167224 0.0044182 0)
(-0.00182707 0.00385268 0)
(-0.00197338 0.00335244 0)
(-0.00211134 0.00291121 0)
(-0.00224119 0.00252316 0)
(-0.00236325 0.00218294 0)
(-0.00247786 0.00188567 0)
(-0.00258538 0.00162692 0)
(-0.00268622 0.00140265 0)
(-0.00278081 0.00120924 0)
(-0.00286967 0.00104342 0)
(-0.00295299 0.000902261 0)
(-0.00303091 0.000783296 0)
(-0.00310397 0.000684239 0)
(-0.00317259 0.000602969 0)
(-0.00323715 0.000537524 0)
(-0.00329798 0.00048611 0)
(-0.00335539 0.000447092 0)
(-4.16074e-07 -7.111e-05 0)
(-4.67531e-06 -0.000193721 0)
(-1.13455e-05 -0.000296238 0)
(-3.65329e-05 -0.000378657 0)
(-0.000116177 -0.00044127 0)
(-0.000350847 -0.000498672 0)
(-0.00101148 -0.000498267 0)
(-0.00234209 0.0216342 0)
(-0.000666873 0.0244819 0)
(-0.000560716 0.0257725 0)
(-0.00010279 0.0269192 0)
(0.000766769 0.0277565 0)
(0.00166364 0.0281342 0)
(0.00243104 0.0280403 0)
(0.00302999 0.0275354 0)
(0.00346196 0.0267075 0)
(0.00374573 0.0256428 0)
(0.00390222 0.0244117 0)
(0.00395173 0.0230677 0)
(0.00391273 0.021651 0)
(0.00380149 0.0201935 0)
(0.00363207 0.0187213 0)
(0.0034165 0.0172563 0)
(0.00316503 0.0158171 0)
(0.00288643 0.0144198 0)
(0.00258818 0.0130773 0)
(0.00227664 0.0118 0)
(0.00195717 0.0105955 0)
(0.00163432 0.00946892 0)
(0.00131182 0.00842305 0)
(0.000992793 0.00745868 0)
(0.000679745 0.00657495 0)
(0.000374696 0.00576975 0)
(7.92218e-05 0.00503999 0)
(-0.000205479 0.00438195 0)
(-0.000478532 0.0037915 0)
(-0.000739331 0.00326429 0)
(-0.000987504 0.0027959 0)
(-0.00122287 0.00238191 0)
(-0.00144542 0.00201799 0)
(-0.00165528 0.00169996 0)
(-0.00185268 0.0014238 0)
(-0.00203793 0.0011857 0)
(-0.00221145 0.000982053 0)
(-0.00237366 0.000809466 0)
(-0.00252504 0.000664775 0)
(-0.0026661 0.000545049 0)
(-0.00279735 0.000447587 0)
(-0.00291931 0.000369909 0)
(-0.0030325 0.000309753 0)
(1.7932e-07 -4.7758e-05 0)
(-1.42319e-06 -0.000123714 0)
(-5.97517e-06 -0.000180002 0)
(-3.56771e-05 -0.000216963 0)
(-0.000125295 -0.000237385 0)
(-0.000317376 -0.00025736 0)
(-0.00109825 -0.000243987 0)
(-0.00219509 0.00494492 0)
(-0.000279968 0.00923008 0)
(0.000301526 0.0127327 0)
(0.000986917 0.0155277 0)
(0.00160711 0.0178012 0)
(0.00219028 0.0196329 0)
(0.00271562 0.0210658 0)
(0.00317454 0.0221316 0)
(0.00356236 0.0228598 0)
(0.00387756 0.0232806 0)
(0.00412114 0.023426 0)
(0.00429612 0.0233296 0)
(0.00440683 0.0230246 0)
(0.00445833 0.0225439 0)
(0.00445614 0.0219186 0)
(0.00440598 0.0211783 0)
(0.00431364 0.0203498 0)
(0.00418486 0.0194577 0)
(0.00402526 0.0185236 0)
(0.0038402 0.0175661 0)
(0.00363475 0.016601 0)
(0.00341356 0.0156412 0)
(0.00318085 0.0146969 0)
(0.00294036 0.0137761 0)
(0.00269533 0.0128848 0)
(0.00244852 0.0120275 0)
(0.00220225 0.0112071 0)
(0.00195845 0.0104258 0)
(0.00171865 0.00968472 0)
(0.00148408 0.00898436 0)
(0.00125566 0.00832477 0)
(0.0010341 0.0077056 0)
(0.000819872 0.00712617 0)
(0.000613301 0.00658556 0)
(0.000414559 0.00608265 0)
(0.000223701 0.00561615 0)
(4.06924e-05 0.00518469 0)
(-0.000134574 0.00478677 0)
(-0.000302266 0.00442085 0)
(-0.000462598 0.00408535 0)
(-0.000615823 0.00377865 0)
(-0.000762216 0.00349913 0)
(-0.000902066 0.00324518 0)
(1.24436e-06 -1.12416e-05 0)
(4.2138e-06 -1.70557e-05 0)
(4.86888e-06 -5.14255e-06 0)
(-5.00373e-05 2.4826e-05 0)
(-0.000241909 6.28623e-05 0)
(-0.000533184 7.41125e-05 0)
(-0.0014288 0.000139674 0)
(-0.00238 0.00317631 0)
(-0.00102267 0.00579075 0)
(-0.000757329 0.00820841 0)
(-0.00052582 0.0103985 0)
(-0.000268708 0.0123473 0)
(2.66257e-06 0.0140431 0)
(0.000261631 0.0154857 0)
(0.000497134 0.0166818 0)
(0.000703471 0.0176402 0)
(0.000875766 0.0183706 0)
(0.00100942 0.0188839 0)
(0.00110063 0.0191934 0)
(0.00114696 0.0193143 0)
(0.00114752 0.0192636 0)
(0.00110297 0.0190597 0)
(0.00101547 0.0187209 0)
(0.00088854 0.0182654 0)
(0.000726777 0.0177109 0)
(0.000535558 0.0170748 0)
(0.000320652 0.0163741 0)
(8.79554e-05 0.0156255 0)
(-0.00015676 0.0148447 0)
(-0.000408068 0.0140459 0)
(-0.000661096 0.0132421 0)
(-0.000911673 0.0124443 0)
(-0.00115642 0.0116619 0)
(-0.00139275 0.0109025 0)
(-0.00161874 0.0101719 0)
(-0.00183306 0.0094747 0)
(-0.00203481 0.00881398 0)
(-0.00222337 0.0081918 0)
(-0.0023984 0.00760928 0)
(-0.00255979 0.00706678 0)
(-0.00270763 0.00656401 0)
(-0.00284214 0.00610014 0)
(-0.00296361 0.00567395 0)
(-0.00307237 0.00528392 0)
(-0.00316887 0.00492833 0)
(-0.00325373 0.00460533 0)
(-0.00332769 0.00431294 0)
(-0.00339159 0.00404915 0)
(-0.00344627 0.00381193 0)
(-0.00349261 0.00359926 0)
(4.37859e-06 5.49675e-06 0)
(1.77845e-05 1.99923e-05 0)
(2.90318e-05 3.67772e-05 0)
(-0.000123455 5.49032e-05 0)
(-0.000692153 7.10028e-05 0)
(-0.00153206 8.00182e-05 0)
(-0.0032896 -0.00148477 0)
(-0.0018721 0.000473347 0)
(-0.000533302 0.00312246 0)
(0.000110978 0.00615004 0)
(8.14803e-05 0.00873825 0)
(-0.000419622 0.0110149 0)
(-0.00107779 0.0131419 0)
(-0.00158652 0.0150914 0)
(-0.00182883 0.0168369 0)
(-0.00181531 0.0183882 0)
(-0.00160382 0.0197629 0)
(-0.00125475 0.0209727 0)
(-0.00081612 0.0220194 0)
(-0.00032563 0.0228948 0)
(0.000181418 0.0235887 0)
(0.000668255 0.0240932 0)
(0.00110023 0.0244028 0)
(0.00145162 0.0245144 0)
(0.00171089 0.0244301 0)
(0.00188163 0.024159 0)
(0.00197805 0.0237143 0)
(0.00201799 0.0231117 0)
(0.00201846 0.0223697 0)
(0.00199352 0.0215098 0)
(0.00195332 0.020557 0)
(0.00190435 0.0195373 0)
(0.00184991 0.0184763 0)
(0.00179092 0.0173965 0)
(0.00172706 0.0163164 0)
(0.00165761 0.0152502 0)
(0.00158212 0.014207 0)
(0.00150081 0.0131931 0)
(0.00141428 0.0122142 0)
(0.00132297 0.0112758 0)
(0.00122702 0.0103819 0)
(0.00112669 0.00953329 0)
(0.00102262 0.00872911 0)
(0.000915706 0.00796884 0)
(0.000806594 0.00725497 0)
(0.000695473 0.0065902 0)
(0.000582264 0.00597617 0)
(0.000466851 0.005413 0)
(0.000349286 0.00489954 0)
(0.000229821 0.00443389 0)
(1.00081e-06 0.000103995 0)
(-1.91605e-06 0.0002559 0)
(-2.29742e-05 0.000355247 0)
(-0.000142732 0.000399638 0)
(-0.000535871 0.000414041 0)
(-0.00121949 0.00046279 0)
(-0.00193901 -0.0156297 0)
(-0.00186647 -0.0119331 0)
(-0.00129478 -0.0240773 0)
(-0.000660676 0.00232638 0)
(-9.11527e-05 0.0205263 0)
(-0.000932487 0.0323773 0)
(-0.000405532 0.0323718 0)
(-0.000227975 0.0262173 0)
(0.000277811 0.019456 0)
(0.00109481 0.0143613 0)
(0.00179106 0.0108101 0)
(0.00204773 0.0083919 0)
(0.001608 0.00680311 0)
(0.000388288 0.00592433 0)
(-0.00147124 0.00580675 0)
(-0.00371594 0.00647786 0)
(-0.00608501 0.00781361 0)
(-0.00834417 0.00953072 0)
(-0.0103078 0.0112698 0)
(-0.0118881 0.0127084 0)
(-0.0130857 0.0136848 0)
(-0.0139199 0.0141773 0)
(-0.0143922 0.01424 0)
(-0.0145071 0.0140004 0)
(-0.0142893 0.0135652 0)
(-0.0137959 0.0130193 0)
(-0.0131083 0.0124358 0)
(-0.0123139 0.0118659 0)
(-0.0114881 0.0113316 0)
(-0.0106953 0.0108379 0)
(-0.00997804 0.0103777 0)
(-0.00932658 0.00994021 0)
(-0.00870872 0.00952456 0)
(-0.00811955 0.00913397 0)
(-0.00758754 0.00877592 0)
(-0.00713786 0.0084396 0)
(-0.00675936 0.00811819 0)
(-0.00639744 0.00780918 0)
(-0.00600566 0.00752794 0)
(-0.00558744 0.00727901 0)
(-0.00516385 0.00706295 0)
(-0.00475569 0.00687607 0)
(-0.00437529 0.00671215 0)
(-0.00402558 0.0065647 0)
(4.2423e-06 0.00016326 0)
(3.35676e-05 0.000474946 0)
(8.37929e-05 0.000751023 0)
(0.000147822 0.00104839 0)
(0.000190311 0.00133255 0)
(0.00015357 0.00197659 0)
(-0.000645679 0.00807305 0)
(-0.00170187 0.00353049 0)
(-0.0026935 0.000949153 0)
(-0.00308711 0.00265549 0)
(-0.00280571 0.00297994 0)
(-0.00297772 0.026093 0)
(-0.000233736 0.0281159 0)
(-0.00166564 0.0206486 0)
(-0.0037814 -0.00559986 0)
(-0.00183092 -0.00573732 0)
(-0.000464466 0.00589776 0)
(-0.000195858 0.0238979 0)
(0.000226853 0.046021 0)
(0.000473968 0.06662 0)
(0.000822137 0.0810145 0)
(0.00124138 0.0883011 0)
(0.0017425 0.0888935 0)
(0.00235986 0.0832987 0)
(0.00288041 0.072731 0)
(0.00325554 0.0615602 0)
(0.00355746 0.0516779 0)
(0.00500999 0.0420058 0)
(0.00576096 0.0316327 0)
(0.00618383 0.0210777 0)
(0.00660461 0.0116725 0)
(0.0069492 0.00434804 0)
(0.00710048 -0.000478761 0)
(0.00705632 -0.00314694 0)
(0.00709383 -0.00443947 0)
(0.00719653 -0.00391446 0)
(0.00716531 -0.00216078 0)
(0.0070003 -0.00224101 0)
(0.00706352 -0.00303859 0)
(0.00732338 -0.00344076 0)
(0.00759894 -0.00239842 0)
(0.00775418 -0.000766436 0)
(0.00767341 0.000799438 0)
(0.00751617 -0.00120342 0)
(0.00734036 -0.00301897 0)
(0.0072093 -0.00415454 0)
(0.00711523 -0.00461733 0)
(0.00699552 -0.00460048 0)
(0.00680004 -0.00434289 0)
(0.00652471 -0.00401967 0)
(6.11121e-06 -0.00024156 0)
(4.64924e-05 -0.000630563 0)
(0.000132913 -0.000956729 0)
(0.000244126 -0.00117552 0)
(0.000392014 -0.00134969 0)
(0.000653438 -0.00140052 0)
(0.000951429 -0.00136267 0)
(0.0011322 -0.00196211 0)
(0.0011714 -0.00265656 0)
(0.001176 -0.0033832 0)
(0.00149824 -0.00381711 0)
(0.00256243 -0.00374148 0)
(0.00457229 -0.00348758 0)
(0.00654314 -0.00106574 0)
(0.00759224 0.00234558 0)
(0.00714316 0.0028727 0)
(0.00670525 0.00356697 0)
(0.00697437 0.0036277 0)
(0.00802082 0.00381172 0)
(0.00992635 0.00499176 0)
(0.0123814 0.00597458 0)
(0.0147054 0.0106347 0)
(0.0161495 0.017706 0)
(0.0169294 0.0223824 0)
(0.0230916 0.0315547 0)
(0.0158964 0.0183927 0)
(0.0181756 -0.0284301 0)
(0.025057 -0.021846 0)
(0.0273049 -0.00492204 0)
(0.0265476 0.0028998 0)
(0.0263725 0.00591449 0)
(0.0262711 0.00931201 0)
(0.0251895 0.0140097 0)
(0.0237246 0.0154468 0)
(0.0232743 0.0102263 0)
(0.0234702 0.0101102 0)
(0.0232177 0.0144021 0)
(0.0229329 0.0121311 0)
(0.0227267 0.00757084 0)
(0.0223497 0.00136319 0)
(0.0226588 0.00508122 0)
(0.0234207 0.00836275 0)
(0.0241321 0.0109345 0)
(0.0246874 0.0122174 0)
(0.0248717 0.0136261 0)
(0.0243938 0.0100855 0)
(0.0242768 0.00887522 0)
(0.0243166 0.0106183 0)
(0.0245096 0.0125105 0)
(0.0249321 0.0139839 0)
(-7.96235e-07 -0.000397116 0)
(4.15861e-06 -0.00112313 0)
(1.71798e-05 -0.00178517 0)
(4.4012e-05 -0.00239811 0)
(8.18725e-05 -0.00295746 0)
(0.000137759 -0.00347952 0)
(0.000205505 -0.00396029 0)
(0.000279786 -0.0044236 0)
(0.000338525 -0.00483735 0)
(0.000380132 -0.00511801 0)
(0.000407661 -0.00521061 0)
(0.000435128 -0.0051826 0)
(0.000469711 -0.00502543 0)
(0.000621125 -0.00463487 0)
(0.000880566 -0.00427786 0)
(0.00103047 -0.00406364 0)
(0.00116818 -0.00388161 0)
(0.00145087 -0.00367733 0)
(0.00184677 -0.00340785 0)
(0.00236651 -0.00300772 0)
(0.00306743 -0.00245727 0)
(0.00406843 -0.0016956 0)
(0.00555874 -0.000827046 0)
(0.00745844 0.000123019 0)
(0.00965005 0.00136731 0)
(0.011699 0.00401769 0)
(0.0120316 0.00258669 0)
(0.0104196 0.00277562 0)
(0.00941768 0.00823618 0)
(0.00918994 0.0128669 0)
(0.00925161 0.0169331 0)
(0.00934289 0.0207447 0)
(0.00929863 0.0235478 0)
(0.00908833 0.0192141 0)
(0.00971722 0.00552311 0)
(0.0109606 -0.00236613 0)
(0.0116995 -0.00273283 0)
(0.0114864 -0.00120766 0)
(0.011123 0.000867777 0)
(0.0110042 -0.00254914 0)
(0.0111659 -0.0122291 0)
(0.0118967 -0.026491 0)
(0.0134291 -0.0298772 0)
(0.01354 -0.00788977 0)
(0.0135954 0.000238111 0)
(0.0136542 0.00029562 0)
(0.0137598 -0.00107876 0)
(0.0141724 -0.00562391 0)
(0.0152916 -0.013048 0)
(0.0165586 -0.0167678 0)
(-7.68792e-08 -0.00032923 0)
(-3.73353e-06 -0.000948164 0)
(-1.12732e-05 -0.0015276 0)
(-2.2643e-05 -0.00206662 0)
(-3.69221e-05 -0.00256821 0)
(-5.43054e-05 -0.00302978 0)
(-7.45131e-05 -0.00345447 0)
(-9.79544e-05 -0.00383888 0)
(-0.00012441 -0.0041858 0)
(-0.000151608 -0.00449022 0)
(-0.000176407 -0.0047537 0)
(-0.000193623 -0.00497355 0)
(-0.000199895 -0.0051537 0)
(-0.000188642 -0.00529527 0)
(-0.000160109 -0.00541527 0)
(-0.000117237 -0.00552213 0)
(-6.73171e-05 -0.00557745 0)
(-9.95535e-06 -0.00556042 0)
(5.34093e-05 -0.0054578 0)
(0.000127375 -0.00527194 0)
(0.000215161 -0.00499582 0)
(0.000326635 -0.00462598 0)
(0.000456081 -0.00417242 0)
(0.000614896 -0.00364044 0)
(0.000812148 -0.00297616 0)
(0.00104795 -0.00210604 0)
(0.00122358 -0.00157689 0)
(0.00135322 -0.000986313 0)
(0.00165317 -0.000192701 0)
(0.00223993 0.000652019 0)
(0.00304286 0.00155459 0)
(0.00394545 0.00251032 0)
(0.00492817 0.00329408 0)
(0.00599288 0.00342663 0)
(0.00682539 0.000799907 0)
(0.00688554 0.00273062 0)
(0.00648538 0.00940839 0)
(0.00591632 0.0134685 0)
(0.00545992 0.0112738 0)
(0.00555666 0.00326481 0)
(0.00583172 -0.00384346 0)
(0.0048052 -0.00244305 0)
(0.00305797 0.0057739 0)
(0.00196115 0.00997074 0)
(0.00151935 0.0106306 0)
(0.00141209 0.00826555 0)
(0.00125599 0.0021172 0)
(0.00119259 -0.0116441 0)
(0.00141503 -0.0208474 0)
(0.00103667 -0.0115051 0)
(-7.50577e-07 -0.000323527 0)
(-5.34148e-06 -0.000930563 0)
(-1.38375e-05 -0.00149748 0)
(-2.57038e-05 -0.00202476 0)
(-4.04446e-05 -0.00251254 0)
(-5.77012e-05 -0.00296116 0)
(-7.70595e-05 -0.00337029 0)
(-9.82563e-05 -0.00374028 0)
(-0.000120766 -0.00407072 0)
(-0.000144341 -0.00436184 0)
(-0.000168213 -0.00461337 0)
(-0.000192178 -0.00482564 0)
(-0.000215391 -0.00499883 0)
(-0.000237963 -0.00513331 0)
(-0.000259372 -0.00522986 0)
(-0.000280233 -0.00528849 0)
(-0.000299758 -0.00530967 0)
(-0.00031743 -0.00529254 0)
(-0.000330928 -0.00523805 0)
(-0.000338546 -0.00514564 0)
(-0.000337474 -0.00501752 0)
(-0.000325727 -0.00485417 0)
(-0.000300517 -0.00465996 0)
(-0.000259164 -0.00443613 0)
(-0.000198295 -0.00418945 0)
(-0.000115193 -0.00392393 0)
(-1.2142e-05 -0.00365152 0)
(0.000107252 -0.00336385 0)
(0.000241888 -0.00301127 0)
(0.00039761 -0.00257473 0)
(0.000579723 -0.00205658 0)
(0.000790572 -0.00147761 0)
(0.0010126 -0.000972838 0)
(0.00121877 -0.000581453 0)
(0.00134359 -0.000316328 0)
(0.00145128 0.000299403 0)
(0.00174933 0.00124743 0)
(0.0022923 0.00213755 0)
(0.00296383 0.00227492 0)
(0.00344537 0.000339371 0)
(0.00333255 0.0015256 0)
(0.00291735 0.00340322 0)
(0.00278805 0.00296622 0)
(0.00326533 0.0014547 0)
(0.00380303 0.00243225 0)
(0.00398065 0.00339953 0)
(0.00394415 0.00272484 0)
(0.00365467 -0.000546637 0)
(0.00287987 -0.00538113 0)
(0.00223763 -0.0010389 0)
(-5.07271e-07 -0.000276972 0)
(-6.38558e-06 -0.000800754 0)
(-1.82375e-05 -0.00129447 0)
(-3.55596e-05 -0.00175839 0)
(-5.75843e-05 -0.00219272 0)
(-8.35749e-05 -0.0025974 0)
(-0.000112888 -0.00297247 0)
(-0.000144824 -0.00331789 0)
(-0.00017876 -0.00363375 0)
(-0.00021395 -0.00392004 0)
(-0.000249776 -0.00417686 0)
(-0.000285459 -0.00440424 0)
(-0.000320403 -0.00460229 0)
(-0.000353816 -0.00477106 0)
(-0.000385145 -0.0049107 0)
(-0.000413601 -0.00502124 0)
(-0.000438654 -0.00510284 0)
(-0.000459485 -0.00515556 0)
(-0.000475546 -0.00517969 0)
(-0.000486 -0.00517541 0)
(-0.000490326 -0.00514332 0)
(-0.000487756 -0.00508368 0)
(-0.00047789 -0.00499747 0)
(-0.000460152 -0.00488497 0)
(-0.000434412 -0.00474764 0)
(-0.00040048 -0.00458568 0)
(-0.000358634 -0.00440107 0)
(-0.0003087 -0.00419323 0)
(-0.000249887 -0.00396419 0)
(-0.000180047 -0.00371304 0)
(-9.70779e-05 -0.00344399 0)
(4.23754e-07 -0.00315713 0)
(0.000110777 -0.00285877 0)
(0.00022981 -0.00254669 0)
(0.000354188 -0.00221504 0)
(0.000488428 -0.00182893 0)
(0.00064813 -0.00135485 0)
(0.00083621 -0.000914053 0)
(0.00102051 -0.000634825 0)
(0.00114223 -0.000480213 0)
(0.00123907 5.39907e-05 0)
(0.00140535 0.000800776 0)
(0.00161047 0.00122568 0)
(0.00175968 0.000814786 0)
(0.00182661 0.00370282 0)
(0.00185803 0.00505469 0)
(0.00191948 0.00418724 0)
(0.00197973 0.00206934 0)
(0.00190906 -0.000659836 0)
(0.00179799 -0.00132005 0)
(-1.00255e-06 -0.000237007 0)
(-8.95895e-06 -0.000687099 0)
(-2.43579e-05 -0.00111354 0)
(-4.65027e-05 -0.00151671 0)
(-7.45578e-05 -0.00189691 0)
(-0.000107805 -0.00225431 0)
(-0.000145606 -0.00258904 0)
(-0.000187334 -0.00290127 0)
(-0.000232374 -0.00319115 0)
(-0.000280105 -0.00345883 0)
(-0.000329926 -0.00370446 0)
(-0.000381226 -0.00392819 0)
(-0.00043342 -0.00413016 0)
(-0.000485903 -0.00431054 0)
(-0.000538108 -0.00446949 0)
(-0.000589429 -0.0046072 0)
(-0.000639315 -0.00472383 0)
(-0.000687153 -0.00481962 0)
(-0.000732412 -0.00489473 0)
(-0.000774471 -0.00494946 0)
(-0.000812829 -0.00498397 0)
(-0.000846868 -0.00499862 0)
(-0.000876129 -0.00499355 0)
(-0.00090001 -0.00496917 0)
(-0.000918106 -0.00492559 0)
(-0.000929843 -0.00486326 0)
(-0.00093488 -0.00478217 0)
(-0.000932669 -0.00468281 0)
(-0.000922891 -0.00456501 0)
(-0.000905012 -0.00442938 0)
(-0.000878752 -0.00427577 0)
(-0.000843735 -0.00410514 0)
(-0.000799833 -0.00391694 0)
(-0.000746781 -0.00371191 0)
(-0.000683909 -0.00348901 0)
(-0.000609951 -0.00324881 0)
(-0.00052338 -0.00299044 0)
(-0.000425148 -0.00271689 0)
(-0.000318434 -0.00242778 0)
(-0.00020636 -0.00211052 0)
(-8.09995e-05 -0.00172254 0)
(6.51272e-05 -0.00130713 0)
(0.000215402 -0.000996399 0)
(0.000351189 -0.000834496 0)
(0.000552478 -0.000240574 0)
(0.000866121 0.000260834 0)
(0.00118239 0.000383933 0)
(0.00140312 0.000153384 0)
(0.00150467 -0.00020982 0)
(0.00152146 -0.000571223 0)
(-7.57744e-07 -0.000174124 0)
(-8.08773e-06 -0.000509726 0)
(-2.26554e-05 -0.000832391 0)
(-4.39071e-05 -0.00114192 0)
(-7.10604e-05 -0.00143813 0)
(-0.000103446 -0.00172077 0)
(-0.000140473 -0.00198964 0)
(-0.00018159 -0.00224453 0)
(-0.000226251 -0.0024853 0)
(-0.000273933 -0.0027118 0)
(-0.000324115 -0.00292394 0)
(-0.000376305 -0.00312161 0)
(-0.000430008 -0.00330476 0)
(-0.000484758 -0.00347335 0)
(-0.00054008 -0.00362738 0)
(-0.000595531 -0.00376686 0)
(-0.000650654 -0.00389185 0)
(-0.000705026 -0.00400241 0)
(-0.000758204 -0.00409869 0)
(-0.000809783 -0.00418079 0)
(-0.00085933 -0.00424893 0)
(-0.000906457 -0.00430328 0)
(-0.00095074 -0.00434411 0)
(-0.000991801 -0.00437167 0)
(-0.00102922 -0.0043863 0)
(-0.00106263 -0.00438831 0)
(-0.00109161 -0.00437812 0)
(-0.00111578 -0.00435608 0)
(-0.00113473 -0.00432272 0)
(-0.00114805 -0.00427844 0)
(-0.00115531 -0.00422385 0)
(-0.00115613 -0.00415943 0)
(-0.00115006 -0.00408574 0)
(-0.00113664 -0.00400333 0)
(-0.00111542 -0.00391295 0)
(-0.00108586 -0.00381524 0)
(-0.00104749 -0.00371114 0)
(-0.000999744 -0.00360148 0)
(-0.000941981 -0.0034875 0)
(-0.000873103 -0.00336955 0)
(-0.0007916 -0.00324858 0)
(-0.000697239 -0.00312636 0)
(-0.000591137 -0.0030055 0)
(-0.000475334 -0.00287997 0)
(-0.000347129 -0.00272441 0)
(-0.000196329 -0.00250855 0)
(-2.51761e-05 -0.00236841 0)
(0.000144395 -0.00237013 0)
(0.000295767 -0.00240607 0)
(0.000426942 -0.00246406 0)
(-5.46443e-07 -0.000135038 0)
(-5.0049e-06 -0.000398659 0)
(-1.37101e-05 -0.000655393 0)
(-2.63003e-05 -0.000904828 0)
(-4.23323e-05 -0.0011466 0)
(-6.14224e-05 -0.00138035 0)
(-8.32296e-05 -0.00160574 0)
(-0.000107418 -0.00182249 0)
(-0.000133655 -0.00203031 0)
(-0.000161604 -0.00222897 0)
(-0.000190939 -0.00241826 0)
(-0.000221329 -0.002598 0)
(-0.000252455 -0.00276802 0)
(-0.000283993 -0.00292821 0)
(-0.000315633 -0.00307846 0)
(-0.000347058 -0.00321872 0)
(-0.000377967 -0.00334894 0)
(-0.000408054 -0.00346912 0)
(-0.000437025 -0.00357928 0)
(-0.000464586 -0.00367948 0)
(-0.000490456 -0.0037698 0)
(-0.000514351 -0.00385037 0)
(-0.000536004 -0.00392132 0)
(-0.000555145 -0.00398285 0)
(-0.000571521 -0.00403516 0)
(-0.00058488 -0.00407851 0)
(-0.000594984 -0.00411316 0)
(-0.000601601 -0.00413946 0)
(-0.000604511 -0.00415772 0)
(-0.000603506 -0.00416835 0)
(-0.000598386 -0.00417167 0)
(-0.000588976 -0.00416824 0)
(-0.000575092 -0.00415856 0)
(-0.000556579 -0.00414322 0)
(-0.000533273 -0.00412274 0)
(-0.000505058 -0.0040978 0)
(-0.000471799 -0.00406899 0)
(-0.000433427 -0.00403711 0)
(-0.000389861 -0.004003 0)
(-0.000341093 -0.00396746 0)
(-0.000287081 -0.00393124 0)
(-0.000227884 -0.00389551 0)
(-0.000163487 -0.00386101 0)
(-9.36589e-05 -0.00382893 0)
(-1.76374e-05 -0.00379984 0)
(6.49075e-05 -0.00377558 0)
(0.00015308 -0.00375828 0)
(0.000244259 -0.00374985 0)
(0.000337912 -0.00373615 0)
(0.000432158 -0.00373582 0)
(-1.20573e-07 -0.000116201 0)
(-1.80555e-06 -0.000344822 0)
(-5.30582e-06 -0.000569364 0)
(-1.05129e-05 -0.000789486 0)
(-1.72295e-05 -0.00100488 0)
(-2.52656e-05 -0.00121525 0)
(-3.4444e-05 -0.00142032 0)
(-4.4586e-05 -0.00161986 0)
(-5.55087e-05 -0.00181364 0)
(-6.70249e-05 -0.00200144 0)
(-7.89445e-05 -0.00218307 0)
(-9.10758e-05 -0.00235835 0)
(-0.000103224 -0.00252713 0)
(-0.000115197 -0.00268928 0)
(-0.000126796 -0.00284469 0)
(-0.00013783 -0.00299327 0)
(-0.000148103 -0.00313494 0)
(-0.000157423 -0.00326968 0)
(-0.0001656 -0.00339745 0)
(-0.000172446 -0.00351825 0)
(-0.000177777 -0.00363211 0)
(-0.000181414 -0.00373908 0)
(-0.000183179 -0.00383921 0)
(-0.000182906 -0.00393259 0)
(-0.000180428 -0.00401934 0)
(-0.000175592 -0.00409958 0)
(-0.000168244 -0.00417346 0)
(-0.00015825 -0.00424114 0)
(-0.000145474 -0.00430281 0)
(-0.0001298 -0.00435866 0)
(-0.00011111 -0.00440885 0)
(-8.93133e-05 -0.00445363 0)
(-6.43226e-05 -0.00449338 0)
(-3.60744e-05 -0.00452835 0)
(-4.5085e-06 -0.00455883 0)
(3.04055e-05 -0.00458509 0)
(6.86969e-05 -0.00460745 0)
(0.000110365 -0.00462617 0)
(0.000155387 -0.00464143 0)
(0.000203695 -0.00465367 0)
(0.00025523 -0.00466329 0)
(0.000309882 -0.00467047 0)
(0.000367543 -0.00467567 0)
(0.000428044 -0.00467894 0)
(0.000491223 -0.00468085 0)
(0.000556868 -0.00468137 0)
(0.0006247 -0.0046812 0)
(0.000694488 -0.00467994 0)
(0.000765811 -0.00467824 0)
(0.000838263 -0.00467533 0)
(-1.56241e-07 -0.000109548 0)
(-1.04865e-06 -0.000325854 0)
(-2.67611e-06 -0.000539199 0)
(-4.93893e-06 -0.000749326 0)
(-7.74287e-06 -0.000955982 0)
(-1.10044e-05 -0.00115893 0)
(-1.46425e-05 -0.00135796 0)
(-1.85709e-05 -0.00155288 0)
(-2.26992e-05 -0.00174352 0)
(-2.69326e-05 -0.0019297 0)
(-3.11731e-05 -0.00211129 0)
(-3.53197e-05 -0.00228813 0)
(-3.9269e-05 -0.00246012 0)
(-4.29156e-05 -0.00262714 0)
(-4.61526e-05 -0.0027891 0)
(-4.88722e-05 -0.00294591 0)
(-5.0966e-05 -0.00309751 0)
(-5.23258e-05 -0.00324385 0)
(-5.28441e-05 -0.00338489 0)
(-5.24143e-05 -0.00352061 0)
(-5.09318e-05 -0.00365101 0)
(-4.82938e-05 -0.00377609 0)
(-4.4401e-05 -0.00389587 0)
(-3.91564e-05 -0.00401038 0)
(-3.24682e-05 -0.00411968 0)
(-2.42469e-05 -0.00422383 0)
(-1.44104e-05 -0.00432291 0)
(-2.87857e-06 -0.004417 0)
(1.04188e-05 -0.00450621 0)
(2.55508e-05 -0.00459066 0)
(4.25756e-05 -0.00467044 0)
(6.15544e-05 -0.00474566 0)
(8.25284e-05 -0.00481658 0)
(0.000105539 -0.00488333 0)
(0.000130609 -0.00494613 0)
(0.000157768 -0.00500515 0)
(0.00018702 -0.0050606 0)
(0.000218381 -0.00511269 0)
(0.000251844 -0.00516141 0)
(0.00028742 -0.00520714 0)
(0.000325083 -0.00525016 0)
(0.000364829 -0.00529074 0)
(0.00040662 -0.00532916 0)
(0.00045045 -0.00536568 0)
(0.000496276 -0.00540063 0)
(0.000544085 -0.0054343 0)
(0.000593844 -0.00546701 0)
(0.000645549 -0.0054991 0)
(0.000699248 -0.00553087 0)
(0.000754981 -0.00556274 0)
(-0.00605182 -0.000447232 0)
(-0.00606378 -0.000424687 0)
(-0.00607297 -0.000395294 0)
(-0.00607968 -0.000360365 0)
(-0.00608416 -0.000320998 0)
(-0.0060867 -0.00027811 0)
(-0.00608754 -0.000232469 0)
(-0.00608695 -0.000184718 0)
(-0.00608523 -0.000135398 0)
(-0.00608221 -8.49742e-05 0)
(-0.00607772 -3.38026e-05 0)
(-0.00607213 1.78027e-05 0)
(-0.00606567 6.95809e-05 0)
(-0.00605847 0.000121319 0)
(-0.00605065 0.000172846 0)
(-0.0060423 0.000224028 0)
(-0.00603352 0.000274759 0)
(-0.00602441 0.000324956 0)
(-0.00601503 0.00037456 0)
(-0.00600545 0.00042353 0)
(-0.00599575 0.000471839 0)
(-0.00598598 0.000519475 0)
(-0.00597619 0.000566439 0)
(-0.00596644 0.000612744 0)
(-0.00595676 0.000658412 0)
(-0.0059472 0.000703479 0)
(-0.0059378 0.00074799 0)
(-0.00592858 0.000792001 0)
(-0.00591958 0.000835583 0)
(-0.00591082 0.000878816 0)
(-0.00590233 0.000921794 0)
(-0.00589413 0.000964624 0)
(-0.00588624 0.00100742 0)
(-0.00587868 0.00105032 0)
(-0.00587145 0.00109344 0)
(-0.00586458 0.00113692 0)
(-0.00585807 0.00118089 0)
(-0.00585194 0.00122544 0)
(-0.00584619 0.00127065 0)
(-0.00584084 0.00131654 0)
(-0.00583589 0.00136304 0)
(-0.00583135 0.00141002 0)
(-0.00582724 0.00145724 0)
(-0.00582357 0.00150436 0)
(-0.00582035 0.00155096 0)
(-0.0058176 0.00159654 0)
(-0.00581533 0.0016406 0)
(-0.0058135 0.00168273 0)
(-0.00581211 0.0017227 0)
(-0.00581145 0.00176003 0)
(-0.00589883 -7.23826e-05 0)
(-0.00587408 -6.68839e-05 0)
(-0.00585009 -5.36928e-05 0)
(-0.00582685 -3.40372e-05 0)
(-0.00580433 -8.98311e-06 0)
(-0.00578252 2.05458e-05 0)
(-0.00576142 5.37516e-05 0)
(-0.00574103 8.99475e-05 0)
(-0.00572135 0.000128547 0)
(-0.00570236 0.000169061 0)
(-0.00568403 0.000211044 0)
(-0.00566639 0.000254131 0)
(-0.00564947 0.000298015 0)
(-0.00563326 0.000342439 0)
(-0.00561777 0.000387199 0)
(-0.005603 0.000432153 0)
(-0.00558896 0.000477186 0)
(-0.00557566 0.000522202 0)