/*--------------------------------*- C++ -*----------------------------------*\
| =========                 |                                                 |
| \\      /  F ield         | OpenFOAM: The Open Source CFD Toolbox           |
|  \\    /   O peration     | Version:  2.4.0                                 |
|   \\  /    A nd           | Web:      www.OpenFOAM.org                      |
|    \\/     M anipulation  |                                                 |
\*---------------------------------------------------------------------------*/
FoamFile
{
    version     2.0;
    format      ascii;
    class       volScalarField;
    location    "3.7";
    object      H;
}
// * * * * * * * * * * * * * * * * * * * * * * * * * * * * * * * * * * * * * //

dimensions      [0 2 -2 0 0 0 0];

internalField   nonuniform List<scalar> 
500
(
-11982.7
-11982.7
-11982.7
-11982.7
-11982.7
-11485.3
-11485.2
-11485.2
-11485.2
-11485.3
-10982.3
-10982.2
-10982.2
-10982.2
-10982.3
-10473.6
-10473.5
-10473.5
-10473.5
-10473.6
-9959.09
-9959.02
-9958.97
-9959.02
-9959.09
-9438.75
-9438.67
-9438.6
-9438.66
-9438.75
-8912.43
-8912.33
-8912.25
-8912.32
-8912.43
-8380.04
-8379.92
-8379.83
-8379.91
-8380.04
-7841.47
-7841.33
-7841.22
-7841.32
-7841.47
-7296.6
-7296.44
-7296.32
-7296.43
-7296.6
-6745.33
-6745.16
-6745.02
-6745.14
-6745.33
-6187.55
-6187.35
-6187.2
-6187.33
-6187.55
-5623.13
-5622.91
-5622.74
-5622.89
-5623.13
-5051.95
-5051.71
-5051.52
-5051.69
-5051.95
-4473.89
-4473.62
-4473.42
-4473.6
-4473.89
-3888.83
-3888.53
-3888.31
-3888.51
-3888.83
-3296.62
-3296.3
-3296.06
-3296.28
-3296.62
-2697.15
-2696.79
-2696.53
-2696.77
-2697.15
-2090.26
-2089.87
-2089.59
-2089.84
-2090.26
-1475.83
-1475.4
-1475.09
-1475.37
-1475.83
-853.706
-853.236
-852.905
-853.206
-853.708
-25.3176
-25.255
-25.2124
-25.2512
-25.3179
-19.0233
-18.9762
-18.9442
-18.9733
-19.0235
-19.1723
-19.1259
-19.0944
-19.1231
-19.1724
-19.3159
-19.2702
-19.2392
-19.2675
-19.316
-19.4538
-19.4088
-19.3782
-19.4061
-19.4538
-19.5857
-19.5415
-19.5113
-19.5388
-19.5857
-19.7113
-19.6678
-19.6382
-19.6652
-19.7113
-19.8305
-19.7877
-19.7585
-19.7851
-19.8304
-19.9428
-19.9008
-19.872
-19.8982
-19.9427
-20.0481
-20.0068
-19.9785
-20.0042
-20.0479
-20.1461
-20.1055
-20.0777
-20.1029
-20.1458
-20.2364
-20.1965
-20.1692
-20.194
-20.2361
-20.3188
-20.2796
-20.2528
-20.2771
-20.3184
-20.393
-20.3546
-20.3282
-20.3521
-20.3926
-20.4588
-20.421
-20.3951
-20.4185
-20.4583
-20.5157
-20.4787
-20.4532
-20.4763
-20.5152
-20.5637
-20.5273
-20.5023
-20.5249
-20.5631
-20.6022
-20.5666
-20.5421
-20.5642
-20.6016
-20.6312
-20.5963
-20.5722
-20.5939
-20.6305
-20.6503
-20.6161
-20.5925
-20.6137
-20.6496
-20.6591
-20.6257
-20.6025
-20.6234
-20.6584
-20.6576
-20.6248
-20.6021
-20.6225
-20.6568
-20.6452
-20.6132
-20.591
-20.6109
-20.6444
-20.6219
-20.5906
-20.5689
-20.5884
-20.6211
-20.5874
-20.5568
-20.5355
-20.5546
-20.5865
-20.5413
-20.5114
-20.4906
-20.5092
-20.5404
-20.4835
-20.4543
-20.4339
-20.4521
-20.4825
-20.4136
-20.3851
-20.3652
-20.383
-20.4126
-20.3315
-20.3037
-20.2843
-20.3016
-20.3305
-20.2369
-20.2098
-20.1909
-20.2078
-20.2359
-20.1297
-20.1033
-20.0848
-20.1012
-20.1286
-20.0095
-19.9838
-19.9658
-19.9818
-20.0084
-19.8763
-19.8512
-19.8337
-19.8493
-19.8752
-19.7297
-19.7054
-19.6883
-19.7034
-19.7286
-19.5698
-19.5461
-19.5295
-19.5442
-19.5686
-19.3962
-19.3732
-19.357
-19.3713
-19.395
-19.2089
-19.1866
-19.1708
-19.1847
-19.2077
-19.0077
-18.9861
-18.9708
-18.9842
-19.0065
-18.7925
-18.7716
-18.7567
-18.7698
-18.7913
-18.5633
-18.543
-18.5286
-18.5413
-18.5621
-18.3199
-18.3003
-18.2863
-18.2986
-18.3187
-18.0623
-18.0434
-18.0299
-18.0417
-18.0611
-17.7905
-17.7722
-17.7591
-17.7706
-17.7893
-17.5045
-17.4868
-17.4742
-17.4852
-17.5033
-17.2042
-17.1871
-17.1749
-17.1856
-17.203
-16.8896
-16.8733
-16.8615
-16.8717
-16.8885
-16.561
-16.5452
-16.5339
-16.5437
-16.5598
-16.2182
-16.2031
-16.1922
-16.2016
-16.2171
-15.8615
-15.847
-15.8365
-15.8455
-15.8603
-15.4909
-15.477
-15.4669
-15.4756
-15.4898
-15.1066
-15.0933
-15.0836
-15.0919
-15.1055
-14.7088
-14.6961
-14.6868
-14.6948
-14.7077
-14.2977
-14.2855
-14.2767
-14.2843
-14.2966
-13.8735
-13.8619
-13.8534
-13.8607
-13.8724
-13.4364
-13.4254
-13.4174
-13.4242
-13.4354
-12.9869
-12.9764
-12.9687
-12.9753
-12.9859
-12.5251
-12.5152
-12.5079
-12.5141
-12.5241
-12.0515
-12.0421
-12.0352
-12.041
-12.0505
-11.5663
-11.5575
-11.5509
-11.5565
-11.5654
-11.0701
-11.0618
-11.0556
-11.0608
-11.0692
-10.5632
-10.5554
-10.5496
-10.5545
-10.5624
-10.0462
-10.0389
-10.0334
-10.038
-10.0454
-9.51947
-9.51261
-9.50751
-9.5118
-9.51869
-8.98358
-8.9772
-8.97245
-8.97643
-8.98284
-8.43909
-8.43318
-8.42877
-8.43246
-8.43839
-7.88659
-7.88114
-7.87706
-7.88047
-7.88593
-7.32669
-7.32169
-7.31794
-7.32107
-7.32607
-6.76004
-6.75548
-6.75206
-6.75491
-6.75947
-6.18732
-6.1832
-6.18009
-6.18267
-6.1868
-5.60924
-5.60554
-5.60275
-5.60507
-5.60876
-5.02653
-5.02325
-5.02077
-5.02282
-5.0261
-4.43996
-4.43709
-4.43491
-4.43671
-4.43958
-3.85033
-3.84786
-3.84599
-3.84754
-3.85
-3.25847
-3.25639
-3.25482
-3.25612
-3.25819
-2.66523
-2.66354
-2.66226
-2.66332
-2.665
-2.0715
-2.07019
-2.0692
-2.07002
-2.07132
-1.47819
-1.47726
-1.47656
-1.47714
-1.47806
-0.886249
-0.885694
-0.885272
-0.88562
-0.886173
-0.296651
-0.296465
-0.296324
-0.296441
-0.296626
)
;

boundaryField
{
    BotWall
    {
        type            zeroGradient;
    }
    FreeStream
    {
        type            zeroGradient;
    }
    FrontNBack
    {
        type            empty;
    }
    LeftSide
    {
        type            symmetryPlane;
    }
    RightSide
    {
        type            symmetryPlane;
    }
}


// ************************************************************************* //
