/*--------------------------------*- C++ -*----------------------------------*\
| =========                 |                                                 |
| \\      /  F ield         | OpenFOAM: The Open Source CFD Toolbox           |
|  \\    /   O peration     | Version:  2.4.0                                 |
|   \\  /    A nd           | Web:      www.OpenFOAM.org                      |
|    \\/     M anipulation  |                                                 |
\*---------------------------------------------------------------------------*/
FoamFile
{
    version     2.0;
    format      ascii;
    class       volScalarField;
    location    "3.7";
    object      p;
}
// * * * * * * * * * * * * * * * * * * * * * * * * * * * * * * * * * * * * * //

dimensions      [1 -1 -2 0 0 0 0];

internalField   nonuniform List<scalar> 
500
(
0.685238
0.685533
0.686154
0.685617
0.685231
0.655446
0.655744
0.656365
0.655827
0.655438
0.625297
0.625597
0.626218
0.62568
0.625289
0.59483
0.595134
0.595757
0.595217
0.594822
0.564002
0.564309
0.564934
0.564392
0.563994
0.532852
0.533163
0.533789
0.533246
0.532843
0.501332
0.501646
0.502274
0.501729
0.501323
0.469481
0.469799
0.470429
0.469882
0.469472
0.437244
0.437566
0.438198
0.437649
0.437235
0.404672
0.404998
0.405633
0.405081
0.404663
0.371761
0.37209
0.372728
0.372174
0.371752
0.33867
0.339004
0.339644
0.339088
0.338661
0.305199
0.305539
0.306182
0.305623
0.30519
0.270084
0.270426
0.271071
0.27051
0.270075
0.230536
0.230871
0.231513
0.230954
0.230527
0.190129
0.190455
0.191088
0.190538
0.19012
0.182479
0.18286
0.183517
0.182944
0.18247
0.275732
0.276377
0.277197
0.276514
0.275721
0.379914
0.381001
0.38206
0.381154
0.379901
-0.368997
-0.368855
-0.368313
-0.368625
-0.369006
-3.62219
-3.62789
-3.63163
-3.62822
-3.62217
-7.37381
-7.38929
-7.39992
-7.39021
-7.37373
-0.0169463
-0.0169453
-0.0169447
-0.0169452
-0.0169463
-0.0117283
-0.011729
-0.0117294
-0.011729
-0.0117283
-0.0132697
-0.0132697
-0.0132698
-0.0132697
-0.0132697
-0.0143832
-0.0143832
-0.0143831
-0.0143832
-0.0143832
-0.0150997
-0.0150996
-0.0150996
-0.0150996
-0.0150997
-0.0157259
-0.0157259
-0.0157259
-0.0157259
-0.0157259
-0.0163742
-0.0163742
-0.0163741
-0.0163742
-0.0163742
-0.0170454
-0.0170454
-0.0170454
-0.0170454
-0.0170454
-0.0177278
-0.0177278
-0.0177278
-0.0177278
-0.0177278
-0.0184173
-0.0184173
-0.0184173
-0.0184173
-0.0184173
-0.0191138
-0.0191138
-0.0191138
-0.0191138
-0.0191138
-0.0198179
-0.0198179
-0.0198179
-0.0198179
-0.0198179
-0.0205299
-0.0205299
-0.0205299
-0.0205299
-0.0205299
-0.0212499
-0.0212499
-0.0212498
-0.0212499
-0.0212499
-0.0219779
-0.0219779
-0.0219779
-0.0219779
-0.0219779
-0.022714
-0.022714
-0.022714
-0.022714
-0.022714
-0.0234584
-0.0234583
-0.0234583
-0.0234583
-0.0234584
-0.024211
-0.024211
-0.024211
-0.024211
-0.024211
-0.0249721
-0.0249721
-0.0249721
-0.0249721
-0.0249721
-0.0257416
-0.0257416
-0.0257416
-0.0257416
-0.0257416
-0.0265197
-0.0265197
-0.0265197
-0.0265197
-0.0265197
-0.0273066
-0.0273065
-0.0273065
-0.0273065
-0.0273066
-0.0281022
-0.0281021
-0.0281021
-0.0281021
-0.0281022
-0.0289066
-0.0289066
-0.0289066
-0.0289066
-0.0289066
-0.0297201
-0.0297201
-0.0297201
-0.0297201
-0.0297201
-0.0305426
-0.0305426
-0.0305426
-0.0305426
-0.0305426
-0.0313743
-0.0313743
-0.0313743
-0.0313743
-0.0313743
-0.0322153
-0.0322153
-0.0322153
-0.0322153
-0.0322153
-0.0330657
-0.0330657
-0.0330657
-0.0330657
-0.0330657
-0.0339255
-0.0339255
-0.0339255
-0.0339255
-0.0339255
-0.034795
-0.034795
-0.034795
-0.034795
-0.034795
-0.0356741
-0.0356741
-0.0356741
-0.0356741
-0.0356741
-0.0365631
-0.0365631
-0.0365631
-0.0365631
-0.0365631
-0.037462
-0.037462
-0.037462
-0.037462
-0.037462
-0.0383709
-0.0383709
-0.0383709
-0.0383709
-0.0383709
-0.03929
-0.03929
-0.03929
-0.03929
-0.03929
-0.0402193
-0.0402193
-0.0402193
-0.0402193
-0.0402193
-0.041159
-0.041159
-0.041159
-0.041159
-0.041159
-0.0421092
-0.0421092
-0.0421092
-0.0421092
-0.0421092
-0.0430699
-0.0430699
-0.0430699
-0.0430699
-0.0430699
-0.0440414
-0.0440414
-0.0440414
-0.0440414
-0.0440414
-0.0450238
-0.0450238
-0.0450238
-0.0450238
-0.0450238
-0.0460171
-0.0460171
-0.0460171
-0.0460171
-0.0460171
-0.0470215
-0.0470215
-0.0470215
-0.0470215
-0.0470215
-0.0480371
-0.0480371
-0.0480371
-0.0480371
-0.0480371
-0.049064
-0.049064
-0.049064
-0.049064
-0.049064
-0.0501024
-0.0501024
-0.0501024
-0.0501024
-0.0501024
-0.0511523
-0.0511523
-0.0511523
-0.0511523
-0.0511523
-0.052214
-0.052214
-0.052214
-0.052214
-0.052214
-0.0532876
-0.0532876
-0.0532876
-0.0532876
-0.0532876
-0.0543731
-0.0543731
-0.0543731
-0.0543731
-0.0543731
-0.0554707
-0.0554707
-0.0554707
-0.0554707
-0.0554707
-0.0565806
-0.0565806
-0.0565806
-0.0565806
-0.0565806
-0.0577029
-0.0577029
-0.0577028
-0.0577029
-0.0577029
-0.0588376
-0.0588376
-0.0588376
-0.0588376
-0.0588376
-0.0599851
-0.0599851
-0.0599851
-0.0599851
-0.0599851
-0.0611453
-0.0611453
-0.0611453
-0.0611453
-0.0611453
-0.0623185
-0.0623185
-0.0623185
-0.0623185
-0.0623185
-0.0635048
-0.0635048
-0.0635048
-0.0635048
-0.0635048
-0.0647044
-0.0647044
-0.0647044
-0.0647044
-0.0647044
-0.0659173
-0.0659173
-0.0659173
-0.0659173
-0.0659173
-0.0671437
-0.0671437
-0.0671437
-0.0671437
-0.0671437
-0.0683839
-0.0683839
-0.0683839
-0.0683839
-0.0683839
-0.0696378
-0.0696378
-0.0696378
-0.0696378
-0.0696378
-0.0709058
-0.0709058
-0.0709058
-0.0709058
-0.0709058
-0.0721879
-0.0721879
-0.0721879
-0.0721879
-0.0721879
-0.0734843
-0.0734843
-0.0734843
-0.0734843
-0.0734843
-0.0747952
-0.0747952
-0.0747952
-0.0747952
-0.0747952
-0.0761207
-0.0761207
-0.0761207
-0.0761207
-0.0761207
-0.077461
-0.077461
-0.077461
-0.077461
-0.077461
-0.0788163
-0.0788163
-0.0788163
-0.0788163
-0.0788163
-0.0801867
-0.0801867
-0.0801867
-0.0801867
-0.0801867
-0.0815724
-0.0815724
-0.0815724
-0.0815724
-0.0815724
-0.0829735
-0.0829735
-0.0829735
-0.0829735
-0.0829735
-0.0843903
-0.0843903
-0.0843903
-0.0843903
-0.0843903
-0.0858229
-0.0858229
-0.0858229
-0.0858229
-0.0858229
-0.0872715
-0.0872715
-0.0872715
-0.0872715
-0.0872715
-0.0887362
-0.0887362
-0.0887362
-0.0887362
-0.0887362
)
;

boundaryField
{
    BotWall
    {
        type            calculated;
        value           nonuniform List<scalar> 5(0.700059 0.700353 0.700975 0.700438 0.700051);
    }
    FreeStream
    {
        type            calculated;
        value           nonuniform List<scalar> 5(-0.0894726 -0.0894726 -0.0894726 -0.0894726 -0.0894726);
    }
    FrontNBack
    {
        type            empty;
    }
    LeftSide
    {
        type            symmetryPlane;
    }
    RightSide
    {
        type            symmetryPlane;
    }
}


// ************************************************************************* //
