/*--------------------------------*- C++ -*----------------------------------*\
| =========                 |                                                 |
| \\      /  F ield         | OpenFOAM: The Open Source CFD Toolbox           |
|  \\    /   O peration     | Version:  2.4.0                                 |
|   \\  /    A nd           | Web:      www.OpenFOAM.org                      |
|    \\/     M anipulation  |                                                 |
\*---------------------------------------------------------------------------*/
FoamFile
{
    version     2.0;
    format      ascii;
    class       volScalarField;
    location    "3.7";
    object      p_rgh;
}
// * * * * * * * * * * * * * * * * * * * * * * * * * * * * * * * * * * * * * //

dimensions      [1 -1 -2 0 0 0 0];

internalField   nonuniform List<scalar> 
500
(
0.700059
0.700353
0.700975
0.700438
0.700051
0.700072
0.70037
0.700991
0.700454
0.700064
0.700062
0.700362
0.700983
0.700445
0.700054
0.70007
0.700374
0.700996
0.700457
0.700062
0.700057
0.700364
0.700988
0.700447
0.700048
0.700066
0.700376
0.701003
0.700459
0.700057
0.700052
0.700366
0.700994
0.700449
0.700043
0.700059
0.700377
0.701008
0.70046
0.70005
0.700036
0.700357
0.70099
0.700441
0.700027
0.700037
0.700363
0.700998
0.700446
0.700028
0.700062
0.700392
0.701029
0.700475
0.700053
0.700275
0.70061
0.70125
0.700693
0.700266
0.70048
0.70082
0.701463
0.700904
0.700472
0.699417
0.699759
0.700404
0.699843
0.699408
0.6943
0.694635
0.695277
0.694719
0.694291
0.688709
0.689035
0.689668
0.689118
0.6887
0.716264
0.716644
0.717301
0.716729
0.716255
0.845113
0.845758
0.846579
0.845895
0.845103
0.985289
0.986376
0.987436
0.986529
0.985277
0.272775
0.272917
0.273458
0.273147
0.272765
-2.94361
-2.94931
-2.95306
-2.94964
-2.94359
-7.07618
-7.0909
-7.10101
-7.09177
-7.07611
-0.00446691
-0.00446594
-0.00446534
-0.00446588
-0.00446692
0.00138132
0.00138058
0.00138018
0.00138054
0.00138132
0.000477131
0.000477095
0.000477042
0.00047709
0.000477132
7.94342e-06
8.02576e-06
8.05646e-06
8.02844e-06
7.94308e-06
-5.69145e-05
-5.68839e-05
-5.68643e-05
-5.68822e-05
-5.69148e-05
-2.43436e-05
-2.43395e-05
-2.43324e-05
-2.43389e-05
-2.43438e-05
-6.42485e-06
-6.42034e-06
-6.41621e-06
-6.42003e-06
-6.42498e-06
-4.09335e-06
-4.08508e-06
-4.08057e-06
-4.08473e-06
-4.09348e-06
-5.38614e-06
-5.37696e-06
-5.37206e-06
-5.37657e-06
-5.38627e-06
-6.09043e-06
-6.08167e-06
-6.07677e-06
-6.08127e-06
-6.09056e-06
-6.17404e-06
-6.1657e-06
-6.16092e-06
-6.16531e-06
-6.17416e-06
-6.11522e-06
-6.1071e-06
-6.10244e-06
-6.10671e-06
-6.11534e-06
-6.0803e-06
-6.07233e-06
-6.06778e-06
-6.07195e-06
-6.08041e-06
-6.07003e-06
-6.06222e-06
-6.05777e-06
-6.06185e-06
-6.07014e-06
-6.0653e-06
-6.05766e-06
-6.05331e-06
-6.05729e-06
-6.0654e-06
-6.05951e-06
-6.05204e-06
-6.04779e-06
-6.05168e-06
-6.05961e-06
-6.05267e-06
-6.04536e-06
-6.04121e-06
-6.045e-06
-6.05276e-06
-6.04552e-06
-6.03838e-06
-6.03432e-06
-6.03803e-06
-6.04561e-06
-6.03834e-06
-6.03136e-06
-6.0274e-06
-6.03101e-06
-6.03842e-06
-6.03111e-06
-6.0243e-06
-6.02043e-06
-6.02395e-06
-6.03119e-06
-6.02382e-06
-6.01716e-06
-6.01339e-06
-6.01682e-06
-6.0239e-06
-6.01644e-06
-6.00994e-06
-6.00626e-06
-6.00961e-06
-6.01652e-06
-6.00898e-06
-6.00264e-06
-5.99905e-06
-6.00231e-06
-6.00905e-06
-6.00144e-06
-5.99525e-06
-5.99175e-06
-5.99493e-06
-6.00151e-06
-5.99382e-06
-5.98778e-06
-5.98437e-06
-5.98746e-06
-5.99388e-06
-5.98611e-06
-5.98022e-06
-5.9769e-06
-5.97991e-06
-5.98617e-06
-5.97832e-06
-5.97257e-06
-5.96934e-06
-5.97227e-06
-5.97837e-06
-5.97044e-06
-5.96484e-06
-5.9617e-06
-5.96454e-06
-5.97049e-06
-5.96247e-06
-5.95702e-06
-5.95396e-06
-5.95672e-06
-5.96252e-06
-5.95442e-06
-5.94911e-06
-5.94613e-06
-5.94882e-06
-5.95446e-06
-5.94628e-06
-5.94111e-06
-5.93821e-06
-5.94082e-06
-5.94632e-06
-5.93805e-06
-5.93301e-06
-5.9302e-06
-5.93273e-06
-5.93808e-06
-5.92972e-06
-5.92483e-06
-5.9221e-06
-5.92455e-06
-5.92976e-06
-5.92131e-06
-5.91655e-06
-5.9139e-06
-5.91628e-06
-5.92134e-06
-5.9128e-06
-5.90818e-06
-5.90561e-06
-5.90791e-06
-5.91283e-06
-5.9042e-06
-5.89971e-06
-5.89722e-06
-5.89945e-06
-5.90423e-06
-5.89551e-06
-5.89114e-06
-5.88873e-06
-5.89089e-06
-5.89553e-06
-5.88672e-06
-5.88248e-06
-5.88014e-06
-5.88224e-06
-5.88674e-06
-5.87783e-06
-5.87372e-06
-5.87146e-06
-5.87348e-06
-5.87785e-06
-5.86885e-06
-5.86486e-06
-5.86267e-06
-5.86463e-06
-5.86886e-06
-5.85976e-06
-5.8559e-06
-5.85378e-06
-5.85568e-06
-5.85978e-06
-5.85058e-06
-5.84684e-06
-5.84479e-06
-5.84662e-06
-5.85059e-06
-5.8413e-06
-5.83768e-06
-5.8357e-06
-5.83746e-06
-5.8413e-06
-5.83191e-06
-5.82841e-06
-5.8265e-06
-5.8282e-06
-5.83192e-06
-5.82242e-06
-5.81904e-06
-5.8172e-06
-5.81884e-06
-5.82243e-06
-5.81283e-06
-5.80957e-06
-5.80779e-06
-5.80937e-06
-5.81283e-06
-5.80313e-06
-5.79998e-06
-5.79828e-06
-5.79979e-06
-5.80313e-06
-5.79333e-06
-5.79029e-06
-5.78865e-06
-5.79011e-06
-5.79332e-06
-5.78341e-06
-5.78049e-06
-5.77891e-06
-5.78031e-06
-5.78341e-06
-5.77339e-06
-5.77058e-06
-5.76907e-06
-5.77041e-06
-5.77339e-06
-5.76326e-06
-5.76056e-06
-5.75911e-06
-5.76039e-06
-5.76325e-06
-5.75302e-06
-5.75043e-06
-5.74904e-06
-5.75026e-06
-5.75301e-06
-5.74266e-06
-5.74018e-06
-5.73885e-06
-5.74002e-06
-5.74265e-06
-5.7322e-06
-5.72982e-06
-5.72855e-06
-5.72967e-06
-5.73218e-06
-5.72161e-06
-5.71934e-06
-5.71813e-06
-5.7192e-06
-5.7216e-06
-5.71091e-06
-5.70875e-06
-5.7076e-06
-5.70861e-06
-5.7109e-06
-5.70009e-06
-5.69803e-06
-5.69694e-06
-5.6979e-06
-5.70008e-06
-5.68916e-06
-5.6872e-06
-5.68617e-06
-5.68707e-06
-5.68914e-06
-5.6781e-06
-5.67625e-06
-5.67527e-06
-5.67613e-06
-5.67808e-06
-5.66692e-06
-5.66517e-06
-5.66426e-06
-5.66506e-06
-5.6669e-06
-5.65562e-06
-5.65397e-06
-5.65311e-06
-5.65386e-06
-5.6556e-06
-5.6442e-06
-5.64265e-06
-5.64184e-06
-5.64254e-06
-5.64418e-06
-5.63265e-06
-5.6312e-06
-5.63045e-06
-5.6311e-06
-5.63262e-06
-5.62097e-06
-5.61962e-06
-5.61893e-06
-5.61953e-06
-5.62095e-06
-5.60916e-06
-5.60792e-06
-5.60728e-06
-5.60783e-06
-5.60914e-06
-5.59723e-06
-5.59608e-06
-5.5955e-06
-5.596e-06
-5.5972e-06
-5.58516e-06
-5.58411e-06
-5.58358e-06
-5.58404e-06
-5.58513e-06
-5.57296e-06
-5.57201e-06
-5.57154e-06
-5.57194e-06
-5.57293e-06
-5.56062e-06
-5.55978e-06
-5.55936e-06
-5.55971e-06
-5.5606e-06
-5.54815e-06
-5.54741e-06
-5.54704e-06
-5.54735e-06
-5.54812e-06
-5.53554e-06
-5.5349e-06
-5.53459e-06
-5.53485e-06
-5.53552e-06
-5.5228e-06
-5.52225e-06
-5.52199e-06
-5.52221e-06
-5.52277e-06
-5.50991e-06
-5.50947e-06
-5.50926e-06
-5.50943e-06
-5.50988e-06
-5.49688e-06
-5.49654e-06
-5.49639e-06
-5.4965e-06
-5.49685e-06
-5.4837e-06
-5.48347e-06
-5.48338e-06
-5.48344e-06
-5.48367e-06
-5.47036e-06
-5.47026e-06
-5.47023e-06
-5.47023e-06
-5.47033e-06
-5.4569e-06
-5.45689e-06
-5.45692e-06
-5.45687e-06
-5.45687e-06
-5.44341e-06
-5.44334e-06
-5.44332e-06
-5.44333e-06
-5.44338e-06
)
;

boundaryField
{
    BotWall
    {
        type            fixedFluxPressure;
        gradient        uniform 0;
        value           nonuniform List<scalar> 5(0.700059 0.700353 0.700975 0.700438 0.700051);
    }
    FreeStream
    {
        type            totalPressure;
        rho             rho;
        psi             none;
        gamma           1;
        p0              uniform 0;
        value           nonuniform List<scalar> 5(-5.43671e-06 -5.4365e-06 -5.43638e-06 -5.43648e-06 -5.43669e-06);
    }
    FrontNBack
    {
        type            empty;
    }
    LeftSide
    {
        type            symmetryPlane;
    }
    RightSide
    {
        type            symmetryPlane;
    }
}


// ************************************************************************* //
