/*--------------------------------*- C++ -*----------------------------------*\
| =========                 |                                                 |
| \\      /  F ield         | OpenFOAM: The Open Source CFD Toolbox           |
|  \\    /   O peration     | Version:  2.4.0                                 |
|   \\  /    A nd           | Web:      www.OpenFOAM.org                      |
|    \\/     M anipulation  |                                                 |
\*---------------------------------------------------------------------------*/
FoamFile
{
    version     2.0;
    format      ascii;
    class       surfaceScalarField;
    location    "3.7";
    object      phi;
}
// * * * * * * * * * * * * * * * * * * * * * * * * * * * * * * * * * * * * * //

dimensions      [0 3 -1 0 0 0 0];

internalField   nonuniform List<scalar> 
895
(
7.84941e-18
-7.84891e-18
4.28011e-18
3.57021e-18
-4.20735e-18
8.48875e-18
-7.7145e-18
3.50827e-18
-7.71361e-18
2.43144e-17
-3.21554e-17
1.36347e-17
1.42633e-17
-1.33268e-17
3.54692e-17
-2.39837e-17
1.41801e-17
-3.16863e-17
4.1778e-17
-7.3924e-17
2.37557e-17
3.23007e-17
-2.31377e-17
8.23833e-17
-4.12969e-17
3.23553e-17
-7.29719e-17
6.02847e-17
-1.34198e-16
3.45855e-17
5.80163e-17
-3.35901e-17
1.50581e-16
-5.96863e-17
5.84682e-17
-1.32647e-16
7.99046e-17
-2.14092e-16
4.61764e-17
9.17616e-17
-4.47303e-17
2.41511e-16
-7.92236e-17
9.29788e-17
-2.11859e-16
1.00679e-16
-3.14759e-16
5.85579e-17
1.339e-16
-5.65838e-17
3.56676e-16
-9.99521e-17
1.36365e-16
-3.11799e-16
1.22694e-16
-4.37441e-16
7.17859e-17
1.84826e-16
-6.92014e-17
4.97687e-16
-1.21961e-16
1.89142e-16
-4.33749e-16
1.45989e-16
-5.83418e-16
8.58934e-17
2.44939e-16
-8.26111e-17
6.66214e-16
-1.45293e-16
2.51841e-16
-5.7903e-16
1.70664e-16
-7.54069e-16
1.00944e-16
3.14677e-16
-9.68709e-17
8.64052e-16
-1.70051e-16
3.25038e-16
-7.4907e-16
1.9676e-16
-9.50818e-16
1.16972e-16
3.94482e-16
-1.12011e-16
1.09306e-15
-1.9628e-16
4.09325e-16
-9.4534e-16
2.24392e-16
-1.1752e-15
1.34051e-16
4.8484e-16
-1.28096e-16
1.35523e-15
-2.24098e-16
5.05342e-16
-1.16943e-15
2.53605e-16
-1.42879e-15
1.52219e-16
5.86242e-16
-1.45161e-16
1.65263e-15
-2.53553e-16
6.1375e-16
-1.42297e-15
2.84526e-16
-1.71331e-15
1.71556e-16
6.99228e-16
-1.63278e-16
1.98748e-15
-2.84778e-16
7.35265e-16
-1.70774e-15
3.17211e-16
-2.03051e-15
1.92108e-16
8.24344e-16
-1.82486e-16
2.36209e-15
-3.17833e-16
8.70625e-16
-2.02557e-15
3.518e-16
-2.3823e-15
2.13965e-16
9.62192e-16
-2.02866e-16
2.77894e-15
-3.52862e-16
1.02063e-15
-2.37842e-15
3.88341e-16
-2.77063e-15
2.37173e-16
1.11337e-15
-2.2446e-16
3.24059e-15
-3.89919e-16
1.1861e-15
-2.76833e-15
4.26944e-16
-3.19757e-15
2.61806e-16
1.27852e-15
-2.47334e-16
3.74974e-15
-4.29116e-16
1.36789e-15
-3.19744e-15
4.6765e-16
-3.66521e-15
2.87965e-16
1.45821e-15
-2.71654e-16
4.30937e-15
-4.70436e-16
1.56668e-15
-3.66788e-15
5.10802e-16
-4.17601e-15
3.16148e-16
1.65287e-15
-2.97139e-16
4.92266e-15
-5.14186e-16
1.78373e-15
-4.18206e-15
5.57638e-16
-4.73364e-15
3.45005e-16
1.86551e-15
-3.23717e-16
5.59139e-15
-5.62193e-16
2.02221e-15
-4.74425e-15
6.10529e-16
-8.18809e-15
3.80679e-16
2.09536e-15
-3.57029e-16
6.32909e-15
-6.16643e-16
2.28182e-15
-8.21379e-15
6.81069e-16
-2.18373e-10
4.27962e-16
-2.1838e-10
-4.00668e-16
-2.18385e-10
-6.90381e-16
-2.18381e-10
-2.18373e-10
6.84717e-16
-2.18373e-10
4.28446e-16
-2.1838e-10
-4.01803e-16
-2.18385e-10
-6.92219e-16
-2.18381e-10
-2.18373e-10
6.88829e-16
-2.18374e-10
4.29943e-16
-2.1838e-10
-4.02437e-16
-2.18384e-10
-6.97075e-16
-2.1838e-10
-2.18374e-10
6.53811e-16
-2.18375e-10
4.11107e-16
-2.1838e-10
-3.8463e-16
-2.18383e-10
-6.60785e-16
-2.1838e-10
-2.18375e-10
6.26501e-16
-2.18375e-10
3.94205e-16
-2.18379e-10
-3.68421e-16
-2.18382e-10
-6.32722e-16
-2.1838e-10
-2.18375e-10
6.02929e-16
-2.18376e-10
3.79176e-16
-2.18379e-10
-3.53909e-16
-2.18381e-10
-6.08632e-16
-2.18379e-10
-2.18376e-10
5.79635e-16
-2.18377e-10
3.64782e-16
-2.18379e-10
-3.40005e-16
-2.18381e-10
-5.84849e-16
-2.18379e-10
-2.18377e-10
5.56049e-16
-2.18377e-10
3.50416e-16
-2.18379e-10
-3.26145e-16
-2.1838e-10
-5.60763e-16
-2.18379e-10
-2.18377e-10
5.32544e-16
-2.18378e-10
3.36053e-16
-2.18379e-10
-3.12295e-16
-2.18379e-10
-5.36759e-16
-2.18379e-10
-2.18378e-10
5.09307e-16
-2.18378e-10
3.21779e-16
-2.18378e-10
-2.98536e-16
-2.18379e-10
-5.13032e-16
-2.18379e-10
-2.18378e-10
4.86352e-16
-2.18379e-10
3.07642e-16
-2.18378e-10
-2.84913e-16
-2.18378e-10
-4.89598e-16
-2.18378e-10
-2.18379e-10
4.63664e-16
-2.18379e-10
2.93653e-16
-2.18378e-10
-2.71439e-16
-2.18378e-10
-4.66443e-16
-2.18378e-10
-2.18379e-10
4.41249e-16
-2.1838e-10
2.79817e-16
-2.18378e-10
-2.58117e-16
-2.18377e-10
-4.43572e-16
-2.18378e-10
-2.1838e-10
4.19125e-16
-2.1838e-10
2.66143e-16
-2.18378e-10
-2.44956e-16
-2.18377e-10
-4.21002e-16
-2.18378e-10
-2.1838e-10
3.97307e-16
-2.1838e-10
2.52639e-16
-2.18378e-10
-2.31964e-16
-2.18376e-10
-3.9875e-16
-2.18378e-10
-2.1838e-10
3.7581e-16
-2.18381e-10
2.39316e-16
-2.18377e-10
-2.19152e-16
-2.18376e-10
-3.7683e-16
-2.18377e-10
-2.18381e-10
3.54649e-16
-2.18381e-10
2.26183e-16
-2.18377e-10
-2.06528e-16
-2.18375e-10
-3.55258e-16
-2.18377e-10
-2.18381e-10
3.33837e-16
-2.18381e-10
2.1325e-16
-2.18377e-10
-1.94103e-16
-2.18375e-10
-3.34048e-16
-2.18377e-10
-2.18381e-10
3.13389e-16
-2.18382e-10
2.00526e-16
-2.18377e-10
-1.81885e-16
-2.18374e-10
-3.13213e-16
-2.18377e-10
-2.18382e-10
2.93319e-16
-2.18382e-10
1.88022e-16
-2.18377e-10
-1.69883e-16
-2.18374e-10
-2.92769e-16
-2.18377e-10
-2.18382e-10
2.7364e-16
-2.18382e-10
1.75745e-16
-2.18377e-10
-1.58107e-16
-2.18374e-10
-2.72728e-16
-2.18377e-10
-2.18382e-10
2.54367e-16
-2.18383e-10
1.63706e-16
-2.18377e-10
-1.46565e-16
-2.18373e-10
-2.53105e-16
-2.18377e-10
-2.18383e-10
2.35512e-16
-2.18383e-10
1.51914e-16
-2.18377e-10
-1.35266e-16
-2.18373e-10
-2.33914e-16
-2.18377e-10
-2.18383e-10
2.17088e-16
-2.18383e-10
1.40377e-16
-2.18377e-10
-1.24219e-16
-2.18373e-10
-2.15166e-16
-2.18376e-10
-2.18383e-10
1.99109e-16
-2.18383e-10
1.29105e-16
-2.18377e-10
-1.13432e-16
-2.18373e-10
-1.96876e-16
-2.18376e-10
-2.18383e-10
1.81587e-16
-2.18383e-10
1.18106e-16
-2.18376e-10
-1.02913e-16
-2.18372e-10
-1.79056e-16
-2.18376e-10
-2.18383e-10
1.64533e-16
-2.18384e-10
1.07388e-16
-2.18376e-10
-9.26698e-17
-2.18372e-10
-1.61718e-16
-2.18376e-10
-2.18384e-10
1.4796e-16
-2.18384e-10
9.69596e-17
-2.18376e-10
-8.2711e-17
-2.18372e-10
-1.44873e-16
-2.18376e-10
-2.18384e-10
1.31878e-16
-2.18384e-10
8.68288e-17
-2.18376e-10
-7.30437e-17
-2.18372e-10
-1.28534e-16
-2.18376e-10
-2.18384e-10
1.16299e-16
-2.18384e-10
7.7003e-17
-2.18376e-10
-6.3675e-17
-2.18372e-10
-1.1271e-16
-2.18376e-10
-2.18384e-10
1.01233e-16
-2.18384e-10
6.74896e-17
-2.18376e-10
-5.46119e-17
-2.18372e-10
-9.74117e-17
-2.18376e-10
-2.18384e-10
8.66889e-17
-2.18384e-10
5.82954e-17
-2.18376e-10
-4.58607e-17
-2.18371e-10
-8.26494e-17
-2.18376e-10
-2.18384e-10
7.26767e-17
-2.18384e-10
4.94271e-17
-2.18376e-10
-3.74277e-17
-2.18371e-10
-6.84319e-17
-2.18376e-10
-2.18384e-10
5.92046e-17
-2.18384e-10
4.08908e-17
-2.18376e-10
-2.93187e-17
-2.18371e-10
-5.47676e-17
-2.18376e-10
-2.18384e-10
4.62804e-17
-2.18384e-10
3.26923e-17
-2.18376e-10
-2.15389e-17
-2.18371e-10
-4.16644e-17
-2.18376e-10
-2.18384e-10
3.39113e-17
-2.18384e-10
2.48368e-17
-2.18376e-10
-1.40931e-17
-2.18371e-10
-2.91291e-17
-2.18376e-10
-2.18384e-10
2.21037e-17
-2.18384e-10
1.73293e-17
-2.18376e-10
-6.98593e-18
-2.18371e-10
-1.71682e-17
-2.18376e-10
-2.18384e-10
1.0863e-17
-2.18384e-10
1.0174e-17
-2.18376e-10
-2.21099e-19
-2.18371e-10
-5.78696e-18
-2.18376e-10
-2.18384e-10
1.94018e-19
-2.18384e-10
3.37465e-18
-2.18376e-10
6.19803e-18
-2.18371e-10
5.01e-18
-2.18376e-10
-2.18384e-10
-9.89945e-18
-2.18384e-10
-3.06561e-18
-2.18376e-10
1.22687e-17
-2.18371e-10
1.5219e-17
-2.18376e-10
-2.18384e-10
-1.94145e-17
-2.18384e-10
-9.14421e-18
-2.18376e-10
1.79887e-17
-2.18371e-10
2.48375e-17
-2.18376e-10
-2.18384e-10
-2.83494e-17
-2.18384e-10
-1.48592e-17
-2.18376e-10
2.33567e-17
-2.18371e-10
3.38638e-17
-2.18376e-10
-2.18384e-10
-3.67033e-17
-2.18384e-10
-2.02095e-17
-2.18376e-10
2.83717e-17
-2.18371e-10
4.22972e-17
-2.18376e-10
-2.18384e-10
-4.44763e-17
-2.18384e-10
-2.51945e-17
-2.18376e-10
3.30335e-17
-2.18371e-10
5.01384e-17
-2.18376e-10
-2.18384e-10
-5.16701e-17
-2.18384e-10
-2.98146e-17
-2.18376e-10
3.73429e-17
-2.18371e-10
5.73891e-17
-2.18376e-10
-2.18384e-10
-5.82873e-17
-2.18384e-10
-3.40706e-17
-2.18376e-10
4.13012e-17
-2.18372e-10
6.40521e-17
-2.18376e-10
-2.18384e-10
-6.43317e-17
-2.18384e-10
-3.79646e-17
-2.18376e-10
4.49106e-17
-2.18372e-10
7.01318e-17
-2.18376e-10
-2.18384e-10
-6.98085e-17
-2.18384e-10
-4.14993e-17
-2.18376e-10
4.8174e-17
-2.18372e-10
7.56337e-17
-2.18376e-10
-2.18384e-10
-7.47244e-17
-2.18384e-10
-4.46783e-17
-2.18376e-10
5.10954e-17
-2.18372e-10
8.05647e-17
-2.18376e-10
-2.18384e-10
-7.90874e-17
-2.18384e-10
-4.75063e-17
-2.18376e-10
5.36795e-17
-2.18372e-10
8.49333e-17
-2.18376e-10
-2.18384e-10
-8.29069e-17
-2.18384e-10
-4.99886e-17
-2.18376e-10
5.59321e-17
-2.18372e-10
8.87492e-17
-2.18376e-10
-2.18384e-10
-8.61939e-17
-2.18384e-10
-5.2132e-17
-2.18376e-10
5.786e-17
-2.18372e-10
9.2024e-17
-2.18376e-10
-2.18384e-10
-8.89611e-17
-2.18384e-10
-5.39439e-17
-2.18376e-10
5.94707e-17
-2.18372e-10
9.47707e-17
-2.18376e-10
-2.18383e-10
-9.12225e-17
-2.18384e-10
-5.54331e-17
-2.18377e-10
6.0773e-17
-2.18372e-10
9.70038e-17
-2.18376e-10
-2.18383e-10
-9.29942e-17
-2.18383e-10
-5.66093e-17
-2.18377e-10
6.17768e-17
-2.18372e-10
9.874e-17
-2.18376e-10
-2.18383e-10
-9.42937e-17
-2.18383e-10
-5.74835e-17
-2.18377e-10
6.24929e-17
-2.18373e-10
9.99972e-17
-2.18376e-10
-2.18383e-10
-9.51405e-17
-2.18383e-10
-5.80677e-17
-2.18377e-10
6.29335e-17
-2.18373e-10
1.00795e-16
-2.18376e-10
-2.18383e-10
-9.55557e-17
-2.18383e-10
-5.83753e-17
-2.18377e-10
6.31116e-17
-2.18373e-10
1.01157e-16
-2.18376e-10
-2.18383e-10
-9.55626e-17
-2.18383e-10
-5.84208e-17
-2.18377e-10
6.30417e-17
-2.18373e-10
1.01104e-16
-2.18376e-10
-2.18383e-10
-9.51863e-17
-2.18383e-10
-5.822e-17
-2.18377e-10
6.27394e-17
-2.18373e-10
1.00665e-16
-2.18376e-10
-2.18383e-10
-9.44537e-17
-2.18383e-10
-5.77901e-17
-2.18377e-10
6.22216e-17
-2.18373e-10
9.98648e-17
-2.18377e-10
-2.18383e-10
-9.33942e-17
-2.18383e-10
-5.71495e-17
-2.18377e-10
6.15064e-17
-2.18373e-10
9.8735e-17
-2.18377e-10
-2.18383e-10
-9.20387e-17
-2.18383e-10
-5.63181e-17
-2.18377e-10
6.06133e-17
-2.18373e-10
9.7307e-17
-2.18377e-10
-2.18382e-10
-9.04209e-17
-2.18383e-10
-5.5317e-17
-2.18377e-10
5.9563e-17
-2.18374e-10
9.5615e-17
-2.18377e-10
-2.18382e-10
-8.85761e-17
-2.18383e-10
-5.41689e-17
-2.18377e-10
5.83779e-17
-2.18374e-10
9.36954e-17
-2.18377e-10
-2.18382e-10
-8.65422e-17
-2.18382e-10
-5.2898e-17
-2.18377e-10
5.70813e-17
-2.18374e-10
9.15868e-17
-2.18377e-10
-2.18382e-10
-8.43594e-17
-2.18382e-10
-5.15298e-17
-2.18377e-10
5.56984e-17
-2.18374e-10
8.93302e-17
-2.18377e-10
-2.18382e-10
-8.20702e-17
-2.18382e-10
-5.00914e-17
-2.18377e-10
5.42556e-17
-2.18374e-10
8.69691e-17
-2.18377e-10
-2.18382e-10
-7.97195e-17
-2.18382e-10
-4.86114e-17
-2.18377e-10
5.27808e-17
-2.18374e-10
8.45494e-17
-2.18377e-10
-2.18382e-10
-7.73548e-17
-2.18382e-10
-4.71202e-17
-2.18377e-10
5.13036e-17
-2.18374e-10
8.21197e-17
-2.18377e-10
-2.18382e-10
-7.50261e-17
-2.18382e-10
-4.56496e-17
-2.18377e-10
4.98551e-17
-2.18374e-10
7.97311e-17
-2.18377e-10
-2.18382e-10
-7.27863e-17
-2.18382e-10
-4.42332e-17
-2.18377e-10
4.8468e-17
-2.18374e-10
7.74376e-17
-2.18377e-10
-2.18382e-10
-7.06908e-17
-2.18382e-10
-4.29061e-17
-2.18377e-10
4.71766e-17
-2.18374e-10
7.52959e-17
-2.18377e-10
-2.18382e-10
-6.8798e-17
-2.18382e-10
-4.17056e-17
-2.18377e-10
4.60171e-17
-2.18375e-10
7.33658e-17
-2.18377e-10
-2.18382e-10
-6.7169e-17
-2.18382e-10
-4.06702e-17
-2.18377e-10
4.50273e-17
-2.18375e-10
7.17097e-17
-2.18377e-10
-2.18381e-10
-6.58676e-17
-2.18382e-10
-3.98402e-17
-2.18377e-10
4.42463e-17
-2.18375e-10
7.03931e-17
-2.18377e-10
-2.18381e-10
-6.49627e-17
-2.18382e-10
-3.9259e-17
-2.18377e-10
4.37167e-17
-2.18375e-10
6.94863e-17
-2.18377e-10
-2.18381e-10
-6.45349e-17
-2.18382e-10
-3.89773e-17
-2.18377e-10
4.3488e-17
-2.18375e-10
6.90724e-17
-2.18377e-10
-2.18381e-10
-6.46875e-17
-3.90536e-17
4.36165e-17
6.92578e-17
)
;

boundaryField
{
    BotWall
    {
        type            calculated;
        value           nonuniform List<scalar> 5(-4.05719e-22 -7.68482e-22 -1.17444e-21 -9.40288e-22 -7.41468e-22);
    }
    FreeStream
    {
        type            calculated;
        value           nonuniform List<scalar> 5(-2.18382e-10 -2.18377e-10 -2.18375e-10 -2.18377e-10 -2.18381e-10);
    }
    FrontNBack
    {
        type            empty;
        value           nonuniform 0();
    }
    LeftSide
    {
        type            symmetryPlane;
        value           uniform 0;
    }
    RightSide
    {
        type            symmetryPlane;
        value           uniform 0;
    }
}


// ************************************************************************* //
