/*--------------------------------*- C++ -*----------------------------------*\
| =========                 |                                                 |
| \\      /  F ield         | OpenFOAM: The Open Source CFD Toolbox           |
|  \\    /   O peration     | Version:  2.4.0                                 |
|   \\  /    A nd           | Web:      www.OpenFOAM.org                      |
|    \\/     M anipulation  |                                                 |
\*---------------------------------------------------------------------------*/
FoamFile
{
    version     2.0;
    format      ascii;
    class       volVectorField;
    location    "3.7";
    object      U;
}
// * * * * * * * * * * * * * * * * * * * * * * * * * * * * * * * * * * * * * //

dimensions      [0 1 -1 0 0 0 0];

internalField   nonuniform List<vector> 
500
(
(2.48786e-09 -2.32868e-10 0)
(3.23105e-09 -2.27789e-10 0)
(1.25012e-11 -2.24214e-10 0)
(-3.18837e-09 -2.2797e-10 0)
(-2.45447e-09 -2.32684e-10 0)
(7.56553e-09 5.00776e-10 0)
(9.95888e-09 6.33921e-10 0)
(5.87868e-11 6.85996e-10 0)
(-9.83216e-09 6.33378e-10 0)
(-7.48791e-09 5.02138e-10 0)
(1.2781e-08 -1.24619e-09 0)
(1.70011e-08 -9.20099e-10 0)
(1.26931e-10 -7.57252e-10 0)
(-1.67916e-08 -9.2037e-10 0)
(-1.26822e-08 -1.24282e-09 0)
(1.81369e-08 8.88113e-10 0)
(2.43648e-08 1.63517e-09 0)
(2.1732e-10 1.97394e-09 0)
(-2.40743e-08 1.63597e-09 0)
(-1.80409e-08 8.94269e-10 0)
(2.36454e-08 -2.65764e-09 0)
(3.20684e-08 -1.49027e-09 0)
(3.31002e-10 -9.02115e-10 0)
(-3.16984e-08 -1.48651e-09 0)
(-2.35767e-08 -2.64827e-09 0)
(2.93067e-08 9.58665e-10 0)
(4.01182e-08 2.86313e-09 0)
(4.68722e-10 3.77399e-09 0)
(-3.967e-08 2.87154e-09 0)
(-2.92908e-08 9.71647e-10 0)
(3.51368e-08 -4.55573e-09 0)
(4.85361e-08 -1.97926e-09 0)
(6.31304e-10 -6.59896e-10 0)
(-4.80113e-08 -1.96295e-09 0)
(-3.51999e-08 -4.53909e-09 0)
(4.1134e-08 7.15656e-10 0)
(5.73272e-08 4.3774e-09 0)
(8.197e-10 6.18925e-09 0)
(-5.67273e-08 4.40428e-09 0)
(-4.13035e-08 7.35966e-10 0)
(4.73169e-08 -7.13899e-09 0)
(6.65166e-08 -2.52123e-09 0)
(1.03477e-09 -1.1717e-10 0)
(-6.58435e-08 -2.47899e-09 0)
(-4.76212e-08 -7.1154e-09 0)
(5.36831e-08 -3.57946e-10 0)
(7.61093e-08 5.72845e-09 0)
(1.27757e-09 8.82046e-09 0)
(-7.53648e-08 5.78981e-09 0)
(-5.41518e-08 -3.31512e-10 0)
(6.02535e-08 -1.08481e-08 0)
(8.61333e-08 -3.48667e-09 0)
(1.54898e-09 4.10234e-10 0)
(-8.53194e-08 -3.39956e-09 0)
(-6.09172e-08 -1.08198e-08 0)
(6.70254e-08 1.16938e-09 0)
(9.65939e-08 1.04256e-08 0)
(1.8502e-09 1.52446e-08 0)
(-9.57127e-08 1.0544e-08 0)
(-6.79161e-08 1.19871e-09 0)
(7.40217e-08 -2.57454e-09 0)
(1.07522e-07 8.34173e-09 0)
(2.1822e-09 1.42217e-08 0)
(-1.06576e-07 8.50053e-09 0)
(-7.51726e-08 -2.54581e-09 0)
(8.12402e-08 1.4133e-08 0)
(1.18925e-07 2.74244e-08 0)
(2.5463e-09 3.44873e-08 0)
(-1.17916e-07 2.76302e-08 0)
(-8.26862e-08 1.41596e-08 0)
(8.87048e-08 -7.27474e-08 0)
(1.30834e-07 -5.75608e-08 0)
(2.94357e-09 -4.92396e-08 0)
(-1.29765e-07 -5.73037e-08 0)
(-9.04818e-08 -7.27246e-08 0)
(9.64117e-08 -3.07113e-07 0)
(1.43255e-07 -2.89606e-07 0)
(3.37534e-09 -2.80149e-07 0)
(-1.42129e-07 -2.89312e-07 0)
(-9.85576e-08 -3.07094e-07 0)
(1.04383e-07 -4.44188e-07 0)
(1.56215e-07 -4.24577e-07 0)
(3.84251e-09 -4.13901e-07 0)
(-1.55035e-07 -4.24242e-07 0)
(-1.06936e-07 -4.44175e-07 0)
(1.12624e-07 1.40493e-06 0)
(1.69733e-07 1.43137e-06 0)
(4.34691e-09 1.44554e-06 0)
(-1.68503e-07 1.43194e-06 0)
(-1.15627e-07 1.40492e-06 0)
(1.21218e-07 8.01555e-06 0)
(1.83936e-07 8.05841e-06 0)
(4.98987e-09 8.08312e-06 0)
(-1.82546e-07 8.05982e-06 0)
(-1.247e-07 8.01546e-06 0)
(1.30251e-07 1.00457e-05 0)
(1.98824e-07 1.01071e-05 0)
(5.58058e-09 1.01455e-05 0)
(-1.97433e-07 1.01096e-05 0)
(-1.34319e-07 1.00455e-05 0)
(1.39788e-07 -3.19688e-05 0)
(2.14916e-07 -3.19838e-05 0)
(6.15313e-09 -3.1993e-05 0)
(-2.13568e-07 -3.19855e-05 0)
(-1.44471e-07 -3.19686e-05 0)
(1.50833e-07 -0.000250888 0)
(2.33547e-07 -0.000251172 0)
(6.81577e-09 -0.000251364 0)
(-2.32254e-07 -0.00025119 0)
(-1.56233e-07 -0.000250887 0)
(1.53304e-07 -0.000824461 0)
(2.37685e-07 -0.000824335 0)
(6.96696e-09 -0.000824263 0)
(-2.36405e-07 -0.000824329 0)
(-1.58868e-07 -0.000824461 0)
(1.50585e-07 -0.00190289 0)
(2.34103e-07 -0.0019027 0)
(6.96091e-09 -0.00190258 0)
(-2.32793e-07 -0.00190269 0)
(-1.56101e-07 -0.00190289 0)
(1.42653e-07 -0.00112591 0)
(2.22413e-07 -0.001126 0)
(6.69366e-09 -0.00112604 0)
(-2.21055e-07 -0.001126 0)
(-1.47844e-07 -0.00112591 0)
(1.35268e-07 -0.00104776 0)
(2.11327e-07 -0.00104781 0)
(6.43094e-09 -0.00104784 0)
(-2.09924e-07 -0.00104781 0)
(-1.40143e-07 -0.00104776 0)
(1.28471e-07 -0.00106811 0)
(2.01044e-07 -0.00106812 0)
(6.1867e-09 -0.00106814 0)
(-1.996e-07 -0.00106813 0)
(-1.33055e-07 -0.00106811 0)
(1.21951e-07 -0.00108979 0)
(1.91173e-07 -0.0010898 0)
(5.95392e-09 -0.0010898 0)
(-1.89691e-07 -0.0010898 0)
(-1.26258e-07 -0.00108979 0)
(1.15572e-07 -0.00109388 0)
(1.81513e-07 -0.00109389 0)
(5.7264e-09 -0.00109389 0)
(-1.79996e-07 -0.00109389 0)
(-1.19612e-07 -0.00109388 0)
(1.0935e-07 -0.00109284 0)
(1.7207e-07 -0.00109284 0)
(5.50319e-09 -0.00109285 0)
(-1.70521e-07 -0.00109284 0)
(-1.13133e-07 -0.00109284 0)
(1.03309e-07 -0.00109198 0)
(1.62873e-07 -0.00109198 0)
(5.28469e-09 -0.00109198 0)
(-1.61293e-07 -0.00109198 0)
(-1.06842e-07 -0.00109198 0)
(9.74525e-08 -0.00109181 0)
(1.53928e-07 -0.00109181 0)
(5.07112e-09 -0.00109181 0)
(-1.52321e-07 -0.00109181 0)
(-1.00744e-07 -0.00109181 0)
(9.17763e-08 -0.00109186 0)
(1.45234e-07 -0.00109185 0)
(4.86254e-09 -0.00109185 0)
(-1.43602e-07 -0.00109185 0)
(-9.48352e-08 -0.00109186 0)
(8.62779e-08 -0.00109189 0)
(1.36789e-07 -0.00109189 0)
(4.65891e-09 -0.00109188 0)
(-1.35135e-07 -0.00109189 0)
(-8.91128e-08 -0.00109189 0)
(8.09558e-08 -0.0010919 0)
(1.28592e-07 -0.00109189 0)
(4.46022e-09 -0.00109189 0)
(-1.26918e-07 -0.00109189 0)
(-8.3575e-08 -0.0010919 0)
(7.58087e-08 -0.0010919 0)
(1.20643e-07 -0.00109189 0)
(4.26646e-09 -0.00109188 0)
(-1.18951e-07 -0.00109189 0)
(-7.82204e-08 -0.0010919 0)
(7.08352e-08 -0.0010919 0)
(1.1294e-07 -0.00109189 0)
(4.07762e-09 -0.00109188 0)
(-1.11234e-07 -0.00109189 0)
(-7.30475e-08 -0.0010919 0)
(6.60335e-08 -0.0010919 0)
(1.05484e-07 -0.00109189 0)
(3.89369e-09 -0.00109188 0)
(-1.03764e-07 -0.00109189 0)
(-6.80545e-08 -0.0010919 0)
(6.14022e-08 -0.00109191 0)
(9.82722e-08 -0.00109189 0)
(3.71467e-09 -0.00109187 0)
(-9.65424e-08 -0.00109189 0)
(-6.32397e-08 -0.00109191 0)
(5.69394e-08 -0.00109191 0)
(9.13047e-08 -0.00109189 0)
(3.54053e-09 -0.00109187 0)
(-8.95667e-08 -0.00109189 0)
(-5.86012e-08 -0.00109191 0)
(5.26434e-08 -0.00109191 0)
(8.45799e-08 -0.00109189 0)
(3.37127e-09 -0.00109187 0)
(-8.28359e-08 -0.00109188 0)
(-5.41371e-08 -0.00109191 0)
(4.85124e-08 -0.00109191 0)
(7.80964e-08 -0.00109188 0)
(3.20686e-09 -0.00109187 0)
(-7.63485e-08 -0.00109188 0)
(-4.98455e-08 -0.00109191 0)
(4.45444e-08 -0.00109191 0)
(7.18527e-08 -0.00109188 0)
(3.0473e-09 -0.00109187 0)
(-7.01029e-08 -0.00109188 0)
(-4.57243e-08 -0.00109191 0)
(4.07375e-08 -0.00109191 0)
(6.58472e-08 -0.00109188 0)
(2.89257e-09 -0.00109187 0)
(-6.40976e-08 -0.00109188 0)
(-4.17713e-08 -0.00109191 0)
(3.70897e-08 -0.00109191 0)
(6.0078e-08 -0.00109188 0)
(2.74263e-09 -0.00109186 0)
(-5.83305e-08 -0.00109188 0)
(-3.79846e-08 -0.00109191 0)
(3.35988e-08 -0.00109192 0)
(5.45433e-08 -0.00109188 0)
(2.59749e-09 -0.00109186 0)
(-5.27998e-08 -0.00109188 0)
(-3.43617e-08 -0.00109192 0)
(3.02627e-08 -0.00109192 0)
(4.92409e-08 -0.00109188 0)
(2.4571e-09 -0.00109186 0)
(-4.75033e-08 -0.00109188 0)
(-3.09004e-08 -0.00109192 0)
(2.70791e-08 -0.00109192 0)
(4.41688e-08 -0.00109188 0)
(2.32145e-09 -0.00109186 0)
(-4.24388e-08 -0.00109188 0)
(-2.75984e-08 -0.00109192 0)
(2.40459e-08 -0.00109192 0)
(3.93245e-08 -0.00109188 0)
(2.1905e-09 -0.00109186 0)
(-3.76038e-08 -0.00109188 0)
(-2.44532e-08 -0.00109192 0)
(2.11606e-08 -0.00109192 0)
(3.47055e-08 -0.00109188 0)
(2.06424e-09 -0.00109186 0)
(-3.29957e-08 -0.00109188 0)
(-2.14623e-08 -0.00109192 0)
(1.84208e-08 -0.00109192 0)
(3.03092e-08 -0.00109188 0)
(1.94263e-09 -0.00109186 0)
(-2.86119e-08 -0.00109188 0)
(-1.86232e-08 -0.00109192 0)
(1.58241e-08 -0.00109192 0)
(2.61327e-08 -0.00109188 0)
(1.82564e-09 -0.00109186 0)
(-2.44494e-08 -0.00109188 0)
(-1.59331e-08 -0.00109192 0)
(1.33678e-08 -0.00109192 0)
(2.21732e-08 -0.00109188 0)
(1.71323e-09 -0.00109186 0)
(-2.05052e-08 -0.00109188 0)
(-1.33895e-08 -0.00109192 0)
(1.10494e-08 -0.00109192 0)
(1.84276e-08 -0.00109188 0)
(1.60536e-09 -0.00109186 0)
(-1.67762e-08 -0.00109188 0)
(-1.09895e-08 -0.00109192 0)
(8.86611e-09 -0.00109192 0)
(1.48924e-08 -0.00109188 0)
(1.502e-09 -0.00109186 0)
(-1.3259e-08 -0.00109188 0)
(-8.73034e-09 -0.00109192 0)
(6.81528e-09 -0.00109192 0)
(1.15644e-08 -0.00109188 0)
(1.40311e-09 -0.00109186 0)
(-9.95012e-09 -0.00109188 0)
(-6.60905e-09 -0.00109192 0)
(4.89404e-09 -0.00109192 0)
(8.43996e-09 -0.00109188 0)
(1.30863e-09 -0.00109186 0)
(-6.84587e-09 -0.00109188 0)
(-4.62268e-09 -0.00109192 0)
(3.09951e-09 -0.00109192 0)
(5.5153e-09 -0.00109188 0)
(1.21853e-09 -0.00109186 0)
(-3.94246e-09 -0.00109188 0)
(-2.76818e-09 -0.00109192 0)
(1.42874e-09 -0.00109192 0)
(2.78654e-09 -0.00109188 0)
(1.13274e-09 -0.00109186 0)
(-1.23589e-09 -0.00109188 0)
(-1.04243e-09 -0.00109192 0)
(-1.21322e-10 -0.00109192 0)
(2.49613e-10 -0.00109188 0)
(1.05122e-09 -0.00109186 0)
(1.27799e-09 -0.00109188 0)
(5.57752e-10 -0.00109192 0)
(-1.55375e-09 -0.00109192 0)
(-2.09972e-09 -0.00109188 0)
(9.73906e-10 -0.00109186 0)
(3.60348e-09 -0.00109188 0)
(2.03562e-09 -0.00109192 0)
(-2.87173e-09 -0.00109192 0)
(-4.26585e-09 -0.00109188 0)
(9.00742e-10 -0.00109186 0)
(5.74505e-09 -0.00109188 0)
(3.39451e-09 -0.00109192 0)
(-4.07847e-09 -0.00109192 0)
(-6.25334e-09 -0.00109188 0)
(8.31662e-10 -0.00109186 0)
(7.70735e-09 -0.00109188 0)
(4.63781e-09 -0.00109192 0)
(-5.1773e-09 -0.00109192 0)
(-8.0669e-09 -0.00109188 0)
(7.66599e-10 -0.00109186 0)
(9.49518e-09 -0.00109188 0)
(5.76899e-09 -0.00109192 0)
(-6.17157e-09 -0.00109192 0)
(-9.71144e-09 -0.00109188 0)
(7.05482e-10 -0.00109186 0)
(1.11135e-08 -0.00109188 0)
(6.79158e-09 -0.00109192 0)
(-7.06473e-09 -0.00109192 0)
(-1.1192e-08 -0.00109188 0)
(6.48236e-10 -0.00109186 0)
(1.25674e-08 -0.00109188 0)
(7.70919e-09 -0.00109192 0)
(-7.8603e-09 -0.00109192 0)
(-1.25138e-08 -0.00109188 0)
(5.94781e-10 -0.00109186 0)
(1.38623e-08 -0.00109188 0)
(8.5255e-09 -0.00109192 0)
(-8.56185e-09 -0.00109192 0)
(-1.36822e-08 -0.00109188 0)
(5.45035e-10 -0.00109186 0)
(1.50035e-08 -0.00109188 0)
(9.24425e-09 -0.00109192 0)
(-9.17302e-09 -0.00109192 0)
(-1.47027e-08 -0.00109188 0)
(4.98911e-10 -0.00109186 0)
(1.59967e-08 -0.00109188 0)
(9.86926e-09 -0.00109192 0)
(-9.69753e-09 -0.00109192 0)
(-1.55811e-08 -0.00109188 0)
(4.56318e-10 -0.00109186 0)
(1.68477e-08 -0.00109188 0)
(1.04044e-08 -0.00109192 0)
(-1.01392e-08 -0.00109192 0)
(-1.63232e-08 -0.00109188 0)
(4.17161e-10 -0.00109186 0)
(1.75623e-08 -0.00109188 0)
(1.08536e-08 -0.00109192 0)
(-1.05018e-08 -0.00109192 0)
(-1.69351e-08 -0.00109188 0)
(3.81339e-10 -0.00109186 0)
(1.81467e-08 -0.00109188 0)
(1.12209e-08 -0.00109192 0)
(-1.07892e-08 -0.00109192 0)
(-1.74228e-08 -0.00109188 0)
(3.48749e-10 -0.00109186 0)
(1.86071e-08 -0.00109188 0)
(1.15104e-08 -0.00109192 0)
(-1.10055e-08 -0.00109192 0)
(-1.77926e-08 -0.00109188 0)
(3.19282e-10 -0.00109186 0)
(1.89499e-08 -0.00109188 0)
(1.17262e-08 -0.00109192 0)
(-1.11547e-08 -0.00109192 0)
(-1.80512e-08 -0.00109188 0)
(2.92825e-10 -0.00109186 0)
(1.91816e-08 -0.00109188 0)
(1.18725e-08 -0.00109192 0)
(-1.12409e-08 -0.00109192 0)
(-1.8205e-08 -0.00109188 0)
(2.69262e-10 -0.00109186 0)
(1.93088e-08 -0.00109188 0)
(1.19537e-08 -0.00109192 0)
(-1.12682e-08 -0.00109192 0)
(-1.82607e-08 -0.00109188 0)
(2.48471e-10 -0.00109186 0)
(1.93385e-08 -0.00109188 0)
(1.19739e-08 -0.00109192 0)
(-1.12409e-08 -0.00109192 0)
(-1.82254e-08 -0.00109188 0)
(2.30325e-10 -0.00109186 0)
(1.92774e-08 -0.00109188 0)
(1.19377e-08 -0.00109192 0)
(-1.11632e-08 -0.00109192 0)
(-1.81059e-08 -0.00109188 0)
(2.14695e-10 -0.00109186 0)
(1.91327e-08 -0.00109188 0)
(1.18494e-08 -0.00109192 0)
(-1.10395e-08 -0.00109192 0)
(-1.79094e-08 -0.00109188 0)
(2.01446e-10 -0.00109186 0)
(1.89116e-08 -0.00109188 0)
(1.17136e-08 -0.00109191 0)
(-1.08741e-08 -0.00109192 0)
(-1.76432e-08 -0.00109188 0)
(1.90439e-10 -0.00109186 0)
(1.86213e-08 -0.00109188 0)
(1.15348e-08 -0.00109191 0)
(-1.06715e-08 -0.00109191 0)
(-1.73146e-08 -0.00109188 0)
(1.81533e-10 -0.00109187 0)
(1.82694e-08 -0.00109188 0)
(1.13176e-08 -0.00109191 0)
(-1.04362e-08 -0.00109191 0)
(-1.69311e-08 -0.00109188 0)
(1.7458e-10 -0.00109187 0)
(1.78633e-08 -0.00109188 0)
(1.10668e-08 -0.00109191 0)
(-1.01728e-08 -0.00109191 0)
(-1.65002e-08 -0.00109188 0)
(1.6943e-10 -0.00109187 0)
(1.74106e-08 -0.00109188 0)
(1.0787e-08 -0.00109191 0)
(-9.8857e-09 -0.00109191 0)
(-1.60298e-08 -0.00109188 0)
(1.6593e-10 -0.00109187 0)
(1.69192e-08 -0.00109188 0)
(1.0483e-08 -0.00109191 0)
(-9.57968e-09 -0.00109191 0)
(-1.55274e-08 -0.00109188 0)
(1.63923e-10 -0.00109187 0)
(1.63967e-08 -0.00109188 0)
(1.01596e-08 -0.00109191 0)
(-9.2594e-09 -0.00109191 0)
(-1.50011e-08 -0.00109188 0)
(1.63249e-10 -0.00109187 0)
(1.58512e-08 -0.00109188 0)
(9.82166e-09 -0.00109191 0)
(-8.92959e-09 -0.00109191 0)
(-1.44587e-08 -0.00109188 0)
(1.63744e-10 -0.00109187 0)
(1.52906e-08 -0.00109188 0)
(9.47415e-09 -0.00109191 0)
(-8.59503e-09 -0.00109191 0)
(-1.39082e-08 -0.00109188 0)
(1.65243e-10 -0.00109187 0)
(1.47231e-08 -0.00109188 0)
(9.12201e-09 -0.00109191 0)
(-8.26056e-09 -0.00109191 0)
(-1.33578e-08 -0.00109189 0)
(1.67578e-10 -0.00109187 0)
(1.41566e-08 -0.00109188 0)
(8.77026e-09 -0.00109191 0)
(-7.93105e-09 -0.00109191 0)
(-1.28156e-08 -0.00109189 0)
(1.70578e-10 -0.00109187 0)
(1.35995e-08 -0.00109188 0)
(8.42398e-09 -0.00109191 0)
(-7.61143e-09 -0.00109191 0)
(-1.22899e-08 -0.00109189 0)
(1.74073e-10 -0.00109187 0)
(1.30601e-08 -0.00109188 0)
(8.08829e-09 -0.00109191 0)
(-7.30669e-09 -0.00109191 0)
(-1.17889e-08 -0.00109189 0)
(1.77887e-10 -0.00109187 0)
(1.25467e-08 -0.00109188 0)
(7.76838e-09 -0.00109191 0)
(-7.02187e-09 -0.00109191 0)
(-1.1321e-08 -0.00109189 0)
(1.81845e-10 -0.00109187 0)
(1.20677e-08 -0.00109188 0)
(7.4695e-09 -0.00109191 0)
(-6.76207e-09 -0.00109191 0)
(-1.08946e-08 -0.00109189 0)
(1.85773e-10 -0.00109187 0)
(1.16315e-08 -0.00109188 0)
(7.19697e-09 -0.00109191 0)
(-6.53244e-09 -0.00109191 0)
(-1.05182e-08 -0.00109189 0)
(1.89492e-10 -0.00109187 0)
(1.12468e-08 -0.00109188 0)
(6.95614e-09 -0.00109191 0)
(-6.33824e-09 -0.00109191 0)
(-1.02002e-08 -0.00109189 0)
(1.92825e-10 -0.00109187 0)
(1.09221e-08 -0.00109188 0)
(6.75251e-09 -0.00109191 0)
(-6.18494e-09 -0.00109191 0)
(-9.94964e-09 -0.00109189 0)
(1.95593e-10 -0.00109187 0)
(1.06663e-08 -0.00109189 0)
(6.59178e-09 -0.00109191 0)
(-6.07848e-09 -0.00109191 0)
(-9.77594e-09 -0.00109189 0)
(1.97616e-10 -0.00109187 0)
(1.04891e-08 -0.00109189 0)
(6.48018e-09 -0.00109191 0)
(-6.02459e-09 -0.00109191 0)
(-9.68821e-09 -0.00109189 0)
(1.98715e-10 -0.00109187 0)
(1.03997e-08 -0.00109189 0)
(6.4237e-09 -0.00109191 0)
)
;

boundaryField
{
    BotWall
    {
        type            fixedValue;
        value           uniform (0 0 0);
    }
    FreeStream
    {
        type            zeroGradient;
    }
    FrontNBack
    {
        type            empty;
    }
    LeftSide
    {
        type            symmetryPlane;
    }
    RightSide
    {
        type            symmetryPlane;
    }
}


// ************************************************************************* //
