/*--------------------------------*- C++ -*----------------------------------*\
| =========                 |                                                 |
| \\      /  F ield         | OpenFOAM: The Open Source CFD Toolbox           |
|  \\    /   O peration     | Version:  2.4.0                                 |
|   \\  /    A nd           | Web:      www.OpenFOAM.org                      |
|    \\/     M anipulation  |                                                 |
\*---------------------------------------------------------------------------*/
FoamFile
{
    version     2.0;
    format      ascii;
    class       volScalarField;
    location    "0.01";
    object      p;
}
// * * * * * * * * * * * * * * * * * * * * * * * * * * * * * * * * * * * * * //

dimensions      [1 -1 -2 0 0 0 0];

internalField   nonuniform List<scalar> 
25915
(
-0.00625467
-0.00639258
-0.00649399
-0.00658456
-0.00669516
-0.00684236
-0.00703667
-0.0072877
-0.00760494
-0.00799611
-0.00847119
-0.00904307
-0.00972635
-0.0105377
-0.0114973
-0.0126207
-0.0139081
-0.0153937
-0.0171123
-0.0191169
-0.0214478
-0.0241177
-0.0272054
-0.0345849
-0.0040428
-0.022813
-0.022895
-0.023044
-0.0232405
-0.0234823
-0.0237727
-0.0241149
-0.0245126
-0.0249702
-0.0254954
-0.0260995
-0.0267941
-0.0275928
-0.0285131
-0.0295803
-0.0308298
-0.0322699
-0.0339292
-0.0358741
-0.038172
-0.0408959
-0.0441406
-0.0478827
-0.0507522
-0.0269926
-0.037676
-0.0377021
-0.0377951
-0.0379737
-0.0382372
-0.0385881
-0.0390299
-0.0395644
-0.0401937
-0.0409227
-0.0417573
-0.0427042
-0.0437705
-0.0449635
-0.0462911
-0.0477687
-0.049433
-0.0512767
-0.0532743
-0.0554585
-0.0578593
-0.0603912
-0.0627447
-0.0630853
-0.0549416
-0.0518284
-0.0518056
-0.051868
-0.052047
-0.0523403
-0.0527391
-0.0532387
-0.0538397
-0.0545457
-0.0553602
-0.056286
-0.0573269
-0.058487
-0.0597711
-0.0611844
-0.062732
-0.0644182
-0.0662491
-0.0682338
-0.0704023
-0.0727538
-0.0751529
-0.0772571
-0.0790157
-0.0839803
-0.0644883
-0.0644338
-0.0644669
-0.0646289
-0.0649174
-0.0653255
-0.0658491
-0.06649
-0.0672525
-0.0681365
-0.0691419
-0.0702707
-0.071525
-0.0729071
-0.0744193
-0.0760632
-0.0778398
-0.0797489
-0.0817918
-0.0839896
-0.0863441
-0.0887448
-0.0909147
-0.0933351
-0.104409
-0.0758041
-0.0757279
-0.0757433
-0.0758956
-0.0761824
-0.0765978
-0.0771421
-0.0778137
-0.0786097
-0.0795322
-0.0805838
-0.0817662
-0.0830812
-0.0845308
-0.0861174
-0.0878433
-0.0897101
-0.0917195
-0.0938738
-0.0961957
-0.0986964
-0.101308
-0.103779
-0.105865
-0.115358
-0.0855799
-0.0854929
-0.0854973
-0.0856417
-0.0859252
-0.0863422
-0.0868909
-0.0875718
-0.0883851
-0.0893316
-0.0904134
-0.0916322
-0.0929903
-0.0944902
-0.0961349
-0.0979278
-0.0998708
-0.10197
-0.104247
-0.106732
-0.109419
-0.112252
-0.115002
-0.116664
-0.121196
-0.0938713
-0.0937811
-0.093782
-0.0939232
-0.0942041
-0.0946195
-0.095168
-0.0958506
-0.096668
-0.0976208
-0.0987111
-0.0999409
-0.101312
-0.102829
-0.104493
-0.106309
-0.108281
-0.110416
-0.112734
-0.115268
-0.118024
-0.120954
-0.123819
-0.125013
-0.12599
-0.100653
-0.100565
-0.100566
-0.100705
-0.10098
-0.101389
-0.101929
-0.102602
-0.103408
-0.104347
-0.105423
-0.106635
-0.107985
-0.109475
-0.111107
-0.112883
-0.114805
-0.116876
-0.1191
-0.121503
-0.124102
-0.126824
-0.129365
-0.130274
-0.131449
-0.105983
-0.1059
-0.105904
-0.106041
-0.106311
-0.10671
-0.107237
-0.107893
-0.108678
-0.109593
-0.110639
-0.111817
-0.113127
-0.11457
-0.116149
-0.117862
-0.119712
-0.121697
-0.123822
-0.126105
-0.128558
-0.131096
-0.133392
-0.134034
-0.137214
-0.109904
-0.109828
-0.109836
-0.109971
-0.110234
-0.110621
-0.111131
-0.111764
-0.112522
-0.113405
-0.114413
-0.115547
-0.116807
-0.118194
-0.119707
-0.121349
-0.123117
-0.125011
-0.127035
-0.129204
-0.131528
-0.133923
-0.136085
-0.136959
-0.140118
-0.112481
-0.112414
-0.112426
-0.11256
-0.112814
-0.113187
-0.113677
-0.114285
-0.115011
-0.115856
-0.116821
-0.117906
-0.119111
-0.120438
-0.121886
-0.123458
-0.125152
-0.126972
-0.128919
-0.131014
-0.133272
-0.135615
-0.137778
-0.139773
-0.142685
-0.113783
-0.113725
-0.113742
-0.113873
-0.114118
-0.114473
-0.11494
-0.115517
-0.116207
-0.117008
-0.117923
-0.118951
-0.120093
-0.12135
-0.122723
-0.124213
-0.125821
-0.127548
-0.129399
-0.131395
-0.133552
-0.135798
-0.137885
-0.140298
-0.143946
-0.113886
-0.113838
-0.11386
-0.113987
-0.11422
-0.114556
-0.114994
-0.115536
-0.116182
-0.116932
-0.117787
-0.118747
-0.119813
-0.120986
-0.122265
-0.123653
-0.125149
-0.126756
-0.128475
-0.130328
-0.132331
-0.134411
-0.136327
-0.138296
-0.142465
-0.112881
-0.112843
-0.11287
-0.112994
-0.113213
-0.113528
-0.113936
-0.114439
-0.115037
-0.115731
-0.116521
-0.117407
-0.118389
-0.119467
-0.120642
-0.121914
-0.123283
-0.124747
-0.12631
-0.127989
-0.129797
-0.131648
-0.133289
-0.134823
-0.138979
-0.110865
-0.110839
-0.110872
-0.110992
-0.111198
-0.111489
-0.111865
-0.112327
-0.112875
-0.11351
-0.114231
-0.115039
-0.115933
-0.116914
-0.117982
-0.119135
-0.120374
-0.121695
-0.123101
-0.124607
-0.126222
-0.127851
-0.129206
-0.129849
-0.13222
-0.107945
-0.107931
-0.10797
-0.108084
-0.108276
-0.108542
-0.108884
-0.109303
-0.109799
-0.110372
-0.111024
-0.111753
-0.112562
-0.113451
-0.11442
-0.115471
-0.116605
-0.117822
-0.119129
-0.120544
-0.122084
-0.123671
-0.125048
-0.12448
-0.121649
-0.104228
-0.104225
-0.104269
-0.104377
-0.10455
-0.104789
-0.105093
-0.105463
-0.1059
-0.106404
-0.106977
-0.107618
-0.10833
-0.109113
-0.10997
-0.110902
-0.111913
-0.113006
-0.114189
-0.115488
-0.116938
-0.118483
-0.119891
-0.11868
-0.112682
-0.0998273
-0.0998353
-0.0998822
-0.0999809
-0.100133
-0.100338
-0.100597
-0.100908
-0.101274
-0.101694
-0.102168
-0.102696
-0.103279
-0.103916
-0.104609
-0.105357
-0.106162
-0.107022
-0.107944
-0.108944
-0.110044
-0.111169
-0.112083
-0.112511
-0.112747
-0.0948761
-0.0948948
-0.0949451
-0.0950349
-0.0951646
-0.0953344
-0.0955445
-0.095795
-0.0960859
-0.0964167
-0.0967869
-0.0971959
-0.0976426
-0.098126
-0.0986447
-0.0991972
-0.0997809
-0.100393
-0.101032
-0.101716
-0.102457
-0.103153
-0.103471
-0.105226
-0.114906
-0.0895201
-0.0895491
-0.0896026
-0.0896829
-0.0897909
-0.0899272
-0.0900922
-0.0902858
-0.0905079
-0.0907581
-0.0910358
-0.0913403
-0.0916706
-0.0920259
-0.0924049
-0.0928063
-0.093228
-0.0936678
-0.0941264
-0.0946198
-0.0951622
-0.0956577
-0.0957903
-0.0950941
-0.108578
-0.0838841
-0.0839216
-0.0839763
-0.0840462
-0.0841322
-0.0842353
-0.0843559
-0.0844941
-0.0846495
-0.0848219
-0.0850108
-0.0852156
-0.0854357
-0.0856703
-0.0859188
-0.0861803
-0.0864535
-0.0867372
-0.0870333
-0.0873589
-0.08773
-0.08806
-0.0880455
-0.0855874
-0.0957881
-0.0780847
-0.0781292
-0.0781837
-0.078242
-0.078305
-0.078374
-0.0784495
-0.0785315
-0.0786196
-0.0787134
-0.0788125
-0.0789163
-0.0790239
-0.0791346
-0.0792475
-0.0793617
-0.0794754
-0.0795871
-0.0796982
-0.0798268
-0.0799904
-0.0800925
-0.0798046
-0.0786219
-0.0845011
-0.0722445
-0.0722945
-0.0723475
-0.0723935
-0.0724335
-0.0724691
-0.0725008
-0.0725288
-0.0725527
-0.0725722
-0.0725871
-0.072597
-0.0726016
-0.0726004
-0.0725931
-0.0725795
-0.0725587
-0.0725302
-0.0724967
-0.0724779
-0.0724954
-0.0724595
-0.0720516
-0.0710631
-0.0708189
-0.0664739
-0.0665275
-0.0665769
-0.0666089
-0.0666243
-0.066625
-0.0666116
-0.0665842
-0.0665424
-0.066486
-0.0664151
-0.0663296
-0.0662294
-0.0661148
-0.0659862
-0.065844
-0.0656888
-0.0655214
-0.0653458
-0.0651836
-0.0650603
-0.0648974
-0.0643844
-0.0622998
-0.0543002
-0.060882
-0.0609374
-0.0609808
-0.0609961
-0.0609839
-0.0609462
-0.0608837
-0.0607957
-0.0606817
-0.0605414
-0.0603749
-0.0601815
-0.0599609
-0.0597129
-0.0594375
-0.0591348
-0.058805
-0.0584481
-0.0580673
-0.0576842
-0.0573281
-0.0569227
-0.0561171
-0.0535278
-0.0454157
-0.0555842
-0.0556392
-0.0556745
-0.0556712
-0.0556296
-0.055552
-0.0554386
-0.0552878
-0.0551001
-0.0548755
-0.0546127
-0.054311
-0.0539697
-0.0535885
-0.0531669
-0.0527045
-0.0522005
-0.0516542
-0.051066
-0.0504508
-0.0498391
-0.049175
-0.0481086
-0.0458063
-0.042275
-0.0506915
-0.050744
-0.0507688
-0.0507446
-0.050672
-0.0505526
-0.050385
-0.0501704
-0.0499089
-0.0495985
-0.0492381
-0.0488271
-0.0483647
-0.0478501
-0.0472831
-0.046663
-0.0459893
-0.0452613
-0.0444812
-0.0436682
-0.0428497
-0.0419643
-0.0406667
-0.0391681
-0.0402626
-0.0463142
-0.0463619
-0.0463738
-0.0463268
-0.0462208
-0.0460569
-0.0458364
-0.0455594
-0.0452232
-0.0448268
-0.0443692
-0.0438492
-0.043266
-0.0426185
-0.0419061
-0.0411279
-0.0402829
-0.0393702
-0.038392
-0.0373681
-0.0363237
-0.0351766
-0.033579
-0.0330129
-0.0381809
-0.0425584
-0.0425998
-0.0425974
-0.0425268
-0.0423876
-0.0421816
-0.0419099
-0.0415705
-0.041162
-0.0406833
-0.0401333
-0.0395108
-0.0388147
-0.0380444
-0.037199
-0.0362779
-0.0352804
-0.0342059
-0.0330572
-0.0318545
-0.030622
-0.0292742
-0.0274841
-0.0272588
-0.0336986
-0.0395241
-0.0395585
-0.0395416
-0.0394477
-0.0392759
-0.0390286
-0.0387058
-0.0383061
-0.0378275
-0.0372688
-0.0366285
-0.0359051
-0.0350972
-0.0342033
-0.0332218
-0.0321513
-0.0309896
-0.0297343
-0.0283864
-0.0269633
-0.0254845
-0.0238505
-0.0217151
-0.0210823
-0.0296904
-0.0373063
-0.0373339
-0.037303
-0.0371871
-0.0369861
-0.0367018
-0.0363334
-0.0358794
-0.0353383
-0.0347085
-0.0339882
-0.0331757
-0.0322691
-0.0312664
-0.0301654
-0.0289636
-0.0276579
-0.0262448
-0.024724
-0.0231122
-0.0214267
-0.0195558
-0.0171249
-0.0151119
-0.0230657
-0.035998
-0.036019
-0.0359764
-0.0358429
-0.0356176
-0.0353028
-0.0348981
-0.0344023
-0.0338137
-0.033131
-0.0323527
-0.0314772
-0.0305028
-0.029428
-0.0282508
-0.0269693
-0.0255809
-0.0240829
-0.0224762
-0.0207779
-0.0190029
-0.0170369
-0.0145308
-0.0106683
-0.0125702
-0.0356625
-0.0356765
-0.0356223
-0.0354726
-0.0352268
-0.0348871
-0.0344529
-0.0339228
-0.0332956
-0.0325696
-0.0317436
-0.030816
-0.0297851
-0.0286491
-0.0274063
-0.0260544
-0.0245907
-0.0230124
-0.0213203
-0.0195309
-0.0176589
-0.0155875
-0.0129538
-0.00806858
-0.00762432
-0.036349
-0.0363556
-0.0362905
-0.0361272
-0.0358653
-0.035506
-0.035049
-0.0344932
-0.0338372
-0.0330796
-0.0322192
-0.0312545
-0.030184
-0.0290063
-0.0277198
-0.026323
-0.0248139
-0.0231908
-0.0214565
-0.0196302
-0.0177302
-0.0156415
-0.0129968
-0.00826323
-0.00761847
-0.0380963
-0.038094
-0.0380182
-0.0378433
-0.0375687
-0.0371955
-0.0367233
-0.036151
-0.0354774
-0.0347011
-0.0338209
-0.0328356
-0.0317438
-0.0305444
-0.0292361
-0.0278176
-0.0262874
-0.0246443
-0.022891
-0.0210466
-0.0191278
-0.0170209
-0.014374
-0.0103595
-0.0106744
-0.0409135
-0.0409001
-0.0408121
-0.0406259
-0.0403399
-0.0399553
-0.0394714
-0.0388869
-0.0382004
-0.0374103
-0.0365152
-0.0355135
-0.0344034
-0.0331835
-0.0318517
-0.0304062
-0.0288445
-0.0271641
-0.0253662
-0.0234681
-0.0214859
-0.0193026
-0.0165475
-0.0134584
-0.0182481
-0.0447938
-0.0447673
-0.0446661
-0.0444686
-0.0441735
-0.0437813
-0.0432912
-0.0427017
-0.0420112
-0.0412184
-0.0403217
-0.0393194
-0.03821
-0.0369919
-0.0356635
-0.0342229
-0.0326681
-0.0309968
-0.0292111
-0.0273288
-0.0253667
-0.0232084
-0.0204947
-0.018103
-0.0248129
-0.0497172
-0.049676
-0.0495607
-0.0493531
-0.0490517
-0.0486562
-0.0481657
-0.0475789
-0.046894
-0.0461097
-0.0452244
-0.0442368
-0.0431452
-0.0419483
-0.0406448
-0.039233
-0.0377111
-0.0360777
-0.0343351
-0.0325011
-0.0305931
-0.0284972
-0.0258728
-0.0238758
-0.0315788
-0.0556403
-0.0555831
-0.0554529
-0.0552358
-0.0549297
-0.0545341
-0.0540478
-0.0534691
-0.0527966
-0.0520287
-0.0511639
-0.0502006
-0.0491373
-0.0479722
-0.0467037
-0.0453298
-0.0438479
-0.0422553
-0.0405529
-0.0387566
-0.0368824
-0.0348121
-0.0321878
-0.0301889
-0.0397164
-0.062509
-0.0624357
-0.0622915
-0.0620668
-0.0617596
-0.0613685
-0.0608925
-0.0603299
-0.0596794
-0.0589397
-0.0581094
-0.0571872
-0.0561717
-0.0550617
-0.0538558
-0.0525523
-0.0511491
-0.049644
-0.0480385
-0.0463488
-0.044591
-0.0426481
-0.0401698
-0.0376843
-0.045123
-0.070259
-0.0701702
-0.0700134
-0.0697838
-0.0694791
-0.0690977
-0.0686383
-0.0680999
-0.0674811
-0.0667812
-0.0659991
-0.065134
-0.0641852
-0.0631521
-0.0620341
-0.0608306
-0.059541
-0.058165
-0.0567064
-0.0551841
-0.053618
-0.0519
-0.0497053
-0.0467974
-0.0508839
-0.0788094
-0.0787069
-0.0785399
-0.0783082
-0.0780092
-0.0776413
-0.077203
-0.0766934
-0.0761117
-0.0754572
-0.074729
-0.0739266
-0.0730494
-0.0720967
-0.0710681
-0.0699629
-0.0687802
-0.0675194
-0.0661834
-0.0647904
-0.0633591
-0.0617803
-0.0597248
-0.0566532
-0.0595686
-0.0880804
-0.0879671
-0.0877939
-0.0875641
-0.0872755
-0.0869261
-0.0865146
-0.0860405
-0.0855029
-0.0849014
-0.0842354
-0.0835042
-0.0827072
-0.0818436
-0.0809127
-0.0799132
-0.0788435
-0.0777018
-0.0764897
-0.075223
-0.0739171
-0.0724572
-0.0705077
-0.0674699
-0.0702514
-0.0979885
-0.0978681
-0.0976929
-0.09747
-0.0971973
-0.0968727
-0.0964952
-0.0960643
-0.0955798
-0.0950413
-0.0944485
-0.0938009
-0.0930982
-0.0923396
-0.0915244
-0.0906515
-0.0897192
-0.0887259
-0.0876732
-0.086577
-0.0854516
-0.0841823
-0.0824424
-0.0797647
-0.0828952
-0.108445
-0.108321
-0.108148
-0.107937
-0.107685
-0.107392
-0.107055
-0.106674
-0.106251
-0.105784
-0.105274
-0.10472
-0.104123
-0.103481
-0.102795
-0.102063
-0.101285
-0.100459
-0.0995865
-0.0986849
-0.0977685
-0.0967246
-0.0952378
-0.0931276
-0.0972224
-0.119354
-0.119229
-0.119062
-0.118867
-0.118642
-0.118384
-0.118094
-0.117771
-0.117416
-0.117028
-0.116608
-0.116157
-0.115673
-0.115158
-0.11461
-0.114029
-0.113414
-0.112764
-0.112082
-0.111385
-0.110687
-0.109878
-0.108652
-0.107152
-0.112716
-0.130613
-0.130489
-0.130332
-0.130156
-0.129961
-0.129745
-0.129506
-0.129245
-0.128964
-0.128661
-0.128338
-0.127995
-0.127632
-0.127249
-0.126845
-0.126421
-0.125974
-0.125505
-0.125016
-0.124522
-0.124038
-0.123453
-0.122471
-0.121477
-0.128107
-0.142112
-0.141991
-0.141846
-0.141693
-0.141531
-0.141359
-0.141176
-0.140982
-0.140779
-0.140567
-0.140346
-0.140117
-0.139881
-0.139636
-0.139383
-0.139122
-0.138851
-0.138569
-0.138277
-0.137992
-0.137724
-0.137362
-0.136614
-0.135871
-0.142484
-0.153735
-0.153618
-0.153486
-0.153357
-0.153231
-0.153106
-0.152981
-0.152858
-0.152737
-0.152618
-0.152504
-0.152393
-0.152288
-0.152188
-0.152093
-0.152004
-0.15192
-0.15184
-0.151769
-0.151721
-0.151712
-0.151636
-0.151214
-0.150612
-0.156336
-0.165359
-0.165247
-0.165129
-0.165026
-0.164937
-0.16486
-0.164795
-0.164743
-0.164705
-0.164682
-0.164675
-0.164684
-0.164711
-0.164756
-0.164819
-0.164901
-0.165002
-0.165122
-0.165265
-0.165447
-0.165685
-0.165876
-0.165753
-0.165191
-0.169829
-0.176859
-0.176754
-0.176651
-0.176574
-0.176523
-0.176495
-0.17649
-0.17651
-0.176555
-0.176627
-0.176726
-0.176854
-0.177012
-0.1772
-0.177419
-0.177669
-0.17795
-0.178262
-0.178608
-0.179004
-0.179462
-0.179881
-0.179992
-0.17949
-0.183512
-0.188115
-0.188017
-0.187931
-0.187881
-0.187868
-0.187889
-0.187944
-0.188035
-0.188162
-0.188327
-0.188532
-0.188777
-0.189063
-0.189391
-0.189763
-0.190178
-0.190636
-0.191139
-0.191688
-0.1923
-0.19299
-0.19366
-0.194044
-0.193808
-0.197774
-0.199007
-0.198919
-0.198851
-0.198829
-0.198855
-0.198924
-0.199039
-0.199199
-0.199407
-0.199664
-0.199971
-0.20033
-0.200741
-0.201206
-0.201726
-0.202302
-0.202933
-0.20362
-0.204367
-0.20519
-0.206105
-0.207019
-0.207667
-0.20773
-0.211477
-0.209426
-0.20935
-0.209302
-0.209311
-0.209375
-0.209493
-0.209665
-0.209894
-0.21018
-0.210525
-0.21093
-0.211398
-0.21193
-0.212525
-0.213187
-0.213915
-0.214709
-0.215571
-0.216503
-0.217522
-0.218645
-0.219782
-0.220666
-0.220961
-0.224022
-0.219273
-0.219212
-0.219188
-0.219226
-0.21933
-0.219496
-0.219726
-0.22002
-0.220381
-0.22081
-0.22131
-0.221881
-0.222526
-0.223245
-0.22404
-0.224911
-0.225859
-0.226882
-0.227984
-0.229181
-0.230493
-0.231836
-0.232929
-0.23325
-0.235186
-0.228462
-0.228419
-0.22842
-0.228491
-0.228635
-0.228847
-0.22913
-0.229486
-0.229917
-0.230426
-0.231013
-0.231682
-0.232434
-0.23327
-0.234193
-0.235203
-0.236302
-0.237489
-0.238766
-0.24015
-0.241668
-0.243266
-0.244653
-0.244747
-0.245447
-0.23692
-0.236897
-0.236926
-0.237031
-0.23721
-0.237465
-0.237797
-0.238209
-0.238703
-0.239282
-0.239947
-0.240701
-0.241547
-0.242486
-0.243521
-0.244654
-0.245888
-0.247224
-0.248667
-0.250237
-0.251959
-0.253759
-0.25536
-0.256055
-0.254897
-0.244587
-0.244587
-0.244645
-0.244779
-0.244992
-0.245287
-0.245663
-0.246123
-0.246671
-0.247307
-0.248035
-0.248858
-0.249777
-0.250795
-0.251916
-0.25314
-0.254472
-0.255914
-0.257471
-0.259166
-0.261019
-0.26296
-0.264744
-0.266332
-0.262957
-0.251424
-0.251447
-0.251532
-0.251696
-0.251942
-0.252271
-0.252684
-0.253184
-0.253773
-0.254454
-0.255229
-0.256101
-0.257072
-0.258143
-0.259317
-0.260597
-0.261983
-0.263478
-0.265084
-0.266822
-0.268709
-0.270671
-0.272464
-0.274483
-0.271004
-0.257407
-0.257454
-0.257567
-0.25776
-0.258034
-0.258392
-0.258836
-0.259367
-0.259988
-0.260702
-0.26151
-0.262415
-0.26342
-0.264525
-0.265732
-0.267044
-0.26846
-0.269982
-0.271613
-0.273368
-0.275264
-0.277222
-0.27899
-0.280743
-0.278733
-0.262532
-0.262603
-0.262743
-0.262962
-0.263261
-0.263643
-0.26411
-0.264664
-0.265308
-0.266044
-0.266873
-0.267799
-0.268823
-0.269946
-0.271171
-0.272499
-0.273931
-0.275467
-0.27711
-0.278879
-0.280789
-0.282762
-0.284542
-0.286048
-0.284682
-0.266806
-0.2669
-0.267065
-0.267306
-0.267626
-0.268026
-0.26851
-0.269079
-0.269736
-0.270483
-0.271322
-0.272255
-0.273284
-0.274411
-0.275638
-0.276967
-0.278399
-0.279935
-0.281581
-0.283355
-0.285276
-0.287272
-0.289094
-0.290517
-0.288444
-0.270247
-0.270363
-0.270551
-0.27081
-0.271145
-0.271557
-0.272049
-0.272623
-0.273282
-0.274028
-0.274861
-0.275786
-0.276803
-0.277914
-0.279122
-0.280428
-0.281834
-0.283342
-0.284955
-0.286694
-0.288577
-0.290534
-0.292314
-0.293479
-0.290406
-0.272887
-0.273024
-0.273232
-0.273506
-0.273849
-0.274266
-0.274757
-0.275327
-0.275975
-0.276704
-0.277517
-0.278415
-0.279399
-0.280472
-0.281636
-0.282892
-0.284242
-0.285688
-0.287233
-0.288897
-0.290701
-0.292578
-0.294273
-0.295226
-0.292036
-0.274778
-0.274934
-0.275159
-0.275443
-0.27579
-0.276204
-0.276687
-0.27724
-0.277866
-0.278566
-0.279343
-0.280197
-0.28113
-0.282145
-0.283244
-0.284427
-0.285696
-0.287054
-0.288504
-0.290066
-0.291761
-0.293523
-0.295093
-0.295958
-0.293387
-0.275986
-0.27616
-0.276399
-0.27669
-0.277035
-0.27744
-0.277905
-0.278433
-0.279025
-0.279684
-0.280409
-0.281203
-0.282068
-0.283005
-0.284015
-0.285101
-0.286263
-0.287502
-0.288822
-0.290244
-0.291787
-0.293383
-0.294768
-0.295605
-0.293998
-0.276594
-0.276785
-0.277036
-0.277329
-0.277667
-0.278055
-0.278496
-0.278989
-0.279537
-0.280142
-0.280803
-0.281523
-0.282303
-0.283144
-0.284048
-0.285015
-0.286048
-0.287146
-0.288313
-0.28957
-0.290939
-0.29235
-0.293532
-0.294307
-0.293931
-0.2767
-0.276904
-0.277164
-0.277455
-0.277781
-0.278147
-0.278555
-0.279006
-0.279501
-0.28004
-0.280626
-0.281259
-0.28194
-0.28267
-0.28345
-0.284282
-0.285165
-0.2861
-0.28709
-0.288156
-0.289317
-0.290504
-0.291431
-0.291916
-0.292473
-0.276409
-0.276624
-0.276889
-0.277174
-0.277483
-0.277821
-0.27819
-0.27859
-0.279023
-0.27949
-0.27999
-0.280525
-0.281096
-0.281703
-0.282347
-0.283028
-0.283748
-0.284507
-0.285307
-0.286168
-0.287113
-0.288072
-0.288749
-0.288804
-0.289486
-0.275833
-0.276057
-0.276323
-0.276597
-0.276884
-0.277188
-0.277512
-0.277856
-0.27822
-0.278605
-0.279012
-0.27944
-0.279891
-0.280365
-0.280862
-0.281385
-0.281933
-0.282506
-0.283108
-0.283761
-0.284486
-0.285215
-0.285647
-0.28525
-0.285421
-0.275093
-0.275322
-0.275584
-0.275844
-0.276104
-0.276369
-0.276642
-0.276922
-0.27721
-0.277506
-0.27781
-0.278122
-0.278443
-0.278772
-0.279112
-0.279461
-0.27982
-0.280191
-0.280574
-0.280993
-0.281469
-0.281931
-0.282074
-0.281228
-0.281047
-0.27431
-0.274541
-0.274796
-0.275037
-0.275265
-0.275487
-0.275704
-0.275915
-0.276121
-0.276322
-0.276516
-0.276705
-0.276888
-0.277065
-0.277237
-0.277403
-0.277564
-0.277721
-0.277875
-0.278048
-0.278263
-0.278449
-0.278293
-0.277117
-0.277286
-0.273612
-0.273841
-0.274085
-0.274303
-0.274497
-0.274671
-0.274828
-0.274967
-0.275086
-0.275187
-0.275268
-0.275328
-0.275369
-0.275388
-0.275387
-0.275365
-0.275322
-0.275258
-0.275174
-0.275092
-0.275036
-0.274928
-0.274452
-0.273085
-0.274158
-0.273126
-0.27335
-0.27358
-0.273772
-0.273927
-0.274051
-0.274145
-0.274209
-0.27424
-0.274239
-0.274204
-0.274135
-0.274031
-0.273892
-0.273717
-0.273506
-0.273257
-0.272971
-0.272648
-0.272309
-0.271977
-0.271573
-0.270768
-0.269311
-0.271491
-0.272977
-0.273192
-0.273405
-0.273567
-0.273683
-0.273755
-0.273786
-0.273773
-0.273716
-0.273613
-0.273464
-0.273267
-0.273022
-0.272727
-0.272383
-0.271987
-0.271539
-0.271039
-0.270487
-0.269905
-0.269314
-0.268634
-0.26753
-0.265948
-0.268891
-0.273284
-0.273488
-0.273679
-0.273811
-0.273885
-0.273904
-0.273871
-0.273783
-0.27364
-0.273438
-0.273178
-0.272857
-0.272476
-0.272031
-0.271524
-0.270953
-0.270316
-0.269612
-0.268844
-0.268032
-0.267197
-0.266257
-0.264874
-0.262952
-0.265819
-0.27416
-0.274348
-0.274516
-0.274614
-0.274645
-0.274612
-0.274516
-0.274355
-0.274126
-0.27383
-0.273463
-0.273024
-0.272513
-0.271927
-0.271266
-0.270528
-0.269713
-0.268818
-0.267846
-0.266817
-0.265755
-0.264573
-0.262928
-0.260487
-0.262738
-0.275703
-0.275873
-0.276013
-0.276077
-0.276064
-0.275979
-0.275822
-0.27559
-0.275281
-0.274894
-0.274426
-0.273876
-0.273243
-0.272524
-0.271719
-0.270826
-0.269845
-0.268772
-0.267611
-0.266382
-0.265108
-0.263701
-0.261814
-0.258885
-0.2607
-0.278003
-0.278152
-0.278262
-0.27829
-0.278234
-0.278098
-0.277882
-0.277583
-0.277199
-0.276727
-0.276167
-0.275515
-0.274769
-0.273929
-0.272992
-0.271958
-0.270823
-0.269587
-0.268251
-0.266836
-0.265362
-0.263741
-0.261618
-0.25837
-0.260281
-0.281135
-0.281259
-0.281338
-0.281329
-0.281231
-0.281047
-0.280776
-0.280416
-0.279964
-0.279417
-0.278773
-0.27803
-0.277186
-0.276239
-0.275187
-0.274028
-0.272759
-0.27138
-0.26989
-0.268311
-0.266662
-0.26485
-0.262511
-0.25916
-0.26154
-0.285157
-0.285255
-0.285301
-0.285256
-0.285118
-0.28489
-0.28457
-0.284156
-0.283644
-0.283033
-0.282319
-0.281501
-0.280575
-0.27954
-0.278394
-0.277134
-0.275758
-0.274264
-0.272652
-0.270944
-0.269159
-0.267202
-0.264704
-0.26107
-0.264222
-0.290113
-0.290182
-0.290194
-0.290114
-0.289939
-0.289671
-0.289309
-0.28885
-0.28829
-0.287627
-0.286859
-0.285981
-0.284993
-0.283891
-0.282673
-0.281337
-0.279881
-0.2783
-0.276596
-0.274789
-0.272898
-0.270831
-0.268218
-0.264155
-0.267933
-0.296018
-0.296057
-0.296036
-0.295921
-0.295713
-0.295412
-0.295018
-0.294524
-0.29393
-0.293231
-0.292424
-0.291508
-0.290479
-0.289334
-0.288071
-0.286687
-0.285179
-0.283542
-0.281777
-0.279903
-0.277939
-0.275796
-0.273098
-0.269416
-0.272403
-0.302872
-0.30288
-0.302824
-0.302681
-0.302448
-0.302124
-0.301705
-0.301189
-0.300573
-0.299855
-0.299032
-0.2981
-0.297057
-0.2959
-0.294626
-0.293233
-0.291717
-0.290073
-0.288301
-0.286412
-0.284434
-0.282296
-0.279609
-0.276609
-0.278077
-0.310656
-0.310634
-0.310548
-0.310379
-0.310123
-0.30978
-0.309346
-0.30882
-0.308198
-0.307478
-0.306657
-0.305732
-0.304702
-0.303563
-0.302313
-0.300951
-0.299473
-0.297878
-0.296165
-0.294356
-0.29247
-0.290421
-0.287847
-0.285049
-0.284761
-0.319323
-0.319271
-0.319155
-0.318962
-0.318689
-0.318335
-0.317897
-0.317372
-0.316758
-0.316051
-0.31525
-0.314352
-0.313355
-0.312256
-0.311055
-0.309749
-0.308336
-0.306814
-0.305187
-0.303475
-0.301696
-0.299757
-0.297309
-0.29441
-0.292534
-0.328805
-0.328724
-0.32858
-0.328368
-0.328085
-0.327728
-0.327295
-0.326782
-0.326188
-0.325509
-0.324745
-0.323891
-0.322946
-0.321909
-0.320776
-0.319546
-0.318218
-0.316787
-0.315257
-0.313648
-0.311973
-0.310134
-0.307783
-0.30485
-0.301939
-0.33902
-0.338911
-0.338742
-0.338516
-0.338229
-0.337877
-0.337459
-0.33697
-0.336409
-0.335774
-0.335062
-0.334271
-0.333399
-0.332444
-0.331404
-0.330276
-0.329058
-0.327748
-0.326346
-0.324872
-0.323337
-0.321638
-0.319435
-0.316595
-0.313435
-0.349868
-0.349733
-0.349544
-0.349309
-0.349024
-0.348686
-0.348291
-0.347838
-0.347325
-0.346748
-0.346106
-0.345398
-0.34462
-0.343771
-0.342849
-0.341851
-0.340776
-0.33962
-0.338384
-0.337086
-0.335738
-0.334233
-0.332241
-0.329613
-0.326631
-0.361232
-0.361074
-0.360868
-0.360629
-0.360354
-0.360038
-0.359678
-0.359273
-0.358819
-0.358316
-0.357762
-0.357155
-0.356492
-0.355773
-0.354995
-0.354156
-0.353253
-0.352285
-0.351253
-0.350175
-0.34906
-0.347801
-0.346078
-0.343792
-0.341416
-0.37298
-0.372802
-0.372584
-0.372347
-0.372088
-0.371803
-0.371487
-0.37114
-0.37076
-0.370346
-0.369895
-0.369407
-0.368879
-0.368311
-0.367701
-0.367047
-0.366347
-0.365599
-0.364805
-0.363982
-0.363141
-0.362173
-0.360769
-0.358926
-0.357257
-0.384965
-0.384771
-0.384545
-0.384316
-0.38408
-0.383832
-0.38357
-0.383291
-0.382996
-0.382682
-0.382349
-0.381995
-0.38162
-0.381222
-0.3808
-0.380352
-0.379878
-0.379375
-0.378847
-0.378312
-0.377778
-0.377142
-0.376105
-0.374776
-0.373564
-0.397031
-0.396824
-0.396594
-0.396378
-0.396171
-0.395968
-0.395766
-0.395565
-0.395363
-0.39516
-0.394955
-0.394748
-0.394538
-0.394323
-0.394103
-0.393878
-0.393645
-0.393405
-0.39316
-0.392927
-0.392716
-0.392423
-0.391762
-0.390887
-0.389558
-0.409011
-0.408795
-0.408567
-0.408367
-0.408194
-0.408041
-0.407906
-0.407788
-0.407687
-0.407602
-0.407533
-0.407481
-0.407443
-0.407421
-0.407414
-0.407421
-0.407442
-0.407477
-0.407529
-0.407617
-0.407748
-0.407824
-0.407576
-0.407098
-0.405262
-0.420737
-0.420515
-0.420292
-0.420115
-0.41998
-0.419881
-0.419817
-0.419787
-0.419791
-0.419829
-0.419901
-0.420008
-0.420149
-0.420324
-0.420533
-0.420775
-0.421052
-0.421361
-0.421706
-0.422105
-0.422564
-0.422983
-0.423104
-0.422892
-0.420463
-0.432038
-0.431815
-0.431602
-0.431451
-0.431358
-0.431317
-0.431327
-0.431387
-0.431499
-0.431663
-0.431879
-0.432147
-0.432469
-0.432844
-0.433273
-0.433756
-0.434294
-0.434887
-0.43554
-0.43627
-0.437085
-0.437886
-0.438432
-0.438607
-0.436057
-0.442751
-0.44253
-0.442332
-0.442209
-0.442161
-0.44218
-0.442266
-0.442418
-0.442638
-0.442926
-0.443284
-0.443713
-0.444211
-0.444782
-0.445425
-0.446141
-0.446931
-0.447795
-0.448738
-0.44978
-0.450928
-0.452088
-0.453032
-0.453634
-0.451213
-0.452715
-0.452501
-0.452321
-0.452231
-0.452229
-0.452309
-0.45247
-0.452714
-0.45304
-0.453452
-0.453949
-0.454533
-0.455205
-0.455966
-0.456818
-0.457761
-0.458795
-0.459922
-0.461144
-0.46248
-0.463933
-0.465407
-0.466677
-0.467628
-0.465236
-0.461784
-0.461581
-0.461424
-0.461368
-0.461413
-0.461553
-0.461787
-0.462118
-0.462546
-0.463073
-0.463702
-0.464433
-0.465268
-0.466209
-0.467257
-0.468415
-0.469684
-0.471066
-0.472565
-0.474202
-0.475983
-0.477817
-0.479492
-0.480944
-0.478689
-0.469826
-0.469639
-0.469506
-0.469485
-0.469577
-0.469775
-0.470079
-0.47049
-0.471012
-0.471646
-0.472394
-0.473258
-0.474239
-0.47534
-0.476563
-0.477909
-0.479382
-0.480983
-0.482718
-0.484609
-0.486666
-0.488803
-0.490816
-0.492634
-0.490752
-0.476728
-0.476559
-0.476454
-0.47647
-0.476606
-0.476858
-0.477226
-0.477712
-0.478318
-0.479047
-0.479901
-0.480882
-0.481993
-0.483235
-0.484611
-0.486123
-0.487774
-0.489565
-0.491503
-0.493606
-0.495882
-0.498241
-0.500473
-0.502374
-0.500642
-0.482399
-0.482251
-0.482174
-0.482225
-0.482403
-0.482703
-0.483128
-0.483678
-0.484356
-0.485166
-0.486108
-0.487187
-0.488403
-0.48976
-0.491259
-0.492904
-0.494696
-0.496637
-0.498731
-0.501
-0.503448
-0.505989
-0.508411
-0.510374
-0.508087
-0.486766
-0.486642
-0.486595
-0.486678
-0.486893
-0.487236
-0.487707
-0.488309
-0.489045
-0.489918
-0.490929
-0.492083
-0.49338
-0.494826
-0.496421
-0.49817
-0.500075
-0.50214
-0.504372
-0.506794
-0.509416
-0.512159
-0.514818
-0.516996
-0.514383
-0.489787
-0.489687
-0.48967
-0.489784
-0.490031
-0.490407
-0.490914
-0.491555
-0.492332
-0.493248
-0.494306
-0.495509
-0.496859
-0.49836
-0.500016
-0.501828
-0.503801
-0.505938
-0.508246
-0.510748
-0.513455
-0.51629
-0.519037
-0.521255
-0.518452
-0.491444
-0.491371
-0.491382
-0.491523
-0.491795
-0.492196
-0.492727
-0.493391
-0.494191
-0.495129
-0.496209
-0.497432
-0.498802
-0.500322
-0.501994
-0.503821
-0.505806
-0.507952
-0.510264
-0.512764
-0.515467
-0.518293
-0.52101
-0.523172
-0.520519
-0.49175
-0.491704
-0.491743
-0.491908
-0.492199
-0.492615
-0.493158
-0.49383
-0.494635
-0.495575
-0.496652
-0.497871
-0.499233
-0.500741
-0.502398
-0.504208
-0.506172
-0.508293
-0.510574
-0.513039
-0.515702
-0.518487
-0.521124
-0.523045
-0.520489
-0.49075
-0.490732
-0.490798
-0.490982
-0.491284
-0.491705
-0.492246
-0.49291
-0.493701
-0.494621
-0.495673
-0.496859
-0.498183
-0.499648
-0.501257
-0.503014
-0.504922
-0.506986
-0.509214
-0.51163
-0.514257
-0.517072
-0.519788
-0.520931
-0.518031
-0.488515
-0.488525
-0.488615
-0.488811
-0.489115
-0.48953
-0.490057
-0.490697
-0.491455
-0.492332
-0.493331
-0.494455
-0.495707
-0.497088
-0.498603
-0.500255
-0.502046
-0.503979
-0.50606
-0.508312
-0.51075
-0.513298
-0.515665
-0.516928
-0.51372
-0.485145
-0.48518
-0.485289
-0.485493
-0.485794
-0.486193
-0.486692
-0.487293
-0.487999
-0.488812
-0.489733
-0.490766
-0.491914
-0.493178
-0.494561
-0.496065
-0.497695
-0.499451
-0.501341
-0.503386
-0.505602
-0.507914
-0.510068
-0.511548
-0.507587
-0.480769
-0.480828
-0.480956
-0.481163
-0.481452
-0.481825
-0.482283
-0.48283
-0.483466
-0.484194
-0.485015
-0.485933
-0.486949
-0.488065
-0.489284
-0.490607
-0.492037
-0.493577
-0.495231
-0.497023
-0.498968
-0.50099
-0.502838
-0.504579
-0.500505
-0.475544
-0.475626
-0.475767
-0.475971
-0.476241
-0.476577
-0.476984
-0.477462
-0.478013
-0.478639
-0.479342
-0.480123
-0.480983
-0.481925
-0.48295
-0.48406
-0.485256
-0.486539
-0.487913
-0.4894
-0.491011
-0.49267
-0.494111
-0.495387
-0.492174
-0.469638
-0.46974
-0.469892
-0.470087
-0.47033
-0.470623
-0.470968
-0.471367
-0.47182
-0.47233
-0.472897
-0.473524
-0.47421
-0.474957
-0.475768
-0.476642
-0.477581
-0.478587
-0.479663
-0.480831
-0.482108
-0.483414
-0.484478
-0.485162
-0.483003
-0.46324
-0.463359
-0.463516
-0.463698
-0.463908
-0.46415
-0.464425
-0.464735
-0.46508
-0.465462
-0.465881
-0.466338
-0.466835
-0.467371
-0.467949
-0.468569
-0.469233
-0.469939
-0.470694
-0.471518
-0.472429
-0.473346
-0.473985
-0.474207
-0.47257
-0.456549
-0.456681
-0.456839
-0.457002
-0.457174
-0.457358
-0.457556
-0.457768
-0.457996