/*--------------------------------*- C++ -*----------------------------------*\
| =========                 |                                                 |
| \\      /  F ield         | OpenFOAM: The Open Source CFD Toolbox           |
|  \\    /   O peration     | Version:  2.4.0                                 |
|   \\  /    A nd           | Web:      www.OpenFOAM.org                      |
|    \\/     M anipulation  |                                                 |
\*---------------------------------------------------------------------------*/
FoamFile
{
    version     2.0;
    format      ascii;
    class       volScalarField;
    location    "0.01";
    object      p_rgh;
}
// * * * * * * * * * * * * * * * * * * * * * * * * * * * * * * * * * * * * * //

dimensions      [1 -1 -2 0 0 0 0];

internalField   nonuniform List<scalar> 
25915
(
0.0427953
0.0426574
0.042556
0.0424654
0.0423548
0.0422076
0.0420133
0.0417623
0.0414451
0.0410539
0.0405788
0.0400069
0.0393237
0.0385123
0.0375527
0.0364293
0.0351419
0.0336563
0.0319377
0.0299331
0.0276022
0.024932
0.0218405
0.0140479
0.0397266
0.124337
0.124255
0.124106
0.12391
0.123668
0.123377
0.123035
0.122637
0.12218
0.121655
0.121051
0.120356
0.119557
0.118637
0.11757
0.11632
0.11488
0.113221
0.111276
0.108978
0.106254
0.103008
0.0992548
0.0951316
0.104516
0.207574
0.207548
0.207455
0.207276
0.207013
0.206662
0.20622
0.205686
0.205056
0.204327
0.203493
0.202546
0.20148
0.200287
0.198959
0.197481
0.195817
0.193973
0.191976
0.189792
0.187391
0.184857
0.182485
0.180046
0.164544
0.291522
0.291544
0.291482
0.291303
0.29101
0.290611
0.290111
0.28951
0.288804
0.28799
0.287064
0.286023
0.284863
0.283579
0.282166
0.280618
0.278932
0.277101
0.275116
0.272948
0.270596
0.268195
0.266064
0.261364
0.223741
0.376962
0.377016
0.376983
0.376821
0.376533
0.376124
0.375601
0.37496
0.374197
0.373313
0.372308
0.371179
0.369925
0.368543
0.367031
0.365387
0.36361
0.361701
0.359658
0.35746
0.355106
0.352703
0.350499
0.34429
0.291788
0.463746
0.463822
0.463807
0.463654
0.463368
0.462952
0.462408
0.461736
0.46094
0.460018
0.458966
0.457784
0.456469
0.455019
0.453433
0.451707
0.44984
0.447831
0.445676
0.443354
0.440853
0.438239
0.435726
0.428995
0.369571
0.55207
0.552157
0.552153
0.552008
0.551725
0.551308
0.550759
0.550078
0.549265
0.548318
0.547237
0.546018
0.54466
0.54316
0.541515
0.539722
0.537779
0.53568
0.533403
0.530918
0.528231
0.525394
0.522595
0.515417
0.452722
0.641879
0.641969
0.641968
0.641827
0.641546
0.64113
0.640582
0.639899
0.639082
0.638129
0.637039
0.635809
0.634438
0.632921
0.631257
0.629441
0.627469
0.625334
0.623016
0.620482
0.617726
0.614793
0.61187
0.604288
0.537134
0.733197
0.733285
0.733284
0.733145
0.73287
0.732461
0.731921
0.731248
0.730442
0.729503
0.728427
0.727215
0.725865
0.724375
0.722743
0.720967
0.719045
0.716974
0.71475
0.712347
0.709748
0.707022
0.704415
0.696255
0.621064
0.825967
0.82605
0.826046
0.825909
0.825639
0.82524
0.824713
0.824057
0.823272
0.822357
0.821311
0.820133
0.818823
0.81738
0.815801
0.814088
0.812238
0.810253
0.808128
0.805845
0.803392
0.800849
0.798481
0.789732
0.704886
0.920146
0.920222
0.920214
0.920079
0.919816
0.919429
0.918919
0.918286
0.917528
0.916645
0.915637
0.914503
0.913243
0.911856
0.910343
0.908701
0.906933
0.905039
0.903015
0.900846
0.898522
0.896122
0.89388
0.884055
0.791687
1.01567
1.01574
1.01572
1.01559
1.01534
1.01496
1.01447
1.01387
1.01314
1.01229
1.01133
1.01024
1.00904
1.00771
1.00626
1.00469
1.003
1.00118
0.999231
0.997136
0.994878
0.99253
0.990282
0.978502
0.878948
1.11247
1.11253
1.11251
1.11238
1.11213
1.11178
1.11131
1.11073
1.11004
1.10924
1.10833
1.1073
1.10616
1.1049
1.10353
1.10204
1.10043
1.0987
1.09685
1.09486
1.0927
1.09045
1.08827
1.07523
0.967816
1.21046
1.21051
1.21049
1.21036
1.21013
1.20979
1.20936
1.20881
1.20817
1.20742
1.20656
1.2056
1.20454
1.20336
1.20208
1.2007
1.1992
1.19759
1.19587
1.19402
1.19202
1.18993
1.18792
1.17448
1.05974
1.30957
1.30961
1.30958
1.30946
1.30924
1.30892
1.30851
1.30801
1.30741
1.30672
1.30593
1.30504
1.30406
1.30298
1.30181
1.30054
1.29917
1.2977
1.29614
1.29446
1.29265
1.2908
1.28905
1.27519
1.15402
1.40968
1.40971
1.40968
1.40956
1.40935
1.40906
1.40868
1.40822
1.40767
1.40704
1.40632
1.40551
1.40462
1.40364
1.40257
1.40141
1.40018
1.39886
1.39745
1.39594
1.39433
1.39269
1.39123
1.37739
1.25181
1.5107
1.51072
1.51068
1.51057
1.51037
1.51011
1.50977
1.50935
1.50885
1.50828
1.50763
1.5069
1.50609
1.5052
1.50423
1.50318
1.50205
1.50083
1.49952
1.49811
1.49657
1.49497
1.49348
1.48
1.35351
1.61252
1.61252
1.61248
1.61237
1.6122
1.61196
1.61166
1.61129
1.61085
1.61035
1.60977
1.60913
1.60842
1.60764
1.60678
1.60585
1.60484
1.60374
1.60256
1.60126
1.59981
1.59826
1.59673
1.58308
1.4535
1.71502
1.71501
1.71497
1.71487
1.71472
1.71451
1.71425
1.71394
1.71358
1.71316
1.71268
1.71215
1.71157
1.71093
1.71024
1.70949
1.70869
1.70783
1.70691
1.70591
1.70481
1.70367
1.70263
1.68662
1.54425
1.81807
1.81806
1.818
1.81792
1.81779
1.81762
1.81741
1.81716
1.81686
1.81653
1.81616
1.81575
1.81531
1.81482
1.81431
1.81375
1.81317
1.81256
1.81192
1.81123
1.81049
1.80979
1.80934
1.79132
1.63283
1.92153
1.9215
1.92145
1.92137
1.92126
1.92112
1.92096
1.92076
1.92054
1.92029
1.92001
1.91971
1.91938
1.91902
1.91865
1.91824
1.91782
1.91738
1.91692
1.91643
1.91589
1.91539
1.9151
1.89885
1.73003
2.02527
2.02523
2.02517
2.0251
2.02502
2.02491
2.02479
2.02466
2.0245
2.02433
2.02414
2.02393
2.02371
2.02348
2.02323
2.02297
2.0227
2.02241
2.02212
2.02179
2.02142
2.02108
2.02094
2.0057
1.83396
2.12917
2.12912
2.12907
2.12901
2.12895
2.12888
2.1288
2.12872
2.12863
2.12854
2.12844
2.12833
2.12823
2.12812
2.128
2.12789
2.12777
2.12766
2.12755
2.12742
2.12726
2.12715
2.12729
2.10995
1.93667
2.23311
2.23306
2.233
2.23296
2.23292
2.23288
2.23285
2.23282
2.2328
2.23278
2.23276
2.23275
2.23275
2.23275
2.23276
2.23277
2.23279
2.23282
2.23285
2.23287
2.23285
2.23288
2.23315
2.2148
2.04189
2.33698
2.33692
2.33687
2.33684
2.33683
2.33683
2.33684
2.33687
2.33691
2.33696
2.33703
2.33712
2.33722
2.33734
2.33746
2.33761
2.33776
2.33793
2.3381
2.33827
2.33839
2.33854
2.33892
2.32087
2.14969
2.44067
2.44061
2.44057
2.44055
2.44057
2.4406
2.44067
2.44075
2.44087
2.44101
2.44118
2.44137
2.44159
2.44184
2.44211
2.44242
2.44274
2.4431
2.44348
2.44387
2.44422
2.44462
2.44529
2.42708
2.24948
2.54407
2.54401
2.54398
2.54398
2.54402
2.5441
2.54421
2.54436
2.54455
2.54477
2.54504
2.54534
2.54568
2.54606
2.54648
2.54695
2.54745
2.548
2.54858
2.5492
2.54981
2.55047
2.5514
2.5323
2.34331
2.64706
2.64701
2.64698
2.64701
2.64708
2.6472
2.64736
2.64758
2.64784
2.64815
2.64851
2.64892
2.64939
2.6499
2.65047
2.65109
2.65176
2.65249
2.65327
2.65408
2.6549
2.65578
2.65694
2.63649
2.43599
2.74954
2.74949
2.74948
2.74952
2.74963
2.74979
2.75001
2.75029
2.75063
2.75102
2.75148
2.752
2.75258
2.75323
2.75394
2.75472
2.75557
2.75648
2.75746
2.75848
2.75953
2.76067
2.76212
2.74017
2.52906
2.85139
2.85135
2.85135
2.85142
2.85156
2.85177
2.85204
2.85238
2.85279
2.85327
2.85382
2.85444
2.85514
2.85591
2.85675
2.85767
2.85867
2.85974
2.86089
2.8621
2.86333
2.86467
2.86631
2.84338
2.62515
2.95253
2.95249
2.95251
2.9526
2.95277
2.95302
2.95334
2.95374
2.95422
2.95478
2.95542
2.95614
2.95695
2.95785
2.95883
2.9599
2.96106
2.96232
2.96366
2.96509
2.96657
2.96819
2.97018
2.94691
2.72156
3.05284
3.05282
3.05285
3.05296
3.05316
3.05345
3.05382
3.05427
3.05481
3.05544
3.05616
3.05697
3.05788
3.05888
3.05998
3.06119
3.06249
3.06391
3.06543
3.06704
3.06872
3.07059
3.07286
3.05015
2.82135
3.15225
3.15223
3.15227
3.15241
3.15263
3.15295
3.15335
3.15385
3.15444
3.15512
3.1559
3.15677
3.15775
3.15882
3.16
3.16128
3.16267
3.16417
3.16577
3.16747
3.16925
3.1712
3.17355
3.15174
2.92529
3.25069
3.25067
3.25073
3.25088
3.25112
3.25146
3.2519
3.25243
3.25305
3.25378
3.25461
3.25553
3.25656
3.2577
3.25894
3.2603
3.26176
3.26334
3.26503
3.26682
3.26869
3.27075
3.27322
3.25159
3.02318
3.3481
3.34809
3.34816
3.34832
3.34858
3.34894
3.3494
3.34996
3.35061
3.35137
3.35223
3.3532
3.35427
3.35544
3.35673
3.35813
3.35964
3.36126
3.36299
3.36482
3.36672
3.3688
3.37127
3.3487
3.11526
3.44445
3.44446
3.44453
3.44471
3.44498
3.44535
3.44583
3.4464
3.44707
3.44785
3.44873
3.44971
3.45081
3.45201
3.45331
3.45473
3.45626
3.45791
3.45966
3.4615
3.46342
3.46552
3.46799
3.444
3.20353
3.53974
3.53975
3.53984
3.54002
3.54031
3.54069
3.54118
3.54176
3.54245
3.54324
3.54413
3.54514
3.54625
3.54747
3.5488
3.55024
3.55181
3.55349
3.55528
3.55718
3.55916
3.56134
3.56391
3.53835
3.2868
3.63396
3.63398
3.63408
3.63428
3.63458
3.63497
3.63546
3.63605
3.63674
3.63753
3.63843
3.63943
3.64054
3.64176
3.64309
3.64453
3.64608
3.64775
3.64954
3.65142
3.65338
3.65553
3.65805
3.63114
3.3709
3.72713
3.72717
3.72729
3.7275
3.7278
3.72819
3.72868
3.72927
3.72996
3.73074
3.73163
3.73261
3.7337
3.7349
3.73621
3.73762
3.73914
3.74077
3.74251
3.74435
3.74626
3.74834
3.75077
3.72274
3.45479
3.81931
3.81937
3.8195
3.81971
3.82002
3.82042
3.8209
3.82148
3.82215
3.82292
3.82379
3.82475
3.82581
3.82698
3.82825
3.82962
3.8311
3.83269
3.8344
3.83619
3.83807
3.84013
3.84254
3.81375
3.53752
3.91054
3.91061
3.91076
3.91098
3.91129
3.91168
3.91216
3.91272
3.91337
3.91411
3.91494
3.91586
3.91688
3.91799
3.91919
3.9205
3.9219
3.92341
3.92501
3.9267
3.92846
3.93039
3.93265
3.90345
3.62313
4.00089
4.00098
4.00114
4.00137
4.00167
4.00205
4.00251
4.00305
4.00367
4.00437
4.00515
4.00602
4.00696
4.008
4.00912
4.01032
4.01161
4.01298
4.01444
4.01597
4.01753
4.01924
4.02121
3.99148
3.70845
4.09044
4.09054
4.09071
4.09094
4.09124
4.09161
4.09205
4.09256
4.09314
4.09379
4.09452
4.09532
4.0962
4.09715
4.09818
4.09929
4.10047
4.10173
4.10307
4.10446
4.10589
4.10746
4.10928
4.07876
3.7905
4.17927
4.17938
4.17956
4.17979
4.18007
4.18042
4.18084
4.18131
4.18185
4.18245
4.18311
4.18385
4.18464
4.18551
4.18644
4.18744
4.18851
4.18965
4.19086
4.19213
4.19343
4.19488
4.1966
4.16508
3.87028
4.26746
4.26758
4.26776
4.26798
4.26825
4.26858
4.26895
4.26939
4.26987
4.27041
4.271
4.27165
4.27235
4.27311
4.27393
4.2748
4.27573
4.27672
4.27778
4.27887
4.28
4.28126
4.28276
4.24994
3.94747
4.35511
4.35523
4.3554
4.35561
4.35586
4.35616
4.3565
4.35688
4.3573
4.35777
4.35828
4.35883
4.35943
4.36007
4.36075
4.36149
4.36227
4.36309
4.36396
4.36487
4.36578
4.36681
4.36806
4.33376
4.02239
4.4423
4.44242
4.44259
4.44278
4.44301
4.44327
4.44356
4.44388
4.44423
4.44462
4.44504
4.44549
4.44598
4.44649
4.44704
4.44762
4.44824
4.44889
4.44957
4.45027
4.45096
4.45176
4.45274
4.41693
4.09556
4.52914
4.52926
4.52942
4.52959
4.52979
4.53001
4.53024
4.5305
4.53079
4.53109
4.53141
4.53175
4.53212
4.5325
4.5329
4.53333
4.53378
4.53424
4.53473
4.53523
4.53571
4.53629
4.53701
4.49979
4.16833
4.61574
4.61586
4.616
4.61616
4.61632
4.61649
4.61667
4.61687
4.61707
4.61728
4.6175
4.61773
4.61797
4.61821
4.61847
4.61873
4.619
4.61928
4.61957
4.61986
4.62013
4.62048
4.62096
4.58256
4.24171
4.70222
4.70233
4.70246
4.70259
4.70272
4.70284
4.70297
4.70309
4.70321
4.70333
4.70345
4.70356
4.70366
4.70376
4.70386
4.70395
4.70403
4.70411
4.70418
4.70423
4.70424
4.7043
4.70446
4.66495
4.3152
4.78869
4.7888
4.78892
4.78902
4.78911
4.78919
4.78925
4.78931
4.78934
4.78937
4.78938
4.78937
4.78934
4.78929
4.78923
4.78915
4.78905
4.78893
4.78878
4.7886
4.78836
4.78816
4.78801
4.7475
4.38853
4.87529
4.8754
4.8755
4.87558
4.87563
4.87565
4.87566
4.87564
4.87559
4.87552
4.87542
4.8753
4.87514
4.87495
4.87473
4.87448
4.8742
4.87389
4.87354
4.87315
4.87269
4.87226
4.87185
4.83035
4.46101
4.96214
4.96223
4.96232
4.96237
4.96238
4.96236
4.96231
4.96222
4.96209
4.96192
4.96172
4.96147
4.96119
4.96086
4.96049
4.96007
4.95961
4.95911
4.95856
4.95795
4.95726
4.95658
4.95588
4.9132
4.53219
5.04934
5.04943
5.0495
5.04952
5.0495
5.04943
5.04931
5.04915
5.04894
5.04869
5.04838
5.04802
5.04761
5.04714
5.04662
5.04605
5.04542
5.04473
5.04398
5.04316
5.04224
5.04132
5.04034
4.99648
4.6033
5.13702
5.1371
5.13715
5.13714
5.13708
5.13696
5.13678
5.13656
5.13627
5.13593
5.13552
5.13505
5.13452
5.13392
5.13326
5.13254
5.13174
5.13088
5.12995
5.12893
5.1278
5.12665
5.12543
5.08046
4.6751
5.22528
5.22534
5.22536
5.22532
5.22522
5.22505
5.22482
5.22453
5.22417
5.22374
5.22324
5.22267
5.22202
5.2213
5.22051
5.21964
5.21869
5.21767
5.21657
5.21537
5.21406
5.2127
5.21125
5.16538
4.74795
5.31419
5.31423
5.31423
5.31416
5.31402
5.3138
5.31352
5.31316
5.31273
5.31222
5.31164
5.31097
5.31022
5.30938
5.30846
5.30745
5.30635
5.30516
5.30388
5.3025
5.30098
5.29937
5.29761
5.2511
4.82148
5.40383
5.40385
5.40382
5.40372
5.40354
5.40329
5.40295
5.40254
5.40205
5.40147
5.4008
5.40005
5.3992
5.39826
5.39723
5.3961
5.39486
5.39353
5.39208
5.39051
5.38879
5.38697
5.38499
5.33702
4.89565
5.49426
5.49426
5.49421
5.49407
5.49386
5.49356
5.49319
5.49273
5.49218
5.49154
5.49081
5.48999
5.48907
5.48805
5.48693
5.48571
5.48438
5.48294
5.48138
5.47968
5.47783
5.47587
5.47371
5.42394
4.9716
5.58553
5.5855
5.58542
5.58525
5.58501
5.58468
5.58427
5.58377
5.58318
5.5825
5.58172
5.58085
5.57988
5.57881
5.57763
5.57635
5.57497
5.57347
5.57187
5.57013
5.56824
5.56626
5.56408
5.513
5.04806
5.67764
5.6776
5.67748
5.67729
5.67702
5.67666
5.67621
5.67568
5.67506
5.67435
5.67354
5.67263
5.67163
5.67053
5.66932
5.66801
5.66659
5.66507
5.66344
5.66168
5.65979
5.65781
5.65564
5.60394
5.12539
5.77062
5.77055
5.77041
5.77019
5.76989
5.76951
5.76904
5.76849
5.76784
5.76711
5.76628
5.76535
5.76433
5.7632
5.76198
5.76065
5.75922
5.75768
5.75604
5.75427
5.75236
5.75037
5.74818
5.6958
5.20509
5.86444
5.86435
5.86418
5.86394
5.86362
5.86322
5.86274
5.86217
5.86151
5.86077
5.85993
5.859
5.85797
5.85684
5.85561
5.85428
5.85285
5.85131
5.84967
5.8479
5.84597
5.84395
5.84171
5.78845
5.28758
5.9591
5.95899
5.9588
5.95854
5.95821
5.95779
5.9573
5.95673
5.95607
5.95532
5.95449
5.95356
5.95255
5.95144
5.95023
5.94892
5.94752
5.94601
5.94439
5.94266
5.94077
5.93879
5.93658
5.8826
5.37239
6.05456
6.05443
6.05422
6.05394
6.0536
6.05318
6.05269
6.05212
6.05148
6.05075
6.04993
6.04904
6.04805
6.04698
6.04581
6.04456
6.04321
6.04176
6.04022
6.03855
6.03675
6.03485
6.03272
5.97797
5.45791
6.15077
6.15062
6.15039
6.15011
6.14976
6.14935
6.14886
6.14831
6.14768
6.14698
6.14621
6.14535
6.14442
6.1434
6.14231
6.14112
6.13985
6.1385
6.13705
6.13548
6.13379
6.132
6.12999
6.07439
5.54399
6.24766
6.24749
6.24725
6.24696
6.24661
6.24621
6.24575
6.24522
6.24462
6.24397
6.24324
6.24245
6.24158
6.24064
6.23963
6.23855
6.23739
6.23615
6.23483
6.23341
6.23186
6.23024
6.22841
6.1719
5.6311
6.34516
6.34497
6.34471
6.34442
6.34408
6.34369
6.34325
6.34276
6.34221
6.34161
6.34095
6.34023
6.33945
6.33861
6.3377
6.33673
6.3357
6.3346
6.33344
6.33218
6.33081
6.32937
6.32774
6.27037
5.7192
6.44315
6.44295
6.44269
6.44239
6.44207
6.4417
6.4413
6.44084
6.44035
6.43981
6.43922
6.43859
6.43791
6.43718
6.4364
6.43557
6.43469
6.43375
6.43276
6.43169
6.43053
6.42932
6.42793
6.3699
5.80907
6.54154
6.54133
6.54106
6.54078
6.54047
6.54013
6.53976
6.53936
6.53893
6.53846
6.53796
6.53742
6.53685
6.53625
6.5356
6.53492
6.5342
6.53344
6.53264
6.53178
6.53084
6.52985
6.52871
6.47012
5.90084
6.64022
6.63999
6.63973
6.63945
6.63917
6.63886
6.63854
6.63819
6.63783
6.63744
6.63704
6.63661
6.63616
6.63569
6.63519
6.63467
6.63412
6.63354
6.63294
6.63229
6.63156
6.63081
6.6299
6.57075
5.99393
6.73906
6.73883
6.73857
6.73831
6.73805
6.73778
6.73751
6.73723
6.73694
6.73664
6.73634
6.73603
6.73571
6.73538
6.73504
6.73469
6.73433
6.73396
6.73358
6.73316
6.73268
6.73219
6.73158
6.67185
6.0874
6.83794
6.83771
6.83745
6.83721
6.83698
6.83676
6.83655
6.83633
6.83613
6.83593
6.83573
6.83555
6.83536
6.83519
6.83501
6.83485
6.83469
6.83453
6.83438
6.8342
6.83399
6.83378
6.83346
6.77306
6.18009
6.93674
6.93651
6.93626
6.93605
6.93585
6.93568
6.93552
6.93538
6.93526
6.93516
6.93508
6.93502
6.93498
6.93496
6.93496
6.93498
6.93503
6.93509
6.93518
6.93526
6.93531
6.9354
6.9354
6.87422
6.27187
7.03532
7.0351
7.03487
7.03468
7.03452
7.0344
7.0343
7.03424
7.03421
7.03421
7.03425
7.03431
7.03442
7.03456
7.03473
7.03494
7.03519
7.03548
7.0358
7.03614
7.03647
7.03685
7.03719
6.97515
6.36288
7.13357
7.13336
7.13315
7.13298
7.13287
7.13279
7.13276
7.13278
7.13283
7.13294
7.13309
7.13328
7.13353
7.13382
7.13417
7.13456
7.13501
7.13551
7.13606
7.13665
7.13723
7.13789
7.13853
7.07565
6.45355
7.23137
7.23116
7.23097
7.23084
7.23077
7.23075
7.23078
7.23087
7.23101
7.23121
7.23147
7.23179
7.23217
7.23262
7.23313
7.2337
7.23433
7.23504
7.23581
7.23662
7.23745
7.23837
7.23928
7.17575
6.54444
7.32859
7.3284
7.32823
7.32814
7.32811
7.32814
7.32823
7.3284
7.32862
7.32892
7.32929
7.32973
7.33024
7.33082
7.33148
7.33222
7.33304
7.33393
7.3349
7.33593
7.33699
7.33815
7.33932
7.2753
6.63497
7.42515
7.42498
7.42484
7.42477
7.42479
7.42487
7.42503
7.42526
7.42557
7.42596
7.42642
7.42697
7.42761
7.42833
7.42913
7.43002
7.43101
7.43208
7.43324
7.43447
7.43574
7.43712
7.43853
7.374
6.72389
7.52095
7.5208
7.52069
7.52066
7.52072
7.52085
7.52107
7.52137
7.52175
7.52222
7.52278
7.52344
7.52418
7.52502
7.52596
7.52699
7.52813
7.52936
7.5307
7.53211
7.53359
7.53518
7.53682
7.47165
6.81041
7.61592
7.61579
7.61571
7.61572
7.61582
7.616
7.61627
7.61663
7.61709
7.61763
7.61828
7.61902
7.61986
7.62081
7.62186
7.62302
7.62429
7.62567
7.62716
7.62874
7.63039
7.63217
7.63402
7.56804
6.89436
7.70999
7.70989
7.70985
7.70989
7.71003
7.71026
7.71058
7.71099
7.71151
7.71212
7.71283
7.71365
7.71457
7.71561
7.71676
7.71802
7.71939
7.72089
7.7225
7.72421
7.72599
7.72792
7.72992
7.66333
6.976
7.80314
7.80307
7.80306
7.80314
7.80331
7.80358
7.80394
7.8044
7.80496
7.80562
7.80639
7.80727
7.80826
7.80936
7.81058
7.81191
7.81337
7.81495
7.81665
7.81846
7.82035
7.82239
7.8245
7.75747
7.05579
7.89533
7.89529
7.89531
7.89543
7.89564
7.89594
7.89633
7.89683
7.89742
7.89812
7.89893
7.89984
7.90087
7.90202
7.90328
7.90466
7.90617
7.90781
7.90957
7.91145
7.91341
7.91553
7.91773
7.8494
7.13408
7.98658
7.98657
7.98663
7.98677
7.987
7.98733
7.98775
7.98826
7.98888
7.98959
7.99042
7.99135
7.99239
7.99355
7.99482
7.99622
7.99773
7.99938
8.00115
8.00304
8.00502
8.00713
8.00933
7.93938
7.21052
8.07689
8.07692
8.077
8.07717
8.07743
8.07777
8.0782
8.07873
8.07935
8.08007
8.08089
8.08182
8.08285
8.08399
8.08524
8.0866
8.08808
8.08967
8.09138
8.09319
8.09508
8.0971
8.09918
8.0281
7.28558
8.16633
8.16638
8.1665
8.16669
8.16696
8.16732
8.16775
8.16828
8.16889
8.1696
8.1704
8.1713
8.1723
8.17339
8.1746
8.1759
8.17731
8.17884
8.18046
8.18218
8.18395
8.18586
8.18782
8.11582
7.35979
8.25495
8.25503
8.25517
8.25538
8.25567
8.25602
8.25646
8.25697
8.25756
8.25824
8.25901
8.25986
8.2608
8.26184
8.26297
8.2642
8.26553
8.26696
8.26849
8.2701
8.27178
8.27359
8.27543
8.20243
7.43254
8.34283
8.34294
8.34311
8.34333
8.34362
8.34397
8.34439
8.34488
8.34544
8.34608
8.34679
8.34758
8.34845
8.34941
8.35045
8.35157
8.35279
8.3541
8.3555
8.35698
8.35851
8.36018
8.36187
8.28773
7.5033
8.43008
8.43022
8.43041
8.43064
8.43093
8.43126
8.43166
8.43211
8.43263
8.4332
8.43384
8.43455
8.43533
8.43618
8.4371
8.4381
8.43917
8.44033
8.44157
8.44286
8.44421
8.44569
8.44715
8.37176
7.57244
8.51682
8.51698
8.51718
8.51742
8.5177
8.51801
8.51837
8.51878
8.51923
8.51973
8.52029
8.5209
8.52156
8.52228
8.52306
8.52389
8.5248
8.52576
8.5268
8.52788
8.52899
8.53022
8.5314
8.45463
7.64013
8.60317
8.60335
8.60357
8.6038
8.60406
8.60435
8.60466
8.60501
8.60539
8.6058
8.60626
8.60674
8.60727
8.60784
8.60845
8.6091
8.6098
8.61055
8.61135
8.61217
8.61301
8.61394
8.6148
8.53654
7.70697
8.68928
8.68948
8.68971
8.68993
8.69017
8.69042
8.69068
8.69096
8.69125
8.69157
8.6919
8.69225
8.69263
8.69303
8.69345
8.6939
8.69437
8.69487
8.6954
8.69594
8.69647
8.69707
8.69755
8.6177
7.77367
8.77532
8.77553
8.77576
8.77597
8.77618
8.77638
8.77658
8.77679
8.77699
8.77719
8.77739
8.7776
8.77781
8.77803
8.77825
8.77847
8.7787
8.77894
8.77919
8.77942
8.77963
8.77989
8.77998
8.69855
7.84112
8.86144
8.86166
8.86188
8.86208
8.86226
8.86241
8.86254
8.86266
8.86276
8.86285
8.86292
8.86297
8.86301
8.86303
8.86304
8.86303
8.86301
8.86297
8.86292
8.86283
8.8627
8.86259
8.86226
8.77926
7.9094
8.94781
8.94804
8.94826
8.94844
8.94857
8.94867
8.94873
8.94876
8.94876
8.94872
8.94865
8.94854
8.9484
8.94823
8.94802
8.94777
8.9475
8.94719
8.94684
8.94645
8.94598
8.94553
8.94482
8.86036
7.97872
9.03461
9.03483
9.03505
9.0352
9.03529
9.03533
9.03532
9.03526
9.03515
9.03499
9.03477
9.0345
9.03418
9.03381
9.03338
9.03289
9.03236
9.03176
9.03111
9.03038
9.02956
9.02873
9.02758
8.94155
8.04808
9.122
9.12222
9.12242
9.12254
9.12259
9.12257
9.12248
9.12233
9.12211
9.12182
9.12147
9.12104
9.12054
9.11997
9.11933
9.11861
9.11782
9.11696
9.11601
9.11497
9.11382
9.11263
9.11106
9.02346
8.11822
9.21014
9.21035
9.21053
9.21062
9.21062
9.21054
9.21038
9.21014
9.20981
9.2094
9.2089
9.20832
9.20765
9.20688
9.20603
9.20509
9.20405
9.20293
9.20171
9.20037
9.19892
9.19741
9.1955
9.10644
8.18985
9.29917
9.29937
9.29953
9.29958
9.29954
9.2994
9.29916
9.29883
9.2984
9.29788
9.29725
9.29652
9.29568
9.29474
9.29369
9.29253
9.29127
9.28988
9.28838
9.28675
9.28497
9.28309
9.28077
9.19014
8.26238
9.38922
9.38941
9.38954
9.38956
9.38947
9.38928
9.38897
9.38856
9.38804
9.3874
9.38666
9.38579
9.38481
9.38371
9.38249
9.38114
9.37967
9.37807
9.37633
9.37444
9.37238
9.37021
9.36752
9.27552
8.33669
9.48042
9.48059
9.4807
9.48068
9.48054
9.48029
9.47992
9.47944
9.47883
9.4781
9.47725
9.47627
9.47516
9.47392
9.47254
9.47103
9.46938
9.46758
9.46565
9.46354
9.46127
9.45887
9.45594
9.36289
8.41366
9.57285
9.573
9.57308
9.57303
9.57285
9.57255
9.57212
9.57157
9.57089
9.57008
9.56914
9.56806
9.56685
9.56549
9.56399
9.56235
9.56055
9.55861
9.55652
9.55425
9.5518
9.54922
9.54608
9.45204
8.4935
9.66658
9.66671
9.66676
9.66667
9.66646
9.66611
9.66564
9.66504
9.6643
9.66343
9.66242
9.66127
9.65997
9.65852
9.65693
9.65518
9.65327
9.65121
9.64898
9.64656
9.64393
9.64115
9.63774
9.54265
8.57495
9.76166
9.76176
9.76178
9.76167
9.76142
9.76104
9.76054
9.7599
9.75912
9.7582
9.75714
9.75594
9.75459
9.75309
9.75143
9.74962
9.74765
9.74551
9.7432
9.7407
9.73799
9.73511
9.7316
9.63566
8.65927
9.85811
9.85818
9.85817
9.85803
9.85775
9.85735
9.85682
9.85616
9.85536
9.85442
9.85334
9.85212
9.85075
9.84923
9.84756
9.84573
9.84374
9.8416
9.83929
9.83679
9.83408
9.83121
9.82771
9.73108
8.74625
9.9559
9.95595
9.95591
9.95574
9.95545
9.95503
9.95449
9.95382
9.95302
9.95208
9.951
9.94978
9.94842
9.94691
9.94525
9.94344
9.94148
9.93936
9.93708
9.93461
9.93195
9.92912
9.92568
9.82859
8.83615
10.055
10.055
10.055
10.0548
10.0545
10.054
10.0535
10.0528
10.052
10.0511
10.0501
10.0489
10.0476
10.0461
10.0445
10.0427
10.0408
10.0388
10.0365
10.0341
10.0315
10.0286
10.0251
9.9281
8.92935
10.1553
10.1553
10.1552
10.155
10.1547
10.1543
10.1538
10.1532
10.1524
10.1515
10.1505
10.1494
10.1481
10.1468
10.1452
10.1436
10.1418
10.1399
10.1378
10.1355
10.1331
10.1305
10.1273
10.0295
9.02525
10.2568
10.2568
10.2567
10.2565
10.2562
10.2558
10.2553
10.2547
10.254
10.2531
10.2522
10.2512
10.25
10.2488
10.2474
10.2459
10.2443
10.2425
10.2406
10.2386
10.2363
10.234
10.231
10.1324
9.12407
10.3593
10.3592
10.3591
10.3589
10.3586
10.3582
10.3578
10.3572
10.3566
10.3559
10.355
10.3541
10.3531
10.352
10.3508
10.3494
10.348
10.3465
10.3448
10.343
10.3411
10.339
10.3364
10.2368
9.22497
10.4626
10.4625
10.4624
10.4622
10.4619
10.4616
10.4612
10.4607
10.4601
10.4595
10.4588
10.458
10.4572
10.4562
10.4552
10.4541
10.4529
10.4516
10.4502
10.4488
10.4471
10.4454
10.4432
10.3436
9.32819
10.5666
10.5665
10.5664
10.5662
10.5659
10.5656
10.5653
10.5649
10.5644
10.5639
10.5634
10.5627
10.562
10.5613
10.5605
10.5596
10.5587
10.5577
10.5566
10.5554
10.5541
10.5528
10.5509
10.4513
9.43318
10.6711
10.671
10.6708
10.6707
10.6704
10.6702
10.6699
10.6696
10.6693
10.6689
10.6685
10.668
10.6675
10.667
10.6664
10.6658
10.6651
10.6644
10.6637
10.6628
10.6619
10.661
10.6595
10.5598
9.5403
10.7759
10.7758
10.7756
10.7754
10.7753
10.7751
10.7749
10.7747
10.7745
10.7742
10.7739
10.7737
10.7734
10.7731
10.7727
10.7724
10.772
10.7716
10.7712
10.7708
10.7702
10.7697
10.7687
10.6691
9.64898
10.8808
10.8806
10.8805
10.8803
10.8802
10.8801
10.88
10.8799
10.8798
10.8797
10.8796
10.8795
10.8794
10.8793
10.8792
10.8792
10.8791
10.8791
10.879
10.8789
10.8788
10.8787
10.8782
10.7787
9.75838
10.9855
10.9854
10.9853
10.9851
10.9851
10.985
10.985
10.985
10.985
10.985
10.9851
10.9852
10.9854
10.9855
10.9857
10.9859
10.9862
10.9864
10.9867
10.9871
10.9874
10.9877
10.9877
10.8879
9.86778
11.09
11.0898
11.0897
11.0896
11.0896
11.0896
11.0897
11.0898
11.0899
11.0901
11.0904
11.0907
11.091
11.0914
11.0919
11.0923
11.0929
11.0935
11.0941
11.0948
11.0955
11.0963
11.0967
10.9967
9.97658
11.1939
11.1938
11.1937
11.1936
11.1936
11.1937
11.1939
11.1941
11.1944
11.1947
11.1951
11.1956
11.1961
11.1968
11.1975
11.1982
11.1991
11.2
11.201
11.202
11.2031
11.2043
11.2052
11.1052
10.0847
11.2971
11.297
11.2969
11.2969
11.297
11.2971
11.2974
11.2977
11.2981
11.2986
11.2991
11.2998
11.3006
11.3014
11.3023
11.3034
11.3045
11.3057
11.307
11.3084
11.3099
11.3115
11.3128
11.2132
10.1915
11.3995
11.3993
11.3993
11.3993
11.3994
11.3997
11.4
11.4004
11.4009
11.4016
11.4023
11.4031
11.404
11.4051
11.4062
11.4075
11.4089
11.4104
11.412
11.4138
11.4156
11.4175
11.4192
11.3197
10.2969
11.5008
11.5007
11.5006
11.5007
11.5009
11.5012
11.5016
11.5021
11.5027
11.5035
11.5043
11.5053
11.5064
11.5076
11.509
11.5105
11.5121
11.5139
11.5158
11.5178
11.5199
11.5222
11.5242
11.424
10.4014
11.6009
11.6009
11.6009
11.601
11.6012
11.6016
11.602
11.6026
11.6034
11.6042
11.6052
11.6063
11.6075
11.6089
11.6104
11.6121
11.6139
11.6159
11.618
11.6203
11.6226
11.6251
11.6275
11.5267
10.5038
11.6998
11.6998
11.6998
11.7
11.7003
11.7007
11.7012
11.7019
11.7027
11.7036
11.7047
11.7059
11.7072
11.7087
11.7104
11.7122
11.7142
11.7163
11.7186
11.721
11.7235
11.7262
11.7287
11.6278
10.6033
11.7974
11.7974
11.7974
11.7976
11.798
11.7984
11.799
11.7997
11.8006
11.8016
11.8027
11.804
11.8055
11.8071
11.8088
11.8107
11.8128
11.8151
11.8175
11.82
11.8227
11.8256
11.8282
11.727
10.6999
11.8936
11.8936
11.8937
11.8939
11.8943
11.8948
11.8954
11.8962
11.8971
11.8981
11.8993
11.9007
11.9022
11.9038
11.9057
11.9076
11.9098
11.9121
11.9146
11.9173
11.92
11.923
11.9258
11.8243
10.794
11.9884
11.9884
11.9886
11.9888
11.9892
11.9897
11.9904
11.9912
11.9921
11.9932
11.9944
11.9958
11.9973
11.999
12.0008
12.0028
12.005
12.0074
12.0099
12.0126
12.0154
12.0184
12.0212
11.919
10.8848
12.0818
12.0819
12.082
12.0823
12.0827
12.0833
12.0839
12.0847
12.0857
12.0867
12.088
12.0893
12.0908
12.0925
12.0943
12.0963
12.0985
12.1008
12.1033
12.1059
12.1087
12.1117
12.1144
12.0114
10.9729
12.1739
12.174
12.1741
12.1744
12.1749
12.1754
12.1761
12.1769
12.1778
12.1788
12.18
12.1813
12.1828
12.1844
12.1862
12.1881
12.1902
12.1924
12.1948
12.1974
12.2001
12.203
12.2057
12.1016
11.0592
12.2647
12.2648
12.265
12.2653
12.2657
12.2663
12.2669
12.2677
12.2685
12.2695
12.2707
12.2719
12.2733
12.2748
12.2765
12.2783
12.2802
12.2823
12.2845
12.2869
12.2894
12.2922
12.2946
12.1893
11.1432
12.3544
12.3545
12.3547
12.355
12.3554
12.3559
12.3566
12.3573
12.3581
12.359
12.36
12.3611
12.3624
12.3638
12.3653
12.3669
12.3686
12.3705
12.3725
12.3747
12.3769
12.3794
12.3815
12.2748
11.2249
12.4431
12.4432
12.4434
12.4437
12.4441
12.4446
12.4451
12.4458
12.4465
12.4473
12.4482
12.4492
12.4503
12.4514
12.4527
12.4541
12.4556
12.4573
12.459
12.4609
12.4628
12.4649
12.4667
12.3585
11.3042
12.5309
12.5311
12.5313
12.5316
12.532
12.5324
12.5328
12.5334
12.534
12.5347
12.5354
12.5362
12.5371
12.5381
12.5391
12.5402
12.5414
12.5428
12.5441
12.5456
12.5472
12.5489
12.5502
12.4403
11.3804
12.6182
12.6184
12.6186
12.6189
12.6192
12.6195
12.6199
12.6203
12.6208
12.6213
12.6219
12.6225
12.6231
12.6238
12.6246
12.6254
12.6263
12.6272
12.6282
12.6293
12.6303
12.6315
12.6323
12.5206
11.4535
12.705
12.7052
12.7055
12.7057
12.7059
12.7062
12.7065
12.7068
12.7071
12.7075
12.7078
12.7082
12.7086
12.709
12.7095
12.71
12.7105
12.711
12.7116
12.7122
12.7128
12.7134
12.7136
12.6002
11.5247
12.7918
12.792
12.7922
12.7924
12.7926
12.7927
12.7929
12.7931
12.7932
12.7934
12.7936
12.7937
12.7938
12.794
12.7941
12.7942
12.7944
12.7945
12.7946
12.7947
12.7948
12.7949
12.7945
12.6792
11.5948
12.8786
12.8788
12.879
12.8791
12.8792
12.8793
12.8794
12.8794
12.8794
12.8794
12.8793
12.8792
12.8791
12.879
12.8788
12.8785
12.8783
12.878
12.8776
12.8772
12.8768
12.8763
12.8752
12.7582
11.6646
12.9658
12.9659
12.9661
12.9662
12.9663
12.9663
12.9662
12.9661
12.966
12.9657
12.9655
12.9651
12.9647
12.9643
12.9637
12.9631
12.9625
12.9618
12.961
12.9601
12.9591
12.958
12.9563
12.8376
11.7346
13.0535
13.0537
13.0538
13.0539
13.0539
13.0538
13.0536
13.0534
13.0531
13.0527
13.0522
13.0516
13.051
13.0502
13.0494
13.0484
13.0474
13.0463
13.0451
13.0437
13.0422
13.0407
13.0383
12.9179
11.8057
13.1421
13.1423
13.1424
13.1424
13.1423
13.1421
13.1418
13.1415
13.141
13.1404
13.1398
13.139
13.1381
13.1371
13.136
13.1347
13.1334
13.1319
13.1303
13.1285
13.1266
13.1245
13.1217
12.9996
11.8782
13.2317
13.2318
13.2319
13.2318
13.2317
13.2314
13.2311
13.2306
13.23
13.2293
13.2284
13.2275
13.2264
13.2251
13.2238
13.2223
13.2206
13.2188
13.2169
13.2148
13.2125
13.21
13.2067
13.0832
11.9523
13.3224
13.3225
13.3226
13.3225
13.3223
13.3219
13.3215
13.3209
13.3202
13.3193
13.3183
13.3172
13.316
13.3145
13.313
13.3113
13.3094
13.3073
13.3051
13.3027
13.3001
13.2973
13.2936
13.1687
12.0283
13.4144
13.4145
13.4145
13.4144
13.4141
13.4137
13.4132
13.4125
13.4117
13.4108
13.4097
13.4085
13.4071
13.4055
13.4038
13.4019
13.3998
13.3976
13.3951
13.3925
13.3896
13.3865
13.3826
13.2564
12.1065
13.5078
13.5079
13.5079
13.5077
13.5074
13.5069
13.5063
13.5056
13.5047
13.5037
13.5026
13.5012
13.4997
13.4981
13.4963
13.4943
13.4921
13.4897
13.4871
13.4843
13.4813
13.4781
13.4739
13.3467
12.1878
13.6027
13.6027
13.6026
13.6024
13.602
13.6015
13.6009
13.6002
13.5993
13.5982
13.597
13.5956
13.5941
13.5924
13.5905
13.5885
13.5863
13.5839
13.5812
13.5784
13.5753
13.572
13.5678
13.4401
12.2727
13.6989
13.6988
13.6987
13.6985
13.6981
13.6976
13.697
13.6962
13.6953
13.6942
13.693
13.6916
13.6901
13.6884
13.6866
13.6846
13.6824
13.68
13.6774
13.6747
13.6717
13.6685
13.6645
13.5364
12.3602
13.7964
13.7964
13.7962
13.796