/*--------------------------------*- C++ -*----------------------------------*\
| =========                 |                                                 |
| \\      /  F ield         | OpenFOAM: The Open Source CFD Toolbox           |
|  \\    /   O peration     | Version:  2.4.0                                 |
|   \\  /    A nd           | Web:      www.OpenFOAM.org                      |
|    \\/     M anipulation  |                                                 |
\*---------------------------------------------------------------------------*/
FoamFile
{
    version     2.0;
    format      ascii;
    class       surfaceScalarField;
    location    "0.01";
    object      phi;
}
// * * * * * * * * * * * * * * * * * * * * * * * * * * * * * * * * * * * * * //

dimensions      [0 3 -1 0 0 0 0];

internalField   nonuniform List<scalar> 
51341
(
-4.1904e-15
-2.45478e-12
-1.16565e-14
-7.18332e-12
-2.06877e-14
-1.17243e-11
-3.09817e-14
-1.60725e-11
-4.22617e-14
-2.02241e-11
-5.42413e-14
-2.41763e-11
-6.65921e-14
-2.79272e-11
-7.89181e-14
-3.14754e-11
-9.07349e-14
-3.48204e-11
-1.01447e-13
-3.7962e-11
-1.10408e-13
-4.09003e-11
-1.16905e-13
-4.36357e-11
-1.20159e-13
-4.61685e-11
-1.1935e-13
-4.84994e-11
-1.13688e-13
-5.06287e-11
-1.02691e-13
-5.25571e-11
-8.52573e-14
-5.42847e-11
-6.03824e-14
-5.58121e-11
-2.73854e-14
-5.71395e-11
1.38385e-14
-5.82674e-11
6.22072e-14
-5.91966e-11
1.14217e-13
-5.99285e-11
1.61908e-13
-6.04657e-11
2.28155e-13
-6.08191e-11
-6.09808e-11
1.62192e-13
2.52872e-17
-2.45481e-12
-1.68631e-15
-7.18161e-12
-5.51327e-15
-1.17204e-11
-1.13145e-14
-1.60667e-11
-1.89231e-14
-2.02165e-11
-2.80905e-14
-2.41672e-11
-3.8482e-14
-2.79168e-11
-4.96859e-14
-3.14642e-11
-6.12089e-14
-3.48089e-11
-7.24672e-14
-3.79508e-11
-8.28099e-14
-4.089e-11
-9.1527e-14
-4.36269e-11
-9.78556e-14
-4.61622e-11
-1.00996e-13
-4.84962e-11
-1.00158e-13
-5.06296e-11
-9.45762e-14
-5.25626e-11
-8.33754e-14
-5.42959e-11
-6.57844e-14
-5.58297e-11
-4.12326e-14
-5.7164e-11
-9.6859e-15
-5.82989e-11
2.7677e-14
-5.9234e-11
6.72932e-14
-5.99681e-11
1.01302e-13
-6.04998e-11
1.35262e-13
-6.0827e-11
-6.09475e-11
1.01957e-13
8.77014e-16
-2.45568e-12
2.01665e-15
-7.18275e-12
2.28012e-15
-1.17207e-11
9.71036e-16
-1.60653e-11
-2.20594e-15
-2.02133e-11
-7.25832e-15
-2.41621e-11
-1.39762e-14
-2.79101e-11
-2.20061e-14
-3.14562e-11
-3.09268e-14
-3.48e-11
-4.02994e-14
-3.79414e-11
-4.96635e-14
-4.08806e-11
-5.85526e-14
-4.3618e-11
-6.65086e-14
-4.61542e-11
-7.30803e-14
-4.84896e-11
-7.7814e-14
-5.06248e-11
-8.01815e-14
-5.25603e-11
-7.98433e-14
-5.42963e-11
-7.64675e-14
-5.5833e-11
-6.981e-14
-5.71707e-11
-5.96126e-14
-5.83091e-11
-4.55424e-14
-5.9248e-11
-2.7094e-14
-5.99866e-11
-3.43353e-15
-6.05234e-11
5.27418e-14
-6.0857e-11
-6.09939e-11
9.91585e-14
2.01342e-15
-2.4577e-12
5.49537e-15
-7.18623e-12
8.74954e-15
-1.1724e-11
1.07475e-14
-1.60673e-11
1.09471e-14
-2.02135e-11
9.1487e-15
-2.41603e-11
5.40982e-15
-2.79063e-11
-2.43141e-17
-3.14508e-11
-6.78996e-15
-3.47932e-11
-1.44721e-14
-3.79337e-11
-2.26463e-14
-4.08724e-11
-3.09058e-14
-4.36098e-11
-3.88774e-14
-4.61462e-11
-4.62274e-14
-4.84823e-11
-5.26557e-14
-5.06184e-11
-5.78851e-14
-5.2555e-11
-6.16026e-14
-5.42925e-11
-6.34296e-14
-5.58312e-11
-6.28771e-14
-5.71712e-11
-5.93242e-14
-5.83127e-11
-5.18737e-14
-5.92555e-11
-3.90005e-14
-5.99994e-11
-1.83196e-14
-6.05441e-11
4.1169e-14
-6.08904e-11
-6.10468e-11
9.41146e-14
2.46974e-15
-2.46017e-12
7.31643e-15
-7.19108e-12
1.26204e-14
-1.17293e-11
1.70802e-14
-1.60718e-11
1.99445e-14
-2.02164e-11
2.08949e-14
-2.41613e-11
1.99076e-14
-2.79053e-11
1.71528e-14
-3.1448e-11
1.29403e-14
-3.4789e-11
7.65166e-15
-3.79284e-11
1.68271e-15
-4.08665e-11
-4.58729e-15
-4.36035e-11
-1.08136e-14
-4.614e-11
-1.66934e-14
-4.84764e-11
-2.1963e-14
-5.06131e-11
-2.63861e-14
-5.25506e-11
-2.97294e-14
-5.42892e-11
-3.1726e-14
-5.58292e-11
-3.20195e-14
-5.71709e-11
-3.01066e-14
-5.83146e-11
-2.52393e-14
-5.92604e-11
-1.63141e-14
-6.00084e-11
-1.48036e-15
-6.05589e-11
4.85092e-14
-6.09142e-11
-6.10836e-11
8.52716e-14
2.88883e-15
-2.46306e-12
8.71124e-15
-7.1969e-12
1.5379e-14
-1.17359e-11
2.14719e-14
-1.60779e-11
2.61264e-14
-2.0221e-11
2.89221e-14
-2.4164e-11
2.97724e-14
-2.79062e-11
2.88103e-14
-3.1447e-11
2.63089e-14
-3.47865e-11
2.26239e-14
-3.79247e-11
1.81394e-14
-4.0862e-11
1.32308e-14
-4.35986e-11
8.24414e-15
-4.6135e-11
3.48753e-15
-4.84717e-11
-7.69861e-16
-5.06089e-11
-4.29088e-15
-5.25471e-11
-6.85698e-15
-5.42866e-11
-8.24997e-15
-5.58278e-11
-8.23083e-15
-5.7171e-11
-6.51096e-15
-5.83163e-11
-2.7006e-15
-5.92642e-11
3.77546e-15
-6.00148e-11
1.37555e-14
-6.05689e-11
5.44781e-14
-6.09288e-11
-6.11042e-11
7.50381e-14
3.01552e-15
-2.46607e-12
9.24432e-15
-7.20313e-12
1.65534e-14
-1.17432e-11
2.34549e-14
-1.60848e-11
2.90241e-14
-2.02266e-11
3.27853e-14
-2.41678e-11
3.46007e-14
-2.7908e-11
3.45795e-14
-3.1447e-11
3.29744e-14
-3.47849e-11
3.01181e-14
-3.79219e-11
2.63797e-14
-4.08582e-11
2.21287e-14
-4.35944e-11
1.77138e-14
-4.61306e-11
1.34526e-14
-4.84674e-11
9.62964e-15
-5.06051e-11
6.49928e-15
-5.2544e-11
4.29093e-15
-5.42844e-11
3.21798e-15
-5.58268e-11
3.47906e-15
-5.71712e-11
5.25429e-15
-5.83181e-11
8.7202e-15
-5.92676e-11
1.39888e-14
-6.00201e-11
2.10012e-14
-6.05759e-11
5.55935e-14
-6.09372e-11
-6.11128e-11
6.42826e-14
3.0607e-15
-2.46913e-12
9.40117e-15
-7.20947e-12
1.68821e-14
-1.17507e-11
2.40105e-14
-1.60919e-11
2.98495e-14
-2.02324e-11
3.39069e-14
-2.41719e-11
3.60278e-14
-2.79101e-11
3.63024e-14
-3.14473e-11
3.49676e-14
-3.47836e-11
3.23454e-14
-3.79192e-11
2.87972e-14
-4.08547e-11
2.46899e-14
-4.35903e-11
2.03757e-14
-4.61263e-11
1.61817e-14
-4.84632e-11
1.24075e-14
-5.06013e-11
9.32473e-15
-5.25409e-11
7.17632e-15
-5.42823e-11
6.17081e-15
-5.58257e-11
6.46635e-15
-5.71715e-11
8.1492e-15
-5.83198e-11
1.11878e-14
-5.92707e-11
1.5339e-14
-6.00243e-11
2.00019e-14
-6.05806e-11
4.99193e-14
-6.09409e-11
-6.11127e-11
4.98204e-14
2.97997e-15
-2.47211e-12
9.16199e-15
-7.21566e-12
1.64558e-14
-1.1758e-11
2.33979e-14
-1.60989e-11
2.90701e-14
-2.02381e-11
3.29893e-14
-2.41758e-11
3.50037e-14
-2.79121e-11
3.51893e-14
-3.14475e-11
3.37766e-14
-3.47821e-11
3.1078e-14
-3.79165e-11
2.74426e-14
-4.08511e-11
2.32244e-14
-4.3586e-11
1.87619e-14
-4.61218e-11
1.43677e-14
-4.84588e-11
1.03227e-14
-5.05972e-11
6.87245e-15
-5.25374e-11
4.22098e-15
-5.42796e-11
2.5153e-15
-5.5824e-11
1.82617e-15
-5.71708e-11
2.11911e-15
-5.83201e-11
3.18758e-15
-5.92717e-11
4.60319e-15
-6.00257e-11
5.66802e-15
-6.05817e-11
3.17743e-14
-6.09409e-11
-6.11096e-11
2.86306e-14
2.85147e-15
-2.47496e-12
8.73582e-15
-7.22154e-12
1.56381e-14
-1.17649e-11
2.2154e-14
-1.61054e-11
2.74071e-14
-2.02434e-11
3.09404e-14
-2.41793e-11
3.2613e-14
-2.79138e-11
3.2504e-14
-3.14474e-11
3.08338e-14
-3.47805e-11
2.79001e-14
-3.79136e-11
2.40327e-14
-4.08472e-11
1.95618e-14
-4.35816e-11
1.47984e-14
-4.61171e-11
1.00239e-14
-4.8454e-11
5.48399e-15
-5.05927e-11
1.38518e-15
-5.25333e-11
-2.10865e-15
-5.42761e-11
-4.8824e-15
-5.58213e-11
-6.87723e-15
-5.71688e-11
-8.09769e-15
-5.83189e-11
-8.61542e-15
-5.92712e-11
-8.55982e-15
-6.00257e-11
-8.09418e-15
-6.05821e-11
1.90176e-14
-6.09418e-11
-6.11135e-11
2.29558e-14
2.67932e-15
-2.47764e-12
8.17207e-15
-7.22703e-12
1.4564e-14
-1.17713e-11
2.05289e-14
-1.61113e-11
2.52466e-14
-2.02481e-11
2.82968e-14
-2.41824e-11
2.95569e-14
-2.79151e-11
2.91098e-14
-3.14469e-11
2.7167e-14
-3.47785e-11
2.40083e-14
-3.79105e-11
1.99383e-14
-4.08431e-11
1.52565e-14
-4.35769e-11
1.0239e-14
-4.61121e-11
5.1292e-15
-4.84489e-11
1.33165e-16
-5.05877e-11
-4.58043e-15
-5.25286e-11
-8.87878e-15
-5.42718e-11
-1.26615e-14
-5.58175e-11
-1.58545e-14
-5.71656e-11
-1.84013e-14
-5.83163e-11
-2.02489e-14
-5.92694e-11
-2.1329e-14
-6.00247e-11
-2.15346e-14
-6.05819e-11
5.07664e-15
-6.09422e-11
-6.11158e-11
7.32545e-15
2.48648e-15
-2.48013e-12
7.53873e-15
-7.23208e-12
1.336e-14
-1.17771e-11
1.8717e-14
-1.61167e-11
2.28566e-14
-2.02522e-11
2.54014e-14
-2.41849e-11
2.62509e-14
-2.79159e-11
2.54925e-14
-3.14462e-11
2.33285e-14
-3.47764e-11
2.00198e-14
-3.79071e-11
1.58457e-14
-4.08389e-11
1.10764e-14
-4.35721e-11
5.95818e-15
-4.61069e-11
7.05734e-16
-4.84437e-11
-4.49917e-15
-5.05825e-11
-9.50552e-15
-5.25236e-11
-1.41889e-14
-5.42671e-11
-1.84464e-14
-5.58132e-11
-2.21925e-14
-5.71619e-11
-2.53564e-14
-5.83131e-11
-2.78836e-14
-5.92668e-11
-2.97453e-14
-6.00228e-11
-3.09541e-14
-6.05807e-11
-5.14032e-15
-6.09418e-11
-6.1114e-11
-6.89121e-15
2.27499e-15
-2.4824e-12
6.84929e-15
-7.23666e-12
1.20588e-14
-1.17823e-11
1.67738e-14
-1.61214e-11
2.0315e-14
-2.02558e-11
2.23511e-14
-2.41869e-11
2.28034e-14
-2.79164e-11
2.17623e-14
-3.14451e-11
1.94182e-14
-3.4774e-11
1.60105e-14
-3.79037e-11
1.1791e-14
-4.08347e-11
7.00082e-15
-4.35673e-11
1.8586e-15
-4.61018e-11
-3.44448e-15
-4.84384e-11
-8.74366e-15
-5.05772e-11
-1.38972e-14
-5.25185e-11
-1.87824e-14
-5.42623e-11
-2.3293e-14
-5.58087e-11
-2.73411e-14
-5.71579e-11
-3.08652e-14
-5.83096e-11
-3.38479e-14
-5.92639e-11
-3.63495e-14
-6.00203e-11
-3.85659e-14
-6.05785e-11
-1.43794e-14
-6.09397e-11
-6.11101e-11
-1.83339e-14
2.03755e-15
-2.48444e-12
6.07956e-15
-7.2407e-12
1.06101e-14
-1.17869e-11
1.4612e-14
-1.61254e-11
1.74832e-14
-2.02586e-11
1.89379e-14
-2.41884e-11
1.89158e-14
-2.79164e-11
1.75036e-14
-3.14437e-11
1.48729e-14
-3.47714e-11
1.12334e-14
-3.79001e-11
6.80135e-15
-4.08303e-11
1.78107e-15
-4.35623e-11
-3.64422e-15
-4.60964e-11
-9.31384e-15
-4.84327e-11
-1.50867e-14
-5.05714e-11
-2.08359e-14
-5.25127e-11
-2.64435e-14
-5.42567e-11
-3.17964e-14
-5.58034e-11
-3.67865e-14
-5.71529e-11
-4.13154e-14
-5.83051e-11
-4.53086e-14
-5.92599e-11
-4.87407e-14
-6.00169e-11
-5.16983e-14
-6.05755e-11
-2.8524e-14
-6.09366e-11
-6.11057e-11
-3.28961e-14
1.77473e-15
-2.48622e-12
5.22759e-15
-7.24415e-12
9.00482e-15
-1.17906e-11
1.22108e-14
-1.61286e-11
1.43253e-14
-2.02607e-11
1.51085e-14
-2.41892e-11
1.45167e-14
-2.79158e-11
1.26307e-14
-3.14418e-11
9.59918e-15
-3.47684e-11
5.59836e-15
-3.78961e-11
8.05255e-16
-4.08255e-11
-4.6171e-15
-4.35569e-11
-1.05254e-14
-4.60905e-11
-1.67951e-14
-4.84264e-11
-2.33158e-14
-5.05649e-11
-2.99836e-14
-5.2506e-11
-3.66931e-14
-5.42499e-11
-4.33289e-14
-5.57967e-11
-4.97576e-14
-5.71464e-11
-5.58173e-14
-5.8299e-11
-6.1302e-14
-5.92544e-11
-6.59308e-14
-6.00122e-11
-6.92851e-14
-6.05722e-11
-4.44023e-14
-6.09352e-11
-6.11061e-11
-4.39842e-14
1.49547e-15
-2.48771e-12
4.32178e-15
-7.24698e-12
7.2982e-15
-1.17936e-11
9.6593e-15
-1.6131e-11
1.09737e-14
-2.02621e-11
1.10532e-14
-2.41893e-11
9.87585e-15
-2.79146e-11
7.52135e-15
-3.14395e-11
4.12186e-15
-3.4765e-11
-1.73049e-16
-3.78918e-11
-5.21811e-15
-4.08205e-11
-1.08837e-14
-4.35512e-11
-1.70591e-14
-4.60843e-11
-2.36506e-14
-4.84198e-11
-3.05762e-14
-5.0558e-11
-3.77582e-14
-5.24989e-11
-4.51153e-14
-5.42426e-11
-5.25537e-14
-5.57893e-11
-5.99582e-14
-5.7139e-11
-6.71804e-14
-5.82918e-11
-7.39963e-14
-5.92476e-11
-8.00206e-14
-6.00062e-11
-8.46012e-14
-6.05676e-11
-5.99745e-14
-6.09336e-11
-6.11103e-11
-5.58433e-14
1.21025e-15
-2.48892e-12
3.39906e-15
-7.24917e-12
5.56698e-15
-1.17958e-11
7.08841e-15
-1.61325e-11
7.63058e-15
-2.02626e-11
7.0648e-15
-2.41887e-11
5.40162e-15
-2.79129e-11
2.73277e-15
-3.14368e-11
-8.11545e-16
-3.47614e-11
-5.0911e-15
-3.78875e-11
-9.97236e-15
-4.08156e-11
-1.53361e-14
-4.35458e-11
-2.10783e-14
-4.60785e-11
-2.71071e-14
-4.84138e-11
-3.33372e-14
-5.05517e-11
-3.96836e-14
-5.24925e-11
-4.60574e-14
-5.42362e-11
-5.23632e-14
-5.5783e-11
-5.85028e-14
-5.71329e-11
-6.43868e-14
-5.82859e-11
-6.99669e-14
-5.9242e-11
-7.52946e-14
-6.00009e-11
-8.06149e-14
-6.05623e-11
-5.98045e-14
-6.09281e-11
-6.11063e-11
-6.38125e-14
9.18135e-16
-2.48984e-12
2.46007e-15
-7.25071e-12
3.81786e-15
-1.17972e-11
4.51655e-15
-1.61332e-11
4.32077e-15
-2.02624e-11
3.17e-15
-2.41876e-11
1.11444e-15
-2.79109e-11
-1.73608e-15
-3.14339e-11
-5.24672e-15
-3.47579e-11
-9.27981e-15
-3.78835e-11
-1.37068e-14
-4.08111e-11
-1.84123e-14
-4.35411e-11
-2.32933e-14
-4.60737e-11
-2.82545e-14
-4.84088e-11
-3.3203e-14
-5.05468e-11
-3.80439e-14
-5.24877e-11
-4.268e-14
-5.42316e-11
-4.70205e-14
-5.57786e-11
-5.10013e-14
-5.71289e-11
-5.46274e-14
-5.82823e-11
-5.80679e-14
-5.92385e-11
-6.18506e-14
-5.99971e-11
-6.71324e-14
-6.0557e-11
-5.09522e-14
-6.09179e-11
-6.10875e-11
-6.97148e-14
6.06578e-16
-2.49045e-12
1.47151e-15
-7.25158e-12
1.98972e-15
-1.17977e-11
1.8275e-15
-1.6133e-11
8.53068e-16
-2.02614e-11
-9.29382e-16
-2.41858e-11
-3.44e-15
-2.79084e-11
-6.56412e-15
-3.14308e-11
-1.01801e-14
-3.47543e-11
-1.41764e-14
-3.78795e-11
-1.84607e-14
-4.08069e-11
-2.2962e-14
-4.35366e-11
-2.763e-14
-4.6069e-11
-3.24308e-14
-4.8404e-11
-3.73418e-14
-5.05419e-11
-4.23471e-14
-5.24827e-11
-4.74341e-14
-5.42265e-11
-5.25936e-14
-5.57735e-11
-5.7825e-14
-5.71237e-11
-6.31523e-14
-5.8277e-11
-6.86421e-14
-5.92331e-11
-7.4399e-14
-5.99913e-11
-8.05181e-14
-6.05509e-11
-6.13341e-14
-6.09107e-11
-6.10765e-11
-7.22985e-14
2.8497e-16
-2.49073e-12
4.59273e-16
-7.25175e-12
1.22628e-16
-1.17973e-11
-9.1395e-16
-1.6132e-11
-2.68058e-15
-2.02597e-11
-5.11959e-15
-2.41833e-11
-8.13288e-15
-2.79053e-11
-1.16141e-14
-3.14273e-11
-1.54703e-14
-3.47504e-11
-1.96344e-14
-3.78753e-11
-2.40707e-14
-4.08024e-11
-2.8777e-14
-4.35319e-11
-3.37812e-14
-4.6064e-11
-3.91373e-14
-4.83987e-11
-4.4917e-14
-5.05361e-11
-5.11982e-14
-5.24764e-11
-5.80483e-14
-5.42196e-11
-6.55003e-14
-5.5766e-11
-7.35175e-14
-5.71157e-11
-8.19385e-14
-5.82685e-11
-9.03887e-14
-5.92246e-11
-9.81516e-14
-5.99836e-11
-1.03998e-13
-6.0545e-11
-7.71394e-14
-6.09112e-11
-6.10824e-11
-7.1243e-14
-6.54897e-18
-2.49072e-12
-4.60831e-16
-7.2513e-12
-1.56768e-15
-1.17962e-11
-3.36592e-15
-1.61302e-11
-5.79383e-15
-2.02572e-11
-8.74394e-15
-2.41804e-11
-1.21e-14
-2.7902e-11
-1.57612e-14
-3.14237e-11
-1.96564e-14
-3.47465e-11
-2.37502e-14
-3.78712e-11
-2.80438e-14
-4.07981e-11
-3.25728e-14
-4.35274e-11
-3.74013e-14
-4.60592e-11
-4.2614e-14
-4.83935e-11
-4.83031e-14
-5.05304e-11
-5.45505e-14
-5.24701e-11
-6.14011e-14
-5.42128e-11
-6.88288e-14
-5.57586e-11
-7.66931e-14
-5.71078e-11
-8.46918e-14
-5.82606e-11
-9.23125e-14
-5.9217e-11
-9.87849e-14
-5.99771e-11
-1.03038e-13
-6.05408e-11
-7.74921e-14
-6.09103e-11
-6.10902e-11
-6.96905e-14
-2.6804e-16
-2.49046e-12
-1.27572e-15
-7.25029e-12
-3.041e-15
-1.17945e-11
-5.46979e-15
-1.61278e-11
-8.41589e-15
-2.02543e-11
-1.17263e-14
-2.41771e-11
-1.52688e-14
-2.78984e-11
-1.89474e-14
-3.142e-11
-2.27073e-14
-3.47428e-11
-2.65341e-14
-3.78674e-11
-3.04495e-14
-4.07942e-11
-3.45045e-14
-4.35234e-11
-3.87716e-14
-4.60549e-11
-4.33361e-14
-4.83889e-11
-4.8283e-14
-5.05255e-11
-5.36809e-14
-5.24647e-11
-5.95577e-14
-5.42069e-11
-6.58694e-14
-5.57523e-11
-7.24634e-14
-5.71012e-11
-7.90441e-14
-5.8254e-11
-8.51507e-14
-5.92109e-11
-9.01548e-14
-5.99721e-11
-9.32954e-14
-6.05376e-11
-6.93925e-14
-6.09078e-11
-6.10919e-11
-6.77646e-14
-5.12311e-16
-2.48994e-12
-2.02061e-15
-7.24878e-12
-4.36834e-15
-1.17921e-11
-7.34091e-15
-1.61248e-11
-1.07181e-14
-2.02509e-11
-1.43102e-14
-2.41735e-11
-1.79758e-14
-2.78948e-11
-2.1627e-14
-3.14163e-11
-2.52264e-14
-3.47392e-11
-2.87791e-14
-3.78639e-11
-3.23227e-14
-4.07907e-11
-3.5918e-14
-4.35198e-11
-3.96408e-14
-4.60512e-11
-4.35751e-14
-4.8385e-11
-4.78065e-14
-5.05212e-11
-5.24141e-14
-5.24601e-11
-5.74579e-14
-5.42019e-11
-6.29563e-14
-5.57468e-11
-6.88518e-14
-5.70953e-11
-7.49605e-14
-5.82479e-11
-8.09101e-14
-5.92049e-11
-8.60935e-14
-5.99669e-11
-8.96558e-14
-6.05341e-11
-6.29461e-14
-6.0908e-11
-6.10958e-11
-5.89701e-14
-7.25652e-16
-2.48922e-12
-2.66179e-15
-7.24684e-12
-5.4912e-15
-1.17893e-11
-8.8886e-15
-1.61214e-11
-1.25668e-14
-2.02472e-11
-1.63026e-14
-2.41697e-11
-1.99444e-14
-2.78911e-11
-2.34079e-14
-3.14129e-11
-2.66637e-14
-3.47359e-11
-2.97227e-14
-3.78608e-11
-3.26205e-14
-4.07878e-11
-3.54043e-14
-4.3517e-11
-3.8123e-14
-4.60485e-11
-4.08225e-14
-4.83823e-11
-4.35445e-14
-5.05185e-11
-4.63283e-14
-5.24573e-11
-4.92148e-14
-5.4199e-11
-5.22483e-14
-5.57438e-11
-5.54713e-14
-5.70921e-11
-5.89089e-14
-5.82444e-11
-6.2539e-14
-5.92013e-11
-6.62557e-14
-5.99632e-11
-6.98613e-14
-6.05305e-11
-4.5969e-14
-6.09054e-11
-6.1095e-11
-4.6783e-14
-9.14014e-16
-2.4883e-12
-3.21009e-15
-7.24455e-12
-6.42015e-15
-1.17861e-11
-1.01172e-14
-1.61177e-11
-1.39533e-14
-2.02434e-11
-1.76754e-14
-2.4166e-11
-2.1122e-14
-2.78877e-11
-2.42103e-14
-3.14098e-11
-2.69154e-14
-3.47332e-11
-2.92493e-14
-3.78585e-11
-3.12431e-14
-4.07858e-11
-3.29286e-14
-4.35153e-11
-3.4327e-14
-4.60471e-11
-3.54454e-14
-4.83812e-11
-3.62781e-14
-5.05177e-11
-3.68161e-14
-5.24568e-11
-3.70637e-14
-5.41987e-11
-3.70631e-14
-5.57438e-11
-3.69279e-14
-5.70922e-11
-3.68835e-14
-5.82445e-11
-3.73103e-14
-5.92009e-11
-3.87644e-14
-5.99617e-11
-4.19501e-14
-6.05273e-11
-2.18728e-14
-6.0899e-11
-6.10814e-11
-3.54635e-14
-1.08172e-15
-2.48722e-12
-3.67356e-15
-7.24196e-12
-7.16244e-15
-1.17826e-11
-1.10281e-14
-1.61139e-11
-1.48705e-14
-2.02395e-11
-1.84139e-14
-2.41625e-11
-2.14948e-14
-2.78846e-11
-2.40375e-14
-3.14073e-11
-2.60314e-14
-3.47312e-11
-2.75096e-14
-3.7857e-11
-2.85203e-14
-4.07848e-11
-2.91113e-14
-4.35147e-11
-2.93205e-14
-4.60468e-11
-2.91741e-14
-4.83813e-11
-2.86905e-14
-5.05182e-11
-2.78917e-14
-5.24576e-11
-2.68229e-14
-5.41998e-11
-2.55802e-14
-5.5745e-11
-2.43478e-14
-5.70935e-11
-2.34389e-14
-5.82454e-11
-2.33384e-14
-5.9201e-11
-2.47544e-14
-5.99603e-11
-2.86117e-14
-6.05234e-11
-9.24853e-15
-6.08918e-11
-6.10711e-11
-1.95519e-14
-1.22019e-15
-2.486e-12
-4.02705e-15
-7.23915e-12
-7.66955e-15
-1.17789e-11
-1.15419e-14
-1.611e-11
-1.51993e-14
-2.02359e-11
-1.83515e-14
-2.41593e-11
-2.08357e-14
-2.78821e-11
-2.25916e-14
-3.14055e-11
-2.36385e-14
-3.47302e-11
-2.40376e-14
-3.78566e-11
-2.38663e-14
-4.07849e-11
-2.32049e-14
-4.35154e-11
-2.213e-14
-4.60479e-11
-2.07133e-14
-4.83827e-11
-1.9026e-14
-5.05199e-11
-1.71484e-14
-5.24595e-11
-1.51834e-14
-5.42018e-11
-1.32717e-14
-5.57469e-11
-1.16105e-14
-5.70951e-11
-1.04725e-14
-5.82465e-11
-1.02133e-14
-5.92012e-11
-1.12432e-14
-5.99593e-11
-1.40089e-14
-6.05207e-11
7.2027e-15
-6.08864e-11
-6.1065e-11
1.04833e-15
-1.32826e-15
-2.48467e-12
-4.26447e-15
-7.23621e-12
-7.92805e-15
-1.17753e-11
-1.16369e-14
-1.61063e-11
-1.49126e-14
-2.02326e-11
-1.74569e-14
-2.41568e-11
-1.91133e-14
-2.78805e-11
-1.98574e-14
-3.14048e-11
-1.97419e-14
-3.47303e-11
-1.88595e-14
-3.78575e-11
-1.73246e-14
-4.07865e-11
-1.52595e-14
-4.35174e-11
-1.27871e-14
-4.60504e-11
-1.00296e-14
-4.83855e-11
-7.11179e-15
-5.05228e-11
-4.16676e-15
-5.24624e-11
-1.34078e-15
-5.42046e-11
1.20502e-15
-5.57495e-11
3.29895e-15
-5.70972e-11
4.77e-15
-5.8248e-11
5.45805e-15
-5.92019e-11
5.21486e-15
-5.99591e-11
3.88626e-15
-6.05193e-11
2.79698e-14
-6.08839e-11
-6.10604e-11
2.34109e-14
-1.40276e-15
-2.48327e-12
-4.37897e-15
-7.23324e-12
-7.93036e-15
-1.17717e-11
-1.13107e-14
-1.61029e-11
-1.4016e-14
-2.02299e-11
-1.57432e-14
-2.41551e-11
-1.63734e-14
-2.78798e-11
-1.59127e-14
-3.14052e-11
-1.44442e-14
-3.47318e-11
-1.20968e-14
-3.78598e-11
-9.02385e-15
-4.07895e-11
-5.38677e-15
-4.35211e-11
-1.34648e-15
-4.60544e-11
2.9387e-15
-4.83898e-11
7.31088e-15
-5.05271e-11
1.16091e-14
-5.24667e-11
1.56671e-14
-5.42087e-11
1.93136e-14
-5.57531e-11
2.23782e-14
-5.71003e-11
2.47001e-14
-5.82503e-11
2.61385e-14
-5.92034e-11
2.65741e-14
-5.99595e-11
2.58991e-14
-6.05187e-11
5.08028e-14
-6.08822e-11
-6.10584e-11
4.87587e-14
-1.44983e-15
-2.48182e-12
-4.39654e-15
-7.23029e-12
-7.73691e-15
-1.17684e-11
-1.06733e-14
-1.61e-11
-1.26845e-14
-2.02279e-11
-1.34831e-14
-2.41543e-11
-1.29864e-14
-2.78803e-11
-1.12304e-14
-3.1407e-11
-8.33223e-15
-3.47347e-11
-4.45728e-15
-3.78637e-11
2.08041e-16
-4.07942e-11
5.47589e-15
-4.35263e-11
1.1167e-14
-4.60601e-11
1.71142e-14
-4.83957e-11
2.31614e-14
-5.05332e-11
2.91608e-14
-5.24727e-11
3.49687e-14
-5.42145e-11
4.04422e-14
-5.57586e-11
4.54347e-14
-5.71053e-11
4.97901e-14
-5.82547e-11
5.33338e-14
-5.92069e-11
5.58564e-14
-5.9962e-11
5.70991e-14
-6.05199e-11
8.31228e-14
-6.08816e-11
-6.10513e-11
7.60252e-14
-1.48279e-15
-2.48034e-12
-4.3694e-15
-7.2274e-12
-7.46566e-15
-1.17653e-11
-9.93393e-15
-1.60975e-11
-1.12521e-14
-2.02266e-11
-1.11751e-14
-2.41543e-11
-9.64437e-15
-2.78819e-11
-6.74207e-15
-3.14099e-11
-2.63407e-15
-3.47388e-11
2.46579e-15
-3.78688e-11
8.32742e-15
-4.08001e-11
1.47242e-14
-4.35327e-11
2.14437e-14
-4.60668e-11
2.82916e-14
-4.84026e-11
3.50916e-14
-5.054e-11
4.16831e-14
-5.24793e-11
4.79204e-14
-5.42207e-11
5.36733e-14
-5.57643e-11
5.88342e-14
-5.71104e-11
6.33318e-14
-5.82592e-11
6.71561e-14
-5.92107e-11
7.03975e-14
-5.99653e-11
7.33065e-14
-6.05228e-11
1.03171e-13
-6.08848e-11
-6.10531e-11
1.04995e-13
-1.51067e-15
-2.47883e-12
-4.3331e-15
-7.22458e-12
-7.19699e-15
-1.17624e-11
-9.23989e-15
-1.60954e-11
-9.95475e-15
-2.02259e-11
-9.12777e-15
-2.41552e-11
-6.74915e-15
-2.78842e-11
-2.95013e-15
-3.14137e-11
2.04859e-15
-3.47438e-11
7.98311e-15
-3.78747e-11
1.45782e-14
-4.08067e-11
2.1568e-14
-4.35397e-11
2.87074e-14
-4.6074e-11
3.57774e-14
-4.84096e-11
4.25868e-14
-5.05468e-11
4.89747e-14
-5.24857e-11
5.48151e-14
-5.42265e-11
6.00299e-14
-5.57696e-11
6.46114e-14
-5.7115e-11
6.86602e-14
-5.82632e-11
7.24412e-14
-5.92145e-11
7.64499e-14
-5.99693e-11
8.14648e-14
-6.05278e-11
1.15793e-13
-6.08925e-11
-6.10686e-11
1.3135e-13
-1.51086e-15
-2.47732e-12
-4.22707e-15
-7.22186e-12
-6.82435e-15
-1.17598e-11
-8.42973e-15
-1.60938e-11
-8.55591e-15
-2.02257e-11
-7.0153e-15
-2.41567e-11
-3.83884e-15
-2.78874e-11
8.02479e-16
-3.14183e-11
6.65538e-15
-3.47496e-11
1.34334e-14
-3.78815e-11
2.08513e-14
-4.08141e-11
2.86476e-14
-4.35475e-11
3.6597e-14
-4.60819e-11
4.45177e-14
-4.84175e-11
5.22733e-14
-5.05546e-11
5.97753e-14
-5.24932e-11
6.69856e-14
-5.42338e-11
7.39232e-14
-5.57765e-11
8.06722e-14
-5.71218e-11
8.73925e-14
-5.82699e-11
9.43283e-14
-5.92214e-11
1.01821e-13
-5.99768e-11
1.10363e-13
-6.05364e-11
1.46913e-13
-6.09023e-11
-6.1079e-11
1.57225e-13
-1.4859e-15
-2.47583e-12
-4.05184e-15
-7.2193e-12
-6.34247e-15
-1.17575e-11
-7.48456e-15
-1.60927e-11
-7.0188e-15
-2.02262e-11
-4.7876e-15
-2.41589e-11
-8.52199e-16
-2.78914e-11
4.58872e-15
-3.14238e-11
1.12652e-14
-3.47563e-11
1.88865e-14
-3.78891e-11
2.71764e-14
-4.08224e-11
3.58958e-14
-4.35562e-11
4.4854e-14
-4.60909e-11
5.39128e-14
-4.84266e-11
6.29845e-14
-5.05636e-11
7.20267e-14
-5.25022e-11
8.10342e-14
-5.42428e-11
9.00314e-14
-5.57855e-11
9.90637e-14
-5.71308e-11
1.08192e-13
-5.82791e-11
1.1749e-13
-5.92307e-11
1.27063e-13
-5.99863e-11
1.37074e-13
-6.05464e-11
1.74324e-13
-6.09129e-11
-6.10922e-11
1.87579e-13
-1.43827e-15
-2.47439e-12
-3.81019e-15
-7.21693e-12
-5.75016e-15
-1.17556e-11
-6.40007e-15
-1.6092e-11
-5.32996e-15
-2.02273e-11
-2.41639e-15
-2.41618e-11
2.25152e-15
-2.7896e-11
8.45487e-15
-3.143e-11
1.59142e-14
-3.47638e-11
2.43405e-14
-3.78976e-11
3.34695e-14
-4.08315e-11
4.30825e-14
-4.35658e-11
5.30152e-14
-4.61008e-11
6.31586e-14
-4.84368e-11
7.3453e-14
-5.05739e-11
8.38797e-14
-5.25127e-11
9.44491e-14
-5.42533e-11
1.0519e-13
-5.57962e-11
1.16145e-13
-5.71417e-11
1.27362e-13
-5.82903e-11
1.38909e-13
-5.92423e-11
1.50872e-13
-5.99983e-11
1.63338e-13
-6.05588e-11
2.03182e-13
-6.0926e-11
-6.11091e-11
2.2005e-13
-1.34114e-15
-2.47305e-12
-3.41602e-15
-7.21485e-12
-4.87327e-15
-1.17541e-11
-4.89701e-15
-1.6092e-11
-3.08356e-15
-2.02291e-11
6.5808e-16
-2.41656e-11
6.2154e-15
-2.79016e-11
1.33578e-14
-3.14371e-11
2.18057e-14
-3.47722e-11
3.12802e-14
-3.7907e-11
4.15359e-14
-4.08418e-11
5.23787e-14
-4.35767e-11
6.36727e-14
-4.61121e-11
7.53389e-14
-4.84484e-11
8.73475e-14
-5.05859e-11
9.97077e-14
-5.2525e-11
1.12455e-13
-5.42661e-11
1.25637e-13
-5.58094e-11
1.393e-13
-5.71554e-11
1.53467e-13
-5.83044e-11
1.68114e-13
-5.92569e-11
1.83133e-13
-6.00133e-11
1.98314e-13
-6.0574e-11
2.39798e-13
-6.09408e-11
-6.11205e-11
2.51191e-13
-1.19254e-15
-2.47186e-12
-2.85186e-15
-7.21319e-12
-3.67244e-15
-1.17533e-11
-2.88569e-15
-1.60928e-11
-1.36377e-16
-2.02318e-11
4.63212e-15
-2.41704e-11
1.12827e-14
-2.79082e-11
1.95725e-14
-3.14454e-11
2.92196e-14
-3.47819e-11
3.99497e-14
-3.79178e-11
5.15252e-14
-4.08533e-11
6.37589e-14
-4.35889e-11
7.65178e-14
-4.61249e-11
8.97174e-14
-4.84616e-11
1.03312e-13
-5.05995e-11
1.17281e-13
-5.2539e-11
1.31613e-13
-5.42804e-11
1.46293e-13
-5.58241e-11
1.61284e-13
-5.71704e-11
1.76512e-13
-5.83197e-11
1.91861e-13
-5.92723e-11
2.07169e-13
-6.00286e-11
2.22244e-13
-6.05891e-11
2.63886e-13
-6.09557e-11
-6.11368e-11
2.80191e-13
-9.99581e-16
-2.47086e-12
-2.13577e-15
-7.21206e-12
-2.17976e-15
-1.17533e-11
-4.20885e-16
-1.60946e-11
3.43623e-15
-2.02357e-11
9.40367e-15
-2.41763e-11
1.73145e-14
-2.79161e-11
2.69088e-14
-3.1455e-11
3.78967e-14
-3.47928e-11
5.00009e-14
-3.79299e-11
6.2982e-14
-4.08663e-11
7.66484e-14
-4.36026e-11
9.08564e-14
-4.61391e-11
1.05504e-13
-4.84763e-11
1.20518e-13
-5.06145e-11
1.35844e-13
-5.25543e-11
1.51431e-13
-5.4296e-11
1.67223e-13
-5.58399e-11
1.83158e-13
-5.71863e-11
1.99164e-13
-5.83357e-11
2.15177e-13
-5.92883e-11
2.31157e-13
-6.00446e-11
2.47107e-13
-6.0605e-11
2.89855e-13
-6.09717e-11
-6.11528e-11
3.05827e-13
-7.56701e-16
-2.4701e-12
-1.26314e-15
-7.21155e-12
-3.81714e-16
-1.17542e-11
2.51021e-15
-1.60975e-11
7.6411e-15
-2.02408e-11
1.4972e-14
-2.41837e-11
2.43021e-14
-2.79255e-11
3.53512e-14
-3.1466e-11
4.78194e-14
-3.48053e-11
6.14257e-14
-3.79435e-11
7.59287e-14
-4.08808e-11
9.11345e-14
-4.36178e-11
1.06896e-13
-4.61548e-11
1.23104e-13
-4.84925e-11
1.39678e-13
-5.06311e-11
1.56554e-13
-5.25712e-11
1.73675e-13
-5.43131e-11
1.90979e-13
-5.58572e-11
2.08398e-13
-5.72037e-11
2.25856e-13
-5.83531e-11
2.43269e-13
-5.93057e-11
2.60563e-13
-6.00619e-11
2.7769e-13
-6.06222e-11
3.21166e-13
-6.09884e-11
-6.1166e-11
3.34394e-13
-4.8364e-16
-2.46962e-12
-2.9476e-16
-7.21174e-12
1.59362e-15
-1.1756e-11
5.70283e-15
-1.61016e-11
1.21814e-14
-2.02473e-11
2.09316e-14
-2.41924e-11
3.17122e-14
-2.79363e-11
4.42178e-14
-3.14785e-11
5.81329e-14
-3.48192e-11
7.31666e-14
-3.79585e-11
8.90693e-14
-4.08967e-11
1.05638e-13
-4.36344e-11
1.22712e-13
-4.61719e-11
1.40167e-13
-4.85099e-11
1.57898e-13
-5.06488e-11
1.75814e-13
-5.25891e-11
1.93821e-13
-5.43311e-11
2.11816e-13
-5.58752e-11
2.29678e-13
-5.72216e-11
2.47275e-13
-5.83707e-11
2.64475e-13
-5.93229e-11
2.81183e-13
-6.00786e-11
2.97416e-13
-6.06384e-11
3.40447e-13
-6.10047e-11
-6.11841e-11
3.58602e-13
-1.92613e-16
-2.46943e-12
7.29126e-16
-7.21266e-12
3.65807e-15
-1.1759e-11
9.00514e-15
-1.61069e-11
1.68316e-14
-2.02551e-11
2.69757e-14
-2.42025e-11
3.91528e-14
-2.79484e-11
5.30293e-14
-3.14924e-11
6.82724e-14
-3.48345e-11
8.45794e-14
-3.79748e-11
1.01691e-13
-4.09138e-11
1.19393e-13
-4.36521e-11
1.37512e-13
-4.619e-11
1.55906e-13
-4.85283e-11
1.74452e-13
-5.06674e-11
1.93037e-13
-5.26077e-11
2.11546e-13
-5.43496e-11
2.29858e-13
-5.58935e-11
2.47843e-13
-5.72396e-11
2.65369e-13
-5.83883e-11
2.82317e-13
-5.93399e-11
2.98611e-13
-6.00949e-11
3.1427e-13
-6.06541e-11
3.56293e-13
-6.102e-11
-6.12e-11
3.72176e-13
1.07224e-16
-2.46953e-12
1.76172e-15
-7.21432e-12
5.71041e-15
-1.17629e-11
1.2246e-14
-1.61135e-11
2.13397e-14
-2.02642e-11
3.27665e-14
-2.4214e-11
4.62009e-14
-2.79619e-11
6.12857e-14
-3.15075e-11
7.7677e-14
-3.48509e-11
9.50686e-14
-3.79922e-11
1.13203e-13
-4.0932e-11
1.3187e-13
-4.36707e-11
1.50903e-13
-4.62091e-11
1.7017e-13
-4.85476e-11
1.89561e-13
-5.06868e-11
2.08985e-13
-5.26271e-11
2.28353e-13
-5.4369e-11
2.47581e-13
-5.59127e-11
2.66577e-13
-5.72586e-11
2.85234e-13
-5.84069e-11
3.03426e-13
-5.9358e-11
3.20982e-13
-6.01125e-11
3.37657e-13
-6.06707e-11
3.79553e-13
-6.10351e-11
-6.12121e-11
3.91679e-13
3.85933e-16
-2.46992e-12
2.70495e-15
-7.21663e-12
7.55401e-15
-1.17678e-11
1.5105e-14
-1.6121e-11
2.52399e-14
-2.02744e-11
3.76726e-14
-2.42264e-11
5.20406e-14
-2.79762e-11
6.79676e-14
-3.15234e-11
8.51034e-14
-3.4868e-11
1.03144e-13
-3.80102e-11
1.21839e-13
-4.09507e-11
1.40989e-13
-4.36899e-11
1.60439e-13
-4.62285e-11
1.80073e-13
-4.85672e-11
1.99796e-13
-5.07065e-11
2.19536e-13
-5.26469e-11
2.39221e-13
-5.43887e-11
2.5878e-13
-5.59323e-11
2.78122e-13
-5.72779e-11
2.97124e-13
-5.84259e-11
3.15613e-13
-5.93765e-11
3.33338e-13
-6.01302e-11
3.49941e-13
-6.06873e-11
3.91667e-13
-6.10501e-11
-6.12254e-11
4.04933e-13
6.29835e-16
-2.47055e-12
3.50559e-15
-7.21951e-12
9.07446e-15
-1.17733e-11
1.73913e-14
-1.61293e-11
2.82544e-14
-2.02852e-11
4.13247e-14
-2.42395e-11
5.62105e-14
-2.79911e-11
7.25251e-14
-3.15397e-11
8.99198e-14
-3.48854e-11
1.081e-13
-3.80284e-11
1.26828e-13
-4.09694e-11
1.4592e-13
-4.3709e-11
1.65236e-13
-4.62478e-11
1.84672e-13
-4.85867e-11
2.0415e-13
-5.0726e-11
2.23602e-13
-5.26663e-11
2.42968e-13
-5.44081e-11
2.62177e-13
-5.59515e-11
2.81138e-13
-5.72969e-11
2.9973e-13
-5.84445e-11
3.17797e-13
-5.93946e-11
3.35156e-13
-6.01475e-11
3.51627e-13
-6.07038e-11
3.93865e-13
-6.10656e-11
-6.12409e-11
4.09319e-13
8.35243e-16
-2.47139e-12
4.1472e-15
-7.22282e-12
1.02357e-14
-1.17794e-11
1.9046e-14
-1.61381e-11
3.0304e-14
-2.02965e-11
4.36301e-14
-2.42528e-11
5.86172e-14
-2.80061e-11
7.48815e-14
-3.1556e-11
9.20889e-14
-3.49026e-11
1.09967e-13
-3.80463e-11
1.28302e-13
-4.09877e-11
1.46937e-13
-4.37276e-11
1.65758e-13
-4.62667e-11
1.84687e-13
-4.86056e-11
2.03669e-13
-5.0745e-11
2.22664e-13
-5.26853e-11
2.4164e-13
-5.4427e-11
2.60557e-13
-5.59704e-11
2.79364e-13
-5.73157e-11
2.97994e-13
-5.84631e-11
3.16358e-13
-5.9413e-11
3.34361e-13
-6.01655e-11
3.51928e-13
-6.07214e-11
3.95743e-13
-6.10827e-11
-6.1258e-11
4.12858e-13
1.0057e-15
-2.47239e-12
4.64203e-15
-7.22646e-12
1.10637e-14
-1.17859e-11
2.01153e-14
-1.61472e-11
3.14631e-14
-2.03078e-11
4.47013e-14
-2.4266e-11
5.94226e-14
-2.80208e-11
7.526e-14
-3.15718e-11
9.19072e-14
-3.49192e-11
1.09124e-13
-3.80635e-11
1.26732e-13
-4.10053e-11
1.44607e-13
-4.37455e-11
1.62667e-13
-4.62847e-11
1.80863e-13
-4.86238e-11
1.9917e-13
-5.07633e-11
2.1758e-13
-5.27037e-11
2.36091e-13
-5.44455e-11
2.54701e-13
-5.5989e-11
2.73404e-13
-5.73344e-11
2.92177e-13
-5.84819e-11
3.10976e-13
-5.94318e-11
3.29732e-13
-6.01843e-11
3.48342e-13
-6.074e-11
3.9336e-13
-6.1101e-11
-6.12757e-11
4.11129e-13
1.14778e-15
-2.47354e-12
5.01565e-15
-7.23033e-12
1.16152e-14
-1.17925e-11
2.06985e-14
-1.61563e-11
3.18843e-14
-2.0319e-11
4.47543e-14