/*--------------------------------*- C++ -*----------------------------------*\
| =========                 |                                                 |
| \\      /  F ield         | OpenFOAM: The Open Source CFD Toolbox           |
|  \\    /   O peration     | Version:  2.4.0                                 |
|   \\  /    A nd           | Web:      www.OpenFOAM.org                      |
|    \\/     M anipulation  |                                                 |
\*---------------------------------------------------------------------------*/
FoamFile
{
    version     2.0;
    format      ascii;
    class       volScalarField;
    location    "0.01";
    object      T;
}
// * * * * * * * * * * * * * * * * * * * * * * * * * * * * * * * * * * * * * //

dimensions      [0 0 0 1 0 0 0];

internalField   nonuniform List<scalar> 
25915
(
-4.87739
-4.63248
-4.38859
-4.14637
-3.90646
-3.66946
-3.43594
-3.2064
-2.98128
-2.76096
-2.54572
-2.33578
-2.13126
-1.9322
-1.73857
-1.55024
-1.36702
-1.18865
-1.0148
-0.845092
-0.679082
-0.516258
-0.356021
-0.197005
-0.029993
-4.87737
-4.63244
-4.38851
-4.14625
-3.90631
-3.66928
-3.43573
-3.20617
-2.98104
-2.7607
-2.54546
-2.33552
-2.131
-1.93194
-1.73831
-1.54997
-1.36674
-1.18834
-1.01447
-0.844724
-0.67868
-0.515833
-0.355605
-0.196649
-0.0299181
-4.87736
-4.6324
-4.38846
-4.14619
-3.90624
-3.66922
-3.43567
-3.20612
-2.98099
-2.76067
-2.54544
-2.3355
-2.13099
-1.93193
-1.7383
-1.54996
-1.36671
-1.1883
-1.01441
-0.844642
-0.678569
-0.515691
-0.355431
-0.196459
-0.029872
-4.87736
-4.6324
-4.38845
-4.14619
-3.90625
-3.66923
-3.4357
-3.20616
-2.98105
-2.76074
-2.54553
-2.33561
-2.13111
-1.93208
-1.73845
-1.55012
-1.36688
-1.18847
-1.01455
-0.844759
-0.678646
-0.515719
-0.35541
-0.196381
-0.0298476
-4.87736
-4.6324
-4.38847
-4.14622
-3.90629
-3.66929
-3.43577
-3.20625
-2.98115
-2.76086
-2.54565
-2.33574
-2.13126
-1.93223
-1.73861
-1.55028
-1.36705
-1.18863
-1.01471
-0.844905
-0.678765
-0.515798
-0.355435
-0.196341
-0.0298291
-4.87736
-4.63241
-4.38849
-4.14624
-3.90632
-3.66933
-3.43582
-3.2063
-2.9812
-2.76091
-2.5457
-2.33579
-2.1313
-1.93227
-1.73866
-1.55033
-1.3671
-1.18869
-1.01477
-0.844951
-0.678797
-0.515809
-0.35541
-0.196263
-0.0298036
-4.87736
-4.63242
-4.38849
-4.14625
-3.90633
-3.66934
-3.43583
-3.2063
-2.98121
-2.76091
-2.5457
-2.33579
-2.1313
-1.93227
-1.73865
-1.55033
-1.3671
-1.18869
-1.01478
-0.844957
-0.678792
-0.515779
-0.355349
-0.196163
-0.0297732
-4.87736
-4.63241
-4.38848
-4.14624
-3.90631
-3.66931
-3.4358
-3.20626
-2.98116
-2.76085
-2.54564
-2.33572
-2.13123
-1.93221
-1.73861
-1.5503
-1.36708
-1.18869
-1.01478
-0.844962
-0.67879
-0.515761
-0.355298
-0.196069
-0.0297431
-4.87736
-4.6324
-4.38846
-4.14621
-3.90627
-3.66926
-3.43574
-3.2062
-2.98109
-2.76078
-2.54557
-2.33567
-2.13119
-1.93218
-1.7386
-1.55031
-1.36711
-1.18873
-1.01483
-0.845014
-0.678831
-0.515776
-0.355276
-0.195992
-0.0297146
-4.87735
-4.63238
-4.38843
-4.14617
-3.90622
-3.66921
-3.43568
-3.20614
-2.98104
-2.76074
-2.54554
-2.33565
-2.13119
-1.93221
-1.73864
-1.55038
-1.3672
-1.18884
-1.01496
-0.84514
-0.67894
-0.515848
-0.355292
-0.195942
-0.0296902
-4.87735
-4.63237
-4.38841
-4.14613
-3.90618
-3.66916
-3.43564
-3.20611
-2.98102
-2.76073
-2.54555
-2.33568
-2.13125
-1.9323
-1.73877
-1.55053
-1.36738
-1.18905
-1.01517
-0.845344
-0.679119
-0.51598
-0.355356
-0.195922
-0.029671
-4.87734
-4.63235
-4.38838
-4.14611
-3.90616
-3.66914
-3.43562
-3.20611
-2.98103
-2.76077
-2.54562
-2.33578
-2.13138
-1.93246
-1.73896
-1.55076
-1.36764
-1.18932
-1.01545
-0.845615
-0.679358
-0.516164
-0.355461
-0.195929
-0.0296554
-4.87734
-4.63234
-4.38837
-4.1461
-3.90615
-3.66915
-3.43564
-3.20614
-2.98109
-2.76086
-2.54573
-2.33593
-2.13156
-1.93267
-1.73921
-1.55103
-1.36794
-1.18963
-1.01576
-0.845915
-0.679624
-0.516371
-0.355583
-0.195942
-0.0296387
-4.87734
-4.63234
-4.38837
-4.1461
-3.90616
-3.66917
-3.43568
-3.2062
-2.98117
-2.76097
-2.54587
-2.33609
-2.13175
-1.93289
-1.73945
-1.5513
-1.36822
-1.18992
-1.01605
-0.846187
-0.679861
-0.51655
-0.35568
-0.195936
-0.0296173
-4.87734
-4.63234
-4.38838
-4.14611
-3.90618
-3.6692
-3.43573
-3.20627
-2.98126
-2.76107
-2.546
-2.33624
-2.13192
-1.93307
-1.73964
-1.55151
-1.36844
-1.19015
-1.01628
-0.846406
-0.680051
-0.51669
-0.355747
-0.195908
-0.029591
-4.87734
-4.63235
-4.38839
-4.14613
-3.90621
-3.66923
-3.43577
-3.20632
-2.98133
-2.76115
-2.54609
-2.33634
-2.13204
-1.93321
-1.7398
-1.55168
-1.36862
-1.19035
-1.01649
-0.846609
-0.680233
-0.516829
-0.355817
-0.195886
-0.0295651
-4.87734
-4.63235
-4.38839
-4.14613
-3.90622
-3.66925
-3.4358
-3.20636
-2.98137
-2.76121
-2.54616
-2.33643
-2.13214
-1.93333
-1.73994
-1.55185
-1.36882
-1.19057
-1.01673
-0.846857
-0.680467
-0.517022
-0.355938
-0.1959
-0.0295453
-4.87734
-4.63235
-4.38839
-4.14614
-3.90622
-3.66926
-3.43581
-3.20638
-2.98141
-2.76126
-2.54622
-2.33651
-2.13224
-1.93346
-1.7401
-1.55204
-1.36906
-1.19084
-1.01702
-0.847162
-0.680761
-0.517275
-0.356114
-0.195963
-0.0295342
-4.87734
-4.63235
-4.38839
-4.14613
-3.90622
-3.66926
-3.43582
-3.2064
-2.98144
-2.7613
-2.54629
-2.3366
-2.13236
-1.93361
-1.74029
-1.55227
-1.36932
-1.19114
-1.01734
-0.847485
-0.681065
-0.517531
-0.356288
-0.196027
-0.0295251
-4.87734
-4.63234
-4.38838
-4.14613
-3.90622
-3.66927
-3.43583
-3.20642
-2.98148
-2.76136
-2.54637
-2.33672
-2.13251
-1.9338
-1.74052
-1.55253
-1.36962
-1.19146
-1.01767
-0.847812
-0.681366
-0.517778
-0.356452
-0.196087
-0.0295162
-4.87734
-4.63234
-4.38838
-4.14612
-3.90622
-3.66928
-3.43586
-3.20647
-2.98154
-2.76146
-2.5465
-2.33687
-2.1327
-1.93402
-1.74078
-1.55283
-1.36994
-1.1918
-1.01802
-0.84816
-0.681691
-0.518053
-0.356646
-0.196172
-0.0295104
-4.87734
-4.63234
-4.38838
-4.14613
-3.90623
-3.6693
-3.4359
-3.20653
-2.98163
-2.76157
-2.54664
-2.33704
-2.1329
-1.93425
-1.74103
-1.55311
-1.37024
-1.19212
-1.01835
-0.848488
-0.681999
-0.518319
-0.356837
-0.196256
-0.0295035
-4.87734
-4.63234
-4.38839
-4.14614
-3.90626
-3.66934
-3.43596
-3.2066
-2.98173
-2.76169
-2.54678
-2.3372
-2.13308
-1.93444
-1.74124
-1.55333
-1.37047
-1.19237
-1.01861
-0.848744
-0.682242
-0.518527
-0.356985
-0.196311
-0.0294917
-4.87734
-4.63235
-4.3884
-4.14616
-3.90629
-3.66938
-3.43601
-3.20668
-2.98181
-2.76179
-2.54689
-2.33733
-2.13322
-1.93459
-1.7414
-1.5535
-1.37066
-1.19257
-1.01882
-0.848966
-0.682459
-0.518722
-0.35713
-0.196372
-0.0294814
-4.87734
-4.63236
-4.38841
-4.14618
-3.90632
-3.66942
-3.43606
-3.20674
-2.98189
-2.76188
-2.54699
-2.33743
-2.13333
-1.93472
-1.74155
-1.55366
-1.37084
-1.19277
-1.01905
-0.849201
-0.682694
-0.518935
-0.357295
-0.196455
-0.0294764
-4.87734
-4.63236
-4.38842
-4.1462
-3.90634
-3.66946
-3.43611
-3.2068
-2.98196
-2.76196
-2.54708
-2.33754
-2.13346
-1.93487
-1.74171
-1.55385
-1.37106
-1.19301
-1.0193
-0.849466
-0.682952
-0.519165
-0.357469
-0.196546
-0.0294751
-4.87735
-4.63237
-4.38843
-4.14622
-3.90637
-3.66949
-3.43616
-3.20686
-2.98203
-2.76204
-2.54719
-2.33767
-2.13361
-1.93504
-1.74192
-1.55409
-1.37133
-1.1933
-1.01961
-0.84978
-0.683253
-0.519429
-0.357668
-0.196655
-0.0294795
-4.87735
-4.63237
-4.38844
-4.14623
-3.90639
-3.66953
-3.43621
-3.20692
-2.98211
-2.76215
-2.54732
-2.33784
-2.13381
-1.93528
-1.74219
-1.5544
-1.37166
-1.19366
-1.01998
-0.850148
-0.683599
-0.519731
-0.357895
-0.196782
-0.029488
-4.87735
-4.63238
-4.38845
-4.14625
-3.90642
-3.66957
-3.43627
-3.20701
-2.98223
-2.7623
-2.5475
-2.33805
-2.13406
-1.93557
-1.74252
-1.55476
-1.37205
-1.19407
-1.0204
-0.850554
-0.683978
-0.520057
-0.358141
-0.196919
-0.0294975
-4.87735
-4.63239
-4.38847
-4.14627
-3.90646
-3.66963
-3.43635
-3.20711
-2.98237
-2.76247
-2.54771
-2.3383
-2.13435
-1.93589
-1.74287
-1.55514
-1.37245
-1.19447
-1.0208
-0.850944
-0.684335
-0.520361
-0.358361
-0.197025
-0.0295013
-4.87735
-4.63239
-4.38848
-4.1463
-3.9065
-3.6697
-3.43644
-3.20723
-2.98252
-2.76266
-2.54793
-2.33855
-2.13462
-1.93618
-1.74317
-1.55543
-1.37273
-1.19474
-1.02105
-0.851166
-0.684524
-0.520508
-0.358455
-0.19705
-0.0294905
-4.87736
-4.63241
-4.38851
-4.14634
-3.90656
-3.66977
-3.43653
-3.20735
-2.98266
-2.76281
-2.54809
-2.33871
-2.13478
-1.93633
-1.74331
-1.55556
-1.37285
-1.19484
-1.02114
-0.851242
-0.684588
-0.520554
-0.358472
-0.19702
-0.0294698
-4.87736
-4.63242
-4.38853
-4.14637
-3.9066
-3.66983
-3.4366
-3.20742
-2.98273
-2.76288
-2.54816
-2.33877
-2.13483
-1.93638
-1.74335
-1.55559
-1.37287
-1.19486
-1.02116
-0.851259
-0.684604
-0.520566
-0.358472
-0.196983
-0.0294496
-4.87736
-4.63243
-4.38854
-4.14639
-3.90662
-3.66985
-3.43662
-3.20745
-2.98275
-2.7629
-2.54817
-2.33877
-2.13482
-1.93636
-1.74331
-1.55554
-1.37281
-1.1948
-1.02109
-0.851201
-0.684555
-0.520527
-0.358436
-0.196934
-0.0294308
-4.87736
-4.63243
-4.38855
-4.1464
-3.90663
-3.66985
-3.43662
-3.20743
-2.98272
-2.76285
-2.5481
-2.33868
-2.13471
-1.93622
-1.74316
-1.55538
-1.37264
-1.19464
-1.02095
-0.851083
-0.684469
-0.52047
-0.358399
-0.196902
-0.0294192
-4.87736
-4.63242
-4.38854
-4.14638
-3.9066
-3.66981
-3.43656
-3.20736
-2.98263
-2.76273
-2.54797
-2.33853
-2.13455
-1.93606
-1.743
-1.55524
-1.37254
-1.19456
-1.0209
-0.851051
-0.684455
-0.520471
-0.358409
-0.196909
-0.0294168
-4.87736
-4.63241
-4.38851
-4.14634
-3.90655
-3.66974
-3.43648
-3.20725
-2.98251
-2.76261
-2.54784
-2.33841
-2.13444
-1.93598
-1.74295
-1.5552
-1.37252
-1.19455
-1.0209
-0.851074
-0.68449
-0.520513
-0.358449
-0.196937
-0.0294192
-4.87735
-4.63239
-4.38847
-4.14629
-3.90648
-3.66966
-3.43639
-3.20716
-2.98241
-2.76252
-2.54777
-2.33836
-2.13442
-1.93596
-1.74295
-1.55523
-1.37255
-1.1946
-1.02097
-0.85114
-0.684557
-0.520576
-0.358503
-0.196974
-0.0294243
-4.87734
-4.63236
-4.38844
-4.14624
-3.90642
-3.6696
-3.43632
-3.2071
-2.98238
-2.7625
-2.54776
-2.33837
-2.13445
-1.93602
-1.74303
-1.55532
-1.37266
-1.19472
-1.02108
-0.851251
-0.68466
-0.520668
-0.358578
-0.197024
-0.0294322
-4.87734
-4.63234
-4.38841
-4.14621
-3.90639
-3.66957
-3.43631
-3.2071
-2.98238
-2.76253
-2.54781
-2.33845
-2.13455
-1.93614
-1.74317
-1.55547
-1.37281
-1.19486
-1.02121
-0.851355
-0.68474
-0.520726
-0.358618
-0.197046
-0.029435
-4.87733
-4.63234
-4.3884
-4.1462
-3.90639
-3.66958
-3.43632
-3.20713
-2.98244
-2.76261
-2.54792
-2.33858
-2.13469
-1.93629
-1.74331
-1.5556
-1.37292
-1.19494
-1.02126
-0.851391
-0.684762
-0.520738
-0.358624
-0.197046
-0.0294346
-4.87733
-4.63234
-4.3884
-4.14621
-3.90641
-3.66961
-3.43637
-3.2072
-2.98252
-2.7627
-2.54801
-2.33866
-2.13477
-1.93635
-1.74336
-1.55563
-1.37294
-1.19495
-1.02125
-0.851362
-0.684719
-0.520691
-0.358584
-0.197019
-0.0294312
-4.87734
-4.63235
-4.38842
-4.14623
-3.90644
-3.66965
-3.43642
-3.20724
-2.98256
-2.76273
-2.54804
-2.33868
-2.13477
-1.93634
-1.74333
-1.55558
-1.37285
-1.19483
-1.02111
-0.851205
-0.684561
-0.520548
-0.358474
-0.196954
-0.0294228
-4.87734
-4.63236
-4.38843
-4.14625
-3.90646
-3.66966
-3.43643
-3.20725
-2.98255
-2.7627
-2.54799
-2.33861
-2.13467
-1.93621
-1.74316
-1.55537
-1.37262
-1.19457
-1.02084
-0.850932
-0.684301
-0.520321
-0.358301
-0.196853
-0.02941
-4.87734
-4.63236
-4.38843
-4.14625
-3.90645
-3.66964
-3.43639
-3.20718
-2.98246
-2.76258
-2.54783
-2.33841
-2.13444
-1.93595
-1.74287
-1.55506
-1.37228
-1.19423
-1.02049
-0.850588
-0.683981
-0.520047
-0.358097
-0.196741
-0.0293975
-4.87734
-4.63235
-4.38841
-4.14621
-3.90639
-3.66956
-3.43628
-3.20704
-2.98228
-2.76237
-2.54759
-2.33814
-2.13414
-1.93562
-1.74252
-1.5547
-1.37191
-1.19385
-1.02011
-0.850227
-0.683649
-0.519764
-0.357888
-0.196631
-0.029387
-4.87733
-4.63233
-4.38837
-4.14615
-3.9063
-3.66944
-3.43612
-3.20685
-2.98206
-2.76212
-2.54731
-2.33783
-2.13382
-1.93528
-1.74217
-1.55434
-1.37155
-1.19349
-1.01976
-0.849885
-0.683335
-0.519495
-0.35769
-0.19653
-0.029379
-4.87732
-4.63229
-4.38831
-4.14606
-3.90619
-3.6693
-3.43595
-3.20664
-2.98183
-2.76186
-2.54703
-2.33755
-2.13352
-1.93498
-1.74187
-1.55404
-1.37124
-1.19318
-1.01945
-0.849584
-0.683052
-0.51925
-0.357508
-0.196441
-0.0293734
-4.87731
-4.63226
-4.38825
-4.14597
-3.90607
-3.66915
-3.43578
-3.20646
-2.98162
-2.76164
-2.54681
-2.33732
-2.13329
-1.93475
-1.74164
-1.5538
-1.371
-1.19293
-1.01919
-0.849327
-0.682805
-0.519031
-0.357344
-0.196362
-0.0293699
-4.8773
-4.63222
-4.3882
-4.1459
-3.90597
-3.66904
-3.43565
-3.20632
-2.98147
-2.76149
-2.54666
-2.33717
-2.13314
-1.9346
-1.74148
-1.55363
-1.37082
-1.19273
-1.01898
-0.849108
-0.682587
-0.518834
-0.357194
-0.196292
-0.0293682
-4.87729
-4.6322
-4.38816
-4.14585
-3.90591
-3.66896
-3.43557
-3.20623
-2.98139
-2.7614
-2.54656
-2.33707
-2.13304
-1.93449
-1.74136
-1.55349
-1.37067
-1.19256
-1.01879
-0.848902
-0.682379
-0.518642
-0.357047
-0.196226
-0.0293675
-4.87728
-4.63219
-4.38814
-4.14582
-3.90588
-3.66893
-3.43553
-3.20618
-2.98133
-2.76134
-2.5465
-2.337
-2.13295
-1.93439
-1.74124
-1.55336
-1.37051
-1.19238
-1.01859
-0.848681
-0.682155
-0.518436
-0.35689
-0.196156
-0.0293671
-4.87728
-4.63218
-4.38813
-4.14581
-3.90587
-3.66891
-3.4355
-3.20615
-2.98129
-2.76129
-2.54643
-2.33692
-2.13286
-1.93427
-1.7411
-1.55319
-1.37032
-1.19216
-1.01835
-0.848432
-0.681907
-0.518211
-0.35672
-0.196083
-0.0293668
-4.87728
-4.63218
-4.38813
-4.14581
-3.90586
-3.66889
-3.43548
-3.20611
-2.98124
-2.76122
-2.54634
-2.3368
-2.13272
-1.93411
-1.74092
-1.55299
-1.37009
-1.19191
-1.01808
-0.848157
-0.681638
-0.517971
-0.356541
-0.196008
-0.0293667
-4.87728
-4.63218
-4.38813
-4.1458
-3.90584
-3.66886
-3.43543
-3.20604
-2.98115
-2.76111
-2.54621
-2.33665
-2.13254
-1.93391
-1.7407
-1.55275
-1.36983
-1.19164
-1.0178
-0.847869
-0.681359
-0.517723
-0.356357
-0.195931
-0.0293667
-4.87728
-4.63218
-4.38812
-4.14577
-3.9058
-3.6688
-3.43535
-3.20594
-2.98103
-2.76096
-2.54604
-2.33646
-2.13234
-1.93369
-1.74047
-1.5525
-1.36957
-1.19137
-1.01752
-0.847592
-0.681091
-0.517484
-0.356178
-0.195856
-0.0293668
-4.87728
-4.63216
-4.38809
-4.14573
-3.90574
-3.66873
-3.43525
-3.20583
-2.98089
-2.76081
-2.54587
-2.33627
-2.13214
-1.93348
-1.74024
-1.55227
-1.36934
-1.19113
-1.01727
-0.84734
-0.680846
-0.517261
-0.356007
-0.195783
-0.0293669
-4.87727
-4.63215
-4.38806
-4.14569
-3.90568
-3.66864
-3.43515
-3.2057
-2.98075
-2.76066
-2.5457
-2.3361
-2.13196
-1.93329
-1.74005
-1.55207
-1.36913
-1.19092
-1.01705
-0.847116
-0.680623
-0.517055
-0.355843
-0.195705
-0.0293674
-4.87726
-4.63213
-4.38803
-4.14564
-3.90561
-3.66856
-3.43505
-3.20559
-2.98063
-2.76053
-2.54557
-2.33596
-2.13181
-1.93314
-1.73989
-1.55191
-1.36896
-1.19073
-1.01686
-0.846918
-0.680424
-0.516866
-0.355688
-0.195623
-0.0293678
-4.87726
-4.63211
-4.388
-4.1456
-3.90556
-3.66849
-3.43498
-3.20551
-2.98054
-2.76043
-2.54546
-2.33585
-2.13169
-1.93302
-1.73977
-1.55177
-1.36881
-1.19058
-1.0167
-0.846741
-0.680242
-0.516691
-0.355541
-0.195542
-0.0293667
-4.87726
-4.6321
-4.38798
-4.14557
-3.90552
-3.66845
-3.43493
-3.20545
-2.98048
-2.76036
-2.54539
-2.33577
-2.13161
-1.93292
-1.73966
-1.55166
-1.36868
-1.19044
-1.01654
-0.846578
-0.680074
-0.516527
-0.355402
-0.19546
-0.0293642
-4.87725
-4.63209
-4.38797
-4.14555
-3.9055
-3.66843
-3.4349
-3.20542
-2.98044
-2.76031
-2.54534
-2.33571
-2.13154
-1.93284
-1.73957
-1.55155
-1.36857
-1.19031
-1.01641
-0.846433
-0.679923
-0.51638
-0.355274
-0.195381
-0.0293606
-4.87725
-4.63209
-4.38796
-4.14555
-3.90549
-3.66842
-3.43488
-3.2054
-2.98041
-2.76028
-2.5453
-2.33566
-2.13147
-1.93277
-1.73948
-1.55146
-1.36847
-1.1902
-1.01629
-0.846316
-0.679805
-0.516264
-0.355172
-0.195315
-0.0293576
-4.87725
-4.63209
-4.38797
-4.14555
-3.90549
-3.66841
-3.43487
-3.20539
-2.98039
-2.76025
-2.54526
-2.33561
-2.13142
-1.93271
-1.73941
-1.55138
-1.36839
-1.19012
-1.01621
-0.846232
-0.67972
-0.516181
-0.355098
-0.195265
-0.0293556
-4.87726
-4.6321
-4.38797
-4.14555
-3.90549
-3.66841
-3.43486
-3.20537
-2.98036
-2.76022
-2.54522
-2.33556
-2.13136
-1.93264
-1.73934
-1.55131
-1.36832
-1.19005
-1.01614
-0.846164
-0.679654
-0.516116
-0.355038
-0.195222
-0.0293538
-4.87726
-4.6321
-4.38797
-4.14555
-3.90548
-3.66839
-3.43485
-3.20534
-2.98033
-2.76018
-2.54517
-2.33551
-2.1313
-1.93258
-1.73928
-1.55124
-1.36825
-1.18999
-1.01608
-0.84611
-0.679603
-0.516068
-0.354993
-0.195188
-0.0293528
-4.87726
-4.63209
-4.38796
-4.14554
-3.90547
-3.66838
-3.43482
-3.20532
-2.9803
-2.76014
-2.54513
-2.33546
-2.13125
-1.93252
-1.73921
-1.55118
-1.36819
-1.18993
-1.01604
-0.846076
-0.679576
-0.516045
-0.354972
-0.19517
-0.0293534
-4.87725
-4.63209
-4.38796
-4.14553
-3.90546
-3.66836
-3.4348
-3.20529
-2.98027
-2.7601
-2.54508
-2.33541
-2.13119
-1.93247
-1.73916
-1.55113
-1.36815
-1.1899
-1.01602
-0.846064
-0.679571
-0.516042
-0.354968
-0.195165
-0.0293552
-4.87725
-4.63209
-4.38795
-4.14552
-3.90544
-3.66834
-3.43478
-3.20526
-2.98024
-2.76007
-2.54505
-2.33537
-2.13115
-1.93242
-1.73912
-1.5511
-1.36813
-1.18989
-1.01602
-0.846076
-0.679594
-0.51607
-0.354992
-0.195177
-0.0293588
-4.87725
-4.63208
-4.38794
-4.14551
-3.90543
-3.66833
-3.43476
-3.20525
-2.98022
-2.76005
-2.54503
-2.33535
-2.13113
-1.9324
-1.73911
-1.55109
-1.36812
-1.1899
-1.01604
-0.846117
-0.679647
-0.516127
-0.355043
-0.195207
-0.0293646
-4.87725
-4.63208
-4.38794
-4.1455
-3.90542
-3.66832
-3.43475
-3.20524
-2.98021
-2.76005
-2.54502
-2.33534
-2.13113
-1.9324
-1.73911
-1.5511
-1.36814
-1.18993
-1.01609
-0.846184
-0.679727
-0.516213
-0.355119
-0.195255
-0.0293728
-4.87725
-4.63208
-4.38793
-4.1455
-3.90542
-3.66832
-3.43476
-3.20524
-2.98022
-2.76005
-2.54503
-2.33535
-2.13113
-1.93241
-1.73912
-1.55112
-1.36817
-1.18998
-1.01616
-0.84627
-0.679828
-0.51632
-0.355216
-0.19532
-0.0293834
-4.87725
-4.63208
-4.38793
-4.1455
-3.90542
-3.66833
-3.43477
-3.20526
-2.98023
-2.76007
-2.54504
-2.33536
-2.13115
-1.93243
-1.73914
-1.55114
-1.36821
-1.19003
-1.01623
-0.846365
-0.679942
-0.516443
-0.355331
-0.195401
-0.0293968
-4.87725
-4.63208
-4.38794
-4.1455
-3.90543
-3.66834
-3.43478
-3.20527
-2.98025
-2.76009
-2.54506
-2.33538
-2.13116
-1.93244
-1.73916
-1.55117
-1.36825
-1.19008
-1.0163
-0.846462
-0.680061
-0.516575
-0.355459
-0.195497
-0.0294129
-4.87725
-4.63208
-4.38794
-4.14551
-3.90544
-3.66835
-3.4348
-3.20529
-2.98027
-2.7601
-2.54507
-2.33539
-2.13117
-1.93245
-1.73916
-1.55118
-1.36827
-1.19013
-1.01637
-0.846555
-0.68018
-0.516712
-0.355597
-0.195604
-0.0294315
-4.87725
-4.63208
-4.38794
-4.14551
-3.90545
-3.66836
-3.4348
-3.2053
-2.98027
-2.7601
-2.54507
-2.33538
-2.13116
-1.93244
-1.73916
-1.55118
-1.36829
-1.19016
-1.01643
-0.846647
-0.680303
-0.516857
-0.355746
-0.195725
-0.0294525
-4.87725
-4.63208
-4.38794
-4.14551
-3.90545
-3.66836
-3.43481
-3.2053
-2.98027
-2.7601
-2.54507
-2.33538
-2.13115
-1.93243
-1.73915
-1.55119
-1.36831
-1.1902
-1.0165
-0.846748
-0.680436
-0.517015
-0.35591
-0.195859
-0.0294763
-4.87725
-4.63207
-4.38794
-4.14551
-3.90544
-3.66836
-3.4348
-3.2053
-2.98027
-2.76009
-2.54506
-2.33537
-2.13114
-1.93242
-1.73915
-1.5512
-1.36833
-1.19026
-1.01658
-0.846862
-0.680584
-0.517189
-0.35609
-0.19601
-0.0295032
-4.87725
-4.63207
-4.38793
-4.1455
-3.90544
-3.66835
-3.4348
-3.20529
-2.98027
-2.76009
-2.54505
-2.33536
-2.13114
-1.93242
-1.73916
-1.55122
-1.36837
-1.19032
-1.01667
-0.846985
-0.68074
-0.517372
-0.356282
-0.196172
-0.029533
-4.87724
-4.63207
-4.38792
-4.1455
-3.90543
-3.66834
-3.43479
-3.20529
-2.98026
-2.76009
-2.54505
-2.33536
-2.13114
-1.93243
-1.73918
-1.55125
-1.36841
-1.19038
-1.01676
-0.847107
-0.680896
-0.517557
-0.356477
-0.196344
-0.0295656
-4.87724
-4.63206
-4.38792
-4.14549
-3.90543
-3.66834
-3.43479
-3.20529
-2.98027
-2.76009
-2.54506
-2.33537
-2.13115
-1.93244
-1.7392
-1.55127
-1.36845
-1.19044
-1.01685
-0.847224
-0.681047
-0.517737
-0.356673
-0.196522
-0.0296006
-4.87724
-4.63206
-4.38791
-4.14548
-3.90542
-3.66834
-3.4348
-3.20529
-2.98027
-2.7601
-2.54506
-2.33538
-2.13116
-1.93246
-1.73921
-1.5513
-1.36849
-1.1905
-1.01693
-0.847336
-0.681192
-0.517914
-0.356868
-0.196705
-0.0296378
-4.87724
-4.63205
-4.38791
-4.14548
-3.90542
-3.66834
-3.4348
-3.2053
-2.98028
-2.7601
-2.54507
-2.33539
-2.13117
-1.93247
-1.73923
-1.55133
-1.36853
-1.19055
-1.01701
-0.847443
-0.681332
-0.518086
-0.357061
-0.196892
-0.0296769
-4.87724
-4.63205
-4.3879
-4.14548
-3.90542
-3.66834
-3.4348
-3.2053
-2.98028
-2.76011
-2.54508
-2.33539
-2.13118
-1.93248
-1.73925
-1.55135
-1.36857
-1.19061
-1.01708
-0.847543
-0.681463
-0.518247
-0.357245
-0.197075
-0.0297165
-4.87724
-4.63205
-4.3879
-4.14548
-3.90542
-3.66834
-3.4348
-3.20531
-2.98029
-2.76012
-2.54508
-2.3354
-2.13119
-1.93249
-1.73926
-1.55137
-1.3686
-1.19065
-1.01714
-0.84763
-0.681577
-0.518391
-0.357412
-0.197245
-0.0297555
-4.87724
-4.63204
-4.3879
-4.14547
-3.90542
-3.66834
-3.4348
-3.20531
-2.98029
-2.76012
-2.54508
-2.3354
-2.13119
-1.9325
-1.73927
-1.55138
-1.36861
-1.19068
-1.01719
-0.847695
-0.68167
-0.518513
-0.357558
-0.197396
-0.0297959
-4.87724
-4.63204
-4.38789
-4.14547
-3.90541
-3.66834
-3.4348
-3.2053
-2.98028
-2.76011
-2.54507
-2.33539
-2.13118
-1.93248
-1.73926
-1.55137
-1.36861
-1.19068
-1.01721
-0.847735
-0.681737
-0.518609
-0.357681
-0.19753
-0.0298333
-4.87723
-4.63204
-4.38789
-4.14546
-3.9054
-3.66833
-3.43478
-3.20528
-2.98026
-2.76008
-2.54505
-2.33536
-2.13114
-1.93245
-1.73922
-1.55134
-1.36859
-1.19066
-1.0172
-0.847749
-0.681776
-0.518679
-0.357782
-0.197647
-0.029868
-4.87723
-4.63203
-4.38788
-4.14545
-3.90539
-3.66831
-3.43476
-3.20526
-2.98023
-2.76005
-2.545
-2.33531
-2.13109
-1.93239
-1.73917
-1.55129
-1.36854
-1.19062
-1.01717
-0.847739
-0.68179
-0.518724
-0.35786
-0.197748
-0.0298998
-4.87723
-4.63202
-4.38786
-4.14543
-3.90537
-3.66828
-3.43473
-3.20522
-2.98018
-2.75999
-2.54494
-2.33524
-2.13102
-1.93232
-1.7391
-1.55122
-1.36847
-1.19057
-1.01713
-0.847709
-0.681783
-0.518746
-0.357916
-0.197832
-0.0299288
-4.87723
-4.63201
-4.38785
-4.14541
-3.90534
-3.66825
-3.43469
-3.20516
-2.98012
-2.75993
-2.54487
-2.33517
-2.13094
-1.93224
-1.73902
-1.55114
-1.3684
-1.1905
-1.01707
-0.847664
-0.681759
-0.51875
-0.357953
-0.197901
-0.0299548
-4.87722
-4.632
-4.38783
-4.14538
-3.90531
-3.6682
-3.43463
-3.2051
-2.98005
-2.75985
-2.54479
-2.33508
-2.13086
-1.93216
-1.73893
-1.55106
-1.36832
-1.19043
-1.01701
-0.847616
-0.681728
-0.518743
-0.357977
-0.197956
-0.0299779
-4.87722
-4.63199
-4.38781
-4.14535
-3.90527
-3.66816
-3.43458
-3.20504
-2.97998
-2.75978
-2.54471
-2.335
-2.13078
-1.93208
-1.73886
-1.55099
-1.36826
-1.19037
-1.01696
-0.847574
-0.681697
-0.518731
-0.357991
-0.198001
-0.0299981
-4.87721
-4.63198
-4.38779
-4.14533
-3.90523
-3.66811
-3.43453
-3.20498
-2.97992
-2.75971
-2.54465
-2.33494
-2.13072
-1.93202
-1.73881
-1.55095
-1.36822
-1.19033
-1.01692
-0.847539
-0.681668
-0.518714
-0.357996
-0.198034
-0.0300152
-4.87721
-4.63197
-4.38777
-4.1453
-3.9052
-3.66807
-3.43448
-3.20493
-2.97987
-2.75966
-2.54459
-2.33489
-2.13067
-1.93198
-1.73877
-1.55091
-1.36819
-1.1903
-1.01689
-0.847505
-0.681636
-0.518689
-0.357987
-0.19805
-0.030028
-4.87721
-4.63196
-4.38776
-4.14528
-3.90517
-3.66804
-3.43444
-3.20489
-2.97983
-2.75961
-2.54455
-2.33485
-2.13064
-1.93195
-1.73874
-1.55088
-1.36816
-1.19027
-1.01685
-0.847466
-0.681594
-0.51865
-0.357963
-0.198052
-0.0300367
-4.8772
-4.63195
-4.38774
-4.14526
-3.90515
-3.66801
-3.43441
-3.20486
-2.97979
-2.75958
-2.54452
-2.33482
-2.1306
-1.93192
-1.73872
-1.55086
-1.36813
-1.19024
-1.01682
-0.847421
-0.681542
-0.518597
-0.357921
-0.198037
-0.0300412
-4.8772
-4.63195
-4.38773
-4.14525
-3.90513
-3.66799
-3.43439
-3.20483
-2.97976
-2.75954
-2.54448
-2.33478
-2.13057
-1.93189
-1.73869
-1.55083
-1.3681
-1.19021
-1.01678
-0.847373
-0.681486
-0.518538
-0.35787
-0.198012
-0.0300424
-4.8772
-4.63194
-4.38773
-4.14523
-3.90511
-3.66797
-3.43436
-3.2048
-2.97972
-2.75951
-2.54444
-2.33474
-2.13053
-1.93185
-1.73865
-1.5508
-1.36807
-1.19017
-1.01674
-0.847326
-0.68143
-0.518478
-0.357815
-0.19798
-0.0300412
-4.8772
-4.63194
-4.38772
-4.14522
-3.90509
-3.66794
-3.43433
-3.20476
-2.97968
-2.75946
-2.5444
-2.3347
-2.13049
-1.93181
-1.73862
-1.55076
-1.36804
-1.19014
-1.01671
-0.847284
-0.681378
-0.518417
-0.357756
-0.19794
-0.0300369
-4.8772
-4.63193
-4.38771
-4.1452
-3.90507
-3.66791
-3.43429
-3.20472
-2.97964
-2.75942
-2.54435
-2.33466
-2.13045
-1.93178
-1.73859
-1.55075
-1.36803
-1.19013
-1.01669
-0.84726
-0.68134
-0.518364
-0.357699
-0.197897
-0.0300299
-4.8772
-4.63192
-4.38769
-4.14519
-3.90504
-3.66788
-3.43425
-3.20468
-2.9796
-2.75938
-2.54432
-2.33463
-2.13044
-1.93177
-1.73859
-1.55076
-1.36804
-1.19015
-1.0167
-0.84726
-0.681325
-0.518333
-0.357653
-0.197857
-0.0300223
-4.87719
-4.63192
-4.38768
-4.14517
-3.90502
-3.66786
-3.43423
-3.20466
-2.97958
-2.75936
-2.54431
-2.33463
-2.13045
-1.9318
-1.73863
-1.5508
-1.3681
-1.19021
-1.01675
-0.847301
-0.681344
-0.518326
-0.357626
-0.197824
-0.0300135
-4.87719
-4.63191
-4.38768
-4.14516
-3.90501
-3.66784
-3.43422
-3.20465
-2.97958
-2.75937
-2.54433
-2.33467
-2.1305
-1.93186
-1.73871
-1.55089
-1.36819
-1.1903
-1.01685
-0.847379
-0.681397
-0.518346
-0.357614
-0.197795
-0.0300037
-4.87719
-4.63191
-4.38767
-4.14516
-3.90501
-3.66784
-3.43422
-3.20466
-2.9796
-2.75941
-2.54438
-2.33473
-2.13058
-1.93196
-1.73882
-1.55101
-1.36832
-1.19044
-1.01697
-0.847485
-0.681474
-0.518386
-0.357615
-0.197771
-0.0299928
-4.87719
-4.63191
-4.38768
-4.14516
-3.90502
-3.66786
-3.43425
-3.20469
-2.97964
-2.75947
-2.54446
-2.33482
-2.13068
-1.93208
-1.73895
-1.55116
-1.36848
-1.19059
-1.01712
-0.847614
-0.681572
-0.518443
-0.357627
-0.197749
-0.0299802
-4.8772
-4.63192
-4.38769
-4.14518
-3.90504
-3.66789
-3.43428
-3.20474
-2.97971
-2.75955
-2.54455
-2.33493
-2.13081
-1.93222
-1.73911
-1.55133
-1.36865
-1.19076
-1.01729
-0.847763
-0.68169
-0.518517
-0.35765
-0.19773
-0.0299666
-4.8772
-4.63193
-4.3877
-4.1452
-3.90507
-3.66792
-3.43433
-3.20481
-2.97979
-2.75964
-2.54466
-2.33506
-2.13096
-1.93238
-1.73929
-1.55152
-1.36885
-1.19096
-1.01748
-0.847935
-0.68183
-0.51861
-0.357686
-0.197714
-0.0299516
-4.8772
-4.63194
-4.38772
-4.14523
-3.9051
-3.66797
-3.4344
-3.20488
-2.97988
-2.75975
-2.54479
-2.33521
-2.13112
-1.93257
-1.73948
-1.55173
-1.36907
-1.19118
-1.01769
-0.848132
-0.681994
-0.518725
-0.357739
-0.197702
-0.0299375
-4.87721
-4.63195
-4.38774
-4.14526
-3.90515
-3.66803
-3.43447
-3.20497
-2.97999
-2.75988
-2.54494
-2.33538
-2.13131
-1.93277
-1.7397
-1.55196
-1.3693
-1.19143
-1.01793
-0.848349
-0.682179
-0.51886
-0.357806
-0.197695
-0.029924
-4.87721
-4.63197
-4.38777
-4.14529
-3.9052
-3.66809
-3.43455
-3.20507
-2.9801
-2.76002
-2.5451
-2.33555
-2.1315
-1.93298
-1.73993
-1.5522
-1.36955
-1.19167
-1.01817
-0.848576
-0.682374
-0.519006
-0.357884
-0.197693
-0.0299097
-4.87722
-4.63198
-4.38779
-4.14533
-3.90525
-3.66816
-3.43463
-3.20518
-2.98023
-2.76016
-2.54526
-2.33574
-2.1317
-1.9332
-1.74016
-1.55244
-1.3698
-1.19192
-1.01842
-0.848807
-0.682575
-0.519159
-0.357969
-0.197695
-0.0298948
-4.87722
-4.632
-4.38782
-4.14537
-3.9053
-3.66823
-3.43472
-3.20528
-2.98036
-2.76031
-2.54543
-2.33592
-2.1319
-1.93341
-1.74039
-1.55268
-1.37004
-1.19217
-1.01866
-0.849038
-0.68278
-0.519319
-0.358062
-0.197704
-0.0298797
-4.87723
-4.63202
-4.38785
-4.14542
-3.90536
-3.66831
-3.43481
-3.20539
-2.98048
-2.76045
-2.54559
-2.3361
-2.1321
-1.93362
-1.74061
-1.55291
-1.37028
-1.19241
-1.0189
-0.849268
-0.682987
-0.519485
-0.358164
-0.197719
-0.0298648
-4.87723
-4.63203
-4.38788
-4.14546
-3.90542
-3.66838
-3.4349
-3.2055
-2.98061
-2.76059
-2.54575
-2.33627
-2.13229
-1.93382
-1.74082
-1.55313
-1.37052
-1.19265
-1.01914
-0.849495
-0.683194
-0.519654
-0.358272
-0.19774
-0.0298504
-4.87724
-4.63205
-4.38791
-4.1455
-3.90547
-3.66845
-3.43499
-3.2056
-2.98073
-2.76073
-2.5459
-2.33644
-2.13247
-1.93402
-1.74103
-1.55335
-1.37074
-1.19288
-1.01937
-0.84972
-0.683401
-0.519827
-0.358387
-0.19777
-0.0298369
-4.87724
-4.63207
-4.38794
-4.14554
-3.90553
-3.66852
-3.43507
-3.2057
-2.98085
-2.76087
-2.54605
-2.33661
-2.13265
-1.93421
-1.74123
-1.55356
-1.37096
-1.19311
-1.01959
-0.84994
-0.683606
-0.520001
-0.358507
-0.197806
-0.0298247
-4.87725
-4.63208
-4.38796
-4.14558
-3.90558
-3.66858
-3.43516
-3.2058
-2.98096
-2.761
-2.5462
-2.33677
-2.13283
-1.9344
-1.74143
-1.55377
-1.37118
-1.19333
-1.01981
-0.850155
-0.683808
-0.520174
-0.35863
-0.19785
-0.0298141
-4.87725
-4.63209
-4.38799
-4.14561
-3.90563
-3.66865
-3.43524
-3.2059
-2.98108
-2.76113
-2.54635
-2.33693
-2.133
-1.93459
-1.74163
-1.55397
-1.37138
-1.19354
-1.02003
-0.850364
-0.684005
-0.520347
-0.358757
-0.197902
-0.0298054
-4.87726
-4.63211
-4.38801
-4.14565
-3.90568
-3.66872
-3.43532
-3.206
-2.98119
-2.76126
-2.54649
-2.33709
-2.13317
-1.93477
-1.74182
-1.55417
-1.37159
-1.19374
-1.02023
-0.850565
-0.684195
-0.520516
-0.358884
-0.197958
-0.0297982
-4.87726
-4.63212
-4.38804
-4.14569
-3.90573
-3.66878
-3.4354
-3.2061
-2.9813
-2.76139
-2.54663
-2.33724
-2.13334
-1.93495
-1.742
-1.55436
-1.37178
-1.19394
-1.02042
-0.850755
-0.684376
-0.520677
-0.359007
-0.198017
-0.0297924
-4.87727
-4.63214
-4.38806
-4.14572
-3.90578
-3.66885
-3.43548
-3.20619
-2.98141
-2.76151
-2.54677
-2.3374
-2.1335
-1.93512
-1.74218
-1.55454
-1.37197
-1.19412
-1.02061
-0.850933
-0.684545
-0.520828
-0.359125
-0.198077
-0.0297876
-4.87727
-4.63215
-4.38809
-4.14576
-3.90583
-3.66891
-3.43556
-3.20629
-2.98152
-2.76163
-2.54691
-2.33754
-2.13366
-1.93528
-1.74235
-1.55472
-1.37214
-1.19429
-1.02077
-0.851093
-0.684696
-0.520964
-0.359232
-0.198131
-0.0297838
-4.87728
-4.63216
-4.38811
-4.1458
-3.90588
-3.66897
-3.43564
-3.20638
-2.98162
-2.76175
-2.54703
-2.33768
-2.1338
-1.93543
-1.7425
-1.55487
-1.37229
-1.19444
-1.02091
-0.851228
-0.684824
-0.521079
-0.359323
-0.198174
-0.0297829
-4.87728
-4.63218
-4.38813
-4.14583
-3.90593
-3.66903
-3.43571
-3.20646
-2.98172
-2.76185
-2.54714
-2.3378
-2.13393
-1.93556
-1.74263
-1.555
-1.37241
-1.19456
-1.02102
-0.851332
-0.684921
-0.521168
-0.359394
-0.198209
-0.0297818
-4.87728
-4.63219
-4.38816
-4.14586
-3.90597
-3.66909
-3.43577
-3.20653
-2.9818
-2.76194
-2.54724
-2.3379
-2.13403
-1.93566
-1.74273
-1.55509
-1.3725
-1.19464
-1.0211
-0.851398
-0.684982
-0.521224
-0.359442
-0.198231
-0.02978
-4.87729
-4.6322
-4.38817
-4.14589
-3.90601
-3.66913
-3.43583
-3.20659
-2.98186
-2.76201
-2.54731
-2.33797
-2.1341
-1.93574
-1.7428
-1.55516
-1.37256
-1.19468
-1.02113
-0.851428
-0.685008
-0.52125
-0.359465
-0.19824
-0.0297775
-4.87729
-4.63221
-4.38819
-4.14591
-3.90604