/*--------------------------------*- C++ -*----------------------------------*\
| =========                 |                                                 |
| \\      /  F ield         | OpenFOAM: The Open Source CFD Toolbox           |
|  \\    /   O peration     | Version:  2.4.0                                 |
|   \\  /    A nd           | Web:      www.OpenFOAM.org                      |
|    \\/     M anipulation  |                                                 |
\*---------------------------------------------------------------------------*/
FoamFile
{
    version     2.0;
    format      ascii;
    class       volVectorField;
    location    "0.01";
    object      U;
}
// * * * * * * * * * * * * * * * * * * * * * * * * * * * * * * * * * * * * * //

dimensions      [0 1 -1 0 0 0 0];

internalField   nonuniform List<vector> 
25915
(
(-8.32443e-07 -0.00409585 0)
(-3.73e-06 -0.0119813 0)
(-7.85273e-06 -0.0195523 0)
(-1.27456e-05 -0.0268015 0)
(-1.81883e-05 -0.0337226 0)
(-2.40436e-05 -0.0403109 0)
(-3.01707e-05 -0.0465631 0)
(-3.6395e-05 -0.0524771 0)
(-4.25008e-05 -0.0580517 0)
(-4.82051e-05 -0.0632863 0)
(-5.32058e-05 -0.0681813 0)
(-5.71617e-05 -0.0727369 0)
(-5.96974e-05 -0.0769539 0)
(-6.04052e-05 -0.0808331 0)
(-5.89006e-05 -0.0843755 0)
(-5.47864e-05 -0.087582 0)
(-4.78208e-05 -0.0904527 0)
(-3.73453e-05 -0.0929882 0)
(-2.29225e-05 -0.0951895 0)
(-4.33147e-06 -0.0970587 0)
(1.82373e-05 -0.0985989 0)
(4.41199e-05 -0.0998167 0)
(7.16475e-05 -0.100724 0)
(9.7458e-05 -0.101343 0)
(0.000100336 -0.10173 0)
(2.02075e-07 -0.00409015 0)
(-1.89639e-07 -0.0119678 0)
(-1.55521e-06 -0.0195333 0)
(-3.96362e-06 -0.0267781 0)
(-7.34069e-06 -0.0336958 0)
(-1.15717e-05 -0.0402815 0)
(-1.65078e-05 -0.046532 0)
(-2.19613e-05 -0.0524452 0)
(-2.77027e-05 -0.0580203 0)
(-3.34753e-05 -0.063257 0)
(-3.89594e-05 -0.0681557 0)
(-4.38128e-05 -0.072717 0)
(-4.76665e-05 -0.0769416 0)
(-5.01187e-05 -0.0808306 0)
(-5.07755e-05 -0.0843845 0)
(-4.93586e-05 -0.087604 0)
(-4.51518e-05 -0.0904903 0)
(-3.80496e-05 -0.0930438 0)
(-2.75656e-05 -0.0952647 0)
(-1.34507e-05 -0.0971527 0)
(4.06184e-06 -0.098707 0)
(2.36813e-05 -0.099926 0)
(4.25759e-05 -0.100807 0)
(5.81296e-05 -0.101348 0)
(6.45301e-05 -0.101548 0)
(1.46294e-07 -0.00409194 0)
(8.2352e-07 -0.01197 0)
(1.24138e-06 -0.0195339 0)
(1.03993e-06 -0.0267763 0)
(-6.20145e-08 -0.0336912 0)
(-2.13609e-06 -0.0402744 0)
(-5.1179e-06 -0.0465226 0)
(-8.85071e-06 -0.0524342 0)
(-1.314e-05 -0.0580082 0)
(-1.77697e-05 -0.0632445 0)
(-2.25114e-05 -0.0681434 0)
(-2.71318e-05 -0.0727056 0)
(-3.13992e-05 -0.0769319 0)
(-3.50867e-05 -0.0808234 0)
(-3.79555e-05 -0.0843809 0)
(-3.97713e-05 -0.0876051 0)
(-4.04181e-05 -0.0904967 0)
(-3.94853e-05 -0.0930558 0)
(-3.695e-05 -0.0952826 0)
(-3.27771e-05 -0.0971772 0)
(-2.70085e-05 -0.0987388 0)
(-1.92149e-05 -0.0999652 0)
(-8.0221e-06 -0.100854 0)
(1.29333e-05 -0.101402 0)
(2.77159e-05 -0.101616 0)
(3.44861e-07 -0.00409413 0)
(1.89748e-06 -0.0119732 0)
(3.67638e-06 -0.0195358 0)
(5.06404e-06 -0.0267756 0)
(5.66142e-06 -0.0336872 0)
(5.27596e-06 -0.0402668 0)
(3.87663e-06 -0.0465117 0)
(1.54255e-06 -0.0524205 0)
(-1.55856e-06 -0.0579924 0)
(-5.22322e-06 -0.0632274 0)
(-9.23885e-06 -0.0681258 0)
(-1.33956e-05 -0.0726883 0)
(-1.74971e-05 -0.0769157 0)
(-2.13667e-05 -0.0808088 0)
(-2.48469e-05 -0.0843685 0)
(-2.7798e-05 -0.0875955 0)
(-3.00756e-05 -0.0904904 0)
(-3.15063e-05 -0.0930537 0)
(-3.18806e-05 -0.0952856 0)
(-3.10015e-05 -0.0971858 0)
(-2.86586e-05 -0.0987541 0)
(-2.40891e-05 -0.0999898 0)
(-1.49028e-05 -0.100891 0)
(6.26459e-06 -0.101459 0)
(2.41679e-05 -0.101708 0)
(3.69923e-07 -0.0040981 0)
(2.39096e-06 -0.0119808 0)
(5.0325e-06 -0.0195439 0)
(7.58129e-06 -0.026782 0)
(9.48048e-06 -0.0336909 0)
(1.04568e-05 -0.0402673 0)
(1.04444e-05 -0.0465091 0)
(9.46978e-06 -0.0524151 0)
(7.68264e-06 -0.0579847 0)
(5.25997e-06 -0.063218 0)
(2.39701e-06 -0.0681154 0)
(-7.08235e-07 -0.0726774 0)
(-3.87283e-06 -0.0769049 0)
(-6.93483e-06 -0.0807987 0)
(-9.75382e-06 -0.0843594 0)
(-1.22069e-05 -0.0875879 0)
(-1.4179e-05 -0.0904847 0)
(-1.55468e-05 -0.0930503 0)
(-1.61588e-05 -0.0952853 0)
(-1.58647e-05 -0.0971899 0)
(-1.45082e-05 -0.0987642 0)
(-1.15237e-05 -0.100008 0)
(-5.13701e-06 -0.100922 0)
(1.1616e-05 -0.101509 0)
(2.5967e-05 -0.101782 0)
(4.31606e-07 -0.00410257 0)
(2.79848e-06 -0.0119897 0)
(6.03042e-06 -0.0195538 0)
(9.34306e-06 -0.0267908 0)
(1.21139e-05 -0.0336971 0)
(1.40091e-05 -0.0402704 0)
(1.49087e-05 -0.0465089 0)
(1.48608e-05 -0.0524118 0)
(1.3955e-05 -0.0579788 0)
(1.23593e-05 -0.0632102 0)
(1.02689e-05 -0.0681064 0)
(7.87559e-06 -0.0726678 0)
(5.36107e-06 -0.0768953 0)
(2.88944e-06 -0.0807895 0)
(6.04401e-07 -0.0843512 0)
(-1.36891e-06 -0.087581 0)
(-2.91684e-06 -0.0904795 0)
(-3.93079e-06 -0.0930472 0)
(-4.28976e-06 -0.0952847 0)
(-3.91851e-06 -0.0971924 0)
(-2.77211e-06 -0.0987706 0)
(-6.58263e-07 -0.10002 0)
(3.28715e-06 -0.100941 0)
(1.62544e-05 -0.101539 0)
(2.63431e-05 -0.101827 0)
(4.3725e-07 -0.00410758 0)
(2.938e-06 -0.012 0)
(6.43443e-06 -0.0195659 0)
(1.01161e-05 -0.0268021 0)
(1.33242e-05 -0.0337062 0)
(1.56955e-05 -0.0402764 0)
(1.70884e-05 -0.0465117 0)
(1.75138e-05 -0.0524116 0)
(1.70699e-05 -0.0579761 0)
(1.59091e-05 -0.0632054 0)
(1.42137e-05 -0.0681002 0)
(1.21715e-05 -0.0726608 0)
(9.96384e-06 -0.0768881 0)
(7.75778e-06 -0.0807826 0)
(5.70344e-06 -0.084345 0)
(3.93329e-06 -0.087576 0)
(2.57739e-06 -0.090476 0)
(1.75019e-06 -0.0930456 0)
(1.51935e-06 -0.0952853 0)
(1.97139e-06 -0.0971955 0)
(3.12994e-06 -0.0987768 0)
(4.93048e-06 -0.10003 0)
(7.73938e-06 -0.100955 0)
(1.83396e-05 -0.101557 0)
(2.49301e-05 -0.101849 0)
(4.44817e-07 -0.00411267 0)
(2.98163e-06 -0.0120105 0)
(6.5487e-06 -0.0195783 0)
(1.03315e-05 -0.0268139 0)
(1.36656e-05 -0.0337158 0)
(1.6181e-05 -0.040283 0)
(1.77258e-05 -0.046515 0)
(1.83037e-05 -0.0524118 0)
(1.80029e-05 -0.0579736 0)
(1.69694e-05 -0.0632008 0)
(1.53808e-05 -0.068094 0)
(1.34222e-05 -0.0726538 0)
(1.12748e-05 -0.0768807 0)
(9.10931e-06 -0.0807754 0)
(7.0821e-06 -0.0843386 0)
(5.33468e-06 -0.0875706 0)
(4.00399e-06 -0.0904722 0)
(3.20898e-06 -0.0930437 0)
(3.01715e-06 -0.0952857 0)
(3.47821e-06 -0.0971983 0)
(4.54251e-06 -0.0987822 0)
(6.0049e-06 -0.100038 0)
(7.97952e-06 -0.100965 0)
(1.67871e-05 -0.101567 0)
(2.10282e-05 -0.101857 0)
(4.31493e-07 -0.00411774 0)
(2.90569e-06 -0.012021 0)
(6.38432e-06 -0.0195907 0)
(1.0071e-05 -0.0268258 0)
(1.33146e-05 -0.0337256 0)
(1.57528e-05 -0.0402898 0)
(1.72387e-05 -0.0465187 0)
(1.77672e-05 -0.0524124 0)
(1.7425e-05 -0.0579715 0)
(1.63548e-05 -0.0631966 0)
(1.47269e-05 -0.0680882 0)
(1.272e-05 -0.072647 0)
(1.05092e-05 -0.0768736 0)
(8.25815e-06 -0.0807685 0)
(6.1154e-06 -0.0843323 0)
(4.21303e-06 -0.0875655 0)
(2.66578e-06 -0.0904686 0)
(1.56807e-06 -0.0930419 0)
(9.80718e-07 -0.0952858 0)
(8.79551e-07 -0.0972005 0)
(1.07971e-06 -0.0987861 0)
(1.3725e-06 -0.100042 0)
(2.34226e-06 -0.100969 0)
(9.72493e-06 -0.101568 0)
(1.24546e-05 -0.101852 0)
(4.15298e-07 -0.00412261 0)
(2.77816e-06 -0.0120311 0)
(6.08075e-06 -0.0196026 0)
(9.55749e-06 -0.0268371 0)
(1.25852e-05 -0.0337347 0)
(1.48196e-05 -0.0402961 0)
(1.61228e-05 -0.0465218 0)
(1.64926e-05 -0.0524125 0)
(1.60137e-05 -0.0579689 0)
(1.48224e-05 -0.0631919 0)
(1.30803e-05 -0.0680819 0)
(1.09554e-05 -0.0726397 0)
(8.60972e-06 -0.0768658 0)
(6.19236e-06 -0.0807608 0)
(3.83532e-06 -0.0843251 0)
(1.65194e-06 -0.0875592 0)
(-2.6343e-07 -0.0904635 0)
(-1.83548e-06 -0.0930382 0)
(-3.01799e-06 -0.0952836 0)
(-3.83452e-06 -0.0971996 0)
(-4.43847e-06 -0.0987863 0)
(-4.92496e-06 -0.100043 0)
(-4.2788e-06 -0.10097 0)
(3.30788e-06 -0.101568 0)
(7.11673e-06 -0.101851 0)
(3.92359e-07 -0.00412723 0)
(2.60841e-06 -0.0120406 0)
(5.68044e-06 -0.0196137 0)
(8.88434e-06 -0.0268475 0)
(1.16343e-05 -0.0337431 0)
(1.36104e-05 -0.0403016 0)
(1.46882e-05 -0.0465242 0)
(1.48707e-05 -0.052412 0)
(1.42408e-05 -0.0579659 0)
(1.29278e-05 -0.0631868 0)
(1.10823e-05 -0.0680753 0)
(8.85798e-06 -0.0726321 0)
(6.40058e-06 -0.0768577 0)
(3.84065e-06 -0.0807525 0)
(1.29055e-06 -0.0843171 0)
(-1.15619e-06 -0.0875518 0)
(-3.4233e-06 -0.0904569 0)
(-5.4484e-06 -0.0930326 0)
(-7.18816e-06 -0.0952791 0)
(-8.64873e-06 -0.0971964 0)
(-9.93386e-06 -0.0987842 0)
(-1.10207e-05 -0.100042 0)
(-1.07841e-05 -0.10097 0)
(-3.8328e-06 -0.101571 0)
(-6.26662e-07 -0.101859 0)
(3.67218e-07 -0.00413154 0)
(2.4174e-06 -0.0120494 0)
(5.23037e-06 -0.0196239 0)
(8.13077e-06 -0.0268569 0)
(1.0577e-05 -0.0337504 0)
(1.2278e-05 -0.0403062 0)
(1.31252e-05 -0.046526 0)
(1.31276e-05 -0.052411 0)
(1.23665e-05 -0.0579625 0)
(1.09635e-05 -0.0631813 0)
(9.05796e-06 -0.0680684 0)
(6.7896e-06 -0.0726241 0)
(4.28896e-06 -0.0768491 0)
(1.67168e-06 -0.0807438 0)
(-9.63406e-07 -0.0843085 0)
(-3.53363e-06 -0.0875435 0)
(-5.96947e-06 -0.0904492 0)
(-8.20998e-06 -0.0930257 0)
(-1.02077e-05 -0.0952731 0)
(-1.19605e-05 -0.0971913 0)
(-1.35683e-05 -0.0987804 0)
(-1.49949e-05 -0.10004 0)
(-1.52238e-05 -0.100969 0)
(-9.3728e-06 -0.101571 0)
(-6.66152e-06 -0.101861 0)
(3.3932e-07 -0.00413551 0)
(2.20817e-06 -0.0120575 0)
(4.74152e-06 -0.0196331 0)
(7.31864e-06 -0.0268653 0)
(9.44694e-06 -0.0337569 0)
(1.08667e-05 -0.0403101 0)
(1.14861e-05 -0.046527 0)
(1.13192e-05 -0.0524095 0)
(1.04446e-05 -0.0579587 0)
(8.97511e-06 -0.0631758 0)
(7.03706e-06 -0.0680614 0)
(4.75584e-06 -0.0726162 0)
(2.24732e-06 -0.0768406 0)
(-3.85933e-07 -0.080735 0)
(-3.05545e-06 -0.0842998 0)
(-5.68526e-06 -0.0875351 0)
(-8.20845e-06 -0.0904413 0)
(-1.05631e-05 -0.0930184 0)
(-1.26986e-05 -0.0952666 0)
(-1.46118e-05 -0.0971858 0)
(-1.6414e-05 -0.0987758 0)
(-1.81064e-05 -0.100036 0)
(-1.87858e-05 -0.100966 0)
(-1.38601e-05 -0.101568 0)
(-1.14531e-05 -0.101854 0)
(3.07628e-07 -0.00413911 0)
(1.97375e-06 -0.0120647 0)
(4.19652e-06 -0.0196413 0)
(6.41514e-06 -0.0268726 0)
(8.18966e-06 -0.0337622 0)
(9.29249e-06 -0.040313 0)
(9.64701e-06 -0.0465274 0)
(9.27035e-06 -0.0524075 0)
(8.23449e-06 -0.0579546 0)
(6.63956e-06 -0.06317 0)
(4.59505e-06 -0.0680543 0)
(2.20776e-06 -0.0726081 0)
(-4.24897e-07 -0.0768319 0)
(-3.21714e-06 -0.0807261 0)
(-6.0943e-06 -0.0842908 0)
(-8.99022e-06 -0.0875263 0)
(-1.18431e-05 -0.0904328 0)
(-1.45905e-05 -0.0930105 0)
(-1.71755e-05 -0.0952594 0)
(-1.95814e-05 -0.0971794 0)
(-2.18951e-05 -0.0987702 0)
(-2.40763e-05 -0.100031 0)
(-2.5177e-05 -0.100962 0)
(-2.08266e-05 -0.101563 0)
(-1.85518e-05 -0.101845 0)
(2.7251e-07 -0.0041423 0)
(1.71434e-06 -0.0120709 0)
(3.59326e-06 -0.0196482 0)
(5.41346e-06 -0.0268787 0)
(6.79146e-06 -0.0337664 0)
(7.5331e-06 -0.0403149 0)
(7.57679e-06 -0.046527 0)
(6.94123e-06 -0.0524048 0)
(5.69033e-06 -0.0579499 0)
(3.90947e-06 -0.0631636 0)
(1.68942e-06 -0.0680466 0)
(-8.83633e-07 -0.0725994 0)
(-3.73289e-06 -0.0768225 0)
(-6.7919e-06 -0.0807161 0)
(-1.00029e-05 -0.0842805 0)
(-1.33135e-05 -0.087516 0)
(-1.6671e-05 -0.0904226 0)
(-2.00163e-05 -0.0930006 0)
(-2.32872e-05 -0.09525 0)
(-2.64513e-05 -0.0971707 0)
(-2.95561e-05 -0.0987624 0)
(-3.24432e-05 -0.100025 0)
(-3.39316e-05 -0.100956 0)
(-2.93266e-05 -0.101559 0)
(-2.5785e-05 -0.101841 0)
(2.35241e-07 -0.00414503 0)
(1.43857e-06 -0.0120762 0)
(2.95178e-06 -0.0196539 0)
(4.34855e-06 -0.0268833 0)
(5.30629e-06 -0.0337693 0)
(5.66721e-06 -0.0403156 0)
(5.38739e-06 -0.0465255 0)
(4.48957e-06 -0.0524012 0)
(3.03239e-06 -0.0579445 0)
(1.08973e-06 -0.0631566 0)
(-1.26277e-06 -0.0680383 0)
(-3.95556e-06 -0.07259 0)
(-6.92857e-06 -0.0768123 0)
(-1.01313e-05 -0.0807052 0)
(-1.35209e-05 -0.084269 0)
(-1.70586e-05 -0.087504 0)
(-2.07042e-05 -0.0904104 0)
(-2.44098e-05 -0.0929883 0)
(-2.81236e-05 -0.0952379 0)
(-3.18258e-05 -0.0971591 0)
(-3.55706e-05 -0.0987518 0)
(-3.91974e-05 -0.100016 0)
(-4.13561e-05 -0.10095 0)
(-3.68415e-05 -0.101558 0)
(-3.30909e-05 -0.101846 0)
(1.9705e-07 -0.00414728 0)
(1.15684e-06 -0.0120803 0)
(2.29869e-06 -0.0196581 0)
(3.27056e-06 -0.0268866 0)
(3.81533e-06 -0.0337708 0)
(3.81582e-06 -0.0403152 0)
(3.25058e-06 -0.046523 0)
(2.15243e-06 -0.0523969 0)
(5.81417e-07 -0.0579386 0)
(-1.39205e-06 -0.0631493 0)
(-3.69813e-06 -0.0680298 0)
(-6.27317e-06 -0.0725806 0)
(-9.06158e-06 -0.076802 0)
(-1.20151e-05 -0.0806942 0)
(-1.50902e-05 -0.0842575 0)
(-1.82454e-05 -0.0874921 0)
(-2.1436e-05 -0.0903982 0)
(-2.4611e-05 -0.092976 0)
(-2.77212e-05 -0.0952256 0)
(-3.07567e-05 -0.0971471 0)
(-3.38075e-05 -0.0987404 0)
(-3.68691e-05 -0.100005 0)
(-3.89729e-05 -0.100942 0)
(-3.56516e-05 -0.101554 0)
(-3.43212e-05 -0.10185 0)
(1.5768e-07 -0.00414906 0)
(8.68222e-07 -0.0120835 0)
(1.63468e-06 -0.0196611 0)
(2.18688e-06 -0.0268884 0)
(2.3292e-06 -0.0337711 0)
(1.99224e-06 -0.0403137 0)
(1.17948e-06 -0.0465199 0)
(-6.33369e-08 -0.0523923 0)
(-1.67119e-06 -0.0579327 0)
(-3.57388e-06 -0.0631424 0)
(-5.70392e-06 -0.068022 0)
(-8.00021e-06 -0.0725722 0)
(-1.04085e-05 -0.0767931 0)
(-1.288e-05 -0.0806851 0)
(-1.53683e-05 -0.0842483 0)
(-1.7827e-05 -0.087483 0)
(-2.02068e-05 -0.0903893 0)
(-2.24532e-05 -0.0929675 0)
(-2.45189e-05 -0.0952177 0)
(-2.64193e-05 -0.0971398 0)
(-2.83262e-05 -0.0987336 0)
(-3.03703e-05 -0.0999985 0)
(-3.20109e-05 -0.100933 0)
(-2.99367e-05 -0.101539 0)
(-3.16662e-05 -0.101829 0)
(1.14039e-07 -0.00415033 0)
(5.61427e-07 -0.0120855 0)
(9.41986e-07 -0.0196626 0)
(1.05166e-06 -0.0268889 0)
(7.74542e-07 -0.0337701 0)
(7.91869e-08 -0.0403113 0)
(-1.00743e-06 -0.0465162 0)
(-2.43181e-06 -0.0523874 0)
(-4.13192e-06 -0.0579269 0)
(-6.04794e-06 -0.0631358 0)
(-8.12824e-06 -0.068015 0)
(-1.0332e-05 -0.0725648 0)
(-1.26292e-05 -0.0767856 0)
(-1.49995e-05 -0.0806775 0)
(-1.74295e-05 -0.0842408 0)
(-1.99105e-05 -0.0874757 0)
(-2.24341e-05 -0.0903823 0)
(-2.49896e-05 -0.0929609 0)
(-2.75711e-05 -0.0952116 0)
(-3.02204e-05 -0.0971339 0)
(-3.30924e-05 -0.0987275 0)
(-3.62372e-05 -0.0999908 0)
(-3.87712e-05 -0.100922 0)
(-3.61008e-05 -0.101521 0)
(-3.45957e-05 -0.101801 0)
(6.83885e-08 -0.00415107 0)
(2.47871e-07 -0.0120863 0)
(2.29288e-07 -0.0196628 0)
(-1.04865e-07 -0.0268878 0)
(-8.08736e-07 -0.0337678 0)
(-1.87122e-06 -0.0403078 0)
(-3.24822e-06 -0.0465115 0)
(-4.88517e-06 -0.0523819 0)
(-6.7301e-06 -0.0579206 0)
(-8.74191e-06 -0.063129 0)
(-1.08946e-05 -0.0680077 0)
(-1.31787e-05 -0.0725572 0)
(-1.56012e-05 -0.0767775 0)
(-1.81835e-05 -0.0806691 0)
(-2.09584e-05 -0.0842319 0)
(-2.39652e-05 -0.0874662 0)
(-2.72413e-05 -0.0903723 0)
(-3.08089e-05 -0.0929502 0)
(-3.46697e-05 -0.0952001 0)
(-3.88302e-05 -0.0971219 0)
(-4.33474e-05 -0.0987152 0)
(-4.79795e-05 -0.0999791 0)
(-5.09392e-05 -0.100913 0)
(-4.59722e-05 -0.101517 0)
(-3.91839e-05 -0.101799 0)
(2.75491e-08 -0.00415129 0)
(-3.98874e-08 -0.0120861 0)
(-4.17582e-07 -0.0196615 0)
(-1.14754e-06 -0.0268854 0)
(-2.21659e-06 -0.0337643 0)
(-3.57653e-06 -0.0403032 0)
(-5.16756e-06 -0.0465062 0)
(-6.9332e-06 -0.0523758 0)
(-8.82932e-06 -0.0579141 0)
(-1.08289e-05 -0.063122 0)
(-1.29235e-05 -0.0680003 0)
(-1.51229e-05 -0.0725492 0)
(-1.74527e-05 -0.076769 0)
(-1.99517e-05 -0.0806598 0)
(-2.26661e-05 -0.0842218 0)
(-2.56424e-05 -0.0874551 0)
(-2.89143e-05 -0.0903599 0)
(-3.24856e-05 -0.0929367 0)
(-3.6319e-05 -0.0951856 0)
(-4.03574e-05 -0.0971068 0)
(-4.45568e-05 -0.0987005 0)
(-4.85862e-05 -0.0999666 0)
(-5.07474e-05 -0.100905 0)
(-4.57782e-05 -0.101518 0)
(-3.89305e-05 -0.101809 0)
(-9.76021e-09 -0.00415106 0)
(-2.96874e-07 -0.0120848 0)
(-9.87272e-07 -0.0196591 0)
(-2.05122e-06 -0.0268819 0)
(-3.41578e-06 -0.0337597 0)
(-4.99917e-06 -0.040298 0)
(-6.72731e-06 -0.0465004 0)
(-8.54228e-06 -0.0523697 0)
(-1.04063e-05 -0.0579077 0)
(-1.23025e-05 -0.0631154 0)
(-1.42334e-05 -0.0679934 0)
(-1.6218e-05 -0.0725421 0)
(-1.82884e-05 -0.0767614 0)
(-2.04852e-05 -0.0806517 0)
(-2.28531e-05 -0.0842129 0)
(-2.5433e-05 -0.0874454 0)
(-2.82509e-05 -0.0903494 0)
(-3.13018e-05 -0.0929254 0)
(-3.45401e-05 -0.0951738 0)
(-3.79018e-05 -0.0970951 0)
(-4.13365e-05 -0.0986896 0)
(-4.45563e-05 -0.0999574 0)
(-4.60445e-05 -0.100898 0)
(-4.11272e-05 -0.101514 0)
(-3.56323e-05 -0.101816 0)
(-4.57788e-08 -0.0041504 0)
(-5.34696e-07 -0.0120827 0)
(-1.50503e-06 -0.0196557 0)
(-2.86096e-06 -0.0268773 0)
(-4.47632e-06 -0.0337544 0)
(-6.24077e-06 -0.0402922 0)
(-8.06991e-06 -0.0464943 0)
(-9.90692e-06 -0.0523635 0)
(-1.17215e-05 -0.0579015 0)
(-1.35067e-05 -0.0631092 0)
(-1.52744e-05 -0.0679872 0)
(-1.70505e-05 -0.0725356 0)
(-1.887e-05 -0.0767547 0)
(-2.07736e-05 -0.0806445 0)
(-2.28049e-05 -0.0842052 0)
(-2.50063e-05 -0.0874369 0)
(-2.7413e-05 -0.0903401 0)
(-3.00419e-05 -0.0929153 0)
(-3.28864e-05 -0.0951632 0)
(-3.59422e-05 -0.0970843 0)
(-3.92427e-05 -0.0986794 0)
(-4.25458e-05 -0.0999489 0)
(-4.41795e-05 -0.100893 0)
(-3.84828e-05 -0.101514 0)
(-3.15789e-05 -0.101826 0)
(-7.74664e-08 -0.00414936 0)
(-7.42024e-07 -0.0120798 0)
(-1.94848e-06 -0.0196513 0)
(-3.54049e-06 -0.026872 0)
(-5.34362e-06 -0.0337485 0)
(-7.22187e-06 -0.040286 0)
(-9.08113e-06 -0.0464882 0)
(-1.08642e-05 -0.0523575 0)
(-1.25448e-05 -0.0578957 0)
(-1.41202e-05 -0.0631036 0)
(-1.56039e-05 -0.0679817 0)
(-1.70181e-05 -0.0725301 0)
(-1.83876e-05 -0.0767491 0)
(-1.97368e-05 -0.0806387 0)
(-2.10875e-05 -0.084199 0)
(-2.24597e-05 -0.0874302 0)
(-2.38714e-05 -0.0903328 0)
(-2.53376e-05 -0.0929074 0)
(-2.68781e-05 -0.0951546 0)
(-2.85601e-05 -0.0970753 0)
(-3.05566e-05 -0.0986704 0)
(-3.28673e-05 -0.0999409 0)
(-3.41624e-05 -0.100888 0)
(-2.91156e-05 -0.101513 0)
(-2.31817e-05 -0.101828 0)
(-1.06577e-07 -0.00414798 0)
(-9.23625e-07 -0.0120763 0)
(-2.32371e-06 -0.0196462 0)
(-4.0944e-06 -0.026866 0)
(-6.01759e-06 -0.0337422 0)
(-7.93427e-06 -0.0402797 0)
(-9.74151e-06 -0.0464822 0)
(-1.13814e-05 -0.052352 0)
(-1.28297e-05 -0.0578907 0)
(-1.40861e-05 -0.063099 0)
(-1.51636e-05 -0.0679775 0)
(-1.60797e-05 -0.0725264 0)
(-1.68486e-05 -0.0767457 0)
(-1.74775e-05 -0.0806355 0)
(-1.79665e-05 -0.0841961 0)
(-1.83103e-05 -0.0874276 0)
(-1.85039e-05 -0.0903305 0)
(-1.8549e-05 -0.0929053 0)
(-1.84752e-05 -0.0951526 0)
(-1.84048e-05 -0.0970731 0)
(-1.86466e-05 -0.0986676 0)
(-1.94983e-05 -0.0999369 0)
(-2.01261e-05 -0.100881 0)
(-1.57313e-05 -0.101504 0)
(-1.25426e-05 -0.101812 0)
(-1.34218e-07 -0.00414631 0)
(-1.08321e-06 -0.0120721 0)
(-2.63524e-06 -0.0196406 0)
(-4.52558e-06 -0.0268596 0)
(-6.49721e-06 -0.0337357 0)
(-8.37229e-06 -0.0402736 0)
(-1.0043e-05 -0.0464767 0)
(-1.14532e-05 -0.0523472 0)
(-1.25849e-05 -0.0578867 0)
(-1.34477e-05 -0.0630958 0)
(-1.40634e-05 -0.067975 0)
(-1.44581e-05 -0.0725245 0)
(-1.46539e-05 -0.0767444 0)
(-1.46668e-05 -0.0806348 0)
(-1.45071e-05 -0.084196 0)
(-1.41834e-05 -0.0874282 0)
(-1.37085e-05 -0.0903317 0)
(-1.31072e-05 -0.092907 0)
(-1.24365e-05 -0.0951545 0)
(-1.18523e-05 -0.0970747 0)
(-1.17339e-05 -0.0986681 0)
(-1.24943e-05 -0.099935 0)
(-1.34246e-05 -0.100875 0)
(-8.82781e-06 -0.101492 0)
(-5.17807e-06 -0.101794 0)
(-1.58726e-07 -0.00414438 0)
(-1.21302e-06 -0.0120676 0)
(-2.86559e-06 -0.0196346 0)
(-4.80296e-06 -0.0268531 0)
(-6.73364e-06 -0.0337294 0)
(-8.46575e-06 -0.0402679 0)
(-9.88743e-06 -0.0464719 0)
(-1.09485e-05 -0.0523435 0)
(-1.16448e-05 -0.057884 0)
(-1.19966e-05 -0.0630941 0)
(-1.20431e-05 -0.0679742 0)
(-1.18249e-05 -0.0725244 0)
(-1.13814e-05 -0.076745 0)
(-1.07497e-05 -0.0806361 0)
(-9.96456e-06 -0.0841978 0)
(-9.06288e-06 -0.0874304 0)
(-8.08752e-06 -0.0903343 0)
(-7.09331e-06 -0.0929096 0)
(-6.15379e-06 -0.0951569 0)
(-5.40304e-06 -0.0970764 0)
(-5.14588e-06 -0.0986683 0)
(-5.76456e-06 -0.0999327 0)
(-6.85265e-06 -0.100869 0)
(-1.99308e-06 -0.101481 0)
(4.05557e-06 -0.101781 0)
(-1.80278e-07 -0.00414224 0)
(-1.31158e-06 -0.0120628 0)
(-3.0101e-06 -0.0196285 0)
(-4.91754e-06 -0.0268467 0)
(-6.7151e-06 -0.0337235 0)
(-8.1982e-06 -0.0402631 0)
(-9.25766e-06 -0.0464684 0)
(-9.85782e-06 -0.0523414 0)
(-1.0004e-05 -0.0578832 0)
(-9.74059e-06 -0.0630944 0)
(-9.12124e-06 -0.0679755 0)
(-8.20565e-06 -0.0725266 0)
(-7.05581e-06 -0.0767479 0)
(-5.73287e-06 -0.0806395 0)
(-4.29816e-06 -0.0842016 0)
(-2.81563e-06 -0.0874344 0)
(-1.35322e-06 -0.0903382 0)
(1.80433e-08 -0.0929133 0)
(1.21994e-06 -0.09516 0)
(2.12568e-06 -0.0970786 0)
(2.49704e-06 -0.0986691 0)
(2.08338e-06 -0.0999316 0)
(1.75344e-06 -0.100866 0)
(7.55489e-06 -0.101474 0)
(1.54065e-05 -0.101771 0)
(-1.98169e-07 -0.00413995 0)
(-1.37614e-06 -0.0120578 0)
(-3.06434e-06 -0.0196224 0)
(-4.86691e-06 -0.0268408 0)
(-6.44014e-06 -0.0337185 0)
(-7.57261e-06 -0.0402594 0)
(-8.17265e-06 -0.0464664 0)
(-8.20658e-06 -0.0523411 0)
(-7.70962e-06 -0.0578844 0)
(-6.73758e-06 -0.063097 0)
(-5.36237e-06 -0.0679793 0)
(-3.66446e-06 -0.0725313 0)
(-1.72503e-06 -0.0767533 0)
(3.76129e-07 -0.0806453 0)
(2.56015e-06 -0.0842075 0)
(4.74756e-06 -0.0874402 0)
(6.85834e-06 -0.0903436 0)
(8.81413e-06 -0.092918 0)
(1.05333e-05 -0.0951638 0)
(1.1885e-05 -0.0970811 0)
(1.26224e-05 -0.0986703 0)
(1.25782e-05 -0.0999315 0)
(1.29444e-05 -0.100865 0)
(1.91991e-05 -0.101472 0)
(2.79259e-05 -0.101767 0)
(-2.1291e-07 -0.00413757 0)
(-1.41298e-06 -0.0120529 0)
(-3.0484e-06 -0.0196166 0)
(-4.69011e-06 -0.0268355 0)
(-5.97682e-06 -0.0337145 0)
(-6.70662e-06 -0.0402573 0)
(-6.78221e-06 -0.0464663 0)
(-6.20795e-06 -0.0523429 0)
(-5.02577e-06 -0.0578881 0)
(-3.30968e-06 -0.0631023 0)
(-1.15069e-06 -0.0679858 0)
(1.35594e-06 -0.0725388 0)
(4.11761e-06 -0.0767615 0)
(7.04758e-06 -0.0806539 0)
(1.00651e-05 -0.0842163 0)
(1.30945e-05 -0.0874489 0)
(1.6065e-05 -0.0903519 0)
(1.89119e-05 -0.0929257 0)
(2.15669e-05 -0.0951706 0)
(2.39076e-05 -0.0970867 0)
(2.56856e-05 -0.0986745 0)
(2.67429e-05 -0.0999339 0)
(2.82648e-05 -0.100865 0)
(3.51822e-05 -0.101469 0)
(4.40734e-05 -0.101758 0)
(-2.25747e-07 -0.00413512 0)
(-1.43564e-06 -0.012048 0)
(-3.00119e-06 -0.0196113 0)
(-4.46604e-06 -0.026831 0)
(-5.46182e-06 -0.0337118 0)
(-5.79212e-06 -0.0402568 0)
(-5.38722e-06 -0.0464681 0)
(-4.26164e-06 -0.0523469 0)
(-2.48428e-06 -0.0578941 0)
(-1.53805e-07 -0.0631099 0)
(2.6156e-06 -0.0679948 0)
(5.70791e-06 -0.0725488 0)
(9.01252e-06 -0.0767722 0)
(1.24275e-05 -0.080665 0)
(1.58601e-05 -0.0842276 0)
(1.92264e-05 -0.0874601 0)
(2.24515e-05 -0.0903628 0)
(2.54725e-05 -0.092936 0)
(2.82319e-05 -0.0951801 0)
(3.06297e-05 -0.0970952 0)
(3.24702e-05 -0.0986815 0)
(3.37273e-05 -0.0999391 0)
(3.59225e-05 -0.100868 0)
(4.44665e-05 -0.101469 0)
(5.52792e-05 -0.101749 0)
(-2.37718e-07 -0.00413263 0)
(-1.45335e-06 -0.0120433 0)
(-2.94909e-06 -0.0196063 0)
(-4.24914e-06 -0.0268272 0)
(-4.98583e-06 -0.0337101 0)
(-4.97138e-06 -0.0402576 0)
(-4.16072e-06 -0.0464714 0)
(-2.59282e-06 -0.0523526 0)
(-3.61955e-07 -0.0579018 0)
(2.40574e-06 -0.0631193 0)
(5.57233e-06 -0.0680053 0)
(9.00058e-06 -0.0725601 0)
(1.25618e-05 -0.0767838 0)
(1.61396e-05 -0.0806767 0)
(1.96308e-05 -0.0842389 0)
(2.29471e-05 -0.0874708 0)
(2.60177e-05 -0.0903726 0)
(2.87964e-05 -0.0929448 0)
(3.12608e-05 -0.0951876 0)
(3.33687e-05 -0.0971015 0)
(3.50222e-05 -0.098687 0)
(3.63754e-05 -0.0999444 0)
(3.93574e-05 -0.100874 0)
(4.99453e-05 -0.101479 0)
(6.36557e-05 -0.101764 0)
(-2.44325e-07 -0.0041301 0)
(-1.44571e-06 -0.0120386 0)
(-2.85145e-06 -0.0196017 0)
(-3.97473e-06 -0.0268242 0)
(-4.45064e-06 -0.0337094 0)
(-4.10652e-06 -0.0402596 0)
(-2.91277e-06 -0.046476 0)
(-9.30102e-07 -0.0523596 0)
(1.72843e-06 -0.0579108 0)
(4.9227e-06 -0.0631298 0)
(8.50633e-06 -0.0680169 0)
(1.23405e-05 -0.0725723 0)
(1.63024e-05 -0.0767961 0)
(2.02897e-05 -0.0806888 0)
(2.42223e-05 -0.0842505 0)
(2.80438e-05 -0.0874817 0)
(3.17242e-05 -0.0903827 0)
(3.5264e-05 -0.0929539 0)
(3.86882e-05 -0.095196 0)
(4.19957e-05 -0.0971095 0)
(4.51226e-05 -0.0986952 0)
(4.82478e-05 -0.0999538 0)
(5.31864e-05 -0.100886 0)
(6.52137e-05 -0.101496 0)
(7.78542e-05 -0.101788 0)
(-2.46832e-07 -0.0041276 0)
(-1.41416e-06 -0.0120342 0)
(-2.70744e-06 -0.0195977 0)
(-3.63626e-06 -0.0268219 0)
(-3.84477e-06 -0.0337097 0)
(-3.17557e-06 -0.0402627 0)
(-1.61561e-06 -0.046482 0)
(7.59519e-07 -0.0523681 0)
(3.8252e-06 -0.0579213 0)
(7.43587e-06 -0.0631418 0)
(1.14463e-05 -0.06803 0)
(1.57256e-05 -0.0725861 0)
(2.01654e-05 -0.0768103 0)
(2.46834e-05 -0.080703 0)
(2.92234e-05 -0.0842646 0)
(3.37536e-05 -0.0874956 0)
(3.82653e-05 -0.0903964 0)
(4.27707e-05 -0.0929676 0)
(4.72885e-05 -0.0952097 0)
(5.17852e-05 -0.0971234 0)
(5.61279e-05 -0.0987094 0)
(6.03924e-05 -0.0999685 0)
(6.62624e-05 -0.100901 0)
(7.89985e-05 -0.101511 0)
(9.20576e-05 -0.101808 0)
(-2.46217e-07 -0.00412515 0)
(-1.36023e-06 -0.0120301 0)
(-2.51767e-06 -0.0195941 0)
(-3.23417e-06 -0.0268204 0)
(-3.16305e-06 -0.033711 0)
(-2.16818e-06 -0.040267 0)
(-2.51555e-07 -0.0464892 0)
(2.49926e-06 -0.0523778 0)
(5.95174e-06 -0.057933 0)
(9.95848e-06 -0.0631552 0)
(1.43778e-05 -0.0680445 0)
(1.90874e-05 -0.0726013 0)
(2.39907e-05 -0.076826 0)
(2.90199e-05 -0.080719 0)
(3.41335e-05 -0.0842808 0)
(3.93133e-05 -0.0875118 0)
(4.45607e-05 -0.0904127 0)
(4.98935e-05 -0.092984 0)
(5.53304e-05 -0.0952262 0)
(6.08318e-05 -0.0971401 0)
(6.62529e-05 -0.0987263 0)
(7.16663e-05 -0.0999859 0)
(7.87878e-05 -0.10092 0)
(9.28768e-05 -0.101532 0)
(0.000107392 -0.101836 0)
(-2.38117e-07 -0.00412282 0)
(-1.2586e-06 -0.0120263 0)
(-2.22072e-06 -0.0195912 0)
(-2.65603e-06 -0.0268198 0)
(-2.2382e-06 -0.0337133 0)
(-8.4668e-07 -0.0402725 0)
(1.50158e-06 -0.0464976 0)
(4.71026e-06 -0.0523888 0)
(8.64401e-06 -0.0579462 0)
(1.31581e-05 -0.06317 0)
(1.81185e-05 -0.0680605 0)
(2.34138e-05 -0.0726182 0)
(2.89614e-05 -0.0768435 0)
(3.4708e-05 -0.0807369 0)
(4.06274e-05 -0.0842991 0)
(4.67159e-05 -0.0875306 0)
(5.29885e-05 -0.0904319 0)
(5.94742e-05 -0.0930037 0)
(6.61979e-05 -0.0952466 0)
(7.3119e-05 -0.0971612 0)
(8.00786e-05 -0.0987484 0)
(8.7099e-05 -0.100009 0)
(9.5725e-05 -0.100944 0)
(0.000110699 -0.101556 0)
(0.000125412 -0.101859 0)
(-2.23113e-07 -0.00412069 0)
(-1.10544e-06 -0.0120232 0)
(-1.80529e-06 -0.0195893 0)
(-1.87172e-06 -0.0268203 0)
(-1.012e-06 -0.033717 0)
(8.73938e-07 -0.0402795 0)
(3.75454e-06 -0.0465077 0)
(7.52417e-06 -0.0524016 0)
(1.20443e-05 -0.0579612 0)
(1.71712e-05 -0.0631868 0)
(2.27743e-05 -0.0680787 0)
(2.87464e-05 -0.0726374 0)
(3.50078e-05 -0.0768636 0)
(4.15051e-05 -0.0807578 0)
(4.8207e-05 -0.0843206 0)
(5.50985e-05 -0.0875528 0)
(6.2176e-05 -0.0904549 0)
(6.9441e-05 -0.0930275 0)
(7.68827e-05 -0.0952712 0)
(8.44148e-05 -0.0971866 0)
(9.18206e-05 -0.0987743 0)
(9.90529e-05 -0.100035 0)
(0.000107669 -0.100969 0)
(0.000122733 -0.10158 0)
(0.000138697 -0.101881 0)
(-2.02814e-07 -0.00411885 0)
(-9.08065e-07 -0.0120208 0)
(-1.28046e-06 -0.0195885 0)
(-9.03455e-07 -0.0268224 0)
(4.8316e-07 -0.0337225 0)
(2.95071e-06 -0.0402884 0)
(6.44904e-06 -0.0465198 0)
(1.08613e-05 -0.0524164 0)
(1.60433e-05 -0.0579783 0)
(2.18491e-05 -0.0632058 0)
(2.81475e-05 -0.0680991 0)
(3.48301e-05 -0.072659 0)
(4.18138e-05 -0.076886 0)
(4.90381e-05 -0.080781 0)
(5.64607e-05 -0.0843445 0)
(6.40512e-05 -0.0875772 0)
(7.17867e-05 -0.0904798 0)
(7.96483e-05 -0.0930528 0)
(8.76067e-05 -0.0952968 0)
(9.55654e-05 -0.0972123 0)
(0.000103319 -0.0988 0)
(0.000110875 -0.100061 0)
(0.000119892 -0.100995 0)
(0.000135419 -0.101606 0)
(0.000151694 -0.101908 0)
(-1.75025e-07 -0.00411738 0)
(-6.63071e-07 -0.0120194 0)
(-6.43229e-07 -0.0195891 0)
(2.56579e-07 -0.0268262 0)
(2.25284e-06 -0.0337299 0)
(5.38534e-06 -0.0402994 0)
(9.58268e-06 -0.0465341 0)
(1.47153e-05 -0.0524336 0)
(2.06318e-05 -0.0579979 0)
(2.71836e-05 -0.0632272 0)
(3.42381e-05 -0.068122 0)
(4.16865e-05 -0.072683 0)
(4.94441e-05 -0.076911 0)
(5.74479e-05 -0.0808066 0)
(6.56519e-05 -0.0843708 0)
(7.40212e-05 -0.087604 0)
(8.25289e-05 -0.090507 0)
(9.11524e-05 -0.0930803 0)
(9.98597e-05 -0.0953245 0)
(0.000108554 -0.0972401 0)
(0.000117031 -0.0988279 0)
(0.0001253 -0.100088 0)
(0.000134961 -0.101023 0)
(0.000150821 -0.101633 0)
(0.000166858 -0.101933 0)
(-1.43491e-07 -0.00411634 0)
(-3.87578e-07 -0.0120191 0)
(6.11552e-08 -0.0195914 0)
(1.52678e-06 -0.026832 0)
(4.17358e-06 -0.0337396 0)
(8.00431e-06 -0.0403128 0)
(1.29232e-05 -0.0465509 0)
(1.87849e-05 -0.0524532 0)
(2.54287e-05 -0.0580199 0)
(3.27e-05 -0.0632511 0)
(4.04624e-05 -0.0681474 0)
(4.86027e-05 -0.0727096 0)
(5.70309e-05 -0.0769385 0)
(6.56769e-05 -0.0808349 0)
(7.44846e-05 -0.0843996 0)
(8.34066e-05 -0.0876334 0)
(9.24001e-05 -0.0905367 0)
(0.000101423 -0.0931103 0)
(0.000110421 -0.0953546 0)
(0.000119268 -0.0972701 0)
(0.000127726 -0.0988576 0)
(0.000135763 -0.100118 0)
(0.000145012 -0.101051 0)
(0.000160606 -0.101661 0)
(0.000177154 -0.101958 0)
(-1.0879e-07 -0.00411577 0)
(-9.36185e-08 -0.0120201 0)
(8.02903e-07 -0.0195954 0)
(2.84898e-06 -0.0268399 0)
(6.15227e-06 -0.0337515 0)
(1.06755e-05 -0.0403286 0)
(1.62963e-05 -0.04657 0)
(2.28526e-05 -0.0524753 0)
(3.01729e-05 -0.0580442 0)
(3.80958e-05 -0.0632773 0)
(4.64799e-05 -0.068175 0)
(5.52072e-05 -0.0727383 0)
(6.4182e-05 -0.0769679 0)
(7.33264e-05 -0.0808649 0)
(8.25753e-05 -0.0844299 0)
(9.18711e-05 -0.0876638 0)
(0.00010116 -0.0905671 0)
(0.00011039 -0.0931404 0)
(0.000119497 -0.0953842 0)
(0.000128356 -0.097299 0)
(0.000136732 -0.0988855 0)
(0.000144613 -0.100145 0)
(0.000153627 -0.101077 0)
(0.000168784 -0.101688 0)
(0.000184311 -0.101987 0)
(-7.16956e-08 -0.0041157 0)
(2.06999e-07 -0.0120222 0)
(1.54726e-06 -0.0196012 0)
(4.15676e-06 -0.0268499 0)
(8.08419e-06 -0.0337657 0)
(1.32517e-05 -0.0403466 0)
(1.95116e-05 -0.0465915 0)
(2.66863e-05 -0.0524995 0)
(3.45966e-05 -0.0580707 0)
(4.30778e-05 -0.0633055 0)
(5.19884e-05 -0.0682045 0)
(6.12121e-05 -0.0727687 0)
(7.06557e-05 -0.076999 0)
(8.02455e-05 -0.0808963 0)
(8.99222e-05 -0.0844616 0)
(9.96364e-05 -0.0876954 0)
(0.000109346 -0.0905986 0)
(0.000119016 -0.0931715 0)
(0.000128601 -0.0954148 0)
(0.000137994 -0.0973289 0)
(0.000146981 -0.0989145 0)
(0.000155543 -0.100172 0)
(0.00016516 -0.101104 0)
(0.000180411 -0.101713 0)
(0.000194767 -0.10201 0)
(-3.67501e-08 -0.00411613 0)
(4.85413e-07 -0.0120256 0)
(2.22385e-06 -0.0196086 0)
(5.32384e-06 -0.0268617 0)
(9.77533e-06 -0.0337818 0)
(1.5461e-05 -0.0403667 0)
(2.22091e-05 -0.0466148 0)
(2.98292e-05 -0.0525255 0)
(3.81363e-05 -0.0580989 0)
(4.69652e-05 -0.0633352 0)
(5.61772e-05 -0.0682354 0)
(6.56602e-05 -0.0728005 0)
(7.53271e-05 -0.0770313 0)
(8.51109e-05 -0.080929 0)
(9.496e-05 -0.0844945 0)
(0.000104834 -0.0877284 0)
(0.0001147 -0.0906315 0)
(0.00012453 -0.0932043 0)
(0.000134284 -0.0954472 0)
(0.000143854 -0.0973608 0)
(0.000153011 -0.0989457 0)
(0.000161699 -0.100202 0)