/*--------------------------------*- C++ -*----------------------------------*\
| =========                 |                                                 |
| \\      /  F ield         | OpenFOAM: The Open Source CFD Toolbox           |
|  \\    /   O peration     | Version:  2.4.0                                 |
|   \\  /    A nd           | Web:      www.OpenFOAM.org                      |
|    \\/     M anipulation  |                                                 |
\*---------------------------------------------------------------------------*/
FoamFile
{
    version     2.0;
    format      ascii;
    class       volScalarField;
    location    "4.4";
    object      alpha1;
}
// * * * * * * * * * * * * * * * * * * * * * * * * * * * * * * * * * * * * * //

dimensions      [0 0 0 0 0 0 0];

internalField   nonuniform List<scalar> 
8000
(
1
1
1
1
1
0.999999
0.999997
0.999995
0.999994
0.999983
1
0.360617
5.10524e-08
7.52846e-08
1.5528e-08
5.62945e-10
3.49248e-18
1.05532e-19
1.67788e-20
2.4896e-21
3.49079e-22
4.7173e-23
6.21424e-24
8.03267e-25
1.02277e-25
1.28604e-26
1.60269e-27
2.01639e-28
2.90752e-29
7.82678e-30
4.86377e-30
3.97789e-30
3.27977e-30
2.6091e-30
1.99515e-30
1.46903e-30
1.04382e-30
7.17277e-31
4.77615e-31
3.08738e-31
1.9407e-31
1.18815e-31
7.09521e-32
4.13857e-32
2.36101e-32
1.31902e-32
7.22489e-33
3.8845e-33
2.05231e-33
1.06664e-33
1
1
1
1
1
0.999999
0.999997
0.999993
0.999992
0.999985
1
0.468374
4.38492e-08
9.40574e-08
2.00628e-08
7.54168e-10
4.16838e-18
1.2814e-19
2.08815e-20
3.17894e-21
4.57578e-22
6.34913e-23
8.5875e-24
1.13943e-24
1.48857e-25
1.91931e-26
2.44981e-27
3.14139e-28
4.4867e-29
1.11354e-29
6.57447e-30
5.41256e-30
4.54811e-30
3.69084e-30
2.87714e-30
2.15769e-30
1.56021e-30
1.09014e-30
7.37505e-31
4.83982e-31
3.08617e-31
1.91527e-31
1.15853e-31
6.84004e-32
3.94696e-32
2.22876e-32
1.23305e-32
6.69127e-33
3.56554e-33
1.86761e-33
1
1
1
1
1
0.999998
0.999996
0.999992
0.99999
0.999987
1
0.48751
4.48288e-08
1.07559e-07
2.34685e-08
9.10265e-10
4.39175e-18
1.40172e-19
2.33777e-20
3.64713e-21
5.38562e-22
7.67164e-23
1.06566e-23
1.45238e-24
1.94885e-25
2.58012e-26
3.37927e-27
4.43525e-28
6.38893e-29
1.52843e-29
8.74625e-30
7.24208e-30
6.17946e-30
5.09802e-30
4.03933e-30
3.07777e-30
2.26016e-30
1.60307e-30
1.1004e-30
7.32362e-31
4.73395e-31
2.97669e-31
1.82347e-31
1.08976e-31
6.36204e-32
3.63282e-32
2.03137e-32
1.11359e-32
5.99138e-33
3.16698e-33
1
1
1
1
1
0.999998
0.999995
0.99999
0.999988
0.999989
0.999997
0.570297
4.73168e-08
1.29852e-07
2.91749e-08
1.1528e-09
4.81766e-18
1.58595e-19
2.70126e-20
4.31114e-21
6.52116e-22
9.52315e-23
1.3568e-23
1.89701e-24
2.61117e-25
3.54524e-26
4.75875e-27
6.38552e-28
9.27219e-29
2.13435e-29
1.17617e-29
9.77326e-30
8.46438e-30
7.09696e-30
5.71316e-30
4.42054e-30
3.29474e-30
2.37056e-30
1.64983e-30
1.11273e-30
7.28529e-31
4.6377e-31
2.87479e-31
1.73766e-31
1.02555e-31
5.91737e-32
3.34193e-32
1.84953e-32
1.00414e-32
5.35368e-33
1
1
1
1
0.999999
0.999997
0.999993
0.999988
0.999986
0.999991
0.99999
0.568163
5.11179e-08
1.54678e-07
3.60435e-08
1.4343e-09
5.14202e-18
1.76032e-19
3.0617e-20
5.00035e-21
7.75418e-22
1.16239e-22
1.70148e-23
2.44542e-24
3.46093e-25
4.83113e-26
6.66412e-27
9.17123e-28
1.3496e-28
3.01311e-29
1.59788e-29
1.33068e-29
1.16999e-29
9.97621e-30
8.16633e-30
6.42271e-30
4.86376e-30
3.55408e-30
2.51105e-30
1.71855e-30
1.14127e-30
7.36596e-31
4.62737e-31
2.83343e-31
1.69333e-31
9.88936e-32
5.65087e-32
3.16288e-32
1.73599e-32
9.35341e-33
1
1
1
1
0.999999
0.999997
0.999991
0.999985
0.999984
0.999991
0.999969
0.454449
5.84714e-08
1.87803e-07
4.57524e-08
1.7954e-09
5.49061e-18
1.96496e-19
3.49504e-20
5.85309e-21
9.32741e-22
1.43898e-22
2.16984e-23
3.21439e-24
4.69009e-25
6.74898e-26
9.59181e-27
1.35718e-27
2.02819e-28
4.3804e-29
2.21057e-29
1.83844e-29
1.6423e-29
1.42625e-29
1.18902e-29
9.51971e-30
7.3353e-30
5.45142e-30
3.91537e-30
2.72279e-30
1.83645e-30
1.20327e-30
7.6704e-31
4.76382e-31
2.88639e-31
1.70832e-31
9.88836e-32
5.60433e-32
3.11352e-32
1.69736e-32
1
1
1
1
0.999999
0.999996
0.999989
0.999982
0.999982
0.999981
0.999856
0.237336
1.2488e-07
2.28074e-07
5.86732e-08
2.20146e-09
5.71638e-18
2.16503e-19
3.94846e-20
6.8034e-21
1.11856e-21
1.78364e-22
2.78331e-23
4.27004e-24
6.45431e-25
9.62066e-26
1.41552e-26
2.069e-27
3.15482e-28
6.59577e-29
3.12734e-29
2.5836e-29
2.34731e-29
2.08098e-29
1.77124e-29
1.4473e-29
1.13762e-29
8.62041e-30
6.30992e-30
4.46983e-30
3.06956e-30
2.0468e-30
1.32721e-30
8.38072e-31
5.16042e-31
3.10244e-31
1.82334e-31
1.04879e-31
5.91089e-32
3.26764e-32
1
1
1
1
0.999999
0.999994
0.999986
0.99998
0.999982
0.999984
0.888694
0.00091022
5.99417e-07
2.57082e-07
7.13026e-08
2.44451e-09
5.39932e-18
2.24261e-19
4.23201e-20
7.57522e-21
1.2977e-21
2.15997e-22
3.52183e-23
5.64805e-24
8.92394e-25
1.38974e-25
2.13414e-26
3.24739e-27
5.09207e-28
1.03576e-28
4.55192e-29
3.70414e-29
3.42476e-29
3.10762e-29
2.70868e-29
2.2658e-29
1.82241e-29
1.41236e-29
1.05679e-29
7.64853e-30
5.36356e-30
3.65012e-30
2.41428e-30
1.55421e-30
9.75113e-31
5.9701e-31
3.57128e-31
2.08975e-31
1.19755e-31
6.72819e-32
1
1
1
1
0.999998
0.999991
0.999983
0.999979
0.999982
0.999637
0.220887
2.29637e-06
6.26559e-07
1.85497e-07
4.2238e-08
1.87064e-09
3.68619e-18
1.90182e-19
3.83316e-20
7.33805e-21
1.34543e-21
2.39562e-22
4.17383e-23
7.14153e-24
1.20156e-24
1.98813e-25
3.23531e-26
5.19683e-27
8.49703e-28
1.70491e-28
6.8805e-29
5.44703e-29
5.1218e-29
4.77011e-29
4.273e-29
3.67322e-29
3.03507e-29
2.41529e-29
1.85476e-29
1.3769e-29
9.8978e-30
6.90041e-30
4.67254e-30
3.07737e-30
1.97396e-30
1.23476e-30
7.54145e-31
4.50269e-31
2.63111e-31
1.50643e-31
1
1
1
1
0.999995
0.999988
0.999981
0.999981
0.999771
0.29923
6.75024e-06
3.05828e-06
4.30846e-07
1.70454e-08
2.43534e-09
4.54251e-10
2.0234e-18
1.43489e-19
3.20244e-20
6.75818e-21
1.36045e-21
2.64893e-22
5.02783e-23
9.33736e-24
1.69877e-24
3.02754e-25
5.28457e-26
9.05685e-27
1.55826e-27
3.09518e-28
1.11321e-28
8.32312e-29
7.93163e-29
7.61146e-29
7.04346e-29
6.25538e-29
5.33758e-29
4.38385e-29
3.47199e-29
2.65621e-29
1.96612e-29
1.41021e-29
9.81556e-30
6.63908e-30
4.36961e-30
2.80207e-30
1.75293e-30
1.07108e-30
6.39995e-31
3.74392e-31
1
1
1
0.999998
0.999991
0.999984
0.999983
0.999857
0.361144
4.3874e-05
4.09027e-05
4.45199e-06
3.16149e-08
5.92896e-09
2.76562e-09
4.88975e-10
1.78193e-18
1.42275e-19
3.46353e-20
7.92393e-21
1.72259e-21
3.61797e-22
7.40663e-23
1.48324e-23
2.90716e-24
5.57154e-25
1.04287e-25
1.90776e-26
3.45482e-27
6.76008e-28
2.05123e-28
1.34991e-28
1.28679e-28
1.27974e-28
1.23379e-28
1.14159e-28
1.01392e-28
8.65813e-29
7.12079e-29
5.64996e-29
4.3318e-29
3.21409e-29
2.31124e-29
1.61303e-29
1.09406e-29
7.22128e-30
4.64436e-30
2.91422e-30
1.78626e-30
1.07082e-30
1
1
1
0.999996
0.999989
0.999973
0.999914
0.345864
0.00134103
0.00134095
5.84147e-05
1.95069e-07
3.32652e-08
8.59023e-09
3.26372e-09
5.56235e-10
1.99223e-18
1.70246e-19
4.61068e-20
1.13882e-20
2.63543e-21
5.8928e-22
1.29175e-22
2.7877e-23
5.91446e-24
1.22899e-24
2.4915e-25
4.91725e-26
9.49224e-27
1.87176e-27
4.74536e-28
2.45625e-28
2.24263e-28
2.31957e-28
2.3584e-28
2.30297e-28
2.15551e-28
1.93608e-28
1.67158e-28
1.38954e-28
1.11392e-28
8.62487e-29
6.45977e-29
4.68688e-29
3.29896e-29
2.25581e-29
1.50059e-29
9.72378e-30
6.14616e-30
3.7943e-30
1
1
1
0.999998
0.999991
0.999986
1
0.833835
0.0375912
0.0402295
8.84805e-05
8.49592e-05
1.29283e-07
5.69213e-08
1.93101e-08
6.86578e-09
2.36356e-17
8.6346e-19
2.02587e-19
4.33967e-20
8.86171e-21
1.811e-21
3.7849e-22
8.13357e-23
1.78604e-23
3.9543e-24
8.69751e-25
1.87842e-25
3.9607e-26
8.24291e-27
1.86212e-27
6.65589e-28
5.07745e-28
5.43551e-28
6.01078e-28
6.42167e-28
6.56598e-28
6.42474e-28
6.0245e-28
5.4226e-28
4.69298e-28
3.91178e-28
3.14564e-28
2.44439e-28
1.8385e-28
1.34055e-28
9.49096e-29
6.53463e-29
4.38206e-29
2.86638e-29
1
1
1
0.999999
0.999996
0.999991
0.999986
0.999989
0.999933
0.814708
0.0160558
0.0152395
4.48417e-06
8.55521e-06
3.12405e-05
6.39141e-05
2.62979e-05
2.59539e-13
5.1584e-14
1.03434e-14
1.79748e-15
2.46132e-16
3.10679e-17
8.01871e-18
4.38522e-18
2.5165e-18
1.16025e-18
4.16068e-19
1.195e-19
2.88221e-20
6.08499e-21
1.1603e-21
2.05634e-22
3.48141e-23
5.7631e-24
1.12877e-24
2.02151e-25
4.27657e-26
1.63992e-26
1.41931e-26
1.66811e-26
1.91398e-26
2.0895e-26
2.1695e-26
2.14813e-26
2.03434e-26
1.84796e-26
1.61448e-26
1.36004e-26
1.10734e-26
1
1
1
1
0.999999
0.999996
0.999992
0.999989
0.999988
0.999997
0.999907
1
0.970371
0.610223
0.133176
0.0227045
0.0205738
0.0122711
0.00454047
0.00141577
0.000475983
0.000201273
0.000118303
0.000115903
0.000110138
9.91804e-05
8.42018e-05
6.78768e-05
4.3985e-05
2.03277e-05
7.06212e-06
2.13202e-06
3.90413e-07
2.0198e-07
9.51082e-08
3.87447e-08
1.26951e-08
6.1096e-09
1.24175e-09
2.3266e-12
2.9099e-21
3.85022e-22
5.28589e-23
7.54695e-24
1.15715e-24
2.8036e-25
2.02124e-25
2.60133e-25
3.45072e-25
4.33416e-25
1
1
1
1
1
1
0.999999
0.999999
0.999998
0.999997
0.999991
0.999992
0.999999
0.999991
0.999929
0.999276
0.999998
0.829247
0.586143
0.389069
0.21657
0.103574
0.0509438
0.0299456
0.0187446
0.0105921
0.0050017
0.00204023
0.000947021
0.000524472
0.000321863
0.000189763
9.83769e-05
4.35748e-05
1.63373e-05
5.35658e-06
1.66079e-06
3.01127e-07
1.5849e-07
7.66699e-08
3.3394e-08
2.14033e-08
1.29758e-08
7.42445e-09
3.84915e-09
1.48928e-09
2.05656e-10
1.00865e-21
2.4149e-22
5.89233e-23
1
1
1
1
1
1
1
1
0.999999
0.999999
0.999999
0.999998
0.999998
0.999998
0.999995
0.999995
0.999996
0.999998
0.999981
0.999935
0.999803
0.999547
0.972374
0.902164
0.778526
0.597501
0.329075
0.117514
0.0344304
0.0205547
0.0130802
0.00716683
0.00343791
0.00149443
0.00063748
0.000290187
0.000134951
5.63473e-05
1.8521e-05
5.03008e-06
1.30991e-06
2.15896e-07
1.23581e-07
6.77425e-08
3.4647e-08
2.54856e-08
1.88235e-08
1.34678e-08
8.83144e-09
5.09084e-09
1
1
1
1
0.999999
0.999999
1
1
0.999999
0.999999
0.999999
0.999999
0.999999
0.999999
0.999998
0.999998
0.999998
0.999999
0.999995
0.99999
0.999988
0.999991
0.999999
0.999999
0.999994
0.999971
0.99987
0.999757
0.963513
0.949472
0.756533
0.33707
0.0820306
0.0255988
0.0179811
0.0112382
0.00459809
0.00143241
0.000494807
0.000230114
0.000117672
4.98754e-05
1.49258e-05
3.29366e-06
5.94842e-07
6.2899e-08
3.94092e-08
2.6237e-08
2.46691e-08
2.20799e-08
1
1
1
0.999999
0.999999
0.999999
0.999999
0.999999
0.999999
0.999999
0.999999
0.999999
0.999999
0.999999
0.999998
0.999998
0.999997
0.999995
0.999993
0.999993
0.999992
0.999979
0.999952
0.999811
0.999891
0.999966
0.999995
0.999998
1
1
0.999994
0.999924
0.993274
0.978159
0.914079
0.612362
0.187418
0.0390164
0.0298086
0.0136738
0.00400101
0.000997703
0.000290714
0.00010517
3.77636e-05
1.02395e-05
2.04056e-06
3.08839e-07
3.16629e-08
2.81795e-08
1
1
0.999999
0.999999
0.999999
0.999999
0.999999
0.999999
0.999998
0.999998
0.999998
0.999998
0.999998
0.999998
0.999998
0.999997
0.999995
0.999992
0.999991
0.999982
0.999959
0.999856
0.999807
0.999807
0.999835
0.999931
0.999986
0.999989
0.999967
0.999765
0.998676
0.999228
0.999953
0.999999
0.999999
0.999977
0.999983
0.970751
0.953774
0.66357
0.176703
0.0431781
0.0209884
0.00571311
0.00109901
0.000215245
5.30023e-05
1.28832e-05
2.53751e-06
4.23744e-07
5.45891e-34
2.75391e-34
1.37081e-34
6.73933e-35
3.27569e-35
1.57574e-35
7.51037e-36
3.55154e-36
1.66929e-36
7.81983e-37
3.66857e-37
1.73953e-37
8.48989e-38
4.41206e-38
2.57264e-38
1.77488e-38
1.47223e-38
1.42303e-38
1.533e-38
1.78704e-38
2.22483e-38
2.94053e-38
4.09898e-38
5.96755e-38
8.96648e-38
1.37437e-37
2.12823e-37
3.3053e-37
5.12246e-37
7.89538e-37
1.20774e-36
1.83112e-36
2.74967e-36
4.08782e-36
6.01557e-36
8.76243e-36
1.26347e-35
1.80364e-35
2.54948e-35
3.56902e-35
4.94911e-35
6.79945e-35
9.25718e-35
1.2492e-34
1.67117e-34
2.21684e-34
2.91651e-34
3.80619e-34
4.92834e-34
6.33256e-34
9.62568e-34
4.88634e-34
2.44542e-34
1.20764e-34
5.8902e-35
2.83995e-35
1.35478e-35
6.40022e-36
2.99713e-36
1.39266e-36
6.42876e-37
2.95239e-37
1.35173e-37
6.19549e-38
2.87559e-38
1.40438e-38
8.10378e-39
6.78963e-39
8.7149e-39
1.41021e-38
2.44828e-38
4.29171e-38
7.46429e-38
1.28205e-37
2.17216e-37
3.62991e-37
5.98401e-37
9.73412e-37
1.56293e-36
2.4777e-36
3.87936e-36
6.0007e-36
9.17279e-36
1.38606e-35
2.07094e-35
3.06036e-35
4.47421e-35
6.47305e-35
9.2696e-35
1.31425e-34
1.84531e-34
2.56644e-34
3.53644e-34
4.82914e-34
6.53638e-34
8.77124e-34
1.16716e-33
1.54041e-33
2.0168e-33
2.61995e-33
1.64632e-33
8.42463e-34
4.24773e-34
2.11211e-34
1.03657e-34
5.02538e-35
2.40865e-35
1.14224e-35
5.36384e-36
2.49622e-36
1.15231e-36
5.28211e-37
2.40845e-37
1.09692e-37
5.06226e-38
2.49647e-38
1.54193e-38
1.49043e-38
2.16233e-38
3.72161e-38
6.66021e-38
1.1901e-37
2.10173e-37
3.66001e-37
6.28294e-37
1.0634e-36
1.77508e-36
2.92326e-36
4.75103e-36
7.62285e-36
1.2078e-35
1.89037e-35
2.92355e-35
4.46895e-35
6.75394e-35
1.00945e-34
1.49246e-34
2.18336e-34
3.16129e-34
4.53134e-34
6.43157e-34
9.04146e-34
1.25919e-33
1.73769e-33
2.37672e-33
3.22257e-33
4.33247e-33
5.77653e-33
7.63982e-33
1.00247e-32
2.80589e-33
1.44699e-33
7.34923e-34
3.6794e-34
1.81736e-34
8.86304e-35
4.27111e-35
2.03536e-35
9.59852e-36
4.48277e-36
2.07493e-36
9.52767e-37
4.34757e-37
1.98154e-37
9.19947e-38
4.68495e-38
3.19961e-38
3.56408e-38
5.64273e-38
1.0076e-37
1.83644e-37
3.32414e-37
5.93768e-37
1.04532e-36
1.81368e-36
3.1022e-36
5.23263e-36
8.70674e-36
1.42962e-35
2.31717e-35
3.70855e-35
5.86261e-35
9.15694e-35
1.41354e-34
2.15719e-34
3.25544e-34
4.85949e-34
7.17703e-34
1.04902e-33
1.51781e-33
2.17446e-33
3.08523e-33
4.33639e-33
6.0391e-33
8.33518e-33
1.14038e-32
1.54694e-32
2.08098e-32
2.7767e-32
3.67567e-32
4.9521e-33
2.57886e-33
1.32218e-33
6.6798e-34
3.32826e-34
1.63683e-34
7.95177e-35
3.81871e-35
1.81416e-35
8.53191e-36
3.97505e-36
1.83638e-36
8.42748e-37
3.86488e-37
1.81399e-37
9.53181e-38
7.01742e-38
8.5112e-38
1.41167e-37
2.57577e-37
4.75858e-37
8.71172e-37
1.57286e-36
2.79814e-36
4.90541e-36
8.47693e-36
1.44446e-35
2.42785e-35
4.02655e-35
6.59148e-35
1.06539e-34
1.70075e-34
2.68234e-34
4.18076e-34
6.4415e-34
9.81368e-34
1.47879e-33
2.20458e-33
3.2524e-33
4.74952e-33
6.86702e-33
9.83253e-33
1.39458e-32
1.95974e-32
2.72919e-32
3.76737e-32
5.15595e-32
6.99736e-32
9.41898e-32
1.25778e-31
9.08949e-33
4.78603e-33
2.48025e-33
1.26618e-33
6.37315e-34
3.16544e-34
1.55268e-34
7.52709e-35
3.60901e-35
1.71267e-35
8.05007e-36
3.75116e-36
1.73619e-36
8.03313e-37
3.81383e-37
2.04842e-37
1.57235e-37
1.98965e-37
3.38167e-37
6.26003e-37
1.16971e-36
2.16403e-36
3.94713e-36
7.09304e-36
1.25594e-35
2.19193e-35
3.77181e-35
6.40163e-35
1.072e-34
1.77175e-34
2.89104e-34
4.65893e-34
7.417e-34
1.16683e-33
1.81449e-33
2.78988e-33
4.2425e-33
6.38232e-33
9.50102e-33
1.39993e-32
2.04219e-32
2.95015e-32
4.22136e-32
5.98444e-32
8.40725e-32
1.17069e-31
1.61614e-31
2.21237e-31
3.00377e-31
4.04573e-31
1.77374e-32
9.46363e-33
4.96776e-33
2.56807e-33
1.30853e-33
6.57768e-34
3.26459e-34
1.60103e-34
7.76448e-35
3.72642e-35
1.77118e-35
8.3449e-36
3.90434e-36
1.82474e-36
8.72439e-37
4.67116e-37
3.5136e-37
4.36723e-37
7.41867e-37
1.38445e-36
2.61395e-36
4.8888e-36
9.01478e-36
1.63761e-35
2.93099e-35
5.17007e-35
8.99096e-35
1.54203e-34
2.60919e-34
4.35697e-34
7.18244e-34
1.16924e-33
1.88023e-33
2.98761e-33
4.69212e-33
7.28568e-33
1.11878e-32
1.69948e-32
2.55441e-32
3.80002e-32
5.5964e-32
8.16143e-32
1.17886e-31
1.68695e-31
2.3921e-31
3.362e-31
4.68433e-31
6.47178e-31
8.86784e-31
1.20536e-30
3.71002e-32
2.00991e-32
1.07086e-32
5.61657e-33
2.90264e-33
1.47941e-33
7.44287e-34
3.69919e-34
1.81777e-34
8.83851e-35
4.25563e-35
2.03087e-35
9.62055e-36
4.54452e-36
2.17935e-36
1.13799e-36
7.89489e-37
8.99037e-37
1.47809e-36
2.75776e-36
5.25568e-36
9.944e-36
1.8558e-35
3.41196e-35
6.17997e-35
1.10305e-34
1.94082e-34
3.36745e-34
5.76357e-34
9.73426e-34
1.62284e-33
2.67144e-33
4.3436e-33
6.97778e-33
1.10784e-32
1.7388e-32
2.69875e-32
4.14315e-32
6.29321e-32
9.46017e-32
1.40774e-31
2.0742e-31
3.02685e-31
4.37567e-31
6.26778e-31
8.89811e-31
1.25226e-30
1.74741e-30
2.41822e-30
3.3196e-30
8.46005e-32
4.66529e-32
2.5288e-32
1.34871e-32
7.08457e-33
3.66868e-33
1.87459e-33
9.45995e-34
4.71878e-34
2.32859e-34
1.13772e-34
5.50856e-35
2.64623e-35
1.26491e-35
6.07963e-36
3.06417e-36
1.86521e-36
1.75784e-36
2.61119e-36
4.76865e-36
9.14112e-36
1.75155e-35
3.31533e-35
6.18348e-35
1.13609e-34
2.05663e-34
3.66949e-34
6.45525e-34
1.12002e-33
1.9173e-33
3.23929e-33
5.40309e-33
8.90029e-33
1.44833e-32
2.32897e-32
3.70183e-32
5.8177e-32
9.0425e-32
1.39042e-31
2.11563e-31
3.18627e-31
4.75099e-31
7.01541e-31
1.02611e-30
1.487e-30
2.13553e-30
3.04002e-30
4.29061e-30
6.00522e-30
8.33677e-30
2.14667e-31
1.20774e-31
6.67458e-32
3.62719e-32
1.94026e-32
1.02265e-32
5.31609e-33
2.72817e-33
1.38346e-33
6.93848e-34
3.44471e-34
1.6944e-34
8.26597e-35
4.00593e-35
1.93774e-35
9.52758e-36
5.10818e-36
3.63639e-36
4.2264e-36
7.06606e-36
1.34045e-35
2.59836e-35
5.00125e-35
9.49509e-35
1.77586e-34
3.27187e-34
5.93997e-34
1.06296e-33
1.87564e-33
3.26455e-33
5.60645e-33
9.50351e-33
1.59056e-32
2.62919e-32
4.29368e-32
6.92956e-32
1.10554e-31
1.74406e-31
2.72135e-31
4.20112e-31
6.41827e-31
9.70636e-31
1.45342e-30
2.15541e-30
3.16651e-30
4.60942e-30
6.65009e-30
9.51097e-30
1.34876e-29
1.89694e-29
6.28579e-31
3.61723e-31
2.04298e-31
1.13373e-31
6.18846e-32
3.32622e-32
1.76225e-32
9.21252e-33
4.75682e-33
2.42834e-33
1.2268e-33
6.13937e-34
3.04629e-34
1.50036e-34
7.34864e-35
3.5989e-35
1.79979e-35
9.95174e-36
7.49891e-36
9.24661e-36
1.59537e-35
3.07228e-35
6.01613e-35
1.16834e-34
2.23721e-34
4.21957e-34
7.83908e-34
1.43491e-33
2.58877e-33
4.60497e-33
8.07932e-33
1.39857e-32
2.38947e-32
4.03056e-32
6.71449e-32
1.10504e-31
1.79717e-31
2.8892e-31
4.59268e-31
7.22069e-31
1.12314e-30
1.72884e-30
2.63422e-30
3.97412e-30
5.93788e-30
8.78884e-30
1.28898e-29
1.87362e-29
2.69982e-29
3.85753e-29
2.29074e-30
1.3542e-30
7.84847e-31
4.46486e-31
2.49612e-31
1.37297e-31
7.43858e-32
3.97409e-32
2.09596e-32
1.09243e-32
5.63296e-33
2.87648e-33
1.45618e-33
7.31544e-34
3.65102e-34
1.81309e-34
8.99369e-35
4.5197e-35
2.43117e-35
1.6555e-35
1.79602e-35
2.92646e-35
5.60549e-35
1.11e-34
2.18836e-34
4.25668e-34
8.15417e-34
1.53811e-33
2.85768e-33
5.23148e-33
9.44034e-33
1.67985e-32
2.94875e-32
5.10802e-32
8.7352e-32
1.4752e-31
2.4611e-31
4.05679e-31
6.60883e-31
1.06435e-30
1.69508e-30
2.67035e-30
4.16238e-30
6.4214e-30
9.80733e-30
1.48327e-29
2.22202e-29
3.29795e-29
4.85085e-29
7.07248e-29
1.8316e-29
1.14499e-29
7.01246e-30
4.21361e-30
2.4875e-30
1.44477e-30
8.26713e-31
4.66687e-31
2.60253e-31
1.43564e-31
7.84425e-32
4.25092e-32
2.28775e-32
1.2243e-32
6.52339e-33
3.46522e-33
1.83769e-33
9.74925e-34
5.19876e-34
2.83196e-34
1.67006e-34
1.25173e-34
1.45044e-34
2.4359e-34
4.76571e-34
9.64314e-34
1.94364e-33
3.86415e-33
7.5605e-33
1.45541e-32
2.75712e-32
5.14186e-32
9.44378e-32
1.70884e-31
3.04756e-31
5.35873e-31
9.29371e-31
1.59041e-30
2.68647e-30
4.48077e-30
7.38187e-30
1.20161e-29
1.93322e-29
3.07507e-29
4.83739e-29
7.52801e-29
1.15927e-28
1.76704e-28
2.66677e-28
3.98579e-28
8.73383e-27
6.68717e-27
4.98048e-27
3.61511e-27
2.56204e-27
1.7759e-27
1.20598e-27
8.03606e-28
5.26248e-28
3.39173e-28
2.15451e-28
1.35072e-28
8.3685e-29
5.13034e-29
3.11599e-29
1.87723e-29
1.12308e-29
6.67968e-30
3.95387e-30
2.33163e-30
1.37119e-30
8.04927e-31
4.72113e-31
2.76962e-31
1.62754e-31
9.61272e-32
5.7641e-32
3.62254e-32
2.60392e-32
2.49067e-32
3.39351e-32
5.82624e-32
1.09229e-31
2.08683e-31
3.96716e-31
7.45038e-31
1.37951e-30
2.51748e-30
4.52854e-30
8.03205e-30
1.40511e-29
2.42527e-29
4.1316e-29
6.94907e-29
1.15432e-28
1.89433e-28
3.0722e-28
4.92535e-28
7.80817e-28
1.22437e-27
5.12935e-25
5.74386e-25
6.1159e-25
6.22062e-25
6.06933e-25
5.70193e-25
5.17549e-25
4.5526e-25
3.89179e-25
3.24122e-25
2.63591e-25
2.09757e-25
1.63644e-25
1.25384e-25
9.45041e-26
7.01743e-26
5.14083e-26
3.72034e-26
2.66291e-26
1.88733e-26
1.32593e-26
9.24282e-27
6.39892e-27
4.40357e-27
3.01475e-27
2.05484e-27
1.39538e-27
9.44675e-28
6.37998e-28
4.30086e-28
2.89555e-28
1.94797e-28
1.31027e-28
8.81885e-29
5.94794e-29
4.03379e-29
2.77537e-29
1.98215e-29
1.54783e-29
1.44001e-29
1.70592e-29
2.49764e-29
4.12445e-29
7.14578e-29
1.25264e-28
2.18878e-28
3.79069e-28
6.4938e-28
1.0997e-27
1.84081e-27
1.49105e-23
4.54366e-24
2.59707e-24
3.03059e-24
4.4578e-24
6.59134e-24
9.35064e-24
1.2635e-23
1.62738e-23
2.00345e-23
2.36534e-23
2.68739e-23
2.94803e-23
3.13218e-23
3.23235e-23
3.24851e-23
3.18692e-23
3.05855e-23
2.87714e-23
2.6575e-23
2.41407e-23
2.15984e-23
1.90573e-23
1.66033e-23
1.42986e-23
1.21842e-23
1.02826e-23
8.60148e-24
7.13746e-24
5.8792e-24
4.81038e-24
3.91186e-24
3.1635e-24
2.54537e-24
2.03862e-24
1.62595e-24
1.29193e-24
1.02303e-24
8.07622e-25
6.35818e-25
4.99337e-25
3.91303e-25
3.0606e-25
2.38997e-25
1.86377e-25
1.45199e-25
1.13067e-25
8.80877e-26
6.8788e-26
5.40508e-26
2.4973e-09
9.88444e-10
2.72734e-10
3.17251e-11
5.96013e-15
3.20487e-22
1.75997e-22
9.93889e-23
6.44726e-23
5.48833e-23
6.2387e-23
8.44376e-23
1.2224e-22
1.79404e-22
2.6092e-22
3.72247e-22
5.18419e-22
7.03214e-22
9.28456e-22
1.19354e-21
1.49524e-21
1.8278e-21
2.18329e-21
2.55214e-21
2.92385e-21
3.28766e-21
3.63325e-21
3.95124e-21
4.2337e-21
4.47438e-21
4.66891e-21
4.81472e-21
4.91103e-21
4.95863e-21
4.95963e-21
4.91724e-21
4.83548e-21
4.71892e-21
4.57243e-21
4.40104e-21
4.20968e-21
4.0031e-21
3.78574e-21
3.56167e-21
3.33453e-21
3.10753e-21
2.8834e-21
2.66444e-21
2.45252e-21
2.24914e-21
1.75173e-08
1.21915e-08
7.52662e-09
4.17865e-09
2.10911e-09
9.64893e-10
3.89509e-10
1.28236e-10
2.84585e-11
2.55723e-12
2.17968e-21
2.77771e-21
3.26715e-21
3.58718e-21
3.75289e-21
3.81929e-21
3.85758e-21
3.94288e-21
4.15006e-21
4.55511e-21
5.24041e-21
6.30246e-21
7.86154e-21
1.0072e-20
1.31328e-20
1.7296e-20
2.28742e-20
3.02438e-20
3.98453e-20
5.21786e-20
6.77954e-20
8.72867e-20
1.11268e-19
1.40359e-19
1.75169e-19
2.16272e-19
2.64188e-19
3.19365e-19
3.82162e-19
4.52832e-19
5.31513e-19
6.18217e-19
7.12827e-19
8.15093e-19
9.24636e-19
1.04095e-18
1.16342e-18
1.2913e-18
1.42379e-18
1.55997e-18
3.12809e-08
2.89989e-08
2.3185e-08
1.66697e-08
1.10662e-08
6.85767e-09
3.97726e-09
2.15719e-09
1.09142e-09
5.12188e-10
2.18595e-10
8.04158e-11
2.31141e-11
4.35224e-12
3.453e-13
2.04923e-20
2.88732e-20
4.31309e-20
6.63344e-20
1.01814e-19
1.52958e-19
2.2304e-19
3.15087e-19
4.31775e-19
5.7537e-19
7.47691e-19
9.50111e-19
1.18359e-18
1.4487e-18
1.74575e-18
2.07483e-18
2.43593e-18
2.82907e-18
3.25446e-18
3.71264e-18
4.20473e-18
4.73264e-18
5.29939e-18
5.90946e-18
6.56913e-18
7.287e-18
8.07439e-18
8.94593e-18
9.92009e-18
1.10197e-17
1.22728e-17
1.37127e-17
1.53792e-17
1.73187e-17
1.95849e-17
4.67925e-08
3.73615e-08
3.28487e-08
2.76797e-08
2.24302e-08
1.7343e-08
1.26611e-08
8.6752e-09
5.57833e-09
3.3761e-09
1.92527e-09
1.02921e-09
5.09196e-10
2.28648e-10
9.07815e-11
3.06926e-11
8.3112e-12
1.62353e-12
1.83749e-13
5.47446e-15
3.5592e-19
5.6762e-19
8.74402e-19
1.3022e-18
1.88147e-18
2.64903e-18
3.65076e-18
4.94517e-18
6.60796e-18
8.73765e-18
1.14623e-17
1.49473e-17
1.94046e-17
2.5103e-17
3.23793e-17
4.16514e-17
5.34319e-17
6.83436e-17
8.71352e-17
1.10699e-16
1.40089e-16
1.76541e-16
2.2149e-16
2.76594e-16
3.43753e-16
4.25129e-16
5.23169e-16
6.40621e-16
7.8056e-16
9.46398e-16
8.07623e-34
9.2247e-34
1.05152e-33
1.19623e-33
1.35812e-33
1.53885e-33
1.74019e-33
1.96399e-33
2.21222e-33
2.48697e-33
2.79041e-33
3.12482e-33
3.49257e-33
3.89613e-33
4.33804e-33
4.82092e-33
5.34743e-33
5.92031e-33
6.54232e-33
7.21622e-33
7.94481e-33
8.73085e-33
9.57706e-33
1.04861e-32
1.14606e-32
1.2503e-32
1.36157e-32
1.48009e-32
1.60605e-32
1.73965e-32
1.88102e-32
2.03032e-32
2.18763e-32
2.35303e-32
2.52654e-32
2.70817e-32
2.89788e-32
3.09557e-32
3.30112e-32
3.51436e-32
3.73506e-32
3.96296e-32
4.19774e-32
4.43903e-32
4.68642e-32
4.93944e-32
5.19757e-32
5.46025e-32
5.72688e-32
5.9968e-32
6.26932e-32
6.54369e-32
6.81915e-32
7.0949e-32
7.3701e-32
7.6439e-32
7.91541e-32
8.18374e-32
8.448e-32
8.70726e-32
8.96062e-32
9.20719e-32
9.44605e-32
9.67635e-32
9.89721e-32
1.01078e-31
1.03074e-31
1.04952e-31
1.06704e-31
1.08325e-31
1.09808e-31
1.11147e-31
1.12338e-31
1.13375e-31
1.14257e-31
1.14978e-31
1.15537e-31
1.15933e-31
1.16164e-31
1.1623e-31
1.16131e-31
1.15869e-31
1.15445e-31
1.14862e-31
1.14123e-31
1.13232e-31
1.12192e-31
1.11009e-31
1.09689e-31
1.08236e-31
1.06657e-31
1.04959e-31
1.0315e-31
1.01235e-31
9.92227e-32
9.7121e-32
9.49377e-32
9.26806e-32
9.0358e-32
8.79778e-32
8.55483e-32
8.30772e-32
8.05727e-32
7.80424e-32
7.54939e-32
7.29347e-32
7.03717e-32
6.7812e-32
6.5262e-32
6.27281e-32
6.02162e-32
5.77318e-32
5.52802e-32
5.28663e-32
5.04945e-32
4.81689e-32
4.58933e-32
4.36709e-32
4.15048e-32
3.93974e-32
3.73511e-32
3.53676e-32
3.34485e-32
3.15949e-32
2.98077e-32
2.80875e-32
2.64345e-32
2.48487e-32
2.33299e-32
2.18775e-32
2.0491e-32
1.91693e-32
1.79114e-32
1.6716e-32
1.55818e-32
1.45073e-32
1.34907e-32
1.25305e-32
1.16248e-32
1.07717e-32
9.96931e-33
9.21571e-33
8.50891e-33
7.84692e-33
7.22777e-33
6.64946e-33
6.11006e-33
5.60762e-33
5.14026e-33
4.70611e-33
4.30337e-33
3.93027e-33
3.58511e-33
3.26624e-33
2.97205e-33
2.70102e-33
2.45167e-33
2.22258e-33
2.0124e-33
1.81983e-33
1.64365e-33
1.48269e-33
1.33583e-33
1.20203e-33
1.08029e-33
9.69674e-34
8.6931e-34
7.7837e-34
6.96082e-34
6.21723e-34
5.54622e-34
4.94152e-34
4.39731e-34
3.90821e-34
3.46923e-34
3.07575e-34
2.72354e-34
2.40868e-34
2.12758e-34
1.87697e-34
1.65381e-34
1.45538e-34
1.27916e-34
1.12287e-34
9.84434e-35
8.61986e-35
7.53817e-35
6.58392e-35
5.74321e-35
5.00352e-35
4.35361e-35
3.78333e-35
3.2836e-35
2.84629e-35
2.46409e-35
2.13051e-35
1.83974e-35
1.58661e-35
1.36653e-35
1.17542e-35
1.00969e-35
8.66137e-36
7.4196e-36
6.34679e-36
5.42117e-36
4.62361e-36
3.93732e-36
3.34761e-36
2.8416e-36
2.40804e-36
2.0371e-36
1.72023e-36
1.44995e-36
1.2198e-36
1.02413e-36
8.58067e-37
7.17385e-37
5.9843e-37
4.98046e-37
4.13513e-37
3.42483e-37
2.82936e-37
2.33134e-37
1.91585e-37
1.57009e-37
1.2831e-37
1.04553e-37
8.49413e-38
6.87965e-38
5.55446e-38
4.47e-38
3.5853e-38
2.86591e-38
2.28289e-38
1.81203e-38
1.43311e-38
1.1293e-38
8.86627e-39
6.93532e-39
5.40484e-39
4.19655e-39
3.24643e-39
2.5023e-39
1.92182e-39
1.47082e-39
1.12178e-39
8.52706e-40
6.46067e-40
4.87962e-40
3.67426e-40
2.75849e-40
2.06504e-40
1.5416e-40
1.14767e-40
8.52058e-41
6.3083e-41
4.65703e-41
3.42766e-41
2.51473e-41
1.83852e-41
1.33901e-41
9.71088e-42
7.00944e-42
5.03293e-42
3.59258e-42
2.54772e-42
1.79366e-42
1.25268e-42
8.67151e-43
5.94468e-43
4.03224e-43
2.70353e-43
1.78996e-43
1.16901e-43
7.52255e-44
4.76377e-44
2.96488e-44
1.811e-44
1.08395e-44
6.34666e-45
3.62837e-45
2.02121e-45
1.09458e-45
5.74784e-46
2.91831e-46
1.42793e-46
6.70804e-47
3.0124e-47
1.28658e-47
5.19444e-48
1.96808e-48
6.93528e-49
2.24774e-49
6.60465e-50
1.72624e-50
3.90884e-51
7.37694e-52
1.0903e-52
1.12416e-53
6.07256e-55
3.37762e-33
3.88339e-33
4.45594e-33
5.10269e-33
5.83171e-33
6.65173e-33
7.57214e-33
8.60307e-33
9.75537e-33
1.10406e-32
1.24712e-32
1.40601e-32
1.58214e-32
1.77696e-32
1.99202e-32
2.22892e-32
2.48936e-32
2.77507e-32
3.08788e-32
3.42966e-32
3.80232e-32
4.20784e-32
4.6482e-32
5.12545e-32
5.64161e-32
6.19872e-32
6.79884e-32
7.44395e-32
8.13604e-32
8.87703e-32
9.66875e-32
1.0513e-31
1.14114e-31
1.23654e-31
1.33766e-31
1.44461e-31
1.55749e-31
1.67639e-31
1.80138e-31
1.93249e-31
2.06974e-31
2.21312e-31
2.36258e-31
2.51806e-31
2.67944e-31
2.8466e-31
3.01937e-31
3.19755e-31
3.3809e-31
3.56915e-31
3.76198e-31
3.95907e-31
4.16004e-31
4.36447e-31
4.57193e-31
4.78194e-31
4.994e-31
5.20758e-31
5.42213e-31
5.63706e-31
5.85178e-31
6.06566e-31
6.27807e-31
6.48838e-31
6.69591e-31
6.90002e-31
7.10004e-31
7.29532e-31
7.48519e-31
7.66902e-31
7.84618e-31
8.01604e-31
8.17802e-31
8.33155e-31
8.47607e-31
8.61109e-31
8.73612e-31
8.85071e-31
8.95446e-31
9.04701e-31
9.12804e-31
9.19727e-31
9.25447e-31
9.29946e-31
9.33211e-31
9.35232e-31
9.36006e-31
9.35535e-31
9.33825e-31
9.30886e-31
9.26734e-31
9.21389e-31
9.14876e-31
9.07223e-31
8.98463e-31
8.88633e-31
8.77772e-31
8.65925e-31
8.53137e-31
8.39458e-31
8.2494e-31
8.09635e-31
7.936e-31
7.76892e-31
7.59569e-31
7.4169e-31
7.23314e-31
7.04503e-31
6.85315e-31
6.65811e-31
6.46048e-31
6.26086e-31
6.05982e-31
5.85789e-31
5.65564e-31
5.45356e-31
5.25217e-31
5.05194e-31
4.85333e-31
4.65676e-31
4.46263e-31
4.27133e-31
4.08319e-31
3.89855e-31
3.71768e-31
3.54087e-31
3.36833e-31
3.20028e-31
3.0369e-31
2.87834e-31
2.72472e-31
2.57616e-31
2.43273e-31
2.29448e-31
2.16144e-31
2.03363e-31
1.91105e-31
1.79366e-31
1.68142e-31
1.57428e-31
1.47216e-31
1.37498e-31
1.28264e-31
1.19503e-31
1.11204e-31
1.03354e-31
9.59403e-32
8.89486e-32
8.2365e-32
7.61748e-32
7.03632e-32
6.49149e-32
5.98149e-32
5.50477e-32
5.05983e-32
4.64515e-32
4.25922e-32
3.90059e-32
3.56778e-32
3.25939e-32
2.97403e-32
2.71036e-32
2.46707e-32
2.2429e-32
2.03663e-32
1.84711e-32
1.6732e-32
1.51384e-32
1.36801e-32
1.23475e-32
1.11314e-32
1.0023e-32
9.0141e-33
8.09709e-33
7.26465e-33
6.50998e-33
5.82671e-33
5.20889e-33
4.65099e-33
4.14784e-33
3.69465e-33
3.28701e-33
2.9208e-33
2.59224e-33
2.29784e-33
2.03439e-33
1.79893e-33
1.58878e-33
1.40144e-33
1.23466e-33
1.08638e-33
9.54703e-34
8.37932e-34
7.34511e-34
6.43031e-34
5.62218e-34
4.90919e-34
4.28097e-34
3.72814e-34
3.2423e-34
2.81588e-34
2.44211e-34
2.11491e-34
1.82888e-34
1.57916e-34
1.36145e-34
1.17191e-34
1.00713e-34
8.64074e-35
7.4007e-35
6.3274e-35
5.39987e-35
4.5996e-35
3.91027e-35
3.31751e-35
2.8087e-35
2.37275e-35
1.99995e-35
1.68179e-35
1.41082e-35
1.18055e-35
9.85307e-36
8.20158e-36
6.80808e-36
5.63531e-36
4.65093e-36
3.82699e-36
3.13933e-36
2.56711e-36
2.09244e-36
1.69993e-36
1.37644e-36
1.11072e-36
8.93218e-37
7.15813e-37
5.71636e-37
4.54894e-37
3.60721e-37
2.8504e-37
2.24451e-37
1.76129e-37
1.37738e-37
1.07353e-37
8.33949e-38
6.45743e-38
4.98436e-38
3.83552e-38
2.94266e-38
2.25107e-38
1.71713e-38
1.30619e-38
9.90868e-39
7.49613e-39
5.6554e-39
4.25473e-39
3.1917e-39
2.38701e-39
1.77944e-39
1.32192e-39
9.78327e-40
7.21048e-40
5.29004e-40
3.86154e-40
2.80306e-40
2.02217e-40
1.44889e-40
1.03036e-40
7.26701e-41
5.07928e-41
3.51537e-41
2.40706e-41
1.62912e-41
1.08879e-41
7.17814e-42
4.66309e-42
2.98135e-42
1.87357e-42
1.1557e-42
6.98677e-43
4.13288e-43
2.38774e-43
1.34466e-43
7.36482e-44
3.91344e-44
2.01177e-44
9.97296e-45
4.74997e-45
2.16428e-45
9.38655e-46
3.85187e-46