/*--------------------------------*- C++ -*----------------------------------*\
| =========                 |                                                 |
| \\      /  F ield         | OpenFOAM: The Open Source CFD Toolbox           |
|  \\    /   O peration     | Version:  2.4.0                                 |
|   \\  /    A nd           | Web:      www.OpenFOAM.org                      |
|    \\/     M anipulation  |                                                 |
\*---------------------------------------------------------------------------*/
FoamFile
{
    version     2.0;
    format      ascii;
    class       volScalarField;
    location    "4.4";
    object      p;
}
// * * * * * * * * * * * * * * * * * * * * * * * * * * * * * * * * * * * * * //

dimensions      [1 -1 -2 0 0 0 0];

internalField   nonuniform List<scalar> 
8000
(
0.0644528
0.0678043
0.0713155
0.0743833
0.0766233
0.0788235
0.0874567
0.115943
0.147966
0.0171357
-0.600544
-1.20719
0.209112
0.207143
0.206833
0.20725
0.208007
0.208933
0.209926
0.210916
0.211855
0.212717
0.213488
0.214158
0.214723
0.215179
0.215523
0.215755
0.215871
0.215872
0.215757
0.215525
0.215176
0.214711
0.214129
0.213433
0.212622
0.211699
0.210664
0.209519
0.208267
0.206908
0.205446
0.203883
0.202221
0.200462
0.198611
0.196668
0.194638
0.192524
0.392193
0.395644
0.399621
0.403193
0.405719
0.407945
0.417526
0.451205
0.49225
0.344531
-0.40197
-1.34403
0.334546
0.335477
0.334591
0.333904
0.333358
0.332834
0.332276
0.331663
0.330983
0.330231
0.329406
0.328509
0.327543
0.326511
0.325417
0.324264
0.323054
0.321792
0.320478
0.319116
0.317708
0.316256
0.314761
0.313226
0.311652
0.31004
0.308392
0.30671
0.304994
0.303245
0.301465
0.299655
0.297815
0.295947
0.29405
0.292127
0.290177
0.288201
0.62618
0.627101
0.628086
0.628714
0.628397
0.627756
0.634085
0.663506
0.701041
0.554538
-0.168567
-1.09647
0.590872
0.590442
0.589929
0.589591
0.589319
0.589027
0.588679
0.58826
0.587755
0.587158
0.586462
0.585664
0.584761
0.583752
0.582636
0.581411
0.580076
0.578632
0.577077
0.575412
0.573637
0.571751
0.569755
0.56765
0.565435
0.563112
0.560682
0.558145
0.555503
0.552756
0.549906
0.546954
0.543903
0.540752
0.537504
0.534161
0.530725
0.527196
0.908317
0.906972
0.905576
0.904089
0.901851
0.899431
0.904714
0.935473
0.976409
0.82064
0.027406
-1.06081
0.748114
0.748263
0.74766
0.747205
0.746834
0.746433
0.745947
0.745354
0.744643
0.743807
0.742845
0.741754
0.740535
0.739189
0.737717
0.736119
0.734397
0.732553
0.730586
0.728499
0.726293
0.72397
0.721529
0.718974
0.716305
0.713525
0.710634
0.707634
0.704527
0.701314
0.697998
0.694579
0.69106
0.687443
0.683729
0.67992
0.676019
0.672026
1.20132
1.19711
1.19289
1.18903
1.18481
1.18085
1.18508
1.21448
1.25089
1.08819
0.306717
-0.764889
0.906865
0.906765
0.90622
0.905805
0.90545
0.905058
0.904582
0.904001
0.903301
0.902475
0.901519
0.900432
0.89921
0.897856
0.896368
0.894746
0.89299
0.891102
0.88908
0.886926
0.88464
0.882222
0.879674
0.876995
0.874188
0.871252
0.86819
0.865001
0.861688
0.858251
0.854692
0.851012
0.847213
0.843296
0.839263
0.835115
0.830855
0.826484
1.29789
1.29324
1.28785
1.28208
1.27545
1.26882
1.26944
1.29019
1.30545
1.12855
0.451173
-0.342331
1.02551
1.02561
1.02511
1.02477
1.02454
1.02431
1.024
1.02358
1.02304
1.02236
1.02154
1.02057
1.01946
1.01821
1.01681
1.01527
1.01358
1.01175
1.00977
1.00765
1.0054
1.003
1.00046
0.997786
0.994974
0.992026
0.988943
0.985728
0.982382
0.978905
0.9753
0.971569
0.967712
0.963731
0.959629
0.955407
0.951067
0.94661
1.47197
1.46447
1.45594
1.4474
1.43873
1.43198
1.43542
1.45376
1.43059
1.15757
0.534358
0.309857
1.12467
1.12426
1.12403
1.12405
1.1242
1.12437
1.12446
1.12443
1.12425
1.12391
1.1234
1.12272
1.12188
1.12087
1.11969
1.11836
1.11686
1.1152
1.11339
1.11143
1.10931
1.10705
1.10463
1.10207
1.09936
1.09651
1.09352
1.09038
1.08711
1.08371
1.08017
1.07649
1.07269
1.06875
1.06469
1.0605
1.05619
1.05176
1.82054
1.80597
1.7908
1.77666
1.76405
1.76465
1.80676
1.87006
1.64829
0.41987
-1.40824
1.20283
1.21142
1.20888
1.20848
1.20837
1.20829
1.20818
1.20798
1.20767
1.20722
1.20661
1.20585
1.20494
1.20387
1.20266
1.20129
1.19978
1.19812
1.19632
1.19438
1.1923
1.19008
1.18773
1.18524
1.18262
1.17986
1.17698
1.17396
1.17082
1.16755
1.16415
1.16063
1.15699
1.15322
1.14933
1.14532
1.14119
1.13695
1.13258
1.60912
1.59035
1.56977
1.55091
1.53814
1.54557
1.57529
1.50997
0.982551
-0.0358939
0.493148
1.2723
1.27335
1.27208
1.27117
1.27057
1.26994
1.26926
1.26851
1.26767
1.26673
1.26568
1.26452
1.26325
1.26186
1.26037
1.25876
1.25704
1.2552
1.25325
1.25119
1.24902
1.24674
1.24434
1.24183
1.23921
1.23648
1.23363
1.23068
1.22761
1.22442
1.22113
1.21772
1.2142
1.21057
1.20683
1.20298
1.19901
1.19494
1.19075
1.15836
1.1317
1.10243
1.07919
1.07395
1.09205
1.04831
0.637231
-0.270635
0.100799
1.29533
1.29777
1.29615
1.29579
1.29534
1.29489
1.29441
1.29387
1.29326
1.29256
1.29177
1.29088
1.2899
1.28881
1.28763
1.28635
1.28497
1.28348
1.28189
1.2802
1.2784
1.2765
1.27449
1.27238
1.27016
1.26784
1.26541
1.26288
1.26023
1.25748
1.25462
1.25165
1.24858
1.24539
1.2421
1.23869
1.23517
1.23155
1.22781
1.22396
0.633908
0.598806
0.565117
0.55049
0.564346
0.54179
0.202517
-0.691875
-0.331721
1.29912
1.30233
1.30043
1.30017
1.29986
1.29954
1.29917
1.2987
1.29814
1.29749
1.29676
1.29595
1.29509
1.29415
1.29315
1.29209
1.29095
1.28973
1.28843
1.28706
1.28559
1.28404
1.28241
1.28067
1.27885
1.27693
1.27492
1.27281
1.27059
1.26828
1.26587
1.26335
1.26073
1.258
1.25517
1.25223
1.24918
1.24602
1.24274
1.23936
1.23587
-1.21096
-1.22763
-1.23662
-1.2233
-1.23874
-1.55009
-2.45933
-2.03459
1.26475
1.28102
1.28991
1.28494
1.28471
1.28401
1.28363
1.28337
1.28311
1.28284
1.28253
1.28216
1.2817
1.28115
1.28049
1.27974
1.27888
1.27793
1.2769
1.27579
1.27461
1.27334
1.27201
1.27059
1.2691
1.26753
1.26588
1.26415
1.26232
1.26041
1.2584
1.25629
1.25408
1.25177
1.24936
1.24684
1.2442
1.24146
1.23861
1.23564
1.23255
1.22935
-3.56416
-3.5478
-3.52418
-3.45199
-3.34651
-3.65063
-5.52709
-8.18645
1.34004
1.58937
1.22055
1.25145
1.25709
1.25672
1.2561
1.25557
1.25531
1.25494
1.25433
1.2536
1.25282
1.25201
1.25115
1.25027
1.24942
1.2486
1.24781
1.24701
1.24619
1.24533
1.24442
1.24345
1.24239
1.24125
1.24001
1.23866
1.2372
1.23562
1.23393
1.23213
1.23021
1.22818
1.22602
1.22375
1.22136
1.21884
1.2162
1.21343
1.21053
1.2075
-1.6087
-1.59128
-1.57309
-1.55806
-1.53057
-1.45196
-1.34787
-1.63836
-3.39451
-9.31439
-2.85113
-2.52396
0.849518
1.00772
1.12445
1.18086
1.18808
1.21535
1.22813
1.22879
1.22965
1.22898
1.2274
1.22638
1.22587
1.22548
1.225
1.22428
1.2233
1.22211
1.22079
1.21937
1.21782
1.21615
1.21437
1.21248
1.21051
1.20847
1.20637
1.20418
1.2019
1.1995
1.197
1.19437
1.19161
1.18874
1.18573
1.18261
1.17936
1.17599
-1.18783
-1.14192
-1.09222
-1.0465
-1.004
-0.961517
-0.920024
-0.894047
-0.914754
-1.1215
-1.61683
-1.69867
-6.15742
-9.28502
-6.09035
0.397261
0.192937
1.07603
1.00097
1.05316
1.10631
1.13152
1.13115
1.13374
1.15469
1.17992
1.19387
1.19394
1.18611
1.18079
1.17997
1.18011
1.1796
1.17823
1.17638
1.17431
1.17208
1.16967
1.16708
1.16434
1.16146
1.15845
1.15533
1.1521
1.14876
1.14531
1.14173
1.13803
1.13421
1.13026
-0.475027
-0.412343
-0.34654
-0.286626
-0.231343
-0.179231
-0.129747
-0.081851
-0.0335534
0.0145496
0.0521141
0.0821871
0.0318361
-0.16371
-0.546623
-0.857487
-0.0483308
-7.93787
-7.65163
-7.76242
-6.67299
-4.48062
-1.39307
0.547175
1.29086
1.39711
1.25627
1.08822
1.03125
1.04384
1.0772
1.09759
1.09602
1.08701
1.08241
1.08204
1.08239
1.08175
1.08018
1.07822
1.07604
1.07365
1.07106
1.06825
1.06524
1.06207
1.05874
1.05526
1.05164
1.04788
2.88299
2.89442
2.91389
2.93876
2.96814
3.00196
3.04033
3.08331
3.131
3.18348
3.24088
3.30428
3.37919
3.47078
3.57705
3.67742
3.81675
3.85385
3.85105
3.77433
3.61315
3.29819
-1.03407
-4.9343
-5.5382
-5.74085
-7.03797
-6.26742
-0.370489
1.36041
1.84093
1.53155
1.08039
0.907749
0.942971
0.983895
0.987961
0.975297
0.96769
0.966808
0.966914
0.965714
0.9634
0.9606
0.957633
0.954564
0.951356
0.947978
0.944428
0.940714
2.66828
2.68205
2.69689
2.71319
2.73178
2.75286
2.77633
2.80214
2.83022
2.86063
2.89328
2.92826
2.96568
3.00589
3.04877
3.0938
3.14139
3.2006
3.27509
3.36992
3.462
3.53961
3.61831
3.68102
3.71796
3.64962
3.34872
2.88894
-1.76154
-2.74454
-5.58634
-7.00631
-5.06552
0.864161
1.76173
1.80396
1.06976
0.753224
0.796051
0.829159
0.829275
0.817009
0.810448
0.809017
0.807853
0.805843
0.803349
0.800765
0.798166
0.79547
4.10166
4.13016
4.16377
4.1965
4.22802
4.25874
4.28904
4.31886
4.34817
4.37694
4.40513
4.43266
4.45949
4.48549
4.51059
4.5346
4.55741
4.57894
4.59931
4.61825
4.63556
4.6505
4.6653
4.74821
4.74409
4.7867
4.82146
4.86576
4.93506
5.02924
4.96992
4.436
2.9831
1.28974
-3.59442
-4.83521
-5.92264
0.302563
0.949748
1.71492
0.819685
0.623467
0.637682
0.636859
0.628989
0.625042
0.624252
0.62312
0.621476
0.619732
3.99036
4.02112
4.05363
4.08439
4.11446
4.14446
4.17477
4.20533
4.23628
4.2676
4.29944
4.33173
4.36465
4.39807
4.4322
4.46691
4.50236
4.53835
4.57504
4.6121
4.6497
4.68759
4.72793
4.76554
4.78959
4.82525
4.86113
4.89694
4.91978
4.94594
5.42872
5.2148
5.35475
5.41496
5.3975
5.33374
5.34284
1.62803
-1.64801
-5.35023
-5.7434
-0.921311
0.801708
0.826785
0.47373
0.459239
0.447476
0.441644
0.441337
0.440746
0.190327
0.188053
0.185704
0.183283
0.180794
0.178239
0.175624
0.17295
0.170222
0.167443
0.164617
0.161746
0.158836
0.155888
0.152907
0.149896
0.146858
0.143797
0.140716
0.137619
0.134508
0.131387
0.128259
0.125126
0.121993
0.118861
0.115734
0.112614
0.109504
0.106406
0.103323
0.100258
0.0972116
0.0941872
0.0911865
0.0882116
0.0852642
0.0823461
0.079459
0.0766045
0.0737841
0.070999
0.0682505
0.0655399
0.0628684
0.060237
0.0576454
0.0550941
0.0525867
0.0501308
0.2862
0.284174
0.282125
0.280052
0.277955
0.275837
0.273696
0.271534
0.26935
0.267146
0.264922
0.262678
0.260415
0.258133
0.255832
0.253514
0.251178
0.248825
0.246456
0.24407
0.24167
0.239254
0.236824
0.23438
0.231923
0.229453
0.226971
0.224477
0.221973
0.219458
0.216934
0.2144
0.211859
0.209309
0.206753
0.20419
0.201622
0.199049
0.196471
0.19389
0.191306
0.188721
0.186133
0.183545
0.180957
0.178372
0.175788
0.173198
0.170603
0.168033
0.523578
0.519872
0.51608
0.512205
0.508248
0.504212
0.500099
0.495911
0.49165
0.48732
0.482922
0.478459
0.473933
0.469347
0.464704
0.460005
0.455254
0.450453
0.445605
0.440712
0.435776
0.430801
0.42579
0.420743
0.415665
0.410558
0.405424
0.400265
0.395086
0.389886
0.384671
0.37944
0.374199
0.368947
0.363689
0.358425
0.353159
0.347893
0.342629
0.337369
0.332115
0.32687
0.321634
0.316411
0.311203
0.306012
0.300838
0.295679
0.290537
0.285436
0.667944
0.663775
0.659521
0.655184
0.650766
0.646268
0.641694
0.637045
0.632323
0.62753
0.622669
0.617742
0.61275
0.607697
0.602583
0.597413
0.592186
0.586907
0.581577
0.576198
0.570773
0.565303
0.559792
0.554241
0.548652
0.543028
0.537371
0.531683
0.525966
0.520223
0.514455
0.508666
0.502856
0.497028
0.491184
0.485327
0.479458
0.473579
0.467693
0.461801
0.455905
0.450008
0.444111
0.438216
0.432325
0.426441
0.420564
0.414691
0.408824
0.402987
0.822003
0.817416
0.812723
0.807926
0.803029
0.798032
0.792938
0.787749
0.782467
0.777095
0.771634
0.766087
0.760457
0.754746
0.748955
0.743088
0.737147
0.731134
0.725052
0.718903
0.71269
0.706415
0.700081
0.693691
0.687246
0.68075
0.674204
0.667612
0.660976
0.654298
0.647582
0.640829
0.634042
0.627223
0.620376
0.613501
0.606603
0.599683
0.592744
0.585788
0.578817
0.571835
0.564842
0.557841
0.550836
0.543828
0.536819
0.529807
0.522794
0.515802
0.942038
0.937354
0.932559
0.927656
0.922646
0.917531
0.912313
0.906995
0.901578
0.896065
0.890457
0.884758
0.878968
0.873091
0.867129
0.861084
0.854957
0.848752
0.842471
0.836115
0.829688
0.823192
0.816629
0.810001
0.80331
0.79656
0.789752
0.782889
0.775973
0.769007
0.761993
0.754933
0.747829
0.740684
0.733501
0.726282
0.719028
0.711743
0.704428
0.697086
0.68972
0.682331
0.674921
0.667494
0.660051
0.652595
0.645127
0.637645
0.630152
0.622669
1.0472
1.04253
1.03774
1.03283
1.02781
1.02268
1.01744
1.01209
1.00664
1.00108
0.995422
0.989662
0.983803
0.977849
0.971801
0.96566
0.95943
0.953111
0.946707
0.940219
0.93365
0.927001
0.920275
0.913473
0.906599
0.899654
0.892641
0.885562
0.878418
0.871213
0.863948
0.856626
0.849249
0.84182
0.83434
0.826811
0.819237
0.81162
0.803961
0.796263
0.788528
0.780759
0.772958
0.765126
0.757268
0.749384
0.741476
0.733544
0.72559
0.717632
1.1281
1.12351
1.1188
1.11398
1.10905
1.10401
1.09887
1.09361
1.08825
1.08279
1.07723
1.07156
1.06579
1.05993
1.05397
1.04791
1.04176
1.03552
1.02919
1.02278
1.01627
1.00968
1.00301
0.996254
0.989421
0.982511
0.975525
0.968466
0.961336
0.954135
0.946867
0.939534
0.932137
0.924679
0.917161
0.909585
0.901955
0.894271
0.886536
0.878753
0.870922
0.863047
0.855129
0.847171
0.839175
0.831144
0.823078
0.814977
0.806843
0.798694
1.18646
1.18205
1.17753
1.17291
1.16818
1.16333
1.15839
1.15333
1.14817
1.14291
1.13754
1.13207
1.12649
1.12082
1.11504
1.10917
1.10319
1.09713
1.09096
1.0847
1.07835
1.07191
1.06538
1.05876
1.05205
1.04526
1.03838
1.03142
1.02438
1.01726
1.01007
1.0028
0.995458
0.988044
0.980561
0.97301
0.965393
0.957713
0.949971
0.94217
0.934311
0.926396
0.918428
0.910408
0.902339
0.894224
0.886062
0.877856
0.869608
0.86133
1.22
1.21593
1.21175
1.20745
1.20305
1.19854
1.19391
1.18918
1.18433
1.17938
1.17432
1.16915
1.16387
1.15848
1.15299
1.1474
1.1417
1.13589
1.12999
1.12398
1.11787
1.11167
1.10536
1.09896
1.09246
1.08587
1.07919
1.07242
1.06555
1.0586
1.05157
1.04445
1.03724
1.02996
1.02259
1.01515
1.00764
1.00005
0.992387
0.984656
0.976858
0.968994
0.961066
0.953078
0.94503
0.936924
0.928763
0.920548
0.912283
0.903975
1.23226
1.22854
1.2247
1.22075
1.21668
1.2125
1.20821
1.2038
1.19927
1.19463
1.18987
1.185
1.18001
1.17491
1.1697
1.16437
1.15893
1.15338
1.14772
1.14195
1.13607
1.13009
1.12399
1.1178
1.11149
1.10509
1.09858
1.09197
1.08527
1.07846
1.07156
1.06457
1.05749
1.05031
1.04305
1.0357
1.02827
1.02075
1.01315
1.00547
0.997719
0.98989
0.981987
0.974015
0.965974
0.957866
0.949693
0.941459
0.933167
0.92482
1.22603
1.22259
1.21904
1.21536
1.21156
1.20763
1.20359
1.19942
1.19513
1.19072
1.18618
1.18152
1.17674
1.17184
1.16681
1.16166
1.1564
1.15101
1.14551
1.13988
1.13414
1.12829
1.12232
1.11623
1.11003
1.10373
1.09731
1.09079
1.08415
1.07742
1.07058
1.06364
1.0566
1.04946
1.04223
1.0349
1.02748
1.01997
1.01238
1.0047
0.99693
0.989082
0.981156
0.973152
0.965074
0.956923
0.948701
0.940412
0.932061
0.923647
1.20434
1.20106
1.19764
1.19409
1.19041
1.18659
1.18264
1.17856
1.17435
1.17001
1.16553
1.16092
1.15618
1.15131
1.14631
1.14118
1.13592
1.13053
1.12502
1.11939
1.11363
1.10774
1.10174
1.09562
1.08938
1.08302
1.07654
1.06996
1.06326
1.05645
1.04954
1.04251
1.03539
1.02816
1.02083
1.0134
1.00588
0.998264
0.990556
0.982759
0.974874
0.966905
0.958853
0.950721
0.942511
0.934225
0.925865
0.917437
0.908946
0.900387
1.17249
1.16886
1.16511
1.16123
1.15722
1.15309
1.14882
1.14443
1.1399
1.13525
1.13047
1.12556
1.12052
1.11536
1.11007
1.10465
1.09911
1.09344
1.08766
1.08175
1.07571
1.06956
1.06329
1.05691
1.05041
1.04379
1.03706
1.03022
1.02328
1.01622
1.00906
1.0018
0.994433
0.986967
0.979404
0.971745
0.963992
0.956148
0.948215
0.940195
0.932089
0.923901
0.915633
0.907287
0.898866
0.89037
0.881803
0.87317
0.864477
0.855719
1.12618
1.12198
1.11766
1.11321
1.10864
1.10394
1.09913
1.09419
1.08913
1.08395
1.07865
1.07323
1.06769
1.06203
1.05625
1.05035
1.04434
1.03822
1.03198
1.02562
1.01915
1.01258
1.00589
0.999091
0.992187
0.985177
0.978063
0.970847
0.963529
0.956111
0.948596
0.940984
0.933278
0.92548
0.917591
0.909613
0.901548
0.893399
0.885167
0.876855
0.868465
0.859998
0.851457
0.842845
0.834163
0.825414
0.816599
0.807724
0.798796
0.789808
1.04397
1.03991
1.0357
1.03135
1.02685
1.02221
1.01742
1.01249
1.00743
1.00223
0.99689
0.991419
0.985817
0.980084
0.974223
0.968236
0.962124
0.955889
0.949532
0.943057
0.936463
0.929754
0.922932
0.915997
0.908952
0.9018
0.894541
0.887178
0.879713
0.872148
0.864485
0.856726
0.848873
0.840929
0.832895
0.824774
0.816568
0.80828
0.79991
0.791463
0.78294
0.774343
0.765675
0.756939
0.748136
0.739269
0.73034
0.721355
0.71232
0.70323
0.936847
0.932831
0.92867
0.924366
0.919918
0.915328
0.910595
0.905719
0.900704
0.89555
0.890259
0.884834
0.879275
0.873585
0.867766
0.861818
0.855745
0.849547
0.843227
0.836786
0.830227
0.823551
0.81676
0.809857
0.802842
0.79572
0.788491
0.781157
0.773721
0.766185
0.758552
0.750822
0.743
0.735086
0.727083
0.718994
0.710821
0.702567
0.694233
0.685822
0.677337
0.66878
0.660153
0.65146
0.642703
0.633883
0.625003
0.61607
0.60709
0.598057
0.79261
0.789561
0.786321
0.782893
0.779281
0.77549
0.771524
0.767387
0.763082
0.758612
0.75398
0.74919
0.744243
0.739144
0.733896
0.728501
0.722962
0.717283
0.711466
0.705513
0.699429
0.693214
0.686873
0.680408
0.673821
0.667116
0.660295
0.65336
0.646314
0.639161
0.631902
0.624541
0.61708
0.609522
0.601869
0.594124
0.586291
0.578371
0.570368
0.562284
0.554121
0.545884
0.537574
0.529195
0.520749
0.512239
0.503667
0.495039
0.486362
0.477632
0.618018
0.616252
0.614345
0.612257
0.609972
0.607485
0.604795
0.601907
0.598822
0.595545
0.592079
0.588428
0.584594
0.580583
0.576397
0.57204
0.567516
0.562827
0.557979
0.552973
0.547814
0.542506
0.53705
0.531452
0.525715
0.51984
0.513833
0.507697
0.501434
0.495048
0.488542
0.48192
0.475184
0.468339
0.461386
0.45433
0.447174
0.439921
0.432574
0.425136
0.417611
0.410001
0.402311
0.394543
0.386701
0.378786
0.370804
0.362758
0.354656
0.346496
0.438879
0.436807
0.435019
0.433406
0.431794
0.430098
0.428279
0.426312
0.424182
0.421883
0.419413
0.416774
0.413965
0.410988
0.407844
0.404535
0.401061
0.397425
0.393629
0.389674
0.385562
0.381297
0.376879
0.372312
0.367598
0.36274
0.35774
0.352602
0.347329
0.341922
0.336386
0.330724
0.324938
0.319032
0.313009
0.306873
0.300625
0.294271
0.287813
0.281254
0.274598
0.267848
0.261009
0.254082
0.247072
0.239982
0.232815
0.225576
0.218272
0.210902
0.0482761
0.0470022
0.0457357
0.0444739
0.0432176
0.0419673
0.0407235
0.0394867
0.0382573
0.0370358
0.0358224
0.0346178
0.0334223
0.0322363
0.0310602
0.0298944
0.0287392
0.0275952
0.0264625
0.0253416
0.0242329
0.0231366
0.0220531
0.0209827
0.0199257
0.0188824
0.0178531
0.016838
0.0158374
0.0148516
0.0138808
0.0129252
0.011985
0.0110605
0.0101518
0.00925903
0.00838246
0.00752219
0.00667837
0.00585111
0.00504054
0.00424675
0.00346983
0.00270986
0.0019669
0.001241
0.000532204
-0.00015947
-0.000834006
-0.0014914
-0.00213166
-0.00275482
-0.0033609
-0.00394995
-0.00452203
-0.00507721
-0.00561556
-0.00613718
-0.00664217
-0.00713063
-0.0076027
-0.0080585
-0.00849818
-0.00892189
-0.00932979
-0.00972204
-0.0100988
-0.0104604
-0.0108068
-0.0111384
-0.0114553
-0.0117578
-0.0120461
-0.0123203
-0.0125809
-0.012828
-0.0130618
-0.0132826
-0.0134907
-0.0136864
-0.0138699
-0.0140415
-0.0142014
-0.0143501
-0.0144877
-0.0146145
-0.0147308
-0.014837
-0.0149332
-0.0150199
-0.0150973
-0.0151657
-0.0152254
-0.0152767
-0.01532
-0.0153554
-0.0153832
-0.0154039
-0.0154177
-0.0154248
-0.0154255
-0.0154202
-0.0154091
-0.0153925
-0.0153707
-0.0153439
-0.0153124
-0.0152765
-0.0152364
-0.0151924
-0.0151447
-0.0150936
-0.0150393
-0.014982
-0.014922
-0.0148595
-0.0147947
-0.0147278
-0.0146591
-0.0145886
-0.0145167
-0.0144434
-0.014369
-0.0142936
-0.0142174
-0.0141406
-0.0140632
-0.0139855
-0.0139076
-0.0138295
-0.0137515
-0.0136736
-0.0135959
-0.0135186
-0.0134418
-0.0133655
-0.0132899
-0.013215
-0.0131409
-0.0130678
-0.0129958
-0.0129248
-0.0128549
-0.0127864
-0.0127191
-0.0126533
-0.0125889
-0.012526
-0.0124647
-0.012405
-0.0123469
-0.0122905
-0.0122359
-0.012183
-0.0121318
-0.0120824
-0.0120348
-0.011989
-0.0119449
-0.0119027
-0.0118622
-0.0118235
-0.0117865
-0.0117513
-0.0117178
-0.011686
-0.0116559
-0.0116274
-0.0116006
-0.0115754
-0.0115517
-0.0115296
-0.011509
-0.0114899
-0.0114722
-0.0114559
-0.0114411
-0.0114275
-0.0114153
-0.0114043
-0.0113946
-0.0113861
-0.0113787
-0.0113724
-0.0113672
-0.011363
-0.0113597
-0.0113573
-0.0113558
-0.011355
-0.011355
-0.0113557
-0.011357
-0.0113588
-0.0113613
-0.0113642
-0.0113676
-0.0113715
-0.0113759
-0.0113806
-0.0113858
-0.0113913
-0.0113972
-0.0114034
-0.0114099
-0.0114166
-0.0114236
-0.0114308
-0.0114381
-0.0114456
-0.0114531
-0.0114607
-0.0114684
-0.011476
-0.0114836
-0.0114911
-0.0114984
-0.0115056
-0.0115125
-0.0115191
-0.0115253
-0.0115312
-0.0115365
-0.0115414
-0.0115458
-0.0115497
-0.0115531
-0.011556
-0.0115584
-0.0115603
-0.0115618
-0.0115628
-0.0115634
-0.0115636
-0.0115634
-0.0115627
-0.0115617
-0.0115602
-0.0115584
-0.0115562
-0.0115536
-0.0115506
-0.0115472
-0.0115435
-0.0115394
-0.0115349
-0.0115301
-0.0115248
-0.0115192
-0.0115132
-0.0115069
-0.0115002
-0.0114931
-0.0114856
-0.0114779
-0.0114698
-0.0114614
-0.0114528
-0.0114439
-0.0114349
-0.0114257
-0.0114163
-0.0114067
-0.0113971
-0.0113873
-0.0113774
-0.0113674
-0.0113573
-0.0113472
-0.011337
-0.0113267
-0.0113165
-0.0113063
-0.0112963
-0.0112863
-0.0112765
-0.0112669
-0.0112575
-0.0112485
-0.0112397
-0.0112312
-0.0112229
-0.0112148
-0.0112069
-0.0111991
-0.0111913
-0.0111835
-0.0111757
-0.0111677
-0.0111597
-0.0111516
-0.0111436
-0.0111356
-0.0111266
-0.0111163
-0.0111077
-0.0111072
-0.011111
-0.0110894
-0.0110149
0.16611
0.164778
0.163444
0.162104
0.160759
0.15941
0.158056
0.156697
0.155334
0.153966
0.152593
0.151216
0.149834
0.148448
0.147057
0.145662
0.144262
0.142858
0.14145
0.140038
0.138622
0.137201
0.135777
0.134349
0.132918
0.131482
0.130043
0.128601
0.127156
0.125708
0.124256
0.122802
0.121345
0.119886
0.118424
0.11696
0.115494
0.114026
0.112557
0.111086
0.109614
0.10814
0.106666
0.105192
0.103716
0.102241
0.100765
0.0992901
0.0978152
0.0963411
0.0948678
0.0933957
0.0919249
0.0904558
0.0889886
0.0875235
0.0860608
0.0846007
0.0831435
0.0816895
0.0802389
0.0787919
0.0773489
0.0759101
0.0744757
0.0730461
0.0716214
0.070202
0.0687881
0.0673799
0.0659778
0.0645819
0.0631926
0.06181
0.0604345
0.0590662
0.0577054
0.0563524
0.0550074
0.0536705
0.0523421
0.0510224
0.0497115
0.0484098
0.0471173
0.0458343
0.044561
0.0432976
0.0420442
0.040801
0.0395683
0.0383462
0.0371347
0.0359342
0.0347447
0.0335663
0.0323992
0.0312436
0.0300995
0.028967
0.0278463
0.0267374
0.0256405
0.0245555
0.0234826
0.0224219
0.0213734
0.0203371
0.0193132
0.0183015
0.0173022
0.0163153
0.0153408
0.0143787
0.013429
0.0124917
0.0115667
0.0106541
0.00975384
0.00886586
0.00799013
0.0071266
0.00627523
0.00543595
0.00460871
0.00379344
0.00299006
0.0021985
0.00141867
0.000650494
-0.00010613
-0.000851296
-0.00158511
-0.00230767
-0.00301909
-0.00371949
-0.00440899
-0.0050877
-0.00575576
-0.00641328
-0.00706039
-0.00769722
-0.00832389
-0.00894053
-0.00954724
-0.0101441
-0.0107313
-0.0113089
-0.011877
-0.0124357
-0.012985
-0.0135251
-0.014056
-0.0145778
-0.0150905
-0.0155942
-0.0160891
-0.016575
-0.0170522
-0.0175207
-0.0179805
-0.0184317
-0.0188744
-0.0193087
-0.0197346
-0.0201523
-0.0205617
-0.020963
-0.0213563
-0.0217416
-0.022119
-0.0224885
-0.0228504
-0.0232046
-0.0235512
-0.0238903
-0.0242221
-0.0245465
-0.0248637
-0.0251737
-0.0254767
-0.0257726
-0.0260616
-0.0263437
-0.026619
-0.0268875
-0.0271493
-0.0274045
-0.027653
-0.027895
-0.0281305
-0.0283596
-0.0285825
-0.0287992
-0.0290097
-0.0292143
-0.0294131
-0.0296062
-0.0297937
-0.0299757
-0.0301524
-0.0303238
-0.0304901
-0.0306513
-0.0308076
-0.0309589
-0.0311054
-0.0312471
-0.031384
-0.0315163
-0.031644
-0.0317671
-0.0318857
-0.0319998
-0.0321095
-0.0322148
-0.0323156
-0.0324119
-0.0325038
-0.0325913
-0.0326743
-0.032753
-0.0328274
-0.0328977
-0.0329639
-0.0330264
-0.0330851
-0.0331404
-0.0331925
-0.0332414
-0.0332875
-0.0333307
-0.0333713
-0.0334093
-0.0334448
-0.033478
-0.0335088
-0.0335374
-0.0335637
-0.033588
-0.0336101
-0.0336302
-0.0336482
-0.0336642
-0.0336783
-0.0336904
-0.0337006
-0.0337089
-0.0337154
-0.03372
-0.0337228
-0.0337239
-0.0337233
-0.033721
-0.0337171
-0.0337116
-0.0337047
-0.0336964
-0.0336868
-0.0336759
-0.0336639
-0.0336508
-0.0336367
-0.0336217
-0.0336059
-0.0335894
-0.0335723
-0.0335546
-0.0335364
-0.0335178
-0.033499
-0.0334799
-0.0334608
-0.0334415
-0.0334223
-0.0334032
-0.0333841
-0.0333653
-0.0333466
-0.0333281
-0.0333098
-0.0332917
-0.0332738
-0.033256
-0.0332381
-0.0332201
-0.0332019
-0.0331834
-0.0331642
-0.0331443
-0.0331239
-0.0331034
-0.0330823
-0.0330584
-0.0330307
-0.0330071
-0.0330025
-0.0330062
-0.032949
-0.032771
0.28156
0.278865
0.276165
0.273456
0.27074
0.268017
0.265288
0.262552
0.259811
0.257065
0.254314
0.251558
0.248798
0.246035
0.243268
0.240498
0.237726
0.234952
0.232176
0.229399
0.226621
0.223843
0.221065
0.218287
0.21551
0.212735
0.209961
0.207189
0.20442
0.201654
0.198891
0.196133
0.193378
0.190628
0.187884
0.185145
0.182412
0.179685
0.176965
0.174253
0.171548
0.168852
0.166163
0.163484
0.160814
0.158154
0.155504
0.152864
0.150236
0.147618
0.145013
0.142419
0.139838
0.137269
0.134714
0.132172
0.129645
0.127131
0.124632
0.122148
0.119679
0.117226
0.114788
0.112367
0.109962
0.107574
0.105203
0.102849
0.100513
0.0981947
0.0958946
0.0936128
0.0913496
0.0891052
0.0868799
0.0846738
0.0824872
0.0803203
0.0781732
0.076046
0.0739391
0.0718524
0.0697863
0.0677407
0.0657159
0.0637119
0.0617289
0.0597669
0.0578261
0.0559065
0.0540081
0.0521311
0.0502755
0.0484414
0.0466287
0.0448375
0.0430678
0.0413195
0.0395928
0.0378876
0.0362038
0.0345415
0.0329006
0.0312809
0.0296826
0.0281055
0.0265495
0.0250146
0.0235006
0.0220075
0.0205352
0.0190835
0.0176523
0.0162415
0.014851
0.0134807
0.0121302
0.0107996
0.00948869
0.00819724
0.00692509
0.00567209
0.00443805
0.00322277
0.00202608
0.00084777
-0.000312346
-0.00145447
-0.0025788
-0.00368555
-0.00477491
-0.0058471
-0.00690231
-0.00794077
-0.00896266
-0.00996821
-0.0109576
-0.0119311
-0.0128888
-0.013831
-0.0147579
-0.0156697
-0.0165665
-0.0174486
-0.0183162
-0.0191695
-0.0200086
-0.0208337
-0.0216451
-0.022443
-0.0232274
-0.0239987
-0.0247568
-0.0255022
-0.0262348
-0.026955
-0.0276628
-0.0283584
-0.0290419
-0.0297137
-0.0303737
-0.0310221
-0.0316592
-0.032285
-0.0328998
-0.0335035
-0.0340965
-0.0346788
-0.0352506
-0.035812
-0.0363632
-0.0369042
-0.0374352
-0.0379564
-0.0384677
-0.0389694
-0.0394616
-0.0399444
-0.0404178
-0.0408821
-0.0413372
-0.0417833
-0.0422205
-0.0426489
-0.0430686
-0.0434796
-0.0438821
-0.0442761
-0.0446617
-0.0450391
-0.0454083
-0.0457693
-0.0461224
-0.0464674
-0.0468047
-0.0471341
-0.0474559
-0.0477701
-0.0480767
-0.0483759
-0.0486678
-0.0489525
-0.04923
-0.0495003
-0.0497637
-0.0500201
-0.0502696
-0.0505123
-0.0507483
-0.0509777
-0.0512004
-0.0514166
-0.0516264
-0.0518297
-0.0520267
-0.0522174
-0.0524019
-0.0525802
-0.0527524
-0.0529186
-0.0530789
-0.0532332
-0.0533817
-0.0535245
-0.0536617
-0.0537932
-0.0539193
-0.05404
-0.0541555
-0.0542658
-0.054371
-0.0544713
-0.0545667
-0.0546573
-0.0547434
-0.0548248
-0.0549018
-0.0549744
-0.0550428
-0.055107
-0.055167
-0.055223
-0.0552751
-0.0553233
-0.0553676
-0.0554083
-0.0554454
-0.0554789
-0.055509
-0.0555357
-0.0555592
-0.0555795
-0.0555968
-0.0556112
-0.0556227
-0.0556316
-0.0556378
-0.0556415
-0.0556428
-0.0556419
-0.0556389
-0.0556339
-0.0556271
-0.0556186
-0.0556084
-0.0555968
-0.0555839
-0.0555697
-0.0555544
-0.0555382
-0.055521
-0.0555031
-0.0554844
-0.0554651
-0.0554453
-0.055425
-0.0554043
-0.0553833
-0.055362
-0.0553404
-0.0553186
-0.0552963
-0.0552737
-0.0552505
-0.0552267
-0.0552022
-0.0551769
-0.0551508
-0.0551236
-0.0550952
-0.055066
-0.0550368
-0.0550068
-0.0549725
-0.0549331
-0.0549012
-0.0548972
-0.0549014
-0.0548128
-0.0545541
0.398547
0.395454
0.39235
0.389235
0.386109
0.382971
0.379822
0.376663
0.373493
0.370313
0.367123
0.363923
0.360714
0.357496
0.354268
0.351032
0.347788
0.344536
0.341276
0.338008
0.334733
0.331451
0.328163
0.324868
0.321568
0.318262
0.31495
0.311634
0.308313
0.304987
0.301658
0.298325
0.294989
0.29165
0.288309
0.284965
0.28162
0.278274
0.274926
0.271578
0.26823
0.264882
0.261535
0.258188
0.254843
0.2515
0.248159
0.244821
0.241486
0.238154
0.234827
0.231503
0.228184
0.224871
0.221563
0.218261
0.214966
0.211678
0.208397
0.205123
0.201858
0.198602
0.195354
0.192117
0.188889
0.185671
0.182464
0.179268
0.176084
0.172912
0.169753
0.166606
0.163473
0.160353
0.157247
0.154156
0.15108
0.148019
0.144974
0.141944
0.138931
0.135935
0.132956
0.129995
0.127051
0.124126
0.121219
0.118331
0.115462
0.112613
0.109783
0.106974
0.104185
0.101417
0.0986697
0.0959436
0.0932391
0.0905564
0.0878956
0.0852571
0.082641
0.0800476
0.0774771
0.0749296
0.0724055
0.0699047
0.0674276
0.0649743
0.0625448
0.0601395
0.0577583
0.0554014
0.0530689
0.050761
0.0484776
0.0462189
0.043985
0.0417758
0.0395915
0.0374321
0.0352976
0.033188
0.0311033
0.0290436
0.0270088
0.0249988
0.0230137
0.0210534
0.0191179
0.0172071
0.015321
0.0134594
0.0116222
0.00980952
0.00802109
0.00625687
0.00451674
0.00280059
0.0011083
-0.000560246
-0.00220519
-0.00382665
-0.00542476
-0.00699967
-0.00855151
-0.0100804
-0.0115866
-0.0130701
-0.0145312
-0.0159699
-0.0173864
-0.018781
-0.0201537
-0.0215047
-0.0228342
-0.0241423
-0.0254292
-0.026695
-0.02794
-0.0291644
-0.0303681
-0.0315516
-0.0327148
-0.0338581
-0.0349815
-0.0360853
-0.0371697
-0.0382347
-0.0392807
-0.0403077
-0.041316
-0.0423057
-0.0432771
-0.0442302
-0.0451653
-0.0460825
-0.046982
-0.0478641
-0.0487288
-0.0495763
-0.0504068
-0.0512205
-0.0520175
-0.0527981
-0.0535623
-0.0543104
-0.0550425
-0.0557588
-0.0564594
-0.0571446
-0.0578145
-0.0584694
-0.0591092
-0.0597344
-0.0603449
-0.0609411
-0.061523
-0.0620909
-0.0626448
-0.0631851
-0.0637119
-0.0642253
-0.0647255
-0.0652128
-0.0656872
-0.0661489
-0.0665981
-0.067035
-0.0674598
-0.0678726
-0.0682735
-0.0686628
-0.0690405
-0.069407
-0.0697622
-0.0701064
-0.0704398
-0.0707624
-0.0710745
-0.0713762
-0.0716676
-0.071949
-0.0722205
-0.0724823
-0.0727345
-0.0729773
-0.073211
-0.0734356
-0.0736514
-0.0738586
-0.0740573
-0.0742477
-0.07443
-0.0746044
-0.0747711
-0.0749301
-0.0750817
-0.0752261
-0.0753634
-0.0754938
-0.0756174
-0.0757344
-0.075845
-0.0759494
-0.0760476
-0.0761399
-0.0762264
-0.0763073
-0.0763827
-0.0764528
-0.0765177
-0.0765777
-0.0766328
-0.0766833
-0.0767292
-0.0767709
-0.0768084
-0.0768419
-0.0768715
-0.0768976
-0.0769203
-0.0769397
-0.076956
-0.0769694
-0.0769801
-0.0769882
-0.0769939
-0.0769973