/*--------------------------------*- C++ -*----------------------------------*\
| =========                 |                                                 |
| \\      /  F ield         | OpenFOAM: The Open Source CFD Toolbox           |
|  \\    /   O peration     | Version:  2.4.0                                 |
|   \\  /    A nd           | Web:      www.OpenFOAM.org                      |
|    \\/     M anipulation  |                                                 |
\*---------------------------------------------------------------------------*/
FoamFile
{
    version     2.0;
    format      ascii;
    class       volScalarField;
    location    "0.005";
    object      p;
}
// * * * * * * * * * * * * * * * * * * * * * * * * * * * * * * * * * * * * * //

dimensions      [1 -1 -2 0 0 0 0];

internalField   nonuniform List<scalar> 
125
(
-0.0477605
-0.0479881
-0.0482166
-0.0484459
-0.048676
-0.048907
-0.0491389
-0.0493716
-0.0496052
-0.0498396
-0.0500749
-0.0503111
-0.0505481
-0.050786
-0.0510248
-0.0512644
-0.051505
-0.0517464
-0.0519887
-0.0522319
-0.052476
-0.052721
-0.0529669
-0.0532137
-0.0534614
-0.0537101
-0.0539596
-0.0542101
-0.0544615
-0.0547138
-0.054967
-0.0552212
-0.0554763
-0.0557324
-0.0559894
-0.0562473
-0.0565062
-0.0567661
-0.0570269
-0.0572887
-0.0575514
-0.0578151
-0.0580798
-0.0583454
-0.058612
-0.0588796
-0.0591482
-0.0594178
-0.0596884
-0.0599599
-0.0602325
-0.0605061
-0.0607807
-0.0610563
-0.0613329
-0.0616105
-0.0618891
-0.0621688
-0.0624495
-0.0627313
-0.063014
-0.0632979
-0.0635827
-0.0638686
-0.0641556
-0.0644436
-0.0647327
-0.0650229
-0.0653141
-0.0656064
-0.0658997
-0.0661942
-0.0664897
-0.0667863
-0.067084
-0.0673828
-0.0676827
-0.0679838
-0.0682859
-0.0685891
-0.0688935
-0.0691989
-0.0695055
-0.0698133
-0.0701221
-0.0704321
-0.0707433
-0.0710555
-0.071369
-0.0716836
-0.0719993
-0.0723162
-0.0726343
-0.0729536
-0.073274
-0.0735956
-0.0739184
-0.0742423
-0.0745675
-0.0748939
-0.0752215
-0.0755502
-0.0758802
-0.0762114
-0.0765438
-0.0768775
-0.0772124
-0.0775485
-0.0778858
-0.0782244
-0.0785642
-0.0789053
-0.0792477
-0.0795913
-0.0799361
-0.0802823
-0.0806297
-0.0809784
-0.0813284
-0.0816796
-0.0820322
-0.082386
-0.0827412
-0.0830977
-0.0834554
)
;

boundaryField
{
    BotWall
    {
        type            calculated;
        value           nonuniform 0();
    }
    FreeStream
    {
        type            calculated;
        value           nonuniform 0();
    }
    FrontNBack
    {
        type            empty;
    }
    LeftSide
    {
        type            symmetryPlane;
    }
    RightSide
    {
        type            symmetryPlane;
    }
    procBoundary5to2
    {
        type            processor;
        value           nonuniform List<scalar> 
50
(
-0.0673844
-0.0676843
-0.0679853
-0.0682874
-0.0685906
-0.0688949
-0.0692004
-0.0695069
-0.0698147
-0.0701235
-0.0704335
-0.0707446
-0.0710569
-0.0713703
-0.0716848
-0.0720006
-0.0723174
-0.0726355
-0.0729547
-0.0732751
-0.0735967
-0.0739195
-0.0742434
-0.0745686
-0.0748949
-0.0752225
-0.0755512
-0.0758812
-0.0762124
-0.0765448
-0.0768784
-0.0772132
-0.0775493
-0.0778866
-0.0782252
-0.078565
-0.0789061
-0.0792484
-0.0795919
-0.0799368
-0.0802829
-0.0806303
-0.0809789
-0.0813289
-0.0816801
-0.0820327
-0.0823865
-0.0827416
-0.0830981
-0.0834558
)
;
    }
    procBoundary5to3
    {
        type            processor;
        value           nonuniform List<scalar> 
75
(
-0.0477643
-0.0479919
-0.0482203
-0.0484496
-0.0486798
-0.0489108
-0.0491426
-0.0493753
-0.0496088
-0.0498432
-0.0500785
-0.0503146
-0.0505516
-0.0507895
-0.0510283
-0.0512679
-0.0515084
-0.0517498
-0.0519921
-0.0522353
-0.0524794
-0.0527244
-0.0529703
-0.053217
-0.0534647
-0.0537133
-0.0539629
-0.0542133
-0.0544647
-0.054717
-0.0549702
-0.0552243
-0.0554794
-0.0557354
-0.0559924
-0.0562503
-0.0565092
-0.056769
-0.0570298
-0.0572915
-0.0575542
-0.0578179
-0.0580825
-0.0583481
-0.0586147
-0.0588823
-0.0591509
-0.0594204
-0.059691
-0.0599625
-0.060235
-0.0605086
-0.0607831
-0.0610587
-0.0613352
-0.0616128
-0.0618914
-0.0621711
-0.0624518
-0.0627335
-0.0630162
-0.0633
-0.0635848
-0.0638707
-0.0641576
-0.0644456
-0.0647346
-0.0650247
-0.0653159
-0.0656082
-0.0659015
-0.0661959
-0.0664914
-0.066788
-0.0670856
)
;
    }
    procBoundary5to4
    {
        type            processor;
        value           uniform -0.0838145;
    }
    procBoundary5to6
    {
        type            processor;
        value           uniform -0.0475337;
    }
    procBoundary5to7
    {
        type            processor;
        value           nonuniform List<scalar> 
75
(
-0.060227
-0.0605006
-0.0607752
-0.0610508
-0.0613275
-0.0616051
-0.0618838
-0.0621635
-0.0624442
-0.062726
-0.0630088
-0.0632927
-0.0635776
-0.0638635
-0.0641505
-0.0644386
-0.0647277
-0.0650179
-0.0653091
-0.0656015
-0.0658948
-0.0661893
-0.0664849
-0.0667815
-0.0670793
-0.0673781
-0.0676781
-0.0679791
-0.0682812
-0.0685845
-0.0688889
-0.0691944
-0.069501
-0.0698088
-0.0701176
-0.0704277
-0.0707388
-0.0710511
-0.0713646
-0.0716792
-0.071995
-0.0723119
-0.07263
-0.0729493
-0.0732697
-0.0735914
-0.0739142
-0.0742382
-0.0745634
-0.0748898
-0.0752173
-0.0755461
-0.0758761
-0.0762074
-0.0765398
-0.0768735
-0.0772084
-0.0775445
-0.0778819
-0.0782205
-0.0785603
-0.0789014
-0.0792438
-0.0795874
-0.0799323
-0.0802784
-0.0806259
-0.0809746
-0.0813246
-0.0816758
-0.0820284
-0.0823823
-0.0827374
-0.0830939
-0.0834517
)
;
    }
    procBoundary5to8
    {
        type            processor;
        value           nonuniform List<scalar> 
50
(
-0.047753
-0.0479806
-0.0482092
-0.0484385
-0.0486687
-0.0488998
-0.0491317
-0.0493644
-0.0495981
-0.0498325
-0.0500679
-0.0503041
-0.0505411
-0.0507791
-0.0510179
-0.0512576
-0.0514982
-0.0517397
-0.051982
-0.0522253
-0.0524694
-0.0527144
-0.0529604
-0.0532072
-0.053455
-0.0537037
-0.0539533
-0.0542038
-0.0544552
-0.0547076
-0.0549608
-0.0552151
-0.0554702
-0.0557263
-0.0559833
-0.0562413
-0.0565003
-0.0567601
-0.057021
-0.0572828
-0.0575455
-0.0578093
-0.058074
-0.0583397
-0.0586063
-0.058874
-0.0591426
-0.0594122
-0.0596828
-0.0599544
)
;
    }
}


// ************************************************************************* //
