/*--------------------------------*- C++ -*----------------------------------*\
| =========                 |                                                 |
| \\      /  F ield         | OpenFOAM: The Open Source CFD Toolbox           |
|  \\    /   O peration     | Version:  2.4.0                                 |
|   \\  /    A nd           | Web:      www.OpenFOAM.org                      |
|    \\/     M anipulation  |                                                 |
\*---------------------------------------------------------------------------*/
FoamFile
{
    version     2.0;
    format      ascii;
    class       volScalarField;
    location    "0.005";
    object      p_rgh;
}
// * * * * * * * * * * * * * * * * * * * * * * * * * * * * * * * * * * * * * //

dimensions      [1 -1 -2 0 0 0 0];

internalField   nonuniform List<scalar> 
125
(
-0.0149093
-0.0148522
-0.0147949
-0.0147375
-0.0146798
-0.0146219
-0.0145638
-0.0145054
-0.0144469
-0.0143881
-0.0143292
-0.01427
-0.0142106
-0.0141509
-0.0140911
-0.014031
-0.0139708
-0.0139103
-0.0138495
-0.0137886
-0.0137274
-0.013666
-0.0136044
-0.0135426
-0.0134805
-0.0134182
-0.0133557
-0.0132929
-0.0132299
-0.0131667
-0.0131032
-0.0130396
-0.0129756
-0.0129115
-0.0128471
-0.0127825
-0.0127176
-0.0126525
-0.0125872
-0.0125216
-0.0124558
-0.0123897
-0.0123234
-0.0122568
-0.01219
-0.012123
-0.0120557
-0.0119882
-0.0119204
-0.0118524
-0.0117841
-0.0117156
-0.0116468
-0.0115778
-0.0115085
-0.0114389
-0.0113691
-0.0112991
-0.0112288
-0.0111582
-0.0110874
-0.0110163
-0.0109449
-0.0108733
-0.0108014
-0.0107293
-0.0106569
-0.0105842
-0.0105113
-0.0104381
-0.0103646
-0.0102909
-0.0102169
-0.0101426
-0.010068
-0.00999318
-0.00991807
-0.00984269
-0.00976703
-0.00969109
-0.00961487
-0.00953837
-0.00946159
-0.00938453
-0.00930719
-0.00922956
-0.00915165
-0.00907345
-0.00899496
-0.00891619
-0.00883712
-0.00875777
-0.00867812
-0.00859818
-0.00851795
-0.00843742
-0.0083566
-0.00827548
-0.00819406
-0.00811234
-0.00803032
-0.007948
-0.00786538
-0.00778245
-0.00769922
-0.00761569
-0.00753184
-0.00744769
-0.00736323
-0.00727846
-0.00719338
-0.00710798
-0.00702228
-0.00693625
-0.00684991
-0.00676325
-0.00667628
-0.00658898
-0.00650137
-0.00641343
-0.00632517
-0.00623658
-0.00614767
-0.00605842
-0.00596885
)
;

boundaryField
{
    BotWall
    {
        type            fixedFluxPressure;
        gradient        nonuniform 0();
        value           nonuniform 0();
    }
    FreeStream
    {
        type            totalPressure;
        rho             rho;
        psi             none;
        gamma           1;
        p0              nonuniform 0();
        value           nonuniform 0();
    }
    FrontNBack
    {
        type            empty;
    }
    LeftSide
    {
        type            symmetryPlane;
    }
    RightSide
    {
        type            symmetryPlane;
    }
    procBoundary5to2
    {
        type            processor;
        value           nonuniform List<scalar> 
50
(
-0.00999475
-0.00991961
-0.0098442
-0.00976851
-0.00969255
-0.00961632
-0.0095398
-0.009463
-0.00938592
-0.00930856
-0.00923091
-0.00915298
-0.00907476
-0.00899625
-0.00891745
-0.00883837
-0.00875899
-0.00867932
-0.00859936
-0.0085191
-0.00843855
-0.00835771
-0.00827656
-0.00819512
-0.00811338
-0.00803133
-0.00794899
-0.00786634
-0.00778339
-0.00770014
-0.00761657
-0.0075327
-0.00744853
-0.00736404
-0.00727924
-0.00719413
-0.00710871
-0.00702297
-0.00693692
-0.00685056
-0.00676387
-0.00667687
-0.00658954
-0.0065019
-0.00641393
-0.00632564
-0.00623702
-0.00614808
-0.00605882
-0.00596922
)
;
    }
    procBoundary5to3
    {
        type            processor;
        value           nonuniform List<scalar> 
75
(
-0.014913
-0.014856
-0.0147987
-0.0147412
-0.0146835
-0.0146256
-0.0145674
-0.0145091
-0.0144505
-0.0143918
-0.0143328
-0.0142736
-0.0142141
-0.0141545
-0.0140946
-0.0140345
-0.0139742
-0.0139137
-0.013853
-0.013792
-0.0137308
-0.0136694
-0.0136077
-0.0135459
-0.0134838
-0.0134214
-0.0133589
-0.0132961
-0.0132331
-0.0131698
-0.0131064
-0.0130426
-0.0129787
-0.0129145
-0.0128501
-0.0127854
-0.0127206
-0.0126554
-0.0125901
-0.0125244
-0.0124586
-0.0123925
-0.0123262
-0.0122596
-0.0121928
-0.0121257
-0.0120584
-0.0119908
-0.011923
-0.0118549
-0.0117866
-0.011718
-0.0116492
-0.0115802
-0.0115108
-0.0114413
-0.0113714
-0.0113013
-0.011231
-0.0111604
-0.0110895
-0.0110184
-0.010947
-0.0108754
-0.0108034
-0.0107313
-0.0106588
-0.0105861
-0.0105131
-0.0104399
-0.0103664
-0.0102926
-0.0102185
-0.0101442
-0.0100696
)
;
    }
    procBoundary5to4
    {
        type            processor;
        value           uniform -0.00587895;
    }
    procBoundary5to6
    {
        type            processor;
        value           uniform -0.0149661;
    }
    procBoundary5to7
    {
        type            processor;
        value           nonuniform List<scalar> 
75
(
-0.0117786
-0.0117101
-0.0116413
-0.0115723
-0.011503
-0.0114335
-0.0113638
-0.0112938
-0.0112235
-0.011153
-0.0110822
-0.0110111
-0.0109398
-0.0108682
-0.0107964
-0.0107243
-0.0106519
-0.0105793
-0.0105064
-0.0104332
-0.0103597
-0.010286
-0.010212
-0.0101378
-0.0100633
-0.00998845
-0.00991337
-0.00983802
-0.00976239
-0.00968647
-0.00961028
-0.00953381
-0.00945706
-0.00938003
-0.00930271
-0.00922511
-0.00914722
-0.00906905
-0.00899058
-0.00891183
-0.00883279
-0.00875346
-0.00867384
-0.00859392
-0.00851371
-0.0084332
-0.0083524
-0.0082713
-0.00818991
-0.00810821
-0.00802621
-0.00794391
-0.00786131
-0.0077784
-0.00769519
-0.00761167
-0.00752785
-0.00744371
-0.00735927
-0.00727452
-0.00718945
-0.00710407
-0.00701838
-0.00693237
-0.00684604
-0.0067594
-0.00667244
-0.00658516
-0.00649755
-0.00640963
-0.00632138
-0.00623281
-0.00614391
-0.00605468
-0.00596512
)
;
    }
    procBoundary5to8
    {
        type            processor;
        value           nonuniform List<scalar> 
50
(
-0.0149017
-0.0148447
-0.0147875
-0.0147301
-0.0146724
-0.0146146
-0.0145565
-0.0144983
-0.0144398
-0.014381
-0.0143221
-0.014263
-0.0142036
-0.014144
-0.0140842
-0.0140242
-0.013964
-0.0139035
-0.0138429
-0.013782
-0.0137208
-0.0136595
-0.0135979
-0.0135361
-0.0134741
-0.0134118
-0.0133493
-0.0132866
-0.0132236
-0.0131604
-0.013097
-0.0130334
-0.0129695
-0.0129054
-0.012841
-0.0127764
-0.0127116
-0.0126465
-0.0125812
-0.0125157
-0.0124499
-0.0123839
-0.0123176
-0.0122511
-0.0121843
-0.0121173
-0.0120501
-0.0119826
-0.0119148
-0.0118468
)
;
    }
}


// ************************************************************************* //
