/*--------------------------------*- C++ -*----------------------------------*\
| =========                 |                                                 |
| \\      /  F ield         | OpenFOAM: The Open Source CFD Toolbox           |
|  \\    /   O peration     | Version:  2.4.0                                 |
|   \\  /    A nd           | Web:      www.OpenFOAM.org                      |
|    \\/     M anipulation  |                                                 |
\*---------------------------------------------------------------------------*/
FoamFile
{
    version     2.0;
    format      ascii;
    class       volScalarField;
    location    "1.3";
    object      H;
}
// * * * * * * * * * * * * * * * * * * * * * * * * * * * * * * * * * * * * * //

dimensions      [0 2 -2 0 0 0 0];

internalField   nonuniform List<scalar> 
8000
(
-11971.5
-11454.8
-10939.4
-10426.1
-9915.66
-9409.06
-8907.09
-8410.55
-7920.21
-7436.78
-6960.89
-6493.12
-6033.94
-5583.76
-5142.85
-4711.4
-4289.49
-3877.07
-3473.98
-3079.91
-2694.38
-2316.7
-1945.95
-1580.79
-1219.2
-857.075
-484.205
-72.936
-3.02103
-2.63035
-2.88444
-3.01301
-3.05522
-3.03999
-2.98761
-2.9122
-2.82347
-2.72799
-2.63012
-2.53265
-2.4373
-2.34503
-2.25631
-2.17129
-2.08991
-2.012
-1.93734
-1.86569
-1.79681
-1.7305
-11971
-11453.4
-10936.9
-10422.4
-9910.73
-9402.7
-8899.17
-8400.94
-7908.78
-7423.4
-6945.44
-6475.46
-6013.95
-5561.27
-5117.69
-4683.34
-4258.22
-3842.19
-3434.89
-3035.78
-2644.03
-2258.47
-1877.63
-1499.85
-1123.75
-749.016
-377.42
-3.7195
-3.34702
-2.72677
-2.68961
-2.64857
-2.60322
-2.5541
-2.502
-2.44778
-2.39221
-2.33596
-2.2795
-2.2232
-2.16726
-2.11179
-2.05682
-2.00233
-1.94827
-1.8946
-1.84127
-1.78826
-1.73558
-1.68324
-11970.5
-11451.8
-10934.3
-10418.6
-9905.75
-9396.45
-8891.57
-8391.9
-7898.19
-7411.14
-6931.39
-6459.47
-5995.85
-5540.85
-5094.7
-4657.49
-4229.18
-3809.58
-3398.38
-2995.16
-2599.42
-2210.71
-1828.69
-1453.32
-1085.01
-724.649
-373.576
-4.30192
-3.40617
-3.08232
-2.99594
-2.91217
-2.83077
-2.75161
-2.67456
-2.59953
-2.52642
-2.45514
-2.38559
-2.31769
-2.25132
-2.18641
-2.12285
-2.06057
-1.99949
-1.93956
-1.88073
-1.82296
-1.76624
-1.71054
-11970.1
-11450.6
-10932.3
-10416
-9902.45
-9392.51
-8886.96
-8386.58
-7892.1
-7404.2
-6923.46
-6450.42
-5985.49
-5528.99
-5081.14
-4642.06
-4211.76
-3790.16
-3377.14
-2972.51
-2576.14
-2187.93
-1807.9
-1436.22
-1073.26
-719.57
-375.757
-5.28952
-3.94012
-3.73528
-3.59547
-3.46143
-3.33311
-3.21033
-3.09291
-2.98058
-2.8731
-2.77019
-2.67158
-2.57701
-2.48622
-2.39898
-2.31504
-2.23422
-2.15633
-2.08118
-2.00863
-1.93854
-1.87078
-1.80525
-11969.8
-11449.7
-10930.9
-10414
-9900
-9389.57
-8883.53
-8382.62
-7887.55
-7398.95
-6917.42
-6443.43
-5977.42
-5519.71
-5070.54
-4630.05
-4198.31
-3775.34
-3361.06
-2955.39
-2558.21
-2169.41
-1788.89
-1416.65
-1052.84
-697.919
-352.673
-6.65023
-4.8521
-4.59563
-4.36782
-4.15498
-3.95639
-3.77117
-3.5984
-3.43709
-3.28628
-3.145
-3.01232
-2.88741
-2.76949
-2.65787
-2.55197
-2.45127
-2.35531
-2.26373
-2.17621
-2.09245
-2.01222
-1.9353
-11969.5
-11448.8
-10929.3
-10411.8
-9896.97
-9385.74
-8878.82
-8376.95
-7880.82
-7391.05
-6908.22
-6432.84
-5965.3
-5505.94
-5055
-4612.64
-4178.88
-3753.7
-3336.92
-2928.29
-2527.36
-2133.52
-1745.9
-1363.44
-985.099
-609.593
-232.749
-7.66283
-5.51285
-5.13921
-4.80368
-4.50257
-4.2337
-3.99424
-3.78098
-3.5906
-3.41979
-3.26544
-3.12474
-2.99524
-2.87489
-2.76201
-2.6553
-2.55377
-2.4567
-2.36355
-2.27397
-2.18771
-2.10459
-2.02448
-11969
-11447.3
-10926.7
-10408
-9891.84
-9379.12
-8870.57
-8366.93
-7868.88
-7377.08
-6892.08
-6414.39
-5944.39
-5482.41
-5028.63
-4583.13
-4145.83
-3716.51
-3294.73
-2879.76
-2470.49
-2065.15
-1661.07
-1254.8
-843.052
-425.148
-4.04329
-3.74653
-2.9875
-2.94546
-2.89634
-2.84555
-2.79687
-2.75235
-2.71251
-2.67674
-2.64366
-2.61156
-2.57869
-2.54354
-2.50498
-2.46232
-2.4153
-2.36402
-2.30888
-2.25046
-2.18942
-2.12649
-2.06234
-1.99761
-11968.4
-11445.4
-10923.5
-10403.3
-9885.65
-9371.28
-8860.96
-8355.42
-7855.35
-7361.37
-6874.03
-6393.82
-5921.09
-5456.09
-4998.97
-4549.69
-4108.1
-3673.86
-3246.48
-2825.32
-2409.71
-1999.04
-1593.02
-1191.88
-796.688
-409.4
-4.39041
-3.5454
-3.18564
-3.12433
-3.0642
-3.00526
-2.94751
-2.89081
-2.83494
-2.77959
-2.72443
-2.66915
-2.61346
-2.55714
-2.50005
-2.44215
-2.38346
-2.32408
-2.26414
-2.20381
-2.1433
-2.08278
-2.02246
-1.96249
-11967.8
-11443.8
-10920.9
-10399.7
-9881.04
-9365.66
-8854.3
-8347.64
-7846.36
-7351.06
-6862.25
-6380.37
-5905.77
-5438.68
-4979.23
-4527.45
-4083.27
-3646.56
-3217.14
-2794.85
-2379.6
-1971.42
-1570.54
-1177.41
-792.726
-417.329
-5.30064
-3.97154
-3.78896
-3.67814
-3.57121
-3.46796
-3.36814
-3.27153
-3.17788
-3.08697
-2.99861
-2.9126
-2.82878
-2.74699
-2.66713
-2.58906
-2.51272
-2.43803
-2.36494
-2.29339
-2.22336
-2.15482
-2.08774
-2.02211
-11967.4
-11442.6
-10918.9
-10397
-9877.68
-9361.64
-8849.6
-8342.25
-7840.21
-7344.06
-6854.3
-6371.36
-5895.59
-5427.25
-4966.54
-4513.55
-4068.35
-3630.97
-3201.39
-2779.64
-2365.74
-1959.8
-1561.98
-1172.52
-791.751
-419.963
-6.56544
-4.8329
-4.6467
-4.47838
-4.31573
-4.15895
-4.00809
-3.86308
-3.72379
-3.59005
-3.46162
-3.33829
-3.21979
-3.1059
-2.99637
-2.89096
-2.78947
-2.6917
-2.59745
-2.50655
-2.41884
-2.33417
-2.25239
-2.17337
-11967.1
-11441.7
-10917.3
-10394.8
-9874.89
-9358.25
-8845.6
-8337.59
-7834.85
-7337.93
-6847.33
-6363.48
-5886.74
-5417.39
-4955.64
-4501.66
-4055.52
-3617.26
-3186.87
-2764.31
-2349.49
-1942.35
-1542.82
-1151.04
-767.543
-393.45
-8.50063
-6.19166
-5.88092
-5.59119
-5.3196
-5.06551
-4.82802
-4.60609
-4.39858
-4.20432
-4.02212
-3.85088
-3.68955
-3.53719
-3.39296
-3.25612
-3.12605
-3.00219
-2.88406
-2.77127
-2.66346
-2.56031
-2.46154
-2.36691
-11966.8
-11440.7
-10915.7
-10392.4
-9871.74
-9354.27
-8840.72
-8331.75
-7827.95
-7329.9
-6838.07
-6352.89
-5874.72
-5403.83
-4940.41
-4484.53
-4036.21
-3595.34
-3161.66
-2734.8
-2314.15
-1898.89
-1488.09
-1080.89
-676.477
-271.559
-10.5475
-7.54187
-6.97001
-6.46564
-6.02176
-5.63179
-5.2891
-4.98732
-4.72042
-4.48285
-4.26966
-4.0765
-3.89971
-3.73625
-3.58371
-3.44019
-3.30424
-3.17481
-3.05112
-2.93262
-2.81891
-2.70969
-2.60475
-2.50391
-11966.3
-11439.1
-10912.9
-10388.4
-9866.28
-9347.23
-8831.95
-8321.1
-7815.3
-7315.08
-6820.93
-6333.26
-5852.38
-5378.49
-4911.67
-4451.87
-3998.85
-3552.17
-3111.1
-2674.42
-2240.22
-1805.61
-1366.78
-920.224
-465.285
-4.41256
-4.03342
-3.34848
-3.3618
-3.35965
-3.34909
-3.33494
-3.31991
-3.30493
-3.2896
-3.27266
-3.25245
-3.22736
-3.19603
-3.15759
-3.11165
-3.05833
-2.99815
-2.93192
-2.86063
-2.78536
-2.70718
-2.62708
-2.54596
-2.46458
-11965.6
-11437.1
-10909.5
-10383.4
-9859.66
-9338.85
-8821.67
-8308.76
-7800.72
-7298.06
-6801.25
-6310.63
-5826.45
-5348.82
-4877.73
-4412.99
-3954.26
-3501.05
-3052.71
-2608.59
-2168.1
-1730.97
-1297.49
-868.82
-447.009
-4.71434
-3.72697
-3.46379
-3.42893
-3.39403
-3.3589
-3.32332
-3.28697
-3.24946
-3.2104
-3.16935
-3.12597
-3.07998
-3.03119
-2.97957
-2.92516
-2.86812
-2.8087
-2.74719
-2.68394
-2.61929
-2.55358
-2.48715
-2.4203
-2.35331
-11965
-11435.4
-10906.7
-10379.5
-9854.65
-9332.69
-8814.29
-8300.05
-7790.53
-7286.22
-6787.54
-6294.8
-5808.23
-5327.95
-4854.02
-4386.36
-3924.88
-3469.44
-3019.93
-2576.3
-2138.67
-1707.31
-1282.75
-865.684
-456.95
-5.56821
-4.15272
-4.01708
-3.92543
-3.83667
-3.7505
-3.66664
-3.58478
-3.50467
-3.42605
-3.34871
-3.27246
-3.19715
-3.12264
-3.04885
-2.9757
-2.90314
-2.83117
-2.75977
-2.68896
-2.61877
-2.54921
-2.48034
-2.4122
-2.34481
-11964.6
-11434
-10904.4
-10376.4
-9850.65
-9327.8
-8808.47
-8293.23
-7782.62
-7277.12
-6777.12
-6282.97
-5794.94
-5313.22
-4837.96
-4369.26
-3907.18
-3451.8
-3003.19
-2561.48
-2126.85
-1699.54
-1279.86
-868.16
-464.824
-6.73987
-4.96917
-4.81494
-4.67071
-4.53054
-4.39448
-4.26248
-4.13448
-4.01037
-3.89004
-3.77338
-3.66025
-3.55053
-3.44407
-3.34073
-3.2404
-3.14293
-3.04821
-2.95611
-2.86653
-2.77936
-2.69449
-2.61185
-2.53134
-2.45289
-11964.2
-11432.8
-10902.4
-10373.6
-9847.11
-9323.46
-8803.29
-8287.17
-7775.62
-7269.12
-6768.1
-6272.89
-5783.82
-5301.13
-4825.01
-4355.62
-3893.08
-3437.49
-2988.94
-2547.52
-2113.36
-1686.57
-1267.28
-855.666
-452.323
-8.52924
-6.25307
-6.00737
-5.77308
-5.54905
-5.33496
-5.13035
-4.93478
-4.74782
-4.56907
-4.39816
-4.23471
-4.07837
-3.92882
-3.78571
-3.64871
-3.5175
-3.39178
-3.27124
-3.15558
-3.04453
-2.93782
-2.83521
-2.73646
-2.64136
-11963.8
-11431.8
-10900.7
-10371.2
-9843.93
-9319.49
-8798.47
-8281.45
-7768.93
-7261.4
-6759.27
-6262.9
-5772.6
-5288.6
-4811.09
-4340.16
-3875.85
-3418.15
-2966.98
-2522.22
-2083.68
-1651.08
-1223.98
-802.361
-389.261
-11.365
-8.11532
-7.55785
-7.09552
-6.70121
-6.35539
-6.04464
-5.76022
-5.49653
-5.25006
-5.01855
-4.80047
-4.59472
-4.40041
-4.2168
-4.04319
-3.87892
-3.72338
-3.57594
-3.43603
-3.3031
-3.17663
-3.05614
-2.94118
-2.83134
-11963.3
-11430.3
-10898.1
-10367.3
-9838.58
-9312.56
-8789.79
-8270.86
-7756.27
-7246.5
-6741.95
-6242.95
-5749.76
-5262.54
-4781.33
-4306.06
-3836.47
-3372.13
-2912.35
-2455.98
-2001.01
-1543.04
-1071.96
-566.795
-5.24865
-0.448288
-1.40999
-2.42689
-3.25422
-3.87899
-4.31226
-4.58105
-4.71884
-4.75843
-4.72801
-4.64995
-4.54103
-4.41339
-4.27555
-4.13331
-3.99055
-3.84974
-3.71241
-3.57941
-3.45114
-3.32771
-3.20908
-3.09506
-2.98544
-2.87996
-11962.5
-11427.8
-10893.8
-10361
-9830.17
-9301.74
-8776.34
-8254.51
-7736.76
-7223.52
-6715.16
-6211.93
-5714
-5221.39
-4733.95
-4251.35
-3773.02
-3298.15
-2825.73
-2354.68
-1884.17
-1414.07
-945.541
-481.512
-4.90245
-4.01368
-3.68813
-3.72714
-3.76418
-3.7932
-3.81067
-3.81511
-3.80653
-3.78581
-3.7543
-3.71348
-3.66482
-3.60967
-3.54922
-3.48449
-3.41633
-3.34546
-3.27248
-3.19788
-3.12206
-3.04538
-2.96814
-2.89059
-2.81296
-2.73545
-1.66657
-1.60486
-1.54523
-1.4876
-1.43186
-1.37794
-1.32579
-1.27535
-1.22658
-1.17943
-1.13386
-1.08984
-1.04731
-1.00625
-0.966614
-0.928357
-0.891442
-0.85583
-0.821481
-0.788357
-0.756419
-0.72563
-0.695955
-0.667358
-0.639805
-0.613263
-0.587699
-0.563081
-0.539381
-0.516567
-0.494612
-0.473487
-0.453166
-0.433623
-0.414831
-0.396766
-0.379405
-0.362722
-0.346697
-0.331307
-0.316529
-0.302344
-0.28873
-0.275668
-0.263139
-0.251124
-0.239605
-0.228564
-0.217983
-0.207847
-1.63129
-1.57981
-1.52886
-1.47853
-1.4289
-1.38008
-1.33213
-1.28513
-1.23914
-1.19423
-1.15042
-1.10776
-1.06626
-1.02594
-0.986809
-0.948857
-0.91208
-0.876467
-0.842003
-0.808669
-0.776444
-0.745306
-0.715232
-0.686196
-0.658173
-0.631138
-0.605066
-0.579929
-0.555703
-0.532361
-0.50988
-0.488232
-0.467394
-0.447341
-0.428049
-0.409495
-0.391655
-0.374506
-0.358027
-0.342195
-0.32699
-0.31239
-0.298375
-0.284925
-0.27202
-0.259643
-0.247774
-0.236395
-0.22549
-0.21504
-1.65588
-1.60226
-1.54969
-1.49819
-1.44777
-1.39844
-1.35024
-1.30316
-1.25722
-1.21243
-1.1688
-1.12632
-1.085
-1.04483
-1.0058
-0.967907
-0.931137
-0.895479
-0.860916
-0.827432
-0.795011
-0.763634
-0.733281
-0.703933
-0.675568
-0.648166
-0.621705
-0.596164
-0.571519
-0.547749
-0.524832
-0.502744
-0.481464
-0.460969
-0.441236
-0.422245
-0.403973
-0.386398
-0.369499
-0.353256
-0.337647
-0.322653
-0.308253
-0.294427
-0.281158
-0.268425
-0.256211
-0.244498
-0.233269
-0.222505
-1.74183
-1.68044
-1.62099
-1.56341
-1.50763
-1.45358
-1.4012
-1.35044
-1.30125
-1.25358
-1.20739
-1.16264
-1.11928
-1.07728
-1.0366
-0.997215
-0.959085
-0.92218
-0.88647
-0.851925
-0.818518
-0.786218
-0.755
-0.724835
-0.695697
-0.667561
-0.640399
-0.614187
-0.588899
-0.56451
-0.540996
-0.518333
-0.496496
-0.475463
-0.455209
-0.435713
-0.41695
-0.3989
-0.38154
-0.364849
-0.348806
-0.33339
-0.318582
-0.30436
-0.290707
-0.277603
-0.265029
-0.252967
-0.2414
-0.230311
-1.86149
-1.79063
-1.72256
-1.65712
-1.59419
-1.53364
-1.47536
-1.41923
-1.36516
-1.31305
-1.26281
-1.21438
-1.16766
-1.1226
-1.07913
-1.03719
-0.996716
-0.957662
-0.919977
-0.883613
-0.848527
-0.814676
-0.78202
-0.750521
-0.720141
-0.690846
-0.662602
-0.635376
-0.609136
-0.583852
-0.559493
-0.536033
-0.513441
-0.491692
-0.470758
-0.450614
-0.431235
-0.412597
-0.394675
-0.377447
-0.36089
-0.344982
-0.3297
-0.315026
-0.300937
-0.287415
-0.274439
-0.261991
-0.250053
-0.238607
-1.94728
-1.87289
-1.80124
-1.73223
-1.66579
-1.60181
-1.54022
-1.48091
-1.42379
-1.36878
-1.3158
-1.26475
-1.21556
-1.16815
-1.12246
-1.07842
-1.03596
-0.995025
-0.955561
-0.917515
-0.880836
-0.845477
-0.811394
-0.778543
-0.746882
-0.716374
-0.686978
-0.65866
-0.631384
-0.605116
-0.579823
-0.555474
-0.532037
-0.509483
-0.487783
-0.466909
-0.446834
-0.427531
-0.408975
-0.391141
-0.374004
-0.357542
-0.341731
-0.326549
-0.311975
-0.297987
-0.284566
-0.271691
-0.259343
-0.247503
-1.93282
-1.86844
-1.80483
-1.74227
-1.68096
-1.62107
-1.56269
-1.50588
-1.45068
-1.3971
-1.34513
-1.29477
-1.24598
-1.19874
-1.15302
-1.10879
-1.066
-1.02463
-0.984637
-0.945991
-0.908655
-0.872596
-0.83778
-0.804173
-0.771742
-0.740454
-0.710278
-0.681182
-0.653134
-0.626104
-0.600061
-0.574976
-0.55082
-0.527564
-0.50518
-0.483641
-0.46292
-0.442992
-0.423829
-0.405409
-0.387705
-0.370694
-0.354354
-0.338662
-0.323595
-0.309133
-0.295253
-0.281938
-0.269165
-0.256917
-1.90305
-1.84426
-1.78625
-1.72911
-1.67292
-1.61776
-1.56367
-1.51071
-1.45889
-1.40826
-1.35883
-1.31061
-1.26361
-1.21784
-1.1733
-1.12999
-1.0879
-1.04703
-1.00737
-0.9689
-0.931611
-0.895487
-0.860511
-0.826663
-0.793922
-0.762268
-0.731679
-0.702131
-0.673601
-0.646064
-0.619496
-0.593873
-0.56917
-0.545362
-0.522424
-0.500332
-0.479062
-0.458588
-0.438888
-0.419937
-0.401713
-0.384193
-0.367355
-0.351176
-0.335634
-0.32071
-0.306382
-0.292631
-0.279435
-0.266778
-1.9579
-1.89512
-1.83373
-1.77375
-1.71514
-1.65792
-1.60206
-1.54755
-1.49439
-1.44258
-1.39209
-1.34292
-1.29505
-1.24849
-1.2032
-1.15919
-1.11643
-1.07492
-1.03463
-0.995543
-0.957648
-0.920924
-0.88535
-0.850906
-0.81757
-0.785321
-0.754137
-0.723994
-0.694869
-0.666739
-0.639581
-0.61337
-0.588082
-0.563695
-0.540183
-0.517524
-0.495694
-0.474669
-0.454426
-0.434943
-0.416196
-0.398164
-0.380825
-0.364156
-0.348138
-0.332748
-0.317967
-0.303774
-0.29015
-0.277077
-2.097
-2.02316
-1.95175
-1.88266
-1.8158
-1.75109
-1.68845
-1.62781
-1.56909
-1.51223
-1.45716
-1.40384
-1.35221
-1.30221
-1.2538
-1.20694
-1.16157
-1.11767
-1.07518
-1.03407
-0.994307
-0.955852
-0.91867
-0.882728
-0.847993
-0.814432
-0.782015
-0.75071
-0.720488
-0.691319
-0.663174
-0.636024
-0.609842
-0.584601
-0.560272
-0.536831
-0.51425
-0.492505
-0.471571
-0.451422
-0.432035
-0.413386
-0.395452
-0.378211
-0.36164
-0.345718
-0.330423
-0.315735
-0.301633
-0.288098
-2.27618
-2.18915
-2.10562
-2.0254
-1.94833
-1.87424
-1.803
-1.73446
-1.66849
-1.60497
-1.54379
-1.48485
-1.42805
-1.3733
-1.32052
-1.26961
-1.22052
-1.17318
-1.12751
-1.08346
-1.04097
-0.99998
-0.960446
-0.922315
-0.88554
-0.850077
-0.815882
-0.782914
-0.751134
-0.720502
-0.690983
-0.662541
-0.635141
-0.608749
-0.583335
-0.558865
-0.535311
-0.512642
-0.49083
-0.469848
-0.449667
-0.430262
-0.411608
-0.393679
-0.376451
-0.359901
-0.344006
-0.328744
-0.314092
-0.300031
-2.407
-2.31388
-2.2244
-2.13843
-2.05583
-1.97644
-1.90013
-1.82677
-1.75623
-1.68837
-1.62308
-1.56024
-1.49975
-1.4415
-1.38539
-1.33135
-1.27928
-1.22911
-1.18077
-1.13418
-1.08928
-1.04601
-1.00431
-0.964129
-0.925406
-0.888094
-0.852145
-0.817512
-0.78415
-0.752017
-0.721071
-0.691273
-0.662584
-0.634967
-0.608386
-0.582807
-0.558196
-0.534521
-0.51175
-0.489852
-0.468799
-0.448562
-0.429113
-0.410426
-0.392473
-0.37523
-0.358673
-0.342777
-0.32752
-0.312878
-2.38356
-2.30343
-2.22455
-2.14722
-2.07166
-1.99798
-1.9263
-1.85664
-1.78902
-1.72345
-1.65989
-1.59832
-1.5387
-1.48099
-1.42514
-1.37111
-1.31885
-1.26832
-1.21947
-1.17226
-1.12665
-1.08258
-1.04002
-0.998935
-0.959273
-0.920997
-0.884068
-0.848446
-0.814095
-0.780975
-0.749051
-0.718286
-0.688646
-0.660094
-0.632599
-0.606126
-0.580643
-0.556118
-0.532522
-0.509823
-0.487993
-0.467003
-0.446825
-0.427432
-0.408797
-0.390896
-0.373704
-0.357195
-0.341346
-0.326135
-2.28642
-2.21985
-2.15378
-2.08836
-2.02374
-1.96001
-1.89729
-1.83564
-1.77512
-1.7158
-1.65772
-1.60091
-1.5454
-1.49121
-1.43836
-1.38686
-1.33672
-1.28794
-1.24051
-1.19444
-1.14971
-1.1063
-1.06422
-1.02343
-0.983919
-0.94567
-0.908659
-0.872861
-0.838253
-0.80481
-0.772504
-0.74131
-0.7112
-0.682148
-0.654125
-0.627105
-0.601061
-0.575964
-0.551789
-0.528508
-0.506095
-0.484524
-0.463769
-0.443805
-0.424608
-0.406152
-0.388415
-0.371372
-0.355001
-0.339279
-2.27824
-2.21251
-2.14769
-2.08379
-2.02087
-1.95896
-1.8981
-1.83831
-1.77963
-1.72209
-1.6657
-1.6105
-1.55649
-1.50369
-1.45212
-1.40178
-1.35268
-1.30482
-1.25821
-1.21283
-1.16869
-1.12578
-1.08408
-1.0436
-1.0043
-0.966193
-0.929244
-0.893441
-0.858766
-0.825199
-0.792719
-0.761304
-0.730934
-0.701585
-0.673235
-0.64586
-0.619437
-0.593942
-0.569353
-0.545645
-0.522794
-0.500778
-0.479572
-0.459154
-0.439501
-0.42059
-0.402399
-0.384906
-0.368089
-0.351927
-2.37642
-2.30188
-2.22921
-2.15835
-2.08925
-2.02187
-1.95618
-1.89213
-1.8297
-1.76884
-1.70954
-1.65177
-1.59551
-1.54072
-1.48739
-1.43549
-1.385
-1.33591
-1.28818
-1.24181
-1.19675
-1.153
-1.11054
-1.06933
-1.02936
-0.99061
-0.953049
-0.916657
-0.881412
-0.84729
-0.814266
-0.782319
-0.751424
-0.721556
-0.692693
-0.66481
-0.637884
-0.61189
-0.586806
-0.562607
-0.53927
-0.516773
-0.495091
-0.474202
-0.454084
-0.434714
-0.41607
-0.398132
-0.380876
-0.364283
-2.5497
-2.46129
-2.37598
-2.29359
-2.21399
-2.13705
-2.06264
-1.99065
-1.92099
-1.85355
-1.78826
-1.72504
-1.6638
-1.60449
-1.54704
-1.49138
-1.43747
-1.38524
-1.33466
-1.28566
-1.23821
-1.19226
-1.14777
-1.1047
-1.06302
-1.02268
-0.983643
-0.945883
-0.909363
-0.874051
-0.839913
-0.806919
-0.775039
-0.744242
-0.714499
-0.685781
-0.658062
-0.631312
-0.605505
-0.580616
-0.556617
-0.533483
-0.51119
-0.489712
-0.469026
-0.449109
-0.429936
-0.411486
-0.393736
-0.376664
-2.72626
-2.6256
-2.52906
-2.43637
-2.34729
-2.26161
-2.17912
-2.09967
-2.02309
-1.94924
-1.878
-1.80925
-1.74289
-1.67881
-1.61692
-1.55714
-1.4994
-1.44361
-1.3897
-1.33762
-1.2873
-1.23867
-1.19169
-1.1463
-1.10244
-1.06008
-1.01915
-0.97962
-0.941443
-0.904577
-0.868982
-0.834619
-0.801451
-0.769442
-0.738556
-0.70876
-0.68002
-0.652305
-0.625584
-0.599827
-0.575003
-0.551086
-0.528046
-0.505857
-0.484493
-0.463927
-0.444135
-0.425092
-0.406774
-0.389159
-2.77837
-2.68045
-2.58597
-2.49474
-2.40659
-2.32136
-2.23893
-2.15917
-2.08199
-2.00728
-1.93497
-1.86497
-1.79723
-1.73167
-1.66822
-1.60683
-1.54745
-1.49
-1.43444
-1.38071
-1.32876
-1.27854
-1.23
-1.18309
-1.13775
-1.09395
-1.05164
-1.01077
-0.971298
-0.933187
-0.896395
-0.860881
-0.826606
-0.793534
-0.761629
-0.730854
-0.701176
-0.672561
-0.644977
-0.618392
-0.592776
-0.568097
-0.544328
-0.521439
-0.499404
-0.478194
-0.457784
-0.438149
-0.419262
-0.401101
-2.65824
-2.58152
-2.50543
-2.4301
-2.35569
-2.28229
-2.21002
-2.13897
-2.06923
-2.00086
-1.93392
-1.86847
-1.80454
-1.74216
-1.68136
-1.62213
-1.5645
-1.50845
-1.45399
-1.40109
-1.34974
-1.29993
-1.25163
-1.20481
-1.15945
-1.11552
-1.07299
-1.03183
-0.992008
-0.953497
-0.916263
-0.880275
-0.845501
-0.81191
-0.779472
-0.748154
-0.717928
-0.688762
-0.660627
-0.633494
-0.607335
-0.58212
-0.557822
-0.534415
-0.51187
-0.490163
-0.469267
-0.449157
-0.429809
-0.411199
-0.200367
-0.195253
-0.19023
-0.185298
-0.180456
-0.175704
-0.171042
-0.166467
-0.16198
-0.15758
-0.153266
-0.149037
-0.144893
-0.140832
-0.136854
-0.132959
-0.129144
-0.12541
-0.121756
-0.11818
-0.114683
-0.111262
-0.107917
-0.104647
-0.101451
-0.098329
-0.0952791
-0.0923006
-0.0893926
-0.0865541
-0.0837842
-0.0810819
-0.0784463
-0.0758763
-0.073371
-0.0709294
-0.0685506
-0.0662335
-0.0639772
-0.0617806
-0.0596428
-0.0575628
-0.0555396
-0.0535722
-0.0516596
-0.0498009
-0.0479949
-0.0462408
-0.0445376
-0.0428842
-0.0412797
-0.0397232
-0.0382136
-0.03675
-0.0353314
-0.0339569
-0.0326255
-0.0313362
-0.0300883
-0.0288806
-0.0277123
-0.0265825
-0.0254903
-0.0244347
-0.023415
-0.0224301
-0.0214793
-0.0205616
-0.0196763
-0.0188224
-0.0179992
-0.0172059
-0.0164416
-0.0157055
-0.0149968
-0.0143149
-0.0136588
-0.0130279
-0.0124215
-0.0118387
-0.0112789
-0.0107415
-0.0102256
-0.00973064
-0.00925596
-0.00880091
-0.00836483
-0.00794712
-0.00754715
-0.00716434
-0.0067981
-0.00644785
-0.00611305
-0.00579315
-0.00548761
-0.00519591
-0.00491756
-0.00465205
-0.0043989
-0.00415766
-0.00392785
-0.00370904
-0.0035008
-0.00330271
-0.00311436
-0.00293536
-0.00276532
-0.00260388
-0.00245066
-0.00230533
-0.00216754
-0.00203696
-0.00191329
-0.00179621
-0.00168544
-0.00158067
-0.00148165
-0.0013881
-0.00129976
-0.0012164
-0.00113776
-0.00106363
-0.000993788
-0.000928014
-0.000866109
-0.000807877
-0.000753132
-0.000701694
-0.000653391
-0.000608057
-0.000565536
-0.000525676
-0.000488332
-0.000453367
-0.000420649
-0.000390051
-0.000361455
-0.000334746
-0.000309815
-0.000286557
-0.000264876
-0.000244676
-0.000225868
-0.000208369
-0.000192098
-0.000176978
-0.000162938
-0.000149909
-0.000137827
-0.000126631
-0.000116262
-0.000106667
-9.77942e-05
-8.95948e-05
-8.20232e-05
-7.50365e-05
-6.85941e-05
-6.26582e-05
-5.71929e-05
-5.21647e-05
-4.75422e-05
-4.32959e-05
-3.93982e-05
-3.58232e-05
-3.25468e-05
-2.95465e-05
-2.68012e-05
-2.42912e-05
-2.19983e-05
-1.99054e-05
-1.79966e-05
-1.62571e-05
-1.46734e-05
-1.32327e-05
-1.19231e-05
-1.07338e-05
-9.65475e-06
-8.67648e-06
-7.79041e-06
-6.98856e-06
-6.26359e-06
-5.60871e-06
-5.0177e-06
-4.48482e-06
-4.0048e-06
-3.57281e-06
-3.1844e-06
-2.83551e-06
-2.52243e-06
-2.24175e-06
-1.99037e-06
-1.76544e-06
-1.56439e-06
-1.38485e-06
-1.2247e-06
-1.08198e-06
-9.5492e-07
-8.41924e-07
-7.41538e-07
-6.52448e-07
-5.73466e-07
-5.0352e-07
-4.41641e-07
-3.86958e-07
-3.38687e-07
-2.96122e-07
-2.58629e-07
-2.2564e-07
-1.96647e-07
-1.71193e-07
-1.48873e-07
-1.2932e-07
-1.12213e-07
-9.72623e-08
-8.42103e-08
-7.28293e-08
-6.29168e-08
-5.42931e-08
-4.67993e-08
-4.0295e-08
-3.4656e-08
-2.97729e-08
-2.55493e-08
-2.19004e-08
-1.87518e-08
-1.60379e-08
-1.37014e-08
-1.16923e-08
-9.96673e-09
-8.48631e-09
-7.21765e-09
-6.1319e-09
-5.20362e-09
-4.41098e-09
-3.73492e-09
-3.15859e-09
-2.66855e-09
-2.25181e-09
-1.89767e-09
-1.59808e-09
-1.34393e-09
-1.12897e-09
-9.47045e-10
-7.93791e-10
-6.64349e-10
-5.55019e-10
-4.63328e-10
-3.85801e-10
-3.20546e-10
-2.66175e-10
-2.19833e-10
-1.81533e-10
-1.49505e-10
-1.21789e-10
-9.95649e-11
-8.12931e-11
-6.58446e-11
-5.23511e-11
-3.99404e-11
-3.05144e-11
-2.34004e-11
-1.79639e-11
-1.37787e-11
-1.05562e-11
-8.08479e-12
-6.19761e-12
-4.75994e-12
-3.66427e-12
-2.82707e-12
-2.18502e-12
-1.69082e-12
-1.30928e-12
-1.01411e-12
-7.85461e-13
-6.0823e-13
-4.70824e-13
-3.64302e-13
-2.81741e-13
-2.17774e-13
-1.68232e-13
-1.29879e-13
-1.00204e-13
-7.72535e-14
-5.95152e-14
-4.58138e-14
-3.52383e-14
-2.70822e-14
-2.07981e-14
-1.59621e-14
-1.2246e-14
-9.39576e-15
-7.21543e-15
-5.55372e-15
-4.29436e-15
-3.34831e-15
-2.6479e-15
-2.14228e-15
-1.79404e-15
-1.57667e-15
-1.47273e-15
-0.207328
-0.202054
-0.196874
-0.191787
-0.186793
-0.181892
-0.177081
-0.172362
-0.167732
-0.163192
-0.158739
-0.154375
-0.150097
-0.145906
-0.141799
-0.137777
-0.133839
-0.129983
-0.126209
-0.122516
-0.118902
-0.115368
-0.111913
-0.108534
-0.105232
-0.102005
-0.0988524
-0.0957735
-0.0927671
-0.0898323
-0.0869681
-0.0841734
-0.0814474
-0.0787889
-0.0761971
-0.0736709
-0.0712093
-0.0688114
-0.066476
-0.0642021
-0.0619889
-0.0598352
-0.05774
-0.0557023
-0.0537212
-0.0517955
-0.0499243
-0.0481066
-0.0463413
-0.0446275
-0.0429641
-0.0413502
-0.0397847
-0.0382667
-0.0367952
-0.0353692
-0.0339877
-0.0326497
-0.0313544
-0.0301007
-0.0288877
-0.0277144
-0.02658
-0.0254835
-0.0244241
-0.0234007
-0.0224125
-0.0214586
-0.0205381
-0.0196503
-0.0187942
-0.0179689
-0.0171737
-0.0164078
-0.0156703
-0.0149604
-0.0142774
-0.0136204
-0.0129888
-0.0123817
-0.0117985
-0.0112384
-0.0107007
-0.0101847
-0.00968976
-0.00921517
-0.0087603
-0.00832448
-0.00790711
-0.00750755
-0.00712521
-0.00675949
-0.00640983
-0.00607565
-0.00575641
-0.00545158
-0.00516062
-0.00488302
-0.0046183
-0.00436597
-0.00412555
-0.00389658
-0.00367863
-0.00347124
-0.00327402
-0.00308653
-0.0029084
-0.00273922
-0.00257863
-0.00242627
-0.00228178
-0.00214483
-0.00201508
-0.00189223
-0.00177595
-0.00166596
-0.00156197
-0.0014637
-0.00137089
-0.00128328
-0.00120062
-0.00112267
-0.00104921
-0.000980011
-0.000914868
-0.000853574
-0.000795934
-0.000741762
-0.000690878
-0.000643109
-0.000598291
-0.000556267
-0.000516885
-0.000480001
-0.000445477
-0.000413183
-0.000382992
-0.000354785
-0.000328449
-0.000303873
-0.000280956
-0.000259599
-0.000239709
-0.000221197
-0.000203979
-0.000187974
-0.000173108
-0.000159309
-0.000146509
-0.000134643
-0.000123652
-0.000113478
-0.000104066
-9.53661e-05
-8.733e-05
-7.99125e-05
-7.30708e-05
-6.6765e-05
-6.09575e-05
-5.56128e-05
-5.06978e-05
-4.61815e-05
-4.20347e-05
-3.82302e-05
-3.47423e-05
-3.15474e-05
-2.86232e-05
-2.59488e-05
-2.3505e-05
-2.12737e-05
-1.92381e-05
-1.73826e-05
-1.56927e-05
-1.41549e-05
-1.27567e-05
-1.14867e-05
-1.03339e-05
-9.2886e-06
-8.34155e-06
-7.48429e-06
-6.70901e-06
-6.00852e-06
-5.37619e-06
-4.80591e-06
-4.29207e-06
-3.82954e-06
-3.41358e-06
-3.03987e-06
-2.70444e-06
-2.40367e-06
-2.13423e-06
-1.89311e-06
-1.67755e-06
-1.48503e-06
-1.31326e-06
-1.16017e-06
-1.02387e-06
-9.02641e-07
-7.9493e-07
-6.99332e-07
-6.14577e-07
-5.39515e-07
-4.7311e-07
-4.14428e-07
-3.62628e-07
-3.16954e-07
-2.76726e-07
-2.41334e-07
-2.10234e-07
-1.82934e-07
-1.59e-07
-1.38039e-07
-1.19705e-07
-1.03686e-07
-8.97066e-08
-7.7522e-08
-6.69142e-08
-5.76902e-08
-4.96791e-08
-4.27299e-08
-3.67091e-08
-3.14992e-08
-2.69963e-08
-2.31094e-08
-1.97584e-08
-1.68729e-08
-1.43915e-08
-1.22601e-08
-1.04316e-08
-8.86511e-09
-7.52463e-09
-6.37904e-09
-5.40123e-09
-4.56768e-09
-3.85799e-09
-3.25454e-09
-2.74204e-09
-2.3073e-09
-1.93902e-09
-1.62755e-09
-1.36443e-09
-1.14243e-09
-9.55335e-10
-7.97796e-10
-6.65412e-10
-5.5411e-10
-4.60664e-10
-3.82274e-10
-3.16754e-10
-2.61885e-10
-2.1614e-10
-1.77874e-10
-1.46164e-10
-1.19696e-10
-9.77986e-11
-7.97369e-11
-6.48669e-11
-5.26467e-11
-4.26562e-11
-3.42928e-11
-2.74314e-11
-2.18209e-11
-1.72622e-11
-1.35932e-11
-1.06703e-11
-8.36186e-12
-6.54887e-12
-5.12868e-12
-4.01653e-12
-3.14493e-12
-2.46122e-12
-1.92463e-12
-1.50355e-12
-1.17329e-12
-9.1453e-13
-7.12013e-13
-5.53713e-13
-4.3013e-13
-3.33766e-13
-2.58716e-13
-2.0033e-13
-1.54958e-13
-1.19736e-13
-9.24231e-14
-7.12651e-14
-5.48931e-14
-4.22393e-14
-3.24717e-14
-2.49428e-14
-1.91495e-14
-1.47011e-14
-1.12949e-14
-8.69694e-15
-6.72672e-15
-5.24595e-15
-4.14927e-15
-3.35747e-15
-2.81218e-15
-2.47207e-15
-2.31001e-15
-0.214559
-0.209124
-0.203785
-0.198542
-0.193394
-0.188339
-0.183379
-0.178511
-0.173736
-0.169051
-0.164458
-0.159954
-0.155539
-0.151213
-0.146973
-0.142821
-0.138754
-0.134772
-0.130874
-0.127059
-0.123326
-0.119675
-0.116103
-0.112612
-0.109198
-0.105863
-0.102603
-0.0994199
-0.0963109
-0.0932755
-0.0903127
-0.0874215
-0.084601
-0.0818501
-0.0791677
-0.076553
-0.0740047
-0.071522
-0.0691038
-0.066749
-0.0644567
-0.0622257
-0.0600551
-0.0579437
-0.0558906
-0.0538948
-0.0519551
-0.0500706
-0.0482402
-0.0464629
-0.0447377
-0.0430635
-0.0414394
-0.0398642
-0.0383371
-0.036857
-0.0354228
-0.0340337
-0.0326886
-0.0313865
-0.0301265
-0.0289076
-0.0277288
-0.0265893
-0.025488
-0.0244241
-0.0233966
-0.0224047
-0.0214473
-0.0205237
-0.0196329
-0.0187741
-0.0179465
-0.0171491
-0.0163812
-0.0156419
-0.0149305
-0.0142461
-0.013588
-0.0129553
-0.0123474
-0.0117635
-0.0112028
-0.0106647
-0.0101483
-0.00965319
-0.0091785
-0.00872362
-0.00828789
-0.00787068
-0.00747136
-0.00708933
-0.00672399
-0.00637476
-0.00604107
-0.00572237
-0.00541811
-0.00512776
-0.00485082
-0.00458678
-0.00433515
-0.00409545
-0.00386723
-0.00365004
-0.00344343
-0.00324698
-0.00306028
-0.00288293
-0.00271455
-0.00255475
-0.00240318
-0.00225948
-0.0021233
-0.00199432
-0.00187223
-0.0017567
-0.00164745
-0.00154418
-0.00144662
-0.00135451
-0.00126758
-0.00118558
-0.00110829
-0.00103546
-0.000966878
-0.000902332
-0.000841619
-0.000784543
-0.000730916
-0.000680559
-0.000633299
-0.000588973
-0.000547422
-0.000508496
-0.000472051
-0.000437949
-0.00040606
-0.000376258
-0.000348423
-0.000322442
-0.000298208
-0.000275617
-0.00025457
-0.000234976
-0.000216747
-0.000199797
-0.000184048
-0.000169425
-0.000155856
-0.000143275
-0.000131616
-0.000120821
-0.000110832
-0.000101596
-9.30616e-05
-8.51817e-05
-7.79113e-05
-7.12082e-05
-6.50328e-05
-5.93478e-05
-5.41182e-05
-4.93113e-05
-4.48962e-05
-4.08442e-05
-3.71284e-05
-3.37236e-05
-3.06062e-05
-2.77543e-05
-2.51474e-05
-2.27664e-05
-2.05936e-05
-1.86124e-05
-1.68074e-05
-1.51644e-05
-1.36701e-05
-1.23123e-05
-1.10795e-05
-9.96124e-06
-8.94781e-06
-8.03018e-06
-7.20006e-06
-6.44978e-06
-5.77231e-06
-5.16114e-06
-4.6103e-06
-4.11432e-06
-3.66815e-06
-3.26719e-06
-2.9072e-06
-2.58431e-06
-2.295e-06
-2.03602e-06
-1.80444e-06
-1.59756e-06
-1.41294e-06
-1.24836e-06
-1.10179e-06
-9.71402e-07
-8.55533e-07
-7.52676e-07
-6.61469e-07
-5.8068e-07
-5.09198e-07
-4.46021e-07
-3.90247e-07
-3.41064e-07
-2.97741e-07
-2.59625e-07
-2.26129e-07
-1.96726e-07
-1.70947e-07
-1.48372e-07
-1.28626e-07
-1.11376e-07
-9.63232e-08
-8.32048e-08
-7.17859e-08
-6.18586e-08
-5.32389e-08
-4.57637e-08
-3.92893e-08
-3.36888e-08
-2.88504e-08
-2.46758e-08
-2.10785e-08
-1.79827e-08
-1.53219e-08
-1.30381e-08
-1.10803e-08
-9.40436e-09
-7.97145e-09
-6.74803e-09
-5.70484e-09
-4.81653e-09
-4.06109e-09
-3.41956e-09
-2.87553e-09
-2.41487e-09
-2.02529e-09
-1.69633e-09
-1.41884e-09
-1.18524e-09
-9.88677e-10
-8.23511e-10
-6.84913e-10
-5.68894e-10
-4.71659e-10
-3.90408e-10
-3.22646e-10
-2.66105e-10
-2.19181e-10
-1.80045e-10
-1.47711e-10
-1.20825e-10
-9.86619e-11
-8.04633e-11
-6.55639e-11
-5.33804e-11
-4.34975e-11
-3.52077e-11
-2.83691e-11
-2.27403e-11
-1.81322e-11
-1.43919e-11
-1.13854e-11
-8.98907e-12
-7.09006e-12
-5.58943e-12
-4.40444e-12
-3.46839e-12
-2.72866e-12
-2.14407e-12
-1.68237e-12
-1.31811e-12
-1.03114e-12
-8.05431e-13
-6.282e-13
-4.89266e-13
-3.8053e-13
-2.9556e-13
-2.2926e-13
-1.77602e-13
-1.37407e-13
-1.06174e-13
-8.19376e-14
-6.31555e-14
-4.86211e-14
-3.73903e-14
-2.87268e-14
-2.20561e-14
-1.69318e-14