/*--------------------------------*- C++ -*----------------------------------*\
| =========                 |                                                 |
| \\      /  F ield         | OpenFOAM: The Open Source CFD Toolbox           |
|  \\    /   O peration     | Version:  2.4.0                                 |
|   \\  /    A nd           | Web:      www.OpenFOAM.org                      |
|    \\/     M anipulation  |                                                 |
\*---------------------------------------------------------------------------*/
FoamFile
{
    version     2.0;
    format      ascii;
    class       volScalarField;
    location    "1.3";
    object      p_rgh;
}
// * * * * * * * * * * * * * * * * * * * * * * * * * * * * * * * * * * * * * //

dimensions      [1 -1 -2 0 0 0 0];

internalField   nonuniform List<scalar> 
8000
(
27.1921
27.1901
27.1878
27.1858
27.1838
27.1821
27.1804
27.1788
27.1773
27.1759
27.1746
27.1735
27.1724
27.1715
27.1707
27.1701
27.1695
27.1692
27.169
27.1689
27.1681
27.1668
27.1705
27.1942
27.2348
27.1528
26.5648
25.5573
3.16935
0.000430916
-2.3523e-05
-0.000102038
-0.000149208
-0.000160343
-0.000160206
-0.000158706
-0.000156974
-0.000154845
-0.000152478
-0.000150158
-0.000148043
-0.000146109
-0.000144293
-0.000142569
-0.000140927
-0.000139364
-0.000137874
-0.000136454
-0.0001351
-0.000133807
28.5504
28.5473
28.5442
28.5413
28.5387
28.5364
28.5342
28.5322
28.5304
28.5288
28.5274
28.5262
28.5251
28.5243
28.5237
28.5232
28.523
28.523
28.5232
28.5236
28.5236
28.5237
28.5276
28.5444
28.5674
28.4986
28.1105
24.6903
0.712735
-8.61565e-05
1.151e-05
-6.31e-05
-0.000105335
-0.000116899
-0.000119097
-0.00012002
-0.000120586
-0.000120698
-0.00012053
-0.000120342
-0.000120246
-0.000120207
-0.000120176
-0.000120138
-0.000120093
-0.000120041
-0.000119981
-0.000119914
-0.00011984
-0.000119758
29.8233
29.8215
29.8194
29.8174
29.8154
29.8134
29.8114
29.8094
29.8073
29.8052
29.8031
29.801
29.7988
29.7966
29.7944
29.7921
29.7898
29.7874
29.785
29.7825
29.7794
29.7764
29.7767
29.7864
29.7947
29.7161
29.3985
20.102
0.128821
-0.000207904
-2.00988e-05
-9.14953e-05
-0.000129913
-0.000139855
-0.000141415
-0.000141884
-0.000142057
-0.000141842
-0.000141404
-0.000140969
-0.00014061
-0.000140283
-0.000139953
-0.000139611
-0.00013926
-0.000138899
-0.00013853
-0.000138155
-0.000137775
-0.00013739
31.1314
31.1307
31.1298
31.1289
31.1278
31.1265
31.1252
31.1237
31.1221
31.1204
31.1185
31.1165
31.1144
31.1122
31.1098
31.1073
31.1046
31.1018
31.0988
31.0956
31.0918
31.0882
31.0881
31.0957
31.094
30.9965
30.7017
15.5931
0.0224116
-0.000119846
-4.49633e-05
-0.000100006
-0.00012831
-0.000136114
-0.00013792
-0.000138625
-0.000138885
-0.000138782
-0.000138532
-0.000138328
-0.000138201
-0.000138099
-0.000137995
-0.000137883
-0.000137764
-0.000137638
-0.000137504
-0.000137364
-0.000137218
-0.000137066
32.4583
32.4578
32.4572
32.4564
32.4555
32.4545
32.4534
32.4521
32.4507
32.4492
32.4476
32.4458
32.4439
32.4419
32.4398
32.4376
32.4352
32.4327
32.43
32.427
32.4236
32.4208
32.423
32.432
32.4179
32.2745
31.9547
10.857
0.00356428
-3.61805e-05
-7.55196e-05
-0.000123822
-0.000141927
-0.000146627
-0.000148334
-0.000149227
-0.000149519
-0.000149419
-0.000149211
-0.000149066
-0.000148983
-0.000148912
-0.000148832
-0.000148739
-0.000148634
-0.000148518
-0.000148391
-0.000148254
-0.000148107
-0.000147951
33.8044
33.8032
33.8017
33.8003
33.7989
33.7975
33.7961
33.7946
33.7932
33.7917
33.7902
33.7886
33.7871
33.7855
33.784
33.7824
33.7808
33.7793
33.7776
33.7755
33.773
33.773
33.784
33.8048
33.7601
33.4366
32.8627
5.43029
0.000290714
-2.08528e-05
-0.000100189
-0.000147906
-0.000160853
-0.000162959
-0.000163558
-0.000163731
-0.000163386
-0.000162721
-0.000162025
-0.000161435
-0.000160929
-0.000160458
-0.000160006
-0.000159568
-0.000159144
-0.000158733
-0.000158334
-0.000157946
-0.000157567
-0.000157198
35.1874
35.1846
35.1816
35.179
35.1766
35.1745
35.1726
35.1709
35.1693
35.168
35.1669
35.166
35.1652
35.1647
35.1644
35.1644
35.1645
35.165
35.1655
35.1656
35.1657
35.1702
35.1905
35.22
35.1418
34.6688
32.5399
1.29286
-0.00020359
-2.38948e-05
-0.000105951
-0.000150859
-0.000162385
-0.000164233
-0.000164983
-0.000165477
-0.00016555
-0.000165363
-0.00016516
-0.000165034
-0.000164951
-0.000164872
-0.000164789
-0.000164699
-0.000164602
-0.000164499
-0.00016439
-0.000164274
-0.000164152
-0.000164022
36.4925
36.4902
36.4876
36.4852
36.4829
36.4808
36.4788
36.4769
36.4751
36.4734
36.4718
36.4703
36.4689
36.4676
36.4664
36.4652
36.4642
36.4633
36.4624
36.4611
36.4598
36.4622
36.476
36.4932
36.4206
36.06
27.6266
0.209041
-0.000279528
-4.30197e-05
-0.000121838
-0.000162976
-0.000173074
-0.000174517
-0.000175075
-0.000175464
-0.000175512
-0.000175359
-0.000175208
-0.000175116
-0.000175043
-0.000174964
-0.000174872
-0.000174767
-0.000174651
-0.000174525
-0.000174388
-0.000174242
-0.000174086
-0.000173922
37.7738
37.7729
37.7718
37.7706
37.7694
37.768
37.7666
37.7651
37.7634
37.7617
37.7598
37.7579
37.7559
37.7537
37.7514
37.7491
37.7466
37.744
37.7412
37.7378
37.7344
37.7344
37.7435
37.7492
37.6647
37.3471
22.0594
0.0312418
-0.000181882
-8.14332e-05
-0.000141452
-0.000171899
-0.000179884
-0.000181599
-0.000182368
-0.000182804
-0.000182924
-0.000182909
-0.000182925
-0.000182989
-0.000183063
-0.000183126
-0.000183173
-0.000183206
-0.000183224
-0.000183229
-0.00018322
-0.000183197
-0.000183162
-0.000183114
39.1029
39.1023
39.1016
39.1008
39.0999
39.0989
39.0979
39.0967
39.0955
39.0942
39.0928
39.0913
39.0897
39.088
39.0863
39.0844
39.0825
39.0805
39.0782
39.0755
39.0731
39.0747
39.084
39.0819
38.9769
38.6737
16.9637
0.00417469
-7.88508e-05
-0.000125286
-0.000176255
-0.000194315
-0.000198414
-0.000199701
-0.000200343
-0.000200465
-0.000200237
-0.000199923
-0.000199669
-0.000199467
-0.000199277
-0.000199084
-0.000198885
-0.000198679
-0.000198468
-0.000198252
-0.00019803
-0.000197802
-0.00019757
-0.000197332
40.4254
40.4251
40.4246
40.4239
40.4232
40.4223
40.4213
40.4201
40.4188
40.4174
40.4159
40.4142
40.4125
40.4105
40.4085
40.4063
40.404
40.4015
40.3987
40.3954
40.3929
40.3956
40.4051
40.3892
40.2373
39.9101
11.3312
0.000224952
-4.8115e-05
-0.000140857
-0.000191891
-0.000205191
-0.000207599
-0.000208783
-0.000209628
-0.000209949
-0.000209926
-0.000209837
-0.000209801
-0.000209796
-0.000209788
-0.000209767
-0.00020973
-0.000209678
-0.000209612
-0.000209533
-0.00020944
-0.000209335
-0.000209218
-0.000209088
41.7801
41.7791
41.778
41.7768
41.7756
41.7744
41.7732
41.7719
41.7706
41.7693
41.768
41.7666
41.7652
41.7638
41.7624
41.7609
41.7594
41.7579
41.7558
41.7534
41.7534
41.7643
41.7848
41.7392
41.416
40.847
5.44207
-0.000350294
-7.10278e-05
-0.000172015
-0.000221935
-0.000232912
-0.000233676
-0.000233732
-0.000233711
-0.000233303
-0.000232646
-0.00023198
-0.000231392
-0.000230855
-0.000230339
-0.000229835
-0.00022934
-0.000228856
-0.00022838
-0.000227912
-0.000227451
-0.000226997
-0.000226549
-0.000226107
43.1688
43.1661
43.1633
43.1608
43.1586
43.1567
43.155
43.1534
43.1521
43.151
43.1502
43.1495
43.149
43.1488
43.1488
43.1491
43.1497
43.1503
43.1505
43.1505
43.1554
43.1773
43.2098
43.1272
42.6167
40.3154
1.14424
-0.000410868
-9.6823e-05
-0.00018962
-0.00023557
-0.000245319
-0.000245716
-0.000245613
-0.000245593
-0.000245322
-0.000244883
-0.000244458
-0.000244097
-0.00024377
-0.000243457
-0.000243148
-0.000242842
-0.000242538
-0.000242235
-0.000241932
-0.000241628
-0.000241322
-0.000241014
-0.000240703
44.479
44.4768
44.4743
44.4721
44.47
44.4681
44.4663
44.4645
44.4629
44.4614
44.46
44.4587
44.4575
44.4564
44.4555
44.4546
44.4539
44.4531
44.452
44.4507
44.4533
44.4688
44.4893
44.4144
44.0184
34.7138
0.164537
-0.000379899
-0.000126462
-0.000207698
-0.000247731
-0.000256272
-0.000256711
-0.000256683
-0.000256726
-0.000256568
-0.000256284
-0.00025601
-0.000255772
-0.000255547
-0.000255322
-0.00025509
-0.000254852
-0.000254607
-0.000254356
-0.000254099
-0.000253836
-0.000253567
-0.000253292
-0.00025301
45.7627
45.7618
45.7608
45.7596
45.7584
45.7571
45.7557
45.7542
45.7527
45.7511
45.7493
45.7475
45.7457
45.7437
45.7416
45.7395
45.7373
45.7348
45.7318
45.7286
45.729
45.7397
45.7499
45.667
45.32
28.5314
0.0209018
-0.000233457
-0.000184373
-0.000241883
-0.000268112
-0.000274121
-0.000275154
-0.000275609
-0.000275856
-0.000275873
-0.000275801
-0.000275743
-0.000275702
-0.000275659
-0.000275602
-0.000275527
-0.000275434
-0.000275324
-0.000275195
-0.000275049
-0.000274886
-0.000274707
-0.000274511
-0.000274299
47.0963
47.0956
47.0948
47.0939
47.093
47.092
47.091
47.0898
47.0887
47.0874
47.0861
47.0847
47.0833
47.0818
47.0802
47.0786
47.0769
47.075
47.0727
47.0705
47.0722
47.0827
47.0862
46.9903
46.6694
22.7824
0.00197179
-0.00013705
-0.000217483
-0.000270216
-0.000284695
-0.000286859
-0.000287584
-0.000288144
-0.000288325
-0.000288227
-0.000288063
-0.000287926
-0.000287812
-0.000287699
-0.000287579
-0.000287449
-0.000287306
-0.000287153
-0.000286988
-0.000286813
-0.000286627
-0.00028643
-0.000286224
-0.000286008
48.4104
48.4102
48.4099
48.4094
48.4087
48.4078
48.4068
48.4056
48.4043
48.4028
48.4011
48.3993
48.3973
48.3951
48.3927
48.3902
48.3875
48.3844
48.3808
48.3777
48.3791
48.3879
48.3777
48.2452
47.9223
16.3109
-0.000272431
-0.000134357
-0.000243299
-0.000296063
-0.000307606
-0.00030869
-0.000309377
-0.000310177
-0.000310657
-0.000310889
-0.000311069
-0.000311271
-0.000311487
-0.0003117
-0.000311899
-0.00031208
-0.000312239
-0.000312376
-0.00031249
-0.00031258
-0.000312644
-0.000312684
-0.000312697
-0.000312684
49.7645
49.7639
49.7631
49.7623
49.7613
49.7602
49.759
49.7576
49.7562
49.7547
49.753
49.7513
49.7494
49.7474
49.7453
49.7431
49.7407
49.7379
49.7347
49.7328
49.7377
49.7498
49.7235
49.5202
49.1312
9.43764
-0.000584
-0.000163387
-0.00027556
-0.000325983
-0.000336055
-0.00033659
-0.000336996
-0.000337574
-0.00033785
-0.000337869
-0.000337796
-0.000337698
-0.000337575
-0.000337418
-0.000337223
-0.000336992
-0.000336726
-0.000336429
-0.000336104
-0.000335753
-0.000335381
-0.000334988
-0.000334576
-0.000334149
51.1742
51.1713
51.1684
51.1658
51.1635
51.1615
51.1598
51.1583
51.157
51.156
51.1552
51.1547
51.1544
51.1544
51.1547
51.1553
51.156
51.1561
51.1559
51.1613
51.1884
51.2322
51.1391
50.4998
49.3026
2.5699
-0.000564391
-0.000181611
-0.000288089
-0.000338195
-0.000347882
-0.000348075
-0.000348456
-0.000349346
-0.00035015
-0.000350811
-0.000351432
-0.000352063
-0.000352698
-0.000353323
-0.000353928
-0.000354508
-0.000355058
-0.000355576
-0.00035606
-0.000356508
-0.000356918
-0.000357289
-0.000357619
-0.000357908
52.513
52.5098
52.5064
52.5034
52.5007
52.4982
52.496
52.4941
52.4923
52.4908
52.4896
52.4885
52.4877
52.4872
52.4869
52.4869
52.487
52.4868
52.4867
52.4911
52.5106
52.5368
52.4533
51.9959
43.5092
0.329561
-0.000569976
-0.000262075
-0.00035233
-0.000394759
-0.000402393
-0.000401791
-0.000401324
-0.000401302
-0.000401207
-0.00040096
-0.000400642
-0.000400293
-0.000399917
-0.000399509
-0.000399066
-0.000398591
-0.000398085
-0.000397551
-0.000396993
-0.000396411
-0.00039581
-0.00039519
-0.000394554
-0.000393903
-0.000132573
-0.000131394
-0.000130266
-0.000129187
-0.000128155
-0.000127165
-0.000126217
-0.000125308
-0.000124435
-0.000123596
-0.00012279
-0.000122015
-0.000121269
-0.00012055
-0.000119857
-0.000119188
-0.000118542
-0.000117919
-0.000117315
-0.000116731
-0.000116165
-0.000115617
-0.000115085
-0.000114568
-0.000114066
-0.000113577
-0.000113101
-0.000112637
-0.000112185
-0.000111743
-0.000111312
-0.00011089
-0.000110477
-0.000110073
-0.000109677
-0.000109288
-0.000108906
-0.00010853
-0.000108161
-0.000107798
-0.00010744
-0.000107088
-0.00010674
-0.000106396
-0.000106057
-0.000105722
-0.00010539
-0.000105062
-0.000104739
-0.00010442
-0.00011967
-0.000119575
-0.000119474
-0.000119366
-0.000119252
-0.000119131
-0.000119005
-0.000118873
-0.000118735
-0.000118591
-0.000118443
-0.000118289
-0.00011813
-0.000117966
-0.000117797
-0.000117624
-0.000117446
-0.000117263
-0.000117077
-0.000116886
-0.000116692
-0.000116493
-0.000116291
-0.000116085
-0.000115876
-0.000115663
-0.000115447
-0.000115227
-0.000115004
-0.000114778
-0.00011455
-0.000114318
-0.000114083
-0.000113846
-0.000113606
-0.000113363
-0.000113117
-0.000112869
-0.000112618
-0.000112365
-0.00011211
-0.000111852
-0.000111592
-0.00011133
-0.000111065
-0.000110798
-0.000110529
-0.000110258
-0.000109986
-0.000109708
-0.000137001
-0.00013661
-0.000136216
-0.000135821
-0.000135424
-0.000135027
-0.00013463
-0.000134232
-0.000133836
-0.00013344
-0.000133045
-0.000132651
-0.000132258
-0.000131867
-0.000131478
-0.00013109
-0.000130705
-0.000130321
-0.000129939
-0.000129559
-0.000129181
-0.000128805
-0.00012843
-0.000128058
-0.000127688
-0.000127319
-0.000126952
-0.000126587
-0.000126224
-0.000125862
-0.000125502
-0.000125143
-0.000124786
-0.00012443
-0.000124076
-0.000123722
-0.00012337
-0.000123019
-0.000122669
-0.00012232
-0.000121971
-0.000121624
-0.000121277
-0.00012093
-0.000120585
-0.000120239
-0.000119894
-0.00011955
-0.000119208
-0.000118867
-0.000136909
-0.000136745
-0.000136577
-0.000136403
-0.000136225
-0.000136042
-0.000135854
-0.000135662
-0.000135465
-0.000135264
-0.000135059
-0.000134851
-0.000134638
-0.000134422
-0.000134202
-0.000133979
-0.000133752
-0.000133521
-0.000133288
-0.000133051
-0.00013281
-0.000132567
-0.000132321
-0.000132072
-0.000131819
-0.000131564
-0.000131306
-0.000131045
-0.000130781
-0.000130515
-0.000130245
-0.000129973
-0.000129699
-0.000129422
-0.000129142
-0.000128859
-0.000128575
-0.000128287
-0.000127997
-0.000127705
-0.00012741
-0.000127113
-0.000126813
-0.000126511
-0.000126206
-0.000125899
-0.00012559
-0.000125279
-0.000124967
-0.000124649
-0.000147786
-0.000147613
-0.000147432
-0.000147243
-0.000147047
-0.000146844
-0.000146635
-0.000146419
-0.000146197
-0.000145969
-0.000145736
-0.000145497
-0.000145254
-0.000145005
-0.000144752
-0.000144495
-0.000144233
-0.000143967
-0.000143697
-0.000143423
-0.000143145
-0.000142864
-0.000142579
-0.000142291
-0.000142
-0.000141705
-0.000141408
-0.000141107
-0.000140804
-0.000140497
-0.000140188
-0.000139876
-0.000139561
-0.000139244
-0.000138924
-0.000138602
-0.000138277
-0.000137949
-0.000137619
-0.000137287
-0.000136952
-0.000136615
-0.000136276
-0.000135934
-0.00013559
-0.000135244
-0.000134896
-0.000134545
-0.000134194
-0.000133841
-0.000156836
-0.000156482
-0.000156135
-0.000155794
-0.000155458
-0.000155127
-0.0001548
-0.000154477
-0.000154157
-0.00015384
-0.000153526
-0.000153213
-0.000152903
-0.000152594
-0.000152285
-0.000151978
-0.000151671
-0.000151365
-0.000151059
-0.000150752
-0.000150445
-0.000150138
-0.00014983
-0.000149521
-0.000149211
-0.0001489
-0.000148588
-0.000148275
-0.00014796
-0.000147643
-0.000147325
-0.000147004
-0.000146683
-0.000146359
-0.000146033
-0.000145705
-0.000145375
-0.000145043
-0.000144709
-0.000144372
-0.000144033
-0.000143692
-0.000143349
-0.000143003
-0.000142655
-0.000142304
-0.000141951
-0.000141596
-0.000141239
-0.000140877
-0.000163887
-0.000163744
-0.000163596
-0.00016344
-0.000163279
-0.000163111
-0.000162936
-0.000162756
-0.000162569
-0.000162376
-0.000162177
-0.000161972
-0.000161761
-0.000161545
-0.000161322
-0.000161095
-0.000160861
-0.000160622
-0.000160378
-0.000160128
-0.000159873
-0.000159613
-0.000159347
-0.000159077
-0.000158802
-0.000158521
-0.000158236
-0.000157946
-0.000157652
-0.000157352
-0.000157048
-0.000156739
-0.000156426
-0.000156109
-0.000155787
-0.00015546
-0.000155129
-0.000154794
-0.000154455
-0.000154112
-0.000153764
-0.000153412
-0.000153056
-0.000152697
-0.000152333
-0.000151965
-0.000151593
-0.000151218
-0.00015084
-0.00015046
-0.00017375
-0.00017357
-0.000173383
-0.000173188
-0.000172987
-0.000172779
-0.000172564
-0.000172344
-0.000172117
-0.000171885
-0.000171647
-0.000171403
-0.000171154
-0.0001709
-0.000170641
-0.000170377
-0.000170107
-0.000169833
-0.000169555
-0.000169271
-0.000168983
-0.000168691
-0.000168394
-0.000168092
-0.000167786
-0.000167476
-0.000167162
-0.000166843
-0.00016652
-0.000166193
-0.000165861
-0.000165526
-0.000165186
-0.000164843
-0.000164495
-0.000164143
-0.000163788
-0.000163428
-0.000163065
-0.000162697
-0.000162326
-0.00016195
-0.000161571
-0.000161188
-0.000160802
-0.000160411
-0.000160016
-0.000159619
-0.000159219
-0.000158812
-0.000183054
-0.000182982
-0.000182898
-0.000182803
-0.000182697
-0.00018258
-0.000182452
-0.000182315
-0.000182167
-0.000182009
-0.000181842
-0.000181665
-0.000181479
-0.000181284
-0.000181081
-0.000180868
-0.000180648
-0.000180419
-0.000180182
-0.000179937
-0.000179684
-0.000179424
-0.000179156
-0.000178881
-0.000178598
-0.000178309
-0.000178012
-0.000177709
-0.000177399
-0.000177082
-0.000176758
-0.000176428
-0.000176092
-0.00017575
-0.000175401
-0.000175046
-0.000174685
-0.000174318
-0.000173946
-0.000173567
-0.000173183
-0.000172793
-0.000172398
-0.000171997
-0.00017159
-0.000171179
-0.000170761
-0.000170339
-0.000169914
-0.000169483
-0.000197089
-0.000196841
-0.000196588
-0.00019633
-0.000196066
-0.000195798
-0.000195525
-0.000195248
-0.000194965
-0.000194678
-0.000194385
-0.000194088
-0.000193787
-0.00019348
-0.000193169
-0.000192853
-0.000192532
-0.000192207
-0.000191877
-0.000191542
-0.000191202
-0.000190858
-0.000190509
-0.000190156
-0.000189797
-0.000189435
-0.000189067
-0.000188695
-0.000188318
-0.000187936
-0.00018755
-0.000187159
-0.000186763
-0.000186362
-0.000185957
-0.000185548
-0.000185133
-0.000184714
-0.000184291
-0.000183862
-0.000183429
-0.000182992
-0.00018255
-0.000182103
-0.000181651
-0.000181195
-0.000180734
-0.00018027
-0.000179803
-0.000179327
-0.000208947
-0.000208795
-0.000208631
-0.000208458
-0.000208273
-0.000208079
-0.000207874
-0.00020766
-0.000207437
-0.000207204
-0.000206962
-0.000206712
-0.000206452
-0.000206184
-0.000205908
-0.000205624
-0.000205331
-0.00020503
-0.000204721
-0.000204405
-0.000204081
-0.000203749
-0.00020341
-0.000203063
-0.00020271
-0.000202348
-0.00020198
-0.000201605
-0.000201223
-0.000200833
-0.000200437
-0.000200035
-0.000199625
-0.000199209
-0.000198786
-0.000198357
-0.000197921
-0.000197478
-0.00019703
-0.000196575
-0.000196113
-0.000195646
-0.000195172
-0.000194692
-0.000194206
-0.000193714
-0.000193216
-0.000192712
-0.000192205
-0.000191692
-0.00022567
-0.000225237
-0.000224808
-0.000224382
-0.000223959
-0.000223539
-0.00022312
-0.000222702
-0.000222286
-0.00022187
-0.000221454
-0.000221039
-0.000220622
-0.000220205
-0.000219787
-0.000219367
-0.000218945
-0.000218521
-0.000218095
-0.000217667
-0.000217236
-0.000216802
-0.000216364
-0.000215924
-0.00021548
-0.000215032
-0.00021458
-0.000214125
-0.000213665
-0.000213201
-0.000212733
-0.00021226
-0.000211783
-0.000211301
-0.000210814
-0.000210322
-0.000209826
-0.000209324
-0.000208818
-0.000208306
-0.000207789
-0.000207268
-0.00020674
-0.000206208
-0.00020567
-0.000205127
-0.000204579
-0.000204026
-0.00020347
-0.000202903
-0.000240389
-0.000240072
-0.000239751
-0.000239425
-0.000239094
-0.000238759
-0.000238418
-0.000238072
-0.000237721
-0.000237363
-0.000237
-0.00023663
-0.000236255
-0.000235873
-0.000235484
-0.000235089
-0.000234688
-0.00023428
-0.000233865
-0.000233444
-0.000233015
-0.00023258
-0.000232138
-0.000231689
-0.000231234
-0.000230771
-0.000230301
-0.000229825
-0.000229341
-0.000228851
-0.000228353
-0.000227849
-0.000227337
-0.000226819
-0.000226294
-0.000225762
-0.000225223
-0.000224677
-0.000224124
-0.000223564
-0.000222998
-0.000222425
-0.000221845
-0.000221258
-0.000220664
-0.000220064
-0.000219457
-0.000218844
-0.000218227
-0.000217605
-0.000252723
-0.00025243
-0.000252131
-0.000251826
-0.000251514
-0.000251197
-0.000250873
-0.000250543
-0.000250206
-0.000249862
-0.000249512
-0.000249155
-0.000248792
-0.000248421
-0.000248043
-0.000247658
-0.000247266
-0.000246866
-0.000246459
-0.000246044
-0.000245622
-0.000245192
-0.000244754
-0.000244308
-0.000243855
-0.000243393
-0.000242923
-0.000242446
-0.00024196
-0.000241466
-0.000240964
-0.000240454
-0.000239935
-0.000239408
-0.000238873
-0.00023833
-0.000237778
-0.000237218
-0.000236649
-0.000236073
-0.000235488
-0.000234895
-0.000234293
-0.000233683
-0.000233066
-0.000232439
-0.000231805
-0.000231164
-0.000230517
-0.000229855
-0.000274071
-0.000273828
-0.000273569
-0.000273296
-0.000273008
-0.000272705
-0.000272388
-0.000272057
-0.000271713
-0.000271355
-0.000270983
-0.000270599
-0.000270201
-0.000269791
-0.000269369
-0.000268934
-0.000268488
-0.000268029
-0.000267559
-0.000267077
-0.000266584
-0.00026608
-0.000265565
-0.000265038
-0.000264502
-0.000263954
-0.000263397
-0.000262828
-0.00026225
-0.000261662
-0.000261064
-0.000260456
-0.000259839
-0.000259212
-0.000258575
-0.000257929
-0.000257274
-0.00025661
-0.000255936
-0.000255254
-0.000254563
-0.000253863
-0.000253154
-0.000252437
-0.000251711
-0.000250977
-0.000250234
-0.000249484
-0.000248729
-0.000247967
-0.000285782
-0.000285546
-0.0002853
-0.000285045
-0.00028478
-0.000284506
-0.000284222
-0.000283928
-0.000283624
-0.00028331
-0.000282986
-0.000282652
-0.000282308
-0.000281953
-0.000281588
-0.000281211
-0.000280825
-0.000280427
-0.000280018
-0.000279597
-0.000279166
-0.000278723
-0.000278268
-0.000277802
-0.000277324
-0.000276834
-0.000276332
-0.000275818
-0.000275292
-0.000274753
-0.000274203
-0.00027364
-0.000273065
-0.000272478
-0.000271879
-0.000271267
-0.000270643
-0.000270007
-0.000269359
-0.000268698
-0.000268026
-0.000267341
-0.000266644
-0.000265936
-0.000265215
-0.000264482
-0.000263739
-0.000262985
-0.000262222
-0.000261437
-0.000312645
-0.000312579
-0.000312486
-0.000312366
-0.000312219
-0.000312045
-0.000311845
-0.000311618
-0.000311365
-0.000311087
-0.000310783
-0.000310454
-0.000310101
-0.000309724
-0.000309323
-0.000308899
-0.000308452
-0.000307983
-0.000307493
-0.000306981
-0.000306449
-0.000305897
-0.000305325
-0.000304734
-0.000304125
-0.000303497
-0.000302852
-0.000302189
-0.000301509
-0.000300813
-0.000300101
-0.000299373
-0.00029863
-0.000297872
-0.000297099
-0.000296312
-0.000295511
-0.000294697
-0.000293869
-0.000293028
-0.000292174
-0.000291308
-0.000290429
-0.000289539
-0.000288636
-0.000287722
-0.000286796
-0.000285859
-0.000284917
-0.000283966
-0.000333707
-0.000333252
-0.000332785
-0.000332308
-0.00033182
-0.000331322
-0.000330816
-0.000330302
-0.00032978
-0.00032925
-0.000328712
-0.000328167
-0.000327614
-0.000327053
-0.000326485
-0.000325909
-0.000325324
-0.000324731
-0.00032413
-0.000323519
-0.000322899
-0.00032227
-0.00032163
-0.00032098
-0.00032032
-0.000319649
-0.000318966
-0.000318273
-0.000317567
-0.00031685
-0.00031612
-0.000315378
-0.000314623
-0.000313856
-0.000313075
-0.000312281
-0.000311474
-0.000310654
-0.00030982
-0.000308972
-0.000308111
-0.000307237
-0.000306348
-0.000305446
-0.00030453
-0.0003036
-0.000302657
-0.000301703
-0.000300739
-0.000299747
-0.000358154
-0.000358357
-0.000358517
-0.000358632
-0.000358704
-0.000358731
-0.000358714
-0.000358654
-0.000358551
-0.000358405
-0.000358216
-0.000357987
-0.000357716
-0.000357406
-0.000357056
-0.000356668
-0.000356243
-0.000355781
-0.000355284
-0.000354752
-0.000354186
-0.000353587
-0.000352957
-0.000352296
-0.000351604
-0.000350883
-0.000350135
-0.000349358
-0.000348555
-0.000347726
-0.000346873
-0.000345994
-0.000345093
-0.000344168
-0.000343222
-0.000342254
-0.000341265
-0.000340255
-0.000339226
-0.000338178
-0.000337112
-0.000336027
-0.000334924
-0.000333805
-0.000332669
-0.000331516
-0.000330347
-0.000329164
-0.000327972
-0.000326767
-0.000393239
-0.000392562
-0.000391874
-0.000391176
-0.000390467
-0.000389748
-0.000389021
-0.000388284
-0.000387538
-0.000386783
-0.00038602
-0.000385247
-0.000384466
-0.000383675
-0.000382874
-0.000382063
-0.000381243
-0.000380411
-0.000379569
-0.000378715
-0.00037785
-0.000376972
-0.000376082
-0.00037518
-0.000374264
-0.000373334
-0.000372391
-0.000371434
-0.000370462
-0.000369475
-0.000368474
-0.000367457
-0.000366424
-0.000365376
-0.000364313
-0.000363233
-0.000362137
-0.000361025
-0.000359897
-0.000358752
-0.000357591
-0.000356414
-0.00035522
-0.00035401
-0.000352783
-0.00035154
-0.000350282
-0.00034901
-0.000347728
-0.000346412
-0.000104177
-0.000104002
-0.000103821
-0.000103639
-0.000103458
-0.000103277
-0.000103095
-0.000102913
-0.00010273
-0.000102547
-0.000102363
-0.000102178
-0.000101993
-0.000101808
-0.000101621
-0.000101434
-0.000101247
-0.000101059
-0.00010087
-0.00010068
-0.000100489
-0.000100298
-0.000100106
-9.99134e-05
-9.97198e-05
-9.95253e-05
-9.933e-05
-9.91338e-05
-9.89367e-05
-9.87387e-05
-9.85397e-05
-9.83398e-05
-9.81389e-05
-9.79369e-05
-9.7734e-05
-9.753e-05
-9.73249e-05
-9.71188e-05
-9.69115e-05
-9.67032e-05
-9.64936e-05
-9.62829e-05
-9.6071e-05
-9.58579e-05
-9.56436e-05
-9.54279e-05
-9.52111e-05
-9.49929e-05
-9.47734e-05
-9.45525e-05
-9.43303e-05
-9.41068e-05
-9.38818e-05
-9.36554e-05
-9.34275e-05
-9.31982e-05
-9.29674e-05
-9.2735e-05
-9.25012e-05
-9.22658e-05
-9.20288e-05
-9.17903e-05
-9.15501e-05
-9.13083e-05
-9.10648e-05
-9.08197e-05
-9.05728e-05
-9.03243e-05
-9.0074e-05
-8.9822e-05
-8.95681e-05
-8.93125e-05
-8.90551e-05
-8.87958e-05
-8.85347e-05
-8.82717e-05
-8.80068e-05
-8.774e-05
-8.74712e-05
-8.72005e-05
-8.69278e-05
-8.66532e-05
-8.63765e-05
-8.60978e-05
-8.5817e-05
-8.55342e-05
-8.52493e-05
-8.49623e-05
-8.46731e-05
-8.43818e-05
-8.40884e-05
-8.37928e-05
-8.3495e-05
-8.3195e-05
-8.28928e-05
-8.25883e-05
-8.22815e-05
-8.19725e-05
-8.16612e-05
-8.13476e-05
-8.10317e-05
-8.07134e-05
-8.03928e-05
-8.00698e-05
-7.97444e-05
-7.94166e-05
-7.90864e-05
-7.87538e-05
-7.84188e-05
-7.80813e-05
-7.77413e-05
-7.73988e-05
-7.70539e-05
-7.67064e-05
-7.63565e-05
-7.6004e-05
-7.56489e-05
-7.52913e-05
-7.49312e-05
-7.45685e-05
-7.42032e-05
-7.38353e-05
-7.34648e-05
-7.30917e-05
-7.27159e-05
-7.23376e-05
-7.19566e-05
-7.15729e-05
-7.11866e-05
-7.07977e-05
-7.0406e-05
-7.00117e-05
-6.96148e-05
-6.92151e-05
-6.88128e-05
-6.84077e-05
-6.8e-05
-6.75895e-05
-6.71763e-05
-6.67605e-05
-6.63419e-05
-6.59206e-05
-6.54966e-05
-6.50698e-05
-6.46404e-05
-6.42082e-05
-6.37733e-05
-6.33357e-05
-6.28953e-05
-6.24523e-05
-6.20065e-05
-6.1558e-05
-6.11068e-05
-6.06529e-05
-6.01963e-05
-5.9737e-05
-5.9275e-05
-5.88103e-05
-5.83429e-05
-5.78729e-05
-5.74002e-05
-5.69248e-05
-5.64468e-05
-5.59662e-05
-5.54829e-05
-5.4997e-05
-5.45085e-05
-5.40174e-05
-5.35237e-05
-5.30275e-05
-5.25287e-05
-5.20274e-05
-5.15235e-05
-5.10172e-05
-5.05083e-05
-4.9997e-05
-4.94833e-05
-4.89671e-05
-4.84485e-05
-4.79276e-05
-4.74042e-05
-4.68786e-05
-4.63506e-05
-4.58203e-05
-4.52878e-05
-4.4753e-05
-4.42161e-05
-4.36769e-05
-4.31356e-05
-4.25922e-05
-4.20468e-05
-4.14992e-05
-4.09497e-05
-4.03982e-05
-3.98448e-05
-3.92894e-05
-3.87322e-05
-3.81732e-05
-3.76124e-05
-3.70498e-05
-3.64856e-05
-3.59197e-05
-3.53522e-05
-3.47832e-05
-3.42126e-05
-3.36406e-05
-3.30672e-05
-3.24925e-05
-3.19164e-05
-3.13391e-05
-3.07606e-05
-3.0181e-05
-2.96003e-05
-2.90186e-05
-2.8436e-05
-2.78525e-05
-2.72681e-05
-2.6683e-05
-2.60972e-05
-2.55108e-05
-2.49239e-05
-2.43364e-05
-2.37486e-05
-2.31604e-05
-2.25719e-05
-2.19833e-05
-2.13946e-05
-2.08058e-05
-2.02171e-05
-1.96286e-05
-1.90403e-05
-1.84522e-05
-1.78646e-05
-1.72775e-05
-1.66909e-05
-1.6105e-05
-1.55198e-05
-1.49355e-05
-1.43522e-05
-1.37699e-05
-1.31887e-05
-1.26088e-05
-1.20302e-05
-1.14531e-05
-1.08775e-05
-1.03036e-05
-9.73139e-06
-9.16111e-06
-8.59281e-06
-8.0266e-06
-7.46261e-06
-6.90095e-06
-6.34173e-06
-5.78507e-06
-5.2311e-06
-4.67993e-06
-4.13169e-06
-3.58649e-06
-3.04448e-06
-2.50577e-06
-1.9705e-06
-1.4388e-06
-9.10791e-07
-3.86618e-07
1.33585e-07
6.49681e-07
1.16153e-06
1.669e-06
2.17193e-06
2.67019e-06
3.16364e-06
3.65212e-06
4.13548e-06
4.61358e-06
5.08627e-06
5.55338e-06
6.01477e-06
6.47028e-06
6.91974e-06
7.36301e-06
7.79991e-06
8.23028e-06
8.65396e-06
9.07078e-06
9.48058e-06
9.88318e-06
1.02784e-05
1.06661e-05
1.10461e-05
1.14181e-05
1.17822e-05
1.21379e-05
1.24852e-05
1.2824e-05
1.31539e-05
1.34748e-05
1.37868e-05
1.40899e-05
1.43827e-05
1.4659e-05
-0.000109485
-0.000109328
-0.000109171
-0.000109014
-0.000108856
-0.000108697
-0.000108536
-0.000108375
-0.000108212
-0.000108047
-0.000107882
-0.000107715
-0.000107547
-0.000107378
-0.000107207
-0.000107035
-0.000106861
-0.000106686
-0.00010651
-0.000106333
-0.000106154
-0.000105973
-0.000105791
-0.000105608
-0.000105423
-0.000105237
-0.000105049
-0.000104859
-0.000104668
-0.000104476
-0.000104282
-0.000104087
-0.000103889
-0.000103691
-0.00010349
-0.000103289
-0.000103085
-0.00010288
-0.000102673
-0.000102464
-0.000102254
-0.000102042
-0.000101829
-0.000101613
-0.000101396
-0.000101177
-0.000100957
-0.000100734
-0.00010051
-0.000100284
-0.000100056
-9.98262e-05
-9.95946e-05
-9.93611e-05
-9.91257e-05
-9.88884e-05
-9.86492e-05
-9.84081e-05
-9.8165e-05
-9.792e-05
-9.76729e-05
-9.74239e-05
-9.71729e-05
-9.69198e-05
-9.66647e-05
-9.64075e-05
-9.61483e-05
-9.5887e-05
-9.56236e-05
-9.5358e-05
-9.50904e-05
-9.48205e-05
-9.45485e-05
-9.42744e-05
-9.3998e-05
-9.37194e-05
-9.34386e-05
-9.31556e-05
-9.28703e-05
-9.25827e-05
-9.22928e-05
-9.20007e-05
-9.17062e-05
-9.14094e-05
-9.11102e-05
-9.08086e-05
-9.05047e-05
-9.01984e-05
-8.98897e-05
-8.95785e-05
-8.92649e-05
-8.89488e-05
-8.86303e-05
-8.83093e-05
-8.79857e-05
-8.76597e-05
-8.73311e-05
-8.69999e-05
-8.66662e-05
-8.633e-05
-8.59911e-05
-8.56496e-05
-8.53055e-05
-8.49588e-05
-8.46094e-05
-8.42573e-05
-8.39026e-05
-8.35452e-05
-8.3185e-05
-8.28222e-05
-8.24566e-05
-8.20883e-05
-8.17172e-05
-8.13434e-05
-8.09668e-05
-8.05873e-05
-8.02051e-05
-7.98201e-05
-7.94322e-05
-7.90415e-05
-7.86479e-05
-7.82515e-05
-7.78522e-05
-7.74501e-05
-7.7045e-05
-7.66371e-05
-7.62262e-05
-7.58124e-05
-7.53957e-05
-7.49761e-05
-7.45536e-05
-7.4128e-05
-7.36996e-05
-7.32682e-05
-7.28338e-05
-7.23964e-05
-7.19561e-05
-7.15128e-05
-7.10665e-05
-7.06173e-05
-7.0165e-05
-6.97098e-05
-6.92516e-05
-6.87903e-05
-6.83261e-05
-6.78589e-05
-6.73887e-05
-6.69155e-05
-6.64394e-05
-6.59602e-05
-6.54781e-05
-6.4993e-05
-6.45049e-05
-6.40138e-05
-6.35198e-05
-6.30228e-05
-6.25229e-05
-6.202e-05
-6.15142e-05
-6.10055e-05
-6.04939e-05
-5.99793e-05
-5.94619e-05
-5.89416e-05
-5.84185e-05
-5.78925e-05
-5.73636e-05
-5.6832e-05
-5.62975e-05
-5.57602e-05
-5.52202e-05
-5.46775e-05
-5.4132e-05
-5.35838e-05
-5.30329e-05
-5.24794e-05
-5.19232e-05