/*--------------------------------*- C++ -*----------------------------------*\
| =========                 |                                                 |
| \\      /  F ield         | OpenFOAM: The Open Source CFD Toolbox           |
|  \\    /   O peration     | Version:  2.4.0                                 |
|   \\  /    A nd           | Web:      www.OpenFOAM.org                      |
|    \\/     M anipulation  |                                                 |
\*---------------------------------------------------------------------------*/
FoamFile
{
    version     2.0;
    format      ascii;
    class       volScalarField;
    location    "0.013";
    object      H;
}
// * * * * * * * * * * * * * * * * * * * * * * * * * * * * * * * * * * * * * //

dimensions      [0 2 -2 0 0 0 0];

internalField   nonuniform List<scalar> 
125
(
-17.6114
-16.9612
-16.3493
-15.7695
-15.2166
-14.6863
-14.1755
-13.6817
-13.2028
-12.7374
-12.2844
-11.8429
-11.4122
-10.9921
-10.582
-10.1818
-9.79144
-9.41069
-9.03952
-8.67789
-8.32574
-7.98307
-7.64983
-7.32599
-7.01151
-6.70634
-6.41043
-6.12372
-5.84611
-5.57754
-5.3179
-5.06709
-4.825
-4.59149
-4.36645
-4.14972
-3.94117
-3.74065
-3.54798
-3.36301
-3.18557
-3.01549
-2.85258
-2.69666
-2.54756
-2.40509
-2.26905
-2.13925
-2.01552
-1.89766
-1.78547
-1.67877
-1.57737
-1.48108
-1.38972
-1.3031
-1.22105
-1.14337
-1.0699
-1.00047
-0.934893
-0.873017
-0.814675
-0.75971
-0.707966
-0.659293
-0.613544
-0.570577
-0.530256
-0.492446
-0.457018
-0.42385
-0.39282
-0.363813
-0.336719
-0.31143
-0.287845
-0.265866
-0.245399
-0.226355
-0.208648
-0.192197
-0.176925
-0.162757
-0.149623
-0.137458
-0.126198
-0.115783
-0.106158
-0.0972684
-0.0890645
-0.081499
-0.0745271
-0.068107
-0.0621991
-0.0567667
-0.0517748
-0.0471911
-0.0429852
-0.0391286
-0.0355947
-0.032359
-0.0293981
-0.0266908
-0.0242169
-0.0219579
-0.0198966
-0.0180169
-0.0163041
-0.0147443
-0.0133248
-0.012034
-0.0108609
-0.00979558
-0.00882875
-0.00795192
-0.00715726
-0.00643755
-0.00578618
-0.00519707
-0.00466463
-0.00418376
-0.00374975
-0.00335833
-0.00300556
)
;

boundaryField
{
    BotWall
    {
        type            zeroGradient;
    }
    FreeStream
    {
        type            zeroGradient;
    }
    FrontNBack
    {
        type            empty;
    }
    LeftSide
    {
        type            symmetryPlane;
    }
    RightSide
    {
        type            symmetryPlane;
    }
    procBoundary1to0
    {
        type            processor;
        value           uniform -0.00268786;
    }
    procBoundary1to2
    {
        type            processor;
        value           uniform -18.3082;
    }
    procBoundary1to3
    {
        type            processor;
        value           nonuniform List<scalar> 
75
(
-1.79558
-1.68877
-1.58723
-1.49078
-1.39923
-1.3124
-1.23012
-1.15221
-1.07849
-1.00879
-0.942947
-0.880796
-0.822175
-0.766927
-0.714898
-0.665941
-0.619909
-0.576662
-0.536063
-0.49798
-0.462284
-0.428853
-0.397567
-0.36831
-0.340974
-0.315451
-0.291639
-0.269441
-0.248764
-0.229518
-0.211617
-0.19498
-0.179531
-0.165194
-0.1519
-0.139582
-0.128178
-0.117626
-0.107872
-0.0988601
-0.0905413
-0.0828676
-0.075794
-0.0692786
-0.0632814
-0.0577654
-0.0526955
-0.048039
-0.0437652
-0.0398455
-0.036253
-0.0329627
-0.0299515
-0.0271974
-0.0246803
-0.0223814
-0.0202833
-0.0183696
-0.0166255
-0.015037
-0.0135912
-0.0122761
-0.0110809
-0.00999523
-0.00900982
-0.008116
-0.00730583
-0.00657198
-0.00590772
-0.00530688
-0.00476377
-0.00427319
-0.00383038
-0.00343096
-0.00307094
)
;
    }
    procBoundary1to4
    {
        type            processor;
        value           nonuniform List<scalar> 
50
(
-18.0403
-17.2915
-16.5993
-15.9545
-15.3495
-14.7781
-14.2352
-13.7165
-13.2189
-12.7396
-12.2766
-11.8281
-11.3929
-10.97
-10.5586
-10.1582
-9.76833
-9.38868
-9.019
-8.6591
-8.30887
-7.96817
-7.63694
-7.31508
-7.00254
-6.69923
-6.4051
-6.12006
-5.84403
-5.57693
-5.31865
-5.06909
-4.82814
-4.59568
-4.37158
-4.15571
-3.94792
-3.74806
-3.55598
-3.37152
-3.19452
-3.0248
-2.86218
-2.70651
-2.55758
-2.41523
-2.27927
-2.14951
-2.02576
-1.90785
)
;
    }
}


// ************************************************************************* //
