/*--------------------------------*- C++ -*----------------------------------*\
| =========                 |                                                 |
| \\      /  F ield         | OpenFOAM: The Open Source CFD Toolbox           |
|  \\    /   O peration     | Version:  2.4.0                                 |
|   \\  /    A nd           | Web:      www.OpenFOAM.org                      |
|    \\/     M anipulation  |                                                 |
\*---------------------------------------------------------------------------*/
FoamFile
{
    version     2.0;
    format      ascii;
    class       volVectorField;
    location    "0.013";
    object      U;
}
// * * * * * * * * * * * * * * * * * * * * * * * * * * * * * * * * * * * * * //

dimensions      [0 1 -1 0 0 0 0];

internalField   nonuniform List<vector> 
125
(
(0.000124904 -0.0143884 0)
(0.000123884 -0.0143891 0)
(0.000122935 -0.0143898 0)
(0.000122044 -0.0143906 0)
(0.000121198 -0.0143913 0)
(0.000120388 -0.0143921 0)
(0.000119606 -0.0143928 0)
(0.000118846 -0.0143935 0)
(0.000118102 -0.0143943 0)
(0.000117371 -0.014395 0)
(0.000116649 -0.0143957 0)
(0.000115934 -0.0143965 0)
(0.000115224 -0.0143972 0)
(0.000114518 -0.0143979 0)
(0.000113814 -0.0143986 0)
(0.000113113 -0.0143993 0)
(0.000112414 -0.0144001 0)
(0.000111715 -0.0144008 0)
(0.000111019 -0.0144015 0)
(0.000110323 -0.0144022 0)
(0.000109629 -0.0144029 0)
(0.000108936 -0.0144036 0)
(0.000108244 -0.0144043 0)
(0.000107554 -0.0144051 0)
(0.000106865 -0.0144058 0)
(0.000106179 -0.0144065 0)
(0.000105494 -0.0144072 0)
(0.00010481 -0.0144079 0)
(0.000104129 -0.0144086 0)
(0.00010345 -0.0144093 0)
(0.000102773 -0.0144099 0)
(0.000102099 -0.0144106 0)
(0.000101426 -0.0144113 0)
(0.000100757 -0.014412 0)
(0.000100089 -0.0144127 0)
(9.94246e-05 -0.0144134 0)
(9.87624e-05 -0.0144141 0)
(9.81029e-05 -0.0144148 0)
(9.7446e-05 -0.0144154 0)
(9.67919e-05 -0.0144161 0)
(9.61404e-05 -0.0144168 0)
(9.54918e-05 -0.0144175 0)
(9.48459e-05 -0.0144181 0)
(9.42028e-05 -0.0144188 0)
(9.35625e-05 -0.0144195 0)
(9.29249e-05 -0.0144201 0)
(9.22902e-05 -0.0144208 0)
(9.16583e-05 -0.0144215 0)
(9.10291e-05 -0.0144221 0)
(9.04028e-05 -0.0144228 0)
(8.97792e-05 -0.0144234 0)
(8.91583e-05 -0.0144241 0)
(8.85402e-05 -0.0144247 0)
(8.79249e-05 -0.0144254 0)
(8.73122e-05 -0.014426 0)
(8.67023e-05 -0.0144267 0)
(8.6095e-05 -0.0144273 0)
(8.54903e-05 -0.014428 0)
(8.48884e-05 -0.0144286 0)
(8.4289e-05 -0.0144292 0)
(8.36922e-05 -0.0144299 0)
(8.30981e-05 -0.0144305 0)
(8.25065e-05 -0.0144311 0)
(8.19174e-05 -0.0144318 0)
(8.13309e-05 -0.0144324 0)
(8.07469e-05 -0.014433 0)
(8.01653e-05 -0.0144336 0)
(7.95863e-05 -0.0144343 0)
(7.90097e-05 -0.0144349 0)
(7.84355e-05 -0.0144355 0)
(7.78638e-05 -0.0144361 0)
(7.72944e-05 -0.0144367 0)
(7.67275e-05 -0.0144373 0)
(7.61629e-05 -0.0144379 0)
(7.56007e-05 -0.0144385 0)
(7.50408e-05 -0.0144392 0)
(7.44832e-05 -0.0144398 0)
(7.39279e-05 -0.0144404 0)
(7.33749e-05 -0.0144409 0)
(7.28242e-05 -0.0144415 0)
(7.22758e-05 -0.0144421 0)
(7.17296e-05 -0.0144427 0)
(7.11857e-05 -0.0144433 0)
(7.0644e-05 -0.0144439 0)
(7.01045e-05 -0.0144445 0)
(6.95672e-05 -0.0144451 0)
(6.90322e-05 -0.0144456 0)
(6.84993e-05 -0.0144462 0)
(6.79686e-05 -0.0144468 0)
(6.74401e-05 -0.0144474 0)
(6.69138e-05 -0.0144479 0)
(6.63896e-05 -0.0144485 0)
(6.58676e-05 -0.0144491 0)
(6.53477e-05 -0.0144496 0)
(6.483e-05 -0.0144502 0)
(6.43145e-05 -0.0144507 0)
(6.3801e-05 -0.0144513 0)
(6.32897e-05 -0.0144519 0)
(6.27805e-05 -0.0144524 0)
(6.22734e-05 -0.014453 0)
(6.17685e-05 -0.0144535 0)
(6.12656e-05 -0.014454 0)
(6.07649e-05 -0.0144546 0)
(6.02662e-05 -0.0144551 0)
(5.97697e-05 -0.0144557 0)
(5.92752e-05 -0.0144562 0)
(5.87828e-05 -0.0144567 0)
(5.82925e-05 -0.0144573 0)
(5.78043e-05 -0.0144578 0)
(5.73181e-05 -0.0144583 0)
(5.6834e-05 -0.0144588 0)
(5.63519e-05 -0.0144594 0)
(5.58719e-05 -0.0144599 0)
(5.5394e-05 -0.0144604 0)
(5.4918e-05 -0.0144609 0)
(5.44442e-05 -0.0144614 0)
(5.39723e-05 -0.0144619 0)
(5.35025e-05 -0.0144624 0)
(5.30346e-05 -0.0144629 0)
(5.25688e-05 -0.0144634 0)
(5.2105e-05 -0.0144639 0)
(5.16431e-05 -0.0144644 0)
(5.11833e-05 -0.0144649 0)
(5.07254e-05 -0.0144654 0)
(5.02694e-05 -0.0144659 0)
)
;

boundaryField
{
    BotWall
    {
        type            fixedValue;
        value           nonuniform 0();
    }
    FreeStream
    {
        type            zeroGradient;
    }
    FrontNBack
    {
        type            empty;
    }
    LeftSide
    {
        type            symmetryPlane;
    }
    RightSide
    {
        type            symmetryPlane;
    }
    procBoundary1to0
    {
        type            processor;
        value           uniform (4.98155e-05 -0.0144664 0);
    }
    procBoundary1to2
    {
        type            processor;
        value           uniform (0.000126012 -0.0143876 0);
    }
    procBoundary1to3
    {
        type            processor;
        value           nonuniform List<vector> 
75
(
(0.000112538 -0.0146142 0)
(0.000111822 -0.0146136 0)
(0.000111109 -0.0146131 0)
(0.000110398 -0.0146125 0)
(0.000109689 -0.014612 0)
(0.000108983 -0.0146115 0)
(0.000108279 -0.0146109 0)
(0.000107577 -0.0146104 0)
(0.000106877 -0.0146099 0)
(0.00010618 -0.0146093 0)
(0.000105485 -0.0146088 0)
(0.000104792 -0.0146083 0)
(0.000104102 -0.0146077 0)
(0.000103413 -0.0146072 0)
(0.000102726 -0.0146067 0)
(0.000102042 -0.0146062 0)
(0.00010136 -0.0146057 0)
(0.000100679 -0.0146051 0)
(0.000100001 -0.0146046 0)
(9.93247e-05 -0.0146041 0)
(9.86503e-05 -0.0146036 0)
(9.79778e-05 -0.0146031 0)
(9.73073e-05 -0.0146026 0)
(9.66386e-05 -0.0146021 0)
(9.59718e-05 -0.0146016 0)
(9.53069e-05 -0.0146011 0)
(9.46438e-05 -0.0146006 0)
(9.39825e-05 -0.0146001 0)
(9.3323e-05 -0.0145996 0)
(9.26653e-05 -0.0145991 0)
(9.20093e-05 -0.0145986 0)
(9.13552e-05 -0.0145981 0)
(9.07027e-05 -0.0145977 0)
(9.0052e-05 -0.0145972 0)
(8.9403e-05 -0.0145967 0)
(8.87558e-05 -0.0145962 0)
(8.81102e-05 -0.0145957 0)
(8.74663e-05 -0.0145953 0)
(8.68241e-05 -0.0145948 0)
(8.61836e-05 -0.0145943 0)
(8.55447e-05 -0.0145939 0)
(8.49075e-05 -0.0145934 0)
(8.42719e-05 -0.0145929 0)
(8.3638e-05 -0.0145925 0)
(8.30057e-05 -0.014592 0)
(8.23751e-05 -0.0145916 0)
(8.1746e-05 -0.0145911 0)
(8.11186e-05 -0.0145907 0)
(8.04928e-05 -0.0145902 0)
(7.98686e-05 -0.0145898 0)
(7.92459e-05 -0.0145893 0)
(7.86249e-05 -0.0145889 0)
(7.80055e-05 -0.0145884 0)
(7.73876e-05 -0.014588 0)
(7.67714e-05 -0.0145875 0)
(7.61567e-05 -0.0145871 0)
(7.55435e-05 -0.0145867 0)
(7.4932e-05 -0.0145863 0)
(7.4322e-05 -0.0145858 0)
(7.37136e-05 -0.0145854 0)
(7.31067e-05 -0.014585 0)
(7.25014e-05 -0.0145846 0)
(7.18976e-05 -0.0145841 0)
(7.12953e-05 -0.0145837 0)
(7.06946e-05 -0.0145833 0)
(7.00954e-05 -0.0145829 0)
(6.94978e-05 -0.0145825 0)
(6.89016e-05 -0.0145821 0)
(6.8307e-05 -0.0145817 0)
(6.77138e-05 -0.0145813 0)
(6.71222e-05 -0.0145809 0)
(6.6532e-05 -0.0145805 0)
(6.59434e-05 -0.0145801 0)
(6.53562e-05 -0.0145797 0)
(6.47704e-05 -0.0145793 0)
)
;
    }
    procBoundary1to4
    {
        type            processor;
        value           nonuniform List<vector> 
50
(
(0.000151873 -0.0146439 0)
(0.000150735 -0.0146433 0)
(0.000149682 -0.0146426 0)
(0.000148697 -0.014642 0)
(0.000147765 -0.0146414 0)
(0.000146876 -0.0146407 0)
(0.00014602 -0.0146401 0)
(0.000145188 -0.0146395 0)
(0.000144374 -0.0146389 0)
(0.000143574 -0.0146382 0)
(0.000142783 -0.0146376 0)
(0.000141999 -0.014637 0)
(0.00014122 -0.0146364 0)
(0.000140443 -0.0146358 0)
(0.000139669 -0.0146351 0)
(0.000138895 -0.0146345 0)
(0.000138122 -0.0146339 0)
(0.00013735 -0.0146333 0)
(0.000136577 -0.0146327 0)
(0.000135805 -0.0146321 0)
(0.000135033 -0.0146315 0)
(0.000134261 -0.0146309 0)
(0.00013349 -0.0146303 0)
(0.000132719 -0.0146297 0)
(0.000131948 -0.0146291 0)
(0.000131179 -0.0146285 0)
(0.00013041 -0.0146279 0)
(0.000129643 -0.0146273 0)
(0.000128877 -0.0146267 0)
(0.000128113 -0.0146261 0)
(0.00012735 -0.0146255 0)
(0.000126588 -0.0146249 0)
(0.000125829 -0.0146244 0)
(0.000125071 -0.0146238 0)
(0.000124316 -0.0146232 0)
(0.000123562 -0.0146226 0)
(0.000122811 -0.014622 0)
(0.000122062 -0.0146215 0)
(0.000121315 -0.0146209 0)
(0.00012057 -0.0146203 0)
(0.000119828 -0.0146198 0)
(0.000119088 -0.0146192 0)
(0.000118351 -0.0146186 0)
(0.000117615 -0.0146181 0)
(0.000116883 -0.0146175 0)
(0.000116152 -0.0146169 0)
(0.000115425 -0.0146164 0)
(0.000114699 -0.0146158 0)
(0.000113976 -0.0146153 0)
(0.000113256 -0.0146147 0)
)
;
    }
}


// ************************************************************************* //
