/*--------------------------------*- C++ -*----------------------------------*\
| =========                 |                                                 |
| \\      /  F ield         | OpenFOAM: The Open Source CFD Toolbox           |
|  \\    /   O peration     | Version:  2.4.0                                 |
|   \\  /    A nd           | Web:      www.OpenFOAM.org                      |
|    \\/     M anipulation  |                                                 |
\*---------------------------------------------------------------------------*/
FoamFile
{
    version     2.0;
    format      ascii;
    class       volScalarField;
    location    "4.1";
    object      p;
}
// * * * * * * * * * * * * * * * * * * * * * * * * * * * * * * * * * * * * * //

dimensions      [1 -1 -2 0 0 0 0];

internalField   nonuniform List<scalar> 
8000
(
-1.44525
-1.42032
-1.39481
-1.37298
-1.3542
-1.3382
-1.3244
-1.3129
-1.30373
-1.29693
-1.29252
-1.29056
-1.29113
-1.29433
-1.30029
-1.30914
-1.32106
-1.33622
-1.35485
-1.37717
-1.40345
-1.43395
-1.46898
-1.5088
-1.55379
-1.60416
-1.66036
-1.72267
-1.79113
-1.8654
-1.94381
-2.02377
-2.1015
-2.16502
-2.47923
-3.71914
-6.41588
-8.25995
-9.27229
-6.52329
-4.17162
-1.94892
-0.879811
-0.722498
-0.761797
-0.74836
-0.741129
-0.741671
-0.743121
-0.743565
-1.3278
-1.32163
-1.3157
-1.312
-1.31056
-1.31149
-1.31436
-1.31925
-1.3261
-1.33493
-1.34569
-1.35841
-1.37306
-1.38965
-1.40817
-1.42866
-1.45109
-1.47552
-1.50189
-1.53034
-1.56075
-1.59331
-1.62788
-1.66474
-1.70375
-1.74518
-1.78864
-1.83351
-1.87679
-1.91066
-1.91418
-2.10181
-3.18526
-5.86373
-9.45196
-11.4621
-7.83183
-3.47048
-1.74231
-0.779496
-0.765932
-0.746101
-0.740424
-0.737071
-0.736357
-0.736838
-0.73717
-0.737536
-0.738117
-0.738824
-1.37943
-1.39752
-1.41768
-1.43629
-1.45331
-1.46915
-1.484
-1.49786
-1.51077
-1.5227
-1.53373
-1.54382
-1.55306
-1.56139
-1.56896
-1.57565
-1.58166
-1.58682
-1.59142
-1.5952
-1.59859
-1.60125
-1.60393
-1.60614
-1.60796
-1.60438
-1.58692
-1.54905
-1.62562
-2.44215
-4.72393
-9.02371
-11.773
-8.43381
-3.07351
-1.47899
-0.780334
-0.758669
-0.755776
-0.750444
-0.747936
-0.74814
-0.7484
-0.748559
-0.748792
-0.749065
-0.749321
-0.749552
-0.749759
-0.749942
-1.16648
-1.21037
-1.25613
-1.29527
-1.32806
-1.35557
-1.3782
-1.3959
-1.40864
-1.41634
-1.41898
-1.41645
-1.40871
-1.39559
-1.37703
-1.35278
-1.32278
-1.28669
-1.24444
-1.19577
-1.1408
-1.07897
-1.00798
-0.920393
-0.808736
-0.709619
-1.01668
-2.59324
-7.36598
-11.7336
-8.22304
-2.46618
-1.69291
-0.821337
-0.777314
-0.772667
-0.77049
-0.769933
-0.77009
-0.77017
-0.770198
-0.770196
-0.770156
-0.770091
-0.769997
-0.769875
-0.769725
-0.769545
-0.769331
-0.769081
-1.78759
-1.82968
-1.8727
-1.90988
-1.94192
-1.96987
-1.99395
-2.01414
-2.03033
-2.04249
-2.05051
-2.05437
-2.05394
-2.04915
-2.03983
-2.0259
-2.00713
-1.98375
-1.95623
-1.92456
-1.8817
-1.8072
-1.69332
-1.70107
-2.56267
-5.04029
-9.37377
-10.1933
-4.23999
-1.92988
-0.802844
-0.822806
-0.798468
-0.80013
-0.800953
-0.8011
-0.800777
-0.800711
-0.800525
-0.80031
-0.800061
-0.799762
-0.799437
-0.798954
-0.798745
-0.798363
-0.797875
-0.797373
-0.796794
-0.796165
-4.33709
-4.37957
-4.42978
-4.47896
-4.52647
-4.57322
-4.61959
-4.66567
-4.71145
-4.75699
-4.80229
-4.84745
-4.89242
-4.93728
-4.98192
-5.02688
-5.07308
-5.12116
-5.16277
-5.17162
-5.13494
-5.23991
-6.13266
-8.33292
-9.54241
-6.89608
-1.03136
-0.666708
-0.886643
-0.841437
-0.832306
-0.833437
-0.834086
-0.834197
-0.834277
-0.834335
-0.834368
-0.834362
-0.83422
-0.834113
-0.833957
-0.833708
-0.833405
-0.83292
-0.832692
-0.832203
-0.831641
-0.831005
-0.830292
-0.829501
-4.56072
-4.61372
-4.66923
-4.72138
-4.77183
-4.82198
-4.87218
-4.92248
-4.97292
-5.02358
-5.0745
-5.12571
-5.17723
-5.22927
-5.28236
-5.33672
-5.38813
-5.42256
-5.4321
-5.51405
-6.03053
-7.26792
-8.36176
-5.19482
-1.14667
-0.836066
-0.87584
-0.862783
-0.866229
-0.86869
-0.868849
-0.869176
-0.869638
-0.870004
-0.870763
-0.87124
-0.871663
-0.872001
-0.872301
-0.872501
-0.872681
-0.872768
-0.872777
-0.87269
-0.872508
-0.872224
-0.871833
-0.871332
-0.870715
-0.86998
-8.06663
-8.07515
-8.0921
-8.11558
-8.14474
-8.17958
-8.2203
-8.267
-8.31983
-8.37876
-8.44385
-8.51511
-8.59375
-8.68221
-8.7798
-8.86128
-8.86112
-8.80342
-9.33602
-12.1501
-16.5129
-5.82083
-1.26385
-0.869183
-0.885612
-0.892129
-0.895439
-0.897625
-0.897792
-0.898486
-0.899275
-0.900122
-0.901002
-0.901885
-0.902755
-0.903591
-0.904384
-0.905123
-0.905801
-0.906416
-0.906962
-0.907432
-0.907808
-0.907991
-0.908367
-0.908486
-0.908505
-0.908419
-0.908229
-0.907935
-7.75162
-7.70287
-7.65445
-7.62142
-7.60493
-7.60346
-7.6165
-7.64392
-7.68599
-7.74269
-7.81439
-7.90126
-8.00474
-8.12425
-8.25634
-8.38944
-8.53159
-8.80026
-9.48472
-10.3684
-8.28211
-2.50264
-0.955499
-0.902738
-0.908881
-0.917428
-0.919737
-0.91829
-0.921582
-0.921615
-0.922787
-0.923344
-0.923875
-0.9243
-0.924692
-0.92509
-0.925504
-0.925937
-0.926384
-0.926845
-0.927323
-0.927826
-0.928368
-0.928945
-0.929542
-0.930159
-0.930795
-0.931448
-0.932122
-0.93282
-8.57784
-8.4751
-8.37699
-8.29988
-8.24095
-8.1972
-8.16771
-8.15255
-8.15164
-8.16513
-8.19288
-8.23516
-8.29153
-8.36337
-8.45158
-8.55551
-8.66128
-8.74172
-8.83109
-9.2827
-10.8441
-12.5764
-11.7343
-2.88349
-0.844473
-0.996825
-0.955832
-0.951188
-0.952192
-0.95202
-0.952063
-0.952006
-0.951631
-0.951104
-0.950613
-0.950178
-0.949809
-0.949526
-0.949346
-0.949277
-0.94933
-0.949506
-0.949805
-0.950244
-0.950841
-0.95161
-0.952565
-0.953718
-0.955076
-0.956642
-1.30975
-1.30531
-1.29108
-1.26938
-1.24161
-1.20807
-1.16847
-1.12278
-1.07065
-1.01212
-0.946668
-0.874346
-0.794401
-0.706893
-0.610969
-0.507755
-0.396695
-0.274994
-0.121706
0.0888008
0.27878
-0.0393225
-2.16927
-5.19801
-13.9846
-6.2633
-6.87132
-1.29765
-1.04648
-0.967261
-0.959441
-0.970909
-0.971862
-0.971771
-0.971357
-0.970955
-0.970543
-0.970185
-0.969936
-0.969776
-0.969685
-0.969731
-0.969951
-0.970389
-0.971101
-0.97209
-0.973395
-0.975028
-0.976985
-0.979255
0.737864
0.714783
0.69544
0.686857
0.689002
0.701047
0.722652
0.753865
0.794739
0.845448
0.906098
0.976969
1.05824
1.15034
1.25352
1.36831
1.49498
1.63401
1.78638
1.95492
2.14368
2.34791
2.52761
2.59479
1.72716
-0.810749
-1.53732
-12.5677
-13.0417
-2.8039
-3.63853
-1.17354
-0.998538
-0.999271
-1.00298
-0.997779
-0.996624
-0.998383
-0.998121
-0.998149
-0.99797
-0.99784
-0.997855
-0.998092
-0.998594
-0.999397
-1.00052
-1.00198
-1.00377
-1.00587
1.50335
1.51104
1.51922
1.52866
1.54005
1.55354
1.56908
1.58662
1.60614
1.6276
1.65096
1.67618
1.70319
1.73193
1.76233
1.79431
1.82777
1.86261
1.89863
1.93563
1.97347
2.01317
2.05709
2.10647
2.15187
2.16189
2.17118
1.69365
0.234938
-1.76671
-5.72606
-10.5705
-10.8573
-3.17637
-1.38063
-0.895243
-1.01246
-0.993018
-1.00915
-1.02888
-1.02718
-1.02752
-1.02754
-1.02734
-1.02716
-1.02717
-1.02742
-1.02794
-1.02872
-1.02977
3.56609
3.55179
3.54089
3.53527
3.53418
3.53711
3.54402
3.55487
3.56972
3.58851
3.61128
3.63791
3.66848
3.70283
3.74106
3.78293
3.8286
3.87772
3.93053
3.98649
4.04598
4.10819
4.17366
4.24145
4.31356
4.39012
4.47662
4.57425
4.6602
4.70091
4.70802
4.36622
3.64942
-0.752103
-7.62089
-8.80779
-5.15278
-2.9529
-1.02299
-1.0812
-1.05201
-1.03907
-1.03618
-1.03642
-1.03707
-1.0374
-1.03745
-1.03755
-1.03776
-1.03817
3.01313
3.00915
3.00375
2.99956
2.99723
2.99668
2.99778
3.00049
3.00479
3.01065
3.01805
3.02696
3.03735
3.04918
3.06243
3.07705
3.09303
3.1103
3.12887
3.14866
3.16971
3.1919
3.21535
3.23988
3.26569
3.2925
3.32082
3.35101
3.38523
3.42448
3.46793
3.50013
3.50915
3.51286
3.45896
3.15958
0.20599
-2.87592
-7.6568
-6.11226
-2.92887
-1.2445
-1.12231
-1.06919
-1.04686
-1.04134
-1.04195
-1.04263
-1.04281
-1.04283
3.99388
3.98834
3.98451
3.98236
3.98132
3.98119
3.98198
3.98371
3.98639
3.99003
3.99462
4.00016
4.00664
4.01405
4.02237
4.0316
4.04169
4.05263
4.06437
4.0769
4.09015
4.1041
4.11865
4.13379
4.14937
4.1654
4.18167
4.19817
4.21465
4.23108
4.24726
4.26351
4.2803
4.29948
4.31931
4.33534
4.33598
4.36685
4.28414
2.3502
-1.60221
-5.97135
-3.87001
-2.08459
-1.28909
-1.19092
-1.08361
-1.04482
-1.04665
-1.04658
3.34162
3.33101
3.31867
3.30814
3.29989
3.29366
3.28927
3.28667
3.28586
3.28682
3.28956
3.29407
3.30035
3.30843
3.31831
3.33
3.34353
3.3589
3.37616
3.39531
3.41639
3.43942
3.46443
3.49145
3.52051
3.55165
3.58491
3.6203
3.6579
3.69772
3.73983
3.78425
3.83106
3.88029
3.93236
3.98796
4.04749
4.10844
4.1636
4.21149
4.32214
4.38689
1.93132
-2.58377
-3.41436
-2.13675
-1.2957
-1.16129
-1.11298
-1.05639
3.91516
3.91502
3.91631
3.9161
3.91381
3.90996
3.90509
3.89964
3.89394
3.8883
3.88297
3.87822
3.87427
3.87132
3.86955
3.86913
3.87022
3.87296
3.87747
3.88389
3.8923
3.90283
3.91556
3.9306
3.94801
3.96789
3.99031
4.01535
4.04309
4.0736
4.10695
4.14323
4.18249
4.22484
4.2703
4.31901
4.371
4.42668
4.48663
4.55005
4.61004
4.65899
4.7302
4.79178
4.10182
0.962485
-0.726537
-0.926207
-0.98079
-1.07135
2.24349
2.28657
2.32337
2.34881
2.36613
2.37792
2.38547
2.38957
2.39095
2.39025
2.38804
2.38482
2.38099
2.37694
2.37295
2.36931
2.36625
2.36394
2.36256
2.36224
2.36309
2.3652
2.36864
2.37346
2.3797
2.38737
2.39648
2.40701
2.41895
2.43226
2.44688
2.46276
2.47981
2.49794
2.51706
2.53702
2.55768
2.57888
2.60044
2.62227
2.64442
2.66656
2.68485
2.69189
2.69999
2.69432
2.02557
0.702673
-0.0129663
-0.418929
6.28375
5.87943
5.47325
5.12344
4.81847
4.54416
4.29458
4.06715
3.85988
3.67084
3.49828
3.34072
3.19689
3.06573
2.9463
2.83781
2.73954
2.6509
2.57134
2.5004
2.43764
2.38269
2.33521
2.2949
2.26148
2.2347
2.21434
2.20019
2.19208
2.18985
2.19337
2.20253
2.21725
2.2375
2.26326
2.29457
2.33153
2.37428
2.42305
2.47814
2.54001
2.60923
2.68653
2.77276
2.86522
2.96656
3.56199
3.66866
3.64994
1.63204
-0.743981
-0.744774
-0.745896
-0.747191
-0.74855
-0.749894
-0.751211
-0.75251
-0.753792
-0.755055
-0.756303
-0.757534
-0.758747
-0.759941
-0.761118
-0.762258
-0.763403
-0.764521
-0.765617
-0.766695
-0.767754
-0.768797
-0.769806
-0.770809
-0.771793
-0.772732
-0.773535
-0.774448
-0.775371
-0.776259
-0.777232
-0.778056
-0.778864
-0.779927
-0.780765
-0.781602
-0.782427
-0.783237
-0.784067
-0.784952
-0.784679
-0.785589
-0.784968
-0.785926
-0.786801
-0.785885
-0.787986
-0.788459
-0.789039
-0.789679
-0.739574
-0.740327
-0.741058
-0.741765
-0.74245
-0.743099
-0.74371
-0.744319
-0.744872
-0.745392
-0.745869
-0.746307
-0.746702
-0.746967
-0.747369
-0.747616
-0.747813
-0.747958
-0.748052
-0.74809
-0.748075
-0.748004
-0.747879
-0.747701
-0.747475
-0.747021
-0.746683
-0.746288
-0.745779
-0.745276
-0.744746
-0.743966
-0.743344
-0.74265
-0.741901
-0.741126
-0.740311
-0.739403
-0.738495
-0.737598
-0.736491
-0.735573
-0.734505
-0.733536
-0.732394
-0.73129
-0.730272
-0.7292
-0.727936
-0.727668
-0.750098
-0.750223
-0.750319
-0.750387
-0.750423
-0.750414
-0.750262
-0.75032
-0.7502
-0.750003
-0.749791
-0.7495
-0.749145
-0.748566
-0.748255
-0.747697
-0.747071
-0.746375
-0.745613
-0.744779
-0.743874
-0.742896
-0.741848
-0.740728
-0.739537
-0.738276
-0.736949
-0.735504
-0.73408
-0.732467
-0.730929
-0.72927
-0.727488
-0.725965
-0.724107
-0.722299
-0.720401
-0.718449
-0.716496
-0.714469
-0.712418
-0.710341
-0.708241
-0.706126
-0.704
-0.701654
-0.699709
-0.697555
-0.695429
-0.693257
-0.768796
-0.768346
-0.768139
-0.767736
-0.767259
-0.76674
-0.766015
-0.765543
-0.76485
-0.764092
-0.76327
-0.762383
-0.761424
-0.76023
-0.759305
-0.758132
-0.75688
-0.755554
-0.754146
-0.752673
-0.751123
-0.749499
-0.747803
-0.746037
-0.744202
-0.742298
-0.740338
-0.73831
-0.736223
-0.734092
-0.731794
-0.729661
-0.72743
-0.72512
-0.722756
-0.720281
-0.717901
-0.715397
-0.712926
-0.710434
-0.707888
-0.705417
-0.702818
-0.700358
-0.697776
-0.695222
-0.692659
-0.690091
-0.687552
-0.684941
-0.795473
-0.794582
-0.793951
-0.793094
-0.792172
-0.791192
-0.790134
-0.788946
-0.787834
-0.786578
-0.785248
-0.783846
-0.782378
-0.780837
-0.779226
-0.777551
-0.775786
-0.773993
-0.772127
-0.770192
-0.7682
-0.76616
-0.764062
-0.761914
-0.759719
-0.757481
-0.755204
-0.752852
-0.750528
-0.748159
-0.745752
-0.743317
-0.740866
-0.738426
-0.735958
-0.733426
-0.731029
-0.728465
-0.725953
-0.723461
-0.720952
-0.718859
-0.716401
-0.713954
-0.711546
-0.70917
-0.706488
-0.704631
-0.702202
-0.700003
-0.828624
-0.82766
-0.826612
-0.825488
-0.82427
-0.822966
-0.821579
-0.820111
-0.818568
-0.816952
-0.815269
-0.813524
-0.811722
-0.809872
-0.807974
-0.806034
-0.804052
-0.802011
-0.799946
-0.79818
-0.796117
-0.794038
-0.791946
-0.789848
-0.787748
-0.785645
-0.783541
-0.781436
-0.77932
-0.777019
-0.77494
-0.772851
-0.770747
-0.768652
-0.766564
-0.764489
-0.762424
-0.760369
-0.758328
-0.756304
-0.754292
-0.752266
-0.75034
-0.748347
-0.746275
-0.744387
-0.742483
-0.740561
-0.7387
-0.736847
-0.869128
-0.868158
-0.867075
-0.865883
-0.864592
-0.863209
-0.861749
-0.860214
-0.858644
-0.857027
-0.85538
-0.853717
-0.85205
-0.850387
-0.848739
-0.84711
-0.845504
-0.843914
-0.842331
-0.840165
-0.839148
-0.837736
-0.836324
-0.83492
-0.833536
-0.832174
-0.830829
-0.829496
-0.828174
-0.826857
-0.825529
-0.824146
-0.82281
-0.821623
-0.820291
-0.818931
-0.817555
-0.816162
-0.814751
-0.813322
-0.811874
-0.81041
-0.808927
-0.806805
-0.805293
-0.804003
-0.802375
-0.800753
-0.799163
-0.797515
-0.907542
-0.907058
-0.906493
-0.905862
-0.90518
-0.904464
-0.903731
-0.902993
-0.902006
-0.901531
-0.900893
-0.900292
-0.899742
-0.89925
-0.898818
-0.898445
-0.898129
-0.897859
-0.89762
-0.896741
-0.896614
-0.89655
-0.896462
-0.896365
-0.896259
-0.896144
-0.896011
-0.895851
-0.895658
-0.895428
-0.895144
-0.89476
-0.894386
-0.894003
-0.89349
-0.892883
-0.892203
-0.891452
-0.890616
-0.889693
-0.888692
-0.887632
-0.886489
-0.885111
-0.883784
-0.882463
-0.880911
-0.879164
-0.877523
-0.875881
-0.933547
-0.93431
-0.935119
-0.935978
-0.936895
-0.937872
-0.938918
-0.940029
-0.941193
-0.942023
-0.943811
-0.945178
-0.946574
-0.94801
-0.949474
-0.950954
-0.952442
-0.953933
-0.955399
-0.956834
-0.958625
-0.960013
-0.961347
-0.962622
-0.963831
-0.964959
-0.966006
-0.966955
-0.967683
-0.968411
-0.969292
-0.969776
-0.970035
-0.970294
-0.969818
-0.970071
-0.969904
-0.969535
-0.969238
-0.968639
-0.967832
-0.966923
-0.965924
-0.964726
-0.963085
-0.961652
-0.960142
-0.958251
-0.956401
-0.954845
-0.958409
-0.960377
-0.962453
-0.964808
-0.967306
-0.969935
-0.972659
-0.975476
-0.978368
-0.981299
-0.98412
-0.987584
-0.990122
-0.993142
-0.996139
-0.998945
-1.00183
-1.00429
-1.00704
-1.00871
-1.01149
-1.01392
-1.01589
-1.01812
-1.02031
-1.02224
-1.024
-1.02563
-1.0271
-1.0284
-1.02954
-1.03052
-1.03135
-1.032
-1.03244
-1.03273
-1.03281
-1.03214
-1.03199
-1.03158
-1.03039
-1.02959
-1.02864
-1.02748
-1.02618
-1.02503
-1.0234
-1.02152
-1.02038
-1.01831
-0.981822
-0.984645
-0.987693
-0.990929
-0.994301
-0.997797
-1.00152
-1.00487
-1.00863
-1.01232
-1.0154
-1.01908
-1.02265
-1.02577
-1.02966
-1.03307
-1.03629
-1.03942
-1.0424
-1.04517
-1.04859
-1.05085
-1.05349
-1.05583
-1.058
-1.05971
-1.06228
-1.06392
-1.06548
-1.0671
-1.06764
-1.06859
-1.0694
-1.0699
-1.07053
-1.0708
-1.07087
-1.07162
-1.07099
-1.07068
-1.07013
-1.06877
-1.06815
-1.06708
-1.06564
-1.06462
-1.06292
-1.06116
-1.06003
-1.05788
-1.00824
-1.01084
-1.0136
-1.01655
-1.01984
-1.02282
-1.02607
-1.02932
-1.03258
-1.03583
-1.03889
-1.04237
-1.04548
-1.0484
-1.0515
-1.05441
-1.05705
-1.05975
-1.06251
-1.06496
-1.0672
-1.06987
-1.07199
-1.0732
-1.07672
-1.07832
-1.07994
-1.08137
-1.08209
-1.08319
-1.08413
-1.08487
-1.08548
-1.08619
-1.08652
-1.08654
-1.08688
-1.08672
-1.08644
-1.0868
-1.08604
-1.0862
-1.08513
-1.08464
-1.08268
-1.08165
-1.08041
-1.07905
-1.0776
-1.07634
-1.03105
-1.03206
-1.03373
-1.03554
-1.03736
-1.03953
-1.04167
-1.04361
-1.04582
-1.04857
-1.05079
-1.05301
-1.0555
-1.05769
-1.05959
-1.06171
-1.06375
-1.06572
-1.06762
-1.06946
-1.07122
-1.07291
-1.0745
-1.07525
-1.0782
-1.07937
-1.08138
-1.08242
-1.08408
-1.08445
-1.08517
-1.08578
-1.08624
-1.08658
-1.08699
-1.08712
-1.08712
-1.08705
-1.08701
-1.08673
-1.08603
-1.08664
-1.08609
-1.08645
-1.08531
-1.085
-1.08344
-1.08274
-1.08109
-1.08031
-1.03876
-1.0395
-1.04014
-1.04124
-1.04241
-1.04381
-1.04491
-1.04613
-1.04862
-1.04975
-1.05136
-1.05298
-1.05409
-1.05579
-1.05732
-1.05883
-1.06034
-1.06182
-1.06325
-1.06465
-1.06601
-1.06731
-1.06844
-1.06962
-1.07075
-1.07177
-1.07272
-1.07364
-1.0745
-1.07528
-1.07599
-1.07592
-1.07649
-1.07703
-1.07744
-1.07779
-1.07807
-1.07828
-1.07793
-1.07801
-1.07804
-1.07769
-1.07765
-1.07752
-1.07727
-1.07637
-1.07778
-1.07745
-1.07712
-1.07786
-1.04285
-1.04297
-1.04302
-1.0436
-1.04404
-1.04484
-1.04552
-1.04553
-1.04792
-1.04863
-1.04989
-1.05068
-1.05142
-1.05345
-1.05447
-1.05552
-1.05656
-1.05761
-1.05865
-1.05964
-1.06052
-1.06165
-1.06254
-1.06337
-1.06423
-1.06504
-1.06582
-1.06657
-1.06728
-1.06772
-1.06842
-1.06896
-1.06946
-1.06997
-1.07045
-1.07088
-1.07135
-1.07172
-1.07208
-1.07291
-1.07329
-1.07366
-1.07406
-1.07442
-1.07303
-1.07395
-1.0744
-1.07484
-1.0753
-1.07579
-1.04696
-1.04716
-1.04734
-1.04754
-1.04779
-1.04824
-1.04882
-1.04866
-1.05039
-1.05095
-1.05195
-1.05292
-1.05339
-1.05576
-1.05681
-1.0579
-1.05902
-1.06015
-1.0613
-1.06155
-1.06263
-1.06389
-1.06486
-1.0658
-1.06671
-1.06761
-1.06846
-1.06927
-1.07006
-1.07082
-1.07153
-1.0722
-1.07283
-1.07343
-1.07402
-1.07463
-1.07525
-1.07588
-1.0765
-1.07712
-1.07776
-1.07841
-1.07903
-1.07865
-1.07936
-1.08026
-1.08109
-1.08192
-1.08276
-1.08365
-1.05997
-1.05921
-1.05963
-1.06008
-1.06042
-1.06084
-1.06135
-1.06196
-1.06238
-1.06339
-1.06405
-1.06519
-1.06555
-1.06748
-1.06852
-1.06961
-1.07072
-1.07185
-1.073
-1.07418
-1.07536
-1.07647
-1.07785
-1.07891
-1.07992
-1.08093
-1.08182
-1.08275
-1.08364
-1.08447
-1.08521
-1.08596
-1.08788
-1.08871
-1.08935
-1.09006
-1.09082
-1.09112
-1.09181
-1.0925
-1.0932
-1.09392
-1.0948
-1.09552
-1.09625
-1.09706
-1.09835
-1.09939
-1.10043
-1.10149
-1.09142
-1.08521
-1.0845
-1.08482
-1.08527
-1.08567
-1.08609
-1.08657
-1.08712
-1.08772
-1.08838
-1.08908
-1.09004
-1.0907
-1.09177
-1.09256
-1.09338
-1.09422
-1.09506
-1.09591
-1.0968
-1.09773
-1.09861
-1.09948
-1.10088
-1.10174
-1.10256
-1.10344
-1.10431
-1.1052
-1.1061
-1.107
-1.10798
-1.10887
-1.10965
-1.11046
-1.11241
-1.1133
-1.11413
-1.11496
-1.1158
-1.11666
-1.11752
-1.1184
-1.1193
-1.12023
-1.12081
-1.12172
-1.12339
-1.12428
-1.03671
-1.12187
-1.12402
-1.12413
-1.12423
-1.12437
-1.12456
-1.1248
-1.12506
-1.1254
-1.12575
-1.12613
-1.12652
-1.12694
-1.12738
-1.12785
-1.12833
-1.12869
-1.12933
-1.12986
-1.1304
-1.13095
-1.13149
-1.13204
-1.13256
-1.13314
-1.13368
-1.13377
-1.13427
-1.13473
-1.13516
-1.13561
-1.13606
-1.13652
-1.137
-1.1375
-1.13809
-1.13862
-1.13864
-1.13923
-1.13986
-1.14052
-1.14121
-1.14195
-1.14273
-1.14354
-1.14434
-1.14523
-1.14617
-1.14706
-0.933859
-1.13926
-1.15129
-1.15196
-1.15177
-1.15153
-1.15136
-1.15129
-1.15124
-1.15139
-1.15164
-1.15192
-1.15224
-1.15261
-1.153
-1.1534
-1.15381
-1.1542
-1.15459
-1.15496
-1.15533
-1.1557
-1.15607
-1.15645
-1.15684
-1.15723
-1.15764
-1.15806
-1.15849
-1.15894
-1.15941
-1.15989
-1.16026
-1.16085
-1.16142
-1.16203
-1.16227
-1.16328
-1.16391
-1.16458
-1.1653
-1.16605
-1.16685
-1.16769
-1.16857
-1.1695
-1.17014
-1.17119
-1.17236
-1.17317
-0.79018
-0.7905
-0.790884
-0.791657
-0.792376
-0.791029
-0.792202
-0.792275
-0.790432
-0.790768
-0.791695
-0.787403
-0.7884
-0.794117
-0.794112
-0.794475
-0.795402
-0.796708
-0.794874
-0.790982
-0.802373
-0.80173
-0.809124
-0.811475
-0.813833
-0.815131
-0.815599
-0.815855
-0.815045
-0.815209
-0.816041
-0.816817
-0.817838
-0.819514
-0.820919
-0.822167
-0.828606
-0.828024
-0.827049
-0.827942
-0.82905
-0.829723
-0.830223
-0.832158
-0.834368
-0.836163
-0.836534
-0.83661
-0.835853
-0.834848
-0.833283
-0.835387
-0.835636
-0.836048
-0.83636
-0.836512
-0.835931
-0.834479
-0.83235
-0.831736
-0.831429
-0.831598
-0.83212
-0.83341
-0.83512
-0.837407
-0.839285
-0.835434
-0.83967
-0.838909
-0.826482
-0.848143
-0.822697
-0.82199
-0.821485
-0.820107
-0.819748
-0.819402
-0.819534
-0.818614
-0.814078
-0.824669
-0.823552
-0.822978
-0.824048
-0.823377
-0.822097
-0.821471
-0.819745
-0.818331
-0.817154
-0.815879
-0.814462
-0.81304
-0.81173
-0.810322
-0.808932
-0.806988
-0.804333
-0.801116
-0.803727
-0.801729
-0.799521
-0.796893
-0.794156
-0.791407
-0.788657
-0.785899
-0.78289
-0.779188
-0.770407
-0.776318
-0.773685
-0.770841
-0.767866
-0.764934
-0.762088
-0.759341
-0.756695
-0.754112
-0.751294
-0.748949
-0.747251
-0.745208
-0.743308
-0.7416
-0.740088
-0.738781
-0.737692
-0.736817
-0.736211
-0.735837
-0.735719
-0.735868
-0.736291
-0.736998
-0.737994
-0.739286
-0.740879
-0.742777
-0.74499
-0.747515
-0.75035
-0.753496
-0.75696
-0.760747
-0.764859
-0.769296
-0.774059
-0.779147
-0.784557
-0.790284
-0.796326
-0.802676
-0.809326
-0.816273
-0.823521
-0.831035
-0.838813
-0.84685
-0.855135
-0.863654
-0.872397
-0.881354
-0.890509
-0.899847
-0.909354
-0.919026
-0.928853
-0.938823
-0.948925
-0.959141
-0.969489
-0.979927
-0.990458
-1.00108
-1.01177
-1.02254
-1.03338
-1.04426
-1.05519
-1.06618
-1.07721
-1.08828
-1.0994
-1.11059
-1.1218
-1.13307
-1.14437
-1.15572
-1.1671
-1.17853
-1.18999
-1.20149
-1.21301
-1.22459
-1.23621
-1.24786
-1.25957
-1.27131
-1.28311
-1.29494
-1.30681
-1.31872
-1.33066
-1.34263
-1.35465
-1.36673
-1.37882
-1.39095
-1.40312
-1.41529
-1.42752
-1.43973
-1.45199
-1.46427
-1.47645
-1.48883
-1.50132
-1.51371
-1.52615
-1.53865
-1.55117
-1.56374
-1.57592
-1.58846
-1.60048
-1.61307
-1.6255
-1.63795
-1.65095
-1.66313
-1.67606
-1.68507
-1.69935
-1.71175
-1.72393
-1.73638
-1.74909
-1.7618
-1.77456
-1.78474
-1.79682
-1.80862
-1.81994
-1.83163
-1.84549
-1.85856
-1.86766
-1.87914
-1.88924
-1.89842
-1.91014
-1.92266
-1.93448
-1.94583
-1.95639
-1.96598
-1.97605
-1.98423
-2.00021
-2.00929
-2.02105
-2.02916
-2.04035
-2.04611
-2.05713
-2.06766
-2.07608
-2.08738
-2.09296
-2.10873
-2.11458
-2.12702
-2.13809
-2.14727
-2.15806
-2.16863
-2.17687
-2.18698
-2.19614
-2.2047
-2.21394
-2.21999
-2.22676
-2.23713
-2.23819
-2.24672
-2.25112
-2.2547
-2.25813
-2.26303
-2.25893
-2.26396
-2.26576
-2.2656
-2.26517
-2.26463
-2.26405
-2.26327
-0.726622
-0.725907
-0.72519
-0.72448
-0.723852
-0.72334
-0.717379
-0.716904
-0.716035
-0.715056
-0.714178
-0.713394
-0.712611
-0.711815
-0.711
-0.710161
-0.709315
-0.708549
-0.707892
-0.700441
-0.70735
-0.706068
-0.704933
-0.704153
-0.703843
-0.702546
-0.689721
-0.714516
-0.712967
-0.711861
-0.710886
-0.710149
-0.709741
-0.707617
-0.693851
-0.725291
-0.722481
-0.721742
-0.721496
-0.721468
-0.716557
-0.717222
-0.715493
-0.714152
-0.713611
-0.713619
-0.714109
-0.714828
-0.715063
-0.696515
-0.695698
-0.69672
-0.695681
-0.694282
-0.694314
-0.694133
-0.693106
-0.686204
-0.685531
-0.684708
-0.683767
-0.682241
-0.681114
-0.679997
-0.678882
-0.678135
-0.676838
-0.674469
-0.654748
-0.693678
-0.692963
-0.691056
-0.690271
-0.688636
-0.686512
-0.684089
-0.682407
-0.68354
-0.682962
-0.682332
-0.681563
-0.680778
-0.679926
-0.679011
-0.673516
-0.678602
-0.678107
-0.677257
-0.677029
-0.677457
-0.677086
-0.676052
-0.675615
-0.676141
-0.675695
-0.675286
-0.674666
-0.674324
-0.674186
-0.673904
-0.673321
-0.671258
-0.670432
-0.669543
-0.668697
-0.667743
-0.666628
-0.665412
-0.6642
-0.662992
-0.661713
-0.660082
-0.658439
-0.657642
-0.656208
-0.654761
-0.653303
-0.651858
-0.650423
-0.648991
-0.647662
-0.646272
-0.645231
-0.644134
-0.643164
-0.642338
-0.641659
-0.641137
-0.640784
-0.64061
-0.640637
-0.640853
-0.64126
-0.641874
-0.642714
-0.643783
-0.645075
-0.646596
-0.648385
-0.650638
-0.653031
-0.655679
-0.658608
-0.661839
-0.665378
-0.66921
-0.673322
-0.677755
-0.682525
-0.687628
-0.693056
-0.698793
-0.7049
-0.711311
-0.718041
-0.725084
-0.732435
-0.740008
-0.747994
-0.756238
-0.764718
-0.773453
-0.78248
-0.791786
-0.801339
-0.811021
-0.821202
-0.831556
-0.842117
-0.852882
-0.863852
-0.875023
-0.886371
-0.897911
-0.909599
-0.92144
-0.933422
-0.945488
-0.957581
-0.969422
-0.98245
-0.995012
-1.00763
-1.02032
-1.03312
-1.04598
-1.05888
-1.07182
-1.08478
-1.0978
-1.11092
-1.12412
-1.13739
-1.15069
-1.16407
-1.17749
-1.19094
-1.20441
-1.21792
-1.23143
-1.24488
-1.25843
-1.27218
-1.28569
-1.29921
-1.31275
-1.3263
-1.33986
-1.35344
-1.36687
-1.3804
-1.39393
-1.40732
-1.4207
-1.43409
-1.44747
-1.46086
-1.47426
-1.48733
-1.50087
-1.51421
-1.52753
-1.54082
-1.55407
-1.56732
-1.58013
-1.59346
-1.60663
-1.61977
-1.63287
-1.64592
-1.65893
-1.67195
-1.68289
-1.69705
-1.70993
-1.7227
-1.73548
-1.74826
-1.76102
-1.77375
-1.78654
-1.79501
-1.80909
-1.8218
-1.83343
-1.84525
-1.85848
-1.8694
-1.88189
-1.89913
-1.9094
-1.92033
-1.93179
-1.94347
-1.95548
-1.9682
-1.98023
-1.99135
-2.00541
-2.01515
-2.0258
-2.04002
-2.05111
-2.06278
-2.07619
-2.08002
-2.09532
-2.10761
-2.11888
-2.13023
-2.14161
-2.14747
-2.17037
-2.1768
-2.1944
-2.20445
-2.21575
-2.23464
-2.24404
-2.25532
-2.26572
-2.27358
-2.2832
-2.29292
-2.30052
-2.30831
-2.3157
-2.32095
-2.32539
-2.33131
-2.33541
-2.33545
-2.3422
-2.34303
-2.34272
-2.34176
-2.34042
-2.33856
-2.33214
-0.691387
-0.690185
-0.688968
-0.68739
-0.686172
-0.684846
-0.683515
-0.682274
-0.681228
-0.680015
-0.678115
-0.676968
-0.675643
-0.674348
-0.673095
-0.671858
-0.670628
-0.669408
-0.668232
-0.667137
-0.666017
-0.664784
-0.666288
-0.664884
-0.663595
-0.662408
-0.661233
-0.660134
-0.659191
-0.658089
-0.656895
-0.656503
-0.655191
-0.653549
-0.65257
-0.652308
-0.651589
-0.647456
-0.64631
-0.645352
-0.643782
-0.642402
-0.641407
-0.640963
-0.640212
-0.639374
-0.63819
-0.639034
-0.637352
-0.63366
-0.633718
-0.6342
-0.633404
-0.632129
-0.63062
-0.629419
-0.628395
-0.626846
-0.626133
-0.626117
-0.625541
-0.624314
-0.623132
-0.621982
-0.621103
-0.620498
-0.616578
-0.615991
-0.618484
-0.61836
-0.617312
-0.616138
-0.615005
-0.614041
-0.613604
-0.613413
-0.611655
-0.609907
-0.611668
-0.610392
-0.608751
-0.607305
-0.606354
-0.605668
-0.605971
-0.605833
-0.605249
-0.603956
-0.60327
-0.602591
-0.601445
-0.59765
-0.60463
-0.603981
-0.603826
-0.601024
-0.602339
-0.60177
-0.601202
-0.600631
-0.600082
-0.599505
-0.598338
-0.597981
-0.596994
-0.596485
-0.595279
-0.594537
-0.593725
-0.592882
-0.592007
-0.591074
-0.590178
-0.589223
-0.588269
-0.58722
-0.586061
-0.584718
-0.58308
-0.585291
-0.584143
-0.583174
-0.582269
-0.581286
-0.580642
-0.580346
-0.580003
-0.579797
-0.579754
-0.579883
-0.580161
-0.580189
-0.581
-0.581952
-0.583063
-0.584365
-0.585886
-0.587636
-0.589608
-0.591571
-0.594086
-0.596769
-0.59965
-0.602936
-0.606389
-0.609381
-0.613655
-0.618339
-0.623072
-0.628053
-0.633367
-0.639028
-0.645047
-0.651368
-0.658
-0.66495
-0.672223
-0.679692
-0.687206
-0.694218
-0.702587
-0.713296
-0.722583
-0.731922
-0.741539
-0.751594
-0.761526
-0.77168
-0.782892
-0.794101
-0.805502
-0.817168
-0.829092
-0.841261
-0.853666
-0.866291
-0.879044
-0.891951
-0.904665
-0.918401
-0.931917
-0.945405
-0.959044
-0.972861
-0.986824
-1.00081
-1.01462
-1.02714
-1.04137
-1.05761
-1.07237
-1.08704
-1.10181
-1.11676
-1.13149
-1.14606
-1.16069
-1.17577
-1.1909
-1.20601
-1.22121
-1.23636
-1.25136
-1.26654
-1.28162
-1.29658
-1.3115
-1.32641
-1.34128
-1.35607
-1.37077
-1.38554
-1.40116
-1.4153
-1.42945
-1.4437
-1.45798
-1.47226
-1.48656
-1.49935
-1.51435
-1.52834
-1.54217
-1.556
-1.56979
-1.58354
-1.59728
-1.61083
-1.62436
-1.63845
-1.65159
-1.66461
-1.67777
-1.68981
-1.70353
-1.71642
-1.72922
-1.742
-1.75481
-1.76753
-1.78027
-1.79288
-1.80594
-1.81558
-1.82941
-1.84204
-1.85424
-1.86676
-1.88078
-1.88628
-1.90277
-1.91484
-1.92629
-1.9385
-1.95124
-1.96332
-1.97577
-1.98859
-2.00215
-2.01513
-2.02726
-2.03956
-2.0514
-2.06331
-2.07544
-2.08784
-2.10169
-2.11648
-2.13028
-2.14407
-2.15908
-2.17108
-2.18243
-2.19956
-2.21572
-2.23046
-2.24574
-2.2589
-2.27064
-2.28578
-2.30164
-2.31183
-2.32475
-2.33656
-2.34417
-2.3553
-2.36634
-2.37424
-2.38298
-2.38671
-2.39137
-2.40214
-2.40131
-2.40845
-2.40889
-2.40764
-2.40939
-2.40216
-2.40249
-2.3983
-0.682993
-0.681621
-0.6803
-0.678772
-0.677376
-0.675973
-0.674596
-0.673206
-0.671795
-0.670757
-0.669315
-0.667924
-0.666538
-0.665189
-0.663811
-0.662453
-0.661102
-0.659762
-0.658432
-0.657116
-0.655821
-0.65455
-0.653378
-0.652125
-0.650012
-0.648914
-0.647576
-0.646288
-0.645039
-0.643824
-0.642703
-0.641557
-0.638924
-0.638663
-0.637344
-0.636024
-0.634859
-0.633855
-0.632872
-0.631678
-0.630441
-0.632212
-0.629072
-0.627978
-0.627707
-0.62649
-0.619779
-0.630821
-0.629723
-0.628753
-0.627846
-0.627039
-0.626385
-0.614568
-0.615802
-0.615329
-0.614094
-0.617232
-0.614086
-0.613229
-0.611564
-0.61027
-0.613406
-0.612544
-0.610717
-0.609819
-0.60908
-0.608054
-0.60708
-0.606435
-0.60581
-0.605189
-0.604482
-0.603536
-0.593681
-0.592755
-0.592336
-0.591546
-0.590636
-0.591597
-0.590194
-0.582368
-0.582684
-0.583042
-0.58244
-0.580951
-0.582644
-0.581865
-0.577205
-0.578391
-0.576205
-0.573381
-0.571693
-0.576937
-0.575919
-0.574674
-0.573372
-0.572121
-0.570868
-0.569619
-0.56834
-0.567068
-0.565814
-0.56458
-0.56338
-0.562224
-0.561023
-0.559717
-0.555314
-0.555716
-0.555223
-0.554281
-0.553248
-0.552207
-0.551214
-0.550288
-0.549416
-0.548595
-0.547709
-0.546224
-0.543888
-0.539634
-0.53889
-0.541527
-0.542507
-0.543049
-0.543062
-0.54304
-0.543226
-0.543626
-0.544197
-0.544873
-0.545309
-0.545566
-0.548203
-0.550011
-0.55182
-0.553813
-0.556081
-0.558632
-0.560917
-0.557269
-0.562858
-0.569668
-0.573918
-0.577918
-0.582055
-0.586182
-0.58948
-0.594728
-0.60127
-0.607515
-0.613785
-0.620235
-0.627007
-0.634123
-0.64156
-0.649333
-0.657293
-0.665255
-0.671533
-0.681553
-0.690947
-0.699994
-0.709514
-0.718677
-0.728356
-0.737806
-0.748785
-0.768796
-0.781564
-0.793802
-0.806029
-0.81867
-0.831587
-0.844706
-0.858002
-0.871692
-0.885723
-0.89969
-0.91251
-0.928918
-0.943288
-0.957631
-0.972459
-0.987556
-1.00278
-1.01477
-1.03174
-1.04797
-1.06371
-1.07933
-1.09505
-1.10971
-1.12099
-1.13688
-1.16456
-1.18106
-1.19685
-1.21272
-1.22883
-1.24501
-1.26118
-1.27728
-1.29313
-1.30916
-1.3257
-1.34156
-1.35741
-1.37338
-1.38936
-1.40523
-1.42063
-1.42616
-1.44804
-1.4635
-1.47847
-1.49327
-1.50804
-1.5227
-1.53709
-1.55146
-1.56717
-1.58067
-1.59409
-1.6076
-1.62123
-1.6349
-1.64852
-1.66216
-1.67531
-1.68457
-1.70042
-1.71298
-1.72515
-1.73801
-1.74986
-1.76206
-1.77419
-1.78617
-1.79812
-1.81001
-1.8219
-1.83316
-1.84554
-1.85832
-1.86962
-1.88102
-1.89254
-1.9044
-1.91648
-1.92659
-1.93968