/*--------------------------------*- C++ -*----------------------------------*\
| =========                 |                                                 |
| \\      /  F ield         | OpenFOAM: The Open Source CFD Toolbox           |
|  \\    /   O peration     | Version:  2.4.0                                 |
|   \\  /    A nd           | Web:      www.OpenFOAM.org                      |
|    \\/     M anipulation  |                                                 |
\*---------------------------------------------------------------------------*/
FoamFile
{
    version     2.0;
    format      ascii;
    class       volScalarField;
    location    "3.2";
    object      p_rgh;
}
// * * * * * * * * * * * * * * * * * * * * * * * * * * * * * * * * * * * * * //

dimensions      [1 -1 -2 0 0 0 0];

internalField   nonuniform List<scalar> 
8000
(
52.709
52.6865
52.6624
52.6401
52.6194
52.6003
52.5823
52.5652
52.5494
52.534
52.5184
52.503
52.4985
52.5298
52.5817
52.3905
51.3146
47.4736
6.62466
0.0241317
-0.00290467
-0.00295326
-0.0029944
-0.0030446
-0.00306312
-0.0030816
-0.00309997
-0.00311649
-0.00313271
-0.00314941
-0.00316697
-0.00318568
-0.00320575
-0.00322734
-0.00325053
-0.00327539
-0.00330194
-0.0033302
-0.00336014
-0.00339175
-0.003425
-0.00345983
-0.00349619
-0.00353405
-0.00357335
-0.00361403
-0.00365605
-0.00369935
-0.00374389
-0.00378962
54.1862
54.1678
54.1478
54.1283
54.1098
54.0923
54.075
54.0585
54.0418
54.0237
54.0042
53.9979
54.0433
54.132
53.8991
52.3488
49.6667
9.30512
0.0224197
-0.00250176
-0.00248336
-0.0026262
-0.00266999
-0.00266868
-0.00266244
-0.00265982
-0.00265972
-0.0026611
-0.00266425
-0.00266952
-0.00267702
-0.0026868
-0.00269886
-0.00271318
-0.00272971
-0.00274842
-0.00276924
-0.00279212
-0.00281699
-0.00284379
-0.00287245
-0.0029029
-0.00293508
-0.00296894
-0.0030044
-0.00304141
-0.00307991
-0.00311986
-0.00316121
-0.0032039
55.7447
55.7302
55.7154
55.7002
55.686
55.6721
55.6584
55.6447
55.6309
55.6165
55.6029
55.5985
55.6137
55.6095
55.3777
54.6537
32.1431
0.152648
-0.00176279
-0.00142125
-0.00161488
-0.00169467
-0.00171192
-0.0017176
-0.00172544
-0.00173536
-0.00174635
-0.00175836
-0.00177168
-0.00178648
-0.00180284
-0.00182081
-0.00184039
-0.00186161
-0.00188449
-0.00190901
-0.00193517
-0.00196295
-0.00199234
-0.0020233
-0.00205582
-0.00208985
-0.00212538
-0.00216238
-0.0022008
-0.00224064
-0.00228185
-0.00232441
-0.00236829
-0.00241347
57.0187
57.011
57.0029
56.9934
56.9841
56.9744
56.9644
56.9538
56.9422
56.9296
56.9202
56.9268
56.9497
56.88
56.3928
55.471
13.1704
0.0010225
-0.00056736
-0.000808593
-0.000915954
-0.000937837
-0.000941061
-0.00094611
-0.000953691
-0.000962518
-0.00097236
-0.00098338
-0.0009957
-0.00100939
-0.00102449
-0.00104106
-0.0010591
-0.00107866
-0.00109974
-0.00112236
-0.00114651
-0.0011722
-0.00119943
-0.00122818
-0.00125844
-0.00129021
-0.00132346
-0.0013582
-0.0013944
-0.00143205
-0.00147114
-0.00151165
-0.00155356
-0.00159687
58.6492
58.6433
58.6381
58.6324
58.6276
58.6232
58.6193
58.6153
58.6109
58.6062
58.6077
58.6331
58.6781
58.5773
57.879
56.6706
4.45104
-0.000452376
0.000407858
0.000158896
6.50182e-05
5.19989e-05
5.22306e-05
4.80759e-05
4.03233e-05
3.0861e-05
2.02175e-05
8.30839e-06
-4.99092e-06
-1.97378e-05
-3.59594e-05
-5.36765e-05
-7.29065e-05
-9.36626e-05
-0.000115954
-0.000139784
-0.000165157
-0.000192069
-0.000220519
-0.000250502
-0.000282011
-0.00031504
-0.000349579
-0.000385622
-0.000423157
-0.000462175
-0.000502666
-0.000544618
-0.000588021
-0.000632862
60.0821
60.0775
60.074
60.0705
60.0683
60.0669
60.0664
60.0661
60.0656
60.065
60.0729
60.1117
60.174
60.042
59.1372
57.6212
1.17485
0.000477697
0.00127683
0.00105441
0.000968801
0.000958638
0.000961043
0.000959183
0.000954014
0.000947621
0.000940446
0.000932293
0.000922961
0.000912329
0.000900313
0.000886844
0.000871862
0.000855317
0.000837171
0.000817392
0.00079596
0.000772857
0.000748073
0.000721601
0.00069344
0.000663591
0.000632058
0.000598845
0.000563962
0.000527418
0.000489224
0.000449391
0.000407932
0.000364862
61.3232
61.3277
61.3333
61.3371
61.3404
61.343
61.3448
61.3458
61.3461
61.3456
61.3445
61.3435
61.3431
61.3395
61.3163
61.2614
1.6553
0.00160468
0.00239423
0.00216392
0.00209411
0.0020827
0.00207797
0.00206907
0.00205799
0.00204639
0.00203443
0.00202183
0.00200838
0.00199394
0.00197838
0.00196161
0.00194354
0.00192409
0.00190319
0.0018808
0.00185687
0.00183137
0.00180427
0.00177554
0.00174519
0.00171319
0.00167954
0.00164424
0.00160729
0.00156869
0.00152845
0.00148657
0.00144307
0.00139796
62.6015
62.6158
62.6312
62.6437
62.6545
62.6636
62.6711
62.677
62.6813
62.6834
62.6841
62.6863
62.6969
62.7059
62.6244
62.2939
11.2859
0.00258608
0.00355536
0.00327163
0.00319755
0.00318775
0.00318347
0.00317384
0.00316182
0.00314933
0.00313653
0.00312312
0.0031089
0.00309371
0.00307743
0.00305997
0.00304122
0.0030211
0.00299954
0.00297648
0.00295188
0.00292568
0.00289786
0.00286839
0.00283725
0.00280443
0.00276991
0.00273371
0.0026958
0.00265621
0.00261492
0.00257195
0.00252731
0.00248101
64.4146
64.4321
64.4519
64.4704
64.4879
64.5048
64.5212
64.5369
64.552
64.5653
64.5777
64.5963
64.639
64.6946
64.5749
63.8384
32.7941
0.00462344
0.00447368
0.00412003
0.00404851
0.00404169
0.0040391
0.00403094
0.00402033
0.00400914
0.00399749
0.00398508
0.0039717
0.00395718
0.00394141
0.00392429
0.0039057
0.00388559
0.00386387
0.00384049
0.00381541
0.0037886
0.00376004
0.00372969
0.00369757
0.00366366
0.00362797
0.00359049
0.00355125
0.00351025
0.0034675
0.00342303
0.00337685
0.00332897
66.1005
66.1281
66.1584
66.186
66.2112
66.2346
66.2566
66.2771
66.2957
66.311
66.3235
66.345
66.4098
66.5132
66.3459
65.0414
61.5056
1.289
0.0155501
0.00526972
0.00511074
0.00505186
0.00503411
0.00502183
0.00500708
0.00499087
0.00497423
0.00495723
0.00493963
0.00492119
0.00490174
0.00488114
0.00485925
0.00483597
0.00481121
0.0047849
0.00475699
0.00472742
0.00469617
0.00466322
0.00462855
0.00459216
0.00455403
0.00451418
0.00447262
0.00442934
0.00438436
0.0043377
0.00428938
0.0042394
67.8991
67.9394
67.9821
68.0204
68.0544
68.0855
68.1136
68.1391
68.1615
68.1806
68.1956
68.2073
68.2244
68.2648
68.3012
68.1289
67.3501
32.2052
0.742589
0.00657894
0.00606379
0.00587158
0.00580228
0.00575306
0.00570985
0.00566868
0.00562961
0.00559263
0.00555723
0.00552286
0.00548901
0.0054553
0.00542138
0.00538699
0.00535189
0.00531591
0.00527889
0.00524072
0.00520131
0.00516059
0.00511851
0.00507504
0.00503016
0.00498385
0.00493611
0.00488693
0.00483633
0.0047843
0.00473087
0.00467605
70.5358
70.5835
70.634
70.6778
70.7147
70.7463
70.7727
70.7941
70.8102
70.8207
70.8243
70.8211
70.8204
70.8478
70.8943
70.7215
69.7149
54.2081
2.2529
0.00935685
0.0060424
0.00581598
0.00576493
0.00573672
0.00571251
0.00568946
0.00566798
0.00564793
0.0056288
0.00561001
0.0055911
0.0055717
0.00555151
0.00553029
0.00550784
0.00548402
0.00545871
0.00543183
0.00540333
0.00537315
0.00534129
0.00530772
0.00527245
0.00523547
0.00519679
0.00515643
0.00511439
0.0050707
0.00502538
0.00497844
73.4298
73.4391
73.4496
73.4635
73.4824
73.5058
73.5341
73.5663
73.603
73.6427
73.6873
73.7412
73.8182
73.9149
73.9225
73.433
71.7379
49.7207
4.30579
0.00893068
0.00560721
0.00540194
0.00526037
0.00523416
0.00524665
0.00525907
0.00526716
0.00527327
0.0052782
0.00528158
0.00528287
0.00528169
0.0052778
0.00527104
0.00526131
0.00524858
0.00523285
0.00521416
0.00519259
0.00516821
0.00514111
0.00511142
0.00507921
0.00504462
0.00500773
0.00496864
0.00492746
0.00488427
0.00483917
0.00479222
78.5682
78.5001
78.4464
78.4221
78.4261
78.4544
78.5079
78.5857
78.6928
78.8303
79.0058
79.1999
79.2967
78.4021
75.3116
65.5423
20.2067
0.198826
0.210876
-0.000310437
0.00441059
0.0040313
0.00377093
0.00377816
0.00386613
0.00394675
0.00401447
0.00407622
0.00413461
0.0041895
0.00424037
0.00428692
0.00432898
0.00436649
0.00439941
0.00442776
0.00445161
0.00447106
0.00448621
0.00449719
0.00450415
0.00450722
0.00450656
0.0045023
0.00449459
0.00448356
0.00446933
0.00445204
0.00443179
0.0044087
75.8493
75.8689
75.9037
75.9556
76.0249
76.1129
76.2268
76.3863
76.6068
76.755
76.3278
73.8388
71.0431
51.5197
2.76478
0.66553
0.747293
0.0049925
0.00852209
0.0046922
0.00424121
0.00428904
0.00434495
0.00434746
0.00433228
0.00431591
0.0043003
0.00428456
0.00426839
0.00425186
0.00423505
0.00421799
0.00420062
0.00418287
0.00416466
0.00414588
0.00412644
0.00410625
0.00408521
0.00406325
0.0040403
0.00401629
0.00399117
0.00396488
0.00393739
0.00390866
0.00387866
0.00384736
0.00381476
0.00378082
69.9502
70.1312
70.3253
70.5103
70.7176
70.9647
71.0683
70.3225
67.1033
63.4723
63.9843
14.7195
-0.440697
0.418466
0.028486
0.02453
0.0204271
0.00669991
0.00719672
0.00738168
0.00729063
0.00712977
0.00698035
0.00684702
0.00672199
0.00660111
0.00648327
0.00636829
0.00625616
0.00614689
0.00604049
0.00593693
0.00583616
0.0057381
0.00564263
0.00554961
0.0054589
0.00537035
0.00528379
0.00519907
0.00511604
0.00503455
0.00495444
0.00487559
0.00479786
0.00472111
0.00464524
0.00457013
0.00449567
0.00442175
67.0803
67.1612
67.3064
67.6025
67.779
66.1359
59.4989
54.8551
4.8411
0.140286
0.833019
0.0254286
0.0125735
0.000630148
0.000187312
-0.000165138
-0.000108503
0.000178764
0.000424404
0.0006014
0.000745708
0.000879565
0.0010053
0.00112206
0.00123057
0.00133233
0.00142862
0.00152019
0.00160746
0.00169056
0.00176951
0.00184424
0.00191464
0.00198062
0.00204209
0.00209899
0.0021513
0.00219901
0.00224217
0.00228081
0.00231501
0.00234485
0.00237043
0.00239185
0.00240922
0.00242265
0.00243225
0.00243815
0.00244044
0.00243925
68.4279
68.3111
68.1385
67.3398
64.7743
50.6924
-1.22919
0.557707
0.0260283
0.0371356
0.0412565
0.00689773
0.00621302
0.00600879
0.00608036
0.00617369
0.00620219
0.00618652
0.00615376
0.0061193
0.00608195
0.00604069
0.00599542
0.00594636
0.00589365
0.00583737
0.00577764
0.00571464
0.00564859
0.00557974
0.0055084
0.00543485
0.00535942
0.00528239
0.00520404
0.00512463
0.00504435
0.00496341
0.00488196
0.00480012
0.004718
0.00463568
0.00455322
0.00447065
0.004388
0.00430529
0.00422253
0.00413969
0.00405678
0.00397378
71.6757
71.3823
70.5271
68.6258
36.607
-0.083969
-0.0124371
0.0131668
-0.00475499
-0.00560436
-0.00681048
-0.00729628
-0.00750305
-0.00761338
-0.00761699
-0.00746901
-0.00718435
-0.00679597
-0.0063254
-0.00578406
-0.00518649
-0.00455253
-0.00390469
-0.00326416
-0.00264702
-0.00206339
-0.00151892
-0.00101685
-0.000558823
-0.000144862
0.000226315
0.000556878
0.00084952
0.00110721
0.00133299
0.00152982
0.00170054
0.00184775
0.00197385
0.00208099
0.00217111
0.00224593
0.00230696
0.00235553
0.00239284
0.00241992
0.00243769
0.00244698
0.0024485
0.00244291
71.3273
71.1992
70.6126
69.4241
6.21801
0.072445
0.0211586
0.0247749
0.0251119
0.0247231
0.0240057
0.0232482
0.0222903
0.0210638
0.0195291
0.0178791
0.0166126
0.0156016
0.0145879
0.0135778
0.012633
0.0117673
0.0109818
0.0102868
0.0096871
0.00917133
0.00872291
0.00833252
0.00799268
0.00769136
0.00741645
0.00715915
0.0069154
0.006685
0.00646853
0.00626568
0.00607516
0.00589508
0.005724
0.00556087
0.00540484
0.00525504
0.00511069
0.00497106
0.00483546
0.00470328
0.00457394
0.00444692
0.00432177
0.00419808
-0.00383649
-0.00388447
-0.0039335
-0.00398356
-0.00403459
-0.00408658
-0.00413948
-0.00419326
-0.0042479
-0.00430335
-0.00435959
-0.0044166
-0.00447434
-0.00453279
-0.00459192
-0.00465171
-0.00471213
-0.00477315
-0.00483475
-0.00489691
-0.0049596
-0.00502279
-0.00508647
-0.00515061
-0.00521518
-0.00528015
-0.00534552
-0.00541124
-0.00547731
-0.00554368
-0.00561034
-0.00567727
-0.00574444
-0.00581182
-0.0058794
-0.00594715
-0.00601503
-0.00608304
-0.00615115
-0.00621933
-0.00628756
-0.00635582
-0.00642408
-0.00649233
-0.00656053
-0.00662868
-0.00669673
-0.00676468
-0.00683253
-0.00690037
-0.0032479
-0.00329317
-0.00333967
-0.00338736
-0.0034362
-0.00348617
-0.00353723
-0.00358936
-0.00364252
-0.00369668
-0.00375183
-0.00380792
-0.00386493
-0.00392284
-0.00398162
-0.00404124
-0.00410167
-0.0041629
-0.00422489
-0.00428761
-0.00435104
-0.00441515
-0.00447992
-0.00454532
-0.00461131
-0.00467788
-0.00474499
-0.00481262
-0.00488073
-0.00494931
-0.00501831
-0.00508772
-0.00515751
-0.00522764
-0.00529808
-0.00536882
-0.00543982
-0.00551104
-0.00558248
-0.00565409
-0.00572584
-0.00579772
-0.00586968
-0.00594172
-0.00601379
-0.00608587
-0.00615794
-0.00622998
-0.00630196
-0.00637379
-0.00245993
-0.00250764
-0.00255658
-0.00260672
-0.00265805
-0.00271054
-0.00276417
-0.00281892
-0.00287477
-0.0029317
-0.00298968
-0.0030487
-0.00310873
-0.00316975
-0.00323174
-0.00329468
-0.00335854
-0.0034233
-0.00348893
-0.00355542
-0.00362273
-0.00369085
-0.00375974
-0.00382938
-0.00389975
-0.00397082
-0.00404256
-0.00411495
-0.00418795
-0.00426155
-0.00433571
-0.00441041
-0.00448561
-0.0045613
-0.00463744
-0.00471401
-0.00479097
-0.0048683
-0.00494597
-0.00502395
-0.00510221
-0.00518073
-0.00525948
-0.00533843
-0.00541754
-0.00549681
-0.00557619
-0.00565565
-0.00573516
-0.00581483
-0.00164155
-0.00168759
-0.00173497
-0.00178368
-0.00183369
-0.001885
-0.00193759
-0.00199143
-0.0020465
-0.0021028
-0.00216029
-0.00221895
-0.00227877
-0.00233972
-0.00240178
-0.00246493
-0.00252914
-0.00259438
-0.00266064
-0.00272789
-0.00279609
-0.00286523
-0.00293528
-0.0030062
-0.00307798
-0.00315058
-0.00322398
-0.00329814
-0.00337303
-0.00344864
-0.00352491
-0.00360184
-0.00367938
-0.0037575
-0.00383618
-0.00391538
-0.00399508
-0.00407523
-0.00415582
-0.0042368
-0.00431815
-0.00439984
-0.00448184
-0.0045641
-0.00464662
-0.00472934
-0.00481225
-0.00489531
-0.00497848
-0.00506171
-0.000679129
-0.000726809
-0.000775889
-0.000826355
-0.000878191
-0.000931382
-0.000985913
-0.00104177
-0.00109893
-0.00115737
-0.00121709
-0.00127805
-0.00134025
-0.00140365
-0.00146824
-0.00153399
-0.00160089
-0.00166891
-0.00173802
-0.0018082
-0.00187943
-0.00195168
-0.00202492
-0.00209913
-0.00217428
-0.00225035
-0.0023273
-0.00240511
-0.00248375
-0.00256319
-0.0026434
-0.00272435
-0.00280601
-0.00288836
-0.00297136
-0.00305498
-0.00313919
-0.00322396
-0.00330926
-0.00339506
-0.00348133
-0.00356803
-0.00365514
-0.00374263
-0.00383046
-0.00391861
-0.00400703
-0.00409569
-0.00418454
-0.00427368
0.000320197
0.00027395
0.000226139
0.000176782
0.000125896
7.35001e-05
1.96135e-05
-3.57437e-05
-9.25507e-05
-0.000150786
-0.000210428
-0.000271454
-0.00033384
-0.000397563
-0.000462598
-0.000528921
-0.000596506
-0.000665326
-0.000735356
-0.000806569
-0.000878936
-0.00095243
-0.00102702
-0.00110269
-0.00117939
-0.0012571
-0.0013358
-0.00141545
-0.00149601
-0.00157747
-0.00165979
-0.00174293
-0.00182687
-0.00191158
-0.00199702
-0.00208316
-0.00216997
-0.00225741
-0.00234546
-0.00243409
-0.00252325
-0.00261293
-0.00270307
-0.00279366
-0.00288466
-0.00297604
-0.00306777
-0.0031598
-0.00325207
-0.00334456
0.00135124
0.00130293
0.00125305
0.00120161
0.00114862
0.00109411
0.00103809
0.00098058
0.000921599
0.000861169
0.000799308
0.00073604
0.000671386
0.000605369
0.000538012
0.000469338
0.000399373
0.000328142
0.000255669
0.00018198
0.000107101
3.10606e-05
-4.61157e-05
-0.0001244
-0.000203764
-0.000284181
-0.000365621
-0.000448055
-0.000531454
-0.00061579
-0.000701032
-0.000787151
-0.000874117
-0.000961899
-0.00105047
-0.00113979
-0.00122984
-0.00132059
-0.00141199
-0.00150403
-0.00159667
-0.00168988
-0.00178363
-0.00187789
-0.00197262
-0.0020678
-0.0021634
-0.00225934
-0.00235556
-0.00245225
0.00243305
0.00238346
0.00233225
0.00227944
0.00222504
0.00216906
0.00211154
0.00205249
0.00199192
0.00192987
0.00186635
0.00180138
0.00173499
0.0016672
0.00159804
0.00152752
0.00145568
0.00138255
0.00130813
0.00123247
0.00115559
0.00107752
0.000998282
0.000917904
0.000836416
0.000753846
0.000670223
0.000585575
0.000499932
0.000413323
0.000325777
0.000237324
0.000147994
5.78152e-05
-3.31809e-05
-0.000124965
-0.000217506
-0.000310774
-0.000404739
-0.000499369
-0.000594635
-0.000690505
-0.000786948
-0.000883933
-0.000981429
-0.00107941
-0.00117785
-0.0012767
-0.00137586
-0.00147533
0.00327942
0.00322822
0.00317538
0.00312094
0.00306491
0.00300731
0.00294818
0.00288753
0.00282538
0.00276176
0.0026967
0.00263021
0.00256233
0.00249307
0.00242247
0.00235055
0.00227733
0.00220283
0.0021271
0.00205014
0.00197199
0.00189267
0.00181221
0.00173063
0.00164797
0.00156424
0.00147948
0.00139371
0.00130696
0.00121926
0.00113063
0.00104109
0.000950689
0.000859437
0.000767366
0.000674503
0.000580877
0.000486514
0.000391443
0.000295691
0.000199286
0.000102257
4.63109e-06
-9.35627e-05
-0.000192299
-0.000291554
-0.00039129
-0.00049144
-0.000591928
-0.000693015
0.00418778
0.00413455
0.00407973
0.00402332
0.00396537
0.00390588
0.00384487
0.00378238
0.00371842
0.00365301
0.00358618
0.00351794
0.00344833
0.00337737
0.00330508
0.00323148
0.0031566
0.00308047
0.0030031
0.00292452
0.00284476
0.00276384
0.00268179
0.00259862
0.00251438
0.00242907
0.00234274
0.0022554
0.00216708
0.0020778
0.0019876
0.00189649
0.00180451
0.00171167
0.00161801
0.00152355
0.00142832
0.00133235
0.00123565
0.00113826
0.00104021
0.000941512
0.000842204
0.000742311
0.000641858
0.00054087
0.000439367
0.000337373
0.000234995
0.000132336
0.00461984
0.00456227
0.00450336
0.00444312
0.00438157
0.00431873
0.00425462
0.00418926
0.00412266
0.00405485
0.00398584
0.00391565
0.00384431
0.00377182
0.00369822
0.00362351
0.00354772
0.00347087
0.00339297
0.00331404
0.0032341
0.00315318
0.00307129
0.00298845
0.00290468
0.00282
0.00273443
0.00264797
0.00256066
0.00247251
0.00238353
0.00229375
0.00220319
0.00211186
0.00201979
0.00192699
0.00183348
0.00173929
0.00164443
0.00154893
0.0014528
0.00135606
0.00125874
0.00116085
0.00106242
0.000963463
0.000864008
0.000764123
0.000663874
0.000562928
0.0049299
0.00487978
0.0048281
0.00477488
0.00472014
0.00466391
0.0046062
0.00454703
0.00448643
0.00442441
0.004361
0.00429622
0.00423008
0.00416262
0.00409384
0.00402379
0.00395246
0.0038799
0.00380612
0.00373115
0.00365503
0.0035779
0.00349975
0.00342008
0.00333934
0.0032576
0.00317482
0.00309101
0.00300619
0.00292038
0.0028336
0.00274588
0.00265724
0.0025677
0.00247729
0.00238602
0.00229393
0.00220103
0.00210735
0.00201291
0.00191774
0.00182185
0.00172528
0.00162804
0.00153016
0.00143166
0.00133256
0.00123284
0.00113262
0.00103211
0.0047435
0.00469309
0.00464105
0.00458744
0.00453231
0.00447572
0.00441771
0.00435833
0.00429762
0.00423562
0.00417236
0.00410789
0.00404222
0.00397538
0.00390742
0.00383834
0.00376817
0.00369695
0.00362468
0.00355139
0.00347706
0.00340161
0.00332507
0.00324801
0.00317001
0.00309104
0.00301118
0.00293044
0.00284886
0.00276645
0.00268322
0.0025992
0.00251438
0.0024288
0.00234245
0.00225537
0.00216755
0.00207903
0.0019898
0.00189989
0.00180931
0.00171808
0.00162621
0.00153372
0.00144061
0.00134691
0.00125264
0.00115786
0.00106261
0.000966526
0.00438288
0.00435442
0.00432342
0.00428997
0.00425414
0.00421602
0.00417569
0.00413321
0.00408866
0.00404209
0.00399357
0.00394316
0.00389091
0.00383687
0.00378109
0.00372363
0.00366452
0.00360382
0.00354156
0.00347779
0.00341254
0.00334585
0.00327775
0.00320828
0.00313748
0.00306537
0.002992
0.00291738
0.00284156
0.00276456
0.00268641
0.00260713
0.00252676
0.00244533
0.00236285
0.00227936
0.00219488
0.00210943
0.00202305
0.00193575
0.00184756
0.00175851
0.00166861
0.0015779
0.00148639
0.00139412
0.00130108
0.00120726
0.00111274
0.00101786
0.00374554
0.00370891
0.00367092
0.00363157
0.00359086
0.00354879
0.00350536
0.00346058
0.00341445
0.00336698
0.00331817
0.00326804
0.0032166
0.00316386
0.00310982
0.0030545
0.00299791
0.00294007
0.00288099
0.00282068
0.00275915
0.00269643
0.00263252
0.00256743
0.0025012
0.00243382
0.00236532
0.0022957
0.002225
0.00215321
0.00208035
0.00200645
0.00193152
0.00185557
0.00177863
0.0017007
0.00162181
0.00154197
0.0014612
0.00137952
0.00129695
0.0012135
0.00112919
0.00104403
0.000958056
0.000871267
0.000783705
0.000695434
0.000606464
0.000516351
0.00434829
0.0042752
0.00420238
0.00412976
0.00405726
0.00398482
0.00391237
0.00383985
0.0037672
0.00369437
0.0036213
0.00354796
0.0034743
0.00340028
0.00332587
0.00325102
0.00317572
0.00309992
0.00302361
0.00294677
0.00286936
0.00279137
0.00271278
0.00263357
0.00255374
0.00247327
0.00239214
0.00231036
0.00222791
0.00214478
0.00206097
0.00197648
0.00189131
0.00180545
0.0017189
0.00163168
0.00154377
0.00145519
0.00136593
0.00127602
0.00118544
0.00109421
0.00100233
0.000909824
0.000816689
0.000722942
0.000628574
0.000533539
0.000437906
0.000342115
0.00243468
0.00242683
0.00241582
0.00240174
0.00238468
0.00236475
0.00234202
0.00231659
0.00228854
0.00225795
0.00222489
0.00218944
0.00215166
0.00211163
0.00206941
0.00202506
0.00197865
0.00193022
0.00187983
0.00182754
0.0017734
0.00171746
0.00165976
0.00160034
0.00153926
0.00147656
0.00141227
0.00134644
0.0012791
0.00121029
0.00114006
0.00106843
0.000995433
0.000921114
0.000845503
0.000768632
0.000690535
0.000611243
0.000530788
0.000449201
0.000366512
0.000282753
0.000197951
0.000112137
2.53343e-05
-6.24278e-05
-0.000151102
-0.00024062
-0.000330998
-0.000422703
0.00389066
0.00380741
0.00372399
0.00364039
0.00355657
0.00347252
0.0033882
0.00330359
0.00321867
0.00313341
0.0030478
0.00296182
0.00287544
0.00278865
0.00270143
0.00261377
0.00252565
0.00243706
0.00234799
0.00225843
0.00216836
0.00207777
0.00198667
0.00189504
0.00180287
0.00171017
0.00161692
0.00152312
0.00142877
0.00133387
0.00123842
0.00114242
0.00104586
0.00094876
0.000851114
0.000752928
0.000654207
0.000554958
0.000455188
0.000354905
0.000254117
0.000152834
5.10637e-05
-5.11818e-05
-0.00015389
-0.00025705
-0.000360667
-0.00046478
-0.000569321
-0.000673865
0.00243078
0.00241263
0.00238892
0.00236008
0.00232648
0.00228847
0.00224635
0.0022004
0.00215088
0.00209803
0.00204204
0.00198311
0.00192142
0.00185714
0.00179041
0.00172136
0.00165013
0.00157683
0.00150157
0.00142444
0.00134555
0.00126498
0.00118281
0.00109911
0.00101395
0.000927402
0.000839521
0.000750365
0.000659988
0.000568441
0.000475771
0.000382024
0.000287242
0.000191466
9.47367e-05
-2.9098e-06
-0.000101437
-0.00020081
-0.000300994
-0.000401957
-0.000503668
-0.000606095
-0.000709208
-0.000812978
-0.000917379
-0.00102238
-0.00112794
-0.00123402
-0.00134062
-0.00144813
0.0040755
0.00395377
0.00383264
0.00371194
0.00359153
0.00347131
0.00335122
0.00323122
0.0031113
0.00299144
0.00287168
0.00275202
0.00263247
0.00251304
0.00239371
0.00227448
0.00215532
0.00203622
0.00191718
0.00179816
0.00167917
0.00156017
0.00144117
0.00132215
0.00120309
0.00108398
0.000964816
0.000845585
0.000726279
0.00060689
0.000487413
0.000367843
0.000248174
0.000128406
8.53605e-06
-0.000111436
-0.000231509
-0.000351681
-0.000471948
-0.000592307
-0.000712752
-0.000833277
-0.000953875
-0.00107454
-0.00119526
-0.00131602
-0.00143683
-0.00155772
-0.0016786
-0.00179917
-0.00695281
-0.00698957
-0.00702643
-0.00706342
-0.00710052
-0.00713774
-0.00717505
-0.00721246
-0.00724995
-0.00728752
-0.00732516
-0.00736287
-0.00740063
-0.00743844
-0.0074763
-0.00751419
-0.00755211
-0.00759005
-0.00762802
-0.00766599
-0.00770396
-0.00774193
-0.00777989
-0.00781783
-0.00785575
-0.00789364
-0.0079315
-0.00796931
-0.00800708
-0.00804479
-0.00808244
-0.00812002
-0.00815753
-0.00819496
-0.00823229
-0.00826953
-0.00830666
-0.00834366
-0.00838054
-0.00841727
-0.00845386
-0.00849029
-0.00852656
-0.00856267
-0.00859861
-0.00863438
-0.00866996
-0.00870534
-0.00874049
-0.00877539
-0.00881002
-0.00884439
-0.00887852
-0.00891245
-0.00894621
-0.0089802
-0.00901396
-0.00891138
-0.00910281
-0.00917186
-0.00920997
-0.00924118
-0.00927222
-0.00930285
-0.00933306
-0.00936284
-0.00939218
-0.00942107
-0.0094495
-0.00947749
-0.00950512
-0.00953255
-0.00955979
-0.0095867
-0.00961318
-0.00963988
-0.00966612
-0.0094469
-0.00950091
-0.00961134
-0.0093662
-0.00972788
-0.00980588
-0.00982342
-0.00983498
-0.00985464
-0.00987242
-0.00989354
-0.00991005
-0.00992378
-0.00993866
-0.00995162
-0.00996513
-0.0099773
-0.00998883
-0.00999973
-0.0100084
-0.010015
-0.010011
-0.0100156
-0.0100097
-0.0100009
-0.00999841
-0.0100159
-0.00993893
-0.0100117
-0.010009
-0.0100042
-0.0100013
-0.0100004
-0.0100015
-0.00999912
-0.00979013
-0.0101101
-0.0100766
-0.00978624
-0.0100138
-0.00998765
-0.00995926
-0.00995035
-0.00994772
-0.00994116
-0.00992323
-0.00978134
-0.00991637
-0.00996825
-0.00989251
-0.00988326
-0.00985766
-0.00956511
-0.00869867
-0.00752174
-0.00764556
-0.00835933
-0.00829919
-0.00821803
-0.00824579
-0.00830712
-0.00837064
-0.00846377
-0.0085125
-0.00854136
-0.00856273
-0.0085859
-0.00860698
-0.00861606
-0.00863561
-0.00864447
-0.00825537
-0.00876509
-0.00877082
-0.00899732
-0.00903556
-0.00869879
-0.00909502
-0.00910074
-0.0091104
-0.00912021
-0.00912836
-0.00914399
-0.00915632
-0.00916549
-0.00917806
-0.00919259
-0.0089377
-0.00900072
-0.00909562
-0.00907544
-0.00911543
-0.00911875
-0.00914404
-0.00916116
-0.00916381
-0.00915782
-0.00913326
-0.00881826
-0.0089484
-0.00900969
-0.00902761
-0.00904403
-0.00905153
-0.00906081
-0.00907159
-0.00908318
-0.00909525
-0.00910737
-0.00911931
-0.00913106
-0.00914271
-0.00915438
-0.00916612
-0.00917814
-0.00919045
-0.00920277
-0.009215
-0.009228
-0.00907556
-0.00924781
-0.00927119
-0.00930167
-0.00930202
-0.0092561
-0.00936569
-0.0093858
-0.00937904
-0.00949156
-0.00950288
-0.00951215
-0.00951963
-0.00952587
-0.00953121
-0.00953288
-0.00952998
-0.00952463
-0.00951613
-0.00951115
-0.00939706
-0.0093934
-0.0097114
-0.00976053
-0.00977618
-0.00979052
-0.00980466
-0.00982022
-0.00983687
-0.00985393
-0.00987015
-0.00988394
-0.00987416
-0.00963211
-0.00906509
-0.00987256
-0.0101592
-0.0102169
-0.0102636
-0.0103079
-0.0103505
-0.0103918
-0.0104324
-0.0104725
-0.0105123
-0.010552
-0.0105917
-0.0106315
-0.0106715
-0.0107117
-0.0107522
-0.010793
-0.0108342
-0.0108758
-0.0109178
-0.0109603
-0.0110033
-0.0110468
-0.0110907
-0.0111352
-0.0111802
-0.0112257
-0.0112717
-0.0113182
-0.0113653
-0.0114128
-0.0114609
-0.0115095
-0.0115586
-0.0116082
-0.0116583
-0.0117089
-0.01176
-0.0118117
-0.0118638
-0.0119165
-0.0119696
-0.0120232
-0.0120774
-0.012132
-0.0121872
-0.0122428
-0.012299
-0.0123556
-0.0124127
-0.0124704
-0.0125285
-0.0125872
-0.0126463
-0.012706
-0.0127661
-0.0128268
-0.012888
-0.0129496
-0.0130118
-0.0130745
-0.0131377
-0.0132015
-0.0132657
-0.0133304
-0.0133957
-0.0134618
-0.0135285
-0.0135939
-0.00642903
-0.0064679
-0.00650703
-0.00654634
-0.0065858
-0.0066254
-0.00666513
-0.00670498
-0.00674495
-0.00678504
-0.00682523
-0.00686551
-0.00690589
-0.00694635
-0.00698688
-0.00702749
-0.00706816
-0.00710888
-0.00714966
-0.00719048
-0.00723133
-0.00727222
-0.00731312
-0.00735405
-0.00739498
-0.00743592
-0.00747685
-0.00751777
-0.00755867
-0.00759955
-0.00764039
-0.00768119
-0.00772194
-0.00776264
-0.00780327
-0.00784382
-0.00788429
-0.00792466
-0.00796494
-0.0080051
-0.00804516
-0.0080851
-0.00812492
-0.00816461
-0.00820416
-0.00824355
-0.00828276
-0.00832179
-0.00836062
-0.00839925
-0.00843768
-0.00847591
-0.00851396
-0.00855182
-0.00858947
-0.0086269
-0.00866416
-0.00870136
-0.00873805
-0.008774
-0.00880965
-0.00884515
-0.00888028
-0.00891505
-0.00894949
-0.00898361
-0.00901744
-0.009051
-0.00908423
-0.0091171
-0.00914956
-0.00918157
-0.00921309
-0.00924412
-0.00927462
-0.00930461
-0.00933409
-0.00936315
-0.00939176
-0.00941889
-0.0094458
-0.00947302
-0.00949843
-0.00952317
-0.00954791
-0.00957187
-0.00959555
-0.00961886
-0.00964182
-0.00966511
-0.00968814
-0.00971018
-0.00972804
-0.00970933
-0.00973659
-0.0097534
-0.00971027
-0.0097608
-0.00978167
-0.00973269
-0.00980167
-0.0098346
-0.00984889
-0.00986994
-0.00990089
-0.00992238
-0.00992039
-0.00988254
-0.0100088
-0.0100549
-0.010083
-0.0101075
-0.0101344
-0.0101643
-0.010195
-0.0102325
-0.0101401
-0.00928151
-0.00933386
-0.00955938
-0.00965507
-0.00969122
-0.00972225
-0.00975453
-0.00978233
-0.00980894
-0.00983317
-0.00985858
-0.00988187
-0.00990317
-0.00992621
-0.00995177
-0.0099367
-0.00992497
-0.00991463
-0.00989258
-0.00986713
-0.00984306
-0.0098195
-0.00979531
-0.00977098
-0.00974684
-0.00972299
-0.00969935
-0.00967705
-0.00965648
-0.00942356
-0.00950566
-0.00948585
-0.00928944
-0.00956054
-0.00959347
-0.00958438
-0.00956798
-0.00955099
-0.00953108
-0.00951519
-0.00949902
-0.00947843
-0.00941756
-0.00938752
-0.00939712
-0.00932342
-0.00942649
-0.0094162
-0.00942698
-0.00939627
-0.00929151
-0.00926828
-0.00960024
-0.0096147
-0.00960311
-0.00958672
-0.00957497
-0.00956585
-0.0095561
-0.00954368
-0.00953676
-0.00952246
-0.00950298
-0.00941733
-0.00953188
-0.00952864
-0.00952667
-0.00952485
-0.0095251
-0.00952595
-0.00952661
-0.00952797
-0.00953069
-0.00953442
-0.00953869
-0.00953261
-0.00953707
-0.00955735
-0.00955492
-0.00957222
-0.00957693
-0.00954399
-0.00955043
-0.00958831
-0.00951638
-0.00956809
-0.00959625
-0.00961352
-0.00962628
-0.00964726
-0.00967045
-0.00970292
-0.00972644
-0.00975568
-0.00978942
-0.00975255
-0.00929192
-0.00934964
-0.00953821
-0.00961501
-0.0096502
-0.00968129
-0.00970986
-0.00973023
-0.00974472
-0.00975448
-0.00976077
-0.00976446
-0.00976329
-0.00974359
-0.00949338
-0.00921557
-0.00921049
-0.0100153
-0.0103581
-0.0103898
-0.0104131
-0.0104362
-0.0104602
-0.0104854
-0.010512
-0.0105401
-0.0105695
-0.0106003
-0.0106324
-0.0106658
-0.0107003
-0.0107358
-0.0107723
-0.0108097
-0.010848
-0.010887
-0.0109267
-0.0109672
-0.0110083
-0.01105
-0.0110923
-0.0111352
-0.0111787
-0.0112227
-0.0112673
-0.0113124
-0.011358
-0.0114041
-0.0114508
-0.011498
-0.0115457
-0.0115939
-0.0116427
-0.0116919
-0.0117417
-0.0117919
-0.0118427
-0.011894
-0.0119457
-0.011998
-0.0120508
-0.0121041
-0.0121579
-0.0122123
-0.0122671
-0.0123224
-0.0123783
-0.0124346
-0.0124915
-0.0125489
-0.0126067
-0.0126652
-0.0127241
-0.0127835
-0.0128435
-0.0129039
-0.0129649
-0.0130264
-0.0130884
-0.013151
-0.013214
-0.0132776
-0.0133416
-0.0134062
-0.0134717
-0.0135378
-0.0136024
-0.00587653
-0.00591993
-0.00596357
-0.00600741
-0.00605144
-0.00609566
-0.00614006
-0.00618464
-0.00622938
-0.00627428
-0.00631933
-0.00636452
-0.00640986
-0.00645533
-0.00650093
-0.00654664
-0.00659247
-0.00663841
-0.00668445
-0.00673058
-0.00677679
-0.00682309
-0.00686946
-0.00691589
-0.00696238
-0.00700893
-0.00705551
-0.00710213
-0.00714878
-0.00719545
-0.00724213
-0.00728882
-0.0073355
-0.00738216
-0.00742881
-0.00747542
-0.007522
-0.00756853
-0.007615
-0.00766141
-0.00770774