/*--------------------------------*- C++ -*----------------------------------*\
| =========                 |                                                 |
| \\      /  F ield         | OpenFOAM: The Open Source CFD Toolbox           |
|  \\    /   O peration     | Version:  2.4.0                                 |
|   \\  /    A nd           | Web:      www.OpenFOAM.org                      |
|    \\/     M anipulation  |                                                 |
\*---------------------------------------------------------------------------*/
FoamFile
{
    version     2.0;
    format      ascii;
    class       volScalarField;
    location    "2.3";
    object      H;
}
// * * * * * * * * * * * * * * * * * * * * * * * * * * * * * * * * * * * * * //

dimensions      [0 2 -2 0 0 0 0];

internalField   nonuniform List<scalar> 
8000
(
-11965.4
-11438
-10915.8
-10401.8
-9898.7
-9408.93
-8934.64
-8477.69
-8039.59
-7621.52
-7224.31
-6848.44
-6494.01
-6160.75
-5848.23
-5555.64
-5281.91
-5025.77
-4785.79
-4560.41
-4347.98
-4146.81
-3955.25
-3771.64
-3594.44
-3422.19
-3253.58
-3087.45
-2922.8
-2758.83
-2594.91
-2430.59
-2265.62
-2099.93
-1933.63
-1767.02
-1600.58
-1434.97
-1270.98
-1109.5
-951.95
-800.085
-653.944
-513.772
-384.6
-271.193
-157.838
-48.1172
-0.582693
-0.529778
-11983.1
-11491.3
-11004.8
-10526.8
-10060.1
-9606.77
-9168.89
-8747.94
-8345.04
-7960.92
-7595.92
-7250.05
-6922.97
-6614.01
-6322.26
-6046.57
-5785.59
-5537.84
-5301.74
-5075.63
-4857.82
-4646.61
-4440.38
-4237.58
-4036.79
-3836.75
-3636.35
-3434.72
-3231.15
-3025.19
-2816.58
-2605.29
-2391.52
-2175.67
-1958.36
-1740.44
-1523.03
-1307.68
-1095.81
-887.371
-687.458
-508.054
-332.086
-144.718
-1.74785
-0.0381264
-0.0109917
-0.00375173
-0.00363474
-0.00278945
-12002.4
-11549
-11101
-10661.3
-10232.4
-9816.31
-9414.63
-9028.41
-8658.31
-8304.58
-7967.09
-7645.39
-7338.69
-7045.99
-6766.03
-6497.4
-6238.54
-5987.83
-5743.56
-5504.03
-5267.58
-5032.58
-4797.52
-4561.01
-4321.84
-4078.97
-3831.62
-3579.24
-3321.58
-3058.66
-2790.8
-2518.63
-2243
-1964.96
-1685.73
-1406.87
-1129.95
-860.973
-607.392
-332.109
-67.6035
-0.79827
-0.0315505
-0.0114885
-0.00033027
-9.77932e-06
-2.09579e-06
1.58404e-06
7.61046e-05
0.000230688
-12021.4
-11605.9
-11195.4
-10792.7
-10399.6
-10017.9
-9648.4
-9291.85
-8948.34
-8617.68
-8299.29
-7992.36
-7695.81
-7408.35
-7128.56
-6854.88
-6585.66
-6319.22
-6053.83
-5787.82
-5519.53
-5247.44
-4970.11
-4686.31
-4395.02
-4095.49
-3787.28
-3470.36
-3145.09
-2812.3
-2473.27
-2129.79
-1784.36
-1438.35
-1093.2
-754.695
-396.393
-60.3844
-0.69578
-0.0339009
-0.00700977
-0.00965593
-0.000231512
4.26786e-05
0.000191864
0.000417602
0.001246
0.00551142
0.040932
0.33603
-12036.8
-11652
-11271.4
-10897.1
-10530.8
-10173.5
-9825.75
-9487.69
-9159.12
-8839.48
-8527.95
-8223.45
-7924.7
-7630.26
-7338.56
-7047.91
-6756.55
-6462.68
-6164.5
-5860.2
-5548.09
-5226.56
-4894.2
-4549.86
-4192.68
-3822.26
-3438.71
-3042.84
-2636.23
-2221.22
-1801.19
-1380.46
-973.53
-556.958
-120.885
-1.28117
-0.0463058
-0.00792194
-0.000358582
-3.35156e-05
8.175e-05
0.000863251
0.00516756
0.0384698
0.307127
0.562958
0.817254
1.07231
1.32628
1.57559
-12047.3
-11683.1
-11322.1
-10966
-10615.9
-10272.4
-9935.79
-9605.79
-9281.94
-8963.41
-8649.15
-8337.84
-8028.01
-7717.97
-7405.93
-7089.96
-6768.01
-6438.02
-6097.86
-5745.46
-5378.85
-4996.22
-4596.07
-4177.25
-3739.19
-3281.89
-2806.47
-2315.04
-1811.9
-1300.73
-787.176
-254.886
-2.55032
-0.0711998
-0.0206039
-0.00185698
-7.89725e-05
0.00039338
0.00141485
0.00774179
0.0566443
0.448674
0.797579
1.11045
1.39094
1.64796
1.8876
2.11418
2.32931
2.53431
-12054.4
-11704.2
-11356.7
-11012.9
-10673.6
-10338.8
-10008.5
-9682.07
-9358.77
-9037.46
-8716.79
-8395.2
-8070.9
-7741.92
-7406.11
-7061.15
-6704.6
-6333.92
-5946.51
-5539.83
-5111.5
-4659.4
-4181.89
-3677.81
-3146.78
-2589.47
-2008.88
-1411.2
-804.397
-178.315
-1.99007
-0.0644783
-0.054139
-0.00325613
0.00239548
0.00643512
0.0487097
0.388434
0.688481
0.958983
1.21069
1.45087
1.68046
1.89618
2.0982
2.2869
2.46315
2.62806
2.78273
2.92816
-12060
-11720.7
-11383.2
-11048.2
-10715.9
-10386.1
-10058.2
-9731.53
-9404.85
-9076.79
-8745.74
-8409.84
-8066.99
-7714.88
-7350.93
-6972.35
-6576.11
-6159.05
-5717.94
-5249.64
-4751.3
-4220.61
-3655.86
-3055.94
-2420.36
-1750.73
-1055.53
-350.924
-3.8646
-0.156671
-0.124867
-0.0787641
-0.0284561
0.0163746
0.167998
0.315745
0.462049
0.612852
0.766237
0.917801
1.06483
1.20546
1.33851
1.46328
1.57952
1.6872
1.78638
1.87859
1.96514
2.04699
-12063.8
-11731.7
-11400.4
-11069.8
-10739.9
-10410
-10079.4
-9746.98
-9411.44
-9071.28
-8724.75
-8369.83
-8004.24
-7625.36
-7230.24
-6815.54
-6377.63
-5912.57
-5416.37
-4885.26
-4316.07
-3706.57
-3055.24
-2359.61
-1614.06
-815.934
-7.73619
-0.256706
-0.395109
-0.528059
-0.608451
-0.643229
-0.634894
-0.580857
-0.491321
-0.381148
-0.258285
-0.129204
0.000589059
0.128012
0.251101
0.370242
0.484986
0.596146
0.70453
0.811317
0.917764
1.02387
1.12971
1.23533
-12064.8
-11734.2
-11402.9
-11070.2
-10735.7
-10398.5
-10057.8
-9712.55
-9361.69
-9003.88
-8637.59
-8260.99
-7871.88
-7467.65
-7045.17
-6600.73
-6130.05
-5628.34
-5090.6
-4512.07
-3888.7
-3217.28
-2494.22
-1713.86
-875.882
-8.34498
-6.23796
-3.70579
-2.68508
-2.03454
-1.63563
-1.37533
-1.17815
-0.997969
-0.808761
-0.602638
-0.38039
-0.14765
0.0897292
0.326612
0.558555
0.776276
0.985642
1.18774
1.38406
1.57436
1.75837
1.93607
2.10774
2.27377
-12061.2
-11722.8
-11382.4
-11039
-10691.7
-10339.8
-9982.81
-9620.14
-9251.41
-8876.08
-8493.48
-8102.62
-7702.08
-7289.83
-6863.08
-6418.12
-5950.23
-5453.65
-4921.7
-4347.33
-3724.36
-3049.75
-2326.73
-1567.61
-794.204
-9.53349
-8.56988
-5.93007
-4.58137
-3.5902
-2.68814
-1.87428
-1.15444
-0.508851
0.075188
0.613175
1.11482
1.58618
2.0306
2.44994
2.84448
3.21513
3.56137
3.88584
4.19038
4.47631
4.74465
4.99626
5.23194
5.45247
-12053.1
-11698.2
-11340.1
-10977.8
-10610.4
-10237.9
-9860.42
-9478.55
-9093.13
-8705.1
-8315.37
-7924.65
-7533.26
-7140.88
-6746.36
-6347.54
-5941
-5521.83
-5083.44
-4617.32
-4113.29
-3560.18
-2950
-2280.17
-1556.15
-796.906
-8.69518
-2.74115
-2.52175
-1.48948
-0.839178
-0.212717
0.37747
0.957462
1.55626
2.15745
2.7572
3.34685
3.92268
4.48132
5.02005
5.53618
6.02749
6.49246
6.92992
7.33902
7.71921
8.07018
8.39217
8.68565
-12027.4
-11620.6
-11209.5
-10793
-10370.7
-9943.38
-9512.23
-9079.15
-8646.39
-8216.45
-7791.85
-7375.02
-6968.1
-6572.8
-6190.18
-5820.5
-5463.02
-5115.7
-4775.01
-4435.61
-4090.16
-3729.3
-3341.92
-2916.09
-2440.96
-1909.9
-1325.39
-704.702
-8.33918
-0.69065
-0.786687
-0.387356
-0.123985
0.105959
0.964769
1.76919
2.51844
3.23113
3.92202
4.58641
5.23603
5.86244
6.46556
7.04308
7.59223
8.1094
8.59136
9.03517
9.43911
9.80205
-11982.7
-11485.8
-10984
-10476.3
-9963.13
-9445.99
-8927.38
-8410.43
-7898.67
-7395.8
-6905.48
-6431.15
-5975.85
-5542.11
-5131.77
-4745.98
-4385.02
-4048.31
-3734.29
-3440.38
-3162.92
-2897.16
-2637.26
-2376.43
-2107.29
-1822.36
-1514.88
-1179.55
-812.775
-410.702
-4.1786
-0.232459
-0.00921369
-0.000469294
0.00208285
0.019042
0.148906
1.19705
2.07595
2.89304
3.64514
4.36073
5.06962
5.75932
6.44141
7.10232
7.73472
8.32956
8.87874
9.37598
-11939.5
-11357
-10771.1
-10181.6
-9589.56
-8997.42
-8408.33
-7826.08
-7254.75
-6698.47
-6161.16
-5646.38
-5157.13
-4695.8
-4264.01
-3862.65
-3491.86
-3151
-2838.75
-2553.15
-2291.67
-2051.31
-1828.67
-1620.1
-1421.74
-1229.66
-1039.93
-848.664
-652.059
-446.533
-228.923
-2.22926
-2.6134
-0.0481369
-0.0160172
-0.00100997
2.37393e-06
0.000853011
0.00311051
0.0216131
0.163071
1.31129
2.29262
3.20789
4.0819
4.94855
5.82232
6.66996
7.47442
8.21694
-11922.6
-11307.3
-10691.3
-10075
-9460.08
-8848.86
-8244.25
-7649.55
-7068.24
-6503.8
-5959.53
-5438.4
-4942.97
-4475.33
-4037
-3628.99
-3251.73
-2905.14
-2588.62
-2301.13
-2041.24
-1807.17
-1596.9
-1408.21
-1238.77
-1086.21
-948.164
-822.341
-706.529
-598.634
-496.658
-398.611
-302.786
-205.976
-106.574
-1.06298
-0.0227355
-0.00448001
-0.000161503
-5.66334e-06
6.83008e-05
0.00108344
0.00439572
0.0310829
0.233433
1.86051
3.29314
4.61728
5.83215
6.94552
-11925
-11314.9
-10705
-10096.4
-9490.7
-8889.96
-8296.69
-7713.54
-7143.25
-6588.49
-6051.8
-5535.53
-5041.76
-4572.35
-4128.79
-3712.31
-3323.77
-2963.68
-2632.17
-2329.03
-2053.66
-1805.12
-1582.15
-1383.2
-1206.52
-1050.17
-912.134
-790.346
-682.757
-587.375
-502.295
-425.723
-355.986
-291.53
-230.939
-172.879
-116.169
-59.0002
-0.56596
-0.0135791
-0.00459342
-0.000165314
-2.30041e-06
7.78342e-05
0.00174257
0.0291854
0.253717
2.14168
3.80935
5.40198
-11928.1
-11324.5
-10722.4
-10123.1
-9528.7
-8941.11
-8362.41
-7794.57
-7239.36
-6698.43
-6173.32
-5665.53
-5176.55
-4707.83
-4260.77
-3836.69
-3436.81
-3062.22
-2713.8
-2392.16
-2097.61
-1830.08
-1589.09
-1373.79
-1182.93
-1014.97
-868.157
-740.56
-630.192
-535.062
-453.231
-382.863
-322.249
-269.828
-224.185
-184.051
-148.284
-115.847
-85.7809
-57.2339
-29.0507
-0.28006
-0.00753946
-0.0026833
-0.00140279
-6.3802e-05
0.000636577
0.0241149
0.250996
2.30241
-11917.7
-11295.1
-10679.1
-10073.7
-9481.94
-8905.43
-8344.74
-7799.74
-7269.86
-6754.37
-6252.62
-5764.21
-5290.68
-4832.98
-4391.81
-3968.26
-3563.73
-3179.76
-2818
-2480.02
-2167.24
-1880.76
-1621.23
-1388.6
-1182.19
-1000.85
-843.013
-706.819
-590.239
-491.16
-407.476
-337.156
-278.299
-229.163
-188.185
-153.99
-125.381
-101.335
-80.9874
-63.6288
-48.7101
-35.8493
-24.8472
-15.4335
-7.29618
-0.0702914
-0.0384552
-0.000706701
0.000502933
0.0236597
-11745.5
-10925.7
-10209.2
-9566.29
-8977.39
-8428.74
-7910.53
-7415.62
-6938.79
-6476.25
-6025.38
-5584.47
-5152.66
-4729.82
-4316.44
-3913.61
-3522.86
-3146.13
-2785.61
-2443.66
-2122.84
-1825.97
-1558.28
-1319.35
-1108.4
-924.191
-765.092
-629.12
-514.075
-417.646
-337.514
-271.439
-217.318
-173.238
-137.492
-108.596
-85.2802
-66.4783
-51.3073
-39.044
-29.1
-20.9973
-14.3447
-8.81562
-4.13001
-0.0379161
-0.000354268
-0.000217449
-8.72485e-05
6.11754e-05
-0.501531
-0.426505
-0.3856
-0.327516
-0.247642
-0.138437
-0.0069259
0.0159298
0.163191
0.309095
0.453603
0.598062
0.74118
0.882469
1.02142
1.15754
1.29036
1.41942
1.54432
1.66469
1.78022
1.89064
1.99575
2.09541
2.18953
2.27788
2.36017
2.43625
2.50606
2.56963
2.62703
2.67838
2.72383
2.76353
2.79764
2.82632
2.84972
2.86799
2.88126
2.88968
2.89338
2.89251
2.88722
2.8777
2.86412
2.84673
2.82575
2.80144
2.77408
2.74393
-0.000139824
-0.000128265
-0.000156054
-2.67945e-05
0.00188914
0.019463
0.0331133
0.268863
0.495418
0.713071
0.922368
1.12357
1.31721
1.50391
1.6841
1.85807
2.02591
2.18762
2.34306
2.49205
2.63438
2.76984
2.89825
3.01949
3.13349
3.24043
3.34068
3.43457
3.5224
3.6045
3.68115
3.75266
3.8193
3.88134
3.93901
3.99253
4.04178
4.0866
4.12696
4.16286
4.19436
4.22156
4.24458
4.26355
4.27865
4.29008
4.29806
4.30279
4.30444
4.30318
0.000745356
0.00160912
0.00565944
0.041177
0.340312
0.620308
0.883359
1.13312
1.37022
1.59615
1.81331
2.02332
2.22699
2.42493
2.61753
2.80495
2.98723
3.16426
3.33586
3.5018
3.66181
3.81566
3.96313
4.10403
4.23825
4.36571
4.48639
4.6003
4.70751
4.80809
4.90217
4.98988
5.07139
5.14687
5.21652
5.28058
5.33954
5.39396
5.44424
5.49074
5.53375
5.57354
5.61035
5.64441
5.67596
5.70524
5.73244
5.75755
5.78107
5.80308
0.615535
0.878955
1.12818
1.36553
1.59255
1.8137
2.03051
2.24243
2.44961
2.65207
2.8499
3.04324
3.23224
3.41702
3.59764
3.77413
3.94644
4.11448
4.27812
4.43722
4.59161
4.74114
4.8857
5.02517
5.1595
5.28864
5.41259
5.53138
5.64506
5.75369
5.85737
5.9562
6.05029
6.13977
6.22477
6.30542
6.38188
6.45429
6.52279
6.58755
6.64871
6.70641
6.7608
6.81205
6.86046
6.90599
6.94891
6.98929
7.02743
7.06334
1.82265
2.06102
2.28725
2.50179
2.70594
2.90103
3.08836
3.26905
3.444
3.61393
3.77939
3.94077
4.09838
4.25242
4.403
4.5502
4.69402
4.83443
4.97138
5.10481
5.23464
5.36082
5.48329
5.60201
5.71697
5.8281
5.9355
6.0391
6.13906
6.23529
6.32801
6.41713
6.5029
6.58521
6.66435
6.74021
6.8131
6.88288
6.94993
7.01405
7.07559
7.13448
7.19086
7.24476
7.29627
7.34545
7.39233
7.43695
7.47909
7.51882
2.72965
2.91563
3.09275
3.26163
3.42296
3.57742
3.72566
3.8683
4.00587
4.13886
4.26765
4.3926
4.51395
4.63194
4.74672
4.85841
4.9671
5.07284
5.17569
5.27565
5.37276
5.46703
5.55846
5.64709
5.73291
5.81597
5.89628
5.97388
6.04881
6.12114
6.19092
6.25814
6.32248
6.38397
6.44264
6.4985
6.55153
6.60171
6.649
6.69336
6.73504
6.77434
6.81151
6.84676
6.88031
6.91239
6.94319
6.97305
7.00202
7.03062
3.06524
3.19473
3.31733
3.43364
3.54416
3.6493
3.7494
3.84475
3.93593
4.02337
4.10744
4.18845
4.26663
4.34222
4.41542
4.48641
4.55539
4.62201
4.68626
4.7483
4.80829
4.86635
4.92261
4.97719
5.03018
5.08167
5.13174
5.18054
5.22798
5.27429
5.31955
5.36371
5.40699
5.44944
5.49118
5.53235
5.5731
5.61361
5.6541
5.69482
5.73575
5.77674
5.81778
5.85881
5.8998
5.94075
5.98159
6.02229
6.06296
6.10367
2.12446
2.19881
2.27098
2.34165
2.41134
2.4805
2.54948
2.61862
2.68787
2.75721
2.82667
2.89622
2.96589
3.03567
3.10558
3.17565
3.24589
3.31632
3.38695
3.45779
3.52888
3.60025
3.67192
3.74389
3.81618
3.88879
3.96172
4.03495
4.10846
4.18221
4.25616
4.33024
4.40437
4.47845
4.55236
4.62597
4.69913
4.77166
4.84339
4.91412
4.98365
5.05177
5.11828
5.18298
5.24569
5.30624
5.36461
5.42044
5.47373
5.5243
1.3405
1.44526
1.54949
1.65339
1.75692
1.86008
1.96283
2.06517
2.16712
2.26872
2.36998
2.4709
2.57156
2.67198
2.77225
2.87249
2.97278
3.07322
3.17403
3.27515
3.37682
3.47913
3.58213
3.68593
3.79061
3.89623
4.0028
4.11025
4.2185
4.32751
4.43709
4.54713
4.65732
4.76733
4.87677
4.98521
5.0922
5.19722
5.29971
5.399
5.49442
5.58531
5.67106
5.75116
5.82503
5.89236
5.95305
6.00688
6.0544
6.09632
2.43455
2.59017
2.74062
2.88654
3.02842
3.16663
3.30155
3.43325
3.56281
3.69058
3.81664
3.9412
4.06468
4.18747
4.30981
4.43178
4.55343
4.67492
4.79657
4.91842
5.04078
5.16389
5.28774
5.41249
5.53832
5.66516
5.793
5.92156
6.05048
6.17952
6.30826
6.43622
6.56297
6.68779
6.80994
6.92865
7.04326
7.15294
7.25711
7.35485
7.44539
7.52806
7.60273
7.66852
7.7255
7.7737
7.81305
7.84382
7.86647
7.88178
5.65868
5.85146
6.03181
6.20096
6.36066
6.51247
6.65885
6.80029
6.93754
7.07103
7.20135
7.32847
7.45251
7.57373
7.69232
7.80816
7.92106
8.03115
8.13813
8.24151
8.34134
8.43756
8.52958
8.61727
8.70035
8.77833
8.85089
8.91789
8.97908
9.03424
9.08298
9.12512
9.16048
9.18935
9.21173
9.22774
9.23779
9.24224
9.24153
9.23632
9.22771
9.21666
9.20439
9.19109
9.17767
9.16508
9.15406
9.14466
9.13699
9.13068
8.95151
9.19093
9.40559
9.59738
9.76833
9.92086
10.0565
10.1752
10.2793
10.369
10.4442
10.506
10.5547
10.5909
10.6152
10.6282
10.6304
10.6222
10.6038
10.5763
10.5399
10.4954
10.4426
10.3827
10.3161
10.2432
10.1647
10.0805
9.99183
9.89882
9.80219
9.7024
9.60031
9.49601
9.39109
9.28622
9.18218
9.08038
8.98222
8.88865
8.80191
8.72333
8.65424
8.59558
8.54839
8.51271
8.48781
8.4726
8.46516
8.46355
10.124
10.4053
10.6484
10.8558
11.0272
11.1646
11.2694
11.3465
11.3997
11.429
11.4361
11.4227
11.3904
11.3407
11.2749
11.1945
11.1007
10.9948
10.878
10.7514
10.6162
10.4734
10.3243
10.1696
10.0104
9.84758
9.68196
9.51434
9.34545
9.17593
9.00645
8.83762
8.67
8.50419
8.34068
8.18
8.02265
7.86915
7.71999
7.57572
7.43686
7.30393
7.17742
7.05765
6.94478
6.83878
6.73946
6.64645
6.55926
6.47726
9.81767
10.2031
10.5336
10.8088
11.0311
11.2021
11.3298
11.417
11.4663
11.481
11.4641
11.4187
11.3477
11.2535
11.1388
11.0059
10.857
10.694
10.5191
10.334
10.1406
9.9403
9.73484
9.52559
9.31374
9.10068
8.88742
8.67489
8.46395
8.25533
8.04966
7.84747
7.64922
7.45524
7.26583
7.08119
6.90143
6.72661
6.55674
6.39175
6.23159
6.07614
5.92527
5.77883
5.63667
5.49858
5.36437
5.23383
5.10675
4.98291
8.88563
9.47368
9.97887
10.4023
10.7474
11.0198
11.2242
11.366
11.4511
11.4876
11.4805
11.4348
11.3554
11.2466
11.1127
10.957
10.783
10.5936
10.3914
10.1788
9.95798
9.73082
9.49904
9.2642
9.02764
8.79057
8.55404
8.31897
8.08615
7.85626
7.62988
7.40747
7.18945
6.97612
6.76774
6.56451
6.36655
6.17394
5.98672
5.80489
5.62841
5.45723
5.29124
5.13037
4.97448
4.82344
4.67712
4.53536
4.39802
4.26494
7.95322
8.84039
9.60255
10.242
10.7654
11.1816
11.5009
11.7337
11.89
11.9798
12.0121
11.995
11.9359
11.8411
11.7165
11.5668
11.3963
11.2088
11.0073
10.7948
10.5734
10.3454
10.1124
9.87608
9.63764
9.39826
9.15893
8.92049
8.68366
8.44906
8.21722
7.98857
7.76351
7.54232
7.32527
7.11257
6.90437
6.70081
6.50196
6.30789
6.11864
5.93421
5.75461
5.5798
5.40975
5.24441
5.08372
4.92763
4.77605
4.62891
6.86145
8.16096
9.29471
10.2641
11.0781
11.7496
12.293
12.7227
13.0526
13.2957
13.4635
13.5663
13.6132
13.612
13.5696
13.4919
13.384
13.2503
13.0946
12.9202
12.7301
12.5267
12.3122
12.0885
11.8574
11.6204
11.3788
11.1338
10.8864
10.6376
10.3882
10.1389
9.89047
9.64342
9.39828
9.15553
8.91555
8.67871
8.44532
8.21564
7.98991
7.76831
7.55101
7.33815
7.12984
6.92615
6.72716
6.53289
6.34337
6.15861
4.19419
5.93276
7.50164
8.9003
10.1353
11.2167
12.1563
12.9664
13.6591
14.2458
14.7371
15.1427
15.4713
15.7307
15.928
16.0695
16.1607
16.2068
16.2123
16.1813
16.1175
16.0243
15.9046
15.7614
15.5972
15.4143
15.2148
15.0008
14.774
14.5362
14.289
14.0337
13.7717
13.5042
13.2323
12.9571
12.6795
12.4004
12.1206
11.8407
11.5616
11.2837
11.0076
10.7338
10.4627
10.1948
9.93029
9.66956
9.41286
9.16043
0.234727
2.0338
3.74563
5.35698
6.86107
8.25611
9.54298
10.7245
11.8044
12.7873
13.6779
14.4809
15.201
15.8427
16.4103
16.908
17.3397
17.7092
18.02
18.2757
18.4794
18.6345
18.744
18.8109
18.838
18.828
18.7837
18.7076
18.6021
18.4697
18.3126
18.1331
17.9331
17.7146
17.4797
17.23
16.9672
16.693
16.4089
16.1163
15.8166
15.511
15.2006
14.8866
14.5699
14.2516
13.9325
13.6132
13.2947
12.9776
0.00779214
0.147576
1.41667
2.67835
3.92645
5.15387
6.35623
7.52906
8.6678
9.76809
10.8258
11.8372
12.799
13.7074
14.5596
15.3539
16.0893
16.7653
17.3817
17.9388
18.4371
18.8778
19.2621
19.5916
19.8679
20.0931
20.2693
20.3987
20.4836
20.5263
20.5294
20.4951
20.426
20.3245
20.1929
20.0335
19.8486
19.6404
19.411
19.1625
18.8968
18.6157
18.3212
18.0148
17.6981
17.3727
17.0399
16.7012
16.3576
16.0105
2.71769
2.69873
2.67909
2.65881
2.63795
2.61653
2.59461
2.57221
2.54939
2.52618
2.50261
2.4787
2.45447
2.4299
2.40499
2.37974
2.35413
2.32814
2.30173
2.27486
2.24749
2.21958
2.19111
2.16207
2.13248
2.10232
2.0716
2.04028
2.00834
1.97574
1.94242
1.90831
1.87331
1.83728
1.80003
1.76133
1.72089
1.67867
1.63461
1.58887
1.54159
1.49291
1.44298
1.39191
1.33978
1.28663
1.23248
1.17734
1.12118
1.06395
1.0057
0.946496
0.886496
0.825848
0.764682
0.703093
0.641144
0.578861
0.516213
0.453109
0.389369
0.324735
0.259034
0.192559
0.125679
0.0589248
-0.00737949
-0.0730078
-0.137737
-0.201427
-0.264026
-0.325552
-0.386197
-0.445998
-0.504418
-0.561207
-0.615682
-0.667376
-0.71593
-0.761183
-0.803148
-0.841978
-0.87801
-0.911291
-0.941223
-0.967265
-0.989563
-1.00857
-1.02496
-1.03887
-1.05007
-1.05862
-1.06482
-1.06923
-1.07225
-1.07365
-1.07344
-1.07195
-1.06953
-1.06613
-1.0618
-1.05673
-1.05084
-1.04431
-1.03719
-1.03004
-1.02187
-1.01234
-1.0011
-0.988054
-0.973151
-0.956401
-0.937965
-0.918147
-0.897205
-0.874875
-0.850982
-0.825814
-0.799913
-0.773608
-0.746314
-0.717783
-0.688168
-0.658092
-0.628265
-0.5993
-0.571546
-0.545297
-0.520852
-0.498624
-0.479058
-0.462635
-0.449829
-0.441072
-0.436762
-0.436142
-0.438497
-0.443246
-0.449902
-0.458036
-0.467284
-0.477363
-0.488075
-0.49929
-0.510928
-0.52293
-0.535245
-0.547825
-0.560634
-0.573641
-0.586818
-0.600135
-0.613555
-0.627031
-0.640505
-0.653906
-0.667154
-0.680177
-0.692928
-0.705392
-0.717578
-0.729515
-0.741246
-0.752825
-0.764315
-0.775787
-0.787323
-0.798993
-0.810885
-0.823087
-0.835674
-0.848718
-0.862283
-0.87643
-0.89122
-0.906675
-0.92286
-0.939808
-0.957544
-0.976089
-0.995452
-1.01564
-1.03666
-1.05848
-1.08106
-1.10441
-1.1285
-1.15332
-1.17878
-1.20481
-1.23134
-1.25833
-1.2858
-1.31362
-1.34172
-1.36996
-1.39813
-1.42611
-1.45382
-1.48121
-1.50829
-1.53503
-1.56133
-1.58719
-1.61241
-1.6368
-1.66001
-1.6821
-1.70326
-1.72422
-1.74468
-1.76491
-1.78479
-1.80381
-1.82149
-1.83785
-1.85333
-1.86745
-1.88044
-1.89173
-1.90045
-1.90642
-1.91077
-1.91357
-1.91613
-1.91854
-1.9204
-1.92137
-1.92126
-1.91994
-1.91726
-1.91327
-1.90823
-1.90253
-1.89667
-1.89242
-1.88852
-1.88519
-1.88308
-1.88204
-1.88179
-1.88232
-1.88372
-1.8862
-1.89015
-1.89619
-1.90505
-1.91719
-1.93361
-1.95497
-1.9817
-2.01403
-2.05197
-2.09535
-2.14392
-2.1967
-2.2533
-2.3131
-2.37498
-2.43765
-2.49985
-2.56041
-2.6184
-2.67322
-2.72466
-2.77292
-2.8173
-2.85924
-2.90008
-2.93996
-2.97844
-3.01461
-3.0473
-3.07544
-3.09715
-3.11004
-3.11391
-3.10166
-3.0732
-3.02905
-2.96872
-2.8937
-2.80419
-2.70179
-2.58751
-2.46234
-2.32761
-2.18503
-2.03692
-1.886
-1.73517
-1.58719
-1.44429
-1.30765
-1.17689
-1.04901
-0.91694
-0.766011
-0.566844
-0.261509
4.30001
4.29706
4.29341
4.28908
4.2841
4.27849
4.27229
4.26556
4.25833
4.25066
4.24256
4.23402
4.22501
4.2155
4.20548
4.19492
4.18382
4.17214
4.15989
4.14706
4.13365
4.11968
4.10517
4.09007
4.07433
4.05792
4.04079
4.02292
4.00429
3.98487
3.96468
3.94372
3.92203
3.89963
3.87649
3.85256
3.82779
3.80215
3.77563
3.74823
3.71997
3.69089
3.66102
3.63042
3.59905
3.56686
3.53385
3.50001
3.46537
3.42996
3.39385
3.3571
3.31968
3.28157
3.24281
3.20341
3.16342
3.12286
3.08182
3.04035
2.99845
2.95611
2.91336
2.87026
2.82685
2.78313
2.73913
2.69489
2.65043
2.60579
2.56101
2.51611
2.47112
2.42608
2.38099
2.33588
2.2908
2.24579
2.20091
2.15617
2.11158
2.06715
2.02285
1.97872
1.93476
1.891
1.84744
1.80411
1.76104
1.71824
1.67577
1.63366
1.59196
1.55056
1.50938
1.46852
1.42816
1.38806
1.3481
1.30853
1.26913
1.22973
1.19002
1.15027
1.11052
1.07089
1.03165
0.993139
0.955546
0.918902
0.883148
0.848171
0.813844
0.780056
0.746768
0.713962
0.681608
0.649589
0.617824
0.586158
0.55454
0.522904
0.491237
0.459607
0.428051
0.396586
0.365218
0.333943
0.302753
0.27164
0.240601
0.209636
0.178752
0.147967
0.117307
0.0868102
0.0565174
0.0264699
-0.00329441
-0.0327421
-0.061846
-0.0905851
-0.118945
-0.146917
-0.174496
-0.201681
-0.228472
-0.254872
-0.280888
-0.306526
-0.331797
-0.356711
-0.381281
-0.40552
-0.429444
-0.453074
-0.476431
-0.499542
-0.522439
-0.545158
-0.56774
-0.590232
-0.612687
-0.63515
-0.657683
-0.680343
-0.703207
-0.726311
-0.749728
-0.773541
-0.797809
-0.822595
-0.84796
-0.873965
-0.900682
-0.928131
-0.956376
-0.985472
-1.01544
-1.04629
-1.07804
-1.11069
-1.14418
-1.17845
-1.21344
-1.24914
-1.28543
-1.3222
-1.35934
-1.39671
-1.43421
-1.47185
-1.50978
-1.54782
-1.58579
-1.62339
-1.66043
-1.69688
-1.73297
-1.76858
-1.80328
-1.83696
-1.86945
-1.90065
-1.93059
-1.95894
-1.98559
-2.0113
-2.03577
-2.05863
-2.08021
-2.10041
-2.11941
-2.13706
-2.153
-2.16746
-2.18131
-2.19364
-2.20519
-2.21604
-2.22469
-2.23148
-2.23654
-2.23897
-2.23942
-2.23846
-2.23598
-2.23226
-2.22717
-2.22083
-2.21293
-2.20307
-2.19096
-2.17705
-2.16159
-2.14477
-2.12859
-2.1123
-2.09667
-2.08163
-2.06676
-2.052
-2.03743
-2.02331
-2.01026
-1.99982
-1.99176
-1.98738
-1.98747
-1.99224
-2.00186
-2.0166
-2.03674
-2.06254
-2.09432
-2.13156
-2.17418
-2.22163
-2.27283
-2.32655
-2.3814
-2.43601
-2.4894
-2.54078
-2.58987
-2.63688
-2.681
-2.72289
-2.76391
-2.80475
-2.84541
-2.88561
-2.92473
-2.96186
-2.99589
-3.02567
-3.05004
-3.06725
-3.0738
-3.06641
-3.04268
-3.00123
-2.94071
-2.86106
-2.76293
-2.6469
-2.51445
-2.36745
-2.20914
-2.04312
-1.87323
-1.7033
-1.53678
-1.37617
-1.22247
-1.0743
-0.926136
-0.764913
-0.562464
-0.260354
5.81976
5.83093
5.84134
5.85134
5.86082
5.8698
5.87827
5.88634
5.89409
5.90107
5.90745
5.91355
5.91908
5.92403
5.92839
5.93211
5.9352
5.93765
5.93947
5.94064
5.94128
5.94136
5.94039
5.9389
5.93676
5.93385
5.93017
5.92572
5.92045
5.91442
5.9076
5.90013
5.89203
5.88287
5.87293
5.86236
5.85094
5.83865
5.82553
5.81153
5.79673
5.78126
5.765
5.74761
5.72958
5.71068
5.69083
5.66991
5.64801
5.62519
5.60131
5.5761
5.54993
5.52258
5.49401
5.46406
5.4329
5.4005
5.3669
5.33193
5.29568
5.25809
5.21898
5.17843
5.13634
5.09287
5.04798
5.00159
4.95391
4.90475
4.85412
4.80214
4.74882
4.69425
4.63847
4.58146
4.52322
4.46391
4.40345
4.34184
4.27914
4.21532
4.15035
4.08429
4.01711
3.94878
3.87926
3.80854
3.73663
3.66351
3.58922
3.51384
3.43738
3.35988
3.28137
3.20189
3.12155
3.04042
2.95859
2.87615
2.79319
2.70978
2.62604
2.54205
2.45794
2.3738
2.28975
2.20591
2.1224
2.03932
1.95678
1.87488
1.79373
1.71343
1.63405
1.55565
1.47829
1.40249
1.32821
1.25543
1.18415
1.11435
1.04605
0.979242
0.913937
0.850136
0.787843
0.727057
0.667777
0.609997
0.55371
0.498906
0.445573
0.393696
0.343258
0.294239
0.246615
0.200363
0.155454
0.111858
0.0695387
0.0284615
-0.0114135
-0.0501279
-0.0877255
-0.124252
-0.159755
-0.194284
-0.227891
-0.260627
-0.292548
-0.323712
-0.354176
-0.384003
-0.413256
-0.442004
-0.470317
-0.498268
-0.525936
-0.553399
-0.580746
-0.60806
-0.635439
-0.662968
-0.690749
-0.718878
-0.747467
-0.776581
-0.806327
-0.836816
-0.868132
-0.900346
-0.933531
-0.967746
-1.00304
-1.03943
-1.07692
-1.11556
-1.1553
-1.19617
-1.23809
-1.28102
-1.32487
-1.36947
-1.41467
-1.46032
-1.50629
-1.5524
-1.5985
-1.6444
-1.68992
-1.73541
-1.7803
-1.82466
-1.86824
-1.9109
-1.95303
-1.99393
-2.03369
-2.07209
-2.10942
-2.14513
-2.17889
-2.21065
-2.2413
-2.27009
-2.29652
-2.32078
-2.34299
-2.36376
-2.38301
-2.40067
-2.41678
-2.43201
-2.44603
-2.45955
-2.47127
-2.48162
-2.49117
-2.49941
-2.50619
-2.51106
-2.5156
-2.51867
-2.51932
-2.51698
-2.51353
-2.50762
-2.49936
-2.48963
-2.4767
-2.46193
-2.44523
-2.42617
-2.40591
-2.38369
-2.35969
-2.33416
-2.3074
-2.28071
-2.2537
-2.22612
-2.19825
-2.17094
-2.14612
-2.12356
-2.10465
-2.08945
-2.07895
-2.07282
-2.07083
-2.07322
-2.08036
-2.09265
-2.11048
-2.13396
-2.16306
-2.19724
-2.23566
-2.27734
-2.32097
-2.36537
-2.40961
-2.45309
-2.49559
-2.53738
-2.57774
-2.61719
-2.6566
-2.69687
-2.73807
-2.78013
-2.8227
-2.86506
-2.90625
-2.94507
-2.98005
-3.00932
-3.03056
-3.04114
-3.0379
-3.018
-2.97885
-2.91797
-2.83354
-2.72509
-2.59426
-2.44361
-2.27727
-2.09941
-1.91492
-1.72856
-1.54472
-1.36703
-1.19774
-1.0369
-0.880785
-0.718628
-0.525299
-0.244911
7.09074
7.10922
7.12709
7.14473
7.16201
7.17893
7.19571
7.21214
7.22792
7.24314
7.25786
7.27249
7.28673
7.30058
7.31403
7.32707
7.33972
7.35196
7.3638
7.37544
7.38666
7.39727
7.40727
7.41686
7.42617
7.43502
7.4434
7.45131
7.45874
7.46569
7.47236
7.47859
7.48409
7.48897
7.49314
7.49704
7.50035
7.50306
7.50516
7.5066
7.50759
7.50791
7.50737
7.50588
7.50373
7.50087
7.49712
7.49244
7.4869
7.48037
7.47257
7.46346
7.45305
7.44142
7.42837
7.41369
7.39754
7.37996
7.36054
7.33934
7.3161
7.29121
7.26429
7.23546
7.20427
7.1711
7.13575
7.09804
7.05789
7.01523
6.97027
6.92283
6.87311
6.82092
6.76587
6.70866
6.64885
6.58627
6.52123
6.45342
6.38258
6.30899
6.23241
6.15283
6.07031
5.98466
5.8959
5.80401
5.70893
5.61062
5.50908
5.40442
5.29673
5.18596
5.07208
4.95513
4.83522
4.71258
4.58745
4.46001
4.33045
4.19909
4.06613
3.93183
3.79639
3.66006
3.52312
3.38585
3.24854
3.11148
2.97495
2.83923
2.70504
2.57275
2.44252
2.31454
2.18899
2.06603
1.94581
1.82849
1.71418
1.60299
1.49501
1.39031
1.28894
1.19094
1.09632
1.0051
0.917246
0.832746
0.751555
0.673623
0.598886
0.527272
0.458701
0.393083
0.330323
0.27032
0.212967
0.158154
0.105767
0.0556888
0.00780079
-0.038018
-0.08189
-0.123938
-0.164288
-0.203063
-0.24039
-0.276395
-0.311205
-0.344948
-0.377753
-0.409748
-0.441066
-0.471838
-0.502199
-0.532282
-0.562229
-0.592166
-0.622242
-0.652592
-0.683355
-0.714662
-0.746649
-0.779443
-0.813169
-0.847926
-0.883822
-0.920942
-0.959356
-0.999117
-1.04025
-1.08277
-1.12665
-1.17185
-1.21831
-1.26592
-1.31462
-1.36431
-1.41486
-1.46609
-1.51787
-1.57
-1.62226
-1.67449
-1.72658
-1.77836
-1.82969
-1.88042
-1.93028
-1.97896
-2.02645
-2.07225
-2.11721
-2.16072
-2.20226
-2.24178
-2.27921
-2.31495
-2.34846
-2.37998
-2.40952
-2.43584
-2.45984
-2.48127
-2.50074
-2.51891
-2.53534
-2.55025
-2.56422
-2.57808
-2.58964
-2.60002
-2.60892
-2.61651
-2.62431
-2.63165
-2.63837
-2.6448
-2.65234
-2.65794
-2.66245
-2.66514
-2.66598
-2.6661
-2.66376
-2.65905
-2.65169
-2.64328
-2.63206
-2.61687
-2.59956
-2.57744
-2.55337
-2.52822
-2.50061
-2.47114
-2.44037
-2.40881
-2.37651
-2.34507
-2.31288
-2.28178
-2.25192
-2.22456
-2.20074
-2.18062
-2.16402
-2.1512
-2.14158
-2.13598
-2.13514
-2.1394
-2.149
-2.16391
-2.18391
-2.20849
-2.23698
-2.26851
-2.30206
-2.33678
-2.37214
-2.40775
-2.44399
-2.48054
-2.51739
-2.55475
-2.59362
-2.63435
-2.67685
-2.72092
-2.76604
-2.81135
-2.85559
-2.8972
-2.93427
-2.9645
-2.98531
-2.99382
-2.98718
-2.96235
-2.91679
-2.84877
-2.7573
-2.64236
-2.50423
-2.34506
-2.16971
-1.98326
-1.79108
-1.59847
-1.41005
-1.22973
-1.06015
-0.902041
-0.753
-0.604855
-0.437477
-0.203975
7.54813
7.56792
7.58713
7.60579
7.62394
7.64164
7.65896
7.676
7.69281
7.70945
7.72594
7.74234
7.75868
7.77497
7.79125
7.8076
7.82418
7.84048
7.8572
7.87407
7.891
7.90822
7.92567
7.94353
7.96123
7.97951
7.99802
8.01673
8.03568
8.05493
8.07459
8.09403
8.11387
8.13395
8.15415
8.1745
8.19505
8.21568
8.23663
8.25711
8.27805
8.29896
8.31987
8.3405
8.36118
8.38178
8.40195
8.42193
8.44134
8.46045
8.4791
8.497
8.51427
8.53056
8.54614
8.56058
8.57399
8.58588
8.59668
8.60597
8.61383
8.61975
8.62395
8.62634
8.62649
8.62451
8.62035
8.61343
8.60411
8.59152
8.57604
8.55758
8.5355
8.51032
8.4809
8.4479
8.41105
8.37021
8.325
8.27539
8.22145
8.16245
8.09864
8.02988
7.95548
7.87553
7.7902
7.69868
7.6013
7.49782
7.38827
7.27257
7.15047
7.02203
6.88706
6.74577
6.59792
6.44404
6.28391
6.11828
5.94731
5.77146
5.59133
5.40728
5.21974
5.02921
4.83623
4.6414
4.44535
4.24869
4.05207
3.85613
3.66148
3.46873
3.27846
3.09122
2.9075
2.72779
2.55249
2.38199
2.21661
2.05662
1.90226
1.75371
1.61109
1.47448
1.34393
1.21943
1.10095
0.98841
0.881702
0.780694
0.685225
0.595114
0.510163
0.430157
0.354871
0.284068
0.217507
0.15494
0.0961184
0.0407909
-0.011292
-0.0603782
-0.106713
-0.150538
-0.19209
-0.231603
-0.269305
-0.305418
-0.340165
-0.373753
-0.406399
-0.438304
-0.46967
-0.500696
-0.531572
-0.562491
-0.593635
-0.625183
-0.657308
-0.690176
-0.723942
-0.758752
-0.794738
-0.832017
-0.870688
-0.910831
-0.952502
-0.995734
-1.04053
-1.08687
-1.13471
-1.18396
-1.23452
-1.28628
-1.33909
-1.39279
-1.4472
-1.50215
-1.55738
-1.61267
-1.66787
-1.72287
-1.77764
-1.83203
-1.88589
-1.93902
-1.99096
-2.04212
-2.09231
-2.1409
-2.18808
-2.23309
-2.27565
-2.31538
-2.35246