/*--------------------------------*- C++ -*----------------------------------*\
| =========                 |                                                 |
| \\      /  F ield         | OpenFOAM: The Open Source CFD Toolbox           |
|  \\    /   O peration     | Version:  2.4.0                                 |
|   \\  /    A nd           | Web:      www.OpenFOAM.org                      |
|    \\/     M anipulation  |                                                 |
\*---------------------------------------------------------------------------*/
FoamFile
{
    version     2.0;
    format      ascii;
    class       volScalarField;
    location    "0.011";
    object      p;
}
// * * * * * * * * * * * * * * * * * * * * * * * * * * * * * * * * * * * * * //

dimensions      [1 -1 -2 0 0 0 0];

internalField   nonuniform List<scalar> 
125
(
-0.0213824
-0.0215841
-0.0217866
-0.0219898
-0.0221937
-0.0223985
-0.0226039
-0.0228101
-0.0230171
-0.0232249
-0.0234334
-0.0236426
-0.0238527
-0.0240635
-0.0242751
-0.0244875
-0.0247006
-0.0249146
-0.0251293
-0.0253448
-0.0255611
-0.0257782
-0.0259962
-0.0262149
-0.0264344
-0.0266547
-0.0268758
-0.0270978
-0.0273206
-0.0275441
-0.0277685
-0.0279938
-0.0282198
-0.0284467
-0.0286745
-0.028903
-0.0291325
-0.0293627
-0.0295938
-0.0298258
-0.0300586
-0.0302922
-0.0305268
-0.0307622
-0.0309984
-0.0312355
-0.0314735
-0.0317124
-0.0319522
-0.0321928
-0.0324343
-0.0326767
-0.03292
-0.0331642
-0.0334093
-0.0336554
-0.0339023
-0.0341501
-0.0343988
-0.0346484
-0.034899
-0.0351505
-0.0354029
-0.0356562
-0.0359105
-0.0361657
-0.0364219
-0.036679
-0.036937
-0.037196
-0.0374559
-0.0377168
-0.0379787
-0.0382415
-0.0385053
-0.0387701
-0.0390358
-0.0393025
-0.0395702
-0.0398389
-0.0401086
-0.0403792
-0.0406509
-0.0409235
-0.0411972
-0.0414719
-0.0417476
-0.0420243
-0.042302
-0.0425807
-0.0428605
-0.0431413
-0.0434231
-0.043706
-0.0439899
-0.0442748
-0.0445608
-0.0448479
-0.045136
-0.0454252
-0.0457154
-0.0460067
-0.0462991
-0.0465925
-0.0468871
-0.0471827
-0.0474794
-0.0477772
-0.0480761
-0.0483761
-0.0486772
-0.0489794
-0.0492827
-0.0495871
-0.0498927
-0.0501994
-0.0505072
-0.0508161
-0.0511262
-0.0514374
-0.0517498
-0.0520633
-0.052378
-0.0526938
-0.0530108
)
;

boundaryField
{
    BotWall
    {
        type            calculated;
        value           nonuniform 0();
    }
    FreeStream
    {
        type            calculated;
        value           nonuniform 0();
    }
    FrontNBack
    {
        type            empty;
    }
    LeftSide
    {
        type            symmetryPlane;
    }
    RightSide
    {
        type            symmetryPlane;
    }
    procBoundary8to5
    {
        type            processor;
        value           nonuniform List<scalar> 
50
(
-0.0387722
-0.0390379
-0.0393046
-0.0395723
-0.039841
-0.0401106
-0.0403813
-0.0406529
-0.0409256
-0.0411992
-0.0414739
-0.0417496
-0.0420263
-0.042304
-0.0425827
-0.0428625
-0.0431432
-0.0434251
-0.0437079
-0.0439918
-0.0442768
-0.0445627
-0.0448498
-0.0451379
-0.0454271
-0.0457173
-0.0460086
-0.0463009
-0.0465944
-0.0468889
-0.0471845
-0.0474812
-0.047779
-0.0480779
-0.0483779
-0.048679
-0.0489812
-0.0492845
-0.0495889
-0.0498945
-0.0502011
-0.0505089
-0.0508179
-0.0511279
-0.0514392
-0.0517515
-0.052065
-0.0523797
-0.0526955
-0.0530125
)
;
    }
    procBoundary8to6
    {
        type            processor;
        value           nonuniform List<scalar> 
75
(
-0.0213854
-0.0215871
-0.0217896
-0.0219928
-0.0221967
-0.0224014
-0.0226069
-0.0228131
-0.02302
-0.0232278
-0.0234362
-0.0236455
-0.0238555
-0.0240663
-0.0242779
-0.0244903
-0.0247034
-0.0249174
-0.0251321
-0.0253476
-0.0255639
-0.025781
-0.0259989
-0.0262176
-0.0264371
-0.0266574
-0.0268785
-0.0271004
-0.0273232
-0.0275468
-0.0277712
-0.0279964
-0.0282224
-0.0284493
-0.028677
-0.0289056
-0.029135
-0.0293652
-0.0295963
-0.0298283
-0.0300611
-0.0302947
-0.0305292
-0.0307646
-0.0310009
-0.031238
-0.031476
-0.0317148
-0.0319546
-0.0321952
-0.0324367
-0.0326791
-0.0329224
-0.0331666
-0.0334117
-0.0336577
-0.0339046
-0.0341524
-0.0344011
-0.0346507
-0.0349013
-0.0351528
-0.0354052
-0.0356585
-0.0359128
-0.036168
-0.0364241
-0.0366812
-0.0369392
-0.0371982
-0.0374581
-0.037719
-0.0379809
-0.0382437
-0.0385075
)
;
    }
    procBoundary8to7
    {
        type            processor;
        value           uniform -0.053329;
    }
    procBoundary8to9
    {
        type            processor;
        value           uniform -0.0211814;
    }
    procBoundary8to10
    {
        type            processor;
        value           nonuniform List<scalar> 
75
(
-0.0324362
-0.0326786
-0.0329219
-0.0331661
-0.0334112
-0.0336571
-0.033904
-0.0341518
-0.0344006
-0.0346502
-0.0349007
-0.0351522
-0.0354046
-0.0356579
-0.0359122
-0.0361674
-0.0364235
-0.0366806
-0.0369387
-0.0371976
-0.0374576
-0.0377185
-0.0379803
-0.0382431
-0.0385069
-0.0387716
-0.0390374
-0.0393041
-0.0395718
-0.0398404
-0.0401101
-0.0403807
-0.0406524
-0.040925
-0.0411987
-0.0414734
-0.041749
-0.0420257
-0.0423034
-0.0425822
-0.0428619
-0.0431427
-0.0434245
-0.0437074
-0.0439913
-0.0442762
-0.0445622
-0.0448493
-0.0451374
-0.0454265
-0.0457168
-0.046008
-0.0463004
-0.0465939
-0.0468884
-0.047184
-0.0474807
-0.0477785
-0.0480774
-0.0483774
-0.0486784
-0.0489806
-0.049284
-0.0495884
-0.0498939
-0.0502006
-0.0505084
-0.0508174
-0.0511274
-0.0514386
-0.051751
-0.0520645
-0.0523792
-0.052695
-0.053012
)
;
    }
    procBoundary8to11
    {
        type            processor;
        value           nonuniform List<scalar> 
50
(
-0.0213836
-0.0215854
-0.0217879
-0.0219911
-0.0221951
-0.0223998
-0.0226053
-0.0228115
-0.0230185
-0.0232262
-0.0234348
-0.0236441
-0.0238541
-0.0240649
-0.0242766
-0.0244889
-0.0247021
-0.0249161
-0.0251308
-0.0253463
-0.0255627
-0.0257798
-0.0259977
-0.0262164
-0.026436
-0.0266563
-0.0268774
-0.0270994
-0.0273222
-0.0275458
-0.0277702
-0.0279954
-0.0282215
-0.0284484
-0.0286762
-0.0289048
-0.0291342
-0.0293644
-0.0295956
-0.0298275
-0.0300603
-0.030294
-0.0305286
-0.030764
-0.0310002
-0.0312374
-0.0314754
-0.0317143
-0.031954
-0.0321947
)
;
    }
}


// ************************************************************************* //
