/*--------------------------------*- C++ -*----------------------------------*\
| =========                 |                                                 |
| \\      /  F ield         | OpenFOAM: The Open Source CFD Toolbox           |
|  \\    /   O peration     | Version:  2.4.0                                 |
|   \\  /    A nd           | Web:      www.OpenFOAM.org                      |
|    \\/     M anipulation  |                                                 |
\*---------------------------------------------------------------------------*/
FoamFile
{
    version     2.0;
    format      ascii;
    class       volVectorField;
    location    "0.011";
    object      U;
}
// * * * * * * * * * * * * * * * * * * * * * * * * * * * * * * * * * * * * * //

dimensions      [0 1 -1 0 0 0 0];

internalField   nonuniform List<vector> 
125
(
(-1.59445e-05 -0.0217128 0)
(-1.57465e-05 -0.0217129 0)
(-1.55499e-05 -0.021713 0)
(-1.53546e-05 -0.0217131 0)
(-1.5161e-05 -0.0217132 0)
(-1.49689e-05 -0.0217133 0)
(-1.47786e-05 -0.0217134 0)
(-1.45901e-05 -0.0217135 0)
(-1.44034e-05 -0.0217136 0)
(-1.42187e-05 -0.0217137 0)
(-1.40359e-05 -0.0217138 0)
(-1.3855e-05 -0.0217139 0)
(-1.36763e-05 -0.021714 0)
(-1.34995e-05 -0.0217141 0)
(-1.33248e-05 -0.0217142 0)
(-1.31522e-05 -0.0217143 0)
(-1.29817e-05 -0.0217144 0)
(-1.28132e-05 -0.0217145 0)
(-1.26468e-05 -0.0217145 0)
(-1.24825e-05 -0.0217146 0)
(-1.23203e-05 -0.0217147 0)
(-1.21601e-05 -0.0217148 0)
(-1.20019e-05 -0.0217149 0)
(-1.18457e-05 -0.021715 0)
(-1.16916e-05 -0.0217151 0)
(-1.15394e-05 -0.0217151 0)
(-1.13892e-05 -0.0217152 0)
(-1.1241e-05 -0.0217153 0)
(-1.10947e-05 -0.0217154 0)
(-1.09502e-05 -0.0217155 0)
(-1.08077e-05 -0.0217155 0)
(-1.0667e-05 -0.0217156 0)
(-1.05281e-05 -0.0217157 0)
(-1.03911e-05 -0.0217158 0)
(-1.02558e-05 -0.0217158 0)
(-1.01223e-05 -0.0217159 0)
(-9.9906e-06 -0.021716 0)
(-9.86058e-06 -0.0217161 0)
(-9.73227e-06 -0.0217161 0)
(-9.60564e-06 -0.0217162 0)
(-9.48068e-06 -0.0217163 0)
(-9.35736e-06 -0.0217163 0)
(-9.23567e-06 -0.0217164 0)
(-9.11558e-06 -0.0217165 0)
(-8.99709e-06 -0.0217165 0)
(-8.88017e-06 -0.0217166 0)
(-8.7648e-06 -0.0217167 0)
(-8.65097e-06 -0.0217167 0)
(-8.53866e-06 -0.0217168 0)
(-8.42786e-06 -0.0217169 0)
(-8.31855e-06 -0.0217169 0)
(-8.21071e-06 -0.021717 0)
(-8.10433e-06 -0.0217171 0)
(-7.99939e-06 -0.0217171 0)
(-7.89588e-06 -0.0217172 0)
(-7.79379e-06 -0.0217172 0)
(-7.6931e-06 -0.0217173 0)
(-7.59379e-06 -0.0217174 0)
(-7.49585e-06 -0.0217174 0)
(-7.39927e-06 -0.0217175 0)
(-7.30403e-06 -0.0217175 0)
(-7.21012e-06 -0.0217176 0)
(-7.11752e-06 -0.0217176 0)
(-7.02622e-06 -0.0217177 0)
(-6.9362e-06 -0.0217177 0)
(-6.84746e-06 -0.0217178 0)
(-6.75997e-06 -0.0217179 0)
(-6.67372e-06 -0.0217179 0)
(-6.5887e-06 -0.021718 0)
(-6.5049e-06 -0.021718 0)
(-6.4223e-06 -0.0217181 0)
(-6.34088e-06 -0.0217181 0)
(-6.26064e-06 -0.0217181 0)
(-6.18156e-06 -0.0217182 0)
(-6.10362e-06 -0.0217182 0)
(-6.02681e-06 -0.0217183 0)
(-5.95113e-06 -0.0217183 0)
(-5.87654e-06 -0.0217184 0)
(-5.80305e-06 -0.0217184 0)
(-5.73063e-06 -0.0217185 0)
(-5.65927e-06 -0.0217185 0)
(-5.58897e-06 -0.0217186 0)
(-5.5197e-06 -0.0217186 0)
(-5.45146e-06 -0.0217186 0)
(-5.38422e-06 -0.0217187 0)
(-5.31798e-06 -0.0217187 0)
(-5.25272e-06 -0.0217188 0)
(-5.18844e-06 -0.0217188 0)
(-5.1251e-06 -0.0217188 0)
(-5.06271e-06 -0.0217189 0)
(-5.00125e-06 -0.0217189 0)
(-4.94071e-06 -0.0217189 0)
(-4.88106e-06 -0.021719 0)
(-4.8223e-06 -0.021719 0)
(-4.76441e-06 -0.021719 0)
(-4.70739e-06 -0.0217191 0)
(-4.65121e-06 -0.0217191 0)
(-4.59585e-06 -0.0217191 0)
(-4.54131e-06 -0.0217192 0)
(-4.48758e-06 -0.0217192 0)
(-4.43462e-06 -0.0217192 0)
(-4.38244e-06 -0.0217193 0)
(-4.33101e-06 -0.0217193 0)
(-4.28031e-06 -0.0217193 0)
(-4.23034e-06 -0.0217194 0)
(-4.18107e-06 -0.0217194 0)
(-4.13248e-06 -0.0217194 0)
(-4.08455e-06 -0.0217194 0)
(-4.03727e-06 -0.0217195 0)
(-3.99062e-06 -0.0217195 0)
(-3.94458e-06 -0.0217195 0)
(-3.89912e-06 -0.0217195 0)
(-3.85422e-06 -0.0217196 0)
(-3.80986e-06 -0.0217196 0)
(-3.76601e-06 -0.0217196 0)
(-3.72266e-06 -0.0217196 0)
(-3.67977e-06 -0.0217197 0)
(-3.63731e-06 -0.0217197 0)
(-3.59527e-06 -0.0217197 0)
(-3.5536e-06 -0.0217197 0)
(-3.51228e-06 -0.0217197 0)
(-3.47128e-06 -0.0217198 0)
(-3.43055e-06 -0.0217198 0)
(-3.39008e-06 -0.0217198 0)
(-3.34982e-06 -0.0217198 0)
)
;

boundaryField
{
    BotWall
    {
        type            fixedValue;
        value           nonuniform 0();
    }
    FreeStream
    {
        type            zeroGradient;
    }
    FrontNBack
    {
        type            empty;
    }
    LeftSide
    {
        type            symmetryPlane;
    }
    RightSide
    {
        type            symmetryPlane;
    }
    procBoundary8to5
    {
        type            processor;
        value           nonuniform List<vector> 
50
(
(-4.29618e-06 -0.0217255 0)
(-4.2162e-06 -0.0217255 0)
(-4.13748e-06 -0.0217254 0)
(-4.06002e-06 -0.0217254 0)
(-3.98378e-06 -0.0217253 0)
(-3.90877e-06 -0.0217253 0)
(-3.83496e-06 -0.0217252 0)
(-3.76233e-06 -0.0217252 0)
(-3.69086e-06 -0.0217251 0)
(-3.62055e-06 -0.0217251 0)
(-3.55137e-06 -0.021725 0)
(-3.48331e-06 -0.021725 0)
(-3.41635e-06 -0.0217249 0)
(-3.35047e-06 -0.0217249 0)
(-3.28565e-06 -0.0217248 0)
(-3.22187e-06 -0.0217248 0)
(-3.15913e-06 -0.0217247 0)
(-3.09739e-06 -0.0217247 0)
(-3.03664e-06 -0.0217246 0)
(-2.97687e-06 -0.0217246 0)
(-2.91804e-06 -0.0217245 0)
(-2.86015e-06 -0.0217245 0)
(-2.80317e-06 -0.0217244 0)
(-2.74707e-06 -0.0217244 0)
(-2.69185e-06 -0.0217243 0)
(-2.63748e-06 -0.0217243 0)
(-2.58394e-06 -0.0217242 0)
(-2.53121e-06 -0.0217242 0)
(-2.47925e-06 -0.0217242 0)
(-2.42806e-06 -0.0217241 0)
(-2.37761e-06 -0.0217241 0)
(-2.32787e-06 -0.021724 0)
(-2.27882e-06 -0.021724 0)
(-2.23042e-06 -0.0217239 0)
(-2.18267e-06 -0.0217239 0)
(-2.13553e-06 -0.0217239 0)
(-2.08896e-06 -0.0217238 0)
(-2.04295e-06 -0.0217238 0)
(-1.99746e-06 -0.0217237 0)
(-1.95247e-06 -0.0217237 0)
(-1.90793e-06 -0.0217237 0)
(-1.86383e-06 -0.0217236 0)
(-1.82011e-06 -0.0217236 0)
(-1.77675e-06 -0.0217235 0)
(-1.73372e-06 -0.0217235 0)
(-1.69096e-06 -0.0217235 0)
(-1.64846e-06 -0.0217234 0)
(-1.60615e-06 -0.0217234 0)
(-1.56401e-06 -0.0217233 0)
(-1.52198e-06 -0.0217233 0)
)
;
    }
    procBoundary8to6
    {
        type            processor;
        value           nonuniform List<vector> 
75
(
(-1.5542e-05 -0.021731 0)
(-1.52908e-05 -0.0217309 0)
(-1.50429e-05 -0.0217308 0)
(-1.47984e-05 -0.0217307 0)
(-1.45575e-05 -0.0217306 0)
(-1.43201e-05 -0.0217305 0)
(-1.40862e-05 -0.0217304 0)
(-1.38559e-05 -0.0217303 0)
(-1.36293e-05 -0.0217302 0)
(-1.34062e-05 -0.0217301 0)
(-1.31867e-05 -0.02173 0)
(-1.29707e-05 -0.02173 0)
(-1.27583e-05 -0.0217299 0)
(-1.25494e-05 -0.0217298 0)
(-1.23439e-05 -0.0217297 0)
(-1.21418e-05 -0.0217296 0)
(-1.19431e-05 -0.0217295 0)
(-1.17476e-05 -0.0217294 0)
(-1.15554e-05 -0.0217294 0)
(-1.13663e-05 -0.0217293 0)
(-1.11803e-05 -0.0217292 0)
(-1.09973e-05 -0.0217291 0)
(-1.08174e-05 -0.021729 0)
(-1.06403e-05 -0.0217289 0)
(-1.04661e-05 -0.0217289 0)
(-1.02946e-05 -0.0217288 0)
(-1.01258e-05 -0.0217287 0)
(-9.95971e-06 -0.0217286 0)
(-9.79618e-06 -0.0217286 0)
(-9.63517e-06 -0.0217285 0)
(-9.47663e-06 -0.0217284 0)
(-9.3205e-06 -0.0217283 0)
(-9.16672e-06 -0.0217283 0)
(-9.01524e-06 -0.0217282 0)
(-8.86602e-06 -0.0217281 0)
(-8.719e-06 -0.021728 0)
(-8.57415e-06 -0.021728 0)
(-8.43141e-06 -0.0217279 0)
(-8.29074e-06 -0.0217278 0)
(-8.15211e-06 -0.0217277 0)
(-8.01548e-06 -0.0217277 0)
(-7.88081e-06 -0.0217276 0)
(-7.74806e-06 -0.0217275 0)
(-7.61722e-06 -0.0217275 0)
(-7.48824e-06 -0.0217274 0)
(-7.36109e-06 -0.0217273 0)
(-7.23575e-06 -0.0217273 0)
(-7.1122e-06 -0.0217272 0)
(-6.9904e-06 -0.0217271 0)
(-6.87033e-06 -0.0217271 0)
(-6.75198e-06 -0.021727 0)
(-6.63532e-06 -0.0217269 0)
(-6.52032e-06 -0.0217269 0)
(-6.40697e-06 -0.0217268 0)
(-6.29526e-06 -0.0217267 0)
(-6.18515e-06 -0.0217267 0)
(-6.07664e-06 -0.0217266 0)
(-5.9697e-06 -0.0217266 0)
(-5.86432e-06 -0.0217265 0)
(-5.76049e-06 -0.0217264 0)
(-5.65818e-06 -0.0217264 0)
(-5.55738e-06 -0.0217263 0)
(-5.45807e-06 -0.0217263 0)
(-5.36024e-06 -0.0217262 0)
(-5.26388e-06 -0.0217261 0)
(-5.16897e-06 -0.0217261 0)
(-5.07549e-06 -0.021726 0)
(-4.98343e-06 -0.021726 0)
(-4.89277e-06 -0.0217259 0)
(-4.8035e-06 -0.0217259 0)
(-4.7156e-06 -0.0217258 0)
(-4.62906e-06 -0.0217257 0)
(-4.54386e-06 -0.0217257 0)
(-4.45999e-06 -0.0217256 0)
(-4.37744e-06 -0.0217256 0)
)
;
    }
    procBoundary8to7
    {
        type            processor;
        value           uniform (-3.30972e-06 -0.0217198 0);
    }
    procBoundary8to9
    {
        type            processor;
        value           uniform (-1.61436e-05 -0.0217127 0);
    }
    procBoundary8to10
    {
        type            processor;
        value           nonuniform List<vector> 
75
(
(1.05717e-05 -0.0217193 0)
(1.04274e-05 -0.0217193 0)
(1.0284e-05 -0.0217193 0)
(1.01414e-05 -0.0217193 0)
(9.9996e-06 -0.0217193 0)
(9.85865e-06 -0.0217193 0)
(9.71853e-06 -0.0217193 0)
(9.57923e-06 -0.0217193 0)
(9.44076e-06 -0.0217193 0)
(9.30313e-06 -0.0217193 0)
(9.16632e-06 -0.0217193 0)
(9.03035e-06 -0.0217193 0)
(8.89522e-06 -0.0217193 0)
(8.76092e-06 -0.0217193 0)
(8.62745e-06 -0.0217192 0)
(8.49482e-06 -0.0217192 0)
(8.36304e-06 -0.0217192 0)
(8.23209e-06 -0.0217192 0)
(8.10199e-06 -0.0217192 0)
(7.97272e-06 -0.0217192 0)
(7.8443e-06 -0.0217192 0)
(7.71673e-06 -0.0217192 0)
(7.58999e-06 -0.0217192 0)
(7.4641e-06 -0.0217192 0)
(7.33906e-06 -0.0217192 0)
(7.21486e-06 -0.0217192 0)
(7.0915e-06 -0.0217192 0)
(6.96898e-06 -0.0217192 0)
(6.8473e-06 -0.0217192 0)
(6.72646e-06 -0.0217192 0)
(6.60646e-06 -0.0217192 0)
(6.4873e-06 -0.0217192 0)
(6.36897e-06 -0.0217192 0)
(6.25148e-06 -0.0217192 0)
(6.13481e-06 -0.0217191 0)
(6.01897e-06 -0.0217191 0)
(5.90395e-06 -0.0217191 0)
(5.78976e-06 -0.0217191 0)
(5.67638e-06 -0.0217191 0)
(5.56381e-06 -0.0217191 0)
(5.45205e-06 -0.0217191 0)
(5.3411e-06 -0.0217191 0)
(5.23094e-06 -0.0217191 0)
(5.12158e-06 -0.0217191 0)
(5.013e-06 -0.0217191 0)
(4.90521e-06 -0.0217191 0)
(4.79819e-06 -0.0217191 0)
(4.69195e-06 -0.0217191 0)
(4.58646e-06 -0.0217191 0)
(4.48174e-06 -0.0217191 0)
(4.37776e-06 -0.0217191 0)
(4.27453e-06 -0.0217191 0)
(4.17202e-06 -0.0217191 0)
(4.07025e-06 -0.0217191 0)
(3.96919e-06 -0.0217191 0)
(3.86884e-06 -0.0217191 0)
(3.76918e-06 -0.0217191 0)
(3.67022e-06 -0.0217191 0)
(3.57193e-06 -0.0217191 0)
(3.47431e-06 -0.0217191 0)
(3.37736e-06 -0.0217191 0)
(3.28104e-06 -0.0217191 0)
(3.18536e-06 -0.0217191 0)
(3.09031e-06 -0.0217191 0)
(2.99587e-06 -0.0217192 0)
(2.90202e-06 -0.0217192 0)
(2.80876e-06 -0.0217192 0)
(2.71607e-06 -0.0217192 0)
(2.62394e-06 -0.0217192 0)
(2.53235e-06 -0.0217192 0)
(2.44129e-06 -0.0217192 0)
(2.35074e-06 -0.0217192 0)
(2.26069e-06 -0.0217192 0)
(2.17111e-06 -0.0217192 0)
(2.082e-06 -0.0217192 0)
)
;
    }
    procBoundary8to11
    {
        type            processor;
        value           nonuniform List<vector> 
50
(
(1.89133e-05 -0.0217198 0)
(1.87259e-05 -0.0217198 0)
(1.85388e-05 -0.0217198 0)
(1.83521e-05 -0.0217198 0)
(1.81659e-05 -0.0217198 0)
(1.79803e-05 -0.0217198 0)
(1.77953e-05 -0.0217198 0)
(1.7611e-05 -0.0217197 0)
(1.74276e-05 -0.0217197 0)
(1.7245e-05 -0.0217197 0)
(1.70632e-05 -0.0217197 0)
(1.68824e-05 -0.0217197 0)
(1.67025e-05 -0.0217197 0)
(1.65235e-05 -0.0217197 0)
(1.63455e-05 -0.0217197 0)
(1.61686e-05 -0.0217197 0)
(1.59926e-05 -0.0217197 0)
(1.58176e-05 -0.0217197 0)
(1.56436e-05 -0.0217196 0)
(1.54707e-05 -0.0217196 0)
(1.52987e-05 -0.0217196 0)
(1.51278e-05 -0.0217196 0)
(1.49578e-05 -0.0217196 0)
(1.47889e-05 -0.0217196 0)
(1.46209e-05 -0.0217196 0)
(1.44539e-05 -0.0217196 0)
(1.42879e-05 -0.0217196 0)
(1.41228e-05 -0.0217196 0)
(1.39587e-05 -0.0217195 0)
(1.37955e-05 -0.0217195 0)
(1.36333e-05 -0.0217195 0)
(1.34719e-05 -0.0217195 0)
(1.33115e-05 -0.0217195 0)
(1.3152e-05 -0.0217195 0)
(1.29933e-05 -0.0217195 0)
(1.28356e-05 -0.0217195 0)
(1.26787e-05 -0.0217195 0)
(1.25227e-05 -0.0217195 0)
(1.23676e-05 -0.0217195 0)
(1.22133e-05 -0.0217194 0)
(1.20598e-05 -0.0217194 0)
(1.19073e-05 -0.0217194 0)
(1.17555e-05 -0.0217194 0)
(1.16046e-05 -0.0217194 0)
(1.14546e-05 -0.0217194 0)
(1.13053e-05 -0.0217194 0)
(1.11569e-05 -0.0217194 0)
(1.10094e-05 -0.0217194 0)
(1.08627e-05 -0.0217194 0)
(1.07167e-05 -0.0217194 0)
)
;
    }
}


// ************************************************************************* //
