/*--------------------------------*- C++ -*----------------------------------*\
| =========                 |                                                 |
| \\      /  F ield         | OpenFOAM: The Open Source CFD Toolbox           |
|  \\    /   O peration     | Version:  2.4.0                                 |
|   \\  /    A nd           | Web:      www.OpenFOAM.org                      |
|    \\/     M anipulation  |                                                 |
\*---------------------------------------------------------------------------*/
FoamFile
{
    version     2.0;
    format      ascii;
    class       volScalarField;
    location    "0.7";
    object      H;
}
// * * * * * * * * * * * * * * * * * * * * * * * * * * * * * * * * * * * * * //

dimensions      [0 2 -2 0 0 0 0];

internalField   nonuniform List<scalar> 
500
(
-11626.2
-11626.2
-11626.2
-11626.2
-11626.2
-10411.7
-10411.7
-10411.7
-10411.7
-10411.7
-9183.28
-9183.27
-9183.27
-9183.27
-9183.28
-7940.53
-7940.52
-7940.52
-7940.52
-7940.53
-6683.01
-6683
-6683
-6683
-6683.01
-5410.26
-5410.25
-5410.25
-5410.25
-5410.27
-4121.84
-4121.82
-4121.82
-4121.82
-4121.84
-2817.23
-2817.22
-2817.22
-2817.22
-2817.23
-1495.96
-1495.94
-1495.94
-1495.94
-1495.96
-28.4757
-28.4747
-28.4747
-28.4747
-28.4758
-21.2828
-21.2821
-21.282
-21.2821
-21.2829
-21.5007
-21.5
-21.5
-21.5
-21.5008
-21.7104
-21.7097
-21.7096
-21.7097
-21.7104
-21.9113
-21.9106
-21.9106
-21.9107
-21.9114
-22.1034
-22.1027
-22.1026
-22.1027
-22.1035
-22.2862
-22.2855
-22.2854
-22.2855
-22.2863
-22.4594
-22.4588
-22.4587
-22.4588
-22.4595
-22.6229
-22.6222
-22.6222
-22.6222
-22.6229
-22.7762
-22.7755
-22.7755
-22.7756
-22.7762
-22.919
-22.9184
-22.9184
-22.9185
-22.9191
-23.0512
-23.0506
-23.0506
-23.0507
-23.0513
-23.1724
-23.1718
-23.1718
-23.1719
-23.1725
-23.2824
-23.2818
-23.2817
-23.2818
-23.2825
-23.3808
-23.3802
-23.3801
-23.3803
-23.3809
-23.4674
-23.4668
-23.4668
-23.4669
-23.4675
-23.542
-23.5414
-23.5413
-23.5415
-23.5421
-23.6042
-23.6037
-23.6036
-23.6037
-23.6043
-23.6539
-23.6534
-23.6533
-23.6534
-23.654
-23.6909
-23.6904
-23.6903
-23.6904
-23.691
-23.7148
-23.7143
-23.7143
-23.7144
-23.7149
-23.7256
-23.7251
-23.725
-23.7251
-23.7257
-23.7229
-23.7224
-23.7224
-23.7225
-23.723
-23.7067
-23.7062
-23.7061
-23.7063
-23.7068
-23.6767
-23.6762
-23.6762
-23.6763
-23.6768
-23.6328
-23.6324
-23.6323
-23.6324
-23.6329
-23.5749
-23.5744
-23.5744
-23.5745
-23.575
-23.5028
-23.5023
-23.5023
-23.5024
-23.5029
-23.4164
-23.416
-23.4159
-23.416
-23.4165
-23.3157
-23.3152
-23.3152
-23.3153
-23.3158
-23.2005
-23.2001
-23.2
-23.2002
-23.2006
-23.0708
-23.0705
-23.0704
-23.0705
-23.071
-22.9267
-22.9263
-22.9263
-22.9264
-22.9268
-22.768
-22.7677
-22.7676
-22.7677
-22.7682
-22.5949
-22.5945
-22.5945
-22.5946
-22.595
-22.4073
-22.4069
-22.4069
-22.407
-22.4074
-22.2053
-22.2049
-22.2049
-22.205
-22.2054
-21.989
-21.9886
-21.9886
-21.9887
-21.9891
-21.7585
-21.7581
-21.7581
-21.7582
-21.7586
-21.5139
-21.5136
-21.5135
-21.5136
-21.514
-21.2554
-21.2551
-21.2551
-21.2552
-21.2555
-20.9832
-20.9829
-20.9829
-20.983
-20.9833
-20.6975
-20.6972
-20.6972
-20.6973
-20.6976
-20.3986
-20.3983
-20.3982
-20.3983
-20.3987
-20.0866
-20.0863
-20.0863
-20.0864
-20.0867
-19.7619
-19.7616
-19.7616
-19.7617
-19.762
-19.4248
-19.4246
-19.4245
-19.4246
-19.4249
-19.0757
-19.0754
-19.0754
-19.0755
-19.0758
-18.7148
-18.7146
-18.7146
-18.7147
-18.715
-18.3427
-18.3425
-18.3425
-18.3426
-18.3428
-17.9597
-17.9595
-17.9595
-17.9596
-17.9598
-17.5663
-17.5661
-17.566
-17.5661
-17.5664
-17.1628
-17.1626
-17.1626
-17.1627
-17.1629
-16.7499
-16.7497
-16.7497
-16.7498
-16.75
-16.328
-16.3278
-16.3278
-16.3279
-16.3281
-15.8977
-15.8975
-15.8975
-15.8975
-15.8978
-15.4594
-15.4592
-15.4592
-15.4593
-15.4595
-15.0138
-15.0136
-15.0136
-15.0137
-15.0139
-14.5614
-14.5613
-14.5612
-14.5613
-14.5615
-14.1029
-14.1027
-14.1027
-14.1028
-14.103
-13.6387
-13.6386
-13.6386
-13.6387
-13.6388
-13.1697
-13.1696
-13.1695
-13.1696
-13.1698
-12.6963
-12.6962
-12.6962
-12.6962
-12.6964
-12.2193
-12.2192
-12.2191
-12.2192
-12.2194
-11.7392
-11.7391
-11.7391
-11.7391
-11.7393
-11.2567
-11.2566
-11.2566
-11.2567
-11.2568
-10.7725
-10.7724
-10.7724
-10.7725
-10.7726
-10.2872
-10.2871
-10.2871
-10.2872
-10.2873
-9.8015
-9.80142
-9.80141
-9.80145
-9.80157
-9.31597
-9.3159
-9.31588
-9.31593
-9.31604
-8.83129
-8.83122
-8.8312
-8.83125
-8.83135
-8.34807
-8.34801
-8.34799
-8.34803
-8.34813
-7.86695
-7.86689
-7.86688
-7.86692
-7.86701
-7.38853
-7.38847
-7.38846
-7.3885
-7.38858
-6.91341
-6.91335
-6.91335
-6.91338
-6.91346
-6.44217
-6.44212
-6.44211
-6.44214
-6.44221
-5.97537
-5.97532
-5.97532
-5.97534
-5.97541
-5.51357
-5.51353
-5.51352
-5.51355
-5.51361
-5.05729
-5.05725
-5.05725
-5.05727
-5.05733
-4.60705
-4.60702
-4.60701
-4.60704
-4.60709
-4.16334
-4.16331
-4.16331
-4.16333
-4.16337
-3.72663
-3.72661
-3.7266
-3.72662
-3.72666
-3.29737
-3.29735
-3.29734
-3.29736
-3.2974
-2.87599
-2.87597
-2.87597
-2.87598
-2.87601
-2.4629
-2.46289
-2.46288
-2.4629
-2.46292
-2.0585
-2.05848
-2.05848
-2.05849
-2.05851
-1.66314
-1.66313
-1.66312
-1.66313
-1.66315
-1.27718
-1.27717
-1.27717
-1.27718
-1.27719
-0.900964
-0.900957
-0.900956
-0.900961
-0.90097
-0.534801
-0.534798
-0.534797
-0.5348
-0.534805
-0.179
-0.178998
-0.178998
-0.178999
-0.179001
)
;

boundaryField
{
    BotWall
    {
        type            zeroGradient;
    }
    FreeStream
    {
        type            zeroGradient;
    }
    FrontNBack
    {
        type            empty;
    }
    LeftSide
    {
        type            symmetryPlane;
    }
    RightSide
    {
        type            symmetryPlane;
    }
}


// ************************************************************************* //
