/*--------------------------------*- C++ -*----------------------------------*\
| =========                 |                                                 |
| \\      /  F ield         | OpenFOAM: The Open Source CFD Toolbox           |
|  \\    /   O peration     | Version:  2.4.0                                 |
|   \\  /    A nd           | Web:      www.OpenFOAM.org                      |
|    \\/     M anipulation  |                                                 |
\*---------------------------------------------------------------------------*/
FoamFile
{
    version     2.0;
    format      ascii;
    class       volScalarField;
    location    "0.7";
    object      p;
}
// * * * * * * * * * * * * * * * * * * * * * * * * * * * * * * * * * * * * * //

dimensions      [1 -1 -2 0 0 0 0];

internalField   nonuniform List<scalar> 
500
(
0.287922
0.287929
0.287928
0.287929
0.287921
0.253263
0.253265
0.253263
0.253265
0.253262
0.201519
0.201513
0.201512
0.201513
0.201519
0.140046
0.14005
0.140049
0.14005
0.140045
0.203034
0.203115
0.203114
0.203115
0.203034
0.715534
0.715735
0.715735
0.715735
0.715532
1.46456
1.46458
1.46458
1.46458
1.46456
-0.981535
-0.98251
-0.98251
-0.98251
-0.981537
-14.7631
-14.7649
-14.7649
-14.7649
-14.7631
-34.1819
-34.1809
-34.181
-34.1809
-34.1818
-0.0171235
-0.017123
-0.017123
-0.017123
-0.0171235
-0.0026388
-0.00263923
-0.00263923
-0.00263923
-0.0026388
-0.00532636
-0.00532631
-0.00532631
-0.00532631
-0.00532636
-0.00708824
-0.00708817
-0.00708817
-0.00708817
-0.00708824
-0.00784593
-0.00784593
-0.00784594
-0.00784593
-0.00784593
-0.00834625
-0.00834627
-0.00834628
-0.00834627
-0.00834625
-0.00888356
-0.00888357
-0.00888358
-0.00888357
-0.00888356
-0.0094664
-0.0094664
-0.00946641
-0.0094664
-0.0094664
-0.0100656
-0.0100656
-0.0100656
-0.0100656
-0.0100656
-0.0106702
-0.0106702
-0.0106702
-0.0106702
-0.0106702
-0.0112799
-0.0112799
-0.0112799
-0.0112799
-0.0112799
-0.0118961
-0.0118961
-0.0118961
-0.0118961
-0.0118961
-0.0125193
-0.0125193
-0.0125193
-0.0125193
-0.0125193
-0.0131494
-0.0131494
-0.0131494
-0.0131494
-0.0131494
-0.0137866
-0.0137866
-0.0137866
-0.0137866
-0.0137866
-0.0144309
-0.0144309
-0.0144309
-0.0144309
-0.0144309
-0.0150824
-0.0150824
-0.0150824
-0.0150824
-0.0150824
-0.0157411
-0.0157411
-0.0157411
-0.0157411
-0.0157411
-0.0164072
-0.0164072
-0.0164072
-0.0164072
-0.0164072
-0.0170808
-0.0170808
-0.0170808
-0.0170808
-0.0170808
-0.0177618
-0.0177618
-0.0177618
-0.0177618
-0.0177618
-0.0184505
-0.0184505
-0.0184505
-0.0184505
-0.0184505
-0.0191468
-0.0191468
-0.0191468
-0.0191468
-0.0191468
-0.0198509
-0.0198509
-0.0198509
-0.0198509
-0.0198509
-0.0205629
-0.0205629
-0.0205629
-0.0205629
-0.0205629
-0.0212828
-0.0212828
-0.0212828
-0.0212828
-0.0212828
-0.0220107
-0.0220107
-0.0220107
-0.0220107
-0.0220107
-0.0227468
-0.0227468
-0.0227468
-0.0227468
-0.0227468
-0.0234911
-0.0234911
-0.0234911
-0.0234911
-0.0234911
-0.0242437
-0.0242437
-0.0242437
-0.0242437
-0.0242437
-0.0250046
-0.0250046
-0.0250046
-0.0250046
-0.0250046
-0.0257741
-0.0257741
-0.0257741
-0.0257741
-0.0257741
-0.0265522
-0.0265522
-0.0265522
-0.0265522
-0.0265522
-0.0273389
-0.0273389
-0.0273389
-0.0273389
-0.0273389
-0.0281344
-0.0281344
-0.0281344
-0.0281344
-0.0281344
-0.0289388
-0.0289388
-0.0289388
-0.0289388
-0.0289388
-0.0297522
-0.0297522
-0.0297522
-0.0297522
-0.0297522
-0.0305747
-0.0305747
-0.0305747
-0.0305747
-0.0305747
-0.0314063
-0.0314063
-0.0314063
-0.0314063
-0.0314063
-0.0322472
-0.0322472
-0.0322472
-0.0322472
-0.0322472
-0.0330975
-0.0330975
-0.0330975
-0.0330975
-0.0330975
-0.0339573
-0.0339573
-0.0339573
-0.0339573
-0.0339573
-0.0348267
-0.0348267
-0.0348267
-0.0348267
-0.0348267
-0.0357057
-0.0357057
-0.0357057
-0.0357057
-0.0357057
-0.0365946
-0.0365946
-0.0365946
-0.0365946
-0.0365946
-0.0374934
-0.0374934
-0.0374934
-0.0374934
-0.0374934
-0.0384023
-0.0384023
-0.0384023
-0.0384023
-0.0384023
-0.0393212
-0.0393212
-0.0393212
-0.0393212
-0.0393212
-0.0402505
-0.0402505
-0.0402505
-0.0402505
-0.0402505
-0.0411901
-0.0411901
-0.0411901
-0.0411901
-0.0411901
-0.0421402
-0.0421402
-0.0421402
-0.0421402
-0.0421402
-0.0431008
-0.0431008
-0.0431008
-0.0431008
-0.0431008
-0.0440723
-0.0440723
-0.0440723
-0.0440723
-0.0440723
-0.0450545
-0.0450545
-0.0450545
-0.0450545
-0.0450545
-0.0460477
-0.0460477
-0.0460477
-0.0460477
-0.0460477
-0.047052
-0.047052
-0.047052
-0.047052
-0.047052
-0.0480675
-0.0480675
-0.0480675
-0.0480675
-0.0480675
-0.0490943
-0.0490943
-0.0490943
-0.0490943
-0.0490943
-0.0501326
-0.0501326
-0.0501326
-0.0501326
-0.0501326
-0.0511825
-0.0511825
-0.0511825
-0.0511825
-0.0511825
-0.0522441
-0.0522441
-0.0522441
-0.0522441
-0.0522441
-0.0533175
-0.0533175
-0.0533175
-0.0533175
-0.0533175
-0.0544029
-0.0544029
-0.0544029
-0.0544029
-0.0544029
-0.0555005
-0.0555005
-0.0555005
-0.0555005
-0.0555005
-0.0566102
-0.0566102
-0.0566102
-0.0566102
-0.0566102
-0.0577324
-0.0577324
-0.0577324
-0.0577324
-0.0577324
-0.0588671
-0.0588671
-0.0588671
-0.0588671
-0.0588671
-0.0600144
-0.0600144
-0.0600144
-0.0600144
-0.0600144
-0.0611746
-0.0611746
-0.0611746
-0.0611746
-0.0611746
-0.0623476
-0.0623476
-0.0623477
-0.0623476
-0.0623476
-0.0635338
-0.0635338
-0.0635338
-0.0635338
-0.0635338
-0.0647332
-0.0647332
-0.0647332
-0.0647332
-0.0647332
-0.065946
-0.065946
-0.0659461
-0.065946
-0.065946
-0.0671724
-0.0671724
-0.0671724
-0.0671724
-0.0671724
-0.0684124
-0.0684124
-0.0684124
-0.0684124
-0.0684124
-0.0696663
-0.0696663
-0.0696663
-0.0696663
-0.0696663
-0.0709341
-0.0709341
-0.0709341
-0.0709341
-0.0709341
-0.0722161
-0.0722161
-0.0722161
-0.0722161
-0.0722161
-0.0735124
-0.0735124
-0.0735124
-0.0735124
-0.0735124
-0.0748232
-0.0748232
-0.0748232
-0.0748232
-0.0748232
-0.0761486
-0.0761486
-0.0761486
-0.0761486
-0.0761486
-0.0774888
-0.0774888
-0.0774888
-0.0774888
-0.0774888
-0.0788439
-0.0788439
-0.0788439
-0.0788439
-0.0788439
-0.0802142
-0.0802142
-0.0802142
-0.0802142
-0.0802142
-0.0815997
-0.0815997
-0.0815997
-0.0815997
-0.0815997
-0.0830007
-0.0830007
-0.0830007
-0.0830007
-0.0830007
-0.0844174
-0.0844174
-0.0844174
-0.0844174
-0.0844174
-0.0858498
-0.0858498
-0.0858498
-0.0858498
-0.0858498
-0.0872983
-0.0872983
-0.0872983
-0.0872983
-0.0872983
-0.0887629
-0.0887629
-0.0887629
-0.0887629
-0.0887629
)
;

boundaryField
{
    BotWall
    {
        type            calculated;
        value           nonuniform List<scalar> 5(0.302742 0.302749 0.302748 0.302749 0.302742);
    }
    FreeStream
    {
        type            calculated;
        value           nonuniform List<scalar> 5(-0.0894992 -0.0894992 -0.0894992 -0.0894992 -0.0894992);
    }
    FrontNBack
    {
        type            empty;
    }
    LeftSide
    {
        type            symmetryPlane;
    }
    RightSide
    {
        type            symmetryPlane;
    }
}


// ************************************************************************* //
