/*--------------------------------*- C++ -*----------------------------------*\
| =========                 |                                                 |
| \\      /  F ield         | OpenFOAM: The Open Source CFD Toolbox           |
|  \\    /   O peration     | Version:  2.4.0                                 |
|   \\  /    A nd           | Web:      www.OpenFOAM.org                      |
|    \\/     M anipulation  |                                                 |
\*---------------------------------------------------------------------------*/
FoamFile
{
    version     2.0;
    format      ascii;
    class       volScalarField;
    location    "0.7";
    object      p_rgh;
}
// * * * * * * * * * * * * * * * * * * * * * * * * * * * * * * * * * * * * * //

dimensions      [1 -1 -2 0 0 0 0];

internalField   nonuniform List<scalar> 
500
(
0.302742
0.302749
0.302748
0.302749
0.302742
0.297889
0.297891
0.29789
0.297891
0.297889
0.276284
0.276278
0.276277
0.276278
0.276284
0.245286
0.24529
0.245289
0.24529
0.245285
0.339089
0.33917
0.339168
0.33917
0.339088
0.882748
0.882949
0.882949
0.882949
0.882746
1.66328
1.6633
1.6633
1.6633
1.66328
-0.750957
-0.751932
-0.751931
-0.751932
-0.750959
-14.5003
-14.5021
-14.5022
-14.5021
-14.5003
-33.9499
-33.9489
-33.949
-33.9489
-33.9498
-0.0116856
-0.0116851
-0.0116851
-0.0116851
-0.0116856
0.00335074
0.00335032
0.00335031
0.00335032
0.00335074
0.00122098
0.00122103
0.00122103
0.00122103
0.00122098
2.31213e-05
2.31963e-05
2.31922e-05
2.31966e-05
2.31209e-05
-0.000164258
-0.000164256
-0.00016426
-0.000164256
-0.000164259
-8.7899e-05
-8.79179e-05
-8.79221e-05
-8.79174e-05
-8.78992e-05
-4.20943e-05
-4.21056e-05
-4.21098e-05
-4.21051e-05
-4.20945e-05
-3.5307e-05
-3.53118e-05
-3.5316e-05
-3.53113e-05
-3.53072e-05
-3.82769e-05
-3.82806e-05
-3.82848e-05
-3.82802e-05
-3.82771e-05
-4.00157e-05
-4.00202e-05
-4.00244e-05
-4.00197e-05
-4.00159e-05
-4.02117e-05
-4.02165e-05
-4.02207e-05
-4.02161e-05
-4.02118e-05
-4.00276e-05
-4.00325e-05
-4.00367e-05
-4.0032e-05
-4.00277e-05
-3.98932e-05
-3.9898e-05
-3.99022e-05
-3.98976e-05
-3.98933e-05
-3.9819e-05
-3.98238e-05
-3.98279e-05
-3.98233e-05
-3.98191e-05
-3.97589e-05
-3.97636e-05
-3.97678e-05
-3.97632e-05
-3.97589e-05
-3.96959e-05
-3.97007e-05
-3.97048e-05
-3.97002e-05
-3.9696e-05
-3.96298e-05
-3.96345e-05
-3.96386e-05
-3.96341e-05
-3.96299e-05
-3.95624e-05
-3.95671e-05
-3.95711e-05
-3.95666e-05
-3.95624e-05
-3.94943e-05
-3.9499e-05
-3.9503e-05
-3.94985e-05
-3.94943e-05
-3.94255e-05
-3.94301e-05
-3.94341e-05
-3.94297e-05
-3.94255e-05
-3.9356e-05
-3.93606e-05
-3.93645e-05
-3.93601e-05
-3.9356e-05
-3.92857e-05
-3.92902e-05
-3.92941e-05
-3.92897e-05
-3.92856e-05
-3.92145e-05
-3.92191e-05
-3.92229e-05
-3.92186e-05
-3.92145e-05
-3.91426e-05
-3.91471e-05
-3.91509e-05
-3.91466e-05
-3.91426e-05
-3.90699e-05
-3.90743e-05
-3.90781e-05
-3.90738e-05
-3.90698e-05
-3.89963e-05
-3.90007e-05
-3.90044e-05
-3.90002e-05
-3.89963e-05
-3.8922e-05
-3.89263e-05
-3.893e-05
-3.89258e-05
-3.89219e-05
-3.88467e-05
-3.8851e-05
-3.88546e-05
-3.88505e-05
-3.88467e-05
-3.87707e-05
-3.87749e-05
-3.87785e-05
-3.87744e-05
-3.87706e-05
-3.86938e-05
-3.86979e-05
-3.87014e-05
-3.86974e-05
-3.86937e-05
-3.8616e-05
-3.86201e-05
-3.86235e-05
-3.86196e-05
-3.86159e-05
-3.85373e-05
-3.85413e-05
-3.85447e-05
-3.85409e-05
-3.85372e-05
-3.84578e-05
-3.84617e-05
-3.84651e-05
-3.84613e-05
-3.84577e-05
-3.83774e-05
-3.83812e-05
-3.83845e-05
-3.83808e-05
-3.83772e-05
-3.8296e-05
-3.82998e-05
-3.83031e-05
-3.82994e-05
-3.82959e-05
-3.82138e-05
-3.82175e-05
-3.82207e-05
-3.82171e-05
-3.82137e-05
-3.81306e-05
-3.81343e-05
-3.81374e-05
-3.81338e-05
-3.81305e-05
-3.80465e-05
-3.80501e-05
-3.80532e-05
-3.80497e-05
-3.80464e-05
-3.79615e-05
-3.7965e-05
-3.7968e-05
-3.79646e-05
-3.79613e-05
-3.78755e-05
-3.7879e-05
-3.78819e-05
-3.78785e-05
-3.78754e-05
-3.77886e-05
-3.77919e-05
-3.77948e-05
-3.77915e-05
-3.77884e-05
-3.77007e-05
-3.77039e-05
-3.77067e-05
-3.77035e-05
-3.77005e-05
-3.76118e-05
-3.7615e-05
-3.76177e-05
-3.76145e-05
-3.76116e-05
-3.75219e-05
-3.7525e-05
-3.75276e-05
-3.75246e-05
-3.75217e-05
-3.7431e-05
-3.7434e-05
-3.74366e-05
-3.74336e-05
-3.74308e-05
-3.73391e-05
-3.7342e-05
-3.73445e-05
-3.73416e-05
-3.73389e-05
-3.72461e-05
-3.7249e-05
-3.72514e-05
-3.72486e-05
-3.72459e-05
-3.71522e-05
-3.7155e-05
-3.71573e-05
-3.71546e-05
-3.7152e-05
-3.70572e-05
-3.70599e-05
-3.70622e-05
-3.70595e-05
-3.7057e-05
-3.69611e-05
-3.69637e-05
-3.69659e-05
-3.69634e-05
-3.69609e-05
-3.68639e-05
-3.68665e-05
-3.68686e-05
-3.68661e-05
-3.68637e-05
-3.67657e-05
-3.67682e-05
-3.67703e-05
-3.67678e-05
-3.67655e-05
-3.66664e-05
-3.66688e-05
-3.66708e-05
-3.66685e-05
-3.66662e-05
-3.6566e-05
-3.65683e-05
-3.65702e-05
-3.6568e-05
-3.65658e-05
-3.64644e-05
-3.64667e-05
-3.64686e-05
-3.64664e-05
-3.64642e-05
-3.63618e-05
-3.63639e-05
-3.63658e-05
-3.63636e-05
-3.63616e-05
-3.6258e-05
-3.62601e-05
-3.62618e-05
-3.62597e-05
-3.62578e-05
-3.6153e-05
-3.6155e-05
-3.61567e-05
-3.61547e-05
-3.61528e-05
-3.60469e-05
-3.60488e-05
-3.60504e-05
-3.60485e-05
-3.60467e-05
-3.59396e-05
-3.59414e-05
-3.5943e-05
-3.59411e-05
-3.59394e-05
-3.58311e-05
-3.58329e-05
-3.58344e-05
-3.58326e-05
-3.58309e-05
-3.57214e-05
-3.57231e-05
-3.57245e-05
-3.57228e-05
-3.57212e-05
-3.56104e-05
-3.56121e-05
-3.56135e-05
-3.56118e-05
-3.56103e-05
-3.54983e-05
-3.54999e-05
-3.55012e-05
-3.54996e-05
-3.54981e-05
-3.53849e-05
-3.53864e-05
-3.53877e-05
-3.53862e-05
-3.53847e-05
-3.52702e-05
-3.52717e-05
-3.52729e-05
-3.52715e-05
-3.52701e-05
-3.51543e-05
-3.51557e-05
-3.51568e-05
-3.51555e-05
-3.51541e-05
-3.50371e-05
-3.50384e-05
-3.50395e-05
-3.50382e-05
-3.50369e-05
-3.49186e-05
-3.49198e-05
-3.49209e-05
-3.49196e-05
-3.49184e-05
-3.47988e-05
-3.47999e-05
-3.48009e-05
-3.47997e-05
-3.47986e-05
-3.46776e-05
-3.46787e-05
-3.46796e-05
-3.46785e-05
-3.46774e-05
-3.45551e-05
-3.45562e-05
-3.4557e-05
-3.4556e-05
-3.45549e-05
-3.44312e-05
-3.44322e-05
-3.44331e-05
-3.44321e-05
-3.44311e-05
-3.4306e-05
-3.4307e-05
-3.43077e-05
-3.43068e-05
-3.43059e-05
-3.41794e-05
-3.41803e-05
-3.4181e-05
-3.41801e-05
-3.41792e-05
-3.40514e-05
-3.40522e-05
-3.40529e-05
-3.4052e-05
-3.40512e-05
-3.39219e-05
-3.39227e-05
-3.39233e-05
-3.39225e-05
-3.39218e-05
-3.3791e-05
-3.37918e-05
-3.37923e-05
-3.37916e-05
-3.37909e-05
-3.36587e-05
-3.36594e-05
-3.36599e-05
-3.36592e-05
-3.36586e-05
-3.35249e-05
-3.35255e-05
-3.3526e-05
-3.35254e-05
-3.35248e-05
-3.33896e-05
-3.33902e-05
-3.33906e-05
-3.33901e-05
-3.33895e-05
-3.32528e-05
-3.32534e-05
-3.32537e-05
-3.32532e-05
-3.32527e-05
-3.31145e-05
-3.3115e-05
-3.31153e-05
-3.31149e-05
-3.31144e-05
-3.29747e-05
-3.29751e-05
-3.29754e-05
-3.2975e-05
-3.29746e-05
-3.28333e-05
-3.28337e-05
-3.28339e-05
-3.28336e-05
-3.28332e-05
-3.26904e-05
-3.26907e-05
-3.26909e-05
-3.26906e-05
-3.26903e-05
-3.25458e-05
-3.25461e-05
-3.25463e-05
-3.2546e-05
-3.25457e-05
-3.23997e-05
-3.23999e-05
-3.24001e-05
-3.23999e-05
-3.23996e-05
-3.22519e-05
-3.22521e-05
-3.22522e-05
-3.2252e-05
-3.22518e-05
-3.21024e-05
-3.21026e-05
-3.21027e-05
-3.21025e-05
-3.21023e-05
)
;

boundaryField
{
    BotWall
    {
        type            fixedFluxPressure;
        gradient        uniform 0;
        value           nonuniform List<scalar> 5(0.302742 0.302749 0.302748 0.302749 0.302742);
    }
    FreeStream
    {
        type            totalPressure;
        rho             rho;
        psi             none;
        gamma           1;
        p0              uniform 0;
        value           nonuniform List<scalar> 5(-3.20271e-05 -3.20274e-05 -3.20275e-05 -3.20273e-05 -3.2027e-05);
    }
    FrontNBack
    {
        type            empty;
    }
    LeftSide
    {
        type            symmetryPlane;
    }
    RightSide
    {
        type            symmetryPlane;
    }
}


// ************************************************************************* //
