/*--------------------------------*- C++ -*----------------------------------*\
| =========                 |                                                 |
| \\      /  F ield         | OpenFOAM: The Open Source CFD Toolbox           |
|  \\    /   O peration     | Version:  2.4.0                                 |
|   \\  /    A nd           | Web:      www.OpenFOAM.org                      |
|    \\/     M anipulation  |                                                 |
\*---------------------------------------------------------------------------*/
FoamFile
{
    version     2.0;
    format      ascii;
    class       surfaceScalarField;
    location    "0.7";
    object      phi;
}
// * * * * * * * * * * * * * * * * * * * * * * * * * * * * * * * * * * * * * //

dimensions      [0 3 -1 0 0 0 0];

internalField   nonuniform List<scalar> 
895
(
6.75493e-19
-6.75481e-19
3.42133e-19
3.33184e-19
-3.82329e-19
7.24071e-19
-7.18626e-19
3.36087e-19
-7.18449e-19
2.06256e-18
-2.73551e-18
1.03958e-18
1.36042e-18
-1.1623e-18
2.93169e-18
-2.19437e-18
1.3726e-18
-2.90961e-18
3.50656e-18
-6.23915e-18
1.76293e-18
3.10861e-18
-1.97126e-18
6.67182e-18
-3.73063e-18
3.13639e-18
-6.63721e-18
4.98251e-18
-1.12186e-17
2.50836e-18
5.58732e-18
-2.80552e-18
1.19915e-17
-5.30272e-18
5.63777e-18
-1.19372e-17
6.49212e-18
-1.77077e-17
3.29531e-18
8.78841e-18
-3.6846e-18
1.89767e-17
-6.91181e-18
8.86867e-18
-1.88467e-17
8.05968e-18
-2.57647e-17
4.13019e-18
1.27216e-17
-4.6149e-18
2.77263e-17
-8.58221e-18
1.2839e-17
-2.74271e-17
9.93396e-18
-3.56965e-17
4.99688e-18
1.76616e-17
-5.58109e-18
3.83077e-17
-1.05633e-17
1.78234e-17
-3.79892e-17
1.22658e-17
-4.79609e-17
5.72618e-18
2.42029e-17
-6.41498e-18
5.04508e-17
-1.30085e-17
2.44181e-17
-5.0997e-17
1.41949e-17
-7.91361e-17
6.28379e-18
3.21142e-17
-7.0793e-18
6.38141e-17
-1.50678e-17
3.24067e-17
-8.41132e-17
1.27754e-17
-5.3004e-10
7.16794e-18
-5.30041e-10
-8.05973e-18
-5.30041e-10
-1.37995e-17
-5.30041e-10
-5.3004e-10
1.46788e-17
-5.3004e-10
7.36123e-18
-5.30041e-10
-8.29456e-18
-5.30041e-10
-1.56921e-17
-5.30041e-10
-5.3004e-10
2.01009e-17
-5.3004e-10
5.97636e-18
-5.30041e-10
-6.31233e-18
-5.30041e-10
-2.09185e-17
-5.30041e-10
-5.3004e-10
9.87814e-18
-5.3004e-10
5.18982e-18
-5.30041e-10
-4.90526e-18
-5.30041e-10
-1.04696e-17
-5.30041e-10
-5.3004e-10
5.66729e-18
-5.3004e-10
3.16562e-18
-5.30041e-10
-2.26816e-18
-5.30041e-10
-6.03607e-18
-5.30041e-10
-5.3004e-10
3.55731e-18
-5.3004e-10
1.21703e-18
-5.30041e-10
2.84601e-19
-5.30041e-10
-3.70477e-18
-5.30041e-10
-5.3004e-10
1.06503e-18
-5.3004e-10
-4.03002e-19
-5.30041e-10
2.49924e-18
-5.30041e-10
-9.89865e-19
-5.30041e-10
-5.3004e-10
-1.84029e-18
-5.3004e-10
-1.91038e-18
-5.30041e-10
4.59161e-18
-5.30041e-10
2.13995e-18
-5.30041e-10
-5.3004e-10
-4.70041e-18
-5.3004e-10
-3.3928e-18
-5.30041e-10
6.64904e-18
-5.30041e-10
5.2261e-18
-5.30041e-10
-5.3004e-10
-7.37099e-18
-5.3004e-10
-4.8304e-18
-5.30041e-10
8.65115e-18
-5.30041e-10
8.12383e-18
-5.30041e-10
-5.3004e-10
-9.8829e-18
-5.3004e-10
-6.19795e-18
-5.30041e-10
1.05722e-17
-5.30041e-10
1.08637e-17
-5.30041e-10
-5.3004e-10
-1.22706e-17
-5.3004e-10
-7.4893e-18
-5.30041e-10
1.24056e-17
-5.30041e-10
1.34799e-17
-5.30041e-10
-5.3004e-10
-1.45403e-17
-5.3004e-10
-8.70614e-18
-5.30041e-10
1.41525e-17
-5.30041e-10
1.59783e-17
-5.30041e-10
-5.3004e-10
-1.66879e-17
-5.3004e-10
-9.84975e-18
-5.30041e-10
1.58137e-17
-5.30041e-10
1.83547e-17
-5.30041e-10
-5.3004e-10
-1.87104e-17
-5.3004e-10
-1.092e-17
-5.30041e-10
1.73887e-17
-5.30041e-10
2.06055e-17
-5.30041e-10
-5.3004e-10
-2.06068e-17
-5.3004e-10
-1.19166e-17
-5.30041e-10
1.88766e-17
-5.30041e-10
2.27296e-17
-5.30041e-10
-5.3004e-10
-2.23768e-17
-5.3004e-10
-1.28391e-17
-5.30041e-10
2.02768e-17
-5.30041e-10
2.47263e-17
-5.30041e-10
-5.3004e-10
-2.40203e-17
-5.3004e-10
-1.36876e-17
-5.30041e-10
2.15887e-17
-5.30041e-10
2.65952e-17
-5.30041e-10
-5.3004e-10
-2.55373e-17
-5.3004e-10
-1.44621e-17
-5.30041e-10
2.28121e-17
-5.30041e-10
2.83361e-17
-5.30041e-10
-5.3004e-10
-2.69281e-17
-5.3004e-10
-1.51628e-17
-5.30041e-10
2.39468e-17
-5.30041e-10
2.99488e-17
-5.30041e-10
-5.3004e-10
-2.81928e-17
-5.3004e-10
-1.57901e-17
-5.30041e-10
2.49927e-17
-5.30041e-10
3.14333e-17
-5.30041e-10
-5.3004e-10
-2.93323e-17
-5.3004e-10
-1.63445e-17
-5.30041e-10
2.595e-17
-5.30041e-10
3.27899e-17
-5.30041e-10
-5.3004e-10
-3.03472e-17
-5.3004e-10
-1.68266e-17
-5.30041e-10
2.6819e-17
-5.30041e-10
3.40191e-17
-5.30041e-10
-5.30039e-10
-3.12385e-17
-5.3004e-10
-1.72369e-17
-5.30041e-10
2.76001e-17
-5.30041e-10
3.51217e-17
-5.30041e-10
-5.30039e-10
-3.20076e-17
-5.3004e-10
-1.75765e-17
-5.30041e-10
2.82938e-17
-5.30041e-10
3.60985e-17
-5.30041e-10
-5.30039e-10
-3.26559e-17
-5.3004e-10
-1.78463e-17
-5.30041e-10
2.89009e-17
-5.30041e-10
3.69507e-17
-5.30041e-10
-5.30039e-10
-3.31849e-17
-5.30039e-10
-1.80473e-17
-5.30041e-10
2.94221e-17
-5.30041e-10
3.76796e-17
-5.30041e-10
-5.30039e-10
-3.35966e-17
-5.30039e-10
-1.81808e-17
-5.30041e-10
2.98586e-17
-5.30041e-10
3.82868e-17
-5.30041e-10
-5.30039e-10
-3.3893e-17
-5.30039e-10
-1.82481e-17
-5.30041e-10
3.02115e-17
-5.30041e-10
3.8774e-17
-5.30041e-10
-5.30039e-10
-3.40765e-17
-5.30039e-10
-1.82506e-17
-5.30041e-10
3.0482e-17
-5.30041e-10
3.91433e-17
-5.30041e-10
-5.30039e-10
-3.41494e-17
-5.30039e-10
-1.819e-17
-5.30041e-10
3.06717e-17
-5.30041e-10
3.93969e-17
-5.30041e-10
-5.30039e-10
-3.41144e-17
-5.30039e-10
-1.8068e-17
-5.30041e-10
3.07821e-17
-5.30041e-10
3.95371e-17
-5.30041e-10
-5.30039e-10
-3.39744e-17
-5.30039e-10
-1.78863e-17
-5.30041e-10
3.0815e-17
-5.30042e-10
3.95666e-17
-5.30041e-10
-5.30039e-10
-3.37325e-17
-5.30039e-10
-1.76468e-17
-5.30041e-10
3.07723e-17
-5.30042e-10
3.94882e-17
-5.30041e-10
-5.30039e-10
-3.33918e-17
-5.30039e-10
-1.73515e-17
-5.30041e-10
3.06559e-17
-5.30042e-10
3.93047e-17
-5.30041e-10
-5.30039e-10
-3.29558e-17
-5.30039e-10
-1.70027e-17
-5.30041e-10
3.0468e-17
-5.30042e-10
3.90195e-17
-5.30041e-10
-5.30039e-10
-3.24279e-17
-5.30039e-10
-1.66023e-17
-5.30041e-10
3.02109e-17
-5.30042e-10
3.86359e-17
-5.30041e-10
-5.30039e-10
-3.1812e-17
-5.30039e-10
-1.61529e-17
-5.30041e-10
2.9887e-17
-5.30042e-10
3.81573e-17
-5.30041e-10
-5.30039e-10
-3.11119e-17
-5.30039e-10
-1.56567e-17
-5.30041e-10
2.94988e-17
-5.30042e-10
3.75875e-17
-5.30041e-10
-5.30039e-10
-3.03315e-17
-5.30039e-10
-1.51162e-17
-5.30041e-10
2.9049e-17
-5.30042e-10
3.69304e-17
-5.30041e-10
-5.30039e-10
-2.94751e-17
-5.30039e-10
-1.45339e-17
-5.30041e-10
2.85402e-17
-5.30042e-10
3.61898e-17
-5.30041e-10
-5.30039e-10
-2.85469e-17
-5.30039e-10
-1.39125e-17
-5.30041e-10
2.79753e-17
-5.30042e-10
3.53701e-17
-5.30041e-10
-5.30039e-10
-2.75512e-17
-5.30039e-10
-1.32545e-17
-5.30041e-10
2.73572e-17
-5.30042e-10
3.44753e-17
-5.30041e-10
-5.30039e-10
-2.64925e-17
-5.30039e-10
-1.25627e-17
-5.30041e-10
2.6689e-17
-5.30042e-10
3.35098e-17
-5.30041e-10
-5.30039e-10
-2.53753e-17
-5.30039e-10
-1.18398e-17
-5.30041e-10
2.59737e-17
-5.30042e-10
3.24783e-17
-5.30041e-10
-5.30039e-10
-2.42043e-17
-5.30039e-10
-1.10886e-17
-5.30041e-10
2.52145e-17
-5.30042e-10
3.13851e-17
-5.30041e-10
-5.30039e-10
-2.29841e-17
-5.30039e-10
-1.0312e-17
-5.30041e-10
2.44146e-17
-5.30042e-10
3.0235e-17
-5.30041e-10
-5.30039e-10
-2.17195e-17
-5.30039e-10
-9.51267e-18
-5.30041e-10
2.35773e-17
-5.30042e-10
2.90326e-17
-5.30041e-10
-5.30039e-10
-2.04151e-17
-5.30039e-10
-8.69354e-18
-5.30041e-10
2.2706e-17
-5.30042e-10
2.77828e-17
-5.30041e-10
-5.30039e-10
-1.90758e-17
-5.30039e-10
-7.85742e-18
-5.30041e-10
2.1804e-17
-5.30042e-10
2.64903e-17
-5.30041e-10
-5.30039e-10
-1.77063e-17
-5.30039e-10
-7.00716e-18
-5.30041e-10
2.08746e-17
-5.30042e-10
2.516e-17
-5.30041e-10
-5.30039e-10
-1.63114e-17
-5.30039e-10
-6.14556e-18
-5.30041e-10
1.99213e-17
-5.30042e-10
2.37966e-17
-5.30041e-10
-5.30038e-10
-1.48958e-17
-5.30039e-10
-5.27542e-18
-5.30041e-10
1.89475e-17
-5.30042e-10
2.24052e-17
-5.30041e-10
-5.30038e-10
-1.34641e-17
-5.30039e-10
-4.3995e-18
-5.30041e-10
1.79565e-17
-5.30042e-10
2.09904e-17
-5.30041e-10
-5.30038e-10
-1.20211e-17
-5.30039e-10
-3.52049e-18
-5.30041e-10
1.69518e-17
-5.30042e-10
1.9557e-17
-5.30041e-10
-5.30038e-10
-1.05713e-17
-5.30039e-10
-2.64107e-18
-5.30041e-10
1.59367e-17
-5.30042e-10
1.81099e-17
-5.30041e-10
-5.30038e-10
-9.11908e-18
-5.30039e-10
-1.76382e-18
-5.30041e-10
1.49146e-17
-5.30042e-10
1.66536e-17
-5.30041e-10
-5.30038e-10
-7.66891e-18
-5.30039e-10
-8.91267e-19
-5.30041e-10
1.38886e-17
-5.30042e-10
1.51929e-17
-5.30041e-10
-5.30038e-10
-6.22501e-18
-5.30039e-10
-2.58564e-20
-5.30041e-10
1.28621e-17
-5.30042e-10
1.37321e-17
-5.30041e-10
-5.30038e-10
-4.7915e-18
-5.30039e-10
8.30062e-19
-5.30041e-10
1.18383e-17
-5.30042e-10
1.22758e-17
-5.30041e-10
-5.30038e-10
-3.37236e-18
-5.30039e-10
1.67423e-18
-5.30041e-10
1.082e-17
-5.30042e-10
1.08281e-17
-5.30041e-10
-5.30038e-10
-1.9714e-18
-5.30039e-10
2.50451e-18
-5.30041e-10
9.81051e-18
-5.30042e-10
9.39324e-18
-5.30041e-10
-5.30038e-10
-5.92269e-19
-5.30039e-10
3.31887e-18
-5.30041e-10
8.81253e-18
-5.30042e-10
7.97523e-18
-5.30041e-10
-5.30038e-10
7.61577e-19
-5.30039e-10
4.11539e-18
-5.30041e-10
7.82891e-18
-5.30042e-10
6.57788e-18
-5.30041e-10
-5.30038e-10
2.08688e-18
-5.30039e-10
4.89229e-18
-5.30041e-10
6.86233e-18
-5.30042e-10
5.20488e-18
-5.30041e-10
-5.30038e-10
3.38059e-18
-5.30039e-10
5.64795e-18
-5.30041e-10
5.91533e-18
-5.30042e-10
3.85968e-18
-5.30041e-10
-5.30038e-10
4.63988e-18
-5.30039e-10
6.38085e-18
-5.30041e-10
4.99033e-18
-5.30042e-10
2.54557e-18
-5.30041e-10
-5.30038e-10
5.86215e-18
-5.30039e-10
7.08966e-18
-5.30041e-10
4.08963e-18
-5.30042e-10
1.26563e-18
-5.30041e-10
-5.30038e-10
7.04505e-18
-5.30039e-10
7.77319e-18
-5.30041e-10
3.21535e-18
-5.30042e-10
2.26934e-20
-5.30041e-10
-5.30038e-10
8.18647e-18
-5.30039e-10
8.43041e-18
-5.30041e-10
2.36948e-18
-5.30042e-10
-1.1806e-18
-5.30041e-10
-5.30038e-10
9.28456e-18
-5.30039e-10
9.06047e-18
-5.30041e-10
1.55383e-18
-5.30042e-10
-2.34186e-18
-5.30041e-10
-5.30038e-10
1.03377e-17
-5.30039e-10
9.66267e-18
-5.30041e-10
7.70067e-19
-5.30042e-10
-3.45895e-18
-5.30041e-10
-5.30038e-10
1.13447e-17
-5.30039e-10
1.02365e-17
-5.30041e-10
1.96723e-20
-5.30042e-10
-4.52996e-18
-5.30041e-10
-5.30038e-10
1.23044e-17
-5.30039e-10
1.07816e-17
-5.30041e-10
-6.96044e-19
-5.30042e-10
-5.55325e-18
-5.30041e-10
-5.30038e-10
1.32161e-17
-5.30039e-10
1.12979e-17
-5.30041e-10
-1.37595e-18
-5.30042e-10
-6.52744e-18
-5.30041e-10
-5.30038e-10
1.40792e-17
-5.30039e-10
1.17853e-17
-5.30041e-10
-2.01909e-18
-5.30042e-10
-7.45138e-18
-5.30041e-10
-5.30038e-10
1.48937e-17
-5.30039e-10
1.22441e-17
-5.30041e-10
-2.6247e-18
-5.30042e-10
-8.32422e-18
-5.30041e-10
-5.30038e-10
1.56595e-17
-5.30039e-10
1.26747e-17
-5.30041e-10
-3.1922e-18
-5.30042e-10
-9.14535e-18
-5.30041e-10
-5.30038e-10
1.63771e-17
-5.30039e-10
1.30777e-17
-5.30041e-10
-3.7212e-18
-5.30042e-10
-9.91442e-18
-5.30041e-10
-5.30038e-10
1.70471e-17
-5.30039e-10
1.34537e-17
-5.30041e-10
-4.21147e-18
-5.30042e-10
-1.06314e-17
-5.30041e-10
-5.30038e-10
1.76704e-17
-5.30039e-10
1.38038e-17
-5.30041e-10
-4.66299e-18
-5.30042e-10
-1.12963e-17
-5.30041e-10
-5.30038e-10
1.82482e-17
-5.30039e-10
1.41291e-17
-5.30041e-10
-5.07592e-18
-5.30042e-10
-1.19097e-17
-5.30041e-10
-5.30038e-10
1.87819e-17
-5.30039e-10
1.44309e-17
-5.30041e-10
-5.45059e-18
-5.30042e-10
-1.24723e-17
-5.30041e-10
-5.30038e-10
1.92733e-17
-5.30039e-10
1.47106e-17
-5.30041e-10
-5.78752e-18
-5.30042e-10
-1.29848e-17
-5.30041e-10
-5.30038e-10
1.97244e-17
-5.30039e-10
1.49699e-17
-5.30041e-10
-6.08741e-18
-5.30042e-10
-1.34485e-17
-5.30041e-10
-5.30038e-10
2.01373e-17
-5.30039e-10
1.52107e-17
-5.30041e-10
-6.3511e-18
-5.30042e-10
-1.38647e-17
-5.30041e-10
-5.30038e-10
2.05144e-17
-5.30039e-10
1.54348e-17
-5.30041e-10
-6.57955e-18
-5.30042e-10
-1.42348e-17
-5.30041e-10
-5.30038e-10
2.0858e-17
-5.30039e-10
1.56441e-17
-5.30041e-10
-6.77375e-18
-5.30042e-10
-1.45604e-17
-5.30041e-10
-5.30038e-10
2.11714e-17
-5.30039e-10
1.58413e-17
-5.30041e-10
-6.93524e-18
-5.30042e-10
-1.48438e-17
-5.30041e-10
-5.30039e-10
2.1461e-17
-5.30039e-10
1.6031e-17
-5.30041e-10
-7.06758e-18
-5.30042e-10
-1.50899e-17
-5.30041e-10
-5.30039e-10
2.1761e-17
1.62302e-17
-7.19025e-18
-1.53293e-17
)
;

boundaryField
{
    BotWall
    {
        type            calculated;
        value           nonuniform List<scalar> 5(-3.73447e-23 1.646e-22 2.49823e-22 1.84663e-22 -5.79235e-23);
    }
    FreeStream
    {
        type            calculated;
        value           nonuniform List<scalar> 5(-5.30039e-10 -5.30041e-10 -5.30042e-10 -5.30041e-10 -5.30039e-10);
    }
    FrontNBack
    {
        type            empty;
        value           nonuniform 0();
    }
    LeftSide
    {
        type            symmetryPlane;
        value           uniform 0;
    }
    RightSide
    {
        type            symmetryPlane;
        value           uniform 0;
    }
}


// ************************************************************************* //
