/*--------------------------------*- C++ -*----------------------------------*\
| =========                 |                                                 |
| \\      /  F ield         | OpenFOAM: The Open Source CFD Toolbox           |
|  \\    /   O peration     | Version:  2.4.0                                 |
|   \\  /    A nd           | Web:      www.OpenFOAM.org                      |
|    \\/     M anipulation  |                                                 |
\*---------------------------------------------------------------------------*/
FoamFile
{
    version     2.0;
    format      ascii;
    class       volVectorField;
    location    "0.7";
    object      U;
}
// * * * * * * * * * * * * * * * * * * * * * * * * * * * * * * * * * * * * * //

dimensions      [0 1 -1 0 0 0 0];

internalField   nonuniform List<vector> 
500
(
(2.39755e-10 3.53893e-08 0)
(2.53885e-10 3.53919e-08 0)
(-5.39512e-12 3.53924e-08 0)
(-2.72369e-10 3.53919e-08 0)
(-2.52776e-10 3.53891e-08 0)
(7.22718e-10 8.64055e-08 0)
(7.64855e-10 8.64459e-08 0)
(-1.62875e-11 8.645e-08 0)
(-8.20679e-10 8.64459e-08 0)
(-7.62051e-10 8.64048e-08 0)
(1.21435e-09 -1.56728e-07 0)
(1.2842e-09 -1.5695e-07 0)
(-2.73354e-11 -1.56938e-07 0)
(-1.37799e-09 -1.5695e-07 0)
(-1.28047e-09 -1.56729e-07 0)
(1.70862e-09 -1.08881e-06 0)
(1.80561e-09 -1.08913e-06 0)
(-3.85439e-11 -1.08911e-06 0)
(-1.93802e-09 -1.08913e-06 0)
(-1.80202e-09 -1.08881e-06 0)
(2.21284e-09 -1.9378e-06 0)
(2.33614e-09 -1.93762e-06 0)
(-4.99053e-11 -1.93758e-06 0)
(-2.50774e-09 -1.93762e-06 0)
(-2.33395e-09 -1.9378e-06 0)
(2.73253e-09 4.02919e-06 0)
(2.88143e-09 4.03292e-06 0)
(-6.13978e-11 4.03299e-06 0)
(-3.09278e-09 4.03292e-06 0)
(-2.88179e-09 4.02918e-06 0)
(3.30299e-09 2.88837e-05 0)
(3.47687e-09 2.8891e-05 0)
(-7.31057e-11 2.88911e-05 0)
(-3.72878e-09 2.8891e-05 0)
(-3.48101e-09 2.88836e-05 0)
(3.89626e-09 4.94223e-05 0)
(4.09288e-09 4.94202e-05 0)
(-8.51571e-11 4.94204e-05 0)
(-4.38673e-09 4.94202e-05 0)
(-4.10409e-09 4.94221e-05 0)
(4.34154e-09 -0.00010405 0)
(4.56358e-09 -0.000104092 0)
(-9.74785e-11 -0.000104092 0)
(-4.90123e-09 -0.000104092 0)
(-4.58079e-09 -0.00010405 0)
(4.32171e-09 -0.000779433 0)
(4.56807e-09 -0.000779477 0)
(-1.09227e-10 -0.000779478 0)
(-4.94785e-09 -0.000779477 0)
(-4.59132e-09 -0.000779432 0)
(4.6635e-09 -0.00193462 0)
(4.91293e-09 -0.00193458 0)
(-1.11141e-10 -0.00193457 0)
(-5.29951e-09 -0.00193458 0)
(-4.938e-09 -0.00193462 0)
(5.32268e-09 -0.0044682 0)
(5.08214e-09 -0.00446815 0)
(1.98628e-11 -0.00446815 0)
(-5.33751e-09 -0.00446815 0)
(-5.59435e-09 -0.0044682 0)
(3.68783e-09 -0.00275128 0)
(2.95471e-09 -0.00275134 0)
(1.51511e-10 -0.00275134 0)
(-3.07308e-09 -0.00275134 0)
(-3.95159e-09 -0.00275127 0)
(2.63171e-09 -0.00255851 0)
(1.43855e-09 -0.00255852 0)
(2.77403e-10 -0.00255852 0)
(-1.42347e-09 -0.00255852 0)
(-2.88544e-09 -0.00255851 0)
(1.93684e-09 -0.00259656 0)
(3.11613e-10 -0.00259655 0)
(3.98036e-10 -0.00259655 0)
(-1.67031e-10 -0.00259655 0)
(-2.1793e-09 -0.00259656 0)
(1.28691e-09 -0.00264454 0)
(-7.4245e-10 -0.00264454 0)
(5.1344e-10 -0.00264454 0)
(1.01283e-09 -0.00264454 0)
(-1.51665e-09 -0.00264454 0)
(6.10204e-10 -0.00265435 0)
(-1.79602e-09 -0.00265435 0)
(6.23717e-10 -0.00265436 0)
(2.18866e-09 -0.00265435 0)
(-8.25739e-10 -0.00265435 0)
(-4.97149e-11 -0.00265232 0)
(-2.80601e-09 -0.00265233 0)
(7.28911e-10 -0.00265233 0)
(3.31735e-09 -0.00265233 0)
(-1.50195e-10 -0.00265232 0)
(-6.65907e-10 -0.00265043 0)
(-3.74593e-09 -0.00265043 0)
(8.29056e-10 -0.00265043 0)
(4.37234e-09 -0.00265043 0)
(4.82939e-10 -0.00265043 0)
(-1.23682e-09 -0.00265003 0)
(-4.61474e-09 -0.00265003 0)
(9.24193e-10 -0.00265003 0)
(5.35253e-09 -0.00265003 0)
(1.07202e-09 -0.00265003 0)
(-1.76708e-09 -0.00265011 0)
(-5.41757e-09 -0.00265012 0)
(1.01437e-09 -0.00265012 0)
(6.26302e-09 -0.00265012 0)
(1.62155e-09 -0.00265011 0)
(-2.2593e-09 -0.00265019 0)
(-6.1576e-09 -0.00265019 0)
(1.09963e-09 -0.00265019 0)
(7.10695e-09 -0.00265019 0)
(2.13408e-09 -0.00265019 0)
(-2.7144e-09 -0.00265021 0)
(-6.83632e-09 -0.00265021 0)
(1.18004e-09 -0.00265021 0)
(7.88577e-09 -0.00265021 0)
(2.61043e-09 -0.00265021 0)
(-3.13302e-09 -0.0026502 0)
(-7.45494e-09 -0.00265021 0)
(1.25565e-09 -0.00265021 0)
(8.60067e-09 -0.00265021 0)
(3.05115e-09 -0.0026502 0)
(-3.51596e-09 -0.0026502 0)
(-8.01489e-09 -0.0026502 0)
(1.32653e-09 -0.0026502 0)
(9.25305e-09 -0.0026502 0)
(3.45694e-09 -0.0026502 0)
(-3.86415e-09 -0.0026502 0)
(-8.51773e-09 -0.0026502 0)
(1.39274e-09 -0.0026502 0)
(9.84444e-09 -0.0026502 0)
(3.82866e-09 -0.0026502 0)
(-4.17858e-09 -0.0026502 0)
(-8.96505e-09 -0.0026502 0)
(1.45434e-09 -0.0026502 0)
(1.03764e-08 -0.0026502 0)
(4.16718e-09 -0.0026502 0)
(-4.4602e-09 -0.0026502 0)
(-9.35852e-09 -0.0026502 0)
(1.51142e-09 -0.0026502 0)
(1.08507e-08 -0.0026502 0)
(4.47339e-09 -0.0026502 0)
(-4.71004e-09 -0.0026502 0)
(-9.6998e-09 -0.0026502 0)
(1.56404e-09 -0.0026502 0)
(1.12688e-08 -0.0026502 0)
(4.7482e-09 -0.0026502 0)
(-4.92909e-09 -0.0026502 0)
(-9.99059e-09 -0.0026502 0)
(1.6123e-09 -0.0026502 0)
(1.16325e-08 -0.0026502 0)
(4.99256e-09 -0.0026502 0)
(-5.11838e-09 -0.0026502 0)
(-1.02326e-08 -0.0026502 0)
(1.65627e-09 -0.0026502 0)
(1.19436e-08 -0.0026502 0)
(5.20739e-09 -0.0026502 0)
(-5.27898e-09 -0.0026502 0)
(-1.04277e-08 -0.0026502 0)
(1.69604e-09 -0.00265021 0)
(1.22037e-08 -0.0026502 0)
(5.39366e-09 -0.0026502 0)
(-5.41193e-09 -0.0026502 0)
(-1.05775e-08 -0.0026502 0)
(1.73169e-09 -0.00265021 0)
(1.24147e-08 -0.0026502 0)
(5.55236e-09 -0.0026502 0)
(-5.5183e-09 -0.0026502 0)
(-1.0684e-08 -0.0026502 0)
(1.76333e-09 -0.00265021 0)
(1.25785e-08 -0.0026502 0)
(5.68448e-09 -0.0026502 0)
(-5.59918e-09 -0.0026502 0)
(-1.07489e-08 -0.0026502 0)
(1.79105e-09 -0.00265021 0)
(1.26968e-08 -0.0026502 0)
(5.79102e-09 -0.0026502 0)
(-5.65567e-09 -0.0026502 0)
(-1.07741e-08 -0.0026502 0)
(1.81495e-09 -0.00265021 0)
(1.27716e-08 -0.0026502 0)
(5.873e-09 -0.0026502 0)
(-5.68885e-09 -0.0026502 0)
(-1.07614e-08 -0.0026502 0)
(1.83513e-09 -0.00265021 0)
(1.28046e-08 -0.0026502 0)
(5.93145e-09 -0.0026502 0)
(-5.69983e-09 -0.0026502 0)
(-1.07127e-08 -0.0026502 0)
(1.8517e-09 -0.00265021 0)
(1.27979e-08 -0.0026502 0)
(5.9674e-09 -0.0026502 0)
(-5.68972e-09 -0.0026502 0)
(-1.063e-08 -0.0026502 0)
(1.86477e-09 -0.00265021 0)
(1.27534e-08 -0.0026502 0)
(5.9819e-09 -0.0026502 0)
(-5.65963e-09 -0.0026502 0)
(-1.05149e-08 -0.0026502 0)
(1.87443e-09 -0.00265021 0)
(1.26729e-08 -0.0026502 0)
(5.97598e-09 -0.0026502 0)
(-5.61065e-09 -0.0026502 0)
(-1.03696e-08 -0.0026502 0)
(1.88082e-09 -0.00265021 0)
(1.25583e-08 -0.0026502 0)
(5.95069e-09 -0.0026502 0)
(-5.5439e-09 -0.0026502 0)
(-1.01957e-08 -0.0026502 0)
(1.88404e-09 -0.00265021 0)
(1.24117e-08 -0.0026502 0)
(5.90708e-09 -0.0026502 0)
(-5.46048e-09 -0.0026502 0)
(-9.99523e-09 -0.0026502 0)
(1.8842e-09 -0.00265021 0)
(1.22349e-08 -0.0026502 0)
(5.84619e-09 -0.0026502 0)
(-5.36148e-09 -0.0026502 0)
(-9.77002e-09 -0.0026502 0)
(1.88144e-09 -0.00265021 0)
(1.20299e-08 -0.0026502 0)
(5.76907e-09 -0.0026502 0)
(-5.24799e-09 -0.0026502 0)
(-9.5219e-09 -0.0026502 0)
(1.87587e-09 -0.00265021 0)
(1.17985e-08 -0.0026502 0)
(5.67676e-09 -0.0026502 0)
(-5.12108e-09 -0.0026502 0)
(-9.25271e-09 -0.0026502 0)
(1.8676e-09 -0.00265021 0)
(1.15428e-08 -0.0026502 0)
(5.57029e-09 -0.00265019 0)
(-4.98183e-09 -0.0026502 0)
(-8.96426e-09 -0.0026502 0)
(1.85678e-09 -0.00265021 0)
(1.12645e-08 -0.0026502 0)
(5.45068e-09 -0.00265019 0)
(-4.83128e-09 -0.0026502 0)
(-8.65835e-09 -0.0026502 0)
(1.84351e-09 -0.00265021 0)
(1.09656e-08 -0.0026502 0)
(5.31895e-09 -0.00265019 0)
(-4.67046e-09 -0.0026502 0)
(-8.33674e-09 -0.0026502 0)
(1.82793e-09 -0.00265021 0)
(1.06478e-08 -0.0026502 0)
(5.17609e-09 -0.00265019 0)
(-4.50041e-09 -0.0026502 0)
(-8.00116e-09 -0.0026502 0)
(1.81016e-09 -0.00265021 0)
(1.03131e-08 -0.0026502 0)
(5.0231e-09 -0.00265019 0)
(-4.32212e-09 -0.0026502 0)
(-7.65333e-09 -0.00265021 0)
(1.79033e-09 -0.00265021 0)
(9.96315e-09 -0.0026502 0)
(4.86095e-09 -0.00265019 0)
(-4.13657e-09 -0.00265019 0)
(-7.2949e-09 -0.00265021 0)
(1.76856e-09 -0.00265021 0)
(9.59981e-09 -0.0026502 0)
(4.6906e-09 -0.00265019 0)
(-3.94472e-09 -0.00265019 0)
(-6.92751e-09 -0.00265021 0)
(1.74499e-09 -0.00265021 0)
(9.22478e-09 -0.0026502 0)
(4.51299e-09 -0.00265019 0)
(-3.7475e-09 -0.00265019 0)
(-6.55276e-09 -0.00265021 0)
(1.71975e-09 -0.00265021 0)
(8.83977e-09 -0.0026502 0)
(4.32902e-09 -0.00265019 0)
(-3.54584e-09 -0.00265019 0)
(-6.17218e-09 -0.00265021 0)
(1.69295e-09 -0.00265021 0)
(8.44641e-09 -0.0026502 0)
(4.13961e-09 -0.00265019 0)
(-3.34059e-09 -0.00265019 0)
(-5.78727e-09 -0.00265021 0)
(1.66473e-09 -0.00265021 0)
(8.04633e-09 -0.0026502 0)
(3.94562e-09 -0.00265019 0)
(-3.13264e-09 -0.00265019 0)
(-5.3995e-09 -0.00265021 0)
(1.63522e-09 -0.00265021 0)
(7.64109e-09 -0.0026502 0)
(3.74791e-09 -0.00265019 0)
(-2.92279e-09 -0.00265019 0)
(-5.01026e-09 -0.00265021 0)
(1.60453e-09 -0.00265021 0)
(7.23221e-09 -0.0026502 0)
(3.54728e-09 -0.00265019 0)
(-2.71184e-09 -0.00265019 0)
(-4.62089e-09 -0.00265021 0)
(1.5728e-09 -0.00265021 0)
(6.82114e-09 -0.0026502 0)
(3.34455e-09 -0.00265019 0)
(-2.50056e-09 -0.00265019 0)
(-4.23268e-09 -0.00265021 0)
(1.54014e-09 -0.00265021 0)
(6.40931e-09 -0.0026502 0)
(3.14048e-09 -0.00265019 0)
(-2.28968e-09 -0.00265019 0)
(-3.84688e-09 -0.00265021 0)
(1.50669e-09 -0.00265021 0)
(5.99807e-09 -0.0026502 0)
(2.9358e-09 -0.00265019 0)
(-2.07988e-09 -0.00265019 0)
(-3.46464e-09 -0.00265021 0)
(1.47255e-09 -0.00265021 0)
(5.58872e-09 -0.0026502 0)
(2.73121e-09 -0.00265019 0)
(-1.87184e-09 -0.00265019 0)
(-3.08709e-09 -0.00265021 0)
(1.43785e-09 -0.00265021 0)
(5.18249e-09 -0.0026502 0)
(2.52741e-09 -0.00265019 0)
(-1.66617e-09 -0.00265019 0)
(-2.71526e-09 -0.00265021 0)
(1.4027e-09 -0.00265021 0)
(4.78056e-09 -0.0026502 0)
(2.32502e-09 -0.00265019 0)
(-1.46346e-09 -0.00265019 0)
(-2.35015e-09 -0.00265021 0)
(1.36722e-09 -0.00265021 0)
(4.38404e-09 -0.0026502 0)
(2.12466e-09 -0.00265019 0)
(-1.26426e-09 -0.00265019 0)
(-1.99266e-09 -0.00265021 0)
(1.33152e-09 -0.00265021 0)
(3.99399e-09 -0.0026502 0)
(1.92689e-09 -0.00265019 0)
(-1.06909e-09 -0.00265019 0)
(-1.64366e-09 -0.00265021 0)
(1.2957e-09 -0.00265021 0)
(3.61139e-09 -0.0026502 0)
(1.73226e-09 -0.00265019 0)
(-8.78423e-10 -0.00265019 0)
(-1.30392e-09 -0.00265021 0)
(1.25988e-09 -0.00265021 0)
(3.23714e-09 -0.0026502 0)
(1.54128e-09 -0.00265019 0)
(-6.92688e-10 -0.00265019 0)
(-9.74164e-10 -0.00265021 0)
(1.22416e-09 -0.00265021 0)
(2.87209e-09 -0.0026502 0)
(1.35441e-09 -0.00265019 0)
(-5.12284e-10 -0.00265019 0)
(-6.5503e-10 -0.00265021 0)
(1.18863e-09 -0.00265021 0)
(2.51704e-09 -0.0026502 0)
(1.17208e-09 -0.00265019 0)
(-3.37571e-10 -0.00265019 0)
(-3.47099e-10 -0.00265021 0)
(1.15339e-09 -0.00265021 0)
(2.17267e-09 -0.0026502 0)
(9.94682e-10 -0.00265019 0)
(-1.68868e-10 -0.00265019 0)
(-5.08809e-11 -0.00265021 0)
(1.11855e-09 -0.00265021 0)
(1.83963e-09 -0.0026502 0)
(8.22586e-10 -0.00265019 0)
(-6.45591e-12 -0.00265019 0)
(2.33185e-10 -0.00265021 0)
(1.08417e-09 -0.00265021 0)
(1.5185e-09 -0.0026502 0)
(6.56111e-10 -0.00265019 0)
(1.49423e-10 -0.00265019 0)
(5.04727e-10 -0.00265021 0)
(1.05037e-09 -0.00265021 0)
(1.20977e-09 -0.0026502 0)
(4.95544e-10 -0.00265019 0)
(2.98562e-10 -0.00265019 0)
(7.63441e-10 -0.00265021 0)
(1.0172e-09 -0.00265021 0)
(9.13868e-10 -0.0026502 0)
(3.41136e-10 -0.00265019 0)
(4.40795e-10 -0.00265019 0)
(1.00909e-09 -0.00265021 0)
(9.84766e-10 -0.00265021 0)
(6.31166e-10 -0.0026502 0)
(1.93104e-10 -0.00265019 0)
(5.75991e-10 -0.00265019 0)
(1.2415e-09 -0.00265021 0)
(9.53128e-10 -0.00265021 0)
(3.61957e-10 -0.0026502 0)
(5.16287e-11 -0.00265019 0)
(7.04054e-10 -0.00265019 0)
(1.46056e-09 -0.00265021 0)
(9.2236e-10 -0.00265021 0)
(1.0647e-10 -0.0026502 0)
(-8.31429e-11 -0.00265019 0)
(8.24925e-10 -0.00265019 0)
(1.66624e-09 -0.00265021 0)
(8.9253e-10 -0.00265021 0)
(-1.35131e-10 -0.0026502 0)
(-2.11097e-10 -0.00265019 0)
(9.38576e-10 -0.00265019 0)
(1.85855e-09 -0.00265021 0)
(8.63701e-10 -0.00265021 0)
(-3.62746e-10 -0.0026502 0)
(-3.32153e-10 -0.00265019 0)
(1.04501e-09 -0.00265019 0)
(2.03756e-09 -0.00265021 0)
(8.35932e-10 -0.00265021 0)
(-5.76337e-10 -0.0026502 0)
(-4.4626e-10 -0.00265019 0)
(1.14428e-09 -0.00265019 0)
(2.20342e-09 -0.00265021 0)
(8.09278e-10 -0.00265021 0)
(-7.75926e-10 -0.0026502 0)
(-5.534e-10 -0.00265019 0)
(1.23644e-09 -0.00265019 0)
(2.35631e-09 -0.00265021 0)
(7.8379e-10 -0.00265021 0)
(-9.61596e-10 -0.0026502 0)
(-6.53583e-10 -0.00265019 0)
(1.32159e-09 -0.00265019 0)
(2.49649e-09 -0.00265021 0)
(7.59516e-10 -0.00265021 0)
(-1.13348e-09 -0.0026502 0)
(-7.46846e-10 -0.00265019 0)
(1.39985e-09 -0.00265019 0)
(2.62424e-09 -0.00265021 0)
(7.36498e-10 -0.00265021 0)
(-1.29178e-09 -0.0026502 0)
(-8.33254e-10 -0.00265019 0)
(1.47139e-09 -0.00265019 0)
(2.73991e-09 -0.00265021 0)
(7.14776e-10 -0.00265021 0)
(-1.43673e-09 -0.0026502 0)
(-9.12896e-10 -0.00265019 0)
(1.53636e-09 -0.00265019 0)
(2.8439e-09 -0.00265021 0)
(6.94385e-10 -0.00265021 0)
(-1.56862e-09 -0.0026502 0)
(-9.85885e-10 -0.00265019 0)
(1.59498e-09 -0.00265019 0)
(2.93665e-09 -0.00265021 0)
(6.75358e-10 -0.00265021 0)
(-1.68779e-09 -0.0026502 0)
(-1.05236e-09 -0.00265019 0)
(1.64745e-09 -0.00265019 0)
(3.01861e-09 -0.00265021 0)
(6.57722e-10 -0.00265021 0)
(-1.79463e-09 -0.0026502 0)
(-1.11246e-09 -0.00265019 0)
(1.69401e-09 -0.00265019 0)
(3.09032e-09 -0.00265021 0)
(6.41501e-10 -0.00265021 0)
(-1.88956e-09 -0.0026502 0)
(-1.16637e-09 -0.00265019 0)
(1.73492e-09 -0.00265019 0)
(3.15232e-09 -0.00265021 0)
(6.26717e-10 -0.00265021 0)
(-1.97303e-09 -0.0026502 0)
(-1.21428e-09 -0.00265019 0)
(1.77043e-09 -0.00265019 0)
(3.20518e-09 -0.00265021 0)
(6.13388e-10 -0.00265021 0)
(-2.04555e-09 -0.0026502 0)
(-1.25638e-09 -0.00265019 0)
(1.80084e-09 -0.00265019 0)
(3.24952e-09 -0.00265021 0)
(6.01527e-10 -0.00265021 0)
(-2.10764e-09 -0.0026502 0)
(-1.2929e-09 -0.00265019 0)
(1.82642e-09 -0.00265019 0)
(3.28597e-09 -0.00265021 0)
(5.91147e-10 -0.00265021 0)
(-2.15985e-09 -0.0026502 0)
(-1.32405e-09 -0.00265019 0)
(1.84748e-09 -0.00265019 0)
(3.31519e-09 -0.00265021 0)
(5.82257e-10 -0.00265021 0)
(-2.20276e-09 -0.0026502 0)
(-1.35007e-09 -0.00265019 0)
(1.86431e-09 -0.00265019 0)
(3.33784e-09 -0.00265021 0)
(5.7486e-10 -0.00265021 0)
(-2.23697e-09 -0.0026502 0)
(-1.37118e-09 -0.00265019 0)
(1.87721e-09 -0.0026502 0)
(3.35461e-09 -0.00265021 0)
(5.68962e-10 -0.00265021 0)
(-2.26309e-09 -0.0026502 0)
(-1.38763e-09 -0.00265019 0)
(1.88654e-09 -0.0026502 0)
(3.3663e-09 -0.00265021 0)
(5.64564e-10 -0.00265021 0)
(-2.28184e-09 -0.0026502 0)
(-1.3997e-09 -0.00265019 0)
(1.8928e-09 -0.0026502 0)
(3.37391e-09 -0.00265021 0)
(5.61678e-10 -0.00265021 0)
(-2.29413e-09 -0.0026502 0)
(-1.40779e-09 -0.00265019 0)
(1.89638e-09 -0.0026502 0)
(3.37837e-09 -0.00265021 0)
(5.60304e-10 -0.00265021 0)
(-2.30079e-09 -0.0026502 0)
(-1.41223e-09 -0.00265019 0)
)
;

boundaryField
{
    BotWall
    {
        type            fixedValue;
        value           uniform (0 0 0);
    }
    FreeStream
    {
        type            zeroGradient;
    }
    FrontNBack
    {
        type            empty;
    }
    LeftSide
    {
        type            symmetryPlane;
    }
    RightSide
    {
        type            symmetryPlane;
    }
}


// ************************************************************************* //
