/*--------------------------------*- C++ -*----------------------------------*\
| =========                 |                                                 |
| \\      /  F ield         | OpenFOAM: The Open Source CFD Toolbox           |
|  \\    /   O peration     | Version:  2.4.0                                 |
|   \\  /    A nd           | Web:      www.OpenFOAM.org                      |
|    \\/     M anipulation  |                                                 |
\*---------------------------------------------------------------------------*/
FoamFile
{
    version     2.0;
    format      ascii;
    class       volScalarField;
    location    "1.2";
    object      H;
}
// * * * * * * * * * * * * * * * * * * * * * * * * * * * * * * * * * * * * * //

dimensions      [0 2 -2 0 0 0 0];

internalField   nonuniform List<scalar> 
8000
(
-11967.5
-11443.2
-10920.7
-10401.2
-9886.05
-9376.34
-8873.28
-8378.01
-7891.64
-7415.22
-6949.72
-6496.04
-6055.02
-5627.38
-5213.73
-4814.58
-4430.31
-4061.17
-3707.28
-3368.6
-3044.97
-2736.08
-2441.5
-2160.66
-1892.89
-1637.4
-1393.28
-1159.47
-934.66
-717.204
-505.056
-295.886
-86.8625
-1.44285
-1.17564
-1.06271
-1.048
-1.03447
-1.02025
-1.00491
-0.988085
-0.969548
-0.949206
-0.927099
-0.903368
-0.878227
-0.851935
-0.824767
-0.796997
-0.768885
-11969.5
-11449.2
-10930.4
-10414.5
-9902.57
-9395.75
-8895.21
-8402.08
-7917.45
-7442.37
-6977.83
-6524.74
-6083.93
-5656.16
-5242.07
-4842.17
-4456.86
-4086.43
-3730.99
-3390.56
-3064.96
-2753.92
-2456.99
-2173.59
-1903.01
-1644.34
-1396.45
-1157.84
-926.334
-698.696
-470.47
-237.7
-2.20072
-0.0614453
-0.168407
-0.308815
-0.429199
-0.528782
-0.610087
-0.675127
-0.72555
-0.762837
-0.788414
-0.8037
-0.810106
-0.809007
-0.801707
-0.789404
-0.773171
-0.753943
-11971
-11453.6
-10937.7
-10424.5
-9915.2
-9410.78
-8912.4
-8421.15
-7938.1
-7464.29
-7000.7
-6548.24
-6107.76
-5680.02
-5265.65
-4865.2
-4479.08
-4107.57
-3750.82
-3408.83
-3081.45
-2768.38
-2469.18
-2183.23
-1909.76
-1647.82
-1396.25
-1153.59
-917.948
-686.856
-457.571
-228.46
-2.15505
-1.96267
-1.38627
-1.22739
-1.11478
-1.02945
-0.968083
-0.926211
-0.898838
-0.88115
-0.868988
-0.859088
-0.849135
-0.837677
-0.823965
-0.807768
-0.789205
-0.768594
-11971.1
-11453.7
-10937.8
-10424.6
-9915.07
-9410.36
-8911.58
-8419.84
-7936.22
-7461.75
-6997.42
-6544.16
-6102.8
-5674.1
-5258.71
-4857.16
-4469.86
-4097.07
-3738.93
-3395.42
-3066.38
-2751.46
-2450.19
-2161.92
-1885.81
-1620.93
-1366.19
-1120.51
-882.929
-652.826
-430.126
-215.356
-2.28596
-2.05195
-1.60513
-1.5265
-1.45611
-1.38981
-1.32767
-1.26955
-1.21512
-1.16399
-1.11575
-1.07003
-1.0265
-0.984903
-0.945051
-0.906793
-0.870021
-0.834651
-11970.8
-11453
-10936.7
-10423
-9913.06
-9407.91
-8908.68
-8416.48
-7932.37
-7457.41
-6992.57
-6538.76
-6096.83
-5667.52
-5251.46
-4849.18
-4461.06
-4087.36
-3728.2
-3383.54
-3053.21
-2736.86
-2434.03
-2144.11
-1866.4
-1600.12
-1344.44
-1098.6
-861.959
-634.091
-414.976
-205.285
-2.65261
-2.16349
-1.83931
-1.74583
-1.66005
-1.57974
-1.50441
-1.43358
-1.36681
-1.3037
-1.24392
-1.18722
-1.13335
-1.08213
-1.0334
-0.987009
-0.942834
-0.900752
-11970.2
-11451.1
-10933.6
-10418.8
-9907.75
-9401.56
-8901.37
-8408.26
-7923.3
-7447.54
-6981.95
-6527.43
-6084.81
-5654.81
-5238.07
-4835.07
-4446.19
-4071.68
-3711.62
-3365.97
-3034.53
-2716.98
-2412.84
-2121.53
-1842.35
-1574.52
-1317.18
-1069.38
-830.052
-598.053
-372.801
-155.874
-2.97719
-2.20015
-1.96846
-1.83695
-1.72765
-1.63481
-1.55392
-1.48148
-1.41499
-1.35278
-1.29377
-1.23733
-1.1831
-1.13093
-1.08075
-1.03253
-0.986277
-0.941967
-11969.6
-11449.3
-10930.7
-10414.6
-9902.35
-9394.97
-8893.59
-8399.32
-7913.23
-7436.34
-6969.64
-6514.02
-6070.32
-5639.24
-5221.4
-4817.29
-4427.28
-4051.59
-3690.29
-3343.31
-3010.45
-2691.32
-2385.4
-2092.01
-1810.31
-1539.27
-1277.61
-1023.47
-773.864
-523.748
-266.893
-2.49211
-1.37333
-0.884737
-0.792552
-0.810223
-0.876762
-0.954975
-1.02452
-1.07688
-1.11021
-1.12594
-1.12672
-1.11554
-1.09523
-1.06828
-1.03675
-1.0023
-0.966226
-0.929467
-11968.8
-11447
-10926.8
-10409.1
-9895.2
-9386.16
-8883.12
-8387.19
-7899.47
-7420.98
-6952.71
-6495.57
-6050.36
-5617.82
-5198.54
-4793
-4401.55
-4024.37
-3661.53
-3312.92
-2978.26
-2657.14
-2348.94
-2052.9
-1768.09
-1493.42
-1227.72
-969.901
-719.186
-475.43
-239.382
-2.50756
-2.24328
-1.76012
-1.68241
-1.61462
-1.55223
-1.4939
-1.43852
-1.38528
-1.33371
-1.28353
-1.23463
-1.18701
-1.14069
-1.09573
-1.05219
-1.0101
-0.969467
-0.930298
-11968.2
-11445.1
-10923.6
-10404.7
-9889.58
-9379.39
-8875.24
-8378.25
-7889.5
-7410.02
-6940.79
-6482.72
-6036.59
-5603.13
-5182.9
-4776.37
-4383.86
-4005.54
-3641.44
-3291.42
-2955.22
-2632.39
-2322.39
-2024.56
-1738.16
-1462.44
-1196.71
-940.377
-693.063
-454.629
-225.28
-2.93591
-2.357
-2.0416
-1.94333
-1.85172
-1.76538
-1.68389
-1.60685
-1.53391
-1.46477
-1.39918
-1.33689
-1.27771
-1.22143
-1.16789
-1.11691
-1.06834
-1.02204
-0.977868
-11967.7
-11443.6
-10921.2
-10401.4
-9885.52
-9374.61
-8869.79
-8372.19
-7882.86
-7402.84
-6933.09
-6474.47
-6027.79
-5593.73
-5172.85
-4765.59
-4372.25
-3993
-3627.84
-3276.64
-2939.14
-2614.92
-2303.46
-2004.13
-1716.21
-1438.92
-1171.46
-913.016
-662.728
-419.806
-184.578
-3.30521
-2.44934
-2.22219
-2.09353
-1.98115
-1.88
-1.78717
-1.70086
-1.61997
-1.54378
-1.47182
-1.40376
-1.33933
-1.27831
-1.22047
-1.16561
-1.11355
-1.06408
-1.01704
-11967.3
-11442.3
-10919
-10398.4
-9881.64
-9369.87
-8864.21
-8365.76
-7875.59
-7394.71
-6924.09
-6464.58
-6016.97
-5581.93
-5160.02
-4751.67
-4357.16
-3976.64
-3610.11
-3257.42
-2918.26
-2592.18
-2278.55
-1976.59
-1685.32
-1403.54
-1129.69
-861.427
-594.146
-316.56
-2.9229
-0.105826
-0.447949
-0.823193
-1.09013
-1.26168
-1.36182
-1.4113
-1.42575
-1.4165
-1.39162
-1.35679
-1.31595
-1.27183
-1.22626
-1.18044
-1.13513
-1.09079
-1.04768
-1.00593
-11966.8
-11440.9
-10916.6
-10394.9
-9877.09
-9364.19
-8857.36
-8357.71
-7866.31
-7384.19
-6912.29
-6451.48
-6002.55
-5566.15
-5142.83
-4733.01
-4336.96
-3954.79
-3586.47
-3231.81
-2890.41
-2561.74
-2245.02
-1939.29
-1643.34
-1355.74
-1074.98
-799.795
-529.659
-265.517
-2.63254
-2.42853
-1.86225
-1.78862
-1.72268
-1.65935
-1.59796
-1.53833
-1.48053
-1.42469
-1.37098
-1.3195
-1.27027
-1.22325
-1.17834
-1.13541
-1.09428
-1.05477
-1.01672
-0.97996
-11966.4
-11439.6
-10914.4
-10391.9
-9873.19
-9359.39
-8851.66
-8351.09
-7858.76
-7375.69
-6902.81
-6441
-5991.02
-5553.51
-5129.01
-4717.9
-4320.44
-3936.7
-3566.63
-3209.99
-2866.39
-2535.28
-2215.98
-1907.73
-1609.73
-1321.25
-1041.72
-770.91
-508.907
-256.147
-2.97794
-2.49714
-2.0934
-2.00482
-1.92095
-1.84069
-1.76394
-1.6906
-1.62056
-1.5537
-1.48989
-1.429
-1.37088
-1.31539
-1.26238
-1.2117
-1.16321
-1.11676
-1.07222
-1.02947
-11966.1
-11438.7
-10913
-10390
-9870.82
-9356.61
-8848.48
-8347.54
-7854.84
-7371.36
-6898.06
-6435.76
-5985.22
-5547.06
-5121.78
-4709.76
-4311.21
-3926.23
-3554.75
-3196.54
-2851.27
-2518.47
-2197.59
-1888.04
-1589.19
-1300.46
-1021.35
-751.456
-490.603
-239.073
-3.47535
-2.66521
-2.40081
-2.27973
-2.16761
-2.06318
-1.9656
-1.87416
-1.78818
-1.70713
-1.63055
-1.55805
-1.48931
-1.42404
-1.362
-1.30297
-1.24676
-1.1932
-1.14211
-1.09335
-11965.9
-11438.1
-10911.9
-10388.6
-9869.02
-9354.48
-8846.03
-8344.76
-7851.7
-7367.84
-6894.1
-6431.29
-5980.15
-5541.28
-5115.18
-4702.2
-4302.56
-3916.35
-3543.49
-3183.8
-2836.92
-2502.4
-2179.67
-1868.04
-1566.7
-1274.72
-990.919
-713.849
-442.049
-174.886
-3.63043
-2.64539
-2.43832
-2.29816
-2.17866
-2.07437
-1.98113
-1.89585
-1.81632
-1.74109
-1.66925
-1.60025
-1.53382
-1.46983
-1.40821
-1.34895
-1.29201
-1.23737
-1.18497
-1.13474
-11965.6
-11437.3
-10910.7
-10386.7
-9866.55
-9351.35
-8842.2
-8340.17
-7846.31
-7361.59
-6886.92
-6423.11
-5970.88
-5530.83
-5103.45
-4689.09
-4287.95
-3900.1
-3525.45
-3163.75
-2814.59
-2477.38
-2151.32
-1835.37
-1528.13
-1227.54
-930.228
-630.608
-321.773
-2.99352
-0.85802
-0.61214
-0.701712
-0.870533
-1.03798
-1.17744
-1.28348
-1.35779
-1.4042
-1.42718
-1.43114
-1.42024
-1.39812
-1.36787
-1.332
-1.29247
-1.25078
-1.20803
-1.165
-1.12224
-11965.3
-11436.3
-10908.9
-10384.2
-9863.14
-9347.01
-8836.85
-8333.75
-7838.74
-7352.81
-6876.85
-6411.68
-5958.01
-5516.44
-5087.43
-4671.31
-4268.26
-3878.31
-3501.31
-3136.93
-2784.67
-2443.78
-2113.34
-1792.19
-1479.06
-1172.7
-872.286
-577.877
-290.982
-2.95208
-2.65936
-2.0795
-1.99911
-1.92821
-1.86295
-1.80166
-1.74316
-1.68665
-1.63168
-1.578
-1.52552
-1.47425
-1.42422
-1.37548
-1.32807
-1.282
-1.23725
-1.19381
-1.15163
-1.11065
-11965
-11435.4
-10907.3
-10381.9
-9860.23
-9343.41
-8832.54
-8328.68
-7832.88
-7346.09
-6869.21
-6403.03
-5948.25
-5505.45
-5075.06
-4657.39
-4252.6
-3860.67
-3481.43
-3114.57
-2759.62
-2415.98
-2082.99
-1759.98
-1446.39
-1141.83
-846.224
-559.855
-283.344
-3.40988
-2.76936
-2.39887
-2.30078
-2.2076
-2.11862
-2.03367
-1.95254
-1.87503
-1.80093
-1.73007
-1.66227
-1.59737
-1.53521
-1.47564
-1.41852
-1.36371
-1.31108
-1.2605
-1.21186
-1.16505
-11964.7
-11434.7
-10906.3
-10380.5
-9858.55
-9341.45
-8830.31
-8326.17
-7830.05
-7342.9
-6865.57
-6398.85
-5943.4
-5499.78
-5068.4
-4649.56
-4243.4
-3849.91
-3468.97
-3100.32
-2743.57
-2398.28
-2063.96
-1740.11
-1426.26
-1122.01
-827.118
-541.621
-266.101
-4.06629
-3.05668
-2.80668
-2.66474
-2.53315
-2.41089
-2.29708
-2.19084
-2.09138
-1.99796
-1.90994
-1.82678
-1.74801
-1.67325
-1.60218
-1.53452
-1.47004
-1.40852
-1.34978
-1.29365
-1.23998
-11964.5
-11434.2
-10905.4
-10379.3
-9856.98
-9339.53
-8828.03
-8323.5
-7826.94
-7339.26
-6861.32
-6393.88
-5937.59
-5492.98
-5060.47
-4640.34
-4232.74
-3837.67
-3455.02
-3084.52
-2725.8
-2378.36
-2041.58
-1714.71
-1396.78
-1086.59
-782.686
-483.813
-188.754
-4.33844
-3.14943
-2.92508
-2.74687
-2.58993
-2.4526
-2.332
-2.22488
-2.12817
-2.03927
-1.95622
-1.8776
-1.80248
-1.7303
-1.66072
-1.59357
-1.52877
-1.46629
-1.40609
-1.34816
-1.29246
-0.740663
-0.712539
-0.684686
-0.65725
-0.630349
-0.604073
-0.578493
-0.553661
-0.529612
-0.506366
-0.483936
-0.462324
-0.441525
-0.421529
-0.402323
-0.383888
-0.366207
-0.349256
-0.333014
-0.317458
-0.302563
-0.288308
-0.274668
-0.26162
-0.24914
-0.237208
-0.225801
-0.214897
-0.204477
-0.194521
-0.18501
-0.175925
-0.167249
-0.158964
-0.151056
-0.143507
-0.136303
-0.129431
-0.122875
-0.116623
-0.110662
-0.10498
-0.0995647
-0.0944058
-0.0894922
-0.0848134
-0.0803595
-0.0761208
-0.0720882
-0.0682527
-0.732515
-0.70955
-0.685592
-0.661074
-0.636341
-0.611661
-0.587236
-0.563219
-0.539723
-0.516827
-0.494586
-0.473037
-0.452199
-0.432083
-0.412692
-0.394019
-0.376058
-0.358795
-0.342215
-0.326302
-0.311039
-0.296407
-0.282386
-0.268957
-0.256101
-0.243798
-0.232028
-0.220772
-0.21001
-0.199726
-0.189899
-0.180513
-0.17155
-0.162993
-0.154826
-0.147033
-0.139599
-0.132509
-0.125749
-0.119306
-0.113165
-0.107315
-0.101743
-0.0964372
-0.0913863
-0.0865793
-0.0820058
-0.0776555
-0.0735187
-0.0695861
-0.74635
-0.722904
-0.698663
-0.673985
-0.649164
-0.624439
-0.599994
-0.575965
-0.552452
-0.529525
-0.507231
-0.4856
-0.464648
-0.444384
-0.424808
-0.405916
-0.387702
-0.370156
-0.353267
-0.337022
-0.321407
-0.306408
-0.29201
-0.278196
-0.264951
-0.252259
-0.240101
-0.228463
-0.217326
-0.206674
-0.19649
-0.186757
-0.177459
-0.16858
-0.160104
-0.152015
-0.144299
-0.13694
-0.129924
-0.123237
-0.116865
-0.110797
-0.105018
-0.0995161
-0.0942804
-0.089299
-0.0845609
-0.0800554
-0.0757725
-0.0717021
-0.80062
-0.76787
-0.73635
-0.706011
-0.676805
-0.648683
-0.621598
-0.595507
-0.570367
-0.546138
-0.522784
-0.500271
-0.478569
-0.457651
-0.437493
-0.418071
-0.399366
-0.381358
-0.364028
-0.347359
-0.331334
-0.315937
-0.301151
-0.286959
-0.273344
-0.260291
-0.247782
-0.235801
-0.224331
-0.213355
-0.202857
-0.19282
-0.183229
-0.174066
-0.165317
-0.156965
-0.148996
-0.141395
-0.134146
-0.127237
-0.120654
-0.114382
-0.108409
-0.102724
-0.0973123
-0.0921638
-0.0872668
-0.0826104
-0.0781841
-0.0739776
-0.860646
-0.822408
-0.785933
-0.751121
-0.717876
-0.686109
-0.655735
-0.626678
-0.598864
-0.572227
-0.546706
-0.522245
-0.498793
-0.476305
-0.454737
-0.43405
-0.414208
-0.395177
-0.376927
-0.359427
-0.34265
-0.326569
-0.31116
-0.296398
-0.282261
-0.268724
-0.255768
-0.24337
-0.231511
-0.220171
-0.209331
-0.198971
-0.189074
-0.179622
-0.170598
-0.161985
-0.153767
-0.145929
-0.138455
-0.13133
-0.124541
-0.118073
-0.111913
-0.106049
-0.100467
-0.0951553
-0.0901029
-0.0852983
-0.0807307
-0.0763895
-0.899576
-0.859059
-0.820357
-0.783401
-0.748115
-0.714419
-0.682231
-0.651474
-0.622072
-0.593954
-0.567054
-0.54131
-0.516665
-0.493068
-0.47047
-0.448827
-0.428098
-0.408244
-0.38923
-0.37102
-0.353584
-0.336891
-0.320912
-0.30562
-0.290987
-0.276989
-0.263601
-0.250799
-0.23856
-0.226863
-0.215687
-0.20501
-0.194814
-0.185079
-0.175787
-0.16692
-0.158461
-0.150393
-0.142701
-0.135369
-0.128381
-0.121725
-0.115385
-0.109349
-0.103603
-0.098135
-0.0929333
-0.0879861
-0.0832824
-0.0788113
-0.892713
-0.856442
-0.820966
-0.786482
-0.753102
-0.72088
-0.68983
-0.659942
-0.631193
-0.603549
-0.576976
-0.551435
-0.52689
-0.503307
-0.480652
-0.458892
-0.437999
-0.417944
-0.398698
-0.380234
-0.362528
-0.345554
-0.329286
-0.313701
-0.298775
-0.284485
-0.270808
-0.257722
-0.245205
-0.233237
-0.221796
-0.210862
-0.200417
-0.190441
-0.180916
-0.171823
-0.163147
-0.15487
-0.146976
-0.139449
-0.132275
-0.125438
-0.118926
-0.112724
-0.106818
-0.101198
-0.0958495
-0.0907618
-0.0859233
-0.0813232
-0.892565
-0.856231
-0.821245
-0.787554
-0.755103
-0.723836
-0.693699
-0.664644
-0.636627
-0.609608
-0.583551
-0.558425
-0.534202
-0.510856
-0.488364
-0.466702
-0.445851
-0.425788
-0.406495
-0.38795
-0.370134
-0.353027
-0.336607
-0.320855
-0.305749
-0.291271
-0.277398
-0.264112
-0.251393
-0.239219
-0.227573
-0.216435
-0.205787
-0.195611
-0.185888
-0.176602
-0.167735
-0.159272
-0.151197
-0.143494
-0.136148
-0.129145
-0.122471
-0.116113
-0.110057
-0.10429
-0.0988011
-0.0935775
-0.0886082
-0.0838822
-0.935686
-0.895376
-0.856826
-0.819932
-0.784598
-0.750739
-0.718275
-0.687136
-0.657255
-0.628574
-0.60104
-0.574603
-0.549217
-0.524842
-0.501437
-0.478966
-0.457395
-0.436691
-0.416822
-0.397758
-0.379471
-0.361933
-0.345117
-0.328999
-0.313551
-0.298752
-0.284576
-0.271003
-0.258009
-0.245573
-0.233675
-0.222295
-0.211414
-0.201012
-0.191072
-0.181575
-0.172506
-0.163846
-0.155581
-0.147694
-0.14017
-0.132995
-0.126155
-0.119636
-0.113425
-0.107509
-0.101876
-0.0965138
-0.0914107
-0.0865559
-0.972244
-0.929546
-0.888804
-0.849889
-0.812685
-0.777091
-0.743013
-0.710372
-0.679093
-0.64911
-0.620364
-0.592799
-0.566364
-0.541014
-0.516703
-0.49339
-0.471036
-0.449603
-0.429057
-0.409361
-0.390485
-0.372397
-0.355066
-0.338464
-0.322563
-0.307337
-0.292759
-0.278806
-0.265453
-0.252678
-0.240457
-0.228771
-0.217599
-0.20692
-0.196715
-0.186967
-0.177656
-0.168767
-0.160281
-0.152184
-0.144459
-0.137091
-0.130066
-0.12337
-0.116989
-0.110911
-0.105121
-0.0996091
-0.0943625
-0.08937
-0.965575
-0.926605
-0.888989
-0.852681
-0.817633
-0.783799
-0.751137
-0.71961
-0.689185
-0.659834
-0.63153
-0.604248
-0.577963
-0.552653
-0.528294
-0.504861
-0.482329
-0.460675
-0.439872
-0.419895
-0.400718
-0.382316
-0.364664
-0.347736
-0.331508
-0.315956
-0.301056
-0.286785
-0.27312
-0.260039
-0.247522
-0.235546
-0.224093
-0.213142
-0.202674
-0.192671
-0.183114
-0.173988
-0.165274
-0.156956
-0.149019
-0.141448
-0.134227
-0.127343
-0.120782
-0.114529
-0.108574
-0.102902
-0.097502
-0.0923626
-0.944351
-0.909779
-0.876153
-0.843405
-0.811491
-0.780381
-0.750062
-0.72053
-0.691785
-0.663835
-0.636686
-0.610344
-0.584814
-0.560097
-0.536193
-0.513098
-0.490804
-0.469301
-0.448578
-0.428619
-0.40941
-0.390933
-0.37317
-0.356102
-0.339711
-0.323975
-0.308877
-0.294395
-0.280511
-0.267205
-0.254458
-0.242251
-0.230565
-0.219382
-0.208684
-0.198453
-0.188673
-0.179327
-0.170398
-0.161871
-0.15373
-0.14596
-0.138546
-0.131475
-0.124733
-0.118306
-0.112182
-0.106347
-0.100791
-0.0955007
-0.988389
-0.948885
-0.910863
-0.874244
-0.838956
-0.804937
-0.772132
-0.740493
-0.709976
-0.68054
-0.652152
-0.624775
-0.59838
-0.572936
-0.548416
-0.524792
-0.502037
-0.480126
-0.459035
-0.438738
-0.419214
-0.400438
-0.382389
-0.365044
-0.348381
-0.33238
-0.31702
-0.30228
-0.288141
-0.274583
-0.261588
-0.249135
-0.237207
-0.225786
-0.214854
-0.204394
-0.194389
-0.184823
-0.175679
-0.166942
-0.158596
-0.150627
-0.14302
-0.135761
-0.128837
-0.122233
-0.115938
-0.109939
-0.104223
-0.098779
-1.04677
-1.00225
-0.959666
-0.918908
-0.879876
-0.842475
-0.806622
-0.772237
-0.739249
-0.70759
-0.6772
-0.648021
-0.620002
-0.593092
-0.567247
-0.542423
-0.51858
-0.49568
-0.473687
-0.452567
-0.432289
-0.41282
-0.394132
-0.376197
-0.358988
-0.342479
-0.326644
-0.311461
-0.296905
-0.282955
-0.26959
-0.256787
-0.244527
-0.23279
-0.221557
-0.210809
-0.20053
-0.190701
-0.181305
-0.172326
-0.163749
-0.155557
-0.147736
-0.140272
-0.133149
-0.126356
-0.119878
-0.113703
-0.107818
-0.102212
-1.08662
-1.04051
-0.996321
-0.953972
-0.913373
-0.87444
-0.837093
-0.801258
-0.766866
-0.733853
-0.702158
-0.671728
-0.642509
-0.614453
-0.587514
-0.561649
-0.536818
-0.512981
-0.490101
-0.468142
-0.44707
-0.426853
-0.407459
-0.388857
-0.37102
-0.353917
-0.337524
-0.321812
-0.306758
-0.292337
-0.278525
-0.2653
-0.252641
-0.240525
-0.228932
-0.217844
-0.20724
-0.197102
-0.187412
-0.178153
-0.169309
-0.160863
-0.152799
-0.145102
-0.137759
-0.130753
-0.124073
-0.117704
-0.111634
-0.105851
-1.0801
-1.03884
-0.998581
-0.959422
-0.921403
-0.884541
-0.848837
-0.81428
-0.780857
-0.748548
-0.717336
-0.687197
-0.658112
-0.630058
-0.603013
-0.576954
-0.551856
-0.527697
-0.504452
-0.482096
-0.460603
-0.43995
-0.42011
-0.401058
-0.38277
-0.36522
-0.348385
-0.33224
-0.316761
-0.301926
-0.287713
-0.274098
-0.261061
-0.248581
-0.236637
-0.22521
-0.214281
-0.20383
-0.193839
-0.184292
-0.175171
-0.166459
-0.158141
-0.1502
-0.142623
-0.135394
-0.128499
-0.121925
-0.115659
-0.109687
-1.07081
-1.03207
-0.994374
-0.957677
-0.921948
-0.887161
-0.853296
-0.820341
-0.788287
-0.75713
-0.726867
-0.697495
-0.669012
-0.641414
-0.614698
-0.588855
-0.563878
-0.539756
-0.516478
-0.494028
-0.472392
-0.451553
-0.431494
-0.412194
-0.393636
-0.375799
-0.358663
-0.342208
-0.326414
-0.311259
-0.296724
-0.282789
-0.269434
-0.256639
-0.244386
-0.232655
-0.221427
-0.210686
-0.200413
-0.190591
-0.181203
-0.172233
-0.163664
-0.155483
-0.147672
-0.140219
-0.133108
-0.126326
-0.11986
-0.113696
-1.11996
-1.0765
-1.03459
-0.994155
-0.955122
-0.91743
-0.881026
-0.84586
-0.811889
-0.779072
-0.747373
-0.716758
-0.687197
-0.65866
-0.631119
-0.604547
-0.578918
-0.554208
-0.530391
-0.507444
-0.485342
-0.464063
-0.443584
-0.423881
-0.404933
-0.386718
-0.369213
-0.352398
-0.336251
-0.320751
-0.305878
-0.291612
-0.277933
-0.264822
-0.252259
-0.240225
-0.228703
-0.217675
-0.207122
-0.197028
-0.187377
-0.178151
-0.169334
-0.160912
-0.15287
-0.145192
-0.137864
-0.130873
-0.124205
-0.117847
-1.18862
-1.13944
-1.09233
-1.04716
-1.00384
-0.962269
-0.922357
-0.884024
-0.847194
-0.811798
-0.777771
-0.745056
-0.713596
-0.68334
-0.654241
-0.626255
-0.599339
-0.573454
-0.548564
-0.524631
-0.501624
-0.479509
-0.458257
-0.437837
-0.41822
-0.399381
-0.381292
-0.363928
-0.347264
-0.331277
-0.315942
-0.301238
-0.287143
-0.273635
-0.260694
-0.248299
-0.236432
-0.225073
-0.214203
-0.203805
-0.193862
-0.184356
-0.175271
-0.166591
-0.1583
-0.150383
-0.142827
-0.135615
-0.128736
-0.122175
-1.23895
-1.18755
-1.13821
-1.09085
-1.04539
-1.00175
-0.959852
-0.919615
-0.880967
-0.84384
-0.808168
-0.773889
-0.740945
-0.709284
-0.678854
-0.649609
-0.621502
-0.594492
-0.568538
-0.543602
-0.519648
-0.496639
-0.474543
-0.453326
-0.432959
-0.41341
-0.39465
-0.376652
-0.359389
-0.342834
-0.326961
-0.311748
-0.297169
-0.283201
-0.269824
-0.257014
-0.244752
-0.233016
-0.221788
-0.211048
-0.200778
-0.190961
-0.181578
-0.172613
-0.16405
-0.155873
-0.148067
-0.140618
-0.13351
-0.126731
-0.065444
-0.0635309
-0.0616595
-0.0598294
-0.05804
-0.0562909
-0.0545815
-0.0529114
-0.0512801
-0.0496871
-0.0481318
-0.0466138
-0.0451325
-0.0436875
-0.0422782
-0.040904
-0.0395645
-0.0382592
-0.0369874
-0.0357487
-0.0345426
-0.0333684
-0.0322258
-0.031114
-0.0300327
-0.0289813
-0.0279591
-0.0269658
-0.0260007
-0.0250634
-0.0241532
-0.0232697
-0.0224123
-0.0215806
-0.0207739
-0.0199918
-0.0192337
-0.0184991
-0.0177875
-0.0170985
-0.0164314
-0.0157858
-0.0151612
-0.0145571
-0.013973
-0.0134084
-0.0128629
-0.0123359
-0.0118271
-0.0113359
-0.0108618
-0.0104045
-0.00996345
-0.00953825
-0.00912846
-0.00873366
-0.00835341
-0.00798731
-0.00763495
-0.00729593
-0.00696985
-0.00665632
-0.00635498
-0.00606544
-0.00578733
-0.00552031
-0.00526401
-0.00501809
-0.00478221
-0.00455605
-0.00433927
-0.00413157
-0.00393264
-0.00374216
-0.00355985
-0.00338542
-0.00321859
-0.00305908
-0.00290663
-0.00276097
-0.00262186
-0.00248905
-0.00236229
-0.00224136
-0.00212603
-0.00201607
-0.00191128
-0.00181145
-0.00171637
-0.00162585
-0.00153971
-0.00145776
-0.00137982
-0.00130573
-0.00123531
-0.00116841
-0.00110488
-0.00104456
-0.000987305
-0.000932987
-0.000881469
-0.00083262
-0.000786318
-0.000742444
-0.000700883
-0.000661524
-0.000624263
-0.000588997
-0.000555629
-0.000524066
-0.000494219
-0.000466001
-0.00043933
-0.000414128
-0.00039032
-0.000367833
-0.0003466
-0.000326554
-0.000307633
-0.000289778
-0.000272931
-0.000257039
-0.000242049
-0.000227914
-0.000214585
-0.00020202
-0.000190175
-0.000179011
-0.000168489
-0.000158574
-0.000149232
-0.000140429
-0.000132136
-0.000124324
-0.000116964
-0.000110032
-0.000103502
-9.73506e-05
-9.1557e-05
-8.61001e-05
-8.09603e-05
-7.61191e-05
-7.15594e-05
-6.72646e-05
-6.32193e-05
-5.94091e-05
-5.58203e-05
-5.24399e-05
-4.92558e-05
-4.62567e-05
-4.34318e-05
-4.0771e-05
-3.82648e-05
-3.59042e-05
-3.3681e-05
-3.15871e-05
-2.96152e-05
-2.77582e-05
-2.60096e-05
-2.43633e-05
-2.28134e-05
-2.13543e-05
-1.99811e-05
-1.86889e-05
-1.7473e-05
-1.63292e-05
-1.52535e-05
-1.4242e-05
-1.32911e-05
-1.23975e-05
-1.1558e-05
-1.07695e-05
-1.00293e-05
-9.33448e-06
-8.68268e-06
-8.07145e-06
-7.49851e-06
-6.96171e-06
-6.45903e-06
-5.98853e-06
-5.54839e-06
-5.13688e-06
-4.75237e-06
-4.3933e-06
-4.05821e-06
-3.74569e-06
-3.45443e-06
-3.18318e-06
-2.93073e-06
-2.69597e-06
-2.47782e-06
-2.27527e-06
-2.08736e-06
-1.91318e-06
-1.75186e-06
-1.60259e-06
-1.46459e-06
-1.33713e-06
-1.21952e-06
-1.11109e-06
-1.01124e-06
-9.19379e-07
-8.34951e-07
-7.57438e-07
-6.86351e-07
-6.21227e-07
-5.61633e-07
-5.07161e-07
-4.57428e-07
-4.12075e-07
-3.70766e-07
-3.33184e-07
-2.99036e-07
-2.68047e-07
-2.3996e-07
-2.14535e-07
-1.91551e-07
-1.70801e-07
-1.52092e-07
-1.35247e-07
-1.201e-07
-1.065e-07
-9.43051e-08
-8.33867e-08
-7.3625e-08
-6.49103e-08
-5.71417e-08
-5.0227e-08
-4.40816e-08
-3.86285e-08
-3.37971e-08
-2.95232e-08
-2.57487e-08
-2.24204e-08
-1.94905e-08
-1.69155e-08
-1.46562e-08
-1.26772e-08
-1.09467e-08
-9.43612e-09
-8.11982e-09
-6.97482e-09
-5.98059e-09
-5.11887e-09
-4.37331e-09
-3.72947e-09
-3.17449e-09
-2.69702e-09
-2.28702e-09
-1.93559e-09
-1.635e-09
-1.37837e-09
-1.15971e-09
-9.73774e-10
-8.15961e-10
-6.82309e-10
-5.69394e-10
-4.74119e-10
-3.93947e-10
-3.26655e-10
-2.702e-10
-2.23009e-10
-1.83664e-10
-1.50933e-10
-1.23668e-10
-1.01096e-10
-8.24453e-11
-6.70566e-11
-5.4374e-11
-4.3937e-11
-3.54e-11
-2.84461e-11
-2.28008e-11
-1.82315e-11
-1.4543e-11
-1.1573e-11
-9.18741e-12
-7.27598e-12
-5.7482e-12
-4.5301e-12
-3.5613e-12
-2.79272e-12
-2.18451e-12
-1.70443e-12
-1.32647e-12
-1.02969e-12
-7.9728e-13
-6.15781e-13
-4.74454e-13
-3.64748e-13
-2.79881e-13
-2.14489e-13
-1.64351e-13
-1.26158e-13
-9.73391e-14
-7.59116e-14
-6.0374e-14
-4.96165e-14
-4.2858e-14
-3.96002e-14
-0.0667068
-0.0647462
-0.0628288
-0.0609541
-0.0591216
-0.0573307
-0.055581
-0.053872
-0.0522029
-0.0505735
-0.048983
-0.0474309
-0.0459167
-0.0444399
-0.0429999
-0.0415961
-0.040228
-0.038895
-0.0375966
-0.0363322
-0.0351013
-0.0339032
-0.0327374
-0.0316035
-0.0305007
-0.0294285
-0.0283865
-0.027374
-0.0263904
-0.0254353
-0.024508
-0.023608
-0.0227348
-0.0218877
-0.0210664
-0.0202702
-0.0194985
-0.018751
-0.0180269
-0.0173258
-0.0166472
-0.0159906
-0.0153554
-0.0147412
-0.0141474
-0.0135735
-0.013019
-0.0124835
-0.0119665
-0.0114675
-0.010986
-0.0105215
-0.0100737
-0.00964198
-0.009226
-0.00882529
-0.00843942
-0.00806796
-0.0077105
-0.00736662
-0.00703593
-0.00671802
-0.00641251
-0.00611901
-0.00583716
-0.00556658
-0.00530691
-0.00505781
-0.00481891
-0.0045899
-0.00437043
-0.00416019
-0.00395886
-0.00376612
-0.00358169
-0.00340525
-0.00323654
-0.00307526
-0.00292115
-0.00277395
-0.00263338
-0.00249921
-0.00237118
-0.00224906
-0.00213262
-0.00202164
-0.0019159
-0.00181518
-0.00171928
-0.00162801
-0.00154117
-0.00145857
-0.00138004
-0.0013054
-0.00123449
-0.00116714
-0.0011032
-0.0010425
-0.000984918
-0.0009303
-0.000878513
-0.000829426
-0.000782914
-0.000738857
-0.000697136
-0.000657642
-0.000620266
-0.000584906
-0.000551462
-0.00051984
-0.00048995
-0.000461703
-0.000435018
-0.000409813
-0.000386013
-0.000363546
-0.000342341
-0.000322333
-0.000303457
-0.000285654
-0.000268866
-0.000253038
-0.000238118
-0.000224056
-0.000210806
-0.000198321
-0.00018656
-0.000175482
-0.000165049
-0.000155224
-0.000145973
-0.000137263
-0.000129063
-0.000121344
-0.000114077
-0.000107238
-0.0001008
-9.47411e-05
-8.90386e-05
-8.36718e-05
-7.8621e-05
-7.38676e-05
-6.93941e-05
-6.51841e-05
-6.1222e-05
-5.74933e-05
-5.39841e-05
-5.06815e-05
-4.75733e-05
-4.46482e-05
-4.18952e-05
-3.93043e-05
-3.6866e-05
-3.45714e-05
-3.24119e-05
-3.03797e-05
-2.84675e-05
-2.66681e-05
-2.49751e-05
-2.33823e-05
-2.18839e-05
-2.04744e-05
-1.91488e-05
-1.79022e-05
-1.67301e-05
-1.56283e-05
-1.45927e-05
-1.36196e-05
-1.27054e-05
-1.18468e-05
-1.10406e-05
-1.02839e-05
-9.57382e-06
-8.90776e-06
-8.28322e-06
-7.69784e-06
-7.1494e-06
-6.6358e-06
-6.15506e-06
-5.70529e-06
-5.28472e-06
-4.89166e-06
-4.52453e-06
-4.18182e-06
-3.86211e-06
-3.56403e-06
-3.28632e-06
-3.02775e-06
-2.78719e-06
-2.56354e-06
-2.35578e-06
-2.16292e-06
-1.98404e-06
-1.81826e-06
-1.66476e-06
-1.52275e-06
-1.39149e-06
-1.27028e-06
-1.15845e-06
-1.05537e-06
-9.60459e-07
-8.73151e-07
-7.9292e-07
-7.19269e-07
-6.51731e-07
-5.89866e-07
-5.3326e-07
-4.81523e-07
-4.34291e-07
-3.91222e-07
-3.51996e-07
-3.16312e-07
-2.8389e-07
-2.54468e-07
-2.27803e-07
-2.03667e-07
-1.81848e-07
-1.6215e-07
-1.4439e-07
-1.284e-07
-1.14022e-07
-1.01112e-07
-8.95372e-08
-7.91732e-08
-6.99071e-08
-6.16347e-08
-5.42604e-08
-4.76964e-08
-4.18627e-08
-3.66859e-08
-3.20992e-08
-2.80416e-08
-2.4458e-08
-2.12979e-08
-1.85159e-08
-1.60708e-08
-1.39253e-08
-1.2046e-08
-1.04025e-08
-8.96776e-09
-7.71746e-09
-6.62979e-09
-5.68527e-09
-4.86656e-09
-4.15818e-09
-3.54637e-09
-3.01895e-09
-2.56515e-09
-2.17544e-09
-1.84136e-09
-1.55557e-09
-1.31156e-09
-1.10362e-09
-9.26799e-10
-7.76712e-10
-6.49587e-10
-5.42173e-10
-4.51539e-10
-3.75202e-10
-3.11127e-10
-2.57433e-10
-2.12473e-10
-1.74958e-10
-1.43776e-10
-1.17815e-10
-9.63217e-11
-7.85436e-11
-6.38535e-11
-5.17322e-11
-4.17248e-11
-3.35769e-11
-2.69598e-11
-2.15984e-11
-1.72644e-11
-1.37686e-11
-1.09553e-11
-8.69653e-12
-6.88716e-12
-5.44123e-12
-4.28851e-12
-3.37177e-12
-2.64448e-12
-2.06892e-12
-1.61457e-12
-1.25682e-12
-9.75861e-13
-7.55798e-13
-5.83906e-13
-4.50028e-13
-3.4608e-13
-2.65645e-13
-2.03652e-13
-1.56107e-13
-1.19881e-13
-9.25393e-14
-7.22072e-14
-5.74636e-14
-4.7259e-14
-4.08554e-14
-3.77838e-14
-0.068723
-0.0666947
-0.0647114
-0.0627727
-0.0608778
-0.0590264
-0.0572177
-0.0554513
-0.0537266
-0.0520429
-0.0503998
-0.0487967
-0.0472329
-0.0457078
-0.044221
-0.0427718
-0.0413597
-0.0399839
-0.0386441
-0.0373394
-0.0360695
-0.0348336
-0.0336313
-0.0324618
-0.0313247
-0.0302193
-0.029145
-0.0281013
-0.0270876
-0.0261032
-0.0251477
-0.0242205
-0.0233209
-0.0224484
-0.0216025
-0.0207825
-0.0199879
-0.0192182
-0.0184728
-0.0177512
-0.0170528
-0.016377
-0.0157235
-0.0150915
-0.0144806
-0.0138903
-0.0133201
-0.0127695
-0.0122379
-0.0117249
-0.0112299
-0.0107526
-0.0102924
-0.00984886
-0.00942154
-0.00900996
-0.00861369
-0.00823228
-0.00786531
-0.00751234
-0.00717297
-0.00684677
-0.00653336
-0.00623232
-0.00594329
-0.00566587
-0.00539969
-0.00514439
-0.00489962
-0.00466502
-0.00444025
-0.00422498
-0.00401887
-0.00382162
-0.00363292
-0.00345244
-0.00327991
-0.00311503
-0.00295753
-0.00280712
-0.00266354
-0.00252653
-0.00239584
-0.00227122
-0.00215244
-0.00203926
-0.00193146
-0.00182882
-0.00173114
-0.0016382
-0.00154981
-0.00146577
-0.00138591
-0.00131003
-0.00123798
-0.00116958
-0.00110466
-0.00104308
-0.000984683
-0.000929322
-0.00087686
-0.000827161
-0.000780095
-0.00073554
-0.000693374
-0.000653483
-0.000615756
-0.000580088
-0.000546376
-0.000514524
-0.000484437
-0.000456027
-0.000429207
-0.000403896
-0.000380016
-0.000357492
-0.000336253
-0.000316229
-0.000297357
-0.000279574
-0.000262822
-0.000247043
-0.000232185
-0.000218197
-0.00020503
-0.000192638
-0.000180977
-0.000170007
-0.000159687
-0.000149981
-0.000140854
-0.000132271
-0.000124201
-0.000116614
-0.000109483
-0.000102779
-9.64786e-05
-9.0557e-05
-8.49918e-05
-7.97618e-05
-7.4847e-05
-7.02286e-05
-6.58887e-05
-6.18106e-05
-5.79786e-05
-5.43778e-05
-5.09942e-05
-4.78149e-05
-4.48274e-05
-4.20201e-05
-3.93822e-05
-3.69035e-05
-3.45744e-05
-3.23859e-05
-3.03294e-05
-2.83971e-05
-2.65816e-05
-2.48758e-05
-2.32731e-05
-2.17675e-05
-2.03532e-05
-1.90247e-05
-1.77769e-05
-1.66052e-05
-1.55049e-05
-1.44719e-05
-1.35022e-05
-1.25922e-05
-1.17383e-05
-1.09373e-05
-1.0186e-05
-9.48156e-06
-8.82129e-06
-8.20258e-06
-7.62302e-06
-7.08033e-06
-6.57236e-06
-6.09709e-06
-5.6526e-06
-5.23709e-06
-4.84887e-06
-4.48633e-06
-4.14795e-06
-3.83229e-06
-3.53801e-06
-3.26383e-06
-3.00852e-06
-2.77097e-06
-2.55007e-06
-2.34481e-06
-2.15422e-06
-1.97738e-06
-1.81344e-06
-1.66157e-06
-1.52101e-06
-1.39101e-06
-1.27089e-06
-1.16001e-06
-1.05774e-06
-9.63499e-07
-8.76748e-07
-7.96967e-07
-7.2367e-07
-6.56398e-07
-5.94722e-07
-5.38236e-07
-4.8656e-07
-4.39336e-07
-3.96231e-07
-3.56928e-07
-3.21136e-07
-2.8858e-07
-2.59001e-07
-2.32162e-07
-2.07839e-07
-1.85823e-07
-1.65922e-07
-1.47956e-07
-1.31757e-07
-1.17173e-07
-1.04059e-07
-9.22844e-08
-8.17262e-08
-7.22726e-08
-6.38201e-08
-5.62735e-08
-4.95459e-08
-4.35571e-08
-3.82342e-08
-3.35103e-08
-2.93244e-08
-2.56211e-08
-2.235e-08