/*--------------------------------*- C++ -*----------------------------------*\
| =========                 |                                                 |
| \\      /  F ield         | OpenFOAM: The Open Source CFD Toolbox           |
|  \\    /   O peration     | Version:  2.4.0                                 |
|   \\  /    A nd           | Web:      www.OpenFOAM.org                      |
|    \\/     M anipulation  |                                                 |
\*---------------------------------------------------------------------------*/
FoamFile
{
    version     2.0;
    format      ascii;
    class       volScalarField;
    location    "1.2";
    object      p;
}
// * * * * * * * * * * * * * * * * * * * * * * * * * * * * * * * * * * * * * //

dimensions      [1 -1 -2 0 0 0 0];

internalField   nonuniform List<scalar> 
8000
(
0.341758
0.335148
0.32925
0.324598
0.320733
0.317383
0.314457
0.311914
0.309711
0.307806
0.306163
0.304748
0.303534
0.302499
0.301623
0.300892
0.300292
0.299817
0.299458
0.299215
0.299085
0.299079
0.299209
0.299492
0.29986
0.300093
0.300166
0.302109
0.312115
0.331012
0.307624
0.0855867
-0.347388
-0.0743464
-0.0137468
-0.0112069
-0.0111248
-0.0111392
-0.011149
-0.0111506
-0.0111496
-0.0111487
-0.011148
-0.0111474
-0.0111468
-0.0111463
-0.0111461
-0.0111461
-0.0111461
-0.0111461
-0.00203266
-0.00679617
-0.0124148
-0.0175441
-0.0220374
-0.0260163
-0.0295581
-0.0326878
-0.0354199
-0.0377652
-0.0397379
-0.041346
-0.0426008
-0.0435059
-0.0440699
-0.044292
-0.044179
-0.0437258
-0.0429381
-0.0418063
-0.0403358
-0.0385066
-0.0363127
-0.0337324
-0.0308832
-0.0280388
-0.025163
-0.0194325
-0.00317439
0.0221363
-0.0142234
-0.30615
-0.804571
-0.152961
-0.0340864
-0.0335243
-0.0334994
-0.0335129
-0.0335187
-0.0335187
-0.0335176
-0.0335166
-0.0335159
-0.0335151
-0.0335144
-0.0335139
-0.0335135
-0.0335133
-0.0335132
-0.033513
0.103204
0.100589
0.0979721
0.0955367
0.0931635
0.0907878
0.088401
0.0860067
0.0836059
0.0811973
0.0787782
0.076347
0.0739005
0.0714374
0.0689536
0.0664485
0.0639173
0.0613599
0.0587706
0.05615
0.0534911
0.0508012
0.0480811
0.0453323
0.0424364
0.0391385
0.035556
0.0343888
0.0422869
0.0555837
0.00603308
-0.275012
-0.689258
-0.150422
-0.0562752
-0.0558108
-0.055801
-0.0558166
-0.0558219
-0.0558218
-0.0558208
-0.0558203
-0.0558199
-0.0558195
-0.0558191
-0.0558189
-0.055819
-0.0558191
-0.0558193
-0.0558195
-0.0659654
-0.0679899
-0.0703647
-0.0726384
-0.0747717
-0.0768022
-0.078747
-0.080606
-0.0823776
-0.0840598
-0.0856529
-0.0871556
-0.0885688
-0.0898907
-0.0911229
-0.0922629
-0.0933131
-0.0942704
-0.095138
-0.095912
-0.0965966
-0.0971824
-0.0976692
-0.0980589
-0.0984491
-0.0989921
-0.0994216
-0.0974812
-0.089075
-0.0814732
-0.131567
-0.34184
-0.548011
-0.103161
-0.0784005
-0.0781374
-0.0781571
-0.078176
-0.0781796
-0.0781781
-0.0781766
-0.0781757
-0.078175
-0.0781743
-0.0781736
-0.0781732
-0.078173
-0.0781729
-0.0781728
-0.0781728
-0.113863
-0.114085
-0.114412
-0.114921
-0.115637
-0.116555
-0.11767
-0.118977
-0.120476
-0.122163
-0.124041
-0.126107
-0.128363
-0.13081
-0.133451
-0.136288
-0.139324
-0.142562
-0.146011
-0.149672
-0.153555
-0.15766
-0.161997
-0.166589
-0.17155
-0.176981
-0.182377
-0.185341
-0.18348
-0.190393
-0.267085
-0.471845
-0.48536
-0.107845
-0.100624
-0.100437
-0.100466
-0.100484
-0.100487
-0.100486
-0.100485
-0.100485
-0.100485
-0.100485
-0.100485
-0.100485
-0.100485
-0.100486
-0.100486
-0.100487
-0.188148
-0.188261
-0.188556
-0.189025
-0.189647
-0.190414
-0.191323
-0.192371
-0.193557
-0.194879
-0.196336
-0.197928
-0.199656
-0.20152
-0.203524
-0.205668
-0.207957
-0.210393
-0.212982
-0.215726
-0.218632
-0.221694
-0.224922
-0.228365
-0.232191
-0.236417
-0.239789
-0.238423
-0.231952
-0.252578
-0.398303
-0.673046
-0.37113
-0.124255
-0.122872
-0.122788
-0.122811
-0.122823
-0.122825
-0.122824
-0.122824
-0.122824
-0.122824
-0.122824
-0.122825
-0.122825
-0.122826
-0.122826
-0.122827
-0.122828
-0.188316
-0.189703
-0.191212
-0.192637
-0.193991
-0.195308
-0.196596
-0.197856
-0.199085
-0.200283
-0.201446
-0.202575
-0.203664
-0.204713
-0.205714
-0.206668
-0.207564
-0.208403
-0.209174
-0.209877
-0.210493
-0.211013
-0.211421
-0.211857
-0.212593
-0.213528
-0.211488
-0.198541
-0.17848
-0.229552
-0.552459
-1.05087
-0.263527
-0.145484
-0.145112
-0.145118
-0.145138
-0.145144
-0.145145
-0.145146
-0.145147
-0.145148
-0.145149
-0.14515
-0.14515
-0.145151
-0.145152
-0.145153
-0.145154
-0.145155
-0.211343
-0.213403
-0.215611
-0.217645
-0.219531
-0.221322
-0.223032
-0.224664
-0.226216
-0.227689
-0.229084
-0.2304
-0.231635
-0.232789
-0.233857
-0.234839
-0.235727
-0.23652
-0.237209
-0.23779
-0.238246
-0.238567
-0.238743
-0.238864
-0.2391
-0.239198
-0.236734
-0.226852
-0.215943
-0.264673
-0.494069
-0.756163
-0.195983
-0.167689
-0.167441
-0.16747
-0.16749
-0.167493
-0.167492
-0.167491
-0.167491
-0.167491
-0.167491
-0.167491
-0.167492
-0.167492
-0.167493
-0.167494
-0.167494
-0.167495
-0.282774
-0.283428
-0.284298
-0.28531
-0.286458
-0.287747
-0.289181
-0.290759
-0.292481
-0.294348
-0.29636
-0.298522
-0.300835
-0.303303
-0.305928
-0.308718
-0.311674
-0.314808
-0.318121
-0.321626
-0.32532
-0.329218
-0.333343
-0.337825
-0.342772
-0.347606
-0.349661
-0.346337
-0.353103
-0.438036
-0.664052
-0.639303
-0.196185
-0.189958
-0.189775
-0.189811
-0.189831
-0.189834
-0.189834
-0.189834
-0.189834
-0.189835
-0.189835
-0.189835
-0.189836
-0.189837
-0.189838
-0.189838
-0.189839
-0.189839
-0.303356
-0.303847
-0.304508
-0.30529
-0.306184
-0.307192
-0.308313
-0.309545
-0.310884
-0.312332
-0.313885
-0.315546
-0.317314
-0.319192
-0.321182
-0.323288
-0.325512
-0.327863
-0.330342
-0.33296
-0.335712
-0.338614
-0.34171
-0.345181
-0.349059
-0.352165
-0.35068
-0.343821
-0.361961
-0.501292
-0.777047
-0.501289
-0.213724
-0.212232
-0.212142
-0.212168
-0.212181
-0.212182
-0.21218
-0.212179
-0.212178
-0.212177
-0.212176
-0.212175
-0.212175
-0.212174
-0.212174
-0.212174
-0.212174
-0.212174
-0.284386
-0.286357
-0.288503
-0.290506
-0.292388
-0.294194
-0.295939
-0.297621
-0.299239
-0.30079
-0.302276
-0.303691
-0.305039
-0.306309
-0.307506
-0.308618
-0.309648
-0.310582
-0.311427
-0.312141
-0.312775
-0.313177
-0.31367
-0.314457
-0.315617
-0.313362
-0.297809
-0.271488
-0.325932
-0.712661
-1.35768
-0.38959
-0.234816
-0.23443
-0.23444
-0.234461
-0.234468
-0.234469
-0.234471
-0.234473
-0.234475
-0.234478
-0.23448
-0.234483
-0.234486
-0.234488
-0.234491
-0.234494
-0.234496
-0.234498
-0.297883
-0.300482
-0.30328
-0.305837
-0.308175
-0.310357
-0.312403
-0.314316
-0.316093
-0.317735
-0.319243
-0.320613
-0.321847
-0.322939
-0.323888
-0.324689
-0.325338
-0.325828
-0.326155
-0.326304
-0.32626
-0.326017
-0.325675
-0.325472
-0.325202
-0.322129
-0.30995
-0.293768
-0.34262
-0.614245
-0.985396
-0.305236
-0.257103
-0.256834
-0.256863
-0.256883
-0.256886
-0.256883
-0.25688
-0.256878
-0.256876
-0.256874
-0.256873
-0.256871
-0.25687
-0.256869
-0.256868
-0.256867
-0.256866
-0.256865
-0.347354
-0.349048
-0.350986
-0.352911
-0.354832
-0.356784
-0.358778
-0.360814
-0.362894
-0.365018
-0.367189
-0.369407
-0.371676
-0.373997
-0.376375
-0.378808
-0.381304
-0.383862
-0.386489
-0.389179
-0.391935
-0.394772
-0.397808
-0.401195
-0.404505
-0.40504
-0.398856
-0.397469
-0.469166
-0.711875
-0.840916
-0.291293
-0.279368
-0.279149
-0.27919
-0.279213
-0.279216
-0.279215
-0.279214
-0.279214
-0.279215
-0.279215
-0.279215
-0.279215
-0.279215
-0.279216
-0.279216
-0.279216
-0.279216
-0.279216
-0.382956
-0.383781
-0.384808
-0.385944
-0.387192
-0.388562
-0.390054
-0.391666
-0.393396
-0.395244
-0.397209
-0.399293
-0.401498
-0.403825
-0.40628
-0.408863
-0.411583
-0.414443
-0.417452
-0.420608
-0.42392
-0.427425
-0.43127
-0.435549
-0.439443
-0.439704
-0.434135
-0.444213
-0.552371
-0.810415
-0.69975
-0.304677
-0.301645
-0.301497
-0.301532
-0.30155
-0.301552
-0.301551
-0.30155
-0.30155
-0.30155
-0.301549
-0.301549
-0.301549
-0.30155
-0.30155
-0.30155
-0.30155
-0.301551
-0.301551
-0.392215
-0.393371
-0.394724
-0.396105
-0.397517
-0.398978
-0.400493
-0.40206
-0.403678
-0.405343
-0.407058
-0.40882
-0.410632
-0.412492
-0.414403
-0.416366
-0.418384
-0.420459
-0.422593
-0.424779
-0.427024
-0.429403
-0.432145
-0.435272
-0.436946
-0.431626
-0.419132
-0.446599
-0.654224
-1.03868
-0.5859
-0.324829
-0.32393
-0.323881
-0.323906
-0.323916
-0.323917
-0.323915
-0.323914
-0.323913
-0.323912
-0.323911
-0.323911
-0.32391
-0.32391
-0.323909
-0.323909
-0.323908
-0.323908
-0.323908
-0.381715
-0.384141
-0.386791
-0.389257
-0.391555
-0.393744
-0.395838
-0.397839
-0.399744
-0.401553
-0.403262
-0.404872
-0.406376
-0.407774
-0.409056
-0.410224
-0.411262
-0.412173
-0.412932
-0.413519
-0.413924
-0.414267
-0.414923
-0.415804
-0.413087
-0.397225
-0.371922
-0.432483
-0.82347
-1.41761
-0.470906
-0.346557
-0.346231
-0.346252
-0.34627
-0.346272
-0.346269
-0.346265
-0.346263
-0.34626
-0.346258
-0.346256
-0.346255
-0.346253
-0.346252
-0.346251
-0.34625
-0.346249
-0.346249
-0.346248
-0.389249
-0.392126
-0.395211
-0.398036
-0.400632
-0.40307
-0.405371
-0.407539
-0.409572
-0.411472
-0.413239
-0.414873
-0.416375
-0.417744
-0.418978
-0.420077
-0.421035
-0.421855
-0.422523
-0.423032
-0.423379
-0.42368
-0.424177
-0.424652
-0.42223
-0.410518
-0.395437
-0.449583
-0.733387
-1.10575
-0.404377
-0.368795
-0.368535
-0.368577
-0.3686
-0.368603
-0.368601
-0.368599
-0.368598
-0.368597
-0.368596
-0.368595
-0.368594
-0.368593
-0.368593
-0.368592
-0.368592
-0.368591
-0.368591
-0.36859
-0.453666
-0.455274
-0.457145
-0.459025
-0.460915
-0.462847
-0.464829
-0.466865
-0.468951
-0.47109
-0.473282
-0.475529
-0.477831
-0.480194
-0.482615
-0.485102
-0.487652
-0.490275
-0.49296
-0.495715
-0.498551
-0.501601
-0.50502
-0.508327
-0.508592
-0.5017
-0.500615
-0.579444
-0.839967
-0.96057
-0.39929
-0.391073
-0.390859
-0.390904
-0.390926
-0.390929
-0.390927
-0.390926
-0.390925
-0.390925
-0.390924
-0.390924
-0.390924
-0.390924
-0.390924
-0.390924
-0.390923
-0.390923
-0.390923
-0.390923
-0.485261
-0.486015
-0.486962
-0.488034
-0.489234
-0.490571
-0.492043
-0.493647
-0.495381
-0.497245
-0.499239
-0.501363
-0.50362
-0.506012
-0.508542
-0.511217
-0.51404
-0.517019
-0.520152
-0.523449
-0.526949
-0.53081
-0.535128
-0.53901
-0.538956
-0.532739
-0.543834
-0.660951
-0.936114
-0.814919
-0.415418
-0.413334
-0.41321
-0.413245
-0.413263
-0.413264
-0.413263
-0.413262
-0.413262
-0.413262
-0.413261
-0.413261
-0.413261
-0.413261
-0.413261
-0.413261
-0.413261
-0.413261
-0.413261
-0.413261
-0.497553
-0.498781
-0.500226
-0.5017
-0.503201
-0.504751
-0.506353
-0.508008
-0.50971
-0.511461
-0.513258
-0.5151
-0.516987
-0.51892
-0.520896
-0.522919
-0.524986
-0.527096
-0.529238
-0.531415
-0.533707
-0.536372
-0.539411
-0.540682
-0.533844
-0.518977
-0.55083
-0.789844
-1.22416
-0.695817
-0.436262
-0.43559
-0.435575
-0.435601
-0.43561
-0.435609
-0.435607
-0.435606
-0.435606
-0.435605
-0.435604
-0.435604
-0.435604
-0.435603
-0.435603
-0.435603
-0.435603
-0.435603
-0.435603
-0.435603
-0.0111461
-0.0111462
-0.0111462
-0.0111463
-0.0111464
-0.0111465
-0.0111466
-0.0111468
-0.0111469
-0.0111471
-0.0111473
-0.0111475
-0.0111477
-0.0111479
-0.0111481
-0.0111483
-0.0111485
-0.0111488
-0.011149
-0.0111493
-0.0111496
-0.0111498
-0.0111501
-0.0111504
-0.0111507
-0.011151
-0.0111513
-0.0111516
-0.0111519
-0.0111523
-0.0111526
-0.0111529
-0.0111532
-0.0111536
-0.0111539
-0.0111542
-0.0111546
-0.0111549
-0.0111553
-0.0111556
-0.011156
-0.0111563
-0.0111566
-0.011157
-0.0111573
-0.0111577
-0.011158
-0.0111584
-0.0111587
-0.011159
-0.0335129
-0.0335127
-0.0335126
-0.0335125
-0.0335123
-0.0335122
-0.0335121
-0.033512
-0.0335119
-0.0335118
-0.0335117
-0.0335116
-0.0335115
-0.0335114
-0.0335113
-0.0335112
-0.0335111
-0.033511
-0.0335109
-0.0335108
-0.0335107
-0.0335106
-0.0335106
-0.0335105
-0.0335104
-0.0335103
-0.0335102
-0.0335102
-0.0335101
-0.03351
-0.0335099
-0.0335098
-0.0335098
-0.0335097
-0.0335096
-0.0335095
-0.0335095
-0.0335094
-0.0335093
-0.0335092
-0.0335091
-0.0335091
-0.033509
-0.0335089
-0.0335088
-0.0335088
-0.0335087
-0.0335086
-0.0335085
-0.0335085
-0.0558197
-0.0558199
-0.0558201
-0.0558203
-0.0558205
-0.0558207
-0.0558209
-0.0558212
-0.0558214
-0.0558216
-0.0558218
-0.0558221
-0.0558223
-0.0558226
-0.0558228
-0.0558231
-0.0558233
-0.0558236
-0.0558239
-0.0558241
-0.0558244
-0.0558247
-0.0558249
-0.0558252
-0.0558255
-0.0558258
-0.0558261
-0.0558263
-0.0558266
-0.0558269
-0.0558272
-0.0558275
-0.0558278
-0.0558281
-0.0558284
-0.0558286
-0.0558289
-0.0558292
-0.0558295
-0.0558298
-0.0558301
-0.0558304
-0.0558307
-0.0558309
-0.0558312
-0.0558315
-0.0558318
-0.0558321
-0.0558323
-0.0558326
-0.0781727
-0.0781727
-0.0781726
-0.0781726
-0.0781726
-0.0781726
-0.0781726
-0.0781727
-0.0781727
-0.0781727
-0.0781728
-0.0781729
-0.0781729
-0.078173
-0.0781731
-0.0781731
-0.0781732
-0.0781733
-0.0781734
-0.0781735
-0.0781736
-0.0781737
-0.0781738
-0.0781739
-0.078174
-0.0781741
-0.0781742
-0.0781743
-0.0781744
-0.0781745
-0.0781746
-0.0781747
-0.0781749
-0.078175
-0.0781751
-0.0781752
-0.0781753
-0.0781754
-0.0781755
-0.0781756
-0.0781757
-0.0781758
-0.0781759
-0.078176
-0.0781761
-0.0781762
-0.0781763
-0.0781764
-0.0781765
-0.0781766
-0.100487
-0.100487
-0.100488
-0.100488
-0.100489
-0.100489
-0.10049
-0.10049
-0.100491
-0.100491
-0.100491
-0.100492
-0.100492
-0.100493
-0.100493
-0.100494
-0.100494
-0.100494
-0.100495
-0.100495
-0.100496
-0.100496
-0.100496
-0.100497
-0.100497
-0.100497
-0.100498
-0.100498
-0.100499
-0.100499
-0.100499
-0.1005
-0.1005
-0.1005
-0.100501
-0.100501
-0.100501
-0.100502
-0.100502
-0.100502
-0.100503
-0.100503
-0.100503
-0.100504
-0.100504
-0.100504
-0.100505
-0.100505
-0.100505
-0.100506
-0.122828
-0.122829
-0.122829
-0.12283
-0.12283
-0.122831
-0.122832
-0.122832
-0.122833
-0.122833
-0.122834
-0.122834
-0.122834
-0.122835
-0.122835
-0.122836
-0.122836
-0.122837
-0.122837
-0.122837
-0.122838
-0.122838
-0.122839
-0.122839
-0.122839
-0.12284
-0.12284
-0.12284
-0.122841
-0.122841
-0.122841
-0.122842
-0.122842
-0.122842
-0.122843
-0.122843
-0.122843
-0.122843
-0.122844
-0.122844
-0.122844
-0.122844
-0.122845
-0.122845
-0.122845
-0.122845
-0.122846
-0.122846
-0.122846
-0.122846
-0.145156
-0.145157
-0.145158
-0.145159
-0.145159
-0.14516
-0.145161
-0.145162
-0.145162
-0.145163
-0.145163
-0.145164
-0.145165
-0.145165
-0.145166
-0.145166
-0.145167
-0.145167
-0.145168
-0.145168
-0.145169
-0.145169
-0.14517
-0.14517
-0.145171
-0.145171
-0.145172
-0.145172
-0.145172
-0.145173
-0.145173
-0.145174
-0.145174
-0.145174
-0.145175
-0.145175
-0.145175
-0.145176
-0.145176
-0.145177
-0.145177
-0.145177
-0.145178
-0.145178
-0.145178
-0.145179
-0.145179
-0.145179
-0.145179
-0.14518
-0.167496
-0.167496
-0.167497
-0.167498
-0.167498
-0.167499
-0.1675
-0.1675
-0.167501
-0.167502
-0.167502
-0.167503
-0.167503
-0.167504
-0.167504
-0.167505
-0.167506
-0.167506
-0.167507
-0.167507
-0.167508
-0.167508
-0.167509
-0.167509
-0.16751
-0.16751
-0.16751
-0.167511
-0.167511
-0.167512
-0.167512
-0.167513
-0.167513
-0.167513
-0.167514
-0.167514
-0.167514
-0.167515
-0.167515
-0.167516
-0.167516
-0.167516
-0.167517
-0.167517
-0.167517
-0.167517
-0.167518
-0.167518
-0.167518
-0.167519
-0.18984
-0.189841
-0.189841
-0.189842
-0.189842
-0.189842
-0.189843
-0.189843
-0.189844
-0.189844
-0.189844
-0.189845
-0.189845
-0.189845
-0.189846
-0.189846
-0.189846
-0.189847
-0.189847
-0.189847
-0.189848
-0.189848
-0.189848
-0.189849
-0.189849
-0.189849
-0.18985
-0.18985
-0.18985
-0.18985
-0.189851
-0.189851
-0.189851
-0.189852
-0.189852
-0.189852
-0.189853
-0.189853
-0.189853
-0.189854
-0.189854
-0.189854
-0.189854
-0.189855
-0.189855
-0.189855
-0.189855
-0.189856
-0.189856
-0.189856
-0.212174
-0.212174
-0.212174
-0.212174
-0.212174
-0.212174
-0.212175
-0.212175
-0.212175
-0.212176
-0.212176
-0.212177
-0.212177
-0.212177
-0.212178
-0.212178
-0.212179
-0.212179
-0.21218
-0.21218
-0.212181
-0.212181
-0.212182
-0.212183
-0.212183
-0.212184
-0.212184
-0.212185
-0.212185
-0.212186
-0.212186
-0.212186
-0.212187
-0.212187
-0.212188
-0.212188
-0.212189
-0.212189
-0.21219
-0.21219
-0.21219
-0.212191
-0.212191
-0.212192
-0.212192
-0.212192
-0.212193
-0.212193
-0.212193
-0.212194
-0.2345
-0.234503
-0.234505
-0.234506
-0.234508
-0.23451
-0.234511
-0.234513
-0.234514
-0.234515
-0.234516
-0.234517
-0.234518
-0.234519
-0.23452
-0.234521
-0.234522
-0.234523
-0.234523
-0.234524
-0.234525
-0.234525
-0.234526
-0.234526
-0.234527
-0.234527
-0.234528
-0.234528
-0.234529
-0.234529
-0.234529
-0.23453
-0.23453
-0.234531
-0.234531
-0.234531
-0.234531
-0.234532
-0.234532
-0.234532
-0.234533
-0.234533
-0.234533
-0.234533
-0.234534
-0.234534
-0.234534
-0.234534
-0.234535
-0.234535
-0.256865
-0.256864
-0.256864
-0.256863
-0.256863
-0.256863
-0.256863
-0.256863
-0.256863
-0.256863
-0.256863
-0.256863
-0.256863
-0.256863
-0.256863
-0.256863
-0.256864
-0.256864
-0.256864
-0.256864
-0.256865
-0.256865
-0.256865
-0.256866
-0.256866
-0.256866
-0.256867
-0.256867
-0.256867
-0.256868
-0.256868
-0.256868
-0.256869
-0.256869
-0.256869
-0.25687
-0.25687
-0.25687
-0.256871
-0.256871
-0.256871
-0.256871
-0.256872
-0.256872
-0.256872
-0.256872
-0.256873
-0.256873
-0.256873
-0.256873
-0.279217
-0.279217
-0.279217
-0.279217
-0.279217
-0.279217
-0.279217
-0.279217
-0.279217
-0.279217
-0.279217
-0.279217
-0.279216
-0.279216
-0.279216
-0.279216
-0.279216
-0.279216
-0.279216
-0.279216
-0.279216
-0.279216
-0.279216
-0.279216
-0.279216
-0.279216
-0.279216
-0.279216
-0.279216
-0.279216
-0.279216
-0.279216
-0.279216
-0.279216
-0.279216
-0.279216
-0.279216
-0.279216
-0.279216
-0.279216
-0.279216
-0.279216
-0.279216
-0.279216
-0.279217
-0.279217
-0.279217
-0.279217
-0.279217
-0.279217
-0.301551
-0.301551
-0.301551
-0.301552
-0.301552
-0.301552
-0.301552
-0.301552
-0.301552
-0.301552
-0.301553
-0.301553
-0.301553
-0.301553
-0.301553
-0.301553
-0.301553
-0.301553
-0.301554
-0.301554
-0.301554
-0.301554
-0.301554
-0.301554
-0.301554
-0.301554
-0.301554
-0.301554
-0.301555
-0.301555
-0.301555
-0.301555
-0.301555
-0.301555
-0.301555
-0.301555
-0.301555
-0.301555
-0.301555
-0.301556
-0.301556
-0.301556
-0.301556
-0.301556
-0.301556
-0.301556
-0.301556
-0.301556
-0.301556
-0.301556
-0.323907
-0.323907
-0.323907
-0.323906
-0.323906
-0.323906
-0.323905
-0.323905
-0.323905
-0.323904
-0.323904
-0.323904
-0.323903
-0.323903
-0.323903
-0.323903
-0.323902
-0.323902
-0.323902
-0.323902
-0.323902
-0.323901
-0.323901
-0.323901
-0.323901
-0.323901
-0.323901
-0.3239
-0.3239
-0.3239
-0.3239
-0.3239
-0.3239
-0.3239
-0.3239
-0.3239
-0.323899
-0.323899
-0.323899
-0.323899
-0.323899
-0.323899
-0.323899
-0.323899
-0.323899
-0.323899
-0.323899
-0.323899
-0.323899
-0.323899
-0.346247
-0.346246
-0.346246
-0.346245
-0.346245
-0.346244
-0.346244
-0.346244
-0.346243
-0.346243
-0.346243
-0.346242
-0.346242
-0.346242
-0.346242
-0.346241
-0.346241
-0.346241
-0.346241
-0.346241
-0.34624
-0.34624
-0.34624
-0.34624
-0.34624
-0.34624
-0.34624
-0.34624
-0.34624
-0.346239
-0.346239
-0.346239
-0.346239
-0.346239
-0.346239
-0.346239
-0.346239
-0.346239
-0.346239
-0.346239
-0.346239
-0.346239
-0.346239
-0.346239
-0.346239
-0.346239
-0.346239
-0.346239
-0.346239
-0.346239
-0.36859
-0.36859
-0.368589
-0.368589
-0.368588
-0.368588
-0.368588
-0.368587
-0.368587
-0.368586
-0.368586
-0.368586
-0.368585
-0.368585
-0.368585
-0.368585
-0.368584
-0.368584
-0.368584
-0.368584
-0.368583
-0.368583
-0.368583
-0.368583
-0.368582
-0.368582
-0.368582
-0.368582
-0.368582
-0.368582
-0.368581
-0.368581
-0.368581
-0.368581
-0.368581
-0.368581
-0.368581
-0.368581
-0.36858
-0.36858
-0.36858
-0.36858
-0.36858
-0.36858
-0.36858
-0.36858
-0.36858
-0.36858
-0.36858
-0.36858
-0.390923
-0.390923
-0.390923
-0.390923
-0.390923
-0.390923
-0.390923
-0.390923
-0.390922
-0.390922
-0.390922
-0.390922
-0.390922
-0.390922
-0.390922
-0.390922
-0.390922
-0.390922
-0.390921
-0.390921
-0.390921
-0.390921
-0.390921
-0.390921
-0.390921
-0.390921
-0.390921
-0.390921
-0.390921
-0.390921
-0.39092
-0.39092
-0.39092
-0.39092
-0.39092
-0.39092
-0.39092
-0.39092
-0.39092
-0.39092
-0.39092
-0.39092
-0.39092
-0.39092
-0.39092
-0.39092
-0.39092
-0.39092
-0.39092
-0.390919
-0.413261
-0.413261
-0.413261
-0.413261
-0.413261
-0.413261
-0.413261
-0.413261
-0.413261
-0.413261
-0.413261
-0.413261
-0.413261
-0.413261
-0.413261
-0.413261
-0.413261
-0.413261
-0.413261
-0.413261
-0.413261
-0.413261
-0.41326
-0.41326
-0.41326
-0.41326
-0.41326
-0.41326
-0.41326
-0.41326
-0.41326
-0.41326
-0.41326
-0.41326
-0.41326
-0.41326
-0.41326
-0.41326
-0.41326
-0.413259
-0.413259
-0.413259
-0.413259
-0.413259
-0.413259
-0.413259
-0.413259
-0.413259
-0.413259
-0.413259
-0.435602
-0.435602
-0.435602
-0.435602
-0.435602
-0.435602
-0.435602
-0.435602
-0.435602
-0.435602
-0.435601
-0.435601
-0.435601
-0.435601
-0.435601
-0.435601
-0.435601
-0.435601
-0.435601
-0.435601
-0.435601
-0.435601
-0.435601
-0.435601
-0.4356
-0.4356
-0.4356
-0.4356
-0.4356
-0.4356
-0.4356
-0.4356
-0.4356
-0.4356
-0.4356
-0.4356
-0.4356
-0.4356
-0.4356
-0.4356
-0.4356
-0.4356
-0.4356
-0.435599
-0.435599
-0.435599
-0.435599
-0.435599
-0.435599
-0.435599
-0.0111592
-0.0111594
-0.0111596
-0.0111598
-0.0111599
-0.0111601
-0.0111603
-0.0111605
-0.0111607
-0.0111609
-0.0111611
-0.0111613
-0.0111615
-0.0111616
-0.0111618
-0.011162
-0.0111622
-0.0111624
-0.0111626
-0.0111628
-0.011163
-0.0111632
-0.0111634
-0.0111635
-0.0111637
-0.0111639
-0.0111641
-0.0111643
-0.0111645
-0.0111647
-0.0111649
-0.011165
-0.0111652
-0.0111654
-0.0111656
-0.0111658
-0.0111659
-0.0111661
-0.0111663
-0.0111665
-0.0111667
-0.0111668
-0.011167
-0.0111672
-0.0111673
-0.0111675
-0.0111677
-0.0111678
-0.011168
-0.0111682
-0.0111683
-0.0111685
-0.0111687
-0.0111688
-0.011169
-0.0111691
-0.0111693
-0.0111694
-0.0111696
-0.0111697
-0.0111699
-0.01117
-0.0111701
-0.0111703
-0.0111704
-0.0111706
-0.0111707
-0.0111708
-0.011171
-0.0111711
-0.0111712
-0.0111713
-0.0111715
-0.0111716
-0.0111717
-0.0111718
-0.0111719
-0.011172
-0.0111721
-0.0111722
-0.0111723
-0.0111725
-0.0111726
-0.0111726
-0.0111727
-0.0111728
-0.0111729
-0.011173
-0.0111731
-0.0111732
-0.0111733
-0.0111733
-0.0111734
-0.0111735
-0.0111736
-0.0111736
-0.0111737
-0.0111738
-0.0111738
-0.0111739
-0.011174
-0.011174
-0.0111741
-0.0111741
-0.0111742
-0.0111742
-0.0111743
-0.0111743
-0.0111744
-0.0111744
-0.0111744
-0.0111745
-0.0111745
-0.0111745
-0.0111746
-0.0111746
-0.0111746
-0.0111746
-0.0111746
-0.0111747
-0.0111747
-0.0111747
-0.0111747
-0.0111747
-0.0111747
-0.0111747
-0.0111747
-0.0111747
-0.0111747
-0.0111747
-0.0111747
-0.0111747
-0.0111747
-0.0111747
-0.0111747
-0.0111747
-0.0111747
-0.0111747
-0.0111746
-0.0111746
-0.0111746
-0.0111746
-0.0111745
-0.0111745
-0.0111745
-0.0111745
-0.0111744
-0.0111744
-0.0111744
-0.0111743
-0.0111743
-0.0111743
-0.0111742
-0.0111742
-0.0111742
-0.0111741
-0.0111741
-0.011174
-0.011174
-0.011174
-0.0111739
-0.0111739
-0.0111738
-0.0111738
-0.0111737
-0.0111737
-0.0111736
-0.0111736
-0.0111735
-0.0111735
-0.0111734
-0.0111734
-0.0111733
-0.0111733
-0.0111732
-0.0111731
-0.0111731
-0.011173
-0.011173
-0.0111729
-0.0111729
-0.0111728
-0.0111728
-0.0111727
-0.0111727
-0.0111726
-0.0111725
-0.0111725
-0.0111724
-0.0111724
-0.0111723
-0.0111723
-0.0111722
-0.0111721
-0.0111721
-0.011172
-0.011172
-0.0111719
-0.0111719
-0.0111718
-0.0111718
-0.0111717
-0.0111717
-0.0111716
-0.0111715
-0.0111715
-0.0111714
-0.0111714
-0.0111713
-0.0111713
-0.0111712
-0.0111712
-0.0111711
-0.0111711
-0.011171
-0.011171
-0.011171
-0.0111709
-0.0111709
-0.0111708
-0.0111708
-0.0111707
-0.0111707
-0.0111706
-0.0111706
-0.0111706
-0.0111705
-0.0111705
-0.0111704
-0.0111704
-0.0111704
-0.0111703
-0.0111703
-0.0111702
-0.0111702
-0.0111702
-0.0111701
-0.0111701
-0.0111701
-0.01117
-0.01117
-0.01117
-0.0111699
-0.0111699
-0.0111699
-0.0111698
-0.0111698
-0.0111698
-0.0111698
-0.0111697
-0.0111697
-0.0111697
-0.0111697
-0.0111696
-0.0111696
-0.0111696
-0.0111696
-0.0111695
-0.0111695
-0.0111695
-0.0111695
-0.0111694
-0.0111694
-0.0111694
-0.0111694
-0.0111694
-0.0111693
-0.0111693
-0.0111693
-0.0111693
-0.0111693
-0.0111692
-0.0111692
-0.0111692
-0.0111692
-0.0111692
-0.0111692
-0.0111691
-0.0111691
-0.0111691
-0.0111691
-0.0111691
-0.0111691
-0.011169
-0.011169
-0.011169
-0.011169
-0.011169
-0.011169
-0.011169
-0.011169
-0.0111689
-0.0111689
-0.0111689
-0.0111689
-0.0111689
-0.0111689
-0.0111689
-0.0111689
-0.0111689
-0.0335085
-0.0335085
-0.0335084
-0.0335084
-0.0335083
-0.0335083
-0.0335083
-0.0335082
-0.0335082
-0.0335082
-0.0335081
-0.0335081
-0.033508
-0.033508
-0.033508
-0.0335079
-0.0335079
-0.0335078
-0.0335078
-0.0335077
-0.0335077
-0.0335076
-0.0335076
-0.0335076
-0.0335075
-0.0335075
-0.0335074
-0.0335074
-0.0335073
-0.0335073
-0.0335072
-0.0335072
-0.0335071
-0.0335071
-0.033507
-0.033507
-0.0335069
-0.0335069
-0.0335068
-0.0335068
-0.0335067
-0.0335067
-0.0335066
-0.0335066
-0.0335065
-0.0335065
-0.0335064
-0.0335064
-0.0335063
-0.0335063
-0.0335062
-0.0335062
-0.0335061
-0.0335061
-0.033506
-0.033506
-0.0335059
-0.0335059
-0.0335058
-0.0335058
-0.0335058
-0.0335057
-0.0335057
-0.0335056
-0.0335056
-0.0335055
-0.0335055
-0.0335054
-0.0335054
-0.0335053
-0.0335053
-0.0335053
-0.0335052
-0.0335052
-0.0335051
-0.0335051
-0.0335051
-0.033505
-0.033505
-0.0335049
-0.0335049
-0.0335049
-0.0335048
-0.0335048
-0.0335048
-0.0335047
-0.0335047
-0.0335047
-0.0335046
-0.0335046
-0.0335046
-0.0335046
-0.0335045
-0.0335045
-0.0335045
-0.0335045
-0.0335044
-0.0335044
-0.0335044
-0.0335044
-0.0335043
-0.0335043
-0.0335043
-0.0335043
-0.0335043
-0.0335043
-0.0335042
-0.0335042
-0.0335042
-0.0335042
-0.0335042
-0.0335042
-0.0335042
-0.0335042
-0.0335042
-0.0335042
-0.0335042
-0.0335042
-0.0335042
-0.0335041
-0.0335041
-0.0335041
-0.0335041
-0.0335042
-0.0335042
-0.0335042
-0.0335042
-0.0335042
-0.0335042
-0.0335042
-0.0335042
-0.0335042
-0.0335042
-0.0335042
-0.0335042
-0.0335043
-0.0335043
-0.0335043
-0.0335043
-0.0335043
-0.0335043
-0.0335043
-0.0335044
-0.0335044
-0.0335044
-0.0335044
-0.0335044
-0.0335045
-0.0335045
-0.0335045
-0.0335045
-0.0335046
-0.0335046
-0.0335046
-0.0335046
-0.0335047
-0.0335047
-0.0335047
-0.0335047
-0.0335048
-0.0335048
-0.0335048
-0.0335049
-0.0335049
-0.0335049
-0.0335049
-0.033505
-0.033505
-0.033505
-0.0335051
-0.0335051
-0.0335051
-0.0335052
-0.0335052
-0.0335052
-0.0335053
-0.0335053
-0.0335053
-0.0335053
-0.0335054
-0.0335054
-0.0335054
-0.0335055
-0.0335055
-0.0335055
-0.0335056
-0.0335056
-0.0335056
-0.0335057
-0.0335057
-0.0335057
-0.0335057
-0.0335058
-0.0335058
-0.0335058
-0.0335059
-0.0335059
-0.0335059
-0.0335059
-0.033506
-0.033506
-0.033506
-0.0335061
-0.0335061
-0.0335061
-0.0335061
-0.0335062
-0.0335062
-0.0335062
-0.0335062
-0.0335063
-0.0335063
-0.0335063
-0.0335063
-0.0335063
-0.0335064
-0.0335064
-0.0335064
-0.0335064
-0.0335064
-0.0335065
-0.0335065
-0.0335065
-0.0335065
-0.0335065
-0.0335065
-0.0335066
-0.0335066
-0.0335066
-0.0335066
-0.0335066
-0.0335066
-0.0335066
-0.0335067
-0.0335067
-0.0335067
-0.0335067
-0.0335067
-0.0335067
-0.0335067
-0.0335067
-0.0335067
-0.0335067
-0.0335067
-0.0335067
-0.0335068
-0.0335068
-0.0335068
-0.0335068
-0.0335068
-0.0335068
-0.0335068
-0.0335068
-0.0335068
-0.0335068
-0.0335068
-0.0335068
-0.0335068
-0.0335068
-0.0335068
-0.0335068
-0.0335068
-0.0335068
-0.0335068
-0.0335068
-0.0335068
-0.0335068
-0.0335068
-0.0335068
-0.0335068
-0.0335068
-0.0335068
-0.0335068
-0.0335068
-0.0335068
-0.0335068
-0.0335068
-0.0335068
-0.0335067
-0.0335067
-0.0335067
-0.0335067
-0.0335067
-0.0335067
-0.0335067
-0.0335067
-0.0335067
-0.0335067
-0.0335067
-0.0335067
-0.0335067
-0.0335067
-0.0335067
-0.0335066
-0.0335066
-0.0335066
-0.0335066
-0.0335066
-0.0335066
-0.0335066
-0.0558328
-0.0558329
-0.0558331
-0.0558332
-0.0558334
-0.0558335
-0.0558337
-0.0558339
-0.055834
-0.0558342
-0.0558343
-0.0558345
-0.0558347
-0.0558348
-0.055835
-0.0558351
-0.0558353
-0.0558354
-0.0558356
-0.0558358
-0.0558359
-0.0558361
-0.0558362
-0.0558364
-0.0558366
-0.0558367
-0.0558369
-0.055837
-0.0558372
-0.0558374
-0.0558375
-0.0558377
-0.0558378
-0.055838
-0.0558381
-0.0558383
-0.0558384
-0.0558386
-0.0558388
-0.0558389
-0.0558391
-0.0558392
-0.0558394
-0.0558395
-0.0558397
-0.0558398
-0.05584
-0.0558401
-0.0558402
-0.0558404
-0.0558405
-0.0558407
-0.0558408
-0.055841
-0.0558411
-0.0558412
-0.0558414
-0.0558415
-0.0558416
-0.0558418
-0.0558419
-0.055842
-0.0558422
-0.0558423
-0.0558424
-0.0558425
-0.0558427
-0.0558428
-0.0558429
-0.055843
-0.0558431
-0.0558432
-0.0558434
-0.0558435
-0.0558436
-0.0558437
-0.0558438
-0.0558439
-0.055844
-0.0558441
-0.0558442
-0.0558443
-0.0558444
-0.0558445
-0.0558446
-0.0558447
-0.0558448
-0.0558449
-0.055845
-0.0558451
-0.0558452
-0.0558452
-0.0558453
-0.0558454
-0.0558455
-0.0558456
-0.0558456
-0.0558457
-0.0558458
-0.0558458
-0.0558459
-0.055846
-0.055846
-0.0558461
-0.0558462
-0.0558462
-0.0558463
-0.0558463
-0.0558464
-0.0558465
-0.0558465
-0.0558466
-0.0558466
-0.0558467
-0.0558467
-0.0558467
-0.0558468
-0.0558468
-0.0558469
-0.0558469
-0.0558469
-0.055847
-0.055847
-0.055847
-0.0558471
-0.0558471
-0.0558471
-0.0558472
-0.0558472
-0.0558472
-0.0558472
-0.0558472
-0.0558473
-0.0558473
-0.0558473
-0.0558473
-0.0558473
-0.0558473
-0.0558473
-0.0558474
-0.0558474
-0.0558474
-0.0558474
-0.0558474
-0.0558474
-0.0558474
-0.0558474
-0.0558474
-0.0558474
-0.0558474
-0.0558474
-0.0558474
-0.0558474
-0.0558474
-0.0558474
-0.0558474
-0.0558474
-0.0558474
-0.0558473
-0.0558473
-0.0558473
-0.0558473
-0.0558473
-0.0558473
-0.0558473
-0.0558473
-0.0558472
-0.0558472
-0.0558472
-0.0558472
-0.0558472
-0.0558472
-0.0558471
-0.0558471
-0.0558471
-0.0558471
-0.0558471
-0.055847
-0.055847
-0.055847
-0.055847
-0.0558469
-0.0558469
-0.0558469
-0.0558469
-0.0558468
-0.0558468
-0.0558468
-0.0558468
-0.0558467
-0.0558467
-0.0558467
-0.0558467
-0.0558466
-0.0558466
-0.0558466
-0.0558466
-0.0558465
-0.0558465
-0.0558465
-0.0558465
-0.0558464
-0.0558464
-0.0558464
-0.0558464
-0.0558463
-0.0558463
-0.0558463
-0.0558462
-0.0558462
-0.0558462
-0.0558462
-0.0558461
-0.0558461
-0.0558461
-0.0558461
-0.055846
-0.055846
-0.055846
-0.055846
-0.0558459
-0.0558459
-0.0558459
-0.0558459
-0.0558458
-0.0558458
-0.0558458
-0.0558458
-0.0558457
-0.0558457
-0.0558457
-0.0558457
-0.0558456
-0.0558456
-0.0558456
-0.0558456
-0.0558456
-0.0558455