/*--------------------------------*- C++ -*----------------------------------*\
| =========                 |                                                 |
| \\      /  F ield         | OpenFOAM: The Open Source CFD Toolbox           |
|  \\    /   O peration     | Version:  2.4.0                                 |
|   \\  /    A nd           | Web:      www.OpenFOAM.org                      |
|    \\/     M anipulation  |                                                 |
\*---------------------------------------------------------------------------*/
FoamFile
{
    version     2.0;
    format      ascii;
    class       surfaceScalarField;
    location    "1.2";
    object      phi;
}
// * * * * * * * * * * * * * * * * * * * * * * * * * * * * * * * * * * * * * //

dimensions      [0 3 -1 0 0 0 0];

internalField   nonuniform List<scalar> 
15580
(
-8.82405e-14
-2.35303e-12
-2.91172e-13
-6.93298e-12
-5.80921e-13
-1.13739e-11
-9.46785e-13
-1.56696e-11
-1.37942e-12
-1.98205e-11
-1.87065e-12
-2.38268e-11
-2.41337e-12
-2.76888e-11
-3.00134e-12
-3.14067e-11
-3.62911e-12
-3.49806e-11
-4.29185e-12
-3.84108e-11
-4.98532e-12
-4.16975e-11
-5.70573e-12
-4.48408e-11
-6.44968e-12
-4.78407e-11
-7.2141e-12
-5.06976e-11
-7.99617e-12
-5.34114e-11
-8.79329e-12
-5.59822e-11
-9.60302e-12
-5.84101e-11
-1.0423e-11
-6.06951e-11
-1.1251e-11
-6.28374e-11
-1.20846e-11
-6.48369e-11
-1.29216e-11
-6.66935e-11
-1.37597e-11
-6.84074e-11
-1.45962e-11
-6.99785e-11
-1.54285e-11
-7.14068e-11
-1.62538e-11
-7.26921e-11
-1.70686e-11
-7.38345e-11
-1.78695e-11
-7.48338e-11
-1.86526e-11
-7.569e-11
-1.94138e-11
-7.64027e-11
-2.01482e-11
-7.69712e-11
-2.0846e-11
-7.7395e-11
-2.14878e-11
-7.76789e-11
-3.3873e-11
-7.78368e-11
-3.92786e-11
-7.7918e-11
-3.98235e-11
-7.79168e-11
-4.03573e-11
-7.79188e-11
-4.09922e-11
-7.78695e-11
-4.16389e-11
-7.78626e-11
-4.22751e-11
-7.78479e-11
-4.29174e-11
-7.78172e-11
-4.35731e-11
-7.77728e-11
-4.42429e-11
-7.77135e-11
-4.49259e-11
-7.76375e-11
-4.56206e-11
-7.75433e-11
-4.63255e-11
-7.74299e-11
-4.70385e-11
-7.7297e-11
-4.77574e-11
-7.71441e-11
-4.84803e-11
-7.69713e-11
-4.92054e-11
-7.67787e-11
-7.65663e-11
-4.99317e-11
-3.54076e-14
-2.31762e-12
-1.60586e-13
-6.8078e-12
-3.75769e-13
-1.11587e-11
-6.72562e-13
-1.53728e-11
-1.04343e-12
-1.94497e-11
-1.48157e-12
-2.33887e-11
-1.98079e-12
-2.71896e-11
-2.53547e-12
-3.0852e-11
-3.14047e-12
-3.43756e-11
-3.79109e-12
-3.77602e-11
-4.48297e-12
-4.10056e-11
-5.21212e-12
-4.41116e-11
-5.97475e-12
-4.70781e-11
-6.76736e-12
-4.9905e-11
-7.58657e-12
-5.25921e-11
-8.42919e-12
-5.51396e-11
-9.29208e-12
-5.75472e-11
-1.01722e-11
-5.9815e-11
-1.10665e-11
-6.19431e-11
-1.1972e-11
-6.39314e-11
-1.28854e-11
-6.57801e-11
-1.38037e-11
-6.74892e-11
-1.47234e-11
-6.90588e-11
-1.5641e-11
-7.04892e-11
-1.65527e-11
-7.17804e-11
-1.74545e-11
-7.29327e-11
-1.83419e-11
-7.39463e-11
-1.92103e-11
-7.48216e-11
-2.00542e-11
-7.55588e-11
-2.0867e-11
-7.61584e-11
-2.1641e-11
-7.66211e-11
-2.23714e-11
-7.69485e-11
-4.05073e-11
-7.71448e-11
-4.13357e-11
-7.72078e-11
-4.2021e-11
-7.72315e-11
-4.2691e-11
-7.72488e-11
-4.33136e-11
-7.72468e-11
-4.39557e-11
-7.72206e-11
-4.46231e-11
-7.71804e-11
-4.5313e-11
-7.71273e-11
-4.60257e-11
-7.706e-11
-4.67614e-11
-7.69778e-11
-4.75186e-11
-7.68802e-11
-4.82952e-11
-7.67667e-11
-4.90885e-11
-7.66367e-11
-4.98956e-11
-7.64899e-11
-5.07139e-11
-7.63258e-11
-5.15409e-11
-7.61443e-11
-5.23744e-11
-7.59452e-11
-7.57281e-11
-5.32126e-11
-2.92024e-14
-2.28842e-12
-1.02416e-13
-6.73459e-12
-2.14768e-13
-1.10464e-11
-3.65875e-13
-1.52217e-11
-5.55061e-13
-1.92605e-11
-7.81452e-13
-2.31623e-11
-1.04402e-12
-2.6927e-11
-1.34161e-12
-3.05544e-11
-1.67299e-12
-3.40442e-11
-2.03687e-12
-3.73963e-11
-2.4319e-12
-4.06106e-11
-2.85672e-12
-4.36868e-11
-3.30994e-12
-4.66249e-11
-3.7902e-12
-4.94247e-11
-4.29611e-12
-5.20862e-11
-4.82632e-12
-5.46093e-11
-5.37946e-12
-5.6994e-11
-5.95421e-12
-5.92402e-11
-6.54928e-12
-6.1348e-11
-7.16338e-12
-6.33173e-11
-7.79525e-12
-6.51482e-11
-8.44369e-12
-6.68407e-11
-9.10751e-12
-6.8395e-11
-9.7856e-12
-6.98111e-11
-1.04768e-11
-7.10891e-11
-1.11803e-11
-7.22293e-11
-1.18949e-11
-7.32317e-11
-1.26199e-11
-7.40966e-11
-1.33545e-11
-7.48241e-11
-1.40983e-11
-7.54146e-11
-1.48503e-11
-7.58691e-11
-1.5881e-11
-7.61897e-11
-3.32885e-11
-7.63889e-11
-3.40517e-11
-7.64446e-11
-3.48137e-11
-7.64695e-11
-3.55877e-11
-7.64748e-11
-3.64059e-11
-7.64286e-11
-3.72371e-11
-7.63894e-11
-3.80782e-11
-7.63393e-11
-3.89297e-11
-7.62758e-11
-3.97917e-11
-7.6198e-11
-4.06638e-11
-7.61058e-11
-4.15451e-11
-7.59989e-11
-4.24348e-11
-7.5877e-11
-4.33318e-11
-7.57397e-11
-4.42351e-11
-7.55866e-11
-4.51437e-11
-7.54173e-11
-4.60565e-11
-7.52315e-11
-4.69727e-11
-7.5029e-11
-7.48095e-11
-4.78913e-11
-1.56659e-14
-2.27276e-12
-6.83533e-14
-6.6819e-12
-1.59179e-13
-1.09555e-11
-2.87086e-13
-1.50938e-11
-4.51165e-13
-1.90964e-11
-6.50623e-13
-2.29629e-11
-8.84772e-13
-2.66929e-11
-1.15301e-12
-3.02862e-11
-1.45484e-12
-3.37424e-11
-1.78981e-12
-3.70614e-11
-2.15757e-12
-4.02428e-11
-2.55782e-12
-4.32866e-11
-2.99034e-12
-4.61924e-11
-3.45495e-12
-4.89601e-11
-3.95157e-12
-5.15896e-11
-4.48013e-12
-5.40808e-11
-5.04067e-12
-5.64335e-11
-5.63326e-12
-5.86477e-11
-6.25804e-12
-6.07232e-11
-6.91522e-12
-6.26601e-11
-7.60508e-12
-6.44583e-11
-8.32792e-12
-6.61179e-11
-9.08417e-12
-6.76388e-11
-9.87426e-12
-6.9021e-11
-1.06987e-11
-7.02647e-11
-1.15582e-11
-7.13699e-11
-1.24532e-11
-7.23367e-11
-1.33846e-11
-7.31652e-11
-1.43531e-11
-7.38556e-11
-1.53596e-11
-7.44082e-11
-1.64049e-11
-7.48238e-11
-1.82759e-11
-7.51047e-11
-3.3956e-11
-7.52746e-11
-3.50907e-11
-7.53099e-11
-3.62173e-11
-7.53429e-11
-3.73134e-11
-7.53787e-11
-3.83447e-11
-7.53973e-11
-3.93384e-11
-7.53957e-11
-4.03025e-11
-7.53752e-11
-4.12427e-11
-7.53356e-11
-4.21636e-11
-7.52771e-11
-4.30697e-11
-7.51997e-11
-4.39648e-11
-7.51037e-11
-4.48526e-11
-7.49893e-11
-4.57357e-11
-7.48566e-11
-4.66165e-11
-7.47057e-11
-4.74967e-11
-7.45371e-11
-4.83776e-11
-7.43506e-11
-4.92599e-11
-7.41466e-11
-7.39251e-11
-5.01443e-11
-1.07255e-15
-2.27168e-12
-4.63365e-15
-6.67834e-12
-1.28256e-14
-1.09473e-11
-2.85004e-14
-1.50782e-11
-5.42047e-14
-1.90707e-11
-9.22352e-14
-2.29248e-11
-1.44667e-13
-2.66404e-11
-2.13395e-13
-3.02174e-11
-3.00152e-13
-3.36556e-11
-4.06553e-13
-3.6955e-11
-5.34103e-13
-4.01153e-11
-6.84244e-13
-4.31364e-11
-8.58353e-13
-4.60183e-11
-1.05779e-12
-4.87607e-11
-1.28391e-12
-5.13635e-11
-1.53808e-12
-5.38266e-11
-1.82168e-12
-5.61499e-11
-2.13621e-12
-5.83331e-11
-2.48319e-12
-6.03762e-11
-2.86428e-12
-6.2279e-11
-3.28126e-12
-6.40414e-11
-3.73608e-12
-6.56631e-11
-4.23084e-12
-6.7144e-11
-4.76792e-12
-6.84839e-11
-5.34985e-12
-6.96827e-11
-5.97956e-12
-7.07401e-11
-6.66015e-12
-7.16561e-11
-7.39526e-12
-7.24301e-11
-8.1889e-12
-7.3062e-11
-9.04599e-12
-7.35511e-11
-9.97133e-12
-7.38985e-11
-1.32049e-11
-7.41093e-11
-2.68327e-11
-7.42237e-11
-2.79235e-11
-7.42191e-11
-2.90448e-11
-7.42216e-11
-3.02204e-11
-7.42031e-11
-3.13982e-11
-7.42196e-11
-3.25698e-11
-7.4224e-11
-3.37332e-11
-7.42118e-11
-3.48867e-11
-7.41822e-11
-3.60293e-11
-7.41345e-11
-3.71608e-11
-7.40681e-11
-3.82817e-11
-7.39829e-11
-3.93924e-11
-7.38785e-11
-4.04937e-11
-7.37552e-11
-4.15863e-11
-7.36132e-11
-4.26708e-11
-7.34526e-11
-4.37476e-11
-7.32738e-11
-4.48171e-11
-7.3077e-11
-7.28624e-11
-4.58798e-11
1.84576e-15
-2.27353e-12
2.16608e-15
-6.67866e-12
-2.27555e-15
-1.09429e-11
-1.36659e-14
-1.50668e-11
-3.40179e-14
-1.90503e-11
-6.51791e-14
-2.28937e-11
-1.08843e-13
-2.65968e-11
-1.66576e-13
-3.01597e-11
-2.39823e-13
-3.35824e-11
-3.29941e-13
-3.68649e-11
-4.382e-13
-4.0007e-11
-5.65816e-13
-4.30088e-11
-7.13946e-13
-4.58701e-11
-8.83726e-13
-4.85909e-11
-1.07626e-12
-5.1171e-11
-1.29268e-12
-5.36102e-11
-1.53409e-12
-5.59085e-11
-1.80166e-12
-5.80656e-11
-2.09658e-12
-6.00813e-11
-2.42014e-12
-6.19555e-11
-2.77367e-12
-6.36878e-11
-3.15865e-12
-6.52781e-11
-3.57663e-12
-6.6726e-11
-4.02938e-12
-6.80312e-11
-4.51877e-12
-6.91933e-11
-5.04695e-12
-7.0212e-11
-5.61616e-12
-7.10869e-11
-6.22886e-12
-7.18174e-11
-6.88777e-12
-7.24031e-11
-7.59746e-12
-7.28414e-11
-8.3662e-12
-7.31297e-11
-1.62619e-11
-7.32723e-11
-2.5494e-11
-7.3332e-11
-2.64115e-11
-7.33016e-11
-2.73543e-11
-7.32787e-11
-2.83346e-11
-7.32228e-11
-2.93635e-11
-7.31907e-11
-3.04342e-11
-7.31533e-11
-3.15398e-11
-7.31062e-11
-3.26738e-11
-7.30482e-11
-3.38297e-11
-7.29785e-11
-3.50018e-11
-7.28961e-11
-3.6185e-11
-7.27997e-11
-3.73752e-11
-7.26884e-11
-3.85688e-11
-7.25616e-11
-3.9763e-11
-7.24189e-11
-4.09557e-11
-7.22599e-11
-4.2145e-11
-7.20845e-11
-4.33295e-11
-7.18926e-11
-7.1684e-11
-4.4508e-11
-1.30261e-14
-2.2605e-12
-5.07223e-14
-6.64097e-12
-1.12506e-13
-1.08811e-11
-1.98249e-13
-1.4981e-11
-3.07939e-13
-1.89406e-11
-4.41637e-13
-2.276e-11
-5.99482e-13
-2.64389e-11
-7.81658e-13
-2.99775e-11
-9.88401e-13
-3.33757e-11
-1.21997e-12
-3.66333e-11
-1.47663e-12
-3.97503e-11
-1.75868e-12
-4.27268e-11
-2.06636e-12
-4.55624e-11
-2.39993e-12
-4.82573e-11
-2.75958e-12
-5.08113e-11
-3.14543e-12
-5.32243e-11
-3.55759e-12
-5.54963e-11
-3.996e-12
-5.76272e-11
-4.46054e-12
-5.96168e-11
-4.95093e-12
-6.14651e-11
-5.46676e-12
-6.3172e-11
-6.00739e-12
-6.47375e-11
-6.57201e-12
-6.61614e-11
-7.15948e-12
-6.74437e-11
-7.76844e-12
-6.85844e-11
-8.39707e-12
-6.95833e-11
-9.04342e-12
-7.04405e-11
-9.70512e-12
-7.11557e-11
-1.03791e-11
-7.17291e-11
-1.10584e-11
-7.21621e-11
-1.18948e-11
-7.24589e-11
-3.21769e-11
-7.2634e-11
-3.28672e-11
-7.26416e-11
-3.35363e-11
-7.26326e-11
-3.42085e-11
-7.26065e-11
-3.48792e-11
-7.25521e-11
-3.5587e-11
-7.2483e-11
-3.63325e-11
-7.24078e-11
-3.71114e-11
-7.23273e-11
-3.79202e-11
-7.22394e-11
-3.87558e-11
-7.21429e-11
-3.96152e-11
-7.20366e-11
-4.04957e-11
-7.19192e-11
-4.13947e-11
-7.17894e-11
-4.231e-11
-7.16463e-11
-4.32397e-11
-7.14892e-11
-4.4182e-11
-7.13176e-11
-4.51355e-11
-7.11311e-11
-4.60986e-11
-7.09295e-11
-7.07126e-11
-4.70699e-11
-1.99961e-14
-2.24051e-12
-7.65694e-14
-6.58439e-12
-1.67786e-13
-1.07899e-11
-2.92559e-13
-1.48562e-11
-4.50052e-13
-1.87832e-11
-6.39625e-13
-2.25704e-11
-8.60802e-13
-2.62178e-11
-1.11324e-12
-2.97251e-11
-1.39672e-12
-3.30922e-11
-1.71112e-12
-3.63189e-11
-2.05638e-12
-3.94051e-11
-2.43252e-12
-4.23506e-11
-2.83962e-12
-4.51553e-11
-3.27775e-12
-4.78192e-11
-3.74705e-12
-5.0342e-11
-4.2476e-12
-5.27238e-11
-4.77951e-12
-5.49644e-11
-5.34283e-12
-5.70638e-11
-5.93756e-12
-5.9022e-11
-6.56362e-12
-6.0839e-11
-7.22086e-12
-6.25148e-11
-7.90897e-12
-6.40493e-11
-8.62755e-12
-6.54428e-11
-9.37595e-12
-6.66953e-11
-1.01534e-11
-6.78069e-11
-1.09588e-11
-6.87779e-11
-1.17908e-11
-6.96085e-11
-1.26475e-11
-7.0299e-11
-1.35269e-11
-7.08497e-11
-1.44271e-11
-7.12618e-11
-1.59233e-11
-7.15376e-11
-3.31686e-11
-7.17051e-11
-3.40804e-11
-7.17299e-11
-3.49632e-11
-7.17497e-11
-3.58175e-11
-7.17522e-11
-3.66479e-11
-7.17217e-11
-3.74629e-11
-7.1668e-11
-3.82714e-11
-7.15993e-11
-3.90794e-11
-7.15192e-11
-3.98905e-11
-7.14283e-11
-4.07071e-11
-7.13263e-11
-4.15313e-11
-7.12125e-11
-4.23643e-11
-7.10861e-11
-4.32073e-11
-7.09465e-11
-4.40606e-11
-7.0793e-11
-4.49245e-11
-7.06253e-11
-4.57989e-11
-7.04431e-11
-4.66836e-11
-7.02464e-11
-4.75781e-11
-7.0035e-11
-6.9809e-11
-4.84817e-11
-3.51142e-15
-2.23699e-12
-1.79049e-14
-6.57e-12
-4.57942e-14
-1.0762e-11
-8.90785e-14
-1.4813e-11
-1.49443e-13
-1.87228e-11
-2.28387e-13
-2.24914e-11
-3.27249e-13
-2.61189e-11
-4.47248e-13
-2.96051e-11
-5.89512e-13
-3.29499e-11
-7.55114e-13
-3.61533e-11
-9.45088e-13
-3.92151e-11
-1.16047e-12
-4.21352e-11
-1.40228e-12
-4.49135e-11
-1.67162e-12
-4.75499e-11
-1.96959e-12
-5.0044e-11
-2.29743e-12
-5.2396e-11
-2.65644e-12
-5.46054e-11
-3.04809e-12
-5.66722e-11
-3.47398e-12
-5.85961e-11
-3.93599e-12
-6.0377e-11
-4.43615e-12
-6.20146e-11
-4.97687e-12
-6.35086e-11
-5.56084e-12
-6.48588e-11
-6.19122e-12
-6.60649e-11
-6.8715e-12
-6.71266e-11
-7.60564e-12
-6.80438e-11
-8.39811e-12
-6.88161e-11
-9.25337e-12
-6.94438e-11
-1.01764e-11
-6.99267e-11
-1.11693e-11
-7.02689e-11
-1.48276e-11
-7.04765e-11
-2.97034e-11
-7.0581e-11
-3.08659e-11
-7.05674e-11
-3.20551e-11
-7.05605e-11
-3.32456e-11
-7.05617e-11
-3.43997e-11
-7.05676e-11
-3.55328e-11
-7.0535e-11
-3.66488e-11
-7.04833e-11
-3.77493e-11
-7.04187e-11
-3.88353e-11
-7.03423e-11
-3.99082e-11
-7.02534e-11
-4.09694e-11
-7.01513e-11
-4.20205e-11
-7.00351e-11
-4.30627e-11
-6.99043e-11
-4.40971e-11
-6.97586e-11
-4.51245e-11
-6.95979e-11
-4.61456e-11
-6.9422e-11
-4.71609e-11
-6.92311e-11
-4.81708e-11
-6.90251e-11
-6.88042e-11
-4.91756e-11
-2.52219e-15
-2.23447e-12
-1.33785e-14
-6.55914e-12
-3.49844e-14
-1.07404e-11
-6.92055e-14
-1.47787e-11
-1.17676e-13
-1.86743e-11
-1.81853e-13
-2.24273e-11
-2.63052e-13
-2.60377e-11
-3.62468e-13
-2.95057e-11
-4.81195e-13
-3.28312e-11
-6.20241e-13
-3.60142e-11
-7.80541e-13
-3.90548e-11
-9.62973e-13
-4.19528e-11
-1.16838e-12
-4.47081e-11
-1.39757e-12
-4.73207e-11
-1.65136e-12
-4.97903e-11
-1.93057e-12
-5.21167e-11
-2.23604e-12
-5.42999e-11
-2.56867e-12
-5.63396e-11
-2.92943e-12
-5.82354e-11
-3.31935e-12
-5.99871e-11
-3.73963e-12
-6.15943e-11
-4.19154e-12
-6.30567e-11
-4.6766e-12
-6.43738e-11
-5.19648e-12
-6.5545e-11
-5.75315e-12
-6.657e-11
-6.34874e-12
-6.74482e-11
-6.98553e-12
-6.81793e-11
-7.66624e-12
-6.8763e-11
-8.39647e-12
-6.91964e-11
-9.18847e-12
-6.94769e-11
-1.64664e-11
-6.9607e-11
-2.74206e-11
-6.96794e-11
-2.8348e-11
-6.96399e-11
-2.92862e-11
-6.96224e-11
-3.01977e-11
-6.96502e-11
-3.11767e-11
-6.95886e-11
-3.21986e-11
-6.95131e-11
-3.32518e-11
-6.94301e-11
-3.43298e-11
-6.93407e-11
-3.54274e-11
-6.92447e-11
-3.65401e-11
-6.91407e-11
-3.76641e-11
-6.90272e-11
-3.87963e-11
-6.89028e-11
-3.99341e-11
-6.87666e-11
-4.1075e-11
-6.86177e-11
-4.2217e-11
-6.84558e-11
-4.33585e-11
-6.82806e-11
-4.44978e-11
-6.80917e-11
-4.56338e-11
-6.78891e-11
-6.76728e-11
-4.67653e-11
-1.85672e-14
-2.21591e-12
-7.17482e-14
-6.50596e-12
-1.57802e-13
-1.06543e-11
-2.75507e-13
-1.4661e-11
-4.23869e-13
-1.8526e-11
-6.02111e-13
-2.2249e-11
-8.09642e-13
-2.58302e-11
-1.04598e-12
-2.92693e-11
-1.31073e-12
-3.25664e-11
-1.60352e-12
-3.57215e-11
-1.92396e-12
-3.87344e-11
-2.27166e-12
-4.16051e-11
-2.64614e-12
-4.43336e-11
-3.04686e-12
-4.69199e-11
-3.47317e-12
-4.9364e-11
-3.92424e-12
-5.16657e-11
-4.39914e-12
-5.3825e-11
-4.89665e-12
-5.58421e-11
-5.41539e-12
-5.77166e-11
-5.95355e-12
-5.94489e-11
-6.50915e-12
-6.10387e-11
-7.07958e-12
-6.24863e-11
-7.66198e-12
-6.37914e-11
-8.25269e-12
-6.49543e-11
-8.84777e-12
-6.59749e-11
-9.44287e-12
-6.68531e-11
-1.00337e-11
-6.75885e-11
-1.06164e-11
-6.81803e-11
-1.11828e-11
-6.863e-11
-1.17194e-11
-6.89403e-11
-3.55712e-11
-6.9123e-11
-3.62694e-11
-6.91328e-11
-3.67881e-11
-6.91213e-11
-3.74735e-11
-6.89369e-11
-3.83747e-11
-6.8749e-11
-3.92894e-11
-6.86739e-11
-4.0195e-11
-6.86075e-11
-4.10897e-11
-6.85354e-11
-4.19771e-11
-6.84534e-11
-4.2861e-11
-6.83608e-11
-4.37449e-11
-6.82569e-11
-4.46308e-11
-6.81413e-11
-4.55202e-11
-6.80134e-11
-4.64138e-11
-6.7873e-11
-4.73117e-11
-6.77198e-11
-4.82138e-11
-6.75537e-11
-4.91198e-11
-6.73746e-11
-5.00293e-11
-6.71823e-11
-5.09415e-11
-6.69769e-11
-6.67583e-11
-5.1856e-11
-2.4875e-14
-2.19103e-12
-9.64426e-14
-6.4344e-12
-2.12394e-13
-1.05384e-11
-3.70901e-13
-1.45025e-11
-5.70346e-13
-1.83265e-11
-8.09317e-13
-2.20101e-11
-1.08658e-12
-2.55529e-11
-1.40108e-12
-2.89548e-11
-1.75185e-12
-3.22157e-11
-2.13808e-12
-3.53352e-11
-2.55899e-12
-3.83135e-11
-3.01388e-12
-4.11502e-11
-3.50208e-12
-4.38454e-11
-4.02292e-12
-4.63991e-11
-4.57571e-12
-4.88112e-11
-5.15976e-12
-5.10816e-11
-5.77429e-12
-5.32105e-11
-6.41845e-12
-5.51979e-11
-7.09131e-12
-5.70438e-11
-7.7918e-12
-5.87484e-11
-8.51869e-12
-6.03118e-11
-9.27064e-12
-6.17343e-11
-1.0046e-11
-6.3016e-11
-1.0843e-11
-6.41573e-11
-1.16596e-11
-6.51583e-11
-1.24935e-11
-6.60193e-11
-1.33417e-11
-6.67403e-11
-1.42011e-11
-6.73209e-11
-1.50692e-11
-6.77619e-11
-1.62352e-11
-6.80628e-11
-3.58377e-11
-6.8243e-11
-3.6698e-11
-6.82725e-11
-3.75278e-11
-6.82914e-11
-3.82964e-11
-6.81683e-11
-3.90044e-11
-6.8041e-11
-3.97164e-11
-6.79619e-11
-4.04358e-11
-6.78882e-11
-4.11662e-11
-6.78049e-11
-4.19103e-11
-6.77093e-11
-4.26698e-11
-6.76013e-11
-4.34457e-11
-6.7481e-11
-4.42382e-11
-6.73487e-11
-4.50472e-11
-6.72044e-11
-4.58721e-11
-6.70481e-11
-4.67121e-11
-6.68799e-11
-4.75661e-11
-6.66997e-11
-4.8433e-11
-6.65077e-11
-4.93115e-11
-6.63038e-11
-5.02004e-11
-6.60879e-11
-6.58602e-11
-5.10985e-11
-1.43375e-14
-2.17669e-12
-5.83067e-14
-6.39043e-12
-1.3249e-13
-1.04642e-11
-2.37257e-13
-1.43978e-11
-3.72914e-13
-1.81909e-11
-5.39704e-13
-2.18433e-11
-7.37819e-13
-2.53548e-11
-9.67424e-13
-2.87252e-11
-1.22867e-12
-3.19544e-11
-1.52171e-12
-3.50422e-11
-1.84672e-12
-3.79884e-11
-2.2039e-12
-4.0793e-11
-2.59348e-12
-4.34559e-11
-3.01576e-12
-4.59768e-11
-3.47106e-12
-4.83559e-11
-3.95981e-12
-5.05929e-11
-4.48247e-12
-5.26878e-11
-5.03968e-12
-5.46407e-11
-5.63209e-12
-5.64514e-11
-6.2606e-12
-5.81199e-11
-6.92617e-12
-5.96463e-11
-7.63007e-12
-6.10304e-11
-8.37365e-12
-6.22724e-11
-9.15867e-12
-6.33723e-11
-9.98697e-12
-6.433e-11
-1.08607e-11
-6.51456e-11
-1.17821e-11
-6.58189e-11
-1.27529e-11
-6.635e-11
-1.37749e-11
-6.67399e-11
-1.64352e-11
-6.69919e-11
-3.40363e-11
-6.71356e-11
-3.51623e-11
-6.71465e-11
-3.62988e-11
-6.7155e-11
-3.74409e-11
-6.70262e-11
-3.8519e-11
-6.69629e-11
-3.95639e-11
-6.6917e-11
-4.0588e-11
-6.6864e-11
-4.15953e-11
-6.67977e-11
-4.25873e-11
-6.67172e-11
-4.3566e-11
-6.66226e-11
-4.4533e-11
-6.6514e-11
-4.54901e-11
-6.63917e-11
-4.64387e-11
-6.62558e-11
-4.738e-11
-6.61067e-11
-4.83153e-11
-6.59446e-11
-4.92453e-11
-6.57697e-11
-5.01708e-11
-6.55822e-11
-5.10924e-11
-6.53822e-11
-5.20106e-11
-6.51698e-11
-6.49452e-11
-5.29257e-11
-5.6878e-15
-2.17101e-12
-2.52448e-14
-6.37087e-12
-6.07739e-14
-1.04287e-11
-1.14097e-13
-1.43444e-11
-1.86864e-13
-1.81181e-11
-2.80563e-13
-2.17496e-11
-3.9653e-13
-2.52388e-11
-5.3598e-13
-2.85858e-11
-7.00022e-13
-3.17904e-11
-8.8969e-13
-3.48525e-11
-1.10596e-12
-3.77722e-11
-1.34979e-12
-4.05492e-11
-1.62211e-12
-4.31835e-11
-1.92387e-12
-4.56751e-11
-2.25606e-12
-4.80237e-11
-2.61971e-12
-5.02292e-11
-3.01594e-12
-5.22916e-11
-3.44597e-12
-5.42107e-11
-3.91112e-12
-5.59862e-11
-4.41289e-12
-5.76181e-11
-4.95293e-12
-5.91062e-11
-5.53313e-12
-6.04502e-11
-6.15558e-12
-6.165e-11
-6.82268e-12
-6.27052e-11
-7.53705e-12
-6.36156e-11
-8.30175e-12
-6.43809e-11
-9.12019e-12
-6.50005e-11
-9.99677e-12
-6.54735e-11
-1.09362e-11
-6.58005e-11
-1.59538e-11
-6.59873e-11
-3.09766e-11
-6.60792e-11
-3.20649e-11
-6.60581e-11
-3.31897e-11
-6.60302e-11
-3.43428e-11
-6.58731e-11
-3.54849e-11
-6.58207e-11
-3.662e-11
-6.57819e-11
-3.77488e-11
-6.57353e-11
-3.88708e-11
-6.56757e-11
-3.99854e-11
-6.56027e-11
-4.10921e-11
-6.55159e-11
-4.21907e-11
-6.54154e-11
-4.32813e-11
-6.53012e-11
-4.43636e-11
-6.51735e-11
-4.54375e-11
-6.50328e-11
-4.65031e-11
-6.4879e-11
-4.75601e-11
-6.47126e-11
-4.86087e-11
-6.45336e-11
-4.96488e-11
-6.43421e-11
-5.06804e-11
-6.41382e-11
-6.3922e-11
-5.17036e-11
-9.30103e-15
-2.1617e-12
-3.88794e-14
-6.34129e-12
-8.99855e-14
-1.03776e-11
-1.63586e-13
-1.42708e-11
-2.6052e-13
-1.80212e-11
-3.81518e-13
-2.16286e-11
-5.27216e-13
-2.50931e-11
-6.98183e-13
-2.84148e-11
-8.94914e-13
-3.15936e-11
-1.11786e-12
-3.46296e-11
-1.36743e-12
-3.75226e-11
-1.64399e-12
-4.02726e-11
-1.94789e-12
-4.28796e-11
-2.27948e-12
-4.53435e-11
-2.63908e-12
-4.76641e-11
-3.02702e-12
-4.98413e-11
-3.44364e-12
-5.1875e-11
-3.88931e-12
-5.3765e-11
-4.36438e-12
-5.55112e-11
-4.86931e-12
-5.71132e-11
-5.40449e-12
-5.8571e-11
-5.97049e-12
-5.98842e-11
-6.56778e-12
-6.10527e-11
-7.19706e-12
-6.20759e-11
-7.85885e-12
-6.29538e-11
-8.55383e-12
-6.36859e-11
-9.28255e-12
-6.42717e-11
-1.00471e-11
-6.47089e-11
-1.08524e-11
-6.49952e-11
-2.24294e-11
-6.51362e-11
-3.24711e-11
-6.51965e-11
-3.33678e-11
-6.51614e-11
-3.43045e-11
-6.50935e-11
-3.52249e-11
-6.49528e-11
-3.61712e-11
-6.48744e-11
-3.71441e-11
-6.48089e-11
-3.81402e-11
-6.47392e-11
-3.9155e-11
-6.46609e-11
-4.01841e-11
-6.45735e-11
-4.12236e-11
-6.44763e-11
-4.22702e-11
-6.43688e-11
-4.33208e-11
-6.42505e-11
-4.43734e-11
-6.4121e-11
-4.54259e-11
-6.39802e-11
-4.6477e-11
-6.3828e-11
-4.75253e-11
-6.36643e-11
-4.85698e-11
-6.3489e-11
-4.96097e-11
-6.33021e-11
-5.06444e-11
-6.31036e-11
-6.28933e-11
-5.16731e-11
-2.25066e-14
-2.1392e-12
-8.81624e-14
-6.27564e-12
-1.95281e-13
-1.02705e-11
-3.42318e-13
-1.41238e-11
-5.27861e-13
-1.78356e-11
-7.50606e-13
-2.14058e-11
-1.00935e-12
-2.48344e-11
-1.30296e-12
-2.81212e-11
-1.63037e-12
-3.12662e-11
-1.99053e-12
-3.42694e-11
-2.38246e-12
-3.71307e-11
-2.80512e-12
-3.985e-11
-3.25753e-12
-4.24272e-11
-3.7386e-12
-4.48624e-11
-4.24726e-12
-4.71554e-11
-4.78232e-12
-4.93062e-11
-5.34256e-12
-5.13148e-11
-5.92657e-12
-5.3181e-11
-6.53288e-12
-5.49048e-11
-7.15979e-12
-5.64863e-11
-7.80548e-12
-5.79253e-11
-8.4678e-12
-5.92219e-11
-9.14446e-12
-6.0376e-11
-9.83271e-12
-6.13877e-11
-1.05298e-11
-6.22568e-11
-1.12324e-11
-6.29832e-11
-1.1937e-11
-6.35672e-11
-1.26357e-11
-6.40101e-11
-1.36163e-11
-6.43163e-11
-3.79255e-11
-6.44953e-11
-3.86136e-11
-6.45084e-11
-3.92722e-11
-6.45028e-11
-3.99638e-11
-6.44018e-11
-4.06384e-11
-6.42782e-11
-4.1334e-11
-6.41788e-11
-4.20583e-11
-6.40846e-11
-4.28089e-11
-6.39886e-11
-4.35822e-11
-6.38877e-11
-4.4375e-11
-6.37807e-11
-4.51845e-11
-6.36668e-11
-4.60084e-11
-6.35449e-11
-4.68449e-11
-6.3414e-11
-4.76923e-11
-6.32736e-11
-4.85495e-11
-6.3123e-11
-4.94153e-11
-6.29622e-11
-5.02887e-11
-6.27909e-11
-5.11686e-11
-6.2609e-11
-5.20543e-11
-6.24165e-11
-5.29446e-11
-6.22132e-11
-6.19993e-11
-5.38386e-11
-2.78005e-14
-2.1114e-12
-1.06937e-13
-6.1965e-12
-2.346e-13
-1.01428e-11
-4.08782e-13
-1.39496e-11
-6.27678e-13
-1.76167e-11
-8.8966e-13
-2.11438e-11
-1.19326e-12
-2.45308e-11
-1.53713e-12
-2.77773e-11
-1.92006e-12
-3.08833e-11
-2.34092e-12
-3.38486e-11
-2.79866e-12
-3.66729e-11
-3.29228e-12
-3.93564e-11
-3.82083e-12
-4.18987e-11
-4.38336e-12
-4.42999e-11
-4.97896e-12
-4.65598e-11
-5.60667e-12
-4.86785e-11
-6.26552e-12
-5.06559e-11
-6.95449e-12
-5.2492e-11
-7.67249e-12
-5.41868e-11
-8.41834e-12
-5.57405e-11
-9.19078e-12
-5.71529e-11
-9.98838e-12
-5.84243e-11
-1.08096e-11
-5.95548e-11
-1.16528e-11
-6.05445e-11
-1.2516e-11
-6.13936e-11
-1.33968e-11
-6.21024e-11
-1.4293e-11
-6.2671e-11
-1.52028e-11
-6.31004e-11
-1.64793e-11
-6.33921e-11
-3.76281e-11
-6.3568e-11
-3.85409e-11
-6.35956e-11
-3.94292e-11
-6.36145e-11
-4.03232e-11
-6.35079e-11
-4.11828e-11
-6.34186e-11
-4.2022e-11
-6.33396e-11
-4.28496e-11
-6.3257e-11
-4.36709e-11
-6.31672e-11
-4.44889e-11
-6.30697e-11
-4.53055e-11
-6.29641e-11
-4.61226e-11
-6.28497e-11
-4.69416e-11
-6.27259e-11
-4.77635e-11
-6.25921e-11
-4.85891e-11
-6.2448e-11
-4.94188e-11
-6.22933e-11
-5.0253e-11
-6.21281e-11
-5.10915e-11
-6.19524e-11
-5.19344e-11
-6.17662e-11
-5.27814e-11
-6.15695e-11
-5.36321e-11
-6.13625e-11
-6.11453e-11
-5.44861e-11
-1.3038e-14
-2.09836e-12
-5.42323e-14
-6.1553e-12
-1.24655e-13
-1.00724e-11
-2.24856e-13
-1.38494e-11
-3.55319e-13
-1.74862e-11
-5.16479e-13
-2.09827e-11
-7.08714e-13
-2.43385e-11
-9.32376e-13
-2.75537e-11
-1.18779e-12
-3.06279e-11
-1.47526e-12
-3.35611e-11
-1.7951e-12
-3.63531e-11
-2.14762e-12
-3.90038e-11
-2.53315e-12
-4.15132e-11
-2.95206e-12
-4.3881e-11
-3.40471e-12
-4.61072e-11
-3.89157e-12
-4.81917e-11
-4.41309e-12
-5.01344e-11
-4.96987e-12
-5.19352e-11
-5.56251e-12
-5.35942e-11
-6.19179e-12
-5.51112e-11
-6.85851e-12
-5.64862e-11
-7.5637e-12
-5.77191e-11
-8.30846e-12
-5.881e-11
-9.09412e-12
-5.97588e-11
-9.92219e-12
-6.05655e-11
-1.07946e-11
-6.123e-11
-1.17133e-11
-6.17523e-11
-1.26801e-11
-6.21336e-11
-1.55517e-11
-6.23779e-11
-3.45422e-11
-6.25154e-11
-3.56152e-11
-6.25226e-11
-3.67018e-11
-6.25279e-11
-3.78192e-11
-6.23904e-11
-3.89151e-11
-6.23226e-11
-3.99904e-11
-6.22643e-11
-4.10461e-11
-6.22013e-11
-4.20832e-11
-6.21301e-11
-4.31029e-11
-6.205e-11
-4.41069e-11
-6.19601e-11
-4.5097e-11
-6.18596e-11
-4.6075e-11
-6.1748e-11
-4.70424e-11
-6.16247e-11
-4.80006e-11
-6.14898e-11
-4.89506e-11
-6.13433e-11
-4.98934e-11
-6.11853e-11
-5.08296e-11
-6.10161e-11
-5.17599e-11
-6.08359e-11
-5.26847e-11
-6.06447e-11
-5.36043e-11
-6.04429e-11
-6.02305e-11
-5.45191e-11
-5.1274e-15
-2.09323e-12
-2.27891e-14
-6.13764e-12
-5.52013e-14
-1.004e-11
-1.04431e-13
-1.38002e-11
-1.72339e-13
-1.74183e-11
-2.60598e-13
-2.08944e-11
-3.70733e-13
-2.42284e-11
-5.04131e-13
-2.74203e-11
-6.62081e-13
-3.04699e-11
-8.45784e-13
-3.33774e-11
-1.05639e-12
-3.61425e-11
-1.29502e-12
-3.87652e-11
-1.56277e-12
-4.12454e-11
-1.86075e-12
-4.3583e-11
-2.19013e-12
-4.57778e-11
-2.55212e-12
-4.78297e-11
-2.94802e-12
-4.97385e-11
-3.37924e-12
-5.1504e-11
-3.84734e-12
-5.31261e-11
-4.35404e-12
-5.46045e-11
-4.9013e-12
-5.59389e-11
-5.49124e-12
-5.71292e-11
-6.12637e-12
-5.81749e-11
-6.80937e-12
-5.90758e-11
-7.54339e-12
-5.98315e-11
-8.33197e-12
-6.04414e-11
-9.17994e-12
-6.09043e-11
-1.00932e-11
-6.12203e-11
-1.55122e-11
-6.13955e-11
-3.18129e-11
-6.14817e-11
-3.28803e-11
-6.14552e-11
-3.39872e-11
-6.14209e-11
-3.51182e-11
-6.12595e-11
-3.62552e-11
-6.11856e-11
-3.73931e-11
-6.11265e-11
-3.85285e-11
-6.10659e-11
-3.96591e-11
-6.09996e-11
-4.07827e-11
-6.09264e-11
-4.1898e-11
-6.08448e-11
-4.30042e-11
-6.07535e-11
-4.41007e-11
-6.06515e-11
-4.51871e-11
-6.05382e-11
-4.62634e-11
-6.04135e-11
-4.73294e-11
-6.02773e-11
-4.8385e-11
-6.01298e-11
-4.94302e-11
-5.9971e-11
-5.04649e-11
-5.98011e-11
-5.14894e-11
-5.96203e-11
-5.25036e-11
-5.94287e-11
-5.92265e-11
-5.35076e-11
-9.65786e-15
-4.07779e-14
-9.46461e-14
-1.72088e-13
-2.73847e-13
-4.00577e-13
-5.52869e-13
-7.31239e-13
-9.36156e-13
-1.16803e-12
-1.42723e-12
-1.71409e-12
-2.02891e-12
-2.37195e-12
-2.74349e-12
-3.14373e-12
-3.57291e-12
-4.03123e-12
-4.5189e-12
-5.03609e-12
-5.58304e-12
-6.15989e-12
-6.7669e-12
-7.40414e-12
-8.0718e-12
-8.76987e-12
-9.49939e-12
-1.0263e-11
-2.38062e-11
-3.42952e-11
-3.51396e-11
-3.6033e-11
-3.69051e-11
-3.77975e-11
-3.87116e-11
-3.96452e-11
-4.05959e-11
-4.15613e-11
-4.25388e-11
-4.35259e-11
-4.45202e-11
-4.55195e-11
-4.65216e-11
-4.75249e-11
-4.85278e-11
-4.9529e-11
-5.05273e-11
-5.1522e-11
-5.25121e-11
-5.3497e-11
-5.0658e-11
-7.63343e-11
-5.13833e-11
-7.60829e-11
-5.2107e-11
-7.58122e-11
-5.28281e-11
-7.55224e-11
-5.35462e-11
-7.52137e-11
-5.42606e-11
-7.48863e-11
-5.49707e-11
-7.45405e-11
-5.56761e-11
-7.41766e-11
-5.63762e-11
-7.3795e-11
-5.70707e-11
-7.33958e-11
-5.77591e-11
-7.29796e-11
-5.8441e-11
-7.25468e-11
-5.9116e-11
-7.20977e-11
-5.97837e-11
-7.16327e-11
-6.04438e-11
-7.11524e-11
-6.10958e-11
-7.06572e-11
-6.17395e-11
-7.01476e-11
-6.23745e-11
-6.96241e-11
-6.30005e-11
-6.90871e-11
-6.36171e-11
-6.85372e-11
-6.42241e-11
-6.7975e-11
-6.48211e-11
-6.74008e-11
-6.54079e-11
-6.68153e-11
-6.59842e-11
-6.6219e-11
-6.65497e-11
-6.56124e-11
-6.71041e-11
-6.49961e-11
-6.76472e-11
-6.43706e-11
-6.81787e-11
-6.37364e-11
-6.86985e-11
-6.30942e-11
-6.92063e-11
-6.24444e-11
-6.97019e-11
-6.17876e-11
-7.01851e-11
-6.11244e-11
-7.06558e-11
-6.04552e-11
-7.11137e-11
-5.97807e-11
-7.15588e-11
-5.91013e-11
-7.19909e-11
-5.84177e-11
-7.24098e-11
-5.77303e-11
-7.28155e-11
-5.70396e-11
-7.32078e-11
-5.63462e-11
-7.35867e-11
-5.56507e-11
-7.39521e-11
-5.49534e-11
-7.43039e-11
-5.42549e-11
-7.4642e-11
-5.35558e-11
-7.49665e-11
-5.28564e-11
-7.52773e-11
-5.21574e-11
-7.55744e-11
-5.14592e-11
-7.58577e-11
-5.07624e-11
-7.61274e-11
-5.00676e-11
-7.63833e-11
-4.93755e-11
-4.86892e-11
-7.66217e-11
-5.40537e-11
-7.54931e-11
-5.48966e-11
-7.524e-11
-5.57398e-11
-7.49689e-11
-5.65824e-11
-7.46798e-11
-5.74233e-11
-7.43728e-11
-5.82616e-11
-7.4048e-11
-5.90965e-11
-7.37056e-11
-5.99272e-11
-7.3346e-11
-6.07529e-11
-7.29692e-11
-6.1573e-11
-7.25757e-11
-6.23868e-11
-7.21658e-11
-6.31937e-11
-7.17399e-11
-6.3993e-11
-7.12983e-11
-6.47842e-11
-7.08415e-11
-6.55667e-11
-7.03699e-11
-6.63401e-11
-6.98839e-11
-6.71037e-11
-6.9384e-11
-6.78571e-11
-6.88707e-11
-6.85998e-11
-6.83444e-11
-6.93313e-11
-6.78057e-11
-7.00512e-11
-6.7255e-11
-7.07591e-11
-6.66929e-11
-7.14546e-11
-6.61199e-11
-7.21371e-11
-6.55364e-11
-7.28064e-11
-6.49431e-11
-7.34621e-11
-6.43404e-11
-7.41039e-11
-6.37288e-11
-7.47313e-11
-6.3109e-11
-7.53441e-11
-6.24814e-11
-7.5942e-11
-6.18465e-11
-7.65246e-11
-6.12049e-11
-7.70918e-11
-6.05572e-11
-7.76432e-11
-5.99038e-11
-7.81787e-11
-5.92452e-11
-7.86979e-11
-5.85821e-11
-7.92008e-11
-5.79148e-11
-7.96871e-11
-5.72439e-11
-8.01567e-11
-5.657e-11
-8.06094e-11
-5.58935e-11
-8.10451e-11
-5.5215e-11
-8.14636e-11
-5.45348e-11
-8.1865e-11
-5.38536e-11
-8.2249e-11
-5.31717e-11
-8.26157e-11
-5.24897e-11
-8.29649e-11
-5.18081e-11
-8.32967e-11
-5.11274e-11
-8.3611e-11
-5.04481e-11
-8.39079e-11
-4.97708e-11
-8.41873e-11
-4.90961e-11
-4.8424e-11
-8.44525e-11
-4.88115e-11
-7.45729e-11
-4.97324e-11
-7.43191e-11
-5.06533e-11
-7.40481e-11
-5.15732e-11
-7.37598e-11
-5.24915e-11
-7.34545e-11
-5.34075e-11
-7.31321e-11
-5.43203e-11
-7.27929e-11
-5.52292e-11
-7.24371e-11
-5.61335e-11
-7.20649e-11
-5.70325e-11
-7.16767e-11
-5.79255e-11
-7.12728e-11
-5.88119e-11
-7.08535e-11
-5.96911e-11
-7.04192e-11
-6.05623e-11
-6.99703e-11
-6.14251e-11
-6.95071e-11
-6.22788e-11
-6.90302e-11
-6.31229e-11
-6.85399e-11
-6.39568e-11
-6.80367e-11
-6.47802e-11
-6.75211e-11
-6.55924e-11
-6.69935e-11
-6.63931e-11
-6.64543e-11
-6.71818e-11
-6.59042e-11
-6.79581e-11
-6.53436e-11
-6.87215e-11
-6.4773e-11
-6.94718e-11
-6.41928e-11
-7.02085e-11
-6.36036e-11
-7.09314e-11
-6.3006e-11
-7.164e-11
-6.24004e-11
-7.23341e-11
-6.17873e-11
-7.30134e-11
-6.11672e-11
-7.36777e-11
-6.05407e-11
-7.43266e-11
-5.99082e-11
-7.496e-11
-5.92704e-11
-7.55776e-11
-5.86276e-11
-7.61792e-11
-5.79804e-11
-7.67647e-11
-5.73293e-11
-7.73339e-11
-5.66748e-11
-7.78866e-11
-5.60173e-11
-7.84227e-11
-5.53575e-11
-7.8942e-11
-5.46957e-11
-7.94445e-11
-5.40324e-11
-7.993e-11
-5.33681e-11
-8.03985e-11
-5.27032e-11
-8.08499e-11
-5.20383e-11
-8.12841e-11
-5.13739e-11
-8.17011e-11
-5.07104e-11
-8.21009e-11
-5.00483e-11
-8.24834e-11
-4.93883e-11
-8.28486e-11
-4.87309e-11
-4.80786e-11
-8.3194e-11
-5.10309e-11
-7.36863e-11
-5.19199e-11
-7.34302e-11
-5.28109e-11
-7.31571e-11
-5.37037e-11
-7.2867e-11
-5.45979e-11
-7.25603e-11
-5.54929e-11