/*--------------------------------*- C++ -*----------------------------------*\
| =========                 |                                                 |
| \\      /  F ield         | OpenFOAM: The Open Source CFD Toolbox           |
|  \\    /   O peration     | Version:  2.4.0                                 |
|   \\  /    A nd           | Web:      www.OpenFOAM.org                      |
|    \\/     M anipulation  |                                                 |
\*---------------------------------------------------------------------------*/
FoamFile
{
    version     2.0;
    format      ascii;
    class       volScalarField;
    location    "0.005";
    object      H;
}
// * * * * * * * * * * * * * * * * * * * * * * * * * * * * * * * * * * * * * //

dimensions      [0 2 -2 0 0 0 0];

internalField   nonuniform List<scalar> 
125
(
-10106.9
-5845.02
-171.191
-128
-127.617
-127.021
-126.217
-125.211
-124.011
-122.624
-121.059
-119.324
-117.429
-115.383
-113.197
-110.882
-108.447
-105.903
-103.263
-100.536
-97.7332
-94.8662
-91.9455
-88.9818
-85.9854
-82.9667
-79.9353
-76.9007
-73.8722
-70.8584
-67.8676
-64.9075
-61.9854
-59.1081
-56.2819
-53.5125
-50.8052
-48.1645
-45.5946
-43.0991
-40.6811
-38.3432
-36.0875
-33.9155
-31.8284
-29.827
-27.9115
-26.0819
-24.3376
-22.678
-6.01179e-26
-1.01161e-26
-2.57172e-28
-8.28025e-29
-4.22342e-29
-5.28747e-30
-3.61054e-31
-9.11177e-32
-2.06857e-32
-2.49282e-33
-2.80185e-34
-4.95095e-35
-8.53359e-36
-1.18192e-36
-1.49125e-37
-2.05775e-38
-3.30488e-39
-5.02243e-40
-6.26101e-41
-7.75901e-42
-1.21037e-42
-1.83849e-43
-2.26162e-44
-2.7587e-45
-4.08801e-46
-5.91418e-47
-7.30931e-48
-9.02321e-49
-1.25507e-49
-1.71559e-50
-2.13498e-51
-2.65163e-52
-3.48842e-53
-4.54231e-54
-5.63581e-55
-6.95476e-56
-8.76661e-57
-1.09801e-57
-1.34349e-58
-1.632e-59
-1.98992e-60
-2.41339e-61
-2.89174e-62
-3.43906e-63
-4.07565e-64
-4.80303e-65
-5.61586e-66
-6.51876e-67
-7.52016e-68
-8.62208e-69
-9.81958e-70
-1.11041e-70
-1.24683e-71
-1.39073e-72
-1.54098e-73
-1.69538e-74
-1.8517e-75
-2.00839e-76
-2.16356e-77
-2.31421e-78
-2.45746e-79
-2.59127e-80
-2.71399e-81
-2.84122e-82
-2.95362e-83
-3.03909e-84
-3.10969e-85
-3.17137e-86
-3.21237e-87
-3.22667e-88
-3.22175e-89
-3.20113e-90
-3.15978e-91
-3.11031e-92
-3.81886e-93
)
;

boundaryField
{
    BotWall
    {
        type            zeroGradient;
    }
    FreeStream
    {
        type            zeroGradient;
    }
    FrontNBack
    {
        type            empty;
    }
    LeftSide
    {
        type            symmetryPlane;
    }
    RightSide
    {
        type            symmetryPlane;
    }
    procBoundary2to0
    {
        type            processor;
        value           nonuniform List<scalar> 
75
(
-8.77497e-20
-1.61955e-20
-1.69084e-21
-2.41212e-22
-4.56584e-23
-6.01957e-24
-7.35839e-25
-1.23389e-25
-1.88491e-26
-2.30153e-27
-3.12792e-28
-4.92201e-29
-6.86576e-30
-8.73254e-31
-1.19349e-31
-1.69783e-32
-2.30814e-33
-3.05565e-34
-4.04081e-35
-5.36556e-36
-7.22756e-37
-9.62953e-38
-1.23546e-38
-1.58479e-39
-2.09996e-40
-2.75174e-41
-3.4652e-42
-4.36737e-43
-5.64356e-44
-7.21414e-45
-8.9671e-46
-1.11395e-46
-1.40004e-47
-1.74448e-48
-2.13794e-49
-2.61181e-50
-3.19644e-51
-3.88599e-52
-4.67866e-53
-5.60464e-54
-6.69122e-55
-7.94292e-56
-9.3665e-57
-1.09809e-57
-1.28032e-58
-1.48463e-59
-1.71196e-60
-1.96229e-61
-2.23557e-62
-2.5329e-63
-2.85442e-64
-3.19764e-65
-3.56023e-66
-3.9418e-67
-4.34055e-68
-4.7515e-69
-5.16999e-70
-5.59334e-71
-6.01748e-72
-6.43565e-73
-6.84162e-74
-7.23088e-75
-7.59808e-76
-7.93634e-77
-8.2396e-78
-8.5034e-79
-8.72322e-80
-8.89433e-81
-9.01313e-82
-9.07758e-83
-9.0863e-84
-9.03852e-85
-8.93543e-86
-8.81971e-87
-1.08748e-87
)
;
    }
    procBoundary2to1
    {
        type            processor;
        value           uniform -21.1019;
    }
    procBoundary2to3
    {
        type            processor;
        value           uniform 1.78735e-19;
    }
    procBoundary2to4
    {
        type            processor;
        value           nonuniform List<scalar> 
75
(
-10098.4
-5819.47
-166.238
-124.218
-123.786
-123.156
-122.334
-121.325
-120.136
-118.775
-117.247
-115.563
-113.73
-111.757
-109.653
-107.429
-105.093
-102.656
-100.129
-97.5201
-94.8405
-92.1003
-89.3092
-86.4772
-83.6139
-80.7287
-77.8308
-74.9289
-72.0316
-69.147
-66.2827
-63.4461
-60.6441
-57.883
-55.1687
-52.5066
-49.9018
-47.3588
-44.8813
-42.4731
-40.137
-37.8757
-35.6912
-33.5853
-31.559
-29.6133
-27.7485
-25.9649
-24.2619
-22.6392
-1.65428e-71
-1.43911e-72
1.26874e-74
-3.79054e-76
-1.68713e-75
-1.66727e-76
-3.99175e-78
-7.23536e-79
-2.04965e-79
-1.91406e-80
-1.0385e-81
-1.48393e-82
-2.43123e-83
-2.22097e-84
-1.71751e-85
-2.18504e-86
-2.75882e-87
-2.52909e-88
-2.30189e-89
-2.67748e-90
-2.94319e-91
-2.73728e-92
-2.64837e-93
-2.87733e-94
-3.75059e-95
)
;
    }
    procBoundary2to5
    {
        type            processor;
        value           nonuniform List<scalar> 
50
(
-7.12075e-20
-1.55685e-20
-1.46217e-21
-1.93393e-22
-4.21627e-23
-5.96829e-24
-7.30472e-25
-1.20093e-25
-1.82391e-26
-2.31295e-27
-3.4e-28
-5.32667e-29
-6.99158e-30
-9.03979e-31
-1.36904e-31
-1.97539e-32
-2.49794e-33
-3.30236e-34
-4.78386e-35
-6.52249e-36
-8.27136e-37
-1.08874e-37
-1.49163e-38
-1.96771e-39
-2.505e-40
-3.23659e-41
-4.24543e-42
-5.4763e-43
-6.9292e-44
-8.76828e-45
-1.11565e-45
-1.41041e-46
-1.75997e-47
-2.1843e-48
-2.71513e-49
-3.36222e-50
-4.12106e-51
-5.01919e-52
-6.10744e-53
-7.40091e-54
-8.89117e-55
-1.06159e-55
-1.2639e-56
-1.49718e-57
-1.75999e-58
-2.05644e-59
-2.39247e-60
-2.76742e-61
-3.17599e-62
-3.51392e-63
)
;
    }
}


// ************************************************************************* //
