/*--------------------------------*- C++ -*----------------------------------*\
| =========                 |                                                 |
| \\      /  F ield         | OpenFOAM: The Open Source CFD Toolbox           |
|  \\    /   O peration     | Version:  2.4.0                                 |
|   \\  /    A nd           | Web:      www.OpenFOAM.org                      |
|    \\/     M anipulation  |                                                 |
\*---------------------------------------------------------------------------*/
FoamFile
{
    version     2.0;
    format      ascii;
    class       surfaceScalarField;
    location    "0.005";
    object      phi;
}
// * * * * * * * * * * * * * * * * * * * * * * * * * * * * * * * * * * * * * //

dimensions      [0 3 -1 0 0 0 0];

internalField   nonuniform List<scalar> 
123
(
-6.46871e-16
-5.90349e-15
-5.58204e-09
-5.58204e-09
-5.58206e-09
-5.58208e-09
-5.5821e-09
-5.58214e-09
-5.58217e-09
-5.58222e-09
-5.58227e-09
-5.58232e-09
-5.58238e-09
-5.58244e-09
-5.5825e-09
-5.58257e-09
-5.58264e-09
-5.58272e-09
-5.58279e-09
-5.58287e-09
-5.58295e-09
-5.58303e-09
-5.58311e-09
-5.5832e-09
-5.58328e-09
-5.58336e-09
-5.58345e-09
-5.58353e-09
-5.58362e-09
-5.5837e-09
-5.58378e-09
-5.58386e-09
-5.58395e-09
-5.58403e-09
-5.58411e-09
-5.58418e-09
-5.58426e-09
-5.58434e-09
-5.58441e-09
-5.58449e-09
-5.58456e-09
-5.58463e-09
-5.5847e-09
-5.58477e-09
-5.58483e-09
-5.5849e-09
-5.58496e-09
-5.58503e-09
-5.58509e-09
-5.59607e-09
-5.59606e-09
-5.59605e-09
-5.59603e-09
-5.59602e-09
-5.596e-09
-5.59599e-09
-5.59598e-09
-5.59597e-09
-5.59595e-09
-5.59594e-09
-5.59593e-09
-5.59591e-09
-5.5959e-09
-5.59589e-09
-5.59588e-09
-5.59586e-09
-5.59585e-09
-5.59584e-09
-5.59583e-09
-5.59582e-09
-5.59581e-09
-5.59579e-09
-5.59578e-09
-5.59577e-09
-5.59576e-09
-5.59575e-09
-5.59574e-09
-5.59573e-09
-5.59572e-09
-5.5957e-09
-5.59569e-09
-5.59568e-09
-5.59567e-09
-5.59566e-09
-5.59565e-09
-5.59564e-09
-5.59563e-09
-5.59562e-09
-5.59561e-09
-5.5956e-09
-5.59559e-09
-5.59558e-09
-5.59557e-09
-5.59556e-09
-5.59555e-09
-5.59555e-09
-5.59554e-09
-5.59553e-09
-5.59552e-09
-5.59551e-09
-5.59551e-09
-5.5955e-09
-5.5955e-09
-5.59549e-09
-5.59549e-09
-5.59549e-09
-5.59548e-09
-5.59548e-09
-5.59548e-09
-5.59548e-09
-5.59548e-09
-5.59549e-09
-5.59549e-09
-5.59549e-09
-5.5955e-09
-5.5955e-09
-5.59551e-09
-5.59552e-09
-5.59552e-09
-5.59553e-09
-5.59554e-09
-5.59554e-09
-5.59555e-09
)
;

boundaryField
{
    BotWall
    {
        type            calculated;
        value           uniform 0;
    }
    FreeStream
    {
        type            calculated;
        value           uniform -5.59556e-09;
    }
    FrontNBack
    {
        type            empty;
        value           nonuniform 0();
    }
    LeftSide
    {
        type            symmetryPlane;
        value           uniform 0;
    }
    RightSide
    {
        type            symmetryPlane;
        value           nonuniform 0();
    }
    procBoundary2to0
    {
        type            processor;
        value           nonuniform List<scalar> 
75
(
-1.95005e-14
-1.93495e-14
-1.91983e-14
-1.90468e-14
-1.88951e-14
-1.87432e-14
-1.85912e-14
-1.84393e-14
-1.82874e-14
-1.81358e-14
-1.79844e-14
-1.78334e-14
-1.76829e-14
-1.75332e-14
-1.73843e-14
-1.72364e-14
-1.70898e-14
-1.69447e-14
-1.68012e-14
-1.66597e-14
-1.65203e-14
-1.63835e-14
-1.62493e-14
-1.61182e-14
-1.59903e-14
-1.58658e-14
-1.5745e-14
-1.56279e-14
-1.55145e-14
-1.54048e-14
-1.52985e-14
-1.51952e-14
-1.50942e-14
-1.49946e-14
-1.48952e-14
-1.47944e-14
-1.46903e-14
-1.45805e-14
-1.4462e-14
-1.43317e-14
-1.41855e-14
-1.40194e-14
-1.38286e-14
-1.3608e-14
-1.33523e-14
-1.30561e-14
-1.2714e-14
-1.23208e-14
-1.18717e-14
-1.13628e-14
-1.07908e-14
-1.01539e-14
-9.45148e-15
-8.68471e-15
-7.8565e-15
-6.97164e-15
-6.03692e-15
-5.06097e-15
-4.0542e-15
-3.0285e-15
-1.99697e-15
-9.7333e-16
2.87826e-17
9.90005e-16
1.90186e-15
2.75135e-15
3.52756e-15
4.22178e-15
4.82769e-15
5.34153e-15
5.76221e-15
6.09126e-15
6.33266e-15
6.49276e-15
6.56697e-15
)
;
    }
    procBoundary2to1
    {
        type            processor;
        value           uniform -5.58515e-09;
    }
    procBoundary2to3
    {
        type            processor;
        value           uniform 5.59609e-09;
    }
    procBoundary2to4
    {
        type            processor;
        value           nonuniform List<scalar> 
75
(
6.46867e-16
1.79341e-15
4.55602e-15
6.27627e-15
1.23795e-14
1.94346e-14
2.61421e-14
3.23872e-14
3.8205e-14
4.36329e-14
4.86808e-14
5.33518e-14
5.76503e-14
6.1583e-14
6.51576e-14
6.83827e-14
7.12679e-14
7.38233e-14
7.60602e-14
7.79903e-14
7.9626e-14
8.09805e-14
8.20671e-14
8.28998e-14
8.3493e-14
8.38612e-14
8.40191e-14
8.39815e-14
8.37634e-14
8.33794e-14
8.28442e-14
8.21723e-14
8.13777e-14
8.04743e-14
7.94755e-14
7.83941e-14
7.72426e-14
7.60328e-14
7.47759e-14
7.34825e-14
7.21625e-14
7.08253e-14
6.94794e-14
6.81326e-14
6.67921e-14
6.54645e-14
6.41554e-14
6.28701e-14
6.1613e-14
6.0388e-14
3.81659e-15
3.72918e-15
3.63112e-15
3.52244e-15
3.40346e-15
3.27482e-15
3.13753e-15
2.99293e-15
2.84268e-15
2.68875e-15
2.53329e-15
2.37865e-15
2.22724e-15
2.08147e-15
1.94363e-15
1.81582e-15
1.69986e-15
1.59722e-15
1.50895e-15
1.43565e-15
1.37745e-15
1.33405e-15
1.30472e-15
1.2883e-15
1.28123e-15
)
;
    }
    procBoundary2to5
    {
        type            processor;
        value           nonuniform List<scalar> 
50
(
5.53315e-15
5.4966e-15
5.45965e-15
5.4223e-15
5.38461e-15
5.34659e-15
5.30827e-15
5.2697e-15
5.23089e-15
5.1919e-15
5.15275e-15
5.1135e-15
5.07418e-15
5.03486e-15
4.99559e-15
4.95644e-15
4.91748e-15
4.87877e-15
4.84042e-15
4.80251e-15
4.76514e-15
4.7284e-15
4.69242e-15
4.65729e-15
4.62314e-15
4.59009e-15
4.55823e-15
4.52768e-15
4.49853e-15
4.47086e-15
4.44471e-15
4.42012e-15
4.39707e-15
4.37549e-15
4.35528e-15
4.33625e-15
4.31814e-15
4.30063e-15
4.28328e-15
4.26557e-15
4.24689e-15
4.22651e-15
4.20364e-15
4.17739e-15
4.14679e-15
4.11084e-15
4.06853e-15
4.01884e-15
3.96083e-15
3.89365e-15
)
;
    }
}


// ************************************************************************* //
