/*--------------------------------*- C++ -*----------------------------------*\
| =========                 |                                                 |
| \\      /  F ield         | OpenFOAM: The Open Source CFD Toolbox           |
|  \\    /   O peration     | Version:  2.4.0                                 |
|   \\  /    A nd           | Web:      www.OpenFOAM.org                      |
|    \\/     M anipulation  |                                                 |
\*---------------------------------------------------------------------------*/
FoamFile
{
    version     2.0;
    format      ascii;
    class       volScalarField;
    location    "0.01";
    object      p;
}
// * * * * * * * * * * * * * * * * * * * * * * * * * * * * * * * * * * * * * //

dimensions      [1 -1 -2 0 0 0 0];

internalField   nonuniform List<scalar> 
125
(
0.0474441
-0.0434603
0.198023
-1.11893
-0.14348
0.0352462
0.0107608
-0.00791469
-0.0117213
-0.0109741
-0.0104302
-0.0104554
-0.010649
-0.0108344
-0.0109984
-0.0111568
-0.0113161
-0.0114768
-0.0116384
-0.0118006
-0.0119633
-0.0121266
-0.0122905
-0.012455
-0.0126201
-0.0127858
-0.0129522
-0.0131191
-0.0132867
-0.0134548
-0.0136236
-0.0137931
-0.0139631
-0.0141338
-0.0143051
-0.014477
-0.0146495
-0.0148227
-0.0149966
-0.015171
-0.0153461
-0.0155219
-0.0156983
-0.0158754
-0.0160531
-0.0162314
-0.0164104
-0.0165901
-0.0167704
-0.0169514
-0.0171331
-0.0173154
-0.0174985
-0.0176821
-0.0178665
-0.0180515
-0.0182372
-0.0184236
-0.0186107
-0.0187985
-0.018987
-0.0191761
-0.019366
-0.0195565
-0.0197478
-0.0199397
-0.0201324
-0.0203258
-0.0205199
-0.0207147
-0.0209102
-0.0211064
-0.0213034
-0.0215011
-0.0216995
-0.0218986
-0.0220985
-0.0222991
-0.0225005
-0.0227026
-0.0229054
-0.023109
-0.0233133
-0.0235184
-0.0237242
-0.0239308
-0.0241382
-0.0243463
-0.0245552
-0.0247648
-0.0249753
-0.0251865
-0.0253984
-0.0256112
-0.0258247
-0.0260391
-0.0262542
-0.0264701
-0.0266868
-0.0269043
-0.0271226
-0.0273417
-0.0275616
-0.0277823
-0.0280039
-0.0282262
-0.0284494
-0.0286734
-0.0288982
-0.0291238
-0.0293503
-0.0295776
-0.0298057
-0.0300347
-0.0302645
-0.0304952
-0.0307267
-0.0309591
-0.0311923
-0.0314264
-0.0316614
-0.0318972
-0.0321338
-0.0323714
-0.0326098
)
;

boundaryField
{
    BotWall
    {
        type            calculated;
        value           uniform 0.0523875;
    }
    FreeStream
    {
        type            calculated;
        value           nonuniform 0();
    }
    FrontNBack
    {
        type            empty;
    }
    LeftSide
    {
        type            symmetryPlane;
    }
    RightSide
    {
        type            symmetryPlane;
    }
    procBoundary11to8
    {
        type            processor;
        value           nonuniform List<scalar> 
50
(
-0.0218986
-0.0220984
-0.022299
-0.0225004
-0.0227024
-0.0229053
-0.0231088
-0.0233131
-0.0235182
-0.023724
-0.0239306
-0.0241379
-0.024346
-0.0245549
-0.0247645
-0.0249749
-0.0251861
-0.0253981
-0.0256108
-0.0258244
-0.0260387
-0.0262538
-0.0264697
-0.0266863
-0.0269038
-0.0271221
-0.0273412
-0.0275611
-0.0277818
-0.0280033
-0.0282256
-0.0284488
-0.0286728
-0.0288976
-0.0291232
-0.0293496
-0.0295769
-0.029805
-0.030034
-0.0302638
-0.0304945
-0.030726
-0.0309583
-0.0311915
-0.0314256
-0.0316605
-0.0318963
-0.032133
-0.0323705
-0.0326089
)
;
    }
    procBoundary11to9
    {
        type            processor;
        value           nonuniform List<scalar> 
75
(
0.0468958
-0.043554
0.196114
-1.11169
-0.1427
0.0350501
0.0106842
-0.00791962
-0.0117139
-0.0109708
-0.0104295
-0.0104552
-0.0106486
-0.0108339
-0.010998
-0.0111564
-0.0113157
-0.0114764
-0.011638
-0.0118002
-0.0119629
-0.0121262
-0.0122901
-0.0124546
-0.0126197
-0.0127855
-0.0129518
-0.0131188
-0.0132863
-0.0134545
-0.0136233
-0.0137928
-0.0139628
-0.0141335
-0.0143048
-0.0144767
-0.0146493
-0.0148225
-0.0149963
-0.0151708
-0.0153459
-0.0155217
-0.0156981
-0.0158751
-0.0160529
-0.0162312
-0.0164102
-0.0165899
-0.0167703
-0.0169513
-0.017133
-0.0173153
-0.0174983
-0.017682
-0.0178664
-0.0180514
-0.0182371
-0.0184235
-0.0186106
-0.0187984
-0.0189869
-0.019176
-0.0193659
-0.0195565
-0.0197477
-0.0199397
-0.0201324
-0.0203257
-0.0205198
-0.0207146
-0.0209102
-0.0211064
-0.0213034
-0.0215011
-0.0216995
)
;
    }
    procBoundary11to10
    {
        type            processor;
        value           uniform -0.0328491;
    }
}


// ************************************************************************* //
