/*--------------------------------*- C++ -*----------------------------------*\
| =========                 |                                                 |
| \\      /  F ield         | OpenFOAM: The Open Source CFD Toolbox           |
|  \\    /   O peration     | Version:  2.4.0                                 |
|   \\  /    A nd           | Web:      www.OpenFOAM.org                      |
|    \\/     M anipulation  |                                                 |
\*---------------------------------------------------------------------------*/
FoamFile
{
    version     2.0;
    format      ascii;
    class       volScalarField;
    location    "3.8";
    object      p;
}
// * * * * * * * * * * * * * * * * * * * * * * * * * * * * * * * * * * * * * //

dimensions      [1 -1 -2 0 0 0 0];

internalField   nonuniform List<scalar> 
125
(
-0.0577028
-0.0577028
-0.0577028
-0.0577028
-0.0577028
-0.0588376
-0.0588376
-0.0588376
-0.0588376
-0.0588376
-0.0599851
-0.0599851
-0.0599851
-0.0599851
-0.0599851
-0.0611453
-0.0611453
-0.0611453
-0.0611453
-0.0611453
-0.0623185
-0.0623185
-0.0623185
-0.0623185
-0.0623185
-0.0635048
-0.0635048
-0.0635048
-0.0635048
-0.0635048
-0.0647044
-0.0647044
-0.0647044
-0.0647044
-0.0647044
-0.0659173
-0.0659173
-0.0659173
-0.0659173
-0.0659173
-0.0671437
-0.0671437
-0.0671437
-0.0671437
-0.0671437
-0.0683839
-0.0683839
-0.0683839
-0.0683839
-0.0683839
-0.0696379
-0.0696379
-0.0696379
-0.0696379
-0.0696379
-0.0709058
-0.0709058
-0.0709058
-0.0709058
-0.0709058
-0.0721879
-0.0721879
-0.0721879
-0.0721879
-0.0721879
-0.0734844
-0.0734844
-0.0734844
-0.0734844
-0.0734844
-0.0747953
-0.0747953
-0.0747953
-0.0747953
-0.0747953
-0.0761208
-0.0761208
-0.0761208
-0.0761208
-0.0761208
-0.0774611
-0.0774611
-0.0774611
-0.0774611
-0.0774611
-0.0788164
-0.0788164
-0.0788164
-0.0788164
-0.0788164
-0.0801868
-0.0801868
-0.0801868
-0.0801868
-0.0801868
-0.0815724
-0.0815724
-0.0815724
-0.0815724
-0.0815724
-0.0829736
-0.0829736
-0.0829736
-0.0829736
-0.0829736
-0.0843904
-0.0843904
-0.0843904
-0.0843904
-0.0843904
-0.085823
-0.085823
-0.085823
-0.085823
-0.085823
-0.0872715
-0.0872715
-0.0872715
-0.0872715
-0.0872715
-0.0887363
-0.0887363
-0.0887363
-0.0887363
-0.0887363
)
;

boundaryField
{
    BotWall
    {
        type            calculated;
        value           nonuniform 0();
    }
    FreeStream
    {
        type            calculated;
        value           nonuniform List<scalar> 5(-0.0894727 -0.0894727 -0.0894727 -0.0894727 -0.0894727);
    }
    FrontNBack
    {
        type            empty;
    }
    LeftSide
    {
        type            symmetryPlane;
    }
    RightSide
    {
        type            symmetryPlane;
    }
    procBoundary3to2
    {
        type            processor;
        value           nonuniform List<scalar> 5(-0.0565806 -0.0565806 -0.0565806 -0.0565806 -0.0565806);
    }
}


// ************************************************************************* //
