/*--------------------------------*- C++ -*----------------------------------*\
| =========                 |                                                 |
| \\      /  F ield         | OpenFOAM: The Open Source CFD Toolbox           |
|  \\    /   O peration     | Version:  2.4.0                                 |
|   \\  /    A nd           | Web:      www.OpenFOAM.org                      |
|    \\/     M anipulation  |                                                 |
\*---------------------------------------------------------------------------*/
FoamFile
{
    version     2.0;
    format      ascii;
    class       volScalarField;
    location    "4.3";
    object      H;
}
// * * * * * * * * * * * * * * * * * * * * * * * * * * * * * * * * * * * * * //

dimensions      [0 2 -2 0 0 0 0];

internalField   nonuniform List<scalar> 
8000
(
-11989.4
-11505.9
-11015.6
-10514.6
-9999.62
-9467.52
-8915.47
-8340.87
-7741.57
-7115.94
-6463.12
-5783.1
-5077.48
-4350.11
-3606.18
-2852.59
-2097.1
-1346.57
-576.867
-3.17746
-1.53971
-1.00749
-0.774811
-0.675143
-0.573169
-0.476765
-0.388956
-0.31057
-0.24699
-0.197507
-0.158923
-0.129111
-0.106199
-0.0887232
-0.075693
-0.0660887
-0.0590668
-0.0540395
-0.0504318
-0.0477118
-0.0458729
-0.0446767
-0.0438262
-0.0432788
-0.0429222
-0.0428557
-0.0429928
-0.0433447
-0.0438004
-0.0443447
-11976.8
-11467.4
-10949.3
-10417
-9865.85
-9290.94
-8687.77
-8052.09
-7380.25
-6669.51
-5918.48
-5127.75
-4300.52
-3443.06
-2562.58
-1658.44
-721.203
-3.99908
-0.0850368
-0.149145
-0.257955
-0.285292
-0.345168
-0.379787
-0.384967
-0.366679
-0.330466
-0.285551
-0.240046
-0.198416
-0.162761
-0.133726
-0.110751
-0.0930718
-0.079975
-0.0704837
-0.0638304
-0.0592913
-0.0562143
-0.054186
-0.0530918
-0.0526893
-0.0528412
-0.0532917
-0.0540382
-0.0549718
-0.0562301
-0.0577672
-0.0595221
-0.0614124
-11964.5
-11429.3
-10882
-10315.2
-9721.52
-9093.75
-8424.9
-7708.52
-6939.18
-6113.22
-5229.61
-4291.2
-3306.16
-2284.52
-1208.97
-6.54665
-0.142311
-0.41333
-0.47007
-0.398686
-0.357221
-0.336486
-0.329973
-0.326423
-0.317395
-0.299618
-0.274033
-0.24362
-0.211627
-0.181021
-0.153662
-0.130634
-0.111966
-0.0972767
-0.0862405
-0.0782779
-0.0727454
-0.0691856
-0.066929
-0.0656734
-0.0650664
-0.065171
-0.0657418
-0.0666907
-0.0679166
-0.0693256
-0.0709077
-0.0725983
-0.0744863
-0.0766046
-11946.5
-11373.5
-10783.2
-10164.9
-9508.58
-8804.41
-8043.38
-7217.77
-6321.87
-5352.69
-4310.82
-3203.8
-2055.77
-916.643
-6.42249
-0.400691
-0.388457
-0.420276
-0.433429
-0.429437
-0.415418
-0.397609
-0.379081
-0.359324
-0.337258
-0.31226
-0.28467
-0.255753
-0.226803
-0.199098
-0.173798
-0.151632
-0.1331
-0.118005
-0.106062
-0.096905
-0.090152
-0.0854114
-0.08229
-0.0803387
-0.0790485
-0.0784005
-0.0783712
-0.0787706
-0.079436
-0.0802613
-0.0812632
-0.0823906
-0.0836176
-0.084972
-11925.1
-11308.2
-10670
-9997.32
-9277.79
-8499.84
-7653.13
-6729.02
-5721.08
-4626.42
-3451.4
-2224.08
-1000.13
-7.62511
-5.89281
-4.46659
-3.71528
-3.04741
-2.47774
-2.004
-1.63233
-1.34179
-1.1147
-0.937322
-0.797905
-0.686636
-0.596167
-0.521368
-0.458312
-0.405158
-0.359618
-0.320645
-0.287527
-0.259202
-0.234879
-0.214006
-0.196343
-0.181574
-0.169289
-0.159118
-0.150532
-0.143093
-0.136592
-0.131174
-0.126715
-0.123063
-0.120073
-0.117585
-0.115442
-0.113644
-11926.2
-11312.8
-10681.8
-10020.4
-9315.61
-8553.9
-7721.83
-6806.74
-5799.03
-4699.74
-3523.7
-2309.93
-1124.87
-9.75632
-1.29974
-2.36131
-1.88263
-1.75286
-1.63338
-1.54923
-1.46416
-1.36804
-1.26468
-1.15845
-1.05388
-0.954914
-0.864418
-0.782903
-0.710644
-0.647429
-0.592497
-0.544585
-0.502674
-0.465673
-0.43189
-0.401835
-0.375235
-0.351752
-0.331122
-0.312796
-0.296659
-0.281642
-0.267499
-0.254774
-0.243474
-0.233436
-0.224442
-0.216278
-0.208847
-0.201958
-11964.5
-11431.5
-10891.2
-10336.6
-9759.79
-9152.14
-8504.91
-7809.89
-7060.06
-6250.23
-5377.58
-4439.97
-3431.24
-2336.28
-1255.81
-11.0156
-1.09241
-0.335576
-0.553516
-0.739008
-0.85433
-0.938656
-0.989316
-1.00328
-0.987045
-0.951184
-0.904808
-0.85481
-0.805662
-0.75891
-0.71511
-0.674465
-0.636997
-0.601986
-0.569584
-0.539837
-0.512571
-0.487566
-0.464591
-0.443353
-0.423577
-0.40443
-0.386584
-0.370166
-0.355051
-0.34109
-0.328169
-0.316188
-0.304647
-0.29368
-11997.8
-11532.8
-11064.9
-10590.7
-10105.6
-9604.88
-9082.95
-8533.98
-7951.72
-7329.62
-6660.79
-5939.71
-5162.99
-4328.05
-3428.58
-2466.38
-1489.71
-818.522
-5.74865
-0.245261
-0.564865
-0.323408
-0.511633
-0.60135
-0.679006
-0.734324
-0.760591
-0.768711
-0.762792
-0.747908
-0.727691
-0.704871
-0.68128
-0.657971
-0.635478
-0.613978
-0.593529
-0.574117
-0.555633
-0.537758
-0.520536
-0.503912
-0.487912
-0.472526
-0.457757
-0.44357
-0.429697
-0.416176
-0.40304
-0.390419
-12034.1
-11642.5
-11250.7
-10858
-10463
-10064.2
-9659.68
-9247.14
-8824.15
-8388
-7935.61
-7463.45
-6967.35
-6442.1
-5880.69
-5272.99
-4604.71
-3864.02
-3049.3
-2169.31
-1275.93
-643.531
-4.5898
-0.135254
-0.135696
-0.223728
-0.19843
-0.307826
-0.367534
-0.410277
-0.445003
-0.476533
-0.500759
-0.518078
-0.529302
-0.535394
-0.537399
-0.535978
-0.531643
-0.525005
-0.516704
-0.507223
-0.49693
-0.486088
-0.474835
-0.463356
-0.451726
-0.44002
-0.428324
-0.416662
-12054.3
-11702.8
-11351.3
-11000
-10648.6
-10297.3
-9945.89
-9594.17
-9241.85
-8888.45
-8533.23
-8175.13
-7812.64
-7443.74
-7065.81
-6675.59
-6269.17
-5842.07
-5389.46
-4906.16
-4386
-3818.99
-3190.62
-2493.22
-1727.2
-937.917
-353.096
-2.81971
-0.078348
-0.0489894
-0.0034759
-0.0621254
-0.119106
-0.166783
-0.202015
-0.232247
-0.257493
-0.278668
-0.297145
-0.31292
-0.326033
-0.336827
-0.345734
-0.352876
-0.35828
-0.362025
-0.364132
-0.364593
-0.363396
-0.360512
-12041
-11662
-11280.9
-10897.4
-10511.8
-10124.7
-9737.35
-9351.11
-8967.37
-8587.51
-8212.7
-7843.85
-7481.5
-7125.75
-6776.24
-6432.07
-6091.66
-5752.8
-5412.63
-5067.63
-4713.66
-4346.02
-3959.62
-3549.23
-3109.81
-2636.56
-2131.83
-1605.3
-1061.64
-503.51
-3.78446
-0.0585067
-0.0223762
-0.0165254
-0.0443375
-0.0611159
-0.0804645
-0.100032
-0.117511
-0.136281
-0.155994
-0.175548
-0.194781
-0.213427
-0.231012
-0.246997
-0.261012
-0.272791
-0.282129
-0.288826
-12010.8
-11571.3
-11129.5
-10684.9
-10238.2
-9790.61
-9343.87
-8900.1
-8461.52
-8030.39
-7608.82
-7198.66
-6801.43
-6418.2
-6049.61
-5695.78
-5356.33
-5030.16
-4716.37
-4413.28
-4118.76
-3830.57
-3546.43
-3264.17
-2981.56
-2696.4
-2406.72
-2110.98
-1808.19
-1497.85
-1183.62
-873.484
-569.714
-267.917
-1.924
-0.0297746
-0.0110954
-0.00792231
-0.0251463
-0.0407804
-0.0586271
-0.0754825
-0.0935927
-0.113447
-0.133563
-0.153505
-0.172514
-0.190003
-0.205511
-0.218697
-11982.6
-11487.1
-10990.4
-10492.4
-9994.17
-9497.06
-9003.06
-8514.44
-8033.63
-7563.09
-7105.19
-6662.07
-6235.57
-5827.17
-5437.97
-5068.6
-4719.3
-4389.86
-4079.59
-3787.57
-3513.01
-3254.41
-3010.21
-2778.76
-2558.33
-2347.2
-2143.67
-1946.18
-1753.31
-1563.85
-1376.81
-1191.34
-1006.67
-822.348
-638.521
-458.176
-284.277
-120.732
-0.892248
-0.0127677
-0.00398536
-0.0144169
-0.0277588
-0.043331
-0.0587066
-0.0753072
-0.0933639
-0.111897
-0.129996
-0.146964
-11962.2
-11426.2
-10889.7
-10353.2
-9817.9
-9285.36
-8757.65
-8237.1
-7726.17
-7227.35
-6743
-6275.33
-5826.27
-5397.42
-4990.03
-4604.95
-4242.67
-3903.3
-3586.6
-3292.02
-3018.75
-2765.74
-2531.78
-2315.51
-2115.49
-1930.22
-1758.2
-1597.9
-1447.66
-1306.23
-1172.63
-1045.58
-924.028
-807.073
-693.948
-584.033
-476.942
-372.741
-272.217
-176.535
-86.32
-0.585742
-0.0108043
-0.00266097
-0.0123969
-0.0243692
-0.0383869
-0.0524137
-0.067556
-0.0839809
-11948.8
-11386.3
-10824.1
-10263.1
-9704.61
-9150.45
-8602.72
-8063.71
-7535.8
-7021.32
-6522.51
-6041.41
-5579.8
-5139.18
-4720.71
-4325.23
-3953.26
-3604.98
-3280.3
-2978.84
-2700
-2442.98
-2206.8
-1990.34
-1792.41
-1611.73
-1446.98
-1296.83
-1159.98
-1035.15
-921.117
-816.715
-720.869
-632.598
-551.023
-475.382
-405.028
-339.421
-278.106
-220.676
-166.759
-117.069
-72.6043
-34.1973
-0.215681
-0.00891609
-0.0183596
-0.0232622
-0.0327505
-0.0429641
-11946.5
-11380
-10815.2
-10253.3
-9696.09
-9145.21
-8602.58
-8070.1
-7549.68
-7043.11
-6552.09
-6078.12
-5622.5
-5186.33
-4770.48
-4375.59
-4002.09
-3650.22
-3320.01
-3011.3
-2723.81
-2457.08
-2210.53
-1983.46
-1775.08
-1584.51
-1410.79
-1252.92
-1109.88
-980.6
-864.026
-759.111
-664.829
-580.193
-504.258
-436.127
-374.959
-319.966
-270.427
-225.695
-185.21
-148.49
-115.089
-84.487
-55.9592
-28.396
-0.168003
-0.00804239
-0.014941
-0.0172689
-11956.8
-11411.3
-10868.5
-10330.1
-9797.74
-9273.16
-8757.83
-8253.16
-7760.44
-7280.78
-6815.16
-6364.38
-5929.14
-5509.99
-5107.37
-4721.63
-4353.07
-4001.88
-3668.21
-3352.16
-3053.76
-2772.99
-2509.75
-2263.88
-2035.14
-1823.2
-1627.65
-1447.98
-1283.62
-1133.91
-998.094
-875.397
-764.974
-665.961
-577.481
-498.657
-428.618
-366.506
-311.488
-262.764
-219.569
-181.185
-146.952
-116.294
-88.7486
-63.9421
-41.4589
-20.6636
-0.120572
-0.00547039
-11969
-11448.3
-10931.2
-10420.1
-9916.76
-9422.75
-8939.3
-8467.33
-8007.45
-7560.04
-7125.29
-6703.26
-6293.92
-5897.2
-5513.07
-5141.5
-4782.52
-4436.24
-4102.82
-3782.51
-3475.57
-3182.32
-2903.09
-2638.21
-2387.96
-2152.57
-1932.2
-1726.91
-1536.65
-1361.26
-1200.45
-1053.83
-920.873
-800.97
-693.416
-597.44
-512.218
-436.893
-370.595
-312.456
-261.624
-217.274
-178.615
-144.887
-115.356
-89.3222
-66.1725
-45.5608
-27.6387
-12.9635
-11952.8
-11400.9
-10857.3
-10326.6
-9812.1
-9315.42
-8837.16
-8377.02
-7934.2
-7507.6
-7096.01
-6698.23
-6313.17
-5939.88
-5577.62
-5225.81
-4884.11
-4552.33
-4230.5
-3918.79
-3617.51
-3327.09
-3048
-2780.81
-2526.07
-2284.3
-2055.99
-1841.54
-1641.23
-1455.24
-1283.61
-1126.2
-982.775
-852.929
-736.14
-631.773
-539.1
-457.32
-385.584
-323.014
-268.722
-221.831
-181.484
-146.855
-117.151
-91.6121
-69.5071
-50.1315
-32.789
-16.7308
-11763.8
-10981.2
-10304.2
-9704.31
-9162.53
-8665.54
-8203.77
-7770.21
-7359.57
-6967.86
-6591.99
-6229.6
-5878.88
-5538.48
-5207.42
-4885.04
-4570.95
-4265.01
-3967.27
-3677.97
-3397.49
-3126.33
-2865.06
-2614.3
-2374.69
-2146.84
-1931.31
-1728.58
-1539.02
-1362.88
-1200.25
-1051.1
-915.226
-792.301
-681.855
-583.308
-495.979
-419.113
-351.903
-293.507
-243.076
-199.764
-162.748
-131.236
-104.471
-81.7294
-62.316
-45.5535
-30.7713
-17.2763
-0.0449666
-0.0456692
-0.0465386
-0.0475159
-0.0486063
-0.049807
-0.0511827
-0.0526702
-0.0541612
-0.055756
-0.0573114
-0.0590471
-0.0608979
-0.0628222
-0.0646701
-0.0664319
-0.0682191
-0.0700043
-0.0717334
-0.0732432
-0.0747017
-0.0760516
-0.0773019
-0.0786765
-0.0800624
-0.0814527
-0.0828289
-0.0841645
-0.0854406
-0.0866418
-0.0877314
-0.0886735
-0.089502
-0.0902139
-0.0907825
-0.0911926
-0.0914589
-0.0915997
-0.0915424
-0.0912913
-0.0908383
-0.0902938
-0.0896574
-0.088896
-0.0880189
-0.0870511
-0.0860106
-0.0849225
-0.0838093
-0.0826566
-0.063357
-0.0653664
-0.0674624
-0.0695623
-0.0714774
-0.0733863
-0.0750717
-0.0768758
-0.078738
-0.0806541
-0.0825444
-0.0842992
-0.0861351
-0.0880166
-0.0899062
-0.091826
-0.0937902
-0.0957845
-0.0977588
-0.0996595
-0.101451
-0.103121
-0.104643
-0.105925
-0.107037
-0.10788
-0.108669
-0.109355
-0.109922
-0.110374
-0.1107
-0.110878
-0.110906
-0.110763
-0.110446
-0.109955
-0.109284
-0.108437
-0.107394
-0.10617
-0.104787
-0.103257
-0.101594
-0.0998185
-0.0979331
-0.0959654
-0.093932
-0.0918795
-0.0898322
-0.0878215
-0.0788786
-0.081277
-0.0837466
-0.0862211
-0.0886276
-0.0909042
-0.0929854
-0.0947683
-0.0964669
-0.0981123
-0.0996796
-0.101178
-0.102611
-0.104026
-0.105455
-0.106849
-0.108218
-0.109609
-0.110995
-0.112313
-0.113606
-0.114863
-0.116098
-0.1173
-0.118454
-0.11953
-0.12048
-0.12128
-0.121889
-0.122276
-0.122418
-0.122299
-0.1219
-0.121216
-0.120238
-0.11897
-0.117425
-0.115639
-0.113603
-0.111315
-0.108829
-0.10615
-0.103311
-0.100372
-0.0973648
-0.0943184
-0.0912757
-0.0882798
-0.085376
-0.0826169
-0.0863843
-0.0878491
-0.0892882
-0.0907455
-0.0922135
-0.0936409
-0.095046
-0.0963933
-0.0976307
-0.0988133
-0.100005
-0.101229
-0.102493
-0.103826
-0.10524
-0.106745
-0.108349
-0.110054
-0.111882
-0.113791
-0.115725
-0.117665
-0.119598
-0.121479
-0.123286
-0.124919
-0.126256
-0.127246
-0.127887
-0.128137
-0.127951
-0.127312
-0.126185
-0.124575
-0.12249
-0.119982
-0.117087
-0.113865
-0.110392
-0.106755
-0.102933
-0.0990189
-0.0950456
-0.0910519
-0.0871347
-0.0833407
-0.0797097
-0.0762801
-0.073091
-0.0701805
-0.112065
-0.110739
-0.109657
-0.108739
-0.108015
-0.1073
-0.106674
-0.106087
-0.105637
-0.105404
-0.105415
-0.105798
-0.106591
-0.107749
-0.109252
-0.111085
-0.113262
-0.115685
-0.118289
-0.120906
-0.123562
-0.126157
-0.128696
-0.13105
-0.133044
-0.134579
-0.135547
-0.135798
-0.135335
-0.134145
-0.13229
-0.129764
-0.126599
-0.122908
-0.118643
-0.113953
-0.108977
-0.103826
-0.0986511
-0.0935077
-0.0884682
-0.0836033
-0.0789611
-0.0746127
-0.0705931
-0.0669332
-0.0636424
-0.0607182
-0.0581544
-0.0559295
-0.195483
-0.189582
-0.184062
-0.17896
-0.174354
-0.1702
-0.166368
-0.1629
-0.159816
-0.157091
-0.154594
-0.152521
-0.150789
-0.149564
-0.149086
-0.149279
-0.149952
-0.150947
-0.152109
-0.153195
-0.154128
-0.154787
-0.1551
-0.154852
-0.153871
-0.152084
-0.149456
-0.145827
-0.141332
-0.136096
-0.13021
-0.123826
-0.117128
-0.11026
-0.103297
-0.0963945
-0.0897325
-0.0834538
-0.0776181
-0.0722915
-0.0674872
-0.0632533
-0.0595805
-0.0564077
-0.0537074
-0.051452
-0.0495975
-0.0480762
-0.0468526
-0.0458784
-0.283227
-0.273495
-0.264599
-0.25655
-0.249321
-0.242841
-0.237065
-0.231925
-0.227158
-0.222877
-0.219036
-0.215744
-0.212978
-0.210562
-0.208258
-0.205947
-0.203654
-0.201192
-0.19828
-0.194697
-0.190407
-0.185284
-0.179198
-0.172148
-0.164178
-0.155364
-0.145862
-0.13594
-0.125847
-0.115769
-0.105949
-0.0966816
-0.0881078
-0.0803462
-0.0734414
-0.067377
-0.0621774
-0.0578051
-0.054184
-0.0512388
-0.0488856
-0.0470463
-0.0456371
-0.044576
-0.0437849
-0.04321
-0.0428102
-0.0425531
-0.0424023
-0.042335
-0.378471
-0.367251
-0.356774
-0.347009
-0.337921
-0.329451
-0.321216
-0.313238
-0.305488
-0.298036
-0.290855
-0.283807
-0.276671
-0.269278
-0.261219
-0.252373
-0.242543
-0.231774
-0.220093
-0.207592
-0.194266
-0.180216
-0.165572
-0.150712
-0.136026
-0.121903
-0.108709
-0.0967008
-0.0860257
-0.0766968
-0.0687379
-0.0621406
-0.0568265
-0.0526435
-0.0494561
-0.0470518
-0.0452702
-0.0439728
-0.0430447
-0.0424168
-0.0420107
-0.0417741
-0.0416458
-0.0415861
-0.041572
-0.0416096
-0.041678
-0.0417746
-0.0418676
-0.0419579
-0.405088
-0.393546
-0.381959
-0.370333
-0.358588
-0.346725
-0.334694
-0.32247
-0.309849
-0.296841
-0.283353
-0.269332
-0.254695
-0.239314
-0.223217
-0.206603
-0.18958
-0.172371
-0.155287
-0.138767
-0.123358
-0.109345
-0.096813
-0.0856806
-0.0760248
-0.067836
-0.0610458
-0.0555927
-0.0513463
-0.0481224
-0.0457277
-0.0440124
-0.0428198
-0.0420194
-0.0414966
-0.0411669
-0.0409952
-0.0409221
-0.0409144
-0.0409575
-0.0410326
-0.0411065
-0.041177
-0.0412492
-0.0413366
-0.0414341
-0.0415372
-0.0416199
-0.0416862
-0.0417587
-0.355908
-0.349557
-0.34152
-0.331822
-0.320516
-0.307704
-0.293481
-0.277931
-0.26118
-0.243606
-0.225587
-0.207322
-0.189083
-0.171068
-0.15349
-0.136736
-0.121027
-0.106515
-0.0933165
-0.0817404
-0.0719289
-0.0638666
-0.0574002
-0.0523292
-0.0484579
-0.0456398
-0.0436957
-0.0423844
-0.0415127
-0.0409327
-0.0405754
-0.0403905
-0.0403133
-0.0403142
-0.0403518
-0.0403958
-0.0404693
-0.0405474
-0.0406295
-0.0407229
-0.0408009
-0.0408657
-0.0409171
-0.0409826
-0.0410513
-0.0411314
-0.0411991
-0.0412452
-0.0412926
-0.0413558
-0.292692
-0.29359
-0.291434
-0.286225
-0.278083
-0.26722
-0.253895
-0.238448
-0.221609
-0.20392
-0.185816
-0.167762
-0.150172
-0.133384
-0.117637
-0.103317
-0.0905637
-0.0794289
-0.0699222
-0.0621179
-0.05588
-0.0510207
-0.0473443
-0.0446487
-0.0427564
-0.0414756
-0.0406567
-0.0401757
-0.0399315
-0.0398268
-0.0397872
-0.0398211
-0.0398809
-0.0399606
-0.0400381
-0.0400971
-0.0401691
-0.0402356
-0.0402989
-0.040365
-0.0404248
-0.0404627
-0.0404971
-0.0405414
-0.0405877
-0.040646
-0.0406957
-0.0407234
-0.0407565
-0.0408056
-0.229312
-0.237112
-0.241885
-0.243464
-0.241774
-0.236876
-0.228919
-0.218218
-0.205257
-0.190586
-0.174751
-0.15834
-0.141944
-0.126016
-0.110929
-0.0972505
-0.0852212
-0.0748536
-0.0661324
-0.0590313
-0.0534194
-0.0491218
-0.0458966
-0.043547
-0.0419057
-0.0408153
-0.0401221
-0.0397136
-0.0395117
-0.0394302
-0.0394013
-0.0394408
-0.0395052
-0.0395826
-0.039651
-0.0396972
-0.039755
-0.0398115
-0.0398589
-0.0398867
-0.0399269
-0.0399586
-0.0399702
-0.0399922
-0.0400173
-0.0400552
-0.0400857
-0.0401011
-0.0401139
-0.0401465
-0.162226
-0.175354
-0.186049
-0.194086
-0.199287
-0.20154
-0.200843
-0.197207
-0.190868
-0.18215
-0.17144
-0.159222
-0.146027
-0.132401
-0.118799
-0.105695
-0.0935022
-0.0824779
-0.0728067
-0.0645733
-0.057789
-0.0523839
-0.0482193
-0.0451395
-0.0429355
-0.0413997
-0.040354
-0.0396936
-0.0392966
-0.039079
-0.0389821
-0.0389724
-0.0390035
-0.0390543
-0.0391033
-0.0391654
-0.0392259
-0.0392812
-0.0393158
-0.0393294
-0.0393474
-0.0393673
-0.0393605
-0.0393594
-0.0393598
-0.0393708
-0.0393868
-0.0393882
-0.0393847
-0.0393966
-0.100633
-0.116465
-0.130712
-0.142905
-0.152789
-0.160209
-0.165083
-0.16738
-0.167127
-0.164459
-0.159583
-0.152768
-0.144355
-0.134744
-0.124349
-0.113605
-0.102889
-0.092582
-0.0829575
-0.0742598
-0.0666244
-0.0600766
-0.0546394
-0.0502574
-0.0468389
-0.0442244
-0.0422766
-0.0408916
-0.0399338
-0.0392834
-0.038875
-0.0386431
-0.0385273
-0.0384562
-0.0384482
-0.0384704
-0.0385157
-0.0385601
-0.0385992
-0.0386203
-0.0386482
-0.0386582
-0.0386349
-0.038622
-0.0386121
-0.0386066
-0.0385998
-0.0385768
-0.0385778
-0.0385878
-0.0534714
-0.0667274
-0.0808351
-0.0943112
-0.106422
-0.116777
-0.125174
-0.131518
-0.135799
-0.138041
-0.138334
-0.136817
-0.133673
-0.129118
-0.123399
-0.116803
-0.109611
-0.102065
-0.094431
-0.0869536
-0.0798628
-0.0732736
-0.0672814
-0.0619414
-0.0573019
-0.0533503
-0.0500222
-0.0472675
-0.0450217
-0.0432348
-0.0418401
-0.0407678
-0.0399366
-0.0393093
-0.0388324
-0.0384783
-0.038235
-0.0380508
-0.0379159
-0.0378332
-0.0377977
-0.0377866
-0.0377851
-0.0377769
-0.0377768
-0.0377821
-0.0377899
-0.0377776
-0.0377585
-0.0377527
-0.0239994
-0.0317443
-0.040485
-0.0516752
-0.0631128
-0.0738725
-0.083552
-0.0919104
-0.0988211
-0.104229
-0.108157
-0.110658
-0.111813
-0.111718
-0.110483
-0.108252
-0.105205
-0.10148
-0.0972091
-0.0925971
-0.0878059
-0.0829847
-0.0782177
-0.0736123
-0.069234
-0.0651743
-0.0614749
-0.0580938
-0.0550593
-0.0523795
-0.0500441
-0.0480227
-0.0462936
-0.0448027
-0.0435344
-0.0424499
-0.0415356
-0.0407769
-0.0401144
-0.0395627
-0.0391043
-0.0387063
-0.0383679
-0.0380771
-0.0378418
-0.0376654
-0.0375349
-0.037443
-0.0373654
-0.0373047
-0.0102012
-0.0149259
-0.0197411
-0.0250442
-0.0324277
-0.0399977
-0.0474793
-0.0547321
-0.061585
-0.0678477
-0.0733382
-0.077976
-0.0817168
-0.0845418
-0.0864651
-0.0875309
-0.0878119
-0.0873846
-0.086337
-0.0847668
-0.0827666
-0.0804379
-0.0778924
-0.0751811
-0.0723827
-0.0695714
-0.0667883
-0.064096
-0.0615268
-0.0591044
-0.0568459
-0.054757
-0.0528375
-0.0510915
-0.049506
-0.0480611
-0.0467602
-0.04559
-0.0445382
-0.0435875
-0.0427471
-0.0419991
-0.0413362
-0.0407422
-0.0401987
-0.0397069
-0.039258
-0.0388656
-0.038539
-0.0382678
-0.0787081
-0.0645996
-0.0547801
-0.0434262
-0.0419961
-0.0420948
-0.0428794
-0.0441503
-0.0458087
-0.0478289
-0.0502216
-0.0528721
-0.0556412
-0.0583722
-0.0609014
-0.063107
-0.0649169
-0.066291
-0.0672227
-0.0677227
-0.0678234
-0.0675783
-0.0670418
-0.0662277
-0.0652099
-0.0640371
-0.062752
-0.0613916
-0.0599732
-0.058546
-0.0571351
-0.0557514
-0.0544073
-0.0531127
-0.0518747
-0.0506968
-0.0495893
-0.048548
-0.0475622
-0.0466428
-0.0457828
-0.0449754
-0.0442355
-0.0435607
-0.0429302
-0.0423457
-0.0417992
-0.0412939
-0.0408353
-0.0404338
-0.100868
-0.0980975
-0.0823769
-0.0705675
-0.0682432
-0.066099
-0.0639501
-0.0618277
-0.0597926
-0.057915
-0.0562575
-0.0548696
-0.0537844
-0.0530221
-0.0525974
-0.0524742
-0.0525819
-0.0528091
-0.0530544
-0.0532587
-0.0534567
-0.0535499
-0.0535225
-0.0533806
-0.0531331
-0.0527904
-0.0523631
-0.0518538
-0.051298
-0.0507069
-0.050086
-0.049445
-0.048794
-0.0481416
-0.0475069
-0.0468831
-0.0462675
-0.0456698
-0.0450857
-0.0445372
-0.0440142
-0.0435228
-0.0430533
-0.0426086
-0.0421857
-0.0417941
-0.0414349
-0.0411066
-0.0408084
-0.0405671
-0.184094
-0.161235
-0.124397
-0.114683
-0.106407
-0.098687
-0.0915511
-0.0850306
-0.0791491
-0.0739151
-0.0693176
-0.0653331
-0.0619217
-0.0590268
-0.0565886
-0.0545515
-0.0528608
-0.0514804
-0.050351
-0.0494257
-0.048673
-0.0480465
-0.0475122
-0.0470461
-0.0466218
-0.0462342
-0.0458815
-0.0455465
-0.0452256
-0.0449127
-0.0446105
-0.0443213
-0.0440397
-0.0437635
-0.0434931
-0.0432321
-0.0429967
-0.0427825
-0.0425662
-0.0423659
-0.0421688
-0.0419841
-0.0418258
-0.0416861
-0.0415617
-0.041453
-0.0413613
-0.0413
-0.0412417
-0.0411884
-0.0817519
-0.0810685
-0.0803637
-0.0796479
-0.0789319
-0.0782061
-0.077513
-0.0767594
-0.0759973
-0.0752343
-0.0744795
-0.0737259
-0.0729723
-0.0722214
-0.0714964
-0.0707407
-0.0699884
-0.0692551
-0.0685388
-0.0678393
-0.0671276
-0.0664366
-0.0657644
-0.065127
-0.0644724
-0.0638288
-0.0631745
-0.0625442
-0.0619377
-0.0613455
-0.0607828
-0.060241
-0.0596921
-0.0591372
-0.0585925
-0.0580795
-0.0576101
-0.0571425
-0.0566701
-0.0561875
-0.0557252
-0.0552878
-0.0548661
-0.0544617
-0.0540728
-0.0536984
-0.053337
-0.0529969
-0.0526802
-0.0523608
-0.052055
-0.0517492
-0.0514644
-0.051199
-0.0509496
-0.050714
-0.0504915
-0.0502816
-0.0500932
-0.0499355
-0.049763
-0.0495998
-0.0494294
-0.0492705
-0.0491372
-0.0490173
-0.0489061
-0.0488025
-0.0487058
-0.0486174
-0.0485583
-0.0484909
-0.0484154
-0.0483404
-0.0482514
-0.0481794
-0.048119
-0.0480634
-0.0480098
-0.047967
-0.0479331
-0.0478811
-0.0478204
-0.0477459
-0.0476815
-0.0476145
-0.047591
-0.047522
-0.0474219
-0.047319
-0.0472157
-0.0471041
-0.0469806
-0.0468433
-0.0466898
-0.046541
-0.046355
-0.0461269
-0.0458594
-0.0455313
-0.0451358
-0.044678
-0.0441621
-0.0435976
-0.0429909
-0.04235
-0.041681
-0.0409902
-0.0402851
-0.0395748
-0.0388707
-0.038193
-0.0375193
-0.0368412
-0.0361725
-0.0355098
-0.034849
-0.0341789
-0.0334968
-0.0328234
-0.032154
-0.0314873
-0.0308316
-0.0301864
-0.0295537
-0.0289356
-0.0283406
-0.0277785
-0.0272503
-0.0267258
-0.0262055
-0.0256881
-0.0251855
-0.0246933
-0.0242092
-0.0237338
-0.0232681
-0.0228136
-0.0223711
-0.0219416
-0.0215254
-0.0211227
-0.0207335
-0.0203578
-0.0199951
-0.0196449
-0.0193063
-0.0189782
-0.0186599
-0.0183521
-0.0180475
-0.0177453
-0.0174471
-0.0171527
-0.0168622
-0.0165747
-0.0162942
-0.0160192
-0.0157481
-0.0154804
-0.0152162
-0.0149553
-0.0146978
-0.0144437
-0.0141929
-0.0139454
-0.0137013
-0.01346
-0.0132215
-0.0129857
-0.0127532
-0.0125241
-0.0122987
-0.0120771
-0.0118596
-0.0116465
-0.0114379
-0.0112337
-0.0110341
-0.010839
-0.0106481
-0.0104607
-0.0102761
-0.0100941
-0.0099146
-0.00973781
-0.00956206
-0.00938246
-0.00920216
-0.00902231
-0.00884266
-0.00866329
-0.00848441
-0.0083063
-0.00812935
-0.00795399
-0.00777992
-0.00760642
-0.00743371
-0.00726168
-0.00709014
-0.00691913
-0.00674884
-0.00657963
-0.00641187
-0.00624598
-0.00608233
-0.00592121
-0.00576296
-0.00560795
-0.00545657
-0.00530914
-0.00516604
-0.0050275
-0.00489372
-0.00476492
-0.0046413
-0.00452302
-0.00441021
-0.00430292
-0.00420122
-0.00410507
-0.00401436
-0.0039289
-0.00384844
-0.00377267
-0.00370118
-0.00363346
-0.00356893
-0.00350694
-0.0034467
-0.00338741
-0.00332818
-0.00326806
-0.00320611
-0.00314138
-0.00307298
-0.00300008
-0.00292198
-0.00283812
-0.00274812
-0.00265188
-0.00254958
-0.00244179
-0.00232955
-0.00221445
-0.00209871
-0.00198527
-0.00187772
-0.00178025
-0.00169745
-0.00163403
-0.00159446
-0.00158254
-0.00160103
-0.00165137
-0.00173351
-0.00184593
-0.00198586
-0.00215001
-0.00233509
-0.00253813
-0.0027573
-0.00299287
-0.00324756
-0.00352554
-0.00383272
-0.0041767
-0.0045642
-0.00499924
-0.00548109
-0.00600465
-0.00656149
-0.00714046
-0.00772826
-0.00831029
-0.00887167
-0.00939867
-0.00987968
-0.0103064
-0.0106735
-0.0109793
-0.0112253
-0.0114146
-0.0115511
-0.0116378
-0.0116774
-0.0116683
-0.0116077
-0.0114821
-0.0112811
-0.0109939
-0.0106128
-0.0101274
-0.00951375
-0.00874899
-0.00781956
-0.0066965
-0.00522591
-0.00281052
-0.0863371
-0.085208
-0.0841115
-0.0829768
-0.081839
-0.0807066
-0.0795819
-0.07844
-0.0773032
-0.0762011
-0.0751169
-0.0740481
-0.0730001
-0.0719643
-0.0709512
-0.0699618
-0.0689979
-0.0680615
-0.0671576
-0.066286
-0.0654285
-0.0646047
-0.0638102
-0.0630421
-0.0623097
-0.061629
-0.0609386
-0.060269
-0.0596018
-0.0589593
-0.0583551
-0.0577708
-0.0572094
-0.05667
-0.0561515
-0.0556532
-0.0551737
-0.0547183
-0.0543155
-0.053897
-0.0534877
-0.0530949
-0.0526976
-0.0523073
-0.0519533
-0.0516205
-0.0513026
-0.0509994
-0.0507108
-0.0504395
-0.050204
-0.0499647
-0.049733
-0.0495073
-0.0492845
-0.0490874
-0.0489091
-0.0487434
-0.0485895
-0.0484469
-0.0483266
-0.0482335
-0.0481283
-0.048022
-0.0479147
-0.0478321
-0.0477643
-0.0477051
-0.0476537
-0.0476096
-0.047572
-0.0475424
-0.0475401
-0.0475319
-0.0475176
-0.0475094
-0.0474938
-0.0474752
-0.0474768
-0.0474867
-0.0474999
-0.0475171
-0.0475555
-0.0475883
-0.047613
-0.0476271
-0.0476394
-0.0476656
-0.0476954
-0.04773
-0.0477764
-0.0478102
-0.0478413
-0.0478622
-0.0478844
-0.0479112
-0.0479363
-0.0479588
-0.0479779
-0.0479932
-0.0480037
-0.0480083
-0.0480053
-0.0480022
-0.0479864
-0.0479355
-0.0478611
-0.0477447
-0.047594
-0.0474241
-0.0472299
-0.0470137
-0.0467768
-0.0465087
-0.0462129
-0.0458969
-0.0455583
-0.0452087
-0.0448239
-0.0443889
-0.0439064
-0.0433596
-0.0427792
-0.042177
-0.0415541
-0.0409181
-0.0402794
-0.0396463
-0.0390217
-0.0384021
-0.0377915
-0.0371758
-0.0365428
-0.0358941
-0.0352211
-0.0345422
-0.0338657
-0.0331947
-0.0325324
-0.0318818
-0.0312449
-0.0306229
-0.0300166
-0.0294264
-0.0288522
-0.0282934
-0.0277511
-0.0272242
-0.0266961
-0.0261728
-0.025657
-0.025149
-0.0246467
-0.0241556
-0.0236828
-0.0232242
-0.0227771
-0.0223406
-0.0219142
-0.0214984
-0.0210938
-0.0206927
-0.0202975
-0.0199105
-0.0195323
-0.019163
-0.0188015
-0.0184483
-0.0181033
-0.0177665
-0.0174377
-0.0171169
-0.0168041
-0.0164997
-0.0162031
-0.0159135
-0.0156312
-0.015356
-0.0150873
-0.0148245
-0.0145667
-0.0143128
-0.0140619
-0.0138132
-0.0135666
-0.0133225
-0.0130853
-0.0128497
-0.0126097
-0.0123638
-0.0121171
-0.0118718
-0.0116281
-0.0113867
-0.0111484
-0.010914
-0.0106854
-0.0104616
-0.0102368
-0.0100131
-0.00979057
-0.00956858
-0.00934718
-0.00912684
-0.00890814
-0.00869156
-0.00847757
-0.00826664
-0.00805889
-0.00785451
-0.00765377
-0.0074569
-0.00726411
-0.00707562
-0.00689163
-0.00671234
-0.00653789
-0.00636844
-0.00620415
-0.00604516
-0.00589159
-0.00574354
-0.00560099
-0.0054639
-0.00533214
-0.00520554
-0.00508382
-0.00496661
-0.00485348
-0.0047439
-0.00463722
-0.0045327
-0.00442954
-0.00432683
-0.00422361
-0.00411892
-0.00401178
-0.00390127
-0.00378657
-0.00366699
-0.003542
-0.00341129
-0.00327478
-0.00313271
-0.00298565
-0.00283459
-0.00268097
-0.00252681
-0.00237474
-0.00222799
-0.0020904
-0.00196626
-0.0018601
-0.00177639
-0.00171918
-0.0016917
-0.0016961
-0.0017332
-0.00180239
-0.00190185
-0.00202857
-0.00217884
-0.00234912
-0.00253658
-0.00273931
-0.00295635
-0.00318911
-0.00343995
-0.00371341
-0.00401486
-0.00434841
-0.00471811
-0.00512743
-0.00557726
-0.00606486
-0.00658445
-0.00712766
-0.00768437
-0.00824376
-0.00879481
-0.00932728
-0.00983152
-0.0103
-0.0107267
-0.011107
-0.0114384
-0.01172
-0.0119531
-0.0121396
-0.0122795
-0.0123722
-0.0124116
-0.0123937
-0.0123169
-0.0121749
-0.0119481
-0.0116084
-0.0110662
-0.00995309
-0.00661916
-0.0806632
-0.0791675
-0.0777168
-0.0762986
-0.0748846
-0.0735027
-0.0721539
-0.0708388
-0.0695304
-0.0682649
-0.0670548
-0.0658894
-0.064778
-0.0636834
-0.0626326
-0.0616323
-0.0606779
-0.05977
-0.0589081
-0.0580915
-0.0573184
-0.0565881
-0.0558998
-0.0552509
-0.054661
-0.0540934
-0.0535485
-0.0530331
-0.0525257
-0.0520574
-0.0516267
-0.0512218
-0.050841
-0.0504831
-0.0501475
-0.049834
-0.049542
-0.0492858
-0.0490536
-0.0488153
-0.0485955
-0.0483624
-0.0481524
-0.0479732
-0.0478049
-0.0476444
-0.0474934
-0.0473566
-0.0472318
-0.0471225
-0.0470411
-0.0469517
-0.0468679
-0.0467935
-0.0467245
-0.0466491
-0.046592
-0.0465496
-0.0465144
-0.0464855
-0.0464712
-0.0464854
-0.046477
-0.0464589
-0.0464502
-0.0464556
-0.0464672
-0.0464833
-0.0465038
-0.0465291
-0.0465574
-0.0466064
-0.0466535
-0.0466914
-0.0467322
-0.046776
-0.0468105
-0.0468393
-0.046883
-0.0469321
-0.0469824
-0.0470338
-0.0470864
-0.0471447
-0.0472198
-0.0472784
-0.0473337
-0.0473875
-0.0474262
-0.0474704
-0.0475237
-0.0475777
-0.047632
-0.0476914
-0.0477577
-0.0478116
-0.047864
-0.0479159
-0.0479584
-0.048001
-0.0480491
-0.0480972
-0.048144
-0.0481896
-0.0482342
-0.0482781
-0.048324
-0.0483873
-0.0484371
-0.0484757
-0.0485093
-0.048525
-0.0485262
-0.0485304
-0.0485287
-0.048518
-0.0484994
-0.0484728
-0.0484366
-0.0483844
-0.0483119
-0.048218
-0.0481006
-0.0479629
-0.0478144
-0.0476254
-0.047409
-0.0471626
-0.0468758
-0.0465733
-0.0462579
-0.045926
-0.0455728
-0.0451964
-0.0448017
-0.0443818
-0.0439229
-0.0434292
-0.0428986
-0.0423485
-0.0417805
-0.0411947
-0.0405941
-0.0399821
-0.0393659
-0.0387448
-0.0380977
-0.0374316
-0.0367425
-0.0360473
-0.0353496
-0.0346507
-0.0339547
-0.0332641
-0.0325816
-0.0319089
-0.0312468
-0.0305957
-0.0299556
-0.0293286
-0.0287156
-0.0281106
-0.0275154
-0.0269264
-0.0263522
-0.0257944
-0.0252504
-0.024719
-0.0242019
-0.0237002
-0.0232137
-0.0227421
-0.0222855
-0.0218449
-0.0214185
-0.0210026
-0.0205979
-0.020204
-0.0198196
-0.019444
-0.0190763
-0.0187159
-0.0183622
-0.0180148
-0.0176743
-0.0173425
-0.0170104
-0.0166806
-0.016352
-0.0160231
-0.0156983
-0.0153775
-0.0150607
-0.0147485
-0.0144414
-0.0141402
-0.0138463
-0.0135638
-0.0132871
-0.0130079
-0.0127266
-0.0124466
-0.0121681
-0.0118916
-0.0116179
-0.0113478
-0.0110816
-0.0108197
-0.0105623
-0.010309
-0.01006
-0.00981524
-0.00957472
-0.00933839
-0.00910622
-0.00887826
-0.00865459
-0.00843534
-0.00822068
-0.00801073
-0.00780566
-0.00760553
-0.00741038
-0.00722018
-0.00703482
-0.00685423
-0.00667829
-0.00650681
-0.00633952
-0.00617611
-0.00601609
-0.00585888
-0.00570378
-0.00555001