/*--------------------------------*- C++ -*----------------------------------*\
| =========                 |                                                 |
| \\      /  F ield         | OpenFOAM: The Open Source CFD Toolbox           |
|  \\    /   O peration     | Version:  2.4.0                                 |
|   \\  /    A nd           | Web:      www.OpenFOAM.org                      |
|    \\/     M anipulation  |                                                 |
\*---------------------------------------------------------------------------*/
FoamFile
{
    version     2.0;
    format      ascii;
    class       surfaceScalarField;
    location    "4.7";
    object      phi;
}
// * * * * * * * * * * * * * * * * * * * * * * * * * * * * * * * * * * * * * //

dimensions      [0 3 -1 0 0 0 0];

internalField   nonuniform List<scalar> 
220
(
2.86878e-17
-2.86872e-17
3.35518e-17
-4.8635e-18
-1.27291e-17
4.62809e-17
-3.61e-17
2.33713e-17
-3.60998e-17
9.03095e-17
-1.18997e-16
1.05728e-16
-2.02823e-17
-4.04591e-17
1.92467e-16
-1.16059e-16
9.89704e-17
-1.52159e-16
1.56922e-16
-2.75919e-16
1.83411e-16
-4.67717e-17
-7.08979e-17
4.46775e-16
-2.03895e-16
2.31967e-16
-3.56054e-16
2.28712e-16
-5.04631e-16
2.66578e-16
-8.46382e-17
-1.04204e-16
8.17556e-16
-2.99458e-16
4.2722e-16
-6.55513e-16
3.05971e-16
-8.10603e-16
3.55534e-16
-1.34202e-16
-1.40554e-16
1.31364e-15
-4.03209e-16
6.89874e-16
-1.05872e-15
3.88987e-16
-1.19959e-15
4.50598e-16
-1.95814e-16
-1.8012e-16
1.94436e-15
-5.15621e-16
1.02537e-15
-1.57434e-15
4.78086e-16
-1.67768e-15
5.52115e-16
-2.69843e-16
-2.23099e-16
2.71957e-15
-6.37222e-16
1.4395e-15
-2.21157e-15
5.73584e-16
-2.25126e-15
6.60433e-16
-3.56693e-16
-2.69683e-16
3.64969e-15
-7.68533e-16
1.93835e-15
-2.9801e-15
6.75847e-16
-2.92711e-15
7.75943e-16
-4.56789e-16
-3.20094e-16
4.74573e-15
-9.10149e-16
2.5284e-15
-3.89025e-15
7.8522e-16
-3.71233e-15
8.9903e-16
-5.706e-16
-3.74543e-16
6.0193e-15
-1.06265e-15
3.21651e-15
-4.9529e-15
9.02114e-16
-4.61444e-15
1.03013e-15
-6.9862e-16
-4.33279e-16
7.48271e-15
-1.22671e-15
4.00993e-15
-6.1796e-15
1.02691e-15
-5.64135e-15
1.16968e-15
-8.41391e-16
-4.96538e-16
9.14893e-15
-1.40297e-15
4.91636e-15
-7.58257e-15
1.16007e-15
-6.80142e-15
1.31817e-15
-9.99493e-16
-5.64596e-16
1.10317e-14
-1.59219e-15
5.94395e-15
-9.17476e-15
1.302e-15
-8.10343e-15
1.47607e-15
-1.17356e-15
-6.37717e-16
1.31455e-14
-1.79509e-15
7.10133e-15
-1.09699e-14
1.45324e-15
-9.55666e-15
1.64395e-15
-1.36427e-15
-7.16212e-16
1.55056e-14
-2.01254e-15
8.39765e-15
-1.29824e-14
1.61423e-15
-1.11709e-14
1.82235e-15
-1.57238e-15
-8.0038e-16
1.81284e-14
-2.24536e-15
9.84263e-15
-1.52277e-14
1.78557e-15
-1.29565e-14
2.01191e-15
-1.79872e-15
-8.90573e-16
2.10308e-14
-2.49453e-15
1.14466e-14
-1.77223e-14
1.96772e-15
-1.49242e-14
2.21324e-15
-2.04424e-15
-9.87076e-16
2.42312e-14
-2.76101e-15
1.32205e-14
-2.04833e-14
2.16121e-15
-1.70854e-14
2.42667e-15
-2.30969e-15
-1.0902e-15
2.7748e-14
-3.04512e-15
1.51754e-14
-2.35284e-14
2.36661e-15
-1.9452e-14
2.65228e-15
-2.59537e-15
-1.20048e-15
3.16008e-14
-3.34727e-15
1.73222e-14
-2.68757e-14
2.58532e-15
-2.20373e-14
2.8929e-15
-2.90295e-15
-1.31773e-15
3.58114e-14
-3.66966e-15
1.96742e-14
-3.05453e-14
2.82173e-15
-2.48591e-14
3.14952e-15
-3.23074e-15
-1.44277e-15
4.04037e-14
-4.02455e-15
2.22559e-14
-3.45699e-14
3.07583e-15
-2.86497e-14
3.46295e-15
-4.27614e-15
-1.59443e-15
4.54611e-14
-4.4408e-15
2.51023e-14
-4.00354e-14
3.31571e-15
-1.99619e-10
3.8478e-15
-1.99628e-10
-1.76795e-15
-1.99661e-10
-4.92366e-15
-1.99647e-10
-1.99613e-10
3.39608e-15
3.7897e-15
-1.76e-15
-4.89693e-15
)
;

boundaryField
{
    BotWall
    {
        type            calculated;
        value           nonuniform List<scalar> 5(1.75004e-23 2.79991e-23 -1.43307e-23 -1.39982e-23 1.49351e-23);
    }
    FreeStream
    {
        type            calculated;
        value           nonuniform 0();
    }
    FrontNBack
    {
        type            empty;
        value           nonuniform 0();
    }
    LeftSide
    {
        type            symmetryPlane;
        value           uniform 0;
    }
    RightSide
    {
        type            symmetryPlane;
        value           uniform 0;
    }
    procBoundary0to1
    {
        type            processor;
        value           nonuniform List<scalar> 5(-1.99622e-10 -1.99629e-10 -1.99655e-10 -1.99644e-10 -1.99618e-10);
    }
}


// ************************************************************************* //
