/*--------------------------------*- C++ -*----------------------------------*\
| =========                 |                                                 |
| \\      /  F ield         | OpenFOAM: The Open Source CFD Toolbox           |
|  \\    /   O peration     | Version:  2.4.0                                 |
|   \\  /    A nd           | Web:      www.OpenFOAM.org                      |
|    \\/     M anipulation  |                                                 |
\*---------------------------------------------------------------------------*/
FoamFile
{
    version     2.0;
    format      ascii;
    class       volScalarField;
    location    "4.7";
    object      T;
}
// * * * * * * * * * * * * * * * * * * * * * * * * * * * * * * * * * * * * * //

dimensions      [0 0 0 1 0 0 0];

internalField   nonuniform List<scalar> 
125
(
293.093
293.093
293.093
293.093
293.093
293.28
293.28
293.28
293.28
293.28
293.469
293.469
293.469
293.469
293.469
293.66
293.66
293.66
293.66
293.66
293.853
293.853
293.853
293.853
293.853
294.049
294.049
294.049
294.049
294.049
294.246
294.246
294.247
294.246
294.246
294.446
294.446
294.447
294.446
294.446
294.648
294.648
294.649
294.649
294.648
294.853
294.853
294.853
294.853
294.853
295.06
295.06
295.06
295.06
295.06
295.269
295.269
295.269
295.269
295.269
295.481
295.481
295.481
295.481
295.48
295.695
295.695
295.695
295.695
295.695
295.911
295.911
295.912
295.912
295.911
296.13
296.13
296.131
296.131
296.13
296.352
296.352
296.353
296.353
296.352
296.576
296.576
296.577
296.577
296.576
296.803
296.803
296.804
296.804
296.803
297.033
297.033
297.034
297.033
297.032
297.265
297.265
297.266
297.266
297.265
297.5
297.5
297.501
297.501
297.5
297.738
297.738
297.739
297.739
297.738
297.995
297.995
297.995
297.995
297.995
297.995
297.995
297.995
297.995
297.995
)
;

boundaryField
{
    BotWall
    {
        type            fixedValue;
        value           uniform 293;
    }
    FreeStream
    {
        type            fixedValue;
        value           nonuniform 0();
    }
    FrontNBack
    {
        type            empty;
    }
    LeftSide
    {
        type            symmetryPlane;
    }
    RightSide
    {
        type            symmetryPlane;
    }
    procBoundary0to1
    {
        type            processor;
        value           nonuniform List<scalar> 5(297.995 297.995 297.995 297.995 297.995);
    }
}


// ************************************************************************* //
