/*--------------------------------*- C++ -*----------------------------------*\
| =========                 |                                                 |
| \\      /  F ield         | OpenFOAM: The Open Source CFD Toolbox           |
|  \\    /   O peration     | Version:  2.4.0                                 |
|   \\  /    A nd           | Web:      www.OpenFOAM.org                      |
|    \\/     M anipulation  |                                                 |
\*---------------------------------------------------------------------------*/
FoamFile
{
    version     2.0;
    format      ascii;
    class       volVectorField;
    location    "4.7";
    object      U;
}
// * * * * * * * * * * * * * * * * * * * * * * * * * * * * * * * * * * * * * //

dimensions      [0 1 -1 0 0 0 0];

internalField   nonuniform List<vector> 
125
(
(3.71044e-09 -1.02181e-10 0)
(1.73121e-08 -8.33521e-11 0)
(7.59636e-09 -3.97076e-11 0)
(-1.68739e-08 -6.10953e-11 0)
(-1.02882e-08 -1.06479e-10 0)
(1.17467e-08 -1.0098e-10 0)
(5.35255e-08 1.53738e-10 0)
(2.33864e-08 6.89786e-10 0)
(-5.25523e-08 4.51651e-10 0)
(-3.24131e-08 -1.80786e-10 0)
(2.04596e-08 -1.24593e-09 0)
(9.15871e-08 -5.07051e-10 0)
(3.98852e-08 1.10919e-09 0)
(-9.04309e-08 4.01957e-10 0)
(-5.62649e-08 -1.5017e-09 0)
(2.98667e-08 -1.38713e-09 0)
(1.31565e-07 1.73153e-10 0)
(5.71215e-08 3.50112e-09 0)
(-1.30594e-07 2.05678e-09 0)
(-8.19083e-08 -1.93445e-09 0)
(3.99916e-08 -3.8098e-09 0)
(1.73535e-07 -1.16948e-09 0)
(7.51257e-08 4.53488e-09 0)
(-1.73134e-07 2.07138e-09 0)
(-1.09416e-07 -4.77303e-09 0)
(5.08516e-08 -4.15575e-09 0)
(2.17569e-07 -2.01544e-11 0)
(9.39303e-08 8.77017e-09 0)
(-2.18142e-07 4.98907e-09 0)
(-1.38859e-07 -5.67672e-09 0)
(6.24731e-08 -8.01334e-09 0)
(2.63755e-07 -2.1055e-09 0)
(1.1357e-07 1.0527e-08 0)
(-2.65723e-07 5.10917e-09 0)
(-1.70321e-07 -1.02436e-08 0)
(7.48736e-08 -8.6078e-09 0)
(3.12168e-07 -4.20627e-10 0)
(1.34079e-07 1.68669e-08 0)
(-3.15973e-07 9.47303e-09 0)
(-2.03876e-07 -1.17214e-08 0)
(8.80822e-08 -1.40746e-08 0)
(3.62903e-07 -3.306e-09 0)
(1.55497e-07 1.9501e-08 0)
(-3.69009e-07 9.76841e-09 0)
(-2.39617e-07 -1.82551e-08 0)
(1.02117e-07 -1.49547e-08 0)
(4.16045e-07 -9.98029e-10 0)
(1.77862e-07 2.82566e-08 0)
(-4.24936e-07 1.58006e-08 0)
(-2.77628e-07 -2.04129e-08 0)
(1.17009e-07 -2.2439e-08 0)
(4.71697e-07 -4.96236e-09 0)
(2.01217e-07 3.17222e-08 0)
(-4.83883e-07 1.6133e-08 0)
(-3.18011e-07 -2.93947e-08 0)
(1.32778e-07 -2.42237e-08 0)
(5.29951e-07 -2.51429e-09 0)
(2.25604e-07 4.26522e-08 0)
(-5.45965e-07 2.3497e-08 0)
(-3.60859e-07 -3.29289e-08 0)
(1.49459e-07 -3.42505e-08 0)
(5.90923e-07 -7.94588e-09 0)
(2.51073e-07 4.68222e-08 0)
(-6.11325e-07 2.36386e-08 0)
(-4.06287e-07 -4.49652e-08 0)
(1.67069e-07 -3.25037e-08 0)
(6.54711e-07 -7.77641e-10 0)
(2.7767e-07 6.48429e-08 0)
(-6.80089e-07 3.71242e-08 0)
(-4.54396e-07 -4.55311e-08 0)
(1.85648e-07 -3.01442e-08 0)
(7.21444e-07 7.45641e-09 0)
(3.0545e-07 8.53205e-08 0)
(-7.52415e-07 5.2491e-08 0)
(-5.05315e-07 -4.58108e-08 0)
(2.05217e-07 -1.87601e-08 0)
(7.91233e-07 2.57548e-08 0)
(3.34467e-07 1.17246e-07 0)
(-8.28445e-07 7.87283e-08 0)
(-5.59159e-07 -3.7449e-08 0)
(2.25816e-07 -1.20756e-07 0)
(8.64219e-07 -6.92364e-08 0)
(3.64781e-07 3.66164e-08 0)
(-9.08352e-07 -7.87625e-09 0)
(-6.16072e-07 -1.427e-07 0)
(2.4746e-07 -4.9794e-07 0)
(9.40503e-07 -4.39606e-07 0)
(3.96444e-07 -3.20724e-07 0)
(-9.92271e-07 -3.70604e-07 0)
(-6.76162e-07 -5.22991e-07 0)
(2.70178e-07 -8.57156e-07 0)
(1.02018e-06 -7.92055e-07 0)
(4.295e-07 -6.61203e-07 0)
(-1.08029e-06 -7.16022e-07 0)
(-7.39505e-07 -8.85228e-07 0)
(2.93983e-07 1.43895e-06 0)
(1.10337e-06 1.52111e-06 0)
(4.64006e-07 1.68463e-06 0)
(-1.17263e-06 1.61628e-06 0)
(-8.06287e-07 1.40376e-06 0)
(3.19085e-07 1.12316e-05 0)
(1.19075e-06 1.13612e-05 0)
(5.00531e-07 1.16325e-05 0)
(-1.26977e-06 1.15195e-05 0)
(-8.7711e-07 1.11749e-05 0)
(3.45872e-07 1.98804e-05 0)
(1.28302e-06 2.00891e-05 0)
(5.39006e-07 2.05653e-05 0)
(-1.37345e-06 2.03673e-05 0)
(-9.53344e-07 1.97836e-05 0)
(3.74659e-07 -4.05343e-05 0)
(1.38295e-06 -4.05403e-05 0)
(5.80485e-07 -4.05519e-05 0)
(-1.48627e-06 -4.05466e-05 0)
(-1.03619e-06 -4.05402e-05 0)
(4.01931e-07 -0.000300038 0)
(1.47846e-06 -0.000300448 0)
(6.20146e-07 -0.000301459 0)
(-1.59406e-06 -0.00030104 0)
(-1.11596e-06 -0.000299851 0)
(4.05573e-07 -0.000726456 0)
(1.49109e-06 -0.000726282 0)
(6.2541e-07 -0.000725955 0)
(-1.60835e-06 -0.000726091 0)
(-1.12652e-06 -0.000726523 0)
)
;

boundaryField
{
    BotWall
    {
        type            fixedValue;
        value           uniform (0 0 0);
    }
    FreeStream
    {
        type            zeroGradient;
    }
    FrontNBack
    {
        type            empty;
    }
    LeftSide
    {
        type            symmetryPlane;
    }
    RightSide
    {
        type            symmetryPlane;
    }
    procBoundary0to1
    {
        type            processor;
        value           nonuniform List<vector> 5((3.98478e-07 -0.00167717 0) (1.45118e-06 -0.00167685 0) (6.06326e-07 -0.00167619 0) (-1.56121e-06 -0.00167647 0) (-1.0918e-06 -0.0016773 0));
    }
}


// ************************************************************************* //
