/*--------------------------------*- C++ -*----------------------------------*\
| =========                 |                                                 |
| \\      /  F ield         | OpenFOAM: The Open Source CFD Toolbox           |
|  \\    /   O peration     | Version:  2.4.0                                 |
|   \\  /    A nd           | Web:      www.OpenFOAM.org                      |
|    \\/     M anipulation  |                                                 |
\*---------------------------------------------------------------------------*/
FoamFile
{
    version     2.0;
    format      ascii;
    class       surfaceScalarField;
    location    "3.6";
    object      phi;
}
// * * * * * * * * * * * * * * * * * * * * * * * * * * * * * * * * * * * * * //

dimensions      [0 3 -1 0 0 0 0];

internalField   nonuniform List<scalar> 
220
(
1.29555e-16
-2.12975e-10
1.02794e-16
-2.12996e-10
-6.49823e-17
-2.13017e-10
-1.61536e-16
-2.13007e-10
-2.12966e-10
1.45869e-16
-2.12975e-10
1.16919e-16
-2.12996e-10
-7.40273e-17
-2.13017e-10
-1.8149e-16
-2.13007e-10
-2.12966e-10
1.61929e-16
-2.12976e-10
1.30869e-16
-2.12995e-10
-8.29063e-17
-2.13016e-10
-2.01103e-16
-2.13007e-10
-2.12966e-10
1.77685e-16
-2.12976e-10
1.44597e-16
-2.12995e-10
-9.15928e-17
-2.13016e-10
-2.20317e-16
-2.13007e-10
-2.12967e-10
1.93093e-16
-2.12976e-10
1.58062e-16
-2.12995e-10
-1.00065e-16
-2.13016e-10
-2.39085e-16
-2.13006e-10
-2.12967e-10
2.08119e-16
-2.12976e-10
1.71231e-16
-2.12995e-10
-1.08305e-16
-2.13016e-10
-2.57367e-16
-2.13006e-10
-2.12967e-10
2.22733e-16
-2.12976e-10
1.84075e-16
-2.12995e-10
-1.16301e-16
-2.13015e-10
-2.75132e-16
-2.13006e-10
-2.12967e-10
2.36913e-16
-2.12977e-10
1.96571e-16
-2.12995e-10
-1.24041e-16
-2.13015e-10
-2.92359e-16
-2.13006e-10
-2.12968e-10
2.50645e-16
-2.12977e-10
2.087e-16
-2.12995e-10
-1.31523e-16
-2.13015e-10
-3.09035e-16
-2.13006e-10
-2.12968e-10
2.63921e-16
-2.12977e-10
2.20452e-16
-2.12995e-10
-1.38742e-16
-2.13014e-10
-3.25153e-16
-2.13006e-10
-2.12968e-10
2.76736e-16
-2.12977e-10
2.31818e-16
-2.12995e-10
-1.45701e-16
-2.13014e-10
-3.40714e-16
-2.13005e-10
-2.12969e-10
2.89091e-16
-2.12978e-10
2.42794e-16
-2.12995e-10
-1.52403e-16
-2.13013e-10
-3.55723e-16
-2.13005e-10
-2.12969e-10
3.00993e-16
-2.12978e-10
2.53377e-16
-2.12995e-10
-1.58854e-16
-2.13013e-10
-3.7019e-16
-2.13005e-10
-2.12969e-10
3.12445e-16
-2.12978e-10
2.63569e-16
-2.12995e-10
-1.65059e-16
-2.13013e-10
-3.84125e-16
-2.13005e-10
-2.1297e-10
3.23457e-16
-2.12979e-10
2.73369e-16
-2.12995e-10
-1.71025e-16
-2.13012e-10
-3.9754e-16
-2.13004e-10
-2.1297e-10
3.34032e-16
-2.12979e-10
2.82778e-16
-2.12995e-10
-1.76757e-16
-2.13012e-10
-4.10443e-16
-2.13004e-10
-2.12971e-10
3.44173e-16
-2.12979e-10
2.91792e-16
-2.12995e-10
-1.82257e-16
-2.13011e-10
-4.22839e-16
-2.13004e-10
-2.12971e-10
3.53876e-16
-2.1298e-10
3.00403e-16
-2.12995e-10
-1.87525e-16
-2.13011e-10
-4.34723e-16
-2.13004e-10
-2.12971e-10
3.63131e-16
-2.1298e-10
3.08599e-16
-2.12995e-10
-1.92554e-16
-2.1301e-10
-4.46082e-16
-2.13003e-10
-2.12972e-10
3.71917e-16
-2.1298e-10
3.16358e-16
-2.12995e-10
-1.97333e-16
-2.1301e-10
-4.56889e-16
-2.13003e-10
-2.12972e-10
3.80198e-16
-2.12981e-10
3.23646e-16
-2.12995e-10
-2.01841e-16
-2.13009e-10
-4.67097e-16
-2.13003e-10
-2.12973e-10
3.87925e-16
-2.12981e-10
3.30416e-16
-2.12995e-10
-2.06047e-16
-2.13009e-10
-4.76635e-16
-2.13003e-10
-2.12973e-10
3.95037e-16
-2.12982e-10
3.36614e-16
-2.12995e-10
-2.09915e-16
-2.13008e-10
-4.85423e-16
-2.13002e-10
-2.12974e-10
4.01498e-16
-2.12982e-10
3.42221e-16
-2.12994e-10
-2.13421e-16
-2.13008e-10
-4.9343e-16
-2.13002e-10
-2.12974e-10
4.07238e-16
3.47186e-16
-2.16478e-16
-5.00661e-16
)
;

boundaryField
{
    BotWall
    {
        type            calculated;
        value           nonuniform 0();
    }
    FreeStream
    {
        type            calculated;
        value           nonuniform List<scalar> 5(-2.12982e-10 -2.12994e-10 -2.13007e-10 -2.13002e-10 -2.12975e-10);
    }
    FrontNBack
    {
        type            empty;
        value           nonuniform 0();
    }
    LeftSide
    {
        type            symmetryPlane;
        value           uniform 0;
    }
    RightSide
    {
        type            symmetryPlane;
        value           uniform 0;
    }
    procBoundary3to2
    {
        type            processor;
        value           nonuniform List<scalar> 5(2.12975e-10 2.12996e-10 2.13017e-10 2.13007e-10 2.12966e-10);
    }
}


// ************************************************************************* //
