/*--------------------------------*- C++ -*----------------------------------*\
| =========                 |                                                 |
| \\      /  F ield         | OpenFOAM: The Open Source CFD Toolbox           |
|  \\    /   O peration     | Version:  2.4.0                                 |
|   \\  /    A nd           | Web:      www.OpenFOAM.org                      |
|    \\/     M anipulation  |                                                 |
\*---------------------------------------------------------------------------*/
FoamFile
{
    version     2.0;
    format      ascii;
    class       volScalarField;
    location    "0.014";
    object      p_rgh;
}
// * * * * * * * * * * * * * * * * * * * * * * * * * * * * * * * * * * * * * //

dimensions      [1 -1 -2 0 0 0 0];

internalField   nonuniform List<scalar> 
125
(
-0.00470747
-0.00469528
-0.00468304
-0.00467076
-0.00465844
-0.00464606
-0.00463365
-0.00462118
-0.00460868
-0.00459612
-0.00458352
-0.00457087
-0.00455818
-0.00454544
-0.00453265
-0.00451982
-0.00450694
-0.00449401
-0.00448104
-0.00446801
-0.00445494
-0.00444182
-0.00442866
-0.00441544
-0.00440218
-0.00438887
-0.0043755
-0.00436209
-0.00434863
-0.00433513
-0.00432157
-0.00430796
-0.0042943
-0.00428059
-0.00426683
-0.00425302
-0.00423916
-0.00422525
-0.00421129
-0.00419728
-0.00418321
-0.00416909
-0.00415493
-0.0041407
-0.00412643
-0.00411211
-0.00409773
-0.0040833
-0.00406882
-0.00405428
-0.00403969
-0.00402505
-0.00401035
-0.0039956
-0.00398079
-0.00396593
-0.00395102
-0.00393605
-0.00392102
-0.00390594
-0.00389081
-0.00387562
-0.00386037
-0.00384507
-0.00382971
-0.0038143
-0.00379882
-0.0037833
-0.00376771
-0.00375207
-0.00373637
-0.00372061
-0.0037048
-0.00368892
-0.00367299
-0.003657
-0.00364095
-0.00362484
-0.00360867
-0.00359245
-0.00357616
-0.00355982
-0.00354341
-0.00352694
-0.00351042
-0.00349383
-0.00347718
-0.00346047
-0.0034437
-0.00342687
-0.00340997
-0.00339301
-0.003376
-0.00335891
-0.00334177
-0.00332456
-0.00330729
-0.00328996
-0.00327256
-0.0032551
-0.00323757
-0.00321998
-0.00320233
-0.00318461
-0.00316682
-0.00314897
-0.00313106
-0.00311308
-0.00309503
-0.00307692
-0.00305874
-0.00304049
-0.00302218
-0.00300379
-0.00298535
-0.00296683
-0.00294824
-0.00292959
-0.00291087
-0.00289208
-0.00287322
-0.00285429
-0.00283529
-0.00281622
-0.00279708
)
;

boundaryField
{
    BotWall
    {
        type            fixedFluxPressure;
        gradient        nonuniform 0();
        value           nonuniform 0();
    }
    FreeStream
    {
        type            totalPressure;
        rho             rho;
        psi             none;
        gamma           1;
        p0              nonuniform 0();
        value           nonuniform 0();
    }
    FrontNBack
    {
        type            empty;
    }
    LeftSide
    {
        type            symmetryPlane;
    }
    RightSide
    {
        type            symmetryPlane;
    }
    procBoundary3to0
    {
        type            processor;
        value           nonuniform List<scalar> 
50
(
-0.00365976
-0.00364368
-0.00362754
-0.00361135
-0.00359509
-0.00357877
-0.0035624
-0.00354597
-0.00352947
-0.00351292
-0.0034963
-0.00347962
-0.00346289
-0.00344609
-0.00342923
-0.0034123
-0.00339532
-0.00337827
-0.00336116
-0.00334399
-0.00332676
-0.00330946
-0.0032921
-0.00327467
-0.00325718
-0.00323963
-0.00322201
-0.00320433
-0.00318659
-0.00316877
-0.0031509
-0.00313295
-0.00311495
-0.00309687
-0.00307873
-0.00306052
-0.00304225
-0.00302391
-0.0030055
-0.00298702
-0.00296848
-0.00294987
-0.00293119
-0.00291244
-0.00289362
-0.00287474
-0.00285578
-0.00283676
-0.00281766
-0.0027985
)
;
    }
    procBoundary3to1
    {
        type            processor;
        value           nonuniform List<scalar> 
75
(
-0.00471238
-0.00470016
-0.00468789
-0.00467558
-0.00466322
-0.00465082
-0.00463837
-0.00462588
-0.00461334
-0.00460076
-0.00458813
-0.00457545
-0.00456273
-0.00454996
-0.00453714
-0.00452428
-0.00451136
-0.00449841
-0.0044854
-0.00447235
-0.00445925
-0.0044461
-0.0044329
-0.00441966
-0.00440637
-0.00439302
-0.00437963
-0.00436619
-0.0043527
-0.00433917
-0.00432558
-0.00431194
-0.00429825
-0.00428452
-0.00427073
-0.00425689
-0.004243
-0.00422906
-0.00421507
-0.00420103
-0.00418694
-0.00417279
-0.0041586
-0.00414435
-0.00413005
-0.00411569
-0.00410129
-0.00408683
-0.00407232
-0.00405775
-0.00404314
-0.00402846
-0.00401374
-0.00399896
-0.00398413
-0.00396924
-0.0039543
-0.0039393
-0.00392425
-0.00390914
-0.00389398
-0.00387876
-0.00386349
-0.00384816
-0.00383278
-0.00381733
-0.00380184
-0.00378628
-0.00377067
-0.003755
-0.00373927
-0.00372349
-0.00370764
-0.00369174
-0.00367578
)
;
    }
    procBoundary3to2
    {
        type            processor;
        value           uniform -0.00277788;
    }
    procBoundary3to4
    {
        type            processor;
        value           uniform -0.00471962;
    }
    procBoundary3to5
    {
        type            processor;
        value           nonuniform List<scalar> 
75
(
-0.00403685
-0.00402222
-0.00400753
-0.0039928
-0.00397801
-0.00396316
-0.00394826
-0.00393331
-0.0039183
-0.00390324
-0.00388812
-0.00387294
-0.00385771
-0.00384243
-0.00382708
-0.00381169
-0.00379623
-0.00378072
-0.00376515
-0.00374953
-0.00373384
-0.0037181
-0.0037023
-0.00368645
-0.00367053
-0.00365456
-0.00363853
-0.00362244
-0.00360629
-0.00359008
-0.00357381
-0.00355749
-0.0035411
-0.00352465
-0.00350814
-0.00349157
-0.00347494
-0.00345825
-0.0034415
-0.00342469
-0.00340781
-0.00339087
-0.00337388
-0.00335681
-0.00333969
-0.0033225
-0.00330525
-0.00328794
-0.00327056
-0.00325312
-0.00323561
-0.00321804
-0.00320041
-0.00318271
-0.00316495
-0.00314712
-0.00312922
-0.00311126
-0.00309324
-0.00307514
-0.00305699
-0.00303876
-0.00302047
-0.00300211
-0.00298368
-0.00296518
-0.00294662
-0.00292799
-0.00290929
-0.00289052
-0.00287168
-0.00285278
-0.0028338
-0.00281476
-0.00279564
)
;
    }
    procBoundary3to6
    {
        type            processor;
        value           nonuniform List<scalar> 
50
(
-0.00470393
-0.00469174
-0.00467952
-0.00466725
-0.00465493
-0.00464257
-0.00463016
-0.00461771
-0.00460522
-0.00459267
-0.00458008
-0.00456745
-0.00455477
-0.00454204
-0.00452927
-0.00451645
-0.00450358
-0.00449066
-0.0044777
-0.00446469
-0.00445164
-0.00443853
-0.00442538
-0.00441218
-0.00439893
-0.00438563
-0.00437228
-0.00435889
-0.00434544
-0.00433195
-0.0043184
-0.00430481
-0.00429117
-0.00427747
-0.00426373
-0.00424994
-0.00423609
-0.0042222
-0.00420825
-0.00419426
-0.00418021
-0.00416611
-0.00415196
-0.00413775
-0.0041235
-0.00410919
-0.00409483
-0.00408042
-0.00406595
-0.00405143
)
;
    }
}


// ************************************************************************* //
