/*--------------------------------*- C++ -*----------------------------------*\
| =========                 |                                                 |
| \\      /  F ield         | OpenFOAM: The Open Source CFD Toolbox           |
|  \\    /   O peration     | Version:  2.4.0                                 |
|   \\  /    A nd           | Web:      www.OpenFOAM.org                      |
|    \\/     M anipulation  |                                                 |
\*---------------------------------------------------------------------------*/
FoamFile
{
    version     2.0;
    format      ascii;
    class       surfaceScalarField;
    location    "0.014";
    object      phi;
}
// * * * * * * * * * * * * * * * * * * * * * * * * * * * * * * * * * * * * * //

dimensions      [0 3 -1 0 0 0 0];

internalField   nonuniform List<scalar> 
124
(
-3.14795e-09
-3.14794e-09
-3.14793e-09
-3.14793e-09
-3.14792e-09
-3.14791e-09
-3.1479e-09
-3.1479e-09
-3.14789e-09
-3.14788e-09
-3.14788e-09
-3.14787e-09
-3.14786e-09
-3.14785e-09
-3.14785e-09
-3.14784e-09
-3.14783e-09
-3.14783e-09
-3.14782e-09
-3.14781e-09
-3.14781e-09
-3.1478e-09
-3.1478e-09
-3.14779e-09
-3.14778e-09
-3.14778e-09
-3.14777e-09
-3.14776e-09
-3.14776e-09
-3.14775e-09
-3.14775e-09
-3.14774e-09
-3.14773e-09
-3.14773e-09
-3.14772e-09
-3.14772e-09
-3.14771e-09
-3.14771e-09
-3.1477e-09
-3.14769e-09
-3.14769e-09
-3.14768e-09
-3.14768e-09
-3.14767e-09
-3.14767e-09
-3.14766e-09
-3.14766e-09
-3.14765e-09
-3.14765e-09
-3.14764e-09
-3.14764e-09
-3.14763e-09
-3.14763e-09
-3.14762e-09
-3.14762e-09
-3.14761e-09
-3.14761e-09
-3.1476e-09
-3.1476e-09
-3.14759e-09
-3.14759e-09
-3.14758e-09
-3.14758e-09
-3.14757e-09
-3.14757e-09
-3.14756e-09
-3.14756e-09
-3.14755e-09
-3.14755e-09
-3.14754e-09
-3.14754e-09
-3.14753e-09
-3.14753e-09
-3.14752e-09
-3.14752e-09
-3.14751e-09
-3.14751e-09
-3.14751e-09
-3.1475e-09
-3.1475e-09
-3.14749e-09
-3.14749e-09
-3.14748e-09
-3.14748e-09
-3.14747e-09
-3.14747e-09
-3.14746e-09
-3.14746e-09
-3.14746e-09
-3.14745e-09
-3.14745e-09
-3.14744e-09
-3.14744e-09
-3.14743e-09
-3.14743e-09
-3.14743e-09
-3.14742e-09
-3.14742e-09
-3.14741e-09
-3.14741e-09
-3.1474e-09
-3.1474e-09
-3.1474e-09
-3.14739e-09
-3.14739e-09
-3.14738e-09
-3.14738e-09
-3.14738e-09
-3.14737e-09
-3.14737e-09
-3.14736e-09
-3.14736e-09
-3.14736e-09
-3.14735e-09
-3.14735e-09
-3.14735e-09
-3.14734e-09
-3.14734e-09
-3.14734e-09
-3.14733e-09
-3.14733e-09
-3.14733e-09
-3.14732e-09
-3.14732e-09
)
;

boundaryField
{
    BotWall
    {
        type            calculated;
        value           nonuniform 0();
    }
    FreeStream
    {
        type            calculated;
        value           nonuniform 0();
    }
    FrontNBack
    {
        type            empty;
        value           nonuniform 0();
    }
    LeftSide
    {
        type            symmetryPlane;
        value           nonuniform 0();
    }
    RightSide
    {
        type            symmetryPlane;
        value           nonuniform 0();
    }
    procBoundary3to0
    {
        type            processor;
        value           nonuniform List<scalar> 
50
(
-6.87223e-15
-6.85967e-15
-6.84705e-15
-6.83433e-15
-6.82147e-15
-6.80845e-15
-6.7952e-15
-6.78171e-15
-6.76791e-15
-6.75376e-15
-6.73922e-15
-6.72424e-15
-6.70875e-15
-6.6927e-15
-6.67603e-15
-6.65869e-15
-6.6406e-15
-6.62171e-15
-6.60193e-15
-6.5812e-15
-6.55945e-15
-6.53659e-15
-6.51255e-15
-6.48724e-15
-6.46058e-15
-6.43248e-15
-6.40286e-15
-6.37161e-15
-6.33865e-15
-6.30387e-15
-6.26719e-15
-6.22849e-15
-6.18769e-15
-6.14466e-15
-6.09931e-15
-6.05153e-15
-6.00122e-15
-5.94826e-15
-5.89254e-15
-5.83396e-15
-5.77241e-15
-5.70777e-15
-5.63995e-15
-5.56882e-15
-5.49429e-15
-5.41625e-15
-5.33459e-15
-5.24922e-15
-5.16004e-15
-5.06696e-15
)
;
    }
    procBoundary3to1
    {
        type            processor;
        value           nonuniform List<scalar> 
75
(
-9.0738e-15
-9.01074e-15
-8.94916e-15
-8.88902e-15
-8.83029e-15
-8.77294e-15
-8.71693e-15
-8.66224e-15
-8.60883e-15
-8.5567e-15
-8.5058e-15
-8.45612e-15
-8.40764e-15
-8.36034e-15
-8.31418e-15
-8.26916e-15
-8.22524e-15
-8.18241e-15
-8.14064e-15
-8.09991e-15
-8.06019e-15
-8.02147e-15
-7.98372e-15
-7.94692e-15
-7.91105e-15
-7.87608e-15
-7.84199e-15
-7.80876e-15
-7.77638e-15
-7.7448e-15
-7.71403e-15
-7.68403e-15
-7.65478e-15
-7.62627e-15
-7.59848e-15
-7.57138e-15
-7.54495e-15
-7.51919e-15
-7.49407e-15
-7.46957e-15
-7.44567e-15
-7.42237e-15
-7.39964e-15
-7.37746e-15
-7.35583e-15
-7.33472e-15
-7.31412e-15
-7.29402e-15
-7.2744e-15
-7.25525e-15
-7.23655e-15
-7.21828e-15
-7.20044e-15
-7.18302e-15
-7.16598e-15
-7.14933e-15
-7.13305e-15
-7.11711e-15
-7.10152e-15
-7.08626e-15
-7.0713e-15
-7.05664e-15
-7.04225e-15
-7.02813e-15
-7.01426e-15
-7.00061e-15
-6.98717e-15
-6.97393e-15
-6.96085e-15
-6.94793e-15
-6.93513e-15
-6.92244e-15
-6.90983e-15
-6.89728e-15
-6.88475e-15
)
;
    }
    procBoundary3to2
    {
        type            processor;
        value           uniform -3.14732e-09;
    }
    procBoundary3to4
    {
        type            processor;
        value           uniform 3.14796e-09;
    }
    procBoundary3to5
    {
        type            processor;
        value           nonuniform List<scalar> 
75
(
2.0651e-15
2.07611e-15
2.08677e-15
2.09709e-15
2.10706e-15
2.1167e-15
2.12599e-15
2.13496e-15
2.1436e-15
2.15191e-15
2.15989e-15
2.16756e-15
2.17492e-15
2.18197e-15
2.18872e-15
2.19518e-15
2.20134e-15
2.20722e-15
2.21283e-15
2.21816e-15
2.22323e-15
2.22804e-15
2.2326e-15
2.23692e-15
2.24099e-15
2.24484e-15
2.24847e-15
2.25188e-15
2.25507e-15
2.25807e-15
2.26087e-15
2.26348e-15
2.2659e-15
2.26814e-15
2.27021e-15
2.27211e-15
2.27384e-15
2.2754e-15
2.27682e-15
2.27807e-15
2.27917e-15
2.28013e-15
2.28093e-15
2.28159e-15
2.2821e-15
2.28247e-15
2.28269e-15
2.28277e-15
2.28269e-15
2.28247e-15
2.2821e-15
2.28156e-15
2.28087e-15
2.28001e-15
2.27898e-15
2.27778e-15
2.2764e-15
2.27483e-15
2.27306e-15
2.2711e-15
2.26892e-15
2.26652e-15
2.26389e-15
2.26102e-15
2.25791e-15
2.25453e-15
2.25087e-15
2.24693e-15
2.2427e-15
2.23815e-15
2.23328e-15
2.22807e-15
2.22251e-15
2.21658e-15
2.21028e-15
)
;
    }
    procBoundary3to6
    {
        type            processor;
        value           nonuniform List<scalar> 
50
(
1.15217e-15
1.17392e-15
1.19573e-15
1.2176e-15
1.2395e-15
1.26142e-15
1.28333e-15
1.30523e-15
1.32709e-15
1.3489e-15
1.37066e-15
1.39233e-15
1.41391e-15
1.43539e-15
1.45675e-15
1.47798e-15
1.49907e-15
1.52e-15
1.54077e-15
1.56136e-15
1.58175e-15
1.60195e-15
1.62194e-15
1.6417e-15
1.66123e-15
1.68053e-15
1.69957e-15
1.71836e-15
1.73688e-15
1.75512e-15
1.77308e-15
1.79076e-15
1.80814e-15
1.82521e-15
1.84198e-15
1.85844e-15
1.87457e-15
1.89039e-15
1.90587e-15
1.92103e-15
1.93585e-15
1.95033e-15
1.96447e-15
1.97827e-15
1.99172e-15
2.00482e-15
2.01758e-15
2.02999e-15
2.04204e-15
2.05375e-15
)
;
    }
}


// ************************************************************************* //
