/*--------------------------------*- C++ -*----------------------------------*\
| =========                 |                                                 |
| \\      /  F ield         | OpenFOAM: The Open Source CFD Toolbox           |
|  \\    /   O peration     | Version:  2.4.0                                 |
|   \\  /    A nd           | Web:      www.OpenFOAM.org                      |
|    \\/     M anipulation  |                                                 |
\*---------------------------------------------------------------------------*/
FoamFile
{
    version     2.0;
    format      ascii;
    class       volScalarField;
    location    "2.4";
    object      alpha1;
}
// * * * * * * * * * * * * * * * * * * * * * * * * * * * * * * * * * * * * * //

dimensions      [0 0 0 0 0 0 0];

internalField   nonuniform List<scalar> 
8000
(
1
1
1
1
1
1
1
1
1
1
1
1
1
1
1
1
1
1
1
0.999999
0.999997
0.999994
0.999986
0.999962
0.999834
0.17692
1.82552e-08
1.46279e-09
6.42885e-10
2.43783e-10
8.61816e-11
2.87427e-11
9.12791e-12
2.81696e-12
8.86295e-13
3.10905e-13
1.33601e-13
7.06933e-14
4.24633e-14
2.68381e-14
1.7185e-14
1.09933e-14
6.99494e-15
4.4219e-15
2.77644e-15
1.73143e-15
1.07244e-15
6.59781e-16
4.03186e-16
2.44737e-16
1
1
1
1
1
1
1
1
1
1
1
1
1
1
1
1
1
1
1
0.999999
0.999997
0.999994
0.999987
0.999964
0.999794
0.119979
3.82212e-09
1.33453e-09
5.62666e-10
2.11217e-10
7.42901e-11
2.47958e-11
7.97956e-12
2.56479e-12
8.83925e-13
3.5926e-13
1.79844e-13
1.05114e-13
6.61651e-14
4.26685e-14
2.7603e-14
1.77844e-14
1.13873e-14
7.24208e-15
4.57425e-15
2.8694e-15
1.78768e-15
1.10619e-15
6.79873e-16
4.15045e-16
1
1
1
1
1
1
1
1
1
1
1
1
1
1
1
1
1
1
1
0.999999
0.999997
0.999994
0.999987
0.999973
0.999971
0.0955477
4.15602e-09
1.32379e-09
5.10457e-10
1.89482e-10
6.64854e-11
2.23566e-11
7.39734e-12
2.54284e-12
9.89592e-13
4.66997e-13
2.62658e-13
1.63376e-13
1.05725e-13
6.90754e-14
4.50456e-14
2.9211e-14
1.88167e-14
1.20375e-14
7.64736e-15
4.82477e-15
3.02304e-15
1.88118e-15
1.16265e-15
7.13702e-16
1
1
1
1
1
1
1
1
1
1
1
1
1
1
1
1
1
1
1
0.999999
0.999997
0.999994
0.999988
0.99998
1
0.0513469
1.00158e-08
1.68738e-09
4.58996e-10
1.65862e-10
5.82932e-11
2.00287e-11
7.01025e-12
2.68625e-12
1.2161e-12
6.59211e-13
4.03628e-13
2.61353e-13
1.72217e-13
1.13611e-13
7.4599e-14
4.86663e-14
3.15281e-14
2.02817e-14
1.29554e-14
8.21767e-15
5.17627e-15
3.23795e-15
2.01153e-15
1.24108e-15
1
1
1
1
1
1
1
1
1
1
1
1
1
1
1
1
1
1
1
0.999999
0.999997
0.999994
0.999988
0.999989
1
0.0595789
3.30924e-08
4.25469e-09
4.8014e-10
1.54068e-10
5.36194e-11
1.90764e-11
7.30909e-12
3.2278e-12
1.69504e-12
1.01903e-12
6.58012e-13
4.36378e-13
2.90882e-13
1.93258e-13
1.27611e-13
8.36773e-14
5.44771e-14
3.52132e-14
2.25994e-14
1.44014e-14
9.11267e-15
5.72583e-15
3.57274e-15
2.21388e-15
1
1
1
1
1
1
1
1
1
1
1
1
1
1
1
1
1
1
1
0.999999
0.999997
0.999993
0.999989
0.999996
1
0.0940085
9.7147e-08
1.82279e-08
8.36458e-10
1.88895e-10
5.93761e-11
2.10255e-11
8.84566e-12
4.4849e-12
2.6416e-12
1.69627e-12
1.1296e-12
7.59681e-13
5.10163e-13
3.40688e-13
2.25942e-13
1.48758e-13
9.72286e-14
6.3089e-14
4.06424e-14
2.59951e-14
1.65084e-14
1.04097e-14
6.51802e-15
4.05279e-15
1
1
1
1
1
1
1
1
1
1
1
1
1
1
1
1
1
1
1
0.999999
0.999997
0.999994
0.99999
0.999998
1
0.204613
3.21608e-07
9.1482e-08
2.78025e-09
4.47483e-10
1.12726e-10
3.35041e-11
1.3663e-11
7.30581e-12
4.54045e-12
3.0067e-12
2.03222e-12
1.37702e-12
9.2909e-13
6.22751e-13
4.14389e-13
2.73703e-13
1.79451e-13
1.16796e-13
7.54659e-14
4.84098e-14
3.08312e-14
1.94958e-14
1.22405e-14
7.63123e-15
1
1
1
1
1
1
1
1
1
1
1
1
1
1
1
1
1
1
1
0.999999
0.999997
0.999994
0.99999
0.999997
1
0.373099
1.53397e-06
4.91604e-07
1.21741e-08
1.73624e-09
3.80792e-10
8.68201e-11
2.79577e-11
1.36447e-11
8.38745e-12
5.58497e-12
3.79493e-12
2.58102e-12
1.74652e-12
1.17368e-12
7.82889e-13
5.18304e-13
3.40594e-13
2.22168e-13
1.43861e-13
9.2479e-14
5.90195e-14
3.73948e-14
2.35238e-14
1.46929e-14
1
1
1
1
1
1
1
1
1
1
1
1
1
1
1
1
1
1
1
0.999999
0.999997
0.999995
0.999991
0.999996
1
0.602301
2.66467e-05
3.04093e-06
5.76521e-08
8.00423e-09
1.70808e-09
3.34406e-10
8.00914e-11
3.03293e-11
1.68459e-11
1.09348e-11
7.39606e-12
5.03129e-12
3.409e-12
2.29443e-12
1.53281e-12
1.01625e-12
6.68715e-13
4.3675e-13
2.83143e-13
1.82216e-13
1.16409e-13
7.38274e-14
4.64823e-14
2.90556e-14
1
1
1
1
1
1
1
1
1
1
1
1
1
1
1
1
1
1
1
0.999999
0.999998
0.999995
0.999991
0.999995
1
0.907114
0.0112678
2.3011e-05
2.70384e-07
3.77727e-08
8.17292e-09
1.52799e-09
3.04161e-10
8.49867e-11
3.82914e-11
2.3038e-11
1.52552e-11
1.032e-11
6.98323e-12
4.6994e-12
3.1398e-12
2.08176e-12
1.36974e-12
8.94387e-13
5.79604e-13
3.72809e-13
2.38019e-13
1.50839e-13
9.4884e-14
5.92506e-14
1
1
1
1
1
1
1
1
1
1
1
1
1
1
1
1
1
1
1
0.999999
0.999998
0.999996
0.999992
0.999994
0.999998
1.00007
0.280896
0.000700925
1.14446e-06
1.6078e-07
3.69408e-08
6.90475e-09
1.27914e-09
2.89761e-10
1.01506e-10
5.34264e-11
3.38294e-11
2.25918e-11
1.52336e-11
1.02429e-11
6.8423e-12
4.53561e-12
2.9829e-12
1.94621e-12
1.25983e-12
8.0918e-13
5.1573e-13
3.26174e-13
2.04702e-13
1.27489e-13
1
1
1
1
1
1
1
1
1
1
1
1
1
1
1
1
1
1
1
0.999999
0.999998
0.999996
0.999993
0.999993
0.999997
0.999998
0.746245
0.00412272
4.67101e-06
4.16846e-07
1.21857e-07
2.14825e-08
3.72947e-09
7.7474e-10
2.41611e-10
1.17053e-10
7.16692e-11
4.73775e-11
3.1886e-11
2.14588e-11
1.43594e-11
9.53602e-12
6.28195e-12
4.10426e-12
2.65948e-12
1.7093e-12
1.08977e-12
6.89235e-13
4.32411e-13
2.69117e-13
1
1
1
1
1
1
1
1
1
1
1
1
1
1
1
1
1
1
1
0.999999
0.999998
0.999996
0.999993
0.999993
0.999996
0.999999
0.999738
0.182357
0.000687507
1.42081e-06
4.63982e-07
8.59738e-08
1.46367e-08
2.74845e-09
7.00892e-10
2.82141e-10
1.5846e-10
1.01829e-10
6.80055e-11
4.57086e-11
3.06066e-11
2.03494e-11
1.34203e-11
8.77541e-12
5.68904e-12
3.65682e-12
2.33088e-12
1.47342e-12
9.23679e-13
5.74236e-13
1
1
1
1
1
1
1
1
1
1
1
1
1
1
1
1
1
1
1
0.999999
0.999998
0.999997
0.999994
0.999993
0.999995
0.999998
1.00001
0.739849
0.00914682
8.99373e-06
1.44609e-06
2.16843e-07
3.41847e-08
6.26681e-09
1.55869e-09
6.01362e-10
3.27369e-10
2.07716e-10
1.38304e-10
9.30255e-11
6.24131e-11
4.15925e-11
2.74918e-11
1.80124e-11
1.1696e-11
7.52673e-12
4.80128e-12
3.03638e-12
1.90376e-12
1.1833e-12
1
1
1
1
1
1
1
1
1
1
1
1
1
1
1
1
1
1
1
0.999999
0.999999
0.999997
0.999994
0.999993
0.999994
0.999997
1
1.00002
0.231431
0.00109943
4.00991e-06
6.22729e-07
8.85694e-08
1.47748e-08
3.3758e-09
1.21985e-09
6.42928e-10
4.03509e-10
2.68126e-10
1.80566e-10
1.2143e-10
8.11354e-11
5.3766e-11
3.53059e-11
2.29663e-11
1.47981e-11
9.44651e-12
5.97559e-12
3.74598e-12
2.32704e-12
1
1
1
1
1
1
1
1
1
1
1
1
1
1
1
1
1
1
1
0.999999
0.999999
0.999997
0.999995
0.999993
0.999994
0.999996
0.999998
1
0.782206
0.0118328
6.88542e-05
1.03404e-06
1.36768e-07
2.26179e-08
5.41568e-09
2.07982e-09
1.13134e-09
7.18947e-10
4.80751e-10
3.253e-10
2.19722e-10
1.47428e-10
9.80785e-11
6.46323e-11
4.21761e-11
2.72495e-11
1.74328e-11
1.10459e-11
6.93282e-12
4.3101e-12
1
1
1
1
1
1
1
1
1
1
1
1
1
1
1
1
1
1
1
0.999999
0.999999
0.999998
0.999995
0.999994
0.999994
0.999996
0.999998
0.999999
1.00003
0.23815
0.00132058
2.62377e-06
2.60541e-07
3.75374e-08
8.54004e-09
3.32565e-09
1.84976e-09
1.18948e-09
8.00171e-10
5.43507e-10
3.68253e-10
2.47782e-10
1.65254e-10
1.09144e-10
7.13611e-11
4.61776e-11
2.95754e-11
1.8753e-11
1.17735e-11
7.3186e-12
1
1
1
1
1
1
1
1
1
1
1
1
1
1
1
1
1
1
1
1
0.999999
0.999998
0.999996
0.999994
0.999994
0.999995
0.999997
0.999999
1
0.70887
0.0027845
9.3351e-06
2.2756e-07
3.57991e-08
9.66524e-09
4.4323e-09
2.66626e-09
1.76457e-09
1.20035e-09
8.20006e-10
5.57857e-10
3.76643e-10
2.51985e-10
1.66914e-10
1.09416e-10
7.09634e-11
4.55394e-11
2.89231e-11
1.81834e-11
1.13151e-11
1
1
1
1
1
1
1
1
1
1
1
1
1
1
1
1
1
1
1
1
0.999999
0.999998
0.999996
0.999995
0.999995
0.999996
0.999997
0.999999
1
0.990513
0.0440852
0.00011647
1.5194e-07
3.18115e-08
1.04628e-08
5.57468e-09
3.56926e-09
2.41277e-09
1.65209e-09
1.13023e-09
7.68599e-10
5.184e-10
3.46384e-10
2.29107e-10
1.49938e-10
9.70755e-11
6.21917e-11
3.94373e-11
2.47553e-11
1.53795e-11
1
1
1
1
1
1
1
1
1
1
1
1
1
1
1
1
1
1
1
1
0.999999
0.999998
0.999997
0.999995
0.999995
0.999996
0.999997
0.999998
1
0.999985
0.341286
0.000316928
1.82231e-07
3.38163e-08
1.25285e-08
7.22578e-09
4.76448e-09
3.24888e-09
2.22772e-09
1.52234e-09
1.03316e-09
6.95149e-10
4.63235e-10
3.05513e-10
1.99314e-10
1.28605e-10
8.20947e-11
5.18655e-11
3.24308e-11
2.00663e-11
1.4757e-16
8.83897e-17
5.25919e-17
3.10848e-17
1.82509e-17
1.06442e-17
6.16633e-18
3.54816e-18
2.02777e-18
1.15093e-18
6.48713e-19
3.6307e-19
2.01748e-19
1.11286e-19
6.09264e-20
3.30987e-20
1.78381e-20
9.53447e-21
5.0527e-21
2.65395e-21
1.38123e-21
7.12054e-22
3.63506e-22
1.8372e-22
9.19099e-23
4.5505e-23
2.22944e-23
1.08077e-23
5.18367e-24
2.4596e-24
1.15441e-24
5.35837e-25
2.45904e-25
1.11528e-25
4.99647e-26
2.20961e-26
9.63792e-27
4.14226e-27
1.75214e-27
7.28409e-28
2.9714e-28
1.18717e-28
4.63533e-29
1.76426e-29
6.52603e-30
2.3377e-30
8.07407e-31
2.67433e-31
8.43639e-32
2.512e-32
2.51677e-16
1.51594e-16
9.07016e-17
5.39065e-17
3.18241e-17
1.86616e-17
1.08695e-17
6.288e-18
3.61278e-18
2.06142e-18
1.16803e-18
6.57137e-19
3.67047e-19
2.03509e-19
1.11985e-19
6.11445e-20
3.31181e-20
1.77894e-20
9.47357e-21
5.00021e-21
2.61486e-21
1.35447e-21
6.94754e-22
3.52806e-22
1.77338e-22
8.82202e-23
4.34296e-23
2.11552e-23
1.0196e-23
4.86155e-24
2.29292e-24
1.0695e-24
4.9319e-25
2.24753e-25
1.01161e-25
4.49409e-26
1.96887e-26
8.49762e-27
3.60879e-27
1.50591e-27
6.16459e-28
2.47089e-28
9.67589e-29
3.69236e-29
1.36893e-29
4.91315e-30
1.69956e-30
5.63563e-31
1.7788e-31
5.29482e-32
4.35155e-16
2.63536e-16
1.5853e-16
9.47232e-17
5.62175e-17
3.31396e-17
1.9403e-17
1.12829e-17
6.51601e-18
3.73698e-18
2.12817e-18
1.20335e-18
6.75494e-19
3.76384e-19
2.08132e-19
1.14195e-19
6.21501e-20
3.35433e-20
1.79476e-20
9.51716e-21
5.00009e-21
2.60191e-21
1.34072e-21
6.83951e-22
3.4536e-22
1.72593e-22
8.53564e-23
4.17707e-23
2.02253e-23
9.68848e-24
4.59075e-24
2.15118e-24
9.96525e-25
4.56166e-25
2.0622e-25
9.20014e-26
4.04702e-26
1.75347e-26
7.47395e-27
3.12949e-27
1.28514e-27
5.16593e-28
2.0282e-28
7.75731e-29
2.8816e-29
1.03586e-29
3.58761e-30
1.19054e-30
3.75868e-31
1.11836e-31
7.60516e-16
4.62872e-16
2.7981e-16
1.68004e-16
1.0019e-16
5.93429e-17
3.49095e-17
2.03953e-17
1.18333e-17
6.81784e-18
3.90046e-18
2.21549e-18
1.24927e-18
6.99203e-19
3.88357e-19
2.14013e-19
1.16983e-19
6.34087e-20
3.40717e-20
1.81435e-20
9.57195e-21
5.00163e-21
2.58789e-21
1.32561e-21
6.72123e-22
3.3728e-22
1.67495e-22
8.23083e-23
4.00202e-23
1.9251e-23
9.15992e-24
4.31001e-24
2.00474e-24
9.21347e-25
4.18129e-25
1.87237e-25
8.26562e-26
3.59332e-26
1.53642e-26
6.4519e-27
2.65647e-27
1.07034e-27
4.21084e-28
1.61331e-28
6.00124e-29
2.15949e-29
7.48373e-30
2.48378e-30
7.83768e-31
2.32867e-31
1.36243e-15
8.32713e-16
5.05481e-16
3.04752e-16
1.82482e-16
1.08522e-16
6.40955e-17
3.75954e-17
2.18988e-17
1.26665e-17
7.2746e-18
4.14798e-18
2.34792e-18
1.31911e-18
7.3544e-19
4.06801e-19
2.2319e-19
1.21422e-19
6.54823e-20
3.4996e-20
1.85291e-20
9.7165e-21
5.04527e-21
2.59353e-21
1.31967e-21
6.64586e-22
3.31218e-22
1.63349e-22
7.97108e-23
3.8482e-23
1.8376e-23
8.67719e-24
4.05016e-24
1.86772e-24
8.50397e-25
3.82001e-25
1.69135e-25
7.37321e-26
3.16066e-26
1.33033e-26
5.48864e-27
2.21539e-27
8.72847e-28
3.34803e-28
1.24642e-28
4.48712e-29
1.55505e-29
5.15862e-30
1.62603e-30
4.82176e-31
2.50251e-15
1.5346e-15
9.34597e-16
5.65288e-16
3.39571e-16
2.02583e-16
1.20027e-16
7.06216e-17
4.12635e-17
2.39407e-17
1.37917e-17
7.88798e-18
4.47846e-18
2.52369e-18
1.41126e-18
7.82961e-19
4.30845e-19
2.35085e-19
1.27152e-19
6.8152e-20
3.61882e-20
1.90314e-20
9.91039e-21
5.10909e-21
2.60715e-21
1.31677e-21
6.58171e-22
3.25547e-22
1.59328e-22
7.71455e-23
3.69467e-23
1.74968e-23
8.18988e-24
3.7871e-24
1.72884e-24
7.78532e-25
3.45504e-25
1.50938e-25
6.48261e-26
2.73313e-26
1.12924e-26
4.5632e-27
1.7994e-27
6.90577e-28
2.57142e-28
9.25538e-29
3.20553e-29
1.06216e-29
3.34178e-30
9.88047e-31
4.7244e-15
2.90451e-15
1.77333e-15
1.07524e-15
6.47475e-16
3.87203e-16
2.29956e-16
1.35621e-16
7.94267e-17
4.61894e-17
2.667e-17
1.52885e-17
8.70001e-18
4.91381e-18
2.75409e-18
1.53143e-18
8.44622e-19
4.61896e-19
2.50387e-19
1.34503e-19
7.15776e-20
3.77254e-20
1.96881e-20
1.0172e-20
5.20217e-21
2.63322e-21
1.31911e-21
6.53926e-22
3.20761e-22
1.55658e-22
7.47139e-23
3.54592e-23
1.66329e-23
7.7069e-24
3.52502e-24
1.59022e-24
7.06865e-25
3.09248e-25
1.32982e-25
5.61228e-26
2.32056e-26
9.38189e-27
3.70029e-27
1.41994e-27
5.28485e-28
1.90059e-28
6.5741e-29
2.17434e-29
6.82341e-30
2.01014e-30
9.11261e-15
5.61217e-15
3.43233e-15
2.08463e-15
1.25737e-15
7.53159e-16
4.48017e-16
2.64651e-16
1.5524e-16
9.04207e-17
5.2292e-17
3.00234e-17
1.7112e-17
9.68037e-18
5.43447e-18
3.02683e-18
1.6721e-18
9.15908e-19
4.97305e-19
2.67573e-19
1.42621e-19
7.52887e-20
3.93538e-20
2.03647e-20
1.04314e-20
5.28856e-21
2.65355e-21
1.31757e-21
6.47333e-22
3.14641e-22
1.51263e-22
7.19001e-23
3.37762e-23
1.5672e-23
7.17736e-24
3.24159e-24
1.44234e-24
6.31526e-25
2.71734e-25
1.14725e-25
4.74434e-26
1.91788e-26
7.56118e-27
2.89942e-27
1.07797e-27
3.87105e-28
1.3364e-28
4.40891e-29
1.37899e-29
4.04386e-30
1.80333e-14
1.11134e-14
6.80092e-15
4.13289e-15
2.4942e-15
1.49487e-15
8.89746e-16
5.25904e-16
3.08676e-16
1.79903e-16
1.04109e-16
5.98133e-17
3.41143e-17
1.93135e-17
1.08518e-17
6.04978e-18
3.34523e-18
1.83413e-18
9.96811e-19
5.36835e-19
2.86409e-19
1.51334e-19
7.91756e-20
4.10087e-20
2.10249e-20
1.0669e-20
5.35803e-21
2.66285e-21
1.30946e-21
6.37038e-22
3.06518e-22
1.45816e-22
6.8551e-23
3.18286e-23
1.45847e-23
6.58983e-24
2.93293e-24
1.28429e-24
5.52548e-25
2.33208e-25
9.63861e-26
3.89313e-26
1.53313e-26
5.87053e-27
2.17869e-27
7.80654e-28
2.68779e-28
8.83791e-29
2.75276e-29
8.02849e-30
3.67326e-14
2.26097e-14
1.3818e-14
8.38554e-15
5.05381e-15
3.02499e-15
1.79824e-15
1.06165e-15
6.22447e-16
3.62401e-16
2.09538e-16
1.20286e-16
6.8558e-17
3.87968e-17
2.17965e-17
1.21528e-17
6.72113e-18
3.68588e-18
2.0037e-18
1.07939e-18
5.76033e-19
3.04456e-19
1.59333e-19
8.25501e-20
4.23351e-20
2.1489e-20
1.07951e-20
5.36655e-21
2.63977e-21
1.28457e-21
6.18238e-22
2.94167e-22
1.38313e-22
6.42226e-23
2.94269e-23
1.32936e-23
5.91458e-24
2.5886e-24
1.11292e-24
4.69282e-25
1.9373e-25
7.81371e-26
3.07176e-26
1.17379e-26
4.34562e-27
1.55265e-27
5.32769e-28
1.74474e-28
5.40729e-29
1.56687e-29
7.88041e-14
4.83475e-14
2.94416e-14
1.77971e-14
1.06823e-14
6.36734e-15
3.76916e-15
2.21582e-15
1.29359e-15
7.49888e-16
4.31822e-16
2.46906e-16
1.40215e-16
7.91192e-17
4.43625e-17
2.47002e-17
1.36439e-17
7.47401e-18
4.05883e-18
2.1844e-18
1.16473e-18
6.15107e-19
3.21655e-19
1.66518e-19
8.53317e-20
4.32807e-20
2.1726e-20
1.07926e-20
5.30488e-21
2.57956e-21
1.24054e-21
5.89801e-22
2.7708e-22
1.28538e-22
5.88364e-23
2.6549e-23
1.17971e-23
5.15567e-24
2.21295e-24
9.31399e-25
3.83696e-25
1.5439e-25
6.05329e-26
2.30616e-26
8.50905e-27
3.02853e-27
1.03463e-27
3.37092e-28
1.03831e-28
2.98556e-29
1.66164e-13
1.01792e-13
6.18694e-14
3.73128e-14
2.23361e-14
1.32745e-14
7.83411e-15
4.5908e-15
2.67028e-15
1.54209e-15
8.84343e-16
5.03346e-16
2.84516e-16
1.59913e-16
8.94012e-17
4.96699e-17
2.73856e-17
1.4976e-17
8.12071e-18
4.36456e-18
2.32456e-18
1.22644e-18
6.40737e-19
3.31392e-19
1.69658e-19
8.59672e-20
4.31108e-20
2.1394e-20
1.05049e-20
5.10273e-21
2.45127e-21
1.16408e-21
5.46198e-22
2.53048e-22
1.15663e-22
5.21093e-23
2.31147e-23
1.00825e-23
4.31846e-24
1.81329e-24
7.45041e-25
2.98914e-25
1.16818e-25
4.43448e-26
1.6296e-26
5.7738e-27
1.96234e-27
6.35547e-28
1.94375e-28
5.53964e-29
3.54042e-13
2.16494e-13
1.31313e-13
7.90074e-14
4.71556e-14
2.7926e-14
1.64138e-14
9.57593e-15
5.54412e-15
3.1858e-15
1.8178e-15
1.02904e-15
5.78268e-16
3.23109e-16
1.79612e-16
9.92838e-17
5.44782e-17
2.96497e-17
1.60076e-17
8.56978e-18
4.54928e-18
2.39389e-18
1.24823e-18
6.44545e-19
3.29446e-19
1.66662e-19
8.34392e-20
4.1338e-20
2.02634e-20
9.82578e-21
4.71174e-21
2.23343e-21
1.04593e-21
4.83584e-22
2.2056e-22
9.9139e-23
4.3867e-23
1.90831e-23
8.14976e-24
3.41119e-24
1.39673e-24
5.5826e-25
2.1727e-25
8.21018e-26
3.00197e-26
1.05768e-26
3.57216e-27
1.14859e-27
3.483e-28
9.82213e-29
7.29111e-13
4.45381e-13
2.69738e-13
1.61974e-13
9.6436e-14
5.69445e-14
3.33635e-14
1.93995e-14
1.11908e-14
6.40528e-15
3.64057e-15
2.05317e-15
1.14894e-15
6.38837e-16
3.53153e-16
1.94065e-16
1.05846e-16
5.72569e-17
3.07497e-17
1.63988e-17
8.68347e-18
4.56301e-18
2.37516e-18
1.2241e-18
6.24523e-19
3.15351e-19
1.57581e-19
7.79177e-20
3.8118e-20
1.84455e-20
8.82629e-21
4.17449e-21
1.95039e-21
8.99547e-22
4.09208e-22
1.83421e-22
8.09175e-23
3.50875e-23
1.49325e-23
6.22658e-24
2.53905e-24
1.0103e-24
3.91285e-25
1.47069e-25
5.34579e-26
1.87119e-26
6.27336e-27
2.00022e-27
6.00571e-28
1.67302e-28
1.43245e-12
8.7378e-13
5.28206e-13
3.16453e-13
1.87897e-13
1.10611e-13
6.45998e-14
3.74427e-14
2.15302e-14
1.22842e-14
6.96069e-15
3.91584e-15
2.18584e-15
1.21033e-15
6.65586e-16
3.63506e-16
1.97055e-16
1.05968e-16
5.66573e-17
3.00872e-17
1.58726e-17
8.30941e-18
4.30995e-18
2.21355e-18
1.12624e-18
5.67374e-19
2.8285e-19
1.39523e-19
6.80882e-20
3.28652e-20
1.56853e-20
7.3985e-21
3.44691e-21
1.58502e-21
7.18756e-22
3.21087e-22
1.41139e-22
6.09636e-23
2.58365e-23
1.07247e-23
4.35184e-24
1.72238e-24
6.63191e-25
2.4768e-25
8.93983e-26
3.10488e-26
1.03185e-26
3.25709e-27
9.66422e-28
2.6529e-28
2.65405e-12
1.61875e-12
9.78003e-13
5.85355e-13
3.47083e-13
2.03984e-13
1.18912e-13
6.87896e-14
3.94794e-14
2.24769e-14
1.27018e-14
7.1232e-15
3.96169e-15
2.18249e-15
1.1939e-15
6.48585e-16
3.49607e-16
1.86902e-16
9.94724e-17
5.26482e-17
2.77013e-17
1.44761e-17
7.49959e-18
3.84701e-18
1.95344e-18
9.81636e-19
4.88107e-19
2.40133e-19
1.16867e-19
5.62515e-20
2.67685e-20
1.25878e-20
5.84582e-21
2.67902e-21
1.21047e-21
5.38661e-22
2.35796e-22
1.01395e-22
4.27641e-23
1.76584e-23
7.12454e-24
2.8022e-24
1.07161e-24
3.9721e-25
1.42185e-25
4.89282e-26
1.60924e-26
5.01952e-27
1.46857e-27
3.96178e-28
4.50402e-12
2.74424e-12
1.65555e-12
9.89007e-13
5.85108e-13
3.4302e-13
1.99437e-13
1.15052e-13
6.5836e-14
3.73546e-14
2.10374e-14
1.17542e-14
6.51154e-15
3.57252e-15
1.95047e-15
1.05949e-15
5.71144e-16
3.05358e-16
1.62359e-16
8.57733e-17
4.50107e-17
2.34717e-17
1.21358e-17
6.21072e-18
3.1454e-18
1.57626e-18
7.81569e-19
3.83402e-19
1.86044e-19
8.9277e-20
4.23517e-20
1.98506e-20
9.18694e-21
4.19472e-21
1.88782e-21
8.36488e-22
3.6446e-22
1.55924e-22
6.53963e-23
2.68394e-23
1.07565e-23
4.19975e-24
1.59315e-24
5.85305e-25
2.07463e-25
7.06115e-26
2.2937e-26
7.05258e-27
2.0285e-27
5.3567e-28
6.96849e-12
4.24723e-12
2.56222e-12
1.53007e-12
9.04622e-13
5.29923e-13
3.07823e-13
1.77393e-13
1.01378e-13
5.74117e-14
3.22514e-14
1.79656e-14
9.91814e-15
5.42824e-15
2.96037e-15
1.60799e-15
8.67584e-16
4.64868e-16
2.47811e-16
1.31312e-16
6.90648e-17
3.59876e-17
1.85617e-17
9.47489e-18
4.78598e-18
2.392e-18
1.1828e-18
5.78595e-19
2.79935e-19
1.33914e-19
6.33155e-20
2.95707e-20
1.36328e-20
6.19884e-21
2.77719e-21
1.22448e-21
5.30574e-22
2.25597e-22
9.39693e-23
3.82731e-23
1.52099e-23
5.88327e-24
2.20879e-24
8.02223e-25
2.80738e-25
9.41905e-26
3.01033e-26
9.08454e-27
2.5557e-27
6.56643e-28
9.455e-12
5.7523e-12
3.46387e-12
2.06467e-12
1.21871e-12
7.13088e-13
4.1396e-13
2.38578e-13
1.36437e-13
7.73575e-14
4.35349e-14
2.43179e-14
1.34844e-14
7.43062e-15
4.07944e-15
2.22529e-15
1.20336e-15
6.47055e-16
3.45727e-16
1.83194e-16
9.62005e-17
5.00211e-17
2.57433e-17
1.31102e-17
6.60619e-18
3.29342e-18
1.62432e-18
7.92478e-19
3.82327e-19
1.82307e-19
8.58715e-20
3.99283e-20
1.83124e-20
8.27664e-21
3.68255e-21
1.61112e-21
6.92197e-22
2.91615e-22
1.20263e-22
4.8458e-23
1.90358e-23
7.27231e-24
2.69402e-24
9.64391e-25
3.32204e-25
1.09537e-25
3.43335e-26
1.01332e-26
2.77689e-27
6.90644e-28
1.22855e-11
7.4448e-12
4.46623e-12
2.65248e-12
1.561e-12
9.11506e-13
5.28415e-13
3.04369e-13
1.74125e-13
9.88921e-14
5.57707e-14
3.12319e-14
1.73637e-14
9.59468e-15
5.28413e-15
2.89333e-15
1.5723e-15
8.47124e-16
4.52326e-16
2.39245e-16
1.25308e-16
6.49767e-17
3.33444e-17
1.69262e-17
8.49692e-18
4.21726e-18
2.06899e-18
1.00317e-18
4.80641e-19
2.275e-19
1.06331e-19
4.90465e-20
2.23097e-20
9.99775e-21
4.40909e-21
1.91109e-21
8.12983e-22
3.38892e-22
1.38183e-22
5.50039e-23
2.1325e-23
8.03164e-24
2.92962e-24
1.03115e-24
3.48657e-25
1.12611e-25
3.44846e-26
9.90903e-27
2.63083e-27
6.29222e-28
6.97218e-33
4.16995e-33
2.47581e-33
1.45903e-33
8.53288e-34
4.95151e-34
2.85044e-34
1.62756e-34
9.21579e-35
5.17383e-35
2.87932e-35
1.58809e-35
8.67918e-36
4.69899e-36
2.51976e-36
1.33796e-36
7.03321e-37
3.65925e-37
1.88387e-37
9.59454e-38
4.8328e-38
2.40693e-38
1.18496e-38
5.76494e-39
2.7709e-39
1.31539e-39
6.16552e-40
2.85255e-40
1.3023e-40
5.86493e-41
2.60465e-41
1.14031e-41
4.91969e-42
2.09091e-42
8.75102e-43
3.60533e-43
1.4616e-43
5.82821e-44
2.28502e-44
8.80455e-45
3.33274e-45
1.23874e-45
4.51899e-46
1.61727e-46
5.67542e-47
1.95199e-47
6.57715e-48
2.17049e-48
7.01704e-49
2.2269e-49
6.99057e-50
2.22578e-50
7.72087e-51
3.36867e-51
2.07509e-51
1.67851e-51
1.53941e-51
1.47333e-51
1.42839e-51
1.39032e-51
1.35522e-51
1.322e-51
1.2903e-51
1.25994e-51
1.23082e-51
1.20283e-51
1.1759e-51
1.14996e-51
1.12498e-51
1.10093e-51
1.07778e-51
1.05556e-51
1.03429e-51
1.01402e-51
9.94817e-52
9.76789e-52
9.60049e-52
9.44743e-52
9.31041e-52
9.19144e-52
9.09283e-52
9.01721e-52
8.96762e-52
8.94752e-52
8.96085e-52
9.01217e-52
9.10673e-52
9.25063e-52
9.45099e-52
9.71624e-52
1.00563e-51
1.04831e-51
1.10108e-51
1.16566e-51
1.24413e-51
1.33901e-51
1.45338e-51
1.59101e-51
1.75648e-51
1.95546e-51
2.19489e-51
2.48331e-51
2.83127e-51
3.25173e-51
3.76074e-51
4.3781e-51
5.12835e-51
6.04184e-51
7.15622e-51
8.51819e-51
1.01857e-50
1.22309e-50
1.47434e-50
1.78351e-50
2.16451e-50
2.63473e-50
3.21587e-50
3.93507e-50
4.82629e-50
5.93206e-50
7.3057e-50
9.0141e-50
1.11413e-49
1.37927e-49
1.7101e-49
2.1233e-49
2.63987e-49
3.28621e-49
4.09557e-49
5.10979e-49
6.3815e-49
7.97694e-49
9.97941e-49
1.24936e-48
1.56511e-48
1.9617e-48
2.45985e-48
3.0855e-48
3.87114e-48
4.85738e-48
6.09489e-48
7.64687e-48
9.5919e-48
1.20276e-47
1.50749e-47
1.88834e-47
2.36373e-47
2.95632e-47
3.69389e-47
4.61035e-47
5.747e-47
7.15391e-47
8.89158e-47
1.10328e-46
1.36647e-46
1.68912e-46
2.08357e-46
2.56437e-46
3.14864e-46
3.85638e-46
4.7109e-46
5.73916e-46
6.97222e-46
8.44566e-46
1.02e-45
1.22813e-45
1.47412e-45
1.7638e-45
2.10363e-45
2.50082e-45
2.96333e-45
3.49991e-45
4.12013e-45
4.83446e-45
5.65431e-45
6.59206e-45
7.66115e-45
8.87617e-45
1.0253e-44
1.18092e-44
1.35637e-44
1.55377e-44
1.77549e-44
2.02418e-44
2.30285e-44
2.61489e-44
2.96419e-44
3.35522e-44
3.79304e-44
4.28344e-44
4.833e-44
5.44914e-44
6.14018e-44
6.91534e-44
7.78473e-44
8.7593e-44
9.85064e-44
1.10708e-43
1.24321e-43
1.39464e-43
1.56251e-43
1.74778e-43
1.95124e-43
2.17335e-43
2.4142e-43
2.67338e-43
2.9499e-43
3.24208e-43
3.5475e-43
3.86286e-43
4.18403e-43
4.50596e-43
4.8228e-43
5.12796e-43
5.41424e-43
5.67412e-43
5.89997e-43
6.0844e-43
6.22061e-43
6.30276e-43
6.32627e-43
6.28817e-43
6.18733e-43
6.02459e-43
5.80283e-43
5.52693e-43
5.20356e-43
4.84095e-43
4.44847e-43
4.03626e-43
3.61467e-43
3.19384e-43
2.7832e-43
2.39107e-43
2.02438e-43
1.68841e-43
1.38673e-43
1.12119e-43
8.92071e-44
6.98263e-44
5.3756e-44
4.06943e-44
3.02885e-44
2.21637e-44
1.59462e-44
1.12832e-44
7.85535e-45
5.38504e-45
3.6392e-45
2.42858e-45
1.60419e-45
1.05223e-45
6.88176e-46
4.51025e-46
2.97884e-46
1.99374e-46
1.35863e-46
9.45346e-47
6.71931e-47
4.86921e-47
3.58419e-47
2.66787e-47
1.99908e-47
1.50201e-47
1.12803e-47
8.44771e-48
6.29788e-48
4.66856e-48
3.43857e-48
2.51527e-48
1.82685e-48
1.31737e-48
9.43251e-49
6.70736e-49
4.73824e-49
3.32673e-49
2.32278e-49
1.61401e-49
1.11714e-49
7.71034e-50
5.31281e-50
3.65919e-50
2.52177e-50
1.73981e-50
1.20101e-50
8.27779e-51
5.67226e-51
3.83838e-51
2.5414e-51
1.62746e-51
9.94382e-52
5.70783e-52
3.02429e-52
1.44929e-52
6.12881e-53
2.21611e-53
6.55957e-54
1.48671e-54
2.28937e-55
1.79403e-56
1.46687e-32
8.76135e-33
5.19445e-33
3.0565e-33
1.78465e-33
1.03383e-33
5.9406e-34
3.38549e-34
1.9131e-34
1.07175e-34
5.95113e-35
3.27469e-35
1.7853e-35
9.64119e-36
5.15621e-36
2.73032e-36
1.43113e-36
7.42376e-37
3.81016e-37
1.93432e-37
9.71113e-38
4.82007e-38
2.36464e-38
1.14626e-38
5.48895e-39
2.59571e-39
1.21188e-39
5.58422e-40
2.53884e-40
1.13852e-40
5.03423e-41
2.19417e-41
9.42327e-42
3.98634e-42
1.66047e-42
6.80783e-43
2.74626e-43
1.08958e-43
4.24996e-44
1.62906e-44
6.13376e-45
2.2676e-45
8.22726e-46
2.92817e-46
1.02186e-46
3.49507e-47
1.17133e-47
3.8474e-48
1.24089e-48
3.95771e-49
1.27739e-49
4.45683e-50
1.92658e-50
1.16582e-50
9.3358e-51
8.55766e-51
8.22376e-51
8.01856e-51
7.8536e-51
7.70445e-51
7.56423e-51
7.43078e-51
7.3032e-51
7.18092e-51
7.06352e-51
6.95066e-51
6.84209e-51
6.73765e-51
6.63726e-51
6.54099e-51
6.449e-51
6.36158e-51
6.27919e-51
6.20243e-51
6.13205e-51
6.06899e-51
6.01438e-51
5.96956e-51
5.93607e-51
5.91573e-51
5.91063e-51
5.92319e-51
5.95618e-51
6.01281e-51
6.09682e-51
6.21252e-51
6.36501e-51
6.56026e-51
6.80536e-51
7.10876e-51
7.48059e-51
7.93308e-51
8.48102e-51
9.14239e-51
9.93917e-51
1.08982e-50
1.20526e-50
1.34427e-50
1.51187e-50
1.71422e-50
1.95895e-50
2.25551e-50
2.6156e-50
3.05374e-50
3.58795e-50
4.24063e-50
5.03967e-50
6.0198e-50
7.22432e-50
8.70724e-50
1.0536e-49
1.2795e-49
1.55897e-49
1.90522e-49
2.33483e-49
2.86856e-49
3.5325e-49
4.35943e-49
5.39056e-49
6.67777e-49
8.28636e-49
1.02987e-48
1.28185e-48
1.59767e-48
1.99387e-48
2.49129e-48
3.11627e-48
3.90205e-48
4.89061e-48
6.13492e-48
7.70181e-48
9.67562e-48
1.21626e-47
1.52968e-47
1.92468e-47
2.42248e-47
3.04975e-47
3.83997e-47
4.83512e-47
6.08781e-47
7.66378e-47
9.64515e-47
1.21342e-46
1.52583e-46
1.91753e-46
2.40806e-46
3.02154e-46
3.78766e-46
4.7428e-46
5.93146e-46
7.40782e-46
9.23759e-46
1.15002e-45
1.42911e-45
1.77247e-45
2.19373e-45
2.70906e-45
3.33755e-45
4.10162e-45
5.02747e-45
6.14561e-45
7.49137e-45
9.10544e-45
1.10344e-44
1.33315e-44
1.6057e-44
1.92791e-44
2.30741e-44
2.75279e-44
3.27357e-44
3.88035e-44
4.58484e-44
5.39991e-44
6.33973e-44
7.41986e-44
8.65736e-44
1.00709e-43
1.16809e-43
1.351e-43
1.55831e-43
1.7928e-43
2.05755e-43
2.35605e-43
2.69226e-43
3.07063e-43
3.49628e-43
3.975e-43
4.51345e-43
5.11919e-43
5.80077e-43
6.56787e-43
7.43134e-43
8.40324e-43
9.49679e-43
1.07264e-42
1.21073e-42
1.36556e-42
1.53878e-42
1.73202e-42
1.94683e-42
2.18462e-42
2.44657e-42
2.73347e-42
3.04569e-42
3.38298e-42
3.74437e-42
4.12803e-42
4.53118e-42
4.94995e-42
5.37933e-42
5.81314e-42
6.24407e-42
6.66376e-42
7.063e-42
7.43192e-42
7.76041e-42
8.03843e-42
8.2565e-42
8.40618e-42
8.48048e-42
8.47438e-42
8.38508e-42
8.21235e-42
7.95861e-42
7.62896e-42
7.23102e-42
6.77462e-42
6.27143e-42
5.73437e-42
5.17706e-42
4.61313e-42
4.05564e-42
3.51649e-42
3.00594e-42
2.53226e-42
2.10151e-42
1.71748e-42
1.38179e-42
1.09405e-42
8.52222e-43
6.52944e-43
4.91944e-43
3.64427e-43
2.65421e-43
1.90071e-43
1.33858e-43
9.27467e-44
6.32677e-44
4.25363e-44
2.82303e-44
1.8536e-44
1.20776e-44
7.84014e-45
5.09535e-45
3.33397e-45
2.20897e-45
1.48958e-45
1.02579e-45
7.22129e-46
5.18897e-46
3.79279e-46
2.80736e-46
2.09454e-46
1.56868e-46
1.17535e-46
8.78785e-47
6.54461e-47
4.84874e-47
3.57081e-47
2.6127e-47
1.89886e-47
1.37074e-47
9.82917e-48
7.00289e-48
4.95898e-48
3.49201e-48
2.44682e-48
1.70734e-48
1.18754e-48
8.24258e-49
5.71602e-49
3.96502e-49
2.7536e-49
1.91495e-49
1.33226e-49
9.2476e-50
6.37307e-50
4.32888e-50
2.87021e-50
1.83592e-50
1.11761e-50
6.37609e-51
3.35053e-51
1.58938e-51
6.64225e-52
2.37019e-52
6.91497e-53
1.54313e-53
2.33751e-54
1.80039e-55
3.09402e-32
1.84582e-32
1.09296e-32
6.42231e-33
3.74439e-33
2.16569e-33
1.24239e-33
7.06781e-34
3.98651e-34
2.22894e-34
1.23513e-34
6.78177e-35
3.68894e-35
1.98744e-35
1.06028e-35
5.59998e-36
2.92745e-36
1.51435e-36
7.74982e-37
3.92264e-37
1.96325e-37
9.71333e-38
4.74944e-38
2.29446e-38
1.09486e-38
5.15886e-39
2.39959e-39
1.10149e-39
4.98823e-40
2.22791e-40
9.81061e-41
4.25788e-41
1.82072e-41
7.66814e-42
3.17965e-42
1.29762e-42
5.20992e-43
2.05711e-43
7.98458e-44
3.04533e-44
1.14082e-44
4.1958e-45
1.51436e-45
5.36132e-46
1.86108e-46
6.3328e-47
2.11274e-47
6.92204e-48
2.2412e-48
7.31919e-49
2.5573e-49
1.08556e-49
6.37831e-50
5.01518e-50
4.57825e-50
4.41185e-50
4.3243e-50
4.26082e-50
4.20605e-50
4.15567e-50
4.10836e-50
4.06364e-50
4.02122e-50
3.98093e-50
3.94261e-50
3.90617e-50
3.87157e-50
3.83882e-50
3.80802e-50
3.7793e-50
3.75292e-50
3.72922e-50
3.70862e-50
3.69168e-50
3.67908e-50
3.67165e-50
3.67034e-50
3.6763e-50
3.69087e-50
3.71561e-50
3.75234e-50
3.80317e-50
3.87059e-50
3.95749e-50
4.06728e-50
4.20399e-50
4.3724e-50
4.57823e-50
4.82833e-50
5.131e-50
5.49629e-50
5.93645e-50
6.46644e-50
7.10467e-50
7.87376e-50
8.8016e-50
9.9227e-50
1.12798e-49
1.29258e-49
1.49267e-49
1.73644e-49
2.0341e-49
2.39837e-49
2.84514e-49
3.39426e-49
4.07054e-49
4.90508e-49
5.9368e-49
7.21454e-49
8.7996e-49
1.0769e-48
1.32194e-48
1.62728e-48
2.00826e-48
2.4842e-48
3.07949e-48
3.82488e-48
4.75923e-48
5.93164e-48
7.40416e-48
9.2553e-48
1.15844e-47
1.45174e-47
1.82134e-47
2.28742e-47
2.87554e-47
3.61806e-47
4.55596e-47
5.74111e-47
7.23917e-47
9.13319e-47
1.15282e-46
1.45569e-46
1.83868e-46
2.32295e-46
2.93513e-46
3.70881e-46
4.68621e-46
5.92037e-46
7.47786e-46
9.44206e-46
1.19172e-45
1.50336e-45
1.89533e-45
2.38777e-45
3.00565e-45
3.77981e-45
4.74823e-45
5.9575e-45
7.46462e-45
9.33901e-45
1.16649e-44
1.45441e-44
1.80989e-44
2.24759e-44
2.78497e-44
3.44273e-44
4.24528e-44
5.22132e-44
6.40437e-44
7.83347e-44
9.5538e-44
1.16175e-43
1.40843e-43
1.70223e-43
2.05092e-43
2.46324e-43
2.94907e-43
3.51952e-43
4.18697e-43
4.96526e-43
5.86975e-43
6.91745e-43
8.12719e-43
9.51982e-43
1.11184e-42
1.29483e-42
1.50377e-42
1.7418e-42
2.01242e-42
2.31953e-42
2.66757e-42
3.06151e-42
3.50705e-42
4.01066e-42
4.57968e-42
5.22253e-42
5.94879e-42
6.76931e-42
7.69632e-42
8.74355e-42
9.92631e-42
1.12614e-41
1.27672e-41
1.44634e-41
1.63707e-41
1.85104e-41
2.09042e-41
2.35729e-41
2.65359e-41
2.98098e-41
3.34074e-41
3.7336e-41
4.1596e-41
4.6179e-41
5.10665e-41
5.62278e-41
6.16189e-41
6.71816e-41
7.28426e-41
7.85135e-41
8.4092e-41
8.94636e-41
9.4504e-41
9.90833e-41
1.0307e-40
1.06339e-40
1.08771e-40
1.10269e-40
1.10753e-40