/*--------------------------------*- C++ -*----------------------------------*\
| =========                 |                                                 |
| \\      /  F ield         | OpenFOAM: The Open Source CFD Toolbox           |
|  \\    /   O peration     | Version:  2.4.0                                 |
|   \\  /    A nd           | Web:      www.OpenFOAM.org                      |
|    \\/     M anipulation  |                                                 |
\*---------------------------------------------------------------------------*/
FoamFile
{
    version     2.0;
    format      ascii;
    class       volScalarField;
    location    "2.4";
    object      p;
}
// * * * * * * * * * * * * * * * * * * * * * * * * * * * * * * * * * * * * * //

dimensions      [1 -1 -2 0 0 0 0];

internalField   nonuniform List<scalar> 
8000
(
0.0979406
0.095518
0.0933312
0.0916255
0.09026
0.0891337
0.0882153
0.0874884
0.0869445
0.0865701
0.0863619
0.086311
0.0864223
0.0866944
0.0871474
0.0877861
0.0885831
0.0893681
0.0900949
0.0920664
0.099807
0.1152
0.105225
-0.0443188
-0.370924
-0.277436
-0.0119011
-0.0113367
-0.0114579
-0.0114985
-0.0115
-0.0114962
-0.0114949
-0.011495
-0.0114953
-0.0114955
-0.0114956
-0.0114957
-0.0114958
-0.0114958
-0.0114959
-0.011496
-0.011496
-0.0114961
-0.0114961
-0.0114962
-0.0114962
-0.0114963
-0.0114963
-0.0114963
-0.0334678
-0.0353095
-0.0373247
-0.039035
-0.0404113
-0.0415073
-0.0423502
-0.0429488
-0.0433058
-0.0434251
-0.0433076
-0.042956
-0.0423677
-0.0415409
-0.0404614
-0.0391261
-0.0375822
-0.0360164
-0.0344553
-0.0313927
-0.0220286
-0.00543543
-0.0199326
-0.186983
-0.519411
-0.24318
-0.0349746
-0.0343842
-0.0345168
-0.0345591
-0.03456
-0.0345557
-0.0345542
-0.0345542
-0.0345544
-0.0345544
-0.0345544
-0.0345544
-0.0345543
-0.0345542
-0.0345542
-0.0345541
-0.034554
-0.0345539
-0.0345538
-0.0345537
-0.0345536
-0.0345534
-0.0345533
-0.0345531
-0.0855744
-0.0856608
-0.0857328
-0.0858291
-0.0859663
-0.0861485
-0.0863731
-0.0866425
-0.086955
-0.0873152
-0.0877214
-0.0881795
-0.0886876
-0.0892526
-0.0898692
-0.0905457
-0.0912912
-0.092177
-0.0932466
-0.0941663
-0.0934654
-0.0899328
-0.0923465
-0.137925
-0.253643
-0.233965
-0.0580116
-0.0573753
-0.0575247
-0.0575657
-0.0575654
-0.0575611
-0.0575599
-0.0575602
-0.0575606
-0.0575608
-0.057561
-0.0575611
-0.0575613
-0.0575614
-0.0575614
-0.0575615
-0.0575615
-0.0575615
-0.0575615
-0.0575615
-0.0575614
-0.0575614
-0.0575613
-0.0575612
-0.176678
-0.176177
-0.175668
-0.175222
-0.174826
-0.174466
-0.174142
-0.173851
-0.173598
-0.173382
-0.173205
-0.173067
-0.172973
-0.172921
-0.172917
-0.172958
-0.173056
-0.173229
-0.17352
-0.173828
-0.173626
-0.172154
-0.1715
-0.186418
-0.231586
-0.182546
-0.0810721
-0.0804269
-0.0805837
-0.0806231
-0.0806218
-0.0806172
-0.0806159
-0.080616
-0.0806162
-0.0806162
-0.0806161
-0.080616
-0.0806159
-0.0806158
-0.0806156
-0.0806154
-0.0806152
-0.080615
-0.0806147
-0.0806145
-0.0806142
-0.0806139
-0.0806135
-0.0806132
-0.23763
-0.23624
-0.234735
-0.233374
-0.232159
-0.231056
-0.230057
-0.22916
-0.228371
-0.227685
-0.227108
-0.226635
-0.226272
-0.226012
-0.225865
-0.225815
-0.225883
-0.226079
-0.226474
-0.226926
-0.226734
-0.224676
-0.221047
-0.240119
-0.301248
-0.222724
-0.104085
-0.103449
-0.103608
-0.103644
-0.103642
-0.103638
-0.103636
-0.103637
-0.103637
-0.103637
-0.103637
-0.103637
-0.103636
-0.103636
-0.103636
-0.103636
-0.103636
-0.103636
-0.103635
-0.103635
-0.103635
-0.103634
-0.103634
-0.103634
-0.297717
-0.295469
-0.293053
-0.290847
-0.288836
-0.286964
-0.285221
-0.283599
-0.282109
-0.280741
-0.279505
-0.27839
-0.277409
-0.276545
-0.275818
-0.275198
-0.274724
-0.274401
-0.274355
-0.274373
-0.273383
-0.269339
-0.26403
-0.291316
-0.393255
-0.308824
-0.127132
-0.12651
-0.126672
-0.126703
-0.1267
-0.126696
-0.126695
-0.126695
-0.126695
-0.126695
-0.126695
-0.126695
-0.126695
-0.126694
-0.126694
-0.126694
-0.126694
-0.126693
-0.126693
-0.126692
-0.126692
-0.126691
-0.126691
-0.12669
-0.324576
-0.321485
-0.318127
-0.315046
-0.312231
-0.309602
-0.307143
-0.304844
-0.302718
-0.300754
-0.298966
-0.297338
-0.295895
-0.294614
-0.293525
-0.292592
-0.291871
-0.2914
-0.291398
-0.291563
-0.289942
-0.282561
-0.273692
-0.320004
-0.511741
-0.522935
-0.15016
-0.149539
-0.149702
-0.149729
-0.149726
-0.149722
-0.149721
-0.149722
-0.149722
-0.149722
-0.149722
-0.149722
-0.149722
-0.149722
-0.149722
-0.149722
-0.149722
-0.149722
-0.149722
-0.149722
-0.149721
-0.149721
-0.14972
-0.14972
-0.335665
-0.332297
-0.328666
-0.325318
-0.32223
-0.319318
-0.316566
-0.313968
-0.311537
-0.309263
-0.30716
-0.305214
-0.303446
-0.301836
-0.300409
-0.299125
-0.29804
-0.297231
-0.297025
-0.297072
-0.294342
-0.282138
-0.266138
-0.330075
-0.631811
-0.831539
-0.17326
-0.172611
-0.172778
-0.172805
-0.172802
-0.172798
-0.172798
-0.172799
-0.172799
-0.1728
-0.1728
-0.172801
-0.172801
-0.172801
-0.172801
-0.172802
-0.172802
-0.172801
-0.172801
-0.172801
-0.172801
-0.1728
-0.1728
-0.172799
-0.290997
-0.289313
-0.287266
-0.285027
-0.282584
-0.279907
-0.276995
-0.273844
-0.27046
-0.266834
-0.262971
-0.258854
-0.254494
-0.249864
-0.244974
-0.239772
-0.234294
-0.228662
-0.223339
-0.218
-0.208392
-0.183999
-0.149918
-0.220227
-0.649587
-1.22333
-0.19632
-0.195608
-0.195771
-0.195806
-0.195806
-0.195806
-0.195808
-0.195812
-0.195816
-0.195819
-0.195822
-0.195825
-0.195827
-0.19583
-0.195832
-0.195834
-0.195836
-0.195838
-0.195839
-0.19584
-0.195841
-0.195842
-0.195842
-0.195842
-0.270326
-0.267126
-0.263424
-0.259852
-0.256449
-0.253146
-0.249926
-0.24677
-0.24369
-0.240665
-0.237705
-0.234779
-0.231897
-0.229015
-0.226132
-0.223156
-0.220101
-0.21713
-0.214938
-0.213214
-0.205394
-0.173739
-0.12185
-0.220874
-0.912607
-2.04896
-0.244796
-0.219056
-0.21876
-0.218872
-0.2189
-0.218905
-0.218909
-0.218917
-0.218924
-0.218932
-0.218939
-0.218946
-0.218952
-0.218958
-0.218963
-0.218968
-0.218972
-0.218976
-0.218978
-0.218981
-0.218982
-0.218983
-0.218984
-0.218984
-0.386262
-0.381031
-0.375579
-0.370565
-0.365818
-0.36124
-0.356789
-0.352494
-0.348349
-0.344387
-0.340595
-0.337025
-0.333652
-0.330559
-0.327709
-0.325195
-0.323003
-0.321227
-0.320129
-0.319872
-0.319611
-0.317083
-0.30585
-0.301406
-0.34566
-0.512876
-0.685761
-0.242937
-0.241547
-0.241671
-0.241757
-0.241817
-0.241868
-0.241912
-0.241952
-0.241987
-0.242017
-0.242042
-0.242064
-0.242082
-0.242097
-0.242109
-0.242118
-0.242126
-0.242131
-0.242134
-0.242136
-0.242136
-0.242135
-0.242132
-0.185024
-0.181764
-0.177426
-0.172813
-0.168061
-0.163128
-0.157977
-0.152615
-0.147039
-0.141269
-0.135299
-0.129158
-0.122844
-0.116401
-0.109831
-0.103192
-0.0964764
-0.0897952
-0.0833477
-0.0778203
-0.0730393
-0.0643393
-0.0373589
-0.00140511
-0.081083
-0.604202
-1.45661
-0.274627
-0.26618
-0.265969
-0.266044
-0.266049
-0.26603
-0.266009
-0.265987
-0.265962
-0.265937
-0.265909
-0.265881
-0.265852
-0.265822
-0.265792
-0.265762
-0.265732
-0.265702
-0.265672
-0.265643
-0.265614
-0.265585
-0.265557
-0.464243
-0.459279
-0.454775
-0.451146
-0.448181
-0.445723
-0.443744
-0.442231
-0.441175
-0.440537
-0.440297
-0.440397
-0.440796
-0.441424
-0.442198
-0.44301
-0.443816
-0.444272
-0.444459
-0.443549
-0.442164
-0.441741
-0.438433
-0.425333
-0.400396
-0.478694
-0.827432
-0.562192
-0.292837
-0.291483
-0.291195
-0.290969
-0.290745
-0.290535
-0.290343
-0.290168
-0.290009
-0.289863
-0.289729
-0.289606
-0.289493
-0.289389
-0.289292
-0.289203
-0.289121
-0.289044
-0.288972
-0.288906
-0.288844
-0.288786
-0.109313
-0.105917
-0.101283
-0.0962901
-0.0911247
-0.0857264
-0.0800814
-0.0741833
-0.0680627
-0.0617244
-0.0552102
-0.0485296
-0.0417437
-0.0348707
-0.0280025
-0.0211674
-0.0144923
-0.00800834
-0.00190123
0.00352859
0.00756747
0.0102235
0.0159729
0.0375048
0.0663995
-0.0164587
-0.519598
-1.38232
-0.327328
-0.312122
-0.311905
-0.311993
-0.311993
-0.311977
-0.311959
-0.311939
-0.311917
-0.311893
-0.311866
-0.311839
-0.311811
-0.311781
-0.311752
-0.311722
-0.311691
-0.311661
-0.311631
-0.311601
-0.311572
-0.311542
-0.324837
-0.32093
-0.317111
-0.313613
-0.310221
-0.306837
-0.30344
-0.300037
-0.296611
-0.293163
-0.289663
-0.286112
-0.282475
-0.278748
-0.274885
-0.270905
-0.266704
-0.262376
-0.257689
-0.252739
-0.247772
-0.242726
-0.237563
-0.223668
-0.197564
-0.198399
-0.355684
-0.73894
-0.650513
-0.335311
-0.334014
-0.334116
-0.334157
-0.334175
-0.334185
-0.334192
-0.334196
-0.334199
-0.334199
-0.334198
-0.334195
-0.334191
-0.334185
-0.334178
-0.33417
-0.334162
-0.334152
-0.334142
-0.334132
-0.334121
-0.0411647
-0.0390031
-0.0358927
-0.0325742
-0.0292185
-0.0258119
-0.0223293
-0.0187811
-0.0151712
-0.0115241
-0.00784134
-0.00415148
-0.000452981
0.00322105
0.00687835
0.0104809
0.0140496
0.0175503
0.0210453
0.0244879
0.0277602
0.03033
0.032463
0.0397946
0.0630998
0.0979033
0.0211669
-0.480693
-1.35245
-0.374723
-0.356911
-0.356694
-0.356788
-0.356806
-0.356811
-0.356818
-0.356825
-0.356833
-0.35684
-0.356846
-0.356852
-0.356857
-0.356861
-0.356864
-0.356867
-0.356868
-0.356869
-0.356869
-0.356868
-0.356867
-0.273913
-0.269892
-0.266005
-0.262567
-0.259391
-0.256353
-0.253442
-0.250644
-0.247964
-0.245378
-0.24289
-0.240471
-0.238128
-0.235832
-0.233596
-0.231384
-0.229237
-0.227083
-0.225032
-0.222939
-0.22093
-0.219271
-0.218013
-0.216267
-0.209742
-0.193228
-0.198498
-0.325402
-0.628021
-0.65648
-0.38065
-0.379373
-0.379446
-0.379498
-0.379525
-0.379544
-0.379561
-0.379576
-0.379589
-0.3796
-0.379609
-0.379617
-0.379623
-0.379629
-0.379633
-0.379636
-0.379638
-0.379639
-0.37964
-0.37964
-0.0325492
-0.0316263
-0.0300704
-0.028205
-0.0261388
-0.023875
-0.0214097
-0.018744
-0.0158874
-0.0128445
-0.0096259
-0.00623424
-0.00268106
0.00103388
0.00489751
0.00891553
0.0130727
0.0173849
0.0218413
0.0264869
0.0313025
0.0361892
0.0407731
0.0453239
0.0535128
0.0740026
0.102858
0.0470521
-0.32078
-0.998248
-0.406792
-0.402673
-0.402558
-0.402612
-0.402626
-0.402626
-0.402625
-0.402625
-0.402625
-0.402623
-0.402622
-0.402619
-0.402616
-0.402613
-0.402609
-0.402604
-0.402599
-0.402594
-0.402589
-0.402583
-0.129404
-0.128527
-0.127548
-0.126446
-0.125174
-0.123719
-0.122085
-0.120269
-0.118275
-0.116095
-0.113731
-0.111172
-0.108419
-0.105458
-0.10229
-0.0988981
-0.0952871
-0.0914332
-0.0873384
-0.0829499
-0.0782895
-0.0735429
-0.0693656
-0.0656143
-0.0566919
-0.0274179
0.0203666
-0.0576994
-0.663628
-1.70097
-0.50134
-0.426384
-0.425944
-0.425971
-0.425941
-0.425894
-0.425848
-0.425809
-0.425772
-0.425739
-0.425708
-0.425679
-0.425653
-0.425628
-0.425605
-0.425583
-0.425562
-0.425543
-0.425525
-0.425508
-0.148605
-0.145882
-0.142963
-0.140313
-0.137901
-0.135671
-0.133597
-0.131688
-0.129939
-0.128361
-0.126948
-0.125713
-0.124648
-0.123772
-0.123072
-0.122575
-0.122262
-0.122164
-0.122258
-0.122578
-0.123076
-0.123826
-0.124803
-0.126292
-0.127982
-0.128457
-0.12238
-0.113688
-0.158687
-0.3692
-0.757265
-0.449283
-0.44852
-0.448567
-0.448562
-0.448544
-0.448526
-0.448509
-0.448493
-0.448477
-0.448461
-0.448446
-0.448431
-0.448416
-0.448402
-0.448388
-0.448374
-0.448361
-0.448348
-0.448335
-0.0114963
-0.0114964
-0.0114964
-0.0114964
-0.0114964
-0.0114964
-0.0114964
-0.0114964
-0.0114964
-0.0114964
-0.0114964
-0.0114964
-0.0114963
-0.0114963
-0.0114963
-0.0114963
-0.0114963
-0.0114962
-0.0114962
-0.0114962
-0.0114962
-0.0114961
-0.0114961
-0.0114961
-0.011496
-0.011496
-0.0114959
-0.0114959
-0.0114959
-0.0114958
-0.0114958
-0.0114957
-0.0114957
-0.0114956
-0.0114956
-0.0114955
-0.0114954
-0.0114954
-0.0114953
-0.0114953
-0.0114952
-0.0114952
-0.0114951
-0.011495
-0.011495
-0.0114949
-0.0114948
-0.0114948
-0.0114947
-0.0114946
-0.034553
-0.0345528
-0.0345526
-0.0345524
-0.0345522
-0.034552
-0.0345518
-0.0345516
-0.0345514
-0.0345511
-0.0345509
-0.0345507
-0.0345504
-0.0345502
-0.0345499
-0.0345496
-0.0345493
-0.0345491
-0.0345488
-0.0345485
-0.0345482
-0.0345479
-0.0345475
-0.0345472
-0.0345469
-0.0345466
-0.0345462
-0.0345459
-0.0345455
-0.0345452
-0.0345448
-0.0345445
-0.0345441
-0.0345437
-0.0345434
-0.034543
-0.0345426
-0.0345422
-0.0345418
-0.0345414
-0.034541
-0.0345406
-0.0345402
-0.0345398
-0.0345394
-0.034539
-0.0345386
-0.0345382
-0.0345378
-0.0345374
-0.0575611
-0.0575609
-0.0575608
-0.0575606
-0.0575604
-0.0575602
-0.05756
-0.0575597
-0.0575595
-0.0575592
-0.0575589
-0.0575586
-0.0575583
-0.057558
-0.0575576
-0.0575573
-0.0575569
-0.0575565
-0.0575561
-0.0575557
-0.0575553
-0.0575549
-0.0575544
-0.057554
-0.0575535
-0.057553
-0.0575526
-0.0575521
-0.0575515
-0.057551
-0.0575505
-0.0575499
-0.0575494
-0.0575488
-0.0575483
-0.0575477
-0.0575471
-0.0575465
-0.0575459
-0.0575453
-0.0575447
-0.057544
-0.0575434
-0.0575428
-0.0575421
-0.0575415
-0.0575408
-0.0575401
-0.0575395
-0.0575388
-0.0806128
-0.0806124
-0.080612
-0.0806116
-0.0806111
-0.0806106
-0.0806101
-0.0806096
-0.0806091
-0.0806085
-0.080608
-0.0806074
-0.0806068
-0.0806062
-0.0806055
-0.0806049
-0.0806042
-0.0806035
-0.0806028
-0.0806021
-0.0806013
-0.0806006
-0.0805998
-0.080599
-0.0805982
-0.0805974
-0.0805966
-0.0805957
-0.0805949
-0.080594
-0.0805931
-0.0805922
-0.0805913
-0.0805904
-0.0805895
-0.0805885
-0.0805876
-0.0805866
-0.0805856
-0.0805846
-0.0805836
-0.0805826
-0.0805816
-0.0805806
-0.0805796
-0.0805786
-0.0805775
-0.0805765
-0.0805754
-0.0805744
-0.103633
-0.103633
-0.103632
-0.103632
-0.103631
-0.103631
-0.10363
-0.10363
-0.103629
-0.103628
-0.103628
-0.103627
-0.103626
-0.103625
-0.103624
-0.103624
-0.103623
-0.103622
-0.103621
-0.10362
-0.103619
-0.103618
-0.103617
-0.103616
-0.103615
-0.103614
-0.103613
-0.103612
-0.103611
-0.10361
-0.103608
-0.103607
-0.103606
-0.103605
-0.103603
-0.103602
-0.103601
-0.1036
-0.103598
-0.103597
-0.103596
-0.103594
-0.103593
-0.103592
-0.10359
-0.103589
-0.103587
-0.103586
-0.103584
-0.103583
-0.12669
-0.126689
-0.126688
-0.126687
-0.126687
-0.126686
-0.126685
-0.126684
-0.126683
-0.126682
-0.126681
-0.12668
-0.126679
-0.126677
-0.126676
-0.126675
-0.126674
-0.126672
-0.126671
-0.12667
-0.126668
-0.126667
-0.126665
-0.126664
-0.126662
-0.126661
-0.126659
-0.126658
-0.126656
-0.126654
-0.126653
-0.126651
-0.126649
-0.126647
-0.126645
-0.126644
-0.126642
-0.12664
-0.126638
-0.126636
-0.126634
-0.126632
-0.12663
-0.126629
-0.126627
-0.126625
-0.126623
-0.126621
-0.126619
-0.126617
-0.149719
-0.149719
-0.149718
-0.149717
-0.149716
-0.149716
-0.149715
-0.149714
-0.149713
-0.149712
-0.14971
-0.149709
-0.149708
-0.149706
-0.149705
-0.149704
-0.149702
-0.1497
-0.149699
-0.149697
-0.149695
-0.149694
-0.149692
-0.14969
-0.149688
-0.149686
-0.149684
-0.149682
-0.14968
-0.149678
-0.149675
-0.149673
-0.149671
-0.149669
-0.149666
-0.149664
-0.149662
-0.149659
-0.149657
-0.149654
-0.149652
-0.149649
-0.149647
-0.149645
-0.149642
-0.149639
-0.149637
-0.149634
-0.149632
-0.149629
-0.172798
-0.172797
-0.172796
-0.172795
-0.172794
-0.172792
-0.172791
-0.172789
-0.172788
-0.172786
-0.172784
-0.172782
-0.17278
-0.172778
-0.172776
-0.172774
-0.172771
-0.172769
-0.172766
-0.172764
-0.172761
-0.172758
-0.172755
-0.172752
-0.17275
-0.172747
-0.172744
-0.17274
-0.172737
-0.172734
-0.172731
-0.172728
-0.172724
-0.172721
-0.172718
-0.172714
-0.172711
-0.172708
-0.172704
-0.172701
-0.172697
-0.172694
-0.17269
-0.172687
-0.172683
-0.17268
-0.172676
-0.172673
-0.172669
-0.172666
-0.195842
-0.195842
-0.195841
-0.19584
-0.19584
-0.195838
-0.195837
-0.195835
-0.195834
-0.195832
-0.19583
-0.195827
-0.195825
-0.195822
-0.195819
-0.195816
-0.195813
-0.19581
-0.195807
-0.195804
-0.1958
-0.195797
-0.195793
-0.195789
-0.195785
-0.195781
-0.195777
-0.195773
-0.195769
-0.195765
-0.195761
-0.195757
-0.195752
-0.195748
-0.195744
-0.195739
-0.195735
-0.195731
-0.195726
-0.195722
-0.195717
-0.195713
-0.195708
-0.195704
-0.195699
-0.195695
-0.19569
-0.195686
-0.195681
-0.195677
-0.218984
-0.218983
-0.218981
-0.218979
-0.218977
-0.218974
-0.218971
-0.218968
-0.218964
-0.21896
-0.218956
-0.218951
-0.218947
-0.218941
-0.218936
-0.218931
-0.218925
-0.21892
-0.218914
-0.218908
-0.218902
-0.218896
-0.218889
-0.218883
-0.218877
-0.21887
-0.218864
-0.218857
-0.218851
-0.218844
-0.218837
-0.218831
-0.218824
-0.218818
-0.218811
-0.218804
-0.218798
-0.218791
-0.218785
-0.218778
-0.218772
-0.218766
-0.218759
-0.218753
-0.218747
-0.21874
-0.218734
-0.218728
-0.218722
-0.218716
-0.242129
-0.242125
-0.24212
-0.242114
-0.242108
-0.242101
-0.242093
-0.242085
-0.242077
-0.242068
-0.24206
-0.242051
-0.242041
-0.242032
-0.242022
-0.242013
-0.242003
-0.241993
-0.241984
-0.241974
-0.241964
-0.241955
-0.241945
-0.241935
-0.241926
-0.241916
-0.241907
-0.241897
-0.241888
-0.241879
-0.241869
-0.24186
-0.241851
-0.241842
-0.241834
-0.241825
-0.241816
-0.241808
-0.241799
-0.241791
-0.241783
-0.241775
-0.241767
-0.241759
-0.241751
-0.241743
-0.241736
-0.241728
-0.241721
-0.241714
-0.26553
-0.265503
-0.265476
-0.265451
-0.265425
-0.265401
-0.265377
-0.265353
-0.265331
-0.265308
-0.265286
-0.265265
-0.265245
-0.265224
-0.265205
-0.265185
-0.265167
-0.265148
-0.265131
-0.265113
-0.265096
-0.26508
-0.265063
-0.265048
-0.265032
-0.265017
-0.265002
-0.264988
-0.264974
-0.26496
-0.264946
-0.264933
-0.26492
-0.264907
-0.264895
-0.264883
-0.264871
-0.264859
-0.264848
-0.264837
-0.264826
-0.264815
-0.264805
-0.264794
-0.264784
-0.264774
-0.264764
-0.264755
-0.264746
-0.264736
-0.288731
-0.28868
-0.288632
-0.288587
-0.288545
-0.288504
-0.288466
-0.28843
-0.288395
-0.288363
-0.288332
-0.288302
-0.288274
-0.288246
-0.28822
-0.288195
-0.288171
-0.288148
-0.288126
-0.288105
-0.288084
-0.288065
-0.288045
-0.288027
-0.288009
-0.287991
-0.287975
-0.287958
-0.287942
-0.287927
-0.287912
-0.287897
-0.287883
-0.287869
-0.287856
-0.287843
-0.28783
-0.287818
-0.287805
-0.287794
-0.287782
-0.287771
-0.28776
-0.287749
-0.287738
-0.287728
-0.287718
-0.287708
-0.287698
-0.287688
-0.311514
-0.311485
-0.311457
-0.31143
-0.311403
-0.311377
-0.311351
-0.311326
-0.311302
-0.311278
-0.311254
-0.311231
-0.311209
-0.311187
-0.311166
-0.311145
-0.311125
-0.311105
-0.311086
-0.311067
-0.311049
-0.311031
-0.311013
-0.310996
-0.310979
-0.310963
-0.310947
-0.310931
-0.310916
-0.310901
-0.310886
-0.310872
-0.310858
-0.310844
-0.31083
-0.310817
-0.310804
-0.310792
-0.310779
-0.310767
-0.310755
-0.310744
-0.310732
-0.310721
-0.31071
-0.310699
-0.310689
-0.310678
-0.310668
-0.310658
-0.334109
-0.334098
-0.334086
-0.334073
-0.334061
-0.334048
-0.334035
-0.334022
-0.334009
-0.333996
-0.333983
-0.33397
-0.333957
-0.333944
-0.333931
-0.333918
-0.333905
-0.333892
-0.33388
-0.333867
-0.333854
-0.333842
-0.33383
-0.333818
-0.333806
-0.333794
-0.333782
-0.33377
-0.333759
-0.333748
-0.333736
-0.333725
-0.333714
-0.333704
-0.333693
-0.333683
-0.333672
-0.333662
-0.333652
-0.333642
-0.333632
-0.333623
-0.333613
-0.333604
-0.333595
-0.333585
-0.333576
-0.333568
-0.333559
-0.33355
-0.356864
-0.356861
-0.356858
-0.356854
-0.356849
-0.356844
-0.356839
-0.356833
-0.356826
-0.35682
-0.356813
-0.356805
-0.356798
-0.35679
-0.356781
-0.356773
-0.356765
-0.356756
-0.356747
-0.356738
-0.356729
-0.35672
-0.356711
-0.356702
-0.356692
-0.356683
-0.356674
-0.356664
-0.356655
-0.356646
-0.356636
-0.356627
-0.356618
-0.356609
-0.3566
-0.35659
-0.356581
-0.356572
-0.356563
-0.356555
-0.356546
-0.356537
-0.356528
-0.35652
-0.356511
-0.356503
-0.356495
-0.356487
-0.356478
-0.356471
-0.379639
-0.379637
-0.379635
-0.379633
-0.37963
-0.379626
-0.379622
-0.379618
-0.379614
-0.379609
-0.379604
-0.379598
-0.379593
-0.379587
-0.379581
-0.379575
-0.379568
-0.379562
-0.379555
-0.379548
-0.379541
-0.379534
-0.379527
-0.37952
-0.379513
-0.379506
-0.379498
-0.379491
-0.379484
-0.379476
-0.379469
-0.379462
-0.379454
-0.379447
-0.37944
-0.379432
-0.379425
-0.379418
-0.37941
-0.379403
-0.379396
-0.379389
-0.379382
-0.379375
-0.379368
-0.379361
-0.379354
-0.379347
-0.37934
-0.379334
-0.402577
-0.402571
-0.402565
-0.402559
-0.402552
-0.402545
-0.402538
-0.402531
-0.402524
-0.402517
-0.402509
-0.402502
-0.402495
-0.402487
-0.402479
-0.402472
-0.402464
-0.402457
-0.402449
-0.402441
-0.402434
-0.402426
-0.402418
-0.402411
-0.402403
-0.402396
-0.402388
-0.40238
-0.402373
-0.402365
-0.402358
-0.402351
-0.402343
-0.402336
-0.402329
-0.402321
-0.402314
-0.402307
-0.4023
-0.402293
-0.402286
-0.402279
-0.402272
-0.402265
-0.402259
-0.402252
-0.402245
-0.402239
-0.402232
-0.402226
-0.425492
-0.425477
-0.425462
-0.425448
-0.425435
-0.425422
-0.42541
-0.425398
-0.425387
-0.425376
-0.425365
-0.425355
-0.425345
-0.425335
-0.425325
-0.425316
-0.425307
-0.425298
-0.42529
-0.425281
-0.425273
-0.425265
-0.425257
-0.425249
-0.425241
-0.425233
-0.425226
-0.425218
-0.425211
-0.425204
-0.425197
-0.42519
-0.425183
-0.425176
-0.425169
-0.425162
-0.425156
-0.425149
-0.425143
-0.425136
-0.42513
-0.425124
-0.425118
-0.425112
-0.425106
-0.4251
-0.425094
-0.425088
-0.425082
-0.425077
-0.448323
-0.448311
-0.448299
-0.448288
-0.448277
-0.448266
-0.448255
-0.448245
-0.448235
-0.448225
-0.448216
-0.448206
-0.448197
-0.448188
-0.448179
-0.44817
-0.448162
-0.448153
-0.448145
-0.448137
-0.448129
-0.448121
-0.448113
-0.448106
-0.448098
-0.448091
-0.448084
-0.448077
-0.44807
-0.448063
-0.448056
-0.448049
-0.448043
-0.448036
-0.44803
-0.448024
-0.448017
-0.448011
-0.448005
-0.447999
-0.447993
-0.447988
-0.447982
-0.447976
-0.447971
-0.447965
-0.44796
-0.447955
-0.44795
-0.447944
-0.0114944
-0.0114944
-0.0114943
-0.0114943
-0.0114943
-0.0114943
-0.0114943
-0.0114943
-0.0114942
-0.0114942
-0.0114942
-0.0114942
-0.0114942
-0.0114941
-0.0114941
-0.0114941
-0.0114941
-0.011494
-0.011494
-0.011494
-0.011494
-0.011494
-0.0114939
-0.0114939
-0.0114939
-0.0114939
-0.0114938
-0.0114938
-0.0114938
-0.0114938
-0.0114937
-0.0114937
-0.0114937
-0.0114937
-0.0114937
-0.0114936
-0.0114936
-0.0114936
-0.0114936
-0.0114935
-0.0114935
-0.0114935
-0.0114935
-0.0114934
-0.0114934
-0.0114934
-0.0114934
-0.0114933
-0.0114933
-0.0114933
-0.0114932
-0.0114932
-0.0114932
-0.0114932
-0.0114931
-0.0114931
-0.0114931
-0.0114931
-0.011493
-0.011493
-0.011493
-0.011493
-0.0114929
-0.0114929
-0.0114929
-0.0114929
-0.0114928
-0.0114928
-0.0114928
-0.0114928
-0.0114927
-0.0114927
-0.0114927
-0.0114927
-0.0114926
-0.0114926
-0.0114926
-0.0114926
-0.0114925
-0.0114925
-0.0114925
-0.0114925
-0.0114924
-0.0114924
-0.0114924
-0.0114924
-0.0114923
-0.0114923
-0.0114923
-0.0114923
-0.0114922
-0.0114922
-0.0114922
-0.0114922
-0.0114921
-0.0114921
-0.0114921
-0.0114921
-0.011492
-0.011492
-0.011492
-0.011492
-0.011492
-0.0114919
-0.0114919
-0.0114919
-0.0114919
-0.0114919
-0.0114918
-0.0114918
-0.0114918
-0.0114918
-0.0114918
-0.0114917
-0.0114917
-0.0114917
-0.0114917
-0.0114917
-0.0114917
-0.0114916
-0.0114916
-0.0114916
-0.0114916
-0.0114916
-0.0114916
-0.0114916
-0.0114915
-0.0114915
-0.0114915
-0.0114915
-0.0114915
-0.0114915
-0.0114915
-0.0114915
-0.0114915
-0.0114915
-0.0114914
-0.0114914
-0.0114914
-0.0114914
-0.0114914
-0.0114914
-0.0114914
-0.0114914
-0.0114914
-0.0114914
-0.0114914
-0.0114914
-0.0114914
-0.0114914
-0.0114914
-0.0114915
-0.0114915
-0.0114915
-0.0114915
-0.0114915
-0.0114915
-0.0114915
-0.0114915
-0.0114915
-0.0114916
-0.0114916
-0.0114916
-0.0114916
-0.0114916
-0.0114917
-0.0114917
-0.0114917
-0.0114917
-0.0114918
-0.0114918
-0.0114918
-0.0114919
-0.0114919
-0.0114919
-0.011492
-0.011492
-0.011492
-0.0114921
-0.0114921
-0.0114922
-0.0114922
-0.0114923
-0.0114923
-0.0114924
-0.0114924
-0.0114925
-0.0114925
-0.0114926
-0.0114926
-0.0114927
-0.0114928
-0.0114928
-0.0114929
-0.011493
-0.0114931
-0.0114931
-0.0114932
-0.0114933
-0.0114934
-0.0114935
-0.0114935
-0.0114936
-0.0114937
-0.0114938
-0.0114939
-0.011494
-0.0114941
-0.0114942
-0.0114943
-0.0114944
-0.0114945
-0.0114946
-0.0114948
-0.0114949
-0.011495
-0.0114951
-0.0114952
-0.0114954
-0.0114955
-0.0114956
-0.0114958
-0.0114959
-0.0114961
-0.0114962
-0.0114964
-0.0114965
-0.0114967
-0.0114968
-0.011497
-0.0114971
-0.0114973
-0.0114975
-0.0114976
-0.0114978
-0.011498
-0.0114982
-0.0114984
-0.0114986
-0.0114987
-0.0114989
-0.0114991
-0.0114993
-0.0114995
-0.0114997
-0.0115
-0.0115002
-0.0115004
-0.0115006
-0.0115008
-0.011501
-0.0115013
-0.0115015
-0.0115017
-0.011502
-0.0115022
-0.0115025
-0.0115027
-0.011503
-0.0115032
-0.0115035
-0.0115037
-0.011504
-0.0115042
-0.0115045
-0.0115048
-0.011505
-0.0115053
-0.0115056
-0.0115059
-0.0115062
-0.0115064
-0.0115067
-0.011507
-0.0115073
-0.0115076
-0.0115079
-0.0115082
-0.0115085
-0.0115088
-0.0115091
-0.0115094
-0.0115097
-0.01151
-0.0115103
-0.0115106
-0.0115109
-0.0115112
-0.0115115
-0.0115119
-0.0115122
-0.0115125
-0.0115128
-0.0115131
-0.0115134
-0.0115138
-0.0115141
-0.0115144
-0.0115147
-0.011515
-0.0345372
-0.034537
-0.0345369
-0.0345367
-0.0345365
-0.0345363
-0.034536
-0.0345358
-0.0345356
-0.0345354
-0.0345352
-0.034535
-0.0345347
-0.0345345
-0.0345343
-0.034534
-0.0345338
-0.0345335
-0.0345333
-0.034533
-0.0345328
-0.0345325
-0.0345323
-0.034532
-0.0345317
-0.0345315
-0.0345312
-0.0345309
-0.0345306
-0.0345304
-0.0345301
-0.0345298
-0.0345295
-0.0345292
-0.0345289
-0.0345286
-0.0345283
-0.034528
-0.0345277
-0.0345274
-0.034527
-0.0345267
-0.0345264
-0.0345261
-0.0345258
-0.0345254
-0.0345251
-0.0345248
-0.0345244
-0.0345241
-0.0345238
-0.0345234
-0.0345231
-0.0345227
-0.0345224
-0.034522
-0.0345217
-0.0345213
-0.034521
-0.0345206
-0.0345203
-0.0345199
-0.0345195
-0.0345192
-0.0345188
-0.0345185
-0.0345181
-0.0345177
-0.0345173
-0.034517
-0.0345166
-0.0345162
-0.0345159
-0.0345155
-0.0345151
-0.0345147
-0.0345143
-0.034514
-0.0345136
-0.0345132
-0.0345128
-0.0345124
-0.0345121
-0.0345117
-0.0345113
-0.0345109
-0.0345105
-0.0345102
-0.0345098
-0.0345094
-0.034509
-0.0345086
-0.0345083
-0.0345079
-0.0345075
-0.0345071
-0.0345067
-0.0345064
-0.034506
-0.0345056
-0.0345052
-0.0345049
-0.0345045
-0.0345041
-0.0345038
-0.0345034
-0.034503
-0.0345027
-0.0345023
-0.0345019
-0.0345016
-0.0345012
-0.0345009
-0.0345005
-0.0345002
-0.0344998
-0.0344995
-0.0344992
-0.0344988
-0.0344985
-0.0344981
-0.0344978
-0.0344975
-0.0344972
-0.0344968
-0.0344965
-0.0344962
-0.0344959
-0.0344956
-0.0344953
-0.034495
-0.0344947
-0.0344944
-0.0344941
-0.0344938
-0.0344936
-0.0344933
-0.034493
-0.0344928
-0.0344925
-0.0344922
-0.034492
-0.0344917
-0.0344915
-0.0344913
-0.034491
-0.0344908
-0.0344906
-0.0344904
-0.0344902
-0.03449
-0.0344898
-0.0344896
-0.0344894
-0.0344892
-0.034489
-0.0344888
-0.0344887
-0.0344885
-0.0344884
-0.0344882
-0.0344881
-0.0344879
-0.0344878
-0.0344877
-0.0344876
-0.0344875
-0.0344874
-0.0344873
-0.0344872
-0.0344871
-0.034487
-0.034487
-0.0344869
-0.0344869
-0.0344868
-0.0344868
-0.0344868
-0.0344867
-0.0344867
-0.0344867
-0.0344867
-0.0344867
-0.0344867
-0.0344868
-0.0344868
-0.0344868
-0.0344869
-0.0344869
-0.034487
-0.0344871
-0.0344871
-0.0344872
-0.0344873
-0.0344874
-0.0344875
-0.0344876
-0.0344878
-0.0344879
-0.0344881
-0.0344882
-0.0344884
-0.0344885
-0.0344887
-0.0344889
-0.0344891
-0.0344893
-0.0344895
-0.0344897
-0.03449
-0.0344902
-0.0344905
-0.0344907
-0.034491
-0.0344912
-0.0344915
-0.0344918
-0.0344921
-0.0344924
-0.0344928
-0.0344931
-0.0344934
-0.0344938
-0.0344941
-0.0344945
-0.0344948
-0.0344952
-0.0344956
-0.034496
-0.0344964
-0.0344968
-0.0344973
-0.0344977
-0.0344981
-0.0344986
-0.0344991
-0.0344995
-0.0345
-0.0345005
-0.034501
-0.0345015
-0.034502
-0.0345025
-0.0345031
-0.0345036
-0.0345042
-0.0345047
-0.0345053
-0.0345059
-0.0345065
-0.0345071
-0.0345077
-0.0345083
-0.0345089
-0.0345095
-0.0345101
-0.0345108
-0.0345114
-0.0345121
-0.0345128
-0.0345135
-0.0345141
-0.0345148
-0.0345155
-0.0345162
-0.034517
-0.0345177
-0.0345184
-0.0345192
-0.0345199
-0.0345207
-0.0345214
-0.0345222
-0.034523
-0.0345238
-0.0345246
-0.0345253
-0.0345262
-0.034527
-0.0345278
-0.0345286
-0.0345294
-0.0345303
-0.0345311
-0.034532
-0.0345328
-0.0345337
-0.0345345
-0.0345354
-0.0345363
-0.0345371
-0.034538
-0.0345389
-0.0345398
-0.0345407
-0.0345416
-0.0345425
-0.0345433
-0.0345442
-0.0345451
-0.0575382
-0.0575379
-0.0575376
-0.0575372
-0.0575369
-0.0575366
-0.0575363
-0.057536
-0.0575356
-0.0575353
-0.057535
-0.0575346
-0.0575343
-0.0575339
-0.0575336
-0.0575332
-0.0575329
-0.0575325
-0.0575321
-0.0575318
-0.0575314
-0.057531
-0.0575306
-0.0575302
-0.0575299
-0.0575295
-0.0575291
-0.0575287
-0.0575283
-0.0575279
-0.0575275
-0.0575271
-0.0575267
-0.0575262
-0.0575258
-0.0575254
-0.057525
-0.0575246
-0.0575241
-0.0575237
-0.0575233
-0.0575228
-0.0575224
-0.0575219
-0.0575215
-0.0575211
-0.0575206
-0.0575202
-0.0575197
-0.0575192
-0.0575188
-0.0575183
-0.0575179
-0.0575174
-0.0575169
-0.0575165
-0.057516
-0.0575155
-0.057515
-0.0575146
-0.0575141
-0.0575136
-0.0575131
-0.0575126
-0.0575122
-0.0575117
-0.0575112
-0.0575107
-0.0575102
-0.0575097
-0.0575092
-0.0575087
-0.0575082
-0.0575077
-0.0575073
-0.0575068
-0.0575063
-0.0575058
-0.0575053
-0.0575048
-0.0575043
-0.0575038
-0.0575033
-0.0575028
-0.0575023
-0.0575018
-0.0575013
-0.0575008
-0.0575003
-0.0574998
-0.0574994
-0.0574989
-0.0574984
-0.0574979
-0.0574974
-0.0574969
-0.0574964
-0.057496
-0.0574955
-0.057495
-0.0574945
-0.0574941
-0.0574936
-0.0574931
-0.0574927
-0.0574922
-0.0574917
-0.0574913
-0.0574908
-0.0574904
-0.0574899
-0.0574895
-0.057489
-0.0574886
-0.0574882
-0.0574877
-0.0574873
-0.0574869
-0.0574865
-0.057486
-0.0574856
-0.0574852
-0.0574848
-0.0574844
-0.057484
-0.0574836
-0.0574833
-0.0574829
-0.0574825
-0.0574821
-0.0574818
-0.0574814
-0.0574811
-0.0574807
-0.0574804
-0.0574801
-0.0574797
-0.0574794
-0.0574791
-0.0574788
-0.0574785
-0.0574782
-0.0574779
-0.0574776
-0.0574774
-0.0574771
-0.0574768
-0.0574766
-0.0574764
-0.0574761
-0.0574759
-0.0574757
-0.0574755
-0.0574753
-0.0574751
-0.0574749
-0.0574747
-0.0574745
-0.0574744
-0.0574742
-0.0574741
-0.057474
-0.0574739
-0.0574737
-0.0574736
-0.0574735
-0.0574735
-0.0574734
-0.0574733
-0.0574733
-0.0574732
-0.0574732
-0.0574732
-0.0574732
-0.0574732
-0.0574732
-0.0574732
-0.0574732
-0.0574733
-0.0574733
-0.0574734
-0.0574735
-0.0574736
-0.0574737
-0.0574738
-0.0574739
-0.0574741
-0.0574742
-0.0574744
-0.0574745
-0.0574747
-0.0574749
-0.0574751
-0.0574754
-0.0574756
-0.0574759
-0.0574761
-0.0574764
-0.0574767
-0.057477
-0.0574773
-0.0574776
-0.057478
-0.0574783
-0.0574787
-0.0574791
-0.0574794
-0.0574799
-0.0574803
-0.0574807
-0.0574812
-0.0574816
-0.0574821
-0.0574826
-0.0574831
-0.0574836
-0.0574841
-0.0574847
-0.0574852