/*--------------------------------*- C++ -*----------------------------------*\
| =========                 |                                                 |
| \\      /  F ield         | OpenFOAM: The Open Source CFD Toolbox           |
|  \\    /   O peration     | Version:  2.4.0                                 |
|   \\  /    A nd           | Web:      www.OpenFOAM.org                      |
|    \\/     M anipulation  |                                                 |
\*---------------------------------------------------------------------------*/
FoamFile
{
    version     2.0;
    format      ascii;
    class       surfaceScalarField;
    location    "2.4";
    object      phi;
}
// * * * * * * * * * * * * * * * * * * * * * * * * * * * * * * * * * * * * * //

dimensions      [0 3 -1 0 0 0 0];

internalField   nonuniform List<scalar> 
15580
(
-3.15165e-14
-1.74592e-12
-1.05573e-13
-5.10314e-12
-2.12053e-13
-8.3222e-12
-3.46146e-13
-1.14014e-11
-5.03563e-13
-1.43408e-11
-6.80441e-13
-1.71404e-11
-8.73289e-13
-1.98003e-11
-1.0789e-12
-2.23205e-11
-1.29432e-12
-2.4701e-11
-1.51672e-12
-2.69418e-11
-1.74345e-12
-2.9043e-11
-1.97187e-12
-3.10045e-11
-2.19936e-12
-3.28262e-11
-2.42328e-12
-3.45082e-11
-2.64087e-12
-3.60504e-11
-2.84923e-12
-3.74528e-11
-3.04525e-12
-3.87153e-11
-3.22551e-12
-3.98377e-11
-3.38633e-12
-4.08201e-11
-3.52363e-12
-4.16624e-11
-3.6332e-12
-4.23643e-11
-3.70997e-12
-4.29253e-11
-3.7454e-12
-4.33451e-11
-3.72326e-12
-4.3626e-11
-1.08676e-11
-4.37769e-11
-3.66484e-11
-4.38304e-11
-3.65296e-11
-4.38176e-11
-3.69374e-11
-4.07147e-11
-3.72374e-11
-3.87892e-11
-3.75004e-11
-3.76234e-11
-3.77835e-11
-3.6998e-11
-3.80965e-11
-3.67232e-11
-3.84341e-11
-3.66539e-11
-3.87913e-11
-3.66945e-11
-3.91655e-11
-3.67887e-11
-3.95547e-11
-3.69057e-11
-3.99572e-11
-3.703e-11
-4.03715e-11
-3.7154e-11
-4.07963e-11
-3.7273e-11
-4.12304e-11
-3.73831e-11
-4.16727e-11
-3.748e-11
-4.21225e-11
-3.7559e-11
-4.25788e-11
-3.76152e-11
-4.30409e-11
-3.76445e-11
-4.35084e-11
-3.76433e-11
-4.39806e-11
-3.76093e-11
-4.44571e-11
-3.75413e-11
-4.49374e-11
-3.74396e-11
-4.54213e-11
-3.73051e-11
-3.71399e-11
-4.59084e-11
-1.64685e-14
-1.72945e-12
-6.75114e-14
-5.0521e-12
-1.5055e-13
-8.23916e-12
-2.6115e-13
-1.12908e-11
-3.95253e-13
-1.42067e-11
-5.49096e-13
-1.69865e-11
-7.19166e-13
-1.96302e-11
-9.02143e-13
-2.21375e-11
-1.09487e-12
-2.45083e-11
-1.29428e-12
-2.67424e-11
-1.4974e-12
-2.88399e-11
-1.70126e-12
-3.08006e-11
-1.90287e-12
-3.26246e-11
-2.09919e-12
-3.43119e-11
-2.28707e-12
-3.58626e-11
-2.4632e-12
-3.72767e-11
-2.62408e-12
-3.85544e-11
-2.76595e-12
-3.96959e-11
-2.88478e-12
-4.07013e-11
-2.97619e-12
-4.1571e-11
-3.0354e-12
-4.2305e-11
-3.05655e-12
-4.29041e-11
-3.03187e-12
-4.33698e-11
-2.95339e-12
-4.37045e-11
-1.18242e-11
-4.39063e-11
-3.6989e-11
-4.39522e-11
-3.6821e-11
-4.39856e-11
-3.67523e-11
-4.07834e-11
-3.68208e-11
-3.87207e-11
-3.6938e-11
-3.75062e-11
-3.70862e-11
-3.68497e-11
-3.72656e-11
-3.65437e-11
-3.74759e-11
-3.64437e-11
-3.77145e-11
-3.64559e-11
-3.7979e-11
-3.65242e-11
-3.8267e-11
-3.66177e-11
-3.85764e-11
-3.67206e-11
-3.89054e-11
-3.6825e-11
-3.92523e-11
-3.6926e-11
-3.96157e-11
-3.70197e-11
-3.99942e-11
-3.71015e-11
-4.03864e-11
-3.71667e-11
-4.07914e-11
-3.72103e-11
-4.1208e-11
-3.72279e-11
-4.16354e-11
-3.72159e-11
-4.20727e-11
-3.71719e-11
-4.25193e-11
-3.70948e-11
-4.29744e-11
-3.69844e-11
-4.34375e-11
-3.6842e-11
-3.66693e-11
-4.39082e-11
-1.29559e-15
-1.72815e-12
-3.4549e-15
-5.04994e-12
-6.158e-15
-8.23646e-12
-9.69337e-15
-1.12872e-11
-1.41974e-14
-1.42022e-11
-1.96937e-14
-1.6981e-11
-2.61213e-14
-1.96238e-11
-3.33587e-14
-2.21303e-11
-4.12448e-14
-2.45004e-11
-4.96004e-14
-2.67341e-11
-5.82447e-14
-2.88312e-11
-6.70167e-14
-3.07918e-11
-7.57879e-14
-3.26158e-11
-8.44874e-14
-3.43032e-11
-9.31115e-14
-3.58539e-11
-1.01757e-13
-3.7268e-11
-1.10629e-13
-3.85455e-11
-1.20091e-13
-3.96864e-11
-1.30655e-13
-4.06907e-11
-1.43019e-13
-4.15586e-11
-1.57998e-13
-4.22901e-11
-1.76829e-13
-4.28853e-11
-2.02168e-13
-4.33445e-11
-2.39563e-13
-4.36671e-11
-1.56157e-12
-4.38505e-11
-3.11241e-11
-4.39071e-11
-3.11847e-11
-4.3925e-11
-3.13358e-11
-4.06323e-11
-3.15072e-11
-3.85493e-11
-3.17043e-11
-3.7309e-11
-3.19259e-11
-3.66282e-11
-3.21703e-11
-3.62993e-11
-3.24364e-11
-3.61777e-11
-3.27228e-11
-3.61694e-11
-3.30284e-11
-3.62185e-11
-3.33523e-11
-3.62938e-11
-3.36933e-11
-3.63796e-11
-3.40505e-11
-3.64678e-11
-3.4423e-11
-3.65536e-11
-3.48098e-11
-3.66329e-11
-3.52101e-11
-3.67012e-11
-3.56232e-11
-3.67536e-11
-3.60482e-11
-3.67852e-11
-3.64847e-11
-3.67914e-11
-3.69318e-11
-3.67687e-11
-3.73891e-11
-3.67146e-11
-3.78561e-11
-3.66278e-11
-3.83324e-11
-3.65082e-11
-3.88175e-11
-3.63569e-11
-3.61757e-11
-3.93111e-11
5.32738e-15
-1.73348e-12
1.94362e-14
-5.06405e-12
4.12899e-14
-8.25831e-12
7.02654e-14
-1.13162e-11
1.05726e-13
-1.42376e-11
1.47023e-13
-1.70223e-11
1.93489e-13
-1.96702e-11
2.44432e-13
-2.21812e-11
2.99131e-13
-2.45551e-11
3.56832e-13
-2.67918e-11
4.1673e-13
-2.88911e-11
4.77978e-13
-3.08531e-11
5.39661e-13
-3.26775e-11
6.00801e-13
-3.43644e-11
6.60333e-13
-3.59135e-11
7.17114e-13
-3.73248e-11
7.69883e-13
-3.85983e-11
8.17282e-13
-3.97338e-11
8.5781e-13
-4.07313e-11
8.8985e-13
-4.15906e-11
9.11596e-13
-4.23118e-11
9.21026e-13
-4.28947e-11
9.15842e-13
-4.33393e-11
8.93397e-13
-4.36447e-11
8.55673e-13
-4.38108e-11
-2.87785e-11
-4.38425e-11
-2.8845e-11
-4.38585e-11
-2.89001e-11
-4.05772e-11
-2.89753e-11
-3.8474e-11
-2.90706e-11
-3.72137e-11
-2.91882e-11
-3.65106e-11
-2.93289e-11
-3.61586e-11
-2.9493e-11
-3.60135e-11
-2.96803e-11
-3.59822e-11
-2.98905e-11
-3.60083e-11
-3.01234e-11
-3.6061e-11
-3.03783e-11
-3.61247e-11
-3.06548e-11
-3.61912e-11
-3.09524e-11
-3.62561e-11
-3.12703e-11
-3.6315e-11
-3.16078e-11
-3.63637e-11
-3.19643e-11
-3.63972e-11
-3.23389e-11
-3.64106e-11
-3.2731e-11
-3.63994e-11
-3.31398e-11
-3.63599e-11
-3.35647e-11
-3.62897e-11
-3.4005e-11
-3.61875e-11
-3.446e-11
-3.60531e-11
-3.49292e-11
-3.58877e-11
-3.5693e-11
-3.54119e-11
1.29379e-14
-1.74642e-12
5.08667e-14
-5.10198e-12
1.12388e-13
-8.31983e-12
1.9588e-13
-1.13997e-11
2.9976e-13
-1.43415e-11
4.2248e-13
-1.71451e-11
5.62518e-13
-1.98103e-11
7.1838e-13
-2.23371e-11
8.8859e-13
-2.47253e-11
1.07169e-12
-2.69749e-11
1.26625e-12
-2.90857e-11
1.47083e-12
-3.10577e-11
1.68402e-12
-3.28907e-11
1.90441e-12
-3.45847e-11
2.13059e-12
-3.61397e-11
2.36119e-12
-3.75554e-11
2.5948e-12
-3.88319e-11
2.83008e-12
-3.99691e-11
3.06565e-12
-4.09668e-11
3.30019e-12
-4.18252e-11
3.53238e-12
-4.2544e-11
3.7609e-12
-4.31233e-11
3.98434e-12
-4.35627e-11
4.20182e-12
-4.38622e-11
4.41372e-12
-4.40229e-11
-2.52573e-11
-4.40517e-11
-2.50544e-11
-4.40614e-11
-2.4917e-11
-4.07146e-11
-2.4808e-11
-3.8583e-11
-2.473e-11
-3.72918e-11
-2.46854e-11
-3.65553e-11
-2.46752e-11
-3.61687e-11
-2.46997e-11
-3.5989e-11
-2.47588e-11
-3.5923e-11
-2.48522e-11
-3.59149e-11
-2.49793e-11
-3.59339e-11
-2.51396e-11
-3.59644e-11
-2.53323e-11
-3.59985e-11
-2.55566e-11
-3.60318e-11
-2.58115e-11
-3.60601e-11
-2.6096e-11
-3.60792e-11
-2.64089e-11
-3.60843e-11
-2.67492e-11
-3.60703e-11
-2.71155e-11
-3.6033e-11
-2.75069e-11
-3.59686e-11
-2.7922e-11
-3.58746e-11
-2.83598e-11
-3.57497e-11
-2.88192e-11
-3.55938e-11
-2.9299e-11
-3.54079e-11
-3.51938e-11
-2.97982e-11
2.141e-14
-1.76783e-12
8.28054e-14
-5.16337e-12
1.81823e-13
-8.41885e-12
3.16363e-13
-1.15343e-11
4.8438e-13
-1.45095e-11
6.83863e-13
-1.73445e-11
9.12848e-13
-2.00393e-11
1.1694e-12
-2.25936e-11
1.45163e-12
-2.50075e-11
1.75766e-12
-2.72809e-11
2.08567e-12
-2.94137e-11
2.43383e-12
-3.14058e-11
2.80035e-12
-3.32572e-11
3.18344e-12
-3.49678e-11
3.58135e-12
-3.65376e-11
3.99231e-12
-3.79664e-11
4.41457e-12
-3.92542e-11
4.84639e-12
-4.04009e-11
5.28604e-12
-4.14065e-11
5.73175e-12
-4.22709e-11
6.18184e-12
-4.29941e-11
6.63457e-12
-4.3576e-11
7.08819e-12
-4.40163e-11
7.54055e-12
-4.43145e-11
7.99031e-12
-4.44714e-11
-2.17977e-11
-4.44963e-11
-2.1354e-11
-4.45051e-11
-2.09301e-11
-4.11385e-11
-2.05717e-11
-3.89414e-11
-2.02784e-11
-3.7585e-11
-2.00479e-11
-3.67858e-11
-1.9877e-11
-3.63396e-11
-1.97627e-11
-3.61033e-11
-1.97023e-11
-3.59835e-11
-1.9693e-11
-3.59241e-11
-1.97327e-11
-3.58942e-11
-1.98191e-11
-3.5878e-11
-1.99501e-11
-3.58675e-11
-2.01237e-11
-3.58581e-11
-2.03382e-11
-3.58457e-11
-2.05915e-11
-3.58259e-11
-2.08819e-11
-3.57938e-11
-2.12077e-11
-3.57446e-11
-2.15669e-11
-3.56737e-11
-2.1958e-11
-3.55775e-11
-2.23793e-11
-3.54533e-11
-2.28292e-11
-3.52998e-11
-2.33061e-11
-3.51169e-11
-2.38086e-11
-3.49054e-11
-3.46671e-11
-2.43353e-11
2.87972e-14
-1.79663e-12
1.12842e-13
-5.24742e-12
2.49444e-13
-8.55545e-12
4.35848e-13
-1.17207e-11
6.6947e-13
-1.47431e-11
9.4786e-13
-1.76229e-11
1.2687e-12
-2.03601e-11
1.62976e-12
-2.29547e-11
2.02892e-12
-2.54067e-11
2.46411e-12
-2.77161e-11
2.93333e-12
-2.98829e-11
3.43461e-12
-3.19071e-11
3.96599e-12
-3.37886e-11
4.52551e-12
-3.55274e-11
5.11121e-12
-3.71233e-11
5.72108e-12
-3.85762e-11
6.35307e-12
-3.98862e-11
7.00506e-12
-4.10529e-11
7.67485e-12
-4.20763e-11
8.36011e-12
-4.29562e-11
9.05844e-12
-4.36924e-11
9.76723e-12
-4.42848e-11
1.04837e-11
-4.47328e-11
1.12047e-11
-4.50356e-11
1.19289e-11
-4.51932e-11
-1.97902e-11
-4.52256e-11
-1.9075e-11
-4.52202e-11
-1.84202e-11
-4.17934e-11
-1.78181e-11
-3.95436e-11
-1.72792e-11
-3.81239e-11
-1.68058e-11
-3.72592e-11
-1.63983e-11
-3.67471e-11
-1.60562e-11
-3.64454e-11
-1.57785e-11
-3.62612e-11
-1.55635e-11
-3.61391e-11
-1.54094e-11
-3.60483e-11
-1.53143e-11
-3.59732e-11
-1.5276e-11
-3.59058e-11
-1.52927e-11
-3.58415e-11
-1.53621e-11
-3.57763e-11
-1.54822e-11
-3.57058e-11
-1.56508e-11
-3.56252e-11
-1.58659e-11
-3.55295e-11
-1.61253e-11
-3.54143e-11
-1.6427e-11
-3.52758e-11
-1.67689e-11
-3.51114e-11
-1.7149e-11
-3.49196e-11
-1.75656e-11
-3.47003e-11
-1.80167e-11
-3.44543e-11
-3.41833e-11
-1.85005e-11
3.21321e-14
-1.82876e-12
1.24193e-13
-5.33948e-12
2.73216e-13
-8.70447e-12
4.76957e-13
-1.19244e-11
7.33343e-13
-1.49995e-11
1.04044e-12
-1.793e-11
1.39644e-12
-2.07161e-11
1.7996e-12
-2.33578e-11
2.24828e-12
-2.58553e-11
2.74086e-12
-2.82087e-11
3.27576e-12
-3.04178e-11
3.8514e-12
-3.24827e-11
4.46618e-12
-3.44034e-11
5.11848e-12
-3.61796e-11
5.80658e-12
-3.78114e-11
6.5287e-12
-3.92984e-11
7.28292e-12
-4.06404e-11
8.06718e-12
-4.18371e-11
8.87921e-12
-4.28883e-11
9.71656e-12
-4.37935e-11
1.05764e-11
-4.45523e-11
1.14558e-11
-4.51641e-11
1.2351e-11
-4.56281e-11
1.32581e-11
-4.59427e-11
1.41732e-11
-4.61088e-11
-2.05467e-11
-4.6147e-11
-1.9637e-11
-4.61299e-11
-1.84398e-11
-4.29905e-11
-1.74036e-11
-4.05798e-11
-1.6486e-11
-3.90415e-11
-1.56813e-11
-3.80638e-11
-1.49802e-11
-3.74483e-11
-1.43719e-11
-3.70536e-11
-1.38489e-11
-3.67843e-11
-1.34059e-11
-3.65821e-11
-1.30396e-11
-3.64147e-11
-1.27471e-11
-3.62657e-11
-1.25259e-11
-3.6127e-11
-1.23735e-11
-3.59939e-11
-1.2287e-11
-3.58627e-11
-1.22637e-11
-3.57291e-11
-1.23006e-11
-3.55884e-11
-1.23945e-11
-3.54356e-11
-1.25425e-11
-3.52663e-11
-1.27416e-11
-3.50766e-11
-1.29893e-11
-3.48637e-11
-1.32829e-11
-3.4626e-11
-1.36202e-11
-3.4363e-11
-1.3999e-11
-3.40755e-11
-3.3765e-11
-1.44174e-11
1.24469e-14
-1.8412e-12
5.30247e-14
-5.38006e-12
1.24941e-13
-8.77639e-12
2.31149e-13
-1.20306e-11
3.74207e-13
-1.51426e-11
5.56356e-13
-1.81122e-11
7.79574e-13
-2.09393e-11
1.04564e-12
-2.36239e-11
1.3562e-12
-2.61659e-11
1.71283e-12
-2.85653e-11
2.11705e-12
-3.0822e-11
2.5704e-12
-3.29361e-11
3.07449e-12
-3.49075e-11
3.63098e-12
-3.67361e-11
4.24174e-12
-3.84221e-11
4.90876e-12
-3.99654e-11
5.63435e-12
-4.1366e-11
6.42101e-12
-4.26238e-11
7.27171e-12
-4.3739e-11
8.18972e-12
-4.47115e-11
9.17894e-12
-4.55415e-11
1.02441e-11
-4.62293e-11
1.13907e-11
-4.67746e-11
1.26219e-11
-4.71738e-11
1.39301e-11
-4.74173e-11
-2.32176e-11
-4.74986e-11
-2.17702e-11
-4.75773e-11
-1.87758e-11
-4.59849e-11
-1.60561e-11
-4.32994e-11
-1.40077e-11
-4.109e-11
-1.24168e-11
-3.96547e-11
-1.11391e-11
-3.8726e-11
-1.00829e-11
-3.81098e-11
-9.19085e-12
-3.76763e-11
-8.42845e-12
-3.73445e-11
-7.77618e-12
-3.70669e-11
-7.22369e-12
-3.68182e-11
-6.76546e-12
-3.65852e-11
-6.3978e-12
-3.63616e-11
-6.1173e-12
-3.61432e-11
-5.92006e-12
-3.59263e-11
-5.80168e-12
-3.57067e-11
-5.75737e-12
-3.548e-11
-5.78227e-12
-3.52414e-11
-5.87174e-12
-3.49872e-11
-6.02149e-12
-3.47139e-11
-6.22776e-12
-3.44197e-11
-6.48727e-12
-3.41035e-11
-6.79725e-12
-3.37655e-11
-3.34069e-11
-7.15535e-12
2.6015e-14
-1.86722e-12
1.11496e-13
-5.46554e-12
2.59218e-13
-8.92411e-12
4.69386e-13
-1.22408e-11
7.42117e-13
-1.54153e-11
1.07758e-12
-1.84476e-11
1.47612e-12
-2.13378e-11
1.93817e-12
-2.40859e-11
2.46441e-12
-2.66922e-11
3.05562e-12
-2.91565e-11
3.71279e-12
-3.14792e-11
4.43704e-12
-3.36603e-11
5.22977e-12
-3.57002e-11
6.09243e-12
-3.75988e-11
7.02688e-12
-3.93566e-11
8.03503e-12
-4.09735e-11
9.11926e-12
-4.24502e-11
1.0282e-11
-4.37866e-11
1.15263e-11
-4.49833e-11
1.28553e-11
-4.60405e-11
1.42723e-11
-4.69585e-11
1.578e-11
-4.7737e-11
1.73828e-11
-4.83774e-11
1.90943e-11
-4.88853e-11
2.09504e-11
-4.92745e-11
-2.56049e-11
-4.9551e-11
-2.36582e-11
-4.95239e-11
-2.00729e-11
-4.95702e-11
-1.56827e-11
-4.76897e-11
-1.23614e-11
-4.44113e-11
-9.87005e-12
-4.21461e-11
-7.99616e-12
-4.05999e-11
-6.56178e-12
-3.95442e-11
-5.43744e-12
-3.88006e-11
-4.53881e-12
-3.82431e-11
-3.81417e-12
-3.77916e-11
-3.23273e-12
-3.73996e-11
-2.77599e-12
-3.70419e-11
-2.43179e-12
-3.67058e-11
-2.19077e-12
-3.63842e-11
-2.04442e-12
-3.60727e-11
-1.98441e-12
-3.57668e-11
-2.0025e-12
-3.54619e-11
-2.09082e-12
-3.51531e-11
-2.24217e-12
-3.48358e-11
-2.45026e-12
-3.45058e-11
-2.70984e-12
-3.41601e-11
-3.01674e-12
-3.37966e-11
-3.36775e-12
-3.34145e-11
-3.30141e-11
-3.76051e-12
5.4775e-14
-1.922e-12
2.00885e-13
-5.61165e-12
4.31039e-13
-9.15427e-12
7.42842e-13
-1.25526e-11
1.13375e-12
-1.58062e-11
1.60149e-12
-1.89154e-11
2.14398e-12
-2.18803e-11
2.75942e-12
-2.47014e-11
3.44609e-12
-2.73788e-11
4.20244e-12
-2.99128e-11
5.02691e-12
-3.23037e-11
5.91808e-12
-3.45515e-11
6.87442e-12
-3.66565e-11
7.89457e-12
-3.8619e-11
8.97693e-12
-4.04389e-11
1.01201e-11
-4.21167e-11
1.13222e-11
-4.36523e-11
1.25815e-11
-4.50459e-11
1.3896e-11
-4.62977e-11
1.52631e-11
-4.74076e-11
1.66804e-11
-4.83758e-11
1.81461e-11
-4.92027e-11
1.96583e-11
-4.98896e-11
2.12093e-11
-5.04364e-11
2.27671e-11
-5.08322e-11
2.59967e-11
-5.10536e-11
9.79791e-14
-5.11318e-11
1.74566e-12
-5.12179e-11
4.76418e-12
-5.07082e-11
7.05199e-12
-4.66991e-11
8.79556e-12
-4.38897e-11
1.01739e-11
-4.19782e-11
1.12825e-11
-4.06528e-11
1.21836e-11
-3.97018e-11
1.29174e-11
-3.89769e-11
1.35083e-11
-3.83825e-11
1.39703e-11
-3.78615e-11
1.43111e-11
-3.73828e-11
1.45366e-11
-3.69312e-11
1.46518e-11
-3.64995e-11
1.4663e-11
-3.60838e-11
1.4577e-11
-3.56807e-11
1.44014e-11
-3.52863e-11
1.41441e-11
-3.48958e-11
1.38127e-11
-3.45044e-11
1.3414e-11
-3.41071e-11
1.2954e-11
-3.37002e-11
1.24379e-11
-3.32805e-11
1.18698e-11
-3.28464e-11
-3.23972e-11
1.12528e-11
1.53733e-14
-1.93737e-12
8.72027e-14
-5.68348e-12
2.23734e-13
-9.2908e-12
4.24993e-13
-1.27538e-11
6.90998e-13
-1.60722e-11
1.02163e-12
-1.9246e-11
1.41652e-12
-2.22752e-11
1.87524e-12
-2.51601e-11
2.39716e-12
-2.79007e-11
2.9817e-12
-3.04974e-11
3.62803e-12
-3.295e-11
4.33548e-12
-3.5259e-11
5.10311e-12
-3.74242e-11
5.93018e-12
-3.9446e-11
6.81566e-12
-4.13244e-11
7.75882e-12
-4.30598e-11
8.75856e-12
-4.4652e-11
9.8142e-12
-4.61016e-11
1.09247e-11
-4.74082e-11
1.20895e-11
-4.85725e-11
1.33076e-11
-4.95939e-11
1.45781e-11
-5.04732e-11
1.58983e-11
-5.12099e-11
1.72688e-11
-5.18069e-11
1.87047e-11
-5.22681e-11
2.0221e-11
-5.25992e-11
-1.92111e-11
-5.28062e-11
-1.76221e-11
-5.28068e-11
-1.55973e-11
-5.27331e-11
-1.21734e-11
-5.01229e-11
-9.32259e-12
-4.67405e-11
-6.94365e-12
-4.43572e-11
-4.94145e-12
-4.2655e-11
-3.22223e-12
-4.1421e-11
-1.7203e-12
-4.04788e-11
-3.94181e-13
-3.97086e-11
7.81087e-13
-3.90368e-11
1.82031e-12
-3.84221e-11
2.73243e-12
-3.78433e-11
3.52341e-12
-3.72905e-11
4.19813e-12
-3.67585e-11
4.7613e-12
-3.62439e-11
5.21785e-12
-3.57429e-11
5.57294e-12
-3.52509e-11
5.83179e-12
-3.47632e-11
5.99952e-12
-3.42749e-11
6.08091e-12
-3.37816e-11
6.08032e-12
-3.32799e-11
6.00164e-12
-3.27677e-11
-3.22438e-11
5.84827e-12
6.21495e-14
-1.99952e-12
2.13717e-13
-5.83504e-12
4.41778e-13
-9.51886e-12
7.44894e-13
-1.3057e-11
1.12228e-12
-1.64496e-11
1.57309e-12
-1.96968e-11
2.09649e-12
-2.27986e-11
2.69163e-12
-2.57553e-11
3.35779e-12
-2.85669e-11
4.09422e-12
-3.12338e-11
4.90035e-12
-3.37561e-11
5.77552e-12
-3.61341e-11
6.71927e-12
-3.83679e-11
7.73096e-12
-4.04577e-11
8.81016e-12
-4.24036e-11
9.95618e-12
-4.42058e-11
1.11686e-11
-4.58645e-11
1.24467e-11
-4.73797e-11
1.37899e-11
-4.87515e-11
1.51976e-11
-4.99801e-11
1.66693e-11
-5.10656e-11
1.82044e-11
-5.20083e-11
1.98032e-11
-5.28087e-11
2.14632e-11
-5.34669e-11
2.31753e-11
-5.39802e-11
2.49197e-11
-5.43436e-11
1.8289e-11
-5.45454e-11
1.59503e-12
-5.45594e-11
3.47612e-12
-5.46141e-11
7.75037e-12
-5.43972e-11
1.14697e-11
-5.04598e-11
1.43779e-11
-4.72654e-11
1.67182e-11
-4.49953e-11
1.86132e-11
-4.3316e-11
2.01569e-11
-4.20225e-11
2.14203e-11
-4.09719e-11
2.24537e-11
-4.00702e-11
2.32916e-11
-3.926e-11
2.39579e-11
-3.85096e-11
2.44694e-11
-3.7802e-11
2.4839e-11
-3.71281e-11
2.50773e-11
-3.64822e-11
2.51938e-11
-3.58594e-11
2.51973e-11
-3.52544e-11
2.50958e-11
-3.46617e-11
2.48969e-11
-3.40759e-11
2.46073e-11
-3.3492e-11
2.4233e-11
-3.29057e-11
2.37793e-11
-3.2314e-11
-3.17152e-11
2.32507e-11
1.39339e-14
-2.01345e-12
8.5588e-14
-5.9067e-12
2.24006e-13
-9.65727e-12
4.28611e-13
-1.32616e-11
6.99223e-13
-1.67202e-11
1.03571e-12
-2.00333e-11
1.43801e-12
-2.32009e-11
1.90601e-12
-2.62233e-11
2.43961e-12
-2.91005e-11
3.03862e-12
-3.18328e-11
3.70296e-12
-3.44205e-11
4.43241e-12
-3.68636e-11
5.2269e-12
-3.91624e-11
6.0862e-12
-4.1317e-11
7.01025e-12
-4.33277e-11
7.99878e-12
-4.51944e-11
9.05178e-12
-4.69175e-11
1.01689e-11
-4.84968e-11
1.13503e-11
-4.99328e-11
1.25955e-11
-5.12253e-11
1.39047e-11
-5.23748e-11
1.52774e-11
-5.3381e-11
1.67133e-11
-5.42446e-11
1.82109e-11
-5.49644e-11
1.97718e-11
-5.55411e-11
2.14043e-11
-5.59761e-11
2.3152e-11
-5.62693e-11
-1.3661e-11
-5.64427e-11
-1.18738e-11
-5.64013e-11
-9.87906e-12
-5.63919e-11
-6.25158e-12
-5.40873e-11
-3.11989e-12
-5.03971e-11
-5.25233e-13
-4.75899e-11
1.65067e-12
-4.54919e-11
3.5119e-12
-4.38838e-11
5.13017e-12
-4.25902e-11
6.55156e-12
-4.14915e-11
7.80498e-12
-4.05135e-11
8.9081e-12
-3.96127e-11
9.87185e-12
-3.87657e-11
1.07037e-11
-3.796e-11
1.14099e-11
-3.71884e-11
1.19962e-11
-3.64457e-11
1.24686e-11
-3.57267e-11
1.2833e-11
-3.50262e-11
1.30954e-11
-3.43383e-11
1.32614e-11
-3.36579e-11
1.33358e-11
-3.29801e-11
1.33231e-11
-3.23013e-11
-3.16191e-11
1.3227e-11
4.6376e-14
-2.05983e-12
1.59116e-13
-6.01944e-12
3.29881e-13
-9.82804e-12
5.5896e-13
-1.34906e-11
8.46508e-13
-1.70078e-11
1.19281e-12
-2.03796e-11
1.59818e-12
-2.36063e-11
2.06293e-12
-2.6688e-11
2.58727e-12
-2.96248e-11
3.17147e-12
-3.2417e-11
3.81565e-12
-3.50647e-11
4.52003e-12
-3.7568e-11
5.28473e-12
-3.99271e-11
6.10999e-12
-4.21423e-11
6.99597e-12
-4.42136e-11
7.94298e-12
-4.61414e-11
8.95124e-12
-4.79257e-11
1.00212e-11
-4.95668e-11
1.11532e-11
-5.10648e-11
1.2348e-11
-5.242e-11
1.36058e-11
-5.36326e-11
1.49276e-11
-5.47028e-11
1.63139e-11
-5.56309e-11
1.77665e-11
-5.64171e-11
1.92878e-11
-5.70624e-11
2.08783e-11
-5.75667e-11
2.25361e-11
-5.79271e-11
1.70606e-11
-5.81296e-11
1.44735e-13
-5.81559e-11
1.9661e-12
-5.82132e-11
5.88052e-12
-5.80017e-11
9.98027e-12
-5.44969e-11
1.32068e-11
-5.08165e-11
1.58108e-11
-4.80958e-11
1.79493e-11
-4.60223e-11
1.97325e-11
-4.43734e-11
2.12365e-11
-4.29955e-11
2.25107e-11
-4.17877e-11
2.35863e-11
-4.06883e-11
2.44831e-11
-3.96625e-11
2.52147e-11
-3.86916e-11
2.57918e-11
-3.77655e-11
2.62237e-11
-3.68776e-11
2.65194e-11
-3.60224e-11
2.66876e-11
-3.51944e-11
2.67369e-11
-3.43875e-11
2.6675e-11
-3.35959e-11
2.65091e-11
-3.28142e-11
2.62457e-11
-3.20379e-11
-3.12636e-11
2.58902e-11
6.72806e-15
-2.06656e-12
5.49757e-14
-6.06769e-12
1.54511e-13
-9.92757e-12
3.06011e-13
-1.36421e-11
5.09919e-13
-1.72117e-11
7.66731e-13
-2.06364e-11
1.07696e-12
-2.39165e-11
1.44113e-12
-2.70522e-11
1.85972e-12
-3.00434e-11
2.33326e-12
-3.28905e-11
2.86218e-12
-3.55936e-11
3.44699e-12
-3.81528e-11
4.08812e-12
-4.05682e-11
4.78615e-12
-4.28403e-11
5.54152e-12
-4.4969e-11
6.35489e-12
-4.69548e-11
7.22676e-12
-4.87976e-11
8.15792e-12
-5.04979e-11
9.14896e-12
-5.20559e-11
1.02009e-11
-5.34719e-11
1.13144e-11
-5.47461e-11
1.24907e-11
-5.58792e-11
1.37308e-11
-5.6871e-11
1.5036e-11
-5.77222e-11
1.64065e-11
-5.84329e-11
1.78436e-11
-5.90038e-11
1.93551e-11
-5.94386e-11
2.08031e-11
-5.97419e-11
-1.46484e-11
-5.99341e-11
-1.29484e-11
-5.99132e-11
-1.10284e-11
-5.99218e-11
-7.41502e-12
-5.81102e-11
-4.30535e-12
-5.39262e-11
-1.69333e-12
-5.07078e-11
5.37897e-13
-4.82535e-11
2.48795e-12
-4.63235e-11
4.22063e-12
-4.47282e-11
5.77318e-12
-4.33402e-11
7.16612e-12
-4.20813e-11
8.41005e-12
-4.09065e-11
9.51047e-12
-3.9792e-11
1.0471e-11
-3.8726e-11
1.12952e-11
-3.77018e-11
1.19876e-11
-3.67148e-11
1.25535e-11
-3.57603e-11
1.29989e-11
-3.48329e-11
1.33299e-11
-3.3927e-11
1.35525e-11
-3.30369e-11
1.36723e-11
-3.21576e-11
-3.12853e-11
1.3694e-11
4.78142e-14
-2.11437e-12
1.64919e-13
-6.18479e-12
3.41709e-13
-1.01044e-11
5.76668e-13
-1.38771e-11
8.68476e-13
-1.75035e-11
1.21607e-12
-2.0984e-11
1.61863e-12
-2.43191e-11
2.07545e-12
-2.7509e-11
2.58594e-12
-3.05539e-11
3.14955e-12
-3.34542e-11
3.7658e-12
-3.62098e-11
4.43416e-12
-3.88211e-11
5.15413e-12
-4.12882e-11
5.92512e-12
-4.36113e-11
6.74649e-12
-4.57904e-11
7.61744e-12
-4.78257e-11
8.53709e-12
-4.97172e-11
9.50426e-12
-5.14651e-11
1.05177e-11
-5.30693e-11
1.15757e-11
-5.453e-11
1.26765e-11
-5.58469e-11
1.38176e-11
-5.70203e-11
1.49965e-11
-5.80499e-11
1.62099e-11
-5.89356e-11
1.74542e-11
-5.96772e-11
1.87254e-11
-6.0275e-11
2.00152e-11
-6.07283e-11
2.13077e-11
-6.10345e-11
1.77801e-11
-6.1189e-11
7.71177e-14
-6.12032e-11
1.34043e-12
-6.11851e-11
4.09123e-12
-6.0861e-11
6.73315e-12
-5.65681e-11
8.97733e-12
-5.2952e-11
1.08971e-11
-5.01733e-11
1.25511e-11
-4.79774e-11
1.39843e-11
-4.61614e-11
1.52288e-11
-4.45847e-11
1.63057e-11
-4.31582e-11
1.72282e-11
-4.1829e-11
1.80053e-11
-4.0569e-11
1.86434e-11
-3.93641e-11
1.91486e-11
-3.8207e-11
1.95267e-11
-3.7093e-11
1.9784e-11
-3.60176e-11
1.99266e-11
-3.49755e-11
1.99605e-11
-3.39608e-11
1.98913e-11
-3.29677e-11
1.97242e-11
-3.19905e-11
-3.10247e-11
1.94635e-11
-1.28715e-15
-2.11308e-12
1.4359e-14
-6.20044e-12
5.50837e-14
-1.01451e-11
1.23292e-13
-1.39453e-11
2.21089e-13
-1.76013e-11
3.50338e-13
-2.11133e-11
5.12726e-13
-2.44815e-11
7.09741e-13
-2.7706e-11
9.42757e-13
-3.0787e-11
1.21299e-12
-3.37244e-11
1.52159e-12
-3.65184e-11
1.86958e-12
-3.91691e-11
2.25796e-12
-4.16766e-11
2.68764e-12
-4.4041e-11
3.15955e-12
-4.62623e-11
3.67451e-12
-4.83407e-11
4.23346e-12
-5.02762e-11
4.83719e-12
-5.20688e-11
5.48668e-12
-5.37188e-11
6.18276e-12
-5.5226e-11
6.92652e-12
-5.65907e-11
7.71885e-12
-5.78126e-11
8.56099e-12
-5.8892e-11
9.45393e-12
-5.98286e-11
1.03992e-11
-6.06225e-11
1.1398e-11
-6.12739e-11
1.24525e-11
-6.17827e-11
1.35643e-11
-6.21462e-11
1.46418e-11
-6.23556e-11
-1.35786e-11
-6.2415e-11
-1.2317e-11
-6.24467e-11
-1.08525e-11
-6.23255e-11
-8.4874e-12
-5.89331e-11
-6.44273e-12
-5.49967e-11
-4.66221e-12
-5.19538e-11
-3.08193e-12
-4.95577e-11
-1.65835e-12
-4.7585e-11
-3.64629e-13
-4.58785e-11
8.1417e-13
-4.43369e-11
1.88535e-12
-4.29002e-11
2.85142e-12
-4.15351e-11
3.71249e-12
-4.02252e-11
4.46784e-12
-3.89623e-11
5.117e-12
-3.77422e-11
5.66011e-12
-3.65607e-11
6.098e-12
-3.54134e-11
6.43212e-12
-3.4295e-11
6.66429e-12
-3.31998e-11
6.79653e-12
-3.21227e-11
-3.10591e-11
6.83095e-12
8.18881e-15
-2.12127e-12
3.06002e-14
-6.22285e-12
6.88005e-14
-1.01833e-11
1.25968e-13
-1.40025e-11
2.04955e-13
-1.76803e-11
3.08351e-13
-2.12167e-11
4.38563e-13
-2.46117e-11
5.97885e-13
-2.78653e-11
7.88538e-13
-3.09776e-11
1.01269e-12
-3.39485e-11
1.27252e-12
-3.67782e-11
1.57018e-12
-3.94668e-11
1.90793e-12
-4.20144e-11
2.2881e-12
-4.44211e-11
2.71313e-12
-4.66873e-11
3.18568e-12
-4.88132e-11
3.7086e-12
-5.07991e-11
4.28502e-12
-5.26453e-11
4.91842e-12
-5.43522e-11
5.61262e-12
-5.59202e-11
6.37193e-12
-5.735e-11
7.20117e-12
-5.86419e-11
8.10586e-12
-5.97967e-11
9.0922e-12
-6.08149e-11
1.0167e-11
-6.16973e-11
1.13372e-11
-6.2444e-11
1.26116e-11
-6.30572e-11
1.40084e-11
-6.3543e-11
1.5566e-11
-6.39131e-11
-2.20857e-11
-6.41682e-11
-2.27223e-11
-6.41504e-11
-2.08459e-11
-6.42018e-11
-1.74916e-11
-6.22875e-11
-1.47401e-11
-5.77483e-11
-1.24416e-11
-5.42523e-11
-1.04921e-11
-5.15071e-11
-8.80688e-12
-4.92703e-11
-7.32597e-12
-4.73594e-11
-6.01178e-12
-4.56511e-11
-4.84253e-12
-4.40694e-11
-3.8065e-12
-4.25711e-11
-2.89764e-12
-4.1134e-11
-2.11264e-12
-3.97473e-11
-1.44917e-12
-3.84056e-11
-9.04942e-13
-3.71049e-11
-4.773e-13
-3.5841e-11
-1.63175e-13
-3.46091e-11
4.07838e-14
-3.34038e-11
1.38041e-13
-3.222e-11
-3.1053e-11
1.32019e-13
2.61629e-14
1.01162e-13
2.22569e-13
3.88664e-13
5.98052e-13
8.49548e-13
1.14212e-12
1.47492e-12
1.84721e-12
2.25842e-12
2.70799e-12
3.19547e-12
3.72038e-12
4.28229e-12
4.88064e-12
5.51492e-12
6.1844e-12
6.88831e-12
7.62563e-12
8.39522e-12
9.19553e-12
1.00249e-11
1.08809e-11
1.17612e-11
1.26627e-11
1.35827e-11
1.45169e-11
1.54537e-11
1.63644e-11
1.70054e-11
-5.4342e-12
-4.53902e-12
-3.80989e-12
-3.12432e-12
-2.50495e-12
-1.94158e-12
-1.43744e-12
-9.98893e-13
-6.30744e-13
-3.36399e-13
-1.18267e-13
2.18272e-14
8.25696e-14
6.31478e-14
-3.67765e-14
-2.17115e-13
-4.77415e-13
-8.16926e-13
-1.23466e-12
-1.72947e-12
-4.63985e-11
-3.69465e-11
-4.68911e-11
-3.67279e-11
-4.73863e-11
-3.64874e-11
-4.78836e-11
-3.6228e-11
-4.83829e-11
-3.5953e-11
-4.88841e-11
-3.56654e-11
-4.93868e-11
-3.53679e-11
-4.98911e-11
-3.50628e-11
-5.03966e-11
-3.47524e-11
-5.09033e-11
-3.44385e-11
-5.1411e-11
-3.41226e-11
-5.19195e-11
-3.38059e-11
-5.24286e-11
-3.34896e-11
-5.29384e-11
-3.31742e-11
-5.34485e-11
-3.28605e-11
-5.39588e-11
-3.25488e-11
-5.44693e-11
-3.22393e-11
-5.49798e-11
-3.19321e-11
-5.54902e-11
-3.16273e-11
-5.60002e-11
-3.13247e-11
-5.65099e-11
-3.10241e-11
-5.70191e-11
-3.07253e-11
-5.75277e-11
-3.04279e-11
-5.80355e-11
-3.01317e-11
-5.85425e-11
-2.98363e-11
-5.90486e-11
-2.95413e-11
-5.95535e-11
-2.92464e-11
-6.00573e-11
-2.89512e-11
-6.05598e-11
-2.86555e-11
-6.1061e-11
-2.83591e-11
-6.15607e-11
-2.80618e-11
-6.20588e-11
-2.77637e-11
-6.25553e-11
-2.74649e-11
-6.305e-11
-2.71657e-11
-6.3543e-11
-2.68665e-11
-6.4034e-11
-2.65676e-11
-6.45231e-11
-2.62697e-11
-6.50101e-11
-2.59731e-11
-6.5495e-11
-2.56785e-11
-6.59777e-11
-2.53862e-11
-6.64581e-11
-2.50966e-11
-6.69362e-11
-2.48103e-11
-6.74119e-11
-2.45281e-11
-6.78852e-11
-2.42523e-11
-6.8356e-11
-2.39864e-11
-6.88243e-11
-2.37368e-11
-6.92899e-11
-2.35135e-11
-6.9753e-11
-2.3331e-11
-7.02134e-11
-2.32087e-11
-2.31743e-11
-7.06647e-11
-4.43858e-11
-3.64689e-11
-4.487e-11
-3.62437e-11
-4.53603e-11
-3.5997e-11
-4.58565e-11
-3.57318e-11
-4.63581e-11
-3.54514e-11
-4.68649e-11
-3.51587e-11
-4.73764e-11
-3.48563e-11
-4.78924e-11
-3.45468e-11
-4.84126e-11
-3.42322e-11
-4.89366e-11
-3.39144e-11
-4.94643e-11
-3.35949e-11
-4.99953e-11
-3.3275e-11
-5.05293e-11
-3.29556e-11
-5.1066e-11
-3.26375e-11
-5.16052e-11
-3.23213e-11
-5.21467e-11
-3.20073e-11
-5.26901e-11
-3.16958e-11
-5.32352e-11
-3.1387e-11
-5.37818e-11
-3.10807e-11
-5.43296e-11
-3.07769e-11
-5.48784e-11
-3.04753e-11
-5.54279e-11
-3.01758e-11
-5.59779e-11
-2.98779e-11
-5.65282e-11
-2.95814e-11
-5.70786e-11
-2.9286e-11
-5.76289e-11
-2.89911e-11
-5.81787e-11
-2.86965e-11
-5.87281e-11
-2.84019e-11
-5.92767e-11
-2.81069e-11
-5.98243e-11
-2.78114e-11
-6.03708e-11
-2.75153e-11
-6.0916e-11
-2.72185e-11
-6.14597e-11
-2.69212e-11
-6.20018e-11
-2.66237e-11
-6.25421e-11
-2.63262e-11
-6.30804e-11
-2.60293e-11
-6.36165e-11
-2.57335e-11
-6.41505e-11
-2.54392e-11
-6.4682e-11
-2.5147e-11
-6.5211e-11
-2.48572e-11
-6.57374e-11
-2.45703e-11
-6.6261e-11
-2.42867e-11
-6.67817e-11
-2.40074e-11
-6.72995e-11
-2.37345e-11
-6.78141e-11
-2.34717e-11
-6.83256e-11
-2.32253e-11
-6.88338e-11
-2.30052e-11
-6.93387e-11
-2.2826e-11
-6.98402e-11
-2.27072e-11
-2.26708e-11
-7.03437e-11
-3.98127e-11
-3.59672e-11
-4.03222e-11
-3.57343e-11
-4.08391e-11
-3.548e-11
-4.13632e-11
-3.52077e-11
-4.18942e-11
-3.49204e-11
-4.24317e-11
-3.46212e-11
-4.29755e-11
-3.43126e-11
-4.35253e-11
-3.39971e-11
-4.40807e-11
-3.36768e-11
-4.46415e-11
-3.33537e-11
-4.52073e-11
-3.30291e-11
-4.57778e-11
-3.27044e-11
-4.63528e-11
-3.23806e-11
-4.69319e-11
-3.20583e-11
-4.75149e-11
-3.17383e-11
-4.81014e-11
-3.14208e-11
-4.86912e-11
-3.11061e-11
-4.92839e-11
-3.07942e-11
-4.98794e-11
-3.04853e-11
-5.04772e-11
-3.0179e-11
-5.10772e-11
-2.98753e-11
-5.1679e-11
-2.95739e-11
-5.22825e-11
-2.92744e-11
-5.28873e-11
-2.89766e-11
-5.34933e-11
-2.868e-11
-5.41001e-11
-2.83843e-11
-5.47075e-11
-2.80891e-11
-5.53154e-11
-2.7794e-11
-5.59235e-11
-2.74988e-11
-5.65316e-11
-2.72034e-11
-5.71394e-11
-2.69075e-11
-5.77468e-11
-2.66111e-11
-5.83536e-11
-2.63144e-11
-5.89596e-11
-2.60176e-11
-5.95647e-11
-2.57212e-11
-6.01686e-11
-2.54254e-11
-6.07712e-11
-2.51309e-11
-6.13723e-11
-2.48381e-11
-6.19719e-11
-2.45474e-11
-6.25697e-11
-2.42594e-11
-6.31656e-11
-2.39743e-11
-6.37596e-11
-2.36927e-11
-6.43514e-11
-2.34156e-11
-6.4941e-11
-2.31449e-11
-6.55283e-11
-2.28844e-11
-6.61132e-11
-2.26404e-11
-6.66956e-11
-2.24229e-11
-6.72754e-11
-2.22462e-11
-6.78526e-11
-2.213e-11
-2.21006e-11
-6.84229e-11
-3.59077e-11
-3.54715e-11
-3.64158e-11
-3.52262e-11
-3.69358e-11
-3.49601e-11
-3.7467e-11
-3.46765e-11
-3.80091e-11
-3.43784e-11
-3.85613e-11
-3.40689e-11
-3.91233e-11
-3.37506e-11
-3.96945e-11
-3.34259e-11
-4.02744e-11
-3.3097e-11
-4.08624e-11
-3.27656e-11
-4.14581e-11
-3.24334e-11
-4.20611e-11
-3.21015e-11
-4.26708e-11
-3.17709e-11
-4.32868e-11
-3.14423e-11
-4.39086e-11
-3.11164e-11
-4.45359e-11
-3.07935e-11
-4.51681e-11
-3.04738e-11
-4.5805e-11
-3.01574e-11
-4.6446e-11
-2.98442e-11
-4.70909e-11
-2.95341e-11
-4.77393e-11
-2.9227e-11
-4.83907e-11
-2.89225e-11
-4.90449e-11
-2.86202e-11
-4.97016e-11
-2.832e-11
-5.03604e-11
-2.80212e-11
-5.10209e-11
-2.77237e-11
-5.1683e-11
-2.7427e-11
-5.23463e-11
-2.71307e-11
-5.30105e-11
-2.68346e-11
-5.36753e-11
-2.65385e-11