/*--------------------------------*- C++ -*----------------------------------*\
| =========                 |                                                 |
| \\      /  F ield         | OpenFOAM: The Open Source CFD Toolbox           |
|  \\    /   O peration     | Version:  2.4.0                                 |
|   \\  /    A nd           | Web:      www.OpenFOAM.org                      |
|    \\/     M anipulation  |                                                 |
\*---------------------------------------------------------------------------*/
FoamFile
{
    version     2.0;
    format      ascii;
    class       volVectorField;
    location    "2.4";
    object      U;
}
// * * * * * * * * * * * * * * * * * * * * * * * * * * * * * * * * * * * * * //

dimensions      [0 1 -1 0 0 0 0];

internalField   nonuniform List<vector> 
8000
(
(-7.65808e-08 -0.000177166 0)
(-4.88946e-07 -0.000516869 0)
(-1.20827e-06 -0.000842029 0)
(-2.17995e-06 -0.00115272 0)
(-3.35505e-06 -0.001449 0)
(-4.70093e-06 -0.00173091 0)
(-6.18558e-06 -0.0019985 0)
(-7.78677e-06 -0.0022518 0)
(-9.47521e-06 -0.00249084 0)
(-1.12337e-05 -0.00271562 0)
(-1.30336e-05 -0.00292617 0)
(-1.48618e-05 -0.00312249 0)
(-1.6688e-05 -0.00330457 0)
(-1.85025e-05 -0.00347242 0)
(-2.02701e-05 -0.00362601 0)
(-2.19829e-05 -0.00376532 0)
(-2.35991e-05 -0.00389033 0)
(-2.51234e-05 -0.004001 0)
(-2.65279e-05 -0.00409729 0)
(-2.78028e-05 -0.00417916 0)
(-2.86375e-05 -0.00424653 0)
(-2.84031e-05 -0.00429928 0)
(-2.71865e-05 -0.00433717 0)
(-3.15012e-05 -0.00436025 0)
(-5.48519e-05 -0.00437008 0)
(-0.000108137 -0.00437002 0)
(-0.000255531 -0.00436992 0)
(-0.000505428 -0.00409346 0)
(-0.000288109 -0.00390166 0)
(-0.000284827 -0.00378542 0)
(-0.000296038 -0.00372506 0)
(-0.00030361 -0.00370021 0)
(-0.000306674 -0.00369562 0)
(-0.000309052 -0.00370167 0)
(-0.000311789 -0.00371281 0)
(-0.000314829 -0.00372603 0)
(-0.000318015 -0.00373981 0)
(-0.000321292 -0.00375341 0)
(-0.000324652 -0.00376638 0)
(-0.000328089 -0.00377833 0)
(-0.000331597 -0.00378886 0)
(-0.000335167 -0.00379751 0)
(-0.000338792 -0.00380381 0)
(-0.000342468 -0.00380734 0)
(-0.000346187 -0.00380775 0)
(-0.000349947 -0.00380484 0)
(-0.000353742 -0.00379849 0)
(-0.000357571 -0.00378871 0)
(-0.000361428 -0.00377563 0)
(-0.000365313 -0.00375944 0)
(-1.72915e-08 -0.000172734 0)
(-2.8106e-07 -0.000504822 0)
(-8.14875e-07 -0.000823466 0)
(-1.59488e-06 -0.00112861 0)
(-2.58176e-06 -0.0014202 0)
(-3.74139e-06 -0.00169821 0)
(-5.04385e-06 -0.00196259 0)
(-6.46271e-06 -0.00221333 0)
(-7.97146e-06 -0.00245039 0)
(-9.54642e-06 -0.00267377 0)
(-1.1162e-05 -0.00288345 0)
(-1.27965e-05 -0.00307942 0)
(-1.44237e-05 -0.00326168 0)
(-1.60227e-05 -0.00343024 0)
(-1.75644e-05 -0.00358509 0)
(-1.90271e-05 -0.00372624 0)
(-2.03779e-05 -0.00385372 0)
(-2.16066e-05 -0.00396754 0)
(-2.26983e-05 -0.00406772 0)
(-2.36163e-05 -0.00415429 0)
(-2.40334e-05 -0.0042273 0)
(-2.32716e-05 -0.0042868 0)
(-2.16373e-05 -0.00433288 0)
(-2.64495e-05 -0.00436561 0)
(-5.17541e-05 -0.00438472 0)
(-0.00010419 -0.00439095 0)
(-0.000265505 -0.00439355 0)
(-0.000514922 -0.00407126 0)
(-0.000282931 -0.00386608 0)
(-0.000279873 -0.00374528 0)
(-0.000290859 -0.00368039 0)
(-0.00029757 -0.00365062 0)
(-0.000299545 -0.00364145 0)
(-0.0003009 -0.0036435 0)
(-0.000302716 -0.00365113 0)
(-0.000304914 -0.00366126 0)
(-0.000307325 -0.00367231 0)
(-0.00030989 -0.00368348 0)
(-0.000312597 -0.00369429 0)
(-0.000315441 -0.00370432 0)
(-0.000318411 -0.00371314 0)
(-0.000321496 -0.00372026 0)
(-0.000324687 -0.00372519 0)
(-0.000327975 -0.00372748 0)
(-0.000331353 -0.00372679 0)
(-0.000334813 -0.00372288 0)
(-0.00033835 -0.00371562 0)
(-0.000341958 -0.00370502 0)
(-0.000345632 -0.00369118 0)
(-0.000349368 -0.00367431 0)
(-5.45827e-09 -0.000172947 0)
(-1.76474e-08 -0.00050528 0)
(-3.63557e-08 -0.00082404 0)
(-6.16306e-08 -0.00112921 0)
(-9.33205e-08 -0.00142079 0)
(-1.33931e-07 -0.00169876 0)
(-1.81089e-07 -0.0019631 0)
(-2.36901e-07 -0.00221383 0)
(-2.96694e-07 -0.00245092 0)
(-3.63274e-07 -0.00267437 0)
(-4.30138e-07 -0.00288419 0)
(-5.01847e-07 -0.00308037 0)
(-5.70186e-07 -0.00326292 0)
(-6.42601e-07 -0.00343184 0)
(-7.08932e-07 -0.00358713 0)
(-7.80546e-07 -0.00372881 0)
(-8.45211e-07 -0.00385689 0)
(-9.23422e-07 -0.00397139 0)
(-1.00902e-06 -0.00407232 0)
(-1.12988e-06 -0.0041597 0)
(-1.19831e-06 -0.00423355 0)
(-1.04094e-06 -0.00429394 0)
(-5.64373e-07 -0.00434092 0)
(-1.79432e-06 -0.00437453 0)
(-8.50432e-06 -0.00439431 0)
(-3.3143e-05 -0.00440016 0)
(-0.000207214 -0.00440356 0)
(-0.000477437 -0.0040795 0)
(-0.000233377 -0.0038729 0)
(-0.000237153 -0.00375067 0)
(-0.000249646 -0.00368422 0)
(-0.000256774 -0.00365284 0)
(-0.000259048 -0.00364204 0)
(-0.000260775 -0.00364249 0)
(-0.00026295 -0.00364856 0)
(-0.000265461 -0.00365717 0)
(-0.000268142 -0.00366674 0)
(-0.000270944 -0.00367648 0)
(-0.000273865 -0.00368593 0)
(-0.000276903 -0.00369466 0)
(-0.000280053 -0.00370224 0)
(-0.000283308 -0.00370819 0)
(-0.000286662 -0.00371201 0)
(-0.000290109 -0.00371326 0)
(-0.000293645 -0.00371159 0)
(-0.000297264 -0.00370674 0)
(-0.000300962 -0.00369859 0)
(-0.000304736 -0.00368716 0)
(-0.000308582 -0.00367253 0)
(-0.000312498 -0.00365489 0)
(1.06916e-08 -0.000172805 0)
(8.53515e-08 -0.000504894 0)
(2.27895e-07 -0.000823442 0)
(4.32362e-07 -0.00112843 0)
(6.91436e-07 -0.00141984 0)
(1.00012e-06 -0.00169765 0)
(1.35225e-06 -0.00196185 0)
(1.74365e-06 -0.00221242 0)
(2.16726e-06 -0.00244935 0)
(2.61894e-06 -0.00267263 0)
(3.09036e-06 -0.00288224 0)
(3.57747e-06 -0.00307818 0)
(4.07016e-06 -0.00326043 0)
(4.56457e-06 -0.00342898 0)
(5.04817e-06 -0.00358382 0)
(5.51754e-06 -0.00372495 0)
(5.95692e-06 -0.00385236 0)
(6.36255e-06 -0.00396603 0)
(6.71069e-06 -0.00406596 0)
(6.9969e-06 -0.00415214 0)
(7.21566e-06 -0.00422455 0)
(7.44982e-06 -0.0042832 0)
(7.7477e-06 -0.00432807 0)
(7.44785e-06 -0.00435913 0)
(5.31274e-06 -0.00437631 0)
(-6.93206e-06 -0.0043803 0)
(-0.000192926 -0.00438146 0)
(-0.000458442 -0.0040517 0)
(-0.000210345 -0.00384141 0)
(-0.000216416 -0.00371568 0)
(-0.000228409 -0.00364594 0)
(-0.000234558 -0.00361151 0)
(-0.000235908 -0.00359792 0)
(-0.000236815 -0.00359579 0)
(-0.000238217 -0.00359949 0)
(-0.000239985 -0.00360591 0)
(-0.000241956 -0.00361345 0)
(-0.000244091 -0.00362131 0)
(-0.000246389 -0.00362899 0)
(-0.000248851 -0.00363608 0)
(-0.000251474 -0.00364213 0)
(-0.000254251 -0.00364663 0)
(-0.000257177 -0.00364909 0)
(-0.000260245 -0.00364906 0)
(-0.00026345 -0.00364616 0)
(-0.000266786 -0.00364015 0)
(-0.000270248 -0.0036309 0)
(-0.000273831 -0.00361839 0)
(-0.000277529 -0.00360273 0)
(-0.000281338 -0.00358411 0)
(1.93947e-08 -0.000173839 0)
(2.14429e-07 -0.000507838 0)
(6.08001e-07 -0.000828141 0)
(1.19023e-06 -0.00113473 0)
(1.94275e-06 -0.0014276 0)
(2.85317e-06 -0.00170673 0)
(3.90643e-06 -0.00197212 0)
(5.09404e-06 -0.00222373 0)
(6.39992e-06 -0.00246158 0)
(7.8177e-06 -0.00268564 0)
(9.3292e-06 -0.0028959 0)
(1.09311e-05 -0.00309236 0)
(1.26019e-05 -0.003275 0)
(1.43427e-05 -0.00344382 0)
(1.61273e-05 -0.0035988 0)
(1.79629e-05 -0.00373994 0)
(1.98164e-05 -0.00386723 0)
(2.17028e-05 -0.00398067 0)
(2.35738e-05 -0.00408023 0)
(2.54534e-05 -0.00416593 0)
(2.73095e-05 -0.00423775 0)
(2.93049e-05 -0.00429569 0)
(3.14952e-05 -0.00433973 0)
(3.31578e-05 -0.00436984 0)
(3.20961e-05 -0.0043861 0)
(1.90796e-05 -0.00438917 0)
(-0.00016316 -0.00439023 0)
(-0.000418869 -0.00406011 0)
(-0.000174553 -0.00384966 0)
(-0.000183109 -0.0037233 0)
(-0.000193528 -0.00365242 0)
(-0.000198006 -0.00361646 0)
(-0.000198069 -0.00360107 0)
(-0.000197912 -0.00359694 0)
(-0.000198351 -0.00359848 0)
(-0.000199234 -0.00360263 0)
(-0.000200405 -0.00360784 0)
(-0.000201825 -0.00361332 0)
(-0.000203495 -0.00361862 0)
(-0.000205413 -0.00362334 0)
(-0.000207572 -0.00362705 0)
(-0.000209964 -0.00362927 0)
(-0.000212579 -0.0036295 0)
(-0.000215408 -0.00362732 0)
(-0.000218441 -0.00362234 0)
(-0.000221669 -0.00361433 0)
(-0.000225083 -0.00360316 0)
(-0.000228674 -0.00358882 0)
(-0.000232433 -0.00357141 0)
(-0.000236351 -0.00355111 0)
(3.49589e-08 -0.000175501 0)
(3.51617e-07 -0.000512643 0)
(9.85674e-07 -0.000835911 0)
(1.92304e-06 -0.00114529 0)
(3.1369e-06 -0.00144078 0)
(4.61284e-06 -0.00172236 0)
(6.32876e-06 -0.00199002 0)
(8.27711e-06 -0.00224376 0)
(1.0433e-05 -0.00248356 0)
(1.27934e-05 -0.00270942 0)
(1.53288e-05 -0.00292132 0)
(1.80424e-05 -0.00311926 0)
(2.08982e-05 -0.00330322 0)
(2.3908e-05 -0.00347321 0)
(2.70261e-05 -0.00362921 0)
(3.02767e-05 -0.00377122 0)
(3.36004e-05 -0.00389922 0)
(3.70369e-05 -0.00401322 0)
(4.04984e-05 -0.0041132 0)
(4.40428e-05 -0.00419917 0)
(4.7598e-05 -0.00427111 0)
(5.1447e-05 -0.00432902 0)
(5.56679e-05 -0.00437289 0)
(5.92753e-05 -0.00440266 0)
(5.85488e-05 -0.00441848 0)
(4.03437e-05 -0.00442126 0)
(-0.000130921 -0.00442206 0)
(-0.000376769 -0.00408664 0)
(-0.00013881 -0.00387062 0)
(-0.000149518 -0.00373864 0)
(-0.000157721 -0.0036622 0)
(-0.000160291 -0.00362086 0)
(-0.00015904 -0.0036003 0)
(-0.000157878 -0.00359123 0)
(-0.000157454 -0.00358804 0)
(-0.000157584 -0.00358767 0)
(-0.000158111 -0.00358854 0)
(-0.00015899 -0.00358988 0)
(-0.000160213 -0.00359121 0)
(-0.000161768 -0.00359214 0)
(-0.000163643 -0.00359223 0)
(-0.000165821 -0.003591 0)
(-0.00016829 -0.00358796 0)
(-0.000171033 -0.00358265 0)
(-0.000174038 -0.00357472 0)
(-0.000177291 -0.0035639 0)
(-0.000180778 -0.00355007 0)
(-0.000184489 -0.00353322 0)
(-0.000188409 -0.00351342 0)
(-0.000192529 -0.00349087 0)
(4.43619e-08 -0.000178034 0)
(4.75754e-07 -0.000519984 0)
(1.34754e-06 -0.000847809 0)
(2.64322e-06 -0.00116151 0)
(4.32774e-06 -0.00146107 0)
(6.38323e-06 -0.00174649 0)
(8.78221e-06 -0.00201777 0)
(1.15173e-05 -0.0022749 0)
(1.45584e-05 -0.00251788 0)
(1.79047e-05 -0.0027467 0)
(2.15205e-05 -0.00296136 0)
(2.54136e-05 -0.00316185 0)
(2.95395e-05 -0.00334817 0)
(3.39173e-05 -0.0035203 0)
(3.84897e-05 -0.00367825 0)
(4.32915e-05 -0.003822 0)
(4.8247e-05 -0.00395156 0)
(5.34095e-05 -0.00406691 0)
(5.86615e-05 -0.00416804 0)
(6.40718e-05 -0.00425496 0)
(6.95592e-05 -0.00432766 0)
(7.55848e-05 -0.00438613 0)
(8.24203e-05 -0.00443034 0)
(8.8391e-05 -0.00446023 0)
(8.64951e-05 -0.00447589 0)
(5.33602e-05 -0.00447887 0)
(-0.000103483 -0.00447896 0)
(-0.000351111 -0.00413712 0)
(-0.000115763 -0.00391357 0)
(-0.000127541 -0.00377416 0)
(-0.000133174 -0.00369075 0)
(-0.000133434 -0.00364288 0)
(-0.000130242 -0.00361618 0)
(-0.000127319 -0.00360131 0)
(-0.000125217 -0.00359263 0)
(-0.000123751 -0.00358703 0)
(-0.000122776 -0.00358293 0)
(-0.000122251 -0.00357952 0)
(-0.000122169 -0.00357633 0)
(-0.000122516 -0.00357294 0)
(-0.000123278 -0.00356891 0)
(-0.000124437 -0.00356376 0)
(-0.000125976 -0.00355699 0)
(-0.000127878 -0.00354815 0)
(-0.000130127 -0.00353686 0)
(-0.000132705 -0.00352286 0)
(-0.000135597 -0.00350603 0)
(-0.000138788 -0.00348634 0)
(-0.000142262 -0.00346387 0)
(-0.000146005 -0.00343881 0)
(5.28996e-08 -0.000181362 0)
(5.26732e-07 -0.000529601 0)
(1.47839e-06 -0.000863379 0)
(2.89224e-06 -0.00118272 0)
(4.73632e-06 -0.00148765 0)
(6.99668e-06 -0.00177819 0)
(9.65018e-06 -0.00205434 0)
(1.26933e-05 -0.00231613 0)
(1.61001e-05 -0.00256355 0)
(1.98729e-05 -0.00279662 0)
(2.39804e-05 -0.00301533 0)
(2.84325e-05 -0.00321968 0)
(3.31892e-05 -0.00340968 0)
(3.82706e-05 -0.0035853 0)
(4.36238e-05 -0.00374654 0)
(4.92833e-05 -0.00389339 0)
(5.51785e-05 -0.00402583 0)
(6.13589e-05 -0.00414384 0)
(6.77044e-05 -0.00424739 0)
(7.42632e-05 -0.00433646 0)
(8.09811e-05 -0.00441103 0)
(8.84922e-05 -0.00447105 0)
(9.74306e-05 -0.00451646 0)
(0.000105499 -0.00454714 0)
(0.00010123 -0.00456309 0)
(5.06752e-05 -0.00456629 0)
(-9.71126e-05 -0.00456509 0)
(-0.000357371 -0.0042274 0)
(-0.000113408 -0.00400164 0)
(-0.000122635 -0.00385696 0)
(-0.000125441 -0.00376729 0)
(-0.000123217 -0.00371261 0)
(-0.000117787 -0.00367884 0)
(-0.000112824 -0.00365678 0)
(-0.000108835 -0.00364093 0)
(-0.000105612 -0.00362827 0)
(-0.000102999 -0.00361724 0)
(-0.000100954 -0.00360707 0)
(-9.94644e-05 -0.00359732 0)
(-9.85138e-05 -0.00358758 0)
(-9.80806e-05 -0.00357742 0)
(-9.81408e-05 -0.00356637 0)
(-9.86697e-05 -0.00355393 0)
(-9.96431e-05 -0.00353965 0)
(-0.000101037 -0.00352316 0)
(-0.00010283 -0.00350419 0)
(-0.000105 -0.00348261 0)
(-0.000107528 -0.00345837 0)
(-0.000110396 -0.00343157 0)
(-0.000113588 -0.00340236 0)
(1.60588e-08 -0.00018425 0)
(2.08264e-07 -0.000538098 0)
(6.45786e-07 -0.000877332 0)
(1.35284e-06 -0.00120198 0)
(2.34456e-06 -0.00151208 0)
(3.64276e-06 -0.00180765 0)
(5.25877e-06 -0.00208871 0)
(7.21465e-06 -0.00235528 0)
(9.51518e-06 -0.00260735 0)
(1.21843e-05 -0.00284494 0)
(1.52203e-05 -0.00306805 0)
(1.86528e-05 -0.00327666 0)
(2.24727e-05 -0.00347078 0)
(2.67194e-05 -0.00365039 0)
(3.13746e-05 -0.00381547 0)
(3.64945e-05 -0.003966 0)
(4.20497e-05 -0.00410193 0)
(4.8115e-05 -0.00422325 0)
(5.46105e-05 -0.00432989 0)
(6.15968e-05 -0.00442182 0)
(6.90925e-05 -0.00449898 0)
(7.79993e-05 -0.00456129 0)
(8.95399e-05 -0.00460863 0)
(0.000101221 -0.00464078 0)
(9.54155e-05 -0.00465764 0)
(2.9997e-05 -0.00466114 0)
(-0.000108708 -0.00466071 0)
(-0.00036622 -0.00434564 0)
(-0.000114087 -0.00410967 0)
(-0.000106368 -0.00394347 0)
(-0.000101669 -0.00383662 0)
(-9.43323e-05 -0.00376828 0)
(-8.50653e-05 -0.00372336 0)
(-7.69289e-05 -0.00369173 0)
(-7.02192e-05 -0.00366728 0)
(-6.45899e-05 -0.0036466 0)
(-5.98021e-05 -0.00362796 0)
(-5.5773e-05 -0.00361051 0)
(-5.24758e-05 -0.00359378 0)
(-4.98896e-05 -0.00357739 0)
(-4.79867e-05 -0.00356095 0)
(-4.67335e-05 -0.00354397 0)
(-4.60924e-05 -0.00352598 0)
(-4.60244e-05 -0.00350652 0)
(-4.64908e-05 -0.00348518 0)
(-4.74557e-05 -0.00346168 0)
(-4.88867e-05 -0.00343583 0)
(-5.07558e-05 -0.00340759 0)
(-5.30388e-05 -0.00337701 0)
(-5.57154e-05 -0.00334421 0)
(2.47792e-08 -0.000183793 0)
(4.45423e-07 -0.000537608 0)
(1.35935e-06 -0.000877632 0)
(2.78944e-06 -0.00120382 0)
(4.71844e-06 -0.00151611 0)
(7.15488e-06 -0.00181446 0)
(1.00859e-05 -0.00209883 0)
(1.35325e-05 -0.00236919 0)
(1.74775e-05 -0.00262552 0)
(2.19534e-05 -0.00286782 0)
(2.69354e-05 -0.00309607 0)
(3.24697e-05 -0.00331028 0)
(3.85216e-05 -0.00351045 0)
(4.51547e-05 -0.00369659 0)
(5.23211e-05 -0.00386873 0)
(6.01094e-05 -0.00402688 0)
(6.84565e-05 -0.00417108 0)
(7.74746e-05 -0.00430136 0)
(8.70273e-05 -0.00441778 0)
(9.71779e-05 -0.00452038 0)
(0.000107922 -0.00460924 0)
(0.000120611 -0.0046844 0)
(0.000137386 -0.00474596 0)
(0.000155418 -0.00479406 0)
(0.000144809 -0.00482877 0)
(5.00663e-05 -0.00484961 0)
(-0.000108626 -0.00485523 0)
(-0.000265538 -0.00485877 0)
(-0.00026641 -0.00454707 0)
(-9.46998e-05 -0.00428099 0)
(-7.78638e-05 -0.00410288 0)
(-6.82754e-05 -0.00398509 0)
(-5.8001e-05 -0.00390626 0)
(-4.78799e-05 -0.0038509 0)
(-3.96021e-05 -0.00380882 0)
(-3.30874e-05 -0.00377387 0)
(-2.79108e-05 -0.00374265 0)
(-2.37977e-05 -0.00371342 0)
(-2.06171e-05 -0.00368536 0)
(-1.82926e-05 -0.00365802 0)
(-1.67588e-05 -0.00363105 0)
(-1.59494e-05 -0.00360408 0)
(-1.57976e-05 -0.00357668 0)
(-1.62381e-05 -0.00354842 0)
(-1.72102e-05 -0.00351888 0)
(-1.86593e-05 -0.00348771 0)
(-2.05393e-05 -0.00345468 0)
(-2.28125e-05 -0.00341966 0)
(-2.54496e-05 -0.00338263 0)
(-2.84286e-05 -0.00334366 0)
(1.09394e-07 -0.000190451 0)
(8.74977e-07 -0.000556685 0)
(2.36086e-06 -0.000908368 0)
(4.53016e-06 -0.00124551 0)
(7.35204e-06 -0.00156812 0)
(1.07865e-05 -0.00187623 0)
(1.48382e-05 -0.0021699 0)
(1.94652e-05 -0.00244916 0)
(2.46867e-05 -0.00271406 0)
(3.04503e-05 -0.00296463 0)
(3.67905e-05 -0.00320092 0)
(4.36392e-05 -0.00342294 0)
(5.10526e-05 -0.00363074 0)
(5.89369e-05 -0.00382432 0)
(6.73793e-05 -0.00400374 0)
(7.62511e-05 -0.00416899 0)
(8.5673e-05 -0.00432013 0)
(9.54902e-05 -0.00445714 0)
(0.00010582 -0.00458009 0)
(0.000116488 -0.00468892 0)
(0.000127647 -0.00478373 0)
(0.000139082 -0.00486445 0)
(0.000151628 -0.00493127 0)
(0.00016449 -0.00498422 0)
(0.000178282 -0.0050231 0)
(0.000186872 -0.00504573 0)
(0.00016474 -0.00504878 0)
(5.0737e-05 -0.00505519 0)
(-7.65461e-05 -0.00497769 0)
(4.57264e-05 -0.00458292 0)
(6.96081e-05 -0.0043052 0)
(7.89876e-05 -0.0041147 0)
(8.64857e-05 -0.00398386 0)
(9.40318e-05 -0.0038917 0)
(0.000100641 -0.00382324 0)
(0.000105993 -0.00376875 0)
(0.000110197 -0.00372236 0)
(0.000113389 -0.00368076 0)
(0.000115638 -0.00364223 0)
(0.000116987 -0.00360584 0)
(0.000117479 -0.00357102 0)
(0.000117163 -0.00353728 0)
(0.000116099 -0.00350413 0)
(0.000114351 -0.00347104 0)
(0.000111981 -0.00343747 0)
(0.000109046 -0.00340297 0)
(0.000105599 -0.00336716 0)
(0.000101685 -0.00332976 0)
(9.73398e-05 -0.00329063 0)
(9.2593e-05 -0.00324976 0)
(-1.92073e-08 -0.000192545 0)
(3.0157e-07 -0.000563564 0)
(1.12015e-06 -0.000920416 0)
(2.46399e-06 -0.00126294 0)
(4.33455e-06 -0.00159106 0)
(6.72017e-06 -0.00190477 0)
(9.62614e-06 -0.00220409 0)
(1.3038e-05 -0.00248903 0)
(1.69665e-05 -0.00275959 0)
(2.1388e-05 -0.0030158 0)
(2.632e-05 -0.00325766 0)
(3.17284e-05 -0.00348518 0)
(3.76407e-05 -0.00369835 0)
(4.40092e-05 -0.00389722 0)
(5.08756e-05 -0.00408175 0)
(5.81747e-05 -0.00425201 0)
(6.59701e-05 -0.00440795 0)
(7.41733e-05 -0.00454962 0)
(8.28765e-05 -0.00467699 0)
(9.19122e-05 -0.00479009 0)
(0.000101366 -0.00488885 0)
(0.000111136 -0.00497339 0)
(0.000122301 -0.0050437 0)
(0.00013631 -0.00510015 0)
(0.000150667 -0.0051426 0)
(0.000143433 -0.00517048 0)
(6.83983e-05 -0.00518517 0)
(-7.21857e-05 -0.00518877 0)
(-0.000224085 -0.00517322 0)
(-0.000203061 -0.00476304 0)
(-7.32431e-05 -0.00448946 0)
(-5.69621e-05 -0.00429919 0)
(-4.53644e-05 -0.00416476 0)
(-3.24977e-05 -0.00406662 0)
(-1.96011e-05 -0.00399009 0)
(-8.13138e-06 -0.00392564 0)
(1.87472e-06 -0.0038677 0)
(1.06966e-05 -0.00381337 0)
(1.84771e-05 -0.00376133 0)
(2.52753e-05 -0.00371111 0)
(3.11268e-05 -0.00366249 0)
(3.6067e-05 -0.0036153 0)
(4.01341e-05 -0.00356924 0)
(4.33686e-05 -0.00352391 0)
(4.58127e-05 -0.00347884 0)
(4.7508e-05 -0.00343356 0)
(4.84943e-05 -0.00338765 0)
(4.88085e-05 -0.00334078 0)
(4.84834e-05 -0.00329275 0)
(4.75483e-05 -0.00324346 0)
(1.52848e-07 -0.000196888 0)
(9.65795e-07 -0.000576042 0)
(2.46739e-06 -0.000940651 0)
(4.59409e-06 -0.00129074 0)
(7.31907e-06 -0.00162632 0)
(1.06366e-05 -0.00194739 0)
(1.45324e-05 -0.00225394 0)
(1.90112e-05 -0.00254601 0)
(2.40537e-05 -0.00282361 0)
(2.96703e-05 -0.00308677 0)
(3.58353e-05 -0.0033355 0)
(4.25689e-05 -0.00356983 0)
(4.98371e-05 -0.00378976 0)
(5.76686e-05 -0.00399533 0)
(6.60233e-05 -0.00418654 0)
(7.49377e-05 -0.00436344 0)
(8.43501e-05 -0.00452601 0)
(9.43501e-05 -0.00467432 0)
(0.000104769 -0.00480834 0)
(0.00011589 -0.00492814 0)
(0.000127318 -0.00503369 0)
(0.000139267 -0.00512509 0)
(0.000151778 -0.00520229 0)
(0.000164982 -0.00526547 0)
(0.000182223 -0.00531463 0)
(0.000193974 -0.00534963 0)
(0.000176627 -0.0053689 0)
(0.000130298 -0.00537156 0)
(2.78036e-05 -0.00537706 0)
(-3.54348e-05 -0.00530096 0)
(5.71229e-05 -0.00489167 0)
(0.000107159 -0.00459515 0)
(0.000128078 -0.00438473 0)
(0.000142422 -0.00423192 0)
(0.000155458 -0.00411624 0)
(0.000166623 -0.00402336 0)
(0.000175817 -0.00394415 0)
(0.000183277 -0.00387316 0)
(0.000189261 -0.00380741 0)
(0.000193948 -0.00374533 0)
(0.000197456 -0.00368608 0)
(0.000199874 -0.0036291 0)
(0.00020128 -0.00357389 0)
(0.000201748 -0.00351995 0)
(0.000201344 -0.00346674 0)
(0.000200131 -0.00341374 0)
(0.000198168 -0.00336048 0)
(0.000195504 -0.0033066 0)
(0.000192184 -0.00325186 0)
(0.000188249 -0.00319611 0)
(-2.95997e-08 -0.000200899 0)
(2.8677e-07 -0.000587814 0)
(1.11148e-06 -0.000959966 0)
(2.47878e-06 -0.00131748 0)
(4.37698e-06 -0.00166041 0)
(6.81013e-06 -0.00198876 0)
(9.76095e-06 -0.00230254 0)
(1.32483e-05 -0.00260175 0)
(1.7248e-05 -0.00288643 0)
(2.17871e-05 -0.0031566 0)
(2.68311e-05 -0.00341229 0)
(3.24182e-05 -0.0036535 0)
(3.85009e-05 -0.00388026 0)
(4.51325e-05 -0.00409258 0)
(5.22476e-05 -0.00429048 0)
(5.99207e-05 -0.00447396 0)
(6.80609e-05 -0.00464305 0)
(7.67738e-05 -0.00479772 0)
(8.59388e-05 -0.00493801 0)
(9.56889e-05 -0.00506389 0)
(0.000105838 -0.00517541 0)
(0.00011649 -0.00527254 0)
(0.000127546 -0.00535533 0)
(0.000140087 -0.00542367 0)
(0.000155329 -0.00547742 0)
(0.000171197 -0.00551653 0)
(0.000166656 -0.00553982 0)
(9.72862e-05 -0.00554846 0)
(-3.5127e-05 -0.00554581 0)
(-0.000159973 -0.00554235 0)
(-0.000145173 -0.00514892 0)
(-2.10698e-05 -0.0048263 0)
(-1.19398e-05 -0.00458824 0)
(5.34564e-06 -0.00441054 0)
(2.09583e-05 -0.00427259 0)
(3.49832e-05 -0.00415976 0)
(4.71409e-05 -0.00406237 0)
(5.77964e-05 -0.00397453 0)
(6.71815e-05 -0.00389291 0)
(7.54226e-05 -0.00381578 0)
(8.2587e-05 -0.00374223 0)
(8.87236e-05 -0.0036717 0)
(9.38781e-05 -0.00360373 0)
(9.80976e-05 -0.00353785 0)
(0.00010143 -0.00347351 0)
(0.000103924 -0.00341016 0)
(0.000105624 -0.00334729 0)
(0.000106574 -0.00328445 0)
(0.000106812 -0.0032213 0)
(0.000106369 -0.00315762 0)
(1.13813e-07 -0.000203673 0)
(7.17152e-07 -0.000596328 0)
(1.8364e-06 -0.000974295 0)
(3.4346e-06 -0.00133765 0)
(5.50557e-06 -0.00168646 0)
(8.03784e-06 -0.00202075 0)
(1.10474e-05 -0.00234053 0)
(1.45229e-05 -0.0026458 0)
(1.8484e-05 -0.00293659 0)
(2.29114e-05 -0.00321292 0)
(2.78322e-05 -0.0034748 0)
(3.3217e-05 -0.00372225 0)
(3.91033e-05 -0.00395528 0)
(4.54507e-05 -0.00417392 0)
(5.23099e-05 -0.00437819 0)
(5.96222e-05 -0.00456808 0)
(6.74686e-05 -0.00474365 0)
(7.57435e-05 -0.00490487 0)
(8.45991e-05 -0.00505181 0)
(9.38605e-05 -0.00518443 0)
(0.000103705 -0.00530282 0)
(0.000113987 -0.00540692 0)
(0.000124593 -0.00549683 0)
(0.000136253 -0.00557251 0)
(0.000149346 -0.00563412 0)
(0.000163547 -0.00568165 0)
(0.000173006 -0.00571497 0)
(0.000160159 -0.00573262 0)
(0.000119787 -0.00573416 0)
(2.71932e-05 -0.00573799 0)
(-4.59605e-05 -0.00569611 0)
(5.06385e-05 -0.00527524 0)
(9.68766e-05 -0.00494482 0)
(0.000119907 -0.00469897 0)
(0.000136499 -0.0045115 0)
(0.000151199 -0.0043622 0)
(0.000164226 -0.00423697 0)
(0.000175353 -0.00412678 0)
(0.000184736 -0.00402621 0)
(0.000192597 -0.00393224 0)
(0.000199088 -0.00384322 0)
(0.000204305 -0.00375824 0)
(0.000208325 -0.00367668 0)
(0.00021122 -0.00359798 0)
(0.000213061 -0.00352156 0)
(0.000213916 -0.00344682 0)
(0.000213851 -0.0033732 0)
(0.000212928 -0.00330017 0)
(0.0002112 -0.00322734 0)
(0.000208715 -0.00315442 0)
(-3.86651e-08 -0.000206506 0)
(1.62796e-07 -0.000604899 0)
(7.41182e-07 -0.000988657 0)
(1.73661e-06 -0.00135782 0)
(3.15911e-06 -0.00171243 0)
(4.99876e-06 -0.0020525 0)
(7.26928e-06 -0.00237806 0)
(9.96214e-06 -0.00268911 0)
(1.30967e-05 -0.00298568 0)
(1.66589e-05 -0.00326777 0)
(2.06742e-05 -0.00353541 0)
(2.51206e-05 -0.00378861 0)
(3.00323e-05 -0.00402739 0)
(3.53774e-05 -0.00425177 0)
(4.12022e-05 -0.00446177 0)
(4.74614e-05 -0.00465741 0)
(5.4218e-05 -0.0048387 0)
(6.14081e-05 -0.00500569 0)
(6.91202e-05 -0.00515836 0)
(7.72671e-05 -0.00529677 0)
(8.59646e-05 -0.00542092 0)
(9.50568e-05 -0.00553087 0)
(0.000104635 -0.00562659 0)
(0.000114644 -0.00570814 0)
(0.000126123 -0.00577556 0)
(0.000140461 -0.00582887 0)
(0.000155321 -0.00586831 0)
(0.00014943 -0.00589313 0)
(8.02851e-05 -0.00590447 0)
(-4.61174e-05 -0.00590558 0)
(-0.000163337 -0.00590342 0)
(-0.000159236 -0.00559415 0)
(-3.05626e-05 -0.00520287 0)
(-1.92876e-05 -0.00490775 0)
(-3.64705e-06 -0.0046833 0)
(1.21869e-05 -0.00450577 0)
(2.71122e-05 -0.00435807 0)
(4.03382e-05 -0.00422895 0)
(5.21054e-05 -0.00411156 0)
(6.26251e-05 -0.00400201 0)
(7.19862e-05 -0.00389824 0)
(8.02201e-05 -0.00379918 0)
(8.73494e-05 -0.00370417 0)
(9.34043e-05 -0.0036127 0)
(9.84242e-05 -0.00352424 0)
(0.000102455 -0.0034382 0)
(0.000105547 -0.003354 0)
(0.000107749 -0.00327109 0)
(0.000109107 -0.00318898 0)
(0.000109663 -0.00310731 0)
(1.13665e-07 -0.000208549 0)
(7.44316e-07 -0.000611224 0)
(1.90479e-06 -0.000999433 0)
(3.55636e-06 -0.00137318 0)
(5.66631e-06 -0.00173248 0)
(8.2289e-06 -0.00207735 0)
(1.12278e-05 -0.00240782 0)
(1.46705e-05 -0.0027239 0)
(1.85358e-05 -0.00302559 0)
(2.28393e-05 -0.00331293 0)
(2.75526e-05 -0.0035859 0)
(3.27004e-05 -0.00384455 0)
(3.82451e-05 -0.00408888 0)
(4.42215e-05 -0.00431892 0)
(5.05792e-05 -0.00453468 0)
(5.7366e-05 -0.00473619 0)
(6.45107e-05 -0.00492348 0)
(7.20861e-05 -0.00509658 0)
(7.99773e-05 -0.0052555 0)
(8.83102e-05 -0.00540031 0)
(9.691e-05 -0.00553101 0)
(0.000105916 -0.00564769 0)
(0.000115163 -0.00575033 0)
(0.000124586 -0.00583905 0)
(0.000134631 -0.00591385 0)
(0.000145674 -0.00597492 0)
(0.000157247 -0.00602236 0)
(0.000165162 -0.00605611 0)
(0.000156139 -0.00607476 0)
(0.000121745 -0.00607812 0)
(2.95505e-05 -0.00608139 0)
(-5.13183e-05 -0.00604373 0)
(2.6985e-05 -0.00559789 0)
(6.65074e-05 -0.00524559 0)
(8.29345e-05 -0.00497676 0)
(9.49805e-05 -0.00476568 0)
(0.00010642 -0.00459189 0)
(0.000117063 -0.00444132 0)
(0.000126408 -0.00430513 0)
(0.000134417 -0.00417817 0)
(0.000141204 -0.00405773 0)
(0.000146851 -0.00394245 0)
(0.000151414 -0.00383166 0)
(0.000154937 -0.00372491 0)
(0.000157468 -0.00362178 0)
(0.000159056 -0.00352175 0)
(0.000159751 -0.00342427 0)
(0.000159601 -0.00332876 0)
(0.000158647 -0.00323469 0)
(0.000156928 -0.00314162 0)
(-3.32836e-08 -0.000212896 0)
(1.22508e-08 -0.000623615 0)
(2.2813e-07 -0.00101933 0)
(6.56782e-07 -0.00140014 0)
(1.316e-06 -0.00176612 0)
(2.22128e-06 -0.00211736 0)
(3.38417e-06 -0.0024539 0)
(4.81975e-06 -0.0027758 0)
(6.53625e-06 -0.00308309 0)
(8.5482e-06 -0.00337579 0)
(1.08597e-05 -0.00365393 0)
(1.34861e-05 -0.00391754 0)
(1.64271e-05 -0.00416662 0)
(1.97007e-05 -0.00440118 0)
(2.33014e-05 -0.00462123 0)
(2.72519e-05 -0.00482676 0)
(3.15398e-05 -0.00501776 0)
(3.61959e-05 -0.00519422 0)
(4.11976e-05 -0.00535612 0)
(4.65899e-05 -0.00550342 0)
(5.23376e-05 -0.00563609 0)
(5.84992e-05 -0.00575407 0)
(6.49945e-05 -0.00585732 0)
(7.18595e-05 -0.00594572 0)
(7.90974e-05 -0.00601919 0)
(8.74603e-05 -0.00607763 0)
(9.79757e-05 -0.00612091 0)
(0.000108739 -0.00614894 0)
(0.00010421 -0.00616149 0)
(5.13784e-05 -0.00616032 0)
(-5.01922e-05 -0.00615531 0)
(-0.000165289 -0.00612652 0)
(-0.000135634 -0.00570103 0)
(-5.19535e-05 -0.00533392 0)
(-3.91591e-05 -0.00504923 0)
(-2.96475e-05 -0.0048233 0)
(-1.88651e-05 -0.00463592 0)
(-7.95896e-06 -0.00447293 0)
(2.01283e-06 -0.00432531 0)
(1.10342e-05 -0.00418773 0)
(1.91775e-05 -0.00405729 0)
(2.64809e-05 -0.00393253 0)
(3.2945e-05 -0.00381272 0)
(3.85622e-05 -0.00369737 0)
(4.33291e-05 -0.00358602 0)
(4.72497e-05 -0.00347812 0)
(5.03333e-05 -0.0033731 0)
(5.25936e-05 -0.00327033 0)
(5.40463e-05 -0.00316925 0)
(5.47081e-05 -0.00306938 0)
(1.92839e-08 -0.000210452 0)
(1.27728e-07 -0.000617564 0)
(3.6111e-07 -0.00101078 0)
(7.38222e-07 -0.00139002 0)
(1.27681e-06 -0.00175523 0)
(2.00258e-06 -0.0021064 0)
(2.93097e-06 -0.0024435 0)
(4.08616e-06 -0.00276652 0)
(5.47974e-06 -0.00307542 0)
(7.13694e-06 -0.00337021 0)
(9.06577e-06 -0.00365088 0)
(1.12946e-05 -0.00391742 0)
(1.38279e-05 -0.00416984 0)
(1.66992e-05 -0.00440815 0)
(1.99097e-05 -0.00463237 0)
(2.35006e-05 -0.00484252 0)
(2.74694e-05 -0.00503861 0)
(3.18682e-05 -0.00522069 0)
(3.66904e-05 -0.00538878 0)
(4.2005e-05 -0.00554292 0)
(4.7803e-05 -0.00568317 0)
(5.41695e-05 -0.00580957 0)
(6.10451e-05 -0.0059222 0)
(6.84652e-05 -0.00602111 0)
(7.649e-05 -0.00610639 0)
(8.62783e-05 -0.00617812 0)
(9.98747e-05 -0.0062365 0)
(0.000115114 -0.00628169 0)
(0.00010571 -0.00631371 0)
(2.39192e-05 -0.00633177 0)
(-0.000107284 -0.00633565 0)
(-0.000230579 -0.00634003 0)
(-0.000267282 -0.00609314 0)
(-0.000117902 -0.00567114 0)
(-9.96303e-05 -0.00534643 0)
(-8.90466e-05 -0.00509153 0)
(-7.70791e-05 -0.00488282 0)
(-6.45173e-05 -0.00470321 0)
(-5.31349e-05 -0.00454146 0)
(-4.31415e-05 -0.0043908 0)
(-3.43345e-05 -0.00424745 0)
(-2.6572e-05 -0.00410955 0)
(-1.98038e-05 -0.00397623 0)
(-1.40133e-05 -0.00384707 0)
(-9.1861e-06 -0.00372174 0)
(-5.3035e-06 -0.00359983 0)
(-2.34225e-06 -0.0034809 0)
(-2.76251e-07 -0.00336442 0)
(9.22162e-07 -0.0032499 0)
(1.28081e-06 -0.00313689 0)
(4.33496e-08 -0.000213739 0)
(4.28813e-07 -0.000626899 0)
(1.20504e-06 -0.00102576 0)
(2.35507e-06 -0.00141034 0)
(3.8617e-06 -0.00178068 0)
(5.70627e-06 -0.00213678 0)
(7.88679e-06 -0.00247868 0)
(1.0387e-05 -0.00280639 0)
(1.32121e-05 -0.00311994 0)
(1.63431e-05 -0.00341934 0)
(1.97921e-05 -0.00370462 0)
(2.35355e-05 -0.0039758 0)
(2.75927e-05 -0.0042329 0)
(3.1933e-05 -0.00447595 0)
(3.65844e-05 -0.00470499 0)
(4.15053e-05 -0.00492004 0)
(4.67344e-05 -0.00512114 0)
(5.22152e-05 -0.00530832 0)
(5.7999e-05 -0.00548165 0)
(6.40095e-05 -0.00564114 0)
(7.03165e-05 -0.00578688 0)
(7.68112e-05 -0.00591889 0)
(8.35963e-05 -0.00603726 0)
(9.049e-05 -0.00614203 0)
(9.76246e-05 -0.00623329 0)
(0.000104832 -0.0063111 0)
(0.000112628 -0.00637564 0)
(0.00012147 -0.00642713 0)
(0.000129453 -0.00646552 0)
(0.000127992 -0.00648909 0)
(9.67627e-05 -0.00649503 0)
(-1.43377e-06 -0.00650013 0)
(-0.000128342 -0.00636084 0)
(-2.00791e-05 -0.00587618 0)
(-1.86722e-05 -0.00550093 0)
(-1.66188e-05 -0.00520774 0)
(-1.35828e-05 -0.00497015 0)
(-9.73169e-06 -0.0047684 0)
(-6.37003e-06 -0.00458914 0)
(-3.70391e-06 -0.00442401 0)
(-1.65549e-06 -0.00426816 0)
(-2.23904e-07 -0.00411905 0)
(5.80201e-07 -0.00397537 0)
(7.46412e-07 -0.00383649 0)
(2.69119e-07 -0.00370193 0)
(-8.52733e-07 -0.00357127 0)
(-2.61678e-06 -0.00344399 0)
(-5.01801e-06 -0.00331957 0)
(-8.04935e-06 -0.00319746 0)
(-1.17022e-05 -0.00307718 0)
(-0.000369222 -0.00374041 0)
(-0.000373153 -0.00371883 0)
(-0.000377105 -0.00369503 0)
(-0.000381075 -0.00366932 0)
(-0.000385062 -0.00364204 0)
(-0.000389064 -0.00361347 0)
(-0.00039308 -0.00358389 0)
(-0.000397109 -0.00355354 0)
(-0.000401148 -0.00352264 0)
(-0.000405198 -0.00349137 0)
(-0.000409255 -0.00345989 0)
(-0.00041332 -0.00342832 0)
(-0.000417391 -0.00339676 0)
(-0.000421467 -0.00336529 0)
(-0.000425547 -0.00333397 0)
(-0.000429629 -0.00330283 0)
(-0.000433713 -0.0032719 0)
(-0.000437797 -0.0032412 0)
(-0.00044188 -0.00321071 0)
(-0.000445962 -0.00318043 0)
(-0.000450042 -0.00315035 0)
(-0.000454117 -0.00312043 0)
(-0.000458189 -0.00309064 0)
(-0.000462255 -0.00306096 0)
(-0.000466314 -0.00303134 0)
(-0.000470366 -0.00300176 0)
(-0.00047441 -0.00297217 0)
(-0.000478446 -0.00294255 0)
(-0.000482471 -0.00291286 0)
(-0.000486486 -0.00288309 0)
(-0.000490489 -0.00285323 0)