/*--------------------------------*- C++ -*----------------------------------*\
| =========                 |                                                 |
| \\      /  F ield         | OpenFOAM: The Open Source CFD Toolbox           |
|  \\    /   O peration     | Version:  2.4.0                                 |
|   \\  /    A nd           | Web:      www.OpenFOAM.org                      |
|    \\/     M anipulation  |                                                 |
\*---------------------------------------------------------------------------*/
FoamFile
{
    version     2.0;
    format      ascii;
    class       volScalarField;
    location    "3.8";
    object      H;
}
// * * * * * * * * * * * * * * * * * * * * * * * * * * * * * * * * * * * * * //

dimensions      [0 2 -2 0 0 0 0];

internalField   nonuniform List<scalar> 
125
(
-11.0175
-11.0059
-10.9941
-11.0006
-11.0169
-10.9318
-10.9205
-10.909
-10.9153
-10.9311
-10.8408
-10.8298
-10.8186
-10.8247
-10.84
-10.7443
-10.7335
-10.7226
-10.7286
-10.7434
-10.6422
-10.6317
-10.6211
-10.6269
-10.6412
-10.5344
-10.5242
-10.5139
-10.5195
-10.5334
-10.4209
-10.4109
-10.4009
-10.4063
-10.4198
-10.3014
-10.2917
-10.282
-10.2873
-10.3003
-10.1761
-10.1666
-10.1572
-10.1623
-10.1749
-10.0447
-10.0355
-10.0263
-10.0312
-10.0434
-9.90719
-9.89822
-9.88938
-9.89411
-9.90588
-9.76352
-9.7548
-9.74624
-9.75081
-9.76217
-9.61362
-9.60516
-9.59686
-9.60127
-9.61223
-9.45744
-9.44923
-9.4412
-9.44545
-9.45602
-9.29493
-9.28696
-9.2792
-9.28329
-9.29348
-9.12606
-9.11834
-9.11084
-9.11477
-9.12457
-8.95079
-8.94332
-8.93608
-8.93986
-8.94929
-8.76912
-8.76188
-8.7549
-8.75853
-8.76759
-8.58102
-8.57403
-8.5673
-8.57079
-8.57948
-8.38651
-8.37976
-8.37328
-8.37662
-8.38497
-8.1856
-8.17909
-8.17286
-8.17606
-8.18405
-7.97832
-7.97205
-7.96605
-7.96911
-7.97677
-7.7647
-7.75866
-7.75291
-7.75583
-7.76315
-7.54479
-7.53899
-7.53348
-7.53627
-7.54325
-7.31867
-7.3131
-7.30782
-7.31048
-7.31714
)
;

boundaryField
{
    BotWall
    {
        type            zeroGradient;
    }
    FreeStream
    {
        type            zeroGradient;
    }
    FrontNBack
    {
        type            empty;
    }
    LeftSide
    {
        type            symmetryPlane;
    }
    RightSide
    {
        type            symmetryPlane;
    }
    procBoundary2to1
    {
        type            processor;
        value           nonuniform List<scalar> 5(-11.0971 -11.0853 -11.0732 -11.0799 -11.0966);
    }
    procBoundary2to3
    {
        type            processor;
        value           nonuniform List<scalar> 5(-7.08589 -7.08056 -7.07551 -7.07804 -7.08438);
    }
}


// ************************************************************************* //
