/*--------------------------------*- C++ -*----------------------------------*\
| =========                 |                                                 |
| \\      /  F ield         | OpenFOAM: The Open Source CFD Toolbox           |
|  \\    /   O peration     | Version:  2.4.0                                 |
|   \\  /    A nd           | Web:      www.OpenFOAM.org                      |
|    \\/     M anipulation  |                                                 |
\*---------------------------------------------------------------------------*/
FoamFile
{
    version     2.0;
    format      ascii;
    class       volVectorField;
    location    "3.8";
    object      U;
}
// * * * * * * * * * * * * * * * * * * * * * * * * * * * * * * * * * * * * * //

dimensions      [0 1 -1 0 0 0 0];

internalField   nonuniform List<vector> 
125
(
(2.65612e-08 -0.00109935 0)
(5.64379e-08 -0.0010993 0)
(1.2328e-08 -0.00109925 0)
(-5.57916e-08 -0.00109928 0)
(-3.64813e-08 -0.00109936 0)
(2.43221e-08 -0.00109935 0)
(5.17344e-08 -0.0010993 0)
(1.13749e-08 -0.00109925 0)
(-5.07483e-08 -0.00109928 0)
(-3.30418e-08 -0.00109936 0)
(2.21789e-08 -0.00109935 0)
(4.72343e-08 -0.0010993 0)
(1.0468e-08 -0.00109925 0)
(-4.59306e-08 -0.00109928 0)
(-2.97671e-08 -0.00109936 0)
(2.01297e-08 -0.00109935 0)
(4.29339e-08 -0.0010993 0)
(9.60603e-09 -0.00109925 0)
(-4.1334e-08 -0.00109928 0)
(-2.66531e-08 -0.00109936 0)
(1.81731e-08 -0.00109935 0)
(3.88294e-08 -0.0010993 0)
(8.7879e-09 -0.00109925 0)
(-3.69541e-08 -0.00109928 0)
(-2.36961e-08 -0.00109936 0)
(1.63071e-08 -0.00109935 0)
(3.49171e-08 -0.0010993 0)
(8.01235e-09 -0.00109925 0)
(-3.27864e-08 -0.00109928 0)
(-2.0892e-08 -0.00109936 0)
(1.45301e-08 -0.00109935 0)
(3.11931e-08 -0.0010993 0)
(7.27821e-09 -0.00109925 0)
(-2.88263e-08 -0.00109928 0)
(-1.82368e-08 -0.00109936 0)
(1.28403e-08 -0.00109935 0)
(2.76534e-08 -0.0010993 0)
(6.58427e-09 -0.00109924 0)
(-2.50692e-08 -0.00109928 0)
(-1.57267e-08 -0.00109936 0)
(1.12358e-08 -0.00109935 0)
(2.4294e-08 -0.0010993 0)
(5.92934e-09 -0.00109924 0)
(-2.15104e-08 -0.00109928 0)
(-1.33577e-08 -0.00109936 0)
(9.71471e-09 -0.00109935 0)
(2.11108e-08 -0.0010993 0)
(5.31224e-09 -0.00109924 0)
(-1.81452e-08 -0.00109928 0)
(-1.11258e-08 -0.00109936 0)
(8.27521e-09 -0.00109935 0)
(1.80997e-08 -0.0010993 0)
(4.73178e-09 -0.00109924 0)
(-1.49688e-08 -0.00109928 0)
(-9.02697e-09 -0.00109936 0)
(6.91537e-09 -0.00109935 0)
(1.52566e-08 -0.0010993 0)
(4.18679e-09 -0.00109924 0)
(-1.19763e-08 -0.00109928 0)
(-7.05737e-09 -0.00109936 0)
(5.63323e-09 -0.00109935 0)
(1.25771e-08 -0.0010993 0)
(3.67609e-09 -0.00109924 0)
(-9.16287e-09 -0.00109928 0)
(-5.21301e-09 -0.00109936 0)
(4.42684e-09 -0.00109935 0)
(1.00572e-08 -0.0010993 0)
(3.19854e-09 -0.00109924 0)
(-6.52362e-09 -0.00109928 0)
(-3.48994e-09 -0.00109936 0)
(3.29419e-09 -0.00109935 0)
(7.69235e-09 -0.0010993 0)
(2.75297e-09 -0.00109924 0)
(-4.05359e-09 -0.00109928 0)
(-1.88424e-09 -0.00109936 0)
(2.23328e-09 -0.00109936 0)
(5.4783e-09 -0.0010993 0)
(2.33824e-09 -0.00109924 0)
(-1.74776e-09 -0.00109928 0)
(-3.91965e-10 -0.00109936 0)
(1.24206e-09 -0.00109936 0)
(3.41065e-09 -0.0010993 0)
(1.95321e-09 -0.00109924 0)
(3.98862e-10 -0.00109928 0)
(9.90785e-10 -0.00109936 0)
(3.18481e-10 -0.00109936 0)
(1.48495e-09 -0.0010993 0)
(1.59677e-09 -0.00109924 0)
(2.39135e-09 -0.00109928 0)
(2.26791e-09 -0.00109936 0)
(-5.39543e-10 -0.00109936 0)
(-3.0326e-10 -0.0010993 0)
(1.2678e-09 -0.00109924 0)
(4.23478e-09 -0.00109928 0)
(3.44331e-09 -0.00109936 0)
(-1.33411e-09 -0.00109936 0)
(-1.95849e-09 -0.0010993 0)
(9.65198e-10 -0.00109924 0)
(5.93427e-09 -0.00109928 0)
(4.52085e-09 -0.00109936 0)
(-2.06734e-09 -0.00109936 0)
(-3.48526e-09 -0.0010993 0)
(6.8787e-10 -0.00109924 0)
(7.49496e-09 -0.00109928 0)
(5.50439e-09 -0.00109936 0)
(-2.74137e-09 -0.00109935 0)
(-4.88816e-09 -0.0010993 0)
(4.34739e-10 -0.00109924 0)
(8.922e-09 -0.00109928 0)
(6.39777e-09 -0.00109936 0)
(-3.35837e-09 -0.00109935 0)
(-6.17178e-09 -0.0010993 0)
(2.04737e-10 -0.00109924 0)
(1.02206e-08 -0.00109928 0)
(7.20485e-09 -0.00109936 0)
(-3.92049e-09 -0.00109935 0)
(-7.34075e-09 -0.0010993 0)
(-3.1917e-12 -0.00109924 0)
(1.13959e-08 -0.00109928 0)
(7.9293e-09 -0.00109936 0)
(-4.42994e-09 -0.00109935 0)
(-8.39974e-09 -0.0010993 0)
(-1.90089e-10 -0.00109924 0)
(1.24532e-08 -0.00109928 0)
(8.57513e-09 -0.00109936 0)
)
;

boundaryField
{
    BotWall
    {
        type            fixedValue;
        value           nonuniform 0();
    }
    FreeStream
    {
        type            zeroGradient;
    }
    FrontNBack
    {
        type            empty;
    }
    LeftSide
    {
        type            symmetryPlane;
    }
    RightSide
    {
        type            symmetryPlane;
    }
    procBoundary2to1
    {
        type            processor;
        value           nonuniform List<vector> 5((2.88978e-08 -0.00109935 0) (6.13485e-08 -0.0010993 0) (1.33285e-08 -0.00109925 0) (-6.10646e-08 -0.00109928 0) (-4.00894e-08 -0.00109935 0));
    }
    procBoundary2to3
    {
        type            processor;
        value           nonuniform List<vector> 5((-4.88892e-09 -0.00109935 0) (-9.35342e-09 -0.0010993 0) (-3.56991e-10 -0.00109924 0) (1.33977e-08 -0.00109928 0) (9.14599e-09 -0.00109936 0));
    }
}


// ************************************************************************* //
