/*--------------------------------*- C++ -*----------------------------------*\
| =========                 |                                                 |
| \\      /  F ield         | OpenFOAM: The Open Source CFD Toolbox           |
|  \\    /   O peration     | Version:  2.4.0                                 |
|   \\  /    A nd           | Web:      www.OpenFOAM.org                      |
|    \\/     M anipulation  |                                                 |
\*---------------------------------------------------------------------------*/
FoamFile
{
    version     2.0;
    format      ascii;
    class       volScalarField;
    location    "2";
    object      alpha1;
}
// * * * * * * * * * * * * * * * * * * * * * * * * * * * * * * * * * * * * * //

dimensions      [0 0 0 0 0 0 0];

internalField   nonuniform List<scalar> 
8000
(
1
1
1
1
1
1
1
1
1
1
1
0.999999
0.999999
0.999999
0.999999
0.999999
0.999999
0.999999
0.999904
0.998859
0.73163
0.187905
0.00590227
0.00307423
6.13594e-06
6.68624e-08
8.99575e-08
2.76496e-08
3.28773e-09
2.11702e-09
1.49727e-09
1.10053e-09
8.11474e-10
5.98822e-10
4.42723e-10
3.27851e-10
2.42682e-10
1.79223e-10
1.31984e-10
9.69026e-11
7.09131e-11
5.17082e-11
3.7557e-11
2.7164e-11
1.95595e-11
1.40183e-11
9.99817e-12
7.09519e-12
5.0091e-12
3.51756e-12
1
1
1
1
1
1
1
1
1
0.999999
0.999999
0.999999
0.999999
0.999998
0.999999
0.999998
0.999746
0.998574
0.753258
0.126647
0.0099168
0.00268672
1.68727e-05
1.38789e-05
4.46137e-08
2.96008e-08
1.91106e-08
4.91141e-09
7.28556e-10
4.61617e-10
3.1739e-10
2.2548e-10
1.62349e-10
1.17944e-10
8.62487e-11
6.33463e-11
4.66285e-11
3.43408e-11
2.52764e-11
1.85779e-11
1.36252e-11
9.96508e-12
7.26388e-12
5.27473e-12
3.81416e-12
2.74544e-12
1.96654e-12
1.40136e-12
9.93207e-13
6.99946e-13
1
1
1
1
1
1
1
1
0.999999
0.999999
0.999999
0.999998
0.999998
0.99996
0.99869
0.966055
0.605773
0.0365027
0.0142928
0.000123525
2.86933e-05
9.06644e-06
7.35485e-08
5.90807e-08
3.12958e-08
1.02256e-08
4.48011e-09
1.01625e-09
1.93703e-10
1.159e-10
7.39921e-11
4.89087e-11
3.31473e-11
2.29462e-11
1.61686e-11
1.15553e-11
8.34716e-12
6.07592e-12
4.44501e-12
3.26114e-12
2.39498e-12
1.75794e-12
1.28804e-12
9.41083e-13
6.85064e-13
4.96518e-13
3.58085e-13
2.56844e-13
1.83147e-13
1.29782e-13
1
1
1
1
1
0.999999
0.999999
0.999999
0.999999
0.999998
0.999998
0.998965
0.998355
0.838024
0.129195
0.0253938
0.00480811
8.38825e-05
5.50251e-05
2.42764e-07
1.54842e-07
1.04673e-07
7.58261e-08
4.07893e-08
1.45527e-08
2.82723e-09
9.41506e-10
2.08954e-10
5.41013e-11
3.08313e-11
1.84348e-11
1.14053e-11
7.27545e-12
4.77551e-12
3.21632e-12
2.21483e-12
1.55343e-12
1.10548e-12
7.95383e-13
5.76729e-13
4.20266e-13
3.07042e-13
2.24452e-13
1.63901e-13
1.19392e-13
8.666e-14
6.2619e-14
4.50094e-14
3.21609e-14
2.28321e-14
1
1
1
1
1
0.999998
0.999997
0.999999
0.99976
0.998212
0.967283
0.233789
0.0288319
0.0139399
0.000176377
0.000108617
8.35199e-06
2.03063e-07
2.30251e-07
2.02206e-07
1.12006e-07
7.55323e-08
4.58534e-08
2.09696e-08
5.88359e-09
8.25068e-10
2.23973e-10
5.49601e-11
1.91921e-11
1.07322e-11
6.24841e-12
3.76672e-12
2.3461e-12
1.50576e-12
9.92222e-13
6.68551e-13
4.58738e-13
3.19346e-13
2.24782e-13
1.59511e-13
1.13829e-13
8.151e-14
5.84609e-14
4.19315e-14
3.00381e-14
2.14686e-14
1.52964e-14
1.08597e-14
7.68198e-15
5.41779e-15
1
1
1
1
0.999998
0.999995
0.999962
0.998848
0.574123
0.0280241
0.0270239
0.000187631
0.000112596
3.0906e-05
1.7782e-07
1.66517e-07
1.07526e-07
1.2229e-07
1.08551e-07
7.9068e-08
4.44633e-08
2.70029e-08
1.40833e-08
5.56123e-09
1.34994e-09
1.77843e-10
4.47086e-11
1.34046e-11
5.86712e-12
3.28117e-12
1.90637e-12
1.14711e-12
7.12872e-13
4.55866e-13
2.98728e-13
1.99768e-13
1.35812e-13
9.35619e-14
6.51435e-14
4.57536e-14
3.23825e-14
2.30982e-14
1.66341e-14
1.21452e-14
9.05997e-15
6.98791e-15
5.66148e-15
4.89807e-15
4.57521e-15
4.61417e-15
1
1
1
0.999999
0.999994
0.999923
0.77201
0.0281894
0.0120969
0.000314016
0.000282413
2.05041e-06
2.22486e-07
2.13641e-07
1.85167e-07
1.40599e-07
9.36382e-08
7.36808e-08
5.48879e-08
3.67963e-08
2.08125e-08
1.13123e-08
5.28435e-09
1.97072e-09
4.72855e-10
6.27835e-11
1.48486e-11
5.15447e-12
2.45993e-12
1.36471e-12
7.90367e-13
4.76076e-13
2.97036e-13
1.91182e-13
1.2655e-13
8.60724e-14
6.02961e-14
4.37985e-14
3.33725e-14
2.70752e-14
2.37132e-14
2.25546e-14
2.31633e-14
2.53017e-14
2.88735e-14
3.38891e-14
4.04469e-14
4.87235e-14
5.89716e-14
7.15222e-14
1
1
0.999999
0.999996
0.999978
0.759745
0.000761751
0.000465065
0.000160765
2.36799e-06
7.85603e-07
2.81328e-07
2.61948e-07
2.59908e-07
2.19136e-07
1.59401e-07
1.16081e-07
8.06136e-08
5.1802e-08
3.18619e-08
1.77794e-08
8.98955e-09
3.69991e-09
1.20062e-09
2.88696e-10
4.13487e-11
8.48334e-12
3.0722e-12
1.49599e-12
8.16332e-13
4.71248e-13
2.87032e-13
1.84823e-13
1.27013e-13
9.48339e-14
7.8534e-14
7.29102e-14
7.5186e-14
8.39646e-14
9.86928e-14
1.1938e-13
1.46453e-13
1.80679e-13
2.23143e-13
2.75247e-13
3.3873e-13
4.15711e-13
5.08739e-13
6.20864e-13
7.55722e-13
1
1
0.999999
0.999993
0.999809
0.307886
1.86077e-06
2.9901e-06
1.78253e-06
1.17574e-06
7.804e-07
4.37321e-07
3.54542e-07
3.0945e-07
2.64017e-07
2.12252e-07
1.69159e-07
1.32782e-07
1.01461e-07
7.52937e-08
5.37682e-08
3.66149e-08
2.34229e-08
1.38714e-08
7.4766e-09
3.58997e-09
1.50166e-09
5.34879e-10
1.59412e-10
3.95838e-11
8.47835e-12
1.82802e-12
5.57763e-13
2.83802e-13
2.03506e-13
1.85882e-13
2.05936e-13
2.58313e-13
3.43385e-13
4.59761e-13
6.11478e-13
8.05396e-13
1.04913e-12
1.35173e-12
1.72389e-12
2.17822e-12
2.72948e-12
3.39492e-12
4.19477e-12
5.15264e-12
1
1
0.999999
0.999994
0.999485
0.140756
1.85878e-06
2.10828e-06
1.4633e-06
9.50585e-07
8.96804e-07
6.57463e-07
4.87416e-07
3.69806e-07
2.89751e-07
2.30458e-07
1.85548e-07
1.4854e-07
1.15636e-07
8.61169e-08
6.04633e-08
3.94199e-08
2.34601e-08
1.25317e-08
5.95116e-09
2.53622e-09
9.90894e-10
3.55222e-10
1.10541e-10
2.92348e-11
7.35811e-12
1.94881e-12
6.95484e-13
4.37294e-13
4.29453e-13
5.28119e-13
7.12871e-13
9.88285e-13
1.36717e-12
1.86768e-12
2.51341e-12
3.33276e-12
4.35908e-12
5.63131e-12
7.19465e-12
9.10142e-12
1.14121e-11
1.41963e-11
1.75347e-11
2.15201e-11
1
1
0.999998
0.999991
0.998995
0.0840844
2.99656e-06
1.94304e-06
1.34216e-06
1.25455e-06
1.08517e-06
9.25026e-07
7.70568e-07
6.30443e-07
5.10115e-07
4.10497e-07
3.302e-07
2.65912e-07
2.13745e-07
1.70425e-07
1.33703e-07
1.02344e-07
7.58805e-08
5.42405e-08
3.73672e-08
2.4935e-08
1.62686e-08
1.04783e-08
6.67755e-09
4.15846e-09
2.45967e-09
1.33123e-09
6.3569e-10
2.5995e-10
8.91757e-11
2.5651e-11
6.88051e-12
2.99761e-12
3.27667e-12
4.85718e-12
7.24739e-12
1.05219e-11
1.48251e-11
2.03354e-11
2.72607e-11
3.56283e-11
4.56403e-11
5.75245e-11
7.14808e-11
8.78156e-11
1
1
0.999997
0.999999
0.954069
0.00117841
0.00103503
4.55722e-05
1.91916e-05
1.33616e-06
7.26811e-07
5.97605e-07
5.55921e-07
4.55862e-07
2.83242e-07
1.61926e-07
1.20521e-07
9.0972e-08
6.86293e-08
5.12177e-08
3.75167e-08
2.68109e-08
1.86265e-08
1.25764e-08
8.27449e-09
5.32924e-09
3.37105e-09
2.09049e-09
1.2584e-09
7.22076e-10
3.85948e-10
1.8839e-10
8.4124e-11
3.68965e-11
1.97301e-11
1.59656e-11
1.74773e-11
2.12243e-11
2.64051e-11
3.29768e-11
4.11159e-11
5.10697e-11
6.31168e-11
7.75619e-11
9.47294e-11
1.1496e-10
1.38657e-10
1.66258e-10
1.98252e-10
2.35183e-10
1
1
0.999997
1
0.982612
0.04567
0.0476453
0.00284018
0.00264996
7.92745e-05
3.31603e-05
1.65278e-07
1.88128e-07
1.74786e-07
1.31977e-07
9.15214e-08
7.3028e-08
5.7861e-08
4.41006e-08
3.28655e-08
2.38465e-08
1.70492e-08
1.23204e-08
9.12279e-09
7.05928e-09
5.45919e-09
4.21974e-09
3.30479e-09
2.53971e-09
1.83696e-09
1.08116e-09
4.21065e-10
1.58148e-10
1.14932e-10
1.23886e-10
1.48058e-10
1.80821e-10
2.19133e-10
2.62255e-10
3.09864e-10
3.61567e-10
4.1726e-10
4.77154e-10
5.41726e-10
6.11596e-10
6.8741e-10
7.69822e-10
8.59476e-10
9.5698e-10
1.06288e-09
1
1
0.999999
0.999998
0.999997
0.99915
1.00224
0.188744
0.167603
0.0450257
0.016297
0.00302637
0.00200749
2.32155e-05
4.10417e-06
2.95869e-06
2.27805e-06
1.61298e-06
1.08984e-06
7.20316e-07
4.65424e-07
3.4608e-07
3.04458e-05
4.93513e-05
4.4454e-05
3.66686e-05
3.02893e-05
2.61063e-05
2.28083e-05
1.9211e-05
1.49466e-05
1.03454e-05
6.62354e-06
4.39911e-06
3.20738e-06
2.3537e-06
1.32583e-06
5.86834e-07
4.21147e-07
2.90535e-07
1.99914e-07
1.37315e-07
9.32451e-08
6.26179e-08
4.13805e-08
2.69021e-08
1.77929e-08
1.26464e-08
9.55751e-09
7.44115e-09
1
1
1
0.999999
0.999996
0.999999
1
1
1.00001
0.999934
0.99914
1.00034
0.839738
0.707117
0.634835
0.542963
0.482291
0.416629
0.352202
0.270427
0.171097
0.0844797
0.0344439
0.0222726
0.016404
0.0128373
0.00970432
0.00661114
0.00409419
0.00239464
0.00133919
0.000802115
0.000557776
0.00038965
0.000273665
0.000204128
0.000159144
0.000127188
0.000132131
0.000119733
7.75816e-05
4.40198e-05
2.86968e-05
1.97688e-05
1.15862e-05
8.70041e-06
1.06368e-05
7.84861e-06
2.97957e-06
3.74471e-07
1
1
1
0.999999
0.999997
0.999998
0.999999
0.999999
1
1
1
1
1
1
0.999999
1
1
1
1.00001
1
0.999985
1.00001
0.999525
0.974655
0.838694
0.709673
0.615661
0.540709
0.45911
0.323167
0.160269
0.0616332
0.0410769
0.0268499
0.0182741
0.0123862
0.00804843
0.00494194
0.00271654
0.0012065
0.00204837
0.00298636
0.00162283
0.000708066
0.000331389
0.000192606
0.000122014
6.20557e-05
2.58896e-05
2.02221e-05
1
1
1
1
0.999999
0.999999
0.999999
0.999999
1
1
0.999999
0.999999
0.999998
0.999998
0.999998
0.999999
0.999999
0.999999
0.999999
0.999999
1
1
1
1
1
1
1
1
0.999998
1
0.999895
0.981721
0.947365
0.783237
0.576321
0.34609
0.1481
0.0664273
0.0465821
0.0210572
0.0157621
0.0455947
0.0579107
0.0459514
0.0233909
0.00768117
0.00203044
0.00121407
0.00190468
0.00196864
1
1
1
1
1
0.999999
0.999999
1
1
1
0.999999
0.999998
0.999998
0.999997
0.999997
0.999998
0.999998
0.999998
0.999998
0.999998
0.999998
0.999998
0.999999
0.999999
0.999999
0.999999
0.999999
0.999999
0.999999
0.999999
1
1
1
1
0.999963
0.999862
0.956703
0.915046
0.463979
0.118292
0.12005
0.0956621
0.0615143
0.0491115
0.0736479
0.070481
0.0514334
0.0221206
0.00653571
0.00246695
1
1
1
1
1
1
1
1
1
1
0.999999
0.999999
0.999998
0.999998
0.999998
0.999998
0.999998
0.999998
0.999998
0.999998
0.999998
0.999998
0.999998
0.999998
0.999998
0.999998
0.999997
0.999997
0.999997
0.999997
0.999997
0.999997
0.999998
0.999996
0.999991
0.999988
1
0.999999
0.999993
0.999837
0.978995
0.905053
0.699455
0.225264
0.0821927
0.0622625
0.0375026
0.0255305
0.0170082
0.0100802
1
1
1
1
1
1
1
1
1
1
0.999999
0.999999
0.999999
0.999998
0.999998
0.999998
0.999998
0.999998
0.999998
0.999998
0.999998
0.999998
0.999998
0.999998
0.999998
0.999998
0.999998
0.999997
0.999997
0.999997
0.999997
0.999997
0.999995
0.999985
0.999947
0.999907
0.999848
0.999914
0.999975
0.999991
1
1
0.999999
0.999928
0.983722
0.930033
0.59515
0.242966
0.147142
0.104171
2.45664e-12
1.70603e-12
1.17789e-12
8.08357e-13
5.51311e-13
3.73582e-13
2.51458e-13
1.68083e-13
1.11543e-13
7.34681e-14
4.80138e-14
3.11249e-14
2.00072e-14
1.27484e-14
8.0494e-15
5.03439e-15
3.11771e-15
1.91095e-15
1.15876e-15
6.94811e-16
4.11767e-16
2.41056e-16
1.39324e-16
7.94543e-17
4.46813e-17
2.47609e-17
1.35128e-17
7.2568e-18
3.83221e-18
1.98855e-18
1.01328e-18
5.06884e-19
2.49138e-19
1.20827e-19
5.8636e-20
2.96217e-20
1.70337e-20
1.25863e-20
1.23367e-20
1.45378e-20
1.85502e-20
2.43102e-20
3.20874e-20
4.23884e-20
5.59391e-20
7.37098e-20
9.6971e-20
1.27375e-19
1.67067e-19
2.18826e-19
4.90366e-13
3.41431e-13
2.36214e-13
1.62339e-13
1.10802e-13
7.50866e-14
5.05072e-14
3.37133e-14
2.23245e-14
1.46611e-14
9.5461e-15
6.16055e-15
3.93918e-15
2.49479e-15
1.56441e-15
9.70926e-16
5.96171e-16
3.6201e-16
2.17292e-16
1.28867e-16
7.54768e-17
4.36372e-17
2.48943e-17
1.40103e-17
7.78075e-18
4.27059e-18
2.32751e-18
1.27532e-18
7.23527e-19
4.50655e-19
3.3382e-19
3.06932e-19
3.36311e-19
4.06774e-19
5.13929e-19
6.6011e-19
8.52427e-19
1.10208e-18
1.42448e-18
1.83986e-18
2.3744e-18
3.06179e-18
3.94523e-18
5.08015e-18
6.5376e-18
8.40863e-18
1.08097e-17
1.38898e-17
1.78384e-17
2.28976e-17
9.1362e-14
6.38729e-14
4.43343e-14
3.0543e-14
2.0879e-14
1.41585e-14
9.52161e-15
6.3485e-15
4.19543e-15
2.74727e-15
1.78204e-15
1.14473e-15
7.27995e-16
4.58237e-16
2.85438e-16
1.75958e-16
1.07397e-16
6.49994e-17
3.91552e-17
2.36779e-17
1.46366e-17
9.56926e-18
6.96111e-18
5.9019e-18
5.86506e-18
6.56723e-18
7.88112e-18
9.78322e-18
1.23242e-17
1.56143e-17
1.98191e-17
2.51619e-17
3.19329e-17
4.05026e-17
5.13415e-17
6.50451e-17
8.23668e-17
1.04259e-16
1.31926e-16
1.6689e-16
2.11073e-16
2.66903e-16
3.37441e-16
4.26547e-16
5.39087e-16
6.81181e-16
8.60534e-16
1.08683e-15
1.37223e-15
1.73198e-15
1.60973e-14
1.1266e-14
7.8244e-15
5.39098e-15
3.68406e-15
2.49681e-15
1.67836e-15
1.11954e-15
7.41951e-16
4.89841e-16
3.23916e-16
2.16785e-16
1.49588e-16
1.0952e-16
8.80528e-17
7.96575e-17
8.09067e-17
8.98557e-17
1.05624e-16
1.28125e-16
1.57905e-16
1.96057e-16
2.44204e-16
3.04522e-16
3.79813e-16
4.73614e-16
5.90351e-16
7.35539e-16
9.16038e-16
1.14038e-15
1.41916e-15
1.76558e-15
2.19604e-15
2.73097e-15
3.39578e-15
4.22211e-15
5.24931e-15
6.52631e-15
8.11389e-15
1.00875e-14
1.25406e-14
1.55891e-14
1.93764e-14
2.408e-14
2.99195e-14
3.71659e-14
4.61534e-14
5.72935e-14
7.10912e-14
8.81666e-14
3.81613e-15
2.69438e-15
1.91987e-15
1.39668e-15
1.05601e-15
8.49127e-16
7.42195e-16
7.12535e-16
7.45872e-16
8.34398e-16
9.75416e-16
1.17047e-15
1.42482e-15
1.74728e-15
2.15019e-15
2.6498e-15
3.2667e-15
4.02662e-15
4.96138e-15
6.11015e-15
7.5211e-15
9.25333e-15
1.13793e-14
1.3988e-14
1.71885e-14
2.11142e-14
2.59293e-14
3.18343e-14
3.90757e-14
4.7955e-14
5.88419e-14
7.21893e-14
8.8552e-14
1.08609e-13
1.33191e-13
1.63314e-13
2.00217e-13
2.45413e-13
3.00743e-13
3.68446e-13
4.51244e-13
5.52435e-13
6.76019e-13
8.26838e-13
1.01075e-12
1.23482e-12
1.50761e-12
1.8394e-12
2.24258e-12
2.732e-12
4.96903e-15
5.61945e-15
6.56612e-15
7.82805e-15
9.4413e-15
1.14588e-14
1.39515e-14
1.70094e-14
2.07453e-14
2.52975e-14
3.08347e-14
3.7562e-14
4.57279e-14
5.56333e-14
6.7642e-14
8.21942e-14
9.98221e-14
1.2117e-13
1.47016e-13
1.78305e-13
2.16176e-13
2.62011e-13
3.1748e-13
3.84606e-13
4.6583e-13
5.64107e-13
6.82998e-13
8.26803e-13
1.0007e-12
1.21094e-12
1.46502e-12
1.77199e-12
2.14269e-12
2.59017e-12
3.13008e-12
3.7812e-12
4.566e-12
5.51137e-12
6.64939e-12
8.01833e-12
9.6637e-12
1.16396e-11
1.40102e-11
1.68517e-11
2.02544e-11
2.4325e-11
2.91898e-11
3.49979e-11
4.19244e-11
5.01748e-11
8.67914e-14
1.05291e-13
1.27644e-13
1.546e-13
1.8706e-13
2.26105e-13
2.73026e-13
3.29367e-13
3.96972e-13
4.78044e-13
5.75211e-13
6.91615e-13
8.31007e-13
9.9787e-13
1.19756e-12
1.43649e-12
1.72231e-12
2.06419e-12
2.47309e-12
2.96214e-12
3.54701e-12
4.24648e-12
5.08296e-12
6.08322e-12
7.27922e-12
8.70901e-12
1.04179e-11
1.24596e-11
1.48981e-11
1.78089e-11
2.12814e-11
2.54213e-11
3.03531e-11
3.62236e-11
4.32058e-11
5.15028e-11
6.1353e-11
7.30361e-11
8.68789e-11
1.03263e-10
1.22634e-10
1.45508e-10
1.72489e-10
2.04274e-10
2.41674e-10
2.85624e-10
3.37205e-10
3.97659e-10
4.68407e-10
5.51064e-10
9.17639e-13
1.11175e-12
1.34416e-12
1.62209e-12
1.95411e-12
2.35036e-12
2.82286e-12
3.38582e-12
4.05604e-12
4.8534e-12
5.80143e-12
6.9279e-12
8.2657e-12
9.85369e-12
1.17378e-11
1.39726e-11
1.66222e-11
1.97629e-11
2.34847e-11
2.78941e-11
3.31169e-11
3.93018e-11
4.6624e-11
5.52899e-11
6.55422e-11
7.76657e-11
9.19937e-11
1.08916e-10
1.28886e-10
1.52431e-10
1.80165e-10
2.12797e-10
2.51147e-10
2.96164e-10
3.48945e-10
4.10755e-10
4.83053e-10
5.6752e-10
6.66089e-10
7.80975e-10
9.14713e-10
1.07019e-09
1.25069e-09
1.45993e-09
1.70211e-09
1.98196e-09
2.3048e-09
2.6766e-09
3.10396e-09
3.59422e-09
6.29621e-12
7.65785e-12
9.27549e-12
1.11936e-11
1.34641e-11
1.6148e-11
1.93166e-11
2.30535e-11
2.74562e-11
3.26388e-11
3.87348e-11
4.58996e-11
5.43152e-11
6.41934e-11
7.57818e-11
8.9369e-11
1.05292e-10
1.23943e-10
1.45781e-10
1.7134e-10
2.01241e-10
2.3621e-10
2.77086e-10
3.24847e-10
3.80621e-10
4.45713e-10
5.21626e-10
6.10087e-10
7.13075e-10
8.32853e-10
9.71999e-10
1.13345e-09
1.32054e-09
1.53704e-09
1.78726e-09
2.07606e-09
2.40895e-09
2.79216e-09
3.23276e-09
3.73869e-09
4.31887e-09
4.98326e-09
5.74293e-09
6.61004e-09
7.59791e-09
8.72093e-09
9.99444e-09
1.14346e-08
1.30581e-08
1.48817e-08
2.62599e-11
3.18784e-11
3.85194e-11
4.63502e-11
5.55646e-11
6.63883e-11
7.90838e-11
9.39562e-11
1.1136e-10
1.31707e-10
1.55472e-10
1.83208e-10
2.15549e-10
2.53227e-10
2.97082e-10
3.48081e-10
4.07331e-10
4.76103e-10
5.55857e-10
6.48269e-10
7.55267e-10
8.7907e-10
1.02223e-09
1.18769e-09
1.37881e-09
1.59947e-09
1.85406e-09
2.1476e-09
2.48572e-09
2.87476e-09
3.32173e-09
3.8344e-09
4.42124e-09
5.09151e-09
5.85521e-09
6.72321e-09
7.7073e-09
8.82037e-09
1.00766e-08
1.14917e-08
1.30831e-08
1.48699e-08
1.68728e-08
1.91135e-08
2.16138e-08
2.43946e-08
2.7475e-08
3.08711e-08
3.45964e-08
3.86635e-08
1.06825e-10
1.28847e-10
1.54265e-10
1.83521e-10
2.17125e-10
2.55664e-10
2.99823e-10
3.50392e-10
4.08288e-10
4.74571e-10
5.5046e-10
6.37359e-10
7.36868e-10
8.50806e-10
9.81232e-10
1.13046e-09
1.30108e-09
1.49598e-09
1.71838e-09
1.97185e-09
2.26037e-09
2.58836e-09
2.96076e-09
3.3831e-09
3.86155e-09
4.40308e-09
5.01549e-09
5.70748e-09
6.48879e-09
7.37021e-09
8.36362e-09
9.48208e-09
1.07398e-08
1.21524e-08
1.37366e-08
1.5511e-08
1.74955e-08
1.97123e-08
2.21854e-08
2.49408e-08
2.8006e-08
3.14095e-08
3.51786e-08
3.93388e-08
4.39114e-08
4.8913e-08
5.43558e-08
6.0249e-08
6.65989e-08
7.34079e-08
2.77657e-10
3.26346e-10
3.82003e-10
4.45475e-10
5.1772e-10
5.9983e-10
6.93055e-10
7.98823e-10
9.18774e-10
1.0548e-09
1.20905e-09
1.38401e-09
1.58251e-09
1.80775e-09
2.06335e-09
2.35337e-09
2.68231e-09
3.05515e-09
3.47735e-09
3.95487e-09
4.49418e-09
5.10231e-09
5.78689e-09
6.55619e-09
7.41924e-09
8.38596e-09
9.46726e-09
1.06753e-08
1.20234e-08
1.35265e-08
1.52009e-08
1.70646e-08
1.91367e-08
2.14378e-08
2.39897e-08
2.68161e-08
2.99425e-08
3.33968e-08
3.72096e-08
4.14128e-08
4.60384e-08
5.11152e-08
5.66653e-08
6.27022e-08
6.92305e-08
7.62483e-08
8.37529e-08
9.17465e-08
1.0024e-07
1.09254e-07
1.17765e-09
1.30178e-09
1.4358e-09
1.58045e-09
1.73672e-09
1.90588e-09
2.08942e-09
2.28903e-09
2.50654e-09
2.744e-09
3.00375e-09
3.28852e-09
3.60149e-09
3.94634e-09
4.32729e-09
4.74919e-09
5.21755e-09
5.73869e-09
6.31975e-09
6.96874e-09
7.69448e-09
8.50643e-09
9.41415e-09
1.04261e-08
1.15474e-08
1.27757e-08
1.40978e-08
1.54908e-08
1.69407e-08
1.84763e-08
2.01739e-08
2.20814e-08
2.42203e-08
2.66716e-08
2.90175e-08
3.23905e-08
3.51743e-08
3.93363e-08
4.26789e-08
4.78525e-08
5.187e-08
5.82942e-08
6.30365e-08
7.09131e-08
7.6267e-08
8.55754e-08
9.12379e-08
1.01663e-07
1.0859e-07
1.22823e-07
5.29066e-09
3.78082e-09
2.80943e-09
2.16083e-09
1.71686e-09
1.41129e-09
1.21061e-09
1.10349e-09
1.09134e-09
1.18002e-09
1.37505e-09
1.67477e-09
2.07279e-09
2.56027e-09
3.13023e-09
3.77816e-09
4.49664e-09
5.2735e-09
6.09332e-09
6.95472e-09
7.86266e-09
8.82306e-09
9.84544e-09
1.09445e-08
1.21382e-08
1.34467e-08
1.48906e-08
1.64849e-08
1.82178e-08
1.94599e-08
2.15968e-08
2.23219e-08
2.69791e-08
2.69351e-08
3.53219e-08
3.07819e-08
4.66691e-08
3.61336e-08
6.08826e-08
4.4456e-08
7.58002e-08
5.50404e-08
9.21713e-08
6.74539e-08
1.12475e-07
8.33858e-08
1.33024e-07
1.02824e-07
1.80957e-07
1.23676e-07
3.35845e-07
6.06218e-06
2.99207e-05
2.30703e-05
9.64081e-06
1.2819e-06
1.00175e-07
8.79349e-08
1.28023e-07
5.72492e-07
5.6216e-07
3.92382e-07
2.99628e-07
2.78145e-07
3.85281e-07
6.05738e-07
7.68132e-07
7.45329e-07
5.89837e-07
4.56938e-07
3.33128e-07
2.6429e-07
2.42099e-07
2.24133e-07
2.00946e-07
1.74232e-07
1.46619e-07
1.20442e-07
9.7176e-08
7.7477e-08
6.16365e-08
4.93622e-08
4.07225e-08
3.46685e-08
3.15853e-08
2.95183e-08
3.04785e-08
3.10555e-08
3.51722e-08
3.75412e-08
4.40323e-08
4.74937e-08
5.57204e-08
5.95344e-08
6.85372e-08
7.28387e-08
8.13726e-08
8.77917e-08
8.38247e-08
1.22732e-07
2.83953e-05
5.7251e-05
3.13808e-05
1.52988e-05
2.25576e-05
1.99039e-05
1.23845e-05
7.78857e-06
7.01216e-06
6.25285e-06
4.74446e-06
2.02377e-06
4.40656e-07
4.04048e-07
4.79791e-07
5.65613e-07
6.04541e-07
7.88747e-07
7.28759e-06
1.18731e-05
1.18124e-05
6.21701e-06
9.39091e-07
3.28615e-07
2.85867e-07
2.51316e-07
2.25497e-07
1.98576e-07
1.7695e-07
1.61101e-07
1.43442e-07
1.21179e-07
1.01067e-07
8.45232e-08
7.02196e-08
7.0405e-08
8.95652e-08
1.13637e-07
1.33292e-07
1.4665e-07
1.44632e-07
1.34275e-07
1.20281e-07
1.05529e-07
9.31484e-08
8.33137e-08
7.98268e-08
7.89736e-08
7.89883e-08
8.70283e-08
0.00109004
0.000367085
7.17718e-05
1.51006e-05
2.2141e-05
7.35187e-05
0.000393448
0.00177499
0.00205693
0.00205703
0.00115024
0.000255582
2.08339e-05
6.29065e-07
4.30158e-07
4.28391e-07
4.28471e-07
4.81824e-07
4.86237e-07
6.95571e-07
3.07384e-06
1.81232e-06
5.18371e-07
3.62837e-07
1.17913e-06
1.26745e-05
1.86248e-05
1.8628e-05
9.63443e-06
1.57763e-06
3.60932e-07
3.30937e-07
2.93866e-07
2.70517e-07
2.63924e-07
2.68588e-07
2.93049e-07
6.5994e-07
1.1117e-06
4.28236e-07
2.49146e-07
1.93104e-07
1.87767e-07
1.82419e-07
1.38223e-07
3.01967e-07
3.53922e-07
2.69094e-07
2.49999e-07
2.24686e-07
0.00135679
0.000945543
0.000756233
0.000681612
0.000644053
0.000609359
0.000586988
0.000546349
0.00039845
0.000357112
0.000308628
0.000194228
9.5904e-05
3.8043e-05
1.09095e-05
1.6758e-06
4.35333e-07
4.67407e-07
5.07194e-07
6.06306e-07
7.20841e-07
7.30763e-07
7.13592e-07
6.91972e-07
6.92039e-07
7.72382e-07
1.95343e-06
1.1575e-05
9.54819e-05
0.000148752
0.000148946
0.00014875
7.75875e-05
1.20925e-05
5.54882e-07
2.72787e-07
2.97726e-07
3.71156e-07
1.58253e-06
4.10307e-06
3.37222e-06
1.27628e-06
2.184e-07
2.22829e-07
2.4521e-07
2.94878e-07
2.75116e-07
4.97169e-07
3.59389e-07
3.44854e-07
0.00529923
0.0026291
0.00135341
0.000730643
0.000363846
0.000124419
8.27548e-05
8.27452e-05
0.000100915
0.000208783
0.000305449
0.000260109
0.000177171
7.34522e-05
2.26381e-05
1.06642e-05
4.87523e-06
1.88539e-06
3.71168e-06
1.90357e-05
5.4501e-05
5.50457e-05
5.50889e-05
3.62776e-05
7.02282e-06
3.17051e-06
1.41964e-05
5.47471e-05
2.98428e-05
1.38127e-05
1.04345e-05
8.05668e-06
3.76167e-06
9.31159e-07
5.26166e-07
4.2273e-07
1.70397e-06
2.31855e-05
0.000123655
0.000132759
0.000123635
4.37258e-05
5.03643e-06
2.59525e-07
2.50823e-07
2.69662e-07
2.70581e-07
4.94768e-07
3.15117e-07
3.10763e-07
0.0689847
0.042346
0.0248034
0.0137168
0.00670236
0.00265518
0.000748813
0.000259512
0.000134038
3.81635e-05
1.94933e-05
1.94914e-05
3.33831e-05
9.7437e-05
0.000106542
0.000106545
5.65902e-05
1.55458e-05
3.2443e-06
3.30032e-06
2.9978e-06
3.53032e-06
6.15648e-06
1.13752e-05
1.7254e-05
2.33224e-05
3.62748e-05
0.000108913
0.000111058
6.42971e-05
9.57349e-05
0.000121662
0.000121835
0.000121657
0.000121831
9.39265e-05
5.71629e-05
4.83817e-05
4.567e-05
3.54371e-05
1.98916e-05
6.19584e-06
8.06624e-07
2.79145e-07
3.201e-07
3.05416e-07
3.8238e-07
8.93567e-07
4.03564e-07
3.07856e-07
2.86248e-19
3.333e-19
3.88227e-19
4.52378e-19
5.27343e-19
6.14992e-19
7.17526e-19
8.37543e-19
9.78103e-19
1.14282e-18
1.33598e-18
1.56261e-18
1.8287e-18
2.14133e-18
2.50888e-18
2.9413e-18
3.45043e-18
4.05031e-18
4.75767e-18
5.59241e-18
6.5783e-18
7.74369e-18
9.12245e-18
1.07551e-17
1.26903e-17
1.49861e-17
1.77125e-17
2.09535e-17
2.48101e-17
2.94039e-17
3.48817e-17
4.14203e-17
4.92336e-17
5.85796e-17
6.97709e-17
8.31853e-17
9.92808e-17
1.18612e-16
1.41851e-16
1.69814e-16
2.0349e-16
2.44079e-16
2.9304e-16
3.52145e-16
4.23543e-16
5.09852e-16
6.14251e-16
7.40609e-16
8.93633e-16
1.07905e-15
1.30385e-15
1.57652e-15
1.90743e-15
2.30921e-15
2.79724e-15
3.39029e-15
4.11124e-15
4.98798e-15
6.05446e-15
7.35204e-15
8.93105e-15
1.08526e-14
1.3191e-14
1.6036e-14
1.94964e-14
2.37034e-14
2.88149e-14
3.50202e-14
4.2546e-14
5.16623e-14
6.26898e-14
7.60078e-14
9.20635e-14
1.11381e-13
1.34575e-13
1.62358e-13
1.9556e-13
2.3514e-13
2.82206e-13
3.38032e-13
4.04083e-13
4.82041e-13
5.73832e-13
6.81661e-13
8.08051e-13
9.55883e-13
1.12845e-12
1.32953e-12
1.56341e-12
1.83505e-12
2.15014e-12
2.51527e-12
2.93811e-12
3.42755e-12
3.99395e-12
4.64928e-12
5.40723e-12
6.28329e-12
7.29474e-12
8.46065e-12
9.80195e-12
1.13415e-11
1.31045e-11
1.51183e-11
1.74134e-11
2.00231e-11
2.29842e-11
2.63368e-11
3.0125e-11
3.43963e-11
3.92027e-11
4.46003e-11
5.06502e-11
5.74188e-11
6.49772e-11
7.34007e-11
8.27665e-11
9.31527e-11
1.04638e-10
1.173e-10
1.3122e-10
1.46478e-10
1.63145e-10
1.81282e-10
2.00931e-10
2.22119e-10
2.44872e-10
2.69226e-10
2.95224e-10
3.22903e-10
3.52262e-10
3.83271e-10
4.15928e-10
4.50232e-10
4.86239e-10
5.23795e-10
5.62423e-10
6.02041e-10
6.42543e-10
6.83792e-10
7.25646e-10
7.67957e-10
8.10574e-10
8.53341e-10
8.96099e-10
9.38684e-10
9.80926e-10
1.02265e-09
1.06368e-09
1.10381e-09
1.14286e-09
1.18062e-09
1.21687e-09
1.25139e-09
1.28396e-09
1.31434e-09
1.34232e-09
1.36765e-09
1.39012e-09
1.40952e-09
1.42565e-09
1.43831e-09
1.44735e-09
1.45261e-09
1.45397e-09
1.45134e-09
1.44467e-09
1.43396e-09
1.41926e-09
1.40066e-09
1.3783e-09
1.35237e-09
1.32308e-09
1.29066e-09
1.25535e-09
1.21738e-09
1.17697e-09
1.13434e-09
1.08969e-09
1.04325e-09
9.9524e-10
9.45928e-10
8.95586e-10
8.44497e-10
7.92939e-10
7.41196e-10
6.89573e-10
6.38399e-10
5.88025e-10
5.38804e-10
4.91073e-10
4.4514e-10
4.01278e-10
3.59716e-10
3.20626e-10
2.84119e-10
2.50243e-10
2.18995e-10
1.90334e-10
1.64195e-10
1.40504e-10
1.19189e-10
1.00183e-10
8.34099e-11
6.87709e-11
5.61328e-11
4.53362e-11
3.62122e-11
2.8591e-11
2.23031e-11
1.7181e-11
1.30632e-11
9.79768e-12
7.24476e-12
5.27876e-12
3.788e-12
2.67557e-12
1.85918e-12
1.27025e-12
8.52935e-13
5.62636e-13
3.64487e-13
2.31838e-13
1.44777e-13
8.87698e-14
5.34553e-14
3.16291e-14
1.84024e-14
1.05392e-14
5.94987e-15
3.31769e-15
1.83211e-15
1.00554e-15
5.51068e-16
3.03356e-16
1.68953e-16
9.59668e-17
5.60289e-17
3.38293e-17
2.11846e-17
1.37445e-17
9.19733e-18
6.30637e-18
4.40012e-18
3.10466e-18
2.20425e-18
1.56889e-18
1.11654e-18
7.93073e-19
5.61511e-19
3.95914e-19
2.77783e-19
1.93809e-19
1.34378e-19
9.25361e-20
6.32541e-20
4.2901e-20
2.88592e-20
1.9249e-20
1.27276e-20
8.34143e-21
5.41862e-21
3.48901e-21
2.22691e-21
1.40897e-21
8.8368e-22
5.49358e-22
3.38488e-22
2.06662e-22
1.24988e-22
7.48471e-23
4.43592e-23
2.60066e-23
1.50753e-23
8.63635e-24
4.88792e-24
2.73227e-24
1.50809e-24
8.2168e-25
4.41754e-25
2.34232e-25
1.22438e-25
6.30714e-26
3.20116e-26
1.60053e-26
7.88193e-27
3.82223e-27
1.82478e-27
8.57418e-28
3.96399e-28
1.80256e-28
8.05986e-29
3.54261e-29
1.53037e-29
6.49772e-30
2.71268e-30
1.11464e-30
4.50914e-31
1.76631e-31
5.69851e-32
2.9376e-17
3.38234e-17
3.89657e-17
4.4915e-17
5.1802e-17
5.97794e-17
6.90255e-17
7.97488e-17
9.21931e-17
1.06644e-16
1.23435e-16
1.4296e-16
1.65677e-16
1.92128e-16
2.22947e-16
2.58881e-16
3.00811e-16
3.49772e-16
4.06988e-16
4.739e-16
5.52213e-16
6.43942e-16
7.51467e-16
8.77609e-16
1.02571e-15
1.19971e-15
1.40431e-15
1.64506e-15
1.92855e-15
2.26259e-15
2.65646e-15
3.12115e-15
3.66972e-15
4.31766e-15
5.08333e-15
5.98855e-15
7.05921e-15
8.32601e-15
9.8254e-15
1.16006e-14
1.3703e-14
1.61935e-14
1.91443e-14
2.26412e-14
2.6786e-14
3.16995e-14
3.75248e-14
4.4432e-14
5.26225e-14
6.23352e-14
7.38532e-14
8.75116e-14
1.03707e-13
1.22909e-13
1.45672e-13
1.7265e-13
2.04616e-13
2.42477e-13
2.87302e-13
3.40347e-13
4.03081e-13
4.77222e-13
5.64778e-13
6.68082e-13
7.89844e-13
9.332e-13
1.10177e-12
1.29972e-12
1.53181e-12
1.8035e-12
2.121e-12
2.49135e-12
2.92254e-12
3.42356e-12
4.00457e-12
4.67697e-12
5.45355e-12
6.34864e-12
7.3783e-12
8.56047e-12
9.91516e-12
1.14647e-11
1.32339e-11
1.52502e-11
1.75442e-11
2.01492e-11
2.31022e-11
2.64437e-11
3.02182e-11
3.44747e-11
3.92681e-11
4.46597e-11
5.07191e-11
5.7526e-11
6.51718e-11
7.37609e-11
8.34116e-11
9.42556e-11
1.06437e-10
1.20112e-10
1.35444e-10
1.5261e-10
1.7179e-10
1.93181e-10
2.16987e-10
2.43425e-10
2.72728e-10
3.05139e-10
3.40911e-10
3.80309e-10
4.23604e-10
4.71075e-10
5.23003e-10
5.79671e-10
6.4136e-10
7.08335e-10
7.80847e-10
8.59129e-10
9.43404e-10
1.0339e-09
1.13085e-09
1.23446e-09
1.3449e-09
1.46225e-09
1.58649e-09
1.71757e-09
1.85546e-09
2.00021e-09
2.15178e-09
2.30996e-09
2.47442e-09
2.64497e-09
2.8215e-09
3.0043e-09
3.19135e-09
3.38101e-09
3.57302e-09
3.76677e-09
3.96165e-09
4.15703e-09
4.35229e-09
4.5468e-09
4.73994e-09
4.93109e-09
5.11962e-09
5.30488e-09
5.48623e-09
5.66301e-09
5.83456e-09
6.00018e-09
6.15918e-09
6.31082e-09
6.45437e-09
6.58905e-09
6.71407e-09
6.82863e-09
6.93188e-09
7.023e-09
7.10116e-09
7.16553e-09
7.21531e-09
7.24973e-09
7.26806e-09
7.26965e-09
7.25398e-09
7.2207e-09
7.16964e-09
7.10091e-09
7.01488e-09
6.91219e-09
6.79372e-09
6.66056e-09
6.5139e-09
6.355e-09
6.18503e-09
6.00506e-09
5.81596e-09
5.61839e-09
5.41286e-09
5.19985e-09
4.97994e-09
4.75391e-09
4.52276e-09
4.28751e-09
4.0491e-09
3.80844e-09
3.56657e-09
3.32482e-09
3.08482e-09
2.84835e-09
2.61718e-09
2.39297e-09
2.17721e-09
1.97121e-09
1.77596e-09
1.59213e-09
1.41998e-09
1.25949e-09
1.11044e-09
9.72491e-10
8.45319e-10
7.28729e-10
6.22688e-10
5.27232e-10
4.42295e-10
3.6755e-10
3.0242e-10
2.46223e-10
1.98264e-10
1.57818e-10
1.24127e-10
9.64119e-11
7.39042e-11
5.58735e-11
4.16428e-11
3.05792e-11
2.21102e-11
1.57322e-11
1.10087e-11
7.57148e-12
5.1156e-12
3.39372e-12
2.20974e-12
1.41178e-12
8.8488e-13
5.44107e-13
3.28271e-13
1.9439e-13
1.13042e-13
6.46082e-14
3.63354e-14
2.01415e-14
1.10302e-14
5.98703e-15
3.23517e-15
1.75068e-15
9.55886e-16
5.31345e-16
3.03536e-16
1.79668e-16
1.10735e-16
7.10785e-17
4.73088e-17
3.24154e-17
2.26813e-17
1.60886e-17
1.15018e-17
8.25193e-18
5.92368e-18
4.24612e-18
3.03491e-18
2.16074e-18
1.53107e-18
1.07895e-18
7.55669e-19
5.25681e-19
3.63038e-19
2.48794e-19
1.69135e-19
1.14031e-19
7.6232e-20
5.05317e-20
3.32136e-20
2.16481e-20
1.39927e-20
8.96959e-21
5.70186e-21
3.59425e-21
2.2463e-21
1.39146e-21
8.53953e-22
5.18989e-22
3.12195e-22
1.85791e-22
1.09329e-22
6.3591e-23
3.65486e-23
2.07516e-23
1.16362e-23
6.44132e-24
3.51816e-24
1.89508e-24
1.00632e-24
5.26663e-25
2.71599e-25
1.37988e-25
6.90499e-26
3.40228e-26
1.65014e-26
7.87534e-27
3.69702e-27
1.7065e-27
7.74257e-28
3.45204e-28
1.51234e-28
6.51236e-29
2.75882e-29
1.15048e-29
4.66343e-30
1.58942e-30
2.18519e-15
2.49131e-15
2.84181e-15
3.24331e-15
3.70349e-15
4.2312e-15
4.83668e-15
5.53177e-15
6.33017e-15
7.24774e-15
8.30288e-15
9.51687e-15
1.09144e-14
1.25242e-14
1.43796e-14
1.6519e-14
1.89875e-14
2.18372e-14
2.51286e-14
2.89322e-14
3.33297e-14
3.84163e-14
4.43024e-14
5.11166e-14
5.9008e-14
6.81502e-14
7.87444e-14
9.10248e-14
1.05263e-13