/*--------------------------------*- C++ -*----------------------------------*\
| =========                 |                                                 |
| \\      /  F ield         | OpenFOAM: The Open Source CFD Toolbox           |
|  \\    /   O peration     | Version:  2.4.0                                 |
|   \\  /    A nd           | Web:      www.OpenFOAM.org                      |
|    \\/     M anipulation  |                                                 |
\*---------------------------------------------------------------------------*/
FoamFile
{
    version     2.0;
    format      ascii;
    class       volScalarField;
    location    "2";
    object      H;
}
// * * * * * * * * * * * * * * * * * * * * * * * * * * * * * * * * * * * * * //

dimensions      [0 2 -2 0 0 0 0];

internalField   nonuniform List<scalar> 
8000
(
-11950.3
-11388.9
-10821.9
-10246.3
-9659.93
-9061.11
-8449.01
-7823.63
-7185.87
-6537.52
-5881.17
-5220.04
-4557.77
-3898.07
-3244.62
-2601.49
-1971.75
-1357.45
-766.648
-164.671
-1.92054
-3.53335
-2.87519
-2.65627
-2.40062
-2.27314
-2.15539
-2.0585
-1.98042
-1.92107
-1.87832
-1.84903
-1.82999
-1.81826
-1.81137
-1.80732
-1.80453
-1.80179
-1.79822
-1.79315
-1.78615
-1.77693
-1.76532
-1.75126
-1.73474
-1.71584
-1.69466
-1.67132
-1.64598
-1.61879
-11922.2
-11302.7
-10673
-10028.2
-9365.1
-8682.03
-7978.89
-7257.32
-6520.62
-5773.6
-5022.18
-4272.86
-3532.44
-2806.64
-2098.65
-1427.26
-766.194
-98.3929
-1.12338
-0.0881175
-0.395898
-0.701762
-0.954978
-1.20359
-1.35734
-1.45298
-1.51087
-1.54434
-1.56274
-1.57186
-1.5752
-1.57479
-1.57175
-1.56668
-1.55988
-1.55146
-1.54146
-1.52989
-1.51675
-1.50207
-1.48586
-1.46817
-1.44906
-1.4286
-1.40687
-1.38395
-1.35993
-1.33491
-1.30899
-1.28224
-11873.7
-11154.9
-10419.7
-9661.04
-8874.83
-8059.95
-7218.31
-6354.97
-5477.96
-4598.1
-3727.39
-2875.75
-2059.35
-1284.43
-422.265
-4.02981
-0.111602
-0.0815489
-0.334154
-0.461469
-0.623748
-0.775398
-0.909344
-1.02269
-1.11146
-1.17625
-1.22176
-1.25246
-1.27203
-1.28331
-1.2884
-1.28876
-1.28545
-1.2792
-1.27056
-1.25989
-1.24749
-1.23359
-1.21836
-1.20196
-1.18451
-1.16612
-1.14688
-1.12688
-1.1062
-1.08491
-1.06308
-1.04077
-1.01804
-0.994953
-11800.7
-10933.4
-10042.6
-9118.23
-8154.82
-7152.63
-6116.9
-5058.92
-3996.03
-2953.4
-1953.56
-907.055
-46.2842
-0.555299
-0.130861
-0.250884
-0.318786
-0.393905
-0.488889
-0.588964
-0.685501
-0.773053
-0.849191
-0.912521
-0.962782
-1.00069
-1.02767
-1.04539
-1.05552
-1.05953
-1.05869
-1.05404
-1.0464
-1.03641
-1.02459
-1.01131
-0.996887
-0.981538
-0.965439
-0.948726
-0.931502
-0.913852
-0.895841
-0.877526
-0.858954
-0.840165
-0.821195
-0.802079
-0.782847
-0.76353
-11701.8
-10632.5
-9529.23
-8377.51
-7170.4
-5909.82
-4608.58
-3284.74
-1941.83
-577.542
-5.51121
-0.280557
-0.0629993
-0.261602
-0.344898
-0.438602
-0.516884
-0.581271
-0.63592
-0.686086
-0.733099
-0.774999
-0.810778
-0.839979
-0.862597
-0.878947
-0.889562
-0.8951
-0.896262
-0.893734
-0.88815
-0.880072
-0.869984
-0.858289
-0.845323
-0.831357
-0.81661
-0.801258
-0.785442
-0.769273
-0.752841
-0.736218
-0.719463
-0.702623
-0.685738
-0.66884
-0.651956
-0.635112
-0.618327
-0.60162
-11553
-10179.5
-8755.31
-7260.6
-5691.73
-4072.06
-2464.63
-986.083
-12.946
-1.5043
-1.4359
-0.905539
-0.75913
-0.721121
-0.722988
-0.734382
-0.744548
-0.753201
-0.760852
-0.768252
-0.775502
-0.782145
-0.787612
-0.7914
-0.793155
-0.79269
-0.78997
-0.785077
-0.778177
-0.769485
-0.759237
-0.747674
-0.735026
-0.7215
-0.707285
-0.692542
-0.67741
-0.662006
-0.646427
-0.630753
-0.61505
-0.59937
-0.583755
-0.568239
-0.552849
-0.537606
-0.522526
-0.507623
-0.492906
-0.478384
-11356.9
-9588.4
-7761.17
-5858.76
-3897.97
-1947.08
-21.0602
-2.78057
-3.12799
-2.41971
-2.08997
-1.808
-1.59293
-1.42492
-1.29603
-1.19681
-1.11826
-1.05554
-1.00534
-0.965087
-0.932581
-0.905839
-0.883114
-0.862956
-0.844237
-0.826139
-0.808119
-0.789857
-0.771207
-0.752144
-0.732721
-0.713041
-0.693225
-0.673397
-0.653673
-0.634155
-0.614923
-0.596042
-0.577557
-0.5595
-0.541888
-0.524728
-0.50802
-0.491759
-0.475936
-0.460537
-0.44555
-0.430962
-0.416759
-0.402929
-11170.8
-9035.43
-6858.22
-4640.73
-2415.64
-26.4826
-18.8404
-15.6938
-12.9185
-10.4602
-8.37199
-6.73135
-5.5411
-4.65603
-3.98482
-3.4649
-3.0541
-2.72414
-2.45514
-2.2327
-2.04615
-1.88724
-1.74963
-1.62841
-1.51987
-1.4213
-1.33072
-1.24679
-1.16861
-1.09559
-1.02738
-0.963719
-0.904444
-0.849396
-0.798412
-0.751311
-0.707888
-0.667913
-0.631141
-0.597317
-0.566183
-0.537485
-0.510981
-0.486443
-0.463662
-0.44245
-0.422638
-0.404078
-0.38664
-0.370212
-11131.9
-8942.13
-6775.38
-4655.16
-2607.32
-53.6409
-37.0451
-31.8718
-27.2239
-23.1437
-19.622
-16.6911
-14.3194
-12.3947
-10.8198
-9.51711
-8.4268
-7.50362
-6.71339
-6.0301
-5.43375
-4.90881
-4.4431
-4.02707
-3.65318
-3.3155
-3.00939
-2.73118
-2.47802
-2.24761
-2.0381
-1.8479
-1.67565
-1.52005
-1.37989
-1.254
-1.14121
-1.0404
-0.950462
-0.870314
-0.799144
-0.735917
-0.679636
-0.629419
-0.584489
-0.544164
-0.507854
-0.475048
-0.445307
-0.418256
-11151.2
-8997.93
-6861.2
-4759.52
-2712.12
-102.117
-70.3649
-61.3362
-53.2875
-46.2607
-40.2177
-35.0188
-30.5452
-26.6923
-23.3685
-20.4945
-18.0025
-15.8354
-13.9455
-12.293
-10.8445
-9.57235
-8.45316
-7.46722
-6.59781
-5.8307
-5.15372
-4.55639
-4.02967
-3.56569
-3.15754
-2.80103
-2.48967
-2.21774
-1.98019
-1.77263
-1.59114
-1.43231
-1.29311
-1.17089
-1.06337
-0.96852
-0.88462
-0.810177
-0.743919
-0.68476
-0.631778
-0.58419
-0.541331
-0.502634
-11157.5
-9014.81
-6880.98
-4765.26
-2669.2
-148.055
-101.253
-87.7634
-77.0001
-68.4412
-61.4419
-55.381
-49.9116
-44.941
-40.4117
-36.2802
-32.5115
-29.0759
-25.9485
-23.107
-20.5321
-18.206
-16.112
-14.2342
-12.5567
-11.0637
-9.73962
-8.56916
-7.53754
-6.63069
-5.83537
-5.13925
-4.53091
-3.99991
-3.53676
-3.13292
-2.78077
-2.47354
-2.20525
-1.97067
-1.76524
-1.585
-1.42656
-1.28699
-1.16378
-1.05482
-0.958268
-0.872657
-0.796781
-0.729286
-10942.2
-8335.26
-5647.91
-2873.04
-27.6131
-21.3939
-21.7029
-22.0228
-22.5193
-22.9432
-23.3255
-23.6163
-23.7594
-23.4986
-22.7513
-21.5578
-20.0299
-18.3066
-16.5212
-14.7791
-13.1493
-11.6676
-10.3451
-9.17835
-8.1561
-7.26399
-6.48681
-5.80973
-5.21894
-4.70204
-4.24821
-3.84823
-3.49436
-3.18017
-2.9003
-2.65028
-2.42631
-2.2252
-2.04419
-1.88095
-1.73347
-1.60001
-1.47904
-1.36925
-1.26947
-1.17867
-1.09593
-1.02044
-0.951462
-0.888359
-10917.1
-8288.12
-5637.41
-2917.45
-27.8888
-3.47725
-1.85958
-7.1382
-11.4829
-13.4864
-14.8915
-16.046
-16.8658
-17.3443
-17.4305
-17.1451
-16.5582
-15.7605
-14.8409
-13.8748
-12.9195
-12.0143
-11.1813
-10.4275
-9.74451
-9.12031
-8.54449
-8.01151
-7.5083
-7.02435
-6.55248
-6.08936
-5.63539
-5.19378
-4.76934
-4.36707
-3.9926
-3.64998
-3.33898
-3.05898
-2.80883
-2.58669
-2.39002
-2.21595
-2.06156
-1.92417
-1.80144
-1.69136
-1.59223
-1.50257
-11266.2
-9368.45
-7540.09
-5785.46
-4054.98
-2204.35
-250.702
-21.171
-12.2745
-23.3617
-2.17325
-0.763713
-5.4903
-8.32812
-10.2045
-11.3574
-12.044
-12.4097
-12.5565
-12.548
-12.4225
-12.1969
-11.8871
-11.6706
-11.5668
-11.467
-11.3429
-11.1916
-11.0079
-10.7866
-10.5256
-10.2282
-9.90205
-9.55887
-9.20943
-8.86066
-8.51593
-8.17723
-7.84707
-7.52924
-7.22658
-6.93857
-6.66008
-6.38477
-6.10849
-5.83073
-5.55394
-5.28229
-5.0204
-4.77223
-11554.7
-10223.5
-8940.83
-7719.59
-6559.85
-5453.33
-4388.39
-3362.71
-2381.8
-1509.25
-726.762
-20.2859
-5.45876
-5.72027
-5.65973
-5.6124
-5.14658
-4.53621
-3.88113
-3.37948
-3.11556
-2.0204
-0.279083
-0.883861
-1.47736
-2.20856
-3.00003
-3.75938
-4.43985
-5.02252
-5.49351
-5.85339
-6.08595
-6.27352
-6.44239
-6.59295
-6.69479
-6.74693
-6.75129
-6.7216
-6.70691
-6.67162
-6.61763
-6.54477
-6.45417
-6.34968
-6.23469
-6.11222
-5.98666
-5.86108
-11765.2
-10849.3
-9968.38
-9135.52
-8357.23
-7635.06
-6967.21
-6349.89
-5778.41
-5247.78
-4752.1
-4283.81
-3836.85
-3403.97
-2982.49
-2572.82
-2176.56
-1795.94
-1432.81
-1087.11
-755.744
-440.389
-160.351
-3.8277
-1.57572
-1.35848
-1.07702
-0.735784
-0.418109
-0.141811
-0.0353159
-0.219834
-0.416887
-0.686718
-1.01181
-1.36429
-1.71199
-1.99798
-2.2307
-2.47536
-2.89666
-3.38103
-3.70812
-3.96766
-4.14352
-4.26166
-4.33199
-4.36156
-4.3791
-4.39386
-11891.1
-11219.5
-10564.1
-9931.52
-9325.48
-8747.19
-8196.17
-7670.89
-7169.3
-6689.32
-6229.15
-5787.44
-5363.48
-4957
-4568.03
-4196.66
-3842.84
-3506.3
-3186.48
-2882.5
-2593.12
-2316.84
-2052.12
-1797.25
-1550.18
-1308.89
-1071.46
-834.64
-592.775
-344.258
-113.327
-1.25269
-0.108632
-0.0284262
-0.0197975
-0.0118137
-0.159399
-0.328583
-0.53273
-0.746773
-0.994684
-1.3346
-1.60632
-1.76732
-1.90151
-1.95257
-1.97705
-2.06893
-2.2382
-2.41036
-11948
-11385.8
-10828.7
-10279.6
-9740.37
-9212.25
-8695.98
-8192.01
-7700.69
-7222.52
-6758.14
-6308.39
-5874.2
-5456.58
-5056.43
-4674.49
-4311.25
-3966.89
-3641.29
-3334.03
-3044.45
-2771.66
-2514.66
-2272.37
-2043.67
-1827.44
-1622.52
-1427.75
-1241.93
-1063.84
-892.299
-725.905
-562.296
-398.6
-231.538
-80.0451
-0.889737
-0.0503127
-0.0171406
-0.0116305
-0.283986
-0.536929
-0.766225
-0.988834
-1.23697
-1.43925
-1.62064
-1.74541
-1.80051
-1.90457
-11967.7
-11442.9
-10917.9
-10393.5
-9870.29
-9349.48
-8832.41
-8320.69
-7816.25
-7321.26
-6838.07
-6369.08
-5916.62
-5482.82
-5069.49
-4678.04
-4309.4
-3964.04
-3641.94
-3342.65
-3065.37
-2808.97
-2572.11
-2353.27
-2150.83
-1963.15
-1788.59
-1625.56
-1472.57
-1328.23
-1191.25
-1060.44
-934.404
-811.84
-691.359
-570.756
-446.52
-313.454
-167.294
-19.8544
-0.307461
-0.0515761
-0.0264332
-0.00971778
-0.505608
-1.10151
-1.46391
-1.78732
-2.05419
-2.25256
-11964.2
-11431.5
-10896.3
-10358.1
-9817.28
-9275.01
-8733.25
-8194.54
-7661.88
-7138.59
-6628.09
-6133.74
-5658.66
-5205.56
-4776.61
-4373.43
-3997.01
-3647.72
-3325.37
-3029.28
-2758.34
-2511.13
-2286.02
-2081.21
-1894.84
-1725.08
-1570.11
-1428.23
-1297.82
-1177.41
-1065.65
-961.36
-863.486
-771.119
-683.462
-599.873
-519.856
-442.804
-368.205
-296.447
-226.908
-157.805
-86.0289
-14.2231
-0.246158
-3.23745
-4.10537
-3.51824
-3.04819
-2.89528
-1.58993
-1.55955
-1.52783
-1.49494
-1.46102
-1.42625
-1.39076
-1.35469
-1.31819
-1.28137
-1.24437
-1.20728
-1.17022
-1.13327
-1.09655
-1.06011
-1.02404
-0.988419
-0.953295
-0.918729
-0.88477
-0.851463
-0.818845
-0.78695
-0.755806
-0.725435
-0.695857
-0.667087
-0.639134
-0.612006
-0.585707
-0.560238
-0.535597
-0.511779
-0.488777
-0.466584
-0.445188
-0.424577
-0.404738
-0.385655
-0.367314
-0.349698
-0.332789
-0.316569
-0.301021
-0.286125
-0.271863
-0.258216
-0.245164
-0.23269
-1.25478
-1.22669
-1.19806
-1.16898
-1.13953
-1.1098
-1.07987
-1.04981
-1.01969
-0.989588
-0.959568
-0.92969
-0.900015
-0.870596
-0.841484
-0.812726
-0.784366
-0.756443
-0.728993
-0.702048
-0.675635
-0.649781
-0.624506
-0.599829
-0.575766
-0.552329
-0.529527
-0.507368
-0.485856
-0.464993
-0.444781
-0.425216
-0.406297
-0.388017
-0.37037
-0.353349
-0.336944
-0.321146
-0.305943
-0.291324
-0.277276
-0.263786
-0.250842
-0.238428
-0.226531
-0.215138
-0.204233
-0.193803
-0.183832
-0.174307
-0.971564
-0.947926
-0.924092
-0.900113
-0.876039
-0.851917
-0.827794
-0.803714
-0.779721
-0.755856
-0.732159
-0.708665
-0.685411
-0.66243
-0.639752
-0.617405
-0.595417
-0.57381
-0.552607
-0.531827
-0.511487
-0.491603
-0.472186
-0.453249
-0.434799
-0.416845
-0.39939
-0.38244
-0.365995
-0.350057
-0.334624
-0.319694
-0.305265
-0.29133
-0.277886
-0.264925
-0.25244
-0.240424
-0.228868
-0.217763
-0.2071
-0.196868
-0.187058
-0.177659
-0.168661
-0.160052
-0.151822
-0.143961
-0.136457
-0.1293
-0.744156
-0.724754
-0.705351
-0.685974
-0.666649
-0.647403
-0.62826
-0.609247
-0.590386
-0.571702
-0.553217
-0.534952
-0.516927
-0.499162
-0.481676
-0.464484
-0.447602
-0.431045
-0.414825
-0.398954
-0.383442
-0.368298
-0.35353
-0.339143
-0.325142
-0.311532
-0.298315
-0.285494
-0.273067
-0.261036
-0.249398
-0.238152
-0.227294
-0.216822
-0.20673
-0.197014
-0.187669
-0.178688
-0.170065
-0.161794
-0.153867
-0.146277
-0.139018
-0.13208
-0.125458
-0.119142
-0.113125
-0.1074
-0.101958
-0.0967921
-0.585008
-0.568506
-0.55213
-0.535894
-0.51981
-0.503893
-0.488155
-0.472608
-0.457265
-0.442138
-0.427238
-0.412577
-0.398164
-0.384011
-0.370126
-0.356519
-0.343199
-0.330171
-0.317445
-0.305025
-0.292917
-0.281126
-0.269656
-0.25851
-0.24769
-0.237199
-0.227036
-0.217202
-0.207698
-0.198522
-0.189672
-0.181148
-0.172945
-0.165062
-0.157495
-0.15024
-0.143293
-0.136651
-0.130308
-0.124259
-0.118501
-0.113027
-0.107833
-0.102914
-0.0982642
-0.0938787
-0.0897523
-0.08588
-0.0822569
-0.0788779
-0.464063
-0.44995
-0.43605
-0.422366
-0.408903
-0.395666
-0.382658
-0.369884
-0.357347
-0.345052
-0.333003
-0.321205
-0.30966
-0.298375
-0.287352
-0.276595
-0.266109
-0.255895
-0.245958
-0.236301
-0.226925
-0.217833
-0.209028
-0.200509
-0.192279
-0.184338
-0.176687
-0.169325
-0.162253
-0.15547
-0.148975
-0.142768
-0.136846
-0.13121
-0.125855
-0.120782
-0.115989
-0.111472
-0.10723
-0.103262
-0.0995645
-0.096136
-0.0929744
-0.0900779
-0.0874446
-0.0850728
-0.0829609
-0.0811075
-0.0795114
-0.0781714
-0.38946
-0.376341
-0.363563
-0.351116
-0.338994
-0.327189
-0.315697
-0.304511
-0.293628
-0.283044
-0.272757
-0.262765
-0.253065
-0.243657
-0.234539
-0.22571
-0.217171
-0.20892
-0.200959
-0.193287
-0.185905
-0.178812
-0.17201
-0.165497
-0.159276
-0.153347
-0.147709
-0.142364
-0.137312
-0.132554
-0.128089
-0.12392
-0.120046
-0.116468
-0.113187
-0.110204
-0.10752
-0.105137
-0.103056
-0.101279
-0.0998068
-0.0986427
-0.0977888
-0.0972478
-0.0970227
-0.0971169
-0.097534
-0.098278
-0.0993532
-0.100764
-0.354697
-0.340011
-0.326083
-0.312852
-0.300264
-0.288274
-0.276843
-0.265938
-0.25553
-0.245592
-0.236104
-0.227047
-0.218403
-0.210159
-0.202302
-0.194823
-0.187711
-0.180959
-0.174561
-0.168512
-0.162807
-0.157443
-0.152418
-0.14773
-0.143377
-0.139361
-0.135681
-0.132338
-0.129333
-0.12667
-0.124351
-0.122378
-0.120756
-0.119489
-0.118581
-0.118039
-0.117868
-0.118074
-0.118665
-0.119648
-0.121031
-0.122824
-0.125035
-0.127676
-0.130756
-0.134287
-0.138281
-0.142752
-0.147713
-0.153178
-0.393574
-0.370988
-0.350267
-0.33121
-0.313649
-0.297439
-0.282454
-0.268586
-0.255741
-0.243838
-0.232805
-0.22258
-0.213107
-0.204339
-0.196234
-0.188754
-0.181869
-0.175549
-0.169771
-0.164515
-0.159763
-0.155502
-0.151719
-0.148405
-0.145553
-0.143159
-0.14122
-0.139734
-0.138702
-0.138127
-0.138013
-0.138363
-0.139186
-0.140489
-0.142281
-0.144572
-0.147374
-0.1507
-0.154565
-0.158982
-0.163969
-0.169543
-0.175722
-0.182527
-0.189978
-0.198098
-0.206909
-0.216437
-0.226706
-0.237743
-0.467618
-0.435874
-0.407049
-0.380843
-0.356994
-0.335277
-0.315495
-0.297474
-0.281062
-0.266126
-0.252545
-0.240216
-0.229045
-0.218948
-0.209854
-0.201696
-0.194419
-0.187972
-0.182313
-0.177404
-0.173213
-0.169715
-0.166886
-0.164709
-0.163171
-0.162261
-0.161974
-0.162305
-0.163254
-0.164823
-0.167019
-0.169848
-0.17332
-0.177448
-0.182247
-0.187732
-0.193922
-0.200839
-0.208503
-0.21694
-0.226175
-0.236237
-0.247154
-0.258959
-0.271683
-0.285363
-0.300034
-0.315735
-0.332505
-0.350386
-0.669072
-0.615235
-0.567018
-0.52378
-0.48497
-0.450114
-0.418796
-0.390658
-0.365382
-0.342693
-0.322346
-0.304128
-0.287852
-0.27335
-0.26048
-0.249112
-0.239138
-0.230459
-0.222992
-0.216665
-0.211416
-0.207193
-0.203952
-0.201656
-0.200278
-0.199794
-0.200188
-0.201449
-0.20357
-0.20655
-0.210391
-0.215101
-0.22069
-0.227172
-0.234565
-0.242889
-0.252167
-0.262427
-0.273698
-0.28601
-0.299399
-0.3139
-0.329553
-0.346398
-0.364479
-0.38384
-0.404529
-0.426594
-0.450085
-0.475055
-0.830547
-0.777515
-0.728806
-0.684019
-0.642797
-0.604824
-0.569823
-0.537551
-0.507792
-0.480362
-0.455096
-0.431853
-0.410508
-0.390954
-0.373097
-0.356855
-0.342157
-0.32894
-0.317149
-0.306738
-0.297665
-0.289893
-0.283393
-0.278138
-0.274106
-0.27128
-0.269648
-0.2692
-0.26993
-0.271838
-0.274927
-0.279203
-0.284676
-0.291359
-0.299272
-0.308433
-0.318868
-0.330603
-0.343669
-0.358099
-0.373929
-0.391197
-0.409943
-0.430212
-0.452049
-0.475502
-0.500621
-0.527457
-0.556066
-0.586502
-1.42108
-1.34666
-1.27831
-1.21517
-1.1565
-1.10162
-1.05002
-1.00124
-0.95494
-0.910864
-0.868818
-0.828668
-0.790325
-0.753741
-0.718896
-0.685791
-0.654442
-0.624876
-0.59712
-0.571203
-0.54715
-0.524981
-0.504709
-0.486342
-0.469882
-0.455323
-0.442658
-0.431876
-0.422962
-0.415905
-0.410691
-0.40731
-0.405753
-0.406017
-0.4081
-0.412005
-0.41774
-0.425317
-0.434751
-0.446061
-0.459271
-0.474406
-0.491498
-0.510577
-0.531678
-0.554839
-0.580098
-0.607494
-0.63707
-0.668867
-4.54037
-4.32581
-4.12819
-3.94578
-3.77622
-3.61648
-3.46394
-3.3165
-3.17252
-3.03078
-2.89042
-2.75098
-2.61239
-2.47489
-2.33896
-2.20529
-2.07464
-1.9478
-1.82552
-1.70849
-1.59727
-1.49235
-1.39404
-1.30254
-1.2179
-1.14007
-1.06891
-1.00422
-0.945731
-0.893165
-0.846225
-0.804612
-0.768039
-0.736233
-0.708943
-0.685943
-0.667031
-0.652031
-0.64079
-0.633178
-0.629089
-0.628429
-0.631127
-0.637121
-0.646368
-0.658829
-0.67448
-0.693298
-0.71527
-0.740382
-5.73677
-5.61487
-5.49689
-5.38069
-5.26663
-5.15413
-5.04091
-4.92345
-4.79886
-4.66585
-4.52531
-4.37956
-4.23021
-4.07834
-3.92467
-3.76973
-3.61401
-3.45811
-3.30267
-3.14856
-2.99657
-2.84768
-2.70252
-2.56172
-2.42582
-2.2953
-2.17052
-2.05178
-1.93924
-1.83296
-1.73292
-1.63903
-1.55117
-1.4692
-1.39299
-1.3224
-1.25733
-1.19767
-1.14333
-1.09423
-1.05029
-1.01146
-0.977664
-0.948856
-0.924975
-0.905964
-0.89176
-0.882301
-0.877514
-0.877322
-4.40669
-4.41702
-4.42144
-4.4251
-4.43006
-4.43239
-4.42987
-4.4187
-4.39337
-4.35011
-4.29097
-4.22057
-4.1423
-4.05864
-3.9713
-3.8815
-3.79001
-3.69734
-3.60424
-3.51031
-3.4158
-3.3205
-3.22484
-3.12916
-3.03333
-2.93746
-2.84175
-2.74629
-2.65131
-2.55683
-2.46305
-2.37024
-2.2788
-2.18908
-2.10137
-2.01593
-1.93299
-1.85277
-1.77549
-1.70135
-1.63056
-1.56333
-1.49987
-1.44038
-1.38509
-1.33417
-1.28783
-1.24621
-1.20947
-1.17771
-2.54824
-2.68178
-2.82135
-2.96944
-3.11881
-3.26117
-3.40138
-3.57424
-3.66397
-3.70635
-3.68268
-3.64309
-3.62462
-3.60922
-3.58991
-3.5678
-3.54427
-3.52008
-3.49554
-3.47067
-3.44542
-3.41908
-3.39147
-3.36222
-3.33098
-3.29805
-3.26219
-3.22356
-3.18148
-3.13653
-3.08909
-3.03922
-2.98684
-2.93152
-2.87294
-2.81085
-2.74512
-2.67575
-2.60285
-2.5267
-2.44791
-2.36722
-2.28551
-2.20363
-2.12239
-2.04254
-1.96473
-1.88961
-1.8178
-1.74989
-2.05113
-2.20612
-2.35763
-2.50304
-2.64138
-2.76644
-2.87632
-2.96958
-3.04102
-3.10784
-3.16197
-3.20219
-3.23473
-3.26258
-3.28705
-3.30903
-3.32896
-3.34703
-3.36335
-3.37784
-3.39027
-3.40032
-3.40772
-3.41221
-3.41357
-3.41162
-3.4062
-3.39749
-3.38935
-3.3746
-3.35374
-3.32959
-3.2972
-3.26098
-3.22245
-3.17952
-3.1318
-3.07955
-3.02348
-2.96444
-2.90301
-2.84002
-2.77559
-2.7097
-2.6423
-2.57356
-2.50372
-2.43322
-2.36258
-2.29252
-2.3988
-2.52913
-2.66509
-2.80181
-2.93007
-3.04679
-3.15936
-3.26047
-3.35119
-3.43579
-3.5079
-3.56393
-3.6081
-3.643
-3.67547
-3.70473
-3.72972
-3.7504
-3.76712
-3.78063
-3.79101
-3.79515
-3.79676
-3.79343
-3.78566
-3.77531
-3.7613
-3.74438
-3.71873
-3.68931
-3.65641
-3.61933
-3.57955
-3.53815
-3.49559
-3.45208
-3.40797
-3.36493
-3.32613
-3.28308
-3.24063
-3.19551
-3.15254
-3.11049
-3.06742
-3.02273
-2.97616
-2.92769
-2.87746
-2.82598
-2.89924
-2.9334
-2.95943
-2.96202
-2.93752
-2.91084
-2.92028
-2.9825
-3.05308
-3.11256
-3.16655
-3.21378
-3.25322
-3.28845
-3.31483
-3.34194
-3.36566
-3.39151
-3.41992
-3.44899
-3.4772
-3.5043
-3.53009
-3.55416
-3.57593
-3.59525
-3.6125
-3.63138
-3.64243
-3.64731
-3.65415
-3.65662
-3.65344
-3.64631
-3.63533
-3.61878
-3.59902
-3.57925
-3.55882
-3.53701
-3.51357
-3.48945
-3.46508
-3.4402
-3.4144
-3.38759
-3.35967
-3.33062
-3.30054
-3.26986
-0.223292
-0.216887
-0.210619
-0.204486
-0.198487
-0.19262
-0.186884
-0.181276
-0.175796
-0.170442
-0.165211
-0.160103
-0.155116
-0.150248
-0.145497
-0.140862
-0.13634
-0.131931
-0.127633
-0.123444
-0.119361
-0.115384
-0.111511
-0.107741
-0.10407
-0.100499
-0.097024
-0.0936449
-0.0903594
-0.0871661
-0.0840631
-0.0810488
-0.0781216
-0.0752799
-0.0725218
-0.069846
-0.0672506
-0.0647341
-0.0622949
-0.0599314
-0.057642
-0.0554251
-0.0532792
-0.0512028
-0.0491942
-0.047252
-0.0453747
-0.0435608
-0.0418088
-0.0401174
-0.038485
-0.0369102
-0.0353917
-0.033928
-0.032518
-0.0311601
-0.0298531
-0.0285957
-0.0273866
-0.0262247
-0.0251086
-0.0240372
-0.0230093
-0.0220238
-0.0210795
-0.0201753
-0.0193101
-0.0184829
-0.0176926
-0.0169383
-0.0162189
-0.0155335
-0.0148812
-0.014261
-0.0136721
-0.0131135
-0.0125845
-0.0120843
-0.011612
-0.0111669
-0.0107482
-0.0103553
-0.00998736
-0.00964383
-0.00932403
-0.00902733
-0.00875313
-0.00850086
-0.00826995
-0.00805988
-0.00787013
-0.00770021
-0.00754964
-0.00741797
-0.00730477
-0.00720961
-0.00713208
-0.00707181
-0.00702841
-0.00700153
-0.00699082
-0.00699594
-0.00701657
-0.00705239
-0.00710309
-0.00716837
-0.00724794
-0.0073415
-0.00744877
-0.00756947
-0.0077033
-0.00784999
-0.00800925
-0.0081808
-0.00836433
-0.00855957
-0.00876618
-0.00898386
-0.00921228
-0.00945109
-0.00969992
-0.00995839
-0.0102261
-0.0105026
-0.0107874
-0.0110801
-0.0113801
-0.0116868
-0.0119997
-0.0123181
-0.0126413
-0.0129687
-0.0132995
-0.013633
-0.0139688
-0.0143055
-0.0146404
-0.0149714
-0.0152974
-0.015617
-0.015929
-0.0162323
-0.0165257
-0.016808
-0.0170781
-0.0173349
-0.0175772
-0.0178039
-0.018014
-0.0182064
-0.0183802
-0.0185343
-0.0186678
-0.01878
-0.01887
-0.0189371
-0.0189807
-0.0190002
-0.0189952
-0.0189653
-0.0189102
-0.0188297
-0.0187237
-0.0185923
-0.0184357
-0.018254
-0.0180477
-0.0178172
-0.0175631
-0.0172861
-0.0169869
-0.0166665
-0.0163259
-0.0159661
-0.0155883
-0.0151937
-0.0147837
-0.0143597
-0.0139231
-0.0134754
-0.0130182
-0.0125529
-0.0120812
-0.0116048
-0.0111251
-0.0106437
-0.0101623
-0.00968228
-0.00920524
-0.00873258
-0.0082657
-0.0078059
-0.00735443
-0.00691248
-0.00648111
-0.00606133
-0.00565404
-0.00526004
-0.00488003
-0.00451463
-0.00416434
-0.00382955
-0.00351058
-0.00320762
-0.00292078
-0.00265008
-0.00239544
-0.00215671
-0.00193365
-0.00172596
-0.00153327
-0.00135514
-0.00119109
-0.0010406
-0.000903092
-0.000777973
-0.000664619
-0.000562389
-0.000470633
-0.000388691
-0.000315906
-0.000251625
-0.000195205
-0.000146019
-0.000103456
-6.69267e-05
-3.58669e-05
-9.73778e-06
1.19707e-05
2.97394e-05
4.40185e-05
5.52272e-05
6.37539e-05
6.99558e-05
7.41599e-05
7.66636e-05
7.77358e-05
7.76179e-05
7.65252e-05
7.46487e-05
7.2156e-05
6.91937e-05
6.58885e-05
6.23488e-05
5.86667e-05
5.49194e-05
5.11708e-05
4.74727e-05
4.38666e-05
4.03849e-05
3.70517e-05
3.38845e-05
3.08949e-05
2.80898e-05
2.54717e-05
2.30401e-05
2.07916e-05
1.8721e-05
1.68212e-05
1.50842e-05
1.35011e-05
1.20626e-05
1.0759e-05
9.58073e-06
8.51826e-06
7.56237e-06
6.70415e-06
5.93513e-06
5.2473e-06
4.63314e-06
4.08565e-06
3.59833e-06
3.1652e-06
2.78076e-06
2.43998e-06
2.13826e-06
1.87146e-06
1.63578e-06
1.42782e-06
1.2445e-06
1.08305e-06
9.41005e-07
8.1611e-07
7.06382e-07
6.10035e-07
5.25485e-07
4.51298e-07
3.86216e-07
3.29105e-07
2.78973e-07
2.34917e-07
1.96161e-07
1.61982e-07
1.31805e-07
1.05046e-07
8.12303e-08
5.9958e-08
4.08423e-08
2.35747e-08
7.82909e-09
-0.167124
-0.162231
-0.157446
-0.152766
-0.148191
-0.143719
-0.13935
-0.135082
-0.130914
-0.126843
-0.122871
-0.118993
-0.115211
-0.111522
-0.107924
-0.104417
-0.101
-0.0976704
-0.0944276
-0.0912702
-0.0881969
-0.0852064
-0.0822974
-0.0794687
-0.0767189
-0.0740468
-0.0714511
-0.0689305
-0.0664838
-0.0641097
-0.061807
-0.0595743
-0.0574105
-0.0553143
-0.0532845
-0.0513199
-0.0494193
-0.0475813
-0.045805
-0.044089
-0.0424323
-0.0408336
-0.0392918
-0.0378057
-0.0363744
-0.0349965
-0.0336711
-0.0323972
-0.0311735
-0.0299991
-0.0288729
-0.027794
-0.0267614
-0.025774
-0.024831
-0.0239313
-0.0230742
-0.0222586
-0.0214837
-0.0207487
-0.0200527
-0.0193949
-0.0187745
-0.0181908
-0.017643
-0.0171304
-0.0166523
-0.0162079
-0.0157967
-0.0154181
-0.0150713
-0.0147559
-0.0144712
-0.0142168
-0.013992
-0.0137966
-0.0136298
-0.0134914
-0.0133809
-0.013298
-0.0132421
-0.0132131
-0.0132106
-0.0132343
-0.0132839
-0.0133592
-0.0134599
-0.0135859
-0.0137369
-0.0139127
-0.0141134
-0.0143386
-0.0145882
-0.0148622
-0.0151605
-0.015483
-0.0158295
-0.0162001
-0.0165945
-0.0170129
-0.0174551
-0.0179209
-0.0184104
-0.0189234
-0.0194599
-0.0200196
-0.0206025
-0.0212085
-0.0218372
-0.0224887
-0.0231625
-0.0238585
-0.0245765
-0.025316
-0.0260767
-0.0268582
-0.0276602
-0.028482
-0.0293233
-0.0301832
-0.0310613
-0.0319567
-0.0328685
-0.033796
-0.0347381
-0.0356936
-0.0366613
-0.03764
-0.038628
-0.0396239
-0.040626
-0.0416326
-0.0426423
-0.0436534
-0.0446613
-0.045658
-0.0466395
-0.0476019
-0.0485421
-0.0494566
-0.0503424
-0.0511963
-0.0520152
-0.052796
-0.0535356
-0.054231
-0.0548792
-0.0554774
-0.0560228
-0.0565126
-0.0569443
-0.0573155
-0.0576238
-0.0578671
-0.0580436
-0.0581515
-0.0581894
-0.058156
-0.0580504
-0.0578718
-0.0576198
-0.0572944
-0.0568955
-0.0564238
-0.05588
-0.0552651
-0.0545804
-0.0538278
-0.053009
-0.0521263
-0.0511822
-0.0501795
-0.0491211
-0.0480104
-0.0468508
-0.0456459
-0.0443996
-0.043116
-0.0417993
-0.0404536
-0.0390835
-0.0376933
-0.0362875
-0.0348706
-0.0334471
-0.0320215
-0.0305979
-0.0291808
-0.0277741
-0.0263819
-0.0250079
-0.0236558
-0.0223289
-0.0210305
-0.0197633
-0.0185303
-0.0173336
-0.0161756
-0.0150582
-0.0139828
-0.012951
-0.0119637
-0.0110218
-0.0101258
-0.00927598
-0.00847232
-0.00771462
-0.00700244
-0.0063351
-0.00571177
-0.00513139
-0.00459278
-0.00409458
-0.00363535
-0.00321349
-0.00282737
-0.00247524
-0.00215534
-0.00186586
-0.00160496
-0.00137082
-0.00116163
-0.000975584
-0.000810939
-0.000665985
-0.00053907
-0.000428607
-0.00033308
-0.000251046
-0.000181144
-0.000122093
-7.2696e-05
-3.184e-05
1.50384e-06
2.82821e-05
4.93603e-05
6.55256e-05
7.74902e-05
8.5894e-05
9.13091e-05
9.42435e-05
9.51455e-05
9.4408e-05
9.23725e-05
8.93342e-05
8.55455e-05
8.12205e-05
7.65391e-05
7.16504e-05
6.66766e-05
6.17161e-05
5.68468e-05
5.21289e-05
4.76072e-05
4.3314e-05
3.92704e-05
3.54892e-05
3.19755e-05
2.87289e-05
2.57444e-05
2.30135e-05
2.05252e-05
1.82668e-05
1.62241e-05
1.43826e-05
1.27274e-05
1.12438e-05
9.91745e-06
8.73439e-06
7.68144e-06
6.74619e-06
5.91704e-06
5.1832e-06
4.53477e-06
3.96265e-06
3.45856e-06
3.01496e-06
2.62506e-06
2.28275e-06
1.98249e-06
1.71938e-06
1.489e-06
1.28744e-06
1.11118e-06
9.57123e-07
8.22532e-07
7.04941e-07
6.0221e-07
5.12408e-07
4.33861e-07
3.65065e-07
3.04715e-07
2.51642e-07
2.04836e-07
1.63399e-07
1.26535e-07
9.35655e-08
6.38804e-08
3.69505e-08
1.22855e-08
-0.123907
-0.120238
-0.116653
-0.113152
-0.109734
-0.106398
-0.103142
-0.0999671
-0.0968709
-0.0938529
-0.090912
-0.0880474
-0.0852582
-0.0825433
-0.0799018
-0.0773328
-0.0748353
-0.0724085
-0.0700515
-0.0677632
-0.0655428
-0.0633894
-0.0613021
-0.0592801
-0.0573223
-0.0554281
-0.0535964
-0.0518264
-0.0501174
-0.0484683
-0.0468785
-0.045347
-0.0438731
-0.0424559
-0.0410947
-0.0397887
-0.0385371
-0.0373391
-0.0361941
-0.0351012
-0.0340598
-0.0330691
-0.0321286
-0.0312374
-0.030395
-0.0296008
-0.028854
-0.0281542
-0.0275007
-0.0268931
-0.0263306
-0.0258129
-0.0253395
-0.0249098
-0.0245235
-0.02418
-0.0238791
-0.0236202
-0.0234031
-0.0232274
-0.0230928
-0.022999
-0.0229457
-0.0229327
-0.0229598
-0.0230269
-0.0231336
-0.02328
-0.0234658
-0.023691
-0.0239556
-0.0242595
-0.0246027
-0.0249852
-0.0254071
-0.0258685
-0.0263694
-0.02691
-0.0274905
-0.028111
-0.0287718
-0.029473
-0.0302151
-0.0309982
-0.0318226
-0.0326887
-0.0335969
-0.0345475
-0.0355409
-0.0365775
-0.0376576
-0.0387818
-0.0399503
-0.0411637
-0.0424222
-0.0437263
-0.0450764
-0.0464727
-0.0479156
-0.0494054
-0.0509422
-0.0525264
-0.054158
-0.0558371
-0.0575637
-0.0593379
-0.0611594
-0.0630282
-0.0649439
-0.0669062
-0.0689146
-0.0709687
-0.0730679
-0.0752113
-0.0773982
-0.0796276
-0.0818985
-0.0842096
-0.0865596
-0.0889469
-0.09137
-0.0938269
-0.0963156
-0.0988336
-0.101379
-0.103948
-0.106538
-0.109145
-0.111766
-0.114397
-0.117034
-0.119673
-0.122309
-0.124933
-0.127525
-0.130073
-0.132567
-0.134998
-0.137359
-0.13964
-0.141834
-0.143933
-0.145929
-0.147814
-0.149581
-0.151223
-0.152732
-0.154101
-0.155324
-0.156393
-0.157304
-0.15805
-0.158626
-0.159027
-0.15925
-0.159291
-0.159146
-0.158813
-0.158291
-0.157579
-0.156677
-0.155584
-0.154304
-0.152837
-0.151187
-0.149357
-0.147352
-0.145177
-0.142836
-0.140337
-0.137686
-0.134891
-0.131959
-0.1289
-0.125722
-0.122434
-0.119048
-0.115572
-0.112018
-0.108398
-0.104721
-0.100999
-0.0972446
-0.0934681
-0.0896808
-0.0858941
-0.0821186
-0.078365
-0.0746435
-0.0709637
-0.067335
-0.0637662
-0.0602655
-0.0568407
-0.0534988
-0.0502464
-0.0470894
-0.0440331
-0.041082
-0.0382402
-0.035511
-0.0328971
-0.0304003
-0.028022
-0.025763
-0.0236232
-0.021602
-0.0196985
-0.017911
-0.0162373
-0.0146748
-0.0132207
-0.0118715
-0.0106236
-0.00947304
-0.00841576
-0.00744741
-0.00656352
-0.00575955
-0.00503091
-0.00437298
-0.00378118
-0.00325095
-0.00277786
-0.00235754
-0.00198579
-0.00165853
-0.00137187
-0.00112209
-0.000905674
-0.000719288
-0.000559814
-0.000424342
-0.000310165
-0.000214784
-0.000135903
-7.14201e-05
-1.94261e-05
2.18074e-05
5.3835e-05
7.80476e-05
9.56822e-05
0.000107832
0.000115459
0.000119401
0.000120385
0.000119036
0.000115889
0.000111395
0.000105934
9.98203e-05
9.33106e-05
8.66138e-05
7.98958e-05
7.32855e-05
6.68813e-05
6.07551e-05
5.49573e-05
4.95204e-05
4.44625e-05
3.97899e-05
3.55001e-05
3.15837e-05
2.80259e-05
2.48086e-05
2.19112e-05
1.93116e-05
1.69872e-05
1.49154e-05
1.3074e-05
1.14417e-05
9.99815e-06
8.72441e-06
7.60273e-06
6.61679e-06
5.75159e-06
4.99353e-06
4.33026e-06
3.75063e-06
3.2447e-06
2.8035e-06
2.41911e-06
2.08445e-06
1.79326e-06
1.54001e-06
1.31979e-06
1.12832e-06
9.61789e-07
8.16866e-07
6.90632e-07
5.80496e-07
4.84225e-07
3.99813e-07
3.25552e-07
2.59909e-07
2.01558e-07
1.4933e-07
1.02202e-07
5.92652e-08
1.96961e-08
-0.0929165
-0.0902884
-0.0877296
-0.0852397
-0.082818
-0.0804642
-0.0781777
-0.0759579
-0.0738044
-0.0717165
-0.0696938
-0.0677356
-0.0658416
-0.0640112
-0.0622439
-0.0605392
-0.0588967
-0.0573158
-0.0557962
-0.0543374
-0.052939
-0.0516006
-0.0503218
-0.0491022
-0.0479415
-0.0468393
-0.0457953
-0.0448092
-0.0438808
-0.0430096
-0.0421956
-0.0414384
-0.0407379
-0.0400938
-0.0395061
-0.0389744
-0.0384988
-0.0380792