/*--------------------------------*- C++ -*----------------------------------*\
| =========                 |                                                 |
| \\      /  F ield         | OpenFOAM: The Open Source CFD Toolbox           |
|  \\    /   O peration     | Version:  2.4.0                                 |
|   \\  /    A nd           | Web:      www.OpenFOAM.org                      |
|    \\/     M anipulation  |                                                 |
\*---------------------------------------------------------------------------*/
FoamFile
{
    version     2.0;
    format      ascii;
    class       volScalarField;
    location    "2";
    object      p;
}
// * * * * * * * * * * * * * * * * * * * * * * * * * * * * * * * * * * * * * //

dimensions      [1 -1 -2 0 0 0 0];

internalField   nonuniform List<scalar> 
8000
(
0.182731
0.222056
0.26404
0.298963
0.326478
0.347457
0.362401
0.371136
0.373677
0.369695
0.359017
0.340874
0.314861
0.2831
0.255353
0.247202
0.234158
0.0134133
-1.26174
-4.09699
-5.11606
-3.60436
-1.07944
-0.818625
-0.857921
-0.852022
-0.8525
-0.852914
-0.853011
-0.852996
-0.852981
-0.852978
-0.852979
-0.85298
-0.852983
-0.852987
-0.852992
-0.852998
-0.853005
-0.853013
-0.853022
-0.853032
-0.853043
-0.853055
-0.853067
-0.85308
-0.853094
-0.853109
-0.853124
-0.853141
0.308445
0.333209
0.357646
0.380487
0.402866
0.425504
0.448235
0.471105
0.493652
0.515946
0.537798
0.562381
0.60023
0.676565
0.767709
0.548224
-1.37406
-5.47072
-8.86781
-4.46914
-1.47721
-0.817937
-0.872374
-0.869986
-0.872467
-0.872804
-0.872688
-0.872603
-0.872584
-0.872585
-0.872589
-0.872593
-0.8726
-0.872609
-0.87262
-0.872634
-0.872649
-0.872667
-0.872686
-0.872707
-0.87273
-0.872754
-0.87278
-0.872807
-0.872836
-0.872866
-0.872897
-0.872929
-0.872963
-0.872997
3.37208
3.34915
3.33814
3.34363
3.36586
3.40189
3.45337
3.51815
3.60188
3.70858
3.85455
4.02067
4.06838
2.92485
-0.785851
-5.87326
-8.82039
-3.42255
-1.52304
-0.914741
-0.890705
-0.891922
-0.895162
-0.894617
-0.894053
-0.893807
-0.893697
-0.893617
-0.893543
-0.893475
-0.893415
-0.893361
-0.893314
-0.893273
-0.893238
-0.893209
-0.893185
-0.893166
-0.893151
-0.893142
-0.893137
-0.893136
-0.893139
-0.893146
-0.893157
-0.893171
-0.893188
-0.893208
-0.893231
-0.893257
1.04052
1.05317
1.07606
1.11166
1.16004
1.22129
1.3031
1.43101
1.62157
1.71578
0.934526
-2.49647
-5.40245
-13.1372
-8.53084
-3.32923
-0.868596
-0.915389
-0.903832
-0.908361
-0.909293
-0.909441
-0.909496
-0.909657
-0.909866
-0.910081
-0.910279
-0.91046
-0.910627
-0.910784
-0.910932
-0.911072
-0.911204
-0.91133
-0.91145
-0.911564
-0.911675
-0.911781
-0.911883
-0.911983
-0.912079
-0.912173
-0.912265
-0.912355
-0.912442
-0.912529
-0.912614
-0.912697
-0.912779
-0.912861
-2.69782
-2.66345
-2.63082
-2.60218
-2.56793
-2.47487
-2.32589
-2.48489
-4.35732
-9.10891
-14.9488
-10.8716
-3.74067
-1.21379
-0.929583
-0.928817
-0.92803
-0.929333
-0.929061
-0.928702
-0.928713
-0.928836
-0.928989
-0.929141
-0.929287
-0.929429
-0.929569
-0.929708
-0.929845
-0.929978
-0.930109
-0.930236
-0.930361
-0.930482
-0.930601
-0.930718
-0.930832
-0.930945
-0.931056
-0.931165
-0.931273
-0.931381
-0.931487
-0.931592
-0.931697
-0.931801
-0.931905
-0.932008
-0.932111
-0.932213
-6.71253
-6.78715
-6.87909
-6.943
-6.956
-7.1711
-8.55672
-12.0123
-12.3992
-2.92097
-2.17597
-0.972604
-0.953673
-0.947454
-0.951637
-0.951931
-0.951965
-0.951723
-0.951543
-0.951432
-0.95137
-0.951326
-0.951296
-0.95128
-0.951277
-0.951286
-0.951306
-0.951334
-0.951371
-0.951414
-0.951463
-0.951517
-0.951575
-0.951637
-0.951702
-0.95177
-0.951841
-0.951914
-0.951989
-0.952065
-0.952144
-0.952224
-0.952305
-0.952388
-0.952472
-0.952557
-0.952644
-0.952731
-0.95282
-0.95291
-6.1078
-6.20063
-6.26792
-6.35222
-6.91437
-8.81785
-10.4224
-3.11641
-1.05766
-0.979403
-0.960173
-0.963851
-0.965359
-0.965907
-0.965939
-0.966211
-0.966542
-0.966869
-0.967156
-0.967405
-0.967626
-0.967827
-0.968011
-0.96818
-0.968338
-0.968486
-0.968627
-0.968761
-0.968892
-0.969019
-0.969143
-0.969266
-0.969388
-0.96951
-0.969632
-0.969755
-0.969878
-0.970002
-0.970127
-0.970253
-0.97038
-0.970508
-0.970638
-0.970768
-0.9709
-0.971033
-0.971168
-0.971303
-0.971439
-0.971576
-2.63317
-2.61894
-2.60029
-3.04969
-5.02727
-7.26757
-0.999409
-0.966236
-0.953891
-0.984561
-0.986197
-0.986688
-0.986735
-0.986927
-0.98722
-0.987511
-0.98777
-0.988001
-0.988211
-0.988403
-0.98858
-0.988744
-0.988896
-0.98904
-0.989177
-0.989309
-0.989435
-0.989559
-0.98968
-0.9898
-0.989918
-0.990036
-0.990154
-0.990273
-0.990392
-0.990512
-0.990632
-0.990754
-0.990877
-0.991002
-0.991127
-0.991254
-0.991382
-0.991512
-0.991643
-0.991775
-0.991909
-0.992043
-0.992179
-0.992316
-2.04866
-2.04348
-2.08226
-2.48577
-3.60025
-3.65246
-1.00286
-1.00109
-1.00225
-1.00257
-1.00254
-1.00256
-1.00271
-1.00292
-1.00313
-1.00335
-1.00356
-1.00378
-1.00399
-1.00419
-1.00439
-1.00459
-1.00479
-1.00499
-1.00518
-1.00538
-1.00557
-1.00576
-1.00596
-1.00616
-1.00635
-1.00655
-1.00675
-1.00696
-1.00716
-1.00737
-1.00758
-1.00779
-1.008
-1.00822
-1.00843
-1.00865
-1.00887
-1.00909
-1.00931
-1.00953
-1.00975
-1.00997
-1.01019
-1.01041
-1.59775
-1.59608
-1.68437
-2.20421
-3.20385
-2.23201
-1.02721
-1.02328
-1.02419
-1.02426
-1.02432
-1.02439
-1.02449
-1.02461
-1.02474
-1.02488
-1.02502
-1.02517
-1.02532
-1.02547
-1.02562
-1.02578
-1.02593
-1.02609
-1.02626
-1.02642
-1.02659
-1.02676
-1.02694
-1.02711
-1.0273
-1.02748
-1.02767
-1.02787
-1.02806
-1.02826
-1.02847
-1.02867
-1.02888
-1.02909
-1.0293
-1.02952
-1.02974
-1.02996
-1.03018
-1.0304
-1.03063
-1.03085
-1.03108
-1.03131
-1.40532
-1.39759
-1.54371
-2.33678
-3.65344
-1.87685
-1.0371
-1.03319
-1.03423
-1.03436
-1.03444
-1.03457
-1.0348
-1.03507
-1.03538
-1.03571
-1.03606
-1.03643
-1.0368
-1.03718
-1.03754
-1.0379
-1.03825
-1.0386
-1.03896
-1.03932
-1.03969
-1.04007
-1.04046
-1.04086
-1.04127
-1.04168
-1.04211
-1.04254
-1.04297
-1.0434
-1.04384
-1.04428
-1.04472
-1.04516
-1.04559
-1.04602
-1.04645
-1.04687
-1.04729
-1.0477
-1.04811
-1.04852
-1.04891
-1.04931
-3.25851
-3.27624
-3.9882
-7.00972
-10.7926
-1.13102
-1.08045
-1.06256
-1.06211
-1.06001
-1.06062
-1.06109
-1.06169
-1.06227
-1.06275
-1.06314
-1.06347
-1.06376
-1.064
-1.06416
-1.06424
-1.06423
-1.06418
-1.0641
-1.06402
-1.06394
-1.06387
-1.06383
-1.0638
-1.06382
-1.06388
-1.064
-1.06416
-1.06437
-1.06462
-1.06489
-1.06521
-1.06554
-1.06591
-1.06629
-1.06668
-1.06709
-1.06751
-1.06793
-1.06836
-1.06878
-1.06921
-1.06963
-1.07004
-1.07046
-7.16869
-6.84268
-7.21247
-10.5403
-16.1966
-2.9227
-2.47686
-1.48572
-1.37595
-1.11344
-1.06608
-1.05133
-1.05327
-1.05465
-1.05519
-1.05572
-1.05648
-1.05741
-1.05853
-1.05986
-1.06139
-1.06314
-1.06493
-1.06629
-1.06747
-1.06868
-1.06991
-1.07111
-1.07227
-1.07341
-1.07453
-1.07566
-1.0768
-1.07796
-1.07913
-1.08033
-1.08153
-1.08274
-1.08395
-1.08512
-1.08622
-1.08723
-1.08814
-1.08896
-1.08971
-1.09041
-1.09106
-1.09168
-1.09227
-1.09283
-9.85503
-9.49763
-9.12857
-8.87667
-9.01014
-9.43634
-8.05435
-14.0511
-15.1745
-6.83713
-3.25112
-1.08299
-1.01931
-1.05912
-1.10328
-1.13458
-1.158
-1.17807
-1.19295
-1.1984
-1.17742
-1.12712
-1.09582
-1.09682
-1.0994
-1.09637
-1.09214
-1.08739
-1.08332
-1.08182
-1.08442
-1.09001
-1.09475
-1.09716
-1.09836
-1.09931
-1.10033
-1.10156
-1.10297
-1.10442
-1.10558
-1.10663
-1.10778
-1.1089
-1.10996
-1.11094
-1.11189
-1.1128
-1.11366
-1.11444
1.01823
1.15997
1.35449
1.57827
1.80049
1.92211
1.98018
1.50108
0.937274
1.65447
3.71196
3.32381
-8.49374
-8.33575
-7.25383
-5.94307
-5.32007
-3.56688
-3.27623
-4.66406
-6.30943
-6.12882
-2.93076
-1.58304
-1.08089
-1.01164
-1.04472
-1.08678
-1.09621
-1.09304
-1.10551
-1.12816
-1.14575
-1.14502
-1.13511
-1.13455
-1.14704
-1.16509
-1.18105
-1.18972
-1.18379
-1.15849
-1.14097
-1.14084
-1.14406
-1.14536
-1.14597
-1.14712
-1.14808
-1.14767
-0.925006
-0.909471
-0.902323
-0.893858
-0.886089
-0.875607
-0.865524
-0.828399
-0.760475
-0.649664
-0.551239
-0.457226
-0.460928
-0.470991
-0.436252
-0.322618
-0.126965
0.174389
0.519755
0.909215
1.55242
2.62367
3.54243
-2.80798
-8.05791
-7.02755
-5.26375
-4.03711
-4.45775
-6.677
-7.4994
-3.40659
-1.62425
-0.54791
-0.451661
-0.596213
-0.947943
-1.23749
-1.31833
-0.972705
-1.15225
-0.971831
-1.19205
-1.16516
-1.15713
-1.16732
-1.18099
-1.18555
-1.18158
-1.1802
5.52516
5.48064
5.44228
5.41324
5.39095
5.3732
5.36022
5.35212
5.34974
5.35199
5.35825
5.36717
5.38565
5.41882
5.47844
5.57144
5.69653
5.85266
6.04176
6.27472
6.55556
6.87359
7.19492
7.51806
7.79961
8.12081
8.518
9.01857
9.62918
10.343
10.7531
7.43748
2.133
-2.11983
-2.27198
-1.97839
0.0571488
2.48188
2.21036
4.94992
7.96849
-1.06555
5.86299
-0.665091
-1.21005
-1.31201
-1.15791
-0.972909
-1.07027
-1.03884
4.45651
4.41288
4.36208
4.31629
4.27678
4.24265
4.2132
4.18829
4.16791
4.15182
4.1399
4.13196
4.12798
4.12827
4.13246
4.14082
4.15337
4.16958
4.18928
4.21159
4.23608
4.26087
4.28631
4.31412
4.3498
4.39772
4.46604
4.55544
4.66665
4.78004
4.88056
4.96455
5.05944
5.17788
5.35994
5.26748
0.205442
-3.02708
-6.52877
0.0986151
-0.133626
1.43907
1.19036
5.76926
3.836
2.40059
-1.75985
-1.58635
-1.35193
-1.2713
6.92171
6.88113
6.84068
6.80537
6.77391
6.74525
6.71917
6.69568
6.67484
6.65661
6.64098
6.62793
6.61743
6.6096
6.60406
6.6009
6.60005
6.60127
6.60429
6.60901
6.61489
6.62167
6.62883
6.63586
6.6424
6.64797
6.65206
6.6539
6.65257
6.64662
6.63564
6.62163
6.6092
6.59446
6.55599
6.49401
6.39064
6.28617
6.16361
5.88768
1.89266
-4.73222
-9.80015
-9.35737
-2.81601
-0.829716
-0.362437
-1.02886
-1.29346
-1.32556
6.11622
6.07973
6.03905
6.00277
5.97141
5.94417
5.92067
5.90092
5.88489
5.87262
5.86407
5.85927
5.85818
5.86085
5.8672
5.87732
5.89111
5.90871
5.93004
5.95513
5.98399
6.01671
6.05315
6.09365
6.13793
6.18641
6.23874
6.29542
6.35596
6.42104
6.48995
6.56375
6.64148
6.72457
6.81168
6.9062
7.03817
7.12635
7.2398
7.32333
7.38154
7.40018
7.66138
8.22696
5.48492
-1.35335
-5.33052
-3.99956
-1.54244
-0.438161
-0.853158
-0.853176
-0.853195
-0.853215
-0.853235
-0.853257
-0.853279
-0.853302
-0.853326
-0.853351
-0.853377
-0.853404
-0.853431
-0.853459
-0.853488
-0.853518
-0.853549
-0.85358
-0.853612
-0.853644
-0.853678
-0.853712
-0.853747
-0.853782
-0.853818
-0.853854
-0.853891
-0.853929
-0.853967
-0.854006
-0.854045
-0.854085
-0.854126
-0.854166
-0.854208
-0.854249
-0.854291
-0.854334
-0.854377
-0.85442
-0.854464
-0.854508
-0.854552
-0.854597
-0.854642
-0.854687
-0.854733
-0.854779
-0.854825
-0.854871
-0.873032
-0.873069
-0.873106
-0.873144
-0.873183
-0.873223
-0.873263
-0.873305
-0.873347
-0.873389
-0.873433
-0.873477
-0.873521
-0.873567
-0.873613
-0.873659
-0.873706
-0.873754
-0.873802
-0.87385
-0.873899
-0.873949
-0.873998
-0.874049
-0.8741
-0.874151
-0.874202
-0.874254
-0.874306
-0.874359
-0.874412
-0.874465
-0.874519
-0.874573
-0.874627
-0.874682
-0.874736
-0.874791
-0.874847
-0.874902
-0.874958
-0.875014
-0.87507
-0.875126
-0.875183
-0.875239
-0.875296
-0.875353
-0.87541
-0.875467
-0.893285
-0.893316
-0.893349
-0.893384
-0.893421
-0.89346
-0.8935
-0.893542
-0.893586
-0.893632
-0.893678
-0.893726
-0.893776
-0.893826
-0.893878
-0.89393
-0.893984
-0.894038
-0.894093
-0.89415
-0.894207
-0.894264
-0.894323
-0.894382
-0.894441
-0.894502
-0.894562
-0.894624
-0.894686
-0.894748
-0.89481
-0.894874
-0.894937
-0.895001
-0.895065
-0.895129
-0.895194
-0.895259
-0.895325
-0.89539
-0.895456
-0.895522
-0.895588
-0.895654
-0.895721
-0.895788
-0.895854
-0.895921
-0.895988
-0.896055
-0.912941
-0.913021
-0.9131
-0.913178
-0.913256
-0.913334
-0.913411
-0.913487
-0.913564
-0.91364
-0.913716
-0.913792
-0.913868
-0.913944
-0.914019
-0.914095
-0.914171
-0.914246
-0.914322
-0.914398
-0.914474
-0.91455
-0.914626
-0.914702
-0.914779
-0.914855
-0.914931
-0.915008
-0.915085
-0.915162
-0.915239
-0.915316
-0.915393
-0.91547
-0.915547
-0.915625
-0.915702
-0.91578
-0.915858
-0.915936
-0.916013
-0.916091
-0.916169
-0.916247
-0.916325
-0.916403
-0.916481
-0.916559
-0.916637
-0.916715
-0.932315
-0.932417
-0.932519
-0.932621
-0.932723
-0.932824
-0.932925
-0.933027
-0.933128
-0.933229
-0.93333
-0.933431
-0.933532
-0.933633
-0.933733
-0.933834
-0.933935
-0.934035
-0.934136
-0.934236
-0.934336
-0.934437
-0.934537
-0.934637
-0.934737
-0.934836
-0.934936
-0.935036
-0.935135
-0.935234
-0.935333
-0.935432
-0.935531
-0.935629
-0.935727
-0.935826
-0.935923
-0.936021
-0.936119
-0.936216
-0.936313
-0.93641
-0.936506
-0.936603
-0.936699
-0.936795
-0.93689
-0.936985
-0.93708
-0.937174
-0.953
-0.953092
-0.953185
-0.953278
-0.953372
-0.953467
-0.953563
-0.953659
-0.953756
-0.953854
-0.953953
-0.954052
-0.954151
-0.954251
-0.954352
-0.954453
-0.954554
-0.954656
-0.954758
-0.954861
-0.954964
-0.955067
-0.955171
-0.955275
-0.955379
-0.955483
-0.955588
-0.955692
-0.955797
-0.955902
-0.956007
-0.956112
-0.956217
-0.956322
-0.956428
-0.956533
-0.956638
-0.956743
-0.956849
-0.956954
-0.957059
-0.957164
-0.957269
-0.957373
-0.957478
-0.957583
-0.957687
-0.957791
-0.957894
-0.957998
-0.971714
-0.971852
-0.971992
-0.972132
-0.972272
-0.972413
-0.972554
-0.972696
-0.972838
-0.972981
-0.973123
-0.973266
-0.973408
-0.973551
-0.973694
-0.973836
-0.973979
-0.974121
-0.974263
-0.974405
-0.974547
-0.974688
-0.974829
-0.97497
-0.97511
-0.97525
-0.97539
-0.975529
-0.975667
-0.975805
-0.975943
-0.97608
-0.976216
-0.976352
-0.976487
-0.976622
-0.976756
-0.976889
-0.977022
-0.977154
-0.977286
-0.977417
-0.977547
-0.977677
-0.977806
-0.977934
-0.978062
-0.978189
-0.978314
-0.978439
-0.992454
-0.992593
-0.992733
-0.992874
-0.993016
-0.993158
-0.993301
-0.993445
-0.99359
-0.993735
-0.99388
-0.994026
-0.994172
-0.994319
-0.994465
-0.994612
-0.99476
-0.994907
-0.995054
-0.995202
-0.995349
-0.995496
-0.995644
-0.995791
-0.995938
-0.996084
-0.996231
-0.996377
-0.996523
-0.996669
-0.996814
-0.996959
-0.997103
-0.997247
-0.997391
-0.997534
-0.997677
-0.997819
-0.997961
-0.998102
-0.998243
-0.998383
-0.998522
-0.998661
-0.998799
-0.998937
-0.999074
-0.99921
-0.999345
-0.99948
-1.01063
-1.01085
-1.01107
-1.0113
-1.01152
-1.01173
-1.01195
-1.01217
-1.01239
-1.0126
-1.01282
-1.01303
-1.01325
-1.01346
-1.01367
-1.01388
-1.01408
-1.01429
-1.0145
-1.0147
-1.0149
-1.0151
-1.0153
-1.0155
-1.01569
-1.01589
-1.01608
-1.01627
-1.01646
-1.01665
-1.01684
-1.01702
-1.0172
-1.01739
-1.01757
-1.01774
-1.01792
-1.0181
-1.01827
-1.01845
-1.01862
-1.01879
-1.01896
-1.01912
-1.01929
-1.01945
-1.01962
-1.01978
-1.01994
-1.0201
-1.03154
-1.03176
-1.03199
-1.03222
-1.03245
-1.03268
-1.03291
-1.03313
-1.03336
-1.03359
-1.03381
-1.03404
-1.03426
-1.03448
-1.0347
-1.03492
-1.03514
-1.03536
-1.03557
-1.03579
-1.036
-1.03621
-1.03642
-1.03663
-1.03684
-1.03704
-1.03725
-1.03745
-1.03765
-1.03785
-1.03805
-1.03824
-1.03844
-1.03863
-1.03882
-1.03901
-1.0392
-1.03938
-1.03957
-1.03975
-1.03993
-1.04011
-1.04029
-1.04047
-1.04065
-1.04082
-1.04099
-1.04116
-1.04133
-1.0415
-1.04969
-1.05007
-1.05045
-1.05081
-1.05117
-1.05153
-1.05188
-1.05222
-1.05256
-1.05289
-1.05321
-1.05353
-1.05384
-1.05415
-1.05445
-1.05475
-1.05504
-1.05533
-1.05561
-1.05588
-1.05616
-1.05642
-1.05669
-1.05694
-1.0572
-1.05745
-1.0577
-1.05794
-1.05818
-1.05842
-1.05865
-1.05888
-1.05911
-1.05934
-1.05956
-1.05978
-1.05999
-1.06021
-1.06042
-1.06063
-1.06083
-1.06104
-1.06124
-1.06144
-1.06163
-1.06183
-1.06202
-1.06222
-1.0624
-1.06259
-1.07087
-1.07127
-1.07167
-1.07206
-1.07245
-1.07283
-1.0732
-1.07357
-1.07393
-1.07428
-1.07463
-1.07497
-1.07531
-1.07564
-1.07596
-1.07628
-1.07659
-1.0769
-1.0772
-1.07749
-1.07778
-1.07807
-1.07835
-1.07863
-1.0789
-1.07917
-1.07943
-1.07969
-1.07995
-1.0802
-1.08044
-1.08069
-1.08093
-1.08117
-1.0814
-1.08163
-1.08186
-1.08208
-1.08231
-1.08252
-1.08274
-1.08295
-1.08316
-1.08337
-1.08358
-1.08378
-1.08398
-1.08418
-1.08438
-1.08457
-1.09336
-1.09388
-1.09437
-1.09483
-1.09527
-1.09568
-1.09607
-1.09645
-1.09681
-1.09715
-1.09748
-1.09779
-1.09809
-1.09838
-1.09866
-1.09894
-1.0992
-1.09946
-1.09972
-1.09997
-1.10021
-1.10046
-1.10069
-1.10093
-1.10116
-1.10139
-1.10161
-1.10184
-1.10206
-1.10228
-1.10249
-1.10271
-1.10292
-1.10313
-1.10334
-1.10355
-1.10376
-1.10397
-1.10417
-1.10438
-1.10458
-1.10478
-1.10498
-1.10518
-1.10538
-1.10558
-1.10578
-1.10597
-1.10617
-1.10636
-1.11517
-1.11586
-1.1165
-1.11708
-1.1176
-1.11807
-1.11848
-1.11885
-1.11918
-1.1195
-1.11981
-1.12012
-1.12042
-1.12071
-1.12099
-1.12127
-1.12154
-1.12181
-1.12207
-1.12233
-1.12258
-1.12283
-1.12308
-1.12332
-1.12357
-1.12381
-1.12405
-1.12429
-1.12453
-1.12476
-1.125
-1.12523
-1.12546
-1.12569
-1.12592
-1.12614
-1.12636
-1.12659
-1.1268
-1.12702
-1.12724
-1.12745
-1.12766
-1.12787
-1.12808
-1.12829
-1.12849
-1.1287
-1.12888
-1.12909
-1.14838
-1.1497
-1.14098
-1.14492
-1.14643
-1.14665
-1.14687
-1.14722
-1.14749
-1.14757
-1.14744
-1.14739
-1.14733
-1.14729
-1.14731
-1.1473
-1.14725
-1.14727
-1.1473
-1.14732
-1.14734
-1.14738
-1.14744
-1.14751
-1.14758
-1.14766
-1.14774
-1.14783
-1.14792
-1.14801
-1.14811
-1.14822
-1.14833
-1.14845
-1.14858
-1.14872
-1.14886
-1.14901
-1.14916
-1.14932
-1.14948
-1.14964
-1.14981
-1.14998
-1.15016
-1.15034
-1.15052
-1.1507
-1.15089
-1.15108
-1.18006
-1.1724
-1.18113
-1.18184
-1.18252
-1.18172
-1.17989
-1.17819
-1.17702
-1.17483
-1.17366
-1.17328
-1.17316
-1.1728
-1.17254
-1.17231
-1.17214
-1.17202
-1.17192
-1.16959
-1.16962
-1.16975
-1.16982
-1.1699
-1.17
-1.17013
-1.17028
-1.17042
-1.17059
-1.1708
-1.17103
-1.17128
-1.17148
-1.17168
-1.17188
-1.17209
-1.1723
-1.17251
-1.17271
-1.17292
-1.17313
-1.17334
-1.17355
-1.17376
-1.17397
-1.17418
-1.17438
-1.17459
-1.17479
-1.17499
-1.24235
-1.24859
-1.25084
-1.23854
-1.24329
-1.2546
-1.24717
-1.2078
-1.01995
-1.06493
-1.12753
-1.15815
-1.16773
-1.17115
-1.1732
-1.17527
-1.17729
-1.17911
-1.18075
-1.18228
-1.18275
-1.18452
-1.18569
-1.18663
-1.18799
-1.18888
-1.18683
-1.18771
-1.18827
-1.18801
-1.1885
-1.18895
-1.18945
-1.18998
-1.19051
-1.19103
-1.19152
-1.19201
-1.19228
-1.19301
-1.1934
-1.19376
-1.19409
-1.19441
-1.19469
-1.19499
-1.19526
-1.19558
-1.19585
-1.19611
-1.24694
-1.23741
-1.23224
-1.22969
-1.22532
-1.22005
-1.21667
-1.21586
-1.21183
-1.20995
-1.2137
-1.22232
-1.22369
-1.22418
-1.22403
-1.22346
-1.22286
-1.2224
-1.22207
-1.22182
-1.22166
-1.22158
-1.22146
-1.22143
-1.22145
-1.22153
-1.22162
-1.22142
-1.2208
-1.21958
-1.21911
-1.22044
-1.22185
-1.22219
-1.22213
-1.22217
-1.22226
-1.22237
-1.22232
-1.22209
-1.22213
-1.22252
-1.22272
-1.2228
-1.2229
-1.22299
-1.22308
-1.22307
-1.22322
-1.22331
-1.29367
-1.25303
-1.2305
-1.23199
-1.24372
-1.25253
-1.25293
-1.2523
-1.26138
-1.26607
-1.22109
-1.24369
-1.24657
-1.24749
-1.2476
-1.24731
-1.2471
-1.24565
-1.24632
-1.24608
-1.24555
-1.24502
-1.24526
-1.2459
-1.24628
-1.24462
-1.25012
-1.23085
-1.24334
-1.24355
-1.24383
-1.24411
-1.24402
-1.24352
-1.24349
-1.2435
-1.24378
-1.24392
-1.2426
-1.23718
-1.243
-1.24471
-1.24556
-1.24591
-1.24614
-1.24638
-1.24661
-1.24672
-1.247
-1.24716
-0.627569
-1.01788
-1.12219
-1.15237
-1.19483
-1.23305
-1.24808
-1.25419
-1.26081
-1.26585
-1.26183
-1.26194
-1.26609
-1.26647
-1.26167
-1.2621
-1.26289
-1.26336
-1.26359
-1.26376
-1.26381
-1.26406
-1.26447
-1.26475
-1.26488
-1.26491
-1.26469
-1.26349
-1.26226
-1.26285
-1.27782
-1.2767
-1.27561
-1.27534
-1.27571
-1.27692
-1.2779
-1.27821
-1.27854
-1.27933
-1.28034
-1.28131
-1.28167
-1.28207
-1.2826
-1.28323
-1.28398
-1.28464
-1.28576
-1.28678
-0.854906
-0.85493
-0.854955
-0.85498
-0.855004
-0.855029
-0.855055
-0.85508
-0.855106
-0.855132
-0.855158
-0.855184
-0.85521
-0.855237
-0.855264
-0.855291
-0.855319
-0.855346
-0.855374
-0.855402
-0.85543
-0.855459
-0.855487
-0.855516
-0.855545
-0.855575
-0.855604
-0.855634
-0.855664
-0.855694
-0.855724
-0.855755
-0.855786
-0.855817
-0.855848
-0.855879
-0.855911
-0.855943
-0.855975
-0.856007
-0.856039
-0.856072
-0.856105
-0.856138
-0.856171
-0.856205
-0.856238
-0.856272
-0.856306
-0.85634
-0.856375
-0.856409
-0.856444
-0.856479
-0.856515
-0.85655
-0.856586
-0.856622
-0.856658
-0.856694
-0.85673
-0.856767
-0.856803
-0.85684
-0.856878
-0.856915
-0.856952
-0.85699
-0.857028
-0.857066
-0.857104
-0.857142
-0.857181
-0.85722
-0.857259
-0.857298
-0.857337
-0.857376
-0.857416
-0.857455
-0.857495
-0.857535
-0.857576
-0.857616
-0.857656
-0.857697
-0.857738
-0.857779
-0.85782
-0.857861
-0.857902
-0.857944
-0.857985
-0.858027
-0.858069
-0.858111
-0.858153
-0.858195
-0.858238
-0.85828
-0.858323
-0.858365
-0.858408
-0.858451
-0.858494
-0.858537
-0.85858
-0.858624
-0.858667
-0.858711
-0.858754
-0.858798
-0.858841
-0.858885
-0.858929
-0.858973
-0.859017
-0.859061
-0.859105
-0.859149
-0.859194
-0.859238
-0.859282
-0.859327
-0.859371
-0.859416
-0.85946
-0.859505
-0.859549
-0.859594
-0.859638
-0.859683
-0.859728
-0.859772
-0.859817
-0.859861
-0.859906
-0.859951
-0.859995
-0.86004
-0.860085
-0.860129
-0.860174
-0.860218
-0.860263
-0.860308
-0.860352
-0.860397
-0.860441
-0.860485
-0.86053
-0.860574
-0.860618
-0.860663
-0.860707
-0.860751
-0.860795
-0.860839
-0.860883
-0.860927
-0.860971
-0.861015
-0.861059
-0.861102
-0.861146
-0.861189
-0.861233
-0.861276
-0.86132
-0.861363
-0.861406
-0.861449
-0.861492
-0.861535
-0.861578
-0.861621
-0.861664
-0.861707
-0.861749
-0.861792
-0.861834
-0.861877
-0.861919
-0.861961
-0.862004
-0.862046
-0.862088
-0.86213
-0.862172
-0.862213
-0.862255
-0.862297
-0.862338
-0.86238
-0.862421
-0.862463
-0.862504
-0.862545
-0.862586
-0.862628
-0.862669
-0.862709
-0.86275
-0.862791
-0.862832
-0.862873
-0.862913
-0.862954
-0.862994
-0.863034
-0.863075
-0.863115
-0.863155
-0.863195
-0.863235
-0.863275
-0.863315
-0.863354
-0.863394
-0.863433
-0.863473
-0.863512
-0.863552
-0.863591
-0.86363
-0.863669
-0.863708
-0.863746
-0.863785
-0.863823
-0.863862
-0.8639
-0.863938
-0.863976
-0.864014
-0.864052
-0.864089
-0.864127
-0.864164
-0.864201
-0.864238
-0.864274
-0.864311
-0.864347
-0.864383
-0.864419
-0.864455
-0.864491
-0.864526
-0.864561
-0.864596
-0.86463
-0.864664
-0.864698
-0.864732
-0.864765
-0.864798
-0.864831
-0.864864
-0.864896
-0.864928
-0.864959
-0.86499
-0.865021
-0.865051
-0.865081
-0.865111
-0.86514
-0.865168
-0.865197
-0.865225
-0.865252
-0.865279
-0.865305
-0.865331
-0.865356
-0.865381
-0.865405
-0.865429
-0.865452
-0.865475
-0.865497
-0.865518
-0.865539
-0.865559
-0.865578
-0.865597
-0.865614
-0.865632
-0.865648
-0.865664
-0.865679
-0.865693
-0.865706
-0.865719
-0.865731
-0.865741
-0.865751
-0.86576
-0.865768
-0.87551
-0.87554
-0.875571
-0.875601
-0.875632
-0.875663
-0.875694
-0.875725
-0.875756
-0.875788
-0.87582
-0.875852
-0.875884
-0.875917
-0.87595
-0.875982
-0.876016
-0.876049
-0.876082
-0.876116
-0.87615
-0.876184
-0.876219
-0.876253
-0.876288
-0.876323
-0.876358
-0.876393
-0.876429
-0.876465
-0.876501
-0.876537
-0.876573
-0.87661
-0.876647
-0.876684
-0.876721
-0.876758
-0.876796
-0.876834
-0.876872
-0.87691
-0.876948
-0.876987
-0.877026
-0.877065
-0.877104
-0.877143
-0.877183
-0.877222
-0.877262
-0.877302
-0.877343
-0.877383
-0.877424
-0.877465
-0.877506
-0.877547
-0.877588
-0.87763
-0.877672
-0.877714
-0.877756
-0.877798
-0.877841
-0.877883
-0.877926
-0.877969
-0.878012
-0.878055
-0.878099
-0.878143
-0.878186
-0.87823
-0.878274
-0.878319
-0.878363
-0.878408
-0.878452
-0.878497
-0.878542
-0.878587
-0.878632
-0.878678
-0.878723
-0.878769
-0.878815
-0.878861
-0.878907
-0.878953
-0.878999
-0.879046
-0.879092
-0.879139
-0.879186
-0.879233
-0.87928
-0.879327
-0.879374
-0.879421
-0.879468
-0.879516
-0.879563
-0.879611
-0.879658
-0.879706
-0.879754
-0.879802
-0.87985
-0.879898
-0.879946
-0.879994
-0.880042
-0.88009
-0.880138
-0.880187
-0.880235
-0.880283
-0.880331
-0.88038
-0.880428
-0.880477
-0.880525
-0.880573
-0.880622
-0.88067
-0.880719
-0.880767
-0.880815
-0.880864
-0.880912
-0.88096
-0.881008
-0.881057
-0.881105
-0.881153
-0.881201
-0.881249
-0.881297
-0.881345
-0.881393
-0.881441
-0.881489
-0.881536
-0.881584
-0.881631
-0.881679
-0.881726
-0.881774
-0.881821
-0.881868
-0.881915
-0.881962
-0.882009
-0.882056
-0.882103
-0.882149
-0.882196
-0.882242
-0.882288
-0.882335
-0.882381
-0.882427
-0.882473
-0.882519
-0.882564
-0.88261
-0.882655
-0.882701
-0.882746
-0.882791
-0.882836
-0.882881
-0.882926
-0.882971
-0.883016
-0.88306
-0.883105
-0.883149
-0.883193
-0.883237
-0.883281
-0.883325
-0.883369
-0.883413
-0.883457
-0.8835
-0.883544
-0.883587
-0.88363
-0.883674
-0.883717
-0.88376
-0.883803
-0.883846
-0.883889
-0.883931
-0.883974
-0.884017
-0.884059
-0.884102
-0.884144
-0.884186
-0.884229
-0.884271
-0.884313
-0.884355
-0.884397
-0.884439
-0.884481
-0.884522
-0.884564
-0.884606
-0.884647
-0.884689
-0.88473
-0.884772
-0.884813
-0.884854
-0.884895
-0.884937
-0.884978
-0.885018
-0.885059
-0.8851
-0.885141
-0.885181
-0.885222
-0.885262
-0.885302
-0.885343
-0.885383
-0.885423
-0.885462
-0.885502
-0.885542
-0.885581
-0.88562
-0.88566
-0.885699
-0.885737
-0.885776
-0.885814
-0.885853
-0.885891
-0.885929
-0.885966
-0.886004
-0.886041
-0.886078
-0.886115
-0.886151
-0.886187
-0.886223
-0.886259
-0.886294
-0.88633
-0.886364
-0.886399
-0.886433
-0.886467
-0.8865
-0.886533
-0.886566
-0.886598
-0.88663
-0.886661
-0.886692
-0.886723
-0.886753
-0.886783
-0.886812
-0.886841
-0.886869
-0.886897
-0.886924
-0.88695
-0.886976
-0.887002
-0.887027
-0.887051
-0.887074
-0.887097
-0.88712
-0.887141
-0.887162
-0.887183
-0.887202
-0.887221
-0.887239
-0.887256
-0.887273
-0.887288
-0.887303
-0.887317
-0.88733
-0.887342
-0.887353
-0.887363
-0.887372
-0.896105
-0.89614
-0.896176
-0.896212
-0.896247
-0.896283
-0.89632
-0.896356
-0.896393
-0.89643
-0.896467
-0.896505
-0.896542
-0.89658
-0.896618
-0.896657
-0.896695
-0.896734
-0.896773
-0.896812
-0.896852
-0.896891
-0.896931
-0.896971
-0.897012
-0.897052
-0.897093
-0.897134
-0.897175
-0.897217
-0.897258
-0.8973
-0.897342
-0.897384
-0.897427
-0.89747
-0.897512
-0.897555
-0.897599
-0.897642
-0.897686
-0.89773
-0.897774
-0.897818
-0.897863
-0.897908
-0.897953
-0.897998
-0.898043
-0.898088
-0.898134
-0.89818
-0.898226
-0.898272
-0.898319
-0.898365
-0.898412
-0.898459
-0.898506
-0.898554
-0.898601
-0.898649
-0.898697
-0.898745
-0.898793
-0.898842
-0.89889
-0.898939
-0.898988
-0.899037
-0.899086
-0.899135
-0.899185
-0.899235
-0.899284
-0.899334
-0.899385
-0.899435
-0.899485
-0.899536
-0.899586
-0.899637
-0.899688
-0.899739
-0.89979
-0.899842
-0.899893
-0.899945
-0.899996
-0.900048
-0.9001
-0.900152
-0.900204
-0.900256
-0.900308
-0.900361
-0.900413
-0.900466
-0.900518
-0.900571
-0.900623
-0.900676
-0.900729
-0.900782
-0.900835
-0.900888
-0.900941
-0.900994
-0.901047
-0.9011
-0.901153
-0.901206
-0.90126
-0.901313
-0.901366
-0.901419
-0.901472
-0.901525
-0.901579
-0.901632
-0.901685
-0.901738
-0.901791
-0.901844
-0.901897
-0.90195
-0.902002
-0.902055
-0.902108
-0.90216
-0.902213
-0.902265
-0.902318
-0.90237
-0.902422
-0.902474
-0.902526
-0.902578
-0.90263
-0.902681
-0.902733
-0.902784
-0.902836
-0.902887
-0.902938
-0.902988
-0.903039
-0.90309
-0.90314
-0.903191
-0.903241
-0.903291
-0.903341
-0.90339
-0.90344
-0.903489
-0.903538
-0.903587
-0.903636
-0.903685
-0.903734
-0.903782
-0.90383
-0.903879
-0.903926
-0.903974
-0.904022
-0.904069
-0.904117
-0.904164
-0.904211
-0.904257
-0.904304
-0.904351
-0.904397
-0.904443
-0.904489
-0.904535
-0.904581
-0.904627
-0.904672
-0.904717
-0.904763
-0.904808
-0.904853
-0.904898
-0.904942
-0.904987
-0.905032
-0.905076
-0.90512
-0.905165
-0.905209
-0.905253
-0.905297
-0.905341
-0.905385
-0.905428
-0.905472
-0.905516
-0.905559
-0.905603
-0.905646
-0.90569
-0.905733
-0.905776
-0.905819
-0.905862
-0.905906
-0.905949
-0.905992
-0.906035
-0.906077
-0.90612
-0.906163
-0.906206
-0.906249
-0.906291
-0.906334
-0.906377
-0.906419
-0.906462
-0.906504
-0.906547
-0.906589
-0.906631
-0.906673
-0.906716
-0.906758
-0.9068
-0.906842
-0.906883
-0.906925
-0.906967
-0.907008
-0.90705
-0.907091
-0.907132
-0.907173
-0.907214
-0.907255
-0.907295
-0.907336
-0.907376
-0.907416
-0.907456
-0.907496
-0.907535
-0.907574
-0.907613
-0.907652
-0.907691
-0.907729
-0.907767
-0.907805
-0.907842
-0.907879
-0.907916
-0.907953
-0.907989
-0.908025
-0.90806
-0.908095
-0.90813
-0.908164
-0.908198
-0.908231
-0.908264
-0.908297
-0.908329
-0.908361
-0.908392
-0.908423
-0.908453
-0.908482
-0.908511
-0.90854
-0.908568
-0.908595
-0.908622
-0.908648
-0.908673
-0.908698
-0.908722
-0.908746
-0.908768
-0.90879
-0.908811
-0.908832
-0.908852
-0.90887
-0.908888
-0.908906
-0.908922
-0.908937
-0.908952
-0.908965
-0.908978
-0.90899
-0.909
-0.916774
-0.916815
-0.916857
-0.916899
-0.916941
-0.916983
-0.917025
-0.917068
-0.91711
-0.917153
-0.917196
-0.91724
-0.917283
-0.917327
-0.917371
-0.917415
-0.91746
-0.917505
-0.91755
-0.917595
-0.91764
-0.917686
-0.917731
-0.917777
-0.917824
-0.91787
-0.917917
-0.917963
-0.91801
-0.918058
-0.918105
-0.918153
-0.918201
-0.918249
-0.918297
-0.918346
-0.918394
-0.918443
-0.918493
-0.918542
-0.918591
-0.918641
-0.918691
-0.918741
-0.918792
-0.918842
-0.918893
-0.918944
-0.918995
-0.919046
-0.919098
-0.91915
-0.919201
-0.919254
-0.919306
-0.919358
-0.919411
-0.919464
-0.919517
-0.91957
-0.919623
-0.919677
-0.91973
-0.919784
-0.919838
-0.919892
-0.919947
-0.920001
-0.920056
-0.920111
-0.920166
-0.920221
-0.920276
-0.920332
-0.920387
-0.920443
-0.920499
-0.920555
-0.920611
-0.920667
-0.920724
-0.92078
-0.920837
-0.920893
-0.92095
-0.921007
-0.921064
-0.921122
-0.921179
-0.921236
-0.921294
-0.921351
-0.921409
-0.921466
-0.921524
-0.921582
-0.92164
-0.921698
-0.921756
-0.921814
-0.921872
-0.92193
-0.921989
-0.922047
-0.922105
-0.922163
-0.922222
-0.92228
-0.922338
-0.922396
-0.922455
-0.922513
-0.922571
-0.922629
-0.922687
-0.922745
-0.922803
-0.922861
-0.922919
-0.922977
-0.923034
-0.923092
-0.923149
-0.923207
-0.923264
-0.923321
-0.923378
-0.923435
-0.923492
-0.923548
-0.923605
-0.923661
-0.923717
-0.923773
-0.923828
-0.923884
-0.923939
-0.923994
-0.924049
-0.924104
-0.924158
-0.924212
-0.924266
-0.92432
-0.924374
-0.924427
-0.92448
-0.924533
-0.924586
-0.924638
-0.92469
-0.924742
-0.924794
-0.924845
-0.924897
-0.924948
-0.924998
-0.925049
-0.925099
-0.925149
-0.925199
-0.925249
-0.925298
-0.925347
-0.925396
-0.925445
-0.925494
-0.925542
-0.92559
-0.925638
-0.925685
-0.925733
-0.92578
-0.925827
-0.925874
-0.92592
-0.925967
-0.926013
-0.926059
-0.926105
-0.926151
-0.926197
-0.926242
-0.926288
-0.926333
-0.926378
-0.926423
-0.926468
-0.926513
-0.926558
-0.926602
-0.926647
-0.926691
-0.926736
-0.92678