/*--------------------------------*- C++ -*----------------------------------*\
| =========                 |                                                 |
| \\      /  F ield         | OpenFOAM: The Open Source CFD Toolbox           |
|  \\    /   O peration     | Version:  2.4.0                                 |
|   \\  /    A nd           | Web:      www.OpenFOAM.org                      |
|    \\/     M anipulation  |                                                 |
\*---------------------------------------------------------------------------*/
FoamFile
{
    version     2.0;
    format      ascii;
    class       volScalarField;
    location    "2";
    object      p_rgh;
}
// * * * * * * * * * * * * * * * * * * * * * * * * * * * * * * * * * * * * * //

dimensions      [1 -1 -2 0 0 0 0];

internalField   nonuniform List<scalar> 
8000
(
54.8718
54.9111
54.9531
54.988
55.0155
55.0365
55.0514
55.0602
55.0627
55.0587
55.048
55.0299
55.0038
54.9721
54.9443
54.9362
54.9231
54.7024
53.4221
50.5307
35.1392
7.40765
0.143863
0.252573
0.0482643
0.053837
0.0533604
0.0529429
0.0528442
0.0528596
0.052874
0.0528772
0.0528766
0.052875
0.0528725
0.0528689
0.0528639
0.0528578
0.0528505
0.0528423
0.0528332
0.0528232
0.0528124
0.0528009
0.0527885
0.0527754
0.0527615
0.0527468
0.0527312
0.0527148
56.3478
56.3726
56.397
56.4199
56.4422
56.4649
56.4876
56.5105
56.533
56.5553
56.5771
56.6017
56.6395
56.7158
56.807
56.5875
54.6513
50.49
33.5733
3.43875
-0.0024596
0.258354
0.056778
0.0590009
0.0557575
0.0554195
0.0555353
0.0556196
0.0556384
0.0556371
0.0556335
0.0556289
0.0556222
0.0556133
0.055602
0.0555885
0.0555729
0.0555554
0.0555361
0.055515
0.0554922
0.0554678
0.055442
0.0554147
0.0553861
0.0553563
0.0553252
0.055293
0.0552596
0.0552253
60.7618
60.7389
60.7279
60.7334
60.7556
60.7916
60.8431
60.9079
60.9916
61.0983
61.2442
61.4103
61.458
60.3123
56.53
49.6006
26.3195
-0.411775
0.23422
0.0428201
0.0615034
0.0591788
0.0554311
0.0559753
0.0565379
0.056783
0.0568923
0.0569721
0.057046
0.0571138
0.0571743
0.0572277
0.0572746
0.0573155
0.0573506
0.0573802
0.0574044
0.0574235
0.0574376
0.0574471
0.0574521
0.0574529
0.0574497
0.0574427
0.0574321
0.0574181
0.0574009
0.0573807
0.0573576
0.0573319
59.7806
59.7932
59.8161
59.8517
59.9001
59.9613
60.0431
60.171
60.3616
60.4558
59.6745
56.1838
53.2426
36.2459
-0.0946432
-0.889351
0.38211
0.0624127
0.0723025
0.0646088
0.0636714
0.0635206
0.0634641
0.0633015
0.0630902
0.0628746
0.0626769
0.0624962
0.0623285
0.0621714
0.0620235
0.0618839
0.0617517
0.061626
0.0615062
0.0613914
0.0612812
0.061175
0.0610724
0.0609731
0.0608765
0.0607826
0.0606908
0.0606012
0.0605133
0.0604271
0.0603423
0.0602588
0.0601764
0.060095
57.3926
57.427
57.4596
57.4882
57.5225
57.6154
57.7644
57.6055
55.7189
50.8758
43.2082
3.93947
-1.04153
0.605309
0.0761623
0.0729244
0.0677862
0.0660019
0.0662755
0.0666322
0.0666161
0.0664909
0.0663365
0.0661825
0.0660364
0.065894
0.0657532
0.0656142
0.0654777
0.0653442
0.0652137
0.0650863
0.0649619
0.0648403
0.0647214
0.0646048
0.0644903
0.0643778
0.0642668
0.0641574
0.0640491
0.063942
0.0638358
0.0637304
0.0636257
0.0635216
0.063418
0.0633148
0.063212
0.0631094
54.7282
54.6536
54.5617
54.4977
54.4847
54.2693
52.8817
49.3588
23.3088
-0.209976
0.47459
0.0564222
0.07082
0.0721028
0.0660627
0.0657683
0.0657304
0.0659738
0.0661532
0.0662625
0.0663226
0.0663647
0.0663938
0.0664096
0.0664124
0.0664033
0.0663837
0.066355
0.0663186
0.0662755
0.0662266
0.0661726
0.0661144
0.0660524
0.0659872
0.0659191
0.0658486
0.0657757
0.0657009
0.0656242
0.0655458
0.0654658
0.0653844
0.0653016
0.0652175
0.0651322
0.0650456
0.064958
0.0648693
0.0647796
56.6833
56.5905
56.5232
56.4388
55.8764
53.9685
38.2901
-0.335631
0.729389
0.0800442
0.0973225
0.0763321
0.0747105
0.0741627
0.0741284
0.073854
0.07352
0.0731918
0.0729031
0.0726536
0.0724312
0.0722298
0.0720458
0.0718761
0.0717184
0.0715702
0.0714296
0.0712948
0.0711646
0.0710377
0.070913
0.07079
0.0706677
0.0705459
0.0704239
0.0703015
0.0701785
0.0700546
0.0699296
0.0698036
0.0696765
0.0695481
0.0694185
0.0692877
0.0691558
0.0690228
0.0688886
0.0687535
0.0686173
0.0684803
61.5083
61.5225
61.5411
61.0915
59.1128
41.7188
0.111064
0.125523
0.118673
0.0780115
0.0762758
0.0757531
0.0757041
0.0755129
0.0752165
0.0749223
0.0746606
0.0744267
0.0742149
0.0740217
0.0738442
0.07368
0.0735268
0.0733827
0.0732457
0.0731145
0.0729876
0.072864
0.0727429
0.0726233
0.0725048
0.0723867
0.0722686
0.0721502
0.0720313
0.0719115
0.0717907
0.0716688
0.0715458
0.0714215
0.0712958
0.0711689
0.0710406
0.0709109
0.07078
0.0706478
0.0705143
0.0703796
0.0702438
0.0701068
63.4431
63.4483
63.4095
63.0056
61.8792
17.2624
0.0820541
0.0838911
0.0826519
0.0822981
0.0822984
0.0822598
0.0820978
0.0818895
0.0816722
0.0814544
0.0812378
0.0810231
0.0808112
0.0806029
0.0803984
0.0801973
0.079999
0.0798029
0.0796081
0.0794142
0.0792203
0.079026
0.0788307
0.0786341
0.0784361
0.0782364
0.0780349
0.0778315
0.0776262
0.077419
0.07721
0.0769992
0.0767868
0.0765728
0.0763575
0.0761408
0.0759231
0.0757043
0.0754847
0.0752644
0.0750436
0.0748224
0.074601
0.0743794
65.2444
65.2461
65.1577
64.6375
63.6045
8.12776
0.0800709
0.0840104
0.0830635
0.082961
0.0829
0.0828092
0.0826954
0.0825688
0.0824341
0.082293
0.0821472
0.0819979
0.081846
0.0816924
0.0815374
0.0813811
0.0812232
0.0810633
0.080901
0.080736
0.0805677
0.080396
0.0802207
0.0800419
0.0798594
0.0796732
0.0794835
0.0792903
0.0790938
0.0788941
0.0786913
0.0784855
0.078277
0.0780658
0.0778521
0.0776361
0.0774181
0.0771981
0.0769764
0.0767531
0.0765286
0.0763029
0.0760763
0.075849
66.7872
66.7949
66.6486
65.8551
64.4717
4.89163
0.0926265
0.096466
0.0953871
0.0952492
0.0951533
0.0950135
0.0947763
0.0944935
0.0941819
0.0938439
0.0934841
0.0931108
0.0927329
0.0923578
0.0919899
0.0916301
0.0912762
0.0909234
0.0905675
0.0902053
0.0898348
0.0894548
0.0890649
0.0886654
0.0882569
0.0878403
0.0874169
0.0869879
0.0865548
0.0861187
0.0856809
0.0852424
0.0848044
0.0843678
0.0839336
0.0835024
0.0830749
0.0826515
0.0822328
0.0818189
0.0814103
0.0810071
0.0806095
0.0802177
66.2843
66.2666
65.5545
62.533
55.6089
0.101465
0.14223
0.0924453
0.0910946
0.091971
0.091315
0.0908382
0.0902379
0.0896506
0.0891623
0.0887658
0.0884291
0.0881366
0.0878974
0.0877328
0.0876568
0.0876595
0.0877141
0.0877935
0.0878742
0.0879493
0.0880156
0.0880653
0.0880872
0.0880701
0.0880058
0.087891
0.0877277
0.0875206
0.0872752
0.0869953
0.0866846
0.0863466
0.0859849
0.0856034
0.085206
0.0847968
0.0843796
0.0839577
0.0835334
0.0831087
0.082685
0.0822637
0.0818457
0.0814317
63.7245
64.0505
63.6805
60.3529
53.4844
1.43562
2.01917
-0.113453
-0.0169422
0.0663429
0.110486
0.122934
0.121003
0.119619
0.119074
0.118541
0.117778
0.116853
0.11573
0.114404
0.112865
0.111115
0.109328
0.107965
0.106792
0.105581
0.104346
0.103143
0.101983
0.100849
0.0997236
0.0985955
0.0974568
0.0962999
0.0951228
0.093931
0.0927263
0.0915132
0.0903078
0.0891369
0.0880338
0.0870258
0.0861185
0.0852995
0.0845485
0.0838509
0.0831972
0.0825792
0.0819915
0.0814301
62.3885
62.7459
63.1149
63.3667
63.2332
62.7468
64.3484
0.555171
-2.07016
-2.44157
-0.896641
0.328643
0.319938
0.139149
0.0936343
0.0622528
0.0387884
0.0186702
0.00375495
-0.00172091
0.0192342
0.0695299
0.102962
0.103314
0.100381
0.102861
0.106634
0.111086
0.114924
0.116164
0.113268
0.107344
0.102341
0.0997799
0.0984883
0.097477
0.0963853
0.0951091
0.0936857
0.0922228
0.0910613
0.0900038
0.0888522
0.0877239
0.0866705
0.0856819
0.0847341
0.0838211
0.0829693
0.0821828
74.6121
74.7538
74.9483
75.1721
75.3941
75.5159
75.5741
75.095
74.5316
75.2436
77.2436
76.9425
53.5012
44.0608
39.9112
34.5728
30.8047
27.8056
23.4333
16.1271
7.29266
1.20438
0.781106
1.24793
1.32535
1.13644
0.876621
0.610692
0.419099
0.299259
0.210403
0.148883
0.113608
0.102169
0.103682
0.0992187
0.0834679
0.0631011
0.0475083
0.0379332
0.0408148
0.0636868
0.0800966
0.0795827
0.0757676
0.0742651
0.0737909
0.0724412
0.0711271
0.0713504
74.0192
74.0348
74.0419
74.0503
74.0579
74.0685
74.0786
74.1158
74.1837
74.2946
74.393
74.487
74.4833
74.4732
74.5079
74.6216
74.8173
75.1186
75.465
75.8537
76.4956
77.5683
78.4517
70.2682
54.9976
46.5187
41.3536
37.056
30.6213
18.3827
5.55422
2.37731
2.64459
2.67236
2.13655
1.55804
0.886607
0.368101
0.123242
0.357575
0.240076
0.489629
0.168911
0.128382
0.108652
0.0882369
0.0693639
0.0603846
0.0616863
0.0626494
81.8197
81.7752
81.7369
81.7078
81.6854
81.6677
81.6547
81.6466
81.6443
81.6465
81.6528
81.6617
81.6801
81.7132
81.7729
81.8659
81.991
82.1472
82.3363
82.5693
82.8501
83.1681
83.4895
83.8126
84.0942
84.4154
84.8126
85.3132
85.9236
86.6376
87.0398
82.3606
74.4783
57.9108
42.2336
25.2528
12.4329
8.7297
6.96918
7.79359
10.4149
3.61919
11.4718
4.04641
1.80872
0.52804
0.258157
0.381908
0.336369
0.372594
82.1014
82.0578
82.007
81.9612
81.9217
81.8875
81.8581
81.8332
81.8128
81.7967
81.7848
81.7768
81.7727
81.773
81.7772
81.7856
81.7982
81.8144
81.8341
81.8564
81.8809
81.9057
81.9311
81.9589
81.9946
82.0425
82.1109
82.2003
82.3115
82.4249
82.5255
82.6095
82.7044
82.8228
83.0021
82.9019
74.5443
68.1309
30.1862
10.4174
10.3193
10.0298
7.17361
10.8054
10.7458
9.06853
3.45364
1.38884
0.433224
0.203162
85.917
85.8764
85.836
85.8006
85.7692
85.7405
85.7144
85.6909
85.6701
85.6518
85.6362
85.6231
85.6125
85.6047
85.5991
85.596
85.5952
85.5964
85.5994
85.6041
85.61
85.6168
85.6239
85.631
85.6375
85.6431
85.6471
85.649
85.6476
85.6417
85.6307
85.6167
85.6043
85.5895
85.5506
85.4883
85.3859
85.2814
85.1584
84.8703
79.2562
66.8869
45.8467
9.45116
4.87774
5.31572
3.85948
2.26298
1.33631
0.76599
86.4618
86.4253
86.3847
86.3484
86.317
86.2898
86.2663
86.2465
86.2305
86.2182
86.2096
86.2048
86.2037
86.2063
86.2127
86.2228
86.2366
86.2542
86.2755
86.3006
86.3295
86.3622
86.3986
86.4391
86.4834
86.5319
86.5842
86.6408
86.7014
86.7664
86.8353
86.9091
86.9867
87.069
87.1531
87.2445
87.3718
87.4652
87.5834
87.6682
87.7272
87.7458
88.007
88.5669
84.5443
73.4638
43.026
16.5292
11.4148
9.1237
0.0526976
0.0526796
0.0526607
0.0526409
0.0526202
0.0525987
0.0525763
0.0525531
0.052529
0.0525041
0.0524783
0.0524517
0.0524243
0.0523961
0.0523671
0.0523374
0.0523068
0.0522756
0.0522436
0.052211
0.0521776
0.0521436
0.0521089
0.0520736
0.0520376
0.0520011
0.0519639
0.0519262
0.051888
0.0518492
0.0518099
0.0517701
0.0517298
0.051689
0.0516478
0.0516061
0.051564
0.0515215
0.0514786
0.0514353
0.0513916
0.0513476
0.0513032
0.0512585
0.0512134
0.051168
0.0511224
0.0510765
0.0510306
0.0509843
0.0551899
0.0551536
0.0551163
0.0550782
0.0550393
0.0549995
0.0549589
0.0549176
0.0548756
0.0548329
0.0547895
0.0547454
0.0547007
0.0546555
0.0546096
0.0545631
0.0545162
0.0544686
0.0544206
0.0543721
0.0543231
0.0542736
0.0542237
0.0541734
0.0541226
0.0540715
0.0540199
0.053968
0.0539157
0.0538631
0.0538101
0.0537568
0.0537032
0.0536493
0.0535951
0.0535406
0.0534859
0.0534309
0.0533756
0.0533202
0.0532644
0.0532085
0.0531524
0.0530961
0.0530396
0.0529829
0.052926
0.052869
0.0528123
0.0527553
0.0573036
0.057273
0.0572401
0.0572052
0.0571682
0.0571294
0.0570888
0.0570465
0.0570027
0.0569574
0.0569107
0.0568627
0.0568134
0.056763
0.0567115
0.0566589
0.0566054
0.0565509
0.0564955
0.0564394
0.0563824
0.0563247
0.0562663
0.0562073
0.0561476
0.0560874
0.0560266
0.0559653
0.0559035
0.0558412
0.0557786
0.0557155
0.055652
0.0555882
0.055524
0.0554595
0.0553947
0.0553297
0.0552644
0.0551988
0.0551331
0.0550671
0.0550009
0.0549346
0.0548681
0.0548014
0.0547346
0.0546677
0.0546012
0.0545345
0.0600146
0.0599349
0.0598559
0.0597775
0.0596997
0.0596222
0.0595452
0.0594685
0.059392
0.0593158
0.0592397
0.0591638
0.059088
0.0590122
0.0589365
0.0588608
0.0587851
0.0587093
0.0586335
0.0585577
0.0584818
0.0584058
0.0583297
0.0582535
0.0581772
0.0581008
0.0580243
0.0579477
0.057871
0.0577941
0.0577172
0.0576401
0.057563
0.0574857
0.0574083
0.0573309
0.0572533
0.0571757
0.057098
0.0570202
0.0569424
0.0568645
0.0567866
0.0567086
0.0566306
0.0565525
0.0564744
0.0563964
0.0563189
0.056241
0.0630072
0.0629052
0.0628033
0.0627016
0.0626001
0.0624986
0.0623973
0.062296
0.0621949
0.0620938
0.0619927
0.0618918
0.0617908
0.06169
0.0615892
0.0614885
0.0613879
0.0612873
0.0611868
0.0610864
0.0609861
0.0608859
0.0607858
0.0606858
0.0605859
0.0604861
0.0603865
0.060287
0.0601877
0.0600885
0.0599895
0.0598906
0.059792
0.0596935
0.0595951
0.059497
0.0593991
0.0593014
0.0592039
0.0591067
0.0590096
0.0589128
0.0588163
0.05872
0.0586239
0.0585281
0.0584325
0.0583373
0.058243
0.0581489
0.0646889
0.0645973
0.0645048
0.0644114
0.0643172
0.0642222
0.0641265
0.06403
0.0639329
0.0638351
0.0637367
0.0636377
0.0635382
0.0634381
0.0633376
0.0632365
0.0631351
0.0630332
0.0629309
0.0628283
0.0627253
0.062622
0.0625185
0.0624146
0.0623106
0.0622063
0.0621018
0.0619972
0.0618924
0.0617875
0.0616825
0.0615774
0.0614723
0.0613671
0.0612618
0.0611566
0.0610513
0.0609461
0.0608409
0.0607358
0.0606307
0.0605257
0.0604208
0.0603161
0.0602114
0.0601069
0.0600026
0.0598985
0.0597952
0.0596915
0.0683425
0.0682039
0.0680646
0.0679246
0.0677842
0.0676432
0.0675018
0.06736
0.067218
0.0670757
0.0669332
0.0667906
0.0666479
0.0665052
0.0663625
0.0662199
0.0660774
0.0659351
0.0657929
0.065651
0.0655093
0.065368
0.0652269
0.0650863
0.064946
0.0648061
0.0646666
0.0645277
0.0643891
0.0642511
0.0641136
0.0639767
0.0638403
0.0637044
0.0635691
0.0634344
0.0633004
0.0631669
0.063034
0.0629018
0.0627702
0.0626393
0.062509
0.0623794
0.0622504
0.0621221
0.0619945
0.0618676
0.0617422
0.0616175
0.0699688
0.0698298
0.0696898
0.069549
0.0694073
0.0692648
0.0691216
0.0689778
0.0688334
0.0686884
0.068543
0.0683971
0.0682509
0.0681043
0.0679575
0.0678105
0.0676633
0.067516
0.0673687
0.0672213
0.0670739
0.0669266
0.0667793
0.0666322
0.0664853
0.0663386
0.0661921
0.0660458
0.0658999
0.0657543
0.065609
0.0654641
0.0653196
0.0651755
0.0650319
0.0648887
0.0647461
0.0646039
0.0644622
0.0643211
0.0641805
0.0640405
0.063901
0.0637622
0.0636239
0.0634863
0.0633493
0.0632131
0.0630783
0.0629434
0.0741579
0.0739365
0.0737154
0.0734948
0.0732746
0.0730551
0.0728363
0.0726183
0.0724012
0.0721851
0.07197
0.0717561
0.0715433
0.0713318
0.0711215
0.0709126
0.070705
0.0704989
0.0702941
0.0700909
0.0698891
0.0696888
0.06949
0.0692927
0.0690969
0.0689027
0.0687101
0.0685189
0.0683293
0.0681413
0.0679548
0.0677698
0.0675863
0.0674044
0.0672239
0.067045
0.0668676
0.0666916
0.0665171
0.066344
0.0661724
0.0660022
0.0658334
0.0656661
0.0655001
0.0653355
0.0651722
0.0650103
0.0648508
0.0646926
0.075621
0.0753927
0.0751642
0.0749357
0.0747072
0.074479
0.0742511
0.0740238
0.073797
0.073571
0.0733458
0.0731215
0.0728982
0.072676
0.072455
0.0722351
0.0720165
0.0717993
0.0715834
0.0713689
0.0711558
0.0709442
0.0707341
0.0705256
0.0703185
0.0701131
0.0699092
0.0697069
0.0695062
0.0693071
0.0691096
0.0689137
0.0687195
0.0685268
0.0683358
0.0681463
0.0679585
0.0677722
0.0675876
0.0674045
0.067223
0.0670431
0.0668647
0.066688
0.0665127
0.066339
0.0661669
0.0659964
0.0658285
0.065661
0.0798318
0.0794519
0.0790782
0.0787106
0.0783493
0.0779942
0.0776454
0.0773028
0.0769663
0.076636
0.0763115
0.075993
0.0756802
0.0753731
0.0750714
0.0747751
0.074484
0.0741979
0.0739167
0.0736403
0.0733684
0.073101
0.0728379
0.0725789
0.0723239
0.0720728
0.0718254
0.0715817
0.0713414
0.0711046
0.070871
0.0706405
0.0704132
0.0701887
0.0699672
0.0697484
0.0695323
0.0693189
0.0691079
0.0688994
0.0686933
0.0684895
0.068288
0.0680886
0.0678914
0.0676962
0.067503
0.0673119
0.0671238
0.0669375
0.0810225
0.0806185
0.0802203
0.0798281
0.0794421
0.0790626
0.0786895
0.0783229
0.0779627
0.0776088
0.0772612
0.0769198
0.0765845
0.0762552
0.0759318
0.0756141
0.075302
0.0749954
0.0746941
0.0743981
0.0741072
0.0738212
0.07354
0.0732634
0.0729914
0.0727238
0.0724604
0.0722011
0.0719458
0.0716944
0.0714467
0.0712027
0.0709622
0.0707251
0.0704914
0.0702608
0.0700334
0.0698091
0.0695877
0.0693692
0.0691535
0.0689405
0.0687301
0.0685224
0.0683171
0.0681144
0.067914
0.0677163
0.0675218
0.0673285
0.0808923
0.0803775
0.0798875
0.0794237
0.0789881
0.078576
0.0781836
0.0778091
0.0774512
0.0771093
0.0767822
0.0764684
0.0761667
0.0758754
0.0755934
0.0753195
0.0750528
0.0747925
0.074538
0.0742885
0.0740434
0.0738023
0.0735647
0.0733304
0.0730992
0.0728708
0.072645
0.0724217
0.0722007
0.0719817
0.0717648
0.0715497
0.0713364
0.0711247
0.0709146
0.0707059
0.0704985
0.0702925
0.0700877
0.0698841
0.0696815
0.06948
0.0692795
0.06908
0.0688813
0.0686836
0.0684865
0.0682904
0.068096
0.0679029
0.0814508
0.0807625
0.080121
0.0795464
0.0790256
0.0785582
0.078145
0.0777784
0.0774439
0.0771231
0.0768096
0.0765038
0.0762059
0.0759154
0.0756313
0.0753533
0.0750808
0.0748141
0.0745521
0.0742952
0.0740411
0.0737919
0.0735453
0.0733002
0.0730566
0.0728143
0.0725735
0.0723343
0.0720967
0.0718608
0.0716266
0.0713943
0.0711639
0.0709354
0.0707092
0.0704844
0.0702625
0.0700411
0.0698235
0.0696054
0.0693919
0.0691771
0.0689675
0.0687558
0.0685503
0.0683413
0.068139
0.0679334
0.0677615
0.0675379
0.0706371
0.0697266
0.0801778
0.0757403
0.0732607
0.0724338
0.0721293
0.0717757
0.0715112
0.0714613
0.071588
0.0716314
0.0716837
0.0717221
0.0717109
0.0717333
0.0717965
0.0717744
0.0717375
0.0717032
0.0716722
0.0716262
0.071567
0.0714975
0.0714214
0.071341
0.071258
0.0711699
0.0710812
0.0709876
0.0708867
0.0707782
0.0706624
0.0705397
0.0704104
0.0702748
0.0701328
0.0699853
0.069833
0.0696761
0.0695152
0.0693505
0.0691823
0.0690105
0.0688357
0.0686575
0.0684767
0.0682928
0.068107
0.0679218
0.0633904
0.0731803
0.0625373
0.0606431
0.060498
0.0611044
0.0623816
0.0637447
0.0648549
0.0669914
0.0680489
0.0682277
0.0682344
0.0685883
0.0688544
0.0690903
0.0692661
0.0694
0.0699737
0.0726452
0.0726067
0.0720702
0.0716063
0.0714833
0.0713742
0.0712431
0.0710903
0.0709531
0.0707802
0.0705682
0.0703345
0.0700912
0.0698822
0.0696805
0.0694792
0.0692733
0.0690647
0.0688606
0.0686557
0.0684504
0.0682411
0.0680286
0.0678168
0.0676054
0.0673953
0.0671872
0.0669805
0.0667763
0.0665747
0.0663713
0.103157
0.0426792
0.0182667
0.0263131
0.0220981
0.0146362
0.0460791
0.189106
0.398105
0.353136
0.222501
0.12475
0.097557
0.0926237
0.0905581
0.0884852
0.0864677
0.0846472
0.0830079
0.0815007
0.0812056
0.0793419
0.0780779
0.0771172
0.0758202
0.0757998
0.0782906
0.077413
0.0761755
0.0758315
0.0752557
0.0747947
0.0742966
0.0737621
0.0732295
0.0727172
0.0722219
0.071761
0.0715323
0.0707494
0.0703391
0.0699789
0.0696476
0.0693323
0.0690417
0.0687531
0.0684927
0.0681666
0.0678942
0.067629
0.142753
0.120878
0.111598
0.108445
0.109947
0.112575
0.114242
0.111954
0.104684
0.103411
0.0959564
0.0786065
0.0697206
0.0648121
0.0628983
0.0627567
0.0632653
0.0637284
0.0640583
0.0643143
0.0644857
0.0645679
0.0646827
0.0647178
0.0646971
0.0646164
0.0646243
0.0655528
0.0725771
0.0778664
0.0783557
0.0770111
0.0701695
0.0648219
0.0639989
0.0639439
0.0638511
0.0637457
0.0638964
0.0643134
0.0642169
0.0636665
0.0633847
0.0633056
0.0632097
0.0631227
0.0630296
0.0630601
0.0628953
0.0628093
0.426469
0.259677
0.183101
0.133232
0.093007
0.0655957
0.0619583
0.0625902
0.0549148
0.0586083
0.111094
0.0849733
0.0756561
0.0666742
0.0626136
0.0619751
0.0617363
0.0629562
0.0624239
0.0638564
0.0671429
0.0677127
0.0674776
0.0653749
0.0627222
0.0640886
0.0594404
0.0818621
0.067432
0.0659851
0.0654395
0.0649787
0.0647296
0.065011
0.0650121
0.0649902
0.0648055
0.0663344
0.0754627
0.0815882
0.0750668
0.0671435
0.0632868
0.0625709
0.0623331
0.062094
0.0618662
0.0617726
0.061485
0.0613214
6.15407
3.6589
2.16847
1.26228
0.665578
0.307573
0.141907
0.0971408
0.0806022
0.0679863
0.0705314
0.0704199
0.0673741
0.072057
0.0775772
0.0771472
0.0724013
0.068693
0.0674944
0.0673264
0.0672483
0.067047
0.06684
0.0669741
0.0673108
0.0677562
0.0689964
0.075939
0.0773371
0.0730583
0.0605698
0.063734
0.0648387
0.0650953
0.064744
0.0613304
0.0574406
0.0564351
0.0558965
0.0542937
0.0520565
0.0499993
0.0492189
0.0487803
0.0482509
0.0476178
0.0468788
0.0462518
0.0450991
0.0440667
0.0509492
0.050925
0.0509003
0.0508757
0.0508509
0.0508259
0.0508007
0.0507753
0.0507496
0.0507238
0.0506977
0.0506714
0.0506449
0.0506182
0.0505912
0.0505641
0.0505367
0.0505091
0.0504814
0.0504533
0.0504251
0.0503967
0.050368
0.0503392
0.0503101
0.0502808
0.0502513
0.0502216
0.0501916
0.0501615
0.0501311
0.0501006
0.0500698
0.0500388
0.0500076
0.0499762
0.0499446
0.0499128
0.0498808
0.0498485
0.0498161
0.0497835
0.0497506
0.0497176
0.0496843
0.0496509
0.0496172
0.0495833
0.0495493
0.049515
0.0494806
0.0494459
0.0494111
0.049376
0.0493408
0.0493053
0.0492697
0.0492339
0.0491979
0.0491617
0.0491253
0.0490887
0.049052
0.049015
0.0489779
0.0489406
0.0489031
0.0488654
0.0488276
0.0487895
0.0487513
0.048713
0.0486744
0.0486357
0.0485968
0.0485578
0.0485185
0.0484792
0.0484396
0.0483999
0.04836
0.04832
0.0482798
0.0482395
0.048199
0.0481584
0.0481176
0.0480767
0.0480357
0.0479945
0.0479531
0.0479117
0.0478701
0.0478283
0.0477865
0.0477445
0.0477024
0.0476601
0.0476178
0.0475753
0.0475327
0.04749
0.0474472
0.0474043
0.0473613
0.0473182
0.047275
0.0472317
0.0471883
0.0471448
0.0471013
0.0470576
0.0470139
0.0469701
0.0469263
0.0468823
0.0468383
0.0467943
0.0467501
0.0467059
0.0466617
0.0466174
0.0465731
0.0465287
0.0464843
0.0464398
0.0463954
0.0463508
0.0463063
0.0462617
0.0462171
0.0461725
0.0461279
0.0460833
0.0460386
0.045994
0.0459493
0.0459047
0.0458601
0.0458154
0.0457708
0.0457262
0.0456816
0.045637
0.0455925
0.0455479
0.0455034
0.0454589
0.0454145
0.0453701
0.0453257
0.0452814
0.0452371
0.0451929
0.0451487
0.0451045
0.0450604
0.0450164
0.0449724
0.0449284
0.0448846
0.0448407
0.044797
0.0447533
0.0447096
0.0446661
0.0446226
0.0445791
0.0445358
0.0444925
0.0444493
0.0444061
0.044363
0.04432
0.0442771
0.0442342
0.0441914
0.0441487
0.0441061
0.0440635
0.044021
0.0439786
0.0439363
0.043894
0.0438518
0.0438097
0.0437677
0.0437257
0.0436838
0.043642
0.0436002
0.0435586
0.043517
0.0434755
0.043434
0.0433926
0.0433513
0.0433101
0.043269
0.0432279
0.0431869
0.0431459
0.0431051
0.0430643
0.0430235
0.0429829
0.0429423
0.0429018
0.0428614
0.0428211
0.0427808
0.0427406
0.0427005
0.0426604
0.0426205
0.0425806
0.0425408
0.0425011
0.0424615
0.0424219
0.0423825
0.0423431
0.0423039
0.0422647
0.0422257
0.0421867
0.0421479
0.0421091
0.0420705
0.042032
0.0419936
0.0419554
0.0419173
0.0418793
0.0418414
0.0418037
0.0417662
0.0417288
0.0416916
0.0416545
0.0416176
0.0415809
0.0415444
0.0415081
0.041472
0.0414361
0.0414004
0.0413649
0.0413296
0.0412946
0.0412599
0.0412254
0.0411911
0.0411572
0.0411235
0.0410901
0.041057
0.0410242
0.0409917
0.0409596
0.0409278
0.0408963
0.0408653
0.0408345
0.0408042
0.0407743
0.0407447
0.0407156
0.0406869
0.0406587
0.0406309
0.0406036
0.0405767
0.0405504
0.0405245
0.0404992
0.0404744
0.0404501
0.0404264
0.0404033
0.0403808
0.0403589
0.0403376
0.0403169
0.0402969
0.0402775
0.0402589
0.0402409
0.0402237
0.0402072
0.0401915
0.0401765
0.0401624
0.040149
0.0401365
0.0401249
0.0401141
0.0401042
0.0400952
0.0400874
0.0527122
0.0526822
0.0526516
0.052621
0.0525904
0.0525596
0.0525285
0.0524973
0.0524658
0.0524341
0.0524023
0.0523702
0.0523379
0.0523054
0.0522727
0.0522398
0.0522066
0.0521733
0.0521398
0.052106
0.0520721
0.0520379
0.0520036
0.051969
0.0519343
0.0518993
0.0518641
0.0518287
0.0517932
0.0517574
0.0517214
0.0516852
0.0516488
0.0516122
0.0515754
0.0515384
0.0515012
0.0514638
0.0514262
0.0513884
0.0513504
0.0513122
0.0512739
0.0512353
0.0511965
0.0511575
0.0511184
0.051079
0.0510395
0.0509998
0.0509598
0.0509197
0.0508794
0.0508389
0.0507983
0.0507574
0.0507164
0.0506751
0.0506337
0.0505922
0.0505504
0.0505085
0.0504664
0.0504241
0.0503816
0.050339
0.0502962
0.0502532
0.0502101
0.0501668
0.0501233
0.0500797
0.0500359
0.049992
0.0499479
0.0499036
0.0498592
0.0498147
0.04977
0.0497251
0.0496801
0.049635
0.0495897
0.0495443
0.0494988
0.0494531
0.0494073
0.0493613
0.0493153
0.0492691
0.0492228
0.0491764
0.0491299
0.0490832
0.0490365
0.0489896
0.0489427
0.0488956
0.0488485
0.0488013
0.0487539
0.0487065
0.048659
0.0486114
0.0485638
0.0485161
0.0484683
0.0484204
0.0483725
0.0483245
0.0482765
0.0482284
0.0481803
0.0481321
0.0480839
0.0480357
0.0479874
0.0479391
0.0478908
0.0478424
0.0477941
0.0477457
0.0476973
0.0476489
0.0476005
0.0475522
0.0475038
0.0474554
0.0474071
0.0473588
0.0473105
0.0472622
0.047214
0.0471657
0.0471175
0.0470694
0.0470213
0.0469733
0.0469253
0.0468773
0.0468294
0.0467816
0.0467339
0.0466862
0.0466385
0.046591
0.0465435
0.0464961
0.0464488
0.0464016
0.0463544
0.0463074
0.0462604
0.0462135
0.0461667
0.04612
0.0460734
0.0460268
0.0459804
0.0459341
0.0458879
0.0458418
0.0457957
0.0457498
0.045704
0.0456583
0.0456127
0.0455672
0.0455218
0.0454765
0.0454313
0.0453863
0.0453413
0.0452964
0.0452517
0.045207
0.0451624
0.045118
0.0450736
0.0450293
0.0449852
0.0449411
0.0448971
0.0448533
0.0448095
0.0447658
0.0447222
0.0446787
0.0446353
0.044592
0.0445487
0.0445055
0.0444625
0.0444195
0.0443766
0.0443337
0.044291
0.0442483
0.0442057
0.0441631
0.0441207
0.0440783
0.0440359
0.0439937
0.0439515
0.0439094
0.0438673
0.0438253
0.0437834
0.0437416
0.0436998
0.0436581
0.0436164
0.0435748
0.0435333
0.0434919
0.0434505
0.0434092
0.0433679
0.0433268
0.0432857
0.0432447
0.0432037
0.0431629
0.0431221
0.0430815
0.0430409
0.0430004
0.04296
0.0429197
0.0428795
0.0428395
0.0427995
0.0427597
0.04272
0.0426805
0.042641
0.0426018
0.0425626
0.0425237
0.0424849
0.0424462
0.0424078
0.0423695
0.0423314
0.0422936
0.0422559
0.0422184
0.0421812
0.0421442
0.0421075
0.042071
0.0420348
0.0419988
0.0419632
0.0419278
0.0418927
0.0418579
0.0418235
0.0417894
0.0417556
0.0417222
0.0416892
0.0416565
0.0416242
0.0415923
0.0415609
0.0415299
0.0414993
0.0414691
0.0414395
0.0414103
0.0413816
0.0413534
0.0413257
0.0412985
0.0412719
0.0412459
0.0412205
0.0411956
0.0411713
0.0411477
0.0411247
0.0411024
0.0410807
0.0410598
0.0410395
0.04102
0.0410012
0.0409832
0.040966
0.0409496
0.0409339
0.0409192
0.0409053
0.0408923
0.0408802
0.040869
0.0408588
0.0408497
0.0544842
0.0544491
0.0544133
0.0543775
0.0543416
0.0543056
0.0542693
0.0542327
0.054196
0.054159
0.0541218
0.0540843
0.0540467
0.0540088
0.0539707
0.0539323
0.0538938
0.053855
0.053816
0.0537767
0.0537373
0.0536976
0.0536577
0.0536176
0.0535773
0.0535368
0.053496
0.053455
0.0534138
0.0533724
0.0533308
0.0532889
0.0532469
0.0532046
0.0531622
0.0531195
0.0530766
0.0530335
0.0529902
0.0529467
0.052903
0.0528591
0.0528149
0.0527706
0.0527261
0.0526814
0.0526365
0.0525914
0.0525461
0.0525006
0.0524549
0.052409
0.0523629
0.0523166
0.0522702
0.0522235
0.0521767
0.0521297
0.0520825
0.0520352
0.0519876
0.0519399
0.051892
0.051844
0.0517957
0.0517474
0.0516988
0.0516501
0.0516012
0.0515521
0.0515029
0.0514535
0.051404
0.0513543
0.0513045
0.0512545
0.0512044
0.0511542
0.0511038
0.0510532
0.0510026
0.0509518
0.0509008
0.0508498
0.0507986
0.0507473
0.0506959
0.0506444
0.0505927
0.050541
0.0504891
0.0504372
0.0503851
0.050333
0.0502807
0.0502284
0.050176
0.0501235
0.050071
0.0500183
0.0499657
0.0499129
0.0498601
0.0498072
0.0497543
0.0497013
0.0496483
0.0495953
0.0495422
0.0494891
0.049436
0.0493829
0.0493297
0.0492766
0.0492234
0.0491702
0.0491171
0.049064
0.0490109
0.0489578
0.0489047
0.0488517
0.0487987
0.0487457
0.0486928
0.04864
0.0485872
0.0485345
0.0484818
0.0484293
0.0483768
0.0483244
0.048272
0.0482198
0.0481677
0.0481157
0.0480638
0.048012
0.0479603
0.0479087
0.0478572
0.0478059
0.0477547
0.0477036
0.0476526
0.0476018
0.0475511
0.0475006
0.0474502
0.0473999
0.0473498
0.0472998
0.04725
0.0472003
0.0471508
0.0471014
0.0470522
0.0470031
0.0469542
0.0469055
0.0468569
0.0468085
0.0467602
0.0467121
0.0466642
0.0466164
0.0465687
0.0465213
0.046474
0.0464268
0.0463798
0.046333
0.0462863
0.0462398
0.0461934
0.0461472
0.0461011
0.0460551
0.0460093
0.0459636
0.0459181
0.0458727
0.0458274
0.0457822
0.0457372
0.0456922
0.0456474
0.0456027
0.0455581
0.0455136
0.0454692
0.0454249
0.0453807
0.0453366
0.0452926
0.0452486
0.0452047
0.045161
0.0451172
0.0450736
0.04503
0.0449865
0.044943
0.0448997
0.0448563
0.044813
0.0447698
0.0447267
0.0446835
0.0446405
0.0445974
0.0445545
0.0445115
0.0444686
0.0444258
0.044383
0.0443403
0.0442975
0.0442549
0.0442123
0.0441697
0.0441272
0.0440848
0.0440424
0.044
0.0439577
0.0439155
0.0438734
0.0438313
0.0437893
0.0437474
0.0437056
0.0436639
0.0436223
0.0435807
0.0435393
0.043498
0.0434569
0.0434159
0.043375
0.0433342
0.0432937
0.0432532
0.043213
0.0431729
0.0431331
0.0430934
0.0430539
0.0430147
0.0429757
0.0429369
0.0428983
0.0428601
0.0428221
0.0427843
0.0427469
0.0427098
0.0426729
0.0426364
0.0426003
0.0425645
0.042529
0.0424939
0.0424592
0.0424249
0.042391
0.0423576
0.0423245
0.0422919
0.0422598
0.0422282
0.042197
0.0421664
0.0421362
0.0421066
0.0420776
0.0420491
0.0420212
0.0419939
0.0419672
0.0419411
0.0419157
0.0418909
0.0418668
0.0418434
0.0418207
0.0417988
0.0417776
0.0417571
0.0417375
0.0417186
0.0417006
0.0416834
0.0416671
0.0416517
0.0416373
0.0416237
0.0416111
0.0415995
0.0415892
0.0561817
0.0561404
0.0560985
0.0560568
0.0560149
0.0559729
0.0559306
0.0558882
0.0558454
0.0558025
0.0557594
0.055716
0.0556724
0.0556286
0.0555846
0.0555403
0.0554959
0.0554512
0.0554063
0.0553611
0.0553158
0.0552702
0.0552245
0.0551785
0.0551323
0.0550859
0.0550392
0.0549924
0.0549453
0.0548981
0.0548506
0.0548029
0.054755
0.0547069
0.0546586
0.05461
0.0545613
0.0545124
0.0544632
0.0544139
0.0543643
0.0543146
0.0542646
0.0542145
0.0541641
0.0541136
0.0540628
0.0540119
0.0539608
0.0539094
0.0538579
0.0538062
0.0537543
0.0537023
0.05365
0.0535975
0.0535449
0.0534921
0.0534391
0.053386
0.0533326
0.0532791
0.0532254
0.0531716
0.0531175
0.0530634
0.053009
0.0529545
0.0528998
0.052845
0.05279
0.0527349
0.0526796
0.0526242
0.0525686
0.0525129
0.0524571
0.0524011
0.052345
0.0522887
0.0522323
0.0521758
0.0521192
0.0520625
0.0520057
0.0519487
0.0518916
0.0518345
0.0517772
0.0517199
0.0516624
0.0516049
0.0515473
0.0514896
0.0514319
0.051374
0.0513162
0.0512582
0.0512002
0.0511422
0.0510841
0.051026
0.0509678
0.0509096
0.0508514
0.0507932
0.050735
0.0506768
0.0506186
0.0505605
0.0505023
0.0504442
0.0503861
0.050328
0.05027
0.0502121
0.0501542
0.0500963
0.0500386
0.0499809
0.0499234
0.0498659
0.0498085
0.0497513
0.0496941
0.0496371
0.0495802
0.0495235
0.0494669
0.0494104
0.049354
0.0492978
0.049242
0.0491863
0.0491308
0.0490755
0.0490204