/*--------------------------------*- C++ -*----------------------------------*\
| =========                 |                                                 |
| \\      /  F ield         | OpenFOAM: The Open Source CFD Toolbox           |
|  \\    /   O peration     | Version:  2.4.0                                 |
|   \\  /    A nd           | Web:      www.OpenFOAM.org                      |
|    \\/     M anipulation  |                                                 |
\*---------------------------------------------------------------------------*/
FoamFile
{
    version     2.0;
    format      ascii;
    class       surfaceScalarField;
    location    "2";
    object      phi;
}
// * * * * * * * * * * * * * * * * * * * * * * * * * * * * * * * * * * * * * //

dimensions      [0 3 -1 0 0 0 0];

internalField   nonuniform List<scalar> 
15580
(
3.70413e-13
-2.84967e-12
1.47643e-12
-8.34914e-12
3.25451e-12
-1.3624e-11
5.61729e-12
-1.86676e-11
8.48718e-12
-2.34881e-11
1.17909e-11
-2.80921e-11
1.54611e-11
-3.24844e-11
1.94301e-11
-3.66693e-11
2.3633e-11
-4.06482e-11
2.80009e-11
-4.44242e-11
3.24639e-11
-4.79943e-11
3.6946e-11
-5.1362e-11
4.13677e-11
-5.45201e-11
4.56614e-11
-5.74919e-11
4.97796e-11
-6.02932e-11
5.37254e-11
-6.29888e-11
5.64971e-11
-6.45876e-11
5.79713e-11
-6.6005e-11
5.65643e-11
-6.93062e-11
4.78039e-12
-6.62861e-11
-2.23086e-11
-5.55701e-11
-7.53294e-11
-1.73754e-11
-1.00087e-10
-4.12237e-11
-3.67718e-10
2.88164e-10
-6.26199e-10
2.26514e-10
-7.81398e-10
1.80626e-10
-8.77309e-10
1.52155e-10
-9.58098e-10
1.22105e-10
-1.00982e-09
1.00495e-10
-1.04016e-09
8.52437e-11
-1.05586e-09
7.43805e-11
-1.06204e-09
6.66147e-11
-1.06236e-09
6.10516e-11
-1.05928e-09
5.70532e-11
-1.05438e-09
5.4165e-11
-1.04864e-09
5.20678e-11
-1.04259e-09
5.05403e-11
-1.03651e-09
4.94302e-11
-1.03051e-09
4.86319e-11
-1.02461e-09
4.80711e-11
-1.0188e-09
4.76938e-11
-1.01303e-09
4.74595e-11
-1.00726e-09
4.73366e-11
-1.00147e-09
4.72994e-11
-9.9563e-10
4.73273e-11
-9.89731e-10
4.74027e-11
-9.83772e-10
4.75113e-11
-9.77761e-10
4.76413e-11
-9.71708e-10
4.77829e-11
4.79284e-11
-9.65628e-10
2.8576e-13
-3.13543e-12
9.9103e-13
-9.05441e-12
2.07372e-12
-1.47067e-11
3.54519e-12
-2.01391e-11
5.41384e-12
-2.53567e-11
7.68747e-12
-3.03657e-11
1.0368e-11
-3.51649e-11
1.34553e-11
-3.97567e-11
1.69398e-11
-4.41327e-11
2.08102e-11
-4.82946e-11
2.50529e-11
-5.22369e-11
2.96856e-11
-5.59947e-11
3.47204e-11
-5.95549e-11
4.01434e-11
-6.2915e-11
4.46535e-11
-6.48032e-11
4.87052e-11
-6.71171e-11
4.50854e-11
-7.18586e-11
-1.60296e-11
-6.6889e-11
-1.06292e-10
1.40465e-11
-7.53992e-11
-9.72791e-11
-2.95158e-10
1.64189e-10
-4.46356e-10
1.33822e-10
-6.50189e-10
1.6261e-10
-6.7714e-10
3.15115e-10
-7.91605e-10
3.40979e-10
-8.87534e-10
2.76555e-10
-9.5862e-10
2.23241e-10
-1.01603e-09
1.79511e-10
-1.06013e-09
1.44598e-10
-1.0923e-09
1.17416e-10
-1.11457e-09
9.66442e-11
-1.12893e-09
8.09802e-11
-1.13716e-09
6.92801e-11
-1.14071e-09
6.06006e-11
-1.14074e-09
5.41958e-11
-1.13816e-09
4.9493e-11
-1.13368e-09
4.6061e-11
-1.12783e-09
4.35791e-11
-1.12101e-09
4.181e-11
-1.11352e-09
4.05779e-11
-1.10558e-09
3.97522e-11
-1.09735e-09
3.92345e-11
-1.08896e-09
3.89505e-11
-1.08051e-09
3.8843e-11
-1.07205e-09
3.88679e-11
-1.06364e-09
3.89908e-11
-1.05531e-09
3.91849e-11
-1.0471e-09
3.94291e-11
-1.03902e-09
3.97068e-11
4.00051e-11
-1.0311e-09
-4.25982e-13
-2.70945e-12
-1.30415e-12
-8.17625e-12
-2.35105e-12
-1.36598e-11
-3.37064e-12
-1.91195e-11
-4.14924e-12
-2.45781e-11
-4.5279e-12
-2.99871e-11
-4.30167e-12
-3.53911e-11
-3.34651e-12
-4.07118e-11
-1.43301e-12
-4.60462e-11
1.56653e-12
-5.12942e-11
5.98531e-12
-5.66557e-11
1.03325e-11
-6.03419e-11
1.47163e-11
-6.39387e-11
1.7088e-11
-6.702e-11
-2.83302e-11
-7.64075e-11
-8.02796e-11
-4.65127e-11
-1.52359e-10
-3.27797e-13
-1.15715e-10
-1.03568e-10
-5.39489e-10
4.37821e-10
-9.13912e-10
2.77144e-10
-1.01614e-09
2.66419e-10
-1.18519e-09
3.02869e-10
-1.31822e-09
2.95637e-10
-1.27971e-09
2.76612e-10
-1.19083e-09
2.52096e-10
-1.13663e-09
2.22356e-10
-1.10598e-09
1.92587e-10
-1.09125e-09
1.64786e-10
-1.0866e-09
1.39947e-10
-1.08763e-09
1.1844e-10
-1.09124e-09
1.00258e-10
-1.09543e-09
8.51758e-11
-1.09902e-09
7.28614e-11
-1.10136e-09
6.29447e-11
-1.10222e-09
5.50598e-11
-1.1016e-09
4.88681e-11
-1.09961e-09
4.40689e-11
-1.09643e-09
4.04024e-11
-1.09227e-09
3.7649e-11
-1.08732e-09
3.56263e-11
-1.08175e-09
3.41842e-11
-1.07572e-09
3.32005e-11
-1.06934e-09
3.25766e-11
-1.06273e-09
3.22333e-11
-1.05597e-09
3.21072e-11
-1.04913e-09
3.2148e-11
-1.04226e-09
3.23153e-11
-1.03541e-09
3.25774e-11
-1.02861e-09
3.2909e-11
3.329e-11
-1.02189e-09
-5.31573e-15
-2.70413e-12
1.66105e-13
-8.34767e-12
7.3241e-13
-1.42261e-11
1.92647e-12
-2.03136e-11
3.99141e-12
-2.66431e-11
7.18412e-12
-3.31798e-11
1.178e-11
-3.9987e-11
1.80954e-11
-4.70273e-11
2.61369e-11
-5.40877e-11
3.41426e-11
-5.92999e-11
4.31309e-11
-6.57082e-11
1.59556e-11
-7.79827e-11
-4.40572e-11
-7.59357e-11
-1.25618e-10
1.07386e-11
-6.16356e-11
-1.40542e-10
-3.49984e-10
2.41836e-10
-4.82793e-10
1.32481e-10
-7.88086e-10
2.01725e-10
-7.12995e-10
3.62729e-10
-8.93025e-10
4.57175e-10
-1.00878e-09
3.82176e-10
-1.0408e-09
3.34888e-10
-1.04051e-09
2.95347e-10
-1.02484e-09
2.60944e-10
-1.00453e-09
2.31785e-10
-9.87821e-10
2.05643e-10
-9.76853e-10
1.81619e-10
-9.71569e-10
1.59502e-10
-9.7097e-10
1.39348e-10
-9.73783e-10
1.21253e-10
-9.7879e-10
1.05265e-10
-9.84972e-10
9.13581e-11
-9.91548e-10
7.94377e-11
-9.9796e-10
6.93563e-11
-1.00383e-09
6.09347e-11
-1.00895e-09
5.39797e-11
-1.01318e-09
4.82983e-11
-1.01648e-09
4.37068e-11
-1.01887e-09
4.00377e-11
-1.02038e-09
3.71417e-11
-1.02109e-09
3.4889e-11
-1.02106e-09
3.31684e-11
-1.02037e-09
3.18857e-11
-1.01909e-09
3.09619e-11
-1.01732e-09
3.03311e-11
-1.01511e-09
2.99387e-11
-1.01253e-09
2.97393e-11
-1.00965e-09
2.96955e-11
-1.00652e-09
2.97763e-11
2.99563e-11
-1.00318e-09
3.13321e-13
-3.01745e-12
1.24336e-12
-9.27771e-12
2.71532e-12
-1.56981e-11
4.73983e-12
-2.23381e-11
7.20432e-12
-2.91076e-11
1.02115e-11
-3.61869e-11
1.29402e-11
-4.27157e-11
1.53802e-11
-4.94674e-11
8.73546e-12
-5.78033e-11
-4.53087e-11
-8.36308e-11
-1.72483e-10
1.8637e-11
-1.22295e-10
-1.28726e-10
-4.50001e-10
2.51747e-10
-6.09852e-10
1.7059e-10
-9.41198e-10
1.90804e-10
-9.38752e-10
2.39389e-10
-1.1289e-09
3.22634e-10
-1.2661e-09
3.38922e-10
-1.24512e-09
3.41753e-10
-1.11819e-09
3.3024e-10
-1.04088e-09
3.04867e-10
-9.83866e-10
2.77873e-10
-9.40079e-10
2.5156e-10
-9.0579e-10
2.26655e-10
-8.7753e-10
2.03526e-10
-8.54058e-10
1.82171e-10
-8.34975e-10
1.62536e-10
-8.20057e-10
1.44584e-10
-8.09008e-10
1.283e-10
-8.01419e-10
1.13663e-10
-7.96794e-10
1.0064e-10
-7.94607e-10
8.91703e-11
-7.94338e-10
7.91687e-11
-7.95511e-10
7.05298e-11
-7.97711e-10
6.31346e-11
-8.00589e-10
5.68578e-11
-8.03865e-10
5.15744e-11
-8.07322e-10
4.71636e-11
-8.10797e-10
4.3513e-11
-8.14175e-10
4.05198e-11
-8.17378e-10
3.80915e-11
-8.20356e-10
3.61466e-11
-8.23084e-10
3.46132e-11
-8.25551e-10
3.34291e-11
-8.2776e-10
3.25404e-11
-8.29722e-10
3.19005e-11
-8.31452e-10
3.14695e-11
-8.3297e-10
3.12134e-11
-8.34297e-10
3.11028e-11
3.1113e-11
-8.35453e-10
-3.87627e-13
-2.62982e-12
-1.94647e-12
-7.71886e-12
-5.02838e-12
-1.26162e-11
-9.9534e-12
-1.74131e-11
-1.70752e-11
-2.19858e-11
-2.67419e-11
-2.65202e-11
-3.8612e-11
-3.24971e-11
-1.04605e-10
-3.34704e-11
-2.45662e-10
2.29411e-11
-3.14641e-10
-1.51828e-11
-7.68063e-10
4.72059e-10
-1.23325e-09
3.36458e-10
-1.31513e-09
3.33625e-10
-1.51964e-09
3.75101e-10
-1.7165e-09
3.8767e-10
-1.83028e-09
3.5317e-10
-1.8352e-09
3.27554e-10
-1.79502e-09
2.98741e-10
-1.72403e-09
2.70762e-10
-1.64002e-09
2.46228e-10
-1.55849e-09
2.23342e-10
-1.48243e-09
2.01805e-10
-1.41253e-09
1.8166e-10
-1.34887e-09
1.62996e-10
-1.29121e-09
1.45867e-10
-1.23932e-09
1.3028e-10
-1.19298e-09
1.16198e-10
-1.15195e-09
1.03559e-10
-1.11594e-09
9.22865e-11
-1.08457e-09
8.22945e-11
-1.05742e-09
7.34931e-11
-1.03404e-09
6.57901e-11
-1.01397e-09
5.90928e-11
-9.96748e-10
5.33093e-11
-9.81964e-10
4.83505e-11
-9.69238e-10
4.41311e-11
-9.58234e-10
4.05706e-11
-9.48664e-10
3.7594e-11
-9.40284e-10
3.51326e-11
-9.32887e-10
3.31233e-11
-9.26306e-10
3.15097e-11
-9.204e-10
3.02407e-11
-9.15057e-10
2.92708e-11
-9.10188e-10
2.85598e-11
-9.05719e-10
2.80718e-11
-9.01594e-10
2.77752e-11
-8.97767e-10
2.76424e-11
-8.94203e-10
2.7649e-11
-8.90873e-10
2.77734e-11
2.79972e-11
-8.87757e-10
-8.50059e-13
-1.77977e-12
-3.6587e-12
-4.91022e-12
-8.62639e-12
-7.64847e-12
-1.60304e-11
-1.00091e-11
-2.60516e-11
-1.19646e-11
-4.22169e-11
-1.36806e-11
-1.89998e-10
-1.53878e-11
-3.20483e-10
9.60292e-11
-3.64001e-10
6.64596e-11
-5.13544e-10
1.3436e-10
-3.82499e-10
3.41014e-10
-5.7751e-10
5.31468e-10
-7.28639e-10
4.84755e-10
-7.97369e-10
4.43831e-10
-8.07828e-10
3.98129e-10
-8.0904e-10
3.54382e-10
-7.97434e-10
3.15948e-10
-7.80644e-10
2.81951e-10
-7.61662e-10
2.5178e-10
-7.40574e-10
2.2514e-10
-7.1871e-10
2.01477e-10
-6.97251e-10
1.80347e-10
-6.77029e-10
1.61437e-10
-6.58552e-10
1.4452e-10
-6.42096e-10
1.29411e-10
-6.27769e-10
1.15953e-10
-6.15572e-10
1.04e-10
-6.05428e-10
9.34154e-11
-5.97214e-10
8.40727e-11
-5.90773e-10
7.58536e-11
-5.85929e-10
6.86494e-11
-5.825e-10
6.23606e-11
-5.80303e-10
5.68961e-11
-5.79167e-10
5.21727e-11
-5.78931e-10
4.81147e-11
-5.79453e-10
4.4653e-11
-5.80606e-10
4.17242e-11
-5.82283e-10
3.92709e-11
-5.84391e-10
3.72407e-11
-5.86854e-10
3.55857e-11
-5.89607e-10
3.42627e-11
-5.92598e-10
3.32323e-11
-5.95786e-10
3.24589e-11
-5.99137e-10
3.19104e-11
-6.02623e-10
3.15577e-11
-6.06222e-10
3.13748e-11
-6.09918e-10
3.13383e-11
-6.13697e-10
3.14274e-11
-6.17547e-10
3.16235e-11
3.19101e-11
-6.2146e-10
-7.55459e-13
-1.02431e-12
-2.83923e-12
-2.82645e-12
-6.13432e-12
-4.35338e-12
-1.05475e-11
-5.59588e-12
-1.688e-11
-6.58438e-12
-1.84751e-10
-7.46628e-12
-1.92771e-10
-7.36755e-12
-2.41481e-10
1.44739e-10
-3.75651e-10
2.0063e-10
-4.88316e-10
2.47025e-10
-4.64801e-10
3.17499e-10
-2.96233e-10
3.629e-10
-1.78171e-10
3.66694e-10
-9.28684e-11
3.58527e-10
-3.80556e-11
3.43316e-10
-7.8085e-12
3.24135e-10
4.74252e-12
3.03397e-10
4.36402e-12
2.8233e-10
-5.50812e-12
2.61653e-10
-2.21285e-11
2.4176e-10
-4.35217e-11
2.2287e-10
-6.82629e-11
2.05088e-10
-9.52814e-11
1.88456e-10
-1.23742e-10
1.7298e-10
-1.52978e-10
1.58647e-10
-1.82454e-10
1.45429e-10
-2.11741e-10
1.33287e-10
-2.40504e-10
1.22178e-10
-2.68485e-10
1.12054e-10
-2.95495e-10
1.02864e-10
-3.21399e-10
9.45532e-11
-3.46108e-10
8.7069e-11
-3.69568e-10
8.03564e-11
-3.91757e-10
7.43614e-11
-4.12673e-10
6.90308e-11
-4.32333e-10
6.43132e-11
-4.50768e-10
6.0159e-11
-4.68018e-10
5.65212e-11
-4.84132e-10
5.3355e-11
-4.99166e-10
5.06196e-11
-5.13179e-10
4.82755e-11
-5.26231e-10
4.62841e-11
-5.38383e-10
4.46109e-11
-5.49696e-10
4.32237e-11
-5.60231e-10
4.20929e-11
-5.70047e-10
4.11911e-11
-5.79202e-10
4.0493e-11
-5.8775e-10
3.99755e-11
-5.95744e-10
3.96174e-11
3.93994e-11
-6.03233e-10
-4.31458e-13
-5.92848e-13
-1.67022e-12
-1.58769e-12
-3.63138e-12
-2.39222e-12
-6.22122e-12
-3.00604e-12
-1.76948e-11
-3.43528e-12
-1.58253e-10
-3.77971e-12
-1.61843e-10
-3.77849e-12
-1.24629e-10
1.07526e-10
-9.10225e-11
1.67023e-10
-4.05174e-11
1.9652e-10
5.76879e-11
2.19294e-10
1.8262e-10
2.37968e-10
2.9751e-10
2.51803e-10
3.95198e-10
2.6084e-10
4.73083e-10
2.65431e-10
5.31059e-10
2.66159e-10
5.70757e-10
2.63698e-10
5.94396e-10
2.58691e-10
6.04342e-10
2.51707e-10
6.0288e-10
2.43222e-10
5.92115e-10
2.33636e-10
5.73918e-10
2.23285e-10
5.49918e-10
2.12456e-10
5.21508e-10
2.0139e-10
4.89862e-10
1.90294e-10
4.55949e-10
1.79342e-10
4.2056e-10
1.68676e-10
3.8433e-10
1.58408e-10
3.47758e-10
1.48627e-10
3.11231e-10
1.39391e-10
2.75048e-10
1.30735e-10
2.39436e-10
1.22682e-10
2.04554e-10
1.15239e-10
1.70517e-10
1.08398e-10
1.37405e-10
1.02143e-10
1.05268e-10
9.64496e-11
7.41375e-11
9.12898e-11
4.40259e-11
8.66328e-11
1.49348e-11
8.24461e-11
-1.31412e-11
7.86956e-11
-4.02146e-11
7.53488e-11
-6.63062e-11
7.23758e-11
-9.14414e-11
6.9746e-11
-1.15648e-10
6.74302e-11
-1.38955e-10
6.54004e-11
-1.61395e-10
6.36303e-11
-1.82997e-10
6.2095e-11
-2.03793e-10
6.07715e-11
-2.23814e-10
5.96382e-11
5.86756e-11
-2.4309e-10
-3.97645e-13
-1.95204e-13
-1.54128e-12
-4.44061e-13
-3.36394e-12
-5.69551e-13
-5.77271e-12
-5.97272e-13
-3.09004e-11
-5.75855e-13
-1.60687e-10
-4.73891e-13
-1.64163e-10
-3.02156e-13
-8.4963e-11
2.83254e-11
2.15148e-11
6.05454e-11
1.23997e-10
9.40378e-11
2.16809e-10
1.26482e-10
2.98358e-10
1.5642e-10
3.67152e-10
1.83009e-10
4.22054e-10
2.05938e-10
4.6244e-10
2.25045e-10
4.88284e-10
2.40316e-10
5.00142e-10
2.5184e-10
4.99048e-10
2.59786e-10
4.86376e-10
2.64379e-10
4.63706e-10
2.65891e-10
4.32706e-10
2.64636e-10
3.95026e-10
2.60965e-10
3.52229e-10
2.55252e-10
3.05748e-10
2.47871e-10
2.56869e-10
2.39173e-10
2.06731e-10
2.2948e-10
1.56317e-10
2.19089e-10
1.0646e-10
2.08265e-10
5.78425e-11
1.97244e-10
1.10028e-11
1.8623e-10
-3.36656e-11
1.75404e-10
-7.58873e-11
1.64903e-10
-1.15482e-10
1.54833e-10
-1.52358e-10
1.45274e-10
-1.86498e-10
1.36283e-10
-2.17945e-10
1.27897e-10
-2.46788e-10
1.20132e-10
-2.73149e-10
1.12994e-10
-2.97176e-10
1.06473e-10
-3.19031e-10
1.00551e-10
-3.38883e-10
9.52008e-11
-3.569e-10
9.03926e-11
-3.73245e-10
8.60912e-11
-3.88075e-10
8.22603e-11
-4.01537e-10
7.88627e-11
-4.13769e-10
7.58621e-11
-4.24898e-10
7.32237e-11
-4.35041e-10
7.09146e-11
-4.44304e-10
6.89015e-11
6.71533e-11
-4.52782e-10
-5.24319e-13
3.29116e-13
-1.92044e-12
9.52059e-13
-4.03356e-12
1.54357e-12
-6.76184e-12
2.13101e-12
-5.31131e-11
2.58501e-12
-1.7317e-10
2.08276e-12
-1.17025e-10
-5.64476e-11
5.07982e-11
-1.39497e-10
2.38816e-10
-1.27472e-10
4.35171e-10
-1.02318e-10
6.08278e-10
-4.66255e-11
7.70289e-10
-5.5911e-12
9.08416e-10
4.48816e-11
1.02567e-09
8.86804e-11
1.12281e-09
1.27908e-10
1.19981e-09
1.63314e-10
1.25628e-09
1.95368e-10
1.2921e-09
2.2397e-10
1.30792e-09
2.48556e-10
1.3054e-09
2.6841e-10
1.28713e-09
2.82913e-10
1.25633e-09
2.91759e-10
1.21637e-09
2.95211e-10
1.17004e-09
2.94204e-10
1.11949e-09
2.89728e-10
1.06628e-09
2.82682e-10
1.01156e-09
2.73818e-10
9.56083e-10
2.63739e-10
9.00386e-10
2.52941e-10
8.44786e-10
2.4183e-10
7.89467e-10
2.30723e-10
7.34521e-10
2.19849e-10
6.79996e-10
2.09358e-10
6.25933e-10
1.99338e-10
5.7238e-10
1.89836e-10
5.19403e-10
1.80874e-10
4.67082e-10
1.72453e-10
4.15522e-10
1.64555e-10
3.6485e-10
1.57144e-10
3.1522e-10
1.5018e-10
2.66799e-10
1.43622e-10
2.1975e-10
1.37441e-10
1.74222e-10
1.31619e-10
1.30333e-10
1.26149e-10
8.81716e-11
1.21024e-10
4.77994e-11
1.16234e-10
9.25671e-12
1.11766e-10
-2.74314e-11
1.07603e-10
-6.22541e-11
1.03724e-10
1.00111e-10
-9.52122e-11
-1.57407e-12
1.90318e-12
-6.14722e-12
5.52521e-12
-1.38441e-11
9.2404e-12
-2.47407e-11
1.2975e-11
-2.50206e-10
1.72232e-11
-2.63068e-10
1.49448e-11
-8.22122e-11
-2.37303e-10
-1.13994e-10
-1.07716e-10
-4.47294e-11
-1.96737e-10
5.44168e-11
-2.01464e-10
1.53348e-10
-1.45556e-10
2.31872e-10
-8.41154e-11
1.91457e-10
8.52963e-11
3.33541e-11
2.46784e-10
-2.06907e-10
3.68169e-10
-4.93072e-10
4.49479e-10
-7.97429e-10
4.99725e-10
-1.09839e-09
5.24927e-10
-1.37775e-09
5.27921e-10
-1.61841e-09
5.09065e-10
-1.80631e-09
4.70818e-10
-1.93669e-09
4.22141e-10
-2.01525e-09
3.73772e-10
-2.05106e-09
3.30012e-10
-2.05293e-09
2.91602e-10
-2.02609e-09
2.55833e-10
-1.97397e-09
2.21703e-10
-1.90014e-09
1.89904e-10
-1.80898e-09
1.61787e-10
-1.7059e-09
1.38752e-10
-1.59667e-09
1.21486e-10
-1.48636e-09
1.09545e-10
-1.37867e-09
1.01661e-10
-1.27578e-09
9.64482e-11
-1.179e-09
9.30588e-11
-1.08926e-09
9.11297e-11
-1.00721e-09
9.04081e-11
-9.33262e-10
9.06059e-11
-8.67524e-10
9.14067e-11
-8.09826e-10
9.2483e-11
-7.59781e-10
9.35776e-11
-7.16756e-10
9.44158e-11
-6.79943e-10
9.48056e-11
-6.48479e-10
9.46863e-11
-6.2155e-10
9.40942e-11
-5.98426e-10
9.31107e-11
-5.78476e-10
9.18162e-11
-5.61149e-10
9.02759e-11
-5.45972e-10
8.85469e-11
8.6676e-11
-5.32536e-10
6.67481e-13
1.2357e-12
2.40464e-12
3.78805e-12
4.80013e-12
6.84491e-12
7.55744e-12
1.02142e-11
-2.08696e-10
1.44691e-11
-2.3319e-10
3.774e-11
-4.50506e-10
-2.0683e-11
-5.82325e-10
2.41034e-11
-6.52858e-10
-1.26204e-10
-9.82946e-10
1.28624e-10
-9.63163e-10
-1.65339e-10
-1.06498e-09
1.77062e-11
-1.11297e-09
1.33283e-10
-1.12974e-09
2.63557e-10
-1.1088e-09
3.47227e-10
-1.06171e-09
4.02383e-10
-9.97841e-10
4.3586e-10
-9.03167e-10
4.30253e-10
-7.89898e-10
4.14652e-10
-6.70853e-10
3.9002e-10
-5.65084e-10
3.65048e-10
-4.74217e-10
3.31274e-10
-3.76935e-10
2.76489e-10
-2.17571e-10
1.70648e-10
-6.74537e-11
1.41484e-10
5.03712e-11
1.38008e-10
1.44923e-10
1.27151e-10
2.18435e-10
1.16392e-10
2.71226e-10
1.08996e-10
3.0112e-10
1.08857e-10
3.06923e-10
1.15684e-10
2.89059e-10
1.27409e-10
2.49068e-10
1.41651e-10
1.88973e-10
1.56543e-10
1.11719e-10
1.70313e-10
2.09484e-11
1.819e-10
-8.21169e-11
1.93473e-10
-1.97802e-10
2.06291e-10
-3.24404e-10
2.18009e-10
-4.55775e-10
2.23853e-10
-5.81117e-10
2.1892e-10
-6.8919e-10
2.02489e-10
-7.74081e-10
1.79696e-10
-8.36042e-10
1.56647e-10
-8.79623e-10
1.37675e-10
-9.09714e-10
1.23203e-10
-9.30347e-10
1.12449e-10
-9.44645e-10
1.04574e-10
-9.54622e-10
9.85238e-11
9.3723e-11
-9.61669e-10
3.65575e-12
-2.42005e-12
1.37422e-11
-6.29845e-12
3.00175e-11
-9.43038e-12
5.21279e-11
-1.18962e-11
8.00694e-11
-1.35658e-11
9.98642e-11
-1.74515e-11
1.97894e-10
-1.99385e-11
2.21478e-10
-2.80034e-11
1.16635e-10
-3.90753e-11
2.78662e-10
-4.44928e-11
7.16437e-11
4.11239e-11
6.27725e-11
2.64568e-11
1.82757e-10
1.32991e-11
4.22515e-10
2.37987e-11
7.31516e-10
3.82258e-11
1.06519e-09
6.87133e-11
1.43732e-09
6.37299e-11
1.73454e-09
1.33031e-10
1.96368e-09
1.85506e-10
2.12289e-09
2.30809e-10
2.2003e-09
2.87643e-10
2.27852e-09
2.53054e-10
2.64705e-09
-9.20402e-11
2.93208e-09
-1.14384e-10
3.09959e-09
-2.60202e-11
3.21154e-09
2.605e-11
3.27143e-09
6.72661e-11
3.28763e-09
1.0019e-10
3.26288e-09
1.33747e-10
3.20776e-09
1.63972e-10
3.1457e-09
1.77747e-10
3.08192e-09
1.91193e-10
3.06021e-09
1.6336e-10
3.08285e-09
1.33903e-10
3.10193e-09
1.51234e-10
3.10438e-09
1.79448e-10
3.08541e-09
2.12443e-10
3.04095e-09
2.50747e-10
2.99309e-09
2.65877e-10
2.93203e-09
2.84912e-10
2.87544e-09
2.75511e-10
2.79369e-09
2.84231e-10
2.67241e-09
3.00976e-10
2.53301e-09
2.96048e-10
2.38676e-09
2.83933e-10
2.23803e-09
2.71928e-10
2.08714e-09
2.63343e-10
1.936e-09
2.55708e-10
1.79296e-09
2.41561e-10
2.24781e-10
1.66191e-09
7.89102e-13
-3.20915e-12
3.90642e-12
-9.41577e-12
9.77401e-12
-1.5298e-11
1.85908e-11
-2.0713e-11
3.07977e-11
-2.57726e-11
4.3714e-11
-3.03678e-11
5.85142e-11
-3.47387e-11
6.88649e-11
-3.83448e-11
7.1451e-11
-4.12676e-11
7.52036e-11
-4.2785e-11
1.15064e-10
-4.4434e-11
1.40345e-10
-4.57169e-11
1.66187e-10
-4.86317e-11
2.08192e-10
-5.07185e-11
2.69131e-10
-5.16678e-11
3.64334e-10
-5.11454e-11
4.5731e-10
-4.93938e-11
6.2065e-10
-4.57201e-11
8.36506e-10
-4.15671e-11
1.09668e-09
-3.69597e-11
1.4118e-09
-3.20434e-11
1.68192e-09
-1.86339e-11
1.5678e-09
2.19693e-11
1.45991e-09
-6.49633e-12
1.41302e-09
2.08736e-11
1.40129e-09
3.77788e-11
1.41529e-09
5.32621e-11
1.42993e-09
8.55556e-11
1.4384e-09
1.25273e-10
1.43516e-09
1.67209e-10
1.42579e-09
1.8712e-10
1.56783e-09
4.91522e-11
1.80493e-09
-7.37388e-11
2.00191e-09
-6.30819e-11
2.20012e-09
-4.69725e-11
2.38069e-09
-1.12108e-12
2.55306e-09
4.00701e-11
2.77206e-09
3.17551e-11
3.06279e-09
-2.48561e-11
3.44289e-09
-9.51869e-11
3.68609e-09
3.23044e-11
3.77337e-09
1.96953e-10
3.79515e-09
2.79195e-10
3.70224e-09
3.88965e-10
3.65662e-09
3.29545e-10
3.63376e-09
2.94789e-10
3.6212e-09
2.75902e-10
3.65008e-09
2.2683e-10
3.7005e-09
1.91145e-10
2.00326e-10
3.72495e-09
2.91757e-13
-3.50091e-12
7.67641e-13
-9.89165e-12
1.29604e-12
-1.58264e-11
1.9604e-12
-2.13774e-11
2.7245e-12
-2.65367e-11
3.68338e-12
-3.13267e-11
4.68468e-12
-3.574e-11
6.13305e-12
-3.97932e-11
8.32744e-12
-4.3462e-11
1.23161e-11
-4.67737e-11
1.7608e-11
-4.97259e-11
2.43131e-11
-5.2422e-11
3.03803e-11
-5.47072e-11
3.61685e-11
-5.65298e-11
4.21514e-11
-5.7674e-11
4.91325e-11
-5.80973e-11
5.76435e-11
-5.78267e-11
6.88868e-11
-5.68929e-11
8.29314e-11
-5.53388e-11
9.92519e-11
-5.30487e-11
1.18708e-10
-4.99237e-11
1.42232e-10
-4.59382e-11
1.87546e-10
-4.20298e-11
1.89343e-10
-3.79477e-11
2.34316e-10
-3.4681e-11
2.94893e-10
-3.05442e-11
3.68295e-10
-2.54853e-11
4.69849e-10
-1.92167e-11
6.05998e-10
-1.24379e-11
7.76717e-10
-3.88842e-12
9.57356e-10
6.43229e-12
9.93397e-10
1.31114e-11
9.36144e-10
-1.6486e-11
8.5947e-10
1.35921e-11
7.75793e-10
3.67046e-11
7.17673e-10
5.69985e-11
7.19627e-10
3.8116e-11
7.79188e-10
-2.78052e-11
8.62036e-10
-1.07705e-10
1.05242e-09
-2.8557e-10
1.26137e-09
-1.76641e-10
1.30338e-09
1.54943e-10
1.13354e-09
4.49035e-10
1.29826e-09
2.2424e-10
1.42908e-09
1.98722e-10
1.53347e-09
1.90405e-10
1.6924e-09
1.16971e-10
1.9462e-09
-2.69664e-11
2.14848e-09
-1.11364e-11
7.57145e-11
2.27309e-09
-6.14071e-13
-2.88683e-12
-2.02518e-12
-8.48054e-12
-4.05546e-12
-1.37961e-11
-6.66079e-12
-1.87721e-11
-9.79564e-12
-2.34018e-11
-1.34443e-11
-2.7678e-11
-1.75838e-11
-3.16005e-11
-2.2216e-11
-3.5161e-11
-2.73169e-11
-3.83612e-11
-3.28983e-11
-4.11922e-11
-3.89665e-11
-4.36576e-11
-4.56389e-11
-4.57497e-11
-5.28775e-11
-4.74686e-11
-6.0605e-11
-4.88024e-11
-6.85299e-11
-4.97491e-11
-7.63235e-11
-5.03036e-11
-8.36809e-11
-5.04693e-11
-9.03205e-11
-5.02533e-11
-9.59948e-11
-4.96646e-11
-1.00321e-10
-4.87228e-11
-1.02803e-10
-4.74409e-11
-1.02881e-10
-4.58603e-11
-1.00904e-10
-4.40076e-11
-9.69655e-11
-4.18859e-11
-9.2254e-11
-3.93912e-11
-8.63561e-11
-3.64449e-11
-7.89375e-11
-3.29026e-11
-6.93179e-11
-2.88311e-11
-5.75251e-11
-2.4173e-11
-4.24324e-11
-1.92396e-11
-2.63702e-11
-1.42894e-11
-1.33694e-11
-9.67151e-12
-2.59607e-11
-4.72186e-12
-1.27364e-11
1.8901e-13
1.53498e-11
8.52621e-12
5.84576e-11
1.3857e-11
7.87755e-11
1.77981e-11
4.3883e-11
7.0873e-12
-7.21351e-11
8.31338e-12
-3.33396e-10
-2.43095e-11
-4.54189e-10
-5.58479e-11
-2.89796e-10
-9.45014e-12
1.49714e-10
9.5249e-12
3.66853e-10
7.10122e-12
5.4121e-10
2.43648e-11
6.86265e-10
4.535e-11
8.04409e-10
-1.17279e-12
8.55519e-10
-7.80764e-11
8.58337e-10
-1.39544e-11
-3.2039e-12
9.37255e-10
-3.41067e-13
-2.54577e-12
-1.50478e-12
-7.31683e-12
-3.47908e-12
-1.18218e-11
-6.17279e-12
-1.60784e-11
-9.49849e-12
-2.00761e-11
-1.33675e-11
-2.3809e-11
-1.76974e-11
-2.72706e-11
-2.24019e-11
-3.04565e-11
-2.74016e-11
-3.33614e-11
-3.26122e-11
-3.59817e-11
-3.79566e-11
-3.83132e-11
-4.33533e-11
-4.0353e-11
-4.8724e-11
-4.20979e-11
-5.39809e-11
-4.35455e-11
-5.90358e-11
-4.46942e-11
-6.37968e-11
-4.55426e-11
-6.8174e-11
-4.60921e-11
-7.20851e-11
-4.63422e-11
-7.54521e-11
-4.62976e-11
-7.82162e-11
-4.59587e-11
-8.03232e-11
-4.53339e-11
-8.17594e-11
-4.44241e-11
-8.2525e-11
-4.32419e-11
-8.2623e-11
-4.17879e-11
-8.19384e-11
-4.00758e-11
-8.02797e-11
-3.81036e-11
-7.72893e-11
-3.5893e-11
-7.26734e-11
-3.34469e-11
-6.60438e-11
-3.08027e-11
-5.73129e-11
-2.79706e-11
-4.66001e-11
-2.50021e-11
-3.43903e-11
-2.18825e-11
-2.05264e-11
-1.8586e-11
-5.38216e-12
-1.49623e-11
1.31645e-11
-1.15459e-11
2.93217e-11
-8.18234e-12
4.59177e-11
-5.58513e-12
5.55479e-11
-2.90695e-12
6.34616e-11
3.35121e-13
2.88217e-11
1.03182e-11
-2.61737e-11
-8.52475e-13
-5.20751e-11
1.64513e-11
-3.57148e-11
-6.83547e-12
-3.63251e-12
-2.4981e-11
2.30139e-11
-2.28164e-12
6.42326e-11
4.13141e-12
6.52837e-11
-2.22396e-12
-1.38572e-11
1.06455e-12
-2.60558e-11
-1.75583e-12
-6.31245e-12
-2.29473e-11
-4.51373e-13
-2.09439e-12
-1.60738e-12
-6.16083e-12
-3.36822e-12
-1.00609e-11
-5.67815e-12
-1.37684e-11
-8.47608e-12
-1.72782e-11
-1.16986e-11
-2.05865e-11
-1.5279e-11
-2.36902e-11
-1.91493e-11
-2.65862e-11
-2.32385e-11
-2.92722e-11
-2.74744e-11
-3.17458e-11
-3.17822e-11
-3.40054e-11
-3.60859e-11
-3.60493e-11
-4.03069e-11
-3.78769e-11
-4.43653e-11
-3.94871e-11
-4.81792e-11
-4.08804e-11
-5.16656e-11
-4.20563e-11
-5.4741e-11
-4.30166e-11
-5.73218e-11
-4.37614e-11
-5.93254e-11
-4.4294e-11
-6.06696e-11
-4.46145e-11
-6.12756e-11
-4.47279e-11
-6.10655e-11
-4.46342e-11
-5.99667e-11
-4.43407e-11
-5.79087e-11
-4.3846e-11
-5.48241e-11
-4.31603e-11
-5.06474e-11
-4.22803e-11
-4.53195e-11
-4.12209e-11
-3.87907e-11
-3.99756e-11
-3.1027e-11
-3.85664e-11
-2.20165e-11
-3.69811e-11
-1.17681e-11
-3.52505e-11
-2.98194e-13
-3.33524e-11
1.2444e-11
-3.13283e-11
2.66215e-11
-2.91398e-11
4.19257e-11
-2.68501e-11
5.81456e-11
-2.44022e-11
7.42739e-11
-2.18439e-11
9.02904e-11
-1.89916e-11
1.06511e-10
-1.60647e-11
1.21831e-10
-1.36435e-11
1.29613e-10
-1.09818e-11
1.55543e-10
-9.84972e-12
1.55793e-10
-7.23184e-12
1.31157e-10
-3.63062e-13
1.21823e-10
7.05217e-12
1.37776e-10
-1.18213e-11
1.22321e-10
1.32307e-11
1.15261e-10
8.12493e-12
1.21135e-10
-7.62942e-12
-1.72629e-11
1.32085e-10
-3.16739e-13
-1.30485e-12
-2.93298e-12
-5.13582e-12
-7.84915e-12
-1.10098e-11
-1.4556e-11
-1.84265e-11
-2.25611e-11
-2.69002e-11
-3.1385e-11
-3.5957e-11
-4.05584e-11
-4.51317e-11
-4.96199e-11
-5.3966e-11
-5.81142e-11
-6.20078e-11
-6.55921e-11
-6.88108e-11
-7.16101e-11
-7.39339e-11
-7.57296e-11
-7.69405e-11
-7.75154e-11
-7.73966e-11
-7.65348e-11
-7.48717e-11
-7.23626e-11
-6.89491e-11
-6.45929e-11
-5.92336e-11
-5.28391e-11
-4.53423e-11
-3.67209e-11
-2.69068e-11
-1.5851e-11
-3.34403e-12
1.06411e-11
2.55158e-11
4.1465e-11
5.67024e-11
7.25713e-11
9.48679e-11
1.20196e-10
1.27244e-10
1.58085e-10
1.84104e-10
2.00386e-10
2.07767e-10
-9.59539e-10
4.80715e-11
-9.53459e-10
4.82073e-11
-9.47404e-10
4.83321e-11
-9.41393e-10
4.84433e-11
-9.35441e-10
4.85388e-11
-9.29564e-10
4.86173e-11
-9.23775e-10
4.86782e-11
-9.18086e-10
4.87209e-11
-9.12509e-10
4.87456e-11
-9.07053e-10
4.87525e-11
-9.01727e-10
4.8742e-11
-8.96537e-10
4.87148e-11
-8.91491e-10
4.86716e-11
-8.86592e-10
4.86133e-11
-8.81845e-10
4.85406e-11
-8.77253e-10
4.84545e-11
-8.72819e-10
4.8356e-11
-8.68545e-10
4.82459e-11
-8.64431e-10
4.81251e-11
-8.60478e-10
4.79947e-11
-8.56686e-10
4.78553e-11
-8.53056e-10
4.77078e-11
-8.49585e-10
4.75529e-11
-8.46274e-10
4.73914e-11
-8.4312e-10
4.72239e-11
-8.40123e-10
4.7051e-11
-8.37279e-10
4.68731e-11
-8.34587e-10
4.66907e-11
-8.32045e-10
4.6504e-11
-8.29651e-10
4.63135e-11
-8.27401e-10
4.61193e-11
-8.25293e-10
4.59215e-11
-8.23324e-10
4.57201e-11
-8.21492e-10
4.5515e-11
-8.19793e-10
4.5306e-11
-8.18225e-10
4.50928e-11
-8.16784e-10
4.48749e-11
-8.15467e-10
4.46518e-11
-8.14271e-10
4.44225e-11
-8.13192e-10
4.41861e-11
-8.12228e-10
4.39415e-11
-8.11374e-10
4.36872e-11
-8.10628e-10
4.34222e-11
-8.09985e-10
4.31451e-11
-8.09444e-10
4.28551e-11
-8.09e-10
4.25517e-11
-8.08652e-10
4.22354e-11
-8.08398e-10
4.19086e-11
-8.08235e-10
4.15774e-11
4.12649e-11
-8.08175e-10
-1.02334e-09
4.0314e-11
-1.01576e-09
4.06255e-11
-1.00836e-09
4.09336e-11
-1.00115e-09
4.1234e-11
-9.94136e-10
4.1523e-11
-9.87318e-10
4.17984e-11
-9.80698e-10
4.20583e-11
-9.74278e-10
4.23017e-11
-9.68061e-10
4.25278e-11
-9.62045e-10
4.27364e-11
-9.5623e-10
4.29274e-11
-9.50616e-10
4.3101e-11
-9.45202e-10
4.32576e-11
-9.39986e-10
4.33977e-11
-9.34968e-10
4.35219e-11
-9.30144e-10
4.36308e-11
-9.25513e-10
4.37252e-11
-9.21073e-10
4.38058e-11
-9.16821e-10
4.38734e-11
-9.12755e-10
4.39286e-11
-9.08872e-10
4.39722e-11
-9.05169e-10
4.4005e-11
-9.01644e-10
4.40275e-11
-8.98293e-10
4.40404e-11
-8.95113e-10
4.40443e-11
-8.92102e-10
4.40396e-11
-8.89256e-10
4.4027e-11
-8.86572e-10
4.40066e-11
-8.84047e-10
4.39789e-11
-8.81677e-10
4.39442e-11
-8.79461e-10
4.39026e-11
-8.77393e-10
4.38542e-11
-8.75472e-10
4.3799e-11
-8.73694e-10
4.3737e-11
-8.72056e-10
4.36679e-11
-8.70555e-10
4.35915e-11
-8.69187e-10
4.35072e-11
-8.6795e-10
4.34144e-11
-8.66839e-10
4.33123e-11
-8.65853e-10
4.31997e-11
-8.64987e-10
4.30755e-11
-8.64238e-10
4.29382e-11
-8.63602e-10
4.27867e-11
-8.63077e-10
4.26195e-11
-8.62657e-10
4.24357e-11
-8.62341e-10
4.22349e-11
-8.62123e-10
4.20177e-11
-8.62001e-10
4.17868e-11
-8.61972e-10
4.15487e-11
4.13254e-11
-8.62033e-10
-1.01529e-09
3.37048e-11
-1.0088e-09
3.41408e-11
-1.00246e-09
3.45884e-11
-9.96261e-10
3.50398e-11
-9.90227e-10
3.54893e-11
-9.84361e-10
3.59322e-11
-9.78668e-10
3.63653e-11
-9.73152e-10
3.67859e-11
-9.67817e-10
3.71923e-11
-9.62664e-10
3.75831e-11
-9.57694e-10
3.79575e-11
-9.52908e-10
3.83151e-11
-9.48306e-10
3.86556e-11
-9.43887e-10
3.89792e-11
-9.39652e-10
3.92861e-11
-9.35597e-10
3.95765e-11
-9.31723e-10
3.98509e-11
-9.28027e-10
4.01098e-11
-9.24507e-10
4.03538e-11
-9.21162e-10
4.05835e-11
-9.17989e-10
4.07994e-11
-9.14987e-10
4.10021e-11
-9.12151e-10
4.11923e-11
-9.09481e-10
4.13704e-11
-9.06974e-10
4.1537e-11
-9.04627e-10
4.16924e-11
-9.02437e-10
4.18372e-11
-9.00402e-10
4.19717e-11
-8.98519e-10
4.20962e-11
-8.96786e-10
4.22109e-11
-8.952e-10
4.2316e-11
-8.93757e-10
4.24115e-11
-8.92456e-10
4.24976e-11
-8.91293e-10
4.25741e-11
-8.90265e-10
4.26407e-11
-8.89371e-10
4.26972e-11
-8.88607e-10
4.2743e-11
-8.8797e-10
4.27775e-11
-8.87458e-10
4.27998e-11
-8.87067e-10
4.28088e-11
-8.86795e-10
4.28033e-11
-8.86638e-10
4.27819e-11
-8.86595e-10
4.27433e-11
-8.86662e-10
4.26862e-11
-8.86836e-10
4.26098e-11
-8.87115e-10
4.25138e-11
-8.87496e-10
4.2399e-11
-8.87978e-10
4.22684e-11
-8.88558e-10
4.21291e-11
4.19942e-11
-8.89227e-10
-9.99694e-10
3.02142e-11
-9.96086e-10
3.05329e-11
-9.92396e-10
3.0898e-11
-9.88654e-10
3.12976e-11
-9.84887e-10
3.17223e-11
-9.81119e-10
3.21641e-11
-9.7737e-10
3.26165e-11
-9.73659e-10
3.30745e-11
-9.7e-10
3.35337e-11
-9.66408e-10
3.39908e-11
-9.62893e-10
3.44431e-11
-9.59467e-10
3.48887e-11
-9.56137e-10
3.53258e-11
-9.52911e-10
3.57532e-11
-9.49795e-10
3.61702e-11
-9.46795e-10
3.65759e-11
-9.43914e-10
3.69701e-11
-9.41157e-10
3.73525e-11
-9.38526e-10
3.77229e-11
-9.36024e-10
3.80815e-11
-9.33653e-10
3.84282e-11
-9.31414e-10
3.87632e-11
-9.29308e-10
3.90866e-11
-9.27336e-10
3.93987e-11
-9.25499e-10
3.96995e-11
-9.23796e-10
3.99894e-11
-9.22227e-10
4.02685e-11
-9.20792e-10
4.05368e-11
-9.1949e-10
4.07946e-11
-9.18321e-10
4.10418e-11
-9.17284e-10
4.12784e-11
-9.16377e-10
4.15045e-11
-9.15599e-10
4.17199e-11
-9.14949e-10
4.19244e-11
-9.14426e-10
4.21176e-11
-9.14028e-10
4.22993e-11
-9.13754e-10
4.24687e-11
-9.13602e-10
4.26253e-11
-9.1357e-10
4.27679e-11
-9.13657e-10
4.28956e-11
-9.1386e-10
4.3007e-11
-9.14179e-10
4.31007e-11
-9.14611e-10
4.31755e-11
-9.15155e-10
4.32299e-11
-9.15808e-10
4.32632e-11
-9.1657e-10
4.32749e-11
-9.17437e-10
4.32659e-11
-9.18407e-10
4.3239e-11
-9.19479e-10
4.32012e-11
4.31877e-11
-9.20673e-10
-8.36462e-10
3.12227e-11
-8.37343e-10