/*--------------------------------*- C++ -*----------------------------------*\
| =========                 |                                                 |
| \\      /  F ield         | OpenFOAM: The Open Source CFD Toolbox           |
|  \\    /   O peration     | Version:  2.4.0                                 |
|   \\  /    A nd           | Web:      www.OpenFOAM.org                      |
|    \\/     M anipulation  |                                                 |
\*---------------------------------------------------------------------------*/
FoamFile
{
    version     2.0;
    format      ascii;
    class       volVectorField;
    location    "2";
    object      U;
}
// * * * * * * * * * * * * * * * * * * * * * * * * * * * * * * * * * * * * * //

dimensions      [0 1 -1 0 0 0 0];

internalField   nonuniform List<vector> 
8000
(
(4.77672e-07 -0.000267592 0)
(6.2275e-06 -0.000782856 0)
(1.77154e-05 -0.00127851 0)
(3.43682e-05 -0.00175499 0)
(5.54797e-05 -0.00221259 0)
(8.02987e-05 -0.00265174 0)
(0.000108361 -0.00307267 0)
(0.000139015 -0.00347581 0)
(0.000171876 -0.00386129 0)
(0.000206258 -0.00422952 0)
(0.000241782 -0.00458054 0)
(0.000277653 -0.00491476 0)
(0.000313414 -0.00523206 0)
(0.000348149 -0.00553282 0)
(0.00038192 -0.00581651 0)
(0.00041536 -0.00608323 0)
(0.000450924 -0.00633279 0)
(0.0004807 -0.00657096 0)
(0.00045671 -0.00681667 0)
(0.00025531 -0.0068284 0)
(-2.56414e-05 -0.00682118 0)
(-0.000250254 -0.00662161 0)
(-0.000577018 -0.00601743 0)
(-0.00169424 0.00443665 0)
(-0.00282908 0.0024676 0)
(-0.00777884 0.00857367 0)
(-0.00683311 0.00734194 0)
(-0.00734627 0.00674355 0)
(-0.00786712 0.00655277 0)
(-0.00822648 0.00649668 0)
(-0.00841 0.00646547 0)
(-0.00848796 0.00642111 0)
(-0.00850655 0.00635684 0)
(-0.00849128 0.0062771 0)
(-0.00845702 0.00618914 0)
(-0.00841312 0.00609971 0)
(-0.00836519 0.00601401 0)
(-0.00831631 0.0059355 0)
(-0.00826788 0.0058662 0)
(-0.00822031 0.00580687 0)
(-0.00817354 0.00575742 0)
(-0.00812729 0.00571713 0)
(-0.00808122 0.00568493 0)
(-0.00803503 0.00565954 0)
(-0.00798852 0.00563967 0)
(-0.00794157 0.00562405 0)
(-0.00789413 0.00561153 0)
(-0.00784623 0.00560111 0)
(-0.00779794 0.00559192 0)
(-0.00774938 0.00558324 0)
(6.92221e-07 -0.000309016 0)
(4.43595e-06 -0.00089693 0)
(1.14623e-05 -0.00145627 0)
(2.16799e-05 -0.00198857 0)
(3.50194e-05 -0.00249511 0)
(5.16075e-05 -0.0029768 0)
(7.13904e-05 -0.00343436 0)
(9.45127e-05 -0.00386826 0)
(0.00012077 -0.00427861 0)
(0.000150273 -0.00466565 0)
(0.000182586 -0.00502878 0)
(0.000217915 -0.00536823 0)
(0.000256223 -0.00568221 0)
(0.000300079 -0.00597199 0)
(0.000352933 -0.00623838 0)
(0.000405919 -0.00649751 0)
(0.000383582 -0.00677995 0)
(0.000102268 -0.0066956 0)
(-0.000339321 -0.00654961 0)
(-0.000703904 -0.00646538 0)
(-0.00100735 -0.0050994 0)
(-0.00274951 -0.000428165 0)
(-0.00411715 -0.000135781 0)
(-0.00745524 0.0509176 0)
(-0.00537113 0.0397605 0)
(-0.0065671 0.03055 0)
(-0.0073724 0.0233151 0)
(-0.00794321 0.0177964 0)
(-0.00833912 0.0136825 0)
(-0.00863296 0.0106819 0)
(-0.00884477 0.00853332 0)
(-0.00898764 0.00701925 0)
(-0.00907501 0.00596653 0)
(-0.00911956 0.00524248 0)
(-0.00913182 0.00474885 0)
(-0.00912004 0.00441507 0)
(-0.00909061 0.0041917 0)
(-0.00904838 0.00404474 0)
(-0.008997 0.00395108 0)
(-0.00893922 0.00389505 0)
(-0.0088771 0.00386595 0)
(-0.00881215 0.00385638 0)
(-0.0087455 0.00386106 0)
(-0.00867797 0.00387617 0)
(-0.00861019 0.00389882 0)
(-0.00854262 0.00392682 0)
(-0.0084756 0.00395842 0)
(-0.0084094 0.00399228 0)
(-0.00834421 0.00402731 0)
(-0.00828018 0.00406265 0)
(-1.11835e-06 -0.000303408 0)
(-6.59291e-06 -0.000892314 0)
(-1.44248e-05 -0.00146365 0)
(-2.31999e-05 -0.00201798 0)
(-3.06334e-05 -0.00255502 0)
(-3.58093e-05 -0.00307513 0)
(-3.65658e-05 -0.00357735 0)
(-3.24472e-05 -0.00406179 0)
(-2.12301e-05 -0.00452665 0)
(-2.23135e-06 -0.00497159 0)
(2.79218e-05 -0.00539391 0)
(7.24027e-05 -0.00579646 0)
(0.000128125 -0.00618641 0)
(0.00014532 -0.00658177 0)
(-4.1952e-05 -0.00698302 0)
(-0.000422599 -0.00687 0)
(-0.000785082 -0.00696463 0)
(-0.00110981 -0.0065122 0)
(-0.00193255 0.00176169 0)
(-0.00360253 -0.00565743 0)
(-0.0116504 0.0278032 0)
(-0.00904067 0.0303918 0)
(-0.00972528 0.0293608 0)
(-0.0104484 0.0300023 0)
(-0.00984557 0.0278034 0)
(-0.00930386 0.0245538 0)
(-0.00894514 0.0211128 0)
(-0.00876417 0.0178737 0)
(-0.00869567 0.0150159 0)
(-0.00868921 0.0125973 0)
(-0.00871295 0.0106073 0)
(-0.00874722 0.00900272 0)
(-0.00877997 0.00772828 0)
(-0.00880443 0.00672829 0)
(-0.00881745 0.00595193 0)
(-0.00881826 0.00535526 0)
(-0.00880746 0.00490155 0)
(-0.00878638 0.00456074 0)
(-0.00875663 0.00430855 0)
(-0.00871981 0.00412558 0)
(-0.0086774 0.00399642 0)
(-0.00863072 0.00390888 0)
(-0.00858086 0.00385337 0)
(-0.00852873 0.00382233 0)
(-0.00847509 0.00380986 0)
(-0.00842056 0.00381131 0)
(-0.0083656 0.00382306 0)
(-0.00831064 0.00384227 0)
(-0.00825597 0.00386673 0)
(-0.00820186 0.00389473 0)
(-1.42284e-07 -0.000245497 0)
(-4.82427e-10 -0.000753179 0)
(2.57701e-06 -0.0012783 0)
(9.13924e-06 -0.0018157 0)
(2.16814e-05 -0.00237021 0)
(4.19286e-05 -0.00293187 0)
(7.21734e-05 -0.00351055 0)
(0.000115769 -0.00408928 0)
(0.000178981 -0.00468546 0)
(0.000264849 -0.00527876 0)
(0.000337503 -0.00591192 0)
(0.000248473 -0.00661037 0)
(-0.000123046 -0.00672459 0)
(-0.000546895 -0.00668014 0)
(-0.000837666 -0.00729995 0)
(-0.00115602 -0.00405632 0)
(-0.00272752 0.00100509 0)
(-0.00516292 -0.0058014 0)
(-0.00739973 0.0671414 0)
(-0.00657977 0.0512758 0)
(-0.00763516 0.0419642 0)
(-0.00815083 0.0351249 0)
(-0.00837376 0.0301217 0)
(-0.00830115 0.0261417 0)
(-0.0081261 0.0229951 0)
(-0.00795972 0.0202307 0)
(-0.00784524 0.0176907 0)
(-0.00778213 0.0153469 0)
(-0.00776161 0.0132131 0)
(-0.00777322 0.0113074 0)
(-0.00780679 0.00963991 0)
(-0.00785336 0.00820885 0)
(-0.00790574 0.00700278 0)
(-0.00795862 0.00600323 0)
(-0.00800836 0.00518778 0)
(-0.00805266 0.00453252 0)
(-0.00809019 0.00401393 0)
(-0.00812036 0.00361004 0)
(-0.00814309 0.00330112 0)
(-0.00815861 0.00306997 0)
(-0.00816736 0.00290192 0)
(-0.0081699 0.00278466 0)
(-0.00816686 0.002708 0)
(-0.00815886 0.00266359 0)
(-0.00814653 0.00264465 0)
(-0.00813046 0.00264568 0)
(-0.00811119 0.00266222 0)
(-0.00808925 0.00269072 0)
(-0.00806509 0.00272828 0)
(-0.00803913 0.00277261 0)
(4.10272e-07 -0.000297323 0)
(5.4167e-06 -0.000919035 0)
(1.45509e-05 -0.00156931 0)
(2.85784e-05 -0.00224928 0)
(4.55123e-05 -0.00296069 0)
(6.98424e-05 -0.00370545 0)
(0.00010551 -0.00448392 0)
(0.000149094 -0.00530557 0)
(0.000122598 -0.00618197 0)
(-0.000184191 -0.00702575 0)
(-0.000716645 -0.00707479 0)
(-0.0011778 -0.00806277 0)
(-0.00171914 -0.0074504 0)
(-0.00380544 0.000535811 0)
(-0.00519147 -0.0103762 0)
(-0.011959 0.0349572 0)
(-0.00587152 0.0322475 0)
(-0.00969139 0.0343616 0)
(-0.0103147 0.0390467 0)
(-0.0093825 0.0380071 0)
(-0.00862911 0.0351049 0)
(-0.00808039 0.0319419 0)
(-0.00767715 0.0288804 0)
(-0.00736804 0.0260024 0)
(-0.00712238 0.0233494 0)
(-0.00691729 0.0209055 0)
(-0.00674775 0.0186528 0)
(-0.00661218 0.0165825 0)
(-0.00650895 0.0146935 0)
(-0.00643527 0.012987 0)
(-0.00638743 0.0114631 0)
(-0.00636122 0.0101181 0)
(-0.00635238 0.00894462 0)
(-0.00635689 0.0079318 0)
(-0.00637114 0.00706629 0)
(-0.00639208 0.0063334 0)
(-0.0064172 0.0057181 0)
(-0.00644451 0.0052057 0)
(-0.00647252 0.00478244 0)
(-0.00650013 0.00443572 0)
(-0.00652658 0.00415431 0)
(-0.00655138 0.00392827 0)
(-0.00657424 0.00374901 0)
(-0.00659503 0.00360907 0)
(-0.00661372 0.00350211 0)
(-0.00663038 0.00342269 0)
(-0.00664512 0.0033662 0)
(-0.00665807 0.00332874 0)
(-0.00666941 0.00330701 0)
(-0.0066793 0.00329821 0)
(-2.12367e-07 -0.00031478 0)
(-7.06361e-06 -0.000949979 0)
(-2.55724e-05 -0.00158452 0)
(-5.56353e-05 -0.00223297 0)
(-9.52659e-05 -0.00287422 0)
(-0.000146123 -0.00354256 0)
(-0.000259848 -0.00420115 0)
(-0.00058284 -0.00465938 0)
(-0.00111385 -0.00515066 0)
(-0.0018799 -0.00694416 0)
(-0.00399139 0.00239466 0)
(-0.00516632 -0.00808988 0)
(-0.0165836 0.0369462 0)
(-0.00842993 0.0382082 0)
(-0.0135411 0.0342722 0)
(-0.0147232 0.0362872 0)
(-0.0145838 0.0342529 0)
(-0.0145882 0.0321805 0)
(-0.0141285 0.0297877 0)
(-0.0134688 0.0276266 0)
(-0.0127876 0.0254293 0)
(-0.0121514 0.0232143 0)
(-0.011567 0.0210412 0)
(-0.0110336 0.0189604 0)
(-0.010549 0.0170046 0)
(-0.0101112 0.0151923 0)
(-0.00971866 0.013532 0)
(-0.00936969 0.0120253 0)
(-0.00906217 0.0106699 0)
(-0.00879341 0.00946083 0)
(-0.0085602 0.00839124 0)
(-0.00835899 0.00745265 0)
(-0.00818606 0.00663557 0)
(-0.00803772 0.00592984 0)
(-0.00791048 0.00532501 0)
(-0.00780113 0.00481077 0)
(-0.00770682 0.00437712 0)
(-0.00762504 0.00401466 0)
(-0.00755368 0.00371467 0)
(-0.00749094 0.00346918 0)
(-0.00743532 0.00327103 0)
(-0.00738562 0.00311378 0)
(-0.00734082 0.00299178 0)
(-0.00730013 0.00289999 0)
(-0.00726291 0.00283405 0)
(-0.00722863 0.0027901 0)
(-0.0071969 0.00276481 0)
(-0.00716739 0.00275529 0)
(-0.00713987 0.00275902 0)
(-0.00711412 0.00277383 0)
(-1.38605e-06 -0.000208107 0)
(-1.50938e-05 -0.000589279 0)
(-4.20453e-05 -0.000933962 0)
(-8.08214e-05 -0.00124379 0)
(-0.000147264 -0.00151613 0)
(-0.00031613 -0.00176141 0)
(-0.000703926 -0.00200972 0)
(-0.00133899 -0.00181981 0)
(-0.00275297 0.00435459 0)
(-0.0038122 0.00437325 0)
(-0.00414926 0.0678458 0)
(-0.0038845 0.062476 0)
(-0.00551938 0.0566495 0)
(-0.00587179 0.0488531 0)
(-0.00648848 0.0421608 0)
(-0.00652918 0.0365113 0)
(-0.00645925 0.0319555 0)
(-0.00632015 0.0281626 0)
(-0.00617012 0.0249216 0)
(-0.00600933 0.0221513 0)
(-0.00583607 0.0197439 0)
(-0.00566116 0.0176225 0)
(-0.00549321 0.015739 0)
(-0.00533773 0.0140624 0)
(-0.00519772 0.0125706 0)
(-0.00507459 0.0112458 0)
(-0.00496867 0.0100722 0)
(-0.00487959 0.00903534 0)
(-0.00480652 0.00812173 0)
(-0.00474829 0.00731906 0)
(-0.00470357 0.00661612 0)
(-0.00467088 0.00600274 0)
(-0.00464877 0.00546976 0)
(-0.0046358 0.0050089 0)
(-0.00463064 0.00461269 0)
(-0.00463207 0.00427435 0)
(-0.00463903 0.00398771 0)
(-0.00465056 0.00374717 0)
(-0.00466588 0.00354766 0)
(-0.00468431 0.00338454 0)
(-0.0047053 0.00325361 0)
(-0.00472838 0.00315107 0)
(-0.00475318 0.00307347 0)
(-0.0047794 0.00301771 0)
(-0.00480679 0.00298099 0)
(-0.00483518 0.00296079 0)
(-0.00486439 0.00295487 0)
(-0.00489431 0.00296122 0)
(-0.00492485 0.00297803 0)
(-0.00495592 0.00300372 0)
(-1.67366e-06 -0.00013771 0)
(-1.02447e-05 -0.000376957 0)
(-1.96923e-05 -0.000579382 0)
(-4.37032e-05 -0.000743661 0)
(-0.000160146 -0.000870624 0)
(-0.000522121 -0.000972649 0)
(-0.00111099 -0.00109663 0)
(-0.00276065 0.0138461 0)
(-0.00243196 0.0145427 0)
(-0.0027558 0.0192269 0)
(-0.00438616 0.0378609 0)
(-0.00264156 0.0416268 0)
(-0.00181652 0.0415071 0)
(-0.00105911 0.0396164 0)
(-0.000482773 0.0368895 0)
(-0.000141815 0.0337828 0)
(1.88576e-05 0.0306688 0)
(5.91754e-05 0.0276963 0)
(1.1777e-05 0.0249323 0)
(-9.86067e-05 0.0223975 0)
(-0.000253991 0.0200917 0)
(-0.000441012 0.0180045 0)
(-0.000649972 0.0161221 0)
(-0.000873429 0.0144299 0)
(-0.00110547 0.0129136 0)
(-0.00134133 0.0115594 0)
(-0.0015772 0.0103542 0)
(-0.00181004 0.00928528 0)
(-0.0020375 0.00834087 0)
(-0.00225782 0.00750977 0)
(-0.00246973 0.00678153 0)
(-0.00267235 0.00614642 0)
(-0.00286512 0.00559543 0)
(-0.00304776 0.00512025 0)
(-0.00322017 0.00471319 0)
(-0.00338244 0.0043672 0)
(-0.00353476 0.00407581 0)
(-0.00367742 0.0038331 0)
(-0.00381078 0.00363368 0)
(-0.00393527 0.00347262 0)
(-0.00405134 0.00334549 0)
(-0.00415948 0.00324822 0)
(-0.00426018 0.00317716 0)
(-0.00435392 0.00312902 0)
(-0.0044412 0.00310082 0)
(-0.00452249 0.00308988 0)
(-0.00459826 0.00309382 0)
(-0.00466897 0.00311049 0)
(-0.00473503 0.00313799 0)
(-0.00479687 0.00317462 0)
(-4.74201e-07 -7.20028e-05 0)
(-4.87335e-06 -0.000195916 0)
(-1.134e-05 -0.000299275 0)
(-3.53864e-05 -0.000381987 0)
(-0.00011443 -0.000444267 0)
(-0.000356457 -0.00049944 0)
(-0.00100698 -0.000499114 0)
(-0.00232433 0.022604 0)
(-0.000636278 0.0262156 0)
(-0.000506045 0.0282983 0)
(-1.04415e-05 0.0301224 0)
(0.00094112 0.0315385 0)
(0.0019327 0.0323742 0)
(0.00280425 0.0326096 0)
(0.00351383 0.0323095 0)
(0.00405514 0.0315834 0)
(0.00444142 0.0305463 0)
(0.00469008 0.0292985 0)
(0.0048199 0.0279193 0)
(0.00484958 0.0264678 0)
(0.00479678 0.0249873 0)
(0.00467747 0.0235093 0)
(0.00450568 0.0220561 0)
(0.00429349 0.0206439 0)
(0.00405111 0.019284 0)
(0.0037871 0.0179848 0)
(0.00350846 0.0167518 0)
(0.00322084 0.0155889 0)
(0.00292873 0.0144983 0)
(0.00263563 0.0134811 0)
(0.00234426 0.0125371 0)
(0.00205669 0.0116651 0)
(0.00177442 0.0108633 0)
(0.00149854 0.0101293 0)
(0.0012298 0.00946021 0)
(0.00096872 0.00885273 0)
(0.000715601 0.00830351 0)
(0.00047061 0.00780906 0)
(0.0002338 0.00736585 0)
(5.14949e-06 0.00697039 0)
(-0.000215417 0.00661923 0)
(-0.000428035 0.00630904 0)
(-0.000632891 0.00603656 0)
(-0.000830202 0.00579869 0)
(-0.0010202 0.00559245 0)
(-0.00120312 0.00541502 0)
(-0.00137923 0.00526373 0)
(-0.00154876 0.00513607 0)
(-0.00171196 0.00502968 0)
(-0.00186909 0.00494239 0)
(-7.88377e-08 -4.63471e-05 0)
(-3.30407e-06 -0.000121304 0)
(-1.01736e-05 -0.000178808 0)
(-4.2059e-05 -0.000218874 0)
(-0.000134205 -0.000243235 0)
(-0.000342742 -0.00026259 0)
(-0.00110062 -0.000258363 0)
(-0.00219783 0.00358634 0)
(-0.000101619 0.00716378 0)
(0.000616819 0.010304 0)
(0.00139418 0.0129675 0)
(0.00208067 0.0152644 0)
(0.00268637 0.01721 0)
(0.00318457 0.0187987 0)
(0.00356682 0.02003 0)
(0.00383124 0.0209147 0)
(0.00398052 0.0214731 0)
(0.00402126 0.0217339 0)
(0.00396331 0.0217305 0)
(0.00381876 0.0214988 0)
(0.0036008 0.0210754 0)
(0.00332288 0.0204962 0)
(0.00299797 0.0197959 0)
(0.00263813 0.0190073 0)
(0.00225424 0.0181604 0)
(0.00185603 0.0172819 0)
(0.00145198 0.0163946 0)
(0.00104936 0.0155174 0)
(0.000654238 0.0146653 0)
(0.000271463 0.0138495 0)
(-9.52603e-05 0.0130779 0)
(-0.000443283 0.0123556 0)
(-0.000770818 0.0116852 0)
(-0.00107681 0.0110675 0)
(-0.00136085 0.0105018 0)
(-0.00162307 0.0099866 0)
(-0.00186401 0.00951957 0)
(-0.00208456 0.00909801 0)
(-0.00228581 0.00871894 0)
(-0.00246901 0.00837929 0)
(-0.0026355 0.00807598 0)
(-0.00278665 0.00780599 0)
(-0.00292378 0.00756643 0)
(-0.00304818 0.00735452 0)
(-0.00316106 0.00716766 0)
(-0.00326358 0.00700342 0)
(-0.00335678 0.00685953 0)
(-0.00344164 0.0067339 0)
(-0.00351907 0.0066246 0)
(-0.00358985 0.00652988 0)
(4.25875e-08 1.045e-05 0)
(-3.23823e-06 3.73056e-05 0)
(-1.13613e-05 7.10264e-05 0)
(-5.72288e-05 0.000110282 0)
(-0.000192254 0.000148117 0)
(-0.000430978 0.000156549 0)
(-0.00126941 0.000183952 0)
(-0.00134812 0.00304568 0)
(0.00139417 0.00601022 0)
(0.00281851 0.00965288 0)
(0.00421241 0.013543 0)
(0.00554504 0.0172624 0)
(0.00674974 0.0206472 0)
(0.0077767 0.023643 0)
(0.00863361 0.0262214 0)
(0.00932936 0.0283715 0)
(0.0098634 0.0300935 0)
(0.0102324 0.0313946 0)
(0.0104374 0.0322873 0)
(0.0104873 0.0327904 0)
(0.0103991 0.0329299 0)
(0.0101967 0.0327404 0)
(0.00990762 0.032263 0)
(0.00955718 0.0315396 0)
(0.00916558 0.0306108 0)
(0.00874762 0.0295145 0)
(0.00831382 0.0282867 0)
(0.00787156 0.0269616 0)
(0.00742591 0.025572 0)
(0.00698012 0.0241482 0)
(0.00653611 0.0227172 0)
(0.00609487 0.0213028 0)
(0.00565689 0.0199241 0)
(0.00522246 0.0185967 0)
(0.00479189 0.0173325 0)
(0.00436564 0.0161403 0)
(0.00394428 0.0150261 0)
(0.00352854 0.0139933 0)
(0.00311935 0.0130429 0)
(0.00271785 0.0121744 0)
(0.00232534 0.0113855 0)
(0.00194318 0.0106729 0)
(0.00157263 0.0100325 0)
(0.00121478 0.00945963 0)
(0.000870443 0.0089494 0)
(0.000540222 0.00849687 0)
(0.000224509 0.00809714 0)
(-7.64415e-05 0.00774547 0)
(-0.000362492 0.0074373 0)
(-0.000633605 0.00716836 0)
(2.05111e-06 5.53918e-05 0)
(-5.02189e-06 0.000152078 0)
(-4.05085e-05 0.000232929 0)
(-0.000231431 0.000300914 0)
(-0.000743857 0.000339672 0)
(-0.0014999 0.0002864 0)
(-0.00252992 -0.030059 0)
(-0.00121058 -0.0241462 0)
(0.000410953 -0.0403319 0)
(-0.000454958 -0.0292064 0)
(0.000853981 -0.0242758 0)
(0.0017197 -0.018936 0)
(0.00191155 -0.0132498 0)
(0.0011019 -0.00774906 0)
(-0.000556477 -0.00260931 0)
(-0.00273044 0.0022725 0)
(-0.00514907 0.00695893 0)
(-0.00761399 0.0114039 0)
(-0.00997107 0.0154756 0)
(-0.0120795 0.0190097 0)
(-0.0138088 0.021855 0)
(-0.0150774 0.0239126 0)
(-0.0158953 0.0251851 0)
(-0.0163366 0.0257991 0)
(-0.0164765 0.0259184 0)
(-0.0163682 0.0256927 0)
(-0.0160447 0.0252358 0)
(-0.0155327 0.0246313 0)
(-0.0148632 0.0239445 0)
(-0.0140758 0.0232255 0)
(-0.0132166 0.0225105 0)
(-0.0123307 0.021822 0)
(-0.0114535 0.0211707 0)
(-0.0106078 0.0205594 0)
(-0.00980678 0.0199861 0)
(-0.00905911 0.0194463 0)
(-0.00837096 0.0189344 0)
(-0.00774652 0.0184432 0)
(-0.00718787 0.0179642 0)
(-0.00669475 0.0174889 0)
(-0.00626482 0.0170102 0)
(-0.00589387 0.0165245 0)
(-0.00557602 0.0160329 0)
(-0.00530445 0.0155392 0)
(-0.00507231 0.015048 0)
(-0.00487337 0.0145633 0)
(-0.00470218 0.0140879 0)
(-0.00455404 0.0136237 0)
(-0.00442485 0.0131715 0)
(-0.00431112 0.0127318 0)
(5.86033e-06 0.000319476 0)
(3.45579e-05 0.000946129 0)
(7.74655e-05 0.00160966 0)
(-2.08139e-05 0.00228339 0)
(-0.0005154 0.00305811 0)
(-0.00138165 0.00473021 0)
(-0.00304029 -0.000473718 0)
(-0.00367428 0.00222553 0)
(-0.00590637 -0.0101959 0)
(-0.00438061 0.00972959 0)
(-0.0073142 -0.0192799 0)
(-0.011782 0.00245883 0)
(-0.00923897 0.0304656 0)
(-0.00873757 0.0603814 0)
(-0.00887392 0.0808659 0)
(-0.00872351 0.0930715 0)
(-0.00829509 0.0989589 0)
(-0.00763962 0.0999534 0)
(-0.0067998 0.0966938 0)
(-0.00582741 0.0892776 0)
(-0.00490773 0.0778092 0)
(-0.00423578 0.064079 0)
(-0.00359062 0.0518 0)
(-0.00230612 0.042292 0)
(-0.00105473 0.0344017 0)
(-3.46536e-05 0.027175 0)
(0.000818002 0.0204649 0)
(0.0014971 0.0143536 0)
(0.00200891 0.00909348 0)
(0.00234217 0.0049891 0)
(0.00248345 0.00220805 0)
(0.00243202 0.000590546 0)
(0.00219648 -0.000285092 0)
(0.00178824 -0.000752682 0)
(0.00123079 -0.000938474 0)
(0.000554656 -0.000877557 0)
(-0.000222874 -0.000602686 0)
(-0.00110125 -0.000154524 0)
(-0.00208026 0.000414374 0)
(-0.00313042 0.00104326 0)
(-0.00417692 0.00167826 0)
(-0.00512277 0.00228221 0)
(-0.00589562 0.00282242 0)
(-0.00647679 0.00327445 0)
(-0.00689087 0.00363549 0)
(-0.00717738 0.00391609 0)
(-0.00737375 0.00412902 0)
(-0.00750903 0.00428442 0)
(-0.00760321 0.0043908 0)
(-0.00766964 0.00445647 0)
(5.7143e-06 -9.40204e-05 0)
(6.02413e-05 -0.000221148 0)
(0.000163865 -0.000269856 0)
(0.000325415 -0.000249921 0)
(0.000503771 -0.000113892 0)
(0.000736656 0.000147321 0)
(0.00111279 -0.000679022 0)
(0.00158658 -0.00140741 0)
(0.00161037 -0.00312912 0)
(0.00143502 -0.00290409 0)
(0.0015853 0.00502514 0)
(0.000726686 0.00547921 0)
(0.000498438 0.002873 0)
(0.00176912 0.00231749 0)
(0.00470357 0.00256099 0)
(0.00712523 0.0054286 0)
(0.0100713 0.00501866 0)
(0.0128283 0.0114508 0)
(0.0146767 0.0166532 0)
(0.0155692 0.0219038 0)
(0.0176394 0.0300498 0)
(0.0228512 0.0291589 0)
(0.0163647 -0.0114356 0)
(0.0201971 -0.0196813 0)
(0.0251909 -0.00852977 0)
(0.0254782 -0.000817879 0)
(0.0260521 0.00468998 0)
(0.0266328 0.00923231 0)
(0.0265798 0.0136992 0)
(0.0261708 0.0181052 0)
(0.0247875 0.0222885 0)
(0.0241174 0.0259099 0)
(0.024564 0.0293764 0)
(0.0248754 0.0327422 0)
(0.0248668 0.0353706 0)
(0.0249191 0.0376817 0)
(0.0248239 0.0401567 0)
(0.0245245 0.0428823 0)
(0.0240509 0.0453945 0)
(0.0236762 0.0462333 0)
(0.0233476 0.0441145 0)
(0.0227452 0.0393939 0)
(0.0218926 0.0336561 0)
(0.0208428 0.0285512 0)
(0.0196918 0.0244417 0)
(0.018508 0.0212636 0)
(0.0173005 0.0189345 0)
(0.0160791 0.0171799 0)
(0.0148955 0.015827 0)
(0.013798 0.0147438 0)
(-1.32433e-07 -0.000343645 0)
(1.41492e-05 -0.000970087 0)
(4.91258e-05 -0.00155013 0)
(0.000108297 -0.00207225 0)
(0.000192353 -0.00256113 0)
(0.000299259 -0.00298817 0)
(0.00041573 -0.0034007 0)
(0.000505576 -0.00374309 0)
(0.000551263 -0.0039637 0)
(0.000586022 -0.00390806 0)
(0.000759919 -0.00365695 0)
(0.00099522 -0.00370198 0)
(0.00120649 -0.00391042 0)
(0.0014742 -0.00405841 0)
(0.00186622 -0.00411333 0)
(0.00246574 -0.00395826 0)
(0.00322707 -0.00366889 0)
(0.00426144 -0.00312361 0)
(0.00576361 -0.00252694 0)
(0.00766722 -0.00183716 0)
(0.00989484 -0.00104034 0)
(0.0121841 0.000813977 0)
(0.0134435 0.00455857 0)
(0.0125704 0.00292638 0)
(0.011532 0.00544738 0)
(0.0111372 0.00800163 0)
(0.0111761 0.0105584 0)
(0.0113452 0.014663 0)
(0.0115344 0.0195953 0)
(0.0117539 0.0245019 0)
(0.0115174 0.0257067 0)
(0.0110232 0.00986949 0)
(0.013053 -0.00822747 0)
(0.0160298 -0.0108727 0)
(0.017421 -0.00994363 0)
(0.0183079 -0.00373137 0)
(0.0190034 0.00456868 0)
(0.0207253 0.00854803 0)
(0.02256 0.0081753 0)
(0.025322 0.00178792 0)
(0.0292343 0.00760949 0)
(0.0345217 0.0202879 0)
(0.0288619 0.0278795 0)
(0.0280043 0.0304686 0)
(0.0294405 0.0312204 0)
(0.0294162 0.0324002 0)
(0.0289586 0.0340425 0)
(0.0290357 0.0337361 0)
(0.0294387 0.0319965 0)
(0.0297639 0.0295001 0)
(1.17594e-06 -0.000335458 0)
(4.10967e-06 -0.000968766 0)
(7.8527e-06 -0.00156557 0)
(1.29745e-05 -0.00212742 0)
(1.82171e-05 -0.00265244 0)
(2.55279e-05 -0.00314593 0)
(3.24924e-05 -0.00360512 0)
(4.23402e-05 -0.00403588 0)
(5.5388e-05 -0.00443085 0)
(7.96713e-05 -0.00479329 0)
(0.000117128 -0.00512015 0)
(0.000167668 -0.00544458 0)
(0.000218337 -0.00575922 0)
(0.00026606 -0.00599864 0)
(0.000311512 -0.00613271 0)
(0.000362805 -0.00616947 0)
(0.000422538 -0.00610799 0)
(0.000501793 -0.00594344 0)
(0.000600365 -0.00570533 0)
(0.000719637 -0.00537623 0)
(0.000862695 -0.00492897 0)
(0.00105283 -0.00427265 0)
(0.00130605 -0.00352917 0)
(0.00148992 -0.00306402 0)
(0.0016824 -0.00254969 0)
(0.00206542 -0.0020137 0)
(0.00261084 -0.00141552 0)
(0.00333158 -0.000684441 0)
(0.00428896 0.000115053 0)
(0.00544919 0.00104542 0)
(0.00676045 0.00201516 0)
(0.00791257 0.00210089 0)
(0.0080369 -0.000840278 0)
(0.00739098 0.00156274 0)
(0.00660514 0.00458972 0)
(0.00595377 0.0066768 0)
(0.0056013 0.00389221 0)
(0.00585273 -0.00516692 0)
(0.00615794 -0.0169636 0)
(0.00747161 -0.0347259 0)
(0.00954579 -0.0147992 0)
(0.0107063 0.0255543 0)
(0.00998238 0.058967 0)
(0.00945402 0.0434116 0)
(0.0109437 0.0350993 0)
(0.0113395 0.0310873 0)
(0.0124859 0.0198875 0)
(0.0144711 0.00190228 0)
(0.0169555 0.00326592 0)
(0.0178512 0.0143241 0)
(-1.55799e-06 -0.000336735 0)
(-9.44963e-06 -0.000967661 0)
(-2.30569e-05 -0.00155751 0)
(-4.17458e-05 -0.00210545 0)
(-6.47546e-05 -0.00261185 0)
(-9.19873e-05 -0.00307618 0)
(-0.000123117 -0.00349959 0)
(-0.000158256 -0.00388103 0)
(-0.000197163 -0.00422181 0)
(-0.000239892 -0.00452063 0)
(-0.000286429 -0.00477913 0)
(-0.000337266 -0.00499615 0)
(-0.00039312 -0.00517271 0)
(-0.000453316 -0.00530657 0)
(-0.000516582 -0.0053978 0)
(-0.000579856 -0.00544548 0)
(-0.000641286 -0.0054503 0)
(-0.000697673 -0.00541359 0)
(-0.000747815 -0.00533687 0)
(-0.000788233 -0.00522392 0)
(-0.000816544 -0.00507589 0)
(-0.000827198 -0.00490002 0)
(-0.000818855 -0.00470113 0)
(-0.000794173 -0.00449604 0)
(-0.000759949 -0.0042495 0)
(-0.000717312 -0.00392848 0)
(-0.000665287 -0.00350772 0)
(-0.000597933 -0.00299237 0)
(-0.000510926 -0.00239658 0)
(-0.000396367 -0.00172144 0)
(-0.000265592 -0.00102519 0)
(-0.000165906 -0.000443763 0)
(-0.000157108 1.05163e-05 0)
(-0.000146415 0.000755405 0)
(-2.85041e-06 0.0016652 0)
(0.000256202 0.00238069 0)
(0.000549414 0.00263897 0)
(0.000616247 0.00114802 0)
(7.90544e-06 -0.00040002 0)
(-0.00167085 -0.00538325 0)
(-0.00370971 -0.00806075 0)
(-0.00277424 -0.000935357 0)
(-0.00061487 0.00277324 0)
(0.0017613 0.00344556 0)
(0.00353709 0.00542564 0)
(0.00490445 0.00716976 0)
(0.00608361 0.00198136 0)
(0.00701695 -0.00846555 0)
(0.0070266 -0.0034384 0)
(0.00719871 -0.000971446 0)
(-1.71901e-07 -0.000260082 0)
(-6.01075e-06 -0.00075741 0)
(-1.84669e-05 -0.00123064 0)
(-3.724e-05 -0.00167792 0)
(-6.14944e-05 -0.00209751 0)
(-9.04592e-05 -0.00248844 0)
(-0.000123418 -0.00284956 0)
(-0.000159734 -0.00318018 0)
(-0.000198694 -0.00347935 0)
(-0.000239723 -0.00374655 0)
(-0.000282067 -0.00398097 0)
(-0.000325239 -0.00418223 0)
(-0.000368417 -0.0043496 0)
(-0.000411173 -0.00448276 0)
(-0.000452516 -0.00458121 0)
(-0.000492059 -0.00464479 0)
(-0.000528671 -0.00467347 0)
(-0.000562112 -0.0046673 0)
(-0.000591215 -0.00462672 0)
(-0.000616007 -0.00455196 0)
(-0.000635386 -0.00444396 0)
(-0.000649797 -0.00430322 0)
(-0.000658409 -0.00413131 0)
(-0.000662173 -0.00392893 0)
(-0.000659939 -0.00369751 0)
(-0.000651344 -0.00343744 0)
(-0.000633153 -0.00315084 0)
(-0.0006035 -0.0028396 0)
(-0.000558626 -0.00250788 0)
(-0.000497582 -0.00215976 0)
(-0.000419306 -0.00180174 0)
(-0.000327199 -0.00143896 0)
(-0.000223461 -0.00106673 0)
(-0.000106381 -0.000651826 0)
(3.10798e-05 -0.000159318 0)
(0.000174263 0.000185982 0)
(0.000308688 0.00040818 0)
(0.00040955 0.000492999 0)
(0.000477618 0.000780153 0)
(0.000432345 0.00114557 0)
(2.07891e-05 -0.000292418 0)
(-0.000319466 0.0011803 0)
(-0.000422416 -0.000800458 0)
(-0.000183572 -0.00316826 0)
(9.51085e-05 -0.00114888 0)
(0.000350197 -0.000571414 0)
(0.000495779 -0.000928514 0)
(0.000350364 -0.00123134 0)
(-8.53275e-05 -0.00062716 0)
(-0.000323941 -0.000144548 0)
(-9.66291e-07 -0.000237097 0)
(-7.15379e-06 -0.000688029 0)
(-1.87287e-05 -0.0011157 0)
(-3.51209e-05 -0.00151964 0)
(-5.56944e-05 -0.00189951 0)
(-7.99161e-05 -0.00225509 0)
(-0.000107262 -0.00258624 0)
(-0.000137204 -0.00289275 0)
(-0.000169184 -0.00317453 0)
(-0.000202632 -0.00343136 0)
(-0.000236957 -0.00366324 0)
(-0.000271558 -0.00386995 0)
(-0.000305815 -0.00405156 0)
(-0.000339094 -0.00420789 0)
(-0.000370748 -0.00433913 0)
(-0.000400115 -0.0044451 0)
(-0.000426529 -0.00452613 0)
(-0.00044932 -0.00458207 0)
(-0.00046782 -0.00461343 0)
(-0.000481375 -0.00461999 0)
(-0.000489326 -0.00460253 0)
(-0.000491067 -0.0045607 0)
(-0.000485964 -0.00449557 0)
(-0.00047349 -0.00440656 0)
(-0.000453033 -0.00429516 0)
(-0.000424136 -0.0041604 0)
(-0.000386195 -0.00400449 0)
(-0.000338886 -0.00382604 0)
(-0.000281718 -0.00362835 0)
(-0.000214703 -0.00340929 0)
(-0.000137622 -0.00317357 0)
(-5.08233e-05 -0.00291755 0)
(4.61732e-05 -0.00264747 0)
(0.000153683 -0.00235728 0)
(0.000272202 -0.00205626 0)
(0.000399191 -0.00173681 0)
(0.000529823 -0.00141099 0)
(0.000659128 -0.00104803 0)
(0.000789339 -0.000630571 0)
(0.000911811 -0.000195081 0)
(0.0010175 -0.000107695 0)
(0.00114167 0.000160068 0)
(0.0012337 0.000119443 0)
(0.00120449 0.00035869 0)
(0.00103159 0.00143654 0)
(0.00100457 0.000198408 0)
(0.00104163 0.00193381 0)
(0.000942526 0.00177942 0)
(0.00092399 0.000141272 0)
(0.00100583 -0.00125505 0)
(-3.47059e-07 -0.000189924 0)
(-5.38711e-06 -0.000556335 0)
(-1.5773e-05 -0.000908752 0)
(-3.11719e-05 -0.00124638 0)
(-5.0975e-05 -0.00156851 0)
(-7.4599e-05 -0.00187462 0)
(-0.000101558 -0.00216421 0)
(-0.000131338 -0.00243691 0)
(-0.000163487 -0.00269231 0)
(-0.000197489 -0.00293016 0)
(-0.000232915 -0.00315017 0)
(-0.000269243 -0.00335217 0)
(-0.00030607 -0.003536 0)
(-0.000342863 -0.00370161 0)
(-0.000379246 -0.00384893 0)
(-0.00041467 -0.00397802 0)
(-0.00044879 -0.00408892 0)
(-0.000481033 -0.00418179 0)
(-0.000511097 -0.00425678 0)
(-0.000538372 -0.00431411 0)
(-0.000562607 -0.00435407 0)
(-0.000583148 -0.00437694 0)
(-0.000599804 -0.00438311 0)
(-0.000611862 -0.00437289 0)
(-0.0006192 -0.00434684 0)
(-0.000621036 -0.00430521 0)
(-0.000617326 -0.00424875 0)
(-0.000607214 -0.00417758 0)
(-0.000590755 -0.00409273 0)
(-0.000567024 -0.00399399 0)
(-0.000536196 -0.00388281 0)
(-0.00049726 -0.00375841 0)
(-0.000450525 -0.00362285 0)
(-0.000394853 -0.00347442 0)
(-0.000330734 -0.00331624 0)
(-0.0002569 -0.00314519 0)
(-0.000173703 -0.00296586 0)
(-7.92704e-05 -0.00277253 0)
(2.66067e-05 -0.00257173 0)
(0.000143359 -0.00235446 0)
(0.000265369 -0.00213181 0)
(0.000388831 -0.00187272 0)
(0.000516111 -0.00155253 0)
(0.000674102 -0.00116512 0)
(0.000856755 -0.000964312 0)
(0.00099527 -0.000980947 0)
(0.0011269 -0.000752766 0)
(0.00133809 -0.000821097 0)
(0.00156086 -0.00152266 0)
(0.00166046 -0.00180214 0)
(-0.00770067 0.00557451 0)
(-0.00765196 0.00556527 0)
(-0.00760338 0.00555518 0)
(-0.00755509 0.00554399 0)
(-0.0075072 0.00553152 0)
(-0.00745986 0.00551765 0)
(-0.00741317 0.00550232 0)
(-0.00736723 0.00548552 0)
(-0.00732215 0.00546724 0)
(-0.007278 0.00544754 0)
(-0.00723486 0.00542646 0)
(-0.00719278 0.00540408 0)
(-0.00715182 0.00538048 0)
(-0.00711203 0.00535574 0)
(-0.00707344 0.00532997 0)
(-0.00703608 0.00530325 0)
(-0.00699998 0.00527568 0)
(-0.00696514 0.00524735 0)
(-0.00693158 0.00521837 0)
(-0.00689932 0.00518881 0)
(-0.00686834 0.00515876 0)
(-0.00683865 0.0051283 0)
(-0.00681025 0.0050975 0)
(-0.00678313 0.00506643 0)
(-0.00675727 0.00503515 0)
(-0.00673267 0.0050037 0)
(-0.0067093 0.00497214 0)
(-0.00668717 0.00494049 0)
(-0.00666624 0.0049088 0)
(-0.0066465 0.00487708 0)
(-0.00662792 0.00484534 0)
(-0.0066105 0.00481358 0)
(-0.0065942 0.00478181 0)
(-0.006579 0.00475 0)
(-0.00656488 0.00471814 0)
(-0.00655182 0.00468617 0)
(-0.00653979 0.00465406 0)
(-0.00652876 0.00462173 0)
(-0.00651872 0.0045891 0)
(-0.00650962 0.00455607 0)
(-0.00650146 0.00452252 0)
(-0.00649419 0.00448832 0)
(-0.0064878 0.00445334 0)
(-0.00648225 0.00441745 0)
(-0.00647752 0.00438055 0)
(-0.00647359 0.00434256 0)
(-0.00647043 0.00430353 0)
(-0.00646804 0.00426365 0)
(-0.00646622 0.00422348 0)
(-0.00646571 0.00418492 0)
(-0.00821743 0.00409764 0)
(-0.00815606 0.00413176 0)
(-0.00809612 0.00416461 0)
(-0.00803768 0.00419589 0)
(-0.00798077 0.00422539 0)
(-0.00792543 0.00425297 0)
(-0.00787167 0.00427853 0)
(-0.00781951 0.00430203 0)
(-0.00776896 0.00432344 0)
(-0.00772002 0.00434279 0)
(-0.0076727 0.0043601 0)
(-0.00762699 0.00437543 0)
(-0.00758288 0.00438885 0)
(-0.00754036 0.00440041 0)
(-0.00749943 0.00441022 0)
(-0.00746006 0.00441834 0)
(-0.00742225 0.00442487 0)
(-0.00738597 0.0044299 0)
(-0.00735121 0.00443351 0)
(-0.00731794 0.00443579 0)
(-0.00728615 0.00443683 0)
(-0.00725581 0.0044367 0)
(-0.0072269 0.00443548 0)
(-0.0071994 0.00443325 0)
(-0.00717329 0.00443006 0)
(-0.00714853 0.00442599 0)
(-0.00712511 0.00442107 0)
(-0.00710299 0.00441537 0)
(-0.00708216 0.00440892 0)
(-0.00706259 0.00440175 0)
(-0.00704425 0.00439388 0)
(-0.00702712 0.00438534 0)
(-0.00701117 0.00437612 0)