/*--------------------------------*- C++ -*----------------------------------*\
| =========                 |                                                 |
| \\      /  F ield         | OpenFOAM: The Open Source CFD Toolbox           |
|  \\    /   O peration     | Version:  2.4.0                                 |
|   \\  /    A nd           | Web:      www.OpenFOAM.org                      |
|    \\/     M anipulation  |                                                 |
\*---------------------------------------------------------------------------*/
FoamFile
{
    version     2.0;
    format      ascii;
    class       volScalarField;
    location    "5";
    object      alpha1;
}
// * * * * * * * * * * * * * * * * * * * * * * * * * * * * * * * * * * * * * //

dimensions      [0 0 0 0 0 0 0];

internalField   nonuniform List<scalar> 
8000
(
1
1
1
0.999998
0.999998
1
0.999628
1.00449
0.992762
0.999914
0.671926
0.518319
0.42107
0.329002
0.213751
0.105936
0.0425305
0.0193966
0.012953
0.00948932
0.00659907
0.0042315
0.00254685
0.00147713
0.000880122
0.00061355
0.000489073
0.000417193
0.000356975
0.000294778
0.000236988
0.000188124
0.000131816
6.69848e-05
4.55538e-05
0.000113374
0.000101308
4.49518e-05
1.18406e-05
2.62243e-06
2.62244e-06
2.84164e-06
2.96943e-06
2.39397e-06
1.68827e-06
9.86691e-06
3.49327e-05
1.58067e-05
3.09485e-06
8.15827e-06
1
1
1
1
1
0.999999
0.999999
1
1
1
1
1
1
1
1
1
0.999908
0.999897
0.89332
0.702231
0.536322
0.417146
0.298487
0.16975
0.0773451
0.033377
0.0186285
0.0137591
0.0106636
0.00788546
0.00547312
0.00367133
0.00258995
0.00191936
0.00132691
0.000778729
0.000415918
0.000213079
7.00724e-05
3.73624e-05
0.000174517
0.000891122
0.000934192
0.000829662
0.000274827
5.69293e-05
3.49343e-05
3.49459e-05
1.76236e-05
2.28272e-05
1
1
1
1
1
0.999999
0.999999
0.999999
0.999999
0.999999
0.999999
1
1
1
1
1
1
1
1
1
1
1
1
1
0.999967
0.992388
0.947815
0.804552
0.602352
0.398498
0.21323
0.0960492
0.0420861
0.0270595
0.0168052
0.0165945
0.0170786
0.010525
0.00472803
0.00243274
0.00157275
0.000898593
0.000298148
7.53644e-05
7.5364e-05
0.000223155
0.000314703
0.000314641
0.000122371
1.03547e-05
1
1
1
1
1
1
1
1
1
1
1
1
1
1
1
1
1
1
1
1
1
1
1
1
1
1
1
1
1
1
0.999988
0.997847
0.961948
0.923193
0.728845
0.323506
0.0844815
0.0411782
0.0276159
0.0190262
0.0111148
0.00509274
0.00222105
0.00114296
0.000638045
0.000326498
0.000120774
3.30824e-05
7.2907e-06
2.41043e-06
1
1
1
1
1
1
1
1
1
1
1
1
1
1
1
1
1
1
1
1
1
0.999999
0.999999
0.999999
0.999999
0.999999
0.999999
0.999999
0.999999
0.999999
1
1
1
1
1
0.999997
0.987051
0.97297
0.853572
0.558142
0.201817
0.0523311
0.0396302
0.0230854
0.0107888
0.00433609
0.00170388
0.000709321
0.000310237
0.000132055
1
1
1
1
1
1
1
1
1
1
1
1
1
1
1
1
1
1
1
0.999999
0.999999
0.999999
0.999999
0.999999
0.999999
0.999999
0.999999
0.999999
0.999999
0.999999
0.999999
0.999999
0.999999
0.999999
0.999999
1
1
1
1
0.999997
0.999982
0.960313
0.922733
0.623787
0.228053
0.0659814
0.0341236
0.0154461
0.00621774
0.00231113
1
1
1
1
1
1
1
1
1
1
1
1
1
1
1
1
1
0.999999
0.999999
0.999999
0.999999
0.999999
0.999999
0.999999
0.999999
0.999999
0.999999
0.999999
0.999999
0.999999
0.999999
0.999999
0.999999
0.999999
0.999999
1
1
1
1
1
1
1
1
1
0.98184
0.957315
0.79581
0.282458
0.0910175
0.0377378
1
1
1
1
1
1
1
1
1
1
1
1
1
1
1
1
1
0.999999
0.999999
0.999999
0.999999
0.999999
0.999999
0.999999
0.999999
0.999999
0.999999
0.999999
0.999999
0.999999
0.999999
0.999999
0.999999
0.999999
1
1
1
1
1
1
1
1
1
1
1
1
1
1
0.933643
0.611118
1
1
1
1
1
1
1
1
1
1
1
1
1
1
1
1
1
0.999999
0.999999
0.999999
0.999999
0.999999
0.999999
0.999999
0.999999
0.999999
0.999999
0.999999
0.999999
0.999999
0.999999
0.999999
1
1
1
1
0.999999
0.999999
0.999999
0.999999
0.999999
0.999999
0.999998
0.999998
0.999997
0.999996
0.999995
0.999998
1
1
1
1
1
1
1
1
1
1
1
1
1
1
1
1
1
1
1
1
1
0.999999
0.999999
0.999999
0.999999
0.999999
0.999999
0.999999
0.999999
1
1
1
1
1
1
1
1
0.999999
0.999999
0.999999
0.999999
0.999999
0.999998
0.999997
0.999996
0.999995
0.999992
0.999987
0.99998
0.999979
0.999988
0.999997
1
1
1
1
1
1
1
1
1
1
1
1
1
1
1
1
1
1
1
1
1
1
1
1
1
1
1
1
1
1
1
1
1
1
1
1
0.999999
0.999999
0.999999
0.999999
0.999998
0.999997
0.999996
0.999994
0.99999
0.999982
0.999968
0.99995
0.999966
0.999986
1
1
1
1
1
1
1
1
1
1
1
1
1
1
1
1
1
1
1
1
1
1
1
1
1
1
1
1
1
1
1
1
1
1
1
1
1
1
0.999999
0.999999
0.999999
0.999998
0.999997
0.999995
0.999991
0.999982
0.999962
0.999942
0.999953
0.999982
1
1
1
1
1
1
1
1
1
1
1
1
1
1
1
1
1
1
1
1
1
1
1
1
1
1
1
1
1
1
1
1
1
1
1
1
1
1
1
1
1
0.999999
0.999999
0.999998
0.999996
0.99999
0.999978
0.99996
0.999974
0.999982
1
1
1
1
1
1
1
1
1
1
1
1
1
1
1
1
1
1
1
1
1
1
1
1
1
1
1
1
1
1
1
1
1
1
1
1
1
1
1
1
1
1
1
0.999999
0.999998
0.999994
0.999989
0.999994
0.99997
0.776439
1
1
1
1
1
1
1
1
1
1
1
1
1
1
1
1
1
1
1
1
1
1
1
1
1
1
1
1
1
1
1
1
1
1
1
1
1
1
1
1
1
1
1
0.999999
0.999998
0.999991
0.999991
0.943399
0.468323
0.075569
1
1
1
1
1
1
1
1
1
1
1
1
1
1
1
1
1
1
1
1
1
1
1
1
1
1
1
1
1
1
1
1
1
1
1
1
1
1
1
1
1
1
1
0.999999
0.999996
0.999976
0.808891
0.2213
0.0200879
0.00114234
1
1
1
1
1
1
1
1
1
1
1
1
1
1
1
1
1
1
1
1
1
1
1
1
1
1
1
1
1
1
1
1
1
1
1
1
1
1
1
1
1
1
0.999999
0.999998
0.999986
0.768525
0.101681
0.00210235
5.81213e-05
1.3654e-05
1
1
1
1
1
1
1
1
1
1
1
1
1
1
1
1
1
1
1
1
1
1
1
1
1
1
1
1
1
1
1
1
1
1
1
1
1
1
1
1
1
1
1
0.999999
0.999995
0.990549
0.445519
0.0111719
0.000282943
1.0403e-05
1
1
1
1
1
1
1
1
1
1
1
1
1
1
1
1
1
1
1
1
1
1
1
1
1
1
1
1
1
1
1
1
1
1
1
1
1
1
1
1
1
1
1
1
1
0.999994
0.739713
0.0507083
0.0257936
3.78594e-10
1
1
1
1
1
1
1
1
1
1
1
1
1
1
1
1
1
1
1
1
1
1
1
1
1
1
1
1
1
1
1
1
1
1
1
1
1
1
1
1
1
1
1
1
1
1
0.999998
0.999313
0.752846
3.71386e-05
6.74785e-05
0.000145194
0.000145195
0.000145193
7.50345e-05
1.10841e-05
8.45064e-07
3.71221e-07
4.76871e-07
4.03609e-07
3.42915e-07
2.82469e-07
2.01446e-07
1.20709e-07
6.10154e-08
2.62482e-08
9.69276e-09
3.11545e-09
9.10091e-10
2.80784e-10
1.25935e-10
9.14169e-11
8.27853e-11
7.89961e-11
7.61874e-11
7.38583e-11
7.20523e-11
7.08773e-11
7.044e-11
7.08415e-11
7.21805e-11
7.45568e-11
7.80753e-11
8.28484e-11
8.89991e-11
9.66632e-11
1.05989e-10
1.17141e-10
1.30304e-10
1.45683e-10
1.63501e-10
1.84006e-10
2.07472e-10
2.34198e-10
2.6451e-10
2.98761e-10
3.3734e-10
3.80673e-10
4.2922e-10
4.83507e-10
8.82454e-05
0.000145195
0.000133816
5.60215e-05
8.51622e-06
1.07881e-06
6.62141e-07
6.61821e-07
5.85816e-07
4.76946e-07
3.51739e-07
2.30882e-07
1.34205e-07
6.89478e-08
3.11605e-08
1.23786e-08
4.34742e-09
1.38462e-09
4.38891e-10
1.76149e-10
1.10981e-10
9.47056e-11
8.87848e-11
8.48094e-11
8.13155e-11
7.81832e-11
7.54998e-11
7.3368e-11
7.18818e-11
7.11273e-11
7.1188e-11
7.21472e-11
7.40924e-11
7.71177e-11
8.13259e-11
8.68312e-11
9.37593e-11
1.02251e-10
1.12465e-10
1.24577e-10
1.38785e-10
1.55308e-10
1.74392e-10
1.96309e-10
2.21363e-10
2.49887e-10
2.82252e-10
3.18873e-10
3.60213e-10
4.06801e-10
1.94345e-06
1.94275e-06
1.98014e-06
1.72856e-06
1.40951e-06
1.21634e-06
1.14383e-06
9.53383e-07
6.86108e-07
3.85974e-07
1.56862e-07
4.17575e-08
7.03618e-09
1.05928e-09
2.29021e-10
1.29997e-10
1.17442e-10
1.13854e-10
1.10813e-10
1.07353e-10
1.03442e-10
9.92331e-11
9.48962e-11
9.06012e-11
8.64974e-11
8.27098e-11
7.93388e-11
7.64671e-11
7.41671e-11
7.25049e-11
7.15447e-11
7.13518e-11
7.19949e-11
7.35479e-11
7.6092e-11
7.97168e-11
8.45219e-11
9.0619e-11
9.81332e-11
1.07205e-10
1.17992e-10
1.30673e-10
1.45445e-10
1.62533e-10
1.82187e-10
2.04686e-10
2.30345e-10
2.59514e-10
2.92593e-10
3.30052e-10
1.95991e-06
2.20218e-06
2.48831e-06
2.20425e-06
1.94675e-06
1.49522e-06
1.56354e-06
1.29796e-06
9.14471e-07
4.50967e-07
1.50339e-07
2.82756e-08
2.22091e-09
3.83496e-10
1.68741e-10
1.37064e-10
1.30132e-10
1.26604e-10
1.2309e-10
1.19017e-10
1.14412e-10
1.09446e-10
1.0432e-10
9.92139e-11
9.42761e-11
8.96214e-11
8.53377e-11
8.14933e-11
7.81452e-11
7.53445e-11
7.31398e-11
7.15804e-11
7.07176e-11
7.06057e-11
7.13035e-11
7.28756e-11
7.53933e-11
7.89364e-11
8.35945e-11
8.94688e-11
9.66737e-11
1.05339e-10
1.1561e-10
1.27653e-10
1.41653e-10
1.5782e-10
1.7639e-10
1.97627e-10
2.2183e-10
2.49338e-10
5.40173e-05
2.9778e-05
2.27697e-05
1.40921e-05
4.74884e-06
1.87828e-06
2.47286e-06
1.98503e-06
1.7081e-06
8.65623e-07
2.96101e-07
5.6626e-08
4.01174e-09
5.71819e-10
2.0711e-10
1.56429e-10
1.46503e-10
1.42238e-10
1.3824e-10
1.33594e-10
1.28296e-10
1.22552e-10
1.16597e-10
1.10632e-10
1.04807e-10
9.92315e-11
9.39815e-11
8.91118e-11
8.46663e-11
8.06833e-11
7.71991e-11
7.42497e-11
7.1871e-11
7.01e-11
6.89751e-11
6.85371e-11
6.88303e-11
6.99035e-11
7.18115e-11
7.46162e-11
7.83879e-11
8.32069e-11
8.91643e-11
9.63636e-11
1.04922e-10
1.14972e-10
1.26662e-10
1.40161e-10
1.55659e-10
1.73371e-10
0.000845086
0.000338815
0.000160864
8.55795e-05
4.28783e-05
1.63542e-05
4.02329e-06
5.56412e-06
2.573e-06
1.4745e-06
5.51811e-07
1.12149e-07
7.41507e-09
8.87463e-10
2.63557e-10
1.80339e-10
1.65314e-10
1.59952e-10
1.55464e-10
1.50329e-10
1.44454e-10
1.38067e-10
1.31429e-10
1.24752e-10
1.18186e-10
1.11827e-10
1.05737e-10
9.99566e-11
9.45202e-11
8.94577e-11
8.4798e-11
8.05688e-11
7.67965e-11
7.3506e-11
7.07207e-11
6.8463e-11
6.67554e-11
6.56215e-11
6.50867e-11
6.51797e-11
6.59334e-11
6.73853e-11
6.95787e-11
7.25636e-11
7.63967e-11
8.11431e-11
8.68769e-11
9.36821e-11
1.01653e-10
1.10896e-10
0.0125821
0.00442569
0.00174707
0.000760662
0.000317238
0.000123636
6.81955e-05
4.63255e-05
9.87525e-06
2.35314e-06
1.07177e-06
2.39024e-07
1.49365e-08
1.48024e-09
3.56615e-10
2.12307e-10
1.87736e-10
1.80376e-10
1.75219e-10
1.69616e-10
1.63271e-10
1.56397e-10
1.49265e-10
1.42086e-10
1.34992e-10
1.2806e-10
1.21331e-10
1.14831e-10
1.08587e-10
1.02624e-10
9.69697e-11
9.16503e-11
8.66897e-11
8.21084e-11
7.79223e-11
7.41438e-11
7.07818e-11
6.78434e-11
6.53345e-11
6.3261e-11
6.16297e-11
6.04486e-11
5.97278e-11
5.94796e-11
5.97193e-11
6.04655e-11
6.17407e-11
6.35714e-11
6.59885e-11
6.9028e-11
0.262004
0.109096
0.0381207
0.0112801
0.00344024
0.00127631
0.000562359
0.00022851
6.01664e-05
7.69042e-06
2.5628e-06
6.21559e-07
3.5905e-08
2.82196e-09
5.38627e-10
2.60946e-10
2.16207e-10
2.04703e-10
1.98353e-10
1.92178e-10
1.85423e-10
1.78216e-10
1.70808e-10
1.63387e-10
1.5605e-10
1.48833e-10
1.41748e-10
1.34801e-10
1.28008e-10
1.21394e-10
1.1499e-10
1.08827e-10
1.02936e-10
9.73402e-11
9.20583e-11
8.71015e-11
8.24754e-11
7.81808e-11
7.4215e-11
7.05729e-11
6.72479e-11
6.42325e-11
6.15191e-11
5.91002e-11
5.69692e-11
5.51207e-11
5.35511e-11
5.22589e-11
5.12446e-11
5.0511e-11
0.948899
0.743702
0.421648
0.175053
0.0512595
0.0128998
0.00319088
0.000705496
0.000141536
2.61947e-05
5.53911e-06
1.49021e-06
8.08854e-08
4.90214e-09
8.06538e-10
3.27973e-10
2.521e-10
2.33472e-10
2.24772e-10
2.1756e-10
2.10313e-10
2.02946e-10
1.95605e-10
1.88386e-10
1.813e-10
1.74312e-10
1.67377e-10
1.60467e-10
1.53584e-10
1.46748e-10
1.39997e-10
1.33374e-10
1.26921e-10
1.20678e-10
1.14672e-10
1.08925e-10
1.0345e-10
9.82511e-11
9.33268e-11
8.8671e-11
8.42739e-11
8.01234e-11
7.62051e-11
7.25042e-11
6.90054e-11
6.56947e-11
6.25594e-11
5.95895e-11
5.67769e-11
5.41158e-11
1
1
0.942584
0.702046
0.247584
0.0410958
0.00528568
0.000830656
0.000162347
3.47677e-05
6.82228e-06
2.65707e-06
1.45876e-07
6.49155e-09
1.04724e-09
4.04391e-10
2.97097e-10
2.68903e-10
2.5609e-10
2.46854e-10
2.38744e-10
2.31284e-10
2.24368e-10
2.17889e-10
2.11697e-10
2.05626e-10
1.99539e-10
1.9335e-10
1.87027e-10
1.80578e-10
1.74043e-10
1.67476e-10
1.60938e-10
1.54489e-10
1.48178e-10
1.42047e-10
1.36124e-10
1.30429e-10
1.24969e-10
1.19744e-10
1.14748e-10
1.09969e-10
1.05392e-10
1.00997e-10
9.67648e-11
9.26767e-11
8.87152e-11
8.4866e-11
8.11179e-11
7.74632e-11
0.999995
0.999998
0.999996
0.913681
0.436625
0.0665363
0.00495882
0.00040296
8.95343e-05
3.0079e-05
6.78941e-06
2.68898e-06
2.15769e-07
6.58294e-09
1.17683e-09
4.87952e-10
3.56685e-10
3.16345e-10
2.96724e-10
2.83681e-10
2.73764e-10
2.65897e-10
2.59538e-10
2.54243e-10
2.49595e-10
2.45224e-10
2.40842e-10
2.36259e-10
2.31372e-10
2.26149e-10
2.20612e-10
2.14817e-10
2.08837e-10
2.02756e-10
1.96655e-10
1.90606e-10
1.84671e-10
1.78892e-10
1.733e-10
1.67913e-10
1.62732e-10
1.57754e-10
1.52962e-10
1.48335e-10
1.43849e-10
1.39474e-10
1.35185e-10
1.30956e-10
1.26766e-10
1.22598e-10
0.999995
0.998951
0.826953
0.431271
0.0958923
0.0110221
0.000688379
4.90069e-05
2.30514e-05
1.16741e-05
4.72705e-06
3.08126e-07
2.909e-08
4.18079e-09
1.09292e-09
5.75731e-10
4.40659e-10
3.8592e-10
3.55331e-10
3.35175e-10
3.21214e-10
3.1161e-10
3.05207e-10
3.01068e-10
2.98381e-10
2.96466e-10
2.94787e-10
2.92961e-10
2.9074e-10
2.87987e-10
2.84652e-10
2.80751e-10
2.76344e-10
2.71526e-10
2.66409e-10
2.6111e-10
2.55741e-10
2.50401e-10
2.45167e-10
2.40097e-10
2.35228e-10
2.30577e-10
2.26143e-10
2.21911e-10
2.17852e-10
2.13932e-10
2.10106e-10
2.06329e-10
2.02554e-10
1.98736e-10
0.943381
0.612785
0.2111
0.041357
0.00517384
0.000388625
1.54582e-05
8.5363e-06
4.95895e-06
2.05861e-06
3.99731e-07
4.52067e-08
7.82391e-09
2.2441e-09
1.08717e-09
7.41283e-10
5.93877e-10
5.12346e-10
4.60139e-10
4.2407e-10
3.98917e-10
3.81987e-10
3.7151e-10
3.65951e-10
3.63919e-10
3.642e-10
3.65782e-10
3.67875e-10
3.69898e-10
3.71452e-10
3.72274e-10
3.72215e-10
3.71218e-10
3.69304e-10
3.66563e-10
3.63139e-10
3.59209e-10
3.54965e-10
3.50596e-10
3.46268e-10
3.42116e-10
3.38238e-10
3.34698e-10
3.31524e-10
3.28719e-10
3.26266e-10
3.24129e-10
3.22256e-10
3.2057e-10
3.18984e-10
0.326477
0.0786679
0.0108807
0.00104081
4.48933e-06
2.46384e-06
1.33391e-06
7.27638e-07
4.10386e-07
1.70035e-07
4.9865e-08
1.58718e-08
7.44348e-09
4.36494e-09
2.94044e-09
2.14566e-09
1.63208e-09
1.26898e-09
1.00329e-09
8.10377e-10
6.73901e-10
5.80804e-10
5.2019e-10
4.83376e-10
4.63571e-10
4.55513e-10
4.5517e-10
4.59531e-10
4.6647e-10
4.74618e-10
4.82972e-10
4.90829e-10
4.97638e-10
5.02979e-10
5.06584e-10
5.08343e-10
5.08314e-10
5.06727e-10
5.03958e-10
5.00462e-10
4.9668e-10
4.92989e-10
4.89699e-10
4.86988e-10
4.84942e-10
4.83682e-10
4.83327e-10
4.8398e-10
4.85683e-10
4.88403e-10
0.00987218
0.00124879
2.56773e-05
8.01387e-06
2.93956e-06
2.50768e-06
1.95326e-06
1.35405e-06
8.80581e-07
6.34433e-07
3.7706e-07
2.73681e-07
1.63249e-07
1.10246e-07
6.65987e-08
5.01869e-08
3.10319e-08
2.44096e-08
1.54453e-08
1.21694e-08
7.77263e-09
6.14005e-09
4.1269e-09
2.76063e-09
1.85348e-09
1.27298e-09
9.21329e-10
7.23985e-10
6.26294e-10
5.89309e-10
5.86396e-10
6.01345e-10
6.25058e-10
6.52274e-10
6.79661e-10
7.04546e-10
7.24526e-10
7.38008e-10
7.4496e-10
7.46896e-10
7.44677e-10
7.39242e-10
7.33112e-10
7.27017e-10
7.18888e-10
7.09768e-10
7.00709e-10
6.93542e-10
6.89464e-10
6.8904e-10
2.45033e-05
9.42131e-06
3.49862e-06
3.49832e-06
3.85225e-06
3.76908e-06
2.79494e-06
2.52032e-06
2.78921e-06
1.38663e-06
2.04556e-06
1.25704e-06
1.39278e-06
8.224e-07
2.18275e-06
1.86996e-06
3.17505e-06
1.31184e-06
2.21041e-06
1.02767e-06
1.72957e-06
8.08881e-07
7.29e-07
5.96692e-07
5.77685e-07
5.39594e-07
4.06407e-07
3.70761e-07
3.22935e-07
2.054e-07
1.71699e-07
1.45179e-07
1.2159e-07
9.98676e-08
8.01715e-08
6.25198e-08
4.73618e-08
3.51042e-08
2.56343e-08
1.85056e-08
1.33229e-08
9.56593e-09
6.87894e-09
4.97541e-09
3.62606e-09
2.67033e-09
2.00885e-09
1.56882e-09
1.28758e-09
1.11076e-09
6.18916e-06
5.50883e-06
5.87528e-06
3.13044e-06
3.04885e-06
2.73731e-06
2.34405e-06
1.96469e-06
1.7193e-06
1.39886e-06
1.2274e-06
1.05583e-06
9.42471e-07
7.9519e-07
8.06162e-07
7.85285e-07
8.2504e-07
7.31475e-07
7.07468e-07
6.405e-07
6.33182e-07
6.07522e-07
3.07093e-07
1.32935e-06
6.80453e-07
3.51211e-07
1.53544e-06
7.79611e-07
3.95135e-07
1.54633e-06
7.70821e-07
7.44223e-07
7.07994e-07
6.62269e-07
5.91648e-07
5.38629e-07
4.87715e-07
4.23636e-07
3.76486e-07
3.28527e-07
2.91409e-07
2.46604e-07
2.18276e-07
1.82e-07
1.61989e-07
1.45907e-07
1.32871e-07
1.21819e-07
1.04278e-07
9.49149e-08
3.93902e-06
1.89954e-06
1.57716e-06
1.34474e-06
1.13785e-06
1.01583e-06
9.06931e-07
8.04799e-07
7.15138e-07
6.31686e-07
5.60474e-07
4.99351e-07
4.46285e-07
3.97912e-07
3.58596e-07
3.24147e-07
2.95654e-07
2.69697e-07
2.49479e-07
2.33511e-07
2.22876e-07
2.1651e-07
2.06457e-07
2.29607e-07
2.36945e-07
2.37189e-07
2.80673e-07
3.06796e-07
3.23175e-07
3.80319e-07
4.10997e-07
4.34874e-07
4.44459e-07
2.60807e-07
1.10981e-06
5.76729e-07
3.747e-07
8.52899e-07
9.81918e-07
8.5865e-07
5.52718e-07
7.38275e-07
3.50419e-07
6.15169e-07
3.0108e-07
2.82207e-07
2.67629e-07
1.3172e-07
4.49665e-07
2.32868e-07
8.58648e-07
7.78912e-07
7.15099e-07
1.36575e-06
5.01559e-07
5.98255e-07
4.57427e-07
3.89427e-07
3.27732e-07
2.75316e-07
2.35797e-07
1.96636e-07
1.41096e-07
1.20452e-07
1.05189e-07
9.77049e-08
9.14689e-08
8.64665e-08
8.36755e-08
8.35078e-08
8.52223e-08
8.81648e-08
9.22295e-08
9.77095e-08
1.04303e-07
1.11993e-07
1.21262e-07
1.31578e-07
1.4255e-07
1.55094e-07
1.71277e-07
2.03243e-07
2.36144e-07
2.60105e-07
2.92436e-07
3.05775e-07
3.10705e-07
2.66949e-07
3.48911e-07
4.24628e-07
4.27608e-07
4.07601e-07
3.82701e-07
3.7381e-07
1.83465e-07
7.01626e-07
3.52544e-07
3.4134e-07
1.71405e-07
6.81268e-07
8.0037e-07
1.02824e-06
4.90416e-07
5.0899e-07
5.01395e-07
1.44513e-06
6.23338e-07
6.12081e-07
5.50857e-07
4.60745e-07
3.95321e-07
4.07251e-07
1.39916e-07
1.14442e-07
8.48793e-08
6.55997e-08
5.45337e-08
4.55002e-08
3.77266e-08
3.25403e-08
2.97576e-08
2.82657e-08
2.74575e-08
2.71397e-08
2.7246e-08
2.77689e-08
2.87541e-08
3.02863e-08
3.24649e-08
3.5374e-08
3.90515e-08
4.34686e-08
4.85301e-08
5.40985e-08
6.00316e-08
6.61964e-08
7.23997e-08
7.80144e-08
8.09716e-08
9.71965e-08
1.09001e-07
1.17051e-07
1.23406e-07
1.29079e-07
1.34e-07
1.28941e-07
1.38635e-07
1.44125e-07
1.50755e-07
1.5641e-07
5.24186e-10
5.67642e-10
6.10995e-10
6.54436e-10
6.98963e-10
7.45459e-10
7.94513e-10
8.46489e-10
9.01643e-10
9.60183e-10
1.0223e-09
1.0882e-09
1.15807e-09
1.23214e-09
1.31065e-09
1.39387e-09
1.48196e-09
1.57509e-09
1.67351e-09
1.77749e-09
1.88729e-09
2.00317e-09
2.12539e-09
2.25423e-09
2.38998e-09
2.53293e-09
2.68338e-09
2.84164e-09
3.00805e-09
3.18292e-09
3.36664e-09
3.55958e-09
3.76218e-09
3.97493e-09
4.19843e-09
4.43339e-09
4.68067e-09
4.94134e-09
5.21672e-09
5.50855e-09
5.8191e-09
6.15131e-09
6.50897e-09
6.89681e-09
7.32071e-09
7.78773e-09
8.30619e-09
8.88566e-09
9.5368e-09
1.02711e-08
1.11004e-08
1.20363e-08
1.30893e-08
1.42674e-08
1.55747e-08
1.70108e-08
1.85706e-08
2.02453e-08
2.20201e-08
2.38707e-08
2.34113e-08
5.1776e-08
3.134e-08
3.31607e-08
3.4833e-08
3.64587e-08
3.28416e-08
7.11342e-08
3.99252e-08
4.35502e-08
4.36605e-08
8.457e-08
4.34486e-08
4.09611e-08
5.97448e-08
3.91332e-08
3.84863e-08
3.77375e-08
3.68671e-08
3.61574e-08
3.56061e-08
3.52213e-08
3.47004e-08
3.42568e-08
3.35084e-08
3.23902e-08
3.09182e-08
2.91612e-08
2.72081e-08
2.51444e-08
2.30415e-08
2.09549e-08
1.89259e-08
1.69848e-08
1.5153e-08
1.34453e-08
1.18707e-08
1.04337e-08
9.13499e-09
7.97186e-09
6.93894e-09
6.02878e-09
5.2324e-09
4.53999e-09
3.94168e-09
3.42809e-09
2.9907e-09
2.62147e-09
2.31216e-09
2.05424e-09
1.83938e-09
1.66005e-09
1.50979e-09
1.38327e-09
1.27612e-09
1.18472e-09
1.10633e-09
1.03885e-09
9.80611e-10
9.30282e-10
8.86759e-10
8.49132e-10
8.16634e-10
7.88616e-10
7.64521e-10
7.43878e-10
7.26283e-10
7.11401e-10
6.98952e-10
6.88703e-10
6.8046e-10
6.7406e-10
6.69362e-10
6.66247e-10
6.64612e-10
6.64366e-10
6.6543e-10
6.67735e-10
6.71221e-10
6.7584e-10
6.8155e-10
6.88323e-10
6.96137e-10
7.04982e-10
7.14861e-10
7.25785e-10
7.37778e-10
7.50878e-10
7.65136e-10
7.80619e-10
7.97407e-10
8.15597e-10
8.35298e-10
8.56633e-10
8.79742e-10
9.0478e-10
9.31922e-10
9.61359e-10
9.9331e-10
1.02802e-09
1.06575e-09
1.1068e-09
1.15151e-09
1.20024e-09
1.2534e-09
1.31147e-09
1.37495e-09
1.44443e-09
1.52054e-09
1.60401e-09
1.69562e-09
1.79627e-09
1.90691e-09
2.02857e-09
2.16238e-09
2.30954e-09
2.47134e-09
2.64924e-09
2.84469e-09
3.0594e-09
3.29525e-09
3.55432e-09
3.83887e-09
4.15124e-09
4.49366e-09
4.86864e-09
5.27888e-09
5.72776e-09
6.21968e-09
6.76032e-09
7.35604e-09
8.01324e-09
8.73692e-09
9.52941e-09
1.03899e-08
1.13138e-08
1.22941e-08
1.33255e-08
1.44047e-08
1.5531e-08
1.67062e-08
1.79264e-08
1.91807e-08
2.04595e-08
2.17708e-08
2.31524e-08
2.46668e-08
2.63717e-08
2.82849e-08
3.03678e-08
3.25479e-08
3.47657e-08
3.70181e-08
3.93761e-08
4.19783e-08
4.50113e-08
4.86797e-08
5.31559e-08
5.85082e-08
6.4632e-08
7.12264e-08
7.78548e-08
8.40858e-08
8.96476e-08
9.45062e-08
9.8819e-08
1.02816e-07
1.06698e-07
1.10553e-07
1.14253e-07
1.17472e-07
1.20105e-07
1.22509e-07
1.24491e-07
1.25368e-07
1.25934e-07
1.26841e-07
1.27526e-07
1.30528e-07
1.38838e-07
1.54737e-07
1.7753e-07
2.04284e-07
2.30297e-07
2.48292e-07
2.69589e-07
2.77017e-07
2.49604e-07
2.38977e-07
2.15569e-07
1.97528e-07
1.63432e-07
1.49537e-07
1.67031e-07
1.54872e-07
1.32565e-07
1.15435e-07
1.03366e-07
9.50687e-08
8.88862e-08
7.62965e-08
8.71325e-08
7.46658e-08
7.03255e-08
7.04489e-08
8.69273e-08
8.43106e-08
8.63375e-08
9.14558e-08
1.00267e-07
1.14579e-07
1.34922e-07
1.56149e-07
1.51204e-07
1.2028e-07
8.85074e-08
7.34982e-08
6.85944e-08
7.03029e-08
7.73216e-08
8.8818e-08
9.23988e-08
7.66777e-08
5.78986e-08
5.19395e-08
4.7338e-08
4.42751e-08
4.2478e-08
4.08767e-08
3.83924e-08
3.43203e-08
2.9399e-08
2.50626e-08
2.17568e-08
1.90865e-08
1.67488e-08
1.45947e-08
1.25657e-08
1.06596e-08
8.85206e-09
4.49977e-10
4.87034e-10
5.22462e-10
5.58848e-10
5.97306e-10
6.38303e-10
6.82095e-10
7.28879e-10
7.78855e-10
8.32232e-10
8.89228e-10
9.50078e-10
1.01505e-09
1.08443e-09
1.15859e-09
1.23803e-09
1.32269e-09
1.4128e-09
1.50878e-09
1.61114e-09
1.72011e-09
1.83612e-09
1.95962e-09
2.09108e-09
2.23096e-09
2.37976e-09
2.53802e-09
2.70628e-09
2.88513e-09
3.07516e-09
3.27702e-09
3.49137e-09
3.71892e-09
3.96047e-09
4.21695e-09
4.48931e-09
4.77877e-09
5.08622e-09
5.4127e-09
5.75965e-09
6.12869e-09
6.52177e-09
6.94114e-09
7.3894e-09
7.86954e-09
8.38504e-09
8.93985e-09
9.53841e-09
1.01856e-08
1.08866e-08
1.16468e-08
1.24717e-08
1.33663e-08
1.43352e-08
1.53821e-08
1.65093e-08
1.77174e-08
1.90053e-08
2.03699e-08
2.18062e-08
2.33069e-08
2.46235e-08
2.62095e-08
2.78528e-08
2.95166e-08
3.11417e-08
3.26512e-08
3.30833e-08
3.62132e-08
3.27097e-08
8.18309e-08
4.46003e-08
4.25319e-08
7.34623e-08
3.82924e-08
3.90262e-08
3.97598e-08
3.66625e-08
7.41847e-08
3.92654e-08
3.88885e-08
3.53287e-08
6.94526e-08
3.65254e-08
3.54009e-08
3.42721e-08
3.33671e-08
3.27411e-08
3.24943e-08
3.23338e-08
3.20252e-08
3.14016e-08
3.04105e-08
2.90941e-08
2.75411e-08
2.58449e-08
2.40816e-08
2.23054e-08
2.05522e-08
1.88454e-08
1.72012e-08
1.56314e-08
1.41448e-08
1.2748e-08
1.14453e-08
1.02386e-08
9.12789e-09
8.11142e-09
7.18737e-09
6.3539e-09
5.60822e-09
4.94621e-09
4.36262e-09
3.85155e-09
3.4065e-09
3.02035e-09
2.68587e-09
2.39638e-09
2.14587e-09
1.92901e-09
1.74111e-09
1.57809e-09
1.43641e-09
1.31298e-09
1.2051e-09
1.11047e-09
1.02714e-09
9.53468e-10
8.88146e-10
8.30084e-10
7.78394e-10
7.32333e-10
6.91272e-10
6.54672e-10
6.22062e-10
5.9303e-10
5.67212e-10
5.44285e-10
5.23962e-10
5.05987e-10
4.90138e-10
4.76217e-10
4.64056e-10
4.53507e-10
4.44444e-10
4.36759e-10
4.30358e-10
4.25161e-10
4.21103e-10
4.18126e-10
4.16183e-10
4.15238e-10
4.15261e-10
4.16232e-10
4.1814e-10
4.20982e-10
4.24762e-10
4.29494e-10
4.35199e-10
4.41907e-10
4.49656e-10
4.58497e-10
4.6849e-10
4.7971e-10
4.92244e-10
5.06202e-10
5.2171e-10
5.38914e-10
5.57981e-10
5.79107e-10
6.02505e-10
6.28403e-10
6.57046e-10
6.88709e-10
7.23719e-10
7.62442e-10
8.05276e-10
8.52667e-10
9.05106e-10
9.63137e-10
1.02736e-09
1.09845e-09
1.17714e-09
1.26428e-09
1.3608e-09
1.46764e-09
1.58588e-09
1.71665e-09
1.86117e-09
2.02079e-09
2.19717e-09
2.39231e-09
2.60865e-09
2.84882e-09
3.11512e-09
3.40908e-09
3.73103e-09
4.08011e-09
4.45475e-09
4.85331e-09
5.27584e-09
5.723e-09
6.19539e-09
6.69224e-09
7.21019e-09
7.7484e-09
8.31524e-09
8.93031e-09
9.61754e-09
1.03927e-08
1.12557e-08
1.2196e-08
1.32066e-08
1.42944e-08
1.5482e-08
1.68012e-08
1.82883e-08
1.99787e-08
2.18959e-08
2.40318e-08
2.63276e-08
2.86743e-08
3.09449e-08
3.30453e-08
3.49485e-08
3.66865e-08
3.83168e-08
3.9897e-08
4.14786e-08
4.31101e-08
4.48478e-08
4.67645e-08
4.89082e-08
5.11969e-08
5.34161e-08
5.54319e-08
5.73077e-08
5.93815e-08
6.22716e-08
6.66052e-08
7.27257e-08
8.03104e-08
8.84891e-08
9.58544e-08
1.00468e-07
1.0132e-07
9.95669e-08
9.68618e-08
9.28536e-08
8.7861e-08
8.31146e-08
7.7295e-08
7.35938e-08
7.45304e-08
7.14088e-08
6.69561e-08
6.30012e-08
5.98681e-08
5.75575e-08
5.59015e-08
5.38284e-08
5.55677e-08
5.16746e-08
5.0913e-08
5.24626e-08
5.72058e-08
5.77675e-08
5.92782e-08
6.20436e-08
6.57428e-08
6.94071e-08
7.08269e-08
6.73972e-08
5.89597e-08
4.89679e-08
4.17995e-08
3.79188e-08
3.61759e-08
3.56351e-08
3.53127e-08
3.40224e-08
3.07517e-08
2.65288e-08
2.32594e-08
2.09037e-08
1.89492e-08
1.72313e-08
1.55886e-08
1.39058e-08
1.21607e-08
1.04346e-08
8.84838e-09
7.46236e-09
6.25951e-09
5.20395e-09
4.27216e-09
3.45236e-09
2.73897e-09
2.12914e-09
1.60846e-09
3.72507e-10
3.98043e-10
4.25436e-10
4.54817e-10
4.86324e-10
5.20105e-10
5.56321e-10
5.95146e-10
6.36779e-10
6.8141e-10
7.29249e-10
7.80545e-10
8.35526e-10
8.94519e-10
9.57986e-10
1.02655e-09
1.09964e-09
1.17776e-09
1.26143e-09
1.35139e-09
1.44741e-09
1.55014e-09
1.66015e-09
1.77798e-09
1.90412e-09
2.03918e-09
2.18376e-09
2.33854e-09
2.50419e-09
2.68147e-09
2.87116e-09
3.07407e-09
3.29112e-09
3.52334e-09
3.77212e-09
4.03867e-09
4.32524e-09
4.6316e-09
4.95846e-09
5.30765e-09
5.68036e-09
6.07844e-09
6.50376e-09
6.95817e-09
7.44358e-09
7.962e-09
8.51547e-09
9.10608e-09
9.73592e-09
1.04071e-08
1.11216e-08
1.18813e-08
1.26879e-08
1.35428e-08
1.44472e-08
1.54017e-08
1.6406e-08
1.74593e-08
1.85604e-08
1.97079e-08
2.08993e-08
2.21319e-08
2.34021e-08
2.47056e-08
2.60371e-08
2.73903e-08
2.87552e-08
3.01188e-08
3.13834e-08
3.25369e-08
3.31863e-08
2.86673e-08
6.75455e-08
3.65642e-08
3.15488e-08
6.83838e-08
3.64423e-08
3.65575e-08
3.57013e-08
4.30671e-08
3.7553e-08
8.15065e-08
4.23079e-08
4.00586e-08
3.80013e-08
3.70167e-08
3.34598e-08
6.88827e-08
3.72092e-08
3.66588e-08
3.57306e-08
3.49633e-08
3.46563e-08
3.4642e-08
3.4586e-08
3.42483e-08
3.35401e-08
3.25172e-08
3.12741e-08
2.98961e-08
2.84447e-08
2.696e-08
2.54674e-08
2.39839e-08
2.25216e-08
2.10898e-08
1.96958e-08
1.83458e-08
1.70438e-08
1.57932e-08
1.45966e-08
1.34566e-08
1.23756e-08
1.13545e-08
1.03943e-08
9.49594e-09
8.65976e-09
7.88525e-09
7.17108e-09
6.51529e-09
5.91537e-09
5.36841e-09
4.8712e-09
4.42039e-09
4.01258e-09
3.64442e-09
3.31261e-09
3.01396e-09
2.74541e-09
2.50407e-09
2.28722e-09
2.09235e-09
1.91718e-09
1.75962e-09
1.6178e-09
1.49e-09
1.37471e-09
1.27055e-09
1.1763e-09
1.09088e-09
1.01333e-09
9.42819e-10
8.78615e-10
8.20086e-10
7.66677e-10
7.17899e-10
6.73323e-10
6.32564e-10
5.95282e-10
5.61172e-10
5.29962e-10
5.01407e-10
4.75289e-10
4.51414e-10
4.29607e-10
4.09712e-10
3.9159e-10
3.75118e-10
3.60187e-10
3.467e-10
3.34573e-10
3.23732e-10
3.14113e-10
3.05662e-10
2.98333e-10
2.92087e-10
2.86894e-10
2.82733e-10
2.7959e-10
2.77461e-10
2.76347e-10
2.76262e-10
2.77228e-10
2.79275e-10
2.82446e-10
2.86793e-10
2.9238e-10
2.99285e-10
3.07596e-10
3.1742e-10
3.28879e-10
3.42112e-10
3.57278e-10
3.7456e-10
3.94157e-10
4.16294e-10
4.41228e-10
4.6925e-10
5.00705e-10
5.36179e-10
5.76053e-10
6.20506e-10
6.70006e-10
7.25182e-10
7.86786e-10
8.55734e-10
9.32928e-10
1.019e-09
1.11464e-09
1.22024e-09
1.33583e-09
1.46116e-09
1.59617e-09
1.74134e-09
1.89777e-09
2.06615e-09
2.2459e-09
2.43546e-09
2.63607e-09
2.85361e-09
3.09781e-09
3.37591e-09
3.68908e-09
4.03536e-09
4.41525e-09
4.83432e-09
5.30032e-09
5.81902e-09
6.39438e-09
7.02997e-09
7.72741e-09
8.48008e-09
9.26567e-09
1.0049e-08
1.0802e-08
1.1522e-08
1.22222e-08
1.2911e-08
1.35915e-08
1.42758e-08
1.49925e-08
1.57762e-08
1.667e-08
1.7695e-08
1.88067e-08
1.99113e-08
2.09584e-08
2.19891e-08
2.31455e-08
2.45402e-08
2.6254e-08
2.82196e-08
3.02283e-08
3.19919e-08
3.32555e-08
3.37971e-08
3.3816e-08
3.37522e-08
3.34364e-08
3.27143e-08
3.16585e-08
3.05305e-08
2.95111e-08
2.92016e-08
2.87322e-08
2.80606e-08
2.73575e-08
2.67371e-08
2.62635e-08
2.59471e-08
2.56768e-08
2.57362e-08
2.48917e-08
2.46755e-08
2.49413e-08
2.54228e-08
2.5298e-08
2.52609e-08
2.53363e-08
2.52466e-08
2.45878e-08
2.30181e-08
2.06383e-08
1.80311e-08
1.57935e-08
1.41434e-08
1.29385e-08
1.19939e-08
1.11366e-08
1.02171e-08
9.16466e-09
8.04367e-09
7.00104e-09
6.10039e-09
5.30795e-09
4.59144e-09
3.93255e-09
3.3229e-09
2.76363e-09
2.26144e-09
1.82288e-09
1.44919e-09
1.13596e-09
8.76492e-10
6.64322e-10
4.93629e-10
3.58992e-10
2.55189e-10
1.77187e-10
1.19243e-10
2.8054e-10
2.99459e-10
3.19798e-10
3.41656e-10
3.65142e-10
3.90374e-10
4.17477e-10
4.46586e-10
4.77845e-10
5.1141e-10
5.47448e-10
5.86138e-10
6.27672e-10
6.72258e-10
7.20116e-10
7.71485e-10
8.2662e-10
8.85794e-10
9.49302e-10
1.01746e-09
1.0906e-09
1.16908e-09
1.2533e-09
1.34367e-09
1.44063e-09
1.54465e-09
1.65624e-09
1.77595e-09
1.90435e-09
2.04205e-09
2.18973e-09
2.34808e-09
2.5179e-09
2.70044e-09
2.8972e-09
3.10895e-09
3.33961e-09
3.58559e-09
3.84769e-09
4.12904e-09
4.42825e-09
4.74792e-09
5.08969e-09
5.45496e-09
5.84507e-09
6.26139e-09
6.70523e-09
7.17786e-09
7.68065e-09
8.2149e-09
8.78186e-09
9.38269e-09
1.00186e-08
1.06914e-08
1.14025e-08
1.2154e-08
1.29421e-08
1.37665e-08
1.46267e-08
1.55227e-08
1.6454e-08
1.74198e-08
1.84187e-08
1.94486e-08
2.05074e-08
2.15924e-08
2.27006e-08
2.38282e-08
2.49713e-08
2.61252e-08
2.72773e-08
2.84175e-08
2.88023e-08
3.0039e-08
3.12957e-08
3.19042e-08
3.31951e-08
3.44447e-08
3.56009e-08
3.63679e-08
3.73459e-08
2.78578e-08
7.25811e-08
3.9806e-08
3.92468e-08
3.06008e-08
6.89504e-08
3.63524e-08
3.55533e-08
3.27331e-08
6.16261e-08
3.42439e-08
3.52681e-08
3.46682e-08
5.9171e-08
3.50336e-08
3.43385e-08
3.36448e-08
3.32144e-08
3.30632e-08
3.30178e-08
3.2857e-08
3.24439e-08
3.17578e-08
3.08524e-08
2.98014e-08
2.86671e-08
2.7491e-08
2.62978e-08
2.5102e-08
2.39122e-08
2.27346e-08
2.15743e-08
2.04357e-08
1.93226e-08
1.82386e-08
1.71863e-08
1.61681e-08
1.51862e-08
1.42423e-08
1.3338e-08
1.24742e-08
1.16518e-08
1.08709e-08
1.01317e-08
9.43359e-09
8.77598e-09
8.15792e-09
7.57826e-09
7.03567e-09
6.52871e-09
6.05579e-09
5.61527e-09
5.20544e-09
4.82461e-09
4.47107e-09
4.14316e-09
3.83926e-09
3.5578e-09
3.29727e-09
3.05624e-09
2.83332e-09
2.62719e-09
2.43661e-09
2.2604e-09
2.09745e-09
1.94673e-09
1.80727e-09
1.6782e-09
1.55871e-09
1.44804e-09
1.34551e-09
1.25051e-09
1.16245e-09
1.08082e-09
1.00514e-09
9.34978e-10
8.69929e-10
8.09629e-10
7.53739e-10
7.0195e-10