/*--------------------------------*- C++ -*----------------------------------*\
| =========                 |                                                 |
| \\      /  F ield         | OpenFOAM: The Open Source CFD Toolbox           |
|  \\    /   O peration     | Version:  2.4.0                                 |
|   \\  /    A nd           | Web:      www.OpenFOAM.org                      |
|    \\/     M anipulation  |                                                 |
\*---------------------------------------------------------------------------*/
FoamFile
{
    version     2.0;
    format      ascii;
    class       volScalarField;
    location    "5";
    object      H;
}
// * * * * * * * * * * * * * * * * * * * * * * * * * * * * * * * * * * * * * //

dimensions      [0 2 -2 0 0 0 0];

internalField   nonuniform List<scalar> 
8000
(
-11560.3
-10238.1
-8957.14
-7726.96
-6545.83
-5393.43
-4227.65
-2888.73
-1287.01
-30.3346
-0.4912
-0.470306
-0.44175
-0.376389
-0.321178
-0.20699
-0.0337634
-0.0214618
-2.09827
-4.46294
-6.79808
-8.87421
-10.6136
-12.0226
-13.1363
-14.009
-14.68
-15.2174
-15.659
-16.0243
-16.3254
-16.5649
-16.7348
-16.8311
-16.8725
-16.8764
-16.7798
-16.581
-16.2931
-15.9557
-15.6514
-15.3278
-14.8954
-14.3068
-13.5821
-12.7607
-11.8699
-10.9018
-9.90446
-8.92216
-11818.2
-11002.7
-10206.8
-9436.6
-8694.04
-7977.83
-7284.71
-6610.5
-5950.71
-5301.55
-4658.77
-4008.2
-3340.71
-2650.7
-1936.17
-1195.53
-409.085
-45.6561
-0.297032
-0.21751
-0.20541
-0.168647
-0.120129
-0.0504686
-0.0139964
-0.0073416
-1.11581
-2.19092
-3.25866
-4.29741
-5.2371
-6.01025
-6.5977
-6.99919
-7.27187
-7.45778
-7.53572
-7.50544
-7.39546
-7.28342
-7.22265
-7.22672
-7.1098
-6.78499
-6.30544
-5.83553
-5.37587
-4.91344
-4.45635
-4.01303
-11932.5
-11341
-10758.3
-10187.7
-9631.22
-9089.64
-8562.93
-8050.5
-7551.46
-7064.74
-6589.27
-6124.05
-5668.2
-5220.87
-4781.13
-4347.75
-3918.7
-3490.85
-3058.39
-2613.9
-2152.93
-1675.94
-1190
-711.887
-267.424
-0.528474
-0.0802812
-0.0581496
-0.0380399
-0.0160846
-0.00497972
-0.00182201
-0.416878
-0.738614
-1.01309
-1.30005
-1.57919
-1.72198
-1.73981
-1.75168
-1.77947
-1.78472
-1.74825
-1.69028
-1.60945
-1.51512
-1.40239
-1.27699
-1.14075
-1.00567
-11981
-11484
-10989.7
-10499.5
-10014.6
-9535.94
-9064.31
-8600.48
-8145.15
-7698.99
-7262.61
-6836.51
-6421.09
-6016.53
-5622.82
-5239.7
-4866.63
-4502.77
-4147.58
-3800.52
-3460.54
-3126.46
-2796.98
-2470.56
-2145.3
-1818.93
-1488.9
-1154.87
-822.926
-507.837
-223.291
-0.36981
-0.0369279
-0.0209065
-0.00921887
-0.00321232
-0.115234
-0.220435
-0.305769
-0.376824
-0.425159
-0.438673
-0.428566
-0.409443
-0.389232
-0.366317
-0.340885
-0.313877
-0.285686
-0.256696
-11995.4
-11526
-11056.4
-10587
-10118.6
-9652.06
-9188.74
-8730.05
-8277.58
-7832.98
-7397.9
-6973.92
-6562.44
-6164.62
-5781.34
-5413.24
-5060.69
-4723.74
-4402.1
-4095.15
-3802.03
-3521.64
-3252.73
-2993.95
-2743.88
-2501.04
-2263.95
-2031.22
-1801.58
-1573.9
-1346.68
-1118.35
-887.854
-655.747
-426.476
-204.657
-0.271981
-0.00901502
-0.00308182
-0.00147815
-0.000139332
-0.0202209
-0.0372268
-0.0535866
-0.0662957
-0.0732376
-0.0759737
-0.0764565
-0.0754863
-0.0733834
-11988.8
-11505.9
-11021.4
-10535.6
-10048.8
-9562.3
-9077.59
-8596.58
-8121.41
-7654.33
-7197.63
-6753.51
-6323.98
-5910.8
-5515.43
-5138.92
-4781.98
-4444.92
-4127.69
-3829.91
-3550.9
-3289.72
-3045.26
-2816.24
-2601.3
-2399.04
-2207.99
-2026.65
-1853.52
-1687.11
-1525.91
-1368.47
-1213.45
-1059.72
-906.434
-753.185
-600.194
-448.742
-299.743
-148.781
-3.57728
-0.00948376
-0.00216126
-0.000745751
-0.00463588
-0.00799056
-0.010933
-0.013442
-0.0151541
-0.0162689
-11975.7
-11466.4
-10955.5
-10443.2
-9930.04
-9417.29
-8906.73
-8400.49
-7900.96
-7410.69
-6932.2
-6467.97
-6020.22
-5590.92
-5181.67
-4793.7
-4427.81
-4084.4
-3763.48
-3464.71
-3187.46
-2930.8
-2693.63
-2474.7
-2272.63
-2086.01
-1913.4
-1753.36
-1604.51
-1465.51
-1335.1
-1212.1
-1095.45
-984.238
-877.651
-775.003
-675.729
-579.413
-485.805
-394.865
-307.029
-223.536
-145.353
-72.3978
-0.0844674
-0.00277068
-0.00128022
-0.000904159
-0.00310013
-0.00419426
-11962.7
-11427.7
-10891.7
-10355
-9818.54
-9283.74
-8752.61
-8227.45
-7710.81
-7205.29
-6713.5
-6237.88
-5780.63
-5343.63
-4928.4
-4536.03
-4167.23
-3822.26
-3501.04
-3203.12
-2927.8
-2674.11
-2440.92
-2226.94
-2030.84
-1851.23
-1686.71
-1535.93
-1397.58
-1270.42
-1153.3
-1045.13
-944.935
-851.828
-765.008
-683.766
-607.487
-535.65
-467.831
-403.705
-343.047
-285.731
-231.715
-181.021
-133.739
-90.3393
-52.0872
-22.0194
-0.0282949
-0.0024802
-11955.3
-11406
-10856.9
-10308.9
-9763.24
-9221.68
-8686.19
-8159.01
-7642.5
-7139.01
-6650.82
-6180.02
-5728.47
-5297.7
-4888.88
-4502.85
-4140.04
-3800.55
-3484.17
-3190.39
-2918.47
-2667.45
-2436.27
-2223.74
-2028.63
-1849.66
-1685.6
-1535.2
-1397.31
-1270.81
-1154.65
-1047.88
-949.612
-859.024
-775.383
-698.021
-626.335
-559.785
-497.887
-440.209
-386.363
-335.998
-288.786
-244.41
-202.558
-162.961
-125.499
-90.3917
-58.1037
-28.988
-11956.8
-11410.9
-10866.7
-10325.5
-9789.04
-9258.99
-8737.27
-8225.84
-7726.65
-7241.59
-6772.42
-6320.71
-5887.8
-5474.73
-5082.3
-4710.98
-4360.98
-4032.22
-3724.39
-3436.96
-3169.25
-2920.4
-2689.48
-2475.49
-2277.36
-2094.04
-1924.47
-1767.64
-1622.54
-1488.25
-1363.89
-1248.62
-1141.68
-1042.35
-949.991
-863.991
-783.799
-708.905
-638.846
-573.197
-511.572
-453.614
-398.997
-347.418
-298.602
-252.292
-208.241
-166.201
-126.004
-87.8878
-11966.6
-11440.7
-10917.5
-10398.6
-9885.92
-9381.11
-8885.9
-8401.92
-7930.69
-7473.64
-7032.01
-6606.86
-6199.04
-5809.18
-5437.68
-5084.75
-4750.36
-4434.32
-4136.25
-3855.66
-3591.91
-3344.29
-3112.04
-2894.34
-2690.34
-2499.22
-2320.15
-2152.32
-1994.96
-1847.34
-1708.76
-1578.57
-1456.14
-1340.9
-1232.33
-1129.94
-1033.26
-941.883
-855.409
-773.488
-695.797
-622.044
-551.962
-485.295
-421.756
-361.15
-303.414
-248.463
-196.233
-146.854
-11981.7
-11486.2
-10993.8
-10506.5
-10026.1
-9553.98
-9091.75
-8640.68
-8201.92
-7776.47
-7365.13
-6968.55
-6587.18
-6221.33
-5871.11
-5536.49
-5217.32
-4913.3
-4624.06
-4349.12
-4087.96
-3839.98
-3604.6
-3381.17
-3169.08
-2967.7
-2776.43
-2594.68
-2421.91
-2257.58
-2101.21
-1952.31
-1810.45
-1675.19
-1546.15
-1422.93
-1305.14
-1192.48
-1084.63
-981.273
-882.108
-786.878
-695.342
-607.247
-522.343
-440.367
-361.012
-283.875
-208.396
-133.689
-12000.2
-11541.7
-11086.4
-10636.1
-10192.3
-9756.37
-9329.54
-8912.81
-8507.01
-8112.8
-7730.66
-7360.95
-7003.86
-6659.47
-6327.73
-6008.51
-5701.58
-5406.65
-5123.36
-4851.34
-4590.16
-4339.39
-4098.6
-3867.36
-3645.22
-3431.78
-3226.65
-3029.44
-2839.8
-2657.37
-2481.84
-2312.9
-2150.23
-1993.55
-1842.57
-1697.01
-1556.57
-1420.97
-1289.91
-1163.1
-1040.23
-921.003
-805.088
-692.13
-581.683
-473.12
-365.53
-257.755
-149.069
-38.6546
-12018
-11594.9
-11174.6
-10758.6
-10348.4
-9944.87
-9549.07
-9161.7
-8783.31
-8414.33
-8055.05
-7705.63
-7366.16
-7036.62
-6716.91
-6406.9
-6106.4
-5815.18
-5532.98
-5259.54
-4994.59
-4737.85
-4489.05
-4247.93
-4014.23
-3787.72
-3568.18
-3355.39
-3149.15
-2949.28
-2755.57
-2567.85
-2385.92
-2209.57
-2038.59
-1872.73
-1711.73
-1555.31
-1403.14
-1254.87
-1110.12
-968.486
-829.529
-692.736
-557.482
-422.91
-287.507
-147.138
-16.3434
-0.020592
-12032.3
-11637.6
-11245
-10855.6
-10470.4
-10090.3
-9715.92
-9347.89
-8986.66
-8632.59
-8285.93
-7946.87
-7615.49
-7291.84
-6975.91
-6667.62
-6366.9
-6073.63
-5787.68
-5508.9
-5237.14
-4972.26
-4714.13
-4462.6
-4217.56
-3978.89
-3746.5
-3520.28
-3300.14
-3086
-2877.74
-2675.26
-2478.41
-2287.04
-2100.92
-1919.81
-1743.4
-1571.31
-1403.11
-1238.25
-1076.11
-915.892
-756.632
-597.141
-436.368
-274.722
-116.446
-0.128489
-0.000398642
-2.59477e-06
-12040.1
-11660.9
-11283
-10907.5
-10534.9
-10166.1
-9801.54
-9441.84
-9087.41
-8738.62
-8395.78
-8059.11
-7728.82
-7405
-7087.75
-6777.09
-6473.01
-6175.48
-5884.44
-5599.82
-5321.55
-5049.54
-4783.75
-4524.11
-4270.6
-4023.18
-3781.84
-3546.55
-3317.3
-3094.07
-2876.82
-2665.48
-2459.95
-2260.05
-2065.56
-1876.14
-1691.37
-1510.7
-1333.44
-1158.71
-985.562
-812.838
-639.358
-463.973
-285.008
-98.5441
-0.119396
-0.0921227
-0.000758102
0.00154256
-12039.4
-11658.4
-11278.2
-10899.4
-10522.6
-10148.6
-9778.22
-9412.08
-9050.86
-8695.13
-8345.33
-8001.84
-7664.9
-7334.68
-7011.25
-6694.63
-6384.78
-6081.61
-5785.01
-5494.86
-5211.03
-4933.38
-4661.82
-4396.4
-4137.32
-3884.69
-3638.43
-3398.57
-3165.15
-2938.21
-2717.81
-2503.96
-2296.57
-2095.49
-1900.42
-1710.94
-1526.46
-1346.2
-1169.17
-994.255
-820.347
-646.664
-473.058
-299.991
-127.516
-0.159149
-0.136477
-0.0542585
0.0117512
0.785277
-12025
-11615.2
-11206.5
-10800.2
-10397.7
-10000.3
-9609.12
-9225.24
-8849.33
-8481.88
-8123.17
-7773.26
-7432.1
-7099.51
-6775.26
-6459.05
-6150.59
-5849.61
-5555.83
-5269.04
-4989.07
-4715.8
-4449.17
-4189.18
-3935.88
-3689.33
-3449.63
-3216.89
-2991.18
-2772.62
-2561.49
-2358.53
-2163.6
-1976.44
-1796.77
-1624.11
-1457.8
-1296.94
-1140.39
-986.792
-834.623
-682.066
-526.574
-363.797
-187.623
-0.20691
-0.000383493
0.000587386
0.0602141
3.81915
-11981.6
-11486.8
-10998.8
-10522.1
-10059.8
-9613.92
-9185.14
-8773.4
-8378.11
-7998.31
-7632.9
-7280.72
-6940.64
-6611.61
-6292.69
-5983.05
-5681.98
-5388.9
-5103.35
-4825
-4553.61
-4289.07
-4031.37
-3780.55
-3536.76
-3300.21
-3071.18
-2850.06
-2637.22
-2433.08
-2237.99
-2052.28
-1876.12
-1709.59
-1552.56
-1404.71
-1265.46
-1133.91
-1008.83
-888.516
-770.799
-653.033
-532.236
-405.42
-270.045
-128.767
-0.164223
-0.000726966
0.144397
21.1864
-11771.2
-11002.7
-10339.3
-9752.72
-9224.17
-8740.54
-8292.46
-7873.04
-7477.11
-7100.75
-6740.89
-6395.15
-6061.65
-5738.91
-5425.77
-5121.33
-4824.91
-4536.03
-4254.35
-3979.7
-3712.05
-3451.48
-3198.17
-2952.33
-2713.87
-2482.86
-2261.18
-2049.61
-1848.92
-1659.75
-1482.69
-1318.13
-1166.27
-1027.06
-900.243
-785.355
-681.766
-588.718
-505.359
-430.777
-364.021
-304.122
-250.07
-200.724
-154.497
-108.572
-57.1949
-0.0605262
0.00645393
8.60525
-7.98267
-7.08618
-6.22863
-5.4208
-4.65569
-3.94471
-3.29606
-2.71315
-2.20006
-1.75803
-1.38508
-1.0766
-0.82617
-0.626424
-0.469703
-0.348611
-0.256371
-0.187022
-0.135505
-0.0976479
-0.070095
-0.0502091
-0.0359572
-0.0257995
-0.0185882
-0.0134799
-0.00986283
-0.00729796
-0.00547358
-0.00417008
-0.00323376
-0.00255754
-0.002067
-0.00171039
-0.00145168
-0.00126559
-0.00113428
-0.00104502
-0.000988632
-0.000958404
-0.000949391
-0.000957904
-0.000981177
-0.00101712
-0.00106418
-0.00112115
-0.00118717
-0.00126157
-0.00134389
-0.00143375
-3.58541
-3.17022
-2.77551
-2.40037
-2.05111
-1.72983
-1.438
-1.17789
-0.950849
-0.756828
-0.594399
-0.461042
-0.353524
-0.268281
-0.20173
-0.150496
-0.111549
-0.0822775
-0.0604942
-0.0444202
-0.0326404
-0.0240516
-0.0178092
-0.0132773
-0.0099836
-0.00758199
-0.00582168
-0.00452259
-0.00355644
-0.00283222
-0.00228555
-0.0018708
-0.00155547
-0.0013162
-0.00113602
-0.0010024
-0.000905965
-0.000839567
-0.000797697
-0.000776063
-0.000771296
-0.00078075
-0.000802349
-0.000834474
-0.000875879
-0.000925617
-0.000982987
-0.00104748
-0.00111875
-0.00119656
-0.876358
-0.754349
-0.642232
-0.54105
-0.451019
-0.372048
-0.303772
-0.245604
-0.19677
-0.156359
-0.123377
-0.0968059
-0.075653
-0.058991
-0.0459845
-0.0359046
-0.0281328
-0.0221572
-0.0175636
-0.0140235
-0.011281
-0.00914005
-0.00745288
-0.00610954
-0.00502903
-0.00415223
-0.00343561
-0.00284707
-0.00236291
-0.00196517
-0.00163986
-0.00137577
-0.00116367
-0.000995785
-0.000865498
-0.000767094
-0.000695648
-0.000646922
-0.000617302
-0.000603731
-0.00060366
-0.000614994
-0.000636037
-0.000665444
-0.000702173
-0.000745441
-0.000794682
-0.000849515
-0.000909713
-0.00097519
-0.227622
-0.199492
-0.173001
-0.148533
-0.126343
-0.106576
-0.0892628
-0.0743295
-0.0616294
-0.0509684
-0.0421247
-0.0348631
-0.0289482
-0.024155
-0.0202773
-0.0171329
-0.0145666
-0.0124507
-0.0106836
-0.0091869
-0.00790198
-0.00678642
-0.00581019
-0.00495239
-0.00419842
-0.0035378
-0.00296248
-0.00246566
-0.00204109
-0.00168265
-0.00138416
-0.00113943
-0.000942279
-0.000786698
-0.000666973
-0.000577793
-0.000514334
-0.000472316
-0.000448016
-0.000438267
-0.000440426
-0.000452334
-0.000472265
-0.00049887
-0.00053112
-0.00056826
-0.000609757
-0.00065526
-0.00070457
-0.000757608
-0.0703452
-0.0664182
-0.0617029
-0.0564408
-0.0509069
-0.0453688
-0.0400742
-0.0352157
-0.0308835
-0.027105
-0.0238634
-0.0211097
-0.0187757
-0.0167858
-0.0150663
-0.0135515
-0.012188
-0.0109356
-0.00976759
-0.00866827
-0.00763107
-0.00665567
-0.00574545
-0.00490537
-0.00414023
-0.00345353
-0.00284685
-0.0023196
-0.00186912
-0.00149098
-0.00117937
-0.000927636
-0.000728649
-0.000575241
-0.000460497
-0.000377995
-0.000321945
-0.00028728
-0.000269666
-0.000265491
-0.000271808
-0.000286268
-0.000307041
-0.000332739
-0.000362339
-0.000395116
-0.00043058
-0.000468427
-0.000508497
-0.00055074
-0.0170766
-0.0176726
-0.0180917
-0.0183028
-0.0183118
-0.0181503
-0.0178654
-0.0175037
-0.017092
-0.0166563
-0.0162002
-0.015713
-0.0151758
-0.0145684
-0.0138751
-0.0130882
-0.0122097
-0.0112506
-0.0102296
-0.00917118
-0.00810206
-0.00704928
-0.00603768
-0.00508829
-0.00421727
-0.0034355
-0.00274873
-0.00215802
-0.00166056
-0.00125055
-0.000920119
-0.000660191
-0.000461195
-0.000313663
-0.000208658
-0.000138063
-9.4737e-05
-7.25822e-05
-6.65245e-05
-7.24478e-05
-8.70943e-05
-0.00010795
-0.000133125
-0.000161243
-0.000191336
-0.000222757
-0.000255103
-0.000288154
-0.000321823
-0.000356122
-0.00533455
-0.00642335
-0.00758334
-0.00879676
-0.0100034
-0.0111754
-0.0122916
-0.0133157
-0.0142081
-0.0149474
-0.015496
-0.0158212
-0.0159
-0.0157212
-0.0152869
-0.0146131
-0.0137285
-0.0126717
-0.0114883
-0.0102268
-0.0089353
-0.0076583
-0.006434
-0.00529288
-0.00425693
-0.00333975
-0.00254722
-0.00187869
-0.00132837
-0.000886716
-0.000541891
-0.000280893
-9.05563e-05
4.17235e-05
0.000127494
0.00017695
0.00019881
0.000200311
0.000187298
0.000164369
0.000135035
0.000101906
6.68549e-05
3.11722e-05
-4.29965e-06
-3.90548e-05
-7.28329e-05
-0.000105548
-0.000137233
-0.000168
-0.00575385
-0.00664293
-0.0081767
-0.00952792
-0.0107767
-0.0122128
-0.0136978
-0.0150881
-0.016327
-0.0173784
-0.0181767
-0.0186641
-0.0188088
-0.0185977
-0.0180385
-0.0171586
-0.0160025
-0.0146277
-0.0130992
-0.0114847
-0.0098493
-0.00825144
-0.00673979
-0.00535151
-0.00411176
-0.00303421
-0.00212237
-0.00137151
-0.000770652
-0.000304665
4.38915e-05
0.000293218
0.000461077
0.000563946
0.000616491
0.000631315
0.000618901
0.000587713
0.000544384
0.00049396
0.000440153
0.000385598
0.000332077
0.000280721
0.000232179
0.000186749
0.000144489
0.000105295
6.89636e-05
3.52325e-05
-0.0370604
-0.00252706
-0.00701281
-0.0104935
-0.0132238
-0.0149102
-0.0160892
-0.0175016
-0.0190172
-0.0203247
-0.0212796
-0.0218153
-0.0218981
-0.0215248
-0.0207155
-0.019514
-0.0179836
-0.0162024
-0.0142563
-0.0122326
-0.0102132
-0.00826989
-0.00646029
-0.00482643
-0.00339445
-0.00217585
-0.00116961
-0.000364932
0.000255969
0.000715155
0.00103663
0.00124449
0.0013615
0.00140823
0.00140255
0.00135943
0.00129106
0.001207
0.00111455
0.00101908
0.000924399
0.000833052
0.000746637
0.000666041
0.000591636
0.000523443
0.000461245
0.000404681
0.000353309
0.000306651
-53.3665
-24.5874
-0.0301624
-0.0237596
-0.0213929
-0.0209329
-0.0198633
-0.0203434
-0.0216241
-0.0228299
-0.0236982
-0.0241147
-0.0240146
-0.0233823
-0.0222407
-0.0206475
-0.0186865
-0.0164591
-0.0140742
-0.0116394
-0.00925241
-0.00699596
-0.00493357
-0.00310852
-0.00154449
-0.000247767
0.000789628
0.00158633
0.00216809
0.00256451
0.00280638
0.00292358
0.00294369
0.00289107
0.00278647
0.002647
0.00248627
0.00231483
0.00214051
0.00196893
0.00180391
0.00164789
0.00150224
0.00136756
0.0012439
0.00113094
0.00102812
0.000934761
0.000850088
0.000773327
-100.81
-59.0747
-21.5375
-0.0263299
-0.0294693
-0.0294146
-0.0262062
-0.0257203
-0.0265424
-0.0271335
-0.0272948
-0.026949
-0.026047
-0.024594
-0.0226363
-0.0202543
-0.0175543
-0.0146573
-0.0116871
-0.00876066
-0.00597972
-0.00342541
-0.00115566
0.000794916
0.00241313
0.00370395
0.0046865
0.00538984
0.00584907
0.00610185
0.00618576
0.00613623
0.00598528
0.0057608
0.00548624
0.00518078
0.0048596
0.00453432
0.00421358
0.00390348
0.00360811
0.00332997
0.00307038
0.00282975
0.00260785
0.00240404
0.00221737
0.00204674
0.00189097
0.00174884
-58.3026
-0.0663046
-0.000260236
-0.0144544
-0.0224482
-0.0243997
-0.0248303
-0.0266538
-0.0278402
-0.0281164
-0.0275157
-0.0261036
-0.0239751
-0.0212457
-0.0180518
-0.0145407
-0.0108625
-0.00716084
-0.00356563
-0.000186904
0.00288888
0.00560054
0.00791185
0.0098095
0.0112998
0.0124046
0.0131571
0.0135976
0.01377
0.0137189
0.0134873
0.0131147
0.0126366
0.0120839
0.0114827
0.0108544
0.0102166
0.00958283
0.00896343
0.00836603
0.0077959
0.00725644
0.00674952
0.00627584
0.0058352
0.00542675
0.00504918
0.00470088
0.00438005
0.00408486
-0.0452518
-6.92611e-05
-0.00141749
-0.00233375
-0.00227622
-0.00200521
-0.00151297
-0.000666069
0.000568031
0.00218312
0.00415411
0.0064398
0.00898498
0.0117241
0.0145852
0.017494
0.0203781
0.0231683
0.0257992
0.0282109
0.0303422
0.032138
0.0335582
0.0345864
0.0352262
0.0354969
0.0354284
0.0350583
0.0344278
0.0335788
0.0325517
0.0313838
0.0301091
0.0287584
0.0273592
0.025936
0.0245101
0.0231
0.0217209
0.0203853
0.0191027
0.0178802
0.0167223
0.0156314
0.0146081
0.0136516
0.01276
0.0119307
0.0111605
0.0104461
-0.0316538
-0.0209375
-0.000185477
0.000253343
0.0164768
0.0318971
0.0463571
0.0597446
0.0720203
0.0831731
0.0932078
0.102135
0.109963
0.116699
0.122344
0.126899
0.130365
0.132752
0.134084
0.1344
0.133772
0.132294
0.130072
0.12722
0.12385
0.120078
0.116018
0.111779
0.107453
0.103104
0.0987768
0.0944644
0.090148
0.0858112
0.0814584
0.0771115
0.072801
0.0685612
0.0644262
0.0604278
0.0565928
0.0529424
0.0494907
0.0462446
0.0432045
0.040365
0.0377175
0.0352511
0.0329544
0.0308162
1.73393e-05
0.000982941
0.00127846
0.0752588
0.143795
0.206426
0.263785
0.316148
0.36367
0.406514
0.444822
0.478719
0.508309
0.533692
0.554965
0.572233
0.585613
0.59522
0.601181
0.603625
0.602696
0.598555
0.591375
0.581348
0.568677
0.553578
0.53628
0.51702
0.496056
0.473679
0.450187
0.425934
0.401275
0.376553
0.352072
0.328096
0.304858
0.282557
0.261367
0.24143
0.222848
0.205682
0.189947
0.175621
0.1626
0.150732
0.139867
0.129865
0.120618
0.112046
0.097206
0.273919
0.486962
0.698824
0.900154
1.08943
1.2665
1.43157
1.58468
1.7257
1.8546
1.97101
2.07479
2.16552
2.24321
2.30766
2.35913
2.39776
2.42395
2.43778
2.43989
2.4306
2.41062
2.38056
2.34116
2.29319
2.23754
2.17509
2.10678
2.03355
1.95629
1.87591
1.79322
1.709
1.62395
1.5387
1.45381
1.36982
1.28716
1.20621
1.1273
1.05077
0.976817
0.905639
0.837449
0.77246
0.710834
0.652703
0.598138
0.547158
1.5278
2.22978
2.89915
3.53614
4.13824
4.7034
5.23126
5.72137
6.17313
6.5858
6.95864
7.29084
7.58168
7.83067
8.03752
8.20207
8.32413
8.40347
8.44116
8.43849
8.39719
8.31935
8.20757
8.06479
7.89344
7.69708
7.47926
7.24314
6.99229
6.73005
6.4594
6.18344
5.90464
5.62531
5.34745
5.07281
4.8029
4.53902
4.28228
4.0336
3.79373
3.56319
3.34237
3.13152
2.93077
2.74016
2.55964
2.38907
2.22826
2.07697
7.3567
10.5835
13.465
15.9878
18.1613
20.008
21.554
22.8268
23.8525
24.6553
25.2568
25.6763
25.9307
26.0353
26.0038
25.8483
25.5794
25.2073
24.7423
24.1951
23.5762
22.8964
22.1665
21.3969
20.597
19.7766
18.9443
18.1063
17.2694
16.4395
15.6208
14.8174
14.0331
13.2708
12.5331
11.8213
11.137
10.4816
9.85555
9.25948
8.69326
8.15671
7.64919
7.17028
6.71904
6.29472
5.89633
5.52283
5.17327
4.84656
40.7983
55.8727
67.342
75.7623
81.6143
85.3187
87.2388
87.7314
87.0982
85.5942
83.4328
80.7892
77.806
74.5984
71.2555
67.8465
64.4244
61.032
57.7002
54.4535
51.3086
48.2769
45.3657
42.5793
39.92
37.3881
34.9834
32.7046
30.55
28.517
26.6019
24.801
23.1105
21.5262
20.0438
18.6587
17.3666
16.1627
15.0425
14.0008
13.0331
12.1347
11.3015
10.5292
9.81375
9.15149
8.53839
7.97117
7.44655
6.9617
558.642
507.874
461.839
422.691
387.496
355.312
325.654
298.227
272.804
249.237
227.424
207.285
188.75
171.743
156.184
141.985
129.057
117.305
106.636
96.9584
88.184
80.2291
73.0159
66.4724
60.5331
55.1391
50.2372
45.7801
41.7256
38.0362
34.6784
31.6222
28.8406
26.3095
24.0068
21.9125
20.0084
18.2778
16.7053
15.277
13.9799
12.8025
11.7338
10.764
9.88388
9.08519
8.36029
7.70222
7.10463
6.56178
-0.00150833
-0.00156345
-0.00162098
-0.00168098
-0.00174349
-0.00180855
-0.00187621
-0.00194651
-0.00201952
-0.00209528
-0.00217384
-0.00225527
-0.00233962
-0.00242694
-0.0025173
-0.00261075
-0.00270735
-0.00280715
-0.0029102
-0.00301656
-0.00312629
-0.00323941
-0.00335599
-0.00347605
-0.00359963
-0.00372677
-0.00385749
-0.00399181
-0.00412974
-0.00427129
-0.00441645
-0.00456521
-0.00471756
-0.00487345
-0.00503285
-0.0051957
-0.00536194
-0.00553149
-0.00570425
-0.00588012
-0.00605898
-0.00624067
-0.00642505
-0.00661195
-0.00680115
-0.00699247
-0.00718565
-0.00738044
-0.00757658
-0.00777375
-0.00797165
-0.00816991
-0.00836818
-0.00856606
-0.00876313
-0.00895895
-0.00915306
-0.00934495
-0.00953412
-0.00972003
-0.00990211
-0.0100798
-0.0102525
-0.0104195
-0.0105803
-0.0107342
-0.0108805
-0.0110187
-0.0111478
-0.0112673
-0.0113764
-0.0114747
-0.0115613
-0.0116359
-0.0116979
-0.011747
-0.0117829
-0.0118053
-0.0118139
-0.0118086
-0.0117893
-0.011756
-0.0117085
-0.0116471
-0.0115718
-0.0114828
-0.0113803
-0.0112647
-0.0111363
-0.0109956
-0.010843
-0.0106791
-0.0105045
-0.0103198
-0.0101257
-0.00992284
-0.0097121
-0.00949423
-0.00927004
-0.00904038
-0.00880612
-0.00856813
-0.00832735
-0.00808471
-0.00784117
-0.00759772
-0.00735538
-0.00711513
-0.00687795
-0.00664477
-0.00641646
-0.00619378
-0.00597743
-0.00576805
-0.0055662
-0.00537226
-0.00518653
-0.00500933
-0.00484096
-0.00468167
-0.0045317
-0.00439127
-0.00426055
-0.00413972
-0.00402893
-0.00392831
-0.003838
-0.00375812
-0.00368878
-0.00363012
-0.00358225
-0.00354531
-0.00351943
-0.00350476
-0.00350146
-0.00350973
-0.00352975
-0.00356174
-0.00360596
-0.00366266
-0.00373214
-0.00381473
-0.00391078
-0.00402068
-0.00414483
-0.00428371
-0.00443779
-0.00460761
-0.00479372
-0.00499674
-0.00521731
-0.00545611
-0.00571387
-0.00599133
-0.00628931
-0.00660862
-0.00695014
-0.00731476
-0.00770338
-0.00811696
-0.00855644
-0.0090228
-0.00951702
-0.0100401
-0.010593
-0.0111768
-0.0117925
-0.0124411
-0.0131236
-0.0138411
-0.0145945
-0.0153848
-0.016213
-0.01708
-0.0179867
-0.0189338
-0.0199222
-0.0209523
-0.0220246
-0.0231396
-0.0242974
-0.0254981
-0.0267417
-0.0280281
-0.0293569
-0.0307276
-0.0321395
-0.0335917
-0.035083
-0.0366122
-0.0381778
-0.0397778
-0.0414104
-0.0430734
-0.0447644
-0.0464806
-0.0482189
-0.0499763
-0.051749
-0.053531
-0.0553197
-0.0571119
-0.0589031
-0.0606886
-0.0624638
-0.0642234
-0.0659623
-0.0676752
-0.0693565
-0.0710008
-0.0726025
-0.0741561
-0.075656
-0.0770968
-0.0784731
-0.0797796
-0.0810113
-0.0821635
-0.0832319
-0.0842122
-0.085101
-0.0858949
-0.0865913
-0.0871878
-0.0876828
-0.088075
-0.0883641
-0.08855
-0.0886338
-0.088617
-0.0885017
-0.0882907
-0.0879875
-0.0875963
-0.0871216
-0.0865686
-0.085943
-0.0852504
-0.0844975
-0.0837001
-0.0828824
-0.0820529
-0.0812184
-0.0803849
-0.0795579
-0.0787421
-0.077942
-0.0771617
-0.0764066
-0.0756806
-0.0749865
-0.0743266
-0.0737034
-0.0731192
-0.072575
-0.072072
-0.0716117
-0.071195
-0.0708228
-0.0704956
-0.0702137
-0.0699793
-0.0697919
-0.0696492
-0.069551
-0.0694966
-0.0694851
-0.0695152
-0.069585
-0.0696919
-0.0698326
-0.0700026
-0.0701964
-0.0704075
-0.0706283
-0.0708499
-0.0710615
-0.0712504
-0.0714021
-0.0715005
-0.071528
-0.0714656
-0.0712931
-0.0709898
-0.0705341
-0.0699043
-0.069079
-0.0680377
-0.0667618
-0.065235
-0.0634443
-0.0613808
-0.0590403
-0.0564241
-0.0535393
-0.0503974
-0.0469999
-0.0432407
-0.0382741
-0.0264907
-0.0012612
-0.00130872
-0.00135835
-0.00141014
-0.00146414
-0.00152039
-0.00157896
-0.00163988
-0.00170323
-0.00176907
-0.00183745
-0.00190844
-0.00198211
-0.00205853
-0.00213776
-0.00221987
-0.00230494
-0.00239303
-0.00248421
-0.00257855
-0.00267611
-0.00277697
-0.00288118
-0.00298882
-0.00309992
-0.00321457
-0.00333279
-0.00345466
-0.00358019
-0.00370944
-0.00384244
-0.0039792
-0.00411975
-0.00426409
-0.00441222
-0.00456412
-0.00471979
-0.00487917
-0.00504223
-0.0052089
-0.00537912
-0.00555279
-0.00572983
-0.0059101
-0.00609348
-0.00627982
-0.00646895
-0.00666069
-0.00685483
-0.00705114
-0.0072494
-0.00744933
-0.00765064
-0.00785304
-0.00805619
-0.00825976
-0.00846336
-0.00866661
-0.0088691
-0.00907039
-0.00927003
-0.00946754
-0.00966244
-0.00985421
-0.0100423
-0.0102262
-0.0104054
-0.0105792
-0.0107471
-0.0109085
-0.0110627
-0.0112093
-0.0113476
-0.0114769
-0.0115968
-0.0117065
-0.0118055
-0.0118932
-0.0119693
-0.0120332
-0.0120845
-0.0121231
-0.0121487
-0.0121611
-0.0121603
-0.0121462
-0.0121189
-0.0120785
-0.0120249
-0.0119585
-0.0118793
-0.0117876
-0.0116838
-0.011568
-0.0114408
-0.0113024
-0.0111534
-0.0109941
-0.0108253
-0.0106472
-0.0104606
-0.0102661
-0.0100641
-0.00985539
-0.00964054
-0.00942022
-0.00919511
-0.00896593
-0.00873345
-0.00849846
-0.0082618
-0.00802432
-0.00778687
-0.00755028
-0.00731538
-0.00708295
-0.00685367
-0.00662811
-0.00640683
-0.00619034
-0.00597911
-0.00577353
-0.00557397
-0.00538074
-0.00519411
-0.00501429
-0.00484148
-0.00467583
-0.00451748
-0.00436653
-0.00422305
-0.00408712
-0.0039588
-0.00383811
-0.00372511
-0.00361981
-0.00352225
-0.00343245
-0.00335045
-0.00327627
-0.00320996
-0.00315156
-0.00310111
-0.0030587
-0.0030244
-0.00299831
-0.00298053
-0.00297119
-0.00297045
-0.00297847
-0.00299545
-0.00302161
-0.00305718
-0.00310243
-0.00315767
-0.0032232
-0.0032994
-0.00338663
-0.00348532
-0.00359591
-0.00371888
-0.00385476
-0.00400408
-0.00416744
-0.00434547
-0.00453884
-0.00474825
-0.00497445
-0.00521821
-0.00548036
-0.00576176
-0.00606328
-0.00638584
-0.00673039
-0.00709789
-0.00748935
-0.00790579
-0.00834824
-0.00881776
-0.00931541
-0.00984226
-0.0103994
-0.0109878
-0.0116084
-0.0122623
-0.0129501
-0.0136728
-0.014431
-0.0152254
-0.0160566
-0.016925
-0.0178312
-0.0187752
-0.0197574
-0.0207776
-0.0218358
-0.0229314
-0.0240642
-0.0252332
-0.0264375
-0.0276761
-0.0289464
-0.0302456
-0.0315737
-0.0329288
-0.0343087
-0.0357108
-0.0371325
-0.0385707
-0.0400223
-0.0414842
-0.0429526
-0.0444241
-0.0458948
-0.0473607
-0.0488178
-0.050262
-0.0516889
-0.0530944
-0.0544742
-0.0558242
-0.0571401
-0.058418
-0.0596537
-0.0608434
-0.0619833
-0.0630698
-0.0640997
-0.06507
-0.065978
-0.0668215
-0.0675984
-0.0683071
-0.0689465
-0.0695159
-0.0700147
-0.0704426
-0.0708002
-0.0710876
-0.0713114
-0.0714748
-0.0715814
-0.0716354
-0.071641
-0.0716024
-0.0715238
-0.0714088
-0.0712614
-0.071085
-0.0708832
-0.0706591
-0.0704155
-0.070155
-0.0698795
-0.069591
-0.0692909
-0.0689802
-0.0686595
-0.0683289
-0.0679883
-0.0676369
-0.0672735
-0.0668964
-0.0665034
-0.0660952
-0.065669
-0.0652192
-0.0647413
-0.0642309
-0.0636827
-0.0630913
-0.0624505
-0.0617535
-0.0609935
-0.0601628
-0.0592538
-0.0582588
-0.0571701
-0.0559802
-0.0546822
-0.05327
-0.0517383
-0.050083
-0.0483015
-0.0463933
-0.04436
-0.0422059
-0.0399381
-0.0375666
-0.0351049
-0.0325695
-0.0299806
-0.0273611
-0.0247372
-0.022137
-0.0195895
-0.0171188
-0.0147131
-0.0121375
-0.00779135
-0.00102971
-0.00106937
-0.00111078
-0.00115395
-0.00119893
-0.00124577
-0.00129452
-0.00134523
-0.00139799
-0.00145284
-0.00150984
-0.00156906
-0.00163056
-0.00169442
-0.00176071
-0.00182951
-0.00190088
-0.00197491
-0.00205166
-0.00213122
-0.00221367
-0.00229907
-0.00238752
-0.00247908
-0.00257385
-0.00267188
-0.00277326
-0.00287805
-0.00298634
-0.00309819
-0.00321366
-0.00333282
-0.00345571
-0.0035824
-0.00371291
-0.00384728
-0.00398553
-0.00412767
-0.00427371
-0.00442365
-0.00457746
-0.00473513
-0.00489661
-0.00506185
-0.0052308
-0.00540337
-0.00557948
-0.00575903
-0.00594188
-0.00612792
-0.00631696
-0.00650886
-0.0067034
-0.00690038
-0.00709956
-0.00730069
-0.00750349
-0.00770768
-0.00791293
-0.00811891
-0.00832526
-0.00853161
-0.00873757
-0.00894272
-0.00914662
-0.00934884
-0.0095489
-0.00974634
-0.00994064
-0.0101313
-0.0103178
-0.0104997
-0.0106763
-0.0108471
-0.0110117
-0.0111694
-0.0113197
-0.0114621
-0.011596
-0.011721
-0.0118365
-0.0119421
-0.0120373
-0.0121216
-0.0121946
-0.0122561
-0.0123056
-0.012343
-0.0123681
-0.0123809
-0.0123813
-0.0123694
-0.0123452
-0.0123088
-0.0122606
-0.0122007
-0.0121295
-0.0120471
-0.011954
-0.0118505
-0.011737
-0.0116138
-0.0114813
-0.0113401
-0.0111904
-0.0110327
-0.0108675
-0.0106952
-0.0105163
-0.010331
-0.01014
-0.00994375
-0.00974264
-0.0095372
-0.00932794
-0.00911549
-0.00890053
-0.00868371
-0.00846563
-0.00824685
-0.00802793
-0.00780939
-0.00759176
-0.00737551
-0.00716111
-0.006949
-0.00673959
-0.00653328
-0.0063304
-0.00613129
-0.00593625
-0.00574553
-0.00555937
-0.00537797
-0.00520151
-0.00503013
-0.00486395
-0.00470308
-0.00454759
-0.00439754
-0.00425297
-0.00411392
-0.00398041
-0.00385246
-0.00373007
-0.00361324
-0.003502
-0.00339632
-0.00329624
-0.00320175
-0.00311287
-0.00302962
-0.00295203
-0.00288013
-0.00281398
-0.00275362
-0.00269912
-0.00265058
-0.00260807
-0.0025717
-0.00254162
-0.00251795
-0.00250086
-0.00249053
-0.00248716
-0.00249098
-0.00250223
-0.00252119
-0.00254815
-0.00258343
-0.00262738
-0.00268036
-0.00274279
-0.00281509
-0.00289771
-0.00299115
-0.00309591
-0.00321255
-0.00334163
-0.00348377
-0.0036396
-0.00380978
-0.00399502
-0.00419603
-0.00441357
-0.00464842
-0.00490138
-0.00517327
-0.0054649
-0.00577711
-0.00611072
-0.00646654
-0.00684539
-0.00724806
-0.00767532
-0.00812788
-0.00860636
-0.0091113
-0.00964314
-0.0102023
-0.0107892
-0.011404
-0.0120471
-0.0127185
-0.0134182
-0.0141461
-0.014902
-0.0156851
-0.0164952
-0.0173297
-0.0181882
-0.0190704
-0.0199751
-0.0209008
-0.0218459
-0.0228085
-0.0237866
-0.0247782
-0.025781
-0.0267925
-0.0278103
-0.0288317
-0.0298538
-0.0308736
-0.0318882
-0.0328945
-0.0338894
-0.0348699
-0.0358329
-0.0367754
-0.0376948
-0.0385882
-0.0394532
-0.0402872
-0.0410877
-0.0418526
-0.0425802
-0.0432687
-0.0439238
-0.044538
-0.0451004
-0.0456101
-0.046067
-0.0464711
-0.0468224
-0.0471213
-0.047368
-0.047563
-0.0477067
-0.0477999
-0.0478429
-0.0478364
-0.0477807
-0.047676
-0.0475226
-0.0473207
-0.04707
-0.0467705
-0.0464215
-0.0460225
-0.0455727
-0.0450712
-0.0445168
-0.0439085
-0.0432468
-0.0425337