/*--------------------------------*- C++ -*----------------------------------*\
| =========                 |                                                 |
| \\      /  F ield         | OpenFOAM: The Open Source CFD Toolbox           |
|  \\    /   O peration     | Version:  2.4.0                                 |
|   \\  /    A nd           | Web:      www.OpenFOAM.org                      |
|    \\/     M anipulation  |                                                 |
\*---------------------------------------------------------------------------*/
FoamFile
{
    version     2.0;
    format      ascii;
    class       volScalarField;
    location    "5";
    object      p;
}
// * * * * * * * * * * * * * * * * * * * * * * * * * * * * * * * * * * * * * //

dimensions      [1 -1 -2 0 0 0 0];

internalField   nonuniform List<scalar> 
8000
(
-5.29428
-5.05148
-4.77132
-4.53931
-4.49529
-4.63503
-4.74203
-3.22282
-0.225684
-1.80549
-8.63641
-8.38618
-6.63275
-5.76951
-6.59989
-6.456
-3.45101
-0.952157
-0.36198
-0.28233
-0.333018
-0.392537
-0.42343
-0.417783
-0.394638
-0.382623
-0.380566
-0.366876
-0.346327
-0.331997
-0.328443
-0.334574
-0.34479
-0.34612
-0.343589
-0.344432
-0.348431
-0.359403
-0.359362
-0.358557
-0.359171
-0.359491
-0.35968
-0.359725
-0.359891
-0.362083
-0.351492
-0.360827
-0.354562
-0.357543
-1.7624
-1.72017
-1.66798
-1.60984
-1.54553
-1.47378
-1.38432
-1.26652
-1.16246
-1.06351
-1.01663
-0.919108
-0.695234
-0.363789
0.0773431
0.766862
1.50028
1.86019
-7.69096
-7.98883
-7.18762
-6.97332
-7.49899
-7.89297
-5.76082
-1.93123
-0.26244
-0.022629
-0.0247574
-0.076482
-0.162142
-0.269602
-0.346209
-0.386759
-0.387587
-0.345
-0.313482
-0.315306
-0.31444
-0.306552
-0.34544
-0.363899
-0.332374
-0.388328
-0.396285
-0.396072
-0.395478
-0.396038
-0.390061
-0.393037
0.688617
0.687288
0.688389
0.693717
0.703342
0.717025
0.73441
0.753723
0.773707
0.796237
0.826681
0.870444
0.937364
1.03816
1.18306
1.36566
1.54169
1.72763
1.84817
1.95283
2.09506
2.31581
2.66203
3.09678
3.17011
1.46388
-4.05637
-6.60463
-6.21546
-6.97632
-7.74341
-5.80946
-1.51252
0.00832947
0.657067
0.66624
0.849812
-0.465115
-0.495908
-0.405213
-0.371032
-0.385004
-0.393897
-0.379652
-0.379616
-0.447505
-0.402996
-0.404238
-0.404564
-0.403957
2.77103
2.75984
2.74993
2.74369
2.74086
2.74101
2.74397
2.74961
2.75785
2.76849
2.78151
2.79688
2.8145
2.83413
2.85531
2.87696
2.89753
2.91672
2.94022
2.97257
3.02476
3.10735
3.22762
3.37897
3.53718
3.69593
3.84927
4.01315
4.27645
4.5999
4.6091
3.58602
-1.33755
-5.20233
-9.31344
-9.56927
-5.10688
-0.271788
1.29643
1.10664
0.11889
-0.546523
-0.508415
-0.422312
-0.410789
-0.428421
-0.439791
-0.439799
-0.438141
-0.437447
3.91885
3.89918
3.87826
3.86068
3.84659
3.83551
3.82723
3.82172
3.81898
3.819
3.82174
3.82719
3.83531
3.84599
3.8591
3.87448
3.8919
3.91109
3.93191
3.95425
3.97802
4.00303
4.02898
4.05527
4.08125
4.10708
4.13653
4.17663
4.23563
4.31276
4.38716
4.46496
4.55461
4.67597
4.83008
4.81012
2.89239
0.736413
-5.20458
-6.38939
-6.53017
-0.246962
0.845464
1.24899
0.00463349
-0.483127
-0.488267
-0.458086
-0.457093
-0.461193
5.27259
5.24087
5.20862
5.18134
5.15859
5.13953
5.12391
5.11173
5.10301
5.09772
5.09587
5.09742
5.10239
5.11075
5.12251
5.13766
5.15621
5.17817
5.20355
5.23238
5.26466
5.30037
5.33943
5.38175
5.42718
5.47553
5.52667
5.58047
5.63672
5.69506
5.75521
5.81751
5.88497
5.9619
6.04641
6.12835
6.19056
6.29091
6.3929
6.56215
6.59754
1.53985
-2.18038
-5.08441
-5.03729
-1.18128
0.417814
0.195262
-0.394172
-0.479198
5.26151
5.22901
5.19364
5.16218
5.13475
5.11057
5.08933
5.07101
5.05561
5.04311
5.0335
5.02675
5.02284
5.02176
5.02349
5.02803
5.03535
5.04547
5.05837
5.07406
5.09255
5.11385
5.13797
5.16494
5.19479
5.22756
5.26329
5.30202
5.3438
5.38867
5.43664
5.4877
5.54189
5.5992
5.65962
5.72334
5.79175
5.86746
5.94895
6.016
6.07566
6.13923
6.2357
6.26479
4.8312
2.32234
-3.69296
-3.92991
-1.71045
-0.629465
5.56235
5.52991
5.49639
5.46713
5.44164
5.41909
5.39925
5.38212
5.36771
5.35602
5.34702
5.34072
5.33708
5.33611
5.3378
5.34213
5.3491
5.3587
5.37093
5.38579
5.40328
5.42339
5.44612
5.47147
5.49946
5.53006
5.56329
5.59916
5.63768
5.67886
5.7227
5.76922
5.81844
5.87037
5.92503
5.98242
6.04254
6.10539
6.17092
6.23914
6.31065
6.38671
6.46497
6.54075
6.60697
6.73626
6.9552
6.96526
1.69443
-1.51058
4.5578
4.53437
4.50832
4.48468
4.46365
4.44468
4.42759
4.41233
4.39893
4.38739
4.37769
4.36982
4.36378
4.35955
4.35712
4.35649
4.35765
4.36058
4.36529
4.37175
4.37998
4.38994
4.40165
4.41509
4.43024
4.44711
4.4657
4.48598
4.50797
4.53164
4.55699
4.58402
4.61272
4.64307
4.67507
4.70881
4.74393
4.78082
4.81932
4.85942
4.90107
4.94427
4.98921
5.03647
5.08636
5.13526
5.17139
5.20705
5.24326
5.13634
4.10313
4.08619
4.06895
4.0538
4.04032
4.0281
4.01703
4.00713
3.99842
3.99089
3.98456
3.9794
3.97542
3.97262
3.97097
3.97049
3.97115
3.97296
3.9759
3.97996
3.98513
3.9914
3.99874
4.00716
4.01662
4.02712
4.03864
4.05115
4.06464
4.07909
4.09446
4.11074
4.12789
4.14588
4.16469
4.18428
4.20461
4.22566
4.24737
4.26971
4.29262
4.31607
4.34
4.3644
4.38925
4.41443
4.44076
4.46444
4.48317
4.51754
2.59401
2.58636
2.57699
2.56809
2.55999
2.55254
2.54567
2.53938
2.53367
2.52855
2.52403
2.5201
2.51676
2.51402
2.51188
2.51033
2.50938
2.50901
2.50923
2.51003
2.5114
2.51335
2.51585
2.5189
2.52251
2.52664
2.53131
2.53649
2.54217
2.54834
2.55498
2.56208
2.56963
2.5776
2.58599
2.59476
2.6039
2.6134
2.62322
2.63334
2.64375
2.65441
2.6653
2.67638
2.68762
2.69894
2.71044
2.73136
2.73675
2.7499
1.94366
1.93988
1.9369
1.93457
1.9325
1.93057
1.92879
1.92719
1.92579
1.92458
1.92358
1.92278
1.92219
1.92181
1.92165
1.92171
1.92199
1.92248
1.92319
1.92412
1.92527
1.92662
1.92818
1.92995
1.93191
1.93408
1.93643
1.93896
1.94168
1.94456
1.94761
1.95081
1.95415
1.95764
1.96125
1.96498
1.96882
1.97276
1.97678
1.98087
1.98502
1.98922
1.99344
1.99758
2.0015
2.00544
2.01136
2.03268
2.03717
2.00789
0.244245
0.246701
0.247916
0.248439
0.248744
0.248933
0.248996
0.248925
0.248722
0.248395
0.24795
0.247392
0.246724
0.24595
0.245072
0.244091
0.243007
0.24182
0.240528
0.23913
0.237621
0.235997
0.234252
0.232381
0.230374
0.228224
0.22592
0.223452
0.220807
0.217972
0.214931
0.211668
0.208166
0.204406
0.20037
0.196037
0.191385
0.186392
0.181039
0.17531
0.169185
0.16258
0.155292
0.147283
0.140047
0.138173
0.142403
0.123875
-0.0489248
-0.46887
-0.251154
-0.249213
-0.245703
-0.242111
-0.238911
-0.236105
-0.233633
-0.231468
-0.229608
-0.228049
-0.226787
-0.225817
-0.225135
-0.224735
-0.224611
-0.224759
-0.225173
-0.225846
-0.226773
-0.227946
-0.229359
-0.231003
-0.23287
-0.234952
-0.237236
-0.239713
-0.24237
-0.245194
-0.248168
-0.251277
-0.254503
-0.257826
-0.261223
-0.264671
-0.268144
-0.271615
-0.275055
-0.278423
-0.28168
-0.284783
-0.28784
-0.291144
-0.294467
-0.294408
-0.282007
-0.262889
-0.324542
-0.681316
-1.20412
-1.15419
-2.04493
-2.03939
-2.03532
-2.03237
-2.0299
-2.02772
-2.02585
-2.0243
-2.02308
-2.02219
-2.02163
-2.02139
-2.02147
-2.02188
-2.0226
-2.02363
-2.02499
-2.02665
-2.02864
-2.03093
-2.03355
-2.03648
-2.03974
-2.04331
-2.04722
-2.05147
-2.05606
-2.061
-2.0663
-2.07198
-2.07804
-2.08452
-2.09141
-2.09875
-2.10655
-2.11485
-2.12366
-2.13301
-2.14296
-2.15367
-2.16538
-2.17747
-2.18668
-2.18845
-2.19724
-2.30705
-2.63845
-2.9581
-2.50074
-1.65042
-2.17915
-2.17479
-2.16809
-2.16161
-2.15607
-2.15146
-2.14768
-2.14471
-2.14255
-2.14121
-2.14068
-2.14098
-2.14208
-2.14401
-2.14677
-2.15035
-2.15476
-2.16002
-2.16614
-2.17312
-2.18098
-2.18976
-2.19945
-2.21011
-2.22174
-2.23439
-2.24808
-2.26287
-2.27879
-2.29589
-2.31423
-2.33384
-2.35481
-2.37717
-2.40101
-2.42638
-2.45334
-2.48204
-2.51281
-2.54584
-2.57957
-2.60742
-2.62632
-2.68314
-2.94254
-3.48896
-2.6736
-1.37802
-0.930735
-0.770464
-4.20753
-4.19998
-4.19486
-4.19134
-4.18845
-4.18598
-4.18398
-4.18251
-4.1816
-4.18123
-4.18141
-4.18211
-4.18333
-4.18503
-4.1872
-4.1898
-4.1928
-4.19615
-4.19982
-4.20376
-4.20793
-4.21227
-4.21674
-4.22126
-4.22579
-4.23025
-4.23458
-4.2387
-4.24253
-4.24599
-4.24898
-4.25141
-4.25316
-4.25413
-4.25417
-4.25315
-4.25096
-4.24757
-4.24284
-4.23541
-4.22119
-4.19943
-4.20113
-4.32171
-4.56895
-4.01323
-1.64976
-0.855512
-0.733258
-0.729426
-3.53371
-3.51674
-3.49555
-3.47779
-3.46451
-3.45478
-3.4478
-3.4431
-3.44032
-3.43913
-3.43924
-3.44039
-3.44234
-3.44488
-3.44783
-3.45102
-3.45431
-3.45758
-3.46072
-3.46363
-3.46625
-3.46851
-3.47037
-3.47179
-3.47277
-3.4733
-3.47338
-3.47307
-3.47239
-3.47142
-3.47024
-3.46896
-3.4677
-3.46664
-3.46594
-3.46584
-3.4666
-3.46866
-3.47257
-3.4785
-3.48426
-3.48537
-3.48984
-3.5662
-3.85011
-4.13755
-2.42704
-0.967146
-0.75126
-0.745969
-6.41974
-6.35107
-6.29003
-6.24549
-6.21333
-6.19011
-6.17431
-6.16509
-6.16173
-6.16354
-6.16993
-6.18039
-6.1945
-6.21191
-6.23231
-6.25547
-6.28118
-6.30931
-6.33975
-6.37242
-6.40729
-6.44437
-6.48369
-6.52532
-6.56937
-6.61599
-6.66537
-6.71771
-6.77331
-6.83248
-6.8956
-6.96311
-7.03551
-7.11338
-7.1974
-7.28834
-7.3871
-7.49474
-7.61258
-7.74148
-7.88163
-8.03252
-8.20556
-8.44472
-8.79761
-9.03166
-8.01834
-2.25575
-0.622675
-0.779758
-1.08484
-1.51498
-1.94501
-2.31244
-2.63011
-2.91354
-3.16932
-3.40032
-3.60877
-3.79679
-3.96626
-4.11876
-4.25559
-4.37782
-4.48635
-4.58188
-4.66498
-4.73609
-4.79553
-4.84351
-4.88015
-4.90545
-4.91933
-4.92162
-4.91202
-4.89016
-4.85554
-4.80752
-4.74534
-4.66807
-4.5746
-4.46362
-4.33357
-4.1826
-4.00853
-3.80882
-3.58038
-3.31989
-3.02266
-2.6845
-2.29826
-1.85916
-1.36257
-0.787799
-0.0909709
0.872124
1.71545
0.898678
-5.12161
-1.00714
-0.358103
-0.358393
-0.358788
-0.359115
-0.359543
-0.359746
-0.360008
-0.360403
-0.360844
-0.361292
-0.361747
-0.362212
-0.362686
-0.363165
-0.363649
-0.364136
-0.364623
-0.36511
-0.365595
-0.366078
-0.366559
-0.367035
-0.367509
-0.367978
-0.368444
-0.368907
-0.369365
-0.369821
-0.370272
-0.370721
-0.371167
-0.37161
-0.37205
-0.372488
-0.372924
-0.373357
-0.373788
-0.374216
-0.374643
-0.375068
-0.375492
-0.375913
-0.376333
-0.376751
-0.377168
-0.377583
-0.377997
-0.37841
-0.378821
-0.379232
-0.393856
-0.367571
-0.374048
-0.376919
-0.377537
-0.378193
-0.378921
-0.379666
-0.380399
-0.381122
-0.381839
-0.382552
-0.383259
-0.383961
-0.384657
-0.385345
-0.386024
-0.386694
-0.387355
-0.388006
-0.388646
-0.389276
-0.389895
-0.390504
-0.391103
-0.391693
-0.392272
-0.392843
-0.393404
-0.393958
-0.394503
-0.395041
-0.395571
-0.396095
-0.396611
-0.397122
-0.397627
-0.398126
-0.39862
-0.399109
-0.399593
-0.400072
-0.400546
-0.401017
-0.401483
-0.401945
-0.402403
-0.402858
-0.403309
-0.403756
-0.402822
-0.403179
-0.403514
-0.403885
-0.404322
-0.404754
-0.405177
-0.40562
-0.406085
-0.406571
-0.407077
-0.407604
-0.40815
-0.408712
-0.409289
-0.409878
-0.410475
-0.411078
-0.411685
-0.412294
-0.412904
-0.413512
-0.414118
-0.41472
-0.415318
-0.41591
-0.416497
-0.417078
-0.417652
-0.41822
-0.418782
-0.419337
-0.419886
-0.420428
-0.420964
-0.421494
-0.422019
-0.422537
-0.423049
-0.423556
-0.424058
-0.424554
-0.425045
-0.425531
-0.426012
-0.426489
-0.42696
-0.427427
-0.42789
-0.428348
-0.437558
-0.437794
-0.43794
-0.4381
-0.438241
-0.438363
-0.438475
-0.4386
-0.438741
-0.438896
-0.439066
-0.439251
-0.439452
-0.43967
-0.439904
-0.440154
-0.440419
-0.440697
-0.440989
-0.441294
-0.44161
-0.441937
-0.442274
-0.44262
-0.442974
-0.443336
-0.443705
-0.444081
-0.444462
-0.444849
-0.445241
-0.445637
-0.446038
-0.446442
-0.44685
-0.447261
-0.447674
-0.44809
-0.448508
-0.448928
-0.44935
-0.449773
-0.450197
-0.450621
-0.451047
-0.451472
-0.451898
-0.452324
-0.452749
-0.453174
-0.462585
-0.462558
-0.462885
-0.463457
-0.46378
-0.463852
-0.464011
-0.464163
-0.464318
-0.46447
-0.464625
-0.46479
-0.464966
-0.465155
-0.465355
-0.465568
-0.465792
-0.466028
-0.466275
-0.466534
-0.466803
-0.467082
-0.467371
-0.467669
-0.467976
-0.468292
-0.468615
-0.468946
-0.469284
-0.469629
-0.46998
-0.470336
-0.470699
-0.471066
-0.471439
-0.471816
-0.472197
-0.472582
-0.472971
-0.473363
-0.473758
-0.474156
-0.474557
-0.474959
-0.475363
-0.475769
-0.476177
-0.476585
-0.476994
-0.477405
-0.487954
-0.489065
-0.488105
-0.488356
-0.489085
-0.489393
-0.489035
-0.489237
-0.489535
-0.489676
-0.48977
-0.489878
-0.490002
-0.490139
-0.490288
-0.490448
-0.490619
-0.4908
-0.490992
-0.491195
-0.491408
-0.491631
-0.491863
-0.492105
-0.492357
-0.492617
-0.492887
-0.493165
-0.493451
-0.493746
-0.494048
-0.494358
-0.494675
-0.494999
-0.495331
-0.495668
-0.496012
-0.496362
-0.496718
-0.497079
-0.497445
-0.497816
-0.498192
-0.498572
-0.498955
-0.499342
-0.499733
-0.500126
-0.500522
-0.500921
-0.446513
-0.446475
-0.463239
-0.495601
-0.5108
-0.512806
-0.513013
-0.513626
-0.514547
-0.514564
-0.514578
-0.514618
-0.51467
-0.514731
-0.514803
-0.514886
-0.514979
-0.515082
-0.515197
-0.515323
-0.515461
-0.51561
-0.515772
-0.515945
-0.516129
-0.516325
-0.516532
-0.516751
-0.51698
-0.517219
-0.517469
-0.517729
-0.517999
-0.518277
-0.518565
-0.518862
-0.519167
-0.51948
-0.519801
-0.52013
-0.520465
-0.520808
-0.521157
-0.521512
-0.521872
-0.522239
-0.52261
-0.522986
-0.523366
-0.523752
-1.31304
-0.670105
-0.400003
-0.416391
-0.477031
-0.51443
-0.530511
-0.536083
-0.537068
-0.537062
-0.537073
-0.53713
-0.537191
-0.537252
-0.537318
-0.537388
-0.537464
-0.537547
-0.537639
-0.53774
-0.537852
-0.537975
-0.538109
-0.538255
-0.538413
-0.538582
-0.538763
-0.538956
-0.53916
-0.539376
-0.539602
-0.53984
-0.540087
-0.540345
-0.540613
-0.540891
-0.541178
-0.541474
-0.541778
-0.542091
-0.542412
-0.542741
-0.543077
-0.54342
-0.54377
-0.544126
-0.544488
-0.544856
-0.545229
-0.545608
3.10057
1.52984
0.716977
0.215382
-0.301744
-0.508721
-0.550195
-0.557084
-0.558126
-0.558261
-0.55832
-0.558391
-0.558473
-0.558558
-0.558646
-0.558736
-0.55883
-0.558929
-0.559035
-0.559149
-0.559272
-0.559404
-0.559546
-0.559698
-0.55986
-0.560034
-0.560217
-0.560411
-0.560616
-0.560831
-0.561056
-0.56129
-0.561535
-0.561789
-0.562052
-0.562324
-0.562605
-0.562894
-0.563191
-0.563497
-0.56381
-0.564131
-0.564458
-0.564793
-0.565134
-0.565482
-0.565835
-0.566194
-0.566559
-0.56693
4.55544
4.49425
3.4227
1.87453
0.00222187
-0.512927
-0.571583
-0.578295
-0.579359
-0.579545
-0.579651
-0.579751
-0.579853
-0.579954
-0.580056
-0.580159
-0.580265
-0.580374
-0.580488
-0.580609
-0.580737
-0.580873
-0.581018
-0.581172
-0.581335
-0.581507
-0.581689
-0.58188
-0.58208
-0.58229
-0.582508
-0.582735
-0.582971
-0.583216
-0.583468
-0.583729
-0.583998
-0.584274
-0.584558
-0.584849
-0.585148
-0.585453
-0.585764
-0.586082
-0.586406
-0.586736
-0.587071
-0.587412
-0.587758
-0.588109
2.75402
2.72875
2.6001
1.83122
0.137457
-0.527427
-0.59555
-0.601054
-0.601691
-0.601795
-0.601883
-0.601976
-0.602071
-0.602166
-0.602263
-0.602362
-0.602464
-0.60257
-0.602682
-0.602799
-0.602924
-0.603056
-0.603196
-0.603344
-0.6035
-0.603665
-0.603837
-0.604018
-0.604207
-0.604404
-0.604608
-0.60482
-0.60504
-0.605267
-0.605501
-0.605742
-0.60599
-0.606245
-0.606506
-0.606773
-0.607047
-0.607326
-0.607611
-0.607901
-0.608197
-0.608497
-0.608803
-0.609113
-0.609428
-0.609748
1.84226
1.50385
1.24271
0.509118
-0.358196
-0.600742
-0.624212
-0.625023
-0.625016
-0.625078
-0.62516
-0.625223
-0.625289
-0.625363
-0.625442
-0.625525
-0.625614
-0.625708
-0.625809
-0.625917
-0.626032
-0.626154
-0.626284
-0.626421
-0.626565
-0.626716
-0.626875
-0.62704
-0.627212
-0.627391
-0.627576
-0.627768
-0.627965
-0.628169
-0.628378
-0.628593
-0.628814
-0.62904
-0.629271
-0.629507
-0.629748
-0.629994
-0.630244
-0.630499
-0.630758
-0.63102
-0.631287
-0.631558
-0.631832
-0.632111
-0.63549
-0.78913
-0.707791
-0.599509
-0.6314
-0.649164
-0.649356
-0.649122
-0.649234
-0.649327
-0.649388
-0.649446
-0.649511
-0.649582
-0.649658
-0.649738
-0.649824
-0.649915
-0.650011
-0.650113
-0.650221
-0.650334
-0.650454
-0.650579
-0.650709
-0.650845
-0.650987
-0.651133
-0.651285
-0.651442
-0.651603
-0.651769
-0.65194
-0.652115
-0.652295
-0.652479
-0.652667
-0.652859
-0.653054
-0.653254
-0.653457
-0.653664
-0.653874
-0.654087
-0.654304
-0.654523
-0.654746
-0.654971
-0.655198
-0.65543
-1.14386
-0.897943
-0.734055
-0.687398
-0.67393
-0.672919
-0.673229
-0.67337
-0.673387
-0.673419
-0.673462
-0.673512
-0.673572
-0.673642
-0.673719
-0.673805
-0.673897
-0.673997
-0.674102
-0.674214
-0.674331
-0.674453
-0.674581
-0.674713
-0.67485
-0.674991
-0.675137
-0.675285
-0.675437
-0.675593
-0.675751
-0.675913
-0.676078
-0.676246
-0.676416
-0.676589
-0.676764
-0.676942
-0.677122
-0.677304
-0.677488
-0.677674
-0.677862
-0.678052
-0.678243
-0.678436
-0.67863
-0.678826
-0.679022
-0.679222
-0.944674
-0.726897
-0.697926
-0.695287
-0.696103
-0.696173
-0.696219
-0.696301
-0.696395
-0.696498
-0.696602
-0.696715
-0.696833
-0.696956
-0.697083
-0.69722
-0.697364
-0.697511
-0.697662
-0.697818
-0.697978
-0.698142
-0.698309
-0.698479
-0.698653
-0.698829
-0.699008
-0.699189
-0.699373
-0.699559
-0.699746
-0.699935
-0.700124
-0.700314
-0.700504
-0.700695
-0.700887
-0.701078
-0.70127
-0.701462
-0.701654
-0.701846
-0.702037
-0.702228
-0.702419
-0.702609
-0.702798
-0.702986
-0.703173
-0.703361
-0.721198
-0.719047
-0.719211
-0.718894
-0.718703
-0.718644
-0.718605
-0.718602
-0.718632
-0.718704
-0.718794
-0.718928
-0.719137
-0.719027
-0.719214
-0.719412
-0.718948
-0.720099
-0.720313
-0.720574
-0.720799
-0.721068
-0.721318
-0.721565
-0.721819
-0.722077
-0.72233
-0.722585
-0.722839
-0.723088
-0.723335
-0.723581
-0.723824
-0.724065
-0.724303
-0.724537
-0.724768
-0.724995
-0.725218
-0.725438
-0.725653
-0.725865
-0.726073
-0.726278
-0.726478
-0.726676
-0.72687
-0.72706
-0.727247
-0.727434
-0.730382
-0.731057
-0.731809
-0.732553
-0.73325
-0.733921
-0.734589
-0.73524
-0.735879
-0.736509
-0.737131
-0.737755
-0.738379
-0.738991
-0.739614
-0.740229
-0.740831
-0.74144
-0.742021
-0.742585
-0.743133
-0.743653
-0.744023
-0.744007
-0.744785
-0.745072
-0.74545
-0.746238
-0.746441
-0.746791
-0.747539
-0.747878
-0.748202
-0.748511
-0.748804
-0.749087
-0.749357
-0.749614
-0.74986
-0.750095
-0.750322
-0.750539
-0.750747
-0.750946
-0.751137
-0.751321
-0.751498
-0.751668
-0.751832
-0.751992
-0.746736
-0.747274
-0.747901
-0.748544
-0.749159
-0.749728
-0.750272
-0.750946
-0.751804
-0.752883
-0.754191
-0.755688
-0.757313
-0.758993
-0.760653
-0.76223
-0.763702
-0.765062
-0.766304
-0.767429
-0.768441
-0.769349
-0.770163
-0.770894
-0.771546
-0.772142
-0.772678
-0.773161
-0.773594
-0.773981
-0.774329
-0.774634
-0.774918
-0.775096
-0.77491
-0.77539
-0.775486
-0.775887
-0.77598
-0.776198
-0.776346
-0.776475
-0.776599
-0.776706
-0.776817
-0.776911
-0.776994
-0.77701
-0.776972
-0.77715
-0.781448
-0.78406
-0.786639
-0.790041
-0.79483
-0.798947
-0.802647
-0.805784
-0.808348
-0.810336
-0.811765
-0.812688
-0.813182
-0.813343
-0.813268
-0.813051
-0.812737
-0.81236
-0.811946
-0.811515
-0.811083
-0.810657
-0.810241
-0.809838
-0.80945
-0.809064
-0.808692
-0.808334
-0.807991
-0.807664
-0.807351
-0.807052
-0.806765
-0.806486
-0.806216
-0.805959
-0.805717
-0.805477
-0.805273
-0.805049
-0.804841
-0.804653
-0.804472
-0.804297
-0.804045
-0.803656
-0.803692
-0.803557
-0.803356
-0.80299
-0.949058
-0.918794
-0.913217
-0.908005
-0.902098
-0.896018
-0.891183
-0.88635
-0.881884
-0.877755
-0.873935
-0.870406
-0.867162
-0.864175
-0.861433
-0.858914
-0.856597
-0.854464
-0.852497
-0.850679
-0.848995
-0.84743
-0.845975
-0.844618
-0.843351
-0.842167
-0.84106
-0.840023
-0.83905
-0.838138
-0.837283
-0.836479
-0.835723
-0.835012
-0.834344
-0.833715
-0.833122
-0.832564
-0.832039
-0.831545
-0.831078
-0.830636
-0.83022
-0.829827
-0.829456
-0.829107
-0.828778
-0.828467
-0.828175
-0.827902
-0.379554
-0.379783
-0.380014
-0.380245
-0.380478
-0.380711
-0.380945
-0.38118
-0.381416
-0.381653
-0.381891
-0.38213
-0.38237
-0.382611
-0.382853
-0.383096
-0.38334
-0.383585
-0.383831
-0.384078
-0.384326
-0.384576
-0.384826
-0.385077
-0.385329
-0.385582
-0.385836
-0.386091
-0.386347
-0.386604
-0.386863
-0.387122
-0.387382
-0.387643
-0.387906
-0.388169
-0.388434
-0.388699
-0.388966
-0.389234
-0.389503
-0.389773
-0.390044
-0.390317
-0.39059
-0.390865
-0.391141
-0.391419
-0.391697
-0.391977
-0.392259
-0.392541
-0.392825
-0.393111
-0.393398
-0.393687
-0.393977
-0.394269
-0.394562
-0.394858
-0.395155
-0.395439
-0.395751
-0.396054
-0.39636
-0.396667
-0.396975
-0.397265
-0.397596
-0.397914
-0.398232
-0.398529
-0.398875
-0.3992
-0.399528
-0.39987
-0.400204
-0.400541
-0.400881
-0.401225
-0.401571
-0.40192
-0.402273
-0.40263
-0.40299
-0.403353
-0.40372
-0.40409
-0.404465
-0.404843
-0.405225
-0.405612
-0.406002
-0.406396
-0.406795
-0.407198
-0.407606
-0.408018
-0.408434
-0.408856
-0.409282
-0.409713
-0.410149
-0.41059
-0.411036
-0.411487
-0.411944
-0.412406
-0.412874
-0.413347
-0.413827
-0.414312
-0.414803
-0.4153
-0.415803
-0.416312
-0.416828
-0.417351
-0.41788
-0.418416
-0.418959
-0.419509
-0.420066
-0.420631
-0.421203
-0.421782
-0.422369
-0.422964
-0.423567
-0.424178
-0.424797
-0.425425
-0.426061
-0.426706
-0.42736
-0.428022
-0.428694
-0.429375
-0.430065
-0.430765
-0.431475
-0.432195
-0.432924
-0.433664
-0.434414
-0.435175
-0.435946
-0.436728
-0.437522
-0.438326
-0.439142
-0.439969
-0.440807
-0.441658
-0.442521
-0.443395
-0.444282
-0.445182
-0.446094
-0.447019
-0.447957
-0.448908
-0.449873
-0.450851
-0.451843
-0.452849
-0.453869
-0.454904
-0.455953
-0.457016
-0.458095
-0.459188
-0.460297
-0.461422
-0.462562
-0.463718
-0.464891
-0.46608
-0.467285
-0.468507
-0.469747
-0.471004
-0.472278
-0.47357
-0.474881
-0.476209
-0.477556
-0.478921
-0.480306
-0.481709
-0.483132
-0.484574
-0.486035
-0.487516
-0.489017
-0.490537
-0.492078
-0.493637
-0.495216
-0.496815
-0.498433
-0.50007
-0.501726
-0.5034
-0.505091
-0.5068
-0.508524
-0.510264
-0.512017
-0.513784
-0.515562
-0.517349
-0.519145
-0.520946
-0.522752
-0.524559
-0.526365
-0.528167
-0.529962
-0.531747
-0.533517
-0.535269
-0.537
-0.538704
-0.540378
-0.542016
-0.543613
-0.545164
-0.546664
-0.548108
-0.549488
-0.5508
-0.552037
-0.553193
-0.554263
-0.55524
-0.556118
-0.556892
-0.557555
-0.558101
-0.558524
-0.558817
-0.558976
-0.558996
-0.558871
-0.558597
-0.55817
-0.557585
-0.556837
-0.555923
-0.55484
-0.553585
-0.552156
-0.550554
-0.548779
-0.546829
-0.544706
-0.542412
-0.539951
-0.537325
-0.53454
-0.531593
-0.528505
-0.525274
-0.521909
-0.518417
-0.514808
-0.511089
-0.507272
-0.503366
-0.499381
-0.495328
-0.491216
-0.487062
-0.482874
-0.47866
-0.474431
-0.470198
-0.465971
-0.461757
-0.457563
-0.453398
-0.449267
-0.445173
-0.441118
-0.437107
-0.43314
-0.429216
-0.425334
-0.42149
-0.417678
-0.413892
-0.410124
-0.406362
-0.402595
-0.398808
-0.394985
-0.391103
-0.387144
-0.383015
-0.404104
-0.404349
-0.404596
-0.404844
-0.405093
-0.405343
-0.405593
-0.405843
-0.406094
-0.406345
-0.406597
-0.406849
-0.407102
-0.407355
-0.407608
-0.407862
-0.408117
-0.408372
-0.408627
-0.408883
-0.409139
-0.409396
-0.409654
-0.409912
-0.41017
-0.410429
-0.410688
-0.410949
-0.411209
-0.41147
-0.411732
-0.411994
-0.412257
-0.412521
-0.412785
-0.41305
-0.413315
-0.413581
-0.413848
-0.414116
-0.414384
-0.414653
-0.414923
-0.415194
-0.415465
-0.415738
-0.416011
-0.416285
-0.41656
-0.416836
-0.417114
-0.417392
-0.417671
-0.417952
-0.418234
-0.418517
-0.418801
-0.419086
-0.419374
-0.419662
-0.419952
-0.420243
-0.420537
-0.420831
-0.421128
-0.421426
-0.421727
-0.422029
-0.422334
-0.422639
-0.42292
-0.423251
-0.423563
-0.423877
-0.424214
-0.424535
-0.424858
-0.425183
-0.425492
-0.425843
-0.426178
-0.426514
-0.426837
-0.427198
-0.427546
-0.427896
-0.428251
-0.428608
-0.42897
-0.429335
-0.429703
-0.430076
-0.430452
-0.430833
-0.431217
-0.431606
-0.431998
-0.432395
-0.432796
-0.433202
-0.433612
-0.434026
-0.434445
-0.434869
-0.435297
-0.43573
-0.436168
-0.436611
-0.437059
-0.437512
-0.43797
-0.438434
-0.438903
-0.439377
-0.439857
-0.440342
-0.440833
-0.44133
-0.441833
-0.442341
-0.442856
-0.443377
-0.443904
-0.444437
-0.444977
-0.445524
-0.446077
-0.446636
-0.447203
-0.447776
-0.448357
-0.448945
-0.449539
-0.450142
-0.450751
-0.451369
-0.451994
-0.452626
-0.453267
-0.453916
-0.454572
-0.455237
-0.45591
-0.456592
-0.457282
-0.457981
-0.458689
-0.459405
-0.460131
-0.460865
-0.461609
-0.462362
-0.463124
-0.463896
-0.464678
-0.465469
-0.46627
-0.467081
-0.467902
-0.468733
-0.469575
-0.470426
-0.471288
-0.472161
-0.473044
-0.473938
-0.474843
-0.475758
-0.476685
-0.477623
-0.478571
-0.479531
-0.480503
-0.481485
-0.48248
-0.483485
-0.484503
-0.485531
-0.486572
-0.487625
-0.488689
-0.489765
-0.490853
-0.491953
-0.493065
-0.494189
-0.495325
-0.496473
-0.497633
-0.498805
-0.499988
-0.501184
-0.502391
-0.503609
-0.504839
-0.50608
-0.507333
-0.508595
-0.509868
-0.511151
-0.512444
-0.513746
-0.515056
-0.516375
-0.517701
-0.519034
-0.520373
-0.521717
-0.523065
-0.524416
-0.525769
-0.527122
-0.528474
-0.529824
-0.531169
-0.532508
-0.53384
-0.53516
-0.536469
-0.537762
-0.539038
-0.540293
-0.541526
-0.542732
-0.543908
-0.545052
-0.546159
-0.547226
-0.548249
-0.549224
-0.550147
-0.551014
-0.55182
-0.552561
-0.553232
-0.553829
-0.554348
-0.554783
-0.555132
-0.555392
-0.555556
-0.555618
-0.555573
-0.555419
-0.555151
-0.554765
-0.554258
-0.553626
-0.552867
-0.551978
-0.550956
-0.549801
-0.548511
-0.547085
-0.545523
-0.543824
-0.541989
-0.54002
-0.537918
-0.535686
-0.533327
-0.530845
-0.528244
-0.525527
-0.5227
-0.519771
-0.516744
-0.513627
-0.510427
-0.507149
-0.503803
-0.500395
-0.496935
-0.493429
-0.489885
-0.486311
-0.482715
-0.479104
-0.475486
-0.471867
-0.468252
-0.464646
-0.461054
-0.45748
-0.453927
-0.450397
-0.44689
-0.443407
-0.439947
-0.436508
-0.433086
-0.429676
-0.426272
-0.422866
-0.419451
-0.416014
-0.412545
-0.409028
-0.405452
-0.401755
-0.428706
-0.428959
-0.429214
-0.42947
-0.429725
-0.429981
-0.430236
-0.430492
-0.430749
-0.431005
-0.431262
-0.431519
-0.431777
-0.432034
-0.432292
-0.43255
-0.432808
-0.433067
-0.433326
-0.433585
-0.433844
-0.434103
-0.434363
-0.434623
-0.434883
-0.435143
-0.435404
-0.435665
-0.435926
-0.436187
-0.436449
-0.436711
-0.436973
-0.437235
-0.437498
-0.437761
-0.438025
-0.438288
-0.438552
-0.438817
-0.439082
-0.439347
-0.439613
-0.439879
-0.440146
-0.440414
-0.440682
-0.44095
-0.441219
-0.441489
-0.44176
-0.442031
-0.442303
-0.442576
-0.44285
-0.443125
-0.443401
-0.443678
-0.443955
-0.444234
-0.444515
-0.444796
-0.445079
-0.445363
-0.445649
-0.445936
-0.446225
-0.446515
-0.446807
-0.447101
-0.447397
-0.447693
-0.447972
-0.448288
-0.448589
-0.448891
-0.449218
-0.449529
-0.449842
-0.450159
-0.450478
-0.450776
-0.451122
-0.451449
-0.45178
-0.452113
-0.452448
-0.45277
-0.45313
-0.453476
-0.453826
-0.45418
-0.454537
-0.454897
-0.455262
-0.45563
-0.456002
-0.456378
-0.456758
-0.457143
-0.457531
-0.457923
-0.458319
-0.45872
-0.459125
-0.459534
-0.459948
-0.460367
-0.460789
-0.461217
-0.461649
-0.462086
-0.462528
-0.462974
-0.463425
-0.463881
-0.464343
-0.464809
-0.465281
-0.465757
-0.466239
-0.466727
-0.467219
-0.467717
-0.468221
-0.46873
-0.469245
-0.469766
-0.470292
-0.470825
-0.471363
-0.471907
-0.472458
-0.473014
-0.473577
-0.474146
-0.474721
-0.475303
-0.475891
-0.476486
-0.477088
-0.477696
-0.478311
-0.478933
-0.479562
-0.480198
-0.480841
-0.481491
-0.482148
-0.482812
-0.483484
-0.484163
-0.48485
-0.485544
-0.486245
-0.486954
-0.487671
-0.488395
-0.489128
-0.489868
-0.490615
-0.491371
-0.492135
-0.492906
-0.493685
-0.494473
-0.495268
-0.496071
-0.496883
-0.497702
-0.49853
-0.499366
-0.500209
-0.501061
-0.501921
-0.502788
-0.503664
-0.504548
-0.505439
-0.506339
-0.507246
-0.508161
-0.509084
-0.510014
-0.510952
-0.511897
-0.512849
-0.513808
-0.514775
-0.515748
-0.516728
-0.517714
-0.518706
-0.519704
-0.520708
-0.521717
-0.522731
-0.52375
-0.524773
-0.525799
-0.526829
-0.527862
-0.528897
-0.529934
-0.530972
-0.53201
-0.533048
-0.534084
-0.535119
-0.53615
-0.537177
-0.538199
-0.539215
-0.540223
-0.541223
-0.542211
-0.543188
-0.544152
-0.5451
-0.546031
-0.546943
-0.547833
-0.548701
-0.549543
-0.550357
-0.55114
-0.551891
-0.552606
-0.553282
-0.553917
-0.554508
-0.555051
-0.555543
-0.555982
-0.556363
-0.556682
-0.556936
-0.557123
-0.557244
-0.557291
-0.557264
-0.557158
-0.556972
-0.5567
-0.55634
-0.555889
-0.555344
-0.554702
-0.553962
-0.553121
-0.552178
-0.55113
-0.549977
-0.548718
-0.547352
-0.545879
-0.5443
-0.542614
-0.540824
-0.53893
-0.536934
-0.534839
-0.532648
-0.530363
-0.527986
-0.525524
-0.52298
-0.520359
-0.517665
-0.514902
-0.512078
-0.509196
-0.506262
-0.503281
-0.50026
-0.497204
-0.494118
-0.491008
-0.487878
-0.484734
-0.48158
-0.47842
-0.475258
-0.472099
-0.468945
-0.4658
-0.462666
-0.459547
-0.456443
-0.453357
-0.45029
-0.447245
-0.444221
-0.441221
-0.438243
-0.435289
-0.432356
-0.429446
-0.426557
-0.423683
-0.453508
-0.453746
-0.453986
-0.454227
-0.45447
-0.454713
-0.454958
-0.455203
-0.455449
-0.455696
-0.455943
-0.456192
-0.456441
-0.45669
-0.456941
-0.457191
-0.457443
-0.457695
-0.457947
-0.4582
-0.458453
-0.458707
-0.458961
-0.459215
-0.45947
-0.459725
-0.459981
-0.460236
-0.460492
-0.460749
-0.461005
-0.461262
-0.461519
-0.461776
-0.462033
-0.462291
-0.462549
-0.462807
-0.463065
-0.463324
-0.463583
-0.463842
-0.464102
-0.464362
-0.464622
-0.464882
-0.465143
-0.465404
-0.465665
-0.465927
-0.46619
-0.466453
-0.466716
-0.46698
-0.467244
-0.467509
-0.467775
-0.468042
-0.468309
-0.468577
-0.468846
-0.469116
-0.469387
-0.469659
-0.469932
-0.470206
-0.470481
-0.470758
-0.471036
-0.471316
-0.471597
-0.471879
-0.472163
-0.47245
-0.472737
-0.473027
-0.473319
-0.473613
-0.473909
-0.474207
-0.474507
-0.474806
-0.475089
-0.475414
-0.475725
-0.476033
-0.47633
-0.476666
-0.476987
-0.47731
-0.477624
-0.477969
-0.478303
-0.47864
-0.478969
-0.479324
-0.479672
-0.480023
-0.480377
-0.480735
-0.481097
-0.481463
-0.481832
-0.482206
-0.482583
-0.482964
-0.48335
-0.483739
-0.484132
-0.48453
-0.484931
-0.485337
-0.485747
-0.486162
-0.486581
-0.487004
-0.487431
-0.487864
-0.4883
-0.488741
-0.489187
-0.489638
-0.490093
-0.490553
-0.491017
-0.491487
-0.491961
-0.49244
-0.492924
-0.493413
-0.493907
-0.494406
-0.49491
-0.495419
-0.495933
-0.496453
-0.496978
-0.497508
-0.498043
-0.498583
-0.499129
-0.499681
-0.500238
-0.5008
-0.501368
-0.501941
-0.50252
-0.503105
-0.503695
-0.504291
-0.504893
-0.5055
-0.506113
-0.506732
-0.507357
-0.507987
-0.508623
-0.509265
-0.509913
-0.510567
-0.511226
-0.511891
-0.512562
-0.513239
-0.513922
-0.51461
-0.515305
-0.516005
-0.51671
-0.517422
-0.518139
-0.518861
-0.519589
-0.520323
-0.521062
-0.521806