/*--------------------------------*- C++ -*----------------------------------*\
| =========                 |                                                 |
| \\      /  F ield         | OpenFOAM: The Open Source CFD Toolbox           |
|  \\    /   O peration     | Version:  2.4.0                                 |
|   \\  /    A nd           | Web:      www.OpenFOAM.org                      |
|    \\/     M anipulation  |                                                 |
\*---------------------------------------------------------------------------*/
FoamFile
{
    version     2.0;
    format      ascii;
    class       volScalarField;
    location    "5";
    object      p_rgh;
}
// * * * * * * * * * * * * * * * * * * * * * * * * * * * * * * * * * * * * * //

dimensions      [1 -1 -2 0 0 0 0];

internalField   nonuniform List<scalar> 
8000
(
76.4017
76.6445
76.9246
77.1565
77.2005
77.0613
76.9241
78.8342
80.8887
79.8835
46.7012
34.6102
28.5503
22.0166
11.9266
3.40839
1.3192
1.95941
2.03189
1.83326
1.55036
1.30062
1.13438
1.05409
1.02926
1.01986
1.01192
1.01983
1.03554
1.04488
1.04379
1.03373
1.01899
1.01245
1.01326
1.01787
1.0129
0.9974
0.994781
0.994845
0.994231
0.993929
0.99375
0.993659
0.993436
0.991901
1.00451
0.993634
0.998878
0.996304
81.2839
81.3261
81.3783
81.4365
81.5008
81.5725
81.6619
81.7798
81.8839
81.9828
82.0297
82.1272
82.3511
82.6825
83.1237
83.8134
84.5391
84.8981
66.6427
50.7384
37.9898
28.4709
18.2542
7.34621
1.93157
2.17025
2.63452
2.47664
2.22171
1.94309
1.66041
1.4058
1.24087
1.14556
1.09634
1.09416
1.09604
1.07765
1.06684
1.07206
1.04437
1.08444
1.11948
1.05499
1.00172
0.984136
0.982933
0.982374
0.986937
0.984385
85.0853
85.0839
85.085
85.0904
85.1
85.1136
85.1309
85.1503
85.1703
85.1928
85.2233
85.2671
85.334
85.4348
85.5797
85.7623
85.9383
86.1243
86.2448
86.3495
86.4917
86.7125
87.0587
87.4934
87.564
85.2287
76.009
61.5701
45.1769
27.4965
11.3523
3.56043
3.37849
3.65216
3.4498
3.44148
3.66524
1.80637
1.29444
1.19463
1.15743
1.0875
1.02877
1.02453
1.02456
0.968941
1.02105
1.0198
1.00352
0.994828
88.518
88.5068
88.4969
88.4907
88.4879
88.488
88.4909
88.4966
88.5048
88.5155
88.5285
88.5439
88.5615
88.5811
88.6023
88.624
88.6445
88.6637
88.6872
88.7196
88.7717
88.8543
88.9746
89.126
89.2842
89.4429
89.5963
89.7602
90.0235
90.3469
90.3551
89.1515
81.2006
74.0678
53.568
19.1312
3.43746
4.62093
5.04548
4.13135
2.47645
1.30322
1.09917
1.09436
1.06331
1.0194
0.990685
0.983283
0.982765
0.983048
91.0162
90.9965
90.9756
90.958
90.9439
90.9329
90.9246
90.9191
90.9163
90.9163
90.9191
90.9245
90.9326
90.9433
90.9564
90.9718
90.9892
91.0084
91.0292
91.0516
91.0753
91.1003
91.1263
91.1526
91.1785
91.2044
91.2338
91.2739
91.3329
91.41
91.4845
91.5623
91.652
91.7733
91.9274
91.9072
88.8806
85.5186
69.3506
42.8607
12.199
5.6781
5.68264
4.66903
2.3714
1.33094
1.10034
1.04533
1.01214
0.992777
93.7203
93.6886
93.6563
93.629
93.6063
93.5872
93.5716
93.5594
93.5507
93.5454
93.5436
93.5451
93.5501
93.5584
93.5702
93.5853
93.6039
93.6258
93.6512
93.68
93.7123
93.748
93.787
93.8294
93.8748
93.9231
93.9743
94.0281
94.0843
94.1427
94.2028
94.2651
94.3326
94.4095
94.494
94.576
94.6383
94.7386
94.8406
95.0096
95.0437
86.5354
79.5464
50.6393
16.2644
6.02299
4.851
3.00383
1.61169
1.18686
95.0596
95.0271
94.9917
94.9602
94.9328
94.9086
94.8874
94.8691
94.8537
94.8412
94.8315
94.8248
94.8209
94.8198
94.8215
94.826
94.8334
94.8435
94.8564
94.872
94.8905
94.9118
94.9359
94.9629
94.9927
95.0255
95.0612
95.0999
95.1417
95.1866
95.2346
95.2857
95.3399
95.3972
95.4576
95.5213
95.5898
95.6655
95.747
95.814
95.8737
95.9373
96.0337
96.0628
93.0255
88.3508
68.0729
22.5015
7.81476
4.19058
96.7107
96.6783
96.6448
96.6155
96.59
96.5675
96.5476
96.5305
96.5161
96.5044
96.4954
96.4891
96.4855
96.4845
96.4862
96.4905
96.4974
96.507
96.5193
96.5341
96.5516
96.5717
96.5944
96.6197
96.6477
96.6783
96.7116
96.7474
96.786
96.8272
96.871
96.9175
96.9668
97.0187
97.0734
97.1308
97.1909
97.2537
97.3193
97.3875
97.459
97.5351
97.6133
97.6891
97.7554
97.8846
98.1036
98.1136
86.8947
54.779
97.0565
97.0331
97.0071
96.9834
96.9624
96.9434
96.9263
96.9111
96.8977
96.8861
96.8764
96.8686
96.8625
96.8583
96.8558
96.8552
96.8563
96.8593
96.864
96.8704
96.8786
96.8886
96.9003
96.9137
96.9289
96.9458
96.9644
96.9846
97.0066
97.0303
97.0557
97.0827
97.1114
97.1418
97.1738
97.2075
97.2426
97.2795
97.318
97.3581
97.3997
97.4429
97.4878
97.535
97.5848
97.6336
97.6697
97.7056
97.742
97.6351
97.9522
97.9353
97.918
97.9029
97.8894
97.8772
97.8661
97.8562
97.8475
97.84
97.8336
97.8285
97.8245
97.8217
97.82
97.8195
97.8202
97.822
97.8249
97.829
97.8342
97.8404
97.8478
97.8562
97.8656
97.8762
97.8877
97.9002
97.9137
97.9281
97.9435
97.9598
97.9769
97.9949
98.0137
98.0333
98.0536
98.0747
98.0963
98.1187
98.1415
98.1649
98.1887
98.213
98.2376
98.2623
98.288
98.3115
98.3311
98.3663
97.7934
97.7858
97.7764
97.7675
97.7594
97.752
97.7451
97.7388
97.7331
97.728
97.7235
97.7195
97.7162
97.7134
97.7113
97.7097
97.7088
97.7084
97.7086
97.7094
97.7108
97.7127
97.7152
97.7183
97.7219
97.726
97.7307
97.7359
97.7416
97.7477
97.7544
97.7615
97.769
97.777
97.7854
97.7942
97.8033
97.8128
97.8226
97.8326
97.843
97.8536
97.8643
97.8752
97.8861
97.8967
97.9069
97.9261
97.933
97.948
98.4934
98.4897
98.4867
98.4843
98.4823
98.4803
98.4786
98.477
98.4756
98.4744
98.4733
98.4726
98.472
98.4716
98.4714
98.4715
98.4718
98.4722
98.473
98.4739
98.475
98.4764
98.4779
98.4797
98.4817
98.4838
98.4862
98.4887
98.4914
98.4943
98.4974
98.5006
98.5039
98.5074
98.511
98.5147
98.5186
98.5225
98.5265
98.5306
98.5347
98.5388
98.5429
98.5469
98.5504
98.5536
98.5576
98.577
98.5825
98.5559
98.1444
98.1468
98.148
98.1486
98.1489
98.1491
98.1491
98.149
98.1488
98.1485
98.1481
98.1475
98.1468
98.1461
98.1452
98.1442
98.1431
98.1419
98.1406
98.1392
98.1377
98.1361
98.1344
98.1325
98.1305
98.1283
98.126
98.1236
98.1209
98.1181
98.115
98.1118
98.1083
98.1045
98.1005
98.0962
98.0915
98.0865
98.0811
98.0754
98.0693
98.0626
98.0553
98.0472
98.0397
98.0373
98.0404
98.0202
97.8487
97.4295
98.9993
99.0013
99.0048
99.0084
99.0116
99.0144
99.0168
99.019
99.0209
99.0224
99.0237
99.0247
99.0253
99.0257
99.0259
99.0257
99.0253
99.0246
99.0237
99.0225
99.0211
99.0195
99.0176
99.0155
99.0132
99.0108
99.0081
99.0053
99.0023
98.9992
98.996
98.9926
98.9892
98.9858
98.9823
98.9789
98.9754
98.972
98.9688
98.9657
98.9626
98.9593
98.956
98.956
98.9682
98.9869
98.9248
98.5686
98.0434
76.2752
98.5559
98.5614
98.5655
98.5684
98.5709
98.5731
98.575
98.5765
98.5777
98.5786
98.5792
98.5794
98.5793
98.5789
98.5782
98.5772
98.5758
98.5742
98.5722
98.5699
98.5673
98.5643
98.5611
98.5575
98.5536
98.5493
98.5448
98.5398
98.5345
98.5288
98.5228
98.5163
98.5094
98.5021
98.4943
98.486
98.4772
98.4678
98.4579
98.4471
98.4354
98.4233
98.4141
98.4123
98.4033
98.2929
97.9615
92.0429
45.4989
7.49229
99.772
99.7764
99.7831
99.7896
99.7951
99.7997
99.8035
99.8064
99.8086
99.8099
99.8105
99.8102
99.8091
99.8071
99.8044
99.8008
99.7964
99.7911
99.785
99.778
99.7702
99.7614
99.7517
99.7411
99.7294
99.7168
99.7031
99.6883
99.6724
99.6553
99.6369
99.6173
99.5964
99.574
99.5501
99.5248
99.4978
99.4691
99.4384
99.4053
99.3716
99.3437
99.3248
99.2679
99.0082
98.4598
80.1165
22.4988
2.77202
1.03276
99.094
99.1015
99.1067
99.1102
99.1131
99.1155
99.1175
99.119
99.1199
99.1203
99.1201
99.1194
99.1182
99.1165
99.1143
99.1117
99.1087
99.1054
99.1017
99.0977
99.0936
99.0892
99.0848
99.0802
99.0757
99.0713
99.0669
99.0628
99.059
99.0555
99.0525
99.0501
99.0483
99.0474
99.0473
99.0484
99.0506
99.0539
99.0587
99.0661
99.0803
99.102
99.1003
98.9796
98.7312
75.7726
10.3911
1.06913
0.983707
0.983021
101.118
101.135
101.156
101.174
101.187
101.197
101.204
101.209
101.212
101.213
101.213
101.211
101.21
101.207
101.204
101.201
101.198
101.194
101.191
101.188
101.186
101.183
101.181
101.18
101.179
101.179
101.178
101.179
101.179
101.18
101.182
101.183
101.184
101.185
101.186
101.186
101.185
101.183
101.179
101.173
101.168
101.166
101.162
101.086
100.801
99.5416
45.1585
1.91608
1.01129
0.988529
99.5825
99.6511
99.7122
99.7567
99.7889
99.8121
99.8279
99.8371
99.8405
99.8387
99.8323
99.8218
99.8077
99.7903
99.7699
99.7467
99.721
99.6929
99.6624
99.6298
99.5949
99.5578
99.5185
99.4769
99.4328
99.3862
99.3368
99.2845
99.2289
99.1697
99.1066
99.0391
98.9667
98.8888
98.8048
98.7139
98.6151
98.5075
98.3896
98.2607
98.1206
97.9697
97.7966
97.5575
97.2046
96.9699
70.8499
4.78619
3.82201
0.976036
106.268
105.838
105.408
105.04
104.722
104.439
104.183
103.952
103.744
103.556
103.386
103.234
103.097
102.975
102.866
102.771
102.688
102.616
102.557
102.509
102.472
102.447
102.433
102.431
102.441
102.462
102.497
102.545
102.607
102.684
102.778
102.889
103.019
103.17
103.344
103.544
103.772
104.033
104.33
104.668
105.054
105.493
105.99
106.565
107.262
108.225
109.068
108.179
76.1378
0.774944
1.00051
1.00646
1.00607
1.00574
0.999677
0.994336
0.993251
0.992818
0.992386
0.991932
0.991472
0.991002
0.990522
0.990036
0.989547
0.989058
0.988569
0.988082
0.987596
0.987113
0.986633
0.986156
0.985683
0.985213
0.984747
0.984285
0.983826
0.983371
0.982919
0.98247
0.982024
0.981581
0.981141
0.980703
0.980268
0.979835
0.979404
0.978975
0.978548
0.978123
0.9777
0.977278
0.976858
0.97644
0.976023
0.975608
0.975194
0.974782
0.97437
0.97396
0.98891
1.01985
1.01244
1.00321
0.998716
0.997454
0.996692
0.995946
0.995207
0.994475
0.993748
0.993025
0.99231
0.991602
0.990904
0.990215
0.989535
0.988864
0.988203
0.987553
0.986912
0.986282
0.985663
0.985054
0.984455
0.983866
0.983286
0.982716
0.982154
0.981601
0.981055
0.980518
0.979987
0.979464
0.978947
0.978436
0.977931
0.977432
0.976938
0.976449
0.975966
0.975486
0.975012
0.974542
0.974075
0.973613
0.973155
0.9727
0.972249
0.971802
0.995264
0.994908
0.994575
0.994184
0.99372
0.993272
0.992843
0.992384
0.991897
0.991386
0.990861
0.990324
0.989776
0.989213
0.988636
0.988047
0.98745
0.986847
0.98624
0.985631
0.985021
0.984413
0.983807
0.983205
0.982607
0.982015
0.981428
0.980847
0.980273
0.979705
0.979143
0.978588
0.978039
0.977497
0.976961
0.976431
0.975906
0.975388
0.974876
0.974369
0.973867
0.973371
0.97288
0.972394
0.971913
0.971436
0.970965
0.970498
0.970035
0.969577
0.982899
0.982683
0.982562
0.982378
0.982215
0.982055
0.981948
0.981801
0.981628
0.981433
0.981239
0.981043
0.98084
0.980622
0.980388
0.980138
0.979873
0.979594
0.979302
0.978998
0.978682
0.978355
0.978018
0.977672
0.977318
0.976956
0.976587
0.976211
0.97583
0.975443
0.975051
0.974655
0.974254
0.97385
0.973442
0.973031
0.972618
0.972202
0.971784
0.971364
0.970942
0.970519
0.970095
0.96967
0.969245
0.968819
0.968394
0.967968
0.967543
0.967118
0.9847
0.982651
0.981724
0.980409
0.979285
0.978967
0.978859
0.978665
0.978487
0.978263
0.978059
0.977874
0.977693
0.977504
0.977303
0.977091
0.976866
0.976631
0.976383
0.976125
0.975856
0.975577
0.975288
0.97499
0.974682
0.974367
0.974043
0.973713
0.973375
0.97303
0.972679
0.972322
0.97196
0.971592
0.97122
0.970843
0.970462
0.970076
0.969688
0.969295
0.9689
0.968502
0.968102
0.9677
0.967295
0.966889
0.966482
0.966073
0.965664
0.965254
1.05058
1.00543
0.990912
0.984113
0.97967
0.977055
0.976341
0.976273
0.975714
0.975478
0.975304
0.975157
0.975024
0.974887
0.974738
0.974578
0.974407
0.974225
0.974033
0.97383
0.973618
0.973395
0.973162
0.97292
0.972669
0.972408
0.972139
0.971861
0.971574
0.97128
0.970978
0.970668
0.97035
0.970026
0.969695
0.969357
0.969013
0.968663
0.968307
0.967946
0.96758
0.967209
0.966834
0.966454
0.96607
0.965683
0.965293
0.964899
0.964503
0.964105
2.15201
1.43175
1.17844
1.05897
1.00461
0.985504
0.980401
0.977857
0.973717
0.973036
0.972908
0.972795
0.972724
0.972661
0.972589
0.972506
0.972414
0.97231
0.972195
0.972069
0.971931
0.971782
0.971621
0.971448
0.971263
0.971067
0.97086
0.970642
0.970412
0.970173
0.969923
0.969663
0.969394
0.969115
0.968827
0.96853
0.968225
0.967912
0.967591
0.967262
0.966927
0.966584
0.966235
0.96588
0.96552
0.965154
0.964782
0.964406
0.964026
0.963641
23.6824
10.6188
4.52685
2.1045
1.34111
1.10974
1.02966
0.99416
0.978084
0.973387
0.972916
0.972685
0.972572
0.972507
0.972441
0.972371
0.972295
0.972212
0.97212
0.972019
0.971907
0.971784
0.97165
0.971504
0.971346
0.971177
0.970996
0.970803
0.970599
0.970383
0.970157
0.969919
0.969672
0.969414
0.969146
0.968868
0.968581
0.968285
0.967981
0.967668
0.967347
0.967018
0.966682
0.966339
0.965989
0.965633
0.965271
0.964903
0.96453
0.964151
90.9508
70.714
40.605
17.6715
5.89328
2.19686
1.27219
1.03922
0.986875
0.976248
0.974309
0.97387
0.97366
0.973568
0.97348
0.97339
0.973296
0.973197
0.973091
0.972977
0.972854
0.972722
0.97258
0.972428
0.972265
0.972092
0.971909
0.971714
0.97151
0.971295
0.97107
0.970835
0.970591
0.970337
0.970074
0.969802
0.969521
0.969232
0.968934
0.968629
0.968316
0.967995
0.967667
0.967333
0.966992
0.966644
0.966291
0.965931
0.965567
0.965196
98.4045
98.3433
91.9726
68.2241
24.4074
4.83449
1.47075
1.05286
0.990118
0.978156
0.975472
0.974987
0.974653
0.974539
0.974437
0.974333
0.974228
0.974119
0.974005
0.973884
0.973756
0.973619
0.973475
0.973321
0.973158
0.972985
0.972804
0.972613
0.972412
0.972203
0.971985
0.971757
0.971521
0.971277
0.971024
0.970763
0.970495
0.970218
0.969934
0.969643
0.969345
0.96904
0.968728
0.96841
0.968087
0.967757
0.967421
0.96708
0.966735
0.966383
97.9529
97.928
97.7992
88.9493
42.5923
7.27873
1.44557
1.01353
0.983551
0.97788
0.975612
0.975135
0.974809
0.974694
0.974597
0.974497
0.974395
0.974289
0.974178
0.97406
0.973935
0.973803
0.973663
0.973515
0.973359
0.973195
0.973022
0.972841
0.972653
0.972456
0.972251
0.972039
0.971819
0.971592
0.971358
0.971117
0.970869
0.970614
0.970353
0.970086
0.969813
0.969534
0.969249
0.968958
0.968663
0.968362
0.968057
0.967746
0.967432
0.967111
98.3915
97.954
81.3616
43.0577
10.3461
2.04503
1.04038
0.978856
0.976399
0.975256
0.974515
0.974033
0.97394
0.973864
0.973784
0.973701
0.973612
0.973518
0.973417
0.973309
0.973194
0.973072
0.972942
0.972806
0.972661
0.97251
0.972352
0.972186
0.972014
0.971835
0.97165
0.971459
0.971261
0.971057
0.970848
0.970633
0.970412
0.970186
0.969955
0.969719
0.969478
0.969232
0.968982
0.968728
0.968469
0.968206
0.967939
0.967668
0.967394
0.967115
91.8134
59.8305
21.2382
5.00387
1.48832
1.00985
0.973726
0.973293
0.972837
0.972464
0.972244
0.972151
0.972083
0.972011
0.971935
0.971855
0.971769
0.971679
0.971582
0.97148
0.971372
0.971259
0.971139
0.971014
0.970884
0.970748
0.970606
0.97046
0.970308
0.970151
0.96999
0.969824
0.969653
0.969478
0.969298
0.969114
0.968926
0.968734
0.968539
0.968339
0.968136
0.967929
0.967719
0.967506
0.967289
0.96707
0.966848
0.966622
0.966395
0.966163
32.3663
8.42452
1.97193
1.05815
0.970468
0.971281
0.970861
0.970661
0.970613
0.970557
0.970503
0.970449
0.970388
0.970319
0.970241
0.970155
0.970063
0.969963
0.969858
0.969746
0.969629
0.969507
0.969379
0.969247
0.96911
0.968969
0.968823
0.968675
0.968522
0.968367
0.968208
0.968047
0.967882
0.967714
0.967544
0.967371
0.967196
0.967018
0.966838
0.966656
0.966472
0.966285
0.966098
0.965908
0.965717
0.965524
0.96533
0.965134
0.964937
0.964738
1.69835
1.06298
0.970941
0.971832
0.970515
0.970402
0.970301
0.970159
0.970018
0.969892
0.969762
0.969639
0.96951
0.969382
0.96925
0.969111
0.968965
0.968818
0.968666
0.96851
0.968349
0.968186
0.968018
0.967848
0.967674
0.967498
0.967319
0.967137
0.966953
0.966768
0.96658
0.966392
0.966203
0.966013
0.965822
0.965631
0.96544
0.965248
0.965057
0.964865
0.964673
0.964481
0.96429
0.964098
0.963908
0.963718
0.963529
0.963341
0.963154
0.962966
0.969952
0.970591
0.969833
0.97015
0.970377
0.970427
0.970369
0.970344
0.970341
0.970128
0.970104
0.969891
0.969696
0.969749
0.969698
0.969468
0.970064
0.968725
0.968602
0.968222
0.968068
0.967707
0.967449
0.967188
0.966932
0.966671
0.966404
0.966146
0.965887
0.965626
0.965376
0.965127
0.964881
0.964638
0.964399
0.964163
0.963931
0.963702
0.963478
0.963257
0.963041
0.962829
0.962621
0.962416
0.962215
0.962018
0.961824
0.961633
0.961446
0.96126
0.981307
0.980563
0.979848
0.978825
0.97812
0.977418
0.97671
0.97602
0.975356
0.974693
0.974053
0.973413
0.972777
0.97215
0.971528
0.970911
0.970313
0.969695
0.969111
0.96854
0.967991
0.967469
0.967068
0.967189
0.966344
0.966024
0.965767
0.964901
0.96466
0.964426
0.963599
0.963258
0.96293
0.962616
0.962316
0.962028
0.961753
0.961489
0.961239
0.960998
0.960768
0.960546
0.960335
0.960133
0.959939
0.959754
0.959576
0.959404
0.959239
0.959078
0.987097
0.986348
0.985688
0.985021
0.984385
0.983803
0.983249
0.982564
0.981697
0.980609
0.979294
0.977791
0.97616
0.974475
0.972811
0.971231
0.969755
0.968393
0.967149
0.966022
0.965009
0.9641
0.963285
0.962557
0.961905
0.961309
0.960778
0.960298
0.959866
0.959485
0.95914
0.958838
0.958555
0.958358
0.958631
0.958096
0.95798
0.957627
0.957548
0.957317
0.957138
0.957028
0.956864
0.956785
0.956641
0.956545
0.956461
0.95643
0.956502
0.956301
0.974435
0.971815
0.969229
0.965895
0.961016
0.956909
0.953195
0.950051
0.94748
0.945486
0.944053
0.943126
0.942627
0.942463
0.942537
0.942753
0.943066
0.943443
0.943857
0.944287
0.944719
0.945146
0.945562
0.945966
0.946355
0.946741
0.947114
0.947473
0.947817
0.948146
0.948461
0.948763
0.949054
0.949335
0.949608
0.949866
0.950109
0.950345
0.950558
0.950789
0.950997
0.951183
0.951361
0.951535
0.951768
0.952211
0.952138
0.952273
0.952456
0.952875
0.829187
0.859475
0.864995
0.87021
0.876116
0.882295
0.887043
0.891875
0.896335
0.900454
0.904268
0.907797
0.911014
0.913998
0.916736
0.919254
0.921569
0.923701
0.925667
0.927485
0.929169
0.930733
0.932189
0.933546
0.934812
0.935996
0.937104
0.938141
0.939114
0.940026
0.940882
0.941687
0.942443
0.943154
0.943823
0.944453
0.945046
0.945604
0.94613
0.946626
0.947094
0.947537
0.947954
0.948348
0.948719
0.949067
0.949397
0.949709
0.950002
0.950275
0.973638
0.973409
0.973178
0.972946
0.972714
0.972481
0.972247
0.972012
0.971775
0.971538
0.9713
0.971061
0.970821
0.97058
0.970338
0.970095
0.969851
0.969606
0.96936
0.969113
0.968865
0.968616
0.968366
0.968115
0.967863
0.96761
0.967356
0.967101
0.966844
0.966587
0.966329
0.96607
0.96581
0.965548
0.965286
0.965023
0.964758
0.964492
0.964226
0.963958
0.963689
0.963419
0.963148
0.962875
0.962602
0.962327
0.962051
0.961774
0.961495
0.961215
0.960934
0.960651
0.960367
0.960082
0.959795
0.959506
0.959216
0.958924
0.958631
0.958336
0.958039
0.957757
0.957443
0.95714
0.956834
0.956528
0.956219
0.955932
0.955599
0.955281
0.954963
0.954669
0.95432
0.953995
0.953668
0.953324
0.95299
0.952653
0.952313
0.95197
0.951623
0.951274
0.950921
0.950564
0.950205
0.949841
0.949474
0.949103
0.948729
0.94835
0.947968
0.947581
0.947191
0.946796
0.946397
0.945994
0.945587
0.945174
0.944758
0.944336
0.94391
0.943479
0.943043
0.942602
0.942156
0.941704
0.941248
0.940785
0.940318
0.939844
0.939365
0.93888
0.938389
0.937892
0.937389
0.936879
0.936363
0.93584
0.935311
0.934775
0.934232
0.933682
0.933125
0.932561
0.931989
0.931409
0.930822
0.930227
0.929624
0.929013
0.928394
0.927767
0.92713
0.926486
0.925832
0.925169
0.924498
0.923817
0.923126
0.922426
0.921716
0.920997
0.920267
0.919527
0.918777
0.918017
0.917245
0.916463
0.91567
0.914866
0.91405
0.913223
0.912384
0.911533
0.910671
0.909796
0.908909
0.90801
0.907097
0.906172
0.905234
0.904283
0.903318
0.90234
0.901348
0.900342
0.899322
0.898288
0.897239
0.896175
0.895097
0.894003
0.892894
0.89177
0.89063
0.889473
0.888301
0.887112
0.885907
0.884684
0.883445
0.882188
0.880914
0.879621
0.878311
0.876983
0.875636
0.874271
0.872886
0.871483
0.87006
0.868618
0.867157
0.865676
0.864175
0.862655
0.861115
0.859555
0.857976
0.856377
0.85476
0.853123
0.851467
0.849793
0.848102
0.846393
0.844669
0.84293
0.841176
0.83941
0.837632
0.835845
0.83405
0.832248
0.830443
0.828636
0.82683
0.825029
0.823234
0.82145
0.81968
0.817928
0.816198
0.814494
0.812821
0.811184
0.809587
0.808036
0.806536
0.805093
0.803712
0.802401
0.801164
0.800008
0.798939
0.797961
0.797083
0.796309
0.795646
0.795101
0.79468
0.794389
0.794232
0.794214
0.79434
0.794616
0.795044
0.795626
0.796374
0.797286
0.798367
0.79962
0.801048
0.802651
0.804425
0.806373
0.808494
0.810787
0.813248
0.815873
0.818658
0.821606
0.824692
0.827923
0.831288
0.834781
0.838391
0.842109
0.845927
0.849834
0.85382
0.857874
0.861988
0.866142
0.870327
0.874539
0.878766
0.882999
0.887227
0.891441
0.895635
0.899801
0.90393
0.908023
0.912077
0.916088
0.920055
0.923979
0.927861
0.931705
0.935516
0.939302
0.94307
0.946831
0.950598
0.954384
0.958207
0.96209
0.966048
0.970177
0.971455
0.971209
0.970962
0.970714
0.970465
0.970216
0.969966
0.969715
0.969465
0.969213
0.968962
0.968709
0.968457
0.968204
0.96795
0.967696
0.967442
0.967187
0.966931
0.966675
0.966419
0.966162
0.965905
0.965647
0.965388
0.965129
0.96487
0.96461
0.964349
0.964088
0.963826
0.963564
0.963301
0.963038
0.962774
0.962509
0.962243
0.961977
0.96171
0.961443
0.961175
0.960906
0.960636
0.960365
0.960094
0.959821
0.959548
0.959274
0.958999
0.958723
0.958446
0.958167
0.957888
0.957608
0.957326
0.957043
0.956759
0.956473
0.956186
0.955898
0.955608
0.955317
0.955024
0.954729
0.954433
0.954134
0.953834
0.953532
0.953228
0.952922
0.952645
0.952311
0.951999
0.951688
0.951347
0.951027
0.950703
0.950378
0.950072
0.949718
0.949384
0.949048
0.948727
0.948363
0.948015
0.947665
0.94731
0.946953
0.946591
0.946226
0.945857
0.945485
0.945108
0.944728
0.944343
0.943955
0.943562
0.943165
0.942764
0.942358
0.941948
0.941533
0.941114
0.940691
0.940262
0.939829
0.939391
0.938948
0.9385
0.938047
0.937588
0.937125
0.936656
0.936182
0.935702
0.935216
0.934725
0.934228
0.933726
0.933217
0.932702
0.932181
0.931654
0.931121
0.930581
0.930035
0.929482
0.928922
0.928355
0.927782
0.927201
0.926614
0.926019
0.925417
0.924807
0.92419
0.923565
0.922932
0.922291
0.921643
0.920986
0.920321
0.919648
0.918966
0.918276
0.917577
0.916869
0.916153
0.915427
0.914693
0.913949
0.913196
0.912434
0.911662
0.91088
0.910089
0.909288
0.908477
0.907656
0.906825
0.905984
0.905132
0.90427
0.903397
0.902514
0.90162
0.900715
0.8998
0.898873
0.897936
0.896987
0.896027
0.895056
0.894073
0.893079
0.892073
0.891056
0.890027
0.888986
0.887934
0.886869
0.885793
0.884705
0.883605
0.882493
0.881369
0.880233
0.879085
0.877925
0.876754
0.87557
0.874375
0.873168
0.871949
0.870719
0.869478
0.868226
0.866963
0.86569
0.864407
0.863115
0.861813
0.860502
0.859184
0.857858
0.856525
0.855186
0.853842
0.852494
0.851143
0.84979
0.848437
0.847085
0.845735
0.84439
0.843051
0.84172
0.840399
0.839091
0.837798
0.836522
0.835267
0.834035
0.832829
0.831653
0.830509
0.829402
0.828336
0.827313
0.826338
0.825415
0.824548
0.823742
0.823002
0.82233
0.821733
0.821215
0.82078
0.820432
0.820171
0.820008
0.819947
0.819992
0.820147
0.820416
0.820802
0.821309
0.82194
0.822699
0.823588
0.824609
0.825763
0.827053
0.828479
0.830041
0.83174
0.833574
0.835543
0.837645
0.839876
0.842235
0.844718
0.847319
0.850035
0.852863
0.855792
0.858818
0.861936
0.865137
0.868414
0.871761
0.875169
0.878629
0.882134
0.885678
0.889251
0.892846
0.896457
0.900075
0.903694
0.907309
0.910915
0.914506
0.91808
0.921633
0.925163
0.92867
0.932152
0.935612
0.939051
0.942473
0.945883
0.949287
0.952692
0.956108
0.959544
0.963013
0.966531
0.970106
0.973804
0.969219
0.968966
0.968711
0.968455
0.9682
0.967944
0.967689
0.967433
0.967176
0.96692
0.966663
0.966406
0.966148
0.965891
0.965633
0.965375
0.965117
0.964858
0.9646
0.964341
0.964081
0.963822
0.963562
0.963302
0.963042
0.962782
0.962521
0.96226
0.961999
0.961738
0.961476
0.961215
0.960952
0.96069
0.960427
0.960164
0.959901
0.959637
0.959373
0.959108
0.958844
0.958578
0.958312
0.958046
0.957779
0.957512
0.957244
0.956976
0.956706
0.956437
0.956166
0.955895
0.955623
0.95535
0.955076
0.954801
0.954526
0.954249
0.953971
0.953692
0.953412
0.953131
0.952848
0.952564
0.952278
0.951991
0.951702
0.951412
0.95112
0.950827
0.950531
0.950234
0.949958
0.94964
0.949338
0.949039
0.94871
0.948399
0.948086
0.947769
0.94745
0.947156
0.946807
0.946479
0.946148
0.945815
0.94548
0.945161
0.944798
0.944452
0.944102
0.943748
0.943391
0.94303
0.942666
0.942298
0.941925
0.941549
0.941169
0.940785
0.940397
0.940004
0.939608
0.939207
0.938802
0.938392
0.937978
0.93756
0.937137
0.936709
0.936277
0.93584
0.935398
0.934952
0.934501
0.934044
0.933583
0.933117
0.932645
0.932168
0.931686
0.931199
0.930706
0.930208
0.929704
0.929195
0.92868
0.928159
0.927633
0.927101
0.926562
0.926018
0.925468
0.924911
0.924348
0.923779
0.923204
0.922622
0.922034
0.921439
0.920837
0.920229
0.919614
0.918992
0.918363
0.917727
0.917084
0.916434
0.915777
0.915113
0.914441
0.913762
0.913075
0.912381
0.91168
0.910971
0.910254
0.90953
0.908797
0.908057
0.90731
0.906554
0.905791
0.905019
0.90424
0.903452
0.902657
0.901854
0.901042
0.900223
0.899395
0.898559
0.897716
0.896864
0.896004
0.895137
0.894261
0.893377
0.892486
0.891586
0.890679
0.889764
0.888841
0.887911
0.886973
0.886028
0.885076
0.884117
0.88315
0.882177
0.881197
0.880211
0.879219
0.878221
0.877217
0.876208
0.875194
0.874175
0.873152
0.872126
0.871096
0.870063
0.869028
0.867991
0.866953
0.865915
0.864877
0.863841
0.862806
0.861775
0.860748
0.859726
0.85871
0.857702
0.856703
0.855714
0.854737
0.853774
0.852826
0.851895
0.850983
0.850092
0.849225
0.848383
0.847569
0.846786
0.846035
0.84532
0.844644
0.844009
0.843419
0.842875
0.842383
0.841945
0.841564
0.841245
0.84099
0.840804
0.840683
0.840636
0.840664
0.840769
0.840956
0.841228
0.841588
0.842039
0.842584
0.843225
0.843966
0.844806
0.84575
0.846798
0.84795
0.84921
0.850575
0.852048
0.853628
0.855313
0.857104
0.858998
0.860993
0.863088
0.865279
0.867564
0.869941
0.872403
0.874947
0.877568
0.880263
0.883025
0.885849
0.888731
0.891665
0.894645
0.897666
0.900722
0.903808
0.906918
0.910048
0.913192
0.916346
0.919506
0.922667
0.925826
0.92898
0.932125
0.935259
0.938379
0.941482
0.944568
0.947635
0.95068
0.953704
0.956704
0.959682
0.962637
0.965569
0.968479
0.971369
0.974242
0.966784
0.966546
0.966306
0.966065
0.965822
0.965579
0.965334
0.965089
0.964843
0.964596
0.964348
0.9641
0.963851
0.963602
0.963351
0.963101
0.962849
0.962597
0.962345
0.962092
0.961839
0.961585
0.961331
0.961077
0.960822
0.960567
0.960311
0.960056
0.9598
0.959543
0.959287
0.95903
0.958773
0.958516
0.958259
0.958001
0.957743
0.957485
0.957227
0.956968
0.956709
0.95645
0.95619
0.955931
0.955671
0.95541
0.95515
0.954888
0.954627
0.954365
0.954103
0.95384
0.953577
0.953313
0.953049
0.952783
0.952518
0.952251
0.951984
0.951716
0.951447
0.951177
0.950907
0.950635
0.950362
0.950088
0.949812
0.949536
0.949258
0.948978
0.948698
0.948415
0.948131
0.947845
0.947557
0.947267
0.946976
0.946682
0.946386
0.946088
0.945788
0.945488
0.945209
0.944881
0.94457
0.944261
0.943967
0.943629
0.943307
0.942984
0.942673
0.942326
0.941992
0.941655
0.941328
0.94097
0.940623
0.940272
0.939917
0.939559
0.939197
0.938832
0.938462
0.938089
0.937711
0.93733
0.936945
0.936555
0.936162
0.935764
0.935363
0.934957
0.934546
0.934132
0.933713
0.93329
0.932862
0.93243
0.931993
0.931552
0.931106
0.930655
0.9302
0.92974
0.929275
0.928806
0.928332
0.927853
0.927368
0.926879
0.926385
0.925886
0.925382
0.924873
0.924359
0.923839
0.923315
0.922785
0.922249
0.921709
0.921163
0.920611
0.920054
0.919492
0.918924
0.918351
0.917772
0.917187
0.916597
0.916001
0.915399
0.914792
0.914179
0.91356
0.912935
0.912305
0.911669
0.911027
0.910379
0.909725
0.909066
0.908401
0.907729
0.907053
0.90637
0.905681
0.904987
0.904287
0.903581
0.90287
0.902153
0.901431
0.900702
0.899969
0.89923
0.898485
0.897736
0.896981
0.896221
0.895456
0.894686
0.893911
0.893132
0.892348
0.89156
0.890767
0.889971
0.88917
0.888366
0.887559
0.886748
0.885934
0.885118
0.884299
0.883478
0.882655
0.881831
0.881005
0.880179
0.879353
0.878527
0.877702
0.876877
0.876055
0.875235
0.874418
0.873605
0.872796
0.871992
0.871194
0.870403
0.86962
0.868845
0.86808
0.867326
0.866584
0.865856
0.865141
0.864443
0.863762
0.8631
0.862457
0.861837
0.861241
0.86067
0.860127
0.859613
0.859131
0.858683
0.858271
0.857898
0.857565
0.857275
0.857032
0.856838
0.856687
0.856583
0.85653
0.856538
0.856606
0.856736
0.85693
0.85719
0.85752
0.85792
0.858393
0.858941
0.859567
0.860271
0.861056
0.861923
0.862874
0.863909
0.86503
0.866237
0.867532
0.868913
0.870382
0.871937
0.873578
0.875304
0.877115
0.879007
0.88098
0.883032
0.885159
0.887358
0.889628
0.891964
0.894362
0.896819
0.899332
0.901894
0.904503
0.907153
0.90984
0.912559
0.915304
0.91807
0.920854
0.923649
0.926452
0.929257
0.932061
0.934859
0.937649
0.940426
0.943188
0.945934
0.948661
0.951369
0.954058
0.956729
0.959381
0.962016
0.964635
0.967239
0.96983
0.972409
0.974973
0.964927
0.964693
0.964457
0.964219
0.96398
0.96374
0.963499
0.963257
0.963013
0.962769
0.962523
0.962277
0.96203
0.961782
0.961533
0.961283
0.961033
0.960781
0.96053
0.960277
0.960024
0.95977
0.959516
0.959262
0.959007
0.958751
0.958496
0.95824
0.957983
0.957727
0.95747
0.957213
0.956956
0.956698
0.956441
0.956183
0.955926
0.955668
0.955411
0.955153
0.954895
0.954637
0.95438
0.954122
0.953864
0.953607
0.953349
0.953092
0.952834
0.952577
0.952319
0.952061
0.951804
0.951546
0.951288
0.95103
0.950772
0.950513
0.950254
0.949995
0.949736
0.949475
0.949215
0.948954
0.948692
0.94843
0.948167
0.947903
0.947638
0.947372
0.947106
0.946838
0.946569
0.946299
0.946028
0.945756
0.945482
0.945206
0.944929
0.94465
0.94437
0.944087
0.943803
0.943517
0.943228
0.942938
0.942645
0.94235
0.942053
0.941753
0.94145
0.941145
0.940841
0.940526
0.940211
0.939893
0.939574
0.939251
0.938925
0.938596
0.938264
0.937928
0.937589
0.937247
0.936901
0.936552
0.936198
0.935842
0.935481
0.935117
0.934749
0.934378
0.934002
0.933623
0.93324
0.932853
0.932462
0.932067
0.931668
0.931265
0.930858
0.930447
0.930032
0.929613
0.92919
0.928763
0.928331
0.927895
0.927456
0.927012
0.926563
0.926111
0.925654
0.925193
0.924728
0.924258
0.923785
0.923306
0.922824
0.922337
0.921846
0.921351
0.920851
0.920347
0.919838
0.919326
0.918808
0.918287
0.917761
0.91723
0.916696
0.916156
0.915613
0.915065
0.914513
0.913956
0.913396
0.91283
0.912261
0.911687
0.911109
0.910527
0.909941
0.90935
0.908755
0.908157
0.907554
0.906947
0.906337
0.905722
0.905104
0.904482
0.903856
0.903226
0.902593
0.901957
0.901317
0.900675
0.900029
0.89938
0.898728
0.898073
0.897416
0.896756
0.896094
0.89543
0.894764
0.894096
0.893426
0.892755
0.892083