/*--------------------------------*- C++ -*----------------------------------*\
| =========                 |                                                 |
| \\      /  F ield         | OpenFOAM: The Open Source CFD Toolbox           |
|  \\    /   O peration     | Version:  2.4.0                                 |
|   \\  /    A nd           | Web:      www.OpenFOAM.org                      |
|    \\/     M anipulation  |                                                 |
\*---------------------------------------------------------------------------*/
FoamFile
{
    version     2.0;
    format      ascii;
    class       surfaceScalarField;
    location    "5";
    object      phi;
}
// * * * * * * * * * * * * * * * * * * * * * * * * * * * * * * * * * * * * * //

dimensions      [0 3 -1 0 0 0 0];

internalField   nonuniform List<scalar> 
15580
(
2.00665e-12
-2.26521e-12
8.16686e-12
-6.26163e-12
1.8579e-11
-9.74364e-12
3.33581e-11
-1.27371e-11
5.00912e-11
-1.52577e-11
6.89639e-11
-1.73362e-11
8.67035e-11
-1.89154e-11
9.44445e-11
-1.94734e-11
2.07554e-10
-2.01249e-11
2.26939e-10
-2.04812e-11
3.37332e-10
-2.1741e-11
4.28655e-10
-2.18951e-11
5.65991e-10
-2.01179e-11
7.71469e-10
-1.68102e-11
1.03493e-09
-1.27379e-11
1.33555e-09
-6.26342e-12
1.4022e-09
4.00126e-11
1.31803e-09
3.86342e-11
1.28181e-09
4.16906e-11
1.27811e-09
8.84342e-11
1.32416e-09
1.13506e-10
1.40559e-09
1.40323e-10
1.49852e-09
1.81652e-10
1.59428e-09
2.17339e-10
1.72589e-09
1.87348e-10
1.94769e-09
7.84931e-11
2.14814e-09
4.05718e-11
2.30604e-09
4.89507e-11
2.40343e-09
9.21035e-11
2.44041e-09
1.38856e-10
2.43065e-09
1.74817e-10
2.39505e-09
1.87579e-10
2.35344e-09
1.69835e-10
2.34529e-09
1.00173e-10
2.35025e-09
5.01529e-11
2.33112e-09
6.97385e-11
2.30101e-09
7.35063e-11
2.27018e-09
4.72173e-11
2.2927e-09
-3.63125e-11
2.38068e-09
-1.1768e-10
2.4359e-09
-6.68991e-11
2.46398e-09
1.84162e-11
2.43291e-09
1.61122e-10
2.42712e-09
1.07155e-10
2.4118e-09
5.92331e-11
2.37188e-09
3.61317e-11
2.31863e-09
1.15756e-11
2.27098e-09
-4.29049e-11
2.23287e-09
-1.10295e-10
-1.60073e-10
2.19715e-09
2.92572e-13
-2.55778e-12
1.29515e-12
-7.26421e-12
3.11574e-12
-1.15642e-11
5.84518e-12
-1.54665e-11
9.56998e-12
-1.89825e-11
1.43584e-11
-2.21246e-11
2.03421e-11
-2.48991e-11
2.81967e-11
-2.73281e-11
3.75267e-11
-2.94549e-11
4.83512e-11
-3.13056e-11
5.93854e-11
-3.27752e-11
7.12163e-11
-3.3726e-11
8.5081e-11
-3.39826e-11
1.01752e-10
-3.34815e-11
1.2114e-10
-3.21259e-11
1.44713e-10
-2.96676e-11
1.75183e-10
-2.72559e-11
2.00413e-10
-2.43309e-11
2.45903e-10
-2.25324e-11
3.44083e-10
-2.05989e-11
4.67776e-10
-1.80759e-11
6.17707e-10
-1.46931e-11
8.06973e-10
-1.02508e-11
1.02683e-09
-3.18599e-12
1.1992e-09
1.48902e-11
1.24343e-09
3.42374e-11
1.27176e-09
1.22436e-11
1.26061e-09
6.00977e-11
1.23573e-09
1.16988e-10
1.21099e-09
1.6359e-10
1.1921e-09
1.93711e-10
1.19791e-09
1.81766e-10
1.24703e-09
1.20723e-10
1.26222e-09
8.49784e-11
1.24203e-09
7.03486e-11
1.22218e-09
8.95883e-11
1.12428e-09
1.71399e-10
1.01681e-09
1.54691e-10
9.21892e-10
5.86051e-11
8.54354e-10
-5.01409e-11
7.88374e-10
-9.19696e-13
7.96805e-10
9.98568e-12
9.60454e-10
-2.52733e-12
1.08548e-09
-1.78691e-11
1.19385e-09
-4.91439e-11
1.28373e-09
-5.37391e-11
1.34523e-09
-4.99278e-11
1.39485e-09
-9.25294e-11
1.41866e-09
-1.34104e-10
-1.54232e-10
1.41282e-09
-5.25256e-14
-2.50526e-12
-1.53831e-13
-7.1629e-12
-2.42085e-13
-1.1476e-11
-2.57893e-13
-1.54507e-11
-1.49651e-13
-1.90907e-11
1.25999e-13
-2.24002e-11
6.10559e-13
-2.53836e-11
1.32776e-12
-2.80453e-11
2.26187e-12
-3.0389e-11
3.37561e-12
-3.24194e-11
4.7381e-12
-3.41377e-11
6.55788e-12
-3.55458e-11
9.22318e-12
-3.66479e-11
1.31957e-11
-3.7454e-11
1.90505e-11
-3.79807e-11
2.7637e-11
-3.82541e-11
3.8694e-11
-3.83128e-11
5.25822e-11
-3.82192e-11
6.79263e-11
-3.78764e-11
8.45434e-11
-3.72161e-11
1.02505e-10
-3.60372e-11
1.22034e-10
-3.42228e-11
1.43445e-10
-3.16612e-11
1.68585e-10
-2.83386e-11
1.94452e-10
-2.47162e-11
2.1275e-10
-2.09967e-11
2.36835e-10
-1.72073e-11
3.07056e-10
-1.34342e-11
4.31155e-10
-8.74442e-12
5.97267e-10
-2.98614e-12
7.8334e-10
7.55835e-12
9.49408e-10
1.56835e-11
1.06225e-09
7.88425e-12
1.1525e-09
-5.27903e-12
1.19525e-09
2.76044e-11
1.1991e-09
8.574e-11
1.26808e-09
1.02417e-10
1.34397e-09
7.88005e-11
1.3313e-09
7.12685e-11
1.20039e-09
8.07696e-11
1.09414e-09
1.05335e-10
9.95225e-10
1.089e-10
9.31066e-10
6.16313e-11
9.11594e-10
1.60343e-12
9.08396e-10
-4.59461e-11
8.91724e-10
-3.70675e-11
8.89304e-10
-4.75075e-11
8.44146e-10
-4.73712e-11
7.70487e-10
-6.04453e-11
-7.7115e-11
6.9337e-10
-1.41024e-13
-2.36424e-12
-4.8896e-13
-6.81497e-12
-9.85418e-13
-1.09795e-11
-1.58084e-12
-1.48553e-11
-2.22694e-12
-1.84446e-11
-2.8768e-12
-2.17504e-11
-3.485e-12
-2.47754e-11
-4.0077e-12
-2.75226e-11
-4.40261e-12
-2.99941e-11
-4.62992e-12
-3.21921e-11
-4.64925e-12
-3.41184e-11
-4.41996e-12
-3.57751e-11
-3.90341e-12
-3.71644e-11
-3.06809e-12
-3.82893e-11
-1.89532e-12
-3.91535e-11
-3.88319e-13
-3.97611e-11
1.41553e-12
-4.01167e-11
3.42215e-12
-4.02258e-11
5.63642e-12
-4.00907e-11
8.133e-12
-3.97127e-11
1.11897e-11
-3.90939e-11
1.52062e-11
-3.82393e-11
2.07042e-11
-3.71592e-11
2.82363e-11
-3.58707e-11
3.79152e-11
-3.4395e-11
4.96751e-11
-3.27567e-11
6.33808e-11
-3.0913e-11
7.87155e-11
-2.87689e-11
9.61603e-11
-2.61893e-11
1.16205e-10
-2.30311e-11
1.38444e-10
-1.97391e-11
1.44467e-10
-1.63222e-11
1.62678e-10
-1.28313e-11
1.64977e-10
-8.93976e-12
1.95924e-10
-3.81956e-12
2.78964e-10
2.6239e-12
3.62533e-10
1.88488e-11
4.45086e-10
-3.75248e-12
4.91944e-10
2.44106e-11
4.7938e-10
9.33331e-11
4.66321e-10
1.18394e-10
5.08853e-10
6.63691e-11
5.56148e-10
1.43355e-11
5.35804e-10
2.19482e-11
4.33772e-10
5.60852e-11
3.2409e-10
7.26153e-11
2.26723e-10
4.98586e-11
1.55905e-10
2.34478e-11
8.69241e-11
8.53511e-12
-8.62704e-12
1.84362e-11
-1.87587e-13
-2.17665e-12
-7.36069e-13
-6.26649e-12
-1.60723e-12
-1.01084e-11
-2.75189e-12
-1.37106e-11
-4.12184e-12
-1.70747e-11
-5.6696e-12
-2.02026e-11
-7.3482e-12
-2.30968e-11
-9.11104e-12
-2.57597e-11
-1.09119e-11
-2.81932e-11
-1.27049e-11
-3.0399e-11
-1.44445e-11
-3.23788e-11
-1.60854e-11
-3.41342e-11
-1.75831e-11
-3.56668e-11
-1.88943e-11
-3.69781e-11
-1.9978e-11
-3.80697e-11
-2.07961e-11
-3.8943e-11
-2.13137e-11
-3.95991e-11
-2.15001e-11
-4.00394e-11
-2.13263e-11
-4.02646e-11
-2.07635e-11
-4.02754e-11
-1.97847e-11
-4.00727e-11
-1.83665e-11
-3.96575e-11
-1.64942e-11
-3.90315e-11
-1.41683e-11
-3.81966e-11
-1.14081e-11
-3.71552e-11
-8.25484e-12
-3.59099e-11
-4.70581e-12
-3.44621e-11
-6.63067e-13
-3.28117e-11
4.10868e-12
-3.0961e-11
9.99297e-12
-2.89154e-11
1.69355e-11
-2.66817e-11
2.48786e-11
-2.42653e-11
3.36891e-11
-2.16417e-11
4.34666e-11
-1.87173e-11
5.51256e-11
-1.54786e-11
6.83051e-11
-1.18901e-11
7.70228e-11
-8.7752e-12
7.73942e-11
-4.74241e-12
1.02558e-10
-9.39551e-13
1.90138e-10
5.69481e-12
2.96924e-10
1.1606e-11
3.48225e-10
1.50675e-11
3.73041e-10
-1.048e-11
3.32001e-10
6.29877e-11
3.08564e-10
7.95229e-11
3.27491e-10
5.36875e-11
3.58987e-10
1.83627e-11
3.60301e-10
2.21339e-11
3.34934e-10
3.39022e-11
3.20781e-11
2.94229e-10
-3.35563e-13
-1.84109e-12
-1.24054e-12
-5.36151e-12
-2.64396e-12
-8.70493e-12
-4.49071e-12
-1.18639e-11
-6.72724e-12
-1.48382e-11
-9.30144e-12
-1.76284e-11
-1.21624e-11
-2.02359e-11
-1.526e-11
-2.26621e-11
-1.85454e-11
-2.49078e-11
-2.19704e-11
-2.69741e-11
-2.54874e-11
-2.88617e-11
-2.905e-11
-3.05717e-11
-3.26119e-11
-3.21049e-11
-3.61275e-11
-3.34624e-11
-3.9552e-11
-3.46453e-11
-4.28403e-11
-3.56546e-11
-4.59481e-11
-3.64913e-11
-4.88308e-11
-3.71567e-11
-5.14435e-11
-3.76518e-11
-5.37411e-11
-3.79779e-11
-5.56778e-11
-3.8136e-11
-5.72081e-11
-3.81273e-11
-5.82865e-11
-3.79531e-11
-5.88686e-11
-3.76145e-11
-5.89112e-11
-3.71126e-11
-5.83724e-11
-3.64488e-11
-5.72106e-11
-3.56238e-11
-5.53833e-11
-3.4639e-11
-5.2849e-11
-3.34954e-11
-4.95697e-11
-3.21947e-11
-4.55128e-11
-3.07386e-11
-4.06485e-11
-2.91295e-11
-3.49212e-11
-2.73691e-11
-2.81796e-11
-2.54588e-11
-2.0257e-11
-2.34012e-11
-1.09466e-11
-2.12005e-11
-8.64025e-13
-1.88577e-11
1.07513e-11
-1.63577e-11
2.3374e-11
-1.35623e-11
3.86409e-11
-1.08715e-11
5.33422e-11
-8.24663e-12
7.37613e-11
-5.98522e-12
6.59187e-11
-2.7788e-12
1.29135e-10
-2.6252e-13
2.02229e-10
6.42973e-12
2.51841e-10
4.07517e-12
2.76071e-10
-5.86751e-12
2.70422e-10
2.77828e-11
2.81033e-10
2.32912e-11
1.29955e-11
3.00116e-10
-2.99998e-13
-1.54109e-12
-1.18944e-12
-4.47207e-12
-2.62935e-12
-7.26502e-12
-4.56799e-12
-9.92523e-12
-6.95516e-12
-1.2451e-11
-9.74191e-12
-1.48416e-11
-1.28803e-11
-1.70975e-11
-1.63234e-11
-1.9219e-11
-2.00251e-11
-2.12062e-11
-2.39399e-11
-2.30592e-11
-2.80234e-11
-2.47782e-11
-3.22317e-11
-2.63634e-11
-3.65216e-11
-2.78151e-11
-4.08504e-11
-2.91337e-11
-4.5176e-11
-3.03197e-11
-4.94568e-11
-3.13738e-11
-5.36516e-11
-3.22966e-11
-5.77194e-11
-3.30889e-11
-6.16197e-11
-3.37516e-11
-6.5312e-11
-3.42856e-11
-6.8756e-11
-3.46919e-11
-7.19115e-11
-3.49718e-11
-7.47383e-11
-3.51263e-11
-7.71958e-11
-3.51569e-11
-7.92435e-11
-3.5065e-11
-8.08403e-11
-3.4852e-11
-8.19446e-11
-3.45195e-11
-8.25145e-11
-3.40692e-11
-8.2507e-11
-3.35028e-11
-8.18794e-11
-3.28223e-11
-8.05884e-11
-3.20296e-11
-7.85913e-11
-3.11266e-11
-7.58448e-11
-3.01156e-11
-7.23049e-11
-2.89987e-11
-6.79277e-11
-2.77784e-11
-6.26708e-11
-2.64574e-11
-5.64902e-11
-2.50383e-11
-4.93236e-11
-2.35244e-11
-4.09682e-11
-2.19177e-11
-3.16161e-11
-2.02236e-11
-2.14137e-11
-1.8449e-11
-1.08345e-11
-1.65644e-11
9.80282e-13
-1.45936e-11
1.31205e-11
-1.24028e-11
2.42714e-11
-1.05617e-11
3.66492e-11
-8.48987e-12
3.59373e-11
-5.22783e-12
6.65148e-11
-2.81359e-12
9.68537e-11
-7.04768e-12
-1.15276e-11
1.21377e-10
-3.35438e-13
-1.20565e-12
-1.24913e-12
-3.55838e-12
-2.68051e-12
-5.83364e-12
-4.58519e-12
-8.02055e-12
-6.91986e-12
-1.01163e-11
-9.64223e-12
-1.21193e-11
-1.27109e-11
-1.40288e-11
-1.60853e-11
-1.58446e-11
-1.97256e-11
-1.75659e-11
-2.35926e-11
-1.91922e-11
-2.76478e-11
-2.0723e-11
-3.18534e-11
-2.21578e-11
-3.61721e-11
-2.34964e-11
-4.05671e-11
-2.47387e-11
-4.5002e-11
-2.58847e-11
-4.94411e-11
-2.69347e-11
-5.38489e-11
-2.78888e-11
-5.81902e-11
-2.87475e-11
-6.24305e-11
-2.95113e-11
-6.65351e-11
-3.01809e-11
-7.047e-11
-3.0757e-11
-7.42012e-11
-3.12406e-11
-7.7695e-11
-3.16326e-11
-8.09177e-11
-3.19342e-11
-8.3836e-11
-3.21467e-11
-8.64165e-11
-3.22714e-11
-8.8626e-11
-3.231e-11
-9.04312e-11
-3.2264e-11
-9.17988e-11
-3.21352e-11
-9.26955e-11
-3.19256e-11
-9.30878e-11
-3.16373e-11
-9.29421e-11
-3.12723e-11
-9.22245e-11
-3.08332e-11
-9.09009e-11
-3.03223e-11
-8.8937e-11
-2.97423e-11
-8.62984e-11
-2.90961e-11
-8.29502e-11
-2.83865e-11
-7.88577e-11
-2.76169e-11
-7.39849e-11
-2.67904e-11
-6.82979e-11
-2.59106e-11
-6.17657e-11
-2.49812e-11
-5.43244e-11
-2.40058e-11
-4.59303e-11
-2.29877e-11
-3.64028e-11
-2.19303e-11
-2.61299e-11
-2.08346e-11
-1.49518e-11
-1.9668e-11
-1.4391e-12
-1.87406e-11
1.39406e-11
-1.81982e-11
2.26198e-11
-1.75884e-11
-1.80583e-11
2.90425e-11
-2.06818e-13
-9.98835e-13
-8.39699e-13
-2.9255e-12
-1.88051e-12
-4.79283e-12
-3.29664e-12
-6.60442e-12
-5.05607e-12
-8.35689e-12
-7.12726e-12
-1.00481e-11
-9.47904e-12
-1.1677e-11
-1.20806e-11
-1.3243e-11
-1.49014e-11
-1.47451e-11
-1.79114e-11
-1.61822e-11
-2.10808e-11
-1.75536e-11
-2.43801e-11
-1.88585e-11
-2.77802e-11
-2.00963e-11
-3.12523e-11
-2.12666e-11
-3.47678e-11
-2.23692e-11
-3.82984e-11
-2.3404e-11
-4.18163e-11
-2.4371e-11
-4.52936e-11
-2.52702e-11
-4.87029e-11
-2.6102e-11
-5.20169e-11
-2.68669e-11
-5.52087e-11
-2.75652e-11
-5.82515e-11
-2.81978e-11
-6.11187e-11
-2.87654e-11
-6.37839e-11
-2.9269e-11
-6.6221e-11
-2.97095e-11
-6.84041e-11
-3.00884e-11
-7.03072e-11
-3.04069e-11
-7.19047e-11
-3.06664e-11
-7.31712e-11
-3.08688e-11
-7.40813e-11
-3.10156e-11
-7.46097e-11
-3.11089e-11
-7.47313e-11
-3.11507e-11
-7.44213e-11
-3.11432e-11
-7.36547e-11
-3.10889e-11
-7.24066e-11
-3.09904e-11
-7.06524e-11
-3.08503e-11
-6.83673e-11
-3.06716e-11
-6.55268e-11
-3.04574e-11
-6.21061e-11
-3.02111e-11
-5.80806e-11
-2.99361e-11
-5.34255e-11
-2.96363e-11
-4.81156e-11
-2.93157e-11
-4.21249e-11
-2.89785e-11
-3.54259e-11
-2.86293e-11
-2.79877e-11
-2.82728e-11
-1.97407e-11
-2.79151e-11
-1.09184e-11
-2.75629e-11
-1.89529e-12
-2.72213e-11
7.51133e-12
-2.69954e-11
-2.68305e-11
1.62829e-11
-1.81611e-13
-8.17224e-13
-6.60831e-13
-2.44628e-12
-1.40328e-12
-4.05038e-12
-2.38961e-12
-5.61809e-12
-3.60035e-12
-7.14615e-12
-5.0159e-12
-8.63253e-12
-6.61653e-12
-1.00764e-11
-8.38237e-12
-1.14772e-11
-1.02935e-11
-1.2834e-11
-1.233e-11
-1.41458e-11
-1.44719e-11
-1.54117e-11
-1.66992e-11
-1.66311e-11
-1.89921e-11
-1.78034e-11
-2.13308e-11
-1.8928e-11
-2.36955e-11
-2.00045e-11
-2.60666e-11
-2.10329e-11
-2.84247e-11
-2.20129e-11
-3.07503e-11
-2.29445e-11
-3.30245e-11
-2.38279e-11
-3.52282e-11
-2.46632e-11
-3.73427e-11
-2.54507e-11
-3.93495e-11
-2.6191e-11
-4.12305e-11
-2.68844e-11
-4.29678e-11
-2.75317e-11
-4.45438e-11
-2.81335e-11
-4.59414e-11
-2.86909e-11
-4.71437e-11
-2.92046e-11
-4.81344e-11
-2.96757e-11
-4.88978e-11
-3.01054e-11
-4.94184e-11
-3.04949e-11
-4.96817e-11
-3.08456e-11
-4.96735e-11
-3.11588e-11
-4.93806e-11
-3.14361e-11
-4.87905e-11
-3.16791e-11
-4.78915e-11
-3.18894e-11
-4.66731e-11
-3.20687e-11
-4.51257e-11
-3.2219e-11
-4.3241e-11
-3.23421e-11
-4.10122e-11
-3.24398e-11
-3.8434e-11
-3.25144e-11
-3.55026e-11
-3.25677e-11
-3.22164e-11
-3.26019e-11
-2.85758e-11
-3.26191e-11
-2.45837e-11
-3.26214e-11
-2.02455e-11
-3.26109e-11
-1.55708e-11
-3.25898e-11
-1.05739e-11
-3.25597e-11
-5.27245e-12
-3.25228e-11
2.14185e-13
-3.2482e-11
-3.24344e-11
5.81811e-12
-5.14175e-14
-7.65806e-13
-2.45726e-13
-2.25197e-12
-5.88596e-13
-3.70751e-12
-1.06898e-12
-5.1377e-12
-1.67578e-12
-6.53935e-12
-2.39777e-12
-7.91054e-12
-3.22352e-12
-9.25067e-12
-4.14139e-12
-1.05593e-11
-5.1396e-12
-1.18357e-11
-6.20625e-12
-1.30791e-11
-7.32932e-12
-1.42887e-11
-8.49674e-12
-1.54637e-11
-9.69638e-12
-1.66037e-11
-1.09161e-11
-1.77083e-11
-1.21436e-11
-1.8777e-11
-1.33668e-11
-1.98097e-11
-1.45736e-11
-2.08061e-11
-1.57518e-11
-2.17663e-11
-1.68894e-11
-2.26903e-11
-1.79744e-11
-2.35781e-11
-1.89951e-11
-2.44301e-11
-1.99397e-11
-2.52463e-11
-2.07967e-11
-2.60274e-11
-2.15547e-11
-2.67737e-11
-2.22025e-11
-2.74857e-11
-2.27292e-11
-2.81642e-11
-2.3124e-11
-2.88098e-11
-2.33764e-11
-2.94233e-11
-2.34763e-11
-3.00056e-11
-2.34136e-11
-3.05576e-11
-2.31788e-11
-3.10804e-11
-2.27626e-11
-3.1575e-11
-2.2156e-11
-3.20427e-11
-2.13503e-11
-3.24847e-11
-2.03374e-11
-3.29023e-11
-1.91093e-11
-3.32968e-11
-1.76584e-11
-3.36698e-11
-1.59777e-11
-3.40228e-11
-1.40603e-11
-3.43573e-11
-1.18996e-11
-3.4675e-11
-9.48968e-12
-3.49776e-11
-6.82456e-12
-3.5267e-11
-3.89865e-12
-3.5545e-11
-7.06585e-13
-3.58135e-11
2.75689e-12
-3.60744e-11
6.49688e-12
-3.63298e-11
1.05188e-11
-3.65817e-11
1.48284e-11
-3.68323e-11
1.94331e-11
-3.70868e-11
-3.73488e-11
2.43476e-11
-5.8499e-14
-7.07307e-13
-1.77459e-13
-2.13301e-12
-3.37083e-13
-3.54789e-12
-5.35119e-13
-4.93967e-12
-7.68858e-13
-6.30561e-12
-1.03519e-12
-7.6442e-12
-1.33059e-12
-8.95528e-12
-1.65109e-12
-1.02388e-11
-1.99244e-12
-1.14944e-11
-2.35005e-12
-1.27215e-11
-2.71909e-12
-1.39196e-11
-3.09451e-12
-1.50883e-11
-3.47107e-12
-1.62272e-11
-3.84335e-12
-1.7336e-11
-4.20579e-12
-1.84146e-11
-4.55275e-12
-1.94627e-11
-4.87847e-12
-2.04804e-11
-5.17715e-12
-2.14677e-11
-5.44297e-12
-2.24245e-11
-5.67009e-12
-2.3351e-11
-5.8527e-12
-2.42474e-11
-5.98503e-12
-2.5114e-11
-6.06138e-12
-2.5951e-11
-6.07616e-12
-2.67589e-11
-6.02387e-12
-2.7538e-11
-5.8992e-12
-2.82889e-11
-5.69697e-12
-2.9012e-11
-5.41224e-12
-2.9708e-11
-5.04025e-12
-3.03775e-11
-4.57652e-12
-3.10213e-11
-4.01684e-12
-3.16401e-11
-3.35732e-12
-3.22346e-11
-2.5944e-12
-3.28057e-11
-1.72488e-12
-3.33542e-11
-7.45996e-13
-3.38812e-11
3.44602e-13
-3.43874e-11
1.54877e-12
-3.4874e-11
2.86785e-12
-3.53419e-11
4.30261e-12
-3.57921e-11
5.85322e-12
-3.62256e-11
7.51915e-12
-3.66436e-11
9.29917e-12
-3.7047e-11
1.11912e-11
-3.7437e-11
1.31923e-11
-3.78146e-11
1.52984e-11
-3.81806e-11
1.75046e-11
-3.8536e-11
1.98056e-11
-3.88826e-11
2.21969e-11
-3.92237e-11
2.4669e-11
-3.95589e-11
-3.98816e-11
2.72018e-11
5.03798e-14
-7.57687e-13
1.37187e-13
-2.21982e-12
2.3876e-13
-3.64946e-12
3.5419e-13
-5.0551e-12
4.82656e-13
-6.43408e-12
6.2353e-13
-7.78507e-12
7.76472e-13
-9.10822e-12
9.41426e-13
-1.04038e-11
1.11857e-12
-1.16715e-11
1.30829e-12
-1.29112e-11
1.51116e-12
-1.41225e-11
1.72794e-12
-1.53051e-11
1.95953e-12
-1.64588e-11
2.20701e-12
-1.75835e-11
2.47158e-12
-1.86791e-11
2.75454e-12
-1.97457e-11
3.05732e-12
-2.07832e-11
3.38142e-12
-2.17918e-11
3.72842e-12
-2.27715e-11
4.09992e-12
-2.37225e-11
4.49761e-12
-2.46451e-11
4.92315e-12
-2.55396e-11
5.37824e-12
-2.64061e-11
5.86456e-12
-2.72452e-11
6.38375e-12
-2.80572e-11
6.93743e-12
-2.88425e-11
7.52715e-12
-2.96017e-11
8.15439e-12
-3.03352e-11
8.82055e-12
-3.10437e-11
9.52691e-12
-3.17277e-11
1.02747e-11
-3.23878e-11
1.10648e-11
-3.30247e-11
1.18982e-11
-3.36391e-11
1.27757e-11
-3.42317e-11
1.36977e-11
-3.48032e-11
1.46645e-11
-3.53543e-11
1.56763e-11
-3.58858e-11
1.67329e-11
-3.63985e-11
1.78339e-11
-3.6893e-11
1.89784e-11
-3.73702e-11
2.01655e-11
-3.78306e-11
2.13935e-11
-3.82751e-11
2.26606e-11
-3.87041e-11
2.39641e-11
-3.91181e-11
2.53016e-11
-3.95181e-11
2.66707e-11
-3.9905e-11
2.80675e-11
-4.02794e-11
2.93153e-11
-4.04715e-11
3.04088e-11
-4.06524e-11
-4.07464e-11
2.42939e-11
-1.0704e-14
-7.46983e-13
2.28797e-14
-2.2534e-12
1.18086e-13
-3.74467e-12
2.69043e-13
-5.20606e-12
4.70285e-13
-6.63532e-12
7.16676e-13
-8.03147e-12
1.00344e-12
-9.39498e-12
1.32615e-12
-1.07265e-11
1.68065e-12
-1.20261e-11
2.06306e-12
-1.32936e-11
2.46973e-12
-1.45292e-11
2.89721e-12
-1.57325e-11
3.34226e-12
-1.69038e-11
3.80181e-12
-1.8043e-11
4.27298e-12
-1.91503e-11
4.75302e-12
-2.02257e-11
5.23933e-12
-2.12695e-11
5.72947e-12
-2.22819e-11
6.22107e-12
-2.32631e-11
6.71192e-12
-2.42134e-11
7.19988e-12
-2.51331e-11
7.68293e-12
-2.60226e-11
8.15914e-12
-2.68823e-11
8.62667e-12
-2.77127e-11
9.08378e-12
-2.85143e-11
9.52884e-12
-2.92876e-11
9.96032e-12
-3.00332e-11
1.03768e-11
-3.07517e-11
1.0777e-11
-3.14439e-11
1.11599e-11
-3.21105e-11
1.15244e-11
-3.27524e-11
1.187e-11
-3.33703e-11
1.21962e-11
-3.39653e-11
1.25029e-11
-3.45383e-11
1.27903e-11
-3.50906e-11
1.30592e-11
-3.56233e-11
1.33111e-11
-3.61376e-11
1.35477e-11
-3.66351e-11
1.3772e-11
-3.71173e-11
1.39876e-11
-3.75857e-11
1.41992e-11
-3.80423e-11
1.4413e-11
-3.84888e-11
1.46364e-11
-3.89275e-11
1.48795e-11
-3.93612e-11
1.51562e-11
-3.97947e-11
1.54838e-11
-4.02326e-11
1.58666e-11
-4.06623e-11
1.43956e-11
-4.14701e-11
2.16073e-12
-4.08847e-11
-4.01555e-11
4.32451e-13
8.88537e-14
-8.35837e-13
2.65953e-13
-2.4305e-12
4.99446e-13
-3.97816e-12
7.85216e-13
-5.49183e-12
1.11874e-12
-6.96885e-12
1.49528e-12
-8.40801e-12
1.91e-12
-9.8097e-12
2.35803e-12
-1.11745e-11
2.83445e-12
-1.25025e-11
3.3343e-12
-1.37935e-11
3.85264e-12
-1.50475e-11
4.38454e-12
-1.62644e-11
4.92508e-12
-1.74443e-11
5.46941e-12
-1.85874e-11
6.01276e-12
-1.96936e-11
6.55039e-12
-2.07634e-11
7.07764e-12
-2.17968e-11
7.58994e-12
-2.27942e-11
8.08276e-12
-2.37559e-11
8.55164e-12
-2.46823e-11
8.99218e-12
-2.55736e-11
9.40002e-12
-2.64305e-11
9.77082e-12
-2.72531e-11
1.01003e-11
-2.80422e-11
1.0384e-11
-2.87981e-11
1.06177e-11
-2.95213e-11
1.07969e-11
-3.02124e-11
1.09172e-11
-3.0872e-11
1.0974e-11
-3.15007e-11
1.09625e-11
-3.2099e-11
1.08779e-11
-3.26677e-11
1.07149e-11
-3.32073e-11
1.04681e-11
-3.37185e-11
1.01319e-11
-3.42021e-11
9.7001e-12
-3.46588e-11
9.16615e-12
-3.50893e-11
8.52294e-12
-3.54944e-11
7.76273e-12
-3.58749e-11
6.87698e-12
-3.62315e-11
5.85629e-12
-3.6565e-11
4.69031e-12
-3.68763e-11
3.36804e-12
-3.71665e-11
1.87802e-12
-3.74375e-11
2.07021e-13
-3.76902e-11
-1.66418e-12
-3.79235e-11
-3.75668e-12
-3.81401e-11
-9.35588e-12
-3.84421e-11
-2.07796e-11
-3.85886e-11
-2.2802e-11
-3.88757e-11
-3.89137e-11
-2.40438e-11
-3.91982e-18
-8.35833e-13
9.30518e-14
-2.52356e-12
3.0047e-13
-4.18558e-12
6.0898e-13
-5.80034e-12
1.00586e-12
-7.36573e-12
1.47881e-12
-8.88096e-12
2.01599e-12
-1.03469e-11
2.60603e-12
-1.17645e-11
3.23798e-12
-1.31344e-11
3.9014e-12
-1.44569e-11
4.58623e-12
-1.57323e-11
5.28289e-12
-1.69611e-11
5.98222e-12
-1.81437e-11
6.67545e-12
-1.92806e-11
7.35426e-12
-2.03724e-11
8.01067e-12
-2.14198e-11
8.63709e-12
-2.24232e-11
9.22625e-12
-2.33834e-11
9.77122e-12
-2.43009e-11
1.02653e-11
-2.51763e-11
1.07021e-11
-2.60104e-11
1.10753e-11
-2.68037e-11
1.1379e-11
-2.75568e-11
1.16071e-11
-2.82703e-11
1.17538e-11
-2.89448e-11
1.18133e-11
-2.95808e-11
1.17798e-11
-3.01789e-11
1.16473e-11
-3.07395e-11
1.14098e-11
-3.12631e-11
1.10609e-11
-3.17502e-11
1.05942e-11
-3.2201e-11
1.00027e-11
-3.26158e-11
9.27922e-12
-3.2995e-11
8.41584e-12
-3.33387e-11
7.40411e-12
-3.36471e-11
6.23483e-12
-3.392e-11
4.89788e-12
-3.41575e-11
3.38205e-12
-3.43591e-11
1.67493e-12
-3.45244e-11
-2.37172e-13
-3.46529e-11
-2.36914e-12
-3.47443e-11
-4.73756e-12
-3.47981e-11
-7.3614e-12
-3.48136e-11
-1.02643e-11
-3.47873e-11
-1.34683e-11
-3.47195e-11
-2.65979e-11
-3.46265e-11
-3.74742e-11
-3.43942e-11
-4.27567e-11
-3.33062e-11
-7.31254e-11
-8.50892e-12
-7.23115e-12
-1.04806e-10
1.29895e-13
-9.65727e-13
3.75695e-13
-2.76936e-12
6.86427e-13
-4.49631e-12
1.05435e-12
-6.16826e-12
1.46908e-12
-7.78045e-12
1.91843e-12
-9.33031e-12
2.38899e-12
-1.08174e-11
2.86657e-12
-1.22421e-11
3.33648e-12
-1.36043e-11
3.78386e-12
-1.49043e-11
4.1939e-12
-1.61424e-11
4.55196e-12
-1.73192e-11
4.84374e-12
-1.84354e-11
5.05531e-12
-1.94922e-11
5.17323e-12
-2.04903e-11
5.1845e-12
-2.1431e-11
5.07664e-12
-2.23153e-11
4.83764e-12
-2.31444e-11
4.45593e-12
-2.39192e-11
3.92041e-12
-2.46408e-11
3.22035e-12
-2.53103e-11
2.3454e-12
-2.59287e-11
1.28555e-12
-2.64969e-11
3.10678e-14
-2.70158e-11
-1.42749e-12
-2.74862e-11
-3.09931e-12
-2.7909e-11
-4.99331e-12
-2.82849e-11
-7.11817e-12
-2.86147e-11
-9.48223e-12
-2.88991e-11
-1.20935e-11
-2.91389e-11
-1.49596e-11
-2.93349e-11
-1.80874e-11
-2.9488e-11
-2.14833e-11
-2.95991e-11
-2.51527e-11
-2.96694e-11
-2.90997e-11
-2.97001e-11
-3.3327e-11
-2.96927e-11
-3.78355e-11
-2.9649e-11
-4.26236e-11
-2.9571e-11
-4.76868e-11
-2.94612e-11
-5.30172e-11
-2.93225e-11
-5.86021e-11
-2.91595e-11
-6.44219e-11
-2.89783e-11
-7.04472e-11
-2.87884e-11
-7.66376e-11
-2.85969e-11
-8.83798e-11
-2.83914e-11
-1.03501e-10
-2.8161e-11
-1.09927e-10
-2.79683e-11
-1.1581e-10
-2.74228e-11
-1.10262e-10
-1.40439e-11
-7.71992e-12
-1.09773e-10
1.09687e-13
-1.07541e-12
5.66071e-13
-3.22574e-12
1.35432e-12
-5.28456e-12
2.3918e-12
-7.20575e-12
3.60634e-12
-8.99499e-12
4.93496e-12
-1.06589e-11
6.32273e-12
-1.22052e-11
7.72191e-12
-1.36413e-11
9.09138e-12
-1.49738e-11
1.0396e-11
-1.6209e-11
1.16062e-11
-1.73525e-11
1.2697e-11
-1.841e-11
1.36479e-11
-1.93864e-11
1.44422e-11
-2.02865e-11
1.50666e-11
-2.11147e-11
1.55105e-11
-2.18749e-11
1.57661e-11
-2.25709e-11
1.58275e-11
-2.32058e-11
1.5691e-11
-2.37826e-11
1.53538e-11
-2.43037e-11
1.48148e-11
-2.47713e-11
1.40734e-11
-2.51873e-11
1.31297e-11
-2.55532e-11
1.1984e-11
-2.58701e-11
1.06366e-11
-2.61389e-11
9.08774e-12
-2.63601e-11
7.33677e-12
-2.65339e-11
5.38238e-12
-2.66603e-11
3.22211e-12
-2.67388e-11
8.52039e-13
-2.67688e-11
-1.73346e-12
-2.67494e-11
-4.54208e-12
-2.66794e-11
-7.5839e-12
-2.65573e-11
-1.08717e-11
-2.63816e-11
-1.44214e-11
-2.61504e-11
-1.82524e-11
-2.58617e-11
-2.23878e-11
-2.55135e-11
-2.68554e-11
-2.51034e-11
-3.16876e-11
-2.4629e-11
-3.69225e-11
-2.40875e-11
-4.26042e-11
-2.34778e-11
-4.87828e-11
-2.27997e-11
-5.55128e-11
-2.20584e-11
-6.28492e-11
-2.12605e-11
-7.08422e-11
-2.03984e-11
-9.3994e-11
-1.94438e-11
-1.02752e-10
-1.92225e-11
-1.10491e-10
-1.96828e-11
-9.15891e-11
-3.28743e-11
-3.69e-11
-6.2409e-11
9.35847e-13
-2.01126e-12
3.0242e-12
-5.31409e-12
5.85271e-12
-8.11307e-12
9.18524e-12
-1.05383e-11
1.28327e-11
-1.26425e-11
1.66442e-11
-1.44704e-11
2.05e-11
-1.6061e-11
2.43065e-11
-1.74478e-11
2.79918e-11
-1.86591e-11
3.15019e-11
-1.97191e-11
3.4798e-11
-2.06486e-11
3.78532e-11
-2.14651e-11
4.06507e-11
-2.21839e-11
4.31819e-11
-2.28177e-11
4.5445e-11
-2.33777e-11
4.7443e-11
-2.3873e-11
4.91834e-11
-2.43114e-11
5.0677e-11
-2.46994e-11
5.19367e-11
-2.50423e-11
5.29772e-11
-2.53442e-11
5.38142e-11
-2.56084e-11
5.44639e-11
-2.5837e-11
5.4942e-11
-2.60313e-11
5.52637e-11
-2.61918e-11
5.54427e-11
-2.63179e-11
5.54904e-11
-2.64079e-11
5.54159e-11
-2.64594e-11
5.52242e-11
-2.64686e-11
5.49161e-11
-2.64307e-11
5.44865e-11
-2.63392e-11
5.39234e-11
-2.61864e-11
5.32065e-11
-2.59624e-11
5.23047e-11
-2.56555e-11
5.11746e-11
-2.52515e-11
4.97578e-11
-2.47335e-11
4.79771e-11
-2.40811e-11
4.57338e-11
-2.32702e-11
4.29025e-11
-2.22722e-11
3.93263e-11
-2.10527e-11
3.48097e-11
-1.9571e-11
2.91096e-11
-1.77777e-11
2.19265e-11
-1.56165e-11
1.28846e-11
-1.30166e-11
1.53147e-12
-9.90739e-12
-1.26736e-11
-6.19328e-12
-3.27635e-11
-1.7544e-12
-6.60479e-11
5.45943e-12
-9.30356e-11
7.30161e-12
-1.11936e-10
-1.3544e-11
-3.77909e-12
-1.44944e-10
1.73887e-11
3.14746e-11
4.27616e-11
5.16233e-11
5.83808e-11
6.33104e-11
6.66494e-11
6.86016e-11
6.93425e-11
6.90234e-11
6.77748e-11
6.57097e-11
6.29258e-11
5.95081e-11
5.55304e-11
5.10574e-11
4.61461e-11
4.08467e-11
3.52044e-11
2.92602e-11
2.30518e-11
1.66149e-11
9.9835e-12
3.19168e-12
-3.72618e-12
-1.07341e-11
-1.77935e-11
-2.48621e-11
-3.18928e-11
-3.8832e-11
-4.56183e-11
-5.21807e-11
-5.84362e-11
-6.42878e-11
-6.96212e-11
-7.43023e-11
-7.81726e-11
-8.10447e-11
-8.26975e-11
-8.28684e-11
-8.12461e-11
-7.74627e-11
-7.10792e-11
-6.15866e-11
-4.83799e-11
-3.07343e-11
-6.54161e-12
1.58907e-11
1.77469e-11
-6.33315e-12
2.16312e-09
-1.92927e-10
2.13542e-09
-2.1535e-10
2.10938e-09
-2.27729e-10
2.07223e-09
-2.34071e-10
2.02584e-09
-2.4664e-10
1.96736e-09
-2.69807e-10
1.89585e-09
-3.0374e-10
1.8147e-09
-3.41197e-10
1.72745e-09
-3.79202e-10
1.63697e-09
-4.16795e-10
1.54557e-09
-4.53398e-10
1.45503e-09
-4.88564e-10
1.3667e-09
-5.21976e-10
1.28151e-09
-5.53383e-10
1.20005e-09
-5.82575e-10
1.12268e-09
-6.09376e-10
1.04956e-09
-6.33654e-10
9.80698e-10
-6.55333e-10
9.16052e-10
-6.74389e-10
8.55513e-10
-6.90852e-10
7.9895e-10
-7.04795e-10
7.46225e-10
-7.16333e-10
6.972e-10
-7.25606e-10
6.51742e-10
-7.32774e-10
6.09727e-10
-7.38007e-10
5.71039e-10
-7.41477e-10
5.35574e-10
-7.43351e-10
5.03235e-10
-7.43787e-10
4.73932e-10
-7.42933e-10
4.47584e-10
-7.4092e-10
4.24114e-10
-7.37868e-10
4.03451e-10
-7.3388e-10
3.85525e-10
-7.29048e-10
3.7027e-10
-7.23449e-10
3.57624e-10
-7.17151e-10
3.47521e-10
-7.10212e-10
3.399e-10
-7.02681e-10
3.34699e-10
-6.946e-10
3.31854e-10
-6.86008e-10
3.31304e-10
-6.76938e-10
3.32984e-10
-6.67419e-10
3.36833e-10
-6.57478e-10
3.42787e-10
-6.47141e-10
3.50781e-10
-6.36432e-10
3.60751e-10
-6.25374e-10
3.72634e-10
-6.1399e-10
3.86364e-10
-6.02305e-10
4.01876e-10
-5.90342e-10
4.19106e-10
-5.78118e-10
-5.65636e-10
4.3797e-10
1.39323e-09
-1.73339e-10
1.38184e-09
-2.03955e-10
1.35422e-09
-2.00107e-10
1.3255e-09
-2.05355e-10
1.29523e-09
-2.16374e-10
1.26214e-09
-2.36714e-10
1.22264e-09
-2.64242e-10
1.17765e-09
-2.96208e-10
1.12939e-09
-3.30941e-10
1.07969e-09
-3.67091e-10
1.02984e-09
-4.0355e-10
9.80707e-10
-4.39429e-10
9.32766e-10
-4.74035e-10
8.86236e-10
-5.06853e-10
8.41179e-10
-5.37518e-10
7.97571e-10
-5.65767e-10
7.55358e-10
-5.91441e-10
7.14488e-10
-6.14464e-10
6.74927e-10
-6.34828e-10
6.36662e-10
-6.52587e-10
5.99702e-10
-6.67835e-10
5.64076e-10
-6.80707e-10
5.29827e-10
-6.91356e-10
4.97006e-10
-6.99954e-10
4.65674e-10
-7.06675e-10
4.35892e-10
-7.11695e-10
4.07721e-10
-7.1518e-10
3.81222e-10
-7.17288e-10
3.56451e-10
-7.18161e-10
3.33458e-10
-7.17928e-10
3.1229e-10
-7.167e-10
2.92985e-10
-7.14575e-10
2.75575e-10
-7.11637e-10
2.60084e-10
-7.07958e-10
2.46531e-10
-7.03598e-10
2.34927e-10
-6.98608e-10
2.25278e-10
-6.93031e-10
2.17582e-10
-6.86904e-10
2.11833e-10
-6.8026e-10
2.08022e-10
-6.73126e-10
2.06131e-10
-6.65529e-10
2.06143e-10
-6.5749e-10
2.08034e-10
-6.49032e-10
2.11777e-10
-6.40175e-10
2.17342e-10
-6.30939e-10
2.24697e-10
-6.21345e-10
2.33805e-10
-6.11414e-10
2.44628e-10
-6.01165e-10
2.57124e-10
-5.90614e-10
-5.79763e-10
2.71251e-10
6.15985e-10
-9.59543e-11
5.31825e-10
-1.19794e-10
4.66396e-10
-1.34677e-10
4.13114e-10
-1.52073e-10
3.72199e-10
-1.75459e-10
3.39753e-10
-2.04269e-10
3.12642e-10
-2.37131e-10
2.89149e-10
-2.72715e-10
2.68137e-10
-3.09928e-10
2.48846e-10
-3.478e-10
2.30761e-10
-3.85466e-10
2.13484e-10
-4.22151e-10
1.9669e-10
-4.57242e-10
1.80138e-10
-4.90301e-10
1.63655e-10
-5.21035e-10
1.4714e-10
-5.49251e-10
1.30536e-10
-5.74837e-10
1.13824e-10
-5.97752e-10
9.7012e-11
-6.18016e-10
8.01269e-11
-6.35702e-10
6.32152e-11
-6.50924e-10
4.63386e-11
-6.6383e-10
2.95729e-11
-6.7459e-10
1.30059e-11
-6.83387e-10
-3.26497e-12
-6.90404e-10
-1.91356e-11
-6.95824e-10
-3.44982e-11
-6.99818e-10
-4.9244e-11
-7.02542e-10
-6.32659e-11
-7.04139e-10
-7.64607e-11
-7.04733e-10
-8.8731e-11
-7.04429e-10
-9.99868e-11
-7.03319e-10
-1.10146e-10
-7.01478e-10
-1.19135e-10
-6.98969e-10
-1.2689e-10
-6.95844e-10
-1.33354e-10
-6.92144e-10
-1.38478e-10
-6.87907e-10
-1.42221e-10
-6.83161e-10
-1.44549e-10
-6.77932e-10
-1.45435e-10
-6.72241e-10
-1.44856e-10
-6.66108e-10
-1.42796e-10
-6.5955e-10
-1.39244e-10
-6.52585e-10
-1.34192e-10
-6.45227e-10
-1.27639e-10
-6.37492e-10
-1.19587e-10
-6.29397e-10
-1.10042e-10
-6.20959e-10
-9.90138e-11
-6.12193e-10
-8.65202e-11
-6.03107e-10
-5.93709e-10
-7.25745e-11
-5.05343e-11
-2.69837e-11
-1.21708e-10
-4.86209e-11
-1.83373e-10
-7.30122e-11
-2.32419e-10
-1.03026e-10
-2.686e-10
-1.39278e-10
-2.9387e-10
-1.78999e-10
-3.11476e-10
-2.19525e-10
-3.24324e-10
-2.59867e-10
-3.34242e-10
-3.00011e-10
-3.42369e-10
-3.39673e-10
-3.49325e-10
-3.7851e-10
-3.555e-10
-4.15976e-10
-3.61152e-10
-4.5159e-10
-3.66453e-10
-4.85e-10
-3.71533e-10
-5.15956e-10
-3.76508e-10
-5.44276e-10
-3.815e-10
-5.69846e-10
-3.8663e-10
-5.92622e-10
-3.92015e-10
-6.1263e-10
-3.97759e-10
-6.29958e-10
-4.03936e-10
-6.44746e-10
-4.10591e-10
-6.57175e-10
-4.17733e-10
-6.67448e-10
-4.25338e-10
-6.75782e-10
-4.33348e-10
-6.82393e-10
-4.41684e-10
-6.87489e-10
-4.50242e-10
-6.91259e-10
-4.58908e-10
-6.93876e-10
-4.67559e-10
-6.95488e-10
-4.7607e-10
-6.96222e-10
-4.84316e-10
-6.96183e-10
-4.92179e-10
-6.95457e-10
-4.99543e-10
-6.94114e-10
-5.06303e-10
-6.92209e-10
-5.12362e-10
-6.89785e-10