/*--------------------------------*- C++ -*----------------------------------*\
| =========                 |                                                 |
| \\      /  F ield         | OpenFOAM: The Open Source CFD Toolbox           |
|  \\    /   O peration     | Version:  2.4.0                                 |
|   \\  /    A nd           | Web:      www.OpenFOAM.org                      |
|    \\/     M anipulation  |                                                 |
\*---------------------------------------------------------------------------*/
FoamFile
{
    version     2.0;
    format      ascii;
    class       volVectorField;
    location    "5";
    object      U;
}
// * * * * * * * * * * * * * * * * * * * * * * * * * * * * * * * * * * * * * //

dimensions      [0 1 -1 0 0 0 0];

internalField   nonuniform List<vector> 
8000
(
(2.68955e-06 -0.000197895 0)
(3.3588e-05 -0.00053078 0)
(9.99134e-05 -0.000804769 0)
(0.000201921 -0.00102543 0)
(0.000331693 -0.00119569 0)
(0.000465735 -0.00131127 0)
(0.000580637 -0.00136177 0)
(0.00073135 -0.00134195 0)
(0.0011856 -0.0010606 0)
(0.00169565 -0.00105088 0)
(0.00219732 -0.00102243 0)
(0.00299519 -0.000941499 0)
(0.00395733 -0.000633663 0)
(0.00530111 -0.000115443 0)
(0.00708128 0.000579906 0)
(0.00920396 0.00194458 0)
(0.0110722 0.00665531 0)
(0.0114138 0.00770219 0)
(0.0106219 0.00896345 0)
(0.0101811 0.0146145 0)
(0.0102657 0.0190082 0)
(0.0107649 0.0233286 0)
(0.0115404 0.0291099 0)
(0.0126558 0.0340541 0)
(0.0135007 0.0300138 0)
(0.013897 0.0137683 0)
(0.0161422 0.00277697 0)
(0.018439 0.00165855 0)
(0.019297 0.00441791 0)
(0.0195475 0.00775178 0)
(0.019389 0.0107758 0)
(0.0189483 0.0123057 0)
(0.0187185 0.0101375 0)
(0.0187389 0.0035344 0)
(0.0188967 -0.00153198 0)
(0.0189813 0.000737928 0)
(0.0186004 -0.000278096 0)
(0.0181349 -0.00366138 0)
(0.0180956 -0.00762714 0)
(0.0186065 -0.0093534 0)
(0.0193462 -0.00380261 0)
(0.0197389 0.00944153 0)
(0.0196571 0.0316844 0)
(0.0194335 0.024212 0)
(0.0193557 0.0146167 0)
(0.0191359 0.00831141 0)
(0.018774 0.00364464 0)
(0.0183752 -0.0018871 0)
(0.0180281 -0.00895234 0)
(0.017704 -0.014845 0)
(3.42146e-07 -0.000257006 0)
(4.95006e-06 -0.000724831 0)
(1.59058e-05 -0.00114795 0)
(3.39389e-05 -0.00152844 0)
(5.95442e-05 -0.00186843 0)
(9.32319e-05 -0.00216985 0)
(0.00013616 -0.00243289 0)
(0.0001907 -0.00265784 0)
(0.000260164 -0.00284722 0)
(0.000341806 -0.00303502 0)
(0.000428435 -0.00320149 0)
(0.000519232 -0.0032783 0)
(0.000620856 -0.00322678 0)
(0.000740407 -0.00305915 0)
(0.000883103 -0.00277311 0)
(0.0010609 -0.00231404 0)
(0.00126905 -0.00159163 0)
(0.001475 -0.0011474 0)
(0.00175455 -0.000768156 0)
(0.00229444 -0.000356451 0)
(0.00317536 3.64333e-05 0)
(0.0043072 0.000489617 0)
(0.00564214 0.00109332 0)
(0.00718782 0.00206385 0)
(0.00880963 0.00403891 0)
(0.00998552 0.00592256 0)
(0.0103185 0.00475387 0)
(0.0102472 0.0106132 0)
(0.0100282 0.018954 0)
(0.00987847 0.0263859 0)
(0.0096808 0.0312474 0)
(0.00939581 0.0301569 0)
(0.0095189 0.0221192 0)
(0.0100386 0.0145494 0)
(0.010343 0.00989646 0)
(0.0103278 0.0101511 0)
(0.00923199 0.0191425 0)
(0.00796472 0.0152437 0)
(0.00780116 1.4664e-05 0)
(0.00709975 -0.0171967 0)
(0.00628261 -0.00870854 0)
(0.00635289 -0.00559682 0)
(0.00703444 -0.00365581 0)
(0.00802096 -0.00274137 0)
(0.00896848 -0.00195486 0)
(0.0101168 -0.00108093 0)
(0.0107883 -0.000951271 0)
(0.0110289 -0.0071903 0)
(0.0112876 -0.0140486 0)
(0.0113463 -0.0179479 0)
(-1.05882e-07 -0.000255852 0)
(-8.42221e-07 -0.000729672 0)
(-1.67912e-06 -0.00116619 0)
(-2.19675e-06 -0.00156596 0)
(-1.92109e-06 -0.00192948 0)
(-4.59302e-07 -0.0022573 0)
(2.52905e-06 -0.00255002 0)
(7.28274e-06 -0.00280821 0)
(1.39033e-05 -0.00303252 0)
(2.21097e-05 -0.00322367 0)
(3.17216e-05 -0.00338192 0)
(4.37651e-05 -0.00350723 0)
(6.0809e-05 -0.00360008 0)
(8.64265e-05 -0.00366225 0)
(0.000124915 -0.00369658 0)
(0.000181349 -0.00370721 0)
(0.000260299 -0.0037011 0)
(0.000361285 -0.00369106 0)
(0.000478396 -0.00368182 0)
(0.000606667 -0.00361862 0)
(0.00074468 -0.00347198 0)
(0.000893825 -0.00321596 0)
(0.00105991 -0.00283773 0)
(0.00124995 -0.00231335 0)
(0.00144758 -0.00164356 0)
(0.00160406 -0.00103721 0)
(0.00177211 -0.000556119 0)
(0.00214352 9.58616e-05 0)
(0.00288427 0.000837763 0)
(0.00400045 0.00168828 0)
(0.00536957 0.00285685 0)
(0.00683916 0.00363254 0)
(0.00815879 0.00250331 0)
(0.00904102 0.00109454 0)
(0.00951989 0.00527995 0)
(0.00973281 0.0128807 0)
(0.00981702 0.0160509 0)
(0.0102956 0.0132641 0)
(0.0108521 0.0101729 0)
(0.0105675 0.00807161 0)
(0.00918618 0.00875662 0)
(0.00809106 0.00815028 0)
(0.0075945 0.00410369 0)
(0.0073706 -0.00123009 0)
(0.00728853 -0.00955695 0)
(0.00719018 -0.0102955 0)
(0.00712095 -0.0104524 0)
(0.00696038 -0.0107935 0)
(0.00659778 -0.0114703 0)
(0.00590325 -0.0120379 0)
(-2.95119e-07 -0.000244187 0)
(-2.24987e-06 -0.000701297 0)
(-5.65189e-06 -0.00112728 0)
(-1.01064e-05 -0.00152236 0)
(-1.51729e-05 -0.00188674 0)
(-2.04518e-05 -0.0022207 0)
(-2.55737e-05 -0.00252452 0)
(-3.01826e-05 -0.00279845 0)
(-3.39354e-05 -0.0030427 0)
(-3.65049e-05 -0.00325747 0)
(-3.75724e-05 -0.00344291 0)
(-3.68125e-05 -0.0035992 0)
(-3.38994e-05 -0.00372659 0)
(-2.85394e-05 -0.00382545 0)
(-2.05151e-05 -0.00389631 0)
(-9.75866e-06 -0.00393987 0)
(3.5556e-06 -0.00395701 0)
(1.89058e-05 -0.0039487 0)
(3.57005e-05 -0.00391557 0)
(5.41196e-05 -0.00385778 0)
(7.56618e-05 -0.00377571 0)
(0.000103132 -0.00367024 0)
(0.000140385 -0.00354316 0)
(0.00019168 -0.00339758 0)
(0.000260308 -0.00323832 0)
(0.000346531 -0.00307124 0)
(0.000447746 -0.00289652 0)
(0.000563411 -0.00268324 0)
(0.000697333 -0.00240064 0)
(0.000853565 -0.00201985 0)
(0.00102041 -0.00151388 0)
(0.00113613 -0.00108689 0)
(0.00122151 -0.000759596 0)
(0.00131084 -0.000342552 0)
(0.00144741 0.000339299 0)
(0.00176339 0.00131451 0)
(0.00239574 0.0029082 0)
(0.00330973 0.00107232 0)
(0.00390957 0.00463619 0)
(0.00403753 0.0130096 0)
(0.00380054 0.0171683 0)
(0.00366375 0.0121728 0)
(0.00430919 0.00292668 0)
(0.0048876 0.000844172 0)
(0.00379763 0.0028026 0)
(0.0027639 0.00427338 0)
(0.00218984 0.00231326 0)
(0.00160332 0.000806012 0)
(0.000937628 -0.00154931 0)
(0.000397791 -0.00416995 0)
(-2.62081e-07 -0.000230664 0)
(-3.13423e-06 -0.000664681 0)
(-8.79388e-06 -0.0010716 0)
(-1.69271e-05 -0.00145169 0)
(-2.70866e-05 -0.00180518 0)
(-3.88563e-05 -0.00213236 0)
(-5.18563e-05 -0.00243356 0)
(-6.57147e-05 -0.00270907 0)
(-8.00614e-05 -0.00295913 0)
(-9.45284e-05 -0.00318396 0)
(-0.00010875 -0.00338379 0)
(-0.000122361 -0.0035588 0)
(-0.000135003 -0.00370919 0)
(-0.000146322 -0.00383513 0)
(-0.000155981 -0.00393681 0)
(-0.00016366 -0.00401438 0)
(-0.000169069 -0.00406797 0)
(-0.000171945 -0.00409768 0)
(-0.000172054 -0.00410356 0)
(-0.000169163 -0.00408562 0)
(-0.000163048 -0.00404386 0)
(-0.000153497 -0.00397839 0)
(-0.000140348 -0.00388939 0)
(-0.000123538 -0.00377721 0)
(-0.000103161 -0.00364229 0)
(-7.94944e-05 -0.00348511 0)
(-5.28117e-05 -0.00330595 0)
(-2.27546e-05 -0.00310484 0)
(1.21691e-05 -0.00288201 0)
(5.4261e-05 -0.00263853 0)
(0.000105421 -0.00237637 0)
(0.000165268 -0.00209795 0)
(0.000232135 -0.00180032 0)
(0.000306858 -0.00146809 0)
(0.000395418 -0.00106917 0)
(0.000494957 -0.000616718 0)
(0.000567576 -0.000108748 0)
(0.000606015 0.000132082 0)
(0.000733968 0.000697491 0)
(0.00109025 0.0015655 0)
(0.0017201 0.0023112 0)
(0.00258277 0.00230196 0)
(0.00311773 0.000463796 0)
(0.00302863 0.00783222 0)
(0.00260244 0.0115592 0)
(0.00235445 0.00954836 0)
(0.00272428 0.00430556 0)
(0.00303671 0.00350529 0)
(0.0027209 0.00361094 0)
(0.00250362 0.00277817 0)
(-6.26178e-07 -0.000201908 0)
(-5.42755e-06 -0.000584531 0)
(-1.46023e-05 -0.000946004 0)
(-2.76862e-05 -0.00128638 0)
(-4.41376e-05 -0.00160571 0)
(-6.34903e-05 -0.00190411 0)
(-8.53326e-05 -0.00218175 0)
(-0.000109265 -0.00243882 0)
(-0.000134895 -0.00267544 0)
(-0.000161832 -0.00289174 0)
(-0.000189694 -0.00308785 0)
(-0.000218105 -0.00326389 0)
(-0.000246694 -0.00341999 0)
(-0.000275095 -0.00355627 0)
(-0.000302946 -0.00367287 0)
(-0.000329886 -0.00376991 0)
(-0.00035556 -0.00384751 0)
(-0.000379611 -0.0039058 0)
(-0.000401682 -0.0039449 0)
(-0.000421414 -0.00396492 0)
(-0.000438442 -0.00396597 0)
(-0.000452401 -0.00394816 0)
(-0.000462925 -0.00391159 0)
(-0.000469654 -0.00385634 0)
(-0.000472238 -0.00378249 0)
(-0.000470337 -0.00369011 0)
(-0.000463618 -0.00357921 0)
(-0.000451745 -0.0034498 0)
(-0.000434377 -0.00330193 0)
(-0.000411197 -0.0031357 0)
(-0.00038193 -0.00295131 0)
(-0.000346369 -0.002749 0)
(-0.000304157 -0.00252889 0)
(-0.000254515 -0.00229101 0)
(-0.000196019 -0.00203559 0)
(-0.000127542 -0.00176356 0)
(-4.95117e-05 -0.00147589 0)
(3.6909e-05 -0.00117154 0)
(0.000133005 -0.000834958 0)
(0.000247487 -0.000420488 0)
(0.000371303 -9.83842e-05 0)
(0.000491534 0.000118825 0)
(0.000576278 0.000294292 0)
(0.000746566 0.000876951 0)
(0.00116333 0.00145697 0)
(0.00177279 0.00110904 0)
(0.00226478 0.000118426 0)
(0.00229012 0.00334576 0)
(0.00220273 0.00387777 0)
(0.00228703 0.00301425 0)
(-4.20781e-07 -0.000169255 0)
(-5.00595e-06 -0.00049215 0)
(-1.42482e-05 -0.000799353 0)
(-2.78253e-05 -0.00109077 0)
(-4.52366e-05 -0.0013663 0)
(-6.60362e-05 -0.00162596 0)
(-8.98332e-05 -0.00186984 0)
(-0.000116252 -0.00209802 0)
(-0.000144922 -0.00231057 0)
(-0.000175478 -0.00250755 0)
(-0.00020756 -0.00268899 0)
(-0.000240814 -0.00285498 0)
(-0.000274893 -0.00300557 0)
(-0.000309452 -0.00314083 0)
(-0.000344154 -0.00326086 0)
(-0.000378662 -0.00336573 0)
(-0.000412646 -0.00345554 0)
(-0.000445778 -0.0035304 0)
(-0.000477732 -0.0035904 0)
(-0.000508183 -0.00363567 0)
(-0.000536809 -0.00366633 0)
(-0.000563288 -0.00368251 0)
(-0.000587298 -0.00368435 0)
(-0.000608516 -0.00367199 0)
(-0.000626618 -0.00364561 0)
(-0.000641279 -0.00360535 0)
(-0.000652167 -0.0035514 0)
(-0.000658949 -0.00348394 0)
(-0.000661284 -0.00340317 0)
(-0.000658829 -0.00330927 0)
(-0.00065124 -0.00320246 0)
(-0.000638174 -0.00308297 0)
(-0.000619286 -0.002951 0)
(-0.000594229 -0.00280679 0)
(-0.000562656 -0.00265063 0)
(-0.000524232 -0.00248287 0)
(-0.000478588 -0.00230388 0)
(-0.000425205 -0.00211395 0)
(-0.000363307 -0.00191335 0)
(-0.000292418 -0.00170258 0)
(-0.000213813 -0.00148336 0)
(-0.00012976 -0.00125603 0)
(-4.02964e-05 -0.00100632 0)
(5.67272e-05 -0.000741965 0)
(0.000154666 -0.000424964 0)
(0.000241149 -0.000261095 0)
(0.000297995 -2.51353e-05 0)
(0.000371916 0.000360019 0)
(0.000596289 1.9438e-05 0)
(0.000869257 -0.000599337 0)
(-6.2029e-07 -0.000136122 0)
(-5.42987e-06 -0.000398033 0)
(-1.47318e-05 -0.000649421 0)
(-2.814e-05 -0.000890042 0)
(-4.51957e-05 -0.00111965 0)
(-6.55143e-05 -0.00133811 0)
(-8.87614e-05 -0.00154539 0)
(-0.000114614 -0.00174148 0)
(-0.000142751 -0.00192635 0)
(-0.000172858 -0.00209997 0)
(-0.000204623 -0.00226229 0)
(-0.000237742 -0.00241331 0)
(-0.000271913 -0.00255303 0)
(-0.00030684 -0.00268145 0)
(-0.000342232 -0.00279859 0)
(-0.0003778 -0.0029045 0)
(-0.000413258 -0.0029992 0)
(-0.000448324 -0.00308276 0)
(-0.00048272 -0.00315525 0)
(-0.000516168 -0.00321672 0)
(-0.000548394 -0.00326728 0)
(-0.000579126 -0.00330701 0)
(-0.000608093 -0.00333603 0)
(-0.000635026 -0.00335444 0)
(-0.000659657 -0.00336237 0)
(-0.000681719 -0.00335995 0)
(-0.000700945 -0.00334733 0)
(-0.000717071 -0.00332467 0)
(-0.000729828 -0.00329211 0)
(-0.000738952 -0.00324985 0)
(-0.000744175 -0.00319804 0)
(-0.000745229 -0.00313689 0)
(-0.000741844 -0.00306659 0)
(-0.000733748 -0.00298733 0)
(-0.000720667 -0.00289934 0)
(-0.000702326 -0.00280282 0)
(-0.000678448 -0.00269798 0)
(-0.000648755 -0.00258506 0)
(-0.000612968 -0.00246427 0)
(-0.000570811 -0.00233588 0)
(-0.000521998 -0.00220012 0)
(-0.000466177 -0.0020571 0)
(-0.000402859 -0.0019068 0)
(-0.000331791 -0.0017494 0)
(-0.000253047 -0.00158512 0)
(-0.000165905 -0.00141278 0)
(-6.35349e-05 -0.00121627 0)
(5.32954e-05 -0.00112101 0)
(0.00014575 -0.00119202 0)
(0.000206366 -0.00127666 0)
(-2.59099e-07 -0.000108271 0)
(-3.48442e-06 -0.000318496 0)
(-1.0116e-05 -0.000522149 0)
(-1.99786e-05 -0.000718911 0)
(-3.27499e-05 -0.00090846 0)
(-4.81403e-05 -0.0010906 0)
(-6.58953e-05 -0.00126523 0)
(-8.57697e-05 -0.00143229 0)
(-0.00010752 -0.0015917 0)
(-0.000130903 -0.00174336 0)
(-0.000155679 -0.0018872 0)
(-0.000181613 -0.00202316 0)
(-0.000208469 -0.00215118 0)
(-0.000236015 -0.00227124 0)
(-0.000264022 -0.00238333 0)
(-0.000292263 -0.00248744 0)
(-0.000320512 -0.00258359 0)
(-0.000348548 -0.0026718 0)
(-0.000376149 -0.00275211 0)
(-0.000403097 -0.00282458 0)
(-0.000429174 -0.00288929 0)
(-0.000454165 -0.0029463 0)
(-0.000477858 -0.00299573 0)
(-0.00050004 -0.00303769 0)
(-0.000520502 -0.00307231 0)
(-0.000539034 -0.00309972 0)
(-0.000555431 -0.0031201 0)
(-0.000569484 -0.00313362 0)
(-0.000580991 -0.00314048 0)
(-0.000589748 -0.00314089 0)
(-0.000595552 -0.00313508 0)
(-0.000598202 -0.00312331 0)
(-0.000597499 -0.00310584 0)
(-0.000593242 -0.00308298 0)
(-0.000585232 -0.00305506 0)
(-0.000573273 -0.0030224 0)
(-0.000557165 -0.0029854 0)
(-0.000536712 -0.00294445 0)
(-0.000511716 -0.00290001 0)
(-0.000481981 -0.00285254 0)
(-0.000447309 -0.00280256 0)
(-0.000407506 -0.00275065 0)
(-0.000362364 -0.00269741 0)
(-0.000311644 -0.00264353 0)
(-0.000255045 -0.00258974 0)
(-0.000192374 -0.00253681 0)
(-0.00012389 -0.00248569 0)
(-5.08073e-05 -0.00243801 0)
(2.50778e-05 -0.00239433 0)
(9.70868e-05 -0.00239384 0)
(-3.66964e-07 -8.86748e-05 0)
(-2.90444e-06 -0.000262393 0)
(-7.74679e-06 -0.000432198 0)
(-1.46924e-05 -0.000597742 0)
(-2.35274e-05 -0.000758672 0)
(-3.40752e-05 -0.000914761 0)
(-4.61798e-05 -0.00106591 0)
(-5.96852e-05 -0.00121203 0)
(-7.44329e-05 -0.00135302 0)
(-9.02633e-05 -0.00148877 0)
(-0.000107017 -0.00161919 0)
(-0.000124533 -0.00174419 0)
(-0.000142654 -0.00186371 0)
(-0.00016122 -0.0019777 0)
(-0.000180073 -0.00208613 0)
(-0.000199055 -0.00218895 0)
(-0.00021801 -0.00228618 0)
(-0.000236784 -0.0023778 0)
(-0.000255221 -0.00246384 0)
(-0.00027317 -0.00254431 0)
(-0.00029048 -0.00261926 0)
(-0.000307002 -0.00268874 0)
(-0.00032259 -0.00275281 0)
(-0.000337098 -0.00281155 0)
(-0.000350386 -0.00286503 0)
(-0.000362314 -0.00291337 0)
(-0.000372747 -0.00295666 0)
(-0.000381551 -0.00299504 0)
(-0.000388599 -0.00302862 0)
(-0.000393765 -0.00305756 0)
(-0.000396929 -0.00308201 0)
(-0.000397977 -0.00310212 0)
(-0.000396799 -0.00311808 0)
(-0.000393291 -0.00313006 0)
(-0.000387356 -0.00313826 0)
(-0.000378907 -0.00314288 0)
(-0.000367861 -0.00314413 0)
(-0.000354148 -0.00314222 0)
(-0.000337707 -0.00313738 0)
(-0.000318488 -0.00312985 0)
(-0.000296454 -0.00311985 0)
(-0.000271585 -0.00310762 0)
(-0.000243875 -0.00309341 0)
(-0.000213337 -0.00307746 0)
(-0.000179997 -0.00306 0)
(-0.000143909 -0.00304127 0)
(-0.000105172 -0.0030215 0)
(-6.40128e-05 -0.00300092 0)
(-2.07611e-05 -0.00297963 0)
(2.43942e-05 -0.00295762 0)
(1.9058e-09 -7.81322e-05 0)
(-9.38913e-07 -0.000231876 0)
(-3.06452e-06 -0.000382892 0)
(-6.36387e-06 -0.000530897 0)
(-1.07351e-05 -0.000675588 0)
(-1.60748e-05 -0.000816782 0)
(-2.22894e-05 -0.000954421 0)
(-2.92873e-05 -0.00108846 0)
(-3.69752e-05 -0.00121883 0)
(-4.52585e-05 -0.00134545 0)
(-5.40415e-05 -0.00146823 0)
(-6.32276e-05 -0.00158712 0)
(-7.27202e-05 -0.00170205 0)
(-8.24218e-05 -0.00181299 0)
(-9.22351e-05 -0.0019199 0)
(-0.000102063 -0.00202275 0)
(-0.000111807 -0.00212154 0)
(-0.000121371 -0.00221625 0)
(-0.000130658 -0.0023069 0)
(-0.000139572 -0.00239349 0)
(-0.000148019 -0.00247606 0)
(-0.000155903 -0.00255464 0)
(-0.000163132 -0.00262927 0)
(-0.000169615 -0.0027 0)
(-0.00017526 -0.0027669 0)
(-0.00017998 -0.00283004 0)
(-0.000183687 -0.0028895 0)
(-0.000186296 -0.00294536 0)
(-0.000187726 -0.00299773 0)
(-0.000187894 -0.00304671 0)
(-0.000186723 -0.0030924 0)
(-0.000184137 -0.00313494 0)
(-0.000180064 -0.00317446 0)
(-0.000174431 -0.00321107 0)
(-0.000167173 -0.00324494 0)
(-0.000158225 -0.0032762 0)
(-0.000147523 -0.00330501 0)
(-0.000135011 -0.00333154 0)
(-0.000120631 -0.00335593 0)
(-0.000104332 -0.00337838 0)
(-8.60615e-05 -0.00339904 0)
(-6.57726e-05 -0.00341811 0)
(-4.34193e-05 -0.00343575 0)
(-1.89575e-05 -0.00345216 0)
(7.65429e-06 -0.00346751 0)
(3.64543e-05 -0.003482 0)
(6.74823e-05 -0.00349579 0)
(0.00010079 -0.00350908 0)
(0.000136516 -0.00352213 0)
(0.00017478 -0.00353498 0)
(-1.81813e-07 -7.16763e-05 0)
(-8.63945e-07 -0.000213518 0)
(-1.97e-06 -0.000353606 0)
(-3.41065e-06 -0.000491627 0)
(-5.14736e-06 -0.000627254 0)
(-7.15487e-06 -0.000760286 0)
(-9.40901e-06 -0.000890661 0)
(-1.18807e-05 -0.00101834 0)
(-1.4537e-05 -0.00114324 0)
(-1.73422e-05 -0.00126529 0)
(-2.02587e-05 -0.0013844 0)
(-2.32468e-05 -0.00150051 0)
(-2.62654e-05 -0.00161357 0)
(-2.92717e-05 -0.00172352 0)
(-3.22218e-05 -0.00183035 0)
(-3.50709e-05 -0.00193402 0)
(-3.77731e-05 -0.00203451 0)
(-4.02824e-05 -0.00213182 0)
(-4.2552e-05 -0.00222595 0)
(-4.45355e-05 -0.00231691 0)
(-4.6186e-05 -0.0024047 0)
(-4.74572e-05 -0.00248937 0)
(-4.83032e-05 -0.00257093 0)
(-4.86788e-05 -0.00264944 0)
(-4.85396e-05 -0.00272493 0)
(-4.78422e-05 -0.00279747 0)
(-4.65448e-05 -0.00286711 0)
(-4.46066e-05 -0.00293393 0)
(-4.19889e-05 -0.002998 0)
(-3.86548e-05 -0.00305941 0)
(-3.45692e-05 -0.00311825 0)
(-2.96999e-05 -0.00317462 0)
(-2.40169e-05 -0.00322862 0)
(-1.74931e-05 -0.00328038 0)
(-1.01046e-05 -0.00333001 0)
(-1.83094e-06 -0.00337763 0)
(7.34496e-06 -0.0034234 0)
(1.74358e-05 -0.00346744 0)
(2.84503e-05 -0.00350992 0)
(4.03919e-05 -0.00355099 0)
(5.32599e-05 -0.00359082 0)
(6.70474e-05 -0.00362961 0)
(8.17425e-05 -0.00366753 0)
(9.7322e-05 -0.00370478 0)
(0.000113746 -0.00374159 0)
(0.000130965 -0.00377817 0)
(0.000148999 -0.00381474 0)
(0.000168105 -0.0038515 0)
(0.000188584 -0.00388879 0)
(0.000208941 -0.00392751 0)
(1.85904e-07 -7.37428e-05 0)
(7.13982e-07 -0.000218988 0)
(1.46303e-06 -0.00036188 0)
(2.34155e-06 -0.000502226 0)
(3.32212e-06 -0.000639801 0)
(4.4007e-06 -0.000774497 0)
(5.57608e-06 -0.000906347 0)
(6.84737e-06 -0.00103539 0)
(8.21521e-06 -0.00116161 0)
(9.68172e-06 -0.001285 0)
(1.12508e-05 -0.00140552 0)
(1.29277e-05 -0.00152316 0)
(1.47192e-05 -0.00163789 0)
(1.66332e-05 -0.00174971 0)
(1.86789e-05 -0.0018586 0)
(2.08663e-05 -0.00196458 0)
(2.32064e-05 -0.00206764 0)
(2.57108e-05 -0.00216779 0)
(2.8392e-05 -0.00226504 0)
(3.12627e-05 -0.0023594 0)
(3.43362e-05 -0.0024509 0)
(3.76257e-05 -0.00253957 0)
(4.11449e-05 -0.00262542 0)
(4.49072e-05 -0.0027085 0)
(4.8926e-05 -0.00278885 0)
(5.32143e-05 -0.0028665 0)
(5.77849e-05 -0.0029415 0)
(6.26499e-05 -0.00301391 0)
(6.78208e-05 -0.00308376 0)
(7.33084e-05 -0.00315113 0)
(7.91226e-05 -0.00321606 0)
(8.52723e-05 -0.00327861 0)
(9.17651e-05 -0.00333885 0)
(9.86075e-05 -0.00339683 0)
(0.000105804 -0.00345262 0)
(0.000113359 -0.00350628 0)
(0.000121274 -0.00355786 0)
(0.000129548 -0.00360743 0)
(0.000138179 -0.00365503 0)
(0.000147163 -0.00370071 0)
(0.000156494 -0.00374451 0)
(0.000166161 -0.00378646 0)
(0.000176138 -0.0038266 0)
(0.000186383 -0.00386491 0)
(0.000196892 -0.00390139 0)
(0.000207911 -0.00393596 0)
(0.00022004 -0.00396855 0)
(0.000232831 -0.00399923 0)
(0.000239642 -0.00402914 0)
(0.000219298 -0.00406094 0)
(-1.32541e-07 -7.33991e-05 0)
(-4.65158e-08 -0.000218421 0)
(4.60953e-07 -0.000361453 0)
(1.44406e-06 -0.000502222 0)
(2.86069e-06 -0.000640432 0)
(4.66181e-06 -0.000775924 0)
(6.80421e-06 -0.000908693 0)
(9.2507e-06 -0.00103875 0)
(1.19675e-05 -0.00116607 0)
(1.49227e-05 -0.00129061 0)
(1.80861e-05 -0.00141233 0)
(2.14294e-05 -0.0015312 0)
(2.49258e-05 -0.0016472 0)
(2.85502e-05 -0.00176032 0)
(3.22786e-05 -0.00187054 0)
(3.60888e-05 -0.00197787 0)
(3.99593e-05 -0.0020823 0)
(4.38699e-05 -0.00218385 0)
(4.78014e-05 -0.00228254 0)
(5.17356e-05 -0.00237837 0)
(5.56549e-05 -0.00247138 0)
(5.95429e-05 -0.00256159 0)
(6.33837e-05 -0.00264904 0)
(6.71622e-05 -0.00273377 0)
(7.08641e-05 -0.0028158 0)
(7.4476e-05 -0.00289521 0)
(7.7985e-05 -0.00297202 0)
(8.13795e-05 -0.00304631 0)
(8.46487e-05 -0.00311813 0)
(8.77831e-05 -0.00318754 0)
(9.07744e-05 -0.00325461 0)
(9.36161e-05 -0.00331942 0)
(9.63036e-05 -0.00338203 0)
(9.88347e-05 -0.00344254 0)
(0.00010121 -0.00350101 0)
(0.000103433 -0.00355754 0)
(0.000105513 -0.00361222 0)
(0.000107462 -0.00366514 0)
(0.0001093 -0.0037164 0)
(0.000111056 -0.0037661 0)
(0.000112755 -0.00381433 0)
(0.000114425 -0.00386119 0)
(0.00011607 -0.0039068 0)
(0.000117819 -0.00395121 0)
(0.000120436 -0.00399454 0)
(0.000124963 -0.0040369 0)
(0.000129737 -0.00407881 0)
(0.00011975 -0.00412157 0)
(6.90625e-05 -0.00409971 0)
(1.39804e-05 -0.00407228 0)
(2.84882e-07 -8.11909e-05 0)
(1.30643e-06 -0.000240016 0)
(2.93715e-06 -0.000395253 0)
(5.03279e-06 -0.000546784 0)
(7.52476e-06 -0.000694449 0)
(1.03754e-05 -0.000838203 0)
(1.35498e-05 -0.000978152 0)
(1.70104e-05 -0.0011144 0)
(2.0718e-05 -0.00124701 0)
(2.4633e-05 -0.001376 0)
(2.87157e-05 -0.00150139 0)
(3.29265e-05 -0.0016232 0)
(3.7226e-05 -0.00174146 0)
(4.15752e-05 -0.00185619 0)
(4.59354e-05 -0.00196743 0)
(5.02687e-05 -0.00207519 0)
(5.45375e-05 -0.00217951 0)
(5.87048e-05 -0.00228043 0)
(6.27342e-05 -0.00237798 0)
(6.65899e-05 -0.00247219 0)
(7.02364e-05 -0.00256312 0)
(7.36386e-05 -0.0026508 0)
(7.67618e-05 -0.00273529 0)
(7.95714e-05 -0.00281664 0)
(8.20328e-05 -0.0028949 0)
(8.41113e-05 -0.00297014 0)
(8.5772e-05 -0.00304242 0)
(8.69793e-05 -0.00311183 0)
(8.7697e-05 -0.00317843 0)
(8.78878e-05 -0.00324232 0)
(8.75132e-05 -0.0033036 0)
(8.6533e-05 -0.00336236 0)
(8.49052e-05 -0.00341872 0)
(8.25852e-05 -0.00347281 0)
(7.95259e-05 -0.00352476 0)
(7.56764e-05 -0.00357474 0)
(7.09828e-05 -0.00362292 0)
(6.53862e-05 -0.00366948 0)
(5.88233e-05 -0.00371463 0)
(5.12155e-05 -0.00375862 0)
(4.24657e-05 -0.00380169 0)
(3.24716e-05 -0.00384413 0)
(2.12668e-05 -0.00388628 0)
(9.26195e-06 -0.00392849 0)
(-3.16808e-06 -0.00397137 0)
(-1.95531e-05 -0.00401618 0)
(-5.50151e-05 -0.00406551 0)
(-0.000113366 -0.00411383 0)
(-0.000166127 -0.00408079 0)
(-0.000190802 -0.00398547 0)
(-1.70558e-07 -7.97394e-05 0)
(1.90805e-07 -0.000236767 0)
(1.38174e-06 -0.000391037 0)
(3.44998e-06 -0.000542207 0)
(6.29293e-06 -0.00068992 0)
(9.79778e-06 -0.000833976 0)
(1.38624e-05 -0.000974348 0)
(1.83936e-05 -0.00111104 0)
(2.33029e-05 -0.00124402 0)
(2.85049e-05 -0.00137323 0)
(3.39175e-05 -0.00149864 0)
(3.94622e-05 -0.00162021 0)
(4.50641e-05 -0.00173794 0)
(5.06514e-05 -0.00185181 0)
(5.61559e-05 -0.00196184 0)
(6.15124e-05 -0.00206804 0)
(6.66586e-05 -0.00217042 0)
(7.15351e-05 -0.002269 0)
(7.60853e-05 -0.00236382 0)
(8.02546e-05 -0.00245491 0)
(8.39907e-05 -0.00254229 0)
(8.72431e-05 -0.00262601 0)
(8.99626e-05 -0.0027061 0)
(9.21015e-05 -0.00278261 0)
(9.36127e-05 -0.00285558 0)
(9.44495e-05 -0.00292505 0)
(9.45653e-05 -0.00299106 0)
(9.39132e-05 -0.00305366 0)
(9.24453e-05 -0.00311287 0)
(9.01125e-05 -0.00316873 0)
(8.68636e-05 -0.00322129 0)
(8.26451e-05 -0.00327055 0)
(7.74004e-05 -0.00331656 0)
(7.10691e-05 -0.00335931 0)
(6.35863e-05 -0.00339883 0)
(5.48814e-05 -0.0034351 0)
(4.48808e-05 -0.0034681 0)
(3.34958e-05 -0.00349781 0)
(2.06236e-05 -0.00352417 0)
(6.12355e-06 -0.0035471 0)
(-1.01324e-05 -0.0035665 0)
(-2.78747e-05 -0.00358229 0)
(-4.63949e-05 -0.00359441 0)
(-6.59999e-05 -0.00360287 0)
(-9.54498e-05 -0.00360795 0)
(-0.000160774 -0.00360963 0)
(-0.000240962 -0.0036089 0)
(-0.000304948 -0.00360814 0)
(-0.000379067 -0.0036013 0)
(-0.000642012 -0.00357904 0)
(4.39423e-07 -9.54886e-05 0)
(1.88361e-06 -0.000280029 0)
(4.1006e-06 -0.000458232 0)
(6.85022e-06 -0.000630082 0)
(1.00122e-05 -0.000795499 0)
(1.3495e-05 -0.000954529 0)
(1.72017e-05 -0.00110737 0)
(2.10228e-05 -0.00125423 0)
(2.48422e-05 -0.00139524 0)
(2.85411e-05 -0.00153054 0)
(3.20002e-05 -0.00166022 0)
(3.51015e-05 -0.0017844 0)
(3.77291e-05 -0.00190318 0)
(3.97698e-05 -0.00201668 0)
(4.11141e-05 -0.00212501 0)
(4.16563e-05 -0.00222827 0)
(4.12944e-05 -0.00232656 0)
(3.99305e-05 -0.00241999 0)
(3.74702e-05 -0.00250865 0)
(3.38231e-05 -0.00259263 0)
(2.89017e-05 -0.00267203 0)
(2.2622e-05 -0.00274694 0)
(1.49025e-05 -0.00281742 0)
(5.66422e-06 -0.00288357 0)
(-5.16939e-06 -0.00294545 0)
(-1.76728e-05 -0.00300313 0)
(-3.19186e-05 -0.00305668 0)
(-4.79771e-05 -0.00310614 0)
(-6.59165e-05 -0.00315157 0)
(-8.58024e-05 -0.00319302 0)
(-0.000107697 -0.00323052 0)
(-0.00013166 -0.00326411 0)
(-0.000157743 -0.00329382 0)
(-0.000185995 -0.00331966 0)
(-0.000216453 -0.00334164 0)
(-0.000249145 -0.00335977 0)
(-0.000284088 -0.00337404 0)
(-0.000321286 -0.00338442 0)
(-0.000360736 -0.00339086 0)
(-0.000402388 -0.00339333 0)
(-0.000445912 -0.00339184 0)
(-0.000490707 -0.00338644 0)
(-0.000536909 -0.00337729 0)
(-0.000589987 -0.00336388 0)
(-0.00066317 -0.00334478 0)
(-0.000743001 -0.00331992 0)
(-0.000814437 -0.00328398 0)
(-0.000896034 -0.00312388 0)
(-0.00104553 0.000787772 0)
(-0.000984088 0.0018319 0)
(-1.56532e-07 -8.66912e-05 0)
(2.15253e-06 -0.000257514 0)
(7.15509e-06 -0.000424696 0)
(1.45489e-05 -0.000587216 0)
(2.3689e-05 -0.00074422 0)
(3.39862e-05 -0.000895149 0)
(4.49573e-05 -0.00103973 0)
(5.61945e-05 -0.00117779 0)
(6.73454e-05 -0.0013092 0)
(7.8107e-05 -0.00143389 0)
(8.8221e-05 -0.0015518 0)
(9.74705e-05 -0.00166295 0)
(0.000105675 -0.0017674 0)
(0.000112686 -0.0018652 0)
(0.000118384 -0.00195647 0)
(0.000122676 -0.0020413 0)
(0.000125488 -0.00211982 0)
(0.000126766 -0.00219213 0)
(0.000126472 -0.00225836 0)
(0.000124581 -0.00231863 0)
(0.000121078 -0.00237305 0)
(0.000115957 -0.00242173 0)
(0.000109216 -0.00246478 0)
(0.000100858 -0.0025023 0)
(9.08854e-05 -0.00253439 0)
(7.93011e-05 -0.00256114 0)
(6.61036e-05 -0.00258264 0)
(5.12861e-05 -0.002599 0)
(3.4834e-05 -0.00261031 0)
(1.67224e-05 -0.00261667 0)
(-3.08633e-06 -0.00261822 0)
(-2.46448e-05 -0.00261509 0)
(-4.80234e-05 -0.00260745 0)
(-7.3313e-05 -0.0025955 0)
(-0.000100628 -0.00257948 0)
(-0.000130106 -0.0025597 0)
(-0.000161919 -0.00253652 0)
(-0.000196268 -0.00251038 0)
(-0.000233413 -0.00248181 0)
(-0.00027366 -0.00245146 0)
(-0.000317249 -0.00242021 0)
(-0.000364155 -0.00238923 0)
(-0.000414115 -0.00236001 0)
(-0.000469636 -0.00233428 0)
(-0.000542509 -0.00231189 0)
(-0.000646364 -0.00229296 0)
(-0.000751409 -0.00227617 0)
(-0.000818496 -0.00229229 0)
(-0.0010229 -0.00339484 0)
(-0.0005951 -0.00323638 0)
(2.29405e-06 -0.000148989 0)
(1.44452e-05 -0.000416986 0)
(3.42334e-05 -0.000660174 0)
(5.92743e-05 -0.000880732 0)
(8.75759e-05 -0.0010806 0)
(0.000117698 -0.00126161 0)
(0.000148582 -0.00142554 0)
(0.000179395 -0.00157405 0)
(0.000209487 -0.00170859 0)
(0.000238362 -0.00183047 0)
(0.000265653 -0.00194088 0)
(0.000291101 -0.00204089 0)
(0.000314538 -0.00213147 0)
(0.000335864 -0.00221348 0)
(0.00035504 -0.00228771 0)
(0.000372073 -0.00235485 0)
(0.000387009 -0.0024155 0)
(0.000399922 -0.00247019 0)
(0.000410907 -0.00251938 0)
(0.000420078 -0.00256345 0)
(0.000427557 -0.00260273 0)
(0.000433472 -0.00263748 0)
(0.000437952 -0.00266787 0)
(0.000441123 -0.00269406 0)
(0.000443101 -0.00271611 0)
(0.000443988 -0.00273404 0)
(0.000443867 -0.00274779 0)
(0.000442796 -0.00275726 0)
(0.000440802 -0.00276228 0)
(0.000437868 -0.0027626 0)
(0.00043393 -0.00275793 0)
(0.000428861 -0.0027479 0)
(0.000422461 -0.00273205 0)
(0.000414435 -0.00270988 0)
(0.000404385 -0.00268077 0)
(0.000391769 -0.00264407 0)
(0.0003759 -0.00259897 0)
(0.000355884 -0.0025446 0)
(0.000330586 -0.00247994 0)
(0.000298642 -0.00240384 0)
(0.000258298 -0.00231517 0)
(0.000207834 -0.0022128 0)
(0.000144435 -0.00209639 0)
(6.32946e-05 -0.00196566 0)
(-4.61994e-05 -0.00181868 0)
(-0.000189936 -0.00165239 0)
(-0.000339088 -0.00142092 0)
(-0.000504335 -0.00157961 0)
(-0.000664878 -0.00442031 0)
(-0.00105829 -0.00418819 0)
(6.93114e-05 -0.000227188 0)
(0.000199332 -0.000609536 0)
(0.000302212 -0.000928772 0)
(0.000382395 -0.00119547 0)
(0.000444088 -0.00141832 0)
(0.000490222 -0.00160454 0)
(0.000522838 -0.00176017 0)
(0.000543625 -0.00189028 0)
(0.00055407 -0.00199912 0)
(0.000555472 -0.00209022 0)
(0.000548954 -0.00216654 0)
(0.000535486 -0.00223057 0)
(0.000515905 -0.00228435 0)
(0.000490937 -0.00232962 0)
(0.000461215 -0.0023678 0)
(0.00042729 -0.00240004 0)
(0.000389644 -0.00242732 0)
(0.000348704 -0.0024504 0)
(0.00030485 -0.00246987 0)
(0.000258424 -0.00248619 0)
(0.00020974 -0.00249967 0)
(0.000159087 -0.0025105 0)
(0.000106745 -0.00251875 0)
(5.29825e-05 -0.00252435 0)
(-1.92793e-06 -0.00252712 0)
(-5.77069e-05 -0.00252673 0)
(-0.000114058 -0.00252271 0)
(-0.000170662 -0.00251443 0)
(-0.000227162 -0.00250107 0)
(-0.000283158 -0.0024816 0)
(-0.000338196 -0.00245471 0)
(-0.000391747 -0.00241885 0)
(-0.000443205 -0.00237208 0)
(-0.000491845 -0.00231207 0)
(-0.000536842 -0.00223601 0)
(-0.000577198 -0.00214049 0)
(-0.000611748 -0.00202147 0)
(-0.000639166 -0.00187404 0)
(-0.000657686 -0.00169236 0)
(-0.00066571 -0.00146937 0)
(-0.000660339 -0.00119631 0)
(-0.000639767 -0.000862986 0)
(-0.000600272 -0.000455496 0)
(-0.000538399 4.0221e-05 0)
(-0.000451569 0.000641574 0)
(-0.000310689 0.00137067 0)
(-0.000137794 0.00222184 0)
(1.43048e-05 0.00292894 0)
(0.000144648 0.0038273 0)
(0.000204274 0.00588197 0)
(0.0174044 -0.018611 0)
(0.0171894 -0.0209431 0)
(0.0169833 -0.0223282 0)
(0.0167439 -0.0237417 0)
(0.0164502 -0.025377 0)
(0.016016 -0.0281126 0)
(0.0154448 -0.0323246 0)
(0.0148427 -0.0367903 0)
(0.0141772 -0.04108 0)
(0.0134629 -0.0451355 0)
(0.0127297 -0.0489424 0)
(0.0119984 -0.0524956 0)
(0.0112808 -0.0557971 0)
(0.0105853 -0.0588498 0)
(0.00991781 -0.0616528 0)
(0.0092821 -0.0642024 0)
(0.00868005 -0.0664941 0)
(0.00811225 -0.0685251 0)
(0.0075785 -0.0702952 0)
(0.00707806 -0.0718083 0)
(0.00660998 -0.0730716 0)
(0.00617315 -0.0740962 0)
(0.00576645 -0.0748956 0)
(0.00538879 -0.0754854 0)
(0.00503915 -0.0758823 0)
(0.00471657 -0.0761032 0)
(0.00442017 -0.0761648 0)
(0.00414913 -0.0760828 0)
(0.00390274 -0.0758721 0)
(0.00368029 -0.0755459 0)
(0.00348116 -0.0751162 0)
(0.00330476 -0.0745937 0)
(0.00315053 -0.0739876 0)
(0.00301794 -0.0733058 0)
(0.00290646 -0.0725553 0)
(0.00281558 -0.0717421 0)
(0.00274481 -0.0708712 0)
(0.00269364 -0.0699472 0)
(0.00266158 -0.068974 0)
(0.00264812 -0.0679549 0)
(0.00265276 -0.0668931 0)
(0.00267501 -0.0657915 0)
(0.00271434 -0.0646527 0)
(0.00277026 -0.0634792 0)