/*--------------------------------*- C++ -*----------------------------------*\
| =========                 |                                                 |
| \\      /  F ield         | OpenFOAM: The Open Source CFD Toolbox           |
|  \\    /   O peration     | Version:  2.4.0                                 |
|   \\  /    A nd           | Web:      www.OpenFOAM.org                      |
|    \\/     M anipulation  |                                                 |
\*---------------------------------------------------------------------------*/
FoamFile
{
    version     2.0;
    format      ascii;
    class       volScalarField;
    location    "3.4";
    object      p;
}
// * * * * * * * * * * * * * * * * * * * * * * * * * * * * * * * * * * * * * //

dimensions      [1 -1 -2 0 0 0 0];

internalField   nonuniform List<scalar> 
8000
(
1.06245
1.0422
1.02418
1.00992
0.998066
0.987779
0.97879
0.970966
0.964183
0.958312
0.95324
0.948873
0.945127
0.941941
0.939254
0.937043
0.935286
0.933992
0.932964
0.931706
0.930073
0.932462
0.952502
0.992758
0.941534
0.451565
-0.52035
-0.233867
-0.0207889
-0.00854353
-0.00831475
-0.00838696
-0.00842609
-0.00843414
-0.00842981
-0.00841959
-0.00840512
-0.00838642
-0.00836396
-0.00833828
-0.00830989
-0.00827933
-0.00824709
-0.0082136
-0.00817923
-0.00814429
-0.00810864
-0.00807304
-0.00804194
-0.00800894
0.0548143
0.0390884
0.0206689
0.00387046
-0.0108555
-0.0238979
-0.0355068
-0.0457479
-0.0546712
-0.0622965
-0.0686754
-0.0738173
-0.0777679
-0.0805195
-0.0821128
-0.0825129
-0.0817467
-0.0797927
-0.076905
-0.0733985
-0.0686899
-0.0575264
-0.0304945
-0.00391688
-0.106805
-0.573082
-1.15882
-0.112114
-0.0345644
-0.0337833
-0.0337425
-0.0338041
-0.033842
-0.0338621
-0.0338794
-0.0338952
-0.0339099
-0.033923
-0.0339352
-0.0339467
-0.0339573
-0.0339675
-0.0339772
-0.0339867
-0.0339962
-0.0340057
-0.0340153
-0.0340229
-0.0340353
-0.0340478
0.417125
0.40756
0.397853
0.388737
0.379824
0.370886
0.361903
0.352887
0.343854
0.334794
0.325716
0.316596
0.307446
0.298233
0.288988
0.279686
0.270369
0.260747
0.250207
0.238571
0.231524
0.245954
0.283421
0.200415
-0.435202
-1.64554
-0.656464
-0.0731945
-0.0539948
-0.0536119
-0.0536978
-0.0537372
-0.0537408
-0.0537345
-0.0537273
-0.0537187
-0.0537071
-0.053692
-0.0536746
-0.0536548
-0.0536326
-0.0536081
-0.0535816
-0.0535531
-0.0535227
-0.0534905
-0.0534565
-0.0534184
-0.0533819
-0.053345
-0.122338
-0.131596
-0.142511
-0.153111
-0.163219
-0.173008
-0.182538
-0.191817
-0.200826
-0.20957
-0.218039
-0.226246
-0.234187
-0.241871
-0.249282
-0.256428
-0.263446
-0.270801
-0.278681
-0.283778
-0.274896
-0.248011
-0.288192
-0.678695
-1.51227
-0.859941
-0.091166
-0.0777908
-0.0774765
-0.0774996
-0.0775522
-0.0775753
-0.0775829
-0.0775861
-0.077587
-0.0775854
-0.0775812
-0.0775739
-0.0775645
-0.0775532
-0.0775397
-0.0775244
-0.0775073
-0.0774886
-0.0774683
-0.0774464
-0.0774229
-0.0773971
-0.0773705
-0.0773456
-0.118402
-0.129576
-0.141609
-0.152898
-0.163634
-0.174046
-0.184218
-0.194121
-0.203768
-0.213134
-0.222248
-0.231086
-0.239679
-0.247981
-0.256028
-0.263884
-0.271988
-0.280535
-0.286984
-0.281576
-0.25852
-0.284283
-0.604152
-1.36222
-1.04597
-0.153021
-0.100415
-0.0995838
-0.0995911
-0.0996381
-0.0996525
-0.0996514
-0.0996473
-0.099642
-0.0996346
-0.0996249
-0.0996135
-0.0996005
-0.0995858
-0.0995697
-0.0995523
-0.0995337
-0.0995141
-0.0994934
-0.0994719
-0.0994496
-0.0994264
-0.0994019
-0.0993775
-0.0993561
-0.447024
-0.460225
-0.474706
-0.488203
-0.500752
-0.512673
-0.524039
-0.534881
-0.545169
-0.554938
-0.564164
-0.572891
-0.581073
-0.588755
-0.596003
-0.603264
-0.610736
-0.615874
-0.608872
-0.583947
-0.60822
-0.929233
-1.68969
-1.26708
-0.168597
-0.123954
-0.123435
-0.123439
-0.123485
-0.123503
-0.123504
-0.123502
-0.123499
-0.123494
-0.123487
-0.123479
-0.123469
-0.123458
-0.123447
-0.123434
-0.123421
-0.123407
-0.123393
-0.123379
-0.123365
-0.12335
-0.123336
-0.12332
-0.123307
-0.123296
-0.79559
-0.81131
-0.828398
-0.843882
-0.857823
-0.870571
-0.882293
-0.892973
-0.902649
-0.911295
-0.918959
-0.925599
-0.931261
-0.935981
-0.940156
-0.943996
-0.945511
-0.936246
-0.909757
-0.919255
-1.17698
-1.83893
-1.49195
-0.197786
-0.147472
-0.14659
-0.146599
-0.14664
-0.146641
-0.146593
-0.146575
-0.146784
-0.146765
-0.146744
-0.14672
-0.146695
-0.146669
-0.14664
-0.14661
-0.14658
-0.146548
-0.146515
-0.146481
-0.146447
-0.146412
-0.146377
-0.146341
-0.146303
-0.146267
-0.146233
-1.12534
-1.13985
-1.15456
-1.16734
-1.17852
-1.1885
-1.1974
-1.20525
-1.21202
-1.21779
-1.2225
-1.22621
-1.22888
-1.23084
-1.23245
-1.23299
-1.2262
-1.20121
-1.17843
-1.31299
-1.8798
-2.22971
-0.256006
-0.172127
-0.17108
-0.171102
-0.171141
-0.171139
-0.171025
-0.170929
-0.170085
-0.171024
-0.170993
-0.170958
-0.170921
-0.170882
-0.170839
-0.170795
-0.170749
-0.170701
-0.170652
-0.170601
-0.17055
-0.170497
-0.170444
-0.17039
-0.170336
-0.170279
-0.170224
-0.170172
-2.20578
-2.21035
-2.21583
-2.22061
-2.22446
-2.22748
-2.22982
-2.23146
-2.23241
-2.23261
-2.23203
-2.23057
-2.22839
-2.22586
-2.22296
-2.21496
-2.18854
-2.14415
-2.19875
-2.69104
-3.57604
-1.33456
-0.208985
-0.195998
-0.195518
-0.195501
-0.195491
-0.195462
-0.195434
-0.195402
-0.195364
-0.195325
-0.19528
-0.195233
-0.195181
-0.195126
-0.195067
-0.195006
-0.194942
-0.194876
-0.194808
-0.194739
-0.194668
-0.194596
-0.194524
-0.194451
-0.194378
-0.194303
-0.194227
-0.194156
-2.52974
-2.51385
-2.49515
-2.47837
-2.46398
-2.45181
-2.44156
-2.43335
-2.42703
-2.42276
-2.42025
-2.4197
-2.42068
-2.42343
-2.42741
-2.43247
-2.43596
-2.43638
-2.43954
-2.48675
-2.60614
-1.34154
-0.34762
-0.225993
-0.219688
-0.220301
-0.220111
-0.219998
-0.220038
-0.219993
-0.219965
-0.219902
-0.219857
-0.219801
-0.21974
-0.219673
-0.219601
-0.219525
-0.219444
-0.219359
-0.219272
-0.219181
-0.219088
-0.218993
-0.218897
-0.218799
-0.218699
-0.218599
-0.218497
-0.218393
-4.25756
-4.19054
-4.12221
-4.06432
-4.01588
-3.97514
-3.94163
-3.91545
-3.89674
-3.88575
-3.88261
-3.88779
-3.90144
-3.92515
-3.9601
-4.00764
-4.05575
-4.07576
-4.08058
-4.3711
-5.71546
-7.75289
-3.0524
-1.10853
-0.418236
-0.258083
-0.245467
-0.24602
-0.246567
-0.246545
-0.246389
-0.246238
-0.246091
-0.246003
-0.245835
-0.245673
-0.245502
-0.245331
-0.245157
-0.244981
-0.244803
-0.244624
-0.244445
-0.244266
-0.244088
-0.243912
-0.243737
-0.243564
-0.243393
-0.243224
-3.34649
-3.27832
-3.20801
-3.14832
-3.09931
-3.05872
-3.02631
-3.00149
-2.98483
-2.97563
-2.97445
-2.98074
-2.9948
-3.01628
-3.04602
-3.08034
-3.1249
-3.17566
-3.25624
-3.35876
-3.36142
-3.26314
-3.46496
-5.76567
-3.51309
-1.64121
-0.720985
-0.37795
-0.289996
-0.276061
-0.274401
-0.274313
-0.273897
-0.27341
-0.272925
-0.272472
-0.271976
-0.271639
-0.271229
-0.27083
-0.27045
-0.270083
-0.269729
-0.269388
-0.269061
-0.268745
-0.268442
-0.26815
-0.267869
-0.267599
-1.41558
-1.39246
-1.37114
-1.3544
-1.34173
-1.33233
-1.32598
-1.32235
-1.3214
-1.32247
-1.32559
-1.32964
-1.33498
-1.33994
-1.34446
-1.34631
-1.34656
-1.33782
-1.32749
-1.31051
-1.29667
-1.27001
-1.11257
-1.08917
-2.24026
-5.11003
-3.83648
-2.36108
-1.32372
-0.749911
-0.462901
-0.357352
-0.320605
-0.306119
-0.299943
-0.2975
-0.296401
-0.295671
-0.295023
-0.294402
-0.293878
-0.293362
-0.292887
-0.29245
-0.292044
-0.291665
-0.29131
-0.290978
-0.290666
-0.290372
2.43537
2.41805
2.40946
2.41354
2.42975
2.457
2.49511
2.54367
2.6026
2.67144
2.75002
2.83856
2.93392
3.0383
3.14964
3.26733
3.3894
3.51483
3.64186
3.76606
3.88697
3.99571
4.07224
4.13999
4.30722
4.67651
4.38077
-0.987464
-2.07058
-1.74076
-1.1849
-0.738562
-0.502078
-0.418277
-0.382055
-0.348018
-0.323523
-0.313189
-0.310521
-0.310042
-0.310112
-0.31031
-0.310355
-0.310491
-0.310539
-0.310562
-0.310561
-0.310544
-0.310516
-0.310477
2.53165
2.50595
2.47804
2.45312
2.4312
2.4115
2.39384
2.37813
2.36453
2.35302
2.34388
2.33733
2.33314
2.33214
2.33479
2.34149
2.35314
2.37075
2.39512
2.4287
2.47275
2.53019
2.60401
2.69255
2.79617
2.92579
3.09907
2.99494
2.07477
0.171748
-0.309242
-0.319697
-0.174521
-0.127444
-0.2098
-0.298346
-0.336796
-0.344997
-0.348234
-0.345396
-0.33777
-0.333572
-0.33273
-0.332576
-0.332452
-0.332342
-0.332213
-0.332231
-0.332163
-0.332094
2.75245
2.74755
2.74401
2.7436
2.74638
2.75225
2.76119
2.77304
2.78802
2.80604
2.82729
2.85134
2.87899
2.90858
2.94174
2.97776
3.01668
3.05824
3.10243
3.14996
3.19815
3.24796
3.29926
3.35037
3.40101
3.44912
3.49158
3.5227
3.53509
3.34805
2.33739
1.93677
1.78967
1.3245
0.776849
0.397542
0.159639
-0.0453734
-0.242423
-0.347683
-0.363907
-0.357232
-0.355382
-0.355865
-0.355344
-0.354787
-0.354444
-0.354146
-0.353917
-0.353792
2.70521
2.70512
2.70551
2.70639
2.70771
2.70959
2.7118
2.71447
2.71762
2.72254
2.7259
2.731
2.7357
2.74105
2.74636
2.75223
2.75834
2.76461
2.77099
2.77821
2.78415
2.79027
2.79617
2.80169
2.80704
2.81231
2.81754
2.82037
2.82486
2.83937
2.85369
2.75151
2.14841
1.98448
2.0543
1.8392
1.3576
0.821188
0.383909
0.0747397
-0.180513
-0.323798
-0.367161
-0.374082
-0.374229
-0.374358
-0.374939
-0.375398
-0.375561
-0.375552
2.43785
2.43793
2.43821
2.43908
2.44067
2.44317
2.44599
2.44973
2.45422
2.45954
2.46548
2.47222
2.47974
2.48802
2.49708
2.50689
2.51747
2.52877
2.54104
2.55386
2.56693
2.58077
2.59644
2.61028
2.62537
2.64054
2.65437
2.66875
2.68272
2.69522
2.70995
2.72251
2.73327
2.70545
2.50638
2.23382
2.25724
2.09897
1.68505
1.0018
0.16403
-0.274709
-0.370642
-0.386026
-0.390265
-0.393059
-0.395184
-0.396357
-0.396893
-0.39714
2.32352
2.32286
2.32285
2.32341
2.32468
2.32631
2.32819
2.33046
2.33344
2.33609
2.33943
2.34297
2.34675
2.35069
2.35478
2.35894
2.36313
2.36738
2.3715
2.3752
2.37891
2.38237
2.38613
2.38884
2.39133
2.39466
2.39491
2.39634
2.39756
2.39881
2.40023
2.40245
2.40256
2.39936
2.41149
2.46979
2.49485
2.11211
1.94638
1.40008
0.34378
-0.268854
-0.379717
-0.400615
-0.408501
-0.413338
-0.416323
-0.417911
-0.418708
-0.419115
1.83238
1.83235
1.83183
1.83102
1.83042
1.82915
1.82781
1.82631
1.82464
1.82293
1.82084
1.81873
1.81649
1.81414
1.81169
1.80915
1.80661
1.80386
1.80118
1.7985
1.79584
1.79331
1.79078
1.78842
1.78608
1.78444
1.78217
1.78043
1.77945
1.77914
1.77828
1.7781
1.77823
1.77914
1.78185
1.78507
1.77893
1.72327
1.54354
1.15016
0.272035
-0.297591
-0.399913
-0.421518
-0.430506
-0.435869
-0.438964
-0.440593
-0.441415
-0.441831
-0.00797665
-0.0079454
-0.0079154
-0.00788683
-0.00785984
-0.00783457
-0.00781113
-0.00778963
-0.00777017
-0.00775283
-0.00773767
-0.00772463
-0.00771354
-0.007705
-0.00770098
-0.00770465
-0.00764251
-0.00699524
-0.00904877
-0.00903023
-0.00915042
-0.0084924
-0.00881494
-0.00829396
-0.00846618
-0.00847133
-0.00746349
-0.00901296
-0.00898567
-0.00897414
-0.00896662
-0.00896001
-0.00895358
-0.00894723
-0.00894081
-0.00893418
-0.00892732
-0.00892018
-0.00891263
-0.0089046
-0.00889607
-0.00888701
-0.0088774
-0.00886722
-0.0088564
-0.00884492
-0.00883299
-0.00882123
-0.00880905
-0.00879012
-0.0340604
-0.0340739
-0.0340883
-0.0341039
-0.0341206
-0.0341388
-0.0341584
-0.0341797
-0.0342027
-0.0342277
-0.0342548
-0.0342841
-0.0343157
-0.0343497
-0.0343872
-0.0344328
-0.0344842
-0.0333075
-0.0352232
-0.0349068
-0.0353812
-0.0345739
-0.0349016
-0.033886
-0.0341556
-0.034247
-0.0333943
-0.0337566
-0.0338228
-0.033884
-0.0339501
-0.0340078
-0.0340618
-0.0341101
-0.0341535
-0.0341918
-0.0342267
-0.0342582
-0.0342865
-0.0343117
-0.0343342
-0.0343542
-0.0343721
-0.0343881
-0.0344025
-0.0344155
-0.034427
-0.0344365
-0.0344448
-0.0344568
-0.0533054
-0.053264
-0.053221
-0.0531765
-0.0531303
-0.0530824
-0.0530329
-0.0529816
-0.0529285
-0.0528736
-0.0528168
-0.052758
-0.052697
-0.0526336
-0.0525683
-0.0525018
-0.0524371
-0.0523691
-0.0518214
-0.0531758
-0.0533952
-0.0541147
-0.0535447
-0.0551302
-0.0550268
-0.0550308
-0.0549443
-0.0547946
-0.0540631
-0.0562314
-0.0561279
-0.0560434
-0.0559562
-0.0559073
-0.0558247
-0.0557606
-0.0556893
-0.0556242
-0.0555605
-0.0554989
-0.0554397
-0.0553832
-0.0553289
-0.055277
-0.0552274
-0.0551801
-0.0551348
-0.0550917
-0.0550505
-0.0550074
-0.0773167
-0.077286
-0.0772534
-0.077219
-0.0771824
-0.0771437
-0.0771026
-0.0770589
-0.0770124
-0.0769629
-0.0769102
-0.0768538
-0.0767936
-0.0767291
-0.0766601
-0.0765867
-0.0765121
-0.0764314
-0.0757892
-0.0772221
-0.0773581
-0.0783024
-0.0777619
-0.0788913
-0.0787785
-0.0786842
-0.0786063
-0.0785122
-0.0783529
-0.0776901
-0.08012
-0.08001
-0.0799172
-0.0798307
-0.0797529
-0.0796613
-0.0795914
-0.0795084
-0.0794705
-0.0794087
-0.0793532
-0.0793069
-0.0792589
-0.0792125
-0.0791689
-0.0791285
-0.0790904
-0.0790539
-0.0790196
-0.0789892
-0.0993318
-0.099307
-0.0992819
-0.0992565
-0.099231
-0.0992054
-0.0991798
-0.0991543
-0.099129
-0.0991039
-0.0990793
-0.0990552
-0.0990317
-0.0990091
-0.0989876
-0.0989679
-0.098952
-0.0989036
-0.0984422
-0.0999452
-0.0999351
-0.100365
-0.100354
-0.0998857
-0.101536
-0.101531
-0.101543
-0.101756
-0.101792
-0.100247
-0.100466
-0.100501
-0.10052
-0.100552
-0.100572
-0.100597
-0.100609
-0.100618
-0.10062
-0.10063
-0.100394
-0.100534
-0.100535
-0.100543
-0.10054
-0.100531
-0.100519
-0.100503
-0.100489
-0.100481
-0.123283
-0.123271
-0.123259
-0.123247
-0.123235
-0.123224
-0.123214
-0.123203
-0.123194
-0.123184
-0.123175
-0.123167
-0.123158
-0.12315
-0.123142
-0.123136
-0.123133
-0.122514
-0.122962
-0.122956
-0.122978
-0.12308
-0.123076
-0.122422
-0.123701
-0.123679
-0.123661
-0.123647
-0.123635
-0.123605
-0.123281
-0.124353
-0.124306
-0.124259
-0.124218
-0.124181
-0.124145
-0.12411
-0.124071
-0.124027
-0.123995
-0.123724
-0.124248
-0.124227
-0.124214
-0.124195
-0.124181
-0.123744
-0.123932
-0.123938
-0.146198
-0.146162
-0.146127
-0.146091
-0.146055
-0.14602
-0.145985
-0.14595
-0.145916
-0.145882
-0.145848
-0.145815
-0.145782
-0.145749
-0.145718
-0.145689
-0.145658
-0.145092
-0.146255
-0.146181
-0.14618
-0.146162
-0.146145
-0.145403
-0.14685
-0.14678
-0.146778
-0.147034
-0.147026
-0.147001
-0.145152
-0.146809
-0.146736
-0.146703
-0.146679
-0.146656
-0.146628
-0.146602
-0.146572
-0.146525
-0.146505
-0.146202
-0.146566
-0.146543
-0.146536
-0.14652
-0.146502
-0.145378
-0.146474
-0.146453
-0.170117
-0.170061
-0.170004
-0.169947
-0.16989
-0.169832
-0.169774
-0.169715
-0.169655
-0.169595
-0.169535
-0.169473
-0.16941
-0.169346
-0.169283
-0.169218
-0.169108
-0.168798
-0.169378
-0.16933
-0.16928
-0.169213
-0.169132
-0.168335
-0.169914
-0.169943
-0.170971
-0.170504
-0.170703
-0.170575
-0.170534
-0.170991
-0.169717
-0.169845
-0.169821
-0.169782
-0.169742
-0.169702
-0.169652
-0.16958
-0.169538
-0.169207
-0.169582
-0.169433
-0.169417
-0.169393
-0.169345
-0.167688
-0.17015
-0.170107
-0.194083
-0.19401
-0.193936
-0.193863
-0.19379
-0.193718
-0.193645
-0.193573
-0.193502
-0.193431
-0.19336
-0.19329
-0.193217
-0.193149
-0.193078
-0.193013
-0.192799
-0.192897
-0.192826
-0.192774
-0.19271
-0.192645
-0.191819
-0.192569
-0.19225
-0.192688
-0.192427
-0.192064
-0.193117
-0.192836
-0.193792
-0.192588
-0.192635
-0.192581
-0.192518
-0.192456
-0.192394
-0.192332
-0.192258
-0.192148
-0.192079
-0.191835
-0.192182
-0.192112
-0.192043
-0.191969
-0.191887
-0.190995
-0.193033
-0.192957
-0.218293
-0.218191
-0.218089
-0.217986
-0.217883
-0.21778
-0.217676
-0.217573
-0.21747
-0.217367
-0.217263
-0.21716
-0.217055
-0.216952
-0.216853
-0.216749
-0.216641
-0.216549
-0.216449
-0.216347
-0.216244
-0.21614
-0.215755
-0.216009
-0.215894
-0.215768
-0.215641
-0.214774
-0.215809
-0.21558
-0.215777
-0.215499
-0.214724
-0.216419
-0.21627
-0.216134
-0.215997
-0.215861
-0.215502
-0.215662
-0.215566
-0.215419
-0.215477
-0.215355
-0.215209
-0.21507
-0.214919
-0.214176
-0.216042
-0.215902
-0.243057
-0.242892
-0.242732
-0.242576
-0.242421
-0.242269
-0.24212
-0.241974
-0.241831
-0.24169
-0.241553
-0.241419
-0.241287
-0.241159
-0.241035
-0.240914
-0.240797
-0.240682
-0.240569
-0.240456
-0.240349
-0.240246
-0.240135
-0.240032
-0.239914
-0.239778
-0.239756
-0.239671
-0.239423
-0.239335
-0.239207
-0.239127
-0.238419
-0.23916
-0.239067
-0.23898
-0.238907
-0.238823
-0.238544
-0.238778
-0.238723
-0.238643
-0.238567
-0.238493
-0.238422
-0.238356
-0.238278
-0.236709
-0.23909
-0.239041
-0.267339
-0.267088
-0.266846
-0.266613
-0.266386
-0.26617
-0.265962
-0.26576
-0.265565
-0.265376
-0.265193
-0.265016
-0.264844
-0.264677
-0.264516
-0.264359
-0.264207
-0.264059
-0.263915
-0.263775
-0.263638
-0.263506
-0.263376
-0.26325
-0.263126
-0.263008
-0.262891
-0.262776
-0.262664
-0.262557
-0.262447
-0.26234
-0.262235
-0.262138
-0.261996
-0.261971
-0.261863
-0.261793
-0.261564
-0.261662
-0.261595
-0.261505
-0.261406
-0.261314
-0.261216
-0.261119
-0.261023
-0.260465
-0.260294
-0.260503
-0.290095
-0.289833
-0.289583
-0.289346
-0.289119
-0.288901
-0.288693
-0.288493
-0.288302
-0.288119
-0.287942
-0.287771
-0.287606
-0.287446
-0.287291
-0.28714
-0.286994
-0.286852
-0.286714
-0.286579
-0.286448
-0.286321
-0.286196
-0.286074
-0.285955
-0.285839
-0.285725
-0.285612
-0.285499
-0.285392
-0.285292
-0.285189
-0.285086
-0.284986
-0.284888
-0.284792
-0.284692
-0.284601
-0.284503
-0.284422
-0.284334
-0.284086
-0.284191
-0.284148
-0.28407
-0.283987
-0.283758
-0.283703
-0.283741
-0.28355
-0.31043
-0.310372
-0.310306
-0.310233
-0.310153
-0.310069
-0.309982
-0.309892
-0.3098
-0.309706
-0.30961
-0.309513
-0.309417
-0.30932
-0.309222
-0.309125
-0.309027
-0.30893
-0.308833
-0.308736
-0.308641
-0.308545
-0.30845
-0.308356
-0.308263
-0.30817
-0.308078
-0.307987
-0.307837
-0.307817
-0.307752
-0.307664
-0.307575
-0.307488
-0.307401
-0.307315
-0.307228
-0.307142
-0.307057
-0.306973
-0.306888
-0.306803
-0.306723
-0.306638
-0.306555
-0.30647
-0.306383
-0.306305
-0.30622
-0.306135
-0.332057
-0.331999
-0.331935
-0.331871
-0.331805
-0.33174
-0.331674
-0.331609
-0.331544
-0.331478
-0.331413
-0.331347
-0.331281
-0.331215
-0.331149
-0.331082
-0.331016
-0.330949
-0.330882
-0.330816
-0.330749
-0.330682
-0.330615
-0.330547
-0.33048
-0.330413
-0.330345
-0.330278
-0.33021
-0.330144
-0.330077
-0.33001
-0.329943
-0.329877
-0.32981
-0.329744
-0.329677
-0.32961
-0.329544
-0.329478
-0.329412
-0.329346
-0.32928
-0.329215
-0.32915
-0.329085
-0.32902
-0.328956
-0.328892
-0.328829
-0.353982
-0.353971
-0.353919
-0.353868
-0.353816
-0.353762
-0.35371
-0.353657
-0.353604
-0.353552
-0.3535
-0.353447
-0.353395
-0.353343
-0.353291
-0.353239
-0.353187
-0.353135
-0.353083
-0.353031
-0.352979
-0.352926
-0.352874
-0.352822
-0.35277
-0.352718
-0.352665
-0.352613
-0.35256
-0.352508
-0.352456
-0.352403
-0.352351
-0.352299
-0.352246
-0.352194
-0.352142
-0.35209
-0.352037
-0.351985
-0.351934
-0.351882
-0.35183
-0.351779
-0.351728
-0.351677
-0.351626
-0.351576
-0.351526
-0.351477
-0.375493
-0.375485
-0.375485
-0.375498
-0.37548
-0.37546
-0.37544
-0.375419
-0.375397
-0.375374
-0.375351
-0.375326
-0.375301
-0.375275
-0.375248
-0.375221
-0.375192
-0.375163
-0.375134
-0.375103
-0.375072
-0.37504
-0.375007
-0.374974
-0.37494
-0.374906
-0.37487
-0.374835
-0.374798
-0.374761
-0.374724
-0.374686
-0.374648
-0.374609
-0.374569
-0.374529
-0.374489
-0.374448
-0.374407
-0.374365
-0.374323
-0.374281
-0.374239
-0.374196
-0.374153
-0.374109
-0.374065
-0.374022
-0.373978
-0.373933
-0.397271
-0.39735
-0.3974
-0.397418
-0.397428
-0.397434
-0.39744
-0.397443
-0.397443
-0.397441
-0.397437
-0.397432
-0.397425
-0.397417
-0.397407
-0.397396
-0.397385
-0.397371
-0.397357
-0.397342
-0.397326
-0.397309
-0.39729
-0.397271
-0.397251
-0.39723
-0.397208
-0.397186
-0.397162
-0.397138
-0.397113
-0.397087
-0.397061
-0.397033
-0.397006
-0.396977
-0.396948
-0.396918
-0.396888
-0.396857
-0.396826
-0.396794
-0.396762
-0.39673
-0.396697
-0.396664
-0.39663
-0.396596
-0.396562
-0.396528
-0.419333
-0.419459
-0.419537
-0.419579
-0.419598
-0.419618
-0.419637
-0.419651
-0.419662
-0.41967
-0.419676
-0.41968
-0.419682
-0.419683
-0.419682
-0.41968
-0.419677
-0.419672
-0.419666
-0.419659
-0.419651
-0.419642
-0.419631
-0.41962
-0.419607
-0.419594
-0.419579
-0.419564
-0.419548
-0.41953
-0.419512
-0.419493
-0.419473
-0.419453
-0.419431
-0.419409
-0.419386
-0.419362
-0.419337
-0.419312
-0.419286
-0.419259
-0.419232
-0.419204
-0.419176
-0.419147
-0.419117
-0.419087
-0.419057
-0.419026
-0.442048
-0.442162
-0.442221
-0.442241
-0.442241
-0.442246
-0.442248
-0.442248
-0.442246
-0.442244
-0.44224
-0.442236
-0.442232
-0.442227
-0.442222
-0.442216
-0.44221
-0.442203
-0.442196
-0.442188
-0.44218
-0.442171
-0.442162
-0.442152
-0.442141
-0.442129
-0.442117
-0.442104
-0.442091
-0.442076
-0.442061
-0.442046
-0.442029
-0.442012
-0.441994
-0.441976
-0.441956
-0.441936
-0.441916
-0.441894
-0.441872
-0.44185
-0.441827
-0.441803
-0.441778
-0.441754
-0.441728
-0.441702
-0.441676
-0.44165
-0.008763
-0.00874796
-0.00873665
-0.0087263
-0.00871608
-0.00870602
-0.00869624
-0.00868675
-0.00867757
-0.0086687
-0.00866016
-0.00865194
-0.00864406
-0.00863652
-0.00862933
-0.00862251
-0.00861604
-0.00860995
-0.00860424
-0.00859892
-0.00859398
-0.00858944
-0.00858531
-0.00858158
-0.00857827
-0.00857537
-0.0085729
-0.00857086
-0.00856925
-0.00856808
-0.00856735
-0.00856706
-0.00856723
-0.00856785
-0.00856892
-0.00857046
-0.00857246
-0.00857493
-0.00857786
-0.00858127
-0.00858515
-0.00858952
-0.00859435
-0.00859968
-0.00860548
-0.00861177
-0.00861854
-0.00862581
-0.00863356
-0.0086418
-0.00865054
-0.00865976
-0.00866948
-0.00867969
-0.00869039
-0.00870159
-0.00871328
-0.00872546
-0.00873813
-0.0087513
-0.00876496
-0.00877911
-0.00879375
-0.00880888
-0.0088245
-0.00884061
-0.0088572
-0.00887428
-0.00889184
-0.00890989
-0.00892842
-0.00894743
-0.00896691
-0.00898688
-0.00900731
-0.00902823
-0.00904961
-0.00907147
-0.00909379
-0.00911658
-0.00913983
-0.00916355
-0.00918772
-0.00921236
-0.00923745
-0.00926299
-0.00928898
-0.00931543
-0.00934232
-0.00936965
-0.00939743
-0.00942564
-0.00945429
-0.00948337
-0.00951287
-0.00954281
-0.00957316
-0.00960393
-0.00963511
-0.00966669
-0.00969868
-0.00973107
-0.00976385
-0.00979701
-0.00983055
-0.00986447
-0.00989874
-0.00993338
-0.00996836
-0.0100037
-0.0100393
-0.0100753
-0.0101116
-0.0101482
-0.0101851
-0.0102222
-0.0102596
-0.0102973
-0.0103352
-0.0103733
-0.0104117
-0.0104502
-0.0104889
-0.0105277
-0.0105667
-0.0106058
-0.010645
-0.0106842
-0.0107235
-0.0107628
-0.010802
-0.0108412
-0.0108803
-0.0109192
-0.0109579
-0.0109963
-0.0110343
-0.0110719
-0.0111092
-0.0111461
-0.0111784
-0.011199
-0.011255
-0.0112876
-0.0113207
-0.011352
-0.0113815
-0.0114093
-0.0114352
-0.0114589
-0.0114806
-0.011499
-0.0115154
-0.0115092
-0.0113839
-0.0117763
-0.0117807
-0.0117836
-0.0117839
-0.0117852
-0.011784
-0.011776
-0.011699
-0.0113186
-0.0123548
-0.0123503
-0.0123445
-0.0123436
-0.0123477
-0.0123574
-0.0123741
-0.0123948
-0.012418
-0.0120205
-0.0121034
-0.0121942
-0.0122236
-0.0122491
-0.0122719
-0.0122923
-0.0123113
-0.0123295
-0.0123452
-0.0123522
-0.0123161
-0.0113393
-0.0122561
-0.0123209
-0.0123292
-0.0123351
-0.0123401
-0.012345
-0.0123481
-0.0123501
-0.0123494
-0.0123502
-0.0123362
-0.0122425
-0.0121511
-0.0120181
-0.0123063
-0.0121299
-0.0120696
-0.0120818
-0.0122922
-0.0123783
-0.0123922
-0.0123971
-0.0127446
-0.0127505
-0.0122519
-0.0129468
-0.0119592
-0.0121146
-0.0122695
-0.010861
-0.0112205
-0.0116891
-0.0117625
-0.0118239
-0.0118698
-0.0118795
-0.0118981
-0.0117175
-0.0116784
-0.0118119
-0.0116823
-0.0118028
-0.0117375
-0.0116583
-0.0113493
-0.0112738
-0.0112586
-0.0119522
-0.0119913
-0.0119345
-0.0118411
-0.0119838
-0.0118967
-0.0115459
-0.0114985
-0.0118658
-0.0118607
-0.011802
-0.0117708
-0.0117294
-0.0116982
-0.0116671
-0.0115441
-0.0113316
-0.0118157
-0.0117081
-0.0116867
-0.0116746
-0.0116404
-0.0116553
-0.0115188
-0.0109429
-0.0117077
-0.0117349
-0.01172
-0.0117048
-0.0116953
-0.0117057
-0.0117052
-0.0116867
-0.0114858
-0.0115333
-0.0116332
-0.0116499
-0.0116083
-0.0116277
-0.0115925
-0.0113321
-0.0111576
-0.0117433
-0.0117943
-0.0117609
-0.0117429
-0.0117434
-0.011463
-0.0113278
-0.0117142
-0.0116376
-0.01161
-0.0115792
-0.0114243
-0.0108591
-0.0104066
-0.0103972
-0.0107504
-0.0113182
-0.0113989
-0.0114089
-0.0114025
-0.0113972
-0.011398
-0.0113965
-0.0113976
-0.0113982
-0.0344747
-0.0344845
-0.0344915
-0.0344975
-0.0345032
-0.0345086
-0.0345136
-0.0345181
-0.0345223
-0.034526
-0.0345294
-0.0345324
-0.034535
-0.0345372
-0.0345391
-0.0345406
-0.0345417
-0.0345425
-0.034543
-0.0345431
-0.0345428
-0.0345422
-0.0345413
-0.0345401
-0.0345385
-0.0345366
-0.0345344
-0.0345319
-0.034529
-0.0345259
-0.0345225
-0.0345187
-0.0345147
-0.0345104
-0.0345058
-0.0345009
-0.0344957
-0.0344903
-0.0344845
-0.0344785
-0.0344723
-0.0344658
-0.034459
-0.0344519
-0.0344446
-0.0344371
-0.0344293
-0.0344212
-0.0344129
-0.0344044
-0.0343957
-0.0343867
-0.0343774
-0.034368
-0.0343584
-0.0343485
-0.0343384
-0.0343281
-0.0343176
-0.0343069
-0.034296
-0.0342849
-0.0342736
-0.0342621
-0.0342505
-0.0342387
-0.0342267
-0.0342145
-0.0342022
-0.0341897
-0.034177
-0.0341642
-0.0341513
-0.0341382
-0.034125
-0.0341116
-0.0340982
-0.0340846
-0.0340709
-0.034057
-0.0340431
-0.0340291
-0.034015
-0.0340008
-0.0339865
-0.0339722
-0.0339577
-0.0339432
-0.0339287
-0.0339141
-0.0338995
-0.0338848
-0.0338701
-0.0338554
-0.0338407
-0.0338259
-0.0338112
-0.0337964
-0.0337817
-0.033767
-0.0337524
-0.0337377
-0.0337232
-0.0337086
-0.0336942
-0.0336798
-0.0336655
-0.0336513
-0.0336372
-0.0336233
-0.0336094
-0.0335957
-0.0335821
-0.0335687
-0.0335554
-0.0335423
-0.0335294
-0.0335167
-0.0335042
-0.033492
-0.0334799
-0.0334681
-0.0334566
-0.0334454
-0.0334344
-0.0334237
-0.0334134
-0.0334033
-0.0333936
-0.0333843
-0.0333754
-0.0333668
-0.0333586
-0.0333509
-0.0333436
-0.0333368
-0.0333305
-0.0333247
-0.0333194
-0.0333146
-0.0333105
-0.033307
-0.0333042
-0.0333019
-0.0333003
-0.0332996
-0.0332997
-0.0333007
-0.0333028
-0.0333059
-0.0333104
-0.0333161
-0.0333234
-0.0333332
-0.0332751
-0.033286
-0.0333396
-0.0333518
-0.0333669
-0.0333803
-0.0333946
-0.0334075
-0.0333867
-0.0334044
-0.0334658
-0.0334771
-0.0334853
-0.0334925
-0.0334991
-0.0335055
-0.0335119
-0.0335179
-0.033524
-0.0335292
-0.0335292
-0.0335322
-0.0335376
-0.0335447
-0.0335539
-0.0335653
-0.0335793
-0.0335951
-0.0336129
-0.0335909
-0.0333603
-0.0337843
-0.0337567
-0.0337716
-0.0337336
-0.0337399
-0.0337603
-0.0337677
-0.0337777
-0.0337897
-0.0338071
-0.0338315
-0.0338224
-0.0337109
-0.0329321
-0.0332117
-0.0334461
-0.0334059
-0.0334557
-0.0335097
-0.0335586
-0.0336031
-0.0336447
-0.0336837
-0.0337227
-0.0337598
-0.0337912
-0.0337929
-0.0337762
-0.0337621
-0.0337479
-0.0337331
-0.0337622
-0.0337822
-0.0335272
-0.0335558
-0.0335787
-0.0335684
-0.033554
-0.0335403
-0.0335254
-0.0335165
-0.0335221
-0.0334817
-0.0333554
-0.0330055
-0.0330301
-0.0330482
-0.0330623
-0.0335271
-0.0337083
-0.0337431
-0.0337555
-0.0337697
-0.0337867
-0.0338072
-0.0338191
-0.0338173
-0.0338674
-0.0338666
-0.0338242
-0.0339302
-0.033958
-0.0339706
-0.0340001
-0.0340485
-0.0341631
-0.0342085
-0.0336354
-0.0337441
-0.0338891
-0.0339139
-0.03396
-0.0340236
-0.0340551
-0.0340773
-0.0340961
-0.0341101
-0.0341277
-0.0341493
-0.0341602
-0.0337243
-0.0330331
-0.0346907
-0.0346548
-0.034624
-0.0345962
-0.034578
-0.0345697
-0.0345705
-0.0345805
-0.0346024
-0.0345845
-0.034548
-0.0346357
-0.0345827
-0.0345488
-0.0345148
-0.0344734
-0.0344282
-0.0343801
-0.0343224
-0.034247
-0.0341499
-0.0339754
-0.0338053
-0.0338955
-0.0339078
-0.0339078
-0.0339258
-0.0339565
-0.0339967
-0.0340442
-0.0340962
-0.0341489
-0.0341972
-0.0549688
-0.0549438
-0.0549209
-0.054899
-0.0548775
-0.0548564
-0.0548358
-0.0548156
-0.054796
-0.0547767
-0.054758
-0.0547397
-0.0547218
-0.0547044
-0.0546874
-0.0546709
-0.0546548
-0.0546391
-0.0546238
-0.054609
-0.0545946
-0.0545806
-0.054567
-0.0545539
-0.0545411
-0.0545288
-0.0545168
-0.0545053
-0.0544941
-0.0544834
-0.054473
-0.054463
-0.0544534
-0.0544442
-0.0544354
-0.054427
-0.0544189
-0.0544112
-0.0544039
-0.0543969
-0.0543903
-0.0543841
-0.0543783
-0.0543728
-0.0543677
-0.054363
-0.0543586
-0.0543546
-0.054351
-0.0543477
-0.0543447
-0.0543422
-0.05434
-0.0543381
-0.0543366
-0.0543355
-0.0543347
-0.0543343
-0.0543342
-0.0543345
-0.0543352
-0.0543362
-0.0543375
-0.0543392
-0.0543413
-0.0543437
-0.0543465
-0.0543496
-0.0543531
-0.054357
-0.0543611
-0.0543657
-0.0543706
-0.0543758
-0.0543814
-0.0543874
-0.0543936
-0.0544003
-0.0544073
-0.0544146
-0.0544223
-0.0544304
-0.0544388
-0.0544475
-0.0544566
-0.0544661
-0.0544758
-0.054486
-0.0544965
-0.0545073
-0.0545185
-0.05453
-0.0545419
-0.0545541
-0.0545667
-0.0545796
-0.0545928
-0.0546064
-0.0546203
-0.0546346
-0.0546493
-0.0546642
-0.0546795
-0.0546952
-0.0547112
-0.0547275
-0.0547442
-0.0547612
-0.0547786
-0.0547963
-0.0548143
-0.0548327
-0.0548514
-0.0548705
-0.0548898
-0.0549096
-0.0549296
-0.05495
-0.0549708
-0.0549918
-0.0550132
-0.0550349
-0.055057
-0.0550794
-0.0551021
-0.0551251
-0.0551485
-0.0551722
-0.0551962
-0.0552205
-0.0552452
-0.0552702
-0.0552955
-0.0553211
-0.0553471
-0.0553734
-0.0554
-0.0554269
-0.0554542
-0.0554817
-0.0555096
-0.0555378
-0.0555663
-0.0555951
-0.0556243
-0.0556537
-0.0556834
-0.0557134
-0.0557438
-0.0557746
-0.0558057
-0.0558372
-0.0558691
-0.0559012
-0.0559331
-0.0559647
-0.0559966
-0.0560289
-0.0560618
-0.0560952
-0.0561293
-0.0561644
-0.056199
-0.056231
-0.0562624
-0.056293
-0.0563232
-0.0563534
-0.0563837
-0.056414
-0.0564444
-0.0564749
-0.0565056
-0.056536
-0.0565662
-0.0565964
-0.0566269
-0.0566577
-0.0566889
-0.0567208
-0.056753
-0.0567858
-0.0568184
-0.0568002
-0.0568911
-0.0569176
-0.0569421
-0.056967
-0.0569931
-0.0570188
-0.0570457
-0.0570739
-0.0571036
-0.0571358
-0.0571705
-0.0572052
-0.0572145
-0.0569016
-0.0569967
-0.0571938
-0.0571913
-0.0572013
-0.0572104
-0.0572151
-0.0572174
-0.0572187
-0.05722
-0.0572224
-0.0572262
-0.0572306
-0.057232
-0.0572313
-0.0572309
-0.0572329
-0.0572371
-0.0572414
-0.0572212
-0.0571848
-0.0572452
-0.0572309
-0.0572247
-0.0572206
-0.0572183
-0.057218
-0.0572201
-0.0572261
-0.0572362
-0.0572374
-0.0569837
-0.0557712
-0.0575814
-0.0573895
-0.0573544
-0.0573164
-0.0572795
-0.0572481
-0.0572198
-0.0571952
-0.0571756
-0.0571592
-0.0571419
-0.0571258
-0.0571136
-0.0571067
-0.0571063
-0.0570981
-0.0570934
-0.0570943
-0.057102
-0.0571218
-0.0570148
-0.057143
-0.057141
-0.057126
-0.057124
-0.0571291
-0.0571415
-0.0571544
-0.0571682
-0.0571841
-0.0572032
-0.0572267
-0.0572558
-0.0572905
-0.05733
-0.0573719
-0.057407
-0.0574232
-0.0574322
-0.0574362
-0.0574385
-0.0574418
-0.0574482
-0.0574554