/*--------------------------------*- C++ -*----------------------------------*\
| =========                 |                                                 |
| \\      /  F ield         | OpenFOAM: The Open Source CFD Toolbox           |
|  \\    /   O peration     | Version:  2.4.0                                 |
|   \\  /    A nd           | Web:      www.OpenFOAM.org                      |
|    \\/     M anipulation  |                                                 |
\*---------------------------------------------------------------------------*/
FoamFile
{
    version     2.0;
    format      ascii;
    class       surfaceScalarField;
    location    "3.4";
    object      phi;
}
// * * * * * * * * * * * * * * * * * * * * * * * * * * * * * * * * * * * * * //

dimensions      [0 3 -1 0 0 0 0];

internalField   nonuniform List<scalar> 
15580
(
-2.69635e-13
-1.90369e-12
-8.90267e-13
-5.61584e-12
-1.77699e-12
-9.19369e-12
-2.89722e-12
-1.26188e-11
-4.22252e-12
-1.58924e-11
-5.72805e-12
-1.90155e-11
-7.3921e-12
-2.19892e-11
-9.19567e-12
-2.48143e-11
-1.1122e-11
-2.74917e-11
-1.31564e-11
-3.00221e-11
-1.52856e-11
-3.24061e-11
-1.74979e-11
-3.46445e-11
-1.97826e-11
-3.67376e-11
-2.21299e-11
-3.86862e-11
-2.45308e-11
-4.04903e-11
-2.69767e-11
-4.21507e-11
-2.94594e-11
-4.36672e-11
-3.19708e-11
-4.50404e-11
-3.45031e-11
-4.627e-11
-3.70478e-11
-4.73567e-11
-3.95967e-11
-4.82998e-11
-4.2141e-11
-4.90997e-11
-4.46735e-11
-4.97545e-11
-4.71842e-11
-5.02645e-11
-4.96486e-11
-5.06337e-11
-5.20029e-11
-5.0886e-11
-7.95896e-11
-5.10486e-11
-9.53688e-11
-5.12003e-11
-9.74552e-11
-5.12175e-11
-9.54121e-11
-5.6005e-11
-9.42819e-11
-9.19223e-11
-1.02416e-10
-1.39904e-10
-1.17094e-10
-1.84421e-10
-1.37178e-10
-2.25077e-10
-1.61854e-10
-2.62259e-10
-1.9046e-10
-2.96172e-10
-2.22415e-10
-3.26974e-10
-2.57234e-10
-3.54868e-10
-2.94522e-10
-3.79952e-10
-3.33953e-10
-4.02381e-10
-3.75254e-10
-4.22341e-10
-4.18192e-10
-4.40016e-10
-4.62565e-10
-4.55589e-10
-5.08199e-10
-4.69243e-10
-5.54947e-10
-4.81153e-10
-6.02679e-10
-4.91487e-10
-6.51283e-10
-5.00405e-10
-7.00662e-10
-5.08053e-10
-7.50721e-10
-5.14571e-10
-5.20078e-10
-8.01391e-10
-1.19238e-13
-1.78446e-12
-5.34101e-13
-5.20098e-12
-1.24434e-12
-8.48346e-12
-2.22331e-12
-1.16398e-11
-3.44715e-12
-1.46686e-11
-4.89432e-12
-1.75684e-11
-6.54526e-12
-2.03383e-11
-8.38219e-12
-2.29774e-11
-1.03888e-11
-2.5485e-11
-1.25502e-11
-2.78607e-11
-1.48525e-11
-3.01038e-11
-1.72829e-11
-3.22141e-11
-1.98292e-11
-3.41913e-11
-2.248e-11
-3.60353e-11
-2.52242e-11
-3.77461e-11
-2.80514e-11
-3.93235e-11
-3.09508e-11
-4.07677e-11
-3.39123e-11
-4.20788e-11
-3.69253e-11
-4.3257e-11
-3.99794e-11
-4.43026e-11
-4.30632e-11
-4.52159e-11
-4.61653e-11
-4.59977e-11
-4.92717e-11
-4.66481e-11
-5.23697e-11
-4.71666e-11
-5.5455e-11
-4.75484e-11
-6.03293e-11
-4.77937e-11
-9.39425e-11
-4.80782e-11
-9.70563e-11
-4.80866e-11
-9.98893e-11
-4.83845e-11
-9.1354e-11
-6.45403e-11
-7.51072e-11
-1.08169e-10
-6.63857e-11
-1.48626e-10
-6.48573e-11
-1.8595e-10
-6.96662e-11
-2.20268e-10
-8.02068e-11
-2.51718e-10
-9.59815e-11
-2.80398e-10
-1.16428e-10
-3.06527e-10
-1.41037e-10
-3.30259e-10
-1.69361e-10
-3.51628e-10
-2.00975e-10
-3.70768e-10
-2.35477e-10
-3.87838e-10
-2.72502e-10
-4.02991e-10
-3.11714e-10
-4.16377e-10
-3.52812e-10
-4.28145e-10
-3.95526e-10
-4.38439e-10
-4.39617e-10
-4.47396e-10
-4.84876e-10
-4.55147e-10
-5.31117e-10
-4.61812e-10
-5.78185e-10
-4.67503e-10
-4.72323e-10
-6.2594e-10
-1.04176e-13
-1.68028e-12
-3.69901e-13
-4.93525e-12
-7.81867e-13
-8.07149e-12
-1.33948e-12
-1.10822e-11
-2.04098e-12
-1.3967e-11
-2.88379e-12
-1.67256e-11
-3.86462e-12
-1.93574e-11
-4.97967e-12
-2.18623e-11
-6.22469e-12
-2.424e-11
-7.59516e-12
-2.64902e-11
-9.08628e-12
-2.86127e-11
-1.06932e-11
-3.06072e-11
-1.24107e-11
-3.24738e-11
-1.42339e-11
-3.42121e-11
-1.61577e-11
-3.58224e-11
-1.8177e-11
-3.73042e-11
-2.02867e-11
-3.8658e-11
-2.24821e-11
-3.98834e-11
-2.47582e-11
-4.0981e-11
-2.71106e-11
-4.19503e-11
-2.95343e-11
-4.27922e-11
-3.20264e-11
-4.35056e-11
-3.4583e-11
-4.40916e-11
-3.71986e-11
-4.4551e-11
-3.98497e-11
-4.48973e-11
-7.48837e-11
-4.52671e-11
-9.16257e-11
-4.54985e-11
-9.40517e-11
-4.56605e-11
-9.10883e-11
-5.13479e-11
-7.82421e-11
-7.73865e-11
-7.17411e-11
-1.1467e-10
-7.05644e-11
-1.49802e-10
-7.44129e-11
-1.82101e-10
-8.29423e-11
-2.11738e-10
-9.58343e-11
-2.38826e-10
-1.12792e-10
-2.6344e-10
-1.33476e-10
-2.85843e-10
-1.57526e-10
-3.06208e-10
-1.84574e-10
-3.24581e-10
-2.14264e-10
-3.41078e-10
-2.46255e-10
-3.55847e-10
-2.80227e-10
-3.69019e-10
-3.15886e-10
-3.80718e-10
-3.52964e-10
-3.91067e-10
-3.91222e-10
-4.00181e-10
-4.30449e-10
-4.08169e-10
-4.70462e-10
-4.15134e-10
-5.11101e-10
-4.21173e-10
-5.52228e-10
-4.26376e-10
-4.30824e-10
-5.93726e-10
-7.03502e-14
-1.60993e-12
-3.08343e-13
-4.69726e-12
-7.2022e-13
-7.65961e-12
-1.30209e-12
-1.05003e-11
-2.05008e-12
-1.32191e-11
-2.96021e-12
-1.58154e-11
-4.02851e-12
-1.82891e-11
-5.25095e-12
-2.06399e-11
-6.62356e-12
-2.28674e-11
-8.14237e-12
-2.49714e-11
-9.80357e-12
-2.69515e-11
-1.16033e-11
-2.88075e-11
-1.35381e-11
-3.0539e-11
-1.56043e-11
-3.21459e-11
-1.77987e-11
-3.36279e-11
-2.01181e-11
-3.49848e-11
-2.256e-11
-3.62162e-11
-2.51214e-11
-3.7322e-11
-2.78003e-11
-3.8302e-11
-3.05947e-11
-3.91559e-11
-3.35032e-11
-3.98836e-11
-3.65237e-11
-4.04851e-11
-3.96539e-11
-4.09614e-11
-4.2888e-11
-4.13168e-11
-6.38647e-11
-4.16438e-11
-8.89341e-11
-4.19026e-11
-9.24753e-11
-4.19574e-11
-9.26013e-11
-4.55345e-11
-7.75176e-11
-6.64316e-11
-5.67111e-11
-9.8193e-11
-4.31144e-11
-1.28267e-10
-3.65642e-11
-1.56352e-10
-3.62817e-11
-1.82383e-10
-4.15497e-11
-2.0647e-10
-5.17015e-11
-2.28674e-10
-6.61121e-11
-2.4903e-10
-8.42752e-11
-2.6768e-10
-1.05749e-10
-2.84735e-10
-1.30089e-10
-3.00241e-10
-1.56896e-10
-3.14271e-10
-1.85813e-10
-3.2693e-10
-2.16523e-10
-3.38309e-10
-2.48741e-10
-3.485e-10
-2.82213e-10
-3.57594e-10
-3.16717e-10
-3.65677e-10
-3.52053e-10
-3.72833e-10
-3.88046e-10
-3.79141e-10
-4.2454e-10
-3.84679e-10
-4.614e-10
-3.89515e-10
-3.93715e-10
-4.9851e-10
-1.07777e-13
-1.50215e-12
-4.1158e-13
-4.39346e-12
-9.02328e-13
-7.16887e-12
-1.57601e-12
-9.82667e-12
-2.42853e-12
-1.23665e-11
-3.45574e-12
-1.47882e-11
-4.65346e-12
-1.70914e-11
-6.01754e-12
-1.92758e-11
-7.54387e-12
-2.13411e-11
-9.22843e-12
-2.32868e-11
-1.10673e-11
-2.51126e-11
-1.30567e-11
-2.6818e-11
-1.5193e-11
-2.84027e-11
-1.74727e-11
-2.98662e-11
-1.98927e-11
-3.1208e-11
-2.24498e-11
-3.24276e-11
-2.51413e-11
-3.35246e-11
-2.79648e-11
-3.44986e-11
-3.09179e-11
-3.53489e-11
-3.39988e-11
-3.6075e-11
-3.72066e-11
-3.66758e-11
-4.05416e-11
-3.71501e-11
-4.4001e-11
-3.7502e-11
-6.05247e-11
-3.78253e-11
-8.99278e-11
-3.81795e-11
-9.3416e-11
-3.84144e-11
-9.35737e-11
-4.17997e-11
-8.22057e-11
-5.69025e-11
-6.50815e-11
-8.35558e-11
-5.33711e-11
-1.09903e-10
-4.69733e-11
-1.34665e-10
-4.56068e-11
-1.57719e-10
-4.88851e-11
-1.79105e-10
-5.64179e-11
-1.98938e-10
-6.78125e-11
-2.1728e-10
-8.26758e-11
-2.34166e-10
-1.00669e-10
-2.49687e-10
-1.21486e-10
-2.63918e-10
-1.44801e-10
-2.76926e-10
-1.70301e-10
-2.88771e-10
-1.97702e-10
-2.99529e-10
-2.2674e-10
-3.09271e-10
-2.57171e-10
-3.18069e-10
-2.88771e-10
-3.25994e-10
-3.21335e-10
-3.33113e-10
-3.54676e-10
-3.39492e-10
-3.88623e-10
-3.45194e-10
-4.23021e-10
-3.50281e-10
-4.5773e-10
-3.54806e-10
-3.5882e-10
-4.92625e-10
-1.20362e-13
-1.38179e-12
-4.75774e-13
-4.03804e-12
-1.05819e-12
-6.58645e-12
-1.8587e-12
-9.02615e-12
-2.86884e-12
-1.13564e-11
-4.0804e-12
-1.35767e-11
-5.4855e-12
-1.56863e-11
-7.07653e-12
-1.76848e-11
-8.84625e-12
-1.95714e-11
-1.07877e-11
-2.13454e-11
-1.28943e-11
-2.3006e-11
-1.51598e-11
-2.45526e-11
-1.75783e-11
-2.59843e-11
-2.0144e-11
-2.73005e-11
-2.28517e-11
-2.85002e-11
-2.56964e-11
-2.9583e-11
-2.86732e-11
-3.05478e-11
-3.17776e-11
-3.13941e-11
-3.50059e-11
-3.21206e-11
-3.83551e-11
-3.27258e-11
-4.18222e-11
-3.32087e-11
-4.53925e-11
-3.35798e-11
-6.2182e-11
-3.39135e-11
-9.29131e-11
-3.42937e-11
-9.66015e-11
-3.44912e-11
-9.70239e-11
-3.7992e-11
-8.69272e-11
-5.18965e-11
-6.92953e-11
-7.45343e-11
-5.632e-11
-9.65311e-11
-4.87443e-11
-1.17479e-10
-4.63858e-11
-1.37023e-10
-4.88094e-11
-1.55295e-10
-5.54136e-11
-1.72501e-10
-6.57834e-11
-1.88568e-10
-7.95351e-11
-2.03528e-10
-9.63245e-11
-2.17377e-10
-1.15828e-10
-2.30184e-10
-1.37755e-10
-2.41991e-10
-1.61839e-10
-2.52842e-10
-1.87822e-10
-2.62788e-10
-2.15468e-10
-2.71883e-10
-2.44558e-10
-2.80181e-10
-2.74888e-10
-2.87739e-10
-3.06268e-10
-2.94614e-10
-3.38519e-10
-3.00862e-10
-3.71475e-10
-3.06536e-10
-4.04979e-10
-3.1169e-10
-4.38883e-10
-3.16376e-10
-4.73054e-10
-3.20635e-10
-3.24511e-10
-5.07363e-10
-1.4549e-13
-1.2363e-12
-5.73567e-13
-3.60997e-12
-1.2696e-12
-5.89042e-12
-2.21707e-12
-8.07868e-12
-3.40093e-12
-1.01725e-11
-4.80722e-12
-1.21704e-11
-6.42291e-12
-1.40706e-11
-8.23598e-12
-1.58717e-11
-1.02352e-11
-1.75721e-11
-1.24103e-11
-1.91702e-11
-1.47518e-11
-2.06646e-11
-1.72508e-11
-2.20536e-11
-1.98991e-11
-2.3336e-11
-2.26894e-11
-2.45102e-11
-2.56146e-11
-2.5575e-11
-2.86687e-11
-2.65288e-11
-3.18459e-11
-2.73706e-11
-3.51418e-11
-2.80982e-11
-3.8552e-11
-2.87105e-11
-4.20716e-11
-2.92061e-11
-4.56886e-11
-2.95917e-11
-5.92631e-11
-2.98972e-11
-9.32029e-11
-3.02669e-11
-9.70199e-11
-3.04767e-11
-9.76844e-11
-3.38267e-11
-9.01802e-11
-4.54961e-11
-7.78579e-11
-6.42187e-11
-6.96257e-11
-8.27665e-11
-6.54876e-11
-1.00669e-10
-6.52851e-11
-1.17682e-10
-6.87724e-11
-1.33536e-10
-7.55385e-11
-1.48529e-10
-8.54933e-11
-1.62546e-10
-9.84594e-11
-1.75602e-10
-1.14242e-10
-1.87745e-10
-1.32657e-10
-1.98962e-10
-1.53516e-10
-2.09325e-10
-1.76626e-10
-2.1888e-10
-2.01796e-10
-2.27672e-10
-2.28833e-10
-2.35751e-10
-2.57548e-10
-2.43167e-10
-2.87756e-10
-2.49973e-10
-3.19275e-10
-2.5622e-10
-3.5193e-10
-2.61959e-10
-3.85551e-10
-2.67241e-10
-4.19974e-10
-2.72113e-10
-4.55043e-10
-2.76621e-10
-4.90609e-10
-2.8081e-10
-5.26532e-10
-2.84713e-10
-2.88362e-10
-5.62681e-10
-1.52751e-13
-1.08355e-12
-5.61014e-13
-3.2017e-12
-1.19583e-12
-5.25561e-12
-2.04038e-12
-7.23413e-12
-3.07998e-12
-9.13293e-12
-4.30146e-12
-1.09489e-11
-5.69274e-12
-1.26794e-11
-7.24311e-12
-1.43214e-11
-8.94251e-12
-1.58727e-11
-1.0782e-11
-1.73307e-11
-1.27529e-11
-1.86937e-11
-1.48473e-11
-1.99592e-11
-1.70569e-11
-2.11264e-11
-1.9374e-11
-2.21931e-11
-2.17899e-11
-2.31591e-11
-2.42963e-11
-2.40224e-11
-2.68829e-11
-2.4784e-11
-2.95404e-11
-2.54407e-11
-3.22606e-11
-2.59903e-11
-3.50431e-11
-2.64236e-11
-4.00159e-11
-2.67515e-11
-8.30341e-11
-2.71213e-11
-8.60074e-11
-2.72936e-11
-8.78572e-11
-2.86268e-11
-8.04989e-11
-4.1185e-11
-6.72999e-11
-5.86952e-11
-5.64634e-11
-7.50553e-11
-4.89382e-11
-9.02917e-11
-4.52544e-11
-1.04353e-10
-4.55167e-11
-1.17419e-10
-4.94306e-11
-1.29622e-10
-5.69709e-11
-1.40989e-10
-6.79731e-11
-1.51544e-10
-8.22582e-11
-1.61317e-10
-9.96115e-11
-1.70392e-10
-1.19798e-10
-1.78776e-10
-1.42586e-10
-1.86536e-10
-1.67748e-10
-1.93718e-10
-1.95055e-10
-2.00365e-10
-2.24285e-10
-2.06521e-10
-2.55222e-10
-2.1223e-10
-2.87658e-10
-2.17537e-10
-3.21394e-10
-2.22484e-10
-3.5624e-10
-2.27113e-10
-3.92017e-10
-2.31465e-10
-4.28554e-10
-2.35576e-10
-4.65694e-10
-2.39482e-10
-5.03289e-10
-2.43215e-10
-5.41199e-10
-2.46803e-10
-2.50253e-10
-5.79308e-10
-2.70722e-14
-1.05648e-12
-1.39916e-13
-3.08886e-12
-3.4005e-13
-5.05547e-12
-6.18548e-13
-6.95563e-12
-9.72626e-13
-8.77886e-12
-1.40172e-12
-1.05198e-11
-1.90883e-12
-1.21723e-11
-2.49754e-12
-1.37327e-11
-3.17466e-12
-1.51956e-11
-3.94596e-12
-1.65594e-11
-4.82028e-12
-1.78193e-11
-5.80339e-12
-1.89761e-11
-6.9041e-12
-2.00257e-11
-8.12571e-12
-2.09715e-11
-9.47489e-12
-2.181e-11
-1.09503e-11
-2.2547e-11
-1.25553e-11
-2.3179e-11
-1.4281e-11
-2.37151e-11
-1.61148e-11
-2.41565e-11
-1.80109e-11
-2.45275e-11
-4.79574e-11
-2.48422e-11
-7.48783e-11
-2.49676e-11
-7.69506e-11
-2.52213e-11
-7.13184e-11
-3.42591e-11
-4.21286e-11
-7.03748e-11
-1.26934e-11
-8.81303e-11
1.26353e-11
-1.00384e-10
3.16807e-11
-1.09337e-10
4.35916e-11
-1.16264e-10
4.85377e-11
-1.22366e-10
4.68976e-11
-1.27982e-10
3.9269e-11
-1.3336e-10
2.62902e-11
-1.38565e-10
8.63745e-12
-1.43664e-10
-1.30931e-11
-1.48661e-10
-3.83228e-11
-1.53547e-10
-6.65575e-11
-1.58302e-10
-9.73625e-11
-1.62913e-10
-1.30356e-10
-1.67372e-10
-1.65199e-10
-1.71678e-10
-2.01594e-10
-1.75835e-10
-2.39276e-10
-1.79855e-10
-2.78012e-10
-1.83749e-10
-3.17592e-10
-1.87533e-10
-3.57836e-10
-1.91221e-10
-3.98581e-10
-1.9483e-10
-4.3969e-10
-1.98373e-10
-4.81039e-10
-2.01865e-10
-5.22524e-10
-2.05318e-10
-2.08726e-10
-5.64052e-10
1.23457e-13
-1.17993e-12
5.54593e-13
-3.52e-12
1.29222e-12
-5.79311e-12
2.29808e-12
-7.96148e-12
3.53013e-12
-1.00109e-11
4.94137e-12
-1.1931e-11
6.48651e-12
-1.37174e-11
8.11393e-12
-1.53601e-11
9.77663e-12
-1.68583e-11
1.14193e-11
-1.8202e-11
1.29954e-11
-1.93954e-11
1.44473e-11
-2.0428e-11
1.57325e-11
-2.13109e-11
1.67931e-11
-2.2032e-11
1.75945e-11
-2.26114e-11
1.80803e-11
-2.30328e-11
1.82298e-11
-2.33285e-11
1.7994e-11
-2.34793e-11
1.73682e-11
-2.35307e-11
1.62861e-11
-2.34453e-11
1.45646e-11
-2.32564e-11
-2.36795e-11
-2.29941e-11
-2.63981e-11
-2.25027e-11
1.79076e-11
-7.85648e-11
1.00325e-11
-6.24997e-11
-5.41261e-12
-7.26853e-11
-2.7767e-12
-1.0302e-10
1.05801e-11
-1.22694e-10
1.94012e-11
-1.25085e-10
2.45641e-11
-1.27528e-10
2.41462e-11
-1.27564e-10
1.80254e-11
-1.2724e-10
6.74048e-12
-1.2728e-10
-8.96513e-12
-1.27958e-10
-2.83911e-11
-1.29235e-10
-5.10709e-11
-1.30867e-10
-7.6556e-11
-1.32817e-10
-1.04439e-10
-1.3503e-10
-1.3434e-10
-1.37472e-10
-1.65925e-10
-1.40092e-10
-1.98905e-10
-1.42855e-10
-2.33028e-10
-1.45732e-10
-2.68076e-10
-1.48701e-10
-3.03863e-10
-1.51745e-10
-3.40234e-10
-1.5485e-10
-3.77058e-10
-1.58006e-10
-4.14228e-10
-1.61204e-10
-4.51657e-10
-1.64437e-10
-4.89277e-10
-1.67697e-10
-1.70984e-10
-5.27019e-10
7.00298e-13
-1.88023e-12
2.58821e-12
-5.4079e-12
5.50318e-12
-8.70808e-12
9.31237e-12
-1.17707e-11
1.38877e-11
-1.45863e-11
1.91053e-11
-1.71486e-11
2.48443e-11
-1.94564e-11
3.09844e-11
-2.15002e-11
3.74075e-11
-2.32814e-11
4.39912e-11
-2.47857e-11
5.06163e-11
-2.60205e-11
5.71533e-11
-2.6965e-11
6.34809e-11
-2.76385e-11
6.94574e-11
-2.80085e-11
7.49603e-11
-2.81143e-11
7.98314e-11
-2.79039e-11
8.39478e-11
-2.74449e-11
8.71261e-11
-2.66576e-11
8.92496e-11
-2.56541e-11
9.01441e-11
-2.43399e-11
8.98399e-11
-2.29656e-11
1.16116e-11
-2.08265e-11
6.93799e-12
-2.01524e-11
-5.11368e-11
-2.049e-11
-8.6636e-11
-2.70005e-11
-9.9326e-11
-5.99952e-11
-1.14332e-10
-8.80142e-11
-1.58934e-10
-7.80919e-11
-1.85894e-10
-9.81246e-11
-2.06102e-10
-1.0732e-10
-2.16932e-10
-1.16734e-10
-2.26511e-10
-1.17661e-10
-2.34213e-10
-1.19578e-10
-2.41129e-10
-1.21043e-10
-2.48278e-10
-1.22086e-10
-2.5642e-10
-1.22725e-10
-2.65999e-10
-1.23238e-10
-2.77185e-10
-1.23843e-10
-2.89886e-10
-1.24771e-10
-3.04061e-10
-1.25917e-10
-3.19618e-10
-1.27298e-10
-3.36414e-10
-1.28936e-10
-3.54325e-10
-1.3079e-10
-3.73234e-10
-1.32837e-10
-3.9303e-10
-1.35054e-10
-4.13619e-10
-1.37417e-10
-4.34918e-10
-1.39905e-10
-4.56858e-10
-1.42497e-10
-4.79378e-10
-1.45176e-10
-1.47929e-10
-5.02433e-10
6.75749e-13
-2.55597e-12
2.58048e-12
-7.31264e-12
5.58624e-12
-1.17138e-11
9.57819e-12
-1.57626e-11
1.44493e-11
-1.94574e-11
2.0103e-11
-2.28023e-11
2.64371e-11
-2.57906e-11
3.33623e-11
-2.84254e-11
4.07768e-11
-3.06959e-11
4.85936e-11
-3.26025e-11
5.67043e-11
-3.41312e-11
6.50173e-11
-3.5278e-11
7.34087e-11
-3.603e-11
8.17748e-11
-3.63746e-11
8.9969e-11
-3.63085e-11
9.78682e-11
-3.5803e-11
1.053e-10
-3.48763e-11
1.12115e-10
-3.3473e-11
1.18114e-10
-3.16527e-11
1.23086e-10
-2.93119e-11
1.26711e-10
-2.6591e-11
1.26788e-10
-2.34784e-11
1.36844e-10
-2.01933e-11
8.56693e-11
-1.37078e-11
7.38621e-11
-1.62504e-11
3.35342e-11
-1.96672e-11
-2.52852e-11
-2.91948e-11
-5.25615e-11
-5.08157e-11
-8.88448e-11
-6.18413e-11
-1.14305e-10
-8.18601e-11
-1.45175e-10
-8.58636e-11
-1.70218e-10
-9.26183e-11
-1.92118e-10
-9.76782e-11
-2.10209e-10
-1.02951e-10
-2.2431e-10
-1.07985e-10
-2.34552e-10
-1.12482e-10
-2.41545e-10
-1.16245e-10
-2.46341e-10
-1.19048e-10
-2.51149e-10
-1.19962e-10
-2.56908e-10
-1.20158e-10
-2.63544e-10
-1.20662e-10
-2.71171e-10
-1.21309e-10
-2.79815e-10
-1.22146e-10
-2.89441e-10
-1.23211e-10
-2.99975e-10
-1.24519e-10
-3.11374e-10
-1.26019e-10
-3.23604e-10
-1.27674e-10
-3.36638e-10
-1.29463e-10
-3.50439e-10
-1.31375e-10
-1.33409e-10
-3.6496e-10
2.72451e-13
-2.82842e-12
9.8773e-13
-8.02792e-12
2.11136e-12
-1.28375e-11
3.65036e-12
-1.73016e-11
5.61986e-12
-2.14269e-11
8.03733e-12
-2.52197e-11
1.09225e-11
-2.86757e-11
1.42992e-11
-3.18022e-11
1.81929e-11
-3.45896e-11
2.26359e-11
-3.70454e-11
2.76574e-11
-3.91528e-11
3.32979e-11
-4.09184e-11
3.95864e-11
-4.23185e-11
4.65706e-11
-4.33588e-11
5.42727e-11
-4.40106e-11
6.27473e-11
-4.42777e-11
7.2003e-11
-4.4132e-11
8.21001e-11
-4.35702e-11
9.30232e-11
-4.25758e-11
1.04838e-10
-4.1127e-11
1.17492e-10
-3.92443e-11
1.30879e-10
-3.68655e-11
1.44761e-10
-3.40754e-11
1.5874e-10
-3.16925e-11
1.57484e-10
-2.90885e-11
1.39444e-10
-2.43806e-11
1.37671e-10
-2.80663e-11
1.19288e-10
-3.24328e-11
9.63422e-11
-3.88958e-11
6.45193e-11
-5.00372e-11
4.00604e-11
-6.14047e-11
1.75973e-11
-7.01552e-11
-3.38128e-12
-7.66997e-11
-2.38754e-11
-8.24572e-11
-4.47581e-11
-8.71022e-11
-6.43564e-11
-9.28838e-11
-8.28518e-11
-9.77499e-11
-1.00022e-10
-1.01877e-10
-1.14107e-10
-1.05878e-10
-1.23934e-10
-1.10331e-10
-1.30994e-10
-1.13603e-10
-1.36652e-10
-1.15651e-10
-1.42431e-10
-1.16367e-10
-1.48801e-10
-1.1684e-10
-1.55885e-10
-1.17435e-10
-1.63907e-10
-1.17997e-10
-1.72931e-10
-1.1865e-10
-1.82988e-10
-1.19406e-10
-1.94009e-10
-1.20355e-10
-1.21502e-10
-2.05915e-10
-3.2826e-13
-2.50016e-12
-1.0637e-12
-7.29248e-12
-2.06033e-12
-1.18408e-11
-3.22746e-12
-1.61345e-11
-4.47525e-12
-2.01791e-11
-5.71716e-12
-2.39778e-11
-6.86129e-12
-2.75316e-11
-7.81972e-12
-3.08438e-11
-8.49576e-12
-3.39136e-11
-8.79696e-12
-3.67442e-11
-8.61761e-12
-3.93322e-11
-7.85566e-12
-4.16804e-11
-6.39187e-12
-4.37823e-11
-4.10939e-12
-4.56412e-11
-8.73613e-13
-4.72464e-11
3.45193e-12
-4.86032e-11
9.01623e-12
-4.96963e-11
1.59803e-11
-5.05342e-11
2.45018e-11
-5.10973e-11
3.47725e-11
-5.13977e-11
4.69415e-11
-5.14133e-11
6.12358e-11
-5.11598e-11
7.77782e-11
-5.06178e-11
9.58923e-11
-4.98065e-11
1.15492e-10
-4.8688e-11
1.42813e-10
-4.81548e-11
1.76851e-10
-4.74391e-11
1.81598e-10
-4.61976e-11
1.91578e-10
-4.9099e-11
1.93751e-10
-5.22103e-11
1.88153e-10
-5.58066e-11
1.77564e-10
-5.95664e-11
1.63715e-10
-6.28508e-11
1.46861e-10
-6.56032e-11
1.28463e-10
-6.87039e-11
1.08471e-10
-7.28922e-11
8.85719e-11
-7.78509e-11
6.88695e-11
-8.2175e-11
4.7522e-11
-8.45305e-11
2.60368e-11
-8.88456e-11
1.01915e-11
-9.77578e-11
4.23929e-12
-1.09698e-10
4.05153e-12
-1.1618e-10
3.46462e-12
-1.16253e-10
-2.04638e-14
-1.1395e-10
-5.78585e-12
-1.12231e-10
-1.38328e-11
-1.10603e-10
-2.36671e-11
-1.09571e-10
-3.48273e-11
-1.09195e-10
-1.09059e-10
-4.72711e-11
-2.28729e-13
-2.27142e-12
-8.74161e-13
-6.64704e-12
-1.86261e-12
-1.08524e-11
-3.10931e-12
-1.48878e-11
-4.53431e-12
-1.87541e-11
-6.06125e-12
-2.24509e-11
-7.6153e-12
-2.59775e-11
-9.12481e-12
-2.93343e-11
-1.05178e-11
-3.25206e-11
-1.17245e-11
-3.55375e-11
-1.26718e-11
-3.83848e-11
-1.32878e-11
-4.10644e-11
-1.34943e-11
-4.35758e-11
-1.32134e-11
-4.59221e-11
-1.23572e-11
-4.81025e-11
-1.0839e-11
-5.01215e-11
-8.5582e-12
-5.19771e-11
-5.41631e-12
-5.36761e-11
-1.29919e-12
-5.52144e-11
3.90554e-12
-5.66025e-11
1.03241e-11
-5.78319e-11
1.80838e-11
-5.89196e-11
2.73162e-11
-5.98501e-11
3.81595e-11
-6.06499e-11
5.07723e-11
-6.13009e-11
6.44515e-11
-6.18341e-11
7.92459e-11
-6.22335e-11
9.62374e-11
-6.30026e-11
9.50914e-11
-6.3691e-11
1.05041e-10
-6.44487e-11
1.14945e-10
-6.57554e-11
1.22525e-10
-6.71465e-11
1.2792e-10
-6.82464e-11
1.3153e-10
-6.92129e-11
1.3297e-10
-7.01435e-11
1.31235e-10
-7.11574e-11
1.25613e-10
-7.22284e-11
1.16737e-10
-7.32999e-11
1.06564e-10
-7.43571e-11
9.46309e-11
-7.69124e-11
8.41637e-11
-8.72907e-11
8.13906e-11
-1.06925e-10
6.96234e-11
-1.04412e-10
5.35961e-11
-1.00226e-10
4.0881e-11
-1.01235e-10
2.99759e-11
-1.01326e-10
1.95416e-11
-1.00169e-10
1.05814e-11
-1.00611e-10
1.36216e-12
-9.99756e-11
-9.84728e-11
-9.22378e-12
-7.08472e-14
-2.20057e-12
-2.54227e-13
-6.46366e-12
-5.19258e-13
-1.05873e-11
-8.3356e-13
-1.45735e-11
-1.16471e-12
-1.84229e-11
-1.48127e-12
-2.21343e-11
-1.75254e-12
-2.57062e-11
-1.94909e-12
-2.91377e-11
-2.04189e-12
-3.24278e-11
-2.00283e-12
-3.55766e-11
-1.8038e-12
-3.85839e-11
-1.41759e-12
-4.14506e-11
-8.16587e-13
-4.41768e-11
2.58543e-14
-4.67646e-11
1.13761e-12
-4.92143e-11
2.54513e-12
-5.1529e-11
4.27718e-12
-5.37091e-11
6.36005e-12
-5.5759e-11
8.82439e-12
-5.76787e-11
1.16961e-11
-5.94742e-11
1.50091e-11
-6.11449e-11
1.87879e-11
-6.26984e-11
2.30706e-11
-6.41328e-11
2.78789e-11
-6.54582e-11
3.32473e-11
-6.66693e-11
3.91944e-11
-6.77811e-11
4.57424e-11
-6.87815e-11
5.24292e-11
-6.96894e-11
5.92061e-11
-7.04679e-11
6.59559e-11
-7.12399e-11
6.31562e-11
-7.18746e-11
6.7469e-11
-7.22626e-11
7.22633e-11
-7.30647e-11
7.68837e-11
-7.38333e-11
8.11507e-11
-7.44105e-11
8.49303e-11
-7.4937e-11
8.80879e-11
-7.53861e-11
9.05813e-11
-7.57933e-11
9.24501e-11
-7.62259e-11
9.24219e-11
-7.68841e-11
8.3028e-11
-7.78968e-11
5.52391e-11
-7.91365e-11
3.03328e-11
-7.95059e-11
1.12015e-11
-8.10946e-11
-4.82668e-12
-8.5207e-11
-1.76519e-11
-8.85011e-11
-2.72948e-11
-9.05258e-11
-3.51473e-11
-9.27587e-11
-4.2489e-11
-9.26339e-11
-8.84769e-11
-5.24849e-11
-6.64502e-15
-2.19393e-12
-9.81809e-15
-6.46049e-12
3.45666e-15
-1.06006e-11
4.43132e-14
-1.46144e-11
1.24149e-13
-1.85028e-11
2.54761e-13
-2.22649e-11
4.48566e-13
-2.59e-11
7.1804e-13
-2.94072e-11
1.07583e-12
-3.27856e-11
1.53422e-12
-3.6035e-11
2.10551e-12
-3.91551e-11
2.80117e-12
-4.21462e-11
3.63235e-12
-4.5008e-11
4.60906e-12
-4.77413e-11
5.7407e-12
-5.03459e-11
7.03499e-12
-5.28233e-11
8.49885e-12
-5.5173e-11
1.0137e-11
-5.73971e-11
1.1953e-11
-5.94948e-11
1.3948e-11
-6.14691e-11
1.61214e-11
-6.33183e-11
1.84695e-11
-6.50465e-11
2.09879e-11
-6.66511e-11
2.36671e-11
-6.81374e-11
2.64988e-11
-6.9501e-11
2.94668e-11
-7.07491e-11
3.25602e-11
-7.18748e-11
3.57588e-11
-7.2888e-11
3.90696e-11
-7.37787e-11
4.23861e-11
-7.45564e-11
4.57148e-11
-7.52033e-11
4.94437e-11
-7.58147e-11
4.70927e-11
-7.63132e-11
4.91118e-11
-7.65554e-11
5.17895e-11
-7.72623e-11
5.46549e-11
-7.78025e-11
5.74783e-11
-7.82094e-11
6.02357e-11
-7.85507e-11
6.28054e-11
-7.87956e-11
6.48364e-11
-7.89151e-11
6.58284e-11
-7.88887e-11
6.55595e-11
-7.88676e-11
6.51283e-11
-7.90747e-11
6.36246e-11
-7.95909e-11
5.87608e-11
-8.03432e-11
5.12455e-11
-8.09858e-11
4.22936e-11
-8.15738e-11
3.1738e-11
-8.2203e-11
2.16375e-11
-8.25334e-11
-8.25966e-11
1.57571e-11
-2.28509e-16
-2.1937e-12
-5.1126e-15
-6.45561e-12
-1.05882e-14
-1.05951e-11
-9.0372e-15
-1.46159e-11
6.97154e-15
-1.85188e-11
4.50666e-14
-2.2303e-11
1.13073e-13
-2.5968e-11
2.18838e-13
-2.9513e-11
3.70319e-13
-3.29371e-11
5.75344e-13
-3.624e-11
8.41533e-13
-3.94213e-11
1.17628e-12
-4.2481e-11
1.58695e-12
-4.54187e-11
2.08018e-12
-4.82345e-11
2.66263e-12
-5.09284e-11
3.34002e-12
-5.35007e-11
4.11826e-12
-5.59512e-11
5.00183e-12
-5.82807e-11
5.9958e-12
-6.04888e-11
7.10312e-12
-6.25764e-11
8.32824e-12
-6.45434e-11
9.67249e-12
-6.63908e-11
1.11396e-11
-6.81182e-11
1.27291e-11
-6.97269e-11
1.44447e-11
-7.12167e-11
1.62843e-11
-7.25886e-11
1.8252e-11
-7.38426e-11
2.03434e-11
-7.49795e-11
2.25647e-11
-7.6e-11
2.49128e-11
-7.69045e-11
2.74048e-11
-7.76953e-11
2.99591e-11
-7.83691e-11
3.25691e-11
-7.89232e-11
3.59549e-11
-7.94364e-11
3.63297e-11
-7.98421e-11
3.70526e-11
-8.00994e-11
3.91422e-11
-8.05958e-11
4.14842e-11
-8.08927e-11
4.37733e-11
-8.10848e-11
4.60392e-11
-8.1181e-11
4.83658e-11
-8.12154e-11
5.07379e-11
-8.12397e-11
5.29602e-11
-8.1297e-11
5.48091e-11
-8.14399e-11
5.60684e-11
-8.16025e-11
5.67973e-11
-8.17147e-11
5.70151e-11
-8.17916e-11
5.66443e-11
-8.18323e-11
5.59221e-11
-8.18111e-11
-8.1677e-11
5.50025e-11
-1.69065e-14
-2.17679e-12
-4.48819e-14
-6.42763e-12
-7.25183e-14
-1.05675e-11
-9.50196e-14
-1.45934e-11
-1.08117e-13
-1.85057e-11
-1.07177e-13
-2.2304e-11
-8.72717e-14
-2.59879e-11
-4.31814e-14
-2.95571e-11
3.05576e-14
-3.30108e-11
1.39456e-13
-3.63489e-11
2.89193e-13
-3.95711e-11
4.85323e-13
-4.26771e-11
7.33575e-13
-4.56669e-11
1.03949e-12
-4.85404e-11
1.40879e-12
-5.12977e-11
1.8469e-12
-5.39388e-11
2.35948e-12
-5.64638e-11
2.95174e-12
-5.88729e-11
3.62929e-12
-6.11664e-11
4.39722e-12
-6.33444e-11
5.26111e-12
-6.54073e-11
6.22579e-12
-6.73554e-11
7.29691e-12
-6.91894e-11
8.47906e-12
-7.09091e-11
9.77795e-12
-7.25156e-11
1.11983e-11
-7.40089e-11
1.27457e-11
-7.539e-11
1.44252e-11
-7.66589e-11
1.6242e-11
-7.78169e-11
1.82012e-11
-7.88637e-11
2.03071e-11
-7.98011e-11
2.25668e-11
-8.06288e-11
2.49922e-11
-8.13485e-11
2.75153e-11
-8.19595e-11
3.01352e-11
-8.2462e-11
3.32645e-11
-8.28989e-11
3.78955e-11
-8.32336e-11
3.86375e-11
-8.35149e-11
4.12094e-11
-8.36876e-11
4.38097e-11
-8.37813e-11
4.6403e-11
-8.38087e-11
4.89483e-11
-8.37849e-11
5.14212e-11
-8.37699e-11
5.37942e-11
-8.38128e-11
5.60588e-11
-8.38671e-11
5.82332e-11
-8.3889e-11
6.0304e-11
-8.38625e-11
6.22312e-11
-8.37595e-11
6.39547e-11
-8.35346e-11
-8.31325e-11
6.54102e-11
9.68202e-15
2.37993e-14
3.99898e-14
6.11948e-14
8.99978e-14
1.29192e-13
1.81864e-13
2.51428e-13
3.41792e-13
4.57015e-13
6.01394e-13
7.7938e-13
9.95542e-13
1.25451e-12
1.56098e-12
1.91963e-12
2.3351e-12
2.81202e-12
3.35493e-12
3.9683e-12
4.65637e-12
5.4233e-12
6.2729e-12
7.20908e-12
8.23497e-12
9.3538e-12
1.05681e-11
1.18804e-11
1.32921e-11
1.48051e-11
1.64194e-11
1.81359e-11
1.99529e-11
2.1871e-11
2.38893e-11
2.5968e-11
2.80754e-11
2.99527e-11
2.9861e-11
3.18592e-11
3.38471e-11
3.57842e-11
3.76605e-11
3.94741e-11
4.12262e-11
4.29194e-11
4.45301e-11
4.60175e-11
4.73228e-11
4.83837e-11
-8.52608e-10
-5.24691e-10
-9.04313e-10
-5.28514e-10
-9.56453e-10
-5.31642e-10
-1.00898e-09
-5.34159e-10
-1.06184e-09
-5.36143e-10
-1.11499e-09
-5.37666e-10
-1.16837e-09
-5.3879e-10
-1.22193e-09
-5.39576e-10
-1.27561e-09
-5.40073e-10
-1.32931e-09
-5.40328e-10
-1.38296e-09
-5.40378e-10
-1.43645e-09
-5.40248e-10
-1.48965e-09
-5.39955e-10
-1.54239e-09
-5.39502e-10
-1.59449e-09
-5.38889e-10
-1.64565e-09
-5.38131e-10
-1.69565e-09
-5.37184e-10
-1.74456e-09
-5.35859e-10
-1.78884e-09
-5.33906e-10
-1.83144e-09
-5.31356e-10
-1.87293e-09
-5.28447e-10
-1.91435e-09
-5.25795e-10
-1.95418e-09
-5.24601e-10
-1.99299e-09
-5.23927e-10
-2.03042e-09
-5.23225e-10
-2.06674e-09
-5.22897e-10
-2.10368e-09
-5.22337e-10
-2.13737e-09
-5.22495e-10
-2.17024e-09
-5.21749e-10
-2.20242e-09
-5.21129e-10
-2.23393e-09
-5.20761e-10
-2.26502e-09
-5.20379e-10
-2.29583e-09
-5.19949e-10
-2.32649e-09
-5.19436e-10
-2.35705e-09
-5.18853e-10
-2.38757e-09
-5.18184e-10
-2.41808e-09
-5.17442e-10
-2.44858e-09
-5.1663e-10
-2.47908e-09
-5.15757e-10
-2.50958e-09
-5.14819e-10
-2.5401e-09
-5.13817e-10
-2.57062e-09
-5.12753e-10
-2.60116e-09
-5.11629e-10
-2.63173e-09
-5.10447e-10
-2.66233e-09
-5.0921e-10
-2.69298e-09
-5.07925e-10
-2.72369e-09
-5.06597e-10
-2.75447e-09
-5.05232e-10
-2.78533e-09
-5.03831e-10
-5.0266e-10
-2.81571e-09
-6.74264e-10
-4.76367e-10
-7.23054e-10
-4.79724e-10
-7.72223e-10
-4.82473e-10
-8.21691e-10
-4.84691e-10
-8.71386e-10
-4.86448e-10
-9.21241e-10
-4.87811e-10
-9.71188e-10
-4.88844e-10
-1.02116e-09
-4.89607e-10
-1.07107e-09
-4.9016e-10
-1.12084e-09
-4.90557e-10
-1.17037e-09
-4.90851e-10
-1.21953e-09
-4.91088e-10
-1.26817e-09
-4.91309e-10
-1.31613e-09
-4.91542e-10
-1.36323e-09
-4.91797e-10
-1.40932e-09
-4.92041e-10
-1.45429e-09
-4.92213e-10
-1.49808e-09
-4.92071e-10
-1.5401e-09
-4.91877e-10
-1.58054e-09
-4.90919e-10
-1.61867e-09
-4.90316e-10
-1.65556e-09
-4.88909e-10
-1.69113e-09
-4.8903e-10
-1.72675e-09
-4.88307e-10
-1.76078e-09
-4.89192e-10
-1.79353e-09
-4.90152e-10
-1.82509e-09
-4.90773e-10
-1.85789e-09
-4.89702e-10
-1.89122e-09
-4.88414e-10
-1.92345e-09
-4.88896e-10
-1.95499e-09
-4.89221e-10
-1.98601e-09
-4.89362e-10
-2.01679e-09
-4.89171e-10
-2.0473e-09
-4.88924e-10
-2.07763e-09
-4.88526e-10
-2.10782e-09
-4.87992e-10
-2.13795e-09
-4.87312e-10
-2.16796e-09
-4.86622e-10
-2.19785e-09
-4.85866e-10
-2.22761e-09
-4.85055e-10
-2.25724e-09
-4.84186e-10
-2.28673e-09
-4.8326e-10
-2.31608e-09
-4.8228e-10
-2.34529e-09
-4.81242e-10
-2.37435e-09
-4.80148e-10
-2.40327e-09
-4.79001e-10
-2.43207e-09
-4.77803e-10
-2.46074e-09
-4.76556e-10
-2.48931e-09
-4.75262e-10
-4.73759e-10
-2.51821e-09
-6.35494e-10
-4.34598e-10
-6.77449e-10
-4.37769e-10
-7.19518e-10
-4.40404e-10
-7.61644e-10
-4.42565e-10
-8.03779e-10
-4.44313e-10
-8.45886e-10
-4.45704e-10
-8.87939e-10
-4.46791e-10
-9.29918e-10
-4.47628e-10
-9.71812e-10
-4.48265e-10
-1.01362e-09
-4.48751e-10
-1.05533e-09
-4.49134e-10
-1.09697e-09
-4.49457e-10
-1.13851e-09
-4.49764e-10
-1.17997e-09
-4.50087e-10
-1.22131e-09
-4.50454e-10
-1.26248e-09
-4.50875e-10
-1.30332e-09
-4.51365e-10
-1.34343e-09
-4.51965e-10
-1.3827e-09
-4.52603e-10
-1.42036e-09
-4.53259e-10
-1.4566e-09
-4.54081e-10
-1.49017e-09
-4.55338e-10
-1.5227e-09
-4.56504e-10
-1.55306e-09
-4.57944e-10
-1.58356e-09
-4.58689e-10
-1.61464e-09
-4.59069e-10
-1.64643e-09
-4.5899e-10
-1.67752e-09
-4.58604e-10
-1.7079e-09
-4.58036e-10
-1.73874e-09
-4.5806e-10
-1.7696e-09
-4.58361e-10
-1.80062e-09
-4.58338e-10
-1.8318e-09
-4.57992e-10
-1.86321e-09
-4.57515e-10
-1.89481e-09
-4.56929e-10
-1.92652e-09
-4.56281e-10
-1.95838e-09
-4.55451e-10
-1.99042e-09
-4.54585e-10
-2.02252e-09
-4.53765e-10
-2.05469e-09
-4.52887e-10
-2.08691e-09
-4.51962e-10
-2.11915e-09
-4.51016e-10
-2.15139e-09
-4.50046e-10
-2.18359e-09
-4.49037e-10
-2.21576e-09
-4.47979e-10
-2.24786e-09
-4.46897e-10
-2.27988e-09
-4.45791e-10
-2.31178e-09
-4.44658e-10
-2.34354e-09
-4.43494e-10
-4.42425e-10
-2.37488e-09
-5.35764e-10
-3.97344e-10
-5.73071e-10
-4.00462e-10
-6.10353e-10
-4.03122e-10
-6.47542e-10
-4.05376e-10
-6.84584e-10
-4.07271e-10
-7.21435e-10
-4.08853e-10
-7.58062e-10
-4.10164e-10
-7.94446e-10
-4.11245e-10
-8.30577e-10
-4.12134e-10
-8.66459e-10
-4.12869e-10
-9.02109e-10
-4.13484e-10
-9.37553e-10
-4.14014e-10
-9.72824e-10
-4.14493e-10
-1.00795e-09
-4.14961e-10
-1.04294e-09
-4.15465e-10
-1.07774e-09
-4.16071e-10
-1.11225e-09
-4.16859e-10
-1.14641e-09
-4.17806e-10
-1.18e-09
-4.19008e-10
-1.21305e-09
-4.20211e-10