/*--------------------------------*- C++ -*----------------------------------*\
| =========                 |                                                 |
| \\      /  F ield         | OpenFOAM: The Open Source CFD Toolbox           |
|  \\    /   O peration     | Version:  2.4.0                                 |
|   \\  /    A nd           | Web:      www.OpenFOAM.org                      |
|    \\/     M anipulation  |                                                 |
\*---------------------------------------------------------------------------*/
FoamFile
{
    version     2.0;
    format      ascii;
    class       volScalarField;
    location    "4.1";
    object      H;
}
// * * * * * * * * * * * * * * * * * * * * * * * * * * * * * * * * * * * * * //

dimensions      [0 2 -2 0 0 0 0];

internalField   nonuniform List<scalar> 
8000
(
-11862
-11122.7
-10373.9
-9610.48
-8828.92
-8027.25
-7205.38
-6365.55
-5511.97
-4650.53
-3795.11
-2973.44
-2207.56
-1416.14
-637.559
-57.1283
-0.428146
-15.3089
-22.2376
-23.5583
-22.456
-21.0547
-19.3729
-17.4762
-15.4919
-13.5552
-11.7982
-10.2979
-9.00027
-7.84824
-6.8178
-5.89148
-5.05567
-4.28963
-3.56467
-2.87053
-2.22823
-1.65989
-1.19822
-0.847154
-0.5964
-0.426996
-0.317326
-0.248345
-0.205846
-0.180102
-0.164766
-0.15603
-0.151595
-0.149776
-11735.8
-10741.2
-9731.2
-8699.54
-7643.74
-6565.37
-5471.24
-4378.12
-3299.92
-2147.08
-1002.39
-5.07797
-0.0882206
-0.0781432
-0.0466651
-0.0155011
-0.618785
-1.31794
-1.88281
-2.24435
-2.46125
-2.60751
-2.71504
-2.78779
-2.82436
-2.82436
-2.79024
-2.72638
-2.63307
-2.5081
-2.35195
-2.16668
-1.95642
-1.73318
-1.5071
-1.28512
-1.07286
-0.872535
-0.691393
-0.53726
-0.414564
-0.323024
-0.258477
-0.215044
-0.186878
-0.169079
-0.158137
-0.15169
-0.148204
-0.146521
-11500.7
-10031.7
-8540.17
-7021.3
-5474.65
-3890.61
-2248.07
-606.927
-376.712
-4.51655
-0.260176
-0.261187
-0.272435
-0.353379
-0.467701
-0.590895
-0.713462
-0.825093
-0.928244
-1.02463
-1.11375
-1.1941
-1.26348
-1.31919
-1.35857
-1.37941
-1.3802
-1.36006
-1.31876
-1.26143
-1.19328
-1.1192
-1.0437
-0.962668
-0.872746
-0.774412
-0.671394
-0.569149
-0.473618
-0.389806
-0.320701
-0.266917
-0.227133
-0.198958
-0.179694
-0.166785
-0.158241
-0.152777
-0.149356
-0.147255
-11196
-9113.91
-7006
-4868.89
-2673.34
-485.454
-13.8185
-0.907082
-0.382923
-0.866088
-1.21911
-1.42518
-1.55537
-1.61683
-1.60654
-1.54158
-1.45418
-1.36769
-1.29528
-1.23987
-1.19795
-1.16407
-1.13301
-1.10082
-1.06536
-1.02623
-0.984804
-0.94305
-0.902588
-0.861803
-0.819255
-0.773927
-0.725762
-0.674206
-0.618779
-0.559944
-0.499251
-0.439119
-0.382322
-0.331367
-0.287933
-0.252603
-0.224975
-0.204192
-0.188976
-0.178003
-0.169945
-0.164197
-0.160043
-0.157003
-10843.6
-8075.75
-5341.49
-2715.26
-23.1849
-2.4118
-4.78172
-6.42914
-7.39255
-7.72665
-7.61807
-7.1647
-6.46162
-5.61242
-4.71492
-3.85408
-3.0956
-2.47984
-2.03075
-1.7224
-1.50793
-1.35214
-1.23344
-1.13809
-1.05741
-0.986275
-0.92177
-0.862516
-0.807687
-0.756522
-0.708142
-0.662063
-0.617844
-0.575037
-0.53284
-0.490995
-0.449725
-0.409691
-0.371836
-0.337178
-0.306499
-0.280119
-0.258084
-0.240045
-0.225599
-0.214161
-0.205075
-0.197729
-0.191814
-0.186984
-10797.4
-7817.4
-4388.71
-20.5352
-10.8292
-14.2983
-20.2982
-23.6455
-24.3785
-23.4131
-21.4572
-19.0793
-16.6541
-14.3517
-12.2475
-10.3653
-8.70611
-7.26464
-6.03483
-5.00798
-4.175
-3.51364
-2.99386
-2.58568
-2.2629
-2.00402
-1.79234
-1.6158
-1.46611
-1.33711
-1.22411
-1.12304
-1.03114
-0.947096
-0.869793
-0.798304
-0.732226
-0.671365
-0.615717
-0.565403
-0.520498
-0.480786
-0.445779
-0.414948
-0.388088
-0.364784
-0.344633
-0.327066
-0.311755
-0.298367
-10940.6
-8383.89
-5886.83
-3461.6
-42.2719
-31.4197
-25.0373
-18.8806
-15.0781
-12.4068
-10.4673
-9.02519
-7.94607
-7.11672
-6.46712
-5.94395
-5.51073
-5.14125
-4.81501
-4.51522
-4.23549
-3.97438
-3.73211
-3.50887
-3.3039
-3.11945
-2.95114
-2.79418
-2.64482
-2.50137
-2.3641
-2.23276
-2.10692
-1.98625
-1.87047
-1.7594
-1.6532
-1.55213
-1.45642
-1.36645
-1.28243
-1.20439
-1.13202
-1.06489
-1.0027
-0.945277
-0.892091
-0.843049
-0.797661
-0.755584
-11017.7
-8651.78
-6431.83
-4389.24
-2446.15
-17.4797
-4.34364
-2.866
-1.25313
-1.74847
-1.49789
-1.31443
-1.15477
-1.01928
-0.913874
-0.84309
-0.808104
-0.809655
-0.849734
-0.880838
-0.902563
-0.923297
-0.949072
-0.982985
-1.02635
-1.07941
-1.14169
-1.21127
-1.28655
-1.3628
-1.43439
-1.4968
-1.54872
-1.59004
-1.62085
-1.64151
-1.65244
-1.65408
-1.64686
-1.63026
-1.60573
-1.57513
-1.5404
-1.50252
-1.46167
-1.41892
-1.37558
-1.33213
-1.28894
-1.24725
-11351.9
-9625.37
-7976.26
-6436.18
-5023
-3745.83
-2612.22
-1630.09
-816.643
-6.1985
-1.57765
-1.32963
-1.04891
-0.798915
-0.572001
-0.377439
-0.211186
-0.0744182
-0.370579
-0.445029
-0.428587
-0.388544
-0.34583
-0.305632
-0.269556
-0.238586
-0.213734
-0.196245
-0.187763
-0.190739
-0.207063
-0.235461
-0.251812
-0.263938
-0.278989
-0.301263
-0.333521
-0.377817
-0.435519
-0.507243
-0.588767
-0.675257
-0.762691
-0.846871
-0.924146
-0.993234
-1.05385
-1.10437
-1.14325
-1.17062
-11519.2
-10117
-8768.9
-7503
-6339.11
-5288.67
-4355.45
-3536.99
-2827.69
-2220.04
-1707.07
-1280.14
-931.813
-653.583
-436.406
-270.412
-144.36
-46.2244
-0.984557
-0.702616
-0.628364
-0.556944
-0.487665
-0.420701
-0.355913
-0.292993
-0.231464
-0.170755
-0.109684
-0.0502662
-0.00203498
-0.154395
-0.171414
-0.153294
-0.130472
-0.1095
-0.0924219
-0.0808247
-0.0767188
-0.082051
-0.0970103
-0.106524
-0.114528
-0.12665
-0.147574
-0.181013
-0.229395
-0.292734
-0.366701
-0.446497
-11614.5
-10398
-9221.96
-8108.57
-7075.06
-6133.19
-5289.25
-4544.56
-3896.27
-3338.4
-2862.7
-2459.6
-2119.02
-1831.07
-1586.64
-1377.72
-1197.55
-1040.6
-902.504
-779.78
-669.821
-570.674
-480.817
-399.05
-324.412
-256.127
-193.565
-136.197
-83.4858
-36.33
-0.567761
-0.353525
-0.302904
-0.254921
-0.208742
-0.164189
-0.1209
-0.0781161
-0.0369683
-0.00110711
-0.0728705
-0.0826827
-0.0718087
-0.0579359
-0.0466875
-0.0407339
-0.0459163
-0.0514185
-0.0574838
-0.069217
-11704.5
-10665.1
-9657.46
-8698.33
-7800.22
-6971.47
-6216.5
-5536.25
-4928.84
-4390.2
-3914.81
-3496.31
-3128.08
-2803.62
-2516.9
-2262.5
-2035.73
-1832.64
-1649.92
-1484.89
-1335.31
-1199.38
-1075.58
-962.611
-859.377
-764.901
-678.314
-598.83
-525.729
-458.359
-396.136
-338.479
-284.865
-234.871
-188.131
-144.329
-103.159
-64.3456
-29.033
-0.37447
-0.203815
-0.163632
-0.125108
-0.0876387
-0.0498746
-0.00853224
-0.0339052
-0.0392762
-0.0333408
-0.0255822
-11782.9
-10896.7
-10033
-9203.75
-8417.66
-7680.8
-6996.51
-6365.88
-5788.13
-5261.15
-4781.86
-4346.67
-3951.8
-3593.49
-3268.18
-2972.64
-2703.94
-2459.53
-2237.12
-2034.72
-1850.53
-1682.93
-1530.44
-1391.66
-1265.31
-1150.16
-1045.08
-949.002
-860.951
-780.024
-705.403
-636.357
-572.237
-512.474
-456.575
-404.118
-354.74
-308.134
-264.04
-222.253
-182.55
-144.732
-108.699
-74.4103
-41.0808
-6.3586
-0.146184
-0.0815953
-0.0474095
-0.0187153
-11841.6
-11070.3
-10314
-9580.83
-8876.87
-8206.59
-7572.77
-6976.88
-6419.27
-5899.49
-5416.48
-4968.82
-4554.88
-4172.92
-3821.17
-3497.92
-3201.45
-2930.1
-2682.22
-2456.18
-2250.38
-2063.21
-1893.08
-1738.42
-1597.71
-1469.47
-1352.32
-1244.95
-1146.17
-1054.87
-970.1
-891.004
-816.849
-747.018
-680.995
-618.363
-558.79
-502.019
-447.861
-396.179
-346.88
-299.904
-255.238
-212.9
-172.948
-135.483
-100.659
-68.4229
-38.9136
-14.5257
-11881.6
-11188.4
-10505.1
-9837.34
-9189.5
-8565.14
-7966.89
-7396.64
-6855.65
-6344.66
-5863.97
-5413.59
-4993.23
-4602.36
-4240.28
-3906.05
-3598.6
-3316.66
-3058.84
-2823.59
-2609.28
-2414.2
-2236.59
-2074.7
-1926.79
-1791.2
-1666.34
-1550.77
-1443.13
-1342.25
-1247.09
-1156.76
-1070.52
-987.783
-908.085
-831.086
-756.559
-684.375
-614.491
-546.939
-481.8
-419.193
-359.363
-302.622
-249.284
-199.663
-154.052
-112.933
-76.5305
-45.4923
-11908.1
-11266.8
-10632.6
-10009.6
-9401.38
-8811.12
-8241.39
-7694.4
-7171.91
-6675.32
-6205.66
-5763.62
-5349.55
-4963.46
-4605.03
-4273.62
-3968.32
-3687.93
-3431.03
-3196.01
-2981.1
-2784.46
-2604.18
-2438.37
-2285.16
-2142.78
-2009.58
-1884.04
-1764.81
-1650.72
-1540.76
-1434.12
-1330.14
-1228.35
-1128.43
-1030.21
-933.65
-838.837
-745.988
-655.432
-567.598
-482.99
-402.185
-325.749
-254.422
-189.034
-129.734
-79.3155
-33.5861
-0.154039
-11929.4
-11330.1
-10736.5
-10152.1
-9580.1
-9023.23
-8484.08
-7964.89
-7467.58
-6993.73
-6544.55
-6120.92
-5723.28
-5351.73
-5005.98
-4685.37
-4388.94
-4115.42
-3863.3
-3630.87
-3416.31
-3217.69
-3033.06
-2860.5
-2698.14
-2544.23
-2397.17
-2255.5
-2117.96
-1983.49
-1851.21
-1720.47
-1590.78
-1461.86
-1333.6
-1206.08
-1079.53
-954.362
-831.162
-710.74
-594.004
-481.944
-375.815
-275.71
-184.264
-103.605
-23.7363
-0.111671
-0.00158224
-3.00191e-05
-11947.5
-11384.2
-10826.3
-10276.9
-9738.98
-9215.18
-8707.91
-8219.29
-7751.08
-7304.71
-6881.22
-6481.28
-6105.14
-5752.68
-5423.4
-5116.45
-4830.68
-4564.67
-4316.8
-4085.29
-3868.25
-3663.76
-3469.89
-3284.78
-3106.67
-2933.92
-2765.09
-2598.89
-2434.27
-2270.36
-2106.54
-1942.38
-1777.68
-1612.44
-1446.88
-1281.46
-1116.8
-953.778
-793.609
-638.4
-489.379
-348.026
-221.165
-92.2049
-0.426492
-0.00526134
-0.00086242
-0.00232058
-0.00439294
-0.00793129
-11963.8
-11433.4
-10908.5
-10392.2
-9887.31
-9396.39
-8921.56
-8464.64
-8027.05
-7609.82
-7213.61
-6838.66
-6484.83
-6151.63
-5838.21
-5543.45
-5265.97
-5004.16
-4756.29
-4520.53
-4294.98
-4077.79
-3867.13
-3661.31
-3458.74
-3258.04
-3057.99
-2857.62
-2656.16
-2453.07
-2248.03
-2040.97
-1832.01
-1621.56
-1410.36
-1199.36
-989.576
-782.183
-577.786
-390.53
-208.157
-24.6683
-0.123637
-0.00381402
-0.000874586
-0.00728834
-0.0139609
-0.0226555
-0.033729
-0.0450466
-11978.6
-11477.8
-10983.2
-10497.8
-10024.3
-9565.02
-9121.65
-8695.52
-8287.54
-7898.19
-7527.58
-7175.4
-6841.03
-6523.5
-6221.62
-5933.92
-5658.8
-5394.52
-5139.26
-4891.19
-4648.52
-4409.51
-4172.59
-3936.32
-3699.46
-3461
-3220.15
-2976.34
-2729.23
-2478.7
-2224.84
-1967.98
-1708.64
-1447.63
-1186.83
-927.146
-667.65
-413.404
-113.921
-0.538339
-0.0100816
-0.00140878
-0.0277143
-0.0498513
-0.0734414
-0.093423
-0.108695
-0.119531
-0.12878
-0.13619
-0.14918
-0.149639
-0.150709
-0.152006
-0.15318
-0.153933
-0.154858
-0.155652
-0.156164
-0.156338
-0.156142
-0.155558
-0.154582
-0.153218
-0.151454
-0.149269
-0.146744
-0.14383
-0.140507
-0.136772
-0.132634
-0.128113
-0.12324
-0.118053
-0.112598
-0.106927
-0.101099
-0.0951728
-0.0892099
-0.0832705
-0.077412
-0.0716882
-0.0661474
-0.060832
-0.055778
-0.0510143
-0.0465634
-0.0424411
-0.0386572
-0.0352158
-0.0321157
-0.0293515
-0.0269139
-0.0247901
-0.0229649
-0.0214211
-0.0201399
-0.0191014
-0.0182854
-0.0176714
-0.145698
-0.145589
-0.145961
-0.146559
-0.147117
-0.147293
-0.147757
-0.148098
-0.148216
-0.148057
-0.147586
-0.146786
-0.145645
-0.144161
-0.142336
-0.140159
-0.137659
-0.134834
-0.131671
-0.128177
-0.124366
-0.120259
-0.115885
-0.111282
-0.106488
-0.101549
-0.0965112
-0.0914227
-0.0863314
-0.0812838
-0.0763241
-0.0714931
-0.0668275
-0.0623592
-0.0581156
-0.054119
-0.0503867
-0.0469315
-0.0437615
-0.0408813
-0.038291
-0.0359883
-0.0339676
-0.0322214
-0.0307399
-0.0295122
-0.0285258
-0.0277678
-0.0272239
-0.0268809
-0.145811
-0.144896
-0.144383
-0.144127
-0.143942
-0.143522
-0.143306
-0.143068
-0.142713
-0.142192
-0.141468
-0.140517
-0.139325
-0.13788
-0.13618
-0.134223
-0.132011
-0.129553
-0.126847
-0.123901
-0.120727
-0.117345
-0.113777
-0.11005
-0.106194
-0.102241
-0.0982248
-0.0941775
-0.0901302
-0.0861087
-0.0821284
-0.0782846
-0.074613
-0.0711145
-0.0678013
-0.0646875
-0.0617859
-0.059107
-0.0566584
-0.0544455
-0.0524714
-0.0507363
-0.049239
-0.0479764
-0.0469447
-0.0461383
-0.0455502
-0.0451726
-0.044996
-0.04501
-0.154643
-0.152676
-0.151126
-0.149823
-0.148699
-0.147595
-0.146501
-0.145488
-0.144482
-0.143446
-0.14235
-0.141166
-0.139875
-0.13846
-0.136909
-0.135215
-0.133373
-0.131381
-0.129237
-0.12693
-0.124461
-0.121911
-0.119274
-0.116558
-0.113779
-0.110955
-0.108106
-0.105253
-0.102417
-0.0996186
-0.0968808
-0.0942388
-0.0917162
-0.0893267
-0.0870817
-0.0849918
-0.0830661
-0.0813127
-0.079738
-0.0783468
-0.0771433
-0.0761301
-0.0753084
-0.0746777
-0.0742365
-0.0739817
-0.0739107
-0.0740187
-0.074298
-0.0747318
-0.182969
-0.179508
-0.176472
-0.173759
-0.17132
-0.169081
-0.16694
-0.164883
-0.162913
-0.161018
-0.159217
-0.157479
-0.155781
-0.154106
-0.152439
-0.150766
-0.149078
-0.147369
-0.145634
-0.143872
-0.142086
-0.140278
-0.138465
-0.136653
-0.134847
-0.133054
-0.131283
-0.129547
-0.127854
-0.126218
-0.124652
-0.123169
-0.121782
-0.120502
-0.119337
-0.118294
-0.117377
-0.116593
-0.115945
-0.115436
-0.115069
-0.114844
-0.114764
-0.114828
-0.115036
-0.115382
-0.115865
-0.116479
-0.117216
-0.118049
-0.286638
-0.276337
-0.267239
-0.259149
-0.251924
-0.245407
-0.239499
-0.234105
-0.229172
-0.224653
-0.220512
-0.216707
-0.213205
-0.209966
-0.206973
-0.204205
-0.201639
-0.199257
-0.197042
-0.194991
-0.193096
-0.191341
-0.189694
-0.188164
-0.186752
-0.185449
-0.184254
-0.18317
-0.182191
-0.181305
-0.180513
-0.179831
-0.17926
-0.178797
-0.178444
-0.178201
-0.178072
-0.178049
-0.178134
-0.178327
-0.178625
-0.179024
-0.179522
-0.180115
-0.180799
-0.181568
-0.182413
-0.183329
-0.184306
-0.185313
-0.716434
-0.679986
-0.646209
-0.614988
-0.586161
-0.559598
-0.53514
-0.512686
-0.492064
-0.473093
-0.455719
-0.439873
-0.42544
-0.41231
-0.400388
-0.389582
-0.379818
-0.371005
-0.36308
-0.355987
-0.349688
-0.344139
-0.339235
-0.334877
-0.331035
-0.327681
-0.324769
-0.322266
-0.320154
-0.318413
-0.316962
-0.315759
-0.314765
-0.313987
-0.313401
-0.312981
-0.312716
-0.312586
-0.312567
-0.312641
-0.312806
-0.313043
-0.313333
-0.313661
-0.314016
-0.314382
-0.314747
-0.3151
-0.315435
-0.315751
-1.20532
-1.16441
-1.12479
-1.08644
-1.04934
-1.01356
-0.979188
-0.946333
-0.915161
-0.88568
-0.857708
-0.831198
-0.8061
-0.782527
-0.76047
-0.739923
-0.720829
-0.70316
-0.686882
-0.671947
-0.658312
-0.645964
-0.634812
-0.62474
-0.61565
-0.607489
-0.600241
-0.593842
-0.588224
-0.583342
-0.579128
-0.575403
-0.572082
-0.569092
-0.566424
-0.564011
-0.561785
-0.559702
-0.557714
-0.555736
-0.553727
-0.551631
-0.549447
-0.547142
-0.544683
-0.542047
-0.539217
-0.536186
-0.532977
-0.529728
-1.18792
-1.19769
-1.20141
-1.20003
-1.1944
-1.18535
-1.17362
-1.15983
-1.14469
-1.12848
-1.11153
-1.09417
-1.07664
-1.05916
-1.0419
-1.02503
-1.00866
-0.99291
-0.977825
-0.963457
-0.949827
-0.936849
-0.924582
-0.912989
-0.902082
-0.891859
-0.882244
-0.873166
-0.864555
-0.856323
-0.848409
-0.840511
-0.832635
-0.824778
-0.816876
-0.808845
-0.800612
-0.79213
-0.783305
-0.774084
-0.764459
-0.754455
-0.744077
-0.733305
-0.722137
-0.710572
-0.698614
-0.686276
-0.673641
-0.661144
-0.529877
-0.615024
-0.698631
-0.776484
-0.845158
-0.903864
-0.952628
-0.992112
-1.02328
-1.04716
-1.0647
-1.07678
-1.08419
-1.08762
-1.0877
-1.08499
-1.07991
-1.07284
-1.06411
-1.05398
-1.04265
-1.03029
-1.01705
-1.00305
-0.988355
-0.973028
-0.957095
-0.940578
-0.923487
-0.905844
-0.887589
-0.868704
-0.84923
-0.829151
-0.808427
-0.787011
-0.764851
-0.741881
-0.717945
-0.692923
-0.666638
-0.638843
-0.609213
-0.577397
-0.54421
-0.510599
-0.477207
-0.444484
-0.412831
-0.383178
-0.0924115
-0.128121
-0.172873
-0.227725
-0.296451
-0.375791
-0.461015
-0.544373
-0.62025
-0.686285
-0.74165
-0.786396
-0.821036
-0.846331
-0.863187
-0.872563
-0.875451
-0.872648
-0.865006
-0.853224
-0.837891
-0.819524
-0.798543
-0.775291
-0.750026
-0.722924
-0.694082
-0.66351
-0.631125
-0.596747
-0.560052
-0.520505
-0.479367
-0.438315
-0.398291
-0.359839
-0.323292
-0.288857
-0.256675
-0.226885
-0.199669
-0.175302
-0.154195
-0.136902
-0.122923
-0.111528
-0.102163
-0.0944098
-0.0879566
-0.0826421
-0.0231508
-0.0239623
-0.0289468
-0.0410685
-0.0618136
-0.0893168
-0.126216
-0.174796
-0.231448
-0.289711
-0.344684
-0.392685
-0.431544
-0.460372
-0.479176
-0.488496
-0.489222
-0.482382
-0.469004
-0.44998
-0.426
-0.397488
-0.364421
-0.328614
-0.292535
-0.257543
-0.224442
-0.193768
-0.165965
-0.141499
-0.120976
-0.105329
-0.0939111
-0.0853905
-0.0788905
-0.0738237
-0.0697896
-0.0665114
-0.0637962
-0.0615087
-0.0595537
-0.0578641
-0.0563929
-0.0551074
-0.0539832
-0.0530028
-0.0521539
-0.0514277
-0.0508185
-0.050327
-0.0164091
-0.0108959
-0.0113827
-0.012925
-0.015551
-0.0206441
-0.0281467
-0.038256
-0.0531912
-0.0732456
-0.0962599
-0.119164
-0.138675
-0.152208
-0.158457
-0.15733
-0.149562
-0.137567
-0.123399
-0.10871
-0.0948666
-0.0831243
-0.074915
-0.0699182
-0.0667021
-0.064479
-0.0628098
-0.0614464
-0.0602479
-0.0591359
-0.0580686
-0.0570252
-0.0559957
-0.0549772
-0.053971
-0.052983
-0.0520218
-0.0510986
-0.0502258
-0.0494165
-0.048685
-0.0480451
-0.0475105
-0.0470941
-0.0468082
-0.0466638
-0.0466693
-0.0468303
-0.0471453
-0.047589
-0.091854
-0.000584147
-0.00638432
-0.00916534
-0.0105126
-0.0127
-0.0163065
-0.0197229
-0.0245457
-0.0302203
-0.0363822
-0.0426209
-0.0480626
-0.0519805
-0.0544074
-0.056056
-0.0578835
-0.0594827
-0.0607055
-0.0615214
-0.0619466
-0.0620161
-0.0617714
-0.0612525
-0.0604986
-0.0595486
-0.0584423
-0.0572187
-0.0559133
-0.0545611
-0.0531947
-0.0518436
-0.0505353
-0.0492953
-0.0481469
-0.047112
-0.0462114
-0.0454649
-0.044891
-0.0445067
-0.044327
-0.0443649
-0.0446306
-0.045131
-0.0458701
-0.0468469
-0.0480542
-0.049477
-0.0510877
-0.0528054
-20.665
-0.102541
-0.000577086
-0.0111169
-0.0131209
-0.0144129
-0.0180149
-0.0220769
-0.0277333
-0.0344048
-0.0411365
-0.0474293
-0.0529055
-0.0573857
-0.0608583
-0.063388
-0.0650618
-0.0659692
-0.0662004
-0.0658478
-0.0650052
-0.0637672
-0.0622267
-0.060472
-0.0585843
-0.0566355
-0.0546874
-0.05279
-0.0509842
-0.0493014
-0.0477666
-0.0464002
-0.045219
-0.0442393
-0.0434763
-0.0429461
-0.042665
-0.0426487
-0.0429113
-0.0434645
-0.0443141
-0.0454649
-0.0469105
-0.0486423
-0.0506468
-0.0528997
-0.0553682
-0.0580093
-0.0607741
-0.0635592
-0.00133748
-3.35852e-05
-0.00442722
-0.0080814
-0.0118706
-0.0175058
-0.0238204
-0.0306045
-0.0388848
-0.0472031
-0.0546818
-0.0608037
-0.065458
-0.0687305
-0.0707536
-0.0716662
-0.0716107
-0.0707363
-0.0691998
-0.0671637
-0.0647889
-0.0622244
-0.0595975
-0.0570105
-0.0545389
-0.0522363
-0.0501358
-0.048257
-0.0466084
-0.0451941
-0.0440162
-0.0430793
-0.0423911
-0.0419626
-0.0418084
-0.0419452
-0.0423901
-0.0431589
-0.0442618
-0.0457039
-0.0474729
-0.0495604
-0.0519396
-0.0545855
-0.0574576
-0.060509
-0.0636973
-0.0669591
-0.0702622
-0.0735561
-0.00229572
-0.00472391
-0.00839193
-0.0144378
-0.0227036
-0.03071
-0.0390115
-0.04837
-0.0573644
-0.0650223
-0.0709134
-0.0750401
-0.0775472
-0.078608
-0.0784058
-0.0771395
-0.075026
-0.0722932
-0.0691652
-0.0658515
-0.062534
-0.0593579
-0.0564135
-0.0537442
-0.0513672
-0.0492819
-0.047476
-0.0459331
-0.0446379
-0.0435798
-0.0427558
-0.0421712
-0.0418375
-0.0417719
-0.0419908
-0.0425128
-0.0433569
-0.0445393
-0.046058
-0.0479041
-0.0500583
-0.0525068
-0.0552134
-0.0581361
-0.0612225
-0.0644199
-0.0676753
-0.0709539
-0.0742313
-0.0774692
-0.013552
-0.0217541
-0.0311284
-0.0401669
-0.0494241
-0.059045
-0.0680711
-0.0757214
-0.0815651
-0.0855251
-0.0877453
-0.0884104
-0.0877148
-0.0858665
-0.0830931
-0.0796447
-0.0757871
-0.0717686
-0.0677836
-0.0639799
-0.0604593
-0.0573287
-0.0546124
-0.0522555
-0.0502193
-0.0484658
-0.0469614
-0.0456791
-0.044599
-0.0437098
-0.0430101
-0.0425049
-0.0422062
-0.0421309
-0.0422988
-0.0427308
-0.0434475
-0.0444637
-0.0457807
-0.0473969
-0.0493115
-0.0515077
-0.053959
-0.0566244
-0.0594637
-0.0624376
-0.0655044
-0.0686337
-0.07178
-0.0748911
-0.0555225
-0.0659388
-0.0760345
-0.0852222
-0.092897
-0.0986964
-0.102466
-0.104323
-0.104521
-0.103314
-0.100932
-0.097602
-0.0935672
-0.0890605
-0.0842894
-0.0794409
-0.0747375
-0.0704171
-0.0664952
-0.0629806
-0.0598679
-0.057137
-0.0547555
-0.0526846
-0.0508872
-0.0493243
-0.0479624
-0.0467739
-0.0457374
-0.0448386
-0.0440714
-0.0434348
-0.0429346
-0.0425812
-0.0423901
-0.0423798
-0.0425708
-0.0429846
-0.0436392
-0.0445459
-0.0457188
-0.0471636
-0.048884
-0.0508647
-0.0530862
-0.0555237
-0.0581481
-0.0609271
-0.0638187
-0.0667939
-0.140994
-0.143365
-0.143589
-0.141968
-0.138863
-0.134644
-0.12962
-0.124054
-0.118147
-0.112055
-0.105902
-0.0997842
-0.0939113
-0.0884329
-0.08334
-0.078637
-0.0743308
-0.0704237
-0.0669098
-0.0637746
-0.0609964
-0.0585477
-0.0563962
-0.0545074
-0.0528498
-0.0513902
-0.0500993
-0.0489507
-0.0479216
-0.0469942
-0.0461547
-0.0453933
-0.0447046
-0.044087
-0.0435444
-0.0430841
-0.0427171
-0.0424586
-0.0423278
-0.042344
-0.0425223
-0.0428898
-0.043472
-0.0442841
-0.045341
-0.0466477
-0.0482035
-0.0500063
-0.0520473
-0.0543021
-0.0173111
-0.0171197
-0.0169834
-0.0168978
-0.0168587
-0.0168623
-0.0169053
-0.016985
-0.0170988
-0.017245
-0.0174221
-0.0176289
-0.0178642
-0.0181268
-0.0184162
-0.0187324
-0.0190747
-0.0194432
-0.0198374
-0.0202573
-0.0207031
-0.0211755
-0.0216749
-0.0222016
-0.0227568
-0.0233411
-0.0239552
-0.0245984
-0.025274
-0.0259845
-0.0267296
-0.0275109
-0.0283293
-0.0291855
-0.0300783
-0.0310093
-0.0319862
-0.0330077
-0.0340734
-0.0351835
-0.0363419
-0.0375466
-0.0388074
-0.0401236
-0.0414989
-0.0429318
-0.0444217
-0.0459694
-0.0475802
-0.0492599
-0.0510122
-0.0528344
-0.0547319
-0.0567097
-0.0587548
-0.0608697
-0.0630621
-0.0653462
-0.067727
-0.0702
-0.0727605
-0.0754135
-0.0781783
-0.0810281
-0.0839824
-0.0870286
-0.0901941
-0.0934851
-0.0968946
-0.100421
-0.104064
-0.107831
-0.111698
-0.115673
-0.119745
-0.123941
-0.128264
-0.132707
-0.137293
-0.141976
-0.146753
-0.151603
-0.156553
-0.161609
-0.166745
-0.171949
-0.177209
-0.182567
-0.187883
-0.193184
-0.198479
-0.203758
-0.208999
-0.214186
-0.219303
-0.224331
-0.229268
-0.234088
-0.238698
-0.243099
-0.247276
-0.251267
-0.255032
-0.258545
-0.261813
-0.264867
-0.267519
-0.269816
-0.271687
-0.273221
-0.274368
-0.275052
-0.275261
-0.274916
-0.273892
-0.27218
-0.269719
-0.266409
-0.262213
-0.257159
-0.251328
-0.244935
-0.237432
-0.228827
-0.219131
-0.208505
-0.197137
-0.184941
-0.171933
-0.15803
-0.143497
-0.128626
-0.113798
-0.0992434
-0.0851212
-0.0715441
-0.0587144
-0.0468661
-0.0363265
-0.0273041
-0.0198841
-0.0140161
-0.00955754
-0.00630825
-0.00403837
-0.00251819
-0.00154147
-0.000938829
-0.000581592
-0.000378482
-0.000268576
-0.000213286
-0.000189214
-0.000182648
-0.000185735
-0.000194042
-0.000205082
-0.000217456
-0.000230372
-0.000243365
-0.000256151
-0.000268534
-0.000280365
-0.000291523
-0.000301906
-0.000311424
-0.000319996
-0.000327551
-0.000334029
-0.000339378
-0.000343561
-0.000346551
-0.000348333
-0.000348906
-0.00034828
-0.000346479
-0.000343538
-0.000339503
-0.00033443
-0.000328385
-0.000321444
-0.000313687
-0.0003052
-0.000296073
-0.000286398
-0.000276267
-0.000265769
-0.000254992
-0.000244019
-0.000232928
-0.000221789
-0.000210667
-0.000199621
-0.000188701
-0.000177951
-0.000167409
-0.000157107
-0.000147074
-0.000137332
-0.000127901
-0.000118797
-0.000110035
-0.000101627
-9.35817e-05
-8.5909e-05
-7.86152e-05
-7.17055e-05
-6.51835e-05
-5.90508e-05
-5.33072e-05
-4.79504e-05
-4.29759e-05
-3.8377e-05
-3.41448e-05
-3.02683e-05
-2.67343e-05
-2.35281e-05
-2.06332e-05
-1.80319e-05
-1.57055e-05
-1.36347e-05
-1.17998e-05
-1.01814e-05
-8.76002e-06
-7.51699e-06
-6.43434e-06
-5.49503e-06
-4.68313e-06
-3.98381e-06
-3.38347e-06
-2.86974e-06
-2.43141e-06
-2.05845e-06
-1.74191e-06
-1.4739e-06
-1.24746e-06
-1.05651e-06
-8.95753e-07
-7.60618e-07
-6.47151e-07
-5.51961e-07
-4.7215e-07
-4.05247e-07
-3.49154e-07
-3.02099e-07
-2.62581e-07
-2.29345e-07
-2.01333e-07
-1.77662e-07
-1.57596e-07
-1.40526e-07
-1.25936e-07
-1.13413e-07
-1.02603e-07
-9.3221e-08
-8.5032e-08
-7.78375e-08
-7.14768e-08
-6.58171e-08
-6.07507e-08
-5.6186e-08
-5.20445e-08
-4.8264e-08
-4.47975e-08
-4.15958e-08
-3.86239e-08
-3.58497e-08
-3.32472e-08
-3.07948e-08
-2.84728e-08
-2.62672e-08
-2.41643e-08
-2.21531e-08
-2.02265e-08
-1.83779e-08
-1.66032e-08
-1.48999e-08
-1.32671e-08
-1.17083e-08
-1.0225e-08
-8.82176e-09
-7.50336e-09
-6.27816e-09
-5.15449e-09
-4.1381e-09
-3.23685e-09
-2.44917e-09
-1.79011e-09
-1.25275e-09
-8.30867e-10
-5.14804e-10
-2.90466e-10
-1.4156e-10
-4.98319e-11
2.45494e-12
2.93256e-11
3.98531e-11
4.20637e-11
4.20721e-11
4.19102e-11
-0.0267558
-0.0267164
-0.0267252
-0.0267808
-0.026882
-0.0270272
-0.0272146
-0.0274427
-0.0277097
-0.0280137
-0.0283534
-0.0287288
-0.0291386
-0.0295821
-0.0300584
-0.0305674
-0.0311094
-0.0316821
-0.0322861
-0.0329218
-0.0335886
-0.0342883
-0.0350215
-0.0357877
-0.0365876
-0.0374227
-0.0382922
-0.0391943
-0.0401323
-0.0411101
-0.0421281
-0.0431876
-0.0442864
-0.0454246
-0.0466035
-0.0478278
-0.0491012
-0.050424
-0.0517971
-0.0532214
-0.0547013
-0.0562308
-0.0578138
-0.0594492
-0.0611395
-0.0628928
-0.064708
-0.0665881
-0.0685374
-0.0705547
-0.0726355
-0.0747831
-0.0769957
-0.0792916
-0.0816717
-0.0841221
-0.0866305
-0.0892117
-0.0918781
-0.0946278
-0.0974591
-0.100369
-0.103373
-0.10645
-0.109579
-0.112774
-0.116065
-0.119451
-0.122945
-0.126485
-0.130098
-0.133797
-0.137575
-0.14144
-0.145353
-0.149323
-0.153358
-0.157458
-0.16162
-0.165841
-0.17011
-0.174465
-0.178867
-0.183263
-0.187636
-0.192003
-0.196405
-0.200793
-0.205178
-0.209485
-0.213711
-0.217862
-0.221932
-0.225904
-0.229761
-0.23348
-0.237049
-0.240453
-0.243673
-0.246694
-0.24952
-0.25212
-0.254493
-0.256632
-0.258551
-0.260254
-0.261733
-0.263002
-0.264074
-0.264914
-0.265545
-0.265975
-0.266194
-0.266187
-0.266037
-0.265559
-0.264759
-0.263589
-0.262137
-0.260427
-0.258386
-0.25599
-0.253247
-0.250041
-0.246297
-0.241946
-0.237017
-0.231486
-0.225248
-0.218312
-0.210553
-0.201874
-0.192354
-0.18216
-0.171229
-0.15949
-0.147019
-0.133913
-0.120402
-0.106701
-0.0930873
-0.0797073
-0.0668488
-0.0548075
-0.0438315
-0.0341149
-0.0257856
-0.018891
-0.0133939
-0.00917921
-0.00607792
-0.00389222
-0.00242029
-0.00147627
-0.000902659
-0.000575524
-0.00040388
-0.000325315
-0.000299808
-0.000303415
-0.000322954
-0.000350712
-0.000382364
-0.000415833
-0.000450108
-0.000484659
-0.000519122
-0.000553167
-0.000586454
-0.000618633
-0.00064935
-0.000678256
-0.000705015
-0.000729314
-0.000750866
-0.000769423
-0.000784776
-0.000796762
-0.000805271
-0.000810243
-0.000811675
-0.00080962
-0.00080418
-0.000795507
-0.000783795
-0.000769277
-0.000752215
-0.000732894
-0.000711615
-0.00068868
-0.000664391
-0.000639036
-0.000612885
-0.000586188
-0.000559164
-0.000532008
-0.000504884
-0.000477932
-0.000451268
-0.000424986
-0.000399166
-0.000373878
-0.000349181
-0.00032513
-0.000301776
-0.000279172
-0.000257367
-0.000236411
-0.000216351
-0.000197232
-0.000179095
-0.000161975
-0.000145896
-0.000130878
-0.000116928
-0.000104042
-9.22076e-05
-8.14002e-05
-7.15864e-05
-6.27245e-05
-5.47656e-05
-4.76555e-05
-4.1336e-05
-3.5747e-05
-3.08269e-05
-2.65152e-05
-2.27525e-05
-1.9482e-05
-1.66498e-05
-1.42059e-05
-1.21038e-05
-1.03012e-05
-8.75961e-06
-7.44465e-06
-6.32558e-06
-5.37517e-06
-4.5695e-06
-3.88761e-06
-3.31127e-06
-2.82467e-06
-2.41418e-06
-2.06809e-06
-1.77637e-06
-1.53046e-06
-1.32309e-06
-1.14809e-06
-1.00025e-06
-8.75154e-07
-7.69108e-07
-6.79001e-07
-6.02225e-07
-5.36599e-07
-4.80301e-07
-4.31811e-07
-3.89864e-07
-3.53405e-07
-3.21558e-07
-2.93592e-07
-2.689e-07
-2.46979e-07
-2.27405e-07
-2.09828e-07
-1.93953e-07
-1.79534e-07
-1.66364e-07
-1.54268e-07
-1.43098e-07
-1.32731e-07
-1.23058e-07
-1.13989e-07
-1.05448e-07
-9.73689e-08
-8.96982e-08
-8.23899e-08
-7.54108e-08
-6.87316e-08
-6.23301e-08
-5.61922e-08
-5.03117e-08
-4.46875e-08
-3.93239e-08
-3.42286e-08
-2.94195e-08
-2.4912e-08
-2.0731e-08
-1.68981e-08
-1.34373e-08
-1.03739e-08
-7.72428e-09
-5.49646e-09
-3.69567e-09
-2.30373e-09
-1.28989e-09
-6.06224e-10
-1.91158e-10
2.40733e-11
1.00408e-10
1.03727e-10
7.74441e-11
5.16264e-11
-0.0451528
-0.0453178
-0.045536
-0.0458042
-0.0461213
-0.0464855
-0.0468969
-0.0473548
-0.0478577
-0.0484053
-0.0489956
-0.0496279
-0.0503009
-0.051015
-0.0517701
-0.0525657
-0.0534012
-0.0542762
-0.0551899
-0.0561424
-0.0571356
-0.0581661
-0.0592358
-0.0603428
-0.0614879
-0.0626746
-0.0639031
-0.0651713
-0.0664813
-0.0678343
-0.0692321
-0.0706735
-0.0721545
-0.0736761
-0.0752448
-0.0768613
-0.0785285
-0.080242
-0.0820038
-0.0838124
-0.0856715
-0.0875859
-0.0895539
-0.091577
-0.0936447
-0.0957595
-0.0979273
-0.100151
-0.102432
-0.104767
-0.107168
-0.109606
-0.112092
-0.114635
-0.117234
-0.119884
-0.12259
-0.125334
-0.128119
-0.130939
-0.133802
-0.136712
-0.139663
-0.142652
-0.14566
-0.148681
-0.151719
-0.154771
-0.157871
-0.160974
-0.164018
-0.167062
-0.170105
-0.173129
-0.176126
-0.179086
-0.182005
-0.184878
-0.187703
-0.190473
-0.193186
-0.195835
-0.198421
-0.200938
-0.203453
-0.205857
-0.208134
-0.21026
-0.212266
-0.214213
-0.216065
-0.217807
-0.219436
-0.220951
-0.222353
-0.223726
-0.224996
-0.226034
-0.226867
-0.227562
-0.228227
-0.228812
-0.229303
-0.229706
-0.230029
-0.230269
-0.23043
-0.230519
-0.230554
-0.230553
-0.230527
-0.230488
-0.230435
-0.230348
-0.230196
-0.229951
-0.229617
-0.229183
-0.228724
-0.228071
-0.227254
-0.226256
-0.225195
-0.224049
-0.222793
-0.221375
-0.219781
-0.217986
-0.215988
-0.213746
-0.211194
-0.20826
-0.204873
-0.201007
-0.196607
-0.191486
-0.18555
-0.178679
-0.170924
-0.162285
-0.152767
-0.142437
-0.131313
-0.119488
-0.10709
-0.0943839
-0.0816522
-0.0691941
-0.0573116
-0.0462987
-0.03641
-0.0278231
-0.0206267
-0.0148156
-0.0103013
-0.00693306
-0.00452419
-0.0028776
-0.00180639
-0.00114796
-0.000771102
-0.000576959
-0.000495773
-0.000481402
-0.000505206
-0.000550478
-0.000608007
-0.000672913
-0.000742609
-0.00081559
-0.000890786
-0.000967242
-0.00104398
-0.00111997
-0.0011941
-0.00126522
-0.00133221
-0.00139394
-0.00144945
-0.00149733
-0.00153654
-0.00156714
-0.00158896
-0.00160186
-0.00160588
-0.00160122
-0.00158824
-0.0015675
-0.00153965
-0.00150545
-0.00146575
-0.00142139
-0.00137325
-0.00132213
-0.00126881
-0.00121393
-0.00115809
-0.00110175
-0.00104528
-0.000988979
-0.000933059
-0.000877691
-0.000823013
-0.000769151
-0.000716232
-0.000664395
-0.000613798
-0.000564618
-0.000517047
-0.000471283
-0.000427525
-0.000385959
-0.000346747
-0.000310022
-0.000275878
-0.000244365
-0.000215493
-0.000189226
-0.000165493
-0.00014419
-0.000125188
-0.000108335
-9.34714e-05
-8.0428e-05
-6.90356e-05
-5.91281e-05
-5.05462e-05
-4.31392e-05
-3.67674e-05
-3.13024e-05
-2.66277e-05
-2.26386e-05
-1.92419e-05
-1.63547e-05