/*--------------------------------*- C++ -*----------------------------------*\
| =========                 |                                                 |
| \\      /  F ield         | OpenFOAM: The Open Source CFD Toolbox           |
|  \\    /   O peration     | Version:  2.4.0                                 |
|   \\  /    A nd           | Web:      www.OpenFOAM.org                      |
|    \\/     M anipulation  |                                                 |
\*---------------------------------------------------------------------------*/
FoamFile
{
    version     2.0;
    format      ascii;
    class       volScalarField;
    location    "4.1";
    object      p;
}
// * * * * * * * * * * * * * * * * * * * * * * * * * * * * * * * * * * * * * //

dimensions      [1 -1 -2 0 0 0 0];

internalField   nonuniform List<scalar> 
8000
(
-1.35935
-1.3372
-1.31804
-1.29745
-1.27285
-1.24011
-1.19641
-1.14246
-1.08854
-1.03093
-0.913908
-0.809377
-1.06593
-2.45968
-3.25696
-3.74401
-10.1173
-10.0991
-8.69315
-7.18024
-5.3149
-3.37524
-1.72254
-0.697752
-0.322411
-0.301871
-0.358137
-0.387231
-0.395866
-0.399932
-0.406245
-0.414054
-0.415554
-0.412277
-0.41185
-0.41264
-0.413639
-0.414655
-0.415709
-0.416808
-0.418084
-0.419335
-0.42069
-0.422509
-0.42469
-0.409243
-0.421246
-0.406622
-0.43346
-0.401405
-5.26118
-5.15006
-5.02444
-4.90455
-4.78823
-4.65471
-4.49596
-4.41199
-4.81119
-6.67512
-8.35959
-15.3727
-9.46954
-8.9573
-8.70591
-5.12797
-2.51552
-1.01382
-0.389448
-0.318213
-0.352297
-0.373328
-0.380986
-0.383253
-0.384122
-0.387315
-0.390246
-0.391618
-0.392562
-0.393324
-0.394235
-0.395101
-0.396393
-0.397433
-0.398398
-0.399791
-0.400885
-0.402075
-0.403267
-0.404421
-0.405521
-0.406654
-0.408161
-0.410212
-0.412111
-0.411112
-0.429801
-0.416608
-0.436736
-0.410777
-11.4601
-11.2055
-10.9079
-10.6027
-10.4916
-11.2733
-13.9484
-15.3957
-13.656
-11.6815
-9.19005
-1.13528
-0.722999
-0.408432
-0.358618
-0.363579
-0.390614
-0.394798
-0.381978
-0.373637
-0.372918
-0.375534
-0.377912
-0.379304
-0.380242
-0.381153
-0.382735
-0.382428
-0.386271
-0.38751
-0.388951
-0.391107
-0.391404
-0.394741
-0.396152
-0.397633
-0.399119
-0.400638
-0.402231
-0.403914
-0.405666
-0.407557
-0.409992
-0.412965
-0.407088
-0.406465
-0.421706
-0.416483
-0.429434
-0.412062
-11.5263
-11.2724
-10.983
-11.489
-14.7776
-19.8779
-12.2214
-1.13644
-0.573798
-0.456054
-0.391902
-0.373852
-0.375709
-0.360701
-0.360413
-0.360522
-0.361306
-0.3622
-0.363286
-0.363151
-0.365085
-0.365079
-0.367205
-0.369191
-0.369706
-0.373377
-0.37474
-0.376414
-0.378162
-0.379911
-0.374894
-0.382706
-0.383719
-0.384809
-0.385886
-0.386928
-0.387973
-0.389075
-0.390294
-0.391648
-0.392801
-0.391445
-0.392716
-0.397482
-0.39971
-0.386278
-0.415653
-0.412089
-0.415654
-0.411624
-6.41207
-6.77981
-7.80987
-9.6171
-6.94954
-0.73275
-0.448316
-0.333608
-0.335604
-0.345313
-0.349105
-0.348992
-0.349132
-0.349434
-0.349813
-0.350091
-0.350337
-0.350581
-0.350839
-0.351124
-0.350657
-0.350718
-0.351078
-0.351583
-0.349665
-0.350019
-0.350176
-0.349207
-0.353018
-0.353225
-0.353431
-0.3577
-0.357825
-0.358014
-0.358336
-0.358772
-0.35937
-0.360159
-0.361126
-0.362217
-0.363452
-0.36512
-0.371121
-0.367633
-0.371058
-0.373587
-0.374144
-0.3838
-0.386158
-0.388654
-2.53899
-3.8011
-8.73084
-15.604
-0.584734
-0.313047
-0.339644
-0.335676
-0.33475
-0.3328
-0.333265
-0.33245
-0.331078
-0.330191
-0.329545
-0.328962
-0.328304
-0.327508
-0.32658
-0.32552
-0.324369
-0.323129
-0.321818
-0.320516
-0.319444
-0.317817
-0.316646
-0.314902
-0.31469
-0.31396
-0.313365
-0.312911
-0.313277
-0.313599
-0.314364
-0.315557
-0.317222
-0.319456
-0.322224
-0.325455
-0.329162
-0.333126
-0.334936
-0.34321
-0.348108
-0.355089
-0.355272
-0.364879
-0.36991
-0.374829
-4.93286
-4.77716
-4.9975
-6.44567
-6.25016
-1.62404
-1.86413
-0.70447
-0.512735
-0.381507
-0.387119
-0.396327
-0.390086
-0.377814
-0.367238
-0.357893
-0.349593
-0.342315
-0.33615
-0.331443
-0.328278
-0.326497
-0.325783
-0.325797
-0.326257
-0.326895
-0.327437
-0.327625
-0.32749
-0.327195
-0.326855
-0.32652
-0.326187
-0.325832
-0.325516
-0.325373
-0.32557
-0.326241
-0.327404
-0.329084
-0.331391
-0.334409
-0.337835
-0.341846
-0.346374
-0.346939
-0.35685
-0.360833
-0.367421
-0.372761
-9.84868
-9.50624
-9.06811
-9.2514
-12.2754
-18.7398
-10.5317
-2.12418
-2.11208
-2.22709
-1.80783
-1.29382
-1.18539
-1.01206
-0.84949
-0.720358
-0.612304
-0.529795
-0.482608
-0.458654
-0.442744
-0.428502
-0.416121
-0.405477
-0.395813
-0.387503
-0.381685
-0.376012
-0.368505
-0.362943
-0.362321
-0.366155
-0.373311
-0.383211
-0.395222
-0.408534
-0.422314
-0.435634
-0.447596
-0.457764
-0.465954
-0.471421
-0.47433
-0.47622
-0.481371
-0.490635
-0.493844
-0.491612
-0.493285
-0.463044
3.92859
3.96585
4.02724
4.09306
4.11539
4.1245
4.49566
5.46155
4.43785
-10.2232
-7.32946
-3.93532
-2.11878
-1.85922
-1.61042
-1.36688
-1.2387
-1.10083
-0.952638
-0.868692
-0.856748
-0.865724
-0.859956
-0.833763
-0.790811
-0.708275
-0.576604
-0.460891
-0.399887
-0.365433
-0.350526
-0.362226
-0.377147
-0.37875
-0.375017
-0.381727
-0.403747
-0.424558
-0.430701
-0.429524
-0.432315
-0.440499
-0.452307
-0.472009
-0.501737
-0.533134
-0.557051
-0.571704
-0.581579
-0.5946
6.60206
6.54533
6.50133
6.48473
6.50518
6.56582
6.65206
6.72404
6.74352
6.67737
6.55469
6.44252
6.42712
6.4279
6.46086
6.64002
6.90929
7.40581
4.70158
3.83913
3.86196
3.8395
3.66316
3.37798
3.01094
2.58071
2.13183
1.7293
1.38686
1.08469
0.833335
0.58673
0.310049
0.0414699
-0.140069
-0.185597
-0.146643
-0.0994475
-0.0688871
-0.0853689
-0.149286
-0.197058
-0.205932
-0.25067
-0.367968
-0.467514
-0.48823
-0.479244
-0.48558
-0.516623
6.0169
5.96654
5.91114
5.85122
5.79326
5.73386
5.6722
5.60832
5.54611
5.49386
5.45382
5.43513
5.43653
5.46244
5.50624
5.56209
5.61794
5.66546
5.70048
5.72554
5.74697
5.77231
5.80287
5.83631
5.87122
5.90843
5.95706
6.04084
6.14619
6.06505
5.06574
4.58603
4.60541
4.59638
4.4272
4.11777
3.64313
3.01203
2.34659
1.7992
1.3836
1.04569
0.783474
0.571709
0.372388
0.213178
0.0844766
-0.0779371
-0.264746
-0.428564
6.08768
6.05792
6.02848
5.99974
5.97601
5.95494
5.93619
5.91962
5.90513
5.89267
5.88228
5.87406
5.86791
5.86368
5.861
5.8593
5.85809
5.85701
5.85712
5.85823
5.86182
5.86924
5.8811
5.89754
5.91893
5.94613
5.98111
6.02131
6.06247
6.09734
6.12407
6.14318
6.15731
6.17235
6.19158
6.21979
6.26694
6.31942
6.23699
5.405
5.04579
5.06775
4.95944
4.51302
3.76401
2.96424
2.24315
1.58572
0.98433
0.452904
5.62283
5.60217
5.57996
5.55994
5.54242
5.52661
5.51276
5.50067
5.49043
5.48204
5.47558
5.47107
5.46849
5.46776
5.46881
5.47154
5.47584
5.4816
5.48873
5.49722
5.50707
5.51828
5.53088
5.54487
5.56027
5.57709
5.59543
5.62204
5.63272
5.6549
5.67892
5.70485
5.73314
5.76438
5.79904
5.83746
5.87852
5.91734
5.94881
5.97352
5.99213
6.00587
6.02164
6.05196
6.14278
6.23113
5.05791
4.75133
4.34001
3.6186
5.28674
5.27111
5.25509
5.24074
5.22826
5.21654
5.20651
5.19734
5.1893
5.18238
5.17657
5.17186
5.16827
5.16577
5.16436
5.16403
5.16478
5.1666
5.16949
5.17345
5.17848
5.18458
5.19176
5.19999
5.20929
5.21964
5.23106
5.25073
5.25431
5.26849
5.28364
5.29975
5.31683
5.33494
5.35413
5.37446
5.39598
5.41871
5.44297
5.46928
5.49819
5.53074
5.56764
5.60731
5.64403
5.67987
5.71403
5.75457
5.8157
5.84638
4.21515
4.20627
4.19501
4.1845
4.17493
4.16574
4.15761
4.14998
4.143
4.13667
4.13102
4.12604
4.12174
4.11812
4.11518
4.11294
4.11139
4.11054
4.11038
4.11091
4.11215
4.11409
4.11673
4.12008
4.12414
4.12892
4.13444
4.15074
4.14614
4.15367
4.16195
4.17096
4.18068
4.19113
4.20229
4.21416
4.22677
4.24
4.25394
4.26854
4.28384
4.29981
4.31651
4.33378
4.35187
4.37139
4.39326
4.41445
4.42796
4.43227
3.79021
3.77904
3.76617
3.7555
3.74595
3.73713
3.72907
3.72175
3.71517
3.70933
3.70422
3.69985
3.69619
3.69325
3.69101
3.68948
3.68864
3.68848
3.68901
3.69021
3.69207
3.69459
3.69776
3.70158
3.70604
3.71113
3.71688
3.73008
3.73069
3.73824
3.74644
3.75523
3.76465
3.77466
3.78528
3.79647
3.80834
3.82068
3.83363
3.84705
3.86105
3.87555
3.89124
3.90845
3.92619
3.93707
3.93705
3.88487
3.73927
3.1474
2.44579
2.43746
2.42492
2.41434
2.40423
2.39533
2.38708
2.37945
2.37245
2.36607
2.36033
2.35521
2.35073
2.34688
2.34367
2.34109
2.33917
2.33788
2.33725
2.33725
2.3379
2.33918
2.34109
2.3436
2.3467
2.35037
2.35458
2.3593
2.36661
2.3708
2.37675
2.38306
2.38964
2.39645
2.40343
2.41053
2.4177
2.425
2.43211
2.43978
2.44886
2.46018
2.47081
2.46774
2.40331
2.16093
1.74484
0.434886
-0.179608
-0.460853
1.87095
1.86333
1.85358
1.84554
1.83703
1.82898
1.82085
1.81259
1.80419
1.79567
1.78701
1.77823
1.76936
1.7604
1.7514
1.74241
1.73347
1.72464
1.71601
1.70767
1.6997
1.69224
1.68539
1.67932
1.67413
1.67004
1.66716
1.66573
1.66585
1.66784
1.67162
1.67738
1.6852
1.69531
1.70732
1.72132
1.73711
1.75619
1.78181
1.80265
1.81215
1.79009
1.58759
1.11971
-0.318989
-1.39803
-1.58182
-1.64174
-1.69627
-1.53772
0.410493
0.414901
0.418282
0.421912
0.424901
0.428521
0.432094
0.435629
0.439076
0.442384
0.445502
0.448368
0.45091
0.453051
0.454699
0.455755
0.456109
0.45564
0.454217
0.451699
0.447939
0.442781
0.436073
0.427656
0.417393
0.405145
0.390819
0.374328
0.355703
0.334934
0.312277
0.287888
0.262276
0.23574
0.209918
0.187823
0.174429
0.167795
0.167296
-0.0329388
-0.735939
-1.65656
-3.38063
-3.59476
-3.46845
-3.21521
-2.59881
-1.87197
-1.28912
-0.933393
-0.390774
-0.375229
-0.358722
-0.344738
-0.333626
-0.324571
-0.318039
-0.313346
-0.310588
-0.309679
-0.310496
-0.312934
-0.316849
-0.322119
-0.328575
-0.33608
-0.344439
-0.353499
-0.363028
-0.372874
-0.382778
-0.392601
-0.402044
-0.411056
-0.419245
-0.426732
-0.433162
-0.438568
-0.443297
-0.446709
-0.44992
-0.454176
-0.456464
-0.459532
-0.428437
-0.377456
-0.480996
-1.15601
-2.91474
-4.54422
-5.05013
-5.15995
-4.61499
-3.32269
-1.98654
-1.14501
-0.831232
-0.782693
-0.767192
-0.769006
-0.455987
-0.445884
-0.470213
-0.472413
-0.45249
-0.528497
-0.529172
-0.530747
-0.532627
-0.534666
-0.536876
-0.539302
-0.542071
-0.544822
-0.544821
-0.557222
-0.560866
-0.564885
-0.569208
-0.573807
-0.578656
-0.583726
-0.588985
-0.594402
-0.599949
-0.605596
-0.611319
-0.617096
-0.622907
-0.628734
-0.634562
-0.640381
-0.646176
-0.651943
-0.657668
-0.663346
-0.66897
-0.674534
-0.68003
-0.685467
-0.690821
-0.696104
-0.701303
-0.706417
-0.711443
-0.716377
-0.721213
-0.725912
-0.730648
-0.735215
-0.449249
-0.439974
-0.45808
-0.459002
-0.435796
-0.511837
-0.513652
-0.516068
-0.518738
-0.52164
-0.524788
-0.528189
-0.531856
-0.53578
-0.537294
-0.545286
-0.550051
-0.555056
-0.560312
-0.565805
-0.571511
-0.577401
-0.583449
-0.589626
-0.595906
-0.602265
-0.608682
-0.615135
-0.621608
-0.628084
-0.63455
-0.640995
-0.647384
-0.653787
-0.660115
-0.666381
-0.67258
-0.678708
-0.684758
-0.690662
-0.696626
-0.702415
-0.708107
-0.713706
-0.719193
-0.724573
-0.729837
-0.734977
-0.74001
-0.744908
-0.437148
-0.429408
-0.436869
-0.439299
-0.417888
-0.473189
-0.476317
-0.479803
-0.483576
-0.487621
-0.491935
-0.496517
-0.501364
-0.506475
-0.511694
-0.517137
-0.523485
-0.529612
-0.535964
-0.542529
-0.549282
-0.556197
-0.563246
-0.570405
-0.577648
-0.584953
-0.5923
-0.59967
-0.607045
-0.614412
-0.621756
-0.629067
-0.636327
-0.643543
-0.650696
-0.657776
-0.664777
-0.671699
-0.678529
-0.685261
-0.69189
-0.698362
-0.704782
-0.711075
-0.717235
-0.723366
-0.729183
-0.734973
-0.740496
-0.746062
-0.413894
-0.42155
-0.425065
-0.432824
-0.425732
-0.435542
-0.440148
-0.444518
-0.449103
-0.453968
-0.45911
-0.464518
-0.470213
-0.476162
-0.482369
-0.488794
-0.495498
-0.502404
-0.509519
-0.516821
-0.524284
-0.531887
-0.539611
-0.547435
-0.555332
-0.563294
-0.571286
-0.579295
-0.58731
-0.595313
-0.603287
-0.611224
-0.61905
-0.626888
-0.634672
-0.642352
-0.649965
-0.657494
-0.664803
-0.67222
-0.679437
-0.686549
-0.693525
-0.70036
-0.707099
-0.71389
-0.72038
-0.726721
-0.732906
-0.738936
-0.393556
-0.39782
-0.401905
-0.404245
-0.408534
-0.409634
-0.416495
-0.4211
-0.425986
-0.431155
-0.436643
-0.442427
-0.44838
-0.454744
-0.461199
-0.468189
-0.475274
-0.482539
-0.490001
-0.497593
-0.504134
-0.512861
-0.520957
-0.529053
-0.53718
-0.545348
-0.55354
-0.561747
-0.56995
-0.578127
-0.586283
-0.594407
-0.602481
-0.610499
-0.618431
-0.626328
-0.634116
-0.641842
-0.649576
-0.657099
-0.664583
-0.671822
-0.679076
-0.6862
-0.693187
-0.700066
-0.706999
-0.713668
-0.7202
-0.726586
-0.379919
-0.385504
-0.390749
-0.395301
-0.40075
-0.406416
-0.412101
-0.417849
-0.423456
-0.429405
-0.435669
-0.441616
-0.448096
-0.454746
-0.461532
-0.468421
-0.475399
-0.482515
-0.489745
-0.496959
-0.504135
-0.51002
-0.520244
-0.52802
-0.535694
-0.543316
-0.551
-0.55853
-0.564467
-0.572289
-0.5804
-0.58804
-0.59559
-0.603096
-0.610573
-0.617998
-0.625282
-0.632462
-0.640106
-0.647358
-0.654519
-0.661607
-0.668632
-0.675589
-0.682462
-0.688794
-0.695835
-0.70251
-0.709086
-0.715567
-0.377153
-0.386943
-0.393966
-0.400971
-0.408077
-0.415236
-0.422499
-0.429712
-0.435588
-0.444575
-0.451776
-0.458934
-0.465957
-0.473134
-0.480268
-0.487038
-0.49412
-0.501215
-0.507598
-0.514659
-0.521482
-0.528193
-0.533438
-0.543324
-0.55019
-0.556908
-0.563525
-0.570217
-0.576616
-0.582837
-0.588548
-0.596299
-0.603097
-0.609736
-0.616121
-0.622599
-0.628944
-0.634151
-0.640735
-0.647422
-0.653934
-0.660398
-0.666855
-0.673315
-0.679741
-0.686177
-0.692702
-0.699144
-0.705576
-0.711994
-0.481724
-0.491562
-0.49641
-0.499548
-0.502531
-0.505782
-0.50911
-0.512391
-0.515558
-0.518566
-0.521695
-0.527104
-0.530814
-0.534395
-0.537869
-0.541703
-0.545594
-0.549463
-0.553218
-0.557059
-0.561046
-0.564978
-0.568877
-0.572943
-0.578934
-0.583235
-0.58754
-0.591838
-0.596267
-0.600625
-0.604988
-0.60906
-0.614842
-0.619912
-0.624945
-0.629837
-0.634963
-0.640036
-0.645115
-0.650163
-0.656144
-0.661968
-0.667774
-0.673568
-0.679422
-0.685374
-0.691413
-0.697528
-0.70372
-0.709981
-0.611004
-0.618637
-0.621157
-0.621432
-0.620527
-0.619131
-0.617641
-0.613668
-0.614787
-0.611391
-0.61284
-0.611393
-0.609825
-0.608188
-0.606622
-0.605225
-0.604013
-0.602938
-0.602052
-0.601345
-0.600725
-0.599684
-0.599775
-0.600292
-0.600954
-0.601759
-0.602742
-0.603971
-0.605459
-0.607101
-0.60765
-0.611184
-0.616761
-0.61968
-0.622748
-0.626055
-0.629646
-0.633364
-0.636947
-0.641326
-0.648138
-0.653274
-0.658537
-0.663991
-0.669723
-0.675712
-0.68198
-0.688517
-0.695278
-0.702378
-0.55826
-0.595071
-0.61962
-0.632463
-0.636983
-0.637495
-0.636909
-0.635937
-0.634639
-0.632949
-0.630886
-0.628453
-0.625688
-0.622651
-0.619374
-0.615906
-0.612361
-0.608887
-0.605532
-0.602373
-0.59937
-0.596593
-0.59403
-0.591774
-0.589876
-0.588368
-0.587298
-0.586695
-0.586539
-0.586796
-0.586386
-0.589658
-0.59176
-0.594322
-0.597434
-0.601138
-0.605278
-0.608234
-0.614234
-0.621045
-0.627957
-0.635367
-0.6434
-0.652055
-0.661251
-0.670911
-0.681007
-0.691573
-0.702637
-0.714137
-0.545915
-0.605066
-0.61557
-0.620086
-0.622582
-0.622962
-0.622428
-0.621437
-0.62047
-0.619587
-0.618559
-0.617251
-0.615607
-0.613577
-0.611259
-0.608683
-0.603911
-0.602002
-0.599335
-0.596637
-0.594063
-0.591717
-0.589679
-0.588033
-0.586859
-0.586233
-0.586209
-0.586849
-0.58822
-0.590476
-0.593573
-0.597486
-0.602146
-0.607507
-0.613576
-0.620322
-0.627539
-0.635749
-0.644643
-0.654133
-0.66428
-0.675085
-0.686535
-0.698635
-0.711407
-0.724845
-0.738955
-0.753811
-0.76913
-0.784974
0.0591431
-0.219982
-0.409426
-0.492268
-0.527173
-0.581457
-0.612257
-0.618519
-0.618994
-0.618502
-0.617809
-0.617106
-0.616388
-0.615576
-0.614627
-0.613563
-0.612471
-0.611478
-0.610694
-0.610194
-0.610089
-0.610503
-0.611532
-0.613184
-0.61547
-0.618416
-0.621995
-0.62646
-0.631652
-0.637629
-0.644414
-0.652056
-0.660637
-0.669969
-0.680719
-0.692296
-0.704739
-0.718021
-0.732118
-0.746966
-0.762481
-0.778695
-0.795684
-0.813091
-0.831011
-0.849405
-0.868247
-0.887443
-0.907232
-0.92744
2.83565
2.1362
1.50634
0.88472
0.161324
-0.443118
-0.626154
-0.649637
-0.652985
-0.654427
-0.655548
-0.656273
-0.656449
-0.656157
-0.655665
-0.655276
-0.655234
-0.655699
-0.656795
-0.658629
-0.661281
-0.664813
-0.669298
-0.674847
-0.681516
-0.689294
-0.698151
-0.707971
-0.718932
-0.730805
-0.743537
-0.757076
-0.771353
-0.78631
-0.801735
-0.818167
-0.835096
-0.852535
-0.870476
-0.888908
-0.907804
-0.927145
-0.946951
-0.967428
-0.988099
-1.0092
-1.03075
-1.05276
-1.07522
-1.09809
5.13156
4.76997
3.91617
2.65775
1.03512
-0.36273
-0.711842
-0.755281
-0.761227
-0.762973
-0.763861
-0.764322
-0.764446
-0.764333
-0.764231
-0.764535
-0.765656
-0.767851
-0.771234
-0.775831
-0.781634
-0.788592
-0.796634
-0.80571
-0.815805
-0.826511
-0.838299
-0.850477
-0.863858
-0.877877
-0.89246
-0.907621
-0.923345
-0.939593
-0.956223
-0.973567
-0.991429
-1.00977
-1.02862
-1.048
-1.06794
-1.08845
-1.10949
-1.13118
-1.15353
-1.17659
-1.2004
-1.22502
-1.25034
-1.27217
4.39314
4.19257
3.45022
2.53658
1.12282
-0.40361
-0.821268
-0.876801
-0.883338
-0.884578
-0.885453
-0.886163
-0.886441
-0.886702
-0.887597
-0.88948
-0.892426
-0.89642
-0.901422
-0.907382
-0.91424
-0.922023
-0.930541
-0.9398
-0.94976
-0.960382
-0.971632
-0.983442
-0.995928
-1.00902
-1.02267
-1.03686
-1.05164
-1.06691
-1.08288
-1.09939
-1.1165
-1.13424
-1.15264
-1.17174
-1.19155
-1.21168
-1.23301
-1.25671
-1.27899
-1.30442
-1.32941
-1.35559
-1.38278
-1.41112
2.35982
2.03539
1.65554
0.999239
0.0133643
-0.759005
-0.932115
-0.956031
-0.959974
-0.961309
-0.961585
-0.961499
-0.961882
-0.963056
-0.96503
-0.967769
-0.97126
-0.975474
-0.980373
-0.985952
-0.99213
-0.998906
-1.00628
-1.0142
-1.02267
-1.03171
-1.0413
-1.05142
-1.06211
-1.07321
-1.08508
-1.09741
-1.1103
-1.12373
-1.13774
-1.15231
-1.1675
-1.18335
-1.1999
-1.21715
-1.2346
-1.25328
-1.27281
-1.29314
-1.31424
-1.3376
-1.3572
-1.38174
-1.40815
-1.43491
-0.72091
-0.885379
-0.767068
-0.607044
-0.721061
-0.899126
-0.953676
-0.965569
-0.969551
-0.970648
-0.970968
-0.97152
-0.972537
-0.974036
-0.975999
-0.978476
-0.981422
-0.984843
-0.988838
-0.99324
-0.99812
-1.00348
-1.00911
-1.0154
-1.02228
-1.02949
-1.03715
-1.04537
-1.05389
-1.063
-1.07254
-1.08254
-1.09302
-1.10395
-1.11535
-1.12726
-1.13979
-1.15296
-1.16389
-1.17813
-1.19258
-1.20611
-1.22234
-1.23913
-1.25618
-1.27498
-1.29146
-1.3134
-1.3351
-1.34571
-1.19434
-0.938918
-0.853738
-0.84561
-0.870302
-0.896751
-0.908977
-0.912632
-0.913746
-0.914724
-0.915966
-0.917421
-0.919089
-0.92101
-0.923217
-0.925674
-0.928531
-0.931632
-0.935052
-0.938784
-0.942827
-0.947186
-0.951584
-0.957035
-0.962297
-0.967869
-0.973807
-0.980018
-0.986442
-0.993526
-1.00065
-1.00808
-1.01582
-1.02384
-1.03215
-1.04087
-1.0501
-1.05972
-1.0682
-1.08239
-1.09254
-1.10279
-1.1151
-1.12708
-1.14002
-1.15267
-1.16748
-1.18281
-1.19405
-1.21336
-0.796007
-0.786046
-0.813512
-0.830396
-0.835619
-0.836761
-0.837231
-0.838307
-0.839983
-0.841844
-0.843767
-0.845744
-0.847841
-0.850071
-0.852433
-0.85493
-0.857587
-0.860391
-0.863349
-0.866454
-0.86972
-0.873142
-0.876518
-0.880783
-0.884632
-0.888649
-0.892829
-0.897131
-0.901529
-0.906367
-0.911106
-0.916044
-0.920851
-0.926126
-0.931245
-0.936615
-0.942212
-0.948098
-0.954163
-0.96007
-0.968735
-0.974544
-0.980656
-0.987159
-0.994009
-1.00117
-1.00874
-1.01446
-1.02191
-1.03368
-0.774761
-0.776738
-0.777007
-0.777349
-0.778131
-0.779467
-0.781118
-0.782833
-0.784554
-0.786291
-0.78806
-0.789868
-0.791714
-0.793599
-0.795517
-0.797481
-0.799489
-0.80154
-0.803636
-0.805776
-0.807972
-0.810214
-0.812266
-0.815073
-0.817434
-0.819861
-0.822346
-0.824778
-0.827518
-0.83002
-0.832685
-0.835406
-0.837954
-0.841026
-0.843831
-0.846665
-0.849536
-0.852551
-0.855763
-0.854975
-0.861649
-0.86439
-0.867039
-0.870726
-0.874131
-0.875775
-0.881231
-0.884073
-0.887337
-0.893279
-0.738583
-0.740941
-0.743282
-0.745601
-0.747907
-0.750193
-0.752138
-0.754408
-0.756758
-0.759017
-0.761276
-0.763825
-0.766026
-0.768233
-0.770435
-0.773251
-0.775401
-0.777521
-0.779518
-0.782294
-0.784455
-0.786598
-0.788483
-0.79033
-0.792487
-0.79451
-0.795073
-0.797829
-0.79954
-0.802249
-0.804161
-0.806035
-0.807077
-0.809181
-0.811067
-0.810465
-0.814369
-0.815954
-0.817464
-0.818955
-0.820724
-0.82222
-0.823422
-0.824752
-0.826007
-0.826118
-0.827202
-0.829567
-0.830281
-0.831062
-0.832567
-0.833173
-0.833653
-0.834025
-0.834173
-0.838522
-0.838632
-0.836454
-0.837756
-0.837362
-0.836784
-0.836051
-0.835241
-0.833182
-0.83226
-0.831129
-0.82961
-0.827828
-0.826338
-0.824494
-0.822386
-0.819975
-0.815645
-0.814576
-0.811971
-0.809135
-0.805569
-0.803072
-0.799693
-0.791937
-0.788205
-0.785562
-0.781362
-0.777032
-0.772686
-0.768174
-0.763605
-0.756971
-0.753949
-0.7536
-0.748207
-0.742588
-0.737041
-0.731399
-0.725579
-0.719725
-0.714123
-0.708445
-0.702017
-0.698159
-0.691812
-0.685382
-0.679035
-0.672857
-0.666758
-0.660648
-0.653196
-0.648285
-0.642286
-0.636184
-0.629974
-0.62436
-0.619009
-0.609373
-0.607169
-0.601467
-0.596031
-0.591131
-0.586554
-0.582454
-0.578704
-0.556167
-0.560174
-0.556891
-0.551581
-0.548654
-0.545685
-0.540136
-0.539214
-0.536484
-0.530567
-0.529298
-0.528093
-0.515687
-0.522532
-0.521085
-0.519875
-0.519064
-0.518567
-0.518234
-0.517979
-0.517887
-0.517993
-0.518287
-0.51875
-0.519392
-0.520221
-0.521238
-0.522439
-0.523824
-0.525392
-0.527139
-0.529059
-0.531144
-0.533389
-0.535787
-0.538333
-0.541021
-0.543843
-0.546795
-0.54987
-0.553062
-0.556363
-0.559768
-0.563271
-0.566863
-0.57054
-0.574293
-0.578118
-0.582007
-0.585954
-0.589954
-0.594001
-0.598088
-0.602212
-0.606367
-0.610549
-0.614753
-0.618977
-0.623215
-0.627466
-0.631727
-0.635995
-0.640269
-0.644548
-0.648831
-0.653116
-0.657403
-0.661693
-0.665985
-0.67028
-0.674578
-0.678881
-0.683188
-0.687502
-0.691823
-0.696153
-0.700494
-0.704846
-0.709213
-0.713595
-0.717996
-0.722416
-0.72686
-0.73133
-0.735827
-0.740357
-0.744921
-0.749522
-0.754165
-0.758851
-0.763584
-0.768367
-0.773202
-0.778092
-0.783039
-0.788044
-0.793109
-0.798235
-0.803423
-0.808674
-0.813986
-0.819361
-0.824798
-0.830295
-0.835852
-0.841468
-0.847141
-0.852869
-0.85865
-0.864483
-0.870365
-0.876294
-0.882268
-0.888284
-0.894338
-0.900429
-0.906554
-0.912708
-0.918888
-0.925092
-0.931314
-0.937552
-0.943799
-0.950053
-0.956307
-0.962556
-0.968795
-0.975017
-0.981216
-0.987386
-0.993519
-0.999608
-1.00565
-1.01163
-1.01754
-1.02338
-1.02914
-1.03481
-1.04038
-1.04586
-1.05122
-1.05647
-1.0616
-1.0666
-1.07146
-1.0762
-1.08079
-1.08524
-1.08955
-1.09372
-1.09774
-1.10163
-1.10538
-1.10901
-1.11251
-1.11591
-1.1192
-1.12241
-1.12554
-1.12861
-1.13164
-1.13464
-1.13761
-1.14058
-1.14356
-1.14656
-1.14959
-1.15266
-1.15577
-1.15893
-1.16214
-1.1654
-1.1687
-1.17202
-1.17536
-1.17872
-1.18216
-1.18555
-1.18851
-0.748526
-0.75097
-0.753578
-0.756018
-0.758418
-0.76081
-0.763286
-0.76562
-0.767502
-0.769963
-0.772262
-0.774523
-0.776808
-0.779041
-0.781246
-0.783413
-0.785538
-0.787617
-0.78973
-0.791963
-0.794101
-0.796174
-0.7982
-0.800207
-0.802201
-0.804119
-0.803884
-0.807196
-0.809106
-0.810507
-0.813122
-0.814806
-0.814888
-0.816894
-0.818633
-0.820275
-0.821842
-0.823609
-0.825007
-0.826299
-0.827468
-0.828045
-0.829242
-0.831395
-0.832457
-0.8334
-0.833772
-0.834918
-0.835638
-0.83617
-0.836694
-0.838416
-0.837328
-0.837702
-0.840785
-0.835755
-0.8396
-0.839624
-0.839434
-0.839075
-0.838629
-0.838059
-0.837147
-0.827912
-0.8297
-0.829011
-0.824286
-0.823851
-0.813033
-0.814549
-0.813291
-0.809982
-0.807684
-0.802571
-0.800945
-0.799235
-0.796219
-0.792811
-0.789524
-0.785999
-0.782271
-0.778449
-0.774034
-0.769504
-0.773328
-0.768365
-0.761909
-0.757201
-0.753257
-0.747573
-0.746573
-0.741347
-0.735435
-0.730593
-0.724818
-0.719623
-0.714237
-0.708769
-0.703116
-0.697483
-0.692049
-0.684862
-0.679112
-0.673371
-0.66762
-0.661907
-0.656353
-0.651044
-0.641729
-0.637926
-0.632493
-0.62647
-0.621405
-0.616862
-0.612353
-0.597914
-0.593383
-0.588817
-0.583848
-0.57855
-0.574023
-0.569994
-0.566331
-0.559108
-0.555178
-0.551144
-0.547129
-0.543692
-0.541157
-0.538137
-0.532479
-0.529743
-0.527773
-0.525433
-0.518631
-0.529128
-0.524105
-0.521974
-0.525883
-0.521265
-0.520565
-0.519702
-0.518838
-0.51855
-0.518857
-0.519481
-0.520372
-0.52151
-0.522876
-0.524464
-0.526256
-0.528251
-0.530448
-0.532845
-0.535435
-0.538209
-0.541159
-0.544273
-0.547541
-0.550955
-0.554504
-0.558178
-0.56197
-0.565869
-0.569868
-0.573958
-0.57813
-0.582376
-0.586688
-0.591058
-0.595479
-0.599942
-0.604441
-0.60897
-0.613522
-0.618092
-0.622675
-0.627267
-0.631862
-0.636458
-0.641053
-0.645642
-0.650226
-0.654801
-0.659369
-0.663927
-0.668476
-0.673017
-0.67755
-0.682076
-0.686597
-0.691112
-0.695624
-0.700133
-0.704641
-0.70915
-0.71366
-0.718174
-0.722692
-0.727217
-0.731749
-0.736293
-0.740849
-0.745422
-0.750014
-0.75463
-0.759274
-0.763949
-0.768662
-0.773416
-0.778216
-0.783067
-0.787973
-0.792938
-0.797965
-0.803057
-0.808216
-0.813444
-0.818743
-0.824112
-0.829553
-0.835063
-0.840643
-0.846292
-0.852007
-0.857787
-0.863629
-0.869531
-0.875491
-0.881506
-0.887573
-0.893688
-0.89985
-0.906053
-0.912297
-0.918576
-0.924887
-0.931227
-0.937592
-0.943978
-0.950381
-0.956797
-0.963221
-0.969649
-0.976076
-0.982497
-0.988906
-0.995297
-1.00166
-1.008
-1.0143
-1.02056
-1.02676
-1.03291
-1.03899
-1.045
-1.05092
-1.05676
-1.0625
-1.06814
-1.07366
-1.07906
-1.08435
-1.0895
-1.09451
-1.09939
-1.10412
-1.10871
-1.11315
-1.11745
-1.1216
-1.1256
-1.12947
-1.13321
-1.13682
-1.14032
-1.14372
-1.14702
-1.15024
-1.1534
-1.15652
-1.15959
-1.16265
-1.1657
-1.16875
-1.17183
-1.17493
-1.17807
-1.18125
-1.18448
-1.18777
-1.19111
-1.1945
-1.19793
-1.2014
-1.2049
-1.2084
-1.21192
-1.21543
-1.21875
-0.750117
-0.752848
-0.755505
-0.757527
-0.760279
-0.762895
-0.765461
-0.767955
-0.770488
-0.772907
-0.775246
-0.777613
-0.780582
-0.782899
-0.784897
-0.78725
-0.789449
-0.791606
-0.793733
-0.795802
-0.797821
-0.799346
-0.801294
-0.803272
-0.805218
-0.807034
-0.808872
-0.811024
-0.812396
-0.814306
-0.81588
-0.816482
-0.817943
-0.821135
-0.821237
-0.822747
-0.824045
-0.824248
-0.825532
-0.826746
-0.826683
-0.828033
-0.829219
-0.82579
-0.827513
-0.828416
-0.829194
-0.829571
-0.830212
-0.830806
-0.825906
-0.828034
-0.828537
-0.828539
-0.828415
-0.828571
-0.828101
-0.825232
-0.824666
-0.824556
-0.823785
-0.822107
-0.820988
-0.819296
-0.817034
-0.817013
-0.814277
-0.812402
-0.809975
-0.789726
-0.802227
-0.800041
-0.797478
-0.79466
-0.791811
-0.788728
-0.78551
-0.782058
-0.778458
-0.774708
-0.770813
-0.766759
-0.762612
-0.758417
-0.75366
-0.747945
-0.742998
-0.7497
-0.743797
-0.737903
-0.732297
-0.726876
-0.721416
-0.715909
-0.710405
-0.704923
-0.698699
-0.692212
-0.70103
-0.69464
-0.688434
-0.682437
-0.67662
-0.670891
-0.665287
-0.659004
-0.653418
-0.647925
-0.64244
-0.637077
-0.63183
-0.626701
-0.621717
-0.616906
-0.61223
-0.607818
-0.60355
-0.599962
-0.596737
-0.583356
-0.5795
-0.574859
-0.569785
-0.565648
-0.566064
-0.559602
-0.55623
-0.552831
-0.54935
-0.546291
-0.543671
-0.540892
-0.538459
-0.536294
-0.534158
-0.531463
-0.534121
-0.531581
-0.529446
-0.527891
-0.528894
-0.528006
-0.526776
-0.529214
-0.528434
-0.525962
-0.527893
-0.529069
-0.531007
-0.532237
-0.533896
-0.53589
-0.538103
-0.540523
-0.543156
-0.545996
-0.549038
-0.552274
-0.555695
-0.55929
-0.563047
-0.566954
-0.570998
-0.575168
-0.579453
-0.58384
-0.588318
-0.592877
-0.597506
-0.602194
-0.606932
-0.611711
-0.616522
-0.621357
-0.626209
-0.631072
-0.635938
-0.640805
-0.645666
-0.65052
-0.655363
-0.660195
-0.665013
-0.669818
-0.67461
-0.679389
-0.684157
-0.688915
-0.693665
-0.698409
-0.703149
-0.707886
-0.712623
-0.71736
-0.722099
-0.72684
-0.731585
-0.736334
-0.741086
-0.745843
-0.750604
-0.755373
-0.760149
-0.764936
-0.769737
-0.774557
-0.779399
-0.784269
-0.789173
-0.794115
-0.799103
-0.804139
-0.809229
-0.814377
-0.819586
-0.824857
-0.830193
-0.835594
-0.84106
-0.846592
-0.852187
-0.857845
-0.863565
-0.869343
-0.875178
-0.881067
-0.887008
-0.892997
-0.899032
-0.905109
-0.911226
-0.917379
-0.923565
-0.92978
-0.936023
-0.942286
-0.948568
-0.954865
-0.961172
-0.967487
-0.973805
-0.980122
-0.986434
-0.992736
-0.999023
-1.00529
-1.01154
-1.01775
-1.02394
-1.03008
-1.03618
-1.04222
-1.04822
-1.05415
-1.06001
-1.0658
-1.07152
-1.07714
-1.08268
-1.08813
-1.09348
-1.09873
-1.10387
-1.1089
-1.11382
-1.11864
-1.12334
-1.12792
-1.1324
-1.13678
-1.14105
-1.14523
-1.14931
-1.15331
-1.15723
-1.16109
-1.16489
-1.16864
-1.17235
-1.17604
-1.17971
-1.18336
-1.18702
-1.19067
-1.19434
-1.19802
-1.20171
-1.20541
-1.20914
-1.21287
-1.21661
-1.22036
-1.22411
-1.22786
-1.2316
-1.23531
-1.23901
-1.24268
-1.24634
-1.2499
-0.743373
-0.746332
-0.749185
-0.752004
-0.75481
-0.757591
-0.760343
-0.763047
-0.765683
-0.768268
-0.770845
-0.772515
-0.775319
-0.777728
-0.779976
-0.78229
-0.784474
-0.786581
-0.78869
-0.791806
-0.793817
-0.795756
-0.797861
-0.799645
-0.801309
-0.803047
-0.804751
-0.80638
-0.80787
-0.809339
-0.810768
-0.811964
-0.813243
-0.814402
-0.815565
-0.816528
-0.816964
-0.818207
-0.819026
-0.818993
-0.819743
-0.820154
-0.820436
-0.820616
-0.823317
-0.823514
-0.823575
-0.823504
-0.823329
-0.823033
-0.822539
-0.821388
-0.821882
-0.82116
-0.820263
-0.819273
-0.818074
-0.816606
-0.815406
-0.817231
-0.815667
-0.813917
-0.812014
-0.80999
-0.807821
-0.805501
-0.803039
-0.800282
-0.79707
-0.792798
-0.789843
-0.794931
-0.791954
-0.788136
-0.784793
-0.781335
-0.777836
-0.774301
-0.770642
-0.766902
-0.763082
-0.759186
-0.755217
-0.751177
-0.747014
-0.742871
-0.738876
-0.734992
-0.728972
-0.723932
-0.72517
-0.720547
-0.715754
-0.710945
-0.706122
-0.701592
-0.696794
-0.691408
-0.683535
-0.687848
-0.682492
-0.677173
-0.672071
-0.667051
-0.662052
-0.657114
-0.652266
-0.647426
-0.642467
-0.638061
-0.63331
-0.628628
-0.624059
-0.619588
-0.615301
-0.611198
-0.606114
-0.602144
-0.596733
-0.593002
-0.590404
-0.586904
-0.581923
-0.582024
-0.577732
-0.573155
-0.569575
-0.571808
-0.56662
-0.563231
-0.563005
-0.559397
-0.556022
-0.553322
-0.551331
-0.549433
-0.546901
-0.543561
-0.545485
-0.543087
-0.537909
-0.536683
-0.536305
-0.535246
-0.534483
-0.541098
-0.540044
-0.541783
-0.542492
-0.543613
-0.544775
-0.545915
-0.547745
-0.550023
-0.552565
-0.555336
-0.558346
-0.561584
-0.565033
-0.568682
-0.572518
-0.576528
-0.580697
-0.585011
-0.589454
-0.594014
-0.598677
-0.603429
-0.608257
-0.61315
-0.618096
-0.623084
-0.628104
-0.633146
-0.638203
-0.643265
-0.648329
-0.653386