/*--------------------------------*- C++ -*----------------------------------*\
| =========                 |                                                 |
| \\      /  F ield         | OpenFOAM: The Open Source CFD Toolbox           |
|  \\    /   O peration     | Version:  2.4.0                                 |
|   \\  /    A nd           | Web:      www.OpenFOAM.org                      |
|    \\/     M anipulation  |                                                 |
\*---------------------------------------------------------------------------*/
FoamFile
{
    version     2.0;
    format      ascii;
    class       volScalarField;
    location    "4.1";
    object      p_rgh;
}
// * * * * * * * * * * * * * * * * * * * * * * * * * * * * * * * * * * * * * //

dimensions      [1 -1 -2 0 0 0 0];

internalField   nonuniform List<scalar> 
8000
(
53.3297
53.3518
53.3709
53.3915
53.4161
53.4488
53.4925
53.5466
53.6004
53.6581
53.7751
53.8796
53.6231
52.2136
51.4039
50.9085
36.7373
25.7918
18.698
10.0922
4.74772
2.5648
2.05531
1.90878
1.60406
1.20335
0.895002
0.730683
0.646111
0.594171
0.556086
0.524283
0.505078
0.499294
0.496646
0.494353
0.492862
0.491543
0.490225
0.489083
0.487806
0.486556
0.485205
0.483731
0.483288
0.500617
0.487386
0.500265
0.476097
0.51186
50.7782
50.8893
51.0148
51.1347
51.251
51.3846
51.5433
51.6273
51.2281
49.3488
47.6561
38.226
45.4502
13.4062
7.12132
1.68743
1.01645
1.38821
1.35225
1.02068
0.771943
0.650386
0.600346
0.57909
0.566658
0.55408
0.544271
0.539376
0.53682
0.535475
0.534587
0.533778
0.532214
0.531026
0.530075
0.528543
0.527373
0.526182
0.524993
0.523837
0.522736
0.521603
0.520257
0.519584
0.519967
0.521207
0.500469
0.512088
0.493953
0.523038
45.9296
46.1842
46.4817
46.787
46.898
46.1163
43.4173
41.8984
43.7204
3.93694
-3.62956
0.58127
0.91012
0.74696
0.623586
0.590311
0.560605
0.55628
0.56895
0.577282
0.577999
0.575368
0.573046
0.571666
0.570584
0.569604
0.568117
0.568771
0.564525
0.563181
0.56174
0.559649
0.55952
0.555956
0.554473
0.552993
0.551506
0.549987
0.548395
0.546712
0.54498
0.543096
0.54089
0.539298
0.547347
0.548326
0.530207
0.534578
0.522768
0.542485
47.2138
47.4677
47.7569
47.2509
43.9502
38.7426
-6.37965
0.40694
0.909975
0.517295
0.581243
0.599496
0.597262
0.612271
0.612559
0.61245
0.611668
0.610787
0.609817
0.610118
0.608106
0.607954
0.60589
0.604325
0.603956
0.60002
0.598323
0.596649
0.594902
0.593527
0.599282
0.590706
0.589294
0.588184
0.587107
0.586065
0.58502
0.583918
0.582701
0.581524
0.580796
0.582484
0.580493
0.576055
0.575745
0.590972
0.558498
0.56135
0.557851
0.563131
53.6784
53.3105
52.2803
50.4582
17.161
0.355889
0.603347
0.678008
0.673081
0.654001
0.646488
0.646368
0.646214
0.64591
0.645533
0.645251
0.645005
0.644768
0.644538
0.644309
0.644866
0.644678
0.64433
0.644171
0.64638
0.646015
0.645394
0.646225
0.642823
0.643379
0.643172
0.638405
0.637549
0.637346
0.637024
0.636588
0.635991
0.635201
0.634338
0.633836
0.633477
0.631808
0.625355
0.628122
0.624822
0.623221
0.62291
0.61238
0.609605
0.607045
58.9018
57.6396
52.7097
45.142
0.797529
0.727443
0.70088
0.69325
0.68949
0.691397
0.688199
0.686991
0.687401
0.687808
0.688244
0.68878
0.689417
0.690206
0.691138
0.692214
0.693395
0.69464
0.695949
0.697266
0.698436
0.700165
0.701306
0.702953
0.703289
0.704112
0.704762
0.70524
0.704796
0.704465
0.703553
0.702208
0.700506
0.698272
0.695513
0.692397
0.688983
0.685243
0.683752
0.674926
0.670075
0.663378
0.66377
0.653592
0.648117
0.643038
57.8583
58.0139
57.793
56.3454
11.3762
0.369551
0.329035
0.836894
0.889915
0.897758
0.832286
0.768105
0.740779
0.728443
0.721947
0.71895
0.718316
0.71876
0.719736
0.720489
0.720701
0.720265
0.719306
0.718027
0.716604
0.715212
0.714131
0.713486
0.713544
0.713775
0.714046
0.714309
0.714546
0.714865
0.715151
0.715234
0.714957
0.714183
0.712894
0.711165
0.708881
0.705988
0.702708
0.698656
0.694132
0.694352
0.68386
0.67957
0.672982
0.668077
54.2928
54.6352
55.0731
54.89
51.866
25.9617
5.11287
9.69673
9.8937
7.06084
6.60574
6.25469
5.52621
4.95276
4.47561
4.0155
3.60885
3.23394
2.88392
2.55606
2.26328
2.00727
1.78579
1.59507
1.43304
1.29615
1.18091
1.0836
1.00655
0.943699
0.889325
0.840571
0.798353
0.761549
0.729014
0.70029
0.675117
0.653445
0.635378
0.620745
0.609023
0.600679
0.596381
0.594266
0.587754
0.575513
0.56966
0.571166
0.569981
0.60553
69.4204
69.4576
69.5188
69.5848
69.6072
69.6163
69.9872
70.954
69.922
48.5915
42.0591
42.8167
42.6895
40.5341
38.6093
36.6036
34.4805
32.3132
30.1616
27.9689
25.7183
23.4628
21.2647
19.1458
17.1321
15.2544
13.5599
12.0267
10.5541
9.16581
7.89088
6.70957
5.64253
4.71863
3.923
3.24204
2.64496
2.13853
1.7373
1.4301
1.19241
1.01167
0.87717
0.773255
0.68689
0.618588
0.571937
0.543967
0.526934
0.508546
73.4442
73.3874
73.3431
73.3267
73.3473
73.408
73.4942
73.5662
73.5857
73.5195
73.3968
73.2847
73.2693
73.2702
73.303
73.4833
73.7488
74.2541
70.8098
68.9578
67.9743
66.8383
65.4075
63.6913
61.6831
59.3718
56.778
53.9518
50.9635
47.8076
44.4852
41.0517
37.4556
33.7417
30.0217
26.4332
23.0647
19.8755
16.8616
14.0894
11.4981
9.18526
7.20766
5.53725
4.04296
2.79809
1.93897
1.37328
1.0064
0.772006
74.2094
74.1589
74.1032
74.0436
73.9857
73.9264
73.8647
73.8008
73.7386
73.6864
73.6463
73.6276
73.629
73.6549
73.6987
73.7546
73.8104
73.858
73.893
73.918
73.9395
73.9648
73.9954
74.0288
74.0637
74.1009
74.1496
74.2333
74.3387
74.2571
72.9388
71.7215
70.9498
69.9754
68.61
66.809
64.4598
61.453
57.8037
53.5981
49.0771
44.2173
39.0607
33.7388
28.2283
22.6963
17.6134
12.9652
8.87091
5.51636
75.6305
75.6006
75.571
75.5425
75.5189
75.4978
75.4791
75.4625
75.448
75.4355
75.4251
75.4169
75.4108
75.4065
75.4039
75.4021
75.4009
75.3998
75.3999
75.401
75.4046
75.412
75.4239
75.4403
75.4616
75.4887
75.5235
75.5638
75.6051
75.6401
75.6669
75.686
75.7002
75.7152
75.7344
75.7626
75.8098
75.8623
75.7797
74.6462
73.5778
72.7712
71.5571
69.5839
66.56
62.3373
56.9926
50.482
42.7784
33.7279
76.516
76.4952
76.4731
76.4531
76.4357
76.4198
76.406
76.3939
76.3837
76.3753
76.3688
76.3643
76.3617
76.361
76.362
76.3647
76.369
76.3747
76.3818
76.3903
76.4001
76.4113
76.4239
76.4378
76.4531
76.4695
76.4872
76.5128
76.525
76.5476
76.5719
76.5979
76.6262
76.6575
76.6922
76.7306
76.7717
76.8105
76.842
76.8667
76.8853
76.8991
76.9148
76.9451
77.036
77.1264
75.1848
73.9473
71.9743
68.2805
77.5303
77.5145
77.4985
77.4842
77.4719
77.4601
77.4501
77.4409
77.4329
77.426
77.4201
77.4154
77.4118
77.4093
77.4079
77.4075
77.4083
77.4101
77.4129
77.4169
77.4219
77.428
77.4351
77.4433
77.4523
77.4621
77.4722
77.4909
77.4958
77.5112
77.5267
77.543
77.5602
77.5783
77.5976
77.6179
77.6394
77.6622
77.6864
77.7127
77.7416
77.7742
77.8111
77.8508
77.8875
77.9234
77.9576
77.9981
78.0592
78.091
77.809
77.8
77.7887
77.7784
77.7689
77.7597
77.7516
77.7439
77.737
77.7306
77.725
77.72
77.7157
77.712
77.7091
77.7068
77.7052
77.7043
77.7041
77.7047
77.7059
77.7078
77.7104
77.7137
77.7175
77.7218
77.7263
77.7412
77.7382
77.7466
77.7552
77.7644
77.7743
77.7848
77.796
77.8079
77.8205
77.8338
77.8477
77.8623
77.8776
77.8935
77.9102
77.9275
77.9456
77.9651
77.987
78.0082
78.0218
78.026
78.7344
78.723
78.7102
78.6998
78.6903
78.6815
78.6734
78.6661
78.6595
78.6536
78.6485
78.6441
78.6405
78.6375
78.6353
78.6337
78.6328
78.6326
78.6331
78.6343
78.6362
78.6387
78.6418
78.6456
78.6499
78.6549
78.6602
78.6723
78.6739
78.6817
78.69
78.699
78.7085
78.7187
78.7293
78.7406
78.7524
78.7648
78.7777
78.7911
78.8051
78.8196
78.8353
78.8525
78.8702
78.8811
78.8811
78.8289
78.6817
77.8115
78.7404
78.7317
78.7193
78.7091
78.6989
78.69
78.6818
78.6741
78.6671
78.6607
78.655
78.6498
78.6453
78.6415
78.6382
78.6356
78.6337
78.6324
78.6318
78.6318
78.6324
78.6337
78.6356
78.6381
78.6411
78.6447
78.6488
78.6534
78.6603
78.6647
78.6708
78.6772
78.6839
78.6908
78.6978
78.705
78.7122
78.7195
78.7266
78.7342
78.7433
78.7546
78.7652
78.7621
78.6977
78.454
78.0322
74.7685
68.0507
57.7048
79.5159
79.508
79.4984
79.4907
79.4821
79.474
79.4659
79.4576
79.4492
79.4407
79.432
79.4232
79.4143
79.4053
79.3963
79.3873
79.3784
79.3695
79.3609
79.3525
79.3446
79.3371
79.3303
79.3242
79.319
79.3149
79.312
79.3105
79.3105
79.3125
79.3162
79.322
79.3299
79.34
79.3521
79.3661
79.3819
79.4011
79.4272
79.4474
79.4569
79.4349
79.2317
78.7581
76.4301
68.5151
57.5332
43.8058
29.3669
16.6046
79.4058
79.41
79.4135
79.4174
79.4203
79.4239
79.4275
79.431
79.4344
79.4377
79.4408
79.4437
79.4462
79.4483
79.4499
79.451
79.4514
79.4509
79.4495
79.4469
79.4432
79.438
79.4313
79.4229
79.4126
79.4004
79.3861
79.3696
79.3509
79.3301
79.3074
79.283
79.2574
79.2309
79.205
79.183
79.1696
79.1631
79.1699
78.9622
78.2546
77.3196
69.976
57.1074
40.595
25.0601
13.0777
5.95281
2.68566
1.35988
79.9548
79.9704
79.9869
80.001
80.0121
80.0212
80.0276
80.0323
80.0351
80.036
80.0351
80.0327
80.0288
80.0235
80.017
80.0095
80.0012
79.9921
79.9826
79.9727
79.9628
79.953
79.9436
79.9345
79.9263
79.9189
79.9124
79.907
79.9023
79.8989
79.8956
79.8914
79.889
79.886
79.917
79.968
79.8642
79.0615
77.4307
73.4249
58.6529
40.5157
24.1116
9.42298
3.21348
1.76108
1.14264
0.763417
0.636765
0.590474
0.451309
0.460279
0.43836
0.440622
0.462867
0.378402
0.376703
0.375114
0.373234
0.371196
0.368986
0.366565
0.363968
0.361842
0.362197
0.34874
0.344995
0.340974
0.33665
0.332051
0.327202
0.322132
0.316873
0.311455
0.305909
0.300261
0.294538
0.288761
0.282951
0.277124
0.271295
0.265477
0.259681
0.253915
0.248191
0.242513
0.23689
0.231327
0.225831
0.220393
0.215038
0.209756
0.204558
0.199447
0.194424
0.189504
0.184686
0.179994
0.175251
0.170653
0.480412
0.488489
0.472213
0.475522
0.501554
0.416733
0.414578
0.41216
0.40949
0.406588
0.40344
0.40004
0.396399
0.392669
0.39146
0.383084
0.378177
0.37317
0.367914
0.36242
0.356714
0.350823
0.344776
0.338599
0.332319
0.32596
0.319543
0.31309
0.306618
0.300143
0.293677
0.287232
0.280846
0.274439
0.268111
0.261846
0.255648
0.249521
0.243473
0.237576
0.231603
0.225814
0.220122
0.214528
0.20904
0.203665
0.198412
0.193297
0.188264
0.183373
0.514825
0.521426
0.514455
0.515124
0.539348
0.477947
0.474286
0.470792
0.467019
0.462974
0.45866
0.454079
0.449231
0.444138
0.438967
0.433549
0.42711
0.420982
0.41463
0.408065
0.401312
0.394397
0.387347
0.380188
0.372945
0.36564
0.358293
0.350923
0.343548
0.336183
0.328839
0.321529
0.314271
0.307054
0.299901
0.292821
0.285819
0.278898
0.272069
0.26534
0.258724
0.252259
0.245838
0.239529
0.233366
0.227246
0.221442
0.215652
0.21011
0.204552
0.560993
0.551668
0.548151
0.540859
0.549325
0.538849
0.532955
0.528449
0.523861
0.518996
0.513855
0.508448
0.50275
0.496801
0.490595
0.484175
0.477467
0.470559
0.463445
0.456142
0.448678
0.441075
0.433351
0.425528
0.417631
0.409669
0.401675
0.393666
0.385651
0.37765
0.369677
0.361745
0.353927
0.34609
0.338296
0.330612
0.322999
0.315473
0.308178
0.300751
0.293533
0.286423
0.279472
0.272671
0.265932
0.25912
0.252601
0.246244
0.240058
0.234027
0.602534
0.598153
0.593973
0.591448
0.587204
0.586483
0.57931
0.57444
0.569456
0.56422
0.558722
0.552933
0.546957
0.540598
0.534167
0.527159
0.520064
0.512796
0.505335
0.497779
0.491392
0.482567
0.474397
0.46628
0.45815
0.449984
0.441791
0.433583
0.42538
0.417202
0.409048
0.400924
0.39285
0.384854
0.376924
0.369026
0.361218
0.353491
0.345772
0.338251
0.330763
0.323509
0.316257
0.30915
0.302212
0.295333
0.288384
0.28167
0.275131
0.268745
0.637948
0.632412
0.627375
0.622926
0.617477
0.611645
0.60584
0.599964
0.594319
0.588368
0.582187
0.576282
0.569801
0.563061
0.556214
0.549299
0.542304
0.535187
0.527961
0.520844
0.514035
0.508332
0.4978
0.489733
0.482004
0.474382
0.466708
0.459355
0.453645
0.445805
0.437428
0.429663
0.422108
0.414602
0.407125
0.399705
0.39248
0.385319
0.377625
0.370342
0.363179
0.356091
0.349065
0.342109
0.33525
0.328975
0.321897
0.315189
0.308612
0.302131
0.663929
0.653627
0.646256
0.639206
0.632099
0.62494
0.617715
0.610859
0.605145
0.595939
0.588445
0.581201
0.574156
0.566978
0.559938
0.553209
0.546126
0.538942
0.532478
0.525432
0.51875
0.512518
0.507463
0.4972
0.48995
0.483158
0.476541
0.469867
0.463602
0.458068
0.45244
0.444554
0.437199
0.430341
0.423944
0.417475
0.411335
0.406279
0.399688
0.392761
0.386135
0.379667
0.37321
0.36675
0.360337
0.353903
0.347364
0.34092
0.334489
0.32807
0.584665
0.572073
0.566178
0.562998
0.560016
0.556764
0.553435
0.550154
0.547232
0.545229
0.542132
0.536502
0.531976
0.528074
0.524589
0.520863
0.516945
0.51301
0.509226
0.505385
0.501413
0.497787
0.494408
0.490343
0.484127
0.479352
0.474898
0.470595
0.466174
0.461962
0.458343
0.454339
0.448446
0.442782
0.437503
0.432595
0.42748
0.422517
0.417927
0.412918
0.406893
0.400683
0.394676
0.388864
0.38301
0.377058
0.371019
0.364904
0.358712
0.352451
0.485353
0.472358
0.46678
0.465034
0.465294
0.466418
0.46774
0.471409
0.470714
0.474309
0.472472
0.473637
0.475024
0.476638
0.478204
0.479611
0.480812
0.481885
0.482769
0.483594
0.484839
0.485985
0.485896
0.485156
0.484019
0.483052
0.482059
0.48083
0.479341
0.477754
0.478095
0.474393
0.468356
0.465162
0.462052
0.458744
0.455159
0.451724
0.448514
0.444137
0.437039
0.431586
0.426262
0.420807
0.415077
0.409089
0.402819
0.396282
0.389532
0.38243
0.62752
0.543704
0.499961
0.479587
0.472007
0.470321
0.470506
0.471343
0.472611
0.47427
0.476315
0.478741
0.481505
0.484543
0.487848
0.491469
0.495226
0.498745
0.502103
0.505259
0.508231
0.510834
0.513283
0.515434
0.517292
0.518799
0.51987
0.520472
0.520647
0.520587
0.521167
0.517661
0.515419
0.512844
0.509732
0.50603
0.501966
0.499308
0.493251
0.486211
0.479214
0.471799
0.463766
0.45511
0.445914
0.436254
0.426186
0.415665
0.404602
0.393102
3.1299
1.60361
0.874228
0.598834
0.52388
0.509266
0.507495
0.508186
0.509096
0.509977
0.511004
0.51232
0.513997
0.516039
0.518374
0.520999
0.526057
0.527849
0.530369
0.532986
0.535507
0.537831
0.539857
0.541502
0.542675
0.543302
0.543334
0.542736
0.54137
0.539111
0.535974
0.532047
0.527387
0.522026
0.515957
0.509213
0.502038
0.493816
0.484894
0.4754
0.465255
0.454447
0.442998
0.430897
0.418125
0.404708
0.390599
0.375729
0.360407
0.344562
24.2889
15.4883
8.44844
3.75298
1.538
0.786248
0.583264
0.543797
0.536195
0.534768
0.53477
0.535206
0.535816
0.536571
0.537481
0.538505
0.539578
0.540518
0.541247
0.541711
0.541813
0.5414
0.54037
0.538717
0.536432
0.53349
0.529921
0.52545
0.520249
0.514271
0.507486
0.499844
0.491263
0.481969
0.4712
0.459604
0.447161
0.433879
0.419782
0.404934
0.389444
0.373231
0.35622
0.338809
0.320889
0.302496
0.283717
0.264538
0.244751
0.224487
62.1028
53.084
40.9613
26.8599
13.703
4.53306
1.24437
0.642388
0.55639
0.533487
0.524534
0.520597
0.519025
0.518686
0.518884
0.519139
0.519114
0.518621
0.517511
0.515667
0.513009
0.509473
0.504984
0.499428
0.492753
0.484974
0.476117
0.466312
0.455344
0.443462
0.430729
0.41719
0.402914
0.388001
0.372607
0.35616
0.33918
0.321732
0.303791
0.285359
0.266479
0.247189
0.227383
0.206874
0.186173
0.165069
0.143522
0.121514
0.0990705
0.0762436
76.6651
75.0102
70.4472
60.9773
42.3794
15.1246
2.93537
0.742603
0.499101
0.457167
0.441877
0.435424
0.433089
0.432518
0.432428
0.432111
0.43099
0.428795
0.425412
0.420815
0.415012
0.408055
0.400044
0.39097
0.380873
0.370127
0.358341
0.346228
0.332829
0.318774
0.304174
0.289013
0.27329
0.257094
0.240487
0.22314
0.205231
0.18686
0.168011
0.148632
0.128699
0.108208
0.0872165
0.0655232
0.043183
0.0201526
-0.00358983
-0.0281481
-0.0532117
-0.0744423
77.9865
77.7444
75.0413
69.1858
53.8213
20.2338
3.63224
0.699254
0.394984
0.35028
0.337445
0.333599
0.332682
0.332313
0.331416
0.329533
0.326587
0.322593
0.317591
0.311647
0.30479
0.296999
0.288473
0.279215
0.269255
0.258638
0.247438
0.235636
0.22315
0.210027
0.196335
0.18214
0.167361
0.152103
0.136135
0.119609
0.102499
0.084762
0.066369
0.0473462
0.0276567
0.00790719
-0.0134207
-0.0373761
-0.059779
-0.0849928
-0.109477
-0.135479
-0.162661
-0.190991
73.8243
66.6321
55.1523
39.488
19.5434
4.55222
0.899541
0.359423
0.293555
0.281797
0.279976
0.279898
0.279499
0.278325
0.276355
0.273611
0.27012
0.265917
0.261018
0.255435
0.249251
0.242474
0.235106
0.227217
0.218754
0.209713
0.200081
0.189959
0.179271
0.168191
0.156307
0.143955
0.131072
0.117634
0.103632
0.0890564
0.0738781
0.0581432
0.0418725
0.0252407
0.00786053
-0.0108194
-0.030856
-0.051455
-0.0725988
-0.0958194
-0.114842
-0.139862
-0.166148
-0.192376
43.7448
28.5584
14.9084
6.62262
2.48693
0.802583
0.384565
0.31007
0.295817
0.293243
0.292781
0.292229
0.291211
0.289713
0.287753
0.285277
0.282326
0.278914
0.27491
0.270507
0.265627
0.260284
0.254704
0.248415
0.241476
0.234252
0.226586
0.218376
0.20988
0.200755
0.191192
0.181191
0.170719
0.159787
0.148391
0.136487
0.124145
0.111668
0.101171
0.0868989
0.0715835
0.0578031
0.0416162
0.0251484
0.00816258
-0.0107378
-0.0275758
-0.0492554
-0.0692975
-0.0781358
8.23519
3.76434
1.60635
0.805725
0.517777
0.415157
0.382685
0.374397
0.372479
0.371393
0.37015
0.368695
0.367028
0.365106
0.3629
0.360451
0.357585
0.354481
0.351062
0.347332
0.343297
0.338973
0.334614
0.329086
0.323812
0.318238
0.312304
0.306115
0.299705
0.292575
0.285454
0.278018
0.27029
0.262279
0.253959
0.245291
0.23643
0.227555
0.219248
0.204393
0.193814
0.183474
0.171511
0.159532
0.146221
0.133532
0.11884
0.104684
0.0941041
0.0741871
0.871403
0.657727
0.541128
0.491476
0.476039
0.472364
0.471368
0.470178
0.468502
0.466644
0.464716
0.462739
0.460643
0.458413
0.456054
0.453559
0.450893
0.44809
0.445132
0.442029
0.438767
0.435395
0.432048
0.427692
0.423842
0.419825
0.415648
0.411374
0.406987
0.402101
0.397362
0.392433
0.38766
0.382361
0.377224
0.371855
0.366353
0.360928
0.355495
0.349583
0.340452
0.333993
0.327854
0.321351
0.314529
0.307511
0.300233
0.294889
0.286834
0.27572
0.566546
0.557413
0.554786
0.55374
0.552743
0.551393
0.549735
0.54802
0.546299
0.54456
0.542791
0.540983
0.539138
0.537253
0.535337
0.533373
0.531358
0.529307
0.527212
0.525071
0.522875
0.520674
0.518657
0.515768
0.513407
0.51098
0.508522
0.506104
0.503335
0.500816
0.498151
0.495453
0.492936
0.489818
0.487005
0.484171
0.4813
0.478376
0.475649
0.477061
0.469776
0.46653
0.463839
0.460227
0.457311
0.455934
0.450104
0.446792
0.443523
0.437904
0.167281
0.164925
0.162586
0.160281
0.157995
0.155732
0.153811
0.15154
0.149162
0.146859
0.144601
0.142072
0.13991
0.137703
0.135473
0.132699
0.130605
0.128561
0.126573
0.123758
0.121527
0.119346
0.117443
0.115579
0.113475
0.111549
0.111096
0.108281
0.106548
0.1039
0.102022
0.100202
0.0992167
0.0970941
0.095101
0.0955335
0.0917863
0.0904131
0.0890425
0.0875536
0.0857675
0.0840207
0.0828029
0.0814746
0.0803768
0.0804455
0.0793615
0.0768232
0.075954
0.0751684
0.0737313
0.0731834
0.07287
0.0730565
0.0729119
0.0682375
0.0675779
0.0695646
0.0683905
0.0689247
0.0695675
0.070326
0.0718026
0.073943
0.0748523
0.0753135
0.076394
0.078159
0.0796775
0.081615
0.083907
0.0868913
0.0913744
0.0923131
0.0943145
0.0968006
0.100316
0.10287
0.106921
0.115118
0.118855
0.120873
0.124599
0.128877
0.133224
0.137736
0.142376
0.150019
0.152844
0.152649
0.157728
0.1633
0.16885
0.174497
0.180313
0.186167
0.192016
0.19845
0.204896
0.208506
0.214234
0.220488
0.226831
0.233016
0.239394
0.24684
0.254421
0.259208
0.26412
0.269717
0.275898
0.281519
0.287277
0.297387
0.299259
0.304481
0.309849
0.314749
0.319326
0.323458
0.32743
0.35219
0.34733
0.349404
0.354525
0.35748
0.361706
0.367568
0.368284
0.369817
0.375326
0.376682
0.378823
0.392542
0.384725
0.38514
0.386001
0.386797
0.387291
0.387622
0.387877
0.387968
0.387863
0.387568
0.387106
0.386463
0.385635
0.384618
0.383416
0.382031
0.380463
0.378716
0.376797
0.374711
0.372467
0.370068
0.367522
0.364835
0.362012
0.35906
0.355985
0.352794
0.349492
0.346087
0.342585
0.338992
0.335316
0.331562
0.327738
0.323849
0.319901
0.315901
0.311855
0.307767
0.303643
0.299488
0.295306
0.291102
0.286879
0.28264
0.27839
0.274129
0.26986
0.265586
0.261307
0.257025
0.25274
0.248452
0.244163
0.239871
0.235576
0.231277
0.226975
0.222667
0.218353
0.214032
0.209702
0.205361
0.201009
0.196642
0.19226
0.18786
0.183439
0.178995
0.174526
0.170028
0.165499
0.160935
0.156333
0.151691
0.147005
0.142271
0.137488
0.132653
0.127763
0.122817
0.117812
0.112746
0.10762
0.102432
0.0971817
0.091869
0.0864941
0.0810576
0.0755602
0.0700031
0.0643875
0.0587148
0.0529868
0.0472054
0.0413724
0.0354902
0.0295611
0.0235874
0.0175718
0.011517
0.00542602
-0.000698161
-0.00685229
-0.0130329
-0.0192364
-0.0254589
-0.0316962
-0.037944
-0.0441974
-0.0504514
-0.0567007
-0.0629395
-0.0691617
-0.0753609
-0.0815305
-0.0876635
-0.0937526
-0.0997907
-0.10577
-0.111684
-0.117524
-0.123283
-0.128954
-0.134529
-0.140002
-0.145366
-0.150614
-0.155741
-0.160741
-0.165609
-0.170342
-0.174936
-0.179388
-0.183698
-0.187864
-0.191889
-0.195776
-0.199528
-0.203152
-0.206656
-0.21005
-0.213345
-0.216552
-0.219686
-0.222759
-0.225786
-0.228781
-0.231757
-0.234729
-0.237708
-0.240707
-0.243735
-0.246801
-0.249913
-0.253072
-0.256282
-0.25954
-0.262841
-0.266166
-0.269501
-0.272868
-0.276302
-0.27969
-0.282652
0.179773
0.177331
0.174714
0.172254
0.169839
0.167447
0.164979
0.162672
0.160817
0.158347
0.155993
0.153731
0.151448
0.14923
0.14703
0.144887
0.142884
0.140847
0.138734
0.136493
0.134244
0.132106
0.130078
0.12807
0.126081
0.124277
0.124657
0.12125
0.119199
0.117766
0.115211
0.113753
0.113783
0.111756
0.1098
0.108003
0.106436
0.104689
0.103358
0.102123
0.101268
0.100819
0.0996182
0.0973536
0.0959985
0.0949678
0.0945548
0.093438
0.0929213
0.0927188
0.0921914
0.0903732
0.0910525
0.090688
0.087954
0.0933841
0.0892316
0.0887741
0.0888178
0.0891741
0.0896194
0.0902159
0.0916815
0.101613
0.0995971
0.099558
0.103969
0.10449
0.116196
0.114396
0.115125
0.118319
0.120618
0.126152
0.127677
0.129149
0.132038
0.135417
0.138718
0.142261
0.146026
0.150576
0.156569
0.161109
0.15653
0.160156
0.166409
0.171118
0.175693
0.181446
0.182044
0.186949
0.192795
0.197674
0.203548
0.208723
0.214032
0.219472
0.225124
0.230766
0.236478
0.243812
0.249563
0.255084
0.260633
0.26633
0.271884
0.277254
0.287001
0.29062
0.29584
0.301763
0.306831
0.311492
0.31783
0.333353
0.33788
0.341066
0.344612
0.349699
0.354226
0.358282
0.362593
0.370219
0.374146
0.377465
0.38124
0.384676
0.387304
0.391484
0.39743
0.399266
0.401333
0.404995
0.41234
0.400215
0.404234
0.406355
0.403343
0.408438
0.409137
0.409061
0.40945
0.409675
0.409367
0.408744
0.407852
0.406713
0.405346
0.403758
0.401966
0.399971
0.397774
0.395377
0.392787
0.390013
0.387064
0.38395
0.380681
0.377268
0.373718
0.370044
0.366253
0.362353
0.358354
0.354264
0.350092
0.345846
0.341534
0.337164
0.332744
0.328281
0.323781
0.319252
0.3147
0.31013
0.305547
0.300956
0.29636
0.291764
0.28717
0.28258
0.277997
0.273421
0.268854
0.264295
0.259746
0.255205
0.250672
0.246146
0.241626
0.23711
0.232599
0.228089
0.223581
0.219072
0.214562
0.210048
0.20553
0.201006
0.196473
0.191929
0.187373
0.1828
0.178208
0.173592
0.168948
0.164273
0.15956
0.154806
0.150006
0.145155
0.140249
0.135285
0.130258
0.125166
0.120006
0.114778
0.109479
0.10411
0.0986697
0.093159
0.0875789
0.0819305
0.0762154
0.0704356
0.0645933
0.0586909
0.0527309
0.0467162
0.0406495
0.034534
0.0283727
0.0221688
0.0159257
0.0096467
0.0033354
-0.00300461
-0.00936959
-0.0157557
-0.0221588
-0.0285747
-0.0349991
-0.0414272
-0.0478541
-0.0542747
-0.0606835
-0.0670746
-0.0734421
-0.0797794
-0.0860799
-0.0923365
-0.098542
-0.104689
-0.11077
-0.116777
-0.122702
-0.128539
-0.134278
-0.139913
-0.145437
-0.150842
-0.156123
-0.161275
-0.16629
-0.171167
-0.1759
-0.180489
-0.18493
-0.189225
-0.193375
-0.197383
-0.201252
-0.204989
-0.208602
-0.212101
-0.215495
-0.218798
-0.222022
-0.225183
-0.228294
-0.23137
-0.234426
-0.237475
-0.24053
-0.243604
-0.246706
-0.249845
-0.253028
-0.256261
-0.259546
-0.262885
-0.266275
-0.269711
-0.273182
-0.276674
-0.280175
-0.283695
-0.287205
-0.290526
0.200507
0.197784
0.195198
0.193213
0.190453
0.187762
0.185143
0.182647
0.180118
0.177754
0.175459
0.173092
0.170081
0.16772
0.165703
0.163358
0.161179
0.159041
0.156932
0.154879
0.152986
0.151492
0.149546
0.147505
0.145428
0.143608
0.141797
0.139617
0.138218
0.136325
0.134874
0.134456
0.133
0.129623
0.129416
0.127914
0.126748
0.126624
0.125338
0.124018
0.123967
0.122639
0.121566
0.125328
0.123537
0.122414
0.121462
0.121026
0.120395
0.119832
0.125193
0.122909
0.122179
0.122067
0.122188
0.122073
0.122922
0.126014
0.126576
0.126424
0.126871
0.128489
0.129617
0.131492
0.133817
0.13368
0.136326
0.138213
0.141323
0.163144
0.149357
0.150733
0.153133
0.15595
0.158828
0.161903
0.165096
0.168537
0.172137
0.175886
0.179782
0.183843
0.18801
0.19231
0.199066
0.206573
0.211494
0.203677
0.207449
0.212737
0.218299
0.22372
0.229179
0.234685
0.240236
0.247334
0.257457
0.263969
0.253582
0.256793
0.262194
0.268159
0.273976
0.27971
0.285448
0.291816
0.297405
0.3028
0.308185
0.31353
0.318768
0.323897
0.328881
0.333692
0.338404
0.342854
0.347162
0.350947
0.356708
0.371186
0.375023
0.377561
0.381142
0.385263
0.385341
0.392171
0.395541
0.398359
0.401376
0.404433
0.407081
0.409846
0.412319
0.415143
0.419709
0.422486
0.419205
0.419757
0.421395
0.42295
0.422221
0.424704
0.426034
0.423212
0.422697
0.424712
0.423075
0.421861
0.419726
0.418372
0.416694
0.4147
0.412487
0.410066
0.407434
0.404593
0.401551
0.398315
0.394894
0.391299
0.387542
0.383635
0.379591
0.375421
0.371136
0.366749
0.362271
0.357712
0.353083
0.348395
0.343657
0.338878
0.334067
0.329232
0.32438
0.319518
0.314651
0.309785
0.304923
0.300069
0.295226
0.290394
0.285576
0.280771
0.275979
0.2712
0.266432
0.261674
0.256924
0.25218
0.24744
0.242703
0.237966
0.233229
0.22849
0.223749
0.219004
0.214255
0.209503
0.204747
0.199985
0.195216
0.19044
0.185653
0.180852
0.176032
0.17119
0.16632
0.161416
0.156474
0.151486
0.14645
0.14136
0.136212
0.131003
0.125732
0.120396
0.114995
0.109529
0.103997
0.0984017
0.0927435
0.0870243
0.081246
0.0754111
0.069522
0.0635814
0.0575921
0.0515572
0.0454797
0.0393628
0.0332098
0.0270241
0.0208091
0.0145659
0.00830279
0.00202103
-0.00427565
-0.0105834
-0.0168983
-0.0232163
-0.0295332
-0.0358448
-0.0421467
-0.0484343
-0.0547029
-0.0609478
-0.0671639
-0.073346
-0.079489
-0.0855873
-0.0916355
-0.0976279
-0.103559
-0.109423
-0.115214
-0.120927
-0.126556
-0.132096
-0.137542
-0.142891
-0.148137
-0.153279
-0.158312
-0.163234
-0.168046
-0.172746
-0.177336
-0.181816
-0.18619
-0.190462
-0.194636
-0.198719
-0.202719
-0.206642
-0.210499
-0.214298
-0.21805
-0.221765
-0.225451
-0.229118
-0.232775
-0.236428
-0.240084
-0.243749
-0.247427
-0.251118
-0.254825
-0.258547
-0.262281
-0.266025
-0.269774
-0.273524
-0.277271
-0.281007
-0.284725
-0.288419
-0.292093
-0.29575
-0.299311
0.229593
0.226649
0.223903
0.221106
0.218301
0.21552
0.212711
0.209926
0.207283
0.204698
0.202125
0.20051
0.197682
0.195241
0.192987
0.190676
0.188568
0.186549
0.184441
0.181251
0.179181
0.177241
0.175153
0.173508
0.171849
0.170111
0.168289
0.166589
0.165092
0.163623
0.162201
0.161037
0.159753
0.15859
0.157447
0.156634
0.156233
0.154963
0.154
0.153975
0.15324
0.153019
0.15297
0.152797
0.149902
0.149518
0.149389
0.149457
0.149632
0.149929
0.150526
0.151728
0.151139
0.151806
0.152701
0.153691
0.154897
0.156865
0.158042
0.155935
0.157325
0.159046
0.160949
0.162974
0.165143
0.167462
0.169925
0.172732
0.177248
0.182663
0.185598
0.17975
0.181357
0.184844
0.188183
0.191642
0.195136
0.198661
0.20232
0.20606
0.209879
0.213775
0.217745
0.221785
0.225964
0.230122
0.234177
0.239386
0.248293
0.253338
0.251511
0.253502
0.257274
0.262017
0.26684
0.271399
0.277198
0.286986
0.29513
0.289791
0.291701
0.295855
0.300892
0.305912
0.310911
0.31585
0.320762
0.325886
0.330861
0.335224
0.339745
0.344338
0.348906
0.353376
0.357689
0.362164
0.367357
0.371298
0.376514
0.380242
0.383552
0.390131
0.395254
0.394641
0.396315
0.400057
0.403636
0.402131
0.40796
0.411353
0.41093
0.41373
0.417012
0.419713
0.421793
0.424318
0.429477
0.432944
0.430447
0.430637
0.435314
0.436543
0.437532
0.440215
0.44099
0.433371
0.433326
0.431814
0.431457
0.430338
0.428683
0.427128
0.425214
0.422934
0.420392
0.41762
0.41461
0.411372
0.407923
0.404274
0.400438
0.396428
0.392259
0.387945
0.383501
0.378941
0.374279
0.369527
0.364699
0.359806
0.35486
0.349872
0.344852
0.33981
0.334753
0.32969
0.324627
0.31957
0.314521
0.309485
0.304464
0.299458
0.294467
0.289491
0.284527
0.279573
0.274626
0.269683
0.264741
0.259795
0.254844
0.249884
0.244913
0.239929
0.234931
0.229919
0.224892
0.219853
0.214801
0.209738
0.204664
0.199578
0.19448
0.189368
0.184239
0.179089
0.173913
0.168707
0.163467
0.158186
0.152862
0.14749
0.142069
0.136597
0.131073
0.125496
0.119868
0.11419
0.108464
0.10269
0.0968722
0.091012
0.0851122
0.0791751
0.0732036
0.0672005
0.0611684
0.0551104
0.0490294
0.0429285
0.0368109
0.0306797
0.0245382
0.0183898
0.012238
0.00608627
-6.17717e-05
-0.0062025
-0.0123322
-0.0184472
-0.0245437
-0.030618
-0.0366662
-0.0426846
-0.0486694
-0.0546169
-0.0605233
-0.066385
-0.0721986
-0.0779606
-0.0836678
-0.0893172
-0.0949059
-0.100431
-0.105891
-0.111283
-0.116606
-0.121859
-0.12704
-0.13215
-0.137188
-0.142157
-0.147056
-0.15189
-0.15666
-0.16137
-0.166025
-0.170629
-0.175188
-0.179707
-0.184193
-0.188653
-0.193093
-0.19752
-0.201939
-0.206356
-0.210775
-0.215202
-0.219639
-0.22409
-0.228554
-0.233031
-0.237521
-0.242018
-0.246517
-0.251014
-0.2555
-0.259967
-0.264407
-0.268809
-0.273165
-0.277464
-0.2817
-0.285867
-0.289964
-0.293988
-0.297939
-0.301844
-0.30578
-0.309716
0.264012
0.260822
0.257717
0.254677
0.251778
0.248817
0.24585
0.242916
0.239951
0.236988
0.234169
0.231417
0.228714
0.226026
0.223417
0.220855
0.218353
0.215958
0.213729
0.211505
0.209205
0.206899
0.205651
0.20345
0.200836
0.198637
0.196595
0.194675
0.192846
0.191081
0.189379
0.187745
0.186179
0.184684
0.183261
0.181942
0.18358
0.181211
0.179922
0.1792
0.178242
0.17761
0.180761
0.176929
0.176098
0.175541
0.17514
0.174832
0.174625
0.174573
0.174574
0.174616
0.17484
0.175175
0.175637
0.176319
0.177249
0.181824
0.178953
0.179772
0.180894
0.182212
0.183663
0.185247
0.186975
0.188835
0.190838
0.192986
0.195414
0.197869
0.200416
0.203295
0.208977
0.213457
0.216855
0.217325
0.218378
0.220706
0.224069
0.227616
0.23124
0.23496
0.238784
0.242712
0.246745
0.250885
0.255284
0.263123
0.267723
0.2586
0.262786
0.267371
0.271973
0.276556
0.281095
0.285622
0.291382
0.319923
0.303334
0.306784
0.311208
0.315833
0.320455
0.325018
0.329514
0.333949
0.338323
0.343467