/*--------------------------------*- C++ -*----------------------------------*\
| =========                 |                                                 |
| \\      /  F ield         | OpenFOAM: The Open Source CFD Toolbox           |
|  \\    /   O peration     | Version:  2.4.0                                 |
|   \\  /    A nd           | Web:      www.OpenFOAM.org                      |
|    \\/     M anipulation  |                                                 |
\*---------------------------------------------------------------------------*/
FoamFile
{
    version     2.0;
    format      ascii;
    class       volScalarField;
    location    "2.6";
    object      H;
}
// * * * * * * * * * * * * * * * * * * * * * * * * * * * * * * * * * * * * * //

dimensions      [0 2 -2 0 0 0 0];

internalField   nonuniform List<scalar> 
125
(
-11940.9
-11940.9
-11940.9
-11940.9
-11940.9
-11359.5
-11359.5
-11359.5
-11359.5
-11359.5
-10771.6
-10771.6
-10771.6
-10771.6
-10771.6
-10177.1
-10177.1
-10177.1
-10177.1
-10177.1
-9575.93
-9575.92
-9575.91
-9575.92
-9575.93
-8967.91
-8967.9
-8967.89
-8967.9
-8967.91
-8352.97
-8352.96
-8352.94
-8352.95
-8352.97
-7730.98
-7730.97
-7730.94
-7730.96
-7730.98
-7101.81
-7101.79
-7101.77
-7101.78
-7101.81
-6465.31
-6465.29
-6465.26
-6465.28
-6465.31
-5821.31
-5821.29
-5821.25
-5821.28
-5821.32
-5169.65
-5169.62
-5169.58
-5169.6
-5169.65
-4510.12
-4510.09
-4510.03
-4510.06
-4510.12
-3842.51
-3842.47
-3842.41
-3842.44
-3842.51
-3166.59
-3166.54
-3166.47
-3166.51
-3166.6
-2482.12
-2482.07
-2481.98
-2482.03
-2482.13
-1788.84
-1788.77
-1788.68
-1788.74
-1788.85
-1086.47
-1086.4
-1086.29
-1086.35
-1086.48
-50.2075
-50.1825
-50.1526
-50.1702
-50.2122
-38.1627
-38.1435
-38.1206
-38.1341
-38.1662
-38.5915
-38.5724
-38.5498
-38.5631
-38.5949
-38.9979
-38.9789
-38.9565
-38.9698
-39.0012
-39.3811
-39.3622
-39.3401
-39.3532
-39.3843
-39.7402
-39.7215
-39.6996
-39.7126
-39.7433
-40.0744
-40.0559
-40.0343
-40.0471
-40.0775
)
;

boundaryField
{
    BotWall
    {
        type            zeroGradient;
    }
    FreeStream
    {
        type            zeroGradient;
    }
    FrontNBack
    {
        type            empty;
    }
    LeftSide
    {
        type            symmetryPlane;
    }
    RightSide
    {
        type            symmetryPlane;
    }
    procBoundary0to1
    {
        type            processor;
        value           nonuniform List<scalar> 5(-40.3771 -40.3588 -40.3374 -40.3501 -40.3801);
    }
}


// ************************************************************************* //
