/*--------------------------------*- C++ -*----------------------------------*\
| =========                 |                                                 |
| \\      /  F ield         | OpenFOAM: The Open Source CFD Toolbox           |
|  \\    /   O peration     | Version:  2.4.0                                 |
|   \\  /    A nd           | Web:      www.OpenFOAM.org                      |
|    \\/     M anipulation  |                                                 |
\*---------------------------------------------------------------------------*/
FoamFile
{
    version     2.0;
    format      ascii;
    class       surfaceScalarField;
    location    "2.6";
    object      phi;
}
// * * * * * * * * * * * * * * * * * * * * * * * * * * * * * * * * * * * * * //

dimensions      [0 3 -1 0 0 0 0];

internalField   nonuniform List<scalar> 
220
(
2.62098e-18
-2.62101e-18
2.42215e-18
1.98775e-19
-1.63785e-18
4.06012e-18
-3.19859e-18
1.56081e-18
-3.19875e-18
8.00977e-18
-1.06319e-17
7.28484e-18
9.21867e-19
-4.91813e-18
1.62605e-17
-9.76943e-18
6.41003e-18
-1.29697e-17
1.35749e-17
-2.42081e-17
1.22557e-17
2.23901e-18
-8.274e-18
3.67874e-17
-1.65599e-17
1.46937e-17
-2.95311e-17
1.93318e-17
-4.35414e-17
1.73691e-17
4.19954e-18
-1.17374e-17
6.58908e-17
-2.35911e-17
2.6545e-17
-5.31238e-17
2.52592e-17
-6.88021e-17
2.26149e-17
6.84151e-18
-1.52996e-17
1.03802e-16
-3.08399e-17
4.20829e-17
-8.39652e-17
3.14e-17
-1.00204e-16
2.80184e-17
1.02208e-17
-1.89809e-17
1.50798e-16
-3.83565e-17
6.14562e-17
-1.22323e-16
3.77204e-17
-1.37926e-16
3.35649e-17
1.4374e-17
-2.27658e-17
2.07126e-16
-4.6111e-17
8.4799e-17
-1.68436e-16
4.4276e-17
-1.82203e-16
3.92827e-17
1.93649e-17
-2.66819e-17
2.73087e-16
-5.41617e-17
1.12277e-16
-2.22599e-16
5.10235e-17
-2.33228e-16
4.51533e-17
2.52328e-17
-3.07091e-17
3.48947e-16
-6.24693e-17
1.44035e-16
-2.8507e-16
5.80272e-17
-2.91257e-16
5.12103e-17
3.20476e-17
-3.48795e-17
4.35034e-16
-7.1101e-17
1.80254e-16
-3.56172e-16
6.52397e-17
-3.56498e-16
5.74313e-17
3.98539e-17
-3.91701e-17
5.31633e-16
-8.00144e-17
2.21096e-16
-4.36188e-16
7.27302e-17
-4.2923e-16
6.3853e-17
4.87292e-17
-4.36164e-17
6.391e-16
-8.92844e-17
2.66763e-16
-5.25473e-16
8.04427e-17
-5.09674e-16
7.04533e-17
5.87169e-17
-4.81939e-17
7.57745e-16
-9.886e-17
3.17427e-16
-6.24334e-16
8.84437e-17
-5.98119e-16
7.72635e-17
6.98956e-17
-5.29369e-17
8.87943e-16
-1.08805e-16
3.73294e-16
-7.3314e-16
9.66959e-17
-6.94815e-16
8.42525e-17
8.23378e-17
-5.78199e-17
1.03001e-15
-1.19077e-16
4.34551e-16
-8.52218e-16
1.0532e-16
-8.00136e-16
9.16049e-17
9.60518e-17
-6.29877e-17
1.18461e-15
-1.29844e-16
5.01406e-16
-9.82062e-16
1.14515e-16
-9.14651e-16
9.88581e-17
1.11708e-16
-6.81008e-17
1.35156e-15
-1.41364e-16
5.74669e-16
-1.12343e-15
1.2422e-16
-4.3867e-15
1.07843e-16
1.28086e-16
-7.41648e-17
1.53357e-15
-1.54247e-16
6.54751e-16
-5.3956e-15
1.37232e-16
-2.55107e-10
1.2134e-16
-2.5511e-10
-8.2634e-17
-2.55113e-10
-1.73686e-16
-2.55111e-10
-2.55107e-10
1.40065e-16
-2.55107e-10
1.2063e-16
-2.5511e-10
-8.32823e-17
-2.55112e-10
-1.73587e-16
-2.55111e-10
-2.55107e-10
1.39587e-16
-2.55107e-10
1.19194e-16
-2.5511e-10
-8.09228e-17
-2.55112e-10
-1.74623e-16
-2.55111e-10
-2.55107e-10
1.24448e-16
-2.55107e-10
1.10685e-16
-2.5511e-10
-7.47091e-17
-2.55112e-10
-1.56779e-16
-2.55111e-10
-2.55107e-10
1.14268e-16
-2.55108e-10
1.02797e-16
-2.5511e-10
-6.83839e-17
-2.55112e-10
-1.45028e-16
-2.55111e-10
-2.55107e-10
1.05613e-16
-2.55108e-10
9.57576e-17
-2.5511e-10
-6.25772e-17
-2.55112e-10
-1.35289e-16
-2.5511e-10
-2.55107e-10
9.66093e-17
8.90586e-17
-5.70631e-17
-1.25264e-16
)
;

boundaryField
{
    BotWall
    {
        type            calculated;
        value           nonuniform List<scalar> 5(1.27426e-23 -3.14711e-24 -1.33695e-22 -1.09328e-22 2.53244e-23);
    }
    FreeStream
    {
        type            calculated;
        value           nonuniform 0();
    }
    FrontNBack
    {
        type            empty;
        value           nonuniform 0();
    }
    LeftSide
    {
        type            symmetryPlane;
        value           uniform 0;
    }
    RightSide
    {
        type            symmetryPlane;
        value           uniform 0;
    }
    procBoundary0to1
    {
        type            processor;
        value           nonuniform List<scalar> 5(-2.55108e-10 -2.5511e-10 -2.55112e-10 -2.5511e-10 -2.55107e-10);
    }
}


// ************************************************************************* //
