/*--------------------------------*- C++ -*----------------------------------*\
| =========                 |                                                 |
| \\      /  F ield         | OpenFOAM: The Open Source CFD Toolbox           |
|  \\    /   O peration     | Version:  2.4.0                                 |
|   \\  /    A nd           | Web:      www.OpenFOAM.org                      |
|    \\/     M anipulation  |                                                 |
\*---------------------------------------------------------------------------*/
FoamFile
{
    version     2.0;
    format      ascii;
    class       volScalarField;
    location    "2.6";
    object      T;
}
// * * * * * * * * * * * * * * * * * * * * * * * * * * * * * * * * * * * * * //

dimensions      [0 0 0 1 0 0 0];

internalField   nonuniform List<scalar> 
125
(
293.118
293.118
293.118
293.118
293.118
293.356
293.356
293.356
293.356
293.356
293.596
293.596
293.596
293.596
293.596
293.839
293.839
293.839
293.839
293.839
294.085
294.085
294.085
294.085
294.085
294.334
294.334
294.334
294.334
294.334
294.585
294.585
294.585
294.585
294.585
294.839
294.839
294.839
294.839
294.839
295.097
295.097
295.097
295.097
295.097
295.357
295.357
295.357
295.357
295.357
295.62
295.62
295.62
295.62
295.62
295.886
295.886
295.887
295.887
295.886
296.156
296.156
296.156
296.156
296.156
296.429
296.429
296.429
296.429
296.429
296.705
296.705
296.705
296.705
296.705
296.985
296.985
296.985
296.985
296.985
297.269
297.269
297.269
297.269
297.269
297.556
297.556
297.556
297.556
297.556
297.979
297.979
297.979
297.979
297.979
297.979
297.979
297.979
297.979
297.979
297.979
297.979
297.979
297.979
297.979
297.979
297.979
297.979
297.979
297.979
297.978
297.978
297.978
297.978
297.978
297.978
297.978
297.978
297.978
297.978
297.978
297.978
297.978
297.978
297.978
)
;

boundaryField
{
    BotWall
    {
        type            fixedValue;
        value           uniform 293;
    }
    FreeStream
    {
        type            fixedValue;
        value           nonuniform 0();
    }
    FrontNBack
    {
        type            empty;
    }
    LeftSide
    {
        type            symmetryPlane;
    }
    RightSide
    {
        type            symmetryPlane;
    }
    procBoundary0to1
    {
        type            processor;
        value           nonuniform List<scalar> 5(297.978 297.978 297.978 297.978 297.978);
    }
}


// ************************************************************************* //
