/*--------------------------------*- C++ -*----------------------------------*\
| =========                 |                                                 |
| \\      /  F ield         | OpenFOAM: The Open Source CFD Toolbox           |
|  \\    /   O peration     | Version:  2.4.0                                 |
|   \\  /    A nd           | Web:      www.OpenFOAM.org                      |
|    \\/     M anipulation  |                                                 |
\*---------------------------------------------------------------------------*/
FoamFile
{
    version     2.0;
    format      ascii;
    class       volScalarField;
    location    "2.5";
    object      p;
}
// * * * * * * * * * * * * * * * * * * * * * * * * * * * * * * * * * * * * * //

dimensions      [1 -1 -2 0 0 0 0];

internalField   nonuniform List<scalar> 
8000
(
-0.180148
-0.176831
-0.173784
-0.17129
-0.169155
-0.167237
-0.165494
-0.163891
-0.162413
-0.161021
-0.159704
-0.158423
-0.157173
-0.155914
-0.154645
-0.15331
-0.151933
-0.150551
-0.149381
-0.148076
-0.144218
-0.132897
-0.121239
-0.172579
-0.402839
-0.495704
-0.0115111
-0.0108327
-0.0109996
-0.0110355
-0.0110332
-0.0110288
-0.0110278
-0.0110279
-0.011028
-0.011028
-0.0110278
-0.0110276
-0.0110273
-0.011027
-0.0110267
-0.0110263
-0.0110258
-0.0110254
-0.0110249
-0.0110244
-0.0110238
-0.0110233
-0.0110227
-0.0110221
-0.0969513
-0.0936595
-0.0898924
-0.086418
-0.0832898
-0.0804203
-0.0777714
-0.0753226
-0.0730749
-0.0710111
-0.0691349
-0.0674261
-0.0658954
-0.0645177
-0.0633075
-0.0622221
-0.0613049
-0.0606363
-0.0605268
-0.060603
-0.0577669
-0.0453845
-0.0315613
-0.0976101
-0.402198
-0.653058
-0.0336176
-0.0329224
-0.033101
-0.0331336
-0.0331304
-0.0331261
-0.0331251
-0.0331252
-0.0331252
-0.0331249
-0.0331244
-0.0331238
-0.0331231
-0.0331222
-0.0331213
-0.0331203
-0.0331192
-0.033118
-0.0331167
-0.0331154
-0.033114
-0.0331126
-0.0331111
-0.0331095
-0.190846
-0.187776
-0.184509
-0.181464
-0.178586
-0.1758
-0.173096
-0.170467
-0.167927
-0.165465
-0.163096
-0.160806
-0.158614
-0.156502
-0.154492
-0.152544
-0.150709
-0.14909
-0.148056
-0.147234
-0.143073
-0.127637
-0.106994
-0.178598
-0.526074
-0.8482
-0.0557457
-0.0550463
-0.0552182
-0.0552513
-0.0552472
-0.0552414
-0.0552387
-0.055237
-0.0552351
-0.0552328
-0.0552302
-0.0552274
-0.0552245
-0.0552213
-0.055218
-0.0552146
-0.055211
-0.0552074
-0.0552036
-0.0551997
-0.0551958
-0.0551918
-0.0551878
-0.0551837
-0.173247
-0.171051
-0.168578
-0.16611
-0.163625
-0.161085
-0.158485
-0.15582
-0.153098
-0.150309
-0.147457
-0.144525
-0.141518
-0.138406
-0.135192
-0.131815
-0.128297
-0.124753
-0.12163
-0.118565
-0.111065
-0.088233
-0.0553337
-0.13153
-0.577001
-1.13998
-0.0778801
-0.0771867
-0.0773582
-0.0773884
-0.0773829
-0.0773757
-0.0773712
-0.0773673
-0.0773629
-0.0773579
-0.0773526
-0.0773468
-0.0773408
-0.0773345
-0.077328
-0.0773214
-0.0773145
-0.0773076
-0.0773006
-0.0772935
-0.0772864
-0.0772792
-0.0772721
-0.077265
-0.137365
-0.135099
-0.132109
-0.128848
-0.125396
-0.121715
-0.117804
-0.113661
-0.10931
-0.104751
-0.100015
-0.0951026
-0.0900545
-0.0848746
-0.0796089
-0.0742411
-0.0688583
-0.0636929
-0.0594628
-0.0559611
-0.04755
-0.0191186
0.0248689
-0.0690516
-0.678759
-1.63985
-0.103427
-0.0996878
-0.0995631
-0.0996219
-0.0996348
-0.0996257
-0.0996132
-0.0996007
-0.0995876
-0.0995736
-0.0995588
-0.0995433
-0.0995274
-0.0995113
-0.0994949
-0.0994786
-0.0994623
-0.0994461
-0.0994301
-0.0994144
-0.0993989
-0.0993838
-0.099369
-0.0993546
-0.364165
-0.357397
-0.350602
-0.34481
-0.339884
-0.335629
-0.331986
-0.32895
-0.326497
-0.324621
-0.323288
-0.32248
-0.322159
-0.322308
-0.322841
-0.323819
-0.324982
-0.32642
-0.328002
-0.329926
-0.332984
-0.330483
-0.315426
-0.321239
-0.477305
-0.854327
-0.308568
-0.123324
-0.122584
-0.122588
-0.122487
-0.122376
-0.122273
-0.122179
-0.122093
-0.122015
-0.121943
-0.121876
-0.121815
-0.121759
-0.121707
-0.121659
-0.121615
-0.121574
-0.121536
-0.121501
-0.121469
-0.121439
-0.121411
-0.121385
-0.200587
-0.196411
-0.19154
-0.186678
-0.181827
-0.176908
-0.171886
-0.166781
-0.161589
-0.156337
-0.15102
-0.145676
-0.140302
-0.134954
-0.129629
-0.124407
-0.119274
-0.114354
-0.10982
-0.106149
-0.103165
-0.0973479
-0.0789546
-0.0600915
-0.12892
-0.486634
-0.915348
-0.14477
-0.143199
-0.143241
-0.143266
-0.143264
-0.143256
-0.143248
-0.14324
-0.143231
-0.143221
-0.143211
-0.143201
-0.14319
-0.143179
-0.143169
-0.143159
-0.143148
-0.143138
-0.143129
-0.143119
-0.14311
-0.143102
-0.143093
-0.134158
-0.131715
-0.128744
-0.125725
-0.122693
-0.119625
-0.116491
-0.113298
-0.110032
-0.106701
-0.103279
-0.0997714
-0.096138
-0.092382
-0.0884443
-0.0843121
-0.0798732
-0.0751205
-0.0701624
-0.0656107
-0.0611064
-0.0505661
-0.0161083
0.0344691
-0.0497745
-0.681522
-1.73968
-0.196158
-0.164843
-0.164558
-0.164649
-0.164668
-0.164666
-0.164665
-0.164668
-0.164672
-0.164677
-0.164682
-0.164688
-0.164695
-0.164701
-0.164708
-0.164715
-0.164721
-0.164728
-0.164735
-0.164742
-0.164748
-0.164755
-0.164761
-0.235818
-0.231044
-0.226008
-0.22123
-0.216576
-0.211926
-0.207275
-0.202613
-0.19797
-0.193332
-0.188732
-0.184155
-0.179656
-0.17521
-0.17091
-0.166722
-0.162759
-0.159026
-0.155637
-0.152956
-0.151161
-0.149435
-0.145377
-0.133689
-0.12862
-0.175759
-0.34947
-0.661229
-0.187892
-0.18549
-0.185569
-0.185673
-0.185751
-0.185818
-0.185879
-0.185936
-0.185989
-0.186038
-0.186084
-0.186126
-0.186166
-0.186203
-0.186237
-0.18627
-0.1863
-0.186329
-0.186355
-0.186381
-0.186405
-0.186428
-0.0574708
-0.0546836
-0.0512451
-0.0478732
-0.044674
-0.0415979
-0.038621
-0.0357271
-0.0329235
-0.0301946
-0.0275438
-0.0249453
-0.0223986
-0.019863
-0.017332
-0.0147407
-0.0120602
-0.00916683
-0.00602413
-0.00269362
0.000326131
0.00345428
0.0122729
0.0421314
0.0868951
0.0104105
-0.557686
-1.5422
-0.242464
-0.208101
-0.207841
-0.20794
-0.207966
-0.207977
-0.207991
-0.20801
-0.208031
-0.208053
-0.208076
-0.2081
-0.208124
-0.208149
-0.208173
-0.208198
-0.208222
-0.208246
-0.20827
-0.208293
-0.208316
-0.208338
-0.191249
-0.187429
-0.183428
-0.179562
-0.175656
-0.171636
-0.167478
-0.1632
-0.158793
-0.154276
-0.149634
-0.144896
-0.140046
-0.135131
-0.130129
-0.125129
-0.120094
-0.115139
-0.110272
-0.105596
-0.101549
-0.0982282
-0.0948273
-0.0880453
-0.0746374
-0.0689706
-0.118568
-0.27669
-0.655114
-0.231497
-0.229183
-0.229279
-0.229398
-0.22949
-0.22957
-0.229643
-0.229711
-0.229775
-0.229834
-0.229888
-0.229938
-0.229985
-0.230029
-0.23007
-0.230108
-0.230144
-0.230178
-0.23021
-0.230239
-0.230267
-0.00170815
0.000705413
0.00384631
0.00703188
0.0101452
0.0132159
0.0162736
0.0193157
0.0223448
0.0253499
0.0283379
0.0312969
0.0342393
0.0371521
0.0400561
0.0429376
0.0458315
0.0487377
0.0517331
0.0548111
0.0578551
0.0603064
0.0624812
0.0703584
0.0967955
0.138753
0.0623967
-0.493203
-1.47389
-0.291316
-0.252493
-0.252243
-0.252336
-0.252358
-0.252364
-0.252371
-0.252382
-0.252393
-0.252405
-0.252417
-0.252429
-0.252442
-0.252454
-0.252466
-0.252478
-0.25249
-0.252501
-0.252513
-0.252523
-0.252534
-0.176305
-0.173229
-0.170227
-0.167464
-0.164791
-0.162117
-0.159442
-0.15676
-0.154081
-0.151386
-0.148685
-0.145951
-0.143197
-0.140391
-0.137546
-0.134621
-0.131639
-0.128534
-0.125364
-0.121982
-0.118498
-0.114915
-0.111504
-0.108196
-0.10051
-0.0834305
-0.0705496
-0.155957
-0.469843
-0.684703
-0.277064
-0.274903
-0.274874
-0.274889
-0.274882
-0.274869
-0.274857
-0.274846
-0.274836
-0.274827
-0.274818
-0.27481
-0.274803
-0.274796
-0.274789
-0.274783
-0.274777
-0.274772
-0.274766
-0.274762
0.0295408
0.030747
0.0327384
0.0351317
0.0377965
0.0407403
0.0439726
0.0474968
0.0513067
0.0554019
0.0597736
0.0644221
0.069334
0.0745087
0.0799246
0.0855785
0.0914359
0.097488
0.103691
0.110042
0.116459
0.122737
0.128284
0.133208
0.141796
0.164982
0.199697
0.132045
-0.336666
-1.17019
-0.310877
-0.297448
-0.297218
-0.297283
-0.29729
-0.297277
-0.29726
-0.297244
-0.297227
-0.297209
-0.29719
-0.297171
-0.297151
-0.297132
-0.297113
-0.297094
-0.297075
-0.297056
-0.297038
-0.297021
-0.17382
-0.170455
-0.167255
-0.1646
-0.16237
-0.160476
-0.158895
-0.157636
-0.156692
-0.15607
-0.155759
-0.155764
-0.156069
-0.156681
-0.157574
-0.158748
-0.16017
-0.161823
-0.163658
-0.165668
-0.167699
-0.169822
-0.171574
-0.173374
-0.175594
-0.177803
-0.174907
-0.160381
-0.18968
-0.370956
-0.498482
-0.321372
-0.320409
-0.320249
-0.320139
-0.320026
-0.319917
-0.319817
-0.319726
-0.319643
-0.319567
-0.319497
-0.319433
-0.319374
-0.31932
-0.31927
-0.319223
-0.31918
-0.319141
-0.319104
-0.0523338
-0.0497013
-0.0466359
-0.0436362
-0.0407182
-0.0378269
-0.0349356
-0.0320457
-0.0291538
-0.0262642
-0.0233735
-0.0204889
-0.017609
-0.0147478
-0.0119067
-0.00910929
-0.00636174
-0.00370234
-0.00114365
0.00125716
0.0034895
0.00545142
0.0070054
0.00774005
0.00794903
0.00943296
0.0196366
0.033312
-0.022109
-0.313953
-0.799513
-0.342406
-0.34111
-0.341106
-0.341119
-0.341111
-0.341095
-0.341077
-0.341059
-0.34104
-0.341021
-0.341001
-0.340982
-0.340962
-0.340942
-0.340923
-0.340904
-0.340885
-0.340867
-0.340849
-0.0347729
-0.0345351
-0.0341294
-0.0335049
-0.0326525
-0.0315805
-0.0302918
-0.0287885
-0.0270698
-0.0251351
-0.022981
-0.0206043
-0.0179994
-0.0151599
-0.0120777
-0.00874285
-0.00514473
-0.001269
0.00289766
0.00738206
0.0122141
0.0174182
0.0228754
0.0282696
0.0339898
0.0429131
0.0648679
0.095449
0.0453751
-0.311547
-0.913116
-0.363076
-0.36236
-0.362412
-0.362437
-0.362439
-0.362435
-0.362432
-0.36243
-0.362428
-0.362425
-0.362423
-0.36242
-0.362418
-0.362415
-0.362412
-0.36241
-0.362407
-0.362405
-0.362403
-0.0380301
-0.0371426
-0.0360849
-0.0350344
-0.034003
-0.0329797
-0.0319622
-0.0309558
-0.0299648
-0.0289971
-0.0280551
-0.0271476
-0.0262752
-0.0254477
-0.024663
-0.0239307
-0.0232444
-0.0226131
-0.0220234
-0.0214746
-0.0209258
-0.0203824
-0.0199598
-0.0200725
-0.0203621
-0.0173319
0.0004696
0.0290676
-0.0349188
-0.464349
-1.15749
-0.3845
-0.383871
-0.383954
-0.383983
-0.383987
-0.383989
-0.383993
-0.384
-0.384007
-0.384014
-0.384022
-0.384029
-0.384036
-0.384044
-0.384051
-0.384058
-0.384065
-0.384071
-0.384078
-0.0837442
-0.0823318
-0.0808511
-0.0794951
-0.0782281
-0.0770091
-0.075831
-0.0746882
-0.0735828
-0.072509
-0.0714686
-0.0704564
-0.0694757
-0.0685256
-0.0676076
-0.0667315
-0.0658954
-0.0651206
-0.0644153
-0.0638015
-0.063303
-0.0629559
-0.0627131
-0.0631011
-0.0636945
-0.064562
-0.0606101
-0.0519167
-0.0738465
-0.188708
-0.312932
-0.406628
-0.405049
-0.405025
-0.405111
-0.405172
-0.405225
-0.405272
-0.405316
-0.405356
-0.405393
-0.405427
-0.405458
-0.405488
-0.405515
-0.40554
-0.405564
-0.405586
-0.405607
-0.405627
-0.0501182
-0.0492631
-0.0482271
-0.0472024
-0.0462104
-0.0452394
-0.0442868
-0.043357
-0.042454
-0.0415846
-0.040751
-0.0399601
-0.0392129
-0.0385165
-0.0378691
-0.0372772
-0.0367357
-0.0362494
-0.0358072
-0.0354035
-0.0350006
-0.0345976
-0.0343158
-0.0345668
-0.0350568
-0.0320465
-0.0142454
0.0146071
-0.0493734
-0.482181
-1.16844
-0.427716
-0.42723
-0.427329
-0.427362
-0.427369
-0.427374
-0.427381
-0.427391
-0.427401
-0.427412
-0.427423
-0.427434
-0.427445
-0.427457
-0.427468
-0.427479
-0.42749
-0.427501
-0.427512
-0.0110215
-0.0110208
-0.0110202
-0.0110195
-0.0110189
-0.0110182
-0.0110175
-0.0110169
-0.0110162
-0.0110155
-0.0110148
-0.0110142
-0.0110135
-0.0110128
-0.0110122
-0.0110115
-0.0110109
-0.0110103
-0.0110097
-0.011009
-0.0110084
-0.0110078
-0.0110073
-0.0110067
-0.0110062
-0.0110056
-0.0110051
-0.0110046
-0.0110041
-0.0110036
-0.0110031
-0.0110027
-0.0110022
-0.0110018
-0.0110014
-0.011001
-0.0110007
-0.0110003
-0.011
-0.0109996
-0.0109993
-0.010999
-0.0109987
-0.0109985
-0.0109982
-0.010998
-0.0109978
-0.0109976
-0.0109974
-0.0109972
-0.033108
-0.0331064
-0.0331047
-0.0331031
-0.0331014
-0.0330997
-0.033098
-0.0330963
-0.0330946
-0.0330929
-0.0330912
-0.0330895
-0.0330878
-0.0330862
-0.0330845
-0.0330829
-0.0330813
-0.0330797
-0.0330781
-0.0330766
-0.0330751
-0.0330736
-0.0330722
-0.0330708
-0.0330694
-0.0330681
-0.0330668
-0.0330655
-0.0330642
-0.033063
-0.0330619
-0.0330607
-0.0330597
-0.0330586
-0.0330576
-0.0330566
-0.0330557
-0.0330548
-0.0330539
-0.0330531
-0.0330523
-0.0330515
-0.0330508
-0.0330501
-0.0330495
-0.0330488
-0.0330483
-0.0330477
-0.0330472
-0.0330468
-0.0551797
-0.0551756
-0.0551715
-0.0551674
-0.0551633
-0.0551592
-0.0551552
-0.0551512
-0.0551472
-0.0551433
-0.0551395
-0.0551357
-0.0551319
-0.0551282
-0.0551246
-0.0551211
-0.0551176
-0.0551142
-0.0551109
-0.0551077
-0.0551045
-0.0551014
-0.0550984
-0.0550955
-0.0550927
-0.0550899
-0.0550873
-0.0550847
-0.0550822
-0.0550798
-0.0550775
-0.0550753
-0.0550731
-0.0550711
-0.0550691
-0.0550672
-0.0550653
-0.0550636
-0.0550619
-0.0550604
-0.0550588
-0.0550574
-0.0550561
-0.0550548
-0.0550536
-0.0550524
-0.0550513
-0.0550503
-0.0550494
-0.0550485
-0.077258
-0.077251
-0.0772441
-0.0772372
-0.0772305
-0.0772239
-0.0772174
-0.077211
-0.0772048
-0.0771987
-0.0771927
-0.0771869
-0.0771813
-0.0771758
-0.0771704
-0.0771652
-0.0771602
-0.0771553
-0.0771506
-0.077146
-0.0771416
-0.0771374
-0.0771333
-0.0771293
-0.0771255
-0.0771219
-0.0771184
-0.077115
-0.0771118
-0.0771088
-0.0771058
-0.077103
-0.0771003
-0.0770978
-0.0770954
-0.0770931
-0.0770909
-0.0770888
-0.0770869
-0.0770851
-0.0770834
-0.0770817
-0.0770802
-0.0770788
-0.0770775
-0.0770763
-0.0770752
-0.0770742
-0.0770732
-0.0770724
-0.0993406
-0.099327
-0.0993138
-0.0993011
-0.0992887
-0.0992768
-0.0992654
-0.0992543
-0.0992436
-0.0992334
-0.0992236
-0.0992141
-0.0992051
-0.0991964
-0.0991881
-0.0991801
-0.0991725
-0.0991652
-0.0991582
-0.0991516
-0.0991453
-0.0991392
-0.0991335
-0.099128
-0.0991228
-0.0991179
-0.0991132
-0.0991087
-0.0991045
-0.0991005
-0.0990968
-0.0990932
-0.0990899
-0.0990867
-0.0990837
-0.0990809
-0.0990783
-0.0990759
-0.0990736
-0.0990715
-0.0990696
-0.0990678
-0.0990661
-0.0990646
-0.0990632
-0.0990619
-0.0990608
-0.0990598
-0.0990589
-0.0990581
-0.12136
-0.121338
-0.121317
-0.121297
-0.121279
-0.121262
-0.121246
-0.121232
-0.121218
-0.121205
-0.121193
-0.121182
-0.121171
-0.121161
-0.121152
-0.121144
-0.121136
-0.121128
-0.121121
-0.121115
-0.121108
-0.121103
-0.121097
-0.121093
-0.121088
-0.121084
-0.12108
-0.121076
-0.121073
-0.12107
-0.121067
-0.121064
-0.121062
-0.121059
-0.121057
-0.121056
-0.121054
-0.121053
-0.121051
-0.12105
-0.121049
-0.121048
-0.121048
-0.121047
-0.121047
-0.121046
-0.121046
-0.121046
-0.121046
-0.121046
-0.143085
-0.143078
-0.14307
-0.143064
-0.143057
-0.143051
-0.143045
-0.14304
-0.143035
-0.14303
-0.143025
-0.143021
-0.143017
-0.143014
-0.143011
-0.143007
-0.143005
-0.143002
-0.143
-0.142998
-0.142996
-0.142994
-0.142992
-0.142991
-0.14299
-0.142989
-0.142988
-0.142987
-0.142987
-0.142986
-0.142986
-0.142986
-0.142986
-0.142986
-0.142986
-0.142986
-0.142986
-0.142987
-0.142988
-0.142988
-0.142989
-0.14299
-0.142991
-0.142992
-0.142993
-0.142994
-0.142995
-0.142997
-0.142998
-0.142999
-0.164767
-0.164773
-0.164779
-0.164785
-0.164791
-0.164796
-0.164802
-0.164807
-0.164812
-0.164817
-0.164822
-0.164827
-0.164832
-0.164836
-0.164841
-0.164845
-0.164849
-0.164853
-0.164857
-0.164861
-0.164865
-0.164869
-0.164873
-0.164877
-0.16488
-0.164884
-0.164888
-0.164891
-0.164895
-0.164898
-0.164902
-0.164905
-0.164908
-0.164912
-0.164915
-0.164918
-0.164921
-0.164925
-0.164928
-0.164931
-0.164934
-0.164937
-0.164941
-0.164944
-0.164947
-0.16495
-0.164953
-0.164956
-0.164959
-0.164963
-0.186449
-0.18647
-0.186489
-0.186508
-0.186525
-0.186542
-0.186558
-0.186573
-0.186588
-0.186602
-0.186615
-0.186628
-0.18664
-0.186652
-0.186663
-0.186674
-0.186685
-0.186695
-0.186705
-0.186714
-0.186723
-0.186732
-0.18674
-0.186748
-0.186756
-0.186764
-0.186771
-0.186779
-0.186786
-0.186793
-0.186799
-0.186806
-0.186812
-0.186818
-0.186824
-0.18683
-0.186836
-0.186842
-0.186847
-0.186852
-0.186858
-0.186863
-0.186868
-0.186873
-0.186878
-0.186883
-0.186888
-0.186893
-0.186898
-0.186902
-0.208359
-0.20838
-0.2084
-0.20842
-0.208439
-0.208457
-0.208475
-0.208492
-0.208509
-0.208525
-0.20854
-0.208555
-0.208569
-0.208583
-0.208597
-0.20861
-0.208622
-0.208634
-0.208646
-0.208657
-0.208668
-0.208678
-0.208688
-0.208698
-0.208708
-0.208717
-0.208726
-0.208734
-0.208743
-0.208751
-0.208759
-0.208767
-0.208774
-0.208781
-0.208789
-0.208795
-0.208802
-0.208809
-0.208815
-0.208822
-0.208828
-0.208834
-0.20884
-0.208846
-0.208852
-0.208857
-0.208863
-0.208868
-0.208874
-0.208879
-0.230294
-0.230319
-0.230343
-0.230365
-0.230387
-0.230407
-0.230426
-0.230445
-0.230462
-0.230479
-0.230495
-0.23051
-0.230525
-0.230539
-0.230552
-0.230565
-0.230577
-0.230589
-0.230601
-0.230612
-0.230622
-0.230633
-0.230643
-0.230652
-0.230661
-0.23067
-0.230679
-0.230688
-0.230696
-0.230704
-0.230712
-0.230719
-0.230727
-0.230734
-0.230741
-0.230748
-0.230755
-0.230761
-0.230768
-0.230774
-0.230781
-0.230787
-0.230793
-0.230799
-0.230805
-0.230811
-0.230816
-0.230822
-0.230828
-0.230833
-0.252544
-0.252554
-0.252564
-0.252574
-0.252583
-0.252591
-0.2526
-0.252608
-0.252616
-0.252624
-0.252631
-0.252639
-0.252646
-0.252652
-0.252659
-0.252666
-0.252672
-0.252678
-0.252684
-0.25269
-0.252695
-0.252701
-0.252706
-0.252712
-0.252717
-0.252722
-0.252727
-0.252732
-0.252737
-0.252742
-0.252747
-0.252752
-0.252756
-0.252761
-0.252766
-0.25277
-0.252775
-0.25278
-0.252784
-0.252789
-0.252793
-0.252798
-0.252803
-0.252807
-0.252812
-0.252816
-0.252821
-0.252825
-0.25283
-0.252835
-0.274757
-0.274753
-0.27475
-0.274746
-0.274743
-0.27474
-0.274737
-0.274735
-0.274733
-0.274731
-0.274729
-0.274728
-0.274727
-0.274726
-0.274725
-0.274724
-0.274724
-0.274724
-0.274723
-0.274724
-0.274724
-0.274724
-0.274725
-0.274726
-0.274727
-0.274728
-0.274729
-0.27473
-0.274732
-0.274734
-0.274735
-0.274737
-0.274739
-0.274741
-0.274744
-0.274746
-0.274749
-0.274751
-0.274754
-0.274757
-0.27476
-0.274763
-0.274767
-0.27477
-0.274773
-0.274777
-0.274781
-0.274784
-0.274788
-0.274792
-0.297004
-0.296988
-0.296972
-0.296957
-0.296943
-0.296929
-0.296916
-0.296903
-0.296891
-0.29688
-0.29687
-0.296859
-0.29685
-0.296841
-0.296833
-0.296825
-0.296818
-0.296811
-0.296804
-0.296798
-0.296793
-0.296788
-0.296784
-0.296779
-0.296776
-0.296772
-0.296769
-0.296767
-0.296764
-0.296762
-0.296761
-0.296759
-0.296758
-0.296758
-0.296757
-0.296757
-0.296757
-0.296757
-0.296758
-0.296759
-0.29676
-0.296761
-0.296762
-0.296764
-0.296766
-0.296768
-0.29677
-0.296773
-0.296775
-0.296778
-0.31907
-0.319038
-0.319009
-0.318981
-0.318956
-0.318932
-0.31891
-0.31889
-0.318871
-0.318853
-0.318837
-0.318821
-0.318807
-0.318794
-0.318782
-0.31877
-0.31876
-0.31875
-0.318741
-0.318733
-0.318725
-0.318718
-0.318712
-0.318706
-0.318701
-0.318696
-0.318692
-0.318688
-0.318685
-0.318682
-0.31868
-0.318678
-0.318676
-0.318675
-0.318674
-0.318673
-0.318673
-0.318673
-0.318673
-0.318674
-0.318675
-0.318676
-0.318678
-0.318679
-0.318681
-0.318683
-0.318686
-0.318689
-0.318691
-0.318694
-0.340832
-0.340816
-0.3408
-0.340785
-0.340771
-0.340757
-0.340744
-0.340731
-0.340719
-0.340708
-0.340697
-0.340687
-0.340678
-0.340669
-0.34066
-0.340653
-0.340645
-0.340639
-0.340632
-0.340627
-0.340621
-0.340617
-0.340612
-0.340608
-0.340605
-0.340602
-0.340599
-0.340596
-0.340594
-0.340593
-0.340592
-0.340591
-0.34059
-0.34059
-0.34059
-0.34059
-0.34059
-0.340591
-0.340592
-0.340594
-0.340595
-0.340597
-0.340599
-0.340602
-0.340604
-0.340607
-0.34061
-0.340613
-0.340617
-0.340621
-0.3624
-0.362398
-0.362396
-0.362394
-0.362392
-0.36239
-0.362388
-0.362387
-0.362386
-0.362384
-0.362383
-0.362382
-0.362382
-0.362381
-0.362381
-0.36238
-0.36238
-0.36238
-0.362381
-0.362381
-0.362382
-0.362383
-0.362383
-0.362385
-0.362386
-0.362388
-0.362389
-0.362391
-0.362393
-0.362395
-0.362398
-0.3624
-0.362403
-0.362406
-0.362409
-0.362413
-0.362416
-0.36242
-0.362424
-0.362428
-0.362432
-0.362436
-0.36244
-0.362445
-0.36245
-0.362455
-0.36246
-0.362465
-0.362471
-0.362476
-0.384084
-0.38409
-0.384096
-0.384101
-0.384107
-0.384112
-0.384117
-0.384122
-0.384127
-0.384132
-0.384136
-0.384141
-0.384145
-0.38415
-0.384154
-0.384159
-0.384163
-0.384168
-0.384172
-0.384176
-0.384181
-0.384185
-0.38419
-0.384195
-0.384199
-0.384204
-0.384209
-0.384214
-0.384219
-0.384224
-0.384229
-0.384234
-0.384239
-0.384245
-0.38425
-0.384256
-0.384262
-0.384268
-0.384274
-0.38428
-0.384286
-0.384292
-0.384298
-0.384305
-0.384312
-0.384318
-0.384325
-0.384332
-0.384339
-0.384346
-0.405646
-0.405663
-0.40568
-0.405696
-0.405712
-0.405727
-0.405741
-0.405755
-0.405768
-0.40578
-0.405793
-0.405805
-0.405816
-0.405827
-0.405838
-0.405849
-0.405859
-0.40587
-0.40588
-0.405889
-0.405899
-0.405909
-0.405918
-0.405927
-0.405936
-0.405946
-0.405955
-0.405964
-0.405972
-0.405981
-0.40599
-0.405999
-0.406008
-0.406017
-0.406025
-0.406034
-0.406043
-0.406052
-0.406061
-0.40607
-0.406079
-0.406088
-0.406097
-0.406106
-0.406115
-0.406124
-0.406133
-0.406143
-0.406152
-0.406161
-0.427523
-0.427533
-0.427544
-0.427554
-0.427565
-0.427575
-0.427585
-0.427594
-0.427604
-0.427614
-0.427624
-0.427633
-0.427643
-0.427652
-0.427661
-0.427671
-0.42768
-0.427689
-0.427698
-0.427708
-0.427717
-0.427726
-0.427735
-0.427745
-0.427754
-0.427763
-0.427772
-0.427782
-0.427791
-0.427801
-0.42781
-0.42782
-0.427829
-0.427839
-0.427848
-0.427858
-0.427868
-0.427878
-0.427888
-0.427898
-0.427908
-0.427918
-0.427928
-0.427938
-0.427949
-0.427959
-0.42797
-0.42798
-0.427991
-0.428001
-0.0109969
-0.0109968
-0.0109967
-0.0109967
-0.0109966
-0.0109965
-0.0109965
-0.0109964
-0.0109963
-0.0109963
-0.0109962
-0.0109962
-0.0109962
-0.0109961
-0.0109961
-0.0109961
-0.010996
-0.010996
-0.010996
-0.010996
-0.010996
-0.010996
-0.010996
-0.010996
-0.010996
-0.010996
-0.010996
-0.010996
-0.010996
-0.010996
-0.0109961
-0.0109961
-0.0109962
-0.0109962
-0.0109962
-0.0109963
-0.0109964
-0.0109964
-0.0109965
-0.0109965
-0.0109966
-0.0109967
-0.0109968
-0.0109969
-0.010997
-0.010997
-0.0109971
-0.0109972
-0.0109974
-0.0109975
-0.0109976
-0.0109977
-0.0109978
-0.010998
-0.0109981
-0.0109982
-0.0109984
-0.0109985
-0.0109987
-0.0109988
-0.010999
-0.0109992
-0.0109993
-0.0109995
-0.0109997
-0.0109999
-0.0110001
-0.0110002
-0.0110004
-0.0110006
-0.0110008
-0.0110011
-0.0110013
-0.0110015
-0.0110017
-0.0110019
-0.0110022
-0.0110024
-0.0110026
-0.0110029
-0.0110031
-0.0110034
-0.0110036
-0.0110039
-0.0110042
-0.0110044
-0.0110047
-0.011005
-0.0110053
-0.0110055
-0.0110058
-0.0110061
-0.0110064
-0.0110067
-0.011007
-0.0110073
-0.0110076
-0.011008
-0.0110083
-0.0110086
-0.0110089
-0.0110093
-0.0110096
-0.0110099
-0.0110103
-0.0110106
-0.011011
-0.0110113
-0.0110117
-0.0110121
-0.0110124
-0.0110128
-0.0110132
-0.0110135
-0.0110139
-0.0110143
-0.0110147
-0.0110151
-0.0110155
-0.0110159
-0.0110163
-0.0110167
-0.0110171
-0.0110175
-0.0110179
-0.0110183
-0.0110188
-0.0110192
-0.0110196
-0.0110201
-0.0110205
-0.0110209
-0.0110214
-0.0110218
-0.0110223
-0.0110227
-0.0110232
-0.0110236
-0.0110241
-0.0110246
-0.011025
-0.0110255
-0.011026
-0.0110265
-0.0110269
-0.0110274
-0.0110279
-0.0110284
-0.0110289
-0.0110294
-0.0110299
-0.0110304
-0.0110309
-0.0110314
-0.011032
-0.0110325
-0.011033
-0.0110335
-0.0110341
-0.0110346
-0.0110351
-0.0110357
-0.0110362
-0.0110368
-0.0110373
-0.0110379
-0.0110384
-0.011039
-0.0110395
-0.0110401
-0.0110407
-0.0110413
-0.0110418
-0.0110424
-0.011043
-0.0110436
-0.0110442
-0.0110448
-0.0110454
-0.011046
-0.0110466
-0.0110472
-0.0110478
-0.0110484
-0.0110491
-0.0110497
-0.0110503
-0.011051
-0.0110516
-0.0110523
-0.0110529
-0.0110535
-0.0110542
-0.0110549
-0.0110555
-0.0110562
-0.0110569
-0.0110575
-0.0110582
-0.0110589
-0.0110596
-0.0110603
-0.011061
-0.0110617
-0.0110624
-0.0110631
-0.0110638
-0.0110645
-0.0110653
-0.011066
-0.0110667
-0.0110674
-0.0110682
-0.0110689
-0.0110697
-0.0110704
-0.0110712
-0.0110719
-0.0110727
-0.0110735
-0.0110742
-0.011075
-0.0110758
-0.0110766
-0.0110774
-0.0110782
-0.011079
-0.0110798
-0.0110806
-0.0110814
-0.0110822
-0.011083
-0.0110838
-0.0110846
-0.0110855
-0.0110863
-0.0110871
-0.011088
-0.0110888
-0.0110897
-0.0110905
-0.0110914
-0.0110922
-0.0110931
-0.011094
-0.0110948
-0.0110957
-0.0110966
-0.0110974
-0.0110983
-0.0110992
-0.0111001
-0.011101
-0.0111019
-0.0111028
-0.0111037
-0.0111046
-0.0111055
-0.0111064
-0.0111073
-0.0111082
-0.0111091
-0.01111
-0.0111109
-0.0111118
-0.0111127
-0.0111136
-0.0111146
-0.0111155
-0.0111164
-0.0111173
-0.0111182
-0.0111191
-0.0111201
-0.011121
-0.0111219
-0.0111228
-0.0111237
-0.0111246
-0.0111255
-0.0111265
-0.0111274
-0.0111283
-0.0111292
-0.0111301
-0.011131
-0.0111319
-0.0111328
-0.0111337
-0.0111346
-0.0111355
-0.0111363
-0.0111372
-0.0111381
-0.011139
-0.0111399
-0.0111408
-0.0111416
-0.0111425
-0.0111433
-0.0330465
-0.0330463
-0.0330461
-0.0330458
-0.0330456
-0.0330454
-0.0330452
-0.033045
-0.0330448
-0.0330446
-0.0330444
-0.0330442
-0.0330441
-0.0330439
-0.0330438
-0.0330436
-0.0330435
-0.0330434
-0.0330433
-0.0330431
-0.033043
-0.0330429
-0.0330429
-0.0330428
-0.0330427
-0.0330427
-0.0330426
-0.0330426
-0.0330425
-0.0330425
-0.0330425
-0.0330425
-0.0330425
-0.0330425
-0.0330425
-0.0330425
-0.0330425
-0.0330426
-0.0330426
-0.0330427
-0.0330427
-0.0330428
-0.0330429
-0.033043
-0.0330431
-0.0330432
-0.0330433
-0.0330434
-0.0330436
-0.0330437
-0.0330439
-0.033044
-0.0330442
-0.0330444
-0.0330446
-0.0330448
-0.033045
-0.0330452
-0.0330454
-0.0330456
-0.0330459
-0.0330461
-0.0330464
-0.0330467
-0.0330469
-0.0330472
-0.0330475
-0.0330478
-0.0330482
-0.0330485
-0.0330488
-0.0330492
-0.0330495
-0.0330499
-0.0330502
-0.0330506
-0.033051
-0.0330514
-0.0330518
-0.0330523
-0.0330527
-0.0330531
-0.0330536
-0.033054
-0.0330545
-0.033055
-0.0330555
-0.033056
-0.0330565
-0.033057
-0.0330575
-0.0330581
-0.0330586
-0.0330592
-0.0330597
-0.0330603
-0.0330609
-0.0330615
-0.0330621
-0.0330627
-0.0330634
-0.033064
-0.0330647
-0.0330653
-0.033066
-0.0330667
-0.0330674
-0.0330681
-0.0330688
-0.0330695
-0.0330703
-0.033071
-0.0330718
-0.0330726
-0.0330733
-0.0330741
-0.0330749
-0.0330758
-0.0330766
-0.0330774
-0.0330783
-0.0330792
-0.03308
-0.0330809
-0.0330818
-0.0330827
-0.0330837
-0.0330846
-0.0330855
-0.0330865
-0.0330875
-0.0330885
-0.0330895
-0.0330905
-0.0330915
-0.0330925
-0.0330936
-0.0330946
-0.0330957
-0.0330968
-0.0330979
-0.033099
-0.0331001
-0.0331013
-0.0331024
-0.0331036
-0.0331048
-0.0331059
-0.0331072
-0.0331084
-0.0331096
-0.0331108
-0.0331121
-0.0331134
-0.0331147
-0.0331159
-0.0331173
-0.0331186
-0.0331199
-0.0331213
-0.0331226
-0.033124
-0.0331254
-0.0331268
-0.0331282
-0.0331297
-0.0331311
-0.0331326
-0.0331341
-0.0331356
-0.0331371
-0.0331386
-0.0331401
-0.0331417
-0.0331432
-0.0331448
-0.0331464
-0.033148
-0.0331496
-0.0331513
-0.0331529
-0.0331546
-0.0331562
-0.0331579
-0.0331596
-0.0331614
-0.0331631
-0.0331648
-0.0331666
-0.0331684
-0.0331702
-0.033172
-0.0331738
-0.0331756
-0.0331775
-0.0331794
-0.0331812
-0.0331831
-0.033185
-0.0331869
-0.0331889
-0.0331908
-0.0331928
-0.0331948
-0.0331968
-0.0331988
-0.0332008
-0.0332028
-0.0332049
-0.0332069
-0.033209
-0.0332111
-0.0332132
-0.0332153
-0.0332175
-0.0332196
-0.0332218
-0.0332239
-0.0332261
-0.0332283
-0.0332305
-0.0332327
-0.033235
-0.0332372
-0.0332395
-0.0332418
-0.0332441
-0.0332464
-0.0332487
-0.033251
-0.0332533
-0.0332557
-0.033258
-0.0332604
-0.0332628
-0.0332652
-0.0332676
-0.03327
-0.0332725
-0.0332749
-0.0332773
-0.0332798
-0.0332823
-0.0332848
-0.0332872
-0.0332897
-0.0332923
-0.0332948
-0.0332973
-0.0332998
-0.0333024
-0.0333049
-0.0333075
-0.0333101
-0.0333126
-0.0333152
-0.0333178
-0.0333204
-0.033323
-0.0333256
-0.0333282
-0.0333309
-0.0333335
-0.0333361
-0.0333387
-0.0333414
-0.033344
-0.0333467
-0.0333493
-0.033352
-0.0333546
-0.0333573
-0.0333599
-0.0333626
-0.0333652
-0.0333679
-0.0333705
-0.0333732
-0.0333758
-0.0333785
-0.0333811
-0.0333838
-0.0333864
-0.0333891
-0.0333917
-0.0333943
-0.0333969
-0.0333996
-0.0334022
-0.0334048
-0.0334074
-0.03341
-0.0334125
-0.0334151
-0.0334176
-0.0334202
-0.0334227
-0.0334253
-0.0334278
-0.0334302
-0.0550478
-0.0550473
-0.0550468
-0.0550464
-0.055046
-0.0550456
-0.0550452
-0.0550449
-0.0550445
-0.0550442
-0.0550439
-0.0550436
-0.0550433
-0.0550431
-0.0550428
-0.0550426
-0.0550424
-0.0550422
-0.055042
-0.0550419
-0.0550417
-0.0550416
-0.0550415
-0.0550414
-0.0550413
-0.0550413
-0.0550412
-0.0550412
-0.0550412
-0.0550412
-0.0550412
-0.0550413
-0.0550414
-0.0550414
-0.0550415
-0.0550416
-0.0550418
-0.0550419
-0.0550421
-0.0550423
-0.0550425
-0.0550427
-0.0550429
-0.0550432
-0.0550435
-0.0550438
-0.0550441
-0.0550444
-0.0550447
-0.0550451
-0.0550455
-0.0550459
-0.0550463
-0.0550467
-0.0550471
-0.0550476
-0.0550481
-0.0550486
-0.0550491
-0.0550496
-0.0550502
-0.0550508
-0.0550513
-0.0550519
-0.0550526
-0.0550532
-0.0550539
-0.0550545
-0.0550552
-0.0550559
-0.0550567
-0.0550574
-0.0550582
-0.0550589
-0.0550597
-0.0550606
-0.0550614
-0.0550622
-0.0550631
-0.055064
-0.0550649
-0.0550658
-0.0550667
-0.0550677
-0.0550687
-0.0550697
-0.0550707
-0.0550717
-0.0550727
-0.0550738
-0.0550749
-0.055076
-0.0550771
-0.0550782
-0.0550794
-0.0550806
-0.0550817
-0.0550829
-0.0550842
-0.0550854
-0.0550867
-0.0550879
-0.0550892
-0.0550905
-0.0550919
-0.0550932
-0.0550946
-0.055096
-0.0550974
-0.0550988
-0.0551002
-0.0551017
-0.0551032
-0.0551047
-0.0551062
-0.0551077
-0.0551093
-0.0551108
-0.0551124
-0.055114
-0.0551156
-0.0551173
-0.0551189
-0.0551206
-0.0551223
-0.055124
-0.0551258
-0.0551275
-0.0551293
-0.0551311
-0.0551329
-0.0551347
-0.0551366
-0.0551385
-0.0551403
-0.0551423
-0.0551442
-0.0551461
-0.0551481
-0.0551501
-0.0551521
-0.0551541
-0.0551562
-0.0551582
-0.0551603
-0.0551624
-0.0551645
-0.0551667
-0.0551689
-0.055171
-0.0551732
-0.0551755
-0.0551777
-0.05518
-0.0551823
-0.0551846
-0.0551869
-0.0551893
-0.0551916
-0.055194
-0.0551964
-0.0551989
-0.0552013
-0.0552038
-0.0552063
-0.0552088
-0.0552114
-0.0552139
-0.0552165
-0.0552191
-0.0552218
-0.0552244
-0.0552271
-0.0552298
-0.0552325
-0.0552352
-0.055238
-0.0552408
-0.0552436
-0.0552464
-0.0552493
-0.0552521
-0.055255
-0.055258
-0.0552609
-0.0552639
-0.0552668
-0.0552698
-0.0552729
-0.0552759
-0.055279
-0.0552821
-0.0552852
-0.0552884
-0.0552915
-0.0552947
-0.0552979
-0.0553012
-0.0553044
-0.0553077
-0.055311
-0.0553143
-0.0553177
-0.055321
-0.0553244
-0.0553278
-0.0553313