/*--------------------------------*- C++ -*----------------------------------*\
| =========                 |                                                 |
| \\      /  F ield         | OpenFOAM: The Open Source CFD Toolbox           |
|  \\    /   O peration     | Version:  2.4.0                                 |
|   \\  /    A nd           | Web:      www.OpenFOAM.org                      |
|    \\/     M anipulation  |                                                 |
\*---------------------------------------------------------------------------*/
FoamFile
{
    version     2.0;
    format      ascii;
    class       volScalarField;
    location    "2.5";
    object      p_rgh;
}
// * * * * * * * * * * * * * * * * * * * * * * * * * * * * * * * * * * * * * //

dimensions      [1 -1 -2 0 0 0 0];

internalField   nonuniform List<scalar> 
8000
(
0.495025
0.498342
0.50139
0.503883
0.506018
0.507936
0.509679
0.511282
0.51276
0.514152
0.515469
0.516751
0.518
0.519259
0.520528
0.521863
0.52324
0.524622
0.525792
0.527097
0.530954
0.542272
0.553926
0.502575
0.272335
-0.32345
-0.000327651
0.000350685
0.00018381
0.000147901
0.000150165
0.000154559
0.000155634
0.000155486
0.000155353
0.000155414
0.000155583
0.000155806
0.000156074
0.000156386
0.00015674
0.000157133
0.000157561
0.000158022
0.000158513
0.000159031
0.000159573
0.000160138
0.000160723
0.000161325
1.92857
1.93186
1.93563
1.9391
1.94223
1.9451
1.94775
1.9502
1.95244
1.95451
1.95638
1.95809
1.95962
1.961
1.96221
1.9633
1.96421
1.96488
1.96499
1.96491
1.96775
1.98012
1.99394
1.92787
1.62332
0.0290217
-6.72707e-05
0.000627815
0.000449248
0.000416596
0.000419754
0.000424078
0.000425062
0.00042498
0.000425022
0.000425333
0.000425819
0.000426426
0.000427142
0.000427965
0.000428888
0.000429906
0.000431011
0.000432197
0.000433458
0.000434786
0.000436176
0.000437621
0.000439115
0.000440653
3.18502
3.18809
3.19136
3.1944
3.19728
3.20007
3.20277
3.2054
3.20794
3.2104
3.21277
3.21506
3.21725
3.21936
3.22137
3.22332
3.22516
3.22678
3.22781
3.22863
3.23279
3.24821
3.26884
3.19722
2.84979
0.60869
0.000172103
0.000871157
0.000698764
0.000665744
0.000669806
0.000675634
0.000678297
0.000679986
0.000681906
0.000684203
0.000686775
0.000689557
0.000692525
0.000695665
0.000698963
0.000702402
0.000705967
0.000709643
0.000713415
0.000717269
0.000721193
0.000725173
0.000729198
0.000733257
4.55297
4.55516
4.55763
4.5601
4.56259
4.56513
4.56773
4.57039
4.57311
4.5759
4.57876
4.58169
4.5847
4.58781
4.59102
4.5944
4.59792
4.60146
4.60458
4.60764
4.61514
4.63796
4.67083
4.59464
4.14921
1.68436
0.000410238
0.0011006
0.000925679
0.000895407
0.000900853
0.000908109
0.000912644
0.000916547
0.000920917
0.000925857
0.000931235
0.00093696
0.00094298
0.000949256
0.000955751
0.000962429
0.000969254
0.000976196
0.000983224
0.000990311
0.000997433
0.00100457
0.00101169
0.00101879
5.93919
5.94146
5.94445
5.94771
5.95116
5.95484
5.95876
5.9629
5.96725
5.97181
5.97654
5.98146
5.9865
5.99168
5.99695
6.00232
6.0077
6.01287
6.01709
6.02059
6.029
6.05741
6.10138
6.00747
5.3978
3.39625
0.00561053
0.000989098
0.00108792
0.00102872
0.0010158
0.00102486
0.00103736
0.00104987
0.00106295
0.00107698
0.00109183
0.0011073
0.00112319
0.00113935
0.00115565
0.001172
0.0011883
0.00120448
0.00122047
0.00123621
0.00125167
0.0012668
0.00128158
0.00129598
7.06274
7.06951
7.0763
7.0821
7.08702
7.09128
7.09492
7.09796
7.10041
7.10228
7.10362
7.10443
7.10475
7.1046
7.10406
7.10309
7.10192
7.10048
7.0989
7.09697
7.09391
7.09639
7.11142
7.10562
6.9496
6.57162
0.624403
0.00113558
0.000436044
0.000430275
0.000530425
0.000641456
0.00074475
0.00083862
0.000924115
0.00100254
0.00107465
0.00114098
0.00120205
0.00125832
0.00131021
0.0013581
0.00140234
0.00144325
0.00148111
0.00151618
0.00154869
0.00157884
0.00160684
0.00163285
8.57667
8.58084
8.58571
8.59057
8.59542
8.60034
8.60537
8.61047
8.61566
8.62092
8.62623
8.63158
8.63695
8.6423
8.64762
8.65284
8.65798
8.6629
8.66743
8.6711
8.67407
8.67987
8.69824
8.71711
8.64831
8.29065
3.40302
0.0050852
0.00220651
0.00214454
0.00211853
0.00212036
0.00212835
0.00213633
0.00214456
0.00215351
0.00216314
0.00217324
0.00218363
0.00219417
0.00220475
0.00221528
0.00222568
0.0022359
0.00224587
0.00225557
0.00226495
0.002274
0.00228269
0.00229102
9.99344
9.99588
9.99886
10.0019
10.0049
10.008
10.0111
10.0143
10.0176
10.0209
10.0243
10.0278
10.0315
10.0352
10.0392
10.0433
10.0477
10.0525
10.0574
10.062
10.0665
10.077
10.1114
10.162
10.0778
9.44608
7.17035
0.123394
0.00311147
0.0031982
0.00310279
0.00308295
0.00308485
0.00308588
0.00308344
0.00307923
0.00307423
0.00306871
0.00306276
0.00305647
0.00304994
0.00304325
0.00303646
0.00302964
0.00302283
0.00301606
0.00300936
0.00300275
0.00299626
0.00298988
11.2421
11.2469
11.2519
11.2567
11.2614
11.266
11.2707
11.2753
11.28
11.2846
11.2892
11.2938
11.2983
11.3027
11.307
11.3112
11.3152
11.3189
11.3223
11.325
11.3268
11.3285
11.3325
11.3442
11.3493
11.3022
11.1294
3.30608
0.0210367
0.00465759
0.00455354
0.00444607
0.00436677
0.0043003
0.00423921
0.00418203
0.00412889
0.00407967
0.00403403
0.00399161
0.00395207
0.00391515
0.00388062
0.00384824
0.00381784
0.00378925
0.0037623
0.00373688
0.00371285
0.00369012
12.7708
12.7736
12.777
12.7804
12.7836
12.7867
12.7897
12.7926
12.7954
12.7981
12.8007
12.8033
12.8059
12.8084
12.811
12.8136
12.8162
12.8191
12.8223
12.8256
12.8286
12.8317
12.8405
12.8703
12.9151
12.8387
12.2706
9.34253
0.207048
0.00468035
0.00465761
0.00454811
0.00451874
0.0045074
0.00449339
0.004475
0.00445408
0.00443181
0.00440859
0.00438469
0.00436034
0.00433576
0.00431113
0.0042866
0.0042623
0.00423832
0.00421474
0.00419163
0.00416905
0.00414701
13.9874
13.9912
13.9952
13.9991
14.003
14.007
14.0112
14.0154
14.0198
14.0244
14.029
14.0337
14.0386
14.0435
14.0485
14.0535
14.0585
14.0635
14.0684
14.073
14.0771
14.0804
14.0837
14.0905
14.1039
14.1096
14.0601
13.9033
4.37367
0.031515
0.00571134
0.00558287
0.00545548
0.00536152
0.00528161
0.00520831
0.00513993
0.0050765
0.0050178
0.00496343
0.00491294
0.00486596
0.00482217
0.00478127
0.004743
0.00470714
0.00467348
0.00464183
0.00461203
0.00458393
15.5273
15.5297
15.5328
15.536
15.5391
15.5422
15.5453
15.5483
15.5513
15.5543
15.5573
15.5603
15.5632
15.5661
15.569
15.5719
15.5748
15.5777
15.5807
15.5838
15.5868
15.5893
15.5914
15.5993
15.6257
15.6677
15.5914
15.0358
12.0063
0.327938
0.00593594
0.00500167
0.00488516
0.00486076
0.00485449
0.00484691
0.00483659
0.0048251
0.00481318
0.00480104
0.00478878
0.00477647
0.00476422
0.00475209
0.00474013
0.00472838
0.00471689
0.00470567
0.00469474
0.00468411
16.703
16.7061
16.7091
16.7119
16.7145
16.7172
16.7199
16.7226
16.7253
16.7279
16.7306
16.7334
16.7361
16.7389
16.7418
16.7447
16.7477
16.7508
16.754
16.7573
16.7608
16.7644
16.7678
16.771
16.7787
16.7958
16.8087
16.7234
16.4092
5.37785
0.0331278
0.00476447
0.00471897
0.00469647
0.00470316
0.00471615
0.0047284
0.00473915
0.00474894
0.00475809
0.00476669
0.00477477
0.00478233
0.00478941
0.00479604
0.00480225
0.00480805
0.00481346
0.00481851
0.00482321
18.2592
18.2604
18.2624
18.2648
18.2675
18.2704
18.2737
18.2772
18.281
18.2851
18.2895
18.2941
18.299
18.3042
18.3096
18.3153
18.3211
18.3272
18.3334
18.3397
18.3461
18.3524
18.3579
18.3628
18.3714
18.3946
18.4293
18.3617
17.893
13.8772
0.147983
0.00629021
0.0047396
0.00466963
0.00466156
0.00467512
0.0046915
0.0047079
0.00472498
0.004743
0.00476174
0.00478093
0.00480034
0.00481979
0.00483914
0.00485827
0.00487708
0.00489549
0.00491343
0.00493085
19.4062
19.4096
19.4128
19.4154
19.4177
19.4195
19.4211
19.4224
19.4233
19.424
19.4243
19.4243
19.424
19.4233
19.4225
19.4213
19.4199
19.4182
19.4164
19.4143
19.4123
19.4102
19.4084
19.4065
19.4043
19.4021
19.4051
19.4196
19.3903
19.2065
3.34212
0.0185
0.00391509
0.00407096
0.00418016
0.00429315
0.00440212
0.00450184
0.00459255
0.00467544
0.00475143
0.0048212
0.00488535
0.0049444
0.00499882
0.00504903
0.00509542
0.00513831
0.00517802
0.00521482
20.878
20.8807
20.8837
20.8867
20.8897
20.8925
20.8954
20.8983
20.9012
20.9041
20.907
20.9099
20.9128
20.9156
20.9185
20.9213
20.924
20.9267
20.9292
20.9316
20.9338
20.9358
20.9373
20.938
20.9382
20.9397
20.9499
20.9636
20.9082
20.6163
10.8102
0.0185613
0.0055788
0.00558048
0.00556704
0.00557477
0.00559083
0.00560835
0.0056264
0.00564509
0.00566437
0.00568402
0.00570384
0.00572365
0.00574331
0.00576271
0.00578175
0.00580036
0.00581848
0.00583606
22.2459
22.2462
22.2466
22.2472
22.2481
22.2491
22.2504
22.2519
22.2536
22.2556
22.2577
22.2601
22.2627
22.2656
22.2686
22.272
22.2756
22.2794
22.2836
22.2881
22.2929
22.2981
22.3035
22.3089
22.3146
22.3235
22.3455
22.3761
22.3261
21.9692
16.4316
0.0099461
0.00669414
0.00664126
0.00661535
0.00661357
0.00661723
0.00662017
0.00662242
0.00662463
0.00662698
0.00662946
0.006632
0.00663457
0.00663716
0.00663974
0.0066423
0.00664482
0.00664729
0.00664969
23.593
23.5939
23.595
23.596
23.5971
23.5981
23.5991
23.6001
23.6011
23.6021
23.603
23.6039
23.6048
23.6056
23.6064
23.6071
23.6078
23.6084
23.609
23.6096
23.6101
23.6106
23.611
23.6109
23.6106
23.6136
23.6315
23.6601
23.5961
23.1667
20.8824
0.00899563
0.0075502
0.00746568
0.00743662
0.00743254
0.00743045
0.00742557
0.0074191
0.00741207
0.00740482
0.00739744
0.00739001
0.0073826
0.00737529
0.00736811
0.00736111
0.00735429
0.00734768
0.00734129
24.8977
24.8991
24.9006
24.9019
24.9032
24.9044
24.9056
24.9067
24.9078
24.9089
24.9099
24.911
24.9119
24.9129
24.9138
24.9147
24.9155
24.9163
24.917
24.9176
24.9181
24.9184
24.9186
24.9182
24.9176
24.9168
24.9207
24.9294
24.9075
24.7927
24.6701
0.0990109
0.0087399
0.0087618
0.00867496
0.00861402
0.0085614
0.00851357
0.0084698
0.00842969
0.00839284
0.00835886
0.00832744
0.00829829
0.00827115
0.00824581
0.00822208
0.0081998
0.00817881
0.00815899
26.2816
26.2825
26.2835
26.2846
26.2855
26.2865
26.2875
26.2884
26.2893
26.2902
26.291
26.2918
26.2925
26.2932
26.2939
26.2945
26.295
26.2955
26.2959
26.2963
26.2967
26.2971
26.2974
26.2971
26.2966
26.2996
26.3174
26.3463
26.2824
25.8496
25.0807
0.00862301
0.00892506
0.00882419
0.00879066
0.008784
0.00877919
0.00877128
0.00876159
0.00875121
0.00874049
0.00872953
0.00871838
0.00870714
0.00869587
0.00868462
0.00867343
0.00866233
0.00865133
0.00864046
0.000161942
0.000162573
0.000163215
0.000163867
0.000164526
0.000165192
0.000165861
0.000166534
0.000167208
0.000167881
0.000168554
0.000169224
0.00016989
0.000170551
0.000171206
0.000171854
0.000172495
0.000173127
0.000173749
0.000174361
0.000174963
0.000175553
0.000176131
0.000176697
0.000177249
0.000177788
0.000178313
0.000178825
0.000179321
0.000179803
0.00018027
0.000180722
0.000181158
0.000181579
0.000181984
0.000182374
0.000182748
0.000183106
0.000183448
0.000183775
0.000184086
0.000184381
0.00018466
0.000184924
0.000185173
0.000185406
0.000185621
0.000185818
0.000186006
0.000186229
0.00044223
0.000443838
0.000445475
0.000447134
0.00044881
0.000450501
0.0004522
0.000453905
0.000455611
0.000457314
0.000459012
0.000460702
0.00046238
0.000464043
0.00046569
0.000467317
0.000468924
0.000470506
0.000472064
0.000473594
0.000475097
0.000476569
0.000478011
0.000479421
0.000480797
0.00048214
0.000483448
0.000484721
0.000485959
0.00048716
0.000488324
0.000489452
0.000490542
0.000491596
0.000492612
0.000493591
0.000494533
0.000495437
0.000496305
0.000497136
0.00049793
0.000498688
0.000499409
0.000500095
0.000500746
0.000501361
0.000501944
0.000502495
0.000503006
0.000503442
0.000737339
0.000741434
0.000745532
0.000749626
0.000753706
0.000757766
0.000761798
0.000765795
0.000769752
0.000773664
0.000777524
0.000781329
0.000785074
0.000788755
0.00079237
0.000795915
0.000799386
0.000802783
0.000806103
0.000809343
0.000812504
0.000815582
0.000818577
0.000821489
0.000824317
0.000827059
0.000829717
0.000832289
0.000834776
0.000837179
0.000839496
0.00084173
0.000843879
0.000845946
0.00084793
0.000849832
0.000851654
0.000853395
0.000855058
0.000856643
0.000858152
0.000859584
0.000860942
0.000862227
0.00086344
0.000864582
0.000865653
0.000866654
0.000867589
0.000868493
0.00102584
0.00103283
0.00103974
0.00104656
0.00105329
0.0010599
0.0010664
0.00107277
0.001079
0.0010851
0.00109105
0.00109686
0.00110252
0.00110802
0.00111337
0.00111856
0.0011236
0.00112847
0.00113319
0.00113776
0.00114216
0.00114642
0.00115051
0.00115446
0.00115825
0.0011619
0.0011654
0.00116876
0.00117197
0.00117505
0.00117798
0.00118079
0.00118346
0.00118601
0.00118843
0.00119072
0.0011929
0.00119496
0.0011969
0.00119873
0.00120045
0.00120206
0.00120357
0.00120497
0.00120628
0.00120749
0.00120861
0.00120963
0.00121056
0.00121137
0.00130998
0.00132358
0.00133676
0.00134952
0.00136185
0.00137376
0.00138525
0.00139631
0.00140696
0.0014172
0.00142704
0.00143648
0.00144554
0.00145423
0.00146255
0.00147051
0.00147813
0.00148541
0.00149236
0.001499
0.00150533
0.00151136
0.00151711
0.00152258
0.00152778
0.00153272
0.00153741
0.00154186
0.00154607
0.00155006
0.00155383
0.00155739
0.00156074
0.0015639
0.00156687
0.00156966
0.00157226
0.0015747
0.00157697
0.00157908
0.00158104
0.00158285
0.00158451
0.00158603
0.00158742
0.00158868
0.00158981
0.00159082
0.00159171
0.00159251
0.00165704
0.00167955
0.0017005
0.00172001
0.00173821
0.00175517
0.001771
0.00178577
0.00179957
0.00181245
0.00182449
0.00183574
0.00184625
0.00185607
0.00186525
0.00187383
0.00188185
0.00188934
0.00189633
0.00190286
0.00190895
0.00191463
0.00191992
0.00192485
0.00192943
0.00193369
0.00193764
0.0019413
0.00194468
0.0019478
0.00195068
0.00195332
0.00195573
0.00195794
0.00195994
0.00196175
0.00196338
0.00196483
0.00196612
0.00196725
0.00196822
0.00196905
0.00196974
0.0019703
0.00197073
0.00197104
0.00197123
0.0019713
0.00197127
0.00197111
0.00229898
0.00230657
0.00231378
0.00232063
0.0023271
0.00233322
0.00233899
0.00234441
0.0023495
0.00235427
0.00235873
0.00236288
0.00236675
0.00237034
0.00237366
0.00237673
0.00237955
0.00238213
0.00238449
0.00238663
0.00238857
0.0023903
0.00239185
0.00239322
0.00239442
0.00239545
0.00239632
0.00239704
0.00239762
0.00239806
0.00239836
0.00239854
0.0023986
0.00239854
0.00239837
0.00239809
0.00239771
0.00239723
0.00239665
0.00239598
0.00239522
0.00239438
0.00239345
0.00239244
0.00239136
0.0023902
0.00238897
0.00238767
0.00238632
0.00238491
0.00298364
0.00297754
0.00297158
0.00296576
0.00296008
0.00295454
0.00294915
0.00294388
0.00293875
0.00293375
0.00292887
0.0029241
0.00291945
0.00291491
0.00291046
0.00290612
0.00290186
0.00289769
0.00289361
0.0028896
0.00288566
0.0028818
0.00287799
0.00287425
0.00287057
0.00286693
0.00286335
0.00285981
0.00285632
0.00285287
0.00284945
0.00284607
0.00284272
0.00283939
0.0028361
0.00283282
0.00282957
0.00282634
0.00282313
0.00281993
0.00281675
0.00281358
0.00281042
0.00280727
0.00280412
0.00280098
0.00279785
0.00279472
0.00279161
0.00278846
0.00366857
0.00364813
0.0036287
0.00361023
0.00359265
0.00357588
0.00355989
0.00354462
0.00353003
0.00351606
0.00350269
0.00348987
0.00347758
0.00346578
0.00345445
0.00344355
0.00343306
0.00342296
0.00341323
0.00340384
0.00339478
0.00338603
0.00337756
0.00336937
0.00336144
0.00335376
0.0033463
0.00333906
0.00333203
0.00332519
0.00331854
0.00331206
0.00330573
0.00329957
0.00329354
0.00328765
0.00328189
0.00327625
0.00327072
0.0032653
0.00325998
0.00325475
0.0032496
0.00324454
0.00323955
0.00323464
0.00322979
0.003225
0.0032203
0.00321566
0.00412556
0.00410472
0.00408449
0.00406488
0.00404589
0.00402751
0.00400975
0.00399258
0.00397601
0.00396
0.00394455
0.00392965
0.00391526
0.00390139
0.003888
0.00387508
0.0038626
0.00385057
0.00383894
0.00382771
0.00381686
0.00380637
0.00379623
0.00378642
0.00377692
0.00376772
0.0037588
0.00375015
0.00374176
0.00373361
0.00372569
0.00371798
0.00371049
0.00370319
0.00369607
0.00368913
0.00368235
0.00367573
0.00366925
0.00366291
0.0036567
0.00365062
0.00364465
0.00363878
0.00363302
0.00362735
0.00362177
0.00361628
0.00361089
0.00360551
0.0045574
0.00453231
0.00450856
0.00448604
0.00446468
0.00444438
0.00442507
0.00440668
0.00438916
0.00437244
0.00435647
0.0043412
0.0043266
0.0043126
0.00429918
0.00428631
0.00427394
0.00426205
0.0042506
0.00423958
0.00422895
0.00421869
0.00420877
0.00419919
0.00418991
0.00418093
0.00417221
0.00416375
0.00415552
0.00414753
0.00413974
0.00413215
0.00412474
0.00411751
0.00411044
0.00410352
0.00409675
0.0040901
0.00408358
0.00407718
0.00407088
0.00406468
0.00405857
0.00405255
0.00404661
0.00404074
0.00403494
0.0040292
0.00402356
0.00401798
0.00467379
0.00466378
0.00465408
0.00464469
0.0046356
0.0046268
0.00461829
0.00461004
0.00460207
0.00459434
0.00458686
0.00457961
0.00457257
0.00456575
0.00455911
0.00455266
0.00454638
0.00454027
0.00453431
0.00452848
0.00452279
0.00451722
0.00451177
0.00450642
0.00450116
0.004496
0.00449091
0.0044859
0.00448096
0.00447607
0.00447124
0.00446646
0.00446173
0.00445703
0.00445236
0.00444772
0.00444311
0.00443851
0.00443393
0.00442936
0.0044248
0.00442024
0.00441569
0.00441113
0.00440657
0.004402
0.00439743
0.00439285
0.00438827
0.00438362
0.00482758
0.00483163
0.00483537
0.00483882
0.00484199
0.00484488
0.00484752
0.0048499
0.00485203
0.00485393
0.0048556
0.00485705
0.00485829
0.00485931
0.00486013
0.00486076
0.00486119
0.00486144
0.00486151
0.0048614
0.00486112
0.00486067
0.00486005
0.00485928
0.00485835
0.00485726
0.00485603
0.00485466
0.00485314
0.00485148
0.00484968
0.00484776
0.0048457
0.00484351
0.0048412
0.00483876
0.00483621
0.00483353
0.00483075
0.00482784
0.00482483
0.0048217
0.00481847
0.00481513
0.00481169
0.00480814
0.00480449
0.00480074
0.00479693
0.00479305
0.00494771
0.00496399
0.00497965
0.00499469
0.00500909
0.00502286
0.00503599
0.00504849
0.00506037
0.00507162
0.00508228
0.00509234
0.00510182
0.00511074
0.00511912
0.00512696
0.00513428
0.0051411
0.00514744
0.00515331
0.00515872
0.0051637
0.00516825
0.00517239
0.00517614
0.00517951
0.00518251
0.00518515
0.00518745
0.00518942
0.00519107
0.00519241
0.00519345
0.0051942
0.00519467
0.00519488
0.00519482
0.00519451
0.00519396
0.00519317
0.00519215
0.00519091
0.00518945
0.00518778
0.00518591
0.00518385
0.00518159
0.00517915
0.00517655
0.00517372
0.00524894
0.00528061
0.00531001
0.00533734
0.00536274
0.00538637
0.00540835
0.0054288
0.00544783
0.00546553
0.005482
0.00549731
0.00551153
0.00552475
0.00553701
0.00554837
0.0055589
0.00556862
0.00557759
0.00558586
0.00559345
0.0056004
0.00560674
0.00561251
0.00561773
0.00562243
0.00562663
0.00563036
0.00563363
0.00563647
0.00563889
0.00564092
0.00564256
0.00564384
0.00564477
0.00564536
0.00564562
0.00564557
0.00564522
0.00564457
0.00564365
0.00564245
0.005641
0.00563929
0.00563733
0.00563513
0.00563271
0.00563006
0.00562723
0.00562421
0.00585306
0.00586946
0.00588523
0.00590036
0.00591484
0.00592867
0.00594186
0.0059544
0.00596631
0.00597759
0.00598826
0.00599832
0.00600779
0.00601668
0.00602501
0.00603279
0.00604005
0.00604678
0.00605302
0.00605876
0.00606404
0.00606886
0.00607323
0.00607718
0.00608071
0.00608384
0.00608657
0.00608893
0.00609092
0.00609256
0.00609385
0.00609481
0.00609545
0.00609577
0.00609579
0.00609551
0.00609495
0.0060941
0.00609299
0.00609161
0.00608998
0.00608809
0.00608597
0.00608361
0.00608102
0.0060782
0.00607517
0.00607193
0.0060685
0.00606482
0.00665201
0.00665424
0.00665638
0.0066584
0.00666031
0.0066621
0.00666375
0.00666527
0.00666664
0.00666787
0.00666894
0.00666985
0.0066706
0.00667119
0.00667161
0.00667187
0.00667195
0.00667185
0.00667158
0.00667113
0.0066705
0.0066697
0.00666871
0.00666754
0.0066662
0.00666467
0.00666296
0.00666107
0.00665901
0.00665676
0.00665433
0.00665173
0.00664895
0.006646
0.00664287
0.00663956
0.00663609
0.00663245
0.00662863
0.00662465
0.0066205
0.00661619
0.00661172
0.00660708
0.00660229
0.00659734
0.00659223
0.00658696
0.00658159
0.00657609
0.0073351
0.00732912
0.00732333
0.00731774
0.00731232
0.00730706
0.00730196
0.00729698
0.00729213
0.00728738
0.00728271
0.00727812
0.00727359
0.00726911
0.00726466
0.00726024
0.00725582
0.0072514
0.00724697
0.00724252
0.00723804
0.00723353
0.00722897
0.00722435
0.00721968
0.00721494
0.00721013
0.00720524
0.00720028
0.00719523
0.00719009
0.00718486
0.00717953
0.00717411
0.00716858
0.00716296
0.00715722
0.00715138
0.00714543
0.00713937
0.0071332
0.00712691
0.00712051
0.007114
0.00710737
0.00710063
0.00709377
0.0070868
0.00707975
0.00707253
0.00814023
0.00812243
0.00810549
0.00808933
0.0080739
0.00805912
0.00804493
0.00803129
0.00801815
0.00800546
0.00799319
0.0079813
0.00796975
0.00795853
0.00794759
0.00793692
0.0079265
0.00791629
0.00790627
0.00789644
0.00788677
0.00787724
0.00786784
0.00785855
0.00784936
0.00784026
0.00783123
0.00782227
0.00781335
0.00780447
0.00779563
0.00778681
0.007778
0.0077692
0.0077604
0.00775159
0.00774276
0.00773392
0.00772504
0.00771614
0.00770719
0.00769821
0.00768918
0.00768009
0.00767096
0.00766176
0.00765251
0.0076432
0.00763388
0.0076245
0.00862972
0.00861911
0.00860864
0.00859829
0.00858808
0.00857798
0.008568
0.00855813
0.00854836
0.00853867
0.00852907
0.00851954
0.00851008
0.00850067
0.0084913
0.00848198
0.00847269
0.00846342
0.00845418
0.00844494
0.00843571
0.00842648
0.00841724
0.00840798
0.00839871
0.00838942
0.00838011
0.00837076
0.00836137
0.00835195
0.00834249
0.00833298
0.00832342
0.0083138
0.00830414
0.00829441
0.00828463
0.00827478
0.00826487
0.00825489
0.00824484
0.00823472
0.00822453
0.00821426
0.00820392
0.0081935
0.00818301
0.00817244
0.00816185
0.00815111
0.000186473
0.000186596
0.000186677
0.000186748
0.000186816
0.000186882
0.000186945
0.000187004
0.00018706
0.000187112
0.00018716
0.000187205
0.000187246
0.000187284
0.000187317
0.000187347
0.000187373
0.000187395
0.000187414
0.000187428
0.000187438
0.000187445
0.000187447
0.000187446
0.00018744
0.00018743
0.000187417
0.000187399
0.000187377
0.000187351
0.00018732
0.000187286
0.000187247
0.000187204
0.000187157
0.000187105
0.000187049
0.000186989
0.000186925
0.000186856
0.000186783
0.000186706
0.000186624
0.000186538
0.000186448
0.000186353
0.000186254
0.00018615
0.000186042
0.00018593
0.000185814
0.000185692
0.000185567
0.000185437
0.000185303
0.000185164
0.000185021
0.000184873
0.000184721
0.000184565
0.000184404
0.000184239
0.00018407
0.000183896
0.000183717
0.000183535
0.000183348
0.000183156
0.00018296
0.00018276
0.000182556
0.000182347
0.000182134
0.000181916
0.000181694
0.000181468
0.000181238
0.000181003
0.000180764
0.000180521
0.000180274
0.000180022
0.000179766
0.000179506
0.000179242
0.000178974
0.000178701
0.000178425
0.000178144
0.000177859
0.00017757
0.000177278
0.000176981
0.00017668
0.000176375
0.000176066
0.000175753
0.000175437
0.000175116
0.000174791
0.000174463
0.000174131
0.000173795
0.000173455
0.000173111
0.000172763
0.000172412
0.000172057
0.000171699
0.000171336
0.00017097
0.000170601
0.000170227
0.00016985
0.00016947
0.000169086
0.000168698
0.000168307
0.000167912
0.000167514
0.000167112
0.000166707
0.000166298
0.000165886
0.000165471
0.000165052
0.000164629
0.000164204
0.000163774
0.000163342
0.000162906
0.000162467
0.000162024
0.000161578
0.000161129
0.000160676
0.00016022
0.000159761
0.000159298
0.000158832
0.000158363
0.00015789
0.000157414
0.000156935
0.000156453
0.000155967
0.000155478
0.000154985
0.000154489
0.00015399
0.000153488
0.000152982
0.000152473
0.00015196
0.000151444
0.000150925
0.000150402
0.000149876
0.000149346
0.000148813
0.000148277
0.000147737
0.000147194
0.000146647
0.000146097
0.000145543
0.000144985
0.000144424
0.00014386
0.000143292
0.00014272
0.000142145
0.000141566
0.000140983
0.000140397
0.000139807
0.000139213
0.000138616
0.000138015
0.00013741
0.000136801
0.000136189
0.000135572
0.000134952
0.000134328
0.0001337
0.000133069
0.000132433
0.000131793
0.00013115
0.000130502
0.000129851
0.000129195
0.000128535
0.000127872
0.000127204
0.000126532
0.000125857
0.000125177
0.000124493
0.000123805
0.000123112
0.000122416
0.000121715
0.000121011
0.000120302
0.000119589
0.000118871
0.00011815
0.000117424
0.000116694
0.00011596
0.000115222
0.00011448
0.000113733
0.000112982
0.000112227
0.000111467
0.000110704
0.000109936
0.000109164
0.000108388
0.000107608
0.000106824
0.000106035
0.000105243
0.000104446
0.000103645
0.00010284
0.000102032
0.000101219
0.000100402
9.95814e-05
9.87568e-05
9.79284e-05
9.70961e-05
9.62601e-05
9.54204e-05
9.4577e-05
9.37299e-05
9.28793e-05
9.20252e-05
9.11676e-05
9.03066e-05
8.94422e-05
8.85746e-05
8.77039e-05
8.683e-05
8.5953e-05
8.50732e-05
8.41904e-05
8.33049e-05
8.24167e-05
8.15259e-05
8.06326e-05
7.97369e-05
7.8839e-05
7.79389e-05
7.70367e-05
7.61326e-05
7.52267e-05
7.43191e-05
7.341e-05
7.24995e-05
7.15877e-05
7.06747e-05
6.97608e-05
6.8846e-05
6.79305e-05
6.70145e-05
6.60981e-05
6.51815e-05
6.42648e-05
6.33482e-05
6.24319e-05
6.1516e-05
6.06007e-05
5.96862e-05
5.87726e-05
5.78601e-05
5.69488e-05
5.6039e-05
5.51307e-05
5.42242e-05
5.33195e-05
5.24169e-05
5.15164e-05
5.06182e-05
4.97224e-05
4.88291e-05
4.79384e-05
4.70503e-05
4.61649e-05
4.52822e-05
4.44022e-05
4.35248e-05
4.2649e-05
4.17738e-05
4.09027e-05
4.0055e-05
0.000503698
0.000503902
0.000504133
0.000504365
0.00050459
0.000504807
0.000505016
0.000505219
0.000505414
0.000505602
0.000505782
0.000505955
0.000506119
0.000506277
0.000506426
0.000506568
0.000506701
0.000506827
0.000506945
0.000507055
0.000507157
0.000507251
0.000507337
0.000507415
0.000507484
0.000507546
0.000507599
0.000507644
0.000507681
0.000507709
0.000507729
0.000507741
0.000507744
0.000507739
0.000507725
0.000507703
0.000507672
0.000507633
0.000507585
0.000507529
0.000507464
0.00050739
0.000507308
0.000507217
0.000507117
0.000507008
0.000506891
0.000506765
0.00050663
0.000506486
0.000506334
0.000506172
0.000506002
0.000505823
0.000505634
0.000505437
0.000505231
0.000505015
0.000504791
0.000504558
0.000504315
0.000504064
0.000503803
0.000503533
0.000503254
0.000502965
0.000502668
0.000502361
0.000502045
0.000501719
0.000501385
0.00050104
0.000500687
0.000500324
0.000499951
0.000499569
0.000499178
0.000498777
0.000498366
0.000497946
0.000497516
0.000497076
0.000496627
0.000496168
0.000495699
0.00049522
0.000494731
0.000494233
0.000493724
0.000493206
0.000492677
0.000492138
0.000491589
0.000491031
0.000490461
0.000489882
0.000489292
0.000488692
0.000488081
0.00048746
0.000486829
0.000486187
0.000485534
0.000484871
0.000484197
0.000483512
0.000482816
0.00048211
0.000481392
0.000480664
0.000479924
0.000479173
0.000478412
0.000477639
0.000476854
0.000476059
0.000475252
0.000474433
0.000473603
0.000472761
0.000471908
0.000471043
0.000470166
0.000469278
0.000468378
0.000467465
0.000466541
0.000465604
0.000464656
0.000463695
0.000462722
0.000461737
0.000460739
0.000459729
0.000458707
0.000457672
0.000456624
0.000455564
0.000454491
0.000453405
0.000452306
0.000451195
0.00045007
0.000448933
0.000447782
0.000446619
0.000445442
0.000444252
0.000443049
0.000441833
0.000440603
0.00043936
0.000438103
0.000436833
0.000435549
0.000434252
0.000432941
0.000431616
0.000430278
0.000428926
0.00042756
0.000426181
0.000424787
0.00042338
0.000421958
0.000420523
0.000419074
0.000417611
0.000416133
0.000414642
0.000413136
0.000411616
0.000410082
0.000408534
0.000406972
0.000405395
0.000403804
0.000402199
0.000400579
0.000398945
0.000397297
0.000395635
0.000393958
0.000392267
0.000390561
0.000388841
0.000387106
0.000385358
0.000383594
0.000381817
0.000380025
0.000378218
0.000376398
0.000374563
0.000372713
0.000370849
0.000368971
0.000367079
0.000365172
0.000363251
0.000361315
0.000359366
0.000357402
0.000355424
0.000353432
0.000351426
0.000349406
0.000347372
0.000345324
0.000343262
0.000341186
0.000339096
0.000336993
0.000334875
0.000332745
0.0003306
0.000328442
0.000326271
0.000324086
0.000321888
0.000319677
0.000317453
0.000315216
0.000312966
0.000310703
0.000308428
0.00030614
0.000303839
0.000301526
0.000299201
0.000296864
0.000294515
0.000292154
0.000289781
0.000287397
0.000285001
0.000282594
0.000280176
0.000277747
0.000275307
0.000272857
0.000270397
0.000267926
0.000265445
0.000262955
0.000260454
0.000257945
0.000255426
0.000252899
0.000250362
0.000247818
0.000245265
0.000242704
0.000240135
0.000237559
0.000234976
0.000232386
0.00022979
0.000227187
0.000224578
0.000221964
0.000219344
0.00021672
0.00021409
0.000211457
0.000208819
0.000206178
0.000203534
0.000200887
0.000198237
0.000195586
0.000192933
0.000190278
0.000187623
0.000184968
0.000182313
0.000179658
0.000177005
0.000174353
0.000171703
0.000169055
0.000166411
0.00016377
0.000161133
0.000158501
0.000155874
0.000153252
0.000150637
0.000148029
0.000145428
0.000142834
0.00014025
0.000137674
0.000135107
0.000132551
0.000130005
0.000127468
0.000124938
0.000122426
0.000119989
0.000869229
0.000869712
0.00087016
0.000870587
0.000870997
0.000871388
0.000871763
0.000872122
0.000872464
0.00087279
0.0008731
0.000873392
0.000873669
0.000873928
0.000874171
0.000874397
0.000874607
0.000874799
0.000874975
0.000875134
0.000875276
0.000875401
0.000875509
0.0008756
0.000875674
0.000875731
0.00087577
0.000875793
0.000875798
0.000875787
0.000875758
0.000875711
0.000875648
0.000875567
0.000875469
0.000875354
0.000875222
0.000875072
0.000874904
0.00087472
0.000874518
0.000874299
0.000874062
0.000873808
0.000873536
0.000873247
0.000872941
0.000872617
0.000872276
0.000871917
0.000871541
0.000871148
0.000870737
0.000870308
0.000869862
0.000869399
0.000868918
0.000868419
0.000867903
0.00086737
0.000866819
0.00086625
0.000865664
0.00086506
0.000864439
0.0008638
0.000863144
0.00086247
0.000861779
0.00086107
0.000860343
0.000859599
0.000858838
0.000858058
0.000857262
0.000856447
0.000855615
0.000854765
0.000853898
0.000853013
0.00085211
0.00085119
0.000850252
0.000849297
0.000848323
0.000847332
0.000846324
0.000845297
0.000844253
0.000843191
0.000842111
0.000841014
0.000839899
0.000838766
0.000837615
0.000836446
0.00083526
0.000834055
0.000832833
0.000831593
0.000830334
0.000829058
0.000827764
0.000826452
0.000825122
0.000823773
0.000822407
0.000821022
0.00081962
0.000818199
0.00081676
0.000815302
0.000813827
0.000812333
0.000810821
0.00080929
0.000807741
0.000806173
0.000804587
0.000802982
0.000801359
0.000799717
0.000798057
0.000796377
0.000794679
0.000792962
0.000791227
0.000789472
0.000787698
0.000785906
0.000784094
0.000782263
0.000780413
0.000778543
0.000776654
0.000774746
0.000772819
0.000770872
0.000768905
0.000766919
0.000764913
0.000762887
0.000760841