/*--------------------------------*- C++ -*----------------------------------*\
| =========                 |                                                 |
| \\      /  F ield         | OpenFOAM: The Open Source CFD Toolbox           |
|  \\    /   O peration     | Version:  2.4.0                                 |
|   \\  /    A nd           | Web:      www.OpenFOAM.org                      |
|    \\/     M anipulation  |                                                 |
\*---------------------------------------------------------------------------*/
FoamFile
{
    version     2.0;
    format      ascii;
    class       volVectorField;
    location    "2.5";
    object      U;
}
// * * * * * * * * * * * * * * * * * * * * * * * * * * * * * * * * * * * * * //

dimensions      [0 1 -1 0 0 0 0];

internalField   nonuniform List<vector> 
8000
(
(1.03031e-07 -0.000170149 0)
(6.56219e-07 -0.000497556 0)
(1.63277e-06 -0.000811949 0)
(2.97211e-06 -0.00111321 0)
(4.61863e-06 -0.00140124 0)
(6.54523e-06 -0.00167595 0)
(8.71715e-06 -0.00193724 0)
(1.1124e-05 -0.00218506 0)
(1.37331e-05 -0.00241932 0)
(1.65456e-05 -0.00263998 0)
(1.95281e-05 -0.00284696 0)
(2.26946e-05 -0.00304024 0)
(2.60079e-05 -0.00321974 0)
(2.94965e-05 -0.00338542 0)
(3.31158e-05 -0.00353724 0)
(3.69127e-05 -0.00367516 0)
(4.08315e-05 -0.00379912 0)
(4.49385e-05 -0.00390909 0)
(4.91432e-05 -0.00400501 0)
(5.35226e-05 -0.00408686 0)
(5.80501e-05 -0.00415457 0)
(6.32646e-05 -0.0042081 0)
(6.9625e-05 -0.00424725 0)
(7.51321e-05 -0.00427188 0)
(7.14601e-05 -0.00428248 0)
(2.97052e-05 -0.00428074 0)
(-0.000139734 -0.00428149 0)
(-0.000425946 -0.00426563 0)
(-0.000171055 -0.00423126 0)
(-0.000181691 -0.00420606 0)
(-0.000192931 -0.0041893 0)
(-0.000198618 -0.00417708 0)
(-0.000200195 -0.00416721 0)
(-0.000201827 -0.00415893 0)
(-0.000204224 -0.00415196 0)
(-0.000207158 -0.00414609 0)
(-0.000210422 -0.00414104 0)
(-0.000213935 -0.00413657 0)
(-0.000217664 -0.00413244 0)
(-0.00022158 -0.00412844 0)
(-0.000225657 -0.00412441 0)
(-0.000229869 -0.00412016 0)
(-0.000234196 -0.00411554 0)
(-0.00023862 -0.00411041 0)
(-0.000243125 -0.00410463 0)
(-0.0002477 -0.00409804 0)
(-0.000252333 -0.00409054 0)
(-0.000257015 -0.00408202 0)
(-0.000261738 -0.00407237 0)
(-0.000266494 -0.00406153 0)
(2.35192e-08 -0.000175956 0)
(4.63215e-07 -0.000513654 0)
(1.39425e-06 -0.000837205 0)
(2.80586e-06 -0.00114665 0)
(4.65548e-06 -0.00144202 0)
(6.91649e-06 -0.00172336 0)
(9.55807e-06 -0.00199067 0)
(1.25682e-05 -0.00224398 0)
(1.59187e-05 -0.00248331 0)
(1.96068e-05 -0.00270867 0)
(2.36028e-05 -0.00292008 0)
(2.79149e-05 -0.00311753 0)
(3.2509e-05 -0.00330104 0)
(3.74062e-05 -0.00347061 0)
(4.25642e-05 -0.00362625 0)
(4.80217e-05 -0.00376797 0)
(5.37236e-05 -0.00389576 0)
(5.97268e-05 -0.00400965 0)
(6.59327e-05 -0.00410963 0)
(7.24015e-05 -0.00419572 0)
(7.91124e-05 -0.00426795 0)
(8.67211e-05 -0.00432633 0)
(9.5889e-05 -0.00437086 0)
(0.000104218 -0.00440154 0)
(0.000100361 -0.00441846 0)
(4.94787e-05 -0.00442364 0)
(-0.00011603 -0.00442377 0)
(-0.000401504 -0.00432914 0)
(-0.000139332 -0.00426258 0)
(-0.000152329 -0.00421563 0)
(-0.000160643 -0.00417955 0)
(-0.000163251 -0.00415034 0)
(-0.000162055 -0.00412612 0)
(-0.000161199 -0.00410588 0)
(-0.000161295 -0.00408893 0)
(-0.000162098 -0.00407466 0)
(-0.000163402 -0.00406254 0)
(-0.000165129 -0.0040521 0)
(-0.000167244 -0.00404293 0)
(-0.000169712 -0.00403469 0)
(-0.000172498 -0.00402706 0)
(-0.000175571 -0.0040198 0)
(-0.0001789 -0.00401265 0)
(-0.000182461 -0.0040054 0)
(-0.00018623 -0.00399784 0)
(-0.000190186 -0.00398979 0)
(-0.000194311 -0.00398107 0)
(-0.000198588 -0.00397155 0)
(-0.000203002 -0.00396108 0)
(-0.000207539 -0.00394959 0)
(5.50507e-08 -0.000177125 0)
(4.8893e-07 -0.000517465 0)
(1.35191e-06 -0.000843898 0)
(2.63308e-06 -0.00115641 0)
(4.30796e-06 -0.00145497 0)
(6.36928e-06 -0.00173959 0)
(8.80055e-06 -0.00201024 0)
(1.16008e-05 -0.00226693 0)
(1.47507e-05 -0.00250965 0)
(1.82534e-05 -0.00273839 0)
(2.20846e-05 -0.00295315 0)
(2.62537e-05 -0.00315392 0)
(3.07288e-05 -0.00334069 0)
(3.55272e-05 -0.00351346 0)
(4.06062e-05 -0.00367221 0)
(4.59949e-05 -0.00381693 0)
(5.16357e-05 -0.00394762 0)
(5.75681e-05 -0.00406425 0)
(6.36852e-05 -0.00416682 0)
(7.00132e-05 -0.0042553 0)
(7.65308e-05 -0.00432967 0)
(8.39356e-05 -0.00438992 0)
(9.30515e-05 -0.00443601 0)
(0.000101232 -0.00446784 0)
(9.49837e-05 -0.00448544 0)
(3.52435e-05 -0.004491 0)
(-0.000122978 -0.00449019 0)
(-0.000416935 -0.00439604 0)
(-0.00015362 -0.00433013 0)
(-0.000162439 -0.0042821 0)
(-0.000168792 -0.00424371 0)
(-0.00016936 -0.00421129 0)
(-0.000165885 -0.00418324 0)
(-0.000162582 -0.00415875 0)
(-0.00016015 -0.00413728 0)
(-0.000158387 -0.00411836 0)
(-0.000157114 -0.00410159 0)
(-0.000156278 -0.00408656 0)
(-0.000155864 -0.00407292 0)
(-0.000155857 -0.00406036 0)
(-0.000156235 -0.00404861 0)
(-0.00015698 -0.00403741 0)
(-0.000158069 -0.00402653 0)
(-0.000159484 -0.00401575 0)
(-0.000161205 -0.00400486 0)
(-0.000163213 -0.00399367 0)
(-0.00016549 -0.003982 0)
(-0.000168018 -0.0039697 0)
(-0.000170782 -0.00395665 0)
(-0.000173766 -0.00394271 0)
(3.01548e-08 -0.000181319 0)
(3.18199e-07 -0.000529456 0)
(9.29475e-07 -0.000863202 0)
(1.87878e-06 -0.00118261 0)
(3.16539e-06 -0.0014877 0)
(4.80066e-06 -0.00177851 0)
(6.78496e-06 -0.00205506 0)
(9.13169e-06 -0.00231737 0)
(1.18371e-05 -0.00256547 0)
(1.4918e-05 -0.00279937 0)
(1.83653e-05 -0.00301909 0)
(2.22023e-05 -0.00322462 0)
(2.64138e-05 -0.00341597 0)
(3.10331e-05 -0.00359313 0)
(3.60371e-05 -0.0037561 0)
(4.14762e-05 -0.00390485 0)
(4.73175e-05 -0.00403935 0)
(5.36285e-05 -0.0041596 0)
(6.03273e-05 -0.00426553 0)
(6.74613e-05 -0.00435712 0)
(7.50603e-05 -0.0044343 0)
(8.40403e-05 -0.00449702 0)
(9.56789e-05 -0.00454515 0)
(0.000107316 -0.00457854 0)
(0.000100727 -0.00459707 0)
(3.17447e-05 -0.00460281 0)
(-0.000115578 -0.00460208 0)
(-0.000398911 -0.00447273 0)
(-0.000136626 -0.00439679 0)
(-0.000139443 -0.00433384 0)
(-0.000140035 -0.00428145 0)
(-0.000135728 -0.00423683 0)
(-0.000128031 -0.00419835 0)
(-0.000120844 -0.00416482 0)
(-0.000114791 -0.00413537 0)
(-0.000109667 -0.0041093 0)
(-0.000105293 -0.00408601 0)
(-0.000101611 -0.00406495 0)
(-9.8597e-05 -0.00404571 0)
(-9.62279e-05 -0.0040279 0)
(-9.44744e-05 -0.00401122 0)
(-9.33051e-05 -0.0039954 0)
(-9.26885e-05 -0.00398018 0)
(-9.25928e-05 -0.00396533 0)
(-9.29867e-05 -0.00395065 0)
(-9.38394e-05 -0.00393591 0)
(-9.51213e-05 -0.00392094 0)
(-9.68038e-05 -0.00390558 0)
(-9.88599e-05 -0.00388967 0)
(-0.000101264 -0.0038731 0)
(-6.15465e-09 -0.000180659 0)
(2.17511e-07 -0.000528595 0)
(7.79383e-07 -0.000863044 0)
(1.70767e-06 -0.00118387 0)
(3.00753e-06 -0.00149099 0)
(4.69326e-06 -0.00178433 0)
(6.76398e-06 -0.00206386 0)
(9.24096e-06 -0.00232956 0)
(1.21162e-05 -0.00258142 0)
(1.5416e-05 -0.00281943 0)
(1.91241e-05 -0.0030436 0)
(2.32753e-05 -0.00325393 0)
(2.78444e-05 -0.00345043 0)
(3.2879e-05 -0.00363311 0)
(3.83428e-05 -0.00380203 0)
(4.43038e-05 -0.00395719 0)
(5.07132e-05 -0.00409866 0)
(5.76614e-05 -0.00422646 0)
(6.50337e-05 -0.00434067 0)
(7.2888e-05 -0.00444133 0)
(8.1229e-05 -0.0045286 0)
(9.1261e-05 -0.00460258 0)
(0.000104825 -0.00466351 0)
(0.000119118 -0.00471151 0)
(0.000108245 -0.00474572 0)
(2.11427e-05 -0.00476692 0)
(-0.000130873 -0.00477308 0)
(-0.00034033 -0.00476348 0)
(-0.000266659 -0.00463445 0)
(-0.000165281 -0.00454344 0)
(-0.000148792 -0.00447383 0)
(-0.000142369 -0.00441575 0)
(-0.000133861 -0.00436534 0)
(-0.000124261 -0.00432038 0)
(-0.000115392 -0.00427963 0)
(-0.000107652 -0.00424227 0)
(-0.00010092 -0.00420774 0)
(-9.50562e-05 -0.0041756 0)
(-8.99838e-05 -0.00414549 0)
(-8.56497e-05 -0.00411714 0)
(-8.20079e-05 -0.0040903 0)
(-7.90157e-05 -0.00406474 0)
(-7.66339e-05 -0.00404025 0)
(-7.48263e-05 -0.00401662 0)
(-7.35593e-05 -0.00399363 0)
(-7.28011e-05 -0.00397108 0)
(-7.25215e-05 -0.00394877 0)
(-7.26917e-05 -0.00392651 0)
(-7.32843e-05 -0.00390415 0)
(-7.42735e-05 -0.00388154 0)
(1.46653e-07 -0.000185275 0)
(1.17699e-06 -0.000541834 0)
(3.14789e-06 -0.000884371 0)
(5.9681e-06 -0.00121288 0)
(9.57216e-06 -0.00152738 0)
(1.38979e-05 -0.00182785 0)
(1.89139e-05 -0.00211429 0)
(2.45744e-05 -0.0023867 0)
(3.08573e-05 -0.0026451 0)
(3.77135e-05 -0.00288948 0)
(4.51305e-05 -0.00311986 0)
(5.30535e-05 -0.00333625 0)
(6.14774e-05 -0.00353867 0)
(7.03371e-05 -0.00372713 0)
(7.96409e-05 -0.00390168 0)
(8.92854e-05 -0.00406232 0)
(9.93343e-05 -0.0042091 0)
(0.000109596 -0.00434204 0)
(0.000120208 -0.00446122 0)
(0.000130915 -0.00456664 0)
(0.000141583 -0.0046584 0)
(0.000152761 -0.00473652 0)
(0.000164564 -0.00480122 0)
(0.000177829 -0.00485259 0)
(0.000183591 -0.00489057 0)
(0.000161391 -0.00491342 0)
(0.000113319 -0.00491827 0)
(-8.17244e-06 -0.004927 0)
(-0.000101156 -0.00488466 0)
(2.09954e-05 -0.00475411 0)
(3.75972e-05 -0.00465133 0)
(4.63158e-05 -0.0045658 0)
(5.51954e-05 -0.00449122 0)
(6.38644e-05 -0.00442471 0)
(7.09871e-05 -0.00436486 0)
(7.63296e-05 -0.00431079 0)
(8.0135e-05 -0.00426174 0)
(8.26605e-05 -0.00421703 0)
(8.40953e-05 -0.004176 0)
(8.45872e-05 -0.00413809 0)
(8.42585e-05 -0.00410277 0)
(8.3211e-05 -0.00406962 0)
(8.15289e-05 -0.00403826 0)
(7.92823e-05 -0.00400835 0)
(7.65303e-05 -0.00397959 0)
(7.33241e-05 -0.00395173 0)
(6.97083e-05 -0.0039245 0)
(6.57228e-05 -0.00389769 0)
(6.14032e-05 -0.00387111 0)
(5.67818e-05 -0.00384457 0)
(4.21521e-08 -0.000193348 0)
(5.60539e-07 -0.000564588 0)
(1.66936e-06 -0.000920504 0)
(3.35667e-06 -0.00126131 0)
(5.61191e-06 -0.00158717 0)
(8.41013e-06 -0.00189818 0)
(1.1753e-05 -0.00219441 0)
(1.56158e-05 -0.00247589 0)
(2.00059e-05 -0.00274268 0)
(2.48889e-05 -0.00299479 0)
(3.02803e-05 -0.00323224 0)
(3.61343e-05 -0.00345505 0)
(4.2478e-05 -0.00366321 0)
(4.92499e-05 -0.00385671 0)
(5.64942e-05 -0.00403553 0)
(6.41269e-05 -0.00419962 0)
(7.22187e-05 -0.00434894 0)
(8.06565e-05 -0.00448343 0)
(8.9537e-05 -0.004603 0)
(9.86894e-05 -0.00470758 0)
(0.0001082 -0.00479701 0)
(0.000117988 -0.00487115 0)
(0.000128852 -0.00492977 0)
(0.000141487 -0.00497264 0)
(0.000153666 -0.00499979 0)
(0.000150945 -0.00501065 0)
(9.85634e-05 -0.00500667 0)
(-3.06494e-05 -0.0050011 0)
(-0.000209161 -0.00499255 0)
(-7.10667e-05 -0.004869 0)
(-4.69402e-05 -0.00474508 0)
(-3.87028e-05 -0.00463779 0)
(-2.97399e-05 -0.00454249 0)
(-1.89591e-05 -0.00445657 0)
(-8.42672e-06 -0.00437895 0)
(1.24267e-06 -0.00430902 0)
(1.00759e-05 -0.00424614 0)
(1.80988e-05 -0.00418955 0)
(2.53239e-05 -0.00413839 0)
(3.17571e-05 -0.00409185 0)
(3.74087e-05 -0.00404915 0)
(4.22944e-05 -0.00400964 0)
(4.6434e-05 -0.00397274 0)
(4.98499e-05 -0.00393797 0)
(5.25671e-05 -0.00390494 0)
(5.46126e-05 -0.00387329 0)
(5.60153e-05 -0.00384272 0)
(5.68053e-05 -0.00381295 0)
(5.70136e-05 -0.00378375 0)
(5.66711e-05 -0.00375492 0)
(9.89384e-09 -0.000192676 0)
(3.0595e-07 -0.000563827 0)
(9.98672e-07 -0.000920687 0)
(2.11609e-06 -0.00126328 0)
(3.67465e-06 -0.00159162 0)
(5.67631e-06 -0.00190571 0)
(8.14389e-06 -0.00220552 0)
(1.10729e-05 -0.00249104 0)
(1.44919e-05 -0.00276226 0)
(1.83881e-05 -0.00301918 0)
(2.27975e-05 -0.00326179 0)
(2.76986e-05 -0.0034901 0)
(3.3139e-05 -0.00370412 0)
(3.90868e-05 -0.00390385 0)
(4.5607e-05 -0.00408931 0)
(5.26545e-05 -0.00426051 0)
(6.03208e-05 -0.00441747 0)
(6.85466e-05 -0.00456023 0)
(7.7451e-05 -0.0046888 0)
(8.69066e-05 -0.00480324 0)
(9.69985e-05 -0.00490357 0)
(0.00010772 -0.00498986 0)
(0.00012036 -0.00506214 0)
(0.0001369 -0.00512048 0)
(0.000154791 -0.00516498 0)
(0.000146715 -0.00519575 0)
(5.99773e-05 -0.0052127 0)
(-8.93287e-05 -0.00521637 0)
(-0.000227738 -0.00522261 0)
(-0.000247321 -0.00513304 0)
(-9.55333e-05 -0.00501628 0)
(-7.95546e-05 -0.00491161 0)
(-6.75515e-05 -0.00481669 0)
(-5.27029e-05 -0.00472846 0)
(-3.66699e-05 -0.00464583 0)
(-2.17003e-05 -0.00456838 0)
(-8.15838e-06 -0.00449586 0)
(4.10479e-06 -0.00442795 0)
(1.52179e-05 -0.00436423 0)
(2.52427e-05 -0.00430424 0)
(3.42207e-05 -0.00424756 0)
(4.21938e-05 -0.00419379 0)
(4.92051e-05 -0.00414258 0)
(5.52978e-05 -0.00409364 0)
(6.05139e-05 -0.00404669 0)
(6.48946e-05 -0.00400149 0)
(6.84804e-05 -0.0039578 0)
(7.13107e-05 -0.00391542 0)
(7.34241e-05 -0.00387413 0)
(7.48579e-05 -0.00383376 0)
(9.71389e-08 -0.000197758 0)
(7.7517e-07 -0.00057855 0)
(2.09368e-06 -0.000944627 0)
(4.03743e-06 -0.00129607 0)
(6.56677e-06 -0.00163293 0)
(9.68292e-06 -0.00195525 0)
(1.33598e-05 -0.00226306 0)
(1.76137e-05 -0.00255638 0)
(2.24113e-05 -0.00283524 0)
(2.77817e-05 -0.00309966 0)
(3.36798e-05 -0.00334967 0)
(4.01512e-05 -0.00358529 0)
(4.71341e-05 -0.00380654 0)
(5.46966e-05 -0.00401346 0)
(6.27498e-05 -0.00420604 0)
(7.13955e-05 -0.00438435 0)
(8.05075e-05 -0.00454837 0)
(9.02236e-05 -0.00469816 0)
(0.000100394 -0.00483372 0)
(0.000111144 -0.0049551 0)
(0.000122322 -0.00506229 0)
(0.000134074 -0.00515537 0)
(0.000146222 -0.00523431 0)
(0.000159666 -0.00529929 0)
(0.000173432 -0.00535037 0)
(0.000188567 -0.00538738 0)
(0.000198641 -0.00540839 0)
(0.000176635 -0.005411 0)
(7.4603e-05 -0.005417 0)
(-2.817e-05 -0.00541793 0)
(4.39984e-05 -0.00525775 0)
(8.623e-05 -0.0051054 0)
(9.90849e-05 -0.00497284 0)
(0.000109061 -0.00485412 0)
(0.000119567 -0.00474586 0)
(0.000129948 -0.00464644 0)
(0.000139397 -0.00455495 0)
(0.000147765 -0.00447061 0)
(0.00015512 -0.00439263 0)
(0.000161531 -0.00432021 0)
(0.000167042 -0.00425261 0)
(0.000171693 -0.00418916 0)
(0.00017552 -0.0041293 0)
(0.000178563 -0.00407255 0)
(0.000180859 -0.00401848 0)
(0.000182446 -0.00396675 0)
(0.000183359 -0.00391704 0)
(0.000183633 -0.00386907 0)
(0.000183301 -0.00382259 0)
(0.000182395 -0.00377735 0)
(-2.90927e-09 -0.000200539 0)
(3.41158e-07 -0.00058707 0)
(1.15138e-06 -0.000959065 0)
(2.46569e-06 -0.00131655 0)
(4.27518e-06 -0.00165953 0)
(6.58515e-06 -0.00198804 0)
(9.38746e-06 -0.00230209 0)
(1.26949e-05 -0.00260169 0)
(1.64951e-05 -0.00288686 0)
(2.08067e-05 -0.00315762 0)
(2.561e-05 -0.00341397 0)
(3.09313e-05 -0.00365594 0)
(3.67412e-05 -0.00388355 0)
(4.30764e-05 -0.00409679 0)
(4.98948e-05 -0.0042957 0)
(5.72474e-05 -0.00448027 0)
(6.50745e-05 -0.00465053 0)
(7.34485e-05 -0.00480647 0)
(8.22888e-05 -0.00494813 0)
(9.16892e-05 -0.00507548 0)
(0.000101496 -0.00518856 0)
(0.00011177 -0.00528733 0)
(0.000122445 -0.00537185 0)
(0.000134669 -0.00544208 0)
(0.000150102 -0.00549803 0)
(0.000166425 -0.00553962 0)
(0.000159182 -0.00556693 0)
(7.94137e-05 -0.00558036 0)
(-6.08056e-05 -0.00558178 0)
(-0.000186367 -0.00558376 0)
(-0.0002051 -0.00545359 0)
(-6.47568e-05 -0.00530943 0)
(-5.06624e-05 -0.00517935 0)
(-3.71517e-05 -0.00505971 0)
(-2.08213e-05 -0.00494749 0)
(-3.51648e-06 -0.00484154 0)
(1.27154e-05 -0.00474144 0)
(2.75802e-05 -0.0046469 0)
(4.1202e-05 -0.00455761 0)
(5.36608e-05 -0.0044732 0)
(6.49941e-05 -0.00439324 0)
(7.52333e-05 -0.00431733 0)
(8.44155e-05 -0.00424509 0)
(9.25823e-05 -0.00417618 0)
(9.97762e-05 -0.00411029 0)
(0.00010604 -0.00404714 0)
(0.000111416 -0.00398645 0)
(0.000115946 -0.00392797 0)
(0.000119671 -0.00387145 0)
(0.000122629 -0.00381666 0)
(8.89633e-08 -0.00020365 0)
(6.3525e-07 -0.000596389 0)
(1.68798e-06 -0.000974618 0)
(3.22642e-06 -0.00133834 0)
(5.24409e-06 -0.00168755 0)
(7.72731e-06 -0.00202226 0)
(1.06924e-05 -0.0023425 0)
(1.41222e-05 -0.00264829 0)
(1.80409e-05 -0.00293965 0)
(2.24226e-05 -0.00321659 0)
(2.73016e-05 -0.00347916 0)
(3.26407e-05 -0.00372735 0)
(3.84879e-05 -0.0039612 0)
(4.47902e-05 -0.00418072 0)
(5.16163e-05 -0.00438595 0)
(5.88872e-05 -0.00457688 0)
(6.67055e-05 -0.00475356 0)
(7.49548e-05 -0.00491599 0)
(8.37756e-05 -0.00506421 0)
(9.30331e-05 -0.00519823 0)
(0.000102843 -0.00531809 0)
(0.000113099 -0.00542378 0)
(0.000123903 -0.00551537 0)
(0.000135192 -0.00559285 0)
(0.000147818 -0.00565636 0)
(0.000160612 -0.00570595 0)
(0.00017485 -0.00574147 0)
(0.000184616 -0.00576117 0)
(0.000164768 -0.00576341 0)
(7.34289e-05 -0.00576831 0)
(-1.65029e-05 -0.00576415 0)
(4.83276e-05 -0.00559166 0)
(9.348e-05 -0.00543012 0)
(0.000108738 -0.00528524 0)
(0.000121174 -0.00515151 0)
(0.000133943 -0.00502612 0)
(0.000146602 -0.0049079 0)
(0.000158326 -0.0047964 0)
(0.000168944 -0.00469122 0)
(0.000178508 -0.00459195 0)
(0.000187077 -0.00449808 0)
(0.000194689 -0.00440913 0)
(0.000201372 -0.00432462 0)
(0.000207155 -0.00424413 0)
(0.00021207 -0.00416727 0)
(0.000216148 -0.00409371 0)
(0.000219419 -0.00402312 0)
(0.000221916 -0.00395522 0)
(0.00022367 -0.00388972 0)
(0.000224711 -0.00382638 0)
(-1.45235e-08 -0.000206283 0)
(2.5573e-07 -0.000604442 0)
(9.29597e-07 -0.000988205 0)
(2.03644e-06 -0.00135752 0)
(3.58031e-06 -0.00171235 0)
(5.55463e-06 -0.00205272 0)
(7.9699e-06 -0.00237866 0)
(1.08211e-05 -0.00269018 0)
(1.41243e-05 -0.0029873 0)
(1.78705e-05 -0.00327005 0)
(2.20809e-05 -0.00353845 0)
(2.67408e-05 -0.00379251 0)
(3.18788e-05 -0.00403225 0)
(3.74721e-05 -0.00425769 0)
(4.35592e-05 -0.00446884 0)
(5.01062e-05 -0.00466574 0)
(5.71649e-05 -0.00484838 0)
(6.46865e-05 -0.0050168 0)
(7.2742e-05 -0.005171 0)
(8.12648e-05 -0.00531101 0)
(9.03455e-05 -0.00543681 0)
(9.98473e-05 -0.00554845 0)
(0.000109832 -0.0056459 0)
(0.000120238 -0.00572923 0)
(0.000132186 -0.00579846 0)
(0.000147312 -0.00585369 0)
(0.000163444 -0.0058949 0)
(0.000156797 -0.00592179 0)
(8.00825e-05 -0.00593495 0)
(-5.32251e-05 -0.00593677 0)
(-0.000168686 -0.00593858 0)
(-0.000182978 -0.0058148 0)
(-5.32245e-05 -0.00564218 0)
(-4.03559e-05 -0.00548689 0)
(-2.69684e-05 -0.00534324 0)
(-1.09041e-05 -0.00520774 0)
(5.94242e-06 -0.00507896 0)
(2.17823e-05 -0.00495637 0)
(3.64539e-05 -0.0048397 0)
(5.00346e-05 -0.00472867 0)
(6.25803e-05 -0.00462296 0)
(7.41104e-05 -0.00452217 0)
(8.46393e-05 -0.00442595 0)
(9.41866e-05 -0.00433393 0)
(0.000102776 -0.0042458 0)
(0.000110436 -0.00416128 0)
(0.000117194 -0.00408007 0)
(0.000123081 -0.00400191 0)
(0.00012813 -0.00392654 0)
(0.000132371 -0.00385372 0)
(8.84225e-08 -0.000208821 0)
(5.56394e-07 -0.000612027 0)
(1.42565e-06 -0.00100085 0)
(2.67453e-06 -0.00137527 0)
(4.29096e-06 -0.00173526 0)
(6.28609e-06 -0.00208085 0)
(8.65445e-06 -0.00241206 0)
(1.14163e-05 -0.00272892 0)
(1.45583e-05 -0.00303147 0)
(1.8107e-05 -0.00331974 0)
(2.20405e-05 -0.00359373 0)
(2.6395e-05 -0.00385348 0)
(3.11377e-05 -0.00409901 0)
(3.63173e-05 -0.00433035 0)
(4.18875e-05 -0.00454752 0)
(4.7913e-05 -0.00475055 0)
(5.43296e-05 -0.00493944 0)
(6.12263e-05 -0.00511425 0)
(6.8506e-05 -0.00527496 0)
(7.63073e-05 -0.00542165 0)
(8.44756e-05 -0.00555428 0)
(9.32082e-05 -0.00567294 0)
(0.000102289 -0.00577758 0)
(0.000111841 -0.00586829 0)
(0.000121997 -0.00594503 0)
(0.000133298 -0.00600797 0)
(0.000146298 -0.00605714 0)
(0.000157287 -0.00609241 0)
(0.000152102 -0.00611206 0)
(0.000114441 -0.00611478 0)
(1.72087e-05 -0.00611808 0)
(-6.96765e-05 -0.00610881 0)
(-4.10385e-06 -0.00592331 0)
(4.3512e-05 -0.00574647 0)
(6.10852e-05 -0.00558514 0)
(7.54559e-05 -0.00543403 0)
(9.03778e-05 -0.00529045 0)
(0.000105079 -0.00515337 0)
(0.000118805 -0.00502246 0)
(0.000131393 -0.00489748 0)
(0.00014288 -0.00477815 0)
(0.000153306 -0.00466412 0)
(0.000162695 -0.00455504 0)
(0.000171065 -0.00445056 0)
(0.000178443 -0.00435037 0)
(0.000184856 -0.00425417 0)
(0.000190336 -0.00416171 0)
(0.000194918 -0.00407271 0)
(0.000198637 -0.00398692 0)
(0.000201527 -0.0039041 0)
(-3.83547e-08 -0.000210767 0)
(1.4332e-08 -0.000617954 0)
(2.65588e-07 -0.00101081 0)
(7.52793e-07 -0.00138931 0)
(1.49228e-06 -0.00175346 0)
(2.4981e-06 -0.00210327 0)
(3.77802e-06 -0.00243876 0)
(5.3472e-06 -0.00275996 0)
(7.20931e-06 -0.00306688 0)
(9.37897e-06 -0.00335953 0)
(1.18552e-05 -0.00363795 0)
(1.46541e-05 -0.00390213 0)
(1.77697e-05 -0.00415212 0)
(2.1222e-05 -0.00438792 0)
(2.49986e-05 -0.00460957 0)
(2.91267e-05 -0.00481707 0)
(3.35854e-05 -0.00501048 0)
(3.84122e-05 -0.00518979 0)
(4.35764e-05 -0.00535506 0)
(4.91306e-05 -0.00550629 0)
(5.50339e-05 -0.00564354 0)
(6.13546e-05 -0.0057668 0)
(6.79993e-05 -0.00587615 0)
(7.50155e-05 -0.00597155 0)
(8.23763e-05 -0.00605308 0)
(9.10319e-05 -0.00612075 0)
(0.000102361 -0.00617479 0)
(0.000114371 -0.00621532 0)
(0.000107193 -0.00624211 0)
(4.0625e-05 -0.00625571 0)
(-7.71467e-05 -0.0062578 0)
(-0.000195801 -0.00625943 0)
(-0.000206688 -0.00614715 0)
(-8.91338e-05 -0.00595619 0)
(-7.45118e-05 -0.00578336 0)
(-6.3563e-05 -0.00562205 0)
(-4.97618e-05 -0.00546842 0)
(-3.4511e-05 -0.00532087 0)
(-1.9759e-05 -0.0051789 0)
(-5.94757e-06 -0.00504235 0)
(6.95063e-06 -0.00491107 0)
(1.89833e-05 -0.00478489 0)
(3.01483e-05 -0.00466358 0)
(4.04401e-05 -0.00454693 0)
(4.98621e-05 -0.00443475 0)
(5.84248e-05 -0.00432682 0)
(6.61427e-05 -0.00422294 0)
(7.30329e-05 -0.00412291 0)
(7.91143e-05 -0.00402649 0)
(8.44071e-05 -0.00393344 0)
(8.9838e-08 -0.00021119 0)
(6.22524e-07 -0.000619653 0)
(1.62442e-06 -0.00101414 0)
(3.0546e-06 -0.00139461 0)
(4.89195e-06 -0.00176104 0)
(7.11925e-06 -0.00211339 0)
(9.73217e-06 -0.00245166 0)
(1.2717e-05 -0.00277584 0)
(1.60751e-05 -0.00308593 0)
(1.97899e-05 -0.00338192 0)
(2.38689e-05 -0.00366382 0)
(2.82916e-05 -0.00393164 0)
(3.30724e-05 -0.00418539 0)
(3.81837e-05 -0.00442509 0)
(4.36483e-05 -0.00465076 0)
(4.94286e-05 -0.00486242 0)
(5.5556e-05 -0.00506011 0)
(6.19825e-05 -0.00524386 0)
(6.8747e-05 -0.00541373 0)
(7.57843e-05 -0.00556973 0)
(8.31595e-05 -0.00571194 0)
(9.07461e-05 -0.0058404 0)
(9.87168e-05 -0.0059552 0)
(0.000106794 -0.00605639 0)
(0.000115184 -0.00614407 0)
(0.000123669 -0.00621831 0)
(0.000132482 -0.00627931 0)
(0.000143367 -0.00632723 0)
(0.000152124 -0.00636209 0)
(0.00014699 -0.00638261 0)
(0.000121875 -0.00638826 0)
(3.5704e-05 -0.00639396 0)
(-3.57142e-05 -0.00638061 0)
(2.40047e-05 -0.00618322 0)
(5.73025e-05 -0.00600368 0)
(6.86911e-05 -0.00583618 0)
(7.68202e-05 -0.00567517 0)
(8.56259e-05 -0.00551877 0)
(9.41234e-05 -0.00536684 0)
(0.000101816 -0.00521969 0)
(0.000108643 -0.00507754 0)
(0.000114672 -0.00494049 0)
(0.000119964 -0.00480847 0)
(0.000124563 -0.00468131 0)
(0.000128503 -0.00455883 0)
(0.000131813 -0.00444082 0)
(0.000134519 -0.00432706 0)
(0.000136639 -0.00421732 0)
(0.000138191 -0.00411138 0)
(0.000139187 -0.004009 0)
(2.26214e-08 -0.000216634 0)
(3.49341e-07 -0.000634938 0)
(1.04983e-06 -0.00103839 0)
(2.11641e-06 -0.00142711 0)
(3.53341e-06 -0.00180119 0)
(5.28609e-06 -0.00216068 0)
(7.36739e-06 -0.00250564 0)
(9.76559e-06 -0.0028361 0)
(1.24773e-05 -0.00315212 0)
(1.5489e-05 -0.00345372 0)
(1.88001e-05 -0.00374094 0)
(2.23948e-05 -0.00401381 0)
(2.62756e-05 -0.00427236 0)
(3.04226e-05 -0.0045166 0)
(3.48419e-05 -0.00474655 0)
(3.95076e-05 -0.00496223 0)
(4.44303e-05 -0.00516363 0)
(4.95751e-05 -0.00535078 0)
(5.49592e-05 -0.00552366 0)
(6.05345e-05 -0.00568227 0)
(6.63292e-05 -0.00582659 0)
(7.2277e-05 -0.00595662 0)
(7.84192e-05 -0.00607233 0)
(8.46417e-05 -0.00617369 0)
(9.09722e-05 -0.00626066 0)
(9.73504e-05 -0.0063332 0)
(0.00010433 -0.00639115 0)
(0.000112644 -0.0064344 0)
(0.000120395 -0.00646276 0)
(0.000115978 -0.00647608 0)
(7.1361e-05 -0.00647633 0)
(-2.79703e-05 -0.00646942 0)
(-0.000168454 -0.00645232 0)
(-8.6224e-05 -0.00624855 0)
(-5.89186e-05 -0.00606023 0)
(-5.2751e-05 -0.0058838 0)
(-4.84222e-05 -0.00571349 0)
(-4.22017e-05 -0.00554783 0)
(-3.52714e-05 -0.0053871 0)
(-2.84049e-05 -0.00523181 0)
(-2.18043e-05 -0.00508227 0)
(-1.54994e-05 -0.00493853 0)
(-9.52186e-06 -0.00480044 0)
(-3.91452e-06 -0.00466776 0)
(1.28314e-06 -0.00454018 0)
(6.03832e-06 -0.00441738 0)
(1.03254e-05 -0.00429905 0)
(1.41245e-05 -0.00418491 0)
(1.74206e-05 -0.00407465 0)
(2.02027e-05 -0.00396803 0)
(-2.1213e-09 -0.000216192 0)
(1.55195e-09 -0.000634188 0)
(4.5691e-08 -0.0010378 0)
(1.53115e-07 -0.00142708 0)
(3.44191e-07 -0.00180206 0)
(6.36787e-07 -0.00216274 0)
(1.04534e-06 -0.00250912 0)
(1.58134e-06 -0.00284121 0)
(2.25521e-06 -0.003159 0)
(3.07453e-06 -0.00346251 0)
(4.04691e-06 -0.00375174 0)
(5.17729e-06 -0.0040267 0)
(6.47169e-06 -0.00428741 0)
(7.93349e-06 -0.00453386 0)
(9.56836e-06 -0.00476607 0)
(1.13792e-05 -0.00498404 0)
(1.3373e-05 -0.00518778 0)
(1.55534e-05 -0.00537731 0)
(1.79308e-05 -0.00555262 0)
(2.05111e-05 -0.00571373 0)
(2.33134e-05 -0.00586064 0)
(2.63482e-05 -0.00599337 0)
(2.96447e-05 -0.00611192 0)
(3.31898e-05 -0.00621628 0)
(3.69929e-05 -0.00630649 0)
(4.11362e-05 -0.00638251 0)
(4.63282e-05 -0.00644437 0)
(5.37432e-05 -0.00649201 0)
(6.16144e-05 -0.00652541 0)
(5.47678e-05 -0.00654447 0)
(1.70337e-06 -0.00655076 0)
(-9.36593e-05 -0.00654793 0)
(-0.000274601 -0.00648733 0)
(-0.000144347 -0.00630737 0)
(-0.000127237 -0.00614395 0)
(-0.000124571 -0.00598612 0)
(-0.000121281 -0.00582924 0)
(-0.000115058 -0.00567303 0)
(-0.000107964 -0.00551848 0)
(-0.00010086 -0.00536659 0)
(-9.39052e-05 -0.00521803 0)
(-8.71191e-05 -0.00507317 0)
(-8.05536e-05 -0.00493219 0)
(-7.4279e-05 -0.00479514 0)
(-6.83606e-05 -0.004662 0)
(-6.28524e-05 -0.0045327 0)
(-5.77978e-05 -0.00440716 0)
(-5.32318e-05 -0.00428526 0)
(-4.91814e-05 -0.00416687 0)
(-4.56674e-05 -0.00405186 0)
(5.81332e-09 -0.000216447 0)
(1.20004e-07 -0.000635258 0)
(3.73833e-07 -0.00103995 0)
(7.75408e-07 -0.00143049 0)
(1.32698e-06 -0.00180688 0)
(2.02957e-06 -0.00216907 0)
(2.88865e-06 -0.00251706 0)
(3.90664e-06 -0.00285083 0)
(5.09006e-06 -0.00317037 0)
(6.44064e-06 -0.0034757 0)
(7.96609e-06 -0.00376681 0)
(9.66658e-06 -0.0040437 0)
(1.15518e-05 -0.00430639 0)
(1.36195e-05 -0.0045549 0)
(1.58824e-05 -0.00478922 0)
(1.8335e-05 -0.00500941 0)
(2.0994e-05 -0.00521545 0)
(2.38494e-05 -0.00540742 0)
(2.69233e-05 -0.00558532 0)
(3.02001e-05 -0.00574928 0)
(3.37102e-05 -0.00589927 0)
(3.74319e-05 -0.0060355 0)
(4.14025e-05 -0.00615793 0)
(4.55582e-05 -0.00626689 0)
(4.98975e-05 -0.00636228 0)
(5.44474e-05 -0.00644459 0)
(5.99856e-05 -0.00651365 0)
(6.78559e-05 -0.00657003 0)
(7.61513e-05 -0.00661351 0)
(6.63578e-05 -0.0066442 0)
(5.75062e-06 -0.00666159 0)
(-9.17119e-05 -0.00666369 0)
(-0.000296579 -0.00655543 0)
(-0.000129442 -0.00638762 0)
(-0.000122122 -0.00623121 0)
(-0.000124097 -0.00607441 0)
(-0.000124063 -0.00591522 0)
(-0.000121158 -0.00575551 0)
(-0.000117897 -0.00559721 0)
(-0.000114898 -0.00544153 0)
(-0.000112118 -0.00528911 0)
(-0.000109489 -0.00514024 0)
(-0.000107018 -0.004995 0)
(-0.000104741 -0.00485341 0)
(-0.000102695 -0.00471541 0)
(-0.000100909 -0.00458096 0)
(-9.94137e-05 -0.00444997 0)
(-9.82327e-05 -0.00432236 0)
(-9.73892e-05 -0.00419805 0)
(-9.69032e-05 -0.00407692 0)
(2.86208e-08 -0.000217843 0)
(2.36283e-07 -0.000639274 0)
(6.3654e-07 -0.00104645 0)
(1.21858e-06 -0.0014394 0)
(1.97344e-06 -0.00181814 0)
(2.89671e-06 -0.00218267 0)
(3.98808e-06 -0.00253299 0)
(5.25028e-06 -0.00286913 0)
(6.68282e-06 -0.00319108 0)
(8.29151e-06 -0.00349885 0)
(1.00744e-05 -0.00379245 0)
(1.20399e-05 -0.00407189 0)
(1.41838e-05 -0.00433718 0)
(1.65163e-05 -0.00458833 0)
(1.90308e-05 -0.00482534 0)
(2.17369e-05 -0.00504822 0)
(2.46265e-05 -0.00525699 0)
(2.77055e-05 -0.00545166 0)
(3.09612e-05 -0.00563223 0)
(3.43977e-05 -0.00579872 0)
(3.79869e-05 -0.00595113 0)
(4.17334e-05 -0.00608948 0)
(4.5606e-05 -0.00621378 0)
(4.9528e-05 -0.00632406 0)
(5.35528e-05 -0.00642029 0)
(5.73975e-05 -0.00650253 0)
(6.1617e-05 -0.00657075 0)
(6.6283e-05 -0.00662501 0)
(6.98635e-05 -0.00666527 0)
(6.92006e-05 -0.00669161 0)
(5.99392e-05 -0.00670399 0)
(4.57782e-05 -0.00670296 0)
(5.95557e-06 -0.00669843 0)
(-1.82736e-06 -0.00645087 0)
(1.4038e-05 -0.00623232 0)
(8.86206e-06 -0.00604408 0)
(2.8676e-06 -0.00587315 0)
(-2.48504e-06 -0.00571057 0)
(-7.89811e-06 -0.00555248 0)
(-1.33717e-05 -0.00539771 0)
(-1.89102e-05 -0.00524607 0)
(-2.45097e-05 -0.00509764 0)
(-3.01777e-05 -0.00495246 0)
(-3.5925e-05 -0.00481057 0)
(-4.17618e-05 -0.00467193 0)
(-4.76985e-05 -0.00453652 0)
(-5.3745e-05 -0.00440429 0)
(-5.99104e-05 -0.00427517 0)
(-6.62039e-05 -0.00414908 0)
(-7.26341e-05 -0.00402594 0)
(3.3988e-09 -0.000218937 0)
(1.10501e-07 -0.000642456 0)
(3.51164e-07 -0.00105164 0)
(7.30269e-07 -0.00144653 0)
(1.24591e-06 -0.00182717 0)
(1.89458e-06 -0.00219359 0)
(2.67585e-06 -0.00254581 0)
(3.58726e-06 -0.00288385 0)
(4.62832e-06 -0.00320773 0)
(5.79549e-06 -0.00351745 0)
(7.08844e-06 -0.00381301 0)
(8.50204e-06 -0.00409444 0)
(1.00369e-05 -0.00436172 0)
(1.1686e-05 -0.00461487 0)
(1.34516e-05 -0.00485388 0)
(1.53243e-05 -0.00507875 0)
(1.7309e-05 -0.00528948 0)
(1.93931e-05 -0.00548604 0)
(2.15851e-05 -0.00566843 0)
(2.3869e-05 -0.00583657 0)
(2.62593e-05 -0.00599049 0)
(2.87371e-05 -0.00613002 0)
(3.13203e-05 -0.00625523 0)
(3.39528e-05 -0.00636582 0)
(3.66083e-05 -0.00646193 0)
(3.93283e-05 -0.0065431 0)
(4.28645e-05 -0.00660952 0)
(4.85949e-05 -0.00666068 0)
(5.46275e-05 -0.00669681 0)
(4.20553e-05 -0.00671787 0)
(-1.98719e-05 -0.006725 0)
(-0.0001143 -0.00672106 0)
(-0.000339428 -0.00654824 0)
(-0.000169034 -0.00634381 0)
(-0.000167133 -0.00615733 0)
(-0.000171392 -0.00598442 0)
(-0.000172245 -0.005819 0)
(-0.000169952 -0.00565765 0)
(-0.000167603 -0.0054991 0)
(-0.000165984 -0.0053432 0)
(-0.000165069 -0.00519011 0)
(-0.000164763 -0.00503999 0)
(-0.000165045 -0.00489294 0)
(-0.000165914 -0.00474903 0)
(-0.000167369 -0.00460825 0)
(-0.000169402 -0.00447059 0)
(-0.000172001 -0.00433602 0)
(-0.000175152 -0.00420448 0)
(-0.00017884 -0.00407592 0)
(-0.000183048 -0.00395025 0)
(-0.000271279 -0.00404944 0)
(-0.000276087 -0.00403607 0)
(-0.000280914 -0.00402141 0)
(-0.000285756 -0.00400546 0)
(-0.00029061 -0.00398825 0)
(-0.000295473 -0.0039698 0)
(-0.000300344 -0.00395017 0)
(-0.00030522 -0.00392941 0)
(-0.000310099 -0.00390759 0)
(-0.00031498 -0.00388477 0)
(-0.000319861 -0.00386102 0)
(-0.000324741 -0.00383643 0)
(-0.00032962 -0.00381105 0)
(-0.000334495 -0.00378497 0)
(-0.000339367 -0.00375824 0)
(-0.000344234 -0.00373094 0)
(-0.000349096 -0.00370314 0)
(-0.000353951 -0.00367488 0)
(-0.0003588 -0.00364622 0)
(-0.00036364 -0.00361722 0)
(-0.000368473 -0.00358793 0)
(-0.000373296 -0.00355838 0)
(-0.00037811 -0.00352863 0)
(-0.000382913 -0.00349871 0)
(-0.000387706 -0.00346867 0)
(-0.000392487 -0.00343853 0)
(-0.000397256 -0.00340834 0)
(-0.000402012 -0.00337813 0)
(-0.000406755 -0.00334792 0)
(-0.000411484 -0.00331777 0)
(-0.000416198 -0.00328768 0)
(-0.000420897 -0.00325771 0)
(-0.000425581 -0.00322788 0)
(-0.000430248 -0.00319821 0)
(-0.000434898 -0.00316874 0)
(-0.000439531 -0.00313949 0)