/*--------------------------------*- C++ -*----------------------------------*\
| =========                 |                                                 |
| \\      /  F ield         | OpenFOAM: The Open Source CFD Toolbox           |
|  \\    /   O peration     | Version:  2.4.0                                 |
|   \\  /    A nd           | Web:      www.OpenFOAM.org                      |
|    \\/     M anipulation  |                                                 |
\*---------------------------------------------------------------------------*/
FoamFile
{
    version     2.0;
    format      ascii;
    class       volScalarField;
    location    "4.9";
    object      H;
}
// * * * * * * * * * * * * * * * * * * * * * * * * * * * * * * * * * * * * * //

dimensions      [0 2 -2 0 0 0 0];

internalField   nonuniform List<scalar> 
125
(
-26.5497
-26.5006
-26.2634
-26.3283
-26.5534
-26.4122
-26.3662
-26.1375
-26.1988
-26.4145
-26.2566
-26.2137
-25.9935
-26.0512
-26.2575
-26.0826
-26.0429
-25.831
-25.8852
-26.0822
-25.8901
-25.8535
-25.6498
-25.7006
-25.8885
-25.679
-25.6455
-25.4499
-25.4973
-25.6763
-25.449
-25.4186
-25.231
-25.2752
-25.4452
-25.2001
-25.1727
-24.993
-25.034
-25.1954
-24.9321
-24.9077
-24.7358
-24.7736
-24.9265
-24.645
-24.6236
-24.4593
-24.4941
-24.6387
-24.3388
-24.3204
-24.1635
-24.1954
-24.3317
-24.0135
-23.9979
-23.8484
-23.8773
-24.0057
-23.669
-23.6562
-23.5139
-23.5401
-23.6607
-23.3054
-23.2953
-23.1601
-23.1836
-23.2966
-22.9228
-22.9154
-22.7871
-22.808
-22.9136
-22.5214
-22.5165
-22.395
-22.4134
-22.5118
-22.1012
-22.0988
-21.9838
-21.9998
-22.0913
-21.6624
-21.6624
-21.5538
-21.5676
-21.6523
-21.2053
-21.2076
-21.1052
-21.1168
-21.195
-20.7301
-20.7345
-20.6381
-20.6476
-20.7197
-20.237
-20.2434
-20.1529
-20.1605
-20.2265
-19.7264
-19.7347
-19.6499
-19.6556
-19.7159
-19.1985
-19.2086
-19.1293
-19.1333
-19.1881
-18.6539
-18.6655
-18.5916
-18.594
-18.6435
-18.0928
-18.1059
-18.0371
-18.038
-18.0826
)
;

boundaryField
{
    BotWall
    {
        type            zeroGradient;
    }
    FreeStream
    {
        type            zeroGradient;
    }
    FrontNBack
    {
        type            empty;
    }
    LeftSide
    {
        type            symmetryPlane;
    }
    RightSide
    {
        type            symmetryPlane;
    }
    procBoundary2to1
    {
        type            processor;
        value           nonuniform List<scalar> 5(-26.6667 -26.6146 -26.3687 -26.4373 -26.672);
    }
    procBoundary2to3
    {
        type            processor;
        value           nonuniform List<scalar> 5(-17.5144 -17.5288 -17.4649 -17.4645 -17.5044);
    }
}


// ************************************************************************* //
