/*--------------------------------*- C++ -*----------------------------------*\
| =========                 |                                                 |
| \\      /  F ield         | OpenFOAM: The Open Source CFD Toolbox           |
|  \\    /   O peration     | Version:  2.4.0                                 |
|   \\  /    A nd           | Web:      www.OpenFOAM.org                      |
|    \\/     M anipulation  |                                                 |
\*---------------------------------------------------------------------------*/
FoamFile
{
    version     2.0;
    format      ascii;
    class       volScalarField;
    location    "4.9";
    object      p_rgh;
}
// * * * * * * * * * * * * * * * * * * * * * * * * * * * * * * * * * * * * * //

dimensions      [1 -1 -2 0 0 0 0];

internalField   nonuniform List<scalar> 
125
(
-4.97017e-06
-4.95098e-06
-4.91014e-06
-4.92399e-06
-4.96291e-06
-4.95546e-06
-4.93675e-06
-4.89688e-06
-4.91035e-06
-4.94832e-06
-4.94049e-06
-4.92225e-06
-4.88335e-06
-4.89644e-06
-4.9335e-06
-4.9253e-06
-4.90753e-06
-4.86958e-06
-4.88233e-06
-4.91849e-06
-4.90993e-06
-4.89262e-06
-4.85561e-06
-4.86802e-06
-4.90332e-06
-4.89439e-06
-4.87754e-06
-4.84146e-06
-4.85354e-06
-4.88798e-06
-4.87869e-06
-4.86229e-06
-4.82714e-06
-4.83889e-06
-4.87249e-06
-4.86282e-06
-4.84688e-06
-4.81263e-06
-4.82408e-06
-4.85685e-06
-4.8468e-06
-4.8313e-06
-4.79796e-06
-4.8091e-06
-4.84104e-06
-4.83061e-06
-4.81555e-06
-4.78311e-06
-4.79395e-06
-4.82508e-06
-4.81426e-06
-4.79964e-06
-4.76809e-06
-4.77864e-06
-4.80896e-06
-4.79775e-06
-4.78356e-06
-4.75288e-06
-4.76315e-06
-4.79267e-06
-4.78107e-06
-4.76731e-06
-4.7375e-06
-4.7475e-06
-4.77622e-06
-4.76423e-06
-4.75089e-06
-4.72194e-06
-4.73167e-06
-4.75961e-06
-4.74721e-06
-4.73429e-06
-4.7062e-06
-4.71567e-06
-4.74283e-06
-4.73003e-06
-4.71752e-06
-4.69028e-06
-4.69949e-06
-4.72588e-06
-4.71267e-06
-4.70056e-06
-4.67416e-06
-4.68313e-06
-4.70877e-06
-4.69513e-06
-4.68343e-06
-4.65786e-06
-4.6666e-06
-4.69147e-06
-4.67742e-06
-4.66612e-06
-4.64137e-06
-4.64988e-06
-4.674e-06
-4.65953e-06
-4.64863e-06
-4.62469e-06
-4.63297e-06
-4.65636e-06
-4.64146e-06
-4.63094e-06
-4.60781e-06
-4.61588e-06
-4.63854e-06
-4.6232e-06
-4.61307e-06
-4.59073e-06
-4.5986e-06
-4.62052e-06
-4.60474e-06
-4.595e-06
-4.57345e-06
-4.58112e-06
-4.6023e-06
-4.58609e-06
-4.57672e-06
-4.55596e-06
-4.56342e-06
-4.58386e-06
-4.56722e-06
-4.55823e-06
-4.53825e-06
-4.54549e-06
-4.56516e-06
)
;

boundaryField
{
    BotWall
    {
        type            fixedFluxPressure;
        gradient        nonuniform 0();
        value           nonuniform 0();
    }
    FreeStream
    {
        type            totalPressure;
        rho             rho;
        psi             none;
        gamma           1;
        p0              nonuniform 0();
        value           nonuniform 0();
    }
    FrontNBack
    {
        type            empty;
    }
    LeftSide
    {
        type            symmetryPlane;
    }
    RightSide
    {
        type            symmetryPlane;
    }
    procBoundary2to1
    {
        type            processor;
        value           nonuniform List<scalar> 5(-4.98435e-06 -4.9647e-06 -4.92287e-06 -4.93709e-06 -4.97712e-06);
    }
    procBoundary2to3
    {
        type            processor;
        value           nonuniform List<scalar> 5(-4.54815e-06 -4.53952e-06 -4.52033e-06 -4.52732e-06 -4.54622e-06);
    }
}


// ************************************************************************* //
