/*--------------------------------*- C++ -*----------------------------------*\
| =========                 |                                                 |
| \\      /  F ield         | OpenFOAM: The Open Source CFD Toolbox           |
|  \\    /   O peration     | Version:  2.4.0                                 |
|   \\  /    A nd           | Web:      www.OpenFOAM.org                      |
|    \\/     M anipulation  |                                                 |
\*---------------------------------------------------------------------------*/
FoamFile
{
    version     2.0;
    format      ascii;
    class       surfaceScalarField;
    location    "0.004";
    object      phi;
}
// * * * * * * * * * * * * * * * * * * * * * * * * * * * * * * * * * * * * * //

dimensions      [0 3 -1 0 0 0 0];

internalField   nonuniform List<scalar> 
123
(
7.6448e-16
2.84e-15
-5.16479e-09
-5.16477e-09
-5.16475e-09
-5.1647e-09
-5.16464e-09
-5.16457e-09
-5.16449e-09
-5.16439e-09
-5.16428e-09
-5.16416e-09
-5.16404e-09
-5.16391e-09
-5.16377e-09
-5.16362e-09
-5.16347e-09
-5.16332e-09
-5.16316e-09
-5.163e-09
-5.16284e-09
-5.16269e-09
-5.16253e-09
-5.16237e-09
-5.14844e-09
-5.14845e-09
-5.14847e-09
-5.14849e-09
-5.1485e-09
-5.14852e-09
-5.14854e-09
-5.14855e-09
-5.14857e-09
-5.14858e-09
-5.1486e-09
-5.14861e-09
-5.14863e-09
-5.14864e-09
-5.14865e-09
-5.14867e-09
-5.14868e-09
-5.14869e-09
-5.14871e-09
-5.14872e-09
-5.14873e-09
-5.14874e-09
-5.14876e-09
-5.14877e-09
-5.14878e-09
-5.14879e-09
-5.1488e-09
-5.14881e-09
-5.14882e-09
-5.14883e-09
-5.14884e-09
-5.14885e-09
-5.14886e-09
-5.14887e-09
-5.14888e-09
-5.14889e-09
-5.1489e-09
-5.14891e-09
-5.14892e-09
-5.14893e-09
-5.14893e-09
-5.14894e-09
-5.14895e-09
-5.14896e-09
-5.14896e-09
-5.14897e-09
-5.14898e-09
-5.14898e-09
-5.14899e-09
-5.149e-09
-5.149e-09
-5.14901e-09
-5.14901e-09
-5.14902e-09
-5.14902e-09
-5.14902e-09
-5.14903e-09
-5.14903e-09
-5.14904e-09
-5.14904e-09
-5.14904e-09
-5.14905e-09
-5.14905e-09
-5.14905e-09
-5.14905e-09
-5.14905e-09
-5.14906e-09
-5.14906e-09
-5.14906e-09
-5.14906e-09
-5.14906e-09
-5.14906e-09
-5.14906e-09
-5.14906e-09
-5.14906e-09
-5.14906e-09
-5.14906e-09
-5.14906e-09
-5.14906e-09
-5.14906e-09
-5.14906e-09
-5.14906e-09
-5.14906e-09
-5.14906e-09
-5.14905e-09
-5.14905e-09
-5.14904e-09
-5.14904e-09
-5.14903e-09
-5.14902e-09
-5.14901e-09
-5.149e-09
-5.14898e-09
-5.14897e-09
-5.14895e-09
-5.14894e-09
-5.14892e-09
-5.1489e-09
-5.14888e-09
)
;

boundaryField
{
    BotWall
    {
        type            calculated;
        value           uniform -2.90563e-19;
    }
    FreeStream
    {
        type            calculated;
        value           uniform -5.14886e-09;
    }
    FrontNBack
    {
        type            empty;
        value           nonuniform 0();
    }
    LeftSide
    {
        type            symmetryPlane;
        value           nonuniform 0();
    }
    RightSide
    {
        type            symmetryPlane;
        value           nonuniform 0();
    }
    procBoundary7to4
    {
        type            processor;
        value           nonuniform List<scalar> 
50
(
-9.00395e-17
-2.60091e-16
-5.84725e-16
-1.34166e-15
-2.96305e-15
-4.59131e-15
-6.14731e-15
-7.60926e-15
-8.96583e-15
-1.02116e-14
-1.13419e-14
-1.23528e-14
-1.32418e-14
-1.40075e-14
-1.46502e-14
-1.51714e-14
-1.5574e-14
-1.58619e-14
-1.60403e-14
-1.61154e-14
-1.60941e-14
-1.59841e-14
-1.57937e-14
-1.55316e-14
-1.52068e-14
4.92536e-15
4.8009e-15
4.64591e-15
4.44748e-15
4.19044e-15
3.85771e-15
3.43108e-15
2.8923e-15
2.22463e-15
1.41478e-15
4.55407e-16
-6.6163e-16
-1.92727e-15
-3.31618e-15
-4.80115e-15
-6.34459e-15
-7.90094e-15
-9.4198e-15
-1.08498e-14
-1.21429e-14
-1.32581e-14
-1.41655e-14
-1.48482e-14
-1.5304e-14
-1.553e-14
)
;
    }
    procBoundary7to5
    {
        type            processor;
        value           nonuniform List<scalar> 
75
(
1.62236e-14
1.60433e-14
1.58641e-14
1.56858e-14
1.55085e-14
1.53321e-14
1.51565e-14
1.49819e-14
1.4808e-14
1.4635e-14
1.44627e-14
1.42913e-14
1.41205e-14
1.39506e-14
1.37813e-14
1.36127e-14
1.34449e-14
1.32778e-14
1.31113e-14
1.29456e-14
1.27805e-14
1.26161e-14
1.24524e-14
1.22894e-14
1.2127e-14
1.19653e-14
1.18042e-14
1.16438e-14
1.14839e-14
1.13247e-14
1.11661e-14
1.1008e-14
1.08505e-14
1.06935e-14
1.0537e-14
1.03809e-14
1.02252e-14
1.00699e-14
9.91496e-15
9.76025e-15
9.60576e-15
9.45145e-15
9.29728e-15
9.14321e-15
8.9892e-15
8.83522e-15
8.68127e-15
8.52733e-15
8.37341e-15
8.21955e-15
8.0658e-15
7.91224e-15
7.75897e-15
7.60613e-15
7.45389e-15
7.30246e-15
7.15208e-15
7.00306e-15
6.85573e-15
6.71049e-15
6.56776e-15
6.42802e-15
6.29179e-15
6.15962e-15
6.03204e-15
5.9096e-15
5.79278e-15
5.68194e-15
5.57726e-15
5.47863e-15
5.38549e-15
5.29665e-15
5.21009e-15
5.12268e-15
5.02986e-15
)
;
    }
    procBoundary7to6
    {
        type            processor;
        value           uniform -5.16222e-09;
    }
    procBoundary7to8
    {
        type            processor;
        value           uniform 5.14842e-09;
    }
    procBoundary7to9
    {
        type            processor;
        value           nonuniform List<scalar> 
75
(
-6.74478e-16
-1.79507e-15
-5.23952e-15
-1.15709e-14
-2.46552e-14
-3.87437e-14
-5.21333e-14
-6.45829e-14
-7.61004e-14
-8.67016e-14
-9.63712e-14
-1.05091e-13
-1.12851e-13
-1.19653e-13
-1.25504e-13
-1.30422e-13
-1.3443e-13
-1.3756e-13
-1.3985e-13
-1.41343e-13
-1.42087e-13
-1.42136e-13
-1.41546e-13
-1.40375e-13
-1.38684e-13
-2.52708e-15
-2.61764e-15
-2.70922e-15
-2.80175e-15
-2.89515e-15
-2.98933e-15
-3.08418e-15
-3.17959e-15
-3.27541e-15
-3.3715e-15
-3.46769e-15
-3.56379e-15
-3.65961e-15
-3.75492e-15
-3.84948e-15
-3.94302e-15
-4.03523e-15
-4.12579e-15
-4.21432e-15
-4.30039e-15
-4.38352e-15
-4.46314e-15
-4.53861e-15
-4.6092e-15
-4.67406e-15
-4.73223e-15
-4.78268e-15
-4.82427e-15
-4.85586e-15
-4.87629e-15
-4.8845e-15
-4.87962e-15
-4.86102e-15
-4.82844e-15
-4.78205e-15
-4.72251e-15
-4.65103e-15
-4.56929e-15
-4.47948e-15
-4.38417e-15
-4.28622e-15
-4.18865e-15
-4.09456e-15
-4.00693e-15
-3.92855e-15
-3.86181e-15
-3.80875e-15
-3.77097e-15
-3.74945e-15
-3.73621e-15
)
;
    }
    procBoundary7to10
    {
        type            processor;
        value           nonuniform List<scalar> 
50
(
1.04667e-15
9.80443e-16
9.14224e-16
8.48041e-16
7.81923e-16
7.15897e-16
6.49984e-16
5.84205e-16
5.18578e-16
4.53115e-16
3.87827e-16
3.22723e-16
2.57804e-16
1.93072e-16
1.28521e-16
6.41468e-17
-6.30322e-20
-6.72714e-17
-1.34566e-16
-2.01759e-16
-2.68892e-16
-3.36015e-16
-4.03174e-16
-4.70424e-16
-5.37818e-16
-6.05413e-16
-6.73269e-16
-7.41444e-16
-8.10002e-16
-8.79005e-16
-9.48515e-16
-1.0186e-15
-1.08931e-15
-1.16072e-15
-1.23289e-15
-1.30588e-15
-1.37973e-15
-1.45451e-15
-1.53027e-15
-1.60705e-15
-1.68489e-15
-1.76384e-15
-1.84392e-15
-1.92516e-15
-2.00758e-15
-2.0912e-15
-2.17602e-15
-2.26203e-15
-2.34924e-15
-2.43759e-15
)
;
    }
}


// ************************************************************************* //
