/*--------------------------------*- C++ -*----------------------------------*\
| =========                 |                                                 |
| \\      /  F ield         | OpenFOAM: The Open Source CFD Toolbox           |
|  \\    /   O peration     | Version:  2.4.0                                 |
|   \\  /    A nd           | Web:      www.OpenFOAM.org                      |
|    \\/     M anipulation  |                                                 |
\*---------------------------------------------------------------------------*/
FoamFile
{
    version     2.0;
    format      ascii;
    class       volScalarField;
    location    "0.004";
    object      T;
}
// * * * * * * * * * * * * * * * * * * * * * * * * * * * * * * * * * * * * * //

dimensions      [0 0 0 1 0 0 0];

internalField   nonuniform List<scalar> 
125
(
293.799
295.406
297.853
297.852
297.851
297.851
297.852
297.853
297.855
297.857
297.859
297.862
297.866
297.869
297.873
297.878
297.882
297.887
297.892
297.897
297.902
297.906
297.911
297.916
297.921
298
298
298
298
298
298
298
298
298
298
298
298
298
298
298
298
298
298
298
298
298
298
298
298
298
298
298
298
298
298
298
298
298
298
298
298
298
298
298
298
298
298
298
298
298
298
298
298
298
298
298
298
298
298
298
298
298
298
298
298
298
298
298
298
298
298
298
298
298
298
298
298
298
298
298
298
298
298
298
298
298
298
298
298
298
298
298
298
298
298
298
298
298
298
298
298
298
298
298
298
)
;

boundaryField
{
    BotWall
    {
        type            fixedValue;
        value           uniform 293;
    }
    FreeStream
    {
        type            fixedValue;
        value           uniform 298;
    }
    FrontNBack
    {
        type            empty;
    }
    LeftSide
    {
        type            symmetryPlane;
    }
    RightSide
    {
        type            symmetryPlane;
    }
    procBoundary7to4
    {
        type            processor;
        value           nonuniform List<scalar> 
50
(
293.799
295.405
297.852
297.851
297.851
297.851
297.851
297.852
297.854
297.856
297.859
297.862
297.865
297.869
297.873
297.877
297.882
297.887
297.891
297.896
297.901
297.906
297.911
297.916
297.921
298
298
298
298
298
298
298
298
298
298
298
298
298
298
298
298
298
298
298
298
298
298
298
298
298
)
;
    }
    procBoundary7to5
    {
        type            processor;
        value           uniform 298;
    }
    procBoundary7to6
    {
        type            processor;
        value           uniform 297.926;
    }
    procBoundary7to8
    {
        type            processor;
        value           uniform 298;
    }
    procBoundary7to9
    {
        type            processor;
        value           nonuniform List<scalar> 
75
(
293.795
295.392
297.843
297.842
297.842
297.842
297.843
297.844
297.846
297.848
297.851
297.855
297.858
297.863
297.867
297.872
297.877
297.882
297.887
297.893
297.898
297.904
297.909
297.914
297.92
298
298
298
298
298
298
298
298
298
298
298
298
298
298
298
298
298
298
298
298
298
298
298
298
298
298
298
298
298
298
298
298
298
298
298
298
298
298
298
298
298
298
298
298
298
298
298
298
298
298
)
;
    }
    procBoundary7to10
    {
        type            processor;
        value           uniform 298;
    }
}


// ************************************************************************* //
