/*--------------------------------*- C++ -*----------------------------------*\
| =========                 |                                                 |
| \\      /  F ield         | OpenFOAM: The Open Source CFD Toolbox           |
|  \\    /   O peration     | Version:  2.4.0                                 |
|   \\  /    A nd           | Web:      www.OpenFOAM.org                      |
|    \\/     M anipulation  |                                                 |
\*---------------------------------------------------------------------------*/
FoamFile
{
    version     2.0;
    format      ascii;
    class       volScalarField;
    location    "4";
    object      H;
}
// * * * * * * * * * * * * * * * * * * * * * * * * * * * * * * * * * * * * * //

dimensions      [0 2 -2 0 0 0 0];

internalField   nonuniform List<scalar> 
125
(
-40.5429
-40.5137
-40.4066
-40.4526
-40.5162
-40.0346
-40.009
-39.9068
-39.9499
-40.0072
-39.4933
-39.4712
-39.3739
-39.414
-39.4653
-38.9196
-38.901
-38.8085
-38.8458
-38.8911
-38.3144
-38.2992
-38.2115
-38.2459
-38.2854
-37.6785
-37.6666
-37.5837
-37.6154
-37.6492
-37.0129
-37.0043
-36.9261
-36.955
-36.9833
-36.3187
-36.3133
-36.2397
-36.2659
-36.2888
-35.5969
-35.5946
-35.5256
-35.5493
-35.567
-34.849
-34.8497
-34.7851
-34.8062
-34.8189
-34.076
-34.0796
-34.0195
-34.0381
-34.0459
-33.2795
-33.2859
-33.23
-33.2462
-33.2495
-32.4608
-32.4698
-32.4182
-32.4321
-32.4309
-31.6215
-31.6331
-31.5855
-31.5972
-31.5918
-30.7632
-30.7771
-30.7335
-30.7431
-30.7338
-29.8875
-29.9036
-29.8638
-29.8714
-29.8583
-28.9959
-29.0142
-28.9781
-28.9837
-28.9672
-28.0904
-28.1106
-28.0781
-28.0819
-28.0621
-27.1726
-27.1946
-27.1655
-27.1675
-27.1447
-26.2442
-26.2679
-26.242
-26.2424
-26.2169
-25.3071
-25.3322
-25.3095
-25.3084
-25.2804
-24.363
-24.3894
-24.3697
-24.3672
-24.3369
-23.4138
-23.4413
-23.4244
-23.4206
-23.3884
-22.4611
-22.4896
-22.4753
-22.4703
-22.4364
-21.5067
-21.536
-21.5242
-21.5181
-21.4828
)
;

boundaryField
{
    BotWall
    {
        type            zeroGradient;
    }
    FreeStream
    {
        type            zeroGradient;
    }
    FrontNBack
    {
        type            empty;
    }
    LeftSide
    {
        type            symmetryPlane;
    }
    RightSide
    {
        type            symmetryPlane;
    }
    procBoundary2to1
    {
        type            processor;
        value           nonuniform List<scalar> 5(-41.0128 -40.98 -40.868 -40.9169 -40.9868);
    }
    procBoundary2to3
    {
        type            processor;
        value           nonuniform List<scalar> 5(-20.5524 -20.5823 -20.5727 -20.5657 -20.5293);
    }
}


// ************************************************************************* //
