/*--------------------------------*- C++ -*----------------------------------*\
| =========                 |                                                 |
| \\      /  F ield         | OpenFOAM: The Open Source CFD Toolbox           |
|  \\    /   O peration     | Version:  2.4.0                                 |
|   \\  /    A nd           | Web:      www.OpenFOAM.org                      |
|    \\/     M anipulation  |                                                 |
\*---------------------------------------------------------------------------*/
FoamFile
{
    version     2.0;
    format      ascii;
    class       volScalarField;
    location    "4";
    object      p;
}
// * * * * * * * * * * * * * * * * * * * * * * * * * * * * * * * * * * * * * //

dimensions      [1 -1 -2 0 0 0 0];

internalField   nonuniform List<scalar> 
125
(
-0.0330675
-0.0330675
-0.0330675
-0.0330675
-0.0330675
-0.0339273
-0.0339273
-0.0339273
-0.0339273
-0.0339273
-0.0347968
-0.0347967
-0.0347967
-0.0347967
-0.0347968
-0.0356759
-0.0356759
-0.0356758
-0.0356759
-0.0356759
-0.0365648
-0.0365648
-0.0365648
-0.0365648
-0.0365648
-0.0374637
-0.0374636
-0.0374636
-0.0374636
-0.0374637
-0.0383725
-0.0383725
-0.0383725
-0.0383725
-0.0383725
-0.0392916
-0.0392915
-0.0392915
-0.0392915
-0.0392916
-0.0402208
-0.0402208
-0.0402208
-0.0402208
-0.0402208
-0.0411605
-0.0411605
-0.0411604
-0.0411605
-0.0411605
-0.0421106
-0.0421106
-0.0421106
-0.0421106
-0.0421106
-0.0430713
-0.0430713
-0.0430713
-0.0430713
-0.0430713
-0.0440428
-0.0440428
-0.0440428
-0.0440428
-0.0440428
-0.0450251
-0.0450251
-0.0450251
-0.0450251
-0.0450251
-0.0460183
-0.0460183
-0.0460183
-0.0460183
-0.0460183
-0.0470227
-0.0470227
-0.0470227
-0.0470227
-0.0470227
-0.0480382
-0.0480382
-0.0480382
-0.0480382
-0.0480382
-0.0490651
-0.0490651
-0.0490651
-0.0490651
-0.0490651
-0.0501034
-0.0501034
-0.0501034
-0.0501034
-0.0501034
-0.0511534
-0.0511534
-0.0511534
-0.0511534
-0.0511534
-0.052215
-0.052215
-0.052215
-0.052215
-0.052215
-0.0532885
-0.0532885
-0.0532885
-0.0532885
-0.0532885
-0.054374
-0.054374
-0.0543739
-0.054374
-0.054374
-0.0554715
-0.0554715
-0.0554715
-0.0554715
-0.0554715
-0.0565814
-0.0565814
-0.0565814
-0.0565814
-0.0565814
)
;

boundaryField
{
    BotWall
    {
        type            calculated;
        value           nonuniform 0();
    }
    FreeStream
    {
        type            calculated;
        value           nonuniform 0();
    }
    FrontNBack
    {
        type            empty;
    }
    LeftSide
    {
        type            symmetryPlane;
    }
    RightSide
    {
        type            symmetryPlane;
    }
    procBoundary2to1
    {
        type            processor;
        value           nonuniform List<scalar> 5(-0.0322172 -0.0322172 -0.0322172 -0.0322172 -0.0322172);
    }
    procBoundary2to3
    {
        type            processor;
        value           nonuniform List<scalar> 5(-0.0577036 -0.0577036 -0.0577036 -0.0577036 -0.0577036);
    }
}


// ************************************************************************* //
