/*--------------------------------*- C++ -*----------------------------------*\
| =========                 |                                                 |
| \\      /  F ield         | OpenFOAM: The Open Source CFD Toolbox           |
|  \\    /   O peration     | Version:  2.4.0                                 |
|   \\  /    A nd           | Web:      www.OpenFOAM.org                      |
|    \\/     M anipulation  |                                                 |
\*---------------------------------------------------------------------------*/
FoamFile
{
    version     2.0;
    format      ascii;
    class       volScalarField;
    location    "4";
    object      p_rgh;
}
// * * * * * * * * * * * * * * * * * * * * * * * * * * * * * * * * * * * * * //

dimensions      [1 -1 -2 0 0 0 0];

internalField   nonuniform List<scalar> 
125
(
-7.80995e-06
-7.79356e-06
-7.77485e-06
-7.78568e-06
-7.81327e-06
-7.76281e-06
-7.74681e-06
-7.72855e-06
-7.73912e-06
-7.76599e-06
-7.71515e-06
-7.69955e-06
-7.68173e-06
-7.69204e-06
-7.71821e-06
-7.66697e-06
-7.65176e-06
-7.63437e-06
-7.64443e-06
-7.66992e-06
-7.61826e-06
-7.60344e-06
-7.58649e-06
-7.59629e-06
-7.62111e-06
-7.56903e-06
-7.55459e-06
-7.53806e-06
-7.54762e-06
-7.57179e-06
-7.51926e-06
-7.5052e-06
-7.4891e-06
-7.49841e-06
-7.52193e-06
-7.46896e-06
-7.45527e-06
-7.43958e-06
-7.44866e-06
-7.47154e-06
-7.41811e-06
-7.40479e-06
-7.38951e-06
-7.39835e-06
-7.42061e-06
-7.3667e-06
-7.35375e-06
-7.33889e-06
-7.34749e-06
-7.36913e-06
-7.31475e-06
-7.30216e-06
-7.28769e-06
-7.29606e-06
-7.31709e-06
-7.26222e-06
-7.24999e-06
-7.23592e-06
-7.24407e-06
-7.26449e-06
-7.20913e-06
-7.19725e-06
-7.18358e-06
-7.19149e-06
-7.21132e-06
-7.15546e-06
-7.14393e-06
-7.13065e-06
-7.13834e-06
-7.15757e-06
-7.10121e-06
-7.09002e-06
-7.07712e-06
-7.08459e-06
-7.10325e-06
-7.04637e-06
-7.03551e-06
-7.023e-06
-7.03025e-06
-7.04833e-06
-6.99093e-06
-6.98041e-06
-6.96827e-06
-6.97531e-06
-6.99282e-06
-6.93488e-06
-6.92469e-06
-6.91293e-06
-6.91975e-06
-6.9367e-06
-6.87823e-06
-6.86836e-06
-6.85697e-06
-6.86358e-06
-6.87998e-06
-6.82096e-06
-6.81141e-06
-6.80038e-06
-6.80679e-06
-6.82264e-06
-6.76307e-06
-6.75384e-06
-6.74316e-06
-6.74937e-06
-6.76468e-06
-6.70454e-06
-6.69562e-06
-6.68531e-06
-6.69131e-06
-6.70608e-06
-6.64538e-06
-6.63677e-06
-6.6268e-06
-6.63261e-06
-6.64683e-06
-6.58557e-06
-6.57726e-06
-6.56765e-06
-6.57326e-06
-6.58692e-06
-6.52511e-06
-6.5171e-06
-6.50783e-06
-6.51325e-06
-6.52635e-06
)
;

boundaryField
{
    BotWall
    {
        type            fixedFluxPressure;
        gradient        nonuniform 0();
        value           nonuniform 0();
    }
    FreeStream
    {
        type            totalPressure;
        rho             rho;
        psi             none;
        gamma           1;
        p0              nonuniform 0();
        value           nonuniform 0();
    }
    FrontNBack
    {
        type            empty;
    }
    LeftSide
    {
        type            symmetryPlane;
    }
    RightSide
    {
        type            symmetryPlane;
    }
    procBoundary2to1
    {
        type            processor;
        value           nonuniform List<scalar> 5(-7.85657e-06 -7.83977e-06 -7.82062e-06 -7.8317e-06 -7.86002e-06);
    }
    procBoundary2to3
    {
        type            processor;
        value           nonuniform List<scalar> 5(-6.46399e-06 -6.45628e-06 -6.44734e-06 -6.45258e-06 -6.46513e-06);
    }
}


// ************************************************************************* //
