/*--------------------------------*- C++ -*----------------------------------*\
| =========                 |                                                 |
| \\      /  F ield         | OpenFOAM: The Open Source CFD Toolbox           |
|  \\    /   O peration     | Version:  2.4.0                                 |
|   \\  /    A nd           | Web:      www.OpenFOAM.org                      |
|    \\/     M anipulation  |                                                 |
\*---------------------------------------------------------------------------*/
FoamFile
{
    version     2.0;
    format      ascii;
    class       surfaceScalarField;
    location    "4";
    object      phi;
}
// * * * * * * * * * * * * * * * * * * * * * * * * * * * * * * * * * * * * * //

dimensions      [0 3 -1 0 0 0 0];

internalField   nonuniform List<scalar> 
220
(
-7.57787e-17
-2.03828e-10
-1.19609e-17
-2.03848e-10
8.70356e-17
-2.03858e-10
1.17671e-16
-2.03852e-10
-2.03824e-10
-9.13593e-17
-2.03828e-10
-2.9555e-17
-2.03848e-10
9.46294e-17
-2.03858e-10
1.36854e-16
-2.03852e-10
-2.03823e-10
-1.05103e-16
-2.03828e-10
-4.55134e-17
-2.03848e-10
1.01151e-16
-2.03858e-10
1.5375e-16
-2.03852e-10
-2.03823e-10
-1.17005e-16
-2.03828e-10
-5.98299e-17
-2.03848e-10
1.06602e-16
-2.03858e-10
1.68364e-16
-2.03852e-10
-2.03823e-10
-1.27066e-16
-2.03828e-10
-7.25026e-17
-2.03848e-10
1.10989e-16
-2.03858e-10
1.80707e-16
-2.03852e-10
-2.03823e-10
-1.35291e-16
-2.03828e-10
-8.3534e-17
-2.03848e-10
1.1432e-16
-2.03858e-10
1.90798e-16
-2.03852e-10
-2.03823e-10
-1.41691e-16
-2.03827e-10
-9.29318e-17
-2.03848e-10
1.16607e-16
-2.03859e-10
1.98661e-16
-2.03852e-10
-2.03823e-10
-1.46286e-16
-2.03827e-10
-1.00708e-16
-2.03848e-10
1.17865e-16
-2.03859e-10
2.04327e-16
-2.03852e-10
-2.03822e-10
-1.49097e-16
-2.03827e-10
-1.0688e-16
-2.03848e-10
1.18112e-16
-2.03859e-10
2.07833e-16
-2.03852e-10
-2.03822e-10
-1.50154e-16
-2.03827e-10
-1.11468e-16
-2.03848e-10
1.1737e-16
-2.03859e-10
2.09223e-16
-2.03852e-10
-2.03822e-10
-1.49492e-16
-2.03827e-10
-1.14501e-16
-2.03848e-10
1.15663e-16
-2.0386e-10
2.08548e-16
-2.03852e-10
-2.03822e-10
-1.47151e-16
-2.03827e-10
-1.16009e-16
-2.03849e-10
1.1302e-16
-2.0386e-10
2.05863e-16
-2.03853e-10
-2.03821e-10
-1.43178e-16
-2.03826e-10
-1.16029e-16
-2.03849e-10
1.09471e-16
-2.0386e-10
2.0123e-16
-2.03853e-10
-2.03821e-10
-1.37624e-16
-2.03826e-10
-1.14601e-16
-2.03849e-10
1.0505e-16
-2.0386e-10
1.94719e-16
-2.03853e-10
-2.03821e-10
-1.30545e-16
-2.03826e-10
-1.1177e-16
-2.03849e-10
9.97922e-17
-2.0386e-10
1.86402e-16
-2.03853e-10
-2.03821e-10
-1.22004e-16
-2.03826e-10
-1.07585e-16
-2.03849e-10
9.37372e-17
-2.03861e-10
1.76357e-16
-2.03853e-10
-2.03821e-10
-1.12067e-16
-2.03826e-10
-1.02101e-16
-2.03849e-10
8.6926e-17
-2.03861e-10
1.6467e-16
-2.03853e-10
-2.03821e-10
-1.00804e-16
-2.03826e-10
-9.53745e-17
-2.03849e-10
7.9402e-17
-2.03861e-10
1.51426e-16
-2.03853e-10
-2.0382e-10
-8.82899e-17
-2.03826e-10
-8.7466e-17
-2.03849e-10
7.12102e-17
-2.03861e-10
1.36719e-16
-2.03853e-10
-2.0382e-10
-7.4602e-17
-2.03826e-10
-7.84398e-17
-2.03849e-10
6.23976e-17
-2.03861e-10
1.20642e-16
-2.03853e-10
-2.0382e-10
-5.98215e-17
-2.03826e-10
-6.83628e-17
-2.03849e-10
5.30123e-17
-2.03861e-10
1.03295e-16
-2.03853e-10
-2.0382e-10
-4.40321e-17
-2.03826e-10
-5.73046e-17
-2.03849e-10
4.31039e-17
-2.03862e-10
8.47754e-17
-2.03853e-10
-2.0382e-10
-2.73193e-17
-2.03826e-10
-4.53368e-17
-2.03849e-10
3.27234e-17
-2.03862e-10
6.51878e-17
-2.03853e-10
-2.0382e-10
-9.7704e-18
-2.03826e-10
-3.2533e-17
-2.03849e-10
2.19204e-17
-2.03862e-10
4.46332e-17
-2.03853e-10
-2.0382e-10
8.5259e-18
-1.89683e-17
1.07474e-17
2.32189e-17
)
;

boundaryField
{
    BotWall
    {
        type            calculated;
        value           nonuniform 0();
    }
    FreeStream
    {
        type            calculated;
        value           nonuniform 0();
    }
    FrontNBack
    {
        type            empty;
        value           nonuniform 0();
    }
    LeftSide
    {
        type            symmetryPlane;
        value           uniform 0;
    }
    RightSide
    {
        type            symmetryPlane;
        value           uniform 0;
    }
    procBoundary2to1
    {
        type            processor;
        value           nonuniform List<scalar> 5(2.03828e-10 2.03848e-10 2.03858e-10 2.03852e-10 2.03824e-10);
    }
    procBoundary2to3
    {
        type            processor;
        value           nonuniform List<scalar> 5(-2.03826e-10 -2.03849e-10 -2.03862e-10 -2.03853e-10 -2.0382e-10);
    }
}


// ************************************************************************* //
