/*--------------------------------*- C++ -*----------------------------------*\
| =========                 |                                                 |
| \\      /  F ield         | OpenFOAM: The Open Source CFD Toolbox           |
|  \\    /   O peration     | Version:  2.4.0                                 |
|   \\  /    A nd           | Web:      www.OpenFOAM.org                      |
|    \\/     M anipulation  |                                                 |
\*---------------------------------------------------------------------------*/
FoamFile
{
    version     2.0;
    format      ascii;
    class       volVectorField;
    location    "4";
    object      U;
}
// * * * * * * * * * * * * * * * * * * * * * * * * * * * * * * * * * * * * * //

dimensions      [0 1 -1 0 0 0 0];

internalField   nonuniform List<vector> 
125
(
(-1.8964e-08 -0.00101914 0)
(-1.26469e-08 -0.00101924 0)
(7.87442e-09 -0.00101929 0)
(2.84573e-08 -0.00101926 0)
(2.04648e-08 -0.00101912 0)
(-1.99551e-08 -0.00101914 0)
(-1.77549e-08 -0.00101924 0)
(5.75519e-09 -0.00101929 0)
(3.33173e-08 -0.00101926 0)
(2.30027e-08 -0.00101912 0)
(-2.07081e-08 -0.00101914 0)
(-2.22108e-08 -0.00101924 0)
(3.81336e-09 -0.00101929 0)
(3.74961e-08 -0.00101926 0)
(2.51162e-08 -0.00101912 0)
(-2.12301e-08 -0.00101914 0)
(-2.60325e-08 -0.00101924 0)
(2.04464e-09 -0.00101929 0)
(4.10146e-08 -0.00101926 0)
(2.68205e-08 -0.00101912 0)
(-2.15289e-08 -0.00101914 0)
(-2.9239e-08 -0.00101924 0)
(4.445e-10 -0.00101929 0)
(4.38947e-08 -0.00101926 0)
(2.81314e-08 -0.00101911 0)
(-2.16127e-08 -0.00101914 0)
(-3.18507e-08 -0.00101924 0)
(-9.91795e-10 -0.00101929 0)
(4.61595e-08 -0.00101926 0)
(2.90651e-08 -0.00101911 0)
(-2.14903e-08 -0.00101914 0)
(-3.38889e-08 -0.00101924 0)
(-2.26919e-09 -0.00101929 0)
(4.78329e-08 -0.00101926 0)
(2.96385e-08 -0.00101911 0)
(-2.11708e-08 -0.00101914 0)
(-3.53757e-08 -0.00101924 0)
(-3.39283e-09 -0.00101929 0)
(4.894e-08 -0.00101926 0)
(2.98688e-08 -0.00101911 0)
(-2.0664e-08 -0.00101914 0)
(-3.63346e-08 -0.00101924 0)
(-4.36806e-09 -0.00101929 0)
(4.95064e-08 -0.00101926 0)
(2.97738e-08 -0.00101911 0)
(-1.99799e-08 -0.00101914 0)
(-3.67896e-08 -0.00101924 0)
(-5.20038e-09 -0.0010193 0)
(4.95588e-08 -0.00101926 0)
(2.93715e-08 -0.00101911 0)
(-1.91289e-08 -0.00101913 0)
(-3.67656e-08 -0.00101924 0)
(-5.89549e-09 -0.0010193 0)
(4.91245e-08 -0.00101926 0)
(2.86804e-08 -0.00101911 0)
(-1.81218e-08 -0.00101913 0)
(-3.62885e-08 -0.00101924 0)
(-6.45924e-09 -0.0010193 0)
(4.82314e-08 -0.00101926 0)
(2.77191e-08 -0.00101911 0)
(-1.69696e-08 -0.00101913 0)
(-3.53844e-08 -0.00101924 0)
(-6.8976e-09 -0.0010193 0)
(4.69079e-08 -0.00101926 0)
(2.65065e-08 -0.00101911 0)
(-1.56836e-08 -0.00101913 0)
(-3.40802e-08 -0.00101924 0)
(-7.2167e-09 -0.0010193 0)
(4.5183e-08 -0.00101926 0)
(2.50614e-08 -0.00101911 0)
(-1.42751e-08 -0.00101913 0)
(-3.24032e-08 -0.00101924 0)
(-7.42276e-09 -0.0010193 0)
(4.30857e-08 -0.00101926 0)
(2.3403e-08 -0.0010191 0)
(-1.27558e-08 -0.00101913 0)
(-3.03809e-08 -0.00101924 0)
(-7.5221e-09 -0.0010193 0)
(4.06453e-08 -0.00101926 0)
(2.15502e-08 -0.0010191 0)
(-1.11371e-08 -0.00101913 0)
(-2.80412e-08 -0.00101924 0)
(-7.5211e-09 -0.0010193 0)
(3.78914e-08 -0.00101926 0)
(1.95218e-08 -0.0010191 0)
(-9.43069e-09 -0.00101913 0)
(-2.54119e-08 -0.00101924 0)
(-7.42622e-09 -0.0010193 0)
(3.48533e-08 -0.00101926 0)
(1.73367e-08 -0.0010191 0)
(-7.64805e-09 -0.00101913 0)
(-2.25209e-08 -0.00101924 0)
(-7.24393e-09 -0.00101931 0)
(3.15603e-08 -0.00101927 0)
(1.50132e-08 -0.0010191 0)
(-5.8006e-09 -0.00101913 0)
(-1.93959e-08 -0.00101924 0)
(-6.98072e-09 -0.00101931 0)
(2.80412e-08 -0.00101927 0)
(1.25695e-08 -0.0010191 0)
(-3.89955e-09 -0.00101913 0)
(-1.60644e-08 -0.00101924 0)
(-6.64308e-09 -0.00101931 0)
(2.43247e-08 -0.00101927 0)
(1.00233e-08 -0.0010191 0)
(-1.9559e-09 -0.00101913 0)
(-1.25535e-08 -0.00101924 0)
(-6.23748e-09 -0.00101931 0)
(2.04388e-08 -0.00101927 0)
(7.39198e-09 -0.0010191 0)
(1.96314e-11 -0.00101913 0)
(-8.88979e-09 -0.00101924 0)
(-5.77031e-09 -0.00101931 0)
(1.6411e-08 -0.00101927 0)
(4.69238e-09 -0.0010191 0)
(2.01667e-09 -0.00101913 0)
(-5.09927e-09 -0.00101924 0)
(-5.24793e-09 -0.00101931 0)
(1.22677e-08 -0.00101927 0)
(1.94036e-09 -0.0010191 0)
(4.02522e-09 -0.00101913 0)
(-1.20728e-09 -0.00101924 0)
(-4.67661e-09 -0.00101931 0)
(8.03541e-09 -0.00101927 0)
(-8.4805e-10 -0.0010191 0)
)
;

boundaryField
{
    BotWall
    {
        type            fixedValue;
        value           nonuniform 0();
    }
    FreeStream
    {
        type            zeroGradient;
    }
    FrontNBack
    {
        type            empty;
    }
    LeftSide
    {
        type            symmetryPlane;
    }
    RightSide
    {
        type            symmetryPlane;
    }
    procBoundary2to1
    {
        type            processor;
        value           nonuniform List<vector> 5((-1.77283e-08 -0.00101914 0) (-6.87e-09 -0.00101924 0) (1.01751e-08 -0.00101929 0) (2.28965e-08 -0.00101926 0) (1.74882e-08 -0.00101912 0));
    }
    procBoundary2to3
    {
        type            processor;
        value           nonuniform List<vector> 5((6.03569e-09 -0.00101913 0) (2.7616e-09 -0.00101924 0) (-4.06248e-09 -0.00101931 0) (3.7385e-09 -0.00101927 0) (-3.65852e-09 -0.0010191 0));
    }
}


// ************************************************************************* //
