/*--------------------------------*- C++ -*----------------------------------*\
| =========                 |                                                 |
| \\      /  F ield         | OpenFOAM: The Open Source CFD Toolbox           |
|  \\    /   O peration     | Version:  2.4.0                                 |
|   \\  /    A nd           | Web:      www.OpenFOAM.org                      |
|    \\/     M anipulation  |                                                 |
\*---------------------------------------------------------------------------*/
FoamFile
{
    version     2.0;
    format      ascii;
    class       volScalarField;
    location    "0.01";
    object      H;
}
// * * * * * * * * * * * * * * * * * * * * * * * * * * * * * * * * * * * * * //

dimensions      [0 2 -2 0 0 0 0];

internalField   nonuniform List<scalar> 
125
(
-29.2072
-27.9007
-26.6272
-25.3876
-24.1827
-23.0134
-21.88
-20.7831
-19.7228
-18.6994
-17.7128
-16.7631
-15.8499
-14.9732
-14.1324
-13.3271
-12.5568
-11.8209
-11.1186
-10.4493
-9.81224
-9.20648
-8.6312
-8.08547
-7.56838
-7.07897
-6.61626
-6.17927
-5.767
-5.37848
-5.0127
-4.66868
-4.34545
-4.04203
-3.7575
-3.49091
-3.24135
-3.00795
-2.78985
-2.5862
-2.3962
-2.21907
-2.05407
-1.90048
-1.75759
-1.62476
-1.50136
-1.38678
-1.28045
-1.18184
-1.09043
-1.00575
-0.927319
-0.854722
-0.787551
-0.725424
-0.667983
-0.614895
-0.565846
-0.520543
-0.478712
-0.440098
-0.404464
-0.371589
-0.341267
-0.313306
-0.287531
-0.263775
-0.241886
-0.221723
-0.203154
-0.186059
-0.170324
-0.155846
-0.142529
-0.130284
-0.119028
-0.108685
-0.0991848
-0.0904623
-0.0824573
-0.075114
-0.068381
-0.0622107
-0.0565589
-0.0513849
-0.0466511
-0.0423226
-0.0383672
-0.0347549
-0.0314584
-0.0284519
-0.025712
-0.0232169
-0.0209464
-0.0188819
-0.0170063
-0.0153035
-0.013759
-0.0123593
-0.0110919
-0.00994531
-0.00890893
-0.00797305
-0.00712869
-0.00636764
-0.00568233
-0.00506582
-0.00451175
-0.00401429
-0.0035681
-0.00316831
-0.00281046
-0.00249047
-0.00220465
-0.0019496
-0.00172227
-0.00151984
-0.00133979
-0.00117982
-0.00103784
-0.000911961
-0.000800485
-0.000701871
-0.000614731
)
;

boundaryField
{
    BotWall
    {
        type            zeroGradient;
    }
    FreeStream
    {
        type            zeroGradient;
    }
    FrontNBack
    {
        type            empty;
    }
    LeftSide
    {
        type            symmetryPlane;
    }
    RightSide
    {
        type            symmetryPlane;
    }
    procBoundary1to0
    {
        type            processor;
        value           uniform -0.00053784;
    }
    procBoundary1to2
    {
        type            processor;
        value           uniform -30.5451;
    }
    procBoundary1to3
    {
        type            processor;
        value           nonuniform List<scalar> 
75
(
-1.10929
-1.02323
-0.943511
-0.869693
-0.801371
-0.738165
-0.679715
-0.625683
-0.575755
-0.529635
-0.487046
-0.447731
-0.411449
-0.377976
-0.347104
-0.318638
-0.292399
-0.268217
-0.245939
-0.22542
-0.206527
-0.189135
-0.17313
-0.158405
-0.144864
-0.132414
-0.120971
-0.110459
-0.100804
-0.0919413
-0.0838083
-0.0763484
-0.0695091
-0.0632419
-0.0575017
-0.0522471
-0.0474397
-0.0430439
-0.0390269
-0.0353583
-0.0320102
-0.0289565
-0.0261734
-0.0236386
-0.0213317
-0.0192338
-0.0173275
-0.0155966
-0.0140263
-0.0126029
-0.0113138
-0.0101472
-0.00909252
-0.00813985
-0.00728012
-0.00650498
-0.00580677
-0.00517847
-0.00461362
-0.00410631
-0.00365114
-0.00324316
-0.00287784
-0.00255108
-0.00225909
-0.00199845
-0.00176605
-0.00155903
-0.00137484
-0.00121112
-0.00106576
-0.000936843
-0.000822633
-0.000721566
-0.000632227
)
;
    }
    procBoundary1to4
    {
        type            processor;
        value           nonuniform List<scalar> 
50
(
-28.9559
-27.6773
-26.43
-25.2152
-24.0336
-22.886
-21.7729
-20.6947
-19.6518
-18.6443
-17.6724
-16.736
-15.835
-14.9691
-14.138
-13.3415
-12.5788
-11.8496
-11.1531
-10.4888
-9.85583
-9.25349
-8.68093
-8.13733
-7.62178
-7.1334
-6.67125
-6.2344
-5.82192
-5.43283
-5.06621
-4.7211
-4.39656
-4.09167
-3.8055
-3.53716
-3.28577
-3.05047
-2.83041
-2.62478
-2.4328
-2.25369
-2.08673
-1.93121
-1.78644
-1.65178
-1.5266
-1.41031
-1.30234
-1.20216
)
;
    }
}


// ************************************************************************* //
