/*--------------------------------*- C++ -*----------------------------------*\
| =========                 |                                                 |
| \\      /  F ield         | OpenFOAM: The Open Source CFD Toolbox           |
|  \\    /   O peration     | Version:  2.4.0                                 |
|   \\  /    A nd           | Web:      www.OpenFOAM.org                      |
|    \\/     M anipulation  |                                                 |
\*---------------------------------------------------------------------------*/
FoamFile
{
    version     2.0;
    format      ascii;
    class       volScalarField;
    location    "0.01";
    object      p;
}
// * * * * * * * * * * * * * * * * * * * * * * * * * * * * * * * * * * * * * //

dimensions      [1 -1 -2 0 0 0 0];

internalField   nonuniform List<scalar> 
125
(
-0.0171563
-0.0173385
-0.0175214
-0.017705
-0.0178892
-0.0180741
-0.0182597
-0.018446
-0.0186329
-0.0188206
-0.0190089
-0.0191979
-0.0193876
-0.0195781
-0.0197692
-0.019961
-0.0201536
-0.0203468
-0.0205408
-0.0207355
-0.0209309
-0.021127
-0.0213238
-0.0215214
-0.0217196
-0.0219187
-0.0221184
-0.0223189
-0.0225201
-0.0227221
-0.0229248
-0.0231283
-0.0233325
-0.0235374
-0.0237432
-0.0239496
-0.0241569
-0.0243649
-0.0245736
-0.0247832
-0.0249935
-0.0252045
-0.0254164
-0.025629
-0.0258425
-0.0260567
-0.0262717
-0.0264875
-0.026704
-0.0269214
-0.0271396
-0.0273586
-0.0275784
-0.027799
-0.0280204
-0.0282426
-0.0284657
-0.0286896
-0.0289143
-0.0291398
-0.0293661
-0.0295933
-0.0298213
-0.0300502
-0.0302799
-0.0305105
-0.0307419
-0.0309741
-0.0312072
-0.0314412
-0.031676
-0.0319117
-0.0321483
-0.0323857
-0.0326241
-0.0328632
-0.0331033
-0.0333443
-0.0335861
-0.0338288
-0.0340725
-0.034317
-0.0345624
-0.0348088
-0.035056
-0.0353041
-0.0355532
-0.0358032
-0.0360541
-0.0363059
-0.0365586
-0.0368123
-0.0370669
-0.0373225
-0.037579
-0.0378364
-0.0380948
-0.0383542
-0.0386145
-0.0388757
-0.0391379
-0.0394011
-0.0396653
-0.0399304
-0.0401965
-0.0404636
-0.0407316
-0.0410007
-0.0412707
-0.0415418
-0.0418138
-0.0420868
-0.0423609
-0.0426359
-0.042912
-0.0431891
-0.0434672
-0.0437463
-0.0440265
-0.0443077
-0.0445899
-0.0448731
-0.0451574
-0.0454428
-0.0457292
)
;

boundaryField
{
    BotWall
    {
        type            calculated;
        value           nonuniform 0();
    }
    FreeStream
    {
        type            calculated;
        value           nonuniform 0();
    }
    FrontNBack
    {
        type            empty;
    }
    LeftSide
    {
        type            symmetryPlane;
    }
    RightSide
    {
        type            symmetryPlane;
    }
    procBoundary1to0
    {
        type            processor;
        value           uniform -0.0460166;
    }
    procBoundary1to2
    {
        type            processor;
        value           uniform -0.0169748;
    }
    procBoundary1to3
    {
        type            processor;
        value           nonuniform List<scalar> 
75
(
-0.0271293
-0.0273484
-0.0275683
-0.027789
-0.0280104
-0.0282328
-0.0284559
-0.0286798
-0.0289046
-0.0291302
-0.0293566
-0.0295839
-0.029812
-0.030041
-0.0302707
-0.0305014
-0.0307328
-0.0309652
-0.0311984
-0.0314324
-0.0316673
-0.0319031
-0.0321397
-0.0323772
-0.0326156
-0.0328549
-0.033095
-0.0333361
-0.033578
-0.0338208
-0.0340645
-0.0343091
-0.0345546
-0.034801
-0.0350483
-0.0352965
-0.0355456
-0.0357957
-0.0360466
-0.0362985
-0.0365513
-0.0368051
-0.0370598
-0.0373154
-0.037572
-0.0378295
-0.0380879
-0.0383473
-0.0386077
-0.038869
-0.0391313
-0.0393945
-0.0396588
-0.0399239
-0.0401901
-0.0404572
-0.0407254
-0.0409945
-0.0412646
-0.0415357
-0.0418078
-0.0420809
-0.042355
-0.0426301
-0.0429062
-0.0431834
-0.0434615
-0.0437407
-0.0440209
-0.0443022
-0.0445845
-0.0448678
-0.0451522
-0.0454376
-0.045724
)
;
    }
    procBoundary1to4
    {
        type            processor;
        value           nonuniform List<scalar> 
50
(
-0.0171407
-0.0173231
-0.0175061
-0.0176897
-0.0178741
-0.0180591
-0.0182448
-0.0184312
-0.0186183
-0.018806
-0.0189945
-0.0191836
-0.0193735
-0.019564
-0.0197552
-0.0199472
-0.0201398
-0.0203332
-0.0205273
-0.020722
-0.0209175
-0.0211138
-0.0213107
-0.0215084
-0.0217068
-0.0219059
-0.0221058
-0.0223063
-0.0225077
-0.0227098
-0.0229126
-0.0231161
-0.0233204
-0.0235255
-0.0237313
-0.0239379
-0.0241452
-0.0243533
-0.0245622
-0.0247718
-0.0249822
-0.0251934
-0.0254054
-0.0256181
-0.0258316
-0.0260459
-0.026261
-0.0264769
-0.0266936
-0.0269111
)
;
    }
}


// ************************************************************************* //
