/*--------------------------------*- C++ -*----------------------------------*\
| =========                 |                                                 |
| \\      /  F ield         | OpenFOAM: The Open Source CFD Toolbox           |
|  \\    /   O peration     | Version:  2.4.0                                 |
|   \\  /    A nd           | Web:      www.OpenFOAM.org                      |
|    \\/     M anipulation  |                                                 |
\*---------------------------------------------------------------------------*/
FoamFile
{
    version     2.0;
    format      ascii;
    class       surfaceScalarField;
    location    "0.01";
    object      phi;
}
// * * * * * * * * * * * * * * * * * * * * * * * * * * * * * * * * * * * * * //

dimensions      [0 3 -1 0 0 0 0];

internalField   nonuniform List<scalar> 
124
(
-4.20197e-09
-4.202e-09
-4.20202e-09
-4.20205e-09
-4.20207e-09
-4.20209e-09
-4.20212e-09
-4.20214e-09
-4.20217e-09
-4.20219e-09
-4.20221e-09
-4.20223e-09
-4.20225e-09
-4.20228e-09
-4.2023e-09
-4.20232e-09
-4.20234e-09
-4.20236e-09
-4.20238e-09
-4.2024e-09
-4.20242e-09
-4.20244e-09
-4.20245e-09
-4.20247e-09
-4.20249e-09
-4.20251e-09
-4.20253e-09
-4.20254e-09
-4.20256e-09
-4.20258e-09
-4.2026e-09
-4.20261e-09
-4.20263e-09
-4.20265e-09
-4.20266e-09
-4.20268e-09
-4.20269e-09
-4.20271e-09
-4.20272e-09
-4.20274e-09
-4.20276e-09
-4.20277e-09
-4.20279e-09
-4.2028e-09
-4.20281e-09
-4.20283e-09
-4.20284e-09
-4.20286e-09
-4.20287e-09
-4.20289e-09
-4.2029e-09
-4.20292e-09
-4.20293e-09
-4.20294e-09
-4.20296e-09
-4.20297e-09
-4.20298e-09
-4.203e-09
-4.20301e-09
-4.20302e-09
-4.20304e-09
-4.20305e-09
-4.20306e-09
-4.20308e-09
-4.20309e-09
-4.2031e-09
-4.20312e-09
-4.20313e-09
-4.20314e-09
-4.20315e-09
-4.20317e-09
-4.20318e-09
-4.20319e-09
-4.2032e-09
-4.20322e-09
-4.20323e-09
-4.20324e-09
-4.20325e-09
-4.20327e-09
-4.20328e-09
-4.20329e-09
-4.2033e-09
-4.20331e-09
-4.20333e-09
-4.20334e-09
-4.20335e-09
-4.20336e-09
-4.20337e-09
-4.20339e-09
-4.2034e-09
-4.20341e-09
-4.20342e-09
-4.20343e-09
-4.20344e-09
-4.20345e-09
-4.20347e-09
-4.20348e-09
-4.20349e-09
-4.2035e-09
-4.20351e-09
-4.20352e-09
-4.20353e-09
-4.20355e-09
-4.20356e-09
-4.20357e-09
-4.20358e-09
-4.20359e-09
-4.2036e-09
-4.20361e-09
-4.20362e-09
-4.20363e-09
-4.20364e-09
-4.20365e-09
-4.20367e-09
-4.20368e-09
-4.20369e-09
-4.2037e-09
-4.20371e-09
-4.20372e-09
-4.20373e-09
-4.20374e-09
-4.20375e-09
-4.20376e-09
-4.20377e-09
)
;

boundaryField
{
    BotWall
    {
        type            calculated;
        value           nonuniform 0();
    }
    FreeStream
    {
        type            calculated;
        value           nonuniform 0();
    }
    FrontNBack
    {
        type            empty;
        value           nonuniform 0();
    }
    LeftSide
    {
        type            symmetryPlane;
        value           uniform 0;
    }
    RightSide
    {
        type            symmetryPlane;
        value           nonuniform 0();
    }
    procBoundary1to0
    {
        type            processor;
        value           uniform -4.20378e-09;
    }
    procBoundary1to2
    {
        type            processor;
        value           uniform 4.20194e-09;
    }
    procBoundary1to3
    {
        type            processor;
        value           nonuniform List<scalar> 
75
(
1.41317e-14
1.4037e-14
1.39451e-14
1.3856e-14
1.37693e-14
1.3685e-14
1.3603e-14
1.35232e-14
1.34454e-14
1.33695e-14
1.32955e-14
1.32233e-14
1.31527e-14
1.30838e-14
1.30163e-14
1.29504e-14
1.28858e-14
1.28225e-14
1.27605e-14
1.26997e-14
1.26401e-14
1.25817e-14
1.25243e-14
1.24679e-14
1.24126e-14
1.23582e-14
1.23047e-14
1.22522e-14
1.22005e-14
1.21496e-14
1.20996e-14
1.20503e-14
1.20017e-14
1.19539e-14
1.19068e-14
1.18604e-14
1.18146e-14
1.17694e-14
1.17249e-14
1.16809e-14
1.16375e-14
1.15947e-14
1.15523e-14
1.15105e-14
1.14692e-14
1.14284e-14
1.13881e-14
1.13481e-14
1.13087e-14
1.12696e-14
1.1231e-14
1.11927e-14
1.11549e-14
1.11174e-14
1.10802e-14
1.10434e-14
1.1007e-14
1.09709e-14
1.09351e-14
1.08996e-14
1.08644e-14
1.08295e-14
1.0795e-14
1.07607e-14
1.07267e-14
1.0693e-14
1.06596e-14
1.06264e-14
1.05936e-14
1.0561e-14
1.05286e-14
1.04966e-14
1.04649e-14
1.04334e-14
1.04022e-14
)
;
    }
    procBoundary1to4
    {
        type            processor;
        value           nonuniform List<scalar> 
50
(
2.58286e-14
2.54973e-14
2.51596e-14
2.48171e-14
2.4471e-14
2.41227e-14
2.37735e-14
2.34244e-14
2.30765e-14
2.27307e-14
2.23881e-14
2.20493e-14
2.1715e-14
2.13861e-14
2.10629e-14
2.07461e-14
2.0436e-14
2.01331e-14
1.98376e-14
1.95497e-14
1.92698e-14
1.89978e-14
1.8734e-14
1.84783e-14
1.82307e-14
1.79912e-14
1.77598e-14
1.75363e-14
1.73207e-14
1.71126e-14
1.69121e-14
1.67189e-14
1.65327e-14
1.63535e-14
1.61809e-14
1.60147e-14
1.58546e-14
1.57006e-14
1.55522e-14
1.54092e-14
1.52715e-14
1.51388e-14
1.50107e-14
1.48873e-14
1.47681e-14
1.4653e-14
1.45417e-14
1.44342e-14
1.43301e-14
1.42293e-14
)
;
    }
}


// ************************************************************************* //
