/*--------------------------------*- C++ -*----------------------------------*\
| =========                 |                                                 |
| \\      /  F ield         | OpenFOAM: The Open Source CFD Toolbox           |
|  \\    /   O peration     | Version:  2.4.0                                 |
|   \\  /    A nd           | Web:      www.OpenFOAM.org                      |
|    \\/     M anipulation  |                                                 |
\*---------------------------------------------------------------------------*/
FoamFile
{
    version     2.0;
    format      ascii;
    class       volVectorField;
    location    "0.011";
    object      U;
}
// * * * * * * * * * * * * * * * * * * * * * * * * * * * * * * * * * * * * * //

dimensions      [0 1 -1 0 0 0 0];

internalField   nonuniform List<vector> 
125
(
(2.45685e-07 0.000102409 0)
(7.87505e-07 -0.000290042 0)
(1.34475e-06 0.00119006 0)
(2.15771e-06 -0.00354429 0)
(2.42769e-06 -0.0220592 0)
(3.24796e-06 -0.0305632 0)
(4.2989e-06 -0.0226381 0)
(5.32984e-06 -0.0212866 0)
(6.31231e-06 -0.0214203 0)
(7.24049e-06 -0.0216595 0)
(8.11962e-06 -0.0217176 0)
(8.95214e-06 -0.0217107 0)
(9.73892e-06 -0.0217017 0)
(1.04806e-05 -0.0216995 0)
(1.11778e-05 -0.0216998 0)
(1.18316e-05 -0.0217003 0)
(1.24426e-05 -0.0217004 0)
(1.3012e-05 -0.0217005 0)
(1.35405e-05 -0.0217005 0)
(1.40293e-05 -0.0217006 0)
(1.44792e-05 -0.0217007 0)
(1.48914e-05 -0.0217008 0)
(1.52669e-05 -0.0217009 0)
(1.56068e-05 -0.021701 0)
(1.59121e-05 -0.0217011 0)
(1.61841e-05 -0.0217012 0)
(1.64239e-05 -0.0217013 0)
(1.66325e-05 -0.0217014 0)
(1.68113e-05 -0.0217015 0)
(1.69613e-05 -0.0217016 0)
(1.70837e-05 -0.0217017 0)
(1.71798e-05 -0.0217018 0)
(1.72508e-05 -0.0217019 0)
(1.72977e-05 -0.021702 0)
(1.73219e-05 -0.0217021 0)
(1.73244e-05 -0.0217023 0)
(1.73065e-05 -0.0217024 0)
(1.72693e-05 -0.0217025 0)
(1.7214e-05 -0.0217026 0)
(1.71418e-05 -0.0217027 0)
(1.70536e-05 -0.0217028 0)
(1.69507e-05 -0.0217029 0)
(1.68341e-05 -0.021703 0)
(1.67048e-05 -0.0217032 0)
(1.6564e-05 -0.0217033 0)
(1.64125e-05 -0.0217034 0)
(1.62514e-05 -0.0217035 0)
(1.60817e-05 -0.0217036 0)
(1.59041e-05 -0.0217037 0)
(1.57197e-05 -0.0217038 0)
(2.94134e-06 -0.0217233 0)
(2.86707e-06 -0.0217233 0)
(2.79111e-06 -0.0217233 0)
(2.71338e-06 -0.0217233 0)
(2.63381e-06 -0.0217232 0)
(2.55234e-06 -0.0217232 0)
(2.4689e-06 -0.0217232 0)
(2.38344e-06 -0.0217232 0)
(2.2959e-06 -0.0217231 0)
(2.20621e-06 -0.0217231 0)
(2.11433e-06 -0.0217231 0)
(2.0202e-06 -0.0217231 0)
(1.92377e-06 -0.021723 0)
(1.825e-06 -0.021723 0)
(1.72385e-06 -0.021723 0)
(1.62025e-06 -0.021723 0)
(1.51419e-06 -0.021723 0)
(1.40561e-06 -0.0217229 0)
(1.29448e-06 -0.0217229 0)
(1.18076e-06 -0.0217229 0)
(1.06441e-06 -0.0217229 0)
(9.45417e-07 -0.0217229 0)
(8.23734e-07 -0.0217229 0)
(6.99337e-07 -0.0217228 0)
(5.72204e-07 -0.0217228 0)
(4.42313e-07 -0.0217228 0)
(3.0965e-07 -0.0217228 0)
(1.74206e-07 -0.0217228 0)
(3.59805e-08 -0.0217228 0)
(-1.05018e-07 -0.0217228 0)
(-2.4877e-07 -0.0217228 0)
(-3.95243e-07 -0.0217228 0)
(-5.44388e-07 -0.0217228 0)
(-6.96138e-07 -0.0217228 0)
(-8.50408e-07 -0.0217228 0)
(-1.00709e-06 -0.0217228 0)
(-1.16604e-06 -0.0217228 0)
(-1.3271e-06 -0.0217228 0)
(-1.49009e-06 -0.0217228 0)
(-1.65476e-06 -0.0217228 0)
(-1.82088e-06 -0.0217228 0)
(-1.98813e-06 -0.0217228 0)
(-2.1562e-06 -0.0217228 0)
(-2.32471e-06 -0.0217228 0)
(-2.49327e-06 -0.0217228 0)
(-2.66145e-06 -0.0217228 0)
(-2.82877e-06 -0.0217228 0)
(-2.99475e-06 -0.0217229 0)
(-3.15886e-06 -0.0217229 0)
(-3.32058e-06 -0.0217229 0)
(-3.47934e-06 -0.0217229 0)
(-3.63459e-06 -0.0217229 0)
(-3.78577e-06 -0.021723 0)
(-3.93232e-06 -0.021723 0)
(-4.0737e-06 -0.021723 0)
(-4.2094e-06 -0.0217231 0)
(-4.33894e-06 -0.0217231 0)
(-4.46186e-06 -0.0217231 0)
(-4.57777e-06 -0.0217231 0)
(-4.68633e-06 -0.0217232 0)
(-4.78725e-06 -0.0217232 0)
(-4.88031e-06 -0.0217232 0)
(-4.96538e-06 -0.0217233 0)
(-5.04238e-06 -0.0217233 0)
(-5.11131e-06 -0.0217234 0)
(-5.17225e-06 -0.0217234 0)
(-5.22537e-06 -0.0217234 0)
(-5.2709e-06 -0.0217235 0)
(-5.30913e-06 -0.0217235 0)
(-5.34042e-06 -0.0217236 0)
(-5.36521e-06 -0.0217236 0)
(-5.38395e-06 -0.0217236 0)
(-5.39718e-06 -0.0217237 0)
(-5.40549e-06 -0.0217238 0)
(-5.40948e-06 -0.0217238 0)
)
;

boundaryField
{
    BotWall
    {
        type            fixedValue;
        value           uniform (0 0 0);
    }
    FreeStream
    {
        type            zeroGradient;
    }
    FrontNBack
    {
        type            empty;
    }
    LeftSide
    {
        type            symmetryPlane;
    }
    RightSide
    {
        type            symmetryPlane;
    }
    procBoundary2to0
    {
        type            processor;
        value           nonuniform List<vector> 
75
(
(5.00328e-06 -0.0217146 0)
(4.97815e-06 -0.0217147 0)
(4.95145e-06 -0.0217147 0)
(4.92311e-06 -0.0217148 0)
(4.89307e-06 -0.0217148 0)
(4.86127e-06 -0.0217149 0)
(4.82765e-06 -0.0217149 0)
(4.79217e-06 -0.0217149 0)
(4.75476e-06 -0.021715 0)
(4.71537e-06 -0.021715 0)
(4.67396e-06 -0.021715 0)
(4.63048e-06 -0.0217151 0)
(4.58488e-06 -0.0217151 0)
(4.53712e-06 -0.0217152 0)
(4.48717e-06 -0.0217152 0)
(4.43497e-06 -0.0217152 0)
(4.3805e-06 -0.0217153 0)
(4.32372e-06 -0.0217153 0)
(4.26459e-06 -0.0217153 0)
(4.20309e-06 -0.0217153 0)
(4.13919e-06 -0.0217154 0)
(4.07287e-06 -0.0217154 0)
(4.00409e-06 -0.0217154 0)
(3.93283e-06 -0.0217155 0)
(3.85909e-06 -0.0217155 0)
(3.78283e-06 -0.0217155 0)
(3.70407e-06 -0.0217155 0)
(3.62278e-06 -0.0217156 0)
(3.53897e-06 -0.0217156 0)
(3.45265e-06 -0.0217156 0)
(3.36384e-06 -0.0217156 0)
(3.27256e-06 -0.0217156 0)
(3.17886e-06 -0.0217157 0)
(3.08279e-06 -0.0217157 0)
(2.98441e-06 -0.0217157 0)
(2.88382e-06 -0.0217157 0)
(2.78112e-06 -0.0217157 0)
(2.67642e-06 -0.0217157 0)
(2.56989e-06 -0.0217157 0)
(2.46168e-06 -0.0217157 0)
(2.352e-06 -0.0217157 0)
(2.24107e-06 -0.0217157 0)
(2.12913e-06 -0.0217157 0)
(2.01646e-06 -0.0217157 0)
(1.90335e-06 -0.0217157 0)
(1.79014e-06 -0.0217157 0)
(1.67716e-06 -0.0217157 0)
(1.56479e-06 -0.0217157 0)
(1.45342e-06 -0.0217157 0)
(1.34343e-06 -0.0217157 0)
(1.23526e-06 -0.0217157 0)
(1.1293e-06 -0.0217157 0)
(1.02597e-06 -0.0217156 0)
(9.25697e-07 -0.0217156 0)
(8.28872e-07 -0.0217156 0)
(7.35879e-07 -0.0217156 0)
(6.47079e-07 -0.0217156 0)
(5.62805e-07 -0.0217155 0)
(4.83351e-07 -0.0217155 0)
(4.08974e-07 -0.0217155 0)
(3.39885e-07 -0.0217155 0)
(2.76244e-07 -0.0217154 0)
(2.18161e-07 -0.0217154 0)
(1.65688e-07 -0.0217154 0)
(1.18822e-07 -0.0217153 0)
(7.75019e-08 -0.0217153 0)
(4.16103e-08 -0.0217153 0)
(1.0975e-08 -0.0217152 0)
(-1.46284e-08 -0.0217152 0)
(-3.5472e-08 -0.0217152 0)
(-5.18708e-08 -0.0217151 0)
(-6.41782e-08 -0.0217151 0)
(-7.27901e-08 -0.021715 0)
(-7.81541e-08 -0.021715 0)
(-8.07278e-08 -0.021715 0)
)
;
    }
    procBoundary2to1
    {
        type            processor;
        value           uniform (1.55293e-05 -0.0217039 0);
    }
    procBoundary2to3
    {
        type            processor;
        value           uniform (3.01398e-06 -0.0217234 0);
    }
    procBoundary2to4
    {
        type            processor;
        value           nonuniform List<vector> 
75
(
(2.79903e-07 0.000103252 0)
(8.88574e-07 -0.000292738 0)
(1.50908e-06 0.00120359 0)
(2.39437e-06 -0.00356422 0)
(2.74391e-06 -0.0220473 0)
(4.09746e-06 -0.0306696 0)
(5.67203e-06 -0.0226775 0)
(7.20454e-06 -0.0213197 0)
(8.66541e-06 -0.0214546 0)
(1.00489e-05 -0.0216954 0)
(1.13611e-05 -0.0217538 0)
(1.2605e-05 -0.0217467 0)
(1.37819e-05 -0.0217375 0)
(1.48929e-05 -0.0217352 0)
(1.59393e-05 -0.0217354 0)
(1.69224e-05 -0.0217357 0)
(1.78435e-05 -0.0217357 0)
(1.87042e-05 -0.0217356 0)
(1.95058e-05 -0.0217355 0)
(2.02499e-05 -0.0217355 0)
(2.0938e-05 -0.0217354 0)
(2.15715e-05 -0.0217353 0)
(2.21521e-05 -0.0217352 0)
(2.26814e-05 -0.0217351 0)
(2.3161e-05 -0.021735 0)
(2.35925e-05 -0.0217349 0)
(2.39776e-05 -0.0217348 0)
(2.43179e-05 -0.0217347 0)
(2.46152e-05 -0.0217346 0)
(2.48711e-05 -0.0217345 0)
(2.50872e-05 -0.0217344 0)
(2.52654e-05 -0.0217343 0)
(2.54072e-05 -0.0217342 0)
(2.55144e-05 -0.0217341 0)
(2.55886e-05 -0.021734 0)
(2.56315e-05 -0.0217339 0)
(2.56448e-05 -0.0217338 0)
(2.563e-05 -0.0217337 0)
(2.55888e-05 -0.0217336 0)
(2.55227e-05 -0.0217335 0)
(2.54334e-05 -0.0217334 0)
(2.53223e-05 -0.0217333 0)
(2.5191e-05 -0.0217332 0)
(2.5041e-05 -0.021733 0)
(2.48735e-05 -0.0217329 0)
(2.46902e-05 -0.0217328 0)
(2.44922e-05 -0.0217327 0)
(2.42809e-05 -0.0217326 0)
(2.40576e-05 -0.0217325 0)
(2.38235e-05 -0.0217324 0)
(4.78353e-06 -0.0217223 0)
(4.90023e-06 -0.0217224 0)
(5.01367e-06 -0.0217224 0)
(5.12347e-06 -0.0217225 0)
(5.22924e-06 -0.0217225 0)
(5.33065e-06 -0.0217225 0)
(5.42734e-06 -0.0217226 0)
(5.51902e-06 -0.0217226 0)
(5.60542e-06 -0.0217227 0)
(5.6863e-06 -0.0217227 0)
(5.76148e-06 -0.0217228 0)
(5.8308e-06 -0.0217228 0)
(5.89418e-06 -0.0217229 0)
(5.95158e-06 -0.0217229 0)
(6.00301e-06 -0.021723 0)
(6.04853e-06 -0.021723 0)
(6.08826e-06 -0.0217231 0)
(6.12237e-06 -0.0217231 0)
(6.15108e-06 -0.0217232 0)
(6.17464e-06 -0.0217233 0)
(6.19337e-06 -0.0217233 0)
(6.20758e-06 -0.0217234 0)
(6.21767e-06 -0.0217234 0)
(6.22408e-06 -0.0217235 0)
(6.22725e-06 -0.0217235 0)
)
;
    }
    procBoundary2to5
    {
        type            processor;
        value           nonuniform List<vector> 
50
(
(-2.95228e-07 -0.0217225 0)
(-2.35353e-07 -0.0217224 0)
(-1.73978e-07 -0.0217224 0)
(-1.11056e-07 -0.0217224 0)
(-4.65351e-08 -0.0217223 0)
(1.96299e-08 -0.0217223 0)
(8.74833e-08 -0.0217223 0)
(1.57066e-07 -0.0217223 0)
(2.28418e-07 -0.0217223 0)
(3.01574e-07 -0.0217222 0)
(3.76567e-07 -0.0217222 0)
(4.53427e-07 -0.0217222 0)
(5.32182e-07 -0.0217222 0)
(6.12857e-07 -0.0217222 0)
(6.95474e-07 -0.0217221 0)
(7.80052e-07 -0.0217221 0)
(8.66608e-07 -0.0217221 0)
(9.55157e-07 -0.0217221 0)
(1.04571e-06 -0.0217221 0)
(1.13828e-06 -0.0217221 0)
(1.23287e-06 -0.0217221 0)
(1.32949e-06 -0.021722 0)
(1.42813e-06 -0.021722 0)
(1.52881e-06 -0.021722 0)
(1.63151e-06 -0.021722 0)
(1.73622e-06 -0.021722 0)
(1.84294e-06 -0.021722 0)
(1.95164e-06 -0.021722 0)
(2.06231e-06 -0.021722 0)
(2.1749e-06 -0.021722 0)
(2.28939e-06 -0.021722 0)
(2.40572e-06 -0.021722 0)
(2.52383e-06 -0.021722 0)
(2.64365e-06 -0.021722 0)
(2.7651e-06 -0.021722 0)
(2.88807e-06 -0.021722 0)
(3.01243e-06 -0.021722 0)
(3.13806e-06 -0.021722 0)
(3.2648e-06 -0.0217221 0)
(3.39245e-06 -0.0217221 0)
(3.52083e-06 -0.0217221 0)
(3.6497e-06 -0.0217221 0)
(3.77882e-06 -0.0217221 0)
(3.90792e-06 -0.0217221 0)
(4.03669e-06 -0.0217222 0)
(4.16482e-06 -0.0217222 0)
(4.29197e-06 -0.0217222 0)
(4.4178e-06 -0.0217222 0)
(4.54192e-06 -0.0217223 0)
(4.66396e-06 -0.0217223 0)
)
;
    }
}


// ************************************************************************* //
