/*--------------------------------*- C++ -*----------------------------------*\
| =========                 |                                                 |
| \\      /  F ield         | OpenFOAM: The Open Source CFD Toolbox           |
|  \\    /   O peration     | Version:  2.4.0                                 |
|   \\  /    A nd           | Web:      www.OpenFOAM.org                      |
|    \\/     M anipulation  |                                                 |
\*---------------------------------------------------------------------------*/
FoamFile
{
    version     2.0;
    format      ascii;
    class       volVectorField;
    location    "3.7";
    object      U;
}
// * * * * * * * * * * * * * * * * * * * * * * * * * * * * * * * * * * * * * //

dimensions      [0 1 -1 0 0 0 0];

internalField   nonuniform List<vector> 
125
(
(8.92209e-08 -0.00104777 0)
(1.94746e-07 -0.0010478 0)
(4.63726e-08 -0.00104784 0)
(-2.06958e-07 -0.00104782 0)
(-1.45992e-07 -0.00104777 0)
(8.49886e-08 -0.00106811 0)
(1.85533e-07 -0.00106812 0)
(4.41465e-08 -0.00106814 0)
(-1.96837e-07 -0.00106813 0)
(-1.38568e-07 -0.00106811 0)
(8.09134e-08 -0.00108979 0)
(1.76687e-07 -0.0010898 0)
(4.20271e-08 -0.00108981 0)
(-1.87121e-07 -0.0010898 0)
(-1.31457e-07 -0.00108979 0)
(7.68945e-08 -0.00109388 0)
(1.68023e-07 -0.00109389 0)
(3.99726e-08 -0.0010939 0)
(-1.7761e-07 -0.00109389 0)
(-1.24506e-07 -0.00109388 0)
(7.29542e-08 -0.00109284 0)
(1.59548e-07 -0.00109284 0)
(3.79763e-08 -0.00109285 0)
(-1.68313e-07 -0.00109285 0)
(-1.17727e-07 -0.00109284 0)
(6.91142e-08 -0.00109198 0)
(1.51289e-07 -0.00109198 0)
(3.604e-08 -0.00109199 0)
(-1.59257e-07 -0.00109198 0)
(-1.11145e-07 -0.00109198 0)
(6.53783e-08 -0.00109181 0)
(1.43254e-07 -0.00109181 0)
(3.41649e-08 -0.00109181 0)
(-1.5045e-07 -0.00109181 0)
(-1.04763e-07 -0.00109181 0)
(6.17441e-08 -0.00109186 0)
(1.35441e-07 -0.00109185 0)
(3.23504e-08 -0.00109185 0)
(-1.41889e-07 -0.00109186 0)
(-9.85793e-08 -0.00109186 0)
(5.82103e-08 -0.0010919 0)
(1.27847e-07 -0.00109189 0)
(3.05959e-08 -0.00109189 0)
(-1.33572e-07 -0.00109189 0)
(-9.259e-08 -0.0010919 0)
(5.47767e-08 -0.0010919 0)
(1.20473e-07 -0.0010919 0)
(2.89004e-08 -0.00109189 0)
(-1.255e-07 -0.0010919 0)
(-8.67935e-08 -0.00109191 0)
(5.14434e-08 -0.0010919 0)
(1.13316e-07 -0.00109189 0)
(2.72633e-08 -0.00109189 0)
(-1.17671e-07 -0.00109189 0)
(-8.11885e-08 -0.00109191 0)
(4.82103e-08 -0.0010919 0)
(1.06378e-07 -0.00109189 0)
(2.56838e-08 -0.00109188 0)
(-1.10084e-07 -0.00109189 0)
(-7.57735e-08 -0.00109191 0)
(4.50773e-08 -0.00109191 0)
(9.96574e-08 -0.00109189 0)
(2.41611e-08 -0.00109188 0)
(-1.02739e-07 -0.00109189 0)
(-7.05468e-08 -0.00109191 0)
(4.2044e-08 -0.00109191 0)
(9.31529e-08 -0.00109189 0)
(2.26945e-08 -0.00109188 0)
(-9.56357e-08 -0.00109189 0)
(-6.55065e-08 -0.00109191 0)
(3.91102e-08 -0.00109191 0)
(8.6864e-08 -0.00109189 0)
(2.12831e-08 -0.00109188 0)
(-8.87719e-08 -0.00109189 0)
(-6.06508e-08 -0.00109191 0)
(3.62755e-08 -0.00109191 0)
(8.07894e-08 -0.00109189 0)
(1.99261e-08 -0.00109188 0)
(-8.21467e-08 -0.00109189 0)
(-5.59778e-08 -0.00109191 0)
(3.35395e-08 -0.00109191 0)
(7.49281e-08 -0.00109189 0)
(1.86226e-08 -0.00109187 0)
(-7.57587e-08 -0.00109189 0)
(-5.14854e-08 -0.00109191 0)
(3.09017e-08 -0.00109191 0)
(6.92787e-08 -0.00109189 0)
(1.73718e-08 -0.00109187 0)
(-6.96066e-08 -0.00109189 0)
(-4.71717e-08 -0.00109192 0)
(2.83617e-08 -0.00109191 0)
(6.384e-08 -0.00109189 0)
(1.61728e-08 -0.00109187 0)
(-6.36887e-08 -0.00109188 0)
(-4.30344e-08 -0.00109192 0)
(2.59188e-08 -0.00109191 0)
(5.86102e-08 -0.00109189 0)
(1.50247e-08 -0.00109187 0)
(-5.80032e-08 -0.00109188 0)
(-3.90713e-08 -0.00109192 0)
(2.35725e-08 -0.00109192 0)
(5.35879e-08 -0.00109189 0)
(1.39266e-08 -0.00109187 0)
(-5.25483e-08 -0.00109188 0)
(-3.52802e-08 -0.00109192 0)
(2.1322e-08 -0.00109192 0)
(4.87712e-08 -0.00109189 0)
(1.28775e-08 -0.00109187 0)
(-4.73219e-08 -0.00109188 0)
(-3.16586e-08 -0.00109192 0)
(1.91666e-08 -0.00109192 0)
(4.41583e-08 -0.00109189 0)
(1.18765e-08 -0.00109187 0)
(-4.23219e-08 -0.00109188 0)
(-2.82041e-08 -0.00109192 0)
(1.71054e-08 -0.00109192 0)
(3.97471e-08 -0.00109189 0)
(1.09227e-08 -0.00109187 0)
(-3.75461e-08 -0.00109188 0)
(-2.49143e-08 -0.00109192 0)
(1.51377e-08 -0.00109192 0)
(3.55356e-08 -0.00109189 0)
(1.0015e-08 -0.00109186 0)
(-3.29916e-08 -0.00109188 0)
(-2.17863e-08 -0.00109192 0)
)
;

boundaryField
{
    BotWall
    {
        type            fixedValue;
        value           nonuniform 0();
    }
    FreeStream
    {
        type            zeroGradient;
    }
    FrontNBack
    {
        type            empty;
    }
    LeftSide
    {
        type            symmetryPlane;
    }
    RightSide
    {
        type            symmetryPlane;
    }
    procBoundary1to0
    {
        type            processor;
        value           nonuniform List<vector> 5((9.38841e-08 -0.00112592 0) (2.04702e-07 -0.00112599 0) (4.87525e-08 -0.00112604 0) (-2.17871e-07 -0.00112602 0) (-1.54066e-07 -0.00112591 0));
    }
    procBoundary1to2
    {
        type            processor;
        value           nonuniform List<vector> 5((1.32625e-08 -0.00109192 0) (3.15214e-08 -0.00109189 0) (9.1526e-09 -0.00109186 0) (-2.86562e-08 -0.00109188 0) (-1.88178e-08 -0.00109192 0));
    }
}


// ************************************************************************* //
