/*--------------------------------*- C++ -*----------------------------------*\
| =========                 |                                                 |
| \\      /  F ield         | OpenFOAM: The Open Source CFD Toolbox           |
|  \\    /   O peration     | Version:  2.4.0                                 |
|   \\  /    A nd           | Web:      www.OpenFOAM.org                      |
|    \\/     M anipulation  |                                                 |
\*---------------------------------------------------------------------------*/
FoamFile
{
    version     2.0;
    format      ascii;
    class       volScalarField;
    location    "0.007";
    object      p_rgh;
}
// * * * * * * * * * * * * * * * * * * * * * * * * * * * * * * * * * * * * * //

dimensions      [1 -1 -2 0 0 0 0];

internalField   nonuniform List<scalar> 
125
(
-0.0181042
-0.0180755
-0.0180465
-0.0180175
-0.0179884
-0.0179591
-0.0179298
-0.0179004
-0.0178708
-0.0178411
-0.0178113
-0.0177815
-0.0177515
-0.0177214
-0.0176912
-0.0176608
-0.0176304
-0.0175999
-0.0175692
-0.0175384
-0.0175076
-0.0174766
-0.0174455
-0.0174143
-0.0173829
-0.0173515
-0.0173199
-0.0172883
-0.0172565
-0.0172246
-0.0171925
-0.0171604
-0.0171281
-0.0170958
-0.0170633
-0.0170307
-0.0169979
-0.0169651
-0.0169321
-0.016899
-0.0168658
-0.0168325
-0.016799
-0.0167655
-0.0167318
-0.0166979
-0.016664
-0.0166299
-0.0165957
-0.0165614
-0.016527
-0.0164924
-0.0164577
-0.0164229
-0.0163879
-0.0163529
-0.0163177
-0.0162823
-0.0162469
-0.0162113
-0.0161756
-0.0161397
-0.0161037
-0.0160676
-0.0160313
-0.015995
-0.0159585
-0.0159218
-0.015885
-0.0158481
-0.0158111
-0.0157739
-0.0157365
-0.0156991
-0.0156615
-0.0156237
-0.0155859
-0.0155479
-0.0155097
-0.0154714
-0.015433
-0.0153944
-0.0153557
-0.0153168
-0.0152778
-0.0152387
-0.0151994
-0.01516
-0.0151204
-0.0150807
-0.0150408
-0.0150008
-0.0149607
-0.0149204
-0.0148799
-0.0148393
-0.0147986
-0.0147577
-0.0147166
-0.0146754
-0.0146341
-0.0145926
-0.0145509
-0.0145091
-0.0144672
-0.0144251
-0.0143828
-0.0143404
-0.0142978
-0.0142551
-0.0142122
-0.0141691
-0.0141259
-0.0140826
-0.0140391
-0.0139954
-0.0139515
-0.0139075
-0.0138634
-0.0138191
-0.0137746
-0.0137299
-0.0136851
-0.0136401
-0.0135949
)
;

boundaryField
{
    BotWall
    {
        type            fixedFluxPressure;
        gradient        nonuniform 0();
        value           nonuniform 0();
    }
    FreeStream
    {
        type            totalPressure;
        rho             rho;
        psi             none;
        gamma           1;
        p0              nonuniform 0();
        value           nonuniform 0();
    }
    FrontNBack
    {
        type            empty;
    }
    LeftSide
    {
        type            symmetryPlane;
    }
    RightSide
    {
        type            symmetryPlane;
    }
    procBoundary6to3
    {
        type            processor;
        value           nonuniform List<scalar> 
50
(
-0.015622
-0.0155842
-0.0155462
-0.015508
-0.0154697
-0.0154313
-0.0153927
-0.015354
-0.0153152
-0.0152762
-0.0152371
-0.0151978
-0.0151584
-0.0151188
-0.0150791
-0.0150392
-0.0149992
-0.0149591
-0.0149188
-0.0148783
-0.0148377
-0.014797
-0.0147561
-0.014715
-0.0146738
-0.0146325
-0.014591
-0.0145494
-0.0145076
-0.0144656
-0.0144235
-0.0143812
-0.0143388
-0.0142962
-0.0142535
-0.0142106
-0.0141676
-0.0141244
-0.014081
-0.0140375
-0.0139938
-0.01395
-0.0139059
-0.0138618
-0.0138175
-0.013773
-0.0137283
-0.0136835
-0.0136385
-0.0135934
)
;
    }
    procBoundary6to4
    {
        type            processor;
        value           nonuniform List<scalar> 
75
(
-0.0180974
-0.0180687
-0.0180398
-0.0180109
-0.0179819
-0.0179528
-0.0179235
-0.0178942
-0.0178647
-0.0178351
-0.0178054
-0.0177757
-0.0177458
-0.0177157
-0.0176856
-0.0176554
-0.0176251
-0.0175946
-0.017564
-0.0175333
-0.0175026
-0.0174717
-0.0174406
-0.0174095
-0.0173782
-0.0173469
-0.0173154
-0.0172838
-0.0172521
-0.0172203
-0.0171883
-0.0171562
-0.0171241
-0.0170918
-0.0170593
-0.0170268
-0.0169941
-0.0169614
-0.0169285
-0.0168954
-0.0168623
-0.016829
-0.0167956
-0.0167621
-0.0167285
-0.0166947
-0.0166609
-0.0166268
-0.0165927
-0.0165585
-0.0165241
-0.0164896
-0.0164549
-0.0164202
-0.0163853
-0.0163502
-0.0163151
-0.0162798
-0.0162444
-0.0162089
-0.0161732
-0.0161374
-0.0161015
-0.0160654
-0.0160292
-0.0159929
-0.0159564
-0.0159198
-0.0158831
-0.0158462
-0.0158092
-0.015772
-0.0157348
-0.0156973
-0.0156597
)
;
    }
    procBoundary6to5
    {
        type            processor;
        value           uniform -0.0135496;
    }
    procBoundary6to7
    {
        type            processor;
        value           uniform -0.0181329;
    }
    procBoundary6to8
    {
        type            processor;
        value           nonuniform List<scalar> 
75
(
-0.0165172
-0.0164827
-0.0164481
-0.0164133
-0.0163784
-0.0163434
-0.0163082
-0.016273
-0.0162375
-0.016202
-0.0161663
-0.0161305
-0.0160946
-0.0160585
-0.0160223
-0.015986
-0.0159495
-0.0159129
-0.0158762
-0.0158393
-0.0158023
-0.0157651
-0.0157279
-0.0156904
-0.0156529
-0.0156152
-0.0155774
-0.0155394
-0.0155013
-0.015463
-0.0154246
-0.0153861
-0.0153474
-0.0153086
-0.0152697
-0.0152306
-0.0151913
-0.0151519
-0.0151124
-0.0150727
-0.0150329
-0.0149929
-0.0149528
-0.0149125
-0.0148721
-0.0148316
-0.0147909
-0.01475
-0.014709
-0.0146678
-0.0146265
-0.0145851
-0.0145434
-0.0145017
-0.0144597
-0.0144177
-0.0143754
-0.0143331
-0.0142905
-0.0142478
-0.014205
-0.0141619
-0.0141188
-0.0140754
-0.0140319
-0.0139883
-0.0139445
-0.0139005
-0.0138564
-0.0138121
-0.0137676
-0.013723
-0.0136782
-0.0136333
-0.0135882
)
;
    }
    procBoundary6to9
    {
        type            processor;
        value           nonuniform List<scalar> 
50
(
-0.0180882
-0.0180595
-0.0180308
-0.0180019
-0.0179729
-0.0179438
-0.0179146
-0.0178853
-0.0178559
-0.0178264
-0.0177967
-0.017767
-0.0177371
-0.0177072
-0.0176771
-0.0176469
-0.0176166
-0.0175862
-0.0175557
-0.0175251
-0.0174943
-0.0174634
-0.0174325
-0.0174014
-0.0173702
-0.0173389
-0.0173074
-0.0172759
-0.0172442
-0.0172125
-0.0171806
-0.0171485
-0.0171164
-0.0170842
-0.0170518
-0.0170193
-0.0169867
-0.016954
-0.0169211
-0.0168881
-0.016855
-0.0168218
-0.0167885
-0.016755
-0.0167215
-0.0166877
-0.0166539
-0.01662
-0.0165859
-0.0165516
)
;
    }
}


// ************************************************************************* //
