/*--------------------------------*- C++ -*----------------------------------*\
| =========                 |                                                 |
| \\      /  F ield         | OpenFOAM: The Open Source CFD Toolbox           |
|  \\    /   O peration     | Version:  2.4.0                                 |
|   \\  /    A nd           | Web:      www.OpenFOAM.org                      |
|    \\/     M anipulation  |                                                 |
\*---------------------------------------------------------------------------*/
FoamFile
{
    version     2.0;
    format      ascii;
    class       surfaceScalarField;
    location    "0.007";
    object      phi;
}
// * * * * * * * * * * * * * * * * * * * * * * * * * * * * * * * * * * * * * //

dimensions      [0 3 -1 0 0 0 0];

internalField   nonuniform List<scalar> 
124
(
-6.29636e-09
-6.29632e-09
-6.29627e-09
-6.29623e-09
-6.29618e-09
-6.29613e-09
-6.29609e-09
-6.29604e-09
-6.29599e-09
-6.29595e-09
-6.2959e-09
-6.29585e-09
-6.2958e-09
-6.29575e-09
-6.29571e-09
-6.29566e-09
-6.29561e-09
-6.29556e-09
-6.29552e-09
-6.29547e-09
-6.29542e-09
-6.29538e-09
-6.29533e-09
-6.29528e-09
-6.29524e-09
-6.29519e-09
-6.29515e-09
-6.2951e-09
-6.29505e-09
-6.29501e-09
-6.29497e-09
-6.29492e-09
-6.29488e-09
-6.29483e-09
-6.29479e-09
-6.29475e-09
-6.2947e-09
-6.29466e-09
-6.29462e-09
-6.29458e-09
-6.29454e-09
-6.2945e-09
-6.29445e-09
-6.29441e-09
-6.29437e-09
-6.29433e-09
-6.29429e-09
-6.29425e-09
-6.29421e-09
-6.29417e-09
-6.29414e-09
-6.2941e-09
-6.29406e-09
-6.29402e-09
-6.29398e-09
-6.29394e-09
-6.29391e-09
-6.29387e-09
-6.29383e-09
-6.2938e-09
-6.29376e-09
-6.29372e-09
-6.29369e-09
-6.29365e-09
-6.29362e-09
-6.29358e-09
-6.29355e-09
-6.29351e-09
-6.29348e-09
-6.29344e-09
-6.29341e-09
-6.29337e-09
-6.29334e-09
-6.29331e-09
-6.29327e-09
-6.29324e-09
-6.29321e-09
-6.29317e-09
-6.29314e-09
-6.29311e-09
-6.29307e-09
-6.29304e-09
-6.29301e-09
-6.29298e-09
-6.29295e-09
-6.29292e-09
-6.29288e-09
-6.29285e-09
-6.29282e-09
-6.29279e-09
-6.29276e-09
-6.29273e-09
-6.2927e-09
-6.29267e-09
-6.29264e-09
-6.29261e-09
-6.29258e-09
-6.29255e-09
-6.29252e-09
-6.29249e-09
-6.29247e-09
-6.29244e-09
-6.29241e-09
-6.29238e-09
-6.29235e-09
-6.29232e-09
-6.2923e-09
-6.29227e-09
-6.29224e-09
-6.29221e-09
-6.29219e-09
-6.29216e-09
-6.29213e-09
-6.29211e-09
-6.29208e-09
-6.29205e-09
-6.29203e-09
-6.292e-09
-6.29197e-09
-6.29195e-09
-6.29192e-09
-6.2919e-09
-6.29187e-09
-6.29185e-09
)
;

boundaryField
{
    BotWall
    {
        type            calculated;
        value           nonuniform 0();
    }
    FreeStream
    {
        type            calculated;
        value           nonuniform 0();
    }
    FrontNBack
    {
        type            empty;
        value           nonuniform 0();
    }
    LeftSide
    {
        type            symmetryPlane;
        value           nonuniform 0();
    }
    RightSide
    {
        type            symmetryPlane;
        value           nonuniform 0();
    }
    procBoundary6to3
    {
        type            processor;
        value           nonuniform List<scalar> 
50
(
-3.15638e-15
-3.19436e-15
-3.23283e-15
-3.27178e-15
-3.31117e-15
-3.35097e-15
-3.39114e-15
-3.43167e-15
-3.47251e-15
-3.51363e-15
-3.555e-15
-3.5966e-15
-3.63838e-15
-3.68031e-15
-3.72237e-15
-3.76452e-15
-3.80672e-15
-3.84895e-15
-3.89117e-15
-3.93334e-15
-3.97544e-15
-4.01744e-15
-4.05929e-15
-4.10097e-15
-4.14245e-15
-4.18369e-15
-4.22466e-15
-4.26533e-15
-4.30568e-15
-4.34565e-15
-4.38524e-15
-4.42441e-15
-4.46312e-15
-4.50135e-15
-4.53908e-15
-4.57627e-15
-4.61289e-15
-4.64893e-15
-4.68435e-15
-4.71913e-15
-4.75324e-15
-4.78667e-15
-4.81938e-15
-4.85136e-15
-4.88259e-15
-4.91304e-15
-4.9427e-15
-4.97154e-15
-4.99954e-15
-5.02669e-15
)
;
    }
    procBoundary6to4
    {
        type            processor;
        value           nonuniform List<scalar> 
75
(
-2.31009e-15
-2.33965e-15
-2.36549e-15
-2.38783e-15
-2.40688e-15
-2.42285e-15
-2.43595e-15
-2.44639e-15
-2.45436e-15
-2.46006e-15
-2.46369e-15
-2.46544e-15
-2.46549e-15
-2.46402e-15
-2.46121e-15
-2.45723e-15
-2.45225e-15
-2.44641e-15
-2.43988e-15
-2.43281e-15
-2.42532e-15
-2.41756e-15
-2.40965e-15
-2.40171e-15
-2.39385e-15
-2.38619e-15
-2.37882e-15
-2.37184e-15
-2.36535e-15
-2.35942e-15
-2.35412e-15
-2.34954e-15
-2.34574e-15
-2.34276e-15
-2.34068e-15
-2.33952e-15
-2.33935e-15
-2.34018e-15
-2.34206e-15
-2.34502e-15
-2.34907e-15
-2.35424e-15
-2.36054e-15
-2.36798e-15
-2.37658e-15
-2.38633e-15
-2.39724e-15
-2.40931e-15
-2.42253e-15
-2.4369e-15
-2.45242e-15
-2.46906e-15
-2.48682e-15
-2.50569e-15
-2.52563e-15
-2.54665e-15
-2.56871e-15
-2.59181e-15
-2.61591e-15
-2.641e-15
-2.66705e-15
-2.69405e-15
-2.72196e-15
-2.75076e-15
-2.78043e-15
-2.81095e-15
-2.84227e-15
-2.87438e-15
-2.90726e-15
-2.94086e-15
-2.97517e-15
-3.01016e-15
-3.04581e-15
-3.08208e-15
-3.11895e-15
)
;
    }
    procBoundary6to5
    {
        type            processor;
        value           uniform -6.29182e-09;
    }
    procBoundary6to7
    {
        type            processor;
        value           uniform 6.29641e-09;
    }
    procBoundary6to8
    {
        type            processor;
        value           nonuniform List<scalar> 
75
(
-3.64299e-14
-3.61577e-14
-3.58876e-14
-3.56197e-14
-3.5354e-14
-3.50905e-14
-3.4829e-14
-3.45696e-14
-3.43123e-14
-3.40568e-14
-3.38032e-14
-3.35515e-14
-3.33015e-14
-3.30531e-14
-3.28064e-14
-3.25612e-14
-3.23175e-14
-3.20752e-14
-3.18343e-14
-3.15946e-14
-3.13562e-14
-3.11189e-14
-3.08828e-14
-3.06478e-14
-3.04138e-14
-3.01808e-14
-2.99488e-14
-2.97177e-14
-2.94876e-14
-2.92583e-14
-2.90299e-14
-2.88024e-14
-2.85758e-14
-2.83499e-14
-2.8125e-14
-2.79008e-14
-2.76775e-14
-2.74551e-14
-2.72335e-14
-2.70127e-14
-2.67928e-14
-2.65739e-14
-2.63558e-14
-2.61386e-14
-2.59224e-14
-2.57071e-14
-2.54929e-14
-2.52796e-14
-2.50673e-14
-2.4856e-14
-2.46458e-14
-2.44367e-14
-2.42287e-14
-2.40218e-14
-2.3816e-14
-2.36114e-14
-2.3408e-14
-2.32058e-14
-2.30049e-14
-2.28052e-14
-2.26067e-14
-2.24095e-14
-2.22136e-14
-2.2019e-14
-2.18258e-14
-2.16338e-14
-2.14432e-14
-2.1254e-14
-2.10661e-14
-2.08796e-14
-2.06944e-14
-2.05107e-14
-2.03283e-14
-2.01472e-14
-1.99676e-14
)
;
    }
    procBoundary6to9
    {
        type            processor;
        value           nonuniform List<scalar> 
50
(
-4.189e-14
-4.24793e-14
-4.30013e-14
-4.34597e-14
-4.38582e-14
-4.42001e-14
-4.44888e-14
-4.47275e-14
-4.49194e-14
-4.50674e-14
-4.51743e-14
-4.52429e-14
-4.5276e-14
-4.52758e-14
-4.5245e-14
-4.51858e-14
-4.51004e-14
-4.49909e-14
-4.48593e-14
-4.47074e-14
-4.45372e-14
-4.43503e-14
-4.41483e-14
-4.39327e-14
-4.3705e-14
-4.34664e-14
-4.32183e-14
-4.29618e-14
-4.2698e-14
-4.24279e-14
-4.21525e-14
-4.18726e-14
-4.1589e-14
-4.13024e-14
-4.10136e-14
-4.07232e-14
-4.04316e-14
-4.01394e-14
-3.9847e-14
-3.95549e-14
-3.92633e-14
-3.89727e-14
-3.86831e-14
-3.8395e-14
-3.81085e-14
-3.78237e-14
-3.75408e-14
-3.72599e-14
-3.69811e-14
-3.67044e-14
)
;
    }
}


// ************************************************************************* //
