/*--------------------------------*- C++ -*----------------------------------*\
| =========                 |                                                 |
| \\      /  F ield         | OpenFOAM: The Open Source CFD Toolbox           |
|  \\    /   O peration     | Version:  2.4.0                                 |
|   \\  /    A nd           | Web:      www.OpenFOAM.org                      |
|    \\/     M anipulation  |                                                 |
\*---------------------------------------------------------------------------*/
FoamFile
{
    version     2.0;
    format      ascii;
    class       volScalarField;
    location    "4.3";
    object      alpha1;
}
// * * * * * * * * * * * * * * * * * * * * * * * * * * * * * * * * * * * * * //

dimensions      [0 0 0 0 0 0 0];

internalField   nonuniform List<scalar> 
8000
(
1
1
0.999999
0.999998
0.999998
0.999998
0.999998
0.999998
0.999998
0.999998
0.999998
0.999998
0.999998
0.999998
0.999998
0.999996
0.999995
0.999993
0.999987
0.999909
0.999806
0.99979
0.999895
0.999988
0.999989
0.999883
0.999522
0.998417
0.996246
0.995612
0.995612
0.997178
0.998218
0.998319
0.999977
0.941428
0.613909
0.316497
0.136138
0.0463403
0.014477
0.00424706
0.00113492
0.000263328
4.90539e-05
6.51499e-06
6.51712e-07
4.79316e-08
3.34213e-08
2.02463e-08
1
1
0.999999
0.999998
0.999998
0.999998
0.999998
0.999998
0.999998
0.999998
0.999998
0.999998
0.999998
0.999998
0.999999
0.999999
0.999999
0.999999
0.999999
0.999999
0.999999
0.999999
0.999998
0.999998
0.999997
0.999997
0.999996
0.999996
0.999996
0.999996
0.999996
0.999998
0.999998
0.999995
0.999995
0.999993
0.999975
0.945509
0.814131
0.345664
0.0683132
0.0178297
0.00536306
0.00127551
0.000207366
2.23328e-05
1.69188e-06
5.77501e-08
3.30095e-08
1.93829e-08
1
1
0.999999
0.999998
0.999997
0.999997
0.999998
0.999997
0.999997
0.999997
0.999997
0.999998
0.999998
0.999998
0.999999
0.999999
0.999999
0.999998
0.999998
0.999998
0.999998
0.999998
0.999998
0.999998
0.999998
0.999998
0.999998
0.999995
0.999997
0.999993
0.99999
0.999998
0.999993
0.998793
0.951023
0.828818
0.636194
0.226257
0.0326709
0.0182403
0.0063841
0.00377615
0.00140128
0.00035453
6.50666e-05
8.32139e-06
5.76578e-07
4.27638e-08
2.48903e-08
1.5085e-08
1
1
0.999999
0.999998
0.999997
0.999997
0.999997
0.999997
0.999997
0.999997
0.999997
0.999997
0.999998
0.999998
0.999998
0.999998
0.999998
0.999997
0.999997
0.999997
0.999997
0.999996
0.999996
0.999996
0.999996
0.999996
0.999996
0.999994
0.999994
0.999994
0.99999
0.963889
0.859193
0.693056
0.433477
0.137944
0.0268621
0.00678359
0.00216587
0.00110766
0.00095024
0.000542726
0.000158984
3.7516e-05
7.67951e-06
1.20048e-06
1.57291e-07
3.00511e-08
1.82323e-08
1.13259e-08
1
1
0.999999
0.999998
0.999997
0.999997
0.999997
0.999997
0.999997
0.999996
0.999996
0.999996
0.999997
0.999997
0.999997
0.999997
0.999997
0.999996
0.999995
0.999995
0.999995
0.999995
0.999996
0.999997
0.999999
0.999999
0.999998
0.999998
0.999998
0.968177
0.807023
0.524161
0.228857
0.072355
0.0213167
0.00564868
0.00116713
0.000353411
0.000168612
0.000102152
0.000138909
4.28683e-05
9.2027e-06
1.85151e-06
3.34214e-07
1.74803e-07
8.83797e-08
2.23968e-08
1.40014e-08
8.78611e-09
1
1
0.999999
0.999998
0.999997
0.999997
0.999997
0.999997
0.999996
0.999996
0.999996
0.999996
0.999996
0.999996
0.999996
0.999996
0.999995
0.999995
0.999995
0.999995
0.999995
0.999995
0.999995
0.999996
0.999996
0.999998
0.999998
0.999944
0.945561
0.504152
0.100962
0.0290098
0.0134471
0.00498029
0.00121104
0.0002249
3.26576e-05
4.51308e-06
5.26508e-06
7.70121e-06
1.24829e-05
1.30606e-06
4.22543e-07
2.09333e-07
2.33894e-07
1.26604e-07
6.19732e-08
1.88693e-08
1.20168e-08
7.58574e-09
1
1
0.999999
0.999998
0.999998
0.999997
0.999997
0.999997
0.999996
0.999996
0.999998
0.999996
0.999996
0.999995
0.999995
0.999995
0.999995
0.999995
0.999995
0.999994
0.999995
0.999996
0.999996
0.999996
0.999998
0.999999
0.999964
0.999442
0.586808
0.0858153
0.00915562
0.00397062
0.00209552
0.000872868
0.000243284
3.74461e-05
2.48728e-06
2.01863e-06
2.01822e-06
1.11282e-06
7.09336e-07
8.16976e-07
3.23405e-07
1.92875e-07
2.09922e-07
1.18062e-07
5.95909e-08
1.89278e-08
1.21664e-08
7.83405e-09
1
0.999999
0.999998
0.999998
0.999997
0.999997
0.999997
0.999997
0.999997
0.999997
0.999997
0.999997
0.999996
0.999996
0.999996
0.999996
0.999997
0.999996
0.999995
0.999994
0.999995
0.999997
0.999999
0.999998
1
0.999998
0.9999
1.00068
0.809459
0.26064
0.0511579
0.00939739
0.00241857
0.000831495
0.000333872
0.000146748
6.4181e-05
2.30553e-05
6.20877e-06
1.24978e-06
5.60891e-07
4.75638e-07
2.70564e-07
2.18585e-07
2.06402e-07
1.52434e-07
9.63748e-08
4.99082e-08
2.71979e-08
1.56098e-08
1
1
0.999999
0.999998
0.999997
0.999996
0.999998
0.999997
0.999997
0.999997
0.999997
0.999997
0.999997
0.999997
0.999997
0.999997
0.999997
0.999997
0.999997
0.999997
0.999997
0.999999
1
1
1.00001
1.00001
1.00001
1.00003
0.999886
0.998909
0.686042
0.263004
0.0938457
0.034154
0.0127781
0.00536646
0.00261191
0.00132126
0.00060596
0.00022603
5.9743e-05
1.21991e-05
2.27393e-06
3.0306e-07
2.0801e-07
1.48742e-07
1.03315e-07
8.07691e-08
5.85292e-08
4.05991e-08
1
1
0.999998
0.999997
0.999996
0.999996
0.999997
0.999998
0.999998
0.999998
0.999998
0.999998
0.999998
0.999998
0.999998
0.999998
0.999998
0.999998
0.999998
0.999998
0.999998
0.999998
0.999998
0.999999
0.999999
0.999999
0.999999
1
1
0.999998
1.00009
0.949497
0.707046
0.407058
0.211009
0.109362
0.0596529
0.0344699
0.0203971
0.0113484
0.00530816
0.00192056
0.000492456
9.67154e-05
1.83449e-05
3.74189e-06
8.21629e-07
1.12781e-07
7.88605e-08
6.4026e-08
1
0.999999
0.999998
0.999996
0.999996
0.999997
0.999997
0.999998
0.999998
0.999998
0.999998
0.999998
0.999998
0.999998
0.999998
0.999999
0.999999
0.999999
0.999999
0.999999
0.999999
0.999999
0.999999
0.999999
0.999999
0.999999
0.999999
1
1
1
1
0.999997
0.999945
0.932005
0.753685
0.542677
0.372542
0.259036
0.184458
0.123486
0.0688761
0.0311365
0.0120061
0.0039634
0.00104094
0.000205956
3.53677e-05
5.21557e-06
7.20539e-07
6.99442e-08
1
0.999999
0.999997
0.999996
0.999996
0.999997
0.999998
0.999998
0.999999
0.999999
0.999999
0.999999
0.999999
0.999999
0.999999
0.999999
0.999999
0.999999
0.999999
0.999999
0.999999
0.999998
0.999999
0.999999
0.999999
0.999999
0.999999
0.999999
0.999999
0.999999
0.999999
0.999998
0.999998
0.999988
0.949302
0.840412
0.702277
0.567612
0.439972
0.298702
0.161068
0.0709097
0.0289124
0.0121665
0.00543331
0.00218592
0.000645699
0.000137269
2.36059e-05
3.26052e-06
1
0.999999
0.999997
0.999996
0.999997
0.999998
0.999998
0.999999
0.999999
0.999999
0.999999
0.999999
0.999999
0.999999
0.999999
0.999999
0.999999
0.999999
0.999999
0.999999
0.999999
0.999998
0.999998
0.999998
0.999998
0.999998
0.999998
0.999998
0.999999
0.999999
0.999996
0.999975
0.999923
0.98065
0.918949
0.831718
0.722365
0.601646
0.461456
0.296315
0.146684
0.0606543
0.0244613
0.0110832
0.00608519
0.00381075
0.00227261
0.00102164
0.000305442
6.58441e-05
1
0.999999
0.999997
0.999996
0.999997
0.999998
0.999999
0.999999
0.999999
0.999999
0.999999
0.999999
0.999999
0.999999
0.999999
0.999999
0.999999
0.999999
0.999999
0.999999
0.999998
0.999998
0.999998
0.999998
0.999998
0.999998
0.999998
0.999978
0.999927
0.999629
0.967147
0.907738
0.826546
0.722141
0.599275
0.465329
0.346642
0.249351
0.157106
0.0789274
0.0342128
0.0149955
0.0069173
0.0037261
0.00252208
0.0021009
0.00176262
0.00121448
0.00071861
0.000305588
1
0.999999
0.999997
0.999997
0.999998
0.999999
0.999999
0.999999
0.999999
0.999999
0.999999
0.999999
0.999999
0.999999
1
1
1
1
1
0.999999
0.999999
0.999999
0.999998
0.999962
0.999869
0.999719
0.975993
0.899431
0.808829
0.704953
0.591008
0.473511
0.360997
0.258508
0.170201
0.104063
0.0616619
0.0383479
0.0243382
0.0137262
0.00713103
0.00360571
0.00184745
0.00104583
0.000696744
0.000468814
0.000494983
0.000867094
0.000865978
0.000562972
1
0.999999
0.999997
0.999997
0.999998
0.999999
0.999999
0.999999
0.999999
0.999999
1
1
1
1
1
0.999999
1
1
0.999997
0.999917
0.999738
0.999486
0.972447
0.851175
0.718797
0.583504
0.455285
0.342727
0.248727
0.171921
0.11511
0.0755782
0.0493911
0.0316235
0.019092
0.011133
0.00641546
0.00361674
0.00203243
0.0011787
0.000695535
0.000410517
0.000241485
0.000147479
0.000111647
0.00010145
6.65678e-05
6.57506e-05
6.57506e-05
0.000140759
1
0.999999
0.999997
0.999997
0.999998
0.999998
0.999999
0.999999
1
1
1
1
1
1
1
0.999941
0.999535
0.999141
0.952296
0.758591
0.57812
0.42248
0.2962
0.192724
0.121535
0.0763542
0.0482864
0.030329
0.0188917
0.0116942
0.00715669
0.00435137
0.00261344
0.00152324
0.000876692
0.000506642
0.000301772
0.000189521
0.000120242
7.24929e-05
4.3876e-05
2.86359e-05
1.82968e-05
8.32771e-06
8.33393e-06
8.34179e-06
2.89728e-05
6.78867e-05
6.78881e-05
3.22969e-05
1
0.999999
0.999997
0.999997
0.999997
0.999998
0.999998
1
1
1
1
0.999999
0.999942
0.999043
0.987242
0.780988
0.410557
0.240089
0.13767
0.0663475
0.0425406
0.0223884
0.0127928
0.00697761
0.00388158
0.00219746
0.00127917
0.000765614
0.000465147
0.000284232
0.000175851
0.000110919
7.16384e-05
4.76621e-05
3.2347e-05
2.16645e-05
1.39556e-05
1.36046e-05
1.14063e-05
6.02317e-06
6.02078e-06
6.02076e-06
6.02036e-06
6.02073e-06
8.37448e-06
2.97874e-05
1.53924e-05
6.10608e-06
6.10221e-06
6.10089e-06
1
0.999999
0.999998
0.999998
0.999993
0.999992
0.999999
1.00001
1
0.999976
0.999131
0.997157
0.769929
0.145077
0.0365083
0.0284765
0.0125554
0.00448948
0.00203618
0.000825228
0.000396181
0.000201589
0.000109094
6.31651e-05
3.86522e-05
2.46486e-05
1.65304e-05
1.16697e-05
8.67342e-06
6.89045e-06
5.68654e-06
5.68185e-06
5.68183e-06
5.68183e-06
5.68183e-06
5.68232e-06
5.68295e-06
5.68569e-06
7.28918e-06
1.05019e-05
1.54266e-05
1.30381e-05
1.4703e-05
2.04758e-05
3.31235e-05
0.000146965
8.96448e-05
2.40342e-05
6.10126e-06
6.09741e-06
1
0.999999
0.999998
0.999991
0.999979
0.999972
1.00001
0.993279
0.999336
0.829605
0.113848
0.0234178
0.0167543
0.0078953
0.00295659
0.00126721
0.0006642
0.000306199
0.00015241
8.45038e-05
4.47173e-05
2.3684e-05
1.17947e-05
5.70013e-06
5.69442e-06
5.69009e-06
5.68684e-06
5.68438e-06
5.68285e-06
5.68212e-06
5.68188e-06
5.68183e-06
5.68183e-06
5.68183e-06
5.68183e-06
5.68245e-06
7.40649e-06
2.9386e-05
6.16285e-05
8.42667e-05
9.62165e-05
5.08177e-05
5.83839e-05
0.000107195
0.000146585
0.000147055
0.000124136
5.35084e-05
1.17792e-05
6.10018e-06
1.12643e-08
6.02017e-09
3.08087e-09
1.42372e-09
5.42463e-10
1.49448e-10
2.05647e-11
5.72443e-15
4.89841e-18
9.37831e-18
1.68762e-17
2.88673e-17
4.73669e-17
7.50275e-17
1.15234e-16
1.72198e-16
2.51042e-16
3.57901e-16
5.00021e-16
6.85884e-16
9.25341e-16
1.22978e-15
1.61231e-15
2.08801e-15
2.67417e-15
3.39057e-15
4.25987e-15
5.30791e-15
6.56417e-15
8.06217e-15
9.83991e-15
1.19404e-14
1.44119e-14
1.73088e-14
2.06917e-14
2.46281e-14
2.91926e-14
3.44676e-14
4.05433e-14
4.75183e-14
5.54995e-14
6.46027e-14
7.49521e-14
8.6681e-14
9.99318e-14
1.14855e-13
1.31611e-13
1.50367e-13
1.71299e-13
1.94588e-13
1.12649e-08
6.35836e-09
3.32185e-09
1.42135e-09
5.10927e-10
1.31987e-10
1.71117e-11
1.32173e-14
1.26037e-17
2.44762e-17
4.46542e-17
7.7402e-17
1.28615e-16
2.06188e-16
3.20423e-16
4.84483e-16
7.14892e-16
1.03211e-15
1.46119e-15
2.03258e-15
2.78303e-15
3.75666e-15
5.00623e-15
6.59457e-15
8.59621e-15
1.10992e-14
1.42072e-14
1.80416e-14
2.27441e-14
2.84796e-14
3.54388e-14
4.38411e-14
5.39386e-14
6.60187e-14
8.04082e-14
9.74766e-14
1.1764e-13
1.41363e-13
1.69167e-13
2.01628e-13
2.39384e-13
2.83135e-13
3.33651e-13
3.91769e-13
4.58402e-13
5.34539e-13
6.21246e-13
7.19672e-13
8.31047e-13
9.56682e-13
9.04299e-09
5.13689e-09
2.61218e-09
1.08277e-09
3.70687e-10
9.02744e-11
1.11363e-11
1.57922e-14
4.21167e-17
7.53435e-17
1.29226e-16
2.13689e-16
3.42313e-16
5.33236e-16
8.10187e-16
1.20368e-15
1.75239e-15
2.50474e-15
3.52078e-15
4.87445e-15
6.6562e-15
8.97616e-15
1.19678e-14
1.57921e-14
2.06428e-14
2.67513e-14
3.43933e-14
4.38951e-14
5.56415e-14
7.00836e-14
8.77478e-14
1.09245e-13
1.35283e-13
1.66674e-13
2.04351e-13
2.49378e-13
3.02965e-13
3.66484e-13
4.41482e-13
5.29696e-13
6.3307e-13
7.5377e-13
8.94198e-13
1.05701e-12
1.24512e-12
1.46175e-12
1.71038e-12
1.99485e-12
2.3193e-12
2.68822e-12
6.8267e-09
3.81146e-09
1.86916e-09
7.50171e-10
2.45679e-10
5.68994e-11
6.74214e-12
1.57111e-14
1.17963e-16
1.96498e-16
3.18182e-16
5.02152e-16
7.74284e-16
1.16891e-15
1.73082e-15
2.51761e-15
3.6024e-15
5.07704e-15
7.05584e-15
9.68005e-15
1.31232e-14
1.75974e-14
2.33608e-14
3.07268e-14
4.00735e-14
5.18562e-14
6.66201e-14
8.50148e-14
1.07811e-13
1.35916e-13
1.70397e-13
2.12497e-13
2.6366e-13
3.25555e-13
4.00105e-13
4.89512e-13
5.96297e-13
7.23327e-13
8.7386e-13
1.05159e-12
1.26067e-12
1.50578e-12
1.79217e-12
2.12568e-12
2.51282e-12
2.96078e-12
3.47751e-12
4.07175e-12
4.75306e-12
5.53189e-12
5.26162e-09
2.87755e-09
1.36956e-09
5.35778e-10
1.69656e-10
3.78881e-11
4.37646e-12
1.64474e-14
2.38963e-16
3.82149e-16
5.97879e-16
9.16621e-16
1.37931e-15
2.04009e-15
2.96953e-15
4.25848e-15
6.0225e-15
8.40708e-15
1.15937e-14
1.58073e-14
2.13242e-14
2.8483e-14
3.76963e-14
4.9465e-14
6.43953e-14
8.32186e-14
1.06814e-13
1.36232e-13
1.72728e-13
2.17787e-13
2.73162e-13
3.40912e-13
4.23438e-13
5.23529e-13
6.44412e-13
7.89797e-13
9.63941e-13
1.17171e-12
1.41864e-12
1.71102e-12
2.056e-12
2.46164e-12
2.93703e-12
3.49238e-12
4.13915e-12
4.89011e-12
5.75949e-12
6.76304e-12
7.9182e-12
9.24413e-12
4.52851e-09
2.45227e-09
1.15151e-09
4.45716e-10
1.39109e-10
3.06452e-11
3.54209e-12
2.21545e-14
3.47841e-16
5.47247e-16
8.44284e-16
1.27905e-15
1.90544e-15
2.79487e-15
4.04077e-15
5.76398e-15
8.11905e-15
1.13017e-14
1.55572e-14
2.11912e-14
2.85806e-14
3.81885e-14
5.05801e-14
6.64427e-14
8.6609e-14
1.12085e-13
1.4408e-13
1.84047e-13
2.33724e-13
2.95181e-13
3.70874e-13
4.63702e-13
5.77075e-13
7.14979e-13
8.82054e-13
1.08367e-12
1.32603e-12
1.61623e-12
1.96241e-12
2.37385e-12
2.8611e-12
3.4361e-12
4.11238e-12
4.90522e-12
5.83179e-12
6.91137e-12
8.16553e-12
9.61831e-12
1.12964e-11
1.32293e-11
4.79038e-09
2.67757e-09
1.31542e-09
5.44771e-10
1.86586e-10
4.88293e-11
8.65109e-12
9.26375e-13
8.84441e-14
8.05761e-15
1.4697e-15
1.42225e-15
2.06917e-15
3.03531e-15
4.39423e-15
6.27927e-15
8.86456e-15
1.23729e-14
1.7087e-14
2.3368e-14
3.16879e-14
4.26397e-14
5.67817e-14
7.49921e-14
9.82785e-14
1.27858e-13
1.65198e-13
2.12065e-13
2.70577e-13
3.43265e-13
4.33148e-13
5.43809e-13
6.79487e-13
8.45177e-13
1.04674e-12
1.29101e-12
1.58595e-12
1.94075e-12
2.36602e-12
2.87392e-12
3.47837e-12
4.19523e-12
5.04251e-12
6.04064e-12
7.21271e-12
8.5847e-12
1.01858e-11
1.20485e-11
1.42088e-11
1.67056e-11
9.19964e-09
5.37485e-09
3.01137e-09
1.57939e-09
7.6957e-10
3.48236e-10
1.47974e-10
6.02588e-11
2.38938e-11
9.25603e-12
3.50291e-12
1.29449e-12
4.67481e-13
1.6605e-13
5.97634e-14
2.43156e-14
1.42558e-14
1.35365e-14
1.68073e-14
2.25469e-14
3.06243e-14
4.14141e-14
5.55327e-14
7.38638e-14
9.74879e-14
1.27722e-13
1.66165e-13
2.14747e-13
2.7579e-13
3.52083e-13
4.46958e-13
5.64391e-13
7.09107e-13
8.86703e-13
1.10379e-12
1.36814e-12
1.68888e-12
2.07662e-12
2.54375e-12
3.10457e-12
3.77559e-12
4.57579e-12
5.52689e-12
6.65368e-12
7.98437e-12
9.55095e-12
1.13895e-11
1.35408e-11
1.60498e-11
1.89662e-11
2.73641e-08
1.80246e-08
1.16082e-08
7.29729e-09
4.47317e-09
2.67448e-09
1.56214e-09
8.93404e-10
5.01312e-10
2.76383e-10
1.49855e-10
7.99592e-11
4.20054e-11
2.17334e-11
1.10779e-11
5.56486e-12
2.757e-12
1.34987e-12
6.56996e-13
3.23199e-13
1.67838e-13
1.00694e-13
7.76808e-14
7.79347e-14
9.21453e-14
1.16744e-13
1.51073e-13
1.96052e-13
2.53577e-13
3.26288e-13
4.17515e-13
5.31316e-13
6.72565e-13
8.47082e-13
1.06178e-12
1.32484e-12
1.64592e-12
2.03638e-12
2.50952e-12
3.08088e-12
3.76856e-12
4.59351e-12
5.57996e-12
6.75583e-12
8.15314e-12
9.80853e-12
1.17638e-11
1.40663e-11
1.67694e-11
1.99328e-11
5.01049e-08
3.80019e-08
2.80504e-08
2.02117e-08
1.4249e-08
9.84604e-09
6.67828e-09
4.45157e-09
2.91892e-09
1.88415e-09
1.19799e-09
7.5069e-10
4.63811e-10
2.82678e-10
1.70023e-10
1.00968e-10
5.92257e-11
3.43313e-11
1.96766e-11
1.11579e-11
6.26711e-12
3.49402e-12
1.94256e-12
1.08844e-12
6.29205e-13
3.92871e-13
2.83272e-13
2.47793e-13
2.58645e-13
3.02155e-13
3.72753e-13
4.69662e-13
5.95127e-13
7.53531e-13
9.50999e-13
1.19529e-12
1.49586e-12
1.86401e-12
2.31317e-12
2.85913e-12
3.52047e-12
4.31889e-12
5.2797e-12
6.43231e-12
7.8108e-12
9.45452e-12
1.14088e-11
1.37255e-11
1.64641e-11
1.96919e-11
5.54968e-08
4.78914e-08
3.98304e-08
3.21237e-08
2.52324e-08
1.93644e-08
1.45554e-08
1.07359e-08
7.7815e-09
5.54844e-09
3.89506e-09
2.69385e-09
1.83646e-09
1.23469e-09
8.1905e-10
5.36356e-10
3.46901e-10
2.21715e-10
1.40106e-10
8.75853e-11
5.41974e-11
3.32191e-11
2.01842e-11
1.21718e-11
7.29845e-12
4.36689e-12
2.62564e-12
1.60914e-12
1.03264e-12
7.2439e-13
5.82571e-13
5.48287e-13
5.88931e-13
6.88064e-13
8.39378e-13
1.04317e-12
1.30436e-12
1.63144e-12
2.03601e-12
2.53267e-12
3.13918e-12
3.87672e-12
4.7703e-12
5.84936e-12
7.14828e-12
8.70718e-12
1.05727e-11
1.27989e-11
1.54482e-11
1.85926e-11
4.05702e-07
4.74929e-08
4.33122e-08
3.80559e-08
3.24454e-08
2.6957e-08
2.18912e-08
1.74147e-08
1.35947e-08
1.04284e-08
7.86908e-09
5.84602e-09
4.27885e-09
3.08731e-09
2.19712e-09
1.54304e-09
1.06999e-09
7.32988e-10
4.96341e-10
3.32422e-10
2.20341e-10
1.44638e-10
9.40902e-11
6.0702e-11
3.88696e-11
2.47282e-11
1.56505e-11
9.87453e-12
6.2338e-12
3.96504e-12
2.5745e-12
1.74642e-12
1.28134e-12
1.05527e-12
9.92941e-13
1.05058e-12
1.20501e-12
1.44673e-12
1.77577e-12
2.19919e-12
2.72968e-12
3.38492e-12
4.18745e-12
5.1648e-12
6.34998e-12
7.7821e-12
9.50717e-12
1.15792e-11
1.40611e-11
1.70264e-11
1.04893e-05
1.23538e-06
7.83963e-08
6.08028e-08
4.85682e-08
3.93202e-08
3.19247e-08
2.58228e-08
2.07256e-08
1.64671e-08
1.2935e-08
1.00383e-08
7.69418e-09
5.82424e-09
4.3543e-09
3.21569e-09
2.34646e-09
1.69231e-09
1.20685e-09
8.51409e-10
5.9454e-10
4.11198e-10
2.81868e-10
1.91635e-10
1.29319e-10
8.6682e-11
5.77561e-11
3.82834e-11
2.5268e-11
1.66288e-11
1.09365e-11
7.21926e-12
4.8223e-12
3.30822e-12
2.38755e-12
1.87091e-12
1.63656e-12
1.60854e-12
1.74215e-12
2.01435e-12
2.41754e-12
2.95562e-12
3.6416e-12
4.4963e-12
5.54781e-12
6.83152e-12
8.39059e-12
1.02767e-11
1.25513e-11
1.52868e-11
9.42368e-05
1.73996e-05
1.97451e-06
1.11142e-07
8.34436e-08
6.4201e-08
5.02276e-08
3.96735e-08
3.14664e-08
2.49604e-08
1.97456e-08
1.55456e-08
1.21622e-08
9.44497e-09
7.27453e-09
5.55321e-09
4.19966e-09
3.14549e-09
2.33304e-09
1.71377e-09
1.24712e-09
8.99455e-10
6.43319e-10
4.56601e-10
3.21817e-10
2.25388e-10
1.56946e-10
1.08712e-10
7.4934e-11
5.14164e-11
3.51344e-11
2.39277e-11
1.62664e-11
1.10735e-11
7.59594e-12
5.31021e-12
3.85507e-12
2.98388e-12
2.53097e-12
2.38804e-12
2.48767e-12
2.79194e-12
3.28465e-12
3.9661e-12
4.84988e-12
5.96087e-12
7.33445e-12
9.01638e-12
1.10634e-11
1.35444e-11
0.000262183
7.69089e-05
1.28823e-05
1.25521e-06
9.18758e-08
8.207e-08
6.76874e-08
5.4432e-08
4.34196e-08
3.45572e-08
2.74858e-08
2.18437e-08
1.73302e-08
1.37094e-08
1.07996e-08
8.46124e-09
6.58591e-09
5.08832e-09
3.89991e-09
2.9644e-09
2.23477e-09
1.67135e-09
1.24063e-09
9.14548e-10
6.69908e-10
4.87861e-10
3.53368e-10
2.54639e-10
1.82574e-10
1.30248e-10
9.24476e-11
6.52832e-11
4.58731e-11
3.20933e-11
2.23862e-11
1.56136e-11
1.0949e-11
7.79534e-12
5.72555e-12
4.4378e-12
3.72264e-12
3.43873e-12
3.4951e-12
3.83829e-12
4.44324e-12
5.30705e-12
6.44488e-12
7.88759e-12
9.68069e-12
1.18844e-11
0.000311164
0.000311157
0.000139497
2.58926e-05
1.75208e-06
9.43071e-08
7.58279e-08
5.9895e-08
5.02223e-08
4.13286e-08
3.37799e-08
2.75286e-08
2.23884e-08
1.81652e-08
1.46912e-08
1.18305e-08
9.47592e-09
7.54247e-09
5.96213e-09
4.67886e-09
3.64514e-09
2.81982e-09
2.16683e-09
1.65473e-09
1.25638e-09
9.48766e-10
7.12753e-10
5.32715e-10
3.96096e-10
2.92943e-10
2.1545e-10
1.57538e-10
1.14508e-10
8.27335e-11
5.94347e-11
4.24836e-11
3.02603e-11
2.15385e-11
1.53968e-11
1.11493e-11
8.29132e-12
6.45703e-12
5.38657e-12
4.90048e-12
4.88046e-12
5.25489e-12
5.98838e-12
7.07447e-12
8.53088e-12
1.03968e-11
5.07671e-05
8.26126e-05
0.000146847
0.000152415
0.00010116
3.77251e-05
8.07418e-06
1.04077e-06
7.39571e-08
5.14897e-08
4.13659e-08
3.33558e-08
2.72334e-08
2.24799e-08
1.86528e-08
1.54757e-08
1.2794e-08
1.05186e-08
8.59162e-09
6.96918e-09
5.61408e-09
4.49233e-09
3.57213e-09
2.82372e-09
2.21976e-09
1.73575e-09
1.35022e-09
1.04482e-09
8.04152e-10
6.15445e-10
4.68256e-10
3.54086e-10
2.66057e-10
1.98624e-10
1.47326e-10
1.08594e-10
7.95805e-11
5.80297e-11
4.21681e-11
3.06136e-11
2.23e-11
1.64149e-11
1.23472e-11
9.64471e-12
7.97914e-12
7.11876e-12
6.90685e-12
7.2453e-12
8.08263e-12
9.40549e-12
2.34818e-05
0.000122869
0.000152414
0.000152413
0.000146405
6.58625e-05
2.26513e-05
7.41322e-06
2.2222e-06
5.33339e-07
8.47453e-08
6.13536e-08
4.73796e-08
3.50171e-08
2.40217e-08
2.04005e-08
1.72325e-08
1.44483e-08
1.20386e-08
9.98536e-09
8.25184e-09
6.7946e-09
5.5727e-09
4.55088e-09
3.69939e-09
2.99278e-09
2.40905e-09
1.92906e-09
1.53628e-09
1.21648e-09
9.57501e-10
7.48983e-10
5.82143e-10
4.49543e-10
3.44898e-10
2.62924e-10
1.99194e-10
1.5003e-10
1.12401e-10
8.38302e-11
6.23191e-11
4.62703e-11
3.44235e-11
2.57962e-11
1.96327e-11
1.53604e-11
1.2553e-11
1.09011e-11
1.01882e-11
1.02724e-11
6.09846e-06
1.94943e-05
0.000110359
0.000152413
0.000152413
7.35459e-05
2.57794e-05
1.44237e-05
6.82427e-06
2.13566e-06
5.54189e-06
1.0056e-05
4.90844e-06
1.39772e-06
2.43929e-07
3.32283e-08
2.52694e-08
1.91709e-08
1.50894e-08
1.30485e-08
1.11387e-08
9.47243e-09
8.041e-09
6.80964e-09
5.74644e-09
4.82715e-09
4.03353e-09
3.35105e-09
2.76727e-09
2.27099e-09
1.85192e-09
1.50053e-09
1.20804e-09
9.66391e-10
7.68261e-10
6.07034e-10
4.76817e-10
3.72415e-10
2.89309e-10
2.23617e-10
1.72044e-10
1.31832e-10
1.00696e-10
7.67672e-11
5.85329e-11
4.4783e-11
3.45601e-11
2.71163e-11
2.1876e-11
1.84051e-11
6.09844e-06
6.09977e-06
1.50109e-05
3.26964e-05
5.29919e-05
0.000105395
0.000177515
0.000134454
7.25284e-05
3.76656e-05
2.85609e-05
1.97443e-05
9.13173e-06
1.82766e-06
4.06888e-06
8.8348e-06
8.94983e-06
5.02557e-06
1.28597e-06
1.16458e-07
4.56236e-08
1.9362e-08
1.36406e-08
1.08261e-08
9.12517e-09
7.89012e-09
6.87181e-09
5.96788e-09
5.14063e-09
4.38262e-09
3.69761e-09
3.09017e-09
2.56144e-09
2.10851e-09
1.72548e-09
1.4048e-09
1.13845e-09
9.18633e-10
7.38201e-10
5.9082e-10
4.70986e-10
3.73984e-10
2.95816e-10
2.33119e-10
1.83084e-10
1.43376e-10
1.12068e-10
8.75763e-11
6.86092e-11
5.41201e-11
2.20423e-13
2.35896e-13
2.52329e-13
2.69771e-13
2.88271e-13
3.07883e-13
3.28659e-13
3.50655e-13
3.73927e-13
3.98534e-13
4.24535e-13
4.51992e-13
4.80967e-13
5.11525e-13
5.43729e-13
5.77646e-13
6.13344e-13
6.50891e-13
6.90355e-13
7.31806e-13
7.75316e-13
8.20953e-13
8.68791e-13
9.18898e-13
9.71347e-13
1.02621e-12
1.08355e-12
1.14345e-12
1.20596e-12
1.27117e-12
1.33913e-12
1.4099e-12
1.48356e-12
1.56016e-12
1.63976e-12
1.72241e-12
1.80816e-12
1.89707e-12
1.98918e-12
2.08452e-12
2.18313e-12
2.28505e-12
2.39029e-12
2.49888e-12
2.61084e-12
2.72616e-12
2.84485e-12
2.96689e-12
3.09229e-12
3.22101e-12
3.35303e-12
3.48829e-12
3.62677e-12
3.76839e-12
3.91309e-12
4.0608e-12
4.21143e-12
4.36487e-12
4.52102e-12
4.67975e-12
4.84095e-12
5.00446e-12
5.17014e-12
5.33781e-12
5.50729e-12
5.67841e-12
5.85095e-12
6.02472e-12
6.19947e-12
6.37498e-12
6.551e-12
6.72727e-12
6.90352e-12
7.07948e-12
7.25486e-12
7.42936e-12
7.60268e-12
7.77449e-12
7.94448e-12
8.11231e-12
8.27766e-12
8.44019e-12
8.59954e-12
8.75537e-12
8.90733e-12
9.05507e-12
9.19823e-12
9.33648e-12
9.46944e-12
9.5968e-12
9.71819e-12
9.83329e-12
9.94177e-12
1.00433e-11
1.01376e-11
1.02244e-11
1.03033e-11
1.03742e-11
1.04367e-11
1.04906e-11
1.05357e-11
1.05718e-11
1.05987e-11
1.06163e-11
1.06245e-11
1.0623e-11
1.06119e-11
1.05911e-11
1.05605e-11
1.05202e-11
1.04702e-11
1.04105e-11
1.03412e-11
1.02624e-11
1.01743e-11
1.0077e-11
9.97065e-12
9.8556e-12
9.73203e-12
9.60022e-12
9.46048e-12
9.31313e-12
9.15852e-12
8.99703e-12
8.82904e-12
8.65497e-12
8.47524e-12
8.29029e-12
8.10059e-12
7.9066e-12
7.7088e-12
7.50767e-12
7.3037e-12
7.09739e-12
6.88923e-12
6.67969e-12
6.46929e-12
6.25848e-12
6.04775e-12
5.83755e-12
5.62833e-12
5.42053e-12
5.21456e-12
5.01082e-12
4.80969e-12
4.61152e-12
4.41667e-12
4.22543e-12
4.03809e-12
3.85492e-12
3.67616e-12
3.50202e-12
3.33268e-12
3.16831e-12
3.00904e-12
2.85498e-12
2.70622e-12
2.56281e-12
2.42479e-12
2.29218e-12
2.16497e-12
2.04314e-12
1.92664e-12
1.81541e-12
1.70936e-12
1.60841e-12
1.51246e-12
1.42137e-12
1.33503e-12
1.25329e-12
1.17602e-12
1.10305e-12
1.03424e-12
9.69425e-13
9.0844e-13
8.51123e-13
7.97311e-13
7.46839e-13
6.99547e-13
6.55274e-13
6.13862e-13
5.7516e-13
5.39016e-13
5.05285e-13
4.73827e-13
4.44507e-13
4.17192e-13
3.9176e-13
3.68089e-13
3.46066e-13
3.25583e-13
3.06535e-13
2.88826e-13
2.72364e-13
2.5706e-13
2.42833e-13
2.29606e-13
2.17305e-13
2.05863e-13
1.95216e-13
1.85304e-13
1.76071e-13
1.67465e-13
1.59436e-13
1.51939e-13
1.44931e-13
1.38371e-13
1.32223e-13
1.2645e-13
1.21019e-13
1.159e-13
1.11062e-13
1.06478e-13
1.02123e-13
9.79698e-14
9.39964e-14
9.01804e-14
8.65009e-14
8.29384e-14
7.94746e-14
7.60927e-14
7.27776e-14
6.95155e-14
6.62946e-14
6.3105e-14
5.99389e-14
5.67907e-14
5.36571e-14
5.05372e-14
4.74328e-14
4.43479e-14
4.12891e-14
3.82649e-14
3.52862e-14
3.23652e-14
2.95154e-14
2.67513e-14
2.40874e-14
2.15381e-14
1.91169e-14
1.68361e-14
1.47062e-14
1.27352e-14
1.09289e-14
9.29012e-15
7.81909e-15
6.51311e-15
5.3669e-15
4.37286e-15
3.52139e-15
2.80134e-15
2.20046e-15
1.70586e-15
1.30449e-15
9.83508e-16
7.30685e-16
5.34637e-16
3.85054e-16
2.72812e-16
1.90032e-16
1.30057e-16
8.73992e-17
5.76299e-17
3.72604e-17
2.36037e-17
1.46388e-17
8.88096e-18
5.26582e-18
3.04873e-18
1.72182e-18
9.47586e-19
5.07597e-19
2.64342e-19
1.33659e-19
6.55247e-20
3.1098e-20
1.42649e-20
6.31305e-21
2.69032e-21
1.10165e-21
4.32458e-22
1.6233e-22
5.81004e-23
1.97661e-23
6.36937e-24
1.93637e-24
5.52901e-25
1.47515e-25
3.65569e-26
8.35618e-27
1.74721e-27
3.30833e-28
5.60281e-29
8.35403e-30
1.0743e-30
1.15843e-31
1.00556e-32
6.5876e-34
2.89545e-35
6.40528e-37
1.09797e-12
1.18373e-12
1.27553e-12
1.37374e-12
1.47873e-12
1.59093e-12
1.71074e-12
1.83863e-12
1.97506e-12
2.12051e-12
2.27551e-12
2.44058e-12
2.61629e-12
2.80322e-12
3.00198e-12
3.21321e-12
3.43756e-12
3.67573e-12
3.92844e-12
4.19643e-12
4.48048e-12
4.7814e-12
5.10003e-12
5.43723e-12
5.79391e-12
6.171e-12
6.56947e-12
6.99033e-12
7.43461e-12
7.90339e-12
8.39778e-12
8.91891e-12
9.46799e-12
1.00462e-11
1.06549e-11
1.12952e-11
1.19686e-11
1.26764e-11
1.342e-11
1.42009e-11
1.50206e-11
1.58805e-11
1.67823e-11
1.77276e-11
1.87179e-11
1.97551e-11
2.08407e-11
2.19765e-11
2.31643e-11
2.4406e-11
2.57033e-11
2.70581e-11
2.84725e-11
2.99482e-11
3.14872e-11
3.30916e-11
3.47632e-11
3.65042e-11
3.83166e-11
4.02024e-11
4.21637e-11
4.42024e-11
4.63207e-11
4.85206e-11
5.08042e-11
5.31735e-11
5.56304e-11
5.8177e-11
6.08152e-11
6.35469e-11
6.6374e-11
6.92983e-11
7.23215e-11
7.54454e-11
7.86716e-11
8.20016e-11
8.54368e-11
8.89786e-11
9.26283e-11
9.6387e-11
1.00256e-10
1.04235e-10
1.08326e-10
1.12529e-10
1.16845e-10
1.21274e-10
1.25815e-10
1.30469e-10
1.35235e-10
1.40113e-10
1.45101e-10
1.502e-10
1.55407e-10
1.60722e-10
1.66141e-10
1.71664e-10
1.77288e-10
1.8301e-10
1.88828e-10
1.94738e-10
2.00737e-10
2.0682e-10
2.12985e-10
2.19226e-10
2.2554e-10
2.3192e-10
2.38362e-10
2.4486e-10
2.51408e-10
2.58e-10
2.6463e-10
2.71292e-10
2.77977e-10
2.84679e-10
2.9139e-10
2.98104e-10
3.04811e-10
3.11504e-10
3.18175e-10
3.24816e-10
3.31417e-10
3.3797e-10
3.44467e-10
3.50899e-10
3.57257e-10
3.63531e-10
3.69714e-10
3.75797e-10
3.81769e-10
3.87624e-10
3.93352e-10
3.98945e-10
4.04394e-10
4.09692e-10
4.14829e-10
4.19799e-10
4.24593e-10
4.29205e-10
4.33626e-10
4.37851e-10
4.41872e-10
4.45683e-10
4.49279e-10
4.52653e-10
4.558e-10
4.58715e-10
4.61393e-10
4.63831e-10
4.66023e-10
4.67965e-10
4.69656e-10
4.7109e-10
4.72267e-10
4.73182e-10
4.73834e-10
4.74221e-10
4.74342e-10
4.74194e-10
4.73778e-10
4.73091e-10
4.72133e-10
4.70904e-10
4.69403e-10
4.67631e-10
4.65588e-10
4.63273e-10
4.60687e-10
4.57831e-10
4.54706e-10
4.51311e-10
4.47649e-10
4.4372e-10
4.39526e-10
4.35068e-10
4.30348e-10
4.25367e-10
4.20128e-10
4.14634e-10
4.08888e-10
4.02892e-10
3.9665e-10
3.90167e-10
3.83448e-10
3.76497e-10
3.69322e-10
3.61929e-10
3.54326e-10
3.46521e-10
3.38523e-10
3.30343e-10
3.21991e-10
3.13479e-10
3.04819e-10
2.96024e-10
2.8711e-10
2.78089e-10
2.68978e-10
2.59793e-10
2.5055e-10
2.41267e-10
2.31963e-10
2.22655e-10
2.13364e-10
2.0411e-10
1.94913e-10
1.85794e-10
1.76774e-10
1.67873e-10
1.59114e-10
1.50516e-10
1.421e-10
1.33883e-10
1.25886e-10
1.18124e-10
1.10613e-10
1.03366e-10
9.63958e-11
8.97125e-11
8.33242e-11
7.72369e-11
7.14547e-11
6.59796e-11
6.08116e-11
5.59487e-11
5.1387e-11
4.71212e-11
4.3144e-11
3.94469e-11
3.60202e-11
3.2853e-11
2.99338e-11
2.72502e-11
2.47895e-11
2.25385e-11
2.04841e-11
1.86132e-11
1.69126e-11
1.53697e-11
1.39722e-11
1.27082e-11
1.15666e-11
1.05364e-11
9.60775e-12
8.77118e-12
8.01791e-12
7.33987e-12
6.72959e-12
6.18024e-12
5.68559e-12
5.23999e-12
4.8383e-12
4.4759e-12
4.14861e-12
3.8527e-12
3.58481e-12
3.34191e-12
3.1213e-12
2.92052e-12
2.73734e-12
2.56969e-12
2.41566e-12
2.2734e-12
2.14113e-12
2.01707e-12
1.89946e-12
1.78657e-12
1.67665e-12
1.56808e-12
1.45939e-12
1.34937e-12
1.23721e-12
1.1226e-12
1.00582e-12
8.87811e-13
7.70131e-13
6.54865e-13
5.4443e-13
4.41326e-13
3.47848e-13
2.65811e-13
1.96333e-13
1.39724e-13
9.54837e-14
6.243e-14
3.88995e-14
2.29982e-14
1.28393e-14
6.73145e-15
3.29371e-15
1.4932e-15
6.21853e-16
2.35461e-16
8.00411e-17
2.40393e-17
6.24725e-18
1.36545e-18
2.40914e-19
3.21629e-20
2.88798e-21
1.3084e-22
3.10644e-12
3.36224e-12
3.63732e-12
3.93295e-12
4.25052e-12
4.59147e-12
4.95733e-12
5.34973e-12
5.77036e-12
6.22105e-12
6.70369e-12
7.2203e-12
7.77298e-12
8.36398e-12
8.99565e-12
9.67045e-12
1.0391e-11
1.116e-11
1.19805e-11
1.28553e-11
1.37877e-11
1.47811e-11
1.58389e-11
1.6965e-11
1.8163e-11
1.94371e-11
2.07916e-11
2.22309e-11
2.37597e-11
2.53828e-11
2.71053e-11
2.89326e-11
3.08701e-11
3.29237e-11
3.50993e-11
3.74032e-11
3.98417e-11
4.24217e-11
4.51499e-11
4.80336e-11
5.10801e-11
5.42971e-11
5.76923e-11
6.12738e-11
6.50498e-11
6.90287e-11
7.32192e-11
7.763e-11
8.22703e-11
8.7149e-11
9.22757e-11
9.76596e-11
1.03311e-10
1.09238e-10
1.15452e-10
1.21963e-10
1.28781e-10