/*--------------------------------*- C++ -*----------------------------------*\
| =========                 |                                                 |
| \\      /  F ield         | OpenFOAM: The Open Source CFD Toolbox           |
|  \\    /   O peration     | Version:  2.4.0                                 |
|   \\  /    A nd           | Web:      www.OpenFOAM.org                      |
|    \\/     M anipulation  |                                                 |
\*---------------------------------------------------------------------------*/
FoamFile
{
    version     2.0;
    format      ascii;
    class       surfaceScalarField;
    location    "4.3";
    object      phi;
}
// * * * * * * * * * * * * * * * * * * * * * * * * * * * * * * * * * * * * * //

dimensions      [0 3 -1 0 0 0 0];

internalField   nonuniform List<scalar> 
15580
(
-4.27955e-13
-2.96459e-13
-1.60307e-12
-8.82988e-13
-3.43499e-12
-1.45317e-12
-5.84387e-12
-2.00069e-12
-8.75263e-12
-2.52336e-12
-1.20866e-11
-3.01956e-12
-1.5773e-11
-3.4877e-12
-1.97415e-11
-3.92618e-12
-2.39232e-11
-4.33364e-12
-2.8251e-11
-4.70885e-12
-3.26592e-11
-5.05072e-12
-3.70833e-11
-5.35834e-12
-4.14601e-11
-5.63091e-12
-4.57273e-11
-5.86781e-12
-4.98232e-11
-6.06856e-12
-5.36872e-11
-6.2328e-12
-5.72586e-11
-6.36031e-12
-6.04776e-11
-6.451e-12
-6.32843e-11
-6.5048e-12
-6.5619e-11
-6.52186e-12
-6.74214e-11
-6.5023e-12
-6.86297e-11
-6.44754e-12
-6.91909e-11
-6.3491e-12
-6.90413e-11
-6.214e-12
-6.81241e-11
-6.04432e-12
-6.63738e-11
-5.83998e-12
-6.37238e-11
-5.59842e-12
-6.00924e-11
-5.32454e-12
-5.54505e-11
-5.00918e-12
-4.95329e-11
-4.72727e-12
-4.26905e-11
-4.1954e-12
-3.49849e-11
-3.70497e-12
-2.65183e-11
-3.18125e-12
-1.64389e-11
-2.9426e-12
-8.09261e-12
-2.90414e-12
-4.70619e-12
-2.22412e-12
-1.67632e-13
-2.9549e-12
5.04549e-12
-2.53726e-12
1.77183e-11
-1.34074e-12
4.49387e-11
1.24133e-12
1.0343e-10
5.51224e-12
2.36572e-10
1.71711e-11
5.46769e-10
5.24438e-11
1.17209e-09
1.57378e-10
2.10191e-09
4.68487e-10
3.05015e-09
1.20262e-09
3.631e-09
2.23123e-09
3.8245e-09
3.07782e-09
3.72609e-09
3.64913e-09
3.99614e-09
3.43093e-09
-3.61579e-13
6.51196e-14
-1.38612e-12
1.41552e-13
-3.00127e-12
1.6198e-13
-5.13124e-12
1.29279e-13
-7.7045e-12
4.99053e-14
-1.06529e-11
-7.12085e-14
-1.39111e-11
-2.29404e-13
-1.7417e-11
-4.20335e-13
-2.11103e-11
-6.40321e-13
-2.4933e-11
-8.86132e-13
-2.88287e-11
-1.15508e-12
-3.27421e-11
-1.44492e-12
-3.66191e-11
-1.7539e-12
-4.04062e-11
-2.08074e-12
-4.40501e-11
-2.42461e-12
-4.74978e-11
-2.78515e-12
-5.06957e-11
-3.16241e-12
-5.35897e-11
-3.55693e-12
-5.61248e-11
-3.96969e-12
-5.82446e-11
-4.40213e-12
-5.98908e-11
-4.85606e-12
-6.10053e-11
-5.33301e-12
-6.15181e-11
-5.83633e-12
-6.13629e-11
-6.36922e-12
-6.04711e-11
-6.93608e-12
-5.87691e-11
-7.54197e-12
-5.61759e-11
-8.1917e-12
-5.26093e-11
-8.89113e-12
-4.79726e-11
-9.64582e-12
-4.22591e-11
-1.04408e-11
-3.51433e-11
-1.13111e-11
-2.65961e-11
-1.22522e-11
-1.67698e-11
-1.30075e-11
-5.9402e-12
-1.37722e-11
5.18385e-12
-1.4374e-11
1.8903e-11
-1.64964e-11
2.79984e-11
-1.39171e-11
3.70975e-11
-1.22483e-11
4.33947e-11
-7.63797e-12
4.20337e-11
2.60236e-12
5.7427e-11
-9.88105e-12
7.17322e-11
2.8659e-12
9.87039e-11
2.5472e-11
1.68941e-10
8.71412e-11
3.45288e-10
2.9214e-10
6.21595e-10
9.26308e-10
8.59492e-10
1.99333e-09
9.7835e-10
2.95896e-09
9.64085e-10
3.6634e-09
4.12536e-09
8.34864e-10
-1.07685e-13
1.72804e-13
-3.4416e-13
3.78027e-13
-6.64185e-13
4.82005e-13
-1.04262e-12
5.07716e-13
-1.45487e-12
4.62152e-13
-1.87683e-12
3.50757e-13
-2.28464e-12
1.78402e-13
-2.6544e-12
-5.0571e-14
-2.96426e-12
-3.30464e-13
-3.19082e-12
-6.59579e-13
-3.31145e-12
-1.03445e-12
-3.30368e-12
-1.45269e-12
-3.14513e-12
-1.91245e-12
-2.81335e-12
-2.41252e-12
-2.28595e-12
-2.95202e-12
-1.54022e-12
-3.53087e-12
-5.53459e-13
-4.14917e-12
6.97642e-13
-4.80803e-12
2.23646e-12
-5.50851e-12
4.08729e-12
-6.25296e-12
6.27458e-12
-7.04335e-12
8.82507e-12
-7.8835e-12
1.1765e-11
-8.77623e-12
1.5123e-11
-9.72723e-12
1.89269e-11
-1.074e-11
2.32073e-11
-1.18223e-11
2.79935e-11
-1.29779e-11
3.33206e-11
-1.42182e-11
3.92239e-11
-1.55492e-11
4.56858e-11
-1.69027e-11
5.27068e-11
-1.83321e-11
6.00886e-11
-1.98094e-11
6.86422e-11
-2.21219e-11
7.39546e-11
-2.23279e-11
8.18056e-11
-2.22842e-11
8.67029e-11
-2.14124e-11
9.10083e-11
-1.8226e-11
9.26633e-11
-1.39033e-11
8.99984e-11
-4.97311e-12
5.58559e-11
3.67448e-11
2.03318e-11
2.5643e-11
-2.58959e-11
4.90937e-11
-1.11911e-10
1.11487e-10
-3.1277e-10
2.88001e-10
-7.24019e-10
7.03388e-10
-1.2341e-09
1.43639e-09
-1.57099e-09
2.33022e-09
-1.75149e-09
3.13945e-09
-1.85955e-09
3.77146e-09
4.21494e-09
-1.94913e-09
3.92824e-13
-2.2002e-13
1.43669e-12
-6.65837e-13
3.0616e-12
-1.14291e-12
5.23004e-12
-1.66073e-12
7.90659e-12
-2.21439e-12
1.10583e-11
-2.80098e-12
1.46547e-11
-3.41798e-12
1.86667e-11
-4.0626e-12
2.30685e-11
-4.73224e-12
2.78336e-11
-5.42463e-12
3.29368e-11
-6.13765e-12
3.83537e-11
-6.86965e-12
4.40603e-11
-7.61898e-12
5.00323e-11
-8.38453e-12
5.62453e-11
-9.16506e-12
6.26743e-11
-9.95989e-12
6.92933e-11
-1.07682e-11
7.60751e-11
-1.15899e-11
8.29908e-11
-1.24242e-11
9.00096e-11
-1.32718e-11
9.70982e-11
-1.41319e-11
1.04221e-10
-1.50059e-11
1.11337e-10
-1.58929e-11
1.18405e-10
-1.6795e-11
1.25376e-10
-1.77111e-11
1.32198e-10
-1.8644e-11
1.38812e-10
-1.95917e-11
1.45154e-10
-2.05611e-11
1.51157e-10
-2.15513e-11
1.56583e-10
-2.27545e-11
1.60373e-10
-2.34348e-11
1.6217e-10
-2.42677e-11
1.64764e-10
-2.47513e-11
1.67608e-10
-2.51728e-11
1.71112e-10
-2.57882e-11
1.84218e-10
-3.45185e-11
1.96738e-10
-3.07457e-11
1.89932e-10
-7.09685e-12
1.59972e-10
2.49862e-11
1.20785e-10
7.59322e-11
2.56977e-11
1.2073e-10
-1.3399e-10
2.08781e-10
-4.37925e-10
4.15423e-10
-9.4932e-10
7.99395e-10
-1.63022e-09
1.38429e-09
-2.27683e-09
2.083e-09
-2.73062e-09
2.78402e-09
-3.00258e-09
3.4114e-09
-3.15046e-09
3.91935e-09
4.2923e-09
-3.22782e-09
5.803e-13
-8.00319e-13
2.34966e-12
-2.4352e-12
5.25415e-12
-4.0474e-12
9.20498e-12
-5.61155e-12
1.41205e-11
-7.1299e-12
1.99242e-11
-8.60472e-12
2.65439e-11
-1.00376e-11
3.39103e-11
-1.1429e-11
4.19567e-11
-1.27787e-11
5.06187e-11
-1.40866e-11
5.98335e-11
-1.53525e-11
6.954e-11
-1.65761e-11
7.96777e-11
-1.77567e-11
9.01869e-11
-1.88937e-11
1.01008e-10
-1.99861e-11
1.12081e-10
-2.10326e-11
1.23345e-10
-2.2032e-11
1.34737e-10
-2.29825e-11
1.46196e-10
-2.38828e-11
1.57654e-10
-2.47301e-11
1.69046e-10
-2.55233e-11
1.80298e-10
-2.62582e-11
1.91339e-10
-2.69342e-11
2.02089e-10
-2.75447e-11
2.1247e-10
-2.8092e-11
2.22391e-10
-2.85648e-11
2.31759e-10
-2.896e-11
2.40466e-10
-2.92683e-11
2.48291e-10
-2.94991e-11
2.43097e-10
-2.96058e-11
2.48836e-10
-2.92817e-11
2.49699e-10
-2.51304e-11
2.56933e-10
-3.19854e-11
2.71831e-10
-4.00707e-11
2.80013e-10
-3.39697e-11
2.773e-10
-3.18057e-11
2.75339e-10
-2.87844e-11
2.51156e-10
1.70856e-11
1.70785e-10
1.05357e-10
5.38242e-11
1.92893e-10
-1.4899e-10
3.23544e-10
-4.73989e-10
5.33781e-10
-9.49273e-10
8.90707e-10
-1.52535e-09
1.37547e-09
-2.07727e-09
1.93622e-09
-2.51761e-09
2.52334e-09
-2.82097e-09
3.08738e-09
-2.99924e-09
3.58967e-09
-3.08316e-09
4.00327e-09
4.31707e-09
-3.10793e-09
8.20745e-13
-1.62106e-12
3.01874e-12
-4.63319e-12
6.45069e-12
-7.47934e-12
1.10382e-11
-1.0199e-11
1.67077e-11
-1.27995e-11
2.3387e-11
-1.5284e-11
3.10045e-11
-1.76551e-11
3.94898e-11
-1.99143e-11
4.87741e-11
-2.20629e-11
5.87902e-11
-2.41027e-11
6.94726e-11
-2.60349e-11
8.07576e-11
-2.78611e-11
9.25833e-11
-2.95824e-11
1.04889e-10
-3.11998e-11
1.17617e-10
-3.2714e-11
1.3071e-10
-3.41257e-11
1.44114e-10
-3.54354e-11
1.57774e-10
-3.66431e-11
1.71641e-10
-3.77493e-11
1.85664e-10
-3.87537e-11
1.99798e-10
-3.96567e-11
2.13998e-10
-4.04579e-11
2.2822e-10
-4.11565e-11
2.42425e-10
-4.17497e-11
2.56569e-10
-4.22357e-11
2.7062e-10
-4.26159e-11
2.84562e-10
-4.29024e-11
2.97581e-10
-4.30718e-11
2.9237e-10
-4.31883e-11
3.05857e-10
-4.30924e-11
3.18923e-10
-4.23478e-11
3.26306e-10
-3.25128e-11
3.21814e-10
-2.74942e-11
3.13887e-10
-3.21435e-11
3.18436e-10
-3.85188e-11
3.23842e-10
-3.72112e-11
3.07936e-10
-1.28787e-11
2.62036e-10
6.29855e-11
1.82684e-10
1.84709e-10
2.55417e-11
3.50036e-10
-2.21074e-10
5.7016e-10
-5.50568e-10
8.63275e-10
-9.12479e-10
1.25262e-09
-1.24662e-09
1.70961e-09
-1.5174e-09
2.207e-09
-1.70696e-09
2.7129e-09
-1.81544e-09
3.19586e-09
-1.85447e-09
3.6287e-09
-1.84354e-09
3.99234e-09
4.27809e-09
-1.80456e-09
5.91155e-13
-2.21222e-12
2.4896e-12
-6.53164e-12
5.69313e-12
-1.06829e-11
1.01378e-11
-1.46437e-11
1.57596e-11
-1.84213e-11
2.24932e-11
-2.20176e-11
3.02728e-11
-2.54347e-11
3.90334e-11
-2.86749e-11
4.87113e-11
-3.17409e-11
5.9244e-11
-3.46353e-11
7.05704e-11
-3.73614e-11
8.2631e-11
-3.99217e-11
9.53679e-11
-4.23193e-11
1.08724e-10
-4.45562e-11
1.22646e-10
-4.66354e-11
1.37078e-10
-4.85578e-11
1.51969e-10
-5.03263e-11
1.67265e-10
-5.19395e-11
1.82916e-10
-5.34005e-11
1.98866e-10
-5.47036e-11
2.15062e-10
-5.58527e-11
2.3144e-10
-5.68355e-11
2.47941e-10
-5.76583e-11
2.64487e-10
-5.82958e-11
2.81011e-10
-5.87589e-11
2.97374e-10
-5.89791e-11
3.13492e-10
-5.90201e-11
3.29344e-10
-5.87755e-11
3.36727e-10
-5.87123e-11
3.52139e-10
-5.85047e-11
3.68469e-10
-5.86783e-11
3.9475e-10
-5.87937e-11
4.27807e-10
-6.05511e-11
4.62264e-10
-6.66e-11
4.89965e-10
-6.62204e-11
5.0166e-10
-4.89058e-11
4.885e-10
2.81631e-13
4.53765e-10
9.77198e-11
3.84685e-10
2.5379e-10
2.72611e-10
4.62109e-10
1.23986e-10
7.18785e-10
-3.59478e-11
1.02321e-09
-1.60262e-10
1.37693e-09
-2.26735e-10
1.77608e-09
-2.28117e-10
2.20838e-09
-1.70309e-10
2.65509e-09
-6.77937e-11
3.09334e-09
6.09342e-11
3.49997e-09
1.96963e-10
3.85631e-09
4.15109e-09
3.23955e-10
1.02314e-12
-3.23536e-12
3.79198e-12
-9.30047e-12
8.14343e-12
-1.50343e-11
1.39779e-11
-2.04782e-11
2.11974e-11
-2.56408e-11
2.97089e-11
-3.0529e-11
3.94246e-11
-3.51504e-11
5.02614e-11
-3.95117e-11
6.21408e-11
-4.36202e-11
7.49872e-11
-4.74817e-11
8.87288e-11
-5.1103e-11
1.03296e-10
-5.44887e-11
1.18622e-10
-5.76453e-11
1.34641e-10
-6.05759e-11
1.51293e-10
-6.32869e-11
1.68514e-10
-6.57789e-11
1.86246e-10
-6.80585e-11
2.04429e-10
-7.01218e-11
2.23005e-10
-7.19769e-11
2.41913e-10
-7.36114e-11
2.61097e-10
-7.50373e-11
2.80489e-10
-7.62269e-11
3.00032e-10
-7.72013e-11
3.1964e-10
-7.79041e-11
3.39258e-10
-7.83764e-11
3.58792e-10
-7.85136e-11
3.78157e-10
-7.83853e-11
4.36997e-10
-7.77868e-11
4.07221e-10
-7.5853e-11
4.25943e-10
-7.76127e-11
4.47005e-10
-7.97397e-11
4.74548e-10
-8.63366e-11
5.19432e-10
-1.05436e-10
5.58515e-10
-1.05683e-10
5.8543e-10
-9.31351e-11
6.18578e-10
-8.2054e-11
6.72386e-10
-5.3526e-11
7.66279e-10
3.8261e-12
9.10534e-10
1.09535e-10
1.1148e-09
2.57842e-10
1.36386e-09
4.69722e-10
1.60272e-09
7.84354e-10
1.7969e-09
1.18275e-09
1.96268e-09
1.6103e-09
2.13156e-09
2.0395e-09
2.3241e-09
2.46256e-09
2.54338e-09
2.87405e-09
2.7777e-09
3.26566e-09
3.00733e-09
3.62668e-09
3.94634e-09
3.21209e-09
4.03538e-13
-3.6389e-12
1.75425e-12
-1.06512e-11
4.07658e-12
-1.73567e-11
7.33337e-12
-2.3735e-11
1.14842e-11
-2.97916e-11
1.64885e-11
-3.55334e-11
2.23061e-11
-4.0968e-11
2.88978e-11
-4.61034e-11
3.62251e-11
-5.09476e-11
4.42509e-11
-5.55075e-11
5.29385e-11
-5.97906e-11
6.22526e-11
-6.38028e-11
7.21592e-11
-6.75519e-11
8.2626e-11
-7.10426e-11
9.3622e-11
-7.4283e-11
1.0512e-10
-7.72764e-11
1.17093e-10
-8.00316e-11
1.2952e-10
-8.25496e-11
1.42384e-10
-8.48406e-11
1.55674e-10
-8.69014e-11
1.69382e-10
-8.87457e-11
1.83518e-10
-9.03621e-11
1.98088e-10
-9.1772e-11
2.13133e-10
-9.29488e-11
2.28686e-10
-9.3929e-11
2.4483e-10
-9.46575e-11
2.61636e-10
-9.51917e-11
2.7932e-10
-9.54704e-11
3.00582e-10
-9.60845e-11
2.60795e-10
-9.65131e-11
2.7513e-10
-9.70228e-11
2.86864e-10
-9.807e-11
2.81821e-10
-1.00393e-10
2.80689e-10
-1.04551e-10
2.98694e-10
-1.1114e-10
3.36917e-10
-1.20277e-10
4.08803e-10
-1.25412e-10
5.34884e-10
-1.22255e-10
7.54313e-10
-1.09893e-10
1.08701e-09
-7.48535e-11
1.54306e-09
1.36669e-11
2.12179e-09
2.05628e-10
2.81218e-09
4.92362e-10
3.57189e-09
8.50588e-10
4.27489e-09
1.3365e-09
4.84626e-09
1.89119e-09
5.30187e-09
2.41845e-09
5.67525e-09
2.89227e-09
5.98956e-09
3.31237e-09
3.68232e-09
6.25357e-09
2.25811e-13
-3.86471e-12
7.73126e-13
-1.11985e-11
1.60681e-12
-1.81903e-11
2.73768e-12
-2.48659e-11
4.17503e-12
-3.1229e-11
5.92694e-12
-3.72853e-11
7.99977e-12
-4.30408e-11
1.03989e-11
-4.85025e-11
1.31284e-11
-5.36771e-11
1.61917e-11
-5.85709e-11
1.95914e-11
-6.31903e-11
2.33299e-11
-6.75413e-11
2.74083e-11
-7.16303e-11
3.18287e-11
-7.5463e-11
3.65917e-11
-7.9046e-11
4.16998e-11
-8.23846e-11
4.7154e-11
-8.54857e-11
5.29588e-11
-8.83544e-11
5.91164e-11
-9.09982e-11
6.56364e-11
-9.34214e-11
7.25238e-11
-9.56331e-11
7.97982e-11
-9.76365e-11
8.74688e-11
-9.94426e-11
9.55733e-11
-1.01053e-10
1.04127e-10
-1.02483e-10
1.13201e-10
-1.03731e-10
1.22827e-10
-1.04818e-10
1.33097e-10
-1.0574e-10
1.43522e-10
-1.0651e-10
1.54104e-10
-1.07095e-10
1.68064e-10
-1.07591e-10
1.61669e-10
-1.07649e-10
1.69232e-10
-1.08621e-10
1.74242e-10
-1.09561e-10
1.73925e-10
-1.10822e-10
1.66019e-10
-1.12371e-10
1.54425e-10
-1.13818e-10
1.45831e-10
-1.13662e-10
1.45163e-10
-1.09226e-10
1.70257e-10
-9.99467e-11
2.71975e-10
-8.80511e-11
5.4919e-10
-7.15877e-11
1.07895e-09
-3.73986e-11
1.8662e-09
6.33419e-11
2.87175e-09
3.30946e-10
4.02037e-09
7.42566e-10
5.16132e-09
1.27749e-09
6.12357e-09
1.93002e-09
6.87685e-09
2.5591e-09
3.10464e-09
7.45453e-09
-1.47438e-13
-3.71727e-12
-4.56609e-13
-1.08893e-11
-8.68483e-13
-1.77785e-11
-1.35762e-12
-2.43767e-11
-1.89611e-12
-3.06905e-11
-2.4548e-12
-3.67266e-11
-3.00404e-12
-4.24916e-11
-3.5144e-12
-4.79921e-11
-3.95702e-12
-5.32345e-11
-4.30353e-12
-5.82244e-11
-4.52643e-12
-6.29674e-11
-4.59902e-12
-6.74687e-11
-4.49604e-12
-7.17333e-11
-4.19321e-12
-7.57658e-11
-3.66837e-12
-7.95708e-11
-2.90055e-12
-8.31524e-11
-1.87175e-12
-8.65145e-11
-5.653e-13
-8.96608e-11
1.03128e-12
-9.25947e-11
2.92912e-12
-9.53193e-11
5.13346e-12
-9.78374e-11
7.64831e-12
-1.00151e-10
1.04693e-11
-1.02264e-10
1.35913e-11
-1.04175e-10
1.69969e-11
-1.05889e-10
2.06689e-11
-1.07403e-10
2.45715e-11
-1.08721e-10
2.86706e-11
-1.09839e-10
3.29204e-11
-1.1076e-10
3.73015e-11
-1.11476e-10
4.17014e-11
-1.11991e-10
4.6601e-11
-1.12418e-10
4.57059e-11
-1.12661e-10
4.61926e-11
-1.12793e-10
4.80953e-11
-1.12725e-10
4.81886e-11
-1.12464e-10
4.62817e-11
-1.11911e-10
4.35058e-11
-1.10886e-10
4.36156e-11
-1.09336e-10
5.12459e-11
-1.07577e-10
6.88648e-11
-1.0567e-10
1.00236e-10
-1.02958e-10
1.60835e-10
-9.79978e-11
3.11407e-10
-8.723e-11
7.0349e-10
-6.11368e-11
1.43359e-09
1.24666e-11
2.47676e-09
2.34323e-10
3.73197e-09
6.74808e-10
5.0053e-09
1.28578e-09
1.99986e-09
6.11008e-09
-2.4109e-13
-3.47618e-12
-9.92804e-13
-1.01376e-11
-2.22553e-12
-1.65457e-11
-3.88183e-12
-2.27205e-11
-5.90617e-12
-2.86661e-11
-8.24525e-12
-3.43875e-11
-1.08478e-11
-3.98891e-11
-1.36647e-11
-4.51752e-11
-1.66491e-11
-5.025e-11
-1.97563e-11
-5.51172e-11
-2.29432e-11
-5.97804e-11
-2.61691e-11
-6.42428e-11
-2.93948e-11
-6.85076e-11
-3.25828e-11
-7.25778e-11
-3.56975e-11
-7.64561e-11
-3.87049e-11
-8.01451e-11
-4.15722e-11
-8.36472e-11
-4.42685e-11
-8.69646e-11
-4.67638e-11
-9.00994e-11
-4.903e-11
-9.30531e-11
-5.10397e-11
-9.58278e-11
-5.2767e-11
-9.8424e-11
-5.41868e-11
-1.00844e-10
-5.52754e-11
-1.03087e-10
-5.60093e-11
-1.05155e-10
-5.63669e-11
-1.07046e-10
-5.63246e-11
-1.08763e-10
-5.58591e-11
-1.10304e-10
-5.49427e-11
-1.11676e-10
-5.35477e-11
-1.12871e-10
-5.16115e-11
-1.13927e-10
-4.93661e-11
-1.14664e-10
-4.68578e-11
-1.15169e-10
-4.51588e-11
-1.15338e-10
-4.42033e-11
-1.15295e-10
-4.15439e-11
-1.15124e-10
-3.86076e-11
-1.14848e-10
-3.50245e-11
-1.14469e-10
-3.03379e-11
-1.14022e-10
-2.44294e-11
-1.13486e-10
-1.73284e-11
-1.12771e-10
-8.65241e-12
-1.11634e-10
2.78073e-12
-1.09431e-10
2.03199e-11
-1.04769e-10
5.45771e-11
-9.5394e-11
1.44763e-10
-7.77197e-11
4.20958e-10
-4.18715e-11
1.04557e-09
5.01912e-11
2.02475e-09
3.06599e-10
7.88013e-10
3.2366e-09
-4.46111e-13
-3.03007e-12
-1.61905e-12
-8.96468e-12
-3.41565e-12
-1.47491e-11
-5.76446e-12
-2.03716e-11
-8.59768e-12
-2.58329e-11
-1.18515e-11
-3.11337e-11
-1.54657e-11
-3.62749e-11
-1.93837e-11
-4.12572e-11
-2.3552e-11
-4.60817e-11
-2.792e-11
-5.07492e-11
-3.244e-11
-5.52604e-11
-3.70663e-11
-5.96165e-11
-4.17557e-11
-6.38183e-11
-4.64668e-11
-6.78667e-11
-5.11599e-11
-7.17629e-11
-5.57971e-11
-7.55079e-11
-6.03415e-11
-7.91028e-11
-6.47574e-11
-8.25487e-11
-6.90099e-11
-8.58468e-11
-7.30649e-11
-8.89981e-11
-7.68887e-11
-9.2004e-11
-8.04474e-11
-9.48654e-11
-8.37063e-11
-9.75849e-11
-8.6624e-11
-1.00169e-10
-8.91531e-11
-1.02626e-10
-9.12383e-11
-1.0496e-10
-9.27923e-11
-1.07209e-10
-9.36737e-11
-1.09423e-10
-9.40569e-11
-1.11293e-10
-9.39356e-11
-1.12992e-10
-9.38669e-11
-1.1429e-10
-9.4406e-11
-1.15957e-10
-9.88277e-11
-1.1654e-10
-9.79691e-11
-1.16593e-10
-9.6452e-11
-1.16812e-10
-9.44453e-11
-1.1713e-10
-9.16631e-11
-1.1763e-10
-8.78925e-11
-1.18239e-10
-8.31997e-11
-1.18715e-10
-7.77182e-11
-1.18967e-10
-7.16688e-11
-1.1882e-10
-6.54643e-11
-1.17839e-10
-5.97655e-11
-1.1513e-10
-5.54976e-11
-1.09037e-10
-5.29876e-11
-9.7904e-11
-4.65077e-11
-8.41996e-11
-2.33469e-11
-6.50324e-11
6.39349e-11
-3.70906e-11
3.5218e-10
1.8354e-11
1.61354e-10
9.7884e-10
-2.33863e-13
-2.7962e-12
-9.29535e-13
-8.26901e-12
-2.04576e-12
-1.36329e-11
-3.52464e-12
-1.88928e-11
-5.31014e-12
-2.40474e-11
-7.34769e-12
-2.90961e-11
-9.58487e-12
-3.40377e-11
-1.19704e-11
-3.88717e-11
-1.44553e-11
-4.35968e-11
-1.69916e-11
-4.82128e-11
-1.95341e-11
-5.2718e-11
-2.20379e-11
-5.71126e-11
-2.4462e-11
-6.13942e-11
-2.67651e-11
-6.55636e-11
-2.89109e-11
-6.96172e-11
-3.08619e-11
-7.35569e-11
-3.25873e-11
-7.73774e-11
-3.40537e-11
-8.10824e-11
-3.52344e-11
-8.46661e-11
-3.60878e-11
-8.81446e-11
-3.65762e-11
-9.15156e-11
-3.66442e-11
-9.47973e-11
-3.62195e-11
-9.80097e-11
-3.51319e-11
-1.01257e-10
-3.35026e-11
-1.04255e-10
-3.15831e-11
-1.0688e-10
-2.97657e-11
-1.09149e-10
-2.97359e-11
-1.11124e-10
-3.22287e-11
-1.14241e-10
-3.62791e-11
-1.15084e-10
-3.56214e-11
-1.15028e-10
-3.65027e-11
-1.15099e-10
-3.78183e-11
-1.15227e-10
-3.91564e-11
-1.15255e-10
-4.09039e-11
-1.15064e-10
-4.33065e-11
-1.14728e-10
-4.62129e-11
-1.14723e-10
-4.78807e-11
-1.16572e-10
-4.63696e-11
-1.20226e-10
-4.34736e-11
-1.21863e-10
-4.07945e-11
-1.21499e-10
-3.9254e-11
-1.1938e-10
-4.10402e-11
-1.13344e-10
-5.04743e-11
-9.9603e-11
-7.40384e-11
-7.43399e-11
-1.29339e-10
-2.88988e-11
-1.65435e-10
-2.89363e-11
-1.77026e-10
-2.55003e-11
-1.57169e-10
-1.50259e-12
4.26025e-11
-3.8418e-11
-1.016e-13
-2.6946e-12
-3.42596e-13
-8.02801e-12
-6.74329e-13
-1.33012e-11
-1.05459e-12
-1.85125e-11
-1.43909e-12
-2.36629e-11
-1.78307e-12
-2.87522e-11
-2.04084e-12
-3.37799e-11
-2.16718e-12
-3.87454e-11
-2.11691e-12
-4.36471e-11
-1.84582e-12
-4.84839e-11
-1.31118e-12
-5.32526e-11
-4.71276e-13
-5.79526e-11
7.11749e-13
-6.25772e-11
2.27608e-12
-6.71279e-11
4.25246e-12
-7.15936e-11
6.68795e-12
-7.59924e-11
9.63339e-12
-8.03228e-11
1.31554e-11
-8.46044e-11
1.73591e-11
-8.88698e-11
2.24816e-11
-9.32672e-11
2.84201e-11
-9.74541e-11
3.46852e-11
-1.01062e-10
4.08414e-11
-1.04275e-10
4.3697e-11
-1.06977e-10
4.07406e-11
-1.11086e-10
2.73865e-11
-1.14631e-10
2.53677e-11
-1.14097e-10
2.80395e-11
-1.13917e-10
2.74386e-11
-1.13677e-10
2.60012e-11
-1.13648e-10
2.44642e-11
-1.13492e-10
2.30296e-11
-1.13665e-10
2.26235e-11
-1.14821e-10
2.40565e-11
-1.16688e-10
2.64673e-11
-1.17475e-10
2.78951e-11
-1.16156e-10
2.6008e-11
-1.12836e-10
2.01527e-11
-1.10717e-10
1.55452e-11
-1.15619e-10
1.92841e-11
-1.25602e-10
3.09349e-11
-1.3315e-10
4.60024e-11
-1.34447e-10
5.85135e-11
-1.25855e-10
5.99186e-11
-1.01008e-10
4.29214e-11
-5.73428e-11
4.41693e-12
9.60568e-12
-5.99417e-11
3.54224e-11
-1.21748e-10
3.63065e-11
-1.34828e-10
1.15766e-11
5.15187e-11
-1.43744e-10
-3.25396e-14
-2.66206e-12
-8.69891e-14
-7.97356e-12
-1.02378e-13
-1.32858e-11
-6.23088e-15
-1.86087e-11
2.68694e-13
-2.39378e-11
7.94526e-13
-2.9278e-11
1.63445e-12
-3.46198e-11
2.86135e-12
-3.99723e-11
4.53307e-12
-4.53188e-11
6.72459e-12
-5.06754e-11
9.48637e-12
-5.60144e-11
1.29001e-11
-6.13663e-11
1.70274e-11
-6.67045e-11
2.20156e-11
-7.21161e-11
2.79596e-11
-7.75375e-11
3.51854e-11
-8.32182e-11
4.32921e-11
-8.84296e-11
5.17673e-11
-9.30796e-11
5.98673e-11
-9.72217e-11
6.16052e-11
-1.01172e-10
5.22245e-11
-1.07663e-10
2.78044e-11
-1.15148e-10
2.06576e-11
-1.1376e-10
2.61324e-11
-1.12771e-10
2.63516e-11
-1.1143e-10
2.1685e-11
-1.1e-10
1.68772e-11
-1.09289e-10
1.20429e-11
-1.09083e-10
7.68203e-12
-1.09316e-10
3.65709e-12
-1.09623e-10
-9.31573e-13
-1.08903e-10
-6.56992e-12
-1.08026e-10
-1.19166e-11
-1.09475e-10
-1.37556e-11
-1.14849e-10
-9.14519e-12
-1.22085e-10
3.49091e-12
-1.28792e-10
2.61368e-11
-1.35482e-10
5.83475e-11
-1.42927e-10
9.34418e-11
-1.50713e-10
1.27982e-10
-1.60142e-10
1.66775e-10
-1.71944e-10
2.13643e-10
-1.81314e-10
2.64093e-10
-1.76306e-10
3.11864e-10
-1.48778e-10
3.51522e-10
-9.70009e-11
4.21883e-10
-6.07557e-11
4.73298e-10
-1.59923e-11
5.01789e-10
7.81505e-12
4.80294e-10
3.30722e-11
9.25344e-11
4.39278e-10
6.13851e-15
-2.6682e-12
1.67066e-13
-8.13449e-12
5.9144e-13
-1.37102e-11
1.37053e-12
-1.93878e-11
2.59326e-12
-2.51605e-11
4.34659e-12
-3.10313e-11
6.71382e-12
-3.69871e-11
9.77735e-12
-4.30358e-11
1.3615e-11
-4.91564e-11
1.83242e-11
-5.53847e-11
2.4026e-11
-6.17162e-11
3.08486e-11
-6.81889e-11
3.89477e-11
-7.48036e-11
4.67988e-11
-7.99672e-11
5.5118e-11
-8.58763e-11
5.87307e-11
-9.12295e-11
3.6617e-11
-1.0119e-10
-7.83911e-12
-1.13159e-10
-2.01127e-11
-1.08343e-10
-1.73849e-11
-1.04452e-10
-2.23098e-11
-1.0298e-10
-2.96266e-11
-1.07909e-10
-3.43609e-11
-1.09025e-10
-3.16519e-11
-1.15479e-10
-3.01374e-11
-1.12945e-10
-3.12618e-11
-1.08876e-10
-3.48695e-11
-1.05681e-10
-3.78335e-11
-1.06119e-10
-3.84865e-11
-1.08663e-10
-3.56451e-11
-1.12464e-10
-2.78812e-11
-1.16667e-10
-1.37265e-11
-1.22181e-10
7.25959e-12
-1.30461e-10
3.41908e-11
-1.41781e-10
6.74223e-11
-1.55317e-10
1.06659e-10
-1.68029e-10
1.53116e-10
-1.81939e-10
2.13512e-10
-2.03323e-10
2.81044e-10
-2.18245e-10
3.41991e-10
-2.21089e-10
3.91317e-10
-2.2127e-10
4.31009e-10
-2.21006e-10
4.6149e-10
-2.06787e-10
4.94066e-10
-1.81354e-10
5.42181e-10
-1.45116e-10
5.92033e-10
-1.10608e-10
6.50528e-10
-7.44873e-11
6.91361e-10
-3.30183e-11
6.89762e-10
3.46709e-11
1.25009e-10
6.57287e-10
1.26537e-13
-2.79473e-12
5.70955e-13
-8.57891e-12
1.43536e-12
-1.45746e-11
2.84313e-12
-2.07955e-11
4.9205e-12
-2.72379e-11
7.79964e-12
-3.39105e-11
1.16182e-11
-4.08056e-11
1.65205e-11
-4.79381e-11
2.26639e-11
-5.52998e-11
3.02552e-11
-6.2976e-11
3.73042e-11
-6.87651e-11
4.47543e-11
-7.5639e-11
4.72912e-11
-8.16134e-11
-5.63827e-12
-9.89345e-11
-6.40383e-11
-8.01832e-11
-8.31005e-11
-7.31483e-11
-5.1847e-11
-1.32803e-10
-5.64887e-11
-1.08623e-10
-5.17682e-11
-1.13064e-10
-4.41402e-11
-1.1208e-10
-6.04866e-11
-8.66341e-11
-5.98762e-11
-1.08519e-10
-6.72946e-11
-1.01607e-10
-7.28156e-11
-1.09958e-10
-7.02877e-11
-1.15472e-10
-5.8367e-11
-1.20797e-10
-3.65743e-11
-1.27474e-10
-6.05022e-12
-1.36643e-10
3.43121e-11
-1.49026e-10
8.51601e-11
-1.63312e-10
1.48044e-10
-1.7955e-10
2.24146e-10
-1.98283e-10
3.11774e-10
-2.18089e-10
4.06836e-10
-2.36842e-10
5.04746e-10
-2.53226e-10
6.0317e-10
-2.66453e-10
6.96572e-10
-2.75341e-10
7.75744e-10
-2.82495e-10
8.40062e-10
-2.82563e-10
8.94795e-10
-2.75821e-10
9.397e-10
-2.66175e-10
9.64679e-10
-2.45985e-10
9.78255e-10
-2.20363e-10
9.72937e-10
-1.76037e-10
9.5244e-10
-1.24618e-10
9.17285e-10
-7.54528e-11
9.19204e-10
-7.64063e-11
9.37568e-10
-5.13828e-11
9.67649e-10
4.58981e-12
7.72052e-11
1.01545e-09
-6.95653e-14
-2.72516e-12
-1.29539e-13
-8.51893e-12
-1.1246e-13
-1.45916e-11
5.09098e-14
-2.09589e-11
3.89492e-13
-2.75765e-11
1.00942e-12
-3.45304e-11
1.93065e-12
-4.17269e-11
2.69509e-12
-4.87026e-11
2.68162e-12
-5.52863e-11
4.73287e-13
-6.25218e-11
-5.01469e-11
-8.32198e-11
-1.30639e-10
-5.06212e-11
-1.61527e-10
-5.17368e-11
-1.16234e-10
-1.44445e-10
-1.0313e-10
-9.32872e-11
-1.17811e-10
-5.84672e-11
-1.5858e-10
-9.20343e-11
-1.56439e-10
-1.10765e-10
-1.63737e-10
-1.05765e-10
-1.67053e-10
-1.08764e-10
-1.30467e-10
-1.2322e-10
-1.20381e-10
-1.18605e-10
-8.76705e-11
-1.34317e-10
-5.93682e-11
-1.38261e-10
-2.50159e-11
-1.49825e-10
2.10136e-11
-1.66826e-10
7.85991e-11
-1.85059e-10
1.48691e-10
-2.06735e-10
2.30791e-10
-2.31125e-10
3.24885e-10
-2.57406e-10
4.29713e-10
-2.84378e-10
5.42256e-10
-3.10826e-10
6.59404e-10
-3.35237e-10
7.78154e-10
-3.55593e-10
8.94358e-10
-3.6943e-10
1.00222e-09
-3.74313e-10
1.09573e-09
-3.68857e-10
1.16603e-09
-3.52792e-10
1.21869e-09
-3.3522e-10
1.24981e-09
-3.0694e-10
1.26563e-09
-2.81997e-10
1.30717e-09
-2.87527e-10
1.33044e-09
-2.43628e-10
1.35498e-09
-2.00583e-10
1.38431e-09
-1.53947e-10
1.4227e-09
-1.1384e-10
1.44194e-09
-9.56459e-11
1.46423e-09
-7.36772e-11
1.50818e-09
-3.93551e-11
7.42834e-12
1.57795e-09
1.50861e-13
3.84084e-13
5.29268e-13
4.37066e-13
-4.24666e-14
-1.08611e-12
-2.87905e-12
-2.54431e-12
-5.63189e-11
-1.16809e-10
-1.32357e-10
-1.02236e-10
-6.72652e-11
-1.27463e-10
-1.05898e-10
-5.34324e-11
-4.59005e-11
-4.58585e-11
-3.2447e-11
-1.42479e-11
-3.61056e-12
1.70497e-11
2.70137e-11
4.03675e-11
5.05259e-11
4.80757e-11
3.89104e-11
2.3923e-11
5.24474e-12
-1.43942e-11
-3.11602e-11
-4.09505e-11
-4.01566e-11
-2.63349e-11
-9.507e-13
3.47954e-11
7.27989e-11
1.09785e-10
1.3721e-10
1.85725e-10
2.49981e-10
2.72826e-10
3.19487e-10
3.81516e-10
4.65228e-10
5.7164e-10
6.45476e-10
7.01317e-10
7.47237e-10
7.89406e-10
3.01511e-09
4.18483e-09
2.53321e-09
4.27215e-09
2.02065e-09
4.30063e-09
1.49827e-09
4.29831e-09
9.76911e-10
4.28182e-09
4.61389e-10
4.25981e-09
-4.6606e-11
4.23611e-09
-5.46763e-10
4.21205e-09
-1.03923e-09
4.18808e-09
-1.52431e-09
4.16435e-09
-2.00228e-09
4.14082e-09
-2.47344e-09
4.11743e-09
-2.93802e-09
4.09415e-09
-3.39626e-09
4.07096e-09
-3.84835e-09
4.04782e-09
-4.2945e-09
4.02472e-09
-4.73486e-09
4.00165e-09
-5.16961e-09
3.97859e-09
-5.59889e-09
3.95552e-09
-6.02284e-09
3.93243e-09
-6.44157e-09
3.90932e-09
-6.85522e-09
3.88616e-09
-7.26387e-09
3.86296e-09
-7.66763e-09
3.8397e-09
-8.06659e-09
3.81637e-09
-8.46083e-09
3.79297e-09
-8.85042e-09
3.76949e-09
-9.23543e-09
3.74592e-09
-9.61593e-09
3.72225e-09
-9.99198e-09
3.69849e-09
-1.03636e-08
3.67462e-09
-1.07309e-08
3.65064e-09
-1.10939e-08
3.62653e-09
-1.14526e-08
3.60231e-09
-1.18071e-08
3.57796e-09
-1.21574e-08
3.55348e-09
-1.25035e-08
3.52887e-09
-1.28454e-08
3.50412e-09
-1.31832e-08
3.47924e-09
-1.35168e-08
3.45422e-09
-1.38463e-08
3.42907e-09
-1.41717e-08
3.40378e-09
-1.4493e-08
3.37837e-09
-1.48102e-08
3.35284e-09
-1.51232e-08
3.32718e-09
-1.54322e-08
3.30139e-09
-1.57371e-08
3.27547e-09
-1.60379e-08
3.2494e-09
-1.63345e-08
3.22317e-09
3.19681e-09
-1.66271e-08
6.2005e-10
4.39965e-09
3.48135e-10
4.54406e-09
4.17148e-11
4.60705e-09
-2.83647e-10
4.62367e-09
-6.18288e-10
4.61646e-09
-9.56614e-10
4.59813e-09
-1.29572e-09
4.57522e-09
-1.63435e-09
4.55068e-09
-1.97197e-09
4.52569e-09
-2.30827e-09
4.50065e-09
-2.64309e-09
4.47564e-09
-2.97631e-09
4.45065e-09
-3.30784e-09
4.42569e-09
-3.6376e-09
4.40072e-09
-3.96552e-09
4.37573e-09
-4.29151e-09
4.35071e-09
-4.61551e-09
4.32566e-09
-4.93747e-09
4.30055e-09
-5.25733e-09
4.27538e-09
-5.57503e-09
4.25014e-09
-5.89052e-09
4.22481e-09
-6.20376e-09
4.1994e-09
-6.51469e-09
4.17389e-09
-6.82327e-09
4.14828e-09
-7.12946e-09
4.12255e-09
-7.43321e-09
4.09671e-09
-7.73447e-09
4.07075e-09
-8.03321e-09
4.04466e-09
-8.32939e-09
4.01844e-09
-8.62297e-09
3.99207e-09
-8.91392e-09
3.96556e-09
-9.20219e-09
3.93891e-09
-9.48775e-09
3.91209e-09
-9.77056e-09
3.88512e-09
-1.00506e-08
3.85798e-09
-1.03278e-08
3.83068e-09
-1.06021e-08
3.80321e-09
-1.08736e-08
3.77556e-09
-1.1142e-08
3.74773e-09
-1.14076e-08
3.71973e-09
-1.167e-08
3.69155e-09
-1.19294e-08
3.66319e-09
-1.21857e-08
3.63466e-09
-1.24388e-08
3.60596e-09
-1.26888e-08
3.5771e-09
-1.29354e-08
3.54807e-09
-1.31788e-08
3.51886e-09
-1.34189e-08
3.48947e-09
-1.36556e-08
3.45989e-09
3.43013e-09
-1.38889e-08
-2.04578e-09
4.4963e-09
-2.1584e-09
4.65668e-09
-2.28769e-09
4.73634e-09
-2.43112e-09
4.7671e-09
-2.58543e-09
4.77077e-09
-2.74794e-09
4.76064e-09
-2.91673e-09
4.74401e-09
-3.09059e-09
4.72453e-09
-3.26872e-09
4.70383e-09
-3.45063e-09
4.68256e-09
-3.63593e-09
4.66094e-09
-3.82431e-09
4.63904e-09
-4.0155e-09
4.61688e-09
-4.20924e-09
4.59445e-09
-4.40527e-09
4.57176e-09
-4.60335e-09
4.5488e-09
-4.80325e-09
4.52556e-09
-5.00476e-09
4.50206e-09
-5.20766e-09
4.47828e-09
-5.41175e-09
4.45423e-09
-5.61684e-09
4.4299e-09
-5.82273e-09
4.4053e-09
-6.02926e-09
4.38042e-09
-6.23624e-09
4.35526e-09
-6.4435e-09
4.32982e-09
-6.65089e-09
4.3041e-09
-6.85826e-09
4.27811e-09
-7.06544e-09
4.25184e-09
-7.27229e-09
4.22529e-09
-7.47869e-09
4.19847e-09
-7.68449e-09
4.17136e-09
-7.88957e-09
4.14398e-09
-8.0938e-09
4.11632e-09
-8.29706e-09
4.08839e-09
-8.49925e-09
4.06017e-09
-8.70023e-09
4.03167e-09
-8.89992e-09
4.00289e-09
-9.09819e-09
3.97383e-09
-9.29495e-09
3.94449e-09
-9.49008e-09
3.91486e-09
-9.68349e-09
3.88496e-09
-9.87508e-09
3.85478e-09
-1.00647e-08
3.82432e-09
-1.02524e-08
3.79359e-09
-1.04379e-08
3.76261e-09
-1.06212e-08
3.73136e-09
-1.08022e-08
3.69986e-09
-1.09808e-08
3.66808e-09
-1.11569e-08
3.63603e-09
3.60374e-09
-1.13305e-08
-3.27278e-09
4.54126e-09
-3.30822e-09
4.69212e-09
-3.34582e-09
4.77394e-09
-3.39038e-09
4.81167e-09
-3.44309e-09
4.82348e-09
-3.50359e-09
4.82113e-09
-3.57109e-09
4.81151e-09
-3.64483e-09
4.79828e-09
-3.72422e-09
4.78322e-09
-3.8088e-09
4.76714e-09
-3.89822e-09
4.75036e-09
-3.99218e-09
4.733e-09
-4.09041e-09
4.71511e-09
-4.19265e-09
4.6967e-09
-4.29867e-09
4.67777e-09
-4.40822e-09
4.65834e-09
-4.52106e-09
4.63841e-09
-4.63698e-09
4.61797e-09
-4.75575e-09
4.59705e-09
-4.87715e-09
4.57563e-09
-5.00098e-09
4.55373e-09
-5.12703e-09
4.53134e-09
-5.25509e-09
4.50848e-09
-5.38499e-09
4.48515e-09
-5.51652e-09
4.46135e-09
-5.6495e-09
4.43709e-09
-5.78375e-09
4.41236e-09
-5.9191e-09
4.38718e-09
-6.05536e-09
4.36155e-09
-6.19237e-09
4.33548e-09
-6.32997e-09
4.30896e-09
-6.46799e-09
4.28201e-09
-6.60629e-09
4.25463e-09
-6.74472e-09
4.22681e-09
-6.88313e-09
4.19858e-09
-7.02137e-09
4.16991e-09
-7.15932e-09
4.14083e-09
-7.29682e-09
4.11134e-09
-7.43376e-09
4.08142e-09
-7.56999e-09
4.0511e-09
-7.7054e-09
4.02036e-09
-7.83985e-09
3.98922e-09
-7.97321e-09
3.95768e-09