/*--------------------------------*- C++ -*----------------------------------*\
| =========                 |                                                 |
| \\      /  F ield         | OpenFOAM: The Open Source CFD Toolbox           |
|  \\    /   O peration     | Version:  2.4.0                                 |
|   \\  /    A nd           | Web:      www.OpenFOAM.org                      |
|    \\/     M anipulation  |                                                 |
\*---------------------------------------------------------------------------*/
FoamFile
{
    version     2.0;
    format      ascii;
    class       volScalarField;
    location    "2.7";
    object      T;
}
// * * * * * * * * * * * * * * * * * * * * * * * * * * * * * * * * * * * * * //

dimensions      [0 0 0 1 0 0 0];

internalField   nonuniform List<scalar> 
125
(
293.12
293.12
293.12
293.12
293.12
293.361
293.361
293.362
293.361
293.361
293.606
293.606
293.606
293.606
293.606
293.853
293.853
293.853
293.853
293.853
294.102
294.102
294.102
294.102
294.102
294.355
294.355
294.355
294.355
294.355
294.61
294.61
294.611
294.61
294.61
294.869
294.869
294.869
294.869
294.869
295.131
295.131
295.131
295.131
295.13
295.395
295.395
295.395
295.395
295.395
295.663
295.663
295.663
295.663
295.663
295.934
295.934
295.934
295.934
295.934
296.208
296.208
296.208
296.208
296.208
296.486
296.486
296.486
296.486
296.486
296.766
296.766
296.767
296.766
296.766
297.051
297.051
297.051
297.051
297.051
297.339
297.339
297.339
297.339
297.339
297.63
297.63
297.63
297.63
297.63
297.991
297.991
297.991
297.991
297.991
297.991
297.991
297.991
297.991
297.991
297.991
297.991
297.991
297.991
297.991
297.991
297.991
297.991
297.991
297.991
297.991
297.991
297.991
297.991
297.991
297.991
297.991
297.991
297.991
297.991
297.991
297.991
297.991
297.991
297.991
)
;

boundaryField
{
    BotWall
    {
        type            fixedValue;
        value           uniform 293;
    }
    FreeStream
    {
        type            fixedValue;
        value           nonuniform 0();
    }
    FrontNBack
    {
        type            empty;
    }
    LeftSide
    {
        type            symmetryPlane;
    }
    RightSide
    {
        type            symmetryPlane;
    }
    procBoundary0to1
    {
        type            processor;
        value           nonuniform List<scalar> 5(297.991 297.991 297.991 297.991 297.991);
    }
}


// ************************************************************************* //
