/*--------------------------------*- C++ -*----------------------------------*\
| =========                 |                                                 |
| \\      /  F ield         | OpenFOAM: The Open Source CFD Toolbox           |
|  \\    /   O peration     | Version:  2.4.0                                 |
|   \\  /    A nd           | Web:      www.OpenFOAM.org                      |
|    \\/     M anipulation  |                                                 |
\*---------------------------------------------------------------------------*/
FoamFile
{
    version     2.0;
    format      ascii;
    class       volScalarField;
    location    "2";
    object      H;
}
// * * * * * * * * * * * * * * * * * * * * * * * * * * * * * * * * * * * * * //

dimensions      [0 2 -2 0 0 0 0];

internalField   nonuniform List<scalar> 
500
(
-11903
-11903
-11903
-11903
-11903
-11245.5
-11245.5
-11245.5
-11245.5
-11245.5
-10580.8
-10580.8
-10580.8
-10580.8
-10580.8
-9909.14
-9909.15
-9909.16
-9909.15
-9909.14
-9230.49
-9230.51
-9230.52
-9230.51
-9230.49
-8544.92
-8544.94
-8544.95
-8544.94
-8544.92
-7852.41
-7852.43
-7852.44
-7852.43
-7852.41
-7152.92
-7152.94
-7152.94
-7152.94
-7152.92
-6446.32
-6446.34
-6446.35
-6446.34
-6446.32
-5732.46
-5732.47
-5732.48
-5732.47
-5732.46
-5011.06
-5011.07
-5011.07
-5011.07
-5011.06
-4281.8
-4281.8
-4281.8
-4281.8
-4281.8
-3544.26
-3544.25
-3544.24
-3544.25
-3544.26
-2797.93
-2797.91
-2797.89
-2797.91
-2797.93
-2042.24
-2042.21
-2042.18
-2042.21
-2042.24
-1276.55
-1276.5
-1276.46
-1276.5
-1276.55
-85.0333
-84.9999
-84.981
-84.9998
-85.034
-65.3124
-65.2863
-65.2715
-65.2863
-65.313
-65.9426
-65.9168
-65.9021
-65.9167
-65.9431
-66.5075
-66.482
-66.4675
-66.482
-66.5081
-67.0055
-66.9803
-66.966
-66.9803
-67.006
-67.435
-67.4102
-67.3961
-67.4101
-67.4355
-67.7944
-67.7701
-67.7561
-67.77
-67.795
-68.0826
-68.0587
-68.045
-68.0586
-68.0831
-68.2983
-68.2748
-68.2613
-68.2747
-68.2988
-68.4404
-68.4174
-68.4042
-68.4173
-68.4409
-68.5081
-68.4856
-68.4727
-68.4855
-68.5086
-68.5007
-68.4787
-68.4661
-68.4786
-68.5011
-68.4176
-68.3961
-68.3839
-68.3961
-68.418
-68.2585
-68.2376
-68.2257
-68.2376
-68.2589
-68.0232
-68.003
-67.9914
-68.003
-68.0236
-67.7119
-67.6923
-67.6811
-67.6923
-67.7123
-67.3248
-67.3059
-67.295
-67.3058
-67.3251
-66.8623
-66.8441
-66.8336
-66.8441
-66.8627
-66.3253
-66.3078
-66.2977
-66.3078
-66.3257
-65.7146
-65.6979
-65.6882
-65.6978
-65.715
-65.0315
-65.0155
-65.0062
-65.0154
-65.0319
-64.2774
-64.2621
-64.2533
-64.262
-64.2777
-63.4538
-63.4393
-63.4309
-63.4393
-63.4541
-62.5628
-62.549
-62.5411
-62.549
-62.5631
-61.6064
-61.5934
-61.5859
-61.5934
-61.6067
-60.587
-60.5748
-60.5677
-60.5747
-60.5872
-59.5071
-59.4957
-59.489
-59.4956
-59.5073
-58.3696
-58.3589
-58.3527
-58.3589
-58.3698
-57.1774
-57.1675
-57.1618
-57.1675
-57.1776
-55.9338
-55.9247
-55.9194
-55.9247
-55.934
-54.6422
-54.6339
-54.629
-54.6338
-54.6424
-53.3061
-53.2986
-53.2941
-53.2985
-53.3063
-51.9294
-51.9225
-51.9185
-51.9225
-51.9295
-50.5157
-50.5096
-50.506
-50.5096
-50.5158
-49.0693
-49.0639
-49.0607
-49.0639
-49.0694
-47.5942
-47.5895
-47.5867
-47.5894
-47.5943
-46.0946
-46.0906
-46.0881
-46.0905
-46.0946
-44.5748
-44.5714
-44.5694
-44.5714
-44.5748
-43.0392
-43.0364
-43.0347
-43.0363
-43.0392
-41.492
-41.4898
-41.4884
-41.4898
-41.492
-39.9376
-39.936
-39.935
-39.936
-39.9376
-38.3804
-38.3793
-38.3786
-38.3793
-38.3804
-36.8246
-36.824
-36.8236
-36.824
-36.8246
-35.2744
-35.2743
-35.2741
-35.2742
-35.2744
-33.7339
-33.7342
-33.7343
-33.7342
-33.7338
-32.207
-32.2077
-32.208
-32.2077
-32.2069
-30.6976
-30.6987
-30.6992
-30.6986
-30.6975
-29.2092
-29.2106
-29.2114
-29.2106
-29.2092
-27.7455
-27.7471
-27.748
-27.7471
-27.7454
-26.3094
-26.3114
-26.3124
-26.3113
-26.3093
-24.9042
-24.9063
-24.9075
-24.9063
-24.9041
-23.5324
-23.5348
-23.5361
-23.5348
-23.5323
-22.1967
-22.1992
-22.2006
-22.1992
-22.1966
-20.8992
-20.9019
-20.9033
-20.9018
-20.8991
-19.6418
-19.6446
-19.6461
-19.6446
-19.6417
-18.4263
-18.4291
-18.4307
-18.4291
-18.4262
-17.2539
-17.2568
-17.2583
-17.2567
-17.2538
-16.1257
-16.1286
-16.1302
-16.1285
-16.1256
-15.0424
-15.0453
-15.0469
-15.0453
-15.0423
-14.0046
-14.0074
-14.009
-14.0074
-14.0045
-13.0124
-13.0152
-13.0167
-13.0151
-13.0123
-12.0656
-12.0684
-12.0699
-12.0684
-12.0656
-11.1641
-11.1668
-11.1682
-11.1667
-11.164
-10.3071
-10.3097
-10.3111
-10.3097
-10.3071
-9.49388
-9.49634
-9.49771
-9.49632
-9.4938
-8.7233
-8.72565
-8.72695
-8.72563
-8.72324
-7.99416
-7.99638
-7.99762
-7.99636
-7.9941
-7.30502
-7.30711
-7.30827
-7.30709
-7.30496
-6.65429
-6.65625
-6.65734
-6.65624
-6.65424
-6.04027
-6.04208
-6.0431
-6.04207
-6.04022
-5.4611
-5.46277
-5.46371
-5.46276
-5.46105
-4.91485
-4.91638
-4.91724
-4.91638
-4.91481
-4.39951
-4.4009
-4.40168
-4.4009
-4.39947
-3.913
-3.91426
-3.91496
-3.91425
-3.91296
-3.4532
-3.45432
-3.45495
-3.45432
-3.45317
-3.01797
-3.01896
-3.01951
-3.01895
-3.01794
-2.60512
-2.60598
-2.60646
-2.60598
-2.6051
-2.21249
-2.21323
-2.21364
-2.21322
-2.21247
-1.83789
-1.8385
-1.83885
-1.8385
-1.83787
-1.47914
-1.47963
-1.47991
-1.47963
-1.47912
-1.13405
-1.13444
-1.13465
-1.13443
-1.13404
-0.800456
-0.800725
-0.800876
-0.800724
-0.800449
-0.476154
-0.476315
-0.476405
-0.476314
-0.47615
-0.158945
-0.158999
-0.159029
-0.158998
-0.158944
)
;

boundaryField
{
    BotWall
    {
        type            zeroGradient;
    }
    FreeStream
    {
        type            zeroGradient;
    }
    FrontNBack
    {
        type            empty;
    }
    LeftSide
    {
        type            symmetryPlane;
    }
    RightSide
    {
        type            symmetryPlane;
    }
}


// ************************************************************************* //
