/*--------------------------------*- C++ -*----------------------------------*\
| =========                 |                                                 |
| \\      /  F ield         | OpenFOAM: The Open Source CFD Toolbox           |
|  \\    /   O peration     | Version:  2.4.0                                 |
|   \\  /    A nd           | Web:      www.OpenFOAM.org                      |
|    \\/     M anipulation  |                                                 |
\*---------------------------------------------------------------------------*/
FoamFile
{
    version     2.0;
    format      ascii;
    class       volScalarField;
    location    "2";
    object      p;
}
// * * * * * * * * * * * * * * * * * * * * * * * * * * * * * * * * * * * * * //

dimensions      [1 -1 -2 0 0 0 0];

internalField   nonuniform List<scalar> 
500
(
0.497496
0.497503
0.497456
0.497503
0.497496
0.467602
0.467609
0.467563
0.467609
0.467602
0.437498
0.437505
0.43746
0.437505
0.437498
0.406968
0.406975
0.40693
0.406975
0.406967
0.3762
0.376208
0.376163
0.376208
0.376199
0.345022
0.345031
0.344986
0.345031
0.345022
0.313698
0.313708
0.313664
0.313708
0.313698
0.281873
0.281883
0.281839
0.281883
0.281873
0.24887
0.24888
0.248836
0.24888
0.248869
0.212968
0.212976
0.212932
0.212976
0.212968
0.177876
0.177886
0.177841
0.177886
0.177876
0.166197
0.166222
0.166182
0.166222
0.166196
0.214981
0.215045
0.215023
0.215045
0.21498
0.236308
0.236385
0.236393
0.236385
0.236306
-0.359783
-0.359918
-0.360011
-0.359918
-0.359783
-2.42284
-2.42362
-2.4241
-2.42362
-2.42282
-4.2552
-4.25694
-4.25792
-4.25694
-4.25516
-0.0161671
-0.0161669
-0.0161668
-0.0161669
-0.0161671
-0.00777432
-0.00777456
-0.00777461
-0.00777456
-0.00777431
-0.00993299
-0.00993292
-0.00993293
-0.00993292
-0.00993299
-0.0112635
-0.0112635
-0.0112635
-0.0112635
-0.0112635
-0.01196
-0.01196
-0.01196
-0.01196
-0.01196
-0.0125276
-0.0125276
-0.0125276
-0.0125276
-0.0125276
-0.0131306
-0.0131306
-0.0131306
-0.0131306
-0.0131306
-0.0137649
-0.0137649
-0.0137649
-0.0137649
-0.0137649
-0.0144114
-0.0144114
-0.0144114
-0.0144114
-0.0144114
-0.0150639
-0.0150639
-0.0150639
-0.0150639
-0.0150639
-0.0157227
-0.0157227
-0.0157227
-0.0157227
-0.0157227
-0.0163887
-0.0163887
-0.0163887
-0.0163887
-0.0163887
-0.0170622
-0.0170622
-0.0170622
-0.0170622
-0.0170622
-0.0177432
-0.0177432
-0.0177432
-0.0177432
-0.0177432
-0.0184318
-0.0184318
-0.0184318
-0.0184318
-0.0184318
-0.0191281
-0.0191281
-0.0191281
-0.0191281
-0.0191281
-0.0198322
-0.0198322
-0.0198322
-0.0198322
-0.0198322
-0.0205441
-0.0205441
-0.0205441
-0.0205441
-0.0205441
-0.0212639
-0.0212639
-0.0212639
-0.0212639
-0.0212639
-0.0219918
-0.0219918
-0.0219918
-0.0219918
-0.0219918
-0.0227279
-0.0227279
-0.0227279
-0.0227279
-0.0227279
-0.0234721
-0.0234721
-0.0234721
-0.0234721
-0.0234721
-0.0242246
-0.0242246
-0.0242246
-0.0242246
-0.0242246
-0.0249856
-0.0249856
-0.0249856
-0.0249856
-0.0249856
-0.025755
-0.025755
-0.025755
-0.025755
-0.025755
-0.026533
-0.026533
-0.026533
-0.026533
-0.026533
-0.0273197
-0.0273197
-0.0273197
-0.0273197
-0.0273197
-0.0281152
-0.0281152
-0.0281152
-0.0281152
-0.0281152
-0.0289196
-0.0289196
-0.0289196
-0.0289196
-0.0289196
-0.0297329
-0.0297329
-0.0297329
-0.0297329
-0.0297329
-0.0305553
-0.0305553
-0.0305553
-0.0305553
-0.0305553
-0.0313869
-0.0313869
-0.0313869
-0.0313869
-0.0313869
-0.0322277
-0.0322277
-0.0322277
-0.0322277
-0.0322277
-0.033078
-0.033078
-0.033078
-0.033078
-0.033078
-0.0339377
-0.0339377
-0.0339377
-0.0339377
-0.0339377
-0.034807
-0.034807
-0.034807
-0.034807
-0.034807
-0.0356861
-0.0356861
-0.0356861
-0.0356861
-0.0356861
-0.0365749
-0.0365749
-0.0365749
-0.0365749
-0.0365749
-0.0374737
-0.0374736
-0.0374736
-0.0374736
-0.0374737
-0.0383824
-0.0383824
-0.0383824
-0.0383824
-0.0383824
-0.0393014
-0.0393014
-0.0393014
-0.0393014
-0.0393014
-0.0402305
-0.0402305
-0.0402305
-0.0402305
-0.0402305
-0.0411701
-0.0411701
-0.0411701
-0.0411701
-0.0411701
-0.0421201
-0.0421201
-0.0421201
-0.0421201
-0.0421201
-0.0430807
-0.0430807
-0.0430807
-0.0430807
-0.0430807
-0.0440521
-0.0440521
-0.0440521
-0.0440521
-0.0440521
-0.0450343
-0.0450343
-0.0450343
-0.0450343
-0.0450343
-0.0460274
-0.0460274
-0.0460274
-0.0460274
-0.0460274
-0.0470317
-0.0470317
-0.0470317
-0.0470317
-0.0470317
-0.0480471
-0.0480471
-0.0480471
-0.0480471
-0.0480471
-0.0490739
-0.0490739
-0.0490739
-0.0490739
-0.0490739
-0.0501121
-0.0501121
-0.0501121
-0.0501121
-0.0501121
-0.0511619
-0.0511619
-0.0511619
-0.0511619
-0.0511619
-0.0522235
-0.0522234
-0.0522234
-0.0522234
-0.0522235
-0.0532968
-0.0532968
-0.0532968
-0.0532968
-0.0532968
-0.0543822
-0.0543822
-0.0543822
-0.0543822
-0.0543822
-0.0554796
-0.0554796
-0.0554796
-0.0554796
-0.0554796
-0.0565893
-0.0565893
-0.0565893
-0.0565893
-0.0565893
-0.0577114
-0.0577114
-0.0577114
-0.0577114
-0.0577114
-0.0588461
-0.0588461
-0.0588461
-0.0588461
-0.0588461
-0.0599933
-0.0599933
-0.0599933
-0.0599933
-0.0599933
-0.0611534
-0.0611534
-0.0611534
-0.0611534
-0.0611534
-0.0623264
-0.0623264
-0.0623264
-0.0623264
-0.0623264
-0.0635125
-0.0635125
-0.0635125
-0.0635125
-0.0635125
-0.0647119
-0.0647119
-0.0647119
-0.0647119
-0.0647119
-0.0659246
-0.0659246
-0.0659246
-0.0659246
-0.0659246
-0.0671509
-0.0671509
-0.0671509
-0.0671509
-0.0671509
-0.0683908
-0.0683908
-0.0683908
-0.0683908
-0.0683908
-0.0696446
-0.0696446
-0.0696446
-0.0696446
-0.0696446
-0.0709124
-0.0709124
-0.0709124
-0.0709124
-0.0709124
-0.0721943
-0.0721943
-0.0721943
-0.0721943
-0.0721943
-0.0734905
-0.0734905
-0.0734905
-0.0734905
-0.0734905
-0.0748012
-0.0748012
-0.0748012
-0.0748012
-0.0748012
-0.0761266
-0.0761266
-0.0761266
-0.0761266
-0.0761266
-0.0774667
-0.0774667
-0.0774667
-0.0774667
-0.0774667
-0.0788217
-0.0788217
-0.0788217
-0.0788217
-0.0788217
-0.0801919
-0.0801919
-0.0801919
-0.0801919
-0.0801919
-0.0815774
-0.0815774
-0.0815774
-0.0815774
-0.0815774
-0.0829783
-0.0829783
-0.0829783
-0.0829783
-0.0829783
-0.0843949
-0.0843949
-0.0843949
-0.0843949
-0.0843949
-0.0858272
-0.0858272
-0.0858272
-0.0858272
-0.0858272
-0.0872756
-0.0872756
-0.0872756
-0.0872756
-0.0872756
-0.0887401
-0.0887401
-0.0887401
-0.0887401
-0.0887401
)
;

boundaryField
{
    BotWall
    {
        type            calculated;
        value           nonuniform List<scalar> 5(0.512316 0.512323 0.512276 0.512323 0.512316);
    }
    FreeStream
    {
        type            calculated;
        value           nonuniform List<scalar> 5(-0.0894764 -0.0894764 -0.0894764 -0.0894764 -0.0894764);
    }
    FrontNBack
    {
        type            empty;
    }
    LeftSide
    {
        type            symmetryPlane;
    }
    RightSide
    {
        type            symmetryPlane;
    }
}


// ************************************************************************* //
