/*--------------------------------*- C++ -*----------------------------------*\
| =========                 |                                                 |
| \\      /  F ield         | OpenFOAM: The Open Source CFD Toolbox           |
|  \\    /   O peration     | Version:  2.4.0                                 |
|   \\  /    A nd           | Web:      www.OpenFOAM.org                      |
|    \\/     M anipulation  |                                                 |
\*---------------------------------------------------------------------------*/
FoamFile
{
    version     2.0;
    format      ascii;
    class       volScalarField;
    location    "2";
    object      p_rgh;
}
// * * * * * * * * * * * * * * * * * * * * * * * * * * * * * * * * * * * * * //

dimensions      [1 -1 -2 0 0 0 0];

internalField   nonuniform List<scalar> 
500
(
0.512316
0.512323
0.512276
0.512323
0.512316
0.512228
0.512235
0.512189
0.512235
0.512228
0.512263
0.51227
0.512224
0.51227
0.512262
0.512208
0.512215
0.51217
0.512215
0.512207
0.512255
0.512263
0.512218
0.512263
0.512254
0.512236
0.512244
0.5122
0.512244
0.512235
0.512419
0.512428
0.512384
0.512428
0.512418
0.512451
0.512461
0.512417
0.512461
0.512451
0.511662
0.511672
0.511628
0.511672
0.511661
0.508333
0.508341
0.508297
0.508341
0.508333
0.506178
0.506187
0.506143
0.506187
0.506177
0.527802
0.527828
0.527788
0.527828
0.527802
0.610262
0.610327
0.610304
0.610326
0.610261
0.665641
0.665718
0.665726
0.665718
0.665639
0.103981
0.103846
0.103753
0.103846
0.103981
-1.92426
-1.92504
-1.92552
-1.92504
-1.92424
-4.17373
-4.17543
-4.17639
-4.17543
-4.17369
-0.00673596
-0.00673576
-0.00673571
-0.00673576
-0.00673596
0.00225297
0.00225273
0.00225268
0.00225272
0.00225298
0.000697152
0.000697218
0.000697218
0.000697218
0.000697152
-2.37995e-05
-2.37423e-05
-2.37346e-05
-2.37424e-05
-2.37999e-05
-0.000103908
-0.000103901
-0.000103896
-0.000103901
-0.000103908
-4.8202e-05
-4.82054e-05
-4.82021e-05
-4.82054e-05
-4.82022e-05
-2.09854e-05
-2.0982e-05
-2.0979e-05
-2.0982e-05
-2.09856e-05
-1.81012e-05
-1.80936e-05
-1.80906e-05
-1.80937e-05
-1.81014e-05
-2.02104e-05
-2.02025e-05
-2.01995e-05
-2.02025e-05
-2.02106e-05
-2.11783e-05
-2.11711e-05
-2.11682e-05
-2.11712e-05
-2.11785e-05
-2.11793e-05
-2.11726e-05
-2.11697e-05
-2.11726e-05
-2.11795e-05
-2.09839e-05
-2.09773e-05
-2.09745e-05
-2.09774e-05
-2.09841e-05
-2.08335e-05
-2.0827e-05
-2.08242e-05
-2.0827e-05
-2.08337e-05
-2.07203e-05
-2.07139e-05
-2.07112e-05
-2.07139e-05
-2.07205e-05
-2.06135e-05
-2.06072e-05
-2.06045e-05
-2.06072e-05
-2.06136e-05
-2.05036e-05
-2.04974e-05
-2.04948e-05
-2.04975e-05
-2.05037e-05
-2.03909e-05
-2.03849e-05
-2.03823e-05
-2.03849e-05
-2.03911e-05
-2.02766e-05
-2.02707e-05
-2.02683e-05
-2.02708e-05
-2.02768e-05
-2.01612e-05
-2.01554e-05
-2.0153e-05
-2.01555e-05
-2.01614e-05
-2.00446e-05
-2.00389e-05
-2.00366e-05
-2.00389e-05
-2.00447e-05
-1.99266e-05
-1.99211e-05
-1.99188e-05
-1.99211e-05
-1.99268e-05
-1.98073e-05
-1.98019e-05
-1.97997e-05
-1.9802e-05
-1.98075e-05
-1.96867e-05
-1.96814e-05
-1.96793e-05
-1.96815e-05
-1.96869e-05
-1.95648e-05
-1.95596e-05
-1.95575e-05
-1.95597e-05
-1.95649e-05
-1.94415e-05
-1.94364e-05
-1.94344e-05
-1.94365e-05
-1.94416e-05
-1.93168e-05
-1.93119e-05
-1.93099e-05
-1.93119e-05
-1.9317e-05
-1.91907e-05
-1.91859e-05
-1.9184e-05
-1.9186e-05
-1.91909e-05
-1.90633e-05
-1.90585e-05
-1.90567e-05
-1.90586e-05
-1.90634e-05
-1.89344e-05
-1.89298e-05
-1.89279e-05
-1.89298e-05
-1.89345e-05
-1.8804e-05
-1.87995e-05
-1.87978e-05
-1.87996e-05
-1.88042e-05
-1.86723e-05
-1.86679e-05
-1.86661e-05
-1.86679e-05
-1.86724e-05
-1.8539e-05
-1.85347e-05
-1.8533e-05
-1.85348e-05
-1.85391e-05
-1.84043e-05
-1.84001e-05
-1.83984e-05
-1.84001e-05
-1.84044e-05
-1.8268e-05
-1.82639e-05
-1.82623e-05
-1.8264e-05
-1.82681e-05
-1.81302e-05
-1.81263e-05
-1.81247e-05
-1.81263e-05
-1.81304e-05
-1.79909e-05
-1.79871e-05
-1.79856e-05
-1.79871e-05
-1.7991e-05
-1.78501e-05
-1.78463e-05
-1.78449e-05
-1.78464e-05
-1.78502e-05
-1.77077e-05
-1.7704e-05
-1.77026e-05
-1.7704e-05
-1.77078e-05
-1.75636e-05
-1.75601e-05
-1.75587e-05
-1.75601e-05
-1.75637e-05
-1.7418e-05
-1.74146e-05
-1.74132e-05
-1.74146e-05
-1.74181e-05
-1.72708e-05
-1.72674e-05
-1.72661e-05
-1.72674e-05
-1.72709e-05
-1.71219e-05
-1.71186e-05
-1.71174e-05
-1.71187e-05
-1.7122e-05
-1.69713e-05
-1.69682e-05
-1.6967e-05
-1.69682e-05
-1.69714e-05
-1.68191e-05
-1.6816e-05
-1.68149e-05
-1.68161e-05
-1.68192e-05
-1.66652e-05
-1.66622e-05
-1.66611e-05
-1.66622e-05
-1.66653e-05
-1.65095e-05
-1.65067e-05
-1.65056e-05
-1.65067e-05
-1.65096e-05
-1.63522e-05
-1.63494e-05
-1.63483e-05
-1.63494e-05
-1.63522e-05
-1.6193e-05
-1.61903e-05
-1.61893e-05
-1.61903e-05
-1.61931e-05
-1.60321e-05
-1.60295e-05
-1.60285e-05
-1.60295e-05
-1.60322e-05
-1.58694e-05
-1.58669e-05
-1.5866e-05
-1.58669e-05
-1.58695e-05
-1.57049e-05
-1.57025e-05
-1.57016e-05
-1.57025e-05
-1.5705e-05
-1.55386e-05
-1.55362e-05
-1.55353e-05
-1.55362e-05
-1.55386e-05
-1.53703e-05
-1.53681e-05
-1.53672e-05
-1.53681e-05
-1.53704e-05
-1.52003e-05
-1.51981e-05
-1.51973e-05
-1.51981e-05
-1.52003e-05
-1.50283e-05
-1.50262e-05
-1.50254e-05
-1.50262e-05
-1.50283e-05
-1.48544e-05
-1.48524e-05
-1.48516e-05
-1.48524e-05
-1.48544e-05
-1.46785e-05
-1.46766e-05
-1.46759e-05
-1.46766e-05
-1.46786e-05
-1.45008e-05
-1.44989e-05
-1.44982e-05
-1.44989e-05
-1.45008e-05
-1.4321e-05
-1.43192e-05
-1.43185e-05
-1.43192e-05
-1.4321e-05
-1.41392e-05
-1.41375e-05
-1.41368e-05
-1.41375e-05
-1.41392e-05
-1.39554e-05
-1.39537e-05
-1.39531e-05
-1.39537e-05
-1.39554e-05
-1.37695e-05
-1.37679e-05
-1.37674e-05
-1.37679e-05
-1.37695e-05
-1.35816e-05
-1.35801e-05
-1.35795e-05
-1.35801e-05
-1.35816e-05
-1.33915e-05
-1.33901e-05
-1.33896e-05
-1.33901e-05
-1.33916e-05
-1.31994e-05
-1.3198e-05
-1.31975e-05
-1.3198e-05
-1.31994e-05
-1.30051e-05
-1.30038e-05
-1.30033e-05
-1.30038e-05
-1.30051e-05
-1.28086e-05
-1.28074e-05
-1.2807e-05
-1.28074e-05
-1.28086e-05
-1.261e-05
-1.26088e-05
-1.26084e-05
-1.26088e-05
-1.261e-05
-1.24091e-05
-1.2408e-05
-1.24076e-05
-1.2408e-05
-1.24091e-05
-1.2206e-05
-1.2205e-05
-1.22046e-05
-1.2205e-05
-1.2206e-05
-1.20006e-05
-1.19997e-05
-1.19993e-05
-1.19997e-05
-1.20006e-05
-1.1793e-05
-1.17921e-05
-1.17918e-05
-1.17921e-05
-1.1793e-05
-1.1583e-05
-1.15822e-05
-1.15819e-05
-1.15822e-05
-1.1583e-05
-1.13707e-05
-1.13699e-05
-1.13696e-05
-1.13699e-05
-1.13707e-05
-1.1156e-05
-1.11553e-05
-1.1155e-05
-1.11553e-05
-1.1156e-05
-1.09389e-05
-1.09383e-05
-1.0938e-05
-1.09383e-05
-1.09389e-05
-1.07194e-05
-1.07188e-05
-1.07186e-05
-1.07188e-05
-1.07194e-05
-1.04974e-05
-1.0497e-05
-1.04968e-05
-1.0497e-05
-1.04974e-05
-1.0273e-05
-1.02726e-05
-1.02724e-05
-1.02726e-05
-1.0273e-05
-1.00461e-05
-1.00457e-05
-1.00456e-05
-1.00457e-05
-1.00461e-05
-9.81662e-06
-9.81633e-06
-9.81618e-06
-9.81633e-06
-9.81661e-06
-9.58456e-06
-9.58435e-06
-9.58422e-06
-9.58435e-06
-9.58456e-06
-9.34962e-06
-9.3496e-06
-9.34957e-06
-9.3496e-06
-9.34961e-06
)
;

boundaryField
{
    BotWall
    {
        type            fixedFluxPressure;
        gradient        uniform 0;
        value           nonuniform List<scalar> 5(0.512316 0.512323 0.512276 0.512323 0.512316);
    }
    FreeStream
    {
        type            totalPressure;
        rho             rho;
        psi             none;
        gamma           1;
        p0              uniform 0;
        value           nonuniform List<scalar> 5(-9.23136e-06 -9.23153e-06 -9.23158e-06 -9.23153e-06 -9.23135e-06);
    }
    FrontNBack
    {
        type            empty;
    }
    LeftSide
    {
        type            symmetryPlane;
    }
    RightSide
    {
        type            symmetryPlane;
    }
}


// ************************************************************************* //
