/*--------------------------------*- C++ -*----------------------------------*\
| =========                 |                                                 |
| \\      /  F ield         | OpenFOAM: The Open Source CFD Toolbox           |
|  \\    /   O peration     | Version:  2.4.0                                 |
|   \\  /    A nd           | Web:      www.OpenFOAM.org                      |
|    \\/     M anipulation  |                                                 |
\*---------------------------------------------------------------------------*/
FoamFile
{
    version     2.0;
    format      ascii;
    class       surfaceScalarField;
    location    "2";
    object      phi;
}
// * * * * * * * * * * * * * * * * * * * * * * * * * * * * * * * * * * * * * //

dimensions      [0 3 -1 0 0 0 0];

internalField   nonuniform List<scalar> 
895
(
1.53101e-18
-1.53078e-18
1.00947e-18
5.21461e-19
-1.01805e-18
2.0276e-18
-1.55449e-18
5.36379e-19
-1.55439e-18
4.66636e-18
-6.19565e-18
3.03774e-18
2.15259e-18
-3.064e-18
8.13288e-18
-4.73768e-18
2.21286e-18
-6.29002e-18
7.8894e-18
-1.40833e-17
5.10715e-18
4.93763e-18
-5.15185e-18
1.83957e-17
-8.01098e-18
5.07498e-18
-1.42989e-17
1.12281e-17
-2.53094e-17
7.24057e-18
8.92814e-18
-7.30482e-18
3.29452e-17
-1.1403e-17
9.17623e-18
-2.56998e-17
1.46461e-17
-3.99534e-17
9.42083e-18
1.41565e-17
-9.50577e-18
5.18759e-17
-1.48757e-17
1.45493e-17
-4.05735e-17
1.81974e-17
-5.81487e-17
1.16742e-17
2.06827e-17
-1.17807e-17
7.5335e-17
-1.84837e-17
2.12554e-17
-5.90551e-17
2.18296e-17
-7.99761e-17
1.39757e-17
2.85397e-17
-1.41047e-17
1.03419e-16
-2.21745e-17
2.93282e-17
-8.12277e-17
2.56102e-17
-1.05584e-16
1.6358e-17
3.77948e-17
-1.65104e-17
1.36292e-16
-2.6016e-17
3.88367e-17
-1.07242e-16
2.94759e-17
-1.35058e-16
1.87901e-17
4.84834e-17
-1.89668e-17
1.74052e-16
-2.9945e-17
4.98175e-17
-1.37185e-16
3.35039e-17
-1.6856e-16
2.13094e-17
6.06805e-17
-2.15114e-17
2.16876e-16
-3.4039e-17
6.23475e-17
-1.71223e-16
3.76203e-17
-2.06179e-16
2.38822e-17
7.44209e-17
-2.41107e-17
2.64872e-16
-3.82237e-17
7.64626e-17
-2.09445e-16
4.19027e-17
-2.4808e-16
2.65475e-17
8.97781e-17
-2.68036e-17
3.18226e-16
-4.25769e-17
9.22378e-17
-2.52021e-16
4.62875e-17
-2.94366e-16
2.92704e-17
1.06797e-16
-2.95556e-17
3.77054e-16
-4.70356e-17
1.09719e-16
-2.99056e-16
5.09012e-17
-3.45266e-16
3.21491e-17
1.2555e-16
-3.24647e-17
4.41669e-16
-5.17271e-17
1.28982e-16
-3.50782e-16
5.57954e-17
-4.01061e-16
3.49714e-17
1.46375e-16
-3.53201e-17
5.11961e-16
-5.67055e-17
1.50368e-16
-4.07488e-16
6.11026e-17
-3.03235e-15
3.8309e-17
1.69169e-16
-3.86827e-17
5.88954e-16
-6.21124e-17
1.73799e-16
-3.08118e-15
6.92059e-17
-2.84566e-10
4.29697e-17
-2.84571e-10
-4.33487e-17
-2.84573e-10
-7.03942e-17
-2.84571e-10
-2.84566e-10
6.96086e-17
-2.84566e-10
4.35361e-17
-2.84571e-10
-4.39743e-17
-2.84573e-10
-7.07606e-17
-2.84571e-10
-2.84566e-10
6.89668e-17
-2.84566e-10
4.08409e-17
-2.84571e-10
-4.11845e-17
-2.84573e-10
-7.00302e-17
-2.84571e-10
-2.84566e-10
5.63843e-17
-2.84566e-10
3.66511e-17
-2.84571e-10
-3.69161e-17
-2.84573e-10
-5.72768e-17
-2.84571e-10
-2.84566e-10
4.93159e-17
-2.84566e-10
3.22052e-17
-2.84571e-10
-3.23829e-17
-2.84573e-10
-5.00638e-17
-2.84571e-10
-2.84566e-10
4.3713e-17
-2.84566e-10
2.82086e-17
-2.84571e-10
-2.82984e-17
-2.84573e-10
-4.43282e-17
-2.84571e-10
-2.84566e-10
3.77586e-17
-2.84566e-10
2.4542e-17
-2.84571e-10
-2.4546e-17
-2.84573e-10
-3.8245e-17
-2.84571e-10
-2.84566e-10
3.15976e-17
-2.84566e-10
2.09945e-17
-2.84571e-10
-2.09149e-17
-2.84573e-10
-3.19586e-17
-2.84571e-10
-2.84566e-10
2.56481e-17
-2.84566e-10
1.75343e-17
-2.84571e-10
-1.73733e-17
-2.84573e-10
-2.58878e-17
-2.84571e-10
-2.84566e-10
2.00225e-17
-2.84566e-10
1.42044e-17
-2.84571e-10
-1.39642e-17
-2.84573e-10
-2.01457e-17
-2.84571e-10
-2.84566e-10
1.46959e-17
-2.84566e-10
1.10359e-17
-2.84571e-10
-1.07191e-17
-2.84573e-10
-1.47077e-17
-2.84571e-10
-2.84566e-10
9.65106e-18
-2.84566e-10
8.03968e-18
-2.84571e-10
-7.64918e-18
-2.84573e-10
-9.55684e-18
-2.84571e-10
-2.84566e-10
4.89643e-18
-2.84566e-10
5.22071e-18
-2.84571e-10
-4.75956e-18
-2.84573e-10
-4.70191e-18
-2.84571e-10
-2.84566e-10
4.47636e-19
-2.84566e-10
2.58485e-18
-2.84571e-10
-2.05638e-18
-2.84573e-10
-1.58764e-19
-2.84571e-10
-2.84566e-10
-3.68205e-18
-2.84566e-10
1.38816e-19
-2.84571e-10
4.53453e-19
-2.84573e-10
4.05909e-18
-2.84571e-10
-2.84566e-10
-7.48225e-18
-2.84566e-10
-2.111e-18
-2.84571e-10
2.76333e-18
-2.84573e-10
7.94103e-18
-2.84571e-10
-2.84566e-10
-1.09442e-17
-2.84566e-10
-4.15903e-18
-2.84571e-10
4.86749e-18
-2.84573e-10
1.14781e-17
-2.84571e-10
-2.84566e-10
-1.40603e-17
-2.84566e-10
-6.00058e-18
-2.84571e-10
6.76107e-18
-2.84573e-10
1.46626e-17
-2.84571e-10
-2.84566e-10
-1.68243e-17
-2.84566e-10
-7.63182e-18
-2.84571e-10
8.4401e-18
-2.84573e-10
1.7488e-17
-2.84571e-10
-2.84566e-10
-1.92314e-17
-2.84566e-10
-9.0498e-18
-2.84571e-10
9.90151e-18
-2.84573e-10
1.99495e-17
-2.84571e-10
-2.84566e-10
-2.12783e-17
-2.84566e-10
-1.02525e-17
-2.84571e-10
1.11432e-17
-2.84573e-10
2.20436e-17
-2.84571e-10
-2.84566e-10
-2.29633e-17
-2.84566e-10
-1.12391e-17
-2.84571e-10
1.21641e-17
-2.84573e-10
2.37687e-17
-2.84571e-10
-2.84566e-10
-2.42867e-17
-2.84566e-10
-1.20094e-17
-2.84571e-10
1.29642e-17
-2.84573e-10
2.5125e-17
-2.84571e-10
-2.84566e-10
-2.52502e-17
-2.84566e-10
-1.25647e-17
-2.84571e-10
1.35447e-17
-2.84573e-10
2.61143e-17
-2.84571e-10
-2.84566e-10
-2.58577e-17
-2.84566e-10
-1.29072e-17
-2.84571e-10
1.39077e-17
-2.84573e-10
2.67405e-17
-2.84571e-10
-2.84566e-10
-2.61148e-17
-2.84566e-10
-1.30404e-17
-2.84571e-10
1.40568e-17
-2.84573e-10
2.70092e-17
-2.84571e-10
-2.84566e-10
-2.60288e-17
-2.84566e-10
-1.29687e-17
-2.84571e-10
1.39966e-17
-2.84573e-10
2.69281e-17
-2.84571e-10
-2.84566e-10
-2.56092e-17
-2.84566e-10
-1.26979e-17
-2.84571e-10
1.37327e-17
-2.84573e-10
2.65067e-17
-2.84571e-10
-2.84566e-10
-2.48674e-17
-2.84566e-10
-1.22349e-17
-2.84571e-10
1.32723e-17
-2.84573e-10
2.57566e-17
-2.84571e-10
-2.84566e-10
-2.38163e-17
-2.84566e-10
-1.15876e-17
-2.84571e-10
1.26235e-17
-2.84573e-10
2.46911e-17
-2.84571e-10
-2.84566e-10
-2.24711e-17
-2.84566e-10
-1.07651e-17
-2.84571e-10
1.17956e-17
-2.84573e-10
2.33255e-17
-2.84571e-10
-2.84566e-10
-2.08483e-17
-2.84566e-10
-9.77771e-18
-2.84571e-10
1.07989e-17
-2.84573e-10
2.16769e-17
-2.84571e-10
-2.84566e-10
-1.89665e-17
-2.84566e-10
-8.63653e-18
-2.84571e-10
9.64494e-18
-2.84573e-10
1.97641e-17
-2.84571e-10
-2.84566e-10
-1.68457e-17
-2.84566e-10
-7.35375e-18
-2.84571e-10
8.34613e-18
-2.84573e-10
1.76074e-17
-2.84571e-10
-2.84566e-10
-1.45071e-17
-2.84566e-10
-5.94245e-18
-2.84571e-10
6.91583e-18
-2.84573e-10
1.52288e-17
-2.84571e-10
-2.84566e-10
-1.19737e-17
-2.84566e-10
-4.41647e-18
-2.84571e-10
5.3682e-18
-2.84573e-10
1.26513e-17
-2.84571e-10
-2.84566e-10
-9.26926e-18
-2.84566e-10
-2.79038e-18
-2.84571e-10
3.71813e-18
-2.84573e-10
9.89948e-18
-2.84571e-10
-2.84566e-10
-6.41869e-18
-2.84566e-10
-1.07934e-18
-2.84571e-10
1.98113e-18
-2.84573e-10
6.9986e-18
-2.84571e-10
-2.84566e-10
-3.44764e-18
-2.84566e-10
7.01044e-19
-2.84571e-10
1.73178e-19
-2.84573e-10
3.97486e-18
-2.84571e-10
-2.84566e-10
-3.82292e-19
-2.84566e-10
2.53479e-18
-2.84571e-10
-1.68939e-18
-2.84573e-10
8.54987e-19
-2.84571e-10
-2.84566e-10
2.7508e-18
-2.84566e-10
4.40572e-18
-2.84571e-10
-3.59002e-18
-2.84573e-10
-2.33395e-18
-2.84571e-10
-2.84566e-10
5.92501e-18
-2.84566e-10
6.29761e-18
-2.84571e-10
-5.51211e-18
-2.84573e-10
-5.56478e-18
-2.84571e-10
-2.84566e-10
9.11386e-18
-2.84566e-10
8.19433e-18
-2.84571e-10
-7.43916e-18
-2.84573e-10
-8.8105e-18
-2.84571e-10
-2.84566e-10
1.22913e-17
-2.84566e-10
1.008e-17
-2.84571e-10
-9.35491e-18
-2.84573e-10
-1.20445e-17
-2.84571e-10
-2.84566e-10
1.54319e-17
-2.84566e-10
1.19391e-17
-2.84571e-10
-1.12435e-17
-2.84573e-10
-1.52409e-17
-2.84571e-10
-2.84566e-10
1.85112e-17
-2.84566e-10
1.37568e-17
-2.84571e-10
-1.30898e-17
-2.84573e-10
-1.83748e-17
-2.84571e-10
-2.84566e-10
2.1506e-17
-2.84566e-10
1.55189e-17
-2.84571e-10
-1.48792e-17
-2.84573e-10
-2.14224e-17
-2.84571e-10
-2.84566e-10
2.43944e-17
-2.84566e-10
1.7212e-17
-2.84571e-10
-1.65982e-17
-2.84573e-10
-2.43615e-17
-2.84571e-10
-2.84566e-10
2.71562e-17
-2.84566e-10
1.8824e-17
-2.84571e-10
-1.82342e-17
-2.84573e-10
-2.71715e-17
-2.84571e-10
-2.84566e-10
2.97733e-17
-2.84566e-10
2.03438e-17
-2.84571e-10
-1.97759e-17
-2.84573e-10
-2.98338e-17
-2.84571e-10
-2.84566e-10
3.22295e-17
-2.84566e-10
2.17614e-17
-2.84571e-10
-2.12134e-17
-2.84573e-10
-3.23321e-17
-2.84571e-10
-2.84566e-10
3.45111e-17
-2.84566e-10
2.30687e-17
-2.84571e-10
-2.2538e-17
-2.84573e-10
-3.46523e-17
-2.84571e-10
-2.84566e-10
3.66067e-17
-2.84566e-10
2.42586e-17
-2.84571e-10
-2.37428e-17
-2.84573e-10
-3.67828e-17
-2.84571e-10
-2.84566e-10
3.85075e-17
-2.84566e-10
2.5326e-17
-2.84571e-10
-2.48225e-17
-2.84573e-10
-3.87148e-17
-2.84571e-10
-2.84566e-10
4.02077e-17
-2.84566e-10
2.62672e-17
-2.84571e-10
-2.57735e-17
-2.84573e-10
-4.04422e-17
-2.84571e-10
-2.84566e-10
4.17039e-17
-2.84566e-10
2.70804e-17
-2.84571e-10
-2.65938e-17
-2.84573e-10
-4.19618e-17
-2.84571e-10
-2.84566e-10
4.29958e-17
-2.84566e-10
2.77654e-17
-2.84571e-10
-2.72835e-17
-2.84572e-10
-4.32732e-17
-2.84571e-10
-2.84566e-10
4.40858e-17
-2.84566e-10
2.83238e-17
-2.84571e-10
-2.7844e-17
-2.84572e-10
-4.43788e-17
-2.84571e-10
-2.84566e-10
4.4979e-17
-2.84566e-10
2.87587e-17
-2.84571e-10
-2.8279e-17
-2.84572e-10
-4.5284e-17
-2.84571e-10
-2.84566e-10
4.56833e-17
-2.84566e-10
2.90753e-17
-2.84571e-10
-2.85934e-17
-2.84572e-10
-4.59969e-17
-2.84571e-10
-2.84566e-10
4.62092e-17
-2.84567e-10
2.92798e-17
-2.84571e-10
-2.87939e-17
-2.84572e-10
-4.6528e-17
-2.84571e-10
-2.84566e-10
4.65692e-17
-2.84567e-10
2.93804e-17
-2.84571e-10
-2.88889e-17
-2.84572e-10
-4.68904e-17
-2.84571e-10
-2.84566e-10
4.67784e-17
-2.84567e-10
2.93862e-17
-2.84571e-10
-2.88878e-17
-2.84572e-10
-4.70993e-17
-2.84571e-10
-2.84567e-10
4.68536e-17
-2.84567e-10
2.93079e-17
-2.84571e-10
-2.88015e-17
-2.84572e-10
-4.71719e-17
-2.84571e-10
-2.84567e-10
4.68132e-17
-2.84567e-10
2.91568e-17
-2.84571e-10
-2.86417e-17
-2.84572e-10
-4.71271e-17
-2.84571e-10
-2.84567e-10
4.6677e-17
-2.84567e-10
2.89453e-17
-2.84571e-10
-2.84212e-17
-2.84572e-10
-4.6985e-17
-2.84571e-10
-2.84567e-10
4.64655e-17
-2.84567e-10
2.86864e-17
-2.84571e-10
-2.81532e-17
-2.84572e-10
-4.67666e-17
-2.8457e-10
-2.84567e-10
4.62e-17
-2.84567e-10
2.83935e-17
-2.84571e-10
-2.78513e-17
-2.84572e-10
-4.64936e-17
-2.8457e-10
-2.84567e-10
4.59019e-17
-2.84567e-10
2.80798e-17
-2.8457e-10
-2.75293e-17
-2.84572e-10
-4.61877e-17
-2.8457e-10
-2.84567e-10
4.55922e-17
-2.84567e-10
2.77589e-17
-2.8457e-10
-2.72008e-17
-2.84572e-10
-4.58705e-17
-2.8457e-10
-2.84567e-10
4.52912e-17
-2.84567e-10
2.74436e-17
-2.8457e-10
-2.68789e-17
-2.84572e-10
-4.55626e-17
-2.8457e-10
-2.84567e-10
4.50181e-17
-2.84567e-10
2.71463e-17
-2.8457e-10
-2.65763e-17
-2.84572e-10
-4.52834e-17
-2.8457e-10
-2.84567e-10
4.47904e-17
-2.84567e-10
2.68783e-17
-2.8457e-10
-2.63043e-17
-2.84572e-10
-4.5051e-17
-2.8457e-10
-2.84567e-10
4.46236e-17
-2.84567e-10
2.66499e-17
-2.8457e-10
-2.60734e-17
-2.84571e-10
-4.48808e-17
-2.8457e-10
-2.84567e-10
4.45307e-17
-2.84567e-10
2.64697e-17
-2.8457e-10
-2.58921e-17
-2.84571e-10
-4.47861e-17
-2.8457e-10
-2.84567e-10
4.45217e-17
-2.84567e-10
2.6345e-17
-2.8457e-10
-2.57675e-17
-2.84571e-10
-4.4777e-17
-2.8457e-10
-2.84567e-10
4.46034e-17
-2.84567e-10
2.62807e-17
-2.8457e-10
-2.57046e-17
-2.84571e-10
-4.48602e-17
-2.8457e-10
-2.84567e-10
4.47788e-17
-2.84567e-10
2.62799e-17
-2.8457e-10
-2.57061e-17
-2.84571e-10
-4.50387e-17
-2.8457e-10
-2.84567e-10
4.50469e-17
-2.84567e-10
2.63433e-17
-2.8457e-10
-2.57722e-17
-2.84571e-10
-4.53115e-17
-2.8457e-10
-2.84567e-10
4.54024e-17
-2.84567e-10
2.64688e-17
-2.8457e-10
-2.59007e-17
-2.84571e-10
-4.56727e-17
-2.8457e-10
-2.84567e-10
4.5835e-17
-2.84567e-10
2.66518e-17
-2.8457e-10
-2.60862e-17
-2.84571e-10
-4.61116e-17
-2.8457e-10
-2.84567e-10
4.63307e-17
-2.84568e-10
2.68854e-17
-2.8457e-10
-2.63212e-17
-2.84571e-10
-4.6614e-17
-2.8457e-10
-2.84567e-10
4.68776e-17
-2.84568e-10
2.71632e-17
-2.8457e-10
-2.65986e-17
-2.84571e-10
-4.71673e-17
-2.8457e-10
-2.84567e-10
4.7469e-17
2.74709e-17
-2.6903e-17
-4.77646e-17
)
;

boundaryField
{
    BotWall
    {
        type            calculated;
        value           nonuniform List<scalar> 5(-5.37598e-23 3.58828e-23 6.62751e-23 -7.78782e-25 -1.01416e-22);
    }
    FreeStream
    {
        type            calculated;
        value           nonuniform List<scalar> 5(-2.84568e-10 -2.8457e-10 -2.84571e-10 -2.8457e-10 -2.84567e-10);
    }
    FrontNBack
    {
        type            empty;
        value           nonuniform 0();
    }
    LeftSide
    {
        type            symmetryPlane;
        value           uniform 0;
    }
    RightSide
    {
        type            symmetryPlane;
        value           uniform 0;
    }
}


// ************************************************************************* //
