/*--------------------------------*- C++ -*----------------------------------*\
| =========                 |                                                 |
| \\      /  F ield         | OpenFOAM: The Open Source CFD Toolbox           |
|  \\    /   O peration     | Version:  2.4.0                                 |
|   \\  /    A nd           | Web:      www.OpenFOAM.org                      |
|    \\/     M anipulation  |                                                 |
\*---------------------------------------------------------------------------*/
FoamFile
{
    version     2.0;
    format      ascii;
    class       volVectorField;
    location    "2";
    object      U;
}
// * * * * * * * * * * * * * * * * * * * * * * * * * * * * * * * * * * * * * //

dimensions      [0 1 -1 0 0 0 0];

internalField   nonuniform List<vector> 
500
(
(3.98291e-10 1.06142e-09 0)
(7.22681e-10 1.08018e-09 0)
(9.58743e-13 1.08155e-09 0)
(-7.3085e-10 1.08019e-09 0)
(-4.07247e-10 1.0614e-09 0)
(1.20319e-09 -2.74088e-09 0)
(2.16839e-09 -2.76284e-09 0)
(2.89034e-12 -2.74691e-09 0)
(-2.193e-09 -2.76269e-09 0)
(-1.23018e-09 -2.74113e-09 0)
(2.01552e-09 4.67481e-09 0)
(3.61711e-09 4.81199e-09 0)
(4.84505e-12 4.85629e-09 0)
(-3.65856e-09 4.81245e-09 0)
(-2.06097e-09 4.6741e-09 0)
(2.84554e-09 -6.67122e-09 0)
(5.0789e-09 -6.64508e-09 0)
(6.75172e-12 -6.55439e-09 0)
(-5.13775e-09 -6.64417e-09 0)
(-2.90994e-09 -6.67268e-09 0)
(3.68025e-09 8.08696e-09 0)
(6.54067e-09 8.4323e-09 0)
(8.61807e-12 8.58166e-09 0)
(-6.61717e-09 8.43386e-09 0)
(-3.76383e-09 8.08451e-09 0)
(4.53716e-09 -1.11338e-08 0)
(8.02001e-09 -1.09664e-08 0)
(1.04741e-11 -1.0738e-08 0)
(-8.1144e-09 -1.0964e-08 0)
(-4.64015e-09 -1.11376e-08 0)
(5.39774e-09 1.40824e-08 0)
(9.49844e-09 1.47344e-08 0)
(1.23109e-11 1.50535e-08 0)
(-9.611e-09 1.47377e-08 0)
(-5.52042e-09 1.40771e-08 0)
(6.28399e-09 -8.51066e-09 0)
(1.09978e-08 -8.09738e-09 0)
(1.41483e-11 -7.66425e-09 0)
(-1.11288e-08 -8.09284e-09 0)
(-6.42668e-09 -8.51792e-09 0)
(7.17384e-09 2.43045e-08 0)
(1.2496e-08 2.53579e-08 0)
(1.6015e-11 2.59143e-08 0)
(-1.26458e-08 2.53638e-08 0)
(-7.33693e-09 2.4295e-08 0)
(8.09193e-09 -6.30688e-08 0)
(1.40174e-08 -6.23564e-08 0)
(1.78961e-11 -6.16614e-08 0)
(-1.41865e-08 -6.23489e-08 0)
(-8.27582e-09 -6.30805e-08 0)
(9.01398e-09 -1.6468e-07 0)
(1.55378e-08 -1.63238e-07 0)
(1.97767e-11 -1.62417e-07 0)
(-1.57264e-08 -1.63229e-07 0)
(-9.21904e-09 -1.64693e-07 0)
(9.96583e-09 -2.08809e-07 0)
(1.70825e-08 -2.07616e-07 0)
(2.16776e-11 -2.06622e-07 0)
(-1.7291e-08 -2.07605e-07 0)
(-1.01925e-08 -2.08824e-07 0)
(1.09265e-08 1.11758e-06 0)
(1.86311e-08 1.12051e-06 0)
(2.36012e-11 1.12195e-06 0)
(-1.886e-08 1.12053e-06 0)
(-1.11753e-08 1.11755e-06 0)
(1.19296e-08 4.98235e-06 0)
(2.02207e-08 4.98663e-06 0)
(2.5574e-11 4.98915e-06 0)
(-2.04707e-08 4.98665e-06 0)
(-1.22013e-08 4.98229e-06 0)
(1.29571e-08 3.79292e-06 0)
(2.18213e-08 3.79774e-06 0)
(2.73977e-11 3.80066e-06 0)
(-2.20936e-08 3.79776e-06 0)
(-1.32528e-08 3.79283e-06 0)
(1.40028e-08 -2.25304e-05 0)
(2.34675e-08 -2.25353e-05 0)
(2.98184e-11 -2.25376e-05 0)
(-2.37621e-08 -2.25353e-05 0)
(-1.43232e-08 -2.25304e-05 0)
(1.53241e-08 -0.000177006 0)
(2.55342e-08 -0.00017706 0)
(3.30268e-11 -0.000177092 0)
(-2.58576e-08 -0.00017706 0)
(-1.56764e-08 -0.000177005 0)
(1.57735e-08 -0.00114488 0)
(2.6244e-08 -0.00114486 0)
(3.40896e-11 -0.00114485 0)
(-2.65766e-08 -0.00114486 0)
(-1.61362e-08 -0.00114488 0)
(1.4862e-08 -0.00260539 0)
(2.47024e-08 -0.00260539 0)
(3.97898e-11 -0.00260538 0)
(-2.49949e-08 -0.00260539 0)
(-1.51899e-08 -0.00260539 0)
(1.24233e-08 -0.00144757 0)
(2.13478e-08 -0.00144764 0)
(4.37487e-11 -0.00144765 0)
(-2.15918e-08 -0.00144764 0)
(-1.27064e-08 -0.00144757 0)
(1.05658e-08 -0.00135249 0)
(1.86274e-08 -0.00135252 0)
(4.77857e-11 -0.00135253 0)
(-1.88256e-08 -0.00135252 0)
(-1.08068e-08 -0.00135249 0)
(9.00875e-09 -0.00138913 0)
(1.62662e-08 -0.00138914 0)
(5.19162e-11 -0.00138915 0)
(-1.64212e-08 -0.00138914 0)
(-9.21054e-09 -0.00138913 0)
(7.51181e-09 -0.00142082 0)
(1.401e-08 -0.00142084 0)
(5.60634e-11 -0.00142085 0)
(-1.4124e-08 -0.00142084 0)
(-7.67662e-09 -0.00142082 0)
(6.04106e-09 -0.00142598 0)
(1.18182e-08 -0.001426 0)
(6.01663e-11 -0.00142601 0)
(-1.18932e-08 -0.001426 0)
(-6.17087e-09 -0.00142598 0)
(4.63983e-09 -0.00142417 0)
(9.73465e-09 -0.00142419 0)
(6.41988e-11 -0.0014242 0)
(-9.77271e-09 -0.00142419 0)
(-4.73663e-09 -0.00142417 0)
(3.32997e-09 -0.00142291 0)
(7.78254e-09 -0.00142294 0)
(6.81431e-11 -0.00142295 0)
(-7.78576e-09 -0.00142294 0)
(-3.39578e-09 -0.00142291 0)
(2.11243e-09 -0.0014227 0)
(5.96384e-09 -0.00142272 0)
(7.1981e-11 -0.00142273 0)
(-5.93437e-09 -0.00142272 0)
(-2.14933e-09 -0.0014227 0)
(9.84198e-10 -0.00142278 0)
(4.27608e-09 -0.0014228 0)
(7.56939e-11 -0.00142281 0)
(-4.21612e-09 -0.0014228 0)
(-9.9426e-10 -0.00142278 0)
(-5.58205e-11 -0.00142283 0)
(2.71852e-09 -0.00142285 0)
(7.9264e-11 -0.00142286 0)
(-2.6303e-09 -0.00142285 0)
(7.05166e-11 -0.00142283 0)
(-1.00759e-09 -0.00142284 0)
(1.29143e-09 -0.00142286 0)
(8.26747e-11 -0.00142287 0)
(-1.17718e-09 -0.00142286 0)
(1.04497e-09 -0.00142284 0)
(-1.87115e-09 -0.00142283 0)
(-5.12865e-12 -0.00142286 0)
(8.5911e-11 -0.00142287 0)
(1.43156e-10 -0.00142286 0)
(1.92914e-09 -0.00142283 0)
(-2.64696e-09 -0.00142283 0)
(-1.17167e-09 -0.00142285 0)
(8.89591e-11 -0.00142286 0)
(1.33121e-09 -0.00142285 0)
(2.7235e-09 -0.00142283 0)
(-3.33584e-09 -0.00142283 0)
(-2.20921e-09 -0.00142285 0)
(9.18068e-11 -0.00142286 0)
(2.38802e-09 -0.00142285 0)
(3.4289e-09 -0.00142283 0)
(-3.93888e-09 -0.00142283 0)
(-3.11922e-09 -0.00142285 0)
(9.44436e-11 -0.00142286 0)
(3.31506e-09 -0.00142285 0)
(4.04646e-09 -0.00142283 0)
(-4.45747e-09 -0.00142283 0)
(-3.90362e-09 -0.00142285 0)
(9.68605e-11 -0.00142286 0)
(4.11427e-09 -0.00142285 0)
(4.57759e-09 -0.00142283 0)
(-4.89327e-09 -0.00142283 0)
(-4.56476e-09 -0.00142285 0)
(9.90503e-11 -0.00142286 0)
(4.78803e-09 -0.00142285 0)
(5.02398e-09 -0.00142283 0)
(-5.24821e-09 -0.00142283 0)
(-5.10545e-09 -0.00142285 0)
(1.01008e-10 -0.00142286 0)
(5.33919e-09 -0.00142285 0)
(5.38764e-09 -0.00142283 0)
(-5.52452e-09 -0.00142283 0)
(-5.52892e-09 -0.00142285 0)
(1.02729e-10 -0.00142286 0)
(5.77104e-09 -0.00142285 0)
(5.67083e-09 -0.00142283 0)
(-5.7247e-09 -0.00142283 0)
(-5.8389e-09 -0.00142285 0)
(1.04212e-10 -0.00142286 0)
(6.08735e-09 -0.00142285 0)
(5.87612e-09 -0.00142283 0)
(-5.85153e-09 -0.00142283 0)
(-6.03949e-09 -0.00142285 0)
(1.05458e-10 -0.00142286 0)
(6.2923e-09 -0.00142285 0)
(6.00635e-09 -0.00142283 0)
(-5.90805e-09 -0.00142283 0)
(-6.13526e-09 -0.00142285 0)
(1.06468e-10 -0.00142286 0)
(6.39053e-09 -0.00142285 0)
(6.06464e-09 -0.00142283 0)
(-5.89756e-09 -0.00142283 0)
(-6.13115e-09 -0.00142285 0)
(1.07246e-10 -0.00142286 0)
(6.38707e-09 -0.00142285 0)
(6.05436e-09 -0.00142283 0)
(-5.82359e-09 -0.00142283 0)
(-6.03252e-09 -0.00142285 0)
(1.07798e-10 -0.00142286 0)
(6.28735e-09 -0.00142285 0)
(5.97913e-09 -0.00142283 0)
(-5.68991e-09 -0.00142283 0)
(-5.84506e-09 -0.00142285 0)
(1.08131e-10 -0.00142286 0)
(6.09719e-09 -0.00142285 0)
(5.84281e-09 -0.00142283 0)
(-5.50048e-09 -0.00142283 0)
(-5.57482e-09 -0.00142285 0)
(1.08254e-10 -0.00142286 0)
(5.82272e-09 -0.00142285 0)
(5.64945e-09 -0.00142283 0)
(-5.25948e-09 -0.00142283 0)
(-5.22814e-09 -0.00142285 0)
(1.08178e-10 -0.00142286 0)
(5.47039e-09 -0.00142285 0)
(5.40332e-09 -0.00142283 0)
(-4.97122e-09 -0.00142283 0)
(-4.81163e-09 -0.00142285 0)
(1.07914e-10 -0.00142286 0)
(5.04695e-09 -0.00142285 0)
(5.10884e-09 -0.00142283 0)
(-4.64017e-09 -0.00142283 0)
(-4.33214e-09 -0.00142285 0)
(1.07476e-10 -0.00142286 0)
(4.55934e-09 -0.00142285 0)
(4.7706e-09 -0.00142283 0)
(-4.27093e-09 -0.00142283 0)
(-3.79669e-09 -0.00142285 0)
(1.06879e-10 -0.00142286 0)
(4.01475e-09 -0.00142285 0)
(4.39329e-09 -0.00142283 0)
(-3.86817e-09 -0.00142283 0)
(-3.21248e-09 -0.00142285 0)
(1.06138e-10 -0.00142287 0)
(3.42047e-09 -0.00142285 0)
(3.98169e-09 -0.00142283 0)
(-3.43663e-09 -0.00142283 0)
(-2.58679e-09 -0.00142285 0)
(1.0527e-10 -0.00142287 0)
(2.78392e-09 -0.00142285 0)
(3.54065e-09 -0.00142283 0)
(-2.98106e-09 -0.00142283 0)
(-1.92693e-09 -0.00142285 0)
(1.04291e-10 -0.00142287 0)
(2.11256e-09 -0.00142285 0)
(3.07504e-09 -0.00142283 0)
(-2.50622e-09 -0.00142283 0)
(-1.24025e-09 -0.00142285 0)
(1.03218e-10 -0.00142287 0)
(1.41386e-09 -0.00142285 0)
(2.58974e-09 -0.00142283 0)
(-2.01684e-09 -0.00142283 0)
(-5.34018e-10 -0.00142285 0)
(1.02071e-10 -0.00142287 0)
(6.95218e-10 -0.00142285 0)
(2.08956e-09 -0.00142283 0)
(-1.51756e-09 -0.00142283 0)
(1.84605e-10 -0.00142285 0)
(1.00866e-10 -0.00142287 0)
(-3.60662e-11 -0.00142285 0)
(1.57927e-09 -0.00142283 0)
(-1.01292e-09 -0.00142283 0)
(9.08611e-10 -0.00142285 0)
(9.96217e-11 -0.00142287 0)
(-7.72861e-10 -0.00142285 0)
(1.0635e-09 -0.00142283 0)
(-5.07318e-10 -0.00142283 0)
(1.63121e-09 -0.00142285 0)
(9.83544e-11 -0.00142287 0)
(-1.50825e-09 -0.00142285 0)
(5.46779e-10 -0.00142283 0)
(-4.99294e-12 -0.00142283 0)
(2.34589e-09 -0.00142285 0)
(9.70809e-11 -0.00142287 0)
(-2.23561e-09 -0.00142285 0)
(3.34132e-11 -0.00142283 0)
(4.9004e-10 -0.00142283 0)
(3.04645e-09 -0.00142285 0)
(9.58171e-11 -0.00142287 0)
(-2.94862e-09 -0.00142285 0)
(-4.72479e-10 -0.00142283 0)
(9.73995e-10 -0.00142283 0)
(3.72706e-09 -0.00142285 0)
(9.45776e-11 -0.00142286 0)
(-3.64134e-09 -0.00142285 0)
(-9.67025e-10 -0.00142283 0)
(1.44336e-09 -0.00142283 0)
(4.38232e-09 -0.00142285 0)
(9.33759e-11 -0.00142286 0)
(-4.30828e-09 -0.00142285 0)
(-1.44663e-09 -0.00142283 0)
(1.8949e-09 -0.00142283 0)
(5.00728e-09 -0.00142285 0)
(9.22239e-11 -0.00142286 0)
(-4.9444e-09 -0.00142285 0)
(-1.90799e-09 -0.00142283 0)
(2.32572e-09 -0.00142283 0)
(5.59749e-09 -0.00142285 0)
(9.11322e-11 -0.00142286 0)
(-5.54518e-09 -0.00142285 0)
(-2.34815e-09 -0.00142283 0)
(2.73325e-09 -0.00142283 0)
(6.14905e-09 -0.00142285 0)
(9.01095e-11 -0.00142286 0)
(-6.10663e-09 -0.00142285 0)
(-2.76447e-09 -0.00142283 0)
(3.11528e-09 -0.00142283 0)
(6.6586e-09 -0.00142285 0)
(8.91626e-11 -0.00142286 0)
(-6.62535e-09 -0.00142285 0)
(-3.1547e-09 -0.00142283 0)
(3.46999e-09 -0.00142283 0)
(7.1234e-09 -0.00142285 0)
(8.82966e-11 -0.00142286 0)
(-7.09854e-09 -0.00142285 0)
(-3.51698e-09 -0.00142283 0)
(3.79593e-09 -0.00142283 0)
(7.54129e-09 -0.00142285 0)
(8.75145e-11 -0.00142286 0)
(-7.52402e-09 -0.00142285 0)
(-3.84981e-09 -0.00142283 0)
(4.09203e-09 -0.00142283 0)
(7.91074e-09 -0.00142285 0)
(8.68171e-11 -0.00142286 0)
(-7.90023e-09 -0.00142285 0)
(-4.15213e-09 -0.00142283 0)
(4.35762e-09 -0.00142283 0)
(8.23085e-09 -0.00142285 0)
(8.62035e-11 -0.00142286 0)
(-8.22624e-09 -0.00142285 0)
(-4.42325e-09 -0.00142283 0)
(4.59245e-09 -0.00142283 0)
(8.5013e-09 -0.00142285 0)
(8.56706e-11 -0.00142286 0)
(-8.50177e-09 -0.00142285 0)
(-4.66288e-09 -0.00142283 0)
(4.7966e-09 -0.00142283 0)
(8.72243e-09 -0.00142285 0)
(8.52136e-11 -0.00142286 0)
(-8.72713e-09 -0.00142285 0)
(-4.87115e-09 -0.00142283 0)
(4.97056e-09 -0.00142283 0)
(8.89513e-09 -0.00142285 0)
(8.48256e-11 -0.00142286 0)
(-8.90326e-09 -0.00142285 0)
(-5.04855e-09 -0.00142283 0)
(5.11516e-09 -0.00142283 0)
(9.02087e-09 -0.00142285 0)
(8.44984e-11 -0.00142286 0)
(-9.03164e-09 -0.00142285 0)
(-5.19592e-09 -0.00142283 0)
(5.23156e-09 -0.00142283 0)
(9.10163e-09 -0.00142285 0)
(8.42221e-11 -0.00142286 0)
(-9.11433e-09 -0.00142285 0)
(-5.31446e-09 -0.00142283 0)
(5.32124e-09 -0.00142283 0)
(9.13992e-09 -0.00142285 0)
(8.39857e-11 -0.00142286 0)
(-9.15385e-09 -0.00142285 0)
(-5.40567e-09 -0.00142283 0)
(5.38594e-09 -0.00142283 0)
(9.13867e-09 -0.00142285 0)
(8.37769e-11 -0.00142286 0)
(-9.15321e-09 -0.00142285 0)
(-5.47136e-09 -0.00142283 0)
(5.42765e-09 -0.00142283 0)
(9.1012e-09 -0.00142285 0)
(8.35831e-11 -0.00142286 0)
(-9.11579e-09 -0.00142285 0)
(-5.51356e-09 -0.00142283 0)
(5.44859e-09 -0.00142283 0)
(9.03119e-09 -0.00142285 0)
(8.33908e-11 -0.00142286 0)
(-9.04535e-09 -0.00142285 0)
(-5.53454e-09 -0.00142283 0)
(5.45112e-09 -0.00142283 0)
(8.93258e-09 -0.00142285 0)
(8.31869e-11 -0.00142286 0)
(-8.94589e-09 -0.00142285 0)
(-5.5367e-09 -0.00142283 0)
(5.43774e-09 -0.00142283 0)
(8.80953e-09 -0.00142285 0)
(8.2958e-11 -0.00142286 0)
(-8.82166e-09 -0.00142285 0)
(-5.52262e-09 -0.00142283 0)
(5.41103e-09 -0.00142283 0)
(8.66633e-09 -0.00142285 0)
(8.26917e-11 -0.00142286 0)
(-8.67702e-09 -0.00142285 0)
(-5.49493e-09 -0.00142283 0)
(5.37359e-09 -0.00142283 0)
(8.50737e-09 -0.00142285 0)
(8.23765e-11 -0.00142286 0)
(-8.51645e-09 -0.00142285 0)
(-5.45631e-09 -0.00142283 0)
(5.32804e-09 -0.00142283 0)
(8.33701e-09 -0.00142285 0)
(8.20021e-11 -0.00142286 0)
(-8.34438e-09 -0.00142285 0)
(-5.40942e-09 -0.00142283 0)
(5.27693e-09 -0.00142283 0)
(8.15955e-09 -0.00142285 0)
(8.15601e-11 -0.00142286 0)
(-8.16518e-09 -0.00142285 0)
(-5.35686e-09 -0.00142283 0)
(5.22269e-09 -0.00142283 0)
(7.97915e-09 -0.00142285 0)
(8.10441e-11 -0.00142286 0)
(-7.98309e-09 -0.00142285 0)
(-5.30115e-09 -0.00142283 0)
(5.16763e-09 -0.00142283 0)
(7.79976e-09 -0.00142285 0)
(8.04501e-11 -0.00142286 0)
(-7.80211e-09 -0.00142285 0)
(-5.24461e-09 -0.00142283 0)
(5.11383e-09 -0.00142283 0)
(7.62504e-09 -0.00142285 0)
(7.9777e-11 -0.00142286 0)
(-7.62596e-09 -0.00142285 0)
(-5.18941e-09 -0.00142283 0)
(5.06317e-09 -0.00142284 0)
(7.4583e-09 -0.00142285 0)
(7.90267e-11 -0.00142286 0)
(-7.458e-09 -0.00142285 0)
(-5.13745e-09 -0.00142283 0)
(5.01725e-09 -0.00142284 0)
(7.30246e-09 -0.00142285 0)
(7.82044e-11 -0.00142286 0)
(-7.30117e-09 -0.00142285 0)
(-5.09036e-09 -0.00142283 0)
(4.97734e-09 -0.00142284 0)
(7.15998e-09 -0.00142285 0)
(7.7319e-11 -0.00142286 0)
(-7.15796e-09 -0.00142285 0)
(-5.04944e-09 -0.00142283 0)
(4.94439e-09 -0.00142284 0)
(7.03279e-09 -0.00142285 0)
(7.63829e-11 -0.00142286 0)
(-7.03033e-09 -0.00142285 0)
(-5.01567e-09 -0.00142284 0)
(4.91898e-09 -0.00142284 0)
(6.9223e-09 -0.00142285 0)
(7.54124e-11 -0.00142286 0)
(-6.91966e-09 -0.00142285 0)
(-4.98963e-09 -0.00142284 0)
(4.90129e-09 -0.00142284 0)
(6.82931e-09 -0.00142285 0)
(7.44277e-11 -0.00142286 0)
(-6.82675e-09 -0.00142285 0)
(-4.97151e-09 -0.00142284 0)
(4.89111e-09 -0.00142284 0)
(6.75404e-09 -0.00142285 0)
(7.34525e-11 -0.00142286 0)
(-6.75179e-09 -0.00142285 0)
(-4.96108e-09 -0.00142284 0)
(4.8878e-09 -0.00142284 0)
(6.69605e-09 -0.00142285 0)
(7.25144e-11 -0.00142286 0)
(-6.69429e-09 -0.00142285 0)
(-4.95769e-09 -0.00142284 0)
(4.89029e-09 -0.00142284 0)
(6.65427e-09 -0.00142285 0)
(7.16439e-11 -0.00142286 0)
(-6.65314e-09 -0.00142285 0)
(-4.96024e-09 -0.00142284 0)
(4.89708e-09 -0.00142284 0)
(6.627e-09 -0.00142285 0)
(7.08748e-11 -0.00142286 0)
(-6.62654e-09 -0.00142285 0)
(-4.96718e-09 -0.00142284 0)
(4.90638e-09 -0.00142284 0)
(6.61208e-09 -0.00142285 0)
(7.02449e-11 -0.00142286 0)
(-6.61228e-09 -0.00142285 0)
(-4.9767e-09 -0.00142284 0)
(4.91626e-09 -0.00142284 0)
(6.60716e-09 -0.00142285 0)
(6.97972e-11 -0.00142286 0)
(-6.60791e-09 -0.00142285 0)
(-4.98681e-09 -0.00142284 0)
(4.92424e-09 -0.00142284 0)
(6.60903e-09 -0.00142285 0)
(6.95735e-11 -0.00142285 0)
(-6.61012e-09 -0.00142285 0)
(-4.99497e-09 -0.00142284 0)
)
;

boundaryField
{
    BotWall
    {
        type            fixedValue;
        value           uniform (0 0 0);
    }
    FreeStream
    {
        type            zeroGradient;
    }
    FrontNBack
    {
        type            empty;
    }
    LeftSide
    {
        type            symmetryPlane;
    }
    RightSide
    {
        type            symmetryPlane;
    }
}


// ************************************************************************* //
