/*--------------------------------*- C++ -*----------------------------------*\
| =========                 |                                                 |
| \\      /  F ield         | OpenFOAM: The Open Source CFD Toolbox           |
|  \\    /   O peration     | Version:  2.4.0                                 |
|   \\  /    A nd           | Web:      www.OpenFOAM.org                      |
|    \\/     M anipulation  |                                                 |
\*---------------------------------------------------------------------------*/
FoamFile
{
    version     2.0;
    format      ascii;
    class       volScalarField;
    location    "3.8";
    object      H;
}
// * * * * * * * * * * * * * * * * * * * * * * * * * * * * * * * * * * * * * //

dimensions      [0 2 -2 0 0 0 0];

internalField   nonuniform List<scalar> 
8000
(
-11942.1
-11368.4
-10800.3
-10240.1
-9688.94
-9147.68
-8616.72
-8096.4
-7587.03
-7088.93
-6602.42
-6127.84
-5665.54
-5215.85
-4779.08
-4355.48
-3945.28
-3548.64
-3165.54
-2795.84
-2439.7
-2097.09
-1766.13
-1443.75
-1130.24
-833.347
-550.151
-265.139
-0.104328
-6.44639e-05
-0.0624529
-0.13064
-0.207449
-0.252372
-0.237457
-0.201186
-0.160667
-0.127146
-0.100394
-0.0757866
-0.0592622
-0.0463838
-0.0358688
-0.0272517
-0.0200741
-0.0141945
-0.00960654
-0.00623599
-0.00391014
-0.00238849
-11932.9
-11340.1
-10750.7
-10166.1
-9587.3
-9014.67
-8448.7
-7889.94
-7339.08
-6796.98
-6264.65
-5743.14
-5233.58
-4737.02
-4254.35
-3786.3
-3334.02
-2898.79
-2478.89
-2072.38
-1686.22
-1329.19
-978.701
-595.945
-201.592
-0.0775205
-0.00136854
-0.000827368
-0.000139185
-0.15644
-0.263507
-0.314317
-0.331162
-0.319559
-0.264327
-0.21027
-0.167141
-0.133902
-0.104826
-0.0784932
-0.0562481
-0.0420256
-0.0315178
-0.0235995
-0.0175316
-0.0128475
-0.00928168
-0.00662749
-0.00470674
-0.00335608
-11913.1
-11279.6
-10646.9
-10015.1
-9383.74
-8752.96
-8123.1
-7495.06
-6870.35
-6250.99
-5639.39
-5037.99
-4449.12
-3875.31
-3317.08
-2770.71
-2243.83
-1758.48
-1282.37
-749.452
-228.512
-0.155679
-0.00254862
-0.00171603
-0.00112608
-0.049664
-0.103892
-0.175233
-0.226187
-0.249854
-0.273516
-0.297298
-0.296971
-0.274488
-0.228562
-0.203224
-0.178758
-0.155118
-0.134455
-0.11776
-0.101833
-0.0894663
-0.0708613
-0.0545715
-0.0426163
-0.033012
-0.0254748
-0.0195878
-0.015036
-0.0116022
-11870.3
-11149.2
-10424
-9692.36
-8952.73
-8204.98
-7450.55
-6692.44
-5935.15
-5184.67
-4447.94
-3728.66
-3028.31
-2365.47
-1733.98
-1004.07
-248.668
-0.146776
-0.00344521
-0.00247478
-0.0015647
-0.0426008
-0.0767685
-0.110775
-0.139651
-0.154342
-0.159689
-0.17057
-0.18352
-0.202997
-0.208808
-0.20891
-0.203687
-0.196266
-0.183794
-0.170786
-0.153859
-0.14566
-0.139901
-0.132916
-0.124327
-0.1176
-0.117397
-0.11888
-0.115664
-0.108354
-0.0925037
-0.0696742
-0.0501379
-0.0376165
-11797.1
-10924.1
-10033.9
-9121.29
-8184.65
-7226.22
-6252.13
-5271.91
-4298.87
-3355.55
-2468.86
-1595.5
-611.304
-64.8651
-0.0309568
-0.00505525
-0.00443619
-0.0558517
-0.0869685
-0.10662
-0.114388
-0.119918
-0.123088
-0.127297
-0.134662
-0.137581
-0.136546
-0.13606
-0.131993
-0.136756
-0.140186
-0.138352
-0.1414
-0.14711
-0.143409
-0.134484
-0.130297
-0.129377
-0.121391
-0.122757
-0.125632
-0.124901
-0.123771
-0.122694
-0.121084
-0.11777
-0.108317
-0.0925069
-0.0767376
-0.0638823
-11686
-10583.1
-9444.62
-8261.53
-7034.17
-5772.47
-4496.26
-3230.38
-1997.96
-804.724
-133.997
-0.0778846
-0.0127932
-0.123339
-0.0733412
-0.101555
-0.112039
-0.112313
-0.109924
-0.11158
-0.107486
-0.10785
-0.109412
-0.109591
-0.110614
-0.110204
-0.10309
-0.108425
-0.110539
-0.113173
-0.114314
-0.115109
-0.116063
-0.117084
-0.119735
-0.12375
-0.123186
-0.119714
-0.115461
-0.113956
-0.115181
-0.117872
-0.119207
-0.117918
-0.115273
-0.112001
-0.103673
-0.0901637
-0.0795311
-0.0712827
-11517.9
-10072.7
-8575.63
-7015.74
-5401.57
-3766.7
-2188.89
-831.568
-0.498329
-0.0120506
-0.0981742
-0.0767896
-0.0950068
-0.105501
-0.10516
-0.10081
-0.0949143
-0.0940261
-0.0956844
-0.0938949
-0.0916687
-0.091839
-0.0920573
-0.0898834
-0.0879161
-0.0888088
-0.0918387
-0.0936949
-0.0937167
-0.0943577
-0.0959153
-0.0963301
-0.0991389
-0.1017
-0.10198
-0.101687
-0.100949
-0.096954
-0.0956572
-0.0926432
-0.0918186
-0.0968751
-0.0974277
-0.0966739
-0.083151
-0.0699849
-0.0628293
-0.0592591
-0.0567018
-0.0540662
-11280.8
-9366.67
-7415.09
-5439.49
-3495.27
-1643.85
-0.871313
-0.0139651
-0.191566
-0.133699
-0.117916
-0.112063
-0.107677
-0.104359
-0.0965546
-0.0931038
-0.0896937
-0.087172
-0.0857534
-0.082568
-0.0802649
-0.079107
-0.0734636
-0.0711885
-0.0716045
-0.071846
-0.0721503
-0.0726864
-0.0717932
-0.0715585
-0.0670379
-0.0650435
-0.0631046
-0.0626025
-0.0612339
-0.0603149
-0.0596823
-0.059565
-0.0611256
-0.0609936
-0.0573021
-0.0498163
-0.0481207
-0.0464428
-0.0443202
-0.0427031
-0.0413565
-0.0392554
-0.0362912
-0.0345718
-11044.6
-8675.59
-6317.99
-4034
-1961.48
-2.49889
-2.20909
-1.27066
-0.680261
-0.329268
-0.167867
-0.12453
-0.11303
-0.108842
-0.103381
-0.102298
-0.101307
-0.0973105
-0.0885522
-0.0844905
-0.0819966
-0.0814539
-0.0800065
-0.0771535
-0.073964
-0.0704319
-0.0681222
-0.0663514
-0.0646656
-0.0593769
-0.0564873
-0.0540396
-0.051549
-0.0492765
-0.0476951
-0.0456054
-0.042682
-0.0389913
-0.0367626
-0.035246
-0.0333165
-0.0317655
-0.0308901
-0.0295079
-0.027094
-0.0255199
-0.024064
-0.0228302
-0.0211964
-0.0197067
-10895.9
-8252.35
-5668.26
-3140.62
-1.7981
-1.54644
-1.46673
-1.15775
-0.804071
-0.522864
-0.314536
-0.201701
-0.158903
-0.139423
-0.127766
-0.116407
-0.110345
-0.109051
-0.109925
-0.109254
-0.108724
-0.106706
-0.102072
-0.0970293
-0.09318
-0.0909372
-0.0906458
-0.0935402
-0.0973471
-0.0978155
-0.09545
-0.0882335
-0.0779742
-0.0719427
-0.070308
-0.0708399
-0.0751997
-0.0729994
-0.0665503
-0.0587899
-0.0537735
-0.0514061
-0.0498448
-0.0478326
-0.043266
-0.0388975
-0.0353802
-0.0320685
-0.0287893
-0.0256586
-10933.6
-8352.64
-5809.66
-3340.79
-2.98177
-2.29898
-1.88955
-1.48234
-1.13786
-0.832605
-0.603407
-0.437178
-0.311922
-0.225562
-0.191073
-0.172331
-0.163507
-0.15464
-0.144286
-0.132767
-0.121832
-0.114458
-0.115309
-0.116066
-0.115879
-0.115131
-0.111401
-0.104331
-0.103463
-0.10416
-0.104273
-0.103847
-0.10418
-0.106262
-0.107006
-0.106099
-0.102772
-0.0989535
-0.0935243
-0.0853197
-0.0795968
-0.0760382
-0.0736769
-0.0766531
-0.07822
-0.077688
-0.0751865
-0.0687234
-0.06133
-0.0562079
-10961.8
-8437.53
-5949.95
-3526.38
-6.55971
-4.91145
-3.93593
-2.99807
-2.20743
-1.59238
-1.15591
-0.842158
-0.635401
-0.492668
-0.397836
-0.340135
-0.30139
-0.260289
-0.224418
-0.196224
-0.174476
-0.156701
-0.144861
-0.135525
-0.135828
-0.134325
-0.131299
-0.125285
-0.120185
-0.117435
-0.115217
-0.113396
-0.112364
-0.112162
-0.111571
-0.111442
-0.111733
-0.111486
-0.11145
-0.111004
-0.108645
-0.10103
-0.0946238
-0.0905373
-0.0877676
-0.0860645
-0.0855845
-0.0870891
-0.0871413
-0.086324
-10626
-7501.63
-4647.98
-2284.28
-20.1608
-16.0278
-12.364
-9.19424
-6.63246
-4.75442
-3.40952
-2.47751
-1.84001
-1.40369
-1.09346
-0.861596
-0.671868
-0.536604
-0.451863
-0.389309
-0.329279
-0.2867
-0.254283
-0.225819
-0.201699
-0.189802
-0.177587
-0.165881
-0.157727
-0.151094
-0.145244
-0.140151
-0.136168
-0.131641
-0.126603
-0.121496
-0.116822
-0.117493
-0.116888
-0.115289
-0.111002
-0.104893
-0.100987
-0.0971829
-0.0936375
-0.0929871
-0.0924973
-0.0913536
-0.0901477
-0.0889758
-10602.5
-7460.82
-4681.2
-2506.8
-7.03989
-6.36064
-5.28344
-4.50134
-3.77398
-3.15232
-2.63886
-2.24522
-1.90552
-1.65879
-1.34695
-1.1126
-0.962937
-0.875576
-0.811304
-0.728792
-0.629828
-0.543959
-0.474566
-0.416408
-0.369891
-0.332023
-0.299387
-0.271347
-0.247194
-0.226726
-0.209603
-0.19506
-0.182321
-0.170793
-0.160016
-0.149458
-0.138787
-0.131909
-0.124725
-0.115951
-0.108774
-0.10422
-0.102004
-0.100049
-0.0978548
-0.0957112
-0.0937188
-0.0917751
-0.0887642
-0.0856077
-11062.8
-8768.37
-6570.47
-4487.99
-2478.96
-1.50318
-1.44398
-1.17248
-0.353721
-0.44717
-0.636798
-0.788833
-0.894171
-0.952784
-0.956356
-0.926724
-0.893404
-0.912398
-0.950748
-0.925391
-0.824302
-0.714221
-0.652585
-0.612412
-0.596786
-0.563426
-0.509874
-0.460233
-0.423969
-0.389463
-0.355709
-0.324499
-0.29597
-0.269791
-0.245536
-0.222655
-0.201048
-0.180702
-0.16277
-0.148148
-0.136583
-0.128178
-0.125688
-0.125677
-0.12735
-0.129099
-0.128638
-0.124816
-0.119926
-0.114986
-11447
-9895.03
-8376.34
-6900.1
-5465.73
-4066.44
-2711.36
-1486.78
-649.032
-0.566955
-0.311331
-0.321425
-0.320658
-0.307795
-0.27886
-0.232651
-0.164182
-0.0676547
-0.00381384
-0.212802
-0.276858
-0.312986
-0.344157
-0.370427
-0.393648
-0.415269
-0.428086
-0.430682
-0.431027
-0.464761
-0.512766
-0.499197
-0.452842
-0.399901
-0.361504
-0.335928
-0.314745
-0.295126
-0.275564
-0.254945
-0.234977
-0.215723
-0.20383
-0.202889
-0.22192
-0.229381
-0.232422
-0.225724
-0.209482
-0.189457
-11710.3
-10683
-9687.54
-8738.39
-7844.63
-7010.59
-6237.82
-5527.72
-4882.18
-4296.35
-3752.95
-3233.62
-2725.14
-2217.13
-1702.93
-1189.32
-714.655
-343.125
-18.8136
-0.208822
-0.197784
-0.189778
-0.174732
-0.159566
-0.146968
-0.134186
-0.118741
-0.0983439
-0.0680749
-0.034976
-0.00198386
-0.100769
-0.133569
-0.147219
-0.155779
-0.162402
-0.172422
-0.195465
-0.233284
-0.286929
-0.307272
-0.303926
-0.295922
-0.287355
-0.279131
-0.271562
-0.26
-0.243941
-0.228791
-0.215079
-11844.5
-11080.6
-10335.3
-9617.03
-8930.98
-8280.1
-7665.23
-7086.03
-6541.31
-6029.26
-5547.68
-5094.29
-4666.92
-4263.59
-3882.57
-3523.15
-3186.46
-2875.34
-2591.53
-2332.17
-2091.08
-1862.21
-1639.95
-1418.27
-1190.74
-953.479
-710.98
-480.753
-286.064
-136.891
-6.50291
-0.0832904
-0.0708359
-0.0603722
-0.04679
-0.0338693
-0.0232802
-0.0149794
-0.00527312
-0.0360418
-0.0570368
-0.0792009
-0.112572
-0.174946
-0.274043
-0.37162
-0.424821
-0.416391
-0.369134
-0.313256
-11907.7
-11266.7
-10635.5
-10018.3
-9417.85
-8836.22
-8274.58
-7733.78
-7214.41
-6716.92
-6241.66
-5788.93
-5358.94
-4951.79
-4567.44
-4205.68
-3866.13
-3548.27
-3251.38
-2974.56
-2716.69
-2476.51
-2252.67
-2043.65
-1847.9
-1664.01
-1491.04
-1328.86
-1177.82
-1037.67
-906.721
-782.258
-661.44
-542.302
-424.326
-309.874
-203.673
-109.463
-23.0966
-0.0359621
-0.0189021
-0.011757
-0.00607024
-0.00152915
-0.00090899
-1.81673
-1.58737
-1.17986
-0.889075
-0.697465
-11932.1
-11337.7
-10747.1
-10162.3
-9585.07
-9017.23
-8460.5
-7916.76
-7387.93
-6875.97
-6382.75
-5910.04
-5459.37
-5032
-4628.87
-4250.52
-3897.14
-3568.53
-3264.16
-2983.21
-2724.59
-2487.03
-2269.09
-2069.29
-1886.05
-1717.84
-1563.17
-1420.6
-1288.78
-1166.42
-1052.33
-945.381
-844.569
-749.034
-658.09
-571.253
-488.188
-408.471
-331.41
-256.408
-183.572
-115.167
-55.7999
-9.18857
-0.0156946
-0.0069089
-2.32873
-1.1758
-0.694809
-0.634958
-0.001439
-0.00086919
-0.000535458
-0.000340729
-0.00022497
-0.000153665
-0.000107907
-7.75053e-05
-5.686e-05
-4.27389e-05
-3.31442e-05
-2.67532e-05
-2.26403e-05
-2.01361e-05
-1.87505e-05
-1.81265e-05
-1.80097e-05
-1.82234e-05
-1.86496e-05
-1.9212e-05
-1.98629e-05
-2.05728e-05
-2.13238e-05
-2.21048e-05
-2.29083e-05
-2.37288e-05
-2.45618e-05
-2.5403e-05
-2.62486e-05
-2.70946e-05
-2.79372e-05
-2.87724e-05
-2.95963e-05
-3.04052e-05
-3.11953e-05
-3.1963e-05
-3.27047e-05
-3.3417e-05
-3.40968e-05
-3.47408e-05
-3.53464e-05
-3.59113e-05
-3.64337e-05
-3.69124e-05
-3.73471e-05
-3.77382e-05
-3.80864e-05
-3.83935e-05
-3.86612e-05
-3.88918e-05
-0.00242558
-0.0017876
-0.00134425
-0.00102733
-0.00079294
-0.000614041
-0.000474214
-0.000363431
-0.0002754
-0.00020596
-0.000152095
-0.00011133
-8.14004e-05
-6.01596e-05
-4.56335e-05
-3.61071e-05
-3.01762e-05
-2.67504e-05
-2.50194e-05
-2.4402e-05
-2.44964e-05
-2.50343e-05
-2.5843e-05
-2.68143e-05
-2.78822e-05
-2.90067e-05
-3.0163e-05
-3.13348e-05
-3.25102e-05
-3.36797e-05
-3.48346e-05
-3.59673e-05
-3.70701e-05
-3.81362e-05
-3.91591e-05
-4.01328e-05
-4.10524e-05
-4.19132e-05
-4.27118e-05
-4.34455e-05
-4.41129e-05
-4.47137e-05
-4.52487e-05
-4.57201e-05
-4.61307e-05
-4.64843e-05
-4.67852e-05
-4.70378e-05
-4.72464e-05
-4.74151e-05
-0.00902562
-0.007077
-0.00558649
-0.00444026
-0.0035623
-0.00288805
-0.00236078
-0.00193501
-0.00157905
-0.00127429
-0.0010115
-0.000786222
-0.000595695
-0.000438361
-0.000313341
-0.000218832
-0.000151078
-0.000104882
-7.46536e-05
-5.56221e-05
-4.42487e-05
-3.79944e-05
-3.50472e-05
-3.41413e-05
-3.44289e-05
-3.53726e-05
-3.66516e-05
-3.80843e-05
-3.95723e-05
-4.10618e-05
-4.25225e-05
-4.39352e-05
-4.52863e-05
-4.65653e-05
-4.7764e-05
-4.88763e-05
-4.98978e-05
-5.08262e-05
-5.16612e-05
-5.24041e-05
-5.30584e-05
-5.36288e-05
-5.41214e-05
-5.45431e-05
-5.49012e-05
-5.5203e-05
-5.54551e-05
-5.5664e-05
-5.5835e-05
-5.59728e-05
-0.0290142
-0.0223797
-0.0174436
-0.013844
-0.0112704
-0.00943769
-0.00811632
-0.00712178
-0.00632217
-0.00565766
-0.00509524
-0.00458515
-0.0040776
-0.00355388
-0.00302718
-0.00250827
-0.00199887
-0.0015223
-0.00109435
-0.000738669
-0.000470948
-0.000286975
-0.000171209
-0.000104658
-6.99425e-05
-5.38233e-05
-4.75745e-05
-4.61055e-05
-4.67423e-05
-4.82024e-05
-4.99161e-05
-5.16454e-05
-5.32944e-05
-5.48247e-05
-5.62215e-05
-5.74802e-05
-5.86018e-05
-5.95911e-05
-6.04558e-05
-6.12058e-05
-6.18527e-05
-6.24086e-05
-6.2886e-05
-6.32969e-05
-6.36522e-05
-6.39616e-05
-6.42332e-05
-6.44739e-05
-6.46892e-05
-6.48834e-05
-0.0537742
-0.0478098
-0.040641
-0.0335835
-0.0280952
-0.0240203
-0.0210452
-0.0188661
-0.0173385
-0.0165241
-0.0156687
-0.0146641
-0.0135406
-0.0123345
-0.0111584
-0.0103242
-0.00952938
-0.00803233
-0.00630489
-0.00468812
-0.00326518
-0.00206873
-0.00118631
-0.000623628
-0.000310454
-0.000156456
-8.91873e-05
-6.34685e-05
-5.55784e-05
-5.45918e-05
-5.59798e-05
-5.80227e-05
-6.01151e-05
-6.20597e-05
-6.38005e-05
-6.53298e-05
-6.66577e-05
-6.78018e-05
-6.87833e-05
-6.96248e-05
-7.03492e-05
-7.09782e-05
-7.15317e-05
-7.2027e-05
-7.24786e-05
-7.28983e-05
-7.32956e-05
-7.36777e-05
-7.40502e-05
-7.44177e-05
-0.0671531
-0.0625482
-0.0574466
-0.0512846
-0.0444525
-0.0390648
-0.0357638
-0.0337129
-0.0308294
-0.0283861
-0.027148
-0.0259595
-0.0244368
-0.0221167
-0.0200144
-0.0180588
-0.0158244
-0.0133272
-0.0106577
-0.00810771
-0.00571526
-0.00361664
-0.00203137
-0.00102229
-0.000477629
-0.000224882
-0.000116982
-7.59089e-05
-6.29598e-05
-6.07061e-05
-6.20741e-05
-6.4438e-05
-6.68981e-05
-6.91727e-05
-7.1189e-05
-7.29436e-05
-7.44567e-05
-7.57577e-05
-7.68788e-05
-7.78528e-05
-7.87109e-05
-7.94814e-05
-8.01888e-05
-8.08537e-05
-8.14926e-05
-8.21184e-05
-8.2741e-05
-8.33682e-05
-8.40058e-05
-8.46586e-05
-0.0529327
-0.0499698
-0.045043
-0.0409083
-0.0374329
-0.0351407
-0.033084
-0.0308523
-0.0287059
-0.0267522
-0.0247394
-0.0228261
-0.0206657
-0.0182547
-0.0160001
-0.0137822
-0.011418
-0.00896121
-0.00669441
-0.00475695
-0.00313591
-0.00188935
-0.00104381
-0.000539307
-0.000272577
-0.00014641
-9.30711e-05
-7.36624e-05
-6.85253e-05
-6.87899e-05
-7.08259e-05
-7.32689e-05
-7.56469e-05
-7.78149e-05
-7.97422e-05
-8.14382e-05
-8.29273e-05
-8.42393e-05
-8.54064e-05
-8.64603e-05
-8.74306e-05
-8.83442e-05
-8.92241e-05
-9.00895e-05
-9.09555e-05
-9.18344e-05
-9.27356e-05
-9.36665e-05
-9.46333e-05
-9.56415e-05
-0.0333089
-0.0311592
-0.0278571
-0.0260247
-0.0246622
-0.0235293
-0.0222086
-0.0206289
-0.0190613
-0.0172799
-0.0153835
-0.0136112
-0.0118934
-0.0102142
-0.00856309
-0.0069666
-0.00547067
-0.00412245
-0.00297422
-0.00203429
-0.00129805
-0.00077343
-0.000438339
-0.000246203
-0.000147162
-0.000101506
-8.32248e-05
-7.76085e-05
-7.72807e-05
-7.89044e-05
-8.10996e-05
-8.33407e-05
-8.54462e-05
-8.73645e-05
-8.90925e-05
-9.06455e-05
-9.20468e-05
-9.33228e-05
-9.45015e-05
-9.56102e-05
-9.66748e-05
-9.77186e-05
-9.87618e-05
-9.98215e-05
-0.000100911
-0.000102043
-0.000103225
-0.000104465
-0.00010577
-0.000107145
-0.0186598
-0.0175586
-0.0165247
-0.0155738
-0.0145307
-0.0132092
-0.0120412
-0.0109236
-0.00988496
-0.00881698
-0.00774768
-0.00671611
-0.00572457
-0.004778
-0.00388934
-0.00307601
-0.00235119
-0.00172875
-0.00121821
-0.00081924
-0.000526102
-0.00032835
-0.000206949
-0.000139408
-0.00010568
-9.10125e-05
-8.6059e-05
-8.55853e-05
-8.69566e-05
-8.89637e-05
-9.10955e-05
-9.31536e-05
-9.50698e-05
-9.68288e-05
-9.84367e-05
-9.99093e-05
-0.000101268
-0.000102536
-0.000103738
-0.0001049
-0.000106045
-0.000107196
-0.000108373
-0.000109592
-0.000110867
-0.00011221
-0.000113631
-0.000115139
-0.000116739
-0.00011844
-0.0227215
-0.0200711
-0.0177149
-0.015636
-0.0137886
-0.0120362
-0.0104027
-0.00896465
-0.00772675
-0.00661889
-0.00560559
-0.00468055
-0.00384187
-0.0030898
-0.00242684
-0.00185543
-0.00137618
-0.000987947
-0.000686322
-0.000463132
-0.0003075
-0.000206606
-0.000146475
-0.00011396
-9.84465e-05
-9.24604e-05
-9.13345e-05
-9.24491e-05
-9.44649e-05
-9.67518e-05
-9.90346e-05
-0.000101202
-0.000103217
-0.000105071
-0.000106772
-0.000108335
-0.000109781
-0.000111133
-0.000112417
-0.000113659
-0.000114886
-0.000116122
-0.000117392
-0.000118714
-0.000120108
-0.000121588
-0.000123167
-0.000124855
-0.000126661
-0.000128594
-0.0521322
-0.0490491
-0.0453087
-0.0409198
-0.035583
-0.030343
-0.0255322
-0.0212107
-0.0174003
-0.0141413
-0.0113868
-0.00906812
-0.0071298
-0.00552297
-0.00420247
-0.00312857
-0.00226843
-0.00159522
-0.00108517
-0.00071461
-0.00045894
-0.000293039
-0.000192831
-0.000137237
-0.000109581
-9.7988e-05
-9.48336e-05
-9.5535e-05
-9.77478e-05
-0.000100467
-0.000103262
-0.000105954
-0.000108474
-0.0001108
-0.000112931
-0.000114878
-0.000116659
-0.000118299
-0.000119823
-0.000121261
-0.000122644
-0.000124002
-0.000125366
-0.000126764
-0.00012822
-0.000129758
-0.000131397
-0.000133154
-0.000135045
-0.000137081
-0.0838004
-0.076881
-0.0685865
-0.0620744
-0.0565648
-0.0519699
-0.0470391
-0.0407847
-0.0346855
-0.0292738
-0.0244679
-0.0202575
-0.0165951
-0.013428
-0.0107114
-0.0084048
-0.00646997
-0.004871
-0.00357482
-0.00255013
-0.00176528
-0.00118641
-0.000777441
-0.000501843
-0.000325428
-0.000218711
-0.000158195
-0.000126493
-0.000111701
-0.00010624
-0.00010559
-0.00010722
-0.000109792
-0.000112647
-0.000115478
-0.000118154
-0.00012063
-0.000122902
-0.000124984
-0.0001269
-0.000128679
-0.000130356
-0.000131964
-0.00013354
-0.00013511
-0.000136706
-0.000138368
-0.000140125
-0.000142007
-0.000144054
-0.0876845
-0.0847829
-0.0773533
-0.0710623
-0.0654475
-0.0608887
-0.0572697
-0.0532841
-0.0483396
-0.0426782
-0.0373241
-0.0322893
-0.0275945
-0.0232941
-0.0194118
-0.015952
-0.0129087
-0.0102677
-0.00801031
-0.00611523
-0.00455854
-0.00331274
-0.00234548
-0.00161941
-0.00109382
-0.000727612
-0.000482365
-0.000324778
-0.00022789
-0.000171206
-0.000140015
-0.000124302
-0.000117583
-0.000115847
-0.00011672
-0.000118853
-0.000121511
-0.000124307
-0.000127051
-0.000129656
-0.000132095
-0.000134366
-0.000136485
-0.000138477
-0.000140374
-0.000142213
-0.000144034
-0.000145877
-0.000147776
-0.000149764
-0.0824576
-0.077754
-0.0730918
-0.0689607
-0.0653015
-0.0627702
-0.0595523
-0.0561434
-0.0523249
-0.0474086
-0.0424367
-0.0376767
-0.0330277
-0.0286233
-0.0245514
-0.0208326
-0.0174595
-0.0144266
-0.0117335
-0.00937848
-0.00735649
-0.00565622
-0.00425965
-0.00314184
-0.00227169
-0.00161369
-0.00113056
-0.0007861
-0.000547541
-0.000387019
-0.000282101
-0.000215579
-0.000174809
-0.00015085
-0.000137595
-0.000130994
-0.000128436
-0.00012827
-0.000129475
-0.000131427
-0.000133748
-0.000136214
-0.000138697
-0.000141125
-0.000143469
-0.000145725
-0.000147905
-0.000150032
-0.000152127
-0.000154188
-0.108323
-0.100609
-0.0925752
-0.0855272
-0.0802664
-0.0745261
-0.0686538
-0.0623748
-0.056839
-0.0518346
-0.0468888
-0.0420189
-0.0372583
-0.0327432
-0.0285861
-0.0248026
-0.0213507
-0.0182031
-0.0153473
-0.0127804
-0.0105009
-0.00850664
-0.00679116
-0.00534268
-0.00414354
-0.00317097
-0.00239841
-0.00179721
-0.00133856
-0.000995146
-0.000742462
-0.000559476
-0.000428846
-0.00033676
-0.000272584
-0.000228358
-0.000198262
-0.000178103
-0.000164899
-0.000156543
-0.000151554
-0.000148898
-0.00014785
-0.000147903
-0.000148702
-0.000149999
-0.000151624
-0.000153462
-0.000155426
-0.00015742
-0.171357
-0.154408
-0.138493
-0.125594
-0.113901
-0.101638
-0.091377
-0.0825691
-0.0744564
-0.0671126
-0.0625777
-0.0604555
-0.0550878
-0.0486213
-0.0427426
-0.0375045
-0.0326796
-0.0282676
-0.0242754
-0.0206927
-0.0175021
-0.0146833
-0.0122142
-0.0100716
-0.00823072
-0.00666627
-0.00535253
-0.00426364
-0.00337341
-0.00265539
-0.00208414
-0.00163534
-0.00128654
-0.00101792
-0.00081249
-0.00065606
-0.000537119
-0.000446586
-0.000377506
-0.000324684
-0.00028426
-0.000253354
-0.000229798
-0.000211949
-0.000198555
-0.000188656
-0.000181503
-0.00017651
-0.000173209
-0.000171221
-0.20009
-0.183771
-0.168006
-0.153927
-0.141205
-0.130369
-0.121379
-0.114714
-0.110244
-0.105025
-0.096454
-0.0875709
-0.0805862
-0.0722447
-0.0643541
-0.0574617
-0.050729
-0.0442798
-0.0382976
-0.0328736
-0.0280329
-0.023762
-0.0200271
-0.016785
-0.0139903
-0.0115988
-0.00956939
-0.00786389
-0.00644648
-0.00528408
-0.00433471
-0.00356686
-0.00295177
-0.00246157
-0.0020703
-0.00175605
-0.00150163
-0.00129356
-0.00112129
-0.000976481
-0.000852961
-0.000746552
-0.000654524
-0.000574999
-0.000506549
-0.000447973
-0.000398203
-0.000356258
-0.000321288
-0.000292874
-0.269036
-0.245872
-0.230471
-0.213365
-0.197383
-0.179956
-0.162029
-0.146378
-0.137724
-0.128685
-0.117696
-0.108955
-0.101758
-0.0949578
-0.0878328
-0.0795916
-0.0705558
-0.0615265
-0.0530383
-0.0453559
-0.0385735
-0.032685
-0.0276306
-0.0233282
-0.0196918
-0.0166405
-0.0141017
-0.0120099
-0.0103097
-0.00894275
-0.00785989
-0.00701592
-0.00637171
-0.00588044
-0.00546686
-0.00508823
-0.00471868
-0.00435629
-0.00399973
-0.00365059
-0.00331547
-0.00299844
-0.00269976
-0.00241891
-0.00215576
-0.00191062
-0.00168401
-0.00147654
-0.00128904
-0.00112475
-0.56961
-0.477139
-0.400574
-0.34293
-0.302111
-0.271272
-0.247265
-0.227348
-0.209875
-0.194291
-0.179677
-0.165634
-0.151969
-0.138294
-0.124385
-0.110444
-0.0970603
-0.0846219
-0.0733016
-0.0631844
-0.0543074
-0.0466583
-0.0401788
-0.0347752
-0.0303348
-0.0267365
-0.0238574
-0.0215833
-0.019814
-0.0184727
-0.0174961
-0.0168252
-0.0164184
-0.0162347
-0.0163281
-0.0168292
-0.0181797
-0.0185221
-0.0175792
-0.0161481
-0.0147185
-0.0133218
-0.011985
-0.0107309
-0.00956562
-0.00848798
-0.00749529
-0.00658495
-0.00575574
-0.00501807
-0.806781
-0.87378
-0.852093
-0.774525
-0.689423
-0.610256
-0.53691
-0.46971
-0.410504
-0.36019
-0.317607
-0.281013
-0.248956
-0.220336
-0.194371
-0.170887
-0.150126
-0.132121
-0.116608
-0.103232
-0.0917047
-0.0818256
-0.0734476
-0.0664907
-0.0608725
-0.0564173
-0.0528932
-0.0501447
-0.0480744
-0.0466091
-0.0456737
-0.0451992
-0.0450954
-0.0452452
-0.0455548
-0.0460158
-0.0465855
-0.0464201
-0.0457952
-0.0439473
-0.040357
-0.0360962
-0.0322261
-0.0287345
-0.0255716
-0.0227104
-0.0201188
-0.0177665
-0.0156316
-0.0137271
-3.9072e-05
-3.91728e-05
-3.92577e-05
-3.93311e-05
-3.93949e-05
-3.94499e-05
-3.94966e-05
-3.95354e-05
-3.95662e-05
-3.95893e-05
-3.96047e-05
-3.96126e-05
-3.96129e-05
-3.96057e-05
-3.95912e-05
-3.95692e-05
-3.95399e-05
-3.95033e-05
-3.94596e-05
-3.94086e-05
-3.93506e-05
-3.92856e-05
-3.92136e-05
-3.9135e-05
-3.90497e-05
-3.8958e-05
-3.886e-05
-3.8756e-05
-3.86463e-05
-3.8531e-05
-3.84105e-05
-3.82851e-05
-3.81551e-05
-3.8021e-05
-3.7883e-05
-3.77415e-05
-3.7597e-05
-3.745e-05
-3.73007e-05
-3.71496e-05
-3.69973e-05
-3.6844e-05
-3.66903e-05
-3.65366e-05
-3.63832e-05
-3.62307e-05
-3.60793e-05
-3.59296e-05
-3.57817e-05
-3.56362e-05
-3.54933e-05
-3.53534e-05
-3.52168e-05
-3.50838e-05
-3.49546e-05
-3.48295e-05
-3.47087e-05
-3.45925e-05
-3.4481e-05
-3.43745e-05
-3.42732e-05
-3.41771e-05
-3.40865e-05
-3.40015e-05
-3.39222e-05
-3.38487e-05
-3.37812e-05
-3.37197e-05
-3.36643e-05
-3.36151e-05
-3.35721e-05
-3.35354e-05
-3.35051e-05
-3.34812e-05
-3.34637e-05
-3.34528e-05
-3.34483e-05
-3.34503e-05
-3.34589e-05
-3.34741e-05
-3.34958e-05
-3.35242e-05
-3.35591e-05
-3.36006e-05
-3.36488e-05
-3.37036e-05
-3.37649e-05
-3.3833e-05
-3.39076e-05
-3.39889e-05
-3.40768e-05
-3.41714e-05
-3.42725e-05
-3.43804e-05
-3.44948e-05
-3.46159e-05
-3.47437e-05
-3.4878e-05
-3.5019e-05
-3.51667e-05
-3.53209e-05
-3.54819e-05
-3.56494e-05
-3.58236e-05
-3.60044e-05
-3.61919e-05
-3.6386e-05
-3.65867e-05
-3.67942e-05
-3.70082e-05
-3.7229e-05
-3.74565e-05
-3.76906e-05
-3.79315e-05
-3.81792e-05
-3.84336e-05
-3.86949e-05
-3.8963e-05
-3.92379e-05
-3.95199e-05
-3.98087e-05
-4.01047e-05
-4.04076e-05
-4.07177e-05
-4.1035e-05
-4.13594e-05
-4.16911e-05
-4.20301e-05
-4.23764e-05
-4.273e-05
-4.30909e-05
-4.34592e-05
-4.38347e-05
-4.42175e-05
-4.46074e-05
-4.50045e-05
-4.54087e-05
-4.58198e-05
-4.62377e-05
-4.66623e-05
-4.70935e-05
-4.75311e-05
-4.79749e-05
-4.84249e-05
-4.88808e-05
-4.93424e-05
-4.98096e-05
-5.02822e-05
-5.07601e-05
-5.1243e-05
-5.17307e-05
-5.22231e-05
-5.27199e-05
-5.32211e-05
-5.37263e-05
-5.42354e-05
-5.47482e-05
-5.52643e-05
-5.57835e-05
-5.63056e-05
-5.68303e-05
-5.73572e-05
-5.7886e-05
-5.84163e-05
-5.89478e-05
-5.94801e-05
-6.00127e-05
-6.05452e-05
-6.10772e-05
-6.16083e-05
-6.21379e-05
-6.26656e-05
-6.31909e-05
-6.37133e-05
-6.42323e-05
-6.47475e-05
-6.52582e-05
-6.57641e-05
-6.62645e-05
-6.67589e-05
-6.72468e-05
-6.77277e-05
-6.8201e-05
-6.86661e-05
-6.91225e-05
-6.95695e-05
-7.00066e-05
-7.04331e-05
-7.08483e-05
-7.12517e-05
-7.16423e-05
-7.20197e-05
-7.23829e-05
-7.27313e-05
-7.30641e-05
-7.33806e-05
-7.36799e-05
-7.39614e-05
-7.42242e-05
-7.44676e-05
-7.4691e-05
-7.48937e-05
-7.50749e-05
-7.5234e-05
-7.53705e-05
-7.54836e-05
-7.55728e-05
-7.56375e-05
-7.56771e-05
-7.56909e-05
-7.56784e-05
-7.5639e-05
-7.55721e-05
-7.54769e-05
-7.5353e-05
-7.51996e-05
-7.50162e-05
-7.48022e-05
-7.45572e-05
-7.42805e-05
-7.3972e-05
-7.36313e-05
-7.32581e-05
-7.28524e-05
-7.24141e-05
-7.19433e-05
-7.14402e-05
-7.09049e-05
-7.03377e-05
-6.9739e-05
-6.91091e-05
-6.84486e-05
-6.77579e-05
-6.70378e-05
-6.62888e-05
-6.55117e-05
-6.47073e-05
-6.38764e-05
-6.30198e-05
-6.21385e-05
-6.12332e-05
-6.0305e-05
-5.93547e-05
-5.83831e-05
-5.73914e-05
-5.63806e-05
-5.53516e-05
-5.43058e-05
-5.32443e-05
-5.21684e-05
-5.10794e-05
-4.99787e-05
-4.88675e-05
-4.77472e-05
-4.66192e-05
-4.54849e-05
-4.43459e-05
-4.32038e-05
-4.20603e-05
-4.09173e-05
-3.97765e-05
-3.864e-05
-3.75095e-05
-3.63867e-05
-3.52732e-05
-3.41705e-05
-3.30798e-05
-3.20023e-05
-3.0939e-05
-2.98909e-05
-2.88592e-05
-2.78449e-05
-2.6849e-05
-2.58725e-05
-2.49162e-05
-2.39808e-05
-2.30666e-05
-2.2174e-05
-2.13031e-05
-2.04538e-05
-1.96262e-05
-1.882e-05
-1.80354e-05
-1.72722e-05
-1.65304e-05
-1.58103e-05
-1.51119e-05
-1.44351e-05
-1.37799e-05
-1.3146e-05
-1.25331e-05
-1.19408e-05
-1.13686e-05
-1.08163e-05
-1.02833e-05
-9.76943e-06
-9.27445e-06
-8.79807e-06
-8.34005e-06
-7.90003e-06
-4.7539e-05
-4.76015e-05
-4.76494e-05
-4.76863e-05
-4.77139e-05
-4.77329e-05
-4.77436e-05
-4.77463e-05
-4.77412e-05
-4.77283e-05
-4.77079e-05
-4.768e-05
-4.76448e-05
-4.76024e-05
-4.75531e-05
-4.74971e-05
-4.74345e-05
-4.73656e-05
-4.72907e-05
-4.721e-05
-4.7124e-05
-4.70328e-05
-4.6937e-05
-4.6837e-05
-4.67331e-05
-4.66257e-05
-4.65155e-05
-4.64028e-05
-4.62882e-05
-4.61722e-05
-4.60553e-05
-4.5938e-05
-4.58208e-05
-4.57044e-05
-4.55892e-05
-4.54757e-05
-4.53645e-05
-4.52561e-05
-4.51509e-05
-4.50494e-05
-4.49522e-05
-4.48596e-05
-4.4772e-05
-4.46899e-05
-4.46137e-05
-4.45437e-05
-4.44803e-05
-4.44238e-05
-4.43745e-05
-4.43328e-05
-4.42989e-05
-4.42731e-05
-4.42557e-05
-4.42469e-05
-4.42469e-05
-4.42559e-05
-4.42742e-05
-4.4302e-05
-4.43395e-05
-4.43867e-05
-4.4444e-05
-4.45115e-05
-4.45893e-05
-4.46775e-05
-4.47765e-05
-4.48862e-05
-4.50068e-05
-4.51386e-05
-4.52815e-05
-4.54357e-05
-4.56015e-05
-4.57788e-05
-4.59678e-05
-4.61687e-05
-4.63816e-05
-4.66066e-05
-4.68439e-05
-4.70935e-05
-4.73557e-05
-4.76305e-05
-4.79181e-05
-4.82187e-05
-4.85323e-05
-4.88592e-05
-4.91995e-05
-4.95534e-05
-4.9921e-05
-5.03026e-05
-5.06982e-05
-5.11081e-05
-5.15324e-05
-5.19713e-05
-5.24251e-05
-5.28939e-05
-5.33779e-05
-5.38774e-05
-5.43924e-05
-5.49233e-05
-5.54702e-05
-5.60334e-05
-5.66131e-05
-5.72095e-05
-5.78228e-05
-5.84532e-05
-5.91011e-05
-5.97665e-05
-6.04499e-05
-6.11513e-05
-6.18711e-05
-6.26095e-05
-6.33668e-05
-6.41432e-05
-6.4939e-05
-6.57544e-05
-6.65898e-05
-6.74453e-05
-6.83214e-05
-6.92183e-05
-7.01362e-05
-7.10755e-05
-7.20365e-05
-7.30195e-05
-7.40247e-05
-7.50526e-05
-7.61034e-05
-7.71773e-05
-7.82747e-05
-7.93959e-05
-8.0541e-05
-8.17104e-05
-8.29042e-05
-8.41226e-05
-8.53658e-05
-8.66339e-05
-8.79271e-05
-8.92454e-05
-9.05888e-05
-9.19573e-05
-9.33511e-05
-9.47699e-05
-9.62137e-05
-9.76824e-05
-9.91758e-05
-0.000100694
-0.000102236
-0.000103803
-0.000105393
-0.000107008
-0.000108645
-0.000110306
-0.000111989
-0.000113695
-0.000115422
-0.000117171
-0.000118941
-0.000120732
-0.000122542
-0.000124372
-0.00012622
-0.000128087
-0.00012997
-0.00013187
-0.000133786
-0.000135716
-0.00013766
-0.000139616
-0.000141583
-0.000143561
-0.000145548
-0.000147543
-0.000149544
-0.00015155
-0.000153559
-0.00015557
-0.000157581
-0.000159591
-0.000161598
-0.000163601
-0.000165596
-0.000167583
-0.00016956
-0.000171524
-0.000173473
-0.000175407
-0.000177322
-0.000179216
-0.000181087
-0.000182933
-0.000184752
-0.000186541
-0.000188299
-0.000190022
-0.000191708
-0.000193356
-0.000194961
-0.000196523
-0.000198038
-0.000199503
-0.000200917
-0.000202277
-0.00020358
-0.000204824
-0.000206006
-0.000207124
-0.000208176
-0.000209159
-0.00021007
-0.000210908
-0.000211671
-0.000212357
-0.000212963
-0.000213487
-0.000213928
-0.000214285
-0.000214554
-0.000214735
-0.000214826
-0.000214826
-0.000214731
-0.000214542
-0.000214257
-0.000213874
-0.000213392
-0.00021281
-0.000212128
-0.000211343
-0.000210456
-0.000209466
-0.000208372
-0.000207175
-0.000205873
-0.000204469
-0.000202962
-0.000201352
-0.00019964
-0.000197828
-0.000195917
-0.000193909
-0.000191804
-0.000189606
-0.000187315
-0.000184935
-0.000182467
-0.000179912
-0.000177275
-0.000174556
-0.000171757
-0.000168882
-0.000165932
-0.000162909
-0.000159816
-0.000156655
-0.000153427
-0.000150136
-0.000146782
-0.00014337
-0.000139901
-0.000136379
-0.000132808
-0.000129194
-0.000125541
-0.000121854
-0.00011814
-0.000114405
-0.000110654
-0.000106892
-0.000103124
-9.93559e-05
-9.55912e-05
-9.18347e-05
-8.80913e-05
-8.43668e-05