/*--------------------------------*- C++ -*----------------------------------*\
| =========                 |                                                 |
| \\      /  F ield         | OpenFOAM: The Open Source CFD Toolbox           |
|  \\    /   O peration     | Version:  2.4.0                                 |
|   \\  /    A nd           | Web:      www.OpenFOAM.org                      |
|    \\/     M anipulation  |                                                 |
\*---------------------------------------------------------------------------*/
FoamFile
{
    version     2.0;
    format      ascii;
    class       surfaceScalarField;
    location    "3.8";
    object      phi;
}
// * * * * * * * * * * * * * * * * * * * * * * * * * * * * * * * * * * * * * //

dimensions      [0 3 -1 0 0 0 0];

internalField   nonuniform List<scalar> 
15580
(
-3.78359e-13
-3.37818e-15
-1.55021e-12
-1.74924e-13
-3.43483e-12
-4.88996e-13
-5.9005e-12
-9.16339e-13
-8.82593e-12
-1.42363e-12
-1.20992e-11
-1.98271e-12
-1.56156e-11
-2.57128e-12
-1.92763e-11
-3.17216e-12
-2.29864e-11
-3.77222e-12
-2.66539e-11
-4.36185e-12
-3.01887e-11
-4.9344e-12
-3.35018e-11
-5.48577e-12
-3.65042e-11
-6.014e-12
-3.91066e-11
-6.51903e-12
-4.12184e-11
-7.00255e-12
-4.27472e-11
-7.46797e-12
-4.35977e-11
-7.91992e-12
-4.36706e-11
-8.36513e-12
-4.2859e-11
-8.81469e-12
-4.10466e-11
-9.28135e-12
-3.80992e-11
-9.78642e-12
-3.38145e-11
-1.0402e-11
-2.78818e-11
-1.12392e-11
-2.01378e-11
-1.21519e-11
-1.03754e-11
-1.31793e-11
7.42945e-13
-1.34821e-11
1.3555e-11
-1.48671e-11
2.76848e-11
-1.76606e-11
1.78623e-11
-1.14767e-11
1.34833e-11
7.43435e-12
-4.93414e-12
3.24141e-11
-5.98044e-11
9.30149e-11
-9.73021e-11
6.80009e-11
-9.2842e-11
1.6065e-11
-1.23835e-10
5.81194e-11
-2.36408e-10
1.74552e-10
-4.44316e-10
2.99982e-10
-6.59611e-10
3.33879e-10
-9.25125e-10
4.10731e-10
-1.23619e-09
4.94272e-10
-1.62404e-09
6.56803e-10
-2.37257e-09
1.27933e-09
-3.24883e-09
1.8633e-09
-3.93993e-09
2.26886e-09
-4.41453e-09
2.58124e-09
-4.74891e-09
2.81258e-09
-4.98879e-09
2.95726e-09
-5.16254e-09
3.0327e-09
-5.29096e-09
3.06037e-09
3.05863e-09
-5.39002e-09
-6.53195e-14
6.19414e-14
-2.96881e-13
5.6637e-14
-6.30162e-13
-1.55715e-13
-9.8169e-13
-5.64812e-13
-1.3135e-12
-1.09182e-12
-1.59033e-12
-1.70589e-12
-1.78734e-12
-2.37426e-12
-1.88994e-12
-3.06956e-12
-1.89309e-12
-3.76908e-12
-1.8009e-12
-4.45404e-12
-1.62679e-12
-5.10851e-12
-1.39382e-12
-5.71873e-12
-1.13576e-12
-6.27206e-12
-8.99634e-13
-6.75516e-12
-7.36056e-13
-7.16613e-12
-6.97486e-13
-7.50654e-12
-8.51137e-13
-7.76627e-12
-1.23459e-12
-7.98168e-12
-1.78779e-12
-8.2615e-12
-2.80546e-12
-8.26368e-12
-4.7907e-12
-7.80117e-12
-8.33275e-12
-6.96047e-12
-1.23803e-11
-7.29219e-12
-1.65793e-11
-8.6558e-12
-2.63261e-11
-8.65307e-12
-4.66405e-11
-8.39976e-12
-1.18788e-10
5.70177e-11
-1.75116e-10
3.85597e-11
-2.88025e-10
1.01428e-10
-5.10222e-10
2.29632e-10
-8.42798e-10
3.6499e-10
-1.21042e-09
4.60633e-10
-1.64862e-09
5.06209e-10
-2.18001e-09
5.4745e-10
-2.71387e-09
5.91983e-10
-3.28868e-09
7.49355e-10
-3.91845e-09
9.29752e-10
-4.66065e-09
1.07608e-09
-5.45758e-09
1.20766e-09
-6.30824e-09
1.34493e-09
-7.21423e-09
1.5628e-09
-7.77847e-09
1.84357e-09
-8.07318e-09
2.15801e-09
-8.15121e-09
2.34689e-09
-8.07369e-09
2.50372e-09
-7.91182e-09
2.6507e-09
-7.63663e-09
2.68207e-09
-7.37933e-09
2.77541e-09
-7.23199e-09
2.91303e-09
3.0048e-09
-7.17816e-09
6.86169e-13
-6.24227e-13
3.23005e-12
-2.48725e-12
7.74111e-12
-4.66677e-12
1.41489e-11
-6.97259e-12
2.23955e-11
-9.33846e-12
3.24061e-11
-1.17165e-11
4.41033e-11
-1.40714e-11
5.74122e-11
-1.63785e-11
7.22634e-11
-1.86203e-11
8.85933e-11
-2.0784e-11
1.06342e-10
-2.28569e-11
1.25463e-10
-2.48398e-11
1.45949e-10
-2.6758e-11
1.67873e-10
-2.86798e-11
1.91495e-10
-3.07873e-11
2.16486e-10
-3.24984e-11
2.4171e-10
-3.29903e-11
2.66143e-10
-3.37173e-11
2.89762e-10
-3.31833e-11
3.0978e-10
-3.43827e-11
3.14222e-10
-3.33824e-11
2.94768e-10
-1.80706e-11
2.5241e-10
3.45982e-11
2.53209e-10
-9.70692e-12
2.64699e-10
-2.0213e-11
1.97076e-10
5.92227e-11
1.01502e-10
1.52592e-10
-1.56499e-10
2.96561e-10
-4.66365e-10
4.11294e-10
-7.91324e-10
5.5459e-10
-1.17139e-09
7.45054e-10
-1.5931e-09
8.82341e-10
-2.12588e-09
1.03899e-09
-2.70509e-09
1.12666e-09
-3.29136e-09
1.17826e-09
-3.78529e-09
1.24328e-09
-4.23905e-09
1.38352e-09
-4.7676e-09
1.60463e-09
-5.41645e-09
1.85651e-09
-6.12756e-09
2.05605e-09
-6.73772e-09
2.17295e-09
-7.11963e-09
2.22548e-09
-7.21538e-09
2.25376e-09
-7.18634e-09
2.31785e-09
-7.25922e-09
2.5766e-09
-7.004e-09
2.39548e-09
-6.66107e-09
2.33913e-09
-6.25721e-09
2.37156e-09
-5.82732e-09
2.48314e-09
2.5775e-09
-5.40002e-09
2.41032e-12
-3.03455e-12
8.4658e-12
-8.54272e-12
1.75103e-11
-1.37113e-11
2.91694e-11
-1.86317e-11
4.31038e-11
-2.32729e-11
5.9001e-11
-2.76136e-11
7.65689e-11
-3.16393e-11
9.55315e-11
-3.53411e-11
1.15633e-10
-3.87217e-11
1.36653e-10
-4.18043e-11
1.58435e-10
-4.4639e-11
1.81009e-10
-4.74139e-11
2.02159e-10
-4.79081e-11
2.23735e-10
-5.02555e-11
2.43606e-10
-5.20171e-11
2.42303e-10
-5.97948e-11
2.14154e-10
-7.98498e-11
1.85016e-10
-3.32927e-11
2.40311e-10
-8.90641e-11
3.51506e-10
-1.45876e-10
4.56042e-10
-1.37995e-10
5.03277e-10
-6.53053e-11
5.25268e-10
1.26068e-11
4.427e-10
7.28608e-11
2.9237e-10
1.30117e-10
1.87666e-10
1.63927e-10
4.12978e-11
2.98959e-10
6.88942e-11
2.68964e-10
5.98264e-11
4.20362e-10
-2.16147e-11
6.36031e-10
-5.74389e-11
7.80878e-10
-3.41883e-11
8.59091e-10
-7.44839e-11
1.07929e-09
-2.06567e-10
1.25874e-09
-3.879e-10
1.35959e-09
-5.70821e-10
1.4262e-09
-6.04968e-10
1.41767e-09
-5.21941e-10
1.5216e-09
-4.58535e-10
1.7931e-09
-5.29354e-10
2.12686e-09
-6.33291e-10
2.27689e-09
-7.49006e-10
2.3412e-09
-8.39035e-10
2.34379e-09
-8.87251e-10
2.36606e-09
-6.06239e-10
2.29559e-09
-4.41892e-10
2.23114e-09
-2.84927e-10
2.18217e-09
-5.28658e-11
2.1395e-09
3.18251e-10
2.11202e-09
2.13158e-09
7.64168e-10
-2.63072e-12
-4.03824e-13
-9.65152e-12
-1.52192e-12
-2.03855e-11
-2.97735e-12
-3.43323e-11
-4.68487e-12
-5.11357e-11
-6.46941e-12
-7.0581e-11
-8.16833e-12
-9.25824e-11
-9.6379e-12
-1.1716e-10
-1.07635e-11
-1.44326e-10
-1.15554e-11
-1.76719e-10
-9.41171e-12
-2.13863e-10
-7.49459e-12
-2.59568e-10
-3.53897e-12
-3.06773e-10
-1.13724e-11
-5.07963e-10
1.31224e-10
-6.73286e-10
1.08012e-10
-8.07409e-10
7.39775e-11
-9.79969e-10
9.26345e-11
-1.10328e-09
9.00158e-11
-1.25932e-09
6.69741e-11
-1.43718e-09
3.19889e-11
-1.57047e-09
-4.70146e-12
-1.61981e-09
-1.59688e-11
-1.6203e-09
1.30935e-11
-1.71121e-09
1.63777e-10
-1.72197e-09
1.40875e-10
-1.71294e-09
1.549e-10
-1.52876e-09
1.14776e-10
-1.62756e-09
3.67766e-10
-1.6128e-09
4.05604e-10
-1.49011e-09
5.13336e-10
-1.27026e-09
5.61027e-10
-1.02139e-09
6.1022e-10
-5.77786e-10
6.35686e-10
-7.53524e-11
7.56311e-10
4.22615e-10
8.61621e-10
9.3626e-10
9.12556e-10
1.33603e-09
1.0179e-09
1.76245e-09
1.09518e-09
2.35013e-09
1.20542e-09
3.14168e-09
1.33531e-09
3.80385e-09
1.61472e-09
4.51368e-09
1.63137e-09
5.17933e-09
1.67813e-09
5.85508e-09
1.69032e-09
6.44018e-09
1.71049e-09
6.94366e-09
1.72766e-09
7.37794e-09
1.74788e-09
7.72419e-09
1.79325e-09
7.89427e-09
1.94193e-09
2.26907e-09
7.75679e-09
-1.09665e-12
6.92826e-13
-2.76769e-12
1.49118e-13
-4.52382e-12
-1.22122e-12
-6.22414e-12
-2.98455e-12
-7.45364e-12
-5.23992e-12
-7.75931e-12
-7.86266e-12
-7.75381e-12
-9.64341e-12
-7.5068e-12
-1.10105e-11
-9.72841e-12
-1.08192e-11
-1.44672e-11
-2.62064e-11
-9.95494e-11
5.53418e-11
-2.2022e-10
1.08351e-10
-3.0724e-10
7.54626e-11
-2.8354e-10
1.0599e-10
-3.1105e-10
1.35522e-10
-3.74762e-10
1.3769e-10
-4.06216e-10
1.24088e-10
-3.48893e-10
3.26933e-11
-2.736e-10
-8.31895e-12
-1.89489e-10
-5.21219e-11
-1.04762e-10
-8.94291e-11
-8.5975e-12
-1.12133e-10
1.25433e-10
-1.20937e-10
4.38331e-10
-1.49121e-10
4.39402e-10
1.39803e-10
6.9296e-10
-9.86577e-11
9.23436e-10
-1.157e-10
1.36951e-09
-7.83107e-11
1.6828e-09
9.23132e-11
2.0844e-09
1.11738e-10
2.50562e-09
1.39811e-10
3.04924e-09
6.65932e-11
3.70135e-09
-1.64171e-11
4.4656e-09
-7.94377e-12
5.28637e-09
4.08503e-11
6.05972e-09
1.39214e-10
6.83275e-09
2.44861e-10
7.55668e-09
3.71255e-10
8.2302e-09
5.31896e-10
8.91969e-09
6.4583e-10
9.77456e-09
7.59853e-10
1.04782e-08
9.27696e-10
1.11271e-08
1.02921e-09
1.17722e-08
1.04527e-09
1.22868e-08
1.19585e-09
1.26575e-08
1.35702e-09
1.29022e-08
1.50312e-09
1.30486e-08
1.64692e-09
1.31269e-08
1.86362e-09
2.27758e-09
1.31184e-08
4.85589e-12
-4.16306e-12
1.51077e-11
-1.01027e-11
2.88623e-11
-1.49758e-11
4.53908e-11
-1.9513e-11
6.40941e-11
-2.39432e-11
8.47209e-11
-2.84895e-11
1.05633e-10
-3.726e-11
1.01452e-10
-3.52453e-11
4.42284e-11
-2.2059e-11
-5.60559e-12
2.33638e-11
-8.04392e-11
1.28819e-10
-1.63044e-10
1.90955e-10
-3.11853e-10
2.24272e-10
-4.22207e-10
2.16343e-10
-4.86122e-10
1.99437e-10
-5.22917e-10
1.74485e-10
-5.31267e-10
1.32438e-10
-5.80342e-10
8.17689e-11
-6.68411e-10
7.97499e-11
-8.16356e-10
9.58225e-11
-1.02142e-09
1.1564e-10
-1.27769e-09
1.4413e-10
-1.64999e-09
2.51361e-10
-2.15387e-09
3.54764e-10
-2.45869e-09
4.44624e-10
-3.05794e-09
5.00593e-10
-3.55251e-09
3.78872e-10
-4.01247e-09
3.81647e-10
-4.19382e-09
2.73663e-10
-4.68171e-09
5.99621e-10
-5.40044e-09
8.5855e-10
-6.39992e-09
1.06607e-09
-7.14218e-09
7.25844e-10
-7.80936e-09
6.59236e-10
-8.45003e-09
6.8152e-10
-9.05386e-09
7.43038e-10
-9.62233e-09
8.1333e-10
-1.0173e-08
9.21932e-10
-1.03238e-08
6.82655e-10
-1.03423e-08
6.64401e-10
-1.0629e-08
1.04656e-09
-1.08195e-08
1.11813e-09
-1.0966e-08
1.1757e-09
-1.11554e-08
1.2347e-09
-1.13053e-08
1.34576e-09
-1.15716e-08
1.62328e-09
-1.17674e-08
1.69894e-09
-1.19561e-08
1.8356e-09
-1.21768e-08
2.08438e-09
2.60718e-09
-1.25064e-08
-4.15543e-12
-7.6277e-15
-1.40645e-11
-1.93654e-13
-2.90028e-11
-3.75771e-14
-4.90482e-11
5.32457e-13
-7.43601e-11
1.36864e-12
-1.33022e-10
3.79155e-12
-2.97571e-10
2.51882e-11
-4.58982e-10
1.25881e-10
-1.26419e-09
7.83153e-10
-2.43191e-09
1.19108e-09
-3.58967e-09
1.28658e-09
-4.6989e-09
1.30019e-09
-5.78485e-09
1.31022e-09
-6.87831e-09
1.3098e-09
-7.96367e-09
1.2848e-09
-9.10307e-09
1.31389e-09
-1.0315e-08
1.34434e-09
-1.15592e-08
1.326e-09
-1.27933e-08
1.31383e-09
-1.40601e-08
1.36267e-09
-1.51965e-08
1.25201e-09
-1.63814e-08
1.32904e-09
-1.75072e-08
1.37712e-09
-1.85809e-08
1.42851e-09
-1.95659e-08
1.42956e-09
-2.05121e-08
1.44687e-09
-2.16302e-08
1.49697e-09
-2.27513e-08
1.50272e-09
-2.39977e-08
1.52004e-09
-2.49355e-08
1.53737e-09
-2.58099e-08
1.73297e-09
-2.65368e-08
1.79304e-09
-2.7498e-08
1.68696e-09
-2.84676e-08
1.62888e-09
-2.93964e-08
1.6103e-09
-3.03045e-08
1.6512e-09
-3.11832e-08
1.69202e-09
-3.19023e-08
1.64096e-09
-3.28597e-08
1.64008e-09
-3.39815e-08
1.78622e-09
-3.45572e-08
1.62225e-09
-3.50229e-08
1.58388e-09
-3.53052e-08
1.45796e-09
-3.54679e-08
1.39741e-09
-3.55372e-08
1.41504e-09
-3.54179e-08
1.50399e-09
-3.51439e-08
1.42495e-09
-3.46513e-08
1.34294e-09
-3.39311e-08
1.36423e-09
1.56032e-09
-3.28842e-08
-1.26328e-12
1.25565e-12
-5.8019e-12
4.34497e-12
-1.34941e-11
7.65464e-12
-2.38901e-11
1.09285e-11
-1.15157e-10
1.42587e-11
-2.31232e-10
2.00648e-11
-5.03026e-10
2.96983e-10
-9.1922e-10
5.42075e-10
-1.34924e-09
1.21317e-09
-2.16279e-09
2.00463e-09
-3.0578e-09
2.18159e-09
-3.97277e-09
2.21516e-09
-4.86926e-09
2.20671e-09
-5.7618e-09
2.20233e-09
-6.67616e-09
2.19917e-09
-7.59503e-09
2.23276e-09
-8.52728e-09
2.2766e-09
-9.497e-09
2.29572e-09
-1.04706e-08
2.28744e-09
-1.13532e-08
2.24527e-09
-1.23373e-08
2.23609e-09
-1.32277e-08
2.21947e-09
-1.40643e-08
2.21373e-09
-1.48217e-08
2.18591e-09
-1.55491e-08
2.15694e-09
-1.62725e-08
2.17023e-09
-1.69777e-08
2.2022e-09
-1.77036e-08
2.22861e-09
-1.83861e-08
2.2025e-09
-1.91193e-08
2.27062e-09
-1.93962e-08
2.00982e-09
-1.96486e-08
2.04545e-09
-1.99212e-08
1.95962e-09
-2.02485e-08
1.95617e-09
-2.07503e-08
2.11205e-09
-2.12862e-08
2.18712e-09
-2.17794e-08
2.18528e-09
-2.22867e-08
2.14823e-09
-2.28272e-08
2.18059e-09
-2.3204e-08
2.16302e-09
-2.36898e-08
2.10808e-09
-2.41957e-08
2.08976e-09
-2.47623e-08
2.02458e-09
-2.53084e-08
1.94346e-09
-2.57931e-08
1.89977e-09
-2.61293e-08
1.84021e-09
-2.64407e-08
1.7363e-09
-2.66279e-08
1.53019e-09
-2.66522e-08
1.3885e-09
1.42361e-09
-2.65155e-08
8.66631e-13
3.89016e-13
4.07347e-12
1.13813e-12
9.77018e-12
1.95793e-12
1.78402e-11
2.85838e-12
-1.81814e-10
4.24102e-12
-1.72645e-10
1.08961e-11
-3.77798e-10
5.02136e-10
-6.49952e-10
8.14228e-10
-6.21272e-10
1.18449e-09
-2.70825e-10
1.65418e-09
-1.55267e-11
1.92629e-09
9.47832e-11
2.10485e-09
1.06933e-10
2.19456e-09
1.11899e-10
2.19737e-09
8.34251e-11
2.22764e-09
1.77889e-11
2.2984e-09
-7.54416e-11
2.36983e-09
-1.59038e-10
2.37931e-09
-2.47524e-10
2.37593e-09
-3.69231e-10
2.36697e-09
-5.01014e-10
2.36788e-09
-6.57642e-10
2.3761e-09
-8.0282e-10
2.35891e-09
-9.57383e-10
2.34048e-09
-1.14676e-09
2.34632e-09
-1.25817e-09
2.28164e-09
-1.38274e-09
2.32677e-09
-1.48241e-09
2.32828e-09
-1.57872e-09
2.29881e-09
-1.51017e-09
2.20207e-09
-1.66572e-09
2.16537e-09
-1.72148e-09
2.10121e-09
-1.80438e-09
2.04252e-09
-1.80954e-09
1.96132e-09
-1.79015e-09
2.09267e-09
-1.99877e-09
2.39574e-09
-2.13052e-09
2.31703e-09
-2.22956e-09
2.24728e-09
-2.1984e-09
2.14943e-09
-2.11433e-09
2.07894e-09
-2.11488e-09
2.10863e-09
-2.39454e-09
2.36942e-09
-2.929e-09
2.55905e-09
-3.5543e-09
2.56875e-09
-4.15164e-09
2.49711e-09
-4.92055e-09
2.60913e-09
-5.55502e-09
2.37078e-09
-6.23354e-09
2.2087e-09
-6.79716e-09
1.95212e-09
1.78523e-09
-7.15878e-09
1.2572e-12
-8.68181e-13
4.47526e-12
-2.07993e-12
9.37168e-12
-2.93849e-12
1.58456e-11
-3.616e-12
-1.63925e-10
-4.76499e-12
-1.4096e-10
-1.20687e-11
3.21182e-10
3.99939e-11
9.61485e-10
1.73925e-10
1.81377e-09
3.32202e-10
2.96507e-09
5.0288e-10
4.16749e-09
7.23877e-10
5.25768e-09
1.01466e-09
6.11802e-09
1.33422e-09
6.74248e-09
1.57291e-09
7.25834e-09
1.71178e-09
7.72027e-09
1.83647e-09
8.18889e-09
1.90121e-09
8.62237e-09
1.94583e-09
9.0336e-09
1.9647e-09
9.43351e-09
1.96706e-09
9.79487e-09
2.00652e-09
9.9287e-09
2.24227e-09
1.00496e-08
2.23799e-09
1.01865e-08
2.20355e-09
1.03639e-08
2.16893e-09
1.04834e-08
2.16222e-09
1.06411e-08
2.16899e-09
1.07393e-08
2.23014e-09
1.07116e-08
2.32651e-09
1.04594e-08
2.45429e-09
1.0344e-08
2.28073e-09
1.02702e-08
2.17506e-09
1.02596e-08
2.05305e-09
1.02569e-08
1.96404e-09
1.0457e-08
1.89262e-09
1.1047e-08
1.80565e-09
1.15812e-08
1.7829e-09
1.20836e-08
1.74484e-09
1.25042e-08
1.72886e-09
1.29042e-08
1.67887e-09
1.32698e-08
1.74304e-09
1.36419e-08
1.99739e-09
1.39503e-08
2.25062e-09
1.41829e-08
2.33612e-09
1.43806e-08
2.29939e-09
1.47835e-08
2.20622e-09
1.49604e-08
2.19387e-09
1.50177e-08
2.15146e-09
1.48047e-08
2.16506e-09
1.72091e-09
1.48691e-08
-5.15007e-13
-3.53175e-13
-1.57697e-12
-1.01796e-12
-2.95708e-12
-1.55838e-12
-2.3342e-11
-1.91704e-12
-1.93784e-10
-2.40132e-12
-2.24034e-10
1.81819e-11
-2.27422e-10
4.33816e-11
-1.6528e-10
1.11783e-10
-2.22125e-11
1.89135e-10
2.06077e-10
2.7459e-10
5.44603e-10
3.8535e-10
1.03098e-09
5.28289e-10
1.63209e-09
7.33103e-10
2.29294e-09
9.12061e-10
2.96249e-09
1.04223e-09
3.68775e-09
1.1112e-09
4.43271e-09
1.15625e-09
5.19206e-09
1.18648e-09
5.93962e-09
1.21713e-09
6.65225e-09
1.25443e-09
7.32621e-09
1.33256e-09
7.99891e-09
1.56958e-09
8.45283e-09
1.78407e-09
8.92106e-09
1.73532e-09
9.42028e-09
1.6697e-09
9.98957e-09
1.59293e-09
1.05059e-08
1.65271e-09
1.10289e-08
1.70711e-09
1.15025e-08
1.85292e-09
1.19222e-08
2.03458e-09
1.21339e-08
2.06899e-09
1.23313e-08
1.97771e-09
1.25351e-08
1.84926e-09
1.27471e-08
1.752e-09
1.29658e-08
1.67396e-09
1.33195e-08
1.45189e-09
1.38267e-08
1.27577e-09
1.43681e-08
1.20344e-09
1.49353e-08
1.16157e-09
1.54632e-08
1.15101e-09
1.6073e-08
1.13324e-09
1.69951e-08
1.07532e-09
1.82316e-08
1.01414e-09
1.9344e-08
1.22372e-09
2.01257e-08
1.51763e-09
2.06393e-08
1.69259e-09
2.10932e-08
1.73996e-09
2.14853e-08
1.75942e-09
2.18766e-08
1.77379e-09
1.77458e-09
2.18229e-08
-3.01629e-13
-5.15467e-14
-1.07336e-12
-2.46232e-13
-2.11027e-12
-5.21476e-13
-7.47127e-11
-8.51338e-13
-1.76836e-10
-1.08733e-12
-1.63128e-10
4.47399e-12
-1.53296e-10
3.35493e-11
-2.83279e-11
-1.31852e-11
2.00089e-10
-3.92818e-11
4.79848e-10
-5.16811e-12
7.8981e-10
7.53882e-11
1.13415e-09
1.83948e-10
1.59459e-09
2.72664e-10
2.18113e-09
3.2552e-10
2.84145e-09
3.81911e-10
3.48938e-09
4.63276e-10
4.19384e-09
4.51793e-10
4.90313e-09
4.77185e-10
5.63369e-09
4.86579e-10
6.38049e-09
5.07634e-10
7.19014e-09
5.229e-10
8.18518e-09
5.74536e-10
9.30118e-09
6.68073e-10
1.03021e-08
7.34361e-10
1.11613e-08
8.10588e-10
1.18703e-08
8.83907e-10
1.25571e-08
9.65923e-10
1.32179e-08
1.04632e-09
1.39097e-08
1.16108e-09
1.46317e-08
1.31258e-09
1.52912e-08
1.40946e-09
1.58401e-08
1.42887e-09
1.6288e-08
1.40133e-09
1.67034e-08
1.33655e-09
1.71923e-08
1.18512e-09
1.77038e-08
9.40372e-10
1.82555e-08
7.24059e-10
1.87869e-08
6.72027e-10
1.93361e-08
6.1238e-10
1.96757e-08
8.11409e-10
1.98331e-08
9.75909e-10
1.99018e-08
1.00655e-09
1.99634e-08
9.52568e-10
2.01392e-08
1.04789e-09
2.03012e-08
1.35566e-09
2.05678e-08
1.42603e-09
2.087e-08
1.43775e-09
2.11641e-08
1.46535e-09
2.14583e-08
1.47959e-09
1.53197e-09
2.17009e-08
1.47193e-12
-1.52348e-12
5.65704e-12
-4.43134e-12
1.22467e-11
-7.11116e-12
2.08954e-11
-9.50006e-12
-1.00587e-10
-1.16049e-11
-7.43823e-11
-2.17306e-11
-9.81598e-12
-3.10171e-11
1.49874e-10
-1.72875e-10
3.47978e-10
-2.37386e-10
5.84633e-10
-2.41823e-10
8.50514e-10
-1.90493e-10
1.14873e-09
-1.14265e-10
1.46857e-09
-4.71825e-11
1.79771e-09
-3.61337e-12
2.16192e-09
1.76982e-11
2.59131e-09
3.38839e-11
2.97894e-09
6.41656e-11
3.34864e-09
1.0748e-10
3.69241e-09
1.42818e-10
4.04641e-09
1.53632e-10
4.40451e-09
1.64799e-10
4.84241e-09
1.36632e-10
5.4761e-09
3.43883e-11
6.20171e-09
8.74521e-12
6.90377e-09
1.08533e-10
7.56925e-09
2.18426e-10
8.25248e-09
2.8269e-10
9.00725e-09
2.91551e-10
9.89899e-09
2.69338e-10
1.0851e-08
3.60561e-10
1.17751e-08
4.85395e-10
1.26386e-08
5.6531e-10
1.34588e-08
5.81169e-10
1.4241e-08
5.54376e-10
1.49232e-08
5.02852e-10
1.54383e-08
4.25307e-10
1.58381e-08
3.24238e-10
1.61488e-08
3.61386e-10
1.62928e-08
4.68387e-10
1.65627e-08
5.4147e-10
1.6829e-08
7.09586e-10
1.70327e-08
8.02886e-10
1.71332e-08
8.52103e-10
1.72831e-08
8.97979e-10
1.7692e-08
9.46718e-10
1.81205e-08
9.97526e-10
1.85076e-08
1.05063e-09
1.88644e-08
1.10853e-09
1.91517e-08
1.19238e-09
1.34981e-09
1.93338e-08
2.10553e-12
-3.62901e-12
7.49312e-12
-9.81893e-12
1.56069e-11
-1.52249e-11
2.61439e-11
-2.00371e-11
3.8947e-11
-2.44079e-11
-1.52049e-10
-2.88381e-11
-1.65714e-10
-3.50515e-11
-3.20043e-10
-2.52659e-11
-5.44264e-10
-1.48434e-11
-7.72267e-10
-1.38207e-11
-9.38621e-10
-2.41386e-11
-1.02499e-09
-2.78982e-11
-1.05005e-09
-2.21249e-11
-1.03327e-09
-2.03909e-11
-9.8624e-10
-2.933e-11
-8.81804e-10
-7.0552e-11
-7.05247e-10
-1.12392e-10
-5.64812e-10
-3.29547e-11
-4.44964e-10
2.29701e-11
-3.20548e-10
2.92152e-11
-1.49876e-10
-5.87283e-12
5.20178e-11
-6.52609e-11
2.974e-10
-2.10994e-10
5.46092e-10
-2.39947e-10
8.10589e-10
-1.55963e-10
1.13863e-09
-1.09615e-10
1.5806e-09
-1.59276e-10
2.11215e-09
-2.40006e-10
2.69842e-09
-3.1693e-10
3.27236e-09
-2.13378e-10
3.76775e-09
-9.99144e-12
4.28241e-09
5.0644e-11
4.83802e-09
2.55584e-11
5.42436e-09
-3.19609e-11
6.03188e-09
-1.04664e-10
6.60429e-09
-1.47104e-10
7.05061e-09
-1.22084e-10
7.45553e-09
-4.35306e-11
7.89444e-09
2.94773e-11
8.32225e-09
1.13656e-10
8.81846e-09
2.13377e-10
9.30417e-09
3.17171e-10
9.76876e-09
3.87516e-10
1.02399e-08
4.26887e-10
1.07366e-08
4.49931e-10
1.12381e-08
4.96046e-10
1.17313e-08
5.57479e-10
1.22207e-08
6.19072e-10
1.27062e-08
7.0691e-10
8.83937e-10
1.31721e-08
1.64057e-13
-3.79307e-12
1.09947e-12
-1.07543e-11
3.08882e-12
-1.72143e-11
6.28912e-12
-2.32374e-11
1.07156e-11
-2.88344e-11
1.57639e-11
-3.38858e-11
1.90425e-11
-3.83311e-11
3.63836e-11
-4.26057e-11
6.85384e-11
-4.68763e-11
1.2456e-11
-5.22782e-11
5.94769e-12
-5.72232e-11
2.99853e-12
-6.12926e-11
1.2974e-11
-6.38964e-11
3.19536e-11
-6.59602e-11
4.9128e-11
-6.72115e-11
3.14515e-11
-6.72517e-11
-2.55757e-11
-6.34361e-11
-1.6472e-11
-4.47293e-11
4.48149e-11
-3.84433e-11
1.25034e-10
-5.1004e-11
1.84472e-10
-6.5311e-11
1.89112e-10
-6.99008e-11
4.12423e-11
-6.31245e-11
-1.38783e-10
-5.99217e-11
-2.33561e-10
-6.11849e-11
-2.83743e-10
-5.94327e-11
-3.83172e-10
-5.98476e-11
-5.45585e-10
-7.75932e-11
-7.37818e-10
-1.24696e-10
-8.89655e-10
-6.1542e-11
-9.2598e-10
2.63337e-11
-8.95548e-10
2.02123e-11
-8.45222e-10
-2.47676e-11
-8.05726e-10
-7.14572e-11
-7.79086e-10
-1.31304e-10
-7.72338e-10
-1.53852e-10
-7.68552e-10
-1.25871e-10
-7.11261e-10
-1.00821e-10
-6.03591e-10
-7.81926e-11
-4.71247e-10
-1.86884e-11
-2.80143e-10
2.22727e-11
-5.50574e-11
9.20855e-11
2.11727e-10
1.20732e-10
5.10651e-10
1.27963e-10
8.20072e-10
1.40509e-10
1.24477e-09
7.13459e-11
1.67791e-09
1.24346e-10
2.14039e-09
1.56588e-10
2.67597e-09
1.71325e-10
1.74757e-10
3.38515e-09
-1.19138e-13
-3.67392e-12
-2.38784e-13
-1.06347e-11
-1.88256e-13
-1.72648e-11
2.27833e-13
-2.36535e-11
1.22589e-12
-2.98325e-11
3.14875e-12
-3.58087e-11
6.41584e-12
-4.15982e-11
1.10379e-11
-4.72277e-11
1.68711e-11
-5.27095e-11
2.2456e-11
-5.78687e-11
2.79103e-11
-6.2676e-11
3.34997e-11
-6.68863e-11
4.01152e-11
-7.05135e-11
4.77007e-11
-7.35457e-11
5.6556e-11
-7.60667e-11
6.73266e-11
-7.80223e-11
8.31971e-11
-7.93068e-11
1.19522e-10
-8.10541e-11
1.75551e-10
-8.33644e-11
1.71823e-10
-8.69126e-11
1.61679e-10
-9.03323e-11
1.524e-10
-9.26744e-11
1.546e-10
-9.38648e-11
1.64718e-10
-9.49714e-11
1.78918e-10
-9.66453e-11
2.00564e-10
-9.83712e-11
2.2736e-10
-9.96841e-11
2.40968e-10
-1.00034e-10
2.0835e-10
-9.71774e-11
2.3192e-10
-8.73032e-11
3.39324e-10
-8.11684e-11
4.47581e-10
-8.80452e-11
5.20848e-10
-9.80341e-11
5.48852e-10
-9.94615e-11
5.02837e-10
-8.5288e-11
4.12562e-10
-6.35772e-11
3.4716e-10
-6.04689e-11
3.08848e-10
-6.25089e-11
3.06626e-10
-7.59705e-11
3.14269e-10
-2.63316e-11
3.44951e-10
-8.40888e-12
4.46822e-10
-9.78564e-12
5.68584e-10
-1.02959e-12
6.97042e-10
-4.95911e-13
8.65187e-10
-2.76357e-11
1.01154e-09
-7.5004e-11
1.27205e-09
-1.36169e-10
1.57345e-09
-1.44807e-10
1.87551e-09
-1.30734e-10
-8.95857e-11
2.13985e-09
-2.43964e-13
-3.42995e-12
-8.61308e-13
-1.00173e-11
-1.76075e-12
-1.63653e-11
-2.91529e-12
-2.24989e-11
-4.32181e-12
-2.8426e-11
-5.98444e-12
-3.41461e-11
-7.91789e-12
-3.96648e-11
-1.01581e-11
-4.49875e-11
-1.27503e-11
-5.01173e-11
-1.55651e-11
-5.50539e-11
-1.84456e-11
-5.97955e-11
-2.09918e-11
-6.43401e-11
-2.28165e-11
-6.86888e-11
-2.35158e-11
-7.28464e-11
-2.2762e-11
-7.68205e-11
-2.01594e-11
-8.06249e-11
-1.51862e-11
-8.428e-11
-8.42574e-12
-8.78146e-11
-5.16131e-13
-9.1274e-11
7.13496e-12
-9.45647e-11
1.44391e-11
-9.76369e-11
2.21044e-11
-1.0034e-10
3.09545e-11
-1.02715e-10
4.07906e-11
-1.04808e-10
5.07871e-11
-1.06642e-10
6.05915e-11
-1.08176e-10
7.01624e-11
-1.09257e-10
7.98501e-11
-1.09723e-10
9.21422e-11
-1.0947e-10
1.13955e-10
-1.0912e-10
1.56408e-10
-1.09068e-10
1.61404e-10
-1.09478e-10
1.59643e-10
-1.09663e-10
1.57904e-10
-1.08591e-10
1.70211e-10
-1.05893e-10
2.03665e-10
-1.02926e-10
2.40791e-10
-1.01412e-10
2.75656e-10
-9.93808e-11
2.97802e-10
-9.85357e-11
3.73101e-10
-1.0163e-10
4.5365e-10
-8.89579e-11
5.08041e-10
-6.41772e-11
5.65532e-10
-5.85199e-11
6.21386e-10
-5.635e-11
6.74919e-10
-8.11685e-11
7.40436e-10
-1.40522e-10
8.51174e-10
-2.46907e-10
9.16682e-10
-2.10315e-10
9.26527e-10
-1.40579e-10
-1.29776e-10
9.66717e-10
-2.02624e-13
-3.22733e-12
-7.52185e-13
-9.46779e-12
-1.5852e-12
-1.55323e-11
-2.6538e-12
-2.14303e-11
-3.92433e-12
-2.71554e-11
-5.36782e-12
-3.27026e-11
-6.95969e-12
-3.80729e-11
-8.67887e-12
-4.32683e-11
-1.0507e-11
-4.82892e-11
-1.24261e-11
-5.31348e-11
-1.44173e-11
-5.78042e-11
-1.6461e-11
-6.22964e-11
-1.85389e-11
-6.66109e-11
-2.06377e-11
-7.07476e-11
-2.27511e-11
-7.47071e-11
-2.48858e-11
-7.84903e-11
-2.70671e-11
-8.20986e-11
-2.93486e-11
-8.55332e-11
-3.18274e-11
-8.87952e-11
-3.45094e-11
-9.18828e-11
-3.7355e-11
-9.47913e-11
-4.01784e-11
-9.75164e-11
-4.2837e-11
-1.00056e-10
-4.52333e-11
-1.02411e-10
-4.72947e-11
-1.04581e-10
-4.89083e-11
-1.06562e-10
-4.98109e-11
-1.08354e-10
-4.95793e-11
-1.09955e-10
-4.76764e-11
-1.11373e-10
-4.41685e-11
-1.12628e-10
-3.94941e-11
-1.13743e-10
-3.43077e-11
-1.14667e-10
-2.86146e-11
-1.1536e-10
-2.14992e-11
-1.15714e-10
-1.16571e-11
-1.15784e-10
1.05794e-12
-1.15692e-10
1.50221e-11
-1.15399e-10
3.08832e-11
-1.15249e-10
4.87934e-11
-1.14936e-10
5.38882e-11
-1.13971e-10
7.35668e-11
-1.12425e-10
1.17719e-10
-1.10669e-10
1.67564e-10
-1.09485e-10
2.18762e-10
-1.07727e-10
2.47171e-10
-1.09628e-10
2.28854e-10
-1.22206e-10
1.26853e-10
-1.44905e-10
5.53221e-11
-1.38784e-10
6.52081e-11
-1.50465e-10
-1.85451e-10
1.20884e-10
-9.21642e-14
-3.23532e-13
-6.79839e-13
-1.15039e-12
-1.71689e-12
-2.35437e-12
-3.03819e-12
-3.74513e-12
-4.45255e-12
-5.13777e-12
-5.77771e-12
-6.34909e-12
-6.8287e-12
-7.1938e-12
-7.42249e-12
-7.4941e-12
-7.3894e-12
-7.0902e-12
-6.57944e-12
-5.83793e-12
-4.8416e-12
-3.56144e-12
-1.9657e-12
-2.11948e-14
2.30748e-12
5.05978e-12
8.2801e-12
1.20171e-11
1.63153e-11
2.12037e-11
2.6694e-11
3.28531e-11
3.97919e-11
4.77335e-11
5.68548e-11
6.72178e-11
7.89606e-11
9.18603e-11
1.06016e-10
1.2201e-10
1.40421e-10
1.61473e-10
1.84596e-10
2.09624e-10
2.33302e-10
2.48845e-10
2.44527e-10
2.53227e-10
2.60863e-10
2.68296e-10
-5.47221e-09
3.04193e-09
-5.54678e-09
3.01833e-09
-5.62227e-09
2.99363e-09
-5.70549e-09
2.96972e-09
-5.80026e-09
2.9457e-09
-5.90776e-09
2.92016e-09
-6.02736e-09
2.89196e-09
-6.15785e-09
2.86078e-09
-6.29812e-09
2.8268e-09
-6.44754e-09
2.79045e-09
-6.60625e-09
2.75253e-09
-6.77486e-09
2.71372e-09
-6.95349e-09
2.67381e-09
-7.14089e-09
2.63188e-09
-7.33439e-09
2.58682e-09
-7.53038e-09
2.53791e-09
-7.72524e-09
2.48514e-09
-7.91671e-09
2.42977e-09
-8.10464e-09
2.37377e-09
-8.28986e-09
2.31817e-09
-8.47317e-09
2.26306e-09
-8.65507e-09
2.20837e-09
-8.83587e-09
2.15419e-09
-9.01592e-09
2.10071e-09
-9.19556e-09
2.04822e-09
-9.37525e-09
1.99701e-09
-9.55551e-09
1.94736e-09
-9.73696e-09
1.89955e-09
-9.9203e-09
1.85384e-09
-1.01063e-08
1.81046e-09
-1.02958e-08
1.76962e-09
-1.04898e-08
1.73151e-09
-1.0689e-08
1.69632e-09
-1.08947e-08
1.66419e-09
-1.11076e-08
1.63523e-09
-1.13288e-08
1.60954e-09
-1.15594e-08
1.5872e-09
-1.18004e-08
1.56829e-09
-1.20528e-08
1.55292e-09
-1.23178e-08
1.5412e-09
-1.25963e-08
1.53323e-09
-1.28894e-08
1.52912e-09
-1.31981e-08
1.52892e-09
-1.35233e-08
1.53263e-09
-1.38659e-08
1.54023e-09
-1.42267e-08
1.55169e-09
-1.46065e-08
1.56696e-09
-1.50061e-08
1.58598e-09
-1.54262e-08
1.60867e-09
1.63498e-09
-1.58676e-08
-7.17588e-09
3.03965e-09
-7.2054e-09
3.04785e-09
-7.24947e-09
3.0377e-09
-7.29848e-09
3.01873e-09
-7.34833e-09
2.99555e-09
-7.39999e-09
2.97182e-09
-7.45796e-09
2.94993e-09
-7.52607e-09
2.92889e-09
-7.60882e-09
2.90954e-09
-7.71026e-09
2.89189e-09
-7.831e-09
2.87327e-09
-7.96313e-09
2.84586e-09
-8.09561e-09
2.80628e-09
-8.22157e-09
2.75785e-09
-8.34334e-09
2.70858e-09
-8.4722e-09
2.66677e-09
-8.62407e-09
2.63701e-09
-8.80853e-09
2.61423e-09
-9.01667e-09
2.58191e-09
-9.23667e-09
2.53816e-09
-9.46227e-09
2.48866e-09
-9.69161e-09
2.43771e-09
-9.92445e-09
2.38703e-09
-1.01611e-08
2.33738e-09
-1.04021e-08
2.28922e-09
-1.06481e-08
2.24298e-09
-1.08998e-08
2.19905e-09
-1.1158e-08
2.15778e-09
-1.14237e-08
2.11951e-09
-1.16978e-08
2.08456e-09
-1.19814e-08
2.0532e-09
-1.22755e-08
2.02567e-09
-1.25814e-08
2.00218e-09
-1.29001e-08
1.98289e-09
-1.32328e-08
1.96791e-09
-1.35806e-08
1.95735e-09
-1.39447e-08
1.95131e-09
-1.43262e-08
1.94986e-09
-1.47264e-08
1.9531e-09
-1.51464e-08
1.96112e-09
-1.55871e-08
1.97396e-09
-1.60496e-08
1.99162e-09
-1.65347e-08
2.01407e-09
-1.70433e-08
2.04123e-09
-1.75761e-08
2.07302e-09
-1.81337e-08
2.10932e-09
-1.87168e-08
2.15003e-09
-1.93258e-08
2.19501e-09
-1.99613e-08
2.24414e-09
2.29726e-09
-2.06236e-08
-5.0194e-09
2.65904e-09
-4.84082e-09
2.86927e-09
-4.87363e-09
3.07052e-09
-5.07882e-09
3.22393e-09
-5.39995e-09
3.31667e-09
-5.79146e-09
3.36334e-09
-6.20871e-09
3.36718e-09
-6.62311e-09
3.34329e-09
-7.02261e-09
3.30904e-09
-7.39942e-09
3.2687e-09
-7.72714e-09
3.20099e-09
-8.00333e-09
3.12205e-09
-8.28039e-09
3.08334e-09
-8.63035e-09
3.1078e-09
-9.07144e-09
3.14967e-09
-9.57051e-09
3.16585e-09
-1.00461e-08
3.11255e-09
-1.03747e-08
2.94284e-09
-1.05944e-08
2.80162e-09
-1.0791e-08
2.73481e-09
-1.10031e-08
2.70076e-09
-1.12328e-08
2.66745e-09
-1.14778e-08
2.63199e-09
-1.17368e-08
2.59641e-09
-1.20098e-08
2.56216e-09
-1.22969e-08
2.5301e-09
-1.25987e-08
2.50086e-09
-1.29159e-08
2.47497e-09
-1.32493e-08
2.4529e-09
-1.35998e-08
2.43505e-09
-1.39683e-08
2.42177e-09
-1.4356e-08
2.41336e-09
-1.47639e-08
2.41002e-09
-1.51929e-08
2.41193e-09
-1.56442e-08
2.4192e-09
-1.61188e-08
2.43193e-09
-1.66177e-08
2.45018e-09
-1.71418e-08
2.47401e-09
-1.76922e-08
2.50346e-09
-1.82695e-08
2.5385e-09
-1.88747e-08
2.57908e-09
-1.95081e-08
2.62507e-09
-2.01704e-08
2.67632e-09
-2.08618e-08
2.73267e-09
-2.15827e-08
2.79395e-09
-2.23334e-08
2.85995e-09
-2.31138e-08
2.93048e-09
-2.39241e-08
3.0053e-09
-2.47642e-08
3.0842e-09
3.16692e-09
-2.56338e-08
7.6625e-10
2.65696e-09
7.24711e-10
2.91081e-09
5.94901e-10
3.20033e-09
4.65021e-10
3.35381e-09
3.53325e-10
3.42837e-09
1.97821e-10
3.51884e-09
-4.89494e-11
3.61395e-09
-4.66565e-10
3.7609e-09
-1.07448e-09
3.91696e-09
-1.7514e-09
3.94562e-09
-2.43825e-09
3.88784e-09
-3.13103e-09
3.81483e-09
-3.82902e-09
3.78134e-09
-4.54998e-09
3.82877e-09
-5.51114e-09
4.11083e-09
-6.56559e-09
4.22029e-09
-7.62398e-09
4.17094e-09
-8.59643e-09
3.91529e-09
-9.47615e-09
3.68134e-09
-1.01887e-08
3.4474e-09
-1.06852e-08
3.19723e-09
-1.1095e-08
3.0772e-09
-1.14869e-08
3.0239e-09
-1.18855e-08
2.99501e-09
-1.22978e-08
2.97448e-09
-1.27256e-08
2.95787e-09
-1.31693e-08
2.94461e-09
-1.36295e-08
2.93517e-09
-1.41069e-08
2.93025e-09
-1.46023e-08
2.9305e-09
-1.5117e-08
2.93646e-09
-1.56522e-08
2.94855e-09
-1.62092e-08
2.96703e-09
-1.67894e-08
2.99208e-09
-1.73939e-08
3.02377e-09
-1.80241e-08
3.0621e-09
-1.8681e-08
3.10704e-09
-1.93655e-08
3.15853e-09
-2.00785e-08
3.21644e-09
-2.08206e-08
3.2806e-09
-2.15923e-08
3.35076e-09
-2.23938e-08
3.42664e-09
-2.32254e-08
3.50795e-09
-2.40872e-08
3.5944e-09
-2.49789e-08
3.68569e-09
-2.59005e-08
3.78151e-09
-2.68515e-08
3.88152e-09
-2.78316e-08
3.98543e-09
-2.88403e-08
4.09289e-09
4.20368e-09
-2.98771e-08
7.5699e-09
2.84385e-09
7.3708e-09
3.1099e-09
7.37772e-09
3.19341e-09
7.53443e-09