/*--------------------------------*- C++ -*----------------------------------*\
| =========                 |                                                 |
| \\      /  F ield         | OpenFOAM: The Open Source CFD Toolbox           |
|  \\    /   O peration     | Version:  2.4.0                                 |
|   \\  /    A nd           | Web:      www.OpenFOAM.org                      |
|    \\/     M anipulation  |                                                 |
\*---------------------------------------------------------------------------*/
FoamFile
{
    version     2.0;
    format      ascii;
    class       volVectorField;
    location    "3.8";
    object      U;
}
// * * * * * * * * * * * * * * * * * * * * * * * * * * * * * * * * * * * * * //

dimensions      [0 1 -1 0 0 0 0];

internalField   nonuniform List<vector> 
8000
(
(-3.66993e-07 4.14913e-05 0)
(-6.49477e-06 9.65376e-05 0)
(-1.87068e-05 0.000128029 0)
(-3.62812e-05 0.000140435 0)
(-5.80844e-05 0.000138255 0)
(-8.31058e-05 0.000125397 0)
(-0.000110471 0.0001051 0)
(-0.000139373 8.00059e-05 0)
(-0.000169042 5.22483e-05 0)
(-0.000198734 2.35073e-05 0)
(-0.000227722 -4.93581e-06 0)
(-0.000255291 -3.21539e-05 0)
(-0.000280731 -5.75349e-05 0)
(-0.00030333 -8.07482e-05 0)
(-0.00032237 -0.000101718 0)
(-0.00033712 -0.000120599 0)
(-0.000346831 -0.000137747 0)
(-0.000350733 -0.000153707 0)
(-0.000348011 -0.000169176 0)
(-0.000337791 -0.000184958 0)
(-0.000319077 -0.000202023 0)
(-0.000290533 -0.000221596 0)
(-0.000250308 -0.000245078 0)
(-0.00019602 -0.000273444 0)
(-0.000126005 -0.00030675 0)
(-3.91179e-05 -0.00034767 0)
(6.50532e-05 -0.000411619 0)
(0.000171186 -0.00052708 0)
(0.000188044 -0.000323734 0)
(0.000136987 -0.000104129 0)
(8.64933e-05 5.34324e-05 0)
(-0.000173894 0.000561712 0)
(-0.000725459 -0.00421532 0)
(-0.000763386 -0.0073606 0)
(-0.000865997 -0.0067771 0)
(-0.00131517 -0.00337448 0)
(-0.00246228 0.000937327 0)
(-0.00427403 0.00432231 0)
(-0.00613754 0.00893163 0)
(-0.00815472 0.0144481 0)
(-0.0121116 0.0276059 0)
(-0.0158948 0.071676 0)
(-0.0226286 0.140609 0)
(-0.0291612 0.198896 0)
(-0.0336648 0.240382 0)
(-0.0367795 0.268715 0)
(-0.0390311 0.286906 0)
(-0.0406684 0.297796 0)
(-0.0418638 0.303567 0)
(-0.0427582 0.305914 0)
(3.15225e-08 -4.15214e-05 0)
(-1.28923e-06 -0.000130878 0)
(-3.61115e-06 -0.000225443 0)
(-6.44179e-06 -0.000323515 0)
(-9.26386e-06 -0.000422954 0)
(-1.17561e-05 -0.000522041 0)
(-1.36899e-05 -0.000619552 0)
(-1.49077e-05 -0.000714694 0)
(-1.53318e-05 -0.000806972 0)
(-1.49584e-05 -0.000896144 0)
(-1.38569e-05 -0.000982159 0)
(-1.21727e-05 -0.00106513 0)
(-1.01361e-05 -0.00114528 0)
(-8.06973e-06 -0.00122296 0)
(-6.36668e-06 -0.00129854 0)
(-5.4664e-06 -0.00137244 0)
(-5.81325e-06 -0.00144518 0)
(-7.73461e-06 -0.00151761 0)
(-1.13068e-05 -0.00159115 0)
(-1.73043e-05 -0.00166662 0)
(-2.89423e-05 -0.00174559 0)
(-5.02066e-05 -0.00183466 0)
(-7.7873e-05 -0.00196206 0)
(-0.000100728 -0.00216519 0)
(-0.000142558 -0.0023403 0)
(-0.000295791 -0.00249033 0)
(-0.000643933 -0.00238651 0)
(-0.00106645 -0.0027835 0)
(-0.00157551 -0.00212295 0)
(-0.00296751 0.00128225 0)
(-0.00525683 0.0065847 0)
(-0.00811161 0.0146861 0)
(-0.0118881 0.0161406 0)
(-0.0149488 0.0134781 0)
(-0.0184171 0.0186315 0)
(-0.0239534 0.0363395 0)
(-0.0299139 0.0568504 0)
(-0.0349497 0.0648456 0)
(-0.0396035 0.0739179 0)
(-0.0452839 0.086497 0)
(-0.0533867 0.117081 0)
(-0.0673729 0.18184 0)
(-0.0627843 0.237906 0)
(-0.0650746 0.253868 0)
(-0.0653917 0.275545 0)
(-0.0644443 0.294596 0)
(-0.0620955 0.305742 0)
(-0.0598867 0.309795 0)
(-0.0582535 0.309567 0)
(-0.0574941 0.307072 0)
(1.59603e-07 7.23016e-05 0)
(1.2335e-05 0.000167633 0)
(4.01139e-05 0.000221667 0)
(8.37694e-05 0.000242565 0)
(0.000142545 0.000238262 0)
(0.000215745 0.000215592 0)
(0.000302735 0.000180298 0)
(0.000402907 0.000137195 0)
(0.000515684 9.03792e-05 0)
(0.000640524 4.33834e-05 0)
(0.000776903 -6.52245e-07 0)
(0.000924382 -3.88347e-05 0)
(0.0010828 -6.83494e-05 0)
(0.00125256 -8.62792e-05 0)
(0.00143477 -8.98507e-05 0)
(0.0016296 -7.68399e-05 0)
(0.0018331 -4.92417e-05 0)
(0.00203581 -9.7754e-06 0)
(0.00223632 1.5343e-05 0)
(0.00242163 7.20961e-06 0)
(0.00251734 0.000117588 0)
(0.0024343 0.000434113 0)
(0.00221066 0.000767612 0)
(0.00204957 0.00044662 0)
(0.00203961 0.00038927 0)
(0.00198306 0.00217418 0)
(0.00130655 0.0114907 0)
(-7.44122e-05 0.0145473 0)
(-0.0022054 0.0255095 0)
(-0.0045028 0.0454994 0)
(-0.00802215 0.0694535 0)
(-0.0115667 0.0811735 0)
(-0.0149511 0.0875216 0)
(-0.0182855 0.0926562 0)
(-0.0229154 0.0986869 0)
(-0.0298303 0.113054 0)
(-0.0324284 0.129865 0)
(-0.0356447 0.146684 0)
(-0.040768 0.165339 0)
(-0.0469768 0.179438 0)
(-0.051671 0.187112 0)
(-0.0548374 0.189067 0)
(-0.0571385 0.192364 0)
(-0.0581756 0.211452 0)
(-0.0609717 0.255068 0)
(-0.0581634 0.232634 0)
(-0.0541011 0.227545 0)
(-0.0511184 0.240251 0)
(-0.0480038 0.269035 0)
(-0.044707 0.291901 0)
(5.24324e-06 -0.000244771 0)
(3.81734e-05 -0.000738061 0)
(9.82436e-05 -0.00122855 0)
(0.000181686 -0.00171052 0)
(0.000284819 -0.00217932 0)
(0.000404796 -0.00263234 0)
(0.000539221 -0.00306833 0)
(0.000685856 -0.00348719 0)
(0.000842565 -0.00388953 0)
(0.00100748 -0.00427644 0)
(0.00117902 -0.00464891 0)
(0.00135605 -0.00500759 0)
(0.00153846 -0.00535357 0)
(0.00172213 -0.00569757 0)
(0.00188902 -0.00610041 0)
(0.00195247 -0.00659602 0)
(0.00180328 -0.00690164 0)
(0.00158901 -0.00665794 0)
(0.00169617 -0.00684287 0)
(0.00223359 -0.00711681 0)
(0.00301978 -0.00686446 0)
(0.00392226 -0.00445528 0)
(0.00441818 0.00128616 0)
(0.00399837 -0.00272321 0)
(0.00300761 -0.00287878 0)
(0.00196352 0.00564864 0)
(0.00080688 0.0229469 0)
(0.000483999 0.0291612 0)
(0.000317719 0.0472298 0)
(6.28748e-05 0.0619848 0)
(-0.000184852 0.0757418 0)
(-0.000210278 0.0906879 0)
(-0.000487607 0.119742 0)
(-0.00126929 0.132461 0)
(-0.00216778 0.138358 0)
(-0.0033981 0.143835 0)
(-0.00506736 0.148064 0)
(-0.00479842 0.170798 0)
(-0.00399754 0.209382 0)
(-0.00389832 0.233964 0)
(-0.00453636 0.249239 0)
(-0.00574965 0.255851 0)
(-0.00657947 0.258724 0)
(-0.00677172 0.259617 0)
(-0.0060857 0.253876 0)
(-0.00452255 0.246681 0)
(-0.00299978 0.240552 0)
(-0.00150031 0.234783 0)
(0.000685665 0.228776 0)
(0.00460521 0.221919 0)
(-4.78745e-06 -0.000314397 0)
(-4.26785e-05 -0.000901148 0)
(-0.000113374 -0.00144695 0)
(-0.000212714 -0.00195122 0)
(-0.00033638 -0.00241231 0)
(-0.000481701 -0.00282862 0)
(-0.000647459 -0.0031985 0)
(-0.000833761 -0.00352036 0)
(-0.00104217 -0.00379289 0)
(-0.00127271 -0.00401563 0)
(-0.00152389 -0.00419287 0)
(-0.00181189 -0.00435897 0)
(-0.00227257 -0.00456114 0)
(-0.00327719 -0.00391235 0)
(-0.00453543 -0.00421421 0)
(-0.00564237 -0.00533302 0)
(-0.0069686 -0.00679628 0)
(-0.00869735 -0.0031375 0)
(-0.00959018 -0.00958388 0)
(-0.0107586 -0.0161476 0)
(-0.012083 -0.015463 0)
(-0.0129667 -0.00705457 0)
(-0.0130509 0.00434346 0)
(-0.0134302 0.0242358 0)
(-0.0137835 0.0283156 0)
(-0.013609 0.0307584 0)
(-0.0130318 0.0334896 0)
(-0.0127325 0.0378698 0)
(-0.0132367 0.04658 0)
(-0.012408 0.0701274 0)
(-0.010765 0.0812124 0)
(-0.00949307 0.087154 0)
(-0.00749865 0.0955377 0)
(-0.00262674 0.11748 0)
(0.00216868 0.131193 0)
(0.00582553 0.135067 0)
(0.00870736 0.13675 0)
(0.0113171 0.139426 0)
(0.0147531 0.150653 0)
(0.0223964 0.18062 0)
(0.0282614 0.210557 0)
(0.034548 0.211831 0)
(0.0392545 0.210457 0)
(0.0441813 0.208111 0)
(0.0489793 0.2042 0)
(0.0528707 0.200096 0)
(0.0565696 0.196371 0)
(0.0607089 0.193681 0)
(0.0640028 0.194464 0)
(0.0649485 0.211612 0)
(-4.11022e-06 0.000272518 0)
(-1.49924e-05 0.00065755 0)
(-2.89721e-05 0.000915236 0)
(-4.34735e-05 0.00108001 0)
(-5.60834e-05 0.00118569 0)
(-6.34039e-05 0.00126372 0)
(-6.12872e-05 0.00134324 0)
(-4.76669e-05 0.00144865 0)
(-2.97869e-05 0.00158912 0)
(-8.44691e-05 0.001719 0)
(-0.000435687 0.00292402 0)
(-0.00103129 0.00402926 0)
(-0.0018442 0.00488712 0)
(-0.00283825 0.0233218 0)
(-0.00247228 0.0247954 0)
(-0.00276276 0.0226587 0)
(-0.00312223 0.02439 0)
(-0.00311711 0.0248714 0)
(-0.00255828 0.0230713 0)
(-0.00197638 0.0181633 0)
(-0.00138288 0.010955 0)
(-0.000378643 0.00348508 0)
(0.000626633 -0.000135352 0)
(0.00217707 -0.000813302 0)
(0.00345528 -0.000154824 0)
(0.00414577 -0.00110579 0)
(0.00574462 -0.004003 0)
(0.00861697 0.0178064 0)
(0.0129341 0.030516 0)
(0.015617 0.0296354 0)
(0.0184193 0.0301834 0)
(0.0221254 0.0310963 0)
(0.0261452 0.0314476 0)
(0.0310588 0.0324694 0)
(0.0398326 0.0370396 0)
(0.0463451 0.0468922 0)
(0.0513484 0.0616935 0)
(0.0569096 0.0748962 0)
(0.0641192 0.0866912 0)
(0.0690697 0.0946802 0)
(0.0742364 0.105031 0)
(0.0803665 0.115108 0)
(0.087457 0.124596 0)
(0.0920843 0.130614 0)
(0.0955879 0.137556 0)
(0.0990505 0.144884 0)
(0.102144 0.152341 0)
(0.10487 0.16216 0)
(0.105578 0.186947 0)
(0.104987 0.233332 0)
(1.32762e-05 -0.000287909 0)
(7.32356e-05 -0.000837297 0)
(0.000168778 -0.00137626 0)
(0.000291546 -0.00192076 0)
(0.000438866 -0.0024863 0)
(0.000610878 -0.00309 0)
(0.000780354 -0.00375296 0)
(0.000815852 -0.00398006 0)
(0.000663502 -0.00423117 0)
(0.000327085 -0.00517914 0)
(-0.000398261 0.0022096 0)
(-0.000849359 0.00792746 0)
(-0.00202871 0.0041957 0)
(-0.00309417 0.0019262 0)
(-0.00361077 0.000994435 0)
(-0.00392751 -0.00111144 0)
(-0.00417939 -0.00848042 0)
(-0.00428151 -0.0232774 0)
(-0.00474031 -0.0288702 0)
(-0.00568466 -0.0311788 0)
(-0.00770147 -0.0308996 0)
(-0.00965181 -0.027873 0)
(-0.0113449 -0.0238033 0)
(-0.0130061 -0.021308 0)
(-0.0181963 0.013484 0)
(-0.0221724 -0.00905368 0)
(-0.0280938 -0.0231739 0)
(-0.0309952 -0.020305 0)
(-0.0331041 -0.0133345 0)
(-0.0354008 -0.00593868 0)
(-0.0379389 -0.000276635 0)
(-0.0454581 -0.00800718 0)
(-0.0564085 -0.0298387 0)
(-0.0611646 -0.0296991 0)
(-0.0653712 -0.0231456 0)
(-0.0699083 -0.0145631 0)
(-0.0738317 -0.00498475 0)
(-0.0796146 0.00778547 0)
(-0.0826793 0.021691 0)
(-0.0832354 0.0356997 0)
(-0.0839588 0.0521614 0)
(-0.0849454 0.0697816 0)
(-0.0876197 0.0818004 0)
(-0.0884589 0.0869679 0)
(-0.0898074 0.106001 0)
(-0.0914764 0.129075 0)
(-0.0934232 0.150384 0)
(-0.0948935 0.172015 0)
(-0.096221 0.198918 0)
(-0.0991314 0.235905 0)
(-1.07446e-05 -0.000337661 0)
(-6.40967e-05 -0.000876403 0)
(-0.000156791 -0.00130997 0)
(-0.000285659 -0.00166999 0)
(-0.000481202 -0.00198991 0)
(-0.00083341 -0.00230533 0)
(-0.00142721 -0.00268054 0)
(-0.00259361 -0.0020183 0)
(-0.00545246 0.00307753 0)
(-0.0118296 0.0146498 0)
(-0.0272792 0.0354396 0)
(-0.0344776 0.0433003 0)
(-0.0413196 0.0472799 0)
(-0.0486768 0.0478723 0)
(-0.0586684 0.0448223 0)
(-0.0698195 0.045286 0)
(-0.076831 0.0490083 0)
(-0.0866739 0.0492992 0)
(-0.0991955 0.0511186 0)
(-0.108957 0.0546873 0)
(-0.116715 0.0560468 0)
(-0.12381 0.0601166 0)
(-0.132494 0.0718757 0)
(-0.148025 0.0855477 0)
(-0.154501 0.0915674 0)
(-0.160951 0.0961497 0)
(-0.167581 0.0973034 0)
(-0.174795 0.0950471 0)
(-0.186743 0.0819794 0)
(-0.198513 0.117452 0)
(-0.202816 0.163514 0)
(-0.205812 0.19334 0)
(-0.218203 0.16341 0)
(-0.226252 0.156496 0)
(-0.231702 0.156486 0)
(-0.236599 0.159513 0)
(-0.242847 0.163816 0)
(-0.2562 0.162103 0)
(-0.261411 0.120881 0)
(-0.267068 0.113449 0)
(-0.273764 0.145281 0)
(-0.279503 0.152156 0)
(-0.281649 0.15108 0)
(-0.282538 0.151744 0)
(-0.28446 0.158925 0)
(-0.284934 0.185588 0)
(-0.281487 0.185461 0)
(-0.279435 0.189417 0)
(-0.277321 0.202959 0)
(-0.266111 0.253281 0)
(8.26048e-07 0.000231988 0)
(-1.49018e-05 0.000695946 0)
(-4.88918e-05 0.00116093 0)
(-0.00015867 0.00162396 0)
(-0.00046074 0.00208217 0)
(-0.00104106 0.00282483 0)
(-0.00246984 0.00688561 0)
(-0.00429737 0.0238859 0)
(-0.00674617 0.131316 0)
(-0.0157681 0.207578 0)
(-0.0225744 0.212224 0)
(-0.0284967 0.211467 0)
(-0.0351057 0.209657 0)
(-0.0411221 0.207783 0)
(-0.0489558 0.206356 0)
(-0.0592698 0.209555 0)
(-0.0649858 0.210431 0)
(-0.0704803 0.20931 0)
(-0.0778788 0.207996 0)
(-0.0888981 0.208061 0)
(-0.0955632 0.198203 0)
(-0.103338 0.203032 0)
(-0.109427 0.20462 0)
(-0.114936 0.201092 0)
(-0.120801 0.196614 0)
(-0.127376 0.196612 0)
(-0.134114 0.202519 0)
(-0.139319 0.206151 0)
(-0.14312 0.207479 0)
(-0.147727 0.215038 0)
(-0.158448 0.19229 0)
(-0.157246 0.197653 0)
(-0.156729 0.186621 0)
(-0.159878 0.174401 0)
(-0.16536 0.17157 0)
(-0.168988 0.173883 0)
(-0.171494 0.174581 0)
(-0.174086 0.175623 0)
(-0.182868 0.191437 0)
(-0.185742 0.204907 0)
(-0.187091 0.187504 0)
(-0.192287 0.164415 0)
(-0.196467 0.144627 0)
(-0.199814 0.131259 0)
(-0.202924 0.12569 0)
(-0.209033 0.126683 0)
(-0.211091 0.105561 0)
(-0.212687 0.0897981 0)
(-0.21284 0.085146 0)
(-0.213077 0.0972469 0)
(1.39055e-06 7.88621e-05 0)
(2.73198e-05 0.000265321 0)
(8.15662e-05 0.000465041 0)
(8.2262e-05 0.000660302 0)
(-0.000252529 0.000898538 0)
(-0.00107217 0.00156484 0)
(-0.00297331 0.0554 0)
(-0.00418764 0.0921164 0)
(-0.00556867 0.142241 0)
(-0.00350384 0.209929 0)
(-0.000648456 0.230857 0)
(0.000437084 0.235436 0)
(0.000830526 0.236066 0)
(0.000900654 0.235906 0)
(0.000872858 0.236358 0)
(0.000523819 0.240301 0)
(-0.000243793 0.247766 0)
(-0.000990483 0.250834 0)
(-0.00160047 0.250262 0)
(-0.00244344 0.248022 0)
(-0.00341467 0.245341 0)
(-0.0045478 0.24212 0)
(-0.00584367 0.238783 0)
(-0.00705239 0.23638 0)
(-0.00837828 0.236329 0)
(-0.00955577 0.233622 0)
(-0.0106771 0.239124 0)
(-0.0117954 0.239312 0)
(-0.0121945 0.23287 0)
(-0.0123357 0.224791 0)
(-0.0125791 0.215322 0)
(-0.0133046 0.206626 0)
(-0.0142428 0.199018 0)
(-0.0147695 0.196073 0)
(-0.0139012 0.22848 0)
(-0.015653 0.269447 0)
(-0.0164925 0.263821 0)
(-0.0170977 0.254512 0)
(-0.017697 0.243273 0)
(-0.0175389 0.234471 0)
(-0.0164295 0.239347 0)
(-0.0179129 0.253051 0)
(-0.0219946 0.254493 0)
(-0.0257059 0.25051 0)
(-0.0295422 0.245464 0)
(-0.0358564 0.259271 0)
(-0.042364 0.232371 0)
(-0.048049 0.204471 0)
(-0.0536743 0.179685 0)
(-0.0560928 0.168717 0)
(4.209e-06 -4.01559e-05 0)
(2.8933e-05 -9.81452e-05 0)
(6.93676e-05 -0.0001357 0)
(7.23174e-05 -0.000155977 0)
(-0.000156952 -0.000163914 0)
(-0.00104379 1.07509e-05 0)
(-0.00193021 0.0293197 0)
(0.00536833 0.0556612 0)
(0.0112692 0.078588 0)
(0.0182401 0.103626 0)
(0.0274847 0.139087 0)
(0.0372336 0.175098 0)
(0.0470153 0.19704 0)
(0.0526281 0.203433 0)
(0.0557341 0.208356 0)
(0.0590469 0.216398 0)
(0.0638403 0.22326 0)
(0.0678937 0.225298 0)
(0.0710416 0.225363 0)
(0.0737312 0.225023 0)
(0.0763607 0.226579 0)
(0.0789995 0.231825 0)
(0.0804655 0.232769 0)
(0.0811597 0.231095 0)
(0.0821994 0.228628 0)
(0.083394 0.225108 0)
(0.0844124 0.224782 0)
(0.0858315 0.2272 0)
(0.0859979 0.22705 0)
(0.0845242 0.221387 0)
(0.0832869 0.218166 0)
(0.0823454 0.214841 0)
(0.0816836 0.210978 0)
(0.0817775 0.206844 0)
(0.0829275 0.203579 0)
(0.0859819 0.201123 0)
(0.0904382 0.198114 0)
(0.0942773 0.194438 0)
(0.0975091 0.190971 0)
(0.101372 0.186116 0)
(0.1066 0.19695 0)
(0.107744 0.241128 0)
(0.110313 0.269403 0)
(0.113114 0.267754 0)
(0.114644 0.260209 0)
(0.116555 0.252991 0)
(0.118561 0.245452 0)
(0.119887 0.238137 0)
(0.120911 0.234362 0)
(0.118873 0.164903 0)
(8.74206e-07 -0.000102553 0)
(7.71717e-07 -0.000272051 0)
(-1.66975e-05 -0.000406189 0)
(-9.61213e-05 -0.000509469 0)
(-0.000319305 -0.000657671 0)
(-0.00148239 -0.00142842 0)
(-0.00310638 -0.0135423 0)
(-0.00164008 -0.00983276 0)
(-0.00084463 -0.00110829 0)
(0.000627928 0.0091673 0)
(0.00262417 0.0227781 0)
(0.00568208 0.0447083 0)
(0.0101263 0.0801394 0)
(0.0149534 0.113506 0)
(0.0206201 0.136724 0)
(0.0276416 0.151744 0)
(0.0329806 0.158418 0)
(0.0385618 0.163455 0)
(0.0442548 0.16754 0)
(0.0493243 0.170951 0)
(0.0548208 0.179293 0)
(0.0624067 0.213551 0)
(0.0658363 0.218197 0)
(0.0705584 0.211331 0)
(0.0743145 0.208038 0)
(0.0775467 0.206555 0)
(0.0809557 0.209384 0)
(0.0850605 0.215924 0)
(0.0912082 0.233482 0)
(0.0956013 0.255444 0)
(0.0965275 0.234902 0)
(0.0978218 0.216263 0)
(0.0993888 0.197415 0)
(0.100768 0.183992 0)
(0.102152 0.173515 0)
(0.105591 0.162939 0)
(0.108899 0.158552 0)
(0.112611 0.154507 0)
(0.117338 0.150693 0)
(0.12141 0.147722 0)
(0.124948 0.145665 0)
(0.129973 0.145087 0)
(0.142167 0.157042 0)
(0.152905 0.182789 0)
(0.158329 0.188943 0)
(0.162303 0.187205 0)
(0.167864 0.19056 0)
(0.171161 0.190909 0)
(0.173408 0.190327 0)
(0.174621 0.188185 0)
(4.44955e-06 1.89238e-05 0)
(1.02132e-05 4.81608e-05 0)
(-2.27545e-05 6.99644e-05 0)
(-0.000186147 8.52569e-05 0)
(-0.000459377 0.000121257 0)
(-0.00206507 0.00327742 0)
(-0.00161916 0.0164086 0)
(-0.000873153 0.0251946 0)
(0.000551772 0.0322752 0)
(0.00253381 0.0394041 0)
(0.0047381 0.0469456 0)
(0.0073439 0.0540927 0)
(0.0105314 0.0602286 0)
(0.0147355 0.0646872 0)
(0.0205871 0.0688053 0)
(0.0256496 0.0717171 0)
(0.0306972 0.0723995 0)
(0.0364688 0.0736557 0)
(0.0417919 0.0748253 0)
(0.0468022 0.0768216 0)
(0.0531436 0.0807167 0)
(0.063601 0.0970393 0)
(0.0701299 0.1207 0)
(0.0779822 0.127156 0)
(0.088579 0.121534 0)
(0.0925854 0.116376 0)
(0.0961493 0.120755 0)
(0.101965 0.126873 0)
(0.110257 0.143794 0)
(0.115306 0.168843 0)
(0.119755 0.183024 0)
(0.124934 0.184019 0)
(0.128777 0.175639 0)
(0.131516 0.167727 0)
(0.134044 0.156775 0)
(0.137207 0.121393 0)
(0.144786 0.0949119 0)
(0.149874 0.0860747 0)
(0.152495 0.0829232 0)
(0.154947 0.0837585 0)
(0.157594 0.0844852 0)
(0.160211 0.0823899 0)
(0.160419 0.071877 0)
(0.15961 0.0891035 0)
(0.160764 0.140166 0)
(0.164397 0.157942 0)
(0.166103 0.16026 0)
(0.16806 0.162195 0)
(0.17047 0.164076 0)
(0.172717 0.166315 0)
(3.4201e-06 -3.09991e-05 0)
(3.01819e-05 -9.84631e-05 0)
(7.68431e-05 -0.000170111 0)
(0.000105198 -0.000241497 0)
(3.52846e-05 -0.000337166 0)
(-0.000889439 -0.00170267 0)
(-0.000769025 -0.00577984 0)
(0.000464978 -0.0281194 0)
(0.00193785 -0.0401349 0)
(0.0034751 -0.0408065 0)
(0.00541109 -0.0316433 0)
(0.00785892 -0.0176129 0)
(0.0109908 -0.00576046 0)
(0.0130963 0.00117871 0)
(0.0153637 0.00787774 0)
(0.0186714 0.0170007 0)
(0.0224726 0.0190562 0)
(0.0259476 0.0221135 0)
(0.0282424 0.0242011 0)
(0.0303735 0.0258508 0)
(0.0333138 0.0274578 0)
(0.0370556 0.0284145 0)
(0.0411382 0.0292353 0)
(0.0466257 0.0341817 0)
(0.0534307 0.0467393 0)
(0.0583233 0.0602811 0)
(0.0625665 0.0753973 0)
(0.068749 0.0859998 0)
(0.0755899 0.0936452 0)
(0.0829901 0.099603 0)
(0.0905569 0.103856 0)
(0.0977398 0.106046 0)
(0.104595 0.105802 0)
(0.110977 0.102005 0)
(0.116515 0.0929461 0)
(0.120445 0.0766385 0)
(0.126039 0.0536805 0)
(0.128713 0.0500477 0)
(0.1298 0.0504414 0)
(0.130785 0.0741119 0)
(0.133314 0.10147 0)
(0.135709 0.108119 0)
(0.136697 0.110365 0)
(0.137713 0.113935 0)
(0.139814 0.118389 0)
(0.143187 0.122762 0)
(0.146602 0.12647 0)
(0.149336 0.130193 0)
(0.151741 0.133569 0)
(0.154269 0.140681 0)
(3.56019e-06 -0.000296135 0)
(3.40434e-05 -0.000821011 0)
(0.00010386 -0.00128503 0)
(0.000203221 -0.00169308 0)
(0.000230875 -0.0020465 0)
(-0.000129825 -0.00242993 0)
(-0.000988922 -0.00288332 0)
(-0.0021552 -0.00257582 0)
(-0.00345938 -0.00118065 0)
(-0.00534177 -0.000754974 0)
(-0.00711441 -0.00190332 0)
(-0.00792637 -0.00199342 0)
(-0.00835143 -0.000890438 0)
(-0.00843595 -0.000393034 0)
(-0.00822676 -0.00231066 0)
(-0.00768479 -0.00801905 0)
(-0.00638778 -0.0119566 0)
(-0.00482568 -0.0019343 0)
(-0.00387768 0.00490942 0)
(-0.00317478 0.00617781 0)
(-0.00230712 0.00358177 0)
(-0.000566989 -0.00556332 0)
(0.00150391 -0.028867 0)
(0.00359882 -0.0366551 0)
(0.00582795 -0.0266192 0)
(0.0077641 -0.0200496 0)
(0.0101019 -0.0241043 0)
(0.0138309 -0.0354465 0)
(0.0197404 -0.0511198 0)
(0.0247796 -0.0377688 0)
(0.0291377 -0.00737287 0)
(0.0311359 0.00431711 0)
(0.0360128 0.00285809 0)
(0.0411616 0.000261036 0)
(0.046011 -0.00116008 0)
(0.0506583 -0.000437756 0)
(0.0546672 0.00427955 0)
(0.0583725 0.0146896 0)
(0.0604921 0.0252337 0)
(0.0636515 0.0359773 0)
(0.0671596 0.0460029 0)
(0.0736791 0.0541128 0)
(0.077037 0.060289 0)
(0.0800727 0.0658235 0)
(0.0838766 0.070925 0)
(0.0879052 0.0767537 0)
(0.0913235 0.0837798 0)
(0.0946981 0.0914909 0)
(0.0999917 0.103055 0)
(0.105891 0.127748 0)
(-2.68321e-07 -0.000393158 0)
(3.32061e-06 -0.00108824 0)
(1.50581e-05 -0.00170785 0)
(3.60163e-05 -0.00226314 0)
(6.50201e-05 -0.00275688 0)
(9.60201e-05 -0.00318225 0)
(0.000135579 -0.0034888 0)
(0.000247327 -0.00366178 0)
(0.000412136 -0.00392178 0)
(0.000335023 -0.00431837 0)
(7.48517e-05 -0.00478042 0)
(6.43096e-06 -0.00519199 0)
(5.06668e-05 -0.00546436 0)
(0.000185164 -0.00565749 0)
(0.000331124 -0.00576907 0)
(0.000316168 -0.00578067 0)
(3.56422e-05 -0.00524332 0)
(-0.000194242 -0.00280437 0)
(3.68569e-05 -0.00109964 0)
(0.000650142 -0.0021422 0)
(0.00130291 -0.0044972 0)
(0.0015631 -0.00554382 0)
(0.00102218 -0.00535177 0)
(-0.000250386 -0.0048122 0)
(-0.00148006 -0.00421482 0)
(-0.00214017 -0.00357959 0)
(-0.00269281 -0.00472097 0)
(-0.00368081 -0.00799789 0)
(-0.00509249 -0.0125306 0)
(-0.00665007 -0.00316729 0)
(-0.007272 0.00787185 0)
(-0.00738165 0.00857806 0)
(-0.00718225 0.00329998 0)
(-0.0066527 -0.005511 0)
(-0.0059954 -0.0178607 0)
(-0.00613068 -0.0245772 0)
(-0.00636104 -0.0227663 0)
(-0.00613087 -0.019046 0)
(-0.00531311 -0.0155914 0)
(-0.0041941 -0.0069774 0)
(-0.00339042 0.000430642 0)
(-0.00163832 0.0114427 0)
(4.25483e-05 0.0177953 0)
(0.00331986 0.0195676 0)
(0.00602905 0.0207576 0)
(0.0083065 0.0230457 0)
(0.0109589 0.0275688 0)
(0.014721 0.0324025 0)
(0.019037 0.0383689 0)
(0.0239645 0.0480788 0)
(-3.23369e-07 -0.000374768 0)
(-1.73128e-06 -0.00107901 0)
(-2.37547e-06 -0.00175049 0)
(-8.72684e-07 -0.00239977 0)
(4.29183e-06 -0.00303075 0)
(1.54496e-05 -0.00364423 0)
(3.56731e-05 -0.00424162 0)
(6.78114e-05 -0.0048255 0)
(0.00011099 -0.00540431 0)
(0.000156931 -0.0059819 0)
(0.000200758 -0.00647247 0)
(0.00024463 -0.00685442 0)
(0.000293037 -0.00712154 0)
(0.000347391 -0.00730637 0)
(0.000409139 -0.0074065 0)
(0.000485439 -0.0074234 0)
(0.000589539 -0.00733768 0)
(0.000819193 -0.00710013 0)
(0.00118441 -0.00717752 0)
(0.0014054 -0.0075898 0)
(0.00135934 -0.00797776 0)
(0.0012528 -0.00812835 0)
(0.00121817 -0.00810257 0)
(0.00126254 -0.00813849 0)
(0.00136477 -0.00828417 0)
(0.00152008 -0.00843448 0)
(0.00171472 -0.00855255 0)
(0.00185072 -0.0086134 0)
(0.00179139 -0.0084278 0)
(0.00176719 -0.00720337 0)
(0.00221404 -0.00585155 0)
(0.00308786 -0.0066205 0)
(0.0039208 -0.00827171 0)
(0.00435631 -0.00864284 0)
(0.00429354 -0.00712389 0)
(0.00375906 -0.00456822 0)
(0.00305549 -0.00353045 0)
(0.00256533 -0.00343287 0)
(0.00234965 -0.00359444 0)
(0.00245078 0.00210702 0)
(0.00263944 0.00434473 0)
(0.00308078 0.00427148 0)
(0.00395642 0.00471019 0)
(0.00506794 0.00505665 0)
(0.00628163 0.00382737 0)
(0.0073511 -0.00420255 0)
(0.00883206 -0.00269628 0)
(0.0110298 -0.00219022 0)
(0.0138832 -0.0051355 0)
(0.0166103 -0.0139669 0)
(-6.13276e-07 -0.000360536 0)
(-3.87193e-06 -0.00104659 0)
(-9.94651e-06 -0.00170155 0)
(-1.81724e-05 -0.00233078 0)
(-2.84271e-05 -0.0029369 0)
(-4.06839e-05 -0.00352058 0)
(-5.50443e-05 -0.00408276 0)
(-7.17468e-05 -0.00462431 0)
(-9.10595e-05 -0.00514592 0)
(-0.000112968 -0.0056479 0)
(-0.000136385 -0.00612989 0)
(-0.00015884 -0.00659161 0)
(-0.0001771 -0.00703323 0)
(-0.000187957 -0.00745584 0)
(-0.000188461 -0.00786069 0)
(-0.000175345 -0.00824984 0)
(-0.000145463 -0.0086261 0)
(-9.7587e-05 -0.00899431 0)
(-3.63527e-05 -0.00936964 0)
(2.6776e-05 -0.00975828 0)
(8.58269e-05 -0.0101064 0)
(0.000144844 -0.010388 0)
(0.000210835 -0.0106053 0)
(0.000286151 -0.0107978 0)
(0.000366142 -0.0109795 0)
(0.000445813 -0.0111208 0)
(0.000519983 -0.0111919 0)
(0.000590102 -0.0111636 0)
(0.000677171 -0.0110073 0)
(0.00083261 -0.0107122 0)
(0.00108596 -0.0105576 0)
(0.00127302 -0.0106786 0)
(0.00129329 -0.0107576 0)
(0.0012643 -0.0105635 0)
(0.0013028 -0.0100677 0)
(0.00148639 -0.0095526 0)
(0.00176602 -0.00933447 0)
(0.00203849 -0.00921213 0)
(0.00228104 -0.00926982 0)
(0.00263952 -0.00895487 0)
(0.00327265 -0.0072494 0)
(0.0038779 -0.00473497 0)
(0.00432221 -0.00363174 0)
(0.00473816 -0.00365049 0)
(0.0051696 -0.00725769 0)
(0.00550474 -0.0163457 0)
(0.00654474 -0.0308948 0)
(0.00723593 -0.0266118 0)
(0.0070583 -0.0158879 0)
(0.00708354 -0.00731267 0)
(-4.30384e-07 -0.000327667 0)
(-3.32342e-06 -0.000960798 0)
(-8.84305e-06 -0.00157519 0)
(-1.65128e-05 -0.00217228 0)
(-2.59346e-05 -0.002751 0)
(-3.68473e-05 -0.00331058 0)
(-4.90356e-05 -0.00385122 0)
(-6.23187e-05 -0.00437315 0)
(-7.65439e-05 -0.0048764 0)
(-9.15689e-05 -0.00536085 0)
(-0.000107248 -0.00582633 0)
(-0.000123425 -0.0062727 0)
(-0.000139939 -0.00669991 0)
(-0.00015666 -0.007108 0)
(-0.000173497 -0.00749714 0)
(-0.00019045 -0.00786754 0)
(-0.00020764 -0.00821955 0)
(-0.000225384 -0.00855355 0)
(-0.000244313 -0.00886983 0)
(-0.000265002 -0.00916816 0)
(-0.000287345 -0.00944761 0)
(-0.000310331 -0.00970728 0)
(-0.000332504 -0.00994675 0)
(-0.00035284 -0.0101661 0)
(-0.000370894 -0.0103651 0)
(-0.000386047 -0.0105434 0)
(-0.000396712 -0.0107 0)
(-0.00039999 -0.0108344 0)
(-0.000392087 -0.0109465 0)
(-0.00037031 -0.0110386 0)
(-0.000336231 -0.0111172 0)
(-0.000296337 -0.011188 0)
(-0.000254107 -0.0112219 0)
(-0.00020447 -0.0111958 0)
(-0.000137522 -0.0110964 0)
(-4.66919e-05 -0.0109688 0)
(6.29114e-05 -0.0108713 0)
(0.000186212 -0.0107314 0)
(0.000310055 -0.0106327 0)
(0.000395383 -0.0105095 0)
(0.000505262 -0.0100662 0)
(0.000764153 -0.00953458 0)
(0.00112368 -0.00921605 0)
(0.00150732 -0.00897991 0)
(0.00187272 -0.00928156 0)
(0.00201068 -0.01091 0)
(0.00153368 -0.0138585 0)
(0.000658662 -0.0137536 0)
(0.000376678 -0.0144317 0)
(0.000591161 -0.0173035 0)
(-3.59688e-07 -0.000317412 0)
(-1.43639e-06 -0.000932924 0)
(-3.7669e-06 -0.00153141 0)
(-7.11837e-06 -0.00211388 0)
(-1.13023e-05 -0.00268016 0)
(-1.61737e-05 -0.00322998 0)
(-2.15082e-05 -0.0037634 0)
(-2.71181e-05 -0.00428054 0)
(-3.28222e-05 -0.00478143 0)
(-3.84397e-05 -0.00526606 0)
(-4.3788e-05 -0.00573435 0)
(-4.86814e-05 -0.00618626 0)
(-5.29333e-05 -0.00662168 0)
(-5.63589e-05 -0.00704057 0)
(-5.87793e-05 -0.00744284 0)
(-6.00238e-05 -0.00782844 0)
(-5.99326e-05 -0.0081973 0)
(-5.83573e-05 -0.00854937 0)
(-5.51606e-05 -0.00888459 0)
(-5.0201e-05 -0.00920285 0)
(-4.33078e-05 -0.00950407 0)
(-3.42679e-05 -0.00978818 0)
(-2.2835e-05 -0.0100552 0)
(-8.74877e-06 -0.0103051 0)
(8.26268e-06 -0.0105382 0)
(2.84973e-05 -0.0107544 0)
(5.22932e-05 -0.010954 0)
(8.00337e-05 -0.0111373 0)
(0.000112088 -0.0113046 0)
(0.000148751 -0.0114567 0)
(0.000190204 -0.011594 0)
(0.000236648 -0.0117171 0)
(0.000288745 -0.0118261 0)
(0.000347875 -0.0119213 0)
(0.000415803 -0.0120035 0)
(0.000493824 -0.0120743 0)
(0.000582175 -0.0121373 0)
(0.000680548 -0.0121917 0)
(0.000789074 -0.0122391 0)
(0.000908917 -0.0122793 0)
(0.0010308 -0.012307 0)
(0.00120601 -0.0123434 0)
(0.00145612 -0.0124071 0)
(0.00160944 -0.0124651 0)
(0.00175041 -0.0126908 0)
(0.00187114 -0.0131086 0)
(0.0019308 -0.0135973 0)
(0.00193062 -0.0142456 0)
(0.00188169 -0.0158607 0)
(0.00243587 -0.019949 0)
(-0.0434678 0.306083 0)
(-0.0440799 0.304855 0)
(-0.0446674 0.302657 0)
(-0.0452926 0.299765 0)
(-0.0459998 0.296392 0)
(-0.0468087 0.292691 0)
(-0.0477195 0.288735 0)
(-0.0487227 0.284524 0)
(-0.0498078 0.280026 0)
(-0.0509669 0.275215 0)
(-0.052198 0.2701 0)
(-0.0535059 0.264737 0)
(-0.0548956 0.259226 0)
(-0.0563635 0.253674 0)
(-0.0578939 0.248164 0)
(-0.0594601 0.242731 0)
(-0.06103 0.237368 0)
(-0.0625774 0.232029 0)
(-0.0640936 0.226664 0)
(-0.0655842 0.221255 0)
(-0.067057 0.215812 0)
(-0.068517 0.210362 0)
(-0.0699671 0.204932 0)
(-0.0714098 0.199551 0)
(-0.0728477 0.194245 0)
(-0.074284 0.18904 0)
(-0.0757226 0.18396 0)
(-0.077168 0.179027 0)
(-0.0786256 0.174264 0)
(-0.0801013 0.169688 0)
(-0.0816016 0.165317 0)
(-0.0831335 0.161169 0)
(-0.0847044 0.157258 0)
(-0.086322 0.153597 0)
(-0.0879941 0.150198 0)
(-0.0897288 0.147069 0)
(-0.0915341 0.144217 0)
(-0.0934183 0.14165 0)
(-0.0953897 0.139378 0)
(-0.097457 0.137411 0)
(-0.0996286 0.135762 0)
(-0.101913 0.134444 0)
(-0.104318 0.133465 0)
(-0.106852 0.132831 0)
(-0.109521 0.132543 0)
(-0.112334 0.132599 0)
(-0.115294 0.132997 0)
(-0.118409 0.133733 0)
(-0.121685 0.134803 0)
(-0.125137 0.136198 0)
(-0.0573725 0.303106 0)
(-0.0575093 0.299394 0)
(-0.0578155 0.29651 0)
(-0.0581902 0.294503 0)
(-0.0585869 0.292997 0)
(-0.0589865 0.291519 0)
(-0.0594164 0.289784 0)
(-0.0599115 0.287719 0)
(-0.0605044 0.285388 0)
(-0.061236 0.282905 0)
(-0.0621357 0.280415 0)
(-0.0631691 0.277987 0)
(-0.064247 0.275496 0)
(-0.0652855 0.272658 0)
(-0.0662611 0.269168 0)
(-0.0672292 0.264841 0)
(-0.0683244 0.259681 0)
(-0.069675 0.253952 0)
(-0.0712675 0.248109 0)
(-0.0729983 0.242393 0)
(-0.0747884 0.236813 0)
(-0.0766099 0.231328 0)
(-0.0784583 0.225923 0)
(-0.0803355 0.220614 0)
(-0.0822449 0.215429 0)
(-0.0841914 0.210398 0)
(-0.0861804 0.205557 0)
(-0.0882183 0.200937 0)
(-0.0903119 0.196567 0)
(-0.0924689 0.192476 0)
(-0.0946975 0.188688 0)
(-0.0970062 0.185226 0)
(-0.0994039 0.182109 0)
(-0.1019 0.179353 0)
(-0.104503 0.176971 0)
(-0.107223 0.174972 0)
(-0.110068 0.173366 0)
(-0.113048 0.172161 0)
(-0.116173 0.171369 0)
(-0.119451 0.171001 0)
(-0.122892 0.171066 0)
(-0.126503 0.171571 0)
(-0.130291 0.172517 0)
(-0.134265 0.173902 0)
(-0.138429 0.17572 0)
(-0.14279 0.177964 0)
(-0.147351 0.180627 0)
(-0.152116 0.183701 0)
(-0.157093 0.187177 0)
(-0.162293 0.191039 0)
(-0.0415443 0.302731 0)
(-0.0390052 0.307969 0)
(-0.0384347 0.309089 0)
(-0.0395979 0.307748 0)
(-0.0417609 0.304963 0)
(-0.0447057 0.301896 0)
(-0.0480095 0.299494 0)
(-0.051364 0.29769 0)
(-0.0546445 0.296173 0)
(-0.0578131 0.295237 0)
(-0.0606113 0.29411 0)
(-0.0629238 0.291176 0)
(-0.0650347 0.285843 0)
(-0.0674702 0.279088 0)
(-0.0706145 0.272879 0)
(-0.0746331 0.268776 0)
(-0.0787788 0.267848 0)
(-0.0818898 0.269068 0)
(-0.0839423 0.268595 0)
(-0.0855296 0.265658 0)
(-0.0871439 0.261366 0)
(-0.0889147 0.256668 0)
(-0.0908161 0.251938 0)
(-0.0928329 0.247316 0)
(-0.0949604 0.242869 0)
(-0.0971996 0.238648 0)
(-0.0995539 0.234698 0)
(-0.102028 0.23106 0)
(-0.104629 0.227771 0)
(-0.107362 0.224867 0)
(-0.110236 0.222377 0)
(-0.113259 0.220328 0)
(-0.116439 0.218741 0)
(-0.119784 0.217632 0)
(-0.123304 0.217014 0)
(-0.127005 0.216897 0)
(-0.130896 0.21729 0)
(-0.134987 0.218202 0)
(-0.139283 0.219639 0)
(-0.143792 0.221608 0)
(-0.148521 0.224109 0)
(-0.153474 0.227135 0)
(-0.158655 0.230678 0)
(-0.16407 0.234725 0)