/*--------------------------------*- C++ -*----------------------------------*\
| =========                 |                                                 |
| \\      /  F ield         | OpenFOAM: The Open Source CFD Toolbox           |
|  \\    /   O peration     | Version:  2.4.0                                 |
|   \\  /    A nd           | Web:      www.OpenFOAM.org                      |
|    \\/     M anipulation  |                                                 |
\*---------------------------------------------------------------------------*/
FoamFile
{
    version     2.0;
    format      ascii;
    class       volScalarField;
    location    "4.7";
    object      H;
}
// * * * * * * * * * * * * * * * * * * * * * * * * * * * * * * * * * * * * * //

dimensions      [0 2 -2 0 0 0 0];

internalField   nonuniform List<scalar> 
8000
(
-11377.7
-9665.09
-7925.38
-6128
-4221.83
-2169.38
-13.9802
-21.1392
-17.0179
-15.1269
-13.3173
-11.712
-10.2029
-8.80621
-7.50124
-6.28549
-5.17877
-4.19882
-3.35584
-2.64957
-2.07129
-1.60699
-1.24026
-0.95445
-0.734116
-0.56575
-0.437967
-0.341398
-0.26855
-0.213538
-0.171804
-0.139867
-0.115106
-0.0955911
-0.079927
-0.0671239
-0.0564878
-0.047536
-0.0399319
-0.0334381
-0.0278827
-0.0231364
-0.0190973
-0.0156807
-0.0128131
-0.0104283
-0.00846526
-0.00686737
-0.00558193
-0.00456042
-11456.8
-9913.03
-8374.4
-6837.33
-5293.45
-3732.35
-2151.33
-27.5571
-1.79526
-2.30709
-2.20349
-2.33287
-2.43839
-2.56998
-2.69905
-2.73442
-2.64286
-2.44521
-2.18331
-1.89862
-1.6187
-1.35777
-1.12353
-0.920013
-0.748444
-0.607723
-0.495036
-0.406569
-0.338081
-0.285456
-0.245053
-0.213543
-0.187615
-0.165328
-0.145579
-0.127764
-0.111565
-0.0968264
-0.0834623
-0.0714137
-0.0606222
-0.0510281
-0.0425702
-0.0351857
-0.0288084
-0.0233672
-0.0187851
-0.0149794
-0.0118634
-0.00934907
-11569.6
-10255.1
-8953.41
-7663.18
-6378.52
-5088.08
-3771.47
-2398.25
-1076.41
-577.869
-10.8515
-2.35618
-0.693908
-0.348831
-0.6822
-0.960322
-1.15839
-1.29023
-1.3586
-1.36532
-1.33679
-1.28853
-1.22516
-1.15091
-1.07058
-0.988748
-0.908903
-0.833045
-0.761677
-0.693527
-0.626802
-0.560638
-0.496135
-0.435231
-0.379866
-0.330204
-0.286115
-0.24728
-0.213274
-0.183604
-0.157452
-0.13421
-0.113464
-0.0949666
-0.0785894
-0.0642499
-0.0518701
-0.0413511
-0.0325635
-0.0253486
-11751.8
-10802.1
-9869.55
-8960.39
-8076.73
-7217.5
-6378.34
-5550.77
-4720.39
-3864.65
-2958.45
-1994.82
-1056.68
-513.059
-5.1916
-0.97333
-1.13863
-1.62778
-1.88037
-0.298986
-0.0320884
-0.232292
-0.395952
-0.506915
-0.573662
-0.609889
-0.626627
-0.630824
-0.62876
-0.622884
-0.61404
-0.602703
-0.589453
-0.574799
-0.558753
-0.540758
-0.519903
-0.495251
-0.466139
-0.43229
-0.394337
-0.353287
-0.310421
-0.267158
-0.225955
-0.187989
-0.153906
-0.12405
-0.0984877
-0.0770649
-11907.4
-11268.4
-10644.7
-10041.4
-9460.23
-8900.33
-8358.96
-7832.18
-7315.27
-6803.05
-6290.26
-5771.99
-5243.56
-4699.04
-4127.9
-3517.57
-2856.32
-2133.82
-1330.56
-366.032
-3.55026
-0.494735
-0.277225
-0.112736
-0.115707
-0.0708771
-0.00667353
-0.0616279
-0.121357
-0.181052
-0.233634
-0.275659
-0.305693
-0.327971
-0.345264
-0.358683
-0.368325
-0.373732
-0.374749
-0.371444
-0.364089
-0.353046
-0.338673
-0.321336
-0.30139
-0.279206
-0.255201
-0.229843
-0.203666
-0.177267
-11993.9
-11524
-11060.4
-10605.3
-10159.7
-9723.44
-9295.81
-8875.52
-8461.04
-8050.62
-7642.43
-7234.51
-6824.77
-6410.97
-5990.7
-5561.46
-5120.78
-4666.33
-4195.84
-3706.86
-3196.76
-2659.9
-2087.85
-1474.67
-829.679
-220.984
-1.85003
-0.0700879
-0.0452366
-0.0368641
-0.0255308
-0.0570011
-0.0785336
-0.104835
-0.134053
-0.161611
-0.18281
-0.199392
-0.213068
-0.224416
-0.233459
-0.239895
-0.243576
-0.24455
-0.242824
-0.238413
-0.231402
-0.221928
-0.210186
-0.196433
-12020.4
-11601.2
-11182.2
-10763.8
-10346.4
-9930.61
-9516.85
-9105.75
-8697.92
-8293.94
-7894.35
-7499.56
-7109.88
-6725.37
-6345.79
-5970.62
-5599
-5229.76
-4861.37
-4492.2
-4121.57
-3747.36
-3368.06
-2982.57
-2590.25
-2190.63
-1782.51
-1361.79
-931.359
-505.217
-153.288
-1.27812
-0.0411813
-0.0241719
-0.0204857
-0.048403
-0.0608596
-0.0736618
-0.0862128
-0.0969261
-0.106278
-0.115518
-0.124354
-0.132634
-0.14001
-0.14599
-0.15022
-0.152461
-0.152568
-0.15049
-12016
-11587.3
-11156.8
-10724.2
-10289.9
-9854.57
-9419.48
-8986.12
-8556.18
-8131.45
-7713.73
-7304.7
-6905.85
-6518.4
-6143.28
-5781.04
-5431.82
-5095.32
-4770.76
-4457.38
-4154.64
-3861.28
-3575.66
-3296.16
-3021.03
-2748.52
-2476.9
-2204.59
-1930.23
-1652.7
-1371.21
-1085.49
-795.604
-507.07
-228.295
-1.87244
-0.0416092
-0.0139475
-0.00947822
-0.0222727
-0.0277918
-0.0341319
-0.0422459
-0.0499653
-0.0569085
-0.0639863
-0.0711014
-0.0778684
-0.0838519
-0.0887225
-11998.7
-11535.4
-11069.9
-10602
-10132.1
-9661.26
-9190.97
-8723.21
-8260.19
-7804.24
-7357.7
-6922.8
-6501.55
-6095.69
-5706.59
-5335.25
-4982.29
-4647.89
-4331.9
-4033.8
-3752.78
-3487.75
-3237.46
-3000.48
-2775.24
-2560.09
-2353.28
-2153.2
-1958.66
-1768.73
-1582.48
-1398.79
-1216.48
-1034.86
-853.618
-673.195
-494.917
-320.476
-152.635
-1.1061
-0.0216043
-0.00573293
-0.00338444
-0.00860486
-0.0128366
-0.0178653
-0.022963
-0.0281138
-0.0335558
-0.0391301
-11980.3
-11480.2
-10978.5
-10475.1
-9970.73
-9466.51
-8964.25
-8466.06
-7974.33
-7491.57
-7020.26
-6562.8
-6121.34
-5697.76
-5293.58
-4909.94
-4547.56
-4206.8
-3887.62
-3589.64
-3312.22
-3054.42
-2815.13
-2593.09
-2386.92
-2195.2
-2016.46
-1849.27
-1692.25
-1544.07
-1403.52
-1269.47
-1140.91
-1016.91
-896.383
-779.163
-665.055
-553.819
-445.11
-338.444
-233.982
-134.173
-47.6523
-0.350462
-0.00693966
-0.00175324
-0.00495199
-0.0080701
-0.0111539
-0.0142244
-11964.3
-11432.6
-10899.9
-10366.6
-9833.69
-9302.59
-8775.29
-8254.05
-7741.34
-7239.7
-6751.63
-6279.45
-5825.27
-5390.86
-4977.67
-4586.72
-4218.68
-3873.8
-3552.01
-3252.92
-2975.86
-2719.92
-2484.06
-2267.06
-2067.65
-1884.51
-1716.3
-1561.69
-1419.4
-1288.2
-1166.93
-1054.5
-949.919
-852.275
-760.745
-674.605
-593.23
-516.106
-442.828
-373.094
-306.684
-243.43
-183.222
-126.088
-72.4399
-24.9629
-0.172788
-0.0103339
-0.0209339
-0.0205012
-11954.8
-11404.6
-10854.8
-10306.4
-9760.58
-9219.16
-8684.06
-8157.48
-7641.67
-7138.88
-6651.29
-6180.86
-5729.32
-5298.11
-4888.33
-4500.75
-4135.8
-3793.59
-3473.95
-3176.43
-2900.37
-2644.96
-2409.21
-2192.06
-1992.38
-1809.02
-1640.8
-1486.59
-1345.26
-1215.74
-1097.03
-988.159
-888.25
-796.477
-712.084
-634.377
-562.725
-496.555
-435.35
-378.64
-326.007
-277.077
-231.516
-189.012
-149.212
-111.594
-75.3174
-38.9524
-0.254611
-0.0161476
-11956.7
-11410.6
-10866.3
-10325.2
-9788.99
-9259.31
-8738.04
-8227.05
-7728.2
-7243.25
-6773.82
-6321.37
-5887.08
-5471.94
-5076.64
-4701.63
-4347.11
-4013.04
-3699.19
-3405.13
-3130.29
-2873.99
-2635.43
-2413.78
-2208.15
-2017.63
-1841.31
-1678.3
-1527.72
-1388.71
-1260.46
-1142.2
-1033.17
-932.683
-840.062
-754.682
-675.948
-603.297
-536.197
-474.139
-416.639
-363.228
-313.463
-266.946
-223.357
-182.45
-143.973
-107.556
-72.5135
-37.6147
-11967.8
-11444.2
-10923.4
-10407
-9896.72
-9394.28
-8901.25
-8419.16
-7949.38
-7493.18
-7051.63
-6625.65
-6215.97
-5823.1
-5447.39
-5089.01
-4747.96
-4424.11
-4117.18
-3826.81
-3552.54
-3293.85
-3050.17
-2820.9
-2605.44
-2403.15
-2213.43
-2035.65
-1869.24
-1713.59
-1568.15
-1432.36
-1305.71
-1187.67
-1077.73
-975.42
-880.252
-791.764
-709.501
-633.021
-561.891
-495.686
-433.976
-376.335
-322.375
-271.919
-224.644
-180.363
-139.076
-100.897
-11985.7
-11498.1
-11013.4
-10533.5
-10059.8
-9593.89
-9137.1
-8690.57
-8255.28
-7832.09
-7421.65
-7024.47
-6640.92
-6271.22
-5915.46
-5573.64
-5245.65
-4931.29
-4630.33
-4342.46
-4067.36
-3804.69
-3554.07
-3315.16
-3087.58
-2871
-2665.07
-2469.47
-2283.88
-2108
-1941.52
-1784.16
-1635.6
-1495.56
-1363.73
-1239.79
-1123.43
-1014.29
-912.027
-816.271
-726.64
-642.739
-564.166
-490.516
-421.393
-356.42
-295.256
-237.606
-183.223
-132.034
-12005
-11556.1
-11109.9
-10668.2
-10232.3
-9803.38
-9382.56
-8970.63
-8568.25
-8175.96
-7794.12
-7423
-7062.75
-6713.42
-6374.97
-6047.31
-5730.31
-5423.77
-5127.5
-4841.28
-4564.9
-4298.15
-4040.84
-3792.78
-3553.82
-3323.83
-3102.7
-2890.31
-2686.6
-2491.48
-2304.88
-2126.73
-1956.94
-1795.42
-1642.05
-1496.68
-1359.12
-1229.16
-1106.54
-990.945
-882.019
-779.352
-682.486
-590.917
-504.121
-421.57
-342.781
-267.359
-195.077
-125.974
-12018.7
-11596.8
-11177.2
-10761.3
-10350.3
-9945.13
-9546.84
-9156.16
-8773.67
-8399.82
-8034.92
-7679.16
-7332.59
-6995.21
-6666.91
-6347.54
-6036.93
-5734.88
-5441.17
-5155.61
-4878.03
-4608.28
-4346.23
-4091.81
-3844.96
-3605.69
-3373.99
-3149.93
-2933.57
-2724.99
-2524.28
-2331.52
-2146.79
-1970.14
-1801.58
-1641.09
-1488.6
-1343.99
-1207.04
-1077.48
-954.941
-838.963
-728.974
-624.309
-524.223
-427.925
-334.622
-243.514
-153.698
-63.8711
-12017.4
-11592.8
-11170.5
-10752
-10339.1
-9932.96
-9534.8
-9145.46
-8765.56
-8395.42
-8035.19
-7684.79
-7344.07
-7012.72
-6690.41
-6376.78
-6071.44
-5774.05
-5484.28
-5201.84
-4926.51
-4658.12
-4396.53
-4141.7
-3893.62
-3652.34
-3417.94
-3190.56
-2970.36
-2757.51
-2552.21
-2354.63
-2164.95
-1983.3
-1809.79
-1644.46
-1487.31
-1338.22
-1197.03
-1063.43
-937
-817.184
-703.244
-594.28
-489.26
-387.149
-287.101
-188.642
-91.7314
-0.578807
-11980.9
-11484.7
-10995.8
-10518.4
-10056
-9610.44
-9182.5
-8772.18
-8378.88
-8001.67
-7639.44
-7291.02
-6955.26
-6631.07
-6317.44
-6013.49
-5718.45
-5431.66
-5152.59
-4880.78
-4615.93
-4357.79
-4106.22
-3861.15
-3622.6
-3390.63
-3165.38
-2947
-2735.71
-2531.71
-2335.23
-2146.49
-1965.68
-1792.96
-1628.44
-1472.17
-1324.12
-1184.17
-1052.13
-927.699
-810.408
-699.599
-594.335
-493.296
-394.646
-296.554
-197.864
-97.7075
-0.602627
-0.480506
-11774.8
-11013.8
-10358.4
-9780.74
-9261.88
-8788.78
-8352.09
-7944.93
-7562.13
-7199.77
-6854.78
-6524.75
-6207.78
-5902.36
-5607.26
-5321.51
-5044.32
-4775.11
-4513.38
-4258.81
-4011.14
-3770.23
-3536.01
-3308.49
-3087.73
-2873.85
-2667.02
-2467.43
-2275.29
-2090.83
-1914.26
-1745.79
-1585.58
-1433.75
-1290.36
-1155.39
-1028.73
-910.091
-799.4
-696.892
-602.107
-514.514
-433.503
-358.393
-288.44
-222.841
-160.702
-100.918
-41.9227
-0.327305
-0.00375877
-0.00313763
-0.00266247
-0.00230362
-0.00203604
-0.00183903
-0.00169578
-0.00159291
-0.00151996
-0.00146888
-0.0014336
-0.0014096
-0.00139358
-0.00138317
-0.00137669
-0.00137297
-0.00137121
-0.00137086
-0.00137157
-0.0013731
-0.0013753
-0.00137808
-0.00138137
-0.00138514
-0.00138937
-0.00139405
-0.00139917
-0.00140473
-0.00141073
-0.00141716
-0.00142403
-0.00143134
-0.00143909
-0.00144727
-0.00145589
-0.00146495
-0.00147445
-0.00148438
-0.00149475
-0.00150557
-0.00151682
-0.00152852
-0.00154066
-0.00155325
-0.00156628
-0.00157976
-0.0015937
-0.00160809
-0.00162294
-0.00163825
-0.00734987
-0.00578334
-0.00457349
-0.00365233
-0.00296067
-0.00244833
-0.00207377
-0.00180339
-0.00161055
-0.00147459
-0.00137976
-0.00131426
-0.00126944
-0.00123903
-0.00121857
-0.00120493
-0.00119596
-0.00119019
-0.00118665
-0.00118467
-0.00118383
-0.00118387
-0.0011846
-0.00118591
-0.00118775
-0.00119006
-0.00119282
-0.00119601
-0.00119961
-0.00120363
-0.00120806
-0.00121288
-0.0012181
-0.0012237
-0.0012297
-0.00123607
-0.00124283
-0.00124996
-0.00125746
-0.00126533
-0.00127356
-0.00128215
-0.00129111
-0.00130042
-0.00131008
-0.0013201
-0.00133047
-0.00134119
-0.00135226
-0.00136368
-0.0195268
-0.0149089
-0.0113064
-0.0085412
-0.00645156
-0.00489602
-0.00375468
-0.00292878
-0.00233899
-0.00192305
-0.00163313
-0.00143322
-0.00129668
-0.00120417
-0.00114189
-0.00110014
-0.00107223
-0.00105359
-0.00104115
-0.00103286
-0.00102739
-0.00102385
-0.00102169
-0.00102054
-0.00102018
-0.00102047
-0.00102131
-0.00102265
-0.00102445
-0.00102669
-0.00102934
-0.0010324
-0.00103585
-0.00103968
-0.00104388
-0.00104844
-0.00105336
-0.00105862
-0.00106422
-0.00107015
-0.0010764
-0.00108296
-0.00108984
-0.00109701
-0.00110447
-0.00111223
-0.00112026
-0.00112857
-0.00113714
-0.00114598
-0.0594685
-0.0452878
-0.0340663
-0.0253409
-0.0186692
-0.0136498
-0.00993191
-0.00721958
-0.00526969
-0.00388771
-0.00292153
-0.00225477
-0.0018002
-0.00149368
-0.00128849
-0.00115144
-0.00106022
-0.000999744
-0.000959769
-0.000933404
-0.000916037
-0.000904613
-0.000897133
-0.000892306
-0.000889305
-0.000887607
-0.000886883
-0.000886929
-0.000887615
-0.000888859
-0.000890608
-0.000892825
-0.000895484
-0.000898565
-0.000902052
-0.000905931
-0.000910188
-0.000914811
-0.000919788
-0.000925105
-0.000930751
-0.000936715
-0.000942983
-0.000949546
-0.000956393
-0.000963512
-0.000970894
-0.000978527
-0.000986403
-0.00099451
-0.151287
-0.126373
-0.103423
-0.0831606
-0.0657022
-0.0510152
-0.0389459
-0.0292526
-0.0216404
-0.0157927
-0.0113957
-0.00815748
-0.00582009
-0.00416557
-0.0030169
-0.00223476
-0.00171178
-0.00136801
-0.00114565
-0.00100398
-0.000915008
-0.000859919
-0.000826314
-0.000806186
-0.000794456
-0.000787957
-0.000784745
-0.000783643
-0.000783947
-0.000785238
-0.00078727
-0.000789896
-0.000793025
-0.000796603
-0.000800594
-0.000805002
-0.000809849
-0.000815129
-0.00082083
-0.000826935
-0.000833427
-0.000840291
-0.00084751
-0.00085507
-0.000862958
-0.000871159
-0.000879661
-0.000888451
-0.000897516
-0.000906844
-0.180999
-0.164292
-0.146778
-0.128952
-0.111298
-0.0942657
-0.0782515
-0.0635752
-0.0504671
-0.0393091
-0.0301136
-0.0227058
-0.0168696
-0.0123706
-0.00897561
-0.00646606
-0.00464796
-0.00335624
-0.00245574
-0.00183948
-0.00142527
-0.00115179
-0.00097443
-0.000861538
-0.000791171
-0.000748447
-0.00072348
-0.000709827
-0.000703369
-0.000701512
-0.000702651
-0.000705798
-0.000710356
-0.00071596
-0.000722388
-0.000729468
-0.000737068
-0.000745114
-0.000753564
-0.000762392
-0.000771583
-0.000781123
-0.000791005
-0.000801221
-0.000811766
-0.000822635
-0.000833824
-0.00084533
-0.000857149
-0.000869279
-0.14628
-0.14007
-0.132068
-0.12255
-0.111845
-0.100326
-0.0883874
-0.076424
-0.0648113
-0.0538824
-0.0438934
-0.035013
-0.0273262
-0.0209266
-0.0157936
-0.0117641
-0.00866609
-0.00633224
-0.00460863
-0.00336027
-0.00247314
-0.00185433
-0.00143054
-0.00114558
-0.00095758
-0.000836074
-0.000759422
-0.000712588
-0.000685338
-0.000670838
-0.00066461
-0.000663766
-0.000666469
-0.000671568
-0.000678348
-0.000686363
-0.000695341
-0.000705111
-0.000715565
-0.000726633
-0.000738266
-0.000750429
-0.000763094
-0.000776239
-0.000789843
-0.000803889
-0.000818359
-0.000833238
-0.000848512
-0.000864166
-0.0921969
-0.0940809
-0.0942944
-0.0928531
-0.089851
-0.0854441
-0.0798424
-0.0732983
-0.0660931
-0.0585194
-0.0508634
-0.0433879
-0.0363187
-0.0298355
-0.0240589
-0.0190484
-0.0148113
-0.0113147
-0.00849537
-0.00632341
-0.00468379
-0.00346837
-0.00258341
-0.00195037
-0.00150549
-0.00119844
-0.0009905
-0.0008526
-0.00076342
-0.000707657
-0.000674547
-0.000656658
-0.000648947
-0.000648046
-0.000651736
-0.000658573
-0.000667627
-0.000678302
-0.000690216
-0.000703124
-0.000716867
-0.000731338
-0.000746465
-0.000762198
-0.000778498
-0.000795336
-0.00081269
-0.000830541
-0.000848874
-0.000867675
-0.0445063
-0.0494018
-0.053559
-0.0567326
-0.0587551
-0.0595631
-0.0591693
-0.0576471
-0.0551169
-0.051737
-0.0476921
-0.0431818
-0.0384078
-0.0335627
-0.0288182
-0.0243174
-0.02017
-0.0164512
-0.0132028
-0.0104377
-0.00813958
-0.00627215
-0.00478695
-0.0036299
-0.00274609
-0.00209638
-0.00162735
-0.00129411
-0.00106134
-0.000901816
-0.000794968
-0.000725529
-0.000682374
-0.000657525
-0.000645347
-0.000641915
-0.000644536
-0.000651379
-0.000661216
-0.000673224
-0.000686857
-0.000701752
-0.000717666
-0.000734436
-0.00075195
-0.000770131
-0.000788922
-0.000808284
-0.000828186
-0.000848607
-0.0176202
-0.0213124
-0.0251226
-0.0288316
-0.0322204
-0.0350797
-0.0372386
-0.0385999
-0.0391322
-0.0388566
-0.0378338
-0.0361553
-0.0339352
-0.0313011
-0.0283856
-0.0253189
-0.0222208
-0.0191963
-0.0163311
-0.0136896
-0.0113145
-0.00922824
-0.00743572
-0.00592781
-0.00468514
-0.00368181
-0.00288713
-0.0022691
-0.0017969
-0.00144244
-0.00118113
-0.000992173
-0.000859403
-0.00076928
-0.000710019
-0.000672934
-0.000651698
-0.000641755
-0.000639857
-0.000643704
-0.000651686
-0.000662676
-0.000675895
-0.000690798
-0.00070701
-0.000724268
-0.000742387
-0.000761238
-0.000780725
-0.000800782
-0.0204288
-0.019712
-0.0193642
-0.0199897
-0.0211864
-0.0226316
-0.0241315
-0.0255184
-0.0266424
-0.0273967
-0.0277175
-0.0275816
-0.0269982
-0.0260031
-0.0246522
-0.0230145
-0.0211663
-0.0191853
-0.0171461
-0.015116
-0.0131525
-0.0113013
-0.00959615
-0.00805876
-0.0067001
-0.0055218
-0.00451796
-0.00367707
-0.00298396
-0.00242152
-0.00197201
-0.0016182
-0.00134403
-0.00113498
-0.000978244
-0.00086291
-0.000779928
-0.000721948
-0.000683107
-0.000658807
-0.000645492
-0.000640446
-0.000641619
-0.000647482
-0.00065683
-0.000668757
-0.000682639
-0.000698031
-0.000714615
-0.000732162
-0.0287489
-0.0261995
-0.0246806
-0.0223116
-0.0201869
-0.0194374
-0.019388
-0.0196375
-0.0200219
-0.0204277
-0.0207571
-0.0209331
-0.0209041
-0.0206419
-0.0201394
-0.0194073
-0.0184701
-0.0173622
-0.0161237
-0.0147971
-0.0134246
-0.0120454
-0.010694
-0.0093994
-0.008184
-0.00706397
-0.00604938
-0.00514487
-0.00435047
-0.00366254
-0.00307474
-0.00257887
-0.00216567
-0.00182544
-0.00154854
-0.0013258
-0.00114873
-0.00100975
-0.000902159
-0.000820211
-0.000759029
-0.000714538
-0.000683376
-0.000662798
-0.000650583
-0.000644948
-0.000644482
-0.000648072
-0.000654845
-0.000664113
-0.252036
-0.01663
-0.0321508
-0.0384857
-0.0360613
-0.0309286
-0.0287831
-0.0270909
-0.0254422
-0.0239301
-0.0225958
-0.0214413
-0.0204359
-0.0195333
-0.0186854
-0.0178508
-0.0169994
-0.0161129
-0.0151841
-0.0142146
-0.0132128
-0.0121913
-0.0111649
-0.0101495
-0.00915985
-0.00820944
-0.00730941
-0.00646841
-0.00569245
-0.00498503
-0.00434737
-0.00377873
-0.00327678
-0.00283795
-0.00245782
-0.0021314
-0.00185347
-0.00161873
-0.00142208
-0.00125864
-0.00112392
-0.00101383
-0.000924707
-0.000853324
-0.000796861
-0.000752883
-0.000719311
-0.000694379
-0.000676602
-0.000664736
-65.8132
-33.2751
-0.222423
-0.209247
-0.183559
-0.137709
-0.116948
-0.102407
-0.0887615
-0.0761734
-0.064924
-0.0551949
-0.0469908
-0.0402046
-0.0346576
-0.0301448
-0.026467
-0.0234463
-0.0209338
-0.0188102
-0.0169831
-0.0153831
-0.0139591
-0.0126748
-0.0115043
-0.0104303
-0.00944074
-0.00852763
-0.00768552
-0.00691049
-0.00619947
-0.00554978
-0.00495879
-0.00442379
-0.00394188
-0.00350997
-0.00312479
-0.00278298
-0.00248109
-0.00221569
-0.00198343
-0.00178105
-0.00160545
-0.00145375
-0.00132324
-0.00121147
-0.00111621
-0.0010355
-0.000967663
-0.000911359
-83.954
-38.777
-0.263236
-0.257292
-0.224343
-0.178034
-0.163102
-0.150241
-0.137352
-0.124415
-0.111725
-0.0995633
-0.0881823
-0.0777266
-0.0682904
-0.0599123
-0.0525581
-0.0461579
-0.0406196
-0.0358422
-0.0317247
-0.0281723
-0.0250995
-0.0224313
-0.0201039
-0.0180633
-0.0162648
-0.0146717
-0.0132538
-0.0119867
-0.0108503
-0.00982828
-0.00890717
-0.00807573
-0.00732452
-0.00664549
-0.00603168
-0.00547699
-0.00497603
-0.00452394
-0.00411635
-0.00374927
-0.00341906
-0.00312239
-0.00285621
-0.00261776
-0.00240462
-0.00221472
-0.00204655
-0.0018995
-60.4992
-0.404201
-0.393281
-0.358702
-0.286107
-0.257496
-0.242163
-0.227377
-0.212799
-0.198348
-0.184019
-0.169868
-0.15593
-0.142297
-0.129208
-0.116797
-0.10522
-0.0945197
-0.0847178
-0.075815
-0.0677917
-0.0606105
-0.0542182
-0.0485533
-0.0435458
-0.0391235
-0.0352179
-0.0317656
-0.0287097
-0.0259996
-0.023591
-0.0214454
-0.0195295
-0.0178145
-0.016276
-0.0148926
-0.0136462
-0.012521
-0.0115035
-0.0105819
-0.00974609
-0.00898705
-0.00829703
-0.00766918
-0.00709753
-0.00657689
-0.00610294
-0.00567236
-0.0052834
-0.00493715
-0.412372
-0.417431
-0.369024
-0.311103
-0.297143
-0.286981
-0.276082
-0.264632
-0.252856
-0.240908
-0.228897
-0.216885
-0.204953
-0.192968
-0.18101
-0.169078
-0.157233
-0.145606
-0.134344
-0.123594
-0.113504
-0.104126
-0.0954311
-0.0874144
-0.0800542
-0.0733169
-0.0671642
-0.0615566
-0.0564551
-0.0518201
-0.0476123
-0.0437941
-0.0403297
-0.0371856
-0.034331
-0.0317373
-0.0293787
-0.0272319
-0.0252758
-0.0234913
-0.0218616
-0.0203714
-0.0190072
-0.017757
-0.0166103
-0.0155577
-0.0145918
-0.013707
-0.0129012
-0.0121786
-0.567915
-0.491922
-0.390627
-0.365653
-0.343449
-0.322967
-0.304412
-0.287776
-0.272911
-0.259577
-0.2475
-0.236404
-0.22605
-0.216237
-0.206796
-0.197602
-0.188559
-0.179596
-0.170726
-0.161885
-0.153022
-0.14425
-0.135621
-0.127229
-0.119146
-0.111437
-0.104153
-0.0972923
-0.0908531
-0.0848282
-0.0792073
-0.0739767
-0.0691198
-0.0646178
-0.0604505
-0.0565969
-0.0530358
-0.0497463
-0.0467081
-0.0439018
-0.0413092
-0.0389132
-0.0366982
-0.0346499
-0.0327556
-0.0310039
-0.0293852
-0.0278931
-0.0265255
-0.0252894
-0.336696
-0.292259
-0.258327
-0.236616
-0.223181
-0.216153
-0.21364
-0.213927
-0.215599
-0.217591
-0.219169
-0.219891
-0.219536
-0.218034
-0.215424
-0.21181
-0.207324
-0.202107
-0.196295
-0.19001
-0.183358
-0.176441
-0.169335
-0.162105
-0.154798
-0.147443
-0.140085
-0.132814
-0.125699
-0.1188
-0.112213
-0.106011
-0.100214
-0.0948003
-0.0897483
-0.0850367
-0.080644
-0.0765499
-0.0727347
-0.06918
-0.0658684
-0.0627851
-0.059915
-0.0572424
-0.0547562
-0.0524437
-0.0502971
-0.0483082
-0.0464726
-0.0447915
-0.246754
-0.251153
-0.254505
-0.256968
-0.258834
-0.260155
-0.260939
-0.261155
-0.260755
-0.259684
-0.257905
-0.255413
-0.252217
-0.24835
-0.243868
-0.238836
-0.233334
-0.227441
-0.221241
-0.214815
-0.20824
-0.201584
-0.194909
-0.188266
-0.181693
-0.17523
-0.168893
-0.162704
-0.156674
-0.150815
-0.145126
-0.139602
-0.13424
-0.129067
-0.124098
-0.119347
-0.114817
-0.110505
-0.10642
-0.102554
-0.0989053
-0.0954639
-0.092222
-0.0891685
-0.0863401
-0.0837194
-0.0812887
-0.0790329
-0.0769376
-0.0749923
-0.00165234
-0.00166175
-0.00167103
-0.00168032
-0.0016897
-0.00169923
-0.00170894
-0.00171883
-0.00172892
-0.00173922
-0.00174972
-0.00176045
-0.0017714
-0.00178257
-0.00179398
-0.00180563
-0.00181751
-0.00182964
-0.00184203
-0.00185467
-0.00186757
-0.00188075
-0.00189419
-0.00190792
-0.00192194
-0.00193625
-0.00195085
-0.00196577
-0.001981
-0.00199655
-0.00201243
-0.00202865
-0.00204521
-0.00206212
-0.0020794
-0.00209705
-0.00211508
-0.0021335
-0.00215232
-0.00217155
-0.0021912
-0.00221128
-0.0022318
-0.00225277
-0.00227422
-0.00229614
-0.00231855
-0.00234147
-0.0023649
-0.00238886
-0.00241338
-0.00243845
-0.0024641
-0.00249033
-0.00251718
-0.00254465
-0.00257277
-0.00260154
-0.00263099
-0.00266114
-0.002692
-0.00272359
-0.00275594
-0.00278907
-0.00282299
-0.00285774
-0.00289332
-0.00292977
-0.0029671
-0.00300535
-0.00304453
-0.00308468
-0.00312581
-0.00316795
-0.00321113
-0.00325537
-0.00330071
-0.00334717
-0.00339477
-0.00344356
-0.00349355
-0.00354477
-0.00359727
-0.00365105
-0.00370617
-0.00376264
-0.00382049
-0.00387976
-0.00394049
-0.00400269
-0.0040664
-0.00413164
-0.00419846
-0.00426689
-0.00433694
-0.00440865
-0.00448205
-0.00455716
-0.00463402
-0.00471265
-0.00479308
-0.00487533
-0.00495942
-0.00504537
-0.00513322
-0.00522297
-0.00531464
-0.00540825
-0.00550381
-0.00560134
-0.00570083
-0.0058023
-0.00590574
-0.00601116
-0.00611856
-0.00622792
-0.00633923
-0.00645249
-0.00656767
-0.00668474
-0.00680369
-0.00692447
-0.00704705
-0.00717138
-0.00729741
-0.0074251
-0.00755437
-0.00768517
-0.0078174
-0.007951
-0.00808588
-0.00822194
-0.00835907
-0.00849717
-0.00863611
-0.00877576
-0.00891601
-0.00905668
-0.00919764
-0.00933872
-0.00947976
-0.00962058
-0.00976099
-0.00990081
-0.0100398
-0.0101778
-0.0103147
-0.01045
-0.0105837
-0.0107155
-0.0108452
-0.0109725
-0.0110972
-0.011219
-0.0113377
-0.011453
-0.0115647
-0.0116725
-0.0117763
-0.0118758
-0.0119707
-0.0120609
-0.0121462
-0.0122263
-0.0123012
-0.0123707
-0.0124347
-0.012493
-0.0125457
-0.0125927
-0.012634
-0.0126697
-0.0126999
-0.0127246
-0.012744
-0.0127584
-0.0127681
-0.0127734
-0.0127747
-0.0127724
-0.0127671
-0.0127593
-0.0127496
-0.0127387
-0.0127274
-0.0127165
-0.0127068
-0.0126993
-0.0126949
-0.0126947
-0.0126996
-0.0127107
-0.012729
-0.0127575
-0.0127985
-0.0128536
-0.0129244
-0.0130125
-0.0131195
-0.0132456
-0.0133881
-0.0135464
-0.0137208
-0.0139121
-0.0141213
-0.0143491
-0.0145965
-0.0148645
-0.0151539
-0.0154658
-0.0158009
-0.0161588
-0.0165297
-0.0169186
-0.017327
-0.0177548
-0.0182016
-0.0186666
-0.0191491
-0.019648
-0.0201621
-0.0206902
-0.0212309
-0.0217827
-0.022344
-0.0229131
-0.0234884
-0.0240679
-0.0246499
-0.0252323
-0.0258132
-0.0263908
-0.026963
-0.0275281
-0.0280842
-0.0286296
-0.0291625
-0.0296812
-0.0301843
-0.0306703
-0.0311379
-0.0315859
-0.0320134
-0.0324194
-0.0328033
-0.0331645
-0.0335025
-0.0338172
-0.0341085
-0.0343764
-0.0346212
-0.0348431
-0.0350426
-0.0352203
-0.0353768
-0.0355129
-0.0356293
-0.035727
-0.0358068
-0.0358698
-0.035917
-0.0359493
-0.0359679
-0.0359738
-0.035968
-0.0359515
-0.0359253
-0.0358906
-0.0358482
-0.035799
-0.035744
-0.0356841
-0.03562
-0.0355526
-0.0354827
-0.0354108
-0.0353378
-0.0352641
-0.0351904
-0.0351172
-0.0350449
-0.034974
-0.0349049
-0.0348379
-0.0347733
-0.0347113
-0.0346521
-0.0345958
-0.0345426
-0.0344924
-0.0344454
-0.0344015
-0.0343606
-0.0343225
-0.034287
-0.0342535
-0.034217
-0.0341316
-0.0335445
-0.0279364
-0.00137422
-0.00138124
-0.00138815
-0.00139507
-0.00140206
-0.00140916
-0.00141638
-0.00142374
-0.00143124
-0.00143889
-0.00144669
-0.00145465
-0.00146276
-0.00147103
-0.00147947
-0.00148807
-0.00149684
-0.00150579
-0.0015149
-0.0015242
-0.00153368
-0.00154334
-0.00155319
-0.00156324
-0.00157348
-0.00158392
-0.00159457
-0.00160542
-0.00161649
-0.00162778
-0.00163929
-0.00165103
-0.001663
-0.00167522
-0.00168768
-0.00170039
-0.00171336
-0.00172659
-0.0017401
-0.00175388
-0.00176795
-0.00178231
-0.00179698
-0.00181196
-0.00182725
-0.00184287
-0.00185883
-0.00187514
-0.00189181
-0.00190885
-0.00192626
-0.00194407
-0.00196228
-0.0019809
-0.00199996
-0.00201946
-0.00203942
-0.00205985
-0.00208076
-0.00210218
-0.00212412
-0.00214659
-0.00216962
-0.00219322
-0.00221741
-0.00224222
-0.00226765
-0.00229374
-0.0023205
-0.00234796
-0.00237614
-0.00240507
-0.00243476
-0.00246525
-0.00249655
-0.00252871
-0.00256174
-0.00259568
-0.00263055
-0.00266639
-0.00270322
-0.00274108
-0.00278
-0.00282002
-0.00286116
-0.00290347
-0.00294697
-0.00299172
-0.00303774
-0.00308507
-0.00313374
-0.00318381
-0.00323531
-0.00328828
-0.00334276
-0.0033988
-0.00345643
-0.00351569
-0.00357664
-0.00363931
-0.00370374
-0.00376998
-0.00383807
-0.00390806
-0.00397999
-0.00405389
-0.00412981
-0.0042078
-0.00428789
-0.00437012
-0.00445454
-0.00454117
-0.00463006
-0.00472125
-0.00481475
-0.00491061
-0.00500886
-0.00510953
-0.00521263
-0.00531819
-0.00542623
-0.00553677
-0.00564982
-0.00576539
-0.00588348
-0.0060041
-0.00612724
-0.00625289
-0.00638104
-0.00651168
-0.00664477
-0.00678028
-0.00691819
-0.00705843
-0.00720097
-0.00734575
-0.00749269
-0.00764173
-0.00779278
-0.00794575
-0.00810054
-0.00825705
-0.00841515
-0.00857471
-0.00873561
-0.00889768
-0.00906078
-0.00922472
-0.00938934
-0.00955443
-0.0097198
-0.00988522
-0.0100505
-0.0102153
-0.0103794
-0.0105427
-0.0107048
-0.0108655
-0.0110245
-0.0111815
-0.0113362
-0.0114883
-0.0116376
-0.0117838
-0.0119265
-0.0120656
-0.0122006
-0.0123314
-0.0124576
-0.0125791
-0.0126956
-0.0128069
-0.0129128
-0.0130131
-0.0131076
-0.0131964
-0.0132793
-0.0133563
-0.0134275
-0.0134928
-0.0135525
-0.0136067
-0.0136556
-0.0136995
-0.0137388
-0.0137739
-0.0138053
-0.0138336
-0.0138593
-0.0138833
-0.0139062
-0.0139289
-0.0139523
-0.0139774
-0.0140052
-0.0140369
-0.0140734
-0.0141159
-0.0141657
-0.0142247
-0.0142966
-0.0143833
-0.0144859
-0.0146055
-0.0147429
-0.014899
-0.0150739
-0.015264
-0.0154681
-0.015686
-0.0159178
-0.0161633
-0.0164224
-0.0166954
-0.0169822
-0.0172828
-0.017597
-0.0179244
-0.0182647
-0.0186175
-0.0189823
-0.0193584
-0.0197454
-0.0201425
-0.0205491
-0.0209645
-0.021388
-0.0218192
-0.022257
-0.0227011
-0.0231375
-0.0235707
-0.0240026
-0.0244328
-0.0248605
-0.0252846
-0.0257039
-0.0261175
-0.0265242
-0.0269231
-0.0273132
-0.0276935
-0.0280633
-0.0284216
-0.0287679
-0.0291014
-0.0294215
-0.0297279
-0.0300199
-0.0302972
-0.0305597
-0.0308071
-0.0310393
-0.0312565
-0.0314587
-0.031646
-0.0318187
-0.0319771
-0.0321216
-0.0322525
-0.0323704
-0.0324756
-0.0325688
-0.0326504
-0.0327211
-0.0327814
-0.032832
-0.0328733
-0.0329061
-0.0329309
-0.0329483
-0.0329589
-0.0329633
-0.0329619
-0.0329554
-0.0329443
-0.0329289
-0.0329098
-0.0328873
-0.0328619
-0.0328339
-0.0328035
-0.0327712
-0.032737
-0.0327012
-0.0326639
-0.0326253
-0.0325854
-0.0325442
-0.0325018
-0.032458
-0.0324127
-0.0323657
-0.0323169
-0.0322656
-0.0322099
-0.032138
-0.031964
-0.0310473
-0.0245333
-0.00115413
-0.00115955
-0.00116489
-0.00117023
-0.00117561
-0.00118107
-0.00118661
-0.00119225
-0.00119799
-0.00120382
-0.00120976
-0.0012158
-0.00122195
-0.0012282
-0.00123456
-0.00124102
-0.00124759
-0.00125427
-0.00126106
-0.00126796
-0.00127497
-0.0012821
-0.00128933
-0.00129669
-0.00130415
-0.00131174
-0.00131944
-0.00132726
-0.0013352
-0.00134327
-0.00135146
-0.00135977
-0.00136822
-0.00137679
-0.0013855
-0.00139434
-0.00140332
-0.00141244
-0.0014217
-0.00143111
-0.00144067
-0.00145038
-0.00146025
-0.00147028
-0.00148047
-0.00149083
-0.00150136
-0.00151208
-0.00152297
-0.00153406
-0.00154534
-0.00155683
-0.00156852
-0.00158043
-0.00159256
-0.00160492
-0.00161753
-0.00163038
-0.00164349
-0.00165687
-0.00167052
-0.00168447
-0.00169872
-0.00171328
-0.00172817
-0.0017434
-0.00175899
-0.00177494
-0.00179128
-0.00180802
-0.00182518
-0.00184278
-0.00186083
-0.00187936
-0.00189839
-0.00191794
-0.00193803
-0.00195868
-0.00197992
-0.00200178
-0.00202428
-0.00204746
-0.00207133
-0.00209593
-0.00212128
-0.00214744
-0.00217441
-0.00220225
-0.00223098
-0.00226065
-0.00229129
-0.00232294
-0.00235563
-0.00238943
-0.00242435
-0.00246046
-0.00249779
-0.0025364
-0.00257632
-0.00261762
-0.00266033
-0.00270451
-0.00275021
-0.00279749
-0.00284639
-0.00289698
-0.00294931
-0.00300343
-0.00305941
-0.0031173
-0.00317715
-0.00323904
-0.00330301
-0.00336913
-0.00343746
-0.00350806
-0.00358098
-0.00365629
-0.00373405
-0.00381431
-0.00389714
-0.00398259
-0.00407072
-0.00416158
-0.00425523
-0.00435172
-0.00445111
-0.00455344
-0.00465875
-0.0047671
-0.00487853
-0.00499307
-0.00511076
-0.00523163
-0.00535572
-0.00548304
-0.00561361