/*--------------------------------*- C++ -*----------------------------------*\
| =========                 |                                                 |
| \\      /  F ield         | OpenFOAM: The Open Source CFD Toolbox           |
|  \\    /   O peration     | Version:  2.4.0                                 |
|   \\  /    A nd           | Web:      www.OpenFOAM.org                      |
|    \\/     M anipulation  |                                                 |
\*---------------------------------------------------------------------------*/
FoamFile
{
    version     2.0;
    format      ascii;
    class       volScalarField;
    location    "4.7";
    object      p;
}
// * * * * * * * * * * * * * * * * * * * * * * * * * * * * * * * * * * * * * //

dimensions      [1 -1 -2 0 0 0 0];

internalField   nonuniform List<scalar> 
8000
(
-5.16405
-5.29634
-5.38216
-5.44914
-6.03069
-8.22852
-10.5672
-1.43156
-1.10199
-1.07524
-1.06415
-1.07277
-1.07224
-1.07215
-1.07256
-1.07301
-1.07331
-1.07346
-1.07352
-1.07354
-1.07354
-1.07353
-1.07351
-1.07348
-1.07346
-1.07346
-1.07348
-1.07352
-1.07358
-1.07366
-1.07377
-1.07389
-1.07402
-1.07417
-1.07433
-1.0745
-1.07467
-1.07486
-1.07505
-1.07524
-1.07545
-1.07565
-1.07587
-1.07609
-1.07631
-1.07654
-1.07678
-1.07702
-1.07727
-1.07752
-13.6557
-13.5664
-13.4871
-13.419
-13.3936
-13.6999
-14.884
-13.4422
-1.98533
-2.81415
-1.42223
-1.24533
-1.13826
-1.11362
-1.10188
-1.10077
-1.09845
-1.09749
-1.09804
-1.09861
-1.09887
-1.09921
-1.09968
-1.1002
-1.1007
-1.10114
-1.10154
-1.10186
-1.10216
-1.10238
-1.10254
-1.10266
-1.10274
-1.1028
-1.10283
-1.10286
-1.10287
-1.10289
-1.10291
-1.10293
-1.10296
-1.10301
-1.10306
-1.10312
-1.1032
-1.10329
-1.10338
-1.10349
-1.10361
-1.10374
-11.664
-11.4079
-11.1426
-10.8979
-10.6531
-10.4105
-10.4002
-11.1594
-12.4834
-13.611
-16.9112
-14.5184
-3.71431
-3.50478
-1.36281
-1.29063
-1.30527
-1.29282
-1.20477
-1.14844
-1.14438
-1.13664
-1.12536
-1.11796
-1.11554
-1.11737
-1.12024
-1.12163
-1.12187
-1.1218
-1.12185
-1.1221
-1.12248
-1.12283
-1.12312
-1.12337
-1.12359
-1.12381
-1.12403
-1.12424
-1.12445
-1.12465
-1.12484
-1.12504
-1.12523
-1.12543
-1.12564
-1.12585
-1.12607
-1.1263
-0.761222
-0.714876
-0.635922
-0.535206
-0.414408
-0.269539
-0.0993494
0.0601976
0.117506
0.148018
-0.115098
-0.233336
0.294346
0.576238
-9.09021
-9.66008
-7.41594
-8.27968
-6.97285
-2.89791
-1.45464
-1.19444
-1.18973
-1.21004
-1.19885
-1.18486
-1.18023
-1.17305
-1.15277
-1.13485
-1.13243
-1.14086
-1.14792
-1.14995
-1.14955
-1.14906
-1.14898
-1.14897
-1.14912
-1.1493
-1.14951
-1.14971
-1.14988
-1.15007
-1.15026
-1.15046
-1.15068
-1.15089
-1.15111
-1.15135
-4.65324
-4.61027
-4.57232
-4.53846
-4.50475
-4.4705
-4.43543
-4.40043
-4.36516
-4.32682
-4.27223
-4.20526
-4.14811
-4.08761
-4.08473
-4.08516
-4.07937
-4.01218
-3.78178
-3.61311
-3.3712
-8.41794
-7.19466
-8.14211
-9.00688
-6.08387
-2.02079
-0.974278
-0.820115
-0.864408
-1.04006
-1.20323
-1.23298
-1.18579
-1.15693
-1.15619
-1.1651
-1.17129
-1.17397
-1.17521
-1.17574
-1.17585
-1.17579
-1.17598
-1.17621
-1.17645
-1.17671
-1.17697
-1.17723
-1.17749
0.843051
0.855734
0.87593
0.897224
0.917618
0.93707
0.955656
0.973267
0.989758
1.005
1.01929
1.03235
1.04387
1.05431
1.06773
1.08678
1.12716
1.20949
1.34089
1.47136
1.63846
1.76227
1.92273
2.05196
1.97533
1.68875
0.36734
-7.31671
-7.14242
-7.75427
-7.83574
-1.45328
-0.185499
0.218237
-0.336685
-1.00164
-1.2916
-1.24975
-1.2062
-1.19984
-1.20521
-1.20698
-1.20648
-1.20629
-1.20684
-1.20737
-1.20765
-1.20784
-1.20805
-1.20826
1.10099
1.08609
1.06988
1.05817
1.05179
1.05031
1.05347
1.06119
1.07347
1.09028
1.11161
1.13747
1.16779
1.20257
1.24183
1.28572
1.33441
1.38817
1.44658
1.5084
1.57214
1.64431
1.73234
1.84807
1.98493
2.11922
2.28665
2.43385
2.53394
2.43987
1.94244
-2.95272
-4.34085
-7.65443
-8.59181
-4.93709
-0.978161
0.25704
-0.143395
-0.995077
-1.28366
-1.24666
-1.2169
-1.22568
-1.23804
-1.24205
-1.24262
-1.24262
-1.2426
-1.24264
3.01507
3.00105
2.98825
2.97889
2.97252
2.96871
2.96735
2.96843
2.97197
2.97797
2.98644
2.99738
3.01083
3.0268
3.04533
3.06646
3.09021
3.11657
3.14551
3.17689
3.21056
3.24642
3.28444
3.32452
3.36636
3.4098
3.45691
3.51354
3.57571
3.62896
3.68978
3.76921
3.89099
3.89457
3.48598
0.676398
-1.04775
-6.35776
-7.51328
-6.99439
-1.50878
-0.0221953
-0.118568
-1.05262
-1.27724
-1.2701
-1.27074
-1.27421
-1.27577
-1.27623
3.54906
3.52832
3.50721
3.49006
3.4768
3.46691
3.46022
3.45673
3.45645
3.45939
3.46555
3.47492
3.48748
3.50325
3.5222
3.54434
3.56962
3.5981
3.62968
3.66445
3.70228
3.74328
3.78728
3.83443
3.88443
3.93746
3.99307
4.05158
4.11245
4.17621
4.24276
4.31461
4.392
4.47031
4.54407
4.61266
4.73653
4.81887
4.68794
2.76703
0.224771
-5.77301
-6.65496
-3.81798
-1.18224
-0.680243
-1.18087
-1.29594
-1.30482
-1.31235
3.62889
3.61143
3.59239
3.57539
3.56053
3.5474
3.53587
3.5259
3.51752
3.51069
3.50542
3.50168
3.49945
3.4987
3.49941
3.50154
3.50507
3.50996
3.51616
3.52365
3.53235
3.54225
3.55326
3.56536
3.57844
3.59249
3.60738
3.6231
3.63948
3.65654
3.674
3.69181
3.70977
3.72808
3.74668
3.76678
3.78798
3.80745
3.81806
3.8168
3.84789
3.90963
3.83867
0.251384
-3.33278
-5.69112
-3.06041
-1.58009
-1.26384
-1.31177
3.9447
3.91711
3.88873
3.86428
3.8434
3.82536
3.80996
3.7972
3.78706
3.77955
3.77465
3.77232
3.77257
3.77537
3.78071
3.78857
3.79895
3.81184
3.82722
3.8451
3.86546
3.88829
3.91361
3.94141
3.97168
4.00443
4.03968
4.07742
4.11768
4.16044
4.20573
4.25357
4.30399
4.35703
4.41271
4.47102
4.532
4.59585
4.66323
4.73482
4.80833
4.87553
4.93919
5.02219
5.18633
5.25747
1.53056
-2.81733
-2.90639
-1.88825
3.24113
3.218
3.19304
3.17083
3.15136
3.13408
3.11879
3.10545
3.09408
3.08466
3.07719
3.07165
3.06804
3.06636
3.0666
3.06877
3.07288
3.07893
3.08694
3.09692
3.10889
3.12287
3.1389
3.15701
3.17722
3.19958
3.22413
3.25092
3.28
3.31143
3.34529
3.38164
3.42056
3.46213
3.50646
3.55364
3.60378
3.65699
3.7134
3.7731
3.83628
3.90346
3.97561
4.05145
4.12117
4.17868
4.25632
4.26894
2.58025
0.155798
2.57657
2.56115
2.54497
2.53066
2.51806
2.50679
2.49675
2.48795
2.48039
2.47407
2.46899
2.46514
2.46251
2.46109
2.46088
2.46186
2.46402
2.46736
2.47186
2.4775
2.48427
2.49216
2.50115
2.51122
2.52235
2.53453
2.54773
2.56193
2.5771
2.59323
2.61029
2.62824
2.64706
2.66671
2.68717
2.70838
2.73032
2.75294
2.7762
2.80004
2.82443
2.84929
2.8746
2.90028
2.92646
2.95311
2.98021
3.00052
3.01735
2.94951
1.49461
1.48692
1.47852
1.47082
1.46382
1.45737
1.45139
1.44592
1.44094
1.43646
1.43249
1.42902
1.42605
1.42358
1.42159
1.4201
1.41909
1.41854
1.41846
1.41883
1.41964
1.42088
1.42253
1.42457
1.42699
1.42976
1.43287
1.43628
1.43997
1.44391
1.44806
1.4524
1.45688
1.46146
1.4661
1.47074
1.47534
1.47983
1.48416
1.48825
1.49204
1.49543
1.49837
1.50075
1.50251
1.5034
1.50312
1.53241
1.51007
1.52517
0.431235
0.427259
0.422886
0.418987
0.415599
0.412633
0.410054
0.407862
0.406058
0.404644
0.403621
0.402987
0.402742
0.402886
0.40342
0.404343
0.405654
0.407355
0.409444
0.411922
0.414788
0.418042
0.421683
0.42571
0.430124
0.434924
0.440107
0.445674
0.451625
0.457956
0.464669
0.471762
0.479233
0.487081
0.495306
0.503907
0.512885
0.522237
0.531966
0.542068
0.552548
0.563404
0.574645
0.586263
0.598234
0.610479
0.623128
0.660035
0.67301
0.662093
-0.540643
-0.538902
-0.536543
-0.534327
-0.532445
-0.53088
-0.529609
-0.528625
-0.527926
-0.527508
-0.527366
-0.527491
-0.527874
-0.528505
-0.529376
-0.530475
-0.531794
-0.533324
-0.535055
-0.536981
-0.539094
-0.541388
-0.54386
-0.546506
-0.549323
-0.552312
-0.555472
-0.558808
-0.562323
-0.566021
-0.569912
-0.574003
-0.578304
-0.582828
-0.587588
-0.592599
-0.597877
-0.60344
-0.609307
-0.615497
-0.62203
-0.628925
-0.636206
-0.643938
-0.652224
-0.660988
-0.669237
-0.674583
-0.663855
-0.694676
-1.97058
-1.96256
-1.9549
-1.94824
-1.9422
-1.93661
-1.93145
-1.92676
-1.92253
-1.91878
-1.91548
-1.91263
-1.91022
-1.90822
-1.90663
-1.90542
-1.90457
-1.90408
-1.9039
-1.90404
-1.90447
-1.90517
-1.90612
-1.90731
-1.90872
-1.91034
-1.91215
-1.91413
-1.91628
-1.91858
-1.92103
-1.9236
-1.9263
-1.9291
-1.932
-1.93499
-1.93806
-1.9412
-1.94439
-1.94762
-1.95087
-1.95415
-1.9575
-1.96101
-1.96415
-1.96477
-1.96079
-1.96377
-2.02843
-2.20508
-2.40834
-2.38442
-2.35832
-2.33716
-2.32122
-2.30935
-2.30079
-2.2951
-2.29194
-2.29099
-2.29195
-2.29457
-2.29859
-2.3038
-2.31001
-2.31703
-2.32471
-2.33291
-2.3415
-2.35035
-2.35936
-2.36844
-2.3775
-2.38647
-2.39529
-2.40389
-2.41223
-2.42027
-2.42797
-2.43531
-2.44227
-2.44885
-2.45503
-2.46084
-2.46628
-2.47138
-2.47618
-2.48073
-2.48509
-2.48934
-2.49356
-2.49793
-2.50268
-2.50776
-2.51206
-2.51351
-2.51704
-2.55676
-2.6925
-2.67101
-4.28129
-4.2183
-4.16037
-4.11639
-4.08308
-4.05738
-4.03787
-4.02374
-4.0143
-4.00892
-4.00703
-4.00812
-4.01178
-4.01764
-4.02539
-4.03474
-4.04547
-4.05736
-4.07024
-4.08397
-4.0984
-4.11344
-4.129
-4.145
-4.16139
-4.17812
-4.19517
-4.21253
-4.23019
-4.24818
-4.26651
-4.28524
-4.30443
-4.32415
-4.34451
-4.36562
-4.38766
-4.41076
-4.43518
-4.46115
-4.48907
-4.51928
-4.5518
-4.58549
-4.62027
-4.66851
-4.7712
-4.9468
-4.88195
-2.88806
-0.241984
-0.635168
-1.02927
-1.36813
-1.66336
-1.92901
-2.17107
-2.3922
-2.59451
-2.78
-2.95049
-3.1075
-3.25233
-3.38607
-3.50967
-3.62392
-3.72951
-3.82701
-3.91692
-3.99966
-4.07559
-4.14498
-4.20809
-4.2651
-4.31616
-4.36137
-4.40078
-4.43441
-4.46221
-4.48412
-4.5
-4.50965
-4.51284
-4.50923
-4.49842
-4.47992
-4.45311
-4.41725
-4.37146
-4.31467
-4.24558
-4.16278
-4.06466
-3.94903
-3.81094
-3.64097
-3.43676
-3.25309
-3.24815
-2.67997
-1.07778
-1.07805
-1.07832
-1.0786
-1.07889
-1.07919
-1.0795
-1.07981
-1.08013
-1.08047
-1.08081
-1.08116
-1.08152
-1.08189
-1.08227
-1.08266
-1.08307
-1.08348
-1.08391
-1.08435
-1.0848
-1.08526
-1.08574
-1.08622
-1.08672
-1.08724
-1.08777
-1.08831
-1.08886
-1.08943
-1.09002
-1.09061
-1.09123
-1.09185
-1.0925
-1.09315
-1.09383
-1.09452
-1.09522
-1.09594
-1.09668
-1.09743
-1.0982
-1.09899
-1.09979
-1.10061
-1.10145
-1.1023
-1.10317
-1.10406
-1.10388
-1.10403
-1.10419
-1.10437
-1.10455
-1.10475
-1.10496
-1.10519
-1.10542
-1.10567
-1.10593
-1.1062
-1.10648
-1.10678
-1.10709
-1.10742
-1.10775
-1.10811
-1.10847
-1.10885
-1.10924
-1.10965
-1.11007
-1.1105
-1.11095
-1.11142
-1.1119
-1.11239
-1.1129
-1.11342
-1.11396
-1.11451
-1.11508
-1.11567
-1.11627
-1.11688
-1.11751
-1.11816
-1.11882
-1.1195
-1.12019
-1.1209
-1.12163
-1.12237
-1.12313
-1.12391
-1.1247
-1.1255
-1.12633
-1.12717
-1.12653
-1.12678
-1.12703
-1.12729
-1.12756
-1.12784
-1.12813
-1.12843
-1.12874
-1.12905
-1.12938
-1.12972
-1.13007
-1.13043
-1.13079
-1.13118
-1.13157
-1.13197
-1.13238
-1.13281
-1.13325
-1.1337
-1.13416
-1.13463
-1.13512
-1.13562
-1.13613
-1.13665
-1.13719
-1.13774
-1.1383
-1.13887
-1.13946
-1.14007
-1.14068
-1.14131
-1.14195
-1.14261
-1.14328
-1.14396
-1.14466
-1.14537
-1.1461
-1.14683
-1.14759
-1.14836
-1.14914
-1.14993
-1.15074
-1.15157
-1.15158
-1.15183
-1.15209
-1.15236
-1.15264
-1.15292
-1.15322
-1.15354
-1.15386
-1.15419
-1.15454
-1.1549
-1.15527
-1.15565
-1.15604
-1.15645
-1.15687
-1.1573
-1.15774
-1.15819
-1.15866
-1.15914
-1.15963
-1.16013
-1.16064
-1.16117
-1.16171
-1.16226
-1.16283
-1.16341
-1.164
-1.1646
-1.16522
-1.16584
-1.16648
-1.16714
-1.1678
-1.16848
-1.16917
-1.16987
-1.17059
-1.17132
-1.17206
-1.17281
-1.17358
-1.17435
-1.17514
-1.17595
-1.17676
-1.17759
-1.17775
-1.17803
-1.17832
-1.17863
-1.17895
-1.17928
-1.17962
-1.17998
-1.18036
-1.18074
-1.18114
-1.18156
-1.18198
-1.18242
-1.18288
-1.18334
-1.18382
-1.18431
-1.18481
-1.18533
-1.18585
-1.18639
-1.18694
-1.18751
-1.18808
-1.18867
-1.18926
-1.18987
-1.19049
-1.19112
-1.19177
-1.19242
-1.19308
-1.19376
-1.19445
-1.19514
-1.19585
-1.19657
-1.1973
-1.19804
-1.19879
-1.19955
-1.20032
-1.2011
-1.20189
-1.20269
-1.2035
-1.20432
-1.20515
-1.20599
-1.20847
-1.20868
-1.2089
-1.20913
-1.20938
-1.20964
-1.20991
-1.21021
-1.21052
-1.21085
-1.21121
-1.21158
-1.21197
-1.21237
-1.2128
-1.21324
-1.2137
-1.21418
-1.21467
-1.21517
-1.2157
-1.21623
-1.21679
-1.21735
-1.21793
-1.21853
-1.21914
-1.21976
-1.22039
-1.22104
-1.2217
-1.22238
-1.22306
-1.22376
-1.22447
-1.22519
-1.22592
-1.22666
-1.22742
-1.22818
-1.22896
-1.22974
-1.23054
-1.23134
-1.23216
-1.23298
-1.23381
-1.23465
-1.2355
-1.23636
-1.24275
-1.2429
-1.24306
-1.24322
-1.24339
-1.24357
-1.24377
-1.24398
-1.24421
-1.24447
-1.24475
-1.24505
-1.24537
-1.24572
-1.24608
-1.24647
-1.24688
-1.24731
-1.24776
-1.24823
-1.24872
-1.24923
-1.24975
-1.2503
-1.25086
-1.25144
-1.25203
-1.25264
-1.25327
-1.25391
-1.25457
-1.25524
-1.25592
-1.25662
-1.25733
-1.25806
-1.25879
-1.25954
-1.2603
-1.26107
-1.26185
-1.26264
-1.26344
-1.26424
-1.26506
-1.26589
-1.26672
-1.26756
-1.26841
-1.26927
-1.2763
-1.27629
-1.27643
-1.27667
-1.27694
-1.27721
-1.27747
-1.27774
-1.27802
-1.27832
-1.27863
-1.27895
-1.27929
-1.27965
-1.28003
-1.28043
-1.28085
-1.28129
-1.28175
-1.28222
-1.28272
-1.28323
-1.28376
-1.28431
-1.28487
-1.28545
-1.28605
-1.28666
-1.28729
-1.28793
-1.28859
-1.28926
-1.28994
-1.29064
-1.29135
-1.29207
-1.2928
-1.29354
-1.2943
-1.29506
-1.29584
-1.29662
-1.29741
-1.29822
-1.29903
-1.29984
-1.30067
-1.3015
-1.30234
-1.30318
-1.31333
-1.31324
-1.31323
-1.31324
-1.31329
-1.31345
-1.31366
-1.31389
-1.3141
-1.31433
-1.31456
-1.3148
-1.31507
-1.31535
-1.31565
-1.31598
-1.31632
-1.31669
-1.31708
-1.3175
-1.31793
-1.31839
-1.31886
-1.31936
-1.31988
-1.32041
-1.32096
-1.32153
-1.32212
-1.32272
-1.32334
-1.32397
-1.32462
-1.32528
-1.32596
-1.32664
-1.32734
-1.32806
-1.32878
-1.32952
-1.33026
-1.33102
-1.33178
-1.33255
-1.33334
-1.33412
-1.33492
-1.33573
-1.33654
-1.33735
-1.30409
-1.328
-1.34373
-1.34817
-1.34911
-1.34934
-1.34939
-1.34946
-1.34959
-1.34974
-1.34988
-1.35004
-1.3502
-1.35039
-1.35059
-1.35082
-1.35108
-1.35135
-1.35166
-1.35199
-1.35234
-1.35272
-1.35312
-1.35355
-1.35399
-1.35446
-1.35495
-1.35546
-1.35599
-1.35654
-1.3571
-1.35768
-1.35828
-1.35889
-1.35952
-1.36016
-1.36082
-1.36149
-1.36217
-1.36286
-1.36357
-1.36428
-1.36501
-1.36574
-1.36649
-1.36724
-1.368
-1.36877
-1.36954
-1.37032
-1.35867
-1.2891
-1.32947
-1.36204
-1.37614
-1.38066
-1.38193
-1.38223
-1.3823
-1.38235
-1.38242
-1.3825
-1.3826
-1.38271
-1.38284
-1.38299
-1.38317
-1.38337
-1.38361
-1.38387
-1.38416
-1.38447
-1.38482
-1.38519
-1.38558
-1.386
-1.38644
-1.38691
-1.38739
-1.3879
-1.38842
-1.38896
-1.38952
-1.39009
-1.39069
-1.39129
-1.39191
-1.39254
-1.39319
-1.39385
-1.39452
-1.3952
-1.39589
-1.39659
-1.39729
-1.39801
-1.39873
-1.39946
-1.4002
-1.40094
-0.901637
-0.9362
-1.05393
-1.28803
-1.3861
-1.40606
-1.41005
-1.4113
-1.41172
-1.41179
-1.41174
-1.41169
-1.41166
-1.41166
-1.41168
-1.41172
-1.4118
-1.41191
-1.41205
-1.41223
-1.41245
-1.4127
-1.41298
-1.4133
-1.41364
-1.41402
-1.41442
-1.41485
-1.4153
-1.41578
-1.41627
-1.41679
-1.41732
-1.41787
-1.41844
-1.41902
-1.41962
-1.42023
-1.42085
-1.42149
-1.42213
-1.42279
-1.42346
-1.42413
-1.42481
-1.4255
-1.4262
-1.4269
-1.42761
-1.42832
2.101
1.23895
0.0311997
-1.09438
-1.40002
-1.43157
-1.43469
-1.43542
-1.43558
-1.43557
-1.4355
-1.4354
-1.4353
-1.43522
-1.43517
-1.43516
-1.43518
-1.43525
-1.43535
-1.4355
-1.43569
-1.43592
-1.43619
-1.4365
-1.43685
-1.43724
-1.43766
-1.4381
-1.43858
-1.43907
-1.43959
-1.44014
-1.44069
-1.44127
-1.44186
-1.44247
-1.44309
-1.44372
-1.44436
-1.44501
-1.44567
-1.44633
-1.44701
-1.44769
-1.44838
-1.44907
-1.44976
-1.45046
-1.45116
-1.45187
1.54026
1.46145
0.564886
-1.0275
-1.42187
-1.45187
-1.45366
-1.45427
-1.45447
-1.4545
-1.45443
-1.45436
-1.45428
-1.45421
-1.45416
-1.45415
-1.45416
-1.45422
-1.45431
-1.45445
-1.45464
-1.45487
-1.45515
-1.45547
-1.45584
-1.45625
-1.4567
-1.45718
-1.4577
-1.45824
-1.45881
-1.4594
-1.46001
-1.46064
-1.46129
-1.46195
-1.46262
-1.4633
-1.464
-1.46469
-1.4654
-1.4661
-1.46682
-1.46753
-1.46825
-1.46897
-1.46969
-1.47042
-1.47114
-1.47186
0.68083
0.613265
-0.0575032
-1.20107
-1.44325
-1.45655
-1.45689
-1.46035
-1.46705
-1.46685
-1.47287
-1.47254
-1.47232
-1.47214
-1.47202
-1.47195
-1.47194
-1.47195
-1.47199
-1.47207
-1.47219
-1.47235
-1.47255
-1.47279
-1.47308
-1.47341
-1.47378
-1.47419
-1.47464
-1.47513
-1.47565
-1.4762
-1.47677
-1.47738
-1.478
-1.47864
-1.4793
-1.47998
-1.48067
-1.48136
-1.48207
-1.48278
-1.4835
-1.48422
-1.48495
-1.48567
-1.4864
-1.48713
-1.48786
-1.48858
-0.77644
-0.903631
-1.0972
-1.424
-1.48541
-1.48869
-1.48874
-1.48873
-1.48901
-1.48876
-1.48911
-1.48891
-1.48828
-1.48813
-1.49011
-1.49031
-1.49045
-1.49053
-1.4906
-1.49067
-1.49077
-1.49089
-1.49104
-1.49119
-1.49137
-1.49158
-1.49182
-1.49208
-1.49237
-1.49269
-1.49304
-1.49342
-1.49383
-1.49427
-1.49473
-1.49521
-1.49572
-1.49625
-1.49681
-1.49737
-1.49796
-1.49856
-1.49917
-1.4998
-1.50043
-1.50107
-1.50172
-1.50238
-1.50304
-1.5037
-2.1565
-1.71461
-1.53126
-1.51209
-1.5122
-1.51231
-1.51211
-1.51213
-1.51215
-1.51213
-1.51209
-1.51212
-1.50643
-1.50906
-1.50963
-1.50962
-1.50952
-1.50941
-1.50918
-1.5089
-1.5089
-1.50819
-1.50782
-1.51239
-1.51242
-1.51239
-1.51233
-1.51227
-1.51225
-1.51225
-1.51228
-1.51233
-1.51241
-1.51252
-1.51265
-1.51281
-1.513
-1.51321
-1.51344
-1.5137
-1.51399
-1.5143
-1.51463
-1.51498
-1.51536
-1.51575
-1.51616
-1.51659
-1.51704
-1.5175
-1.71144
-1.63168
-1.53777
-1.53167
-1.53172
-1.53182
-1.53184
-1.53187
-1.53188
-1.53188
-1.53179
-1.53189
-1.53194
-1.53203
-1.53207
-1.5321
-1.53211
-1.53211
-1.53204
-1.53187
-1.53179
-1.53228
-1.53255
-1.53271
-1.53277
-1.53277
-1.53276
-1.53273
-1.5327
-1.53266
-1.53262
-1.53258
-1.53253
-1.53248
-1.53243
-1.53238
-1.53234
-1.53231
-1.53229
-1.53227
-1.53227
-1.53228
-1.53231
-1.53236
-1.53242
-1.53249
-1.53259
-1.53271
-1.53285
-1.53301
-1.58357
-1.54568
-1.55281
-1.55378
-1.55376
-1.55374
-1.55371
-1.55371
-1.55372
-1.55366
-1.55364
-1.5536
-1.55361
-1.55358
-1.5536
-1.55358
-1.55355
-1.55351
-1.55347
-1.55346
-1.55346
-1.55342
-1.55338
-1.55334
-1.5533
-1.55324
-1.55318
-1.55311
-1.55302
-1.55292
-1.5528
-1.55266
-1.55252
-1.55236
-1.55219
-1.552
-1.55182
-1.55162
-1.55142
-1.55122
-1.55101
-1.55078
-1.55051
-1.55029
-1.55054
-1.5504
-1.55025
-1.5501
-1.54996
-1.54983
-1.57707
-1.57338
-1.57367
-1.57408
-1.57421
-1.57429
-1.57435
-1.57441
-1.57446
-1.57449
-1.5745
-1.57455
-1.57457
-1.57458
-1.57458
-1.57458
-1.57457
-1.57456
-1.57453
-1.57451
-1.57447
-1.57443
-1.57438
-1.57433
-1.57426
-1.57409
-1.57399
-1.57412
-1.57397
-1.57385
-1.5737
-1.57363
-1.57348
-1.57331
-1.57288
-1.57289
-1.57223
-1.57265
-1.57258
-1.57234
-1.57211
-1.57188
-1.57157
-1.57144
-1.57123
-1.57101
-1.57073
-1.57052
-1.57043
-1.57025
-1.10475
-1.10524
-1.10573
-1.10624
-1.10675
-1.10727
-1.1078
-1.10833
-1.10888
-1.10943
-1.10999
-1.11056
-1.11115
-1.11173
-1.11233
-1.11294
-1.11356
-1.11419
-1.11483
-1.11547
-1.11613
-1.1168
-1.11748
-1.11817
-1.11887
-1.11958
-1.12031
-1.12104
-1.12179
-1.12254
-1.12331
-1.1241
-1.12489
-1.12569
-1.12651
-1.12734
-1.12819
-1.12904
-1.12991
-1.1308
-1.13169
-1.1326
-1.13353
-1.13447
-1.13542
-1.13638
-1.13737
-1.13836
-1.13937
-1.1404
-1.14144
-1.1425
-1.14357
-1.14466
-1.14576
-1.14688
-1.14802
-1.14917
-1.15034
-1.15153
-1.15273
-1.15395
-1.15519
-1.15644
-1.15772
-1.15901
-1.16032
-1.16164
-1.16299
-1.16435
-1.16573
-1.16713
-1.16855
-1.16999
-1.17145
-1.17292
-1.17442
-1.17594
-1.17747
-1.17902
-1.1806
-1.18219
-1.18381
-1.18544
-1.18709
-1.18876
-1.19046
-1.19217
-1.1939
-1.19566
-1.19743
-1.19922
-1.20103
-1.20286
-1.20471
-1.20659
-1.20848
-1.21039
-1.21231
-1.21426
-1.21623
-1.21821
-1.22022
-1.22224
-1.22428
-1.22633
-1.2284
-1.2305
-1.2326
-1.23473
-1.23686
-1.23902
-1.24118
-1.24337
-1.24556
-1.24776
-1.24999
-1.25222
-1.25446
-1.25672
-1.25897
-1.26124
-1.26352
-1.26579
-1.2681
-1.27039
-1.27269
-1.27499
-1.27729
-1.27959
-1.2819
-1.2842
-1.28649
-1.28878
-1.29107
-1.29335
-1.29562
-1.29787
-1.30015
-1.30238
-1.3046
-1.3068
-1.30899
-1.31115
-1.3133
-1.31542
-1.31751
-1.31958
-1.32162
-1.32363
-1.3256
-1.32754
-1.32945
-1.33128
-1.33311
-1.33492
-1.33666
-1.33834
-1.33997
-1.34156
-1.34308
-1.34454
-1.34597
-1.3473
-1.3486
-1.34981
-1.35095
-1.35205
-1.35306
-1.354
-1.35486
-1.35564
-1.35634
-1.35693
-1.35746
-1.35791
-1.35826
-1.35852
-1.35869
-1.35875
-1.35873
-1.35858
-1.35836
-1.35804
-1.35761
-1.35708
-1.35644
-1.3557
-1.35485
-1.35389
-1.35282
-1.35163
-1.35043
-1.34905
-1.34755
-1.34597
-1.34428
-1.34249
-1.34057
-1.33861
-1.33653
-1.33437
-1.33212
-1.32978
-1.32736
-1.32484
-1.32231
-1.31968
-1.31698
-1.31418
-1.3114
-1.30853
-1.30562
-1.30266
-1.29964
-1.29658
-1.29353
-1.29041
-1.28728
-1.28415
-1.28097
-1.27777
-1.27456
-1.27133
-1.26808
-1.26482
-1.26154
-1.25825
-1.25495
-1.25163
-1.24829
-1.24494
-1.24157
-1.23818
-1.23477
-1.23135
-1.22791
-1.22445
-1.22097
-1.21748
-1.21397
-1.21044
-1.2069
-1.20335
-1.19979
-1.19622
-1.19266
-1.18909
-1.18553
-1.18198
-1.17845
-1.17494
-1.17145
-1.16799
-1.16456
-1.16118
-1.15785
-1.15456
-1.15133
-1.14816
-1.14505
-1.14202
-1.13906
-1.13617
-1.13337
-1.13066
-1.12803
-1.12548
-1.12303
-1.12067
-1.1184
-1.11622
-1.11415
-1.11216
-1.11027
-1.10848
-1.10677
-1.10516
-1.10365
-1.10222
-1.10088
-1.09963
-1.09847
-1.09739
-1.0964
-1.09548
-1.09465
-1.09389
-1.09321
-1.0926
-1.09207
-1.0916
-1.0912
-1.09088
-1.09062
-1.09044
-1.09032
-1.09027
-1.09029
-1.09043
-1.12783
-1.12829
-1.12876
-1.12924
-1.12972
-1.13022
-1.13072
-1.13123
-1.13175
-1.13227
-1.1328
-1.13335
-1.1339
-1.13446
-1.13502
-1.1356
-1.13619
-1.13678
-1.13738
-1.138
-1.13862
-1.13925
-1.13989
-1.14055
-1.14121
-1.14188
-1.14256
-1.14325
-1.14396
-1.14467
-1.14539
-1.14613
-1.14688
-1.14763
-1.1484
-1.14918
-1.14998
-1.15078
-1.1516
-1.15242
-1.15326
-1.15412
-1.15498
-1.15586
-1.15675
-1.15765
-1.15857
-1.1595
-1.16044
-1.1614
-1.16237
-1.16335
-1.16435
-1.16536
-1.16639
-1.16743
-1.16849
-1.16956
-1.17064
-1.17175
-1.17286
-1.17399
-1.17514
-1.1763
-1.17748
-1.17867
-1.17988
-1.18111
-1.18235
-1.18361
-1.18488
-1.18618
-1.18748
-1.18881
-1.19015
-1.19151
-1.19289
-1.19428
-1.19569
-1.19712
-1.19857
-1.20003
-1.20151
-1.20301
-1.20453
-1.20606
-1.20762
-1.20919
-1.21078
-1.21238
-1.21401
-1.21565
-1.21731
-1.21898
-1.22068
-1.22239
-1.22412
-1.22587
-1.22764
-1.22942
-1.23122
-1.23304
-1.23487
-1.23672
-1.23859
-1.24047
-1.24237
-1.24429
-1.24622
-1.24816
-1.25012
-1.2521
-1.25408
-1.25609
-1.2581
-1.26013
-1.26217
-1.26422
-1.26628
-1.26835
-1.27043
-1.27253
-1.27463
-1.27673
-1.27885
-1.28097
-1.28309
-1.28522
-1.28736
-1.28949
-1.29163
-1.29377
-1.2959
-1.29804
-1.30017
-1.3023
-1.30442
-1.30653
-1.30864
-1.31074
-1.31283
-1.3149
-1.31696
-1.31901
-1.32104
-1.32305
-1.32503
-1.327
-1.32894
-1.33086
-1.33275
-1.33461
-1.33646
-1.33825
-1.34001
-1.34173
-1.34341
-1.34506
-1.34665
-1.3482
-1.34971
-1.35118
-1.35259
-1.35393
-1.35523
-1.35646
-1.35764
-1.35875
-1.35979
-1.36077
-1.36168
-1.36249
-1.36327
-1.36396
-1.36456
-1.36509
-1.36554
-1.36589
-1.36618
-1.36635
-1.36645
-1.36645
-1.36633
-1.36622
-1.36594
-1.36557
-1.36509
-1.36452
-1.36384
-1.36307
-1.36217
-1.36123
-1.36016
-1.35898
-1.35771
-1.35633
-1.35485
-1.35326
-1.35158
-1.34986
-1.34799
-1.34604
-1.344
-1.34186
-1.33964
-1.33734
-1.33496
-1.3325
-1.32999
-1.3274
-1.32474
-1.32202
-1.31924
-1.31638
-1.31353
-1.31061
-1.30763
-1.30462
-1.30157
-1.29848
-1.29534
-1.29222
-1.28905
-1.28586
-1.28264
-1.27941
-1.27615
-1.27286
-1.26959
-1.26628
-1.26296
-1.25962
-1.25625
-1.25289
-1.24951
-1.2461
-1.2427
-1.23926
-1.23582
-1.23236
-1.22888
-1.22539
-1.22189
-1.21838
-1.21484
-1.21132
-1.20779
-1.20425
-1.20072
-1.19719
-1.19366
-1.19013
-1.18663
-1.18315
-1.17968
-1.17626
-1.17286
-1.1695
-1.16617
-1.1629
-1.15967
-1.1565
-1.15339
-1.15035
-1.14737
-1.14447
-1.14164
-1.1389
-1.13624
-1.13366
-1.13118
-1.12879
-1.12649
-1.12429
-1.12218
-1.12018
-1.11827
-1.11647
-1.11477
-1.11318
-1.11168
-1.11029
-1.10899
-1.1078
-1.10671
-1.10571
-1.10481
-1.104
-1.1033
-1.10267
-1.10215
-1.1017
-1.10134
-1.10106
-1.10087
-1.10075
-1.10071
-1.10075
-1.10085
-1.10106
-1.15221
-1.15267
-1.15313
-1.1536
-1.15407
-1.15455
-1.15504
-1.15554
-1.15604
-1.15655
-1.15707
-1.1576
-1.15813
-1.15867
-1.15922
-1.15978
-1.16034
-1.16091
-1.16149
-1.16208
-1.16268
-1.16328
-1.1639
-1.16452
-1.16515
-1.16579
-1.16644
-1.1671
-1.16777
-1.16845
-1.16913
-1.16983
-1.17053
-1.17125
-1.17197
-1.17271
-1.17345
-1.17421
-1.17497
-1.17575
-1.17653
-1.17733
-1.17814
-1.17896
-1.17979
-1.18063
-1.18148
-1.18234
-1.18322
-1.1841
-1.185
-1.18591
-1.18683
-1.18777
-1.18871
-1.18967
-1.19064
-1.19162
-1.19262
-1.19363
-1.19465
-1.19568
-1.19673
-1.19779
-1.19886
-1.19994
-1.20104
-1.20216
-1.20328
-1.20442
-1.20558
-1.20675
-1.20793
-1.20912
-1.21033
-1.21156
-1.2128
-1.21405
-1.21531
-1.2166
-1.21789
-1.2192
-1.22053
-1.22187
-1.22322
-1.22459
-1.22598
-1.22737
-1.22879
-1.23022
-1.23166
-1.23312
-1.23459
-1.23608
-1.23758
-1.2391
-1.24063
-1.24218
-1.24374
-1.24531
-1.2469
-1.2485
-1.25012
-1.25175
-1.2534
-1.25506
-1.25673
-1.25841
-1.26011
-1.26182
-1.26355
-1.26528
-1.26703
-1.26879
-1.27056
-1.27234
-1.27413
-1.27594
-1.27775
-1.27957
-1.2814
-1.28324
-1.28509
-1.28694
-1.2888
-1.29067
-1.29254
-1.29441
-1.29629
-1.29818
-1.30006
-1.30195
-1.30384
-1.30573
-1.30761
-1.3095
-1.31138
-1.31326
-1.31513
-1.31699
-1.31885
-1.3207
-1.32254
-1.32437
-1.32618
-1.32799
-1.32977
-1.33154
-1.33329
-1.33504
-1.33675
-1.33844
-1.3401
-1.34173
-1.34334
-1.34492
-1.34646
-1.34797
-1.34945
-1.35089
-1.35229
-1.35365
-1.35496
-1.35623
-1.35745
-1.35863
-1.35975
-1.36082
-1.36183
-1.36278
-1.36367
-1.36456
-1.36533
-1.36604
-1.36668
-1.36725
-1.36775
-1.36818
-1.36853
-1.3688
-1.369
-1.36912
-1.36916
-1.36911
-1.36898
-1.36877
-1.36846
-1.36807
-1.3676
-1.36702
-1.36633
-1.3656
-1.36476
-1.36382
-1.36282
-1.36167
-1.36046
-1.35916
-1.35777
-1.35629
-1.35472
-1.35306
-1.35131
-1.34949
-1.34757
-1.34558
-1.34353
-1.34138
-1.33916
-1.33687
-1.3345
-1.33207
-1.32957
-1.32701
-1.3244
-1.32173
-1.31901
-1.31624
-1.31343
-1.31057
-1.30767
-1.30474
-1.30176
-1.29876
-1.29572
-1.29266
-1.28956
-1.28645
-1.28331
-1.28014
-1.27696
-1.27372
-1.27053
-1.26728
-1.26403
-1.26075
-1.25745
-1.25413
-1.25081
-1.24748
-1.24411
-1.24077
-1.2374
-1.23402
-1.23062
-1.22723
-1.22383
-1.22042
-1.217
-1.21361
-1.21021
-1.20681
-1.20342
-1.20006
-1.1967
-1.19337
-1.19005
-1.18678
-1.18353
-1.18032
-1.17714
-1.17403
-1.17095
-1.16793
-1.16496
-1.16207
-1.15923
-1.15646
-1.15378
-1.15117
-1.14864
-1.14619
-1.14382
-1.14156
-1.13939
-1.13731
-1.13533
-1.13344
-1.13166
-1.12998
-1.12841
-1.12694
-1.12557
-1.12431
-1.12315
-1.12209
-1.12113
-1.12028
-1.11952
-1.11886
-1.11831
-1.11784
-1.11746
-1.11716
-1.11695
-1.11682
-1.11677
-1.11678
-1.11686
-1.11702
-1.17823
-1.17869
-1.17915
-1.17962
-1.18009
-1.18057
-1.18106
-1.18155
-1.18205
-1.18256
-1.18307
-1.18359
-1.18411
-1.18465
-1.18518
-1.18573
-1.18628
-1.18684
-1.18741
-1.18798
-1.18857
-1.18915
-1.18975
-1.19035
-1.19096
-1.19158
-1.19221
-1.19284
-1.19348
-1.19413
-1.19479
-1.19546
-1.19613
-1.19681
-1.1975
-1.1982
-1.19891
-1.19962
-1.20035
-1.20108
-1.20182
-1.20257
-1.20333
-1.20409
-1.20487
-1.20565
-1.20645
-1.20725
-1.20806
-1.20889
-1.20972
-1.21056
-1.21141
-1.21227
-1.21314
-1.21401
-1.2149
-1.2158
-1.21671
-1.21763
-1.21855
-1.21949
-1.22044
-1.2214
-1.22237
-1.22334
-1.22433
-1.22533
-1.22634
-1.22736
-1.22839
-1.22943
-1.23048
-1.23155
-1.23262
-1.2337
-1.2348
-1.2359
-1.23702
-1.23814
-1.23928
-1.24043
-1.24159
-1.24276
-1.24394
-1.24513
-1.24633
-1.24754
-1.24877
-1.25
-1.25125
-1.25251
-1.25377
-1.25505
-1.25634
-1.25764
-1.25895
-1.26027
-1.2616
-1.26294
-1.26429
-1.26566
-1.26703
-1.26841
-1.2698
-1.27121
-1.27262
-1.27404
-1.27547
-1.27691
-1.27836
-1.27982
-1.28128
-1.28276
-1.28424
-1.28573
-1.28723
-1.28873
-1.29025
-1.29177
-1.29329
-1.29482
-1.29636
-1.2979
-1.29945
-1.301
-1.30256
-1.30412
-1.30568
-1.30725
-1.30882
-1.31038
-1.31195
-1.31352
-1.31509
-1.31666
-1.31822
-1.31979
-1.32134
-1.3229
-1.32445
-1.32599
-1.32753
-1.32905
-1.33057
-1.33208
-1.33358
-1.33506
-1.33654
-1.33799
-1.33943
-1.34086
-1.34226
-1.34365
-1.34501
-1.34636
-1.34767
-1.34897
-1.35023
-1.35147
-1.35268
-1.35385
-1.355
-1.3561
-1.35717
-1.35821
-1.3592
-1.36015
-1.36106
-1.36192
-1.36274
-1.36348
-1.36424
-1.36491
-1.36552
-1.36607
-1.36657
-1.36701
-1.36738
-1.3677
-1.36795
-1.36814
-1.36825
-1.3683
-1.36828
-1.36819
-1.36803
-1.36778
-1.36747
-1.36712
-1.36665
-1.3661
-1.36548
-1.36479
-1.36401
-1.36315
-1.36221
-1.36119
-1.3601
-1.35892
-1.35767
-1.35634
-1.35493
-1.35344
-1.35188
-1.35019
-1.3485
-1.34672
-1.34486
-1.34294
-1.34095
-1.33889
-1.33676
-1.33458
-1.33236
-1.33005
-1.32769
-1.32528
-1.32282
-1.3203
-1.31774
-1.31513
-1.31248
-1.30978
-1.30705
-1.30428
-1.30148
-1.29863
-1.29577
-1.29288
-1.28996
-1.287
-1.28404
-1.28104
-1.27801
-1.27497
-1.2719
-1.26881
-1.2657
-1.26259
-1.25946
-1.25631
-1.25314
-1.24996
-1.24679
-1.2436
-1.24041
-1.2372
-1.234
-1.2308
-1.2276
-1.2244
-1.22121
-1.21803
-1.21487
-1.2117
-1.20859
-1.20548
-1.2024
-1.19936
-1.19634
-1.19336
-1.19042
-1.18753
-1.18468
-1.18189
-1.17915
-1.17648
-1.17386
-1.17132
-1.16885
-1.16645
-1.16413
-1.16189
-1.15973
-1.15768
-1.1557
-1.15383
-1.15204
-1.15036
-1.14876
-1.14727
-1.14589
-1.14461
-1.14343
-1.14235
-1.14137
-1.1405
-1.13974
-1.13907
-1.1385
-1.13803
-1.13765
-1.13737
-1.13717
-1.13706
-1.13702
-1.13705
-1.13714
-1.13728
-1.20664
-1.20711
-1.20758
-1.20805
-1.20853
-1.20902
-1.20951
-1.21
-1.2105
-1.21101
-1.21152
-1.21204
-1.21257
-1.2131
-1.21363
-1.21418
-1.21472
-1.21528
-1.21584
-1.2164
-1.21697
-1.21755
-1.21813
-1.21872
-1.21932
-1.21992
-1.22053
-1.22115
-1.22177
-1.22239
-1.22303
-1.22367
-1.22431
-1.22497
-1.22563
-1.22629
-1.22697
-1.22765
-1.22833
-1.22902
-1.22972
-1.23043
-1.23114
-1.23186
-1.23259
-1.23332
-1.23406
-1.2348
-1.23556
-1.23632
-1.23709
-1.23786
-1.23864
-1.23943
-1.24022
-1.24102
-1.24183
-1.24265
-1.24347
-1.2443
-1.24513
-1.24598
-1.24683
-1.24768
-1.24855
-1.24942
-1.2503
-1.25118
-1.25207
-1.25297
-1.25388
-1.25479
-1.25571
-1.25663
-1.25757
-1.25851
-1.25945
-1.26041
-1.26137
-1.26233
-1.26331
-1.26429
-1.26527
-1.26627
-1.26727
-1.26828
-1.26929
-1.27031
-1.27134
-1.27237
-1.27341
-1.27445
-1.27551
-1.27656
-1.27763
-1.2787
-1.27978
-1.28086
-1.28195
-1.28304
-1.28414
-1.28525
-1.28636
-1.28748
-1.2886
-1.28973
-1.29086
-1.292
-1.29314
-1.29429
-1.29544