/*--------------------------------*- C++ -*----------------------------------*\
| =========                 |                                                 |
| \\      /  F ield         | OpenFOAM: The Open Source CFD Toolbox           |
|  \\    /   O peration     | Version:  2.4.0                                 |
|   \\  /    A nd           | Web:      www.OpenFOAM.org                      |
|    \\/     M anipulation  |                                                 |
\*---------------------------------------------------------------------------*/
FoamFile
{
    version     2.0;
    format      ascii;
    class       volScalarField;
    location    "4.7";
    object      p_rgh;
}
// * * * * * * * * * * * * * * * * * * * * * * * * * * * * * * * * * * * * * //

dimensions      [1 -1 -2 0 0 0 0];

internalField   nonuniform List<scalar> 
8000
(
76.5319
76.3996
76.3138
76.2468
75.6652
73.4669
63.7183
1.3321
0.305465
0.329353
0.295526
0.281022
0.281027
0.281113
0.280672
0.280196
0.279893
0.279735
0.279676
0.279657
0.279656
0.279667
0.279688
0.279713
0.279734
0.279736
0.279717
0.279676
0.279613
0.279529
0.279425
0.279304
0.279168
0.27902
0.278862
0.278694
0.278518
0.278334
0.278144
0.277948
0.277745
0.277538
0.277324
0.277105
0.276881
0.276651
0.276415
0.276174
0.275926
0.275672
69.3906
69.4799
69.5592
69.6273
69.6526
69.3462
68.1597
16.5876
1.65628
1.62224
0.0816556
0.198311
0.240624
0.263457
0.273692
0.2748
0.277121
0.278081
0.277534
0.276956
0.276692
0.276357
0.275888
0.275369
0.274862
0.274421
0.274022
0.273707
0.273398
0.273179
0.273018
0.2729
0.272818
0.272762
0.272726
0.272704
0.272688
0.272673
0.272654
0.272629
0.272595
0.272551
0.272498
0.272434
0.272359
0.272273
0.272177
0.27207
0.271952
0.271822
72.7326
72.9888
73.2541
73.4987
73.7435
73.9861
73.9953
73.2217
71.8205
70.801
12.9231
-1.89674
-0.459867
-0.359185
0.239222
0.199857
0.125977
0.1084
0.193208
0.249596
0.253644
0.261347
0.272594
0.279982
0.282394
0.280557
0.277691
0.276303
0.276063
0.276128
0.276085
0.275831
0.275455
0.275102
0.274812
0.274568
0.274341
0.27412
0.273903
0.273687
0.27348
0.27328
0.273084
0.272889
0.272693
0.272492
0.272286
0.272074
0.271854
0.271627
84.9858
85.0321
85.1111
85.2118
85.3326
85.4774
85.6473
85.8067
85.8641
85.8949
85.6319
85.5137
86.027
86.3218
69.4277
63.374
36.0487
10.4482
0.227143
0.286693
0.818974
0.762849
0.556856
0.38858
0.307708
0.276039
0.265247
0.266918
0.28407
0.298901
0.297858
0.286061
0.276488
0.272834
0.272188
0.272009
0.27171
0.271457
0.271277
0.271063
0.270819
0.270603
0.270413
0.270227
0.270032
0.269828
0.269617
0.2694
0.269177
0.268946
82.4441
82.4871
82.525
82.5589
82.5926
82.6268
82.6619
82.6968
82.732
82.7704
82.825
82.892
82.9492
83.0097
83.0126
83.0122
83.018
83.0852
83.3156
83.3904
83.5672
61.2768
44.5335
24.9744
6.81515
0.433238
1.2801
1.55436
1.4012
1.10889
0.732531
0.439032
0.321811
0.321404
0.322329
0.306584
0.28872
0.277806
0.272405
0.269332
0.267678
0.267044
0.266908
0.266717
0.266487
0.266234
0.265967
0.265707
0.265442
0.265177
89.2907
89.3034
89.3236
89.3449
89.3653
89.3848
89.4034
89.421
89.4374
89.4527
89.467
89.48
89.4915
89.502
89.5154
89.5345
89.5748
89.6572
89.7886
89.919
90.0862
90.21
90.3704
90.4989
90.4157
90.0953
88.2636
73.1223
53.8805
27.1272
5.79831
3.38719
3.64913
3.34665
2.23602
1.14857
0.529586
0.386181
0.335502
0.297487
0.273292
0.264195
0.261944
0.260853
0.259384
0.258211
0.257591
0.257227
0.257014
0.256799
90.899
90.8841
90.8679
90.8562
90.8498
90.8484
90.8515
90.8592
90.8715
90.8883
90.9097
90.9355
90.9658
91.0006
91.0399
91.0838
91.1324
91.1862
91.2446
91.3064
91.3702
91.4423
91.5304
91.6461
91.7829
91.9172
92.0847
92.2319
92.3311
92.2305
91.7196
83.7546
81.1593
56.2718
19.232
3.34821
3.89027
3.94343
2.62573
1.07426
0.445335
0.360207
0.335835
0.294444
0.26351
0.250819
0.24675
0.245418
0.244981
0.244791
94.1635
94.1494
94.1366
94.1273
94.1209
94.1171
94.1157
94.1168
94.1204
94.1264
94.1348
94.1458
94.1592
94.1752
94.1937
94.2148
94.2386
94.265
94.2939
94.3253
94.3589
94.3948
94.4328
94.4729
94.5147
94.5581
94.6052
94.6618
94.724
94.7773
94.8381
94.9176
95.0394
95.0422
94.6269
90.024
87.0761
69.3797
37.6498
8.70121
4.16382
4.09026
2.75768
1.05207
0.450404
0.319585
0.269693
0.24722
0.238109
0.2348
96.0478
96.0271
96.0059
95.9888
95.9755
95.9656
95.959
95.9555
95.9552
95.9581
95.9643
95.9737
95.9862
96.002
96.0209
96.0431
96.0684
96.0968
96.1284
96.1632
96.201
96.242
96.286
96.3331
96.3831
96.4361
96.4917
96.5501
96.611
96.6747
96.7413
96.8132
96.8905
96.9689
97.0427
97.1114
97.2353
97.3175
97.1845
93.6028
88.8768
73.7973
31.9596
7.07767
4.10857
2.32811
0.898567
0.429261
0.297162
0.245224
97.478
97.4605
97.4415
97.4245
97.4096
97.3965
97.385
97.375
97.3666
97.3598
97.3545
97.3508
97.3485
97.3478
97.3485
97.3506
97.3541
97.359
97.3652
97.3727
97.3814
97.3913
97.4023
97.4144
97.4274
97.4414
97.4563
97.472
97.4883
97.5053
97.5228
97.5406
97.5586
97.5769
97.5956
97.6157
97.6369
97.6565
97.6671
97.6659
97.697
97.7586
97.6859
90.259
81.1888
35.5334
7.11834
3.77855
1.44296
0.603563
99.1441
99.1165
99.0882
99.0637
99.0428
99.0248
99.0094
98.9966
98.9865
98.979
98.9741
98.9718
98.972
98.9748
98.9801
98.988
98.9984
99.0113
99.0266
99.0445
99.0648
99.0877
99.113
99.1407
99.171
99.2037
99.239
99.2767
99.3169
99.3597
99.405
99.4528
99.5033
99.5563
99.612
99.6704
99.7314
99.7952
99.8626
99.9342
100.008
100.075
100.139
100.222
100.386
100.456
94.079
67.2464
25.2571
9.77634
99.7909
99.7678
99.7428
99.7206
99.7011
99.6839
99.6686
99.6552
99.6439
99.6344
99.627
99.6214
99.6178
99.6161
99.6164
99.6185
99.6226
99.6287
99.6367
99.6467
99.6586
99.6726
99.6886
99.7067
99.7269
99.7493
99.7738
99.8006
99.8297
99.8611
99.895
99.9313
99.9703
100.012
100.056
100.103
100.154
100.207
100.263
100.323
100.386
100.453
100.525
100.601
100.671
100.728
100.806
100.819
97.9065
79.1604
100.477
100.461
100.445
100.431
100.418
100.407
100.397
100.388
100.381
100.374
100.369
100.365
100.363
100.361
100.361
100.362
100.364
100.367
100.372
100.378
100.384
100.392
100.401
100.411
100.422
100.435
100.448
100.462
100.477
100.493
100.51
100.528
100.547
100.567
100.587
100.608
100.63
100.653
100.676
100.7
100.724
100.749
100.775
100.8
100.826
100.853
100.879
100.899
100.917
100.85
100.745
100.737
100.729
100.721
100.714
100.708
100.702
100.696
100.691
100.687
100.683
100.679
100.677
100.674
100.672
100.671
100.67
100.669
100.669
100.669
100.67
100.671
100.673
100.675
100.677
100.68
100.683
100.687
100.69
100.694
100.699
100.703
100.707
100.712
100.717
100.721
100.726
100.73
100.735
100.739
100.742
100.746
100.749
100.751
100.752
100.753
100.751
100.774
100.756
100.774
101.032
101.028
101.024
101.02
101.016
101.013
101.011
101.009
101.007
101.005
101.004
101.004
101.004
101.004
101.004
101.005
101.006
101.008
101.01
101.013
101.016
101.019
101.022
101.027
101.031
101.036
101.041
101.046
101.052
101.059
101.065
101.073
101.08
101.088
101.096
101.105
101.114
101.123
101.133
101.143
101.153
101.164
101.175
101.187
101.198
101.21
101.22
101.246
101.26
101.258
101.411
101.412
101.415
101.417
101.419
101.42
101.422
101.423
101.423
101.424
101.424
101.424
101.423
101.423
101.422
101.421
101.419
101.418
101.416
101.414
101.412
101.41
101.407
101.405
101.402
101.399
101.396
101.392
101.389
101.385
101.381
101.377
101.373
101.368
101.364
101.359
101.353
101.348
101.342
101.336
101.329
101.322
101.315
101.307
101.299
101.29
101.28
101.263
101.271
101.25
101.331
101.339
101.347
101.353
101.359
101.365
101.37
101.375
101.379
101.383
101.386
101.389
101.391
101.393
101.395
101.396
101.397
101.397
101.398
101.397
101.397
101.396
101.395
101.394
101.393
101.391
101.389
101.387
101.385
101.383
101.38
101.378
101.375
101.372
101.37
101.367
101.363
101.36
101.357
101.354
101.351
101.347
101.344
101.34
101.337
101.336
101.34
101.331
101.262
101.093
102.244
102.267
102.294
102.315
102.331
102.343
102.351
102.357
102.36
102.361
102.36
102.357
102.353
102.348
102.342
102.335
102.327
102.319
102.31
102.302
102.292
102.283
102.274
102.265
102.257
102.248
102.24
102.232
102.224
102.217
102.21
102.203
102.197
102.191
102.186
102.18
102.176
102.171
102.167
102.163
102.158
102.154
102.149
102.144
102.14
102.138
102.134
102.091
101.958
92.7319
101.721
101.784
101.842
101.886
101.919
101.945
101.964
101.978
101.988
101.993
101.995
101.994
101.99
101.985
101.977
101.967
101.957
101.945
101.932
101.918
101.904
101.889
101.873
101.857
101.841
101.824
101.807
101.79
101.772
101.754
101.736
101.717
101.698
101.678
101.658
101.637
101.615
101.591
101.567
101.541
101.513
101.483
101.45
101.417
101.382
101.334
101.231
101.055
98.6189
33.0722
107.111
106.717
106.323
105.984
105.689
105.424
105.181
104.96
104.758
104.573
104.402
104.245
104.1
103.966
103.843
103.729
103.623
103.526
103.436
103.353
103.277
103.208
103.144
103.087
103.036
102.991
102.952
102.918
102.89
102.868
102.853
102.843
102.84
102.843
102.854
102.873
102.899
102.935
102.981
103.038
103.107
103.19
103.288
103.404
103.542
103.712
103.916
104.099
104.101
67.0107
0.275412
0.275145
0.27487
0.274588
0.274299
0.274002
0.273696
0.273382
0.273059
0.272727
0.272385
0.272034
0.271673
0.271302
0.27092
0.270527
0.270124
0.269709
0.269283
0.268844
0.268394
0.267932
0.267457
0.266969
0.266468
0.265954
0.265426
0.264885
0.26433
0.263761
0.263177
0.262579
0.261966
0.261339
0.260696
0.260038
0.259365
0.258676
0.257971
0.257251
0.256514
0.255761
0.254992
0.254206
0.253403
0.252584
0.251748
0.250894
0.250022
0.249134
0.271682
0.27153
0.271366
0.271191
0.271005
0.270806
0.270596
0.270374
0.270139
0.269892
0.269633
0.26936
0.269075
0.268778
0.268467
0.268142
0.267805
0.267453
0.267089
0.26671
0.266318
0.265911
0.26549
0.265055
0.264606
0.264142
0.263663
0.26317
0.262661
0.262138
0.2616
0.261046
0.260478
0.259893
0.259294
0.258679
0.258048
0.257401
0.256739
0.256061
0.255367
0.254656
0.25393
0.253188
0.252429
0.251654
0.250863
0.250056
0.249231
0.24839
0.271392
0.271148
0.270895
0.270634
0.270364
0.270084
0.269796
0.269498
0.26919
0.268872
0.268545
0.268207
0.267859
0.2675
0.267131
0.266751
0.266359
0.265957
0.265542
0.265117
0.264679
0.26423
0.263768
0.263295
0.262809
0.26231
0.261799
0.261276
0.260739
0.26019
0.259628
0.259052
0.258464
0.257861
0.257246
0.256617
0.255975
0.255319
0.254649
0.253965
0.253268
0.252556
0.251831
0.251092
0.250338
0.249571
0.248789
0.247994
0.247183
0.246359
0.268707
0.268459
0.268202
0.267935
0.267657
0.267368
0.267068
0.266757
0.266435
0.2661
0.265754
0.265396
0.265025
0.264643
0.264249
0.263844
0.263427
0.262997
0.262556
0.262102
0.261636
0.261158
0.260667
0.260164
0.259649
0.259121
0.258581
0.258029
0.257463
0.256886
0.256296
0.255693
0.255078
0.25445
0.25381
0.253157
0.252491
0.251813
0.251122
0.250419
0.249704
0.248975
0.248235
0.247482
0.246717
0.245939
0.24515
0.244347
0.243533
0.242707
0.264908
0.264628
0.264336
0.264031
0.263713
0.263381
0.263035
0.262675
0.262302
0.261915
0.261515
0.261101
0.260675
0.260236
0.259783
0.259317
0.258839
0.258349
0.257846
0.257332
0.256805
0.256266
0.255716
0.255153
0.25458
0.253994
0.253397
0.252789
0.252169
0.251538
0.250895
0.250242
0.249577
0.248901
0.248214
0.247517
0.246809
0.24609
0.245361
0.244622
0.243873
0.243113
0.242343
0.241562
0.240772
0.239972
0.239161
0.238341
0.237512
0.236673
0.256583
0.256366
0.256142
0.255907
0.255659
0.255396
0.255116
0.254819
0.254505
0.254171
0.253819
0.253448
0.253059
0.252651
0.252227
0.251785
0.251326
0.250851
0.25036
0.249853
0.249331
0.248793
0.248241
0.247674
0.247093
0.246498
0.24589
0.245268
0.244633
0.243985
0.243324
0.242651
0.241966
0.241269
0.240561
0.23984
0.239109
0.238366
0.237612
0.236847
0.236072
0.235287
0.234492
0.233687
0.232872
0.232049
0.231216
0.230375
0.229526
0.228669
0.244671
0.24452
0.244361
0.244196
0.244023
0.243838
0.243637
0.243418
0.243181
0.242923
0.242644
0.242344
0.242021
0.241676
0.241309
0.240921
0.240512
0.240082
0.239633
0.239163
0.238674
0.238166
0.23764
0.237096
0.236535
0.235956
0.235361
0.23475
0.234123
0.233482
0.232825
0.232154
0.23147
0.230772
0.230061
0.229338
0.228602
0.227855
0.227097
0.226328
0.225548
0.224759
0.22396
0.223152
0.222334
0.221509
0.220675
0.219833
0.218986
0.21813
0.233808
0.233527
0.23337
0.233121
0.232847
0.232576
0.232306
0.232031
0.231746
0.231449
0.231138
0.230811
0.230467
0.230105
0.229725
0.229325
0.228906
0.228468
0.228011
0.227536
0.227042
0.22653
0.226
0.225453
0.224889
0.224308
0.223711
0.223099
0.222472
0.22183
0.221173
0.220503
0.21982
0.219123
0.218414
0.217694
0.216961
0.216218
0.215463
0.214699
0.213924
0.213141
0.212348
0.211546
0.210737
0.209919
0.209094
0.208262
0.207425
0.206581
0.227731
0.221723
0.219728
0.219119
0.218873
0.218709
0.218491
0.218261
0.218039
0.217814
0.217578
0.217329
0.217064
0.21678
0.216475
0.21615
0.215802
0.215433
0.215042
0.214628
0.214194
0.213738
0.213262
0.212766
0.212251
0.211718
0.211166
0.210597
0.210011
0.209409
0.208791
0.208157
0.20751
0.206848
0.206173
0.205485
0.204784
0.204072
0.203348
0.202613
0.201868
0.201113
0.200349
0.199576
0.198794
0.198004
0.197207
0.196404
0.195594
0.194778
0.382441
0.278387
0.229977
0.212536
0.207067
0.205547
0.205154
0.205063
0.20493
0.20478
0.204629
0.204472
0.204302
0.204114
0.203906
0.203675
0.20342
0.20314
0.202836
0.202507
0.202152
0.201774
0.201372
0.200947
0.2005
0.200031
0.199542
0.199033
0.198504
0.197958
0.197394
0.196812
0.196215
0.195602
0.194974
0.194332
0.193676
0.193006
0.192325
0.191632
0.190927
0.190212
0.189486
0.188752
0.188008
0.187256
0.186497
0.185731
0.184959
0.18418
3.75572
1.31273
0.520908
0.292023
0.223856
0.202857
0.196588
0.194992
0.194602
0.19454
0.194465
0.194379
0.194281
0.194168
0.194036
0.193881
0.1937
0.193493
0.193258
0.192996
0.192705
0.192387
0.192043
0.191673
0.191278
0.190859
0.190417
0.189953
0.189469
0.188964
0.188441
0.1879
0.187341
0.186766
0.186176
0.18557
0.184951
0.184317
0.183672
0.183014
0.182345
0.181665
0.180976
0.180277
0.179569
0.178854
0.178131
0.177402
0.176667
0.175926
45.4106
19.6801
6.47651
1.71215
0.521155
0.265851
0.206459
0.191831
0.188218
0.187505
0.187534
0.187573
0.187593
0.187592
0.187568
0.187519
0.187439
0.187327
0.18718
0.186999
0.186782
0.186531
0.186247
0.185931
0.185584
0.185209
0.184806
0.184378
0.183926
0.183452
0.182956
0.182441
0.181907
0.181356
0.180789
0.180206
0.179609
0.178998
0.178375
0.17774
0.177093
0.176437
0.175771
0.175096
0.174414
0.173724
0.173027
0.172325
0.171618
0.170906
97.5906
81.9673
47.1978
13.6686
2.24279
0.412342
0.22647
0.19847
0.189376
0.186623
0.186159
0.186245
0.186336
0.186405
0.186445
0.186454
0.186428
0.186363
0.186257
0.186108
0.185916
0.185682
0.185407
0.185093
0.184742
0.184357
0.183939
0.183492
0.183019
0.182521
0.182
0.181459
0.180899
0.180323
0.179731
0.179125
0.178507
0.177877
0.177236
0.176586
0.175926
0.175259
0.174585
0.173905
0.173218
0.172527
0.171831
0.171132
0.17043
0.169725
100.791
100.712
90.1352
34.9356
4.45025
0.428442
0.199064
0.196516
0.194663
0.191604
0.18978
0.189731
0.189764
0.189811
0.18984
0.189849
0.189827
0.189768
0.189669
0.189526
0.189337
0.189101
0.18882
0.188494
0.188125
0.187715
0.187266
0.186783
0.186268
0.185724
0.185154
0.184561
0.183948
0.183317
0.18267
0.18201
0.181338
0.180656
0.179966
0.179268
0.178565
0.177856
0.177143
0.176427
0.175709
0.174989
0.174267
0.173546
0.172824
0.172103
101.281
101.213
82.5362
23.8699
2.45134
0.279594
0.210549
0.207786
0.202938
0.203157
0.195469
0.19416
0.19422
0.194311
0.194392
0.194432
0.194435
0.194415
0.194367
0.194285
0.194164
0.194002
0.193798
0.19355
0.193261
0.19293
0.192557
0.192144
0.191693
0.191206
0.190686
0.190136
0.189558
0.188955
0.18833
0.187686
0.187025
0.18635
0.185662
0.184964
0.184258
0.183545
0.182827
0.182104
0.181379
0.180653
0.179926
0.179199
0.178473
0.177749
101.174
88.6425
32.7001
4.67733
0.49123
0.207184
0.200738
0.200757
0.200615
0.200689
0.20049
0.201777
0.203248
0.203402
0.201019
0.199471
0.198532
0.198209
0.198144
0.198066
0.197962
0.197835
0.19768
0.197529
0.197346
0.197132
0.196892
0.196627
0.196334
0.196012
0.19566
0.19528
0.194871
0.194435
0.193973
0.193486
0.192976
0.192445
0.191893
0.191324
0.190738
0.190138
0.189525
0.1889
0.188265
0.187622
0.186972
0.186316
0.185656
0.184991
89.7178
22.8263
1.98388
0.287437
0.201202
0.19911
0.199239
0.199233
0.199264
0.199293
0.199313
0.19931
0.206402
0.203234
0.20199
0.201648
0.201706
0.201818
0.202019
0.202264
0.202584
0.204743
0.205131
0.199574
0.198881
0.198696
0.198757
0.198811
0.198835
0.198831
0.198801
0.198745
0.198664
0.198556
0.198423
0.198263
0.198077
0.197865
0.197628
0.197366
0.19708
0.19677
0.196437
0.196082
0.195708
0.195314
0.194902
0.194472
0.194026
0.193564
23.0906
2.20465
0.214648
0.202027
0.201954
0.201821
0.201798
0.20178
0.201791
0.201823
0.201935
0.201787
0.201746
0.201717
0.2017
0.201691
0.201741
0.201922
0.202657
0.203768
0.203851
0.203281
0.201896
0.200961
0.200733
0.200719
0.200728
0.200745
0.20077
0.200803
0.200842
0.200886
0.200932
0.200979
0.201025
0.201068
0.201106
0.201137
0.20116
0.201173
0.201174
0.201161
0.201131
0.201082
0.201023
0.200944
0.200845
0.200726
0.200587
0.200426
0.274728
0.261249
0.204563
0.20224
0.202204
0.202199
0.202225
0.202225
0.202239
0.202322
0.202348
0.202373
0.202397
0.202427
0.202388
0.202383
0.202393
0.202418
0.202443
0.202452
0.202452
0.202488
0.202528
0.202579
0.202603
0.202663
0.202721
0.20278
0.202851
0.202949
0.203063
0.203191
0.203336
0.203493
0.203661
0.20384
0.204026
0.204219
0.204418
0.204621
0.204836
0.205151
0.205632
0.205855
0.205519
0.205466
0.205565
0.205716
0.205853
0.205975
0.207313
0.205136
0.205221
0.204408
0.204099
0.20395
0.203863
0.203802
0.203749
0.203708
0.20369
0.203653
0.203638
0.203633
0.203635
0.203644
0.203659
0.203681
0.203708
0.203739
0.203779
0.203823
0.203877
0.203996
0.204063
0.204364
0.204464
0.204276
0.204325
0.204459
0.204633
0.204619
0.204782
0.204967
0.205332
0.205369
0.206125
0.205563
0.205668
0.205899
0.20614
0.206359
0.206693
0.206788
0.206975
0.207181
0.207447
0.207688
0.207758
0.207931
0.248442
0.247954
0.247459
0.246956
0.246444
0.245925
0.245397
0.24486
0.244316
0.243762
0.2432
0.242628
0.242048
0.241458
0.240859
0.24025
0.239632
0.239004
0.238366
0.237718
0.237059
0.236391
0.235711
0.235021
0.234321
0.233609
0.232886
0.232151
0.231406
0.230648
0.229879
0.229098
0.228304
0.227498
0.22668
0.225849
0.225006
0.224149
0.223279
0.222396
0.2215
0.22059
0.219666
0.218727
0.217775
0.216808
0.215827
0.214831
0.21382
0.212794
0.211753
0.210697
0.209624
0.208536
0.207432
0.206312
0.205176
0.204023
0.202853
0.201667
0.200464
0.199243
0.198005
0.19675
0.195477
0.194186
0.192878
0.191551
0.190206
0.188842
0.18746
0.18606
0.18464
0.183202
0.181744
0.180268
0.178772
0.177257
0.175722
0.174168
0.172594
0.171
0.169387
0.167754
0.166101
0.164428
0.162735
0.161023
0.15929
0.157538
0.155765
0.153973
0.152161
0.150329
0.148478
0.146607
0.144717
0.142807
0.140879
0.138931
0.136965
0.13498
0.132977
0.130956
0.128917
0.126861
0.124791
0.122698
0.120591
0.118468
0.116336
0.114178
0.11201
0.109828
0.107634
0.105438
0.103206
0.100972
0.0987301
0.0964784
0.0942305
0.0919563
0.0896763
0.0874046
0.0850981
0.082803
0.080505
0.0782047
0.0759027
0.0736002
0.0712984
0.0689985
0.0667019
0.0644098
0.0621238
0.0598464
0.0575868
0.0553298
0.0530515
0.0508153
0.0485961
0.0463929
0.0442077
0.0420423
0.0398983
0.0377777
0.0356824
0.0336143
0.0315754
0.0295681
0.0275939
0.0256543
0.0237622
0.0219356
0.020111
0.0182842
0.0165407
0.0148573
0.0132231
0.0116416
0.0101171
0.00866526
0.00723085
0.00589226
0.00460246
0.00339863
0.002265
0.00116226
0.000134035
-0.000803286
-0.00166466
-0.00244284
-0.00311939
-0.0037002
-0.00424015
-0.00470902
-0.00506331
-0.005324
-0.00549053
-0.00555657
-0.00551833
-0.00535787
-0.00513721
-0.00483326
-0.00440669
-0.00387553
-0.00323422
-0.00249608
-0.00164416
-0.000689577
0.000395625
0.00159064
0.00277093
0.00415266
0.00565199
0.00723099
0.00892439
0.0107184
0.0126497
0.0145977
0.0166695
0.0188342
0.0210847
0.0234216
0.0258383
0.0283746
0.0308861
0.0335181
0.0362185
0.039033
0.0417978
0.0446664
0.0475837
0.0505462
0.0535532
0.0566257
0.0596739
0.0627829
0.0659207
0.0690519
0.0722271
0.0754229
0.0786371
0.0818681
0.0851151
0.0883765
0.091653
0.0949443
0.0982504
0.101572
0.104908
0.108261
0.11163
0.115017
0.118422
0.121845
0.125286
0.128746
0.132224
0.135719
0.139231
0.142758
0.146298
0.149849
0.153409
0.156973
0.16054
0.164105
0.167664
0.171213
0.174748
0.178262
0.181751
0.185213
0.188642
0.192015
0.195352
0.198638
0.201868
0.205038
0.208142
0.211176
0.214138
0.217031
0.219838
0.222542
0.225167
0.227711
0.230164
0.232525
0.234797
0.236976
0.239052
0.241033
0.242924
0.24472
0.246421
0.24803
0.249548
0.250974
0.252311
0.253561
0.254724
0.255802
0.256803
0.257721
0.258548
0.259305
0.259987
0.260595
0.261131
0.261606
0.262001
0.262316
0.262572
0.262759
0.262878
0.262929
0.262914
0.262768
0.247734
0.24727
0.246799
0.246321
0.245835
0.245342
0.244841
0.244331
0.243814
0.243289
0.242755
0.242213
0.241663
0.241104
0.240536
0.23996
0.239374
0.238779
0.238176
0.237562
0.23694
0.236308
0.235666
0.235014
0.234352
0.23368
0.232998
0.232306
0.231603
0.230889
0.230165
0.229429
0.228683
0.227925
0.227156
0.226376
0.225584
0.22478
0.223964
0.223136
0.222296
0.221444
0.220579
0.219701
0.21881
0.217907
0.21699
0.216061
0.215117
0.214161
0.21319
0.212206
0.211208
0.210195
0.209168
0.208127
0.207071
0.206001
0.204915
0.203814
0.202699
0.201568
0.200421
0.199259
0.198081
0.196887
0.195678
0.194452
0.19321
0.191951
0.190676
0.189384
0.188076
0.18675
0.185408
0.184049
0.182672
0.181278
0.179867
0.178438
0.176992
0.175528
0.174047
0.172548
0.171031
0.169496
0.167943
0.166373
0.164784
0.163178
0.161554
0.159912
0.158252
0.156575
0.154879
0.153166
0.151435
0.149687
0.147922
0.146139
0.144339
0.142521
0.140688
0.138837
0.13697
0.135087
0.133188
0.131273
0.129343
0.127398
0.125438
0.123464
0.121476
0.119474
0.117459
0.115432
0.113392
0.111342
0.10928
0.107207
0.105125
0.103034
0.100935
0.0988274
0.0967134
0.0945933
0.092468
0.0903383
0.0882052
0.0860696
0.0839326
0.0817953
0.0796586
0.0775238
0.0753921
0.0732648
0.0711427
0.0690265
0.066918
0.0648203
0.0627332
0.0606586
0.0585981
0.056553
0.054525
0.0525159
0.0505276
0.0485612
0.0466179
0.044703
0.0428304
0.0409746
0.0391212
0.0373143
0.0355542
0.033832
0.0321489
0.0305067
0.0289093
0.0273673
0.0258644
0.0243863
0.0229764
0.0216269
0.020334
0.0190993
0.0179252
0.0168145
0.0157686
0.0147963
0.0139127
0.0131009
0.012321
0.0116062
0.0110046
0.0104756
0.0100343
0.00967703
0.0093888
0.00921325
0.00911575
0.00913098
0.00925942
0.00934521
0.00962236
0.00999826
0.0104723
0.0110456
0.0117249
0.0125267
0.0134211
0.0143531
0.0154049
0.0165821
0.0178603
0.0192396
0.0207188
0.0223147
0.0240041
0.025712
0.0275741
0.0295282
0.0315731
0.0337062
0.0359252
0.0382251
0.0406062
0.0430764
0.0455793
0.0481693
0.0508282
0.0535491
0.0563286
0.0591988
0.0620343
0.0649603
0.067935
0.0709497
0.0740011
0.0770883
0.0802282
0.0833428
0.0865121
0.0897065
0.0929226
0.0961625
0.0994144
0.102717
0.105979
0.109285
0.112607
0.115947
0.119319
0.122672
0.126058
0.129467
0.132867
0.136299
0.139745
0.143208
0.146683
0.150172
0.153674
0.157187
0.160731
0.164242
0.167777
0.171321
0.174842
0.178375
0.181904
0.185443
0.188932
0.192415
0.195889
0.199302
0.202703
0.206067
0.20939
0.212668
0.215892
0.219062
0.222171
0.225222
0.228193
0.231094
0.233919
0.236664
0.239326
0.241902
0.244386
0.246778
0.249076
0.251277
0.253381
0.255385
0.257288
0.259089
0.260789
0.262387
0.263883
0.265278
0.266574
0.267767
0.268858
0.269854
0.270753
0.271558
0.272269
0.272895
0.273418
0.273863
0.274222
0.2745
0.274695
0.274815
0.274854
0.274817
0.274716
0.274501
0.245715
0.24526
0.244798
0.24433
0.243854
0.243372
0.242883
0.242386
0.241883
0.241372
0.240854
0.240329
0.239796
0.239255
0.238706
0.23815
0.237586
0.237013
0.236433
0.235844
0.235247
0.234642
0.234028
0.233405
0.232774
0.232134
0.231484
0.230826
0.230158
0.229482
0.228795
0.2281
0.227394
0.226679
0.225954
0.225219
0.224475
0.223719
0.222954
0.222178
0.221392
0.220595
0.219787
0.218968
0.218139
0.217298
0.216446
0.215583
0.214709
0.213822
0.212925
0.212015
0.211094
0.21016
0.209214
0.208257
0.207286
0.206304
0.205309
0.204301
0.20328
0.202247
0.2012
0.200141
0.199068
0.197982
0.196883
0.19577
0.194643
0.193503
0.192349
0.191181
0.189999
0.188804
0.187594
0.18637
0.185131
0.183879
0.182612
0.18133
0.180034
0.178723
0.177398
0.176058
0.174704
0.173334
0.17195
0.170551
0.169138
0.167709
0.166266
0.164808
0.163335
0.161848
0.160345
0.158828
0.157297
0.155751
0.15419
0.152615
0.151026
0.149423
0.147805
0.146174
0.144529
0.14287
0.141198
0.139512
0.137814
0.136103
0.134379
0.132644
0.130896
0.129136
0.127366
0.125584
0.123792
0.121989
0.120177
0.118356
0.116525
0.114687
0.11284
0.110987
0.109127
0.10726
0.105389
0.103513
0.101633
0.0997493
0.0978636
0.0959763
0.0940883
0.0922005
0.0903138
0.0884292
0.0865476
0.0846704
0.0827984
0.0809328
0.0790747
0.0772254
0.0753861
0.0735581
0.0717425
0.0699411
0.0681582
0.0664028
0.0646534
0.06289
0.0611789
0.0594924
0.057831
0.056196
0.0545892
0.0530123
0.0514672
0.0499555
0.0484792
0.0470403
0.0456406
0.0442824
0.0429675
0.0416977
0.040475
0.0393014
0.0381791
0.0371104
0.0361082
0.035181
0.0342865
0.0333835
0.0325959
0.0318892
0.03125
0.0306801
0.0301806
0.0297538
0.0294016
0.0291258
0.0289277
0.0288091
0.0287718
0.0288176
0.0289477
0.0291634
0.0294656
0.0298551
0.0303377
0.0309363
0.0316305
0.0323588
0.0331698
0.0341108
0.0351162
0.0362786
0.0374823
0.0387679
0.0401595
0.0416416
0.0432124
0.0448708
0.046616
0.0484509
0.0503846
0.0523772
0.0544184
0.0565507
0.0587728
0.0610675
0.0634334
0.0658658
0.0683621
0.0709198
0.0735434
0.076214
0.0789211
0.0816899
0.0845053
0.0873639
0.0902629
0.0931991
0.096171
0.0991762
0.102213
0.105278
0.10837
0.111488
0.114628
0.117792
0.120978
0.124217
0.127407
0.130649
0.133908
0.137184
0.140477
0.143808
0.147121
0.150454
0.153831
0.157159
0.16053
0.163913
0.167312
0.170704
0.174106
0.177513
0.180942
0.184323
0.187725
0.191119
0.194519
0.197875
0.201228
0.204563
0.207888
0.21115
0.214397
0.217608
0.220794
0.223904
0.226979
0.23
0.232976
0.235865
0.238701
0.241471
0.244149
0.246762
0.249293
0.25174
0.254112
0.256369
0.258544
0.260623
0.262605
0.264487
0.266269
0.267948
0.269523
0.270994
0.272361
0.273624
0.274784
0.275841
0.276807
0.277653
0.278407
0.279073
0.279621
0.280091
0.280471
0.280765
0.280976
0.281108
0.281164
0.281148
0.281067
0.280907
0.242063
0.241607
0.241145
0.240677
0.240203
0.239722
0.239236
0.238743
0.238244
0.237738
0.237226
0.236707
0.236181
0.235649
0.23511
0.234564
0.234011
0.233451
0.232884
0.23231
0.231729
0.23114
0.230544
0.229941
0.22933
0.228711
0.228085
0.227451
0.226809
0.22616
0.225502
0.224837
0.224163
0.223482
0.222792
0.222094
0.221387
0.220672
0.219948
0.219216
0.218476
0.217726
0.216968
0.216201
0.215425
0.21464
0.213846
0.213042
0.21223
0.211408
0.210577
0.209737
0.208887
0.208028
0.207159
0.20628
0.205392
0.204493
0.203585
0.202668
0.20174
0.200802
0.199854
0.198896
0.197928
0.196949
0.19596
0.194961
0.193952
0.192932
0.191901
0.190861
0.189809
0.188747
0.187674
0.186591
0.185497
0.184392
0.183276
0.18215
0.181013
0.179865
0.178706
0.177536
0.176356
0.175164
0.173962
0.172749
0.171525
0.17029
0.169044
0.167788
0.16652
0.165242
0.163953
0.162654
0.161344
0.160023
0.158692
0.157351
0.155999
0.154637
0.153264
0.151882
0.15049
0.149088
0.147676
0.146255
0.144824
0.143384
0.141936
0.140478
0.139012
0.137537
0.136054
0.134563
0.133065
0.131559
0.130047
0.128527
0.127001
0.125469
0.123931
0.122388
0.12084
0.119288
0.117732
0.116172
0.114609
0.113044
0.111477
0.109909
0.10834
0.106771
0.105202
0.103635
0.10207
0.100508
0.0989489
0.0973946
0.0958456
0.0943028
0.0927671
0.0912395
0.0897209
0.0882123
0.0867149
0.0852297
0.0837579
0.0823009
0.0808597
0.0794357
0.0780303
0.0766446
0.07528
0.073938
0.0726199
0.0713272
0.0700614
0.0688241
0.0676168
0.0664412
0.0652988
0.0641913
0.0631203
0.0620875
0.0610946
0.0601433
0.0592353
0.0583725
0.057565
0.0568271
0.0560513
0.0553871
0.0547764
0.0542224
0.0537255
0.0532877
0.0529105
0.0525956
0.0523445
0.0521589
0.0520404
0.0519904
0.0520106
0.0521022
0.0522764
0.0525366
0.0528494
0.053195
0.0536491
0.0541918
0.054812
0.0555117
0.0562904
0.0571484
0.0580864
0.0591034
0.0601996
0.0613745
0.0626283
0.0639601
0.0653694
0.066856
0.0684244
0.0701233
0.0718172
0.0735785
0.0754331
0.0773573
0.07935
0.0814131
0.0835537
0.085737
0.0879487
0.0902455
0.0926046
0.0950169
0.0974835
0.0999996
0.102563
0.105172
0.107824
0.110517
0.113248
0.116016
0.11882
0.121674
0.124542
0.127419
0.130345
0.133306
0.136261
0.139263
0.142287
0.145334
0.148401
0.151488
0.154601
0.157709
0.160844
0.163994
0.167157
0.170343
0.173507
0.176697
0.179894
0.183095
0.186298
0.189501
0.192702
0.195898
0.199086
0.202265
0.20543
0.208601
0.21171
0.214816
0.217907
0.220938
0.223955
0.226936
0.229876
0.23277
0.235617
0.238409
0.241146
0.243822
0.246433
0.248981
0.251449
0.253856
0.256168
0.258407
0.260571
0.262617
0.264592
0.26647
0.268255
0.269942
0.271533
0.273037
0.27441
0.275693
0.276872
0.277949
0.278923
0.279804
0.280562
0.281227
0.281795
0.282266
0.282646
0.282927
0.283125
0.283241
0.283281
0.28325
0.283158
0.283012
0.236018
0.235554
0.235085
0.234611
0.234131
0.233646
0.233155
0.232659
0.232157
0.23165
0.231137
0.230618
0.230094
0.229564
0.229028
0.228486
0.227938
0.227385
0.226825
0.22626
0.225688
0.225111
0.224527
0.223937
0.223341
0.222739
0.222131
0.221516
0.220895
0.220267
0.219634
0.218994
0.218347
0.217694
0.217034
0.216368
0.215696
0.215016
0.21433
0.213638
0.212939
0.212233
0.21152
0.210801
0.210075
0.209342
0.208603
0.207856
0.207103
0.206343
0.205576
0.204803
0.204022
0.203234
0.20244
0.201639
0.20083
0.200015
0.199193
0.198364
0.197528
0.196685
0.195835
0.194978
0.194114
0.193244
0.192366
0.191481
0.19059
0.189691
0.188786
0.187873
0.186954
0.186028
0.185095
0.184155
0.183209
0.182255
0.181295
0.180328
0.179355
0.178374
0.177387
0.176393
0.175393
0.174386
0.173372
0.172352
0.171326
0.170293
0.169253
0.168207
0.167155
0.166097
0.165033
0.163962
0.162885
0.161803
0.160714
0.15962
0.15852
0.157414
0.156302
0.155185
0.154063
0.152935
0.151802
0.150665
0.149522
0.148374
0.147221
0.146064
0.144903
0.143737
0.142568
0.141394