/*--------------------------------*- C++ -*----------------------------------*\
| =========                 |                                                 |
| \\      /  F ield         | OpenFOAM: The Open Source CFD Toolbox           |
|  \\    /   O peration     | Version:  2.4.0                                 |
|   \\  /    A nd           | Web:      www.OpenFOAM.org                      |
|    \\/     M anipulation  |                                                 |
\*---------------------------------------------------------------------------*/
FoamFile
{
    version     2.0;
    format      ascii;
    class       volScalarField;
    location    "0.005";
    object      H;
}
// * * * * * * * * * * * * * * * * * * * * * * * * * * * * * * * * * * * * * //

dimensions      [0 2 -2 0 0 0 0];

internalField   nonuniform List<scalar> 
125
(
-8.048e-07
-6.41628e-07
-5.10474e-07
-4.0523e-07
-3.21007e-07
-2.53701e-07
-2.00082e-07
-1.57438e-07
-1.23609e-07
-9.68297e-08
-7.56799e-08
-5.90102e-08
-4.59047e-08
-3.56266e-08
-2.76004e-08
-2.13017e-08
-1.64315e-08
-1.2628e-08
-9.68684e-09
-7.40819e-09
-5.6578e-09
-4.29779e-09
-3.27324e-09
-2.46204e-09
-1.87461e-09
-1.40478e-09
-1.07085e-09
-7.69765e-10
-5.77145e-10
-4.5831e-10
-3.30015e-10
-2.53892e-10
-1.62656e-10
-1.55026e-10
-9.37412e-11
-4.56954e-11
-6.09764e-11
-4.38412e-11
-6.37588e-11
-3.89776e-11
-3.76796e-11
-1.38222e-12
1.80326e-13
-6.46499e-14
-1.37448e-14
-4.77809e-16
-8.58653e-17
-3.85367e-17
-4.41817e-18
-3.35061e-19
-8.77497e-20
-1.61955e-20
-1.69084e-21
-2.41212e-22
-4.56584e-23
-6.01957e-24
-7.35839e-25
-1.23389e-25
-1.88491e-26
-2.30153e-27
-3.12792e-28
-4.92201e-29
-6.86576e-30
-8.73254e-31
-1.19349e-31
-1.69783e-32
-2.30814e-33
-3.05565e-34
-4.04081e-35
-5.36556e-36
-7.22756e-37
-9.62953e-38
-1.23546e-38
-1.58479e-39
-2.09996e-40
-2.75174e-41
-3.4652e-42
-4.36737e-43
-5.64356e-44
-7.21414e-45
-8.9671e-46
-1.11395e-46
-1.40004e-47
-1.74448e-48
-2.13794e-49
-2.61181e-50
-3.19644e-51
-3.88599e-52
-4.67866e-53
-5.60464e-54
-6.69122e-55
-7.94292e-56
-9.3665e-57
-1.09809e-57
-1.28032e-58
-1.48463e-59
-1.71196e-60
-1.96229e-61
-2.23557e-62
-2.5329e-63
-2.85442e-64
-3.19764e-65
-3.56023e-66
-3.9418e-67
-4.34055e-68
-4.7515e-69
-5.16999e-70
-5.59334e-71
-6.01748e-72
-6.43565e-73
-6.84162e-74
-7.23088e-75
-7.59808e-76
-7.93634e-77
-8.2396e-78
-8.5034e-79
-8.72322e-80
-8.89433e-81
-9.01313e-82
-9.07758e-83
-9.0863e-84
-9.03852e-85
-8.93543e-86
-8.81971e-87
-1.08748e-87
)
;

boundaryField
{
    BotWall
    {
        type            zeroGradient;
    }
    FreeStream
    {
        type            zeroGradient;
    }
    FrontNBack
    {
        type            empty;
    }
    LeftSide
    {
        type            symmetryPlane;
    }
    RightSide
    {
        type            symmetryPlane;
    }
    procBoundary0to1
    {
        type            processor;
        value           uniform -1.0073e-06;
    }
    procBoundary0to2
    {
        type            processor;
        value           nonuniform List<scalar> 
75
(
-6.01179e-26
-1.01161e-26
-2.57172e-28
-8.28025e-29
-4.22342e-29
-5.28747e-30
-3.61054e-31
-9.11177e-32
-2.06857e-32
-2.49282e-33
-2.80185e-34
-4.95095e-35
-8.53359e-36
-1.18192e-36
-1.49125e-37
-2.05775e-38
-3.30488e-39
-5.02243e-40
-6.26101e-41
-7.75901e-42
-1.21037e-42
-1.83849e-43
-2.26162e-44
-2.7587e-45
-4.08801e-46
-5.91418e-47
-7.30931e-48
-9.02321e-49
-1.25507e-49
-1.71559e-50
-2.13498e-51
-2.65163e-52
-3.48842e-53
-4.54231e-54
-5.63581e-55
-6.95476e-56
-8.76661e-57
-1.09801e-57
-1.34349e-58
-1.632e-59
-1.98992e-60
-2.41339e-61
-2.89174e-62
-3.43906e-63
-4.07565e-64
-4.80303e-65
-5.61586e-66
-6.51876e-67
-7.52016e-68
-8.62208e-69
-9.81958e-70
-1.11041e-70
-1.24683e-71
-1.39073e-72
-1.54098e-73
-1.69538e-74
-1.8517e-75
-2.00839e-76
-2.16356e-77
-2.31421e-78
-2.45746e-79
-2.59127e-80
-2.71399e-81
-2.84122e-82
-2.95362e-83
-3.03909e-84
-3.10969e-85
-3.17137e-86
-3.21237e-87
-3.22667e-88
-3.22175e-89
-3.20113e-90
-3.15978e-91
-3.11031e-92
-3.81886e-93
)
;
    }
    procBoundary0to3
    {
        type            processor;
        value           nonuniform List<scalar> 
50
(
-8.25512e-07
-6.58189e-07
-5.23643e-07
-4.15713e-07
-3.29273e-07
-2.60264e-07
-2.05257e-07
-1.61514e-07
-1.26811e-07
-9.93285e-08
-7.76381e-08
-6.05287e-08
-4.71127e-08
-3.65442e-08
-2.83044e-08
-2.18699e-08
-1.68444e-08
-1.29585e-08
-9.92825e-09
-7.60487e-09
-5.80677e-09
-4.40588e-09
-3.35236e-09
-2.54635e-09
-1.90913e-09
-1.44844e-09
-1.07879e-09
-8.06839e-10
-5.87158e-10
-4.58998e-10
-3.59338e-10
-2.5852e-10
-1.58272e-10
-1.55052e-10
-1.03263e-10
-4.56132e-11
-5.94093e-11
-4.44164e-11
-6.19284e-11
-4.71452e-11
-3.67014e-11
-5.86319e-13
3.19348e-13
-8.00766e-14
-1.38576e-14
4.38127e-16
-2.27743e-17
-4.41762e-17
-3.07536e-18
1.78735e-19
)
;
    }
}


// ************************************************************************* //
