/*--------------------------------*- C++ -*----------------------------------*\
| =========                 |                                                 |
| \\      /  F ield         | OpenFOAM: The Open Source CFD Toolbox           |
|  \\    /   O peration     | Version:  2.4.0                                 |
|   \\  /    A nd           | Web:      www.OpenFOAM.org                      |
|    \\/     M anipulation  |                                                 |
\*---------------------------------------------------------------------------*/
FoamFile
{
    version     2.0;
    format      ascii;
    class       surfaceScalarField;
    location    "0.005";
    object      phi;
}
// * * * * * * * * * * * * * * * * * * * * * * * * * * * * * * * * * * * * * //

dimensions      [0 3 -1 0 0 0 0];

internalField   nonuniform List<scalar> 
124
(
-5.58971e-09
-5.58973e-09
-5.58976e-09
-5.58978e-09
-5.58981e-09
-5.58984e-09
-5.58986e-09
-5.58989e-09
-5.58991e-09
-5.58994e-09
-5.58996e-09
-5.58999e-09
-5.59001e-09
-5.59004e-09
-5.59006e-09
-5.59008e-09
-5.59011e-09
-5.59013e-09
-5.59016e-09
-5.59018e-09
-5.5902e-09
-5.59023e-09
-5.59025e-09
-5.59027e-09
-5.5903e-09
-5.59032e-09
-5.59034e-09
-5.59037e-09
-5.59039e-09
-5.59041e-09
-5.59043e-09
-5.59046e-09
-5.59048e-09
-5.5905e-09
-5.59052e-09
-5.59054e-09
-5.59057e-09
-5.59059e-09
-5.59061e-09
-5.59063e-09
-5.59065e-09
-5.59067e-09
-5.59069e-09
-5.59071e-09
-5.59073e-09
-5.59075e-09
-5.59077e-09
-5.59079e-09
-5.59081e-09
-5.59083e-09
-5.59085e-09
-5.59087e-09
-5.59089e-09
-5.59091e-09
-5.59093e-09
-5.59095e-09
-5.59097e-09
-5.59098e-09
-5.591e-09
-5.59102e-09
-5.59104e-09
-5.59106e-09
-5.59107e-09
-5.59109e-09
-5.59111e-09
-5.59113e-09
-5.59114e-09
-5.59116e-09
-5.59118e-09
-5.59119e-09
-5.59121e-09
-5.59123e-09
-5.59124e-09
-5.59126e-09
-5.59128e-09
-5.59129e-09
-5.59131e-09
-5.59132e-09
-5.59134e-09
-5.59135e-09
-5.59137e-09
-5.59138e-09
-5.5914e-09
-5.59141e-09
-5.59143e-09
-5.59144e-09
-5.59146e-09
-5.59147e-09
-5.59149e-09
-5.5915e-09
-5.59152e-09
-5.59153e-09
-5.59154e-09
-5.59156e-09
-5.59157e-09
-5.59158e-09
-5.5916e-09
-5.59161e-09
-5.59162e-09
-5.59163e-09
-5.59164e-09
-5.59165e-09
-5.59166e-09
-5.59167e-09
-5.59168e-09
-5.59169e-09
-5.59169e-09
-5.5917e-09
-5.5917e-09
-5.5917e-09
-5.59171e-09
-5.59171e-09
-5.59171e-09
-5.59171e-09
-5.5917e-09
-5.5917e-09
-5.5917e-09
-5.59169e-09
-5.59169e-09
-5.59168e-09
-5.59168e-09
-5.59167e-09
-5.59167e-09
-5.59166e-09
)
;

boundaryField
{
    BotWall
    {
        type            calculated;
        value           nonuniform 0();
    }
    FreeStream
    {
        type            calculated;
        value           uniform -5.59165e-09;
    }
    FrontNBack
    {
        type            empty;
        value           nonuniform 0();
    }
    LeftSide
    {
        type            symmetryPlane;
        value           uniform 0;
    }
    RightSide
    {
        type            symmetryPlane;
        value           nonuniform 0();
    }
    procBoundary0to1
    {
        type            processor;
        value           uniform 5.58968e-09;
    }
    procBoundary0to2
    {
        type            processor;
        value           nonuniform List<scalar> 
75
(
1.95005e-14
1.93495e-14
1.91983e-14
1.90468e-14
1.88951e-14
1.87432e-14
1.85912e-14
1.84393e-14
1.82874e-14
1.81358e-14
1.79844e-14
1.78334e-14
1.76829e-14
1.75332e-14
1.73843e-14
1.72364e-14
1.70898e-14
1.69447e-14
1.68012e-14
1.66597e-14
1.65203e-14
1.63835e-14
1.62493e-14
1.61182e-14
1.59903e-14
1.58658e-14
1.5745e-14
1.56279e-14
1.55145e-14
1.54048e-14
1.52985e-14
1.51952e-14
1.50942e-14
1.49946e-14
1.48952e-14
1.47944e-14
1.46903e-14
1.45805e-14
1.4462e-14
1.43317e-14
1.41855e-14
1.40194e-14
1.38286e-14
1.3608e-14
1.33523e-14
1.30561e-14
1.2714e-14
1.23208e-14
1.18717e-14
1.13628e-14
1.07908e-14
1.01539e-14
9.45148e-15
8.68471e-15
7.8565e-15
6.97164e-15
6.03692e-15
5.06097e-15
4.0542e-15
3.0285e-15
1.99697e-15
9.7333e-16
-2.87826e-17
-9.90005e-16
-1.90186e-15
-2.75135e-15
-3.52756e-15
-4.22178e-15
-4.82769e-15
-5.34153e-15
-5.76221e-15
-6.09126e-15
-6.33266e-15
-6.49276e-15
-6.56697e-15
)
;
    }
    procBoundary0to3
    {
        type            processor;
        value           nonuniform List<scalar> 
50
(
2.6184e-14
2.60662e-14
2.59482e-14
2.58298e-14
2.5711e-14
2.55918e-14
2.54722e-14
2.53521e-14
2.52314e-14
2.51102e-14
2.49885e-14
2.48661e-14
2.47432e-14
2.46195e-14
2.44952e-14
2.43701e-14
2.42444e-14
2.41179e-14
2.39906e-14
2.38625e-14
2.37337e-14
2.3604e-14
2.34736e-14
2.33422e-14
2.32101e-14
2.30771e-14
2.29433e-14
2.28086e-14
2.26731e-14
2.25367e-14
2.23995e-14
2.22615e-14
2.21227e-14
2.1983e-14
2.18425e-14
2.17013e-14
2.15592e-14
2.14164e-14
2.12729e-14
2.11286e-14
2.09837e-14
2.0838e-14
2.06917e-14
2.05447e-14
2.03971e-14
2.0249e-14
2.01003e-14
1.9951e-14
1.98013e-14
1.96511e-14
)
;
    }
}


// ************************************************************************* //
