/*--------------------------------*- C++ -*----------------------------------*\
| =========                 |                                                 |
| \\      /  F ield         | OpenFOAM: The Open Source CFD Toolbox           |
|  \\    /   O peration     | Version:  2.4.0                                 |
|   \\  /    A nd           | Web:      www.OpenFOAM.org                      |
|    \\/     M anipulation  |                                                 |
\*---------------------------------------------------------------------------*/
FoamFile
{
    version     2.0;
    format      ascii;
    class       volVectorField;
    location    "0.005";
    object      U;
}
// * * * * * * * * * * * * * * * * * * * * * * * * * * * * * * * * * * * * * //

dimensions      [0 1 -1 0 0 0 0];

internalField   nonuniform List<vector> 
125
(
(1.23663e-05 -0.0279485 0)
(1.22944e-05 -0.0279486 0)
(1.22229e-05 -0.0279487 0)
(1.21517e-05 -0.0279489 0)
(1.20808e-05 -0.027949 0)
(1.20102e-05 -0.0279491 0)
(1.19398e-05 -0.0279492 0)
(1.18697e-05 -0.0279494 0)
(1.17998e-05 -0.0279495 0)
(1.17301e-05 -0.0279496 0)
(1.16606e-05 -0.0279497 0)
(1.15912e-05 -0.0279499 0)
(1.1522e-05 -0.02795 0)
(1.14528e-05 -0.0279501 0)
(1.13838e-05 -0.0279502 0)
(1.13148e-05 -0.0279504 0)
(1.12458e-05 -0.0279505 0)
(1.1177e-05 -0.0279506 0)
(1.11081e-05 -0.0279507 0)
(1.10393e-05 -0.0279508 0)
(1.09705e-05 -0.027951 0)
(1.09017e-05 -0.0279511 0)
(1.08328e-05 -0.0279512 0)
(1.0764e-05 -0.0279513 0)
(1.06951e-05 -0.0279514 0)
(1.06263e-05 -0.0279515 0)
(1.05573e-05 -0.0279517 0)
(1.04884e-05 -0.0279518 0)
(1.04194e-05 -0.0279519 0)
(1.03504e-05 -0.027952 0)
(1.02814e-05 -0.0279521 0)
(1.02123e-05 -0.0279522 0)
(1.01432e-05 -0.0279523 0)
(1.00741e-05 -0.0279525 0)
(1.0005e-05 -0.0279526 0)
(9.93582e-06 -0.0279527 0)
(9.86668e-06 -0.0279528 0)
(9.79754e-06 -0.0279529 0)
(9.72843e-06 -0.027953 0)
(9.65934e-06 -0.0279531 0)
(9.59029e-06 -0.0279532 0)
(9.52131e-06 -0.0279533 0)
(9.45239e-06 -0.0279534 0)
(9.38356e-06 -0.0279535 0)
(9.31485e-06 -0.0279536 0)
(9.24625e-06 -0.0279537 0)
(9.17781e-06 -0.0279538 0)
(9.10955e-06 -0.0279539 0)
(9.04147e-06 -0.027954 0)
(8.97363e-06 -0.0279541 0)
(8.90604e-06 -0.0279542 0)
(8.83874e-06 -0.0279543 0)
(8.77175e-06 -0.0279544 0)
(8.70511e-06 -0.0279545 0)
(8.63887e-06 -0.0279546 0)
(8.57306e-06 -0.0279547 0)
(8.50772e-06 -0.0279548 0)
(8.4429e-06 -0.0279549 0)
(8.37865e-06 -0.027955 0)
(8.31501e-06 -0.0279551 0)
(8.25205e-06 -0.0279552 0)
(8.18982e-06 -0.0279552 0)
(8.12838e-06 -0.0279553 0)
(8.0678e-06 -0.0279554 0)
(8.00814e-06 -0.0279555 0)
(7.94948e-06 -0.0279556 0)
(7.8919e-06 -0.0279557 0)
(7.83547e-06 -0.0279558 0)
(7.78027e-06 -0.0279558 0)
(7.72639e-06 -0.0279559 0)
(7.67391e-06 -0.027956 0)
(7.6229e-06 -0.0279561 0)
(7.57345e-06 -0.0279562 0)
(7.52563e-06 -0.0279563 0)
(7.47949e-06 -0.0279563 0)
(7.43507e-06 -0.0279564 0)
(7.3924e-06 -0.0279565 0)
(7.35147e-06 -0.0279566 0)
(7.31224e-06 -0.0279567 0)
(7.2746e-06 -0.0279567 0)
(7.23843e-06 -0.0279568 0)
(7.20351e-06 -0.0279569 0)
(7.16953e-06 -0.027957 0)
(7.13612e-06 -0.027957 0)
(7.10277e-06 -0.0279571 0)
(7.06888e-06 -0.0279572 0)
(7.03368e-06 -0.0279573 0)
(6.9963e-06 -0.0279573 0)
(6.95567e-06 -0.0279574 0)
(6.91062e-06 -0.0279575 0)
(6.85979e-06 -0.0279575 0)
(6.80169e-06 -0.0279576 0)
(6.73471e-06 -0.0279577 0)
(6.65715e-06 -0.0279578 0)
(6.56723e-06 -0.0279578 0)
(6.46316e-06 -0.0279579 0)
(6.34321e-06 -0.027958 0)
(6.20573e-06 -0.027958 0)
(6.04928e-06 -0.0279581 0)
(5.87266e-06 -0.0279581 0)
(5.67501e-06 -0.0279582 0)
(5.45591e-06 -0.0279582 0)
(5.21541e-06 -0.0279583 0)
(4.95413e-06 -0.0279583 0)
(4.6733e-06 -0.0279584 0)
(4.37475e-06 -0.0279584 0)
(4.06096e-06 -0.0279584 0)
(3.73501e-06 -0.0279585 0)
(3.40052e-06 -0.0279585 0)
(3.06156e-06 -0.0279585 0)
(2.72257e-06 -0.0279585 0)
(2.38818e-06 -0.0279585 0)
(2.06308e-06 -0.0279585 0)
(1.75184e-06 -0.0279585 0)
(1.45877e-06 -0.0279585 0)
(1.18771e-06 -0.0279585 0)
(9.41945e-07 -0.0279585 0)
(7.24036e-07 -0.0279585 0)
(5.35751e-07 -0.0279585 0)
(3.7801e-07 -0.0279584 0)
(2.50873e-07 -0.0279584 0)
(1.53563e-07 -0.0279584 0)
(8.45211e-08 -0.0279584 0)
(4.14918e-08 -0.0279584 0)
(2.16412e-08 -0.0279582 0)
)
;

boundaryField
{
    BotWall
    {
        type            fixedValue;
        value           nonuniform 0();
    }
    FreeStream
    {
        type            zeroGradient;
    }
    FrontNBack
    {
        type            empty;
    }
    LeftSide
    {
        type            symmetryPlane;
    }
    RightSide
    {
        type            symmetryPlane;
    }
    procBoundary0to1
    {
        type            processor;
        value           uniform (1.24386e-05 -0.0279483 0);
    }
    procBoundary0to2
    {
        type            processor;
        value           nonuniform List<vector> 
75
(
(9.73174e-06 -0.0279804 0)
(9.58683e-06 -0.0279803 0)
(9.44259e-06 -0.0279803 0)
(9.29904e-06 -0.0279802 0)
(9.15619e-06 -0.0279801 0)
(9.01405e-06 -0.0279801 0)
(8.87265e-06 -0.02798 0)
(8.732e-06 -0.0279799 0)
(8.59212e-06 -0.0279799 0)
(8.45306e-06 -0.0279798 0)
(8.31485e-06 -0.0279797 0)
(8.17752e-06 -0.0279797 0)
(8.04114e-06 -0.0279796 0)
(7.90577e-06 -0.0279795 0)
(7.77146e-06 -0.0279795 0)
(7.63831e-06 -0.0279794 0)
(7.50639e-06 -0.0279794 0)
(7.37581e-06 -0.0279793 0)
(7.24666e-06 -0.0279792 0)
(7.11908e-06 -0.0279792 0)
(6.99316e-06 -0.0279791 0)
(6.86906e-06 -0.0279791 0)
(6.74689e-06 -0.027979 0)
(6.62678e-06 -0.0279789 0)
(6.50885e-06 -0.0279789 0)
(6.39322e-06 -0.0279788 0)
(6.27998e-06 -0.0279788 0)
(6.16918e-06 -0.0279787 0)
(6.06085e-06 -0.0279787 0)
(5.95494e-06 -0.0279786 0)
(5.85136e-06 -0.0279786 0)
(5.74992e-06 -0.0279785 0)
(5.65033e-06 -0.0279784 0)
(5.55218e-06 -0.0279784 0)
(5.45491e-06 -0.0279783 0)
(5.35781e-06 -0.0279783 0)
(5.26e-06 -0.0279782 0)
(5.1604e-06 -0.0279782 0)
(5.05772e-06 -0.0279781 0)
(4.95047e-06 -0.0279781 0)
(4.83697e-06 -0.027978 0)
(4.71531e-06 -0.027978 0)
(4.58344e-06 -0.0279779 0)
(4.43915e-06 -0.0279779 0)
(4.28017e-06 -0.0279778 0)
(4.10417e-06 -0.0279778 0)
(3.90889e-06 -0.0279777 0)
(3.69219e-06 -0.0279777 0)
(3.45217e-06 -0.0279777 0)
(3.18726e-06 -0.0279776 0)
(2.89634e-06 -0.0279776 0)
(2.57885e-06 -0.0279776 0)
(2.23486e-06 -0.0279775 0)
(1.86519e-06 -0.0279775 0)
(1.47144e-06 -0.0279775 0)
(1.05602e-06 -0.0279775 0)
(6.22208e-07 -0.0279774 0)
(1.74029e-07 -0.0279774 0)
(-2.83761e-07 -0.0279774 0)
(-7.45809e-07 -0.0279774 0)
(-1.20632e-06 -0.0279774 0)
(-1.65923e-06 -0.0279774 0)
(-2.09841e-06 -0.0279774 0)
(-2.5179e-06 -0.0279774 0)
(-2.91212e-06 -0.0279775 0)
(-3.27608e-06 -0.0279775 0)
(-3.60557e-06 -0.0279775 0)
(-3.89731e-06 -0.0279775 0)
(-4.14911e-06 -0.0279776 0)
(-4.35985e-06 -0.0279776 0)
(-4.52957e-06 -0.0279776 0)
(-4.65939e-06 -0.0279777 0)
(-4.75147e-06 -0.0279777 0)
(-4.80884e-06 -0.0279778 0)
(-4.83528e-06 -0.0279777 0)
)
;
    }
    procBoundary0to3
    {
        type            processor;
        value           nonuniform List<vector> 
50
(
(1.77112e-05 -0.0279846 0)
(1.75379e-05 -0.0279845 0)
(1.73654e-05 -0.0279844 0)
(1.71935e-05 -0.0279843 0)
(1.70222e-05 -0.0279842 0)
(1.68516e-05 -0.0279841 0)
(1.66816e-05 -0.027984 0)
(1.65122e-05 -0.0279839 0)
(1.63433e-05 -0.0279838 0)
(1.61751e-05 -0.0279837 0)
(1.60074e-05 -0.0279837 0)
(1.58403e-05 -0.0279836 0)
(1.56737e-05 -0.0279835 0)
(1.55076e-05 -0.0279834 0)
(1.53421e-05 -0.0279833 0)
(1.5177e-05 -0.0279832 0)
(1.50125e-05 -0.0279831 0)
(1.48485e-05 -0.027983 0)
(1.4685e-05 -0.0279829 0)
(1.4522e-05 -0.0279828 0)
(1.43595e-05 -0.0279828 0)
(1.41974e-05 -0.0279827 0)
(1.40359e-05 -0.0279826 0)
(1.38749e-05 -0.0279825 0)
(1.37143e-05 -0.0279824 0)
(1.35543e-05 -0.0279823 0)
(1.33947e-05 -0.0279822 0)
(1.32356e-05 -0.0279822 0)
(1.30771e-05 -0.0279821 0)
(1.29191e-05 -0.027982 0)
(1.27615e-05 -0.0279819 0)
(1.26045e-05 -0.0279818 0)
(1.24481e-05 -0.0279817 0)
(1.22922e-05 -0.0279817 0)
(1.21368e-05 -0.0279816 0)
(1.1982e-05 -0.0279815 0)
(1.18277e-05 -0.0279814 0)
(1.16741e-05 -0.0279814 0)
(1.1521e-05 -0.0279813 0)
(1.13685e-05 -0.0279812 0)
(1.12165e-05 -0.0279811 0)
(1.10652e-05 -0.0279811 0)
(1.09145e-05 -0.027981 0)
(1.07645e-05 -0.0279809 0)
(1.0615e-05 -0.0279808 0)
(1.04662e-05 -0.0279808 0)
(1.0318e-05 -0.0279807 0)
(1.01705e-05 -0.0279806 0)
(1.00236e-05 -0.0279805 0)
(9.87732e-06 -0.0279805 0)
)
;
    }
}


// ************************************************************************* //
