/*--------------------------------*- C++ -*----------------------------------*\
| =========                 |                                                 |
| \\      /  F ield         | OpenFOAM: The Open Source CFD Toolbox           |
|  \\    /   O peration     | Version:  2.4.0                                 |
|   \\  /    A nd           | Web:      www.OpenFOAM.org                      |
|    \\/     M anipulation  |                                                 |
\*---------------------------------------------------------------------------*/
FoamFile
{
    version     2.0;
    format      ascii;
    class       volScalarField;
    location    "1.6";
    object      H;
}
// * * * * * * * * * * * * * * * * * * * * * * * * * * * * * * * * * * * * * //

dimensions      [0 2 -2 0 0 0 0];

internalField   nonuniform List<scalar> 
500
(
-11848.3
-11848.3
-11848.3
-11848.3
-11848.3
-11080.6
-11080.6
-11080.6
-11080.6
-11080.6
-10304.3
-10304.2
-10304.2
-10304.2
-10304.3
-9518.99
-9518.98
-9518.98
-9518.98
-9518.99
-8724.65
-8724.64
-8724.64
-8724.64
-8724.65
-7921.03
-7921.01
-7921.01
-7921.01
-7921.03
-7107.91
-7107.9
-7107.89
-7107.9
-7107.91
-6285.09
-6285.08
-6285.07
-6285.08
-6285.09
-5452.35
-5452.33
-5452.32
-5452.33
-5452.35
-4609.45
-4609.43
-4609.42
-4609.43
-4609.45
-3756.16
-3756.14
-3756.13
-3756.14
-3756.16
-2892.25
-2892.22
-2892.21
-2892.22
-2892.25
-2017.47
-2017.44
-2017.43
-2017.44
-2017.47
-1131.56
-1131.53
-1131.52
-1131.53
-1131.56
-27.5977
-27.5947
-27.5935
-27.5947
-27.5978
-20.7
-20.6978
-20.6968
-20.6978
-20.7001
-20.9176
-20.9154
-20.9145
-20.9154
-20.9176
-21.1282
-21.1261
-21.1251
-21.1261
-21.1283
-21.3316
-21.3295
-21.3286
-21.3295
-21.3317
-21.5274
-21.5253
-21.5244
-21.5253
-21.5275
-21.7154
-21.7133
-21.7124
-21.7133
-21.7155
-21.8952
-21.8931
-21.8922
-21.8931
-21.8952
-22.0664
-22.0644
-22.0635
-22.0644
-22.0665
-22.2289
-22.2269
-22.2261
-22.2269
-22.229
-22.3823
-22.3803
-22.3794
-22.3803
-22.3823
-22.5262
-22.5243
-22.5234
-22.5243
-22.5262
-22.6603
-22.6585
-22.6576
-22.6585
-22.6604
-22.7845
-22.7826
-22.7817
-22.7826
-22.7845
-22.8982
-22.8964
-22.8955
-22.8964
-22.8983
-23.0013
-22.9995
-22.9986
-22.9995
-23.0013
-23.0934
-23.0916
-23.0908
-23.0916
-23.0934
-23.1742
-23.1725
-23.1716
-23.1725
-23.1742
-23.2434
-23.2417
-23.2409
-23.2418
-23.2435
-23.3008
-23.2992
-23.2984
-23.2992
-23.3009
-23.3461
-23.3445
-23.3437
-23.3445
-23.3462
-23.379
-23.3774
-23.3766
-23.3774
-23.379
-23.3992
-23.3976
-23.3968
-23.3976
-23.3992
-23.4064
-23.4049
-23.4042
-23.4049
-23.4065
-23.4005
-23.399
-23.3983
-23.399
-23.4006
-23.3812
-23.3797
-23.379
-23.3797
-23.3813
-23.3482
-23.3468
-23.3461
-23.3468
-23.3483
-23.3014
-23.3
-23.2993
-23.3
-23.3015
-23.2406
-23.2392
-23.2385
-23.2392
-23.2406
-23.1655
-23.1641
-23.1635
-23.1641
-23.1655
-23.076
-23.0747
-23.074
-23.0747
-23.0761
-22.972
-22.9707
-22.97
-22.9707
-22.972
-22.8533
-22.852
-22.8514
-22.852
-22.8533
-22.7197
-22.7185
-22.7179
-22.7185
-22.7198
-22.5713
-22.5701
-22.5695
-22.5701
-22.5714
-22.4079
-22.4068
-22.4062
-22.4068
-22.408
-22.2295
-22.2284
-22.2278
-22.2284
-22.2295
-22.036
-22.0349
-22.0343
-22.0349
-22.036
-21.8274
-21.8263
-21.8258
-21.8263
-21.8274
-21.6037
-21.6027
-21.6022
-21.6027
-21.6038
-21.365
-21.364
-21.3635
-21.364
-21.3651
-21.1113
-21.1104
-21.1099
-21.1104
-21.1114
-20.8427
-20.8418
-20.8413
-20.8418
-20.8428
-20.5593
-20.5584
-20.558
-20.5584
-20.5594
-20.2613
-20.2604
-20.2599
-20.2604
-20.2613
-19.9487
-19.9478
-19.9474
-19.9479
-19.9487
-19.6218
-19.621
-19.6206
-19.621
-19.6219
-19.2808
-19.28
-19.2796
-19.28
-19.2809
-18.926
-18.9252
-18.9248
-18.9252
-18.926
-18.5575
-18.5567
-18.5564
-18.5568
-18.5575
-18.1757
-18.175
-18.1746
-18.175
-18.1757
-17.7809
-17.7802
-17.7799
-17.7802
-17.781
-17.3735
-17.3728
-17.3725
-17.3728
-17.3735
-16.9538
-16.9532
-16.9528
-16.9532
-16.9538
-16.5222
-16.5216
-16.5213
-16.5216
-16.5222
-16.0792
-16.0786
-16.0783
-16.0786
-16.0792
-15.6251
-15.6245
-15.6243
-15.6246
-15.6251
-15.1605
-15.16
-15.1597
-15.16
-15.1605
-14.6858
-14.6853
-14.6851
-14.6853
-14.6858
-14.2016
-14.2011
-14.2009
-14.2011
-14.2016
-13.7084
-13.7079
-13.7077
-13.7079
-13.7084
-13.2067
-13.2062
-13.206
-13.2062
-13.2067
-12.6971
-12.6967
-12.6965
-12.6967
-12.6971
-12.1802
-12.1798
-12.1796
-12.1798
-12.1802
-11.6566
-11.6562
-11.656
-11.6562
-11.6566
-11.1269
-11.1265
-11.1263
-11.1265
-11.1269
-10.5917
-10.5914
-10.5912
-10.5914
-10.5917
-10.0517
-10.0514
-10.0512
-10.0514
-10.0517
-9.50745
-9.50718
-9.50704
-9.50718
-9.50746
-8.95971
-8.95945
-8.95932
-8.95946
-8.95971
-8.40909
-8.40885
-8.40873
-8.40886
-8.40909
-7.85625
-7.85604
-7.85593
-7.85604
-7.85626
-7.30188
-7.30168
-7.30158
-7.30168
-7.30188
-6.74662
-6.74644
-6.74635
-6.74645
-6.74663
-6.19116
-6.191
-6.19092
-6.191
-6.19117
-5.63617
-5.63603
-5.63595
-5.63603
-5.63618
-5.08231
-5.08218
-5.08212
-5.08219
-5.08232
-4.53026
-4.53015
-4.53009
-4.53015
-4.53027
-3.98068
-3.98058
-3.98053
-3.98059
-3.98069
-3.43424
-3.43416
-3.43411
-3.43416
-3.43424
-2.8916
-2.89153
-2.89149
-2.89153
-2.8916
-2.35342
-2.35336
-2.35333
-2.35336
-2.35342
-1.82035
-1.82031
-1.82028
-1.82031
-1.82035
-1.29307
-1.29303
-1.29302
-1.29303
-1.29307
-0.772214
-0.772195
-0.772185
-0.772195
-0.772214
-0.258456
-0.25845
-0.258447
-0.25845
-0.258456
)
;

boundaryField
{
    BotWall
    {
        type            zeroGradient;
    }
    FreeStream
    {
        type            zeroGradient;
    }
    FrontNBack
    {
        type            empty;
    }
    LeftSide
    {
        type            symmetryPlane;
    }
    RightSide
    {
        type            symmetryPlane;
    }
}


// ************************************************************************* //
