/*--------------------------------*- C++ -*----------------------------------*\
| =========                 |                                                 |
| \\      /  F ield         | OpenFOAM: The Open Source CFD Toolbox           |
|  \\    /   O peration     | Version:  2.4.0                                 |
|   \\  /    A nd           | Web:      www.OpenFOAM.org                      |
|    \\/     M anipulation  |                                                 |
\*---------------------------------------------------------------------------*/
FoamFile
{
    version     2.0;
    format      ascii;
    class       volScalarField;
    location    "1.6";
    object      p;
}
// * * * * * * * * * * * * * * * * * * * * * * * * * * * * * * * * * * * * * //

dimensions      [1 -1 -2 0 0 0 0];

internalField   nonuniform List<scalar> 
500
(
0.442473
0.442488
0.442475
0.442488
0.442473
0.412585
0.412601
0.412588
0.412601
0.412584
0.382451
0.382467
0.382453
0.382467
0.382451
0.352018
0.352034
0.35202
0.352034
0.352017
0.32164
0.321657
0.321643
0.321657
0.321639
0.290949
0.290967
0.290953
0.290966
0.290949
0.257508
0.257524
0.25751
0.257523
0.257507
0.215469
0.215481
0.215467
0.21548
0.215469
0.170672
0.170689
0.170675
0.170689
0.170671
0.188634
0.188691
0.188679
0.188691
0.188633
0.41232
0.412449
0.412445
0.412449
0.412319
0.694749
0.694809
0.694828
0.694809
0.694747
-0.643766
-0.644229
-0.644232
-0.64423
-0.643767
-7.11664
-7.11781
-7.11801
-7.11781
-7.11662
-15.2339
-15.2346
-15.2352
-15.2346
-15.2338
-0.015508
-0.0155077
-0.0155077
-0.0155077
-0.015508
-0.00666819
-0.00666848
-0.0066685
-0.00666848
-0.00666819
-0.00866238
-0.00866234
-0.00866235
-0.00866234
-0.00866238
-0.0100125
-0.0100125
-0.0100125
-0.0100125
-0.0100125
-0.0107255
-0.0107255
-0.0107255
-0.0107255
-0.0107255
-0.0112845
-0.0112846
-0.0112846
-0.0112846
-0.0112845
-0.0118721
-0.0118721
-0.0118721
-0.0118721
-0.0118721
-0.0124914
-0.0124914
-0.0124914
-0.0124914
-0.0124914
-0.0131236
-0.0131236
-0.0131236
-0.0131236
-0.0131236
-0.013762
-0.013762
-0.013762
-0.013762
-0.013762
-0.0144065
-0.0144065
-0.0144065
-0.0144065
-0.0144065
-0.0150579
-0.0150579
-0.0150579
-0.0150579
-0.0150579
-0.0157167
-0.0157167
-0.0157167
-0.0157167
-0.0157167
-0.0163828
-0.0163828
-0.0163828
-0.0163828
-0.0163828
-0.0170564
-0.0170564
-0.0170564
-0.0170564
-0.0170564
-0.0177375
-0.0177375
-0.0177375
-0.0177375
-0.0177375
-0.0184262
-0.0184262
-0.0184262
-0.0184262
-0.0184262
-0.0191226
-0.0191226
-0.0191226
-0.0191226
-0.0191226
-0.0198268
-0.0198268
-0.0198268
-0.0198268
-0.0198268
-0.0205388
-0.0205388
-0.0205388
-0.0205388
-0.0205388
-0.0212587
-0.0212587
-0.0212587
-0.0212587
-0.0212587
-0.0219867
-0.0219867
-0.0219867
-0.0219867
-0.0219867
-0.0227228
-0.0227228
-0.0227228
-0.0227228
-0.0227228
-0.0234672
-0.0234672
-0.0234672
-0.0234672
-0.0234672
-0.0242198
-0.0242198
-0.0242198
-0.0242198
-0.0242198
-0.0249809
-0.0249809
-0.0249809
-0.0249809
-0.0249809
-0.0257504
-0.0257504
-0.0257504
-0.0257504
-0.0257504
-0.0265285
-0.0265285
-0.0265285
-0.0265285
-0.0265285
-0.0273153
-0.0273153
-0.0273153
-0.0273153
-0.0273153
-0.0281109
-0.0281109
-0.0281109
-0.0281109
-0.0281109
-0.0289153
-0.0289153
-0.0289153
-0.0289153
-0.0289153
-0.0297288
-0.0297288
-0.0297288
-0.0297288
-0.0297288
-0.0305513
-0.0305513
-0.0305513
-0.0305513
-0.0305513
-0.031383
-0.031383
-0.031383
-0.031383
-0.031383
-0.0322239
-0.0322239
-0.0322239
-0.0322239
-0.0322239
-0.0330743
-0.0330743
-0.0330743
-0.0330743
-0.0330743
-0.0339341
-0.0339341
-0.0339341
-0.0339341
-0.0339341
-0.0348036
-0.0348036
-0.0348036
-0.0348036
-0.0348036
-0.0356827
-0.0356827
-0.0356827
-0.0356827
-0.0356827
-0.0365717
-0.0365717
-0.0365717
-0.0365717
-0.0365717
-0.0374705
-0.0374705
-0.0374705
-0.0374705
-0.0374705
-0.0383794
-0.0383794
-0.0383794
-0.0383794
-0.0383794
-0.0392985
-0.0392985
-0.0392985
-0.0392985
-0.0392985
-0.0402278
-0.0402278
-0.0402278
-0.0402278
-0.0402278
-0.0411674
-0.0411674
-0.0411674
-0.0411674
-0.0411674
-0.0421176
-0.0421176
-0.0421176
-0.0421176
-0.0421176
-0.0430784
-0.0430784
-0.0430784
-0.0430784
-0.0430784
-0.0440498
-0.0440498
-0.0440498
-0.0440498
-0.0440498
-0.0450322
-0.0450322
-0.0450322
-0.0450322
-0.0450322
-0.0460254
-0.0460254
-0.0460254
-0.0460254
-0.0460254
-0.0470298
-0.0470298
-0.0470298
-0.0470298
-0.0470298
-0.0480454
-0.0480454
-0.0480454
-0.0480454
-0.0480454
-0.0490723
-0.0490723
-0.0490723
-0.0490723
-0.0490723
-0.0501106
-0.0501106
-0.0501106
-0.0501106
-0.0501106
-0.0511606
-0.0511606
-0.0511606
-0.0511606
-0.0511606
-0.0522223
-0.0522223
-0.0522223
-0.0522223
-0.0522223
-0.0532958
-0.0532958
-0.0532958
-0.0532958
-0.0532958
-0.0543813
-0.0543813
-0.0543813
-0.0543813
-0.0543813
-0.0554789
-0.0554789
-0.0554789
-0.0554789
-0.0554789
-0.0565887
-0.0565887
-0.0565887
-0.0565887
-0.0565887
-0.057711
-0.057711
-0.057711
-0.057711
-0.057711
-0.0588457
-0.0588457
-0.0588457
-0.0588457
-0.0588457
-0.0599931
-0.0599931
-0.0599931
-0.0599931
-0.0599931
-0.0611534
-0.0611534
-0.0611534
-0.0611534
-0.0611534
-0.0623266
-0.0623266
-0.0623266
-0.0623266
-0.0623266
-0.0635128
-0.0635128
-0.0635128
-0.0635128
-0.0635128
-0.0647123
-0.0647123
-0.0647123
-0.0647123
-0.0647123
-0.0659252
-0.0659252
-0.0659252
-0.0659252
-0.0659252
-0.0671516
-0.0671516
-0.0671516
-0.0671516
-0.0671516
-0.0683917
-0.0683917
-0.0683917
-0.0683917
-0.0683917
-0.0696457
-0.0696457
-0.0696457
-0.0696457
-0.0696457
-0.0709136
-0.0709136
-0.0709136
-0.0709136
-0.0709136
-0.0721957
-0.0721957
-0.0721957
-0.0721957
-0.0721957
-0.0734921
-0.0734921
-0.0734921
-0.0734921
-0.0734921
-0.074803
-0.074803
-0.074803
-0.074803
-0.074803
-0.0761285
-0.0761285
-0.0761285
-0.0761285
-0.0761285
-0.0774687
-0.0774687
-0.0774687
-0.0774687
-0.0774687
-0.078824
-0.078824
-0.078824
-0.078824
-0.078824
-0.0801943
-0.0801943
-0.0801943
-0.0801943
-0.0801943
-0.08158
-0.08158
-0.08158
-0.08158
-0.08158
-0.0829811
-0.0829811
-0.0829811
-0.0829811
-0.0829811
-0.0843979
-0.0843979
-0.0843979
-0.0843979
-0.0843979
-0.0858304
-0.0858304
-0.0858304
-0.0858304
-0.0858304
-0.087279
-0.087279
-0.087279
-0.087279
-0.087279
-0.0887437
-0.0887437
-0.0887437
-0.0887437
-0.0887437
)
;

boundaryField
{
    BotWall
    {
        type            calculated;
        value           nonuniform List<scalar> 5(0.457293 0.457309 0.457295 0.457309 0.457293);
    }
    FreeStream
    {
        type            calculated;
        value           nonuniform List<scalar> 5(-0.0894801 -0.0894801 -0.0894801 -0.0894801 -0.0894801);
    }
    FrontNBack
    {
        type            empty;
    }
    LeftSide
    {
        type            symmetryPlane;
    }
    RightSide
    {
        type            symmetryPlane;
    }
}


// ************************************************************************* //
