/*--------------------------------*- C++ -*----------------------------------*\
| =========                 |                                                 |
| \\      /  F ield         | OpenFOAM: The Open Source CFD Toolbox           |
|  \\    /   O peration     | Version:  2.4.0                                 |
|   \\  /    A nd           | Web:      www.OpenFOAM.org                      |
|    \\/     M anipulation  |                                                 |
\*---------------------------------------------------------------------------*/
FoamFile
{
    version     2.0;
    format      ascii;
    class       volScalarField;
    location    "1.6";
    object      p_rgh;
}
// * * * * * * * * * * * * * * * * * * * * * * * * * * * * * * * * * * * * * //

dimensions      [1 -1 -2 0 0 0 0];

internalField   nonuniform List<scalar> 
500
(
0.457293
0.457309
0.457295
0.457309
0.457293
0.457211
0.457227
0.457214
0.457227
0.457211
0.457216
0.457232
0.457218
0.457232
0.457216
0.457257
0.457274
0.45726
0.457273
0.457257
0.457694
0.457712
0.457698
0.457712
0.457694
0.458163
0.45818
0.458167
0.45818
0.458162
0.456228
0.456244
0.456231
0.456243
0.456227
0.446048
0.446059
0.446046
0.446059
0.446047
0.433464
0.433481
0.433467
0.43348
0.433463
0.483999
0.484056
0.484044
0.484056
0.483998
0.740621
0.740751
0.740747
0.740751
0.74062
1.05636
1.05641
1.05643
1.05641
1.05635
-0.248485
-0.248948
-0.248951
-0.248948
-0.248486
-6.6873
-6.68848
-6.68868
-6.68848
-6.68729
-14.9819
-14.9826
-14.9831
-14.9826
-14.9819
-0.00724965
-0.00724935
-0.00724933
-0.00724935
-0.00724966
0.00217328
0.00217299
0.00217297
0.00217299
0.00217328
0.000768705
0.000768745
0.000768741
0.000768745
0.000768705
1.47766e-05
1.48299e-05
1.48296e-05
1.48302e-05
1.47765e-05
-9.53386e-05
-9.5336e-05
-9.53369e-05
-9.53358e-05
-9.53386e-05
-4.48216e-05
-4.48332e-05
-4.48347e-05
-4.4833e-05
-4.48217e-05
-1.60014e-05
-1.60074e-05
-1.60089e-05
-1.60071e-05
-1.60014e-05
-1.20286e-05
-1.203e-05
-1.20315e-05
-1.20297e-05
-1.20286e-05
-1.40208e-05
-1.40215e-05
-1.4023e-05
-1.40213e-05
-1.40208e-05
-1.5141e-05
-1.51422e-05
-1.51437e-05
-1.5142e-05
-1.5141e-05
-1.52743e-05
-1.52758e-05
-1.52773e-05
-1.52756e-05
-1.52743e-05
-1.5174e-05
-1.51755e-05
-1.5177e-05
-1.51753e-05
-1.5174e-05
-1.5109e-05
-1.51105e-05
-1.5112e-05
-1.51103e-05
-1.5109e-05
-1.5083e-05
-1.50845e-05
-1.5086e-05
-1.50843e-05
-1.5083e-05
-1.50659e-05
-1.50674e-05
-1.50689e-05
-1.50672e-05
-1.50659e-05
-1.50472e-05
-1.50487e-05
-1.50501e-05
-1.50484e-05
-1.50471e-05
-1.50266e-05
-1.50281e-05
-1.50295e-05
-1.50279e-05
-1.50266e-05
-1.50055e-05
-1.5007e-05
-1.50083e-05
-1.50067e-05
-1.50055e-05
-1.49842e-05
-1.49856e-05
-1.4987e-05
-1.49854e-05
-1.49841e-05
-1.49627e-05
-1.49641e-05
-1.49654e-05
-1.49639e-05
-1.49626e-05
-1.49409e-05
-1.49424e-05
-1.49437e-05
-1.49421e-05
-1.49409e-05
-1.4919e-05
-1.49204e-05
-1.49217e-05
-1.49201e-05
-1.49189e-05
-1.48967e-05
-1.48981e-05
-1.48994e-05
-1.48979e-05
-1.48967e-05
-1.48743e-05
-1.48756e-05
-1.48769e-05
-1.48754e-05
-1.48742e-05
-1.48515e-05
-1.48529e-05
-1.48541e-05
-1.48526e-05
-1.48515e-05
-1.48285e-05
-1.48298e-05
-1.48311e-05
-1.48296e-05
-1.48285e-05
-1.48053e-05
-1.48066e-05
-1.48078e-05
-1.48063e-05
-1.48052e-05
-1.47818e-05
-1.4783e-05
-1.47842e-05
-1.47828e-05
-1.47817e-05
-1.4758e-05
-1.47592e-05
-1.47604e-05
-1.4759e-05
-1.47579e-05
-1.4734e-05
-1.47352e-05
-1.47363e-05
-1.4735e-05
-1.47339e-05
-1.47097e-05
-1.47108e-05
-1.47119e-05
-1.47106e-05
-1.47096e-05
-1.46851e-05
-1.46862e-05
-1.46873e-05
-1.4686e-05
-1.4685e-05
-1.46602e-05
-1.46613e-05
-1.46624e-05
-1.46611e-05
-1.46601e-05
-1.46351e-05
-1.46362e-05
-1.46372e-05
-1.4636e-05
-1.4635e-05
-1.46097e-05
-1.46107e-05
-1.46117e-05
-1.46105e-05
-1.46096e-05
-1.4584e-05
-1.4585e-05
-1.4586e-05
-1.45848e-05
-1.45839e-05
-1.4558e-05
-1.4559e-05
-1.45599e-05
-1.45588e-05
-1.45579e-05
-1.45317e-05
-1.45327e-05
-1.45336e-05
-1.45325e-05
-1.45316e-05
-1.45051e-05
-1.45061e-05
-1.4507e-05
-1.45059e-05
-1.45051e-05
-1.44783e-05
-1.44792e-05
-1.44801e-05
-1.4479e-05
-1.44782e-05
-1.44511e-05
-1.4452e-05
-1.44528e-05
-1.44518e-05
-1.4451e-05
-1.44236e-05
-1.44245e-05
-1.44253e-05
-1.44243e-05
-1.44236e-05
-1.43959e-05
-1.43967e-05
-1.43975e-05
-1.43965e-05
-1.43958e-05
-1.43678e-05
-1.43686e-05
-1.43694e-05
-1.43684e-05
-1.43677e-05
-1.43394e-05
-1.43402e-05
-1.43409e-05
-1.434e-05
-1.43393e-05
-1.43107e-05
-1.43114e-05
-1.43122e-05
-1.43113e-05
-1.43106e-05
-1.42817e-05
-1.42824e-05
-1.42831e-05
-1.42822e-05
-1.42816e-05
-1.42523e-05
-1.4253e-05
-1.42537e-05
-1.42529e-05
-1.42522e-05
-1.42226e-05
-1.42233e-05
-1.42239e-05
-1.42232e-05
-1.42226e-05
-1.41926e-05
-1.41933e-05
-1.41939e-05
-1.41931e-05
-1.41926e-05
-1.41623e-05
-1.41629e-05
-1.41635e-05
-1.41628e-05
-1.41622e-05
-1.41316e-05
-1.41322e-05
-1.41328e-05
-1.41321e-05
-1.41315e-05
-1.41006e-05
-1.41012e-05
-1.41017e-05
-1.41011e-05
-1.41005e-05
-1.40692e-05
-1.40698e-05
-1.40703e-05
-1.40697e-05
-1.40692e-05
-1.40375e-05
-1.40381e-05
-1.40386e-05
-1.4038e-05
-1.40375e-05
-1.40055e-05
-1.4006e-05
-1.40065e-05
-1.40059e-05
-1.40054e-05
-1.39731e-05
-1.39736e-05
-1.3974e-05
-1.39735e-05
-1.3973e-05
-1.39403e-05
-1.39408e-05
-1.39412e-05
-1.39407e-05
-1.39402e-05
-1.39072e-05
-1.39076e-05
-1.3908e-05
-1.39075e-05
-1.39071e-05
-1.38737e-05
-1.38741e-05
-1.38745e-05
-1.3874e-05
-1.38736e-05
-1.38398e-05
-1.38402e-05
-1.38406e-05
-1.38401e-05
-1.38397e-05
-1.38056e-05
-1.38059e-05
-1.38063e-05
-1.38058e-05
-1.38055e-05
-1.37709e-05
-1.37713e-05
-1.37716e-05
-1.37712e-05
-1.37709e-05
-1.37359e-05
-1.37363e-05
-1.37366e-05
-1.37362e-05
-1.37359e-05
-1.37005e-05
-1.37008e-05
-1.37011e-05
-1.37008e-05
-1.37005e-05
-1.36647e-05
-1.3665e-05
-1.36653e-05
-1.3665e-05
-1.36647e-05
-1.36286e-05
-1.36288e-05
-1.36291e-05
-1.36288e-05
-1.36285e-05
-1.3592e-05
-1.35922e-05
-1.35925e-05
-1.35922e-05
-1.35919e-05
-1.3555e-05
-1.35552e-05
-1.35555e-05
-1.35552e-05
-1.3555e-05
-1.35176e-05
-1.35178e-05
-1.3518e-05
-1.35178e-05
-1.35176e-05
-1.34798e-05
-1.348e-05
-1.34802e-05
-1.348e-05
-1.34798e-05
-1.34416e-05
-1.34418e-05
-1.34419e-05
-1.34417e-05
-1.34415e-05
-1.34029e-05
-1.34031e-05
-1.34033e-05
-1.34031e-05
-1.34029e-05
-1.33638e-05
-1.3364e-05
-1.33642e-05
-1.3364e-05
-1.33638e-05
-1.33243e-05
-1.33245e-05
-1.33246e-05
-1.33244e-05
-1.33243e-05
-1.32844e-05
-1.32845e-05
-1.32846e-05
-1.32845e-05
-1.32844e-05
-1.3244e-05
-1.32441e-05
-1.32442e-05
-1.32441e-05
-1.3244e-05
-1.32032e-05
-1.32033e-05
-1.32034e-05
-1.32032e-05
-1.32031e-05
-1.31619e-05
-1.3162e-05
-1.31621e-05
-1.31619e-05
-1.31618e-05
-1.31201e-05
-1.31202e-05
-1.31203e-05
-1.31202e-05
-1.31201e-05
-1.30779e-05
-1.3078e-05
-1.30781e-05
-1.3078e-05
-1.30779e-05
-1.30352e-05
-1.30353e-05
-1.30354e-05
-1.30353e-05
-1.30352e-05
-1.29921e-05
-1.29921e-05
-1.29922e-05
-1.29921e-05
-1.29921e-05
-1.29485e-05
-1.29485e-05
-1.29485e-05
-1.29485e-05
-1.29484e-05
-1.29043e-05
-1.29044e-05
-1.29044e-05
-1.29044e-05
-1.29043e-05
)
;

boundaryField
{
    BotWall
    {
        type            fixedFluxPressure;
        gradient        uniform 0;
        value           nonuniform List<scalar> 5(0.457293 0.457309 0.457295 0.457309 0.457293);
    }
    FreeStream
    {
        type            totalPressure;
        rho             rho;
        psi             none;
        gamma           1;
        p0              uniform 0;
        value           nonuniform List<scalar> 5(-1.28822e-05 -1.28822e-05 -1.28822e-05 -1.28822e-05 -1.28821e-05);
    }
    FrontNBack
    {
        type            empty;
    }
    LeftSide
    {
        type            symmetryPlane;
    }
    RightSide
    {
        type            symmetryPlane;
    }
}


// ************************************************************************* //
