/*--------------------------------*- C++ -*----------------------------------*\
| =========                 |                                                 |
| \\      /  F ield         | OpenFOAM: The Open Source CFD Toolbox           |
|  \\    /   O peration     | Version:  2.4.0                                 |
|   \\  /    A nd           | Web:      www.OpenFOAM.org                      |
|    \\/     M anipulation  |                                                 |
\*---------------------------------------------------------------------------*/
FoamFile
{
    version     2.0;
    format      ascii;
    class       surfaceScalarField;
    location    "1.6";
    object      phi;
}
// * * * * * * * * * * * * * * * * * * * * * * * * * * * * * * * * * * * * * //

dimensions      [0 3 -1 0 0 0 0];

internalField   nonuniform List<scalar> 
895
(
1.0796e-18
-1.07992e-18
6.50732e-19
4.28545e-19
-6.63833e-19
1.31398e-18
-1.10106e-18
4.36693e-19
-1.10193e-18
3.30393e-18
-4.39316e-18
1.97433e-18
1.7426e-18
-2.01429e-18
5.28066e-18
-3.36915e-18
1.77414e-18
-4.48373e-18
5.60862e-18
-1.00128e-17
3.33746e-18
3.99644e-18
-3.40575e-18
1.20001e-17
-5.71988e-18
4.06985e-18
-1.02164e-17
8.00878e-18
-1.80336e-17
4.75237e-18
7.23443e-18
-4.85039e-18
2.15781e-17
-8.1692e-18
7.36978e-18
-1.83983e-17
1.04857e-17
-2.8532e-17
6.21027e-18
1.1491e-17
-6.3395e-18
3.41027e-17
-1.06967e-17
1.17081e-17
-2.91074e-17
1.30719e-17
-4.16168e-17
7.72678e-18
1.68174e-17
-7.8884e-18
4.96932e-17
-1.33351e-17
1.71364e-17
-4.24544e-17
1.57414e-17
-5.73709e-17
9.28908e-18
2.32514e-17
-9.48438e-18
6.84429e-17
-1.60588e-17
2.36934e-17
-5.85244e-17
1.85311e-17
-7.59143e-17
1.09151e-17
3.08501e-17
-1.11455e-17
9.04812e-17
-1.89048e-17
3.14365e-17
-7.74393e-17
2.14016e-17
-9.73273e-17
1.25907e-17
3.96451e-17
-1.28573e-17
1.15909e-16
-2.1834e-17
4.03986e-17
-9.92821e-17
2.43839e-17
-1.21722e-16
1.43416e-17
4.96732e-17
-1.46459e-17
1.44879e-16
-2.48774e-17
5.06176e-17
-1.24167e-16
2.74686e-17
-1.49199e-16
1.61582e-17
6.09717e-17
-1.65018e-17
1.77524e-16
-2.80252e-17
6.21308e-17
-1.52198e-16
3.0837e-17
-1.80043e-16
1.80643e-17
7.37356e-17
-1.84492e-17
2.14027e-16
-3.14594e-17
7.51339e-17
-1.83661e-16
3.45953e-17
-2.14642e-16
1.98958e-17
8.84302e-17
-2.03245e-17
2.54241e-16
-3.52887e-17
9.00943e-17
-2.18951e-16
3.84292e-17
-4.65837e-16
2.18612e-17
1.04998e-16
-2.23319e-17
2.98434e-16
-3.92059e-17
1.06968e-16
-4.75199e-16
4.10629e-17
-3.36157e-10
2.43673e-17
-3.36158e-10
-2.48722e-17
-3.36158e-10
-4.1955e-17
-3.36158e-10
-3.36157e-10
4.22651e-17
-3.36157e-10
2.46689e-17
-3.36158e-10
-2.52076e-17
-3.36158e-10
-4.31414e-17
-3.36158e-10
-3.36157e-10
4.70849e-17
-3.36157e-10
2.40573e-17
-3.36158e-10
-2.44332e-17
-3.36158e-10
-4.79247e-17
-3.36158e-10
-3.36157e-10
3.90205e-17
-3.36157e-10
2.33042e-17
-3.36158e-10
-2.35077e-17
-3.36158e-10
-3.97835e-17
-3.36158e-10
-3.36157e-10
3.58811e-17
-3.36157e-10
2.16606e-17
-3.36158e-10
-2.16925e-17
-3.36158e-10
-3.65742e-17
-3.36158e-10
-3.36157e-10
3.43743e-17
-3.36157e-10
2.0132e-17
-3.36158e-10
-1.99951e-17
-3.36158e-10
-3.50013e-17
-3.36158e-10
-3.36157e-10
3.24867e-17
-3.36157e-10
1.88504e-17
-3.36158e-10
-1.85488e-17
-3.36158e-10
-3.30478e-17
-3.36158e-10
-3.36157e-10
3.02161e-17
-3.36157e-10
1.76236e-17
-3.36158e-10
-1.71612e-17
-3.36158e-10
-3.07107e-17
-3.36158e-10
-3.36157e-10
2.79425e-17
-3.36157e-10
1.63848e-17
-3.36158e-10
-1.57658e-17
-3.36158e-10
-2.83701e-17
-3.36158e-10
-3.36157e-10
2.57811e-17
-3.36157e-10
1.51546e-17
-3.36158e-10
-1.43831e-17
-3.36158e-10
-2.61418e-17
-3.36158e-10
-3.36157e-10
2.37045e-17
-3.36157e-10
1.39544e-17
-3.36158e-10
-1.30347e-17
-3.36158e-10
-2.39981e-17
-3.36158e-10
-3.36157e-10
2.1684e-17
-3.36158e-10
1.27892e-17
-3.36158e-10
-1.17258e-17
-3.36158e-10
-2.19107e-17
-3.36158e-10
-3.36158e-10
1.97148e-17
-3.36158e-10
1.16574e-17
-3.36158e-10
-1.04549e-17
-3.36158e-10
-1.98747e-17
-3.36158e-10
-3.36158e-10
1.78006e-17
-3.36158e-10
1.05583e-17
-3.36158e-10
-9.22134e-18
-3.36158e-10
-1.7894e-17
-3.36158e-10
-3.36158e-10
1.59444e-17
-3.36158e-10
9.49203e-18
-3.36158e-10
-8.02555e-18
-3.36158e-10
-1.59717e-17
-3.36158e-10
-3.36158e-10
1.41474e-17
-3.36158e-10
8.45943e-18
-3.36158e-10
-6.86837e-18
-3.36158e-10
-1.4109e-17
-3.36158e-10
-3.36158e-10
1.24102e-17
-3.36158e-10
7.46108e-18
-3.36158e-10
-5.75051e-18
-3.36158e-10
-1.23068e-17
-3.36158e-10
-3.36158e-10
1.07334e-17
-3.36158e-10
6.49745e-18
-3.36158e-10
-4.67256e-18
-3.36158e-10
-1.05657e-17
-3.36158e-10
-3.36158e-10
9.11785e-18
-3.36158e-10
5.56895e-18
-3.36158e-10
-3.635e-18
-3.36158e-10
-8.88661e-18
-3.36158e-10
-3.36158e-10
7.56406e-18
-3.36158e-10
4.67595e-18
-3.36158e-10
-2.63831e-18
-3.36158e-10
-7.27021e-18
-3.36158e-10
-3.36158e-10
6.07259e-18
-3.36158e-10
3.81877e-18
-3.36158e-10
-1.68287e-18
-3.36158e-10
-5.71715e-18
-3.36158e-10
-3.36158e-10
4.64389e-18
-3.36158e-10
2.9977e-18
-3.36158e-10
-7.69047e-19
-3.36158e-10
-4.22797e-18
-3.36158e-10
-3.36158e-10
3.27833e-18
-3.36158e-10
2.21295e-18
-3.36158e-10
1.02878e-19
-3.36158e-10
-2.80314e-18
-3.36158e-10
-3.36158e-10
1.97617e-18
-3.36158e-10
1.46471e-18
-3.36158e-10
9.32674e-19
-3.36158e-10
-1.44304e-18
-3.36158e-10
-3.36158e-10
7.37616e-19
-3.36158e-10
7.53098e-19
-3.36158e-10
1.72017e-18
-3.36158e-10
-1.47952e-19
-3.36158e-10
-3.36158e-10
-4.37233e-19
-3.36158e-10
7.81997e-20
-3.36158e-10
2.46526e-18
-3.36158e-10
1.08192e-18
-3.36158e-10
-3.36158e-10
-1.54836e-18
-3.36158e-10
-5.59964e-19
-3.36158e-10
3.16789e-18
-3.36158e-10
2.24648e-18
-3.36158e-10
-3.36158e-10
-2.59584e-18
-3.36158e-10
-1.16142e-18
-3.36158e-10
3.82808e-18
-3.36158e-10
3.34569e-18
-3.36158e-10
-3.36158e-10
-3.57984e-18
-3.36158e-10
-1.72625e-18
-3.36158e-10
4.44591e-18
-3.36158e-10
4.37965e-18
-3.36158e-10
-3.36158e-10
-4.50061e-18
-3.36158e-10
-2.25459e-18
-3.36158e-10
5.02153e-18
-3.36158e-10
5.34852e-18
-3.36158e-10
-3.36158e-10
-5.3585e-18
-3.36158e-10
-2.74663e-18
-3.36158e-10
5.55513e-18
-3.36158e-10
6.25257e-18
-3.36158e-10
-3.36158e-10
-6.15394e-18
-3.36158e-10
-3.2026e-18
-3.36158e-10
6.04699e-18
-3.36158e-10
7.09215e-18
-3.36158e-10
-3.36158e-10
-6.88747e-18
-3.36158e-10
-3.62279e-18
-3.36158e-10
6.49746e-18
-3.36158e-10
7.86774e-18
-3.36158e-10
-3.36158e-10
-7.55969e-18
-3.36158e-10
-4.00757e-18
-3.36158e-10
6.90692e-18
-3.36158e-10
8.57987e-18
-3.36158e-10
-3.36158e-10
-8.17131e-18
-3.36158e-10
-4.35732e-18
-3.36158e-10
7.27584e-18
-3.36158e-10
9.2292e-18
-3.36158e-10
-3.36158e-10
-8.72314e-18
-3.36158e-10
-4.67249e-18
-3.36158e-10
7.60475e-18
-3.36158e-10
9.81646e-18
-3.36158e-10
-3.36158e-10
-9.21606e-18
-3.36158e-10
-4.9536e-18
-3.36158e-10
7.89426e-18
-3.36158e-10
1.03425e-17
-3.36158e-10
-3.36158e-10
-9.65104e-18
-3.36158e-10
-5.2012e-18
-3.36158e-10
8.14501e-18
-3.36158e-10
1.08082e-17
-3.36158e-10
-3.36158e-10
-1.00292e-17
-3.36158e-10
-5.4159e-18
-3.36158e-10
8.35772e-18
-3.36158e-10
1.12147e-17
-3.36158e-10
-3.36158e-10
-1.03515e-17
-3.36158e-10
-5.59835e-18
-3.36158e-10
8.53318e-18
-3.36158e-10
1.15631e-17
-3.36158e-10
-3.36158e-10
-1.06194e-17
-3.36158e-10
-5.74927e-18
-3.36158e-10
8.67223e-18
-3.36158e-10
1.18544e-17
-3.36158e-10
-3.36158e-10
-1.08341e-17
-3.36158e-10
-5.86942e-18
-3.36158e-10
8.77578e-18
-3.36158e-10
1.20902e-17
-3.36158e-10
-3.36157e-10
-1.09971e-17
-3.36158e-10
-5.95959e-18
-3.36158e-10
8.84478e-18
-3.36158e-10
1.22716e-17
-3.36158e-10
-3.36157e-10
-1.11097e-17
-3.36158e-10
-6.02064e-18
-3.36158e-10
8.88026e-18
-3.36158e-10
1.24003e-17
-3.36158e-10
-3.36157e-10
-1.11735e-17
-3.36158e-10
-6.05346e-18
-3.36158e-10
8.88328e-18
-3.36158e-10
1.24778e-17
-3.36158e-10
-3.36157e-10
-1.11903e-17
-3.36157e-10
-6.05901e-18
-3.36158e-10
8.85499e-18
-3.36158e-10
1.25056e-17
-3.36158e-10
-3.36157e-10
-1.11616e-17
-3.36157e-10
-6.03825e-18
-3.36158e-10
8.79656e-18
-3.36158e-10
1.24856e-17
-3.36158e-10
-3.36157e-10
-1.10892e-17
-3.36157e-10
-5.99222e-18
-3.36158e-10
8.70923e-18
-3.36158e-10
1.24195e-17
-3.36158e-10
-3.36157e-10
-1.0975e-17
-3.36157e-10
-5.92199e-18
-3.36158e-10
8.59427e-18
-3.36158e-10
1.23092e-17
-3.36158e-10
-3.36157e-10
-1.08209e-17
-3.36157e-10
-5.82864e-18
-3.36158e-10
8.45302e-18
-3.36158e-10
1.21567e-17
-3.36158e-10
-3.36157e-10
-1.06288e-17
-3.36157e-10
-5.71333e-18
-3.36158e-10
8.28684e-18
-3.36158e-10
1.19638e-17
-3.36158e-10
-3.36157e-10
-1.04008e-17
-3.36157e-10
-5.57722e-18
-3.36158e-10
8.09715e-18
-3.36158e-10
1.17328e-17
-3.36158e-10
-3.36157e-10
-1.01388e-17
-3.36157e-10
-5.42151e-18
-3.36158e-10
7.8854e-18
-3.36158e-10
1.14658e-17
-3.36158e-10
-3.36157e-10
-9.84515e-18
-3.36157e-10
-5.24744e-18
-3.36158e-10
7.65308e-18
-3.36158e-10
1.11649e-17
-3.36158e-10
-3.36157e-10
-9.52187e-18
-3.36157e-10
-5.05628e-18
-3.36158e-10
7.40171e-18
-3.36158e-10
1.08324e-17
-3.36158e-10
-3.36157e-10
-9.17121e-18
-3.36157e-10
-4.8493e-18
-3.36158e-10
7.13284e-18
-3.36158e-10
1.04707e-17
-3.36158e-10
-3.36157e-10
-8.79543e-18
-3.36157e-10
-4.62782e-18
-3.36158e-10
6.84806e-18
-3.36158e-10
1.0082e-17
-3.36158e-10
-3.36157e-10
-8.3968e-18
-3.36157e-10
-4.39317e-18
-3.36158e-10
6.54896e-18
-3.36158e-10
9.66871e-18
-3.36158e-10
-3.36157e-10
-7.97765e-18
-3.36157e-10
-4.14669e-18
-3.36158e-10
6.23718e-18
-3.36158e-10
9.23335e-18
-3.36158e-10
-3.36157e-10
-7.54032e-18
-3.36157e-10
-3.88976e-18
-3.36158e-10
5.91435e-18
-3.36158e-10
8.77834e-18
-3.36158e-10
-3.36157e-10
-7.08718e-18
-3.36157e-10
-3.62375e-18
-3.36158e-10
5.58215e-18
-3.36158e-10
8.30618e-18
-3.36158e-10
-3.36157e-10
-6.62063e-18
-3.36157e-10
-3.35005e-18
-3.36158e-10
5.24223e-18
-3.36158e-10
7.8194e-18
-3.36158e-10
-3.36157e-10
-6.14307e-18
-3.36157e-10
-3.07006e-18
-3.36158e-10
4.89629e-18
-3.36158e-10
7.32055e-18
-3.36158e-10
-3.36157e-10
-5.65692e-18
-3.36157e-10
-2.7852e-18
-3.36158e-10
4.54601e-18
-3.36158e-10
6.81218e-18
-3.36158e-10
-3.36157e-10
-5.16461e-18
-3.36157e-10
-2.49686e-18
-3.36158e-10
4.19307e-18
-3.36158e-10
6.29688e-18
-3.36158e-10
-3.36157e-10
-4.66856e-18
-3.36157e-10
-2.20646e-18
-3.36158e-10
3.83918e-18
-3.36158e-10
5.77725e-18
-3.36158e-10
-3.36157e-10
-4.17122e-18
-3.36157e-10
-1.91543e-18
-3.36158e-10
3.48601e-18
-3.36158e-10
5.25587e-18
-3.36158e-10
-3.36157e-10
-3.67501e-18
-3.36157e-10
-1.62515e-18
-3.36158e-10
3.13524e-18
-3.36158e-10
4.73537e-18
-3.36158e-10
-3.36157e-10
-3.18237e-18
-3.36157e-10
-1.33706e-18
-3.36158e-10
2.78856e-18
-3.36158e-10
4.21833e-18
-3.36158e-10
-3.36157e-10
-2.69572e-18
-3.36157e-10
-1.05254e-18
-3.36158e-10
2.44761e-18
-3.36158e-10
3.70736e-18
-3.36158e-10
-3.36157e-10
-2.21746e-18
-3.36157e-10
-7.7299e-19
-3.36158e-10
2.11406e-18
-3.36158e-10
3.20506e-18
-3.36158e-10
-3.36157e-10
-1.75e-18
-3.36157e-10
-4.998e-19
-3.36158e-10
1.78952e-18
-3.36158e-10
2.71401e-18
-3.36158e-10
-3.36157e-10
-1.29573e-18
-3.36157e-10
-2.34345e-19
-3.36158e-10
1.47561e-18
-3.36158e-10
2.2368e-18
-3.36158e-10
-3.36157e-10
-8.57012e-19
-3.36157e-10
2.20101e-20
-3.36158e-10
1.17393e-18
-3.36158e-10
1.77601e-18
-3.36158e-10
-3.36157e-10
-4.36215e-19
-3.36157e-10
2.6791e-19
-3.36158e-10
8.86049e-19
-3.36158e-10
1.33418e-18
-3.36158e-10
-3.36157e-10
-3.56816e-20
-3.36157e-10
5.02014e-19
-3.36158e-10
6.13524e-19
-3.36158e-10
9.13875e-19
-3.36158e-10
-3.36157e-10
3.4226e-19
-3.36157e-10
7.2299e-19
-3.36158e-10
3.57883e-19
-3.36158e-10
5.17628e-19
-3.36158e-10
-3.36157e-10
6.95294e-19
-3.36157e-10
9.2952e-19
-3.36158e-10
1.20633e-19
-3.36158e-10
1.4797e-19
-3.36158e-10
-3.36157e-10
1.02112e-18
-3.36157e-10
1.1203e-18
-3.36158e-10
-9.67441e-20
-3.36158e-10
-1.92576e-19
-3.36158e-10
-3.36157e-10
1.31743e-18
-3.36157e-10
1.29403e-18
-3.36158e-10
-2.92788e-19
-3.36158e-10
-5.01495e-19
-3.36158e-10
-3.36157e-10
1.58194e-18
-3.36157e-10
1.44943e-18
-3.36158e-10
-4.66059e-19
-3.36158e-10
-7.76267e-19
-3.36158e-10
-3.36157e-10
1.81235e-18
-3.36157e-10
1.5852e-18
-3.36158e-10
-6.15125e-19
-3.36158e-10
-1.01436e-18
-3.36158e-10
-3.36157e-10
2.00633e-18
-3.36157e-10
1.70004e-18
-3.36158e-10
-7.38549e-19
-3.36158e-10
-1.21322e-18
-3.36158e-10
-3.36157e-10
2.16166e-18
-3.36157e-10
1.79272e-18
-3.36158e-10
-8.3499e-19
-3.36158e-10
-1.3704e-18
-3.36158e-10
-3.36157e-10
2.27643e-18
-3.36157e-10
1.86236e-18
-3.36158e-10
-9.03483e-19
-3.36158e-10
-1.48366e-18
-3.36158e-10
-3.36157e-10
2.35479e-18
1.91113e-18
-9.46841e-19
-1.55612e-18
)
;

boundaryField
{
    BotWall
    {
        type            calculated;
        value           nonuniform List<scalar> 5(3.30936e-22 1.41671e-22 2.58379e-22 3.74462e-22 5.95555e-22);
    }
    FreeStream
    {
        type            calculated;
        value           nonuniform List<scalar> 5(-3.36157e-10 -3.36158e-10 -3.36158e-10 -3.36158e-10 -3.36157e-10);
    }
    FrontNBack
    {
        type            empty;
        value           nonuniform 0();
    }
    LeftSide
    {
        type            symmetryPlane;
        value           uniform 0;
    }
    RightSide
    {
        type            symmetryPlane;
        value           uniform 0;
    }
}


// ************************************************************************* //
