/*--------------------------------*- C++ -*----------------------------------*\
| =========                 |                                                 |
| \\      /  F ield         | OpenFOAM: The Open Source CFD Toolbox           |
|  \\    /   O peration     | Version:  2.4.0                                 |
|   \\  /    A nd           | Web:      www.OpenFOAM.org                      |
|    \\/     M anipulation  |                                                 |
\*---------------------------------------------------------------------------*/
FoamFile
{
    version     2.0;
    format      ascii;
    class       volVectorField;
    location    "1.6";
    object      U;
}
// * * * * * * * * * * * * * * * * * * * * * * * * * * * * * * * * * * * * * //

dimensions      [0 1 -1 0 0 0 0];

internalField   nonuniform List<vector> 
500
(
(3.20436e-10 7.78315e-10 0)
(4.70234e-10 7.8985e-10 0)
(-6.64705e-13 7.90649e-10 0)
(-4.78448e-10 7.89864e-10 0)
(-3.2788e-10 7.78308e-10 0)
(9.70097e-10 -2.09596e-09 0)
(1.41773e-09 -2.1067e-09 0)
(-1.99592e-12 -2.09735e-09 0)
(-1.44248e-09 -2.10663e-09 0)
(-9.92535e-10 -2.09621e-09 0)
(1.62973e-09 2.55094e-09 0)
(2.37501e-09 2.64136e-09 0)
(-3.40502e-12 2.66761e-09 0)
(-2.41677e-09 2.64162e-09 0)
(-1.66756e-09 2.55029e-09 0)
(2.30512e-09 -6.02915e-09 0)
(3.3477e-09 -5.99585e-09 0)
(-4.89378e-12 -5.94187e-09 0)
(-3.40705e-09 -5.99536e-09 0)
(-2.35885e-09 -6.03053e-09 0)
(2.98935e-09 9.39058e-09 0)
(4.32878e-09 9.63347e-09 0)
(-6.45496e-12 9.72296e-09 0)
(-4.40601e-09 9.63434e-09 0)
(-3.05918e-09 9.38832e-09 0)
(3.69243e-09 1.33519e-08 0)
(5.32838e-09 1.35123e-08 0)
(-8.05778e-12 1.36501e-08 0)
(-5.42372e-09 1.35136e-08 0)
(-3.77858e-09 1.33484e-08 0)
(4.40464e-09 4.19233e-08 0)
(6.33681e-09 4.23733e-08 0)
(-9.70854e-12 4.25667e-08 0)
(-6.45058e-09 4.23752e-08 0)
(-4.50737e-09 4.19183e-08 0)
(5.1377e-09 -1.00597e-07 0)
(7.36564e-09 -1.00374e-07 0)
(-1.13952e-11 -1.00115e-07 0)
(-7.49816e-09 -1.00372e-07 0)
(-5.2573e-09 -1.00603e-07 0)
(5.87931e-09 -5.42481e-07 0)
(8.40252e-09 -5.42004e-07 0)
(-1.30894e-11 -5.41685e-07 0)
(-8.55414e-09 -5.42e-07 0)
(-6.01615e-09 -5.42489e-07 0)
(6.64308e-09 -8.6421e-07 0)
(9.46076e-09 -8.63534e-07 0)
(-1.481e-11 -8.63149e-07 0)
(-9.63185e-09 -8.6353e-07 0)
(-6.79753e-09 -8.64218e-07 0)
(7.42437e-09 2.37069e-06 0)
(1.05357e-08 2.37377e-06 0)
(-1.65684e-11 2.37433e-06 0)
(-1.07267e-08 2.37378e-06 0)
(-7.59677e-09 2.37068e-06 0)
(8.25369e-09 1.46464e-05 0)
(1.16594e-08 1.46519e-05 0)
(-1.83605e-11 1.4653e-05 0)
(-1.18707e-08 1.46519e-05 0)
(-8.44456e-09 1.46463e-05 0)
(9.11177e-09 2.10311e-05 0)
(1.28084e-08 2.10329e-05 0)
(-2.03129e-11 2.10348e-05 0)
(-1.30411e-08 2.10329e-05 0)
(-9.32197e-09 2.1031e-05 0)
(9.91711e-09 -5.58662e-05 0)
(1.39261e-08 -5.58883e-05 0)
(-2.21325e-11 -5.58887e-05 0)
(-1.4181e-08 -5.58883e-05 0)
(-1.01477e-08 -5.58661e-05 0)
(1.05139e-08 -0.000433367 0)
(1.48625e-08 -0.000433407 0)
(-2.39607e-11 -0.000433415 0)
(-1.51415e-08 -0.000433407 0)
(-1.07667e-08 -0.000433367 0)
(1.08361e-08 -0.0012497 0)
(1.52484e-08 -0.00124967 0)
(-2.4361e-11 -0.00124967 0)
(-1.5532e-08 -0.00124967 0)
(-1.10932e-08 -0.0012497 0)
(1.13129e-08 -0.0028879 0)
(1.54872e-08 -0.00288786 0)
(9.8445e-12 -0.00288786 0)
(-1.5738e-08 -0.00288786 0)
(-1.15701e-08 -0.0028879 0)
(1.00067e-08 -0.00173853 0)
(1.384e-08 -0.00173858 0)
(4.47465e-11 -0.00173858 0)
(-1.40511e-08 -0.00173858 0)
(-1.0258e-08 -0.00173853 0)
(9.14872e-09 -0.00161715 0)
(1.26552e-08 -0.00161716 0)
(7.77448e-11 -0.00161716 0)
(-1.28277e-08 -0.00161716 0)
(-9.39339e-09 -0.00161715 0)
(8.55876e-09 -0.00164528 0)
(1.17559e-08 -0.00164528 0)
(1.09108e-10 -0.00164528 0)
(-1.18912e-08 -0.00164528 0)
(-8.7967e-09 -0.00164528 0)
(7.99121e-09 -0.00167739 0)
(1.08936e-08 -0.00167739 0)
(1.38828e-10 -0.00167739 0)
(-1.09932e-08 -0.00167739 0)
(-8.22215e-09 -0.00167739 0)
(7.3935e-09 -0.00168367 0)
(1.00131e-08 -0.00168367 0)
(1.66941e-10 -0.00168367 0)
(-1.00781e-08 -0.00168367 0)
(-7.61702e-09 -0.00168367 0)
(6.80101e-09 -0.0016822 0)
(9.14948e-09 -0.0016822 0)
(1.93467e-10 -0.0016822 0)
(-9.18097e-09 -0.0016822 0)
(-7.01672e-09 -0.0016822 0)
(6.23497e-09 -0.00168093 0)
(8.32391e-09 -0.00168093 0)
(2.18424e-10 -0.00168093 0)
(-8.32307e-09 -0.00168093 0)
(-6.4425e-09 -0.00168093 0)
(5.6966e-09 -0.00168067 0)
(7.53765e-09 -0.00168067 0)
(2.41831e-10 -0.00168067 0)
(-7.50563e-09 -0.00168067 0)
(-5.89562e-09 -0.00168067 0)
(5.18249e-09 -0.00168073 0)
(6.78715e-09 -0.00168073 0)
(2.6371e-10 -0.00168073 0)
(-6.72516e-09 -0.00168073 0)
(-5.37273e-09 -0.00168073 0)
(4.6909e-09 -0.00168078 0)
(6.07053e-09 -0.00168078 0)
(2.84083e-10 -0.00168078 0)
(-5.97976e-09 -0.00168078 0)
(-4.87209e-09 -0.00168078 0)
(4.22144e-09 -0.00168079 0)
(5.38726e-09 -0.00168079 0)
(3.02977e-10 -0.00168079 0)
(-5.26889e-09 -0.00168079 0)
(-4.39336e-09 -0.00168079 0)
(3.77394e-09 -0.00168079 0)
(4.73699e-09 -0.00168079 0)
(3.20415e-10 -0.00168079 0)
(-4.59224e-09 -0.00168079 0)
(-3.93638e-09 -0.00168079 0)
(3.34809e-09 -0.00168079 0)
(4.11927e-09 -0.00168079 0)
(3.36424e-10 -0.00168079 0)
(-3.94935e-09 -0.00168079 0)
(-3.50089e-09 -0.00168079 0)
(2.94349e-09 -0.00168079 0)
(3.53353e-09 -0.00168079 0)
(3.51034e-10 -0.00168079 0)
(-3.33964e-09 -0.00168079 0)
(-3.08653e-09 -0.00168079 0)
(2.55974e-09 -0.00168079 0)
(2.97916e-09 -0.00168079 0)
(3.64274e-10 -0.00168079 0)
(-2.76252e-09 -0.00168079 0)
(-2.6929e-09 -0.00168079 0)
(2.1964e-09 -0.00168079 0)
(2.45556e-09 -0.00168079 0)
(3.76173e-10 -0.00168079 0)
(-2.21738e-09 -0.00168079 0)
(-2.31961e-09 -0.00168079 0)
(1.85305e-09 -0.00168079 0)
(1.9621e-09 -0.00168079 0)
(3.86764e-10 -0.00168079 0)
(-1.70358e-09 -0.00168079 0)
(-1.96627e-09 -0.00168079 0)
(1.52927e-09 -0.00168079 0)
(1.49814e-09 -0.00168079 0)
(3.96079e-10 -0.00168079 0)
(-1.22049e-09 -0.00168079 0)
(-1.63247e-09 -0.00168079 0)
(1.22459e-09 -0.00168079 0)
(1.06302e-09 -0.00168079 0)
(4.04153e-10 -0.00168079 0)
(-7.67445e-10 -0.00168079 0)
(-1.3178e-09 -0.00168079 0)
(9.38575e-10 -0.00168079 0)
(6.5607e-10 -0.00168079 0)
(4.1102e-10 -0.00168079 0)
(-3.43758e-10 -0.00168079 0)
(-1.02182e-09 -0.00168079 0)
(6.70757e-10 -0.00168079 0)
(2.76597e-10 -0.00168079 0)
(4.16716e-10 -0.00168079 0)
(5.12654e-11 -0.00168079 0)
(-7.44097e-10 -0.00168079 0)
(4.2067e-10 -0.00168079 0)
(-7.60988e-11 -0.00168079 0)
(4.21278e-10 -0.00168079 0)
(4.18337e-10 -0.00168079 0)
(-4.84198e-10 -0.00168079 0)
(1.87839e-10 -0.00168079 0)
(-4.02733e-10 -0.00168079 0)
(4.24744e-10 -0.00168079 0)
(7.58184e-10 -0.00168079 0)
(-2.41668e-10 -0.00168079 0)
(-2.82175e-11 -0.00168079 0)
(-7.04032e-10 -0.00168079 0)
(4.27151e-10 -0.00168079 0)
(1.07155e-09 -0.00168079 0)
(-1.60493e-11 -0.00168079 0)
(-2.27985e-10 -0.00168079 0)
(-9.80735e-10 -0.00168079 0)
(4.2854e-10 -0.00168079 0)
(1.35918e-09 -0.00168079 0)
(1.93121e-10 -0.00168079 0)
(-4.11956e-10 -0.00168079 0)
(-1.23359e-09 -0.00168079 0)
(4.2895e-10 -0.00168079 0)
(1.62184e-09 -0.00168079 0)
(3.86313e-10 -0.00168079 0)
(-5.80625e-10 -0.00168079 0)
(-1.46335e-09 -0.00168079 0)
(4.28422e-10 -0.00168079 0)
(1.86031e-09 -0.00168079 0)
(5.64002e-10 -0.00168079 0)
(-7.34491e-10 -0.00168079 0)
(-1.67078e-09 -0.00168079 0)
(4.26997e-10 -0.00168079 0)
(2.07538e-09 -0.00168079 0)
(7.26668e-10 -0.00168079 0)
(-8.74057e-10 -0.00168079 0)
(-1.85666e-09 -0.00168079 0)
(4.24716e-10 -0.00168079 0)
(2.26783e-09 -0.00168079 0)
(8.74795e-10 -0.00168079 0)
(-9.99827e-10 -0.00168079 0)
(-2.02176e-09 -0.00168079 0)
(4.21622e-10 -0.00168079 0)
(2.43847e-09 -0.00168079 0)
(1.00887e-09 -0.00168079 0)
(-1.11231e-09 -0.00168079 0)
(-2.16687e-09 -0.00168079 0)
(4.17757e-10 -0.00168079 0)
(2.5881e-09 -0.00168079 0)
(1.12939e-09 -0.00168079 0)
(-1.21201e-09 -0.00168079 0)
(-2.29276e-09 -0.00168079 0)
(4.13163e-10 -0.00168079 0)
(2.71753e-09 -0.00168079 0)
(1.23683e-09 -0.00168079 0)
(-1.29944e-09 -0.00168079 0)
(-2.40024e-09 -0.00168079 0)
(4.07884e-10 -0.00168079 0)
(2.82759e-09 -0.00168079 0)
(1.33171e-09 -0.00168079 0)
(-1.37511e-09 -0.00168079 0)
(-2.49009e-09 -0.00168079 0)
(4.01963e-10 -0.00168079 0)
(2.91909e-09 -0.00168079 0)
(1.41451e-09 -0.00168079 0)
(-1.43952e-09 -0.00168079 0)
(-2.56311e-09 -0.00168079 0)
(3.95442e-10 -0.00168079 0)
(2.99285e-09 -0.00168079 0)
(1.48574e-09 -0.00168079 0)
(-1.49319e-09 -0.00168079 0)
(-2.62008e-09 -0.00168079 0)
(3.88366e-10 -0.00168079 0)
(3.0497e-09 -0.00168079 0)
(1.54588e-09 -0.00168079 0)
(-1.53661e-09 -0.00168079 0)
(-2.66179e-09 -0.00168079 0)
(3.80776e-10 -0.00168079 0)
(3.09046e-09 -0.00168079 0)
(1.59544e-09 -0.00168079 0)
(-1.5703e-09 -0.00168079 0)
(-2.68904e-09 -0.00168079 0)
(3.72716e-10 -0.00168079 0)
(3.11594e-09 -0.00168079 0)
(1.63492e-09 -0.00168079 0)
(-1.59475e-09 -0.00168079 0)
(-2.70261e-09 -0.00168079 0)
(3.64229e-10 -0.00168079 0)
(3.12698e-09 -0.00168079 0)
(1.66481e-09 -0.00168079 0)
(-1.61046e-09 -0.00168079 0)
(-2.70328e-09 -0.00168079 0)
(3.55356e-10 -0.00168079 0)
(3.12438e-09 -0.00168079 0)
(1.6856e-09 -0.00168079 0)
(-1.61792e-09 -0.00168079 0)
(-2.69182e-09 -0.00168079 0)
(3.4614e-10 -0.00168079 0)
(3.10896e-09 -0.00168079 0)
(1.69778e-09 -0.00168079 0)
(-1.61763e-09 -0.00168079 0)
(-2.669e-09 -0.00168079 0)
(3.36622e-10 -0.00168079 0)
(3.08152e-09 -0.00168079 0)
(1.70184e-09 -0.00168079 0)
(-1.61006e-09 -0.00168079 0)
(-2.63558e-09 -0.00168079 0)
(3.26843e-10 -0.00168079 0)
(3.04286e-09 -0.00168079 0)
(1.69826e-09 -0.00168079 0)
(-1.5957e-09 -0.00168079 0)
(-2.59232e-09 -0.00168079 0)
(3.16843e-10 -0.00168079 0)
(2.99377e-09 -0.00168079 0)
(1.68753e-09 -0.00168079 0)
(-1.57501e-09 -0.00168079 0)
(-2.53996e-09 -0.00168079 0)
(3.06663e-10 -0.00168079 0)
(2.93504e-09 -0.00168079 0)
(1.67011e-09 -0.00168079 0)
(-1.54846e-09 -0.00168079 0)
(-2.47923e-09 -0.00168079 0)
(2.96339e-10 -0.00168079 0)
(2.86743e-09 -0.00168079 0)
(1.64647e-09 -0.00168079 0)
(-1.51651e-09 -0.00168079 0)
(-2.41085e-09 -0.00168079 0)
(2.85911e-10 -0.00168079 0)
(2.79172e-09 -0.00168079 0)
(1.61708e-09 -0.00168079 0)
(-1.47961e-09 -0.00168079 0)
(-2.33553e-09 -0.00168079 0)
(2.75416e-10 -0.00168079 0)
(2.70864e-09 -0.00168079 0)
(1.58239e-09 -0.00168079 0)
(-1.43821e-09 -0.00168079 0)
(-2.25397e-09 -0.00168079 0)
(2.64889e-10 -0.00168079 0)
(2.61894e-09 -0.00168079 0)
(1.54286e-09 -0.00168079 0)
(-1.39273e-09 -0.00168079 0)
(-2.16685e-09 -0.00168079 0)
(2.54366e-10 -0.00168079 0)
(2.52334e-09 -0.00168079 0)
(1.49892e-09 -0.00168079 0)
(-1.34361e-09 -0.00168079 0)
(-2.07485e-09 -0.00168079 0)
(2.43879e-10 -0.00168079 0)
(2.42255e-09 -0.00168079 0)
(1.45101e-09 -0.00168079 0)
(-1.29125e-09 -0.00168079 0)
(-1.9786e-09 -0.00168079 0)
(2.33462e-10 -0.00168079 0)
(2.31727e-09 -0.00168079 0)
(1.39955e-09 -0.00168079 0)
(-1.23608e-09 -0.00168079 0)
(-1.87876e-09 -0.00168079 0)
(2.23147e-10 -0.00168079 0)
(2.20816e-09 -0.00168079 0)
(1.34497e-09 -0.00168079 0)
(-1.17847e-09 -0.00168079 0)
(-1.77594e-09 -0.00168079 0)
(2.12963e-10 -0.00168079 0)
(2.09591e-09 -0.00168079 0)
(1.28768e-09 -0.00168079 0)
(-1.11883e-09 -0.00168079 0)
(-1.67074e-09 -0.00168079 0)
(2.02938e-10 -0.00168079 0)
(1.98114e-09 -0.00168079 0)
(1.22806e-09 -0.00168079 0)
(-1.05752e-09 -0.00168079 0)
(-1.56375e-09 -0.00168079 0)
(1.93101e-10 -0.00168079 0)
(1.86448e-09 -0.00168079 0)
(1.16651e-09 -0.00168079 0)
(-9.9491e-10 -0.00168079 0)
(-1.45553e-09 -0.00168079 0)
(1.83476e-10 -0.00168079 0)
(1.74654e-09 -0.00168079 0)
(1.10342e-09 -0.00168079 0)
(-9.31356e-10 -0.00168079 0)
(-1.34664e-09 -0.00168079 0)
(1.74089e-10 -0.00168079 0)
(1.62791e-09 -0.00168079 0)
(1.03914e-09 -0.00168079 0)
(-8.672e-10 -0.00168079 0)
(-1.2376e-09 -0.00168079 0)
(1.64962e-10 -0.00168079 0)
(1.50914e-09 -0.00168079 0)
(9.74043e-10 -0.00168079 0)
(-8.02772e-10 -0.00168079 0)
(-1.12892e-09 -0.00168079 0)
(1.56117e-10 -0.00168079 0)
(1.39079e-09 -0.00168079 0)
(9.08473e-10 -0.00168079 0)
(-7.38393e-10 -0.00168079 0)
(-1.02108e-09 -0.00168079 0)
(1.47572e-10 -0.00168079 0)
(1.27339e-09 -0.00168079 0)
(8.42765e-10 -0.00168079 0)
(-6.74371e-10 -0.00168079 0)
(-9.14558e-10 -0.00168079 0)
(1.39347e-10 -0.00168079 0)
(1.15743e-09 -0.00168079 0)
(7.77247e-10 -0.00168079 0)
(-6.11002e-10 -0.00168079 0)
(-8.09797e-10 -0.00168079 0)
(1.31457e-10 -0.00168079 0)
(1.04339e-09 -0.00168079 0)
(7.12233e-10 -0.00168079 0)
(-5.48571e-10 -0.00168079 0)
(-7.07222e-10 -0.00168079 0)
(1.23916e-10 -0.00168079 0)
(9.31741e-10 -0.00168079 0)
(6.48027e-10 -0.00168079 0)
(-4.8735e-10 -0.00168079 0)
(-6.07238e-10 -0.00168079 0)
(1.16739e-10 -0.00168079 0)
(8.22913e-10 -0.00168079 0)
(5.8492e-10 -0.00168079 0)
(-4.27602e-10 -0.00168079 0)
(-5.1023e-10 -0.00168079 0)
(1.09937e-10 -0.00168079 0)
(7.17323e-10 -0.00168079 0)
(5.23193e-10 -0.00168079 0)
(-3.69576e-10 -0.00168079 0)
(-4.1656e-10 -0.00168079 0)
(1.03518e-10 -0.00168079 0)
(6.15364e-10 -0.00168079 0)
(4.63117e-10 -0.00168079 0)
(-3.13511e-10 -0.00168079 0)
(-3.2657e-10 -0.00168079 0)
(9.74915e-11 -0.00168079 0)
(5.17407e-10 -0.00168079 0)
(4.0495e-10 -0.00168079 0)
(-2.59633e-10 -0.00168079 0)
(-2.40583e-10 -0.00168079 0)
(9.18633e-11 -0.00168079 0)
(4.23801e-10 -0.00168079 0)
(3.4894e-10 -0.00168079 0)
(-2.0816e-10 -0.00168079 0)
(-1.58898e-10 -0.00168079 0)
(8.6638e-11 -0.00168079 0)
(3.34874e-10 -0.00168079 0)
(2.95324e-10 -0.00168079 0)
(-1.59297e-10 -0.00168079 0)
(-8.17971e-11 -0.00168079 0)
(8.18187e-11 -0.00168079 0)
(2.50931e-10 -0.00168079 0)
(2.44329e-10 -0.00168079 0)
(-1.1324e-10 -0.00168079 0)
(-9.54217e-12 -0.00168079 0)
(7.74066e-11 -0.00168079 0)
(1.72259e-10 -0.00168079 0)
(1.96173e-10 -0.00168079 0)
(-7.01767e-11 -0.00168079 0)
(5.76246e-11 -0.00168079 0)
(7.34013e-11 -0.00168079 0)
(9.91205e-11 -0.00168079 0)
(1.51063e-10 -0.00168079 0)
(-3.02827e-11 -0.00168079 0)
(1.19479e-10 -0.00168079 0)
(6.98011e-11 -0.00168079 0)
(3.17618e-11 -0.00168079 0)
(1.09197e-10 -0.00168079 0)
(6.27313e-12 -0.00168079 0)
(1.75816e-10 -0.00168079 0)
(6.66024e-11 -0.00168079 0)
(-2.9592e-11 -0.00168079 0)
(7.07665e-11 -0.00168079 0)
(3.93303e-11 -0.00168079 0)
(2.26446e-10 -0.00168079 0)
(6.38001e-11 -0.00168079 0)
(-8.47342e-11 -0.00168079 0)
(3.59531e-11 -0.00168079 0)
(6.87355e-11 -0.00168079 0)
(2.71196e-10 -0.00168079 0)
(6.13877e-11 -0.00168079 0)
(-1.33475e-10 -0.00168079 0)
(4.93268e-12 -0.00168079 0)
(9.43415e-11 -0.00168079 0)
(3.0991e-10 -0.00168079 0)
(5.93572e-11 -0.00168079 0)
(-1.75643e-10 -0.00168079 0)
(-2.21254e-11 -0.00168079 0)
(1.16006e-10 -0.00168079 0)
(3.42445e-10 -0.00168079 0)
(5.76989e-11 -0.00168079 0)
(-2.1108e-10 -0.00168079 0)
(-4.50563e-11 -0.00168079 0)
(1.33593e-10 -0.00168079 0)
(3.6867e-10 -0.00168079 0)
(5.64021e-11 -0.00168079 0)
(-2.39643e-10 -0.00168079 0)
(-6.37004e-11 -0.00168079 0)
(1.46976e-10 -0.00168079 0)
(3.88486e-10 -0.00168079 0)
(5.5454e-11 -0.00168079 0)
(-2.6122e-10 -0.00168079 0)
(-7.79084e-11 -0.00168079 0)
(1.56046e-10 -0.00168079 0)
(4.01827e-10 -0.00168079 0)
(5.48411e-11 -0.00168079 0)
(-2.75731e-10 -0.00168079 0)
(-8.75432e-11 -0.00168079 0)
(1.60697e-10 -0.00168079 0)
(4.08642e-10 -0.00168079 0)
(5.45472e-11 -0.00168079 0)
(-2.83116e-10 -0.00168079 0)
(-9.24735e-11 -0.00168079 0)
)
;

boundaryField
{
    BotWall
    {
        type            fixedValue;
        value           uniform (0 0 0);
    }
    FreeStream
    {
        type            zeroGradient;
    }
    FrontNBack
    {
        type            empty;
    }
    LeftSide
    {
        type            symmetryPlane;
    }
    RightSide
    {
        type            symmetryPlane;
    }
}


// ************************************************************************* //
