/*--------------------------------*- C++ -*----------------------------------*\
| =========                 |                                                 |
| \\      /  F ield         | OpenFOAM: The Open Source CFD Toolbox           |
|  \\    /   O peration     | Version:  2.4.0                                 |
|   \\  /    A nd           | Web:      www.OpenFOAM.org                      |
|    \\/     M anipulation  |                                                 |
\*---------------------------------------------------------------------------*/
FoamFile
{
    version     2.0;
    format      ascii;
    class       volScalarField;
    location    "2.4";
    object      H;
}
// * * * * * * * * * * * * * * * * * * * * * * * * * * * * * * * * * * * * * //

dimensions      [0 2 -2 0 0 0 0];

internalField   nonuniform List<scalar> 
125
(
-17.3493
-17.3456
-17.3419
-17.3442
-17.3498
-17.4462
-17.4426
-17.439
-17.4412
-17.4467
-17.5374
-17.5338
-17.5302
-17.5324
-17.5379
-17.6226
-17.619
-17.6155
-17.6177
-17.6231
-17.7016
-17.6981
-17.6947
-17.6968
-17.702
-17.7742
-17.7707
-17.7673
-17.7694
-17.7746
-17.8401
-17.8367
-17.8334
-17.8354
-17.8405
-17.8991
-17.8958
-17.8925
-17.8946
-17.8995
-17.9511
-17.9478
-17.9446
-17.9466
-17.9515
-17.9957
-17.9924
-17.9893
-17.9913
-17.9961
-18.0327
-18.0295
-18.0265
-18.0284
-18.0331
-18.062
-18.0588
-18.0558
-18.0577
-18.0623
-18.0832
-18.0801
-18.0772
-18.079
-18.0836
-18.0962
-18.0932
-18.0903
-18.0921
-18.0965
-18.1008
-18.0978
-18.0949
-18.0967
-18.1011
-18.0966
-18.0937
-18.0909
-18.0927
-18.0969
-18.0836
-18.0807
-18.078
-18.0797
-18.0839
-18.0614
-18.0586
-18.0559
-18.0576
-18.0617
-18.03
-18.0272
-18.0246
-18.0262
-18.0302
-17.989
-17.9862
-17.9837
-17.9853
-17.9892
-17.9383
-17.9356
-17.9331
-17.9347
-17.9385
-17.8777
-17.875
-17.8726
-17.8741
-17.8778
-17.8069
-17.8043
-17.802
-17.8035
-17.8071
-17.7259
-17.7234
-17.7211
-17.7226
-17.7261
-17.6345
-17.632
-17.6297
-17.6312
-17.6346
)
;

boundaryField
{
    BotWall
    {
        type            zeroGradient;
    }
    FreeStream
    {
        type            zeroGradient;
    }
    FrontNBack
    {
        type            empty;
    }
    LeftSide
    {
        type            symmetryPlane;
    }
    RightSide
    {
        type            symmetryPlane;
    }
    procBoundary1to0
    {
        type            processor;
        value           nonuniform List<scalar> 5(-17.2457 -17.2419 -17.2382 -17.2404 -17.2462);
    }
    procBoundary1to2
    {
        type            processor;
        value           nonuniform List<scalar> 5(-17.5311 -17.5286 -17.5264 -17.5279 -17.5312);
    }
}


// ************************************************************************* //
