/*--------------------------------*- C++ -*----------------------------------*\
| =========                 |                                                 |
| \\      /  F ield         | OpenFOAM: The Open Source CFD Toolbox           |
|  \\    /   O peration     | Version:  2.4.0                                 |
|   \\  /    A nd           | Web:      www.OpenFOAM.org                      |
|    \\/     M anipulation  |                                                 |
\*---------------------------------------------------------------------------*/
FoamFile
{
    version     2.0;
    format      ascii;
    class       volScalarField;
    location    "0.01";
    object      p_rgh;
}
// * * * * * * * * * * * * * * * * * * * * * * * * * * * * * * * * * * * * * //

dimensions      [1 -1 -2 0 0 0 0];

internalField   nonuniform List<scalar> 
125
(
-0.00627744
-0.006256
-0.00623449
-0.0062129
-0.00619123
-0.00616948
-0.00614765
-0.00612574
-0.00610375
-0.00608168
-0.00605953
-0.0060373
-0.00601499
-0.00599259
-0.00597011
-0.00594755
-0.00592491
-0.00590218
-0.00587937
-0.00585648
-0.0058335
-0.00581043
-0.00578729
-0.00576405
-0.00574074
-0.00571733
-0.00569384
-0.00567027
-0.0056466
-0.00562285
-0.00559902
-0.00557509
-0.00555108
-0.00552698
-0.00550279
-0.00547851
-0.00545415
-0.00542969
-0.00540514
-0.0053805
-0.00535578
-0.00533096
-0.00530605
-0.00528105
-0.00525595
-0.00523077
-0.00520549
-0.00518012
-0.00515465
-0.0051291
-0.00510344
-0.0050777
-0.00505186
-0.00502592
-0.00499989
-0.00497376
-0.00494754
-0.00492122
-0.00489481
-0.00486829
-0.00484168
-0.00481497
-0.00478817
-0.00476126
-0.00473426
-0.00470715
-0.00467995
-0.00465265
-0.00462524
-0.00459774
-0.00457014
-0.00454243
-0.00451462
-0.00448671
-0.0044587
-0.00443058
-0.00440236
-0.00437404
-0.00434561
-0.00431708
-0.00428844
-0.0042597
-0.00423085
-0.00420189
-0.00417283
-0.00414367
-0.00411439
-0.00408501
-0.00405552
-0.00402592
-0.00399621
-0.00396639
-0.00393647
-0.00390643
-0.00387628
-0.00384603
-0.00381566
-0.00378518
-0.00375458
-0.00372388
-0.00369306
-0.00366213
-0.00363108
-0.00359992
-0.00356865
-0.00353726
-0.00350576
-0.00347414
-0.0034424
-0.00341055
-0.00337857
-0.00334649
-0.00331428
-0.00328196
-0.00324951
-0.00321695
-0.00318427
-0.00315147
-0.00311854
-0.0030855
-0.00305233
-0.00301905
-0.00298564
-0.0029521
-0.00291844
)
;

boundaryField
{
    BotWall
    {
        type            fixedFluxPressure;
        gradient        nonuniform 0();
        value           nonuniform 0();
    }
    FreeStream
    {
        type            totalPressure;
        rho             rho;
        psi             none;
        gamma           1;
        p0              nonuniform 0();
        value           nonuniform 0();
    }
    FrontNBack
    {
        type            empty;
    }
    LeftSide
    {
        type            symmetryPlane;
    }
    RightSide
    {
        type            symmetryPlane;
    }
    procBoundary5to2
    {
        type            processor;
        value           nonuniform List<scalar> 
50
(
-0.00443196
-0.00440372
-0.00437538
-0.00434693
-0.00431839
-0.00428973
-0.00426097
-0.00423211
-0.00420314
-0.00417407
-0.00414488
-0.00411559
-0.00408619
-0.00405669
-0.00402707
-0.00399735
-0.00396751
-0.00393757
-0.00390752
-0.00387735
-0.00384708
-0.00381669
-0.0037862
-0.00375559
-0.00372486
-0.00369403
-0.00366308
-0.00363201
-0.00360084
-0.00356955
-0.00353814
-0.00350662
-0.00347498
-0.00344322
-0.00341135
-0.00337936
-0.00334726
-0.00331503
-0.00328269
-0.00325023
-0.00321765
-0.00318495
-0.00315212
-0.00311918
-0.00308612
-0.00305294
-0.00301963
-0.0029862
-0.00295265
-0.00291897
)
;
    }
    procBoundary5to3
    {
        type            processor;
        value           nonuniform List<scalar> 
75
(
-0.00628007
-0.00625863
-0.00623711
-0.00621551
-0.00619383
-0.00617207
-0.00615023
-0.00612831
-0.0061063
-0.00608422
-0.00606206
-0.00603981
-0.00601749
-0.00599508
-0.00597259
-0.00595001
-0.00592736
-0.00590462
-0.00588179
-0.00585888
-0.00583589
-0.00581281
-0.00578965
-0.0057664
-0.00574307
-0.00571965
-0.00569615
-0.00567256
-0.00564888
-0.00562511
-0.00560126
-0.00557732
-0.00555329
-0.00552917
-0.00550497
-0.00548067
-0.00545629
-0.00543182
-0.00540725
-0.0053826
-0.00535785
-0.00533302
-0.00530809
-0.00528307
-0.00525796
-0.00523275
-0.00520746
-0.00518207
-0.00515659
-0.00513101
-0.00510534
-0.00507957
-0.00505371
-0.00502776
-0.00500171
-0.00497556
-0.00494932
-0.00492298
-0.00489655
-0.00487001
-0.00484338
-0.00481665
-0.00478983
-0.0047629
-0.00473588
-0.00470875
-0.00468153
-0.0046542
-0.00462678
-0.00459925
-0.00457163
-0.0045439
-0.00451607
-0.00448813
-0.0044601
)
;
    }
    procBoundary5to4
    {
        type            processor;
        value           uniform -0.00288466;
    }
    procBoundary5to6
    {
        type            processor;
        value           uniform -0.00629879;
    }
    procBoundary5to7
    {
        type            processor;
        value           nonuniform List<scalar> 
75
(
-0.0051008
-0.00507506
-0.00504923
-0.00502331
-0.00499729
-0.00497118
-0.00494497
-0.00491867
-0.00489226
-0.00486577
-0.00483917
-0.00481247
-0.00478568
-0.00475879
-0.0047318
-0.00470471
-0.00467752
-0.00465023
-0.00462284
-0.00459535
-0.00456776
-0.00454007
-0.00451227
-0.00448437
-0.00445637
-0.00442827
-0.00440006
-0.00437175
-0.00434334
-0.00431482
-0.0042862
-0.00425747
-0.00422863
-0.00419969
-0.00417064
-0.00414149
-0.00411222
-0.00408285
-0.00405338
-0.00402379
-0.00399409
-0.00396429
-0.00393437
-0.00390435
-0.00387421
-0.00384397
-0.00381361
-0.00378314
-0.00375256
-0.00372187
-0.00369106
-0.00366014
-0.00362911
-0.00359796
-0.00356669
-0.00353532
-0.00350382
-0.00347221
-0.00344049
-0.00340864
-0.00337668
-0.00334461
-0.00331241
-0.0032801
-0.00324766
-0.00321511
-0.00318244
-0.00314965
-0.00311673
-0.0030837
-0.00305054
-0.00301726
-0.00298386
-0.00295034
-0.00291669
)
;
    }
    procBoundary5to8
    {
        type            processor;
        value           nonuniform List<scalar> 
50
(
-0.00627404
-0.00625262
-0.00623113
-0.00620955
-0.0061879
-0.00616617
-0.00614436
-0.00612246
-0.00610049
-0.00607844
-0.0060563
-0.00603409
-0.00601179
-0.00598941
-0.00596695
-0.0059444
-0.00592177
-0.00589906
-0.00587627
-0.00585339
-0.00583042
-0.00580738
-0.00578424
-0.00576103
-0.00573772
-0.00571434
-0.00569086
-0.0056673
-0.00564365
-0.00561992
-0.00559609
-0.00557218
-0.00554819
-0.0055241
-0.00549993
-0.00547566
-0.00545131
-0.00542687
-0.00540233
-0.00537771
-0.005353
-0.00532819
-0.0053033
-0.00527831
-0.00525323
-0.00522806
-0.00520279
-0.00517744
-0.00515198
-0.00512644
)
;
    }
}


// ************************************************************************* //
