/*--------------------------------*- C++ -*----------------------------------*\
| =========                 |                                                 |
| \\      /  F ield         | OpenFOAM: The Open Source CFD Toolbox           |
|  \\    /   O peration     | Version:  2.4.0                                 |
|   \\  /    A nd           | Web:      www.OpenFOAM.org                      |
|    \\/     M anipulation  |                                                 |
\*---------------------------------------------------------------------------*/
FoamFile
{
    version     2.0;
    format      ascii;
    class       surfaceScalarField;
    location    "0.01";
    object      phi;
}
// * * * * * * * * * * * * * * * * * * * * * * * * * * * * * * * * * * * * * //

dimensions      [0 3 -1 0 0 0 0];

internalField   nonuniform List<scalar> 
124
(
-4.20663e-09
-4.20661e-09
-4.2066e-09
-4.20659e-09
-4.20658e-09
-4.20657e-09
-4.20656e-09
-4.20655e-09
-4.20654e-09
-4.20652e-09
-4.20651e-09
-4.2065e-09
-4.20649e-09
-4.20648e-09
-4.20647e-09
-4.20646e-09
-4.20645e-09
-4.20644e-09
-4.20643e-09
-4.20642e-09
-4.20641e-09
-4.2064e-09
-4.20639e-09
-4.20638e-09
-4.20637e-09
-4.20636e-09
-4.20635e-09
-4.20634e-09
-4.20633e-09
-4.20632e-09
-4.20632e-09
-4.20631e-09
-4.2063e-09
-4.20629e-09
-4.20628e-09
-4.20627e-09
-4.20626e-09
-4.20625e-09
-4.20624e-09
-4.20624e-09
-4.20623e-09
-4.20622e-09
-4.20621e-09
-4.2062e-09
-4.20619e-09
-4.20619e-09
-4.20618e-09
-4.20617e-09
-4.20616e-09
-4.20615e-09
-4.20615e-09
-4.20614e-09
-4.20613e-09
-4.20612e-09
-4.20611e-09
-4.20611e-09
-4.2061e-09
-4.20609e-09
-4.20608e-09
-4.20608e-09
-4.20607e-09
-4.20606e-09
-4.20606e-09
-4.20605e-09
-4.20604e-09
-4.20603e-09
-4.20603e-09
-4.20602e-09
-4.20601e-09
-4.20601e-09
-4.206e-09
-4.206e-09
-4.20599e-09
-4.20598e-09
-4.20598e-09
-4.20597e-09
-4.20596e-09
-4.20596e-09
-4.20595e-09
-4.20595e-09
-4.20594e-09
-4.20594e-09
-4.20593e-09
-4.20593e-09
-4.20592e-09
-4.20592e-09
-4.20591e-09
-4.20591e-09
-4.2059e-09
-4.2059e-09
-4.20589e-09
-4.20589e-09
-4.20589e-09
-4.20588e-09
-4.20588e-09
-4.20588e-09
-4.20587e-09
-4.20587e-09
-4.20587e-09
-4.20586e-09
-4.20586e-09
-4.20586e-09
-4.20586e-09
-4.20586e-09
-4.20586e-09
-4.20586e-09
-4.20585e-09
-4.20585e-09
-4.20585e-09
-4.20585e-09
-4.20585e-09
-4.20586e-09
-4.20586e-09
-4.20586e-09
-4.20586e-09
-4.20586e-09
-4.20586e-09
-4.20587e-09
-4.20587e-09
-4.20587e-09
-4.20588e-09
-4.20588e-09
-4.20589e-09
-4.20589e-09
)
;

boundaryField
{
    BotWall
    {
        type            calculated;
        value           nonuniform 0();
    }
    FreeStream
    {
        type            calculated;
        value           nonuniform 0();
    }
    FrontNBack
    {
        type            empty;
        value           nonuniform 0();
    }
    LeftSide
    {
        type            symmetryPlane;
        value           nonuniform 0();
    }
    RightSide
    {
        type            symmetryPlane;
        value           nonuniform 0();
    }
    procBoundary5to2
    {
        type            processor;
        value           nonuniform List<scalar> 
50
(
-2.95343e-15
-2.94831e-15
-2.94299e-15
-2.93746e-15
-2.93171e-15
-2.92569e-15
-2.91939e-15
-2.91278e-15
-2.90584e-15
-2.89853e-15
-2.89083e-15
-2.8827e-15
-2.87414e-15
-2.86509e-15
-2.85555e-15
-2.84548e-15
-2.83485e-15
-2.82365e-15
-2.81183e-15
-2.79939e-15
-2.78628e-15
-2.77248e-15
-2.75796e-15
-2.74269e-15
-2.72663e-15
-2.70975e-15
-2.69201e-15
-2.67336e-15
-2.65375e-15
-2.63313e-15
-2.61144e-15
-2.58861e-15
-2.56458e-15
-2.53926e-15
-2.51259e-15
-2.48448e-15
-2.45484e-15
-2.4236e-15
-2.39067e-15
-2.35598e-15
-2.31947e-15
-2.28107e-15
-2.24075e-15
-2.19848e-15
-2.15427e-15
-2.10815e-15
-2.06016e-15
-2.01041e-15
-1.959e-15
-1.90611e-15
)
;
    }
    procBoundary5to3
    {
        type            processor;
        value           nonuniform List<scalar> 
75
(
-2.80537e-15
-2.82343e-15
-2.84087e-15
-2.8577e-15
-2.87392e-15
-2.88952e-15
-2.90451e-15
-2.91888e-15
-2.93264e-15
-2.94578e-15
-2.95832e-15
-2.97025e-15
-2.98158e-15
-2.99232e-15
-3.00246e-15
-3.01201e-15
-3.02099e-15
-3.02939e-15
-3.03723e-15
-3.04451e-15
-3.05124e-15
-3.05744e-15
-3.0631e-15
-3.06825e-15
-3.07289e-15
-3.07703e-15
-3.08068e-15
-3.08387e-15
-3.0866e-15
-3.08888e-15
-3.09073e-15
-3.09217e-15
-3.09319e-15
-3.09383e-15
-3.0941e-15
-3.094e-15
-3.09357e-15
-3.0928e-15
-3.09172e-15
-3.09034e-15
-3.08868e-15
-3.08676e-15
-3.08459e-15
-3.08219e-15
-3.07957e-15
-3.07674e-15
-3.07374e-15
-3.07057e-15
-3.06724e-15
-3.06378e-15
-3.06019e-15
-3.05649e-15
-3.05269e-15
-3.04881e-15
-3.04485e-15
-3.04083e-15
-3.03676e-15
-3.03264e-15
-3.02849e-15
-3.02432e-15
-3.02012e-15
-3.0159e-15
-3.01167e-15
-3.00743e-15
-3.00317e-15
-2.99889e-15
-2.99459e-15
-2.99026e-15
-2.9859e-15
-2.9815e-15
-2.97704e-15
-2.97252e-15
-2.96791e-15
-2.96321e-15
-2.95839e-15
)
;
    }
    procBoundary5to4
    {
        type            processor;
        value           uniform -4.2059e-09;
    }
    procBoundary5to6
    {
        type            processor;
        value           uniform 4.20664e-09;
    }
    procBoundary5to7
    {
        type            processor;
        value           nonuniform List<scalar> 
75
(
-4.81864e-15
-4.75801e-15
-4.6975e-15
-4.63704e-15
-4.57656e-15
-4.51598e-15
-4.45521e-15
-4.39416e-15
-4.33273e-15
-4.27082e-15
-4.20831e-15
-4.14509e-15
-4.08105e-15
-4.01604e-15
-3.94994e-15
-3.8826e-15
-3.81388e-15
-3.74361e-15
-3.67165e-15
-3.59783e-15
-3.52197e-15
-3.4439e-15
-3.36344e-15
-3.28041e-15
-3.19463e-15
-3.10589e-15
-3.01402e-15
-2.91882e-15
-2.8201e-15
-2.71768e-15
-2.61137e-15
-2.50099e-15
-2.38635e-15
-2.2673e-15
-2.14366e-15
-2.01528e-15
-1.88201e-15
-1.74371e-15
-1.60024e-15
-1.4515e-15
-1.29738e-15
-1.13777e-15
-9.726e-16
-8.01787e-16
-6.25268e-16
-4.42985e-16
-2.54885e-16
-6.09198e-17
1.38842e-16
3.44483e-16
5.56085e-16
7.73681e-16
9.97309e-16
1.22701e-15
1.46285e-15
1.70487e-15
1.95315e-15
2.20777e-15
2.46881e-15
2.73637e-15
3.01052e-15
3.29137e-15
3.57899e-15
3.87343e-15
4.17474e-15
4.48291e-15
4.79789e-15
5.11957e-15
5.44776e-15
5.78219e-15
6.12251e-15
6.46822e-15
6.81874e-15
7.17334e-15
7.53117e-15
)
;
    }
    procBoundary5to8
    {
        type            processor;
        value           nonuniform List<scalar> 
50
(
-8.79838e-15
-8.69295e-15
-8.58874e-15
-8.48576e-15
-8.384e-15
-8.28344e-15
-8.18409e-15
-8.08594e-15
-7.98897e-15
-7.89317e-15
-7.79855e-15
-7.70508e-15
-7.61277e-15
-7.5216e-15
-7.43155e-15
-7.34263e-15
-7.25481e-15
-7.16809e-15
-7.08246e-15
-6.9979e-15
-6.91441e-15
-6.83196e-15
-6.75055e-15
-6.67017e-15
-6.5908e-15
-6.51242e-15
-6.43502e-15
-6.35859e-15
-6.28312e-15
-6.20857e-15
-6.13495e-15
-6.06222e-15
-5.99037e-15
-5.91939e-15
-5.84925e-15
-5.77992e-15
-5.7114e-15
-5.64364e-15
-5.57664e-15
-5.51035e-15
-5.44475e-15
-5.37981e-15
-5.31549e-15
-5.25177e-15
-5.18859e-15
-5.12593e-15
-5.06373e-15
-5.00196e-15
-4.94056e-15
-4.87947e-15
)
;
    }
}


// ************************************************************************* //
