/*--------------------------------*- C++ -*----------------------------------*\
| =========                 |                                                 |
| \\      /  F ield         | OpenFOAM: The Open Source CFD Toolbox           |
|  \\    /   O peration     | Version:  2.4.0                                 |
|   \\  /    A nd           | Web:      www.OpenFOAM.org                      |
|    \\/     M anipulation  |                                                 |
\*---------------------------------------------------------------------------*/
FoamFile
{
    version     2.0;
    format      ascii;
    class       volScalarField;
    location    "1.1";
    object      H;
}
// * * * * * * * * * * * * * * * * * * * * * * * * * * * * * * * * * * * * * //

dimensions      [0 2 -2 0 0 0 0];

internalField   nonuniform List<scalar> 
500
(
-11796.6
-11796.6
-11796.6
-11796.6
-11796.6
-10925.1
-10925.1
-10925.1
-10925.1
-10925.1
-10043.6
-10043.6
-10043.6
-10043.6
-10043.6
-9152.06
-9152.05
-9152.05
-9152.05
-9152.06
-8250.14
-8250.14
-8250.14
-8250.14
-8250.14
-7337.55
-7337.54
-7337.54
-7337.54
-7337.55
-6413.91
-6413.9
-6413.9
-6413.9
-6413.91
-5478.78
-5478.77
-5478.77
-5478.77
-5478.78
-4531.65
-4531.63
-4531.63
-4531.63
-4531.65
-3571.93
-3571.91
-3571.91
-3571.91
-3571.93
-2598.97
-2598.95
-2598.94
-2598.95
-2598.97
-1612.07
-1612.04
-1612.04
-1612.04
-1612.07
-96.1211
-96.1084
-96.1063
-96.1086
-96.122
-73.6704
-73.6605
-73.6588
-73.6607
-73.671
-74.5418
-74.532
-74.5303
-74.5322
-74.5425
-75.3265
-75.3168
-75.3152
-75.317
-75.3272
-76.0224
-76.0128
-76.0112
-76.013
-76.023
-76.6274
-76.6179
-76.6163
-76.6181
-76.628
-77.1397
-77.1304
-77.1288
-77.1306
-77.1403
-77.5578
-77.5486
-77.547
-77.5488
-77.5584
-77.8802
-77.8712
-77.8696
-77.8714
-77.8808
-78.1058
-78.097
-78.0955
-78.0972
-78.1064
-78.2337
-78.2251
-78.2236
-78.2253
-78.2343
-78.2633
-78.2548
-78.2534
-78.255
-78.2639
-78.1941
-78.1859
-78.1845
-78.186
-78.1947
-78.0261
-78.0181
-78.0167
-78.0182
-78.0266
-77.7594
-77.7516
-77.7503
-77.7518
-77.7599
-77.3946
-77.387
-77.3858
-77.3872
-77.3951
-76.9323
-76.9251
-76.9239
-76.9252
-76.9328
-76.3739
-76.3669
-76.3657
-76.367
-76.3743
-75.7206
-75.7139
-75.7127
-75.714
-75.721
-74.9742
-74.9678
-74.9667
-74.9679
-74.9746
-74.1368
-74.1306
-74.1297
-74.1308
-74.1372
-73.2108
-73.2049
-73.204
-73.205
-73.2111
-72.1988
-72.1933
-72.1924
-72.1934
-72.1992
-71.104
-71.0987
-71.0979
-71.0988
-71.1043
-69.9296
-69.9247
-69.9239
-69.9247
-69.9299
-68.6793
-68.6746
-68.674
-68.6747
-68.6795
-67.3569
-67.3526
-67.352
-67.3526
-67.3572
-65.9667
-65.9627
-65.9621
-65.9627
-65.9669
-64.513
-64.5093
-64.5089
-64.5094
-64.5133
-63.0006
-62.9972
-62.9968
-62.9973
-63.0008
-61.4344
-61.4313
-61.4309
-61.4313
-61.4346
-59.8193
-59.8165
-59.8162
-59.8165
-59.8195
-58.1607
-58.1582
-58.158
-58.1582
-58.1608
-56.4639
-56.4616
-56.4615
-56.4617
-56.464
-54.7343
-54.7324
-54.7323
-54.7324
-54.7344
-52.9777
-52.976
-52.9759
-52.976
-52.9777
-51.1995
-51.198
-51.198
-51.198
-51.1995
-49.4053
-49.4041
-49.4042
-49.4041
-49.4054
-47.6009
-47.5999
-47.6001
-47.5999
-47.6009
-45.7917
-45.791
-45.7911
-45.791
-45.7917
-43.9833
-43.9827
-43.9829
-43.9827
-43.9832
-42.1808
-42.1805
-42.1807
-42.1805
-42.1808
-40.3896
-40.3895
-40.3897
-40.3894
-40.3896
-38.6147
-38.6147
-38.615
-38.6147
-38.6147
-36.8608
-36.8609
-36.8613
-36.8609
-36.8607
-35.1325
-35.1327
-35.1331
-35.1327
-35.1324
-33.434
-33.4344
-33.4347
-33.4344
-33.4339
-31.7693
-31.7698
-31.7702
-31.7698
-31.7692
-30.1421
-30.1427
-30.1431
-30.1427
-30.142
-28.5557
-28.5564
-28.5568
-28.5563
-28.5556
-27.013
-27.0137
-27.0141
-27.0137
-27.0129
-25.5166
-25.5174
-25.5178
-25.5174
-25.5165
-24.0688
-24.0696
-24.07
-24.0696
-24.0687
-22.6713
-22.6722
-22.6726
-22.6722
-22.6712
-21.3257
-21.3266
-21.327
-21.3265
-21.3256
-20.0329
-20.0338
-20.0342
-20.0338
-20.0328
-18.7937
-18.7947
-18.7951
-18.7946
-18.7936
-17.6085
-17.6094
-17.6098
-17.6094
-17.6084
-16.4771
-16.4781
-16.4784
-16.478
-16.4771
-15.3993
-15.4002
-15.4006
-15.4002
-15.3992
-14.3744
-14.3753
-14.3756
-14.3753
-14.3743
-13.4014
-13.4023
-13.4026
-13.4022
-13.4013
-12.4791
-12.4799
-12.4802
-12.4799
-12.479
-11.606
-11.6068
-11.6071
-11.6068
-11.606
-10.7805
-10.7813
-10.7815
-10.7812
-10.7805
-10.0007
-10.0014
-10.0017
-10.0014
-10.0007
-9.26466
-9.2653
-9.26552
-9.26527
-9.2646
-8.57014
-8.57074
-8.57094
-8.57072
-8.57009
-7.91499
-7.91554
-7.91572
-7.91552
-7.91494
-7.29692
-7.29742
-7.29759
-7.29741
-7.29687
-6.71363
-6.71409
-6.71424
-6.71407
-6.71358
-6.1628
-6.16321
-6.16335
-6.1632
-6.16276
-5.64214
-5.64252
-5.64264
-5.6425
-5.64211
-5.1494
-5.14974
-5.14985
-5.14973
-5.14937
-4.68239
-4.68269
-4.68279
-4.68268
-4.68237
-4.23901
-4.23928
-4.23936
-4.23927
-4.23899
-3.81724
-3.81747
-3.81755
-3.81747
-3.81722
-3.41518
-3.41538
-3.41544
-3.41537
-3.41516
-3.03103
-3.03121
-3.03126
-3.0312
-3.03102
-2.66313
-2.66328
-2.66333
-2.66328
-2.66312
-2.30993
-2.31006
-2.3101
-2.31005
-2.30992
-1.97
-1.97011
-1.97014
-1.9701
-1.96999
-1.64204
-1.64212
-1.64215
-1.64212
-1.64203
-1.32483
-1.3249
-1.32492
-1.32489
-1.32482
-1.01728
-1.01733
-1.01735
-1.01733
-1.01728
-0.718382
-0.718417
-0.718428
-0.718416
-0.718379
-0.427181
-0.427201
-0.427207
-0.4272
-0.427179
-0.142786
-0.142793
-0.142795
-0.142792
-0.142785
)
;

boundaryField
{
    BotWall
    {
        type            zeroGradient;
    }
    FreeStream
    {
        type            zeroGradient;
    }
    FrontNBack
    {
        type            empty;
    }
    LeftSide
    {
        type            symmetryPlane;
    }
    RightSide
    {
        type            symmetryPlane;
    }
}


// ************************************************************************* //
