/*--------------------------------*- C++ -*----------------------------------*\
| =========                 |                                                 |
| \\      /  F ield         | OpenFOAM: The Open Source CFD Toolbox           |
|  \\    /   O peration     | Version:  2.4.0                                 |
|   \\  /    A nd           | Web:      www.OpenFOAM.org                      |
|    \\/     M anipulation  |                                                 |
\*---------------------------------------------------------------------------*/
FoamFile
{
    version     2.0;
    format      ascii;
    class       volScalarField;
    location    "1.1";
    object      p;
}
// * * * * * * * * * * * * * * * * * * * * * * * * * * * * * * * * * * * * * //

dimensions      [1 -1 -2 0 0 0 0];

internalField   nonuniform List<scalar> 
500
(
0.362606
0.36261
0.362601
0.36261
0.362605
0.332659
0.332662
0.332653
0.332662
0.332659
0.302812
0.302816
0.302807
0.302816
0.302812
0.272368
0.272371
0.272363
0.272371
0.272368
0.24036
0.240363
0.240354
0.240363
0.240359
0.203925
0.203925
0.203917
0.203925
0.203924
0.168821
0.168825
0.168817
0.168825
0.16882
0.170424
0.170448
0.17044
0.170448
0.170424
0.268389
0.268444
0.268439
0.268444
0.268387
0.328704
0.328726
0.328726
0.328725
0.328701
-0.573741
-0.573946
-0.573961
-0.573945
-0.573739
-3.81282
-3.81338
-3.81345
-3.81338
-3.81279
-6.78031
-6.78112
-6.78127
-6.78111
-6.78025
-0.0165249
-0.0165246
-0.0165246
-0.0165246
-0.0165249
-0.00456886
-0.00456913
-0.00456914
-0.00456913
-0.00456885
-0.00728455
-0.00728448
-0.00728448
-0.00728448
-0.00728455
-0.00887061
-0.00887055
-0.00887055
-0.00887055
-0.00887061
-0.00957474
-0.00957474
-0.00957474
-0.00957474
-0.00957474
-0.0100945
-0.0100945
-0.0100945
-0.0100945
-0.0100945
-0.0106595
-0.0106595
-0.0106595
-0.0106595
-0.0106595
-0.011265
-0.011265
-0.011265
-0.011265
-0.011265
-0.0118844
-0.0118844
-0.0118844
-0.0118844
-0.0118844
-0.012509
-0.012509
-0.012509
-0.012509
-0.012509
-0.0131393
-0.0131393
-0.0131393
-0.0131393
-0.0131393
-0.0137763
-0.0137763
-0.0137763
-0.0137763
-0.0137763
-0.0144205
-0.0144205
-0.0144205
-0.0144205
-0.0144205
-0.0150719
-0.0150719
-0.0150719
-0.0150719
-0.0150719
-0.0157306
-0.0157306
-0.0157306
-0.0157306
-0.0157306
-0.0163967
-0.0163967
-0.0163967
-0.0163967
-0.0163967
-0.0170702
-0.0170702
-0.0170702
-0.0170702
-0.0170702
-0.0177512
-0.0177512
-0.0177512
-0.0177512
-0.0177512
-0.0184398
-0.0184398
-0.0184398
-0.0184398
-0.0184398
-0.0191361
-0.0191361
-0.0191361
-0.0191361
-0.0191361
-0.0198402
-0.0198402
-0.0198402
-0.0198402
-0.0198402
-0.0205521
-0.0205521
-0.0205521
-0.0205521
-0.0205521
-0.0212719
-0.0212719
-0.0212719
-0.0212719
-0.0212719
-0.0219998
-0.0219998
-0.0219998
-0.0219998
-0.0219998
-0.0227358
-0.0227358
-0.0227358
-0.0227358
-0.0227358
-0.0234801
-0.0234801
-0.0234801
-0.0234801
-0.0234801
-0.0242326
-0.0242326
-0.0242326
-0.0242326
-0.0242326
-0.0249935
-0.0249935
-0.0249935
-0.0249935
-0.0249935
-0.025763
-0.025763
-0.025763
-0.025763
-0.025763
-0.026541
-0.026541
-0.026541
-0.026541
-0.026541
-0.0273277
-0.0273277
-0.0273277
-0.0273277
-0.0273277
-0.0281231
-0.0281231
-0.0281231
-0.0281231
-0.0281231
-0.0289275
-0.0289275
-0.0289275
-0.0289275
-0.0289275
-0.0297408
-0.0297408
-0.0297408
-0.0297408
-0.0297408
-0.0305632
-0.0305632
-0.0305632
-0.0305632
-0.0305632
-0.0313948
-0.0313948
-0.0313948
-0.0313948
-0.0313948
-0.0322357
-0.0322356
-0.0322357
-0.0322356
-0.0322357
-0.0330859
-0.0330859
-0.0330859
-0.0330859
-0.0330859
-0.0339456
-0.0339456
-0.0339456
-0.0339456
-0.0339456
-0.0348149
-0.0348149
-0.0348149
-0.0348149
-0.0348149
-0.035694
-0.035694
-0.035694
-0.035694
-0.035694
-0.0365828
-0.0365828
-0.0365828
-0.0365828
-0.0365828
-0.0374815
-0.0374815
-0.0374815
-0.0374815
-0.0374815
-0.0383903
-0.0383903
-0.0383903
-0.0383903
-0.0383903
-0.0393092
-0.0393092
-0.0393092
-0.0393092
-0.0393092
-0.0402384
-0.0402384
-0.0402384
-0.0402384
-0.0402384
-0.0411779
-0.0411779
-0.0411779
-0.0411779
-0.0411779
-0.042128
-0.042128
-0.042128
-0.042128
-0.042128
-0.0430886
-0.0430886
-0.0430886
-0.0430886
-0.0430886
-0.0440599
-0.0440599
-0.0440599
-0.0440599
-0.0440599
-0.0450421
-0.0450421
-0.0450421
-0.0450421
-0.0450421
-0.0460353
-0.0460353
-0.0460353
-0.0460353
-0.0460353
-0.0470395
-0.0470395
-0.0470395
-0.0470395
-0.0470395
-0.0480549
-0.0480549
-0.0480549
-0.0480549
-0.0480549
-0.0490817
-0.0490817
-0.0490817
-0.0490817
-0.0490817
-0.0501199
-0.0501199
-0.0501199
-0.0501199
-0.0501199
-0.0511697
-0.0511697
-0.0511697
-0.0511697
-0.0511697
-0.0522312
-0.0522312
-0.0522312
-0.0522312
-0.0522312
-0.0533046
-0.0533046
-0.0533046
-0.0533046
-0.0533046
-0.05439
-0.05439
-0.05439
-0.05439
-0.05439
-0.0554874
-0.0554874
-0.0554874
-0.0554874
-0.0554874
-0.0565971
-0.0565971
-0.0565971
-0.0565971
-0.0565971
-0.0577192
-0.0577192
-0.0577192
-0.0577192
-0.0577192
-0.0588538
-0.0588538
-0.0588538
-0.0588538
-0.0588538
-0.0600011
-0.0600011
-0.0600011
-0.0600011
-0.0600011
-0.0611611
-0.0611611
-0.0611611
-0.0611611
-0.0611611
-0.0623342
-0.0623342
-0.0623342
-0.0623342
-0.0623342
-0.0635203
-0.0635203
-0.0635203
-0.0635203
-0.0635203
-0.0647196
-0.0647196
-0.0647196
-0.0647196
-0.0647196
-0.0659323
-0.0659323
-0.0659323
-0.0659323
-0.0659323
-0.0671586
-0.0671586
-0.0671586
-0.0671586
-0.0671586
-0.0683985
-0.0683985
-0.0683985
-0.0683985
-0.0683985
-0.0696523
-0.0696523
-0.0696523
-0.0696523
-0.0696523
-0.0709201
-0.0709201
-0.0709201
-0.0709201
-0.0709201
-0.072202
-0.072202
-0.072202
-0.072202
-0.072202
-0.0734982
-0.0734982
-0.0734982
-0.0734982
-0.0734982
-0.0748089
-0.0748089
-0.0748089
-0.0748089
-0.0748089
-0.0761342
-0.0761342
-0.0761342
-0.0761342
-0.0761342
-0.0774743
-0.0774743
-0.0774743
-0.0774743
-0.0774743
-0.0788293
-0.0788293
-0.0788293
-0.0788293
-0.0788293
-0.0801995
-0.0801995
-0.0801995
-0.0801995
-0.0801995
-0.081585
-0.081585
-0.081585
-0.081585
-0.081585
-0.0829859
-0.0829859
-0.0829859
-0.0829859
-0.0829859
-0.0844025
-0.0844025
-0.0844025
-0.0844025
-0.0844025
-0.0858348
-0.0858348
-0.0858348
-0.0858348
-0.0858348
-0.0872832
-0.0872832
-0.0872832
-0.0872832
-0.0872832
-0.0887477
-0.0887477
-0.0887477
-0.0887477
-0.0887477
)
;

boundaryField
{
    BotWall
    {
        type            calculated;
        value           nonuniform List<scalar> 5(0.377426 0.37743 0.377422 0.37743 0.377426);
    }
    FreeStream
    {
        type            calculated;
        value           nonuniform List<scalar> 5(-0.089484 -0.089484 -0.089484 -0.089484 -0.089484);
    }
    FrontNBack
    {
        type            empty;
    }
    LeftSide
    {
        type            symmetryPlane;
    }
    RightSide
    {
        type            symmetryPlane;
    }
}


// ************************************************************************* //
