/*--------------------------------*- C++ -*----------------------------------*\
| =========                 |                                                 |
| \\      /  F ield         | OpenFOAM: The Open Source CFD Toolbox           |
|  \\    /   O peration     | Version:  2.4.0                                 |
|   \\  /    A nd           | Web:      www.OpenFOAM.org                      |
|    \\/     M anipulation  |                                                 |
\*---------------------------------------------------------------------------*/
FoamFile
{
    version     2.0;
    format      ascii;
    class       volScalarField;
    location    "1.1";
    object      p_rgh;
}
// * * * * * * * * * * * * * * * * * * * * * * * * * * * * * * * * * * * * * //

dimensions      [1 -1 -2 0 0 0 0];

internalField   nonuniform List<scalar> 
500
(
0.377426
0.37743
0.377422
0.37743
0.377426
0.377286
0.377288
0.377279
0.377288
0.377285
0.377577
0.377581
0.377572
0.377581
0.377577
0.377608
0.377611
0.377602
0.377611
0.377608
0.376415
0.376418
0.376409
0.376418
0.376414
0.371138
0.371139
0.37113
0.371139
0.371138
0.367541
0.367545
0.367537
0.367545
0.36754
0.401002
0.401026
0.401018
0.401026
0.401002
0.531181
0.531236
0.531231
0.531236
0.531179
0.624069
0.624091
0.624091
0.62409
0.624066
-0.24544
-0.245645
-0.24566
-0.245644
-0.245438
-3.45121
-3.45178
-3.45185
-3.45177
-3.45119
-6.71145
-6.71225
-6.7124
-6.71224
-6.71139
-0.00941349
-0.00941323
-0.00941322
-0.00941323
-0.00941349
0.00311282
0.00311254
0.00311253
0.00311254
0.00311282
0.000973802
0.000973877
0.000973875
0.000973877
0.000973802
-2.91447e-05
-2.90841e-05
-2.90844e-05
-2.90843e-05
-2.91452e-05
-0.000143653
-0.000143652
-0.000143653
-0.000143652
-0.000143653
-6.71777e-05
-6.71889e-05
-6.71899e-05
-6.71891e-05
-6.7178e-05
-2.93912e-05
-2.93938e-05
-2.93948e-05
-2.93939e-05
-2.93915e-05
-2.53177e-05
-2.5315e-05
-2.5316e-05
-2.53151e-05
-2.5318e-05
-2.82484e-05
-2.82452e-05
-2.82462e-05
-2.82453e-05
-2.82486e-05
-2.96309e-05
-2.96285e-05
-2.96295e-05
-2.96287e-05
-2.96312e-05
-2.96776e-05
-2.96757e-05
-2.96767e-05
-2.96758e-05
-2.96778e-05
-2.94503e-05
-2.94484e-05
-2.94494e-05
-2.94485e-05
-2.94505e-05
-2.92844e-05
-2.92825e-05
-2.92835e-05
-2.92826e-05
-2.92846e-05
-2.91702e-05
-2.91684e-05
-2.91694e-05
-2.91685e-05
-2.91704e-05
-2.90654e-05
-2.90637e-05
-2.90647e-05
-2.90638e-05
-2.90656e-05
-2.89569e-05
-2.89552e-05
-2.89562e-05
-2.89553e-05
-2.89571e-05
-2.8845e-05
-2.88434e-05
-2.88444e-05
-2.88435e-05
-2.88453e-05
-2.87315e-05
-2.87299e-05
-2.8731e-05
-2.873e-05
-2.87317e-05
-2.86168e-05
-2.86153e-05
-2.86163e-05
-2.86154e-05
-2.8617e-05
-2.85009e-05
-2.84994e-05
-2.85005e-05
-2.84995e-05
-2.85011e-05
-2.83838e-05
-2.83823e-05
-2.83834e-05
-2.83824e-05
-2.8384e-05
-2.82653e-05
-2.82639e-05
-2.8265e-05
-2.8264e-05
-2.82655e-05
-2.81455e-05
-2.81441e-05
-2.81452e-05
-2.81442e-05
-2.81457e-05
-2.80243e-05
-2.8023e-05
-2.80241e-05
-2.80231e-05
-2.80245e-05
-2.79018e-05
-2.79006e-05
-2.79016e-05
-2.79006e-05
-2.7902e-05
-2.7778e-05
-2.77767e-05
-2.77778e-05
-2.77768e-05
-2.77781e-05
-2.76527e-05
-2.76515e-05
-2.76526e-05
-2.76516e-05
-2.76529e-05
-2.75261e-05
-2.75249e-05
-2.7526e-05
-2.7525e-05
-2.75262e-05
-2.7398e-05
-2.73969e-05
-2.7398e-05
-2.73969e-05
-2.73981e-05
-2.72685e-05
-2.72674e-05
-2.72685e-05
-2.72675e-05
-2.72686e-05
-2.71375e-05
-2.71365e-05
-2.71376e-05
-2.71366e-05
-2.71377e-05
-2.70051e-05
-2.70041e-05
-2.70052e-05
-2.70042e-05
-2.70053e-05
-2.68712e-05
-2.68703e-05
-2.68713e-05
-2.68703e-05
-2.68714e-05
-2.67359e-05
-2.67349e-05
-2.6736e-05
-2.6735e-05
-2.6736e-05
-2.6599e-05
-2.65981e-05
-2.65991e-05
-2.65981e-05
-2.65991e-05
-2.64605e-05
-2.64597e-05
-2.64607e-05
-2.64597e-05
-2.64606e-05
-2.63206e-05
-2.63197e-05
-2.63208e-05
-2.63198e-05
-2.63207e-05
-2.6179e-05
-2.61782e-05
-2.61793e-05
-2.61783e-05
-2.61791e-05
-2.60359e-05
-2.60352e-05
-2.60362e-05
-2.60352e-05
-2.6036e-05
-2.58912e-05
-2.58905e-05
-2.58915e-05
-2.58905e-05
-2.58913e-05
-2.57449e-05
-2.57442e-05
-2.57452e-05
-2.57442e-05
-2.5745e-05
-2.55969e-05
-2.55962e-05
-2.55972e-05
-2.55963e-05
-2.5597e-05
-2.54473e-05
-2.54467e-05
-2.54476e-05
-2.54467e-05
-2.54474e-05
-2.5296e-05
-2.52954e-05
-2.52964e-05
-2.52954e-05
-2.52961e-05
-2.5143e-05
-2.51425e-05
-2.51434e-05
-2.51425e-05
-2.51431e-05
-2.49884e-05
-2.49878e-05
-2.49887e-05
-2.49878e-05
-2.49884e-05
-2.4832e-05
-2.48314e-05
-2.48323e-05
-2.48314e-05
-2.4832e-05
-2.46738e-05
-2.46733e-05
-2.46742e-05
-2.46733e-05
-2.46739e-05
-2.45139e-05
-2.45134e-05
-2.45143e-05
-2.45134e-05
-2.45139e-05
-2.43522e-05
-2.43517e-05
-2.43526e-05
-2.43517e-05
-2.43522e-05
-2.41887e-05
-2.41882e-05
-2.41891e-05
-2.41883e-05
-2.41887e-05
-2.40234e-05
-2.40229e-05
-2.40237e-05
-2.40229e-05
-2.40234e-05
-2.38562e-05
-2.38558e-05
-2.38566e-05
-2.38558e-05
-2.38562e-05
-2.36871e-05
-2.36867e-05
-2.36875e-05
-2.36868e-05
-2.36872e-05
-2.35162e-05
-2.35158e-05
-2.35166e-05
-2.35158e-05
-2.35162e-05
-2.33434e-05
-2.3343e-05
-2.33438e-05
-2.3343e-05
-2.33434e-05
-2.31686e-05
-2.31683e-05
-2.3169e-05
-2.31683e-05
-2.31686e-05
-2.29919e-05
-2.29916e-05
-2.29923e-05
-2.29916e-05
-2.29919e-05
-2.28132e-05
-2.28129e-05
-2.28136e-05
-2.28129e-05
-2.28132e-05
-2.26326e-05
-2.26322e-05
-2.26329e-05
-2.26323e-05
-2.26326e-05
-2.24499e-05
-2.24496e-05
-2.24502e-05
-2.24496e-05
-2.24499e-05
-2.22652e-05
-2.22649e-05
-2.22655e-05
-2.22649e-05
-2.22652e-05
-2.20784e-05
-2.20781e-05
-2.20787e-05
-2.20781e-05
-2.20784e-05
-2.18895e-05
-2.18892e-05
-2.18898e-05
-2.18892e-05
-2.18895e-05
-2.16985e-05
-2.16983e-05
-2.16988e-05
-2.16983e-05
-2.16985e-05
-2.15054e-05
-2.15052e-05
-2.15057e-05
-2.15052e-05
-2.15054e-05
-2.13102e-05
-2.13099e-05
-2.13104e-05
-2.13099e-05
-2.13101e-05
-2.11127e-05
-2.11125e-05
-2.1113e-05
-2.11125e-05
-2.11127e-05
-2.09131e-05
-2.09129e-05
-2.09133e-05
-2.09129e-05
-2.09131e-05
-2.07112e-05
-2.0711e-05
-2.07114e-05
-2.0711e-05
-2.07112e-05
-2.05071e-05
-2.05069e-05
-2.05073e-05
-2.05069e-05
-2.05071e-05
-2.03007e-05
-2.03005e-05
-2.03009e-05
-2.03005e-05
-2.03007e-05
-2.0092e-05
-2.00919e-05
-2.00922e-05
-2.00918e-05
-2.0092e-05
-1.9881e-05
-1.98808e-05
-1.98812e-05
-1.98808e-05
-1.9881e-05
-1.96677e-05
-1.96675e-05
-1.96678e-05
-1.96675e-05
-1.96676e-05
-1.94519e-05
-1.94518e-05
-1.9452e-05
-1.94517e-05
-1.94519e-05
-1.92338e-05
-1.92336e-05
-1.92338e-05
-1.92336e-05
-1.92337e-05
-1.90132e-05
-1.9013e-05
-1.90132e-05
-1.9013e-05
-1.90132e-05
-1.87901e-05
-1.879e-05
-1.87902e-05
-1.879e-05
-1.87901e-05
-1.85646e-05
-1.85645e-05
-1.85646e-05
-1.85645e-05
-1.85646e-05
-1.83366e-05
-1.83365e-05
-1.83366e-05
-1.83364e-05
-1.83365e-05
-1.8106e-05
-1.81059e-05
-1.8106e-05
-1.81059e-05
-1.8106e-05
-1.78728e-05
-1.78728e-05
-1.78728e-05
-1.78727e-05
-1.78728e-05
-1.76371e-05
-1.7637e-05
-1.76371e-05
-1.7637e-05
-1.76371e-05
-1.73987e-05
-1.73986e-05
-1.73987e-05
-1.73986e-05
-1.73987e-05
-1.71577e-05
-1.71576e-05
-1.71576e-05
-1.71576e-05
-1.71576e-05
-1.69136e-05
-1.69136e-05
-1.69136e-05
-1.69136e-05
-1.69136e-05
)
;

boundaryField
{
    BotWall
    {
        type            fixedFluxPressure;
        gradient        uniform 0;
        value           nonuniform List<scalar> 5(0.377426 0.37743 0.377422 0.37743 0.377426);
    }
    FreeStream
    {
        type            totalPressure;
        rho             rho;
        psi             none;
        gamma           1;
        p0              uniform 0;
        value           nonuniform List<scalar> 5(-1.67908e-05 -1.67909e-05 -1.67909e-05 -1.67909e-05 -1.67908e-05);
    }
    FrontNBack
    {
        type            empty;
    }
    LeftSide
    {
        type            symmetryPlane;
    }
    RightSide
    {
        type            symmetryPlane;
    }
}


// ************************************************************************* //
