/*--------------------------------*- C++ -*----------------------------------*\
| =========                 |                                                 |
| \\      /  F ield         | OpenFOAM: The Open Source CFD Toolbox           |
|  \\    /   O peration     | Version:  2.4.0                                 |
|   \\  /    A nd           | Web:      www.OpenFOAM.org                      |
|    \\/     M anipulation  |                                                 |
\*---------------------------------------------------------------------------*/
FoamFile
{
    version     2.0;
    format      ascii;
    class       surfaceScalarField;
    location    "1.1";
    object      phi;
}
// * * * * * * * * * * * * * * * * * * * * * * * * * * * * * * * * * * * * * //

dimensions      [0 3 -1 0 0 0 0];

internalField   nonuniform List<scalar> 
895
(
7.14823e-19
-7.14818e-19
3.90583e-19
3.24157e-19
-4.20775e-19
8.11261e-19
-7.46398e-19
3.25502e-19
-7.46348e-19
2.18773e-18
-2.90123e-18
1.18574e-18
1.32834e-18
-1.27786e-18
3.27794e-18
-2.28405e-18
1.33413e-18
-3.02864e-18
3.69607e-18
-6.59575e-18
1.99798e-18
3.02884e-18
-2.15429e-18
7.43351e-18
-3.85975e-18
3.04212e-18
-6.88663e-18
5.27641e-18
-1.18705e-17
2.84505e-18
5.46274e-18
-3.06787e-18
1.33498e-17
-5.51056e-18
5.48736e-18
-1.23955e-17
6.88291e-18
-1.87517e-17
3.70516e-18
8.64303e-18
-3.99695e-18
2.10553e-17
-7.1899e-18
8.68278e-18
-1.95838e-17
8.57577e-18
-2.73257e-17
4.6075e-18
1.26137e-17
-4.97052e-18
3.06365e-17
-8.95819e-18
1.26728e-17
-2.85405e-17
1.02895e-17
-3.76136e-17
5.52287e-18
1.73826e-17
-5.95959e-18
4.21218e-17
-1.07501e-17
1.74654e-17
-3.92894e-17
1.20918e-17
-4.97039e-17
6.48838e-18
2.29881e-17
-7.00124e-18
5.5614e-17
-1.26331e-17
2.3099e-17
-5.19214e-17
1.39239e-17
-6.36265e-17
7.47281e-18
2.94409e-17
-8.06425e-18
7.1153e-17
-1.45489e-17
2.95851e-17
-6.64696e-17
1.59185e-17
-7.95442e-17
8.51745e-18
3.68431e-17
-9.19068e-18
8.88625e-17
-1.66312e-17
3.70265e-17
-8.31003e-17
1.80559e-17
-9.75996e-17
9.51804e-18
4.53814e-17
-1.02769e-17
1.08658e-16
-1.88626e-17
4.56125e-17
-1.01963e-16
2.03319e-17
-6.77988e-16
1.0539e-17
5.51743e-17
-1.13825e-17
1.3058e-16
-2.12435e-17
5.54727e-17
-7.08332e-16
2.34198e-17
-3.83784e-10
1.15926e-17
-3.83785e-10
-1.25272e-17
-3.83786e-10
-2.44962e-17
-3.83785e-10
-3.83784e-10
2.3421e-17
-3.83784e-10
1.24587e-17
-3.83785e-10
-1.34583e-17
-3.83786e-10
-2.44915e-17
-3.83785e-10
-3.83784e-10
2.60785e-17
-3.83784e-10
1.10115e-17
-3.83785e-10
-1.18105e-17
-3.83786e-10
-2.70211e-17
-3.83785e-10
-3.83784e-10
1.68904e-17
-3.83784e-10
9.92301e-18
-3.83785e-10
-1.04897e-17
-3.83786e-10
-1.76181e-17
-3.83785e-10
-3.83784e-10
1.34002e-17
-3.83784e-10
7.94403e-18
-3.83785e-10
-8.27771e-18
-3.83786e-10
-1.39333e-17
-3.83785e-10
-3.83784e-10
1.13209e-17
-3.83784e-10
6.17309e-18
-3.83785e-10
-6.27871e-18
-3.83786e-10
-1.16714e-17
-3.83785e-10
-3.83784e-10
8.73287e-18
-3.83784e-10
4.68422e-18
-3.83785e-10
-4.56729e-18
-3.83786e-10
-8.9064e-18
-3.83785e-10
-3.83784e-10
5.80399e-18
-3.83784e-10
3.27079e-18
-3.83785e-10
-2.93633e-18
-3.83786e-10
-5.80502e-18
-3.83785e-10
-3.83784e-10
2.98186e-18
-3.83784e-10
1.87747e-18
-3.83785e-10
-1.33082e-18
-3.83786e-10
-2.81567e-18
-3.83785e-10
-3.83784e-10
3.77776e-19
-3.83784e-10
5.36671e-19
-3.83785e-10
2.1626e-19
-3.83786e-10
-5.03853e-20
-3.83785e-10
-3.83784e-10
-2.04583e-18
-3.83784e-10
-7.24931e-19
-3.83785e-10
1.67764e-18
-3.83786e-10
2.52787e-18
-3.83785e-10
-3.83784e-10
-4.31686e-18
-3.83784e-10
-1.90072e-18
-3.83785e-10
3.04616e-18
-3.83786e-10
4.94659e-18
-3.83785e-10
-3.83784e-10
-6.43443e-18
-3.83784e-10
-2.99055e-18
-3.83785e-10
4.32117e-18
-3.83786e-10
7.20447e-18
-3.83785e-10
-3.83784e-10
-8.38927e-18
-3.83784e-10
-3.99328e-18
-3.83785e-10
5.50104e-18
-3.83786e-10
9.29189e-18
-3.83785e-10
-3.83784e-10
-1.01742e-17
-3.83784e-10
-4.90651e-18
-3.83785e-10
6.5829e-18
-3.83786e-10
1.12013e-17
-3.83785e-10
-3.83784e-10
-1.17845e-17
-3.83784e-10
-5.7277e-18
-3.83785e-10
7.56377e-18
-3.83786e-10
1.29276e-17
-3.83785e-10
-3.83784e-10
-1.32165e-17
-3.83784e-10
-6.45473e-18
-3.83785e-10
8.44115e-18
-3.83786e-10
1.4467e-17
-3.83785e-10
-3.83784e-10
-1.44674e-17
-3.83784e-10
-7.08594e-18
-3.83785e-10
9.21299e-18
-3.83786e-10
1.58162e-17
-3.83785e-10
-3.83784e-10
-1.55346e-17
-3.83784e-10
-7.62004e-18
-3.83785e-10
9.87772e-18
-3.83786e-10
1.69727e-17
-3.83785e-10
-3.83784e-10
-1.64165e-17
-3.83784e-10
-8.0562e-18
-3.83785e-10
1.04342e-17
-3.83786e-10
1.79346e-17
-3.83785e-10
-3.83784e-10
-1.71126e-17
-3.83784e-10
-8.39402e-18
-3.83785e-10
1.08819e-17
-3.83786e-10
1.87012e-17
-3.83785e-10
-3.83784e-10
-1.76229e-17
-3.83784e-10
-8.63357e-18
-3.83785e-10
1.12207e-17
-3.83786e-10
1.92726e-17
-3.83785e-10
-3.83784e-10
-1.79487e-17
-3.83784e-10
-8.77546e-18
-3.83785e-10
1.1451e-17
-3.83786e-10
1.96501e-17
-3.83785e-10
-3.83784e-10
-1.80923e-17
-3.83784e-10
-8.82083e-18
-3.83785e-10
1.15741e-17
-3.83786e-10
1.9836e-17
-3.83785e-10
-3.83784e-10
-1.80568e-17
-3.83784e-10
-8.77137e-18
-3.83785e-10
1.15917e-17
-3.83786e-10
1.98336e-17
-3.83785e-10
-3.83784e-10
-1.78467e-17
-3.83784e-10
-8.62932e-18
-3.83785e-10
1.15061e-17
-3.83786e-10
1.96475e-17
-3.83785e-10
-3.83784e-10
-1.74672e-17
-3.83784e-10
-8.3975e-18
-3.83785e-10
1.13204e-17
-3.83786e-10
1.92832e-17
-3.83785e-10
-3.83784e-10
-1.69248e-17
-3.83784e-10
-8.07928e-18
-3.83785e-10
1.1038e-17
-3.83786e-10
1.87476e-17
-3.83785e-10
-3.83784e-10
-1.6227e-17
-3.83784e-10
-7.67858e-18
-3.83786e-10
1.06634e-17
-3.83786e-10
1.80485e-17
-3.83785e-10
-3.83784e-10
-1.53821e-17
-3.83784e-10
-7.19986e-18
-3.83786e-10
1.02013e-17
-3.83786e-10
1.71946e-17
-3.83785e-10
-3.83784e-10
-1.43996e-17
-3.83784e-10
-6.64807e-18
-3.83786e-10
9.65722e-18
-3.83786e-10
1.61958e-17
-3.83785e-10
-3.83784e-10
-1.32897e-17
-3.83784e-10
-6.02864e-18
-3.83786e-10
9.037e-18
-3.83786e-10
1.5063e-17
-3.83785e-10
-3.83784e-10
-1.20635e-17
-3.83784e-10
-5.34745e-18
-3.83786e-10
8.34711e-18
-3.83786e-10
1.38077e-17
-3.83785e-10
-3.83784e-10
-1.07328e-17
-3.83784e-10
-4.61077e-18
-3.83786e-10
7.59446e-18
-3.83786e-10
1.24424e-17
-3.83785e-10
-3.83784e-10
-9.30991e-18
-3.83784e-10
-3.82521e-18
-3.83786e-10
6.78631e-18
-3.83786e-10
1.09801e-17
-3.83785e-10
-3.83784e-10
-7.80792e-18
-3.83784e-10
-2.99769e-18
-3.83786e-10
5.93028e-18
-3.83786e-10
9.43439e-18
-3.83785e-10
-3.83784e-10
-6.2402e-18
-3.83784e-10
-2.13537e-18
-3.83786e-10
5.03426e-18
-3.83786e-10
7.81946e-18
-3.83785e-10
-3.83784e-10
-4.62045e-18
-3.83784e-10
-1.24556e-18
-3.83786e-10
4.10631e-18
-3.83786e-10
6.14968e-18
-3.83785e-10
-3.83784e-10
-2.96256e-18
-3.83784e-10
-3.357e-19
-3.83786e-10
3.15465e-18
-3.83786e-10
4.43964e-18
-3.83785e-10
-3.83784e-10
-1.28048e-18
-3.83784e-10
5.86727e-19
-3.83786e-10
2.18752e-18
-3.83786e-10
2.704e-18
-3.83785e-10
-3.83784e-10
4.11899e-19
-3.83784e-10
1.51427e-18
-3.83786e-10
1.21314e-18
-3.83786e-10
9.57357e-19
-3.83785e-10
-3.83784e-10
2.10091e-18
-3.83784e-10
2.43958e-18
-3.83786e-10
2.39635e-19
-3.83786e-10
-7.85939e-19
-3.83785e-10
-3.83784e-10
3.77322e-18
-3.83784e-10
3.35546e-18
-3.83786e-10
-7.25086e-19
-3.83786e-10
-2.51188e-18
-3.83785e-10
-3.83784e-10
5.41595e-18
-3.83784e-10
4.25497e-18
-3.83786e-10
-1.67336e-18
-3.83786e-10
-4.20697e-18
-3.83785e-10
-3.83784e-10
7.01682e-18
-3.83784e-10
5.13146e-18
-3.83786e-10
-2.59788e-18
-3.83786e-10
-5.85832e-18
-3.83785e-10
-3.83784e-10
8.56427e-18
-3.83784e-10
5.97866e-18
-3.83786e-10
-3.49173e-18
-3.83786e-10
-7.45383e-18
-3.83785e-10
-3.83784e-10
1.00476e-17
-3.83784e-10
6.79073e-18
-3.83786e-10
-4.34852e-18
-3.83786e-10
-8.98225e-18
-3.83785e-10
-3.83784e-10
1.14569e-17
-3.83784e-10
7.56231e-18
-3.83786e-10
-5.16236e-18
-3.83786e-10
-1.04333e-17
-3.83785e-10
-3.83784e-10
1.27835e-17
-3.83784e-10
8.28859e-18
-3.83786e-10
-5.928e-18
-3.83786e-10
-1.17979e-17
-3.83785e-10
-3.83784e-10
1.40197e-17
-3.83784e-10
8.96534e-18
-3.83786e-10
-6.64081e-18
-3.83786e-10
-1.30681e-17
-3.83785e-10
-3.83784e-10
1.51591e-17
-3.83784e-10
9.58894e-18
-3.83786e-10
-7.2969e-18
-3.83786e-10
-1.4237e-17
-3.83785e-10
-3.83784e-10
1.61964e-17
-3.83784e-10
1.01564e-17
-3.83786e-10
-7.89306e-18
-3.83786e-10
-1.52993e-17
-3.83785e-10
-3.83784e-10
1.71276e-17
-3.83784e-10
1.06655e-17
-3.83786e-10
-8.42688e-18
-3.83786e-10
-1.6251e-17
-3.83785e-10
-3.83784e-10
1.79501e-17
-3.83784e-10
1.11147e-17
-3.83786e-10
-8.89667e-18
-3.83786e-10
-1.70892e-17
-3.83785e-10
-3.83784e-10
1.86626e-17
-3.83784e-10
1.15029e-17
-3.83786e-10
-9.30156e-18
-3.83786e-10
-1.78128e-17
-3.83785e-10
-3.83784e-10
1.92651e-17
-3.83784e-10
1.18301e-17
-3.83785e-10
-9.64143e-18
-3.83786e-10
-1.84218e-17
-3.83785e-10
-3.83784e-10
1.97587e-17
-3.83784e-10
1.20967e-17
-3.83785e-10
-9.91691e-18
-3.83786e-10
-1.89176e-17
-3.83785e-10
-3.83784e-10
2.01461e-17
-3.83784e-10
1.23038e-17
-3.83785e-10
-1.01294e-17
-3.83786e-10
-1.9303e-17
-3.83785e-10
-3.83784e-10
2.0431e-17
-3.83784e-10
1.24532e-17
-3.83785e-10
-1.02809e-17
-3.83786e-10
-1.9582e-17
-3.83785e-10
-3.83784e-10
2.06181e-17
-3.83784e-10
1.25473e-17
-3.83785e-10
-1.03743e-17
-3.83786e-10
-1.97597e-17
-3.83785e-10
-3.83784e-10
2.07135e-17
-3.83784e-10
1.2589e-17
-3.83785e-10
-1.04128e-17
-3.83786e-10
-1.98426e-17
-3.83785e-10
-3.83784e-10
2.07239e-17
-3.83784e-10
1.25819e-17
-3.83785e-10
-1.04005e-17
-3.83786e-10
-1.98379e-17
-3.83785e-10
-3.83784e-10
2.06571e-17
-3.83784e-10
1.25298e-17
-3.83785e-10
-1.03417e-17
-3.83786e-10
-1.97537e-17
-3.83785e-10
-3.83784e-10
2.05216e-17
-3.83784e-10
1.2437e-17
-3.83785e-10
-1.02412e-17
-3.83786e-10
-1.95991e-17
-3.83785e-10
-3.83784e-10
2.03264e-17
-3.83784e-10
1.23083e-17
-3.83785e-10
-1.01044e-17
-3.83786e-10
-1.93837e-17
-3.83785e-10
-3.83784e-10
2.00811e-17
-3.83784e-10
1.21485e-17
-3.83785e-10
-9.93677e-18
-3.83786e-10
-1.91176e-17
-3.83785e-10
-3.83784e-10
1.97957e-17
-3.83784e-10
1.19629e-17
-3.83785e-10
-9.74398e-18
-3.83785e-10
-1.88113e-17
-3.83785e-10
-3.83784e-10
1.94803e-17
-3.83784e-10
1.17568e-17
-3.83785e-10
-9.5319e-18
-3.83785e-10
-1.84753e-17
-3.83785e-10
-3.83784e-10
1.9145e-17
-3.83784e-10
1.15355e-17
-3.83785e-10
-9.30644e-18
-3.83785e-10
-1.81205e-17
-3.83785e-10
-3.83784e-10
1.88001e-17
-3.83784e-10
1.13044e-17
-3.83785e-10
-9.07342e-18
-3.83785e-10
-1.77575e-17
-3.83785e-10
-3.83784e-10
1.84552e-17
-3.83784e-10
1.10688e-17
-3.83785e-10
-8.83855e-18
-3.83785e-10
-1.73964e-17
-3.83785e-10
-3.83784e-10
1.81199e-17
-3.83784e-10
1.08338e-17
-3.83785e-10
-8.60732e-18
-3.83785e-10
-1.70471e-17
-3.83785e-10
-3.83784e-10
1.7803e-17
-3.83784e-10
1.06043e-17
-3.83785e-10
-8.38486e-18
-3.83785e-10
-1.67189e-17
-3.83785e-10
-3.83784e-10
1.75126e-17
-3.83784e-10
1.03849e-17
-3.83785e-10
-8.17594e-18
-3.83785e-10
-1.642e-17
-3.83785e-10
-3.83784e-10
1.7256e-17
-3.83784e-10
1.01799e-17
-3.83785e-10
-7.98479e-18
-3.83785e-10
-1.61579e-17
-3.83785e-10
-3.83784e-10
1.70393e-17
-3.83784e-10
9.99293e-18
-3.83785e-10
-7.81507e-18
-3.83785e-10
-1.59387e-17
-3.83785e-10
-3.83784e-10
1.68675e-17
-3.83784e-10
9.82726e-18
-3.83785e-10
-7.66977e-18
-3.83785e-10
-1.57675e-17
-3.83785e-10
-3.83784e-10
1.67442e-17
-3.83784e-10
9.68554e-18
-3.83785e-10
-7.55112e-18
-3.83785e-10
-1.56477e-17
-3.83785e-10
-3.83784e-10
1.66716e-17
-3.83784e-10
9.56975e-18
-3.83785e-10
-7.46056e-18
-3.83785e-10
-1.55811e-17
-3.83785e-10
-3.83784e-10
1.66502e-17
-3.83784e-10
9.4812e-18
-3.83785e-10
-7.39863e-18
-3.83785e-10
-1.55679e-17
-3.83785e-10
-3.83784e-10
1.66789e-17
-3.83784e-10
9.42045e-18
-3.83785e-10
-7.36494e-18
-3.83785e-10
-1.56064e-17
-3.83785e-10
-3.83784e-10
1.67551e-17
-3.83784e-10
9.38733e-18
-3.83785e-10
-7.35819e-18
-3.83785e-10
-1.56932e-17
-3.83785e-10
-3.83784e-10
1.68742e-17
-3.83784e-10
9.38086e-18
-3.83785e-10
-7.37612e-18
-3.83785e-10
-1.5823e-17
-3.83785e-10
-3.83784e-10
1.703e-17
-3.83784e-10
9.39936e-18
-3.83785e-10
-7.41557e-18
-3.83785e-10
-1.59886e-17
-3.83785e-10
-3.83784e-10
1.72148e-17
-3.83784e-10
9.4405e-18
-3.83785e-10
-7.47259e-18
-3.83785e-10
-1.61811e-17
-3.83785e-10
-3.83784e-10
1.74199e-17
-3.83784e-10
9.50171e-18
-3.83785e-10
-7.5429e-18
-3.83785e-10
-1.63909e-17
-3.83785e-10
-3.83784e-10
1.76388e-17
-3.83784e-10
9.58089e-18
-3.83785e-10
-7.62247e-18
-3.83785e-10
-1.661e-17
-3.83785e-10
-3.83784e-10
1.78708e-17
9.67122e-18
-7.70293e-18
-1.68371e-17
)
;

boundaryField
{
    BotWall
    {
        type            calculated;
        value           nonuniform List<scalar> 5(-3.05384e-23 7.71185e-23 1.33343e-22 9.68173e-23 -4.83636e-23);
    }
    FreeStream
    {
        type            calculated;
        value           nonuniform List<scalar> 5(-3.83784e-10 -3.83785e-10 -3.83785e-10 -3.83785e-10 -3.83784e-10);
    }
    FrontNBack
    {
        type            empty;
        value           nonuniform 0();
    }
    LeftSide
    {
        type            symmetryPlane;
        value           uniform 0;
    }
    RightSide
    {
        type            symmetryPlane;
        value           uniform 0;
    }
}


// ************************************************************************* //
