/*--------------------------------*- C++ -*----------------------------------*\
| =========                 |                                                 |
| \\      /  F ield         | OpenFOAM: The Open Source CFD Toolbox           |
|  \\    /   O peration     | Version:  2.4.0                                 |
|   \\  /    A nd           | Web:      www.OpenFOAM.org                      |
|    \\/     M anipulation  |                                                 |
\*---------------------------------------------------------------------------*/
FoamFile
{
    version     2.0;
    format      ascii;
    class       volVectorField;
    location    "1.1";
    object      U;
}
// * * * * * * * * * * * * * * * * * * * * * * * * * * * * * * * * * * * * * //

dimensions      [0 1 -1 0 0 0 0];

internalField   nonuniform List<vector> 
500
(
(2.36258e-10 2.18685e-09 0)
(2.86291e-10 2.21301e-09 0)
(-4.17209e-12 2.21333e-09 0)
(-2.9994e-10 2.21301e-09 0)
(-2.4566e-10 2.18683e-09 0)
(7.15243e-10 -7.01854e-09 0)
(8.63633e-10 -7.07252e-09 0)
(-1.25828e-11 -7.06709e-09 0)
(-9.04819e-10 -7.07251e-09 0)
(-7.4362e-10 -7.01888e-09 0)
(1.19591e-09 1.34854e-08 0)
(1.44137e-09 1.36307e-08 0)
(-2.10901e-11 1.36448e-08 0)
(-1.51054e-09 1.36307e-08 0)
(-1.24361e-09 1.34844e-08 0)
(1.69054e-09 -4.7679e-09 0)
(2.03151e-09 -4.84767e-09 0)
(-2.97011e-11 -4.81708e-09 0)
(-2.12919e-09 -4.84761e-09 0)
(-1.75799e-09 -4.76996e-09 0)
(2.18331e-09 3.14197e-08 0)
(2.61803e-09 3.17155e-08 0)
(-3.84186e-11 3.17642e-08 0)
(-2.74463e-09 3.17156e-08 0)
(-2.27083e-09 3.14163e-08 0)
(2.69414e-09 -8.71106e-08 0)
(3.22091e-09 -8.72325e-08 0)
(-4.72121e-11 -8.71574e-08 0)
(-3.3768e-09 -8.72321e-08 0)
(-2.80202e-09 -8.71154e-08 0)
(3.20127e-09 -2.51693e-07 0)
(3.81834e-09 -2.51307e-07 0)
(-5.61032e-11 -2.51208e-07 0)
(-4.00394e-09 -2.51306e-07 0)
(-3.32984e-09 -2.51698e-07 0)
(3.72892e-09 -3.20873e-07 0)
(4.43429e-09 -3.20797e-07 0)
(-6.50579e-11 -3.20661e-07 0)
(-4.64996e-09 -3.20796e-07 0)
(-3.87849e-09 -3.2088e-07 0)
(4.25643e-09 1.64974e-06 0)
(5.04799e-09 1.65142e-06 0)
(-7.40484e-11 1.65162e-06 0)
(-5.29422e-09 1.65141e-06 0)
(-4.42748e-09 1.64972e-06 0)
(4.81628e-09 7.50525e-06 0)
(5.69214e-09 7.50748e-06 0)
(-8.3166e-11 7.50787e-06 0)
(-5.96966e-09 7.50747e-06 0)
(-5.00942e-09 7.50518e-06 0)
(5.38078e-09 6.08128e-06 0)
(6.33588e-09 6.08237e-06 0)
(-9.25469e-11 6.08284e-06 0)
(-6.64583e-09 6.08235e-06 0)
(-5.59691e-09 6.08118e-06 0)
(5.93303e-09 -3.34985e-05 0)
(6.97146e-09 -3.35068e-05 0)
(-1.01833e-10 -3.3507e-05 0)
(-7.31413e-09 -3.35067e-05 0)
(-6.17256e-09 -3.34984e-05 0)
(6.54036e-09 -0.000263587 0)
(7.68091e-09 -0.00026362 0)
(-1.13052e-10 -0.000263624 0)
(-8.06436e-09 -0.000263619 0)
(-6.80944e-09 -0.000263585 0)
(6.80328e-09 -0.00153139 0)
(7.97736e-09 -0.00153137 0)
(-1.16935e-10 -0.00153137 0)
(-8.37424e-09 -0.00153137 0)
(-7.0819e-09 -0.00153139 0)
(6.72168e-09 -0.00349371 0)
(7.76989e-09 -0.0034937 0)
(-8.56221e-11 -0.0034937 0)
(-8.10181e-09 -0.0034937 0)
(-6.9661e-09 -0.00349371 0)
(5.0301e-09 -0.00195529 0)
(5.90366e-09 -0.00195535 0)
(-4.97609e-11 -0.00195535 0)
(-6.15411e-09 -0.00195535 0)
(-5.22837e-09 -0.00195529 0)
(3.94256e-09 -0.00182631 0)
(4.65331e-09 -0.00182632 0)
(-1.51983e-11 -0.00182632 0)
(-4.82599e-09 -0.00182632 0)
(-4.09711e-09 -0.00182631 0)
(3.13985e-09 -0.00187402 0)
(3.69988e-09 -0.00187402 0)
(1.78858e-11 -0.00187402 0)
(-3.79905e-09 -0.00187402 0)
(-3.25351e-09 -0.00187402 0)
(2.35785e-09 -0.00191611 0)
(2.77751e-09 -0.00191611 0)
(4.9647e-11 -0.00191611 0)
(-2.80681e-09 -0.00191611 0)
(-2.43295e-09 -0.00191611 0)
(1.56134e-09 -0.00192306 0)
(1.84978e-09 -0.00192307 0)
(8.0165e-11 -0.00192307 0)
(-1.8125e-09 -0.00192307 0)
(-1.59996e-09 -0.00192306 0)
(7.99528e-10 -0.0019207 0)
(9.65768e-10 -0.00192071 0)
(1.09407e-10 -0.00192071 0)
(-8.65265e-10 -0.00192071 0)
(-8.03748e-10 -0.0019207 0)
(9.64358e-11 -0.00191903 0)
(1.49601e-10 -0.00191904 0)
(1.3732e-10 -0.00191904 0)
(1.06579e-11 -0.00191904 0)
(-6.84147e-11 -0.00191903 0)
(-5.47538e-10 -0.00191875 0)
(-5.98302e-10 -0.00191876 0)
(1.6386e-10 -0.00191876 0)
(8.14753e-10 -0.00191875 0)
(6.05598e-10 -0.00191875 0)
(-1.13628e-09 -0.00191885 0)
(-1.28185e-09 -0.00191885 0)
(1.88993e-10 -0.00191886 0)
(1.55087e-09 -0.00191885 0)
(1.22215e-09 -0.00191885 0)
(-1.67135e-09 -0.00191892 0)
(-1.90263e-09 -0.00191892 0)
(2.12686e-10 -0.00191892 0)
(2.22054e-09 -0.00191892 0)
(1.78279e-09 -0.00191892 0)
(-2.15285e-09 -0.00191893 0)
(-2.46079e-09 -0.00191893 0)
(2.34912e-10 -0.00191893 0)
(2.82387e-09 -0.00191893 0)
(2.2876e-09 -0.00191893 0)
(-2.58085e-09 -0.00191892 0)
(-2.95645e-09 -0.00191893 0)
(2.5565e-10 -0.00191893 0)
(3.36096e-09 -0.00191893 0)
(2.73667e-09 -0.00191892 0)
(-2.95577e-09 -0.00191892 0)
(-3.39005e-09 -0.00191893 0)
(2.74881e-10 -0.00191893 0)
(3.83226e-09 -0.00191893 0)
(3.13042e-09 -0.00191892 0)
(-3.2783e-09 -0.00191892 0)
(-3.76236e-09 -0.00191893 0)
(2.92591e-10 -0.00191893 0)
(4.23851e-09 -0.00191893 0)
(3.46954e-09 -0.00191892 0)
(-3.5493e-09 -0.00191892 0)
(-4.07432e-09 -0.00191893 0)
(3.08775e-10 -0.00191893 0)
(4.58069e-09 -0.00191893 0)
(3.75495e-09 -0.00191892 0)
(-3.76982e-09 -0.00191892 0)
(-4.32708e-09 -0.00191893 0)
(3.2343e-10 -0.00191893 0)
(4.85998e-09 -0.00191893 0)
(3.98771e-09 -0.00191892 0)
(-3.94109e-09 -0.00191892 0)
(-4.522e-09 -0.00191893 0)
(3.36563e-10 -0.00191893 0)
(5.07779e-09 -0.00191893 0)
(4.16912e-09 -0.00191892 0)
(-4.06454e-09 -0.00191892 0)
(-4.66065e-09 -0.00191893 0)
(3.48185e-10 -0.00191893 0)
(5.23577e-09 -0.00191893 0)
(4.30065e-09 -0.00191892 0)
(-4.14178e-09 -0.00191892 0)
(-4.74485e-09 -0.00191893 0)
(3.58315e-10 -0.00191893 0)
(5.33581e-09 -0.00191893 0)
(4.38397e-09 -0.00191892 0)
(-4.1746e-09 -0.00191892 0)
(-4.77661e-09 -0.00191893 0)
(3.66978e-10 -0.00191893 0)
(5.38004e-09 -0.00191893 0)
(4.42098e-09 -0.00191892 0)
(-4.16501e-09 -0.00191892 0)
(-4.75819e-09 -0.00191893 0)
(3.74209e-10 -0.00191893 0)
(5.37082e-09 -0.00191893 0)
(4.41372e-09 -0.00191892 0)
(-4.11515e-09 -0.00191892 0)
(-4.69205e-09 -0.00191893 0)
(3.80046e-10 -0.00191893 0)
(5.31076e-09 -0.00191893 0)
(4.36447e-09 -0.00191892 0)
(-4.02735e-09 -0.00191892 0)
(-4.58087e-09 -0.00191893 0)
(3.84536e-10 -0.00191893 0)
(5.20266e-09 -0.00191893 0)
(4.27564e-09 -0.00191892 0)
(-3.90411e-09 -0.00191892 0)
(-4.4275e-09 -0.00191893 0)
(3.87733e-10 -0.00191893 0)
(5.04956e-09 -0.00191893 0)
(4.14982e-09 -0.00191892 0)
(-3.74804e-09 -0.00191892 0)
(-4.23499e-09 -0.00191893 0)
(3.89694e-10 -0.00191893 0)
(4.85468e-09 -0.00191893 0)
(3.98976e-09 -0.00191892 0)
(-3.56188e-09 -0.00191892 0)
(-4.00655e-09 -0.00191893 0)
(3.90487e-10 -0.00191893 0)
(4.6214e-09 -0.00191893 0)
(3.79833e-09 -0.00191892 0)
(-3.34851e-09 -0.00191892 0)
(-3.74551e-09 -0.00191893 0)
(3.90179e-10 -0.00191893 0)
(4.35327e-09 -0.00191893 0)
(3.57849e-09 -0.00191892 0)
(-3.11087e-09 -0.00191892 0)
(-3.45535e-09 -0.00191893 0)
(3.88846e-10 -0.00191893 0)
(4.05396e-09 -0.00191893 0)
(3.33334e-09 -0.00191892 0)
(-2.85196e-09 -0.00191892 0)
(-3.13962e-09 -0.00191893 0)
(3.86566e-10 -0.00191893 0)
(3.72723e-09 -0.00191893 0)
(3.066e-09 -0.00191892 0)
(-2.57485e-09 -0.00191892 0)
(-2.80193e-09 -0.00191893 0)
(3.83421e-10 -0.00191893 0)
(3.37693e-09 -0.00191893 0)
(2.77968e-09 -0.00191892 0)
(-2.28262e-09 -0.00191892 0)
(-2.44597e-09 -0.00191893 0)
(3.79495e-10 -0.00191893 0)
(3.00693e-09 -0.00191893 0)
(2.47759e-09 -0.00191892 0)
(-1.97836e-09 -0.00191892 0)
(-2.0754e-09 -0.00191893 0)
(3.74873e-10 -0.00191893 0)
(2.62115e-09 -0.00191893 0)
(2.16295e-09 -0.00191892 0)
(-1.66512e-09 -0.00191892 0)
(-1.6939e-09 -0.00191893 0)
(3.69643e-10 -0.00191893 0)
(2.22347e-09 -0.00191893 0)
(1.83894e-09 -0.00191892 0)
(-1.34592e-09 -0.00191892 0)
(-1.30507e-09 -0.00191893 0)
(3.6389e-10 -0.00191893 0)
(1.81772e-09 -0.00191893 0)
(1.50872e-09 -0.00191892 0)
(-1.02371e-09 -0.00191892 0)
(-9.12459e-10 -0.00191893 0)
(3.577e-10 -0.00191893 0)
(1.40765e-09 -0.00191893 0)
(1.17534e-09 -0.00191892 0)
(-7.01322e-10 -0.00191892 0)
(-5.19519e-10 -0.00191893 0)
(3.51158e-10 -0.00191893 0)
(9.96935e-10 -0.00191893 0)
(8.41786e-10 -0.00191892 0)
(-3.815e-10 -0.00191892 0)
(-1.29561e-10 -0.00191893 0)
(3.44346e-10 -0.00191893 0)
(5.89074e-10 -0.00191893 0)
(5.10898e-10 -0.00191892 0)
(-6.68379e-11 -0.00191892 0)
(2.54254e-10 -0.00191893 0)
(3.37342e-10 -0.00191893 0)
(1.87421e-10 -0.00191893 0)
(1.85382e-10 -0.00191892 0)
(2.40225e-10 -0.00191892 0)
(6.28946e-10 -0.00191893 0)
(3.30221e-10 -0.00191893 0)
(-2.04867e-10 -0.00191893 0)
(-1.32222e-10 -0.00191892 0)
(5.37426e-10 -0.00191892 0)
(9.91736e-10 -0.00191893 0)
(3.23052e-10 -0.00191893 0)
(-5.84847e-10 -0.00191893 0)
(-4.39559e-10 -0.00191892 0)
(8.22693e-10 -0.00191892 0)
(1.34007e-09 -0.00191893 0)
(3.15903e-10 -0.00191893 0)
(-9.49815e-10 -0.00191893 0)
(-7.34473e-10 -0.00191892 0)
(1.09416e-09 -0.00191892 0)
(1.67163e-09 -0.00191893 0)
(3.0883e-10 -0.00191893 0)
(-1.29732e-09 -0.00191893 0)
(-1.01503e-09 -0.00191892 0)
(1.35019e-09 -0.00191892 0)
(1.98437e-09 -0.00191893 0)
(3.01889e-10 -0.00191893 0)
(-1.6252e-09 -0.00191893 0)
(-1.27951e-09 -0.00191892 0)
(1.58936e-09 -0.00191892 0)
(2.27651e-09 -0.00191893 0)
(2.95125e-10 -0.00191893 0)
(-1.93156e-09 -0.00191893 0)
(-1.52646e-09 -0.00191892 0)
(1.8105e-09 -0.00191892 0)
(2.54652e-09 -0.00191893 0)
(2.88579e-10 -0.00191893 0)
(-2.21482e-09 -0.00191893 0)
(-1.75465e-09 -0.00191892 0)
(2.01266e-09 -0.00191892 0)
(2.79321e-09 -0.00191893 0)
(2.82284e-10 -0.00191893 0)
(-2.4737e-09 -0.00191893 0)
(-1.96312e-09 -0.00191892 0)
(2.19516e-09 -0.00191892 0)
(3.01564e-09 -0.00191893 0)
(2.76266e-10 -0.00191893 0)
(-2.70721e-09 -0.00191893 0)
(-2.15114e-09 -0.00191892 0)
(2.35754e-09 -0.00191892 0)
(3.21318e-09 -0.00191893 0)
(2.70542e-10 -0.00191893 0)
(-2.91471e-09 -0.00191893 0)
(-2.31826e-09 -0.00191892 0)
(2.49959e-09 -0.00191892 0)
(3.38547e-09 -0.00191893 0)
(2.65126e-10 -0.00191893 0)
(-3.09582e-09 -0.00191893 0)
(-2.46427e-09 -0.00191892 0)
(2.62134e-09 -0.00191892 0)
(3.53244e-09 -0.00191893 0)
(2.60022e-10 -0.00191893 0)
(-3.25049e-09 -0.00191893 0)
(-2.58919e-09 -0.00191892 0)
(2.72303e-09 -0.00191892 0)
(3.6543e-09 -0.00191893 0)
(2.55229e-10 -0.00191893 0)
(-3.37895e-09 -0.00191893 0)
(-2.69331e-09 -0.00191892 0)
(2.80512e-09 -0.00191892 0)
(3.7515e-09 -0.00191893 0)
(2.50739e-10 -0.00191893 0)
(-3.48168e-09 -0.00191893 0)
(-2.7771e-09 -0.00191892 0)
(2.86829e-09 -0.00191892 0)
(3.82475e-09 -0.00191893 0)
(2.46539e-10 -0.00191893 0)
(-3.55945e-09 -0.00191893 0)
(-2.84128e-09 -0.00191892 0)
(2.91338e-09 -0.00191892 0)
(3.87498e-09 -0.00191893 0)
(2.42609e-10 -0.00191893 0)
(-3.61325e-09 -0.00191893 0)
(-2.88673e-09 -0.00191892 0)
(2.9414e-09 -0.00191892 0)
(3.90332e-09 -0.00191893 0)
(2.38928e-10 -0.00191893 0)
(-3.64429e-09 -0.00191893 0)
(-2.91453e-09 -0.00191892 0)
(2.95354e-09 -0.00191892 0)
(3.91109e-09 -0.00191893 0)
(2.35466e-10 -0.00191893 0)
(-3.65399e-09 -0.00191893 0)
(-2.92591e-09 -0.00191892 0)
(2.95109e-09 -0.00191892 0)
(3.89977e-09 -0.00191893 0)
(2.32194e-10 -0.00191893 0)
(-3.64392e-09 -0.00191893 0)
(-2.92222e-09 -0.00191892 0)
(2.93547e-09 -0.00191892 0)
(3.87099e-09 -0.00191893 0)
(2.29079e-10 -0.00191893 0)
(-3.61581e-09 -0.00191893 0)
(-2.90496e-09 -0.00191892 0)
(2.90818e-09 -0.00191892 0)
(3.82647e-09 -0.00191893 0)
(2.26084e-10 -0.00191893 0)
(-3.57149e-09 -0.00191893 0)
(-2.87568e-09 -0.00191892 0)
(2.87079e-09 -0.00191892 0)
(3.76804e-09 -0.00191893 0)
(2.23174e-10 -0.00191893 0)
(-3.5129e-09 -0.00191893 0)
(-2.83603e-09 -0.00191892 0)
(2.8249e-09 -0.00191892 0)
(3.69758e-09 -0.00191893 0)
(2.20311e-10 -0.00191893 0)
(-3.44203e-09 -0.00191893 0)
(-2.78769e-09 -0.00191892 0)
(2.77216e-09 -0.00191892 0)
(3.61701e-09 -0.00191893 0)
(2.17459e-10 -0.00191893 0)
(-3.36091e-09 -0.00191893 0)
(-2.73237e-09 -0.00191892 0)
(2.7142e-09 -0.00191892 0)
(3.52826e-09 -0.00191893 0)
(2.14583e-10 -0.00191893 0)
(-3.27158e-09 -0.00191893 0)
(-2.67176e-09 -0.00191892 0)
(2.65263e-09 -0.00191892 0)
(3.43324e-09 -0.00191893 0)
(2.1165e-10 -0.00191893 0)
(-3.17606e-09 -0.00191893 0)
(-2.60755e-09 -0.00191892 0)
(2.58901e-09 -0.00191892 0)
(3.33385e-09 -0.00191893 0)
(2.08629e-10 -0.00191893 0)
(-3.07634e-09 -0.00191893 0)
(-2.54135e-09 -0.00191892 0)
(2.52483e-09 -0.00191892 0)
(3.23189e-09 -0.00191893 0)
(2.05495e-10 -0.00191893 0)
(-2.97431e-09 -0.00191893 0)
(-2.47474e-09 -0.00191892 0)
(2.46152e-09 -0.00191892 0)
(3.12911e-09 -0.00191893 0)
(2.02224e-10 -0.00191893 0)
(-2.8718e-09 -0.00191893 0)
(-2.40916e-09 -0.00191892 0)
(2.40036e-09 -0.00191892 0)
(3.02716e-09 -0.00191893 0)
(1.98801e-10 -0.00191893 0)
(-2.77052e-09 -0.00191893 0)
(-2.34597e-09 -0.00191892 0)
(2.34253e-09 -0.00191892 0)
(2.92753e-09 -0.00191893 0)
(1.95214e-10 -0.00191893 0)
(-2.67203e-09 -0.00191893 0)
(-2.28638e-09 -0.00191892 0)
(2.28907e-09 -0.00191892 0)
(2.83161e-09 -0.00191893 0)
(1.91461e-10 -0.00191893 0)
(-2.57774e-09 -0.00191893 0)
(-2.23145e-09 -0.00191892 0)
(2.24083e-09 -0.00191892 0)
(2.74062e-09 -0.00191893 0)
(1.87544e-10 -0.00191893 0)
(-2.4889e-09 -0.00191893 0)
(-2.18207e-09 -0.00191892 0)
(2.1985e-09 -0.00191892 0)
(2.6556e-09 -0.00191893 0)
(1.83477e-10 -0.00191893 0)
(-2.40657e-09 -0.00191893 0)
(-2.13894e-09 -0.00191892 0)
(2.16258e-09 -0.00191892 0)
(2.57743e-09 -0.00191893 0)
(1.7928e-10 -0.00191893 0)
(-2.33157e-09 -0.00191893 0)
(-2.10257e-09 -0.00191892 0)
(2.13337e-09 -0.00191892 0)
(2.50675e-09 -0.00191893 0)
(1.74984e-10 -0.00191893 0)
(-2.26456e-09 -0.00191893 0)
(-2.07323e-09 -0.00191892 0)
(2.11094e-09 -0.00191892 0)
(2.44405e-09 -0.00191893 0)
(1.70629e-10 -0.00191893 0)
(-2.20594e-09 -0.00191893 0)
(-2.051e-09 -0.00191892 0)
(2.09517e-09 -0.00191892 0)
(2.38957e-09 -0.00191893 0)
(1.66264e-10 -0.00191893 0)
(-2.15589e-09 -0.00191893 0)
(-2.03572e-09 -0.00191892 0)
(2.08568e-09 -0.00191892 0)
(2.34335e-09 -0.00191893 0)
(1.6195e-10 -0.00191893 0)
(-2.11435e-09 -0.00191893 0)
(-2.02698e-09 -0.00191892 0)
(2.0819e-09 -0.00191892 0)
(2.30522e-09 -0.00191893 0)
(1.57757e-10 -0.00191893 0)
(-2.08102e-09 -0.00191893 0)
(-2.02416e-09 -0.00191892 0)
(2.08305e-09 -0.00191892 0)
(2.27481e-09 -0.00191893 0)
(1.53761e-10 -0.00191893 0)
(-2.0554e-09 -0.00191893 0)
(-2.02641e-09 -0.00191892 0)
(2.08814e-09 -0.00191892 0)
(2.25153e-09 -0.00191893 0)
(1.5005e-10 -0.00191893 0)
(-2.03676e-09 -0.00191893 0)
(-2.03268e-09 -0.00191892 0)
(2.09599e-09 -0.00191892 0)
(2.23463e-09 -0.00191893 0)
(1.46717e-10 -0.00191893 0)
(-2.02417e-09 -0.00191893 0)
(-2.04172e-09 -0.00191892 0)
(2.10527e-09 -0.00191892 0)
(2.22323e-09 -0.00191893 0)
(1.43859e-10 -0.00191893 0)
(-2.01657e-09 -0.00191893 0)
(-2.05212e-09 -0.00191892 0)
(2.11461e-09 -0.00191892 0)
(2.2164e-09 -0.00191893 0)
(1.41577e-10 -0.00191893 0)
(-2.01285e-09 -0.00191893 0)
(-2.06242e-09 -0.00191892 0)
(2.12266e-09 -0.00191892 0)
(2.21331e-09 -0.00191893 0)
(1.39977e-10 -0.00191893 0)
(-2.012e-09 -0.00191893 0)
(-2.07118e-09 -0.00191892 0)
(2.128e-09 -0.00191892 0)
(2.21307e-09 -0.00191893 0)
(1.39156e-10 -0.00191893 0)
(-2.01293e-09 -0.00191893 0)
(-2.07692e-09 -0.00191892 0)
)
;

boundaryField
{
    BotWall
    {
        type            fixedValue;
        value           uniform (0 0 0);
    }
    FreeStream
    {
        type            zeroGradient;
    }
    FrontNBack
    {
        type            empty;
    }
    LeftSide
    {
        type            symmetryPlane;
    }
    RightSide
    {
        type            symmetryPlane;
    }
}


// ************************************************************************* //
