/*--------------------------------*- C++ -*----------------------------------*\
| =========                 |                                                 |
| \\      /  F ield         | OpenFOAM: The Open Source CFD Toolbox           |
|  \\    /   O peration     | Version:  2.4.0                                 |
|   \\  /    A nd           | Web:      www.OpenFOAM.org                      |
|    \\/     M anipulation  |                                                 |
\*---------------------------------------------------------------------------*/
FoamFile
{
    version     2.0;
    format      ascii;
    class       volScalarField;
    location    "3";
    object      H;
}
// * * * * * * * * * * * * * * * * * * * * * * * * * * * * * * * * * * * * * //

dimensions      [0 2 -2 0 0 0 0];

internalField   nonuniform List<scalar> 
125
(
-11953.9
-11953.9
-11953.9
-11953.9
-11953.9
-11398.5
-11398.5
-11398.5
-11398.5
-11398.5
-10837
-10836.9
-10836.9
-10836.9
-10837
-10269
-10269
-10269
-10269
-10269
-9694.58
-9694.56
-9694.52
-9694.54
-9694.59
-9113.57
-9113.54
-9113.49
-9113.52
-9113.58
-8525.85
-8525.81
-8525.76
-8525.79
-8525.85
-7931.29
-7931.24
-7931.18
-7931.22
-7931.3
-7329.78
-7329.72
-7329.66
-7329.7
-7329.79
-6721.18
-6721.12
-6721.04
-6721.09
-6721.19
-6105.35
-6105.29
-6105.2
-6105.26
-6105.37
-5482.18
-5482.1
-5482.01
-5482.07
-5482.19
-4851.51
-4851.43
-4851.32
-4851.39
-4851.52
-4213.2
-4213.11
-4212.99
-4213.06
-4213.22
-3567.11
-3567.01
-3566.88
-3566.96
-3567.13
-2913.08
-2912.97
-2912.83
-2912.92
-2913.1
-2250.97
-2250.85
-2250.7
-2250.8
-2251
-1580.63
-1580.5
-1580.33
-1580.44
-1580.66
-901.886
-901.743
-901.568
-901.677
-901.917
-24.3701
-24.3539
-24.3349
-24.3467
-24.3734
-18.2901
-18.278
-18.2637
-18.2726
-18.2926
-18.4459
-18.4339
-18.4198
-18.4286
-18.4483
-18.5966
-18.5847
-18.5708
-18.5795
-18.5989
-18.7419
-18.7301
-18.7165
-18.725
-18.7442
-18.8817
-18.87
-18.8566
-18.865
-18.8839
)
;

boundaryField
{
    BotWall
    {
        type            zeroGradient;
    }
    FreeStream
    {
        type            zeroGradient;
    }
    FrontNBack
    {
        type            empty;
    }
    LeftSide
    {
        type            symmetryPlane;
    }
    RightSide
    {
        type            symmetryPlane;
    }
    procBoundary0to1
    {
        type            processor;
        value           nonuniform List<scalar> 5(-19.0142 -19.0026 -18.9894 -18.9977 -19.0163);
    }
}


// ************************************************************************* //
