/*--------------------------------*- C++ -*----------------------------------*\
| =========                 |                                                 |
| \\      /  F ield         | OpenFOAM: The Open Source CFD Toolbox           |
|  \\    /   O peration     | Version:  2.4.0                                 |
|   \\  /    A nd           | Web:      www.OpenFOAM.org                      |
|    \\/     M anipulation  |                                                 |
\*---------------------------------------------------------------------------*/
FoamFile
{
    version     2.0;
    format      ascii;
    class       surfaceScalarField;
    location    "3";
    object      phi;
}
// * * * * * * * * * * * * * * * * * * * * * * * * * * * * * * * * * * * * * //

dimensions      [0 3 -1 0 0 0 0];

internalField   nonuniform List<scalar> 
220
(
3.40714e-18
-3.41413e-18
2.64888e-18
7.45323e-19
-1.99274e-18
4.62242e-18
-4.11609e-18
2.10875e-18
-4.12996e-18
1.05223e-17
-1.39376e-17
8.2737e-18
2.99211e-18
-6.21553e-18
1.9109e-17
-1.28289e-17
8.72014e-18
-1.69601e-17
1.80369e-17
-3.1976e-17
1.42549e-17
6.77216e-18
-1.07144e-17
4.40755e-17
-2.21014e-17
2.0105e-17
-3.90627e-17
2.59754e-17
-5.79531e-17
2.0588e-17
1.21575e-17
-1.54802e-17
8.01407e-17
-3.19192e-17
3.65418e-17
-7.09832e-17
3.43898e-17
-9.23446e-17
2.73038e-17
1.92413e-17
-2.05325e-17
1.27974e-16
-4.23165e-17
5.83236e-17
-1.13301e-16
4.32815e-17
-1.35628e-16
3.44148e-17
2.81057e-17
-2.58776e-17
1.88263e-16
-5.33137e-17
8.57575e-17
-1.66616e-16
5.26994e-17
-1.88329e-16
4.19532e-17
3.88496e-17
-3.15456e-17
2.61759e-16
-6.49739e-17
1.19184e-16
-2.31591e-16
6.26412e-17
-2.50972e-16
4.99272e-17
5.15613e-17
-3.75404e-17
3.49223e-16
-7.73044e-17
1.58945e-16
-3.08897e-16
7.31651e-17
-3.24139e-16
5.8375e-17
6.63492e-17
-4.38948e-17
4.5149e-16
-9.0374e-17
2.05423e-16
-3.99272e-16
8.42678e-17
-4.08409e-16
6.73058e-17
8.3309e-17
-5.06115e-17
5.69405e-16
-1.04188e-16
2.58997e-16
-5.0346e-16
9.60165e-17
-5.04427e-16
7.67624e-17
1.02561e-16
-5.77273e-17
7.03892e-16
-1.18824e-16
3.20091e-16
-6.22285e-16
1.08409e-16
-6.12838e-16
8.67556e-17
1.24213e-16
-6.52455e-17
8.55891e-16
-1.34292e-16
3.89136e-16
-7.56578e-16
1.21519e-16
-7.34359e-16
9.73358e-17
1.48395e-16
-7.32059e-17
1.02643e-15
-1.50676e-16
4.66605e-16
-9.07255e-16
1.35337e-16
-8.69697e-16
1.08514e-16
1.75216e-16
-8.16129e-17
1.21655e-15
-1.67977e-16
5.52968e-16
-1.07523e-15
1.49923e-16
-1.01962e-15
1.2033e-16
2.04809e-16
-9.05032e-17
1.42739e-15
-1.86253e-16
6.48716e-16
-1.26149e-15
1.65285e-16
-1.18491e-15
1.32771e-16
2.37321e-16
-9.9879e-17
1.66003e-15
-2.05513e-16
7.54349e-16
-1.467e-15
1.81639e-16
-1.36655e-15
1.46012e-16
2.72949e-16
-1.0987e-16
1.91592e-15
-2.26059e-16
8.70538e-16
-1.69306e-15
1.99382e-16
-1.56593e-15
1.59953e-16
3.12376e-16
-1.20497e-16
2.19637e-15
-2.48572e-16
9.98612e-16
-1.94163e-15
2.18609e-16
-2.92162e-15
1.76828e-16
3.54155e-16
-1.32638e-16
2.50583e-15
-2.74165e-16
1.14014e-15
-2.9754e-15
2.40786e-16
-2.4359e-10
2.00298e-16
-2.43593e-10
-1.48547e-16
-2.43596e-10
-3.07134e-16
-2.43594e-10
-2.43589e-10
2.45126e-16
-2.4359e-10
1.98189e-16
-2.43593e-10
-1.4905e-16
-2.43596e-10
-3.07301e-16
-2.43594e-10
-2.4359e-10
2.5488e-16
-2.43591e-10
2.00095e-16
-2.43593e-10
-1.49462e-16
-2.43595e-10
-3.16155e-16
-2.43594e-10
-2.4359e-10
2.39294e-16
-2.43591e-10
1.90529e-16
-2.43593e-10
-1.44903e-16
-2.43595e-10
-2.99101e-16
-2.43594e-10
-2.4359e-10
2.29145e-16
-2.43591e-10
1.82307e-16
-2.43593e-10
-1.39299e-16
-2.43595e-10
-2.86968e-16
-2.43593e-10
-2.43591e-10
2.21257e-16
1.75419e-16
-1.33993e-16
-2.77029e-16
)
;

boundaryField
{
    BotWall
    {
        type            calculated;
        value           nonuniform List<scalar> 5(1.41496e-22 3.22469e-22 -4.47574e-22 -5.18199e-22 2.25666e-22);
    }
    FreeStream
    {
        type            calculated;
        value           nonuniform 0();
    }
    FrontNBack
    {
        type            empty;
        value           nonuniform 0();
    }
    LeftSide
    {
        type            symmetryPlane;
        value           uniform 0;
    }
    RightSide
    {
        type            symmetryPlane;
        value           uniform 0;
    }
    procBoundary0to1
    {
        type            processor;
        value           nonuniform List<scalar> 5(-2.43591e-10 -2.43593e-10 -2.43594e-10 -2.43593e-10 -2.43591e-10);
    }
}


// ************************************************************************* //
