/*--------------------------------*- C++ -*----------------------------------*\
| =========                 |                                                 |
| \\      /  F ield         | OpenFOAM: The Open Source CFD Toolbox           |
|  \\    /   O peration     | Version:  2.4.0                                 |
|   \\  /    A nd           | Web:      www.OpenFOAM.org                      |
|    \\/     M anipulation  |                                                 |
\*---------------------------------------------------------------------------*/
FoamFile
{
    version     2.0;
    format      ascii;
    class       volScalarField;
    location    "3";
    object      T;
}
// * * * * * * * * * * * * * * * * * * * * * * * * * * * * * * * * * * * * * //

dimensions      [0 0 0 1 0 0 0];

internalField   nonuniform List<scalar> 
125
(
293.113
293.113
293.113
293.113
293.113
293.34
293.34
293.34
293.34
293.34
293.57
293.57
293.57
293.57
293.57
293.802
293.802
293.802
293.802
293.802
294.037
294.037
294.037
294.037
294.037
294.274
294.274
294.274
294.274
294.274
294.514
294.514
294.514
294.514
294.514
294.757
294.757
294.757
294.757
294.757
295.003
295.003
295.003
295.003
295.003
295.252
295.252
295.252
295.252
295.252
295.504
295.504
295.504
295.504
295.504
295.759
295.759
295.759
295.759
295.759
296.017
296.017
296.017
296.017
296.017
296.278
296.278
296.278
296.278
296.278
296.542
296.542
296.542
296.542
296.542
296.809
296.809
296.809
296.809
296.809
297.08
297.08
297.08
297.08
297.08
297.354
297.354
297.354
297.354
297.354
297.631
297.631
297.631
297.631
297.631
297.99
297.99
297.99
297.99
297.99
297.99
297.99
297.99
297.99
297.99
297.99
297.99
297.99
297.99
297.99
297.99
297.99
297.99
297.99
297.99
297.99
297.99
297.99
297.99
297.99
297.99
297.99
297.99
297.99
297.99
)
;

boundaryField
{
    BotWall
    {
        type            fixedValue;
        value           uniform 293;
    }
    FreeStream
    {
        type            fixedValue;
        value           nonuniform 0();
    }
    FrontNBack
    {
        type            empty;
    }
    LeftSide
    {
        type            symmetryPlane;
    }
    RightSide
    {
        type            symmetryPlane;
    }
    procBoundary0to1
    {
        type            processor;
        value           nonuniform List<scalar> 5(297.99 297.99 297.99 297.99 297.99);
    }
}


// ************************************************************************* //
