/*--------------------------------*- C++ -*----------------------------------*\
| =========                 |                                                 |
| \\      /  F ield         | OpenFOAM: The Open Source CFD Toolbox           |
|  \\    /   O peration     | Version:  2.4.0                                 |
|   \\  /    A nd           | Web:      www.OpenFOAM.org                      |
|    \\/     M anipulation  |                                                 |
\*---------------------------------------------------------------------------*/
FoamFile
{
    version     2.0;
    format      ascii;
    class       volVectorField;
    location    "3";
    object      U;
}
// * * * * * * * * * * * * * * * * * * * * * * * * * * * * * * * * * * * * * //

dimensions      [0 1 -1 0 0 0 0];

internalField   nonuniform List<vector> 
125
(
(8.29491e-10 -3.03133e-10 0)
(1.65472e-09 -3.05492e-10 0)
(3.12847e-10 -3.02155e-10 0)
(-1.7825e-09 -3.0448e-10 0)
(-1.25172e-09 -3.03572e-10 0)
(2.52498e-09 7.3723e-10 0)
(5.0615e-09 7.96766e-10 0)
(9.59379e-10 8.37239e-10 0)
(-5.46639e-09 8.11184e-10 0)
(-3.83393e-09 7.29669e-10 0)
(4.2701e-09 -1.43827e-09 0)
(8.59014e-09 -1.33828e-09 0)
(1.63058e-09 -1.2154e-09 0)
(-9.29619e-09 -1.29459e-09 0)
(-6.51426e-09 -1.46142e-09 0)
(6.06859e-09 1.62973e-09 0)
(1.22473e-08 1.92815e-09 0)
(2.32762e-09 2.1788e-09 0)
(-1.32701e-08 2.01802e-09 0)
(-9.28928e-09 1.58186e-09 0)
(7.93284e-09 -2.75076e-09 0)
(1.6048e-08 -2.35832e-09 0)
(3.05148e-09 -1.92814e-09 0)
(-1.73968e-08 -2.20404e-09 0)
(-1.21663e-08 -2.83328e-09 0)
(9.85748e-09 2.46715e-09 0)
(1.99905e-08 3.20287e-09 0)
(3.80408e-09 3.86107e-09 0)
(-2.16779e-08 3.43984e-09 0)
(-1.51451e-08 2.3397e-09 0)
(1.1853e-08 -4.50621e-09 0)
(2.40885e-08 -3.61427e-09 0)
(4.58676e-09 -2.66917e-09 0)
(-2.61299e-08 -3.27415e-09 0)
(-1.82407e-08 -4.68867e-09 0)
(1.39122e-08 2.65809e-09 0)
(2.83383e-08 4.05038e-09 0)
(5.4009e-09 5.33562e-09 0)
(-3.07506e-08 4.51409e-09 0)
(-2.1449e-08 2.40732e-09 0)
(1.60479e-08 -7.21765e-09 0)
(3.27562e-08 -5.59479e-09 0)
(6.24787e-09 -3.90196e-09 0)
(-3.55576e-08 -4.98419e-09 0)
(-2.47857e-08 -7.54627e-09 0)
(1.8252e-08 6.29283e-09 0)
(3.73378e-08 8.59338e-09 0)
(7.12922e-09 1.07547e-08 0)
(-4.05471e-08 9.37449e-09 0)
(-2.8245e-08 5.87016e-09 0)
(2.05394e-08 5.15393e-09 0)
(4.21017e-08 7.78034e-09 0)
(8.04641e-09 1.0492e-08 0)
(-4.57389e-08 8.76042e-09 0)
(-3.18448e-08 4.62078e-09 0)
(2.29015e-08 2.53899e-08 0)
(4.70437e-08 2.88726e-08 0)
(9.00116e-09 3.22028e-08 0)
(-5.11297e-08 3.00785e-08 0)
(-3.55794e-08 2.4743e-08 0)
(2.53538e-08 -7.41377e-08 0)
(5.21836e-08 -7.0338e-08 0)
(9.99536e-09 -6.63458e-08 0)
(-5.67395e-08 -6.88926e-08 0)
(-3.94669e-08 -7.49276e-08 0)
(2.78865e-08 -3.61542e-07 0)
(5.75153e-08 -3.56912e-07 0)
(1.10306e-08 -3.52336e-07 0)
(-6.25634e-08 -3.55256e-07 0)
(-4.35003e-08 -3.62412e-07 0)
(3.05147e-08 -5.47775e-07 0)
(6.30569e-08 -5.42558e-07 0)
(1.21082e-08 -5.37371e-07 0)
(-6.86184e-08 -5.40684e-07 0)
(-4.76954e-08 -5.48843e-07 0)
(3.32333e-08 1.64549e-06 0)
(6.8809e-08 1.65384e-06 0)
(1.32304e-08 1.66087e-06 0)
(-7.49115e-08 1.6564e-06 0)
(-5.20564e-08 1.64392e-06 0)
(3.60803e-08 9.70453e-06 0)
(7.48331e-08 9.71884e-06 0)
(1.44065e-08 9.73167e-06 0)
(-8.15147e-08 9.72358e-06 0)
(-5.66415e-08 9.70212e-06 0)
(3.90711e-08 1.29695e-05 0)
(8.11514e-08 1.29876e-05 0)
(1.56208e-08 1.30087e-05 0)
(-8.85044e-08 1.29955e-05 0)
(-6.15051e-08 1.29659e-05 0)
(4.21603e-08 -3.78751e-05 0)
(8.78503e-08 -3.78911e-05 0)
(1.6982e-08 -3.78965e-05 0)
(-9.58685e-08 -3.78933e-05 0)
(-6.66125e-08 -3.78736e-05 0)
(4.54787e-08 -0.000296024 0)
(9.52562e-08 -0.00029612 0)
(1.85283e-08 -0.000296219 0)
(-1.04037e-07 -0.000296157 0)
(-7.22378e-08 -0.000296005 0)
(4.62458e-08 -0.000912868 0)
(9.68635e-08 -0.000912821 0)
(1.88488e-08 -0.000912787 0)
(-1.05869e-07 -0.000912809 0)
(-7.35491e-08 -0.000912873 0)
(4.67343e-08 -0.00210852 0)
(9.66966e-08 -0.00210845 0)
(1.86753e-08 -0.00210839 0)
(-1.05283e-07 -0.00210843 0)
(-7.33816e-08 -0.00210853 0)
(4.37528e-08 -0.00125784 0)
(9.13751e-08 -0.0012579 0)
(1.76027e-08 -0.00125792 0)
(-1.00379e-07 -0.00125791 0)
(-6.96868e-08 -0.00125783 0)
(4.13611e-08 -0.00117019 0)
(8.67094e-08 -0.00117021 0)
(1.66967e-08 -0.00117023 0)
(-9.55372e-08 -0.00117022 0)
(-6.61606e-08 -0.00117019 0)
(3.93688e-08 -0.00119179 0)
(8.26032e-08 -0.00119179 0)
(1.59067e-08 -0.0011918 0)
(-9.10499e-08 -0.00119179 0)
(-6.29507e-08 -0.00119179 0)
)
;

boundaryField
{
    BotWall
    {
        type            fixedValue;
        value           uniform (0 0 0);
    }
    FreeStream
    {
        type            zeroGradient;
    }
    FrontNBack
    {
        type            empty;
    }
    LeftSide
    {
        type            symmetryPlane;
    }
    RightSide
    {
        type            symmetryPlane;
    }
    procBoundary0to1
    {
        type            processor;
        value           nonuniform List<vector> 5((3.74485e-08 -0.00121555 0) (7.86544e-08 -0.00121556 0) (1.51517e-08 -0.00121556 0) (-8.67388e-08 -0.00121556 0) (-5.98719e-08 -0.00121555 0));
    }
}


// ************************************************************************* //
