/*--------------------------------*- C++ -*----------------------------------*\
| =========                 |                                                 |
| \\      /  F ield         | OpenFOAM: The Open Source CFD Toolbox           |
|  \\    /   O peration     | Version:  2.4.0                                 |
|   \\  /    A nd           | Web:      www.OpenFOAM.org                      |
|    \\/     M anipulation  |                                                 |
\*---------------------------------------------------------------------------*/
FoamFile
{
    version     2.0;
    format      ascii;
    class       volScalarField;
    location    "0.003";
    object      H;
}
// * * * * * * * * * * * * * * * * * * * * * * * * * * * * * * * * * * * * * //

dimensions      [0 2 -2 0 0 0 0];

internalField   nonuniform List<scalar> 
1500
(
-8316.62
-8309.74
-8294.25
-8316.84
-8311.62
-141.966
-141.331
-139.871
-142.014
-141.501
-103.886
-103.423
-102.342
-103.93
-103.538
-99.0964
-98.6648
-97.5733
-99.1663
-98.749
-94.57
-94.1768
-93.0804
-94.6655
-94.2334
-90.287
-89.9295
-88.835
-90.4059
-89.9621
-86.2261
-85.9012
-84.8137
-86.3659
-85.9127
-82.3676
-82.0729
-80.9964
-82.5261
-82.0656
-78.6941
-78.4275
-77.3653
-78.8691
-78.4036
-75.1901
-74.9497
-73.9046
-75.3795
-74.9112
-71.8421
-71.6259
-70.6004
-72.0437
-71.5748
-68.6378
-68.4442
-67.4403
-68.8497
-68.382
-65.5666
-65.394
-64.4133
-65.787
-65.3223
-62.6191
-62.4658
-61.5098
-62.846
-62.3862
-59.7869
-59.6514
-58.7213
-60.0188
-59.5652
-57.0627
-56.9437
-56.0404
-57.2981
-56.8521
-54.4403
-54.3363
-53.4607
-54.6777
-54.2405
-51.914
-51.8237
-50.9765
-52.1522
-51.7247
-49.479
-49.4012
-48.5827
-49.7168
-49.2999
-47.131
-47.0645
-46.2751
-47.3673
-46.9618
-44.8662
-44.81
-44.05
-45.1001
-44.7066
-42.6816
-42.6346
-41.9039
-42.9123
-42.5311
-40.5742
-40.5354
-39.8342
-40.8009
-40.4325
-38.5416
-38.5102
-37.8381
-38.7636
-38.4083
-36.5815
-36.5566
-35.9136
-36.7983
-36.4563
-34.6921
-34.673
-34.0587
-34.9032
-34.5746
-32.8716
-32.8575
-32.2715
-33.0766
-32.7614
-31.1185
-31.1088
-30.5506
-31.317
-31.0152
-29.4313
-29.4254
-28.8945
-29.6229
-29.3346
-27.8086
-27.8059
-27.3017
-27.9932
-27.7182
-26.2492
-26.2494
-25.7712
-26.4267
-26.1647
-24.752
-24.7544
-24.3016
-24.9222
-24.6731
-23.3157
-23.32
-22.8919
-23.4785
-23.2421
-21.9392
-21.9451
-21.5408
-22.0945
-21.8706
-20.6213
-20.6284
-20.2472
-20.7693
-20.5574
-19.3609
-19.369
-19.0101
-19.5015
-19.3014
-18.1568
-18.1656
-17.8282
-18.2902
-18.1015
-17.0079
-17.0172
-16.7003
-17.1341
-16.9565
-15.9128
-15.9224
-15.6254
-16.032
-15.8651
-14.8704
-14.8802
-14.602
-14.9828
-14.8261
-13.8794
-13.8892
-13.6291
-13.9851
-13.8383
-12.9384
-12.9481
-12.7053
-13.0376
-12.9003
-12.0461
-12.0556
-11.8292
-12.139
-12.0109
-11.2011
-11.2103
-10.9996
-11.288
-11.1685
-10.402
-10.4108
-10.2149
-10.4831
-10.3719
-9.64736
-9.6558
-9.47392
-9.72288
-9.61951
-8.93566
-8.94369
-8.77508
-9.00587
-8.90997
-8.26545
-8.27303
-8.11694
-8.3306
-8.24175
-7.63521
-7.64234
-7.49805
-7.69555
-7.61338
-7.04342
-7.0501
-6.9169
-7.0992
-7.02333
-6.48857
-6.49478
-6.372
-6.54004
-6.47009
-5.96912
-5.97488
-5.86187
-6.01652
-5.95214
-5.48355
-5.48887
-5.385
-5.52713
-5.46796
-5.03034
-5.03523
-4.9399
-5.07033
-5.01605
-4.60799
-4.61247
-4.5251
-4.64461
-4.5949
-4.215
-4.21909
-4.13913
-4.24849
-4.20302
-3.84991
-3.85363
-3.78057
-3.88047
-3.83896
-3.51127
-3.51464
-3.44797
-3.5391
-3.50127
-3.19766
-3.20071
-3.13997
-3.22297
-3.18854
-2.90771
-2.91045
-2.85519
-2.93068
-2.8994
-2.64005
-2.64251
-2.59232
-2.66086
-2.63249
-2.39338
-2.39558
-2.35006
-2.4122
-2.38651
-2.16642
-2.16839
-2.12716
-2.18341
-2.16019
-1.95795
-1.9597
-1.92242
-1.97326
-1.9523
-1.76677
-1.76832
-1.73467
-1.78054
-1.76166
-1.59175
-1.59312
-1.56278
-1.60412
-1.58713
-1.43179
-1.43299
-1.40569
-1.44287
-1.42762
-1.28584
-1.2869
-1.26236
-1.29575
-1.28209
-1.1529
-1.15383
-1.13182
-1.16176
-1.14953
-1.03203
-1.03284
-1.01312
-1.03992
-1.02899
-0.922307
-0.923017
-0.905382
-0.929331
-0.919589
-0.82289
-0.823507
-0.807761
-0.829129
-0.820456
-0.732964
-0.7335
-0.719463
-0.738496
-0.730789
-0.651769
-0.652232
-0.639739
-0.656665
-0.649827
-0.578586
-0.578986
-0.567885
-0.582911
-0.576856
-0.512744
-0.513087
-0.503241
-0.516557
-0.511205
-0.453612
-0.453907
-0.445187
-0.456969
-0.452245
-0.400603
-0.400856
-0.393146
-0.403553
-0.399392
-0.353171
-0.353386
-0.346582
-0.355757
-0.352099
-0.310806
-0.310989
-0.304994
-0.31307
-0.309859
-0.273037
-0.273192
-0.267919
-0.275015
-0.272202
-0.239428
-0.23956
-0.23493
-0.241154
-0.238693
-0.209578
-0.209689
-0.205631
-0.21108
-0.208932
-0.183116
-0.183209
-0.179659
-0.184421
-0.18255
-0.159702
-0.15978
-0.156679
-0.160834
-0.159206
-0.139024
-0.13909
-0.136387
-0.140004
-0.138591
-0.120799
-0.120854
-0.118501
-0.121646
-0.120422
-0.104766
-0.104812
-0.102768
-0.105497
-0.104438
-0.0906895
-0.0907278
-0.0889554
-0.0913184
-0.0904042
-0.0783547
-0.0783866
-0.0768525
-0.0788952
-0.0781074
-0.0675678
-0.0675941
-0.0662689
-0.0680313
-0.0673538
-0.0581532
-0.058175
-0.0570323
-0.05855
-0.0579684
-0.0499529
-0.0499708
-0.0489874
-0.0502919
-0.0497937
-0.0428246
-0.0428394
-0.0419947
-0.0431137
-0.0426877
-0.036641
-0.0366531
-0.0359289
-0.036887
-0.0365234
-0.0312877
-0.0312976
-0.0306779
-0.0314967
-0.031187
-0.0266628
-0.026671
-0.0261418
-0.0268401
-0.0265768
-0.0226756
-0.0226823
-0.0222312
-0.0228256
-0.0226023
-0.0192453
-0.0192508
-0.0188671
-0.019372
-0.0191829
-0.0163004
-0.0163048
-0.0159791
-0.0164071
-0.0162473
-0.0137775
-0.0137811
-0.0135051
-0.0138673
-0.0137325
-0.0116208
-0.0116237
-0.0113904
-0.0116962
-0.0115827
-0.00978103
-0.00978341
-0.00958658
-0.00984421
-0.00974894
-0.00821512
-0.00821705
-0.00805132
-0.00826794
-0.00818809
-0.00688516
-0.00688673
-0.00674748
-0.00692925
-0.00686246
-0.00575811
-0.00575938
-0.00564263
-0.00579482
-0.00573907
-0.0048051
-0.00480613
-0.00470845
-0.00483562
-0.00478917
-0.00400106
-0.0040019
-0.00392035
-0.00402638
-0.00398777
-0.00332423
-0.00332491
-0.00325698
-0.00334519
-0.00331316
-0.00275578
-0.00275632
-0.00269986
-0.00277308
-0.00274657
-0.00227942
-0.00227987
-0.00223303
-0.00229369
-0.00227179
-0.00188116
-0.00188152
-0.00184277
-0.0018929
-0.00187485
-0.00154897
-0.00154926
-0.00151726
-0.0015586
-0.00154376
-0.00127252
-0.00127276
-0.00124639
-0.00128041
-0.00126823
-0.001043
-0.0010432
-0.00102152
-0.00104945
-0.00103948
-0.000852897
-0.000853056
-0.000835283
-0.000858155
-0.000850011
-0.000695813
-0.000695942
-0.000681401
-0.000700092
-0.000693454
-0.000566324
-0.000566429
-0.000554559
-0.000569798
-0.0005644
-0.000459839
-0.000459924
-0.000450258
-0.000462653
-0.000458273
-0.000372483
-0.000372553
-0.0003647
-0.000374758
-0.000371212
-0.000300996
-0.000301053
-0.000294688
-0.000302831
-0.000299967
-0.000242639
-0.000242686
-0.000237539
-0.000244115
-0.000241808
-0.000195118
-0.000195156
-0.000191005
-0.000196303
-0.000194448
-0.000156518
-0.000156549
-0.000153209
-0.000157467
-0.00015598
-0.000125242
-0.000125268
-0.000122587
-0.000126001
-0.000124811
-9.9966e-05
-9.99868e-05
-9.78406e-05
-0.000100571
-9.96211e-05
-7.95901e-05
-7.9607e-05
-7.78931e-05
-8.00713e-05
-7.9315e-05
-6.32067e-05
-6.32205e-05
-6.18552e-05
-6.35886e-05
-6.29878e-05
-5.00676e-05
-5.00788e-05
-4.8994e-05
-5.03699e-05
-4.98939e-05
-3.95577e-05
-3.95669e-05
-3.87071e-05
-3.97964e-05
-3.94203e-05
-3.1173e-05
-3.11805e-05
-3.05008e-05
-3.1361e-05
-3.10646e-05
-2.45015e-05
-2.45074e-05
-2.39716e-05
-2.46492e-05
-2.44161e-05
-1.92071e-05
-1.92119e-05
-1.87906e-05
-1.93229e-05
-1.914e-05
-1.50168e-05
-1.50207e-05
-1.46903e-05
-1.51074e-05
-1.49643e-05
-1.17094e-05
-1.17126e-05
-1.14541e-05
-1.178e-05
-1.16684e-05
-9.1059e-06
-9.10843e-06
-8.90685e-06
-9.16086e-06
-9.07399e-06
-7.06214e-06
-7.06416e-06
-6.90732e-06
-7.10476e-06
-7.03733e-06
-5.46214e-06
-5.46375e-06
-5.34208e-06
-5.49511e-06
-5.44292e-06
-4.21303e-06
-4.21431e-06
-4.12018e-06
-4.23848e-06
-4.19821e-06
-3.24061e-06
-3.24163e-06
-3.16899e-06
-3.26021e-06
-3.22918e-06
-2.48569e-06
-2.48648e-06
-2.43062e-06
-2.50072e-06
-2.4769e-06
-1.90127e-06
-1.90193e-06
-1.85904e-06
-1.91279e-06
-1.89456e-06
-1.45016e-06
-1.45067e-06
-1.41788e-06
-1.45897e-06
-1.44503e-06
-1.10295e-06
-1.10335e-06
-1.07831e-06
-1.10964e-06
-1.09902e-06
-8.36455e-07
-8.36758e-07
-8.17744e-07
-8.41538e-07
-8.33499e-07
-6.32532e-07
-6.32762e-07
-6.18324e-07
-6.36384e-07
-6.3027e-07
-4.76922e-07
-4.77127e-07
-4.66206e-07
-4.79834e-07
-4.75246e-07
-3.58555e-07
-3.58694e-07
-3.50472e-07
-3.60732e-07
-3.57278e-07
-2.68774e-07
-2.68875e-07
-2.62697e-07
-2.70427e-07
-2.67819e-07
-2.00867e-07
-2.00966e-07
-1.96303e-07
-2.02108e-07
-2.00154e-07
-1.49667e-07
-1.49741e-07
-1.46286e-07
-1.50582e-07
-1.49145e-07
-1.11194e-07
-1.11246e-07
-1.08636e-07
-1.11871e-07
-1.10781e-07
-8.2365e-08
-8.23808e-08
-8.04938e-08
-8.28726e-08
-8.20663e-08
-6.08129e-08
-6.08453e-08
-5.94222e-08
-6.11815e-08
-6.05864e-08
-4.47662e-08
-4.4796e-08
-4.37357e-08
-4.50422e-08
-4.46113e-08
-3.2847e-08
-3.28645e-08
-3.20885e-08
-3.30619e-08
-3.27375e-08
-2.4028e-08
-2.40428e-08
-2.35023e-08
-2.41822e-08
-2.3944e-08
-1.75373e-08
-1.75322e-08
-1.7123e-08
-1.76324e-08
-1.7464e-08
-1.27342e-08
-1.27541e-08
-1.24402e-08
-1.28311e-08
-1.26967e-08
-9.23484e-09
-9.24005e-09
-9.02183e-09
-9.2928e-09
-9.20025e-09
-6.66976e-09
-6.6735e-09
-6.50621e-09
-6.70175e-09
-6.64414e-09
-4.80003e-09
-4.79945e-09
-4.69722e-09
-4.84141e-09
-4.79131e-09
-3.45476e-09
-3.46384e-09
-3.36276e-09
-3.46326e-09
-3.43721e-09
-2.45778e-09
-2.45859e-09
-2.41234e-09
-2.47725e-09
-2.4441e-09
-1.75565e-09
-1.75539e-09
-1.70906e-09
-1.76641e-09
-1.75388e-09
-1.2547e-09
-1.25346e-09
-1.21981e-09
-1.26605e-09
-1.23529e-09
-8.79295e-10
-8.72105e-10
-8.68052e-10
-8.79883e-10
-8.86699e-10
-6.14804e-10
-6.13413e-10
-5.84509e-10
-6.20821e-10
-6.06494e-10
-4.58822e-10
-4.60476e-10
-4.58674e-10
-4.60539e-10
-4.57257e-10
-2.74054e-10
-2.78558e-10
-2.6054e-10
-2.72233e-10
-2.72772e-10
-2.26638e-10
-2.35316e-10
-2.32044e-10
-2.40527e-10
-2.37671e-10
-1.59691e-10
-1.60317e-10
-1.45055e-10
-1.54754e-10
-1.51983e-10
-1.04342e-10
-9.87037e-11
-1.01073e-10
-1.08104e-10
-1.08634e-10
-5.21859e-11
-4.91346e-11
-6.10024e-11
-5.61008e-11
-5.39722e-11
-5.77616e-11
-5.76976e-11
-4.8915e-11
-3.9667e-11
-6.06595e-11
-5.24181e-11
-4.4057e-11
-4.43484e-11
-6.62689e-11
-4.01455e-11
-4.20823e-11
-5.79134e-11
-5.99053e-11
-4.64906e-11
-5.48741e-11
-4.16672e-11
-3.76655e-11
-3.81382e-11
-3.57613e-11
-3.57365e-11
-1.71835e-12
-4.84981e-13
2.66279e-12
-1.59876e-12
-1.71572e-13
3.82514e-13
4.61062e-13
8.67994e-13
3.50223e-13
4.47855e-13
-8.35213e-14
-6.50332e-14
-5.08516e-14
-7.72522e-14
-7.43638e-14
-2.76407e-14
-2.57829e-14
-2.31566e-14
-2.60921e-14
-2.22919e-14
-1.01301e-15
-1.68972e-15
-5.85647e-16
-1.33229e-15
-6.17275e-16
-1.03137e-17
-1.16006e-16
9.31372e-17
-6.34451e-17
-1.8419e-17
-9.37434e-17
-8.62822e-17
-5.83904e-17
-8.54762e-17
-7.39486e-17
-1.63876e-17
-1.64225e-17
-1.31144e-17
-1.60759e-17
-1.21385e-17
-5.71284e-19
-1.43668e-18
-9.09845e-19
-1.05719e-18
-6.4107e-19
-1.26832e-19
-2.77413e-19
-1.55684e-19
-1.80487e-19
-1.76924e-19
-6.89023e-20
-7.65007e-20
-5.6049e-20
-6.6286e-20
-5.75288e-20
-1.03e-20
-1.12826e-20
-9.42793e-21
-1.08938e-20
-7.26926e-21
-7.28059e-22
-1.33417e-21
-1.11983e-21
-1.16504e-21
-7.44525e-22
-1.3922e-22
-2.72665e-22
-2.02209e-22
-2.06964e-22
-1.93017e-22
-3.96395e-23
-5.47768e-23
-4.15072e-23
-4.60911e-23
-3.92116e-23
-6.08747e-24
-7.71498e-24
-6.6472e-24
-7.43934e-24
-4.7297e-24
-7.2523e-25
-1.10426e-24
-1.03088e-24
-1.07961e-24
-6.74057e-25
-1.24413e-25
-2.07144e-25
-1.79229e-25
-1.86949e-25
-1.47099e-25
-2.37623e-26
-3.55248e-26
-2.97107e-26
-3.29244e-26
-2.45896e-26
-3.73706e-27
-5.14215e-27
-4.67871e-27
-5.27345e-27
-3.15103e-27
-5.6967e-28
-7.98195e-28
-7.85521e-28
-8.52255e-28
-5.00039e-28
-9.47805e-29
-1.36393e-28
-1.31634e-28
-1.42188e-28
-9.35196e-29
-1.55321e-29
-2.14535e-29
-2.03627e-29
-2.28996e-29
-1.42539e-29
-2.46719e-30
-3.18722e-30
-3.17244e-30
-3.63928e-30
-1.93919e-30
-4.02625e-31
-5.05678e-31
-5.27675e-31
-5.93852e-31
-3.12205e-31
-6.54915e-32
-8.16215e-32
-8.54102e-32
-9.5568e-32
-5.30901e-32
-1.02718e-32
-1.23216e-32
-1.29447e-32
-1.48346e-32
-7.82548e-33
-1.61843e-33
-1.83162e-33
-1.9842e-33
-2.31628e-33
-1.09703e-33
-2.6098e-34
-2.85873e-34
-3.17446e-34
-3.68476e-34
-1.71469e-34
-4.14127e-35
-4.46698e-35
-4.97408e-35
-5.75055e-35
-2.7528e-35
-6.39465e-36
-6.66973e-36
-7.46481e-36
-8.74287e-36
-4.06116e-36
-9.88683e-37
-9.83781e-37
-1.12268e-36
-1.33427e-36
-5.80689e-37
-1.54102e-37
-1.48723e-37
-1.72366e-37
-2.05332e-37
-8.75652e-38
-2.37511e-38
-2.25824e-38
-2.61664e-38
-3.11542e-38
-1.34708e-38
-3.60511e-39
-3.35429e-39
-3.87543e-39
-4.64703e-39
-1.99604e-39
-5.44843e-40
-4.91328e-40
-5.71541e-40
-6.92375e-40
-2.89567e-40
-8.21496e-41
-7.22312e-41
-8.48008e-41
-1.03282e-40
-4.27183e-41
-1.22887e-41
-1.06597e-41
-1.25011e-41
-1.52594e-41
-6.37491e-42
-1.82281e-42
-1.56329e-42
-1.81815e-42
-2.22902e-42
-9.40036e-43
-2.68732e-43
-2.2678e-43
-2.62796e-43
-3.24223e-43
-1.36915e-43
-3.93642e-44
-3.26688e-44
-3.79411e-44
-4.70386e-44
-1.99548e-44
-5.72618e-45
-4.7013e-45
-5.45057e-45
-6.77689e-45
-2.9177e-45
-8.27973e-46
-6.75913e-46
-7.76675e-46
-9.68216e-46
-4.24984e-46
-1.18993e-46
-9.65464e-47
-1.10009e-46
-1.37553e-46
-6.14674e-47
-1.69812e-47
-1.36662e-47
-1.55227e-47
-1.94578e-47
-8.85366e-48
-2.40734e-48
-1.92466e-48
-2.18009e-48
-2.73665e-48
-1.27286e-48
-3.39379e-49
-2.7059e-49
-3.0437e-49
-3.82299e-49
-1.82387e-49
-4.75686e-50
-3.78823e-50
-4.22658e-50
-5.30871e-50
-2.59971e-50
-6.62392e-51
-5.26296e-51
-5.84299e-51
-7.33461e-51
-3.68645e-51
-9.16575e-52
-7.26375e-52
-8.04017e-52
-1.00801e-51
-5.20479e-52
-1.26119e-52
-9.98719e-53
-1.10069e-52
-1.37717e-52
-7.31552e-53
-1.72566e-53
-1.36761e-53
-1.49934e-53
-1.87057e-53
-1.02287e-53
-2.34703e-54
-1.86115e-54
-2.03301e-54
-2.52722e-54
-1.42229e-54
-3.17309e-55
-2.51634e-55
-2.74375e-55
-3.39668e-55
-1.96687e-55
-4.26565e-56
-3.38477e-56
-3.68474e-56
-4.54032e-56
-2.70507e-56
-5.70257e-57
-4.53159e-57
-4.92436e-57
-6.03521e-57
-3.69927e-57
-7.58007e-58
-6.03307e-58
-6.54984e-58
-7.97918e-58
-5.02918e-58
-1.00178e-58
-7.98322e-59
-8.66975e-59
-1.04942e-58
-6.79602e-59
-1.31648e-59
-1.05044e-59
-1.14183e-59
-1.37288e-59
-9.12766e-60
-1.72039e-60
-1.3749e-60
-1.49627e-60
-1.78632e-60
-1.21845e-60
-2.23564e-61
-1.78962e-61
-1.95092e-61
-2.31178e-61
-1.61643e-61
-2.88876e-62
-2.31586e-62
-2.5307e-62
-2.97599e-62
-2.13082e-62
-3.7116e-63
-2.97961e-63
-3.26552e-63
-3.81067e-63
-2.79087e-63
-4.74204e-64
-3.81214e-64
-4.19133e-64
-4.85319e-64
-3.63194e-64
-6.02446e-65
-4.84968e-65
-5.35084e-65
-6.14756e-65
-4.6961e-65
-7.61035e-66
-6.13392e-66
-6.79387e-66
-7.74518e-66
-6.03246e-66
-9.55908e-67
-7.71322e-67
-8.57805e-67
-9.70523e-67
-7.69805e-67
-1.19386e-67
-9.6432e-68
-1.07698e-67
-1.2095e-67
-9.75888e-68
-1.48254e-68
-1.19863e-68
-1.34446e-68
-1.49904e-68
-1.22901e-68
-1.8305e-69
-1.48116e-69
-1.66869e-69
-1.84765e-69
-1.53754e-69
-2.24714e-70
-1.81957e-70
-2.05897e-70
-2.26472e-70
-1.91074e-70
-2.74272e-71
-2.22218e-71
-2.52551e-71
-2.76044e-71
-2.35873e-71
-3.32826e-72
-2.69787e-72
-3.07927e-72
-3.34576e-72
-2.89245e-72
-4.0154e-73
-3.25602e-73
-3.7318e-73
-4.03228e-73
-3.52337e-73
-4.81622e-74
-3.90633e-74
-4.49508e-74
-4.83204e-74
-4.26336e-74
-5.74303e-75
-4.65866e-75
-5.38126e-75
-5.75729e-75
-5.12448e-75
-6.80813e-76
-5.52272e-76
-6.40239e-76
-6.8202e-76
-6.11871e-76
-8.02339e-77
-6.50788e-77
-7.56997e-77
-8.03258e-77
-7.25748e-77
-9.39992e-78
-7.62281e-78
-8.89454e-78
-9.4054e-78
-8.55125e-78
-1.09476e-78
-8.87512e-79
-1.03853e-78
-1.09484e-78
-1.00091e-78
-1.26746e-79
-1.02709e-79
-1.20495e-79
-1.26695e-79
-1.16385e-79
-1.45871e-80
-1.18145e-80
-1.3892e-80
-1.45745e-80
-1.34441e-80
-1.66882e-81
-1.35079e-81
-1.59146e-81
-1.66664e-81
-1.54282e-81
-1.89781e-82
-1.53505e-82
-1.81158e-82
-1.89448e-82
-1.75893e-82
-2.14532e-83
-1.73387e-83
-2.04901e-83
-2.14057e-83
-1.99224e-83
-2.41059e-84
-1.94655e-84
-2.30278e-84
-2.40409e-84
-2.24183e-84
-2.6924e-85
-2.17201e-85
-2.57145e-85
-2.68375e-85
-2.50634e-85
-2.98906e-86
-2.40884e-86
-2.85311e-86
-2.97782e-86
-2.78393e-86
-3.2984e-87
-2.6552e-87
-3.14537e-87
-3.28403e-87
-3.07232e-87
-3.61777e-88
-2.90889e-88
-3.44539e-88
-3.59968e-88
-3.36877e-88
-3.94403e-89
-3.16735e-89
-3.74989e-89
-3.92157e-89
-3.67012e-89
-4.27363e-90
-3.42768e-90
-4.05518e-90
-4.24609e-90
-3.97283e-90
-4.60263e-91
-3.6867e-91
-4.35729e-91
-4.56923e-91
-4.27302e-91
-4.92675e-92
-3.941e-92
-4.65197e-92
-4.88672e-92
-4.56659e-92
-5.24151e-93
-4.18702e-93
-4.93485e-93
-5.19405e-93
-4.84928e-93
-5.54227e-94
-4.4211e-94
-5.20149e-94
-5.48659e-94
-5.11676e-94
-5.82438e-95
-4.6396e-95
-5.44754e-95
-5.75973e-95
-5.36475e-95
-6.08326e-96
-4.83899e-96
-5.66883e-96
-6.00897e-96
-5.58913e-96
-6.31454e-97
-5.01593e-97
-5.8615e-97
-6.23003e-97
-5.78608e-97
-6.51421e-98
-5.16735e-98
-6.02209e-98
-6.41901e-98
-5.95212e-98
-6.67868e-99
-5.29058e-99
-6.14768e-99
-6.57247e-99
-6.08428e-99
-6.80492e-100
-5.38339e-100
-6.23593e-100
-6.68756e-100
-6.18015e-100
-6.89054e-101
-5.44408e-101
-6.28519e-101
-6.76208e-101
-6.23797e-101
-6.93388e-102
-5.47152e-102
-6.29453e-102
-6.79457e-102
-6.25666e-102
-6.93405e-103
-5.46518e-103
-6.2638e-103
-6.78435e-103
-6.2359e-103
-6.89097e-104
-5.42516e-104
-6.19357e-104
-6.73153e-104
-6.17608e-104
-6.80535e-105
-5.35218e-105
-6.08519e-105
-6.63704e-105
-6.07833e-105
-6.67872e-106
-5.24757e-106
-5.94068e-106
-6.50258e-106
-5.94447e-106
-6.51333e-107
-5.11319e-107
-5.76272e-107
-6.33058e-107
-5.77696e-107
-6.31211e-108
-4.95143e-108
-5.55453e-108
-6.12409e-108
-5.57882e-108
-6.07861e-109
-4.76512e-109
-5.3198e-109
-5.88677e-109
-5.35355e-109
-5.81682e-110
-4.55741e-110
-5.06255e-110
-5.6227e-110
-5.10502e-110
-5.53114e-111
-4.33173e-111
-4.78706e-111
-5.33629e-111
-4.83734e-111
-5.22621e-112
-4.09168e-112
-4.49771e-112
-5.03219e-112
-4.5548e-112
-4.90679e-113
-3.84093e-113
-4.19891e-113
-4.71513e-113
-4.26172e-113
-4.57764e-114
-3.58313e-114
-3.89495e-114
-4.38978e-114
-3.96233e-114
-4.24341e-115
-3.32184e-115
-3.58992e-115
-4.06071e-115
-3.66072e-115
-3.90854e-116
-3.06041e-116
-3.28764e-116
-3.7322e-116
-3.36071e-116
-3.57713e-117
-2.80197e-117
-2.99156e-117
-3.40823e-117
-3.0658e-117
-3.25324e-118
-2.54959e-118
-2.70498e-118
-3.09265e-118
-2.77936e-118
-2.95661e-119
-2.31881e-119
-2.44348e-119
-2.80383e-119
-2.51781e-119
-3.46358e-120
-2.72177e-120
-2.83138e-120
-3.26881e-120
-2.93341e-120
)
;

boundaryField
{
    BotWall
    {
        type            zeroGradient;
    }
    FreeStream
    {
        type            zeroGradient;
    }
    FrontNBack
    {
        type            empty;
    }
    LeftSide
    {
        type            symmetryPlane;
    }
    RightSide
    {
        type            symmetryPlane;
    }
}


// ************************************************************************* //
