/*--------------------------------*- C++ -*----------------------------------*\
| =========                 |                                                 |
| \\      /  F ield         | OpenFOAM: The Open Source CFD Toolbox           |
|  \\    /   O peration     | Version:  2.4.0                                 |
|   \\  /    A nd           | Web:      www.OpenFOAM.org                      |
|    \\/     M anipulation  |                                                 |
\*---------------------------------------------------------------------------*/
FoamFile
{
    version     2.0;
    format      ascii;
    class       volScalarField;
    location    "0.003";
    object      p;
}
// * * * * * * * * * * * * * * * * * * * * * * * * * * * * * * * * * * * * * //

dimensions      [1 -1 -2 0 0 0 0];

internalField   nonuniform List<scalar> 
1500
(
7.9626
2.61448
396.525
1.26312
2.42312
-4.25854
-4.30729
-4.43331
-4.22336
-4.31064
-0.484936
-0.510022
-0.576376
-0.454002
-0.518758
0.107797
0.0852737
0.0256206
0.138105
0.076062
0.0294573
0.00670014
-0.0533227
0.0595059
-0.00227167
-0.0246857
-0.0474869
-0.107511
0.00507068
-0.0562691
-0.034876
-0.0575815
-0.117228
-0.00543025
-0.0662104
-0.0323487
-0.0549206
-0.114102
-0.00321412
-0.0634076
-0.0306386
-0.0530819
-0.111811
-0.00181324
-0.0614263
-0.0305312
-0.0528518
-0.111142
-0.00201326
-0.0610526
-0.0308589
-0.0530586
-0.110914
-0.00264711
-0.061116
-0.0311522
-0.0532313
-0.110653
-0.0032452
-0.0611458
-0.0313868
-0.0533457
-0.110333
-0.00378328
-0.0611178
-0.0316062
-0.0534451
-0.11
-0.00430472
-0.0610755
-0.031827
-0.0535463
-0.10967
-0.00482627
-0.0610357
-0.03205
-0.0536501
-0.109343
-0.00534861
-0.060999
-0.0322736
-0.0537548
-0.109019
-0.00587013
-0.060964
-0.0324971
-0.0538597
-0.108697
-0.0063902
-0.06093
-0.0327206
-0.0539649
-0.108376
-0.00690878
-0.060897
-0.0329442
-0.0540705
-0.108057
-0.00742592
-0.0608651
-0.0331677
-0.0541763
-0.10774
-0.00794162
-0.0608343
-0.0333913
-0.0542826
-0.107425
-0.00845586
-0.0608047
-0.0336149
-0.0543892
-0.107112
-0.0089686
-0.0607761
-0.0338385
-0.0544962
-0.1068
-0.00947983
-0.0607488
-0.0340622
-0.0546035
-0.10649
-0.00998951
-0.0607227
-0.0342858
-0.0547112
-0.106182
-0.0104976
-0.0606977
-0.0345094
-0.0548193
-0.105876
-0.0110041
-0.060674
-0.0347331
-0.0549278
-0.105572
-0.0115091
-0.0606515
-0.0349567
-0.0550366
-0.10527
-0.0120123
-0.0606303
-0.0351804
-0.0551459
-0.104969
-0.0125139
-0.0606104
-0.035404
-0.0552556
-0.10467
-0.0130138
-0.0605918
-0.0356276
-0.0553657
-0.104374
-0.013512
-0.0605746
-0.0358512
-0.0554763
-0.104079
-0.0140085
-0.0605586
-0.0360747
-0.0555872
-0.103786
-0.0145032
-0.060544
-0.0362982
-0.0556986
-0.103495
-0.0149961
-0.0605308
-0.0365217
-0.0558104
-0.103206
-0.0154873
-0.060519
-0.0367452
-0.0559227
-0.102919
-0.0159768
-0.0605085
-0.0369687
-0.0560353
-0.102634
-0.0164644
-0.0604994
-0.0371921
-0.0561484
-0.102351
-0.0169502
-0.0604917
-0.0374154
-0.056262
-0.10207
-0.0174342
-0.0604854
-0.0376388
-0.0563759
-0.101791
-0.0179164
-0.0604805
-0.0378621
-0.0564903
-0.101514
-0.0183968
-0.060477
-0.0380853
-0.0566051
-0.101239
-0.0188753
-0.0604749
-0.0383086
-0.0567204
-0.100966
-0.019352
-0.0604742
-0.0385318
-0.056836
-0.100695
-0.0198269
-0.0604749
-0.0387549
-0.0569521
-0.100427
-0.0202999
-0.0604771
-0.0389781
-0.0570686
-0.10016
-0.020771
-0.0604807
-0.0392012
-0.0571855
-0.099895
-0.0212404
-0.0604857
-0.0394243
-0.0573029
-0.0996323
-0.0217078
-0.0604921
-0.0396473
-0.0574206
-0.0993718
-0.0221734
-0.0605
-0.0398703
-0.0575387
-0.0991133
-0.0226372
-0.0605093
-0.0400933
-0.0576573
-0.098857
-0.023099
-0.06052
-0.0403163
-0.0577762
-0.0986027
-0.0235591
-0.0605322
-0.0405393
-0.0578955
-0.0983507
-0.0240172
-0.0605458
-0.0407622
-0.0580153
-0.0981007
-0.0244735
-0.0605608
-0.0409851
-0.0581354
-0.0978529
-0.0249279
-0.0605773
-0.041208
-0.0582559
-0.0976073
-0.0253805
-0.0605952
-0.0414309
-0.0583768
-0.0973638
-0.0258312
-0.0606145
-0.0416538
-0.058498
-0.0971225
-0.02628
-0.0606353
-0.0418767
-0.0586197
-0.0968834
-0.026727
-0.0606575
-0.0420996
-0.0587417
-0.0966464
-0.0271721
-0.0606811
-0.0423224
-0.0588641
-0.0964117
-0.0276153
-0.0607062
-0.0425453
-0.0589868
-0.0961792
-0.0280567
-0.0607327
-0.0427682
-0.0591099
-0.0959488
-0.0284963
-0.0607606
-0.042991
-0.0592334
-0.0957207
-0.028934
-0.06079
-0.0432139
-0.0593573
-0.0954948
-0.0293698
-0.0608208
-0.0434368
-0.0594815
-0.0952712
-0.0298038
-0.060853
-0.0436596
-0.0596061
-0.0950498
-0.0302359
-0.0608867
-0.0438825
-0.059731
-0.0948306
-0.0306662
-0.0609217
-0.0441054
-0.0598563
-0.0946137
-0.0310947
-0.0609582
-0.0443283
-0.0599819
-0.094399
-0.0315213
-0.0609961
-0.0445513
-0.0601079
-0.0941866
-0.0319461
-0.0610355
-0.0447742
-0.0602343
-0.0939764
-0.032369
-0.0610762
-0.0449972
-0.060361
-0.0937686
-0.0327902
-0.0611184
-0.0452202
-0.060488
-0.093563
-0.0332095
-0.0611619
-0.0454432
-0.0606154
-0.0933596
-0.033627
-0.0612069
-0.0456662
-0.0607431
-0.0931586
-0.0340427
-0.0612533
-0.0458893
-0.0608712
-0.0929599
-0.0344566
-0.0613011
-0.0461124
-0.0609996
-0.0927634
-0.0348687
-0.0613503
-0.0463355
-0.0611284
-0.0925693
-0.035279
-0.061401
-0.0465587
-0.0612575
-0.0923774
-0.0356875
-0.061453
-0.0467819
-0.0613869
-0.0921879
-0.0360943
-0.0615064
-0.0470051
-0.0615167
-0.0920006
-0.0364992
-0.0615612
-0.0472284
-0.0616468
-0.0918157
-0.0369024
-0.0616174
-0.0474518
-0.0617772
-0.0916331
-0.0373038
-0.061675
-0.0476751
-0.061908
-0.0914528
-0.0377035
-0.0617339
-0.0478985
-0.0620392
-0.0912749
-0.0381014
-0.0617943
-0.048122
-0.0621706
-0.0910992
-0.0384976
-0.061856
-0.0483455
-0.0623024
-0.0909259
-0.038892
-0.0619192
-0.0485691
-0.0624345
-0.0907549
-0.0392847
-0.0619836
-0.0487927
-0.062567
-0.0905863
-0.0396757
-0.0620495
-0.0490164
-0.0626998
-0.09042
-0.0400649
-0.0621168
-0.0492401
-0.062833
-0.090256
-0.0404525
-0.0621854
-0.0494639
-0.0629664
-0.0900944
-0.0408383
-0.0622553
-0.0496878
-0.0631003
-0.0899351
-0.0412225
-0.0623267
-0.0499118
-0.0632344
-0.0897781
-0.0416049
-0.0623994
-0.0501358
-0.0633689
-0.0896235
-0.0419857
-0.0624734
-0.0503598
-0.0635037
-0.0894713
-0.0423648
-0.0625488
-0.050584
-0.0636389
-0.0893214
-0.0427423
-0.0626256
-0.0508082
-0.0637744
-0.0891738
-0.0431181
-0.0627037
-0.0510325
-0.0639102
-0.0890286
-0.0434922
-0.0627831
-0.0512569
-0.0640464
-0.0888857
-0.0438647
-0.0628639
-0.0514813
-0.0641829
-0.0887452
-0.0442356
-0.062946
-0.0517059
-0.0643198
-0.0886071
-0.0446049
-0.0630295
-0.0519305
-0.064457
-0.0884712
-0.0449725
-0.0631143
-0.0521552
-0.0645946
-0.0883378
-0.0453386
-0.0632004
-0.05238
-0.0647324
-0.0882067
-0.045703
-0.0632878
-0.0526049
-0.0648707
-0.0880779
-0.0460659
-0.0633766
-0.0528299
-0.0650093
-0.0879515
-0.0464272
-0.0634667
-0.053055
-0.0651482
-0.0878275
-0.0467869
-0.063558
-0.0532802
-0.0652875
-0.0877057
-0.0471451
-0.0636507
-0.0535055
-0.0654271
-0.0875864
-0.0475017
-0.0637448
-0.0537308
-0.0655671
-0.0874694
-0.0478568
-0.0638401
-0.0539563
-0.0657074
-0.0873547
-0.0482103
-0.0639367
-0.0541819
-0.0658481
-0.0872424
-0.0485624
-0.0640346
-0.0544077
-0.0659892
-0.0871325
-0.0489129
-0.0641338
-0.0546335
-0.0661306
-0.0870248
-0.0492619
-0.0642343
-0.0548594
-0.0662723
-0.0869196
-0.0496095
-0.0643361
-0.0550855
-0.0664145
-0.0868166
-0.0499555
-0.0644392
-0.0553116
-0.0665569
-0.086716
-0.0503001
-0.0645435
-0.0555379
-0.0666998
-0.0866178
-0.0506433
-0.0646491
-0.0557644
-0.066843
-0.0865218
-0.050985
-0.064756
-0.0559909
-0.0669866
-0.0864283
-0.0513253
-0.0648642
-0.0562176
-0.0671306
-0.086337
-0.0516641
-0.0649736
-0.0564444
-0.0672749
-0.0862481
-0.0520016
-0.0650843
-0.0566713
-0.0674196
-0.0861615
-0.0523376
-0.0651963
-0.0568984
-0.0675647
-0.0860772
-0.0526723
-0.0653095
-0.0571256
-0.0677102
-0.0859953
-0.0530055
-0.065424
-0.057353
-0.067856
-0.0859156
-0.0533374
-0.0655397
-0.0575805
-0.0680022
-0.0858383
-0.053668
-0.0656567
-0.0578081
-0.0681489
-0.0857633
-0.0539972
-0.0657749
-0.0580359
-0.0682959
-0.0856907
-0.0543251
-0.0658943
-0.0582639
-0.0684433
-0.0856203
-0.0546516
-0.066015
-0.058492
-0.0685911
-0.0855522
-0.0549769
-0.0661369
-0.0587202
-0.0687393
-0.0854864
-0.0553008
-0.06626
-0.0589486
-0.0688879
-0.085423
-0.0556235
-0.0663844
-0.0591772
-0.0690368
-0.0853618
-0.0559449
-0.0665099
-0.0594059
-0.0691862
-0.0853029
-0.056265
-0.0666367
-0.0596348
-0.0693361
-0.0852463
-0.0565839
-0.0667647
-0.0598639
-0.0694863
-0.085192
-0.0569015
-0.0668939
-0.0600931
-0.0696369
-0.08514
-0.057218
-0.0670243
-0.0603225
-0.069788
-0.0850902
-0.0575332
-0.067156
-0.0605521
-0.0699394
-0.0850427
-0.0578472
-0.0672888
-0.0607819
-0.0700913
-0.0849975
-0.05816
-0.0674228
-0.0610118
-0.0702436
-0.0849545
-0.0584717
-0.067558
-0.061242
-0.0703964
-0.0849138
-0.0587822
-0.0676944
-0.0614723
-0.0705496
-0.0848754
-0.0590915
-0.067832
-0.0617028
-0.0707032
-0.0848392
-0.0593997
-0.0679707
-0.0619335
-0.0708572
-0.0848052
-0.0597068
-0.0681106
-0.0621644
-0.0710117
-0.0847735
-0.0600128
-0.0682518
-0.0623955
-0.0711666
-0.084744
-0.0603177
-0.068394
-0.0626268
-0.071322
-0.0847168
-0.0606215
-0.0685375
-0.0628583
-0.0714779
-0.0846918
-0.0609242
-0.0686821
-0.06309
-0.0716341
-0.084669
-0.0612259
-0.0688278
-0.0633219
-0.0717909
-0.0846484
-0.0615265
-0.0689748
-0.063554
-0.0719481
-0.08463
-0.0618261
-0.0691228
-0.0637864
-0.0721058
-0.0846138
-0.0621247
-0.0692721
-0.0640189
-0.0722639
-0.0845999
-0.0624223
-0.0694224
-0.0642517
-0.0724225
-0.0845881
-0.0627189
-0.0695739
-0.0644847
-0.0725816
-0.0845785
-0.0630145
-0.0697266
-0.064718
-0.0727412
-0.0845711
-0.0633092
-0.0698804
-0.0649514
-0.0729012
-0.0845658
-0.0636029
-0.0700353
-0.0651851
-0.0730618
-0.0845628
-0.0638956
-0.0701913
-0.0654191
-0.0732228
-0.0845619
-0.0641875
-0.0703485
-0.0656532
-0.0733843
-0.0845631
-0.0644784
-0.0705068
-0.0658877
-0.0735463
-0.0845666
-0.0647684
-0.0706662
-0.0661223
-0.0737088
-0.0845721
-0.0650576
-0.0708267
-0.0663572
-0.0738718
-0.0845798
-0.0653459
-0.0709884
-0.0665924
-0.0740354
-0.0845897
-0.0656333
-0.0711511
-0.0668278
-0.0741994
-0.0846016
-0.0659199
-0.071315
-0.0670635
-0.074364
-0.0846157
-0.0662057
-0.0714799
-0.0672994
-0.074529
-0.0846319
-0.0664906
-0.071646
-0.0675357
-0.0746946
-0.0846502
-0.0667748
-0.0718132
-0.0677721
-0.0748608
-0.0846706
-0.0670581
-0.0719814
-0.0680089
-0.0750274
-0.0846932
-0.0673407
-0.0721507
-0.0682459
-0.0751946
-0.0847178
-0.0676226
-0.0723212
-0.0684832
-0.0753623
-0.0847445
-0.0679037
-0.0724927
-0.0687208
-0.0755306
-0.0847732
-0.068184
-0.0726653
-0.0689587
-0.0756994
-0.0848041
-0.0684637
-0.0728389
-0.0691968
-0.0758688
-0.0848369
-0.0687427
-0.0730137
-0.0694353
-0.0760387
-0.0848719
-0.0690209
-0.0731895
-0.069674
-0.0762092
-0.0849089
-0.0692985
-0.0733664
-0.0699131
-0.0763802
-0.084948
-0.0695755
-0.0735444
-0.0701525
-0.0765518
-0.084989
-0.0698518
-0.0737234
-0.0703921
-0.076724
-0.0850321
-0.0701274
-0.0739035
-0.0706321
-0.0768968
-0.0850773
-0.0704025
-0.0740846
-0.0708724
-0.0770701
-0.0851244
-0.0706769
-0.0742668
-0.071113
-0.077244
-0.0851736
-0.0709508
-0.0744501
-0.071354
-0.0774185
-0.0852247
-0.0712241
-0.0746344
-0.0715952
-0.0775936
-0.0852779
-0.0714968
-0.0748197
-0.0718368
-0.0777693
-0.085333
-0.071769
-0.0750061
-0.0720787
-0.0779456
-0.0853901
-0.0720406
-0.0751936
-0.072321
-0.0781225
-0.0854492
-0.0723118
-0.075382
-0.0725636
-0.0783
-0.0855103
-0.0725824
-0.0755716
-0.0728066
-0.0784781
-0.0855733
-0.0728525
-0.0757621
-0.0730499
-0.0786568
-0.0856382
-0.0731222
-0.0759537
-0.0732935
-0.0788362
-0.0857051
-0.0733914
-0.0761463
-0.0735376
-0.0790161
-0.085774
-0.0736602
-0.07634
-0.073782
-0.0791967
-0.0858447
-0.0739285
-0.0765347
-0.0740267
-0.079378
-0.0859174
-0.0741965
-0.0767304
-0.0742718
-0.0795598
-0.085992
-0.074464
-0.0769271
-0.0745173
-0.0797423
-0.0860685
-0.0747311
-0.0771248
-0.0747632
-0.0799254
-0.0861469
-0.0749979
-0.0773236
-0.0750095
-0.0801092
-0.0862271
-0.0752643
-0.0775234
-0.0752561
-0.0802937
-0.0863093
-0.0755303
-0.0777242
-0.0755032
-0.0804788
-0.0863933
-0.075796
-0.077926
-0.0757506
-0.0806645
-0.0864792
-0.0760614
-0.0781288
-0.0759985
-0.0808509
-0.086567
-0.0763265
-0.0783327
-0.0762467
-0.081038
-0.0866566
-0.0765914
-0.0785375
-0.0764954
-0.0812258
-0.086748
-0.0768559
-0.0787433
-0.0767445
-0.0814142
-0.0868413
-0.0771202
-0.0789502
-0.076994
-0.0816033
-0.0869364
-0.0773842
-0.079158
-0.0772439
-0.0817931
-0.0870333
-0.077648
-0.0793669
-0.0774943
-0.0819836
-0.087132
-0.0779116
-0.0795767
-0.0777451
-0.0821748
-0.0872326
-0.078175
-0.0797876
-0.0779963
-0.0823666
-0.0873349
-0.0784381
-0.0799994
-0.078248
-0.0825592
-0.087439
-0.0787012
-0.0802123
-0.0785002
-0.0827525
-0.0875449
-0.078964
-0.0804261
-0.0787528
-0.0829465
-0.0876525
-0.0792267
-0.0806409
-0.0790058
-0.0831412
-0.0877619
-0.0794893
-0.0808568
-0.0792593
-0.0833366
-0.0878731
-0.0797517
-0.0810736
-0.0795133
-0.0835327
-0.087986
-0.0800141
-0.0812914
-0.0797678
-0.0837295
-0.0881007
-0.0802764
-0.0815102
-0.0800228
-0.0839271
-0.088217
-0.0805385
-0.0817299
-0.0802782
-0.0841254
-0.0883351
-0.0808007
-0.0819507
-0.0805341
-0.0843245
-0.0884549
-0.0810627
-0.0821724
-0.0807906
-0.0845243
-0.0885764
-0.0813248
-0.0823952
-0.0810475
-0.0847248
-0.0886996
-0.0815868
-0.0826189
-0.0813049
-0.0849261
-0.0888245
-0.0818488
-0.0828436
-0.0815629
-0.0851281
-0.0889511
-0.0821108
-0.0830693
-0.0818214
-0.0853308
-0.0890793
-0.0823728
-0.0832959
-0.0820804
-0.0855344
-0.0892092
-0.0826349
-0.0835236
-0.0823399
-0.0857387
-0.0893407
-0.082897
-0.0837522
-0.0826
-0.0859437
-0.0894739
-0.0831592
-0.0839818
-0.0828606
-0.0861496
-0.0896087
-0.0834215
-0.0842124
-0.0831218
-0.0863562
-0.0897452
-0.0836838
-0.0844439
-0.0833835
-0.0865635
-0.0898832
-0.0839463
-0.0846765
-0.0836458
-0.0867717
-0.0900229
-0.0842089
-0.08491
-0.0839087
-0.0869806
-0.0901642
-0.0844716
-0.0851445
-0.0841721
-0.0871904
-0.090307
-0.0847344
-0.08538
-0.0844361
-0.0874009
-0.0904515
-0.0849975
-0.0856164
-0.0847007
-0.0876122
-0.0905975
-0.0852607
-0.0858539
-0.0849659
-0.0878243
-0.090745
-0.085524
-0.0860923
-0.0852317
-0.0880372
-0.0908942
-0.0857876
-0.0863317
-0.0854981
-0.0882509
-0.0910448
-0.0860514
-0.086572
-0.0857651
-0.0884655
-0.091197
-0.0863155
-0.0868134
-0.0860328
-0.0886808
-0.0913508
-0.0865797
-0.0870557
-0.086301
-0.0888969
-0.091506
-0.0868443
-0.087299
-0.0865699
-0.0891139
-0.0916627
-0.0871091
-0.0875433
-0.0868395
-0.0893317
-0.091821
-0.0873742
-0.0877886
-0.0871096
-0.0895503
-0.0919807
-0.0876396
-0.0880349
-0.0873805
-0.0897698
-0.0921419
-0.0879053
-0.0882821
-0.087652
-0.0899901
-0.0923046
-0.0881713
-0.0885303
-0.0879242
-0.0902112
-0.0924688
-0.0884377
-0.0887795
-0.088197
-0.0904331
-0.0926343
-0.0887044
-0.0890297
-0.0884706
-0.0906559
-0.0928014
-0.0889716
-0.0892809
-0.0887448
-0.0908796
-0.0929698
-0.0892391
-0.089533
-0.0890197
-0.091104
-0.0931397
-0.0895069
-0.0897862
-0.0892954
-0.0913294
-0.093311
-0.0897753
-0.0900403
-0.0895717
-0.0915556
-0.0934837
-0.090044
-0.0902954
-0.0898488
-0.0917826
-0.0936577
-0.0903132
-0.0905515
-0.0901266
-0.0920105
-0.0938332
-0.0905828
-0.0908086
-0.0904052
-0.0922393
-0.09401
-0.0908529
-0.0910667
-0.0906844
-0.092469
-0.0941882
-0.0911235
-0.0913258
-0.0909645
-0.0926995
-0.0943677
-0.0913946
-0.0915859
-0.0912453
-0.0929309
-0.0945485
-0.0916662
-0.091847
-0.0915269
-0.0931631
-0.0947307
-0.0919383
-0.0921091
-0.0918093
-0.0933963
-0.0949142
-0.092211
-0.0923722
-0.0920924
-0.0936303
-0.095099
-0.0924842
-0.0926362
-0.0923764
-0.0938652
-0.095285
-0.092758
-0.0929013
-0.0926612
-0.094101
-0.0954724
-0.0930324
-0.0931674
-0.0929468
-0.0943376
-0.095661
-0.0933074
-0.0934345
-0.0932332
-0.0945752
-0.0958508
-0.093583
-0.0937026
-0.0935204
-0.0948137
-0.096042
-0.0938592
-0.0939717
-0.0938085
-0.0950531
-0.0962343
-0.0941361
-0.0942419
-0.0940975
-0.0952933
-0.0964278
-0.0944136
-0.094513
-0.0943873
-0.0955345
-0.0966226
-0.0946918
-0.0947852
-0.094678
-0.0957766
-0.0968185
-0.0949708
-0.0950584
-0.0949695
-0.0960196
-0.0970157
-0.0952504
-0.0953326
-0.095262
-0.0962634
-0.0972139
-0.0955307
-0.0956078
-0.0955554
-0.0965083
-0.0974134
-0.0958118
-0.095884
-0.0958497
-0.096754
-0.0976139
-0.0960936
-0.0961613
-0.0961449
-0.0970006
-0.0978156
-0.0963762
-0.0964397
-0.096441
-0.0972482
-0.0980184
-0.0966596
-0.096719
-0.0967381
-0.0974967
-0.0982223
-0.0969437
-0.0969994
-0.0970361
-0.0977461
-0.0984273
-0.0972287
-0.0972808
-0.0973352
-0.0979964
-0.0986334
-0.0975145
-0.0975633
-0.0976352
-0.0982477
-0.0988404
-0.0978012
-0.0978468
-0.0979361
-0.0984999
-0.0990486
-0.0980888
-0.0981314
-0.0982381
-0.0987531
-0.0992577
-0.0983772
-0.098417
-0.0985411
-0.0990072
-0.0994678
-0.0986665
-0.0987037
-0.0988452
-0.0992622
-0.099679
-0.0989567
-0.0989914
-0.0991502
-0.0995181
-0.0998911
-0.0992479
-0.0992802
-0.0994563
-0.0997751
-0.100104
-0.09954
-0.0995701
-0.0997635
-0.100033
-0.100318
-0.0998331
-0.099861
-0.100072
-0.100292
-0.100533
-0.100127
-0.100153
-0.100381
-0.100552
-0.100749
-0.100422
-0.100446
-0.100692
-0.100813
-0.100966
-0.100719
-0.100741
-0.101003
-0.101074
-0.101183
-0.101016
-0.101036
-0.101314
-0.101334
-0.101399
-0.101312
-0.10133
)
;

boundaryField
{
    BotWall
    {
        type            calculated;
        value           nonuniform List<scalar> 5(7.96754 2.61942 396.53 1.26806 2.42807);
    }
    FreeStream
    {
        type            calculated;
        value           nonuniform List<scalar> 5(-0.101469 -0.101464 -0.101506 -0.101459 -0.101477);
    }
    FrontNBack
    {
        type            empty;
    }
    LeftSide
    {
        type            symmetryPlane;
    }
    RightSide
    {
        type            symmetryPlane;
    }
}


// ************************************************************************* //
