/*--------------------------------*- C++ -*----------------------------------*\
| =========                 |                                                 |
| \\      /  F ield         | OpenFOAM: The Open Source CFD Toolbox           |
|  \\    /   O peration     | Version:  2.4.0                                 |
|   \\  /    A nd           | Web:      www.OpenFOAM.org                      |
|    \\/     M anipulation  |                                                 |
\*---------------------------------------------------------------------------*/
FoamFile
{
    version     2.0;
    format      ascii;
    class       surfaceScalarField;
    location    "0.003";
    object      phi;
}
// * * * * * * * * * * * * * * * * * * * * * * * * * * * * * * * * * * * * * //

dimensions      [0 3 -1 0 0 0 0];

internalField   nonuniform List<scalar> 
2695
(
2.84804e-13
-2.81154e-13
-1.6124e-12
1.86907e-12
1.60025e-13
-1.68201e-12
-2.35235e-14
1.83677e-13
-3.05e-14
-1.99723e-13
-1.02475e-08
-5.51117e-13
-1.02616e-08
-3.47192e-13
-1.03069e-08
2.29472e-14
-1.02444e-08
-1.0259e-08
-1.92341e-13
-1.02473e-08
-5.31911e-13
-1.02613e-08
-3.58569e-13
-1.03071e-08
3.31821e-15
-1.02448e-08
-1.0259e-08
-1.26299e-13
-1.02472e-08
-4.74459e-13
-1.02609e-08
-3.32929e-13
-1.03072e-08
1.54935e-15
-1.02451e-08
-1.0259e-08
-5.88528e-14
-1.02471e-08
-3.85701e-13
-1.02606e-08
-3.10571e-13
-1.03073e-08
-3.29982e-14
-1.02454e-08
-1.02591e-08
2.7239e-15
-1.02471e-08
-2.90465e-13
-1.02603e-08
-2.79842e-13
-1.03073e-08
-6.8138e-14
-1.02456e-08
-1.02591e-08
4.37512e-14
-1.02472e-08
-2.01965e-13
-1.02601e-08
-2.47123e-13
-1.03072e-08
-9.94185e-14
-1.02457e-08
-1.02592e-08
7.79411e-14
-1.02473e-08
-1.26837e-13
-1.02599e-08
-2.17813e-13
-1.03071e-08
-1.23151e-13
-1.02458e-08
-1.02594e-08
1.03352e-13
-1.02474e-08
-6.67403e-14
-1.02597e-08
-1.9384e-13
-1.0307e-08
-1.38018e-13
-1.02459e-08
-1.02595e-08
1.20994e-13
-1.02475e-08
-2.08413e-14
-1.02595e-08
-1.75236e-13
-1.03069e-08
-1.44318e-13
-1.02459e-08
-1.02596e-08
1.32271e-13
-1.02476e-08
1.24297e-14
-1.02594e-08
-1.61079e-13
-1.03067e-08
-1.43377e-13
-1.02459e-08
-1.02598e-08
1.38509e-13
-1.02477e-08
3.8953e-14
-1.02593e-08
-1.5018e-13
-1.03065e-08
-1.36974e-13
-1.02459e-08
-1.02599e-08
1.40849e-13
-1.02479e-08
5.44299e-14
-1.02592e-08
-1.41482e-13
-1.03063e-08
-1.26923e-13
-1.0246e-08
-1.026e-08
1.4023e-13
-1.0248e-08
6.48555e-14
-1.02592e-08
-1.34217e-13
-1.03061e-08
-1.14821e-13
-1.0246e-08
-1.02602e-08
1.37414e-13
-1.02482e-08
7.15333e-14
-1.02591e-08
-1.27895e-13
-1.03059e-08
-1.01936e-13
-1.0246e-08
-1.02603e-08
1.33016e-13
-1.02483e-08
7.53711e-14
-1.0259e-08
-1.22239e-13
-1.03057e-08
-8.91815e-14
-1.0246e-08
-1.02604e-08
1.27535e-13
-1.02484e-08
7.71386e-14
-1.0259e-08
-1.17104e-13
-1.03055e-08
-7.71552e-14
-1.02461e-08
-1.02604e-08
1.21379e-13
-1.02485e-08
7.74363e-14
-1.02589e-08
-1.12415e-13
-1.03053e-08
-6.61987e-14
-1.02461e-08
-1.02605e-08
1.14881e-13
-1.02487e-08
7.67267e-14
-1.02589e-08
-1.0813e-13
-1.03051e-08
-5.64634e-14
-1.02462e-08
-1.02606e-08
1.08305e-13
-1.02488e-08
7.53641e-14
-1.02589e-08
-1.04218e-13
-1.0305e-08
-4.79711e-14
-1.02462e-08
-1.02606e-08
1.01859e-13
-1.02489e-08
7.36172e-14
-1.02588e-08
-1.00651e-13
-1.03048e-08
-4.06627e-14
-1.02463e-08
-1.02606e-08
9.56938e-14
-1.0249e-08
7.16856e-14
-1.02588e-08
-9.74032e-14
-1.03046e-08
-3.44343e-14
-1.02464e-08
-1.02607e-08
8.99146e-14
-1.02491e-08
6.97124e-14
-1.02588e-08
-9.4447e-14
-1.03045e-08
-2.9163e-14
-1.02464e-08
-1.02607e-08
8.45857e-14
-1.02491e-08
6.77953e-14
-1.02588e-08
-9.17582e-14
-1.03043e-08
-2.4723e-14
-1.02465e-08
-1.02607e-08
7.97388e-14
-1.02492e-08
6.59966e-14
-1.02588e-08
-8.93142e-14
-1.03041e-08
-2.09951e-14
-1.02466e-08
-1.02608e-08
7.53805e-14
-1.02493e-08
6.43518e-14
-1.02588e-08
-8.70948e-14
-1.0304e-08
-1.78716e-14
-1.02466e-08
-1.02608e-08
7.14988e-14
-1.02494e-08
6.28771e-14
-1.02587e-08
-8.50817e-14
-1.03038e-08
-1.52584e-14
-1.02467e-08
-1.02608e-08
6.80692e-14
-1.02494e-08
6.15755e-14
-1.02587e-08
-8.32583e-14
-1.03037e-08
-1.30749e-14
-1.02468e-08
-1.02608e-08
6.50598e-14
-1.02495e-08
6.04413e-14
-1.02587e-08
-8.16095e-14
-1.03036e-08
-1.12534e-14
-1.02468e-08
-1.02608e-08
6.24346e-14
-1.02496e-08
5.94642e-14
-1.02587e-08
-8.01212e-14
-1.03034e-08
-9.73708e-15
-1.02469e-08
-1.02608e-08
6.01567e-14
-1.02496e-08
5.86308e-14
-1.02587e-08
-7.87803e-14
-1.03033e-08
-8.47912e-15
-1.0247e-08
-1.02608e-08
5.81897e-14
-1.02497e-08
5.79271e-14
-1.02587e-08
-7.75746e-14
-1.03031e-08
-7.44055e-15
-1.0247e-08
-1.02608e-08
5.64993e-14
-1.02497e-08
5.73391e-14
-1.02587e-08
-7.64924e-14
-1.0303e-08
-6.58905e-15
-1.02471e-08
-1.02608e-08
5.50536e-14
-1.02498e-08
5.68534e-14
-1.02587e-08
-7.55229e-14
-1.03029e-08
-5.89762e-15
-1.02472e-08
-1.02608e-08
5.38237e-14
-1.02498e-08
5.64575e-14
-1.02587e-08
-7.46562e-14
-1.03027e-08
-5.34351e-15
-1.02473e-08
-1.02609e-08
5.27835e-14
-1.02499e-08
5.61402e-14
-1.02587e-08
-7.3883e-14
-1.03026e-08
-4.90827e-15
-1.02473e-08
-1.02609e-08
5.19098e-14
-1.025e-08
5.58911e-14
-1.02587e-08
-7.31946e-14
-1.03025e-08
-4.57464e-15
-1.02474e-08
-1.02609e-08
5.1182e-14
-1.025e-08
5.57009e-14
-1.02588e-08
-7.25834e-14
-1.03024e-08
-4.32837e-15
-1.02475e-08
-1.02609e-08
5.05818e-14
-1.02501e-08
5.55614e-14
-1.02588e-08
-7.20422e-14
-1.03022e-08
-4.15387e-15
-1.02475e-08
-1.02609e-08
5.00931e-14
-1.02501e-08
5.54652e-14
-1.02588e-08
-7.15643e-14
-1.03021e-08
-4.04524e-15
-1.02476e-08
-1.02609e-08
4.97017e-14
-1.02502e-08
5.54058e-14
-1.02588e-08
-7.11438e-14
-1.0302e-08
-3.99358e-15
-1.02477e-08
-1.02609e-08
4.93949e-14
-1.02502e-08
5.53775e-14
-1.02588e-08
-7.07753e-14
-1.03018e-08
-3.99106e-15
-1.02477e-08
-1.02609e-08
4.91618e-14
-1.02503e-08
5.53751e-14
-1.02588e-08
-7.04537e-14
-1.03017e-08
-4.03087e-15
-1.02478e-08
-1.02609e-08
4.89925e-14
-1.02503e-08
5.53942e-14
-1.02588e-08
-7.01743e-14
-1.03016e-08
-4.10709e-15
-1.02479e-08
-1.02609e-08
4.88783e-14
-1.02504e-08
5.5431e-14
-1.02588e-08
-6.99331e-14
-1.03015e-08
-4.21458e-15
-1.02479e-08
-1.02609e-08
4.88117e-14
-1.02504e-08
5.54822e-14
-1.02588e-08
-6.9726e-14
-1.03013e-08
-4.34591e-15
-1.0248e-08
-1.02609e-08
4.87859e-14
-1.02504e-08
5.55449e-14
-1.02588e-08
-6.95496e-14
-1.03012e-08
-4.49985e-15
-1.02481e-08
-1.02609e-08
4.8795e-14
-1.02505e-08
5.56166e-14
-1.02588e-08
-6.94005e-14
-1.03011e-08
-4.67319e-15
-1.02481e-08
-1.02609e-08
4.88338e-14
-1.02505e-08
5.56953e-14
-1.02588e-08
-6.92757e-14
-1.0301e-08
-4.86304e-15
-1.02482e-08
-1.02609e-08
4.88978e-14
-1.02506e-08
5.57794e-14
-1.02588e-08
-6.91725e-14
-1.03008e-08
-5.06687e-15
-1.02483e-08
-1.02609e-08
4.8983e-14
-1.02506e-08
5.58672e-14
-1.02588e-08
-6.90882e-14
-1.03007e-08
-5.28259e-15
-1.02483e-08
-1.02609e-08
4.90859e-14
-1.02507e-08
5.59576e-14
-1.02588e-08
-6.90206e-14
-1.03006e-08
-5.50816e-15
-1.02484e-08
-1.02609e-08
4.92035e-14
-1.02507e-08
5.60496e-14
-1.02588e-08
-6.89675e-14
-1.03005e-08
-5.74176e-15
-1.02484e-08
-1.02609e-08
4.93332e-14
-1.02508e-08
5.61424e-14
-1.02589e-08
-6.89271e-14
-1.03003e-08
-5.98188e-15
-1.02485e-08
-1.02609e-08
4.94727e-14
-1.02508e-08
5.62353e-14
-1.02589e-08
-6.88976e-14
-1.03002e-08
-6.22724e-15
-1.02486e-08
-1.02609e-08
4.962e-14
-1.02509e-08
5.63278e-14
-1.02589e-08
-6.88773e-14
-1.03001e-08
-6.47668e-15
-1.02486e-08
-1.0261e-08
4.97734e-14
-1.02509e-08
5.64195e-14
-1.02589e-08
-6.88649e-14
-1.03e-08
-6.72923e-15
-1.02487e-08
-1.0261e-08
4.99316e-14
-1.0251e-08
5.65099e-14
-1.02589e-08
-6.88591e-14
-1.02998e-08
-6.98401e-15
-1.02488e-08
-1.0261e-08
5.00931e-14
-1.0251e-08
5.6599e-14
-1.02589e-08
-6.88587e-14
-1.02997e-08
-7.24028e-15
-1.02488e-08
-1.0261e-08
5.02571e-14
-1.02511e-08
5.66863e-14
-1.02589e-08
-6.88627e-14
-1.02996e-08
-7.49737e-15
-1.02489e-08
-1.0261e-08
5.04226e-14
-1.02511e-08
5.67718e-14
-1.02589e-08
-6.88702e-14
-1.02995e-08
-7.75472e-15
-1.02489e-08
-1.0261e-08
5.05888e-14
-1.02512e-08
5.68553e-14
-1.02589e-08
-6.88804e-14
-1.02993e-08
-8.01184e-15
-1.0249e-08
-1.0261e-08
5.07551e-14
-1.02512e-08
5.69368e-14
-1.02589e-08
-6.88926e-14
-1.02992e-08
-8.2683e-15
-1.02491e-08
-1.0261e-08
5.09209e-14
-1.02513e-08
5.70162e-14
-1.02589e-08
-6.8906e-14
-1.02991e-08
-8.52371e-15
-1.02491e-08
-1.0261e-08
5.10857e-14
-1.02513e-08
5.70934e-14
-1.02589e-08
-6.89202e-14
-1.0299e-08
-8.77777e-15
-1.02492e-08
-1.0261e-08
5.12493e-14
-1.02514e-08
5.71683e-14
-1.02589e-08
-6.89347e-14
-1.02988e-08
-9.03018e-15
-1.02492e-08
-1.0261e-08
5.14112e-14
-1.02514e-08
5.7241e-14
-1.02589e-08
-6.89491e-14
-1.02987e-08
-9.28071e-15
-1.02493e-08
-1.0261e-08
5.15712e-14
-1.02515e-08
5.73114e-14
-1.02589e-08
-6.89629e-14
-1.02986e-08
-9.52915e-15
-1.02494e-08
-1.02611e-08
5.1729e-14
-1.02515e-08
5.73794e-14
-1.02589e-08
-6.89759e-14
-1.02985e-08
-9.77532e-15
-1.02494e-08
-1.02611e-08
5.18845e-14
-1.02516e-08
5.74452e-14
-1.0259e-08
-6.89877e-14
-1.02983e-08
-1.00191e-14
-1.02495e-08
-1.02611e-08
5.20375e-14
-1.02517e-08
5.75086e-14
-1.0259e-08
-6.89982e-14
-1.02982e-08
-1.02602e-14
-1.02495e-08
-1.02611e-08
5.21878e-14
-1.02517e-08
5.75697e-14
-1.0259e-08
-6.90071e-14
-1.02981e-08
-1.04987e-14
-1.02496e-08
-1.02611e-08
5.23354e-14
-1.02518e-08
5.76284e-14
-1.0259e-08
-6.90143e-14
-1.0298e-08
-1.07345e-14
-1.02497e-08
-1.02611e-08
5.24801e-14
-1.02518e-08
5.76847e-14
-1.0259e-08
-6.90196e-14
-1.02978e-08
-1.09673e-14
-1.02497e-08
-1.02611e-08
5.26219e-14
-1.02519e-08
5.77387e-14
-1.0259e-08
-6.90228e-14
-1.02977e-08
-1.11973e-14
-1.02498e-08
-1.02611e-08
5.27607e-14
-1.02519e-08
5.77902e-14
-1.0259e-08
-6.90239e-14
-1.02976e-08
-1.14242e-14
-1.02498e-08
-1.02611e-08
5.28965e-14
-1.0252e-08
5.78394e-14
-1.0259e-08
-6.90227e-14
-1.02974e-08
-1.16482e-14
-1.02499e-08
-1.02611e-08
5.30291e-14
-1.0252e-08
5.78861e-14
-1.0259e-08
-6.90192e-14
-1.02973e-08
-1.1869e-14
-1.02499e-08
-1.02612e-08
5.31586e-14
-1.02521e-08
5.79304e-14
-1.0259e-08
-6.90134e-14
-1.02972e-08
-1.20867e-14
-1.025e-08
-1.02612e-08
5.32849e-14
-1.02521e-08
5.79723e-14
-1.0259e-08
-6.90051e-14
-1.02971e-08
-1.23013e-14
-1.02501e-08
-1.02612e-08
5.34079e-14
-1.02522e-08
5.80117e-14
-1.0259e-08
-6.89943e-14
-1.02969e-08
-1.25128e-14
-1.02501e-08
-1.02612e-08
5.35278e-14
-1.02522e-08
5.80487e-14
-1.0259e-08
-6.89809e-14
-1.02968e-08
-1.2721e-14
-1.02502e-08
-1.02612e-08
5.36443e-14
-1.02523e-08
5.80833e-14
-1.0259e-08
-6.8965e-14
-1.02967e-08
-1.2926e-14
-1.02502e-08
-1.02612e-08
5.37575e-14
-1.02523e-08
5.81153e-14
-1.0259e-08
-6.89465e-14
-1.02966e-08
-1.31279e-14
-1.02503e-08
-1.02612e-08
5.38674e-14
-1.02524e-08
5.81449e-14
-1.0259e-08
-6.89254e-14
-1.02964e-08
-1.33265e-14
-1.02503e-08
-1.02613e-08
5.39739e-14
-1.02525e-08
5.81719e-14
-1.0259e-08
-6.89016e-14
-1.02963e-08
-1.35218e-14
-1.02504e-08
-1.02613e-08
5.40771e-14
-1.02525e-08
5.81965e-14
-1.0259e-08
-6.88752e-14
-1.02962e-08
-1.37139e-14
-1.02504e-08
-1.02613e-08
5.41768e-14
-1.02526e-08
5.82185e-14
-1.0259e-08
-6.88461e-14
-1.0296e-08
-1.39028e-14
-1.02505e-08
-1.02613e-08
5.42732e-14
-1.02526e-08
5.82381e-14
-1.0259e-08
-6.88143e-14
-1.02959e-08
-1.40885e-14
-1.02506e-08
-1.02613e-08
5.43661e-14
-1.02527e-08
5.8255e-14
-1.0259e-08
-6.87797e-14
-1.02958e-08
-1.42708e-14
-1.02506e-08
-1.02613e-08
5.44556e-14
-1.02527e-08
5.82695e-14
-1.0259e-08
-6.87425e-14
-1.02957e-08
-1.445e-14
-1.02507e-08
-1.02613e-08
5.45416e-14
-1.02528e-08
5.82814e-14
-1.02591e-08
-6.87025e-14
-1.02955e-08
-1.46259e-14
-1.02507e-08
-1.02613e-08
5.46241e-14
-1.02528e-08
5.82907e-14
-1.02591e-08
-6.86598e-14
-1.02954e-08
-1.47985e-14
-1.02508e-08
-1.02614e-08
5.47032e-14
-1.02529e-08
5.82975e-14
-1.02591e-08
-6.86144e-14
-1.02953e-08
-1.49679e-14
-1.02508e-08
-1.02614e-08
5.47787e-14
-1.02529e-08
5.83017e-14
-1.02591e-08
-6.85662e-14
-1.02952e-08
-1.51341e-14
-1.02509e-08
-1.02614e-08
5.48508e-14
-1.0253e-08
5.83034e-14
-1.02591e-08
-6.85152e-14
-1.0295e-08
-1.5297e-14
-1.02509e-08
-1.02614e-08
5.49193e-14
-1.02531e-08
5.83024e-14
-1.02591e-08
-6.84614e-14
-1.02949e-08
-1.54566e-14
-1.0251e-08
-1.02614e-08
5.49843e-14
-1.02531e-08
5.82988e-14
-1.02591e-08
-6.84049e-14
-1.02948e-08
-1.56131e-14
-1.0251e-08
-1.02614e-08
5.50457e-14
-1.02532e-08
5.82927e-14
-1.02591e-08
-6.83457e-14
-1.02947e-08
-1.57663e-14
-1.02511e-08
-1.02615e-08
5.51036e-14
-1.02532e-08
5.82839e-14
-1.02591e-08
-6.82836e-14
-1.02945e-08
-1.59162e-14
-1.02511e-08
-1.02615e-08
5.51579e-14
-1.02533e-08
5.82725e-14
-1.02591e-08
-6.82187e-14
-1.02944e-08
-1.60629e-14
-1.02512e-08
-1.02615e-08
5.52086e-14
-1.02533e-08
5.82585e-14
-1.02591e-08
-6.81511e-14
-1.02943e-08
-1.62064e-14
-1.02512e-08
-1.02615e-08
5.52558e-14
-1.02534e-08
5.82419e-14
-1.02591e-08
-6.80807e-14
-1.02941e-08
-1.63467e-14
-1.02513e-08
-1.02615e-08
5.52993e-14
-1.02534e-08
5.82226e-14
-1.02591e-08
-6.80075e-14
-1.0294e-08
-1.64838e-14
-1.02513e-08
-1.02615e-08
5.53393e-14
-1.02535e-08
5.82007e-14
-1.02591e-08
-6.79315e-14
-1.02939e-08
-1.66176e-14
-1.02514e-08
-1.02616e-08
5.53756e-14
-1.02535e-08
5.81761e-14
-1.02591e-08
-6.78527e-14
-1.02938e-08
-1.67483e-14
-1.02515e-08
-1.02616e-08
5.54083e-14
-1.02536e-08
5.81489e-14
-1.02591e-08
-6.77711e-14
-1.02936e-08
-1.68757e-14
-1.02515e-08
-1.02616e-08
5.54374e-14
-1.02537e-08
5.81191e-14
-1.02591e-08
-6.76867e-14
-1.02935e-08
-1.7e-14
-1.02516e-08
-1.02616e-08
5.54628e-14
-1.02537e-08
5.80866e-14
-1.02591e-08
-6.75995e-14
-1.02934e-08
-1.7121e-14
-1.02516e-08
-1.02616e-08
5.54846e-14
-1.02538e-08
5.80514e-14
-1.02591e-08
-6.75095e-14
-1.02933e-08
-1.72389e-14
-1.02517e-08
-1.02616e-08
5.55027e-14
-1.02538e-08
5.80135e-14
-1.02591e-08
-6.74166e-14
-1.02931e-08
-1.73536e-14
-1.02517e-08
-1.02617e-08
5.55172e-14
-1.02539e-08
5.7973e-14
-1.02591e-08
-6.7321e-14
-1.0293e-08
-1.74651e-14
-1.02518e-08
-1.02617e-08
5.5528e-14
-1.02539e-08
5.79298e-14
-1.02591e-08
-6.72226e-14
-1.02929e-08
-1.75734e-14
-1.02518e-08
-1.02617e-08
5.55352e-14
-1.0254e-08
5.78839e-14
-1.02591e-08
-6.71213e-14
-1.02928e-08
-1.76786e-14
-1.02519e-08
-1.02617e-08
5.55387e-14
-1.0254e-08
5.78353e-14
-1.02591e-08
-6.70173e-14
-1.02926e-08
-1.77806e-14
-1.02519e-08
-1.02617e-08
5.55385e-14
-1.02541e-08
5.77841e-14
-1.02591e-08
-6.69104e-14
-1.02925e-08
-1.78794e-14
-1.0252e-08
-1.02617e-08
5.55346e-14
-1.02542e-08
5.77301e-14
-1.02591e-08
-6.68007e-14
-1.02924e-08
-1.79751e-14
-1.0252e-08
-1.02618e-08
5.55271e-14
-1.02542e-08
5.76735e-14
-1.02591e-08
-6.66882e-14
-1.02923e-08
-1.80677e-14
-1.0252e-08
-1.02618e-08
5.55158e-14
-1.02543e-08
5.76141e-14
-1.02591e-08
-6.65729e-14
-1.02921e-08
-1.81572e-14
-1.02521e-08
-1.02618e-08
5.55009e-14
-1.02543e-08
5.75521e-14
-1.02591e-08
-6.64548e-14
-1.0292e-08
-1.82435e-14
-1.02521e-08
-1.02618e-08
5.54823e-14
-1.02544e-08
5.74873e-14
-1.02591e-08
-6.63339e-14
-1.02919e-08
-1.83267e-14
-1.02522e-08
-1.02618e-08
5.546e-14
-1.02544e-08
5.74199e-14
-1.02591e-08
-6.62102e-14
-1.02918e-08
-1.84068e-14
-1.02522e-08
-1.02619e-08
5.5434e-14
-1.02545e-08
5.73497e-14
-1.02591e-08
-6.60836e-14
-1.02916e-08
-1.84839e-14
-1.02523e-08
-1.02619e-08
5.54043e-14
-1.02545e-08
5.72768e-14
-1.02591e-08
-6.59542e-14
-1.02915e-08
-1.85578e-14
-1.02523e-08
-1.02619e-08
5.5371e-14
-1.02546e-08
5.72012e-14
-1.02591e-08
-6.58221e-14
-1.02914e-08
-1.86287e-14
-1.02524e-08
-1.02619e-08
5.53339e-14
-1.02547e-08
5.71229e-14
-1.02591e-08
-6.56871e-14
-1.02913e-08
-1.86964e-14
-1.02524e-08
-1.02619e-08
5.52931e-14
-1.02547e-08
5.70419e-14
-1.02591e-08
-6.55493e-14
-1.02912e-08
-1.87612e-14
-1.02525e-08
-1.02619e-08
5.52487e-14
-1.02548e-08
5.69582e-14
-1.02591e-08
-6.54087e-14
-1.0291e-08
-1.88229e-14
-1.02525e-08
-1.0262e-08
5.52005e-14
-1.02548e-08
5.68717e-14
-1.02591e-08
-6.52653e-14
-1.02909e-08
-1.88815e-14
-1.02526e-08
-1.0262e-08
5.51487e-14
-1.02549e-08
5.67825e-14
-1.02591e-08
-6.51191e-14
-1.02908e-08
-1.89372e-14
-1.02526e-08
-1.0262e-08
5.50932e-14
-1.02549e-08
5.66906e-14
-1.02592e-08
-6.49701e-14
-1.02907e-08
-1.89898e-14
-1.02527e-08
-1.0262e-08
5.5034e-14
-1.0255e-08
5.65959e-14
-1.02592e-08
-6.48183e-14
-1.02905e-08
-1.90394e-14
-1.02527e-08
-1.0262e-08
5.49712e-14
-1.0255e-08
5.64986e-14
-1.02592e-08
-6.46637e-14
-1.02904e-08
-1.90861e-14
-1.02528e-08
-1.02621e-08
5.49046e-14
-1.02551e-08
5.63985e-14
-1.02592e-08
-6.45063e-14
-1.02903e-08
-1.91298e-14
-1.02528e-08
-1.02621e-08
5.48344e-14
-1.02552e-08
5.62957e-14
-1.02592e-08
-6.43461e-14
-1.02902e-08
-1.91705e-14
-1.02528e-08
-1.02621e-08
5.47606e-14
-1.02552e-08
5.61902e-14
-1.02592e-08
-6.41831e-14
-1.02901e-08
-1.92082e-14
-1.02529e-08
-1.02621e-08
5.46831e-14
-1.02553e-08
5.60819e-14
-1.02592e-08
-6.40174e-14
-1.02899e-08
-1.92431e-14
-1.02529e-08
-1.02621e-08
5.46019e-14
-1.02553e-08
5.59709e-14
-1.02592e-08
-6.38488e-14
-1.02898e-08
-1.9275e-14
-1.0253e-08
-1.02622e-08
5.45171e-14
-1.02554e-08
5.58572e-14
-1.02592e-08
-6.36775e-14
-1.02897e-08
-1.9304e-14
-1.0253e-08
-1.02622e-08
5.44286e-14
-1.02554e-08
5.57408e-14
-1.02592e-08
-6.35034e-14
-1.02896e-08
-1.93301e-14
-1.02531e-08
-1.02622e-08
5.43365e-14
-1.02555e-08
5.56216e-14
-1.02592e-08
-6.33265e-14
-1.02895e-08
-1.93533e-14
-1.02531e-08
-1.02622e-08
5.42408e-14
-1.02555e-08
5.54997e-14
-1.02592e-08
-6.31469e-14
-1.02893e-08
-1.93737e-14
-1.02532e-08
-1.02622e-08
5.41415e-14
-1.02556e-08
5.53751e-14
-1.02592e-08
-6.29645e-14
-1.02892e-08
-1.93913e-14
-1.02532e-08
-1.02623e-08
5.40386e-14
-1.02556e-08
5.52478e-14
-1.02592e-08
-6.27794e-14
-1.02891e-08
-1.9406e-14
-1.02532e-08
-1.02623e-08
5.3932e-14
-1.02557e-08
5.51178e-14
-1.02592e-08
-6.25915e-14
-1.0289e-08
-1.94179e-14
-1.02533e-08
-1.02623e-08
5.38219e-14
-1.02557e-08
5.4985e-14
-1.02592e-08
-6.24008e-14
-1.02889e-08
-1.9427e-14
-1.02533e-08
-1.02623e-08
5.37082e-14
-1.02558e-08
5.48495e-14
-1.02592e-08
-6.22074e-14
-1.02888e-08
-1.94334e-14
-1.02534e-08
-1.02623e-08
5.3591e-14
-1.02559e-08
5.47114e-14
-1.02592e-08
-6.20112e-14
-1.02886e-08
-1.9437e-14
-1.02534e-08
-1.02624e-08
5.34702e-14
-1.02559e-08
5.45705e-14
-1.02592e-08
-6.18124e-14
-1.02885e-08
-1.94379e-14
-1.02535e-08
-1.02624e-08
5.33458e-14
-1.0256e-08
5.44268e-14
-1.02592e-08
-6.16108e-14
-1.02884e-08
-1.9436e-14
-1.02535e-08
-1.02624e-08
5.32179e-14
-1.0256e-08
5.42805e-14
-1.02592e-08
-6.14064e-14
-1.02883e-08
-1.94315e-14
-1.02535e-08
-1.02624e-08
5.30865e-14
-1.02561e-08
5.41315e-14
-1.02592e-08
-6.11994e-14
-1.02882e-08
-1.94243e-14
-1.02536e-08
-1.02624e-08
5.29516e-14
-1.02561e-08
5.39798e-14
-1.02592e-08
-6.09896e-14
-1.02881e-08
-1.94144e-14
-1.02536e-08
-1.02624e-08
5.28132e-14
-1.02562e-08
5.38254e-14
-1.02592e-08
-6.07772e-14
-1.02879e-08
-1.94019e-14
-1.02537e-08
-1.02625e-08
5.26714e-14
-1.02562e-08
5.36682e-14
-1.02592e-08
-6.0562e-14
-1.02878e-08
-1.93868e-14
-1.02537e-08
-1.02625e-08
5.2526e-14
-1.02563e-08
5.35084e-14
-1.02592e-08
-6.03441e-14
-1.02877e-08
-1.9369e-14
-1.02537e-08
-1.02625e-08
5.23772e-14
-1.02563e-08
5.33459e-14
-1.02592e-08
-6.01236e-14
-1.02876e-08
-1.93488e-14
-1.02538e-08
-1.02625e-08
5.2225e-14
-1.02564e-08
5.31807e-14
-1.02592e-08
-5.99004e-14
-1.02875e-08
-1.93259e-14
-1.02538e-08
-1.02625e-08
5.20694e-14
-1.02564e-08
5.30129e-14
-1.02592e-08
-5.96745e-14
-1.02874e-08
-1.93006e-14
-1.02539e-08
-1.02626e-08
5.19104e-14
-1.02565e-08
5.28423e-14
-1.02592e-08
-5.94459e-14
-1.02873e-08
-1.92727e-14
-1.02539e-08
-1.02626e-08
5.1748e-14
-1.02565e-08
5.26691e-14
-1.02592e-08
-5.92147e-14
-1.02872e-08
-1.92424e-14
-1.02539e-08
-1.02626e-08
5.15822e-14
-1.02566e-08
5.24932e-14
-1.02592e-08
-5.89808e-14
-1.0287e-08
-1.92096e-14
-1.0254e-08
-1.02626e-08
5.14131e-14
-1.02566e-08
5.23147e-14
-1.02592e-08
-5.87443e-14
-1.02869e-08
-1.91744e-14
-1.0254e-08
-1.02626e-08
5.12406e-14
-1.02567e-08
5.21335e-14
-1.02592e-08
-5.85052e-14
-1.02868e-08
-1.91368e-14
-1.02541e-08
-1.02627e-08
5.10649e-14
-1.02567e-08
5.19496e-14
-1.02592e-08
-5.82634e-14
-1.02867e-08
-1.90969e-14
-1.02541e-08
-1.02627e-08
5.08858e-14
-1.02568e-08
5.17631e-14
-1.02592e-08
-5.8019e-14
-1.02866e-08
-1.90546e-14
-1.02541e-08
-1.02627e-08
5.07035e-14
-1.02568e-08
5.15739e-14
-1.02592e-08
-5.77721e-14
-1.02865e-08
-1.90099e-14
-1.02542e-08
-1.02627e-08
5.05179e-14
-1.02569e-08
5.13821e-14
-1.02592e-08
-5.75225e-14
-1.02864e-08
-1.8963e-14
-1.02542e-08
-1.02627e-08
5.03291e-14
-1.02569e-08
5.11876e-14
-1.02592e-08
-5.72703e-14
-1.02863e-08
-1.89138e-14
-1.02543e-08
-1.02628e-08
5.01371e-14
-1.0257e-08
5.09906e-14
-1.02592e-08
-5.70155e-14
-1.02862e-08
-1.88624e-14
-1.02543e-08
-1.02628e-08
4.9942e-14
-1.0257e-08
5.07909e-14
-1.02592e-08
-5.67582e-14
-1.02861e-08
-1.88087e-14
-1.02543e-08
-1.02628e-08
4.97436e-14
-1.02571e-08
5.05886e-14
-1.02592e-08
-5.64983e-14
-1.0286e-08
-1.87529e-14
-1.02544e-08
-1.02628e-08
4.95421e-14
-1.02571e-08
5.03836e-14
-1.02592e-08
-5.62358e-14
-1.02858e-08
-1.8695e-14
-1.02544e-08
-1.02628e-08
4.93375e-14
-1.02572e-08
5.01761e-14
-1.02592e-08
-5.59708e-14
-1.02857e-08
-1.86349e-14
-1.02545e-08
-1.02628e-08
4.91298e-14
-1.02572e-08
4.9966e-14
-1.02592e-08
-5.57033e-14
-1.02856e-08
-1.85727e-14
-1.02545e-08
-1.02629e-08
4.89191e-14
-1.02573e-08
4.97533e-14
-1.02592e-08
-5.54332e-14
-1.02855e-08
-1.85085e-14
-1.02545e-08
-1.02629e-08
4.87053e-14
-1.02573e-08
4.9538e-14
-1.02592e-08
-5.51606e-14
-1.02854e-08
-1.84423e-14
-1.02546e-08
-1.02629e-08
4.84885e-14
-1.02574e-08
4.93201e-14
-1.02592e-08
-5.48855e-14
-1.02853e-08
-1.83741e-14
-1.02546e-08
-1.02629e-08
4.82686e-14
-1.02574e-08
4.90997e-14
-1.02592e-08
-5.4608e-14
-1.02852e-08
-1.83039e-14
-1.02546e-08
-1.02629e-08
4.80459e-14
-1.02575e-08
4.88767e-14
-1.02592e-08
-5.43279e-14
-1.02851e-08
-1.82318e-14
-1.02547e-08
-1.0263e-08
4.78201e-14
-1.02575e-08
4.86511e-14
-1.02592e-08
-5.40453e-14
-1.0285e-08
-1.81578e-14
-1.02547e-08
-1.0263e-08
4.75915e-14
-1.02576e-08
4.8423e-14
-1.02592e-08
-5.37603e-14
-1.02849e-08
-1.80819e-14
-1.02547e-08
-1.0263e-08
4.736e-14
-1.02576e-08
4.81923e-14
-1.02592e-08
-5.34729e-14
-1.02848e-08
-1.80043e-14
-1.02548e-08
-1.0263e-08
4.71256e-14
-1.02577e-08
4.79591e-14
-1.02592e-08
-5.3183e-14
-1.02847e-08
-1.79248e-14
-1.02548e-08
-1.0263e-08
4.68884e-14
-1.02577e-08
4.77234e-14
-1.02592e-08
-5.28906e-14
-1.02846e-08
-1.78436e-14
-1.02548e-08
-1.0263e-08
4.66483e-14
-1.02578e-08
4.74851e-14
-1.02592e-08
-5.25959e-14
-1.02845e-08
-1.77607e-14
-1.02549e-08
-1.02631e-08
4.64055e-14
-1.02578e-08
4.72443e-14
-1.02592e-08
-5.22987e-14
-1.02844e-08
-1.76761e-14
-1.02549e-08
-1.02631e-08
4.616e-14
-1.02579e-08
4.7001e-14
-1.02592e-08
-5.19991e-14
-1.02843e-08
-1.75898e-14
-1.0255e-08
-1.02631e-08
4.59118e-14
-1.02579e-08
4.67552e-14
-1.02592e-08
-5.16972e-14
-1.02842e-08
-1.7502e-14
-1.0255e-08
-1.02631e-08
4.56608e-14
-1.0258e-08
4.6507e-14
-1.02592e-08
-5.13928e-14
-1.02841e-08
-1.74126e-14
-1.0255e-08
-1.02631e-08
4.54072e-14
-1.0258e-08
4.62562e-14
-1.02592e-08
-5.10861e-14
-1.0284e-08
-1.73217e-14
-1.02551e-08
-1.02632e-08
4.5151e-14
-1.0258e-08
4.6003e-14
-1.02592e-08
-5.07771e-14
-1.02839e-08
-1.72293e-14
-1.02551e-08
-1.02632e-08
4.48922e-14
-1.02581e-08
4.57472e-14
-1.02592e-08
-5.04657e-14
-1.02838e-08
-1.71354e-14
-1.02551e-08
-1.02632e-08
4.46309e-14
-1.02581e-08
4.54891e-14
-1.02592e-08
-5.0152e-14
-1.02837e-08
-1.70402e-14
-1.02552e-08
-1.02632e-08
4.4367e-14
-1.02582e-08
4.52285e-14
-1.02592e-08
-4.9836e-14
-1.02836e-08
-1.69436e-14
-1.02552e-08
-1.02632e-08
4.41006e-14
-1.02582e-08
4.49654e-14
-1.02592e-08
-4.95176e-14
-1.02835e-08
-1.68456e-14
-1.02552e-08
-1.02632e-08
4.38317e-14
-1.02583e-08
4.46999e-14
-1.02592e-08
-4.9197e-14
-1.02834e-08
-1.67464e-14
-1.02553e-08
-1.02633e-08
4.35605e-14
-1.02583e-08
4.44319e-14
-1.02592e-08
-4.88741e-14
-1.02833e-08
-1.6646e-14
-1.02553e-08
-1.02633e-08
4.32868e-14
-1.02584e-08
4.41616e-14
-1.02592e-08
-4.85489e-14
-1.02833e-08
-1.65443e-14
-1.02553e-08
-1.02633e-08
4.30108e-14
-1.02584e-08
4.38888e-14
-1.02592e-08
-4.82215e-14
-1.02832e-08
-1.64415e-14
-1.02553e-08
-1.02633e-08
4.27325e-14
-1.02584e-08
4.36137e-14
-1.02592e-08
-4.78918e-14
-1.02831e-08
-1.63376e-14
-1.02554e-08
-1.02633e-08
4.24518e-14
-1.02585e-08
4.33361e-14
-1.02592e-08
-4.75599e-14
-1.0283e-08
-1.62327e-14
-1.02554e-08
-1.02633e-08
4.21689e-14
-1.02585e-08
4.30562e-14
-1.02592e-08
-4.72258e-14
-1.02829e-08
-1.61267e-14
-1.02554e-08
-1.02634e-08
4.18838e-14
-1.02586e-08
4.27739e-14
-1.02592e-08
-4.68895e-14
-1.02828e-08
-1.60198e-14
-1.02555e-08
-1.02634e-08
4.15966e-14
-1.02586e-08
4.24892e-14
-1.02592e-08
-4.6551e-14
-1.02827e-08
-1.59119e-14
-1.02555e-08
-1.02634e-08
4.13072e-14
-1.02587e-08
4.22022e-14
-1.02592e-08
-4.62103e-14
-1.02826e-08
-1.58032e-14
-1.02555e-08
-1.02634e-08
4.10156e-14
-1.02587e-08
4.19129e-14
-1.02592e-08
-4.58675e-14
-1.02825e-08
-1.56937e-14
-1.02556e-08
-1.02634e-08
4.07221e-14
-1.02587e-08
4.16212e-14
-1.02592e-08
-4.55225e-14
-1.02825e-08
-1.55834e-14
-1.02556e-08
-1.02634e-08
4.04265e-14
-1.02588e-08
4.13272e-14
-1.02592e-08
-4.51754e-14
-1.02824e-08
-1.54724e-14
-1.02556e-08
-1.02634e-08
4.01289e-14
-1.02588e-08
4.10309e-14
-1.02592e-08
-4.48262e-14
-1.02823e-08
-1.53607e-14
-1.02557e-08
-1.02635e-08
3.98294e-14
-1.02589e-08
4.07323e-14
-1.02592e-08
-4.44749e-14
-1.02822e-08
-1.52484e-14
-1.02557e-08
-1.02635e-08
3.95279e-14
-1.02589e-08
4.04314e-14
-1.02592e-08
-4.41215e-14
-1.02821e-08
-1.51356e-14
-1.02557e-08
-1.02635e-08
3.92247e-14
-1.02589e-08
4.01282e-14
-1.02592e-08
-4.3766e-14
-1.0282e-08
-1.50222e-14
-1.02557e-08
-1.02635e-08
3.89196e-14
-1.0259e-08
3.98228e-14
-1.02592e-08
-4.34085e-14
-1.02819e-08
-1.49085e-14
-1.02558e-08
-1.02635e-08
3.86127e-14
-1.0259e-08
3.95152e-14
-1.02592e-08
-4.3049e-14
-1.02819e-08
-1.47943e-14
-1.02558e-08
-1.02635e-08
3.83042e-14
-1.0259e-08
3.92053e-14
-1.02592e-08
-4.26875e-14
-1.02818e-08
-1.46798e-14
-1.02558e-08
-1.02636e-08
3.79939e-14
-1.02591e-08
3.88932e-14
-1.02592e-08
-4.23239e-14
-1.02817e-08
-1.4565e-14
-1.02559e-08
-1.02636e-08
3.76821e-14
-1.02591e-08
3.85789e-14
-1.02592e-08
-4.19585e-14
-1.02816e-08
-1.44501e-14
-1.02559e-08
-1.02636e-08
3.73687e-14
-1.02592e-08
3.82625e-14
-1.02592e-08
-4.1591e-14
-1.02815e-08
-1.4335e-14
-1.02559e-08
-1.02636e-08
3.70538e-14
-1.02592e-08
3.79439e-14
-1.02592e-08
-4.12217e-14
-1.02815e-08
-1.42198e-14
-1.02559e-08
-1.02636e-08
3.67375e-14
-1.02592e-08
3.76232e-14
-1.02592e-08
-4.08504e-14
-1.02814e-08
-1.41047e-14
-1.0256e-08
-1.02636e-08
3.64197e-14
-1.02593e-08
3.73004e-14
-1.02592e-08
-4.04773e-14
-1.02813e-08
-1.39896e-14
-1.0256e-08
-1.02636e-08
3.61007e-14
-1.02593e-08
3.69755e-14
-1.02592e-08
-4.01024e-14
-1.02812e-08
-1.38747e-14
-1.0256e-08
-1.02637e-08
3.57804e-14
-1.02593e-08
3.66485e-14
-1.02592e-08
-3.97256e-14
-1.02811e-08
-1.37601e-14
-1.0256e-08
-1.02637e-08
3.54589e-14
-1.02594e-08
3.63195e-14
-1.02592e-08
-3.93471e-14
-1.02811e-08
-1.36458e-14
-1.02561e-08
-1.02637e-08
3.51363e-14
-1.02594e-08
3.59886e-14
-1.02592e-08
-3.89669e-14
-1.0281e-08
-1.35319e-14
-1.02561e-08
-1.02637e-08
3.48127e-14
-1.02594e-08
3.56557e-14
-1.02592e-08
-3.85849e-14
-1.02809e-08
-1.34185e-14
-1.02561e-08
-1.02637e-08
3.44882e-14
-1.02595e-08
3.53209e-14
-1.02592e-08
-3.82013e-14
-1.02808e-08
-1.33058e-14
-1.02561e-08
-1.02637e-08
3.41627e-14
-1.02595e-08
3.49842e-14
-1.02592e-08
-3.78161e-14
-1.02808e-08
-1.31938e-14
-1.02562e-08
-1.02637e-08
3.38365e-14
-1.02596e-08
3.46457e-14
-1.02592e-08
-3.74294e-14
-1.02807e-08
-1.30826e-14
-1.02562e-08
-1.02637e-08
3.35097e-14
-1.02596e-08
3.43054e-14
-1.02592e-08
-3.70412e-14
-1.02806e-08
-1.29724e-14
-1.02562e-08
-1.02638e-08
3.31823e-14
-1.02596e-08
3.39634e-14
-1.02592e-08
-3.66515e-14
-1.02806e-08
-1.28632e-14
-1.02562e-08
-1.02638e-08
3.28544e-14
-1.02597e-08
3.36197e-14
-1.02592e-08
-3.62604e-14
-1.02805e-08
-1.27552e-14
-1.02563e-08
-1.02638e-08
3.25261e-14
-1.02597e-08
3.32744e-14
-1.02592e-08
-3.5868e-14
-1.02804e-08
-1.26486e-14
-1.02563e-08
-1.02638e-08
3.21977e-14
-1.02597e-08
3.29276e-14
-1.02593e-08
-3.54744e-14
-1.02804e-08
-1.25434e-14
-1.02563e-08
-1.02638e-08
3.18691e-14
-1.02597e-08
3.25793e-14
-1.02593e-08
-3.50795e-14
-1.02803e-08
-1.24398e-14
-1.02563e-08
-1.02638e-08
3.15405e-14
-1.02598e-08
3.22295e-14
-1.02593e-08
-3.46836e-14
-1.02802e-08
-1.23379e-14
-1.02564e-08
-1.02638e-08
3.1212e-14
-1.02598e-08
3.18785e-14
-1.02593e-08
-3.42866e-14
-1.02802e-08
-1.22379e-14
-1.02564e-08
-1.02638e-08
3.08838e-14
-1.02598e-08
3.15261e-14
-1.02593e-08
-3.38887e-14
-1.02801e-08
-1.214e-14
-1.02564e-08
-1.02639e-08
3.05561e-14
-1.02599e-08
3.11726e-14
-1.02593e-08
-3.34899e-14
-1.028e-08
-1.20443e-14
-1.02564e-08
-1.02639e-08
3.02288e-14
-1.02599e-08
3.08179e-14
-1.02593e-08
-3.30904e-14
-1.028e-08
-1.19509e-14
-1.02564e-08
-1.02639e-08
2.99023e-14
-1.02599e-08
3.04623e-14
-1.02593e-08
-3.26901e-14
-1.02799e-08
-1.18601e-14
-1.02565e-08
-1.02639e-08
2.95765e-14
-1.026e-08
3.01057e-14
-1.02593e-08
-3.22892e-14
-1.02798e-08
-1.17719e-14
-1.02565e-08
-1.02639e-08
2.92517e-14
-1.026e-08
2.97482e-14
-1.02593e-08
-3.18879e-14
-1.02798e-08
-1.16865e-14
-1.02565e-08
-1.02639e-08
2.8928e-14
-1.026e-08
2.93899e-14
-1.02593e-08
-3.14861e-14
-1.02797e-08
-1.16041e-14
-1.02565e-08
-1.02639e-08
2.86055e-14
-1.026e-08
2.90309e-14
-1.02593e-08
-3.1084e-14
-1.02797e-08
-1.15249e-14
-1.02565e-08
-1.02639e-08
2.82843e-14
-1.02601e-08
2.86713e-14
-1.02593e-08
-3.06817e-14
-1.02796e-08
-1.14489e-14
-1.02566e-08
-1.0264e-08
2.79645e-14
-1.02601e-08
2.83111e-14
-1.02593e-08
-3.02792e-14
-1.02795e-08
-1.13764e-14
-1.02566e-08
-1.0264e-08
2.76463e-14
-1.02601e-08
2.79504e-14
-1.02593e-08
-2.98768e-14
-1.02795e-08
-1.13073e-14
-1.02566e-08
-1.0264e-08
2.73297e-14
-1.02602e-08
2.75892e-14
-1.02593e-08
-2.94744e-14
-1.02794e-08
-1.12419e-14
-1.02566e-08
-1.0264e-08
2.70149e-14
-1.02602e-08
2.72277e-14
-1.02593e-08
-2.90721e-14
-1.02794e-08
-1.11803e-14
-1.02566e-08
-1.0264e-08
2.67018e-14
-1.02602e-08
2.68658e-14
-1.02593e-08
-2.86701e-14
-1.02793e-08
-1.11224e-14
-1.02566e-08
-1.0264e-08
2.63905e-14
-1.02602e-08
2.65037e-14
-1.02593e-08
-2.82685e-14
-1.02793e-08
-1.10684e-14
-1.02567e-08
-1.0264e-08
2.60811e-14
-1.02603e-08
2.61412e-14
-1.02593e-08
-2.78674e-14
-1.02792e-08
-1.10184e-14
-1.02567e-08
-1.0264e-08
2.57735e-14
-1.02603e-08
2.57786e-14
-1.02593e-08
-2.74669e-14
-1.02791e-08
-1.09722e-14
-1.02567e-08
-1.0264e-08
2.54677e-14
-1.02603e-08
2.54157e-14
-1.02593e-08