/*--------------------------------*- C++ -*----------------------------------*\
| =========                 |                                                 |
| \\      /  F ield         | OpenFOAM: The Open Source CFD Toolbox           |
|  \\    /   O peration     | Version:  2.4.0                                 |
|   \\  /    A nd           | Web:      www.OpenFOAM.org                      |
|    \\/     M anipulation  |                                                 |
\*---------------------------------------------------------------------------*/
FoamFile
{
    version     2.0;
    format      ascii;
    class       volVectorField;
    location    "0.003";
    object      U;
}
// * * * * * * * * * * * * * * * * * * * * * * * * * * * * * * * * * * * * * //

dimensions      [0 1 -1 0 0 0 0];

internalField   nonuniform List<vector> 
1500
(
(0.000221122 0.00323108 0)
(-0.000499973 0.0032545 0)
(-0.000918012 0.00328621 0)
(0.000189498 0.00322905 0)
(0.000385645 0.00324549 0)
(6.4606e-05 -0.00867246 0)
(-0.000499012 -0.0086942 0)
(-0.000704849 -0.0087709 0)
(-4.59344e-05 -0.00867252 0)
(9.38449e-05 -0.00869203 0)
(6.04533e-05 -0.0502075 0)
(-0.000474385 -0.0502279 0)
(-0.000689279 -0.0503553 0)
(-7.65842e-05 -0.0501904 0)
(7.62663e-05 -0.0502317 0)
(0.000139826 -0.0743415 0)
(-0.000399629 -0.0744969 0)
(-0.000645125 -0.0749381 0)
(-5.90901e-05 -0.0743214 0)
(4.63542e-05 -0.0744636 0)
(0.000175395 -0.0533633 0)
(-0.000287552 -0.0534342 0)
(-0.000562829 -0.0536755 0)
(-8.98788e-05 -0.0533541 0)
(1.0514e-05 -0.0534249 0)
(0.000190156 -0.0501826 0)
(-0.0001815 -0.0502455 0)
(-0.000461764 -0.0504702 0)
(-0.000122219 -0.050175 0)
(-3.13161e-05 -0.0502398 0)
(0.000193992 -0.0505593 0)
(-8.95056e-05 -0.0506221 0)
(-0.000362313 -0.0508526 0)
(-0.000149547 -0.0505521 0)
(-6.991e-05 -0.0506178 0)
(0.000191436 -0.0511482 0)
(-1.34468e-05 -0.0512117 0)
(-0.000276804 -0.0514475 0)
(-0.000170802 -0.0511411 0)
(-9.81652e-05 -0.0512085 0)
(0.000184235 -0.05128 0)
(4.72152e-05 -0.0513425 0)
(-0.000209106 -0.0515795 0)
(-0.000186016 -0.0512728 0)
(-0.000113369 -0.0513408 0)
(0.00017374 -0.0512613 0)
(9.42124e-05 -0.0513223 0)
(-0.000158772 -0.0515592 0)
(-0.000195586 -0.0512537 0)
(-0.000115932 -0.0513221 0)
(0.000161106 -0.0512407 0)
(0.000129628 -0.0513004 0)
(-0.000123126 -0.051537 0)
(-0.000200131 -0.0512327 0)
(-0.000108203 -0.0513016 0)
(0.000147273 -0.0512367 0)
(0.00015548 -0.0512952 0)
(-9.87778e-05 -0.0515313 0)
(-0.000200446 -0.051228 0)
(-9.32814e-05 -0.0512976 0)
(0.000132958 -0.0512382 0)
(0.00017356 -0.0512955 0)
(-8.25408e-05 -0.0515311 0)
(-0.000197432 -0.0512289 0)
(-7.41853e-05 -0.0512991 0)
(0.000118687 -0.0512397 0)
(0.000185397 -0.0512959 0)
(-7.18401e-05 -0.0515309 0)
(-0.000192005 -0.0512297 0)
(-5.34075e-05 -0.0513005 0)
(0.000104823 -0.0512405 0)
(0.000192276 -0.0512957 0)
(-6.47806e-05 -0.0515301 0)
(-0.000185011 -0.05123 0)
(-3.27763e-05 -0.0513012 0)
(9.16115e-05 -0.0512412 0)
(0.000195272 -0.0512954 0)
(-6.00521e-05 -0.0515291 0)
(-0.000177163 -0.0512301 0)
(-1.34873e-05 -0.0513016 0)
(7.92109e-05 -0.0512418 0)
(0.000195293 -0.0512951 0)
(-5.67857e-05 -0.0515281 0)
(-0.000169016 -0.0512303 0)
(3.7848e-06 -0.051302 0)
(6.77156e-05 -0.0512424 0)
(0.000193108 -0.0512948 0)
(-5.44196e-05 -0.0515271 0)
(-0.000160964 -0.0512305 0)
(1.87524e-05 -0.0513023 0)
(5.71752e-05 -0.051243 0)
(0.000189359 -0.0512946 0)
(-5.25962e-05 -0.0515262 0)
(-0.00015327 -0.0512307 0)
(3.13911e-05 -0.0513026 0)
(4.76056e-05 -0.0512436 0)
(0.00018458 -0.0512944 0)
(-5.10905e-05 -0.0515252 0)
(-0.000146086 -0.051231 0)
(4.18386e-05 -0.0513029 0)
(3.89966e-05 -0.0512441 0)
(0.0001792 -0.0512943 0)
(-4.97628e-05 -0.0515244 0)
(-0.000139487 -0.0512313 0)
(5.03194e-05 -0.0513031 0)
(3.13181e-05 -0.0512446 0)
(0.000173553 -0.0512942 0)
(-4.85296e-05 -0.0515235 0)
(-0.000133494 -0.0512316 0)
(5.70933e-05 -0.0513033 0)
(2.45239e-05 -0.0512451 0)
(0.00016789 -0.051294 0)
(-4.73436e-05 -0.0515227 0)
(-0.000128094 -0.0512319 0)
(6.24218e-05 -0.0513035 0)
(1.85565e-05 -0.0512455 0)
(0.000162389 -0.051294 0)
(-4.61812e-05 -0.0515219 0)
(-0.000123256 -0.0512323 0)
(6.65497e-05 -0.0513036 0)
(1.33507e-05 -0.0512459 0)
(0.000157169 -0.0512939 0)
(-4.50341e-05 -0.0515211 0)
(-0.000118935 -0.0512326 0)
(6.96953e-05 -0.0513037 0)
(8.83672e-06 -0.0512463 0)
(0.000152302 -0.0512938 0)
(-4.39027e-05 -0.0515203 0)
(-0.000115087 -0.0512329 0)
(7.20469e-05 -0.0513038 0)
(4.94384e-06 -0.0512467 0)
(0.000147824 -0.0512938 0)
(-4.2792e-05 -0.0515196 0)
(-0.000111664 -0.0512333 0)
(7.37634e-05 -0.0513039 0)
(1.6026e-06 -0.051247 0)
(0.000143747 -0.0512937 0)
(-4.17089e-05 -0.0515188 0)
(-0.000108622 -0.0512336 0)
(7.49763e-05 -0.051304 0)
(-1.25316e-06 -0.0512473 0)
(0.000140065 -0.0512937 0)
(-4.066e-05 -0.0515181 0)
(-0.000105921 -0.051234 0)
(7.57931e-05 -0.051304 0)
(-3.68491e-06 -0.0512477 0)
(0.000136761 -0.0512937 0)
(-3.9651e-05 -0.0515174 0)
(-0.000103523 -0.0512343 0)
(7.63006e-05 -0.0513041 0)
(-5.7486e-06 -0.051248 0)
(0.000133809 -0.0512937 0)
(-3.86861e-05 -0.0515167 0)
(-0.000101396 -0.0512347 0)
(7.65679e-05 -0.0513041 0)
(-7.49428e-06 -0.0512483 0)
(0.000131183 -0.0512937 0)
(-3.77681e-05 -0.051516 0)
(-9.95088e-05 -0.0512351 0)
(7.66502e-05 -0.0513042 0)
(-8.96615e-06 -0.0512486 0)
(0.000128853 -0.0512937 0)
(-3.68981e-05 -0.0515154 0)
(-9.78349e-05 -0.0512354 0)
(7.65906e-05 -0.0513042 0)
(-1.02027e-05 -0.0512488 0)
(0.000126791 -0.0512937 0)
(-3.60765e-05 -0.0515147 0)
(-9.63504e-05 -0.0512357 0)
(7.64231e-05 -0.0513042 0)
(-1.12374e-05 -0.0512491 0)
(0.000124969 -0.0512937 0)
(-3.53026e-05 -0.051514 0)
(-9.5034e-05 -0.0512361 0)
(7.6174e-05 -0.0513043 0)
(-1.20988e-05 -0.0512494 0)
(0.000123361 -0.0512937 0)
(-3.45752e-05 -0.0515134 0)
(-9.38669e-05 -0.0512364 0)
(7.58637e-05 -0.0513043 0)
(-1.28116e-05 -0.0512496 0)
(0.000121943 -0.0512937 0)
(-3.38927e-05 -0.0515127 0)
(-9.2832e-05 -0.0512368 0)
(7.55081e-05 -0.0513043 0)
(-1.33967e-05 -0.0512499 0)
(0.000120693 -0.0512937 0)
(-3.32532e-05 -0.0515121 0)
(-9.19144e-05 -0.0512371 0)
(7.51192e-05 -0.0513043 0)
(-1.38721e-05 -0.0512501 0)
(0.000119592 -0.0512938 0)
(-3.26548e-05 -0.0515115 0)
(-9.11005e-05 -0.0512375 0)
(7.47064e-05 -0.0513044 0)
(-1.42533e-05 -0.0512504 0)
(0.00011862 -0.0512938 0)
(-3.20953e-05 -0.0515108 0)
(-9.03785e-05 -0.0512378 0)
(7.42768e-05 -0.0513044 0)
(-1.45534e-05 -0.0512506 0)
(0.000117761 -0.0512938 0)
(-3.15727e-05 -0.0515102 0)
(-8.97375e-05 -0.0512381 0)
(7.3836e-05 -0.0513044 0)
(-1.47839e-05 -0.0512509 0)
(0.000117002 -0.0512938 0)
(-3.10849e-05 -0.0515096 0)
(-8.91681e-05 -0.0512385 0)
(7.33881e-05 -0.0513044 0)
(-1.49546e-05 -0.0512511 0)
(0.000116328 -0.0512939 0)
(-3.06297e-05 -0.0515089 0)
(-8.86616e-05 -0.0512388 0)
(7.29363e-05 -0.0513044 0)
(-1.50741e-05 -0.0512514 0)
(0.000115729 -0.0512939 0)
(-3.0205e-05 -0.0515083 0)
(-8.82106e-05 -0.0512391 0)
(7.24829e-05 -0.0513045 0)
(-1.51496e-05 -0.0512516 0)
(0.000115194 -0.0512939 0)
(-2.98087e-05 -0.0515077 0)
(-8.78081e-05 -0.0512395 0)
(7.20296e-05 -0.0513045 0)
(-1.51877e-05 -0.0512519 0)
(0.000114713 -0.051294 0)
(-2.94387e-05 -0.051507 0)
(-8.74482e-05 -0.0512398 0)
(7.15779e-05 -0.0513045 0)
(-1.51941e-05 -0.0512521 0)
(0.000114279 -0.051294 0)
(-2.90931e-05 -0.0515064 0)
(-8.71254e-05 -0.0512401 0)
(7.11286e-05 -0.0513045 0)
(-1.51735e-05 -0.0512524 0)
(0.000113885 -0.051294 0)
(-2.87697e-05 -0.0515058 0)
(-8.68349e-05 -0.0512405 0)
(7.06824e-05 -0.0513045 0)
(-1.51302e-05 -0.0512526 0)
(0.000113525 -0.0512941 0)
(-2.84667e-05 -0.0515052 0)
(-8.65724e-05 -0.0512408 0)
(7.02396e-05 -0.0513046 0)
(-1.50679e-05 -0.0512528 0)
(0.000113192 -0.0512941 0)
(-2.81822e-05 -0.0515045 0)
(-8.63341e-05 -0.0512411 0)
(6.98006e-05 -0.0513046 0)
(-1.49898e-05 -0.0512531 0)
(0.000112883 -0.0512941 0)
(-2.79145e-05 -0.0515039 0)
(-8.61166e-05 -0.0512414 0)
(6.93653e-05 -0.0513046 0)
(-1.48988e-05 -0.0512533 0)
(0.000112594 -0.0512942 0)
(-2.76619e-05 -0.0515033 0)
(-8.59168e-05 -0.0512417 0)
(6.8934e-05 -0.0513046 0)
(-1.47971e-05 -0.0512536 0)
(0.00011232 -0.0512942 0)
(-2.74229e-05 -0.0515027 0)
(-8.57321e-05 -0.051242 0)
(6.85065e-05 -0.0513047 0)
(-1.46868e-05 -0.0512538 0)
(0.000112059 -0.0512942 0)
(-2.71959e-05 -0.051502 0)
(-8.556e-05 -0.0512424 0)
(6.80828e-05 -0.0513047 0)
(-1.45697e-05 -0.0512541 0)
(0.000111809 -0.0512943 0)
(-2.69796e-05 -0.0515014 0)
(-8.53985e-05 -0.0512427 0)
(6.76626e-05 -0.0513047 0)
(-1.44473e-05 -0.0512543 0)
(0.000111566 -0.0512943 0)
(-2.67728e-05 -0.0515008 0)
(-8.52456e-05 -0.051243 0)
(6.7246e-05 -0.0513048 0)
(-1.43209e-05 -0.0512546 0)
(0.000111329 -0.0512943 0)
(-2.65744e-05 -0.0515002 0)
(-8.50998e-05 -0.0512433 0)
(6.68328e-05 -0.0513048 0)
(-1.41915e-05 -0.0512548 0)
(0.000111097 -0.0512944 0)
(-2.63833e-05 -0.0514995 0)
(-8.49596e-05 -0.0512436 0)
(6.64227e-05 -0.0513048 0)
(-1.40601e-05 -0.0512551 0)
(0.000110867 -0.0512944 0)
(-2.61986e-05 -0.0514989 0)
(-8.48236e-05 -0.0512439 0)
(6.60158e-05 -0.0513049 0)
(-1.39274e-05 -0.0512553 0)
(0.000110639 -0.0512944 0)
(-2.60195e-05 -0.0514983 0)
(-8.46908e-05 -0.0512442 0)
(6.56118e-05 -0.0513049 0)
(-1.3794e-05 -0.0512556 0)
(0.000110412 -0.0512945 0)
(-2.58452e-05 -0.0514977 0)
(-8.45601e-05 -0.0512445 0)
(6.52106e-05 -0.0513049 0)
(-1.36604e-05 -0.0512558 0)
(0.000110185 -0.0512945 0)
(-2.56751e-05 -0.051497 0)
(-8.44307e-05 -0.0512448 0)
(6.48121e-05 -0.051305 0)
(-1.35272e-05 -0.0512561 0)
(0.000109957 -0.0512945 0)
(-2.55086e-05 -0.0514964 0)
(-8.43018e-05 -0.0512451 0)
(6.44162e-05 -0.051305 0)
(-1.33945e-05 -0.0512563 0)
(0.000109728 -0.0512946 0)
(-2.53452e-05 -0.0514958 0)
(-8.41727e-05 -0.0512454 0)
(6.40229e-05 -0.0513051 0)
(-1.32628e-05 -0.0512566 0)
(0.000109497 -0.0512946 0)
(-2.51844e-05 -0.0514951 0)
(-8.40429e-05 -0.0512457 0)
(6.36319e-05 -0.0513051 0)
(-1.31322e-05 -0.0512568 0)
(0.000109264 -0.0512946 0)
(-2.5026e-05 -0.0514945 0)
(-8.39119e-05 -0.051246 0)
(6.32433e-05 -0.0513051 0)
(-1.3003e-05 -0.0512571 0)
(0.000109028 -0.0512947 0)
(-2.48695e-05 -0.0514939 0)
(-8.37793e-05 -0.0512463 0)
(6.28571e-05 -0.0513052 0)
(-1.28752e-05 -0.0512574 0)
(0.000108789 -0.0512947 0)
(-2.47146e-05 -0.0514932 0)
(-8.36446e-05 -0.0512466 0)
(6.2473e-05 -0.0513052 0)
(-1.2749e-05 -0.0512576 0)
(0.000108547 -0.0512947 0)
(-2.45612e-05 -0.0514926 0)
(-8.35076e-05 -0.0512469 0)
(6.20911e-05 -0.0513053 0)
(-1.26244e-05 -0.0512579 0)
(0.000108301 -0.0512947 0)
(-2.44091e-05 -0.051492 0)
(-8.3368e-05 -0.0512472 0)
(6.17114e-05 -0.0513053 0)
(-1.25016e-05 -0.0512581 0)
(0.000108052 -0.0512948 0)
(-2.42579e-05 -0.0514913 0)
(-8.32255e-05 -0.0512475 0)
(6.13338e-05 -0.0513054 0)
(-1.23805e-05 -0.0512584 0)
(0.0001078 -0.0512948 0)
(-2.41077e-05 -0.0514907 0)
(-8.30801e-05 -0.0512478 0)
(6.09582e-05 -0.0513054 0)
(-1.22612e-05 -0.0512587 0)
(0.000107544 -0.0512948 0)
(-2.39583e-05 -0.0514901 0)
(-8.29314e-05 -0.0512481 0)
(6.05847e-05 -0.0513055 0)
(-1.21436e-05 -0.0512589 0)
(0.000107284 -0.0512949 0)
(-2.38096e-05 -0.0514895 0)
(-8.27794e-05 -0.0512484 0)
(6.02132e-05 -0.0513055 0)
(-1.20279e-05 -0.0512592 0)
(0.00010702 -0.0512949 0)
(-2.36614e-05 -0.0514888 0)
(-8.2624e-05 -0.0512487 0)
(5.98438e-05 -0.0513056 0)
(-1.1914e-05 -0.0512594 0)
(0.000106753 -0.0512949 0)
(-2.35138e-05 -0.0514882 0)
(-8.24651e-05 -0.051249 0)
(5.94763e-05 -0.0513057 0)
(-1.18019e-05 -0.0512597 0)
(0.000106482 -0.0512949 0)
(-2.33667e-05 -0.0514875 0)
(-8.23026e-05 -0.0512493 0)
(5.91107e-05 -0.0513057 0)
(-1.16916e-05 -0.05126 0)
(0.000106206 -0.051295 0)
(-2.32201e-05 -0.0514869 0)
(-8.21364e-05 -0.0512496 0)
(5.87471e-05 -0.0513058 0)
(-1.15831e-05 -0.0512602 0)
(0.000105927 -0.051295 0)
(-2.30738e-05 -0.0514863 0)
(-8.19666e-05 -0.0512498 0)
(5.83855e-05 -0.0513058 0)
(-1.14763e-05 -0.0512605 0)
(0.000105644 -0.051295 0)
(-2.29279e-05 -0.0514856 0)
(-8.17931e-05 -0.0512501 0)
(5.80257e-05 -0.0513059 0)
(-1.13713e-05 -0.0512608 0)
(0.000105357 -0.051295 0)
(-2.27823e-05 -0.051485 0)
(-8.16158e-05 -0.0512504 0)
(5.76679e-05 -0.051306 0)
(-1.12681e-05 -0.051261 0)
(0.000105066 -0.051295 0)
(-2.26371e-05 -0.0514844 0)
(-8.14347e-05 -0.0512507 0)
(5.7312e-05 -0.051306 0)
(-1.11665e-05 -0.0512613 0)
(0.000104772 -0.0512951 0)
(-2.24922e-05 -0.0514837 0)
(-8.125e-05 -0.051251 0)
(5.69579e-05 -0.0513061 0)
(-1.10666e-05 -0.0512616 0)
(0.000104473 -0.0512951 0)
(-2.23477e-05 -0.0514831 0)
(-8.10614e-05 -0.0512513 0)
(5.66057e-05 -0.0513062 0)
(-1.09685e-05 -0.0512618 0)
(0.000104171 -0.0512951 0)
(-2.22034e-05 -0.0514825 0)
(-8.08692e-05 -0.0512515 0)
(5.62554e-05 -0.0513062 0)
(-1.0872e-05 -0.0512621 0)
(0.000103864 -0.0512951 0)
(-2.20594e-05 -0.0514818 0)
(-8.06731e-05 -0.0512518 0)
(5.59069e-05 -0.0513063 0)
(-1.07771e-05 -0.0512624 0)
(0.000103554 -0.0512952 0)
(-2.19157e-05 -0.0514812 0)
(-8.04734e-05 -0.0512521 0)
(5.55602e-05 -0.0513064 0)
(-1.06839e-05 -0.0512627 0)
(0.000103241 -0.0512952 0)
(-2.17724e-05 -0.0514806 0)
(-8.027e-05 -0.0512524 0)
(5.52154e-05 -0.0513064 0)
(-1.05922e-05 -0.0512629 0)
(0.000102923 -0.0512952 0)
(-2.16293e-05 -0.0514799 0)
(-8.00629e-05 -0.0512526 0)
(5.48724e-05 -0.0513065 0)
(-1.05022e-05 -0.0512632 0)
(0.000102602 -0.0512952 0)
(-2.14865e-05 -0.0514793 0)
(-7.98521e-05 -0.0512529 0)
(5.45311e-05 -0.0513066 0)
(-1.04137e-05 -0.0512635 0)
(0.000102277 -0.0512952 0)
(-2.1344e-05 -0.0514787 0)
(-7.96377e-05 -0.0512532 0)
(5.41917e-05 -0.0513066 0)
(-1.03267e-05 -0.0512637 0)
(0.000101948 -0.0512953 0)
(-2.12018e-05 -0.051478 0)
(-7.94196e-05 -0.0512535 0)
(5.3854e-05 -0.0513067 0)
(-1.02413e-05 -0.051264 0)
(0.000101616 -0.0512953 0)
(-2.10599e-05 -0.0514774 0)
(-7.9198e-05 -0.0512537 0)
(5.35181e-05 -0.0513068 0)
(-1.01574e-05 -0.0512643 0)
(0.00010128 -0.0512953 0)
(-2.09183e-05 -0.0514768 0)
(-7.89729e-05 -0.051254 0)
(5.31839e-05 -0.0513069 0)
(-1.0075e-05 -0.0512646 0)
(0.000100941 -0.0512953 0)
(-2.0777e-05 -0.0514761 0)
(-7.87441e-05 -0.0512543 0)
(5.28515e-05 -0.0513069 0)
(-9.99401e-06 -0.0512648 0)
(0.000100598 -0.0512953 0)
(-2.0636e-05 -0.0514755 0)
(-7.85119e-05 -0.0512545 0)
(5.25208e-05 -0.051307 0)
(-9.91452e-06 -0.0512651 0)
(0.000100252 -0.0512953 0)
(-2.04953e-05 -0.0514749 0)
(-7.82762e-05 -0.0512548 0)
(5.21918e-05 -0.0513071 0)
(-9.83645e-06 -0.0512654 0)
(9.9902e-05 -0.0512954 0)
(-2.03549e-05 -0.0514742 0)
(-7.80371e-05 -0.0512551 0)
(5.18645e-05 -0.0513072 0)
(-9.75981e-06 -0.0512657 0)
(9.95487e-05 -0.0512954 0)
(-2.02148e-05 -0.0514736 0)
(-7.77946e-05 -0.0512553 0)
(5.15389e-05 -0.0513072 0)
(-9.68456e-06 -0.0512659 0)
(9.91921e-05 -0.0512954 0)
(-2.00751e-05 -0.051473 0)
(-7.75486e-05 -0.0512556 0)
(5.12149e-05 -0.0513073 0)
(-9.61068e-06 -0.0512662 0)
(9.88321e-05 -0.0512954 0)
(-1.99357e-05 -0.0514723 0)
(-7.72994e-05 -0.0512558 0)
(5.08926e-05 -0.0513074 0)
(-9.53817e-06 -0.0512665 0)
(9.84688e-05 -0.0512954 0)
(-1.97966e-05 -0.0514717 0)
(-7.70468e-05 -0.0512561 0)
(5.0572e-05 -0.0513075 0)
(-9.467e-06 -0.0512668 0)
(9.81021e-05 -0.0512954 0)
(-1.96578e-05 -0.0514711 0)
(-7.67909e-05 -0.0512564 0)
(5.0253e-05 -0.0513076 0)
(-9.39715e-06 -0.051267 0)
(9.77322e-05 -0.0512955 0)
(-1.95193e-05 -0.0514704 0)
(-7.65318e-05 -0.0512566 0)
(4.99356e-05 -0.0513076 0)
(-9.3286e-06 -0.0512673 0)
(9.73591e-05 -0.0512955 0)
(-1.93812e-05 -0.0514698 0)
(-7.62694e-05 -0.0512569 0)
(4.96198e-05 -0.0513077 0)
(-9.26134e-06 -0.0512676 0)
(9.69828e-05 -0.0512955 0)
(-1.92434e-05 -0.0514692 0)
(-7.60039e-05 -0.0512571 0)
(4.93056e-05 -0.0513078 0)
(-9.19535e-06 -0.0512679 0)
(9.66033e-05 -0.0512955 0)
(-1.9106e-05 -0.0514685 0)
(-7.57352e-05 -0.0512574 0)
(4.8993e-05 -0.0513079 0)
(-9.1306e-06 -0.0512682 0)
(9.62207e-05 -0.0512955 0)
(-1.89689e-05 -0.0514679 0)
(-7.54633e-05 -0.0512576 0)
(4.86819e-05 -0.051308 0)
(-9.06708e-06 -0.0512684 0)
(9.5835e-05 -0.0512955 0)
(-1.88321e-05 -0.0514673 0)
(-7.51884e-05 -0.0512579 0)
(4.83724e-05 -0.0513081 0)
(-9.00476e-06 -0.0512687 0)
(9.54463e-05 -0.0512955 0)
(-1.86957e-05 -0.0514666 0)
(-7.49104e-05 -0.0512581 0)
(4.80644e-05 -0.0513082 0)
(-8.94364e-06 -0.051269 0)
(9.50545e-05 -0.0512956 0)
(-1.85596e-05 -0.051466 0)
(-7.46294e-05 -0.0512584 0)
(4.7758e-05 -0.0513082 0)
(-8.88369e-06 -0.0512693 0)
(9.46598e-05 -0.0512956 0)
(-1.84239e-05 -0.0514654 0)
(-7.43454e-05 -0.0512586 0)
(4.7453e-05 -0.0513083 0)
(-8.82488e-06 -0.0512695 0)
(9.42621e-05 -0.0512956 0)
(-1.82885e-05 -0.0514648 0)
(-7.40585e-05 -0.0512589 0)
(4.71496e-05 -0.0513084 0)
(-8.76721e-06 -0.0512698 0)
(9.38615e-05 -0.0512956 0)
(-1.81535e-05 -0.0514641 0)
(-7.37686e-05 -0.0512591 0)
(4.68476e-05 -0.0513085 0)
(-8.71066e-06 -0.0512701 0)
(9.3458e-05 -0.0512956 0)
(-1.80188e-05 -0.0514635 0)
(-7.34759e-05 -0.0512594 0)
(4.65471e-05 -0.0513086 0)
(-8.65519e-06 -0.0512704 0)
(9.30517e-05 -0.0512956 0)
(-1.78845e-05 -0.0514629 0)
(-7.31802e-05 -0.0512596 0)
(4.6248e-05 -0.0513087 0)
(-8.6008e-06 -0.0512706 0)
(9.26425e-05 -0.0512956 0)
(-1.77506e-05 -0.0514623 0)
(-7.28818e-05 -0.0512599 0)
(4.59504e-05 -0.0513088 0)
(-8.54747e-06 -0.0512709 0)
(9.22306e-05 -0.0512956 0)
(-1.7617e-05 -0.0514616 0)
(-7.25806e-05 -0.0512601 0)
(4.56542e-05 -0.0513089 0)
(-8.49517e-06 -0.0512712 0)
(9.18159e-05 -0.0512956 0)
(-1.74838e-05 -0.051461 0)
(-7.22766e-05 -0.0512604 0)
(4.53593e-05 -0.0513089 0)
(-8.44389e-06 -0.0512715 0)
(9.13986e-05 -0.0512957 0)
(-1.7351e-05 -0.0514604 0)
(-7.19699e-05 -0.0512606 0)
(4.50659e-05 -0.051309 0)
(-8.3936e-06 -0.0512718 0)
(9.09785e-05 -0.0512957 0)
(-1.72185e-05 -0.0514598 0)
(-7.16605e-05 -0.0512608 0)
(4.47739e-05 -0.0513091 0)
(-8.34429e-06 -0.051272 0)
(9.05559e-05 -0.0512957 0)
(-1.70864e-05 -0.0514592 0)
(-7.13484e-05 -0.0512611 0)
(4.44832e-05 -0.0513092 0)
(-8.29593e-06 -0.0512723 0)
(9.01306e-05 -0.0512957 0)
(-1.69547e-05 -0.0514585 0)
(-7.10337e-05 -0.0512613 0)
(4.41938e-05 -0.0513093 0)
(-8.24851e-06 -0.0512726 0)
(8.97028e-05 -0.0512957 0)
(-1.68234e-05 -0.0514579 0)
(-7.07165e-05 -0.0512616 0)
(4.39058e-05 -0.0513094 0)
(-8.20201e-06 -0.0512729 0)
(8.92725e-05 -0.0512957 0)
(-1.66925e-05 -0.0514573 0)
(-7.03967e-05 -0.0512618 0)
(4.36191e-05 -0.0513095 0)
(-8.15641e-06 -0.0512731 0)
(8.88396e-05 -0.0512957 0)
(-1.65619e-05 -0.0514567 0)
(-7.00744e-05 -0.051262 0)
(4.33336e-05 -0.0513096 0)
(-8.11168e-06 -0.0512734 0)
(8.84043e-05 -0.0512957 0)
(-1.64317e-05 -0.0514561 0)
(-6.97496e-05 -0.0512623 0)
(4.30495e-05 -0.0513097 0)
(-8.06782e-06 -0.0512737 0)
(8.79666e-05 -0.0512957 0)
(-1.6302e-05 -0.0514555 0)
(-6.94223e-05 -0.0512625 0)
(4.27666e-05 -0.0513098 0)
(-8.02479e-06 -0.051274 0)
(8.75266e-05 -0.0512957 0)
(-1.61726e-05 -0.0514549 0)
(-6.90927e-05 -0.0512627 0)
(4.2485e-05 -0.0513099 0)
(-7.98258e-06 -0.0512742 0)
(8.70841e-05 -0.0512957 0)
(-1.60436e-05 -0.0514543 0)
(-6.87606e-05 -0.051263 0)
(4.22046e-05 -0.05131 0)
(-7.94116e-06 -0.0512745 0)
(8.66394e-05 -0.0512958 0)
(-1.5915e-05 -0.0514536 0)
(-6.84263e-05 -0.0512632 0)
(4.19254e-05 -0.0513101 0)
(-7.90053e-06 -0.0512748 0)
(8.61924e-05 -0.0512958 0)
(-1.57868e-05 -0.051453 0)
(-6.80896e-05 -0.0512634 0)
(4.16474e-05 -0.0513102 0)
(-7.86065e-06 -0.0512751 0)
(8.57432e-05 -0.0512958 0)
(-1.5659e-05 -0.0514524 0)
(-6.77506e-05 -0.0512637 0)
(4.13706e-05 -0.0513103 0)
(-7.82151e-06 -0.0512754 0)
(8.52917e-05 -0.0512958 0)
(-1.55316e-05 -0.0514518 0)
(-6.74094e-05 -0.0512639 0)
(4.1095e-05 -0.0513104 0)
(-7.78308e-06 -0.0512756 0)
(8.48381e-05 -0.0512958 0)
(-1.54046e-05 -0.0514512 0)
(-6.7066e-05 -0.0512641 0)
(4.08205e-05 -0.0513104 0)
(-7.74536e-06 -0.0512759 0)
(8.43824e-05 -0.0512958 0)
(-1.52781e-05 -0.0514506 0)
(-6.67205e-05 -0.0512643 0)
(4.05472e-05 -0.0513105 0)
(-7.70831e-06 -0.0512762 0)
(8.39246e-05 -0.0512958 0)
(-1.51519e-05 -0.05145 0)
(-6.63728e-05 -0.0512646 0)
(4.02749e-05 -0.0513106 0)
(-7.67192e-06 -0.0512764 0)
(8.34647e-05 -0.0512958 0)
(-1.50261e-05 -0.0514494 0)
(-6.6023e-05 -0.0512648 0)
(4.00038e-05 -0.0513107 0)
(-7.63616e-06 -0.0512767 0)
(8.30028e-05 -0.0512958 0)
(-1.49008e-05 -0.0514488 0)
(-6.56711e-05 -0.051265 0)
(3.97338e-05 -0.0513108 0)
(-7.60103e-06 -0.051277 0)
(8.2539e-05 -0.0512958 0)
(-1.47758e-05 -0.0514482 0)
(-6.53172e-05 -0.0512652 0)
(3.94648e-05 -0.0513109 0)
(-7.56649e-06 -0.0512773 0)
(8.20731e-05 -0.0512958 0)
(-1.46513e-05 -0.0514476 0)
(-6.49613e-05 -0.0512654 0)
(3.91969e-05 -0.051311 0)
(-7.53252e-06 -0.0512775 0)
(8.16054e-05 -0.0512958 0)
(-1.45272e-05 -0.051447 0)
(-6.46035e-05 -0.0512657 0)
(3.893e-05 -0.0513111 0)
(-7.49911e-06 -0.0512778 0)
(8.11358e-05 -0.0512958 0)
(-1.44035e-05 -0.0514464 0)
(-6.42437e-05 -0.0512659 0)
(3.86641e-05 -0.0513112 0)
(-7.46624e-06 -0.0512781 0)
(8.06644e-05 -0.0512958 0)
(-1.42803e-05 -0.0514458 0)
(-6.38821e-05 -0.0512661 0)
(3.83993e-05 -0.0513113 0)
(-7.43388e-06 -0.0512783 0)
(8.01911e-05 -0.0512958 0)
(-1.41574e-05 -0.0514453 0)
(-6.35186e-05 -0.0512663 0)
(3.81354e-05 -0.0513114 0)
(-7.40202e-06 -0.0512786 0)
(7.97161e-05 -0.0512959 0)
(-1.4035e-05 -0.0514447 0)
(-6.31532e-05 -0.0512665 0)
(3.78725e-05 -0.0513115 0)
(-7.37063e-06 -0.0512789 0)
(7.92394e-05 -0.0512959 0)
(-1.3913e-05 -0.0514441 0)
(-6.27861e-05 -0.0512667 0)
(3.76105e-05 -0.0513116 0)
(-7.33969e-06 -0.0512792 0)
(7.8761e-05 -0.0512959 0)
(-1.37915e-05 -0.0514435 0)
(-6.24173e-05 -0.051267 0)
(3.73495e-05 -0.0513117 0)
(-7.30919e-06 -0.0512794 0)
(7.82809e-05 -0.0512959 0)
(-1.36704e-05 -0.0514429 0)
(-6.20467e-05 -0.0512672 0)
(3.70893e-05 -0.0513118 0)
(-7.27911e-06 -0.0512797 0)
(7.77992e-05 -0.0512959 0)
(-1.35497e-05 -0.0514423 0)
(-6.16744e-05 -0.0512674 0)
(3.68301e-05 -0.0513119 0)
(-7.24941e-06 -0.05128 0)
(7.73159e-05 -0.0512959 0)
(-1.34294e-05 -0.0514418 0)
(-6.13005e-05 -0.0512676 0)
(3.65718e-05 -0.051312 0)
(-7.22009e-06 -0.0512802 0)
(7.68311e-05 -0.0512959 0)
(-1.33096e-05 -0.0514412 0)
(-6.0925e-05 -0.0512678 0)
(3.63143e-05 -0.0513121 0)
(-7.19112e-06 -0.0512805 0)
(7.63447e-05 -0.0512959 0)
(-1.31902e-05 -0.0514406 0)
(-6.0548e-05 -0.051268 0)
(3.60576e-05 -0.0513122 0)
(-7.16249e-06 -0.0512807 0)
(7.58569e-05 -0.0512959 0)
(-1.30712e-05 -0.05144 0)
(-6.01694e-05 -0.0512682 0)
(3.58018e-05 -0.0513123 0)
(-7.13416e-06 -0.051281 0)
(7.53677e-05 -0.0512959 0)
(-1.29527e-05 -0.0514395 0)
(-5.97892e-05 -0.0512684 0)
(3.55468e-05 -0.0513124 0)
(-7.10613e-06 -0.0512813 0)
(7.4877e-05 -0.0512959 0)
(-1.28346e-05 -0.0514389 0)
(-5.94076e-05 -0.0512686 0)
(3.52926e-05 -0.0513125 0)
(-7.07837e-06 -0.0512815 0)
(7.4385e-05 -0.0512959 0)
(-1.2717e-05 -0.0514383 0)
(-5.90246e-05 -0.0512688 0)
(3.50391e-05 -0.0513126 0)
(-7.05085e-06 -0.0512818 0)
(7.38916e-05 -0.0512959 0)
(-1.25998e-05 -0.0514378 0)
(-5.86402e-05 -0.051269 0)
(3.47864e-05 -0.0513127 0)
(-7.02357e-06 -0.0512821 0)
(7.33969e-05 -0.0512959 0)
(-1.2483e-05 -0.0514372 0)
(-5.82544e-05 -0.0512692 0)
(3.45345e-05 -0.0513128 0)
(-6.9965e-06 -0.0512823 0)
(7.2901e-05 -0.0512959 0)
(-1.23667e-05 -0.0514366 0)
(-5.78673e-05 -0.0512694 0)
(3.42832e-05 -0.0513129 0)
(-6.96962e-06 -0.0512826 0)
(7.24038e-05 -0.0512959 0)
(-1.22508e-05 -0.0514361 0)
(-5.74789e-05 -0.0512696 0)
(3.40327e-05 -0.051313 0)
(-6.94291e-06 -0.0512828 0)
(7.19055e-05 -0.0512959 0)
(-1.21354e-05 -0.0514355 0)
(-5.70892e-05 -0.0512698 0)
(3.37828e-05 -0.0513131 0)
(-6.91635e-06 -0.0512831 0)
(7.1406e-05 -0.0512959 0)
(-1.20205e-05 -0.051435 0)
(-5.66983e-05 -0.05127 0)
(3.35336e-05 -0.0513132 0)
(-6.88991e-06 -0.0512834 0)
(7.09054e-05 -0.0512959 0)
(-1.19059e-05 -0.0514344 0)
(-5.63062e-05 -0.0512702 0)
(3.32851e-05 -0.0513133 0)
(-6.86359e-06 -0.0512836 0)
(7.04037e-05 -0.0512959 0)
(-1.17919e-05 -0.0514338 0)
(-5.59129e-05 -0.0512704 0)
(3.30372e-05 -0.0513133 0)
(-6.83735e-06 -0.0512839 0)
(6.99009e-05 -0.051296 0)
(-1.16782e-05 -0.0514333 0)
(-5.55185e-05 -0.0512706 0)
(3.27899e-05 -0.0513134 0)
(-6.81118e-06 -0.0512841 0)
(6.93971e-05 -0.051296 0)
(-1.15651e-05 -0.0514327 0)
(-5.5123e-05 -0.0512708 0)
(3.25431e-05 -0.0513135 0)
(-6.78506e-06 -0.0512844 0)
(6.88924e-05 -0.051296 0)
(-1.14523e-05 -0.0514322 0)
(-5.47265e-05 -0.051271 0)
(3.2297e-05 -0.0513136 0)
(-6.75897e-06 -0.0512846 0)
(6.83867e-05 -0.051296 0)
(-1.13401e-05 -0.0514317 0)
(-5.4329e-05 -0.0512712 0)
(3.20514e-05 -0.0513137 0)
(-6.73289e-06 -0.0512849 0)
(6.788e-05 -0.051296 0)
(-1.12283e-05 -0.0514311 0)
(-5.39304e-05 -0.0512714 0)
(3.18063e-05 -0.0513138 0)
(-6.70679e-06 -0.0512851 0)
(6.73725e-05 -0.051296 0)
(-1.11169e-05 -0.0514306 0)
(-5.35309e-05 -0.0512716 0)
(3.15617e-05 -0.0513139 0)
(-6.68066e-06 -0.0512854 0)
(6.68642e-05 -0.051296 0)
(-1.1006e-05 -0.05143 0)
(-5.31305e-05 -0.0512718 0)
(3.13177e-05 -0.051314 0)
(-6.65448e-06 -0.0512856 0)
(6.6355e-05 -0.051296 0)
(-1.08955e-05 -0.0514295 0)
(-5.27292e-05 -0.051272 0)
(3.10741e-05 -0.0513141 0)
(-6.62822e-06 -0.0512859 0)
(6.58451e-05 -0.051296 0)
(-1.07855e-05 -0.051429 0)
(-5.2327e-05 -0.0512722 0)
(3.0831e-05 -0.0513142 0)
(-6.60188e-06 -0.0512861 0)
(6.53344e-05 -0.051296 0)
(-1.0676e-05 -0.0514284 0)
(-5.19241e-05 -0.0512723 0)
(3.05883e-05 -0.0513143 0)
(-6.57542e-06 -0.0512864 0)
(6.48231e-05 -0.051296 0)
(-1.05669e-05 -0.0514279 0)
(-5.15203e-05 -0.0512725 0)
(3.0346e-05 -0.0513144 0)
(-6.54883e-06 -0.0512866 0)
(6.4311e-05 -0.051296 0)
(-1.04583e-05 -0.0514274 0)
(-5.11158e-05 -0.0512727 0)
(3.01042e-05 -0.0513145 0)
(-6.52209e-06 -0.0512868 0)
(6.37983e-05 -0.051296 0)
(-1.03501e-05 -0.0514269 0)
(-5.07105e-05 -0.0512729 0)
(2.98627e-05 -0.0513146 0)
(-6.49517e-06 -0.0512871 0)
(6.3285e-05 -0.051296 0)
(-1.02424e-05 -0.0514264 0)
(-5.03046e-05 -0.0512731 0)
(2.96216e-05 -0.0513147 0)
(-6.46807e-06 -0.0512873 0)
(6.27711e-05 -0.051296 0)
(-1.01352e-05 -0.0514258 0)
(-4.9898e-05 -0.0512733 0)
(2.93808e-05 -0.0513148 0)
(-6.44075e-06 -0.0512876 0)
(6.22567e-05 -0.051296 0)
(-1.00284e-05 -0.0514253 0)
(-4.94908e-05 -0.0512734 0)
(2.91403e-05 -0.0513148 0)
(-6.4132e-06 -0.0512878 0)
(6.17418e-05 -0.051296 0)
(-9.92201e-06 -0.0514248 0)
(-4.9083e-05 -0.0512736 0)
(2.89002e-05 -0.0513149 0)
(-6.3854e-06 -0.051288 0)
(6.12264e-05 -0.051296 0)
(-9.81613e-06 -0.0514243 0)
(-4.86747e-05 -0.0512738 0)
(2.86603e-05 -0.051315 0)
(-6.35733e-06 -0.0512883 0)
(6.07105e-05 -0.051296 0)
(-9.71071e-06 -0.0514238 0)
(-4.82658e-05 -0.051274 0)
(2.84207e-05 -0.0513151 0)
(-6.32897e-06 -0.0512885 0)
(6.01942e-05 -0.051296 0)
(-9.60575e-06 -0.0514233 0)
(-4.78564e-05 -0.0512741 0)
(2.81813e-05 -0.0513152 0)
(-6.30031e-06 -0.0512887 0)
(5.96776e-05 -0.051296 0)
(-9.50124e-06 -0.0514228 0)
(-4.74466e-05 -0.0512743 0)
(2.79422e-05 -0.0513153 0)
(-6.27131e-06 -0.051289 0)
(5.91606e-05 -0.051296 0)
(-9.39719e-06 -0.0514223 0)
(-4.70364e-05 -0.0512745 0)
(2.77033e-05 -0.0513154 0)
(-6.24197e-06 -0.0512892 0)
(5.86433e-05 -0.051296 0)
(-9.2936e-06 -0.0514218 0)
(-4.66257e-05 -0.0512747 0)
(2.74646e-05 -0.0513155 0)
(-6.21225e-06 -0.0512894 0)
(5.81257e-05 -0.0512961 0)
(-9.19047e-06 -0.0514213 0)
(-4.62147e-05 -0.0512748 0)
(2.7226e-05 -0.0513156 0)
(-6.18216e-06 -0.0512897 0)
(5.76078e-05 -0.0512961 0)
(-9.08779e-06 -0.0514208 0)
(-4.58033e-05 -0.051275 0)
(2.69876e-05 -0.0513156 0)
(-6.15165e-06 -0.0512899 0)
(5.70897e-05 -0.0512961 0)
(-8.98557e-06 -0.0514203 0)
(-4.53917e-05 -0.0512752 0)
(2.67493e-05 -0.0513157 0)
(-6.12072e-06 -0.0512901 0)
(5.65715e-05 -0.0512961 0)
(-8.88381e-06 -0.0514198 0)
(-4.49798e-05 -0.0512753 0)
(2.65111e-05 -0.0513158 0)
(-6.08935e-06 -0.0512904 0)
(5.6053e-05 -0.0512961 0)
(-8.7825e-06 -0.0514193 0)
(-4.45676e-05 -0.0512755 0)
(2.6273e-05 -0.0513159 0)
(-6.05751e-06 -0.0512906 0)
(5.55344e-05 -0.0512961 0)
(-8.68165e-06 -0.0514189 0)
(-4.41552e-05 -0.0512757 0)
(2.6035e-05 -0.051316 0)
(-6.0252e-06 -0.0512908 0)
(5.50158e-05 -0.0512961 0)
(-8.58125e-06 -0.0514184 0)
(-4.37427e-05 -0.0512758 0)
(2.5797e-05 -0.0513161 0)
(-5.99238e-06 -0.051291 0)
(5.4497e-05 -0.0512961 0)
(-8.48131e-06 -0.0514179 0)
(-4.333e-05 -0.051276 0)
(2.5559e-05 -0.0513162 0)
(-5.95904e-06 -0.0512912 0)
(5.39782e-05 -0.0512961 0)
(-8.38182e-06 -0.0514174 0)
(-4.29171e-05 -0.0512762 0)
(2.53211e-05 -0.0513162 0)
(-5.92516e-06 -0.0512915 0)
(5.34594e-05 -0.0512961 0)
(-8.28279e-06 -0.051417 0)
(-4.25042e-05 -0.0512763 0)
(2.50831e-05 -0.0513163 0)
(-5.89073e-06 -0.0512917 0)
(5.29406e-05 -0.0512961 0)
(-8.1842e-06 -0.0514165 0)
(-4.20913e-05 -0.0512765 0)
(2.48452e-05 -0.0513164 0)
(-5.85572e-06 -0.0512919 0)
(5.24219e-05 -0.0512961 0)
(-8.08607e-06 -0.0514161 0)
(-4.16783e-05 -0.0512767 0)
(2.46071e-05 -0.0513165 0)
(-5.82011e-06 -0.0512921 0)
(5.19032e-05 -0.0512961 0)
(-7.98839e-06 -0.0514156 0)
(-4.12653e-05 -0.0512768 0)
(2.4369e-05 -0.0513166 0)
(-5.78389e-06 -0.0512923 0)
(5.13847e-05 -0.0512961 0)
(-7.89116e-06 -0.0514151 0)
(-4.08523e-05 -0.051277 0)
(2.41308e-05 -0.0513167 0)
(-5.74704e-06 -0.0512925 0)
(5.08662e-05 -0.0512961 0)
(-7.79437e-06 -0.0514147 0)
(-4.04394e-05 -0.0512771 0)
(2.38924e-05 -0.0513167 0)
(-5.70953e-06 -0.0512927 0)
(5.03479e-05 -0.0512961 0)
(-7.69804e-06 -0.0514142 0)
(-4.00266e-05 -0.0512773 0)
(2.3654e-05 -0.0513168 0)
(-5.67136e-06 -0.0512929 0)
(4.98298e-05 -0.0512961 0)
(-7.60215e-06 -0.0514138 0)
(-3.96139e-05 -0.0512774 0)
(2.34154e-05 -0.0513169 0)
(-5.6325e-06 -0.0512932 0)
(4.9312e-05 -0.0512961 0)
(-7.5067e-06 -0.0514133 0)
(-3.92014e-05 -0.0512776 0)
(2.31766e-05 -0.051317 0)
(-5.59293e-06 -0.0512934 0)
(4.87943e-05 -0.0512961 0)
(-7.4117e-06 -0.0514129 0)
(-3.8789e-05 -0.0512777 0)
(2.29376e-05 -0.0513171 0)
(-5.55264e-06 -0.0512936 0)
(4.8277e-05 -0.0512961 0)
(-7.31714e-06 -0.0514125 0)
(-3.83768e-05 -0.0512779 0)
(2.26983e-05 -0.0513171 0)
(-5.5116e-06 -0.0512938 0)
(4.77599e-05 -0.0512961 0)
(-7.22302e-06 -0.051412 0)
(-3.79649e-05 -0.051278 0)
(2.24589e-05 -0.0513172 0)
(-5.46979e-06 -0.051294 0)
(4.72432e-05 -0.0512961 0)
(-7.12934e-06 -0.0514116 0)
(-3.75533e-05 -0.0512782 0)
(2.22191e-05 -0.0513173 0)
(-5.42721e-06 -0.0512942 0)
(4.67268e-05 -0.0512961 0)
(-7.03609e-06 -0.0514112 0)
(-3.71419e-05 -0.0512783 0)
(2.19791e-05 -0.0513174 0)
(-5.38382e-06 -0.0512944 0)
(4.62108e-05 -0.0512962 0)
(-6.94329e-06 -0.0514108 0)
(-3.67309e-05 -0.0512785 0)
(2.17388e-05 -0.0513174 0)
(-5.33962e-06 -0.0512946 0)
(4.56952e-05 -0.0512962 0)
(-6.85091e-06 -0.0514103 0)
(-3.63203e-05 -0.0512786 0)
(2.14981e-05 -0.0513175 0)