/*--------------------------------*- C++ -*----------------------------------*\
| =========                 |                                                 |
| \\      /  F ield         | OpenFOAM: The Open Source CFD Toolbox           |
|  \\    /   O peration     | Version:  2.4.0                                 |
|   \\  /    A nd           | Web:      www.OpenFOAM.org                      |
|    \\/     M anipulation  |                                                 |
\*---------------------------------------------------------------------------*/
FoamFile
{
    version     2.0;
    format      ascii;
    class       volScalarField;
    location    "0.9";
    object      T;
}
// * * * * * * * * * * * * * * * * * * * * * * * * * * * * * * * * * * * * * //

dimensions      [0 0 0 1 0 0 0];

internalField   nonuniform List<scalar> 
125
(
293.202
293.202
293.202
293.202
293.202
293.607
293.607
293.607
293.607
293.607
294.015
294.015
294.015
294.015
294.015
294.422
294.422
294.422
294.422
294.422
294.829
294.829
294.829
294.829
294.829
295.233
295.233
295.233
295.233
295.233
295.634
295.634
295.634
295.634
295.634
296.033
296.033
296.033
296.033
296.033
296.431
296.431
296.431
296.431
296.431
296.828
296.828
296.828
296.828
296.828
297.227
297.227
297.227
297.227
297.227
297.884
297.884
297.884
297.884
297.884
297.885
297.885
297.885
297.885
297.885
297.885
297.885
297.885
297.885
297.885
297.886
297.886
297.886
297.886
297.886
297.888
297.888
297.888
297.888
297.888
297.889
297.889
297.889
297.889
297.889
297.891
297.891
297.891
297.891
297.891
297.893
297.893
297.893
297.893
297.893
297.896
297.896
297.896
297.896
297.896
297.898
297.898
297.898
297.898
297.898
297.901
297.901
297.901
297.901
297.901
297.904
297.904
297.904
297.904
297.904
297.907
297.907
297.907
297.907
297.907
297.911
297.911
297.911
297.911
297.911
)
;

boundaryField
{
    BotWall
    {
        type            fixedValue;
        value           uniform 293;
    }
    FreeStream
    {
        type            fixedValue;
        value           nonuniform 0();
    }
    FrontNBack
    {
        type            empty;
    }
    LeftSide
    {
        type            symmetryPlane;
    }
    RightSide
    {
        type            symmetryPlane;
    }
    procBoundary0to1
    {
        type            processor;
        value           nonuniform List<scalar> 5(297.914 297.914 297.914 297.914 297.914);
    }
}


// ************************************************************************* //
