/*--------------------------------*- C++ -*----------------------------------*\
| =========                 |                                                 |
| \\      /  F ield         | OpenFOAM: The Open Source CFD Toolbox           |
|  \\    /   O peration     | Version:  2.4.0                                 |
|   \\  /    A nd           | Web:      www.OpenFOAM.org                      |
|    \\/     M anipulation  |                                                 |
\*---------------------------------------------------------------------------*/
FoamFile
{
    version     2.0;
    format      ascii;
    class       volVectorField;
    location    "0.9";
    object      U;
}
// * * * * * * * * * * * * * * * * * * * * * * * * * * * * * * * * * * * * * //

dimensions      [0 1 -1 0 0 0 0];

internalField   nonuniform List<vector> 
125
(
(1.42477e-10 -3.727e-09 0)
(2.09697e-10 -3.75873e-09 0)
(7.02607e-11 -3.75813e-09 0)
(-2.33848e-10 -3.75849e-09 0)
(-2.35855e-10 -3.72711e-09 0)
(4.26097e-10 1.0611e-08 0)
(6.26548e-10 1.07011e-08 0)
(2.10635e-10 1.07062e-08 0)
(-6.99675e-10 1.07047e-08 0)
(-7.06761e-10 1.06092e-08 0)
(7.19481e-10 -1.28457e-08 0)
(1.05229e-09 -1.29671e-08 0)
(3.51294e-10 -1.29507e-08 0)
(-1.17537e-09 -1.29572e-08 0)
(-1.18872e-09 -1.28507e-08 0)
(1.00883e-09 2.63118e-08 0)
(1.47282e-09 2.6537e-08 0)
(4.91984e-10 2.65682e-08 0)
(-1.64705e-09 2.65575e-08 0)
(-1.66793e-09 2.63014e-08 0)
(1.31342e-09 -5.54056e-08 0)
(1.90733e-09 -5.56092e-08 0)
(6.32813e-10 -5.55579e-08 0)
(-2.13359e-09 -5.5579e-08 0)
(-2.16348e-09 -5.54217e-08 0)
(1.61066e-09 -6.47824e-08 0)
(2.33361e-09 -6.44456e-08 0)
(7.74228e-10 -6.43759e-08 0)
(-2.61302e-09 -6.44055e-08 0)
(-2.65353e-09 -6.48043e-08 0)
(1.9264e-09 -1.25653e-07 0)
(2.77764e-09 -1.25846e-07 0)
(9.16602e-10 -1.2574e-07 0)
(-3.11152e-09 -1.25785e-07 0)
(-3.16452e-09 -1.25681e-07 0)
(2.23506e-09 7.04953e-07 0)
(3.21383e-09 7.05853e-07 0)
(1.05999e-09 7.06059e-07 0)
(-3.6037e-09 7.06013e-07 0)
(-3.67119e-09 7.04893e-07 0)
(2.56792e-09 2.69662e-06 0)
(3.67438e-09 2.69734e-06 0)
(1.20567e-09 2.69778e-06 0)
(-4.12198e-09 2.69775e-06 0)
(-4.20635e-09 2.69645e-06 0)
(2.89777e-09 1.5282e-06 0)
(4.12976e-09 1.52921e-06 0)
(1.35271e-09 1.52963e-06 0)
(-4.63933e-09 1.52956e-06 0)
(-4.74439e-09 1.52796e-06 0)
(3.23498e-09 -1.31636e-05 0)
(4.5942e-09 -1.31664e-05 0)
(1.50042e-09 -1.31672e-05 0)
(-5.16656e-09 -1.31675e-05 0)
(-5.29165e-09 -1.31636e-05 0)
(3.6603e-09 -0.000102021 0)
(5.17486e-09 -0.000102042 0)
(1.68122e-09 -0.000102051 0)
(-5.83502e-09 -0.000102052 0)
(-5.98553e-09 -0.000102017 0)
(3.82843e-09 -0.00162339 0)
(5.40948e-09 -0.00162342 0)
(1.75972e-09 -0.00162343 0)
(-6.10457e-09 -0.00162344 0)
(-6.26695e-09 -0.00162339 0)
(9.18768e-10 -0.00360816 0)
(1.93042e-09 -0.00360827 0)
(1.2826e-09 -0.0036083 0)
(-4.49128e-09 -0.00360831 0)
(-4.6731e-09 -0.00360814 0)
(-2.26317e-09 -0.00193322 0)
(-1.609e-09 -0.00193332 0)
(1.10396e-09 -0.00193335 0)
(-2.97441e-09 -0.00193335 0)
(-3.26305e-09 -0.00193321 0)
(-4.39513e-09 -0.00181256 0)
(-4.02196e-09 -0.00181261 0)
(1.07497e-09 -0.00181263 0)
(-2.53392e-09 -0.00181263 0)
(-3.00358e-09 -0.00181254 0)
(-5.93054e-09 -0.00187039 0)
(-5.78742e-09 -0.00187043 0)
(1.15961e-09 -0.00187045 0)
(-2.6851e-09 -0.00187046 0)
(-3.39966e-09 -0.00187038 0)
(-7.13669e-09 -0.00191563 0)
(-7.17854e-09 -0.00191569 0)
(1.34663e-09 -0.00191571 0)
(-3.14359e-09 -0.00191571 0)
(-4.16181e-09 -0.00191562 0)
(-8.03207e-09 -0.00192234 0)
(-8.21186e-09 -0.0019224 0)
(1.63296e-09 -0.00192242 0)
(-3.88949e-09 -0.00192243 0)
(-5.26542e-09 -0.00192233 0)
(-8.57346e-09 -0.00191955 0)
(-8.84441e-09 -0.00191961 0)
(2.01243e-09 -0.00191963 0)
(-4.96104e-09 -0.00191963 0)
(-6.74311e-09 -0.00191953 0)
(-8.75541e-09 -0.00191776 0)
(-9.07281e-09 -0.00191782 0)
(2.47633e-09 -0.00191784 0)
(-6.35632e-09 -0.00191784 0)
(-8.58661e-09 -0.00191775 0)
(-8.59994e-09 -0.00191748 0)
(-8.92193e-09 -0.00191754 0)
(3.01468e-09 -0.00191756 0)
(-8.04548e-09 -0.00191756 0)
(-1.07593e-08 -0.00191747 0)
(-8.13501e-09 -0.0019176 0)
(-8.42301e-09 -0.00191766 0)
(3.61673e-09 -0.00191768 0)
(-9.99137e-09 -0.00191768 0)
(-1.32169e-08 -0.00191759 0)
(-7.38807e-09 -0.00191767 0)
(-7.60715e-09 -0.00191773 0)
(4.27106e-09 -0.00191775 0)
(-1.21602e-08 -0.00191775 0)
(-1.59183e-08 -0.00191766 0)
(-6.3871e-09 -0.00191768 0)
(-6.50635e-09 -0.00191774 0)
(4.9658e-09 -0.00191776 0)
(-1.45136e-08 -0.00191776 0)
(-1.88175e-08 -0.00191767 0)
)
;

boundaryField
{
    BotWall
    {
        type            fixedValue;
        value           uniform (0 0 0);
    }
    FreeStream
    {
        type            zeroGradient;
    }
    FrontNBack
    {
        type            empty;
    }
    LeftSide
    {
        type            symmetryPlane;
    }
    RightSide
    {
        type            symmetryPlane;
    }
    procBoundary0to1
    {
        type            processor;
        value           nonuniform List<vector> 5((-5.16162e-09 -0.00191768 0) (-5.15451e-09 -0.00191774 0) (5.68869e-09 -0.00191776 0) (-1.70164e-08 -0.00191776 0) (-2.18719e-08 -0.00191767 0));
    }
}


// ************************************************************************* //
