/*--------------------------------*- C++ -*----------------------------------*\
| =========                 |                                                 |
| \\      /  F ield         | OpenFOAM: The Open Source CFD Toolbox           |
|  \\    /   O peration     | Version:  2.4.0                                 |
|   \\  /    A nd           | Web:      www.OpenFOAM.org                      |
|    \\/     M anipulation  |                                                 |
\*---------------------------------------------------------------------------*/
FoamFile
{
    version     2.0;
    format      ascii;
    class       volScalarField;
    location    "3";
    object      H;
}
// * * * * * * * * * * * * * * * * * * * * * * * * * * * * * * * * * * * * * //

dimensions      [0 2 -2 0 0 0 0];

internalField   nonuniform List<scalar> 
125
(
-19.0142
-19.0026
-18.9894
-18.9977
-19.0163
-19.1391
-19.1276
-19.1146
-19.1229
-19.1412
-19.2576
-19.2463
-19.2335
-19.2416
-19.2596
-19.3696
-19.3583
-19.3458
-19.3538
-19.3715
-19.4746
-19.4635
-19.4512
-19.4591
-19.4765
-19.5725
-19.5615
-19.5494
-19.5571
-19.5743
-19.6629
-19.6521
-19.6402
-19.6478
-19.6647
-19.7457
-19.735
-19.7232
-19.7308
-19.7474
-19.8205
-19.8099
-19.7984
-19.8058
-19.8221
-19.887
-19.8766
-19.8653
-19.8726
-19.8886
-19.9451
-19.9347
-19.9237
-19.9309
-19.9466
-19.9943
-19.9842
-19.9733
-19.9804
-19.9958
-20.0346
-20.0245
-20.0139
-20.0209
-20.036
-20.0655
-20.0556
-20.0452
-20.052
-20.0669
-20.0869
-20.0771
-20.0669
-20.0736
-20.0882
-20.0984
-20.0888
-20.0788
-20.0854
-20.0997
-20.0999
-20.0904
-20.0806
-20.0871
-20.1011
-20.091
-20.0817
-20.072
-20.0784
-20.0921
-20.0715
-20.0623
-20.0529
-20.0592
-20.0726
-20.0412
-20.0322
-20.0229
-20.0291
-20.0423
-19.9998
-19.9909
-19.9819
-19.9879
-20.0008
-19.9471
-19.9384
-19.9296
-19.9355
-19.9481
-19.8829
-19.8744
-19.8657
-19.8715
-19.8839
-19.807
-19.7986
-19.7901
-19.7958
-19.8079
-19.719
-19.7108
-19.7025
-19.7081
-19.7199
)
;

boundaryField
{
    BotWall
    {
        type            zeroGradient;
    }
    FreeStream
    {
        type            zeroGradient;
    }
    FrontNBack
    {
        type            empty;
    }
    LeftSide
    {
        type            symmetryPlane;
    }
    RightSide
    {
        type            symmetryPlane;
    }
    procBoundary1to0
    {
        type            processor;
        value           nonuniform List<scalar> 5(-18.8817 -18.87 -18.8566 -18.865 -18.8839);
    }
    procBoundary1to2
    {
        type            processor;
        value           nonuniform List<scalar> 5(-19.6174 -19.6093 -19.6012 -19.6067 -19.6182);
    }
}


// ************************************************************************* //
