/*--------------------------------*- C++ -*----------------------------------*\
| =========                 |                                                 |
| \\      /  F ield         | OpenFOAM: The Open Source CFD Toolbox           |
|  \\    /   O peration     | Version:  2.4.0                                 |
|   \\  /    A nd           | Web:      www.OpenFOAM.org                      |
|    \\/     M anipulation  |                                                 |
\*---------------------------------------------------------------------------*/
FoamFile
{
    version     2.0;
    format      ascii;
    class       volScalarField;
    location    "3";
    object      p;
}
// * * * * * * * * * * * * * * * * * * * * * * * * * * * * * * * * * * * * * //

dimensions      [1 -1 -2 0 0 0 0];

internalField   nonuniform List<scalar> 
125
(
-0.0144171
-0.0144187
-0.0144193
-0.0144199
-0.014421
-0.0150486
-0.0150501
-0.0150507
-0.0150513
-0.0150524
-0.0157047
-0.0157062
-0.0157068
-0.0157074
-0.0157085
-0.0163724
-0.0163738
-0.0163744
-0.016375
-0.016376
-0.0170468
-0.0170482
-0.0170488
-0.0170494
-0.0170504
-0.017728
-0.0177294
-0.01773
-0.0177306
-0.0177316
-0.0184167
-0.0184181
-0.0184187
-0.0184193
-0.0184202
-0.0191131
-0.0191145
-0.0191151
-0.0191156
-0.0191166
-0.0198173
-0.0198186
-0.0198192
-0.0198198
-0.0198207
-0.0205294
-0.0205307
-0.0205313
-0.0205318
-0.0205327
-0.0212494
-0.0212506
-0.0212512
-0.0212518
-0.0212527
-0.0219774
-0.0219786
-0.0219792
-0.0219798
-0.0219807
-0.0227136
-0.0227148
-0.0227154
-0.0227159
-0.0227168
-0.023458
-0.0234591
-0.0234597
-0.0234603
-0.0234611
-0.0242107
-0.0242118
-0.0242124
-0.0242129
-0.0242137
-0.0249718
-0.0249728
-0.0249734
-0.024974
-0.0249748
-0.0257413
-0.0257424
-0.025743
-0.0257435
-0.0257443
-0.0265195
-0.0265205
-0.0265211
-0.0265216
-0.0265224
-0.0273063
-0.0273073
-0.0273079
-0.0273085
-0.0273092
-0.028102
-0.028103
-0.0281035
-0.028104
-0.0281048
-0.0289065
-0.0289074
-0.028908
-0.0289085
-0.0289092
-0.02972
-0.0297209
-0.0297214
-0.029722
-0.0297226
-0.0305425
-0.0305434
-0.030544
-0.0305445
-0.0305451
-0.0313743
-0.0313751
-0.0313757
-0.0313762
-0.0313768
-0.0322153
-0.0322161
-0.0322167
-0.0322172
-0.0322178
)
;

boundaryField
{
    BotWall
    {
        type            calculated;
        value           nonuniform 0();
    }
    FreeStream
    {
        type            calculated;
        value           nonuniform 0();
    }
    FrontNBack
    {
        type            empty;
    }
    LeftSide
    {
        type            symmetryPlane;
    }
    RightSide
    {
        type            symmetryPlane;
    }
    procBoundary1to0
    {
        type            processor;
        value           nonuniform List<scalar> 5(-0.0138087 -0.0138103 -0.0138109 -0.0138115 -0.0138126);
    }
    procBoundary1to2
    {
        type            processor;
        value           nonuniform List<scalar> 5(-0.0330657 -0.0330665 -0.033067 -0.0330675 -0.0330681);
    }
}


// ************************************************************************* //
