/*--------------------------------*- C++ -*----------------------------------*\
| =========                 |                                                 |
| \\      /  F ield         | OpenFOAM: The Open Source CFD Toolbox           |
|  \\    /   O peration     | Version:  2.4.0                                 |
|   \\  /    A nd           | Web:      www.OpenFOAM.org                      |
|    \\/     M anipulation  |                                                 |
\*---------------------------------------------------------------------------*/
FoamFile
{
    version     2.0;
    format      ascii;
    class       volScalarField;
    location    "3";
    object      p_rgh;
}
// * * * * * * * * * * * * * * * * * * * * * * * * * * * * * * * * * * * * * //

dimensions      [1 -1 -2 0 0 0 0];

internalField   nonuniform List<scalar> 
125
(
-2.59309e-05
-2.74814e-05
-2.80896e-05
-2.86994e-05
-2.97879e-05
-5.82766e-06
-7.34143e-06
-7.95135e-06
-8.55778e-06
-9.62624e-06
-3.16823e-06
-4.64516e-06
-5.25511e-06
-5.85882e-06
-6.9086e-06
-4.6291e-06
-6.07241e-06
-6.68225e-06
-7.28294e-06
-8.31132e-06
-5.4534e-06
-6.86448e-06
-7.47415e-06
-8.07149e-06
-9.07762e-06
-5.5833e-06
-6.96243e-06
-7.57169e-06
-8.16546e-06
-9.14972e-06
-5.55125e-06
-6.89866e-06
-7.50719e-06
-8.09724e-06
-9.06008e-06
-5.54491e-06
-6.86101e-06
-7.46848e-06
-8.05467e-06
-8.99641e-06
-5.56598e-06
-6.85125e-06
-7.45732e-06
-8.03952e-06
-8.96039e-06
-5.59317e-06
-6.84809e-06
-7.45244e-06
-8.0305e-06
-8.93076e-06
-5.61906e-06
-6.84411e-06
-7.44639e-06
-8.02019e-06
-8.90007e-06
-5.6436e-06
-6.83926e-06
-7.43913e-06
-8.00853e-06
-8.8683e-06
-5.66764e-06
-6.83437e-06
-7.43153e-06
-7.99639e-06
-8.8363e-06
-5.69147e-06
-6.82975e-06
-7.42386e-06
-7.98405e-06
-8.80435e-06
-5.71509e-06
-6.82539e-06
-7.41613e-06
-7.97152e-06
-8.77245e-06
-5.73847e-06
-6.82126e-06
-7.40832e-06
-7.95876e-06
-8.74058e-06
-5.7616e-06
-6.81733e-06
-7.4004e-06
-7.94576e-06
-8.70873e-06
-5.78446e-06
-6.8136e-06
-7.39237e-06
-7.93252e-06
-8.67688e-06
-5.80707e-06
-6.81008e-06
-7.38425e-06
-7.91905e-06
-8.64505e-06
-5.82942e-06
-6.80675e-06
-7.37603e-06
-7.90534e-06
-8.61322e-06
-5.85151e-06
-6.80362e-06
-7.36771e-06
-7.89139e-06
-8.58141e-06
-5.87335e-06
-6.80067e-06
-7.3593e-06
-7.87721e-06
-8.5496e-06
-5.89498e-06
-6.79788e-06
-7.3508e-06
-7.86277e-06
-8.5178e-06
-5.91641e-06
-6.79518e-06
-7.34221e-06
-7.84807e-06
-8.48577e-06
-5.93768e-06
-6.79258e-06
-7.33354e-06
-7.83305e-06
-8.45385e-06
)
;

boundaryField
{
    BotWall
    {
        type            fixedFluxPressure;
        gradient        nonuniform 0();
        value           nonuniform 0();
    }
    FreeStream
    {
        type            totalPressure;
        rho             rho;
        psi             none;
        gamma           1;
        p0              nonuniform 0();
        value           nonuniform 0();
    }
    FrontNBack
    {
        type            empty;
    }
    LeftSide
    {
        type            symmetryPlane;
    }
    RightSide
    {
        type            symmetryPlane;
    }
    procBoundary1to0
    {
        type            processor;
        value           nonuniform List<scalar> 5(-6.18753e-05 -6.34439e-05 -6.40456e-05 -6.46612e-05 -6.57916e-05);
    }
    procBoundary1to2
    {
        type            processor;
        value           nonuniform List<scalar> 5(-5.95883e-06 -6.79003e-06 -7.32481e-06 -7.81771e-06 -8.42181e-06);
    }
}


// ************************************************************************* //
