/*--------------------------------*- C++ -*----------------------------------*\
| =========                 |                                                 |
| \\      /  F ield         | OpenFOAM: The Open Source CFD Toolbox           |
|  \\    /   O peration     | Version:  2.4.0                                 |
|   \\  /    A nd           | Web:      www.OpenFOAM.org                      |
|    \\/     M anipulation  |                                                 |
\*---------------------------------------------------------------------------*/
FoamFile
{
    version     2.0;
    format      ascii;
    class       volVectorField;
    location    "3";
    object      U;
}
// * * * * * * * * * * * * * * * * * * * * * * * * * * * * * * * * * * * * * //

dimensions      [0 1 -1 0 0 0 0];

internalField   nonuniform List<vector> 
125
(
(3.74485e-08 -0.00121555 0)
(7.86544e-08 -0.00121556 0)
(1.51517e-08 -0.00121556 0)
(-8.67388e-08 -0.00121556 0)
(-5.98719e-08 -0.00121555 0)
(3.55254e-08 -0.00122012 0)
(7.47513e-08 -0.00122012 0)
(1.44156e-08 -0.00122013 0)
(-8.24957e-08 -0.00122013 0)
(-5.68369e-08 -0.00122012 0)
(3.36301e-08 -0.001219 0)
(7.09195e-08 -0.00121901 0)
(1.36982e-08 -0.00121901 0)
(-7.83384e-08 -0.00121901 0)
(-5.38677e-08 -0.001219 0)
(3.1783e-08 -0.00121806 0)
(6.71821e-08 -0.00121806 0)
(1.30005e-08 -0.00121807 0)
(-7.4289e-08 -0.00121806 0)
(-5.09844e-08 -0.00121806 0)
(2.99863e-08 -0.00121787 0)
(6.35427e-08 -0.00121787 0)
(1.23229e-08 -0.00121787 0)
(-7.03511e-08 -0.00121787 0)
(-4.81895e-08 -0.00121787 0)
(2.82375e-08 -0.00121792 0)
(5.99989e-08 -0.00121792 0)
(1.16653e-08 -0.00121792 0)
(-6.6522e-08 -0.00121792 0)
(-4.54798e-08 -0.00121792 0)
(2.65353e-08 -0.00121796 0)
(5.65495e-08 -0.00121796 0)
(1.10274e-08 -0.00121796 0)
(-6.28e-08 -0.00121796 0)
(-4.28533e-08 -0.00121796 0)
(2.48796e-08 -0.00121797 0)
(5.31941e-08 -0.00121797 0)
(1.04091e-08 -0.00121797 0)
(-5.91848e-08 -0.00121797 0)
(-4.03091e-08 -0.00121797 0)
(2.32706e-08 -0.00121797 0)
(4.9933e-08 -0.00121796 0)
(9.81025e-09 -0.00121796 0)
(-5.5676e-08 -0.00121796 0)
(-3.78467e-08 -0.00121797 0)
(2.17084e-08 -0.00121797 0)
(4.6766e-08 -0.00121796 0)
(9.23053e-09 -0.00121796 0)
(-5.22732e-08 -0.00121796 0)
(-3.54653e-08 -0.00121797 0)
(2.01927e-08 -0.00121797 0)
(4.36931e-08 -0.00121796 0)
(8.66982e-09 -0.00121796 0)
(-4.89761e-08 -0.00121796 0)
(-3.31642e-08 -0.00121797 0)
(1.87237e-08 -0.00121797 0)
(4.07139e-08 -0.00121796 0)
(8.12789e-09 -0.00121796 0)
(-4.5784e-08 -0.00121796 0)
(-3.09425e-08 -0.00121797 0)
(1.73011e-08 -0.00121797 0)
(3.78284e-08 -0.00121796 0)
(7.60454e-09 -0.00121796 0)
(-4.26964e-08 -0.00121796 0)
(-2.87992e-08 -0.00121797 0)
(1.59248e-08 -0.00121797 0)
(3.50361e-08 -0.00121796 0)
(7.09955e-09 -0.00121796 0)
(-3.97126e-08 -0.00121796 0)
(-2.67337e-08 -0.00121797 0)
(1.45947e-08 -0.00121797 0)
(3.23368e-08 -0.00121796 0)
(6.6127e-09 -0.00121796 0)
(-3.68319e-08 -0.00121796 0)
(-2.47448e-08 -0.00121797 0)
(1.33107e-08 -0.00121797 0)
(2.97301e-08 -0.00121796 0)
(6.14374e-09 -0.00121795 0)
(-3.40537e-08 -0.00121796 0)
(-2.28317e-08 -0.00121797 0)
(1.20725e-08 -0.00121797 0)
(2.72156e-08 -0.00121796 0)
(5.69246e-09 -0.00121795 0)
(-3.13771e-08 -0.00121796 0)
(-2.09934e-08 -0.00121797 0)
(1.08799e-08 -0.00121797 0)
(2.47928e-08 -0.00121796 0)
(5.25859e-09 -0.00121795 0)
(-2.88013e-08 -0.00121796 0)
(-1.9229e-08 -0.00121797 0)
(9.73275e-09 -0.00121797 0)
(2.24613e-08 -0.00121796 0)
(4.84189e-09 -0.00121795 0)
(-2.63255e-08 -0.00121796 0)
(-1.75374e-08 -0.00121797 0)
(8.63077e-09 -0.00121797 0)
(2.02204e-08 -0.00121796 0)
(4.4421e-09 -0.00121795 0)
(-2.39488e-08 -0.00121796 0)
(-1.59175e-08 -0.00121797 0)
(7.57369e-09 -0.00121797 0)
(1.80695e-08 -0.00121796 0)
(4.05897e-09 -0.00121795 0)
(-2.167e-08 -0.00121796 0)
(-1.43684e-08 -0.00121797 0)
(6.56118e-09 -0.00121797 0)
(1.60081e-08 -0.00121796 0)
(3.69221e-09 -0.00121795 0)
(-1.94884e-08 -0.00121796 0)
(-1.28888e-08 -0.00121797 0)
(5.59295e-09 -0.00121797 0)
(1.40353e-08 -0.00121796 0)
(3.34156e-09 -0.00121795 0)
(-1.74026e-08 -0.00121796 0)
(-1.14778e-08 -0.00121797 0)
(4.66852e-09 -0.00121797 0)
(1.21505e-08 -0.00121796 0)
(3.00678e-09 -0.00121795 0)
(-1.54119e-08 -0.00121796 0)
(-1.01343e-08 -0.00121797 0)
(3.78768e-09 -0.00121797 0)
(1.03528e-08 -0.00121796 0)
(2.68748e-09 -0.00121795 0)
(-1.35147e-08 -0.00121796 0)
(-8.85688e-09 -0.00121797 0)
)
;

boundaryField
{
    BotWall
    {
        type            fixedValue;
        value           nonuniform 0();
    }
    FreeStream
    {
        type            zeroGradient;
    }
    FrontNBack
    {
        type            empty;
    }
    LeftSide
    {
        type            symmetryPlane;
    }
    RightSide
    {
        type            symmetryPlane;
    }
    procBoundary1to0
    {
        type            processor;
        value           nonuniform List<vector> 5((3.93688e-08 -0.00119179 0) (8.26032e-08 -0.00119179 0) (1.59067e-08 -0.0011918 0) (-9.10499e-08 -0.00119179 0) (-6.29507e-08 -0.00119179 0));
    }
    procBoundary1to2
    {
        type            processor;
        value           nonuniform List<vector> 5((2.95005e-09 -0.00121797 0) (8.64138e-09 -0.00121796 0) (2.3834e-09 -0.00121795 0) (-1.17099e-08 -0.00121796 0) (-7.64457e-09 -0.00121797 0));
    }
}


// ************************************************************************* //
