/*--------------------------------*- C++ -*----------------------------------*\
| =========                 |                                                 |
| \\      /  F ield         | OpenFOAM: The Open Source CFD Toolbox           |
|  \\    /   O peration     | Version:  2.4.0                                 |
|   \\  /    A nd           | Web:      www.OpenFOAM.org                      |
|    \\/     M anipulation  |                                                 |
\*---------------------------------------------------------------------------*/
FoamFile
{
    version     2.0;
    format      ascii;
    class       volScalarField;
    location    "2.9";
    object      H;
}
// * * * * * * * * * * * * * * * * * * * * * * * * * * * * * * * * * * * * * //

dimensions      [0 2 -2 0 0 0 0];

internalField   nonuniform List<scalar> 
125
(
-44.5899
-44.5698
-44.5433
-44.5602
-44.5936
-43.7522
-43.7335
-43.7083
-43.7244
-43.7558
-42.8793
-42.8618
-42.8381
-42.8532
-42.8827
-41.973
-41.9567
-41.9345
-41.9486
-41.9762
-41.0351
-41.02
-40.9992
-41.0125
-41.0382
-40.0677
-40.0539
-40.0345
-40.0468
-40.0706
-39.073
-39.0603
-39.0423
-39.0538
-39.0757
-38.0532
-38.0416
-38.025
-38.0355
-38.0557
-37.0105
-37.0001
-36.9848
-36.9945
-37.0129
-35.9474
-35.9381
-35.9241
-35.9329
-35.9496
-34.8662
-34.8581
-34.8453
-34.8534
-34.8684
-33.7697
-33.7625
-33.7511
-33.7583
-33.7716
-32.6601
-32.654
-32.6438
-32.6502
-32.662
-31.5403
-31.5352
-31.526
-31.5317
-31.542
-30.4127
-30.4085
-30.4005
-30.4055
-30.4143
-29.2799
-29.2766
-29.2697
-29.274
-29.2814
-28.1446
-28.1421
-28.1362
-28.1399
-28.1459
-27.0093
-27.0076
-27.0027
-27.0057
-27.0105
-25.8766
-25.8757
-25.8716
-25.874
-25.8777
-24.7489
-24.7487
-24.7455
-24.7474
-24.7499
-23.6286
-23.6291
-23.6268
-23.6281
-23.6296
-22.5182
-22.5193
-22.5177
-22.5185
-22.5191
-21.4199
-21.4215
-21.4206
-21.421
-21.4207
-20.3358
-20.3379
-20.3376
-20.3376
-20.3365
-19.2679
-19.2704
-19.2707
-19.2703
-19.2685
)
;

boundaryField
{
    BotWall
    {
        type            zeroGradient;
    }
    FreeStream
    {
        type            zeroGradient;
    }
    FrontNBack
    {
        type            empty;
    }
    LeftSide
    {
        type            symmetryPlane;
    }
    RightSide
    {
        type            symmetryPlane;
    }
    procBoundary2to1
    {
        type            processor;
        value           nonuniform List<scalar> 5(-45.3854 -45.3642 -45.3361 -45.354 -45.3893);
    }
    procBoundary2to3
    {
        type            processor;
        value           nonuniform List<scalar> 5(-18.2193 -18.2223 -18.2231 -18.2223 -18.2199);
    }
}


// ************************************************************************* //
