/*--------------------------------*- C++ -*----------------------------------*\
| =========                 |                                                 |
| \\      /  F ield         | OpenFOAM: The Open Source CFD Toolbox           |
|  \\    /   O peration     | Version:  2.4.0                                 |
|   \\  /    A nd           | Web:      www.OpenFOAM.org                      |
|    \\/     M anipulation  |                                                 |
\*---------------------------------------------------------------------------*/
FoamFile
{
    version     2.0;
    format      ascii;
    class       surfaceScalarField;
    location    "2.9";
    object      phi;
}
// * * * * * * * * * * * * * * * * * * * * * * * * * * * * * * * * * * * * * //

dimensions      [0 3 -1 0 0 0 0];

internalField   nonuniform List<scalar> 
220
(
-1.56042e-16
-2.3857e-10
-8.32275e-17
-2.38579e-10
7.75241e-17
-2.38587e-10
1.09288e-16
-2.38581e-10
-2.3857e-10
-1.58042e-16
-2.38569e-10
-8.43191e-17
-2.3858e-10
7.83521e-17
-2.38587e-10
1.10586e-16
-2.38581e-10
-2.3857e-10
-1.59235e-16
-2.38569e-10
-8.4857e-17
-2.3858e-10
7.87332e-17
-2.38587e-10
1.11095e-16
-2.38581e-10
-2.3857e-10
-1.59632e-16
-2.38569e-10
-8.48516e-17
-2.3858e-10
7.86737e-17
-2.38588e-10
1.10833e-16
-2.38581e-10
-2.3857e-10
-1.59243e-16
-2.38569e-10
-8.43151e-17
-2.3858e-10
7.81817e-17
-2.38588e-10
1.09817e-16
-2.38581e-10
-2.3857e-10
-1.58084e-16
-2.38569e-10
-8.32623e-17
-2.3858e-10
7.7267e-17
-2.38588e-10
1.08072e-16
-2.38581e-10
-2.3857e-10
-1.56173e-16
-2.38569e-10
-8.17095e-17
-2.3858e-10
7.59411e-17
-2.38588e-10
1.05622e-16
-2.38581e-10
-2.3857e-10
-1.53531e-16
-2.38569e-10
-7.96754e-17
-2.3858e-10
7.42174e-17
-2.38588e-10
1.02496e-16
-2.38581e-10
-2.38569e-10
-1.50184e-16
-2.38568e-10
-7.71806e-17
-2.3858e-10
7.21108e-17
-2.38588e-10
9.87251e-17
-2.38581e-10
-2.38569e-10
-1.46159e-16
-2.38568e-10
-7.42476e-17
-2.3858e-10
6.96378e-17
-2.38589e-10
9.43421e-17
-2.38581e-10
-2.38569e-10
-1.41485e-16
-2.38568e-10
-7.09006e-17
-2.3858e-10
6.68163e-17
-2.38589e-10
8.93833e-17
-2.38581e-10
-2.38569e-10
-1.36195e-16
-2.38568e-10
-6.71655e-17
-2.3858e-10
6.36659e-17
-2.38589e-10
8.38868e-17
-2.38581e-10
-2.38569e-10
-1.30324e-16
-2.38568e-10
-6.30694e-17
-2.3858e-10
6.02069e-17
-2.38589e-10
7.78925e-17
-2.38581e-10
-2.38569e-10
-1.23909e-16
-2.38568e-10
-5.86408e-17
-2.3858e-10
5.64612e-17
-2.38589e-10
7.14418e-17
-2.38581e-10
-2.38569e-10
-1.16989e-16
-2.38568e-10
-5.39093e-17
-2.3858e-10
5.24514e-17
-2.38589e-10
6.45776e-17
-2.38582e-10
-2.38569e-10
-1.09604e-16
-2.38567e-10
-4.89049e-17
-2.38581e-10
4.82008e-17
-2.38589e-10
5.73436e-17
-2.38582e-10
-2.38569e-10
-1.01796e-16
-2.38567e-10
-4.36586e-17
-2.38581e-10
4.37336e-17
-2.38589e-10
4.97841e-17
-2.38582e-10
-2.38569e-10
-9.3608e-17
-2.38567e-10
-3.82014e-17
-2.38581e-10
3.90741e-17
-2.38589e-10
4.19436e-17
-2.38582e-10
-2.38569e-10
-8.50823e-17
-2.38567e-10
-3.25645e-17
-2.38581e-10
3.42469e-17
-2.38589e-10
3.38666e-17
-2.38582e-10
-2.38569e-10
-7.62629e-17
-2.38567e-10
-2.67786e-17
-2.38581e-10
2.92768e-17
-2.3859e-10
2.5597e-17
-2.38582e-10
-2.38569e-10
-6.71932e-17
-2.38567e-10
-2.08742e-17
-2.38581e-10
2.41882e-17
-2.3859e-10
1.71778e-17
-2.38582e-10
-2.38569e-10
-5.79163e-17
-2.38567e-10
-1.48809e-17
-2.38581e-10
1.90052e-17
-2.3859e-10
8.65062e-18
-2.38582e-10
-2.38569e-10
-4.84747e-17
-2.38567e-10
-8.82723e-18
-2.38581e-10
1.37514e-17
-2.3859e-10
5.57567e-20
-2.38581e-10
-2.38569e-10
-3.89095e-17
-2.38567e-10
-2.74117e-18
-2.38581e-10
8.44952e-18
-2.3859e-10
-8.56352e-18
-2.38581e-10
-2.38569e-10
-2.92604e-17
3.35163e-18
3.12158e-18
-1.71786e-17
)
;

boundaryField
{
    BotWall
    {
        type            calculated;
        value           nonuniform 0();
    }
    FreeStream
    {
        type            calculated;
        value           nonuniform 0();
    }
    FrontNBack
    {
        type            empty;
        value           nonuniform 0();
    }
    LeftSide
    {
        type            symmetryPlane;
        value           uniform 0;
    }
    RightSide
    {
        type            symmetryPlane;
        value           uniform 0;
    }
    procBoundary2to1
    {
        type            processor;
        value           nonuniform List<scalar> 5(2.3857e-10 2.38579e-10 2.38587e-10 2.38581e-10 2.3857e-10);
    }
    procBoundary2to3
    {
        type            processor;
        value           nonuniform List<scalar> 5(-2.38567e-10 -2.38581e-10 -2.3859e-10 -2.38581e-10 -2.38569e-10);
    }
}


// ************************************************************************* //
