/*--------------------------------*- C++ -*----------------------------------*\
| =========                 |                                                 |
| \\      /  F ield         | OpenFOAM: The Open Source CFD Toolbox           |
|  \\    /   O peration     | Version:  2.4.0                                 |
|   \\  /    A nd           | Web:      www.OpenFOAM.org                      |
|    \\/     M anipulation  |                                                 |
\*---------------------------------------------------------------------------*/
FoamFile
{
    version     2.0;
    format      ascii;
    class       volVectorField;
    location    "2.9";
    object      U;
}
// * * * * * * * * * * * * * * * * * * * * * * * * * * * * * * * * * * * * * //

dimensions      [0 1 -1 0 0 0 0];

internalField   nonuniform List<vector> 
125
(
(-2.86415e-08 -0.00119285 0)
(-3.81705e-08 -0.0011929 0)
(3.61878e-09 -0.00119294 0)
(2.89044e-08 -0.00119291 0)
(1.70744e-08 -0.00119285 0)
(-2.86454e-08 -0.00119285 0)
(-3.82209e-08 -0.0011929 0)
(3.58229e-09 -0.00119294 0)
(2.89247e-08 -0.00119291 0)
(1.70813e-08 -0.00119285 0)
(-2.85264e-08 -0.00119285 0)
(-3.80543e-08 -0.0011929 0)
(3.56178e-09 -0.00119294 0)
(2.87424e-08 -0.00119291 0)
(1.69619e-08 -0.00119285 0)
(-2.82898e-08 -0.00119285 0)
(-3.76809e-08 -0.0011929 0)
(3.5556e-09 -0.00119294 0)
(2.83677e-08 -0.00119291 0)
(1.67232e-08 -0.00119285 0)
(-2.79406e-08 -0.00119285 0)
(-3.7111e-08 -0.0011929 0)
(3.56203e-09 -0.00119294 0)
(2.78116e-08 -0.00119291 0)
(1.63725e-08 -0.00119285 0)
(-2.74843e-08 -0.00119284 0)
(-3.63556e-08 -0.0011929 0)
(3.57935e-09 -0.00119294 0)
(2.70854e-08 -0.00119291 0)
(1.59172e-08 -0.00119285 0)
(-2.69267e-08 -0.00119284 0)
(-3.54262e-08 -0.0011929 0)
(3.60585e-09 -0.00119294 0)
(2.62007e-08 -0.00119291 0)
(1.5365e-08 -0.00119285 0)
(-2.62739e-08 -0.00119284 0)
(-3.43345e-08 -0.0011929 0)
(3.63988e-09 -0.00119294 0)
(2.51696e-08 -0.00119291 0)
(1.47236e-08 -0.00119285 0)
(-2.55321e-08 -0.00119284 0)
(-3.30927e-08 -0.0011929 0)
(3.67976e-09 -0.00119294 0)
(2.40042e-08 -0.00119291 0)
(1.4001e-08 -0.00119285 0)
(-2.47076e-08 -0.00119284 0)
(-3.17132e-08 -0.0011929 0)
(3.72389e-09 -0.00119294 0)
(2.27171e-08 -0.00119291 0)
(1.32051e-08 -0.00119285 0)
(-2.38072e-08 -0.00119284 0)
(-3.02087e-08 -0.0011929 0)
(3.77072e-09 -0.00119294 0)
(2.13208e-08 -0.00119291 0)
(1.2344e-08 -0.00119285 0)
(-2.28374e-08 -0.00119284 0)
(-2.85919e-08 -0.0011929 0)
(3.81873e-09 -0.00119294 0)
(1.98279e-08 -0.00119291 0)
(1.14254e-08 -0.00119285 0)
(-2.1805e-08 -0.00119284 0)
(-2.68757e-08 -0.0011929 0)
(3.8665e-09 -0.00119294 0)
(1.8251e-08 -0.00119291 0)
(1.04575e-08 -0.00119285 0)
(-2.07169e-08 -0.00119284 0)
(-2.50729e-08 -0.0011929 0)
(3.91267e-09 -0.00119294 0)
(1.66026e-08 -0.00119291 0)
(9.44793e-09 -0.00119284 0)
(-1.958e-08 -0.00119284 0)
(-2.31961e-08 -0.0011929 0)
(3.95599e-09 -0.00119295 0)
(1.48951e-08 -0.00119291 0)
(8.40439e-09 -0.00119284 0)
(-1.84009e-08 -0.00119284 0)
(-2.12581e-08 -0.0011929 0)
(3.9953e-09 -0.00119295 0)
(1.31404e-08 -0.00119291 0)
(7.33433e-09 -0.00119284 0)
(-1.71866e-08 -0.00119284 0)
(-1.9271e-08 -0.0011929 0)
(4.02954e-09 -0.00119295 0)
(1.13503e-08 -0.00119291 0)
(6.24494e-09 -0.00119284 0)
(-1.59435e-08 -0.00119284 0)
(-1.72469e-08 -0.0011929 0)
(4.0578e-09 -0.00119295 0)
(9.53624e-09 -0.00119291 0)
(5.14317e-09 -0.00119284 0)
(-1.46783e-08 -0.00119284 0)
(-1.51973e-08 -0.0011929 0)
(4.07926e-09 -0.00119295 0)
(7.709e-09 -0.00119291 0)
(4.0356e-09 -0.00119284 0)
(-1.33972e-08 -0.00119284 0)
(-1.31335e-08 -0.0011929 0)
(4.09324e-09 -0.00119295 0)
(5.8789e-09 -0.00119291 0)
(2.92847e-09 -0.00119284 0)
(-1.21064e-08 -0.00119284 0)
(-1.10661e-08 -0.0011929 0)
(4.09922e-09 -0.00119295 0)
(4.05569e-09 -0.00119291 0)
(1.82762e-09 -0.00119284 0)
(-1.08117e-08 -0.00119284 0)
(-9.005e-09 -0.0011929 0)
(4.0968e-09 -0.00119295 0)
(2.24844e-09 -0.00119291 0)
(7.38471e-10 -0.00119284 0)
(-9.51873e-09 -0.00119283 0)
(-6.95969e-09 -0.0011929 0)
(4.08571e-09 -0.00119295 0)
(4.65522e-10 -0.00119291 0)
(-3.34026e-10 -0.00119284 0)
(-8.2328e-09 -0.00119283 0)
(-4.93888e-09 -0.0011929 0)
(4.06581e-09 -0.00119295 0)
(-1.28505e-09 -0.00119291 0)
(-1.385e-09 -0.00119284 0)
(-6.95885e-09 -0.00119283 0)
(-2.95051e-09 -0.0011929 0)
(4.03715e-09 -0.00119295 0)
(-2.99699e-09 -0.00119291 0)
(-2.41105e-09 -0.00119284 0)
)
;

boundaryField
{
    BotWall
    {
        type            fixedValue;
        value           nonuniform 0();
    }
    FreeStream
    {
        type            zeroGradient;
    }
    FrontNBack
    {
        type            empty;
    }
    LeftSide
    {
        type            symmetryPlane;
    }
    RightSide
    {
        type            symmetryPlane;
    }
    procBoundary2to1
    {
        type            processor;
        value           nonuniform List<vector> 5((-2.85106e-08 -0.00119285 0) (-3.78942e-08 -0.0011929 0) (3.67315e-09 -0.00119293 0) (2.86714e-08 -0.00119291 0) (1.69343e-08 -0.00119285 0));
    }
    procBoundary2to3
    {
        type            processor;
        value           nonuniform List<vector> 5((-5.70151e-09 -0.00119283 0) (-1.00185e-09 -0.0011929 0) (3.99987e-09 -0.00119295 0) (-4.66389e-09 -0.00119291 0) (-3.40832e-09 -0.00119284 0));
    }
}


// ************************************************************************* //
