/*--------------------------------*- C++ -*----------------------------------*\
| =========                 |                                                 |
| \\      /  F ield         | OpenFOAM: The Open Source CFD Toolbox           |
|  \\    /   O peration     | Version:  2.4.0                                 |
|   \\  /    A nd           | Web:      www.OpenFOAM.org                      |
|    \\/     M anipulation  |                                                 |
\*---------------------------------------------------------------------------*/
FoamFile
{
    version     2.0;
    format      ascii;
    class       volScalarField;
    location    "2";
    object      alpha1;
}
// * * * * * * * * * * * * * * * * * * * * * * * * * * * * * * * * * * * * * //

dimensions      [0 0 0 0 0 0 0];

internalField   nonuniform List<scalar> 
8000
(
1
1
1
1
1
1
1
1
1
1
1
1
1
1
1
1
1
1
0.999999
0.999998
0.999996
0.999991
0.999981
1
0.428096
1.59434e-07
2.51411e-08
7.21897e-09
3.40427e-09
1.6776e-09
9.10577e-10
5.58148e-10
3.80149e-10
2.76738e-10
2.08067e-10
1.58291e-10
1.20652e-10
9.17544e-11
6.95074e-11
5.24202e-11
3.93508e-11
2.94029e-11
2.18691e-11
1.61923e-11
1.19357e-11
8.75921e-12
6.39958e-12
4.65466e-12
3.37014e-12
2.42886e-12
1
1
1
1
1
1
1
1
1
1
1
1
1
1
1
1
1
1
0.999999
0.999998
0.999996
0.999991
0.99998
1
0.469251
2.04495e-07
1.06739e-07
8.16939e-09
3.79496e-09
1.98736e-09
1.17621e-09
7.78567e-10
5.58049e-10
4.17944e-10
3.19011e-10
2.44851e-10
1.87814e-10
1.43606e-10
1.09346e-10
8.28829e-11
6.25324e-11
4.69599e-11
3.5104e-11
2.61234e-11
1.93543e-11
1.42763e-11
1.04843e-11
7.66521e-12
5.57884e-12
4.04173e-12
1
1
1
1
1
1
1
1
1
1
1
1
1
1
1
1
1
1
0.999999
0.999998
0.999996
0.999991
0.999979
1
0.581673
9.36777e-07
7.10445e-07
1.36641e-08
5.08358e-09
2.60938e-09
1.62831e-09
1.13559e-09
8.41522e-10
6.41893e-10
4.94977e-10
3.82428e-10
2.94873e-10
2.26531e-10
1.73279e-10
1.3194e-10
9.99954e-11
7.54325e-11
5.66423e-11
4.23417e-11
3.1512e-11
2.33499e-11
1.72264e-11
1.26526e-11
9.25151e-12
6.73373e-12
1
1
1
1
1
1
1
1
1
1
1
1
1
1
1
1
1
1
0.999999
0.999998
0.999996
0.999991
0.999979
1
0.780597
0.000208017
4.04653e-06
4.46981e-08
1.04663e-08
4.10104e-09
2.44132e-09
1.73179e-09
1.30678e-09
1.008e-09
7.82607e-10
6.07601e-10
4.70428e-10
3.6281e-10
2.78593e-10
2.12947e-10
1.62009e-10
1.22678e-10
9.24674e-11
6.93818e-11
5.18302e-11
3.85507e-11
2.855e-11
2.10514e-11
1.54533e-11
1.12924e-11
1
1
1
1
1
1
1
1
1
1
1
1
1
1
1
1
1
1
0.999999
0.999999
0.999996
0.999992
0.999981
0.999999
0.999557
0.046849
4.35171e-05
2.15056e-07
3.92106e-08
9.43233e-09
4.23139e-09
2.81117e-09
2.1093e-09
1.63134e-09
1.26989e-09
9.88019e-10
7.66455e-10
5.92271e-10
4.55707e-10
3.49048e-10
2.66108e-10
2.01907e-10
1.52481e-10
1.14628e-10
8.57935e-11
6.39386e-11
4.74552e-11
3.50735e-11
2.58133e-11
1.89153e-11
1
1
1
1
1
1
1
1
1
1
1
1
1
1
1
1
1
1
0.999999
0.999999
0.999997
0.999993
0.999985
0.999995
0.999992
0.392693
0.000335694
1.19016e-06
1.5608e-07
2.75279e-08
8.56511e-09
4.86094e-09
3.52561e-09
2.71431e-09
2.1139e-09
1.64676e-09
1.27929e-09
9.90023e-10
7.62888e-10
5.85192e-10
4.46732e-10
3.39279e-10
2.56401e-10
1.92826e-10
1.44323e-10
1.07579e-10
7.99062e-11
5.91248e-11
4.35751e-11
3.19806e-11
1
1
1
1
1
1
1
1
1
1
1
1
1
1
1
1
1
1
1
0.999999
0.999997
0.999994
0.999988
0.999994
1
0.806565
0.00641791
1.15265e-05
6.73267e-07
9.91835e-08
2.11151e-08
8.8306e-09
5.82598e-09
4.40113e-09
3.41588e-09
2.65975e-09
2.06706e-09
1.60101e-09
1.23507e-09
9.48594e-10
7.25154e-10
5.51571e-10
4.17384e-10
3.14266e-10
2.3549e-10
1.75669e-10
1.30567e-10
9.66819e-11
7.13354e-11
5.24299e-11
1
1
1
1
1
1
1
1
1
1
1
1
1
1
1
1
1
1
1
0.999999
0.999997
0.999995
0.999991
0.999994
0.999999
1.00005
0.239277
0.0011331
2.93078e-06
4.60068e-07
7.80349e-08
2.10774e-08
1.06536e-08
7.45511e-09
5.68717e-09
4.40883e-09
3.42071e-09
2.64693e-09
2.04051e-09
1.56636e-09
1.19688e-09
9.10028e-10
6.88302e-10
5.1779e-10
3.87555e-10
2.88639e-10
2.14137e-10
1.58295e-10
1.16637e-10
8.56103e-11
1
1
1
1
1
1
1
1
1
1
1
1
1
1
1
1
1
1
1
0.999999
0.999998
0.999995
0.999993
0.999995
0.999998
0.999995
0.766413
0.00851384
5.5619e-05
1.00404e-06
1.65764e-07
3.95049e-08
1.79125e-08
1.20332e-08
9.08543e-09
7.02982e-09
5.45323e-09
4.21937e-09
3.25222e-09
2.49608e-09
1.90701e-09
1.44975e-09
1.09627e-09
8.24307e-10
6.16348e-10
4.58337e-10
3.39304e-10
2.50333e-10
1.84078e-10
1.34667e-10
1
1
1
1
1
1
1
1
1
1
1
1
1
1
1
1
1
1
1
0.999999
0.999998
0.999996
0.999995
0.999995
0.999997
0.999999
1.00006
0.21615
0.00174436
2.98506e-06
4.46865e-07
8.57742e-08
3.0864e-08
1.89548e-08
1.40166e-08
1.07915e-08
8.35608e-09
6.45671e-09
4.96992e-09
3.80906e-09
2.90608e-09
2.20635e-09
1.66608e-09
1.25025e-09
9.32782e-10
6.92257e-10
5.11325e-10
3.76349e-10
2.76084e-10
2.01723e-10
1
1
1
1
1
1
1
1
1
1
1
1
1
1
1
1
1
1
1
0.999999
0.999998
0.999996
0.999995
0.999996
0.999997
0.999999
1
0.698315
0.00522977
7.60728e-06
6.03783e-07
1.15392e-07
4.34093e-08
2.71891e-08
2.01949e-08
1.55631e-08
1.20505e-08
9.30853e-09
7.16155e-09
5.48541e-09
4.18214e-09
3.17275e-09
2.3936e-09
1.7944e-09
1.33703e-09
9.90619e-10
7.29451e-10
5.34851e-10
3.91047e-10
2.85031e-10
1
1
1
1
1
1
1
1
1
1
1
1
1
1
1
1
1
1
1
0.999999
0.999998
0.999997
0.999996
0.999996
0.999997
0.999998
1
0.99363
0.0402385
0.000170182
5.16845e-07
1.20403e-07
5.2542e-08
3.53948e-08
2.6771e-08
2.06724e-08
1.59777e-08
1.23088e-08
9.44229e-09
7.21183e-09
5.48355e-09
4.14936e-09
3.12366e-09
2.33735e-09
1.7385e-09
1.28569e-09
9.45915e-10
6.93755e-10
5.07845e-10
3.70868e-10
1
1
1
1
1
1
1
1
1
1
1
1
1
1
1
1
1
1
1
0.999999
0.999998
0.999997
0.999996
0.999996
0.999997
0.999998
1
0.999998
0.29884
0.0011235
7.35363e-07
1.59202e-07
6.85039e-08
4.62407e-08
3.49788e-08
2.69306e-08
2.07281e-08
1.5894e-08
1.21305e-08
9.21277e-09
6.95905e-09
5.22917e-09
3.91351e-09
2.91423e-09
2.15882e-09
1.59073e-09
1.16708e-09
8.546e-10
6.25199e-10
4.56378e-10
1
1
1
1
1
1
1
1
1
1
1
1
1
1
1
1
1
1
1
0.999999
0.999998
0.999997
0.999997
0.999997
0.999997
0.999998
0.999999
1
0.405213
0.00079084
1.09561e-06
1.58838e-07
7.53429e-08
5.43031e-08
4.15315e-08
3.18728e-08
2.43871e-08
1.85867e-08
1.41004e-08
1.06518e-08
8.01467e-09
6.00208e-09
4.47218e-09
3.31471e-09
2.4448e-09
1.79617e-09
1.31622e-09
9.6223e-10
7.01706e-10
5.10101e-10
1
1
1
1
1
1
1
1
1
1
1
1
1
1
1
1
1
1
0.999999
0.999999
0.999998
0.999998
0.999998
0.999998
0.999998
0.999998
0.999999
0.999997
0.294228
0.000132425
1.45215e-06
1.49088e-07
8.05409e-08
6.01114e-08
4.60261e-08
3.51477e-08
2.67309e-08
2.02335e-08
1.52399e-08
1.14319e-08
8.54152e-09
6.35167e-09
4.70011e-09
3.46126e-09
2.5381e-09
1.85421e-09
1.35046e-09
9.80678e-10
7.09491e-10
5.11062e-10
1
1
1
1
1
1
1
1
1
1
1
1
1
1
1
1
1
1
0.999999
0.999999
0.999999
0.999998
0.999999
1
0.999999
0.999998
0.999994
0.95599
0.0437322
2.89457e-05
1.28819e-06
1.56442e-07
8.27172e-08
6.22255e-08
4.75313e-08
3.60489e-08
2.71796e-08
2.03719e-08
1.51813e-08
1.12618e-08
8.3149e-09
6.09959e-09
4.44777e-09
3.22801e-09
2.33427e-09
1.68283e-09
1.20969e-09
8.66801e-10
6.18729e-10
4.39703e-10
1
1
1
1
1
1
1
1
1
1
1
1
1
1
1
1
1
0.999999
0.999999
0.999999
0.999998
0.999999
1
1
0.999999
0.999943
0.94041
0.210018
0.0043546
1.40967e-05
1.41965e-06
1.63603e-07
7.73024e-08
5.79319e-08
4.40175e-08
3.30912e-08
2.46562e-08
1.8226e-08
1.33108e-08
9.61189e-09
6.87946e-09
4.89039e-09
3.4606e-09
2.44456e-09
1.72584e-09
1.21713e-09
8.5668e-10
6.01375e-10
4.20862e-10
2.93566e-10
1
1
1
1
1
1
1
1
1
1
1
1
1
1
1
1
0.999999
0.999999
0.999999
0.999999
0.999998
1
1
0.999999
0.999609
0.805538
0.17771
0.00856521
0.000265928
4.47798e-06
4.53361e-07
7.74546e-08
5.20573e-08
4.00226e-08
3.02597e-08
2.21843e-08
1.57468e-08
1.09827e-08
7.64658e-09
5.35318e-09
3.76534e-09
2.65526e-09
1.8727e-09
1.31896e-09
9.27143e-10
6.50219e-10
4.54769e-10
3.17098e-10
2.20383e-10
1.52649e-10
1
1
1
1
1
1
1
1
1
1
1
1
1
1
0.999999
0.999999
0.999999
0.999999
0.999999
0.999999
0.999983
0.999999
0.99982
0.99349
0.48815
0.0732424
0.00289514
5.27857e-06
8.41991e-08
4.1137e-08
2.18359e-08
1.4228e-08
9.52068e-09
6.56611e-09
4.76768e-09
3.717e-09
2.92485e-09
2.25262e-09
1.70432e-09
1.2739e-09
9.43641e-10
6.93738e-10
5.06469e-10
3.67327e-10
2.64776e-10
1.8975e-10
1.35225e-10
9.58477e-11
6.75809e-11
4.74065e-11
1
1
1
1
1
1
1
1
1
1
1
1
0.999999
0.999999
0.999999
0.999999
0.999999
0.999999
0.999998
0.999998
0.991531
0.998927
0.674079
0.159909
0.00354729
0.000310817
4.33459e-05
2.2984e-07
1.71252e-08
9.31102e-09
5.91267e-09
4.2485e-09
3.09768e-09
2.27324e-09
1.68486e-09
1.26253e-09
9.48575e-10
7.09073e-10
5.26911e-10
3.89408e-10
2.8632e-10
2.09464e-10
1.52456e-10
1.10388e-10
7.95123e-11
5.69743e-11
4.0612e-11
2.87977e-11
2.03137e-11
1.42542e-11
1.74234e-12
1.24402e-12
8.84056e-13
6.2531e-13
4.40225e-13
3.08473e-13
2.15138e-13
1.49335e-13
1.03166e-13
7.09283e-14
4.85282e-14
3.30398e-14
2.23836e-14
1.50886e-14
1.01197e-14
6.75241e-15
4.48207e-15
2.9592e-15
1.94301e-15
1.2685e-15
8.23209e-16
5.30901e-16
3.40144e-16
2.16429e-16
1.36721e-16
8.57235e-17
5.33334e-17
3.29193e-17
2.01556e-17
1.22403e-17
7.37245e-18
4.40382e-18
2.6086e-18
1.5321e-18
8.92021e-19
5.14683e-19
2.94174e-19
1.66471e-19
9.32103e-20
5.15997e-20
2.82162e-20
1.52254e-20
8.09723e-21
4.23849e-21
2.18027e-21
1.10013e-21
5.43372e-22
2.62054e-22
1.23038e-22
5.60379e-23
2.91455e-12
2.09192e-12
1.49447e-12
1.06266e-12
7.52099e-13
5.29818e-13
3.71488e-13
2.59249e-13
1.80065e-13
1.24469e-13
8.56236e-14
5.86148e-14
3.99283e-14
2.70642e-14
1.82526e-14
1.22473e-14
8.17522e-15
5.42808e-15
3.58432e-15
2.35337e-15
1.53597e-15
9.96228e-16
6.4192e-16
4.1078e-16
2.60981e-16
1.64574e-16
1.02983e-16
6.39362e-17
3.93775e-17
2.40564e-17
1.4577e-17
8.76049e-18
5.22113e-18
3.08536e-18
1.80736e-18
1.04914e-18
6.03219e-19
3.43343e-19
1.93329e-19
1.07605e-19
5.91467e-20
3.20723e-20
1.71355e-20
9.00798e-21
4.65181e-21
2.35547e-21
1.16696e-21
5.64233e-22
2.6544e-22
1.21052e-22
4.87847e-12
3.5179e-12
2.52495e-12
1.80383e-12
1.28267e-12
9.07842e-13
6.39558e-13
4.48448e-13
3.12962e-13
2.17371e-13
1.50252e-13
1.03354e-13
7.07475e-14
4.81888e-14
3.26596e-14
2.20229e-14
1.47739e-14
9.85861e-15
6.54274e-15
4.31748e-15
2.83214e-15
1.84621e-15
1.19562e-15
7.68974e-16
4.91027e-16
3.11215e-16
1.95741e-16
1.22151e-16
7.56241e-17
4.64442e-17
2.82931e-17
1.7095e-17
1.02433e-17
6.08568e-18
3.58389e-18
2.09127e-18
1.20855e-18
6.91283e-19
3.91087e-19
2.18653e-19
1.20693e-19
6.57014e-20
3.52282e-20
1.85782e-20
9.62062e-21
4.88274e-21
2.4234e-21
1.17316e-21
5.5221e-22
2.51765e-22
8.21364e-12
5.94644e-12
4.28496e-12
3.07332e-12
2.19406e-12
1.55908e-12
1.10272e-12
7.763e-13
5.43934e-13
3.79313e-13
2.63249e-13
1.81816e-13
1.24963e-13
8.54661e-14
5.81632e-14
3.93834e-14
2.65307e-14
1.77784e-14
1.18486e-14
7.8519e-15
5.17244e-15
3.38608e-15
2.20212e-15
1.42229e-15
9.1204e-16
5.80505e-16
3.66671e-16
2.29804e-16
1.42891e-16
8.81416e-17
5.39325e-17
3.27316e-17
1.96999e-17
1.17555e-17
6.9528e-18
4.07415e-18
2.36398e-18
1.35738e-18
7.70699e-19
4.32327e-19
2.39359e-19
1.30649e-19
7.02123e-20
3.70967e-20
1.9237e-20
9.77169e-21
4.85117e-21
2.34746e-21
1.10362e-21
5.02085e-22
1.37974e-11
1.00177e-11
7.23962e-12
5.20771e-12
3.7288e-12
2.65757e-12
1.88535e-12
1.33131e-12
9.35695e-13
6.54543e-13
4.55693e-13
3.15734e-13
2.17705e-13
1.49381e-13
1.01996e-13
6.92945e-14
4.68383e-14
3.1494e-14
2.10619e-14
1.40057e-14
9.2582e-15
6.08176e-15
3.96892e-15
2.57227e-15
1.65516e-15
1.05715e-15
6.70076e-16
4.21444e-16
2.62988e-16
1.62809e-16
9.99822e-17
6.08997e-17
3.67852e-17
2.20284e-17
1.30733e-17
7.68569e-18
4.4733e-18
2.57589e-18
1.46633e-18
8.24416e-19
4.57315e-19
2.49993e-19
1.34493e-19
7.11001e-20
3.68706e-20
1.87178e-20
9.28041e-21
4.48134e-21
2.10045e-21
9.51589e-22
2.33673e-11
1.69955e-11
1.2304e-11
8.86639e-12
6.35984e-12
4.54096e-12
3.22739e-12
2.28323e-12
1.60778e-12
1.12685e-12
7.86045e-13
5.45708e-13
3.7704e-13
2.59247e-13
1.77386e-13
1.20774e-13
8.18155e-14
5.51365e-14
3.69573e-14
2.46325e-14
1.63205e-14
1.07459e-14
7.02888e-15
4.56596e-15
2.94481e-15
1.88523e-15
1.19778e-15
7.55159e-16
4.72388e-16
2.93167e-16
1.80485e-16
1.10206e-16
6.67284e-17
4.00522e-17
2.38218e-17
1.40326e-17
8.18197e-18
4.71866e-18
2.68939e-18
1.51335e-18
8.39851e-19
4.59099e-19
2.46857e-19
1.30357e-19
6.74806e-20
3.41716e-20
1.68859e-20
8.11872e-21
3.78453e-21
1.70283e-21
3.83677e-11
2.79492e-11
2.02667e-11
1.46286e-11
1.05107e-11
7.51754e-12
5.35207e-12
3.79283e-12
2.67537e-12
1.87832e-12
1.31252e-12
9.12808e-13
6.31794e-13
4.3519e-13
2.98312e-13
2.0348e-13
1.381e-13
9.3244e-14
6.26208e-14
4.18181e-14
2.77602e-14
1.83125e-14
1.20005e-14
7.80973e-15
5.04599e-15
3.23625e-15
2.05998e-15
1.30126e-15
8.1563e-16
5.0722e-16
3.12907e-16
1.91452e-16
1.16148e-16
6.98412e-17
4.16066e-17
2.45423e-17
1.43243e-17
8.26607e-18
4.7119e-18
2.65053e-18
1.46964e-18
8.02186e-19
4.30418e-19
2.26639e-19
1.16892e-19
5.89237e-20
2.89553e-20
1.3828e-20
6.39371e-21
2.84862e-21
6.25608e-11
4.55044e-11
3.29511e-11
2.37612e-11
1.70721e-11
1.22149e-11
8.70011e-12
6.16832e-12
4.3531e-12
3.05777e-12
2.13785e-12
1.48771e-12
1.03041e-12
7.10267e-13
4.87236e-13
3.32608e-13
2.25928e-13
1.52697e-13
1.02666e-13
6.86447e-14
4.56267e-14
3.01378e-14
1.9776e-14
1.28869e-14
8.33719e-15
5.35367e-15
3.41165e-15
2.15722e-15
1.35331e-15
8.42205e-16
5.19865e-16
3.18214e-16
1.93096e-16
1.16111e-16
6.915e-17
4.07626e-17
2.37665e-17
1.36943e-17
7.79069e-18
4.37125e-18
2.41606e-18
1.3137e-18
7.01627e-19
3.67434e-19
1.88299e-19
9.42103e-20
4.58926e-20
2.16944e-20
9.91171e-21
4.35406e-21
9.81317e-11
7.1311e-11
5.16489e-11
3.72701e-11
2.67827e-11
1.91625e-11
1.36498e-11
9.6786e-12
6.8311e-12
4.79893e-12
3.35586e-12
2.33647e-12
1.61941e-12
1.11728e-12
7.67224e-13
5.24302e-13
3.56516e-13
2.41155e-13
1.62224e-13
1.085e-13
7.21286e-14
4.76439e-14
3.12587e-14
2.03646e-14
1.31709e-14
8.45467e-15
5.3857e-15
3.40403e-15
2.13448e-15
1.32763e-15
8.18948e-16
5.00858e-16
3.03593e-16
1.82296e-16
1.08373e-16
6.37418e-17
3.70629e-17
2.12848e-17
1.20608e-17
6.73545e-18
3.70243e-18
2.00039e-18
1.06058e-18
5.5077e-19
2.79561e-19
1.38351e-19
6.65594e-20
3.1018e-20
1.39405e-20
6.00822e-21
1.46847e-10
1.0654e-10
7.70173e-11
5.5492e-11
3.98358e-11
2.84824e-11
2.02861e-11
1.43878e-11
1.016e-11
7.14228e-12
4.99768e-12
3.48006e-12
2.41167e-12
1.6633e-12
1.14167e-12
7.79837e-13
5.2999e-13
3.58285e-13
2.40873e-13
1.60994e-13
1.06936e-13
7.05606e-14
4.62367e-14
3.00801e-14
1.94238e-14
1.24473e-14
7.91495e-15
4.99337e-15
3.12502e-15
1.93972e-15
1.19383e-15
7.28282e-16
4.40161e-16
2.63412e-16
1.55984e-16
9.13304e-17
5.2828e-17
3.01581e-17
1.69732e-17
9.40608e-18
5.12567e-18
2.74235e-18
1.43804e-18
7.37616e-19
3.69239e-19
1.799e-19
8.50382e-20
3.88472e-20
1.7067e-20
7.16621e-21
2.07487e-10
1.50638e-10
1.09072e-10
7.86892e-11
5.65347e-11
4.04373e-11
2.8785e-11
2.03949e-11
1.43835e-11
1.00974e-11
7.05502e-12
4.90629e-12
3.39567e-12
2.33886e-12
1.60316e-12
1.09346e-12
7.42023e-13
5.00842e-13
3.36109e-13
2.24177e-13
1.48552e-13
9.77695e-14
6.3889e-14
4.14406e-14
2.66754e-14
1.70378e-14
1.07962e-14
6.78613e-15
4.23049e-15
2.61498e-15
1.60215e-15
9.72527e-16
5.84561e-16
3.47703e-16
2.04509e-16
1.18843e-16
6.81678e-17
3.85542e-17
2.14752e-17
1.17653e-17
6.33039e-18
3.3396e-18
1.72416e-18
8.69253e-19
4.26888e-19
2.03615e-19
9.39952e-20
4.18157e-20
1.78309e-20
7.23731e-21
2.70323e-10
1.9645e-10
1.42202e-10
1.0247e-10
7.35002e-11
5.24779e-11
3.7299e-11
2.639e-11
1.85853e-11
1.30274e-11
9.08733e-12
6.30686e-12
4.35524e-12
2.99256e-12
2.04595e-12
1.3916e-12
9.41428e-13
6.3329e-13
4.23486e-13
2.81422e-13
1.85781e-13
1.21787e-13
7.92517e-14
5.11805e-14
3.27944e-14
2.08458e-14
1.31427e-14
8.2171e-15
5.09335e-15
3.12894e-15
1.9042e-15
1.14742e-15
6.84139e-16
4.03325e-16
2.349e-16
1.35025e-16
7.65231e-17
4.27077e-17
2.34422e-17
1.26371e-17
6.67979e-18
3.45588e-18
1.74642e-18
8.60032e-19
4.11595e-19
1.90816e-19
8.53625e-20
3.66745e-20
1.50423e-20
5.84471e-21
3.32026e-10
2.40563e-10
1.73538e-10
1.2464e-10
8.91177e-11
6.34125e-11
4.48948e-11
3.16309e-11
2.21817e-11
1.5482e-11
1.07541e-11
7.43343e-12
5.1119e-12
3.49696e-12
2.37944e-12
1.61022e-12
1.08351e-12
7.24746e-13
4.81707e-13
3.18031e-13
2.08503e-13
1.35703e-13
8.76593e-14
5.61876e-14
3.57296e-14
2.25356e-14
1.40948e-14
8.73911e-15
5.36944e-15
3.26767e-15
1.96857e-15
1.17322e-15
6.91179e-16
4.02177e-16
2.30912e-16
1.30684e-16
7.28192e-17
3.98993e-17
2.1467e-17
1.13237e-17
5.84611e-18
2.94819e-18
1.44908e-18
6.92422e-19
3.20701e-19
1.43468e-19
6.17292e-20
2.54121e-20
9.94345e-21
3.66635e-21
3.69356e-10
2.66215e-10
1.90943e-10
1.36318e-10
9.68758e-11
6.8519e-11
4.8223e-11
3.37638e-11
2.35184e-11
1.62992e-11
1.124e-11
7.7129e-12
5.26604e-12
3.57672e-12
2.41612e-12
1.62281e-12
1.08344e-12
7.18768e-13
4.73659e-13
3.09954e-13
2.01353e-13
1.2982e-13
8.30519e-14
5.2709e-14
3.31776e-14
2.07066e-14
1.28093e-14
7.85084e-15
4.76495e-15
2.86215e-15
1.70027e-15
9.98146e-16
5.78555e-16
3.30791e-16
1.86367e-16
1.03346e-16
5.63358e-17
3.01473e-17
1.58136e-17
8.11722e-18
4.06974e-18
1.98882e-18
9.45062e-19
4.35475e-19
1.93959e-19
8.31863e-20
3.41974e-20
1.33992e-20
4.96805e-21
1.72669e-21
3.66436e-10
2.61478e-10
1.85665e-10
1.31179e-10
9.22259e-11
6.45206e-11
4.49158e-11
3.11145e-11
2.14493e-11
1.47154e-11
1.0047e-11
6.8263e-12
4.61471e-12
3.10318e-12
2.0751e-12
1.3794e-12
9.11199e-13
5.97935e-13
3.89647e-13
2.5208e-13
1.61859e-13
1.03123e-13
6.51758e-14
4.08511e-14
2.53842e-14
1.56312e-14
9.5342e-15
5.75704e-15
3.43923e-15
2.03122e-15
1.18505e-15
6.82375e-16
3.87435e-16
2.16678e-16
1.1923e-16
6.44736e-17
3.42159e-17
1.7795e-17
9.05524e-18
4.50059e-18
2.18048e-18
1.02751e-18
4.69758e-19
2.07757e-19
8.85837e-20
3.6267e-20
1.41873e-20
5.27069e-21
1.84506e-21
6.02256e-22
3.11009e-10
2.18936e-10
1.53398e-10
1.06984e-10
7.42728e-11
5.13283e-11
3.53101e-11
2.41801e-11
1.64827e-11
1.11839e-11
7.5526e-12
5.07527e-12
3.39286e-12
2.25568e-12
1.49087e-12
9.7925e-13
6.38983e-13
4.14077e-13
2.66399e-13
1.70105e-13
1.07771e-13
6.77253e-14
4.22007e-14
2.60637e-14
1.59479e-14
9.66262e-15
5.79367e-15
3.43551e-15
2.01321e-15
1.16493e-15
6.65033e-16
3.7421e-16
2.07339e-16
1.12997e-16
6.05018e-17
3.17863e-17
1.63639e-17
8.24256e-18
4.05557e-18
1.94565e-18
9.08283e-19
4.11644e-19
1.80647e-19
7.65308e-20
3.11884e-20
1.21747e-20
4.52885e-21
1.59499e-21
5.27376e-22
1.61855e-22
2.04071e-10
1.41359e-10
9.7569e-11
6.70984e-11
4.59712e-11
3.13751e-11
2.13283e-11
1.44391e-11
9.73338e-12
6.53185e-12
4.36256e-12
2.89898e-12
1.91601e-12
1.25903e-12
8.22249e-13
5.33506e-13
3.43788e-13
2.19944e-13
1.39653e-13
8.7975e-14
5.49636e-14
3.40427e-14
2.08935e-14
1.27004e-14
7.64199e-15
4.5489e-15
2.67685e-15
1.55613e-15
8.92948e-16
5.0536e-16
2.81824e-16
1.54718e-16
8.35304e-17
4.43007e-17
2.30529e-17
1.17553e-17
5.86592e-18
2.86003e-18
1.36022e-18
6.2987e-19
2.83392e-19
1.23594e-19
5.21083e-20
2.11717e-20
8.2592e-21
3.07979e-21
1.09176e-21
3.6539e-22
1.14412e-22
3.31042e-23
1.05366e-10
7.24712e-11
4.96652e-11
3.39091e-11
2.30622e-11
1.5622e-11
1.05377e-11
7.07686e-12
4.73055e-12
3.14658e-12
2.08201e-12
1.36993e-12
8.96048e-13
5.82402e-13
3.76025e-13
2.41079e-13
1.53424e-13
9.68857e-14
6.0687e-14
3.76899e-14
2.31985e-14
1.41447e-14
8.53883e-15
5.10071e-15
3.01317e-15
1.75909e-15
1.01419e-15
5.77009e-16
3.23693e-16
1.78895e-16
9.73162e-17
5.20565e-17
2.73539e-17
1.4104e-17
7.12731e-18
3.52544e-18
1.70451e-18
8.04294e-19
3.69764e-19
1.65314e-19
7.17208e-20
3.0122e-20
1.22128e-20
4.76468e-21
1.78184e-21
6.35771e-22
2.15208e-22
6.86255e-23
2.04486e-23
5.66694e-24
3.30875e-11
2.29786e-11
1.58788e-11
1.09176e-11
7.46833e-12
5.08218e-12
3.43986e-12
2.31531e-12
1.54939e-12
1.03057e-12
6.81149e-13
4.4722e-13
2.91593e-13
1.88743e-13
1.21244e-13
7.72665e-14
4.88332e-14
3.05962e-14
1.89965e-14
1.16828e-14
7.11356e-15
4.28619e-15
2.55425e-15
1.50457e-15
8.75468e-16
5.02877e-16
2.84949e-16
1.59159e-16
8.756e-17
4.74053e-17
2.52352e-17
1.31956e-17
6.77097e-18
3.40563e-18
1.67708e-18
8.0754e-19
3.79678e-19
1.74036e-19
7.76402e-20
3.36457e-20
1.41328e-20
5.7403e-21
2.24849e-21
8.47191e-22
3.06804e-22
1.07708e-22
3.85096e-23
1.67682e-23
1.1867e-23
1.31381e-23
9.94953e-12
6.90789e-12
4.77016e-12
3.27578e-12
2.2368e-12
1.51843e-12
1.02455e-12
6.86975e-13
4.57627e-13
3.02781e-13
1.98915e-13
1.29717e-13
8.39432e-14
5.38877e-14
3.43055e-14
2.16498e-14
1.35393e-14
8.3872e-15
5.14438e-15
3.1228e-15
1.87516e-15
1.11324e-15
6.53062e-16
3.78334e-16
2.16312e-16
1.21978e-16
6.77917e-17
3.71056e-17
1.99863e-17
1.05851e-17
5.50732e-18
2.8123e-18
1.40805e-18
6.9046e-19
3.31219e-19
1.55241e-19
7.09993e-20
3.16491e-20
1.37459e-20
5.83266e-21
2.45107e-21
1.07105e-21
5.54798e-22
4.08497e-22
4.28021e-22
5.36375e-22
7.11785e-22
9.57385e-22
1.28946e-21
1.73385e-21
2.46437e-23
1.69635e-23
1.16017e-23
7.88217e-24
5.31868e-24
3.56377e-24
2.37069e-24
1.56533e-24
1.02568e-24
6.66795e-25
4.2998e-25
2.74963e-25
1.74328e-25
1.09551e-25
6.82197e-26
4.20854e-26
2.57137e-26
1.55556e-26
9.31477e-27
5.51944e-27
3.23537e-27
1.87554e-27
1.07488e-27
6.08822e-28
3.40697e-28
1.88299e-28
1.02749e-28
5.53352e-29
2.9401e-29
1.54062e-29
7.95858e-30
4.05146e-30
2.03165e-30
1.00315e-30
4.87508e-31
2.3308e-31
1.09583e-31
5.06408e-32
2.29916e-32
1.02504e-32
4.48543e-33
1.92546e-33
8.10418e-34
3.34266e-34
1.35036e-34
5.33986e-35
2.06579e-35
7.8137e-36
2.88789e-36
1.04229e-36
3.67131e-37
1.26143e-37
4.22734e-38
1.38353e-38
4.44978e-39
1.43989e-39
5.05892e-40
2.29353e-40
1.5556e-40
1.43006e-40
1.49019e-40
1.61193e-40
1.76115e-40
1.92971e-40
2.11687e-40
2.32406e-40
2.55353e-40
2.80793e-40
3.09033e-40
3.40418e-40
3.75336e-40
4.14226e-40
4.57575e-40
5.05928e-40
5.59888e-40
6.20123e-40
6.87371e-40
7.62445e-40
8.46238e-40
9.39729e-40
1.04398e-39
1.16016e-39
1.28951e-39
1.43338e-39
1.59322e-39
1.7706e-39
1.96717e-39
2.18474e-39
2.42522e-39
2.69071e-39
2.98348e-39
3.30602e-39
3.6611e-39
4.05184e-39
4.48182e-39
4.95517e-39
5.47675e-39
6.05234e-39
6.68887e-39
7.3947e-39
8.17997e-39
9.05702e-39
1.00408e-38
1.11496e-38
1.24055e-38
1.38353e-38
1.54712e-38
1.73524e-38
1.95258e-38
2.20479e-38
2.49865e-38
2.84232e-38
3.24561e-38
3.72033e-38
4.28071e-38
4.94395e-38
5.73085e-38
6.6666e-38
7.78178e-38
9.11358e-38
1.07072e-37
1.26177e-37
1.4912e-37
1.76716e-37
2.09954e-37
2.50033e-37
2.98405e-37
3.5682e-37
4.27384e-37
5.12623e-37
6.15546e-37
7.39731e-37
8.89404e-37
1.06953e-36
1.28591e-36
1.54529e-36
1.85544e-36
2.22526e-36
2.66489e-36
3.18572e-36
3.80047e-36
4.52324e-36
5.3694e-36
6.35563e-36
7.49969e-36
8.8203e-36
1.03368e-35
1.20689e-35
1.40362e-35
1.62576e-35
1.87508e-35
2.15318e-35
2.46141e-35
2.8008e-35
3.17201e-35
3.57522e-35
4.01012e-35
4.47582e-35
4.97078e-35
5.49286e-35
6.03924e-35
6.60651e-35
7.19067e-35
7.78704e-35
8.39011e-35
8.99324e-35
9.58837e-35
1.01661e-34
1.07162e-34
1.12284e-34
1.1693e-34
1.21012e-34
1.24447e-34
1.27163e-34
1.291e-34
1.30208e-34
1.30453e-34
1.29818e-34
1.28304e-34
1.25929e-34
1.2273e-34
1.18763e-34
1.14098e-34
1.08823e-34
1.03035e-34
9.68405e-35
9.03504e-35
8.36756e-35
7.69242e-35
7.01975e-35
6.35876e-35
5.7175e-35
5.10281e-35
4.52018e-35
3.97382e-35
3.4667e-35
3.00064e-35
2.57644e-35
2.19402e-35
1.85253e-35
1.55051e-35
1.286e-35
1.05666e-35
8.59835e-36
6.92717e-36
5.52375e-36
4.35851e-36
3.40232e-36
2.6271e-36
2.00633e-36
1.51548e-36
1.1323e-36
8.37021e-37
6.12404e-37
4.4372e-37
3.18624e-37
2.26974e-37
1.60594e-37
1.13025e-37
7.92538e-38
5.54676e-38
3.8816e-38
2.72057e-38
1.91246e-38
1.34966e-38
9.56628e-39
6.80896e-39
4.86336e-39
3.48194e-39
2.49529e-39
1.78716e-39
1.27725e-39
9.09569e-40
6.44598e-40
4.54116e-40
3.1775e-40
2.20668e-40
1.52015e-40
1.03834e-40
7.02971e-41
4.71583e-41
3.13391e-41
2.06259e-41
1.34409e-41
8.66993e-42
5.53405e-42
3.49434e-42
2.18184e-42
1.3466e-42
8.21164e-43
4.94551e-43
2.94038e-43
1.72519e-43
9.98514e-44
5.69905e-44
3.20658e-44
1.77802e-44
9.71342e-45
5.22688e-45
2.76987e-45
1.44524e-45
7.42353e-46
3.75308e-46
1.86719e-46
9.13953e-47
4.40039e-47
2.08342e-47
9.69717e-48
4.4355e-48
1.99297e-48
8.79312e-49
3.80795e-49
1.61794e-49
6.74193e-50
2.75416e-50
1.10263e-50
4.32489e-51
1.66153e-51
6.25056e-52
2.30203e-52
8.29853e-53
2.92768e-53
1.0107e-53
3.41404e-54
1.12835e-54
3.6489e-55
1.15464e-55
3.57554e-56
1.08372e-56
3.21546e-57
9.34134e-58
2.65778e-58
7.40814e-59
2.02382e-59
5.42255e-60
1.42616e-60
3.67995e-61
9.20924e-62
2.09748e-62
3.33657e-63
5.32617e-23
3.66492e-23
2.50529e-23
1.70104e-23
1.14697e-23
7.67852e-24
5.10276e-24
3.36544e-24
2.20237e-24
1.42973e-24
9.20515e-25
5.87648e-25
3.71882e-25
2.33231e-25
1.44926e-25
8.92015e-26
5.43678e-26
3.28047e-26
1.95897e-26
1.15742e-26
6.76385e-27
3.90844e-27
2.23244e-27
1.26005e-27
7.02547e-28
3.86813e-28
2.10239e-28
1.1276e-28
5.96583e-29
3.11242e-29
1.60055e-29
8.10995e-30
4.04732e-30
1.98857e-30
9.61514e-31
4.57323e-31
2.13871e-31
9.82982e-32
4.43814e-32
1.96749e-32
8.55984e-33
3.65294e-33
1.52834e-33
6.26564e-34
2.51562e-34
9.88586e-35
3.80038e-35
1.42833e-35
5.24524e-36
1.88101e-36
6.58444e-37
2.24986e-37
7.51657e-38
2.47345e-38
8.23407e-39
3.01331e-39
1.44369e-39
1.02679e-39
9.67838e-40
1.02183e-39
1.1161e-39
1.23044e-39
1.36028e-39
1.50563e-39
1.66796e-39
1.84934e-39
2.05223e-39
2.27944e-39
2.53418e-39
2.82009e-39
3.14128e-39
3.50242e-39
3.90876e-39
4.36618e-39
4.88133e-39
5.46159e-39
6.11523e-39
6.85146e-39
7.6805e-39
8.61363e-39
9.66335e-39
1.08434e-38
1.21688e-38
1.3656e-38
1.53233e-38
1.71903e-38
1.92789e-38
2.16128e-38
2.42183e-38
2.71248e-38
3.03649e-38
3.39755e-38
3.79988e-38
4.24835e-38
4.74863e-38
5.3074e-38
5.93265e-38
6.63393e-38
7.4228e-38
8.31328e-38
9.32244e-38
1.04711e-37
1.17848e-37
1.32945e-37
1.50381e-37
1.70621e-37
1.94228e-37
2.21891e-37
2.5445e-37
2.92928e-37
3.38575e-37
3.92918e-37
4.57825e-37
5.35587e-37
6.29012e-37
7.41554e-37
8.77466e-37
1.04198e-36
1.24157e-36
1.48421e-36
1.77974e-36
2.1403e-36
2.58089e-36
3.11992e-36
3.78007e-36
4.5891e-36
5.58095e-36
6.79697e-36
8.28738e-36
1.01129e-35
1.23466e-35
1.50759e-35
1.8405e-35
2.24574e-35
2.73783e-35
3.33378e-35
4.05333e-35
4.91925e-35
5.95759e-35
7.19787e-35
8.6733e-35
1.04208e-34
1.24811e-34
1.48984e-34
1.77204e-34
2.09974e-34
2.47821e-34
2.91283e-34
3.40903e-34
3.97209e-34
4.60707e-34
5.31858e-34
6.11067e-34
6.9866e-34
7.9487e-34
8.99817e-34
1.01349e-33
1.13571e-33
1.26616e-33
1.40433e-33
1.54954e-33
1.70092e-33
1.85745e-33
2.01791e-33
2.18082e-33
2.34436e-33
2.50629e-33
2.66399e-33
2.81459e-33
2.95522e-33
3.08316e-33
3.19591e-33
3.29115e-33
3.36679e-33
3.42106e-33
3.45254e-33
3.46024e-33
3.44362e-33
3.40265e-33
3.33783e-33
3.25021e-33
3.14134e-33
3.01326e-33
2.86841e-33
2.7096e-33
2.53983e-33
2.36225e-33
2.18001e-33
1.99617e-33
1.8136e-33
1.63489e-33
1.46229e-33
1.29769e-33
1.1426e-33
9.98116e-34
8.64987e-34
7.43609e-34
6.34075e-34
5.36218e-34
4.49654e-34
3.73828e-34
3.08058e-34
2.51573e-34
2.03546e-34
1.63126e-34
1.29462e-34
1.01723e-34
7.91156e-35
6.08974e-35
4.63849e-35
3.496e-35
2.60734e-35
1.92451e-35
1.40623e-35
1.01766e-35
7.29859e-36
5.19199e-36
3.66747e-36
2.57582e-36
1.8016e-36
1.25703e-36
8.7652e-37
6.11875e-37
4.28268e-37
3.00901e-37
2.12358e-37
1.50548e-37
1.07158e-37
7.65039e-38
5.47093e-38
3.91282e-38
2.79437e-38
1.9897e-38
1.41065e-38
9.94662e-39
6.96859e-39
4.84727e-39
3.34558e-39
2.29015e-39
1.55421e-39
1.04538e-39
6.96699e-40
4.59946e-40
3.00712e-40
1.94653e-40
1.24711e-40
7.90574e-41
4.9569e-41
3.0728e-41
1.88249e-41
1.13925e-41
6.80796e-42
4.01565e-42
2.33711e-42
1.34165e-42
7.59449e-43
4.23766e-43
2.33028e-43
1.26254e-43
6.73837e-44
3.54208e-44
1.83351e-44
9.34446e-45
4.68801e-45
2.31472e-45
1.12457e-45
5.37446e-46
2.52588e-46
1.16699e-46
5.29814e-47
2.36272e-47
1.03455e-47
4.44598e-48
1.87449e-48
7.75066e-49
3.14189e-49
1.24828e-49
4.85941e-50
1.85312e-50
6.92102e-51
2.53105e-51
9.06209e-52
3.17612e-52
1.08961e-52
3.65879e-53
1.20254e-53
3.8688e-54
1.21845e-54
3.75708e-55
1.13439e-55
3.35439e-56
9.71611e-57
2.7575e-57
7.67116e-58
2.09317e-58
5.6067e-59
1.47357e-59
3.75762e-60
8.73133e-61
1.42073e-61
1.10629e-22
7.60451e-23
5.1923e-23
3.52089e-23
2.37063e-23
1.58455e-23
1.0512e-23
6.92006e-24
4.51943e-24
2.92756e-24
1.88051e-24
1.19753e-24
7.55848e-25
4.72722e-25
2.92879e-25
1.79707e-25
1.09174e-25
6.56485e-26
3.90626e-26
2.29931e-26
1.33846e-26
7.70278e-27
4.38116e-27
2.46201e-27
1.36649e-27
7.48841e-28
4.05034e-28
2.16151e-28
1.13771e-28
5.90409e-29
3.01964e-29
1.5215e-29
7.54973e-30
3.6877e-30
1.7724e-30
8.3785e-31
3.89383e-31
1.77827e-31
7.97682e-32
3.51291e-32
1.51809e-32
6.43439e-33
2.67346e-33
1.08835e-33
4.33869e-34
1.6928e-34
6.46053e-35
2.41049e-35
8.78807e-36
3.12952e-36
1.08883e-36
3.70966e-37
1.24926e-37
4.29592e-38
1.65947e-38
8.59978e-39
6.53813e-39
6.37363e-39
6.83757e-39
7.54778e-39
8.39862e-39
9.36901e-39
1.0464e-38
1.16977e-38
1.30884e-38
1.46581e-38
1.64317e-38
1.84382e-38
2.07105e-38
2.32863e-38
2.62087e-38
2.95266e-38
3.32958e-38
3.75795e-38
4.24493e-38
4.7986e-38
5.42808e-38
6.14362e-38
6.95672e-38
7.88027e-38
8.92867e-38
1.0118e-37
1.14661e-37
1.29931e-37
1.4721e-37
1.6675e-37
1.88826e-37
2.13753e-37
2.41884e-37
2.73622e-37
3.09428e-37
3.49835e-37
3.95467e-37
4.47059e-37
5.05482e-37
5.71785e-37
6.4723e-37
7.33352e-37
8.32027e-37
9.45549e-37
1.07674e-36
1.22907e-36
1.40682e-36
1.61527e-36
1.86093e-36
2.15186e-36
2.49798e-36
2.91161e-36
3.40797e-36
4.00595e-36
4.72897e-36
5.60621e-36
6.67396e-36
7.97752e-36
9.57348e-36
1.15326e-35
1.39434e-35
1.69168e-35
2.05916e-35
2.5142e-35
3.07856e-35
3.77946e-35
4.65088e-35
5.73515e-35
7.08485e-35
8.76509e-35
1.08562e-34
1.34572e-34
1.6689e-34
2.06992e-34
2.56671e-34
3.18088e-34
3.93835e-34
4.87007e-34
6.01271e-34
7.40945e-34
9.11076e-34
1.11752e-33
1.367e-33
1.66721e-33
2.02682e-33
2.45554e-33
2.96414e-33
3.56437e-33
4.26897e-33
5.09149e-33
6.04617e-33
7.1477e-33
8.41096e-33
9.85066e-33
1.1481e-32
1.33151e-32
1.53649e-32
1.76404e-32
2.01494e-32
2.28966e-32
2.58838e-32
2.91084e-32
3.25636e-32
3.62378e-32
4.01145e-32
4.41722e-32
4.83841e-32
5.27172e-32
5.71307e-32
6.15737e-32
6.5984e-32
7.02887e-32
7.44091e-32
7.82665e-32
8.17856e-32
8.48963e-32
8.75333e-32
8.96376e-32
9.11582e-32
9.20541e-32
9.22959e-32
9.18675e-32
9.07669e-32
8.90074e-32
8.66176e-32
8.36408e-32
8.01339e-32
7.61659e-32
7.1815e-32
6.71661e-32
6.23076e-32
5.73282e-32
5.23139e-32
4.73454e-32
4.24954e-32
3.7827e-32
3.33928e-32
2.92341e-32
2.53808e-32
2.1852e-32
1.86566e-32
1.57949e-32
1.32591e-32
1.10356e-32