/*--------------------------------*- C++ -*----------------------------------*\
| =========                 |                                                 |
| \\      /  F ield         | OpenFOAM: The Open Source CFD Toolbox           |
|  \\    /   O peration     | Version:  2.4.0                                 |
|   \\  /    A nd           | Web:      www.OpenFOAM.org                      |
|    \\/     M anipulation  |                                                 |
\*---------------------------------------------------------------------------*/
FoamFile
{
    version     2.0;
    format      ascii;
    class       volScalarField;
    location    "2";
    object      H;
}
// * * * * * * * * * * * * * * * * * * * * * * * * * * * * * * * * * * * * * //

dimensions      [0 2 -2 0 0 0 0];

internalField   nonuniform List<scalar> 
8000
(
-11980.2
-11480.6
-10980.9
-10481.1
-9981.13
-9481.05
-8980.91
-8480.82
-7980.91
-7481.36
-6982.36
-6484.15
-5986.99
-5491.13
-4996.86
-4504.45
-4014.12
-3526.07
-3040.42
-2557.12
-2075.96
-1596.4
-1117.55
-638.033
-10.3996
-7.69332
-7.53595
-7.38044
-7.22654
-7.07412
-6.92316
-6.77368
-6.62575
-6.47942
-6.33477
-6.19188
-6.0508
-5.91161
-5.77435
-5.63906
-5.5058
-5.37457
-5.24542
-5.11836
-4.99341
-4.87057
-4.74986
-4.63126
-4.5148
-4.40045
-11979.7
-11479.1
-10978.5
-10478.2
-9977.95
-9478.04
-8978.52
-8479.53
-7981.24
-7483.84
-6987.54
-6492.55
-5999.08
-5507.31
-5017.4
-4529.42
-4043.38
-3559.12
-3076.32
-2594.37
-2112.38
-1628.99
-1142.31
-649.738
-10.0589
-7.47868
-7.40112
-7.31749
-7.22801
-7.13308
-7.03317
-6.92879
-6.82044
-6.70858
-6.5937
-6.47622
-6.35657
-6.23515
-6.1123
-5.98839
-5.86372
-5.73858
-5.61325
-5.48796
-5.36295
-5.23843
-5.11457
-4.99156
-4.86955
-4.74868
-11979.4
-11478.4
-10977.6
-10477.3
-9977.51
-9478.44
-8980.24
-8483.08
-7987.15
-7492.62
-6999.67
-6508.46
-6019.09
-5531.62
-5046.01
-4562.08
-4079.49
-3597.68
-3115.78
-2632.59
-2146.4
-1654.98
-1155.4
-644.013
-8.64666
-6.47833
-6.5315
-6.56921
-6.59248
-6.60203
-6.59855
-6.58263
-6.55497
-6.51633
-6.46756
-6.40953
-6.34311
-6.26917
-6.18849
-6.10184
-6.00992
-5.9134
-5.81287
-5.70891
-5.60202
-5.49269
-5.38135
-5.2684
-5.15422
-5.03915
-11979.4
-11478.3
-10977.7
-10477.6
-9978.41
-9480.3
-8983.47
-8488.14
-7994.49
-7502.7
-7012.89
-6525.13
-6039.42
-5555.64
-5073.52
-4592.61
-4112.24
-3631.42
-3148.84
-2662.69
-2170.59
-1669.34
-1154.66
-621.142
-7.15206
-5.45163
-5.59007
-5.71021
-5.8167
-5.91625
-6.00659
-6.08302
-6.14201
-6.18216
-6.20381
-6.20829
-6.19735
-6.17275
-6.13614
-6.08897
-6.03251
-5.96789
-5.89608
-5.81795
-5.73427
-5.64571
-5.5529
-5.45637
-5.35661
-5.25409
-11979.6
-11479
-10979.1
-10480.1
-9982.32
-9486.11
-8991.68
-8499.25
-8008.97
-7520.99
-7035.35
-6552.04
-6070.9
-5591.67
-5113.89
-4636.92
-4159.88
-3681.65
-3200.78
-2715.44
-2222.99
-1719.11
-1197.18
-659.166
-190.673
-18.1665
-10.9068
-8.51652
-7.19575
-6.55787
-6.32556
-6.29878
-6.35016
-6.41152
-6.45391
-6.46972
-6.46069
-6.43142
-6.3865
-6.32964
-6.26361
-6.1904
-6.11147
-6.02788
-5.94042
-5.84968
-5.7561
-5.66003
-5.56173
-5.46141
-11980.2
-11480.8
-10982.3
-10485.2
-9989.68
-9496.17
-9004.9
-8516.05
-8029.77
-7546.14
-7065.14
-6586.68
-6110.54
-5636.4
-5163.82
-4692.27
-4221.16
-3750.04
-3278.89
-2808.6
-2341.54
-1881.74
-1433.95
-1000.72
-578.025
-10.683
-8.10323
-8.10307
-8.11919
-8.10274
-8.05862
-7.9904
-7.90142
-7.79523
-7.67556
-7.54605
-7.41
-7.27024
-7.12904
-6.98816
-6.84888
-6.71207
-6.57823
-6.44759
-6.32016
-6.19577
-6.07413
-5.95488
-5.83765
-5.72202
-11980.8
-11482.7
-10985.5
-10489.8
-9995.96
-9504.36
-9015.28
-8528.94
-8045.49
-7565.02
-7087.53
-6612.94
-6141.13
-5671.91
-5205.06
-4740.39
-4277.77
-3817.16
-3358.62
-2902.1
-2447.17
-1992.45
-1534.91
-1068.85
-583.014
-7.09858
-6.03443
-5.81944
-6.06261
-6.24602
-6.3804
-6.47588
-6.54081
-6.58175
-6.60365
-6.61011
-6.60366
-6.58608
-6.55858
-6.52207
-6.47724
-6.42472
-6.36509
-6.29891
-6.22677
-6.14924
-6.06687
-5.98019
-5.88966
-5.79574
-11981.4
-11484.7
-10989
-10494.9
-10002.9
-9513.53
-9026.97
-8543.52
-8063.39
-7586.69
-7113.49
-6643.8
-6177.58
-5714.71
-5255.07
-4798.47
-4344.63
-3893.2
-3443.6
-2994.91
-2545.8
-2094.92
-1643.16
-1198.98
-784.871
-430.304
-11.571
-8.89483
-8.41096
-8.07165
-7.74387
-7.44327
-7.17809
-6.95224
-6.76585
-6.61609
-6.49814
-6.40611
-6.33382
-6.27536
-6.22548
-6.17985
-6.13506
-6.08861
-6.03882
-5.98463
-5.92549
-5.86123
-5.79191
-5.71775
-11982.1
-11486.8
-10992.6
-10500.3
-10010.3
-9523.22
-9039.33
-8558.97
-8082.38
-7609.73
-7141.13
-6676.61
-6216.17
-5759.71
-5307.1
-4858.17
-4412.69
-3970.49
-3531.44
-3095.64
-2663.42
-2235.18
-1810.98
-1389.43
-966.172
-530.472
-6.74351
-5.83702
-5.48457
-5.66276
-5.79162
-5.88041
-5.94116
-5.98275
-6.01123
-6.03033
-6.04205
-6.0472
-6.04595
-6.03812
-6.02345
-6.00179
-5.97312
-5.93756
-5.89541
-5.84704
-5.79287
-5.73336
-5.66896
-5.6001
-11983
-11489.4
-10997.1
-10506.9
-10019.3
-9534.95
-9054.19
-8577.37
-8104.76
-7636.56
-7172.89
-6713.8
-6259.3
-5809.33
-5363.82
-4922.64
-4485.64
-4052.64
-3623.41
-3197.57
-2774.45
-2352.85
-1931.16
-1508.89
-1092.1
-702.473
-375.409
-10.8788
-8.39626
-7.73125
-7.32032
-6.95413
-6.64299
-6.38886
-6.18919
-6.03813
-5.92776
-5.84937
-5.7944
-5.75512
-5.72503
-5.69901
-5.67327
-5.6452
-5.61314
-5.57619
-5.53395
-5.48638
-5.43365
-5.37602
-11984.1
-11492.9
-11003
-10515.4
-10030.6
-9549.26
-9071.78
-8598.53
-8129.77
-7665.71
-7206.47
-6752.12
-6302.66
-5858.05
-5418.23
-4983.08
-4552.45
-4126.2
-3704.2
-3286.4
-2872.94
-2464.25
-2060.96
-1663.53
-1271.25
-880.536
-482.976
-5.89487
-4.87239
-4.7585
-4.97436
-5.14426
-5.27602
-5.37715
-5.45317
-5.50824
-5.54561
-5.56788
-5.57715
-5.57512
-5.56324
-5.54272
-5.5146
-5.47978
-5.43905
-5.39308
-5.34243
-5.2876
-5.22897
-5.16687
-11985.5
-11496.8
-11009.6
-10524.6
-10042.4
-9563.76
-9089.01
-8618.55
-8152.66
-7691.53
-7235.31
-6784.04
-6337.77
-5896.47
-5460.11
-5028.62
-4601.95
-4180.01
-3762.72
-3349.95
-2941.49
-2536.89
-2135.33
-1735.25
-1333.48
-923.288
-490.406
-5.35243
-0.641348
-2.91095
-4.26973
-4.85738
-5.11784
-5.25563
-5.33952
-5.39128
-5.41945
-5.42895
-5.42348
-5.40603
-5.37905
-5.34447
-5.30382
-5.25824
-5.20859
-5.15546
-5.09928
-5.04034
-4.97881
-4.91482
-11986.9
-11501.4
-11017.2
-10535.4
-10056.4
-9580.92
-9109.35
-8642.02
-8179.19
-7721.02
-7267.63
-6819.07
-6375.38
-5936.55
-5502.58
-5073.43
-4649.05
-4229.4
-3814.42
-3404.05
-2998.33
-2597.52
-2202.51
-1815.41
-1440.25
-1082.84
-748.284
-435.642
-9.95605
-7.62191
-7.43697
-7.38448
-7.29937
-7.18703
-7.05332
-6.9038
-6.74359
-6.57724
-6.40863
-6.24094
-6.0767
-5.91768
-5.76507
-5.6195
-5.48117
-5.34991
-5.22533
-5.10687
-4.99383
-4.88546
-11988.5
-11506
-11024.9
-10546.1
-10070.1
-9597.34
-9128.27
-8663.12
-8202.09
-7745.28
-7292.79
-6844.66
-6400.93
-5961.64
-5526.83
-5096.57
-4670.94
-4250.11
-3834.37
-3424.21
-3020.42
-2624.19
-2237.1
-1860.92
-1497.05
-1145.58
-803.984
-465.7
-8.34298
-6.47631
-6.56804
-6.7066
-6.7972
-6.8446
-6.8535
-6.82852
-6.77414
-6.69473
-6.59446
-6.47726
-6.34676
-6.20625
-6.05863
-5.90642
-5.75177
-5.59644
-5.44188
-5.28923
-5.13937
-4.99301
-11989.5
-11508.9
-11029.5
-10551.8
-10076.5
-9603.81
-9134.07
-8667.44
-8204.08
-7744.06
-7287.46
-6834.38
-6384.91
-5939.2
-5497.45
-5059.89
-4626.86
-4198.8
-3776.29
-3360.1
-2951.24
-2550.97
-2160.69
-1781.78
-1415.28
-1061.75
-722.534
-403.652
-9.04745
-6.77906
-6.74183
-6.74462
-6.75592
-6.76458
-6.76213
-6.74269
-6.70274
-6.64091
-6.55756
-6.4543
-6.33356
-6.19818
-6.05111
-5.89518
-5.73323
-5.56776
-5.40089
-5.23438
-5.06965
-4.90781
-11989.5
-11508.6
-11028.5
-10549.3
-10071.6
-9595.34
-9120.84
-8648.15
-8177.36
-7708.56
-7241.87
-6777.49
-6315.66
-5856.73
-5401.12
-4949.36
-4502.07
-4059.96
-3623.85
-3194.65
-2773.33
-2360.8
-1957.62
-1563.36
-1175.28
-787.508
-394.889
-3.84901
-3.72478
-3.25038
-3.5543
-3.87057
-4.19266
-4.50782
-4.80001
-5.05408
-5.25872
-5.4078
-5.50032
-5.53937
-5.53083
-5.48212
-5.40182
-5.29787
-5.1769
-5.04441
-4.90478
-4.76141
-4.61685
-4.47298
-11987.8
-11503.3
-11018.6
-10533.7
-10048.7
-9563.61
-9078.37
-8593.06
-8107.77
-7622.66
-7137.97
-6654.06
-6171.41
-5690.64
-5212.49
-4737.82
-4267.61
-3802.92
-3344.85
-2894.47
-2452.81
-2020.57
-1597.85
-1183.71
-776.502
-377.388
-3.72083
-2.95289
-2.25416
-2.04958
-2.08659
-2.19876
-2.36404
-2.5601
-2.76686
-2.96817
-3.15242
-3.31231
-3.44416
-3.54772
-3.62465
-3.67749
-3.7084
-3.71984
-3.71438
-3.69444
-3.66227
-3.6199
-3.56911
-3.51144
-11983.1
-11489
-10993.9
-10497.3
-9999.08
-9498.92
-8996.71
-8492.43
-7986.13
-7478.03
-6968.48
-6458.04
-5947.43
-5437.57
-4929.46
-4424.07
-3923.19
-3428.32
-2940.9
-2462.43
-1994.34
-1537.76
-1094.38
-667.094
-261.96
-2.89093
-2.58575
-2.04029
-1.72782
-1.66447
-1.66123
-1.70219
-1.77789
-1.87818
-1.9933
-2.11476
-2.23577
-2.35134
-2.45814
-2.55357
-2.63606
-2.7049
-2.76005
-2.80189
-2.83107
-2.84845
-2.85497
-2.85161
-2.83937
-2.81918
-11976.7
-11469.7
-10961
-10450
-9935.84
-9417.94
-8895.83
-8369.22
-7838.04
-7302.49
-6763.07
-6220.54
-5675.95
-5130.63
-4586.1
-4044.06
-3506.37
-2975.03
-2452.34
-1940.67
-1441.48
-950.439
-463.789
-4.71352
-0.0976881
-0.426726
-0.656192
-0.900886
-1.13395
-1.32787
-1.48961
-1.62599
-1.74276
-1.84434
-1.93389
-2.01356
-2.08468
-2.14796
-2.20372
-2.25207
-2.29299
-2.32648
-2.35255
-2.3713
-2.3829
-2.38762
-2.38577
-2.37774
-2.36394
-2.34481
-11967.3
-11440.8
-10911.6
-10377.9
-9838.52
-9292.17
-8738.05
-8175.73
-7605.24
-7027.06
-6442.21
-5852.14
-5258.71
-4664.06
-4070.52
-3480.53
-2896.63
-2321.79
-1760.16
-1215.54
-697.664
-141.463
-1.74916
-0.052866
-0.241796
-0.451777
-0.65604
-0.843695
-1.01356
-1.16594
-1.30176
-1.42219
-1.52845
-1.62173
-1.70315
-1.77369
-1.83419
-1.88541
-1.92797
-1.96244
-1.98932
-2.0091
-2.02221
-2.02909
-2.03017
-2.02585
-2.01654
-2.00265
-1.98455
-1.96262
-4.28821
-4.17808
-4.07005
-3.96409
-3.86021
-3.75837
-3.65858
-3.56079
-3.46501
-3.3712
-3.27935
-3.18942
-3.10141
-3.01529
-2.93103
-2.84861
-2.76801
-2.6892
-2.61216
-2.53687
-2.46329
-2.39141
-2.32121
-2.25265
-2.18572
-2.12038
-2.05662
-1.99442
-1.93374
-1.87457
-1.81687
-1.76064
-1.70583
-1.65243
-1.60042
-1.54977
-1.50046
-1.45245
-1.40574
-1.36029
-1.31608
-1.27309
-1.2313
-1.19067
-1.15119
-1.11283
-1.07557
-1.03938
-1.00425
-0.970145
-4.62908
-4.51088
-4.39416
-4.27903
-4.16557
-4.05385
-3.94393
-3.83587
-3.72971
-3.6255
-3.52326
-3.42302
-3.32479
-3.2286
-3.13445
-3.04234
-2.95227
-2.86424
-2.77824
-2.69426
-2.61229
-2.5323
-2.45428
-2.3782
-2.30406
-2.23181
-2.16143
-2.09291
-2.0262
-1.96127
-1.89811
-1.83668
-1.77694
-1.71886
-1.66242
-1.60758
-1.5543
-1.50256
-1.45233
-1.40356
-1.35622
-1.3103
-1.26574
-1.22252
-1.18061
-1.13998
-1.10059
-1.06241
-1.02542
-0.989574
-4.9235
-4.80756
-4.6916
-4.57586
-4.46056
-4.34591
-4.2321
-4.11929
-4.00765
-3.89731
-3.7884
-3.68102
-3.57529
-3.47128
-3.36907
-3.26873
-3.17031
-3.07387
-2.97943
-2.88703
-2.79669
-2.70843
-2.62225
-2.53817
-2.45618
-2.37627
-2.29843
-2.22265
-2.14891
-2.07719
-2.00747
-1.93971
-1.8739
-1.80999
-1.74797
-1.68778
-1.62941
-1.57281
-1.51794
-1.46477
-1.41326
-1.36338
-1.31507
-1.26831
-1.22306
-1.17927
-1.13691
-1.09594
-1.05632
-1.01801
-5.14921
-5.04236
-4.93388
-4.82412
-4.71339
-4.60197
-4.49014
-4.37817
-4.26629
-4.15472
-4.04369
-3.93338
-3.82398
-3.71565
-3.60855
-3.50281
-3.39856
-3.2959
-3.19495
-3.09578
-2.99847
-2.90309
-2.80969
-2.71832
-2.62901
-2.5418
-2.4567
-2.37373
-2.2929
-2.21421
-2.13764
-2.0632
-1.99087
-1.92063
-1.85245
-1.78632
-1.7222
-1.66007
-1.59988
-1.5416
-1.4852
-1.43063
-1.37786
-1.32684
-1.27754
-1.2299
-1.18389
-1.13947
-1.09658
-1.05519
-5.35926
-5.25543
-5.15009
-5.04339
-4.93549
-4.82657
-4.7168
-4.60638
-4.49549
-4.38434
-4.2731
-4.16199
-4.05118
-3.94087
-3.83123
-3.72243
-3.61463
-3.50798
-3.40262
-3.29868
-3.19628
-3.09553
-2.99651
-2.89932
-2.80403
-2.71071
-2.61941
-2.53017
-2.44304
-2.35804
-2.2752
-2.19453
-2.11604
-2.03973
-1.96559
-1.89362
-1.82379
-1.75609
-1.6905
-1.62699
-1.56552
-1.50607
-1.44859
-1.39305
-1.33941
-1.28763
-1.23765
-1.18944
-1.14296
-1.09815
-5.60762
-5.4941
-5.38114
-5.26851
-5.15601
-5.04349
-4.93089
-4.81816
-4.70531
-4.59237
-4.47942
-4.36656
-4.2539
-4.14156
-4.02968
-3.9184
-3.80785
-3.69819
-3.58954
-3.48205
-3.37583
-3.27102
-3.16771
-3.06603
-2.96606
-2.86789
-2.77161
-2.67727
-2.58495
-2.4947
-2.40655
-2.32055
-2.23673
-2.1551
-2.07569
-1.99849
-1.92351
-1.85074
-1.78018
-1.7118
-1.64559
-1.58153
-1.51957
-1.4597
-1.40187
-1.34605
-1.2922
-1.24027
-1.19021
-1.142
-5.69881
-5.59923
-5.49732
-5.39337
-5.28763
-5.18034
-5.07172
-4.96198
-4.85131
-4.7399
-4.62795
-4.51561
-4.40307
-4.2905
-4.17806
-4.06591
-3.95423
-3.84315
-3.73282
-3.6234
-3.51502
-3.4078
-3.30189
-3.19738
-3.09441
-2.99306
-2.89343
-2.79561
-2.69969
-2.60572
-2.51377
-2.4239
-2.33615
-2.25056
-2.16716
-2.08596
-2.007
-1.93027
-1.85578
-1.78352
-1.71349
-1.64566
-1.58004
-1.51657
-1.45525
-1.39604
-1.3389
-1.28379
-1.23068
-1.17952
-5.63907
-5.5562
-5.46952
-5.3794
-5.28619
-5.19021
-5.09177
-4.99116
-4.88864
-4.78446
-4.67888
-4.57213
-4.46443
-4.35601
-4.24709
-4.13786
-4.02853
-3.9193
-3.81035
-3.70186
-3.59401
-3.48696
-3.38086
-3.27586
-3.1721
-3.06971
-2.96881
-2.86951
-2.7719
-2.67608
-2.58214
-2.49014
-2.40015
-2.31224
-2.22643
-2.14278
-2.06131
-1.98205
-1.90502
-1.83021
-1.75765
-1.68731
-1.61919
-1.55328
-1.48956
-1.428
-1.36857
-1.31124
-1.25598
-1.20273
-5.52717
-5.45051
-5.37043
-5.2872
-5.20108
-5.11228
-5.02102
-4.92751
-4.83192
-4.73447
-4.63533
-4.53471
-4.4328
-4.32981
-4.22593
-4.12138
-4.01634
-3.91102
-3.80562
-3.70031
-3.59528
-3.49072
-3.38679
-3.28366
-3.18148
-3.0804
-2.98055
-2.88207
-2.78507
-2.68967
-2.59596
-2.50403
-2.41396
-2.32583
-2.23969
-2.15559
-2.07359
-1.99372
-1.916
-1.84046
-1.76711
-1.69595
-1.62698
-1.5602
-1.49559
-1.43314
-1.37283
-1.31462
-1.25849
-1.2044
-5.31382
-5.24739
-5.17706
-5.10312
-5.02582
-4.94542
-4.86215
-4.77623
-4.68789
-4.59737
-4.50488
-4.41063
-4.31483
-4.21769
-4.11942
-4.02021
-3.92028
-3.81983
-3.71905
-3.61815
-3.5173
-3.4167
-3.31651
-3.21692
-3.11807
-3.02013
-2.92323
-2.82752
-2.73311
-2.64013
-2.54869
-2.45887
-2.37077
-2.28446
-2.20002
-2.11751
-2.03697
-1.95845
-1.88199
-1.80762
-1.73534
-1.66519
-1.59715
-1.53123
-1.46743
-1.40573
-1.34612
-1.28857
-1.23305
-1.17955
-5.10155
-5.03323
-4.96208
-4.88825
-4.81193
-4.73326
-4.6524
-4.56948
-4.48462
-4.39795
-4.30962
-4.21978
-4.12857
-4.03616
-3.94272
-3.84841
-3.75342
-3.65791
-3.56206
-3.46606
-3.37006
-3.27424
-3.17876
-3.08379
-2.98947
-2.89596
-2.80339
-2.71188
-2.62158
-2.53258
-2.445
-2.35893
-2.27446
-2.19166
-2.11062
-2.03139
-1.95402
-1.87857
-1.80505
-1.73352
-1.66398
-1.59646
-1.53096
-1.46749
-1.40603
-1.34659
-1.28915
-1.23368
-1.18017
-1.1286
-4.84843
-4.77973
-4.7088
-4.63572
-4.56056
-4.48339
-4.40431
-4.32344
-4.2409
-4.1568
-4.0713
-3.98454
-3.89666
-3.80782
-3.71816
-3.62786
-3.53706
-3.44591
-3.35459
-3.26323
-3.17199
-3.08102
-2.99046
-2.90046
-2.81114
-2.72264
-2.63508
-2.54857
-2.46324
-2.37917
-2.29646
-2.21521
-2.13548
-2.05736
-1.98091
-1.90617
-1.83321
-1.76206
-1.69276
-1.62532
-1.55978
-1.49615
-1.43442
-1.37462
-1.31672
-1.26072
-1.20662
-1.15438
-1.104
-1.05543
-4.78106
-4.67995
-4.58152
-4.48522
-4.39059
-4.29725
-4.20489
-4.11324
-4.02212
-3.93138
-3.84092
-3.75067
-3.6606
-3.57069
-3.48096
-3.39144
-3.30216
-3.21318
-3.12458
-3.03641
-2.94878
-2.86175
-2.77543
-2.68989
-2.60524
-2.52157
-2.43896
-2.3575
-2.27728
-2.19837
-2.12084
-2.04478
-1.97023
-1.89726
-1.82592
-1.75625
-1.68829
-1.62207
-1.55762
-1.49495
-1.43409
-1.37503
-1.31779
-1.26236
-1.20872
-1.15688
-1.10681
-1.0585
-1.01192
-0.967045
-4.8506
-4.71242
-4.5786
-4.44915
-4.32397
-4.2029
-4.08572
-3.9722
-3.86206
-3.75503
-3.65085
-3.54927
-3.45003
-3.35294
-3.25779
-3.16443
-3.0727
-2.9825
-2.89375
-2.80636
-2.72029
-2.63553
-2.55204
-2.46985
-2.38895
-2.30938
-2.23115
-2.15431
-2.07889
-2.00493
-1.93247
-1.86155
-1.79219
-1.72444
-1.65833
-1.59388
-1.53111
-1.47005
-1.41069
-1.35306
-1.29716
-1.24298
-1.19052
-1.13977
-1.09073
-1.04337
-0.997668
-0.953611
-0.911171
-0.870319
-4.74971
-4.59595
-4.44695
-4.30293
-4.164
-4.03014
-3.90124
-3.77712
-3.65756
-3.5423
-3.43108
-3.3236
-3.21961
-3.11882
-3.02099
-2.92589
-2.83331
-2.74307
-2.65501
-2.56898
-2.48489
-2.40263
-2.32214
-2.24335
-2.16623
-2.09075
-2.0169
-1.94466
-1.87403
-1.80501
-1.73762
-1.67187
-1.60775
-1.54528
-1.48447
-1.42533
-1.36786
-1.31206
-1.25793
-1.20547
-1.15466
-1.10551
-1.058
-1.0121
-0.967803
-0.925086
-0.883923
-0.844288
-0.806153
-0.769486
-4.33115
-4.19229
-4.05701
-3.92567
-3.79849
-3.6755
-3.55668
-3.44191
-3.33104
-3.22387
-3.12021
-3.01984
-2.92254
-2.82813
-2.7364
-2.64718
-2.56032
-2.47567
-2.39311
-2.31253
-2.23386
-2.15701
-2.08193
-2.00858
-1.93691
-1.86691
-1.79856
-1.73185
-1.66677
-1.60332
-1.5415
-1.48131
-1.42275
-1.36582
-1.31052
-1.25684
-1.20479
-1.15436
-1.10552
-1.05829
-1.01263
-0.968532
-0.925977
-0.884941
-0.8454
-0.807329
-0.770699
-0.73548
-0.701641
-0.669151
-3.44822
-3.3806
-3.30955
-3.23587
-3.16026
-3.08328
-3.00542
-2.92705
-2.84851
-2.77006
-2.69191
-2.61424
-2.53719
-2.46089
-2.38542
-2.31088
-2.23734
-2.16485
-2.09347
-2.02325
-1.95423
-1.88646
-1.81998
-1.75481
-1.691
-1.62857
-1.56755
-1.50796
-1.44983
-1.39318
-1.33802
-1.28437
-1.23222
-1.18159
-1.13248
-1.08489
-1.03881
-0.994225
-0.951132
-0.909514
-0.869352
-0.830625
-0.793313
-0.757389
-0.722827
-0.689598
-0.657674
-0.627022
-0.597612
-0.56941
-2.79198
-2.75862
-2.71989
-2.67652
-2.62918
-2.57847
-2.52493
-2.46905
-2.41127
-2.35197
-2.2915
-2.23017
-2.16825
-2.10598
-2.04359
-1.98126
-1.91917
-1.85748
-1.79632
-1.73582
-1.67608
-1.61722
-1.55931
-1.50243
-1.44665
-1.39203
-1.33862
-1.28646
-1.2356
-1.18605
-1.13785
-1.09101
-1.04554
-1.00145
-0.958735
-0.917402
-0.877439
-0.838836
-0.801581
-0.765655
-0.73104
-0.697713
-0.665651
-0.634827
-0.605216
-0.576787
-0.549511
-0.523359
-0.498298
-0.474299
-2.32082
-2.2924
-2.26003
-2.22412
-2.1851
-2.14337
-2.09929
-2.0532
-2.00545
-1.95631
-1.90607
-1.85499
-1.80328
-1.75117
-1.69885
-1.6465
-1.59427
-1.54232
-1.49077
-1.43975
-1.38935
-1.33968
-1.29082
-1.24284
-1.1958
-1.14977
-1.10479
-1.06089
-1.01812
-0.976495
-0.936036
-0.896757
-0.858666
-0.821769
-0.786063
-0.751545
-0.718206
-0.686035
-0.655018
-0.625138
-0.596376
-0.568711
-0.54212
-0.51658
-0.492066
-0.468551
-0.446009
-0.424413
-0.403735
-0.383948
-1.93724
-1.90875
-1.87749
-1.84377
-1.8079
-1.77016
-1.73082
-1.69013
-1.64833
-1.60564
-1.56226
-1.51838
-1.47418
-1.42981
-1.38542
-1.34115
-1.29712
-1.25344
-1.21021
-1.16753
-1.12547
-1.0841
-1.04349
-1.0037
-0.964758
-0.926719
-0.889611
-0.853461
-0.818292
-0.784117
-0.75095
-0.718795
-0.687656
-0.65753
-0.628414
-0.6003
-0.573177
-0.547032
-0.521851
-0.497617
-0.474312
-0.451916
-0.430408
-0.409768
-0.389972
-0.370999
-0.352824
-0.335425
-0.318778
-0.302859
-0.944617
-0.927036
-0.909647
-0.89245
-0.875445
-0.858633
-0.842014
-0.825589
-0.809357
-0.79332
-0.777478
-0.761829
-0.746376
-0.731117
-0.716053
-0.701184
-0.68651
-0.672031
-0.657745
-0.643655
-0.629758
-0.616055
-0.602545
-0.589229
-0.576105
-0.563173
-0.550433
-0.537883
-0.525525
-0.513356
-0.501376
-0.489585
-0.477981
-0.466564
-0.455332
-0.444286
-0.433424
-0.422745
-0.412248
-0.401931
-0.391795
-0.381838
-0.372058
-0.362454
-0.353026
-0.343772
-0.33469
-0.325779
-0.317038
-0.308466
-0.30006
-0.291821
-0.283745
-0.275832
-0.26808
-0.260487
-0.253052
-0.245773
-0.238649
-0.231678
-0.224857
-0.218187
-0.211664
-0.205287
-0.199055
-0.192964
-0.187015
-0.181204
-0.175531
-0.169992
-0.164587
-0.159313
-0.154169
-0.149153
-0.144262
-0.139495
-0.134851
-0.130326
-0.125919
-0.121629
-0.117453
-0.113389
-0.109436
-0.105591
-0.101852
-0.0982189
-0.094688
-0.091258
-0.0879269
-0.0846928
-0.0815537
-0.0785079
-0.0755534
-0.0726883
-0.0699109
-0.0672191
-0.0646113
-0.0620855
-0.0596399
-0.0572728
-0.0549823
-0.0527667
-0.0506242
-0.048553
-0.0465516
-0.044618
-0.0427507
-0.0409481
-0.0392083
-0.0375299
-0.0359111
-0.0343505
-0.0328464
-0.0313973
-0.0300017
-0.0286581
-0.027365
-0.026121
-0.0249245
-0.0237743
-0.0226689
-0.0216071
-0.0205873
-0.0196084
-0.0186691
-0.0177681
-0.0169041
-0.016076
-0.0152826
-0.0145227
-0.0137952
-0.013099
-0.012433
-0.0117962
-0.0111874
-0.0106058
-0.0100504
-0.00952007
-0.00901403
-0.00853133
-0.00807108
-0.00763244
-0.00721456
-0.00681663
-0.00643787
-0.0060775
-0.00573479
-0.00540901
-0.00509947
-0.00480548
-0.00452639
-0.00426157
-0.0040104
-0.00377229
-0.00354667
-0.00333297
-0.00313067
-0.00293925
-0.0027582
-0.00258705
-0.00242535
-0.00227263
-0.00212847
-0.00199246
-0.00186421
-0.00174332
-0.00162944
-0.00152222
-0.00142131
-0.0013264
-0.00123718
-0.00115334
-0.00107461
-0.00100071
-0.000931387
-0.00086639
-0.000805483
-0.00074844
-0.000695046
-0.000645095
-0.000598392
-0.00055475
-0.000513992
-0.000475949
-0.000440462
-0.000407378
-0.000376552
-0.000347848
-0.000321136
-0.000296292
-0.000273201
-0.000251751
-0.000231838
-0.000213365
-0.000196237
-0.000180367
-0.000165671
-0.000152073
-0.000139497
-0.000127876
-0.000117143
-0.000107237
-9.81017e-05
-8.96817e-05
-8.19267e-05
-7.47892e-05
-6.82245e-05
-6.21911e-05
-5.66499e-05
-5.15644e-05
-4.69005e-05
-4.26264e-05
-3.87124e-05
-3.5131e-05
-3.18562e-05
-2.88642e-05
-2.61326e-05
-2.36407e-05
-2.13692e-05
-1.93003e-05
-1.74175e-05
-1.57053e-05
-1.41496e-05
-1.27373e-05
-1.14561e-05
-1.0295e-05
-9.24344e-06
-8.29202e-06
-7.43193e-06
-6.65508e-06
-5.95403e-06
-5.32195e-06
-4.75256e-06
-4.24013e-06
-3.77936e-06
-3.36545e-06
-2.99396e-06
-2.6609e-06
-2.36254e-06
-2.09552e-06
-1.85684e-06
-1.64366e-06
-1.45343e-06
-1.2839e-06
-1.13292e-06
-9.98647e-07
-8.7933e-07
-7.73423e-07
-6.79526e-07
-5.96354e-07
-5.22773e-07
-4.5774e-07
-4.0034e-07
-3.49722e-07
-3.05149e-07
-2.65926e-07
-2.31472e-07
-2.0123e-07
-1.74723e-07
-1.51516e-07
-1.3122e-07
-1.13497e-07
-9.8045e-08
-8.45742e-08
-7.28589e-08
-6.26907e-08
-5.38532e-08
-4.62047e-08
-3.9583e-08
-3.3864e-08
-2.89288e-08
-2.46736e-08
-2.10158e-08
-1.78669e-08
-1.51694e-08
-1.287e-08
-1.08896e-08
-9.19521e-09
-7.7592e-09
-6.53614e-09
-5.49378e-09
-4.60141e-09
-3.87127e-09
-3.22923e-09
-2.69461e-09
-2.23043e-09
-1.86563e-09
-1.53377e-09
-1.28226e-09
-1.04321e-09
-8.66833e-10
-6.79565e-10
-5.69032e-10
-4.60306e-10
-3.61505e-10
-2.5736e-10
-2.0319e-10
-1.56583e-10
-8.20523e-11
-5.60356e-11
-0.962792
-0.944367
-0.926161
-0.908172
-0.890403
-0.872851
-0.855518
-0.838402
-0.821505
-0.804825
-0.788362
-0.772116
-0.756087
-0.740274
-0.724676
-0.709294
-0.694126
-0.679172
-0.664432
-0.649904
-0.635587
-0.621482
-0.607588
-0.593902
-0.580425
-0.567156
-0.554094
-0.541236
-0.528584
-0.516135
-0.503888
-0.491842
-0.479997
-0.46835
-0.4569
-0.445647
-0.434588
-0.423723
-0.41305
-0.402568
-0.392274
-0.382169
-0.37225
-0.362515
-0.352964
-0.343594
-0.334404
-0.325392
-0.316557
-0.307897
-0.29941
-0.291095
-0.282949
-0.274972
-0.26716
-0.259513
-0.252029
-0.244705
-0.23754
-0.230533
-0.22368
-0.216981
-0.210432
-0.204034
-0.197782
-0.191676
-0.185714
-0.179893
-0.174212
-0.168668
-0.16326
-0.157985
-0.152842
-0.147829
-0.142943
-0.138183
-0.133546
-0.129031
-0.124635
-0.120356
-0.116193
-0.112144
-0.108205
-0.104377
-0.100655
-0.0970394
-0.0935268
-0.0901156
-0.086804
-0.0835897
-0.080471
-0.0774459
-0.0745124
-0.0716687
-0.0689127
-0.0662426
-0.0636566
-0.0611527
-0.0587291
-0.0563839
-0.0541154
-0.0519217
-0.049801
-0.0477516
-0.0457717
-0.0438596
-0.0420136
-0.040232
-0.0385131
-0.0368552
-0.0352568
-0.0337163
-0.032232
-0.0308024
-0.029426
-0.0281012
-0.0268266
-0.0256007
-0.0244221
-0.0232894
-0.0222011
-0.021156
-0.0201526
-0.0191897
-0.018266
-0.0173802
-0.0165311
-0.0157174
-0.0149381
-0.014192
-0.0134778
-0.0127946
-0.0121411
-0.0115165
-0.0109196
-0.0103495
-0.00980517
-0.00928565
-0.00879002
-0.00831739
-0.00786688
-0.00743763
-0.00702881
-0.00663962
-0.00626928
-0.00591702
-0.00558212
-0.00526384
-0.00496152
-0.00467446
-0.00440203
-0.00414359
-0.00389855
-0.00366631
-0.0034463
-0.00323798
-0.00304081
-0.0028543
-0.00267795
-0.00251128
-0.00235384
-0.0022052
-0.00206492
-0.0019326
-0.00180786
-0.00169032
-0.00157961
-0.0014754
-0.00137735
-0.00128515
-0.00119849
-0.00111709
-0.00104066
-0.000968933
-0.000901665
-0.000838608
-0.000779533
-0.000724217
-0.000672449
-0.000624031
-0.000578769
-0.000536482
-0.000496997
-0.00046015
-0.000425785
-0.000393752
-0.000363912
-0.00033613
-0.000310281
-0.000286243
-0.000263905
-0.000243158
-0.000223901
-0.000206038
-0.000189479
-0.000174138
-0.000159935
-0.000146793
-0.000134642
-0.000123414
-0.000113046
-0.000103478
-9.46552e-05
-8.65242e-05
-7.90362e-05
-7.21451e-05
-6.58077e-05
-5.99838e-05
-5.46354e-05
-4.97273e-05
-4.52265e-05
-4.11023e-05
-3.73258e-05
-3.38704e-05
-3.07112e-05
-2.78249e-05
-2.519e-05
-2.27865e-05
-2.05957e-05
-1.86005e-05
-1.67848e-05
-1.51337e-05
-1.36337e-05
-1.22719e-05
-1.10367e-05
-9.91723e-06
-8.90352e-06
-7.98637e-06
-7.15732e-06
-6.40852e-06
-5.73285e-06
-5.12365e-06
-4.57494e-06
-4.08112e-06
-3.63715e-06
-3.23833e-06
-2.88043e-06
-2.55956e-06
-2.27216e-06
-2.01499e-06
-1.7851e-06
-1.57979e-06
-1.39664e-06
-1.23341e-06
-1.0881e-06
-9.58847e-07
-8.44025e-07
-7.42126e-07
-6.51796e-07
-5.71807e-07
-5.01033e-07
-4.38535e-07
-3.8336e-07
-3.3473e-07
-2.91905e-07
-2.54251e-07
-2.21169e-07
-1.92161e-07
-1.66728e-07
-1.44479e-07
-1.25031e-07
-1.08057e-07
-9.32578e-08
-8.03803e-08
-6.91739e-08
-5.94553e-08
-5.10231e-08
-4.37213e-08
-3.74136e-08
-3.19565e-08
-2.72683e-08
-2.32233e-08
-1.97373e-08
-1.67602e-08
-1.42158e-08
-1.2022e-08
-1.01589e-08
-8.55816e-09
-7.20367e-09
-6.05308e-09
-5.07942e-09
-4.24604e-09
-3.56545e-09
-2.94897e-09
-2.4602e-09
-2.03027e-09
-1.70557e-09
-1.39466e-09
-1.14614e-09
-9.37015e-10
-7.74534e-10
-6.19113e-10
-4.93796e-10
-3.93579e-10
-3.13029e-10
-2.57293e-10
-1.66422e-10
-1.44357e-10
-7.4625e-11
-5.24516e-11
-0.989445
-0.969814
-0.950436
-0.931312
-0.912442
-0.893824
-0.875458
-0.857344
-0.839481
-0.821867
-0.804502
-0.787385
-0.770516
-0.753892
-0.737514
-0.72138
-0.705488
-0.689838
-0.674428
-0.659257
-0.644324
-0.629627
-0.615164
-0.600935
-0.586938
-0.573171
-0.559632
-0.546321
-0.533234
-0.520372
-0.507731
-0.49531
-0.483108
-0.471122
-0.459351
-0.447793
-0.436446
-0.425307
-0.414376
-0.40365
-0.393127
-0.382805
-0.372683
-0.362757
-0.353027
-0.343489
-0.334143
-0.324985
-0.316015
-0.307228
-0.298625
-0.290201
-0.281956
-0.273887
-0.265992
-0.258269
-0.250715
-0.243329
-0.236107
-0.229049
-0.222152
-0.215413
-0.208831
-0.202403
-0.196127
-0.19
-0.184021
-0.178188
-0.172498
-0.166948
-0.161538
-0.156264
-0.151124
-0.146116
-0.141239
-0.136489
-0.131865
-0.127364
-0.122984
-0.118723
-0.11458
-0.110551
-0.106634
-0.102829
-0.0991312
-0.0955401
-0.0920533
-0.0886686
-0.0853839
-0.0821973
-0.0791066
-0.0761099
-0.0732051
-0.0703903
-0.0676635
-0.0650227
-0.062466
-0.0599914
-0.0575971
-0.0552812
-0.0530418
-0.050877
-0.0487851
-0.0467642
-0.0448126
-0.0429284
-0.04111
-0.0393557
-0.0376637
-0.0360324
-0.0344601
-0.0329453
-0.0314862
-0.0300815
-0.0287294
-0.0274285
-0.0261773
-0.0249743
-0.0238181
-0.0227073
-0.0216404
-0.0206162
-0.0196332
-0.0186901
-0.0177857
-0.0169188
-0.016088
-0.0152922
-0.0145302
-0.0138008
-0.013103
-0.0124355
-0.0117974
-0.0111877
-0.0106051
-0.0100489
-0.009518
-0.00901145
-0.00852835
-0.00806781
-0.00762895
-0.00721094
-0.00681294
-0.00643417
-0.00607385
-0.00573122
-0.00540557
-0.00509618
-0.00480238
-0.0045235
-0.00425891
-0.00400798
-0.00377012
-0.00354475
-0.00333131
-0.00312927
-0.00293811
-0.00275732
-0.00258642
-0.00242495
-0.00227247
-0.00212853
-0.00199274
-0.00186469
-0.00174399
-0.00163029
-0.00152324
-0.00142248
-0.00132771
-0.00123861
-0.00115489
-0.00107626
-0.00100246
-0.000933212
-0.000868283
-0.000807432
-0.000750435
-0.000697077
-0.000647152
-0.000600466
-0.000556833
-0.000516076
-0.000478027
-0.000442527
-0.000409423
-0.000378573
-0.000349839
-0.000323091
-0.000298208
-0.000275074
-0.000253578
-0.000233616
-0.000215091
-0.00019791
-0.000181985
-0.000167233
-0.000153578
-0.000140945
-0.000129265
-0.000118474
-0.000108511
-9.93178e-05
-9.08411e-05
-8.30302e-05
-7.58377e-05
-6.92193e-05
-6.31334e-05
-5.7541e-05
-5.24057e-05
-4.76937e-05
-4.3373e-05
-3.94142e-05
-3.57895e-05
-3.24733e-05
-2.94415e-05
-2.66719e-05
-2.41437e-05
-2.18377e-05
-1.9736e-05
-1.7822e-05
-1.60803e-05
-1.44967e-05
-1.30581e-05
-1.17522e-05
-1.05677e-05
-9.49436e-06
-8.52248e-06
-7.64328e-06
-6.84856e-06
-6.13088e-06
-5.48333e-06
-4.89958e-06
-4.37383e-06
-3.90075e-06
-3.47547e-06
-3.09351e-06
-2.75078e-06
-2.44357e-06
-2.16845e-06
-1.92232e-06
-1.70233e-06
-1.50593e-06
-1.33075e-06
-1.17466e-06
-1.03576e-06
-9.1223e-07
-8.02537e-07
-7.0523e-07
-6.18972e-07
-5.42648e-07
-4.75155e-07
-4.15543e-07
-3.62963e-07
-3.16643e-07
-2.75881e-07
-2.40049e-07
-2.08605e-07
-1.81031e-07
-1.56896e-07
-1.35781e-07
-1.17347e-07
-1.01279e-07
-8.7272e-08
-7.51006e-08
-6.45241e-08
-5.53543e-08
-4.74133e-08
-4.05449e-08
-3.46206e-08
-2.95146e-08
-2.51049e-08
-2.13398e-08
-1.808e-08
-1.53151e-08
-1.2939e-08
-1.09166e-08
-9.18156e-09
-7.71363e-09
-6.46432e-09
-5.42961e-09
-4.50452e-09
-3.77556e-09
-3.13572e-09
-2.5985e-09
-2.13513e-09
-1.77896e-09
-1.46335e-09
-1.18872e-09
-9.84972e-10
-7.82127e-10
-6.56486e-10
-5.16873e-10
-4.13426e-10
-3.37283e-10
-2.57042e-10
-1.97602e-10
-1.55438e-10
-1.15491e-10
-6.17625e-11
-5.56362e-11
-1.02438
-1.00322
-0.982362
-0.961797
-0.941526
-0.921548
-0.901862
-0.882467
-0.863362
-0.844545
-0.826015
-0.807771
-0.789811
-0.772134
-0.754738
-0.737621
-0.720782
-0.704219
-0.68793
-0.671912
-0.656165
-0.640686
-0.625472
-0.610523
-0.595835
-0.581406
-0.567234
-0.553316
-0.539651
-0.526236
-0.513068
-0.500145
-0.487465
-0.475024
-0.462821
-0.450853
-0.439117
-0.427611
-0.416332
-0.405277
-0.394444
-0.383831
-0.373433
-0.36325
-0.353278
-0.343514
-0.333956
-0.324601
-0.315447
-0.30649
-0.297729
-0.28916
-0.28078
-0.272588
-0.26458
-0.256754
-0.249107
-0.241636
-0.234339
-0.227214
-0.220256
-0.213465
-0.206837
-0.20037
-0.194061
-0.187908
-0.181907
-0.176057
-0.170355
-0.164799
-0.159385
-0.154112
-0.148977
-0.143978
-0.139111
-0.134376
-0.129768
-0.125287
-0.120929
-0.116692
-0.112574
-0.108573
-0.104685
-0.10091