/*--------------------------------*- C++ -*----------------------------------*\
| =========                 |                                                 |
| \\      /  F ield         | OpenFOAM: The Open Source CFD Toolbox           |
|  \\    /   O peration     | Version:  2.4.0                                 |
|   \\  /    A nd           | Web:      www.OpenFOAM.org                      |
|    \\/     M anipulation  |                                                 |
\*---------------------------------------------------------------------------*/
FoamFile
{
    version     2.0;
    format      ascii;
    class       volScalarField;
    location    "2";
    object      p;
}
// * * * * * * * * * * * * * * * * * * * * * * * * * * * * * * * * * * * * * //

dimensions      [1 -1 -2 0 0 0 0];

internalField   nonuniform List<scalar> 
8000
(
-0.603828
-0.602781
-0.601636
-0.600586
-0.599625
-0.59873
-0.597891
-0.597111
-0.596388
-0.595725
-0.595121
-0.594579
-0.594095
-0.59367
-0.593291
-0.592975
-0.592846
-0.593182
-0.593673
-0.591119
-0.578777
-0.564562
-0.631013
-0.942137
-1.21576
-0.438323
-0.437657
-0.437801
-0.437841
-0.437838
-0.437831
-0.437826
-0.437822
-0.437817
-0.437811
-0.437805
-0.437798
-0.43779
-0.437782
-0.437773
-0.437763
-0.437753
-0.437743
-0.437732
-0.43772
-0.437708
-0.437696
-0.437683
-0.43767
-0.437657
-0.638288
-0.636025
-0.633595
-0.631421
-0.629482
-0.627729
-0.626138
-0.624711
-0.623442
-0.622336
-0.621382
-0.62059
-0.619943
-0.619449
-0.619076
-0.618855
-0.618902
-0.619565
-0.620494
-0.618082
-0.604341
-0.587497
-0.661103
-1.01985
-1.34668
-0.460051
-0.459363
-0.459517
-0.459553
-0.459547
-0.459536
-0.459527
-0.459518
-0.459508
-0.459497
-0.459484
-0.459471
-0.459456
-0.45944
-0.459423
-0.459406
-0.459387
-0.459368
-0.459349
-0.459328
-0.459307
-0.459286
-0.459264
-0.459241
-0.459218
-0.643774
-0.641633
-0.639265
-0.636991
-0.634785
-0.632609
-0.630457
-0.628334
-0.626246
-0.624196
-0.622186
-0.620213
-0.618274
-0.61635
-0.614408
-0.612438
-0.610572
-0.609186
-0.607914
-0.602246
-0.581654
-0.553623
-0.630878
-1.07068
-1.57561
-0.481914
-0.481214
-0.481377
-0.481406
-0.481393
-0.481375
-0.481358
-0.481339
-0.481318
-0.481294
-0.481269
-0.481242
-0.481213
-0.481182
-0.481151
-0.481118
-0.481085
-0.48105
-0.481015
-0.480979
-0.480943
-0.480907
-0.48087
-0.480833
-0.480796
-0.610352
-0.608253
-0.605382
-0.602053
-0.598294
-0.594088
-0.589423
-0.584316
-0.578771
-0.572817
-0.566464
-0.559762
-0.552738
-0.545463
-0.537976
-0.530416
-0.523105
-0.516812
-0.51147
-0.502007
-0.474679
-0.436447
-0.528321
-1.1047
-1.97548
-0.50506
-0.503833
-0.503898
-0.503913
-0.503879
-0.503827
-0.50377
-0.503708
-0.503642
-0.503572
-0.503499
-0.503425
-0.503349
-0.503272
-0.503195
-0.503117
-0.503041
-0.502964
-0.502889
-0.502815
-0.502742
-0.50267
-0.502599
-0.50253
-0.502462
-0.807048
-0.801353
-0.795908
-0.791692
-0.788627
-0.786559
-0.785414
-0.785196
-0.785864
-0.787411
-0.78976
-0.792911
-0.796705
-0.801147
-0.806065
-0.81126
-0.816694
-0.821105
-0.825181
-0.831713
-0.842642
-0.851626
-0.811174
-0.755705
-0.877278
-0.568416
-0.529218
-0.52859
-0.528141
-0.527737
-0.527358
-0.527012
-0.526695
-0.526404
-0.526137
-0.52589
-0.525662
-0.525451
-0.525255
-0.525073
-0.524903
-0.524745
-0.524597
-0.524458
-0.524328
-0.524205
-0.52409
-0.52398
-0.523877
-0.52378
-0.701583
-0.696089
-0.690028
-0.684071
-0.678133
-0.672076
-0.665885
-0.659547
-0.653094
-0.646508
-0.639837
-0.633072
-0.626291
-0.619503
-0.612831
-0.606306
-0.600146
-0.594518
-0.590082
-0.586841
-0.582686
-0.570533
-0.549579
-0.604613
-0.914813
-1.23145
-0.547072
-0.5458
-0.545862
-0.545834
-0.545774
-0.545713
-0.545647
-0.545578
-0.545507
-0.545433
-0.545357
-0.545281
-0.545205
-0.545129
-0.545053
-0.544978
-0.544904
-0.544831
-0.544759
-0.544688
-0.54462
-0.544552
-0.544486
-0.544422
-0.474754
-0.471654
-0.467606
-0.463402
-0.459193
-0.45493
-0.45061
-0.446218
-0.44179
-0.437311
-0.432817
-0.428279
-0.423737
-0.41914
-0.414518
-0.40976
-0.404906
-0.400042
-0.395788
-0.391704
-0.381915
-0.350713
-0.300968
-0.388182
-0.994489
-1.98942
-0.578687
-0.565321
-0.565064
-0.565145
-0.565152
-0.565136
-0.565118
-0.565102
-0.565085
-0.565067
-0.565048
-0.565028
-0.565006
-0.564984
-0.56496
-0.564936
-0.564911
-0.564886
-0.56486
-0.564834
-0.564807
-0.56478
-0.564752
-0.564725
-0.681885
-0.675661
-0.669353
-0.663594
-0.658129
-0.652812
-0.647594
-0.642491
-0.637477
-0.632563
-0.627713
-0.622946
-0.618213
-0.613569
-0.608924
-0.604408
-0.599857
-0.595417
-0.591449
-0.588013
-0.584778
-0.574937
-0.551451
-0.556191
-0.696637
-1.0387
-0.962774
-0.586465
-0.584701
-0.584814
-0.584888
-0.584933
-0.584968
-0.584997
-0.585023
-0.585045
-0.585063
-0.585078
-0.58509
-0.585099
-0.585106
-0.585111
-0.585114
-0.585116
-0.585115
-0.585114
-0.585111
-0.585107
-0.585102
-0.585096
-0.335033
-0.331375
-0.326609
-0.321812
-0.317174
-0.312646
-0.308186
-0.303802
-0.299493
-0.295283
-0.291161
-0.287154
-0.283241
-0.279447
-0.275736
-0.27212
-0.268507
-0.264921
-0.261414
-0.258563
-0.25599
-0.248523
-0.22135
-0.182099
-0.261402
-0.807079
-1.72989
-0.6199
-0.605593
-0.605369
-0.605456
-0.605468
-0.605468
-0.605472
-0.605479
-0.605488
-0.605497
-0.605507
-0.605517
-0.605527
-0.605537
-0.605547
-0.605556
-0.605565
-0.605573
-0.60558
-0.605587
-0.605594
-0.605599
-0.605604
-0.544957
-0.538613
-0.532219
-0.526434
-0.521034
-0.515834
-0.510813
-0.505951
-0.501259
-0.496711
-0.492315
-0.488043
-0.483916
-0.479899
-0.476056
-0.472313
-0.468817
-0.465428
-0.4623
-0.459893
-0.4582
-0.456952
-0.448162
-0.428934
-0.44068
-0.600534
-0.935925
-0.900978
-0.627016
-0.625482
-0.625602
-0.625693
-0.625753
-0.625801
-0.625844
-0.625884
-0.62592
-0.625952
-0.625982
-0.626009
-0.626033
-0.626056
-0.626076
-0.626095
-0.626113
-0.626129
-0.626143
-0.626157
-0.626169
-0.62618
-0.207862
-0.205206
-0.201732
-0.198082
-0.194372
-0.190567
-0.186657
-0.182641
-0.178538
-0.174352
-0.170101
-0.165783
-0.161418
-0.156997
-0.152541
-0.148026
-0.143463
-0.138797
-0.134039
-0.129273
-0.124928
-0.120636
-0.112035
-0.0898286
-0.0571592
-0.113511
-0.515361
-1.29034
-0.654407
-0.646821
-0.646681
-0.646757
-0.646769
-0.646775
-0.646784
-0.646794
-0.646805
-0.646816
-0.646827
-0.646838
-0.646849
-0.646861
-0.646871
-0.646882
-0.646893
-0.646903
-0.646913
-0.646922
-0.646932
-0.64694
-0.222345
-0.220338
-0.218051
-0.215618
-0.212996
-0.210151
-0.207082
-0.203784
-0.200262
-0.196502
-0.192505
-0.188249
-0.183735
-0.178934
-0.173848
-0.168441
-0.162708
-0.156579
-0.150068
-0.143362
-0.137159
-0.131312
-0.119303
-0.0850976
-0.0309446
-0.112127
-0.764141
-1.88484
-0.731052
-0.667877
-0.667547
-0.667635
-0.667649
-0.667645
-0.667641
-0.66764
-0.667641
-0.667641
-0.667643
-0.667645
-0.667647
-0.66765
-0.667653
-0.667656
-0.66766
-0.667664
-0.667669
-0.667674
-0.667678
-0.667683
-0.177087
-0.172117
-0.166719
-0.161735
-0.157117
-0.152764
-0.148631
-0.144734
-0.141065
-0.137643
-0.134456
-0.131524
-0.128833
-0.126411
-0.124239
-0.122352
-0.120726
-0.119394
-0.118329
-0.117597
-0.117189
-0.117401
-0.117424
-0.116876
-0.110897
-0.100587
-0.128794
-0.308853
-0.925266
-0.690015
-0.688433
-0.688429
-0.688447
-0.688449
-0.688446
-0.688444
-0.688444
-0.688444
-0.688444
-0.688445
-0.688447
-0.688448
-0.688451
-0.688453
-0.688456
-0.688459
-0.688462
-0.688466
-0.68847
-0.688474
-0.0805103
-0.074796
-0.0685816
-0.0628981
-0.0577166
-0.0529013
-0.0484003
-0.0442093
-0.0403258
-0.0367494
-0.0334747
-0.0305036
-0.0278314
-0.0254652
-0.023401
-0.0216525
-0.0202141
-0.0191043
-0.0183057
-0.017859
-0.0178493
-0.0185335
-0.0193965
-0.0187566
-0.0106563
-0.00102387
-0.0533754
-0.298775
-0.974835
-0.710691
-0.70907
-0.709081
-0.709106
-0.709113
-0.709114
-0.709115
-0.709117
-0.70912
-0.709122
-0.709125
-0.709128
-0.709131
-0.709134
-0.709138
-0.709142
-0.709146
-0.709151
-0.709155
-0.70916
-0.709165
0.0320611
0.0369591
0.0420883
0.0466253
0.0506322
0.0542284
0.0574519
0.0603018
0.0627791
0.0648834
0.0666206
0.0679922
0.0690044
0.0696593
0.0699636
0.0699212
0.0695401
0.0688309
0.0678089
0.066477
0.0647684
0.0625834
0.0602173
0.0591708
0.0634812
0.067023
0.0236846
-0.144863
-0.960162
-0.730236
-0.729687
-0.729766
-0.729787
-0.72979
-0.729793
-0.729797
-0.729802
-0.729807
-0.729813
-0.729818
-0.729824
-0.72983
-0.729836
-0.729843
-0.729849
-0.729856
-0.729863
-0.72987
-0.729878
-0.729885
0.288535
0.28982
0.291386
0.293066
0.294863
0.296801
0.298881
0.301103
0.303453
0.305928
0.30851
0.311191
0.313949
0.316769
0.319624
0.322492
0.32535
0.328187
0.330954
0.333426
0.335108
0.336345
0.340948
0.361387
0.390959
0.319348
-0.134552
-0.886962
-0.791583
-0.750484
-0.750262
-0.750322
-0.750347
-0.750353
-0.750356
-0.750362
-0.750368
-0.750375
-0.750382
-0.750389
-0.750396
-0.750404
-0.750412
-0.75042
-0.750428
-0.750437
-0.750446
-0.750455
-0.750464
-0.750473
0.500999
0.502684
0.504494
0.505836
0.506607
0.506846
0.506539
0.505677
0.504205
0.502102
0.499297
0.495762
0.491402
0.486181
0.479981
0.472769
0.464412
0.45484
0.443607
0.430172
0.415065
0.403631
0.409119
0.41737
0.28032
-0.32011
-1.28837
-0.754263
-0.770153
-0.770816
-0.770838
-0.770871
-0.770894
-0.770913
-0.77093
-0.770948
-0.770965
-0.770982
-0.770998
-0.771014
-0.771029
-0.771044
-0.771059
-0.771073
-0.771087
-0.771101
-0.771115
-0.771129
-0.771143
-0.771157
0.554148
0.548325
0.542092
0.537966
0.536297
0.536897
0.539632
0.544481
0.551445
0.56054
0.5718
0.585246
0.600962
0.618971
0.639452
0.662379
0.687873
0.715357
0.74534
0.781534
0.836286
0.909332
0.900379
0.515181
-0.618074
-0.953863
-0.749502
-0.776475
-0.791666
-0.791521
-0.791371
-0.791397
-0.791428
-0.791447
-0.79146
-0.791473
-0.791485
-0.791497
-0.791508
-0.79152
-0.791531
-0.791542
-0.791553
-0.791564
-0.791576
-0.791587
-0.791598
-0.79161
-0.791622
-0.791635
1.33473
1.32977
1.32932
1.33328
1.34071
1.35135
1.36514
1.38221
1.40252
1.42624
1.45335
1.48405
1.51842
1.55669
1.59894
1.64497
1.69445
1.74892
1.81877
1.9216
2.03556
1.92918
0.979189
-1.50848
-1.67158
-1.45937
-0.841361
-0.81413
-0.811819
-0.812177
-0.81232
-0.812324
-0.812306
-0.812298
-0.812297
-0.812298
-0.812301
-0.812304
-0.812307
-0.812312
-0.812316
-0.812322
-0.812328
-0.812334
-0.812341
-0.812348
-0.812356
-0.812364
-0.812374
-0.812383
-0.798294
-0.765555
-0.73456
-0.709736
-0.689956
-0.674318
-0.662607
-0.654897
-0.651214
-0.651633
-0.65616
-0.664881
-0.677895
-0.695641
-0.718846
-0.746982
-0.772806
-0.778312
-0.764206
-0.883499
-1.69344
-3.22434
-3.87327
-2.89443
-1.17878
-0.829429
-0.827165
-0.832206
-0.832091
-0.832075
-0.832087
-0.832099
-0.83211
-0.832122
-0.832135
-0.832149
-0.832165
-0.832181
-0.832199
-0.832217
-0.832236
-0.832256
-0.832276
-0.832297
-0.832318
-0.83234
-0.832363
-0.832386
-0.832409
-0.832433
-0.437643
-0.437629
-0.437615
-0.4376
-0.437585
-0.43757
-0.437555
-0.43754
-0.437524
-0.437508
-0.437492
-0.437477
-0.437461
-0.437445
-0.437428
-0.437412
-0.437396
-0.43738
-0.437364
-0.437348
-0.437331
-0.437315
-0.437299
-0.437283
-0.437267
-0.437251
-0.437236
-0.43722
-0.437204
-0.437189
-0.437173
-0.437158
-0.437143
-0.437128
-0.437113
-0.437098
-0.437083
-0.437069
-0.437055
-0.43704
-0.437026
-0.437012
-0.436998
-0.436985
-0.436971
-0.436958
-0.436945
-0.436932
-0.436919
-0.436907
-0.459195
-0.459172
-0.459149
-0.459125
-0.459101
-0.459077
-0.459053
-0.459029
-0.459004
-0.45898
-0.458956
-0.458932
-0.458908
-0.458884
-0.45886
-0.458837
-0.458813
-0.45879
-0.458767
-0.458744
-0.458721
-0.458699
-0.458676
-0.458654
-0.458632
-0.458611
-0.45859
-0.458568
-0.458548
-0.458527
-0.458507
-0.458487
-0.458467
-0.458447
-0.458428
-0.458409
-0.458391
-0.458372
-0.458354
-0.458336
-0.458319
-0.458302
-0.458285
-0.458268
-0.458251
-0.458235
-0.458219
-0.458204
-0.458188
-0.458173
-0.480759
-0.480722
-0.480685
-0.480648
-0.480612
-0.480576
-0.48054
-0.480504
-0.480469
-0.480434
-0.480399
-0.480365
-0.480331
-0.480298
-0.480265
-0.480233
-0.480201
-0.48017
-0.480139
-0.480108
-0.480078
-0.480049
-0.48002
-0.479992
-0.479964
-0.479936
-0.479909
-0.479883
-0.479856
-0.479831
-0.479806
-0.479781
-0.479757
-0.479733
-0.47971
-0.479687
-0.479665
-0.479643
-0.479621
-0.4796
-0.479579
-0.479559
-0.479539
-0.479519
-0.4795
-0.479482
-0.479463
-0.479445
-0.479428
-0.47941
-0.502396
-0.502331
-0.502268
-0.502207
-0.502146
-0.502088
-0.502031
-0.501975
-0.501921
-0.501868
-0.501817
-0.501767
-0.501718
-0.50167
-0.501624
-0.501579
-0.501535
-0.501493
-0.501451
-0.501411
-0.501371
-0.501333
-0.501296
-0.501259
-0.501224
-0.50119
-0.501156
-0.501123
-0.501091
-0.50106
-0.50103
-0.501001
-0.500972
-0.500944
-0.500917
-0.50089
-0.500864
-0.500839
-0.500814
-0.50079
-0.500767
-0.500744
-0.500721
-0.5007
-0.500679
-0.500658
-0.500638
-0.500618
-0.500599
-0.500581
-0.523687
-0.523599
-0.523515
-0.523436
-0.523359
-0.523287
-0.523217
-0.523151
-0.523087
-0.523026
-0.522967
-0.52291
-0.522856
-0.522803
-0.522753
-0.522704
-0.522657
-0.522612
-0.522568
-0.522525
-0.522484
-0.522444
-0.522406
-0.522368
-0.522332
-0.522297
-0.522263
-0.522229
-0.522197
-0.522166
-0.522136
-0.522106
-0.522077
-0.52205
-0.522022
-0.521996
-0.52197
-0.521945
-0.521921
-0.521897
-0.521874
-0.521852
-0.52183
-0.521809
-0.521788
-0.521768
-0.521748
-0.521729
-0.52171
-0.521692
-0.544359
-0.544298
-0.544239
-0.544181
-0.544125
-0.54407
-0.544017
-0.543965
-0.543915
-0.543866
-0.543818
-0.543772
-0.543727
-0.543684
-0.543641
-0.5436
-0.54356
-0.543521
-0.543483
-0.543447
-0.543411
-0.543376
-0.543342
-0.54331
-0.543278
-0.543247
-0.543217
-0.543187
-0.543159
-0.543131
-0.543104
-0.543078
-0.543052
-0.543028
-0.543003
-0.54298
-0.542957
-0.542935
-0.542913
-0.542892
-0.542872
-0.542852
-0.542833
-0.542814
-0.542796
-0.542778
-0.542761
-0.542744
-0.542728
-0.542712
-0.564697
-0.564669
-0.564641
-0.564614
-0.564586
-0.564559
-0.564531
-0.564504
-0.564477
-0.564451
-0.564424
-0.564398
-0.564373
-0.564347
-0.564322
-0.564297
-0.564273
-0.564249
-0.564226
-0.564202
-0.564179
-0.564157
-0.564135
-0.564113
-0.564092
-0.564071
-0.564051
-0.564031
-0.564011
-0.563992
-0.563973
-0.563955
-0.563937
-0.563919
-0.563902
-0.563885
-0.563868
-0.563852
-0.563836
-0.563821
-0.563806
-0.563791
-0.563777
-0.563763
-0.563749
-0.563736
-0.563723
-0.56371
-0.563698
-0.563686
-0.585089
-0.585081
-0.585073
-0.585064
-0.585055
-0.585045
-0.585035
-0.585024
-0.585013
-0.585002
-0.58499
-0.584979
-0.584967
-0.584955
-0.584943
-0.584931
-0.584919
-0.584907
-0.584894
-0.584882
-0.58487
-0.584858
-0.584846
-0.584834
-0.584822
-0.584811
-0.584799
-0.584788
-0.584776
-0.584765
-0.584754
-0.584743
-0.584732
-0.584722
-0.584712
-0.584701
-0.584692
-0.584682
-0.584672
-0.584663
-0.584654
-0.584645
-0.584636
-0.584628
-0.584619
-0.584611
-0.584604
-0.584596
-0.584589
-0.584581
-0.605608
-0.605612
-0.605615
-0.605618
-0.605619
-0.605621
-0.605622
-0.605622
-0.605622
-0.605621
-0.60562
-0.605619
-0.605617
-0.605615
-0.605613
-0.60561
-0.605607
-0.605604
-0.605601
-0.605598
-0.605594
-0.60559
-0.605586
-0.605582
-0.605578
-0.605574
-0.60557
-0.605566
-0.605561
-0.605557
-0.605553
-0.605548
-0.605544
-0.60554
-0.605535
-0.605531
-0.605527
-0.605523
-0.605519
-0.605515
-0.605511
-0.605507
-0.605503
-0.6055
-0.605496
-0.605493
-0.605489
-0.605486
-0.605483
-0.60548
-0.626191
-0.626201
-0.62621
-0.626218
-0.626225
-0.626232
-0.626239
-0.626245
-0.626251
-0.626256
-0.62626
-0.626264
-0.626268
-0.626272
-0.626275
-0.626278
-0.626281
-0.626283
-0.626286
-0.626288
-0.62629
-0.626291
-0.626293
-0.626295
-0.626296
-0.626297
-0.626298
-0.6263
-0.626301
-0.626302
-0.626303
-0.626303
-0.626304
-0.626305
-0.626306
-0.626307
-0.626308
-0.626309
-0.62631
-0.626311
-0.626312
-0.626313
-0.626314
-0.626315
-0.626316
-0.626317
-0.626319
-0.62632
-0.626321
-0.626323
-0.646949
-0.646958
-0.646966
-0.646973
-0.646981
-0.646988
-0.646995
-0.647002
-0.647008
-0.647014
-0.64702
-0.647026
-0.647032
-0.647037
-0.647042
-0.647047
-0.647052
-0.647057
-0.647062
-0.647067
-0.647071
-0.647076
-0.64708
-0.647084
-0.647088
-0.647093
-0.647097
-0.647101
-0.647105
-0.647109
-0.647113
-0.647117
-0.647121
-0.647125
-0.647129
-0.647133
-0.647137
-0.647141
-0.647145
-0.64715
-0.647154
-0.647158
-0.647162
-0.647167
-0.647171
-0.647176
-0.64718
-0.647185
-0.647189
-0.647194
-0.667689
-0.667694
-0.667699
-0.667705
-0.667711
-0.667716
-0.667722
-0.667728
-0.667734
-0.66774
-0.667746
-0.667752
-0.667758
-0.667765
-0.667771
-0.667777
-0.667784
-0.66779
-0.667796
-0.667803
-0.667809
-0.667816
-0.667822
-0.667829
-0.667836
-0.667842
-0.667849
-0.667856
-0.667863
-0.667869
-0.667876
-0.667883
-0.66789
-0.667897
-0.667905
-0.667912
-0.667919
-0.667926
-0.667934
-0.667941
-0.667949
-0.667956
-0.667964
-0.667972
-0.66798
-0.667988
-0.667996
-0.668004
-0.668012
-0.66802
-0.688478
-0.688483
-0.688488
-0.688493
-0.688498
-0.688504
-0.688509
-0.688515
-0.688521
-0.688527
-0.688533
-0.688539
-0.688546
-0.688553
-0.688559
-0.688566
-0.688573
-0.68858
-0.688588
-0.688595
-0.688603
-0.68861
-0.688618
-0.688626
-0.688634
-0.688642
-0.68865
-0.688659
-0.688667
-0.688676
-0.688684
-0.688693
-0.688702
-0.688711
-0.68872
-0.68873
-0.688739
-0.688749
-0.688758
-0.688768
-0.688778
-0.688788
-0.688798
-0.688808
-0.688818
-0.688829
-0.688839
-0.68885
-0.688861
-0.688872
-0.709171
-0.709176
-0.709182
-0.709188
-0.709194
-0.709201
-0.709208
-0.709215
-0.709222
-0.709229
-0.709237
-0.709245
-0.709253
-0.709261
-0.709269
-0.709278
-0.709287
-0.709296
-0.709305
-0.709315
-0.709324
-0.709334
-0.709344
-0.709354
-0.709365
-0.709375
-0.709386
-0.709397
-0.709408
-0.709419
-0.70943
-0.709442
-0.709454
-0.709465
-0.709478
-0.70949
-0.709502
-0.709515
-0.709527
-0.70954
-0.709553
-0.709566
-0.709579
-0.709592
-0.709606
-0.70962
-0.709633
-0.709647
-0.709661
-0.709675
-0.729893
-0.729901
-0.729909
-0.729917
-0.729925
-0.729934
-0.729942
-0.729951
-0.72996
-0.72997
-0.729979
-0.729989
-0.729999
-0.730009
-0.730019
-0.73003
-0.73004
-0.730051
-0.730062
-0.730074
-0.730085
-0.730097
-0.730109
-0.730121
-0.730133
-0.730145
-0.730158
-0.730171
-0.730184
-0.730197
-0.730211
-0.730225
-0.730238
-0.730253
-0.730267
-0.730281
-0.730296
-0.730311
-0.730326
-0.730341
-0.730356
-0.730372
-0.730388
-0.730404
-0.73042
-0.730436
-0.730452
-0.730469
-0.730486
-0.730503
-0.750483
-0.750493
-0.750503
-0.750514
-0.750524
-0.750535
-0.750546
-0.750558
-0.750569
-0.750581
-0.750594
-0.750606
-0.750619
-0.750632
-0.750645
-0.750659
-0.750673
-0.750687
-0.750701
-0.750716
-0.750731
-0.750746
-0.750761
-0.750777
-0.750793
-0.750809
-0.750825
-0.750842
-0.750859
-0.750876
-0.750893
-0.750911
-0.750928
-0.750946
-0.750965
-0.750983
-0.751002
-0.751021
-0.75104
-0.751059
-0.751078
-0.751098
-0.751118
-0.751138
-0.751158
-0.751178
-0.751199
-0.75122
-0.751241
-0.751262
-0.77117
-0.771184
-0.771198
-0.771211
-0.771225
-0.771239
-0.771253
-0.771267
-0.771282
-0.771296
-0.771311
-0.771325
-0.77134
-0.771356
-0.771371
-0.771387
-0.771403
-0.771419
-0.771435
-0.771451
-0.771468
-0.771485
-0.771503
-0.77152
-0.771538
-0.771556
-0.771574
-0.771593
-0.771612
-0.771631
-0.77165
-0.77167
-0.77169
-0.77171
-0.77173
-0.771751
-0.771772
-0.771793
-0.771815
-0.771836
-0.771858
-0.771881
-0.771903
-0.771926
-0.771948
-0.771972
-0.771995
-0.772018
-0.772042
-0.772066
-0.791648
-0.791661
-0.791674
-0.791688
-0.791703
-0.791717
-0.791733
-0.791748
-0.791765
-0.791781
-0.791799
-0.791816
-0.791834
-0.791853
-0.791872
-0.791891
-0.791911
-0.791931
-0.791952
-0.791973
-0.791994
-0.792016
-0.792039
-0.792061
-0.792084
-0.792108
-0.792132
-0.792156
-0.79218
-0.792205
-0.79223
-0.792256
-0.792281
-0.792307
-0.792334
-0.79236
-0.792387
-0.792414
-0.792442
-0.79247
-0.792498
-0.792526
-0.792554
-0.792583
-0.792612
-0.792641
-0.79267
-0.7927
-0.792729
-0.792759
-0.812393
-0.812404
-0.812415
-0.812427
-0.81244
-0.812453
-0.812467
-0.812481
-0.812496
-0.812512
-0.812528
-0.812544
-0.812562
-0.81258
-0.812598
-0.812617
-0.812637
-0.812657
-0.812677
-0.812699
-0.81272
-0.812743
-0.812765
-0.812788
-0.812812
-0.812836
-0.812861
-0.812886
-0.812912
-0.812938
-0.812964
-0.812991
-0.813018
-0.813046
-0.813074
-0.813102
-0.813131
-0.81316
-0.81319
-0.81322
-0.81325
-0.813281
-0.813311
-0.813343
-0.813374
-0.813406
-0.813438
-0.813471
-0.813503
-0.813536
-0.832458
-0.832483
-0.832508
-0.832534
-0.83256
-0.832587
-0.832614
-0.832642
-0.83267
-0.832699
-0.832728
-0.832758
-0.832788
-0.832819
-0.83285
-0.832881
-0.832913
-0.832945
-0.832978
-0.833011
-0.833045
-0.833079
-0.833113
-0.833148
-0.833183
-0.833218
-0.833254
-0.83329
-0.833327
-0.833363
-0.833401
-0.833438
-0.833476
-0.833514
-0.833552
-0.833591
-0.83363
-0.833669
-0.833708
-0.833748
-0.833788
-0.833828
-0.833868
-0.833909
-0.83395
-0.833991
-0.834032
-0.834074
-0.834115
-0.834156
-0.436897
-0.43689
-0.436883
-0.436876
-0.436869
-0.436862
-0.436855
-0.436848
-0.436841
-0.436834
-0.436827
-0.436821
-0.436814
-0.436807
-0.4368
-0.436793
-0.436787
-0.43678
-0.436773
-0.436767
-0.43676
-0.436754
-0.436747
-0.436741
-0.436734
-0.436728
-0.436721
-0.436715
-0.436708
-0.436702
-0.436696
-0.43669
-0.436683
-0.436677
-0.436671
-0.436665
-0.436659
-0.436653
-0.436647
-0.436641
-0.436635
-0.436629
-0.436623
-0.436617
-0.436612
-0.436606
-0.4366
-0.436595
-0.436589
-0.436583
-0.436578
-0.436572
-0.436567
-0.436562
-0.436556
-0.436551
-0.436546
-0.436541
-0.436536
-0.436531
-0.436525
-0.436521
-0.436516
-0.436511
-0.436506
-0.436501
-0.436496
-0.436492
-0.436487
-0.436483
-0.436478
-0.436474
-0.436469
-0.436465
-0.436461
-0.436457
-0.436453
-0.436448
-0.436444
-0.436441
-0.436437
-0.436433
-0.436429
-0.436425
-0.436422
-0.436418
-0.436415
-0.436411
-0.436408
-0.436404
-0.436401
-0.436398
-0.436395
-0.436392
-0.436389
-0.436386
-0.436383
-0.43638
-0.436378
-0.436375
-0.436372
-0.43637
-0.436368
-0.436365
-0.436363
-0.436361
-0.436359
-0.436357
-0.436355
-0.436353
-0.436351
-0.436349
-0.436347
-0.436346
-0.436344
-0.436343
-0.436341
-0.43634
-0.436339
-0.436338
-0.436337
-0.436336
-0.436335
-0.436334
-0.436333
-0.436333
-0.436332
-0.436332
-0.436331
-0.436331
-0.436331
-0.43633
-0.43633
-0.43633
-0.43633
-0.43633
-0.436331
-0.436331
-0.436331
-0.436332
-0.436332
-0.436333
-0.436334
-0.436335
-0.436335
-0.436336
-0.436337
-0.436339
-0.43634
-0.436341
-0.436342
-0.436344
-0.436346
-0.436347
-0.436349
-0.436351
-0.436353
-0.436354
-0.436357
-0.436359
-0.436361
-0.436363
-0.436366
-0.436368
-0.436371
-0.436373
-0.436376
-0.436379
-0.436381
-0.436384
-0.436387
-0.436391
-0.436394
-0.436397
-0.4364
-0.436404
-0.436407
-0.436411
-0.436414
-0.436418
-0.436422
-0.436426
-0.43643
-0.436434
-0.436438
-0.436442
-0.436446
-0.436451
-0.436455
-0.436459
-0.436464
-0.436468
-0.436473
-0.436478
-0.436483
-0.436487
-0.436492
-0.436497
-0.436502
-0.436507
-0.436512
-0.436518
-0.436523
-0.436528
-0.436534
-0.436539
-0.436544
-0.43655
-0.436556
-0.436561
-0.436567
-0.436573
-0.436578
-0.436584
-0.43659
-0.436596
-0.436602
-0.436608
-0.436614
-0.43662
-0.436626
-0.436632
-0.436638
-0.436644
-0.43665
-0.436656
-0.436663
-0.436669
-0.436675
-0.436681
-0.436688
-0.436694
-0.4367
-0.436707
-0.436713
-0.436719
-0.436725
-0.436732
-0.436738
-0.436744
-0.436751
-0.436757
-0.436763
-0.436769
-0.436776
-0.436782
-0.436788
-0.436794
-0.4368
-0.436806
-0.436812
-0.436818
-0.436824
-0.43683
-0.436836
-0.436842
-0.436847
-0.436853
-0.436859
-0.436864
-0.43687
-0.436875
-0.436881
-0.436886
-0.436891
-0.436896
-0.436901
-0.436906
-0.436911
-0.436916
-0.43692
-0.436925
-0.436929
-0.436934
-0.436938
-0.436942
-0.436946
-0.43695
-0.436953
-0.436957
-0.43696
-0.436964
-0.436967
-0.43697
-0.436972
-0.436975
-0.436978
-0.43698
-0.436982
-0.436984
-0.436986
-0.436987
-0.436989
-0.43699
-0.436991
-0.436992
-0.436992
-0.436993
-0.436993
-0.436993
-0.458162
-0.458153
-0.458145
-0.458136
-0.458128
-0.45812
-0.458112
-0.458104
-0.458096
-0.458087
-0.458079
-0.458071
-0.458064
-0.458056
-0.458048
-0.45804
-0.458032
-0.458024
-0.458017
-0.458009
-0.458002
-0.457994
-0.457987
-0.457979
-0.457972
-0.457964
-0.457957
-0.45795
-0.457943
-0.457936
-0.457928
-0.457921
-0.457914
-0.457908
-0.457901
-0.457894
-0.457887
-0.45788
-0.457874
-0.457867
-0.457861
-0.457854
-0.457848
-0.457841
-0.457835
-0.457829
-0.457823
-0.457816
-0.45781
-0.457804
-0.457798
-0.457792
-0.457787
-0.457781
-0.457775
-0.45777
-0.457764
-0.457758
-0.457753
-0.457748
-0.457742
-0.457737
-0.457732
-0.457727
-0.457722
-0.457717
-0.457712
-0.457707
-0.457702
-0.457697
-0.457693
-0.457688
-0.457684
-0.457679
-0.457675
-0.457671
-0.457667
-0.457662
-0.457658
-0.457654
-0.45765
-0.457647
-0.457643
-0.457639
-0.457636
-0.457632
-0.457629
-0.457625
-0.457622
-0.457619
-0.457615
-0.457612
-0.457609
-0.457606
-0.457604
-0.457601
-0.457598
-0.457596
-0.457593
-0.457591
-0.457588
-0.457586
-0.457584
-0.457582
-0.45758
-0.457578
-0.457576
-0.457574
-0.457573
-0.457571
-0.457569
-0.457568
-0.457567
-0.457565
-0.457564
-0.457563
-0.457562
-0.457561
-0.45756
-0.45756
-0.457559
-0.457558
-0.457558
-0.457558
-0.457557
-0.457557
-0.457557
-0.457557
-0.457557
-0.457557
-0.457557
-0.457558
-0.457558
-0.457559
-0.457559
-0.45756
-0.457561
-0.457561
-0.457562
-0.457563
-0.457565
-0.457566
-0.457567
-0.457569
-0.45757
-0.457572
-0.457573
-0.457575
-0.457577
-0.457579
-0.457581
-0.457583
-0.457585
-0.457588
-0.45759
-0.457592
-0.457595
-0.457598
-0.4576
-0.457603
-0.457606
-0.457609
-0.457612
-0.457615
-0.457619
-0.457622
-0.457626
-0.457629
-0.457633
-0.457636
-0.45764
-0.457644
-0.457648
-0.457652
-0.457656
-0.45766
-0.457665
-0.457669
-0.457674
-0.457678
-0.457683
-0.457687
-0.457692
-0.457697
-0.457702
-0.457707
-0.457712
-0.457717
-0.457722
-0.457728
-0.457733
-0.457738
-0.457744
-0.45775
-0.457755
-0.457761
-0.457767
-0.457773
-0.457778
-0.457784
-0.45779
-0.457797
-0.457803
-0.457809
-0.457815
-0.457821
-0.457828
-0.457834
-0.457841
-0.457847
-0.457854
-0.45786
-0.457867
-0.457874
-0.457881
-0.457887
-0.457894
-0.457901
-0.457908
-0.457915
-0.457922
-0.457929
-0.457936
-0.457943
-0.45795
-0.457957
-0.457964
-0.457971
-0.457978
-0.457985
-0.457992
-0.458
-0.458007
-0.458014
-0.458021
-0.458028
-0.458035
-0.458043
-0.45805
-0.458057
-0.458064
-0.458071
-0.458078
-0.458085
-0.458092
-0.458099
-0.458106
-0.458113
-0.45812
-0.458127
-0.458134
-0.45814
-0.458147
-0.458154
-0.45816
-0.458167
-0.458174
-0.45818
-0.458186
-0.458193
-0.458199
-0.458205
-0.458211
-0.458217
-0.458223
-0.458228
-0.458234
-0.45824
-0.458245
-0.45825
-0.458256
-0.458261
-0.458266
-0.458271
-0.458275
-0.45828
-0.458284
-0.458289
-0.458293
-0.458297
-0.458301
-0.458304
-0.458308
-0.458311
-0.458314
-0.458317
-0.45832
-0.458323
-0.458325
-0.458327
-0.458329
-0.458331
-0.458333
-0.458334
-0.458335
-0.458336
-0.458337
-0.458337
-0.458338
-0.458338
-0.479397
-0.479388
-0.479378
-0.479368
-0.479359
-0.47935
-0.479341
-0.479331
-0.479322
-0.479313
-0.479304
-0.479295
-0.479286
-0.479277
-0.479269
-0.47926
-0.479251
-0.479243
-0.479234
-0.479226
-0.479217
-0.479209
-0.479201
-0.479193
-0.479185
-0.479176
-0.479168
-0.479161
-0.479153
-0.479145
-0.479137
-0.47913
-0.479122
-0.479115
-0.479107
-0.4791
-0.479093
-0.479085
-0.479078
-0.479071
-0.479064
-0.479057
-0.47905
-0.479044
-0.479037
-0.47903
-0.479024
-0.479017
-0.479011
-0.479004
-0.478998
-0.478992
-0.478986
-0.47898
-0.478974
-0.478968
-0.478962
-0.478957
-0.478951
-0.478945
-0.47894
-0.478935
-0.478929
-0.478924
-0.478919
-0.478914
-0.478909
-0.478904
-0.478899
-0.478894
-0.47889
-0.478885
-0.478881
-0.478876
-0.478872
-0.478868
-0.478863
-0.478859
-0.478855
-0.478851
-0.478848
-0.478844
-0.47884
-0.478837
-0.478833
-0.47883
-0.478827
-0.478823
-0.47882
-0.478817
-0.478814
-0.478812
-0.478809
-0.478806
-0.478804
-0.478801
-0.478799
-0.478796
-0.478794
-0.478792
-0.47879
-0.478788
-0.478786
-0.478785
-0.478783
-0.478781
-0.47878
-0.478779
-0.478777
-0.478776
-0.478775
-0.478774
-0.478773
-0.478772
-0.478772
-0.478771
-0.478771
-0.47877
-0.47877
-0.47877
-0.478769
-0.478769
-0.47877
-0.47877
-0.47877
-0.47877
-0.478771
-0.478771
-0.478772
-0.478773
-0.478774
-0.478775
-0.478776
-0.478777
-0.478778
-0.478779
-0.478781
-0.478782
-0.478784
-0.478786
-0.478788
-0.47879
-0.478792
-0.478794
-0.478796
-0.478798
-0.478801
-0.478803
-0.478806
-0.478809
-0.478811
-0.478814
-0.478817
-0.47882
-0.478824
-0.478827
-0.47883
-0.478834
-0.478837
-0.478841
-0.478845
-0.478849
-0.478853
-0.478857
-0.478861
-0.478865
-0.47887
-0.478874
-0.478878
-0.478883
-0.478888
-0.478893
-0.478897
-0.478902
-0.478907
-0.478913
-0.478918
-0.478923
-0.478929
-0.478934
-0.47894
-0.478945
-0.478951
-0.478957
-0.478963
-0.478969
-0.478975
-0.478981
-0.478987
-0.478993
-0.479
-0.479006
-0.479013
-0.479019
-0.479026
-0.479032
-0.479039
-0.479046
-0.479053
-0.47906
-0.479067
-0.479074
-0.479081
-0.479088
-0.479096
-0.479103
-0.47911
-0.479118
-0.479125
-0.479133
-0.47914
-0.479148
-0.479156
-0.479163
-0.479171
-0.479179
-0.479187
-0.479195
-0.479202
-0.47921
-0.479218
-0.479226
-0.479234
-0.479242
-0.47925
-0.479258
-0.479266
-0.479275
-0.479283
-0.479291
-0.479299
-0.479307
-0.479315
-0.479323
-0.479331
-0.479339
-0.479348
-0.479356
-0.479364
-0.479372
-0.47938
-0.479388
-0.479396
-0.479404
-0.479412
-0.47942
-0.479427
-0.479435
-0.479443
-0.479451
-0.479458
-0.479466
-0.479474
-0.479481
-0.479488
-0.479496
-0.479503
-0.47951
-0.479517
-0.479525
-0.479531
-0.479538
-0.479545
-0.479552
-0.479558
-0.479565
-0.479571
-0.479577
-0.479583
-0.479589
-0.479595
-0.479601
-0.479607
-0.479612
-0.479617
-0.479622
-0.479627
-0.479632
-0.479637
-0.479641
-0.479646
-0.47965
-0.479654
-0.479658
-0.479661
-0.479665
-0.479668
-0.479671
-0.479673
-0.479676
-0.479678
-0.47968
-0.479682
-0.479684
-0.479685
-0.479686
-0.479687
-0.479688
-0.479688
-0.479688
-0.500566
-0.500556
-0.500546
-0.500535
-0.500525
-0.500515
-0.500505
-0.500496
-0.500486
-0.500476
-0.500467
-0.500457
-0.500448
-0.500439
-0.500429
-0.50042
-0.500411
-0.500402
-0.500393
-0.500384
-0.500376
-0.500367
-0.500359
-0.50035
-0.500342
-0.500334
-0.500325
-0.500317
-0.500309
-0.500301
-0.500293
-0.500286
-0.500278
-0.50027
-0.500263
-0.500256
-0.500248
-0.500241
-0.500234
-0.500227
-0.50022
-0.500213
-0.500206
-0.500199
-0.500193
-0.500186
-0.50018
-0.500174
-0.500167
-0.500161
-0.500155
-0.500149
-0.500143
-0.500137
-0.500132
-0.500126
-0.50012