/*--------------------------------*- C++ -*----------------------------------*\
| =========                 |                                                 |
| \\      /  F ield         | OpenFOAM: The Open Source CFD Toolbox           |
|  \\    /   O peration     | Version:  2.4.0                                 |
|   \\  /    A nd           | Web:      www.OpenFOAM.org                      |
|    \\/     M anipulation  |                                                 |
\*---------------------------------------------------------------------------*/
FoamFile
{
    version     2.0;
    format      ascii;
    class       volScalarField;
    location    "2";
    object      p_rgh;
}
// * * * * * * * * * * * * * * * * * * * * * * * * * * * * * * * * * * * * * //

dimensions      [1 -1 -2 0 0 0 0];

internalField   nonuniform List<scalar> 
8000
(
27.0783
27.0793
27.0805
27.0815
27.0825
27.0834
27.0842
27.085
27.0857
27.0864
27.087
27.0875
27.088
27.0884
27.0888
27.0891
27.0893
27.0889
27.0884
27.0909
27.1032
27.1173
27.0506
26.74
10.8971
0.020201
0.0208633
0.0207183
0.0206785
0.020681
0.0206884
0.0206935
0.0206978
0.0207027
0.0207084
0.0207148
0.0207219
0.0207296
0.0207379
0.0207468
0.0207562
0.0207662
0.0207767
0.0207877
0.0207992
0.0208111
0.0208234
0.0208362
0.0208493
0.0208627
28.3942
28.3964
28.3989
28.401
28.403
28.4047
28.4063
28.4077
28.409
28.4101
28.4111
28.4119
28.4125
28.413
28.4134
28.4136
28.4135
28.4129
28.4119
28.4143
28.428
28.4447
28.3708
28.0126
12.5321
0.0208406
0.0215264
0.0213689
0.021333
0.0213392
0.02135
0.0213589
0.0213677
0.0213777
0.0213891
0.0214017
0.0214155
0.0214302
0.021446
0.0214627
0.0214803
0.0214987
0.0215178
0.0215376
0.0215581
0.0215791
0.0216006
0.0216226
0.021645
0.0216677
29.739
29.7412
29.7435
29.7458
29.748
29.7502
29.7523
29.7545
29.7565
29.7586
29.7606
29.7626
29.7645
29.7664
29.7684
29.7704
29.7722
29.7736
29.7749
29.7805
29.801
29.8289
29.7513
29.3121
16.3078
0.0213668
0.0220604
0.0218768
0.021847
0.0218598
0.021878
0.0218955
0.0219143
0.0219353
0.0219587
0.0219842
0.0220114
0.0220403
0.0220706
0.0221021
0.0221348
0.0221684
0.0222029
0.022238
0.0222737
0.0223098
0.0223463
0.0223831
0.02242
0.022457
31.1228
31.1249
31.1278
31.1311
31.1348
31.1391
31.1437
31.1488
31.1544
31.1603
31.1667
31.1734
31.1804
31.1877
31.1952
31.2027
31.21
31.2163
31.2217
31.2311
31.2583
31.2964
31.2042
30.6284
22.9106
0.0270515
0.0219136
0.0217231
0.0217069
0.0217413
0.0217927
0.0218499
0.0219117
0.0219778
0.0220477
0.0221204
0.0221951
0.0222712
0.022348
0.0224252
0.0225024
0.0225792
0.0226554
0.0227307
0.0228051
0.0228782
0.0229502
0.0230207
0.0230899
0.0231576
32.2764
32.2821
32.2876
32.2918
32.2949
32.2969
32.2981
32.2983
32.2976
32.2961
32.2937
32.2906
32.2868
32.2823
32.2774
32.2722
32.2668
32.2624
32.2583
32.2517
32.2407
32.2316
32.2717
32.3278
32.1918
1.50383
0.0201842
0.0194035
0.0198468
0.0202497
0.0206289
0.020975
0.0212918
0.0215826
0.0218501
0.0220968
0.0223248
0.0225359
0.0227317
0.0229138
0.0230834
0.0232417
0.0233898
0.0235286
0.023659
0.0237816
0.0238971
0.0240061
0.0241092
0.0242069
33.7323
33.7377
33.7438
33.7498
33.7557
33.7618
33.768
33.7743
33.7807
33.7873
33.794
33.8008
33.8075
33.8143
33.821
33.8275
33.8337
33.8393
33.8437
33.8469
33.851
33.8631
33.8837
33.8291
33.5188
12.6369
0.034649
0.0245938
0.0244971
0.0245205
0.0245795
0.0246409
0.0247062
0.0247751
0.0248469
0.0249208
0.0249962
0.0250722
0.0251486
0.0252249
0.0253007
0.0253757
0.0254499
0.0255229
0.0255946
0.025665
0.0257339
0.0258013
0.0258671
0.0259313
35.3094
35.3125
35.3166
35.3208
35.325
35.3293
35.3336
35.338
35.3424
35.3469
35.3514
35.3559
35.3604
35.365
35.3697
35.3744
35.3793
35.3841
35.3884
35.3924
35.4022
35.4333
35.4828
35.3958
34.7897
26.9875
0.239889
0.0278048
0.0276803
0.0275784
0.0275693
0.0275849
0.027602
0.0276182
0.027635
0.027653
0.0276723
0.0276927
0.0277141
0.0277365
0.0277598
0.0277839
0.0278088
0.0278342
0.0278602
0.0278867
0.0279135
0.0279407
0.0279681
0.0279956
36.4526
36.4589
36.4652
36.4709
36.4764
36.4817
36.4869
36.492
36.4971
36.502
36.5068
36.5116
36.5163
36.521
36.5256
36.5301
36.5347
36.5391
36.5431
36.5465
36.5497
36.5594
36.5828
36.5781
36.4379
36.0977
8.39059
0.0700027
0.0304934
0.0302894
0.0302023
0.0301544
0.0301194
0.03009
0.0300643
0.0300425
0.0300242
0.0300092
0.0299972
0.0299878
0.0299808
0.0299758
0.0299728
0.0299715
0.0299717
0.0299734
0.0299763
0.0299803
0.0299854
0.0299914
38.1498
38.1535
38.1583
38.1631
38.1677
38.1722
38.1767
38.1811
38.1854
38.1896
38.1937
38.1977
38.2016
38.2054
38.2091
38.2128
38.2164
38.2199
38.2234
38.2263
38.2288
38.2362
38.2633
38.3026
38.2234
37.6776
27.9143
0.339781
0.0339656
0.0321226
0.032004
0.0319876
0.031986
0.0319819
0.0319747
0.0319661
0.0319567
0.0319468
0.0319367
0.0319266
0.0319166
0.031907
0.0318978
0.0318891
0.0318809
0.0318733
0.0318664
0.0318602
0.0318546
0.0318496
39.2903
39.2966
39.303
39.3088
39.3142
39.3194
39.3244
39.3293
39.334
39.3385
39.3429
39.3472
39.3513
39.3553
39.3592
39.3629
39.3664
39.3698
39.3729
39.3753
39.3769
39.3781
39.3868
39.4061
39.3944
39.2347
38.9017
8.22659
0.101141
0.0344554
0.0342358
0.0341309
0.034069
0.03402
0.0339769
0.0339374
0.0339013
0.0338686
0.033839
0.033812
0.0337873
0.0337648
0.0337443
0.0337254
0.033708
0.0336921
0.0336775
0.033664
0.0336516
0.0336401
40.9777
40.9804
40.9838
40.9875
40.9912
40.995
40.9989
41.0029
41.007
41.0112
41.0155
41.0198
41.0242
41.0286
41.033
41.0375
41.0421
41.0468
41.0515
41.0563
41.0606
41.0648
41.0733
41.0956
41.1283
41.072
40.6703
27.676
0.239604
0.0356748
0.0355312
0.035435
0.0354205
0.0354136
0.0354044
0.035394
0.0353831
0.0353719
0.0353606
0.0353493
0.0353381
0.035327
0.035316
0.0353053
0.0352949
0.0352847
0.0352748
0.0352652
0.0352559
0.0352469
42.3136
42.3156
42.3179
42.3203
42.3229
42.3258
42.3288
42.3321
42.3357
42.3394
42.3434
42.3477
42.3522
42.357
42.3621
42.3675
42.3732
42.3793
42.3858
42.3925
42.3987
42.4045
42.4164
42.4506
42.5048
42.4237
41.7718
40.3846
1.65673
0.043796
0.0370289
0.0369241
0.036907
0.0369107
0.036914
0.0369147
0.0369143
0.0369133
0.0369118
0.0369099
0.0369075
0.0369047
0.0369014
0.0368979
0.036894
0.0368898
0.0368853
0.0368807
0.0368758
0.0368708
43.7092
43.7141
43.7195
43.7245
43.7291
43.7335
43.7376
43.7415
43.7452
43.7486
43.7518
43.7547
43.7574
43.7598
43.762
43.7639
43.7655
43.7669
43.7679
43.7686
43.769
43.7687
43.7687
43.7692
43.7752
43.7856
43.7574
43.5773
12.6994
0.0853961
0.0385195
0.0384986
0.0384773
0.0384741
0.0384762
0.0384777
0.0384781
0.0384779
0.0384772
0.0384761
0.0384746
0.0384728
0.0384706
0.0384681
0.0384652
0.0384621
0.0384587
0.0384551
0.0384512
0.038447
45.1561
45.1618
45.168
45.1737
45.1789
45.1837
45.1882
45.1924
45.1963
45.1999
45.2031
45.2061
45.2088
45.2111
45.2132
45.215
45.2164
45.2175
45.2183
45.2187
45.2187
45.218
45.2171
45.2177
45.2258
45.2355
45.1832
44.9379
17.8013
0.0737791
0.0402667
0.0402141
0.0401848
0.0401769
0.0401754
0.0401738
0.0401716
0.040169
0.0401662
0.0401633
0.0401603
0.040157
0.0401535
0.0401498
0.0401458
0.0401416
0.0401372
0.0401325
0.0401276
0.0401225
46.619
46.6239
46.629
46.6336
46.6376
46.6412
46.6444
46.6473
46.6497
46.6518
46.6536
46.6549
46.656
46.6566
46.6569
46.6569
46.6565
46.6558
46.6547
46.6534
46.6517
46.6494
46.6471
46.646
46.6503
46.6539
46.6106
46.4419
13.2916
0.0474852
0.0420344
0.0418957
0.0418717
0.0418673
0.0418642
0.0418594
0.0418539
0.0418483
0.0418427
0.0418369
0.041831
0.0418249
0.0418186
0.0418122
0.0418055
0.0417986
0.0417916
0.0417844
0.0417771
0.0417696
48.2258
48.2271
48.2287
48.2304
48.2322
48.2341
48.2362
48.2384
48.2408
48.2432
48.2458
48.2485
48.2512
48.2541
48.2569
48.2598
48.2626
48.2655
48.2682
48.2707
48.2723
48.2736
48.2782
48.2987
48.3282
48.2566
47.8025
44.9755
2.06412
0.0449018
0.0438204
0.0437066
0.0436783
0.0436715
0.0436673
0.0436615
0.0436548
0.0436477
0.0436404
0.043633
0.0436253
0.0436175
0.0436095
0.0436013
0.043593
0.0435845
0.0435758
0.0435668
0.0435576
0.0435481
49.7886
49.7903
49.7921
49.7935
49.7943
49.7945
49.7942
49.7933
49.7919
49.7897
49.7869
49.7834
49.779
49.7738
49.7676
49.7604
49.752
49.7425
49.7312
49.7178
49.7026
49.6912
49.6968
49.705
49.5679
48.9648
45.1109
10.242
0.257308
0.0462553
0.0456186
0.0455253
0.045498
0.0454783
0.0454598
0.0454417
0.0454241
0.0454071
0.0453907
0.0453749
0.0453594
0.0453444
0.0453297
0.0453152
0.0453009
0.0452869
0.0452729
0.0452591
0.0452454
0.0452317
51.1921
51.1863
51.1801
51.176
51.1743
51.1749
51.1776
51.1825
51.1894
51.1985
51.2098
51.2232
51.2389
51.257
51.2774
51.3004
51.3258
51.3533
51.3833
51.4195
51.4742
51.5474
51.5384
51.1531
50.0004
40.0001
8.93908
0.488821
0.0603316
0.0474568
0.0474066
0.0473615
0.0473293
0.0473101
0.0472964
0.0472835
0.0472709
0.0472587
0.0472469
0.0472354
0.0472241
0.047213
0.0472019
0.0471907
0.0471795
0.0471681
0.0471566
0.0471448
0.0471327
0.0471203
53.3231
53.3181
53.3177
53.3216
53.3291
53.3397
53.3535
53.3705
53.3909
53.4146
53.4417
53.4724
53.5067
53.545
53.5873
53.6333
53.6827
53.7372
53.807
53.9099
54.023
53.9175
52.9583
50.147
24.1473
3.14643
0.167781
0.047262
0.049307
0.0489471
0.0488031
0.0487985
0.0488163
0.0488242
0.048825
0.0488237
0.0488214
0.0488184
0.0488147
0.0488103
0.0488055
0.0488001
0.0487943
0.0487879
0.048781
0.0487737
0.0487658
0.0487573
0.0487483
0.0487387
52.5404
52.5731
52.6041
52.629
52.6487
52.6644
52.6761
52.6838
52.6875
52.687
52.6825
52.6738
52.6608
52.643
52.6198
52.5917
52.5658
52.5603
52.5744
52.4551
51.201
50.0581
32.3691
6.37713
-0.109216
0.0703636
0.0585972
0.0512942
0.0513984
0.0514137
0.0514022
0.0513896
0.0513785
0.0513669
0.0513539
0.0513395
0.051324
0.0513074
0.05129
0.0512717
0.0512527
0.051233
0.0512127
0.0511918
0.0511704
0.0511484
0.0511259
0.0511029
0.0510794
0.0510555
0.0208764
0.0208905
0.0209048
0.0209194
0.0209342
0.0209493
0.0209645
0.0209799
0.0209954
0.0210111
0.0210269
0.0210428
0.0210588
0.0210748
0.0210909
0.0211071
0.0211232
0.0211394
0.0211556
0.0211718
0.0211879
0.021204
0.0212201
0.0212361
0.021252
0.0212679
0.0212837
0.0212994
0.0213151
0.0213306
0.021346
0.0213613
0.0213765
0.0213915
0.0214065
0.0214213
0.0214359
0.0214505
0.0214648
0.0214791
0.0214932
0.0215071
0.0215209
0.0215345
0.021548
0.0215613
0.0215745
0.0215875
0.0216002
0.0216129
0.0216908
0.0217141
0.0217377
0.0217614
0.0217853
0.0218093
0.0218334
0.0218576
0.0218817
0.0219059
0.02193
0.0219541
0.021978
0.0220019
0.0220257
0.0220493
0.0220728
0.0220961
0.0221193
0.0221422
0.022165
0.0221875
0.0222098
0.0222319
0.0222537
0.0222753
0.0222967
0.0223177
0.0223386
0.0223591
0.0223794
0.0223995
0.0224192
0.0224387
0.0224579
0.0224769
0.0224955
0.0225139
0.022532
0.0225498
0.0225674
0.0225847
0.0226017
0.0226184
0.0226348
0.022651
0.022667
0.0226826
0.0226979
0.022713
0.0224941
0.022531
0.0225679
0.0226046
0.0226412
0.0226774
0.0227134
0.0227491
0.0227844
0.0228193
0.0228539
0.022888
0.0229217
0.022955
0.0229878
0.0230201
0.023052
0.0230834
0.0231143
0.0231447
0.0231746
0.0232041
0.023233
0.0232615
0.0232894
0.0233169
0.0233439
0.0233705
0.0233965
0.0234221
0.0234472
0.0234719
0.023496
0.0235198
0.0235431
0.0235659
0.0235884
0.0236103
0.0236319
0.023653
0.0236738
0.0236941
0.023714
0.0237336
0.0237527
0.0237715
0.0237898
0.0238078
0.0238254
0.0238427
0.0232238
0.0232885
0.0233516
0.0234132
0.0234734
0.023532
0.0235891
0.0236447
0.0236989
0.0237518
0.0238032
0.0238532
0.023902
0.0239494
0.0239957
0.0240406
0.0240844
0.0241271
0.0241686
0.024209
0.0242484
0.0242867
0.024324
0.0243603
0.0243957
0.0244302
0.0244638
0.0244965
0.0245284
0.0245595
0.0245897
0.0246192
0.024648
0.024676
0.0247033
0.0247299
0.0247558
0.0247811
0.0248058
0.0248298
0.0248532
0.0248761
0.0248984
0.0249201
0.0249412
0.0249619
0.024982
0.0250016
0.0250206
0.0250393
0.0242995
0.0243875
0.0244713
0.0245511
0.0246272
0.0246999
0.0247694
0.024836
0.0248998
0.0249611
0.0250199
0.0250764
0.0251309
0.0251833
0.0252338
0.0252826
0.0253296
0.0253751
0.025419
0.0254615
0.0255026
0.0255425
0.0255811
0.0256184
0.0256547
0.0256899
0.025724
0.0257572
0.0257893
0.0258206
0.025851
0.0258805
0.0259092
0.0259371
0.0259642
0.0259906
0.0260163
0.0260413
0.0260657
0.0260894
0.0261124
0.0261349
0.0261567
0.026178
0.0261987
0.0262189
0.0262385
0.0262577
0.0262762
0.0262943
0.025994
0.026055
0.0261144
0.0261723
0.0262286
0.0262833
0.0263366
0.0263884
0.0264387
0.0264876
0.0265351
0.0265813
0.0266262
0.0266698
0.0267122
0.0267534
0.0267934
0.0268323
0.0268701
0.0269069
0.0269426
0.0269773
0.027011
0.0270438
0.0270757
0.0271067
0.0271369
0.0271662
0.0271947
0.0272224
0.0272493
0.0272755
0.027301
0.0273258
0.0273499
0.0273734
0.0273962
0.0274184
0.0274399
0.0274609
0.0274813
0.0275012
0.0275205
0.0275393
0.0275576
0.0275753
0.0275925
0.0276093
0.0276255
0.0276413
0.0280233
0.028051
0.0280787
0.0281064
0.028134
0.0281615
0.0281888
0.0282159
0.0282428
0.0282694
0.0282957
0.0283218
0.0283475
0.0283729
0.028398
0.0284227
0.0284471
0.0284711
0.0284947
0.0285179
0.0285408
0.0285632
0.0285853
0.0286069
0.0286282
0.028649
0.0286695
0.0286895
0.0287092
0.0287284
0.0287472
0.0287656
0.0287837
0.0288013
0.0288186
0.0288355
0.028852
0.0288681
0.0288839
0.0288993
0.0289144
0.0289291
0.0289434
0.0289573
0.028971
0.0289843
0.0289973
0.0290099
0.0290222
0.0290342
0.0299983
0.0300058
0.0300141
0.0300229
0.0300323
0.0300422
0.0300524
0.0300631
0.030074
0.0300852
0.0300967
0.0301083
0.0301201
0.030132
0.030144
0.0301561
0.0301682
0.0301804
0.0301926
0.0302048
0.0302169
0.030229
0.030241
0.0302529
0.0302647
0.0302764
0.030288
0.0302995
0.0303108
0.030322
0.030333
0.0303439
0.0303545
0.0303651
0.0303754
0.0303855
0.0303955
0.0304052
0.0304148
0.0304241
0.0304332
0.0304421
0.0304508
0.0304593
0.0304676
0.0304756
0.0304835
0.0304911
0.0304985
0.0305057
0.0318453
0.0318417
0.0318386
0.0318362
0.0318343
0.031833
0.0318322
0.0318319
0.0318321
0.0318327
0.0318336
0.031835
0.0318367
0.0318387
0.031841
0.0318436
0.0318464
0.0318495
0.0318528
0.0318562
0.0318598
0.0318635
0.0318674
0.0318714
0.0318755
0.0318797
0.0318839
0.0318882
0.0318925
0.0318969
0.0319012
0.0319056
0.0319099
0.0319142
0.0319185
0.0319227
0.0319269
0.0319311
0.0319351
0.0319391
0.031943
0.0319468
0.0319505
0.0319542
0.0319577
0.0319611
0.0319644
0.0319676
0.0319706
0.0319735
0.0336296
0.0336199
0.0336109
0.0336027
0.0335951
0.0335882
0.0335816
0.0335756
0.0335701
0.033565
0.0335604
0.0335561
0.0335522
0.0335487
0.0335454
0.0335425
0.0335397
0.0335372
0.033535
0.0335329
0.0335309
0.0335292
0.0335275
0.033526
0.0335247
0.0335234
0.0335222
0.0335211
0.03352
0.033519
0.0335181
0.0335172
0.0335163
0.0335154
0.0335145
0.0335136
0.0335128
0.0335119
0.0335109
0.03351
0.033509
0.033508
0.0335069
0.0335058
0.0335046
0.0335034
0.0335021
0.0335007
0.0334993
0.0334978
0.0352382
0.0352298
0.0352217
0.035214
0.0352065
0.0351992
0.0351923
0.0351857
0.0351793
0.0351731
0.0351671
0.0351613
0.0351557
0.0351503
0.0351451
0.0351399
0.035135
0.0351301
0.0351254
0.0351208
0.0351162
0.0351118
0.0351074
0.0351032
0.0350989
0.0350948
0.0350906
0.0350865
0.0350825
0.0350784
0.0350744
0.0350704
0.0350663
0.0350623
0.0350583
0.0350542
0.0350501
0.035046
0.0350419
0.0350377
0.0350335
0.0350293
0.035025
0.0350206
0.0350162
0.0350117
0.0350072
0.0350026
0.0349979
0.0349932
0.0368656
0.0368603
0.0368549
0.0368493
0.0368437
0.0368379
0.0368321
0.0368262
0.0368202
0.0368142
0.0368081
0.036802
0.0367958
0.0367896
0.0367833
0.036777
0.0367707
0.0367643
0.0367579
0.0367514
0.036745
0.0367384
0.0367319
0.0367253
0.0367186
0.0367119
0.0367052
0.0366984
0.0366916
0.0366847
0.0366778
0.0366708
0.0366638
0.0366567
0.0366496
0.0366424
0.0366351
0.0366278
0.0366204
0.0366129
0.0366054
0.0365978
0.0365901
0.0365824
0.0365746
0.0365667
0.0365587
0.0365506
0.0365426
0.0365344
0.0384426
0.038438
0.0384331
0.038428
0.0384228
0.0384174
0.0384118
0.0384061
0.0384002
0.0383941
0.0383879
0.0383816
0.0383751
0.0383684
0.0383617
0.0383548
0.0383478
0.0383406
0.0383334
0.038326
0.0383184
0.0383108
0.038303
0.0382951
0.0382871
0.038279
0.0382708
0.0382624
0.0382539
0.0382453
0.0382366
0.0382278
0.0382188
0.0382098
0.0382006
0.0381913
0.0381819
0.0381724
0.0381628
0.038153
0.0381431
0.0381332
0.0381231
0.0381129
0.0381025
0.0380921
0.0380816
0.0380709
0.0380602
0.0380494
0.0401171
0.0401115
0.0401057
0.0400996
0.0400934
0.0400868
0.0400801
0.0400731
0.040066
0.0400586
0.0400509
0.0400431
0.0400351
0.0400269
0.0400184
0.0400098
0.0400009
0.0399919
0.0399826
0.0399732
0.0399636
0.0399538
0.0399438
0.0399336
0.0399232
0.0399127
0.039902
0.0398911
0.0398801
0.0398688
0.0398575
0.0398459
0.0398342
0.0398223
0.0398103
0.0397981
0.0397858
0.0397733
0.0397607
0.0397479
0.039735
0.0397219
0.0397087
0.0396953
0.0396818
0.0396682
0.0396544
0.0396405
0.0396266
0.0396125
0.0417619
0.0417541
0.0417461
0.0417379
0.0417295
0.0417209
0.0417122
0.0417033
0.0416942
0.0416849
0.0416754
0.0416657
0.0416558
0.0416457
0.0416355
0.041625
0.0416143
0.0416034
0.0415924
0.0415811
0.0415696
0.0415579
0.041546
0.0415339
0.0415217
0.0415092
0.0414965
0.0414836
0.0414705
0.0414572
0.0414437
0.04143
0.0414161
0.0414021
0.0413878
0.0413733
0.0413587
0.0413438
0.0413288
0.0413136
0.0412982
0.0412827
0.0412669
0.041251
0.0412349
0.0412186
0.0412021
0.0411855
0.0411688
0.0411519
0.0435384
0.0435285
0.0435183
0.0435079
0.0434972
0.0434863
0.0434751
0.0434636
0.0434519
0.04344
0.0434277
0.0434152
0.0434025
0.0433894
0.0433761
0.0433626
0.0433487
0.0433346
0.0433203
0.0433057
0.0432908
0.0432757
0.0432603
0.0432446
0.0432287
0.0432126
0.0431962
0.0431796
0.0431627
0.0431456
0.0431283
0.0431108
0.043093
0.043075
0.0430567
0.0430383
0.0430197
0.0430008
0.0429818
0.0429625
0.042943
0.0429234
0.0429035
0.0428835
0.0428633
0.0428429
0.0428223
0.0428016
0.0427808
0.0427599
0.045218
0.0452043
0.0451906
0.0451768
0.045163
0.0451491
0.045135
0.0451209
0.0451066
0.0450921
0.0450775
0.0450627
0.0450477
0.0450325
0.0450171
0.0450015
0.0449857
0.0449696
0.0449533
0.0449368
0.04492
0.0449029
0.0448856
0.0448681
0.0448503
0.0448322
0.0448138
0.0447952
0.0447764
0.0447572
0.0447379
0.0447182
0.0446983
0.0446781
0.0446577
0.044637
0.0446161
0.0445949
0.0445735
0.0445518
0.0445298
0.0445077
0.0444853
0.0444626
0.0444397
0.0444166
0.0443933
0.0443697
0.0443461
0.0443222
0.0471075
0.0470944
0.0470808
0.0470668
0.0470524
0.0470376
0.0470223
0.0470065
0.0469903
0.0469736
0.0469565
0.0469389
0.0469208
0.0469023
0.0468834
0.046864
0.0468441
0.0468239
0.0468032
0.0467821
0.0467606
0.0467386
0.0467163
0.0466937
0.0466706
0.0466472
0.0466234
0.0465993
0.0465748
0.04655
0.0465249
0.0464994
0.0464737
0.0464476
0.0464213
0.0463946
0.0463677
0.0463406
0.0463131
0.0462854
0.0462575
0.0462293
0.0462009
0.0461722
0.0461433
0.0461142
0.0460849
0.0460554
0.0460259
0.0459962
0.0487286
0.0487178
0.0487065
0.0486945
0.048682
0.0486688
0.0486551
0.0486407
0.0486258
0.0486102
0.0485941
0.0485774
0.04856
0.0485422
0.0485237
0.0485047
0.0484851
0.048465
0.0484444
0.0484232
0.0484015
0.0483793
0.0483566
0.0483333
0.0483097
0.0482855
0.0482608
0.0482357
0.0482102
0.0481842
0.0481578
0.048131
0.0481037
0.0480761
0.048048
0.0480196
0.0479907
0.0479616
0.047932
0.0479021
0.0478719
0.0478413
0.0478104
0.0477791
0.0477476
0.0477157
0.0476835
0.0476511
0.0476186
0.0475857
0.051031
0.0510061
0.0509807
0.0509548
0.0509284
0.0509016
0.0508742
0.0508464
0.0508182
0.0507894
0.0507602
0.0507306
0.0507005
0.0506699
0.0506389
0.0506075
0.0505756
0.0505433
0.0505106
0.0504774
0.0504439
0.05041
0.0503756
0.0503409
0.0503058
0.0502704
0.0502346
0.0501985
0.050162
0.0501252
0.050088
0.0500506
0.0500128
0.0499748
0.0499364
0.0498978
0.0498589
0.0498197
0.0497803
0.0497406
0.0497007
0.0496605
0.0496202
0.0495795
0.0495387
0.0494977
0.0494564
0.049415
0.0493737
0.0493322
0.0216226
0.0216296
0.0216367
0.0216437
0.0216507
0.0216576
0.0216646
0.0216715
0.0216784
0.0216852
0.0216921
0.0216989
0.0217057
0.0217125
0.0217192
0.021726
0.0217327
0.0217394
0.021746
0.0217526
0.0217592
0.0217658
0.0217723
0.0217789
0.0217853
0.0217918
0.0217982
0.0218046
0.021811
0.0218173
0.0218236
0.0218298
0.0218361
0.0218423
0.0218484
0.0218545
0.0218606
0.0218666
0.0218727
0.0218786
0.0218845
0.0218904
0.0218963
0.0219021
0.0219078
0.0219136
0.0219192
0.0219249
0.0219305
0.021936
0.0219415
0.021947
0.0219524
0.0219577
0.021963
0.0219683
0.0219735
0.0219787
0.0219838
0.0219889
0.0219939
0.0219989
0.0220038
0.0220087
0.0220135
0.0220182
0.0220229
0.0220276
0.0220322
0.0220367
0.0220412
0.0220456
0.02205
0.0220543
0.0220585
0.0220627
0.0220669
0.0220709
0.0220749
0.0220789
0.0220828
0.0220866
0.0220904
0.0220941
0.0220977
0.0221013
0.0221048
0.0221082
0.0221116
0.0221149
0.0221182
0.0221214
0.0221245
0.0221275
0.0221305
0.0221334
0.0221363
0.022139
0.0221417
0.0221444
0.0221469
0.0221494
0.0221518
0.0221542
0.0221565
0.0221587
0.0221608
0.0221628
0.0221648
0.0221667
0.0221685
0.0221703
0.022172
0.0221736
0.0221751
0.0221765
0.0221779
0.0221792
0.0221804
0.0221816
0.0221826
0.0221836
0.0221845
0.0221853
0.0221861
0.0221868
0.0221873
0.0221878
0.0221883
0.0221886
0.0221889
0.0221891
0.0221892
0.0221892
0.0221891
0.022189
0.0221887
0.0221884
0.022188
0.0221876
0.022187
0.0221864
0.0221857
0.0221849
0.022184
0.022183
0.022182
0.0221808
0.0221796
0.0221783
0.0221769
0.0221754
0.0221739
0.0221723
0.0221705
0.0221688
0.0221669
0.0221649
0.0221629
0.0221607
0.0221585
0.0221562
0.0221539
0.0221514
0.0221489
0.0221462
0.0221435
0.0221408
0.0221379
0.022135
0.022132
0.0221289
0.0221257
0.0221224
0.0221191
0.0221157
0.0221122
0.0221086
0.022105
0.0221013
0.0220975
0.0220936
0.0220897
0.0220857
0.0220816
0.0220774
0.0220732
0.0220689
0.0220645
0.0220601
0.0220556
0.022051
0.0220464
0.0220417
0.0220369
0.0220321
0.0220272
0.0220222
0.0220172
0.0220121
0.022007
0.0220018
0.0219965
0.0219912
0.0219858
0.0219804
0.0219749
0.0219694
0.0219638
0.0219582
0.0219526
0.0219468
0.0219411
0.0219353
0.0219294
0.0219236
0.0219177
0.0219117
0.0219057
0.0218997
0.0218936
0.0218875
0.0218814
0.0218753
0.0218691
0.0218629
0.0218567
0.0218505
0.0218443
0.021838
0.0218317
0.0218255
0.0218192
0.0218129
0.0218066
0.0218003
0.021794
0.0217877
0.0217814
0.0217751
0.0217688
0.0217626
0.0217563
0.0217501
0.0217439
0.0217377
0.0217315
0.0217254
0.0217193
0.0217132
0.0217072
0.0217012
0.0216952
0.0216893
0.0216835
0.0216777
0.0216719
0.0216662
0.0216606
0.021655
0.0216495
0.0216441
0.0216387
0.0216335
0.0216283
0.0216231
0.0216181
0.0216132
0.0216083
0.0216036
0.021599
0.0215944
0.02159
0.0215857
0.0215815
0.0215774
0.0215735
0.0215697
0.021566
0.0215625
0.0215591
0.0215558
0.0215527
0.0215497
0.0215469
0.0215443
0.0215418
0.0215395
0.0215374
0.0215355
0.0215337
0.0215321
0.0215307
0.0215295
0.0215286
0.0215278
0.0215272
0.0215268
0.0215267
0.0215267
0.0227247
0.022733
0.0227414
0.0227498
0.022758
0.0227662
0.0227744
0.0227826
0.0227907
0.0227987
0.0228068
0.0228147
0.0228227
0.0228306
0.0228384
0.0228462
0.022854
0.0228617
0.0228694
0.022877
0.0228846
0.0228921
0.0228996
0.022907
0.0229144
0.0229218
0.0229291
0.0229363
0.0229435
0.0229506
0.0229577
0.0229647
0.0229717
0.0229786
0.0229855
0.0229923
0.0229991
0.0230058
0.0230125
0.0230191
0.0230256
0.0230321
0.0230385
0.0230449
0.0230512
0.0230575
0.0230637
0.0230698
0.0230759
0.0230819
0.0230878
0.0230937
0.0230996
0.0231053
0.023111
0.0231167
0.0231222
0.0231278
0.0231332
0.0231386
0.0231439
0.0231492
0.0231543
0.0231595
0.0231645
0.0231695
0.0231744
0.0231792
0.023184
0.0231887
0.0231934
0.0231979
0.0232024
0.0232068
0.0232112
0.0232155
0.0232197
0.0232238
0.0232279
0.0232319
0.0232358
0.0232396
0.0232434
0.0232471
0.0232507
0.0232542
0.0232577
0.0232611
0.0232644
0.0232676
0.0232707
0.0232738
0.0232768
0.0232797
0.0232825
0.0232853
0.023288
0.0232906
0.0232931
0.0232955
0.0232979
0.0233001
0.0233023
0.0233044
0.0233064
0.0233084
0.0233102
0.023312
0.0233137
0.0233153
0.0233168
0.0233182
0.0233196
0.0233208
0.023322
0.0233231
0.0233241
0.023325
0.0233258
0.0233266
0.0233272
0.0233278
0.0233282
0.0233286
0.0233289
0.0233291
0.0233293
0.0233293
0.0233292
0.0233291
0.0233289
0.0233285
0.0233281
0.0233276
0.023327
0.0233264
0.0233256
0.0233247
0.0233238
0.0233227
0.0233216
0.0233204
0.0233191
0.0233177
0.0233162
0.0233146
0.0233129
0.0233111
0.0233093
0.0233073
0.0233053
0.0233032
0.023301
0.0232987
0.0232963
0.0232938
0.0232912
0.0232886
0.0232858
0.023283
0.02328
0.023277
0.0232739
0.0232707
0.0232675
0.0232641
0.0232606
0.0232571
0.0232535
0.0232498
0.023246
0.0232421
0.0232381
0.0232341
0.02323
0.0232258
0.0232215
0.0232171
0.0232126
0.0232081
0.0232035
0.0231988
0.023194
0.0231892
0.0231842
0.0231792
0.0231742
0.023169
0.0231638
0.0231585
0.0231531
0.0231477
0.0231422
0.0231366
0.023131
0.0231253
0.0231195
0.0231136
0.0231077
0.0231018
0.0230957
0.0230897
0.0230835
0.0230773
0.0230711
0.0230647
0.0230584
0.023052
0.0230455
0.023039
0.0230324
0.0230258
0.0230191
0.0230124
0.0230057
0.0229989
0.0229921
0.0229852
0.0229783
0.0229714
0.0229645
0.0229575
0.0229505
0.0229435
0.0229364
0.0229293
0.0229222
0.0229151
0.022908
0.0229009
0.0228937
0.0228866
0.0228794
0.0228722
0.0228651
0.0228579
0.0228507
0.0228436
0.0228364
0.0228293
0.0228222
0.0228151
0.022808
0.022801
0.0227939
0.0227869
0.02278
0.022773
0.0227661
0.0227593
0.0227525
0.0227457
0.022739
0.0227323
0.0227257
0.0227192
0.0227127
0.0227063
0.0226999
0.0226937
0.0226875
0.0226813
0.0226753
0.0226694
0.0226635
0.0226578
0.0226521
0.0226466
0.0226411
0.0226358
0.0226306
0.0226255
0.0226205
0.0226156
0.0226109
0.0226063
0.0226019
0.0225976
0.0225934
0.0225894
0.0225856
0.0225819
0.0225784
0.0225751
0.0225719
0.0225689
0.0225661
0.0225635
0.0225611
0.0225589
0.0225568
0.022555
0.0225534
0.022552
0.0225509
0.0225499
0.0225492
0.0225488
0.0225485
0.0225486
0.0238559
0.0238654
0.023875
0.0238845
0.0238939
0.0239032
0.0239125
0.0239217
0.0239308
0.0239399
0.0239489
0.0239579
0.0239668
0.0239756
0.0239844
0.0239931
0.0240017
0.0240103
0.0240188
0.0240273
0.0240356
0.0240439
0.0240522
0.0240604
0.0240685
0.0240765
0.0240845
0.0240924
0.0241003
0.024108
0.0241157
0.0241234
0.0241309
0.0241384
0.0241458
0.0241532
0.0241605
0.0241677
0.0241748
0.0241819
0.0241889
0.0241958
0.0242027
0.0242094
0.0242161
0.0242228
0.0242293
0.0242358
0.0242422
0.0242485
0.0242548
0.024261
0.0242671
0.0242731
0.024279
0.0242849
0.0242907
0.0242964
0.024302
0.0243076
0.024313
0.0243184
0.0243238
0.024329
0.0243341
0.0243392
0.0243442
0.0243491
0.0243539
0.0243587
0.0243633
0.0243679
0.0243724
0.0243768
0.0243812
0.0243854
0.0243895
0.0243936
0.0243976
0.0244015
0.0244053
0.024409
0.0244127
0.0244162
0.0244197
0.0244231
0.0244264
0.0244296
0.0244327
0.0244357
0.0244386
0.0244415
0.0244442
0.0244469
0.0244495
0.0244519
0.0244543
0.0244566
0.0244588
0.0244609
0.024463
0.0244649
0.0244667
0.0244685
0.0244701
0.0244717
0.0244731
0.0244745
0.0244758
0.0244769
0.024478
0.024479
0.0244799
0.0244807
0.0244814
0.024482
0.0244825
0.0244829
0.0244832
0.0244834
0.0244836
0.0244836
0.0244835
0.0244833
0.0244831
0.0244827
0.0244822
0.0244817
0.024481
0.0244802
0.0244794
0.0244784
0.0244774
0.0244762
0.024475
0.0244736
0.0244722
0.0244706
0.024469
0.0244672
0.0244654
0.0244634
0.0244614
0.0244593
0.024457
0.0244547
0.0244523
0.0244497
0.0244471
0.0244444
0.0244416
0.0244387
0.0244356
0.0244325
0.0244293
0.024426
0.0244226
0.0244191
0.0244156
0.0244119
0.0244081
0.0244042
0.0244003
0.0243962
0.024392
0.0243878
0.0243835
0.024379
0.0243745
0.0243699
0.0243652
0.0243604
0.0243556
0.0243506
0.0243455
0.0243404
0.0243352
0.0243299
0.0243245
0.024319
0.0243134
0.0243078
0.024302
0.0242962
0.0242903
0.0242844
0.0242783
0.0242722
0.024266
0.0242597
0.0242534
0.024247
0.0242405
0.0242339
0.0242273
0.0242206
0.0242138
0.024207
0.0242001
0.0241931
0.0241861
0.024179
0.0241718
0.0241646
0.0241573
0.02415
0.0241427
0.0241352
0.0241278
0.0241202
0.0241127
0.024105
0.0240974
0.0240897
0.0240819
0.0240741
0.0240663
0.0240585
0.0240506
0.0240427
0.0240347
0.0240267
0.0240187
0.0240107
0.0240027
0.0239946
0.0239865
0.0239784
0.0239703
0.0239622
0.0239541
0.023946
0.0239379
0.0239298
0.0239216
0.0239135
0.0239054
0.0238973
0.0238893
0.0238812
0.0238732
0.0238652
0.0238572
0.0238492
0.0238413
0.0238334
0.0238255
0.0238177
0.02381
0.0238022
0.0237946
0.023787
0.0237794
0.0237719
0.0237645
0.0237572
0.0237499
0.0237427
0.0237355
0.0237285
0.0237215
0.0237147
0.0237079
0.0237012
0.0236947
0.0236882
0.0236819
0.0236757
0.0236695
0.0236636
0.0236577
0.023652
0.0236464
0.023641
0.0236357
0.0236305
0.0236255
0.0236207
0.023616
0.0236115
0.0236072
0.0236031
0.0235991
0.0235954
0.0235918
0.0235884
0.0235853
0.0235823
0.0235795
0.023577
0.0235747
0.0235726
0.0235708
0.0235692
0.0235679
0.0235667
0.0235659
0.0235653
0.023565
0.0235649
0.0250536
0.0250639
0.0250742
0.0250844
0.0250945
0.0251045
0.0251144
0.0251242
0.0251339
0.0251435
0.0251531
0.0251626
0.025172
0.0251813
0.0251905
0.0251996
0.0252087
0.0252176
0.0252265
0.0252353
0.025244
0.0252526
0.0252612
0.0252696
0.025278
0.0252862
0.0252944
0.0253025
0.0253106
0.0253185
0.0253263
0.0253341
0.0253418
0.0253493
0.0253568
0.0253642
0.0253716
0.0253788
0.0253859
0.025393
0.0254
0.0254069
0.0254137
0.0254204
0.025427
0.0254335
0.0254399
0.0254463
0.0254526
0.0254587
0.0254648
0.0254708
0.0254767
0.0254825
0.0254882
0.0254939
0.0254994
0.0255049
0.0255102
0.0255155
0.0255207
0.0255258
0.0255308
0.0255357
0.0255405
0.0255452
0.0255498
0.0255544
0.0255588
0.0255632
0.0255674
0.0255716
0.0255756
0.0255796
0.0255835
0.0255873
0.0255909
0.0255945
0.025598
0.0256014
0.0256047
0.0256079
0.025611
0.0256141
0.025617
0.0256198
0.0256225
0.0256251
0.0256277
0.0256301
0.0256325
0.0256347
0.0256368
0.0256389
0.0256408
0.0256427
0.0256444
0.0256461
0.0256476
0.0256491
0.0256504
0.0256517
0.0256528
0.0256538
0.0256548
0.0256556
0.0256564
0.025657
0.0256575
0.025658
0.0256583
0.0256585
0.0256586
0.0256587
0.0256586
0.0256584
0.0256581
0.0256577
0.0256572
0.0256566
0.025656
0.0256552
0.0256542
0.0256532
0.0256521
0.0256509
0.0256496
0.0256482
0.0256466
0.025645
0.0256433
0.0256414
0.0256395
0.0256374
0.0256353
0.025633
0.0256307
0.0256282
0.0256257
0.025623
0.0256202
0.0256173
0.0256144
0.0256113
0.0256081
0.0256048
0.0256014
0.0255979
0.0255943
0.0255906
0.0255868
0.0255829
0.0255789
0.0255748
0.0255706
0.0255663