/*--------------------------------*- C++ -*----------------------------------*\
| =========                 |                                                 |
| \\      /  F ield         | OpenFOAM: The Open Source CFD Toolbox           |
|  \\    /   O peration     | Version:  2.4.0                                 |
|   \\  /    A nd           | Web:      www.OpenFOAM.org                      |
|    \\/     M anipulation  |                                                 |
\*---------------------------------------------------------------------------*/
FoamFile
{
    version     2.0;
    format      ascii;
    class       surfaceScalarField;
    location    "2";
    object      phi;
}
// * * * * * * * * * * * * * * * * * * * * * * * * * * * * * * * * * * * * * //

dimensions      [0 3 -1 0 0 0 0];

internalField   nonuniform List<scalar> 
15580
(
9.94447e-15
-1.73006e-12
3.89464e-14
-5.05068e-12
8.61502e-14
-8.23174e-12
1.50561e-13
-1.12729e-11
2.31086e-13
-1.41737e-11
3.26657e-13
-1.69343e-11
4.36199e-13
-1.95543e-11
5.58641e-13
-2.20339e-11
6.92903e-13
-2.43728e-11
8.37907e-13
-2.65709e-11
9.92556e-13
-2.86281e-11
1.15577e-12
-3.05443e-11
1.32642e-12
-3.23195e-11
1.50343e-12
-3.39534e-11
1.68566e-12
-3.5446e-11
1.87199e-12
-3.67973e-11
2.06125e-12
-3.80071e-11
2.2523e-12
-3.90753e-11
2.4439e-12
-4.00018e-11
2.63485e-12
-4.07865e-11
2.82382e-12
-4.14294e-11
3.00941e-12
-4.19302e-11
3.18999e-12
-4.22885e-11
3.36396e-12
-4.25043e-11
-3.28259e-11
-4.26009e-11
-3.26606e-11
-4.26223e-11
-3.25841e-11
-4.11548e-11
-3.2564e-11
-3.96257e-11
-3.26058e-11
-3.82115e-11
-3.27154e-11
-3.69371e-11
-3.28962e-11
-3.5799e-11
-3.31485e-11
-3.47847e-11
-3.34713e-11
-3.38782e-11
-3.38624e-11
-3.30627e-11
-3.43191e-11
-3.23224e-11
-3.48385e-11
-3.16429e-11
-3.54177e-11
-3.10117e-11
-3.60538e-11
-3.04185e-11
-3.6744e-11
-2.98546e-11
-3.74855e-11
-2.93132e-11
-3.82757e-11
-2.87891e-11
-3.91121e-11
-2.82781e-11
-3.99922e-11
-2.77772e-11
-4.09137e-11
-2.7284e-11
-4.18744e-11
-2.6797e-11
-4.28721e-11
-2.63152e-11
-4.39048e-11
-2.5838e-11
-4.49705e-11
-2.53652e-11
-4.60675e-11
-2.48967e-11
-2.44329e-11
-4.7194e-11
2.2256e-14
-1.75231e-12
8.63449e-14
-5.11477e-12
1.9011e-13
-8.3355e-12
3.31378e-13
-1.14141e-11
5.079e-13
-1.43502e-11
7.17554e-13
-1.71439e-11
9.58384e-13
-1.97952e-11
1.22853e-12
-2.2304e-11
1.52628e-12
-2.46705e-11
1.84994e-12
-2.68945e-11
2.19795e-12
-2.89761e-11
2.5687e-12
-3.09151e-11
2.9607e-12
-3.27115e-11
3.37234e-12
-3.4365e-11
3.80216e-12
-3.58759e-11
4.24845e-12
-3.72436e-11
4.70965e-12
-3.84683e-11
5.18382e-12
-3.95494e-11
5.66915e-12
-4.04871e-11
6.16324e-12
-4.12806e-11
6.66386e-12
-4.193e-11
7.16785e-12
-4.24342e-11
7.67187e-12
-4.27925e-11
8.17121e-12
-4.30038e-11
-2.97538e-11
-4.30919e-11
-2.92754e-11
-4.31007e-11
-2.88512e-11
-4.1579e-11
-2.85482e-11
-3.99287e-11
-2.83429e-11
-3.84168e-11
-2.82311e-11
-3.7049e-11
-2.82102e-11
-3.58199e-11
-2.82784e-11
-3.47165e-11
-2.84337e-11
-3.37229e-11
-2.86736e-11
-3.28228e-11
-2.89952e-11
-3.20008e-11
-2.93954e-11
-3.12427e-11
-2.98709e-11
-3.05362e-11
-3.04184e-11
-2.9871e-11
-3.10347e-11
-2.92383e-11
-3.17164e-11
-2.86315e-11
-3.24606e-11
-2.80449e-11
-3.32642e-11
-2.74745e-11
-3.41243e-11
-2.69171e-11
-3.5038e-11
-2.63702e-11
-3.60027e-11
-2.58323e-11
-3.70157e-11
-2.53022e-11
-3.80746e-11
-2.47792e-11
-3.91769e-11
-2.42629e-11
-4.03203e-11
-2.37533e-11
-2.32505e-11
-4.15027e-11
2.01774e-14
-1.77249e-12
7.88864e-14
-5.17348e-12
1.7588e-13
-8.4325e-12
3.11218e-13
-1.15495e-11
4.84509e-13
-1.45235e-11
6.95357e-13
-1.73548e-11
9.43216e-13
-2.0043e-11
1.22765e-12
-2.25885e-11
1.54805e-12
-2.49909e-11
1.90408e-12
-2.72506e-11
2.29523e-12
-2.93673e-11
2.72154e-12
-3.13414e-11
3.18282e-12
-3.31727e-11
3.67978e-12
-3.4862e-11
4.21282e-12
-3.64089e-11
4.78358e-12
-3.78143e-11
5.39324e-12
-3.90779e-11
6.04448e-12
-4.02007e-11
6.73928e-12
-4.11819e-11
7.48171e-12
-4.20231e-11
8.27551e-12
-4.27238e-11
9.12915e-12
-4.32878e-11
1.00477e-11
-4.37111e-11
1.10325e-11
-4.39888e-11
-2.8594e-11
-4.41244e-11
-2.74927e-11
-4.4202e-11
-2.61825e-11
-4.28892e-11
-2.49864e-11
-4.11248e-11
-2.39625e-11
-3.94408e-11
-2.31108e-11
-3.79007e-11
-2.24316e-11
-3.6499e-11
-2.1926e-11
-3.52221e-11
-2.15917e-11
-3.40572e-11
-2.14221e-11
-3.29924e-11
-2.1408e-11
-3.20149e-11
-2.15392e-11
-3.11115e-11
-2.18054e-11
-3.027e-11
-2.21971e-11
-2.94793e-11
-2.27053e-11
-2.87301e-11
-2.33218e-11
-2.8015e-11
-2.40388e-11
-2.73279e-11
-2.48494e-11
-2.66639e-11
-2.57471e-11
-2.60195e-11
-2.67256e-11
-2.53917e-11
-2.77795e-11
-2.47785e-11
-2.89033e-11
-2.41784e-11
-3.00922e-11
-2.35902e-11
-3.13417e-11
-2.30134e-11
-3.26475e-11
-2.24475e-11
-2.18924e-11
-3.40057e-11
8.57956e-15
-1.78107e-12
4.77402e-14
-5.21264e-12
1.2289e-13
-8.50765e-12
2.3593e-13
-1.16625e-11
3.88787e-13
-1.46764e-11
5.83172e-13
-1.75491e-11
8.20515e-13
-2.02804e-11
1.10215e-12
-2.28701e-11
1.4292e-12
-2.5318e-11
1.80286e-12
-2.76242e-11
2.22416e-12
-2.97886e-11
2.69435e-12
-3.18116e-11
3.21455e-12
-3.36929e-11
3.78624e-12
-3.54337e-11
4.41081e-12
-3.70335e-11
5.0902e-12
-3.84937e-11
5.82629e-12
-3.9814e-11
6.62188e-12
-4.09963e-11
7.47963e-12
-4.20397e-11
8.403e-12
-4.29464e-11
9.39459e-12
-4.37154e-11
1.04597e-11
-4.43529e-11
1.16133e-11
-4.48647e-11
1.28884e-11
-4.52642e-11
-3.04681e-11
-4.55503e-11
-2.90908e-11
-4.55794e-11
-2.68483e-11
-4.51317e-11
-2.449e-11
-4.34831e-11
-2.24202e-11
-4.15105e-11
-2.0687e-11
-3.9634e-11
-1.92779e-11
-3.7908e-11
-1.81644e-11
-3.63356e-11
-1.73167e-11
-3.49049e-11
-1.67086e-11
-3.36005e-11
-1.63175e-11
-3.2406e-11
-1.61237e-11
-3.13053e-11
-1.61099e-11
-3.02838e-11
-1.62608e-11
-2.93284e-11
-1.65627e-11
-2.84282e-11
-1.70037e-11
-2.7574e-11
-1.7573e-11
-2.67586e-11
-1.82607e-11
-2.59762e-11
-1.90582e-11
-2.5222e-11
-1.99576e-11
-2.44923e-11
-2.09517e-11
-2.37844e-11
-2.20341e-11
-2.3096e-11
-2.31988e-11
-2.24255e-11
-2.44404e-11
-2.17718e-11
-2.5754e-11
-2.11339e-11
-2.05115e-11
-2.71349e-11
6.41165e-14
-1.84518e-12
2.36585e-13
-5.3851e-12
5.06254e-13
-8.77731e-12
8.67707e-13
-1.2024e-11
1.31715e-12
-1.51258e-11
1.85108e-12
-1.80831e-11
2.46656e-12
-2.08959e-11
3.16077e-12
-2.35643e-11
3.93147e-12
-2.60887e-11
4.77617e-12
-2.84689e-11
5.69293e-12
-3.07053e-11
6.67892e-12
-3.27976e-11
7.73185e-12
-3.47459e-11
8.84785e-12
-3.65497e-11
1.00236e-11
-3.82092e-11
1.12534e-11
-3.97236e-11
1.25324e-11
-4.1093e-11
1.38526e-11
-4.23164e-11
1.5207e-11
-4.33941e-11
1.65854e-11
-4.43248e-11
1.79793e-11
-4.51093e-11
1.93712e-11
-4.57448e-11
2.07341e-11
-4.62277e-11
2.20182e-11
-4.65483e-11
1.87361e-11
-4.67063e-11
1.08314e-11
-4.67173e-11
1.24437e-11
-4.67439e-11
1.50725e-11
-4.61119e-11
1.68663e-11
-4.33044e-11
1.80161e-11
-4.07837e-11
1.86146e-11
-3.85065e-11
1.87501e-11
-3.64711e-11
1.85075e-11
-3.46623e-11
1.79558e-11
-3.30488e-11
1.71475e-11
-3.15977e-11
1.61223e-11
-3.02801e-11
1.4911e-11
-2.90725e-11
1.35385e-11
-2.79558e-11
1.20252e-11
-2.69149e-11
1.03886e-11
-2.59374e-11
8.64331e-12
-2.50134e-11
6.80216e-12
-2.4135e-11
4.87616e-12
-2.32959e-11
2.8749e-12
-2.2491e-11
8.06797e-13
-2.17163e-11
-1.3208e-12
-2.09684e-11
-3.5014e-12
-2.02449e-11
-5.7293e-12
-1.95439e-11
-7.99944e-12
-1.88638e-11
-1.82036e-11
-1.03074e-11
4.90569e-14
-1.89424e-12
1.88297e-13
-5.52434e-12
4.13175e-13
-9.00219e-12
7.21275e-13
-1.23321e-11
1.11054e-12
-1.55151e-11
1.57882e-12
-1.85513e-11
2.12395e-12
-2.1441e-11
2.74379e-12
-2.41841e-11
3.43623e-12
-2.67811e-11
4.19915e-12
-2.92318e-11
5.03048e-12
-3.15366e-11
5.92808e-12
-3.36952e-11
6.88981e-12
-3.57076e-11
7.91339e-12
-3.75733e-11
8.99652e-12
-3.92923e-11
1.01367e-11
-4.08638e-11
1.13314e-11
-4.22877e-11
1.25779e-11
-4.35628e-11
1.38733e-11
-4.46895e-11
1.52145e-11
-4.5666e-11
1.65981e-11
-4.6493e-11
1.80207e-11
-4.71673e-11
1.94819e-11
-4.76888e-11
2.09834e-11
-4.80498e-11
2.29007e-11
-4.82387e-11
-9.88107e-12
-4.82573e-11
-8.35717e-12
-4.82678e-11
-6.38393e-12
-4.80851e-11
-4.01164e-12
-4.56767e-11
-1.96494e-12
-4.28304e-11
-2.3027e-13
-4.02412e-11
1.21246e-12
-3.79138e-11
2.37644e-12
-3.58263e-11
3.27752e-12
-3.39499e-11
3.93176e-12
-3.22519e-11
4.35354e-12
-3.07019e-11
4.55529e-12
-2.92743e-11
4.54802e-12
-2.79486e-11
4.3418e-12
-2.67087e-11
3.94617e-12
-2.55417e-11
3.37042e-12
-2.44376e-11
2.62368e-12
-2.33883e-11
1.71499e-12
-2.23873e-11
6.53309e-13
-2.14294e-11
-5.52528e-13
-2.05104e-11
-1.89386e-12
-1.9627e-11
-3.36225e-12
-1.87765e-11
-4.94953e-12
-1.79566e-11
-6.64784e-12
-1.71655e-11
-1.64017e-11
-8.44965e-12
1.6783e-14
-1.91102e-12
9.13406e-14
-5.5989e-12
2.32624e-13
-9.14348e-12
4.41686e-13
-1.25411e-11
7.19013e-13
-1.57924e-11
1.06487e-12
-1.88972e-11
1.47928e-12
-2.18554e-11
1.96218e-12
-2.4667e-11
2.5133e-12
-2.73322e-11
3.13248e-12
-2.9851e-11
3.81944e-12
-3.22236e-11
4.57429e-12
-3.445e-11
5.3971e-12
-3.65304e-11
6.28862e-12
-3.84648e-11
7.24966e-12
-4.02534e-11
8.28203e-12
-4.18961e-11
9.38762e-12
-4.33933e-11
1.05696e-11
-4.47449e-11
1.18314e-11
-4.59512e-11
1.31777e-11
-4.70124e-11
1.46135e-11
-4.79288e-11
1.61464e-11
-4.87002e-11
1.77851e-11
-4.93276e-11
1.95498e-11
-4.98144e-11
2.14983e-11
-5.01677e-11
-2.22663e-11
-5.03985e-11
-2.01496e-11
-5.03845e-11
-1.77798e-11
-5.0455e-11
-1.42526e-11
-4.92039e-11
-1.09713e-11
-4.61118e-11
-8.06314e-12
-4.31493e-11
-5.57608e-12
-4.04009e-11
-3.49881e-12
-3.79035e-11
-1.80668e-12
-3.5642e-11
-4.72627e-13
-3.3586e-11
5.30309e-13
-3.17048e-11
1.22772e-12
-2.99717e-11
1.64295e-12
-2.83638e-11
1.79682e-12
-2.68625e-11
1.70781e-12
-2.54527e-11
1.39235e-12
-2.41222e-11
8.65174e-13
-2.28611e-11
1.39686e-13
-2.16618e-11
-7.71805e-13
-2.05179e-11
-1.85785e-12
-1.94244e-11
-3.10769e-12
-1.83772e-11
-4.51119e-12
-1.7373e-11
-6.05867e-12
-1.64091e-11
-7.74095e-12
-1.54832e-11
-1.45935e-11
-9.54923e-12
6.90915e-14
-1.98012e-12
2.45275e-13
-5.77509e-12
5.16724e-13
-9.41493e-12
8.80694e-13
-1.29051e-11
1.33435e-12
-1.62461e-11
1.87514e-12
-1.9438e-11
2.50074e-12
-2.2481e-11
3.20896e-12
-2.53753e-11
3.99772e-12
-2.8121e-11
4.86509e-12
-3.07184e-11
5.80916e-12
-3.31677e-11
6.8282e-12
-3.5469e-11
7.92051e-12
-3.76227e-11
9.08454e-12
-3.96288e-11
1.03188e-11
-4.14876e-11
1.16219e-11
-4.31993e-11
1.29926e-11
-4.4764e-11
1.44296e-11
-4.61819e-11
1.59317e-11
-4.74533e-11
1.74976e-11
-4.85783e-11
1.91261e-11
-4.95572e-11
2.08163e-11
-5.03904e-11
2.25679e-11
-5.10792e-11
2.4376e-11
-5.16225e-11
2.62235e-11
-5.20152e-11
2.34006e-11
-5.22379e-11
1.70217e-12
-5.22839e-11
3.61283e-12
-5.23656e-11
6.77476e-12
-5.23658e-11
1.04225e-11
-4.97595e-11
1.34894e-11
-4.62162e-11
1.60365e-11
-4.2948e-11
1.80879e-11
-3.99549e-11
1.96709e-11
-3.72251e-11
2.0821e-11
-3.47361e-11
2.15736e-11
-3.24575e-11
2.19617e-11
-3.03597e-11
2.20151e-11
-2.84172e-11
2.17613e-11
-2.66087e-11
2.12252e-11
-2.49167e-11
2.04298e-11
-2.33267e-11
1.93954e-11
-2.18268e-11
1.8141e-11
-2.04073e-11
1.66834e-11
-1.90603e-11
1.50382e-11
-1.77791e-11
1.32193e-11
-1.65584e-11
1.12398e-11
-1.53935e-11
9.11144e-12
-1.42807e-11
6.84522e-12
-1.3217e-11
-1.21996e-11
4.45131e-12
2.03109e-14
-2.00043e-12
1.10962e-13
-5.86574e-12
2.81414e-13
-9.58538e-12
5.31072e-13
-1.31547e-11
8.59021e-13
-1.6574e-11
1.26442e-12
-1.98434e-11
1.74638e-12
-2.2963e-11
2.30403e-12
-2.59329e-11
2.93637e-12
-2.87533e-11
3.64247e-12
-3.14245e-11
4.42122e-12
-3.39464e-11
5.27168e-12
-3.63195e-11
6.1927e-12
-3.85437e-11
7.18339e-12
-4.06195e-11
8.24263e-12
-4.25469e-11
9.36962e-12
-4.43263e-11
1.05633e-11
-4.59576e-11
1.1823e-11
-4.74416e-11
1.31478e-11
-4.87781e-11
1.45373e-11
-4.99678e-11
1.59906e-11
-5.10105e-11
1.75072e-11
-5.19071e-11
1.90854e-11
-5.26574e-11
2.07249e-11
-5.3262e-11
2.24338e-11
-5.37241e-11
2.415e-11
-5.40491e-11
-1.53699e-11
-5.42565e-11
-1.34943e-11
-5.42412e-11
-1.15712e-11
-5.42889e-11
-8.19694e-12
-5.31338e-11
-4.92669e-12
-4.94865e-11
-2.00105e-12
-4.58736e-11
5.2065e-13
-4.24766e-11
2.63762e-12
-3.9342e-11
4.35482e-12
-3.64533e-11
5.68276e-12
-3.37854e-11
6.6368e-12
-3.13137e-11
7.23517e-12
-2.90156e-11
7.49756e-12
-2.68711e-11
7.44408e-12
-2.48632e-11
7.09469e-12
-2.29773e-11
6.46876e-12
-2.12009e-11
5.58482e-12
-1.95234e-11
4.46039e-12
-1.79359e-11
3.11195e-12
-1.64307e-11
1.55494e-12
-1.50013e-11
-1.96197e-13
-1.36423e-11
-2.12795e-12
-1.2349e-11
-4.22764e-12
-1.11173e-11
-9.94379e-12
-6.48341e-12
7.02112e-14
-2.07064e-12
2.49255e-13
-6.04478e-12
5.24138e-13
-9.86026e-12
8.90972e-13
-1.35216e-11
1.34624e-12
-1.70293e-11
1.88686e-12
-2.0384e-11
2.5101e-12
-2.35862e-11
3.21338e-12
-2.66362e-11
3.99429e-12
-2.95342e-11
4.85046e-12
-3.22807e-11
5.77961e-12
-3.48756e-11
6.77939e-12
-3.73193e-11
7.84753e-12
-3.96119e-11
8.98154e-12
-4.17535e-11
1.0179e-11
-4.37443e-11
1.14371e-11
-4.55844e-11
1.27531e-11
-4.72737e-11
1.41238e-11
-4.88123e-11
1.55459e-11
-5.02002e-11
1.70155e-11
-5.14374e-11
1.85285e-11
-5.25236e-11
2.00802e-11
-5.34588e-11
2.16653e-11
-5.42424e-11
2.32782e-11
-5.48749e-11
2.49101e-11
-5.5356e-11
2.65443e-11
-5.56833e-11
2.23903e-11
-5.58506e-11
3.75865e-12
-5.58646e-11
5.32776e-12
-5.5858e-11
7.99615e-12
-5.58022e-11
1.09049e-11
-5.23953e-11
1.34367e-11
-4.84054e-11
1.55581e-11
-4.4598e-11
1.72386e-11
-4.10225e-11
1.84808e-11
-3.76955e-11
1.93021e-11
-3.46067e-11
1.97255e-11
-3.17371e-11
1.97759e-11
-2.9066e-11
1.94785e-11
-2.65736e-11
1.88575e-11
-2.42423e-11
1.79362e-11
-2.20559e-11
1.67356e-11
-2.00003e-11
1.52754e-11
-1.80632e-11
1.35733e-11
-1.62338e-11
1.16459e-11
-1.45032e-11
9.50811e-12
-1.28636e-11
7.17419e-12
-1.13084e-11
4.65734e-12
-9.83212e-12
1.97005e-12
-8.42999e-12
-7.09796e-12
-8.75784e-13
1.43539e-14
-2.085e-12
7.71247e-14
-6.10755e-12
1.95854e-13
-9.97899e-12
3.7194e-13
-1.36977e-11
6.06481e-13
-1.72638e-11
9.00336e-13
-2.06779e-11
1.2542e-12
-2.39401e-11
1.66855e-12
-2.70505e-11
2.14376e-12
-3.00095e-11
2.68e-12
-3.28169e-11
3.2774e-12
-3.5473e-11
3.93594e-12
-3.79778e-11
4.65562e-12
-4.03315e-11
5.43627e-12
-4.25342e-11
6.27785e-12
-4.45859e-11
7.18011e-12
-4.64866e-11
8.14302e-12
-4.82366e-11
9.16633e-12
-4.98356e-11
1.02501e-11
-5.12839e-11
1.1394e-11
-5.25813e-11
1.25983e-11
-5.37278e-11
1.38626e-11
-5.47232e-11
1.51876e-11
-5.55673e-11
1.65731e-11
-5.62605e-11
1.80195e-11
-5.68024e-11
1.95261e-11
-5.71899e-11
2.13594e-11
-5.74144e-11
-1.01165e-11
-5.74829e-11
-8.45607e-12
-5.75184e-11
-6.7412e-12
-5.75171e-11
-4.03947e-12
-5.5097e-11
-1.6978e-12
-5.07471e-11
1.9232e-13
-4.64881e-11
1.65565e-12
-4.24859e-11
2.71142e-12
-3.87512e-11
3.38084e-12
-3.52761e-11
3.6864e-12
-3.20427e-11
3.65009e-12
-2.90297e-11
3.29225e-12
-2.62158e-11
2.63136e-12
-2.35814e-11
1.6842e-12
-2.11088e-11
4.66145e-13
-1.87823e-11
-1.0086e-12
-1.65884e-11
-2.72672e-12
-1.45157e-11
-4.67557e-12
-1.25544e-11
-6.843e-12
-1.06962e-11
-9.21721e-12
-8.93421e-12
-1.17867e-11
-7.26265e-12
-1.45401e-11
-5.67654e-12
-4.17156e-12
-1.74665e-11
1.72657e-14
-2.10227e-12
6.84408e-14
-6.15873e-12
1.56066e-13
-1.00666e-11
2.83887e-13
-1.38255e-11
4.5506e-13
-1.7435e-11
6.72238e-13
-2.0895e-11
9.3771e-13
-2.42055e-11
1.25352e-12
-2.73664e-11
1.62155e-12
-3.03775e-11
2.04356e-12
-3.32389e-11
2.52127e-12
-3.59507e-11
3.05641e-12
-3.8513e-11
3.6508e-12
-4.09259e-11
4.3064e-12
-4.31898e-11
5.02538e-12
-4.53049e-11
5.81023e-12
-4.72715e-11
6.66381e-12
-4.90902e-11
7.58944e-12
-5.07612e-11
8.59101e-12
-5.22855e-11
9.67307e-12
-5.36634e-11
1.08411e-11
-5.48958e-11
1.21013e-11
-5.59834e-11
1.34611e-11
-5.69271e-11
1.49277e-11
-5.77271e-11
1.65111e-11
-5.83857e-11
1.82312e-11
-5.891e-11
2.01305e-11
-5.93137e-11
-2.02382e-11
-5.95969e-11
-1.84706e-11
-5.95762e-11
-1.6334e-11
-5.96537e-11
-1.26009e-11
-5.88301e-11
-9.45298e-12
-5.3895e-11
-6.94399e-12
-4.89971e-11
-5.07114e-12
-4.43587e-11
-3.78972e-12
-4.00327e-11
-3.0498e-12
-3.60161e-11
-2.80409e-12
-3.22884e-11
-3.00942e-12
-2.88243e-11
-3.6267e-12
-2.55985e-11
-4.62079e-12
-2.25873e-11
-5.96024e-12
-1.97693e-11
-7.61693e-12
-1.71256e-11
-9.56567e-12
-1.46397e-11
-1.17838e-11
-1.22976e-11
-1.42506e-11
-1.00875e-11
-1.69476e-11
-7.99918e-12
-1.98575e-11
-6.0243e-12
-2.29644e-11
-4.15578e-12
-2.62529e-11
-2.38803e-12
-7.32901e-13
-2.96916e-11
4.64897e-14
-2.14876e-12
1.81151e-13
-6.29339e-12
3.99932e-13
-1.02854e-11
6.99295e-13
-1.41248e-11
1.07592e-12
-1.78116e-11
1.52663e-12
-2.13457e-11
2.04828e-12
-2.47272e-11
2.63786e-12
-2.79559e-11
3.29242e-12
-3.1032e-11
4.00909e-12
-3.39556e-11
4.78499e-12
-3.67266e-11
5.61731e-12
-3.93453e-11
6.50314e-12
-4.18118e-11
7.43963e-12
-4.41263e-11
8.42375e-12
-4.6289e-11
9.45253e-12
-4.83003e-11
1.05227e-11
-5.01604e-11
1.16311e-11
-5.18697e-11
1.27742e-11
-5.34285e-11
1.39483e-11
-5.48375e-11
1.51495e-11
-5.6097e-11
1.63735e-11
-5.72075e-11
1.76161e-11
-5.81697e-11
1.88735e-11
-5.89845e-11
2.01407e-11
-5.96529e-11
2.14051e-11
-6.01744e-11
2.2634e-11
-6.05425e-11
2.4799e-11
-6.07459e-11
1.4691e-12
-6.08375e-11
2.67739e-12
-6.08619e-11
4.39716e-12
-6.05499e-11
5.64225e-12
-5.51401e-11
6.36949e-12
-4.97243e-11
6.57787e-12
-4.45671e-11
6.27086e-12
-3.97257e-11
5.4643e-12
-3.52095e-11
4.18299e-12
-3.10071e-11
2.4563e-12
-2.70977e-11
3.15671e-13
-2.34579e-11
-2.20687e-12
-2.00648e-11
-5.07961e-12
-1.68966e-11
-8.27177e-12
-1.39334e-11
-1.1754e-11
-1.11575e-11
-1.54984e-11
-8.55316e-12
-1.94791e-11
-6.10676e-12
-2.3672e-11
-3.80629e-12
-2.80561e-11
-1.64017e-12
-3.26103e-11
3.98354e-13
-3.73119e-11
2.31356e-12
4.11901e-12
-4.21638e-11
5.31295e-14
-2.20189e-12
2.0855e-13
-6.44881e-12
4.61003e-13
-1.05378e-11
8.04693e-13
-1.44685e-11
1.23397e-12
-1.82409e-11
1.74333e-12
-2.18551e-11
2.32726e-12
-2.53111e-11
2.98037e-12
-2.8609e-11
3.69722e-12
-3.17489e-11
4.47241e-12
-3.47308e-11
5.30039e-12
-3.75546e-11
6.17558e-12
-4.02205e-11
7.09218e-12
-4.27284e-11
8.04425e-12
-4.50783e-11
9.02556e-12
-4.72703e-11
1.00297e-11
-4.93044e-11
1.10497e-11
-5.11804e-11
1.20786e-11
-5.28986e-11
1.31088e-11
-5.44587e-11
1.41322e-11
-5.58609e-11
1.51404e-11
-5.71051e-11
1.61245e-11
-5.81915e-11
1.70747e-11
-5.91199e-11
1.79805e-11
-5.98903e-11
1.88299e-11
-6.05023e-11
1.96128e-11
-6.09573e-11
2.03297e-11
-6.12595e-11
2.0971e-11
-6.14176e-11
-6.09194e-12
-6.14455e-11
-5.57505e-12
-6.13788e-11
-6.10462e-12
-6.00203e-11
-6.97158e-12
-5.42731e-11
-8.11577e-12
-4.85801e-11
-9.55659e-12
-4.31263e-11
-1.13157e-11
-3.79666e-11
-1.34045e-11
-3.31206e-11
-1.58258e-11
-2.85858e-11
-1.85751e-11
-2.43484e-11
-2.16425e-11
-2.03906e-11
-2.50141e-11
-1.66931e-11
-2.86738e-11
-1.32369e-11
-3.26035e-11
-1.00036e-11
-3.67848e-11
-6.97624e-12
-4.11982e-11
-4.13978e-12
-4.58218e-11
-1.48312e-12
-5.06423e-11
1.01421e-12
-5.56408e-11
3.35835e-12
-6.07987e-11
5.55619e-12
-6.61027e-11
7.61756e-12
9.55023e-12
-7.15339e-11
4.91814e-14
-2.25107e-12
1.85853e-13
-6.58548e-12
4.02559e-13
-1.07546e-11
6.93639e-13
-1.47596e-11
1.05381e-12
-1.86011e-11
1.47791e-12
-2.22792e-11
1.96101e-12
-2.57942e-11
2.4981e-12
-2.91461e-11
3.08431e-12
-3.23351e-11
3.71454e-12
-3.5361e-11
4.38375e-12
-3.82238e-11
5.08651e-12
-4.09232e-11
5.81745e-12
-4.34593e-11
6.57067e-12
-4.58316e-11
7.34034e-12
-4.804e-11
8.12001e-12
-5.0084e-11
8.9033e-12
-5.19637e-11
9.6832e-12
-5.36785e-11
1.04529e-11
-5.52284e-11
1.12048e-11
-5.66129e-11
1.19319e-11
-5.78322e-11
1.26263e-11
-5.88859e-11
1.32806e-11
-5.97743e-11
1.38877e-11
-6.04974e-11
1.4442e-11
-6.10566e-11
1.49377e-11
-6.1453e-11
1.53647e-11
-6.16865e-11
1.55363e-11
-6.17508e-11
-6.23196e-12
-6.18044e-11
-5.92034e-12
-6.16904e-11
-7.76111e-12
-5.81795e-11
-9.95993e-12
-5.20743e-11
-1.25815e-11
-4.59586e-11
-1.56292e-11
-4.00785e-11
-1.91027e-11
-3.44932e-11
-2.29965e-11
-2.92268e-11
-2.7298e-11
-2.42843e-11
-3.1987e-11
-1.96594e-11
-3.70374e-11
-1.53401e-11
-4.242e-11
-1.13105e-11
-4.81035e-11
-7.55346e-12
-5.40567e-11
-4.0504e-12
-6.02824e-11
-7.50509e-13
-6.66801e-11
2.25789e-12
-7.32569e-11
5.09368e-12
-7.99825e-11
7.73976e-12
-8.68316e-11
1.02075e-11
-9.37832e-11
1.25078e-11
-1.00816e-10
1.46508e-11
1.66454e-11
-1.07912e-10
9.20785e-15
-2.26027e-12
4.06163e-14
-6.61689e-12
9.6764e-14
-1.08107e-11
1.79669e-13
-1.48425e-11
2.91024e-13
-1.87124e-11
4.325e-13
-2.24207e-11
6.05314e-13
-2.5967e-11
8.10696e-13
-2.93515e-11
1.04922e-12
-3.25736e-11
1.32151e-12
-3.56333e-11
1.62726e-12
-3.85295e-11
1.96628e-12
-4.12623e-11
2.33716e-12
-4.38302e-11
2.73861e-12
-4.6233e-11
3.16789e-12
-4.84692e-11
3.62238e-12
-5.05385e-11
4.09772e-12
-5.2439e-11
4.58979e-12
-5.41706e-11
5.0924e-12
-5.5731e-11
5.59971e-12
-5.71202e-11
6.10343e-12
-5.83359e-11
6.59591e-12
-5.93784e-11
7.06788e-12
-6.02462e-11
7.51382e-12
-6.09433e-11
7.93029e-12
-6.14731e-11
8.3019e-12
-6.18246e-11
8.3965e-12
-6.20402e-11
-2.04799e-11
-6.23375e-11
-2.00148e-11
-6.22695e-11
-1.95021e-11
-6.22032e-11
-2.10629e-11
-5.66187e-11
-2.34235e-11
-4.97136e-11
-2.65282e-11
-4.28539e-11
-3.03685e-11
-3.62382e-11
-3.49178e-11
-2.99439e-11
-4.01331e-11
-2.40115e-11
-4.5961e-11
-1.84564e-11
-5.23414e-11
-1.3279e-11
-5.92114e-11
-8.47006e-12
-6.65059e-11
-4.01604e-12
-7.41442e-11
8.48609e-14
-8.21068e-11
3.9122e-12
-9.02845e-11
7.42717e-12
-9.86952e-11
1.06685e-11
-1.07259e-10
1.36571e-11
-1.1593e-10
1.64115e-11
-1.24672e-10
1.89489e-11
-1.33449e-10
2.12849e-11
-1.42232e-10
2.34337e-11
2.54082e-11
-1.50994e-10
1.49487e-14
-2.27522e-12
6.54385e-14
-6.66738e-12
1.51314e-13
-1.08966e-11
2.7088e-13
-1.49621e-11
4.24543e-13
-1.88661e-11
6.14204e-13
-2.26103e-11
8.4288e-13
-2.61957e-11
1.11425e-12
-2.96229e-11
1.4324e-12
-3.28918e-11
1.8014e-12
-3.60023e-11
2.22515e-12
-3.89533e-11
2.70684e-12
-4.17439e-11
3.2489e-12
-4.43722e-11
3.85231e-12
-4.68364e-11
4.51653e-12
-4.91335e-11
5.23867e-12
-5.12607e-11
6.01328e-12
-5.32137e-11
6.83137e-12
-5.49886e-11
7.67982e-12
-5.65794e-11
8.54035e-12
-5.79807e-11
9.38884e-12
-5.91844e-11
1.01954e-11
-6.0185e-11
1.09259e-11
-6.09767e-11
1.15424e-11
-6.15599e-11
1.20047e-11
-6.19354e-11
9.97539e-12
-6.22807e-11
-1.75189e-11
-6.25489e-11
-1.73472e-11
-6.25091e-11
-1.73344e-11
-6.22823e-11
-1.92988e-11
-6.02387e-11
-2.39157e-11
-5.20019e-11
-3.03159e-11
-4.33134e-11
-3.81715e-11
-3.49983e-11
-4.72164e-11
-2.71932e-11
-5.72419e-11
-1.99184e-11
-6.80734e-11
-1.31799e-11
-7.95563e-11
-6.97349e-12
-9.15688e-11
-1.26659e-12
-1.03938e-10
3.89916e-12
-1.16565e-10
8.61111e-12
-1.29367e-10
1.2887e-11
-1.42214e-10
1.67585e-11
-1.55044e-10
2.02577e-11
-1.67792e-10
2.34164e-11
-1.804e-10
2.62646e-11
-1.92818e-10
2.88304e-11
-2.05009e-10
3.11397e-11
-2.1694e-10
3.32158e-11
-2.28586e-10
3.508e-11
3.67512e-11
-2.39929e-10
-5.0121e-14
-2.2251e-12
-2.1908e-13
-6.49842e-12
-4.88127e-13
-1.06275e-11
-8.21826e-13
-1.46284e-11
-1.18733e-12
-1.85006e-11
-1.55329e-12
-2.22444e-11
-1.88971e-12
-2.58593e-11
-2.1667e-12
-2.93459e-11
-2.35467e-12
-3.27038e-11
-2.42287e-12
-3.59341e-11
-2.33985e-12
-3.90363e-11
-2.07198e-12
-4.20118e-11
-1.58382e-12
-4.48604e-11
-8.37415e-13
-4.75828e-11
2.08559e-13
-5.01794e-11
1.59691e-12
-5.2649e-11
3.3764e-12
-5.49931e-11
5.59347e-12
-5.72057e-11
8.30578e-12
-5.92917e-11
1.15619e-11
-6.12369e-11
1.54191e-11
-6.30416e-11
1.99229e-11
-6.46887e-11
2.44174e-11
-6.54712e-11
2.89165e-11
-6.60589e-11
1.59501e-11
-6.59658e-11
6.50553e-13
-6.57114e-11
2.98425e-12
-6.48826e-11
4.13079e-12
-6.36557e-11
-2.16905e-11
-3.6461e-11
-4.61021e-11
-3.58272e-11
-7.03362e-11
-2.77678e-11
-9.34131e-11
-2.02366e-11
-1.15153e-10
-1.32588e-11
-1.35591e-10
-6.75446e-12
-1.54693e-10
-8.1668e-13
-1.72835e-10
4.9615e-12
-1.90006e-10
1.01974e-11
-2.06283e-10
1.50108e-11
-2.21802e-10
1.94183e-11
-2.36627e-10
2.34356e-11
-2.50821e-10
2.70811e-11
-2.64437e-10
3.03748e-11
-2.77518e-10
3.33387e-11
-2.90097e-10
3.59955e-11
-3.02201e-10
3.83683e-11
-3.1385e-10
4.048e-11
-3.25063e-10
4.23526e-11
-3.35855e-10
4.40071e-11
-3.46238e-10
4.54631e-11
4.67387e-11
-3.56225e-10
-1.35341e-13
-2.08976e-12
-3.63648e-13
-6.27011e-12
-6.01294e-13
-1.03899e-11
-8.11938e-13
-1.44177e-11
-9.64612e-13
-1.83479e-11
-1.02956e-12
-2.21794e-11
-9.80888e-13
-2.5908e-11
-7.905e-13
-2.95363e-11
-4.33152e-13
-3.30612e-11
1.21941e-13
-3.64892e-11
9.0326e-13
-3.98176e-11
1.94797e-12
-4.30565e-11
3.29134e-12
-4.62038e-11
4.97985e-12
-4.92713e-11
7.05878e-12
-5.22584e-11
9.58554e-12
-5.51758e-11
1.26189e-11
-5.80265e-11
1.62304e-11
-6.08172e-11
2.05104e-11
-6.35717e-11
2.55708e-11
-6.62973e-11
3.11776e-11
-6.86484e-11
3.7287e-11
-7.07981e-11
3.8795e-11
-7.47976e-11
7.36775e-12
-7.21692e-11
9.60943e-12
-6.85968e-11
-1.10869e-10
5.47666e-11
-1.30121e-10
-4.56306e-11
-1.67337e-10
-2.64392e-11
-2.06932e-10
3.13336e-12
-2.57222e-10
1.44637e-11
-3.05916e-10
2.09263e-11
-3.51567e-10
2.5414e-11
-3.93258e-10
2.84319e-11
-4.30508e-10
3.04959e-11
-4.63346e-10
3.20211e-11
-4.91674e-10
3.32895e-11
-5.15946e-10
3.44702e-11
-5.36591e-10
3.56551e-11
-5.54057e-10
3.68843e-11
-5.68786e-10
3.81647e-11
-5.81189e-10
3.94839e-11
-5.91633e-10
4.08197e-11
-6.00442e-10
4.2147e-11
-6.07888e-10
4.34417e-11
-6.14203e-10
4.46833e-11
-6.19578e-10
4.58554e-11
-6.24172e-10
4.69464e-11
-6.28114e-10
4.79486e-11
-6.31509e-10
4.8858e-11
4.96735e-11
-6.34443e-10
3.89501e-13
1.36251e-12
2.81855e-12
4.70566e-12
6.97592e-12
9.58493e-12
1.24911e-11
1.56552e-11
1.90393e-11
2.26065e-11
2.63201e-11
3.01434e-11
3.40381e-11
3.7965e-11
4.18816e-11
4.57488e-11
4.95382e-11
5.32518e-11
5.62286e-11
5.84096e-11
6.10522e-11
1.39846e-11
-4.39709e-12
-9.71732e-11
-1.33803e-10
-1.04463e-10
-2.06338e-10
-2.74093e-10
-3.19736e-10
-3.60172e-10
-3.97926e-10
-4.32943e-10
-4.65246e-10
-4.94885e-10
-5.21924e-10
-5.46447e-10
-5.68568e-10
-5.88425e-10
-6.06172e-10
-6.21973e-10
-6.35996e-10
-6.48405e-10
-6.59361e-10
-6.69011e-10
-6.77497e-10
-6.84943e-10
-6.91467e-10
-6.97171e-10
-7.02149e-10
-7.06483e-10
-4.83482e-11
-2.39741e-11
-4.95286e-11
-2.35206e-11
-5.07337e-11
-2.3073e-11
-5.1962e-11
-2.26318e-11
-5.32122e-11
-2.21973e-11
-5.44829e-11
-2.17699e-11
-5.57729e-11
-2.135e-11
-5.7081e-11
-2.09378e-11
-5.8406e-11
-2.05335e-11
-5.97469e-11
-2.01373e-11
-6.11026e-11
-1.97492e-11
-6.24721e-11
-1.93692e-11
-6.38544e-11
-1.89973e-11
-6.52487e-11
-1.86333e-11
-6.6654e-11
-1.82772e-11
-6.80695e-11
-1.79289e-11
-6.94944e-11
-1.75881e-11
-7.09279e-11
-1.72546e-11
-7.23692e-11
-1.69283e-11
-7.38177e-11
-1.66089e-11
-7.52726e-11
-1.62963e-11
-7.67333e-11
-1.59901e-11
-7.81991e-11
-1.56902e-11
-7.96694e-11
-1.53964e-11
-8.11435e-11
-1.51084e-11
-8.2621e-11
-1.48261e-11
-8.41012e-11
-1.45491e-11
-8.55835e-11
-1.42775e-11
-8.70675e-11
-1.40109e-11
-8.85526e-11
-1.37493e-11
-9.00383e-11
-1.34926e-11
-9.15242e-11
-1.32407e-11
-9.30097e-11
-1.29937e-11
-9.44943e-11
-1.27514e-11
-9.59777e-11
-1.25141e-11
-9.74593e-11
-1.22819e-11
-9.89388e-11
-1.20551e-11
-1.00416e-10
-1.18339e-11
-1.01889e-10
-1.1619e-11
-1.0336e-10
-1.14107e-11
-1.04826e-10
-1.12099e-11
-1.06288e-10
-1.10174e-11
-1.07746e-10
-1.08342e-11
-1.09198e-10
-1.06615e-11
-1.10645e-10
-1.05006e-11
-1.12086e-10
-1.03527e-11
-1.13521e-10
-1.0219e-11
-1.14948e-10
-1.00999e-11
-1.16369e-10
-9.99438e-12
-9.89262e-12
-1.17784e-10
-4.27219e-11
-2.27549e-11
-4.39759e-11
-2.22666e-11
-4.52628e-11
-2.17861e-11
-4.65807e-11
-2.13138e-11
-4.79279e-11
-2.085e-11
-4.93027e-11
-2.03951e-11
-5.07035e-11
-1.99493e-11
-5.21286e-11
-1.95127e-11
-5.35765e-11
-1.90856e-11
-5.50459e-11
-1.86679e-11
-5.65354e-11
-1.82597e-11
-5.80436e-11
-1.7861e-11
-5.95692e-11
-1.74717e-11
-6.1111e-11
-1.70915e-11
-6.26678e-11
-1.67204e-11
-6.42385e-11
-1.63582e-11
-6.58219e-11
-1.60046e-11
-6.74172e-11
-1.56594e-11
-6.90231e-11
-1.53224e-11
-7.06388e-11
-1.49932e-11
-7.22633e-11
-1.46718e-11
-7.38956e-11
-1.43577e-11
-7.55351e-11
-1.40508e-11
-7.71807e-11
-1.37508e-11
-7.88317e-11
-1.34574e-11
-8.04873e-11
-1.31705e-11
-8.21468e-11
-1.28897e-11
-8.38093e-11
-1.26149e-11
-8.54743e-11
-1.23459e-11
-8.71411e-11
-1.20826e-11
-8.88089e-11
-1.18248e-11
-9.04771e-11
-1.15725e-11
-9.21452e-11
-1.13256e-11
-9.38125e-11
-1.10841e-11
-9.54783e-11
-1.08482e-11
-9.71423e-11
-1.0618e-11
-9.88037e-11
-1.03936e-11
-1.00462e-10
-1.01756e-11
-1.02117e-10
-9.96417e-12
-1.03768e-10
-9.76003e-12
-1.05414e-10
-9.56385e-12
-1.07055e-10
-9.37648e-12
-1.0869e-10
-9.19894e-12
-1.10319e-10
-9.03236e-12
-1.11941e-10
-8.87803e-12
-1.13557e-10
-8.73725e-12
-1.15165e-10
-8.61113e-12
-1.16765e-10
-8.50015e-12
-1.18356e-10
-8.40298e-12
-8.31124e-12
-1.19937e-10
-3.54125e-11
-2.13481e-11
-3.68645e-11
-2.08146e-11
-3.83585e-11
-2.02921e-11
-3.98915e-11
-1.97809e-11
-4.14605e-11
-1.9281e-11
-4.3063e-11
-1.87926e-11
-4.46964e-11
-1.83159e-11
-4.63583e-11
-1.78508e-11
-4.80465e-11
-1.73974e-11
-4.97589e-11
-1.69555e-11
-5.14934e-11
-1.65252e-11
-5.32483e-11
-1.61062e-11
-5.50215e-11
-1.56984e-11
-5.68116e-11
-1.53014e-11
-5.86169e-11
-1.49151e-11
-6.04359e-11
-1.45392e-11
-6.22671e-11
-1.41734e-11
-6.41092e-11
-1.38173e-11
-6.59609e-11
-1.34707e-11
-6.7821e-11
-1.31332e-11
-6.96883e-11
-1.28045e-11
-7.15618e-11
-1.24842e-11
-7.34404e-11
-1.21722e-11
-7.53231e-11
-1.18681e-11
-7.7209e-11
-1.15715e-11
-7.90972e-11
-1.12822e-11
-8.09869e-11
-1.1e-11
-8.28773e-11
-1.07245e-11
-8.47675e-11
-1.04557e-11
-8.66569e-11
-1.01932e-11
-8.85448e-11
-9.93697e-12
-9.04304e-11
-9.68686e-12
-9.23132e-11
-9.44283e-12
-9.41925e-11
-9.20486e-12
-9.60677e-11
-8.97302e-12
-9.79382e-11
-8.74745e-12
-9.98035e-11
-8.52835e-12
-1.01663e-10
-8.31604e-12
-1.03516e-10
-8.11096e-12
-1.05363e-10
-7.91366e-12
-1.07202e-10
-7.72482e-12
-1.09033e-10
-7.54531e-12
-1.10856e-10
-7.37613e-12
-1.1267e-10
-7.21843e-12
-1.14474e-10
-7.07348e-12
-1.16269e-10
-6.94258e-12
-1.18053e-10
-6.82685e-12
-1.19826e-10
-6.72673e-12
-1.21589e-10
-6.64083e-12
-6.55874e-12
-1.23341e-10
-2.85789e-11
-1.9904e-11
-3.00821e-11
-1.93115e-11
-3.16406e-11
-1.87336e-11
-3.3251e-11
-1.81705e-11
-3.49099e-11
-1.7622e-11
-3.66143e-11
-1.70883e-11
-3.83611e-11
-1.65691e-11
-4.01474e-11
-1.60645e-11
-4.19705e-11
-1.55742e-11
-4.38278e-11
-1.50982e-11
-4.57168e-11
-1.46362e-11
-4.7635e-11
-1.4188e-11
-4.95803e-11
-1.37531e-11
-5.15503e-11
-1.33314e-11
-5.35429e-11
-1.29225e-11
-5.55562e-11
-1.25259e-11
-5.75882e-11
-1.21414e-11
-5.96371e-11
-1.17684e-11
-6.17011e-11
-1.14067e-11
-6.37785e-11
-1.10557e-11
-6.58678e-11
-1.07152e-11
-6.79674e-11
-1.03847e-11
-7.00758e-11
-1.00638e-11
-7.21917e-11
-9.75216e-12
-7.43138e-11
-9.44943e-12
-7.64407e-11
-9.15526e-12
-7.85714e-11
-8.86934e-12
-8.07046e-11
-8.59135e-12
-8.28392e-11
-8.32103e-12
-8.49743e-11
-8.05816e-12
-8.71087e-11
-7.80252e-12
-8.92416e-11
-7.55396e-12