/*--------------------------------*- C++ -*----------------------------------*\
| =========                 |                                                 |
| \\      /  F ield         | OpenFOAM: The Open Source CFD Toolbox           |
|  \\    /   O peration     | Version:  2.4.0                                 |
|   \\  /    A nd           | Web:      www.OpenFOAM.org                      |
|    \\/     M anipulation  |                                                 |
\*---------------------------------------------------------------------------*/
FoamFile
{
    version     2.0;
    format      ascii;
    class       volVectorField;
    location    "2";
    object      U;
}
// * * * * * * * * * * * * * * * * * * * * * * * * * * * * * * * * * * * * * //

dimensions      [0 1 -1 0 0 0 0];

internalField   nonuniform List<vector> 
8000
(
(1.47988e-08 -0.000172333 0)
(1.64143e-07 -0.000503096 0)
(4.65359e-07 -0.00081995 0)
(9.12846e-07 -0.00112287 0)
(1.49534e-06 -0.00141182 0)
(2.20179e-06 -0.00168679 0)
(3.02473e-06 -0.00194779 0)
(3.95446e-06 -0.00219478 0)
(4.98385e-06 -0.00242777 0)
(6.10256e-06 -0.00264673 0)
(7.30404e-06 -0.00285167 0)
(8.5768e-06 -0.00304257 0)
(9.91542e-06 -0.00321942 0)
(1.13069e-05 -0.00338221 0)
(1.27486e-05 -0.00353093 0)
(1.4226e-05 -0.00366557 0)
(1.5735e-05 -0.00378614 0)
(1.72348e-05 -0.00389262 0)
(1.86966e-05 -0.003985 0)
(2.01837e-05 -0.00406328 0)
(2.22348e-05 -0.00412747 0)
(2.56621e-05 -0.00417754 0)
(2.7882e-05 -0.00421348 0)
(1.75289e-05 -0.00423531 0)
(-4.16103e-05 -0.0042455 0)
(-0.000190472 -0.00424764 0)
(-0.00049295 -0.00410472 0)
(-0.00024396 -0.00395425 0)
(-0.000245094 -0.00381622 0)
(-0.000256165 -0.00369276 0)
(-0.000262672 -0.00358318 0)
(-0.000264694 -0.00348603 0)
(-0.000266523 -0.00339957 0)
(-0.000269186 -0.00332209 0)
(-0.000272571 -0.00325195 0)
(-0.0002765 -0.00318771 0)
(-0.000280908 -0.00312814 0)
(-0.000285776 -0.00307219 0)
(-0.000291086 -0.00301901 0)
(-0.000296817 -0.00296793 0)
(-0.000302949 -0.00291842 0)
(-0.000309461 -0.00287008 0)
(-0.000316331 -0.0028226 0)
(-0.000323542 -0.00277576 0)
(-0.000331075 -0.00272941 0)
(-0.000338913 -0.00268346 0)
(-0.000347039 -0.00263784 0)
(-0.000355436 -0.00259255 0)
(-0.000364091 -0.00254758 0)
(-0.000372988 -0.00250297 0)
(3.45015e-08 -0.000173715 0)
(3.65956e-07 -0.00050709 0)
(1.02951e-06 -0.000826442 0)
(2.01155e-06 -0.00113175 0)
(3.2889e-06 -0.00142297 0)
(4.83671e-06 -0.00170009 0)
(6.64424e-06 -0.00196312 0)
(8.68967e-06 -0.00221203 0)
(1.0967e-05 -0.00244682 0)
(1.34531e-05 -0.00266748 0)
(1.61463e-05 -0.00287399 0)
(1.90204e-05 -0.00306634 0)
(2.20791e-05 -0.00324452 0)
(2.52909e-05 -0.00340853 0)
(2.86676e-05 -0.00355834 0)
(3.21708e-05 -0.00369395 0)
(3.58159e-05 -0.00381535 0)
(3.9527e-05 -0.00392252 0)
(4.32954e-05 -0.00401545 0)
(4.71479e-05 -0.00409413 0)
(5.1735e-05 -0.00415853 0)
(5.79663e-05 -0.00420863 0)
(6.31261e-05 -0.00424437 0)
(5.36659e-05 -0.00426575 0)
(-9.59839e-06 -0.00427516 0)
(-0.000161464 -0.00427683 0)
(-0.000465595 -0.00413058 0)
(-0.000207924 -0.00397517 0)
(-0.000211829 -0.00383026 0)
(-0.000221503 -0.00369877 0)
(-0.000226108 -0.00358067 0)
(-0.00022644 -0.00347491 0)
(-0.000226842 -0.00338 0)
(-0.000228239 -0.00329432 0)
(-0.000230486 -0.00321633 0)
(-0.000233399 -0.00314458 0)
(-0.000236916 -0.00307783 0)
(-0.000241015 -0.00301503 0)
(-0.000245675 -0.00295532 0)
(-0.000250874 -0.00289803 0)
(-0.000256583 -0.0028426 0)
(-0.000262781 -0.00278863 0)
(-0.000269441 -0.00273579 0)
(-0.000276542 -0.00268387 0)
(-0.000284061 -0.00263269 0)
(-0.000291977 -0.00258216 0)
(-0.00030027 -0.0025322 0)
(-0.000308919 -0.0024828 0)
(-0.000317906 -0.00243395 0)
(-0.000327214 -0.00238566 0)
(3.19064e-08 -0.000176765 0)
(3.30609e-07 -0.000515894 0)
(9.42206e-07 -0.000840693 0)
(1.87097e-06 -0.00115112 0)
(3.10728e-06 -0.00144713 0)
(4.64471e-06 -0.00172874 0)
(6.48108e-06 -0.00199597 0)
(8.61068e-06 -0.00224883 0)
(1.10318e-05 -0.00248735 0)
(1.37372e-05 -0.0027115 0)
(1.6728e-05 -0.00292131 0)
(1.99956e-05 -0.00311676 0)
(2.35485e-05 -0.00329786 0)
(2.73756e-05 -0.00346458 0)
(3.15006e-05 -0.00361694 0)
(3.59088e-05 -0.00375488 0)
(4.06408e-05 -0.00387842 0)
(4.56389e-05 -0.00398748 0)
(5.09243e-05 -0.00408209 0)
(5.65575e-05 -0.00416211 0)
(6.33965e-05 -0.00422757 0)
(7.27226e-05 -0.00427827 0)
(8.18087e-05 -0.00431416 0)
(7.30772e-05 -0.00433498 0)
(2.76587e-06 -0.00434305 0)
(-0.000146517 -0.0043433 0)
(-0.000445364 -0.00416616 0)
(-0.000180164 -0.00399673 0)
(-0.000180251 -0.00383919 0)
(-0.000183683 -0.00369716 0)
(-0.000182424 -0.00356977 0)
(-0.000177729 -0.00345531 0)
(-0.000173882 -0.00335196 0)
(-0.000171704 -0.00325807 0)
(-0.000170988 -0.00317211 0)
(-0.000171497 -0.0030927 0)
(-0.000173113 -0.00301862 0)
(-0.000175764 -0.00294882 0)
(-0.000179381 -0.00288245 0)
(-0.000183895 -0.00281882 0)
(-0.000189244 -0.00275738 0)
(-0.000195369 -0.00269771 0)
(-0.000202215 -0.00263948 0)
(-0.000209731 -0.00258245 0)
(-0.000217872 -0.00252645 0)
(-0.000226593 -0.00247136 0)
(-0.000235854 -0.00241709 0)
(-0.000245617 -0.00236362 0)
(-0.000255846 -0.00231093 0)
(-0.00026651 -0.00225903 0)
(-5.02236e-09 -0.00017726 0)
(1.63229e-07 -0.000518105 0)
(6.10907e-07 -0.000845114 0)
(1.35625e-06 -0.00115808 0)
(2.41812e-06 -0.00145687 0)
(3.80199e-06 -0.00174149 0)
(5.52938e-06 -0.00201189 0)
(7.59895e-06 -0.00226809 0)
(1.00364e-05 -0.00251004 0)
(1.28312e-05 -0.00273778 0)
(1.60161e-05 -0.00295126 0)
(1.95714e-05 -0.00315059 0)
(2.35405e-05 -0.00333571 0)
(2.78936e-05 -0.00350679 0)
(3.26908e-05 -0.00366375 0)
(3.78927e-05 -0.00380684 0)
(4.35758e-05 -0.00393596 0)
(4.96425e-05 -0.0040514 0)
(5.61404e-05 -0.004153 0)
(6.30811e-05 -0.00424116 0)
(7.15961e-05 -0.00431573 0)
(8.33591e-05 -0.00437768 0)
(9.56554e-05 -0.00442686 0)
(8.43983e-05 -0.00446381 0)
(1.93512e-08 -0.00448872 0)
(-0.000151138 -0.00449753 0)
(-0.0004339 -0.00441972 0)
(-0.000213864 -0.0042416 0)
(-0.00017566 -0.00406596 0)
(-0.000166308 -0.00390163 0)
(-0.000158912 -0.00374936 0)
(-0.000149671 -0.0036088 0)
(-0.000141582 -0.00347936 0)
(-0.00013562 -0.00336032 0)
(-0.000131644 -0.00325066 0)
(-0.000129358 -0.00314916 0)
(-0.000128571 -0.00305461 0)
(-0.000129152 -0.00296586 0)
(-0.000130991 -0.00288193 0)
(-0.000133988 -0.00280201 0)
(-0.000138051 -0.00272545 0)
(-0.000143099 -0.00265174 0)
(-0.000149058 -0.00258046 0)
(-0.000155861 -0.00251131 0)
(-0.00016345 -0.00244403 0)
(-0.000171769 -0.00237845 0)
(-0.00018077 -0.00231444 0)
(-0.000190406 -0.0022519 0)
(-0.000200637 -0.00219077 0)
(-0.000211424 -0.00213103 0)
(1.27089e-07 -0.000179886 0)
(1.03216e-06 -0.000525795 0)
(2.78542e-06 -0.000857778 0)
(5.31213e-06 -0.00117579 0)
(8.56612e-06 -0.00147978 0)
(1.25058e-05 -0.00176974 0)
(1.71116e-05 -0.00204562 0)
(2.23521e-05 -0.00230742 0)
(2.822e-05 -0.00255511 0)
(3.4681e-05 -0.00278869 0)
(4.17377e-05 -0.00300816 0)
(4.93439e-05 -0.00321352 0)
(5.7519e-05 -0.00340477 0)
(6.6185e-05 -0.00358195 0)
(7.53741e-05 -0.00374505 0)
(8.50021e-05 -0.00389412 0)
(9.50115e-05 -0.00402918 0)
(0.00010553 -0.00415028 0)
(0.000116202 -0.00425744 0)
(0.000127178 -0.00435076 0)
(0.000137983 -0.00443024 0)
(0.000148109 -0.00449612 0)
(0.00016289 -0.00454852 0)
(0.000175163 -0.00458741 0)
(0.000165662 -0.00461116 0)
(0.000140468 -0.00461691 0)
(8.03876e-05 -0.00462742 0)
(0.000101338 -0.00448259 0)
(0.000129849 -0.00424892 0)
(0.00014324 -0.00403201 0)
(0.000147962 -0.00383521 0)
(0.000150019 -0.00365794 0)
(0.000149516 -0.00349836 0)
(0.00014631 -0.00335414 0)
(0.000140813 -0.00322296 0)
(0.000133416 -0.00310277 0)
(0.00012442 -0.00299179 0)
(0.000114047 -0.00288851 0)
(0.000102472 -0.00279169 0)
(8.98462e-05 -0.00270028 0)
(7.62958e-05 -0.00261344 0)
(6.19307e-05 -0.00253049 0)
(4.68455e-05 -0.00245088 0)
(3.11219e-05 -0.00237418 0)
(1.48313e-05 -0.00230003 0)
(-1.96332e-06 -0.00222817 0)
(-1.92064e-05 -0.00215839 0)
(-3.68493e-05 -0.00209053 0)
(-5.48491e-05 -0.00202448 0)
(-7.31681e-05 -0.00196016 0)
(8.78313e-08 -0.000188837 0)
(7.99412e-07 -0.000550763 0)
(2.23549e-06 -0.00089722 0)
(4.37245e-06 -0.00122853 0)
(7.16345e-06 -0.00154488 0)
(1.06046e-05 -0.00184634 0)
(1.4656e-05 -0.00213298 0)
(1.93283e-05 -0.00240482 0)
(2.45718e-05 -0.00266195 0)
(3.04094e-05 -0.00290435 0)
(3.67766e-05 -0.00313209 0)
(4.37138e-05 -0.00334509 0)
(5.11357e-05 -0.00354341 0)
(5.91054e-05 -0.0037269 0)
(6.75097e-05 -0.00389561 0)
(7.64418e-05 -0.00404931 0)
(8.57509e-05 -0.00418805 0)
(9.55732e-05 -0.00431153 0)
(0.000105672 -0.00441984 0)
(0.000116231 -0.00451258 0)
(0.000126968 -0.00458983 0)
(0.000138711 -0.00465085 0)
(0.000152141 -0.00469556 0)
(0.000165554 -0.00472296 0)
(0.000166597 -0.00473325 0)
(0.000121305 -0.00472799 0)
(-1.56858e-05 -0.00471946 0)
(-0.000200044 -0.00468771 0)
(-3.04962e-05 -0.00439848 0)
(-1.9763e-05 -0.00411434 0)
(-7.93229e-06 -0.00385872 0)
(4.22768e-06 -0.00363254 0)
(1.47703e-05 -0.00343356 0)
(2.31353e-05 -0.00325772 0)
(2.93619e-05 -0.00310081 0)
(3.36299e-05 -0.00295922 0)
(3.60903e-05 -0.00283009 0)
(3.68422e-05 -0.00271115 0)
(3.59657e-05 -0.00260065 0)
(3.35372e-05 -0.0024972 0)
(2.96311e-05 -0.00239971 0)
(2.43209e-05 -0.00230729 0)
(1.76795e-05 -0.00221924 0)
(9.77872e-06 -0.00213501 0)
(6.89847e-07 -0.00205415 0)
(-9.51702e-06 -0.0019763 0)
(-2.07734e-05 -0.00190118 0)
(-3.30129e-05 -0.00182857 0)
(-4.61714e-05 -0.00175829 0)
(-6.01873e-05 -0.00169021 0)
(-1.67912e-08 -0.000189033 0)
(3.22488e-07 -0.000552661 0)
(1.16503e-06 -0.000901791 0)
(2.56189e-06 -0.00123647 0)
(4.5035e-06 -0.00155675 0)
(7.00059e-06 -0.00186256 0)
(1.00368e-05 -0.00215388 0)
(1.36328e-05 -0.00243069 0)
(1.77615e-05 -0.00269299 0)
(2.24525e-05 -0.00294077 0)
(2.76662e-05 -0.00317403 0)
(3.34462e-05 -0.00339276 0)
(3.97407e-05 -0.00359697 0)
(4.66138e-05 -0.00378666 0)
(5.40005e-05 -0.00396181 0)
(6.19953e-05 -0.00412243 0)
(7.052e-05 -0.00426852 0)
(7.97023e-05 -0.00440008 0)
(8.93976e-05 -0.00451714 0)
(9.97108e-05 -0.00461971 0)
(0.000110616 -0.00470784 0)
(0.00012339 -0.0047816 0)
(0.000139879 -0.0048409 0)
(0.000157459 -0.00488579 0)
(0.000150215 -0.00491564 0)
(6.55229e-05 -0.00493129 0)
(-8.75568e-05 -0.00493428 0)
(-0.000243482 -0.00494344 0)
(-0.000236316 -0.00471138 0)
(-8.67941e-05 -0.0044358 0)
(-6.6909e-05 -0.00417511 0)
(-5.1927e-05 -0.00393509 0)
(-3.59152e-05 -0.00371619 0)
(-2.07755e-05 -0.0035168 0)
(-8.46189e-06 -0.00333434 0)
(8.98665e-07 -0.00316621 0)
(7.64313e-06 -0.00301018 0)
(1.20385e-05 -0.00286441 0)
(1.42721e-05 -0.00272739 0)
(1.44962e-05 -0.00259795 0)
(1.28467e-05 -0.00247516 0)
(9.44742e-06 -0.00235826 0)
(4.41034e-06 -0.00224666 0)
(-2.16199e-06 -0.00213988 0)
(-1.01749e-05 -0.00203753 0)
(-1.95399e-05 -0.00193929 0)
(-3.01736e-05 -0.00184488 0)
(-4.19969e-05 -0.00175408 0)
(-5.49344e-05 -0.00166671 0)
(-6.89142e-05 -0.0015826 0)
(1.52352e-07 -0.000194911 0)
(1.08746e-06 -0.000569693 0)
(2.8578e-06 -0.000929457 0)
(5.40143e-06 -0.00127429 0)
(8.68482e-06 -0.00160426 0)
(1.26632e-05 -0.00191939 0)
(1.73396e-05 -0.0022197 0)
(2.26713e-05 -0.00250521 0)
(2.86725e-05 -0.00277594 0)
(3.52898e-05 -0.00303191 0)
(4.25522e-05 -0.00327316 0)
(5.03927e-05 -0.00349969 0)
(5.88603e-05 -0.00371155 0)
(6.78648e-05 -0.00390874 0)
(7.7492e-05 -0.0040913 0)
(8.76032e-05 -0.00425922 0)
(9.83523e-05 -0.00441257 0)
(0.000109541 -0.00455131 0)
(0.000121335 -0.00467553 0)
(0.000133561 -0.00478519 0)
(0.000146177 -0.00488039 0)
(0.000159664 -0.00496107 0)
(0.000174608 -0.00502746 0)
(0.000190251 -0.00507955 0)
(0.000202611 -0.00511722 0)
(0.000196742 -0.00513864 0)
(0.00016034 -0.00514215 0)
(5.07109e-05 -0.00514922 0)
(-4.77151e-05 -0.0051467 0)
(5.19031e-05 -0.00481341 0)
(0.000100047 -0.00447555 0)
(0.000122449 -0.00416455 0)
(0.000138299 -0.00388253 0)
(0.000151794 -0.00362788 0)
(0.000162642 -0.0033975 0)
(0.000170292 -0.00318793 0)
(0.000174829 -0.002996 0)
(0.000176539 -0.002819 0)
(0.000175682 -0.00265467 0)
(0.000172476 -0.00250113 0)
(0.000167108 -0.00235688 0)
(0.000159751 -0.00222072 0)
(0.000150561 -0.00209166 0)
(0.000139682 -0.00196893 0)
(0.000127242 -0.0018519 0)
(0.000113359 -0.00174009 0)
(9.81417e-05 -0.00163308 0)
(8.16879e-05 -0.00153055 0)
(6.40888e-05 -0.00143224 0)
(4.54291e-05 -0.00133794 0)
(-2.2918e-08 -0.000199157 0)
(3.92096e-07 -0.000582425 0)
(1.41874e-06 -0.000950647 0)
(3.09014e-06 -0.00130386 0)
(5.40542e-06 -0.00164209 0)
(8.3375e-06 -0.00196535 0)
(1.18935e-05 -0.00227365 0)
(1.60484e-05 -0.00256701 0)
(2.08169e-05 -0.00284543 0)
(2.61647e-05 -0.00310894 0)
(3.21157e-05 -0.00335756 0)
(3.86232e-05 -0.0035913 0)
(4.57246e-05 -0.00381017 0)
(5.33575e-05 -0.00401422 0)
(6.15773e-05 -0.00420342 0)
(7.03018e-05 -0.00437783 0)
(7.9613e-05 -0.00453743 0)
(8.94014e-05 -0.00468227 0)
(9.97858e-05 -0.00481233 0)
(0.000110567 -0.00492767 0)
(0.00012186 -0.00502825 0)
(0.000133534 -0.00511414 0)
(0.000146742 -0.00518536 0)
(0.000163054 -0.00524189 0)
(0.000179824 -0.00528383 0)
(0.000173948 -0.00531037 0)
(9.81761e-05 -0.00532281 0)
(-4.28257e-05 -0.00532455 0)
(-0.000178624 -0.00532823 0)
(-0.000168518 -0.00510969 0)
(-3.62412e-05 -0.00475205 0)
(-2.26585e-05 -0.00441117 0)
(-5.0608e-06 -0.00409601 0)
(1.29593e-05 -0.00380674 0)
(2.86393e-05 -0.00354129 0)
(4.09425e-05 -0.00329683 0)
(5.00435e-05 -0.00307065 0)
(5.61997e-05 -0.00286043 0)
(5.95952e-05 -0.00266419 0)
(6.03884e-05 -0.00248031 0)
(5.87365e-05 -0.00230742 0)
(5.47962e-05 -0.00214438 0)
(4.87196e-05 -0.00199022 0)
(4.06511e-05 -0.00184413 0)
(3.07268e-05 -0.00170544 0)
(1.90744e-05 -0.00157357 0)
(5.81319e-06 -0.00144801 0)
(-8.9451e-06 -0.00132834 0)
(-2.50959e-05 -0.00121421 0)
(-4.25412e-05 -0.00110531 0)
(1.53808e-07 -0.000202873 0)
(1.10768e-06 -0.000593602 0)
(2.90207e-06 -0.000969287 0)
(5.47682e-06 -0.00132993 0)
(8.77263e-06 -0.00167555 0)
(1.27666e-05 -0.00200615 0)
(1.74225e-05 -0.00232176 0)
(2.27395e-05 -0.00262239 0)
(2.86736e-05 -0.00290804 0)
(3.52354e-05 -0.00317876 0)
(4.2371e-05 -0.00343453 0)
(5.01034e-05 -0.0036754 0)
(5.83658e-05 -0.00390137 0)
(6.71966e-05 -0.00411248 0)
(7.65056e-05 -0.00430875 0)
(8.6363e-05 -0.00449022 0)
(9.66259e-05 -0.0046569 0)
(0.000107429 -0.00480885 0)
(0.000118567 -0.00494609 0)
(0.000130168 -0.0050687 0)
(0.000142072 -0.00517668 0)
(0.000154144 -0.00527014 0)
(0.000166987 -0.00534907 0)
(0.000181058 -0.0054137 0)
(0.000195273 -0.00546411 0)
(0.000205168 -0.00550027 0)
(0.000196187 -0.00552063 0)
(0.000160243 -0.00552481 0)
(5.99943e-05 -0.00552984 0)
(-2.23392e-05 -0.00552899 0)
(5.23725e-05 -0.00516674 0)
(0.000100836 -0.00478071 0)
(0.000120207 -0.00441503 0)
(0.000133076 -0.00407482 0)
(0.000143642 -0.00375997 0)
(0.000151783 -0.00346866 0)
(0.000156815 -0.0031986 0)
(0.000158702 -0.00294754 0)
(0.000157669 -0.00271341 0)
(0.000153947 -0.00249442 0)
(0.000147734 -0.00228899 0)
(0.000139207 -0.00209576 0)
(0.000128529 -0.00191355 0)
(0.000115847 -0.00174137 0)
(0.000101299 -0.00157835 0)
(8.50105e-05 -0.00142377 0)
(6.70978e-05 -0.00127703 0)
(4.76701e-05 -0.00113758 0)
(2.68301e-05 -0.00100499 0)
(4.67524e-06 -0.00087887 0)
(-1.15358e-08 -0.000209674 0)
(2.72827e-07 -0.000613011 0)
(9.82324e-07 -0.00100044 0)
(2.15514e-06 -0.00137206 0)
(3.79472e-06 -0.001728 0)
(5.90865e-06 -0.00206835 0)
(8.49675e-06 -0.00239318 0)
(1.15711e-05 -0.00270256 0)
(1.51259e-05 -0.00299651 0)
(1.91748e-05 -0.00327508 0)
(2.37051e-05 -0.0035383 0)
(2.8734e-05 -0.00378617 0)
(3.42407e-05 -0.00401871 0)
(4.025e-05 -0.00423593 0)
(4.67297e-05 -0.00443782 0)
(5.37162e-05 -0.00462436 0)
(6.11639e-05 -0.00479554 0)
(6.91248e-05 -0.0049513 0)
(7.75394e-05 -0.00509163 0)
(8.64758e-05 -0.00521646 0)
(9.58161e-05 -0.0053257 0)
(0.00010563 -0.00541926 0)
(0.000115823 -0.00549701 0)
(0.000127312 -0.00555885 0)
(0.000141154 -0.00560465 0)
(0.000155602 -0.00563435 0)
(0.000153826 -0.00564767 0)
(9.71691e-05 -0.00564662 0)
(-1.67662e-05 -0.00564166 0)
(-0.00012985 -0.00563353 0)
(-0.00010143 -0.00529223 0)
(-9.73128e-06 -0.00488639 0)
(-3.93054e-06 -0.00449122 0)
(8.31396e-06 -0.00411867 0)
(1.80557e-05 -0.00377048 0)
(2.50915e-05 -0.00344604 0)
(2.89941e-05 -0.00314388 0)
(3.0029e-05 -0.0028622 0)
(2.84062e-05 -0.00259917 0)
(2.4293e-05 -0.00235304 0)
(1.78277e-05 -0.00212221 0)
(9.13651e-06 -0.00190521 0)
(-1.66297e-06 -0.00170076 0)
(-1.4461e-05 -0.00150776 0)
(-2.91543e-05 -0.00132524 0)
(-4.5644e-05 -0.0011524 0)
(-6.38345e-05 -0.00098855 0)
(-8.36324e-05 -0.000833109 0)
(-0.000104946 -0.000685589 0)
(-0.000127686 -0.000545567 0)
(3.13362e-08 -0.000208049 0)
(2.7986e-07 -0.000609583 0)
(8.19687e-07 -0.000996451 0)
(1.67589e-06 -0.00136857 0)
(2.86521e-06 -0.00172587 0)
(4.41571e-06 -0.00206834 0)
(6.33995e-06 -0.00239594 0)
(8.66355e-06 -0.00270867 0)
(1.13923e-05 -0.0030065 0)
(1.45525e-05 -0.00328942 0)
(1.81437e-05 -0.00355742 0)
(2.21966e-05 -0.00381051 0)
(2.67051e-05 -0.00404871 0)
(3.17078e-05 -0.00427201 0)
(3.71933e-05 -0.00448046 0)
(4.32125e-05 -0.00467405 0)
(4.97488e-05 -0.00485285 0)
(5.68726e-05 -0.00501687 0)
(6.45645e-05 -0.00516619 0)
(7.29147e-05 -0.00530082 0)
(8.18496e-05 -0.00542086 0)
(9.1409e-05 -0.00552636 0)
(0.000101649 -0.00561739 0)
(0.000113826 -0.00569404 0)
(0.000130149 -0.00575649 0)
(0.000148333 -0.00580493 0)
(0.000139902 -0.00583946 0)
(5.34234e-05 -0.00585908 0)
(-8.56561e-05 -0.00586288 0)
(-0.000201409 -0.00586925 0)
(-0.000222284 -0.00572535 0)
(-7.24289e-05 -0.00525998 0)
(-5.65966e-05 -0.00480405 0)
(-4.5198e-05 -0.00437479 0)
(-3.47546e-05 -0.00397494 0)
(-2.66369e-05 -0.0036036 0)
(-2.25277e-05 -0.0032585 0)
(-2.23754e-05 -0.0029371 0)
(-2.5745e-05 -0.00263696 0)
(-3.22666e-05 -0.00235588 0)
(-4.16626e-05 -0.00209192 0)
(-5.36998e-05 -0.00184342 0)
(-6.81687e-05 -0.00160894 0)
(-8.48787e-05 -0.00138729 0)
(-0.000103658 -0.00117747 0)
(-0.000124349 -0.000978637 0)
(-0.000146812 -0.000790096 0)
(-0.000170914 -0.000611258 0)
(-0.000196516 -0.000441625 0)
(-0.000223455 -0.00028077 0)
(7.47818e-08 -0.00021239 0)
(7.64472e-07 -0.000622126 0)
(2.16162e-06 -0.00101682 0)
(4.23575e-06 -0.00139646 0)
(6.94963e-06 -0.00176105 0)
(1.02637e-05 -0.00211058 0)
(1.41628e-05 -0.00244507 0)
(1.86094e-05 -0.0027645 0)
(2.35969e-05 -0.0030689 0)
(2.90814e-05 -0.00335826 0)
(3.50647e-05 -0.00363262 0)
(4.14946e-05 -0.00389199 0)
(4.83833e-05 -0.0041364 0)
(5.56663e-05 -0.00436587 0)
(6.3369e-05 -0.00458047 0)
(7.14103e-05 -0.00478021 0)
(7.98314e-05 -0.00496517 0)
(8.85315e-05 -0.0051354 0)
(9.7569e-05 -0.00529097 0)
(0.000106818 -0.00543194 0)
(0.000116365 -0.00555843 0)
(0.000126013 -0.00567049 0)
(0.000135923 -0.00576826 0)
(0.000145791 -0.00585182 0)
(0.000156225 -0.00592141 0)
(0.000167457 -0.00597728 0)
(0.000178693 -0.00601947 0)
(0.000183049 -0.00604612 0)
(0.000158446 -0.00605372 0)
(5.47755e-05 -0.00606167 0)
(-5.20756e-05 -0.00604362 0)
(2.46322e-05 -0.00552222 0)
(5.2215e-05 -0.00499861 0)
(5.55241e-05 -0.00450145 0)
(5.2912e-05 -0.0040368 0)
(4.77846e-05 -0.0036052 0)
(3.94142e-05 -0.00320506 0)
(2.74053e-05 -0.0028339 0)
(1.1896e-05 -0.00248909 0)
(-6.82287e-06 -0.00216811 0)
(-2.84704e-05 -0.00186861 0)
(-5.27916e-05 -0.00158847 0)
(-7.95464e-05 -0.00132585 0)
(-0.000108507 -0.00107914 0)
(-0.000139457 -0.000846953 0)
(-0.000172198 -0.000628124 0)
(-0.000206548 -0.000421654 0)
(-0.000242337 -0.000226695 0)
(-0.000279406 -4.25335e-05 0)
(-0.000317653 0.000131431 0)
(8.0936e-08 -0.000217299 0)
(8.78535e-07 -0.00063646 0)
(2.49222e-06 -0.00104017 0)
(4.88287e-06 -0.00142842 0)
(7.98775e-06 -0.00180119 0)
(1.17541e-05 -0.00215847 0)
(1.6139e-05 -0.00250028 0)
(2.10971e-05 -0.00282659 0)
(2.65888e-05 -0.00313741 0)
(3.25666e-05 -0.00343274 0)
(3.89921e-05 -0.00371259 0)
(4.5814e-05 -0.00397695 0)
(5.29956e-05 -0.00422583 0)
(6.04791e-05 -0.00445924 0)
(6.82294e-05 -0.00467718 0)
(7.61794e-05 -0.00487967 0)
(8.4296e-05 -0.00506672 0)
(9.24991e-05 -0.00523834 0)
(0.000100761 -0.00539453 0)
(0.000108983 -0.00553532 0)
(0.000117141 -0.00566071 0)
(0.000125098 -0.00577074 0)
(0.000132814 -0.00586538 0)
(0.000140203 -0.00594469 0)
(0.000147677 -0.00600864 0)
(0.000155708 -0.00605728 0)
(0.000162407 -0.00609052 0)
(0.000158508 -0.00610846 0)
(0.00011711 -0.00611312 0)
(3.87835e-06 -0.00611065 0)
(-0.000142831 -0.00606672 0)
(-6.9527e-05 -0.00550608 0)
(-5.62432e-05 -0.00494616 0)
(-6.69866e-05 -0.00441117 0)
(-8.22638e-05 -0.00390685 0)
(-9.83755e-05 -0.0034346 0)
(-0.000116382 -0.00299372 0)
(-0.000136982 -0.00258251 0)
(-0.000160243 -0.00219892 0)
(-0.000186031 -0.0018409 0)
(-0.000214194 -0.00150642 0)
(-0.00024459 -0.00119362 0)
(-0.000277073 -0.000900793 0)
(-0.000311488 -0.000626425 0)
(-0.000347673 -0.000369158 0)
(-0.000385486 -0.000127806 0)
(-0.000424795 9.87043e-05 0)
(-0.000465454 0.000311336 0)
(-0.000507335 0.000510943 0)
(-0.000550307 0.000698291 0)
(8.67205e-08 -0.000223303 0)
(8.00442e-07 -0.000653636 0)
(2.20031e-06 -0.00106773 0)
(4.2386e-06 -0.00146562 0)
(6.85569e-06 -0.00184733 0)
(1.0004e-05 -0.00221288 0)
(1.36426e-05 -0.00256229 0)
(1.77335e-05 -0.00289557 0)
(2.22361e-05 -0.00321273 0)
(2.71127e-05 -0.00351377 0)
(3.23199e-05 -0.00379871 0)
(3.78198e-05 -0.00406754 0)
(4.35642e-05 -0.00432025 0)
(4.95147e-05 -0.00455685 0)
(5.56159e-05 -0.00477731 0)
(6.18293e-05 -0.00498165 0)
(6.80904e-05 -0.00516983 0)
(7.43618e-05 -0.00534186 0)
(8.05693e-05 -0.00549771 0)
(8.66789e-05 -0.00563738 0)
(9.26024e-05 -0.00576085 0)
(9.82995e-05 -0.00586813 0)
(0.000103657 -0.00595918 0)
(0.00010872 -0.00603401 0)
(0.000113677 -0.00609257 0)
(0.000118916 -0.00613475 0)
(0.000122653 -0.00616075 0)
(0.000119069 -0.00617189 0)
(8.94727e-05 -0.00617402 0)
(-9.58584e-06 -0.00616506 0)
(-0.00016027 -0.00593714 0)
(-5.91148e-05 -0.00535553 0)
(-8.2401e-05 -0.00477618 0)
(-0.000110011 -0.00422 0)
(-0.000138356 -0.00369259 0)
(-0.000167866 -0.00319598 0)
(-0.000200454 -0.00273017 0)
(-0.000236381 -0.00229415 0)
(-0.000275393 -0.00188637 0)
(-0.00031719 -0.0015051 0)
(-0.000361513 -0.00114849 0)
(-0.00040814 -0.000814765 0)
(-0.000456916 -0.000502212 0)
(-0.000507464 -0.000209248 0)
(-0.000559433 6.54823e-05 0)
(-0.000612687 0.000323202 0)
(-0.00066703 0.000564975 0)
(-0.000722276 0.000791727 0)
(-0.000778256 0.00100429 0)
(-0.000834806 0.0012034 0)
(9.47238e-09 -0.000226579 0)
(1.56939e-07 -0.000662983 0)
(4.98386e-07 -0.00108272 0)
(1.04977e-06 -0.00148585 0)
(1.82413e-06 -0.00187244 0)
(2.83221e-06 -0.00224251 0)
(4.08783e-06 -0.00259611 0)
(5.59761e-06 -0.0029332 0)
(7.37368e-06 -0.00325383 0)
(9.41444e-06 -0.00355794 0)
(1.17299e-05 -0.00384554 0)
(1.4307e-05 -0.00411657 0)
(1.71539e-05 -0.00437104 0)
(2.02416e-05 -0.00460886 0)
(2.35769e-05 -0.00483003 0)
(2.71101e-05 -0.00503446 0)
(3.08483e-05 -0.00522216 0)
(3.47168e-05 -0.00539303 0)
(3.87273e-05 -0.0055471 0)
(4.27675e-05 -0.00568427 0)
(4.68222e-05 -0.00580459 0)
(5.06847e-05 -0.00590801 0)
(5.44786e-05 -0.00599458 0)
(5.87828e-05 -0.00606423 0)
(6.51026e-05 -0.00611694 0)
(7.10161e-05 -0.00615302 0)
(5.7155e-05 -0.00617453 0)
(-8.79279e-06 -0.00618569 0)
(-0.00010997 -0.00618339 0)
(-0.000197006 -0.00617304 0)
(-0.000255087 -0.0056943 0)
(-0.000174114 -0.00504935 0)
(-0.000191048 -0.00440654 0)
(-0.000223534 -0.00378676 0)
(-0.000259801 -0.00319667 0)
(-0.000299224 -0.00263955 0)
(-0.00034331 -0.00211647 0)
(-0.000392172 -0.00162722 0)
(-0.000445298 -0.00117088 0)
(-0.000502083 -0.00074606 0)
(-0.000561952 -0.000351155 0)
(-0.000624451 1.55499e-05 0)
(-0.000689104 0.000355942 0)
(-0.000755568 0.000671801 0)
(-0.000823542 0.000964828 0)
(-0.000892572 0.0012366 0)
(-0.000962301 0.00148855 0)
(-0.00103244 0.00172199 0)
(-0.00110273 0.00193811 0)
(-0.00117297 0.002138 0)
(7.51177e-09 -0.000225273 0)
(2.64644e-07 -0.00066006 0)
(8.0187e-07 -0.00107906 0)
(1.62256e-06 -0.00148227 0)
(2.71022e-06 -0.00186965 0)
(4.08295e-06 -0.00224123 0)
(5.7446e-06 -0.00259693 0)
(7.74327e-06 -0.00293676 0)
(1.00854e-05 -0.0032606 0)
(1.28354e-05 -0.00356847 0)
(1.5988e-05 -0.00386019 0)
(1.96175e-05 -0.00413578 0)
(2.36932e-05 -0.00439499 0)
(2.82932e-05 -0.00463785 0)
(3.33447e-05 -0.00486405 0)
(3.89242e-05 -0.00507362 0)
(4.48968e-05 -0.00526618 0)
(5.13303e-05 -0.00544178 0)
(5.79895e-05 -0.00559999 0)
(6.48759e-05 -0.0057409 0)
(7.15723e-05 -0.00586399 0)
(7.82399e-05 -0.00596937 0)
(8.53385e-05 -0.00605634 0)
(9.43374e-05 -0.0061252 0)
(0.000100803 -0.00617678 0)
(7.98508e-05 -0.00621626 0)
(-1.58071e-06 -0.00624145 0)
(-0.000109231 -0.00626413 0)
(-0.000161844 -0.00627039 0)
(-0.000181633 -0.00626681 0)
(-0.000183649 -0.00563395 0)
(-0.00021298 -0.00489679 0)
(-0.000269558 -0.00416672 0)
(-0.000338826 -0.0034644 0)
(-0.00041606 -0.0027971 0)
(-0.000499862 -0.00216904 0)
(-0.000589382 -0.00158222 0)
(-0.000683625 -0.001037 0)
(-0.000781369 -0.00053238 0)
(-0.000881592 -6.68451e-05 0)
(-0.000983497 0.000361682 0)
(-0.00108626 0.000755577 0)
(-0.00118913 0.00111719 0)
(-0.00129156 0.00144887 0)
(-0.00139309 0.00175291 0)
(-0.00149328 0.00203146 0)
(-0.00159179 0.0022865 0)
(-0.00168834 0.00251983 0)
(-0.00178269 0.00273309 0)
(-0.00187468 0.00292777 0)
(-9.55442e-09 -0.000231332 0)
(-9.07178e-07 -0.000675793 0)
(-2.68093e-06 -0.0011027 0)
(-5.14061e-06 -0.00151263 0)
(-8.00242e-06 -0.00190609 0)
(-1.09905e-05 -0.00228337 0)
(-1.38614e-05 -0.00264476 0)
(-1.6374e-05 -0.00299036 0)
(-1.82938e-05 -0.00332028 0)
(-1.93819e-05 -0.00363447 0)
(-1.93847e-05 -0.00393291 0)
(-1.80555e-05 -0.00421539 0)
(-1.50969e-05 -0.00448176 0)
(-1.02501e-05 -0.00473165 0)
(-3.14763e-06 -0.00496475 0)
(6.48055e-06 -0.0051805 0)
(1.90891e-05 -0.00537839 0)
(3.49165e-05 -0.00555763 0)
(5.44602e-05 -0.00571743 0)
(7.80308e-05 -0.00585666 0)
(0.000106965 -0.00597404 0)
(0.00014301 -0.00606783 0)
(0.000185471 -0.00613694 0)
(0.000216374 -0.0061825 0)
(0.000179556 -0.00621371 0)
(9.17688e-05 -0.0062333 0)
(1.93026e-05 -0.00624733 0)
(-1.93804e-06 -0.00623443 0)
(-2.9627e-07 -0.00613418 0)
(-0.000255887 -0.00578352 0)
(-0.00053951 -0.00474936 0)
(-0.000670299 -0.00374729 0)
(-0.000834941 -0.00281704 0)
(-0.00100311 -0.00195862 0)
(-0.00116285 -0.00117019 0)
(-0.00131228 -0.000449962 0)
(-0.00145324 0.000204745 0)
(-0.00158676 0.000797 0)
(-0.00171378 0.00133022 0)
(-0.001835 0.00180846 0)
(-0.00195096 0.00223598 0)
(-0.00206211 0.00261708 0)
(-0.00216883 0.00295593 0)
(-0.00227141 0.00325652 0)
(-0.0023701 0.00352261 0)
(-0.00246508 0.00375766 0)
(-0.0025565 0.00396485 0)
(-0.00264449 0.00414708 0)
(-0.00272916 0.00430693 0)
(-0.00281062 0.00444672 0)
(-4.68788e-07 -0.000207282 0)
(-1.95372e-06 -0.000614377 0)
(-3.86194e-06 -0.00101333 0)
(-5.7272e-06 -0.00140356 0)
(-7.25547e-06 -0.00178453 0)
(-8.17627e-06 -0.00215596 0)
(-8.30089e-06 -0.0025175 0)
(-7.39242e-06 -0.00286915 0)
(-5.2605e-06 -0.00321072 0)
(-1.66979e-06 -0.00354246 0)
(3.61425e-06 -0.00386435 0)
(1.08357e-05 -0.00417681 0)
(2.03238e-05 -0.00447999 0)
(3.23353e-05 -0.0047744 0)
(4.73486e-05 -0.0050604 0)
(6.56031e-05 -0.00533833 0)
(8.77143e-05 -0.00560902 0)
(0.000113846 -0.0058721 0)
(0.000145261 -0.00612926 0)
(0.000183724 -0.00637825 0)
(0.000232855 -0.00662295 0)
(0.000285553 -0.00685233 0)
(0.000301025 -0.0070871 0)
(0.000207669 -0.007036 0)
(7.01378e-05 -0.00696792 0)
(-8.41742e-05 -0.00680852 0)
(-0.000711488 -0.0067784 0)
(-0.00142781 -0.00654375 0)
(-0.00214254 -0.00193894 0)
(-0.00185598 -0.00139688 0)
(-0.00220867 -0.00086377 0)
(-0.00261839 -0.000362719 0)
(-0.00298768 0.000108518 0)
(-0.00330624 0.000556043 0)
(-0.00358529 0.000983755 0)
(-0.00382864 0.001393 0)
(-0.00403819 0.00178327 0)
(-0.00421697 0.00215329 0)
(-0.00436851 0.00250165 0)
(-0.00449642 0.00282718 0)
(-0.00460416 0.00312915 0)
(-0.00469485 0.00340726 0)
(-0.00477127 0.00366169 0)
(-0.00483578 0.003893 0)
(-0.00489041 0.00410205 0)
(-0.00493682 0.00428994 0)
(-0.00497641 0.00445788 0)
(-0.00501032 0.0046072 0)
(-0.00503948 0.0047392 0)
(-0.00506464 0.00485521 0)
(8.65866e-07 -0.000221276 0)
(6.14423e-06 -0.000655341 0)
(1.58017e-05 -0.00108022 0)
(2.9258e-05 -0.0014955 0)
(4.60029e-05 -0.00190055 0)
(6.56047e-05 -0.00229544 0)
(8.77566e-05 -0.00267965 0)
(0.000112103 -0.00305375 0)
(0.000138383 -0.00341728 0)
(0.000166246 -0.00377128 0)
(0.000195461 -0.00411529 0)
(0.000225665 -0.00445083 0)
(0.000256644 -0.00477736 0)
(0.000287989 -0.00509679 0)
(0.000319434 -0.00540858 0)
(0.000350432 -0.00571464 0)
(0.000380957 -0.00601457 0)
(0.000411676 -0.00630947 0)
(0.000445392 -0.00660031 0)
(0.000478599 -0.00689013 0)
(0.000476067 -0.00719686 0)
(0.00031557 -0.00734491 0)
(6.83402e-05 -0.00752452 0)
(-0.000177096 -0.00728031 0)
(-0.00064275 -0.00686939 0)
(-0.00136736 0.00664647 0)
(-0.00131934 0.000207107 0)
(-0.00189932 0.00135431 0)
(-0.00241848 0.00309654 0)
(-0.00273792 0.00436156 0)
(-0.00304059 0.00514662 0)
(-0.00332822 0.00554423 0)
(-0.00359768 0.00567249 0)
(-0.00384576 0.00563509 0)
(-0.00407243 0.00551066 0)
(-0.00427847 0.00535335 0)
(-0.00446477 0.00519747 0)
(-0.00463238 0.0050627 0)
(-0.00478247 0.00495846 0)
(-0.00491632 0.00488729 0)
(-0.00503528 0.00484744 0)
(-0.00514068 0.00483477 0)
(-0.00523383 0.00484408 0)
(-0.00531596 0.00487 0)
(-0.00538824 0.00490754 0)
(-0.00545172 0.00495235 0)
(-0.00550738 0.00500088 0)
(-0.00555609 0.00505029 0)
(-0.00559865 0.00509847 0)
(-0.00563574 0.00514387 0)
(-0.000382114 -0.00245875 0)
(-0.000391456 -0.00241498 0)
(-0.000401001 -0.0023717 0)
(-0.000410737 -0.00232896 0)
(-0.000420654 -0.00228681 0)
(-0.00043074 -0.0022453 0)
(-0.000440985 -0.00220445 0)
(-0.00045138 -0.0021643 0)
(-0.000461915 -0.00212487 0)
(-0.000472581 -0.00208617 0)
(-0.000483369 -0.00204822 0)
(-0.000494272 -0.00201102 0)
(-0.000505281 -0.00197456 0)
(-0.000516389 -0.00193885 0)
(-0.000527589 -0.00190387 0)
(-0.000538874 -0.0018696 0)
(-0.000550237 -0.00183604 0)
(-0.000561672 -0.00180317 0)
(-0.000573173 -0.00177097 0)
(-0.000584734 -0.00173941 0)
(-0.000596349 -0.00170849 0)
(-0.000608012 -0.00167817 0)
(-0.000619719 -0.00164845 0)
(-0.000631465 -0.00161929 0)
(-0.000643244 -0.00159068 0)
(-0.000655052 -0.00156259 0)
(-0.000666883 -0.00153502 0)
(-0.000678735 -0.00150794 0)
(-0.000690601 -0.00148135 0)
(-0.000702478 -0.00145521 0)
(-0.000714363 -0.00142954 0)
(-0.00072625 -0.00140433 0)
(-0.000738136 -0.00137956 0)
(-0.000750018 -0.00135525 0)
(-0.000761891 -0.00133142 0)
(-0.000773752 -0.00130807 0)