/*--------------------------------*- C++ -*----------------------------------*\
| =========                 |                                                 |
| \\      /  F ield         | OpenFOAM: The Open Source CFD Toolbox           |
|  \\    /   O peration     | Version:  2.4.0                                 |
|   \\  /    A nd           | Web:      www.OpenFOAM.org                      |
|    \\/     M anipulation  |                                                 |
\*---------------------------------------------------------------------------*/
FoamFile
{
    version     2.0;
    format      ascii;
    class       volScalarField;
    location    "4.4";
    object      H;
}
// * * * * * * * * * * * * * * * * * * * * * * * * * * * * * * * * * * * * * //

dimensions      [0 2 -2 0 0 0 0];

internalField   nonuniform List<scalar> 
125
(
-44.9479
-45.0151
-44.7514
-44.8299
-44.9327
-44.2749
-44.3503
-44.1037
-44.1738
-44.2585
-43.5642
-43.6477
-43.418
-43.4798
-43.5467
-42.817
-42.9082
-42.6953
-42.7489
-42.7986
-42.0346
-42.1334
-41.9369
-41.9825
-42.0155
-41.2185
-41.3244
-41.1441
-41.182
-41.1987
-40.3702
-40.4829
-40.3185
-40.3489
-40.3499
-39.4914
-39.6105
-39.4617
-39.4848
-39.4706
-38.5837
-38.7089
-38.5752
-38.5913
-38.5627
-37.649
-37.78
-37.6611
-37.6703
-37.6279
-36.6893
-36.8255
-36.721
-36.7238
-36.6681
-35.7066
-35.8477
-35.757
-35.7535
-35.6854
-34.703
-34.8484
-34.7712
-34.7618
-34.6819
-33.6805
-33.8299
-33.7655
-33.7506
-33.6597
-32.6415
-32.7943
-32.7424
-32.7221
-32.621
-31.5883
-31.744
-31.7038
-31.6786
-31.5681
-30.523
-30.6812
-30.6522
-30.6224
-30.5032
-29.448
-29.6081
-29.5898
-29.5557
-29.4288
-28.3657
-28.5273
-28.5189
-28.481
-28.347
-27.2784
-27.4409
-27.4419
-27.4004
-27.2604
-26.1884
-26.3514
-26.3611
-26.3164
-26.1711
-25.0981
-25.2609
-25.2787
-25.2313
-25.0815
-24.0097
-24.1719
-24.197
-24.1472
-23.9938
-22.9253
-23.0865
-23.1183
-23.0664
-22.9102
-21.8473
-22.0068
-22.0446
-21.991
-21.833
)
;

boundaryField
{
    BotWall
    {
        type            zeroGradient;
    }
    FreeStream
    {
        type            zeroGradient;
    }
    FrontNBack
    {
        type            empty;
    }
    LeftSide
    {
        type            symmetryPlane;
    }
    RightSide
    {
        type            symmetryPlane;
    }
    procBoundary2to1
    {
        type            processor;
        value           nonuniform List<scalar> 5(-45.5766 -45.6352 -45.3543 -45.4414 -45.5627);
    }
    procBoundary2to3
    {
        type            processor;
        value           nonuniform List<scalar> 5(-20.7783 -20.9357 -20.9787 -20.9239 -20.7648);
    }
}


// ************************************************************************* //
