/*--------------------------------*- C++ -*----------------------------------*\
| =========                 |                                                 |
| \\      /  F ield         | OpenFOAM: The Open Source CFD Toolbox           |
|  \\    /   O peration     | Version:  2.4.0                                 |
|   \\  /    A nd           | Web:      www.OpenFOAM.org                      |
|    \\/     M anipulation  |                                                 |
\*---------------------------------------------------------------------------*/
FoamFile
{
    version     2.0;
    format      ascii;
    class       volScalarField;
    location    "4.4";
    object      p_rgh;
}
// * * * * * * * * * * * * * * * * * * * * * * * * * * * * * * * * * * * * * //

dimensions      [1 -1 -2 0 0 0 0];

internalField   nonuniform List<scalar> 
125
(
-8.48182e-06
-8.44558e-06
-8.38712e-06
-8.4157e-06
-8.49172e-06
-8.41547e-06
-8.38011e-06
-8.32301e-06
-8.35093e-06
-8.42529e-06
-8.34849e-06
-8.31399e-06
-8.25825e-06
-8.28552e-06
-8.35814e-06
-8.28084e-06
-8.2472e-06
-8.1928e-06
-8.21945e-06
-8.29024e-06
-8.21251e-06
-8.17972e-06
-8.12665e-06
-8.15268e-06
-8.22161e-06
-8.14349e-06
-8.11154e-06
-8.05978e-06
-8.0852e-06
-8.15227e-06
-8.07376e-06
-8.04264e-06
-7.99218e-06
-8.01699e-06
-8.0822e-06
-8.00331e-06
-7.97301e-06
-7.92384e-06
-7.94805e-06
-8.01142e-06
-7.93214e-06
-7.90265e-06
-7.85476e-06
-7.87836e-06
-7.93992e-06
-7.86024e-06
-7.83155e-06
-7.78493e-06
-7.80793e-06
-7.8677e-06
-7.7876e-06
-7.75969e-06
-7.71432e-06
-7.73673e-06
-7.79474e-06
-7.71421e-06
-7.68708e-06
-7.64295e-06
-7.66476e-06
-7.72104e-06
-7.64005e-06
-7.61369e-06
-7.57079e-06
-7.59201e-06
-7.64659e-06
-7.56514e-06
-7.53953e-06
-7.49784e-06
-7.51848e-06
-7.57138e-06
-7.48944e-06
-7.46458e-06
-7.4241e-06
-7.44415e-06
-7.49541e-06
-7.41296e-06
-7.38883e-06
-7.34954e-06
-7.36901e-06
-7.41865e-06
-7.33568e-06
-7.31228e-06
-7.27416e-06
-7.29305e-06
-7.34111e-06
-7.25759e-06
-7.23491e-06
-7.19796e-06
-7.21627e-06
-7.26278e-06
-7.1787e-06
-7.15671e-06
-7.12092e-06
-7.13866e-06
-7.18364e-06
-7.09897e-06
-7.07768e-06
-7.04303e-06
-7.0602e-06
-7.10368e-06
-7.01841e-06
-6.99781e-06
-6.96428e-06
-6.98089e-06
-7.02289e-06
-6.93702e-06
-6.91708e-06
-6.88467e-06
-6.90072e-06
-6.94128e-06
-6.85479e-06
-6.83552e-06
-6.80421e-06
-6.81971e-06
-6.85883e-06
-6.77175e-06
-6.75313e-06
-6.72292e-06
-6.73787e-06
-6.77558e-06
-6.68792e-06
-6.66994e-06
-6.64081e-06
-6.65523e-06
-6.69153e-06
)
;

boundaryField
{
    BotWall
    {
        type            fixedFluxPressure;
        gradient        nonuniform 0();
        value           nonuniform 0();
    }
    FreeStream
    {
        type            totalPressure;
        rho             rho;
        psi             none;
        gamma           1;
        p0              nonuniform 0();
        value           nonuniform 0();
    }
    FrontNBack
    {
        type            empty;
    }
    LeftSide
    {
        type            symmetryPlane;
    }
    RightSide
    {
        type            symmetryPlane;
    }
    procBoundary2to1
    {
        type            processor;
        value           nonuniform List<scalar> 5(-8.54755e-06 -8.51043e-06 -8.45058e-06 -8.47988e-06 -8.55747e-06);
    }
    procBoundary2to3
    {
        type            processor;
        value           nonuniform List<scalar> 5(-6.60328e-06 -6.58593e-06 -6.55787e-06 -6.57179e-06 -6.60668e-06);
    }
}


// ************************************************************************* //
