/*--------------------------------*- C++ -*----------------------------------*\
| =========                 |                                                 |
| \\      /  F ield         | OpenFOAM: The Open Source CFD Toolbox           |
|  \\    /   O peration     | Version:  2.4.0                                 |
|   \\  /    A nd           | Web:      www.OpenFOAM.org                      |
|    \\/     M anipulation  |                                                 |
\*---------------------------------------------------------------------------*/
FoamFile
{
    version     2.0;
    format      ascii;
    class       volVectorField;
    location    "4.4";
    object      U;
}
// * * * * * * * * * * * * * * * * * * * * * * * * * * * * * * * * * * * * * //

dimensions      [0 1 -1 0 0 0 0];

internalField   nonuniform List<vector> 
125
(
(-4.13795e-08 -0.000961898 0)
(-4.36479e-08 -0.000962211 0)
(-2.7996e-09 -0.00096263 0)
(6.51006e-08 -0.000962406 0)
(4.00635e-08 -0.000961849 0)
(-4.05929e-08 -0.000961897 0)
(-4.86996e-08 -0.000962211 0)
(-6.71827e-09 -0.000962632 0)
(7.01513e-08 -0.000962407 0)
(4.22867e-08 -0.000961848 0)
(-3.93808e-08 -0.000961896 0)
(-5.22959e-08 -0.000962212 0)
(-1.00951e-08 -0.000962633 0)
(7.37165e-08 -0.000962407 0)
(4.35889e-08 -0.000961847 0)
(-3.77639e-08 -0.000961895 0)
(-5.44956e-08 -0.000962212 0)
(-1.29485e-08 -0.000962635 0)
(7.58578e-08 -0.000962408 0)
(4.40134e-08 -0.000961845 0)
(-3.57642e-08 -0.000961894 0)
(-5.53605e-08 -0.000962212 0)
(-1.52981e-08 -0.000962637 0)
(7.664e-08 -0.000962409 0)
(4.36065e-08 -0.000961844 0)
(-3.34049e-08 -0.000961893 0)
(-5.4956e-08 -0.000962212 0)
(-1.71643e-08 -0.000962638 0)
(7.61314e-08 -0.00096241 0)
(4.24155e-08 -0.000961842 0)
(-3.07106e-08 -0.000961892 0)
(-5.33502e-08 -0.000962213 0)
(-1.85686e-08 -0.00096264 0)
(7.44027e-08 -0.00096241 0)
(4.04894e-08 -0.000961841 0)
(-2.77067e-08 -0.000961891 0)
(-5.0614e-08 -0.000962213 0)
(-1.95333e-08 -0.000962642 0)
(7.15271e-08 -0.000962411 0)
(3.78786e-08 -0.000961839 0)
(-2.44198e-08 -0.00096189 0)
(-4.68206e-08 -0.000962213 0)
(-2.00814e-08 -0.000962643 0)
(6.75803e-08 -0.000962412 0)
(3.46342e-08 -0.000961838 0)
(-2.0877e-08 -0.000961889 0)
(-4.20455e-08 -0.000962213 0)
(-2.02367e-08 -0.000962645 0)
(6.26393e-08 -0.000962413 0)
(3.08083e-08 -0.000961836 0)
(-1.71063e-08 -0.000961888 0)
(-3.63656e-08 -0.000962213 0)
(-2.00236e-08 -0.000962646 0)
(5.67831e-08 -0.000962413 0)
(2.64536e-08 -0.000961835 0)
(-1.3136e-08 -0.000961887 0)
(-2.98593e-08 -0.000962213 0)
(-1.94668e-08 -0.000962647 0)
(5.00915e-08 -0.000962414 0)
(2.16231e-08 -0.000961834 0)
(-8.99481e-09 -0.000961887 0)
(-2.26058e-08 -0.000962213 0)
(-1.85916e-08 -0.000962648 0)
(4.26452e-08 -0.000962414 0)
(1.63699e-08 -0.000961833 0)
(-4.71138e-09 -0.000961886 0)
(-1.46848e-08 -0.000962212 0)
(-1.74234e-08 -0.000962649 0)
(3.45251e-08 -0.000962415 0)
(1.07468e-08 -0.000961832 0)
(-3.14384e-10 -0.000961886 0)
(-6.17605e-09 -0.000962212 0)
(-1.59877e-08 -0.000962649 0)
(2.58121e-08 -0.000962415 0)
(4.80615e-09 -0.000961832 0)
(4.16782e-09 -0.000961886 0)
(2.84111e-09 -0.000962212 0)
(-1.43102e-08 -0.00096265 0)
(1.65862e-08 -0.000962415 0)
(-1.40045e-09 -0.000961832 0)
(8.70738e-09 -0.000961886 0)
(1.22883e-08 -0.000962212 0)
(-1.24161e-08 -0.00096265 0)
(6.92663e-09 -0.000962416 0)
(-7.82251e-09 -0.000961832 0)
(1.32771e-08 -0.000961887 0)
(2.20886e-08 -0.000962211 0)
(-1.03307e-08 -0.00096265 0)
(-3.08885e-09 -0.000962416 0)
(-1.44109e-08 -0.000961832 0)
(1.78508e-08 -0.000961887 0)
(3.21668e-08 -0.000962211 0)
(-8.07864e-09 -0.000962649 0)
(-1.33845e-08 -0.000962415 0)
(-2.11181e-08 -0.000961832 0)
(2.24031e-08 -0.000961888 0)
(4.24501e-08 -0.000962211 0)
(-5.68406e-09 -0.000962648 0)
(-2.38871e-08 -0.000962415 0)
(-2.78986e-08 -0.000961833 0)
(2.69103e-08 -0.000961889 0)
(5.28685e-08 -0.00096221 0)
(-3.17045e-09 -0.000962647 0)
(-3.4526e-08 -0.000962415 0)
(-3.4709e-08 -0.000961833 0)
(3.13498e-08 -0.000961891 0)
(6.33552e-08 -0.00096221 0)
(-5.60452e-10 -0.000962646 0)
(-4.5234e-08 -0.000962414 0)
(-4.15084e-08 -0.000961835 0)
(3.57008e-08 -0.000961892 0)
(7.38469e-08 -0.000962209 0)
(2.12419e-09 -0.000962644 0)
(-5.59472e-08 -0.000962414 0)
(-4.82584e-08 -0.000961836 0)
(3.99443e-08 -0.000961894 0)
(8.42843e-08 -0.000962209 0)
(4.86284e-09 -0.000962642 0)
(-6.66061e-08 -0.000962413 0)
(-5.49238e-08 -0.000961838 0)
(4.40631e-08 -0.000961896 0)
(9.46126e-08 -0.000962208 0)
(7.63598e-09 -0.000962639 0)
(-7.71549e-08 -0.000962412 0)
(-6.1472e-08 -0.00096184 0)
)
;

boundaryField
{
    BotWall
    {
        type            fixedValue;
        value           nonuniform 0();
    }
    FreeStream
    {
        type            zeroGradient;
    }
    FrontNBack
    {
        type            empty;
    }
    LeftSide
    {
        type            symmetryPlane;
    }
    RightSide
    {
        type            symmetryPlane;
    }
    procBoundary2to1
    {
        type            processor;
        value           nonuniform List<vector> 5((-4.17215e-08 -0.000961899 0) (-3.70859e-08 -0.00096221 0) (1.67853e-09 -0.000962629 0) (5.85051e-08 -0.000962406 0) (3.68757e-08 -0.000961851 0));
    }
    procBoundary2to3
    {
        type            processor;
        value           nonuniform List<vector> 5((4.80421e-08 -0.000961898 0) (1.04781e-07 -0.000962207 0) (1.04253e-08 -0.000962637 0) (-8.7543e-08 -0.000962411 0) (-6.78741e-08 -0.000961842 0));
    }
}


// ************************************************************************* //
