/*--------------------------------*- C++ -*----------------------------------*\
| =========                 |                                                 |
| \\      /  F ield         | OpenFOAM: The Open Source CFD Toolbox           |
|  \\    /   O peration     | Version:  2.4.0                                 |
|   \\  /    A nd           | Web:      www.OpenFOAM.org                      |
|    \\/     M anipulation  |                                                 |
\*---------------------------------------------------------------------------*/
FoamFile
{
    version     2.0;
    format      ascii;
    class       volScalarField;
    location    "3.3";
    object      p;
}
// * * * * * * * * * * * * * * * * * * * * * * * * * * * * * * * * * * * * * //

dimensions      [1 -1 -2 0 0 0 0];

internalField   nonuniform List<scalar> 
125
(
-0.0330665
-0.0330665
-0.0330665
-0.0330665
-0.0330665
-0.0339264
-0.0339264
-0.0339264
-0.0339264
-0.0339264
-0.0347959
-0.0347958
-0.0347958
-0.0347958
-0.0347959
-0.035675
-0.035675
-0.035675
-0.035675
-0.035675
-0.036564
-0.036564
-0.036564
-0.036564
-0.036564
-0.0374629
-0.0374629
-0.0374628
-0.0374629
-0.0374629
-0.0383718
-0.0383718
-0.0383718
-0.0383718
-0.0383718
-0.0392908
-0.0392908
-0.0392908
-0.0392908
-0.0392908
-0.0402201
-0.0402201
-0.0402201
-0.0402201
-0.0402201
-0.0411598
-0.0411598
-0.0411598
-0.0411598
-0.0411598
-0.04211
-0.04211
-0.04211
-0.04211
-0.04211
-0.0430708
-0.0430708
-0.0430708
-0.0430708
-0.0430708
-0.0440423
-0.0440423
-0.0440423
-0.0440423
-0.0440423
-0.0450246
-0.0450246
-0.0450246
-0.0450246
-0.0450246
-0.0460179
-0.0460179
-0.0460179
-0.0460179
-0.0460179
-0.0470223
-0.0470223
-0.0470223
-0.0470223
-0.0470223
-0.0480379
-0.0480378
-0.0480378
-0.0480378
-0.0480379
-0.0490648
-0.0490648
-0.0490648
-0.0490648
-0.0490648
-0.0501032
-0.0501031
-0.0501031
-0.0501031
-0.0501032
-0.0511531
-0.0511531
-0.0511531
-0.0511531
-0.0511531
-0.0522148
-0.0522148
-0.0522148
-0.0522148
-0.0522148
-0.0532883
-0.0532883
-0.0532883
-0.0532883
-0.0532883
-0.0543738
-0.0543738
-0.0543738
-0.0543738
-0.0543738
-0.0554715
-0.0554715
-0.0554715
-0.0554715
-0.0554715
-0.0565813
-0.0565813
-0.0565813
-0.0565813
-0.0565813
)
;

boundaryField
{
    BotWall
    {
        type            calculated;
        value           nonuniform 0();
    }
    FreeStream
    {
        type            calculated;
        value           nonuniform 0();
    }
    FrontNBack
    {
        type            empty;
    }
    LeftSide
    {
        type            symmetryPlane;
    }
    RightSide
    {
        type            symmetryPlane;
    }
    procBoundary2to1
    {
        type            processor;
        value           nonuniform List<scalar> 5(-0.0322162 -0.0322162 -0.0322162 -0.0322162 -0.0322162);
    }
    procBoundary2to3
    {
        type            processor;
        value           nonuniform List<scalar> 5(-0.0577036 -0.0577036 -0.0577036 -0.0577036 -0.0577036);
    }
}


// ************************************************************************* //
