/*--------------------------------*- C++ -*----------------------------------*\
| =========                 |                                                 |
| \\      /  F ield         | OpenFOAM: The Open Source CFD Toolbox           |
|  \\    /   O peration     | Version:  2.4.0                                 |
|   \\  /    A nd           | Web:      www.OpenFOAM.org                      |
|    \\/     M anipulation  |                                                 |
\*---------------------------------------------------------------------------*/
FoamFile
{
    version     2.0;
    format      ascii;
    class       surfaceScalarField;
    location    "3.3";
    object      phi;
}
// * * * * * * * * * * * * * * * * * * * * * * * * * * * * * * * * * * * * * //

dimensions      [0 3 -1 0 0 0 0];

internalField   nonuniform List<scalar> 
220
(
1.05825e-17
-2.29483e-10
2.42171e-17
-2.29482e-10
6.65782e-19
-2.29479e-10
-2.3659e-17
-2.2948e-10
-2.29484e-10
2.27037e-18
-2.29483e-10
1.71905e-17
-2.29482e-10
5.35245e-18
-2.29479e-10
-1.32346e-17
-2.2948e-10
-2.29484e-10
-5.6658e-18
-2.29483e-10
1.04753e-17
-2.29482e-10
9.82248e-18
-2.29479e-10
-3.28781e-18
-2.2948e-10
-2.29484e-10
-1.3217e-17
-2.29483e-10
4.0777e-18
-2.29482e-10
1.40705e-17
-2.29479e-10
6.17338e-18
-2.2948e-10
-2.29484e-10
-2.0375e-17
-2.29483e-10
-1.99669e-18
-2.29482e-10
1.80915e-17
-2.29479e-10
1.51412e-17
-2.2948e-10
-2.29484e-10
-2.71318e-17
-2.29483e-10
-7.74279e-18
-2.29482e-10
2.18807e-17
-2.29479e-10
2.36088e-17
-2.2948e-10
-2.29484e-10
-3.34806e-17
-2.29483e-10
-1.3156e-17
-2.29482e-10
2.54337e-17
-2.29479e-10
3.157e-17
-2.2948e-10
-2.29484e-10
-3.9415e-17
-2.29483e-10
-1.82324e-17
-2.29482e-10
2.87467e-17
-2.29479e-10
3.90197e-17
-2.2948e-10
-2.29484e-10
-4.49294e-17
-2.29483e-10
-2.29687e-17
-2.29482e-10
3.18162e-17
-2.29479e-10
4.59534e-17
-2.2948e-10
-2.29484e-10
-5.00192e-17
-2.29483e-10
-2.73619e-17
-2.29482e-10
3.46394e-17
-2.29479e-10
5.23679e-17
-2.2948e-10
-2.29484e-10
-5.46806e-17
-2.29483e-10
-3.14103e-17
-2.29482e-10
3.72138e-17
-2.29479e-10
5.82608e-17
-2.2948e-10
-2.29484e-10
-5.89108e-17
-2.29483e-10
-3.51123e-17
-2.29482e-10
3.95376e-17
-2.2948e-10
6.36308e-17
-2.2948e-10
-2.29484e-10
-6.27081e-17
-2.29483e-10
-3.84674e-17
-2.29482e-10
4.16095e-17
-2.2948e-10
6.84777e-17
-2.2948e-10
-2.29484e-10
-6.60715e-17
-2.29483e-10
-4.14758e-17
-2.29482e-10
4.3429e-17
-2.2948e-10
7.28025e-17
-2.2948e-10
-2.29484e-10
-6.90016e-17
-2.29483e-10
-4.41386e-17
-2.29482e-10
4.49961e-17
-2.2948e-10
7.66073e-17
-2.2948e-10
-2.29484e-10
-7.14997e-17
-2.29483e-10
-4.64576e-17
-2.29482e-10
4.63116e-17
-2.2948e-10
7.98955e-17
-2.2948e-10
-2.29484e-10
-7.35686e-17
-2.29483e-10
-4.84356e-17
-2.29482e-10
4.73768e-17
-2.2948e-10
8.26717e-17
-2.2948e-10
-2.29484e-10
-7.52123e-17
-2.29483e-10
-5.00762e-17
-2.29482e-10
4.81941e-17
-2.2948e-10
8.49421e-17
-2.2948e-10
-2.29483e-10
-7.6436e-17
-2.29483e-10
-5.13842e-17
-2.29482e-10
4.87663e-17
-2.2948e-10
8.6714e-17
-2.2948e-10
-2.29483e-10
-7.72463e-17
-2.29483e-10
-5.23652e-17
-2.29482e-10
4.90973e-17
-2.2948e-10
8.79963e-17
-2.2948e-10
-2.29483e-10
-7.76513e-17
-2.29482e-10
-5.30257e-17
-2.29482e-10
4.91917e-17
-2.2948e-10
8.87993e-17
-2.2948e-10
-2.29483e-10
-7.76603e-17
-2.29482e-10
-5.33735e-17
-2.29482e-10
4.90549e-17
-2.29481e-10
8.91347e-17
-2.2948e-10
-2.29483e-10
-7.72843e-17
-2.29482e-10
-5.34173e-17
-2.29482e-10
4.86936e-17
-2.29481e-10
8.90161e-17
-2.29481e-10
-2.29483e-10
-7.65357e-17
-2.29482e-10
-5.31671e-17
-2.29482e-10
4.81149e-17
-2.29481e-10
8.84556e-17
-2.29481e-10
-2.29483e-10
-7.54283e-17
-5.26337e-17
4.73274e-17
8.74743e-17
)
;

boundaryField
{
    BotWall
    {
        type            calculated;
        value           nonuniform 0();
    }
    FreeStream
    {
        type            calculated;
        value           nonuniform 0();
    }
    FrontNBack
    {
        type            empty;
        value           nonuniform 0();
    }
    LeftSide
    {
        type            symmetryPlane;
        value           uniform 0;
    }
    RightSide
    {
        type            symmetryPlane;
        value           uniform 0;
    }
    procBoundary2to1
    {
        type            processor;
        value           nonuniform List<scalar> 5(2.29483e-10 2.29482e-10 2.29479e-10 2.2948e-10 2.29484e-10);
    }
    procBoundary2to3
    {
        type            processor;
        value           nonuniform List<scalar> 5(-2.29482e-10 -2.29482e-10 -2.29481e-10 -2.29481e-10 -2.29483e-10);
    }
}


// ************************************************************************* //
