/*--------------------------------*- C++ -*----------------------------------*\
| =========                 |                                                 |
| \\      /  F ield         | OpenFOAM: The Open Source CFD Toolbox           |
|  \\    /   O peration     | Version:  2.4.0                                 |
|   \\  /    A nd           | Web:      www.OpenFOAM.org                      |
|    \\/     M anipulation  |                                                 |
\*---------------------------------------------------------------------------*/
FoamFile
{
    version     2.0;
    format      ascii;
    class       volScalarField;
    location    "4";
    object      H;
}
// * * * * * * * * * * * * * * * * * * * * * * * * * * * * * * * * * * * * * //

dimensions      [0 2 -2 0 0 0 0];

internalField   nonuniform List<scalar> 
125
(
-11995.2
-11995.3
-11995.3
-11995.3
-11995.2
-11523.1
-11523.2
-11523.2
-11523.2
-11523.1
-11045.9
-11046
-11046
-11046
-11045.8
-10563.4
-10563.6
-10563.6
-10563.6
-10563.4
-10075.8
-10076
-10076
-10076
-10075.7
-9583
-9583.22
-9583.29
-9583.26
-9582.93
-9085.03
-9085.27
-9085.35
-9085.32
-9084.95
-8581.86
-8582.14
-8582.21
-8582.19
-8581.78
-8073.49
-8073.78
-8073.84
-8073.83
-8073.39
-7559.86
-7560.17
-7560.22
-7560.21
-7559.76
-7040.94
-7041.25
-7041.28
-7041.29
-7040.84
-6516.66
-6516.96
-6516.97
-6516.99
-6516.56
-5986.93
-5987.21
-5987.19
-5987.23
-5986.82
-5451.63
-5451.9
-5451.83
-5451.89
-5451.53
-4910.65
-4910.88
-4910.76
-4910.85
-4910.55
-4363.82
-4364
-4363.82
-4363.94
-4363.73
-3810.95
-3811.08
-3810.83
-3810.99
-3810.87
-3251.83
-3251.9
-3251.57
-3251.77
-3251.76
-2686.23
-2686.23
-2685.81
-2686.06
-2686.17
-2113.87
-2113.79
-2113.28
-2113.58
-2113.84
-1534.48
-1534.32
-1533.7
-1534.05
-1534.47
-947.743
-947.48
-946.757
-947.159
-947.752
-53.8934
-53.7401
-53.4368
-53.5995
-53.9142
-41.1569
-41.0391
-40.8059
-40.9307
-41.1716
-41.5466
-41.4312
-41.202
-41.3243
-41.5592
)
;

boundaryField
{
    BotWall
    {
        type            zeroGradient;
    }
    FreeStream
    {
        type            zeroGradient;
    }
    FrontNBack
    {
        type            empty;
    }
    LeftSide
    {
        type            symmetryPlane;
    }
    RightSide
    {
        type            symmetryPlane;
    }
    procBoundary0to1
    {
        type            processor;
        value           nonuniform List<scalar> 5(-41.9046 -41.7917 -41.5667 -41.6863 -41.9151);
    }
}


// ************************************************************************* //
