/*--------------------------------*- C++ -*----------------------------------*\
| =========                 |                                                 |
| \\      /  F ield         | OpenFOAM: The Open Source CFD Toolbox           |
|  \\    /   O peration     | Version:  2.4.0                                 |
|   \\  /    A nd           | Web:      www.OpenFOAM.org                      |
|    \\/     M anipulation  |                                                 |
\*---------------------------------------------------------------------------*/
FoamFile
{
    version     2.0;
    format      ascii;
    class       surfaceScalarField;
    location    "4";
    object      phi;
}
// * * * * * * * * * * * * * * * * * * * * * * * * * * * * * * * * * * * * * //

dimensions      [0 3 -1 0 0 0 0];

internalField   nonuniform List<scalar> 
220
(
1.32084e-17
-1.32084e-17
1.6428e-17
-3.21971e-18
-6.70406e-18
2.31322e-17
-1.71645e-17
1.04602e-17
-1.71645e-17
4.04132e-17
-5.36225e-17
4.9046e-17
-1.18541e-17
-2.0032e-17
9.2208e-17
-5.2069e-17
4.24955e-17
-6.92348e-17
6.85112e-17
-1.22135e-16
8.21273e-17
-2.54719e-17
-3.36614e-17
2.07994e-16
-8.79106e-17
9.67429e-17
-1.57147e-16
9.74421e-17
-2.19578e-16
1.15874e-16
-4.39054e-17
-4.77367e-17
3.71602e-16
-1.24728e-16
1.73732e-16
-2.81876e-16
1.27206e-16
-3.46786e-16
1.50283e-16
-6.69842e-17
-6.22652e-17
5.84148e-16
-1.62523e-16
2.73988e-16
-4.444e-16
1.57866e-16
-5.04653e-16
1.85394e-16
-9.45141e-17
-7.72829e-17
8.46822e-16
-2.01377e-16
3.98079e-16
-6.45778e-16
1.89411e-16
-6.94065e-16
2.212e-16
-1.26306e-16
-9.27913e-17
1.16081e-15
-2.41287e-16
5.46573e-16
-8.87066e-16
2.21918e-16
-9.15985e-16
2.57747e-16
-1.62137e-16
-1.08837e-16
1.52739e-15
-2.82347e-16
7.20081e-16
-1.16941e-15
2.55369e-16
-1.17136e-15
2.95023e-16
-2.01793e-16
-1.25417e-16
1.94783e-15
-3.24549e-16
9.19211e-16
-1.49397e-15
2.89856e-16
-1.46121e-15
3.33083e-16
-2.45023e-16
-1.42587e-16
2.4235e-15
-3.68003e-16
1.14462e-15
-1.86197e-15
3.25354e-16
-1.78657e-15
3.71912e-16
-2.91583e-16
-1.60342e-16
2.95575e-15
-4.12695e-16
1.39697e-15
-2.27467e-15
3.61967e-16
-2.14854e-15
4.11571e-16
-3.41189e-16
-1.78745e-16
3.54606e-15
-4.58754e-16
1.67698e-15
-2.73342e-15
3.99668e-16
-2.54821e-15
4.52045e-16
-3.93568e-16
-1.97791e-16
4.1959e-15
-5.06163e-16
1.98535e-15
-3.23958e-15
4.38572e-16
-2.98678e-15
4.93405e-16
-4.48403e-16
-2.17549e-16
4.90685e-15
-5.55067e-16
2.32287e-15
-3.79465e-15
4.78653e-16
-3.46543e-15
5.35636e-16
-5.05387e-16
-2.38017e-16
5.6805e-15
-6.05452e-16
2.6903e-15
-4.40011e-15
5.20037e-16
-3.98547e-15
5.78813e-16
-5.64165e-16
-2.5927e-16
6.51858e-15
-6.57481e-16
3.08851e-15
-5.05759e-15
5.62685e-16
-4.54816e-15
6.22914e-16
-6.24395e-16
-2.81301e-16
7.42279e-15
-7.11128e-16
3.51834e-15
-5.76872e-15
6.06712e-16
-5.15487e-15
6.6796e-16
-6.85644e-16
-3.04121e-16
8.39487e-15
-7.66571e-16
3.98079e-15
-6.53529e-15
6.52148e-16
-5.80702e-15
7.13807e-16
-7.47304e-16
-3.27729e-16
9.43641e-15
-8.23386e-16
4.47644e-15
-7.35867e-15
6.99058e-16
-6.50608e-15
7.6149e-16
-8.09737e-16
-3.53101e-16
1.0551e-14
-8.82175e-16
5.00552e-15
-8.24085e-15
7.48876e-16
-7.25495e-15
8.09395e-16
-8.70256e-16
-3.77206e-16
1.17376e-14
-9.45174e-16
5.57348e-15
-9.18602e-15
8.00502e-16
-2.49489e-14
8.68367e-16
-5.07778e-15
-4.09919e-16
1.30159e-14
-1.01624e-15
6.17981e-15
-3.1611e-14
8.67807e-16
-2.03819e-10
9.64812e-16
-2.03846e-10
-4.61021e-16
-2.03873e-10
-1.12872e-15
-2.03859e-10
-2.03812e-10
8.93169e-16
-2.03819e-10
9.52223e-16
-2.03846e-10
-4.55893e-16
-2.03872e-10
-1.13025e-15
-2.03859e-10
-2.03813e-10
8.654e-16
9.41012e-16
-4.46803e-16
-1.10127e-15
)
;

boundaryField
{
    BotWall
    {
        type            calculated;
        value           nonuniform List<scalar> 5(2.64709e-23 4.76507e-23 -9.8193e-23 -8.0453e-23 5.4028e-23);
    }
    FreeStream
    {
        type            calculated;
        value           nonuniform 0();
    }
    FrontNBack
    {
        type            empty;
        value           nonuniform 0();
    }
    LeftSide
    {
        type            symmetryPlane;
        value           uniform 0;
    }
    RightSide
    {
        type            symmetryPlane;
        value           uniform 0;
    }
    procBoundary0to1
    {
        type            processor;
        value           nonuniform List<scalar> 5(-2.0382e-10 -2.03846e-10 -2.0387e-10 -2.03858e-10 -2.03814e-10);
    }
}


// ************************************************************************* //
