/*--------------------------------*- C++ -*----------------------------------*\
| =========                 |                                                 |
| \\      /  F ield         | OpenFOAM: The Open Source CFD Toolbox           |
|  \\    /   O peration     | Version:  2.4.0                                 |
|   \\  /    A nd           | Web:      www.OpenFOAM.org                      |
|    \\/     M anipulation  |                                                 |
\*---------------------------------------------------------------------------*/
FoamFile
{
    version     2.0;
    format      ascii;
    class       volScalarField;
    location    "4";
    object      T;
}
// * * * * * * * * * * * * * * * * * * * * * * * * * * * * * * * * * * * * * //

dimensions      [0 0 0 1 0 0 0];

internalField   nonuniform List<scalar> 
125
(
293.096
293.096
293.096
293.096
293.096
293.289
293.289
293.289
293.289
293.289
293.484
293.484
293.484
293.484
293.484
293.681
293.681
293.681
293.681
293.681
293.881
293.881
293.881
293.881
293.881
294.082
294.082
294.082
294.082
294.082
294.286
294.286
294.286
294.286
294.286
294.491
294.491
294.491
294.491
294.492
294.699
294.699
294.699
294.699
294.699
294.909
294.909
294.909
294.909
294.909
295.121
295.121
295.121
295.121
295.121
295.336
295.336
295.336
295.336
295.336
295.552
295.552
295.552
295.552
295.552
295.771
295.771
295.771
295.771
295.771
295.992
295.992
295.992
295.992
295.992
296.216
296.216
296.216
296.216
296.216
296.442
296.442
296.442
296.442
296.442
296.671
296.671
296.671
296.671
296.671
296.902
296.902
296.902
296.902
296.902
297.136
297.136
297.136
297.136
297.136
297.373
297.373
297.373
297.373
297.373
297.613
297.613
297.613
297.613
297.613
297.978
297.978
297.978
297.978
297.978
297.977
297.977
297.978
297.977
297.977
297.977
297.977
297.977
297.977
297.977
)
;

boundaryField
{
    BotWall
    {
        type            fixedValue;
        value           uniform 293;
    }
    FreeStream
    {
        type            fixedValue;
        value           nonuniform 0();
    }
    FrontNBack
    {
        type            empty;
    }
    LeftSide
    {
        type            symmetryPlane;
    }
    RightSide
    {
        type            symmetryPlane;
    }
    procBoundary0to1
    {
        type            processor;
        value           nonuniform List<scalar> 5(297.977 297.977 297.977 297.977 297.977);
    }
}


// ************************************************************************* //
