/*--------------------------------*- C++ -*----------------------------------*\
| =========                 |                                                 |
| \\      /  F ield         | OpenFOAM: The Open Source CFD Toolbox           |
|  \\    /   O peration     | Version:  2.4.0                                 |
|   \\  /    A nd           | Web:      www.OpenFOAM.org                      |
|    \\/     M anipulation  |                                                 |
\*---------------------------------------------------------------------------*/
FoamFile
{
    version     2.0;
    format      ascii;
    class       volVectorField;
    location    "4";
    object      U;
}
// * * * * * * * * * * * * * * * * * * * * * * * * * * * * * * * * * * * * * //

dimensions      [0 1 -1 0 0 0 0];

internalField   nonuniform List<vector> 
125
(
(1.44359e-09 2.89399e-10 0)
(8.33733e-09 3.05541e-10 0)
(3.3788e-09 3.32933e-10 0)
(-8.09288e-09 3.19438e-10 0)
(-4.4464e-09 2.85177e-10 0)
(4.44013e-09 -9.15537e-10 0)
(2.49266e-08 -8.31173e-10 0)
(1.00355e-08 -5.60524e-10 0)
(-2.42127e-08 -6.90456e-10 0)
(-1.33661e-08 -9.55889e-10 0)
(7.56048e-09 9.33523e-10 0)
(4.15215e-08 1.28721e-09 0)
(1.66277e-08 2.06998e-09 0)
(-4.0357e-08 1.69709e-09 0)
(-2.23625e-08 8.15636e-10 0)
(1.08133e-08 -2.66837e-09 0)
(5.81328e-08 -2.06696e-09 0)
(2.31558e-08 -5.12138e-10 0)
(-5.65392e-08 -1.25323e-09 0)
(-3.14483e-08 -2.90086e-09 0)
(1.41927e-08 1.03582e-09 0)
(7.47543e-08 2.20763e-09 0)
(2.96185e-08 4.81321e-09 0)
(-7.2755e-08 3.57324e-09 0)
(-4.06191e-08 6.44354e-10 0)
(1.77123e-08 -5.09765e-09 0)
(9.14033e-08 -3.48299e-09 0)
(3.60171e-08 4.28787e-10 0)
(-8.90248e-08 -1.43592e-09 0)
(-4.98941e-08 -5.68302e-09 0)
(2.13624e-08 6.69121e-10 0)
(1.0807e-07 3.17463e-09 0)
(4.23507e-08 8.68605e-09 0)
(-1.05341e-07 6.05881e-09 0)
(-5.9266e-08 -1.58438e-10 0)
(2.51608e-08 -8.26578e-09 0)
(1.24776e-07 -5.10399e-09 0)
(4.86205e-08 2.26528e-09 0)
(-1.21728e-07 -1.25462e-09 0)
(-6.87584e-08 -9.36942e-09 0)
(2.90948e-08 -1.75994e-10 0)
(1.41508e-07 4.22158e-09 0)
(5.48252e-08 1.37608e-08 0)
(-1.38176e-07 9.20146e-09 0)
(-7.83605e-08 -1.60887e-09 0)
(3.31855e-08 -1.23441e-08 0)
(1.58293e-07 -7.05501e-09 0)
(6.09665e-08 4.91397e-09 0)
(-1.54714e-07 -8.18868e-10 0)
(-8.81003e-08 -1.4139e-08 0)
(3.74181e-08 -1.73775e-09 0)
(1.75114e-07 5.15784e-09 0)
(6.70428e-08 1.98884e-08 0)
(-1.71329e-07 1.28257e-08 0)
(-9.79652e-08 -3.9532e-09 0)
(4.18163e-08 -1.75025e-08 0)
(1.92001e-07 -9.45709e-09 0)
(7.30563e-08 8.29827e-09 0)
(-1.88055e-07 -2.33291e-10 0)
(-1.07987e-07 -2.01697e-08 0)
(4.63642e-08 -1.97005e-09 0)
(2.08937e-07 8.08009e-09 0)
(7.90053e-08 2.92274e-08 0)
(-2.04877e-07 1.90541e-08 0)
(-1.18152e-07 -5.15399e-09 0)
(5.10873e-08 -1.7271e-08 0)
(2.25956e-07 -5.77686e-09 0)
(8.4893e-08 1.90433e-08 0)
(-2.21832e-07 7.07835e-09 0)
(-1.28494e-07 -2.10035e-08 0)
(5.59697e-08 9.06437e-10 0)
(2.43038e-07 1.48538e-08 0)
(9.07171e-08 4.36891e-08 0)
(-2.38907e-07 2.97716e-08 0)
(-1.39001e-07 -3.45321e-09 0)
(6.10378e-08 -6.45468e-08 0)
(2.6022e-07 -4.89325e-08 0)
(9.64809e-08 -1.59983e-08 0)
(-2.56139e-07 -3.192e-08 0)
(-1.49708e-07 -6.95502e-08 0)
(6.62744e-08 -1.64918e-07 0)
(2.77479e-07 -1.46773e-07 0)
(1.02181e-07 -1.09773e-07 0)
(-2.73511e-07 -1.27656e-07 0)
(-1.606e-07 -1.70603e-07 0)
(7.17039e-08 -2.00089e-07 0)
(2.94844e-07 -1.80049e-07 0)
(1.07821e-07 -1.38503e-07 0)
(-2.91055e-07 -1.58644e-07 0)
(-1.71709e-07 -2.06441e-07 0)
(7.7316e-08 8.75921e-07 0)
(3.12307e-07 9.01592e-07 0)
(1.13396e-07 9.52969e-07 0)
(-3.08728e-07 9.27678e-07 0)
(-1.8299e-07 8.68599e-07 0)
(8.31594e-08 4.152e-06 0)
(3.3e-07 4.18906e-06 0)
(1.18943e-07 4.26325e-06 0)
(-3.26739e-07 4.22587e-06 0)
(-1.94605e-07 4.14264e-06 0)
(8.93268e-08 3.42591e-06 0)
(3.47971e-07 3.47305e-06 0)
(1.24643e-07 3.56157e-06 0)
(-3.45054e-07 3.51754e-06 0)
(-2.06751e-07 3.41348e-06 0)
(9.57087e-08 -1.85697e-05 0)
(3.66703e-07 -1.85621e-05 0)
(1.30296e-07 -1.85696e-05 0)
(-3.64532e-07 -1.85589e-05 0)
(-2.19494e-07 -1.85809e-05 0)
(1.0402e-07 -0.00014589 0)
(3.90734e-07 -0.00014616 0)
(1.37574e-07 -0.000146716 0)
(-3.89729e-07 -0.000146409 0)
(-2.36256e-07 -0.000145863 0)
(1.06396e-07 -0.000810398 0)
(3.9799e-07 -0.000810317 0)
(1.3976e-07 -0.0008101 0)
(-3.9722e-07 -0.000810214 0)
(-2.41054e-07 -0.000810405 0)
(1.01098e-07 -0.00185077 0)
(3.82153e-07 -0.0018508 0)
(1.34926e-07 -0.00185058 0)
(-3.79747e-07 -0.00185071 0)
(-2.29508e-07 -0.00185073 0)
)
;

boundaryField
{
    BotWall
    {
        type            fixedValue;
        value           uniform (0 0 0);
    }
    FreeStream
    {
        type            zeroGradient;
    }
    FrontNBack
    {
        type            empty;
    }
    LeftSide
    {
        type            symmetryPlane;
    }
    RightSide
    {
        type            symmetryPlane;
    }
    procBoundary0to1
    {
        type            processor;
        value           nonuniform List<vector> 5((9.23624e-08 -0.0010395 0) (3.55916e-07 -0.00103969 0) (1.27007e-07 -0.00103989 0) (-3.51933e-07 -0.00103979 0) (-2.11533e-07 -0.00103946 0));
    }
}


// ************************************************************************* //
