/*--------------------------------*- C++ -*----------------------------------*\
| =========                 |                                                 |
| \\      /  F ield         | OpenFOAM: The Open Source CFD Toolbox           |
|  \\    /   O peration     | Version:  2.4.0                                 |
|   \\  /    A nd           | Web:      www.OpenFOAM.org                      |
|    \\/     M anipulation  |                                                 |
\*---------------------------------------------------------------------------*/
FoamFile
{
    version     2.0;
    format      ascii;
    class       volScalarField;
    location    "0.5";
    object      p_rgh;
}
// * * * * * * * * * * * * * * * * * * * * * * * * * * * * * * * * * * * * * //

dimensions      [1 -1 -2 0 0 0 0];

internalField   nonuniform List<scalar> 
125
(
-4.43833e-05
-4.4383e-05
-4.43829e-05
-4.43831e-05
-4.43833e-05
-4.41347e-05
-4.41344e-05
-4.41343e-05
-4.41345e-05
-4.41347e-05
-4.38833e-05
-4.38831e-05
-4.3883e-05
-4.38832e-05
-4.38834e-05
-4.36292e-05
-4.36289e-05
-4.36288e-05
-4.36291e-05
-4.36292e-05
-4.33722e-05
-4.33719e-05
-4.33719e-05
-4.33721e-05
-4.33723e-05
-4.31123e-05
-4.31121e-05
-4.31121e-05
-4.31123e-05
-4.31125e-05
-4.28496e-05
-4.28494e-05
-4.28493e-05
-4.28496e-05
-4.28498e-05
-4.25839e-05
-4.25837e-05
-4.25837e-05
-4.25839e-05
-4.25841e-05
-4.23153e-05
-4.23151e-05
-4.23151e-05
-4.23154e-05
-4.23156e-05
-4.20437e-05
-4.20435e-05
-4.20435e-05
-4.20438e-05
-4.2044e-05
-4.17691e-05
-4.17689e-05
-4.17689e-05
-4.17692e-05
-4.17694e-05
-4.14914e-05
-4.14912e-05
-4.14912e-05
-4.14915e-05
-4.14918e-05
-4.12106e-05
-4.12105e-05
-4.12105e-05
-4.12108e-05
-4.1211e-05
-4.09267e-05
-4.09266e-05
-4.09266e-05
-4.09269e-05
-4.09271e-05
-4.06396e-05
-4.06395e-05
-4.06395e-05
-4.06398e-05
-4.06401e-05
-4.03494e-05
-4.03492e-05
-4.03493e-05
-4.03496e-05
-4.03499e-05
-4.00559e-05
-4.00558e-05
-4.00558e-05
-4.00561e-05
-4.00564e-05
-3.97591e-05
-3.9759e-05
-3.97591e-05
-3.97594e-05
-3.97597e-05
-3.9459e-05
-3.94589e-05
-3.9459e-05
-3.94594e-05
-3.94597e-05
-3.91556e-05
-3.91555e-05
-3.91556e-05
-3.9156e-05
-3.91563e-05
-3.88488e-05
-3.88488e-05
-3.88488e-05
-3.88492e-05
-3.88496e-05
-3.85386e-05
-3.85386e-05
-3.85387e-05
-3.8539e-05
-3.85394e-05
-3.8225e-05
-3.82249e-05
-3.8225e-05
-3.82254e-05
-3.82258e-05
-3.79077e-05
-3.79077e-05
-3.79078e-05
-3.79083e-05
-3.79087e-05
-3.75866e-05
-3.75866e-05
-3.75867e-05
-3.7587e-05
-3.75875e-05
)
;

boundaryField
{
    BotWall
    {
        type            fixedFluxPressure;
        gradient        nonuniform 0();
        value           nonuniform 0();
    }
    FreeStream
    {
        type            totalPressure;
        rho             rho;
        psi             none;
        gamma           1;
        p0              uniform 0;
        value           nonuniform List<scalar> 5(-3.7425e-05 -3.7425e-05 -3.7425e-05 -3.74254e-05 -3.74258e-05);
    }
    FrontNBack
    {
        type            empty;
    }
    LeftSide
    {
        type            symmetryPlane;
    }
    RightSide
    {
        type            symmetryPlane;
    }
    procBoundary3to2
    {
        type            processor;
        value           nonuniform List<scalar> 5(-4.46291e-05 -4.46288e-05 -4.46287e-05 -4.46289e-05 -4.46292e-05);
    }
}


// ************************************************************************* //
