/*--------------------------------*- C++ -*----------------------------------*\
| =========                 |                                                 |
| \\      /  F ield         | OpenFOAM: The Open Source CFD Toolbox           |
|  \\    /   O peration     | Version:  2.4.0                                 |
|   \\  /    A nd           | Web:      www.OpenFOAM.org                      |
|    \\/     M anipulation  |                                                 |
\*---------------------------------------------------------------------------*/
FoamFile
{
    version     2.0;
    format      ascii;
    class       volScalarField;
    location    "0.008";
    object      alpha1;
}
// * * * * * * * * * * * * * * * * * * * * * * * * * * * * * * * * * * * * * //

dimensions      [0 0 0 0 0 0 0];

internalField   nonuniform List<scalar> 
125
(
1
1
1
0.128623
3.8681e-106
6.03667e-112
9.4239e-118
1.34668e-123
1.68687e-129
1.82964e-135
1.71735e-141
1.39744e-147
9.8663e-154
6.03626e-160
3.18741e-166
1.44218e-172
5.5292e-179
1.76724e-185
4.59941e-192
9.41427e-199
1.43575e-205
1.48736e-212
8.66021e-220
1.59376e-227
0
0
0
0
0
0
0
0
0
0
0
0
0
0
0
0
0
0
0
0
0
0
0
0
0
0
0
0
0
0
0
0
0
0
0
0
0
0
0
0
0
0
0
0
0
0
0
0
0
0
0
0
0
0
0
0
0
0
0
0
0
0
0
0
0
0
0
0
0
0
0
0
0
0
0
0
0
0
0
0
0
0
0
0
0
0
0
0
0
0
0
0
0
0
0
0
0
0
0
0
0
)
;

boundaryField
{
    BotWall
    {
        type            fixedValue;
        value           uniform 1;
    }
    FreeStream
    {
        type            inletOutlet;
        inletValue      uniform 0;
        value           uniform 0;
    }
    FrontNBack
    {
        type            empty;
    }
    LeftSide
    {
        type            symmetryPlane;
    }
    RightSide
    {
        type            symmetryPlane;
    }
    procBoundary4to1
    {
        type            processor;
        value           uniform 0;
    }
    procBoundary4to2
    {
        type            processor;
        value           nonuniform List<scalar> 
75
(
1
1
1
0.118926
3.57831e-109
7.91967e-115
1.54669e-120
2.58008e-126
3.62165e-132
4.28207e-138
4.28845e-144
3.66402e-150
2.68262e-156
1.68576e-162
9.07551e-169
4.16268e-175
1.61078e-181
5.1788e-188
1.35235e-194
2.77206e-201
4.2279e-208
4.37581e-215
2.54368e-222
4.67142e-230
0
0
0
0
0
0
0
0
0
0
0
0
0
0
0
0
0
0
0
0
0
0
0
0
0
0
0
0
0
0
0
0
0
0
0
0
0
0
0
0
0
0
0
0
0
0
0
0
0
0
0
)
;
    }
    procBoundary4to3
    {
        type            processor;
        value           uniform 0;
    }
    procBoundary4to5
    {
        type            processor;
        value           uniform 0;
    }
    procBoundary4to6
    {
        type            processor;
        value           uniform 0;
    }
    procBoundary4to7
    {
        type            processor;
        value           nonuniform List<scalar> 
50
(
1
1
1
0.129147
8.53395e-109
9.03648e-115
1.13622e-120
1.44239e-126
1.67628e-132
1.72515e-138
1.5528e-144
1.22094e-150
8.35773e-157
4.96857e-163
2.55547e-169
1.12864e-175
4.23291e-182
1.32635e-188
3.38833e-195
6.81466e-202
1.02225e-208
1.0422e-215
5.97497e-223
1.08335e-230
0
0
0
0
0
0
0
0
0
0
0
0
0
0
0
0
0
0
0
0
0
0
0
0
0
0
)
;
    }
}


// ************************************************************************* //
