/*--------------------------------*- C++ -*----------------------------------*\
| =========                 |                                                 |
| \\      /  F ield         | OpenFOAM: The Open Source CFD Toolbox           |
|  \\    /   O peration     | Version:  2.4.0                                 |
|   \\  /    A nd           | Web:      www.OpenFOAM.org                      |
|    \\/     M anipulation  |                                                 |
\*---------------------------------------------------------------------------*/
FoamFile
{
    version     2.0;
    format      ascii;
    class       volScalarField;
    location    "0.008";
    object      H;
}
// * * * * * * * * * * * * * * * * * * * * * * * * * * * * * * * * * * * * * //

dimensions      [0 2 -2 0 0 0 0];

internalField   nonuniform List<scalar> 
125
(
-10784.5
-7881.49
-4947.71
-341.495
-262.812
-264.444
-265.009
-264.546
-263.097
-260.714
-257.45
-253.366
-248.524
-242.991
-236.835
-230.127
-222.937
-215.336
-207.394
-199.18
-190.761
-182.2
-173.56
-164.897
-156.266
-147.717
-139.295
-131.04
-122.99
-115.175
-107.623
-100.357
-93.393
-86.7467
-80.4274
-74.4412
-68.791
-63.4761
-58.4934
-53.8371
-49.4991
-45.4697
-41.7374
-38.2895
-35.1124
-32.1918
-29.5129
-27.0606
-24.8198
-22.7756
-20.9134
-19.2188
-17.6781
-16.2784
-15.0071
-13.8525
-12.8037
-11.8505
-10.9835
-10.194
-9.47412
-8.81669
-8.21517
-7.66369
-7.157
-6.69038
-6.25966
-5.86112
-5.49149
-5.14787
-4.82774
-4.52886
-4.24928
-3.9873
-3.74142
-3.51033
-3.2929
-3.08811
-2.89508
-2.71303
-2.54125
-2.37912
-2.22609
-2.08165
-1.94533
-1.81672
-1.69541
-1.58105
-1.47329
-1.37182
-1.27632
-1.18651
-1.10211
-1.02286
-0.948505
-0.878797
-0.813504
-0.7524
-0.695269
-0.641901
-1.58362e-38
-5.51632e-39
-4.83411e-40
6.2714e-41
1.72123e-41
1.13568e-42
8.59479e-44
3.09043e-44
-1.03684e-44
-6.04586e-45
-3.52763e-46
2.9039e-46
5.34169e-47
-6.65054e-48
-2.78037e-48
-2.41824e-50
8.98149e-50
8.21992e-51
-1.90539e-51
-3.60431e-52
2.15526e-53
9.85528e-54
1.71826e-55
-1.91891e-55
-1.24584e-56
)
;

boundaryField
{
    BotWall
    {
        type            zeroGradient;
    }
    FreeStream
    {
        type            zeroGradient;
    }
    FrontNBack
    {
        type            empty;
    }
    LeftSide
    {
        type            symmetryPlane;
    }
    RightSide
    {
        type            symmetryPlane;
    }
    procBoundary4to1
    {
        type            processor;
        value           nonuniform List<scalar> 
50
(
-19.6907
-18.1081
-16.6746
-15.3765
-14.2006
-13.135
-12.1685
-11.2907
-10.4925
-9.76521
-9.10127
-8.49378
-7.93658
-7.4242
-6.95179
-6.51505
-6.11022
-5.734
-5.38348
-5.05616
-4.74983
-4.46258
-4.19275
-3.9389
-3.69976
-3.47425
-3.2614
-3.06037
-2.8704
-2.69084
-2.5211
-2.36063
-2.20896
-2.06563
-1.93024
-1.80241
-1.68177
-1.568
-1.46076
-1.35976
-1.2647
-1.17531
-1.09132
-1.01246
-0.93849
-0.869165
-0.804253
-0.74353
-0.686778
-0.633788
)
;
    }
    procBoundary4to2
    {
        type            processor;
        value           nonuniform List<scalar> 
75
(
-10792.3
-7904.15
-4983.6
-364.59
-281.118
-282.633
-282.944
-282.098
-280.147
-277.154
-273.184
-268.311
-262.611
-256.163
-249.048
-241.35
-233.152
-224.538
-215.587
-206.381
-196.994
-187.5
-177.967
-168.46
-159.038
-149.754
-140.657
-131.79
-123.19
-114.888
-106.911
-99.2796
-92.0091
-85.1107
-78.5909
-72.4522
-66.6933
-61.3095
-56.2933
-51.6347
-47.3215
-43.3398
-39.6742
-36.3085
-33.2255
-30.4078
-27.8378
-25.4979
-23.3708
-21.4397
-6.67184e-31
-1.32956e-31
-4.33237e-33
1.56079e-33
2.35728e-34
3.45962e-36
-2.85076e-36
-3.48517e-37
-4.45181e-40
4.22425e-39
4.40748e-40
-3.27406e-42
-5.20528e-42
-4.88437e-43
5.16863e-45
5.43189e-45
4.88192e-46
-3.59759e-48
-4.93405e-48
-4.54685e-49
2.17584e-52
4.11465e-51
3.90471e-52
4.98633e-55
-3.57344e-54
)
;
    }
    procBoundary4to3
    {
        type            processor;
        value           uniform -0.592109;
    }
    procBoundary4to5
    {
        type            processor;
        value           uniform 2.23736e-30;
    }
    procBoundary4to6
    {
        type            processor;
        value           nonuniform List<scalar> 
75
(
-147.612
-139.22
-130.993
-122.968
-115.177
-107.645
-100.397
-93.4489
-86.8158
-80.5074
-74.5299
-68.8863
-63.5761
-58.5963
-53.9413
-49.6033
-45.5726
-41.8379
-38.3868
-35.2058
-32.2807
-29.5969
-27.1394
-24.8932
-22.8435
-20.9758
-19.2759
-17.7301
-16.3253
-15.0493
-13.8902
-12.8373
-11.8802
-11.0096
-10.2169
-9.4941
-8.83402
-8.23013
-7.67655
-7.16799
-6.69974
-6.26759
-5.86782
-5.49712
-5.1526
-4.83169
-4.53215
-4.25202
-3.98958
-3.74333
-3.51193
-3.29424
-3.08925
-2.89605
-2.71387
-2.54198
-2.37978
-2.22668
-2.08219
-1.94584
-1.81719
-1.69587
-1.58149
-1.47373
-1.37225
-1.27674
-1.18693
-1.10253
-1.02328
-0.94892
-0.879212
-0.81392
-0.752817
-0.695688
-0.642322
)
;
    }
    procBoundary4to7
    {
        type            processor;
        value           nonuniform List<scalar> 
50
(
-10784.1
-7880.32
-4945.85
-340.334
-261.892
-263.527
-264.103
-263.656
-262.231
-259.876
-256.645
-252.598
-247.798
-242.309
-236.2
-229.541
-222.402
-214.852
-206.961
-198.799
-190.43
-181.919
-173.327
-164.711
-156.125
-7.03116e-31
-9.1976e-32
1.29804e-33
1.5707e-33
1.47234e-34
-7.18574e-36
-2.76768e-36
-1.83847e-37
1.70377e-38
3.91342e-39
1.74755e-40
-2.77791e-41
-4.47699e-42
-1.193e-43
3.40723e-44
4.16988e-45
5.20013e-47
-3.2323e-47
-3.23332e-48
-1.41335e-50
2.44587e-50
2.23553e-51
7.28277e-54
-1.64135e-53
-1.47247e-54
)
;
    }
}


// ************************************************************************* //
