/*--------------------------------*- C++ -*----------------------------------*\
| =========                 |                                                 |
| \\      /  F ield         | OpenFOAM: The Open Source CFD Toolbox           |
|  \\    /   O peration     | Version:  2.4.0                                 |
|   \\  /    A nd           | Web:      www.OpenFOAM.org                      |
|    \\/     M anipulation  |                                                 |
\*---------------------------------------------------------------------------*/
FoamFile
{
    version     2.0;
    format      ascii;
    class       volScalarField;
    location    "4";
    object      alpha1;
}
// * * * * * * * * * * * * * * * * * * * * * * * * * * * * * * * * * * * * * //

dimensions      [0 0 0 0 0 0 0];

internalField   nonuniform List<scalar> 
8000
(
1
1
1
1
1
0.999999
0.999998
0.999997
0.999996
0.999996
0.999738
0.00642833
8.68338e-05
9.57919e-05
1.12844e-05
8.28541e-07
1.15872e-05
3.3028e-05
4.05609e-05
4.38204e-06
3.61674e-06
1.09573e-05
1.65478e-05
2.1397e-06
1.39943e-06
6.00335e-07
3.46203e-07
9.03148e-07
3.06616e-06
3.88893e-06
5.81042e-07
7.8706e-08
6.87573e-08
1.15415e-07
5.21639e-07
8.40543e-07
1.35347e-07
4.02473e-08
3.391e-08
3.54636e-08
9.99993e-08
4.05385e-07
6.15993e-07
6.72487e-08
2.08959e-08
1.1995e-08
1.00814e-08
8.90989e-09
7.89601e-09
7.21491e-09
1
1
1
1
1
0.999999
0.999998
0.999996
0.999995
0.999995
0.99968
0.0204804
6.65035e-05
7.56195e-05
6.74675e-06
1.82447e-06
1.96999e-05
3.44232e-05
1.42686e-05
3.61452e-06
3.61546e-06
1.10523e-05
1.57502e-05
1.06726e-06
4.01526e-07
3.82855e-07
8.6788e-07
5.13582e-06
8.2721e-06
1.55162e-06
1.06569e-07
6.517e-08
6.78017e-08
5.25329e-07
2.47028e-06
4.36729e-06
4.67463e-07
3.36915e-08
3.37657e-08
3.56376e-08
1.57471e-07
1.05512e-06
2.45565e-06
8.13586e-07
2.16534e-08
1.54071e-08
1.33545e-08
1.23045e-08
1.04052e-08
9.20956e-09
1
1
1
1
1
0.999999
0.999997
0.999994
0.999993
0.999996
0.999428
0.00645524
6.53742e-05
6.22745e-05
4.35945e-06
3.82329e-06
2.16443e-05
3.43267e-05
4.85669e-06
3.57102e-06
4.99804e-06
1.25961e-05
1.01586e-05
3.42516e-07
2.52238e-07
4.15321e-07
3.30506e-06
9.3588e-06
7.35669e-06
9.40605e-07
6.53198e-08
6.53117e-08
8.70387e-08
1.09442e-06
4.84895e-06
8.61962e-06
8.8471e-07
3.46317e-08
3.42784e-08
3.61221e-08
1.567e-07
1.13109e-06
3.1366e-06
4.3306e-06
2.73752e-07
1.95182e-08
1.79714e-08
1.99513e-08
1.5184e-08
1.31519e-08
1
1
1
1
1
0.999998
0.999996
0.999992
0.999992
0.999995
0.999489
0.0141199
6.53293e-05
5.70625e-05
4.24237e-06
4.87921e-06
2.08999e-05
2.99222e-05
3.57169e-06
3.57121e-06
6.79358e-06
1.26039e-05
7.18745e-06
2.53002e-07
2.52754e-07
8.45094e-07
5.5728e-06
9.68393e-06
7.19287e-06
5.75413e-07
6.64351e-08
6.56793e-08
1.03549e-07
1.47029e-06
6.68388e-06
1.12497e-05
4.25159e-06
8.20882e-08
3.68841e-08
3.8945e-08
1.7e-07
1.45699e-06
4.49624e-06
6.10265e-06
2.59935e-06
6.15108e-07
1.32124e-07
3.86879e-08
2.28547e-08
1.92574e-08
1
1
1
1
1
0.999998
0.999995
0.999991
0.99999
0.999993
0.999829
0.0690387
5.42227e-05
5.51229e-05
4.22733e-06
5.24653e-06
2.02171e-05
2.8107e-05
3.57212e-06
3.57191e-06
6.97763e-06
1.25965e-05
7.57605e-06
2.97689e-07
2.53291e-07
9.3e-07
5.29335e-06
9.71688e-06
9.01955e-06
1.93672e-06
2.12991e-07
6.76793e-08
9.15466e-08
7.90068e-07
4.13818e-06
1.1351e-05
1.73376e-05
2.38366e-06
3.63188e-07
7.62547e-08
1.66625e-07
1.08295e-06
3.35668e-06
6.17325e-06
6.28401e-06
6.36062e-06
3.01034e-06
1.51182e-06
2.51248e-07
7.10721e-08
1
1
1
1
1
0.999998
0.999994
0.99999
0.999988
0.999992
1
0.20328
5.42225e-05
5.69798e-05
3.9763e-06
4.97534e-06
2.0757e-05
3.00601e-05
3.60138e-06
3.5717e-06
4.33612e-06
1.09272e-05
1.48819e-05
1.33444e-06
7.11235e-07
9.1969e-07
1.93976e-06
6.50117e-06
9.50785e-06
8.24815e-06
3.63005e-06
1.98068e-06
5.80665e-07
5.43944e-07
1.83788e-06
8.8007e-06
1.90493e-05
1.89842e-05
1.11506e-05
5.03308e-06
1.63535e-06
1.00955e-06
1.01392e-06
1.80979e-06
4.19069e-06
9.65071e-06
1.08492e-05
1.0806e-05
4.3426e-06
2.54567e-06
1
1
1
1
1
0.999997
0.999993
0.999988
0.999985
0.999991
1
0.456405
5.59854e-05
7.57189e-05
3.40095e-06
3.31862e-06
1.92117e-05
3.01683e-05
1.75717e-05
5.84539e-06
4.00306e-06
8.34762e-06
1.49149e-05
4.84929e-06
3.60808e-06
7.82548e-06
3.63202e-06
2.68593e-06
2.62742e-06
4.90415e-06
1.1309e-05
1.17657e-05
1.04272e-05
4.73614e-06
1.8681e-06
2.79379e-06
6.76187e-06
1.8453e-05
3.1318e-05
3.51282e-05
3.72889e-05
1.77283e-05
7.55676e-06
3.41726e-06
2.81351e-06
2.82071e-06
7.30087e-06
1.26732e-05
1.26737e-05
1.26736e-05
1
1
1
1
1
0.999997
0.999992
0.999984
0.99998
0.99999
1
0.754757
0.000518886
9.05807e-05
1.06608e-05
2.7645e-06
5.11547e-06
1.6998e-05
3.40952e-05
2.57199e-05
5.7135e-06
5.08138e-06
9.08218e-06
3.01049e-05
4.64139e-05
2.40026e-05
1.08016e-05
5.41034e-06
2.41849e-06
2.41712e-06
2.41728e-06
4.70052e-06
2.17848e-05
6.14577e-05
3.09915e-05
7.0802e-06
2.6066e-06
2.60475e-06
4.90058e-06
2.74658e-05
0.000105412
0.000100083
4.8959e-05
1.33415e-05
4.58539e-06
3.47848e-06
6.85966e-06
5.09997e-06
4.99745e-06
9.8144e-06
1
1
1
1
1
0.999997
0.999992
0.999982
0.999974
0.999987
0.999994
1
0.0567657
7.70195e-05
4.32929e-05
8.47126e-06
6.67888e-06
1.12785e-05
3.2928e-05
2.648e-05
1.50032e-05
1.03728e-05
2.78064e-05
7.9533e-05
0.000181131
0.000114937
3.44933e-05
6.14546e-06
2.45052e-06
2.41909e-06
2.98808e-06
4.78221e-06
2.72434e-05
0.00012291
0.000102181
4.30159e-05
7.06609e-06
2.60665e-06
4.38593e-06
1.71372e-05
0.000103554
0.000129643
0.000114389
3.27524e-05
2.67402e-06
1.90817e-06
5.76307e-06
6.34772e-06
4.33331e-06
4.3228e-06
1
1
1
1
1
0.999998
0.999992
0.99998
0.99997
0.999981
0.999992
0.999997
0.397941
8.31055e-05
0.000102442
4.39492e-05
3.16683e-05
5.42479e-05
4.70694e-05
3.68307e-05
5.49693e-05
8.11727e-05
0.000146464
0.000181101
0.000181205
0.000145684
6.09144e-05
2.50579e-05
2.12607e-05
2.02416e-05
2.73792e-05
4.75509e-05
0.000113653
0.000122696
0.000122909
7.34116e-05
2.46007e-05
2.27457e-05
3.93484e-05
9.422e-05
0.000115
0.000114147
4.9666e-05
1.07428e-05
2.47322e-06
2.20456e-06
6.66199e-06
4.76837e-06
4.32342e-06
4.94799e-06
1
1
1
1
1
0.999999
0.999991
0.999978
0.999968
0.999979
0.999996
0.99999
0.63003
0.000562999
0.000142422
7.18622e-05
6.25106e-05
8.04501e-05
0.000105004
0.000112787
0.000119204
0.000145361
0.000181066
0.000181165
0.000137951
7.73069e-05
7.06038e-05
7.89315e-05
8.36058e-05
5.73463e-05
6.85145e-05
0.000118003
0.000117176
9.29692e-05
9.12083e-05
5.53634e-05
4.10735e-05
7.41484e-05
7.46749e-05
4.22617e-05
1.50718e-05
3.14451e-06
3.32727e-06
3.80724e-06
6.01944e-06
5.9971e-06
3.68572e-06
1.84524e-06
5.83526e-06
5.87621e-06
1
1
1
1
1
0.999999
0.99999
0.999977
0.999968
0.999979
0.999994
0.999988
0.748391
0.00195909
9.72256e-05
7.0086e-05
6.98094e-05
6.57179e-05
0.000121585
0.000135594
0.000123274
7.87224e-05
0.000138469
9.78458e-05
3.10631e-05
5.10507e-05
0.000108851
0.000108678
6.73779e-05
2.05425e-05
6.8315e-05
0.000110536
1.81751e-05
1.24119e-05
4.34977e-05
4.60224e-05
7.35974e-06
1.76115e-06
9.05955e-07
4.07951e-07
3.61774e-07
2.29706e-06
6.69098e-06
7.20465e-06
5.99324e-06
1.41188e-06
6.34197e-07
2.65667e-07
1.34927e-07
2.50856e-07
1
1
1
1
1
0.999999
0.99999
0.999977
0.99997
0.999984
0.999995
0.999928
0.563634
0.00125924
7.05986e-05
6.12047e-05
4.4402e-05
6.60706e-05
0.000125807
0.00011285
3.02986e-05
1.05702e-05
3.1094e-05
1.50081e-05
1.34517e-05
6.06156e-05
0.000103544
2.29408e-05
4.72707e-06
5.36203e-06
1.95964e-05
9.82287e-06
2.10268e-06
2.08823e-06
7.56934e-06
1.26601e-05
3.95788e-06
6.04072e-07
2.61252e-07
2.61346e-07
2.67535e-07
1.57068e-06
4.31041e-06
4.99771e-06
1.64269e-07
5.41292e-08
5.06256e-08
4.65977e-08
1.02847e-07
2.47654e-07
1
1
1
1
1
0.999999
0.99999
0.999978
0.999974
0.999991
0.999995
0.999058
0.161326
0.000106779
5.93536e-05
7.81638e-05
4.51935e-05
9.62665e-05
0.00010772
1.98207e-05
4.30889e-06
3.05437e-06
4.10806e-06
1.7557e-06
1.0918e-05
2.49738e-05
8.05092e-06
8.31517e-07
7.85333e-07
7.85417e-07
7.85905e-07
8.50319e-07
3.1166e-06
1.18936e-05
2.02272e-05
4.301e-06
1.10701e-06
5.91405e-07
4.76846e-07
3.31871e-07
1.61258e-07
7.62226e-08
2.93047e-07
6.08304e-07
3.56971e-07
5.29395e-08
4.98642e-08
4.43879e-08
3.24872e-08
1.97622e-08
1
1
1
1
1
0.999998
0.999991
0.999981
0.999986
0.999992
0.999888
0.555986
0.0037725
5.93558e-05
5.93536e-05
6.31399e-05
6.71907e-05
9.04849e-05
2.7475e-05
1.75752e-06
8.69153e-07
7.82224e-07
7.82224e-07
7.82232e-07
7.84201e-07
1.29289e-06
2.05632e-06
1.14966e-06
7.85968e-07
7.85459e-07
7.86569e-07
1.78882e-06
1.16396e-05
2.21093e-05
1.99569e-05
4.09081e-06
5.39132e-07
3.63931e-07
9.49237e-07
9.83234e-07
6.23055e-07
7.1295e-08
7.12338e-08
7.24836e-08
1.18467e-07
1.34337e-07
4.98317e-08
4.4185e-08
2.44054e-08
1.56218e-08
1
1
1
1
1
0.999999
0.999994
0.999988
0.999989
0.999993
0.99936
0.112173
0.000919091
0.000919115
0.00049334
8.02858e-05
6.69018e-05
8.0381e-05
9.17887e-06
1.0274e-06
7.8635e-07
7.84338e-07
7.84445e-07
7.84556e-07
7.8586e-07
7.8605e-07
7.9496e-07
1.84916e-06
1.85227e-06
1.38487e-06
8.15371e-07
3.20217e-06
1.54776e-05
2.21283e-05
2.03325e-05
3.86692e-06
7.19953e-07
3.39878e-07
1.44885e-07
7.25285e-08
7.12347e-08
7.1099e-08
7.11881e-08
7.12687e-08
7.41509e-08
3.12178e-07
6.93077e-07
1.84788e-07
2.5286e-08
2.21116e-08
1
1
1
1
1
1
0.999998
0.999995
0.999993
0.999993
0.999945
0.99986
0.531731
0.0571989
0.0356364
0.000768879
0.000578043
0.000334918
0.000178751
3.9159e-05
1.21283e-05
8.58884e-06
6.98e-06
6.43583e-06
2.28525e-06
1.19247e-06
1.13758e-06
9.98365e-07
8.8015e-07
7.88609e-07
7.89212e-07
1.54129e-06
7.5778e-06
1.80499e-05
2.06702e-05
4.88916e-06
2.33832e-06
2.35101e-06
2.30755e-06
5.54682e-07
7.28622e-08
7.11994e-08
7.16822e-08
7.13618e-08
7.37818e-08
3.72788e-07
1.33164e-06
2.18705e-06
2.63541e-07
2.45823e-08
1
1
1
1
1
1
1
0.999999
0.999998
0.999996
0.999997
0.999995
0.999966
0.999665
0.999998
0.751412
0.139708
0.0105282
0.0269095
0.000950933
0.00113003
0.000750461
0.000279894
0.000154021
9.67508e-05
7.98612e-05
5.45002e-05
2.38793e-05
1.14635e-05
1.75815e-06
7.5198e-06
1.63215e-05
9.84351e-06
2.01304e-06
2.0121e-06
2.01201e-06
2.01356e-06
7.24301e-06
1.75988e-05
1.68877e-05
1.1041e-06
8.36217e-08
7.53437e-08
7.58047e-08
7.71882e-08
2.49996e-07
1.34505e-06
3.60982e-06
4.95229e-06
3.99835e-07
1
1
1
1
1
1
1
1
1
0.999999
0.999998
0.999998
0.999997
0.999997
0.999999
0.999996
0.999925
0.999462
1
0.779401
0.312682
0.0421268
0.0364807
0.0151615
0.0026505
0.00139675
0.00114571
0.00205427
0.00152778
0.000227601
0.000161654
0.000188688
0.000116852
3.56429e-05
1.60339e-05
1.14287e-05
7.36603e-06
6.81803e-06
1.25945e-05
5.7213e-05
0.000101733
1.85564e-05
3.91864e-06
7.8804e-07
3.8891e-07
3.07927e-07
1.02172e-06
4.29737e-06
6.13002e-06
6.12538e-06
1
1
1
0.999999
0.999999
1
1
1
1
1
1
0.999999
0.999999
0.999999
0.999999
0.999999
0.999999
0.999999
1
0.999995
0.999932
0.999623
0.999979
0.846525
0.418931
0.088594
0.0451094
0.0302932
0.0142118
0.0126812
0.00995639
0.00842377
0.00831374
0.00398465
0.00149171
0.00106995
0.000762614
0.000299089
0.000106586
9.5092e-05
0.000426509
0.000985422
0.000997576
0.00028145
0.000173383
6.86995e-05
2.21756e-05
7.5171e-06
5.50202e-06
5.60246e-06
6.69406e-09
6.3503e-09
6.14693e-09
6.08202e-09
6.14646e-09
6.33054e-09
6.6262e-09
7.01702e-09
7.48837e-09
8.02555e-09
8.61437e-09
9.24421e-09
9.90841e-09
1.06039e-08
1.13293e-08
1.20839e-08
1.28666e-08
1.36754e-08
1.45064e-08
1.53542e-08
1.62136e-08
1.70818e-08
1.79599e-08
1.88511e-08
1.97535e-08
2.06496e-08
2.15019e-08
2.22612e-08
2.28811e-08
2.33348e-08
2.3746e-08
2.48317e-08
1.30021e-07
3.63911e-07
4.87415e-07
1.62569e-07
4.55677e-08
4.05054e-08
3.9917e-08
3.95398e-08
3.88732e-08
3.77659e-08
3.6595e-08
3.86396e-08
9.38206e-08
1.33053e-07
4.31389e-08
4.88056e-08
1.22566e-07
1.04938e-07
8.1218e-09
7.35528e-09
6.76693e-09
6.33481e-09
6.04324e-09
5.88937e-09
5.89093e-09
6.02933e-09
6.29011e-09
6.65504e-09
7.0985e-09
7.59659e-09
8.13248e-09
8.69912e-09
9.29334e-09
9.91392e-09
1.05606e-08
1.12336e-08
1.19329e-08
1.26583e-08
1.34091e-08
1.41838e-08
1.498e-08
1.57944e-08
1.66231e-08
1.74613e-08
1.83035e-08
1.91427e-08
1.99702e-08
2.07713e-08
2.15169e-08
2.22292e-08
2.35936e-08
3.07138e-08
1.46902e-07
2.32689e-07
2.30049e-07
7.13393e-08
3.98773e-08
3.96821e-08
4.00472e-08
3.80579e-08
3.62978e-08
3.6168e-08
3.61928e-08
6.96675e-08
3.83787e-08
4.14054e-08
9.36394e-08
1.2436e-07
1.09533e-08
9.62074e-09
8.64594e-09
7.79416e-09
7.01518e-09
6.32158e-09
5.8061e-09
5.5017e-09
5.3987e-09
5.48542e-09
5.73444e-09
6.08986e-09
6.50132e-09
6.95049e-09
7.42909e-09
7.934e-09
8.46478e-09
9.02225e-09
9.60774e-09
1.02228e-08
1.08689e-08
1.1547e-08
1.22578e-08
1.30005e-08
1.37734e-08
1.45731e-08
1.53947e-08
1.62319e-08
1.70782e-08
1.79272e-08
1.87711e-08
1.95826e-08
2.03121e-08
2.12507e-08
2.5402e-08
1.27768e-07
2.3401e-07
8.61916e-08
4.2271e-08
4.12335e-08
4.82824e-08
3.42183e-08
3.27379e-08
3.26813e-08
3.22187e-08
3.25599e-08
3.59623e-08
3.76445e-08
4.44228e-08
7.82178e-08
1.59005e-08
1.36529e-08
1.24986e-08
1.12707e-08
1.00007e-08
8.76323e-09
7.21731e-09
6.06439e-09
5.25788e-09
4.72503e-09
4.58988e-09
4.73921e-09
5.00368e-09
5.3314e-09
5.69719e-09
6.08985e-09
6.50576e-09
6.94472e-09
7.40797e-09
7.89744e-09
8.41548e-09
8.96465e-09
9.54747e-09
1.01662e-08
1.08225e-08
1.15172e-08
1.22497e-08
1.30184e-08
1.382e-08
1.46503e-08
1.55043e-08
1.63773e-08
1.72633e-08
1.81578e-08
1.91234e-08
2.06743e-08
2.33904e-08
4.43185e-08
1.07964e-07
1.07725e-07
6.51307e-08
3.12008e-08
3.05157e-08
3.07124e-08
3.0592e-08
3.10278e-08
3.22316e-08
3.40626e-08
3.6014e-08
3.73262e-08
2.60392e-08
2.21252e-08
1.99369e-08
1.69843e-08
1.47989e-08
1.59648e-08
1.20466e-08
9.12703e-09
7.28119e-09
5.12764e-09
3.96264e-09
3.69747e-09
3.73023e-09
3.91227e-09
4.16849e-09
4.46252e-09
4.78027e-09
5.11759e-09
5.47414e-09
5.85113e-09
6.25063e-09
6.67533e-09
7.12844e-09
7.6135e-09
8.13429e-09
8.6946e-09
9.29812e-09
9.94831e-09
1.06486e-08
1.14027e-08
1.22157e-08
1.30964e-08
1.40606e-08
1.51406e-08
1.64025e-08
1.79718e-08
2.00485e-08
2.27115e-08
2.60051e-08
3.11208e-08
6.33688e-08
2.50331e-08
2.65171e-08
2.83591e-08
2.81958e-08
2.85558e-08
2.99003e-08
3.19415e-08
3.41323e-08
3.64901e-08
9.1432e-07
5.52599e-07
3.61372e-07
2.43391e-07
1.07282e-07
3.65672e-08
2.55217e-08
1.63205e-08
1.52107e-08
8.80662e-09
4.63342e-09
3.34116e-09
2.87112e-09
2.80259e-09
2.92283e-09
3.12279e-09
3.35752e-09
3.61183e-09
3.88132e-09
4.1653e-09
4.46466e-09
4.7813e-09
5.11793e-09
5.47801e-09
5.86565e-09
6.28547e-09
6.74247e-09
7.24189e-09
7.78913e-09
8.38983e-09
9.05015e-09
9.77735e-09
1.05803e-08
1.14691e-08
1.24526e-08
1.3532e-08
1.46895e-08
1.58778e-08
1.70183e-08
1.79678e-08
1.83306e-08
2.1654e-08
2.36581e-08
2.44493e-08
2.48894e-08
2.5676e-08
2.74648e-08
3.00578e-08
3.2814e-08
3.58437e-08
7.70773e-06
5.82381e-06
3.08555e-06
2.19201e-06
1.61901e-06
1.00572e-06
3.91004e-07
1.43351e-07
3.70012e-08
1.97073e-08
8.10098e-09
4.34261e-09
2.74083e-09
2.15695e-09
2.0548e-09
2.14641e-09
2.3084e-09
2.49855e-09
2.70364e-09
2.91957e-09
3.14543e-09
3.38183e-09
3.63051e-09
3.89419e-09
4.17649e-09
4.48185e-09
4.81534e-09
5.18253e-09
5.58915e-09
6.04096e-09
6.54342e-09
7.10158e-09
7.71987e-09
8.40192e-09
9.15031e-09
9.96597e-09
1.08474e-08
1.17894e-08
1.27827e-08
1.38157e-08
1.48822e-08
1.59976e-08
1.722e-08
1.8654e-08
2.04017e-08
2.24805e-08
2.4838e-08
2.75126e-08
3.0645e-08
3.42662e-08
1.59881e-05
1.59831e-05
9.73424e-06
4.66242e-06
4.46047e-06
4.87535e-06
2.44848e-06
1.15476e-06
3.92225e-07
3.66512e-08
1.54313e-08
7.01937e-09
3.48517e-09
2.0365e-09
1.58887e-09
1.54389e-09
1.63609e-09
1.77493e-09
1.93259e-09
2.10016e-09
2.27469e-09
2.45558e-09
2.64367e-09
2.84096e-09
3.05053e-09
3.27639e-09
3.52342e-09
3.79707e-09
4.10316e-09
4.44759e-09
4.836e-09
5.27349e-09
5.76439e-09
6.31206e-09
6.91881e-09
7.58618e-09
8.31545e-09
9.10883e-09
9.97104e-09
1.09114e-08
1.19453e-08
1.30954e-08
1.43905e-08
1.58645e-08
1.75545e-08
1.95024e-08
2.17598e-08
2.44e-08
2.75377e-08
3.13279e-08
9.88958e-06
1.59868e-05
1.38787e-05
4.89976e-06
3.38778e-06
6.44461e-06
4.0832e-06
2.14743e-06
8.99846e-07
8.61921e-08
2.25137e-08
9.1506e-09
4.16421e-09
2.08316e-09
1.38079e-09
1.23607e-09
1.27705e-09
1.37723e-09
1.49859e-09
1.62929e-09
1.7654e-09
1.90595e-09
2.05156e-09
2.20406e-09
2.36636e-09
2.54227e-09
2.73639e-09
2.95389e-09
3.20025e-09
3.48102e-09
3.80153e-09
4.1667e-09
4.58083e-09
5.0475e-09
5.56966e-09
6.14982e-09
6.79053e-09
7.49507e-09
8.26834e-09
9.11784e-09
1.00547e-08
1.10947e-08
1.22591e-08
1.35762e-08
1.50832e-08
1.68301e-08
1.88874e-08
2.13572e-08
2.43774e-08
2.80787e-08
8.16285e-06
1.33018e-05
5.26279e-06
2.18542e-06
2.55934e-06
5.02185e-06
1.62041e-06
1.15688e-06
4.62272e-07
6.48859e-08
1.9224e-08
6.87001e-09
3.14412e-09
1.65776e-09
1.16626e-09
1.07167e-09
1.10861e-09
1.18721e-09
1.2805e-09
1.38026e-09
1.48411e-09
1.592e-09
1.7052e-09
1.82596e-09
1.95732e-09
2.103e-09
2.26716e-09
2.45423e-09
2.66867e-09
2.91477e-09
3.19647e-09
3.51715e-09
3.87955e-09
4.28574e-09
4.73717e-09
5.23493e-09
5.78015e-09
6.37455e-09
7.0211e-09
7.72478e-09
8.4933e-09
9.33775e-09
1.02734e-08
1.13209e-08
1.25082e-08
1.38745e-08
1.54774e-08
1.74007e-08
1.97414e-08
2.25172e-08
4.42913e-06
1.18447e-06
6.30095e-07
9.36904e-07
1.48787e-06
2.08453e-07
1.38525e-07
8.19667e-08
4.59379e-08
1.65921e-08
6.67176e-09
2.6878e-09
1.47963e-09
1.05702e-09
9.47057e-10
9.56581e-10
1.00657e-09
1.07041e-09
1.14006e-09
1.21341e-09
1.29061e-09
1.37293e-09
1.46238e-09
1.56149e-09
1.67316e-09
1.8005e-09
1.94661e-09
2.11446e-09
2.3067e-09
2.52554e-09
2.77261e-09
3.04892e-09
3.35478e-09
3.68994e-09
4.05375e-09
4.44545e-09
4.86464e-09
5.31175e-09
5.78851e-09
6.29843e-09
6.84697e-09
7.44156e-09
8.09143e-09
8.80715e-09
9.59995e-09
1.04802e-08
1.14547e-08
1.25203e-08
1.36513e-08
1.477e-08
6.08999e-07
9.28851e-07
1.37584e-07
3.20117e-08
2.45086e-08
2.13917e-08
1.32926e-08
7.57291e-09
3.99583e-09
2.3163e-09
1.38071e-09
9.59259e-10
8.16216e-10
7.89225e-10
8.07771e-10
8.43689e-10
8.86448e-10
9.32689e-10
9.81846e-10
1.03458e-09
1.0922e-09
1.15645e-09
1.22929e-09
1.31276e-09
1.40881e-09
1.51921e-09
1.64541e-09
1.78844e-09
1.94884e-09
2.12662e-09
2.32121e-09
2.53156e-09
2.75616e-09
2.99334e-09
3.24145e-09
3.49933e-09
3.76659e-09
4.04406e-09
4.33396e-09
4.63988e-09
4.96651e-09
5.31887e-09
5.70126e-09
6.11587e-09
6.561e-09
7.02943e-09
7.50749e-09
7.97739e-09
8.42518e-09
8.85545e-09
1.93738e-07
2.03785e-08
1.27307e-08
8.68632e-09
5.70268e-09
3.48172e-09
2.05979e-09
1.31896e-09
9.51941e-10
7.5308e-10
6.62057e-10
6.32462e-10
6.33386e-10
6.48624e-10
6.70556e-10
6.9594e-10
7.2369e-10
7.53841e-10
7.87071e-10
8.24435e-10
8.67175e-10
9.16567e-10
9.73782e-10
1.03977e-09
1.1152e-09
1.20036e-09
1.29518e-09
1.39918e-09
1.51147e-09
1.63085e-09
1.75583e-09
1.88476e-09
2.01607e-09
2.14846e-09
2.28125e-09
2.4146e-09
2.54988e-09
2.68973e-09
2.83818e-09
3.00034e-09
3.18196e-09
3.38871e-09
3.62548e-09
3.89568e-09
4.2009e-09
4.5406e-09
4.91172e-09
5.30801e-09
5.71924e-09
6.13095e-09
1.15035e-08
7.97943e-09
5.25203e-09
3.42222e-09
2.26664e-09
1.54359e-09
1.09516e-09
8.23295e-10
6.64301e-10
5.75483e-10
5.29394e-10
5.08913e-10
5.03508e-10
5.06856e-10
5.15358e-10
5.27192e-10
5.41685e-10
5.58872e-10
5.79193e-10
6.03269e-10
6.31729e-10
6.65079e-10
7.03615e-10
7.47374e-10
7.96124e-10
8.49374e-10
9.06407e-10
9.66321e-10
1.0281e-09
1.09068e-09
1.15307e-09
1.2145e-09
1.27459e-09
1.33351e-09
1.39225e-09
1.45271e-09
1.51788e-09
1.59185e-09
1.67961e-09
1.7867e-09
1.91852e-09
2.07937e-09
2.2713e-09
2.49305e-09
2.73934e-09
3.00073e-09
3.26444e-09
3.51605e-09
3.74198e-09
3.93228e-09
1.09694e-08
8.02443e-09
5.76337e-09
4.05887e-09
2.81131e-09
1.9433e-09
1.3623e-09
9.81948e-10
7.36433e-10
5.80105e-10
4.83355e-10
4.25986e-10
3.93868e-10
3.77396e-10
3.70422e-10
3.69347e-10
3.72305e-10
3.78435e-10
3.87424e-10
3.9923e-10
4.13879e-10
4.31337e-10
4.51454e-10
4.73942e-10
4.98392e-10
5.24317e-10
5.51189e-10
5.78489e-10
6.05764e-10
6.32677e-10
6.5908e-10
6.85084e-10
7.11139e-10
7.38107e-10
7.6731e-10
8.00544e-10
8.40013e-10
8.88192e-10
9.47572e-10
1.0203e-09
1.10772e-09
1.20989e-09
1.32516e-09
1.44992e-09
1.57876e-09
1.70505e-09
1.82195e-09
1.92379e-09
2.00738e-09
2.073e-09
1.65313e-08
1.24414e-08
9.35965e-09
6.88486e-09
4.91375e-09
3.4311e-09
2.37668e-09
1.64701e-09
1.14998e-09
8.10764e-10
5.84887e-10
4.40152e-10
3.51159e-10
2.98299e-10
2.67589e-10
2.50051e-10
2.40659e-10
2.36506e-10
2.35887e-10
2.37844e-10
2.41848e-10
2.47565e-10
2.54723e-10
2.63063e-10
2.72325e-10
2.82261e-10
2.9265e-10
3.03313e-10
3.14129e-10
3.25042e-10
3.36071e-10
3.47325e-10
3.59017e-10
3.71476e-10
3.85156e-10
4.00628e-10
4.18548e-10
4.39592e-10
4.64354e-10
4.93215e-10
5.26212e-10
5.62922e-10
6.02431e-10
6.43409e-10
6.84318e-10
7.23725e-10
7.60669e-10
7.94955e-10
8.27294e-10
8.59179e-10
3.21458e-08
2.15431e-08
1.73272e-08
1.32957e-08
9.94986e-09
7.18265e-09
5.08397e-09
3.54977e-09
2.47615e-09
1.68488e-09
1.11694e-09
7.31311e-10
4.86465e-10
3.3827e-10
2.5094e-10
1.98362e-10
1.66969e-10
1.48684e-10
1.38222e-10
1.32336e-10
1.29245e-10
1.2801e-10
1.28095e-10
1.29153e-10
1.30941e-10
1.3327e-10
1.35991e-10
1.38979e-10
1.42138e-10
1.4539e-10
1.48683e-10
1.51984e-10
1.55285e-10
1.586e-10
1.61965e-10
1.65446e-10
1.69131e-10
1.73135e-10
1.776e-10
1.82689e-10
1.88583e-10
1.95474e-10
2.03554e-10
2.13003e-10
2.2397e-10
2.3656e-10
2.50807e-10
2.66668e-10
2.84003e-10
3.0258e-10
7.10546e-08
3.59591e-08
3.33433e-08
2.59599e-08
2.10447e-08
1.62467e-08
1.21401e-08
8.7768e-09
6.54792e-09
4.65711e-09
3.0875e-09
1.91994e-09
1.1693e-09
7.08517e-10
4.45717e-10
2.85732e-10
1.88562e-10
1.32345e-10
1.00807e-10
8.27345e-11
7.18657e-11
6.50999e-11
6.07887e-11
5.79987e-11
5.61837e-11
5.50166e-11
5.42935e-11
5.38804e-11
5.3685e-11
5.36413e-11
5.37018e-11
5.38335e-11
5.4015e-11
5.42352e-11
5.44913e-11
5.47877e-11
5.51349e-11
5.55478e-11
5.60453e-11
5.66491e-11
5.7383e-11
5.82724e-11
5.93437e-11
6.06233e-11
6.21371e-11
6.39096e-11
6.59621e-11
6.83122e-11
7.09722e-11
7.39477e-11
2.40303e-06
4.30894e-07
4.80561e-08
4.21558e-08
3.86008e-08
3.42536e-08
2.95457e-08
2.26205e-08
1.96879e-08
1.58289e-08
1.08148e-08
6.40508e-09
3.85854e-09
2.21276e-09
1.33982e-09
8.05087e-10
4.6342e-10
2.63713e-10
1.56563e-10
9.92313e-11
6.67447e-11
4.77688e-11
3.64452e-11
2.94907e-11
2.50281e-11
2.20032e-11
1.983e-11
1.81813e-11
1.68711e-11
1.57912e-11
1.48763e-11
1.40855e-11
1.33926e-11
1.27803e-11
1.22373e-11
1.17563e-11
1.13324e-11
1.09624e-11
1.06438e-11
1.03748e-11
1.01533e-11
9.97724e-12
9.84421e-12
9.75159e-12
9.69653e-12
9.67604e-12
9.687e-12
9.72627e-12
9.79069e-12
9.87714e-12
1.0073e-05
9.83038e-06
2.58214e-06
6.17766e-07
5.64017e-07
4.70638e-07
5.17929e-08
5.55611e-08
6.74606e-08
7.21571e-08
5.0935e-08
2.5375e-08
1.44564e-08
8.0641e-09
4.89369e-09
3.04779e-09
1.72763e-09
9.12433e-10
4.87141e-10
2.73955e-10
1.56695e-10
9.06312e-11
5.34709e-11
3.26476e-11
2.08662e-11
1.40421e-11
9.94679e-12
7.37719e-12
5.68301e-12
4.50971e-12
3.66028e-12
3.02183e-12
2.52697e-12
2.13353e-12
1.81399e-12
1.54979e-12
1.3281e-12
1.13992e-12
9.78834e-13
8.40186e-13
7.20487e-13
6.17042e-13
5.27682e-13
4.50599e-13
3.84246e-13
3.27267e-13
2.78462e-13
2.36763e-13
2.01218e-13
1.7098e-13
3.16001e-08
3.16441e-08
3.21534e-08
3.24653e-08
3.27605e-08
3.3044e-08
3.33254e-08
3.36242e-08
3.40093e-08
3.91951e-08
9.02321e-08
1.09002e-07
2.66714e-08
2.7016e-08
2.75231e-08
2.79229e-08
2.83031e-08
2.88587e-08
3.02072e-08
5.51054e-08
1.57588e-07
2.13437e-07
2.41474e-08
1.57613e-08
1.24218e-08
1.18924e-08
1.14113e-08
1.08618e-08
1.02943e-08
9.7389e-09
9.20846e-09
8.70433e-09
8.21884e-09
7.73791e-09
7.24578e-09
6.73063e-09
6.18967e-09
5.6341e-09
5.08656e-09
4.55466e-09
4.0326e-09
3.53387e-09
3.07898e-09
2.69089e-09
2.38514e-09
2.14487e-09
1.93436e-09
1.74203e-09
1.56549e-09
1.40872e-09
1.27967e-09
1.17323e-09
1.08005e-09
9.95757e-10
9.18286e-10
8.46315e-10
7.78951e-10
7.15676e-10
6.56336e-10
6.01131e-10
5.50523e-10
5.05029e-10
4.64915e-10
4.29967e-10
3.99548e-10
3.72892e-10
3.49254e-10
3.27956e-10
3.08451e-10
2.9042e-10
2.73664e-10
2.58037e-10
2.43412e-10
2.29678e-10
2.16738e-10
2.04512e-10
1.92934e-10
1.81953e-10
1.71529e-10
1.61632e-10
1.52235e-10
1.43316e-10
1.34854e-10
1.26827e-10
1.19218e-10
1.12009e-10
1.05181e-10
9.87185e-11
9.26057e-11
8.68271e-11
8.13679e-11
7.62138e-11
7.13509e-11
6.67659e-11
6.24457e-11
5.83778e-11
5.45499e-11
5.09504e-11
4.75676e-11
4.43907e-11
4.14089e-11
3.86119e-11
3.59897e-11
3.35328e-11
3.12319e-11
2.90782e-11
2.70632e-11
2.51789e-11
2.34175e-11
2.17718e-11
2.02348e-11
1.87998e-11
1.74607e-11
1.62115e-11
1.50466e-11
1.39609e-11
1.29493e-11
1.20072e-11
1.11302e-11
1.03142e-11
9.55529e-12
8.84988e-12
8.19453e-12
7.58605e-12
7.02142e-12
6.49783e-12
6.01262e-12
5.56332e-12
5.1476e-12
4.76326e-12
4.40827e-12
4.08071e-12
3.77877e-12
3.50079e-12
3.2452e-12
3.01053e-12
2.79543e-12
2.59863e-12
2.41899e-12
2.25542e-12
2.10695e-12
1.97269e-12
1.85187e-12
1.74379e-12
1.64787e-12
1.56362e-12
1.49068e-12
1.42879e-12
1.37783e-12
1.33782e-12
1.30891e-12
1.29142e-12
1.28581e-12
1.29275e-12
1.31306e-12
1.3478e-12
1.3982e-12
1.46573e-12
1.55207e-12
1.65918e-12
1.78923e-12
1.94467e-12
2.12825e-12
2.343e-12
2.59226e-12
2.87973e-12
3.20946e-12
3.58585e-12
4.01376e-12
4.49841e-12
5.04548e-12
5.66109e-12
6.35178e-12
7.12449e-12
7.98658e-12
8.94573e-12
1.00099e-11
1.11872e-11
1.2486e-11
1.39145e-11
1.5481e-11
1.71933e-11
1.90592e-11
2.10861e-11
2.32811e-11
2.56509e-11
2.82016e-11
3.09392e-11
3.38692e-11
3.69965e-11
4.03253e-11
4.38585e-11
4.75975e-11
5.15415e-11
5.56865e-11
6.00247e-11
6.45439e-11
6.92268e-11
7.40511e-11
7.89904e-11
8.40154e-11
8.90965e-11
9.42069e-11
9.9326e-11
1.04442e-10
1.09553e-10
1.14668e-10
1.19807e-10
1.24993e-10
1.30255e-10
1.35618e-10
1.41101e-10
1.4671e-10
1.52436e-10
1.58255e-10
1.6414e-10
1.70073e-10
1.76049e-10
1.8208e-10
1.88182e-10
1.94358e-10
2.00575e-10
2.06742e-10
2.12706e-10
2.18267e-10
2.23224e-10
2.27443e-10
2.30911e-10
2.33724e-10
2.3604e-10
2.37982e-10
2.39567e-10
2.40704e-10
2.41239e-10
2.40969e-10
2.39646e-10
2.3716e-10
2.33609e-10
2.29274e-10
2.24525e-10
2.19683e-10
2.1493e-10
2.1029e-10
2.05575e-10
2.00502e-10
1.94803e-10
1.88369e-10
1.81279e-10
1.73751e-10
1.66035e-10
1.58284e-10
1.50476e-10
1.42455e-10
1.34098e-10
1.25429e-10
1.16654e-10
1.08016e-10
9.9697e-11
9.17425e-11
8.41131e-11
7.67536e-11
6.96449e-11
6.28197e-11
5.63058e-11
5.0121e-11
4.42883e-11
3.88335e-11
3.37803e-11
2.91486e-11
2.4949e-11
2.11819e-11
1.78381e-11
1.49031e-11
1.23549e-11
1.01647e-11
8.29967e-12
6.72569e-12
5.40829e-12
4.31398e-12
3.41154e-12
2.67249e-12
2.0715e-12
1.58656e-12
1.19886e-12
8.9231e-13
6.53045e-13
4.68998e-13
3.2969e-13
2.26094e-13
1.50587e-13
9.68493e-14
5.97118e-14
3.49731e-14
1.92366e-14
9.78847e-15
4.5126e-15
1.82636e-15
6.15366e-16
1.55497e-16
2.24094e-17
3.24732e-08
3.42743e-08
3.41326e-08
3.43712e-08
3.46648e-08
3.49005e-08
3.51393e-08
3.5539e-08
3.7103e-08
1.10855e-07
1.82411e-07
1.27253e-07
2.90534e-08
2.92399e-08
2.98399e-08
3.00401e-08
3.02483e-08
3.03686e-08
3.1248e-08
6.4918e-08
4.31897e-07
1.0104e-06
1.06532e-06
2.45076e-08
2.03205e-08
2.18009e-08
2.18398e-08
2.13006e-08
2.05491e-08
1.9756e-08
1.90233e-08
1.84137e-08
1.79493e-08
1.76016e-08
1.72895e-08
1.68752e-08
1.61784e-08
1.51516e-08
1.4159e-08
1.32516e-08
1.21568e-08
1.08438e-08
9.32583e-09
7.7589e-09
6.61638e-09
6.03488e-09
5.55643e-09
5.0632e-09
4.48911e-09
3.84567e-09
3.36849e-09
3.0627e-09
2.81878e-09
2.60782e-09
2.41732e-09
2.24035e-09
2.07147e-09
1.90652e-09
1.74285e-09
1.58021e-09
1.42139e-09
1.27208e-09
1.13846e-09
1.0234e-09
9.25639e-10
8.44518e-10
7.78482e-10
7.24164e-10
6.77049e-10
6.35002e-10
5.97051e-10
5.62668e-10
5.31414e-10
5.02874e-10
4.76641e-10
4.52333e-10
4.29605e-10
4.08174e-10
3.87836e-10
3.68471e-10
3.50001e-10
3.32371e-10
3.15536e-10
2.99461e-10
2.84109e-10
2.69447e-10
2.55445e-10
2.42074e-10
2.29308e-10
2.17126e-10
2.05503e-10
1.94419e-10
1.83854e-10
1.73788e-10
1.64203e-10
1.55081e-10
1.46404e-10
1.38157e-10
1.30323e-10
1.22886e-10
1.1583e-10
1.0914e-10
1.02801e-10
9.67975e-11
9.11156e-11
8.57409e-11
8.06595e-11
7.58577e-11
7.13223e-11
6.70405e-11
6.29996e-11
5.91878e-11
5.55933e-11
5.2205e-11
4.90121e-11
4.60042e-11
4.31715e-11
4.05046e-11
3.79946e-11
3.56328e-11
3.34113e-11
3.13223e-11
2.93587e-11
2.75136e-11
2.57807e-11
2.41539e-11
2.26275e-11
2.11963e-11
1.98551e-11
1.85995e-11
1.74248e-11
1.6327e-11
1.53021e-11
1.43464e-11
1.34564e-11
1.26288e-11
1.18604e-11
1.11483e-11
1.04898e-11
9.88224e-12
9.32335e-12
8.81101e-12
8.34334e-12
7.91875e-12
7.53593e-12
7.19387e-12
6.89188e-12
6.62969e-12
6.40739e-12
6.22554e-12
6.08521e-12
5.98803e-12
5.93625e-12
5.93282e-12
5.98145e-12
6.08668e-12
6.25396e-12
6.4897e-12
6.80132e-12
7.19733e-12
7.68736e-12
8.28216e-12
8.99369e-12
9.83514e-12
1.08209e-11
1.19668e-11
1.329e-11
1.48088e-11
1.65435e-11
1.85155e-11
2.07483e-11
2.32669e-11
2.60979e-11
2.927e-11
3.28131e-11
3.6759e-11
4.11405e-11
4.59914e-11
5.13463e-11
5.72401e-11
6.37077e-11
7.07841e-11
7.85041e-11
8.69024e-11
9.60139e-11
1.05874e-10
1.16518e-10
1.27983e-10
1.40306e-10
1.53522e-10
1.67665e-10
1.82764e-10
1.98841e-10
2.15903e-10
2.3394e-10
2.52921e-10
2.72785e-10
2.93438e-10
3.14754e-10
3.36576e-10
3.58731e-10
3.81041e-10
4.03349e-10
4.25539e-10
4.47553e-10
4.69399e-10
4.9114e-10
5.12876e-10
5.34736e-10
5.5686e-10
5.79404e-10
6.02522e-10
6.26324e-10
6.50793e-10
6.75694e-10
7.00625e-10
7.25262e-10
7.49472e-10
7.73352e-10
7.97233e-10
8.21604e-10
8.46901e-10
8.73287e-10
9.00325e-10
9.26755e-10
9.50669e-10
9.70435e-10
9.85731e-10
9.9763e-10
1.00789e-09
1.01775e-09
1.02697e-09
1.03453e-09
1.04062e-09
1.04496e-09
1.04385e-09
1.03527e-09
1.01946e-09
9.98548e-10
9.75595e-10
9.52862e-10
9.32276e-10
9.16305e-10
9.0372e-10
8.91733e-10
8.77e-10
8.57521e-10
8.33279e-10
8.05835e-10
7.77017e-10
7.4834e-10
7.20116e-10
6.90671e-10
6.58752e-10
6.23762e-10
5.86563e-10
5.48476e-10
5.1201e-10
4.78068e-10
4.45888e-10
4.14456e-10
3.83062e-10
3.51996e-10
3.21558e-10
2.91857e-10
2.63062e-10
2.35399e-10
2.09083e-10
1.84346e-10
1.61288e-10
1.40006e-10
1.20468e-10
1.02755e-10
8.69149e-11
7.294e-11
6.07296e-11
5.0189e-11
4.11912e-11
3.35767e-11
2.71815e-11
2.18435e-11
1.74095e-11
1.37418e-11
1.07241e-11
8.25932e-12
6.26568e-12
4.673e-12
3.41945e-12
2.44854e-12
1.70934e-12
1.15731e-12
7.54683e-13
4.69787e-13