/*--------------------------------*- C++ -*----------------------------------*\
| =========                 |                                                 |
| \\      /  F ield         | OpenFOAM: The Open Source CFD Toolbox           |
|  \\    /   O peration     | Version:  2.4.0                                 |
|   \\  /    A nd           | Web:      www.OpenFOAM.org                      |
|    \\/     M anipulation  |                                                 |
\*---------------------------------------------------------------------------*/
FoamFile
{
    version     2.0;
    format      ascii;
    class       volScalarField;
    location    "4";
    object      H;
}
// * * * * * * * * * * * * * * * * * * * * * * * * * * * * * * * * * * * * * //

dimensions      [0 2 -2 0 0 0 0];

internalField   nonuniform List<scalar> 
8000
(
-11649.7
-10489.8
-9331.89
-8177.78
-7029.94
-5891.91
-4768.67
-3667.67
-2602.84
-1603.51
-711.843
-51.3726
-36.1622
-25.9131
-17.4209
-10.9288
-6.39351
-3.5078
-1.82186
-0.909269
-0.448928
-0.23041
-0.131972
-0.0895009
-0.0717619
-0.0643834
-0.0611144
-0.0593327
-0.0579659
-0.0565787
-0.0549966
-0.0531486
-0.0510061
-0.0485699
-0.0458606
-0.0429125
-0.03977
-0.0364837
-0.0331071
-0.0296961
-0.0263086
-0.0230021
-0.0198302
-0.0168407
-0.0140743
-0.0115625
-0.00932649
-0.00737751
-0.0057163
-0.0043338
-11652.6
-10499.6
-9352.23
-8214.72
-7091.58
-5987.3
-4905.68
-3849.25
-2821.28
-1831.85
-887.383
-41.9261
-28.3746
-21.3763
-14.8512
-9.37274
-5.39619
-2.87809
-1.4483
-0.705159
-0.346399
-0.183911
-0.114436
-0.0863904
-0.0758614
-0.072322
-0.0713689
-0.0712065
-0.0711064
-0.0707686
-0.0700706
-0.0689411
-0.0673461
-0.0652806
-0.0627614
-0.0598204
-0.0565019
-0.0528624
-0.0489571
-0.0448488
-0.0406097
-0.0363166
-0.0320474
-0.0278783
-0.0238808
-0.0201202
-0.0166506
-0.0135151
-0.0107437
-0.00835149
-11642.6
-10469.6
-9301.95
-8143.5
-6998.11
-5869.34
-4759.6
-3669.31
-2599.36
-1559.38
-546.216
-39.1179
-28.1052
-20.1596
-13.0829
-7.67186
-4.13423
-2.08729
-1.00875
-0.483542
-0.244513
-0.142536
-0.102029
-0.0876299
-0.0838012
-0.0839773
-0.0854874
-0.0872456
-0.0887962
-0.0899406
-0.0905779
-0.0906256
-0.0900338
-0.0887819
-0.0868712
-0.0843193
-0.0811568
-0.0774363
-0.0732037
-0.0685129
-0.0634379
-0.0580659
-0.0524937
-0.0468237
-0.0411619
-0.0356173
-0.0302923
-0.0252822
-0.0206707
-0.0165253
-11637.6
-10455.3
-9281.14
-8120.55
-6979.19
-5862.28
-4773.47
-3713.53
-2681.69
-1680.73
-688.532
-38.3954
-25.225
-17.0841
-10.4025
-5.75539
-2.96457
-1.45216
-0.694811
-0.341506
-0.187165
-0.124611
-0.102099
-0.0962776
-0.0971229
-0.100441
-0.10451
-0.108593
-0.112351
-0.115613
-0.118269
-0.120211
-0.121358
-0.12166
-0.121087
-0.119626
-0.117281
-0.114077
-0.110048
-0.105212
-0.0996197
-0.0933443
-0.0864797
-0.0791374
-0.0714469
-0.0635545
-0.0556168
-0.0477998
-0.0402689
-0.0331835
-11639.3
-10461.5
-9295.02
-8147.19
-7025.17
-5935.31
-4882.26
-3867.93
-2892.23
-1955.8
-1047.43
-22.9869
-14.027
-9.68083
-6.05457
-3.46163
-1.85237
-0.951861
-0.487428
-0.265155
-0.166313
-0.126495
-0.113541
-0.112428
-0.116417
-0.122495
-0.129318
-0.136228
-0.142866
-0.14902
-0.154545
-0.159305
-0.163179
-0.166071
-0.167901
-0.168613
-0.168167
-0.166537
-0.163736
-0.159747
-0.15456
-0.148191
-0.140678
-0.132092
-0.122532
-0.112139
-0.101088
-0.0895968
-0.0779152
-0.066328
-11642.1
-10470.5
-9311.46
-8172.83
-7061.94
-5984.94
-4946.17
-3947.47
-2988.42
-2067.77
-1184.4
-11.1996
-7.06344
-5.12833
-3.45056
-2.16559
-1.293
-0.753904
-0.445475
-0.28112
-0.199214
-0.161802
-0.147539
-0.145236
-0.149173
-0.156298
-0.165049
-0.174515
-0.184089
-0.193378
-0.202119
-0.210127
-0.217256
-0.223376
-0.228355
-0.232086
-0.234476
-0.235447
-0.234971
-0.233029
-0.229568
-0.224548
-0.217897
-0.209557
-0.199487
-0.187698
-0.174273
-0.159368
-0.143222
-0.126161
-11646.7
-10484.2
-9333.48
-8201.99
-7096.1
-6020.78
-4979.12
-3971.85
-2997.5
-2053.51
-1138.56
-5.91164
-3.94567
-3.07144
-2.32449
-1.72928
-1.26589
-0.916467
-0.665545
-0.495364
-0.385989
-0.318657
-0.278818
-0.257087
-0.247423
-0.245577
-0.248884
-0.255362
-0.263504
-0.272275
-0.28099
-0.28923
-0.29681
-0.303591
-0.309489
-0.314361
-0.318022
-0.320312
-0.321144
-0.320528
-0.318535
-0.314983
-0.309934
-0.303208
-0.294527
-0.283594
-0.270204
-0.254236
-0.235683
-0.21466
-11652.3
-10500.5
-9359.2
-8234.61
-7132.18
-6055.96
-5008.17
-3988.71
-2994.9
-2021.79
-1063.37
-4.04208
-3.018
-2.9164
-2.91418
-2.69487
-2.31975
-1.91604
-1.55549
-1.2613
-1.03414
-0.864167
-0.738613
-0.647104
-0.581917
-0.536476
-0.506161
-0.486675
-0.47423
-0.466023
-0.46016
-0.455494
-0.451476
-0.44798
-0.444571
-0.441327
-0.43804
-0.434252
-0.429626
-0.424127
-0.418088
-0.411062
-0.40331
-0.394889
-0.385589
-0.374823
-0.362044
-0.346717
-0.328428
-0.306804
-11664.7
-10537.5
-9420.25
-8319.31
-7240.92
-6191.07
-5174.93
-4195.54
-3252.76
-2346.16
-1491.55
-764.328
-19.6732
-12.3016
-8.89281
-6.27794
-4.49001
-3.35174
-2.61668
-2.12142
-1.7761
-1.52681
-1.34112
-1.199
-1.08822
-0.999267
-0.928248
-0.87142
-0.824886
-0.785542
-0.751259
-0.720639
-0.692988
-0.667858
-0.644223
-0.622033
-0.601251
-0.581514
-0.562288
-0.543417
-0.525123
-0.506867
-0.488738
-0.470767
-0.453224
-0.435609
-0.417374
-0.397953
-0.376817
-0.353442
-11681.6
-10588.3
-9505.03
-8438.13
-7393.34
-6375.74
-5389.46
-4437.41
-3521.23
-2642.02
-1802.05
-1005.51
-5.65771
-3.93007
-3.31872
-2.77256
-2.35313
-2.05415
-1.83985
-1.68393
-1.56258
-1.46148
-1.37426
-1.29574
-1.22379
-1.15728
-1.09568
-1.03977
-0.988768
-0.94187
-0.89862
-0.858539
-0.821525
-0.78612
-0.752363
-0.719532
-0.687851
-0.657336
-0.627428
-0.598302
-0.569542
-0.541248
-0.513093
-0.485561
-0.458566
-0.431734
-0.4048
-0.377391
-0.349254
-0.320059
-11694.3
-10625.2
-9563.22
-8512.88
-7478.4
-6463.59
-5471.76
-4505.75
-3568.19
-2661.76
-1788.69
-947.521
-3.84984
-2.7707
-2.45361
-2.1983
-2.00006
-1.84263
-1.70961
-1.59138
-1.48469
-1.38689
-1.29679
-1.21312
-1.13565
-1.06412
-1.00038
-0.943551
-0.893093
-0.8475
-0.806719
-0.769997
-0.735019
-0.701591
-0.669031
-0.636965
-0.605535
-0.574464
-0.543033
-0.511531
-0.480012
-0.448688
-0.417702
-0.386902
-0.356249
-0.325695
-0.29527
-0.265031
-0.235081
-0.205516
-11708.5
-10666.5
-9628.28
-8596.33
-7573.27
-6561.58
-5563.64
-4582.21
-3620.84
-2684.15
-1777.2
-904.195
-3.28188
-2.46568
-2.22611
-2.08154
-1.93604
-1.78771
-1.64447
-1.50763
-1.37928
-1.26017
-1.15266
-1.0539
-0.964231
-0.886218
-0.819059
-0.761114
-0.711543
-0.668331
-0.630523
-0.596017
-0.562651
-0.531119
-0.500159
-0.469057
-0.437893
-0.407052
-0.376393
-0.345959
-0.315872
-0.286274
-0.257334
-0.229204
-0.20205
-0.176043
-0.151402
-0.128307
-0.106932
-0.0874412
-11717.9
-10693.2
-9668.08
-8643.31
-7620.5
-6601.91
-5590.56
-4590.88
-3609.14
-2653.45
-1732.55
-853.901
-3.74057
-2.72135
-2.38598
-2.14201
-1.92266
-1.7228
-1.54045
-1.37716
-1.23086
-1.10098
-0.98489
-0.880531
-0.788775
-0.710411
-0.64421
-0.587856
-0.540448
-0.499408
-0.462488
-0.42804
-0.395183
-0.363479
-0.332548
-0.302348
-0.272913
-0.244424
-0.217077
-0.191035
-0.166457
-0.143486
-0.122242
-0.102811
-0.0852485
-0.0696067
-0.055881
-0.0440407
-0.034017
-0.0257055
-11723.7
-10709.1
-9689.01
-8662.42
-7629.92
-6593.84
-5558.11
-4527.68
-3505.7
-2485.45
-1430.78
-231.368
-2.618
-2.10857
-2.08874
-1.94819
-1.75127
-1.55321
-1.37363
-1.21515
-1.07721
-0.953828
-0.842204
-0.741996
-0.654042
-0.578291
-0.513702
-0.458916
-0.412002
-0.370801
-0.333643
-0.299385
-0.267321
-0.237096
-0.208585
-0.181776
-0.156841
-0.133898
-0.113036
-0.0942926
-0.077659
-0.0630868
-0.0504959
-0.0397791
-0.0308047
-0.0234213
-0.0174632
-0.0127545
-0.00911531
-0.00636843
-11725.2
-10710.8
-9683.71
-8638.64
-7572.59
-6484.39
-5375.24
-4250.43
-3122.3
-2012.93
-953.461
-4.22656
-3.14412
-2.56534
-2.20409
-1.88807
-1.62596
-1.41928
-1.25433
-1.12
-1.00422
-0.898621
-0.800082
-0.708426
-0.624516
-0.549086
-0.482256
-0.423483
-0.371767
-0.325975
-0.285095
-0.248322
-0.215052
-0.184833
-0.157369
-0.132547
-0.110378
-0.0908417
-0.0738832
-0.0593934
-0.047197
-0.0370709
-0.0287692
-0.0220444
-0.0166631
-0.0124124
-0.00910254
-0.0065659
-0.00465557
-0.00324373
-11737.7
-10747.3
-9739.81
-8705.99
-7639.28
-6536.14
-5395.46
-4214.63
-2981.09
-1664.98
-253.799
-3.967
-2.73557
-2.35077
-2.0322
-1.76043
-1.54761
-1.38606
-1.26251
-1.16733
-1.08688
-1.01184
-0.936565
-0.859321
-0.780849
-0.702851
-0.627118
-0.555276
-0.488383
-0.426855
-0.370804
-0.320339
-0.275236
-0.234882
-0.198659
-0.166239
-0.137618
-0.112799
-0.0917161
-0.074163
-0.0597639
-0.0480368
-0.0384866
-0.0306759
-0.0242562
-0.0189682
-0.0146255
-0.0110924
-0.00826165
-0.00603747
-11801.2
-10942.4
-10077.3
-9199.17
-8301.93
-7381.46
-6436.38
-5466.69
-4472.18
-3449.41
-2390.1
-1285.6
-7.226
-0.335794
-1.31037
-1.18357
-1.2315
-1.25381
-1.26915
-1.27283
-1.27021
-1.26067
-1.23992
-1.20574
-1.15531
-1.09018
-1.01228
-0.926303
-0.837561
-0.74884
-0.661571
-0.579139
-0.504431
-0.437138
-0.375289
-0.317655
-0.264963
-0.218284
-0.178446
-0.145645
-0.119342
-0.098382
-0.0814483
-0.0674088
-0.055449
-0.0450796
-0.0360456
-0.0282495
-0.0216604
-0.0162416
-11884.1
-11192.5
-10499.8
-9801.13
-9090.38
-8360.81
-7605.9
-6820.28
-5999.26
-5137.55
-4227.99
-3261.25
-2234.05
-1209.44
-681.466
-3.20462
-0.153729
-0.184311
-0.298043
-0.625685
-0.976011
-1.26432
-1.47086
-1.62594
-1.71842
-1.75901
-1.74839
-1.69128
-1.59659
-1.47897
-1.34447
-1.19889
-1.06216
-0.941531
-0.829255
-0.716029
-0.603948
-0.499321
-0.406921
-0.330023
-0.269658
-0.223755
-0.18862
-0.160502
-0.136513
-0.115025
-0.0952237
-0.0770036
-0.0606789
-0.0466001
-11945.6
-11377.6
-10811
-10244.3
-9675.15
-9100.32
-8516.51
-7920.46
-7308.99
-6678.75
-6025.86
-5346.18
-4635.85
-3901.97
-3137.12
-2318.54
-1401.01
-419.834
-215.009
-1.0412
-0.0533508
-0.0709176
-0.0811139
-0.989236
-1.71787
-2.39251
-2.92119
-3.25445
-3.35202
-3.25758
-3.09335
-2.78558
-2.45297
-2.16424
-1.90588
-1.64804
-1.39527
-1.16071
-0.951555
-0.771628
-0.624138
-0.513111
-0.432729
-0.373168
-0.325595
-0.28491
-0.245791
-0.206748
-0.168819
-0.13386
-11976.4
-11470.1
-10965.4
-10462.3
-9959.94
-9457.31
-8953.06
-8445.8
-7934.17
-7416.94
-6893.07
-6361.8
-5822.69
-5275.56
-4720.18
-4155.5
-3578.17
-2982.36
-2371.58
-1736.01
-1045.44
-342.807
-165.996
-0.796229
-5.02399
-6.6952
-8.05633
-8.72963
-8.4109
-8.03784
-7.32024
-6.61346
-5.91553
-4.93342
-4.04394
-3.38168
-2.81169
-2.31205
-1.91602
-1.62467
-1.41331
-1.24336
-1.08553
-0.932255
-0.806202
-0.695172
-0.598701
-0.512458
-0.433277
-0.359483
-0.0032123
-0.0023271
-0.00164863
-0.00114475
-0.000782965
-0.000532522
-0.000365921
-0.000259933
-0.000195987
-0.000160019
-0.000141931
-0.000134836
-0.00013427
-0.00013748
-0.00014284
-0.000149435
-0.000156768
-0.000164574
-0.000172714
-0.000181109
-0.000189706
-0.000198462
-0.000207337
-0.000216285
-0.000225252
-0.000234181
-0.000243002
-0.000251642
-0.000260015
-0.000268029
-0.000275584
-0.000282575
-0.000288889
-0.000294413
-0.00029903
-0.000302628
-0.000305102
-0.000306354
-0.000306301
-0.000304881
-0.000302053
-0.000297804
-0.000292151
-0.000285143
-0.000276861
-0.000267415
-0.000256942
-0.000245599
-0.000233558
-0.000220998
-0.00633862
-0.00469083
-0.00338123
-0.00237302
-0.00162289
-0.00108474
-0.00071332
-0.000467325
-0.000311471
-0.000217494
-0.000164101
-0.000136171
-0.000123555
-0.000119799
-0.000121008
-0.000124945
-0.000130383
-0.00013668
-0.000143511
-0.000150719
-0.000158225
-0.000165992
-0.000173993
-0.000182209
-0.000190622
-0.000199207
-0.00020794
-0.000216789
-0.000225718
-0.000234686
-0.000243644
-0.000252539
-0.000261309
-0.000269888
-0.000278202
-0.00028617
-0.000293704
-0.000300711
-0.000307095
-0.000312752
-0.000317576
-0.000321461
-0.000324301
-0.000325992
-0.00032644
-0.000325561
-0.000323286
-0.000319564
-0.000314371
-0.000307706
-0.0128929
-0.0097972
-0.00723722
-0.00518848
-0.00360588
-0.00242881
-0.0015878
-0.00101165
-0.000633849
-0.000397162
-0.000255895
-0.000176022
-0.000133794
-0.000113616
-0.000105817
-0.000104721
-0.000107159
-0.000111452
-0.000116747
-0.000122632
-0.000128914
-0.000135509
-0.000142379
-0.000149507
-0.000156885
-0.000164506
-0.000172361
-0.000180442
-0.000188736
-0.000197229
-0.000205902
-0.000214734
-0.000223699
-0.000232766
-0.0002419
-0.000251061
-0.000260203
-0.000269275
-0.000278221
-0.000286979
-0.00029548
-0.00030365
-0.000311409
-0.000318672
-0.000325348
-0.000331338
-0.000336543
-0.000340854
-0.000344163
-0.000346361
-0.0266856
-0.0208918
-0.0158828
-0.0116971
-0.008327
-0.00572075
-0.00378993
-0.00242231
-0.00149735
-0.000900526
-0.000533381
-0.000318307
-0.000198658
-0.000135891
-0.000105423
-9.24845e-05
-8.86877e-05
-8.95113e-05
-9.26371e-05
-9.69313e-05
-0.000101864
-0.0001072
-0.000112838
-0.000118739
-0.000124888
-0.00013128
-0.000137915
-0.000144792
-0.00015191
-0.000159269
-0.000166864
-0.000174694
-0.000182751
-0.00019103
-0.000199521
-0.000208213
-0.000217092
-0.000226142
-0.000235344
-0.000244675
-0.000254108
-0.000263612
-0.000273151
-0.000282686
-0.000292168
-0.000301545
-0.000310758
-0.000319738
-0.00032841
-0.00033669
-0.0551247
-0.0445979
-0.0350144
-0.0265935
-0.0194811
-0.0137303
-0.00929458
-0.00603779
-0.00376437
-0.00225615
-0.00130507
-0.000734771
-0.000409521
-0.00023323
-0.000142737
-9.92212e-05
-8.02446e-05
-7.35561e-05
-7.28109e-05
-7.48822e-05
-7.82999e-05
-8.24041e-05
-8.69116e-05
-9.17075e-05
-9.67483e-05
-0.00010202
-0.000107519
-0.000113247
-0.000119205
-0.000125398
-0.000131826
-0.000138491
-0.000145394
-0.000152536
-0.000159917
-0.000167534
-0.000175386
-0.000183469
-0.00019178
-0.000200313
-0.000209061
-0.000218015
-0.000227163
-0.000236494
-0.000245992
-0.000255638
-0.00026541
-0.000275282
-0.000285225
-0.000295203
-0.108596
-0.0910421
-0.0740508
-0.0582015
-0.0440281
-0.0319488
-0.0221881
-0.0147273
-0.00933723
-0.00565667
-0.00327929
-0.00182479
-0.000980669
-0.000515361
-0.00027158
-0.000150355
-9.351e-05
-6.89039e-05
-5.97562e-05
-5.77545e-05
-5.89779e-05
-6.16606e-05
-6.50424e-05
-6.88108e-05
-7.28438e-05
-7.70977e-05
-8.15589e-05
-8.62259e-05
-9.11006e-05
-9.61866e-05
-0.000101488
-0.000107007
-0.000112748
-0.000118714
-0.000124907
-0.00013133
-0.000137983
-0.000144868
-0.000151986
-0.000159337
-0.00016692
-0.000174734
-0.000182777
-0.000191046
-0.000199537
-0.000208245
-0.000217166
-0.00022629
-0.000235611
-0.000245117
-0.191433
-0.166519
-0.1406
-0.11464
-0.0897717
-0.0671924
-0.0479473
-0.0325711
-0.0210458
-0.0129365
-0.0075718
-0.0042275
-0.00225817
-0.00116007
-0.000578982
-0.000286729
-0.000147057
-8.39186e-05
-5.73775e-05
-4.75962e-05
-4.52131e-05
-4.6017e-05
-4.81968e-05
-5.10075e-05
-5.41561e-05
-5.75339e-05
-6.11037e-05
-6.48556e-05
-6.87895e-05
-7.29083e-05
-7.72163e-05
-8.17177e-05
-8.64168e-05
-9.13176e-05
-9.64241e-05
-0.00010174
-0.000107268
-0.000113012
-0.000118975
-0.000125158
-0.000131564
-0.000138195
-0.000145051
-0.000152134
-0.000159444
-0.00016698
-0.000174743
-0.00018273
-0.00019094
-0.00019937
-0.281507
-0.252738
-0.220865
-0.186494
-0.150973
-0.116276
-0.0850257
-0.0589843
-0.0387731
-0.0241538
-0.0142742
-0.0080159
-0.0042875
-0.00219155
-0.00107631
-0.000513115
-0.000242692
-0.00011924
-6.59222e-05
-4.45493e-05
-3.71302e-05
-3.55983e-05
-3.64999e-05
-3.84198e-05
-4.08027e-05
-4.3441e-05
-4.62616e-05
-4.92422e-05
-5.23782e-05
-5.56716e-05
-5.91262e-05
-6.27467e-05
-6.65376e-05
-7.05036e-05
-7.46493e-05
-7.89791e-05
-8.34973e-05
-8.82081e-05
-9.31156e-05
-9.82234e-05
-0.000103535
-0.000109055
-0.000114785
-0.000120729
-0.000126889
-0.000133268
-0.000139868
-0.000146691
-0.000153738
-0.00016101
-0.32732
-0.297934
-0.26489
-0.228186
-0.1885
-0.147108
-0.108722
-0.0762562
-0.0505869
-0.0317317
-0.0188417
-0.010609
-0.00567743
-0.00289624
-0.00141436
-0.000665999
-0.00030689
-0.000142939
-7.18443e-05
-4.28519e-05
-3.21282e-05
-2.90334e-05
-2.90358e-05
-3.02888e-05
-3.20718e-05
-3.41161e-05
-3.63269e-05
-3.86741e-05
-4.11506e-05
-4.37574e-05
-4.64979e-05
-4.93766e-05
-5.23983e-05
-5.55675e-05
-5.88892e-05
-6.2368e-05
-6.60088e-05
-6.98162e-05
-7.37949e-05
-7.79496e-05
-8.22846e-05
-8.68046e-05
-9.15138e-05
-9.64165e-05
-0.000101517
-0.000106819
-0.000112326
-0.000118042
-0.000123971
-0.000130114
-0.289306
-0.256952
-0.222911
-0.187602
-0.151949
-0.117538
-0.0863315
-0.0600612
-0.039548
-0.0246534
-0.0145633
-0.00816469
-0.0043535
-0.00221417
-0.0010788
-0.000507449
-0.00023418
-0.000109824
-5.60856e-05
-3.42621e-05
-2.62427e-05
-2.39696e-05
-2.4023e-05
-2.50146e-05
-2.64052e-05
-2.79949e-05
-2.97139e-05
-3.15407e-05
-3.34708e-05
-3.55056e-05
-3.76486e-05
-3.9904e-05
-4.22762e-05
-4.47696e-05
-4.7389e-05
-5.01389e-05
-5.3024e-05
-5.60493e-05
-5.92194e-05
-6.25392e-05
-6.60137e-05
-6.96477e-05
-7.34462e-05
-7.7414e-05
-8.15561e-05
-8.58774e-05
-9.03827e-05
-9.50767e-05
-9.99641e-05
-0.000105049
-0.176537
-0.148425
-0.12162
-0.0966423
-0.0740971
-0.0545536
-0.0384199
-0.0258083
-0.0165093
-0.0100516
-0.00582717
-0.00322056
-0.00170051
-0.000860941
-0.000420786
-0.000201361
-9.72457e-05
-5.02824e-05
-3.02882e-05
-2.24546e-05
-1.98853e-05
-1.95219e-05
-2.00693e-05
-2.10032e-05
-2.2121e-05
-2.33489e-05
-2.46622e-05
-2.60548e-05
-2.75267e-05
-2.90806e-05
-3.07199e-05
-3.24483e-05
-3.42696e-05
-3.61879e-05
-3.82073e-05
-4.03321e-05
-4.25666e-05
-4.49153e-05
-4.73826e-05
-4.99733e-05
-5.26921e-05
-5.5544e-05
-5.85337e-05
-6.16664e-05
-6.49472e-05
-6.83813e-05
-7.19737e-05
-7.57299e-05
-7.96549e-05
-8.37541e-05
-0.0699793
-0.0546551
-0.0415298
-0.0306067
-0.0218133
-0.0149938
-0.00991763
-0.00630183
-0.00384259
-0.00224769
-0.00126202
-0.000681557
-0.000355681
-0.000181182
-9.20264e-05
-4.85954e-05
-2.84977e-05
-1.97706e-05
-1.63519e-05
-1.53195e-05
-1.53305e-05
-1.57952e-05
-1.64666e-05
-1.72462e-05
-1.8097e-05
-1.90069e-05
-1.99731e-05
-2.09965e-05
-2.20792e-05
-2.32239e-05
-2.44335e-05
-2.5711e-05
-2.70596e-05
-2.84828e-05
-2.99838e-05
-3.15664e-05
-3.3234e-05
-3.49907e-05
-3.68404e-05
-3.8787e-05
-4.08351e-05
-4.29888e-05
-4.52527e-05
-4.76316e-05
-5.01303e-05
-5.27536e-05
-5.55066e-05
-5.83945e-05
-6.14227e-05
-6.45965e-05
-0.0189691
-0.0136442
-0.00954877
-0.00649067
-0.00427852
-0.0027314
-0.00168715
-0.00100792
-0.000582681
-0.000326677
-0.000178574
-9.6289e-05
-5.24199e-05
-3.00166e-05
-1.91062e-05
-1.41e-05
-1.20106e-05
-1.13127e-05
-1.12615e-05
-1.15088e-05
-1.18988e-05
-1.23651e-05
-1.2881e-05
-1.34368e-05
-1.40299e-05
-1.46603e-05
-1.53294e-05
-1.60388e-05
-1.67905e-05
-1.75866e-05
-1.84293e-05
-1.93208e-05
-2.02637e-05
-2.12603e-05
-2.23134e-05
-2.34256e-05
-2.45999e-05
-2.58392e-05
-2.71467e-05
-2.85257e-05
-2.99797e-05
-3.15122e-05
-3.31271e-05
-3.48282e-05
-3.66197e-05
-3.85057e-05
-4.04907e-05
-4.25793e-05
-4.47764e-05
-4.70868e-05
-0.00434583
-0.0028945
-0.00188055
-0.0011914
-0.000736043
-0.000443721
-0.000261485
-0.000151208
-8.64523e-05
-4.95682e-05
-2.92012e-05
-1.8313e-05
-1.26972e-05
-9.92777e-06
-8.65359e-06
-8.14691e-06
-8.0282e-06
-8.10558e-06
-8.28492e-06
-8.52144e-06
-8.79466e-06
-9.09568e-06
-9.42107e-06
-9.76993e-06
-1.01425e-05
-1.05395e-05
-1.09621e-05
-1.14113e-05
-1.18886e-05
-1.23953e-05
-1.29328e-05
-1.35026e-05
-1.41064e-05
-1.4746e-05
-1.54229e-05
-1.61392e-05
-1.68968e-05
-1.76979e-05
-1.85446e-05
-1.94393e-05
-2.03845e-05
-2.13828e-05
-2.2437e-05
-2.35499e-05
-2.47246e-05
-2.59643e-05
-2.72724e-05
-2.86525e-05
-3.01082e-05
-3.16437e-05
-0.00222067
-0.00149412
-0.000988418
-0.000643304
-0.000412245
-0.000260395
-0.000162402
-0.000100308
-6.16865e-05
-3.81212e-05
-2.40284e-05
-1.57774e-05
-1.10575e-05
-8.42979e-06
-7.01806e-06
-6.30055e-06
-5.97346e-06
-5.86379e-06
-5.87524e-06
-5.95546e-06
-6.07679e-06
-6.22502e-06
-6.39323e-06
-6.57827e-06
-6.77893e-06
-6.99501e-06
-7.22678e-06
-7.47476e-06
-7.73963e-06
-8.02212e-06
-8.32305e-06
-8.64326e-06
-8.98368e-06
-9.34527e-06
-9.72904e-06
-1.01361e-05
-1.05676e-05
-1.10248e-05
-1.15091e-05
-1.20218e-05
-1.25644e-05
-1.31385e-05
-1.37459e-05
-1.43883e-05
-1.50676e-05
-1.57858e-05
-1.65452e-05
-1.7348e-05
-1.81966e-05
-1.90937e-05
-0.00432788
-0.00304368
-0.00210088
-0.00142385
-0.000947787
-0.000619705
-0.000398019
-0.000251181
-0.000155907
-9.53985e-05
-5.78043e-05
-3.496e-05
-2.13839e-05
-1.34943e-05
-9.01336e-06
-6.53007e-06
-5.1925e-06
-4.49861e-06
-4.15965e-06
-4.01345e-06
-3.97116e-06
-3.98534e-06
-4.03136e-06
-4.09684e-06
-4.17578e-06
-4.26547e-06
-4.36481e-06
-4.47346e-06
-4.59147e-06
-4.71906e-06
-4.85652e-06
-5.00421e-06
-5.16252e-06
-5.33186e-06
-5.51269e-06
-5.70549e-06
-5.9108e-06
-6.12917e-06
-6.36123e-06
-6.60763e-06
-6.86909e-06
-7.14636e-06
-7.44025e-06
-7.75162e-06
-8.0814e-06
-8.43058e-06
-8.80025e-06
-9.19154e-06
-9.60566e-06
-1.00439e-05
-0.0119141
-0.00855665
-0.00602274
-0.00415858
-0.0028185
-0.00187522
-0.00122428
-0.000783937
-0.000492183
-0.000303056
-0.000183175
-0.000108871
-6.38237e-05
-3.70995e-05
-2.15833e-05
-1.27671e-05
-7.86646e-06
-5.2029e-06
-3.78856e-06
-3.05601e-06
-2.68729e-06
-2.50876e-06
-2.42805e-06
-2.39743e-06
-2.39292e-06
-2.40291e-06
-2.42194e-06
-2.44757e-06
-2.47875e-06
-2.5151e-06
-2.55648e-06
-2.6029e-06
-2.65441e-06
-2.71109e-06
-2.77305e-06
-2.84041e-06
-2.91329e-06
-2.99185e-06
-3.07627e-06
-3.16674e-06
-3.26347e-06
-3.3667e-06
-3.47668e-06
-3.59369e-06
-3.71802e-06
-3.85001e-06
-3.99002e-06
-4.13843e-06
-4.29566e-06
-4.46217e-06
-0.0349235
-0.025581
-0.0183479
-0.0129091
-0.00892055
-0.00605608
-0.00403626
-0.00263794
-0.00168929
-0.00105975
-0.000651384
-0.000392411
-0.000231765
-0.000134259
-7.63584e-05
-4.27394e-05
-2.36653e-05
-1.30977e-05
-7.38328e-06
-4.36727e-06
-2.81244e-06
-2.02758e-06
-1.63744e-06
-1.44429e-06
-1.34716e-06
-1.29613e-06
-1.26735e-06
-1.2498e-06
-1.23856e-06
-1.23149e-06
-1.22766e-06
-1.22669e-06
-1.22839e-06
-1.23265e-06
-1.2394e-06
-1.24859e-06
-1.26017e-06
-1.27411e-06
-1.29038e-06
-1.30897e-06
-1.32986e-06
-1.35307e-06
-1.3786e-06
-1.40646e-06
-1.43668e-06
-1.4693e-06
-1.50436e-06
-1.54192e-06
-1.58204e-06
-1.62479e-06
-0.103172
-0.0774387
-0.0567858
-0.0408385
-0.0288972
-0.0201355
-0.0137913
-0.009263
-0.00609291
-0.00392399
-0.00247477
-0.00152832
-0.000923674
-0.000545819
-0.000315066
-0.000177543
-9.7661e-05
-5.24843e-05
-2.76273e-05
-1.43292e-05
-7.41445e-06
-3.91902e-06
-2.19858e-06
-1.37044e-06
-9.76698e-07
-7.8797e-07
-6.93365e-07
-6.41146e-07
-6.08014e-07
-5.83833e-07
-5.64325e-07
-5.47717e-07
-5.33268e-07
-5.20639e-07
-5.09645e-07
-5.00156e-07
-4.92063e-07
-4.85272e-07
-4.79693e-07
-4.75246e-07
-4.71858e-07
-4.69462e-07
-4.67999e-07
-4.67416e-07
-4.67664e-07
-4.68702e-07
-4.70493e-07
-4.73007e-07
-4.76216e-07
-4.80099e-07
-0.290235
-0.226681
-0.17153
-0.126718
-0.0922323
-0.0663817
-0.0471025
-0.0327903
-0.0223471
-0.0149086
-0.00973707
-0.00622128
-0.00388188
-0.00236063
-0.00139674
-0.00080325
-0.000448768
-0.000243518
-0.00012834
-6.57166e-05
-3.27405e-05
-1.59293e-05
-7.63091e-06
-3.65995e-06
-1.81349e-06
-9.75055e-07
-5.99324e-07
-4.29378e-07
-3.48408e-07
-3.05147e-07
-2.77875e-07
-2.57695e-07
-2.41067e-07
-2.26603e-07
-2.13737e-07
-2.02207e-07
-1.91856e-07
-1.82565e-07
-1.74229e-07
-1.66754e-07
-1.60054e-07
-1.54054e-07
-1.48679e-07
-1.4387e-07
-1.39568e-07
-1.35723e-07
-1.3229e-07
-1.29233e-07
-1.26513e-07
-1.241e-07
-0.000208685
-0.000201159
-0.000193857
-0.000186596
-0.000179346
-0.000172121
-0.000164941
-0.000157829
-0.000150807
-0.000143897
-0.000137118
-0.000130488
-0.000124022
-0.000117734
-0.000111636
-0.000105738
-0.000100046
-9.45673e-05
-8.93043e-05
-8.42594e-05
-7.94334e-05
-7.48255e-05
-7.04338e-05
-6.62558e-05
-6.22882e-05
-5.85273e-05
-5.49689e-05
-5.16079e-05
-4.84388e-05
-4.54556e-05
-4.26519e-05
-4.00208e-05
-3.75551e-05
-3.52474e-05
-3.309e-05
-3.10752e-05
-2.91954e-05
-2.74427e-05
-2.58097e-05
-2.4289e-05
-2.28734e-05
-2.15559e-05
-2.033e-05
-1.91892e-05
-1.81274e-05
-1.7139e-05
-1.62185e-05
-1.53607e-05
-1.45607e-05
-1.38141e-05
-1.31165e-05
-1.24642e-05
-1.18534e-05
-1.12807e-05
-1.07433e-05
-1.02381e-05
-9.76276e-06
-9.31487e-06
-8.89236e-06
-8.49332e-06
-8.11601e-06
-7.75887e-06
-7.42047e-06
-7.09951e-06
-6.79481e-06
-6.50528e-06
-6.22994e-06
-5.96788e-06
-5.71829e-06
-5.48041e-06
-5.25355e-06
-5.03707e-06
-4.83038e-06
-4.63295e-06
-4.44429e-06
-4.26393e-06
-4.09145e-06
-3.92647e-06
-3.7686e-06
-3.61752e-06
-3.4729e-06
-3.33446e-06
-3.20191e-06
-3.07499e-06
-2.95346e-06
-2.83708e-06
-2.72564e-06
-2.61892e-06
-2.51673e-06
-2.41887e-06
-2.32517e-06
-2.23543e-06
-2.1495e-06
-2.06722e-06
-1.98842e-06
-1.91295e-06
-1.84067e-06
-1.77144e-06
-1.70512e-06
-1.64158e-06
-1.5807e-06
-1.52236e-06
-1.46644e-06
-1.41283e-06
-1.36142e-06
-1.31211e-06
-1.26481e-06
-1.21942e-06
-1.17586e-06
-1.13403e-06
-1.09386e-06
-1.05529e-06
-1.01822e-06
-9.82608e-07
-9.48379e-07
-9.15478e-07
-8.83848e-07
-8.53438e-07
-8.24197e-07
-7.96082e-07
-7.69047e-07
-7.43053e-07
-7.18062e-07
-6.94036e-07
-6.70943e-07
-6.4875e-07
-6.27426e-07
-6.06944e-07
-5.87275e-07
-5.68395e-07
-5.50279e-07
-5.32905e-07
-5.1625e-07
-5.00295e-07
-4.8502e-07
-4.70408e-07
-4.56441e-07
-4.43103e-07
-4.30378e-07
-4.18253e-07
-4.06714e-07
-3.95745e-07
-3.85336e-07
-3.75472e-07
-3.66142e-07
-3.57334e-07
-3.49037e-07
-3.41241e-07
-3.33935e-07
-3.2711e-07
-3.2076e-07
-3.14876e-07
-3.09453e-07
-3.04488e-07
-2.99976e-07
-2.95918e-07
-2.92313e-07
-2.89165e-07
-2.86477e-07
-2.84257e-07
-2.82514e-07
-2.81259e-07
-2.80506e-07
-2.80269e-07
-2.80567e-07
-2.81418e-07
-2.82842e-07
-2.84861e-07
-2.87496e-07
-2.90771e-07
-2.9471e-07
-2.99337e-07
-3.04676e-07
-3.10755e-07
-3.17599e-07
-3.25235e-07
-3.33691e-07
-3.42995e-07
-3.53174e-07
-3.64254e-07
-3.76263e-07
-3.89222e-07
-4.03155e-07
-4.18079e-07
-4.34009e-07
-4.50956e-07
-4.6893e-07
-4.87935e-07
-5.07974e-07
-5.29046e-07
-5.51151e-07
-5.74286e-07
-5.98445e-07
-6.23623e-07
-6.49808e-07
-6.76984e-07
-7.05128e-07
-7.34207e-07
-7.64179e-07
-7.94988e-07
-8.26567e-07
-8.58836e-07
-8.91706e-07
-9.25079e-07
-9.5885e-07
-9.9291e-07
-1.02715e-06
-1.06145e-06
-1.0957e-06
-1.12979e-06
-1.1636e-06
-1.19701e-06
-1.22989e-06
-1.26211e-06
-1.29355e-06
-1.32405e-06
-1.35348e-06
-1.38167e-06
-1.40847e-06
-1.43373e-06
-1.45728e-06
-1.47895e-06
-1.4986e-06
-1.51604e-06
-1.53112e-06
-1.54369e-06
-1.5536e-06
-1.5607e-06
-1.56485e-06
-1.56594e-06
-1.56386e-06
-1.55851e-06
-1.54981e-06
-1.53773e-06
-1.52222e-06
-1.50329e-06
-1.48095e-06
-1.45526e-06
-1.42629e-06
-1.39415e-06
-1.35898e-06
-1.32094e-06
-1.28022e-06
-1.23703e-06
-1.19162e-06
-1.14425e-06
-1.09519e-06
-1.04474e-06
-9.93209e-07
-9.40917e-07
-8.88183e-07
-8.35328e-07
-7.82668e-07
-7.30512e-07
-6.79157e-07
-6.28883e-07
-5.79951e-07
-5.32601e-07
-4.87046e-07
-4.43472e-07
-4.02036e-07
-3.62864e-07
-3.26052e-07
-2.91664e-07
-2.59733e-07
-2.30265e-07
-2.03237e-07
-1.78604e-07
-1.56296e-07
-1.36225e-07
-1.18285e-07
-1.02355e-07
-8.83041e-08
-7.59914e-08
-6.52725e-08
-5.60009e-08
-4.80316e-08
-4.12235e-08
-3.54415e-08
-3.05582e-08
-2.64549e-08
-2.30224e-08
-2.01615e-08
-1.77834e-08
-1.58095e-08
-1.41708e-08
-1.2808e-08
-1.16705e-08
-1.07154e-08
-9.90751e-09
-9.21769e-09
-8.62245e-09
-8.10292e-09
-7.64406e-09
-7.23397e-09
-6.86329e-09
-6.52471e-09
-6.21259e-09
-5.92261e-09
-5.65136e-09
-0.000300065
-0.000294799
-0.000289257
-0.000283357
-0.00027709
-0.000270471
-0.000263522
-0.000256269
-0.000248744
-0.000240981
-0.000233015
-0.000224885
-0.000216631
-0.000208293
-0.000199912
-0.000191528
-0.000183178
-0.000174898
-0.000166723
-0.000158681
-0.000150802
-0.000143107
-0.000135616
-0.000128343
-0.000121307
-0.000114517
-0.000107985
-0.000101719
-9.57248e-05
-9.0006e-05
-8.45644e-05
-7.93996e-05
-7.45094e-05
-6.989e-05
-6.5536e-05
-6.14406e-05
-5.75958e-05
-5.39925e-05
-5.06209e-05
-4.74708e-05
-4.45316e-05
-4.17922e-05
-3.9242e-05
-3.687e-05
-3.46656e-05
-3.26184e-05
-3.07183e-05
-2.89554e-05
-2.732e-05
-2.5803e-05
-2.43954e-05
-2.30888e-05
-2.18751e-05
-2.07468e-05
-1.96966e-05
-1.8718e-05
-1.7805e-05
-1.69519e-05
-1.61537e-05
-1.54058e-05
-1.47038e-05
-1.40442e-05
-1.34234e-05
-1.28384e-05
-1.22863e-05
-1.17645e-05
-1.12709e-05
-1.08032e-05
-1.03596e-05
-9.93839e-06
-9.53791e-06
-9.15676e-06
-8.79366e-06
-8.44741e-06
-8.11697e-06
-7.80134e-06
-7.49966e-06
-7.21112e-06
-6.93498e-06
-6.67058e-06
-6.41729e-06
-6.17456e-06
-5.94186e-06
-5.71872e-06
-5.50468e-06
-5.29933e-06
-5.10228e-06
-4.91317e-06
-4.73166e-06
-4.55742e-06
-4.39015e-06
-4.22957e-06
-4.0754e-06
-3.92739e-06
-3.78528e-06
-3.64885e-06
-3.51786e-06
-3.3921e-06
-3.27136e-06
-3.15544e-06
-3.04414e-06
-2.93729e-06
-2.83469e-06
-2.73618e-06
-2.64157e-06
-2.55071e-06
-2.46344e-06
-2.3796e-06
-2.29905e-06
-2.22164e-06
-2.14724e-06
-2.07573e-06
-2.00696e-06
-1.94084e-06
-1.87724e-06
-1.81606e-06
-1.75719e-06
-1.70055e-06
-1.64604e-06
-1.59357e-06
-1.54307e-06
-1.49446e-06
-1.44766e-06
-1.40262e-06
-1.35927e-06
-1.31754e-06
-1.2774e-06
-1.23878e-06
-1.20165e-06
-1.16596e-06
-1.13167e-06
-1.09876e-06
-1.06718e-06
-1.03692e-06
-1.00793e-06
-9.80204e-07
-9.53712e-07
-9.28433e-07
-9.04348e-07
-8.81437e-07
-8.59685e-07
-8.39078e-07
-8.19601e-07
-8.01245e-07
-7.84001e-07
-7.67863e-07
-7.52829e-07
-7.38898e-07
-7.26073e-07
-7.1436e-07
-7.03768e-07
-6.94311e-07
-6.86005e-07
-6.78872e-07
-6.72938e-07
-6.68234e-07
-6.64796e-07
-6.62664e-07
-6.61885e-07
-6.62512e-07
-6.64601e-07
-6.68217e-07
-6.73428e-07
-6.80309e-07
-6.88943e-07
-6.99417e-07
-7.11824e-07
-7.26265e-07
-7.42845e-07
-7.61676e-07
-7.82873e-07
-8.06556e-07
-8.32849e-07
-8.61877e-07
-8.93767e-07
-9.28649e-07
-9.66649e-07
-1.0079e-06
-1.05251e-06
-1.10063e-06
-1.15236e-06
-1.20782e-06
-1.26712e-06
-1.33037e-06
-1.39767e-06
-1.46909e-06
-1.54472e-06
-1.62463e-06
-1.70885e-06
-1.79741e-06
-1.89034e-06
-1.98762e-06
-2.08921e-06
-2.19508e-06
-2.30514e-06
-2.4193e-06
-2.53743e-06
-2.6594e-06
-2.78502e-06
-2.91411e-06
-3.04642e-06
-3.1817e-06
-3.31966e-06
-3.45996e-06
-3.60223e-06
-3.74609e-06
-3.8911e-06
-4.03679e-06
-4.18268e-06
-4.32827e-06
-4.47302e-06
-4.6164e-06
-4.75786e-06
-4.89685e-06
-5.03279e-06
-5.16511e-06
-5.29324e-06
-5.41658e-06
-5.53455e-06
-5.64656e-06
-5.75201e-06
-5.85032e-06
-5.94089e-06
-6.02315e-06
-6.09653e-06
-6.16051e-06
-6.21454e-06
-6.25813e-06
-6.29082e-06
-6.31216e-06
-6.32177e-06
-6.31928e-06
-6.30439e-06
-6.27686e-06
-6.2365e-06
-6.18319e-06
-6.1169e-06
-6.03766e-06
-5.94562e-06
-5.84098e-06
-5.72407e-06