/*--------------------------------*- C++ -*----------------------------------*\
| =========                 |                                                 |
| \\      /  F ield         | OpenFOAM: The Open Source CFD Toolbox           |
|  \\    /   O peration     | Version:  2.4.0                                 |
|   \\  /    A nd           | Web:      www.OpenFOAM.org                      |
|    \\/     M anipulation  |                                                 |
\*---------------------------------------------------------------------------*/
FoamFile
{
    version     2.0;
    format      ascii;
    class       volScalarField;
    location    "4";
    object      p;
}
// * * * * * * * * * * * * * * * * * * * * * * * * * * * * * * * * * * * * * //

dimensions      [1 -1 -2 0 0 0 0];

internalField   nonuniform List<scalar> 
8000
(
0.29157
0.289362
0.287321
0.285186
0.282947
0.285017
0.303831
0.336222
0.264266
-0.23701
-1.0414
0.296992
0.323228
0.324115
0.325103
0.331053
0.326017
0.330854
0.336906
0.330072
0.33252
0.329545
0.333089
0.32708
0.327573
0.327427
0.327092
0.325972
0.324805
0.323943
0.321086
0.319534
0.317755
0.315796
0.313751
0.311712
0.30918
0.306814
0.304342
0.301777
0.299119
0.296394
0.293671
0.290574
0.287615
0.28458
0.281487
0.278348
0.275172
0.271972
0.543514
0.539797
0.535785
0.531791
0.528021
0.530167
0.554159
0.596039
0.506059
-0.126801
-1.15399
0.470304
0.565037
0.569666
0.570561
0.571261
0.558723
0.562964
0.552186
0.550856
0.54732
0.538896
0.536717
0.52551
0.520738
0.515106
0.508713
0.502065
0.497071
0.487513
0.481116
0.474413
0.467626
0.460786
0.45396
0.44821
0.440019
0.433774
0.427603
0.421617
0.415823
0.410213
0.405547
0.399691
0.394921
0.390377
0.38608
0.382048
0.378278
0.374773
0.847257
0.842477
0.837705
0.832809
0.828017
0.833172
0.875576
0.947926
0.790404
-0.309795
-2.07135
0.897923
0.935779
0.935629
0.93626
0.935106
0.923151
0.92713
0.911652
0.909801
0.904327
0.902424
0.895839
0.890286
0.883715
0.876064
0.867683
0.861808
0.852194
0.84367
0.834698
0.825358
0.815907
0.806321
0.796655
0.789102
0.776357
0.767474
0.758632
0.750013
0.741648
0.733523
0.725938
0.719086
0.710561
0.703837
0.697415
0.691343
0.685623
0.680256
0.851924
0.846926
0.84162
0.836051
0.830462
0.833858
0.871144
0.935741
0.791106
-0.209576
-1.81832
0.968911
1.04637
1.04675
1.0468
1.04491
1.03396
1.03627
1.0222
1.01928
1.01249
1.00953
1.00119
0.995078
0.987805
0.979207
0.970063
0.962698
0.952432
0.943455
0.934021
0.924323
0.914606
0.904831
0.895026
0.887875
0.875647
0.867232
0.859036
0.85115
0.843678
0.836593
0.829936
0.824602
0.817264
0.81213
0.80741
0.803118
0.799254
0.79581
0.72702
0.723923
0.720078
0.715329
0.70966
0.706569
0.71615
0.737327
0.679696
0.284945
-0.394163
0.745172
1.03352
1.03308
1.0325
1.02989
1.01894
1.01983
1.00541
1.00144
0.993793
0.989968
0.981026
0.974228
0.966629
0.957962
0.949208
0.942682
0.934203
0.926534
0.918979
0.911693
0.904798
0.898375
0.892348
0.886889
0.885285
0.874588
0.871697
0.869393
0.867589
0.866408
0.865874
0.865965
0.866665
0.867814
0.869359
0.871344
0.873687
0.876354
0.595615
0.598095
0.599518
0.598963
0.596259
0.59201
0.589417
0.593803
0.593947
0.505827
0.208789
0.216404
0.909903
0.911262
0.910215
0.907054
0.895194
0.895539
0.878219
0.872667
0.86525
0.857443
0.851419
0.837027
0.829188
0.820775
0.812521
0.804722
0.799294
0.792801
0.787995
0.784116
0.781583
0.780016
0.779211
0.779806
0.781853
0.785273
0.786333
0.792384
0.799417
0.80727
0.815895
0.825184
0.83531
0.846
0.857711
0.869176
0.880941
0.892833
0.872037
0.87892
0.886002
0.891745
0.895678
0.898456
0.906391
0.933577
0.968454
0.848149
0.232722
-0.447048
0.930345
0.932688
0.932036
0.931021
0.921335
0.923734
0.913131
0.907616
0.902294
0.893498
0.889662
0.877748
0.870281
0.862724
0.854275
0.848722
0.843756
0.839781
0.837147
0.836009
0.835387
0.837024
0.841131
0.845097
0.850673
0.857631
0.866012
0.877189
0.888905
0.899894
0.913075
0.926908
0.94178
0.956949
0.972433
0.988251
1.00424
1.02025
1.35672
1.36368
1.37199
1.38016
1.38723
1.39376
1.40856
1.45441
1.52367
1.38599
0.473534
-0.968262
1.20612
1.20833
1.2107
1.2151
1.21557
1.21724
1.2262
1.2202
1.21675
1.21372
1.20897
1.20709
1.21056
1.19484
1.1893
1.18565
1.18315
1.18138
1.18048
1.18056
1.18166
1.20286
1.1901
1.19405
1.20024
1.20764
1.21473
1.22208
1.23372
1.24043
1.23164
1.24565
1.25869
1.27149
1.2832
1.2956
1.30779
1.31916
1.58175
1.5872
1.59301
1.59834
1.60313
1.60752
1.6118
1.61737
1.62947
1.62774
1.60316
1.51248
1.46916
1.608
1.61174
1.61045
1.6131
1.61289
1.62441
1.62249
1.6231
1.62395
1.61892
1.62282
1.67447
1.635
1.62316
1.61562
1.61208
1.60918
1.60601
1.60361
1.60285
1.63576
1.62475
1.61488
1.61577
1.62007
1.6217
1.62328
1.62388
1.63862
1.63647
1.64484
1.65248
1.65803
1.66021
1.66464
1.66875
1.67221
1.98332
1.98344
1.98342
1.98325
1.98271
1.98149
1.97996
1.9827
2.00407
2.01784
1.9225
1.47
0.869361
1.86218
1.85851
1.85755
1.86376
1.86006
1.85774
1.86086
1.85495
1.85733
1.86104
1.87347
1.87365
1.86203
1.85661
1.85265
1.85103
1.84963
1.84638
1.8449
1.84417
1.84872
1.84953
1.85091
1.85327
1.856
1.84949
1.85113
1.864
1.86856
1.87467
1.88157
1.88685
1.89086
1.89263
1.89458
1.89703
1.89835
2.50105
2.49088
2.48039
2.47141
2.46353
2.45597
2.44936
2.45071
2.47967
2.50256
2.36432
1.6813
0.740491
2.02463
2.02244
2.02597
2.03186
2.02453
2.02613
2.02605
2.02609
2.02682
2.04313
2.04373
2.0409
2.04034
2.04268
2.04001
2.04082
2.04965
2.04262
2.04187
2.04104
2.02968
2.03121
2.03241
2.04079
2.03126
2.03358
2.02631
2.03064
2.03481
2.03748
2.03971
2.04261
2.04463
2.04616
2.04837
2.04724
2.0476
2.76864
2.74529
2.72029
2.69776
2.67725
2.65764
2.63955
2.6307
2.65106
2.66484
2.49747
1.74164
0.774774
2.22903
2.23948
2.244
2.24544
2.24931
2.25079
2.25913
2.25554
2.27733
2.28085
2.2648
2.29772
2.28722
2.28332
2.28277
2.26434
2.28773
2.26217
2.28073
2.23967
2.24222
2.23291
2.23267
2.22537
2.22491
2.22324
2.22153
2.21979
2.21762
2.21566
2.2141
2.21169
2.20977
2.20763
2.2053
2.20276
2.19989
2.79372
2.75037
2.70432
2.6639
2.62864
2.59717
2.57159
2.56201
2.5806
2.55889
2.25513
1.4568
1.17258
2.46538
2.4796
2.47541
2.48301
2.46999
2.49542
2.48988
2.49299
2.49949
2.49539
2.49564
2.49231
2.48446
2.50065
2.46061
2.46167
2.45679
2.45255
2.44297
2.43791
2.43283
2.42494
2.42196
2.41308
2.4081
2.40299
2.39787
2.39275
2.38761
2.38359
2.37896
2.37354
2.36862
2.36362
2.35858
2.35347
2.34835
2.57218
2.50664
2.43974
2.38267
2.33292
2.28907
2.26955
2.32639
2.44869
2.14764
0.102931
-3.26875
1.82461
2.65348
2.66381
2.6487
2.6603
2.67631
2.67839
2.67726
2.67445
2.66855
2.66132
2.65499
2.64683
2.64607
2.6311
2.62442
2.61758
2.61062
2.60368
2.59676
2.58954
2.58235
2.57959
2.56583
2.55968
2.55338
2.54711
2.54094
2.53486
2.52889
2.52288
2.51713
2.51118
2.50534
2.4995
2.49364
2.48774
2.4818
0.337284
0.26333
0.186205
0.120004
0.0643173
0.0205066
0.000616346
0.0166112
-0.0276636
-0.445168
-1.41225
-0.445788
2.68123
2.7629
2.75936
2.75372
2.75162
2.76088
2.76286
2.76292
2.75909
2.75367
2.74777
2.74166
2.73539
2.72901
2.72293
2.71638
2.71019
2.70403
2.69792
2.69168
2.68519
2.68394
2.67704
2.67158
2.66604
2.6604
2.6544
2.64877
2.64301
2.63747
2.63195
2.62643
2.62094
2.61542
2.60988
2.60431
2.59869
2.59302
-2.81225
-2.80855
-2.80808
-2.82019
-2.84612
-2.87334
-2.86877
-2.84834
-3.1441
-4.58434
-6.65356
-0.392703
2.85266
2.8478
2.85882
2.78444
2.78638
2.78573
2.78436
2.78456
2.78234
2.77986
2.77732
2.77453
2.77152
2.76829
2.76481
2.76109
2.75737
2.75367
2.7502
2.74618
2.74192
2.74109
2.73654
2.73314
2.72952
2.72563
2.72167
2.71768
2.71364
2.70956
2.70545
2.7013
2.69712
2.6929
2.68881
2.68425
2.67989
2.67545
-8.53337
-8.3811
-8.24261
-8.14545
-8.08639
-8.0619
-8.06648
-8.07949
-8.07415
-8.15155
-8.84706
-10.8816
-11.7665
-4.29538
-1.07619
2.61497
2.73773
2.79839
2.80709
2.79843
2.80057
2.79973
2.7968
2.79467
2.79243
2.79029
2.78818
2.78628
2.78451
2.78294
2.78131
2.7793
2.77675
2.77684
2.77626
2.77088
2.76911
2.76702
2.76486
2.76259
2.76034
2.75798
2.75553
2.75305
2.7505
2.74786
2.74515
2.74282
2.73916
2.73633
-0.468232
-0.373476
-0.263966
-0.1602
-0.0634112
0.0285309
0.115646
0.197913
0.280821
0.384271
0.519176
0.560867
0.0470072
-1.51574
-3.21072
-12.7842
-9.6758
3.41088
0.806067
2.4952
2.68919
2.75573
2.7658
2.79137
2.79925
2.79692
2.79609
2.8001
2.80064
2.79967
2.79697
2.79752
2.79462
2.79314
2.79319
2.79382
2.79454
2.79457
2.79873
2.79825
2.79795
2.79762
2.79679
2.79585
2.7948
2.79361
2.79226
2.79111
2.7904
2.7874
3.02464
3.06501
3.11522
3.17074
3.2316
3.29884
3.37256
3.45311
3.54047
3.63661
3.74522
3.8659
3.97096
3.99447
4.00148
3.64213
2.86495
2.36093
3.13025
-5.23988
-8.36031
0.0201946
0.625143
2.79543
2.7702
2.89864
2.9095
2.94386
2.82307
2.78497
2.81036
2.81412
2.81465
2.81122
2.8117
2.81403
2.81602
2.81629
2.81321
2.81009
2.82895
2.80607
2.81305
2.81287
2.80932
2.80695
2.8064
2.80695
2.80934
2.81107
5.10793
5.13795
5.16751
5.19524
5.2224
5.24978
5.27769
5.30602
5.3349
5.36427
5.39425
5.4251
5.45685
5.49089
5.53158
5.58862
5.6505
5.6854
5.72619
5.48492
4.76869
3.95213
4.34111
-4.59786
-7.02554
-3.26808
1.44413
3.27242
3.08305
2.95856
2.95404
3.0048
3.04827
2.64097
2.82131
2.87682
2.87998
2.86078
2.88868
2.88415
2.79288
2.91986
2.92417
2.85231
2.87653
2.87921
2.87771
2.87815
2.87923
2.88023
0.268761
0.265553
0.262363
0.259206
0.2561
0.253059
0.2501
0.247238
0.24449
0.241873
0.239401
0.237093
0.234963
0.23303
0.231309
0.229819
0.228576
0.227599
0.226903
0.226508
0.226431
0.22669
0.227302
0.228286
0.229659
0.231439
0.233643
0.236288
0.23939
0.242964
0.247023
0.25158
0.256641
0.262216
0.268361
0.274794
0.28188
0.289435
0.297428
0.305817
0.314549
0.323556
0.332756
0.342054
0.351368
0.360651
0.369718
0.378374
0.386364
0.394187
0.371528
0.368543
0.365813
0.363333
0.361099
0.359105
0.357345
0.355812
0.354499
0.353398
0.3525
0.351797
0.35128
0.350939
0.350765
0.350747
0.350875
0.351137
0.351524
0.352023
0.352624
0.353315
0.354083
0.354917
0.355806
0.356735
0.357694
0.35867
0.35965
0.360621
0.36157
0.362485
0.363353
0.364161
0.364895
0.365593
0.366162
0.366633
0.367008
0.367284
0.367465
0.367562
0.367595
0.367586
0.367556
0.367536
0.367557
0.367767
0.368245
0.36856
0.67524
0.670573
0.666252
0.662272
0.65863
0.65532
0.652339
0.649679
0.647337
0.645307
0.643584
0.642161
0.641034
0.640197
0.639645
0.639371
0.63937
0.639637
0.640167
0.640952
0.641989
0.643272
0.644795
0.646553
0.64854
0.650751
0.65318
0.655823
0.658672
0.661724
0.664971
0.668409
0.672032
0.675832
0.679805
0.683945
0.688297
0.692677
0.69728
0.702025
0.706906
0.711913
0.717043
0.722287
0.727638
0.733092
0.738632
0.744202
0.749763
0.755494
0.792772
0.790122
0.787847
0.785929
0.784352
0.783101
0.78216
0.781514
0.781146
0.781043
0.781189
0.781571
0.782174
0.782985
0.783993
0.785183
0.786544
0.788065
0.789734
0.791541
0.793476
0.795528
0.79769
0.799951
0.802304
0.80474
0.807253
0.809834
0.812478
0.815178
0.817927
0.820722
0.823555
0.826424
0.829322
0.832247
0.835193
0.838158
0.841145
0.844144
0.847134
0.850153
0.853181
0.856216
0.859256
0.862289
0.865317
0.868381
0.871523
0.874592
0.879298
0.882491
0.885906
0.889514
0.893286
0.897197
0.901227
0.90536
0.909578
0.913869
0.918219
0.922617
0.927055
0.931522
0.936009
0.94051
0.945016
0.949522
0.954021
0.958508
0.962979
0.967429
0.971855
0.976253
0.980622
0.984958
0.989261
0.993529
0.99776
1.00196
1.00611
1.01024
1.01432
1.01837
1.02238
1.02636
1.03031
1.03423
1.03811
1.04196
1.0458
1.04958
1.05334
1.05709
1.0608
1.06449
1.06815
1.07179
1.07543
1.07907
0.904701
0.916459
0.928058
0.939482
0.950709
0.961702
0.972424
0.982858
0.99299
1.00281
1.01231
1.02148
1.03034
1.03888
1.04711
1.05503
1.06265
1.06997
1.07701
1.08376
1.09023
1.09643
1.10237
1.10805
1.11349
1.11868
1.12364
1.12838
1.1329
1.1372
1.14131
1.14522
1.14894
1.15249
1.15587
1.15908
1.16214
1.16505
1.16783
1.17047
1.17298
1.17537
1.17765
1.17983
1.18191
1.18388
1.18576
1.18758
1.18939
1.1911
1.0362
1.05181
1.06692
1.08149
1.09552
1.10907
1.12214
1.13467
1.14666
1.15809
1.16896
1.17927
1.18903
1.19825
1.20694
1.21513
1.22283
1.23005
1.23683
1.24316
1.24908
1.25459
1.25971
1.26447
1.26887
1.27293
1.27666
1.28009
1.28322
1.28608
1.28866
1.291
1.2931
1.29498
1.29664
1.29811
1.29939
1.30049
1.30144
1.30223
1.30288
1.3034
1.3038
1.30409
1.30429
1.30438
1.30438
1.30433
1.30428
1.30415
1.33176
1.34245
1.35165
1.3616
1.37058
1.37883
1.38661
1.39388
1.40052
1.40658
1.41208
1.41703
1.42148
1.42543
1.42891
1.43194
1.43455
1.43674
1.43855
1.43999
1.44107
1.44182
1.44226
1.44238
1.44222
1.44179
1.4411
1.44016
1.439
1.43761
1.43602
1.43423
1.43226
1.43013
1.42783
1.42539
1.4228
1.4201
1.41727
1.41434
1.41131
1.40819
1.40499
1.40172
1.3984
1.395
1.39156
1.3881
1.38467
1.38119
1.67467
1.67973
1.68074
1.68274
1.68457
1.68483
1.68345
1.68294
1.68192
1.68041
1.67845
1.67609
1.67338
1.67035
1.66701
1.6634
1.65952
1.6554
1.65104
1.64646
1.64168
1.63671
1.63156
1.62624
1.62076
1.61512
1.60935
1.60345
1.59742
1.59128
1.58503
1.57869
1.57225
1.56574
1.55914
1.55248
1.54576
1.53898
1.53216
1.5253
1.5184
1.51148
1.50454
1.49758
1.49062
1.48365
1.47669
1.46974
1.46286
1.456
1.89897
1.90191
1.8983
1.89873
1.89709
1.89566
1.89137
1.88806
1.88413
1.87965
1.87468
1.86926
1.86346
1.8573
1.85081
1.84402
1.83695
1.82962
1.82205
1.81425
1.80625
1.79805
1.78966
1.78111
1.77239
1.76353
1.75453
1.74539
1.73614
1.72677
1.71729
1.70772
1.69806
1.68832
1.6785
1.66861
1.65867
1.64866
1.63862
1.62852
1.6184
1.60825
1.59807
1.58788
1.57768
1.56748
1.55728
1.54709
1.53694
1.52682
2.04682
2.04629
2.04535
2.04347
2.04136
2.03807
2.03462
2.03062
2.02609
2.02108
2.01561
2.00971
2.00341
1.99673
1.98968
1.98229
1.97457
1.96653
1.95821
1.9496
1.94072
1.93158
1.9222
1.91259
1.90275
1.89271
1.88245
1.87201
1.86139
1.85059
1.83962
1.8285
1.81723
1.80582
1.79429
1.78262
1.77085
1.75897
1.74699
1.73492
1.72277
1.71054
1.69825
1.68589
1.67349
1.66104
1.64855
1.63604
1.62351
1.61098
2.1968
2.19357
2.18962
2.18564
2.18131
2.17666
2.17167
2.16635
2.16071
2.15474
2.14845
2.14184
2.13491
2.12768
2.12013
2.11229
2.10415
2.09573
2.08702
2.07803
2.06877
2.05924
2.04945
2.0394
2.02911
2.01858
2.00781
1.99681
1.98558
1.97415
1.9625
1.95065
1.93861
1.92638
1.91397
1.90139
1.88864
1.87573
1.86268
1.84947
1.83614
1.82268
1.80909
1.7954
1.7816
1.76771
1.75373
1.73966
1.72552
1.71134
2.34305
2.33767
2.33215
2.32647
2.32064
2.31462
2.30843
2.30203
2.29544
2.28863
2.2816
2.27434
2.26686
2.25914
2.25118
2.24298
2.23454
2.22586
2.21693
2.20776
2.19834
2.18868
2.17877
2.16862
2.15823
2.14759
2.13673
2.12563
2.11429
2.10273
2.09095
2.07895
2.06673
2.0543
2.04167
2.02883
2.0158
2.00258
1.98918
1.97559
1.96184
1.94792
1.93385
1.91962
1.90525
1.89074
1.87611
1.86135
1.84646
1.83149
2.47579
2.4697
2.46353
2.45725
2.45087
2.44436
2.43772
2.43094
2.42401
2.41692
2.40967
2.40224
2.39464
2.38685
2.37887
2.37069
2.36231
2.35373
2.34494
2.33594
2.32672
2.31729
2.30763
2.29776
2.28766
2.27733
2.26679
2.25601
2.24502
2.2338
2.22236
2.21069
2.19881
2.18671
2.1744
2.16187
2.14914
2.1362
2.12306
2.10972
2.09619
2.08247
2.06857
2.0545
2.04025
2.02584
2.01127
1.99654
1.98164
1.96664
2.58729
2.58149
2.57561
2.56965
2.56358
2.55742
2.55114
2.54475
2.53823
2.53158
2.5248
2.51786
2.51078
2.50354
2.49613
2.48856
2.48081
2.47288
2.46477
2.45646
2.44797
2.43927
2.43038
2.42128
2.41197
2.40245
2.39272
2.38278
2.37262
2.36224
2.35165
2.34084
2.32981
2.31856
2.3071
2.29542
2.28353
2.27142
2.25911
2.24658
2.23386
2.22093
2.2078
2.19448
2.18098
2.16729
2.15343
2.13937
2.12511
2.11074
2.67093
2.66634
2.66166
2.65689
2.65201
2.64704
2.64195
2.63675
2.63143
2.62597
2.62038
2.61465
2.60878
2.60275
2.59657
2.59023
2.58371
2.57702
2.57016
2.56311
2.55587
2.54844
2.54082
2.53299
2.52497
2.51673
2.50829
2.49963
2.49076
2.48168
2.47238
2.46286
2.45312
2.44316
2.43297
2.42257
2.41195
2.40111
2.39005
2.37878
2.36729
2.35559
2.34368
2.33156
2.31924
2.30673
2.29402
2.28109
2.26795
2.25467
2.7334
2.73038
2.72728
2.72409
2.7208
2.7174
2.71389
2.71027
2.70651
2.70263
2.69861
2.69444
2.69012
2.68565
2.68102
2.67622
2.67125
2.6661
2.66077
2.65525
2.64955
2.64365
2.63754
2.63124
2.62473
2.61801
2.61108
2.60393
2.59657
2.58899
2.58118
2.57316
2.56491
2.55643
2.54774
2.53881
2.52966
2.52029
2.51069
2.50087
2.49082
2.48056
2.47008
2.45938
2.44846
2.43734
2.42602
2.41447
2.40268
2.39075
2.78597
2.78442
2.78278
2.78106
2.77924
2.7773
2.77525
2.77309
2.77079
2.76837
2.76581
2.7631
2.76024
2.75721
2.75402
2.75066
2.74713
2.74341
2.7395
2.7354
2.7311
2.72661
2.72191
2.717
2.71189
2.70656
2.70101
2.69525
2.68926
2.68305
2.67662
2.66997
2.66308
2.65597
2.64864
2.64107
2.63328
2.62526
2.61701
2.60854
2.59985
2.59093
2.58179
2.57242
2.56284
2.55306
2.54306
2.53283
2.52236
2.51172
2.8128
2.81428
2.8154
2.81617
2.81667
2.817
2.81714
2.81709
2.81685
2.8164
2.81574
2.81487
2.81379
2.81249
2.81097
2.80923
2.80727
2.80507
2.80265
2.79999
2.7971
2.79397
2.79061
2.78701
2.78318
2.7791
2.77479
2.77024
2.76545
2.76042
2.75515
2.74965
2.74391
2.73793
2.73171
2.72526
2.71857
2.71165
2.70451
2.69713
2.68952
2.68169
2.67364
2.66537
2.65688
2.64818
2.63927
2.63013
2.62076
2.61122
2.88319
2.88426
2.88526
2.88574
2.88535
2.88491
2.8846
2.88439
2.88399
2.88336
2.88252
2.88147
2.88022
2.87877
2.87712
2.87527
2.8732
2.87091
2.86842
2.8657
2.86277
2.85963
2.85626
2.85268
2.84888
2.84486
2.84062
2.83616
2.83149
2.82659
2.82148
2.81615
2.8106
2.80484
2.79886
2.79266
2.78626
2.77964
2.77281
2.76578
2.75854
2.7511
2.74345
2.73561
2.72757
2.71934
2.71093
2.70231
2.69348
2.6845
0.401126
0.405781
0.410167
0.414304
0.418192
0.421828
0.425209
0.428334
0.431202
0.433813
0.43618
0.438312
0.440135
0.441778
0.443197
0.444403
0.445409
0.446227
0.44687
0.447345
0.447692
0.447936
0.447917
0.447889
0.447754
0.447527
0.447219
0.446837
0.446389
0.445882
0.44532
0.444709
0.444053
0.443356
0.44262
0.441847
0.441038
0.440196
0.43932
0.43841
0.437465
0.436486
0.435472
0.434421
0.433333
0.432207
0.431042
0.429839
0.428595
0.427312
0.42599
0.424627
0.423224
0.421782
0.420299
0.418778
0.417217
0.415617
0.413978
0.4123
0.410585
0.408831
0.40704
0.405212
0.403348
0.401447
0.399509
0.397537
0.395528
0.393485
0.391407
0.389294
0.387148
0.384967
0.382754
0.380507
0.378227
0.375914
0.373568
0.37119
0.368778
0.366334
0.363856
0.361344
0.358798
0.356219
0.353605
0.350956
0.348272
0.345553
0.3428
0.340011
0.337187
0.334328
0.331434
0.328505
0.325541
0.322543
0.31951
0.316444
0.313345
0.310213
0.30705
0.303855
0.300631
0.297379
0.294098
0.290791
0.287459
0.284104
0.280725
0.277324
0.273904
0.270463
0.267005
0.263529
0.260037
0.256531
0.253011
0.249478
0.245935
0.242383
0.238822
0.235254
0.231681
0.228103
0.224522
0.220937
0.217349
0.213759
0.210166
0.20657
0.202971
0.199368
0.19576
0.192148
0.188533
0.184914
0.181292
0.177669
0.174047
0.170428
0.166813
0.163205
0.159607
0.156021
0.152449
0.148894
0.145356
0.141839
0.138344
0.134871
0.131422
0.127998
0.124597
0.121222
0.117872
0.114546
0.111246
0.107972
0.104724
0.101503
0.0983116
0.0951509
0.0920228
0.0889291
0.0858715
0.0828518
0.0798713
0.076931
0.0740319
0.0711748
0.0683604
0.0655895
0.0628627
0.0601809
0.057545
0.0549559
0.0524143
0.0499208
0.0474758
0.0450792
0.0427308
0.0404298
0.0381753
0.0359662
0.0338016
0.0316806
0.0296029
0.0275686
0.0255784
0.0236338
0.0217367
0.0198894
0.0180945
0.0163544
0.0146715
0.0130477
0.0114845
0.00998262
0.00854271
0.00716494
0.0058494
0.00459622
0.00340576
0.0022787
0.00121608
0.000219309
-0.000709966
-0.00156993
-0.00235877
-0.00307477
-0.00371643
-0.00428255
-0.00477227
-0.00518505
-0.0055207
-0.00577934
-0.00596135
-0.00606738
-0.00609832
-0.00605528
-0.00593954
-0.00575259
-0.00549603
-0.00517158
-0.00478097
-0.00432595
-0.00380815
-0.00322908
-0.00259005
-0.00189217
-0.00113637
-0.000323391
0.000546101
0.00147148
0.00245207
0.00348706
0.00457545
0.00571598
0.00690714
0.0081471
0.00943373
0.0107646
0.012137
0.0135479
0.0149939
0.0164715
0.0179766
0.0195051
0.0210524
0.0226138
0.024184
0.0257579
0.0273298
0.0288939
0.0304444
0.031975
0.0334797
0.034952
0.0363856
0.0377741
0.0391113
0.040391
0.041607
0.0427536
0.043825
0.0448157
0.0457206
0.0465346
0.0472534
0.0478727
0.0483891
0.0487996
0.0491018
0.0492939
0.0493746
0.0493431
0.0491993
0.0489436
0.0485771
0.0481017
0.0475202
0.046836
0.0460535
0.0451779
0.0442154
0.0431721
0.0420547
0.0408707
0.0396296
0.0383421
0.0370124
0.0356373
0.0342258
0.0328268
0.031489
0.0301215
0.0284829
0.0266375
0.368143
0.367999
0.368001
0.368129
0.368373
0.368732
0.369204
0.369785
0.37047
0.371252
0.37219
0.373112
0.374165
0.37529
0.376479
0.377727
0.379026
0.380372
0.381759
0.383168
0.384571
0.386432
0.387973
0.389474
0.391012
0.392524
0.394039
0.395549
0.397052
0.398543
0.40002
0.401479
0.402917
0.404331
0.405719
0.40708
0.40841
0.40971
0.410977
0.412211
0.413411
0.414575
0.415703
0.416794
0.417847
0.418861
0.419836
0.420771
0.421665
0.422517
0.423327
0.424094
0.424816
0.425494
0.426126
0.426712
0.427251
0.427742
0.428185
0.428578
0.428921
0.429214
0.429456
0.429645
0.429782
0.429866
0.429896
0.429872
0.429793
0.429659
0.429468
0.429222
0.428918
0.428558
0.428139
0.427663
0.427128
0.426535
0.425882
0.42517
0.424398
0.423566
0.422673
0.42172
0.420706
0.419631
0.418494
0.417296
0.416036
0.414715
0.413332
0.411887
0.410381
0.408813
0.407183
0.405492
0.40374
0.401926
0.40005
0.398113
0.396115
0.394055
0.391934
0.389751
0.387508
0.385202
0.382836
0.380408
0.377919
0.375368
0.372756
0.370083
0.367349
0.364554
0.361697
0.358779
0.355799
0.352758
0.349656
0.346493
0.343268
0.339982
0.336635
0.333227
0.329758
0.32623
0.322641
0.318993
0.315286
0.311521
0.307697
0.303816
0.299877
0.295882
0.29183
0.287721
0.283557
0.279336
0.27506
0.27073
0.266346
0.261908
0.257419
0.252879
0.248289
0.243653
0.238971
0.234246
0.229479
0.224674
0.219832
0.214957
0.210049
0.205113
0.20015
0.195163
0.190153
0.185123
0.180073
0.175007
0.169924
0.164826
0.159716
0.154595
0.149463
0.144325
0.139182
0.134036
0.128892
0.12375
0.118615
0.11349
0.108378
0.103283
0.0982067
0.0931544
0.0881293
0.0831355
0.0781772
0.0732589
0.0683853
0.0635612
0.0587916
0.0540816
0.049436
0.0448597
0.0403576
0.0359341
0.0315936
0.0273405
0.023179
0.0191134
0.0151479
0.0112872
0.00753572
0.00389853
0.000380697
-0.00301255
-0.00627588
-0.00940398
-0.0123916
-0.0152338
-0.0179257
-0.0204629
-0.022841
-0.0250563
-0.0271052
-0.0289841
-0.0306899
-0.0322196
-0.0335701
-0.0347386
-0.0357224
-0.0365188
-0.037125
-0.0375386
-0.0377571
-0.0377783
-0.0376
-0.0372201
-0.0366369
-0.0358488
-0.0348543
-0.0336524
-0.032242
-0.0306228
-0.0287943
-0.0267567
-0.0245107
-0.0220572
-0.019398
-0.0165351
-0.0134715
-0.0102105
-0.00675649
-0.00311416
0.000710911
0.00471246
0.00888353
0.0132165
0.0177029
0.0223337
0.0270991
0.0319887
0.0369911
0.0420945
0.0472862
0.0525531
0.0578813
0.0632561
0.0686626
0.074085
0.0795071
0.0849125
0.0902838
0.0956038
0.100855
0.106018
0.111076
0.116011
0.120804
0.125436
0.12989
0.134149
0.138194
0.142009
0.145576
0.14888
0.151905
0.154637
0.157062
0.159168
0.160945
0.162384
0.163478
0.16422
0.164606
0.164633
0.164301
0.163609
0.162561
0.161161
0.159419
0.157344
0.154952
0.152257
0.149281
0.146044
0.142568
0.138877
0.13501
0.131002
0.126863
0.122565
0.118161
0.113922
0.110119
0.106196
0.100594
0.093086
0.760261
0.763538
0.766778
0.769996
0.773191
0.776361
0.779501
0.78261
0.785685
0.788724
0.791804
0.794759
0.797669
0.800535
0.803355
0.806122
0.808836
0.811492
0.81409
0.816624
0.819078
0.82236
0.824727
0.827028
0.829253
0.831376
0.833421
0.835387
0.837271
0.839074
0.840793
0.842429
0.843981
0.845448
0.846833
0.848135
0.849356
0.850495
0.851555
0.852534
0.853435
0.854258
0.855001
0.855666
0.856251
0.856756
0.857178
0.857516
0.85777
0.857938
0.858019
0.858011
0.857914
0.857726
0.857447
0.857077
0.856615
0.856061
0.855414
0.854675
0.853842
0.852915
0.851895
0.85078
0.84957
0.848265
0.846864
0.845367
0.843773
0.842082
0.840294
0.838407
0.836423
0.83434
0.832158
0.829878
0.827498
0.825018
0.822439
0.81976
0.81698
0.8141
0.81112
0.808038
0.804857
0.801574
0.798191
0.794708
0.791124
0.787439
0.783655
0.779771
0.775788
0.771705
0.767522
0.763241
0.758862
0.754384
0.749808
0.745136
0.740366
0.735499
0.730537
0.725479
0.720326
0.715079
0.709738
0.704303
0.698775
0.693155
0.687442
0.681638
0.675742
0.669756
0.66368
0.657514
0.651259
0.644916
0.638485
0.631968
0.625365
0.618676
0.611903
0.605045
0.598105
0.591081
0.583976
0.576789
0.569521
0.562173
0.554745
0.547239
0.539655
0.531995
0.524261
0.516453
0.508573
0.500624
0.492608
0.484526
0.47638
0.468173
0.459907
0.451585
0.443207
0.434777
0.426296
0.417767
0.409192
0.400574
0.391914
0.383216
0.374481
0.365713
0.356914
0.348087
0.339235
0.330361
0.321469
0.312561
0.303641
0.294713
0.285779
0.276845
0.267912
0.258985
0.250066
0.24116
0.232269
0.223397
0.214549
0.205729
0.19694
0.188189
0.179479
0.170816
0.162205
0.153651
0.145161
0.13674
0.128393
0.120128
0.111949
0.103864
0.0958785
0.0880004
0.0802368
0.0725952
0.0650835
0.0577098
0.0504823
0.0434093
0.0364991
0.0297602
0.0232006
0.0168288
0.0106528
0.00468087
-0.00107886
-0.00661813
-0.0119286
-0.017002
-0.0218297
-0.0264035
-0.0307149
-0.0347558
-0.038518
-0.041994
-0.0451762
-0.0480575
-0.0506314
-0.0528913
-0.0548314
-0.0564462
-0.0577303
-0.058679
-0.059288
-0.0595532
-0.0594711
-0.0590388
-0.0582537
-0.0571139
-0.055618
-0.053765
-0.0515549
-0.0489878
-0.0460647
-0.0427873
-0.0391576
-0.0351787
-0.0308542
-0.0261883
-0.0211864
-0.0158547
-0.0102002
-0.00423105
0.00204374
0.0086139
0.0154681
0.0225938
0.0299775
0.0376042
0.0454576
0.0535202
0.0617735
0.0701975
0.078771
0.0874716
0.0962758
0.105159
0.114096
0.123059
0.132021
0.140953
0.149826
0.158611
0.167277
0.175794
0.184129
0.192253
0.200133
0.207739
0.215041
0.222008
0.22861
0.23482
0.240609
0.245951
0.25082
0.255193
0.259047
0.262362
0.265121
0.267308
0.268912
0.269921
0.27033
0.270132
0.269328
0.267919
0.265909
0.263307
0.260126
0.256383
0.252098
0.247299
0.242017
0.236287
0.230142
0.223626
0.216801
0.209728
0.202421
0.194836
0.187053
0.179518
0.172685
0.165668
0.155921
0.143046
0.87663
0.878033
0.879471
0.880937
0.882432
0.883958
0.885512
0.887095
0.888708
0.89035
0.892021
0.893777
0.895417
0.897171
0.898953
0.900762
0.902596
0.904452
0.906342
0.908274
0.910239
0.912185
0.913774
0.915741
0.917727
0.919717
0.921708
0.923692
0.925661
0.927609
0.929529
0.931412
0.933252
0.935038
0.936758
0.938424
0.940069
0.941434
0.942861
0.944199
0.945449
0.946608
0.947711
0.948662
0.949569
0.950383
0.95111
0.951748
0.952328
0.952797
0.95315
0.953426
0.953602
0.953677
0.95365
0.953519
0.953284
0.952945
0.952502
0.951955
0.951305
0.950553
0.949699
0.948742
0.947684
0.946522
0.945258
0.94389
0.942418
0.94084
0.939156
0.937366
0.935469
0.933464
0.931352
0.929131
0.926803
0.924366
0.92182
0.919166
0.916403
0.913531
0.910551
0.907461
0.904261
0.900953
0.897534
0.894006
0.890367
0.886619
0.88276
0.87879
0.874709
0.870517
0.866214
0.861799
0.857273
0.852636
0.847887
0.843026
0.838054
0.832971
0.827776
0.82247
0.817053
0.811524
0.805884
0.800134
0.794272
0.7883
0.782217
0.776024
0.76972
0.763307
0.756783
0.75015
0.743408
0.736556
0.729595
0.722525
0.715346
0.70806
0.700665
0.693162
0.685552
0.677835
0.670012
0.662083
0.654049
0.645911
0.637668
0.629323
0.620875
0.612325
0.603676
0.594926
0.586078
0.577133
0.56809
0.558953
0.549721
0.540397
0.530981
0.521475
0.511882
0.502203
0.492439
0.482594
0.47267
0.46267
0.452595
0.44245
0.432236
0.421958
0.411618
0.40122
0.390766
0.380261
0.369708
0.359111
0.348472
0.337796
0.327086
0.316346
0.30558
0.294792
0.283987
0.273169
0.262344
0.251516
0.240692
0.229876
0.219075
0.208295
0.197543
0.186827
0.176152
0.165528
0.154961
0.14446
0.134034
0.123691
0.113442
0.103295
0.0932608
0.0833499
0.073573
0.063941
0.0544653
0.0451572
0.0360286
0.0270913
0.0183574
0.00983923
0.00154922
-0.00650002
-0.0142957
-0.0218249
-0.0290745
-0.0360316
-0.0426829
-0.0490154
-0.0550161
-0.0606722
-0.065971
-0.0709001
-0.0754475
-0.0796012
-0.0833501
-0.086683
-0.0895895
-0.0920594
-0.0940833
-0.0956524
-0.0967583
-0.0973936
-0.0975512
-0.0972249
-0.0964093
-0.0950998
-0.0932927
-0.0909849
-0.0881742
-0.0848599
-0.0810421
-0.0767216
-0.0719002
-0.0665809
-0.0607677
-0.054466
-0.0476819
-0.0404222
-0.0326957
-0.0245136
-0.0158875
-0.00682974
0.00264543
0.0125223
0.0227835
0.0334106
0.0443837
0.0556806
0.0672765
0.0791457
0.0912609
0.103593
0.116112
0.128783
0.141575
0.154451
0.167374
0.180306
0.193205
0.206031
0.218743
0.231298
0.243654
0.255766
0.267589
0.27908
0.290194
0.300887
0.311117
0.320841
0.330018
0.338608
0.346572
0.353872
0.360475
0.366347
0.371456
0.375777
0.379284
0.381956
0.383777
0.384731
0.384811
0.38401
0.382328
0.379768
0.376338
0.372052
0.366927
0.360987
0.354263
0.346791
0.338615
0.329783
0.320345
0.310364
0.299927
0.289125
0.277982
0.266443
0.254623
0.243127
0.23257
0.221746
0.207218
0.188597
1.08181
1.08363
1.08543
1.08722
1.08901
1.09079
1.09256
1.09432
1.09608
1.0978
1.09952
1.10122
1.10292
1.10459
1.10624
1.10788
1.10949
1.11108
1.11267
1.11426
1.11581
1.11731
1.11862
1.11999
1.12136
1.12273
1.12408
1.12539
1.12668
1.12793
1.12916
1.13035
1.13152
1.13265
1.13375
1.13506
1.13606
1.13702
1.13795
1.13882
1.13963
1.14037
1.14108
1.14163
1.14212
1.14251
1.1428
1.14298
1.14303
1.14315
1.14288
1.14262
1.14223
1.14171
1.14108
1.14034
1.13948
1.1385
1.13742
1.13623
1.13492
1.13352
1.132
1.13038
1.12868
1.12679
1.12485
1.12279
1.12063
1.11835
1.11595
1.11343
1.1108
1.10804
1.10517
1.10217
1.09906
1.09582
1.09247
1.089
1.0854
1.08169
1.07786
1.0739
1.06983
1.06563
1.06131
1.05687
1.0523
1.04761
1.04279
1.03785
1.03279
1.0276
1.02228
1.01684
1.01127
1.00557
0.999748
0.993799
0.987723
0.981522
0.975194
0.96874
0.96216
0.955454
0.948623
0.941666
0.934584
0.927377
0.920045
0.912588
0.905006
0.897301
0.889471
0.881518
0.873441
0.865241
0.856918
0.848473
0.839905
0.831215
0.822403
0.81347
0.804416
0.795242
0.785947
0.776533
0.766999
0.757347
0.747576
0.737688
0.727683
0.717561
0.707325
0.696973
0.686508
0.675931
0.665241
0.654441
0.643532
0.632515
0.621391
0.610162
0.598829
0.587395
0.57586
0.564228
0.5525
0.540678
0.528764
0.516762
0.504673
0.492501
0.480248
0.467918
0.455513
0.443038
0.430495
0.417889
0.405224
0.392503
0.37973
0.366912
0.354051
0.341153
0.328224
0.315268
0.302291
0.289299
0.276299
0.263298
0.250301
0.237317
0.224354