/*--------------------------------*- C++ -*----------------------------------*\
| =========                 |                                                 |
| \\      /  F ield         | OpenFOAM: The Open Source CFD Toolbox           |
|  \\    /   O peration     | Version:  2.4.0                                 |
|   \\  /    A nd           | Web:      www.OpenFOAM.org                      |
|    \\/     M anipulation  |                                                 |
\*---------------------------------------------------------------------------*/
FoamFile
{
    version     2.0;
    format      ascii;
    class       volScalarField;
    location    "4";
    object      p_rgh;
}
// * * * * * * * * * * * * * * * * * * * * * * * * * * * * * * * * * * * * * //

dimensions      [1 -1 -2 0 0 0 0];

internalField   nonuniform List<scalar> 
8000
(
0.966744
0.964535
0.962494
0.960359
0.95812
0.96019
0.979003
1.01139
0.939437
0.438161
-0.366399
0.312444
0.334469
0.335362
0.336294
0.342236
0.337209
0.342059
0.348117
0.341258
0.343706
0.340736
0.344283
0.338265
0.338757
0.33861
0.338276
0.337156
0.335991
0.335129
0.33227
0.330717
0.328938
0.326979
0.324935
0.322896
0.320363
0.317998
0.315525
0.31296
0.310303
0.307578
0.304854
0.301758
0.298798
0.295763
0.292671
0.289532
0.286356
0.283156
2.56903
2.56532
2.56131
2.55731
2.55354
2.55568
2.57967
2.62155
2.53157
1.89871
0.870888
0.544651
0.598719
0.603367
0.604125
0.604815
0.592313
0.596583
0.585764
0.584413
0.580877
0.572468
0.570299
0.559062
0.554289
0.548657
0.542265
0.535625
0.530638
0.521066
0.514667
0.507963
0.501176
0.494337
0.487515
0.481768
0.473571
0.467324
0.461153
0.455168
0.449373
0.443765
0.439102
0.433243
0.428471
0.423928
0.41963
0.415598
0.411829
0.408323
4.22312
4.21834
4.21357
4.20868
4.20388
4.20903
4.25143
4.32377
4.16625
3.06606
1.30261
0.975271
0.991913
0.991752
0.992191
0.991035
0.97914
0.983161
0.967585
0.965729
0.960261
0.958383
0.95179
0.946204
0.939633
0.931982
0.923611
0.917756
0.908135
0.89959
0.890615
0.881275
0.871824
0.862242
0.852588
0.845047
0.832277
0.823391
0.814549
0.80593
0.797565
0.789444
0.781866
0.775017
0.766479
0.759754
0.753332
0.74726
0.74154
0.736173
5.57814
5.57314
5.56783
5.56226
5.55667
5.56006
5.59734
5.66192
5.51728
4.51661
2.90552
1.11282
1.12496
1.1253
1.1251
1.12322
1.11234
1.1147
1.1005
1.09758
1.0908
1.08787
1.07951
1.07336
1.06609
1.05749
1.04837
1.04103
1.03075
1.02174
1.0123
1.00261
0.99289
0.983122
0.973341
0.966212
0.95395
0.945517
0.93732
0.929434
0.921962
0.914883
0.908241
0.902914
0.89556
0.890416
0.885694
0.881402
0.877538
0.874094
6.80358
6.80048
6.79664
6.79189
6.78622
6.78312
6.79268
6.81383
6.75619
6.36146
5.68137
1.25839
1.13449
1.13406
1.13318
1.13057
1.11972
1.12064
1.10608
1.10211
1.09449
1.09069
1.08172
1.07488
1.06728
1.05862
1.04989
1.04339
1.03491
1.0272
1.01963
1.01234
1.00545
0.99903
0.993023
0.987607
0.986039
0.975253
0.97235
0.970044
0.968241
0.967065
0.966545
0.966653
0.967353
0.968503
0.970028
0.972003
0.974339
0.977005
8.02252
8.025
8.02642
8.02587
8.02316
8.0189
8.01628
8.02063
8.02077
7.93267
7.63571
1.82415
1.03332
1.0347
1.03326
1.03011
1.01836
1.01878
1.00126
0.995711
0.988299
0.98054
0.974546
0.960055
0.95221
0.943799
0.935553
0.927786
0.92238
0.915878
0.911038
0.907147
0.904604
0.903038
0.902242
0.902887
0.90501
0.908429
0.909431
0.915439
0.922446
0.930295
0.93892
0.948215
0.958358
0.969088
0.980807
0.992273
1.00399
1.01587
9.64929
9.65617
9.66326
9.669
9.67293
9.67569
9.68359
9.71072
9.74558
9.62533
9.00997
3.63796
1.07621
1.07873
1.07745
1.07643
1.06689
1.06938
1.05867
1.05305
1.04771
1.03895
1.03518
1.02317
1.0157
1.00818
0.99969
0.994129
0.989163
0.985208
0.982629
0.981495
0.980861
0.982449
0.986531
0.990505
0.996115
1.00317
1.01167
1.02288
1.03461
1.04543
1.05852
1.07232
1.08719
1.10236
1.11788
1.13374
1.14974
1.16574
11.4843
11.4913
11.4996
11.5078
11.5148
11.5213
11.5361
11.5819
11.6511
11.5135
10.6011
6.71675
1.37904
1.37699
1.37856
1.38288
1.38338
1.38516
1.3943
1.38821
1.38455
1.38152
1.37681
1.37515
1.37878
1.36283
1.35716
1.35345
1.35093
1.34916
1.34826
1.34836
1.34963
1.37123
1.35816
1.36188
1.36802
1.37542
1.38253
1.3901
1.40252
1.40918
1.39988
1.41353
1.42649
1.43927
1.45102
1.4634
1.47559
1.48701
13.0597
13.0651
13.071
13.0763
13.0811
13.0854
13.0897
13.0951
13.1071
13.1055
13.081
12.9904
2.30004
1.79898
1.80235
1.80066
1.8033
1.80313
1.8149
1.81291
1.81338
1.81418
1.80935
1.81384
1.86663
1.82642
1.81367
1.8058
1.80222
1.79932
1.79616
1.79378
1.79327
1.82727
1.81602
1.80548
1.80597
1.81021
1.81187
1.81359
1.81516
1.83021
1.82788
1.83533
1.84263
1.84817
1.85039
1.85483
1.85891
1.86237
14.8116
14.8117
14.8117
14.8116
14.811
14.8098
14.8081
14.8107
14.832
14.8459
14.7507
14.2983
6.1022
2.07572
2.07229
2.07059
2.07664
2.07323
2.07082
2.07381
2.06813
2.07084
2.07537
2.08824
2.08843
2.07635
2.06986
2.06545
2.06379
2.06237
2.05921
2.05798
2.05809
2.06275
2.06357
2.06432
2.06606
2.06877
2.06247
2.0648
2.07793
2.08248
2.08778
2.09419
2.09937
2.10338
2.10519
2.10712
2.10957
2.11089
16.6797
16.6695
16.659
16.65
16.6422
16.6346
16.6279
16.629
16.6579
16.6809
16.5429
15.8598
9.76034
2.26733
2.25928
2.26183
2.26758
2.2605
2.26245
2.26248
2.2626
2.26369
2.28051
2.28111
2.27767
2.27627
2.27851
2.27596
2.27683
2.2853
2.27843
2.27837
2.27752
2.26582
2.26733
2.26803
2.27621
2.26714
2.26947
2.26175
2.2657
2.26971
2.27238
2.27461
2.27754
2.27956
2.28106
2.28324
2.28217
2.28254
18.2976
18.2743
18.2493
18.2267
18.2062
18.1866
18.1684
18.1593
18.1796
18.1935
18.0264
17.2704
12.4612
2.51616
2.49819
2.50228
2.50372
2.50753
2.50986
2.51842
2.51464
2.53575
2.54019
2.52351
2.55541
2.54522
2.5422
2.54165
2.52258
2.54527
2.52044
2.53964
2.49716
2.49963
2.49079
2.49059
2.4827
2.48216
2.48048
2.47875
2.47701
2.47487
2.47298
2.47143
2.469
2.46701
2.46486
2.46252
2.45998
2.45711
19.6731
19.6297
19.5837
19.5432
19.508
19.4765
19.4507
19.441
19.4594
19.438
19.1344
18.3349
10.8084
2.76587
2.76036
2.75601
2.76334
2.75067
2.77709
2.77134
2.77308
2.77925
2.77549
2.77547
2.77212
2.76505
2.78195
2.74058
2.74134
2.73647
2.73246
2.72272
2.71753
2.71245
2.70465
2.70176
2.69273
2.68769
2.68258
2.67745
2.67234
2.66722
2.66325
2.65863
2.65313
2.6482
2.64321
2.63817
2.63306
2.62794
20.8019
20.7363
20.6694
20.6124
20.5626
20.5187
20.499
20.5557
20.6779
20.3772
18.3325
14.944
5.01877
2.95735
2.96682
2.95205
2.96306
2.97999
2.98227
2.97956
2.97648
2.97055
2.96334
2.95697
2.94898
2.94847
2.9332
2.92639
2.91955
2.91259
2.90565
2.89873
2.89155
2.88452
2.8819
2.86786
2.86165
2.85534
2.84907
2.8429
2.83682
2.83085
2.82483
2.81909
2.81314
2.80729
2.80145
2.79559
2.7897
2.78375
19.9173
19.8434
19.7662
19.7
19.6443
19.6005
19.5805
19.5963
19.5521
19.1347
18.1656
10.5844
3.07819
3.08836
3.08482
3.07925
3.07723
3.08694
3.08771
3.08727
3.08342
3.078
3.07211
3.06599
3.05972
3.05335
3.04729
3.04072
3.03453
3.02836
3.02225
3.01603
3.00974
3.00869
3.00174
2.99598
2.99037
2.98473
2.97873
2.97311
2.96734
2.96179
2.95627
2.95075
2.94526
2.93975
2.9342
2.92863
2.92301
2.91734
18.1181
18.1218
18.1223
18.1102
18.0843
18.057
18.0615
18.0818
17.786
16.3459
14.2636
2.26291
3.21826
3.2134
3.21566
3.13278
3.13445
3.13407
3.13123
3.13126
3.12904
3.12657
3.12402
3.12123
3.11822
3.11499
3.11151
3.10782
3.10409
3.10038
3.0969
3.09294
3.08893
3.08823
3.08365
3.0799
3.07622
3.07233
3.06836
3.06436
3.06032
3.05624
3.05213
3.04799
3.04381
3.03959
3.03551
3.03094
3.02657
3.02213
13.7473
13.8996
14.0381
14.1353
14.1943
14.2188
14.2142
14.2011
14.2064
14.129
13.4325
11.396
0.253643
-2.67301
0.0737137
3.00086
3.11945
3.17478
3.18006
3.16834
3.16988
3.16897
3.166
3.16386
3.16153
3.15936
3.15726
3.15536
3.15358
3.15201
3.15038
3.14839
3.14597
3.14628
3.14576
3.14004
3.13822
3.13613
3.13396
3.13166
3.12939
3.12703
3.12459
3.12211
3.11956
3.11692
3.11423
3.11192
3.10822
3.10538
23.1628
23.2576
23.3671
23.4709
23.5677
23.6596
23.7467
23.829
23.9118
24.0153
24.1502
24.1918
23.6773
22.1075
20.4203
5.06973
-6.0376
4.04697
1.82285
2.90872
3.10688
3.16459
3.16372
3.18637
3.19292
3.19019
3.18878
3.19208
3.19233
3.19113
3.18856
3.18932
3.18627
3.18461
3.18466
3.18529
3.186
3.18616
3.19056
3.19006
3.1894
3.18904
3.18821
3.18727
3.18622
3.18504
3.18371
3.18262
3.18194
3.17882
28.006
28.0464
28.0966
28.1521
28.213
28.2803
28.354
28.4345
28.5219
28.618
28.7266
28.8473
28.9523
28.9758
28.9829
28.6234
27.8445
27.3291
28.1117
14.3219
-0.264667
1.46894
1.93517
3.58169
3.2491
3.34674
3.35143
3.40811
3.27439
3.20434
3.22811
3.23254
3.23131
3.22588
3.22588
3.2281
3.22999
3.23024
3.22731
3.22529
3.24524
3.22031
3.22693
3.22667
3.22311
3.22074
3.22021
3.22084
3.22328
3.22501
31.4397
31.4697
31.4993
31.527
31.5541
31.5815
31.6095
31.6378
31.6667
31.696
31.726
31.7568
31.7886
31.8226
31.8633
31.9203
31.9822
32.0171
32.0579
31.8166
31.0987
30.2741
30.6723
17.7596
4.25909
-0.537734
3.04842
4.49303
3.88723
3.7231
3.64802
3.6591
3.69971
3.18031
3.29609
3.34068
3.33588
3.30467
3.32759
3.32276
3.24008
3.38153
3.38615
3.29575
3.31717
3.31714
3.31443
3.3145
3.31553
3.31653
0.279944
0.276736
0.273546
0.27039
0.267283
0.264242
0.261283
0.258421
0.255674
0.253056
0.250585
0.248276
0.246147
0.244213
0.242493
0.241003
0.23976
0.238782
0.238087
0.237692
0.237614
0.237873
0.238485
0.239469
0.240843
0.242623
0.244827
0.247472
0.250573
0.254147
0.258207
0.262763
0.267824
0.2734
0.279545
0.285977
0.293063
0.300618
0.308611
0.317001
0.325733
0.33474
0.343939
0.353237
0.362552
0.371834
0.380901
0.389557
0.397548
0.405371
0.405079
0.402093
0.399363
0.396883
0.394649
0.392656
0.390896
0.389363
0.388049
0.386948
0.38605
0.385347
0.38483
0.384489
0.384315
0.384297
0.384425
0.384687
0.385074
0.385574
0.386174
0.386865
0.387633
0.388468
0.389356
0.390286
0.391245
0.39222
0.3932
0.394171
0.39512
0.396036
0.396904
0.397711
0.398446
0.399144
0.399713
0.400184
0.400558
0.400834
0.401016
0.401113
0.401145
0.401136
0.401106
0.401087
0.401107
0.401318
0.401795
0.40211
0.731157
0.72649
0.722169
0.718189
0.714547
0.711237
0.708256
0.705596
0.703254
0.701224
0.699501
0.698078
0.696951
0.696114
0.695562
0.695288
0.695287
0.695554
0.696084
0.69687
0.697907
0.699189
0.700712
0.70247
0.704457
0.706668
0.709097
0.71174
0.714589
0.717641
0.720889
0.724326
0.727949
0.731749
0.735722
0.739862
0.744215
0.748594
0.753197
0.757942
0.762823
0.76783
0.772961
0.778204
0.783555
0.789009
0.794549
0.800119
0.80568
0.811412
0.871055
0.868406
0.866131
0.864212
0.862636
0.861385
0.860444
0.859798
0.85943
0.859327
0.859473
0.859854
0.860458
0.861269
0.862276
0.863467
0.864828
0.866348
0.868018
0.869825
0.871759
0.873812
0.875974
0.878235
0.880588
0.883024
0.885537
0.888118
0.890762
0.893462
0.896211
0.899005
0.901839
0.904707
0.907606
0.910531
0.913477
0.916442
0.91943
0.922428
0.925418
0.928437
0.931465
0.9345
0.93754
0.940573
0.943601
0.946665
0.949807
0.952876
0.979949
0.983142
0.986557
0.990164
0.993936
0.997847
1.00188
1.00601
1.01023
1.01452
1.01887
1.02327
1.02771
1.03217
1.03666
1.04116
1.04567
1.05017
1.05467
1.05916
1.06363
1.06808
1.07251
1.0769
1.08127
1.08561
1.08991
1.09418
1.09841
1.10261
1.10676
1.11089
1.11497
1.11902
1.12304
1.12702
1.13096
1.13488
1.13876
1.14261
1.14645
1.15023
1.15399
1.15774
1.16145
1.16514
1.1688
1.17244
1.17608
1.17972
1.02773
1.03948
1.05108
1.0625
1.07373
1.08472
1.09544
1.10588
1.11601
1.12583
1.13532
1.1445
1.15336
1.1619
1.17013
1.17805
1.18567
1.19299
1.20002
1.20677
1.21325
1.21945
1.22539
1.23107
1.23651
1.2417
1.24666
1.2514
1.25591
1.26022
1.26433
1.26824
1.27196
1.27551
1.27889
1.2821
1.28516
1.28807
1.29084
1.29348
1.296
1.29839
1.30067
1.30285
1.30493
1.3069
1.30878
1.31059
1.31241
1.31412
1.18165
1.19725
1.21233
1.22689
1.24091
1.25447
1.26752
1.28006
1.29204
1.30348
1.31435
1.32466
1.33441
1.34363
1.35232
1.36051
1.36821
1.37544
1.38221
1.38855
1.39446
1.39997
1.4051
1.40985
1.41425
1.41831
1.42205
1.42547
1.42861
1.43146
1.43405
1.43639
1.43849
1.44036
1.44203
1.44349
1.44477
1.44588
1.44682
1.44761
1.44826
1.44878
1.44918
1.44948
1.44967
1.44976
1.44976
1.44971
1.44966
1.44954
1.49967
1.51036
1.51949
1.5294
1.53838
1.54663
1.55439
1.56164
1.56828
1.57433
1.57983
1.58478
1.58923
1.59318
1.59666
1.5997
1.6023
1.6045
1.6063
1.60774
1.60883
1.60958
1.61001
1.61013
1.60998
1.60954
1.60885
1.60792
1.60675
1.60536
1.60377
1.60198
1.60002
1.59788
1.59558
1.59314
1.59056
1.58785
1.58502
1.58209
1.57906
1.57594
1.57274
1.56948
1.56615
1.56276
1.55931
1.55585
1.55242
1.54894
1.8649
1.87003
1.87102
1.87291
1.87472
1.87502
1.87362
1.87308
1.87205
1.87053
1.86857
1.8662
1.8635
1.86047
1.85713
1.85352
1.84964
1.84551
1.84116
1.83658
1.8318
1.82683
1.82168
1.81636
1.81087
1.80524
1.79947
1.79357
1.78754
1.7814
1.77515
1.76881
1.76237
1.75585
1.74926
1.7426
1.73588
1.7291
1.72228
1.71541
1.70852
1.7016
1.69465
1.6877
1.68074
1.67377
1.6668
1.65986
1.65298
1.64611
2.11156
2.11456
2.11085
2.11124
2.1096
2.10821
2.10387
2.10056
2.09662
2.09213
2.08716
2.08175
2.07595
2.06979
2.0633
2.05651
2.04944
2.04211
2.03454
2.02674
2.01873
2.01053
2.00215
1.99359
1.98488
1.97601
1.96701
1.95788
1.94862
1.93925
1.92978
1.92021
1.91055
1.9008
1.89099
1.8811
1.87115
1.86115
1.8511
1.84101
1.83088
1.82073
1.81056
1.80037
1.79017
1.77996
1.76976
1.75958
1.74943
1.7393
2.28173
2.28115
2.28021
2.27834
2.27623
2.27292
2.26948
2.26547
2.26094
2.25593
2.25046
2.24457
2.23826
2.23158
2.22453
2.21714
2.20942
2.20139
2.19306
2.18445
2.17557
2.16644
2.15706
2.14744
2.13761
2.12756
2.11731
2.10686
2.09624
2.08544
2.07447
2.06335
2.05208
2.04067
2.02914
2.01748
2.0057
1.99382
1.98184
1.96977
1.95762
1.94539
1.9331
1.92074
1.90834
1.89589
1.88341
1.87089
1.85836
1.84583
2.45403
2.4508
2.44684
2.44286
2.43853
2.43388
2.42889
2.42357
2.41793
2.41196
2.40567
2.39906
2.39213
2.38489
2.37735
2.36951
2.36137
2.35295
2.34424
2.33525
2.32598
2.31645
2.30666
2.29662
2.28633
2.27579
2.26502
2.25402
2.2428
2.23137
2.21972
2.20787
2.19583
2.1836
2.17119
2.15861
2.14586
2.13295
2.11989
2.10669
2.09336
2.07989
2.06631
2.05262
2.03882
2.02493
2.01095
1.99688
1.98274
1.96856
2.62264
2.61725
2.61173
2.60606
2.60022
2.59421
2.58801
2.58162
2.57502
2.56821
2.56118
2.55393
2.54644
2.53872
2.53077
2.52257
2.51413
2.50545
2.49652
2.48734
2.47793
2.46826
2.45835
2.4482
2.43781
2.42718
2.41631
2.40521
2.39388
2.38232
2.37054
2.35853
2.34632
2.33389
2.32125
2.30842
2.29539
2.28216
2.26876
2.25518
2.24143
2.22751
2.21343
2.1992
2.18483
2.17033
2.1557
2.14093
2.12604
2.11108
2.77774
2.77166
2.76548
2.75921
2.75282
2.74631
2.73967
2.73289
2.72596
2.71887
2.71162
2.70419
2.69659
2.6888
2.68082
2.67264
2.66427
2.65568
2.64689
2.63789
2.62867
2.61924
2.60958
2.59971
2.58961
2.57928
2.56874
2.55797
2.54697
2.53575
2.52431
2.51265
2.50076
2.48866
2.47635
2.46382
2.45109
2.43815
2.42501
2.41167
2.39814
2.38442
2.37052
2.35645
2.3422
2.32779
2.31323
2.29849
2.28359
2.26859
2.91161
2.90581
2.89993
2.89397
2.8879
2.88174
2.87546
2.86907
2.86255
2.8559
2.84911
2.84218
2.8351
2.82786
2.82045
2.81288
2.80513
2.7972
2.78909
2.78078
2.77228
2.76359
2.75469
2.74559
2.73629
2.72677
2.71704
2.70709
2.69693
2.68656
2.67597
2.66515
2.65413
2.64288
2.63142
2.61974
2.60784
2.59574
2.58343
2.5709
2.55818
2.54525
2.53212
2.5188
2.5053
2.49161
2.47774
2.46369
2.44943
2.43506
3.01762
3.01302
3.00834
3.00357
2.9987
2.99372
2.98864
2.98344
2.97811
2.97266
2.96707
2.96134
2.95547
2.94944
2.94326
2.93691
2.9304
2.92371
2.91684
2.90979
2.90256
2.89513
2.8875
2.87968
2.87165
2.86342
2.85497
2.84632
2.83745
2.82836
2.81906
2.80954
2.7998
2.78984
2.77966
2.76926
2.75864
2.7478
2.73674
2.72546
2.71398
2.70228
2.69036
2.67825
2.66593
2.65341
2.6407
2.62778
2.61464
2.60136
3.10245
3.09943
3.09633
3.09314
3.08985
3.08646
3.08295
3.07932
3.07557
3.07168
3.06766
3.06349
3.05917
3.0547
3.05007
3.04527
3.0403
3.03515
3.02982
3.02431
3.0186
3.0127
3.0066
3.00029
2.99378
2.98706
2.98013
2.97299
2.96562
2.95804
2.95024
2.94221
2.93396
2.92549
2.91679
2.90786
2.89871
2.88934
2.87974
2.86992
2.85987
2.84961
2.83913
2.82843
2.81751
2.8064
2.79507
2.78352
2.77174
2.7598
3.17739
3.17584
3.1742
3.17248
3.17065
3.16872
3.16667
3.16451
3.16221
3.15979
3.15723
3.15452
3.15165
3.14863
3.14544
3.14208
3.13854
3.13483
3.13092
3.12682
3.12252
3.11803
3.11333
3.10842
3.10331
3.09798
3.09243
3.08666
3.08068
3.07447
3.06804
3.06138
3.0545
3.04739
3.04006
3.03249
3.0247
3.01668
3.00843
2.99996
2.99127
2.98235
2.9732
2.96384
2.95426
2.94447
2.93448
2.92425
2.91378
2.90314
3.22665
3.22808
3.22918
3.22995
3.23046
3.23078
3.23093
3.23088
3.23063
3.23018
3.22952
3.22865
3.22757
3.22628
3.22476
3.22302
3.22105
3.21886
3.21643
3.21377
3.21088
3.20776
3.2044
3.2008
3.19696
3.19289
3.18858
3.18403
3.17924
3.17421
3.16894
3.16344
3.15769
3.15171
3.1455
3.13904
3.13236
3.12544
3.11829
3.11091
3.10331
3.09548
3.08743
3.07915
3.07066
3.06196
3.05305
3.04392
3.03454
3.025
3.3196
3.32067
3.32148
3.32191
3.32152
3.32108
3.32075
3.32054
3.32014
3.31952
3.31867
3.31762
3.31637
3.31493
3.31328
3.31142
3.30935
3.30707
3.30457
3.30185
3.29892
3.29578
3.29241
3.28883
3.28503
3.28101
3.27677
3.27232
3.26764
3.26275
3.25763
3.2523
3.24675
3.24099
3.23501
3.22882
3.22241
3.21579
3.20897
3.20193
3.19469
3.18725
3.17961
3.17176
3.16372
3.1555
3.14708
3.13846
3.12963
3.12065
0.412309
0.416964
0.42135
0.425487
0.429375
0.433012
0.436393
0.439518
0.442386
0.444997
0.447363
0.449496
0.451318
0.452962
0.45438
0.455586
0.456592
0.45741
0.458053
0.458529
0.458876
0.459119
0.4591
0.459073
0.458938
0.458711
0.458403
0.458021
0.457573
0.457065
0.456503
0.455893
0.455237
0.454539
0.453803
0.45303
0.452222
0.451379
0.450503
0.449593
0.448649
0.44767
0.446655
0.445604
0.444516
0.44339
0.442226
0.441022
0.439779
0.438496
0.437173
0.43581
0.434408
0.432965
0.431483
0.429961
0.4284
0.4268
0.425161
0.423484
0.421768
0.420015
0.418224
0.416396
0.414531
0.41263
0.410693
0.40872
0.406712
0.404668
0.40259
0.400478
0.398331
0.396151
0.393937
0.39169
0.38941
0.387097
0.384752
0.382373
0.379962
0.377517
0.375039
0.372527
0.369982
0.367402
0.364788
0.362139
0.359455
0.356737
0.353983
0.351194
0.34837
0.345511
0.342617
0.339688
0.336724
0.333726
0.330694
0.327628
0.324528
0.321397
0.318233
0.315039
0.311815
0.308562
0.305282
0.301975
0.298643
0.295287
0.291908
0.288508
0.285087
0.281647
0.278188
0.274712
0.271221
0.267714
0.264194
0.260662
0.257119
0.253566
0.250005
0.246437
0.242864
0.239286
0.235705
0.23212
0.228533
0.224943
0.22135
0.217754
0.214154
0.210551
0.206943
0.203332
0.199716
0.196097
0.192475
0.188853
0.185231
0.181611
0.177996
0.174389
0.170791
0.167204
0.163633
0.160077
0.15654
0.153023
0.149527
0.146055
0.142606
0.139181
0.135781
0.132406
0.129055
0.12573
0.12243
0.119155
0.115907
0.112686
0.109495
0.106334
0.103206
0.100112
0.0970549
0.0940352
0.0910547
0.0881144
0.0852153
0.0823582
0.0795438
0.0767729
0.0740461
0.0713643
0.0687284
0.0661393
0.0635977
0.0611042
0.0586592
0.0562626
0.0539142
0.0516132
0.0493587
0.0471496
0.044985
0.042864
0.0407863
0.038752
0.0367618
0.0348172
0.0329201
0.0310728
0.0292779
0.0275378
0.0258549
0.0242311
0.0226679
0.021166
0.0197261
0.0183483
0.0170328
0.0157796
0.0145892
0.0134621
0.0123995
0.0114027
0.0104734
0.00961347
0.00882463
0.00810863
0.00746697
0.00690085
0.00641113
0.00599835
0.0056627
0.00540406
0.00522205
0.00511602
0.00508508
0.00512812
0.00524386
0.00543081
0.00568737
0.00601182
0.00640243
0.00685745
0.00737525
0.00795432
0.00859335
0.00929123
0.010047
0.01086
0.0117295
0.0126549
0.0136355
0.0146705
0.0157588
0.0168994
0.0180905
0.0193305
0.0206171
0.021948
0.0233204
0.0247313
0.0261773
0.0276549
0.02916
0.0306885
0.0322358
0.0337972
0.0353674
0.0369413
0.0385132
0.0400773
0.0416278
0.0431584
0.0446631
0.0461354
0.047569
0.0489575
0.0502947
0.0515744
0.0527904
0.053937
0.0550084
0.0559991
0.056904
0.057718
0.0584368
0.0590561
0.0595725
0.059983
0.0602852
0.0604773
0.060558
0.0605265
0.0603827
0.060127
0.0597605
0.0592851
0.0587036
0.0580194
0.0572369
0.0563613
0.0553988
0.0543555
0.0532381
0.0520541
0.050813
0.0495255
0.0481958
0.0468207
0.0454092
0.0440102
0.0426724
0.0413049
0.0396663
0.0378209
0.401693
0.401549
0.401552
0.401679
0.401923
0.402282
0.402754
0.403335
0.40402
0.404803
0.405741
0.406662
0.407716
0.40884
0.410029
0.411277
0.412577
0.413922
0.415309
0.416718
0.418123
0.419984
0.421526
0.423024
0.424562
0.426075
0.427589
0.429099
0.430602
0.432094
0.43357
0.435029
0.436467
0.437881
0.439269
0.44063
0.441961
0.44326
0.444528
0.445762
0.446961
0.448125
0.449253
0.450344
0.451397
0.452411
0.453386
0.454321
0.455215
0.456068
0.456877
0.457644
0.458367
0.459044
0.459677
0.460263
0.460801
0.461293
0.461735
0.462128
0.462472
0.462764
0.463006
0.463195
0.463332
0.463416
0.463446
0.463422
0.463343
0.463209
0.463019
0.462772
0.462469
0.462108
0.46169
0.461213
0.460679
0.460085
0.459432
0.45872
0.457948
0.457116
0.456224
0.45527
0.454256
0.453181
0.452044
0.450846
0.449586
0.448265
0.446882
0.445437
0.443931
0.442363
0.440734
0.439043
0.43729
0.435476
0.433601
0.431664
0.429665
0.427605
0.425484
0.423302
0.421058
0.418753
0.416386
0.413958
0.411469
0.408918
0.406307
0.403634
0.400899
0.398104
0.395247
0.392329
0.389349
0.386309
0.383206
0.380043
0.376818
0.373532
0.370185
0.366777
0.363309
0.35978
0.356191
0.352543
0.348836
0.345071
0.341247
0.337366
0.333427
0.329432
0.32538
0.321271
0.317107
0.312886
0.308611
0.30428
0.299896
0.295458
0.290969
0.286429
0.28184
0.277203
0.272521
0.267796
0.263029
0.258224
0.253382
0.248507
0.2436
0.238663
0.2337
0.228713
0.223703
0.218673
0.213624
0.208557
0.203474
0.198377
0.193266
0.188145
0.183014
0.177875
0.172732
0.167587
0.162442
0.1573
0.152165
0.14704
0.141928
0.136833
0.131757
0.126705
0.12168
0.116686
0.111727
0.106809
0.101936
0.0971114
0.0923418
0.0876318
0.0829862
0.0784099
0.0739078
0.0694843
0.0651438
0.0608907
0.0567292
0.0526636
0.0486981
0.0448374
0.0410859
0.0374487
0.0339309
0.0305377
0.0272743
0.0241462
0.0211586
0.0183164
0.0156245
0.0130873
0.0107092
0.00849386
0.00644504
0.00456612
0.0028603
0.00133064
-1.98924e-05
-0.00118845
-0.00217224
-0.00296857
-0.0035748
-0.0039884
-0.00420693
-0.00422811
-0.00404976
-0.0036699
-0.00308671
-0.00229858
-0.00130412
-0.000102167
0.00130816
0.00292745
0.00475594
0.0067935
0.00903954
0.011493
0.0141522
0.0170151
0.0200787
0.0233397
0.0267937
0.030436
0.0342611
0.0382627
0.0424337
0.0467667
0.0512531
0.0558839
0.0606493
0.0655389
0.0705413
0.0756447
0.0808364
0.0861033
0.0914315
0.0968063
0.102213
0.107635
0.113057
0.118463
0.123834
0.129154
0.134405
0.139568
0.144627
0.149561
0.154354
0.158986
0.163441
0.167699
0.171744
0.175559
0.179126
0.18243
0.185455
0.188187
0.190612
0.192718
0.194495
0.195934
0.197028
0.19777
0.198156
0.198184
0.197851
0.197159
0.196111
0.194711
0.192969
0.190895
0.188502
0.185808
0.182832
0.179594
0.176118
0.172427
0.16856
0.164553
0.160413
0.156116
0.151711
0.147472
0.143669
0.139746
0.134144
0.126636
0.816178
0.819455
0.822695
0.825913
0.829108
0.832278
0.835418
0.838527
0.841603
0.844641
0.847721
0.850676
0.853586
0.856453
0.859272
0.862039
0.864753
0.867409
0.870007
0.872542
0.874999
0.878284
0.880651
0.882945
0.88517
0.887294
0.889338
0.891304
0.893189
0.894991
0.89671
0.898346
0.899898
0.901365
0.90275
0.904052
0.905273
0.906412
0.907472
0.908451
0.909352
0.910175
0.910918
0.911583
0.912169
0.912673
0.913095
0.913433
0.913687
0.913855
0.913936
0.913928
0.913831
0.913643
0.913364
0.912994
0.912532
0.911978
0.911331
0.910592
0.909759
0.908832
0.907812
0.906697
0.905487
0.904182
0.902781
0.901284
0.89969
0.897999
0.896211
0.894324
0.89234
0.890257
0.888075
0.885795
0.883415
0.880935
0.878356
0.875677
0.872897
0.870017
0.867037
0.863955
0.860774
0.857491
0.854108
0.850625
0.847041
0.843356
0.839572
0.835688
0.831705
0.827622
0.823439
0.819158
0.814779
0.810301
0.805725
0.801053
0.796283
0.791416
0.786454
0.781396
0.776243
0.770996
0.765655
0.76022
0.754692
0.749072
0.743359
0.737555
0.731659
0.725673
0.719597
0.713431
0.707176
0.700833
0.694402
0.687885
0.681282
0.674593
0.66782
0.660962
0.654022
0.646998
0.639893
0.632706
0.625438
0.61809
0.610662
0.603156
0.595572
0.587912
0.580178
0.57237
0.56449
0.556541
0.548525
0.540443
0.532297
0.52409
0.515824
0.507502
0.499124
0.490694
0.482213
0.473684
0.465109
0.456491
0.447831
0.439133
0.430398
0.42163
0.412831
0.404004
0.395152
0.386278
0.377386
0.368478
0.359558
0.35063
0.341696
0.332762
0.323829
0.314902
0.305983
0.297077
0.288186
0.279314
0.270466
0.261646
0.252857
0.244106
0.235396
0.226733
0.218122
0.209568
0.201078
0.192657
0.18431
0.176045
0.167866
0.159781
0.151796
0.143917
0.136154
0.128512
0.121001
0.113627
0.106399
0.0993263
0.0924161
0.0856772
0.0791176
0.0727458
0.0665698
0.0605979
0.0548381
0.0492989
0.0439884
0.038915
0.0340873
0.0295135
0.0252021
0.0211612
0.017399
0.013923
0.0107408
0.00785947
0.00528564
0.00302569
0.00108557
-0.000529151
-0.00181328
-0.00276201
-0.00337096
-0.00363615
-0.00355411
-0.00312181
-0.00233673
-0.00119692
0.00029904
0.00215198
0.00436216
0.00692923
0.00985228
0.0131297
0.0167594
0.0207383
0.0250628
0.0297287
0.0347306
0.0400623
0.0457168
0.051686
0.0579607
0.0645309
0.0713851
0.0785109
0.0858946
0.0935212
0.101375
0.109437
0.117691
0.126114
0.134688
0.143389
0.152193
0.161076
0.170013
0.178976
0.187938
0.19687
0.205743
0.214528
0.223194
0.231711
0.240046
0.24817
0.25605
0.263656
0.270958
0.277925
0.284527
0.290737
0.296526
0.301868
0.306737
0.31111
0.314964
0.318279
0.321038
0.323225
0.324829
0.325838
0.326247
0.326049
0.325245
0.323836
0.321826
0.319224
0.316043
0.3123
0.308015
0.303216
0.297934
0.292204
0.286059
0.279543
0.272718
0.265645
0.258338
0.250753
0.24297
0.235435
0.228602
0.221585
0.211838
0.198963
0.954914
0.956317
0.957755
0.959221
0.960716
0.962242
0.963796
0.965379
0.966992
0.968634
0.970305
0.972062
0.973701
0.975455
0.977237
0.979046
0.98088
0.982736
0.984627
0.986566
0.988534
0.99048
0.992067
0.994026
0.996011
0.998001
0.999992
1.00198
1.00395
1.00589
1.00781
1.0097
1.01154
1.01332
1.01504
1.01671
1.01835
1.01972
1.02115
1.02248
1.02373
1.02489
1.026
1.02695
1.02785
1.02867
1.02939
1.03003
1.03061
1.03108
1.03143
1.03171
1.03189
1.03196
1.03193
1.0318
1.03157
1.03123
1.03079
1.03024
1.02959
1.02884
1.02798
1.02703
1.02597
1.02481
1.02354
1.02217
1.0207
1.01912
1.01744
1.01565
1.01375
1.01175
1.00964
1.00742
1.00509
1.00265
1.0001
0.99745
0.994687
0.991815
0.988834
0.985744
0.982545
0.979236
0.975818
0.97229
0.968651
0.964903
0.961043
0.957073
0.952993
0.948801
0.944497
0.940083
0.935557
0.93092
0.926171
0.92131
0.916338
0.911255
0.90606
0.900754
0.895336
0.889808
0.884168
0.878417
0.872556
0.866584
0.860501
0.854308
0.848004
0.841591
0.835067
0.828434
0.821692
0.81484
0.807879
0.800809
0.79363
0.786343
0.778948
0.771446
0.763836
0.756119
0.748296
0.740367
0.732333
0.724194
0.715952
0.707606
0.699159
0.690609
0.681959
0.67321
0.664362
0.655416
0.646374
0.637237
0.628005
0.61868
0.609265
0.599759
0.590166
0.580486
0.570723
0.560878
0.550954
0.540954
0.530879
0.520733
0.51052
0.500242
0.489902
0.479503
0.46905
0.458545
0.447992
0.437395
0.426756
0.416079
0.405369
0.394629
0.383864
0.373076
0.362271
0.351453
0.340628
0.3298
0.318975
0.308159
0.297358
0.286579
0.275827
0.265111
0.254436
0.243812
0.233245
0.222744
0.212318
0.201975
0.191726
0.181579
0.171545
0.161634
0.151857
0.142225
0.132749
0.123441
0.114312
0.105375
0.0966412
0.088123
0.079833
0.0717838
0.0639881
0.056459
0.0492093
0.0422523
0.0356009
0.0292684
0.0232677
0.0176116
0.0123128
0.00738369
0.00283636
-0.00131742
-0.00506626
-0.0083992
-0.0113057
-0.0137756
-0.0157995
-0.0173685
-0.0184745
-0.0191098
-0.0192673
-0.018941
-0.0181254
-0.016816
-0.0150088
-0.012701
-0.00989037
-0.0065761
-0.00275827
0.00156224
0.00638362
0.011703
0.0175162
0.0238178
0.030602
0.0378617
0.0455881
0.0537702
0.0623964
0.0714541
0.0809293
0.0908062
0.101067
0.111694
0.122668
0.133964
0.14556
0.15743
0.169545
0.181877
0.194395
0.207067
0.219859
0.232735
0.245658
0.258589
0.271489
0.284315
0.297027
0.309582
0.321938
0.33405
0.345873
0.357364
0.368477
0.379171
0.389401
0.399125
0.408302
0.416892
0.424855
0.432156
0.438759
0.44463
0.44974
0.454061
0.457568
0.46024
0.46206
0.463015
0.463095
0.462294
0.460612
0.458052
0.454622
0.450336
0.445211
0.439271
0.432547
0.425075
0.416899
0.408067
0.398629
0.388648
0.378211
0.367409
0.356265
0.344727
0.332906
0.321411
0.310854
0.300029
0.285502
0.266881
1.18246
1.18428
1.18608
1.18787
1.18966
1.19144
1.19321
1.19497
1.19673
1.19845
1.20017
1.20187
1.20357
1.20524
1.20689
1.20853
1.21014
1.21173
1.21333
1.21492
1.21648
1.21798
1.21928
1.22065
1.22202
1.22338
1.22473
1.22605
1.22733
1.22858
1.22981
1.231
1.23217
1.2333
1.2344
1.23571
1.23671
1.23767
1.2386
1.23947
1.24028
1.24102
1.24173
1.24228
1.24277
1.24316
1.24345
1.24363
1.24369
1.24381
1.24354
1.24327
1.24288
1.24237
1.24174
1.24099
1.24013
1.23916
1.23807
1.23688
1.23558
1.23417
1.23265
1.23103
1.22933
1.22744
1.2255
1.22345
1.22128
1.219
1.2166
1.21408
1.21145
1.20869
1.20582
1.20282
1.19971
1.19647
1.19312
1.18965
1.18605
1.18234
1.17851
1.17455
1.17048
1.16628
1.16196
1.15752
1.15295
1.14826
1.14345
1.1385
1.13344
1.12825
1.12293
1.11749
1.11192
1.10622
1.1004
1.09445
1.08837
1.08217
1.07584
1.06939
1.06281
1.0561
1.04927
1.04232
1.03523
1.02803
1.0207
1.01324
1.00566
0.997951
0.990122
0.982168
0.974092
0.965892
0.957569
0.949123
0.940555
0.931865
0.923054
0.914121
0.905067
0.895892
0.886598
0.877183
0.86765
0.857997
0.848227
0.838339
0.828333
0.818212
0.807975
0.797624
0.787159
0.776581
0.765892
0.755092
0.744182
0.733165
0.722041
0.710812
0.69948
0.688045
0.676511
0.664879
0.65315
0.641328
0.629415
0.617412
0.605324
0.593152
0.580899
0.568568
0.556164
0.543689
0.531146
0.51854
0.505874
0.493153
0.480381
0.467562
0.454702
0.441804
0.428874
0.415918
0.402941
0.38995
0.37695
0.363948
0.350952
0.337968
0.325004
0.312069
0.299172
0.286321
0.273527
0.2608
0.24815
0.23559
0.223131
0.210786
0.198568
0.186491
0.174571
0.162821
0.151258
0.139896
0.128754
0.117847
0.107193
0.0968089
0.0867124
0.0769212
0.0674533
0.0583264
0.0495587
0.0411681
0.0331724
0.0255895
0.0184371
0.0117327
0.00549357
-0.000263323
-0.00552138
-0.0102644
-0.0144771
-0.0181445
-0.0212519
-0.0237851
-0.0257319
-0.027082
-0.0278253
-0.027952
-0.0274539
-0.0263239
-0.0245563
-0.022147