/*--------------------------------*- C++ -*----------------------------------*\
| =========                 |                                                 |
| \\      /  F ield         | OpenFOAM: The Open Source CFD Toolbox           |
|  \\    /   O peration     | Version:  2.4.0                                 |
|   \\  /    A nd           | Web:      www.OpenFOAM.org                      |
|    \\/     M anipulation  |                                                 |
\*---------------------------------------------------------------------------*/
FoamFile
{
    version     2.0;
    format      ascii;
    class       surfaceScalarField;
    location    "4";
    object      phi;
}
// * * * * * * * * * * * * * * * * * * * * * * * * * * * * * * * * * * * * * //

dimensions      [0 3 -1 0 0 0 0];

internalField   nonuniform List<scalar> 
15580
(
-3.06183e-14
-1.07387e-12
-1.01649e-13
-3.04599e-12
-2.0246e-13
-4.83891e-12
-3.27549e-13
-6.449e-12
-4.72061e-13
-7.87561e-12
-6.31829e-13
-9.11559e-12
-8.04047e-13
-1.01685e-11
-9.84895e-13
-1.10283e-11
-1.16087e-12
-1.16979e-11
-1.296e-12
-1.2185e-11
-3.59562e-11
-1.25411e-11
-6.50242e-11
-1.29689e-11
-1.0444e-10
-5.91899e-11
-3.17404e-10
-1.4325e-09
-6.59066e-10
-2.87945e-09
-1.22652e-09
-4.6693e-09
-1.95438e-09
-5.8136e-09
-2.74539e-09
-6.39356e-09
-3.55946e-09
-6.72407e-09
-4.38722e-09
-6.97875e-09
-5.23929e-09
-7.17778e-09
-6.08149e-09
-7.31686e-09
-6.91466e-09
-7.4222e-09
-7.73453e-09
-7.52036e-09
-8.53975e-09
-7.61535e-09
-9.32532e-09
-7.70131e-09
-1.00908e-08
-7.78003e-09
-1.08362e-08
-7.85163e-09
-1.15612e-08
-7.91698e-09
-1.22657e-08
-7.97998e-09
-1.29485e-08
-8.0424e-09
-1.36118e-08
-8.10191e-09
-1.4257e-08
-8.15738e-09
-1.48853e-08
-8.20881e-09
-1.54981e-08
-8.2566e-09
-1.60968e-08
-8.30169e-09
-1.66812e-08
-8.3463e-09
-1.72517e-08
-8.3889e-09
-1.78093e-08
-8.42874e-09
-1.83549e-08
-8.46581e-09
-1.8889e-08
-8.5005e-09
-1.94121e-08
-8.53296e-09
-1.99246e-08
-8.56324e-09
-2.04261e-08
-8.59201e-09
-2.09166e-08
-8.61855e-09
-2.13959e-08
-8.64252e-09
-2.18639e-08
-8.66361e-09
-2.23206e-08
-8.6818e-09
-2.27656e-08
-8.697e-09
-8.70909e-09
-2.31988e-08
-3.77024e-14
-1.03617e-12
-1.47521e-13
-2.93617e-12
-3.20858e-13
-4.66557e-12
-5.46748e-13
-6.22311e-12
-8.15344e-13
-7.60702e-12
-1.11684e-12
-8.8141e-12
-1.44173e-12
-9.8436e-12
-1.77929e-12
-1.06907e-11
-2.1253e-12
-1.13519e-11
-2.4954e-12
-1.18149e-11
-4.52264e-11
-1.20939e-11
-8.32604e-11
-1.25617e-11
-9.25014e-11
-4.99488e-11
-1.53067e-10
-1.37194e-09
-3.2287e-10
-2.70964e-09
-8.02662e-10
-4.1895e-09
-1.59085e-09
-5.02541e-09
-2.53398e-09
-5.45043e-09
-3.51634e-09
-5.74172e-09
-4.51448e-09
-5.98061e-09
-5.53351e-09
-6.15875e-09
-6.55469e-09
-6.29567e-09
-7.56129e-09
-6.41561e-09
-8.53932e-09
-6.54232e-09
-9.48557e-09
-6.66911e-09
-1.04005e-08
-6.78636e-09
-1.12843e-08
-6.89624e-09
-1.21386e-08
-6.99738e-09
-1.29622e-08
-7.09337e-09
-1.37492e-08
-7.19298e-09
-1.44979e-08
-7.2937e-09
-1.52111e-08
-7.38871e-09
-1.58919e-08
-7.47652e-09
-1.65431e-08
-7.55762e-09
-1.71677e-08
-7.63208e-09
-1.77678e-08
-7.70155e-09
-1.8343e-08
-7.77114e-09
-1.88932e-08
-7.83865e-09
-1.94212e-08
-7.90076e-09
-1.99297e-08
-7.95728e-09
-2.04208e-08
-8.0094e-09
-2.08962e-08
-8.05753e-09
-2.13575e-08
-8.10197e-09
-2.18055e-08
-8.144e-09
-2.224e-08
-8.18408e-09
-2.26613e-08
-8.22123e-09
-2.30702e-08
-8.25473e-09
-2.34671e-08
-8.28483e-09
-2.38524e-08
-8.31175e-09
-8.33556e-09
-2.42259e-08
-5.7382e-14
-9.78789e-13
-2.05453e-13
-2.7881e-12
-4.25716e-13
-4.44531e-12
-7.02168e-13
-5.94666e-12
-1.01955e-12
-7.28963e-12
-1.36214e-12
-8.47151e-12
-1.71514e-12
-9.4906e-12
-2.06099e-12
-1.03449e-11
-2.37852e-12
-1.10344e-11
-2.63592e-12
-1.15575e-11
-7.86054e-11
-1.19099e-11
-1.00884e-10
-1.22241e-11
-1.0686e-10
-4.39724e-11
-4.01281e-10
-1.07752e-09
-9.09959e-10
-2.20096e-09
-1.71899e-09
-3.38047e-09
-2.70774e-09
-4.03666e-09
-3.77248e-09
-4.38569e-09
-4.87009e-09
-4.64411e-09
-5.98534e-09
-4.86535e-09
-7.10435e-09
-5.03974e-09
-8.21083e-09
-5.1892e-09
-9.29389e-09
-5.33254e-09
-1.03486e-08
-5.48765e-09
-1.13702e-08
-5.64741e-09
-1.23556e-08
-5.80104e-09
-1.3304e-08
-5.94778e-09
-1.42152e-08
-6.08617e-09
-1.50861e-08
-6.22247e-09
-1.59139e-08
-6.36523e-09
-1.6697e-08
-6.51056e-09
-1.74361e-08
-6.6496e-09
-1.81321e-08
-6.78053e-09
-1.87862e-08
-6.90355e-09
-1.94005e-08
-7.01776e-09
-1.99779e-08
-7.12411e-09
-2.05203e-08
-7.22875e-09
-2.10271e-08
-7.33187e-09
-2.14996e-08
-7.42825e-09
-2.19416e-08
-7.51528e-09
-2.23564e-08
-7.5946e-09
-2.27469e-08
-7.66707e-09
-2.31158e-08
-7.73309e-09
-2.34662e-08
-7.79359e-09
-2.37997e-08
-7.85051e-09
-2.41181e-08
-7.9029e-09
-2.44225e-08
-7.95031e-09
-2.47145e-08
-7.99279e-09
-2.49956e-08
-8.03068e-09
-8.06425e-09
-2.52669e-08
-5.38615e-14
-9.24928e-13
-2.01209e-13
-2.64075e-12
-4.27926e-13
-4.21859e-12
-7.1978e-13
-5.65481e-12
-1.06293e-12
-6.94648e-12
-1.44313e-12
-8.09131e-12
-1.8465e-12
-9.08723e-12
-2.25688e-12
-9.93449e-12
-2.65432e-12
-1.06369e-11
-3.01139e-12
-1.12004e-11
-7.12923e-11
-1.16051e-11
-1.00358e-10
-1.17676e-11
-1.24537e-10
-1.97934e-11
-4.7144e-10
-7.30616e-10
-1.12524e-09
-1.54716e-09
-2.08877e-09
-2.41694e-09
-3.2089e-09
-2.91653e-09
-4.39051e-09
-3.20408e-09
-5.59672e-09
-3.4379e-09
-6.80985e-09
-3.65222e-09
-8.01837e-09
-3.83121e-09
-9.21286e-09
-3.99472e-09
-1.03839e-08
-4.16149e-09
-1.15244e-08
-4.34715e-09
-1.26294e-08
-4.54242e-09
-1.36953e-08
-4.73517e-09
-1.47198e-08
-4.92326e-09
-1.57019e-08
-5.10406e-09
-1.66399e-08
-5.28444e-09
-1.75321e-08
-5.47311e-09
-1.83751e-08
-5.66752e-09
-1.91668e-08
-5.85788e-09
-1.99062e-08
-6.04113e-09
-2.05934e-08
-6.21635e-09
-2.12299e-08
-6.38125e-09
-2.18195e-08
-6.53455e-09
-2.23661e-08
-6.68209e-09
-2.28678e-08
-6.83024e-09
-2.3322e-08
-6.97406e-09
-2.37317e-08
-7.10555e-09
-2.4101e-08
-7.22529e-09
-2.44341e-08
-7.334e-09
-2.47349e-08
-7.43222e-09
-2.50076e-08
-7.52093e-09
-2.52563e-08
-7.60182e-09
-2.54835e-08
-7.67568e-09
-2.56917e-08
-7.74217e-09
-2.58828e-08
-7.80168e-09
-2.60592e-08
-7.85427e-09
-7.90017e-09
-2.62233e-08
-2.46017e-14
-9.00326e-13
-1.00026e-13
-2.56533e-12
-2.29505e-13
-4.08911e-12
-4.1681e-13
-5.4675e-12
-6.64971e-13
-6.69831e-12
-9.76985e-13
-7.7793e-12
-1.3552e-12
-8.70902e-12
-1.80329e-12
-9.4864e-12
-2.32764e-12
-1.01126e-11
-2.9438e-12
-1.05842e-11
-2.67621e-11
-1.08828e-11
-7.50075e-11
-1.0971e-11
-8.29495e-11
-1.18514e-11
-4.26294e-10
-3.87271e-10
-1.09561e-09
-8.77848e-10
-2.04965e-09
-1.4629e-09
-3.12531e-09
-1.84087e-09
-4.24896e-09
-2.08043e-09
-5.39494e-09
-2.29192e-09
-6.54253e-09
-2.50463e-09
-7.67605e-09
-2.69769e-09
-8.79116e-09
-2.87961e-09
-9.88865e-09
-3.06401e-09
-1.09677e-08
-3.26814e-09
-1.20193e-08
-3.49081e-09
-1.30387e-08
-3.71572e-09
-1.40195e-08
-3.94253e-09
-1.49572e-08
-4.16635e-09
-1.58545e-08
-4.38707e-09
-1.67164e-08
-4.61131e-09
-1.75421e-08
-4.84173e-09
-1.83258e-08
-5.07419e-09
-1.90628e-08
-5.30414e-09
-1.97504e-08
-5.52877e-09
-2.03872e-08
-5.74443e-09
-2.09742e-08
-5.94756e-09
-2.15191e-08
-6.13721e-09
-2.20261e-08
-6.32326e-09
-2.24912e-08
-6.50895e-09
-2.291e-08
-6.68673e-09
-2.32827e-08
-6.85261e-09
-2.36108e-08
-7.00587e-09
-2.3898e-08
-7.14501e-09
-2.41482e-08
-7.27079e-09
-2.43663e-08
-7.38368e-09
-2.45584e-08
-7.48358e-09
-2.47284e-08
-7.57215e-09
-2.48782e-08
-7.65187e-09
-2.50103e-08
-7.72215e-09
-7.78301e-09
-2.51275e-08
4.25579e-14
-9.42884e-13
1.37981e-13
-2.66075e-12
2.62515e-13
-4.21364e-12
3.97631e-13
-5.60262e-12
5.27368e-13
-6.82805e-12
6.36756e-13
-7.88869e-12
7.12758e-13
-8.78502e-12
7.40902e-13
-9.51454e-12
7.05393e-13
-1.00771e-11
5.83646e-13
-1.04625e-11
3.74864e-13
-1.06667e-11
-5.90926e-11
-1.07253e-11
-5.99774e-11
-1.09666e-11
-2.0876e-10
-2.38488e-10
-5.73535e-10
-5.13073e-10
-1.14522e-09
-8.91217e-10
-1.81065e-09
-1.17544e-09
-2.51417e-09
-1.3769e-09
-3.24181e-09
-1.56428e-09
-3.98256e-09
-1.76389e-09
-4.71651e-09
-1.96374e-09
-5.43786e-09
-2.15825e-09
-6.15203e-09
-2.34984e-09
-6.86353e-09
-2.55664e-09
-7.57051e-09
-2.78384e-09
-8.27377e-09
-3.01246e-09
-8.96865e-09
-3.24765e-09
-9.64581e-09
-3.48918e-09
-1.03006e-08
-3.73224e-09
-1.09385e-08
-3.97349e-09
-1.15664e-08
-4.21381e-09
-1.21892e-08
-4.45132e-09
-1.28009e-08
-4.69253e-09
-1.33967e-08
-4.93295e-09
-1.39706e-08
-5.17048e-09
-1.45186e-08
-5.39956e-09
-1.50388e-08
-5.617e-09
-1.55407e-08
-5.8214e-09
-1.60321e-08
-6.01749e-09
-1.65147e-08
-6.20421e-09
-1.69771e-08
-6.39016e-09
-1.74124e-08
-6.57054e-09
-1.78157e-08
-6.74173e-09
-1.8185e-08
-6.90149e-09
-1.85223e-08
-7.04638e-09
-1.88306e-08
-7.17528e-09
-1.91142e-08
-7.28854e-09
-1.93792e-08
-7.38693e-09
-1.96289e-08
-7.47241e-09
-7.54764e-09
-1.98643e-08
7.11791e-14
-1.01406e-12
2.67764e-13
-2.85734e-12
5.77687e-13
-4.52357e-12
9.92517e-13
-6.01745e-12
1.50686e-12
-7.3424e-12
2.11729e-12
-8.49912e-12
2.82355e-12
-9.49128e-12
3.62698e-12
-1.0318e-11
4.53367e-12
-1.09838e-11
5.5522e-12
-1.1481e-11
6.66417e-12
-1.18045e-11
-5.93132e-11
-1.19547e-11
-5.79899e-11
-1.22898e-11
-4.94733e-11
-2.47005e-10
1.98154e-11
-5.82362e-10
9.01486e-11
-9.6155e-10
1.57793e-10
-1.24309e-09
2.26117e-10
-1.44523e-09
2.73126e-10
-1.61129e-09
2.89047e-10
-1.77981e-09
2.90289e-10
-1.96498e-09
2.92589e-10
-2.16055e-09
2.90789e-10
-2.34804e-09
2.67775e-10
-2.53362e-09
2.09965e-10
-2.72603e-09
1.14599e-10
-2.91709e-09
-4.52934e-12
-3.12852e-09
-1.45418e-10
-3.3483e-09
-3.06529e-10
-3.57113e-09
-4.86718e-10
-3.7933e-09
-6.90971e-10
-4.00956e-09
-9.23889e-10
-4.2184e-09
-1.20069e-09
-4.41573e-09
-1.53016e-09
-4.60348e-09
-1.90122e-09
-4.79942e-09
-2.30273e-09
-4.99804e-09
-2.72362e-09
-5.19612e-09
-3.16152e-09
-5.3835e-09
-3.62262e-09
-5.55639e-09
-4.11747e-09
-5.70936e-09
-4.66101e-09
-5.84662e-09
-5.24378e-09
-5.98778e-09
-5.84495e-09
-6.14056e-09
-6.44686e-09
-6.29958e-09
-7.03792e-09
-6.45532e-09
-7.61469e-09
-6.59852e-09
-8.17888e-09
-6.72435e-09
-8.7325e-09
-6.83331e-09
-9.27461e-09
-6.9303e-09
-7.00881e-09
-9.81344e-09
5.33314e-14
-1.06739e-12
2.27961e-13
-3.03197e-12
5.29809e-13
-4.82541e-12
9.61153e-13
-6.44879e-12
1.52412e-12
-7.90536e-12
2.22254e-12
-9.19754e-12
3.05964e-12
-1.03284e-11
4.04092e-12
-1.12993e-11
5.17204e-12
-1.21149e-11
6.47616e-12
-1.27851e-11
8.02164e-12
-1.33302e-11
-6.50949e-11
-1.37765e-11
-6.33898e-11
-1.3995e-11
-1.81006e-10
-1.29389e-10
1.3983e-11
-7.7735e-10
4.29623e-10
-1.37719e-09
1.02746e-09
-1.84093e-09
1.73672e-09
-2.15449e-09
2.49701e-09
-2.37158e-09
3.27575e-09
-2.55855e-09
4.06723e-09
-2.75646e-09
4.86341e-09
-2.95673e-09
5.64044e-09
-3.12507e-09
6.35641e-09
-3.24959e-09
6.97742e-09
-3.34704e-09
7.54759e-09
-3.48727e-09
8.06411e-09
-3.64504e-09
8.5388e-09
-3.82298e-09
8.96936e-09
-4.00169e-09
9.34364e-09
-4.16758e-09
9.64924e-09
-4.31515e-09
9.87486e-09
-4.44403e-09
1.00038e-08
-4.54464e-09
1.00198e-08
-4.61954e-09
9.93768e-09
-4.71728e-09
9.76813e-09
-4.8285e-09
9.5244e-09
-4.95238e-09
9.21563e-09
-5.07474e-09
8.84191e-09
-5.18266e-09
8.39929e-09
-5.26674e-09
7.87297e-09
-5.3203e-09
7.26017e-09
-5.37498e-09
6.57077e-09
-5.45116e-09
5.81868e-09
-5.54749e-09
5.02792e-09
-5.66456e-09
4.21444e-09
-5.78504e-09
3.38667e-09
-5.89658e-09
2.5476e-09
-5.99424e-09
1.69685e-09
-6.07955e-09
-6.15399e-09
8.42025e-10
5.46969e-14
-1.12209e-12
2.05201e-13
-3.18247e-12
4.41133e-13
-5.06135e-12
7.53404e-13
-6.76106e-12
1.13094e-12
-8.2829e-12
1.56247e-12
-9.62908e-12
2.03453e-12
-1.08004e-11
2.53536e-12
-1.18001e-11
3.04875e-12
-1.26283e-11
3.54996e-12
-1.32863e-11
3.98044e-12
-1.37607e-11
4.08715e-12
-1.40395e-11
-3.04635e-11
-1.42405e-11
-1.43148e-10
-1.67049e-11
-1.25396e-10
-7.95102e-10
3.33018e-11
-1.53589e-09
4.65579e-10
-2.27321e-09
1.1023e-09
-2.7912e-09
1.90585e-09
-3.17514e-09
2.86168e-09
-3.51438e-09
3.90325e-09
-3.79802e-09
4.97097e-09
-4.02446e-09
6.0145e-09
-4.1686e-09
7.01944e-09
-4.25453e-09
7.98772e-09
-4.31532e-09
8.88649e-09
-4.38604e-09
9.72295e-09
-4.4815e-09
1.05032e-08
-4.6032e-09
1.12185e-08
-4.71703e-09
1.18475e-08
-4.79657e-09
1.2372e-08
-4.83961e-09
1.27838e-08
-4.85584e-09
1.30916e-08
-4.85244e-09
1.33018e-08
-4.8298e-09
1.34007e-08
-4.81611e-09
1.3388e-08
-4.81586e-09
1.32682e-08
-4.8325e-09
1.30489e-08
-4.85551e-09
1.27255e-08
-4.85928e-09
1.23219e-08
-4.86311e-09
1.18626e-08
-4.86095e-09
1.13397e-08
-4.85213e-09
1.07368e-08
-4.84822e-09
1.00527e-08
-4.86339e-09
9.29798e-09
-4.90986e-09
8.48774e-09
-4.97479e-09
7.63184e-09
-5.04068e-09
6.73896e-09
-5.10135e-09
5.81891e-09
-5.15951e-09
-5.21805e-09
4.88298e-09
6.06837e-15
-1.12816e-12
1.5716e-14
-3.19212e-12
2.35109e-14
-5.06914e-12
2.53191e-14
-6.76287e-12
1.70568e-14
-8.27463e-12
-5.87268e-15
-9.60615e-12
-4.81544e-14
-1.07582e-11
-1.1576e-13
-1.17325e-11
-2.15102e-13
-1.25289e-11
-3.52385e-13
-1.31491e-11
-5.22827e-13
-1.35903e-11
-1.06681e-12
-1.38578e-11
-5.76707e-11
-1.40271e-11
-5.98294e-11
-1.45462e-11
-2.56511e-10
-5.9842e-10
-3.7741e-10
-1.41499e-09
-3.00192e-10
-2.35043e-09
-1.45578e-11
-3.07684e-09
4.45679e-10
-3.63537e-09
1.02614e-09
-4.09484e-09
1.65796e-09
-4.42984e-09
2.29309e-09
-4.65958e-09
2.91967e-09
-4.79519e-09
3.54085e-09
-4.87571e-09
4.15714e-09
-4.9316e-09
4.74838e-09
-4.97728e-09
5.2895e-09
-5.02262e-09
5.74169e-09
-5.05539e-09
6.09683e-09
-5.07218e-09
6.36373e-09
-5.06348e-09
6.53637e-09
-5.01225e-09
6.634e-09
-4.95347e-09
6.66819e-09
-4.88662e-09
6.65593e-09
-4.81754e-09
6.58674e-09
-4.74692e-09
6.45568e-09
-4.6848e-09
6.25539e-09
-4.63222e-09
5.97627e-09
-4.57638e-09
5.63541e-09
-4.51842e-09
5.24649e-09
-4.4742e-09
4.82811e-09
-4.44257e-09
4.36993e-09
-4.39395e-09
3.88515e-09
-4.36344e-09
3.37933e-09
-4.35757e-09
2.83633e-09
-4.36685e-09
2.25105e-09
-4.38951e-09
1.63063e-09
-4.42027e-09
9.87519e-10
-4.45825e-09
3.31707e-10
-4.5037e-09
-4.55605e-09
-3.30291e-10
-1.01052e-13
-1.02711e-12
-3.82382e-13
-2.91079e-12
-8.24791e-13
-4.62673e-12
-1.40998e-12
-6.17768e-12
-2.11882e-12
-7.5658e-12
-2.93148e-12
-8.79349e-12
-3.82722e-12
-9.86242e-12
-4.78466e-12
-1.0775e-11
-5.78126e-12
-1.15323e-11
-6.79304e-12
-1.21373e-11
-7.79187e-12
-1.25914e-11
-1.01103e-11
-1.29002e-11
-7.08744e-11
-1.31126e-11
-7.18395e-11
-1.35811e-11
-3.69836e-10
-3.00424e-10
-4.5782e-10
-1.32701e-09
-4.35829e-10
-2.37242e-09
-2.78874e-10
-3.23379e-09
-9.56675e-11
-3.81858e-09
1.73523e-11
-4.20786e-09
7.81394e-11
-4.49063e-09
1.10095e-10
-4.69154e-09
1.31083e-10
-4.81617e-09
1.25812e-10
-4.87044e-09
8.31668e-11
-4.88896e-09
-1.2546e-12
-4.89286e-09
-1.51447e-10
-4.87243e-09
-3.84837e-10
-4.82199e-09
-6.95607e-10
-4.76141e-09
-1.07469e-09
-4.6844e-09
-1.47478e-09
-4.61216e-09
-1.88181e-09
-4.54644e-09
-2.29842e-09
-4.47001e-09
-2.74545e-09
-4.37051e-09
-3.17984e-09
-4.31253e-09
-3.61831e-09
-4.24633e-09
-4.07416e-09
-4.17636e-09
-4.51606e-09
-4.13449e-09
-4.936e-09
-4.09848e-09
-5.35566e-09
-4.05454e-09
-5.77324e-09
-4.02499e-09
-6.15499e-09
-4.0122e-09
-6.50873e-09
-4.0097e-09
-6.84971e-09
-4.0166e-09
-7.18232e-09
-4.03423e-09
-7.50909e-09
-4.06275e-09
-7.82819e-09
-4.10117e-09
-8.13713e-09
-4.14931e-09
-8.43364e-09
-4.20718e-09
-4.27132e-09
-8.71838e-09
-2.20567e-13
-8.06541e-13
-8.56299e-13
-2.27506e-12
-1.88011e-12
-3.60292e-12
-3.26416e-12
-4.79364e-12
-4.98038e-12
-5.84957e-12
-7.00056e-12
-6.77331e-12
-9.29718e-12
-7.5658e-12
-1.18438e-11
-8.22845e-12
-1.46166e-11
-8.75952e-12
-1.7591e-11
-9.16289e-12
-2.07304e-11
-9.45197e-12
-2.55591e-11
-9.66574e-12
-8.9195e-11
-9.83812e-12
-9.25838e-11
-1.01923e-11
-1.82091e-10
-2.10917e-10
-1.35023e-10
-1.37407e-09
-8.87419e-11
-2.4187e-09
-8.31535e-11
-3.23938e-09
-1.87142e-10
-3.71459e-09
-4.08707e-10
-3.98629e-09
-7.17761e-10
-4.18158e-09
-1.09304e-09
-4.31626e-09
-1.49692e-09
-4.41229e-09
-1.98678e-09
-4.38059e-09
-2.54618e-09
-4.32956e-09
-3.16756e-09
-4.27148e-09
-3.82287e-09
-4.21711e-09
-4.49986e-09
-4.14501e-09
-5.21706e-09
-4.0442e-09
-5.95732e-09
-3.94414e-09
-6.66959e-09
-3.8999e-09
-7.36368e-09
-3.85235e-09
-8.04767e-09
-3.78602e-09
-8.68743e-09
-3.73075e-09
-9.28868e-09
-3.71128e-09
-9.84257e-09
-3.69245e-09
-1.03503e-08
-3.66862e-09
-1.08267e-08
-3.65807e-09
-1.12694e-08
-3.65575e-09
-1.16607e-08
-3.66333e-09
-1.20056e-08
-3.68009e-09
-1.23127e-08
-3.70502e-09
-1.25863e-08
-3.73613e-09
-1.28301e-08
-3.77279e-09
-1.30481e-08
-3.81624e-09
-1.32427e-08
-3.86814e-09
-1.34185e-08
-3.92542e-09
-1.35813e-08
-3.98644e-09
-1.37385e-08
-4.05e-09
-4.11479e-09
-1.3895e-08
-4.15448e-13
-3.91093e-13
-1.61256e-12
-1.07794e-12
-3.52658e-12
-1.6889e-12
-6.08549e-12
-2.23472e-12
-9.21784e-12
-2.71722e-12
-1.28527e-11
-3.13843e-12
-1.69192e-11
-3.49936e-12
-2.13451e-11
-3.8025e-12
-2.60592e-11
-4.0454e-12
-3.10089e-11
-4.21325e-12
-3.61907e-11
-4.27015e-12
-5.12234e-11
-4.21939e-12
-1.08596e-10
-4.66338e-12
-1.13242e-10
-5.54664e-12
2.2274e-10
-5.46899e-10
3.63893e-10
-1.51523e-09
2.86086e-10
-2.34089e-09
-2.74092e-11
-2.92589e-09
-5.10788e-10
-3.23121e-09
-1.06725e-09
-3.42983e-09
-1.65342e-09
-3.5954e-09
-2.28747e-09
-3.68221e-09
-3.02039e-09
-3.67937e-09
-3.78148e-09
-3.6195e-09
-4.56752e-09
-3.54351e-09
-5.35299e-09
-3.486e-09
-6.14913e-09
-3.42098e-09
-6.95645e-09
-3.33769e-09
-7.74376e-09
-3.25689e-09
-8.48093e-09
-3.20697e-09
-9.19513e-09
-3.18569e-09
-9.87983e-09
-3.16765e-09
-1.0506e-08
-3.15982e-09
-1.10702e-08
-3.16659e-09
-1.16014e-08
-3.18005e-09
-1.20938e-08
-3.20008e-09
-1.25349e-08
-3.22749e-09
-1.29329e-08
-3.26008e-09
-1.32918e-08
-3.29687e-09
-1.36178e-08
-3.33727e-09
-1.39168e-08
-3.38113e-09
-1.41936e-08
-3.42827e-09
-1.44514e-08
-3.47826e-09
-1.46941e-08
-3.53015e-09
-1.49264e-08
-3.58395e-09
-1.51537e-08
-3.64081e-09
-1.53801e-08
-3.69897e-09
-1.56091e-08
-3.75746e-09
-1.58434e-08
-3.81574e-09
-3.87344e-09
-1.60847e-08
-6.78456e-13
2.87363e-13
-2.54015e-12
7.83748e-13
-5.43999e-12
1.21094e-12
-9.24868e-12
1.57397e-12
-1.38386e-11
1.87266e-12
-1.90836e-11
2.1066e-12
-2.48582e-11
2.27523e-12
-3.10397e-11
2.37901e-12
-3.75004e-11
2.41529e-12
-4.4072e-11
2.35836e-12
-5.04787e-11
2.13652e-12
-1.81573e-10
1.63419e-12
-1.98938e-10
1.391e-12
-1.83066e-10
-2.14179e-11
1.35358e-11
-7.43501e-10
-1.25855e-10
-1.37584e-09
-5.89189e-10
-1.87756e-09
-1.28148e-09
-2.2336e-09
-2.04251e-09
-2.47018e-09
-2.77752e-09
-2.69483e-09
-3.51189e-09
-2.86102e-09
-4.27503e-09
-2.91907e-09
-5.05113e-09
-2.90328e-09
-5.81458e-09
-2.85605e-09
-6.55337e-09
-2.80473e-09
-7.281e-09
-2.75837e-09
-7.99144e-09
-2.71054e-09
-8.66153e-09
-2.66759e-09
-9.27538e-09
-2.64304e-09
-9.84198e-09
-2.64037e-09
-1.03764e-08
-2.65126e-09
-1.08716e-08
-2.67251e-09
-1.13302e-08
-2.70115e-09
-1.17627e-08
-2.73417e-09
-1.21714e-08
-2.77132e-09
-1.25538e-08
-2.81762e-09
-1.29135e-08
-2.86783e-09
-1.32566e-08
-2.91701e-09
-1.359e-08
-2.96345e-09
-1.39191e-08
-3.00818e-09
-1.42472e-08
-3.05304e-09
-1.45762e-08
-3.09928e-09
-1.49069e-08
-3.14753e-09
-1.52395e-08
-3.19757e-09
-1.55739e-08
-3.2495e-09
-1.59116e-08
-3.30316e-09
-1.62523e-08
-3.35821e-09
-1.65958e-08
-3.41399e-09
-1.69417e-08
-3.4699e-09
-3.52549e-09
-1.72896e-08
-7.41117e-13
1.02848e-12
-2.8353e-12
2.87794e-12
-6.14601e-12
4.52165e-12
-1.05384e-11
5.96631e-12
-1.58883e-11
7.22256e-12
-2.20765e-11
8.2948e-12
-2.89867e-11
9.18547e-12
-3.64992e-11
9.89156e-12
-4.45041e-11
1.04201e-11
-5.29237e-11
1.0778e-11
-7.66291e-11
1.09436e-11
-1.43904e-10
1.07003e-11
-1.52581e-10
1.0068e-11
-1.45341e-10
-2.86579e-11
-4.93906e-10
-3.94936e-10
-1.23366e-09
-6.36081e-10
-2.098e-09
-1.01322e-09
-3.02641e-09
-1.30518e-09
-3.93012e-09
-1.56647e-09
-4.77002e-09
-1.85493e-09
-5.56899e-09
-2.06206e-09
-6.31502e-09
-2.17304e-09
-6.99654e-09
-2.22176e-09
-7.61565e-09
-2.23694e-09
-8.1859e-09
-2.23447e-09
-8.71792e-09
-2.22635e-09
-9.20765e-09
-2.22081e-09
-9.65363e-09
-2.22161e-09
-1.00681e-08
-2.22854e-09
-1.04657e-08
-2.24283e-09
-1.08519e-08
-2.26504e-09
-1.12307e-08
-2.29373e-09
-1.16063e-08
-2.3255e-09
-1.1982e-08
-2.35851e-09
-1.23579e-08
-2.39537e-09
-1.27355e-08
-2.44e-09
-1.31132e-08
-2.49018e-09
-1.349e-08
-2.54024e-09
-1.38658e-08
-2.58765e-09
-1.42414e-08
-2.63258e-09
-1.46189e-08
-2.67547e-09
-1.50001e-08
-2.71811e-09
-1.53857e-08
-2.76196e-09
-1.57751e-08
-2.80808e-09
-1.61679e-08
-2.85677e-09
-1.65633e-08
-2.90773e-09
-1.69611e-08
-2.96047e-09
-1.73606e-08
-3.01443e-09
-1.77617e-08
-3.06882e-09
-3.12296e-09
-1.81642e-08
4.85408e-14
9.79939e-13
2.31277e-13
2.6952e-12
4.20529e-13
4.3324e-12
4.05291e-13
5.98155e-12
-2.88131e-14
7.65667e-12
-1.10699e-12
9.37297e-12
-3.0604e-12
1.11389e-11
-6.13314e-12
1.29643e-11
-1.0548e-11
1.4835e-11
-1.65121e-11
1.6742e-11
-1.1003e-10
1.87409e-11
-1.33299e-10
2.16868e-11
-1.50735e-10
2.75034e-11
-1.34468e-10
-4.49249e-11
-6.0596e-10
7.65561e-11
-1.20092e-09
-4.11213e-11
-1.94933e-09
-2.64803e-10
-2.84066e-09
-4.13857e-10
-3.80611e-09
-6.01022e-10
-4.81026e-09
-8.50775e-10
-5.77626e-09
-1.09605e-09
-6.62366e-09
-1.32565e-09
-7.35616e-09
-1.48926e-09
-7.99671e-09
-1.59639e-09
-8.55963e-09
-1.67155e-09
-9.06079e-09
-1.72519e-09
-9.51662e-09
-1.76498e-09
-9.93949e-09
-1.79875e-09
-1.03372e-08
-1.83079e-09
-1.07198e-08
-1.86027e-09
-1.10983e-08
-1.88658e-09
-1.1476e-08
-1.91604e-09
-1.18541e-08
-1.94737e-09
-1.22347e-08
-1.97791e-09
-1.26213e-08
-2.00878e-09
-1.3017e-08
-2.04425e-09
-1.34199e-08
-2.08735e-09
-1.38262e-08
-2.13395e-09
-1.42305e-08
-2.18331e-09
-1.46281e-08
-2.235e-09
-1.50177e-08
-2.28584e-09
-1.54027e-08
-2.33312e-09
-1.57878e-08
-2.37687e-09
-1.61767e-08
-2.41921e-09
-1.65711e-08
-2.46229e-09
-1.69717e-08
-2.50715e-09
-1.73783e-08
-2.55392e-09
-1.77899e-08
-2.60277e-09
-1.82056e-08
-2.65317e-09
-2.70386e-09
-1.86247e-08
1.8851e-12
-9.05156e-13
6.54662e-12
-1.96632e-12
1.33331e-11
-2.45406e-12
2.17639e-11
-2.4493e-12
3.13754e-11
-1.95479e-12
4.17121e-11
-9.63708e-13
5.23284e-11
5.22509e-13
6.27763e-11
2.51648e-12
7.25814e-11
5.02988e-12
8.12219e-11
8.10152e-12
8.82393e-11
1.17235e-11
7.5079e-11
1.58428e-11
-1.3735e-11
2.10612e-11
-1.10642e-10
5.13851e-11
-2.37879e-11
-1.19567e-11
-9.5876e-11
3.09668e-11
-3.94489e-10
3.38096e-11
-7.43699e-10
-6.46476e-11
-1.30493e-09
-3.97903e-11
-2.05877e-09
-9.69345e-11
-2.92158e-09
-2.33242e-10
-3.81312e-09
-4.34111e-10
-4.79925e-09
-5.03124e-10
-5.71291e-09
-6.82732e-10
-6.57494e-09
-8.09527e-10
-7.36197e-09
-9.38155e-10
-8.0928e-09
-1.03415e-09
-8.77884e-09
-1.1127e-09
-9.39769e-09
-1.21194e-09
-9.93886e-09
-1.31909e-09
-1.04429e-08
-1.38253e-09
-1.09315e-08
-1.4274e-09
-1.13948e-08
-1.48411e-09
-1.18218e-08
-1.55088e-09
-1.22188e-08
-1.61177e-09
-1.26097e-08
-1.65343e-09
-1.30123e-08
-1.68473e-09
-1.34371e-08
-1.70917e-09
-1.38844e-08
-1.736e-09
-1.43412e-08
-1.77814e-09
-1.47903e-08
-1.83682e-09
-1.52199e-08
-1.90343e-09
-1.56301e-08
-1.96671e-09
-1.60268e-08
-2.02253e-09
-1.64188e-08
-2.07032e-09
-1.68115e-08
-2.11442e-09
-1.72087e-08
-2.15671e-09
-1.76122e-08
-2.19927e-09
-1.80216e-08
-2.24373e-09
-2.28946e-09
-1.8436e-08
7.61858e-13
-1.66701e-12
3.24055e-12
-4.44502e-12
7.43485e-12
-6.64835e-12
1.32526e-11
-8.26707e-12
2.06042e-11
-9.30634e-12
2.94112e-11
-9.77071e-12
3.95998e-11
-9.66611e-12
5.11087e-11
-8.99244e-12
6.38927e-11
-7.75414e-12
7.79373e-11
-5.94303e-12
9.32179e-11
-3.55721e-12
1.09629e-10
-5.68668e-13
1.23002e-10
3.11096e-12
1.24054e-10
5.02016e-12
1.03781e-10
8.10417e-12
6.65073e-11
8.99664e-12
8.72722e-11
1.2466e-11
-5.0046e-11
7.25492e-11
-8.41605e-11
-6.00119e-12
-2.85136e-10
1.04041e-10
-5.14017e-10
-4.36024e-12
-1.04297e-09
9.48407e-11
-1.48373e-09
-6.23646e-11
-2.12973e-09
-3.67329e-11
-2.83205e-09
-1.07205e-10
-3.53298e-09
-2.37225e-10
-4.2634e-09
-3.03724e-10
-5.0005e-09
-3.7561e-10
-5.78032e-09
-4.32116e-10
-6.54394e-09
-5.55474e-10
-7.26499e-09
-6.6148e-10
-7.99774e-09
-6.94656e-10
-8.73618e-09
-7.45672e-10
-9.41216e-09
-8.74896e-10
-9.96174e-09
-1.06218e-09
-1.04279e-08
-1.18727e-09
-1.087e-08
-1.24259e-09
-1.13236e-08
-1.25559e-09
-1.18287e-08
-1.23088e-09
-1.24091e-08
-1.19774e-09
-1.30315e-08
-1.21441e-09
-1.36627e-08
-1.27224e-09
-1.42594e-08
-1.37007e-09
-1.47969e-08
-1.48501e-09
-1.52817e-08
-1.58556e-09
-1.57251e-08
-1.67096e-09
-1.61383e-08
-1.74352e-09
-1.65366e-08
-1.80098e-09
-1.69343e-08
-1.84608e-09
-1.88602e-09
-1.73377e-08
2.78732e-13
-1.94575e-12
1.23969e-12
-5.40598e-12
2.9837e-12
-8.39236e-12
5.60115e-12
-1.08845e-11
9.18116e-12
-1.28863e-11
1.38152e-11
-1.44047e-11
1.95971e-11
-1.54481e-11
2.66297e-11
-1.6025e-11
3.50213e-11
-1.61457e-11
4.48965e-11
-1.58183e-11
5.6393e-11
-1.50537e-11
6.96819e-11
-1.38576e-11
8.503e-11
-1.22371e-11
1.00235e-10
-1.01847e-11
1.16046e-10
-7.70682e-12
1.29027e-10
-4.57368e-12
1.32588e-10
-6.2274e-13
1.32002e-10
2.74676e-12
1.18715e-10
7.19764e-12
1.92767e-10
1.00491e-11
1.72623e-10
1.53613e-11
2.16716e-10
5.0647e-11
1.54853e-10
-6.28666e-13
4.81204e-11
6.99997e-11
-1.31973e-10
7.28889e-11
-3.87469e-10
1.82717e-11
-6.18164e-10
-7.3029e-11
-1.00411e-09
1.03365e-11
-1.41198e-09
-2.42459e-11
-1.84346e-09
-1.23999e-10
-2.25342e-09
-2.5152e-10
-2.78852e-09
-1.5955e-10
-3.42486e-09
-1.09336e-10
-4.08195e-09
-2.17807e-10
-4.71943e-09
-4.24695e-10
-5.35884e-09
-5.47862e-10
-5.99487e-09
-6.0657e-10
-6.6058e-09
-6.44655e-10
-7.18534e-09
-6.51337e-10
-7.7936e-09
-5.89486e-10
-8.5565e-09
-4.51506e-10
-9.39954e-09
-4.29193e-10
-1.0295e-08
-4.74601e-10
-1.1196e-08
-5.83985e-10
-1.20843e-08
-6.97275e-10
-1.28296e-08
-9.25706e-10
-1.34187e-08
-1.15439e-09
-1.38897e-08
-1.32999e-09
-1.43102e-08
-1.42562e-09
-1.4743e-09
-1.47219e-08
3.4613e-13
1.20665e-12
2.54424e-12
4.39567e-12
6.80433e-12
9.81616e-12
1.34783e-11
1.78391e-11
2.29462e-11
2.88476e-11
3.55884e-11
4.32127e-11
5.17635e-11
6.12897e-11
7.18379e-11
8.36671e-11
9.71945e-11
1.1142e-10
1.27048e-10
1.41276e-10
1.48649e-10
1.48307e-10
1.35473e-10
1.77656e-10
2.33551e-10
2.10477e-10
1.35664e-10
1.30826e-10
8.6625e-11
-1.38368e-11
-2.04597e-10
-3.52819e-10
-4.54478e-10
-6.12427e-10
-9.20335e-10
-1.38196e-09
-1.93364e-09
-2.44482e-09
-2.79353e-09
-3.06513e-09
-3.30016e-09
-3.62187e-09
-4.06357e-09
-4.69254e-09
-5.24673e-09
-5.89845e-09
-6.57269e-09
-7.25098e-09
-7.8933e-09
-8.47045e-09
-2.36198e-08
-8.7179e-09
-2.40286e-08
-8.72328e-09
-2.44249e-08
-8.72508e-09
-2.48086e-08
-8.72319e-09
-2.51795e-08
-8.7175e-09
-2.55377e-08
-8.70794e-09
-2.58832e-08
-8.69445e-09
-2.62159e-08
-8.67697e-09
-2.65359e-08
-8.65548e-09
-2.68432e-08
-8.62993e-09
-2.71379e-08
-8.6003e-09
-2.742e-08
-8.56656e-09
-2.76897e-08
-8.52869e-09
-2.7947e-08
-8.48668e-09
-2.8192e-08
-8.44049e-09
-2.84249e-08
-8.39013e-09
-2.86458e-08
-8.33557e-09
-2.88549e-08
-8.27682e-09
-2.90523e-08
-8.21388e-09
-2.92382e-08
-8.14674e-09
-2.94129e-08
-8.07542e-09
-2.95765e-08
-7.99993e-09
-2.97294e-08
-7.92028e-09
-2.98717e-08
-7.83649e-09
-3.00038e-08
-7.74857e-09
-3.01259e-08
-7.65654e-09
-3.02385e-08
-7.56041e-09
-3.03418e-08
-7.46021e-09
-3.04363e-08
-7.35594e-09
-3.05226e-08
-7.24765e-09
-3.06012e-08
-7.13536e-09
-3.06729e-08
-7.01914e-09
-3.07388e-08
-6.89908e-09
-3.08001e-08
-6.77535e-09
-3.08582e-08
-6.64808e-09
-3.09151e-08
-6.51736e-09
-3.09731e-08
-6.38344e-09
-3.10352e-08
-6.24676e-09
-3.11051e-08
-6.10792e-09
-3.11871e-08
-5.96767e-09
-3.12859e-08
-5.82689e-09
-3.14068e-08
-5.68657e-09
-3.15553e-08
-5.54783e-09
-3.17372e-08
-5.41192e-09
-3.19577e-08
-5.2801e-09
-3.2222e-08
-5.15361e-09
-3.25341e-08
-5.03355e-09
-3.28973e-08
-4.92103e-09
-3.33134e-08
-4.81691e-09
-4.72355e-09
-3.37788e-08
-2.45876e-08
-8.35622e-09
-2.49372e-08
-8.37367e-09
-2.52745e-08
-8.38781e-09
-2.55992e-08
-8.39852e-09
-2.5911e-08
-8.40569e-09
-2.62097e-08
-8.40923e-09
-2.64951e-08
-8.40905e-09
-2.6767e-08
-8.40506e-09
-2.70253e-08
-8.39722e-09
-2.72697e-08
-8.38548e-09
-2.75002e-08
-8.36981e-09
-2.77166e-08
-8.3502e-09
-2.79186e-08
-8.32663e-09
-2.81062e-08
-8.29908e-09
-2.82792e-08
-8.26754e-09
-2.84373e-08
-8.23202e-09
-2.85804e-08
-8.1925e-09
-2.87082e-08
-8.14898e-09
-2.88206e-08
-8.10147e-09
-2.89174e-08
-8.04998e-09
-2.89983e-08
-7.99452e-09
-2.90631e-08
-7.93511e-09
-2.91116e-08
-7.87176e-09
-2.91436e-08
-7.80451e-09
-2.91588e-08
-7.73337e-09
-2.91569e-08
-7.65839e-09
-2.91378e-08
-7.57958e-09
-2.9101e-08
-7.49699e-09
-2.90463e-08
-7.41063e-09
-2.89734e-08
-7.32053e-09
-2.88821e-08
-7.22671e-09
-2.87721e-08
-7.12916e-09
-2.86433e-08
-7.02787e-09
-2.84958e-08
-6.92285e-09
-2.83298e-08
-6.81407e-09
-2.81456e-08
-6.70152e-09
-2.79439e-08
-6.5851e-09
-2.77261e-08
-6.46462e-09
-2.7494e-08
-6.33998e-09
-2.72505e-08
-6.21124e-09
-2.69989e-08
-6.07845e-09
-2.67437e-08
-5.94176e-09
-2.64901e-08
-5.80146e-09
-2.6244e-08
-5.65801e-09
-2.6012e-08
-5.51207e-09
-2.58012e-08
-5.36443e-09
-2.56187e-08
-5.21605e-09
-2.54718e-08
-5.06796e-09
-2.53674e-08
-4.92129e-09
-4.77573e-09
-2.53152e-08
-2.55293e-08
-8.09379e-09
-2.57835e-08
-8.11953e-09
-2.60297e-08
-8.1416e-09
-2.62681e-08
-8.16011e-09
-2.64987e-08
-8.17511e-09
-2.67213e-08
-8.18659e-09
-2.69358e-08
-8.19452e-09
-2.7142e-08
-8.19885e-09
-2.73397e-08
-8.19952e-09
-2.75287e-08
-8.19646e-09
-2.77089e-08
-8.18962e-09
-2.78802e-08
-8.17898e-09
-2.80423e-08
-8.16452e-09
-2.81951e-08
-8.14621e-09
-2.83386e-08
-8.12407e-09
-2.84725e-08
-8.09808e-09
-2.85968e-08
-8.06824e-09
-2.87112e-08
-8.03456e-09
-2.88157e-08
-7.99702e-09
-2.891e-08
-7.95565e-09
-2.89941e-08
-7.91045e-09
-2.90677e-08
-7.86143e-09
-2.91309e-08
-7.80861e-09
-2.91834e-08
-7.752e-09
-2.92252e-08
-7.69163e-09
-2.9256e-08
-7.62751e-09
-2.92759e-08
-7.5597e-09
-2.92847e-08
-7.48821e-09
-2.92822e-08
-7.41309e-09
-2.92684e-08
-7.33439e-09
-2.92429e-08
-7.25216e-09
-2.92056e-08
-7.16645e-09
-2.91562e-08
-7.07731e-09
-2.90943e-08
-6.98479e-09
-2.90194e-08
-6.88896e-09
-2.8931e-08
-6.78989e-09
-2.88284e-08
-6.68765e-09
-2.87108e-08
-6.58225e-09
-2.85771e-08
-6.47367e-09
-2.84264e-08
-6.36192e-09
-2.8258e-08
-6.24692e-09
-2.80711e-08
-6.12859e-09
-2.78657e-08
-6.00688e-09
-2.7642e-08
-5.88177e-09
-2.74008e-08
-5.75321e-09
-2.7144e-08
-5.62121e-09
-2.68743e-08
-5.48581e-09
-2.65951e-08
-5.34716e-09
-2.63109e-08
-5.20548e-09
-5.06185e-09
-2.60248e-08
-2.63774e-08
-7.93971e-09
-2.65234e-08
-7.97352e-09
-2.66628e-08
-8.00215e-09
-2.67969e-08
-8.02608e-09
-2.69263e-08
-8.04571e-09
-2.70514e-08
-8.0614e-09
-2.71726e-08
-8.07341e-09
-2.72895e-08
-8.08192e-09
-2.7402e-08
-8.08703e-09
-2.75097e-08
-8.08874e-09
-2.76123e-08
-8.08702e-09
-2.77094e-08
-8.08184e-09
-2.78008e-08
-8.07318e-09
-2.7886e-08
-8.06102e-09
-2.79647e-08
-8.04534e-09
-2.80366e-08
-8.02615e-09
-2.81014e-08
-8.00345e-09
-2.81587e-08