/*--------------------------------*- C++ -*----------------------------------*\
| =========                 |                                                 |
| \\      /  F ield         | OpenFOAM: The Open Source CFD Toolbox           |
|  \\    /   O peration     | Version:  2.4.0                                 |
|   \\  /    A nd           | Web:      www.OpenFOAM.org                      |
|    \\/     M anipulation  |                                                 |
\*---------------------------------------------------------------------------*/
FoamFile
{
    version     2.0;
    format      ascii;
    class       volVectorField;
    location    "4";
    object      U;
}
// * * * * * * * * * * * * * * * * * * * * * * * * * * * * * * * * * * * * * //

dimensions      [0 1 -1 0 0 0 0];

internalField   nonuniform List<vector> 
8000
(
(-7.40245e-08 -0.000109865 0)
(-4.70053e-07 -0.000310834 0)
(-1.14806e-06 -0.000493109 0)
(-2.09063e-06 -0.000656553 0)
(-3.29585e-06 -0.000801164 0)
(-4.66688e-06 -0.000926677 0)
(-5.33788e-06 -0.00103313 0)
(-3.67738e-06 -0.00111982 0)
(-1.61918e-06 -0.00118663 0)
(-2.10864e-05 -0.00123355 0)
(-9.8241e-05 -0.001267 0)
(-0.000214633 -0.00132679 0)
(-0.000621039 -0.00925069 0)
(-0.00161556 -0.157874 0)
(-0.0033877 -0.313044 0)
(-0.00706489 -0.512539 0)
(-0.0127093 -0.644217 0)
(-0.0190291 -0.710073 0)
(-0.0248121 -0.745437 0)
(-0.0313992 -0.77205 0)
(-0.0387796 -0.793814 0)
(-0.0454794 -0.807313 0)
(-0.0518802 -0.817021 0)
(-0.0585218 -0.825506 0)
(-0.0652285 -0.833417 0)
(-0.0714966 -0.840135 0)
(-0.0776937 -0.846088 0)
(-0.0837583 -0.851356 0)
(-0.0896609 -0.85604 0)
(-0.0953444 -0.860418 0)
(-0.100882 -0.864623 0)
(-0.106286 -0.868693 0)
(-0.111515 -0.872523 0)
(-0.116602 -0.876095 0)
(-0.121567 -0.879446 0)
(-0.126409 -0.882651 0)
(-0.131137 -0.885805 0)
(-0.13576 -0.888802 0)
(-0.14027 -0.891611 0)
(-0.14468 -0.894237 0)
(-0.148999 -0.896686 0)
(-0.153229 -0.898954 0)
(-0.157368 -0.901041 0)
(-0.161423 -0.902957 0)
(-0.165395 -0.904636 0)
(-0.169274 -0.90604 0)
(-0.173063 -0.907154 0)
(-0.176762 -0.907965 0)
(-0.180369 -0.908457 0)
(-0.183882 -0.908613 0)
(-4.94951e-08 -0.000105585 0)
(-6.25727e-07 -0.00029937 0)
(-1.74572e-06 -0.000475676 0)
(-3.39414e-06 -0.000634247 0)
(-5.5412e-06 -0.000774952 0)
(-8.02794e-06 -0.000897454 0)
(-9.71117e-06 -0.0010017 0)
(-8.46771e-06 -0.00108717 0)
(-6.71124e-06 -0.00115382 0)
(-3.21557e-05 -0.00120113 0)
(-0.000130641 -0.00123151 0)
(-0.00028214 -0.00127389 0)
(-0.000721955 -0.00321182 0)
(-0.00126701 -0.138177 0)
(-0.00139971 -0.275737 0)
(-0.00387334 -0.436782 0)
(-0.00961989 -0.532124 0)
(-0.0163338 -0.580269 0)
(-0.023635 -0.61113 0)
(-0.032026 -0.635787 0)
(-0.040406 -0.654362 0)
(-0.0485925 -0.66798 0)
(-0.0563495 -0.679202 0)
(-0.0643313 -0.690501 0)
(-0.0722697 -0.70177 0)
(-0.0795917 -0.712114 0)
(-0.0868022 -0.721752 0)
(-0.0938293 -0.730566 0)
(-0.100478 -0.738682 0)
(-0.106861 -0.746798 0)
(-0.113071 -0.754976 0)
(-0.118922 -0.762726 0)
(-0.124472 -0.769859 0)
(-0.1298 -0.776415 0)
(-0.134919 -0.782443 0)
(-0.139793 -0.788099 0)
(-0.144475 -0.793726 0)
(-0.148997 -0.799133 0)
(-0.153306 -0.804153 0)
(-0.157439 -0.80879 0)
(-0.161435 -0.813119 0)
(-0.165305 -0.817172 0)
(-0.169047 -0.820979 0)
(-0.172673 -0.824637 0)
(-0.176207 -0.828119 0)
(-0.179634 -0.831347 0)
(-0.18295 -0.834282 0)
(-0.186173 -0.836936 0)
(-0.189301 -0.839311 0)
(-0.192337 -0.841398 0)
(-1.09909e-07 -0.000101031 0)
(-9.13255e-07 -0.000286941 0)
(-2.37092e-06 -0.000456512 0)
(-4.44699e-06 -0.000609447 0)
(-7.11169e-06 -0.000745523 0)
(-1.00981e-05 -0.000864416 0)
(-1.14551e-05 -0.00096597 0)
(-7.53608e-06 -0.00104978 0)
(-2.58901e-06 -0.0011157 0)
(-4.46395e-05 -0.00116337 0)
(-0.000213081 -0.00119416 0)
(-0.000465894 -0.00123211 0)
(-0.00097636 -0.00634981 0)
(-0.00153285 -0.128555 0)
(-0.00430414 -0.256206 0)
(-0.0102829 -0.390186 0)
(-0.0179848 -0.463603 0)
(-0.0255565 -0.501525 0)
(-0.0340648 -0.528774 0)
(-0.043548 -0.551494 0)
(-0.0525449 -0.568745 0)
(-0.0614665 -0.582919 0)
(-0.0698901 -0.595916 0)
(-0.0785464 -0.609764 0)
(-0.0870338 -0.623856 0)
(-0.0949528 -0.637165 0)
(-0.102761 -0.649754 0)
(-0.110238 -0.66147 0)
(-0.117246 -0.672811 0)
(-0.124032 -0.684652 0)
(-0.130565 -0.696656 0)
(-0.136637 -0.708014 0)
(-0.142351 -0.718578 0)
(-0.147762 -0.728397 0)
(-0.152864 -0.737445 0)
(-0.157585 -0.74587 0)
(-0.162033 -0.754233 0)
(-0.166268 -0.762377 0)
(-0.170185 -0.769873 0)
(-0.173822 -0.776651 0)
(-0.177242 -0.782859 0)
(-0.180465 -0.788556 0)
(-0.183501 -0.793778 0)
(-0.186356 -0.798637 0)
(-0.189088 -0.803264 0)
(-0.191705 -0.807553 0)
(-0.19419 -0.81142 0)
(-0.196571 -0.814892 0)
(-0.198861 -0.818006 0)
(-0.201068 -0.820784 0)
(-8.99757e-08 -9.50249e-05 0)
(-8.71214e-07 -0.000271129 0)
(-2.35097e-06 -0.000433003 0)
(-4.50277e-06 -0.000580342 0)
(-7.31019e-06 -0.000712862 0)
(-1.05154e-05 -0.000830344 0)
(-1.23561e-05 -0.000932612 0)
(-9.48135e-06 -0.00101967 0)
(-5.79521e-06 -0.00109163 0)
(-4.47809e-05 -0.00114842 0)
(-0.000198499 -0.00118781 0)
(-0.000430819 -0.00121408 0)
(-0.000906202 -0.00271448 0)
(-0.00189403 -0.0897085 0)
(-0.00530295 -0.187483 0)
(-0.0127091 -0.289486 0)
(-0.0214953 -0.34667 0)
(-0.0299366 -0.37823 0)
(-0.0394839 -0.402755 0)
(-0.0498482 -0.424403 0)
(-0.0595259 -0.44188 0)
(-0.069072 -0.457447 0)
(-0.07825 -0.473046 0)
(-0.0876522 -0.490224 0)
(-0.0967547 -0.508054 0)
(-0.105374 -0.52539 0)
(-0.113825 -0.542058 0)
(-0.121838 -0.557922 0)
(-0.129397 -0.573773 0)
(-0.13674 -0.59047 0)
(-0.143766 -0.607534 0)
(-0.150288 -0.623964 0)
(-0.156387 -0.639561 0)
(-0.162108 -0.654321 0)
(-0.167437 -0.668077 0)
(-0.172301 -0.680876 0)
(-0.176794 -0.693411 0)
(-0.181021 -0.705909 0)
(-0.184872 -0.717698 0)
(-0.1883 -0.728327 0)
(-0.191405 -0.737981 0)
(-0.194213 -0.746772 0)
(-0.196745 -0.754738 0)
(-0.199021 -0.761986 0)
(-0.201093 -0.768721 0)
(-0.202999 -0.774939 0)
(-0.204739 -0.780557 0)
(-0.206329 -0.78558 0)
(-0.207794 -0.790038 0)
(-0.209151 -0.79397 0)
(-3.73132e-08 -9.01771e-05 0)
(-3.99285e-07 -0.00025735 0)
(-1.19746e-06 -0.000411047 0)
(-2.47304e-06 -0.000550957 0)
(-4.31141e-06 -0.000676777 0)
(-6.66029e-06 -0.000788289 0)
(-8.9354e-06 -0.000885305 0)
(-9.78651e-06 -0.000967864 0)
(-1.06514e-05 -0.00103612 0)
(-2.8327e-05 -0.0010899 0)
(-9.12412e-05 -0.00112631 0)
(-0.000200952 -0.00114069 0)
(-0.000562393 -0.00131032 0)
(-0.00140805 -0.0560737 0)
(-0.0049985 -0.121324 0)
(-0.0125252 -0.193224 0)
(-0.0210003 -0.236208 0)
(-0.0290654 -0.262202 0)
(-0.0381653 -0.284401 0)
(-0.0479808 -0.305594 0)
(-0.0570961 -0.323993 0)
(-0.0660051 -0.341168 0)
(-0.0745903 -0.35893 0)
(-0.0834281 -0.378821 0)
(-0.0920743 -0.400054 0)
(-0.100309 -0.421282 0)
(-0.108387 -0.442245 0)
(-0.116049 -0.462556 0)
(-0.123282 -0.482776 0)
(-0.130316 -0.503821 0)
(-0.137139 -0.52562 0)
(-0.143583 -0.547254 0)
(-0.149644 -0.56829 0)
(-0.155342 -0.588563 0)
(-0.160679 -0.607778 0)
(-0.165591 -0.625679 0)
(-0.170016 -0.64264 0)
(-0.174221 -0.659752 0)
(-0.178181 -0.676742 0)
(-0.181702 -0.692413 0)
(-0.184858 -0.706681 0)
(-0.187659 -0.719622 0)
(-0.190114 -0.731287 0)
(-0.192248 -0.741785 0)
(-0.194111 -0.751253 0)
(-0.195744 -0.759752 0)
(-0.197187 -0.767394 0)
(-0.198462 -0.77429 0)
(-0.199583 -0.780349 0)
(-0.200577 -0.785593 0)
(9.97742e-08 -9.06171e-05 0)
(6.71388e-07 -0.000256794 0)
(1.56533e-06 -0.000407844 0)
(2.64129e-06 -0.00054361 0)
(3.70066e-06 -0.000663954 0)
(4.6317e-06 -0.000768646 0)
(5.38179e-06 -0.000857593 0)
(6.4123e-06 -0.000930544 0)
(8.14205e-06 -0.00098754 0)
(7.22868e-06 -0.00102798 0)
(-5.32894e-06 -0.00105116 0)
(-7.29805e-05 -0.00105585 0)
(-0.000371047 -0.00108427 0)
(-0.000998246 -0.0260622 0)
(-0.00241438 -0.0604775 0)
(-0.00680138 -0.10617 0)
(-0.0120585 -0.138091 0)
(-0.0169903 -0.159821 0)
(-0.0227018 -0.18035 0)
(-0.0290448 -0.201812 0)
(-0.0349504 -0.221656 0)
(-0.0407982 -0.240535 0)
(-0.0462751 -0.25954 0)
(-0.051996 -0.280697 0)
(-0.0578348 -0.303948 0)
(-0.0634072 -0.327453 0)
(-0.0690294 -0.351607 0)
(-0.0745651 -0.375786 0)
(-0.0798472 -0.399552 0)
(-0.0849586 -0.423228 0)
(-0.0900343 -0.447453 0)
(-0.0950598 -0.472122 0)
(-0.099996 -0.497023 0)
(-0.104811 -0.521526 0)
(-0.109505 -0.545251 0)
(-0.114054 -0.56768 0)
(-0.118304 -0.588526 0)
(-0.122304 -0.60851 0)
(-0.126278 -0.628562 0)
(-0.130217 -0.648242 0)
(-0.134015 -0.667193 0)
(-0.13762 -0.6848 0)
(-0.140968 -0.700785 0)
(-0.144051 -0.715269 0)
(-0.146879 -0.728205 0)
(-0.149462 -0.739596 0)
(-0.151821 -0.749602 0)
(-0.153995 -0.758473 0)
(-0.156047 -0.766329 0)
(-0.15799 -0.773213 0)
(1.25024e-07 -9.76091e-05 0)
(1.16055e-06 -0.000274824 0)
(3.17324e-06 -0.000434339 0)
(6.08567e-06 -0.000576353 0)
(9.77283e-06 -0.000701076 0)
(1.41292e-05 -0.000808481 0)
(1.92851e-05 -0.000898732 0)
(2.63068e-05 -0.00097157 0)
(3.6997e-05 -0.00102714 0)
(4.68389e-05 -0.00106471 0)
(3.27098e-05 -0.00108474 0)
(-7.50231e-05 -0.00108991 0)
(-0.000342772 -0.00110754 0)
(-0.000935701 -0.0242474 0)
(-0.00012478 -0.0461183 0)
(0.000481436 -0.0771615 0)
(0.000980948 -0.101729 0)
(0.0015773 -0.120064 0)
(0.00203109 -0.137203 0)
(0.00226026 -0.156171 0)
(0.00228011 -0.176283 0)
(0.00228648 -0.196049 0)
(0.00235813 -0.2151 0)
(0.00226769 -0.235427 0)
(0.00189791 -0.25776 0)
(0.00131189 -0.279725 0)
(0.000469459 -0.302643 0)
(-0.000590754 -0.326707 0)
(-0.00178113 -0.351232 0)
(-0.00316665 -0.375635 0)
(-0.00470142 -0.399305 0)
(-0.00637608 -0.422245 0)
(-0.00839324 -0.445383 0)
(-0.0108483 -0.468798 0)
(-0.0136433 -0.492669 0)
(-0.0167278 -0.515712 0)
(-0.0200631 -0.537953 0)
(-0.023532 -0.558573 0)
(-0.027079 -0.577539 0)
(-0.0308683 -0.595234 0)
(-0.0349828 -0.613008 0)
(-0.0395174 -0.631483 0)
(-0.044345 -0.649859 0)
(-0.0491759 -0.66728 0)
(-0.0539279 -0.683232 0)
(-0.0586025 -0.697449 0)
(-0.0632058 -0.709862 0)
(-0.0676559 -0.720559 0)
(-0.072031 -0.729868 0)
(-0.0763366 -0.737761 0)
(5.53947e-08 -0.00010438 0)
(9.09033e-07 -0.000295418 0)
(2.7874e-06 -0.000469151 0)
(5.72008e-06 -0.000625909 0)
(9.64026e-06 -0.000766171 0)
(1.4456e-05 -0.000890103 0)
(2.03561e-05 -0.000998249 0)
(2.89185e-05 -0.00109061 0)
(4.31493e-05 -0.00116796 0)
(5.83643e-05 -0.0012302 0)
(3.68231e-05 -0.001278 0)
(-0.000105725 -0.00131268 0)
(-0.000364846 -0.00134534 0)
(-0.00113224 -0.0233104 0)
(-0.00149768 -0.0683223 0)
(0.00150537 -0.112819 0)
(0.00565297 -0.144093 0)
(0.0112163 -0.165941 0)
(0.016908 -0.182013 0)
(0.0227136 -0.196523 0)
(0.0292004 -0.213403 0)
(0.0358276 -0.232723 0)
(0.0422744 -0.251141 0)
(0.0481745 -0.267466 0)
(0.0532675 -0.282604 0)
(0.0580681 -0.300429 0)
(0.0625687 -0.319403 0)
(0.066516 -0.339073 0)
(0.0701074 -0.35921 0)
(0.073364 -0.379324 0)
(0.0761185 -0.39892 0)
(0.0783167 -0.417636 0)
(0.0797098 -0.433985 0)
(0.0802227 -0.447949 0)
(0.0800089 -0.463664 0)
(0.0790273 -0.480636 0)
(0.0773521 -0.498183 0)
(0.0752186 -0.515227 0)
(0.0725458 -0.530973 0)
(0.0687819 -0.54407 0)
(0.0649829 -0.553845 0)
(0.0609674 -0.563527 0)
(0.0557239 -0.575713 0)
(0.04964 -0.590076 0)
(0.0433444 -0.605333 0)
(0.0369873 -0.619831 0)
(0.0304721 -0.632801 0)
(0.0238743 -0.64408 0)
(0.0170057 -0.653984 0)
(0.0100917 -0.662141 0)
(9.79797e-08 -0.000109867 0)
(8.88009e-07 -0.000312119 0)
(2.42366e-06 -0.000497077 0)
(4.63408e-06 -0.000665 0)
(7.4164e-06 -0.00081606 0)
(1.06691e-05 -0.000950569 0)
(1.42847e-05 -0.00106865 0)
(1.82209e-05 -0.00117072 0)
(2.25501e-05 -0.00125692 0)
(2.71939e-05 -0.001328 0)
(3.07003e-05 -0.0013834 0)
(2.96408e-05 -0.0014214 0)
(1.40586e-05 -0.00144802 0)
(-0.000210485 -0.00189663 0)
(-0.00215337 -0.0803584 0)
(-0.000616745 -0.153821 0)
(0.00146404 -0.215791 0)
(0.0061574 -0.256823 0)
(0.0120447 -0.284731 0)
(0.0186316 -0.30775 0)
(0.0265249 -0.329732 0)
(0.0351604 -0.350902 0)
(0.0442665 -0.36719 0)
(0.053146 -0.377173 0)
(0.0601482 -0.383324 0)
(0.0666836 -0.391472 0)
(0.074353 -0.403302 0)
(0.0814281 -0.418901 0)
(0.087206 -0.434628 0)
(0.0923848 -0.447854 0)
(0.0969676 -0.457986 0)
(0.100847 -0.465675 0)
(0.103934 -0.470514 0)
(0.105765 -0.47231 0)
(0.106831 -0.474976 0)
(0.107374 -0.479429 0)
(0.106936 -0.486336 0)
(0.105554 -0.493969 0)
(0.103498 -0.499942 0)
(0.100153 -0.504783 0)
(0.096546 -0.507352 0)
(0.0929204 -0.508818 0)
(0.0887783 -0.51093 0)
(0.0836239 -0.514828 0)
(0.0773476 -0.5224 0)
(0.0710698 -0.532069 0)
(0.0645381 -0.541518 0)
(0.0576347 -0.549807 0)
(0.0503746 -0.557176 0)
(0.042807 -0.56403 0)
(1.96787e-08 -0.000114445 0)
(8.81362e-08 -0.000324212 0)
(1.64633e-07 -0.000515025 0)
(2.15293e-07 -0.000687043 0)
(2.01286e-07 -0.000840354 0)
(5.89145e-08 -0.000975087 0)
(-2.97444e-07 -0.00109127 0)
(-7.81106e-07 -0.00118903 0)
(-7.01578e-07 -0.00126829 0)
(1.13077e-06 -0.00132914 0)
(6.70922e-07 -0.00137118 0)
(-1.83217e-05 -0.00139486 0)
(-0.000110887 -0.00140843 0)
(-0.00034963 -0.00146834 0)
(-0.00116486 -0.0796887 0)
(-0.00268421 -0.154258 0)
(-0.00310584 -0.239036 0)
(-0.00155897 -0.302367 0)
(0.00131036 -0.352055 0)
(0.00561209 -0.397227 0)
(0.0105826 -0.431712 0)
(0.0159611 -0.455105 0)
(0.0210976 -0.46798 0)
(0.0259252 -0.4753 0)
(0.0308194 -0.48091 0)
(0.0354359 -0.487018 0)
(0.0400012 -0.494474 0)
(0.0444891 -0.503077 0)
(0.0477099 -0.510097 0)
(0.050005 -0.513241 0)
(0.0516986 -0.511428 0)
(0.0528574 -0.506974 0)
(0.0533383 -0.50125 0)
(0.05338 -0.495182 0)
(0.0530615 -0.489873 0)
(0.0523604 -0.485449 0)
(0.0510494 -0.482081 0)
(0.04911 -0.47849 0)
(0.0464683 -0.473592 0)
(0.0434442 -0.469462 0)
(0.040298 -0.4661 0)
(0.0369902 -0.462102 0)
(0.0333886 -0.459011 0)
(0.0291333 -0.458293 0)
(0.0247994 -0.459988 0)
(0.0203234 -0.463187 0)
(0.015587 -0.466804 0)
(0.0105944 -0.47056 0)
(0.0053261 -0.474756 0)
(6.27109e-06 -0.479525 0)
(-1.74581e-07 -0.000110543 0)
(-1.65151e-06 -0.000313252 0)
(-4.52676e-06 -0.000497845 0)
(-8.65902e-06 -0.000664569 0)
(-1.38743e-05 -0.000813603 0)
(-2.00476e-05 -0.000945159 0)
(-2.7087e-05 -0.00105936 0)
(-3.4626e-05 -0.00115644 0)
(-4.13379e-05 -0.00123643 0)
(-4.52729e-05 -0.00129958 0)
(-5.16439e-05 -0.00134576 0)
(-8.73975e-05 -0.00137548 0)
(-0.000212256 -0.00139515 0)
(-0.000439145 -0.00144406 0)
(-0.00134764 -0.0417062 0)
(-0.00374411 -0.131331 0)
(-0.0040203 -0.233271 0)
(-0.00283251 -0.316241 0)
(-0.00146335 -0.377568 0)
(-0.000237673 -0.42318 0)
(0.000486478 -0.456369 0)
(0.000839414 -0.478788 0)
(0.00100061 -0.493018 0)
(0.00108852 -0.501227 0)
(0.000940512 -0.5065 0)
(0.000445205 -0.510586 0)
(-0.000462173 -0.512562 0)
(-0.00204345 -0.510522 0)
(-0.00412786 -0.506647 0)
(-0.00687009 -0.50079 0)
(-0.010379 -0.493151 0)
(-0.0134828 -0.485728 0)
(-0.0165726 -0.477801 0)
(-0.0201797 -0.468687 0)
(-0.0236469 -0.460908 0)
(-0.0270349 -0.453042 0)
(-0.0309346 -0.445077 0)
(-0.0345365 -0.438444 0)
(-0.0377652 -0.432308 0)
(-0.041053 -0.426744 0)
(-0.0444356 -0.422559 0)
(-0.0477776 -0.418486 0)
(-0.050765 -0.416468 0)
(-0.0534672 -0.416013 0)
(-0.0561384 -0.416295 0)
(-0.0587615 -0.417565 0)
(-0.0613347 -0.419974 0)
(-0.0638854 -0.42367 0)
(-0.0663275 -0.428512 0)
(-0.0686333 -0.434205 0)
(-3.52767e-07 -9.48925e-05 0)
(-3.63227e-06 -0.000268916 0)
(-1.02051e-05 -0.000427505 0)
(-1.98631e-05 -0.000570972 0)
(-3.23264e-05 -0.000699569 0)
(-4.73804e-05 -0.000813568 0)
(-6.48829e-05 -0.000913179 0)
(-8.43804e-05 -0.000998675 0)
(-0.000104416 -0.0010702 0)
(-0.000122964 -0.00112802 0)
(-0.000145855 -0.00117233 0)
(-0.000203905 -0.00120403 0)
(-0.000350444 -0.00122851 0)
(-0.000576962 -0.0012719 0)
(-0.00115416 -0.0181991 0)
(-0.00181766 -0.133863 0)
(-0.000799747 -0.241142 0)
(-0.000447067 -0.329612 0)
(-0.000929614 -0.385776 0)
(-0.00222492 -0.418602 0)
(-0.00417131 -0.441246 0)
(-0.00721902 -0.458316 0)
(-0.0104695 -0.469555 0)
(-0.0134396 -0.471607 0)
(-0.0176618 -0.470127 0)
(-0.0232685 -0.466119 0)
(-0.0281648 -0.460648 0)
(-0.0330908 -0.453556 0)
(-0.0383339 -0.444968 0)
(-0.044712 -0.435187 0)
(-0.0513135 -0.428455 0)
(-0.0558788 -0.422431 0)
(-0.0610467 -0.414486 0)
(-0.0675091 -0.405299 0)
(-0.0722884 -0.40075 0)
(-0.0763546 -0.396052 0)
(-0.0806451 -0.391093 0)
(-0.0849142 -0.388104 0)
(-0.0885453 -0.385703 0)
(-0.091805 -0.383486 0)
(-0.0947341 -0.382837 0)
(-0.0973482 -0.383406 0)
(-0.0996666 -0.384778 0)
(-0.101717 -0.386979 0)
(-0.103544 -0.390251 0)
(-0.105196 -0.394719 0)
(-0.106678 -0.40011 0)
(-0.108015 -0.406204 0)
(-0.109281 -0.412928 0)
(-0.110528 -0.420001 0)
(-6.45041e-07 -6.64085e-05 0)
(-6.86402e-06 -0.000186097 0)
(-1.92145e-05 -0.000293097 0)
(-3.71949e-05 -0.000387789 0)
(-6.01282e-05 -0.000470386 0)
(-8.7426e-05 -0.000541132 0)
(-0.000118551 -0.000600044 0)
(-0.000152434 -0.00064723 0)
(-0.00018708 -0.000682184 0)
(-0.000221603 -0.000704458 0)
(-0.000267919 -0.000714035 0)
(-0.000359313 -0.000716987 0)
(-0.000521559 -0.000735089 0)
(-0.000751676 -0.000765189 0)
(-0.000784803 -0.0235889 0)
(0.00303412 -0.139767 0)
(0.00348665 -0.242249 0)
(0.00132631 -0.317732 0)
(-0.00204961 -0.356151 0)
(-0.00583091 -0.377384 0)
(-0.0102976 -0.393927 0)
(-0.0161031 -0.40552 0)
(-0.0213166 -0.410052 0)
(-0.0265457 -0.403935 0)
(-0.033507 -0.395333 0)
(-0.0404486 -0.38844 0)
(-0.0458543 -0.382318 0)
(-0.0517111 -0.374078 0)
(-0.0588479 -0.363047 0)
(-0.0653405 -0.354358 0)
(-0.0709545 -0.350865 0)
(-0.0762262 -0.347035 0)
(-0.0815411 -0.342799 0)
(-0.0864552 -0.340762 0)
(-0.0908428 -0.34084 0)
(-0.0949013 -0.341009 0)
(-0.0985593 -0.341302 0)
(-0.101941 -0.342844 0)
(-0.104982 -0.345396 0)
(-0.107697 -0.34871 0)
(-0.110183 -0.352662 0)
(-0.112492 -0.357147 0)
(-0.114627 -0.362021 0)
(-0.116592 -0.367151 0)
(-0.118482 -0.372655 0)
(-0.12033 -0.378616 0)
(-0.122132 -0.384698 0)
(-0.123946 -0.390794 0)
(-0.125795 -0.39683 0)
(-0.127696 -0.402778 0)
(-1.19848e-06 -8.7035e-06 0)
(-1.10504e-05 -2.48822e-05 0)
(-2.99695e-05 -4.01001e-05 0)
(-5.69819e-05 -5.4588e-05 0)
(-9.09526e-05 -6.85132e-05 0)
(-0.00013107 -8.20413e-05 0)
(-0.000175971 -9.52628e-05 0)
(-0.000221352 -0.000108249 0)
(-0.000259321 -0.000120864 0)
(-0.000297214 -0.000133277 0)
(-0.000421781 -0.000146699 0)
(-0.000787492 -0.00016367 0)
(-0.00129331 -0.000194636 0)
(-0.00167155 -0.000339814 0)
(-0.00127898 -0.0848075 0)
(0.000787002 -0.161326 0)
(-0.00237486 -0.223371 0)
(-0.00789401 -0.265774 0)
(-0.012813 -0.288934 0)
(-0.018549 -0.307931 0)
(-0.0255499 -0.324319 0)
(-0.0314614 -0.329527 0)
(-0.0372175 -0.326926 0)
(-0.043397 -0.319987 0)
(-0.049779 -0.313198 0)
(-0.0554518 -0.307737 0)
(-0.0609268 -0.301135 0)
(-0.0666567 -0.293554 0)
(-0.0719348 -0.288351 0)
(-0.0765548 -0.286283 0)
(-0.0809458 -0.286151 0)
(-0.0850451 -0.287037 0)
(-0.0888746 -0.289058 0)
(-0.092498 -0.29189 0)
(-0.095785 -0.295245 0)
(-0.098889 -0.299524 0)
(-0.101909 -0.304352 0)
(-0.104718 -0.309247 0)
(-0.107404 -0.314042 0)
(-0.110042 -0.31879 0)
(-0.112663 -0.3236 0)
(-0.115289 -0.328541 0)
(-0.117928 -0.333641 0)
(-0.12058 -0.338831 0)
(-0.123245 -0.344075 0)
(-0.125932 -0.349479 0)
(-0.128649 -0.355012 0)
(-0.131386 -0.360607 0)
(-0.134144 -0.366216 0)
(-0.136919 -0.371802 0)
(-1.18954e-06 6.42434e-05 0)
(-1.21886e-05 0.000178548 0)
(-3.36526e-05 0.000279001 0)
(-6.4661e-05 0.000365946 0)
(-0.000104 0.000439539 0)
(-0.000150608 0.000499843 0)
(-0.000202861 0.000546709 0)
(-0.000258057 0.000580045 0)
(-0.000315382 0.000599424 0)
(-0.000391079 0.000603289 0)
(-0.000525987 0.000586678 0)
(-0.000739754 0.000537134 0)
(-0.00101821 0.000480675 0)
(-0.00135927 -0.00421955 0)
(-0.00178334 -0.0683606 0)
(-0.00621366 -0.115255 0)
(-0.0136639 -0.153916 0)
(-0.0204421 -0.181673 0)
(-0.0269615 -0.205857 0)
(-0.0350443 -0.231417 0)
(-0.0419028 -0.248366 0)
(-0.0477401 -0.254327 0)
(-0.0534048 -0.254137 0)
(-0.0585636 -0.251239 0)
(-0.0632918 -0.247625 0)
(-0.0677199 -0.244229 0)
(-0.0718057 -0.241566 0)
(-0.0755079 -0.240219 0)
(-0.0789304 -0.240366 0)
(-0.0821665 -0.241806 0)
(-0.0852618 -0.244325 0)
(-0.0883221 -0.247643 0)
(-0.0914068 -0.251343 0)
(-0.0944094 -0.255121 0)
(-0.097314 -0.25921 0)
(-0.10031 -0.264056 0)
(-0.103404 -0.269234 0)
(-0.106436 -0.274156 0)
(-0.10943 -0.278637 0)
(-0.112428 -0.282836 0)
(-0.115431 -0.28697 0)
(-0.118465 -0.291257 0)
(-0.121535 -0.295805 0)
(-0.124635 -0.300645 0)
(-0.127765 -0.305753 0)
(-0.130918 -0.31107 0)
(-0.134092 -0.316539 0)
(-0.137282 -0.322096 0)
(-0.140485 -0.327666 0)
(-0.1437 -0.333195 0)
(-1.55919e-07 0.000144369 0)
(1.12057e-06 0.000401445 0)
(2.88301e-06 0.000629808 0)
(3.89158e-06 0.000831816 0)
(2.1777e-06 0.00100942 0)
(-3.68514e-06 0.00116352 0)
(-1.34714e-05 0.00129494 0)
(-2.47153e-05 0.00140306 0)
(-4.63659e-05 0.00148768 0)
(-0.000139362 0.00154673 0)
(-0.000394733 0.0015807 0)
(-0.000745976 0.00163763 0)
(-0.00089858 0.00184204 0)
(-0.00173246 -0.00649284 0)
(-0.00226198 0.0039205 0)
(-0.00531572 -0.00923818 0)
(-0.013434 -0.0497727 0)
(-0.0189544 -0.0799229 0)
(-0.0255212 -0.109039 0)
(-0.034964 -0.14117 0)
(-0.0427439 -0.165951 0)
(-0.0498085 -0.181864 0)
(-0.0561101 -0.191606 0)
(-0.0615947 -0.197299 0)
(-0.066362 -0.200324 0)
(-0.0705847 -0.202094 0)
(-0.0744 -0.203522 0)
(-0.077907 -0.204863 0)
(-0.0811506 -0.20605 0)
(-0.0842355 -0.207372 0)
(-0.0872399 -0.209241 0)
(-0.0903001 -0.211629 0)
(-0.0933787 -0.214223 0)
(-0.0963882 -0.21699 0)
(-0.0993627 -0.220213 0)
(-0.102475 -0.224236 0)
(-0.105747 -0.229094 0)
(-0.109003 -0.234175 0)
(-0.112238 -0.239148 0)
(-0.115451 -0.243898 0)
(-0.118598 -0.248342 0)
(-0.121686 -0.25257 0)
(-0.124757 -0.256778 0)
(-0.127846 -0.261148 0)
(-0.130978 -0.265769 0)
(-0.13416 -0.270632 0)
(-0.137389 -0.275693 0)
(-0.140661 -0.280912 0)
(-0.143973 -0.286214 0)
(-0.147314 -0.291503 0)
(4.07293e-06 2.29386e-05 0)
(2.98959e-05 9.53615e-05 0)
(7.57573e-05 0.000194987 0)
(0.000137463 0.000323202 0)
(0.000210646 0.000480877 0)
(0.000291178 0.000670087 0)
(0.000375536 0.000891487 0)
(0.000460836 0.001148 0)
(0.000546914 0.00143957 0)
(0.000632027 0.00177131 0)
(0.000691223 0.00214715 0)
(0.000640925 0.00258222 0)
(0.000391974 0.00320749 0)
(-0.000173551 0.00531822 0)
(-0.000959478 0.000348221 0)
(-0.000598355 0.0025162 0)
(0.000549226 0.00183479 0)
(-0.00684535 -0.0112881 0)
(-0.00710145 -0.0149404 0)
(-0.0135773 -0.0208882 0)
(-0.0201082 -0.0551224 0)
(-0.0273101 -0.0812515 0)
(-0.0345404 -0.105203 0)
(-0.0419883 -0.121588 0)
(-0.0493552 -0.13403 0)
(-0.0559237 -0.143214 0)
(-0.0618854 -0.149701 0)
(-0.0675832 -0.155169 0)
(-0.0728946 -0.16035 0)
(-0.0774089 -0.164928 0)
(-0.0815295 -0.168279 0)
(-0.0855369 -0.171672 0)
(-0.0894391 -0.175336 0)
(-0.0929942 -0.178666 0)
(-0.0961503 -0.18162 0)
(-0.0992418 -0.18482 0)
(-0.102463 -0.188662 0)
(-0.105769 -0.192911 0)
(-0.109255 -0.197787 0)
(-0.112889 -0.203373 0)
(-0.116556 -0.209117 0)
(-0.120096 -0.21435 0)
(-0.123435 -0.218882 0)
(-0.126641 -0.222968 0)
(-0.129783 -0.226953 0)
(-0.132917 -0.23105 0)
(-0.136077 -0.235341 0)
(-0.139268 -0.23987 0)
(-0.142517 -0.244629 0)
(-0.145822 -0.249472 0)
(7.16025e-07 -0.000171814 0)
(1.30825e-05 -0.000441055 0)
(3.94414e-05 -0.000638542 0)
(7.95555e-05 -0.00076593 0)
(0.000132417 -0.000824678 0)
(0.000197249 -0.000815617 0)
(0.000273329 -0.000739586 0)
(0.000360088 -0.000596093 0)
(0.000457002 -0.000385277 0)
(0.000564911 -0.000105272 0)
(0.0006862 0.000244086 0)
(0.000820733 0.000668436 0)
(0.000947396 0.00117437 0)
(0.000996689 0.0018125 0)
(0.000910757 0.00155313 0)
(0.000748952 0.00165529 0)
(0.000591749 0.00210824 0)
(0.000340222 0.00736234 0)
(-0.000677828 0.00223203 0)
(-0.000820611 0.0102619 0)
(-0.00173814 0.000586436 0)
(-0.00796294 0.00884673 0)
(-0.00979244 -0.0111774 0)
(-0.0132803 -0.010974 0)
(-0.0210118 -0.0259464 0)
(-0.0263491 -0.0470666 0)
(-0.0308596 -0.0609836 0)
(-0.0359867 -0.0658626 0)
(-0.0439297 -0.0783662 0)
(-0.0494407 -0.0988007 0)
(-0.0552974 -0.109172 0)
(-0.0608844 -0.113263 0)
(-0.0670581 -0.12119 0)
(-0.0728702 -0.131651 0)
(-0.0776893 -0.140829 0)
(-0.0815586 -0.146046 0)
(-0.0851315 -0.14821 0)
(-0.0887422 -0.148781 0)
(-0.0925909 -0.149217 0)
(-0.096745 -0.151752 0)
(-0.101609 -0.157504 0)
(-0.106884 -0.165903 0)
(-0.111801 -0.174116 0)
(-0.116354 -0.181178 0)
(-0.1204 -0.186675 0)
(-0.124101 -0.191354 0)
(-0.12751 -0.195517 0)
(-0.130731 -0.199555 0)
(-0.133863 -0.203706 0)
(-0.137058 -0.208054 0)
(2.91109e-07 -0.000167142 0)
(4.73911e-06 -0.000456362 0)
(1.52455e-05 -0.000699725 0)
(3.24865e-05 -0.000896278 0)
(5.71049e-05 -0.00104558 0)
(8.97857e-05 -0.00114772 0)
(0.000131252 -0.00120302 0)
(0.000182296 -0.00121191 0)
(0.000243717 -0.00117509 0)
(0.000316501 -0.00109321 0)
(0.000401859 -0.000967505 0)
(0.00050135 -0.000798976 0)
(0.000615711 -0.000589427 0)
(0.00074264 -0.000338221 0)
(0.000872608 -4.5017e-05 0)
(0.000985862 0.000307851 0)
(0.00105304 0.000788462 0)
(0.00104544 0.00146175 0)
(0.00103032 0.00160723 0)
(0.00118333 0.00202012 0)
(0.00143459 0.00257249 0)
(0.0015541 0.0054254 0)
(0.00154076 0.00181876 0)
(0.00116357 0.00747216 0)
(0.000625765 0.00855708 0)
(-0.00260531 0.0011372 0)
(-0.00452548 -0.0103556 0)
(-0.00652698 -0.00266673 0)
(-0.00908629 -0.0057605 0)
(-0.012635 -0.0181877 0)
(-0.0169951 -0.0388717 0)
(-0.0194607 -0.0252186 0)
(-0.0249099 -0.0187048 0)
(-0.0307139 -0.0383326 0)
(-0.0350549 -0.075428 0)
(-0.03981 -0.0946143 0)
(-0.045461 -0.101793 0)
(-0.0504888 -0.105104 0)
(-0.0552075 -0.0995073 0)
(-0.0605719 -0.0903182 0)
(-0.0650552 -0.0842144 0)
(-0.0705347 -0.0871454 0)
(-0.0784845 -0.100258 0)
(-0.0867798 -0.11716 0)
(-0.0936687 -0.132285 0)
(-0.099919 -0.144707 0)
(-0.105161 -0.155012 0)
(-0.109315 -0.162289 0)
(-0.112821 -0.167062 0)
(-0.116095 -0.170565 0)
(8.51694e-07 -0.000230711 0)
(5.36315e-06 -0.000637585 0)
(1.39915e-05 -0.000991288 0)
(2.66684e-05 -0.00129306 0)
(4.36349e-05 -0.00154411 0)
(6.52313e-05 -0.00174571 0)
(9.18275e-05 -0.00189924 0)
(0.000123825 -0.00200599 0)
(0.000161597 -0.00206725 0)
(0.000205542 -0.00208399 0)
(0.000256012 -0.00205717 0)
(0.000313401 -0.0019872 0)
(0.000377956 -0.00187475 0)
(0.000450116 -0.0017195 0)
(0.000530199 -0.0015217 0)
(0.000619588 -0.0012792 0)
(0.000720139 -0.000990905 0)
(0.000833884 -0.000651702 0)
(0.000958264 -0.00026848 0)
(0.00108082 0.00017062 0)
(0.00116583 0.000721839 0)
(0.00117574 0.00147589 0)
(0.00114713 0.00162114 0)
(0.00125223 0.00212157 0)
(0.00152829 0.00271625 0)
(0.00180035 0.00436093 0)
(0.00155735 0.000725376 0)
(0.00121008 0.00124924 0)
(0.000873931 0.000768122 0)
(0.000207477 -0.0049711 0)
(-0.000767112 -0.00908319 0)
(-0.00212199 -0.0042125 0)
(-0.00331531 -0.00379582 0)
(-0.00410875 -0.00962692 0)
(-0.00562106 -0.0171249 0)
(-0.0091483 -0.0149291 0)
(-0.0132467 -0.0118109 0)
(-0.0171331 -0.0216045 0)
(-0.0211481 -0.0429471 0)
(-0.0240051 -0.0386635 0)
(-0.0257382 -0.0169644 0)
(-0.0278449 -0.000193433 0)
(-0.0301891 0.00928949 0)
(-0.0339853 0.0175852 0)
(-0.0400943 -0.00922278 0)
(-0.04479 -0.0363372 0)
(-0.0501444 -0.0734567 0)
(-0.0555228 -0.101808 0)
(-0.0606693 -0.116864 0)
(-0.0655105 -0.123115 0)
(-0.1873 -0.908416 0)
(-0.19062 -0.907853 0)
(-0.19384 -0.906913 0)
(-0.19696 -0.905589 0)
(-0.199979 -0.903875 0)
(-0.202896 -0.901765 0)
(-0.20571 -0.899257 0)
(-0.208423 -0.896348 0)
(-0.211034 -0.893036 0)
(-0.213543 -0.889318 0)
(-0.215951 -0.885192 0)
(-0.218258 -0.880658 0)
(-0.220465 -0.875712 0)
(-0.222572 -0.870354 0)
(-0.224581 -0.864583 0)
(-0.226493 -0.858399 0)
(-0.228308 -0.851801 0)
(-0.230027 -0.844791 0)
(-0.231653 -0.837369 0)
(-0.233186 -0.829538 0)
(-0.234628 -0.821299 0)
(-0.235981 -0.812654 0)
(-0.237246 -0.803606 0)
(-0.238426 -0.794157 0)
(-0.239523 -0.784311 0)
(-0.24054 -0.77407 0)
(-0.241478 -0.763439 0)
(-0.24234 -0.752422 0)
(-0.243131 -0.741028 0)
(-0.243852 -0.729266 0)
(-0.24451 -0.71715 0)
(-0.24511 -0.704703 0)
(-0.245658 -0.691954 0)
(-0.246163 -0.678946 0)
(-0.246637 -0.665719 0)
(-0.247092 -0.652309 0)
(-0.247546 -0.638797 0)
(-0.248019 -0.625297 0)
(-0.248539 -0.611934 0)
(-0.249136 -0.598843 0)
(-0.249848 -0.586168 0)
(-0.250715 -0.574059 0)
(-0.251781 -0.562663 0)
(-0.253093 -0.552115 0)
(-0.254692 -0.542528 0)
(-0.256614 -0.533981 0)
(-0.258898 -0.526516 0)
(-0.261614 -0.520141 0)
(-0.264817 -0.514828 0)
(-0.268383 -0.510499 0)
(-0.195278 -0.843182 0)
(-0.198123 -0.844647 0)
(-0.200871 -0.845773 0)
(-0.20352 -0.846548 0)
(-0.206066 -0.846957 0)
(-0.208509 -0.84699 0)
(-0.210845 -0.846639 0)
(-0.213075 -0.845896 0)
(-0.215196 -0.844759 0)
(-0.217207 -0.843222 0)
(-0.219107 -0.841285 0)
(-0.220895 -0.838943 0)
(-0.222569 -0.836194 0)
(-0.224128 -0.833037 0)
(-0.22557 -0.829469 0)
(-0.226895 -0.82549 0)
(-0.2281 -0.821097 0)
(-0.229184 -0.816291 0)
(-0.230146 -0.811071 0)
(-0.230983 -0.805437 0)
(-0.231694 -0.79939 0)
(-0.232277 -0.792931 0)
(-0.232731 -0.786062 0)
(-0.233053 -0.778783 0)
(-0.233243 -0.771095 0)
(-0.233296 -0.763001 0)
(-0.233213 -0.754501 0)
(-0.23299 -0.745594 0)
(-0.232624 -0.736277 0)
(-0.232115 -0.726548 0)
(-0.231458 -0.7164 0)
(-0.230653 -0.705825 0)
(-0.229698 -0.694813 0)
(-0.228593 -0.683352 0)
(-0.227338 -0.671432 0)
(-0.225937 -0.659037 0)
(-0.224392 -0.646139 0)
(-0.222711 -0.632707 0)
(-0.220907 -0.618731 0)
(-0.218998 -0.604226 0)
(-0.21701 -0.589219 0)
(-0.214975 -0.573756 0)
(-0.212928 -0.557908 0)
(-0.210916 -0.54178 0)
(-0.20899 -0.525505 0)
(-0.207211 -0.509243 0)
(-0.20563 -0.493171 0)
(-0.204279 -0.477476 0)
(-0.203201 -0.462341 0)
(-0.202568 -0.447913 0)
(-0.203202 -0.823236 0)
(-0.205267 -0.825364 0)
(-0.207268 -0.827164 0)
(-0.209206 -0.82863 0)
(-0.211082 -0.829752 0)
(-0.212895 -0.830521 0)
(-0.214645 -0.830926 0)
(-0.216328 -0.830959 0)
(-0.217944 -0.830612 0)
(-0.219491 -0.829881 0)
(-0.220968 -0.828762 0)
(-0.222374 -0.827253 0)
(-0.223708 -0.825353 0)
(-0.224968 -0.823062 0)
(-0.226154 -0.820378 0)
(-0.227263 -0.817301 0)
(-0.228296 -0.813832 0)
(-0.229251 -0.80997 0)
(-0.230127 -0.805717 0)
(-0.230923 -0.801072 0)
(-0.231637 -0.796039 0)
(-0.232268 -0.790618 0)
(-0.232815 -0.784812 0)
(-0.233278 -0.778624 0)
(-0.233656 -0.772057 0)
(-0.233946 -0.765115 0)
(-0.234149 -0.757804 0)
(-0.234264 -0.75013 0)
(-0.23429 -0.742099 0)
(-0.234225 -0.73372 0)
(-0.234068 -0.724999 0)
(-0.233818 -0.715946 0)
(-0.233471 -0.706568 0)
(-0.233027 -0.696874 0)
(-0.23248 -0.686872 0)
(-0.231828 -0.676574 0)
(-0.231066 -0.665986 0)
(-0.230188 -0.655101 0)
(-0.229184 -0.643912 0)
(-0.228049 -0.632411 0)
(-0.226773 -0.620587 0)
(-0.225353 -0.608424 0)