/*--------------------------------*- C++ -*----------------------------------*\
| =========                 |                                                 |
| \\      /  F ield         | OpenFOAM: The Open Source CFD Toolbox           |
|  \\    /   O peration     | Version:  2.4.0                                 |
|   \\  /    A nd           | Web:      www.OpenFOAM.org                      |
|    \\/     M anipulation  |                                                 |
\*---------------------------------------------------------------------------*/
FoamFile
{
    version     2.0;
    format      ascii;
    class       volScalarField;
    location    "0.004";
    object      p;
}
// * * * * * * * * * * * * * * * * * * * * * * * * * * * * * * * * * * * * * //

dimensions      [1 -1 -2 0 0 0 0];

internalField   nonuniform List<scalar> 
125
(
-0.0343335
-0.0344757
-0.0346185
-0.0347618
-0.0349056
-0.03505
-0.0351949
-0.0353403
-0.0354863
-0.0356328
-0.0357798
-0.0359274
-0.0360756
-0.0362242
-0.0363735
-0.0365233
-0.0366736
-0.0368245
-0.036976
-0.037128
-0.0372806
-0.0374338
-0.0375875
-0.0377418
-0.0378967
-0.0380521
-0.0382081
-0.0383647
-0.0385219
-0.0386797
-0.038838
-0.0389969
-0.0391565
-0.0393166
-0.0394773
-0.0396386
-0.0398005
-0.039963
-0.0401261
-0.0402898
-0.0404541
-0.040619
-0.0407845
-0.0409507
-0.0411174
-0.0412848
-0.0414528
-0.0416214
-0.0417906
-0.0419605
-0.042131
-0.0423021
-0.0424739
-0.0426463
-0.0428193
-0.042993
-0.0431673
-0.0433423
-0.0435179
-0.0436941
-0.0438711
-0.0440486
-0.0442269
-0.0444058
-0.0445853
-0.0447655
-0.0449464
-0.0451279
-0.0453102
-0.0454931
-0.0456766
-0.0458609
-0.0460458
-0.0462315
-0.0464178
-0.0466048
-0.0467925
-0.0469808
-0.0471699
-0.0473597
-0.0475502
-0.0477414
-0.0479333
-0.0481259
-0.0483192
-0.0485132
-0.048708
-0.0489035
-0.0490997
-0.0492966
-0.0494942
-0.0496926
-0.0498917
-0.0500916
-0.0502922
-0.0504935
-0.0506956
-0.0508984
-0.051102
-0.0513063
-0.0515114
-0.0517172
-0.0519239
-0.0521312
-0.0523394
-0.0525483
-0.0527579
-0.0529684
-0.0531796
-0.0533916
-0.0536044
-0.053818
-0.0540324
-0.0542476
-0.0544635
-0.0546803
-0.0548979
-0.0551162
-0.0553354
-0.0555554
-0.0557762
-0.0559978
-0.0562202
-0.0564435
-0.0566675
)
;

boundaryField
{
    BotWall
    {
        type            calculated;
        value           nonuniform 0();
    }
    FreeStream
    {
        type            calculated;
        value           nonuniform 0();
    }
    FrontNBack
    {
        type            empty;
    }
    LeftSide
    {
        type            symmetryPlane;
    }
    RightSide
    {
        type            symmetryPlane;
    }
    procBoundary1to0
    {
        type            processor;
        value           uniform -0.0568924;
    }
    procBoundary1to2
    {
        type            processor;
        value           uniform -0.0341917;
    }
    procBoundary1to3
    {
        type            processor;
        value           nonuniform List<scalar> 
75
(
-0.0420135
-0.0421855
-0.0423581
-0.0425313
-0.0427052
-0.0428797
-0.0430548
-0.0432306
-0.043407
-0.0435841
-0.0437618
-0.0439402
-0.0441192
-0.0442989
-0.0444793
-0.0446603
-0.044842
-0.0450243
-0.0452073
-0.045391
-0.0455754
-0.0457604
-0.0459462
-0.0461326
-0.0463196
-0.0465074
-0.0466959
-0.046885
-0.0470749
-0.0472654
-0.0474567
-0.0476486
-0.0478413
-0.0480346
-0.0482287
-0.0484235
-0.048619
-0.0488152
-0.0490121
-0.0492098
-0.0494082
-0.0496073
-0.0498072
-0.0500077
-0.0502091
-0.0504111
-0.0506139
-0.0508175
-0.0510217
-0.0512268
-0.0514326
-0.0516391
-0.0518464
-0.0520545
-0.0522633
-0.0524729
-0.0526833
-0.0528945
-0.0531064
-0.0533191
-0.0535326
-0.0537468
-0.0539619
-0.0541777
-0.0543943
-0.0546118
-0.05483
-0.055049
-0.0552689
-0.0554895
-0.055711
-0.0559332
-0.0561563
-0.0563802
-0.0566049
)
;
    }
    procBoundary1to4
    {
        type            processor;
        value           nonuniform List<scalar> 
50
(
-0.0341684
-0.0343116
-0.0344554
-0.0345997
-0.0347445
-0.0348899
-0.0350358
-0.0351822
-0.0353292
-0.0354767
-0.0356247
-0.0357733
-0.0359224
-0.0360721
-0.0362223
-0.0363731
-0.0365244
-0.0366763
-0.0368288
-0.0369818
-0.0371353
-0.0372895
-0.0374442
-0.0375994
-0.0377552
-0.0379116
-0.0380686
-0.0382262
-0.0383843
-0.038543
-0.0387023
-0.0388622
-0.0390226
-0.0391837
-0.0393453
-0.0395075
-0.0396704
-0.0398338
-0.0399978
-0.0401624
-0.0403277
-0.0404935
-0.0406599
-0.040827
-0.0409947
-0.041163
-0.0413318
-0.0415014
-0.0416715
-0.0418422
)
;
    }
}


// ************************************************************************* //
