/*--------------------------------*- C++ -*----------------------------------*\
| =========                 |                                                 |
| \\      /  F ield         | OpenFOAM: The Open Source CFD Toolbox           |
|  \\    /   O peration     | Version:  2.4.0                                 |
|   \\  /    A nd           | Web:      www.OpenFOAM.org                      |
|    \\/     M anipulation  |                                                 |
\*---------------------------------------------------------------------------*/
FoamFile
{
    version     2.0;
    format      ascii;
    class       volScalarField;
    location    "0.004";
    object      p_rgh;
}
// * * * * * * * * * * * * * * * * * * * * * * * * * * * * * * * * * * * * * //

dimensions      [1 -1 -2 0 0 0 0];

internalField   nonuniform List<scalar> 
125
(
-0.0252631
-0.0252082
-0.0251531
-0.0250978
-0.0250423
-0.0249865
-0.0249306
-0.0248745
-0.0248182
-0.0247617
-0.0247049
-0.024648
-0.0245909
-0.0245335
-0.024476
-0.0244182
-0.0243602
-0.024302
-0.0242437
-0.0241851
-0.0241262
-0.0240672
-0.024008
-0.0239485
-0.0238889
-0.023829
-0.0237689
-0.0237085
-0.023648
-0.0235873
-0.0235263
-0.0234651
-0.0234037
-0.023342
-0.0232802
-0.0232181
-0.0231558
-0.0230932
-0.0230305
-0.0229675
-0.0229043
-0.0228408
-0.0227771
-0.0227132
-0.0226491
-0.0225847
-0.0225201
-0.0224553
-0.0223902
-0.0223249
-0.0222593
-0.0221936
-0.0221275
-0.0220613
-0.0219948
-0.021928
-0.021861
-0.0217938
-0.0217264
-0.0216586
-0.0215907
-0.0215225
-0.021454
-0.0213853
-0.0213164
-0.0212472
-0.0211777
-0.021108
-0.021038
-0.0209678
-0.0208974
-0.0208266
-0.0207557
-0.0206844
-0.0206129
-0.0205412
-0.0204692
-0.0203969
-0.0203244
-0.0202516
-0.0201785
-0.0201052
-0.0200316
-0.0199577
-0.0198836
-0.0198092
-0.0197345
-0.0196596
-0.0195843
-0.0195089
-0.0194331
-0.0193571
-0.0192808
-0.0192042
-0.0191273
-0.0190501
-0.0189727
-0.018895
-0.018817
-0.0187387
-0.0186602
-0.0185813
-0.0185022
-0.0184228
-0.0183431
-0.0182631
-0.0181828
-0.0181022
-0.0180213
-0.0179402
-0.0178587
-0.017777
-0.0176949
-0.0176125
-0.0175299
-0.0174469
-0.0173637
-0.0172801
-0.0171963
-0.0171121
-0.0170276
-0.0169428
-0.0168577
-0.0167723
-0.0166866
)
;

boundaryField
{
    BotWall
    {
        type            fixedFluxPressure;
        gradient        nonuniform 0();
        value           nonuniform 0();
    }
    FreeStream
    {
        type            totalPressure;
        rho             rho;
        psi             none;
        gamma           1;
        p0              nonuniform 0();
        value           nonuniform 0();
    }
    FrontNBack
    {
        type            empty;
    }
    LeftSide
    {
        type            symmetryPlane;
    }
    RightSide
    {
        type            symmetryPlane;
    }
    procBoundary1to0
    {
        type            processor;
        value           uniform -0.0166005;
    }
    procBoundary1to2
    {
        type            processor;
        value           uniform -0.0253177;
    }
    procBoundary1to3
    {
        type            processor;
        value           nonuniform List<scalar> 
75
(
-0.0221419
-0.0220769
-0.0220117
-0.0219463
-0.0218806
-0.0218147
-0.0217485
-0.0216821
-0.0216155
-0.0215486
-0.0214814
-0.021414
-0.0213464
-0.0212785
-0.0212103
-0.0211419
-0.0210733
-0.0210044
-0.0209352
-0.0208658
-0.0207961
-0.0207262
-0.020656
-0.0205855
-0.0205148
-0.0204438
-0.0203726
-0.0203011
-0.0202293
-0.0201573
-0.020085
-0.0200124
-0.0199396
-0.0198665
-0.0197931
-0.0197194
-0.0196455
-0.0195713
-0.0194968
-0.0194221
-0.0193471
-0.0192718
-0.0191962
-0.0191203
-0.0190442
-0.0189678
-0.018891
-0.0188141
-0.0187368
-0.0186592
-0.0185814
-0.0185032
-0.0184248
-0.0183461
-0.0182671
-0.0181878
-0.0181082
-0.0180283
-0.0179481
-0.0178676
-0.0177868
-0.0177057
-0.0176244
-0.0175427
-0.0174607
-0.0173784
-0.0172958
-0.0172129
-0.0171297
-0.0170462
-0.0169624
-0.0168783
-0.0167938
-0.0167091
-0.016624
)
;
    }
    procBoundary1to4
    {
        type            processor;
        value           nonuniform List<scalar> 
50
(
-0.025098
-0.0250441
-0.02499
-0.0249357
-0.0248811
-0.0248264
-0.0247715
-0.0247164
-0.0246611
-0.0246056
-0.0245498
-0.0244939
-0.0244377
-0.0243814
-0.0243248
-0.024268
-0.024211
-0.0241538
-0.0240964
-0.0240388
-0.023981
-0.0239229
-0.0238646
-0.0238061
-0.0237474
-0.0236885
-0.0236293
-0.02357
-0.0235104
-0.0234506
-0.0233906
-0.0233303
-0.0232698
-0.0232091
-0.0231482
-0.0230871
-0.0230257
-0.0229641
-0.0229022
-0.0228402
-0.0227779
-0.0227153
-0.0226526
-0.0225896
-0.0225263
-0.0224629
-0.0223992
-0.0223352
-0.022271
-0.0222066
)
;
    }
}


// ************************************************************************* //
