/*--------------------------------*- C++ -*----------------------------------*\
| =========                 |                                                 |
| \\      /  F ield         | OpenFOAM: The Open Source CFD Toolbox           |
|  \\    /   O peration     | Version:  2.4.0                                 |
|   \\  /    A nd           | Web:      www.OpenFOAM.org                      |
|    \\/     M anipulation  |                                                 |
\*---------------------------------------------------------------------------*/
FoamFile
{
    version     2.0;
    format      ascii;
    class       volVectorField;
    location    "3.1";
    object      U;
}
// * * * * * * * * * * * * * * * * * * * * * * * * * * * * * * * * * * * * * //

dimensions      [0 1 -1 0 0 0 0];

internalField   nonuniform List<vector> 
125
(
(-3.18947e-09 -0.00122776 0)
(-5.90895e-09 -0.00122774 0)
(-8.89571e-10 -0.00122772 0)
(6.18569e-09 -0.00122773 0)
(4.38839e-09 -0.00122776 0)
(-3.34103e-09 -0.00122776 0)
(-6.23438e-09 -0.00122774 0)
(-9.42802e-10 -0.00122772 0)
(6.49588e-09 -0.00122773 0)
(4.56294e-09 -0.00122776 0)
(-3.47319e-09 -0.00122776 0)
(-6.52022e-09 -0.00122774 0)
(-9.89987e-10 -0.00122772 0)
(6.76394e-09 -0.00122773 0)
(4.71056e-09 -0.00122776 0)
(-3.58701e-09 -0.00122776 0)
(-6.76853e-09 -0.00122774 0)
(-1.03145e-09 -0.00122772 0)
(6.99223e-09 -0.00122773 0)
(4.83287e-09 -0.00122776 0)
(-3.68351e-09 -0.00122776 0)
(-6.9814e-09 -0.00122774 0)
(-1.06752e-09 -0.00122772 0)
(7.18312e-09 -0.00122773 0)
(4.93148e-09 -0.00122776 0)
(-3.76374e-09 -0.00122776 0)
(-7.16091e-09 -0.00122774 0)
(-1.0985e-09 -0.00122772 0)
(7.33897e-09 -0.00122773 0)
(5.00803e-09 -0.00122776 0)
(-3.82876e-09 -0.00122776 0)
(-7.30917e-09 -0.00122774 0)
(-1.12472e-09 -0.00122772 0)
(7.4622e-09 -0.00122773 0)
(5.06412e-09 -0.00122776 0)
(-3.87963e-09 -0.00122776 0)
(-7.42832e-09 -0.00122774 0)
(-1.14648e-09 -0.00122772 0)
(7.55519e-09 -0.00122773 0)
(5.10137e-09 -0.00122776 0)
(-3.91742e-09 -0.00122776 0)
(-7.52051e-09 -0.00122774 0)
(-1.16407e-09 -0.00122772 0)
(7.62038e-09 -0.00122773 0)
(5.12142e-09 -0.00122776 0)
(-3.94323e-09 -0.00122776 0)
(-7.58789e-09 -0.00122774 0)
(-1.17782e-09 -0.00122772 0)
(7.66022e-09 -0.00122773 0)
(5.12588e-09 -0.00122776 0)
(-3.95816e-09 -0.00122776 0)
(-7.63267e-09 -0.00122774 0)
(-1.18802e-09 -0.00122772 0)
(7.67717e-09 -0.00122773 0)
(5.1164e-09 -0.00122776 0)
(-3.96332e-09 -0.00122776 0)
(-7.65707e-09 -0.00122774 0)
(-1.19498e-09 -0.00122772 0)
(7.67373e-09 -0.00122773 0)
(5.09463e-09 -0.00122776 0)
(-3.95984e-09 -0.00122776 0)
(-7.66335e-09 -0.00122774 0)
(-1.19902e-09 -0.00122772 0)
(7.65244e-09 -0.00122773 0)
(5.06225e-09 -0.00122776 0)
(-3.94889e-09 -0.00122776 0)
(-7.65381e-09 -0.00122774 0)
(-1.20044e-09 -0.00122772 0)
(7.61584e-09 -0.00122773 0)
(5.02095e-09 -0.00122776 0)
(-3.93163e-09 -0.00122776 0)
(-7.63078e-09 -0.00122774 0)
(-1.19957e-09 -0.00122772 0)
(7.56655e-09 -0.00122773 0)
(4.97245e-09 -0.00122776 0)
(-3.90927e-09 -0.00122776 0)
(-7.59664e-09 -0.00122774 0)
(-1.19675e-09 -0.00122772 0)
(7.50721e-09 -0.00122773 0)
(4.91851e-09 -0.00122776 0)
(-3.88304e-09 -0.00122776 0)
(-7.55384e-09 -0.00122774 0)
(-1.19232e-09 -0.00122772 0)
(7.44054e-09 -0.00122773 0)
(4.86092e-09 -0.00122776 0)
(-3.8542e-09 -0.00122776 0)
(-7.50488e-09 -0.00122774 0)
(-1.18664e-09 -0.00122772 0)
(7.36928e-09 -0.00122773 0)
(4.80154e-09 -0.00122776 0)
(-3.82404e-09 -0.00122776 0)
(-7.45232e-09 -0.00122774 0)
(-1.18009e-09 -0.00122772 0)
(7.29628e-09 -0.00122773 0)
(4.74226e-09 -0.00122776 0)
(-3.79391e-09 -0.00122776 0)
(-7.3988e-09 -0.00122774 0)
(-1.17308e-09 -0.00122772 0)
(7.22444e-09 -0.00122773 0)
(4.68504e-09 -0.00122776 0)
(-3.76518e-09 -0.00122776 0)
(-7.34705e-09 -0.00122774 0)
(-1.16602e-09 -0.00122772 0)
(7.15673e-09 -0.00122773 0)
(4.6319e-09 -0.00122776 0)
(-3.73927e-09 -0.00122776 0)
(-7.29987e-09 -0.00122774 0)
(-1.15937e-09 -0.00122772 0)
(7.09624e-09 -0.00122773 0)
(4.58496e-09 -0.00122776 0)
(-3.71778e-09 -0.00122776 0)
(-7.26039e-09 -0.00122774 0)
(-1.15363e-09 -0.00122772 0)
(7.04637e-09 -0.00122773 0)
(4.54655e-09 -0.00122776 0)
(-3.70255e-09 -0.00122776 0)
(-7.23224e-09 -0.00122774 0)
(-1.1494e-09 -0.00122772 0)
(7.01103e-09 -0.00122773 0)
(4.51941e-09 -0.00122776 0)
(-3.69537e-09 -0.00122776 0)
(-7.21888e-09 -0.00122774 0)
(-1.14728e-09 -0.00122772 0)
(6.994e-09 -0.00122773 0)
(4.50618e-09 -0.00122776 0)
)
;

boundaryField
{
    BotWall
    {
        type            fixedValue;
        value           nonuniform 0();
    }
    FreeStream
    {
        type            zeroGradient;
    }
    FrontNBack
    {
        type            empty;
    }
    LeftSide
    {
        type            symmetryPlane;
    }
    RightSide
    {
        type            symmetryPlane;
    }
    procBoundary3to2
    {
        type            processor;
        value           nonuniform List<vector> 5((-3.01751e-09 -0.00122776 0) (-5.54187e-09 -0.00122774 0) (-8.29957e-10 -0.00122772 0) (5.83102e-09 -0.00122773 0) (4.18527e-09 -0.00122776 0));
    }
}


// ************************************************************************* //
