/*--------------------------------*- C++ -*----------------------------------*\
| =========                 |                                                 |
| \\      /  F ield         | OpenFOAM: The Open Source CFD Toolbox           |
|  \\    /   O peration     | Version:  2.4.0                                 |
|   \\  /    A nd           | Web:      www.OpenFOAM.org                      |
|    \\/     M anipulation  |                                                 |
\*---------------------------------------------------------------------------*/
FoamFile
{
    version     2.0;
    format      ascii;
    class       volScalarField;
    location    "0.005";
    object      H;
}
// * * * * * * * * * * * * * * * * * * * * * * * * * * * * * * * * * * * * * //

dimensions      [0 2 -2 0 0 0 0];

internalField   nonuniform List<scalar> 
1500
(
-10103.6
-10101.6
-10097.1
-10103.8
-10102.2
-5835.25
-5829.12
-5815.76
-5835.66
-5830.91
-169.268
-168.079
-165.54
-169.347
-168.425
-126.53
-125.622
-123.686
-126.591
-125.888
-126.126
-125.205
-123.249
-126.188
-125.48
-125.515
-124.585
-122.617
-125.578
-124.866
-124.703
-123.767
-121.794
-124.766
-124.054
-123.694
-122.757
-120.786
-123.757
-123.048
-122.497
-121.562
-119.6
-122.56
-121.855
-121.118
-120.188
-118.243
-121.181
-120.483
-119.566
-118.645
-116.723
-119.629
-118.94
-117.849
-116.939
-115.046
-117.912
-117.234
-115.976
-115.081
-113.222
-116.038
-115.374
-113.957
-113.079
-111.26
-114.018
-113.369
-111.802
-110.943
-109.169
-111.862
-111.23
-109.52
-108.683
-106.957
-109.579
-108.965
-107.122
-106.308
-104.636
-107.179
-106.585
-104.618
-103.83
-102.214
-104.674
-104.101
-102.02
-101.258
-99.7019
-102.074
-101.523
-99.3364
-98.6032
-97.1094
-99.3891
-98.8609
-96.5796
-95.8758
-94.4465
-96.6305
-96.126
-93.7596
-93.0862
-91.7232
-93.8086
-93.3284
-90.887
-90.2446
-88.9494
-90.934
-90.4785
-87.9721
-87.3613
-86.1347
-88.017
-87.5865
-85.025
-84.4461
-83.2888
-85.0677
-84.6624
-82.0556
-81.5087
-80.4208
-82.096
-81.716
-79.0735
-78.5586
-77.54
-79.1116
-78.7567
-76.0878
-75.6047
-74.6549
-76.1235
-75.7936
-73.1076
-72.6559
-71.774
-73.1409
-72.8355
-70.1412
-69.7205
-68.9053
-70.172
-69.8909
-67.1966
-66.8063
-66.0565
-67.225
-66.9675
-64.2816
-63.9209
-63.2347
-64.3074
-64.0731
-61.4032
-61.0712
-60.4469
-61.4265
-61.2145
-58.5681
-58.2638
-57.6992
-58.5888
-58.3985
-55.7824
-55.5048
-54.9976
-55.8005
-55.631
-53.0517
-52.7998
-52.3476
-53.0673
-52.9177
-50.3811
-50.1537
-49.7539
-50.3941
-50.2636
-47.7752
-47.5711
-47.221
-47.7858
-47.6734
-45.2382
-45.0561
-44.753
-45.2462
-45.151
-42.7735
-42.6121
-42.3533
-42.779
-42.7
-40.3843
-40.2423
-40.0249
-40.3873
-40.3235
-38.073
-37.9493
-37.7704
-38.0736
-38.024
-35.8419
-35.735
-35.5918
-35.8401
-35.8037
-33.6925
-33.6013
-33.4909
-33.6883
-33.6641
-31.626
-31.5491
-31.4689
-31.6195
-31.6066
-29.6432
-29.5795
-29.5266
-29.6345
-29.6319
-27.7444
-27.6927
-27.6645
-27.7335
-27.7403
-25.9296
-25.8887
-25.8828
-25.9166
-25.9319
-24.1985
-24.1673
-24.1811
-24.1834
-24.2064
-22.5503
-22.5278
-22.5589
-22.5332
-22.563
-20.984
-20.9692
-21.0154
-20.965
-21.0009
-19.4983
-19.4903
-19.5495
-19.4776
-19.5187
-18.0917
-18.0896
-18.1598
-18.0693
-18.115
-16.7625
-16.7654
-16.8447
-16.7384
-16.7881
-15.5085
-15.5158
-15.6025
-15.4829
-15.5359
-14.3278
-14.3387
-14.4312
-14.3008
-14.3565
-13.218
-13.2318
-13.3286
-13.1897
-13.2476
-12.1767
-12.1929
-12.2927
-12.1472
-12.2068
-11.2014
-11.2194
-11.321
-11.1708
-11.2317
-10.2895
-10.3089
-10.4112
-10.2579
-10.3196
-9.4384
-9.45871
-9.56075
-9.40596
-9.46807
-8.64532
-8.66621
-8.76715
-8.61216
-8.67435
-7.90759
-7.92873
-8.02785
-7.87384
-7.93579
-7.22252
-7.24363
-7.34029
-7.1883
-7.24973
-6.5874
-6.60824
-6.70193
-6.55283
-6.61349
-5.99956
-6.01994
-6.11022
-5.96478
-6.02444
-5.45639
-5.47614
-5.56266
-5.42151
-5.47998
-4.95531
-4.9743
-5.0568
-4.92044
-4.97756
-4.4938
-4.51192
-4.59021
-4.45907
-4.51469
-4.06942
-4.08661
-4.16056
-4.03494
-4.08893
-3.67981
-3.69601
-3.76554
-3.6457
-3.69796
-3.32268
-3.33786
-3.40297
-3.28904
-3.33948
-2.99585
-3.00999
-3.07071
-2.96278
-3.01134
-2.69721
-2.71032
-2.76671
-2.66481
-2.71143
-2.42477
-2.43685
-2.48901
-2.39311
-2.43776
-2.1766
-2.18769
-2.23575
-2.14577
-2.18842
-1.9509
-1.96103
-2.00515
-1.92098
-1.96161
-1.74595
-1.75516
-1.79551
-1.71699
-1.75562
-1.56013
-1.56846
-1.60523
-1.5322
-1.56883
-1.39192
-1.39943
-1.43281
-1.36507
-1.39971
-1.23989
-1.24663
-1.27682
-1.21416
-1.24684
-1.1027
-1.10871
-1.13593
-1.07811
-1.10887
-0.979086
-0.984438
-1.00888
-0.955672
-0.984544
-0.867893
-0.872632
-0.894502
-0.845667
-0.872702
-0.768028
-0.772209
-0.79171
-0.747
-0.772249
-0.678485
-0.682157
-0.699484
-0.658654
-0.682175
-0.598328
-0.60154
-0.61688
-0.579688
-0.60154
-0.526694
-0.529491
-0.543025
-0.509231
-0.529479
-0.462785
-0.465212
-0.477108
-0.446479
-0.46519
-0.405867
-0.407963
-0.418384
-0.390693
-0.407935
-0.355265
-0.357068
-0.366162
-0.341192
-0.357035
-0.310359
-0.311904
-0.319812
-0.297352
-0.311868
-0.270583
-0.2719
-0.278752
-0.258602
-0.271863
-0.235415
-0.236534
-0.242449
-0.224419
-0.236497
-0.204384
-0.20533
-0.210418
-0.194326
-0.205294
-0.177057
-0.177854
-0.182213
-0.16789
-0.177819
-0.153042
-0.153709
-0.157431
-0.144716
-0.153677
-0.131981
-0.132538
-0.135703
-0.124447
-0.132507
-0.113551
-0.114014
-0.116695
-0.106758
-0.113985
-0.0974594
-0.0978422
-0.100105
-0.0913573
-0.0978161
-0.0834418
-0.0837569
-0.085659
-0.0779804
-0.0837331
-0.0712595
-0.0715176
-0.0731104
-0.0663898
-0.0714961
-0.0606981
-0.0609085
-0.0622368
-0.0563722
-0.0608891
-0.0515646
-0.0517353
-0.0528387
-0.0477364
-0.051718
-0.0436863
-0.0438241
-0.0447368
-0.0403116
-0.0438087
-0.0369086
-0.0370192
-0.0377712
-0.0339452
-0.0370057
-0.0310936
-0.0311819
-0.0317989
-0.0285014
-0.03117
-0.0261184
-0.0261886
-0.0266926
-0.0238599
-0.0261782
-0.0218739
-0.0219293
-0.0223393
-0.019914
-0.0219203
-0.0182634
-0.0183069
-0.0186389
-0.0165694
-0.0182991
-0.0152014
-0.0152354
-0.0155031
-0.0137432
-0.0152286
-0.0126126
-0.012639
-0.0128538
-0.0113624
-0.0126332
-0.0104308
-0.0104511
-0.0106228
-0.00936341
-0.0104461
-0.00859788
-0.00861339
-0.00874994
-0.00769035
-0.00860918
-0.00706316
-0.00707494
-0.00718303
-0.00629479
-0.00707138
-0.00578247
-0.00579134
-0.00587649
-0.00513466
-0.00578834
-0.00471743
-0.00472406
-0.00479081
-0.00417361
-0.00472154
-0.00383485
-0.00383975
-0.00389182
-0.00338028
-0.00383765
-0.00310609
-0.00310968
-0.00315009
-0.00272779
-0.00310793
-0.00250654
-0.00250915
-0.00254035
-0.00219309
-0.0025077
-0.00201514
-0.002017
-0.00204096
-0.00175656
-0.00201581
-0.0016139
-0.00161522
-0.00163352
-0.00140155
-0.00161423
-0.00128755
-0.00128846
-0.00130236
-0.00111394
-0.00128766
-0.00102315
-0.00102377
-0.00103427
-0.000881862
-0.00102312
-0.000809798
-0.000810209
-0.000818093
-0.00069534
-0.00080968
-0.000638338
-0.000638601
-0.000644486
-0.000546043
-0.000638175
-0.000501112
-0.000501273
-0.000505638
-0.000427036
-0.000500931
-0.000391746
-0.000391837
-0.000395054
-0.000332571
-0.000391564
-0.000304953
-0.000304999
-0.000307354
-0.000257906
-0.000304781
-0.000236372
-0.000236388
-0.000238101
-0.000199146
-0.000236216
-0.000182418
-0.000182417
-0.000183653
-0.000153105
-0.000182281
-0.00014016
-0.000140149
-0.000141035
-0.00011719
-0.000140043
-0.000107211
-0.000107195
-0.000107825
-8.93002e-05
-0.000107113
-8.16382e-05
-8.16204e-05
-8.20645e-05
-6.77406e-05
-8.15562e-05
-6.1881e-05
-6.18635e-05
-6.21738e-05
-5.11513e-05
-6.18139e-05
-4.66884e-05
-4.66723e-05
-4.68871e-05
-3.84461e-05
-4.66342e-05
-3.50609e-05
-3.50468e-05
-3.5194e-05
-2.87615e-05
-3.50177e-05
-2.62047e-05
-2.61926e-05
-2.62924e-05
-2.14147e-05
-2.61705e-05
-1.94917e-05
-1.94817e-05
-1.95484e-05
-1.58683e-05
-1.9465e-05
-1.44283e-05
-1.44202e-05
-1.44642e-05
-1.17015e-05
-1.44075e-05
-1.0628e-05
-1.06215e-05
-1.065e-05
-8.58665e-06
-1.0612e-05
-7.7899e-06
-7.78477e-06
-7.80299e-06
-6.26982e-06
-7.7777e-06
-5.68119e-06
-5.67718e-06
-5.68852e-06
-4.55526e-06
-5.67197e-06
-4.12236e-06
-4.11929e-06
-4.12616e-06
-3.29284e-06
-4.11545e-06
-2.97601e-06
-2.97367e-06
-2.97766e-06
-2.36817e-06
-2.97083e-06
-2.13735e-06
-2.1356e-06
-2.13782e-06
-1.69438e-06
-2.13354e-06
-1.52704e-06
-1.52576e-06
-1.52685e-06
-1.20599e-06
-1.52426e-06
-1.08529e-06
-1.08432e-06
-1.08479e-06
-8.53884e-07
-1.08324e-06
-7.67238e-07
-7.6652e-07
-7.66641e-07
-6.01362e-07
-7.65745e-07
-5.39484e-07
-5.38952e-07
-5.38882e-07
-4.21254e-07
-5.38406e-07
-3.77298e-07
-3.76917e-07
-3.76774e-07
-2.93493e-07
-3.76508e-07
-2.62398e-07
-2.62154e-07
-2.61965e-07
-2.03373e-07
-2.61873e-07
-1.81509e-07
-1.81308e-07
-1.81179e-07
-1.4015e-07
-1.81146e-07
-1.24872e-07
-1.2474e-07
-1.24568e-07
-9.6045e-08
-1.24575e-07
-8.54069e-08
-8.53149e-08
-8.52012e-08
-6.54278e-08
-8.523e-08
-5.80791e-08
-5.8029e-08
-5.79284e-08
-4.43466e-08
-5.79588e-08
-3.92868e-08
-3.92263e-08
-3.91711e-08
-2.98889e-08
-3.91932e-08
-2.6418e-08
-2.63857e-08
-2.63202e-08
-2.00115e-08
-2.6354e-08
-1.76465e-08
-1.76368e-08
-1.76049e-08
-1.33314e-08
-1.76056e-08
-1.17371e-08
-1.1721e-08
-1.16861e-08
-8.82569e-09
-1.17094e-08
-7.76395e-09
-7.74202e-09
-7.71854e-09
-5.81127e-09
-7.73951e-09
-5.08676e-09
-5.08736e-09
-5.07597e-09
-3.7989e-09
-5.0821e-09
-3.33185e-09
-3.32708e-09
-3.30835e-09
-2.47225e-09
-3.31448e-09
-2.14741e-09
-2.13828e-09
-2.14362e-09
-1.59783e-09
-2.14389e-09
-1.3815e-09
-1.39591e-09
-1.38816e-09
-1.01299e-09
-1.38543e-09
-8.96148e-10
-8.81964e-10
-8.82593e-10
-6.6839e-10
-8.85235e-10
-5.49172e-10
-5.65135e-10
-5.57981e-10
-3.94573e-10
-5.58256e-10
-3.76101e-10
-3.61244e-10
-3.60697e-10
-2.69368e-10
-3.70163e-10
-2.05543e-10
-2.06512e-10
-2.05082e-10
-1.56253e-10
-2.04759e-10
-1.48462e-10
-1.48791e-10
-1.55754e-10
-1.01099e-10
-1.50666e-10
-6.77498e-11
-7.22309e-11
-6.73714e-11
-5.57368e-11
-6.69128e-11
-6.43105e-11
-6.26932e-11
-4.24196e-11
-4.12924e-11
-5.79635e-11
-4.60439e-11
-4.11923e-11
-5.84731e-11
-6.12581e-11
-4.67163e-11
-4.94961e-11
-5.32439e-11
-5.27197e-11
-2.91258e-11
-5.42325e-11
-1.53715e-11
-1.43935e-11
-1.32603e-11
8.58124e-13
-1.34962e-11
7.84539e-14
2.31793e-13
-9.55137e-14
2.8344e-13
3.12399e-13
-3.29566e-14
-3.53849e-14
-3.43881e-14
-4.76112e-14
3.65226e-15
-4.22705e-14
-4.28615e-14
-3.96975e-14
-9.39455e-15
-3.83868e-14
-4.86579e-15
-3.91546e-15
-5.81474e-15
-1.8037e-16
-5.18169e-15
-1.88714e-16
1.71372e-17
-4.83878e-16
-6.21449e-17
-2.95515e-16
-6.66214e-17
-4.9106e-17
-9.98122e-17
-3.44602e-17
-7.453e-17
-2.05801e-17
-1.88099e-17
-2.33376e-17
-4.69544e-18
-2.13839e-17
-2.9614e-18
-2.39537e-18
-3.5203e-18
-3.02939e-19
-3.28584e-18
-3.61782e-19
-2.28027e-19
-4.91353e-19
-5.02144e-20
-4.14332e-19
-6.475e-20
-4.35892e-20
-8.49284e-20
-1.39339e-20
-6.73484e-20
-1.20119e-20
-9.20861e-21
-1.45497e-20
-2.28815e-21
-1.22649e-20
-1.87897e-21
-1.47047e-21
-2.2278e-21
-2.93299e-22
-2.0371e-21
-2.92742e-22
-2.22259e-22
-3.45245e-22
-4.33218e-23
-3.19654e-22
-4.93001e-23
-3.73951e-23
-5.64327e-23
-7.21261e-24
-4.99936e-23
-8.11258e-24
-6.3711e-24
-8.99576e-24
-1.15549e-24
-7.90096e-24
-1.26286e-24
-1.03138e-24
-1.37872e-24
-1.84363e-25
-1.26771e-24
-1.96558e-25
-1.64059e-25
-2.1227e-25
-3.00329e-26
-2.01845e-25
-3.12453e-26
-2.6241e-26
-3.30816e-26
-4.78801e-27
-3.10269e-26
-4.92487e-27
-4.18424e-27
-5.10053e-27
-7.47935e-28
-4.67875e-27
-7.58574e-28
-6.60942e-28
-7.75507e-28
-1.18475e-28
-7.15303e-28
-1.15592e-28
-1.0331e-28
-1.17514e-28
-1.89714e-29
-1.10083e-28
-1.76109e-29
-1.59544e-29
-1.77653e-29
-2.99568e-30
-1.65735e-29
-2.6758e-30
-2.4419e-30
-2.66798e-30
-4.65204e-31
-2.43899e-30
-4.03e-31
-3.72133e-31
-3.9825e-31
-7.18488e-32
-3.58143e-31
-6.00848e-32
-5.6372e-32
-5.91869e-32
-1.10588e-32
-5.27937e-32
-8.89572e-33
-8.45237e-33
-8.74858e-33
-1.68759e-33
-7.71779e-33
-1.31161e-33
-1.25527e-33
-1.28526e-33
-2.55005e-34
-1.11148e-33
-1.92469e-34
-1.85293e-34
-1.87867e-34
-3.82343e-35
-1.58622e-34
-2.80424e-35
-2.72001e-35
-2.73333e-35
-5.6907e-36
-2.25658e-35
-4.05502e-36
-3.96304e-36
-3.95474e-36
-8.39978e-37
-3.19551e-36
-5.82946e-37
-5.72826e-37
-5.68799e-37
-1.22972e-37
-4.48849e-37
-8.33934e-38
-8.22425e-38
-8.13694e-38
-1.78732e-38
-6.25284e-38
-1.18618e-38
-1.17369e-38
-1.15809e-38
-2.57988e-39
-8.65731e-39
-1.67617e-39
-1.66428e-39
-1.63914e-39
-3.69697e-40
-1.19264e-39
-2.35375e-40
-2.34411e-40
-2.30649e-40
-5.2589e-41
-1.63413e-40
-3.28659e-41
-3.2805e-41
-3.22711e-41
-7.42929e-42
-2.22577e-41
-4.56333e-42
-4.56305e-42
-4.49027e-42
-1.04279e-42
-3.01432e-42
-6.29811e-43
-6.30854e-43
-6.21255e-43
-1.45434e-43
-4.06177e-43
-8.63933e-44
-8.66839e-44
-8.54519e-44
-2.01506e-44
-5.44843e-44
-1.17806e-44
-1.18392e-44
-1.16849e-44
-2.77392e-45
-7.27605e-45
-1.59704e-45
-1.60745e-45
-1.58857e-45
-3.79476e-46
-9.67358e-46
-2.1523e-46
-2.1697e-46
-2.14711e-46
-5.15969e-47
-1.28068e-46
-2.88335e-47
-2.91146e-47
-2.88489e-47
-6.97262e-48
-1.6889e-47
-3.83976e-48
-3.88408e-48
-3.8531e-48
-9.36448e-49
-2.21913e-48
-5.08327e-49
-5.15179e-49
-5.11566e-49
-1.24999e-49
-2.9054e-49
-6.68995e-50
-6.79405e-50
-6.75155e-50
-1.65844e-50
-3.79047e-50
-8.75268e-51
-8.90839e-51
-8.85722e-51
-2.18706e-51
-4.92809e-51
-1.13841e-51
-1.16137e-51
-1.15496e-51
-2.8667e-52
-6.38549e-52
-1.47199e-52
-1.50539e-52
-1.49696e-52
-3.73467e-53
-8.24579e-53
-1.89221e-53
-1.94014e-53
-1.92852e-53
-4.83588e-54
-1.06111e-53
-2.41823e-54
-2.4861e-54
-2.46945e-54
-6.22377e-55
-1.36062e-54
-3.07253e-55
-3.16734e-55
-3.1429e-55
-7.96118e-56
-1.73823e-55
-3.88124e-56
-4.01194e-56
-3.97566e-56
-1.01213e-56
-2.21213e-56
-4.87448e-57
-5.0523e-57
-4.99841e-57
-1.27888e-57
-2.80393e-57
-6.0866e-58
-6.32537e-58
-6.24591e-58
-1.606e-58
-3.53912e-58
-7.5564e-59
-7.87283e-59
-7.75702e-59
-2.00441e-59
-4.44738e-59
-9.32723e-60
-9.74112e-60
-9.5747e-60
-2.48622e-60
-5.56293e-60
-1.1447e-60
-1.19814e-60
-1.17458e-60
-3.06479e-61
-6.92475e-61
-1.39679e-61
-1.4649e-61
-1.43208e-61
-3.75462e-62
-8.57659e-62
-1.69463e-62
-1.78031e-62
-1.73529e-62
-4.5712e-63
-1.05669e-62
-2.04418e-63
-2.15057e-63
-2.08977e-63
-5.53081e-64
-1.29486e-63
-2.45168e-64
-2.58208e-64
-2.50115e-64
-6.65024e-65
-1.57784e-64
-2.92351e-65
-3.08123e-65
-2.97508e-65
-7.94641e-66
-1.91159e-65
-3.46606e-66
-3.65428e-66
-3.517e-66
-9.43599e-67
-2.30225e-66
-4.08557e-67
-4.30716e-67
-4.132e-67
-1.11348e-67
-2.756e-67
-4.78792e-68
-5.04516e-68
-4.8246e-68
-1.30572e-68
-3.27883e-68
-5.57841e-69
-5.87274e-69
-5.59856e-69
-1.52157e-69
-3.87637e-69
-6.46151e-70
-6.79323e-70
-6.45661e-70
-1.76198e-70
-4.55361e-70
-7.44059e-71
-7.80853e-71
-7.40027e-71
-2.02756e-71
-5.31465e-71
-8.51762e-72
-8.91884e-72
-8.4296e-72
-2.3185e-72
-6.16241e-72
-9.69296e-73
-1.01224e-72
-9.54295e-73
-2.63451e-73
-7.09833e-73
-1.0965e-73
-1.14153e-73
-1.07369e-73
-2.97472e-74
-8.12211e-74
-1.233e-74
-1.27911e-74
-1.20059e-74
-3.33768e-75
-9.23145e-75
-1.37818e-75
-1.4241e-75
-1.33423e-75
-3.72126e-76
-1.04218e-75
-1.53117e-76
-1.57535e-76
-1.47366e-76
-4.12267e-77
-1.16863e-76
-1.69084e-77
-1.73146e-77
-1.61766e-77
-4.53846e-78
-1.30154e-77
-1.85581e-78
-1.89078e-78
-1.76486e-78
-4.9645e-79
-1.43974e-78
-2.02441e-79
-2.05144e-79
-1.91367e-79
-5.39604e-80
-1.58177e-79
-2.19477e-80
-2.21137e-80
-2.06232e-80
-5.82779e-81
-1.72598e-80
-2.36477e-81
-2.36835e-81
-2.20895e-81
-6.25401e-82
-1.8705e-81
-2.53214e-82
-2.52005e-82
-2.35155e-82
-6.66859e-83
-2.0133e-82
-2.69448e-83
-2.66409e-83
-2.48809e-83
-7.06523e-84
-2.15223e-83
-2.8493e-84
-2.7981e-84
-2.6165e-84
-7.43759e-85
-2.28507e-84
-2.9941e-85
-2.91979e-85
-2.73478e-85
-7.77943e-86
-2.40959e-85
-3.12643e-86
-3.02699e-86
-2.84098e-86
-8.08477e-87
-2.5236e-86
-3.24397e-87
-3.11777e-87
-2.93334e-87
-8.34812e-88
-2.62505e-87
-3.34456e-88
-3.19042e-88
-3.01026e-88
-8.56459e-89
-2.71204e-88
-3.42632e-89
-3.24356e-89
-3.07038e-89
-8.73005e-90
-2.78293e-89
-3.48767e-90
-3.27618e-90
-3.11261e-90
-8.84129e-91
-2.83635e-90
-3.52738e-91
-3.28765e-91
-3.13619e-91
-8.89608e-92
-2.87128e-91
-3.54463e-92
-3.27773e-92
-3.14067e-92
-8.89329e-93
-2.88705e-92
-3.53904e-93
-3.24663e-93
-3.12594e-93
-8.83288e-94
-2.88337e-93
-3.51066e-94
-3.19496e-94
-3.09225e-94
-8.71595e-95
-2.86037e-94
-3.45997e-95
-3.1237e-95
-3.04019e-95
-8.54469e-96
-2.81854e-95
-3.38792e-96
-3.03421e-96
-2.97066e-96
-8.32229e-97
-2.75877e-96
-3.29582e-97
-2.92816e-97
-2.88488e-97
-8.05287e-98
-2.68225e-97
-3.18536e-98
-2.80749e-98
-2.78431e-98
-7.74136e-99
-2.5905e-98
-3.05853e-99
-2.67433e-99
-2.67065e-99
-7.39332e-100
-2.48528e-99
-2.91758e-100
-2.53097e-100
-2.54577e-100
-7.01477e-101
-2.36854e-100
-2.76492e-101
-2.37976e-101
-2.41167e-101
-6.61207e-102
-2.24237e-101
-2.60308e-102
-2.22308e-102
-2.2704e-102
-6.19168e-103
-2.10893e-102
-2.43464e-103
-2.06325e-103
-2.12406e-103
-5.76002e-104
-1.97038e-103
-2.26215e-104
-1.90251e-104
-1.9747e-104
-5.32332e-105
-1.82885e-104
-2.08805e-105
-1.74291e-105
-1.82431e-105
-4.88745e-106
-1.68638e-105
-1.91466e-106
-1.58636e-106
-1.67474e-106
-4.45781e-107
-1.54484e-106
-1.74409e-107
-1.43452e-107
-1.52771e-107
-4.03924e-108
-1.40596e-107
-1.57823e-108
-1.28881e-108
-1.38475e-108
-3.63592e-109
-1.27124e-108
-1.41871e-109
-1.15041e-109
-1.24716e-109
-3.25137e-110
-1.14197e-109
-1.26687e-110
-1.02022e-110
-1.11608e-110
-2.88838e-111
-1.0192e-110
-1.1238e-111
-8.98907e-112
-9.92363e-112
-2.54906e-112
-9.03739e-112
-9.90281e-113
-7.86896e-113
-8.76688e-113
-2.23481e-113
-7.96186e-113
-8.66837e-114
-6.84387e-114
-7.69499e-114
-1.94643e-114
-6.96911e-114
-7.53746e-115
-5.91385e-115
-6.71043e-115
-1.68413e-115
-6.06087e-115
-6.51055e-116
-5.07719e-116
-5.81384e-116
-1.4476e-116
-5.2371e-116
-5.58618e-117
-4.33074e-117
-5.00425e-117
-1.23613e-117
-4.49624e-117
-4.76117e-118
-3.67019e-118
-4.27926e-118
-1.04862e-118
-3.83541e-118
-4.03099e-119
-3.09033e-119
-3.63534e-119
-8.83729e-120
-3.25073e-119
-3.39007e-120
-2.5853e-120
-3.06803e-120
-7.39883e-121
-2.73753e-120
-2.83206e-121
-2.14887e-121
-2.5722e-121
-6.15395e-122
-2.29058e-121
-2.35013e-122
-1.77462e-122
-2.14227e-122
-5.08503e-123
-1.90434e-122
-1.9372e-123
-1.45612e-123
-1.7724e-123
-4.17431e-124
-1.57308e-123
-1.58617e-124
-1.18711e-124
-1.45667e-124
-3.40432e-125
-1.29113e-124
-1.29009e-125
-9.61587e-126
-1.18924e-125
-2.75826e-126
-1.05293e-125
-1.04352e-126
-7.74817e-127
-9.65623e-127
-2.22284e-127
-8.54212e-127
-9.54779e-128
-7.0577e-128
-8.88013e-128
-2.02461e-128
-7.85085e-128
)
;

boundaryField
{
    BotWall
    {
        type            zeroGradient;
    }
    FreeStream
    {
        type            zeroGradient;
    }
    FrontNBack
    {
        type            empty;
    }
    LeftSide
    {
        type            symmetryPlane;
    }
    RightSide
    {
        type            symmetryPlane;
    }
}


// ************************************************************************* //
