/*--------------------------------*- C++ -*----------------------------------*\
| =========                 |                                                 |
| \\      /  F ield         | OpenFOAM: The Open Source CFD Toolbox           |
|  \\    /   O peration     | Version:  2.4.0                                 |
|   \\  /    A nd           | Web:      www.OpenFOAM.org                      |
|    \\/     M anipulation  |                                                 |
\*---------------------------------------------------------------------------*/
FoamFile
{
    version     2.0;
    format      ascii;
    class       volScalarField;
    location    "0.005";
    object      p;
}
// * * * * * * * * * * * * * * * * * * * * * * * * * * * * * * * * * * * * * //

dimensions      [1 -1 -2 0 0 0 0];

internalField   nonuniform List<scalar> 
1500
(
-0.0767483
-0.0766088
-0.0772187
-0.0765002
-0.0768341
0.217737
0.22028
0.224878
0.217831
0.219353
-1.32865
-1.33679
-1.35499
-1.328
-1.33449
-0.182048
-0.183027
-0.185126
-0.181988
-0.182738
0.0328509
0.0330856
0.0336281
0.0328309
0.0330202
0.00319609
0.00328992
0.00352338
0.00318595
0.00326542
-0.0198276
-0.0198255
-0.0197913
-0.0198317
-0.0198231
-0.0244911
-0.024506
-0.0245087
-0.0244942
-0.0244986
-0.023529
-0.023539
-0.0235311
-0.0235324
-0.023533
-0.0228076
-0.0228142
-0.022799
-0.0228112
-0.0228093
-0.0227817
-0.0227877
-0.0227713
-0.0227854
-0.022783
-0.0229608
-0.022967
-0.0229511
-0.0229645
-0.0229622
-0.0231299
-0.0231362
-0.0231206
-0.0231335
-0.0231313
-0.023273
-0.0232793
-0.0232638
-0.0232766
-0.0232744
-0.023409
-0.0234152
-0.0233998
-0.0234126
-0.0234104
-0.0235459
-0.0235522
-0.0235367
-0.0235495
-0.0235474
-0.0236844
-0.0236906
-0.0236753
-0.023688
-0.0236858
-0.0238237
-0.0238299
-0.0238146
-0.0238273
-0.0238251
-0.0239634
-0.0239696
-0.0239544
-0.023967
-0.0239649
-0.0241037
-0.0241098
-0.0240946
-0.0241073
-0.0241051
-0.0242444
-0.0242506
-0.0242354
-0.024248
-0.0242458
-0.0243857
-0.0243918
-0.0243767
-0.0243892
-0.0243871
-0.0245275
-0.0245336
-0.0245186
-0.024531
-0.0245289
-0.0246698
-0.0246759
-0.0246609
-0.0246733
-0.0246712
-0.0248126
-0.0248187
-0.0248038
-0.0248161
-0.024814
-0.024956
-0.024962
-0.0249472
-0.0249595
-0.0249573
-0.0250999
-0.0251059
-0.0250911
-0.0251034
-0.0251012
-0.0252443
-0.0252503
-0.0252355
-0.0252478
-0.0252456
-0.0253892
-0.0253952
-0.0253805
-0.0253927
-0.0253906
-0.0255347
-0.0255406
-0.025526
-0.0255382
-0.025536
-0.0256807
-0.0256866
-0.0256721
-0.0256842
-0.0256821
-0.0258273
-0.0258332
-0.0258187
-0.0258307
-0.0258286
-0.0259744
-0.0259802
-0.0259658
-0.0259778
-0.0259757
-0.026122
-0.0261279
-0.0261135
-0.0261255
-0.0261233
-0.0262702
-0.026276
-0.0262617
-0.0262736
-0.0262715
-0.0264189
-0.0264247
-0.0264105
-0.0264223
-0.0264202
-0.0265682
-0.026574
-0.0265598
-0.0265716
-0.0265695
-0.026718
-0.0267238
-0.0267096
-0.0267214
-0.0267193
-0.0268684
-0.0268741
-0.02686
-0.0268718
-0.0268696
-0.0270193
-0.027025
-0.027011
-0.0270227
-0.0270206
-0.0271708
-0.0271765
-0.0271625
-0.0271742
-0.027172
-0.0273228
-0.0273285
-0.0273146
-0.0273262
-0.0273241
-0.0274754
-0.0274811
-0.0274672
-0.0274788
-0.0274767
-0.0276286
-0.0276342
-0.0276204
-0.0276319
-0.0276298
-0.0277823
-0.0277879
-0.0277742
-0.0277856
-0.0277835
-0.0279366
-0.0279422
-0.0279285
-0.0279399
-0.0279378
-0.0280914
-0.028097
-0.0280834
-0.0280948
-0.0280927
-0.0282469
-0.0282524
-0.0282389
-0.0282502
-0.0282481
-0.0284029
-0.0284084
-0.0283949
-0.0284062
-0.0284041
-0.0285594
-0.0285649
-0.0285515
-0.0285627
-0.0285606
-0.0287166
-0.0287221
-0.0287087
-0.0287199
-0.0287178
-0.0288743
-0.0288798
-0.0288665
-0.0288776
-0.0288755
-0.0290326
-0.0290381
-0.0290248
-0.0290359
-0.0290338
-0.0291915
-0.0291969
-0.0291837
-0.0291948
-0.0291927
-0.029351
-0.0293564
-0.0293433
-0.0293542
-0.0293522
-0.029511
-0.0295164
-0.0295034
-0.0295143
-0.0295122
-0.0296717
-0.0296771
-0.029664
-0.0296749
-0.0296729
-0.0298329
-0.0298383
-0.0298253
-0.0298362
-0.0298341
-0.0299948
-0.0300001
-0.0299872
-0.029998
-0.0299959
-0.0301572
-0.0301625
-0.0301497
-0.0301604
-0.0301584
-0.0303202
-0.0303255
-0.0303127
-0.0303234
-0.0303214
-0.0304839
-0.0304891
-0.0304764
-0.030487
-0.030485
-0.0306481
-0.0306533
-0.0306407
-0.0306513
-0.0306492
-0.0308129
-0.0308181
-0.0308056
-0.0308161
-0.0308141
-0.0309784
-0.0309836
-0.030971
-0.0309815
-0.0309795
-0.0311444
-0.0311496
-0.0311371
-0.0311476
-0.0311455
-0.0313111
-0.0313162
-0.0313038
-0.0313142
-0.0313122
-0.0314784
-0.0314835
-0.0314712
-0.0314815
-0.0314795
-0.0316463
-0.0316514
-0.0316391
-0.0316494
-0.0316474
-0.0318148
-0.0318199
-0.0318076
-0.0318179
-0.0318159
-0.0319839
-0.031989
-0.0319768
-0.031987
-0.031985
-0.0321537
-0.0321587
-0.0321466
-0.0321567
-0.0321547
-0.032324
-0.0323291
-0.032317
-0.0323271
-0.0323251
-0.0324951
-0.0325
-0.0324881
-0.0324981
-0.0324961
-0.0326667
-0.0326717
-0.0326598
-0.0326697
-0.0326677
-0.032839
-0.0328439
-0.0328321
-0.032842
-0.03284
-0.0330119
-0.0330168
-0.033005
-0.0330149
-0.0330129
-0.0331854
-0.0331903
-0.0331786
-0.0331884
-0.0331864
-0.0333596
-0.0333645
-0.0333528
-0.0333626
-0.0333606
-0.0335344
-0.0335393
-0.0335277
-0.0335374
-0.0335354
-0.0337099
-0.0337147
-0.0337032
-0.0337128
-0.0337109
-0.033886
-0.0338908
-0.0338793
-0.0338889
-0.033887
-0.0340627
-0.0340675
-0.0340561
-0.0340656
-0.0340637
-0.0342401
-0.0342449
-0.0342335
-0.034243
-0.0342411
-0.0344182
-0.0344229
-0.0344116
-0.0344211
-0.0344192
-0.0345969
-0.0346016
-0.0345904
-0.0345998
-0.0345979
-0.0347763
-0.034781
-0.0347698
-0.0347791
-0.0347773
-0.0349563
-0.034961
-0.0349499
-0.0349592
-0.0349573
-0.035137
-0.0351417
-0.0351306
-0.0351399
-0.035138
-0.0353184
-0.035323
-0.035312
-0.0353212
-0.0353193
-0.0355004
-0.035505
-0.0354941
-0.0355032
-0.0355014
-0.0356831
-0.0356877
-0.0356768
-0.0356859
-0.035684
-0.0358665
-0.035871
-0.0358602
-0.0358693
-0.0358674
-0.0360505
-0.0360551
-0.0360443
-0.0360533
-0.0360515
-0.0362352
-0.0362398
-0.0362291
-0.036238
-0.0362362
-0.0364206
-0.0364251
-0.0364145
-0.0364234
-0.0364216
-0.0366067
-0.0366112
-0.0366007
-0.0366095
-0.0366077
-0.0367935
-0.0367979
-0.0367875
-0.0367962
-0.0367944
-0.0369809
-0.0369854
-0.036975
-0.0369837
-0.0369819
-0.0371691
-0.0371735
-0.0371632
-0.0371718
-0.03717
-0.0373579
-0.0373623
-0.037352
-0.0373606
-0.0373588
-0.0375475
-0.0375518
-0.0375416
-0.0375502
-0.0375484
-0.0377377
-0.0377421
-0.0377319
-0.0377404
-0.0377386
-0.0379286
-0.037933
-0.0379229
-0.0379313
-0.0379295
-0.0381203
-0.0381246
-0.0381145
-0.0381229
-0.0381212
-0.0383126
-0.0383169
-0.0383069
-0.0383152
-0.0383135
-0.0385057
-0.0385099
-0.0385
-0.0385083
-0.0385065
-0.0386994
-0.0387037
-0.0386938
-0.038702
-0.0387003
-0.0388939
-0.0388981
-0.0388883
-0.0388965
-0.0388948
-0.0390891
-0.0390933
-0.0390836
-0.0390917
-0.03909
-0.039285
-0.0392892
-0.0392795
-0.0392876
-0.0392859
-0.0394816
-0.0394858
-0.0394762
-0.0394842
-0.0394825
-0.039679
-0.0396831
-0.0396736
-0.0396815
-0.0396798
-0.039877
-0.0398812
-0.0398717
-0.0398796
-0.0398779
-0.0400759
-0.0400799
-0.0400705
-0.0400784
-0.0400767
-0.0402754
-0.0402795
-0.0402701
-0.0402779
-0.0402762
-0.0404757
-0.0404797
-0.0404704
-0.0404782
-0.0404765
-0.0406767
-0.0406807
-0.0406715
-0.0406792
-0.0406775
-0.0408784
-0.0408824
-0.0408733
-0.0408809
-0.0408793
-0.0410809
-0.0410849
-0.0410758
-0.0410834
-0.0410818
-0.0412842
-0.0412881
-0.0412791
-0.0412866
-0.041285
-0.0414882
-0.0414921
-0.0414831
-0.0414906
-0.041489
-0.0416929
-0.0416968
-0.0416879
-0.0416953
-0.0416937
-0.0418984
-0.0419023
-0.0418934
-0.0419008
-0.0418992
-0.0421046
-0.0421085
-0.0420997
-0.042107
-0.0421055
-0.0423116
-0.0423155
-0.0423068
-0.042314
-0.0423125
-0.0425194
-0.0425232
-0.0425146
-0.0425218
-0.0425202
-0.042728
-0.0427318
-0.0427232
-0.0427303
-0.0427288
-0.0429373
-0.042941
-0.0429325
-0.0429396
-0.042938
-0.0431473
-0.0431511
-0.0431426
-0.0431496
-0.0431481
-0.0433582
-0.0433619
-0.0433535
-0.0433604
-0.043359
-0.0435698
-0.0435735
-0.0435652
-0.0435721
-0.0435706
-0.0437822
-0.0437859
-0.0437776
-0.0437844
-0.043783
-0.0439954
-0.043999
-0.0439909
-0.0439976
-0.0439962
-0.0442093
-0.044213
-0.0442049
-0.0442116
-0.0442101
-0.0444241
-0.0444277
-0.0444197
-0.0444263
-0.0444249
-0.0446396
-0.0446432
-0.0446352
-0.0446418
-0.0446404
-0.044856
-0.0448596
-0.0448516
-0.0448582
-0.0448567
-0.0450731
-0.0450767
-0.0450688
-0.0450753
-0.0450739
-0.0452911
-0.0452946
-0.0452868
-0.0452932
-0.0452918
-0.0455098
-0.0455133
-0.0455056
-0.0455119
-0.0455105
-0.0457293
-0.0457328
-0.0457251
-0.0457314
-0.0457301
-0.0459497
-0.0459532
-0.0459455
-0.0459518
-0.0459504
-0.0461709
-0.0461743
-0.0461667
-0.0461729
-0.0461716
-0.0463928
-0.0463962
-0.0463888
-0.0463949
-0.0463936
-0.0466156
-0.046619
-0.0466116
-0.0466177
-0.0466164
-0.0468392
-0.0468426
-0.0468353
-0.0468413
-0.04684
-0.0470637
-0.047067
-0.0470597
-0.0470657
-0.0470644
-0.0472889
-0.0472923
-0.047285
-0.0472909
-0.0472897
-0.047515
-0.0475183
-0.0475112
-0.047517
-0.0475157
-0.0477419
-0.0477452
-0.0477381
-0.0477439
-0.0477427
-0.0479697
-0.047973
-0.0479659
-0.0479716
-0.0479704
-0.0481983
-0.0482015
-0.0481946
-0.0482002
-0.048199
-0.0484277
-0.048431
-0.0484241
-0.0484297
-0.0484284
-0.048658
-0.0486612
-0.0486544
-0.0486599
-0.0486587
-0.0488892
-0.0488923
-0.0488856
-0.048891
-0.0488899
-0.0491211
-0.0491243
-0.0491176
-0.049123
-0.0491218
-0.049354
-0.0493571
-0.0493505
-0.0493558
-0.0493547
-0.0495877
-0.0495908
-0.0495842
-0.0495895
-0.0495884
-0.0498222
-0.0498253
-0.0498188
-0.049824
-0.0498229
-0.0500576
-0.0500607
-0.0500543
-0.0500594
-0.0500583
-0.0502939
-0.050297
-0.0502906
-0.0502957
-0.0502946
-0.0505311
-0.0505341
-0.0505278
-0.0505328
-0.0505318
-0.0507691
-0.0507721
-0.0507658
-0.0507708
-0.0507698
-0.051008
-0.051011
-0.0510048
-0.0510097
-0.0510087
-0.0512478
-0.0512507
-0.0512446
-0.0512495
-0.0512485
-0.0514884
-0.0514914
-0.0514853
-0.0514901
-0.0514891
-0.05173
-0.0517329
-0.0517269
-0.0517317
-0.0517307
-0.0519724
-0.0519753
-0.0519694
-0.0519741
-0.0519731
-0.0522158
-0.0522186
-0.0522128
-0.0522174
-0.0522164
-0.05246
-0.0524628
-0.052457
-0.0524616
-0.0524607
-0.0527051
-0.0527079
-0.0527022
-0.0527067
-0.0527058
-0.0529512
-0.0529539
-0.0529483
-0.0529527
-0.0529518
-0.0531981
-0.0532008
-0.0531953
-0.0531996
-0.0531987
-0.0534459
-0.0534487
-0.0534431
-0.0534475
-0.0534466
-0.0536947
-0.0536974
-0.0536919
-0.0536962
-0.0536953
-0.0539444
-0.0539471
-0.0539417
-0.0539459
-0.053945
-0.0541949
-0.0541976
-0.0541923
-0.0541964
-0.0541956
-0.0544465
-0.0544491
-0.0544438
-0.0544479
-0.0544471
-0.0546989
-0.0547015
-0.0546963
-0.0547004
-0.0546995
-0.0549523
-0.0549549
-0.0549497
-0.0549537
-0.0549529
-0.0552066
-0.0552091
-0.0552041
-0.055208
-0.0552072
-0.0554618
-0.0554644
-0.0554594
-0.0554632
-0.0554624
-0.055718
-0.0557205
-0.0557156
-0.0557194
-0.0557186
-0.0559751
-0.0559776
-0.0559728
-0.0559765
-0.0559757
-0.0562332
-0.0562357
-0.0562309
-0.0562345
-0.0562338
-0.0564922
-0.0564946
-0.0564899
-0.0564935
-0.0564928
-0.0567521
-0.0567546
-0.0567499
-0.0567535
-0.0567528
-0.0570131
-0.0570155
-0.0570109
-0.0570144
-0.0570137
-0.057275
-0.0572774
-0.0572728
-0.0572762
-0.0572756
-0.0575378
-0.0575402
-0.0575357
-0.0575391
-0.0575384
-0.0578016
-0.057804
-0.0577996
-0.0578029
-0.0578022
-0.0580664
-0.0580687
-0.0580644
-0.0580676
-0.058067
-0.0583322
-0.0583345
-0.0583302
-0.0583334
-0.0583328
-0.0585989
-0.0586012
-0.058597
-0.0586001
-0.0585995
-0.0588666
-0.0588689
-0.0588648
-0.0588678
-0.0588672
-0.0591354
-0.0591376
-0.0591335
-0.0591365
-0.059136
-0.0594051
-0.0594073
-0.0594033
-0.0594062
-0.0594057
-0.0596757
-0.0596779
-0.059674
-0.0596768
-0.0596763
-0.0599474
-0.0599496
-0.0599458
-0.0599485
-0.059948
-0.0602201
-0.0602223
-0.0602185
-0.0602212
-0.0602207
-0.0604938
-0.0604959
-0.0604922
-0.0604948
-0.0604944
-0.0607685
-0.0607706
-0.060767
-0.0607695
-0.0607691
-0.0610442
-0.0610463
-0.0610427
-0.0610452
-0.0610448
-0.0613209
-0.061323
-0.0613195
-0.0613219
-0.0613215
-0.0615987
-0.0616007
-0.0615973
-0.0615996
-0.0615993
-0.0618775
-0.0618795
-0.0618761
-0.0618784
-0.061878
-0.0621572
-0.0621592
-0.0621559
-0.0621582
-0.0621578
-0.0624381
-0.06244
-0.0624368
-0.062439
-0.0624387
-0.0627199
-0.0627219
-0.0627187
-0.0627208
-0.0627205
-0.0630028
-0.0630047
-0.0630017
-0.0630037
-0.0630034
-0.0632868
-0.0632887
-0.0632856
-0.0632876
-0.0632873
-0.0635717
-0.0635736
-0.0635707
-0.0635725
-0.0635723
-0.0638578
-0.0638596
-0.0638567
-0.0638585
-0.0638583
-0.0641448
-0.0641467
-0.0641439
-0.0641456
-0.0641454
-0.064433
-0.0644348
-0.0644321
-0.0644337
-0.0644336
-0.0647222
-0.064724
-0.0647213
-0.0647229
-0.0647228
-0.0650124
-0.0650142
-0.0650116
-0.0650131
-0.065013
-0.0653038
-0.0653055
-0.065303
-0.0653045
-0.0653044
-0.0655962
-0.0655979
-0.0655954
-0.0655968
-0.0655968
-0.0658897
-0.0658914
-0.065889
-0.0658903
-0.0658902
-0.0661842
-0.0661859
-0.0661836
-0.0661848
-0.0661848
-0.0664799
-0.0664815
-0.0664793
-0.0664805
-0.0664804
-0.0667766
-0.0667782
-0.0667761
-0.0667772
-0.0667772
-0.0670744
-0.067076
-0.0670739
-0.067075
-0.067075
-0.0673734
-0.0673749
-0.0673729
-0.0673739
-0.0673739
-0.0676734
-0.0676749
-0.067673
-0.0676739
-0.067674
-0.0679745
-0.067976
-0.0679742
-0.067975
-0.0679751
-0.0682767
-0.0682783
-0.0682764
-0.0682772
-0.0682773
-0.0685801
-0.0685816
-0.0685798
-0.0685805
-0.0685807
-0.0688846
-0.068886
-0.0688843
-0.068885
-0.0688851
-0.0691901
-0.0691916
-0.06919
-0.0691905
-0.0691907
-0.0694968
-0.0694983
-0.0694967
-0.0694972
-0.0694974
-0.0698047
-0.0698061
-0.0698046
-0.069805
-0.0698053
-0.0701137
-0.070115
-0.0701137
-0.070114
-0.0701142
-0.0704238
-0.0704251
-0.0704238
-0.0704241
-0.0704243
-0.070735
-0.0707364
-0.0707351
-0.0707353
-0.0707356
-0.0710474
-0.0710487
-0.0710476
-0.0710477
-0.071048
-0.071361
-0.0713623
-0.0713612
-0.0713612
-0.0713615
-0.0716757
-0.0716769
-0.0716759
-0.0716759
-0.0716762
-0.0719915
-0.0719928
-0.0719918
-0.0719917
-0.0719921
-0.0723085
-0.0723098
-0.0723089
-0.0723087
-0.0723091
-0.0726267
-0.0726279
-0.0726271
-0.0726269
-0.0726273
-0.0729461
-0.0729473
-0.0729466
-0.0729462
-0.0729467
-0.0732666
-0.0732678
-0.0732672
-0.0732667
-0.0732672
-0.0735883
-0.0735895
-0.0735889
-0.0735884
-0.0735889
-0.0739112
-0.0739124
-0.0739119
-0.0739113
-0.0739118
-0.0742353
-0.0742364
-0.074236
-0.0742354
-0.0742359
-0.0745606
-0.0745617
-0.0745614
-0.0745606
-0.0745612
-0.0748871
-0.0748882
-0.0748879
-0.0748871
-0.0748877
-0.0752148
-0.0752158
-0.0752156
-0.0752147
-0.0752154
-0.0755437
-0.0755447
-0.0755446
-0.0755436
-0.0755443
-0.0758738
-0.0758748
-0.0758747
-0.0758737
-0.0758744
-0.0762051
-0.076206
-0.0762061
-0.0762049
-0.0762057
-0.0765376
-0.0765386
-0.0765387
-0.0765375
-0.0765382
-0.0768714
-0.0768723
-0.0768725
-0.0768712
-0.076872
-0.0772063
-0.0772073
-0.0772075
-0.0772061
-0.077207
-0.0775426
-0.0775434
-0.0775438
-0.0775423
-0.0775432
-0.07788
-0.0778809
-0.0778813
-0.0778798
-0.0778806
-0.0782187
-0.0782196
-0.0782201
-0.0782184
-0.0782193
-0.0785587
-0.0785595
-0.0785601
-0.0785584
-0.0785593
-0.0788999
-0.0789007
-0.0789013
-0.0788995
-0.0789005
-0.0792423
-0.0792431
-0.0792438
-0.079242
-0.0792429
-0.079586
-0.0795868
-0.0795876
-0.0795856
-0.0795866
-0.079931
-0.0799317
-0.0799326
-0.0799306
-0.0799316
-0.0802772
-0.080278
-0.080279
-0.0802768
-0.0802779
-0.0806248
-0.0806255
-0.0806265
-0.0806243
-0.0806254
-0.0809736
-0.0809742
-0.0809754
-0.0809731
-0.0809742
-0.0813236
-0.0813243
-0.0813255
-0.0813231
-0.0813243
-0.081675
-0.0816757
-0.081677
-0.0816745
-0.0816757
-0.0820277
-0.0820283
-0.0820297
-0.0820271
-0.0820283
-0.0823816
-0.0823822
-0.0823837
-0.0823811
-0.0823823
-0.0827369
-0.0827375
-0.0827391
-0.0827363
-0.0827376
-0.0830935
-0.083094
-0.0830957
-0.0830929
-0.0830942
-0.0834514
-0.0834519
-0.0834537
-0.0834507
-0.083452
-0.0838106
-0.0838111
-0.0838129
-0.0838099
-0.0838113
-0.0841711
-0.0841716
-0.0841735
-0.0841704
-0.0841718
-0.084533
-0.0845334
-0.0845354
-0.0845322
-0.0845336
-0.0848961
-0.0848966
-0.0848987
-0.0848954
-0.0848968
-0.0852607
-0.0852611
-0.0852633
-0.0852599
-0.0852614
-0.0856265
-0.085627
-0.0856292
-0.0856257
-0.0856272
-0.0859937
-0.0859942
-0.0859965
-0.0859929
-0.0859944
-0.0863623
-0.0863627
-0.0863651
-0.0863614
-0.086363
-0.0867322
-0.0867326
-0.0867351
-0.0867313
-0.0867329
-0.0871035
-0.0871039
-0.0871065
-0.0871026
-0.0871042
-0.0874762
-0.0874765
-0.0874792
-0.0874752
-0.0874769
-0.0878502
-0.0878505
-0.0878533
-0.0878492
-0.0878509
-0.0882256
-0.0882259
-0.0882287
-0.0882246
-0.0882263
-0.0886023
-0.0886026
-0.0886056
-0.0886013
-0.0886031
-0.0889805
-0.0889808
-0.0889838
-0.0889795
-0.0889813
-0.0893601
-0.0893603
-0.0893635
-0.089359
-0.0893608
-0.089741
-0.0897412
-0.0897445
-0.0897399
-0.0897418
-0.0901234
-0.0901236
-0.0901269
-0.0901222
-0.0901241
-0.0905071
-0.0905073
-0.0905108
-0.090506
-0.0905079
-0.0908923
-0.0908925
-0.090896
-0.0908911
-0.0908931
-0.0912789
-0.0912791
-0.0912827
-0.0912777
-0.0912797
-0.0916669
-0.0916671
-0.0916708
-0.0916657
-0.0916677
-0.0920564
-0.0920565
-0.0920603
-0.0920551
-0.0920572
-0.0924473
-0.0924474
-0.0924513
-0.0924459
-0.0924481
-0.0928391
-0.0928392
-0.0928432
-0.0928378
-0.0928399
)
;

boundaryField
{
    BotWall
    {
        type            calculated;
        value           nonuniform List<scalar> 5(-0.0718049 -0.0716654 -0.0722753 -0.0715568 -0.0718907);
    }
    FreeStream
    {
        type            calculated;
        value           nonuniform List<scalar> 5(-0.0930351 -0.0930353 -0.0930394 -0.0930339 -0.0930359);
    }
    FrontNBack
    {
        type            empty;
    }
    LeftSide
    {
        type            symmetryPlane;
    }
    RightSide
    {
        type            symmetryPlane;
    }
}


// ************************************************************************* //
