/*--------------------------------*- C++ -*----------------------------------*\
| =========                 |                                                 |
| \\      /  F ield         | OpenFOAM: The Open Source CFD Toolbox           |
|  \\    /   O peration     | Version:  2.4.0                                 |
|   \\  /    A nd           | Web:      www.OpenFOAM.org                      |
|    \\/     M anipulation  |                                                 |
\*---------------------------------------------------------------------------*/
FoamFile
{
    version     2.0;
    format      ascii;
    class       volScalarField;
    location    "0.005";
    object      p_rgh;
}
// * * * * * * * * * * * * * * * * * * * * * * * * * * * * * * * * * * * * * //

dimensions      [1 -1 -2 0 0 0 0];

internalField   nonuniform List<scalar> 
1500
(
-0.0718049
-0.0716654
-0.0722753
-0.0715568
-0.0718907
0.232585
0.235129
0.239726
0.232679
0.234201
-1.3183
-1.32636
-1.34438
-1.31766
-1.32408
-0.181472
-0.182451
-0.184551
-0.181412
-0.182162
0.0335926
0.0338274
0.0343698
0.0335727
0.033762
0.00410435
0.00419818
0.00443164
0.00409421
0.00417368
-0.0187522
-0.0187501
-0.018716
-0.0187563
-0.0187478
-0.023248
-0.0232629
-0.0232656
-0.0232511
-0.0232555
-0.0221175
-0.0221276
-0.0221196
-0.022121
-0.0221216
-0.0212272
-0.0212338
-0.0212186
-0.0212309
-0.0212289
-0.0210317
-0.0210378
-0.0210214
-0.0210354
-0.021033
-0.0210406
-0.0210468
-0.0210309
-0.0210443
-0.021042
-0.0210389
-0.0210452
-0.0210296
-0.0210425
-0.0210403
-0.0210105
-0.0210168
-0.0210013
-0.0210141
-0.021012
-0.0209744
-0.0209807
-0.0209652
-0.020978
-0.0209759
-0.0209386
-0.0209449
-0.0209295
-0.0209423
-0.0209401
-0.0209038
-0.02091
-0.0208946
-0.0209074
-0.0209052
-0.020869
-0.0208752
-0.0208599
-0.0208726
-0.0208705
-0.0208342
-0.0208403
-0.0208251
-0.0208378
-0.0208356
-0.0207991
-0.0208053
-0.0207901
-0.0208027
-0.0208005
-0.0207639
-0.0207701
-0.020755
-0.0207675
-0.0207654
-0.0207286
-0.0207348
-0.0207197
-0.0207322
-0.02073
-0.0206932
-0.0206993
-0.0206843
-0.0206968
-0.0206946
-0.0206576
-0.0206637
-0.0206487
-0.0206612
-0.020659
-0.0206219
-0.020628
-0.0206131
-0.0206255
-0.0206233
-0.0205861
-0.0205921
-0.0205773
-0.0205896
-0.0205875
-0.0205501
-0.0205561
-0.0205414
-0.0205537
-0.0205515
-0.020514
-0.02052
-0.0205053
-0.0205176
-0.0205154
-0.0204778
-0.0204838
-0.0204691
-0.0204813
-0.0204792
-0.0204415
-0.0204474
-0.0204328
-0.0204449
-0.0204428
-0.020405
-0.0204109
-0.0203963
-0.0204084
-0.0204063
-0.0203683
-0.0203742
-0.0203597
-0.0203718
-0.0203697
-0.0203316
-0.0203374
-0.020323
-0.020335
-0.0203329
-0.0202947
-0.0203005
-0.0202862
-0.0202981
-0.020296
-0.0202576
-0.0202635
-0.0202492
-0.0202611
-0.0202589
-0.0202205
-0.0202263
-0.020212
-0.0202239
-0.0202218
-0.0201832
-0.0201889
-0.0201747
-0.0201866
-0.0201845
-0.0201457
-0.0201515
-0.0201373
-0.0201491
-0.020147
-0.0201081
-0.0201139
-0.0200998
-0.0201115
-0.0201094
-0.0200704
-0.0200761
-0.0200621
-0.0200738
-0.0200717
-0.0200325
-0.0200383
-0.0200243
-0.0200359
-0.0200338
-0.0199945
-0.0200002
-0.0199863
-0.0199979
-0.0199958
-0.0199564
-0.0199621
-0.0199482
-0.0199598
-0.0199577
-0.0199181
-0.0199238
-0.01991
-0.0199215
-0.0199194
-0.0198797
-0.0198853
-0.0198716
-0.019883
-0.0198809
-0.0198411
-0.0198467
-0.0198331
-0.0198445
-0.0198424
-0.0198024
-0.019808
-0.0197944
-0.0198058
-0.0198037
-0.0197636
-0.0197691
-0.0197556
-0.0197669
-0.0197648
-0.0197246
-0.0197301
-0.0197166
-0.0197279
-0.0197258
-0.0196855
-0.019691
-0.0196775
-0.0196888
-0.0196867
-0.0196462
-0.0196517
-0.0196383
-0.0196495
-0.0196474
-0.0196068
-0.0196122
-0.0195989
-0.01961
-0.019608
-0.0195672
-0.0195726
-0.0195594
-0.0195705
-0.0195684
-0.0195275
-0.0195329
-0.0195197
-0.0195307
-0.0195287
-0.0194876
-0.019493
-0.0194799
-0.0194909
-0.0194888
-0.0194476
-0.019453
-0.0194399
-0.0194508
-0.0194488
-0.0194074
-0.0194128
-0.0193998
-0.0194107
-0.0194086
-0.0193671
-0.0193725
-0.0193595
-0.0193704
-0.0193683
-0.0193267
-0.019332
-0.0193191
-0.0193299
-0.0193279
-0.0192861
-0.0192914
-0.0192786
-0.0192893
-0.0192873
-0.0192453
-0.0192506
-0.0192379
-0.0192485
-0.0192465
-0.0192045
-0.0192097
-0.019197
-0.0192076
-0.0192056
-0.0191634
-0.0191686
-0.019156
-0.0191666
-0.0191645
-0.0191222
-0.0191274
-0.0191148
-0.0191254
-0.0191233
-0.0190808
-0.019086
-0.0190735
-0.019084
-0.019082
-0.0190393
-0.0190445
-0.0190321
-0.0190425
-0.0190405
-0.0189977
-0.0190028
-0.0189904
-0.0190008
-0.0189988
-0.0189559
-0.018961
-0.0189487
-0.018959
-0.018957
-0.0189139
-0.018919
-0.0189067
-0.018917
-0.018915
-0.0188718
-0.0188769
-0.0188647
-0.0188749
-0.0188729
-0.0188295
-0.0188346
-0.0188224
-0.0188326
-0.0188306
-0.0187871
-0.0187921
-0.01878
-0.0187902
-0.0187882
-0.0187445
-0.0187495
-0.0187375
-0.0187476
-0.0187456
-0.0187018
-0.0187068
-0.0186948
-0.0187048
-0.0187028
-0.0186589
-0.0186638
-0.0186519
-0.0186619
-0.0186599
-0.0186158
-0.0186208
-0.0186089
-0.0186188
-0.0186169
-0.0185726
-0.0185775
-0.0185657
-0.0185756
-0.0185736
-0.0185292
-0.0185341
-0.0185224
-0.0185322
-0.0185303
-0.0184857
-0.0184906
-0.0184789
-0.0184887
-0.0184867
-0.018442
-0.0184468
-0.0184352
-0.0184449
-0.018443
-0.0183981
-0.018403
-0.0183914
-0.0184011
-0.0183991
-0.0183541
-0.0183589
-0.0183474
-0.018357
-0.0183551
-0.0183099
-0.0183147
-0.0183033
-0.0183129
-0.0183109
-0.0182656
-0.0182704
-0.018259
-0.0182685
-0.0182666
-0.0182211
-0.0182258
-0.0182145
-0.018224
-0.0182221
-0.0181764
-0.0181811
-0.0181699
-0.0181793
-0.0181774
-0.0181316
-0.0181363
-0.0181251
-0.0181345
-0.0181326
-0.0180866
-0.0180913
-0.0180802
-0.0180894
-0.0180876
-0.0180414
-0.0180461
-0.018035
-0.0180443
-0.0180424
-0.0179961
-0.0180007
-0.0179897
-0.0179989
-0.0179971
-0.0179506
-0.0179552
-0.0179443
-0.0179534
-0.0179515
-0.0179049
-0.0179095
-0.0178987
-0.0179077
-0.0179059
-0.0178591
-0.0178637
-0.0178529
-0.0178619
-0.01786
-0.0178131
-0.0178176
-0.0178069
-0.0178159
-0.017814
-0.0177669
-0.0177714
-0.0177608
-0.0177697
-0.0177679
-0.0177206
-0.0177251
-0.0177145
-0.0177233
-0.0177215
-0.017674
-0.0176785
-0.017668
-0.0176768
-0.017675
-0.0176274
-0.0176318
-0.0176213
-0.0176301
-0.0176283
-0.0175805
-0.017585
-0.0175745
-0.0175832
-0.0175814
-0.0175335
-0.0175379
-0.0175275
-0.0175362
-0.0175344
-0.0174863
-0.0174907
-0.0174804
-0.017489
-0.0174872
-0.0174389
-0.0174433
-0.0174331
-0.0174416
-0.0174398
-0.0173914
-0.0173957
-0.0173855
-0.017394
-0.0173923
-0.0173436
-0.017348
-0.0173379
-0.0173463
-0.0173445
-0.0172957
-0.0173
-0.01729
-0.0172984
-0.0172966
-0.0172477
-0.0172519
-0.017242
-0.0172503
-0.0172485
-0.0171994
-0.0172037
-0.0171938
-0.017202
-0.0172003
-0.017151
-0.0171552
-0.0171454
-0.0171536
-0.0171519
-0.0171024
-0.0171066
-0.0170968
-0.0171049
-0.0171032
-0.0170536
-0.0170578
-0.017048
-0.0170561
-0.0170544
-0.0170046
-0.0170088
-0.0169991
-0.0170072
-0.0170055
-0.0169555
-0.0169596
-0.01695
-0.016958
-0.0169563
-0.0169061
-0.0169103
-0.0169007
-0.0169087
-0.016907
-0.0168566
-0.0168607
-0.0168513
-0.0168591
-0.0168575
-0.0168069
-0.016811
-0.0168016
-0.0168094
-0.0168078
-0.016757
-0.0167611
-0.0167518
-0.0167595
-0.0167579
-0.016707
-0.016711
-0.0167017
-0.0167095
-0.0167078
-0.0166567
-0.0166608
-0.0166515
-0.0166592
-0.0166576
-0.0166063
-0.0166103
-0.0166012
-0.0166088
-0.0166071
-0.0165557
-0.0165597
-0.0165506
-0.0165581
-0.0165565
-0.0165049
-0.0165088
-0.0164998
-0.0165073
-0.0165057
-0.0164539
-0.0164578
-0.0164489
-0.0164563
-0.0164547
-0.0164027
-0.0164066
-0.0163977
-0.0164051
-0.0164036
-0.0163514
-0.0163553
-0.0163464
-0.0163537
-0.0163522
-0.0162998
-0.0163037
-0.0162949
-0.0163022
-0.0163006
-0.0162481
-0.0162519
-0.0162432
-0.0162504
-0.0162489
-0.0161961
-0.0162
-0.0161913
-0.0161985
-0.0161969
-0.016144
-0.0161478
-0.0161392
-0.0161463
-0.0161448
-0.0160917
-0.0160955
-0.016087
-0.016094
-0.0160925
-0.0160392
-0.0160429
-0.0160345
-0.0160415
-0.01604
-0.0159865
-0.0159902
-0.0159818
-0.0159888
-0.0159873
-0.0159336
-0.0159373
-0.015929
-0.0159358
-0.0159344
-0.0158805
-0.0158842
-0.0158759
-0.0158827
-0.0158813
-0.0158272
-0.0158309
-0.0158227
-0.0158294
-0.015828
-0.0157737
-0.0157774
-0.0157692
-0.0157759
-0.0157745
-0.01572
-0.0157237
-0.0157156
-0.0157222
-0.0157208
-0.0156662
-0.0156698
-0.0156618
-0.0156684
-0.0156669
-0.0156121
-0.0156157
-0.0156077
-0.0156143
-0.0156129
-0.0155578
-0.0155614
-0.0155535
-0.01556
-0.0155586
-0.0155033
-0.0155069
-0.0154991
-0.0155055
-0.0155041
-0.0154487
-0.0154522
-0.0154444
-0.0154508
-0.0154494
-0.0153938
-0.0153973
-0.0153896
-0.0153959
-0.0153945
-0.0153387
-0.0153422
-0.0153346
-0.0153408
-0.0153395
-0.0152834
-0.0152869
-0.0152793
-0.0152855
-0.0152842
-0.015228
-0.0152314
-0.0152239
-0.01523
-0.0152287
-0.0151723
-0.0151757
-0.0151682
-0.0151743
-0.015173
-0.0151164
-0.0151197
-0.0151124
-0.0151184
-0.0151171
-0.0150603
-0.0150636
-0.0150563
-0.0150623
-0.015061
-0.015004
-0.0150073
-0.0150001
-0.015006
-0.0150047
-0.0149474
-0.0149508
-0.0149436
-0.0149494
-0.0149482
-0.0148907
-0.014894
-0.0148869
-0.0148927
-0.0148914
-0.0148338
-0.0148371
-0.01483
-0.0148357
-0.0148345
-0.0147767
-0.0147799
-0.0147729
-0.0147786
-0.0147774
-0.0147193
-0.0147225
-0.0147156
-0.0147212
-0.01472
-0.0146617
-0.0146649
-0.0146581
-0.0146636
-0.0146624
-0.014604
-0.0146071
-0.0146004
-0.0146059
-0.0146047
-0.014546
-0.0145491
-0.0145424
-0.0145478
-0.0145467
-0.0144878
-0.0144909
-0.0144843
-0.0144896
-0.0144885
-0.0144294
-0.0144325
-0.0144259
-0.0144312
-0.0144301
-0.0143707
-0.0143738
-0.0143673
-0.0143726
-0.0143714
-0.0143119
-0.014315
-0.0143085
-0.0143137
-0.0143126
-0.0142528
-0.0142559
-0.0142495
-0.0142546
-0.0142535
-0.0141936
-0.0141966
-0.0141903
-0.0141953
-0.0141942
-0.0141341
-0.0141371
-0.0141308
-0.0141358
-0.0141347
-0.0140744
-0.0140773
-0.0140711
-0.0140761
-0.014075
-0.0140144
-0.0140174
-0.0140112
-0.0140161
-0.0140151
-0.0139543
-0.0139572
-0.0139511
-0.0139559
-0.0139549
-0.0138939
-0.0138968
-0.0138908
-0.0138956
-0.0138945
-0.0138333
-0.0138362
-0.0138302
-0.0138349
-0.0138339
-0.0137725
-0.0137753
-0.0137695
-0.0137741
-0.0137731
-0.0137114
-0.0137142
-0.0137085
-0.013713
-0.0137121
-0.0136501
-0.013653
-0.0136472
-0.0136517
-0.0136508
-0.0135886
-0.0135914
-0.0135858
-0.0135902
-0.0135893
-0.0135269
-0.0135297
-0.0135241
-0.0135285
-0.0135276
-0.013465
-0.0134677
-0.0134622
-0.0134665
-0.0134656
-0.0134028
-0.0134055
-0.0134001
-0.0134043
-0.0134034
-0.0133404
-0.0133431
-0.0133377
-0.0133419
-0.013341
-0.0132778
-0.0132804
-0.0132751
-0.0132792
-0.0132784
-0.0132149
-0.0132175
-0.0132123
-0.0132164
-0.0132155
-0.0131518
-0.0131544
-0.0131492
-0.0131532
-0.0131524
-0.0130885
-0.0130911
-0.0130859
-0.0130899
-0.0130891
-0.0130249
-0.0130275
-0.0130224
-0.0130263
-0.0130255
-0.0129611
-0.0129636
-0.0129587
-0.0129625
-0.0129617
-0.0128971
-0.0128996
-0.0128947
-0.0128984
-0.0128977
-0.0128328
-0.0128353
-0.0128304
-0.0128341
-0.0128334
-0.0127683
-0.0127708
-0.012766
-0.0127696
-0.0127689
-0.0127035
-0.012706
-0.0127013
-0.0127049
-0.0127042
-0.0126386
-0.012641
-0.0126363
-0.0126399
-0.0126392
-0.0125733
-0.0125758
-0.0125712
-0.0125746
-0.012574
-0.0125079
-0.0125103
-0.0125058
-0.0125091
-0.0125085
-0.0124422
-0.0124446
-0.0124401
-0.0124434
-0.0124428
-0.0123762
-0.0123786
-0.0123742
-0.0123775
-0.0123768
-0.01231
-0.0123124
-0.0123081
-0.0123113
-0.0123107
-0.0122436
-0.0122459
-0.0122417
-0.0122448
-0.0122442
-0.0121769
-0.0121792
-0.012175
-0.0121781
-0.0121775
-0.01211
-0.0121123
-0.0121082
-0.0121112
-0.0121106
-0.0120429
-0.0120451
-0.012041
-0.012044
-0.0120435
-0.0119754
-0.0119777
-0.0119737
-0.0119766
-0.011976
-0.0119078
-0.01191
-0.0119061
-0.0119089
-0.0119084
-0.0118399
-0.011842
-0.0118382
-0.0118409
-0.0118405
-0.0117717
-0.0117739
-0.0117701
-0.0117728
-0.0117723
-0.0117033
-0.0117054
-0.0117017
-0.0117043
-0.0117039
-0.0116346
-0.0116367
-0.0116331
-0.0116356
-0.0116352
-0.0115657
-0.0115678
-0.0115642
-0.0115667
-0.0115663
-0.0114965
-0.0114986
-0.0114951
-0.0114975
-0.0114971
-0.0114271
-0.0114292
-0.0114257
-0.0114281
-0.0114277
-0.0113574
-0.0113595
-0.0113561
-0.0113584
-0.011358
-0.0112875
-0.0112895
-0.0112862
-0.0112884
-0.0112881
-0.0112173
-0.0112193
-0.011216
-0.0112182
-0.0112179
-0.0111469
-0.0111488
-0.0111456
-0.0111477
-0.0111474
-0.0110761
-0.0110781
-0.011075
-0.011077
-0.0110767
-0.0110052
-0.0110071
-0.0110041
-0.011006
-0.0110058
-0.0109339
-0.0109358
-0.0109329
-0.0109347
-0.0109345
-0.0108624
-0.0108643
-0.0108614
-0.0108632
-0.010863
-0.0107907
-0.0107925
-0.0107897
-0.0107914
-0.0107913
-0.0107187
-0.0107205
-0.0107177
-0.0107194
-0.0107192
-0.0106464
-0.0106482
-0.0106455
-0.0106471
-0.010647
-0.0105738
-0.0105756
-0.010573
-0.0105745
-0.0105744
-0.010501
-0.0105027
-0.0105002
-0.0105017
-0.0105016
-0.0104279
-0.0104296
-0.0104272
-0.0104286
-0.0104285
-0.0103546
-0.0103563
-0.0103539
-0.0103552
-0.0103551
-0.0102809
-0.0102826
-0.0102803
-0.0102815
-0.0102815
-0.010207
-0.0102087
-0.0102064
-0.0102076
-0.0102076
-0.0101329
-0.0101345
-0.0101323
-0.0101334
-0.0101334
-0.0100584
-0.01006
-0.0100579
-0.010059
-0.010059
-0.00998369
-0.00998528
-0.00998324
-0.00998422
-0.00998427
-0.0099087
-0.00991026
-0.0099083
-0.0099092
-0.00990927
-0.00983343
-0.00983497
-0.00983308
-0.00983391
-0.009834
-0.00975788
-0.0097594
-0.00975758
-0.00975834
-0.00975846
-0.00968206
-0.00968355
-0.0096818
-0.00968249
-0.00968263
-0.00960595
-0.00960743
-0.00960575
-0.00960637
-0.00960653
-0.00952957
-0.00953102
-0.00952941
-0.00952996
-0.00953015
-0.0094529
-0.00945433
-0.0094528
-0.00945327
-0.00945348
-0.00937596
-0.00937736
-0.0093759
-0.0093763
-0.00937653
-0.00929872
-0.00930011
-0.00929872
-0.00929905
-0.0092993
-0.00922121
-0.00922257
-0.00922126
-0.00922151
-0.00922179
-0.00914341
-0.00914475
-0.00914351
-0.00914369
-0.00914399
-0.00906532
-0.00906664
-0.00906547
-0.00906558
-0.0090659
-0.00898695
-0.00898825
-0.00898715
-0.00898718
-0.00898753
-0.00890828
-0.00890956
-0.00890854
-0.00890849
-0.00890887
-0.00882933
-0.00883059
-0.00882964
-0.00882952
-0.00882992
-0.00875009
-0.00875132
-0.00875045
-0.00875025
-0.00875067
-0.00867055
-0.00867176
-0.00867097
-0.00867069
-0.00867114
-0.00859073
-0.00859191
-0.00859119
-0.00859084
-0.00859131
-0.0085106
-0.00851177
-0.00851112
-0.0085107
-0.00851119
-0.00843019
-0.00843133
-0.00843076
-0.00843026
-0.00843078
-0.00834947
-0.0083506
-0.0083501
-0.00834952
-0.00835007
-0.00826846
-0.00826957
-0.00826915
-0.00826849
-0.00826906
-0.00818716
-0.00818824
-0.00818789
-0.00818716
-0.00818775
-0.00810555
-0.00810661
-0.00810634
-0.00810552
-0.00810614
-0.00802364
-0.00802468
-0.00802449
-0.00802359
-0.00802424
-0.00794143
-0.00794245
-0.00794233
-0.00794136
-0.00794203
-0.00785892
-0.00785992
-0.00785988
-0.00785882
-0.00785952
-0.0077761
-0.00777708
-0.00777712
-0.00777598
-0.00777671
-0.00769298
-0.00769394
-0.00769405
-0.00769284
-0.00769359
-0.00760956
-0.00761049
-0.00761068
-0.00760939
-0.00761016
-0.00752582
-0.00752673
-0.00752701
-0.00752563
-0.00752643
-0.00744178
-0.00744267
-0.00744302
-0.00744156
-0.00744239
-0.00735743
-0.0073583
-0.00735873
-0.00735719
-0.00735804
-0.00727277
-0.00727361
-0.00727412
-0.0072725
-0.00727338
-0.00718779
-0.00718862
-0.00718921
-0.0071875
-0.00718841
-0.00710251
-0.00710331
-0.00710398
-0.00710219
-0.00710313
-0.00701691
-0.00701769
-0.00701844
-0.00701656
-0.00701753
-0.00693099
-0.00693175
-0.00693258
-0.00693062
-0.00693162
-0.00684476
-0.0068455
-0.00684641
-0.00684436
-0.00684539
-0.00675821
-0.00675893
-0.00675992
-0.00675779
-0.00675884
-0.00667134
-0.00667204
-0.00667312
-0.0066709
-0.00667198
-0.00658415
-0.00658483
-0.00658599
-0.00658368
-0.00658479
-0.00649664
-0.00649731
-0.00649854
-0.00649615
-0.00649729
-0.00640881
-0.00640945
-0.00641077
-0.00640829
-0.00640946
-0.00632066
-0.00632128
-0.00632268
-0.00632011
-0.00632131
-0.00623218
-0.00623278
-0.00623427
-0.00623161
-0.00623283
-0.00614337
-0.00614395
-0.00614552
-0.00614277
-0.00614403
-0.00605424
-0.0060548
-0.00605646
-0.00605362
-0.0060549
-0.00596478
-0.00596532
-0.00596706
-0.00596413
-0.00596545
-0.00587499
-0.00587551
-0.00587734
-0.00587432
-0.00587566
-0.00578487
-0.00578537
-0.00578728
-0.00578417
-0.00578555
-0.00569442
-0.0056949
-0.0056969
-0.00569369
-0.0056951
-0.00560364
-0.0056041
-0.00560618
-0.00560288
-0.00560432
-0.00551252
-0.00551296
-0.00551513
-0.00551173
-0.0055132
-0.00542106
-0.00542149
-0.00542374
-0.00542025
-0.00542175
-0.00532927
-0.00532968
-0.00533202
-0.00532843
-0.00532997
-0.00523714
-0.00523753
-0.00523996
-0.00523628
-0.00523784
-0.00514467
-0.00514504
-0.00514756
-0.00514378
-0.00514538
-0.00505186
-0.00505221
-0.00505482
-0.00505095
-0.00505258
-0.00495871
-0.00495904
-0.00496174
-0.00495777
-0.00495943
-0.00486522
-0.00486553
-0.00486832
-0.00486425
-0.00486594
-0.00477138
-0.00477168
-0.00477455
-0.00477038
-0.00477211
-0.0046772
-0.00467747
-0.00468044
-0.00467617
-0.00467793
-0.00458267
-0.00458293
-0.00458599
-0.00458161
-0.00458341
-0.00448779
-0.00448803
-0.00449118
-0.00448671
-0.00448853
-0.00439256
-0.00439278
-0.00439603
-0.00439145
-0.00439331
-0.00429698
-0.00429719
-0.00430053
-0.00429585
-0.00429774
-0.00420105
-0.00420124
-0.00420467
-0.00419989
-0.00420182
-0.00410476
-0.00410494
-0.00410846
-0.00410357
-0.00410554
-0.00400813
-0.00400828
-0.0040119
-0.00400691
-0.00400891
-0.00391115
-0.00391129
-0.003915
-0.0039099
-0.00391194
-0.00381384
-0.00381396
-0.00381776
-0.00381256
-0.00381463
-0.00371609
-0.00371619
-0.00372009
-0.00371478
-0.00371689
-0.0036175
-0.00361762
-0.00362165
-0.00361622
-0.00361829
)
;

boundaryField
{
    BotWall
    {
        type            fixedFluxPressure;
        gradient        uniform 0;
        value           nonuniform List<scalar> 5(-0.0718049 -0.0716654 -0.0722753 -0.0715568 -0.0718907);
    }
    FreeStream
    {
        type            totalPressure;
        rho             rho;
        psi             none;
        gamma           1;
        p0              uniform 0;
        value           nonuniform List<scalar> 5(-0.00356795 -0.00356809 -0.00357221 -0.00356674 -0.00356872);
    }
    FrontNBack
    {
        type            empty;
    }
    LeftSide
    {
        type            symmetryPlane;
    }
    RightSide
    {
        type            symmetryPlane;
    }
}


// ************************************************************************* //
