/*--------------------------------*- C++ -*----------------------------------*\
| =========                 |                                                 |
| \\      /  F ield         | OpenFOAM: The Open Source CFD Toolbox           |
|  \\    /   O peration     | Version:  2.4.0                                 |
|   \\  /    A nd           | Web:      www.OpenFOAM.org                      |
|    \\/     M anipulation  |                                                 |
\*---------------------------------------------------------------------------*/
FoamFile
{
    version     2.0;
    format      ascii;
    class       surfaceScalarField;
    location    "0.005";
    object      phi;
}
// * * * * * * * * * * * * * * * * * * * * * * * * * * * * * * * * * * * * * //

dimensions      [0 3 -1 0 0 0 0];

internalField   nonuniform List<scalar> 
2695
(
2.92241e-16
-2.92253e-16
1.6889e-16
1.23334e-16
-2.78808e-16
4.47681e-16
-9.59081e-17
-1.82914e-16
-9.59226e-17
8.68071e-16
-2.78253e-15
3.99337e-16
5.92067e-16
-6.90711e-16
1.53769e-15
-3.55005e-16
-1.24433e-15
-1.07522e-15
1.8255e-15
-5.59036e-09
1.35601e-15
-5.59559e-09
-2.17742e-15
-5.60699e-09
-3.9718e-16
-5.59001e-09
-5.59406e-09
2.63647e-15
-5.59036e-09
1.71068e-15
-5.59559e-09
-2.82517e-15
-5.60698e-09
-6.39759e-16
-5.59001e-09
-5.59406e-09
5.2084e-15
-5.59037e-09
2.84918e-15
-5.59558e-09
-4.92936e-15
-5.60698e-09
-1.31817e-15
-5.59002e-09
-5.59407e-09
7.92028e-15
-5.59038e-09
4.59685e-15
-5.59558e-09
-7.91501e-15
-5.60696e-09
-1.70991e-15
-5.59002e-09
-5.59407e-09
1.052e-14
-5.59039e-09
6.25125e-15
-5.59558e-09
-1.07401e-14
-5.60695e-09
-2.10801e-15
-5.59003e-09
-5.59407e-09
1.29673e-14
-5.5904e-09
7.75868e-15
-5.59557e-09
-1.33228e-14
-5.60692e-09
-2.51888e-15
-5.59004e-09
-5.59407e-09
1.5251e-14
-5.59042e-09
9.1554e-15
-5.59557e-09
-1.57141e-14
-5.6069e-09
-2.90834e-15
-5.59006e-09
-5.59407e-09
1.73757e-14
-5.59043e-09
1.04642e-14
-5.59556e-09
-1.79473e-14
-5.60687e-09
-3.26288e-15
-5.59007e-09
-5.59408e-09
1.93442e-14
-5.59045e-09
1.16882e-14
-5.59555e-09
-2.0027e-14
-5.60684e-09
-3.58158e-15
-5.59009e-09
-5.59408e-09
2.11579e-14
-5.59047e-09
1.28267e-14
-5.59554e-09
-2.19526e-14
-5.6068e-09
-3.86509e-15
-5.59011e-09
-5.59409e-09
2.28183e-14
-5.5905e-09
1.38802e-14
-5.59553e-09
-2.37248e-14
-5.60677e-09
-4.11341e-15
-5.59013e-09
-5.59409e-09
2.43275e-14
-5.59052e-09
1.48499e-14
-5.59552e-09
-2.53461e-14
-5.60673e-09
-4.32635e-15
-5.59015e-09
-5.59409e-09
2.56881e-14
-5.59055e-09
1.57377e-14
-5.59551e-09
-2.68195e-14
-5.60668e-09
-4.50392e-15
-5.59017e-09
-5.5941e-09
2.69033e-14
-5.59057e-09
1.65453e-14
-5.5955e-09
-2.81483e-14
-5.60664e-09
-4.64637e-15
-5.59019e-09
-5.5941e-09
2.79767e-14
-5.5906e-09
1.72751e-14
-5.59549e-09
-2.93365e-14
-5.60659e-09
-4.75424e-15
-5.59022e-09
-5.59411e-09
2.89124e-14
-5.59063e-09
1.79291e-14
-5.59548e-09
-3.0388e-14
-5.60654e-09
-4.82826e-15
-5.59024e-09
-5.59411e-09
2.97149e-14
-5.59066e-09
1.851e-14
-5.59547e-09
-3.13074e-14
-5.60649e-09
-4.86937e-15
-5.59027e-09
-5.59412e-09
3.0389e-14
-5.59069e-09
1.90203e-14
-5.59546e-09
-3.20996e-14
-5.60644e-09
-4.87868e-15
-5.5903e-09
-5.59412e-09
3.094e-14
-5.59072e-09
1.94628e-14
-5.59545e-09
-3.27697e-14
-5.60639e-09
-4.8575e-15
-5.59032e-09
-5.59413e-09
3.13733e-14
-5.59075e-09
1.98406e-14
-5.59544e-09
-3.33231e-14
-5.60634e-09
-4.80726e-15
-5.59035e-09
-5.59413e-09
3.16948e-14
-5.59078e-09
2.01565e-14
-5.59542e-09
-3.37655e-14
-5.60628e-09
-4.72957e-15
-5.59038e-09
-5.59414e-09
3.19105e-14
-5.59082e-09
2.04139e-14
-5.59541e-09
-3.41027e-14
-5.60623e-09
-4.62613e-15
-5.59041e-09
-5.59414e-09
3.20265e-14
-5.59085e-09
2.0616e-14
-5.5954e-09
-3.43409e-14
-5.60617e-09
-4.49877e-15
-5.59044e-09
-5.59415e-09
3.20494e-14
-5.59088e-09
2.07661e-14
-5.59539e-09
-3.44861e-14
-5.60612e-09
-4.34937e-15
-5.59047e-09
-5.59415e-09
3.19855e-14
-5.59091e-09
2.08675e-14
-5.59538e-09
-3.45446e-14
-5.60606e-09
-4.17993e-15
-5.5905e-09
-5.59415e-09
3.18415e-14
-5.59094e-09
2.09237e-14
-5.59537e-09
-3.45227e-14
-5.60601e-09
-3.99246e-15
-5.59053e-09
-5.59416e-09
3.16238e-14
-5.59098e-09
2.09381e-14
-5.59536e-09
-3.44268e-14
-5.60595e-09
-3.78903e-15
-5.59056e-09
-5.59416e-09
3.13392e-14
-5.59101e-09
2.09141e-14
-5.59535e-09
-3.42631e-14
-5.6059e-09
-3.57171e-15
-5.59059e-09
-5.59417e-09
3.09941e-14
-5.59104e-09
2.08551e-14
-5.59534e-09
-3.4038e-14
-5.60584e-09
-3.3426e-15
-5.59062e-09
-5.59417e-09
3.0595e-14
-5.59107e-09
2.07643e-14
-5.59533e-09
-3.37576e-14
-5.60579e-09
-3.10375e-15
-5.59065e-09
-5.59417e-09
3.01483e-14
-5.5911e-09
2.06451e-14
-5.59532e-09
-3.3428e-14
-5.60573e-09
-2.85721e-15
-5.59069e-09
-5.59417e-09
2.96601e-14
-5.59113e-09
2.05008e-14
-5.59531e-09
-3.30551e-14
-5.60568e-09
-2.60498e-15
-5.59072e-09
-5.59418e-09
2.91365e-14
-5.59116e-09
2.03342e-14
-5.5953e-09
-3.26447e-14
-5.60563e-09
-2.34901e-15
-5.59075e-09
-5.59418e-09
2.85831e-14
-5.59119e-09
2.01486e-14
-5.59529e-09
-3.22024e-14
-5.60558e-09
-2.09116e-15
-5.59078e-09
-5.59418e-09
2.80057e-14
-5.59121e-09
1.99467e-14
-5.59528e-09
-3.17334e-14
-5.60552e-09
-1.83323e-15
-5.59081e-09
-5.59418e-09
2.74095e-14
-5.59124e-09
1.97314e-14
-5.59528e-09
-3.12428e-14
-5.60547e-09
-1.57693e-15
-5.59084e-09
-5.59419e-09
2.67996e-14
-5.59127e-09
1.95051e-14
-5.59527e-09
-3.07356e-14
-5.60542e-09
-1.32389e-15
-5.59087e-09
-5.59419e-09
2.61807e-14
-5.5913e-09
1.92705e-14
-5.59526e-09
-3.02162e-14
-5.60537e-09
-1.0756e-15
-5.59089e-09
-5.59419e-09
2.55572e-14
-5.59132e-09
1.90299e-14
-5.59526e-09
-2.96889e-14
-5.60532e-09
-8.33474e-16
-5.59092e-09
-5.59419e-09
2.49333e-14
-5.59135e-09
1.87853e-14
-5.59525e-09
-2.91577e-14
-5.60528e-09
-5.98794e-16
-5.59095e-09
-5.59419e-09
2.43128e-14
-5.59137e-09
1.85388e-14
-5.59524e-09
-2.86262e-14
-5.60523e-09
-3.7273e-16
-5.59098e-09
-5.59419e-09
2.36991e-14
-5.59139e-09
1.82923e-14
-5.59524e-09
-2.80979e-14
-5.60518e-09
-1.56332e-16
-5.59101e-09
-5.59419e-09
2.30955e-14
-5.59142e-09
1.80475e-14
-5.59523e-09
-2.75757e-14
-5.60514e-09
4.94656e-17
-5.59104e-09
-5.59419e-09
2.25047e-14
-5.59144e-09
1.78058e-14
-5.59523e-09
-2.70625e-14
-5.60509e-09
2.43849e-16
-5.59106e-09
-5.59419e-09
2.19292e-14
-5.59146e-09
1.75686e-14
-5.59522e-09
-2.65607e-14
-5.60505e-09
4.26137e-16
-5.59109e-09
-5.59419e-09
2.13713e-14
-5.59148e-09
1.73371e-14
-5.59522e-09
-2.60725e-14
-5.60501e-09
5.95755e-16
-5.59112e-09
-5.59419e-09
2.08328e-14
-5.5915e-09
1.71123e-14
-5.59522e-09
-2.55997e-14
-5.60496e-09
7.52246e-16
-5.59114e-09
-5.59419e-09
2.03153e-14
-5.59152e-09
1.68952e-14
-5.59521e-09
-2.51438e-14
-5.60492e-09
8.95262e-16
-5.59117e-09
-5.59419e-09
1.98201e-14
-5.59154e-09
1.66865e-14
-5.59521e-09
-2.47063e-14
-5.60488e-09
1.02456e-15
-5.59119e-09
-5.59419e-09
1.93483e-14
-5.59156e-09
1.64869e-14
-5.59521e-09
-2.42882e-14
-5.60484e-09
1.14e-15
-5.59122e-09
-5.59418e-09
1.89006e-14
-5.59158e-09
1.62967e-14
-5.5952e-09
-2.38902e-14
-5.6048e-09
1.24154e-15
-5.59125e-09
-5.59418e-09
1.84775e-14
-5.5916e-09
1.61165e-14
-5.5952e-09
-2.35131e-14
-5.60476e-09
1.32922e-15
-5.59127e-09
-5.59418e-09
1.80795e-14
-5.59162e-09
1.59464e-14
-5.5952e-09
-2.31572e-14
-5.60472e-09
1.40316e-15
-5.59129e-09
-5.59418e-09
1.77065e-14
-5.59164e-09
1.57865e-14
-5.5952e-09
-2.28227e-14
-5.60468e-09
1.46357e-15
-5.59132e-09
-5.59418e-09
1.73584e-14
-5.59165e-09
1.5637e-14
-5.5952e-09
-2.25096e-14
-5.60464e-09
1.51072e-15
-5.59134e-09
-5.59418e-09
1.70352e-14
-5.59167e-09
1.54979e-14
-5.59519e-09
-2.22177e-14
-5.6046e-09
1.54493e-15
-5.59137e-09
-5.59418e-09
1.67362e-14
-5.59169e-09
1.53689e-14
-5.59519e-09
-2.19468e-14
-5.60457e-09
1.5666e-15
-5.59139e-09
-5.59417e-09
1.64611e-14
-5.5917e-09
1.52499e-14
-5.59519e-09
-2.16965e-14
-5.60453e-09
1.57615e-15
-5.59141e-09
-5.59417e-09
1.62091e-14
-5.59172e-09
1.51408e-14
-5.59519e-09
-2.14662e-14
-5.60449e-09
1.57405e-15
-5.59144e-09
-5.59417e-09
1.59796e-14
-5.59174e-09
1.50411e-14
-5.59519e-09
-2.12552e-14
-5.60446e-09
1.56083e-15
-5.59146e-09
-5.59417e-09
1.57715e-14
-5.59175e-09
1.49506e-14
-5.59519e-09
-2.1063e-14
-5.60442e-09
1.537e-15
-5.59148e-09
-5.59417e-09
1.55842e-14
-5.59177e-09
1.48688e-14
-5.59519e-09
-2.08887e-14
-5.60439e-09
1.50312e-15
-5.5915e-09
-5.59417e-09
1.54165e-14
-5.59178e-09
1.47955e-14
-5.59519e-09
-2.07315e-14
-5.60435e-09
1.45976e-15
-5.59153e-09
-5.59417e-09
1.52675e-14
-5.5918e-09
1.47301e-14
-5.59519e-09
-2.05905e-14
-5.60432e-09
1.4075e-15
-5.59155e-09
-5.59416e-09
1.51362e-14
-5.59181e-09
1.46722e-14
-5.59519e-09
-2.04648e-14
-5.60428e-09
1.34693e-15
-5.59157e-09
-5.59416e-09
1.50214e-14
-5.59183e-09
1.46213e-14
-5.59519e-09
-2.03535e-14
-5.60425e-09
1.27862e-15
-5.59159e-09
-5.59416e-09
1.49223e-14
-5.59184e-09
1.45771e-14
-5.59519e-09
-2.02557e-14
-5.60421e-09
1.20317e-15
-5.59161e-09
-5.59416e-09
1.48376e-14
-5.59186e-09
1.45389e-14
-5.59519e-09
-2.01705e-14
-5.60418e-09
1.12113e-15
-5.59163e-09
-5.59416e-09
1.47664e-14
-5.59187e-09
1.45065e-14
-5.59519e-09
-2.00969e-14
-5.60414e-09
1.03307e-15
-5.59166e-09
-5.59416e-09
1.47077e-14
-5.59189e-09
1.44793e-14
-5.59519e-09
-2.00341e-14
-5.60411e-09
9.3953e-16
-5.59168e-09
-5.59416e-09
1.46605e-14
-5.5919e-09
1.44569e-14
-5.59518e-09
-1.99812e-14
-5.60407e-09
8.41047e-16
-5.5917e-09
-5.59416e-09
1.46237e-14
-5.59192e-09
1.44388e-14
-5.59518e-09
-1.99374e-14
-5.60404e-09
7.38125e-16
-5.59172e-09
-5.59416e-09
1.45966e-14
-5.59193e-09
1.44247e-14
-5.59518e-09
-1.99017e-14
-5.604e-09
6.31256e-16
-5.59174e-09
-5.59415e-09
1.45781e-14
-5.59195e-09
1.44142e-14
-5.59518e-09
-1.98735e-14
-5.60397e-09
5.20905e-16
-5.59176e-09
-5.59415e-09
1.45676e-14
-5.59196e-09
1.44068e-14
-5.59518e-09
-1.98519e-14
-5.60393e-09
4.07518e-16
-5.59178e-09
-5.59415e-09
1.4564e-14
-5.59197e-09
1.44023e-14
-5.59518e-09
-1.98363e-14
-5.6039e-09
2.91515e-16
-5.5918e-09
-5.59415e-09
1.45668e-14
-5.59199e-09
1.44002e-14
-5.59518e-09
-1.98261e-14
-5.60387e-09
1.73292e-16
-5.59182e-09
-5.59415e-09
1.45751e-14
-5.592e-09
1.44003e-14
-5.59518e-09
-1.98205e-14
-5.60383e-09
5.32236e-17
-5.59184e-09
-5.59415e-09
1.45884e-14
-5.59202e-09
1.44023e-14
-5.59518e-09
-1.98189e-14
-5.6038e-09
-6.83508e-17
-5.59186e-09
-5.59415e-09
1.4606e-14
-5.59203e-09
1.44059e-14
-5.59518e-09
-1.9821e-14
-5.60376e-09
-1.91106e-16
-5.59188e-09
-5.59415e-09
1.46274e-14
-5.59205e-09
1.44108e-14
-5.59518e-09
-1.9826e-14
-5.60373e-09
-3.14733e-16
-5.5919e-09
-5.59415e-09
1.46519e-14
-5.59206e-09
1.44169e-14
-5.59518e-09
-1.98336e-14
-5.6037e-09
-4.38954e-16
-5.59192e-09
-5.59415e-09
1.46792e-14
-5.59208e-09
1.44238e-14
-5.59518e-09
-1.98434e-14
-5.60366e-09
-5.63513e-16
-5.59194e-09
-5.59415e-09
1.47087e-14
-5.59209e-09
1.44314e-14
-5.59518e-09
-1.98548e-14
-5.60363e-09
-6.88172e-16
-5.59196e-09
-5.59416e-09
1.47401e-14
-5.59211e-09
1.44395e-14
-5.59518e-09
-1.98677e-14
-5.60359e-09
-8.12717e-16
-5.59198e-09
-5.59416e-09
1.4773e-14
-5.59212e-09
1.4448e-14
-5.59518e-09
-1.98815e-14
-5.60356e-09
-9.3695e-16
-5.59199e-09
-5.59416e-09
1.4807e-14
-5.59214e-09
1.44567e-14
-5.59518e-09
-1.98961e-14
-5.60352e-09
-1.06069e-15
-5.59201e-09
-5.59416e-09
1.48419e-14
-5.59215e-09
1.44654e-14
-5.59518e-09
-1.99112e-14
-5.60349e-09
-1.18378e-15
-5.59203e-09
-5.59416e-09
1.48774e-14
-5.59217e-09
1.44741e-14
-5.59518e-09
-1.99265e-14
-5.60345e-09
-1.30607e-15
-5.59205e-09
-5.59416e-09
1.49132e-14
-5.59218e-09
1.44826e-14
-5.59518e-09
-1.99418e-14
-5.60342e-09
-1.42743e-15
-5.59207e-09
-5.59416e-09
1.4949e-14
-5.5922e-09
1.44908e-14
-5.59518e-09
-1.99569e-14
-5.60339e-09
-1.54773e-15
-5.59209e-09
-5.59416e-09
1.49848e-14
-5.59221e-09
1.44987e-14
-5.59518e-09
-1.99717e-14
-5.60335e-09
-1.66689e-15
-5.59211e-09
-5.59417e-09
1.50204e-14
-5.59223e-09
1.45062e-14
-5.59518e-09
-1.99859e-14
-5.60332e-09
-1.78479e-15
-5.59212e-09
-5.59417e-09
1.50554e-14
-5.59224e-09
1.45132e-14
-5.59518e-09
-1.99995e-14
-5.60328e-09
-1.90136e-15
-5.59214e-09
-5.59417e-09
1.509e-14
-5.59226e-09
1.45196e-14
-5.59518e-09
-2.00123e-14
-5.60325e-09
-2.01652e-15
-5.59216e-09
-5.59417e-09
1.51238e-14
-5.59227e-09
1.45254e-14
-5.59518e-09
-2.00243e-14
-5.60321e-09
-2.13021e-15
-5.59218e-09
-5.59417e-09
1.51569e-14
-5.59229e-09
1.45306e-14
-5.59518e-09
-2.00352e-14
-5.60318e-09
-2.24237e-15
-5.5922e-09
-5.59418e-09
1.5189e-14
-5.5923e-09
1.45351e-14
-5.59518e-09
-2.00452e-14
-5.60314e-09
-2.35295e-15
-5.59221e-09
-5.59418e-09
1.52202e-14
-5.59232e-09
1.45388e-14
-5.59517e-09
-2.0054e-14
-5.60311e-09
-2.46191e-15
-5.59223e-09
-5.59418e-09
1.52504e-14
-5.59233e-09
1.45418e-14
-5.59517e-09
-2.00616e-14
-5.60308e-09
-2.56921e-15
-5.59225e-09
-5.59418e-09
1.52795e-14
-5.59235e-09
1.4544e-14
-5.59517e-09
-2.0068e-14
-5.60304e-09
-2.67483e-15
-5.59227e-09
-5.59419e-09
1.53074e-14
-5.59236e-09
1.45455e-14
-5.59517e-09
-2.00732e-14
-5.60301e-09
-2.77872e-15
-5.59228e-09
-5.59419e-09
1.53341e-14
-5.59238e-09
1.45461e-14
-5.59517e-09
-2.0077e-14
-5.60297e-09
-2.88087e-15
-5.5923e-09
-5.59419e-09
1.53596e-14
-5.59239e-09
1.45458e-14
-5.59517e-09
-2.00795e-14
-5.60294e-09
-2.98126e-15
-5.59232e-09
-5.59419e-09
1.53838e-14
-5.59241e-09
1.45447e-14
-5.59517e-09
-2.00806e-14
-5.6029e-09
-3.07987e-15
-5.59233e-09
-5.5942e-09
1.54067e-14
-5.59242e-09
1.45428e-14
-5.59517e-09
-2.00803e-14
-5.60287e-09
-3.1767e-15
-5.59235e-09
-5.5942e-09
1.54283e-14
-5.59244e-09
1.454e-14
-5.59517e-09
-2.00786e-14
-5.60283e-09
-3.27172e-15
-5.59237e-09
-5.5942e-09
1.54485e-14
-5.59245e-09
1.45362e-14
-5.59517e-09
-2.00755e-14
-5.6028e-09
-3.36494e-15
-5.59238e-09
-5.59421e-09
1.54674e-14
-5.59247e-09
1.45316e-14
-5.59517e-09
-2.00709e-14
-5.60276e-09
-3.45634e-15
-5.5924e-09
-5.59421e-09
1.54849e-14
-5.59249e-09
1.45261e-14
-5.59517e-09
-2.00649e-14
-5.60273e-09
-3.54592e-15
-5.59242e-09
-5.59421e-09
1.55011e-14
-5.5925e-09
1.45198e-14
-5.59516e-09
-2.00574e-14
-5.60269e-09
-3.63368e-15
-5.59243e-09
-5.59422e-09
1.55158e-14
-5.59252e-09
1.45125e-14
-5.59516e-09
-2.00485e-14
-5.60266e-09
-3.71962e-15
-5.59245e-09
-5.59422e-09
1.55291e-14
-5.59253e-09
1.45043e-14
-5.59516e-09
-2.00381e-14
-5.60263e-09
-3.80374e-15
-5.59247e-09
-5.59423e-09
1.55411e-14
-5.59255e-09
1.44952e-14
-5.59516e-09
-2.00263e-14
-5.60259e-09
-3.88604e-15
-5.59248e-09
-5.59423e-09
1.55516e-14
-5.59256e-09
1.44851e-14
-5.59516e-09
-2.0013e-14
-5.60256e-09
-3.96653e-15
-5.5925e-09
-5.59423e-09
1.55607e-14
-5.59258e-09
1.44742e-14
-5.59516e-09
-1.99982e-14
-5.60252e-09
-4.04519e-15
-5.59251e-09
-5.59424e-09
1.55684e-14
-5.59259e-09
1.44624e-14
-5.59516e-09
-1.9982e-14
-5.60249e-09
-4.12205e-15
-5.59253e-09
-5.59424e-09
1.55747e-14
-5.59261e-09
1.44496e-14
-5.59516e-09
-1.99643e-14
-5.60245e-09
-4.1971e-15
-5.59255e-09
-5.59425e-09
1.55796e-14
-5.59263e-09
1.4436e-14
-5.59516e-09
-1.99451e-14
-5.60242e-09
-4.27036e-15
-5.59256e-09
-5.59425e-09
1.55831e-14
-5.59264e-09
1.44214e-14
-5.59516e-09
-1.99245e-14
-5.60238e-09
-4.34182e-15
-5.59258e-09
-5.59425e-09
1.55851e-14
-5.59266e-09
1.44059e-14
-5.59515e-09
-1.99024e-14
-5.60235e-09
-4.41149e-15
-5.59259e-09
-5.59426e-09
1.55858e-14
-5.59267e-09
1.43896e-14
-5.59515e-09
-1.98789e-14
-5.60232e-09
-4.47939e-15
-5.59261e-09
-5.59426e-09
1.55851e-14
-5.59269e-09
1.43723e-14
-5.59515e-09
-1.9854e-14
-5.60228e-09
-4.54551e-15
-5.59262e-09
-5.59427e-09
1.55829e-14
-5.5927e-09
1.43541e-14
-5.59515e-09
-1.98276e-14
-5.60225e-09
-4.60987e-15
-5.59264e-09
-5.59427e-09
1.55794e-14
-5.59272e-09
1.4335e-14
-5.59515e-09
-1.97998e-14
-5.60221e-09
-4.67248e-15
-5.59265e-09
-5.59428e-09
1.55745e-14
-5.59273e-09
1.4315e-14
-5.59515e-09
-1.97706e-14
-5.60218e-09
-4.73335e-15
-5.59267e-09
-5.59428e-09
1.55681e-14
-5.59275e-09
1.42941e-14
-5.59515e-09
-1.974e-14
-5.60214e-09
-4.79248e-15
-5.59268e-09
-5.59429e-09
1.55605e-14
-5.59277e-09
1.42723e-14
-5.59515e-09
-1.97079e-14
-5.60211e-09
-4.84989e-15
-5.5927e-09
-5.59429e-09
1.55514e-14
-5.59278e-09
1.42496e-14
-5.59514e-09
-1.96745e-14
-5.60208e-09
-4.90558e-15
-5.59271e-09
-5.5943e-09
1.5541e-14
-5.5928e-09
1.42261e-14
-5.59514e-09
-1.96397e-14
-5.60204e-09
-4.95958e-15
-5.59273e-09
-5.5943e-09
1.55292e-14
-5.59281e-09
1.42016e-14
-5.59514e-09
-1.96035e-14
-5.60201e-09
-5.01188e-15
-5.59274e-09
-5.59431e-09
1.55161e-14
-5.59283e-09
1.41763e-14
-5.59514e-09
-1.95659e-14
-5.60198e-09
-5.0625e-15
-5.59276e-09
-5.59431e-09
1.55016e-14
-5.59284e-09
1.41501e-14
-5.59514e-09
-1.95269e-14
-5.60194e-09
-5.11146e-15
-5.59277e-09
-5.59432e-09
1.54858e-14
-5.59286e-09
1.4123e-14
-5.59514e-09
-1.94866e-14
-5.60191e-09
-5.15876e-15
-5.59279e-09
-5.59432e-09
1.54686e-14
-5.59287e-09
1.40951e-14
-5.59514e-09
-1.9445e-14
-5.60187e-09
-5.20442e-15
-5.5928e-09
-5.59433e-09
1.54501e-14
-5.59289e-09
1.40662e-14
-5.59513e-09
-1.9402e-14
-5.60184e-09
-5.24845e-15
-5.59281e-09
-5.59433e-09
1.54304e-14
-5.59291e-09
1.40366e-14
-5.59513e-09
-1.93577e-14
-5.60181e-09
-5.29087e-15
-5.59283e-09
-5.59434e-09
1.54093e-14
-5.59292e-09
1.4006e-14
-5.59513e-09
-1.9312e-14
-5.60177e-09
-5.33169e-15
-5.59284e-09
-5.59434e-09
1.53869e-14
-5.59294e-09
1.39746e-14
-5.59513e-09
-1.92651e-14
-5.60174e-09
-5.37092e-15
-5.59286e-09
-5.59435e-09
1.53633e-14
-5.59295e-09
1.39424e-14
-5.59513e-09
-1.92168e-14
-5.60171e-09
-5.40858e-15
-5.59287e-09
-5.59435e-09
1.53383e-14
-5.59297e-09
1.39093e-14
-5.59513e-09
-1.91672e-14
-5.60168e-09
-5.44469e-15
-5.59288e-09
-5.59436e-09
1.53121e-14
-5.59298e-09
1.38754e-14
-5.59513e-09
-1.91164e-14
-5.60164e-09
-5.47925e-15
-5.5929e-09
-5.59436e-09
1.52847e-14
-5.593e-09
1.38406e-14
-5.59512e-09
-1.90643e-14
-5.60161e-09
-5.5123e-15
-5.59291e-09
-5.59437e-09
1.5256e-14
-5.59301e-09
1.3805e-14
-5.59512e-09
-1.90109e-14
-5.60158e-09
-5.54383e-15
-5.59292e-09
-5.59438e-09
1.52261e-14
-5.59303e-09
1.37686e-14
-5.59512e-09
-1.89563e-14
-5.60154e-09
-5.57388e-15
-5.59294e-09
-5.59438e-09
1.5195e-14
-5.59304e-09
1.37314e-14
-5.59512e-09
-1.89005e-14
-5.60151e-09
-5.60245e-15
-5.59295e-09
-5.59439e-09
1.51627e-14
-5.59306e-09
1.36934e-14
-5.59512e-09
-1.88434e-14
-5.60148e-09
-5.62957e-15
-5.59296e-09
-5.59439e-09
1.51292e-14
-5.59307e-09
1.36546e-14
-5.59512e-09
-1.87851e-14
-5.60145e-09
-5.65525e-15
-5.59298e-09
-5.5944e-09
1.50945e-14
-5.59309e-09
1.36149e-14
-5.59512e-09
-1.87256e-14
-5.60141e-09
-5.67951e-15
-5.59299e-09
-5.5944e-09
1.50587e-14
-5.5931e-09
1.35745e-14
-5.59511e-09
-1.86649e-14
-5.60138e-09
-5.70236e-15
-5.593e-09
-5.59441e-09
1.50217e-14
-5.59312e-09
1.35333e-14
-5.59511e-09
-1.86031e-14
-5.60135e-09
-5.72384e-15
-5.59302e-09
-5.59441e-09
1.49835e-14
-5.59313e-09
1.34914e-14
-5.59511e-09
-1.854e-14
-5.60132e-09
-5.74396e-15
-5.59303e-09
-5.59442e-09
1.49443e-14
-5.59315e-09
1.34486e-14
-5.59511e-09
-1.84758e-14
-5.60129e-09
-5.76273e-15
-5.59304e-09
-5.59443e-09
1.49039e-14
-5.59316e-09
1.34051e-14
-5.59511e-09
-1.84105e-14
-5.60125e-09
-5.78019e-15
-5.59306e-09
-5.59443e-09
1.48625e-14
-5.59318e-09
1.33609e-14
-5.59511e-09
-1.8344e-14
-5.60122e-09
-5.79634e-15
-5.59307e-09
-5.59444e-09
1.482e-14
-5.59319e-09
1.33159e-14
-5.59511e-09
-1.82764e-14
-5.60119e-09
-5.81122e-15
-5.59308e-09
-5.59444e-09
1.47764e-14
-5.59321e-09
1.32702e-14
-5.5951e-09
-1.82077e-14
-5.60116e-09
-5.82483e-15
-5.59309e-09
-5.59445e-09
1.47318e-14
-5.59322e-09
1.32238e-14
-5.5951e-09
-1.8138e-14
-5.60113e-09
-5.83721e-15
-5.5931e-09
-5.59446e-09
1.46861e-14
-5.59324e-09
1.31766e-14
-5.5951e-09
-1.80671e-14
-5.6011e-09
-5.84838e-15
-5.59312e-09
-5.59446e-09
1.46395e-14
-5.59325e-09
1.31288e-14
-5.5951e-09
-1.79952e-14
-5.60107e-09
-5.85836e-15
-5.59313e-09
-5.59447e-09
1.45919e-14
-5.59327e-09
1.30802e-14
-5.5951e-09
-1.79222e-14
-5.60103e-09
-5.86717e-15
-5.59314e-09
-5.59447e-09
1.45433e-14
-5.59328e-09
1.3031e-14
-5.5951e-09
-1.78482e-14
-5.601e-09
-5.87484e-15
-5.59315e-09
-5.59448e-09
1.44937e-14
-5.5933e-09
1.29811e-14
-5.59509e-09
-1.77732e-14
-5.60097e-09
-5.88139e-15
-5.59317e-09
-5.59448e-09
1.44432e-14
-5.59331e-09
1.29305e-14
-5.59509e-09
-1.76972e-14
-5.60094e-09
-5.88685e-15
-5.59318e-09
-5.59449e-09
1.43919e-14
-5.59332e-09
1.28793e-14
-5.59509e-09
-1.76202e-14
-5.60091e-09
-5.89124e-15
-5.59319e-09
-5.5945e-09
1.43396e-14
-5.59334e-09
1.28275e-14
-5.59509e-09
-1.75422e-14
-5.60088e-09
-5.89459e-15
-5.5932e-09
-5.5945e-09
1.42864e-14
-5.59335e-09
1.2775e-14
-5.59509e-09
-1.74633e-14
-5.60085e-09
-5.89693e-15
-5.59321e-09
-5.59451e-09
1.42324e-14
-5.59337e-09
1.27219e-14
-5.59509e-09
-1.73834e-14
-5.60082e-09
-5.89827e-15
-5.59322e-09
-5.59451e-09
1.41776e-14
-5.59338e-09
1.26682e-14
-5.59509e-09
-1.73026e-14
-5.60079e-09
-5.89866e-15
-5.59323e-09
-5.59452e-09
1.4122e-14
-5.5934e-09
1.26139e-14
-5.59508e-09
-1.72209e-14
-5.60076e-09
-5.89812e-15
-5.59325e-09
-5.59453e-09
1.40656e-14
-5.59341e-09
1.2559e-14
-5.59508e-09
-1.71382e-14
-5.60073e-09
-5.89667e-15
-5.59326e-09
-5.59453e-09
1.40085e-14
-5.59342e-09
1.25035e-14
-5.59508e-09
-1.70548e-14
-5.6007e-09
-5.89435e-15
-5.59327e-09
-5.59454e-09
1.39506e-14
-5.59344e-09
1.24475e-14
-5.59508e-09
-1.69704e-14
-5.60067e-09
-5.89118e-15
-5.59328e-09
-5.59454e-09
1.3892e-14
-5.59345e-09
1.2391e-14
-5.59508e-09
-1.68853e-14
-5.60064e-09
-5.8872e-15
-5.59329e-09
-5.59455e-09
1.38327e-14
-5.59347e-09
1.23339e-14
-5.59508e-09
-1.67993e-14
-5.60061e-09
-5.88245e-15
-5.5933e-09
-5.59456e-09
1.37728e-14
-5.59348e-09
1.22763e-14
-5.59508e-09
-1.67125e-14
-5.60058e-09
-5.87694e-15
-5.59331e-09
-5.59456e-09
1.37122e-14
-5.59349e-09
1.22183e-14
-5.59507e-09
-1.66249e-14
-5.60056e-09
-5.87072e-15
-5.59332e-09
-5.59457e-09
1.36511e-14
-5.59351e-09
1.21597e-14
-5.59507e-09
-1.65365e-14
-5.60053e-09
-5.86381e-15
-5.59333e-09
-5.59457e-09
1.35893e-14
-5.59352e-09
1.21007e-14
-5.59507e-09
-1.64475e-14
-5.6005e-09
-5.85626e-15
-5.59334e-09
-5.59458e-09
1.3527e-14
-5.59353e-09
1.20413e-14
-5.59507e-09
-1.63577e-14
-5.60047e-09
-5.8481e-15
-5.59335e-09
-5.59458e-09
1.34642e-14
-5.59355e-09
1.19814e-14
-5.59507e-09
-1.62671e-14
-5.60044e-09
-5.83936e-15
-5.59337e-09
-5.59459e-09
1.3401e-14
-5.59356e-09
1.19211e-14
-5.59507e-09
-1.6176e-14
-5.60041e-09
-5.83008e-15
-5.59338e-09
-5.5946e-09
1.33372e-14
-5.59357e-09
1.18604e-14
-5.59506e-09
-1.60841e-14
-5.60039e-09
-5.8203e-15
-5.59339e-09
-5.5946e-09
1.32731e-14
-5.59359e-09
1.17994e-14
-5.59506e-09
-1.59916e-14
-5.60036e-09
-5.81005e-15
-5.5934e-09
-5.59461e-09
1.32085e-14
-5.5936e-09
1.1738e-14
-5.59506e-09
-1.58986e-14
-5.60033e-09
-5.79938e-15
-5.59341e-09
-5.59461e-09
1.31436e-14
-5.59361e-09
1.16762e-14
-5.59506e-09
-1.58049e-14
-5.6003e-09
-5.78833e-15
-5.59342e-09
-5.59462e-09
1.30784e-14
-5.59363e-09
1.16142e-14
-5.59506e-09
-1.57106e-14
-5.60028e-09
-5.77694e-15
-5.59343e-09
-5.59463e-09
1.30128e-14
-5.59364e-09
1.15518e-14
-5.59506e-09
-1.56159e-14
-5.60025e-09
-5.76525e-15
-5.59344e-09
-5.59463e-09
1.29471e-14
-5.59365e-09
1.14892e-14
-5.59506e-09
-1.55206e-14
-5.60022e-09
-5.7533e-15
-5.59345e-09
-5.59464e-09
1.28811e-14
-5.59367e-09
1.14263e-14
-5.59505e-09
-1.54248e-14
-5.60019e-09
-5.74114e-15
-5.59346e-09
-5.59464e-09
1.28149e-14
-5.59368e-09
1.13632e-14
-5.59505e-09
-1.53285e-14
-5.60017e-09
-5.72882e-15
-5.59346e-09
-5.59465e-09
1.27486e-14
-5.59369e-09
1.13e-14
-5.59505e-09
-1.52319e-14
-5.60014e-09
-5.71638e-15
-5.59347e-09
-5.59465e-09
1.26823e-14
-5.5937e-09
1.12365e-14
-5.59505e-09
-1.51348e-14
-5.60012e-09
-5.70387e-15
-5.59348e-09
-5.59466e-09
1.26158e-14
-5.59372e-09
1.11729e-14
-5.59505e-09
-1.50373e-14
-5.60009e-09
-5.69134e-15
-5.59349e-09
-5.59467e-09
1.25494e-14
-5.59373e-09
1.11091e-14
-5.59505e-09
-1.49395e-14
-5.60006e-09
-5.67884e-15
-5.5935e-09
-5.59467e-09
1.2483e-14
-5.59374e-09
1.10453e-14
-5.59505e-09
-1.48414e-14
-5.60004e-09
-5.66642e-15
-5.59351e-09
-5.59468e-09
1.24167e-14
-5.59375e-09
1.09814e-14
-5.59504e-09
-1.4743e-14
-5.60001e-09
-5.65415e-15
-5.59352e-09
-5.59468e-09
1.23505e-14
-5.59377e-09
1.09175e-14
-5.59504e-09
-1.46444e-14
-5.59999e-09
-5.64207e-15
-5.59353e-09
-5.59469e-09
1.22845e-14
-5.59378e-09
1.08536e-14
-5.59504e-09
-1.45455e-14
-5.59996e-09
-5.63023e-15
-5.59354e-09
-5.59469e-09
1.22188e-14
-5.59379e-09
1.07897e-14
-5.59504e-09
-1.44465e-14
-5.59994e-09
-5.61871e-15
-5.59355e-09
-5.5947e-09
1.21533e-14
-5.5938e-09
1.07258e-14
-5.59504e-09
-1.43473e-14
-5.59991e-09
-5.60756e-15
-5.59356e-09
-5.5947e-09
1.20882e-14
-5.59381e-09
1.06621e-14
-5.59504e-09
-1.4248e-14
-5.59989e-09
-5.59684e-15
-5.59356e-09
-5.59471e-09
1.20235e-14
-5.59383e-09
1.05984e-14
-5.59504e-09
-1.41486e-14
-5.59986e-09
-5.58661e-15
-5.59357e-09
-5.59472e-09
1.19592e-14
-5.59384e-09
1.0535e-14
-5.59503e-09
-1.40493e-14
-5.59984e-09
-5.57695e-15
-5.59358e-09
-5.59472e-09
1.18955e-14
-5.59385e-09
1.04718e-14
-5.59503e-09
-1.39499e-14
-5.59981e-09
-5.56792e-15
-5.59359e-09
-5.59473e-09
1.18323e-14
-5.59386e-09
1.04088e-14
-5.59503e-09
-1.38507e-14
-5.59979e-09
-5.55958e-15
-5.5936e-09
-5.59473e-09
1.17698e-14
-5.59387e-09
1.03461e-14
-5.59503e-09
-1.37515e-14
-5.59976e-09
-5.55202e-15
-5.59361e-09
-5.59474e-09
1.1708e-14
-5.59389e-09
1.02837e-14
-5.59503e-09
-1.36525e-14
-5.59974e-09
-5.5453e-15
-5.59361e-09
-5.59474e-09
1.1647e-14
-5.5939e-09
1.02218e-14
-5.59503e-09
-1.35537e-14
-5.59972e-09
-5.53951e-15
-5.59362e-09
-5.59475e-09
1.15869e-14
-5.59391e-09
1.01602e-14
-5.59503e-09
-1.34552e-14
-5.59969e-09
-5.53471e-15
-5.59363e-09
-5.59475e-09
1.15277e-14
-5.59392e-09
1.00991e-14
-5.59502e-09
-1.3357e-14
-5.59967e-09
-5.53099e-15
-5.59364e-09
-5.59476e-09
1.14695e-14
-5.59393e-09
1.00386e-14
-5.59502e-09
-1.32591e-14
-5.59964e-09
-5.52843e-15
-5.59365e-09
-5.59477e-09
1.14124e-14
-5.59394e-09
9.97859e-15
-5.59502e-09
-1.31617e-14
-5.59962e-09
-5.52712e-15
-5.59365e-09
-5.59477e-09
1.13564e-14
-5.59395e-09
9.91924e-15
-5.59502e-09
-1.30648e-14
-5.5996e-09
-5.52713e-15
-5.59366e-09
-5.59478e-09
1.13017e-14
-5.59397e-09
9.86058e-15
-5.59502e-09
-1.29684e-14
-5.59958e-09
-5.52856e-15
-5.59367e-09
-5.59478e-09
1.12484e-14
-5.59398e-09
9.80266e-15
-5.59502e-09
-1.28727e-14
-5.59955e-09
-5.53149e-15
-5.59368e-09
-5.59479e-09
1.11964e-14
-5.59399e-09
9.74554e-15
-5.59502e-09
-1.27776e-14
-5.59953e-09
-5.53602e-15
-5.59368e-09
-5.59479e-09
1.11459e-14
-5.594e-09
9.68928e-15
-5.59501e-09
-1.26833e-14
-5.59951e-09
-5.54223e-15
-5.59369e-09
-5.5948e-09
1.1097e-14
-5.59401e-09
9.63395e-15
-5.59501e-09
-1.25899e-14
-5.59949e-09
-5.55023e-15
-5.5937e-09
-5.5948e-09
1.10498e-14
-5.59402e-09
9.57961e-15
-5.59501e-09
-1.24973e-14
-5.59946e-09
-5.5601e-15
-5.5937e-09
-5.59481e-09
1.10043e-14
-5.59403e-09
9.52632e-15
-5.59501e-09
-1.24057e-14
-5.59944e-09
-5.57193e-15
-5.59371e-09
-5.59482e-09
1.09607e-14
-5.59404e-09
9.47416e-15
-5.59501e-09
-1.23151e-14
-5.59942e-09
-5.58583e-15
-5.59372e-09
-5.59482e-09
1.0919e-14
-5.59405e-09
9.42319e-15
-5.59501e-09
-1.22258e-14
-5.5994e-09
-5.60189e-15
-5.59372e-09
-5.59483e-09
1.08794e-14
-5.59407e-09
9.37348e-15
-5.59501e-09
-1.21376e-14
-5.59938e-09
-5.62019e-15
-5.59373e-09
-5.59483e-09
1.08418e-14
-5.59408e-09
9.32511e-15
-5.595e-09
-1.20508e-14
-5.59936e-09
-5.64084e-15
-5.59374e-09
-5.59484e-09
1.08065e-14
-5.59409e-09
9.27815e-15
-5.595e-09
-1.19653e-14
-5.59933e-09
-5.66393e-15
-5.59374e-09
-5.59484e-09
1.07735e-14
-5.5941e-09
9.23269e-15
-5.595e-09
-1.18814e-14
-5.59931e-09
-5.68955e-15
-5.59375e-09
-5.59485e-09
1.07429e-14
-5.59411e-09
9.1888e-15
-5.595e-09
-1.17991e-14
-5.59929e-09
-5.71779e-15
-5.59376e-09
-5.59486e-09
1.07147e-14
-5.59412e-09
9.14656e-15
-5.595e-09
-1.17186e-14
-5.59927e-09
-5.74874e-15
-5.59376e-09
-5.59486e-09
1.06891e-14
-5.59413e-09
9.10606e-15
-5.595e-09
-1.16398e-14
-5.59925e-09
-5.78247e-15
-5.59377e-09
-5.59487e-09
1.06662e-14
-5.59414e-09
9.06739e-15
-5.59499e-09
-1.15631e-14
-5.59923e-09
-5.81908e-15
-5.59377e-09
-5.59487e-09
1.0646e-14
-5.59415e-09
9.03063e-15
-5.59499e-09
-1.14883e-14
-5.59921e-09
-5.85864e-15
-5.59378e-09
-5.59488e-09
1.06286e-14
-5.59416e-09
8.99588e-15
-5.59499e-09
-1.14158e-14
-5.59919e-09
-5.90122e-15
-5.59379e-09
-5.59488e-09
1.06142e-14
-5.59417e-09
8.96324e-15
-5.59499e-09
-1.13456e-14
-5.59917e-09
-5.94689e-15
-5.59379e-09
-5.59489e-09
1.06027e-14
-5.59418e-09
8.93281e-15
-5.59499e-09
-1.12779e-14
-5.59915e-09
-5.99571e-15
-5.5938e-09
-5.5949e-09
1.05942e-14
-5.59419e-09
8.90469e-15
-5.59499e-09
-1.12127e-14
-5.59913e-09
-6.04774e-15
-5.5938e-09
-5.5949e-09
1.05889e-14
-5.5942e-09
8.87898e-15
-5.59498e-09
-1.11503e-14
-5.59911e-09
-6.10302e-15
-5.59381e-09
-5.59491e-09
1.05868e-14
-5.59422e-09
8.85581e-15
-5.59498e-09
-1.10908e-14
-5.59909e-09
-6.1616e-15
-5.59381e-09
-5.59491e-09
1.05879e-14
-5.59423e-09
8.83527e-15
-5.59498e-09
-1.10343e-14
-5.59907e-09
-6.22351e-15
-5.59382e-09
-5.59492e-09
1.05923e-14
-5.59424e-09
8.8175e-15
-5.59498e-09
-1.0981e-14
-5.59905e-09
-6.28878e-15
-5.59382e-09
-5.59493e-09
1.06001e-14
-5.59425e-09
8.80262e-15
-5.59498e-09
-1.09311e-14
-5.59903e-09
-6.35741e-15
-5.59382e-09
-5.59493e-09
1.06113e-14
-5.59426e-09
8.79075e-15
-5.59498e-09
-1.08846e-14
-5.59901e-09
-6.42942e-15
-5.59383e-09
-5.59494e-09
1.0626e-14
-5.59427e-09
8.78202e-15
-5.59497e-09
-1.08419e-14
-5.59899e-09
-6.5048e-15
-5.59383e-09
-5.59495e-09
1.06442e-14
-5.59428e-09
8.77656e-15
-5.59497e-09
-1.0803e-14
-5.59897e-09
-6.58351e-15
-5.59384e-09
-5.59495e-09
1.06659e-14
-5.59429e-09
8.77451e-15
-5.59497e-09
-1.07681e-14
-5.59895e-09
-6.66554e-15
-5.59384e-09
-5.59496e-09
1.06912e-14
-5.5943e-09
8.77598e-15
-5.59497e-09
-1.07373e-14
-5.59893e-09
-6.75082e-15
-5.59385e-09
-5.59497e-09
1.07199e-14
-5.59431e-09
8.78111e-15
-5.59497e-09
-1.07107e-14
-5.59891e-09
-6.8393e-15
-5.59385e-09
-5.59497e-09
1.07522e-14
-5.59432e-09
8.79e-15
-5.59496e-09
-1.06885e-14
-5.59889e-09
-6.93087e-15
-5.59385e-09
-5.59498e-09
1.07879e-14
-5.59433e-09
8.80275e-15
-5.59496e-09
-1.06707e-14
-5.59887e-09
-7.02543e-15
-5.59386e-09
-5.59499e-09
1.0827e-14
-5.59434e-09
8.81943e-15
-5.59496e-09
-1.06574e-14
-5.59885e-09
-7.12285e-15
-5.59386e-09
-5.59499e-09
1.08692e-14
-5.59435e-09
8.84008e-15
-5.59496e-09
-1.06485e-14
-5.59883e-09
-7.22296e-15
-5.59386e-09
-5.595e-09
1.09146e-14
-5.59437e-09
8.86473e-15
-5.59496e-09
-1.0644e-14
-5.59881e-09
-7.32556e-15
-5.59387e-09
-5.59501e-09
1.09627e-14
-5.59438e-09
8.89331e-15
-5.59495e-09
-1.06436e-14
-5.59879e-09
-7.43043e-15
-5.59387e-09
-5.59502e-09
1.10133e-14
-5.59439e-09
8.92572e-15
-5.59495e-09
-1.06472e-14
-5.59878e-09
-7.53728e-15