/*--------------------------------*- C++ -*----------------------------------*\
| =========                 |                                                 |
| \\      /  F ield         | OpenFOAM: The Open Source CFD Toolbox           |
|  \\    /   O peration     | Version:  2.4.0                                 |
|   \\  /    A nd           | Web:      www.OpenFOAM.org                      |
|    \\/     M anipulation  |                                                 |
\*---------------------------------------------------------------------------*/
FoamFile
{
    version     2.0;
    format      ascii;
    class       volScalarField;
    location    "3.1";
    object      p_rgh;
}
// * * * * * * * * * * * * * * * * * * * * * * * * * * * * * * * * * * * * * //

dimensions      [1 -1 -2 0 0 0 0];

internalField   nonuniform List<scalar> 
125
(
0.64049
0.640726
0.641024
0.640827
0.640432
0.640504
0.640742
0.641041
0.640843
0.640446
0.640496
0.640736
0.641036
0.640837
0.640438
0.640504
0.640745
0.641048
0.640848
0.640445
0.640495
0.640737
0.641041
0.64084
0.640435
0.6405
0.640744
0.64105
0.640848
0.64044
0.640475
0.640721
0.641029
0.640825
0.640415
0.640463
0.640711
0.64102
0.640816
0.640403
0.64051
0.64076
0.641071
0.640865
0.64045
0.640866
0.641118
0.641431
0.641224
0.640805
0.64136
0.641614
0.641929
0.641721
0.641298
0.639863
0.640117
0.640434
0.640224
0.639801
0.631065
0.631313
0.631627
0.631419
0.631004
0.618398
0.618644
0.61895
0.618747
0.618337
0.657075
0.657369
0.657686
0.657476
0.657013
0.87958
0.880031
0.880464
0.880181
0.879497
1.19669
1.19728
1.19797
1.19753
1.19656
0.200812
0.200737
0.201218
0.200908
0.200713
-5.42494
-5.42788
-5.43038
-5.42881
-5.42451
-13.4531
-13.4596
-13.4678
-13.4627
-13.4516
-0.0048329
-0.00483248
-0.00483223
-0.00483238
-0.00483295
0.00140662
0.00140627
0.0014061
0.0014062
0.00140665
0.000518014
0.000518026
0.000518004
0.000518018
0.000518017
1.8495e-05
1.85483e-05
1.85618e-05
1.85534e-05
1.84925e-05
-5.95466e-05
-5.95346e-05
-5.95252e-05
-5.9531e-05
-5.95483e-05
)
;

boundaryField
{
    BotWall
    {
        type            fixedFluxPressure;
        gradient        uniform 0;
        value           nonuniform List<scalar> 5(0.64049 0.640726 0.641024 0.640827 0.640432);
    }
    FreeStream
    {
        type            totalPressure;
        rho             rho;
        psi             none;
        gamma           1;
        p0              nonuniform 0();
        value           nonuniform 0();
    }
    FrontNBack
    {
        type            empty;
    }
    LeftSide
    {
        type            symmetryPlane;
    }
    RightSide
    {
        type            symmetryPlane;
    }
    procBoundary0to1
    {
        type            processor;
        value           nonuniform List<scalar> 5(-2.7537e-05 -2.75403e-05 -2.7536e-05 -2.75386e-05 -2.75377e-05);
    }
}


// ************************************************************************* //
