/*--------------------------------*- C++ -*----------------------------------*\
| =========                 |                                                 |
| \\      /  F ield         | OpenFOAM: The Open Source CFD Toolbox           |
|  \\    /   O peration     | Version:  2.4.0                                 |
|   \\  /    A nd           | Web:      www.OpenFOAM.org                      |
|    \\/     M anipulation  |                                                 |
\*---------------------------------------------------------------------------*/
FoamFile
{
    version     2.0;
    format      ascii;
    class       volScalarField;
    location    "3.1";
    object      T;
}
// * * * * * * * * * * * * * * * * * * * * * * * * * * * * * * * * * * * * * //

dimensions      [0 0 0 1 0 0 0];

internalField   nonuniform List<scalar> 
125
(
293.114
293.114
293.114
293.114
293.114
293.344
293.344
293.344
293.344
293.344
293.576
293.576
293.576
293.576
293.576
293.811
293.811
293.811
293.811
293.811
294.049
294.049
294.049
294.049
294.049
294.289
294.289
294.289
294.289
294.289
294.532
294.532
294.532
294.532
294.532
294.778
294.778
294.778
294.778
294.778
295.027
295.027
295.027
295.027
295.027
295.279
295.279
295.279
295.279
295.279
295.533
295.533
295.533
295.533
295.533
295.791
295.791
295.791
295.791
295.791
296.051
296.051
296.051
296.051
296.051
296.315
296.315
296.315
296.315
296.315
296.582
296.582
296.582
296.582
296.582
296.852
296.852
296.852
296.852
296.852
297.125
297.125
297.125
297.125
297.125
297.401
297.401
297.401
297.401
297.401
297.681
297.681
297.681
297.681
297.681
297.994
297.994
297.994
297.994
297.994
297.994
297.994
297.994
297.994
297.994
297.994
297.994
297.994
297.994
297.994
297.994
297.994
297.994
297.994
297.994
297.994
297.994
297.994
297.994
297.994
297.994
297.994
297.994
297.994
297.994
)
;

boundaryField
{
    BotWall
    {
        type            fixedValue;
        value           uniform 293;
    }
    FreeStream
    {
        type            fixedValue;
        value           nonuniform 0();
    }
    FrontNBack
    {
        type            empty;
    }
    LeftSide
    {
        type            symmetryPlane;
    }
    RightSide
    {
        type            symmetryPlane;
    }
    procBoundary0to1
    {
        type            processor;
        value           nonuniform List<scalar> 5(297.994 297.994 297.994 297.994 297.994);
    }
}


// ************************************************************************* //
