/*--------------------------------*- C++ -*----------------------------------*\
| =========                 |                                                 |
| \\      /  F ield         | OpenFOAM: The Open Source CFD Toolbox           |
|  \\    /   O peration     | Version:  2.4.0                                 |
|   \\  /    A nd           | Web:      www.OpenFOAM.org                      |
|    \\/     M anipulation  |                                                 |
\*---------------------------------------------------------------------------*/
FoamFile
{
    version     2.0;
    format      ascii;
    class       volScalarField;
    location    "3.7";
    object      p;
}
// * * * * * * * * * * * * * * * * * * * * * * * * * * * * * * * * * * * * * //

dimensions      [1 -1 -2 0 0 0 0];

internalField   nonuniform List<scalar> 
8000
(
4.26155
4.22981
4.19764
4.17085
4.14917
4.13254
4.11866
4.10994
4.10453
4.10312
4.10594
4.11349
4.12487
4.14034
4.15983
4.18308
4.21005
4.2405
4.27367
4.31013
4.34968
4.39222
4.43741
4.48495
4.53486
4.58625
4.63907
4.69169
4.74535
4.80226
4.86957
4.943
4.99457
5.14389
5.50397
5.25795
5.47423
5.69613
4.3228
1.76889
-2.45602
-4.70478
-6.65485
-2.84113
-0.818359
-0.202564
-1.0884
-1.25488
-1.19317
-1.1821
4.89989
4.86423
4.82687
4.79509
4.76886
4.74768
4.73016
4.71771
4.70889
4.70459
4.70472
4.70923
4.71792
4.73115
4.74883
4.771
4.79784
4.82913
4.86504
4.90619
4.95186
5.00266
5.05871
5.11986
5.18642
5.25821
5.33555
5.41816
5.50648
5.60018
5.69986
5.80478
5.91573
6.03389
6.16543
6.30761
6.45982
6.60403
6.73269
6.88739
7.03322
7.18283
7.04419
3.92583
-0.879726
-5.0988
-4.17982
-2.29385
-1.31647
-1.18121
5.23385
5.20572
5.17711
5.15286
5.13257
5.11554
5.10155
5.09063
5.08278
5.07803
5.07637
5.0778
5.08234
5.08998
5.10074
5.11463
5.13167
5.15187
5.17526
5.20186
5.23174
5.26487
5.30137
5.34122
5.38453
5.4313
5.48169
5.53565
5.59343
5.65493
5.72046
5.78987
5.86361
5.94164
6.02466
6.11191
6.20418
6.30071
6.40302
6.51252
6.62987
6.74327
6.84939
6.95338
7.10514
7.19251
5.16108
0.358093
-2.21642
-2.12286
4.41327
4.39872
4.3822
4.36703
4.35348
4.34126
4.33025
4.32045
4.31187
4.30453
4.29841
4.29351
4.28981
4.2873
4.28594
4.28571
4.28658
4.2885
4.29143
4.29533
4.30013
4.30577
4.31219
4.31931
4.32703
4.33529
4.34395
4.35295
4.36214
4.37141
4.38063
4.38967
4.39836
4.40658
4.41412
4.42086
4.42654
4.43105
4.43411
4.43558
4.43525
4.4331
4.4296
4.42593
4.41947
4.39912
4.36054
4.21204
3.32864
2.46944
4.26711
4.25228
4.23717
4.22376
4.21169
4.20062
4.19046
4.18125
4.17299
4.16569
4.15935
4.15396
4.14951
4.14599
4.14338
4.14166
4.14081
4.14081
4.14162
4.14321
4.14556
4.1486
4.15231
4.15664
4.16153
4.16692
4.17275
4.17895
4.18546
4.19217
4.19902
4.20588
4.21268
4.21926
4.22553
4.23131
4.23647
4.2408
4.24414
4.24622
4.24685
4.24568
4.24253
4.23684
4.22836
4.21623
4.19932
4.18081
4.17343
4.18392
3.19104
3.17859
3.16415
3.15055
3.13799
3.12623
3.11513
3.10469
3.09491
3.08578
3.07729
3.06942
3.06217
3.05552
3.04945
3.04395
3.039
3.03457
3.03066
3.02723
3.02427
3.02174
3.01962
3.0179
3.01653
3.0155
3.01477
3.01432
3.0141
3.01409
3.01426
3.01459
3.01503
3.01557
3.01615
3.01679
3.01742
3.01808
3.01869
3.01931
3.01987
3.02047
3.02102
3.02171
3.02244
3.02349
3.02494
3.02717
3.02827
3.02585
2.79188
2.77758
2.76309
2.75036
2.73901
2.72869
2.7193
2.71086
2.70336
2.69681
2.69119
2.68649
2.68272
2.67986
2.6779
2.67685
2.67668
2.67741
2.67902
2.68152
2.68489
2.68913
2.69424
2.70022
2.70705
2.71476
2.72331
2.73274
2.74301
2.75415
2.76614
2.779
2.79271
2.80731
2.82275
2.83909
2.85628
2.8744
2.89336
2.91327
2.93403
2.95578
2.97836
3.00195
3.02637
3.0521
3.07938
3.10776
3.13478
3.1576
1.48859
1.48036
1.47083
1.46199
1.45404
1.44681
1.44021
1.43422
1.42887
1.42414
1.42003
1.41655
1.41367
1.41142
1.40977
1.40873
1.40829
1.40845
1.40921
1.41056
1.41249
1.41501
1.4181
1.42177
1.426
1.43079
1.43613
1.44202
1.44845
1.4554
1.46287
1.47085
1.47932
1.48827
1.49768
1.50754
1.51781
1.52852
1.53957
1.55101
1.56269
1.5747
1.58695
1.60011
1.61431
1.62779
1.63284
1.6258
1.5231
1.19908
0.70908
0.702588
0.696346
0.691238
0.687066
0.683654
0.680969
0.679024
0.677828
0.677392
0.677721
0.678826
0.680717
0.683409
0.686915
0.691254
0.69644
0.702499
0.709448
0.717321
0.726135
0.735932
0.746729
0.758583
0.771504
0.785569
0.800778
0.817234
0.834924
0.853984
0.874377
0.896284
0.919636
0.944675
0.971281
0.999781
1.02999
1.06232
1.09644
1.13285
1.17143
1.21412
1.26174
1.31061
1.33835
1.33093
1.07375
0.413681
-1.63825
-2.38864
-0.63879
-0.641237
-0.643863
-0.645901
-0.647269
-0.648027
-0.648206
-0.647805
-0.646817
-0.645232
-0.643044
-0.640237
-0.6368
-0.632713
-0.627961
-0.622516
-0.616362
-0.609461
-0.601796
-0.593319
-0.58401
-0.573811
-0.562699
-0.550606
-0.537507
-0.523318
-0.508013
-0.491493
-0.47373
-0.45461
-0.434098
-0.412066
-0.388467
-0.363161
-0.336083
-0.307099
-0.276183
-0.243275
-0.208054
-0.169261
-0.124529
-0.0748569
-0.0390808
-0.142101
-0.691104
-1.73474
-4.24432
-5.36881
-5.54757
-3.99479
-1.83333
-1.82995
-1.82625
-1.82303
-1.82034
-1.81809
-1.81626
-1.81485
-1.81385
-1.81327
-1.81312
-1.8134
-1.81411
-1.81528
-1.81689
-1.81899
-1.82155
-1.82463
-1.8282
-1.83234
-1.837
-1.8423
-1.84813
-1.85469
-1.86182
-1.86978
-1.87834
-1.88785
-1.898
-1.90927
-1.92117
-1.93442
-1.94828
-1.96375
-1.97987
-1.99835
-2.01781
-2.0382
-2.04983
-2.04914
-2.07896
-2.39025
-3.38578
-6.36499
-7.95005
-8.38837
-5.48981
-2.73712
-1.79546
-1.48545
-3.13713
-3.12874
-3.12013
-3.11273
-3.10642
-3.10099
-3.09638
-3.0926
-3.08964
-3.08752
-3.08622
-3.08578
-3.08616
-3.08741
-3.08948
-3.09244
-3.09625
-3.10096
-3.10653
-3.11305
-3.12045
-3.12884
-3.13812
-3.14846
-3.15972
-3.17212
-3.18546
-3.20004
-3.21558
-3.2325
-3.25035
-3.26973
-3.29015
-3.31293
-3.33766
-3.36256
-3.37414
-3.36195
-3.39426
-3.78119
-4.9698
-6.6419
-6.94441
-5.83861
-2.19177
-1.86545
-1.54387
-1.51503
-1.51079
-1.51375
-4.1142
-4.10527
-4.09564
-4.08703
-4.07942
-4.0726
-4.0665
-4.06111
-4.05643
-4.05247
-4.0492
-4.04664
-4.04476
-4.04358
-4.04307
-4.04324
-4.04406
-4.04556
-4.04771
-4.05051
-4.05395
-4.05804
-4.06276
-4.06811
-4.07407
-4.08067
-4.08787
-4.09569
-4.10411
-4.11309
-4.1227
-4.13322
-4.14523
-4.15742
-4.16206
-4.14572
-4.13757
-4.3386
-5.09499
-6.69135
-6.21539
-4.42617
-1.59827
-1.41736
-1.54761
-1.53238
-1.53307
-1.5342
-1.53439
-1.53436
-5.08277
-5.06791
-5.05215
-5.03845
-5.02679
-5.01679
-5.00834
-5.00143
-4.99607
-4.99225
-4.98998
-4.98924
-4.99003
-4.99233
-4.99615
-5.00147
-5.00832
-5.01663
-5.02646
-5.03774
-5.05053
-5.06474
-5.08047
-5.09758
-5.1162
-5.13617
-5.15764
-5.18036
-5.20455
-5.2301
-5.2579
-5.28769
-5.31521
-5.32477
-5.31321
-5.40023
-5.97194
-7.12243
-5.59069
-3.53866
-1.86344
-1.55036
-1.54816
-1.54835
-1.55313
-1.55423
-1.55404
-1.55418
-1.55441
-1.55464
-5.94161
-5.93057
-5.9196
-5.91016
-5.90198
-5.89478
-5.88851
-5.88317
-5.87879
-5.87534
-5.87284
-5.87125
-5.87057
-5.87078
-5.87186
-5.87376
-5.87649
-5.87997
-5.88421
-5.8891
-5.89467
-5.90079
-5.90748
-5.91457
-5.92211
-5.92987
-5.93792
-5.94596
-5.95426
-5.96289
-5.97189
-5.97684
-5.96728
-5.94568
-6.01366
-6.44034
-7.13109
-4.89742
-2.03493
-1.59423
-1.568
-1.56926
-1.57174
-1.57287
-1.573
-1.57328
-1.57359
-1.57391
-1.57419
-1.57444
-5.99273
-5.97725
-5.9596
-5.94422
-5.9316
-5.9214
-5.91342
-5.90763
-5.90404
-5.90264
-5.90342
-5.9064
-5.91157
-5.91894
-5.92853
-5.94037
-5.95448
-5.97091
-5.98969
-6.01088
-6.03453
-6.06073
-6.08951
-6.12103
-6.15529
-6.19249
-6.23262
-6.27593
-6.32266
-6.37373
-6.42872
-6.48177
-6.5177
-6.54729
-6.73089
-7.45235
-8.42168
-5.03099
-2.072
-1.67492
-1.58934
-1.5918
-1.59646
-1.59672
-1.59688
-1.59701
-1.59717
-1.59735
-1.59751
-1.59768
-7.27025
-7.24441
-7.22089
-7.2027
-7.18871
-7.17814
-7.17084
-7.16683
-7.1661
-7.16867
-7.17452
-7.18366
-7.19611
-7.21191
-7.23109
-7.25371
-7.27985
-7.3096
-7.34305
-7.38033
-7.42157
-7.46693
-7.51656
-7.5707
-7.62951
-7.69326
-7.76218
-7.83658
-7.91672
-8.00309
-8.09612
-8.19595
-8.30064
-8.40686
-8.5227
-8.70507
-9.05621
-9.38759
-8.26275
-4.04372
-2.19366
-1.70559
-1.62777
-1.62672
-1.62485
-1.62449
-1.62473
-1.62478
-1.62457
-1.62445
-5.36187
-5.35824
-5.35199
-5.34755
-5.34577
-5.34606
-5.34774
-5.35035
-5.35352
-5.35693
-5.36028
-5.3633
-5.36576
-5.36743
-5.36813
-5.36767
-5.36593
-5.36273
-5.358
-5.3516
-5.34347
-5.3335
-5.32169
-5.30792
-5.29225
-5.27455
-5.25495
-5.2333
-5.20982
-5.18433
-5.15711
-5.12786
-5.09719
-5.0657
-5.03578
-5.00373
-4.94511
-4.81353
-4.68627
-5.3124
-9.61161
-7.18519
-5.03287
-2.09257
-1.7644
-1.68517
-1.67175
-1.64446
-1.64344
-1.6444
-6.53492
-6.51407
-6.50138
-6.49749
-6.49906
-6.50398
-6.51113
-6.51966
-6.52882
-6.53792
-6.54636
-6.55361
-6.55921
-6.56276
-6.56392
-6.56236
-6.55782
-6.55005
-6.53884
-6.52401
-6.50538
-6.48284
-6.45624
-6.42552
-6.39055
-6.35134
-6.30779
-6.25996
-6.20781
-6.15146
-6.09091
-6.02642
-5.95808
-5.88619
-5.8103
-5.72994
-5.64775
-5.57981
-5.54883
-5.49302
-5.44014
-6.21889
-12.2057
-15.8022
-11.8047
-9.98371
-2.5377
-1.90604
-1.67713
-1.6643
-1.84651
-2.29511
-2.74605
-3.13392
-3.47082
-3.77198
-4.04362
-4.28823
-4.50771
-4.7039
-4.87847
-5.03278
-5.16797
-5.28497
-5.38457
-5.46738
-5.5339
-5.58453
-5.61957
-5.63922
-5.64361
-5.63278
-5.60672
-5.5653
-5.50834
-5.43556
-5.3466
-5.24097
-5.11808
-4.97718
-4.81736
-4.63751
-4.43628
-4.21206
-3.96288
-3.68642
-3.37966
-3.03866
-2.65868
-2.23893
-1.78985
-1.3146
-0.802097
-0.38968
-0.210266
0.525423
-7.67126
0.818315
-6.44361
-1.68553
-1.20363
-1.24174
-1.25873
-1.25861
-1.25755
-1.25885
-1.25965
-1.25783
-1.25751
-1.25755
-1.25852
-1.25857
-1.25791
-1.2576
-1.25724
-1.25678
-1.24706
-1.25389
-1.25342
-1.25279
-1.25173
-1.2508
-1.24953
-1.249
-1.24755
-1.24605
-1.24474
-1.24343
-1.2343
-1.23525
-1.26872
-1.26691
-1.26525
-1.26387
-1.26265
-1.26146
-1.25994
-1.25919
-1.25814
-1.25734
-1.25649
-1.25567
-1.25487
-1.25408
-1.25307
-1.25226
-1.25136
-1.25155
-1.24908
-1.25004
-1.14291
-1.12307
-1.16348
-1.21575
-1.25312
-1.2725
-1.27903
-1.27998
-1.27971
-1.27948
-1.27943
-1.27944
-1.27937
-1.27917
-1.27948
-1.27926
-1.27959
-1.2796
-1.27956
-1.27958
-1.27962
-1.27963
-1.27965
-1.2797
-1.27969
-1.27935
-1.27814
-1.276
-1.27482
-1.27516
-1.27671
-1.27896
-1.28105
-1.28219
-1.28273
-1.28299
-1.28337
-1.28393
-1.28423
-1.28454
-1.28484
-1.28518
-1.28554
-1.28389
-1.28519
-1.28554
-1.28482
-1.28556
-1.2861
-1.28046
-1.31171
-0.774002
-0.720687
-0.904347
-1.08748
-1.20715
-1.27115
-1.29944
-1.30987
-1.31357
-1.31493
-1.31553
-1.31589
-1.31615
-1.31636
-1.31657
-1.31682
-1.31712
-1.31747
-1.31787
-1.31832
-1.31886
-1.31945
-1.32013
-1.32086
-1.32149
-1.32173
-1.2658
-1.29218
-1.30007
-1.30116
-1.30243
-1.30391
-1.30494
-1.30564
-1.30639
-1.30721
-1.30798
-1.30877
-1.3097
-1.31064
-1.31002
-1.31102
-1.3122
-1.31327
-1.31434
-1.31545
-1.31661
-1.31785
-1.31917
1.77582
0.974578
0.368284
-0.0654578
-0.419081
-0.812499
-1.15062
-1.29348
-1.3252
-1.33124
-1.33287
-1.33348
-1.33375
-1.33389
-1.33395
-1.33359
-1.33361
-1.33339
-1.33341
-1.33353
-1.33352
-1.33356
-1.33361
-1.33367
-1.3338
-1.33348
-1.33324
-1.33528
-1.33517
-1.33526
-1.33537
-1.33546
-1.3355
-1.33551
-1.33548
-1.33534
-1.33505
-1.33508
-1.33538
-1.33566
-1.33586
-1.33601
-1.33618
-1.33641
-1.33665
-1.33691
-1.3372
-1.33753
-1.33789
-1.33829
4.11256
3.21156
2.97214
2.37594
1.32142
-0.000367604
-1.01338
-1.30825
-1.35148
-1.35673
-1.35773
-1.35804
-1.35819
-1.35828
-1.35833
-1.35833
-1.3583
-1.35897
-1.35905
-1.3591
-1.35916
-1.35919
-1.35903
-1.35964
-1.35972
-1.35976
-1.35981
-1.35987
-1.35992
-1.35995
-1.35998
-1.36014
-1.35886
-1.35905
-1.35696
-1.35743
-1.35397
-1.35633
-1.35673
-1.35701
-1.35726
-1.35754
-1.35784
-1.35814
-1.35845
-1.35877
-1.35911
-1.35946
-1.35982
-1.3602
3.0304
3.02956
2.94402
2.2048
1.4173
0.239989
-0.963861
-1.32177
-1.37386
-1.37901
-1.3795
-1.37955
-1.37953
-1.37956
-1.37957
-1.37964
-1.37965
-1.37967
-1.37969
-1.37938
-1.37966
-1.37779
-1.37957
-1.37958
-1.3796
-1.37962
-1.3794
-1.37943
-1.37968
-1.37969
-1.37971
-1.37971
-1.37973
-1.3797
-1.37906
-1.37951
-1.37946
-1.37949
-1.37952
-1.37956
-1.37959
-1.37964
-1.37968
-1.37974
-1.37979
-1.37984
-1.3799
-1.37996
-1.38001
-1.38001
3.13555
2.98849
2.14656
1.33226
0.510934
-0.489476
-1.30634
-1.40893
-1.40637
-1.40297
-1.402
-1.40205
-1.40212
-1.40214
-1.40213
-1.40213
-1.40214
-1.40214
-1.40215
-1.40216
-1.40218
-1.4022
-1.40222
-1.40223
-1.40225
-1.40229
-1.40231
-1.40224
-1.40234
-1.40236
-1.40239
-1.40226
-1.40239
-1.4024
-1.40241
-1.40251
-1.40244
-1.40257
-1.4026
-1.40262
-1.40265
-1.40265
-1.40271
-1.40271
-1.40266
-1.40299
-1.40307
-1.40302
-1.4031
-1.40345
-0.273725
-1.09606
-1.61914
-2.19068
-2.42859
-1.78053
-1.46923
-1.42559
-1.42231
-1.42277
-1.42298
-1.423
-1.42299
-1.42299
-1.42301
-1.42304
-1.42308
-1.42311
-1.42315
-1.4232
-1.42322
-1.42328
-1.42332
-1.42338
-1.42344
-1.42349
-1.42333
-1.42342
-1.42347
-1.42372
-1.42376
-1.42322
-1.42331
-1.42359
-1.42311
-1.42345
-1.42377
-1.42374
-1.4238
-1.42375
-1.42318
-1.42393
-1.42412
-1.42415
-1.42423
-1.42354
-1.42439
-1.42448
-1.42453
-1.4246
-2.91764
-3.33136
-2.90498
-1.55186
-1.40433
-1.45055
-1.44429
-1.44502
-1.44536
-1.44536
-1.44528
-1.44525
-1.44524
-1.44523
-1.44522
-1.44521
-1.44521
-1.4452
-1.44519
-1.44522
-1.44523
-1.44522
-1.44521
-1.44525
-1.44526
-1.44524
-1.44546
-1.44548
-1.44549
-1.4455
-1.4455
-1.44548
-1.44554
-1.44555
-1.44558
-1.4456
-1.44519
-1.44534
-1.44538
-1.44536
-1.44546
-1.4452
-1.44531
-1.44499
-1.44515
-1.44517
-1.44441
-1.44452
-1.44455
-1.44455
-2.9156
-1.50306
-1.40599
-1.46793
-1.46519
-1.46656
-1.46668
-1.46661
-1.46659
-1.46661
-1.46663
-1.46664
-1.46665
-1.46665
-1.46664
-1.46663
-1.46662
-1.46661
-1.4666
-1.46658
-1.46656
-1.46655
-1.46652
-1.4665
-1.46647
-1.46644
-1.46641
-1.46639
-1.46621
-1.4663
-1.46625
-1.4662
-1.46616
-1.4661
-1.46605
-1.46599
-1.46572
-1.46536
-1.46622
-1.46614
-1.46607
-1.46599
-1.46577
-1.46568
-1.4657
-1.4656
-1.46459
-1.4669
-1.46678
-1.46668
-1.47805
-1.48723
-1.48885
-1.48932
-1.48906
-1.4888
-1.48876
-1.48882
-1.48886
-1.48889
-1.48891
-1.48893
-1.48894
-1.48894
-1.48894
-1.48894
-1.48893
-1.48892
-1.48891
-1.4889
-1.48889
-1.48887
-1.48885
-1.48882
-1.48879
-1.48875
-1.4887
-1.48866
-1.48861
-1.48854
-1.48849
-1.48843
-1.48797
-1.48829
-1.48821
-1.48813
-1.48804
-1.48787
-1.48785
-1.48775
-1.48765
-1.48754
-1.48728
-1.48715
-1.48713
-1.48702
-1.48603
-1.48796
-1.48781
-1.48766
-1.51405
-1.51399
-1.51367
-1.51336
-1.51321
-1.51266
-1.51301
-1.51292
-1.51284
-1.51276
-1.5127
-1.51264
-1.51259
-1.51253
-1.51247
-1.51242
-1.51236
-1.51231
-1.51226
-1.51221
-1.51215
-1.5121
-1.51205
-1.51197
-1.51189
-1.51182
-1.5118
-1.51116
-1.51181
-1.51153
-1.51163
-1.51104
-1.51096
-1.51102
-1.51096
-1.51105
-1.51049
-1.51047
-1.51034
-1.5103
-1.51073
-1.51019
-1.51017
-1.51013
-1.51016
-1.50959
-1.50967
-1.50957
-1.50931
-1.50928
-1.53444
-1.53454
-1.53468
-1.53481
-1.53495
-1.53459
-1.53505
-1.53514
-1.5353
-1.53521
-1.53546
-1.53549
-1.53395
-1.53434
-1.53443
-1.53443
-1.53439
-1.53442
-1.5345
-1.5345
-1.53448
-1.53436
-1.53289
-1.53376
-1.53386
-1.53385
-1.53381
-1.53378
-1.53373
-1.53368
-1.53362
-1.53354
-1.53346
-1.53338
-1.5333
-1.53323
-1.53316
-1.53299
-1.53266
-1.5328
-1.53277
-1.5327
-1.53154
-1.53272
-1.53264
-1.53253
-1.53262
-1.53259
-1.53256
-1.53254
-1.55486
-1.55506
-1.55523
-1.55537
-1.55555
-1.55574
-1.55607
-1.5539
-1.55634
-1.55661
-1.55665
-1.55686
-1.55694
-1.55708
-1.55722
-1.55725
-1.55734
-1.5589
-1.55904
-1.55914
-1.55928
-1.55943
-1.55974
-1.55082
-1.5553
-1.55553
-1.55568
-1.55584
-1.55617
-1.55634
-1.55368
-1.55386
-1.55416
-1.55185
-1.55286
-1.55296
-1.55307
-1.55446
-1.55463
-1.5542
-1.55571
-1.55468
-1.55486
-1.55531
-1.55419
-1.55434
-1.55451
-1.55374
-1.55392
-1.55406
-1.57467
-1.57485
-1.57508
-1.57524
-1.57529
-1.57521
-1.57531
-1.5756
-1.57613
-1.57658
-1.57688
-1.57708
-1.57727
-1.57746
-1.57763
-1.57781
-1.57802
-1.57633
-1.57735
-1.57749
-1.5776
-1.57769
-1.57778
-1.57785
-1.57659
-1.57744
-1.57733
-1.57735
-1.57737
-1.57739
-1.5774
-1.57742
-1.57755
-1.57659
-1.57661
-1.5757
-1.57539
-1.57435
-1.57568
-1.57564
-1.57558
-1.57554
-1.57551
-1.57547
-1.57542
-1.57537
-1.57532
-1.57527
-1.57521
-1.57516
-1.59785
-1.59803
-1.5982
-1.59837
-1.59854
-1.5987
-1.59888
-1.59901
-1.59914
-1.59928
-1.59942
-1.59956
-1.59969
-1.59981
-1.59994
-1.60005
-1.60016
-1.60027
-1.60037
-1.60047
-1.60056
-1.60065
-1.60073
-1.60081
-1.60088
-1.59923
-1.59931
-1.59946
-1.59956
-1.59931
-1.59937
-1.59913
-1.59932
-1.59934
-1.59937
-1.59943
-1.59951
-1.59858
-1.59971
-1.59964
-1.59968
-1.59973
-1.59976
-1.59967
-1.59975
-1.59987
-1.59746
-1.59767
-1.59774
-1.59774
-1.62435
-1.62425
-1.62418
-1.62415
-1.62409
-1.62405
-1.624
-1.62395
-1.6239
-1.62384
-1.62379
-1.62374
-1.62368
-1.62363
-1.62358
-1.62353
-1.62348
-1.62344
-1.62338
-1.62334
-1.62329
-1.62313
-1.623
-1.6227
-1.62276
-1.6227
-1.62265
-1.62235
-1.62259
-1.62265
-1.62249
-1.62241
-1.62238
-1.62231
-1.62213
-1.6223
-1.62227
-1.62218
-1.62211
-1.62203
-1.62195
-1.62185
-1.62175
-1.62167
-1.62154
-1.62151
-1.62144
-1.62134
-1.62127
-1.6212
-1.64494
-1.64483
-1.64493
-1.64494
-1.6449
-1.64487
-1.64483
-1.6448
-1.64478
-1.64475
-1.64473
-1.6447
-1.64468
-1.64466
-1.64465
-1.64462
-1.6446
-1.64459
-1.64456
-1.64455
-1.64454
-1.64452
-1.6445
-1.64447
-1.64444
-1.64443
-1.64439
-1.64437
-1.64435
-1.64432
-1.64424
-1.64417
-1.64418
-1.64415
-1.64413
-1.64409
-1.64405
-1.64401
-1.64397
-1.64393
-1.64389
-1.64385
-1.64381
-1.64375
-1.64359
-1.64367
-1.64363
-1.64364
-1.64321
-1.64319
-1.66684
-1.6675
-1.66751
-1.66744
-1.66742
-1.66741
-1.66739
-1.66737
-1.66734
-1.66731
-1.66727
-1.66724
-1.6672
-1.66716
-1.66712
-1.66708
-1.66704
-1.667
-1.66696
-1.66693
-1.66689
-1.66685
-1.66682
-1.66678
-1.66674
-1.66671
-1.66667
-1.66663
-1.6666
-1.66657
-1.66653
-1.6665
-1.66646
-1.66643
-1.66639
-1.66636
-1.66632
-1.66628
-1.66625
-1.66621
-1.66617
-1.66614
-1.6661
-1.66606
-1.66602
-1.66598
-1.66594
-1.6659
-1.66586
-1.66582
-1.68807
-1.68778
-1.68773
-1.68785
-1.68799
-1.6881
-1.68819
-1.68826
-1.68833
-1.68839
-1.68844
-1.68848
-1.68851
-1.68854
-1.68856
-1.68858
-1.68859
-1.6886
-1.68861
-1.68862
-1.68862
-1.68862
-1.68862
-1.68861
-1.6886
-1.6886
-1.68859
-1.68857
-1.68856
-1.68855
-1.68853
-1.68851
-1.68849
-1.68847
-1.68845
-1.68843
-1.68841
-1.68839
-1.68836
-1.68833
-1.68831
-1.68828
-1.68825
-1.68823
-1.6882
-1.68817
-1.68814
-1.68811
-1.68808
-1.68805
-1.24666
-1.24618
-1.24721
-1.24472
-1.2443
-1.24358
-1.24282
-1.24206
-1.24129
-1.2406
-1.23997
-1.23936
-1.23723
-1.23491
-1.2868
-1.28521
-1.28341
-1.28247
-1.28124
-1.27912
-1.27784
-1.27957
-1.27904
-1.27508
-1.2775
-1.2765
-1.27476
-1.2765
-1.27357
-1.2644
-1.28299
-1.2812
-1.28043
-1.28053
-1.27959
-1.27826
-1.27235
-1.27106
-1.27082
-1.27005
-1.26854
-1.26773
-1.26743
-1.25802
-1.26034
-1.25965
-1.25815
-1.25724
-1.25712
-1.2564
-1.25425
-1.2348
-1.27542
-1.27414
-1.27297
-1.2746
-1.27344
-1.27103
-1.26136
-1.28187
-1.28108
-1.28009
-1.27905
-1.27834
-1.27821
-1.27745
-1.27687
-1.27643
-1.27616
-1.27592
-1.27556
-1.27529
-1.27527
-1.27501
-1.2725
-1.26325
-1.2394
-1.18678
-1.20549
-1.23329
-1.24665
-1.25052
-1.25136
-1.25162
-1.25199
-1.25245
-1.25269
-1.21998
-1.24975
-1.25031
-1.25044
-1.25066
-1.25088
-1.25106
-1.25122
-1.25137
-1.25151
-1.25164
-1.25177
-1.2519
-1.25204
-1.25217
-1.25231
-1.25245
-1.25259
-1.25274
-1.25288
-1.25303
-1.25318
-1.25334
-1.25349
-1.25364
-1.2538
-1.25395
-1.25411
-1.25427
-1.25443
-1.25459
-1.25475
-1.25491
-1.25506
-1.25522
-1.25538
-1.25553
-1.25569
-1.25584
-1.25599
-1.25614
-1.25629
-1.25644
-1.25659
-1.25673
-1.25687
-1.25701
-1.25715
-1.25728
-1.25742
-1.25755
-1.25768
-1.2578
-1.25793
-1.25805
-1.25817
-1.25829
-1.25841
-1.25852
-1.25864
-1.25875
-1.25886
-1.25897
-1.25907
-1.25918
-1.25928
-1.25938
-1.25948
-1.25958
-1.25968
-1.25978
-1.25987
-1.25997
-1.26006
-1.26015
-1.26024
-1.26033
-1.26042
-1.26051
-1.26059
-1.26068
-1.26076
-1.26085
-1.26093
-1.26101
-1.2611
-1.26118
-1.26126
-1.26134
-1.26142
-1.2615
-1.26158
-1.26165
-1.26173
-1.26181
-1.26188
-1.26196
-1.26204
-1.26211
-1.26219
-1.26226
-1.26233
-1.26241
-1.26248
-1.26256
-1.26263
-1.2627
-1.26277
-1.26284
-1.26292
-1.26299
-1.26306
-1.26313
-1.2632
-1.26327
-1.26334
-1.26341
-1.26348
-1.26355
-1.26361
-1.26368
-1.26375
-1.26382
-1.26388
-1.26395
-1.26402
-1.26408
-1.26415
-1.26421
-1.26428
-1.26434
-1.26441
-1.26447
-1.26453
-1.26459
-1.26466
-1.26472
-1.26478
-1.26484
-1.2649
-1.26496
-1.26501
-1.26507
-1.26513
-1.26519
-1.26524
-1.2653
-1.26535
-1.2654
-1.26546
-1.26551
-1.26556
-1.26561
-1.26566
-1.26571
-1.26576
-1.26581
-1.26585
-1.2659
-1.26594
-1.26599
-1.26603
-1.26608
-1.26612
-1.26616
-1.2662
-1.26624
-1.26628
-1.26632
-1.26636
-1.2664
-1.26644
-1.26647
-1.26651
-1.26655
-1.26658
-1.26662
-1.26665
-1.26668
-1.26672
-1.26675
-1.26678
-1.26682
-1.26685
-1.26688
-1.26691
-1.26694
-1.26697
-1.267
-1.26703
-1.26706
-1.26709
-1.26712
-1.26715
-1.26718
-1.26721
-1.26724
-1.26727
-1.2673
-1.26732
-1.26735
-1.26738
-1.26741
-1.26743
-1.26746
-1.26749
-1.26752
-1.26754
-1.26757
-1.2676
-1.26762
-1.26765
-1.26767
-1.28088
-1.28114
-1.28135
-1.28158
-1.28181
-1.28161
-1.28222
-1.28174
-1.28213
-1.28384
-1.28266
-1.28629
-1.28651
-1.28685
-1.28714
-1.2872
-1.2871
-1.29884
-1.26833
-1.28401
-1.28438
-1.28394
-1.30162
-1.30155
-1.2964
-1.29718
-1.29738
-1.29713
-1.29663
-1.29556
-1.29491
-1.30403
-1.30413
-1.30398
-1.30169
-1.30227
-1.30329
-1.30308
-1.30265
-1.3019
-1.30039
-1.29945
-1.30319
-1.3032
-1.30298
-1.30264
-1.30228
-1.30286
-1.30239
-1.30159
-1.29872
-1.29848
-1.29915
-1.29921
-1.29901
-1.2987
-1.29835
-1.29805
-1.29777
-1.29784
-1.29757
-1.29006
-1.29007
-1.29013
-1.28995
-1.28958
-1.28927
-1.28896
-1.28863
-1.28831
-1.28799
-1.28751
-1.28491
-1.28803
-1.28652
-1.28419
-1.28425
-1.28411
-1.28326
-1.28277
-1.28204
-1.28288
-1.28304
-1.28274
-1.28362
-1.28336
-1.282
-1.27029
-1.27141
-1.27337
-1.27407
-1.27431
-1.2745
-1.27471
-1.27492
-1.27512
-1.27531
-1.2755
-1.27569
-1.27587
-1.27605
-1.27623
-1.27641
-1.27658
-1.27676
-1.27693
-1.27709
-1.27726
-1.27742
-1.27758
-1.27774
-1.27789
-1.27804
-1.27819
-1.27833
-1.27848
-1.27862
-1.27875
-1.27889
-1.27902
-1.27915
-1.27927
-1.2794
-1.27952
-1.27964
-1.27975
-1.27987
-1.27998
-1.28009
-1.2802
-1.28031
-1.28041
-1.28051
-1.28061
-1.28071
-1.28081
-1.28091
-1.281
-1.2811
-1.28119
-1.28128
-1.28137
-1.28146
-1.28155
-1.28163
-1.28172
-1.2818
-1.28189
-1.28197
-1.28205
-1.28213
-1.28221
-1.28229
-1.28237
-1.28245
-1.28253
-1.2826
-1.28268
-1.28275
-1.28283
-1.2829
-1.28298
-1.28305
-1.28313
-1.2832
-1.28327
-1.28335
-1.28342
-1.28349
-1.28356
-1.28363
-1.28371
-1.28378
-1.28385
-1.28392
-1.28399
-1.28406
-1.28413
-1.2842
-1.28428
-1.28435
-1.28442
-1.28449
-1.28456
-1.28463
-1.2847
-1.28477
-1.28484
-1.28491
-1.28498
-1.28505
-1.28512
-1.28519
-1.28526
-1.28533
-1.2854
-1.28547
-1.28554
-1.28561
-1.28568
-1.28575
-1.28582
-1.28589
-1.28596
-1.28603
-1.28609
-1.28616
-1.28623
-1.2863
-1.28637
-1.28643
-1.2865
-1.28657
-1.28663
-1.2867
-1.28676
-1.28683
-1.28689
-1.28696
-1.28702
-1.28708
-1.28714
-1.28721
-1.28727
-1.28733
-1.28739
-1.28745
-1.28751
-1.28757
-1.28762
-1.28768
-1.28774
-1.28779
-1.28785
-1.2879
-1.28795
-1.28801
-1.28806
-1.28811
-1.28816
-1.2882
-1.28825
-1.2883
-1.28835
-1.28839
-1.28843
-1.28848
-1.28852
-1.28856
-1.2886
-1.28864
-1.28868
-1.28872
-1.28876
-1.2888
-1.28884
-1.28887
-1.28891
-1.28894
-1.28898
-1.28901
-1.28904
-1.28908
-1.28911
-1.28914
-1.28917
-1.2892
-1.28923
-1.28926
-1.28929
-1.28932
-1.28935
-1.28938
-1.2894
-1.28943
-1.28946
-1.28949
-1.28952
-1.28954
-1.28957
-1.2896
-1.28962
-1.28965
-1.28968
-1.2897
-1.28973
-1.28976
-1.28979
-1.28981
-1.28984
-1.28987
-1.28989
-1.28992
-1.28995
-1.28998
-1.29
-1.29003
-1.29006
-1.29008
-1.29011
-1.31494
-1.31804
-1.31887
-1.31998
-1.32222
-1.32314
-1.32055
-1.32182
-1.32293
-1.324
-1.32518
-1.32638
-1.32764
-1.3289
-1.33031
-1.33189
-1.33345
-1.33502
-1.30437
-1.31084
-1.3143
-1.31418
-1.32453
-1.3161
-1.31793
-1.31974
-1.32128
-1.3213
-1.32337
-1.32557
-1.32689
-1.30627
-1.32639
-1.32839
-1.3211
-1.32412
-1.32551
-1.31654
-1.31825
-1.31982
-1.30313
-1.30504
-1.26767
-1.28446
-1.28654
-1.28271
-1.28377
-1.28704
-1.28727
-1.28243
-1.29994
-1.28766
-1.3035
-1.29525
-1.29764
-1.29802
-1.29826
-1.29849
-1.29875
-1.29899
-1.29784
-1.29773
-1.29692
-1.29971
-1.29825
-1.30213
-1.302
-1.30191
-1.30186
-1.30181
-1.30182
-1.30188
-1.29256
-1.30194
-1.30099
-1.30132
-1.30134
-1.30128
-1.30096
-1.30077
-1.30077
-1.3008
-1.30067
-1.30051
-1.30033
-1.29977
-1.29966
-1.29975
-1.29983
-1.30029
-1.30047
-1.30041
-1.30031
-1.30022
-1.30013
-1.30005
-1.29998
-1.29992
-1.29987
-1.29984
-1.29982
-1.29982
-1.29983
-1.29985
-1.29989
-1.29993
-1.29999
-1.30005
-1.30012
-1.3002
-1.30029
-1.30038
-1.30047
-1.30057
-1.30068
-1.30079
-1.3009
-1.30101
-1.30112
-1.30124
-1.30135
-1.30147
-1.30159
-1.3017
-1.30182
-1.30194
-1.30205
-1.30217
-1.30228
-1.3024
-1.30251
-1.30262
-1.30273
-1.30284
-1.30295
-1.30305
-1.30316
-1.30326
-1.30336
-1.30347
-1.30357
-1.30366
-1.30376
-1.30386
-1.30395
-1.30405
-1.30414
-1.30423
-1.30432
-1.30441
-1.3045
-1.30458
-1.30467
-1.30475
-1.30484
-1.30492
-1.305
-1.30508
-1.30517
-1.30525
-1.30533
-1.3054
-1.30548
-1.30556
-1.30564
-1.30571
-1.30579
-1.30587
-1.30594
-1.30602
-1.30609
-1.30617
-1.30624
-1.30632
-1.30639
-1.30646
-1.30654
-1.30661
-1.30669
-1.30676
-1.30683
-1.30691
-1.30698
-1.30705
-1.30712
-1.3072
-1.30727
-1.30734
-1.30741
-1.30749
-1.30756
-1.30763
-1.3077
-1.30778
-1.30785
-1.30792
-1.30799
-1.30806
-1.30813
-1.3082
-1.30827
-1.30835
-1.30842
-1.30849
-1.30856
-1.30863
-1.3087
-1.30877
-1.30884
-1.3089
-1.30897
-1.30904
-1.30911
-1.30918
-1.30925
-1.30931
-1.30938
-1.30945
-1.30951
-1.30958
-1.30964
-1.30971
-1.30977
-1.30983
-1.3099
-1.30996
-1.31002
-1.31008
-1.31014
-1.3102
-1.31026
-1.31032
-1.31037
-1.31043
-1.31048
-1.31053
-1.31058
-1.31063
-1.31068
-1.31073
-1.31078
-1.31082
-1.31087
-1.31091
-1.31095
-1.31099
-1.31104
-1.31108
-1.31112
-1.31115
-1.31119
-1.31123
-1.31127
-1.3113
-1.31134
-1.31137
-1.3114
-1.31144
-1.31147
-1.3115
-1.31153
-1.31156
-1.31159
-1.31162
-1.31164
-1.31167
-1.3117
-1.31173
-1.31175
-1.31178
-1.3118
-1.31183
-1.31185
-1.31188
-1.3119
-1.31193
-1.31195
-1.31198
-1.312
-1.31203
-1.31205
-1.31207
-1.3121
-1.31212
-1.31215
-1.31217
-1.3122
-1.31223
-1.31225
-1.31228
-1.31231
-1.31233
-1.31236
-1.31239
-1.31241
-1.31244
-1.31247
-1.3125
-1.31252
-1.31255
-1.33862
-1.33887
-1.33914
-1.33942
-1.33971
-1.34005
-1.34042
-1.34057
-1.32255
-1.33036
-1.33096
-1.33135
-1.33154
-1.33181
-1.33205
-1.33228
-1.33252
-1.33248
-1.33204
-1.33167
-1.33197
-1.33299
-1.33354
-1.33383
-1.33394
-1.33406
-1.33426
-1.33447
-1.33469
-1.33491
-1.3351
-1.3144
-1.32866
-1.32908
-1.32759
-1.32774
-1.3279
-1.31294
-1.32162
-1.32188
-1.32191
-1.32198
-1.32231
-1.32233
-1.32234
-1.32246
-1.3226
-1.31636
-1.32094
-1.32078
-1.3201
-1.32017
-1.32044
-1.31105
-1.32225
-1.32213
-1.32167
-1.32172
-1.32181
-1.32073
-1.32278
-1.32264
-1.32262
-1.32273
-1.32284
-1.32088
-1.32082
-1.32071
-1.32055
-1.32073
-1.32257
-1.32081
-1.32341
-1.32336
-1.32335
-1.32335
-1.32337
-1.32345
-1.3235
-1.32354
-1.32378
-1.3238
-1.32388
-1.32398
-1.3241
-1.32417
-1.32429
-1.3244
-1.3245
-1.32455
-1.32458
-1.32459
-1.32459
-1.3246
-1.3246
-1.32461
-1.32462
-1.32463
-1.32464
-1.32466
-1.32469
-1.32472
-1.32476
-1.3248
-1.32484
-1.32489
-1.32494
-1.32499
-1.32505
-1.3251
-1.32516
-1.32522
-1.32529
-1.32535
-1.32542
-1.32549
-1.32556
-1.32564
-1.32571
-1.32578
-1.32586
-1.32593
-1.326
-1.32607
-1.32615
-1.32622
-1.32629
-1.32635
-1.32642
-1.32649
-1.32655
-1.32662
-1.32668
-1.32675
-1.32681
-1.32687
-1.32693
-1.32699
-1.32705
-1.32711
-1.32717
-1.32722
-1.32728
-1.32734
-1.32739
-1.32745
-1.3275
-1.32756
-1.32761
-1.32766
-1.32772
-1.32777
-1.32783
-1.32788
-1.32793
-1.32799
-1.32804
-1.3281
-1.32815
-1.32821
-1.32826
-1.32832
-1.32837
-1.32843
-1.32849
-1.32855
-1.3286
-1.32866
-1.32872
-1.32878
-1.32884
-1.3289
-1.32896
-1.32902
-1.32909
-1.32915
-1.32921
-1.32928
-1.32934
-1.32941
-1.32947
-1.32954
-1.3296
-1.32967
-1.32974
-1.32981
-1.32987
-1.32994
-1.33001
-1.33008
-1.33015
-1.33022
-1.33029
-1.33036
-1.33043
-1.3305
-1.33057
-1.33064
-1.33071
-1.33078
-1.33085
-1.33092
-1.33099
-1.33106
-1.33113
-1.3312
-1.33127
-1.33134
-1.33141
-1.33148
-1.33155
-1.33162
-1.33168
-1.33175
-1.33182
-1.33189
-1.33195
-1.33202
-1.33209
-1.33215
-1.33222
-1.33228
-1.33235
-1.33241
-1.33248
-1.33254
-1.3326
-1.33266
-1.33272
-1.33278
-1.33283
-1.33289
-1.33294
-1.33299
-1.33304
-1.33309
-1.33315
-1.3332
-1.33325
-1.3333
-1.33334
-1.33339
-1.33343
-1.33347
-1.33351
-1.33355
-1.33359
-1.33363
-1.33367
-1.33371
-1.33374
-1.33378
-1.33381
-1.33384
-1.33388
-1.33391
-1.33394
-1.33397
-1.334
-1.33403
-1.33405
-1.33408
-1.33411
-1.33413
-1.33416
-1.33418
-1.33421
-1.33423
-1.33425
-1.33427
-1.3343
-1.33432
-1.33434
-1.33436
-1.33438
-1.3344
-1.33442
-1.33444
-1.33447
-1.33449
-1.33451
-1.33453
-1.33455
-1.33458
-1.3346
-1.33462
-1.33465
-1.33467
-1.3347
-1.33472
-1.33475
-1.33477
-1.3348
-1.33483
-1.33486
-1.33489
-1.33491
-1.33494
-1.33497
-1.335
-1.36052
-1.36076
-1.36099
-1.36131
-1.36143
-1.36147
-1.36172
-1.36201
-1.36247
-1.36305
-1.35475
-1.35501
-1.35524
-1.35197
-1.35805
-1.34716
-1.3582
-1.34857
-1.35135
-1.35195
-1.35081
-1.35026
-1.34996
-1.35179
-1.35229
-1.35249
-1.35268
-1.35286
-1.35304
-1.35321
-1.3516
-1.35251
-1.35298
-1.35302
-1.35308
-1.35318
-1.35268
-1.35311
-1.35295
-1.35296
-1.35299
-1.35122
-1.35122
-1.34961
-1.3493
-1.35071
-1.34439
-1.34584
-1.34583
-1.34526
-1.34535
-1.34627
-1.33618
-1.34101
-1.34104
-1.34038
-1.34351
-1.34321
-1.3433
-1.34612
-1.34373
-1.34382
-1.34422
-1.34255
-1.3437
-1.34371
-1.34328
-1.3439
-1.34352
-1.34367
-1.3438
-1.34383
-1.34398
-1.3441
-1.34392
-1.34449
-1.34465
-1.34496
-1.34483
-1.34544
-1.34552
-1.34561
-1.3457
-1.34578
-1.34586
-1.34596
-1.34609
-1.34616
-1.34628
-1.34635
-1.34643
-1.34654
-1.34664
-1.34673
-1.34682
-1.3469
-1.34697
-1.34707
-1.34716
-1.34724
-1.34731
-1.34739
-1.34747
-1.34756
-1.34764
-1.34772
-1.3478
-1.34788
-1.34796
-1.34804
-1.34811
-1.34819
-1.34826
-1.34833
-1.34841