/*--------------------------------*- C++ -*----------------------------------*\
| =========                 |                                                 |
| \\      /  F ield         | OpenFOAM: The Open Source CFD Toolbox           |
|  \\    /   O peration     | Version:  2.4.0                                 |
|   \\  /    A nd           | Web:      www.OpenFOAM.org                      |
|    \\/     M anipulation  |                                                 |
\*---------------------------------------------------------------------------*/
FoamFile
{
    version     2.0;
    format      ascii;
    class       volScalarField;
    location    "3.7";
    object      p_rgh;
}
// * * * * * * * * * * * * * * * * * * * * * * * * * * * * * * * * * * * * * //

dimensions      [1 -1 -2 0 0 0 0];

internalField   nonuniform List<scalar> 
8000
(
85.9575
85.9258
85.8936
85.8669
85.8455
85.829
85.815
85.8061
85.8007
85.7995
85.8022
85.8098
85.8211
85.8366
85.8561
85.8793
85.9061
85.9366
85.9698
86.0062
86.0458
86.0884
86.1334
86.1804
86.2296
86.2793
86.3302
86.3822
86.4347
86.4891
86.5507
86.6137
86.6201
86.6189
86.9078
86.7743
87.0473
87.3919
85.2368
80.767
69.4949
52.0188
19.5835
5.23951
4.69667
3.31522
1.26832
0.575764
0.424211
0.354507
87.9462
87.9105
87.8732
87.8414
87.8152
87.7941
87.7765
87.764
87.7552
87.751
87.7512
87.7558
87.7644
87.7777
87.7953
87.8173
87.8441
87.8754
87.9114
87.9526
87.9982
88.0489
88.105
88.1661
88.2327
88.3045
88.3818
88.4644
88.5528
88.6465
88.7461
88.851
88.962
89.0802
89.2117
89.3539
89.5061
89.6503
89.779
89.9337
90.0795
90.2291
89.9608
84.6356
76.578
44.7222
14.2264
7.37017
4.61113
2.60172
89.6305
89.6024
89.5738
89.5495
89.5292
89.5122
89.4982
89.4873
89.4794
89.4747
89.473
89.4744
89.479
89.4866
89.4974
89.5112
89.5283
89.5485
89.5719
89.5985
89.6284
89.6615
89.698
89.7378
89.7811
89.8279
89.8783
89.9323
89.99
90.0515
90.117
90.1865
90.2602
90.3382
90.4212
90.5085
90.6008
90.6973
90.7996
90.9091
91.0265
91.1399
91.246
91.35
91.5018
91.5904
88.5017
75.6339
50.9744
29.4547
90.1603
90.1457
90.1292
90.114
90.1005
90.0883
90.0772
90.0674
90.0589
90.0515
90.0454
90.0405
90.0368
90.0343
90.0329
90.0327
90.0335
90.0355
90.0384
90.0423
90.0471
90.0527
90.0591
90.0663
90.074
90.0822
90.0909
90.0999
90.1091
90.1183
90.1275
90.1366
90.1453
90.1535
90.161
90.1677
90.1734
90.1779
90.181
90.1825
90.1821
90.18
90.1765
90.1728
90.1664
90.1461
90.1075
89.9591
88.5866
82.8705
91.3645
91.3496
91.3345
91.3211
91.309
91.298
91.2878
91.2786
91.2703
91.263
91.2567
91.2513
91.2468
91.2433
91.2407
91.239
91.2381
91.2381
91.2389
91.2405
91.2429
91.2459
91.2496
91.2539
91.2588
91.2642
91.27
91.2762
91.2827
91.2894
91.2963
91.3031
91.3099
91.3165
91.3227
91.3285
91.3336
91.338
91.3413
91.3433
91.344
91.3428
91.3396
91.334
91.3255
91.3134
91.2965
91.2781
91.2708
91.2813
91.6387
91.6263
91.6119
91.5982
91.5857
91.5739
91.5628
91.5524
91.5426
91.5335
91.525
91.5171
91.5098
91.5032
91.4971
91.4916
91.4867
91.4822
91.4783
91.4749
91.4719
91.4694
91.4673
91.4656
91.4642
91.4632
91.4624
91.462
91.4617
91.4617
91.4619
91.4622
91.4626
91.4631
91.4637
91.4643
91.4649
91.4656
91.4661
91.4667
91.4673
91.4679
91.4684
91.469
91.4698
91.4708
91.4723
91.4746
91.4757
91.4734
92.5899
92.5756
92.5611
92.5484
92.5371
92.5267
92.5173
92.5089
92.5014
92.4948
92.4892
92.4845
92.4807
92.4779
92.4759
92.4749
92.4747
92.4754
92.477
92.4795
92.4829
92.4872
92.4923
92.4982
92.5051
92.5128
92.5213
92.5307
92.541
92.5521
92.5641
92.577
92.5907
92.6053
92.6207
92.637
92.6542
92.6723
92.6912
92.7111
92.7318
92.7535
92.7761
92.7996
92.824
92.8497
92.8769
92.9054
92.9324
92.9554
92.637
92.6287
92.6192
92.6104
92.6024
92.5952
92.5886
92.5826
92.5773
92.5725
92.5684
92.5649
92.5621
92.5598
92.5581
92.5571
92.5567
92.5568
92.5576
92.5589
92.5609
92.5634
92.5665
92.5701
92.5744
92.5792
92.5845
92.5904
92.5968
92.6038
92.6112
92.6192
92.6277
92.6366
92.646
92.6559
92.6661
92.6768
92.6879
92.6993
92.7109
92.7229
92.7351
92.7482
92.7624
92.7758
92.7807
92.7737
92.6708
92.3395
93.2078
93.2013
93.1951
93.19
93.1858
93.1824
93.1797
93.1778
93.1766
93.1761
93.1765
93.1776
93.1794
93.1821
93.1856
93.19
93.1952
93.2012
93.2082
93.216
93.2249
93.2347
93.2455
93.2573
93.2702
93.2843
93.2995
93.316
93.3337
93.3527
93.3731
93.395
93.4184
93.4434
93.47
93.4985
93.5287
93.561
93.5951
93.6315
93.6701
93.7127
93.7603
93.8091
93.8369
93.8294
93.5695
92.891
85.1292
67.2622
93.2103
93.2078
93.2052
93.2032
93.2018
93.2011
93.2009
93.2013
93.2023
93.2038
93.206
93.2088
93.2123
93.2164
93.2211
93.2266
93.2327
93.2396
93.2473
93.2558
93.2651
93.2753
93.2864
93.2985
93.3116
93.3258
93.3411
93.3576
93.3753
93.3945
93.415
93.437
93.4606
93.4859
93.513
93.542
93.5729
93.6058
93.641
93.6798
93.7245
93.7741
93.8099
93.7067
93.1425
91.9432
76.3816
50.6113
27.5272
7.43867
93.3661
93.3695
93.3732
93.3764
93.3791
93.3813
93.3832
93.3846
93.3856
93.3862
93.3863
93.386
93.3853
93.3841
93.3825
93.3804
93.3779
93.3748
93.3712
93.3671
93.3624
93.3571
93.3513
93.3447
93.3376
93.3296
93.3211
93.3116
93.3014
93.2902
93.2783
93.265
93.2511
93.2357
93.2196
93.2011
93.1816
93.1612
93.1495
93.1502
93.1204
92.8078
91.7833
84.89
56.8261
32.9923
5.5597
0.431486
0.526667
0.124212
93.4126
93.421
93.4296
93.437
93.4434
93.4488
93.4534
93.4572
93.4601
93.4623
93.4635
93.464
93.4636
93.4624
93.4603
93.4573
93.4535
93.4488
93.4432
93.4367
93.4293
93.4209
93.4117
93.4013
93.3901
93.3777
93.3643
93.3497
93.3342
93.3173
93.2994
93.28
93.2596
93.2368
93.2121
93.1872
93.1756
93.1877
93.1554
92.7682
91.5441
80.9451
45.199
15.576
0.800945
0.808774
0.0831652
0.0912992
0.0912367
0.0855633
93.7859
93.7948
93.8045
93.8131
93.8207
93.8275
93.8336
93.839
93.8437
93.8477
93.8509
93.8535
93.8554
93.8565
93.8571
93.8569
93.8561
93.8546
93.8524
93.8496
93.8462
93.8421
93.8374
93.832
93.826
93.8195
93.8122
93.8044
93.796
93.787
93.7774
93.7669
93.7549
93.7427
93.7381
93.7544
93.7624
93.5614
92.7906
85.9417
40.276
6.53366
0.706804
0.686704
0.0886035
0.0974036
0.0890492
0.0875084
0.0873164
0.0873447
94.1677
94.1826
94.1983
94.212
94.2237
94.2337
94.2421
94.249
94.2544
94.2582
94.2605
94.2612
94.2604
94.2581
94.2543
94.249
94.2422
94.2338
94.224
94.2127
94.1999
94.1857
94.17
94.1529
94.1343
94.1143
94.0928
94.0701
94.0459
94.0204
93.9926
93.9628
93.9353
93.9257
93.9372
93.8502
93.2749
92.069
59.1286
6.5587
0.269469
0.2172
0.11148
0.101654
0.0917855
0.0899121
0.090071
0.089933
0.0896951
0.0894552
94.6592
94.6702
94.6812
94.6907
94.6988
94.706
94.7123
94.7176
94.722
94.7255
94.728
94.7296
94.7302
94.73
94.729
94.7271
94.7243
94.7208
94.7166
94.7117
94.7061
94.7
94.6933
94.6862
94.6787
94.6709
94.6629
94.6549
94.6465
94.6379
94.6289
94.624
94.6335
94.6551
94.5871
94.1604
93.4204
43.8367
0.933039
0.0961495
0.103879
0.101306
0.0971936
0.0951913
0.0947842
0.0939924
0.0932608
0.0926708
0.0922104
0.0919644
95.9584
95.9739
95.9916
96.0069
96.0196
96.0298
96.0377
96.0435
96.0471
96.0485
96.0477
96.0448
96.0396
96.0322
96.0226
96.0108
95.9967
95.9802
95.9615
95.9403
95.9166
95.8904
95.8617
95.8301
95.7959
95.7587
95.7185
95.6752
95.6285
95.5774
95.5224
95.4694
95.4335
95.4038
95.2202
94.4987
93.4499
39.6294
2.95846
0.108184
0.130142
0.102318
0.0934152
0.0924521
0.092078
0.0919122
0.0916564
0.0914287
0.0912352
0.0910577
96.0313
96.0571
96.0806
96.0988
96.1128
96.1234
96.1307
96.1347
96.1354
96.1328
96.127
96.1178
96.1054
96.0896
96.0704
96.0478
96.0217
95.9919
95.9585
95.9212
95.8799
95.8346
95.7849
95.7308
95.672
95.6082
95.5393
95.4649
95.3848
95.2984
95.2054
95.1055
95.0009
94.8946
94.7788
94.5964
94.2452
93.8962
61.0392
4.38057
2.13198
0.113879
0.155416
0.086325
0.086468
0.0867662
0.0863756
0.0863177
0.0865186
0.0866473
99.29
99.2936
99.2999
99.3043
99.3061
99.3058
99.3041
99.3015
99.2983
99.2949
99.2916
99.2886
99.2861
99.2844
99.2837
99.2842
99.2859
99.2891
99.2938
99.3003
99.3084
99.3183
99.3302
99.3439
99.3596
99.3773
99.3969
99.4185
99.442
99.4675
99.4947
99.524
99.5547
99.5861
99.616
99.6481
99.7067
99.8383
99.9656
99.3327
68.7957
6.13801
2.4764
0.0448974
0.0926587
0.102491
0.0748532
0.0961028
0.0900064
0.0890528
99.4673
99.4881
99.5008
99.5047
99.5031
99.4982
99.4911
99.4825
99.4734
99.4643
99.4558
99.4486
99.443
99.4394
99.4383
99.4398
99.4444
99.4521
99.4634
99.4782
99.4968
99.5194
99.546
99.5767
99.6117
99.6509
99.6944
99.7422
99.7944
99.8507
99.9113
99.9758
100.044
100.116
100.192
100.272
100.354
100.422
100.453
100.509
100.562
99.4181
87.0999
46.2641
1.48182
1.25961
1.37408
1.76705
0.0786688
0.0915021
105.506
105.057
104.606
104.219
103.882
103.581
103.309
103.064
102.845
102.649
102.474
102.32
102.185
102.068
101.968
101.885
101.819
101.768
101.733
101.713
101.709
101.72
101.746
101.787
101.844
101.917
102.006
102.112
102.234
102.375
102.535
102.715
102.916
103.14
103.39
103.666
103.973
104.314
104.694
105.114
105.563
106.038
106.55
106.96
103.656
105.736
83.4816
102.131
39.1885
0.0926399
0.29374
0.209268
0.149423
0.122954
0.110905
0.102956
0.0983626
0.0979685
0.0981249
0.0976778
0.0957343
0.0949084
0.0955042
0.095813
0.0963369
0.0976816
0.108876
0.100906
0.100567
0.100734
0.101576
0.102498
0.103981
0.104406
0.105731
0.107212
0.108575
0.110489
0.129707
0.128304
0.0883514
0.0870004
0.0880453
0.0893789
0.0906006
0.0917813
0.0934014
0.0941061
0.095139
0.0959531
0.0968497
0.0977335
0.0985923
0.0993848
0.100626
0.101433
0.102166
0.102146
0.104876
0.1036
1.54372
0.981159
0.604632
0.360841
0.220155
0.147956
0.116369
0.104557
0.10027
0.0984768
0.097449
0.0967092
0.0964494
0.0966081
0.096362
0.096642
0.0962308
0.0961362
0.0961623
0.0961474
0.0961277
0.0961431
0.0962244
0.0963875
0.0968125
0.0983034
0.103693
0.113843
0.115548
0.115207
0.113662
0.108837
0.0990156
0.0940272
0.0928923
0.0926168
0.0923378
0.0917342
0.0914023
0.091096
0.0907925
0.0904808
0.0903251
0.0923014
0.0908445
0.0902978
0.0908266
0.0901383
0.0898254
0.0964645
18.4562
11.9884
7.2099
3.83323
1.80303
0.776521
0.342911
0.182835
0.126059
0.103198
0.0923497
0.0869165
0.0841337
0.0827039
0.0819074
0.081513
0.0812591
0.0809582
0.0806099
0.0802042
0.0797613
0.0792137
0.0786225
0.0779488
0.0773487
0.0770429
0.0789158
0.146685
0.116143
0.103143
0.100475
0.0980512
0.0951347
0.0932144
0.0923519
0.0915987
0.0907902
0.0900155
0.0892236
0.0883507
0.0880319
0.0889155
0.0879073
0.0864594
0.0848962
0.0836652
0.0825579
0.0813898
0.0801504
0.0789058
73.6156
60.0118
44.8742
29.4043
16.448
7.55474
2.76517
0.871925
0.30711
0.155918
0.111722
0.0965467
0.0904915
0.0878357
0.0867064
0.0869036
0.086886
0.0872498
0.0872354
0.086946
0.0869235
0.0868911
0.0868406
0.0867737
0.0867805
0.0877592
0.0880719
0.0855449
0.0853705
0.0852394
0.0851105
0.0850195
0.0849756
0.0849651
0.0852986
0.086189
0.0865247
0.0864983
0.0860509
0.0852683
0.0848604
0.0846186
0.08435
0.0839991
0.0837271
0.0834661
0.0831728
0.0828431
0.0824782
0.0820827
91.2122
87.4207
82.1427
71.3563
54.9172
33.1808
12.0986
2.69789
0.499731
0.162395
0.105598
0.0919612
0.0872241
0.085393
0.0847129
0.0846972
0.0848609
0.0839415
0.0838685
0.0838139
0.0837566
0.0840589
0.0842539
0.083558
0.0831134
0.0830517
0.0829923
0.0829281
0.0828674
0.0828278
0.0827932
0.0829607
0.0844871
0.0843041
0.0859668
0.0855422
0.089672
0.0869453
0.0861916
0.0857462
0.0854791
0.0851986
0.0849062
0.0846042
0.0842925
0.0839688
0.0836332
0.0832846
0.0829234
0.0825449
91.4781
91.4773
91.3916
87.6519
77.6785
57.0506
21.9639
4.20482
0.577475
0.128508
0.0914277
0.0871519
0.0858811
0.0858715
0.0858411
0.0857246
0.0856535
0.0856062
0.0855491
0.085796
0.0855702
0.0877641
0.0856797
0.0856491
0.0856181
0.0855726
0.0857415
0.0857677
0.0854535
0.0854481
0.0854319
0.0854361
0.085423
0.0854308
0.0862102
0.0856773
0.0856537
0.0856247
0.0855879
0.0855515
0.0855157
0.0854732
0.0854258
0.0853736
0.0853166
0.0852648
0.0852073
0.0851465
0.085136
0.0857765
92.9334
92.7826
89.814
75.2184
52.7419
27.9509
7.98348
1.07121
0.155975
0.0852386
0.0857077
0.0855653
0.0854791
0.0854126
0.0853952
0.0853775
0.0853572
0.0853386
0.0853267
0.0853163
0.0852941
0.0852775
0.0852713
0.0852535
0.0852366
0.0852251
0.0851928
0.085283
0.0851579
0.0851373
0.0851117
0.0852667
0.0851139
0.0851088
0.0851178
0.0850009
0.085052
0.0849422
0.0849183
0.0849049
0.0848758
0.0848616
0.0848457
0.0851758
0.0852447
0.0848623
0.0844745
0.0845072
0.0846127
0.0842062
88.2829
75.1139
53.7001
27.6003
10.4028
0.660288
0.149002
0.0855714
0.0878648
0.087124
0.0868868
0.086844
0.0868373
0.0868269
0.0868118
0.0867819
0.0867466
0.0867149
0.0866818
0.0866443
0.0866327
0.0865701
0.0865266
0.0864628
0.0864361
0.086408
0.0866103
0.0865135
0.0863718
0.0861515
0.0861081
0.0867561
0.086524
0.0862864
0.0868721
0.0864027
0.0861297
0.0861975
0.0861051
0.0861338
0.0868235
0.0859506
0.0857923
0.0857534
0.0856944
0.0865177
0.0855087
0.0854609
0.0853897
0.0852982
43.2753
21.984
6.066
0.416665
0.431951
0.0821035
0.0879955
0.0872089
0.0868581
0.0868227
0.0868989
0.0869299
0.0869443
0.0869597
0.0869744
0.0869881
0.0869995
0.0870111
0.0870307
0.0869869
0.0869734
0.0869738
0.0869849
0.0869479
0.0870701
0.0870923
0.0868322
0.0867261
0.0867124
0.0866978
0.086695
0.0867057
0.0866723
0.0866417
0.0866407
0.0867902
0.0872727
0.0870986
0.0868269
0.0868389
0.086749
0.087069
0.0869393
0.0871933
0.087059
0.0873261
0.0882314
0.0881016
0.0877506
0.0876727
1.3332
0.25413
0.268195
0.0899798
0.0910739
0.088017
0.0879107
0.0879531
0.0879604
0.0879381
0.0879183
0.0879031
0.0879008
0.0879028
0.087908
0.087916
0.0879263
0.0879383
0.087952
0.0879685
0.0879867
0.0880065
0.0880286
0.0880548
0.088083
0.0881108
0.0881427
0.0882032
0.0884121
0.0883046
0.0883039
0.0883511
0.0883991
0.0884513
0.0885057
0.08859
0.0890146
0.089433
0.0883332
0.0884084
0.0884857
0.0885663
0.0888308
0.0888781
0.0888979
0.0892461
0.0904248
0.087658
0.087764
0.0878712
0.11797
0.0902214
0.0882761
0.0876054
0.0878734
0.0881322
0.0881631
0.0880984
0.0880507
0.0880195
0.0879957
0.0879792
0.0879709
0.0879676
0.0879697
0.0879748
0.0879819
0.0879907
0.0880012
0.0880134
0.0880271
0.0880435
0.0880668
0.0880994
0.0881369
0.0881781
0.088223
0.0882699
0.0883136
0.0883764
0.088435
0.0884984
0.089024
0.0886304
0.0887118
0.0887956
0.0888824
0.089063
0.0890662
0.0891696
0.089271
0.0893988
0.0896869
0.089772
0.0898082
0.0901341
0.0912799
0.0889573
0.0891055
0.0892553
0.0852637
0.0853202
0.0856343
0.0859477
0.0862391
0.0868643
0.0864288
0.086388
0.0864623
0.086536
0.0865984
0.0866543
0.0867101
0.0867791
0.0868401
0.0868966
0.0869529
0.0870066
0.087057
0.087108
0.0871609
0.0872094
0.0872512
0.0873246
0.087402
0.087471
0.0875506
0.0883056
0.0875229
0.0877564
0.0876905
0.0884033
0.0884976
0.0882739
0.0883273
0.0882641
0.0889494
0.0889651
0.0889465
0.0889897
0.0886815
0.0893206
0.0891582
0.0892014
0.0894232
0.0900909
0.0899807
0.0897691
0.0899851
0.0900985
0.0872731
0.0871759
0.0870663
0.0869537
0.0868465
0.0873092
0.0867614
0.0866627
0.0865345
0.086563
0.0864155
0.0866402
0.0884891
0.0880307
0.0874459
0.0873377
0.0873413
0.0873147
0.0872649
0.0873539
0.0877093
0.0891913
0.0909244
0.0898852
0.0882858
0.0880104
0.0880333
0.0880541
0.0880996
0.0881444
0.0882041
0.0882942
0.088376
0.0884577
0.0885491
0.0886233
0.0886824
0.0888813
0.0891077
0.0890143
0.0890795
0.0891761
0.0905562
0.0891332
0.0891289
0.0892268
0.0891677
0.0892093
0.0892604
0.0900425
0.0892343
0.0890312
0.0888563
0.088743
0.0885457
0.0883636
0.0882974
0.0909555
0.0880409
0.0874687
0.0873713
0.0871954
0.0870992
0.0869741
0.0871949
0.0875212
0.0874322
0.0855841
0.0850323
0.0848884
0.0847436
0.0845931
0.0844264
0.0951601
0.0898384
0.0887126
0.0883476
0.0881818
0.0878837
0.0885896
0.0918167
0.0916398
0.0905468
0.0923587
0.0915163
0.0921205
0.0920172
0.0903884
0.0895688
0.0898826
0.0886465
0.0899613
0.0897792
0.0890124
0.0898835
0.0897321
0.0899613
0.0909092
0.0907254
0.0902019
0.091733
0.0915443
0.0913166
0.0913213
0.0926315
0.094185
0.0940875
0.093798
0.0927716
0.0905356
0.0895288
0.0892924
0.0891061
0.0889198
0.0887465
0.0885726
0.0883814
0.0904508
0.0892617
0.0889169
0.0887919
0.0886955
0.0886068
0.0885635
0.0901043
0.0890776
0.0890632
0.0890438
0.0890198
0.0890018
0.0889887
0.0889769
0.0892885
0.0904391
0.0904238
0.0908494
0.0910959
0.0926959
0.0911012
0.0908135
0.0908641
0.0908988
0.0909345
0.090969
0.0910217
0.0910719
0.0911244
0.0911721
0.0912278
0.0912797
0.0908835
0.0907085
0.090535
0.0903651
0.0902003
0.0900335
0.0898583
0.0897309
0.0896001
0.0894612
0.08932
0.0891835
0.0890551
0.0889311
0.0888113
0.0886944
0.0885859
0.0884831
0.0883858
0.0882904
0.0881987
0.0881087
0.0880244
0.0879785
0.0886081
0.0905999
0.0905257
0.0899914
0.0892849
0.0894532
0.0893946
0.0897155
0.0894973
0.0894229
0.0893844
0.0893335
0.0893455
0.0904729
0.0891233
0.0891746
0.0891279
0.089262
0.0899548
0.0900612
0.0899843
0.089453
0.091357
0.0911724
0.0916276
0.0926084
0.0867527
0.0868544
0.0869159
0.0869568
0.0870125
0.087057
0.0871104
0.0871533
0.0872186
0.0872665
0.0873404
0.0873757
0.0874602
0.0874833
0.087573
0.0875863
0.0876819
0.087694
0.0878105
0.0878193
0.0878768
0.0880581
0.0882045
0.088427
0.0883973
0.0885056
0.0885201
0.0889042
0.0885797
0.088552
0.088685
0.0888418
0.0888605
0.0889083
0.0891386
0.0889172
0.0889674
0.089047
0.0891142
0.0891992
0.0892818
0.0893788
0.0894932
0.0895705
0.0897254
0.0897209
0.0897818
0.089874
0.0899517
0.0900201
0.0885182
0.0886594
0.0885153
0.0885192
0.088562
0.0885994
0.0886318
0.0886632
0.0886911
0.0887184
0.0887424
0.0887664
0.0887879
0.0888101
0.0888311
0.0888577
0.0888795
0.0888947
0.0889122
0.0889278
0.0889445
0.0889663
0.0889904
0.0890241
0.0890538
0.0890573
0.0890946
0.0891138
0.0891446
0.0891811
0.0892707
0.089349
0.0893026
0.0893337
0.0893574
0.0894005
0.0894454
0.089489
0.0895332
0.0895787
0.089622
0.0896633
0.0897045
0.0897912
0.0899721
0.0898289
0.0898664
0.0898747
0.090386
0.090281
0.0889626
0.0882985
0.088294
0.0883602
0.0883838
0.0883939
0.0884098
0.0884334
0.0884623
0.0884948
0.0885299
0.0885667
0.0886047
0.0886433
0.0886821
0.088721
0.08876
0.0887991
0.0888381
0.0888761
0.0889135
0.0889508
0.0889878
0.0890243
0.0890607
0.0890974
0.0891335
0.0891686
0.0892032
0.0892374
0.0892716
0.089307
0.089343
0.0893787
0.0894141
0.0894495
0.0894854
0.0895219
0.0895587
0.0895959
0.0896337
0.0896719
0.08971
0.0897482
0.0897881
0.0898293
0.0898703
0.0899098
0.08995
0.0899928
0.0900919
0.0903868
0.0904366
0.0903144
0.0901748
0.0900645
0.0899758
0.0899083
0.0898413
0.0897778
0.0897285
0.0896866
0.0896515
0.0896229
0.0896001
0.089582
0.0895676
0.0895568
0.0895491
0.0895443
0.0895421
0.0895423
0.0895448
0.0895494
0.089556
0.0895645
0.0895746
0.0895863
0.0895994
0.089614
0.0896301
0.0896476
0.0896663
0.0896861
0.089707
0.0897289
0.0897517
0.0897756
0.0898003
0.0898258
0.0898521
0.0898791
0.0899066
0.0899349
0.0899637
0.0899931
0.0900228
0.090053
0.0900836
0.0901142
0.106573
0.107062
0.10628
0.108934
0.109327
0.10971
0.110398
0.111162
0.111924
0.112637
0.114165
0.119569
0.12729
0.129661
0.0726908
0.0685813
0.0702075
0.0711685
0.0724546
0.0741662
0.0754144
0.0740781
0.0755468
0.0798111
0.0770584
0.077019
0.0786713
0.0771916
0.0813942
0.0914329
0.0703539
0.0720155
0.0727978
0.0730118
0.0761443
0.0817226
0.0881002
0.0894074
0.0858207
0.0838895
0.0852967
0.086111
0.0865871
0.0969855
0.0943055
0.0940883
0.0952187
0.0961347
0.0963672
0.09797
0.102284
0.123784
0.0783035
0.0791295
0.0802773
0.0790006
0.0809599
0.0846993
0.0954061
0.0721197
0.072768
0.0736337
0.0746011
0.0753082
0.0756347
0.0765372
0.0772123
0.0777837
0.0781919
0.0786599
0.07941
0.0799747
0.0803556
0.0815647
0.087597
0.116427
0.191708
0.248501
0.230023
0.164982
0.116445
0.103534
0.101871
0.101603
0.101239
0.100819
0.102922
0.140364
0.106444
0.103287
0.102767
0.10254
0.102321
0.102136
0.101975
0.101827
0.101687
0.101552
0.10142
0.101287
0.101154
0.101019
0.100882
0.100742
0.1006
0.100455
0.100308
0.100159
0.100009
0.0998561
0.0997023
0.0995476
0.0993926
0.0992376
0.0990823
0.0989233
0.0987638
0.0986044
0.0984452
0.0982864
0.098128
0.0979703
0.0978134
0.0976576
0.0975029
0.0973495
0.0971976
0.0970472
0.0968985
0.0967515
0.0966063
0.0964631
0.0963217
0.0961823
0.096045
0.0959097
0.0957764
0.0956452
0.095516
0.0953889
0.0952637
0.0951406
0.0950195
0.0949003
0.0947831
0.0946677
0.0945542
0.0944424
0.0943324
0.0942241
0.0941175
0.0940125
0.093909
0.0938071
0.0937066
0.0936076
0.0935099
0.0934135
0.0933184
0.0932245
0.0931317
0.0930401
0.0929496
0.0928601
0.0927716
0.0926841
0.0925975
0.0925117
0.0924268
0.0923426
0.0922593
0.0921766
0.0920947
0.0920134
0.0919327
0.0918527
0.0917732
0.0916943
0.0916159
0.091538
0.0914606
0.0913836
0.0913071
0.091231
0.0911554
0.0910801
0.0910052
0.0909307
0.0908566
0.0907828
0.0907093
0.0906362
0.0905634
0.090491
0.0904188
0.090347
0.0902755
0.0902043
0.0901334
0.0900628
0.0899925
0.0899226
0.0898529
0.0897836
0.0897146
0.0896459
0.0895776
0.0895095
0.0894419
0.0893745
0.0893076
0.089241
0.0891747
0.0891089
0.0890434
0.0889784
0.0889138
0.0888496
0.0887858
0.0887225
0.0886597
0.0885974
0.0885356
0.0884743
0.0884136
0.0883534
0.0882938
0.0882348
0.0881764
0.0881187
0.0880616
0.0880053
0.0879496
0.0878947
0.0878406
0.0877871
0.0877344
0.0876825
0.0876313
0.0875808
0.0875311
0.0874821
0.0874339
0.0873863
0.0873395
0.0872934
0.087248
0.0872033
0.0871593
0.087116
0.0870734
0.0870314
0.0869901
0.0869494
0.0869094
0.08687
0.0868311
0.0867929
0.0867553
0.0867182
0.0866817
0.0866457
0.0866102
0.0865752
0.0865407
0.0865066
0.086473
0.0864399
0.0864071
0.0863747
0.0863427
0.0863111
0.0862798
0.0862488
0.0862181
0.0861877
0.0861576
0.0861277
0.0860981
0.0860687
0.0860395
0.0860105
0.0859816
0.085953
0.0859245
0.0858962
0.085868
0.0858399
0.085812
0.0857842
0.0857565
0.085729
0.0857016
0.0856744
0.0856475
0.0856208
0.0855945
0.0855683
0.085542
0.0855167
0.0960382
0.0953728
0.094744
0.0942497
0.0939341
0.0940922
0.0935115
0.0942553
0.0938434
0.0919426
0.0929843
0.0896744
0.0904855
0.0914375
0.0923015
0.0937879
0.0938927
0.0810391
0.108525
0.0943532
0.0968089
0.0972645
0.0778396
0.0753565
0.0799713
0.079273
0.0798374
0.0808917
0.0845101
0.087349
0.0880158
0.0779421
0.0743483
0.0723266
0.0741082
0.0736269
0.0728654
0.0733725
0.075043
0.0805936
0.0826651
0.0836023
0.0793293
0.0752134
0.0730714
0.0730923
0.0734525
0.0729776
0.0751257
0.081551
0.0847089
0.0849512
0.0833815
0.0786835
0.0768075
0.0769322
0.077272
0.0775773
0.0778579
0.0782052
0.0818401
0.0902034
0.0901855
0.0877322
0.085957
0.0860382
0.0863442
0.0866572
0.0869852
0.0873136
0.0882104
0.0916503
0.0945263
0.0909801
0.0901254
0.091843
0.0918974
0.0919994
0.0926142
0.0931167
0.094075
0.0930099
0.0926065
0.0928785
0.0921296
0.0950226
0.109429
0.12261
0.12151
0.110021
0.102473
0.10128
0.101074
0.100858
0.100644
0.100442
0.100248
0.100058
0.099872
0.0996883
0.0995067
0.0993273
0.0991501
0.0989752
0.0988027
0.0986326
0.0984651
0.0983001
0.0981379
0.0979785
0.097822
0.0976683
0.0975175
0.0973696
0.0972246
0.0970825
0.0969432
0.0968066
0.0966727
0.0965414
0.0964128
0.0962866
0.0961629
0.0960416
0.0959225
0.0958058
0.0956912
0.0955786
0.0954682
0.0953596
0.095253
0.0951482
0.0950451
0.0949437
0.094844
0.0947459
0.0946492
0.094554
0.0944602
0.0943678
0.0942766
0.0941867
0.094098
0.0940105
0.093924
0.0938386
0.0937542
0.0936707
0.0935881
0.0935065
0.0934256
0.0933455
0.0932662
0.0931876
0.0931096
0.0930323
0.0929556
0.0928794
0.0928037
0.0927285
0.0926537
0.0925794
0.0925055
0.0924319
0.0923586
0.0922856
0.0922129
0.0921405
0.0920682
0.0919962
0.0919244
0.0918527
0.0917811
0.0917097
0.0916384
0.0915672
0.091496
0.091425
0.091354
0.0912831
0.0912122
0.0911413
0.0910706
0.0909998
0.0909291
0.0908584
0.0907878
0.0907173
0.0906468
0.0905763
0.090506
0.0904357
0.0903654
0.0902953
0.0902252
0.0901553
0.0900854
0.0900157
0.0899461
0.0898766
0.0898074
0.0897382
0.0896693
0.0896005
0.089532
0.0894637
0.0893956
0.0893278
0.0892603
0.089193
0.089126
0.0890594
0.0889931
0.0889271
0.0888615
0.0887963
0.0887315
0.0886671
0.0886031
0.0885396
0.0884766
0.0884141
0.088352
0.0882906
0.0882297
0.0881693
0.0881096
0.0880506
0.0879922
0.0879345
0.0878775
0.0878213
0.087766
0.0877114
0.0876577
0.0876049
0.0875529
0.0875017
0.0874514
0.087402
0.0873534
0.0873057
0.0872588
0.0872129
0.0871677
0.0871235
0.08708
0.0870373
0.0869954
0.0869544
0.0869141
0.0868744
0.0868355
0.0867973
0.0867598
0.086723
0.0866868
0.0866513
0.0866164
0.0865821
0.0865484
0.0865153
0.0864827
0.0864507
0.0864192
0.0863881
0.0863575
0.0863273
0.0862975
0.0862681
0.086239
0.0862103
0.0861818
0.0861536
0.0861256
0.0860979
0.0860703
0.0860429
0.0860156
0.0859884
0.0859613
0.0859343
0.0859073
0.0858803
0.0858534
0.0858264
0.0857995
0.0857725
0.0857455
0.0857184
0.0856913
0.0856642
0.0856371
0.08561
0.085583
0.0855561
0.0855294
0.0855027
0.085476
0.0854502
0.0835134
0.0802118
0.079138
0.0780461
0.0759391
0.0757728
0.0787048
0.0774189
0.075791
0.0741054
0.0728121
0.0716119
0.0703538
0.0690884
0.0677202
0.0662581
0.0648623
0.0650119
0.098948
0.092014
0.0853269
0.0852792
0.0758268
0.0852645
0.0834122
0.0801907
0.0770814
0.0767123
0.0747167
0.0726829
0.0752372
0.098181
0.0761476
0.070575
0.0769029
0.0740562
0.0750374
0.0851569
0.0834441
0.0805373
0.0951522
0.0932968
0.135352
0.116814
0.112367
0.115356
0.114323
0.111863
0.113865
0.119347
0.0997808
0.110536
0.0965111
0.105835
0.103221
0.1008
0.0997569
0.0995025
0.0992478
0.0990082
0.100625
0.100775
0.101194
0.0989297
0.100592
0.0962033
0.0960231
0.0960736
0.0961282
0.0961797
0.0961668
0.0969051
0.107501
0.0968157
0.0970384
0.0970876
0.0969595
0.0967814
0.0970831
0.0972752
0.0975493
0.0980383
0.0981695
0.0983342
0.0985115
0.0988938
0.0989598
0.0988294
0.0985892
0.0978216
0.0974957
0.0975231
0.0976156
0.0977089
0.0977979
0.0978791
0.0979499
0.0980084
0.0980534
0.0980843
0.0981012
0.0981042
0.098094
0.0980712
0.0980369
0.0979918
0.0979369
0.0978732
0.0978015
0.0977226
0.0976374
0.0975465
0.0974507
0.0973505
0.0972467
0.0971396
0.0970299
0.096918
0.0968044
0.0966894
0.0965734
0.0964569
0.0963399
0.0962229
0.096106
0.0959894
0.0958734
0.095758
0.0956435
0.0955299
0.0954173
0.0953059
0.0951956
0.0950866
0.0949788
0.0948723
0.0947672
0.0946633
0.0945608
0.0944595
0.0943596
0.0942611
0.0941637
0.0940677
0.0939729
0.0938794
0.093787
0.0936959
0.0936058
0.0935169
0.093429
0.0933422
0.0932563
0.0931714
0.0930874
0.0930042
0.0929219
0.0928403
0.0927595
0.0926794
0.0925999
0.092521
0.0924427
0.0923649
0.0922876
0.0922108
0.0921343
0.0920583
0.0919826
0.0919072
0.0918321
0.0917573
0.0916828
0.0916084
0.0915343
0.0914604
0.0913866
0.091313
0.0912396
0.0911663
0.091093
0.0910199
0.0909469
0.0908739
0.0908011
0.0907283
0.0906557
0.0905831
0.0905106
0.0904383
0.090366
0.0902939
0.0902218
0.0901499
0.0900781
0.0900064
0.0899348
0.0898634
0.0897922
0.0897212
0.0896504
0.0895797
0.0895091
0.0894387
0.0893685
0.0892985
0.0892288
0.0891592
0.08909
0.0890209
0.0889522
0.0888837
0.0888155
0.0887476
0.0886801
0.0886129
0.0885461
0.0884797
0.0884138
0.0883483
0.0882833
0.0882188
0.0881547
0.0880912
0.0880282
0.0879659
0.0879041
0.0878428
0.0877822
0.087722
0.0876629
0.0876057
0.0875502
0.0874964
0.0874439
0.0873926
0.0873422
0.0872927
0.0872442
0.0871966
0.0871499
0.0871042
0.0870594
0.0870155
0.0869725
0.0869304
0.0868891
0.0868486
0.086809
0.0867701
0.0867321
0.0866949
0.0866586
0.0866231
0.0865884
0.0865545
0.0865213
0.0864889
0.0864572
0.0864261
0.0863957
0.086366
0.0863368
0.0863083
0.0862803
0.0862527
0.0862257
0.0861991
0.0861729
0.086147
0.0861215
0.0860962
0.0860712
0.0860464
0.0860217
0.0859972
0.0859727
0.0859483
0.0859239
0.0858994
0.0858749
0.0858503
0.0858255
0.0858006
0.0857755
0.0857501
0.0857246
0.0856988
0.0856727
0.0856464
0.0856198
0.085593
0.085566
0.0855387
0.0855113
0.0854839
0.0854564
0.0854289
0.0854012
0.0853744
0.0817552
0.081505
0.0812308
0.0809545
0.080666
0.0803414
0.0800264
0.0806927
0.100432
0.0919262
0.0900093
0.0890337
0.0888126
0.0885404
0.0883003
0.0880703
0.0878493
0.0886077
0.0935372
0.0946003
0.0942973
0.0932382
0.0892685
0.0870342
0.0865641
0.0863069
0.086072
0.0858615
0.0856388
0.0854161
0.0858052
0.108815
0.0930353
0.0914409
0.0927514
0.0926006
0.0926987
0.109394
0.0997583
0.0986116
0.0984452
0.0983754
0.0981015
0.0980841
0.0980665
0.0979499
0.0985361
0.105531
0.100412
0.0996884
0.100293
0.100223
0.100965
0.111515
0.0989364
0.0982896
0.0986906
0.0986402
0.098974
0.100196
0.0978743
0.0978014
0.0978256
0.0977201
0.0984588
0.100684
0.100745
0.100044
0.099809
0.099648
0.0980474
0.100062
0.0970973
0.0970301
0.097041
0.0970363
0.0970199
0.0969907
0.0970755
0.0970297
0.0967673
0.0966563
0.0965588
0.0964381
0.0962629
0.096141
0.0960203
0.0959047
0.0958057
0.0957546
0.095714
0.0957056
0.0957
0.0956943
0.0956885
0.0956822
0.0956737
0.0956624
0.0956474
0.0956277
0.0956027
0.0955725
0.0955368
0.0954963
0.0954524
0.0954049
0.0953548
0.0953021
0.0952469
0.0951893
0.0951297
0.0950678
0.095004
0.0949379
0.0948698
0.0947998
0.0947285
0.094656
0.0945825
0.0945091
0.0944356
0.0943623
0.0942894
0.0942175
0.0941463
0.094076
0.0940068
0.0939384
0.0938708
0.0938041
0.0937382
0.0936732
0.0936091
0.0935459
0.0934836
0.0934221
0.0933614
0.0933015
0.0932423
0.0931838
0.0931261
0.093069
0.0930125
0.0929565
0.092901
0.0928459
0.0927912
0.0927368
0.0926826
0.0926286
0.0925747
0.0925208
0.092467
0.0924131
0.0923591
0.092305
0.0922507
0.0921962
0.0921414
0.0920864
0.092031
0.0919752
0.091919
0.0918624
0.0918054
0.0917478
0.09169
0.0916315
0.0915725
0.0915129
0.091453
0.0913924
0.0913312
0.0912695
0.0912073
0.0911445
0.0910812
0.0910175
0.0909532
0.0908886
0.0908234
0.0907578
0.0906918
0.0906254
0.0905586
0.0904914
0.0904238
0.0903558
0.0902874
0.0902186
0.0901496
0.0900802
0.0900107
0.0899408
0.0898707
0.0898003
0.0897297
0.0896592
0.0895885
0.0895179
0.0894474
0.0893768
0.0893061
0.0892354
0.0891649
0.0890948
0.0890249
0.088955
0.0888855
0.0888164
0.0887477
0.0886793
0.0886111
0.0885432
0.0884754
0.0884079
0.0883408
0.0882741
0.0882076
0.0881416
0.0880759
0.0880106
0.0879458
0.0878815
0.0878178
0.0877548
0.0876927
0.0876318
0.0875724
0.0875145
0.0874575
0.0874063
0.0873545
0.087302
0.0872497
0.0871978
0.0871467
0.0870961
0.0870458
0.0869962
0.0869491
0.086904
0.086861
0.0868193
0.0867784
0.0867385
0.0866993
0.086661
0.0866234
0.0865866
0.0865507
0.0865157
0.0864816
0.0864484
0.086416
0.0863844
0.0863536
0.0863236
0.0862944
0.086266
0.0862383
0.0862114