/*--------------------------------*- C++ -*----------------------------------*\
| =========                 |                                                 |
| \\      /  F ield         | OpenFOAM: The Open Source CFD Toolbox           |
|  \\    /   O peration     | Version:  2.4.0                                 |
|   \\  /    A nd           | Web:      www.OpenFOAM.org                      |
|    \\/     M anipulation  |                                                 |
\*---------------------------------------------------------------------------*/
FoamFile
{
    version     2.0;
    format      ascii;
    class       volScalarField;
    location    "3.7";
    object      T;
}
// * * * * * * * * * * * * * * * * * * * * * * * * * * * * * * * * * * * * * //

dimensions      [0 0 0 1 0 0 0];

internalField   nonuniform List<scalar> 
8000
(
293.118
293.355
293.59
293.824
294.056
294.285
294.51
294.73
294.946
295.155
295.357
295.551
295.736
295.913
296.08
296.236
296.383
296.52
296.647
296.764
296.873
296.973
297.065
297.15
297.229
297.303
297.371
297.435
297.496
297.553
297.608
297.66
297.709
297.757
297.804
297.85
297.897
297.946
297.999
298
298
298
298
297.999
297.999
297.998
297.997
297.996
297.995
297.995
293.117
293.35
293.584
293.818
294.051
294.283
294.513
294.74
294.962
295.178
295.388
295.589
295.782
295.964
296.136
296.297
296.447
296.585
296.713
296.83
296.937
297.034
297.123
297.204
297.277
297.344
297.405
297.461
297.513
297.561
297.606
297.647
297.687
297.724
297.759
297.793
297.825
297.856
297.886
297.914
297.941
297.969
298
298
298
298
298
297.999
297.998
297.998
293.119
293.357
293.596
293.834
294.072
294.31
294.545
294.776
295.003
295.224
295.437
295.642
295.837
296.022
296.195
296.357
296.507
296.645
296.772
296.888
296.993
297.089
297.176
297.254
297.325
297.39
297.448
297.501
297.549
297.593
297.633
297.67
297.704
297.736
297.765
297.793
297.818
297.842
297.865
297.886
297.906
297.924
297.941
297.957
297.972
297.986
298
298
298
298
293.12
293.361
293.602
293.842
294.082
294.319
294.554
294.784
295.01
295.228
295.439
295.641
295.833
296.014
296.184
296.343
296.49
296.626
296.751
296.865
296.969
297.063
297.149
297.227
297.297
297.361
297.419
297.472
297.52
297.563
297.603
297.64
297.674
297.705
297.734
297.761
297.786
297.809
297.831
297.851
297.87
297.888
297.905
297.921
297.936
297.951
297.965
297.981
298
298
293.12
293.359
293.597
293.835
294.07
294.304
294.533
294.758
294.977
295.189
295.393
295.588
295.773
295.948
296.113
296.266
296.409
296.54
296.662
296.774
296.876
296.969
297.055
297.132
297.204
297.268
297.328
297.382
297.432
297.478
297.521
297.56
297.597
297.631
297.663
297.693
297.721
297.748
297.773
297.797
297.819
297.84
297.861
297.88
297.898
297.915
297.932
297.948
297.964
297.978
293.116
293.348
293.579
293.809
294.036
294.259
294.479
294.693
294.901
295.101
295.294
295.478
295.653
295.819
295.975
296.121
296.257
296.384
296.501
296.61
296.71
296.803
296.888
296.967
297.04
297.107
297.17
297.228
297.282
297.332
297.38
297.425
297.467
297.507
297.545
297.581
297.616
297.649
297.681
297.712
297.741
297.769
297.796
297.822
297.847
297.87
297.892
297.913
297.932
297.95
293.11
293.331
293.55
293.768
293.982
294.192
294.398
294.598
294.792
294.979
295.159
295.33
295.493
295.648
295.794
295.931
296.06
296.181
296.294
296.399
296.497
296.589
296.675
296.755
296.83
296.9
296.967
297.029
297.089
297.145
297.199
297.251
297.3
297.349
297.395
297.44
297.484
297.527
297.569
297.61
297.65
297.689
297.727
297.764
297.799
297.833
297.865
297.895
297.923
297.948
293.103
293.309
293.513
293.715
293.914
294.108
294.298
294.482
294.66
294.831
294.996
295.153
295.303
295.446
295.582
295.71
295.831
295.946
296.054
296.156
296.252
296.343
296.43
296.512
296.59
296.664
296.735
296.803
296.869
296.933
296.995
297.056
297.115
297.173
297.23
297.286
297.342
297.397
297.452
297.507
297.561
297.614
297.667
297.718
297.768
297.816
297.862
297.905
297.944
297.98
293.095
293.285
293.473
293.658
293.84
294.019
294.192
294.361
294.524
294.681
294.832
294.977
295.115
295.248
295.375
295.495
295.611
295.72
295.825
295.925
296.021
296.113
296.202
296.287
296.369
296.449
296.527
296.602
296.676
296.749
296.821
296.892
296.962
297.033
297.102
297.172
297.242
297.312
297.383
297.454
297.524
297.595
297.665
297.734
297.8
297.864
297.923
297.98
298
298
293.087
293.26
293.432
293.602
293.768
293.931
294.09
294.244
294.393
294.538
294.677
294.812
294.941
295.066
295.186
295.301
295.413
295.52
295.624
295.725
295.823
295.917
296.01
296.1
296.189
296.276
296.361
296.446
296.53
296.613
296.696
296.779
296.862
296.946
297.03
297.115
297.202
297.289
297.378
297.468
297.559
297.65
297.741
297.83
297.921
297.999
298
298
298
298
293.08
293.238
293.396
293.551
293.704
293.854
294
294.142
294.281
294.416
294.546
294.674
294.797
294.917
295.033
295.147
295.258
295.366
295.472
295.575
295.677
295.777
295.875
295.973
296.069
296.165
296.26
296.355
296.449
296.544
296.64
296.736
296.833
296.932
297.032
297.135
297.24
297.347
297.458
297.571
297.686
297.803
297.924
297.999
298
298
298
298
297.999
297.999
293.074
293.221
293.368
293.512
293.655
293.795
293.932
294.067
294.199
294.328
294.454
294.578
294.7
294.819
294.936
295.051
295.165
295.277
295.387
295.497
295.605
295.712
295.818
295.924
296.029
296.135
296.24
296.345
296.451
296.558
296.666
296.775
296.887
297.001
297.118
297.238
297.363
297.492
297.627
297.767
297.912
297.999
298
298
298
297.999
297.999
297.999
297.999
297.999
293.07
293.211
293.35
293.489
293.626
293.762
293.896
294.028
294.159
294.288
294.415
294.541
294.666
294.789
294.911
295.032
295.152
295.27
295.388
295.505
295.621
295.736
295.851
295.965
296.079
296.193
296.307
296.422
296.537
296.653
296.772
296.893
297.016
297.144
297.275
297.412
297.555
297.706
297.863
297.999
298
298
298
298
297.999
297.999
297.999
297.999
297.999
297.999
293.069
293.208
293.347
293.485
293.622
293.759
293.895
294.03
294.164
294.298
294.431
294.563
294.694
294.825
294.955
295.083
295.211
295.338
295.463
295.588
295.711
295.834
295.955
296.076
296.196
296.315
296.435
296.555
296.676
296.798
296.923
297.051
297.183
297.319
297.46
297.607
297.763
297.932
297.999
297.999
297.999
298
298
298
298
298
298
298
298
298
293.071
293.214
293.357
293.5
293.643
293.787
293.93
294.073
294.217
294.36
294.502
294.644
294.786
294.926
295.065
295.203
295.34
295.474
295.607
295.738
295.867
295.994
296.119
296.243
296.365
296.486
296.606
296.727
296.848
296.971
297.096
297.225
297.358
297.495
297.636
297.781
297.931
297.999
297.999
298
298.001
298.001
298.002
298.003
298.003
298.004
298.004
298.005
298.006
298.006
293.076
293.229
293.383
293.536
293.691
293.845
294
294.156
294.311
294.465
294.619
294.772
294.923
295.072
295.22
295.365
295.508
295.647
295.783
295.916
296.046
296.172
296.294
296.412
296.528
296.64
296.75
296.859
296.967
297.076
297.187
297.301
297.419
297.543
297.674
297.815
297.974
297.999
298
298
298
298.003
298.005
298.007
298.01
298.012
298.015
298.018
298.02
298.023
293.085
293.255
293.426
293.598
293.77
293.942
294.115
294.287
294.459
294.629
294.798
294.964
295.128
295.289
295.447
295.601
295.751
295.896
296.036
296.171
296.3
296.424
296.541
296.653
296.758
296.858
296.952
297.041
297.127
297.209
297.29
297.371
297.454
297.54
297.631
297.726
297.824
297.923
297.999
298
298
298
298.001
298.006
298.01
298.015
298.02
298.024
298.029
298.034
293.099
293.298
293.498
293.698
293.897
294.096
294.293
294.488
294.68
294.87
295.056
295.239
295.418
295.593
295.763
295.927
296.087
296.24
296.387
296.526
296.658
296.782
296.898
297.005
297.104
297.195
297.278
297.353
297.422
297.485
297.543
297.597
297.648
297.696
297.743
297.789
297.834
297.879
297.922
297.966
298
298
298
298
298
298
298
298.002
298.016
298.028
293.117
293.352
293.584
293.813
294.037
294.256
294.469
294.677
294.879
295.077
295.269
295.457
295.641
295.819
295.993
296.161
296.324
296.48
296.629
296.77
296.902
297.024
297.137
297.24
297.333
297.416
297.49
297.556
297.613
297.664
297.708
297.747
297.782
297.812
297.84
297.865
297.889
297.911
297.934
297.956
297.978
298
298
298
298
298
298
298.001
298.017
298.032
293.195
293.525
293.813
294.07
294.306
294.525
294.731
294.928
295.118
295.301
295.48
295.656
295.827
295.996
296.162
296.324
296.483
296.637
296.785
296.925
297.055
297.174
297.284
297.382
297.47
297.548
297.616
297.675
297.726
297.77
297.807
297.838
297.865
297.887
297.906
297.922
297.936
297.948
297.958
297.968
297.976
297.983
297.99
297.998
298
298
298
298
298
298.003
297.994
297.993
297.993
297.992
297.991
297.991
297.99
297.99
297.99
297.989
297.989
297.989
297.989
297.989
297.989
297.988
297.988
297.989
297.989
297.989
297.989
297.989
297.989
297.989
297.99
297.99
297.99
297.99
297.991
297.991
297.991
297.991
297.992
297.992
297.992
297.993
297.993
297.993
297.994
297.994
297.995
297.995
297.996
297.996
297.997
297.997
297.997
297.998
297.998
297.998
297.997
297.996
297.995
297.994
297.993
297.992
297.992
297.991
297.99
297.989
297.989
297.988
297.988
297.987
297.987
297.987
297.987
297.986
297.986
297.986
297.986
297.986
297.987
297.987
297.987
297.987
297.987
297.987
297.988
297.988
297.988
297.988
297.988
297.989
297.989
297.989
297.989
297.99
297.99
297.991
297.991
297.992
297.992
297.993
297.993
297.994
297.994
297.995
297.995
297.995
297.999
297.998
297.998
297.997
297.996
297.995
297.994
297.993
297.992
297.992
297.991
297.99
297.989
297.988
297.988
297.987
297.987
297.986
297.986
297.986
297.985
297.985
297.985
297.985
297.984
297.984
297.984
297.984
297.984
297.984
297.985
297.985
297.985
297.985
297.985
297.986
297.986
297.986
297.987
297.987
297.988
297.988
297.988
297.989
297.989
297.99
297.99
297.99
297.991
297.991
298
298
297.999
297.999
297.999
297.998
297.997
297.996
297.995
297.995
297.994
297.993
297.992
297.991
297.99
297.99
297.989
297.988
297.988
297.987
297.987
297.986
297.986
297.985
297.985
297.984
297.984
297.984
297.984
297.983
297.983
297.983
297.983
297.983
297.983
297.984
297.984
297.984
297.984
297.984
297.985
297.985
297.985
297.985
297.986
297.986
297.986
297.986
297.987
297.987
297.99
298
298
298
298
297.999
297.999
297.998
297.998
297.997
297.996
297.996
297.995
297.994
297.994
297.993
297.992
297.992
297.991
297.991
297.99
297.99
297.989
297.989
297.988
297.988
297.987
297.987
297.986
297.986
297.985
297.985
297.985
297.984
297.984
297.984
297.984
297.984
297.984
297.983
297.983
297.983
297.983
297.983
297.983
297.983
297.983
297.983
297.983
297.983
297.965
297.979
297.99
298
298
298
297.999
297.999
297.999
297.998
297.998
297.997
297.997
297.996
297.996
297.995
297.995
297.994
297.994
297.993
297.993
297.992
297.992
297.992
297.991
297.991
297.99
297.99
297.99
297.989
297.989
297.989
297.988
297.988
297.987
297.987
297.987
297.986
297.986
297.986
297.985
297.985
297.985
297.985
297.984
297.984
297.984
297.984
297.984
297.983
297.97
297.99
298
298
298
298
297.999
297.999
297.999
297.998
297.998
297.997
297.997
297.996
297.996
297.996
297.995
297.995
297.994
297.994
297.994
297.994
297.993
297.993
297.993
297.992
297.992
297.992
297.992
297.991
297.991
297.991
297.99
297.99
297.99
297.99
297.989
297.989
297.989
297.989
297.988
297.988
297.988
297.987
297.987
297.987
297.986
297.986
297.986
297.986
298
298
298
298
298
297.999
297.999
297.998
297.998
297.998
297.997
297.997
297.997
297.996
297.996
297.996
297.995
297.995
297.995
297.995
297.994
297.994
297.994
297.994
297.994
297.993
297.993
297.993
297.993
297.993
297.993
297.992
297.992
297.992
297.992
297.992
297.992
297.991
297.991
297.991
297.991
297.991
297.99
297.99
297.99
297.99
297.989
297.989
297.989
297.989
298
298
298
297.999
297.999
297.998
297.998
297.998
297.997
297.997
297.997
297.996
297.996
297.996
297.996
297.995
297.995
297.995
297.995
297.995
297.995
297.995
297.995
297.995
297.994
297.994
297.994
297.994
297.994
297.994
297.994
297.994
297.994
297.994
297.994
297.994
297.994
297.993
297.993
297.993
297.993
297.993
297.993
297.993
297.993
297.992
297.992
297.992
297.992
297.992
297.999
297.999
297.999
297.998
297.998
297.998
297.997
297.997
297.997
297.997
297.996
297.996
297.996
297.996
297.996
297.996
297.996
297.996
297.995
297.995
297.995
297.995
297.995
297.995
297.995
297.995
297.995
297.995
297.995
297.995
297.995
297.995
297.995
297.995
297.995
297.995
297.995
297.995
297.995
297.995
297.995
297.995
297.995
297.995
297.995
297.995
297.994
297.994
297.994
297.994
297.999
297.998
297.998
297.998
297.998
297.998
297.997
297.997
297.997
297.997
297.997
297.997
297.996
297.996
297.996
297.996
297.996
297.996
297.996
297.996
297.996
297.996
297.996
297.996
297.996
297.996
297.996
297.996
297.996
297.996
297.996
297.996
297.996
297.996
297.996
297.996
297.996
297.996
297.996
297.996
297.996
297.996
297.996
297.996
297.996
297.996
297.996
297.996
297.996
297.996
297.998
297.998
297.998
297.998
297.998
297.998
297.997
297.997
297.997
297.997
297.997
297.997
297.997
297.997
297.997
297.997
297.997
297.997
297.997
297.997
297.997
297.997
297.997
297.997
297.997
297.997
297.998
297.998
297.998
297.998
297.998
297.998
297.998
297.998
297.998
297.998
297.998
297.998
297.998
297.998
297.998
297.998
297.998
297.998
297.998
297.998
297.998
297.998
297.998
297.998
297.999
297.999
297.998
297.998
297.998
297.998
297.998
297.998
297.998
297.998
297.998
297.998
297.998
297.998
297.998
297.998
297.998
297.998
297.999
297.999
297.999
297.999
297.999
297.999
297.999
297.999
297.999
297.999
297.999
297.999
298
298
298
298
298
298
298
298
298
298
298
298
298
298
298
298
298
298
298
298
298
298
298
298
298
298
298
298.001
298.001
298.001
298.001
298.001
298.001
298.001
298.001
298.001
298.001
298.002
298.002
298.002
298.002
298.002
298.002
298.002
298.002
298.002
298.002
298.003
298.003
298.003
298.003
298.003
298.003
298.003
298.003
298.003
298.003
298.003
298.003
298.003
298.003
298.003
298.003
298.003
298.003
298.003
298.003
298.003
298.003
298.003
298.007
298.008
298.008
298.009
298.01
298.01
298.011
298.011
298.011
298.012
298.012
298.012
298.013
298.013
298.013
298.013
298.013
298.014
298.014
298.014
298.014
298.014
298.014
298.014
298.014
298.013
298.013
298.013
298.013
298.013
298.013
298.013
298.013
298.013
298.012
298.012
298.012
298.012
298.012
298.012
298.011
298.011
298.011
298.011
298.011
298.011
298.011
298.01
298.01
298.01
298.025
298.027
298.03
298.032
298.034
298.035
298.037
298.038
298.039
298.04
298.041
298.041
298.042
298.042
298.042
298.042
298.042
298.041
298.041
298.04
298.04
298.039
298.038
298.037
298.036
298.035
298.035
298.034
298.033
298.032
298.031
298.03
298.029
298.028
298.027
298.027
298.026
298.025
298.024
298.024
298.023
298.022
298.022
298.021
298.021
298.02
298.02
298.019
298.019
298.018
298.039
298.044
298.048
298.052
298.055
298.058
298.06
298.061
298.063
298.063
298.064
298.064
298.063
298.063
298.062
298.061
298.059
298.058
298.056
298.055
298.053
298.051
298.049
298.047
298.046
298.044
298.042
298.041
298.039
298.037
298.036
298.034
298.033
298.032
298.031
298.029
298.028
298.027
298.026
298.025
298.024
298.024
298.023
298.022
298.021
298.021
298.02
298.02
298.019
298.018
298.039
298.049
298.058
298.065
298.071
298.075
298.079
298.082
298.083
298.084
298.085
298.084
298.083
298.082
298.081
298.078
298.076
298.074
298.071
298.068
298.066
298.063
298.06
298.057
298.054
298.051
298.049
298.046
298.044
298.041
298.039
298.037
298.035
298.033
298.031
298.03
298.028
298.027
298.025
298.024
298.023
298.022
298.021
298.02
298.019
298.018
298.017
298.017
298.016
298.015
298.047
298.059
298.07
298.08
298.088
298.095
298.1
298.105
298.108
298.11
298.112
298.113
298.113
298.113
298.112
298.11
298.108
298.105
298.103
298.099
298.096
298.092
298.088
298.084
298.08
298.076
298.072
298.068
298.064
298.06
298.056
298.052
298.049
298.046
298.043
298.04
298.037
298.034
298.032
298.03
298.028
298.026
298.024
298.022
298.021
298.02
298.018
298.017
298.016
298.015
298.014
298.025
298.036
298.046
298.057
298.067
298.077
298.086
298.095
298.103
298.111
298.118
298.123
298.128
298.132
298.135
298.137
298.138
298.138
298.137
298.135
298.132
298.129
298.125
298.121
298.116
298.111
298.106
298.1
298.095
298.089
298.084
298.079
298.073
298.068
298.064
298.059
298.055
298.05
298.047
298.043
298.04
298.036
298.034
298.031
298.028
298.026
298.024
298.022
298.021
297.998
297.998
297.998
297.998
297.998
297.998
297.998
297.998
297.998
297.998
297.998
297.998
297.998
297.998
297.998
297.998
297.998
297.998
297.998
297.998
297.998
297.998
297.998
297.998
297.998
297.998
297.998
297.998
297.998
297.997
297.997
297.997
297.997
297.997
297.997
297.997
297.997
297.997
297.996
297.996
297.996
297.996
297.996
297.996
297.996
297.995
297.995
297.995
297.995
297.995
297.995
297.994
297.994
297.994
297.994
297.994
297.994
297.994
297.993
297.993
297.993
297.993
297.993
297.993
297.993
297.993
297.993
297.993
297.993
297.993
297.993
297.993
297.993
297.993
297.993
297.993
297.993
297.993
297.993
297.993
297.994
297.994
297.994
297.994
297.995
297.995
297.995
297.995
297.996
297.996
297.996
297.997
297.997
297.997
297.998
297.998
297.998
297.999
297.999
297.999
297.999
297.999
298
298
298
298
298
298
298
298
298
298
298
298
298
298
298
298
298
298
298
298
298
298
298
298
298
298
298
298
298
298
298
298
298
298
298
298
298
298
298
298
298
298
298
298
298
298
298
298
298
298
298
298
298
298
298
298
298
298
298
298
298
298
298
298
298
298
298
298
298
298
298
298
298
298
298
298
298
298
298
298
298
298
298
298
298
298
298
298
298
298
298
298
298
298
298
298
298
298
298
298
298
298
298
298
298
298
298
298
298
298
298
298
298
298
298
298
298
298
298
298
298
298
298
298
298
298
298
298
298
298
298
298
298
298
298
298
298
298
298
298
298
298
298
298
298
298
298
298
298
298
298
298
298
298
298
298
298
298
298
298
298
298
298
298
298
298
298
298
298
298
298
298
298
298
298
298
298
298
298
298
298
298
298
298
298
298
298
298
298
298
298
298
298
298
298
298
298
298
297.996
297.996
297.996
297.996
297.996
297.996
297.996
297.997
297.997
297.997
297.997
297.997
297.997
297.997
297.997
297.997
297.997
297.997
297.997
297.997
297.997
297.997
297.997
297.997
297.997
297.997
297.996
297.996
297.996
297.996
297.996
297.996
297.996
297.996
297.996
297.996
297.995
297.995
297.995
297.995
297.995
297.995
297.994
297.994
297.994
297.994
297.994
297.993
297.993
297.993
297.993
297.993
297.992
297.992
297.992
297.992
297.992
297.991
297.991
297.991
297.991
297.991
297.991
297.991
297.991
297.991
297.991
297.991
297.991
297.991
297.991
297.991
297.991
297.991
297.991
297.992
297.992
297.992
297.992
297.993
297.993
297.993
297.994
297.994
297.994
297.994
297.995
297.995
297.995
297.996
297.996
297.996
297.997
297.997
297.997
297.998
297.998
297.998
297.999
297.999
297.999
297.999
297.999
298
298
298
298
298
298
298
298
298
298
298
298
298
298
298
298
298
298
298
298
298
298
298
298
298
298
298
298
298
298
298
298
298
298
298
298
298
298
298
298
298
298
298
298
298
298
298
298
298
298
298
298
298
298
298
298
298
298
298
298
298
298
298
298
298
298
298
298
298
298
298
298
298
298
298
298
298
298
298
298
298
298
298
298
298
298
298
298
298
298
298
298
298
298
298
298
298
298
298
298
298
298
298
298
298
298
298
298
298
298
298
298
298
298
298
298
298
298
298
298
298
298
298
298
298
298
298
298
298
298
298
298
298
298
298
298
298
298
298
298
298
298
298
298
298
298
298
298
298
298
298
298
298
298
298
298
298
298
298
298
298
298
298
298
298
298
298
298
298
298
298
298
298
298
298
298
298
298
298
298
298
298
298
298
298
298
298
298
298
298
298
298
298
298
298
298
298
297.991
297.992
297.992
297.992
297.992
297.992
297.993
297.993
297.993
297.993
297.993
297.993
297.993
297.993
297.993
297.994
297.994
297.994
297.994
297.994
297.994
297.994
297.994
297.994
297.994
297.994
297.994
297.994
297.994
297.994
297.994
297.994
297.993
297.993
297.993
297.993
297.993
297.993
297.993
297.993
297.993
297.993
297.992
297.992
297.992
297.992
297.992
297.992
297.992
297.991
297.991
297.991
297.991
297.991
297.99
297.99
297.99
297.99
297.99
297.99
297.99
297.99
297.989
297.989
297.989
297.989
297.989
297.99
297.99
297.99
297.99
297.99
297.99
297.991
297.991
297.991
297.992
297.992
297.993
297.993
297.994
297.994
297.995
297.995
297.996
297.996
297.997
297.997
297.997
297.997
297.998
297.998
297.998
297.998
297.999
297.999
297.999
297.999
297.999
297.999
297.999
297.999
298
298
298
298
298
298
298
298
298
298
298
298
298
298
298
298
298
298
298
298
298
298
298
298
298
298
298
298
298
298
298
298
298
298
298
298
298
298
298
298
298
298
298
298
298
298
298
298
298
298
298
298
298
298
298
298
298
298
298
298
298
298
298
298
298
298
298
298
298
298
298
298
298
298
298
298
298
298
298
298
298
298
298
298
298
298
298
298
298
298
298
298
298
298
298
298
298
298
298
298
298
298
298
298
298
298
298
298
298
298
298
298
298
298
298
298
298
298
298
298
298
298
298
298
298
298
298
298
298
298
298
298
298
298
298
298
298
298
298
298
298
298
298
298
298
298
298
298
298
298
298
298
298
298
298
298
298
298
298
298
298
298
298
298
298
298
298
298
298
298
298
298
298
298
298
298
298
298
298
298
298
298
298
298
298
298
298
298
298
298
298
298
298
298
298
298
298
298
297.987
297.987
297.987
297.987
297.988
297.988
297.988
297.988
297.988
297.988
297.988
297.988
297.988
297.988
297.989
297.989
297.989
297.989
297.989
297.989
297.989
297.989
297.989
297.989
297.989
297.989
297.989
297.989
297.989
297.989
297.989
297.989
297.989
297.989
297.989
297.989
297.989
297.988
297.988
297.988
297.988
297.988
297.988
297.988
297.988
297.988
297.988
297.988
297.987
297.987
297.987
297.987
297.987
297.987
297.987
297.987
297.987
297.987
297.987
297.988
297.988
297.988
297.988
297.989
297.989
297.99
297.99
297.99
297.991
297.991
297.992
297.992
297.993
297.993
297.994
297.994
297.995
297.995
297.996
297.996
297.996
297.997
297.997
297.997
297.997
297.997
297.998
297.998
297.998
297.998
297.998
297.998
297.999
297.999
297.999
297.999
297.999
297.999
297.999
297.999
297.999
297.999
297.999
297.999
297.999
297.999
297.999
297.999
297.999
297.999
297.999
297.999
298
298
298
298
298
298
298
298
298
298
298
298
298
298
298
298
298
298
298
298
298
298
298
298
298
298
298
298
298
298
298
298
298
298
298
298
298
298
298
298
298
298
298
298
298
298
298
298
298
298
298
298
298
298
298
298
298
298
298
298
298
298
298
298
298
298
298
298
298
298
298
298
298
298
298
298
298
298
298
298
298
298
298
298
298
298
298
298
298
298
298
298
298
298
298
298
298
298
298
298
298
298
298
298
298
298
298
298
298
298
298
298
298
298
298
298
298
298
298
298
298
298
298
298
298
298
298
298
298
298
298
298
298
298
298
298
298
298
298
298
298
298
298
298
298
298
298
298
298
298
298
298
298
298
298
298
298
298
298
298
298
298
298
298
298
298
298
298
298
298
298
298
298
298
298
298
298
298
298
298
298
298
298
298
298
298
298
298
297.983
297.984
297.984
297.984
297.984
297.984
297.984
297.984
297.984
297.984
297.984
297.984
297.984
297.984
297.984
297.984
297.984
297.984
297.984
297.984
297.984
297.984
297.984
297.984
297.984
297.985
297.985
297.985
297.985
297.985
297.985
297.985
297.985
297.985
297.985
297.985
297.985
297.985
297.985
297.985
297.985
297.985
297.985
297.985
297.985
297.986
297.986
297.986
297.986
297.986
297.986
297.987
297.987
297.987
297.988
297.988
297.989
297.989
297.989
297.99
297.99
297.991
297.991
297.992
297.992
297.993
297.993
297.993
297.994
297.994
297.995
297.995
297.995
297.995
297.996
297.996
297.996
297.996
297.997
297.997
297.997
297.997
297.997
297.997
297.997
297.997
297.998
297.998
297.998
297.998
297.998
297.998
297.998
297.998
297.998
297.998
297.998
297.998
297.998
297.998
297.998
297.998
297.998
297.998
297.998
297.998
297.998
297.998
297.998
297.998
297.998
297.998
297.999
297.999
297.999
297.999
297.999
297.999
297.999
297.999
297.999
297.999
297.999
297.999
297.999
297.999
297.999
297.999
297.999
297.999
297.999
297.999
297.999
297.999
297.999
297.999
297.999
297.999
298
298
298
298
298
298
298
298
298
298
298
298
298
298
298
298
298
298
298
298
298
298
298
298
298
298
298
298
298
298
298
298
298
298
298
298
298
298
298
298
298
298
298
298
298
298
298
298
298
298
298
298
298
298
298
298
298
298
298
298
298
298
298
298
298
298
298
298
298
298
298
298
298
298
298
298
298
298
298
298
298
298
298
298
298
298
298
298
298
298
298
298
298
298
298
298
298
298
298
298
298
298
298
298
298
298
298
298
298
298
298
298
298
298
298
298
298
298
298
298
298
298
298
298
298
298
298
298
298
298
298
298
298
298
298
298
298
298
298
298
298
298
298
298
298
298
298
298
298
298
298
298
298
298
298
298
298
298
298
298
298
298
297.983
297.983
297.983
297.983
297.983
297.983
297.983
297.983
297.983
297.983
297.983
297.983
297.983
297.983
297.983
297.983
297.983
297.983
297.983
297.983
297.983
297.983
297.983
297.983
297.983
297.983
297.983
297.983
297.983
297.983
297.983
297.984
297.984
297.984
297.984
297.984
297.984
297.984
297.985
297.985
297.985
297.985
297.985
297.986
297.986
297.986
297.987
297.987
297.987
297.988
297.988
297.988
297.989
297.989
297.99
297.99
297.991
297.991
297.991
297.992
297.992
297.993
297.993
297.993
297.994
297.994
297.994
297.995
297.995
297.995
297.995
297.995
297.996
297.996
297.996
297.996
297.996
297.996
297.996
297.996
297.996
297.996
297.996
297.996
297.997
297.997
297.997
297.997
297.997
297.997
297.997
297.997
297.997
297.997
297.997
297.997
297.997
297.997
297.997
297.997
297.997
297.997
297.996
297.996
297.996
297.996
297.996
297.996
297.996
297.996
297.996
297.996
297.996
297.996
297.996
297.996
297.996
297.996
297.996
297.996
297.996
297.997
297.997
297.997
297.997
297.997
297.997
297.997
297.997
297.997
297.997
297.997
297.997
297.997
297.998
297.998
297.998
297.998
297.998
297.998
297.998
297.998
297.998
297.999
297.999
297.999
297.999
297.999
297.999
297.999
297.999
297.999
297.999
298
298
298
298
298
298
298
298
298
298
298
298
298
298
298
298
298
298
298
298
298
298
298
298
298
298
298
298
298
298
298
298
298
298
298
298
298
298
298
298
298
298
298
298
298
298
298
298
298
298
298
298
298
298
298
298
298
298
298
298
298
298
298
298
298
298
298
298
298
298
298
298
298
298
298
298
298
298
298
298
298
298
298
298
298
298
298
298
298
298
298
298
298
298
298
298
298
298
298
298
298
298
298
298
298
298
298
298
298
298
298
298
298
298
298
298
298
298
298
298
298
298
298
298
298
298
298
298
298
298
298
298
298
298
298
298
298
298
298
298
298
298
298
298
298
298
298
297.985
297.985
297.985
297.985
297.985
297.985
297.985
297.985
297.985
297.985
297.984
297.984
297.984
297.984
297.984
297.984
297.984
297.984
297.984
297.984
297.984
297.984
297.984
297.984
297.984
297.984
297.984
297.984
297.984
297.985
297.985
297.985
297.985
297.985
297.985
297.985
297.986
297.986
297.986
297.986
297.986
297.987
297.987
297.987
297.987
297.988
297.988
297.988
297.989
297.989
297.989
297.99
297.99
297.991
297.991
297.991
297.992
297.992
297.992
297.993
297.993
297.993
297.994
297.994
297.994
297.994
297.994
297.995
297.995
297.995
297.995
297.995
297.995
297.995
297.995
297.995
297.995
297.995
297.995
297.995
297.996
297.995
297.995
297.995
297.995
297.995
297.995
297.995
297.995
297.995
297.995
297.995
297.995
297.995
297.995
297.995
297.995
297.995
297.995
297.995
297.995
297.995
297.995
297.995
297.995
297.995
297.994
297.994
297.994
297.994
297.994
297.994
297.994
297.994
297.994
297.994
297.994
297.994
297.994
297.994
297.994
297.994
297.994
297.994
297.994
297.994
297.994
297.994
297.994
297.994
297.994
297.994
297.994
297.994
297.994
297.994
297.994
297.994
297.995
297.995
297.995
297.995
297.995
297.995
297.996
297.996
297.996
297.996
297.997
297.997
297.997
297.997
297.998
297.998
297.998
297.998
297.998
297.999
297.999
297.999
297.999
297.999
297.999
297.999
298
298
298
298
298
298
298
298
298
298
298
298
298
298
298
298
298
298
298
298
298
298
298
298
298
298
298
298
298
298
298
298
298
298
298
298
298
298
298
298
298
298
298
298
298
298
298
298
298
298
298
298
298
298
298
298
298
298
298
298
298
298
298
298
298
298
298
298
298
298
298
298
298
298
298
298
298
298
298
298
298
298
298
298
298
298
298
298
298
298
298
298
298
298
298
298
298
298
298
298
298
298
298
298
298
298
298
298
298
298
298
298
298
298
298
298
298
298
298
298
298
298
298
298
298
298
298
298
298
298
298
298
298
298
298
298
297.988
297.988
297.988
297.988
297.988
297.988
297.988
297.988
297.987
297.987
297.987
297.987
297.987
297.987
297.987
297.987
297.987
297.987
297.987
297.987
297.987
297.986
297.986
297.986
297.986
297.986
297.987
297.987
297.987
297.987
297.987
297.987
297.987
297.987
297.987
297.987
297.987
297.987
297.988
297.988
297.988
297.988
297.988
297.988
297.989
297.989
297.989
297.989
297.99
297.99
297.99
297.99
297.991
297.991
297.991
297.991
297.992
297.992
297.992
297.992
297.993
297.993
297.993
297.993
297.993
297.994
297.994
297.994
297.994
297.994
297.994
297.994
297.994
297.994
297.994
297.994
297.994
297.994
297.994
297.994
297.994
297.994
297.994
297.994
297.994
297.994
297.994
297.994
297.994
297.994
297.994
297.994
297.994
297.994
297.994
297.994
297.994
297.994
297.994
297.994
297.994
297.994
297.994
297.994
297.993
297.993
297.993
297.993
297.993
297.993
297.993
297.993
297.993
297.993
297.993
297.993
297.993
297.993
297.993
297.992
297.992
297.992
297.992
297.992
297.992
297.992
297.992
297.992
297.992
297.992
297.992
297.992
297.992
297.992
297.992
297.992
297.992
297.992
297.992
297.992
297.992
297.992
297.992
297.992
297.992
297.992
297.993
297.993
297.993
297.993
297.994
297.994
297.994
297.995
297.995
297.996
297.996
297.996
297.997
297.997
297.997
297.998
297.998
297.998
297.998
297.999
297.999
297.999
297.999
297.999
297.999
298
298
298
298
298
298
298
298
298
298
298
298
298
298
298
298
298
298
298
298
298
298
298
298
298
298
298
298
298
298
298
298
298
298
298
298
298
298
298
298
298
298
298
298
298
298
298
298
298
298
298
298
298
298
298
298
298
298
298
298
298
298
298
298
298
298
298
298
298
298
298
298
298
298
298
298
298
298
298
298
298
298
298
298
298
298
298
298
298
298
298
298
298
298
298
298
298
298
298
298
298
298
298
298
298
298
298
298
298
298
298
298
298
298
298
298
298
298
298
298
298
298
298
298
298
298
298
298
298
297.992
297.992
297.991