/*--------------------------------*- C++ -*----------------------------------*\
| =========                 |                                                 |
| \\      /  F ield         | OpenFOAM: The Open Source CFD Toolbox           |
|  \\    /   O peration     | Version:  2.4.0                                 |
|   \\  /    A nd           | Web:      www.OpenFOAM.org                      |
|    \\/     M anipulation  |                                                 |
\*---------------------------------------------------------------------------*/
FoamFile
{
    version     2.0;
    format      ascii;
    class       volScalarField;
    location    "0.006";
    object      H;
}
// * * * * * * * * * * * * * * * * * * * * * * * * * * * * * * * * * * * * * //

dimensions      [0 2 -2 0 0 0 0];

internalField   nonuniform List<scalar> 
1500
(
-9960.5
-9958.72
-9954.82
-9960.62
-9959.24
-5406.36
-5401
-5389.31
-5406.71
-5402.57
-111.242
-110.744
-109.671
-111.275
-110.889
-82.4667
-82.0904
-81.2838
-82.4908
-82.2006
-81.3909
-81.0063
-80.1913
-81.4136
-81.1198
-80.2746
-79.8829
-79.0618
-80.2959
-79.9992
-79.118
-78.7207
-77.8958
-79.1381
-78.8393
-77.922
-77.5203
-76.6937
-77.9408
-77.6408
-76.6875
-76.2825
-75.4564
-76.7049
-76.4045
-75.4155
-75.0084
-74.1849
-75.4318
-75.1317
-74.1075
-73.6995
-72.8804
-74.1226
-73.8236
-72.765
-72.3571
-71.5444
-72.779
-72.4817
-71.3897
-70.983
-70.1784
-71.4026
-71.1077
-69.9836
-69.579
-68.7843
-69.9955
-69.7036
-68.5486
-68.147
-67.3638
-68.5595
-68.2712
-67.0869
-66.6893
-65.919
-67.097
-66.8128
-65.6009
-65.2079
-64.452
-65.61
-65.3305
-64.0928
-63.7053
-62.965
-64.1011
-63.8267
-62.5651
-62.1838
-61.4604
-62.5727
-62.3038
-61.0204
-60.6459
-59.9404
-61.0272
-60.7643
-59.4611
-59.0941
-58.4075
-59.4673
-59.2106
-57.8899
-57.5309
-56.8641
-57.8955
-57.6455
-56.3095
-55.9589
-55.3128
-56.3144
-56.0713
-54.7224
-54.3807
-53.7559
-54.7268
-54.4908
-53.1312
-52.7988
-52.1959
-53.1351
-52.9066
-51.5387
-51.2159
-50.6354
-51.5421
-51.3211
-49.9473
-49.6343
-49.0768
-49.9503
-49.737
-48.3596
-48.0568
-47.5223
-48.3623
-48.1567
-46.7781
-46.4856
-45.9745
-46.7805
-46.5827
-45.2053
-44.9232
-44.4356
-45.2073
-45.0174
-43.6434
-43.3719
-42.9079
-43.6452
-43.4632
-42.0949
-41.8339
-41.3935
-42.0964
-41.9222
-40.5618
-40.3114
-39.8944
-40.5631
-40.3968
-39.0463
-38.8065
-38.4128
-39.0474
-38.8888
-37.5505
-37.3211
-36.9505
-37.5514
-37.4005
-36.0761
-35.8571
-35.5092
-36.0769
-35.9335
-34.625
-34.4164
-34.0908
-34.6257
-34.4897
-33.199
-33.0005
-32.6969
-33.1995
-33.0708
-31.7995
-31.6109
-31.3288
-31.8
-31.6782
-30.428
-30.2492
-29.988
-30.4284
-30.3136
-29.0858
-28.9166
-28.6758
-29.0862
-28.978
-27.7742
-27.6143
-27.3933
-27.7745
-27.6728
-26.4943
-26.3434
-26.1415
-26.4945
-26.3991
-25.2469
-25.1048
-24.9213
-25.2471
-25.1577
-24.0329
-23.8993
-23.7336
-24.0331
-23.9495
-22.8531
-22.7277
-22.579
-22.8533
-22.7752
-21.708
-21.5905
-21.4581
-21.7082
-21.6354
-20.5981
-20.4883
-20.3713
-20.5984
-20.5306
-19.5239
-19.4213
-19.3191
-19.5241
-19.4612
-18.4855
-18.3899
-18.3016
-18.4857
-18.4274
-17.483
-17.3941
-17.319
-17.4833
-17.4293
-16.5166
-16.4341
-16.3714
-16.5169
-16.467
-15.5863
-15.5097
-15.4586
-15.5866
-15.5405
-14.6917
-14.6209
-14.5806
-14.692
-14.6496
-13.8327
-13.7673
-13.7371
-13.8331
-13.7941
-13.0091
-12.9488
-12.9279
-13.0094
-12.9737
-12.2203
-12.1648
-12.1524
-12.2207
-12.1879
-11.4659
-11.415
-11.4104
-11.4663
-11.4364
-10.7454
-10.6987
-10.7013
-10.7458
-10.7185
-10.0582
-10.0155
-10.0244
-10.0586
-10.0337
-9.40353
-9.36455
-9.37925
-9.40394
-9.38131
-8.78077
-8.74526
-8.76506
-8.78119
-8.76064
-8.18914
-8.15686
-8.18113
-8.18957
-8.17094
-7.62784
-7.59854
-7.62671
-7.62826
-7.61141
-7.09602
-7.0695
-7.10099
-7.09645
-7.08122
-6.59282
-6.56886
-6.60314
-6.59325
-6.57952
-6.11736
-6.09575
-6.13233
-6.11779
-6.10542
-5.66871
-5.64927
-5.68766
-5.66913
-5.65801
-5.24595
-5.22849
-5.26826
-5.24637
-5.23638
-4.84813
-4.83249
-4.87323
-4.84854
-4.83959
-4.47431
-4.46033
-4.50166
-4.47472
-4.46671
-4.12354
-4.11107
-4.15265
-4.12393
-4.11678
-3.79486
-3.78376
-3.82527
-3.79524
-3.78886
-3.48733
-3.47747
-3.51863
-3.4877
-3.48201
-3.2
-3.19126
-3.23181
-3.20035
-3.19529
-2.93194
-2.92422
-2.96394
-2.93228
-2.92778
-2.68224
-2.67542
-2.71412
-2.68256
-2.67857
-2.44998
-2.44398
-2.48149
-2.45029
-2.44676
-2.23429
-2.22902
-2.2652
-2.23459
-2.23146
-2.03429
-2.02967
-2.0644
-2.03457
-2.0318
-1.84914
-1.8451
-1.87829
-1.8494
-1.84696
-1.678
-1.67448
-1.70606
-1.67826
-1.6761
-1.52009
-1.51703
-1.54694
-1.52033
-1.51843
-1.37462
-1.37196
-1.40019
-1.37484
-1.37317
-1.24084
-1.23853
-1.26506
-1.24105
-1.23958
-1.11803
-1.11603
-1.14086
-1.11823
-1.11693
-1.00549
-1.00376
-1.02691
-1.00567
-1.00453
-0.902544
-0.901057
-0.92255
-0.902709
-0.901715
-0.808553
-0.807274
-0.827156
-0.808704
-0.807835
-0.722901
-0.721803
-0.740125
-0.72304
-0.722279
-0.645
-0.644059
-0.660879
-0.645126
-0.644461
-0.57429
-0.573485
-0.588867
-0.574405
-0.573824
-0.510238
-0.509551
-0.523565
-0.510342
-0.509836
-0.452338
-0.451752
-0.464472
-0.452433
-0.451991
-0.400112
-0.399613
-0.411115
-0.400197
-0.399813
-0.353107
-0.352683
-0.363043
-0.353183
-0.352849
-0.310895
-0.310536
-0.319832
-0.310964
-0.310674
-0.273076
-0.272771
-0.281082
-0.273137
-0.272886
-0.239272
-0.239014
-0.246415
-0.239326
-0.239109
-0.209129
-0.208911
-0.215477
-0.209177
-0.208989
-0.182318
-0.182134
-0.187937
-0.182361
-0.182198
-0.158531
-0.158376
-0.163484
-0.158568
-0.158428
-0.137481
-0.13735
-0.141829
-0.137513
-0.137393
-0.118902
-0.118792
-0.122704
-0.118931
-0.118827
-0.10255
-0.102457
-0.10586
-0.102574
-0.102486
-0.0881959
-0.0881181
-0.0910673
-0.0882173
-0.0881415
-0.0756327
-0.0755674
-0.0781128
-0.0756512
-0.0755865
-0.0646684
-0.0646137
-0.0668017
-0.0646843
-0.0646292
-0.0551279
-0.0550821
-0.0569553
-0.0551415
-0.0550947
-0.0468514
-0.0468131
-0.0484101
-0.046863
-0.0468233
-0.0396935
-0.0396615
-0.0410176
-0.0397033
-0.0396698
-0.0335226
-0.0334959
-0.0346426
-0.0335309
-0.0335027
-0.0282197
-0.0281975
-0.029163
-0.0282267
-0.0282029
-0.0236776
-0.0236591
-0.0244687
-0.0236834
-0.0236635
-0.0198001
-0.0197847
-0.0204607
-0.019805
-0.0197883
-0.0165013
-0.0164886
-0.0170505
-0.0165054
-0.0164915
-0.0137045
-0.013694
-0.0141591
-0.0137079
-0.0136963
-0.0113417
-0.011333
-0.0117163
-0.0113445
-0.0113349
-0.00935271
-0.00934553
-0.00966006
-0.00935499
-0.00934711
-0.0076845
-0.0076786
-0.00793553
-0.00768637
-0.00767988
-0.00629054
-0.0062857
-0.00649464
-0.00629206
-0.00628674
-0.00513014
-0.00512618
-0.00529532
-0.00513137
-0.00512703
-0.00416788
-0.00416464
-0.00430095
-0.00416887
-0.00416534
-0.00337302
-0.00337039
-0.00347973
-0.00337382
-0.00337096
-0.00271905
-0.00271692
-0.00280422
-0.00271969
-0.00271738
-0.00218316
-0.00218144
-0.00225082
-0.00218367
-0.00218181
-0.00174582
-0.00174443
-0.00179931
-0.00174622
-0.00174473
-0.00139038
-0.00138926
-0.00143246
-0.0013907
-0.00138951
-0.00110271
-0.00110182
-0.00113566
-0.00110296
-0.00110202
-0.000870889
-0.000870178
-0.000896565
-0.000871085
-0.000870336
-0.000684875
-0.000684309
-0.000704782
-0.000685027
-0.000684436
-0.000536268
-0.000535821
-0.000551626
-0.000536386
-0.000535923
-0.000418073
-0.000417721
-0.000429863
-0.000418164
-0.000417802
-0.000324487
-0.000324211
-0.000333491
-0.000324557
-0.000324275
-0.000250723
-0.000250507
-0.000257565
-0.000250776
-0.000250558
-0.000192849
-0.000192681
-0.000198021
-0.000192889
-0.000192721
-0.000147654
-0.000147524
-0.000151544
-0.000147684
-0.000147555
-0.000112526
-0.000112426
-0.000115436
-0.000112549
-0.00011245
-8.53527e-05
-8.52759e-05
-8.75183e-05
-8.53699e-05
-8.52949e-05
-6.44341e-05
-6.43754e-05
-6.60371e-05
-6.44468e-05
-6.43901e-05
-4.84088e-05
-4.83642e-05
-4.95889e-05
-4.84182e-05
-4.83755e-05
-3.61926e-05
-3.61589e-05
-3.70568e-05
-3.61995e-05
-3.61675e-05
-2.69264e-05
-2.69011e-05
-2.75558e-05
-2.69316e-05
-2.69077e-05
-1.99334e-05
-1.99144e-05
-2.03891e-05
-1.99371e-05
-1.99193e-05
-1.46825e-05
-1.46683e-05
-1.50108e-05
-1.46852e-05
-1.46721e-05
-1.076e-05
-1.07496e-05
-1.09951e-05
-1.0762e-05
-1.07524e-05
-7.84514e-06
-7.83743e-06
-8.01257e-06
-7.84654e-06
-7.83952e-06
-5.69035e-06
-5.68468e-06
-5.80891e-06
-5.69134e-06
-5.68622e-06
-4.10587e-06
-4.10175e-06
-4.18933e-06
-4.10658e-06
-4.1029e-06
-2.94698e-06
-2.94398e-06
-3.00538e-06
-2.94747e-06
-2.94482e-06
-2.10392e-06
-2.10176e-06
-2.14457e-06
-2.10428e-06
-2.10237e-06
-1.49398e-06
-1.49244e-06
-1.52209e-06
-1.49423e-06
-1.49287e-06
-1.05512e-06
-1.05401e-06
-1.07446e-06
-1.0553e-06
-1.05433e-06
-7.41089e-07
-7.40305e-07
-7.54295e-07
-7.41197e-07
-7.40544e-07
-5.17648e-07
-5.17097e-07
-5.2663e-07
-5.17746e-07
-5.17263e-07
-3.59577e-07
-3.59175e-07
-3.65629e-07
-3.59615e-07
-3.59292e-07
-2.48343e-07
-2.48095e-07
-2.52429e-07
-2.48403e-07
-2.48167e-07
-1.70573e-07
-1.70373e-07
-1.73261e-07
-1.70578e-07
-1.70432e-07
-1.16474e-07
-1.16342e-07
-1.1827e-07
-1.16495e-07
-1.16383e-07
-7.90615e-08
-7.89812e-08
-8.02678e-08
-7.90716e-08
-7.90093e-08
-5.33838e-08
-5.33076e-08
-5.41353e-08
-5.33885e-08
-5.3336e-08
-3.5803e-08
-3.57771e-08
-3.63165e-08
-3.58212e-08
-3.57727e-08
-2.38956e-08
-2.3858e-08
-2.42128e-08
-2.38912e-08
-2.38807e-08
-1.584e-08
-1.58318e-08
-1.60533e-08
-1.58396e-08
-1.58219e-08
-1.04241e-08
-1.0408e-08
-1.05541e-08
-1.04262e-08
-1.04073e-08
-6.83669e-09
-6.84255e-09
-6.92255e-09
-6.84719e-09
-6.84626e-09
-4.46261e-09
-4.43977e-09
-4.50849e-09
-4.45907e-09
-4.46037e-09
-2.87109e-09
-2.88657e-09
-2.91842e-09
-2.87436e-09
-2.86863e-09
-1.85379e-09
-1.84502e-09
-1.86929e-09
-1.84183e-09
-1.84244e-09
-1.18682e-09
-1.18494e-09
-1.19944e-09
-1.18961e-09
-1.18924e-09
-7.50891e-10
-7.46798e-10
-7.61488e-10
-7.55781e-10
-7.52036e-10
-4.71697e-10
-4.71941e-10
-4.71397e-10
-4.70933e-10
-4.71699e-10
-2.88146e-10
-2.86052e-10
-2.88976e-10
-2.84686e-10
-2.83948e-10
-1.57518e-10
-1.57589e-10
-1.58116e-10
-1.6609e-10
-1.55805e-10
-1.35203e-10
-1.35973e-10
-1.41656e-10
-1.37112e-10
-1.42531e-10
-6.01205e-11
-5.91063e-11
-6.03381e-11
-4.08702e-11
-5.72023e-11
-4.67959e-11
-4.94044e-11
-3.68592e-11
-6.7507e-11
-4.42504e-11
-5.04427e-11
-4.86089e-11
-5.84461e-11
-3.62044e-11
-5.55934e-11
-4.21914e-11
-3.78556e-11
-3.83175e-11
-4.42362e-11
-3.85562e-11
1.07731e-12
-1.94321e-12
-1.66874e-12
-2.08696e-12
8.49155e-13
5.9851e-13
1.227e-13
1.84408e-13
1.54281e-13
4.2121e-13
-4.72383e-14
-5.616e-14
-5.40149e-14
-5.67629e-14
-4.48004e-14
-1.58269e-14
-1.58416e-14
-1.65631e-14
-1.65186e-14
-1.28625e-14
-6.95478e-16
-1.58159e-15
-1.63049e-15
-1.57253e-15
-7.00075e-16
1.65041e-17
-1.89544e-16
-1.88343e-16
-1.70421e-16
-8.28188e-17
-1.81867e-17
-4.39405e-17
-4.56247e-17
-4.11861e-17
-3.52581e-17
-4.77947e-18
-7.46487e-18
-7.8955e-18
-7.32572e-18
-5.71584e-18
-6.36978e-19
-9.92252e-19
-1.03084e-18
-1.00645e-18
-5.82642e-19
-9.69533e-20
-1.55347e-19
-1.59634e-19
-1.55514e-19
-9.6197e-20
-1.80331e-20
-2.69927e-20
-2.83431e-20
-2.58538e-20
-2.05711e-20
-2.99793e-21
-4.16428e-21
-4.44104e-21
-3.94015e-21
-3.27524e-21
-4.71266e-22
-6.09094e-22
-6.44992e-22
-5.96429e-22
-4.41861e-22
-7.72927e-23
-9.4688e-23
-9.91293e-23
-9.43329e-23
-6.62683e-23
-1.24986e-23
-1.4918e-23
-1.56988e-23
-1.4382e-23
-1.08739e-23
-1.93427e-24
-2.24774e-24
-2.39911e-24
-2.09381e-24
-1.70062e-24
-2.99348e-25
-3.34344e-25
-3.59576e-25
-3.12436e-25
-2.54671e-25
-4.6736e-26
-5.06824e-26
-5.43683e-26
-4.79211e-26
-3.84435e-26
-7.14184e-27
-7.67401e-27
-8.21428e-27
-7.1445e-27
-5.86083e-27
-1.06739e-27
-1.13885e-27
-1.22675e-27
-1.02909e-27
-8.87518e-28
-1.59426e-28
-1.67375e-28
-1.82216e-28
-1.48526e-28
-1.33424e-28
-2.38347e-29
-2.4661e-29
-2.70056e-29
-2.17227e-29
-1.99714e-29
-3.52107e-30
-3.62822e-30
-3.9756e-30
-3.15656e-30
-2.97412e-30
-5.13417e-31
-5.28865e-31
-5.80955e-31
-4.51021e-31
-4.40834e-31
-7.44817e-32
-7.63966e-32
-8.45456e-32
-6.38328e-32
-6.50405e-32
-1.07715e-32
-1.09856e-32
-1.2253e-32
-9.01586e-33
-9.53149e-33
-1.54741e-33
-1.57443e-33
-1.764e-33
-1.27076e-33
-1.38661e-33
-2.20591e-34
-2.24355e-34
-2.52188e-34
-1.78202e-34
-2.00583e-34
-3.12633e-35
-3.17389e-35
-3.58635e-35
-2.4817e-35
-2.88624e-35
-4.40884e-36
-4.46194e-36
-5.0759e-36
-3.43331e-36
-4.12488e-36
-6.18345e-37
-6.24102e-37
-7.14277e-37
-4.72853e-37
-5.85166e-37
-8.62366e-38
-8.68179e-38
-9.98636e-38
-6.49352e-38
-8.24792e-38
-1.19632e-38
-1.2e-38
-1.38775e-38
-8.8856e-39
-1.15572e-38
-1.65092e-39
-1.64813e-39
-1.91799e-39
-1.20988e-39
-1.60913e-39
-2.26604e-40
-2.25042e-40
-2.63626e-40
-1.63953e-40
-2.22533e-40
-3.09395e-41
-3.05482e-41
-3.60199e-41
-2.21389e-41
-3.05767e-41
-4.2028e-42
-4.12081e-42
-4.89152e-42
-2.98044e-42
-4.17589e-42
-5.67944e-43
-5.52345e-43
-6.60398e-43
-3.9983e-43
-5.6686e-43
-7.63364e-44
-7.35785e-44
-8.86571e-44
-5.34275e-44
-7.64742e-44
-1.02048e-44
-9.74116e-45
-1.18336e-44
-7.11264e-45
-1.0254e-44
-1.35696e-45
-1.28148e-45
-1.57013e-45
-9.4361e-46
-1.36673e-45
-1.79474e-46
-1.67501e-46
-2.07101e-46
-1.24746e-46
-1.81103e-46
-2.36071e-47
-2.17546e-47
-2.71585e-47
-1.64294e-47
-2.38575e-47
-3.08775e-48
-2.80754e-48
-3.54092e-48
-2.15531e-48
-3.12452e-48
-4.01596e-49
-3.60012e-49
-4.58959e-49
-2.81617e-49
-4.0684e-49
-5.1937e-50
-4.58676e-50
-5.91372e-50
-3.66455e-50
-5.26704e-50
-6.67832e-51
-5.8063e-51
-7.57509e-51
-4.74814e-51
-6.77983e-51
-8.53712e-52
-7.30324e-52
-9.64638e-52
-6.1247e-52
-8.67717e-52
-1.08488e-52
-9.12766e-53
-1.22117e-52
-7.86378e-53
-1.10419e-52
-1.37043e-53
-1.13354e-53
-1.53675e-53
-1.00483e-53
-1.39705e-53
-1.72076e-54
-1.39881e-54
-1.92241e-54
-1.2776e-54
-1.75744e-54
-2.14752e-55
-1.71534e-55
-2.39053e-55
-1.61612e-55
-2.19806e-55
-2.66368e-56
-2.09044e-56
-2.95492e-56
-2.03357e-56
-2.73322e-56
-3.28349e-57
-2.5319e-57
-3.63065e-57
-2.54502e-57
-3.37889e-57
-4.02238e-58
-3.04791e-58
-4.43404e-58
-3.16744e-58
-4.15261e-58
-4.89673e-59
-3.64706e-59
-5.38252e-59
-3.91973e-59
-5.07342e-59
-5.92364e-60
-4.33815e-60
-6.49429e-60
-4.82265e-60
-6.16163e-60
-7.12062e-61
-5.13013e-61
-7.78804e-61
-5.89862e-61
-7.43852e-61
-8.50518e-62
-6.03192e-62
-9.28248e-62
-7.17145e-62
-8.92595e-62
-1.00943e-62
-7.0523e-63
-1.09959e-62
-8.66595e-63
-1.06459e-62
-1.1904e-63
-8.19974e-64
-1.29456e-63
-1.04074e-63
-1.26197e-63
-1.39485e-64
-9.48222e-65
-1.51469e-64
-1.24209e-64
-1.48675e-64
-1.62394e-65
-1.0907e-65
-1.76129e-65
-1.47306e-65
-1.74072e-65
-1.87856e-66
-1.24807e-66
-2.03533e-66
-1.73586e-66
-2.02538e-66
-2.15919e-67
-1.42085e-67
-2.33736e-67
-2.03242e-67
-2.34182e-67
-2.46585e-68
-1.60946e-68
-2.66747e-68
-2.36425e-68
-2.69064e-68
-2.79805e-69
-1.81414e-69
-3.02515e-69
-2.73234e-69
-3.07181e-69
-3.15471e-70
-2.03498e-70
-3.40928e-70
-3.13704e-70
-3.48465e-70
-3.53414e-71
-2.27183e-71
-3.81803e-71
-3.57793e-71
-3.92767e-71
-3.93397e-72
-2.52433e-72
-4.24885e-72
-4.05373e-72
-4.39857e-72
-4.35119e-73
-2.79184e-73
-4.69844e-73
-4.56223e-73
-4.89416e-73
-4.78212e-74
-3.07341e-74
-5.16273e-74
-5.10017e-74
-5.41033e-74
-5.22247e-75
-3.36778e-75
-5.63696e-75
-5.66327e-75
-5.94211e-75
-5.66735e-76
-3.67334e-76
-6.11567e-76
-6.24619e-76
-6.48369e-76
-6.1114e-77
-3.98808e-77
-6.59283e-77
-6.84259e-77
-7.02848e-77
-6.54886e-78
-4.30964e-78
-7.06196e-78
-7.44518e-78
-7.56925e-78
-6.9737e-79
-4.63522e-79
-7.5162e-79
-8.04589e-79
-8.09826e-79
-7.37973e-80
-4.96165e-80
-7.94855e-80
-8.63596e-80
-8.60748e-80
-7.7608e-81
-5.28541e-81
-8.35197e-81
-9.20621e-81
-9.08871e-81
-8.11089e-82
-5.60261e-82
-8.71962e-82
-9.74724e-82
-9.53388e-82
-8.42431e-83
-5.9091e-83
-9.04504e-83
-1.02497e-82
-9.93523e-83
-8.69585e-84
-6.20054e-84
-9.32232e-84
-1.07045e-83
-1.02855e-83
-8.92091e-85
-6.47244e-85
-9.54628e-85
-1.11031e-84
-1.05783e-84
-9.09563e-86
-6.72034e-86
-9.71266e-86
-1.1438e-85
-1.08081e-85
-9.21699e-87
-6.93984e-87
-9.81823e-87
-1.17026e-86
-1.09706e-86
-9.28292e-88
-7.12681e-88
-9.86089e-88
-1.18915e-87
-1.10627e-87
-9.29235e-89
-7.27746e-89
-9.83976e-89
-1.20012e-88
-1.10826e-88
-9.2452e-90
-7.3885e-90
-9.75522e-90
-1.20293e-89
-1.10301e-89
-9.14245e-91
-7.45724e-91
-9.60885e-91
-1.19755e-90
-1.09064e-90
-8.98602e-92
-7.48172e-92
-9.40345e-92
-1.18408e-91
-1.0714e-91
-8.77878e-93
-7.46076e-93
-9.14288e-93
-1.16282e-92
-1.04567e-92
-8.52443e-94
-7.39407e-94
-8.832e-94
-1.13419e-93
-1.01395e-93
-8.22741e-95
-7.28222e-95
-8.47648e-95
-1.09878e-94
-9.7684e-95
-7.89274e-96
-7.12669e-96
-8.08265e-96
-1.05729e-95
-9.35025e-96
-7.52594e-97
-6.92985e-97
-7.6573e-97
-1.0105e-96
-8.89247e-97
-7.1328e-98
-6.69484e-98
-7.20747e-98
-9.59273e-98
-8.40288e-98
-6.71932e-99
-6.42553e-99
-6.7403e-99
-9.04525e-99
-7.88945e-99
-6.2915e-100
-6.12638e-100
-6.26278e-100
-8.47182e-100
-7.36014e-100
-5.85522e-101
-5.80231e-101
-5.78166e-101
-7.88161e-101
-6.82265e-101
-5.41613e-102
-5.45858e-102
-5.30322e-102
-7.28354e-102
-6.28426e-102
-4.97952e-103
-5.10059e-103
-4.83319e-103
-6.68598e-103
-5.75171e-103
-4.55024e-104
-4.73375e-104
-4.37665e-104
-6.0966e-104
-5.23104e-104
-4.13259e-105
-4.36335e-105
-3.93796e-105
-5.52227e-105
-4.72752e-105
-3.73031e-106
-3.99438e-106
-3.5207e-106
-4.96889e-106
-4.2456e-106
-3.34655e-107
-3.63148e-107
-3.12768e-107
-4.44139e-107
-3.78888e-107
-2.98381e-108
-3.27876e-108
-2.76097e-108
-3.94368e-108
-3.36011e-108
-2.64398e-109
-2.93982e-109
-2.4219e-109
-3.47867e-109
-2.96123e-109
-2.32837e-110
-2.61763e-110
-2.11112e-110
-3.04831e-110
-2.59341e-110
-2.0377e-111
-2.31454e-111
-1.82869e-111
-2.65366e-111
-2.25712e-111
-1.77223e-112
-2.03229e-112
-1.57417e-112
-2.29495e-112
-1.95221e-112
-1.53171e-113
-1.77201e-113
-1.34665e-113
-1.97174e-113
-1.67797e-113
-1.31554e-114
-1.53428e-114
-1.14488e-114
-1.68298e-114
-1.4333e-114
-1.12278e-115
-1.31915e-115
-9.67327e-116
-1.42714e-115
-1.21669e-115
-9.52211e-117
-1.12626e-116
-8.12281e-117
-1.2023e-116
-1.02639e-116
-8.02446e-118
-9.5484e-118
-6.77902e-118
-1.00629e-117
-8.60478e-118
-6.71941e-119
-8.03847e-119
-5.62292e-119
-8.36756e-119
-7.16897e-119
-5.59074e-120
-6.71994e-120
-4.63553e-120
-6.91266e-120
-5.93557e-120
-4.62192e-121
-5.57837e-121
-3.79826e-121
-5.67367e-121
-4.88376e-121
-3.79651e-122
-4.59839e-122
-3.09334e-122
-4.6266e-122
-3.9933e-122
-3.1026e-123
-3.76912e-123
-2.5072e-123
-3.75312e-123
-3.24907e-123
-2.88999e-124
-3.52088e-124
-2.3119e-124
-3.46135e-124
-3.00992e-124
)
;

boundaryField
{
    BotWall
    {
        type            zeroGradient;
    }
    FreeStream
    {
        type            zeroGradient;
    }
    FrontNBack
    {
        type            empty;
    }
    LeftSide
    {
        type            symmetryPlane;
    }
    RightSide
    {
        type            symmetryPlane;
    }
}


// ************************************************************************* //
