/*--------------------------------*- C++ -*----------------------------------*\
| =========                 |                                                 |
| \\      /  F ield         | OpenFOAM: The Open Source CFD Toolbox           |
|  \\    /   O peration     | Version:  2.4.0                                 |
|   \\  /    A nd           | Web:      www.OpenFOAM.org                      |
|    \\/     M anipulation  |                                                 |
\*---------------------------------------------------------------------------*/
FoamFile
{
    version     2.0;
    format      ascii;
    class       volScalarField;
    location    "0.006";
    object      p;
}
// * * * * * * * * * * * * * * * * * * * * * * * * * * * * * * * * * * * * * //

dimensions      [1 -1 -2 0 0 0 0];

internalField   nonuniform List<scalar> 
1500
(
-0.103653
-0.103322
-0.103622
-0.103389
-0.103622
0.350739
0.352953
0.356744
0.350879
0.352103
-1.97901
-1.98757
-2.00701
-1.97825
-1.9852
-0.24652
-0.24732
-0.249053
-0.246466
-0.247086
0.0513309
0.0515363
0.0519933
0.051318
0.0514754
0.0114152
0.0114907
0.0116629
0.0114115
0.0114674
-0.0177229
-0.0177199
-0.0177053
-0.017722
-0.0177219
-0.0234384
-0.023447
-0.0234574
-0.0234368
-0.0234455
-0.022129
-0.0221333
-0.022134
-0.0221278
-0.022133
-0.0211885
-0.0211901
-0.0211851
-0.0211874
-0.0211906
-0.0211317
-0.0211329
-0.0211272
-0.0211307
-0.0211336
-0.0213284
-0.0213298
-0.0213244
-0.0213273
-0.0213303
-0.0215099
-0.0215113
-0.0215062
-0.0215088
-0.0215119
-0.0216583
-0.0216598
-0.0216547
-0.0216573
-0.0216603
-0.0217979
-0.0217994
-0.0217943
-0.0217969
-0.0217999
-0.0219387
-0.0219402
-0.0219351
-0.0219377
-0.0219407
-0.0220813
-0.0220828
-0.0220778
-0.0220803
-0.0220833
-0.0222248
-0.0222263
-0.0222213
-0.0222238
-0.0222268
-0.0223688
-0.0223702
-0.0223653
-0.0223678
-0.0223708
-0.0225133
-0.0225147
-0.0225097
-0.0225122
-0.0225152
-0.0226582
-0.0226597
-0.0226547
-0.0226572
-0.0226602
-0.0228038
-0.0228052
-0.0228003
-0.0228027
-0.0228057
-0.0229498
-0.0229512
-0.0229463
-0.0229488
-0.0229517
-0.0230964
-0.0230978
-0.0230929
-0.0230954
-0.0230983
-0.0232435
-0.0232449
-0.0232401
-0.0232425
-0.0232454
-0.0233912
-0.0233926
-0.0233878
-0.0233902
-0.0233931
-0.0235394
-0.0235408
-0.023536
-0.0235384
-0.0235413
-0.0236882
-0.0236895
-0.0236848
-0.0236872
-0.0236901
-0.0238375
-0.0238388
-0.0238341
-0.0238365
-0.0238394
-0.0239873
-0.0239887
-0.023984
-0.0239864
-0.0239892
-0.0241377
-0.0241391
-0.0241344
-0.0241368
-0.0241396
-0.0242887
-0.02429
-0.0242854
-0.0242877
-0.0242906
-0.0244402
-0.0244416
-0.0244369
-0.0244393
-0.0244421
-0.0245923
-0.0245936
-0.024589
-0.0245913
-0.0245941
-0.0247449
-0.0247462
-0.0247417
-0.024744
-0.0247468
-0.0248981
-0.0248994
-0.0248949
-0.0248972
-0.0248999
-0.0250519
-0.0250532
-0.0250487
-0.0250509
-0.0250537
-0.0252062
-0.0252075
-0.025203
-0.0252053
-0.025208
-0.0253611
-0.0253624
-0.0253579
-0.0253602
-0.0253629
-0.0255166
-0.0255179
-0.0255134
-0.0255156
-0.0255184
-0.0256726
-0.0256739
-0.0256695
-0.0256717
-0.0256744
-0.0258292
-0.0258305
-0.0258261
-0.0258283
-0.025831
-0.0259864
-0.0259877
-0.0259833
-0.0259855
-0.0259882
-0.0261442
-0.0261454
-0.0261411
-0.0261432
-0.0261459
-0.0263025
-0.0263038
-0.0262995
-0.0263016
-0.0263043
-0.0264614
-0.0264627
-0.0264584
-0.0264605
-0.0264632
-0.026621
-0.0266222
-0.0266179
-0.0266201
-0.0266227
-0.0267811
-0.0267823
-0.0267781
-0.0267802
-0.0267828
-0.0269418
-0.026943
-0.0269388
-0.0269409
-0.0269435
-0.027103
-0.0271043
-0.0271001
-0.0271021
-0.0271047
-0.0272649
-0.0272661
-0.027262
-0.027264
-0.0272666
-0.0274274
-0.0274286
-0.0274245
-0.0274265
-0.0274291
-0.0275905
-0.0275917
-0.0275876
-0.0275896
-0.0275921
-0.0277541
-0.0277553
-0.0277512
-0.0277532
-0.0277558
-0.0279184
-0.0279196
-0.0279155
-0.0279175
-0.0279201
-0.0280833
-0.0280845
-0.0280804
-0.0280824
-0.0280849
-0.0282488
-0.0282499
-0.0282459
-0.0282479
-0.0282504
-0.0284149
-0.028416
-0.028412
-0.028414
-0.0284165
-0.0285816
-0.0285827
-0.0285788
-0.0285807
-0.0285832
-0.0287489
-0.02875
-0.0287461
-0.028748
-0.0287505
-0.0289168
-0.028918
-0.0289141
-0.0289159
-0.0289184
-0.0290854
-0.0290865
-0.0290826
-0.0290845
-0.029087
-0.0292545
-0.0292557
-0.0292518
-0.0292537
-0.0292561
-0.0294243
-0.0294255
-0.0294216
-0.0294235
-0.0294259
-0.0295948
-0.0295959
-0.0295921
-0.0295939
-0.0295963
-0.0297658
-0.0297669
-0.0297632
-0.029765
-0.0297674
-0.0299375
-0.0299386
-0.0299349
-0.0299366
-0.0299391
-0.0301098
-0.0301109
-0.0301072
-0.0301089
-0.0301114
-0.0302827
-0.0302838
-0.0302801
-0.0302819
-0.0302843
-0.0304563
-0.0304574
-0.0304537
-0.0304555
-0.0304579
-0.0306305
-0.0306316
-0.030628
-0.0306297
-0.0306321
-0.0308054
-0.0308065
-0.0308029
-0.0308046
-0.0308069
-0.0309809
-0.030982
-0.0309784
-0.0309801
-0.0309824
-0.031157
-0.0311581
-0.0311546
-0.0311562
-0.0311586
-0.0313338
-0.0313349
-0.0313314
-0.031333
-0.0313354
-0.0315113
-0.0315123
-0.0315089
-0.0315105
-0.0315128
-0.0316894
-0.0316904
-0.031687
-0.0316886
-0.0316909
-0.0318682
-0.0318692
-0.0318658
-0.0318673
-0.0318697
-0.0320476
-0.0320486
-0.0320452
-0.0320468
-0.0320491
-0.0322276
-0.0322287
-0.0322253
-0.0322268
-0.0322291
-0.0324084
-0.0324094
-0.032406
-0.0324076
-0.0324099
-0.0325898
-0.0325908
-0.0325875
-0.032589
-0.0325913
-0.0327719
-0.0327729
-0.0327696
-0.0327711
-0.0327733
-0.0329546
-0.0329556
-0.0329523
-0.0329538
-0.0329561
-0.033138
-0.033139
-0.0331358
-0.0331372
-0.0331395
-0.0333221
-0.0333231
-0.0333199
-0.0333213
-0.0333236
-0.0335069
-0.0335079
-0.0335047
-0.0335061
-0.0335083
-0.0336923
-0.0336933
-0.0336901
-0.0336915
-0.0336938
-0.0338785
-0.0338794
-0.0338763
-0.0338777
-0.0338799
-0.0340653
-0.0340662
-0.0340631
-0.0340645
-0.0340667
-0.0342528
-0.0342537
-0.0342506
-0.034252
-0.0342542
-0.034441
-0.0344419
-0.0344389
-0.0344402
-0.0344424
-0.0346299
-0.0346308
-0.0346278
-0.0346291
-0.0346313
-0.0348194
-0.0348204
-0.0348174
-0.0348187
-0.0348208
-0.0350097
-0.0350106
-0.0350077
-0.0350089
-0.0350111
-0.0352007
-0.0352016
-0.0351987
-0.0351999
-0.0352021
-0.0353924
-0.0353933
-0.0353904
-0.0353916
-0.0353938
-0.0355848
-0.0355857
-0.0355828
-0.035584
-0.0355861
-0.0357779
-0.0357788
-0.0357759
-0.0357771
-0.0357792
-0.0359717
-0.0359726
-0.0359697
-0.0359709
-0.035973
-0.0361662
-0.0361671
-0.0361643
-0.0361654
-0.0361675
-0.0363614
-0.0363623
-0.0363595
-0.0363607
-0.0363628
-0.0365574
-0.0365583
-0.0365555
-0.0365566
-0.0365587
-0.0367541
-0.0367549
-0.0367522
-0.0367533
-0.0367554
-0.0369515
-0.0369523
-0.0369496
-0.0369507
-0.0369528
-0.0371496
-0.0371504
-0.0371478
-0.0371488
-0.0371509
-0.0373485
-0.0373493
-0.0373467
-0.0373477
-0.0373498
-0.037548
-0.0375489
-0.0375463
-0.0375473
-0.0375493
-0.0377484
-0.0377492
-0.0377466
-0.0377476
-0.0377497
-0.0379494
-0.0379502
-0.0379477
-0.0379487
-0.0379507
-0.0381512
-0.038152
-0.0381495
-0.0381505
-0.0381525
-0.0383538
-0.0383546
-0.0383521
-0.038353
-0.038355
-0.0385571
-0.0385579
-0.0385554
-0.0385563
-0.0385583
-0.0387611
-0.0387619
-0.0387595
-0.0387604
-0.0387624
-0.0389659
-0.0389667
-0.0389643
-0.0389651
-0.0389671
-0.0391714
-0.0391722
-0.0391698
-0.0391707
-0.0391727
-0.0393777
-0.0393785
-0.0393761
-0.039377
-0.039379
-0.0395848
-0.0395856
-0.0395832
-0.039584
-0.039586
-0.0397926
-0.0397934
-0.0397911
-0.0397919
-0.0397938
-0.0400012
-0.040002
-0.0399997
-0.0400005
-0.0400024
-0.0402106
-0.0402113
-0.0402091
-0.0402098
-0.0402118
-0.0404207
-0.0404214
-0.0404192
-0.0404199
-0.0404219
-0.0406316
-0.0406323
-0.0406301
-0.0406308
-0.0406328
-0.0408433
-0.040844
-0.0408418
-0.0408425
-0.0408444
-0.0410557
-0.0410564
-0.0410543
-0.041055
-0.0410569
-0.0412689
-0.0412697
-0.0412675
-0.0412682
-0.0412701
-0.041483
-0.0414837
-0.0414816
-0.0414822
-0.0414841
-0.0416978
-0.0416985
-0.0416964
-0.041697
-0.0416989
-0.0419134
-0.0419141
-0.041912
-0.0419126
-0.0419145
-0.0421298
-0.0421304
-0.0421284
-0.042129
-0.0421309
-0.0423469
-0.0423476
-0.0423457
-0.0423462
-0.0423481
-0.0425649
-0.0425656
-0.0425637
-0.0425642
-0.0425661
-0.0427837
-0.0427844
-0.0427825
-0.042783
-0.0427849
-0.0430033
-0.043004
-0.0430021
-0.0430026
-0.0430045
-0.0432237
-0.0432244
-0.0432225
-0.043223
-0.0432249
-0.0434449
-0.0434456
-0.0434438
-0.0434442
-0.0434461
-0.043667
-0.0436676
-0.0436658
-0.0436662
-0.0436681
-0.0438898
-0.0438905
-0.0438887
-0.0438891
-0.0438909
-0.0441135
-0.0441141
-0.0441124
-0.0441128
-0.0441146
-0.044338
-0.0443386
-0.0443369
-0.0443372
-0.0443391
-0.0445633
-0.0445639
-0.0445622
-0.0445626
-0.0445644
-0.0447894
-0.0447901
-0.0447884
-0.0447887
-0.0447905
-0.0450164
-0.045017
-0.0450154
-0.0450157
-0.0450175
-0.0452442
-0.0452448
-0.0452432
-0.0452435
-0.0452453
-0.0454729
-0.0454735
-0.0454719
-0.0454722
-0.045474
-0.0457024
-0.045703
-0.0457014
-0.0457016
-0.0457035
-0.0459327
-0.0459333
-0.0459318
-0.045932
-0.0459338
-0.0461639
-0.0461645
-0.046163
-0.0461632
-0.046165
-0.046396
-0.0463965
-0.0463951
-0.0463952
-0.046397
-0.0466288
-0.0466294
-0.046628
-0.0466281
-0.0466299
-0.0468626
-0.0468632
-0.0468617
-0.0468619
-0.0468636
-0.0470972
-0.0470978
-0.0470964
-0.0470965
-0.0470982
-0.0473327
-0.0473332
-0.0473319
-0.0473319
-0.0473337
-0.047569
-0.0475696
-0.0475682
-0.0475683
-0.04757
-0.0478062
-0.0478068
-0.0478055
-0.0478055
-0.0478073
-0.0480443
-0.0480448
-0.0480436
-0.0480436
-0.0480453
-0.0482833
-0.0482838
-0.0482826
-0.0482825
-0.0482843
-0.0485231
-0.0485236
-0.0485224
-0.0485224
-0.0485241
-0.0487638
-0.0487643
-0.0487632
-0.0487631
-0.0487648
-0.0490055
-0.0490059
-0.0490048
-0.0490047
-0.0490064
-0.049248
-0.0492484
-0.0492473
-0.0492472
-0.0492489
-0.0494913
-0.0494918
-0.0494907
-0.0494906
-0.0494923
-0.0497356
-0.0497361
-0.049735
-0.0497349
-0.0497366
-0.0499808
-0.0499813
-0.0499803
-0.0499801
-0.0499818
-0.0502269
-0.0502274
-0.0502264
-0.0502262
-0.0502279
-0.0504739
-0.0504744
-0.0504734
-0.0504731
-0.0504749
-0.0507218
-0.0507223
-0.0507213
-0.050721
-0.0507228
-0.0509706
-0.0509711
-0.0509701
-0.0509699
-0.0509716
-0.0512204
-0.0512208
-0.0512199
-0.0512196
-0.0512213
-0.051471
-0.0514714
-0.0514706
-0.0514702
-0.0514719
-0.0517226
-0.051723
-0.0517222
-0.0517218
-0.0517235
-0.0519751
-0.0519755
-0.0519747
-0.0519743
-0.051976
-0.0522285
-0.0522289
-0.0522281
-0.0522277
-0.0522294
-0.0524829
-0.0524833
-0.0524825
-0.0524821
-0.0524838
-0.0527382
-0.0527386
-0.0527379
-0.0527374
-0.0527391
-0.0529944
-0.0529948
-0.0529941
-0.0529936
-0.0529953
-0.0532516
-0.053252
-0.0532513
-0.0532508
-0.0532525
-0.0535097
-0.0535101
-0.0535095
-0.0535089
-0.0535106
-0.0537688
-0.0537692
-0.0537686
-0.053768
-0.0537697
-0.0540288
-0.0540292
-0.0540286
-0.0540281
-0.0540297
-0.0542898
-0.0542902
-0.0542896
-0.054289
-0.0542907
-0.0545518
-0.0545521
-0.0545516
-0.054551
-0.0545527
-0.0548147
-0.054815
-0.0548146
-0.0548139
-0.0548156
-0.0550786
-0.0550789
-0.0550785
-0.0550778
-0.0550795
-0.0553434
-0.0553438
-0.0553433
-0.0553426
-0.0553443
-0.0556093
-0.0556096
-0.0556092
-0.0556085
-0.0556101
-0.0558761
-0.0558764
-0.055876
-0.0558753
-0.0558769
-0.0561439
-0.0561442
-0.0561438
-0.0561431
-0.0561447
-0.0564126
-0.0564129
-0.0564126
-0.0564118
-0.0564135
-0.0566824
-0.0566827
-0.0566824
-0.0566816
-0.0566832
-0.0569531
-0.0569535
-0.0569532
-0.0569523
-0.056954
-0.0572249
-0.0572252
-0.057225
-0.0572241
-0.0572258
-0.0574977
-0.057498
-0.0574978
-0.0574968
-0.0574985
-0.0577714
-0.0577717
-0.0577716
-0.0577706
-0.0577723
-0.0580462
-0.0580465
-0.0580463
-0.0580454
-0.058047
-0.058322
-0.0583222
-0.0583221
-0.0583211
-0.0583228
-0.0585988
-0.058599
-0.058599
-0.0585979
-0.0585996
-0.0588766
-0.0588768
-0.0588768
-0.0588757
-0.0588774
-0.0591554
-0.0591557
-0.0591557
-0.0591546
-0.0591562
-0.0594353
-0.0594355
-0.0594355
-0.0594344
-0.0594361
-0.0597162
-0.0597164
-0.0597165
-0.0597153
-0.059717
-0.0599981
-0.0599983
-0.0599984
-0.0599972
-0.0599989
-0.060281
-0.0602813
-0.0602814
-0.0602802
-0.0602818
-0.060565
-0.0605653
-0.0605654
-0.0605642
-0.0605658
-0.0608501
-0.0608503
-0.0608505
-0.0608492
-0.0608509
-0.0611362
-0.0611364
-0.0611366
-0.0611353
-0.061137
-0.0614233
-0.0614236
-0.0614238
-0.0614225
-0.0614241
-0.0617116
-0.0617118
-0.061712
-0.0617107
-0.0617123
-0.0620008
-0.062001
-0.0620013
-0.062
-0.0620016
-0.0622912
-0.0622914
-0.0622917
-0.0622903
-0.0622919
-0.0625826
-0.0625828
-0.0625831
-0.0625817
-0.0625833
-0.062875
-0.0628752
-0.0628756
-0.0628742
-0.0628758
-0.0631686
-0.0631688
-0.0631692
-0.0631677
-0.0631694
-0.0634632
-0.0634634
-0.0634639
-0.0634623
-0.063464
-0.0637589
-0.0637591
-0.0637596
-0.0637581
-0.0637597
-0.0640557
-0.0640559
-0.0640564
-0.0640549
-0.0640565
-0.0643536
-0.0643538
-0.0643544
-0.0643528
-0.0643544
-0.0646526
-0.0646528
-0.0646534
-0.0646518
-0.0646534
-0.0649527
-0.0649529
-0.0649535
-0.0649518
-0.0649535
-0.0652539
-0.0652541
-0.0652547
-0.065253
-0.0652547
-0.0655563
-0.0655564
-0.0655571
-0.0655553
-0.065557
-0.0658597
-0.0658598
-0.0658605
-0.0658588
-0.0658604
-0.0661642
-0.0661644
-0.0661651
-0.0661633
-0.066165
-0.0664699
-0.06647
-0.0664708
-0.066469
-0.0664706
-0.0667767
-0.0667768
-0.0667776
-0.0667757
-0.0667774
-0.0670846
-0.0670847
-0.0670855
-0.0670836
-0.0670853
-0.0673936
-0.0673937
-0.0673946
-0.0673927
-0.0673944
-0.0677038
-0.0677039
-0.0677048
-0.0677029
-0.0677046
-0.0680151
-0.0680153
-0.0680162
-0.0680142
-0.0680159
-0.0683276
-0.0683277
-0.0683287
-0.0683267
-0.0683283
-0.0686412
-0.0686413
-0.0686423
-0.0686403
-0.068642
-0.068956
-0.0689561
-0.0689572
-0.0689551
-0.0689567
-0.0692719
-0.069272
-0.0692731
-0.069271
-0.0692727
-0.069589
-0.0695891
-0.0695903
-0.0695881
-0.0695898
-0.0699073
-0.0699074
-0.0699085
-0.0699063
-0.069908
-0.0702268
-0.0702268
-0.070228
-0.0702258
-0.0702275
-0.0705474
-0.0705475
-0.0705487
-0.0705464
-0.0705481
-0.0708692
-0.0708692
-0.0708705
-0.0708682
-0.0708699
-0.0711921
-0.0711922
-0.0711935
-0.0711912
-0.0711929
-0.0715163
-0.0715164
-0.0715177
-0.0715153
-0.071517
-0.0718417
-0.0718417
-0.0718431
-0.0718407
-0.0718424
-0.0721682
-0.0721683
-0.0721697
-0.0721672
-0.072169
-0.072496
-0.0724961
-0.0724975
-0.072495
-0.0724967
-0.072825
-0.072825
-0.0728265
-0.0728239
-0.0728257
-0.0731551
-0.0731552
-0.0731567
-0.0731541
-0.0731559
-0.0734865
-0.0734866
-0.0734881
-0.0734855
-0.0734873
-0.0738191
-0.0738192
-0.0738208
-0.0738181
-0.0738199
-0.074153
-0.074153
-0.0741546
-0.0741519
-0.0741537
-0.074488
-0.0744881
-0.0744897
-0.074487
-0.0744888
-0.0748243
-0.0748244
-0.0748261
-0.0748233
-0.0748251
-0.0751619
-0.0751619
-0.0751636
-0.0751608
-0.0751626
-0.0755007
-0.0755007
-0.0755024
-0.0754996
-0.0755014
-0.0758407
-0.0758407
-0.0758425
-0.0758396
-0.0758414
-0.076182
-0.076182
-0.0761838
-0.0761809
-0.0761827
-0.0765245
-0.0765245
-0.0765264
-0.0765234
-0.0765252
-0.0768683
-0.0768683
-0.0768702
-0.0768672
-0.076869
-0.0772134
-0.0772134
-0.0772153
-0.0772123
-0.0772141
-0.0775597
-0.0775597
-0.0775617
-0.0775586
-0.0775604
-0.0779073
-0.0779073
-0.0779093
-0.0779062
-0.077908
-0.0782562
-0.0782562
-0.0782582
-0.0782551
-0.0782569
-0.0786064
-0.0786064
-0.0786085
-0.0786053
-0.0786071
-0.0789578
-0.0789578
-0.07896
-0.0789567
-0.0789585
-0.0793106
-0.0793106
-0.0793127
-0.0793095
-0.0793113
-0.0796646
-0.0796646
-0.0796668
-0.0796635
-0.0796653
-0.08002
-0.08002
-0.0800222
-0.0800188
-0.0800207
-0.0803766
-0.0803767
-0.0803789
-0.0803755
-0.0803774
-0.0807346
-0.0807346
-0.0807369
-0.0807335
-0.0807353
-0.0810939
-0.0810939
-0.0810963
-0.0810928
-0.0810946
-0.0814545
-0.0814545
-0.0814569
-0.0814534
-0.0814553
-0.0818165
-0.0818165
-0.0818189
-0.0818153
-0.0818172
-0.0821797
-0.0821798
-0.0821822
-0.0821786
-0.0821805
-0.0825444
-0.0825444
-0.0825469
-0.0825432
-0.0825451
-0.0829103
-0.0829103
-0.0829129
-0.0829091
-0.082911
-0.0832776
-0.0832776
-0.0832802
-0.0832764
-0.0832784
-0.0836463
-0.0836463
-0.0836489
-0.0836451
-0.083647
-0.0840163
-0.0840163
-0.084019
-0.0840151
-0.084017
-0.0843877
-0.0843877
-0.0843904
-0.0843864
-0.0843884
-0.0847604
-0.0847604
-0.0847632
-0.0847592
-0.0847611
-0.0851345
-0.0851345
-0.0851373
-0.0851333
-0.0851352
-0.08551
-0.08551
-0.0855129
-0.0855088
-0.0855107
-0.0858869
-0.0858869
-0.0858898
-0.0858856
-0.0858876
-0.0862651
-0.0862651
-0.0862681
-0.0862639
-0.0862659
-0.0866448
-0.0866448
-0.0866478
-0.0866435
-0.0866455
-0.0870258
-0.0870258
-0.0870289
-0.0870246
-0.0870266
-0.0874083
-0.0874083
-0.0874114
-0.087407
-0.087409
-0.0877921
-0.0877921
-0.0877953
-0.0877908
-0.0877929
-0.0881774
-0.0881774
-0.0881806
-0.0881761
-0.0881782
-0.0885641
-0.0885641
-0.0885673
-0.0885628
-0.0885649
-0.0889522
-0.0889522
-0.0889555
-0.0889509
-0.088953
-0.0893417
-0.0893418
-0.0893451
-0.0893404
-0.0893425
-0.0897327
-0.0897327
-0.0897361
-0.0897314
-0.0897335
-0.0901251
-0.0901252
-0.0901286
-0.0901238
-0.0901259
-0.090519
-0.090519
-0.0905225
-0.0905177
-0.0905198
-0.0909143
-0.0909143
-0.0909178
-0.090913
-0.0909151
-0.091311
-0.0913111
-0.0913146
-0.0913097
-0.0913119
-0.0917093
-0.0917093
-0.0917129
-0.0917079
-0.0917101
-0.092109
-0.092109
-0.0921127
-0.0921076
-0.0921098
-0.0925102
-0.0925102
-0.0925139
-0.0925088
-0.092511
-0.0929128
-0.0929128
-0.0929166
-0.0929114
-0.0929136
-0.0933164
-0.0933165
-0.0933203
-0.0933151
-0.0933172
)
;

boundaryField
{
    BotWall
    {
        type            calculated;
        value           nonuniform List<scalar> 5(-0.0987096 -0.0983785 -0.0986786 -0.0984455 -0.0986785);
    }
    FreeStream
    {
        type            calculated;
        value           nonuniform List<scalar> 5(-0.0935184 -0.0935186 -0.0935225 -0.0935172 -0.0935192);
    }
    FrontNBack
    {
        type            empty;
    }
    LeftSide
    {
        type            symmetryPlane;
    }
    RightSide
    {
        type            symmetryPlane;
    }
}


// ************************************************************************* //
