/*--------------------------------*- C++ -*----------------------------------*\
| =========                 |                                                 |
| \\      /  F ield         | OpenFOAM: The Open Source CFD Toolbox           |
|  \\    /   O peration     | Version:  2.4.0                                 |
|   \\  /    A nd           | Web:      www.OpenFOAM.org                      |
|    \\/     M anipulation  |                                                 |
\*---------------------------------------------------------------------------*/
FoamFile
{
    version     2.0;
    format      ascii;
    class       volScalarField;
    location    "0.006";
    object      p_rgh;
}
// * * * * * * * * * * * * * * * * * * * * * * * * * * * * * * * * * * * * * //

dimensions      [1 -1 -2 0 0 0 0];

internalField   nonuniform List<scalar> 
1500
(
-0.0987096
-0.0983785
-0.0986786
-0.0984455
-0.0986785
0.365587
0.367801
0.371593
0.365727
0.366951
-1.96223
-1.9707
-1.98995
-1.96147
-1.96835
-0.245944
-0.246744
-0.248477
-0.24589
-0.24651
0.0520727
0.0522781
0.0527351
0.0520598
0.0522171
0.0123235
0.012399
0.0125712
0.0123198
0.0123757
-0.0166476
-0.0166446
-0.0166299
-0.0166466
-0.0166466
-0.0221953
-0.0222039
-0.0222143
-0.0221937
-0.0222024
-0.0207176
-0.0207219
-0.0207226
-0.0207164
-0.0207216
-0.0196081
-0.0196097
-0.0196047
-0.019607
-0.0196102
-0.0193818
-0.019383
-0.0193772
-0.0193807
-0.0193836
-0.0194082
-0.0194096
-0.0194042
-0.0194072
-0.0194102
-0.0194189
-0.0194203
-0.0194152
-0.0194178
-0.0194209
-0.0193959
-0.0193973
-0.0193922
-0.0193948
-0.0193979
-0.0193634
-0.0193648
-0.0193598
-0.0193623
-0.0193654
-0.0193315
-0.0193329
-0.0193279
-0.0193304
-0.0193335
-0.0193007
-0.0193022
-0.0192971
-0.0192997
-0.0193027
-0.0192702
-0.0192716
-0.0192666
-0.0192692
-0.0192722
-0.0192395
-0.019241
-0.019236
-0.0192385
-0.0192415
-0.0192087
-0.0192101
-0.0192052
-0.0192077
-0.0192107
-0.0191778
-0.0191792
-0.0191743
-0.0191768
-0.0191797
-0.0191467
-0.0191481
-0.0191432
-0.0191457
-0.0191486
-0.0191155
-0.0191169
-0.0191121
-0.0191145
-0.0191175
-0.0190842
-0.0190856
-0.0190808
-0.0190832
-0.0190862
-0.0190528
-0.0190542
-0.0190494
-0.0190518
-0.0190548
-0.0190213
-0.0190227
-0.0190179
-0.0190203
-0.0190232
-0.0189897
-0.0189911
-0.0189863
-0.0189887
-0.0189916
-0.0189579
-0.0189593
-0.0189546
-0.018957
-0.0189598
-0.0189261
-0.0189274
-0.0189227
-0.0189251
-0.018928
-0.0188941
-0.0188954
-0.0188907
-0.0188931
-0.018896
-0.018862
-0.0188633
-0.0188587
-0.018861
-0.0188639
-0.0188298
-0.0188311
-0.0188265
-0.0188288
-0.0188316
-0.0187974
-0.0187988
-0.0187941
-0.0187965
-0.0187993
-0.018765
-0.0187663
-0.0187617
-0.018764
-0.0187668
-0.0187324
-0.0187337
-0.0187291
-0.0187314
-0.0187342
-0.0186997
-0.018701
-0.0186965
-0.0186987
-0.0187015
-0.0186669
-0.0186682
-0.0186637
-0.0186659
-0.0186687
-0.0186339
-0.0186352
-0.0186307
-0.018633
-0.0186357
-0.0186009
-0.0186022
-0.0185977
-0.0185999
-0.0186027
-0.0185677
-0.018569
-0.0185645
-0.0185668
-0.0185695
-0.0185344
-0.0185357
-0.0185312
-0.0185334
-0.0185362
-0.018501
-0.0185022
-0.0184978
-0.0185
-0.0185027
-0.0184674
-0.0184687
-0.0184643
-0.0184665
-0.0184692
-0.0184337
-0.018435
-0.0184307
-0.0184328
-0.0184355
-0.0183999
-0.0184012
-0.0183969
-0.018399
-0.0184017
-0.018366
-0.0183673
-0.018363
-0.0183651
-0.0183678
-0.018332
-0.0183332
-0.0183289
-0.0183311
-0.0183337
-0.0182978
-0.018299
-0.0182948
-0.0182969
-0.0182995
-0.0182635
-0.0182647
-0.0182605
-0.0182626
-0.0182652
-0.0182291
-0.0182303
-0.0182261
-0.0182282
-0.0182308
-0.0181945
-0.0181957
-0.0181916
-0.0181936
-0.0181962
-0.0181598
-0.018161
-0.0181569
-0.0181589
-0.0181615
-0.018125
-0.0181262
-0.0181221
-0.0181241
-0.0181267
-0.0180901
-0.0180913
-0.0180872
-0.0180892
-0.0180918
-0.018055
-0.0180562
-0.0180522
-0.0180542
-0.0180567
-0.0180198
-0.018021
-0.018017
-0.018019
-0.0180215
-0.0179845
-0.0179857
-0.0179817
-0.0179836
-0.0179862
-0.0179491
-0.0179502
-0.0179463
-0.0179482
-0.0179507
-0.0179135
-0.0179146
-0.0179107
-0.0179126
-0.0179151
-0.0178778
-0.0178789
-0.017875
-0.0178769
-0.0178794
-0.0178419
-0.0178431
-0.0178392
-0.0178411
-0.0178436
-0.0178059
-0.0178071
-0.0178032
-0.0178051
-0.0178076
-0.0177698
-0.017771
-0.0177671
-0.017769
-0.0177714
-0.0177336
-0.0177347
-0.0177309
-0.0177327
-0.0177352
-0.0176972
-0.0176983
-0.0176946
-0.0176964
-0.0176988
-0.0176607
-0.0176618
-0.0176581
-0.0176599
-0.0176623
-0.0176241
-0.0176252
-0.0176214
-0.0176232
-0.0176256
-0.0175873
-0.0175884
-0.0175847
-0.0175864
-0.0175889
-0.0175504
-0.0175515
-0.0175478
-0.0175495
-0.0175519
-0.0175133
-0.0175144
-0.0175108
-0.0175125
-0.0175149
-0.0174761
-0.0174772
-0.0174736
-0.0174753
-0.0174777
-0.0174388
-0.0174399
-0.0174363
-0.017438
-0.0174404
-0.0174014
-0.0174024
-0.0173989
-0.0174005
-0.0174029
-0.0173638
-0.0173648
-0.0173613
-0.0173629
-0.0173653
-0.017326
-0.0173271
-0.0173236
-0.0173252
-0.0173275
-0.0172881
-0.0172892
-0.0172857
-0.0172873
-0.0172897
-0.0172501
-0.0172512
-0.0172477
-0.0172493
-0.0172516
-0.017212
-0.017213
-0.0172096
-0.0172112
-0.0172135
-0.0171737
-0.0171747
-0.0171713
-0.0171729
-0.0171752
-0.0171352
-0.0171363
-0.0171329
-0.0171344
-0.0171367
-0.0170967
-0.0170977
-0.0170943
-0.0170958
-0.0170981
-0.0170579
-0.0170589
-0.0170556
-0.0170571
-0.0170594
-0.0170191
-0.0170201
-0.0170168
-0.0170183
-0.0170205
-0.0169801
-0.0169811
-0.0169778
-0.0169793
-0.0169815
-0.0169409
-0.0169419
-0.0169387
-0.0169401
-0.0169424
-0.0169016
-0.0169026
-0.0168994
-0.0169008
-0.0169031
-0.0168622
-0.0168632
-0.01686
-0.0168614
-0.0168636
-0.0168226
-0.0168236
-0.0168204
-0.0168218
-0.016824
-0.0167829
-0.0167838
-0.0167807
-0.0167821
-0.0167843
-0.016743
-0.0167439
-0.0167408
-0.0167422
-0.0167444
-0.016703
-0.0167039
-0.0167008
-0.0167022
-0.0167044
-0.0166628
-0.0166637
-0.0166607
-0.016662
-0.0166642
-0.0166225
-0.0166234
-0.0166204
-0.0166217
-0.0166239
-0.016582
-0.0165829
-0.0165799
-0.0165812
-0.0165834
-0.0165414
-0.0165423
-0.0165394
-0.0165406
-0.0165428
-0.0165006
-0.0165015
-0.0164986
-0.0164999
-0.016502
-0.0164597
-0.0164606
-0.0164577
-0.0164589
-0.0164611
-0.0164187
-0.0164196
-0.0164167
-0.0164179
-0.01642
-0.0163774
-0.0163783
-0.0163755
-0.0163767
-0.0163788
-0.0163361
-0.016337
-0.0163341
-0.0163353
-0.0163374
-0.0162945
-0.0162954
-0.0162926
-0.0162938
-0.0162959
-0.0162529
-0.0162537
-0.016251
-0.0162521
-0.0162542
-0.016211
-0.0162119
-0.0162092
-0.0162103
-0.0162124
-0.0161691
-0.0161699
-0.0161672
-0.0161683
-0.0161704
-0.0161269
-0.0161278
-0.0161251
-0.0161262
-0.0161282
-0.0160846
-0.0160855
-0.0160828
-0.0160839
-0.0160859
-0.0160422
-0.016043
-0.0160404
-0.0160414
-0.0160435
-0.0159996
-0.0160004
-0.0159978
-0.0159988
-0.0160009
-0.0159568
-0.0159577
-0.0159551
-0.0159561
-0.0159581
-0.0159139
-0.0159147
-0.0159122
-0.0159132
-0.0159152
-0.0158708
-0.0158717
-0.0158691
-0.0158701
-0.0158721
-0.0158276
-0.0158284
-0.0158259
-0.0158269
-0.0158289
-0.0157842
-0.015785
-0.0157825
-0.0157835
-0.0157855
-0.0157407
-0.0157415
-0.015739
-0.0157399
-0.0157419
-0.015697
-0.0156977
-0.0156953
-0.0156962
-0.0156982
-0.0156531
-0.0156539
-0.0156515
-0.0156523
-0.0156543
-0.015609
-0.0156098
-0.0156075
-0.0156083
-0.0156103
-0.0155648
-0.0155656
-0.0155633
-0.0155641
-0.0155661
-0.0155205
-0.0155212
-0.0155189
-0.0155197
-0.0155217
-0.015476
-0.0154767
-0.0154744
-0.0154752
-0.0154772
-0.0154313
-0.015432
-0.0154298
-0.0154305
-0.0154325
-0.0153864
-0.0153872
-0.0153849
-0.0153857
-0.0153876
-0.0153414
-0.0153421
-0.0153399
-0.0153407
-0.0153426
-0.0152962
-0.015297
-0.0152948
-0.0152955
-0.0152974
-0.0152509
-0.0152516
-0.0152495
-0.0152501
-0.0152521
-0.0152054
-0.0152061
-0.015204
-0.0152046
-0.0152065
-0.0151597
-0.0151604
-0.0151583
-0.0151589
-0.0151609
-0.0151138
-0.0151145
-0.0151125
-0.0151131
-0.015115
-0.0150678
-0.0150685
-0.0150665
-0.0150671
-0.015069
-0.0150216
-0.0150223
-0.0150203
-0.0150209
-0.0150228
-0.0149753
-0.0149759
-0.014974
-0.0149745
-0.0149764
-0.0149287
-0.0149294
-0.0149275
-0.014928
-0.0149299
-0.014882
-0.0148827
-0.0148808
-0.0148813
-0.0148832
-0.0148352
-0.0148358
-0.0148339
-0.0148344
-0.0148363
-0.0147881
-0.0147888
-0.0147869
-0.0147874
-0.0147892
-0.0147409
-0.0147415
-0.0147397
-0.0147401
-0.014742
-0.0146935
-0.0146941
-0.0146923
-0.0146928
-0.0146946
-0.0146459
-0.0146466
-0.0146448
-0.0146452
-0.014647
-0.0145982
-0.0145988
-0.0145971
-0.0145974
-0.0145993
-0.0145503
-0.0145509
-0.0145492
-0.0145495
-0.0145514
-0.0145022
-0.0145028
-0.0145011
-0.0145014
-0.0145033
-0.0144539
-0.0144545
-0.0144528
-0.0144532
-0.014455
-0.0144055
-0.0144061
-0.0144044
-0.0144047
-0.0144065
-0.0143568
-0.0143574
-0.0143558
-0.0143561
-0.0143579
-0.014308
-0.0143086
-0.014307
-0.0143073
-0.0143091
-0.014259
-0.0142596
-0.0142581
-0.0142583
-0.0142601
-0.0142099
-0.0142104
-0.0142089
-0.0142091
-0.0142109
-0.0141605
-0.0141611
-0.0141596
-0.0141598
-0.0141616
-0.014111
-0.0141116
-0.0141101
-0.0141102
-0.014112
-0.0140613
-0.0140618
-0.0140604
-0.0140605
-0.0140623
-0.0140114
-0.0140119
-0.0140105
-0.0140106
-0.0140124
-0.0139613
-0.0139618
-0.0139605
-0.0139606
-0.0139623
-0.013911
-0.0139116
-0.0139102
-0.0139103
-0.0139121
-0.0138606
-0.0138611
-0.0138598
-0.0138598
-0.0138616
-0.01381
-0.0138105
-0.0138092
-0.0138092
-0.013811
-0.0137591
-0.0137597
-0.0137584
-0.0137584
-0.0137601
-0.0137081
-0.0137086
-0.0137074
-0.0137074
-0.0137091
-0.0136569
-0.0136574
-0.0136562
-0.0136562
-0.0136579
-0.0136056
-0.0136061
-0.0136049
-0.0136048
-0.0136065
-0.013554
-0.0135545
-0.0135533
-0.0135532
-0.013555
-0.0135022
-0.0135027
-0.0135016
-0.0135015
-0.0135032
-0.0134503
-0.0134507
-0.0134497
-0.0134495
-0.0134512
-0.0133981
-0.0133986
-0.0133975
-0.0133974
-0.0133991
-0.0133458
-0.0133463
-0.0133452
-0.013345
-0.0133468
-0.0132933
-0.0132937
-0.0132927
-0.0132925
-0.0132942
-0.0132405
-0.013241
-0.01324
-0.0132398
-0.0132415
-0.0131876
-0.0131881
-0.0131871
-0.0131869
-0.0131886
-0.0131345
-0.013135
-0.013134
-0.0131337
-0.0131355
-0.0130812
-0.0130816
-0.0130807
-0.0130804
-0.0130821
-0.0130277
-0.0130281
-0.0130273
-0.0130269
-0.0130286
-0.012974
-0.0129744
-0.0129736
-0.0129732
-0.0129749
-0.0129201
-0.0129205
-0.0129197
-0.0129193
-0.012921
-0.012866
-0.0128664
-0.0128656
-0.0128652
-0.0128669
-0.0128117
-0.0128121
-0.0128114
-0.0128109
-0.0128126
-0.0127572
-0.0127576
-0.0127569
-0.0127564
-0.0127581
-0.0127025
-0.0127029
-0.0127022
-0.0127017
-0.0127034
-0.0126476
-0.012648
-0.0126474
-0.0126469
-0.0126485
-0.0125925
-0.0125929
-0.0125923
-0.0125918
-0.0125934
-0.0125372
-0.0125376
-0.012537
-0.0125364
-0.0125381
-0.0124817
-0.0124821
-0.0124815
-0.0124809
-0.0124826
-0.012426
-0.0124264
-0.0124258
-0.0124252
-0.0124269
-0.0123701
-0.0123705
-0.0123699
-0.0123693
-0.012371
-0.012314
-0.0123143
-0.0123138
-0.0123132
-0.0123149
-0.0122576
-0.012258
-0.0122575
-0.0122569
-0.0122585
-0.0122011
-0.0122015
-0.012201
-0.0122003
-0.012202
-0.0121444
-0.0121447
-0.0121443
-0.0121436
-0.0121452
-0.0120874
-0.0120878
-0.0120874
-0.0120866
-0.0120883
-0.0120303
-0.0120306
-0.0120303
-0.0120295
-0.0120311
-0.0119729
-0.0119732
-0.0119729
-0.0119721
-0.0119737
-0.0119153
-0.0119156
-0.0119153
-0.0119145
-0.0119162
-0.0118575
-0.0118578
-0.0118576
-0.0118567
-0.0118584
-0.0117995
-0.0117998
-0.0117996
-0.0117987
-0.0118004
-0.0117413
-0.0117416
-0.0117414
-0.0117405
-0.0117421
-0.0116829
-0.0116831
-0.011683
-0.011682
-0.0116837
-0.0116242
-0.0116245
-0.0116244
-0.0116234
-0.011625
-0.0115653
-0.0115656
-0.0115655
-0.0115645
-0.0115662
-0.0115063
-0.0115065
-0.0115065
-0.0115054
-0.0115071
-0.011447
-0.0114472
-0.0114472
-0.0114461
-0.0114478
-0.0113874
-0.0113877
-0.0113877
-0.0113866
-0.0113883
-0.0113277
-0.011328
-0.011328
-0.0113269
-0.0113285
-0.0112677
-0.011268
-0.011268
-0.0112669
-0.0112686
-0.0112076
-0.0112078
-0.0112079
-0.0112067
-0.0112084
-0.0111472
-0.0111474
-0.0111475
-0.0111463
-0.011148
-0.0110865
-0.0110868
-0.0110869
-0.0110857
-0.0110873
-0.0110257
-0.0110259
-0.0110261
-0.0110248
-0.0110265
-0.0109646
-0.0109649
-0.0109651
-0.0109638
-0.0109654
-0.0109033
-0.0109036
-0.0109038
-0.0109025
-0.0109041
-0.0108418
-0.010842
-0.0108423
-0.010841
-0.0108426
-0.0107801
-0.0107803
-0.0107806
-0.0107792
-0.0107809
-0.0107181
-0.0107183
-0.0107186
-0.0107172
-0.0107189
-0.0106559
-0.0106561
-0.0106565
-0.010655
-0.0106567
-0.0105935
-0.0105937
-0.010594
-0.0105926
-0.0105942
-0.0105308
-0.010531
-0.0105314
-0.0105299
-0.0105316
-0.0104679
-0.0104681
-0.0104686
-0.010467
-0.0104687
-0.0104048
-0.010405
-0.0104055
-0.0104039
-0.0104056
-0.0103414
-0.0103416
-0.0103421
-0.0103405
-0.0103422
-0.0102778
-0.010278
-0.0102786
-0.010277
-0.0102786
-0.010214
-0.0102142
-0.0102148
-0.0102131
-0.0102148
-0.01015
-0.0101501
-0.0101507
-0.0101491
-0.0101507
-0.0100857
-0.0100858
-0.0100865
-0.0100848
-0.0100864
-0.0100211
-0.0100213
-0.010022
-0.0100202
-0.0100219
-0.00995637
-0.00995652
-0.00995723
-0.00995546
-0.00995713
-0.00989137
-0.00989151
-0.00989225
-0.00989045
-0.00989212
-0.00982612
-0.00982626
-0.00982704
-0.0098252
-0.00982687
-0.00976064
-0.00976077
-0.00976158
-0.00975971
-0.00976139
-0.00969491
-0.00969504
-0.00969588
-0.00969398
-0.00969566
-0.00962894
-0.00962907
-0.00962994
-0.00962801
-0.00962969
-0.00956273
-0.00956285
-0.00956376
-0.0095618
-0.00956348
-0.00949628
-0.00949639
-0.00949733
-0.00949534
-0.00949702
-0.00942958
-0.00942969
-0.00943066
-0.00942863
-0.00943032
-0.00936263
-0.00936274
-0.00936375
-0.00936168
-0.00936337
-0.00929544
-0.00929554
-0.00929659
-0.00929449
-0.00929618
-0.009228
-0.0092281
-0.00922918
-0.00922704
-0.00922874
-0.00916032
-0.00916041
-0.00916152
-0.00915935
-0.00916105
-0.00909238
-0.00909247
-0.00909361
-0.00909141
-0.00909311
-0.00902419
-0.00902428
-0.00902546
-0.00902322
-0.00902492
-0.00895576
-0.00895584
-0.00895705
-0.00895478
-0.00895649
-0.00888707
-0.00888715
-0.00888839
-0.00888608
-0.0088878
-0.00881812
-0.0088182
-0.00881948
-0.00881714
-0.00881885
-0.00874893
-0.008749
-0.00875032
-0.00874794
-0.00874966
-0.00867948
-0.00867955
-0.0086809
-0.00867848
-0.0086802
-0.00860977
-0.00860984
-0.00861122
-0.00860877
-0.0086105
-0.00853981
-0.00853987
-0.00854129
-0.0085388
-0.00854053
-0.00846959
-0.00846965
-0.0084711
-0.00846857
-0.00847031
-0.00839911
-0.00839916
-0.00840065
-0.00839809
-0.00839983
-0.00832837
-0.00832842
-0.00832995
-0.00832735
-0.00832909
-0.00825737
-0.00825742
-0.00825898
-0.00825634
-0.00825809
-0.00818611
-0.00818616
-0.00818775
-0.00818508
-0.00818683
-0.00811459
-0.00811463
-0.00811626
-0.00811355
-0.00811531
-0.0080428
-0.00804284
-0.00804451
-0.00804176
-0.00804352
-0.00797075
-0.00797079
-0.0079725
-0.0079697
-0.00797147
-0.00789844
-0.00789847
-0.00790021
-0.00789738
-0.00789916
-0.00782586
-0.00782589
-0.00782767
-0.00782479
-0.00782657
-0.00775301
-0.00775304
-0.00775485
-0.00775194
-0.00775372
-0.00767989
-0.00767992
-0.00768177
-0.00767881
-0.00768061
-0.0076065
-0.00760653
-0.00760842
-0.00760542
-0.00760722
-0.00753285
-0.00753287
-0.0075348
-0.00753176
-0.00753357
-0.00745892
-0.00745894
-0.0074609
-0.00745783
-0.00745964
-0.00738472
-0.00738474
-0.00738674
-0.00738362
-0.00738544
-0.00731025
-0.00731026
-0.0073123
-0.00730914
-0.00731097
-0.0072355
-0.00723551
-0.00723759
-0.00723439
-0.00723622
-0.00716048
-0.00716049
-0.00716261
-0.00715936
-0.0071612
-0.00708518
-0.00708519
-0.00708735
-0.00708405
-0.0070859
-0.0070096
-0.00700961
-0.00701181
-0.00700847
-0.00701032
-0.00693375
-0.00693376
-0.00693599
-0.00693261
-0.00693447
-0.00685761
-0.00685762
-0.0068599
-0.00685647
-0.00685834
-0.0067812
-0.00678121
-0.00678352
-0.00678005
-0.00678193
-0.0067045
-0.00670451
-0.00670687
-0.00670335
-0.00670523
-0.00662753
-0.00662753
-0.00662993
-0.00662637
-0.00662826
-0.00655027
-0.00655027
-0.00655271
-0.0065491
-0.006551
-0.00647272
-0.00647273
-0.0064752
-0.00647155
-0.00647345
-0.00639489
-0.00639489
-0.00639741
-0.00639371
-0.00639562
-0.00631677
-0.00631678
-0.00631934
-0.00631559
-0.00631751
-0.00623837
-0.00623837
-0.00624097
-0.00623717
-0.0062391
-0.00615967
-0.00615968
-0.00616232
-0.00615847
-0.00616041
-0.00608069
-0.0060807
-0.00608338
-0.00607948
-0.00608143
-0.00600142
-0.00600142
-0.00600415
-0.0060002
-0.00600216
-0.00592185
-0.00592186
-0.00592462
-0.00592063
-0.00592259
-0.00584199
-0.005842
-0.00584481
-0.00584076
-0.00584274
-0.00576184
-0.00576184
-0.0057647
-0.0057606
-0.00576259
-0.00568139
-0.0056814
-0.0056843
-0.00568015
-0.00568214
-0.00560064
-0.00560065
-0.0056036
-0.0055994
-0.0056014
-0.0055196
-0.00551961
-0.0055226
-0.00551835
-0.00552036
-0.00543826
-0.00543828
-0.00544131
-0.005437
-0.00543902
-0.00535662
-0.00535664
-0.00535971
-0.00535535
-0.00535739
-0.00527468
-0.0052747
-0.00527782
-0.00527341
-0.00527545
-0.00519244
-0.00519246
-0.00519563
-0.00519116
-0.00519321
-0.00510989
-0.00510992
-0.00511313
-0.0051086
-0.00511067
-0.00502704
-0.00502707
-0.00503033
-0.00502575
-0.00502782
-0.00494389
-0.00494392
-0.00494723
-0.00494259
-0.00494467
-0.00486043
-0.00486046
-0.00486382
-0.00485912
-0.00486122
-0.00477666
-0.0047767
-0.0047801
-0.00477534
-0.00477745
-0.00469259
-0.00469262
-0.00469607
-0.00469126
-0.00469338
-0.0046082
-0.00460824
-0.00461174
-0.00460687
-0.004609
-0.0045235
-0.00452355
-0.00452709
-0.00452216
-0.00452431
-0.00443849
-0.00443855
-0.00444214
-0.00443715
-0.0044393
-0.00435319
-0.00435324
-0.00435689
-0.00435183
-0.004354
-0.00426759
-0.00426765
-0.00427134
-0.00426622
-0.00426841
-0.00418161
-0.00418167
-0.0041854
-0.00418023
-0.00418243
-0.00409485
-0.00409494
-0.00409877
-0.00409352
-0.00409566
)
;

boundaryField
{
    BotWall
    {
        type            fixedFluxPressure;
        gradient        uniform 0;
        value           nonuniform List<scalar> 5(-0.0987096 -0.0983785 -0.0986786 -0.0984455 -0.0986785);
    }
    FreeStream
    {
        type            totalPressure;
        rho             rho;
        psi             none;
        gamma           1;
        p0              uniform 0;
        value           nonuniform List<scalar> 5(-0.00405122 -0.00405137 -0.00405528 -0.00404997 -0.00405202);
    }
    FrontNBack
    {
        type            empty;
    }
    LeftSide
    {
        type            symmetryPlane;
    }
    RightSide
    {
        type            symmetryPlane;
    }
}


// ************************************************************************* //
