/*--------------------------------*- C++ -*----------------------------------*\
| =========                 |                                                 |
| \\      /  F ield         | OpenFOAM: The Open Source CFD Toolbox           |
|  \\    /   O peration     | Version:  2.4.0                                 |
|   \\  /    A nd           | Web:      www.OpenFOAM.org                      |
|    \\/     M anipulation  |                                                 |
\*---------------------------------------------------------------------------*/
FoamFile
{
    version     2.0;
    format      ascii;
    class       surfaceScalarField;
    location    "0.006";
    object      phi;
}
// * * * * * * * * * * * * * * * * * * * * * * * * * * * * * * * * * * * * * //

dimensions      [0 3 -1 0 0 0 0];

internalField   nonuniform List<scalar> 
2695
(
2.75611e-16
-2.75622e-16
1.57969e-16
1.17628e-16
-2.57143e-16
4.15094e-16
-9.42545e-17
-1.62903e-16
-9.42708e-17
8.30096e-16
-1.63382e-15
3.95892e-16
5.5187e-16
-6.68851e-16
1.47995e-15
-3.36211e-16
-7.32459e-16
-6.33702e-16
1.60707e-15
-5.95771e-09
1.17393e-15
-5.96231e-09
-1.86652e-15
-5.97235e-09
-3.72888e-16
-5.9574e-09
-5.96096e-09
1.96934e-15
-5.95771e-09
1.25022e-15
-5.9623e-09
-2.03538e-15
-5.97235e-09
-5.19244e-16
-5.9574e-09
-5.96096e-09
3.31485e-15
-5.95771e-09
1.91055e-15
-5.9623e-09
-3.18322e-15
-5.97234e-09
-6.90756e-16
-5.9574e-09
-5.96096e-09
4.8236e-15
-5.95772e-09
3.04537e-15
-5.9623e-09
-5.02673e-15
-5.97233e-09
-6.81932e-16
-5.95741e-09
-5.96096e-09
6.2763e-15
-5.95772e-09
4.10524e-15
-5.9623e-09
-6.75184e-15
-5.97232e-09
-7.05389e-16
-5.95741e-09
-5.96096e-09
7.64592e-15
-5.95773e-09
5.06147e-15
-5.9623e-09
-8.3138e-15
-5.97231e-09
-7.5964e-16
-5.95742e-09
-5.96096e-09
8.92676e-15
-5.95774e-09
5.9473e-15
-5.96229e-09
-9.75978e-15
-5.97229e-09
-8.16904e-16
-5.95743e-09
-5.96096e-09
1.01246e-14
-5.95775e-09
6.7815e-15
-5.96229e-09
-1.11174e-14
-5.97228e-09
-8.67512e-16
-5.95744e-09
-5.96096e-09
1.12429e-14
-5.95776e-09
7.56687e-15
-5.96229e-09
-1.23911e-14
-5.97226e-09
-9.11322e-16
-5.95745e-09
-5.96096e-09
1.22839e-14
-5.95777e-09
8.30357e-15
-5.96228e-09
-1.35813e-14
-5.97223e-09
-9.49022e-16
-5.95746e-09
-5.96097e-09
1.32493e-14
-5.95779e-09
8.99252e-15
-5.96228e-09
-1.46898e-14
-5.97221e-09
-9.80603e-16
-5.95748e-09
-5.96097e-09
1.41413e-14
-5.9578e-09
9.63523e-15
-5.96227e-09
-1.57189e-14
-5.97218e-09
-1.00579e-15
-5.95749e-09
-5.96097e-09
1.4962e-14
-5.95781e-09
1.02333e-14
-5.96227e-09
-1.66714e-14
-5.97216e-09
-1.02437e-15
-5.95751e-09
-5.96097e-09
1.57136e-14
-5.95783e-09
1.07883e-14
-5.96226e-09
-1.75498e-14
-5.97213e-09
-1.03621e-15
-5.95753e-09
-5.96097e-09
1.63983e-14
-5.95785e-09
1.13019e-14
-5.96226e-09
-1.83567e-14
-5.9721e-09
-1.0413e-15
-5.95754e-09
-5.96097e-09
1.70186e-14
-5.95786e-09
1.17754e-14
-5.96225e-09
-1.90949e-14
-5.97207e-09
-1.03965e-15
-5.95756e-09
-5.96097e-09
1.75768e-14
-5.95788e-09
1.22107e-14
-5.96225e-09
-1.9767e-14
-5.97204e-09
-1.03136e-15
-5.95758e-09
-5.96097e-09
1.80754e-14
-5.9579e-09
1.26091e-14
-5.96224e-09
-2.03756e-14
-5.972e-09
-1.01658e-15
-5.9576e-09
-5.96097e-09
1.85169e-14
-5.95792e-09
1.29723e-14
-5.96224e-09
-2.09236e-14
-5.97197e-09
-9.95515e-16
-5.95762e-09
-5.96097e-09
1.89038e-14
-5.95794e-09
1.33018e-14
-5.96223e-09
-2.14135e-14
-5.97193e-09
-9.6841e-16
-5.95764e-09
-5.96098e-09
1.92385e-14
-5.95796e-09
1.35991e-14
-5.96223e-09
-2.18481e-14
-5.9719e-09
-9.35561e-16
-5.95766e-09
-5.96098e-09
1.95238e-14
-5.95798e-09
1.38659e-14
-5.96222e-09
-2.22301e-14
-5.97186e-09
-8.973e-16
-5.95768e-09
-5.96098e-09
1.97621e-14
-5.958e-09
1.41037e-14
-5.96222e-09
-2.25622e-14
-5.97183e-09
-8.53999e-16
-5.9577e-09
-5.96098e-09
1.9956e-14
-5.95801e-09
1.43139e-14
-5.96221e-09
-2.28472e-14
-5.97179e-09
-8.06055e-16
-5.95773e-09
-5.96098e-09
2.01082e-14
-5.95804e-09
1.44981e-14
-5.9622e-09
-2.30875e-14
-5.97175e-09
-7.53897e-16
-5.95775e-09
-5.96098e-09
2.02211e-14
-5.95806e-09
1.46578e-14
-5.9622e-09
-2.3286e-14
-5.97171e-09
-6.97971e-16
-5.95777e-09
-5.96098e-09
2.02974e-14
-5.95808e-09
1.47945e-14
-5.96219e-09
-2.34453e-14
-5.97168e-09
-6.38746e-16
-5.95779e-09
-5.96098e-09
2.03395e-14
-5.9581e-09
1.49096e-14
-5.96219e-09
-2.35678e-14
-5.97164e-09
-5.76701e-16
-5.95782e-09
-5.96098e-09
2.03499e-14
-5.95812e-09
1.50044e-14
-5.96218e-09
-2.36562e-14
-5.9716e-09
-5.12326e-16
-5.95784e-09
-5.96098e-09
2.03311e-14
-5.95814e-09
1.50805e-14
-5.96218e-09
-2.37129e-14
-5.97156e-09
-4.46119e-16
-5.95786e-09
-5.96098e-09
2.02855e-14
-5.95816e-09
1.51392e-14
-5.96217e-09
-2.37404e-14
-5.97152e-09
-3.78577e-16
-5.95789e-09
-5.96098e-09
2.02155e-14
-5.95818e-09
1.51818e-14
-5.96217e-09
-2.3741e-14
-5.97148e-09
-3.10199e-16
-5.95791e-09
-5.96098e-09
2.01232e-14
-5.9582e-09
1.52096e-14
-5.96216e-09
-2.37171e-14
-5.97144e-09
-2.41477e-16
-5.95793e-09
-5.96098e-09
2.00111e-14
-5.95822e-09
1.52238e-14
-5.96216e-09
-2.36708e-14
-5.9714e-09
-1.72895e-16
-5.95796e-09
-5.96098e-09
1.98812e-14
-5.95824e-09
1.52257e-14
-5.96215e-09
-2.36045e-14
-5.97137e-09
-1.04928e-16
-5.95798e-09
-5.96098e-09
1.97356e-14
-5.95826e-09
1.52165e-14
-5.96215e-09
-2.35201e-14
-5.97133e-09
-3.80368e-17
-5.958e-09
-5.96098e-09
1.95763e-14
-5.95828e-09
1.51971e-14
-5.96214e-09
-2.34196e-14
-5.97129e-09
2.73354e-17
-5.95803e-09
-5.96098e-09
1.94052e-14
-5.9583e-09
1.51689e-14
-5.96214e-09
-2.33051e-14
-5.97125e-09
9.07625e-17
-5.95805e-09
-5.96098e-09
1.92243e-14
-5.95832e-09
1.51326e-14
-5.96214e-09
-2.31784e-14
-5.97121e-09
1.51839e-16
-5.95807e-09
-5.96098e-09
1.90351e-14
-5.95833e-09
1.50895e-14
-5.96213e-09
-2.30412e-14
-5.97117e-09
2.10183e-16
-5.9581e-09
-5.96098e-09
1.88395e-14
-5.95835e-09
1.50403e-14
-5.96213e-09
-2.28951e-14
-5.97114e-09
2.65436e-16
-5.95812e-09
-5.96098e-09
1.86389e-14
-5.95837e-09
1.4986e-14
-5.96212e-09
-2.27418e-14
-5.9711e-09
3.17263e-16
-5.95814e-09
-5.96098e-09
1.84349e-14
-5.95839e-09
1.49274e-14
-5.96212e-09
-2.25828e-14
-5.97106e-09
3.6536e-16
-5.95817e-09
-5.96098e-09
1.82288e-14
-5.95841e-09
1.48653e-14
-5.96212e-09
-2.24194e-14
-5.97102e-09
4.09446e-16
-5.95819e-09
-5.96098e-09
1.80219e-14
-5.95843e-09
1.48004e-14
-5.96211e-09
-2.22529e-14
-5.97099e-09
4.49271e-16
-5.95821e-09
-5.96098e-09
1.78154e-14
-5.95844e-09
1.47334e-14
-5.96211e-09
-2.20845e-14
-5.97095e-09
4.84612e-16
-5.95823e-09
-5.96098e-09
1.76103e-14
-5.95846e-09
1.46649e-14
-5.96211e-09
-2.19154e-14
-5.97091e-09
5.15276e-16
-5.95826e-09
-5.96098e-09
1.74077e-14
-5.95848e-09
1.45955e-14
-5.9621e-09
-2.17466e-14
-5.97088e-09
5.41097e-16
-5.95828e-09
-5.96098e-09
1.72085e-14
-5.9585e-09
1.45258e-14
-5.9621e-09
-2.1579e-14
-5.97084e-09
5.6194e-16
-5.9583e-09
-5.96098e-09
1.70135e-14
-5.95851e-09
1.44563e-14
-5.9621e-09
-2.14134e-14
-5.9708e-09
5.77696e-16
-5.95832e-09
-5.96098e-09
1.68234e-14
-5.95853e-09
1.43873e-14
-5.9621e-09
-2.12506e-14
-5.97077e-09
5.88285e-16
-5.95834e-09
-5.96098e-09
1.66389e-14
-5.95855e-09
1.43192e-14
-5.96209e-09
-2.10912e-14
-5.97073e-09
5.93653e-16
-5.95837e-09
-5.96098e-09
1.64605e-14
-5.95856e-09
1.42525e-14
-5.96209e-09
-2.0936e-14
-5.9707e-09
5.93774e-16
-5.95839e-09
-5.96098e-09
1.62887e-14
-5.95858e-09
1.41875e-14
-5.96209e-09
-2.07853e-14
-5.97066e-09
5.88644e-16
-5.95841e-09
-5.96098e-09
1.61239e-14
-5.9586e-09
1.41243e-14
-5.96209e-09
-2.06396e-14
-5.97063e-09
5.78285e-16
-5.95843e-09
-5.96098e-09
1.59664e-14
-5.95861e-09
1.40632e-14
-5.96209e-09
-2.04994e-14
-5.97059e-09
5.62743e-16
-5.95845e-09
-5.96098e-09
1.58165e-14
-5.95863e-09
1.40045e-14
-5.96208e-09
-2.03648e-14
-5.97056e-09
5.42081e-16
-5.95847e-09
-5.96097e-09
1.56743e-14
-5.95864e-09
1.39482e-14
-5.96208e-09
-2.02362e-14
-5.97052e-09
5.16387e-16
-5.95849e-09
-5.96097e-09
1.55401e-14
-5.95866e-09
1.38945e-14
-5.96208e-09
-2.01137e-14
-5.97049e-09
4.85765e-16
-5.95851e-09
-5.96097e-09
1.54139e-14
-5.95867e-09
1.38436e-14
-5.96208e-09
-1.99975e-14
-5.97046e-09
4.50335e-16
-5.95853e-09
-5.96097e-09
1.52957e-14
-5.95869e-09
1.37954e-14
-5.96208e-09
-1.98876e-14
-5.97042e-09
4.10236e-16
-5.95855e-09
-5.96097e-09
1.51854e-14
-5.9587e-09
1.375e-14
-5.96208e-09
-1.9784e-14
-5.97039e-09
3.65618e-16
-5.95857e-09
-5.96097e-09
1.50831e-14
-5.95872e-09
1.37074e-14
-5.96208e-09
-1.96869e-14
-5.97036e-09
3.16644e-16
-5.95859e-09
-5.96097e-09
1.49886e-14
-5.95873e-09
1.36677e-14
-5.96207e-09
-1.95959e-14
-5.97032e-09
2.6349e-16
-5.95861e-09
-5.96097e-09
1.49017e-14
-5.95875e-09
1.36307e-14
-5.96207e-09
-1.95112e-14
-5.97029e-09
2.06339e-16
-5.95863e-09
-5.96097e-09
1.48223e-14
-5.95876e-09
1.35965e-14
-5.96207e-09
-1.94326e-14
-5.97026e-09
1.45384e-16
-5.95865e-09
-5.96097e-09
1.47502e-14
-5.95878e-09
1.3565e-14
-5.96207e-09
-1.93599e-14
-5.97022e-09
8.08219e-17
-5.95867e-09
-5.96097e-09
1.46851e-14
-5.95879e-09
1.35361e-14
-5.96207e-09
-1.92929e-14
-5.97019e-09
1.28574e-17
-5.95869e-09
-5.96097e-09
1.46268e-14
-5.95881e-09
1.35098e-14
-5.96207e-09
-1.92314e-14
-5.97016e-09
-5.83022e-17
-5.95871e-09
-5.96097e-09
1.4575e-14
-5.95882e-09
1.34859e-14
-5.96207e-09
-1.91753e-14
-5.97013e-09
-1.32447e-16
-5.95873e-09
-5.96097e-09
1.45294e-14
-5.95884e-09
1.34643e-14
-5.96207e-09
-1.91243e-14
-5.97009e-09
-2.09366e-16
-5.95875e-09
-5.96097e-09
1.44897e-14
-5.95885e-09
1.34449e-14
-5.96206e-09
-1.90781e-14
-5.97006e-09
-2.88847e-16
-5.95877e-09
-5.96097e-09
1.44556e-14
-5.95887e-09
1.34277e-14
-5.96206e-09
-1.90365e-14
-5.97003e-09
-3.70681e-16
-5.95879e-09
-5.96097e-09
1.44268e-14
-5.95888e-09
1.34124e-14
-5.96206e-09
-1.89993e-14
-5.97e-09
-4.54658e-16
-5.95881e-09
-5.96097e-09
1.4403e-14
-5.9589e-09
1.33989e-14
-5.96206e-09
-1.89661e-14
-5.96996e-09
-5.40572e-16
-5.95882e-09
-5.96097e-09
1.43838e-14
-5.95891e-09
1.33872e-14
-5.96206e-09
-1.89367e-14
-5.96993e-09
-6.28221e-16
-5.95884e-09
-5.96097e-09
1.4369e-14
-5.95892e-09
1.33771e-14
-5.96206e-09
-1.89108e-14
-5.9699e-09
-7.17407e-16
-5.95886e-09
-5.96097e-09
1.43582e-14
-5.95894e-09
1.33685e-14
-5.96206e-09
-1.88882e-14
-5.96987e-09
-8.07936e-16
-5.95888e-09
-5.96098e-09
1.43511e-14
-5.95895e-09
1.33611e-14
-5.96206e-09
-1.88686e-14
-5.96983e-09
-8.99622e-16
-5.9589e-09
-5.96098e-09
1.43474e-14
-5.95897e-09
1.3355e-14
-5.96206e-09
-1.88517e-14
-5.9698e-09
-9.92281e-16
-5.95891e-09
-5.96098e-09
1.43469e-14
-5.95898e-09
1.335e-14
-5.96206e-09
-1.88373e-14
-5.96977e-09
-1.08574e-15
-5.95893e-09
-5.96098e-09
1.43491e-14
-5.959e-09
1.33459e-14
-5.96205e-09
-1.88251e-14
-5.96974e-09
-1.17983e-15
-5.95895e-09
-5.96098e-09
1.43539e-14
-5.95901e-09
1.33427e-14
-5.96205e-09
-1.8815e-14
-5.96971e-09
-1.27439e-15
-5.95897e-09
-5.96098e-09
1.4361e-14
-5.95902e-09
1.33402e-14
-5.96205e-09
-1.88065e-14
-5.96967e-09
-1.36926e-15
-5.95898e-09
-5.96098e-09
1.43701e-14
-5.95904e-09
1.33383e-14
-5.96205e-09
-1.87996e-14
-5.96964e-09
-1.4643e-15
-5.959e-09
-5.96098e-09
1.4381e-14
-5.95905e-09
1.33369e-14
-5.96205e-09
-1.8794e-14
-5.96961e-09
-1.55936e-15
-5.95902e-09
-5.96099e-09
1.43934e-14
-5.95907e-09
1.33359e-14
-5.96205e-09
-1.87896e-14
-5.96958e-09
-1.65432e-15
-5.95904e-09
-5.96099e-09
1.44071e-14
-5.95908e-09
1.33353e-14
-5.96205e-09
-1.8786e-14
-5.96954e-09
-1.74906e-15
-5.95905e-09
-5.96099e-09
1.44219e-14
-5.9591e-09
1.33349e-14
-5.96205e-09
-1.87832e-14
-5.96951e-09
-1.84344e-15
-5.95907e-09
-5.96099e-09
1.44376e-14
-5.95911e-09
1.33346e-14
-5.96205e-09
-1.87809e-14
-5.96948e-09
-1.93737e-15
-5.95909e-09
-5.96099e-09
1.4454e-14
-5.95913e-09
1.33343e-14
-5.96205e-09
-1.87791e-14
-5.96945e-09
-2.03074e-15
-5.9591e-09
-5.96099e-09
1.4471e-14
-5.95914e-09
1.33341e-14
-5.96204e-09
-1.87774e-14
-5.96942e-09
-2.12346e-15
-5.95912e-09
-5.961e-09
1.44883e-14
-5.95915e-09
1.33337e-14
-5.96204e-09
-1.87759e-14
-5.96938e-09
-2.21543e-15
-5.95914e-09
-5.961e-09
1.45059e-14
-5.95917e-09
1.33332e-14
-5.96204e-09
-1.87744e-14
-5.96935e-09
-2.30657e-15
-5.95915e-09
-5.961e-09
1.45235e-14
-5.95918e-09
1.33324e-14
-5.96204e-09
-1.87727e-14
-5.96932e-09
-2.39682e-15
-5.95917e-09
-5.961e-09
1.45411e-14
-5.9592e-09
1.33314e-14
-5.96204e-09
-1.87708e-14
-5.96929e-09
-2.48608e-15
-5.95919e-09
-5.96101e-09
1.45585e-14
-5.95921e-09
1.33301e-14
-5.96204e-09
-1.87684e-14
-5.96926e-09
-2.57431e-15
-5.9592e-09
-5.96101e-09
1.45756e-14
-5.95923e-09
1.33284e-14
-5.96204e-09
-1.87656e-14
-5.96922e-09
-2.66145e-15
-5.95922e-09
-5.96101e-09
1.45923e-14
-5.95924e-09
1.33262e-14
-5.96204e-09
-1.87623e-14
-5.96919e-09
-2.74743e-15
-5.95923e-09
-5.96101e-09
1.46086e-14
-5.95926e-09
1.33236e-14
-5.96203e-09
-1.87583e-14
-5.96916e-09
-2.83221e-15
-5.95925e-09
-5.96102e-09
1.46243e-14
-5.95927e-09
1.33205e-14
-5.96203e-09
-1.87536e-14
-5.96913e-09
-2.91575e-15
-5.95927e-09
-5.96102e-09
1.46393e-14
-5.95929e-09
1.33168e-14
-5.96203e-09
-1.87481e-14
-5.9691e-09
-2.99801e-15
-5.95928e-09
-5.96102e-09
1.46536e-14
-5.9593e-09
1.33126e-14
-5.96203e-09
-1.87418e-14
-5.96906e-09
-3.07895e-15
-5.9593e-09
-5.96103e-09
1.46672e-14
-5.95931e-09
1.33078e-14
-5.96203e-09
-1.87346e-14
-5.96903e-09
-3.15855e-15
-5.95931e-09
-5.96103e-09
1.46799e-14
-5.95933e-09
1.33023e-14
-5.96203e-09
-1.87265e-14
-5.969e-09
-3.23676e-15
-5.95933e-09
-5.96103e-09
1.46917e-14
-5.95934e-09
1.32963e-14
-5.96203e-09
-1.87174e-14
-5.96897e-09
-3.31358e-15
-5.95934e-09
-5.96104e-09
1.47026e-14
-5.95936e-09
1.32895e-14
-5.96203e-09
-1.87072e-14
-5.96894e-09
-3.38897e-15
-5.95936e-09
-5.96104e-09
1.47125e-14
-5.95937e-09
1.32821e-14
-5.96202e-09
-1.86961e-14
-5.9689e-09
-3.46292e-15
-5.95937e-09
-5.96104e-09
1.47214e-14
-5.95939e-09
1.3274e-14
-5.96202e-09
-1.86838e-14
-5.96887e-09
-3.53541e-15
-5.95939e-09
-5.96105e-09
1.47293e-14
-5.9594e-09
1.32652e-14
-5.96202e-09
-1.86704e-14
-5.96884e-09
-3.60644e-15
-5.9594e-09
-5.96105e-09
1.47361e-14
-5.95942e-09
1.32556e-14
-5.96202e-09
-1.86559e-14
-5.96881e-09
-3.67599e-15
-5.95942e-09
-5.96105e-09
1.47418e-14
-5.95943e-09
1.32453e-14
-5.96202e-09
-1.86402e-14
-5.96878e-09
-3.74404e-15
-5.95943e-09
-5.96106e-09
1.47465e-14
-5.95945e-09
1.32343e-14
-5.96202e-09
-1.86234e-14
-5.96874e-09
-3.81061e-15
-5.95945e-09
-5.96106e-09
1.47499e-14
-5.95946e-09
1.32226e-14
-5.96201e-09
-1.86054e-14
-5.96871e-09
-3.87567e-15
-5.95946e-09
-5.96106e-09
1.47523e-14
-5.95948e-09
1.321e-14
-5.96201e-09
-1.85862e-14
-5.96868e-09
-3.93923e-15
-5.95948e-09
-5.96107e-09
1.47534e-14
-5.95949e-09
1.31968e-14
-5.96201e-09
-1.85658e-14
-5.96865e-09
-4.00128e-15
-5.95949e-09
-5.96107e-09
1.47535e-14
-5.95951e-09
1.31827e-14
-5.96201e-09
-1.85443e-14
-5.96862e-09
-4.06183e-15
-5.95951e-09
-5.96108e-09
1.47523e-14
-5.95952e-09
1.31679e-14
-5.96201e-09
-1.85214e-14
-5.96858e-09
-4.12087e-15
-5.95952e-09
-5.96108e-09
1.475e-14
-5.95954e-09
1.31523e-14
-5.96201e-09
-1.84974e-14
-5.96855e-09
-4.17841e-15
-5.95954e-09
-5.96109e-09
1.47464e-14
-5.95955e-09
1.3136e-14
-5.96201e-09
-1.84722e-14
-5.96852e-09
-4.23446e-15
-5.95955e-09
-5.96109e-09
1.47417e-14
-5.95957e-09
1.31189e-14
-5.962e-09
-1.84457e-14
-5.96849e-09
-4.289e-15
-5.95957e-09
-5.96109e-09
1.47358e-14
-5.95958e-09
1.3101e-14
-5.962e-09
-1.8418e-14
-5.96846e-09
-4.34206e-15
-5.95958e-09
-5.9611e-09
1.47287e-14
-5.95959e-09
1.30823e-14
-5.962e-09
-1.83892e-14
-5.96843e-09
-4.39363e-15
-5.95959e-09
-5.9611e-09
1.47204e-14
-5.95961e-09
1.30629e-14
-5.962e-09
-1.8359e-14
-5.9684e-09
-4.44373e-15
-5.95961e-09
-5.96111e-09
1.4711e-14
-5.95962e-09
1.30427e-14
-5.962e-09
-1.83277e-14
-5.96836e-09
-4.49236e-15
-5.95962e-09
-5.96111e-09
1.47003e-14
-5.95964e-09
1.30217e-14
-5.962e-09
-1.82952e-14
-5.96833e-09
-4.53953e-15
-5.95963e-09
-5.96112e-09
1.46885e-14
-5.95965e-09
1.3e-14
-5.96199e-09
-1.82615e-14
-5.9683e-09
-4.58524e-15
-5.95965e-09
-5.96112e-09
1.46755e-14
-5.95967e-09
1.29774e-14
-5.96199e-09
-1.82265e-14
-5.96827e-09
-4.62951e-15
-5.95966e-09
-5.96113e-09
1.46613e-14
-5.95968e-09
1.29542e-14
-5.96199e-09
-1.81904e-14
-5.96824e-09
-4.67235e-15
-5.95968e-09
-5.96113e-09
1.4646e-14
-5.9597e-09
1.29301e-14
-5.96199e-09
-1.81531e-14
-5.96821e-09
-4.71377e-15
-5.95969e-09
-5.96113e-09
1.46295e-14
-5.95971e-09
1.29053e-14
-5.96199e-09
-1.81146e-14
-5.96818e-09
-4.75378e-15
-5.9597e-09
-5.96114e-09
1.46118e-14
-5.95973e-09
1.28798e-14
-5.96199e-09
-1.80749e-14
-5.96815e-09
-4.79239e-15
-5.95972e-09
-5.96114e-09
1.4593e-14
-5.95974e-09
1.28535e-14
-5.96198e-09
-1.80341e-14
-5.96812e-09
-4.82961e-15
-5.95973e-09
-5.96115e-09
1.45731e-14
-5.95976e-09
1.28265e-14
-5.96198e-09
-1.79921e-14
-5.96808e-09
-4.86546e-15
-5.95974e-09
-5.96115e-09
1.4552e-14
-5.95977e-09
1.27987e-14
-5.96198e-09
-1.7949e-14
-5.96805e-09
-4.89995e-15
-5.95976e-09
-5.96116e-09
1.45298e-14
-5.95979e-09
1.27702e-14
-5.96198e-09
-1.79047e-14
-5.96802e-09
-4.93309e-15
-5.95977e-09
-5.96116e-09
1.45065e-14
-5.9598e-09
1.27409e-14
-5.96198e-09
-1.78593e-14
-5.96799e-09
-4.96489e-15
-5.95978e-09
-5.96117e-09
1.44821e-14
-5.95981e-09
1.27109e-14
-5.96197e-09
-1.78127e-14
-5.96796e-09
-4.99538e-15
-5.95979e-09
-5.96117e-09
1.44567e-14
-5.95983e-09
1.26802e-14
-5.96197e-09
-1.77651e-14
-5.96793e-09
-5.02456e-15
-5.95981e-09
-5.96118e-09
1.44301e-14
-5.95984e-09
1.26488e-14
-5.96197e-09
-1.77163e-14
-5.9679e-09
-5.05246e-15
-5.95982e-09
-5.96118e-09
1.44025e-14
-5.95986e-09
1.26167e-14
-5.96197e-09
-1.76665e-14
-5.96787e-09
-5.07908e-15
-5.95983e-09
-5.96119e-09
1.43738e-14
-5.95987e-09
1.25839e-14
-5.96197e-09
-1.76156e-14
-5.96784e-09
-5.10445e-15
-5.95984e-09
-5.96119e-09
1.43441e-14
-5.95989e-09
1.25503e-14
-5.96197e-09
-1.75636e-14
-5.96781e-09
-5.12857e-15
-5.95986e-09
-5.9612e-09
1.43133e-14
-5.9599e-09
1.25161e-14
-5.96196e-09
-1.75105e-14
-5.96778e-09
-5.15147e-15
-5.95987e-09
-5.9612e-09
1.42816e-14
-5.95991e-09
1.24812e-14
-5.96196e-09
-1.74564e-14
-5.96775e-09
-5.17317e-15
-5.95988e-09
-5.96121e-09
1.42488e-14
-5.95993e-09
1.24456e-14
-5.96196e-09
-1.74012e-14
-5.96772e-09
-5.19367e-15
-5.95989e-09
-5.96121e-09
1.4215e-14
-5.95994e-09
1.24094e-14
-5.96196e-09
-1.7345e-14
-5.96769e-09
-5.21301e-15
-5.95991e-09
-5.96122e-09
1.41803e-14
-5.95996e-09
1.23725e-14
-5.96196e-09
-1.72878e-14
-5.96766e-09
-5.23119e-15
-5.95992e-09
-5.96122e-09
1.41446e-14
-5.95997e-09
1.23349e-14
-5.96195e-09
-1.72296e-14
-5.96763e-09
-5.24824e-15
-5.95993e-09
-5.96123e-09
1.41079e-14
-5.95999e-09
1.22967e-14
-5.96195e-09
-1.71704e-14
-5.9676e-09
-5.26418e-15
-5.95994e-09
-5.96124e-09
1.40703e-14
-5.96e-09
1.22578e-14
-5.96195e-09
-1.71102e-14
-5.96757e-09
-5.27903e-15
-5.95995e-09
-5.96124e-09
1.40318e-14
-5.96001e-09
1.22183e-14
-5.96195e-09
-1.70491e-14
-5.96754e-09
-5.2928e-15
-5.95997e-09
-5.96125e-09
1.39924e-14
-5.96003e-09
1.21782e-14
-5.96195e-09
-1.6987e-14
-5.96751e-09
-5.30552e-15
-5.95998e-09
-5.96125e-09
1.39522e-14
-5.96004e-09
1.21375e-14
-5.96195e-09
-1.69239e-14
-5.96749e-09
-5.31721e-15
-5.95999e-09
-5.96126e-09
1.3911e-14
-5.96006e-09
1.20962e-14
-5.96194e-09
-1.68599e-14
-5.96746e-09
-5.32789e-15
-5.96e-09
-5.96126e-09
1.3869e-14
-5.96007e-09
1.20543e-14
-5.96194e-09
-1.6795e-14
-5.96743e-09
-5.33758e-15
-5.96001e-09
-5.96127e-09
1.38262e-14
-5.96008e-09
1.20118e-14
-5.96194e-09
-1.67292e-14
-5.9674e-09
-5.34631e-15
-5.96002e-09
-5.96127e-09
1.37825e-14
-5.9601e-09
1.19687e-14
-5.96194e-09
-1.66625e-14
-5.96737e-09
-5.3541e-15
-5.96003e-09
-5.96128e-09
1.37381e-14
-5.96011e-09
1.19251e-14
-5.96194e-09
-1.6595e-14
-5.96734e-09
-5.36097e-15
-5.96005e-09
-5.96128e-09
1.36929e-14
-5.96012e-09
1.18809e-14
-5.96193e-09
-1.65266e-14
-5.96731e-09
-5.36695e-15
-5.96006e-09
-5.96129e-09
1.36469e-14
-5.96014e-09
1.18362e-14
-5.96193e-09
-1.64573e-14
-5.96729e-09
-5.37206e-15
-5.96007e-09
-5.96129e-09
1.36002e-14
-5.96015e-09
1.17909e-14
-5.96193e-09
-1.63872e-14
-5.96726e-09
-5.37633e-15
-5.96008e-09
-5.9613e-09
1.35528e-14
-5.96017e-09
1.17451e-14
-5.96193e-09
-1.63163e-14
-5.96723e-09
-5.37978e-15
-5.96009e-09
-5.9613e-09
1.35047e-14
-5.96018e-09
1.16989e-14
-5.96193e-09
-1.62446e-14
-5.9672e-09
-5.38244e-15
-5.9601e-09
-5.96131e-09
1.3456e-14
-5.96019e-09
1.16521e-14
-5.96193e-09
-1.61721e-14
-5.96717e-09
-5.38434e-15
-5.96011e-09
-5.96132e-09
1.34065e-14
-5.96021e-09
1.16049e-14
-5.96192e-09
-1.60989e-14
-5.96715e-09
-5.38551e-15
-5.96012e-09
-5.96132e-09
1.33565e-14
-5.96022e-09
1.15571e-14
-5.96192e-09
-1.60249e-14
-5.96712e-09
-5.38596e-15
-5.96013e-09
-5.96133e-09
1.33059e-14
-5.96023e-09
1.1509e-14
-5.96192e-09
-1.59502e-14
-5.96709e-09
-5.38574e-15
-5.96014e-09
-5.96133e-09
1.32547e-14
-5.96025e-09
1.14604e-14
-5.96192e-09
-1.58747e-14
-5.96706e-09
-5.38488e-15
-5.96015e-09
-5.96134e-09
1.32029e-14
-5.96026e-09
1.14114e-14
-5.96192e-09
-1.57986e-14
-5.96704e-09
-5.38339e-15
-5.96016e-09
-5.96134e-09
1.31506e-14
-5.96027e-09
1.13619e-14
-5.96191e-09
-1.57218e-14
-5.96701e-09
-5.38132e-15
-5.96017e-09
-5.96135e-09
1.30978e-14
-5.96028e-09
1.13121e-14
-5.96191e-09
-1.56444e-14
-5.96698e-09
-5.37869e-15
-5.96018e-09
-5.96135e-09
1.30446e-14
-5.9603e-09
1.12619e-14
-5.96191e-09
-1.55663e-14
-5.96696e-09
-5.37554e-15
-5.96019e-09
-5.96136e-09
1.29909e-14
-5.96031e-09
1.12113e-14
-5.96191e-09
-1.54876e-14
-5.96693e-09
-5.37191e-15
-5.9602e-09
-5.96136e-09
1.29368e-14
-5.96032e-09
1.11604e-14
-5.96191e-09
-1.54083e-14
-5.9669e-09
-5.36782e-15
-5.96021e-09
-5.96137e-09
1.28823e-14
-5.96034e-09
1.11092e-14
-5.96191e-09
-1.53284e-14
-5.96688e-09
-5.3633e-15
-5.96022e-09
-5.96137e-09
1.28275e-14
-5.96035e-09
1.10577e-14
-5.9619e-09
-1.5248e-14
-5.96685e-09
-5.35841e-15
-5.96023e-09
-5.96138e-09
1.27723e-14
-5.96036e-09
1.10058e-14
-5.9619e-09
-1.5167e-14
-5.96682e-09
-5.35317e-15
-5.96024e-09
-5.96139e-09
1.27169e-14
-5.96038e-09
1.09537e-14
-5.9619e-09
-1.50855e-14
-5.9668e-09
-5.34762e-15
-5.96025e-09
-5.96139e-09
1.26612e-14
-5.96039e-09
1.09014e-14
-5.9619e-09
-1.50036e-14
-5.96677e-09
-5.3418e-15
-5.96026e-09
-5.9614e-09
1.26052e-14
-5.9604e-09
1.08488e-14
-5.9619e-09
-1.49212e-14
-5.96675e-09
-5.33575e-15
-5.96027e-09
-5.9614e-09
1.25491e-14
-5.96041e-09
1.0796e-14
-5.9619e-09
-1.48383e-14
-5.96672e-09
-5.32951e-15
-5.96028e-09
-5.96141e-09
1.24929e-14
-5.96043e-09
1.0743e-14
-5.96189e-09
-1.47551e-14
-5.96669e-09
-5.32313e-15
-5.96029e-09
-5.96141e-09
1.24365e-14
-5.96044e-09
1.06899e-14
-5.96189e-09
-1.46714e-14
-5.96667e-09
-5.31664e-15
-5.9603e-09
-5.96142e-09
1.23801e-14
-5.96045e-09
1.06366e-14
-5.96189e-09
-1.45875e-14
-5.96664e-09
-5.31009e-15
-5.96031e-09
-5.96142e-09
1.23236e-14
-5.96046e-09
1.05832e-14
-5.96189e-09
-1.45031e-14
-5.96662e-09
-5.30353e-15
-5.96032e-09
-5.96143e-09
1.22671e-14
-5.96047e-09
1.05297e-14
-5.96189e-09
-1.44185e-14
-5.96659e-09
-5.297e-15
-5.96033e-09
-5.96143e-09
1.22107e-14
-5.96049e-09
1.04762e-14
-5.96189e-09
-1.43337e-14
-5.96657e-09
-5.29055e-15
-5.96034e-09
-5.96144e-09
1.21544e-14
-5.9605e-09
1.04226e-14
-5.96188e-09
-1.42485e-14
-5.96654e-09
-5.28423e-15
-5.96035e-09
-5.96144e-09
1.20982e-14
-5.96051e-09
1.0369e-14
-5.96188e-09
-1.41632e-14
-5.96652e-09
-5.27809e-15
-5.96036e-09
-5.96145e-09
1.20421e-14
-5.96052e-09
1.03154e-14
-5.96188e-09
-1.40777e-14
-5.96649e-09
-5.27218e-15
-5.96037e-09
-5.96145e-09
1.19864e-14
-5.96054e-09
1.02618e-14
-5.96188e-09
-1.39921e-14
-5.96647e-09
-5.26655e-15
-5.96037e-09
-5.96146e-09
1.19308e-14
-5.96055e-09
1.02084e-14
-5.96188e-09
-1.39064e-14
-5.96645e-09
-5.26127e-15
-5.96038e-09
-5.96147e-09
1.18757e-14
-5.96056e-09
1.0155e-14
-5.96187e-09
-1.38206e-14
-5.96642e-09
-5.25638e-15
-5.96039e-09
-5.96147e-09
1.18208e-14
-5.96057e-09
1.01018e-14
-5.96187e-09
-1.37348e-14
-5.9664e-09
-5.25194e-15
-5.9604e-09
-5.96148e-09
1.17665e-14
-5.96058e-09
1.00488e-14
-5.96187e-09
-1.36489e-14
-5.96638e-09
-5.248e-15
-5.96041e-09
-5.96148e-09
1.17126e-14
-5.96059e-09
9.99599e-15
-5.96187e-09
-1.35632e-14
-5.96635e-09
-5.24464e-15
-5.96042e-09
-5.96149e-09
1.16592e-14
-5.96061e-09
9.94343e-15
-5.96187e-09
-1.34775e-14
-5.96633e-09
-5.24191e-15
-5.96042e-09
-5.96149e-09
1.16065e-14
-5.96062e-09
9.89115e-15
-5.96187e-09
-1.3392e-14
-5.9663e-09
-5.23987e-15
-5.96043e-09
-5.9615e-09
1.15543e-14
-5.96063e-09
9.8392e-15
-5.96186e-09
-1.33066e-14
-5.96628e-09
-5.23858e-15
-5.96044e-09
-5.9615e-09
1.15029e-14
-5.96064e-09
9.78762e-15
-5.96186e-09
-1.32215e-14
-5.96626e-09
-5.23812e-15
-5.96045e-09
-5.96151e-09
1.14523e-14
-5.96065e-09
9.73644e-15
-5.96186e-09
-1.31366e-14
-5.96624e-09
-5.23854e-15
-5.96046e-09
-5.96151e-09
1.14025e-14
-5.96066e-09
9.68571e-15
-5.96186e-09
-1.3052e-14
-5.96621e-09
-5.23991e-15
-5.96046e-09
-5.96152e-09
1.13537e-14
-5.96067e-09
9.63548e-15
-5.96186e-09
-1.29679e-14
-5.96619e-09
-5.24231e-15
-5.96047e-09
-5.96152e-09
1.13057e-14
-5.96069e-09
9.58578e-15
-5.96186e-09
-1.28841e-14
-5.96617e-09
-5.2458e-15
-5.96048e-09
-5.96153e-09
1.12588e-14
-5.9607e-09
9.53667e-15
-5.96185e-09
-1.28008e-14
-5.96615e-09
-5.25045e-15
-5.96049e-09
-5.96153e-09
1.1213e-14
-5.96071e-09
9.4882e-15
-5.96185e-09
-1.27181e-14
-5.96612e-09
-5.25633e-15
-5.96049e-09
-5.96154e-09
1.11684e-14
-5.96072e-09
9.4404e-15
-5.96185e-09
-1.2636e-14
-5.9661e-09
-5.26352e-15
-5.9605e-09
-5.96154e-09
1.1125e-14
-5.96073e-09
9.39335e-15
-5.96185e-09
-1.25545e-14
-5.96608e-09
-5.27209e-15
-5.96051e-09
-5.96155e-09
1.1083e-14
-5.96074e-09
9.34708e-15
-5.96185e-09
-1.24737e-14
-5.96606e-09
-5.28212e-15
-5.96052e-09
-5.96155e-09
1.10423e-14
-5.96075e-09
9.30165e-15
-5.96185e-09
-1.23937e-14
-5.96604e-09
-5.29367e-15
-5.96052e-09
-5.96156e-09
1.1003e-14
-5.96076e-09
9.25713e-15
-5.96184e-09
-1.23146e-14
-5.96601e-09
-5.30683e-15
-5.96053e-09
-5.96156e-09
1.09653e-14
-5.96078e-09
9.21356e-15
-5.96184e-09
-1.22364e-14
-5.96599e-09
-5.32166e-15
-5.96054e-09
-5.96157e-09
1.09292e-14
-5.96079e-09
9.17101e-15
-5.96184e-09
-1.21592e-14
-5.96597e-09
-5.33826e-15
-5.96054e-09
-5.96158e-09
1.08947e-14
-5.9608e-09
9.12955e-15
-5.96184e-09
-1.20831e-14
-5.96595e-09
-5.35668e-15
-5.96055e-09
-5.96158e-09
1.08621e-14
-5.96081e-09
9.08923e-15
-5.96184e-09
-1.20081e-14
-5.96593e-09
-5.37701e-15
-5.96056e-09
-5.96159e-09
1.08312e-14
-5.96082e-09
9.05011e-15
-5.96183e-09
-1.19344e-14
-5.96591e-09
-5.39931e-15
-5.96056e-09
-5.96159e-09
1.08022e-14
-5.96083e-09
9.01228e-15
-5.96183e-09
-1.18619e-14
-5.96589e-09
-5.42367e-15
-5.96057e-09
-5.9616e-09
1.07753e-14
-5.96084e-09
8.97579e-15
-5.96183e-09
-1.17909e-14
-5.96587e-09
-5.45016e-15
-5.96058e-09
-5.9616e-09
1.07503e-14
-5.96085e-09
8.94073e-15
-5.96183e-09
-1.17213e-14
-5.96585e-09
-5.47883e-15
-5.96058e-09
-5.96161e-09
1.07275e-14
-5.96086e-09
8.90715e-15
-5.96183e-09
-1.16533e-14
-5.96583e-09
-5.50977e-15
-5.96059e-09
-5.96161e-09
1.07069e-14
-5.96087e-09
8.87514e-15
-5.96183e-09
-1.1587e-14
-5.9658e-09
-5.54304e-15
-5.9606e-09
-5.96162e-09
1.06886e-14
-5.96088e-09
8.84477e-15
-5.96182e-09
-1.15225e-14
-5.96578e-09
-5.5787e-15
-5.9606e-09
-5.96162e-09
1.06725e-14
-5.96089e-09
8.81612e-15
-5.96182e-09
-1.14598e-14
-5.96576e-09
-5.6168e-15
-5.96061e-09
-5.96163e-09
1.06589e-14
-5.9609e-09
8.78927e-15
-5.96182e-09
-1.13991e-14
-5.96574e-09
-5.65741e-15
-5.96061e-09
-5.96164e-09
1.06478e-14
-5.96092e-09
8.76429e-15
-5.96182e-09
-1.13404e-14
-5.96572e-09
-5.70058e-15
-5.96062e-09
-5.96164e-09
1.06391e-14
-5.96093e-09
8.74127e-15
-5.96182e-09
-1.12839e-14
-5.9657e-09
-5.74635e-15
-5.96062e-09
-5.96165e-09
1.06331e-14
-5.96094e-09
8.72029e-15
-5.96181e-09
-1.12296e-14
-5.96568e-09
-5.79475e-15
-5.96063e-09
-5.96165e-09
1.06296e-14
-5.96095e-09
8.70142e-15
-5.96181e-09
-1.11777e-14
-5.96566e-09
-5.84584e-15
-5.96064e-09
-5.96166e-09
1.06288e-14
-5.96096e-09
8.68473e-15
-5.96181e-09
-1.11281e-14
-5.96564e-09
-5.89962e-15
-5.96064e-09
-5.96166e-09
1.06307e-14
-5.96097e-09
8.67031e-15
-5.96181e-09
-1.10811e-14
-5.96562e-09
-5.95612e-15
-5.96065e-09
-5.96167e-09
1.06353e-14
-5.96098e-09
8.65823e-15
-5.96181e-09
-1.10367e-14
-5.9656e-09
-6.01534e-15
-5.96065e-09
-5.96168e-09
1.06426e-14
-5.96099e-09
8.64854e-15
-5.9618e-09
-1.0995e-14
-5.96559e-09
-6.07729e-15
-5.96066e-09
-5.96168e-09
1.06527e-14
-5.961e-09
8.64131e-15
-5.9618e-09
-1.09559e-14
-5.96557e-09
-6.14195e-15
-5.96066e-09
-5.96169e-09
1.06654e-14
-5.96101e-09
8.6366e-15
-5.9618e-09
-1.09197e-14
-5.96555e-09
-6.20931e-15
-5.96066e-09
-5.9617e-09
1.06808e-14
-5.96102e-09
8.63443e-15
-5.9618e-09
-1.08862e-14
-5.96553e-09
-6.27931e-15
-5.96067e-09
-5.9617e-09
1.06989e-14
-5.96103e-09
8.63484e-15
-5.9618e-09
-1.08555e-14
-5.96551e-09
-6.35191e-15
-5.96067e-09
-5.96171e-09
1.07194e-14
-5.96104e-09
8.63784e-15
-5.96179e-09
-1.08276e-14
-5.96549e-09
-6.42704e-15
-5.96068e-09
-5.96171e-09
1.07424e-14
-5.96105e-09
8.64342e-15
-5.96179e-09
-1.08024e-14
-5.96547e-09
-6.5046e-15
-5.96068e-09
-5.96172e-09
1.07677e-14
-5.96106e-09
8.65156e-15
-5.96179e-09
-1.07799e-14
-5.96545e-09
-6.58451e-15
-5.96069e-09
-5.96173e-09
1.07951e-14
-5.96108e-09
8.66221e-15
-5.96179e-09
-1.07599e-14
-5.96543e-09
-6.66662e-15
-5.96069e-09
-5.96173e-09
1.08244e-14
-5.96109e-09
8.67528e-15
-5.96179e-09
-1.07422e-14
-5.96541e-09
-6.75078e-15
-5.9607e-09
-5.96174e-09
1.08554e-14
-5.9611e-09
8.69066e-15
-5.96178e-09
-1.07267e-14
-5.96539e-09
-6.83683e-15
-5.9607e-09
-5.96175e-09
1.08879e-14
-5.96111e-09
8.7082e-15
-5.96178e-09
-1.07131e-14
-5.96537e-09
-6.92456e-15
-5.9607e-09
-5.96175e-09
1.09213e-14
-5.96112e-09
8.72771e-15
-5.96178e-09
-1.07011e-14
-5.96535e-09
-7.01374e-15
-5.96071e-09
-5.96176e-09
1.09554e-14
-5.96113e-09
8.74894e-15
-5.96178e-09
-1.06902e-14
-5.96533e-09
-7.10412e-15
-5.96071e-09
-5.96177e-09
1.09897e-14
-5.96114e-09
8.77161e-15
-5.96178e-09
-1.068e-14
-5.96531e-09
-7.19541e-15
-5.96071e-09
-5.96178e-09
1.10238e-14
-5.96115e-09
8.79538e-15
-5.96177e-09
-1.067e-14
-5.96529e-09
-7.28729e-15
-5.96072e-09
-5.96178e-09
1.10569e-14
-5.96116e-09
8.81985e-15
-5.96177e-09
-1.06595e-14
-5.96527e-09
-7.37941e-15
-5.96072e-09
-5.96179e-09
1.10885e-14
-5.96117e-09
8.84455e-15
-5.96177e-09
-1.06478e-14
-5.96525e-09
-7.47139e-15
-5.96072e-09
-5.9618e-09
1.11179e-14
-5.96118e-09
8.86899e-15
-5.96177e-09
-1.06342e-14
-5.96523e-09
-7.56281e-15
-5.96073e-09
-5.96181e-09
1.11443e-14
-5.9612e-09
8.89256e-15
-5.96176e-09
-1.06177e-14
-5.96522e-09
-7.65323e-15
-5.96073e-09
-5.96181e-09
1.11669e-14
-5.96121e-09
8.91464e-15
-5.96176e-09
-1.05975e-14
-5.9652e-09
-7.74218e-15
-5.96073e-09
-5.96182e-09
1.11848e-14
-5.96122e-09
8.93451e-15
-5.96176e-09
-1.05725e-14
-5.96518e-09
-7.82915e-15
-5.96073e-09