/*--------------------------------*- C++ -*----------------------------------*\
| =========                 |                                                 |
| \\      /  F ield         | OpenFOAM: The Open Source CFD Toolbox           |
|  \\    /   O peration     | Version:  2.4.0                                 |
|   \\  /    A nd           | Web:      www.OpenFOAM.org                      |
|    \\/     M anipulation  |                                                 |
\*---------------------------------------------------------------------------*/
FoamFile
{
    version     2.0;
    format      ascii;
    class       volVectorField;
    location    "0.006";
    object      U;
}
// * * * * * * * * * * * * * * * * * * * * * * * * * * * * * * * * * * * * * //

dimensions      [0 1 -1 0 0 0 0];

internalField   nonuniform List<vector> 
1500
(
(1.09451e-07 -0.000405017 0)
(5.01615e-07 -0.000406305 0)
(-1.67006e-07 -0.000409103 0)
(-3.85774e-07 -0.00040493 0)
(1.73386e-07 -0.000405929 0)
(3.31106e-07 0.00159386 0)
(1.48571e-06 0.00160028 0)
(-4.96136e-07 0.00161428 0)
(-1.14177e-06 0.00159343 0)
(5.08969e-07 0.0015984 0)
(6.71779e-07 -0.00484184 0)
(2.86379e-06 -0.00485192 0)
(-9.57156e-07 -0.00487396 0)
(-2.20372e-06 -0.00484117 0)
(9.5058e-07 -0.00484897 0)
(6.98147e-07 -0.0303624 0)
(3.56699e-06 -0.0303635 0)
(-1.19842e-06 -0.0303659 0)
(-2.72237e-06 -0.0303623 0)
(1.35563e-06 -0.0303632 0)
(3.55677e-07 -0.0418507 0)
(6.77011e-06 -0.0419084 0)
(-2.32346e-06 -0.0420342 0)
(-5.00391e-06 -0.0418469 0)
(3.74899e-06 -0.0418915 0)
(1.59478e-07 -0.0310543 0)
(1.01838e-05 -0.031079 0)
(-3.51337e-06 -0.0311328 0)
(-7.46371e-06 -0.0310527 0)
(6.09378e-06 -0.0310717 0)
(-1.38548e-08 -0.0292297 0)
(1.3428e-05 -0.0292511 0)
(-4.64065e-06 -0.0292978 0)
(-9.80556e-06 -0.0292283 0)
(8.30229e-06 -0.0292448 0)
(-1.80689e-07 -0.0294133 0)
(1.64631e-05 -0.0294352 0)
(-5.69211e-06 -0.0294833 0)
(-1.19981e-05 -0.0294118 0)
(1.03698e-05 -0.0294288 0)
(-3.4569e-07 -0.0297352 0)
(1.9286e-05 -0.0297579 0)
(-6.66683e-06 -0.0298077 0)
(-1.40383e-05 -0.0297336 0)
(1.23002e-05 -0.0297513 0)
(-5.0787e-07 -0.0298123 0)
(2.19111e-05 -0.0298351 0)
(-7.56967e-06 -0.0298852 0)
(-1.59366e-05 -0.0298107 0)
(1.41014e-05 -0.0298284 0)
(-6.67463e-07 -0.0298028 0)
(2.43479e-05 -0.0298255 0)
(-8.404e-06 -0.0298755 0)
(-1.77e-05 -0.0298013 0)
(1.57797e-05 -0.0298189 0)
(-8.25338e-07 -0.0297908 0)
(2.66036e-05 -0.0298134 0)
(-9.17236e-06 -0.0298632 0)
(-1.93336e-05 -0.0297893 0)
(1.73409e-05 -0.0298068 0)
(-9.82371e-07 -0.029788 0)
(2.86849e-05 -0.0298105 0)
(-9.87712e-06 -0.0298602 0)
(-2.08419e-05 -0.0297864 0)
(1.87904e-05 -0.0298039 0)
(-1.13926e-06 -0.0297884 0)
(3.05985e-05 -0.0298108 0)
(-1.05207e-05 -0.0298604 0)
(-2.22296e-05 -0.0297869 0)
(2.01332e-05 -0.0298043 0)
(-1.29654e-06 -0.029789 0)
(3.23512e-05 -0.0298113 0)
(-1.11055e-05 -0.0298608 0)
(-2.35017e-05 -0.0297874 0)
(2.13744e-05 -0.0298048 0)
(-1.45464e-06 -0.0297891 0)
(3.39497e-05 -0.0298114 0)
(-1.16341e-05 -0.0298608 0)
(-2.46629e-05 -0.0297876 0)
(2.25189e-05 -0.0298049 0)
(-1.61387e-06 -0.0297892 0)
(3.54007e-05 -0.0298113 0)
(-1.21088e-05 -0.0298606 0)
(-2.57179e-05 -0.0297877 0)
(2.35712e-05 -0.0298049 0)
(-1.77446e-06 -0.0297893 0)
(3.67108e-05 -0.0298113 0)
(-1.2532e-05 -0.0298604 0)
(-2.66714e-05 -0.0297878 0)
(2.4536e-05 -0.0298049 0)
(-1.93653e-06 -0.0297894 0)
(3.78866e-05 -0.0298113 0)
(-1.29062e-05 -0.0298603 0)
(-2.75282e-05 -0.0297878 0)
(2.54175e-05 -0.0298049 0)
(-2.10012e-06 -0.0297894 0)
(3.89344e-05 -0.0298112 0)
(-1.32337e-05 -0.0298601 0)
(-2.82928e-05 -0.0297879 0)
(2.622e-05 -0.0298049 0)
(-2.26521e-06 -0.0297895 0)
(3.98608e-05 -0.0298112 0)
(-1.35169e-05 -0.0298599 0)
(-2.89698e-05 -0.029788 0)
(2.69474e-05 -0.0298049 0)
(-2.43171e-06 -0.0297896 0)
(4.0672e-05 -0.0298112 0)
(-1.37581e-05 -0.0298598 0)
(-2.95639e-05 -0.0297881 0)
(2.76038e-05 -0.0298049 0)
(-2.59944e-06 -0.0297897 0)
(4.13742e-05 -0.0298111 0)
(-1.39596e-05 -0.0298596 0)
(-3.00795e-05 -0.0297882 0)
(2.81927e-05 -0.0298049 0)
(-2.76821e-06 -0.0297898 0)
(4.19736e-05 -0.0298111 0)
(-1.41238e-05 -0.0298594 0)
(-3.0521e-05 -0.0297884 0)
(2.8718e-05 -0.0298049 0)
(-2.93775e-06 -0.0297899 0)
(4.24762e-05 -0.0298111 0)
(-1.42527e-05 -0.0298592 0)
(-3.08928e-05 -0.0297885 0)
(2.91831e-05 -0.0298049 0)
(-3.10777e-06 -0.02979 0)
(4.28878e-05 -0.0298111 0)
(-1.43488e-05 -0.029859 0)
(-3.11992e-05 -0.0297886 0)
(2.95913e-05 -0.0298049 0)
(-3.27794e-06 -0.0297901 0)
(4.32143e-05 -0.029811 0)
(-1.4414e-05 -0.0298589 0)
(-3.14445e-05 -0.0297887 0)
(2.9946e-05 -0.0298049 0)
(-3.4479e-06 -0.0297902 0)
(4.34612e-05 -0.029811 0)
(-1.44505e-05 -0.0298587 0)
(-3.16326e-05 -0.0297888 0)
(3.02503e-05 -0.0298049 0)
(-3.61728e-06 -0.0297903 0)
(4.36342e-05 -0.029811 0)
(-1.44604e-05 -0.0298585 0)
(-3.17676e-05 -0.0297889 0)
(3.05072e-05 -0.0298049 0)
(-3.78568e-06 -0.0297904 0)
(4.37385e-05 -0.029811 0)
(-1.44456e-05 -0.0298583 0)
(-3.18536e-05 -0.029789 0)
(3.07196e-05 -0.0298049 0)
(-3.9527e-06 -0.0297905 0)
(4.37794e-05 -0.0298109 0)
(-1.44082e-05 -0.0298581 0)
(-3.18942e-05 -0.0297891 0)
(3.08903e-05 -0.0298049 0)
(-4.11792e-06 -0.0297906 0)
(4.37619e-05 -0.0298109 0)
(-1.435e-05 -0.0298579 0)
(-3.18931e-05 -0.0297893 0)
(3.10221e-05 -0.0298049 0)
(-4.28094e-06 -0.0297907 0)
(4.36909e-05 -0.0298109 0)
(-1.42729e-05 -0.0298577 0)
(-3.18541e-05 -0.0297894 0)
(3.11174e-05 -0.0298049 0)
(-4.44134e-06 -0.0297908 0)
(4.35712e-05 -0.0298108 0)
(-1.41786e-05 -0.0298575 0)
(-3.17804e-05 -0.0297895 0)
(3.11788e-05 -0.0298049 0)
(-4.59873e-06 -0.0297909 0)
(4.34072e-05 -0.0298108 0)
(-1.40688e-05 -0.0298573 0)
(-3.16755e-05 -0.0297896 0)
(3.12087e-05 -0.0298049 0)
(-4.75272e-06 -0.029791 0)
(4.32033e-05 -0.0298108 0)
(-1.39451e-05 -0.0298571 0)
(-3.15425e-05 -0.0297897 0)
(3.12092e-05 -0.0298049 0)
(-4.90291e-06 -0.0297911 0)
(4.29637e-05 -0.0298108 0)
(-1.38092e-05 -0.0298569 0)
(-3.13846e-05 -0.0297898 0)
(3.11826e-05 -0.0298049 0)
(-5.04896e-06 -0.0297912 0)
(4.26924e-05 -0.0298107 0)
(-1.36625e-05 -0.0298567 0)
(-3.12046e-05 -0.02979 0)
(3.11309e-05 -0.0298049 0)
(-5.19052e-06 -0.0297913 0)
(4.23932e-05 -0.0298107 0)
(-1.35064e-05 -0.0298565 0)
(-3.10053e-05 -0.0297901 0)
(3.10561e-05 -0.0298049 0)
(-5.32727e-06 -0.0297914 0)
(4.20696e-05 -0.0298107 0)
(-1.33423e-05 -0.0298563 0)
(-3.07893e-05 -0.0297902 0)
(3.096e-05 -0.0298049 0)
(-5.45891e-06 -0.0297915 0)
(4.1725e-05 -0.0298107 0)
(-1.31714e-05 -0.0298562 0)
(-3.05592e-05 -0.0297903 0)
(3.08445e-05 -0.0298049 0)
(-5.58516e-06 -0.0297916 0)
(4.13628e-05 -0.0298107 0)
(-1.2995e-05 -0.029856 0)
(-3.03173e-05 -0.0297904 0)
(3.07113e-05 -0.0298049 0)
(-5.70577e-06 -0.0297917 0)
(4.09858e-05 -0.0298106 0)
(-1.28141e-05 -0.0298558 0)
(-3.00658e-05 -0.0297905 0)
(3.05618e-05 -0.0298049 0)
(-5.82053e-06 -0.0297918 0)
(4.05969e-05 -0.0298106 0)
(-1.26299e-05 -0.0298556 0)
(-2.98068e-05 -0.0297907 0)
(3.03976e-05 -0.0298049 0)
(-5.92923e-06 -0.0297919 0)
(4.01988e-05 -0.0298106 0)
(-1.24432e-05 -0.0298554 0)
(-2.95421e-05 -0.0297908 0)
(3.02202e-05 -0.0298049 0)
(-6.03171e-06 -0.029792 0)
(3.97938e-05 -0.0298106 0)
(-1.22551e-05 -0.0298552 0)
(-2.92736e-05 -0.0297909 0)
(3.00309e-05 -0.0298049 0)
(-6.12783e-06 -0.0297921 0)
(3.93842e-05 -0.0298106 0)
(-1.20662e-05 -0.029855 0)
(-2.90029e-05 -0.029791 0)
(2.98309e-05 -0.0298049 0)
(-6.21747e-06 -0.0297922 0)
(3.89721e-05 -0.0298106 0)
(-1.18775e-05 -0.0298548 0)
(-2.87315e-05 -0.0297911 0)
(2.96214e-05 -0.0298049 0)
(-6.30056e-06 -0.0297923 0)
(3.85594e-05 -0.0298105 0)
(-1.16896e-05 -0.0298547 0)
(-2.84607e-05 -0.0297912 0)
(2.94035e-05 -0.0298049 0)
(-6.37704e-06 -0.0297924 0)
(3.81478e-05 -0.0298105 0)
(-1.15031e-05 -0.0298545 0)
(-2.81918e-05 -0.0297913 0)
(2.91782e-05 -0.0298049 0)
(-6.44687e-06 -0.0297924 0)
(3.77389e-05 -0.0298105 0)
(-1.13186e-05 -0.0298543 0)
(-2.79258e-05 -0.0297914 0)
(2.89465e-05 -0.0298049 0)
(-6.51005e-06 -0.0297925 0)
(3.73339e-05 -0.0298105 0)
(-1.11366e-05 -0.0298541 0)
(-2.76638e-05 -0.0297916 0)
(2.87094e-05 -0.0298049 0)
(-6.5666e-06 -0.0297926 0)
(3.69343e-05 -0.0298105 0)
(-1.09576e-05 -0.0298539 0)
(-2.74067e-05 -0.0297917 0)
(2.84675e-05 -0.0298049 0)
(-6.61657e-06 -0.0297927 0)
(3.65409e-05 -0.0298105 0)
(-1.07819e-05 -0.0298538 0)
(-2.71551e-05 -0.0297918 0)
(2.82217e-05 -0.0298049 0)
(-6.66001e-06 -0.0297928 0)
(3.61549e-05 -0.0298105 0)
(-1.06098e-05 -0.0298536 0)
(-2.69098e-05 -0.0297919 0)
(2.79726e-05 -0.0298049 0)
(-6.69703e-06 -0.0297929 0)
(3.5777e-05 -0.0298105 0)
(-1.04418e-05 -0.0298534 0)
(-2.66712e-05 -0.029792 0)
(2.7721e-05 -0.0298049 0)
(-6.72772e-06 -0.0297929 0)
(3.54078e-05 -0.0298104 0)
(-1.02779e-05 -0.0298532 0)
(-2.64399e-05 -0.0297921 0)
(2.74673e-05 -0.0298049 0)
(-6.75222e-06 -0.029793 0)
(3.5048e-05 -0.0298104 0)
(-1.01184e-05 -0.0298531 0)
(-2.62161e-05 -0.0297922 0)
(2.72122e-05 -0.0298049 0)
(-6.77066e-06 -0.0297931 0)
(3.46979e-05 -0.0298104 0)
(-9.96354e-06 -0.0298529 0)
(-2.60001e-05 -0.0297923 0)
(2.69561e-05 -0.0298049 0)
(-6.7832e-06 -0.0297932 0)
(3.4358e-05 -0.0298104 0)
(-9.81328e-06 -0.0298527 0)
(-2.57922e-05 -0.0297924 0)
(2.66995e-05 -0.0298049 0)
(-6.79002e-06 -0.0297933 0)
(3.40284e-05 -0.0298104 0)
(-9.66775e-06 -0.0298525 0)
(-2.55924e-05 -0.0297925 0)
(2.64427e-05 -0.0298049 0)
(-6.7913e-06 -0.0297933 0)
(3.37093e-05 -0.0298104 0)
(-9.527e-06 -0.0298524 0)
(-2.54009e-05 -0.0297926 0)
(2.61861e-05 -0.0298049 0)
(-6.78723e-06 -0.0297934 0)
(3.34008e-05 -0.0298104 0)
(-9.39103e-06 -0.0298522 0)
(-2.52175e-05 -0.0297927 0)
(2.59301e-05 -0.0298049 0)
(-6.77802e-06 -0.0297935 0)
(3.31028e-05 -0.0298104 0)
(-9.25982e-06 -0.029852 0)
(-2.50423e-05 -0.0297928 0)
(2.56749e-05 -0.0298049 0)
(-6.76388e-06 -0.0297936 0)
(3.28154e-05 -0.0298104 0)
(-9.13333e-06 -0.0298519 0)
(-2.48751e-05 -0.0297929 0)
(2.54208e-05 -0.0298049 0)
(-6.74503e-06 -0.0297936 0)
(3.25383e-05 -0.0298104 0)
(-9.01149e-06 -0.0298517 0)
(-2.47157e-05 -0.029793 0)
(2.51679e-05 -0.0298049 0)
(-6.7217e-06 -0.0297937 0)
(3.22714e-05 -0.0298104 0)
(-8.89422e-06 -0.0298515 0)
(-2.45641e-05 -0.0297931 0)
(2.49166e-05 -0.0298049 0)
(-6.6941e-06 -0.0297938 0)
(3.20145e-05 -0.0298104 0)
(-8.78141e-06 -0.0298514 0)
(-2.44198e-05 -0.0297932 0)
(2.46669e-05 -0.0298049 0)
(-6.66246e-06 -0.0297939 0)
(3.17672e-05 -0.0298104 0)
(-8.67295e-06 -0.0298512 0)
(-2.42827e-05 -0.0297933 0)
(2.4419e-05 -0.0298049 0)
(-6.62702e-06 -0.0297939 0)
(3.15293e-05 -0.0298103 0)
(-8.5687e-06 -0.029851 0)
(-2.41525e-05 -0.0297934 0)
(2.4173e-05 -0.0298049 0)
(-6.58801e-06 -0.029794 0)
(3.13004e-05 -0.0298103 0)
(-8.46852e-06 -0.0298509 0)
(-2.40288e-05 -0.0297935 0)
(2.3929e-05 -0.0298049 0)
(-6.54565e-06 -0.0297941 0)
(3.10801e-05 -0.0298103 0)
(-8.37226e-06 -0.0298507 0)
(-2.39115e-05 -0.0297936 0)
(2.36871e-05 -0.0298049 0)
(-6.50017e-06 -0.0297942 0)
(3.08681e-05 -0.0298103 0)
(-8.27975e-06 -0.0298505 0)
(-2.38e-05 -0.0297937 0)
(2.34475e-05 -0.0298049 0)
(-6.45178e-06 -0.0297942 0)
(3.06641e-05 -0.0298103 0)
(-8.19085e-06 -0.0298504 0)
(-2.36941e-05 -0.0297938 0)
(2.321e-05 -0.0298049 0)
(-6.40072e-06 -0.0297943 0)
(3.04674e-05 -0.0298103 0)
(-8.10537e-06 -0.0298502 0)
(-2.35933e-05 -0.0297939 0)
(2.29748e-05 -0.0298049 0)
(-6.34719e-06 -0.0297944 0)
(3.02778e-05 -0.0298103 0)
(-8.02316e-06 -0.0298501 0)
(-2.34975e-05 -0.029794 0)
(2.27419e-05 -0.0298049 0)
(-6.2914e-06 -0.0297944 0)
(3.00949e-05 -0.0298103 0)
(-7.94403e-06 -0.0298499 0)
(-2.34062e-05 -0.0297941 0)
(2.25113e-05 -0.0298049 0)
(-6.23355e-06 -0.0297945 0)
(2.99182e-05 -0.0298103 0)
(-7.86783e-06 -0.0298497 0)
(-2.3319e-05 -0.0297942 0)
(2.22831e-05 -0.0298049 0)
(-6.17383e-06 -0.0297946 0)
(2.97473e-05 -0.0298103 0)
(-7.79439e-06 -0.0298496 0)
(-2.32356e-05 -0.0297943 0)
(2.20571e-05 -0.0298049 0)
(-6.11244e-06 -0.0297947 0)
(2.95818e-05 -0.0298103 0)
(-7.72353e-06 -0.0298494 0)
(-2.31557e-05 -0.0297943 0)
(2.18335e-05 -0.0298049 0)
(-6.04956e-06 -0.0297947 0)
(2.94213e-05 -0.0298103 0)
(-7.6551e-06 -0.0298493 0)
(-2.30789e-05 -0.0297944 0)
(2.16123e-05 -0.0298049 0)
(-5.98536e-06 -0.0297948 0)
(2.92654e-05 -0.0298103 0)
(-7.58895e-06 -0.0298491 0)
(-2.3005e-05 -0.0297945 0)
(2.13933e-05 -0.0298049 0)
(-5.91999e-06 -0.0297949 0)
(2.91137e-05 -0.0298103 0)
(-7.52491e-06 -0.0298489 0)
(-2.29335e-05 -0.0297946 0)
(2.11766e-05 -0.0298049 0)
(-5.85364e-06 -0.0297949 0)
(2.89659e-05 -0.0298103 0)
(-7.46285e-06 -0.0298488 0)
(-2.28642e-05 -0.0297947 0)
(2.09622e-05 -0.0298049 0)
(-5.78643e-06 -0.029795 0)
(2.88216e-05 -0.0298103 0)
(-7.40262e-06 -0.0298486 0)
(-2.27969e-05 -0.0297948 0)
(2.07501e-05 -0.0298049 0)
(-5.71851e-06 -0.0297951 0)
(2.86805e-05 -0.0298103 0)
(-7.34408e-06 -0.0298484 0)
(-2.27312e-05 -0.0297949 0)
(2.05401e-05 -0.0298049 0)
(-5.65002e-06 -0.0297952 0)
(2.85423e-05 -0.0298103 0)
(-7.28711e-06 -0.0298483 0)
(-2.26668e-05 -0.029795 0)
(2.03324e-05 -0.0298049 0)
(-5.58107e-06 -0.0297952 0)
(2.84067e-05 -0.0298103 0)
(-7.23158e-06 -0.0298481 0)
(-2.26036e-05 -0.0297951 0)
(2.01268e-05 -0.0298049 0)
(-5.5118e-06 -0.0297953 0)
(2.82733e-05 -0.0298103 0)
(-7.17738e-06 -0.029848 0)
(-2.25413e-05 -0.0297951 0)
(1.99234e-05 -0.0298049 0)
(-5.4423e-06 -0.0297954 0)
(2.81419e-05 -0.0298102 0)
(-7.1244e-06 -0.0298478 0)
(-2.24797e-05 -0.0297952 0)
(1.97221e-05 -0.0298049 0)
(-5.37268e-06 -0.0297954 0)
(2.80123e-05 -0.0298102 0)
(-7.07253e-06 -0.0298476 0)
(-2.24185e-05 -0.0297953 0)
(1.95229e-05 -0.0298049 0)
(-5.30303e-06 -0.0297955 0)
(2.78842e-05 -0.0298102 0)
(-7.02167e-06 -0.0298475 0)
(-2.23577e-05 -0.0297954 0)
(1.93257e-05 -0.029805 0)
(-5.23345e-06 -0.0297956 0)
(2.77574e-05 -0.0298102 0)
(-6.97175e-06 -0.0298473 0)
(-2.2297e-05 -0.0297955 0)
(1.91305e-05 -0.029805 0)
(-5.164e-06 -0.0297957 0)
(2.76316e-05 -0.0298102 0)
(-6.92266e-06 -0.0298472 0)
(-2.22362e-05 -0.0297956 0)
(1.89374e-05 -0.029805 0)
(-5.09477e-06 -0.0297957 0)
(2.75068e-05 -0.0298102 0)
(-6.87435e-06 -0.029847 0)
(-2.21752e-05 -0.0297956 0)
(1.87462e-05 -0.029805 0)
(-5.02583e-06 -0.0297958 0)
(2.73827e-05 -0.0298102 0)
(-6.82672e-06 -0.0298468 0)
(-2.21139e-05 -0.0297957 0)
(1.8557e-05 -0.029805 0)
(-4.95723e-06 -0.0297959 0)
(2.72592e-05 -0.0298102 0)
(-6.77972e-06 -0.0298467 0)
(-2.20522e-05 -0.0297958 0)
(1.83697e-05 -0.029805 0)
(-4.88903e-06 -0.029796 0)
(2.71361e-05 -0.0298102 0)
(-6.73329e-06 -0.0298465 0)
(-2.19899e-05 -0.0297959 0)
(1.81843e-05 -0.029805 0)
(-4.82129e-06 -0.029796 0)
(2.70133e-05 -0.0298102 0)
(-6.68736e-06 -0.0298464 0)
(-2.19269e-05 -0.029796 0)
(1.80007e-05 -0.029805 0)
(-4.75404e-06 -0.0297961 0)
(2.68907e-05 -0.0298102 0)
(-6.64189e-06 -0.0298462 0)
(-2.18632e-05 -0.0297961 0)
(1.7819e-05 -0.0298051 0)
(-4.68734e-06 -0.0297962 0)
(2.67681e-05 -0.0298102 0)
(-6.59684e-06 -0.029846 0)
(-2.17986e-05 -0.0297961 0)
(1.76391e-05 -0.0298051 0)
(-4.62121e-06 -0.0297962 0)
(2.66455e-05 -0.0298102 0)
(-6.55215e-06 -0.0298459 0)
(-2.17331e-05 -0.0297962 0)
(1.74611e-05 -0.0298051 0)
(-4.55569e-06 -0.0297963 0)
(2.65228e-05 -0.0298102 0)
(-6.50779e-06 -0.0298457 0)
(-2.16667e-05 -0.0297963 0)
(1.72848e-05 -0.0298051 0)
(-4.49081e-06 -0.0297964 0)
(2.63998e-05 -0.0298102 0)
(-6.46373e-06 -0.0298456 0)
(-2.15992e-05 -0.0297964 0)
(1.71102e-05 -0.0298051 0)
(-4.4266e-06 -0.0297965 0)
(2.62766e-05 -0.0298102 0)
(-6.41993e-06 -0.0298454 0)
(-2.15306e-05 -0.0297964 0)
(1.69374e-05 -0.0298051 0)
(-4.36307e-06 -0.0297965 0)
(2.61531e-05 -0.0298101 0)
(-6.37637e-06 -0.0298452 0)
(-2.1461e-05 -0.0297965 0)
(1.67663e-05 -0.0298051 0)
(-4.30024e-06 -0.0297966 0)
(2.60291e-05 -0.0298101 0)
(-6.33302e-06 -0.0298451 0)
(-2.13902e-05 -0.0297966 0)
(1.65969e-05 -0.0298052 0)
(-4.23813e-06 -0.0297967 0)
(2.59048e-05 -0.0298101 0)
(-6.28986e-06 -0.0298449 0)
(-2.13182e-05 -0.0297967 0)
(1.64292e-05 -0.0298052 0)
(-4.17675e-06 -0.0297968 0)
(2.57799e-05 -0.0298101 0)
(-6.24687e-06 -0.0298448 0)
(-2.1245e-05 -0.0297968 0)
(1.62632e-05 -0.0298052 0)
(-4.11612e-06 -0.0297968 0)
(2.56546e-05 -0.0298101 0)
(-6.20404e-06 -0.0298446 0)
(-2.11706e-05 -0.0297968 0)
(1.60988e-05 -0.0298052 0)
(-4.05623e-06 -0.0297969 0)
(2.55287e-05 -0.0298101 0)
(-6.16134e-06 -0.0298444 0)
(-2.1095e-05 -0.0297969 0)
(1.5936e-05 -0.0298052 0)
(-3.99711e-06 -0.029797 0)
(2.54023e-05 -0.0298101 0)
(-6.11877e-06 -0.0298443 0)
(-2.10182e-05 -0.029797 0)
(1.57748e-05 -0.0298052 0)
(-3.93875e-06 -0.0297971 0)
(2.52753e-05 -0.0298101 0)
(-6.07631e-06 -0.0298441 0)
(-2.09401e-05 -0.0297971 0)
(1.56152e-05 -0.0298053 0)
(-3.88116e-06 -0.0297971 0)
(2.51477e-05 -0.0298101 0)
(-6.03395e-06 -0.029844 0)
(-2.08607e-05 -0.0297971 0)
(1.54572e-05 -0.0298053 0)
(-3.82433e-06 -0.0297972 0)
(2.50195e-05 -0.0298101 0)
(-5.99169e-06 -0.0298438 0)
(-2.07802e-05 -0.0297972 0)
(1.53007e-05 -0.0298053 0)
(-3.76827e-06 -0.0297973 0)
(2.48906e-05 -0.0298101 0)
(-5.94951e-06 -0.0298436 0)
(-2.06984e-05 -0.0297973 0)
(1.51458e-05 -0.0298053 0)
(-3.71298e-06 -0.0297973 0)
(2.47612e-05 -0.0298101 0)
(-5.90742e-06 -0.0298435 0)
(-2.06153e-05 -0.0297974 0)
(1.49924e-05 -0.0298053 0)
(-3.65846e-06 -0.0297974 0)
(2.46312e-05 -0.0298101 0)
(-5.8654e-06 -0.0298433 0)
(-2.0531e-05 -0.0297974 0)
(1.48405e-05 -0.0298054 0)
(-3.60469e-06 -0.0297975 0)
(2.45005e-05 -0.0298101 0)
(-5.82346e-06 -0.0298432 0)
(-2.04456e-05 -0.0297975 0)
(1.46901e-05 -0.0298054 0)
(-3.55169e-06 -0.0297976 0)
(2.43692e-05 -0.02981 0)
(-5.78158e-06 -0.029843 0)
(-2.03589e-05 -0.0297976 0)
(1.45412e-05 -0.0298054 0)
(-3.49944e-06 -0.0297976 0)
(2.42373e-05 -0.02981 0)
(-5.73977e-06 -0.0298428 0)
(-2.0271e-05 -0.0297976 0)
(1.43937e-05 -0.0298054 0)
(-3.44793e-06 -0.0297977 0)
(2.41048e-05 -0.02981 0)
(-5.69803e-06 -0.0298427 0)
(-2.0182e-05 -0.0297977 0)
(1.42477e-05 -0.0298054 0)
(-3.39717e-06 -0.0297978 0)
(2.39717e-05 -0.02981 0)
(-5.65634e-06 -0.0298425 0)
(-2.00918e-05 -0.0297978 0)
(1.41031e-05 -0.0298055 0)
(-3.34715e-06 -0.0297979 0)
(2.38381e-05 -0.02981 0)
(-5.61472e-06 -0.0298424 0)
(-2.00005e-05 -0.0297979 0)
(1.39599e-05 -0.0298055 0)
(-3.29785e-06 -0.0297979 0)
(2.37038e-05 -0.02981 0)
(-5.57316e-06 -0.0298422 0)
(-1.9908e-05 -0.0297979 0)
(1.38181e-05 -0.0298055 0)
(-3.24928e-06 -0.029798 0)
(2.35689e-05 -0.02981 0)
(-5.53165e-06 -0.0298421 0)
(-1.98145e-05 -0.029798 0)
(1.36777e-05 -0.0298055 0)
(-3.20142e-06 -0.0297981 0)
(2.34335e-05 -0.02981 0)
(-5.49021e-06 -0.0298419 0)
(-1.97198e-05 -0.0297981 0)
(1.35387e-05 -0.0298055 0)
(-3.15426e-06 -0.0297982 0)
(2.32976e-05 -0.02981 0)
(-5.44883e-06 -0.0298417 0)
(-1.96242e-05 -0.0297981 0)
(1.3401e-05 -0.0298056 0)
(-3.1078e-06 -0.0297982 0)
(2.31611e-05 -0.02981 0)
(-5.40751e-06 -0.0298416 0)
(-1.95274e-05 -0.0297982 0)
(1.32647e-05 -0.0298056 0)
(-3.06202e-06 -0.0297983 0)
(2.30241e-05 -0.02981 0)
(-5.36625e-06 -0.0298414 0)
(-1.94297e-05 -0.0297983 0)
(1.31296e-05 -0.0298056 0)
(-3.01693e-06 -0.0297984 0)
(2.28866e-05 -0.02981 0)
(-5.32505e-06 -0.0298413 0)
(-1.93309e-05 -0.0297983 0)
(1.29959e-05 -0.0298056 0)
(-2.9725e-06 -0.0297985 0)
(2.27485e-05 -0.0298099 0)
(-5.28391e-06 -0.0298411 0)
(-1.92312e-05 -0.0297984 0)
(1.28635e-05 -0.0298057 0)
(-2.92873e-06 -0.0297985 0)
(2.261e-05 -0.0298099 0)
(-5.24284e-06 -0.029841 0)
(-1.91306e-05 -0.0297985 0)
(1.27323e-05 -0.0298057 0)
(-2.88561e-06 -0.0297986 0)
(2.24711e-05 -0.0298099 0)
(-5.20184e-06 -0.0298408 0)
(-1.9029e-05 -0.0297985 0)
(1.26024e-05 -0.0298057 0)
(-2.84313e-06 -0.0297987 0)
(2.23317e-05 -0.0298099 0)
(-5.1609e-06 -0.0298407 0)
(-1.89265e-05 -0.0297986 0)
(1.24737e-05 -0.0298057 0)
(-2.80127e-06 -0.0297987 0)
(2.21918e-05 -0.0298099 0)
(-5.12002e-06 -0.0298405 0)
(-1.88231e-05 -0.0297987 0)
(1.23463e-05 -0.0298058 0)
(-2.76004e-06 -0.0297988 0)
(2.20515e-05 -0.0298099 0)
(-5.07922e-06 -0.0298403 0)
(-1.87188e-05 -0.0297987 0)
(1.222e-05 -0.0298058 0)
(-2.71941e-06 -0.0297989 0)
(2.19109e-05 -0.0298099 0)
(-5.03849e-06 -0.0298402 0)
(-1.86138e-05 -0.0297988 0)
(1.2095e-05 -0.0298058 0)
(-2.67938e-06 -0.029799 0)
(2.17698e-05 -0.0298099 0)
(-4.99783e-06 -0.02984 0)
(-1.85079e-05 -0.0297989 0)
(1.19711e-05 -0.0298058 0)
(-2.63994e-06 -0.029799 0)
(2.16284e-05 -0.0298099 0)
(-4.95724e-06 -0.0298399 0)
(-1.84012e-05 -0.0297989 0)
(1.18484e-05 -0.0298059 0)
(-2.60107e-06 -0.0297991 0)
(2.14866e-05 -0.0298099 0)
(-4.91673e-06 -0.0298397 0)
(-1.82937e-05 -0.029799 0)
(1.17268e-05 -0.0298059 0)
(-2.56277e-06 -0.0297992 0)
(2.13444e-05 -0.0298099 0)
(-4.87629e-06 -0.0298396 0)
(-1.81855e-05 -0.0297991 0)
(1.16063e-05 -0.0298059 0)
(-2.52502e-06 -0.0297993 0)
(2.1202e-05 -0.0298099 0)
(-4.83593e-06 -0.0298394 0)
(-1.80766e-05 -0.0297991 0)
(1.1487e-05 -0.0298059 0)
(-2.48782e-06 -0.0297993 0)
(2.10592e-05 -0.0298098 0)
(-4.79565e-06 -0.0298393 0)
(-1.7967e-05 -0.0297992 0)
(1.13687e-05 -0.029806 0)
(-2.45114e-06 -0.0297994 0)
(2.09162e-05 -0.0298098 0)
(-4.75545e-06 -0.0298391 0)
(-1.78567e-05 -0.0297993 0)
(1.12516e-05 -0.029806 0)
(-2.41499e-06 -0.0297995 0)
(2.07729e-05 -0.0298098 0)
(-4.71533e-06 -0.029839 0)
(-1.77458e-05 -0.0297993 0)
(1.11354e-05 -0.029806 0)
(-2.37934e-06 -0.0297995 0)
(2.06293e-05 -0.0298098 0)
(-4.6753e-06 -0.0298388 0)
(-1.76343e-05 -0.0297994 0)
(1.10204e-05 -0.029806 0)
(-2.3442e-06 -0.0297996 0)
(2.04855e-05 -0.0298098 0)
(-4.63535e-06 -0.0298387 0)
(-1.75221e-05 -0.0297994 0)
(1.09063e-05 -0.0298061 0)
(-2.30954e-06 -0.0297997 0)
(2.03415e-05 -0.0298098 0)
(-4.59548e-06 -0.0298385 0)
(-1.74094e-05 -0.0297995 0)
(1.07933e-05 -0.0298061 0)
(-2.27535e-06 -0.0297998 0)
(2.01972e-05 -0.0298098 0)
(-4.5557e-06 -0.0298384 0)
(-1.72961e-05 -0.0297996 0)
(1.06812e-05 -0.0298061 0)
(-2.24162e-06 -0.0297998 0)
(2.00528e-05 -0.0298098 0)
(-4.51601e-06 -0.0298382 0)
(-1.71823e-05 -0.0297996 0)
(1.05702e-05 -0.0298061 0)
(-2.20835e-06 -0.0297999 0)
(1.99083e-05 -0.0298098 0)
(-4.47641e-06 -0.0298381 0)
(-1.7068e-05 -0.0297997 0)
(1.04601e-05 -0.0298062 0)
(-2.17552e-06 -0.0298 0)
(1.97635e-05 -0.0298098 0)
(-4.43689e-06 -0.0298379 0)
(-1.69532e-05 -0.0297997 0)
(1.03509e-05 -0.0298062 0)
(-2.14311e-06 -0.0298 0)
(1.96187e-05 -0.0298098 0)
(-4.39747e-06 -0.0298378 0)
(-1.68379e-05 -0.0297998 0)
(1.02427e-05 -0.0298062 0)
(-2.11112e-06 -0.0298001 0)
(1.94737e-05 -0.0298097 0)
(-4.35814e-06 -0.0298376 0)
(-1.67222e-05 -0.0297999 0)
(1.01353e-05 -0.0298062 0)
(-2.07953e-06 -0.0298002 0)
(1.93287e-05 -0.0298097 0)
(-4.31891e-06 -0.0298375 0)
(-1.66061e-05 -0.0297999 0)
(1.00289e-05 -0.0298063 0)
(-2.04834e-06 -0.0298002 0)
(1.91835e-05 -0.0298097 0)
(-4.27977e-06 -0.0298374 0)
(-1.64896e-05 -0.0298 0)
(9.92335e-06 -0.0298063 0)
(-2.01752e-06 -0.0298003 0)
(1.90383e-05 -0.0298097 0)
(-4.24073e-06 -0.0298372 0)
(-1.63728e-05 -0.0298 0)
(9.81865e-06 -0.0298063 0)
(-1.98708e-06 -0.0298004 0)
(1.88931e-05 -0.0298097 0)
(-4.20178e-06 -0.0298371 0)
(-1.62556e-05 -0.0298001 0)
(9.71479e-06 -0.0298063 0)
(-1.95698e-06 -0.0298005 0)
(1.87478e-05 -0.0298097 0)
(-4.16293e-06 -0.0298369 0)
(-1.61381e-05 -0.0298001 0)
(9.61175e-06 -0.0298064 0)
(-1.92723e-06 -0.0298005 0)
(1.86026e-05 -0.0298097 0)
(-4.12418e-06 -0.0298368 0)
(-1.60203e-05 -0.0298002 0)
(9.50951e-06 -0.0298064 0)
(-1.89781e-06 -0.0298006 0)
(1.84574e-05 -0.0298097 0)
(-4.08552e-06 -0.0298366 0)
(-1.59023e-05 -0.0298003 0)
(9.40807e-06 -0.0298064 0)
(-1.86871e-06 -0.0298007 0)
(1.83121e-05 -0.0298097 0)
(-4.04697e-06 -0.0298365 0)
(-1.5784e-05 -0.0298003 0)
(9.3074e-06 -0.0298065 0)
(-1.83992e-06 -0.0298007 0)
(1.8167e-05 -0.0298097 0)
(-4.00852e-06 -0.0298364 0)
(-1.56655e-05 -0.0298004 0)
(9.20748e-06 -0.0298065 0)
(-1.81141e-06 -0.0298008 0)
(1.80219e-05 -0.0298097 0)
(-3.97017e-06 -0.0298362 0)
(-1.55468e-05 -0.0298004 0)
(9.10829e-06 -0.0298065 0)
(-1.78319e-06 -0.0298009 0)
(1.78769e-05 -0.0298096 0)
(-3.93193e-06 -0.0298361 0)
(-1.54279e-05 -0.0298005 0)
(9.00982e-06 -0.0298065 0)
(-1.75523e-06 -0.0298009 0)
(1.77321e-05 -0.0298096 0)
(-3.89379e-06 -0.0298359 0)
(-1.53089e-05 -0.0298005 0)
(8.91206e-06 -0.0298066 0)
(-1.72753e-06 -0.029801 0)
(1.75873e-05 -0.0298096 0)
(-3.85575e-06 -0.0298358 0)
(-1.51898e-05 -0.0298006 0)
(8.81497e-06 -0.0298066 0)
(-1.70007e-06 -0.0298011 0)
(1.74427e-05 -0.0298096 0)
(-3.81781e-06 -0.0298357 0)
(-1.50706e-05 -0.0298006 0)
(8.71855e-06 -0.0298066 0)
(-1.67283e-06 -0.0298011 0)
(1.72983e-05 -0.0298096 0)
(-3.77998e-06 -0.0298355 0)
(-1.49513e-05 -0.0298007 0)
(8.62277e-06 -0.0298066 0)
(-1.64581e-06 -0.0298012 0)
(1.71541e-05 -0.0298096 0)
(-3.74226e-06 -0.0298354 0)
(-1.4832e-05 -0.0298007 0)
(8.52763e-06 -0.0298067 0)
(-1.61899e-06 -0.0298013 0)
(1.701e-05 -0.0298096 0)
(-3.70465e-06 -0.0298352 0)
(-1.47127e-05 -0.0298008 0)
(8.43309e-06 -0.0298067 0)
(-1.59236e-06 -0.0298013 0)
(1.68663e-05 -0.0298096 0)
(-3.66714e-06 -0.0298351 0)
(-1.45933e-05 -0.0298008 0)
(8.33914e-06 -0.0298067 0)
(-1.5659e-06 -0.0298014 0)
(1.67227e-05 -0.0298096 0)
(-3.62974e-06 -0.029835 0)
(-1.4474e-05 -0.0298009 0)
(8.24577e-06 -0.0298068 0)
(-1.53961e-06 -0.0298015 0)
(1.65795e-05 -0.0298096 0)
(-3.59245e-06 -0.0298348 0)
(-1.43548e-05 -0.0298009 0)
(8.15295e-06 -0.0298068 0)
(-1.51346e-06 -0.0298015 0)
(1.64365e-05 -0.0298096 0)
(-3.55526e-06 -0.0298347 0)
(-1.42356e-05 -0.029801 0)
(8.06067e-06 -0.0298068 0)
(-1.48744e-06 -0.0298016 0)
(1.62938e-05 -0.0298095 0)
(-3.51819e-06 -0.0298346 0)
(-1.41166e-05 -0.0298011 0)
(7.9689e-06 -0.0298068 0)
(-1.46154e-06 -0.0298017 0)
(1.61515e-05 -0.0298095 0)
(-3.48123e-06 -0.0298344 0)
(-1.39977e-05 -0.0298011 0)
(7.87764e-06 -0.0298069 0)
(-1.43574e-06 -0.0298017 0)
(1.60096e-05 -0.0298095 0)
(-3.44438e-06 -0.0298343 0)
(-1.3879e-05 -0.0298011 0)
(7.78685e-06 -0.0298069 0)
(-1.41004e-06 -0.0298018 0)
(1.5868e-05 -0.0298095 0)
(-3.40764e-06 -0.0298342 0)
(-1.37604e-05 -0.0298012 0)
(7.69653e-06 -0.0298069 0)
(-1.38441e-06 -0.0298018 0)
(1.57268e-05 -0.0298095 0)
(-3.37101e-06 -0.029834 0)
(-1.36421e-05 -0.0298012 0)
(7.60664e-06 -0.0298069 0)
(-1.35884e-06 -0.0298019 0)
(1.55861e-05 -0.0298095 0)
(-3.3345e-06 -0.0298339 0)
(-1.3524e-05 -0.0298013 0)
(7.51718e-06 -0.029807 0)
(-1.33332e-06 -0.029802 0)
(1.54458e-05 -0.0298095 0)
(-3.2981e-06 -0.0298338 0)
(-1.34062e-05 -0.0298013 0)
(7.42812e-06 -0.029807 0)
(-1.30783e-06 -0.029802 0)
(1.5306e-05 -0.0298095 0)
(-3.26181e-06 -0.0298337 0)
(-1.32887e-05 -0.0298014 0)
(7.33945e-06 -0.029807 0)
(-1.28236e-06 -0.0298021 0)
(1.51667e-05 -0.0298095 0)
(-3.22564e-06 -0.0298335 0)
(-1.31716e-05 -0.0298014 0)
(7.25114e-06 -0.029807 0)
(-1.25689e-06 -0.0298022 0)
(1.50279e-05 -0.0298095 0)
(-3.18958e-06 -0.0298334 0)
(-1.30548e-05 -0.0298015 0)
(7.16317e-06 -0.0298071 0)
(-1.23141e-06 -0.0298022 0)
(1.48896e-05 -0.0298095 0)
(-3.15364e-06 -0.0298333 0)
(-1.29384e-05 -0.0298015 0)
(7.07553e-06 -0.0298071 0)
(-1.2059e-06 -0.0298023 0)
(1.4752e-05 -0.0298094 0)
(-3.11781e-06 -0.0298332 0)
(-1.28224e-05 -0.0298016 0)
(6.98819e-06 -0.0298071 0)
(-1.18034e-06 -0.0298023 0)
(1.46149e-05 -0.0298094 0)
(-3.0821e-06 -0.029833 0)
(-1.27068e-05 -0.0298016 0)
(6.90114e-06 -0.0298072 0)
(-1.15473e-06 -0.0298024 0)
(1.44785e-05 -0.0298094 0)
(-3.0465e-06 -0.0298329 0)
(-1.25918e-05 -0.0298017 0)
(6.81436e-06 -0.0298072 0)
(-1.12904e-06 -0.0298025 0)
(1.43427e-05 -0.0298094 0)
(-3.01102e-06 -0.0298328 0)
(-1.24773e-05 -0.0298017 0)
(6.72782e-06 -0.0298072 0)
(-1.10326e-06 -0.0298025 0)
(1.42077e-05 -0.0298094 0)
(-2.97566e-06 -0.0298327 0)
(-1.23633e-05 -0.0298018 0)
(6.6415e-06 -0.0298072 0)
(-1.07738e-06 -0.0298026 0)
(1.40733e-05 -0.0298094 0)
(-2.94042e-06 -0.0298325 0)
(-1.22499e-05 -0.0298018 0)
(6.55539e-06 -0.0298073 0)
(-1.05137e-06 -0.0298026 0)
(1.39397e-05 -0.0298094 0)
(-2.9053e-06 -0.0298324 0)
(-1.21371e-05 -0.0298018 0)
(6.46946e-06 -0.0298073 0)
(-1.02523e-06 -0.0298027 0)
(1.38068e-05 -0.0298094 0)
(-2.87029e-06 -0.0298323 0)
(-1.2025e-05 -0.0298019 0)
(6.3837e-06 -0.0298073 0)
(-9.98934e-07 -0.0298028 0)
(1.36748e-05 -0.0298094 0)
(-2.83541e-06 -0.0298322 0)
(-1.19135e-05 -0.0298019 0)
(6.29808e-06 -0.0298073 0)
(-9.72468e-07 -0.0298028 0)
(1.35436e-05 -0.0298094 0)
(-2.80064e-06 -0.0298321 0)
(-1.18028e-05 -0.029802 0)
(6.21259e-06 -0.0298074 0)
(-9.45818e-07 -0.0298029 0)
(1.34132e-05 -0.0298094 0)
(-2.766e-06 -0.0298319 0)
(-1.16928e-05 -0.029802 0)
(6.1272e-06 -0.0298074 0)
(-9.18966e-07 -0.0298029 0)
(1.32838e-05 -0.0298094 0)
(-2.73147e-06 -0.0298318 0)
(-1.15836e-05 -0.0298021 0)
(6.0419e-06 -0.0298074 0)
(-8.91898e-07 -0.029803 0)
(1.31553e-05 -0.0298093 0)
(-2.69707e-06 -0.0298317 0)
(-1.14752e-05 -0.0298021 0)
(5.95666e-06 -0.0298074 0)
(-8.64598e-07 -0.0298031 0)
(1.30277e-05 -0.0298093 0)
(-2.66279e-06 -0.0298316 0)
(-1.13677e-05 -0.0298021 0)
(5.87147e-06 -0.0298075 0)
(-8.3705e-07 -0.0298031 0)
(1.29012e-05 -0.0298093 0)
(-2.62864e-06 -0.0298315 0)
(-1.12612e-05 -0.0298022 0)
(5.7863e-06 -0.0298075 0)
(-8.09239e-07 -0.0298032 0)
(1.27757e-05 -0.0298093 0)
(-2.59462e-06 -0.0298314 0)
(-1.11555e-05 -0.0298022 0)
(5.70115e-06 -0.0298075 0)
(-7.81151e-07 -0.0298032 0)
(1.26513e-05 -0.0298093 0)
(-2.56072e-06 -0.0298312 0)
(-1.10509e-05 -0.0298023 0)
(5.61598e-06 -0.0298075 0)
(-7.5277e-07 -0.0298033 0)
(1.2528e-05 -0.0298093 0)
(-2.52695e-06 -0.0298311 0)
(-1.09473e-05 -0.0298023 0)
(5.53079e-06 -0.0298076 0)
(-7.24083e-07 -0.0298033 0)
(1.24059e-05 -0.0298093 0)
(-2.49331e-06 -0.029831 0)
(-1.08447e-05 -0.0298023 0)
(5.44556e-06 -0.0298076 0)
(-6.95076e-07 -0.0298034 0)
(1.2285e-05 -0.0298093 0)
(-2.45981e-06 -0.0298309 0)
(-1.07433e-05 -0.0298024 0)
(5.36027e-06 -0.0298076 0)
(-6.65737e-07 -0.0298035 0)
(1.21653e-05 -0.0298093 0)
(-2.42644e-06 -0.0298308 0)
(-1.0643e-05 -0.0298024 0)
(5.27491e-06 -0.0298077 0)
(-6.36052e-07 -0.0298035 0)
(1.20469e-05 -0.0298093 0)
(-2.39321e-06 -0.0298307 0)
(-1.0544e-05 -0.0298025 0)
(5.18946e-06 -0.0298077 0)
(-6.06012e-07 -0.0298036 0)
(1.19298e-05 -0.0298093 0)
(-2.36012e-06 -0.0298306 0)
(-1.04462e-05 -0.0298025 0)
(5.10391e-06 -0.0298077 0)
(-5.75604e-07 -0.0298036 0)
(1.18141e-05 -0.0298092 0)
(-2.32717e-06 -0.0298305 0)
(-1.03497e-05 -0.0298025 0)
(5.01825e-06 -0.0298077 0)
(-5.44821e-07 -0.0298037 0)
(1.16998e-05 -0.0298092 0)
(-2.29437e-06 -0.0298303 0)
(-1.02545e-05 -0.0298026 0)
(4.93247e-06 -0.0298078 0)
(-5.13654e-07 -0.0298037 0)
(1.15869e-05 -0.0298092 0)
(-2.26172e-06 -0.0298302 0)