/*--------------------------------*- C++ -*----------------------------------*\
| =========                 |                                                 |
| \\      /  F ield         | OpenFOAM: The Open Source CFD Toolbox           |
|  \\    /   O peration     | Version:  2.4.0                                 |
|   \\  /    A nd           | Web:      www.OpenFOAM.org                      |
|    \\/     M anipulation  |                                                 |
\*---------------------------------------------------------------------------*/
FoamFile
{
    version     2.0;
    format      ascii;
    class       volScalarField;
    location    "4.9";
    object      H;
}
// * * * * * * * * * * * * * * * * * * * * * * * * * * * * * * * * * * * * * //

dimensions      [0 2 -2 0 0 0 0];

internalField   nonuniform List<scalar> 
500
(
-12017
-12017
-12017
-12017
-12017
-11588.6
-11588.6
-11588.6
-11588.6
-11588.6
-11155.4
-11155.4
-11155.4
-11155.4
-11155.4
-10717.4
-10717.4
-10717.4
-10717.4
-10717.4
-10274.4
-10274.5
-10274.5
-10274.5
-10274.4
-9826.52
-9826.64
-9826.57
-9826.63
-9826.53
-9373.61
-9373.73
-9373.64
-9373.72
-9373.61
-8915.6
-8915.72
-8915.61
-8915.72
-8915.6
-8452.44
-8452.56
-8452.41
-8452.55
-8452.44
-7984.04
-7984.16
-7983.96
-7984.15
-7984.05
-7510.35
-7510.44
-7510.2
-7510.43
-7510.35
-7031.26
-7031.33
-7031.03
-7031.32
-7031.27
-6546.71
-6546.73
-6546.36
-6546.72
-6546.71
-6056.59
-6056.56
-6056.12
-6056.55
-6056.6
-5560.82
-5560.72
-5560.19
-5560.71
-5560.82
-5059.28
-5059.11
-5058.47
-5059.09
-5059.28
-4551.86
-4551.6
-4550.85
-4551.59
-4551.86
-4038.46
-4038.09
-4037.21
-4038.08
-4038.46
-3518.94
-3518.45
-3517.43
-3518.43
-3518.94
-2993.18
-2992.55
-2991.38
-2992.53
-2993.17
-2461.03
-2460.25
-2458.91
-2460.22
-2461.02
-1922.35
-1921.4
-1919.88
-1921.37
-1922.34
-1376.99
-1375.86
-1374.14
-1375.82
-1376.98
-824.787
-823.464
-821.535
-823.411
-824.786
-32.9447
-32.612
-32.1822
-32.5985
-32.9459
-24.9027
-24.6512
-24.3272
-24.6412
-24.9037
-25.1084
-24.862
-24.5457
-24.8525
-25.1093
-25.305
-25.0638
-24.7551
-25.0548
-25.3059
-25.4921
-25.2562
-24.9551
-25.2477
-25.493
-25.6694
-25.4388
-25.1452
-25.4308
-25.6702
-25.8364
-25.6112
-25.3251
-25.6037
-25.8372
-25.9928
-25.7729
-25.4943
-25.7659
-25.9936
-26.1381
-25.9237
-25.6525
-25.9172
-26.1389
-26.2719
-26.0631
-25.7992
-26.057
-26.2727
-26.3939
-26.1906
-25.9341
-26.1849
-26.3947
-26.5036
-26.3059
-26.0566
-26.3006
-26.5044
-26.6006
-26.4085
-26.1665
-26.4037
-26.6014
-26.6845
-26.4981
-26.2633
-26.4937
-26.6853
-26.755
-26.5743
-26.3465
-26.5703
-26.7558
-26.8116
-26.6367
-26.4159
-26.633
-26.8125
-26.854
-26.6848
-26.4711
-26.6815
-26.8549
-26.8818
-26.7183
-26.5115
-26.7154
-26.8827
-26.8945
-26.7369
-26.5369
-26.7343
-26.8955
-26.892
-26.7401
-26.547
-26.7378
-26.8929
-26.8737
-26.7277
-26.5412
-26.7256
-26.8747
-26.8394
-26.6992
-26.5194
-26.6974
-26.8404
-26.7887
-26.6543
-26.4811
-26.6528
-26.7898
-26.7214
-26.5927
-26.426
-26.5915
-26.7225
-26.637
-26.5141
-26.3538
-26.5131
-26.6382
-26.5354
-26.4182
-26.2643
-26.4175
-26.5367
-26.4163
-26.3047
-26.1571
-26.3042
-26.4176
-26.2794
-26.1734
-26.0319
-26.1732
-26.2807
-26.1244
-26.024
-25.8886
-26.024
-26.1257
-25.9512
-25.8564
-25.7269
-25.8565
-25.9526
-25.7596
-25.6702
-25.5467
-25.6705
-25.761
-25.5494
-25.4654
-25.3476
-25.4659
-25.5508
-25.3204
-25.2417
-25.1296
-25.2424
-25.3219
-25.0726
-24.9991
-24.8926
-24.9999
-25.0741
-24.8058
-24.7375
-24.6364
-24.7384
-24.8074
-24.52
-24.4567
-24.361
-24.4577
-24.5216
-24.2151
-24.1567
-24.0662
-24.1578
-24.2167
-23.8911
-23.8375
-23.7521
-23.8388
-23.8928
-23.548
-23.4992
-23.4188
-23.5005
-23.5498
-23.186
-23.1417
-23.0661
-23.143
-23.1877
-22.805
-22.765
-22.6942
-22.7665
-22.8067
-22.4051
-22.3695
-22.3031
-22.371
-22.4069
-21.9865
-21.955
-21.8931
-21.9566
-21.9883
-21.5494
-21.5219
-21.4643
-21.5235
-21.5512
-21.094
-21.0702
-21.0168
-21.0719
-21.0958
-20.6205
-20.6003
-20.5508
-20.602
-20.6223
-20.1291
-20.1124
-20.0668
-20.1141
-20.131
-19.6203
-19.6068
-19.5648
-19.6085
-19.6221
-19.0942
-19.0838
-19.0453
-19.0855
-19.096
-18.5513
-18.5438
-18.5086
-18.5454
-18.5531
-17.992
-17.9871
-17.9552
-17.9888
-17.9937
-17.4166
-17.4143
-17.3853
-17.4159
-17.4184
-16.8258
-16.8257
-16.7996
-16.8272
-16.8275
-16.2198
-16.2218
-16.1984
-16.2233
-16.2215
-15.5993
-15.6031
-15.5823
-15.6046
-15.601
-14.9648
-14.9703
-14.9518
-14.9717
-14.9664
-14.3169
-14.3238
-14.3075
-14.3252
-14.3185
-13.6562
-13.6643
-13.65
-13.6656
-13.6577
-12.9832
-12.9923
-12.9799
-12.9936
-12.9846
-12.2987
-12.3086
-12.2979
-12.3098
-12.3001
-11.6033
-11.6138
-11.6047
-11.615
-11.6046
-10.8977
-10.9086
-10.9009
-10.9097
-10.8989
-10.1826
-10.1937
-10.1873
-10.1948
-10.1838
-9.45876
-9.46991
-9.46459
-9.47089
-9.45988
-8.72694
-8.73794
-8.7336
-8.73885
-8.72799
-7.98791
-7.99858
-7.9951
-7.99942
-7.98888
-7.24246
-7.25263
-7.24989
-7.2534
-7.24334
-6.49139
-6.50093
-6.49881
-6.50162
-6.49219
-5.73554
-5.74431
-5.7427
-5.74491
-5.73625
-4.97577
-4.98362
-4.98243
-4.98415
-4.97638
-4.21292
-4.21976
-4.21891
-4.22021
-4.21345
-3.4479
-3.45363
-3.45303
-3.454
-3.44833
-2.6816
-2.68614
-2.68575
-2.68643
-2.68194
-1.91497
-1.91826
-1.91801
-1.91847
-1.91521
-1.14896
-1.15095
-1.15081
-1.15107
-1.1491
-0.38454
-0.385209
-0.385167
-0.385251
-0.384589
)
;

boundaryField
{
    BotWall
    {
        type            zeroGradient;
    }
    FreeStream
    {
        type            zeroGradient;
    }
    FrontNBack
    {
        type            empty;
    }
    LeftSide
    {
        type            symmetryPlane;
    }
    RightSide
    {
        type            symmetryPlane;
    }
}


// ************************************************************************* //
