/*--------------------------------*- C++ -*----------------------------------*\
| =========                 |                                                 |
| \\      /  F ield         | OpenFOAM: The Open Source CFD Toolbox           |
|  \\    /   O peration     | Version:  2.4.0                                 |
|   \\  /    A nd           | Web:      www.OpenFOAM.org                      |
|    \\/     M anipulation  |                                                 |
\*---------------------------------------------------------------------------*/
FoamFile
{
    version     2.0;
    format      ascii;
    class       volScalarField;
    location    "4.9";
    object      p;
}
// * * * * * * * * * * * * * * * * * * * * * * * * * * * * * * * * * * * * * //

dimensions      [1 -1 -2 0 0 0 0];

internalField   nonuniform List<scalar> 
500
(
0.791256
0.79291
0.79378
0.792127
0.791236
0.761426
0.763085
0.763962
0.762304
0.761404
0.731286
0.732953
0.733838
0.732173
0.731263
0.700796
0.702471
0.703366
0.701694
0.700772
0.669981
0.671665
0.672571
0.670891
0.669957
0.638806
0.640499
0.641415
0.639727
0.638781
0.6073
0.609003
0.609929
0.608233
0.607274
0.575425
0.577137
0.578075
0.57637
0.575399
0.543212
0.544935
0.545884
0.54417
0.543185
0.51062
0.512354
0.513315
0.511591
0.510593
0.477683
0.479429
0.480401
0.478667
0.477655
0.444353
0.44611
0.447095
0.445351
0.444325
0.410674
0.412444
0.413442
0.411686
0.410646
0.376629
0.378412
0.379423
0.377656
0.3766
0.342328
0.344126
0.345152
0.343372
0.342299
0.307604
0.309418
0.310459
0.308665
0.307575
0.271649
0.273476
0.274523
0.272723
0.27162
0.232796
0.234609
0.235639
0.233893
0.232766
0.193859
0.195705
0.196639
0.194932
0.193831
0.176693
0.178657
0.17975
0.178004
0.176671
0.221489
0.224325
0.226345
0.223496
0.221466
0.257905
0.261842
0.264964
0.261201
0.257861
-0.277963
-0.276392
-0.276995
-0.277157
-0.27804
-2.34
-2.35462
-2.37622
-2.35531
-2.34005
-4.46183
-4.50366
-4.55748
-4.50546
-4.46162
-0.0182386
-0.0182364
-0.0182329
-0.0182363
-0.0182386
-0.0138085
-0.0138105
-0.013813
-0.0138105
-0.0138085
-0.0152919
-0.015292
-0.0152923
-0.015292
-0.0152919
-0.0163662
-0.016366
-0.0163658
-0.016366
-0.0163662
-0.0170917
-0.0170916
-0.0170915
-0.0170916
-0.0170917
-0.0177432
-0.0177431
-0.0177431
-0.0177431
-0.0177432
-0.0184164
-0.0184163
-0.0184163
-0.0184163
-0.0184164
-0.0191109
-0.0191109
-0.0191108
-0.0191109
-0.0191109
-0.0198163
-0.0198162
-0.0198162
-0.0198162
-0.0198163
-0.0205289
-0.0205289
-0.0205288
-0.0205288
-0.0205289
-0.0212489
-0.0212489
-0.0212489
-0.0212489
-0.0212489
-0.0219769
-0.0219769
-0.0219768
-0.0219769
-0.0219769
-0.022713
-0.022713
-0.0227129
-0.022713
-0.022713
-0.0234573
-0.0234573
-0.0234573
-0.0234573
-0.0234573
-0.02421
-0.02421
-0.0242099
-0.02421
-0.02421
-0.024971
-0.024971
-0.024971
-0.024971
-0.024971
-0.0257406
-0.0257405
-0.0257405
-0.0257405
-0.0257406
-0.0265187
-0.0265187
-0.0265186
-0.0265187
-0.0265187
-0.0273055
-0.0273055
-0.0273055
-0.0273055
-0.0273055
-0.0281011
-0.0281011
-0.028101
-0.0281011
-0.0281011
-0.0289056
-0.0289055
-0.0289055
-0.0289055
-0.0289056
-0.029719
-0.029719
-0.029719
-0.029719
-0.029719
-0.0305415
-0.0305415
-0.0305415
-0.0305415
-0.0305416
-0.0313733
-0.0313732
-0.0313732
-0.0313732
-0.0313733
-0.0322142
-0.0322142
-0.0322142
-0.0322142
-0.0322142
-0.0330646
-0.0330646
-0.0330645
-0.0330646
-0.0330646
-0.0339245
-0.0339244
-0.0339244
-0.0339244
-0.0339245
-0.0347939
-0.0347939
-0.0347939
-0.0347939
-0.0347939
-0.0356731
-0.035673
-0.035673
-0.035673
-0.0356731
-0.036562
-0.036562
-0.036562
-0.036562
-0.036562
-0.0374609
-0.0374609
-0.0374609
-0.0374609
-0.0374609
-0.0383698
-0.0383698
-0.0383698
-0.0383698
-0.0383698
-0.0392889
-0.0392889
-0.0392888
-0.0392888
-0.0392889
-0.0402182
-0.0402182
-0.0402181
-0.0402182
-0.0402182
-0.0411579
-0.0411578
-0.0411578
-0.0411578
-0.0411579
-0.042108
-0.042108
-0.042108
-0.042108
-0.042108
-0.0430688
-0.0430688
-0.0430688
-0.0430688
-0.0430688
-0.0440403
-0.0440403
-0.0440403
-0.0440403
-0.0440403
-0.0450226
-0.0450226
-0.0450226
-0.0450226
-0.0450226
-0.0460159
-0.0460159
-0.0460159
-0.0460159
-0.0460159
-0.0470203
-0.0470203
-0.0470203
-0.0470203
-0.0470203
-0.0480359
-0.0480359
-0.0480359
-0.0480359
-0.0480359
-0.0490628
-0.0490628
-0.0490628
-0.0490628
-0.0490628
-0.0501012
-0.0501012
-0.0501012
-0.0501012
-0.0501012
-0.0511512
-0.0511511
-0.0511511
-0.0511511
-0.0511512
-0.0522128
-0.0522128
-0.0522128
-0.0522128
-0.0522128
-0.0532864
-0.0532864
-0.0532863
-0.0532864
-0.0532864
-0.0543719
-0.0543719
-0.0543718
-0.0543719
-0.0543719
-0.0554695
-0.0554695
-0.0554695
-0.0554695
-0.0554695
-0.0565794
-0.0565794
-0.0565793
-0.0565794
-0.0565794
-0.0577016
-0.0577016
-0.0577016
-0.0577016
-0.0577016
-0.0588364
-0.0588364
-0.0588364
-0.0588364
-0.0588364
-0.0599838
-0.0599838
-0.0599838
-0.0599838
-0.0599838
-0.0611441
-0.0611441
-0.0611441
-0.0611441
-0.0611441
-0.0623173
-0.0623173
-0.0623173
-0.0623173
-0.0623173
-0.0635036
-0.0635036
-0.0635035
-0.0635036
-0.0635036
-0.0647031
-0.0647031
-0.0647031
-0.0647031
-0.0647031
-0.065916
-0.065916
-0.065916
-0.065916
-0.065916
-0.0671424
-0.0671424
-0.0671424
-0.0671424
-0.0671424
-0.0683826
-0.0683826
-0.0683825
-0.0683826
-0.0683826
-0.0696365
-0.0696365
-0.0696365
-0.0696365
-0.0696365
-0.0709045
-0.0709045
-0.0709045
-0.0709045
-0.0709045
-0.0721866
-0.0721866
-0.0721866
-0.0721866
-0.0721866
-0.073483
-0.073483
-0.073483
-0.073483
-0.073483
-0.0747939
-0.0747939
-0.0747939
-0.0747939
-0.0747939
-0.0761194
-0.0761194
-0.0761194
-0.0761194
-0.0761194
-0.0774597
-0.0774597
-0.0774597
-0.0774597
-0.0774597
-0.078815
-0.078815
-0.0788149
-0.0788149
-0.078815
-0.0801853
-0.0801853
-0.0801853
-0.0801853
-0.0801853
-0.081571
-0.081571
-0.081571
-0.081571
-0.081571
-0.0829721
-0.0829721
-0.0829721
-0.0829721
-0.0829721
-0.0843889
-0.0843889
-0.0843889
-0.0843889
-0.0843889
-0.0858215
-0.0858215
-0.0858215
-0.0858215
-0.0858215
-0.0872701
-0.0872701
-0.0872701
-0.0872701
-0.0872701
-0.0887348
-0.0887348
-0.0887348
-0.0887348
-0.0887348
)
;

boundaryField
{
    BotWall
    {
        type            calculated;
        value           nonuniform List<scalar> 5(0.806076 0.80773 0.8086 0.806947 0.806056);
    }
    FreeStream
    {
        type            calculated;
        value           nonuniform List<scalar> 5(-0.0894712 -0.0894712 -0.0894712 -0.0894712 -0.0894712);
    }
    FrontNBack
    {
        type            empty;
    }
    LeftSide
    {
        type            symmetryPlane;
    }
    RightSide
    {
        type            symmetryPlane;
    }
}


// ************************************************************************* //
