/*--------------------------------*- C++ -*----------------------------------*\
| =========                 |                                                 |
| \\      /  F ield         | OpenFOAM: The Open Source CFD Toolbox           |
|  \\    /   O peration     | Version:  2.4.0                                 |
|   \\  /    A nd           | Web:      www.OpenFOAM.org                      |
|    \\/     M anipulation  |                                                 |
\*---------------------------------------------------------------------------*/
FoamFile
{
    version     2.0;
    format      ascii;
    class       volScalarField;
    location    "4.9";
    object      p_rgh;
}
// * * * * * * * * * * * * * * * * * * * * * * * * * * * * * * * * * * * * * //

dimensions      [1 -1 -2 0 0 0 0];

internalField   nonuniform List<scalar> 
500
(
0.806076
0.80773
0.8086
0.806947
0.806056
0.806052
0.807712
0.808588
0.80693
0.80603
0.806051
0.807718
0.808603
0.806938
0.806028
0.806035
0.807711
0.808606
0.806934
0.806012
0.806036
0.80772
0.808626
0.806946
0.806011
0.80602
0.807713
0.808629
0.806941
0.805995
0.80602
0.807723
0.80865
0.806953
0.805995
0.806003
0.807715
0.808653
0.806948
0.805977
0.806003
0.807727
0.808676
0.806961
0.805977
0.805985
0.807719
0.80868
0.806956
0.805958
0.805984
0.80773
0.808703
0.806969
0.805957
0.805958
0.807716
0.808701
0.806957
0.805931
0.805955
0.807725
0.808723
0.806968
0.805927
0.805962
0.807745
0.808756
0.806989
0.805933
0.806092
0.80789
0.808916
0.807136
0.806064
0.806184
0.807998
0.809039
0.807245
0.806155
0.805433
0.80726
0.808307
0.806507
0.805404
0.802177
0.80399
0.80502
0.803274
0.802147
0.799235
0.80108
0.802015
0.800307
0.799207
0.818464
0.820428
0.821521
0.819776
0.818443
0.900062
0.902898
0.904918
0.902069
0.90004
0.973691
0.977628
0.98075
0.976987
0.973647
0.475452
0.477021
0.476419
0.476257
0.475374
-1.54853
-1.56316
-1.58476
-1.56385
-1.54859
-4.22644
-4.26574
-4.31628
-4.26743
-4.22624
-0.00384741
-0.00384516
-0.00384173
-0.00384509
-0.0038474
0.0012342
0.00123227
0.00122972
0.00123221
0.0012342
0.000409705
0.000409575
0.000409287
0.000409569
0.000409705
1.52767e-06
1.73758e-06
1.95274e-06
1.74525e-06
1.52661e-06
-5.03653e-05
-5.02539e-05
-5.01228e-05
-5.02478e-05
-5.03665e-05
-2.06937e-05
-2.06469e-05
-2.05959e-05
-2.06429e-05
-2.06949e-05
-5.16947e-06
-5.13029e-06
-5.09652e-06
-5.12682e-06
-5.17055e-06
-3.31492e-06
-3.27094e-06
-3.23431e-06
-3.26747e-06
-3.31597e-06
-4.48692e-06
-4.44132e-06
-4.40231e-06
-4.43784e-06
-4.48794e-06
-5.0912e-06
-5.04647e-06
-5.00757e-06
-5.04303e-06
-5.09218e-06
-5.15096e-06
-5.10745e-06
-5.06945e-06
-5.10408e-06
-5.15192e-06
-5.09169e-06
-5.04919e-06
-5.01206e-06
-5.04588e-06
-5.09262e-06
-5.05537e-06
-5.01376e-06
-4.97739e-06
-5.01052e-06
-5.05627e-06
-5.04063e-06
-4.9999e-06
-4.96426e-06
-4.99672e-06
-5.0415e-06
-5.03046e-06
-4.9906e-06
-4.95568e-06
-4.98749e-06
-5.0313e-06
-5.01922e-06
-4.98023e-06
-4.94604e-06
-4.97718e-06
-5.02003e-06
-5.00698e-06
-4.96886e-06
-4.93539e-06
-4.96588e-06
-5.00778e-06
-4.99444e-06
-4.95718e-06
-4.92442e-06
-4.95425e-06
-4.99521e-06
-4.98181e-06
-4.94539e-06
-4.91334e-06
-4.94253e-06
-4.98255e-06
-4.96908e-06
-4.9335e-06
-4.90215e-06
-4.9307e-06
-4.9698e-06
-4.95623e-06
-4.92148e-06
-4.89082e-06
-4.91874e-06
-4.95693e-06
-4.94325e-06
-4.90932e-06
-4.87935e-06
-4.90664e-06
-4.94392e-06
-4.93013e-06
-4.89701e-06
-4.86772e-06
-4.89439e-06
-4.93078e-06
-4.91687e-06
-4.88456e-06
-4.85595e-06
-4.882e-06
-4.9175e-06
-4.90348e-06
-4.87196e-06
-4.84402e-06
-4.86946e-06
-4.90409e-06
-4.88996e-06
-4.85922e-06
-4.83195e-06
-4.85678e-06
-4.89054e-06
-4.87629e-06
-4.84633e-06
-4.81972e-06
-4.84395e-06
-4.87685e-06
-4.86248e-06
-4.8333e-06
-4.80733e-06
-4.83096e-06
-4.86302e-06
-4.84853e-06
-4.82011e-06
-4.79479e-06
-4.81783e-06
-4.84905e-06
-4.83444e-06
-4.80677e-06
-4.78209e-06
-4.80455e-06
-4.83494e-06
-4.8202e-06
-4.79327e-06
-4.76923e-06
-4.79111e-06
-4.82069e-06
-4.80582e-06
-4.77963e-06
-4.75621e-06
-4.77752e-06
-4.80628e-06
-4.79129e-06
-4.76582e-06
-4.74303e-06
-4.76377e-06
-4.79174e-06
-4.77661e-06
-4.75186e-06
-4.72969e-06
-4.74986e-06
-4.77704e-06
-4.76178e-06
-4.73774e-06
-4.71618e-06
-4.73579e-06
-4.76219e-06
-4.74679e-06
-4.72346e-06
-4.7025e-06
-4.72157e-06
-4.74719e-06
-4.73165e-06
-4.70901e-06
-4.68866e-06
-4.70717e-06
-4.73203e-06
-4.71636e-06
-4.6944e-06
-4.67464e-06
-4.69262e-06
-4.71672e-06
-4.70091e-06
-4.67963e-06
-4.66045e-06
-4.67789e-06
-4.70125e-06
-4.68529e-06
-4.66469e-06
-4.64609e-06
-4.663e-06
-4.68562e-06
-4.66952e-06
-4.64957e-06
-4.63156e-06
-4.64794e-06
-4.66984e-06
-4.65358e-06
-4.63429e-06
-4.61685e-06
-4.63271e-06
-4.65388e-06
-4.63748e-06
-4.61884e-06
-4.60196e-06
-4.61731e-06
-4.63777e-06
-4.62121e-06
-4.60321e-06
-4.58689e-06
-4.60173e-06
-4.62148e-06
-4.60477e-06
-4.5874e-06
-4.57164e-06
-4.58597e-06
-4.60503e-06
-4.58816e-06
-4.57142e-06
-4.55621e-06
-4.57004e-06
-4.58841e-06
-4.57138e-06
-4.55526e-06
-4.54059e-06
-4.55392e-06
-4.57162e-06
-4.55442e-06
-4.53891e-06
-4.52478e-06
-4.53763e-06
-4.55465e-06
-4.53729e-06
-4.52239e-06
-4.50879e-06
-4.52114e-06
-4.5375e-06
-4.51998e-06
-4.50567e-06
-4.49261e-06
-4.50448e-06
-4.52018e-06
-4.50248e-06
-4.48877e-06
-4.47623e-06
-4.48762e-06
-4.50267e-06
-4.48481e-06
-4.47168e-06
-4.45966e-06
-4.47058e-06
-4.48498e-06
-4.46695e-06
-4.4544e-06
-4.4429e-06
-4.45335e-06
-4.46711e-06
-4.4489e-06
-4.43693e-06
-4.42594e-06
-4.43592e-06
-4.44905e-06
-4.43066e-06
-4.41926e-06
-4.40877e-06
-4.41829e-06
-4.4308e-06
-4.41222e-06
-4.40139e-06
-4.39141e-06
-4.40047e-06
-4.41236e-06
-4.3936e-06
-4.38332e-06
-4.37385e-06
-4.38245e-06
-4.39372e-06
-4.37478e-06
-4.36506e-06
-4.35608e-06
-4.36422e-06
-4.37489e-06
-4.35575e-06
-4.34659e-06
-4.3381e-06
-4.3458e-06
-4.35586e-06
-4.33653e-06
-4.32791e-06
-4.31992e-06
-4.32716e-06
-4.33662e-06
-4.3171e-06
-4.30902e-06
-4.30152e-06
-4.30832e-06
-4.31719e-06
-4.29747e-06
-4.28993e-06
-4.28292e-06
-4.28927e-06
-4.29754e-06
-4.27762e-06
-4.27062e-06
-4.2641e-06
-4.27e-06
-4.27769e-06
-4.25756e-06
-4.2511e-06
-4.24506e-06
-4.25052e-06
-4.25762e-06
-4.23729e-06
-4.23136e-06
-4.22581e-06
-4.23083e-06
-4.23734e-06
-4.2168e-06
-4.2114e-06
-4.20633e-06
-4.21091e-06
-4.21684e-06
-4.19609e-06
-4.19122e-06
-4.18663e-06
-4.19077e-06
-4.19612e-06
-4.17516e-06
-4.17082e-06
-4.16671e-06
-4.17041e-06
-4.17518e-06
-4.154e-06
-4.15019e-06
-4.14657e-06
-4.14982e-06
-4.15401e-06
-4.13261e-06
-4.12933e-06
-4.1262e-06
-4.12901e-06
-4.13261e-06
-4.11099e-06
-4.10824e-06
-4.1056e-06
-4.10796e-06
-4.11098e-06
-4.08914e-06
-4.08691e-06
-4.08475e-06
-4.08668e-06
-4.08912e-06
-4.06707e-06
-4.06534e-06
-4.06363e-06
-4.06516e-06
-4.06704e-06
-4.04473e-06
-4.04355e-06
-4.04235e-06
-4.04341e-06
-4.04469e-06
-4.02187e-06
-4.02165e-06
-4.02124e-06
-4.02144e-06
-4.02186e-06
)
;

boundaryField
{
    BotWall
    {
        type            fixedFluxPressure;
        gradient        uniform 0;
        value           nonuniform List<scalar> 5(0.806076 0.80773 0.8086 0.806947 0.806056);
    }
    FreeStream
    {
        type            totalPressure;
        rho             rho;
        psi             none;
        gamma           1;
        p0              uniform 0;
        value           nonuniform List<scalar> 5(-4.0102e-06 -4.01072e-06 -4.01089e-06 -4.0104e-06 -4.01023e-06);
    }
    FrontNBack
    {
        type            empty;
    }
    LeftSide
    {
        type            symmetryPlane;
    }
    RightSide
    {
        type            symmetryPlane;
    }
}


// ************************************************************************* //
