/*--------------------------------*- C++ -*----------------------------------*\
| =========                 |                                                 |
| \\      /  F ield         | OpenFOAM: The Open Source CFD Toolbox           |
|  \\    /   O peration     | Version:  2.4.0                                 |
|   \\  /    A nd           | Web:      www.OpenFOAM.org                      |
|    \\/     M anipulation  |                                                 |
\*---------------------------------------------------------------------------*/
FoamFile
{
    version     2.0;
    format      ascii;
    class       surfaceScalarField;
    location    "4.9";
    object      phi;
}
// * * * * * * * * * * * * * * * * * * * * * * * * * * * * * * * * * * * * * //

dimensions      [0 3 -1 0 0 0 0];

internalField   nonuniform List<scalar> 
895
(
2.35019e-17
-2.35029e-17
2.17418e-17
1.75818e-18
-1.37845e-17
3.55234e-17
-2.64853e-17
1.26985e-17
-2.64871e-17
7.34374e-17
-9.69554e-17
6.71097e-17
8.06051e-18
-4.36967e-17
1.46294e-16
-8.18688e-17
5.0842e-17
-1.08377e-16
1.26709e-16
-2.23682e-16
1.1475e-16
1.99912e-17
-7.60189e-17
3.37023e-16
-1.40379e-16
1.15171e-16
-2.48778e-16
1.83361e-16
-4.07064e-16
1.6467e-16
3.86514e-17
-1.10691e-16
6.12342e-16
-2.02188e-16
2.06636e-16
-4.50988e-16
2.4355e-16
-6.50636e-16
2.16981e-16
6.51878e-17
-1.47842e-16
9.7712e-16
-2.67446e-16
3.26207e-16
-7.18457e-16
3.07491e-16
-9.58149e-16
2.71812e-16
1.00833e-16
-1.8762e-16
1.43651e-15
-3.36365e-16
4.74918e-16
-1.05485e-15
3.75348e-16
-1.33352e-15
3.29271e-16
1.46875e-16
-2.30159e-16
1.99589e-15
-4.09103e-16
6.53828e-16
-1.46397e-15
4.47369e-16
-1.78091e-15
3.89514e-16
2.04696e-16
-2.75631e-16
2.66099e-15
-4.85904e-16
8.64065e-16
-1.9499e-15
5.23732e-16
-2.30467e-15
4.52655e-16
2.75738e-16
-3.24182e-16
3.43778e-15
-5.66937e-16
1.10679e-15
-2.51686e-15
6.04717e-16
-2.90941e-15
5.18871e-16
3.61548e-16
-3.76007e-16
4.33261e-15
-6.52482e-16
1.38322e-15
-3.16936e-15
6.9052e-16
-3.59995e-15
5.8829e-16
4.63743e-16
-4.31267e-16
5.35212e-15
-7.42722e-16
1.69465e-15
-3.91211e-15
7.81456e-16
-4.38143e-15
6.61111e-16
5.84053e-16
-4.90182e-16
6.50337e-15
-8.37974e-16
2.0424e-15
-4.7501e-15
8.77742e-16
-5.2592e-15
7.37475e-16
7.24287e-16
-5.5293e-16
7.79373e-15
-9.38442e-16
2.42788e-15
-5.68857e-15
9.79734e-16
-6.23896e-15
8.17605e-16
8.86383e-16
-6.1976e-16
9.23105e-15
-1.04448e-15
2.85257e-15
-6.73307e-15
1.08767e-15
-7.32665e-15
9.01661e-16
1.07236e-15
-6.90869e-16
1.08235e-14
-1.15631e-15
3.31799e-15
-7.8894e-15
1.20195e-15
-8.52862e-15
9.89895e-16
1.28439e-15
-7.66539e-16
1.25799e-14
-1.27434e-15
3.82577e-15
-9.16376e-15
1.32286e-15
-9.8515e-15
1.08249e-15
1.52473e-15
-8.47e-16
1.45094e-14
-1.39883e-15
4.37757e-15
-1.05626e-14
1.45084e-15
-1.13024e-14
1.17982e-15
1.79572e-15
-9.32709e-16
1.66219e-14
-1.53017e-15
4.97501e-15
-1.20928e-14
1.58606e-15
-1.28884e-14
1.28216e-15
2.0996e-15
-1.02312e-15
1.89271e-14
-1.66865e-15
5.62052e-15
-1.37615e-14
1.72887e-15
-1.46173e-14
1.38797e-15
2.44048e-15
-1.11981e-15
2.14349e-14
-1.81453e-15
6.31522e-15
-1.5576e-14
1.8796e-15
-1.64969e-14
1.50193e-15
2.81814e-15
-1.22261e-15
2.41594e-14
-1.96826e-15
7.06086e-15
-1.75443e-14
2.03975e-15
-1.85367e-14
1.61869e-15
3.23918e-15
-1.33043e-15
2.71085e-14
-2.13127e-15
7.86169e-15
-1.96755e-14
2.2144e-15
-2.07511e-14
1.74865e-15
3.70493e-15
-1.45018e-15
3.03074e-14
-2.3062e-15
8.71771e-15
-2.19817e-14
2.40396e-15
-4.84807e-14
1.90281e-15
4.20607e-15
-1.59761e-15
3.38078e-14
-2.4987e-15
9.61879e-15
-5.12577e-14
2.65788e-15
-1.87527e-10
2.15857e-15
-1.87571e-10
-1.84246e-15
-1.87618e-10
-2.76099e-15
-1.8757e-10
-1.87528e-10
2.70984e-15
-1.8753e-10
2.104e-15
-1.8757e-10
-1.78727e-15
-1.87614e-10
-2.80855e-15
-1.87569e-10
-1.87531e-10
2.68359e-15
-1.87533e-10
2.11817e-15
-1.8757e-10
-1.8071e-15
-1.8761e-10
-2.77777e-15
-1.87568e-10
-1.87534e-10
2.54801e-15
-1.87535e-10
1.98897e-15
-1.87569e-10
-1.68721e-15
-1.87607e-10
-2.63433e-15
-1.87567e-10
-1.87536e-10
2.42457e-15
-1.87538e-10
1.88956e-15
-1.87568e-10
-1.59632e-15
-1.87603e-10
-2.50414e-15
-1.87567e-10
-1.87539e-10
2.31003e-15
-1.8754e-10
1.80543e-15
-1.87568e-10
-1.52027e-15
-1.876e-10
-2.38347e-15
-1.87566e-10
-1.87541e-10
2.19808e-15
-1.87542e-10
1.72391e-15
-1.87568e-10
-1.44668e-15
-1.87597e-10
-2.26564e-15
-1.87565e-10
-1.87543e-10
2.08668e-15
-1.87544e-10
1.64213e-15
-1.87567e-10
-1.37276e-15
-1.87594e-10
-2.14853e-15
-1.87564e-10
-1.87546e-10
1.97617e-15
-1.87546e-10
1.56068e-15
-1.87567e-10
-1.2991e-15
-1.87591e-10
-2.0325e-15
-1.87563e-10
-1.87548e-10
1.86696e-15
-1.87548e-10
1.48017e-15
-1.87566e-10
-1.22629e-15
-1.87588e-10
-1.91797e-15
-1.87563e-10
-1.8755e-10
1.75922e-15
-1.8755e-10
1.40081e-15
-1.87566e-10
-1.15453e-15
-1.87586e-10
-1.80511e-15
-1.87562e-10
-1.87551e-10
1.65302e-15
-1.87551e-10
1.32264e-15
-1.87566e-10
-1.08386e-15
-1.87583e-10
-1.69399e-15
-1.87561e-10
-1.87553e-10
1.54845e-15
-1.87553e-10
1.2457e-15
-1.87565e-10
-1.01432e-15
-1.87581e-10
-1.5847e-15
-1.87561e-10
-1.87555e-10
1.44561e-15
-1.87554e-10
1.17004e-15
-1.87565e-10
-9.45981e-16
-1.87579e-10
-1.47734e-15
-1.8756e-10
-1.87556e-10
1.3446e-15
-1.87556e-10
1.09575e-15
-1.87565e-10
-8.78899e-16
-1.87577e-10
-1.372e-15
-1.8756e-10
-1.87557e-10
1.24552e-15
-1.87557e-10
1.02288e-15
-1.87565e-10
-8.13144e-16
-1.87575e-10
-1.26878e-15
-1.87559e-10
-1.87559e-10
1.14847e-15
-1.87558e-10
9.51505e-16
-1.87564e-10
-7.4878e-16
-1.87573e-10
-1.16778e-15
-1.87559e-10
-1.8756e-10
1.05354e-15
-1.87559e-10
8.81683e-16
-1.87564e-10
-6.85873e-16
-1.87572e-10
-1.0691e-15
-1.87559e-10
-1.87561e-10
9.60839e-16
-1.8756e-10
8.1348e-16
-1.87564e-10
-6.24486e-16
-1.8757e-10
-9.72829e-16
-1.87558e-10
-1.87562e-10
8.70459e-16
-1.87561e-10
7.46959e-16
-1.87564e-10
-5.64681e-16
-1.87569e-10
-8.79059e-16
-1.87558e-10
-1.87563e-10
7.82492e-16
-1.87562e-10
6.8218e-16
-1.87564e-10
-5.06521e-16
-1.87568e-10
-7.87883e-16
-1.87558e-10
-1.87564e-10
6.97032e-16
-1.87563e-10
6.19204e-16
-1.87564e-10
-4.50064e-16
-1.87567e-10
-6.99389e-16
-1.87557e-10
-1.87564e-10
6.14169e-16
-1.87563e-10
5.5809e-16
-1.87564e-10
-3.95371e-16
-1.87566e-10
-6.13664e-16
-1.87557e-10
-1.87565e-10
5.33991e-16
-1.87564e-10
4.98895e-16
-1.87564e-10
-3.42499e-16
-1.87565e-10
-5.30793e-16
-1.87557e-10
-1.87565e-10
4.56582e-16
-1.87564e-10
4.41673e-16
-1.87564e-10
-2.91502e-16
-1.87564e-10
-4.50857e-16
-1.87557e-10
-1.87566e-10
3.82025e-16
-1.87565e-10
3.86477e-16
-1.87564e-10
-2.42435e-16
-1.87564e-10
-3.73933e-16
-1.87557e-10
-1.87566e-10
3.10399e-16
-1.87565e-10
3.33358e-16
-1.87564e-10
-1.95349e-16
-1.87563e-10
-3.00098e-16
-1.87557e-10
-1.87567e-10
2.41778e-16
-1.87565e-10
2.82365e-16
-1.87564e-10
-1.50292e-16
-1.87563e-10
-2.29421e-16
-1.87556e-10
-1.87567e-10
1.76234e-16
-1.87565e-10
2.33542e-16
-1.87564e-10
-1.07311e-16
-1.87562e-10
-1.6197e-16
-1.87556e-10
-1.87567e-10
1.13834e-16
-1.87565e-10
1.86931e-16
-1.87564e-10
-6.64489e-17
-1.87562e-10
-9.78072e-17
-1.87556e-10
-1.87567e-10
5.464e-17
-1.87565e-10
1.42574e-16
-1.87564e-10
-2.77462e-17
-1.87562e-10
-3.69908e-17
-1.87556e-10
-1.87567e-10
-1.29041e-18
-1.87565e-10
1.00505e-16
-1.87564e-10
8.7604e-18
-1.87562e-10
2.04264e-17
-1.87556e-10
-1.87567e-10
-5.39054e-17
-1.87565e-10
6.07576e-17
-1.87564e-10
4.30375e-17
-1.87562e-10
7.43971e-17
-1.87556e-10
-1.87567e-10
-1.03158e-16
-1.87565e-10
2.33602e-17
-1.87564e-10
7.50553e-17
-1.87562e-10
1.24879e-16
-1.87556e-10
-1.87567e-10
-1.49009e-16
-1.87565e-10
-1.16625e-17
-1.87564e-10
1.04788e-16
-1.87562e-10
1.71837e-16
-1.87557e-10
-1.87567e-10
-1.91423e-16
-1.87565e-10
-4.42897e-17
-1.87565e-10
1.32215e-16
-1.87562e-10
2.15242e-16
-1.87557e-10
-1.87567e-10
-2.30374e-16
-1.87565e-10
-7.45054e-17
-1.87565e-10
1.57319e-16
-1.87562e-10
2.5507e-16
-1.87557e-10
-1.87566e-10
-2.6584e-16
-1.87564e-10
-1.02298e-16
-1.87565e-10
1.80088e-16
-1.87563e-10
2.91307e-16
-1.87557e-10
-1.87566e-10
-2.9781e-16
-1.87564e-10
-1.27661e-16
-1.87565e-10
2.00514e-16
-1.87563e-10
3.23945e-16
-1.87557e-10
-1.87566e-10
-3.2628e-16
-1.87564e-10
-1.50592e-16
-1.87565e-10
2.18597e-16
-1.87563e-10
3.52983e-16
-1.87557e-10
-1.87565e-10
-3.51251e-16
-1.87563e-10
-1.71097e-16
-1.87565e-10
2.3434e-16
-1.87564e-10
3.7843e-16
-1.87557e-10
-1.87565e-10
-3.72736e-16
-1.87563e-10
-1.89185e-16
-1.87566e-10
2.47752e-16
-1.87564e-10
4.00303e-16
-1.87557e-10
-1.87565e-10
-3.90757e-16
-1.87563e-10
-2.0487e-16
-1.87566e-10
2.58848e-16
-1.87565e-10
4.18627e-16
-1.87558e-10
-1.87564e-10
-4.05343e-16
-1.87562e-10
-2.18175e-16
-1.87566e-10
2.67651e-16
-1.87565e-10
4.33437e-16
-1.87558e-10
-1.87564e-10
-4.16535e-16
-1.87562e-10
-2.29127e-16
-1.87566e-10
2.74188e-16
-1.87566e-10
4.44778e-16
-1.87558e-10
-1.87563e-10
-4.24382e-16
-1.87561e-10
-2.37761e-16
-1.87566e-10
2.78494e-16
-1.87566e-10
4.52704e-16
-1.87558e-10
-1.87563e-10
-4.28945e-16
-1.87561e-10
-2.44118e-16
-1.87566e-10
2.80611e-16
-1.87567e-10
4.57281e-16
-1.87558e-10
-1.87562e-10
-4.30295e-16
-1.87561e-10
-2.48246e-16
-1.87567e-10
2.80589e-16
-1.87567e-10
4.58583e-16
-1.87558e-10
-1.87562e-10
-4.28514e-16
-1.8756e-10
-2.502e-16
-1.87567e-10
2.78482e-16
-1.87568e-10
4.56697e-16
-1.87559e-10
-1.87561e-10
-4.23695e-16
-1.8756e-10
-2.50042e-16
-1.87567e-10
2.74356e-16
-1.87568e-10
4.51721e-16
-1.87559e-10
-1.87561e-10
-4.15943e-16
-1.87559e-10
-2.47844e-16
-1.87567e-10
2.68281e-16
-1.87569e-10
4.43764e-16
-1.87559e-10
-1.8756e-10
-4.05376e-16
-1.87559e-10
-2.43682e-16
-1.87567e-10
2.60338e-16
-1.87569e-10
4.32948e-16
-1.87559e-10
-1.8756e-10
-3.92122e-16
-1.87559e-10
-2.37643e-16
-1.87567e-10
2.50614e-16
-1.8757e-10
4.19406e-16
-1.87559e-10
-1.8756e-10
-3.76324e-16
-1.87558e-10
-2.2982e-16
-1.87568e-10
2.39206e-16
-1.8757e-10
4.03283e-16
-1.87559e-10
-1.87559e-10
-3.58137e-16
-1.87558e-10
-2.20317e-16
-1.87568e-10
2.26219e-16
-1.87571e-10
3.8474e-16
-1.8756e-10
-1.87559e-10
-3.37728e-16
-1.87557e-10
-2.09244e-16
-1.87568e-10
2.11767e-16
-1.87571e-10
3.63947e-16
-1.8756e-10
-1.87558e-10
-3.15279e-16
-1.87557e-10
-1.9672e-16
-1.87568e-10
1.95971e-16
-1.87571e-10
3.41091e-16
-1.8756e-10
-1.87558e-10
-2.90985e-16
-1.87557e-10
-1.82876e-16
-1.87568e-10
1.78965e-16
-1.87572e-10
3.16369e-16
-1.8756e-10
-1.87558e-10
-2.65055e-16
-1.87557e-10
-1.67847e-16
-1.87568e-10
1.60889e-16
-1.87572e-10
2.89996e-16
-1.8756e-10
-1.87558e-10
-2.37712e-16
-1.87556e-10
-1.51781e-16
-1.87568e-10
1.41894e-16
-1.87572e-10
2.62199e-16
-1.8756e-10
-1.87557e-10
-2.09195e-16
-1.87556e-10
-1.34836e-16
-1.87568e-10
1.2214e-16
-1.87573e-10
2.3322e-16
-1.8756e-10
-1.87557e-10
-1.79757e-16
-1.87556e-10
-1.17176e-16
-1.87568e-10
1.01797e-16
-1.87573e-10
2.03315e-16
-1.8756e-10
-1.87557e-10
-1.49665e-16
-1.87556e-10
-9.89787e-17
-1.87569e-10
8.10464e-17
-1.87573e-10
1.72757e-16
-1.87561e-10
-1.87557e-10
-1.19203e-16
-1.87556e-10
-8.04298e-17
-1.87569e-10
6.00775e-17
-1.87573e-10
1.41834e-16
-1.87561e-10
-1.87557e-10
-8.86701e-17
-1.87556e-10
-6.17261e-17
-1.87569e-10
3.90915e-17
-1.87573e-10
1.1085e-16
-1.87561e-10
-1.87556e-10
-5.83821e-17
-1.87556e-10
-4.30747e-17
-1.87569e-10
1.82995e-17
-1.87573e-10
8.01251e-17
-1.87561e-10
-1.87556e-10
-2.86706e-17
-1.87556e-10
-2.46938e-17
-1.87569e-10
-2.07624e-18
-1.87573e-10
4.99963e-17
-1.87561e-10
-1.87556e-10
1.15239e-19
-1.87556e-10
-6.81268e-18
-1.87569e-10
-2.18028e-17
-1.87573e-10
2.08183e-17
-1.87561e-10
-1.87556e-10
2.76094e-17
-1.87556e-10
1.03279e-17
-1.87569e-10
-4.0636e-17
-1.87573e-10
-7.03675e-18
-1.87561e-10
-1.87556e-10
5.34281e-17
-1.87556e-10
2.64757e-17
-1.87569e-10
-5.83205e-17
-1.87573e-10
-3.31781e-17
-1.87561e-10
-1.87556e-10
7.71689e-17
-1.87556e-10
4.1366e-17
-1.87569e-10
-7.45889e-17
-1.87573e-10
-5.71961e-17
-1.87561e-10
-1.87556e-10
9.84101e-17
-1.87556e-10
5.4721e-17
-1.87568e-10
-8.91612e-17
-1.87573e-10
-7.86609e-17
-1.87561e-10
-1.87556e-10
1.1671e-16
-1.87556e-10
6.6249e-17
-1.87568e-10
-1.01744e-16
-1.87573e-10
-9.71222e-17
-1.87561e-10
-1.87557e-10
1.3161e-16
-1.87556e-10
7.5647e-17
-1.87568e-10
-1.12033e-16
-1.87573e-10
-1.12112e-16
-1.87561e-10
-1.87557e-10
1.42651e-16
-1.87556e-10
8.26141e-17
-1.87568e-10
-1.19737e-16
-1.87572e-10
-1.2315e-16
-1.87561e-10
-1.87557e-10
1.49379e-16
8.68025e-17
-1.24561e-16
-1.29688e-16
)
;

boundaryField
{
    BotWall
    {
        type            calculated;
        value           nonuniform List<scalar> 5(8.51929e-22 1.62192e-21 2.46633e-21 1.98765e-21 1.53205e-21);
    }
    FreeStream
    {
        type            calculated;
        value           nonuniform List<scalar> 5(-1.87556e-10 -1.87568e-10 -1.87572e-10 -1.87561e-10 -1.87557e-10);
    }
    FrontNBack
    {
        type            empty;
        value           nonuniform 0();
    }
    LeftSide
    {
        type            symmetryPlane;
        value           uniform 0;
    }
    RightSide
    {
        type            symmetryPlane;
        value           uniform 0;
    }
}


// ************************************************************************* //
