/*--------------------------------*- C++ -*----------------------------------*\
| =========                 |                                                 |
| \\      /  F ield         | OpenFOAM: The Open Source CFD Toolbox           |
|  \\    /   O peration     | Version:  2.4.0                                 |
|   \\  /    A nd           | Web:      www.OpenFOAM.org                      |
|    \\/     M anipulation  |                                                 |
\*---------------------------------------------------------------------------*/
FoamFile
{
    version     2.0;
    format      ascii;
    class       volVectorField;
    location    "4.9";
    object      U;
}
// * * * * * * * * * * * * * * * * * * * * * * * * * * * * * * * * * * * * * //

dimensions      [0 1 -1 0 0 0 0];

internalField   nonuniform List<vector> 
500
(
(4.02467e-09 1.4849e-10 0)
(1.33094e-08 1.75871e-10 0)
(2.68356e-09 2.06356e-10 0)
(-1.30051e-08 1.87545e-10 0)
(-6.31104e-09 1.45068e-10 0)
(1.2535e-08 -6.82199e-10 0)
(4.07155e-08 -4.32211e-10 0)
(7.88525e-09 -8.0224e-11 0)
(-3.98049e-08 -3.20244e-10 0)
(-1.923e-08 -7.12501e-10 0)
(2.1564e-08 1.58105e-11 0)
(6.9089e-08 8.384e-10 0)
(1.29473e-08 1.88573e-09 0)
(-6.75721e-08 1.15985e-09 0)
(-3.25273e-08 -6.95062e-11 0)
(3.11336e-08 -2.54305e-09 0)
(9.84726e-08 -9.33908e-10 0)
(1.78665e-08 1.19422e-09 0)
(-9.63516e-08 -3.025e-10 0)
(-4.62241e-08 -2.7089e-09 0)
(4.1255e-08 -1.21521e-09 0)
(1.28901e-07 1.64801e-09 0)
(2.26392e-08 5.26369e-09 0)
(-1.26178e-07 2.69873e-09 0)
(-6.03294e-08 -1.48919e-09 0)
(5.19557e-08 -5.62817e-09 0)
(1.60426e-07 -1.33532e-09 0)
(2.72626e-08 4.17786e-09 0)
(-1.57107e-07 2.26335e-10 0)
(-7.48705e-08 -6.03295e-09 0)
(6.32451e-08 -3.61618e-09 0)
(1.93082e-07 2.70166e-09 0)
(3.17322e-08 1.05586e-08 0)
(-1.89171e-07 4.88487e-09 0)
(-8.9854e-08 -4.1794e-09 0)
(7.51558e-08 -1.01001e-08 0)
(2.26929e-07 -1.61182e-09 0)
(3.60456e-08 9.03639e-09 0)
(-2.22434e-07 1.2779e-09 0)
(-1.05313e-07 -1.08422e-08 0)
(8.76961e-08 -7.32743e-09 0)
(2.62003e-07 4.0664e-09 0)
(4.01976e-08 1.79998e-08 0)
(-2.56931e-07 7.77554e-09 0)
(-1.21251e-07 -8.27646e-09 0)
(1.00903e-07 -1.6143e-08 0)
(2.98371e-07 -1.72614e-09 0)
(4.41859e-08 1.59813e-08 0)
(-2.92733e-07 2.8796e-09 0)
(-1.37708e-07 -1.7317e-08 0)
(1.14785e-07 -1.24891e-08 0)
(3.36071e-07 5.83564e-09 0)
(4.80047e-08 2.78636e-08 0)
(-3.29878e-07 1.1453e-08 0)
(-1.54686e-07 -1.39163e-08 0)
(1.29384e-07 -2.40669e-08 0)
(3.75179e-07 -1.74272e-09 0)
(5.16518e-08 2.51387e-08 0)
(-3.68445e-07 4.95404e-09 0)
(-1.72228e-07 -2.57625e-08 0)
(1.44708e-07 -1.95882e-08 0)
(4.15737e-07 7.77902e-09 0)
(5.51206e-08 4.01171e-08 0)
(-4.08475e-07 1.56724e-08 0)
(-1.90338e-07 -2.15811e-08 0)
(1.60802e-07 -3.42697e-08 0)
(4.5783e-07 -1.79126e-09 0)
(5.84091e-08 3.65893e-08 0)
(-4.50055e-07 7.35717e-09 0)
(-2.09063e-07 -3.65718e-08 0)
(1.77678e-07 -2.63524e-08 0)
(5.01501e-07 1.24632e-08 0)
(6.15099e-08 5.75816e-08 0)
(-4.93232e-07 2.29911e-08 0)
(-2.28406e-07 -2.89932e-08 0)
(1.95384e-07 -3.84544e-08 0)
(5.46846e-07 6.79263e-09 0)
(6.44211e-08 5.93408e-08 0)
(-5.38102e-07 1.87471e-08 0)
(-2.4842e-07 -4.14423e-08 0)
(2.13933e-07 -2.90588e-08 0)
(5.93917e-07 2.40576e-08 0)
(6.71344e-08 8.47342e-08 0)
(-5.84718e-07 3.75369e-08 0)
(-2.69109e-07 -3.24259e-08 0)
(2.3338e-07 -1.00702e-07 0)
(6.42815e-07 -4.00565e-08 0)
(6.96476e-08 2.89833e-08 0)
(-6.33184e-07 -2.50312e-08 0)
(-2.9053e-07 -1.04453e-07 0)
(2.53731e-07 -2.51506e-07 0)
(6.93583e-07 -1.82865e-07 0)
(7.20428e-08 -1.05987e-07 0)
(-6.83436e-07 -1.66188e-07 0)
(-3.12666e-07 -2.55665e-07 0)
(2.74997e-07 -3.18174e-07 0)
(7.46094e-07 -2.41532e-07 0)
(7.39383e-08 -1.55957e-07 0)
(-7.3579e-07 -2.23201e-07 0)
(-3.35588e-07 -3.22719e-07 0)
(2.97331e-07 9.71066e-07 0)
(8.01021e-07 1.06677e-06 0)
(7.5944e-08 1.17464e-06 0)
(-7.90221e-07 1.08732e-06 0)
(-3.59363e-07 9.6612e-07 0)
(3.20959e-07 5.24196e-06 0)
(8.5804e-07 5.38516e-06 0)
(7.75205e-08 5.55276e-06 0)
(-8.46969e-07 5.40919e-06 0)
(-3.84244e-07 5.23648e-06 0)
(3.46574e-07 5.36779e-06 0)
(9.18766e-07 5.56338e-06 0)
(7.91042e-08 5.78676e-06 0)
(-9.06876e-07 5.59083e-06 0)
(-4.10585e-07 5.36115e-06 0)
(3.73638e-07 -2.25223e-05 0)
(9.81982e-07 -2.25023e-05 0)
(8.0054e-08 -2.25499e-05 0)
(-9.70073e-07 -2.24828e-05 0)
(-4.38558e-07 -2.25306e-05 0)
(4.07702e-07 -0.000176882 0)
(1.06035e-06 -0.000177819 0)
(8.1318e-08 -0.000179134 0)
(-1.04851e-06 -0.000177842 0)
(-4.73963e-07 -0.000176888 0)
(4.16122e-07 -0.000725261 0)
(1.08059e-06 -0.000724853 0)
(8.15226e-08 -0.000724364 0)
(-1.0687e-06 -0.000724825 0)
(-4.82533e-07 -0.00072527 0)
(4.05397e-07 -0.00166733 0)
(1.05486e-06 -0.00166689 0)
(7.85335e-08 -0.00166619 0)
(-1.04258e-06 -0.00166686 0)
(-4.68337e-07 -0.00166733 0)
(3.80491e-07 -0.000962056 0)
(9.96066e-07 -0.000962392 0)
(7.51779e-08 -0.000962761 0)
(-9.83462e-07 -0.000962389 0)
(-4.39653e-07 -0.000962062 0)
(3.56737e-07 -0.000896396 0)
(9.39483e-07 -0.000896633 0)
(7.19154e-08 -0.000896917 0)
(-9.26578e-07 -0.000896627 0)
(-4.12263e-07 -0.000896402 0)
(3.34533e-07 -0.000916507 0)
(8.86378e-07 -0.00091666 0)
(6.8778e-08 -0.000916846 0)
(-8.73208e-07 -0.00091665 0)
(-3.86599e-07 -0.000916513 0)
(3.13229e-07 -0.000936078 0)
(8.35495e-07 -0.000936203 0)
(6.5751e-08 -0.000936349 0)
(-8.22098e-07 -0.000936191 0)
(-3.61996e-07 -0.000936084 0)
(2.92474e-07 -0.000939576 0)
(7.86024e-07 -0.000939693 0)
(6.28208e-08 -0.000939828 0)
(-7.72433e-07 -0.000939679 0)
(-3.38086e-07 -0.000939582 0)
(2.72264e-07 -0.000938572 0)
(7.37896e-07 -0.00093868 0)
(5.99837e-08 -0.000938806 0)
(-7.24146e-07 -0.000938664 0)
(-3.14861e-07 -0.000938579 0)
(2.52646e-07 -0.000937803 0)
(6.91186e-07 -0.0009379 0)
(5.72384e-08 -0.000938015 0)
(-6.7731e-07 -0.000937882 0)
(-2.92363e-07 -0.00093781 0)
(2.33635e-07 -0.000937667 0)
(6.45929e-07 -0.000937753 0)
(5.45835e-08 -0.000937857 0)
(-6.31958e-07 -0.000937734 0)
(-2.70605e-07 -0.000937675 0)
(2.15235e-07 -0.000937719 0)
(6.02128e-07 -0.000937794 0)
(5.20172e-08 -0.000937887 0)
(-5.88091e-07 -0.000937774 0)
(-2.49586e-07 -0.000937726 0)
(1.97447e-07 -0.000937759 0)
(5.59779e-07 -0.000937824 0)
(4.95374e-08 -0.000937907 0)
(-5.45706e-07 -0.000937803 0)
(-2.29303e-07 -0.000937767 0)
(1.80273e-07 -0.000937772 0)
(5.1888e-07 -0.000937829 0)
(4.71423e-08 -0.000937902 0)
(-5.04798e-07 -0.000937806 0)
(-2.09755e-07 -0.00093778 0)
(1.63714e-07 -0.000937777 0)
(4.79429e-07 -0.000937826 0)
(4.48298e-08 -0.00093789 0)
(-4.65366e-07 -0.000937802 0)
(-1.9094e-07 -0.000937785 0)
(1.47773e-07 -0.000937782 0)
(4.41425e-07 -0.000937823 0)
(4.25979e-08 -0.000937879 0)
(-4.27405e-07 -0.000937798 0)
(-1.72855e-07 -0.000937791 0)
(1.32451e-07 -0.000937788 0)
(4.04863e-07 -0.000937822 0)
(4.04447e-08 -0.00093787 0)
(-3.90912e-07 -0.000937795 0)
(-1.55499e-07 -0.000937797 0)
(1.17747e-07 -0.000937794 0)
(3.69739e-07 -0.000937821 0)
(3.83683e-08 -0.000937862 0)
(-3.55879e-07 -0.000937794 0)
(-1.38867e-07 -0.000937802 0)
(1.03663e-07 -0.000937799 0)
(3.36048e-07 -0.00093782 0)
(3.63666e-08 -0.000937855 0)
(-3.22301e-07 -0.000937792 0)
(-1.22957e-07 -0.000937807 0)
(9.01978e-08 -0.000937803 0)
(3.03782e-07 -0.00093782 0)
(3.44376e-08 -0.000937848 0)
(-2.90169e-07 -0.00093779 0)
(-1.07764e-07 -0.000937812 0)
(7.73499e-08 -0.000937807 0)
(2.72935e-07 -0.000937819 0)
(3.25794e-08 -0.000937842 0)
(-2.59476e-07 -0.000937789 0)
(-9.32829e-08 -0.000937816 0)
(6.51178e-08 -0.000937811 0)
(2.43497e-07 -0.000937819 0)
(3.07901e-08 -0.000937836 0)
(-2.30211e-07 -0.000937787 0)
(-7.95093e-08 -0.00093782 0)
(5.34993e-08 -0.000937814 0)
(2.15458e-07 -0.000937818 0)
(2.90676e-08 -0.000937831 0)
(-2.02362e-07 -0.000937786 0)
(-6.64371e-08 -0.000937823 0)
(4.24915e-08 -0.000937817 0)
(1.88809e-07 -0.000937818 0)
(2.74101e-08 -0.000937826 0)
(-1.75919e-07 -0.000937785 0)
(-5.406e-08 -0.000937826 0)
(3.20909e-08 -0.00093782 0)
(1.63535e-07 -0.000937818 0)
(2.58157e-08 -0.000937822 0)
(-1.50868e-07 -0.000937784 0)
(-4.23709e-08 -0.000937829 0)
(2.22933e-08 -0.000937822 0)
(1.39624e-07 -0.000937818 0)
(2.42824e-08 -0.000937819 0)
(-1.27193e-07 -0.000937784 0)
(-3.13625e-08 -0.000937831 0)
(1.30938e-08 -0.000937824 0)
(1.17062e-07 -0.000937818 0)
(2.28084e-08 -0.000937816 0)
(-1.0488e-07 -0.000937783 0)
(-2.10266e-08 -0.000937832 0)
(4.48698e-09 -0.000937825 0)
(9.58326e-08 -0.000937818 0)
(2.13918e-08 -0.000937814 0)
(-8.39124e-08 -0.000937782 0)
(-1.13545e-08 -0.000937834 0)
(-3.5333e-09 -0.000937826 0)
(7.59185e-08 -0.000937818 0)
(2.00308e-08 -0.000937812 0)
(-6.4271e-08 -0.000937782 0)
(-2.337e-09 -0.000937835 0)
(-1.09739e-08 -0.000937827 0)
(5.73016e-08 -0.000937819 0)
(1.87237e-08 -0.00093781 0)
(-4.59371e-08 -0.000937782 0)
(6.03594e-09 -0.000937835 0)
(-1.78424e-08 -0.000937827 0)
(3.99624e-08 -0.000937819 0)
(1.74687e-08 -0.000937809 0)
(-2.889e-08 -0.000937782 0)
(1.37748e-08 -0.000937836 0)
(-2.4147e-08 -0.000937827 0)
(2.38799e-08 -0.00093782 0)
(1.6264e-08 -0.000937809 0)
(-1.3108e-08 -0.000937782 0)
(2.08908e-08 -0.000937836 0)
(-2.98967e-08 -0.000937827 0)
(9.03207e-09 -0.00093782 0)
(1.5108e-08 -0.000937808 0)
(1.43214e-09 -0.000937782 0)
(2.73958e-08 -0.000937835 0)
(-3.51011e-08 -0.000937827 0)
(-4.60456e-09 -0.000937821 0)
(1.39991e-08 -0.000937809 0)
(1.47547e-08 -0.000937782 0)
(3.33021e-08 -0.000937835 0)
(-3.97707e-08 -0.000937826 0)
(-1.70548e-08 -0.000937821 0)
(1.29355e-08 -0.000937809 0)
(2.68854e-08 -0.000937782 0)
(3.86229e-08 -0.000937834 0)
(-4.39166e-08 -0.000937825 0)
(-2.83446e-08 -0.000937822 0)
(1.19159e-08 -0.00093781 0)
(3.78511e-08 -0.000937783 0)
(4.33719e-08 -0.000937833 0)
(-4.75507e-08 -0.000937824 0)
(-3.85016e-08 -0.000937823 0)
(1.09386e-08 -0.000937811 0)
(4.76802e-08 -0.000937783 0)
(4.75635e-08 -0.000937832 0)
(-5.06854e-08 -0.000937823 0)
(-4.75543e-08 -0.000937824 0)
(1.00023e-08 -0.000937812 0)
(5.64021e-08 -0.000937784 0)
(5.12127e-08 -0.000937831 0)
(-5.33342e-08 -0.000937821 0)
(-5.55328e-08 -0.000937825 0)
(9.10543e-09 -0.000937814 0)
(6.40478e-08 -0.000937784 0)
(5.43352e-08 -0.000937829 0)
(-5.55109e-08 -0.00093782 0)
(-6.24684e-08 -0.000937825 0)
(8.24671e-09 -0.000937815 0)
(7.06492e-08 -0.000937785 0)
(5.69472e-08 -0.000937827 0)
(-5.72305e-08 -0.000937818 0)
(-6.83938e-08 -0.000937826 0)
(7.42482e-09 -0.000937817 0)
(7.62399e-08 -0.000937786 0)
(5.90657e-08 -0.000937825 0)
(-5.85083e-08 -0.000937816 0)
(-7.33428e-08 -0.000937827 0)
(6.63851e-09 -0.000937819 0)
(8.08545e-08 -0.000937786 0)
(6.07083e-08 -0.000937824 0)
(-5.93605e-08 -0.000937815 0)
(-7.73508e-08 -0.000937828 0)
(5.88656e-09 -0.000937822 0)
(8.45288e-08 -0.000937787 0)
(6.18932e-08 -0.000937821 0)
(-5.9804e-08 -0.000937813 0)
(-8.04541e-08 -0.000937829 0)
(5.16784e-09 -0.000937824 0)
(8.73001e-08 -0.000937788 0)
(6.26391e-08 -0.000937819 0)
(-5.98562e-08 -0.00093781 0)
(-8.26903e-08 -0.00093783 0)
(4.48125e-09 -0.000937826 0)
(8.92067e-08 -0.000937789 0)
(6.29655e-08 -0.000937817 0)
(-5.95355e-08 -0.000937808 0)
(-8.40985e-08 -0.000937831 0)
(3.82575e-09 -0.000937829 0)
(9.02881e-08 -0.00093779 0)
(6.28923e-08 -0.000937815 0)
(-5.88608e-08 -0.000937806 0)
(-8.47187e-08 -0.000937832 0)
(3.20037e-09 -0.000937832 0)
(9.0585e-08 -0.000937791 0)
(6.24401e-08 -0.000937813 0)
(-5.78514e-08 -0.000937804 0)
(-8.45921e-08 -0.000937833 0)
(2.60418e-09 -0.000937834 0)
(9.01394e-08 -0.000937792 0)
(6.163e-08 -0.00093781 0)
(-5.65277e-08 -0.000937802 0)
(-8.37612e-08 -0.000937834 0)
(2.03632e-09 -0.000937837 0)
(8.8994e-08 -0.000937792 0)
(6.04838e-08 -0.000937808 0)
(-5.49104e-08 -0.0009378 0)
(-8.22693e-08 -0.000937835 0)
(1.49595e-09 -0.00093784 0)
(8.71931e-08 -0.000937793 0)
(5.90236e-08 -0.000937806 0)
(-5.30209e-08 -0.000937798 0)
(-8.0161e-08 -0.000937835 0)
(9.82336e-10 -0.000937842 0)
(8.47816e-08 -0.000937794 0)
(5.72722e-08 -0.000937804 0)
(-5.08811e-08 -0.000937796 0)
(-7.74819e-08 -0.000937836 0)
(4.9475e-10 -0.000937845 0)
(8.18056e-08 -0.000937795 0)
(5.52528e-08 -0.000937801 0)
(-4.85135e-08 -0.000937794 0)
(-7.42785e-08 -0.000937837 0)
(3.2535e-11 -0.000937847 0)
(7.83122e-08 -0.000937796 0)
(5.29892e-08 -0.000937799 0)
(-4.59412e-08 -0.000937792 0)
(-7.05983e-08 -0.000937838 0)
(-4.04922e-10 -0.00093785 0)
(7.43493e-08 -0.000937797 0)
(5.05056e-08 -0.000937797 0)
(-4.31877e-08 -0.00093779 0)
(-6.64896e-08 -0.000937839 0)
(-8.18191e-10 -0.000937852 0)
(6.99658e-08 -0.000937798 0)
(4.78266e-08 -0.000937795 0)
(-4.0277e-08 -0.000937788 0)
(-6.20018e-08 -0.000937839 0)
(-1.2078e-09 -0.000937854 0)
(6.52113e-08 -0.000937798 0)
(4.49772e-08 -0.000937793 0)
(-3.72337e-08 -0.000937786 0)
(-5.71848e-08 -0.00093784 0)
(-1.57423e-09 -0.000937856 0)
(6.01363e-08 -0.000937799 0)
(4.19831e-08 -0.000937792 0)
(-3.40827e-08 -0.000937785 0)
(-5.20894e-08 -0.00093784 0)
(-1.91795e-09 -0.000937858 0)
(5.4792e-08 -0.0009378 0)
(3.88699e-08 -0.00093779 0)
(-3.08493e-08 -0.000937784 0)
(-4.67672e-08 -0.000937841 0)
(-2.23936e-09 -0.00093786 0)
(4.92305e-08 -0.0009378 0)
(3.56641e-08 -0.000937788 0)
(-2.75593e-08 -0.000937782 0)
(-4.12704e-08 -0.000937841 0)
(-2.53888e-09 -0.000937861 0)
(4.35042e-08 -0.000937801 0)
(3.23923e-08 -0.000937787 0)
(-2.42389e-08 -0.000937781 0)
(-3.56519e-08 -0.000937842 0)
(-2.81687e-09 -0.000937863 0)
(3.76665e-08 -0.000937802 0)
(2.90813e-08 -0.000937786 0)
(-2.09146e-08 -0.00093778 0)
(-2.9965e-08 -0.000937842 0)
(-3.0737e-09 -0.000937864 0)
(3.17711e-08 -0.000937802 0)
(2.57586e-08 -0.000937785 0)
(-1.76132e-08 -0.000937779 0)
(-2.42638e-08 -0.000937842 0)
(-3.30973e-09 -0.000937865 0)
(2.58724e-08 -0.000937803 0)
(2.24517e-08 -0.000937784 0)
(-1.43618e-08 -0.000937779 0)
(-1.86027e-08 -0.000937843 0)
(-3.52531e-09 -0.000937866 0)
(2.00253e-08 -0.000937803 0)
(1.91886e-08 -0.000937783 0)
(-1.11879e-08 -0.000937778 0)
(-1.30367e-08 -0.000937843 0)
(-3.7208e-09 -0.000937866 0)
(1.4285e-08 -0.000937804 0)
(1.59975e-08 -0.000937782 0)
(-8.11935e-09 -0.000937778 0)
(-7.6213e-09 -0.000937843 0)
(-3.89659e-09 -0.000937867 0)
(8.70742e-09 -0.000937804 0)
(1.29071e-08 -0.000937782 0)
(-5.18406e-09 -0.000937778 0)
(-2.41218e-09 -0.000937843 0)
(-4.05308e-09 -0.000937867 0)
(3.34866e-09 -0.000937804 0)
(9.94615e-09 -0.000937781 0)
(-2.41038e-09 -0.000937778 0)
(2.53442e-09 -0.000937843 0)
(-4.19071e-09 -0.000937867 0)
(-1.73468e-09 -0.000937804 0)
(7.1439e-09 -0.000937781 0)
(1.73137e-10 -0.000937778 0)
(7.16197e-09 -0.000937843 0)
(-4.30997e-09 -0.000937867 0)
(-6.48567e-09 -0.000937805 0)
(4.52983e-09 -0.000937781 0)
(2.53766e-09 -0.000937778 0)
(1.14136e-08 -0.000937843 0)
(-4.41143e-09 -0.000937866 0)
(-1.0847e-08 -0.000937805 0)
(2.1338e-09 -0.000937781 0)
(4.65408e-09 -0.000937778 0)
(1.52321e-08 -0.000937843 0)
(-4.49571e-09 -0.000937866 0)
(-1.47611e-08 -0.000937805 0)
(-1.39828e-11 -0.000937782 0)
(6.493e-09 -0.000937779 0)
(1.85599e-08 -0.000937842 0)
(-4.56352e-09 -0.000937865 0)
(-1.81698e-08 -0.000937805 0)
(-1.88288e-09 -0.000937782 0)
(8.02477e-09 -0.000937779 0)
(2.13391e-08 -0.000937842 0)
(-4.61569e-09 -0.000937864 0)
(-2.10149e-08 -0.000937805 0)
(-3.44189e-09 -0.000937782 0)
(9.21981e-09 -0.00093778 0)
(2.35122e-08 -0.000937842 0)
(-4.65329e-09 -0.000937863 0)
(-2.32382e-08 -0.000937805 0)
(-4.65975e-09 -0.000937783 0)
(1.0049e-08 -0.000937781 0)
(2.50228e-08 -0.000937842 0)
(-4.67773e-09 -0.000937862 0)
(-2.47827e-08 -0.000937805 0)
(-5.50523e-09 -0.000937784 0)
(1.0483e-08 -0.000937781 0)
(2.58142e-08 -0.000937841 0)
(-4.6905e-09 -0.000937862 0)
(-2.55909e-08 -0.000937805 0)
(-5.9467e-09 -0.000937784 0)
)
;

boundaryField
{
    BotWall
    {
        type            fixedValue;
        value           uniform (0 0 0);
    }
    FreeStream
    {
        type            zeroGradient;
    }
    FrontNBack
    {
        type            empty;
    }
    LeftSide
    {
        type            symmetryPlane;
    }
    RightSide
    {
        type            symmetryPlane;
    }
}


// ************************************************************************* //
