/*--------------------------------*- C++ -*----------------------------------*\
| =========                 |                                                 |
| \\      /  F ield         | OpenFOAM: The Open Source CFD Toolbox           |
|  \\    /   O peration     | Version:  2.4.0                                 |
|   \\  /    A nd           | Web:      www.OpenFOAM.org                      |
|    \\/     M anipulation  |                                                 |
\*---------------------------------------------------------------------------*/
FoamFile
{
    version     2.0;
    format      ascii;
    class       volScalarField;
    location    "1.8";
    object      T;
}
// * * * * * * * * * * * * * * * * * * * * * * * * * * * * * * * * * * * * * //

dimensions      [0 0 0 1 0 0 0];

internalField   nonuniform List<scalar> 
125
(
293.144
293.144
293.144
293.144
293.144
293.433
293.433
293.433
293.433
293.433
293.726
293.726
293.726
293.726
293.726
294.021
294.022
294.022
294.022
294.021
294.321
294.321
294.321
294.321
294.321
294.624
294.624
294.624
294.624
294.624
294.93
294.93
294.93
294.93
294.93
295.24
295.24
295.24
295.24
295.24
295.554
295.554
295.554
295.554
295.554
295.872
295.872
295.872
295.872
295.872
296.194
296.194
296.194
296.194
296.194
296.52
296.52
296.52
296.52
296.52
296.849
296.849
296.85
296.85
296.849
297.184
297.184
297.184
297.184
297.184
297.522
297.522
297.522
297.522
297.522
297.984
297.984
297.984
297.984
297.984
297.984
297.984
297.984
297.984
297.984
297.984
297.984
297.984
297.984
297.984
297.984
297.984
297.984
297.984
297.984
297.984
297.984
297.984
297.984
297.984
297.984
297.984
297.984
297.984
297.984
297.983
297.983
297.983
297.983
297.983
297.983
297.983
297.983
297.983
297.983
297.983
297.983
297.983
297.983
297.983
297.983
297.983
297.983
297.983
297.983
)
;

boundaryField
{
    BotWall
    {
        type            fixedValue;
        value           uniform 293;
    }
    FreeStream
    {
        type            fixedValue;
        value           nonuniform 0();
    }
    FrontNBack
    {
        type            empty;
    }
    LeftSide
    {
        type            symmetryPlane;
    }
    RightSide
    {
        type            symmetryPlane;
    }
    procBoundary0to1
    {
        type            processor;
        value           nonuniform List<scalar> 5(297.983 297.983 297.983 297.983 297.983);
    }
}


// ************************************************************************* //
