/*--------------------------------*- C++ -*----------------------------------*\
| =========                 |                                                 |
| \\      /  F ield         | OpenFOAM: The Open Source CFD Toolbox           |
|  \\    /   O peration     | Version:  2.4.0                                 |
|   \\  /    A nd           | Web:      www.OpenFOAM.org                      |
|    \\/     M anipulation  |                                                 |
\*---------------------------------------------------------------------------*/
FoamFile
{
    version     2.0;
    format      ascii;
    class       volScalarField;
    location    "1.4";
    object      H;
}
// * * * * * * * * * * * * * * * * * * * * * * * * * * * * * * * * * * * * * //

dimensions      [0 2 -2 0 0 0 0];

internalField   nonuniform List<scalar> 
8000
(
-11976.7
-11470.5
-10965.2
-10461.4
-9959.95
-9461.32
-8966.18
-8475.13
-7988.74
-7507.54
-7031.99
-6562.51
-6099.44
-5643.07
-5193.62
-4751.24
-4316.03
-3888.05
-3467.32
-3053.84
-2647.59
-2248.56
-1856.74
-1472.2
-1095.13
-726.011
-365.776
-7.38254
-5.37627
-5.10326
-4.85356
-4.62046
-4.40301
-4.20022
-4.01105
-3.83444
-3.66932
-3.51463
-3.36939
-3.23267
-3.10362
-2.98152
-2.86569
-2.75559
-2.65071
-2.55065
-2.45503
-2.36355
-2.27593
-2.19193
-11976.4
-11469.4
-10963.3
-10458.8
-9956.49
-9456.95
-8960.82
-8468.71
-7981.17
-7498.71
-7021.8
-6550.86
-6086.23
-5628.21
-5177.01
-4732.78
-4295.59
-3865.41
-3442.16
-3025.62
-2615.43
-2211.04
-1811.67
-1416.36
-1024.12
-633.554
-239.841
-8.57484
-6.17168
-5.75198
-5.37481
-5.037
-4.73596
-4.46832
-4.23037
-4.01825
-3.82823
-3.6568
-3.50079
-3.35748
-3.22453
-3.10008
-2.98263
-2.87107
-2.76455
-2.66245
-2.56436
-2.46996
-2.37904
-2.29144
-11975.8
-11467.8
-10960.5
-10454.7
-9950.92
-9449.79
-8951.94
-8457.96
-7968.42
-7483.83
-7004.66
-6531.33
-6064.16
-5603.43
-5149.3
-4701.83
-4260.97
-3826.5
-3398.02
-2974.86
-2555.93
-2139.5
-1722.94
-1302.83
-876.043
-442.144
-4.20476
-3.87671
-3.14443
-3.1266
-3.09807
-3.06461
-3.03034
-2.99759
-2.96722
-2.93888
-2.91149
-2.88355
-2.8535
-2.82001
-2.78207
-2.7391
-2.69094
-2.63779
-2.58013
-2.51862
-2.45403
-2.38716
-2.31876
-2.24953
-11975.2
-11465.7
-10957.1
-10449.7
-9944.31
-9441.44
-8941.73
-8445.76
-7954.08
-7467.21
-6985.6
-6509.64
-6039.62
-5575.75
-5118.13
-4666.73
-4221.39
-3781.79
-3347.48
-2917.89
-2492.41
-2070.54
-1652.09
-1237.47
-827.951
-425.738
-4.53984
-3.63894
-3.31191
-3.26198
-3.21272
-3.16406
-3.11591
-3.06808
-3.02031
-2.97228
-2.92364
-2.87409
-2.82334
-2.77119
-2.71754
-2.66236
-2.60572
-2.54774
-2.48862
-2.42856
-2.36781
-2.3066
-2.24516
-2.18371
-11974.6
-11464
-10954.1
-10445.7
-9939.14
-9435.12
-8934.21
-8436.97
-7943.94
-7455.58
-6972.34
-6494.55
-6022.5
-5556.38
-5096.29
-4642.25
-4194.2
-3752.05
-3315.68
-2885
-2460.02
-2040.91
-1628.04
-1222.02
-823.703
-434.081
-5.42018
-4.05486
-3.89082
-3.78964
-3.69193
-3.5974
-3.50579
-3.41685
-3.33033
-3.246
-3.16367
-3.08313
-3.00424
-2.92686
-2.85086
-2.77615
-2.70267
-2.63037
-2.55919
-2.48913
-2.42017
-2.35229
-2.2855
-2.2198
-11974.1
-11462.5
-10951.8
-10442.4
-9934.99
-9430.1
-8928.31
-8430.16
-7936.15
-7446.74
-6962.34
-6483.3
-6009.92
-5542.41
-5080.94
-4625.63
-4176.57
-3733.83
-3297.48
-2867.63
-2444.44
-2028.15
-1619.06
-1217.55
-824.062
-439.075
-6.63797
-4.88952
-4.71958
-4.56472
-4.41481
-4.26988
-4.12988
-3.99472
-3.86426
-3.73836
-3.61685
-3.49956
-3.38633
-3.27697
-3.17133
-3.06923
-2.97052
-2.87505
-2.78265
-2.69321
-2.60657
-2.52261
-2.44122
-2.36228
-11973.7
-11461.3
-10949.7
-10439.5
-9931.32
-9425.65
-8923.06
-8424.08
-7929.2
-7438.88
-6953.52
-6473.48
-5999.07
-5530.54
-5068.11
-4611.93
-4162.16
-3718.89
-3282.22
-2852.25
-2429.07
-2012.79
-1603.51
-1201.35
-806.659
-420.649
-8.47976
-6.19807
-5.92736
-5.67253
-5.4316
-5.2039
-4.98852
-4.78454
-4.59107
-4.4073
-4.23254
-4.06619
-3.90771
-3.75664
-3.61255
-3.47505
-3.34377
-3.21835
-3.09847
-2.9838
-2.87405
-2.76892
-2.66813
-2.57145
-11973.3
-11460.1
-10947.8
-10436.8
-9927.82
-9421.32
-8917.86
-8417.96
-7922.11
-7430.76
-6944.32
-6463.15
-5987.55
-5517.78
-5054.04
-4596.45
-4145.1
-3699.98
-3261.05
-2828.17
-2401.14
-1979.6
-1563.03
-1150.77
-742.905
-342.72
-11.1534
-7.91689
-7.3127
-6.81429
-6.39644
-6.03917
-5.72698
-5.4483
-5.1948
-4.9607
-4.74214
-4.53657
-4.34236
-4.15843
-3.98403
-3.81855
-3.66152
-3.51245
-3.37091
-3.23645
-3.10862
-2.987
-2.87118
-2.76076
-11972.8
-11458.6
-10945.1
-10432.9
-9922.51
-9414.52
-8909.45
-8407.83
-7910.14
-7416.83
-6928.3
-6444.9
-5966.91
-5494.52
-5027.85
-4566.89
-4111.53
-3661.46
-3216.21
-2774.99
-2336.5
-1898.33
-1455.61
-999.097
-516.329
-4.79338
-0.447559
-1.11358
-1.8399
-2.46
-2.97116
-3.37453
-3.67557
-3.88361
-4.01067
-4.07015
-4.07554
-4.0394
-3.97271
-3.88464
-3.78247
-3.67176
-3.55665
-3.44006
-3.324
-3.20981
-3.09832
-2.99
-2.88508
-2.78364
-11972
-11456.3
-10941.3
-10427.4
-9915.22
-9405.25
-8898.05
-8394.13
-7893.97
-7398.01
-6906.6
-6420.06
-5938.59
-5462.3
-4991.17
-4525.02
-4063.52
-3606.11
-3152.03
-2700.36
-2250.13
-1800.58
-1351.56
-903.959
-460.111
-4.65167
-3.79065
-3.46133
-3.47477
-3.49178
-3.50733
-3.51769
-3.52039
-3.51406
-3.49827
-3.47323
-3.43963
-3.39841
-3.35062
-3.29729
-3.23941
-3.17784
-3.11334
-3.04655
-2.978
-2.90816
-2.83739
-2.76601
-2.69428
-2.62245
-11971.3
-11454.2
-10937.8
-10422.5
-9908.83
-9397.34
-8888.52
-8382.86
-7880.79
-7382.72
-6888.97
-6399.81
-5915.39
-5435.8
-4961.03
-4490.98
-4025.48
-3564.35
-3107.42
-2654.62
-2206.07
-1762.14
-1323.58
-891.446
-467.193
-5.40071
-4.06121
-3.93017
-3.86607
-3.80398
-3.74333
-3.68358
-3.62428
-3.56507
-3.50566
-3.44585
-3.3855
-3.32453
-3.26289
-3.20059
-3.13764
-3.07408
-3.00998
-2.94539
-2.88039
-2.81507
-2.74951
-2.6838
-2.61804
-2.55231
-11970.8
-11452.5
-10934.9
-10418.5
-9903.77
-9391.15
-8881.14
-8374.21
-7870.77
-7371.2
-6875.81
-6384.86
-5898.57
-5417.08
-4940.5
-4468.91
-4002.37
-3540.98
-3084.87
-2634.26
-2189.45
-1750.86
-1319.04
-894.599
-478.251
-6.44514
-4.76244
-4.6315
-4.51334
-4.39856
-4.28703
-4.17862
-4.07317
-3.97055
-3.87059
-3.77314
-3.67805
-3.58519
-3.49442
-3.40562
-3.31867
-3.23347
-3.14993
-3.06797
-2.98752
-2.90851
-2.83089
-2.75463
-2.67968
-2.60602
-11970.2
-11450.9
-10932.3
-10414.8
-9899
-9385.29
-8874.17
-8366.07
-7861.41
-7360.56
-6863.87
-6371.62
-5884.07
-5401.44
-4923.93
-4451.71
-3984.96
-3523.87
-3068.63
-2619.49
-2176.75
-1740.73
-1311.85
-890.498
-476.961
-7.97246
-5.86401
-5.67214
-5.48618
-5.30535
-5.13006
-4.96054
-4.79692
-4.63922
-4.48735
-4.34117
-4.20049
-4.0651
-3.93476
-3.80921
-3.68822
-3.57155
-3.45895
-3.35021
-3.24513
-3.14351
-3.04517
-2.94995
-2.85769
-2.76825
-11969.8
-11449.6
-10930.1
-10411.7
-9895.01
-9380.41
-8868.38
-8359.35
-7853.73
-7351.89
-6854.2
-6360.94
-5872.41
-5388.84
-4910.44
-4437.39
-3969.85
-3507.95
-3051.83
-2601.6
-2157.44
-1719.68
-1288.92
-866.186
-453.163
-10.5677
-7.69656
-7.3214
-6.96933
-6.63943
-6.33076
-6.04227
-5.7728
-5.52109
-5.2858
-5.0656
-4.85918
-4.66529
-4.48275
-4.31049
-4.14753
-3.993
-3.84613
-3.70626
-3.5728
-3.44524
-3.32314
-3.20612
-3.09384
-2.986
-11969.3
-11448.1
-10927.6
-10408.1
-9890.27
-9374.42
-8861.04
-8350.57
-7843.41
-7339.95
-6840.53
-6345.44
-5854.94
-5369.23
-4888.44
-4412.64
-3941.8
-3475.78
-3014.29
-2556.85
-2102.8
-1651.41
-1201.79
-751.829
-293.473
-13.0376
-9.38331
-8.70869
-8.1051
-7.56729
-7.08956
-6.66565
-6.28925
-5.9543
-5.65512
-5.38652
-5.14385
-4.92303
-4.72051
-4.5333
-4.3589
-4.19526
-4.04074
-3.89403
-3.75412
-3.62023
-3.49178
-3.36831
-3.24947
-3.135
-11968.5
-11445.8
-10923.5
-10402.2
-9882.22
-9364.07
-8848.19
-8335.01
-7824.93
-7318.31
-6815.49
-6316.69
-5822.1
-5331.8
-4845.73
-4363.7
-3885.28
-3409.71
-2935.71
-2461.31
-1983.78
-1500.07
-1008.2
-509.364
-4.88602
-4.36771
-3.83562
-3.93521
-4.00419
-4.04913
-4.0753
-4.08671
-4.08635
-4.07626
-4.05777
-4.03169
-3.99843
-3.95823
-3.91124
-3.85764
-3.79768
-3.73175
-3.66034
-3.58406
-3.50361
-3.41974
-3.3332
-3.24475
-3.15508
-3.06484
-11967.6
-11442.9
-10918.6
-10395.1
-9872.86
-9352.23
-8833.65
-8317.53
-7804.24
-7294.09
-6787.33
-6284.15
-5784.63
-5288.73
-4796.32
-4307.14
-3820.84
-3337.01
-2855.35
-2375.73
-1898.5
-1424.65
-956.023
-495.22
-5.42488
-4.17959
-4.01747
-3.99957
-3.98025
-3.95903
-3.93555
-3.90948
-3.88055
-3.84854
-3.81322
-3.77443
-3.73207
-3.68607
-3.63643
-3.58325
-3.52665
-3.46686
-3.40413
-3.33877
-3.2711
-3.20148
-3.13026
-3.05778
-2.98437
-2.91036
-11966.8
-11440.4
-10914.5
-10389.4
-9865.54
-9343.2
-8822.78
-8304.64
-7789.09
-7276.41
-6766.82
-6260.49
-5757.54
-5258.04
-4762.05
-4269.61
-3780.85
-3295.95
-2815.29
-2339.43
-1869.25
-1405.9
-950.808
-505.475
-6.6593
-4.93734
-4.81027
-4.70423
-4.60116
-4.50106
-4.40385
-4.30937
-4.21743
-4.12778
-4.04019
-3.95438
-3.87013
-3.7872
-3.7054
-3.62458
-3.54459
-3.46533
-3.38673
-3.30874
-3.23134
-3.15451
-3.07828
-3.00265
-2.92766
-2.85334
-11966.1
-11438.4
-10911.2
-10384.8
-9859.49
-9335.7
-8813.74
-8293.9
-7776.49
-7261.76
-6749.97
-6241.32
-5736.02
-5234.26
-4736.26
-4242.25
-3752.53
-3267.48
-2787.57
-2313.45
-1846
-1386.54
-936.902
-499.495
-8.64368
-6.33578
-6.08829
-5.85348
-5.63044
-5.41971
-5.22132
-5.0349
-4.85983
-4.69532
-4.54048
-4.39441
-4.25623
-4.12509
-4.00024
-3.88098
-3.76672
-3.65694
-3.55118
-3.44909
-3.35033
-3.25465
-3.1618
-3.07161
-2.98391
-2.89855
-11965.3
-11436.1
-10907.2
-10379
-9851.82
-9325.9
-8801.59
-8279.19
-7759.01
-7241.32
-6726.39
-6214.47
-5705.8
-5200.61
-4699.1
-4201.47
-3707.87
-3218.39
-2733.03
-2251.74
-1774.66
-1302.6
-837.145
-378.441
-11.8648
-8.44293
-7.79245
-7.23121
-6.74619
-6.32625
-5.96163
-5.64375
-5.36513
-5.11925
-4.9005
-4.70407
-4.52591
-4.36264
-4.21148
-4.07021
-3.93705
-3.81065
-3.68994
-3.57416
-3.46273
-3.35521
-3.25131
-3.15079
-3.05347
-2.95919
-2.11134
-2.03395
-1.95959
-1.8881
-1.81932
-1.75311
-1.68935
-1.62791
-1.56867
-1.51155
-1.45643
-1.40323
-1.35187
-1.30228
-1.25437
-1.20808
-1.16336
-1.12014
-1.07838
-1.03801
-0.998996
-0.961291
-0.92485
-0.889635
-0.855607
-0.822729
-0.790965
-0.760283
-0.730649
-0.702032
-0.674402
-0.64773
-0.621987
-0.597146
-0.573179
-0.550062
-0.527768
-0.506273
-0.485553
-0.465585
-0.446345
-0.427811
-0.409962
-0.392776
-0.376233
-0.360313
-0.344995
-0.33026
-0.31609
-0.302466
-2.20702
-2.12568
-2.04732
-1.97183
-1.89911
-1.82906
-1.76158
-1.69656
-1.63391
-1.57351
-1.51529
-1.45914
-1.40498
-1.35273
-1.30231
-1.25365
-1.20668
-1.16134
-1.11756
-1.07529
-1.03448
-0.995076
-0.95703
-0.920297
-0.884834
-0.850598
-0.817551
-0.785653
-0.75487
-0.725164
-0.696503
-0.668853
-0.642183
-0.616462
-0.59166
-0.567749
-0.5447
-0.522486
-0.501082
-0.480462
-0.4606
-0.441474
-0.423058
-0.405332
-0.388271
-0.371856
-0.356064
-0.340876
-0.326272
-0.312232
-2.18006
-2.11087
-2.04237
-1.97486
-1.90859
-1.84374
-1.78043
-1.71872
-1.65867
-1.60029
-1.54359
-1.48855
-1.43515
-1.38337
-1.33318
-1.28453
-1.23741
-1.19177
-1.14758
-1.10481
-1.06341
-1.02337
-0.984628
-0.947168
-0.910952
-0.875947
-0.842122
-0.809443
-0.77788
-0.7474
-0.717974
-0.689572
-0.662163
-0.63572
-0.610213
-0.585614
-0.561898
-0.539036
-0.517003
-0.495773
-0.475323
-0.455626
-0.43666
-0.418402
-0.400828
-0.383918
-0.367649
-0.352001
-0.336953
-0.322486
-2.12245
-2.06156
-2.00117
-1.94143
-1.88245
-1.82431
-1.7671
-1.71088
-1.65571
-1.60162
-1.54865
-1.49684
-1.44621
-1.39677
-1.34853
-1.3015
-1.25569
-1.2111
-1.16772
-1.12556
-1.08459
-1.04481
-1.00621
-0.968768
-0.932473
-0.897304
-0.863243
-0.830267
-0.798357
-0.767489
-0.737641
-0.708789
-0.68091
-0.653979
-0.627974
-0.60287
-0.578644
-0.55527
-0.532727
-0.510991
-0.490038
-0.469845
-0.450391
-0.431654
-0.413611
-0.396241
-0.379524
-0.363438
-0.347965
-0.333083
-2.1552
-2.09171
-2.02934
-1.96809
-1.90798
-1.84902
-1.79123
-1.7346
-1.67915
-1.62489
-1.57182
-1.51995
-1.46928
-1.41981
-1.37156
-1.3245
-1.27864
-1.23398
-1.19051
-1.14821
-1.10709
-1.06713
-1.0283
-0.990615
-0.954041
-0.918565
-0.88417
-0.850837
-0.818548
-0.787282
-0.757019
-0.727738
-0.699418
-0.672037
-0.645573
-0.620005
-0.59531
-0.571467
-0.548454
-0.526249
-0.50483
-0.484175
-0.464264
-0.445074
-0.426586
-0.408779
-0.391632
-0.375126
-0.35924
-0.343956
-2.2857
-2.21136
-2.1392
-2.06912
-2.00104
-1.9349
-1.87064
-1.80819
-1.74751
-1.68853
-1.63122
-1.57553
-1.52141
-1.46884
-1.41776
-1.36816
-1.31999
-1.27323
-1.22784
-1.18379
-1.14105
-1.0996
-1.0594
-1.02043
-0.982666
-0.946075
-0.910632
-0.876311
-0.843087
-0.810933
-0.779824
-0.749735
-0.720642
-0.692519
-0.665342
-0.639087
-0.613729
-0.589246
-0.565614
-0.542809
-0.52081
-0.499593
-0.479136
-0.459418
-0.440418
-0.422113
-0.404484
-0.38751
-0.37117
-0.355446
-2.47863
-2.38944
-2.30369
-2.22117
-2.14173
-2.06519
-1.99141
-1.92026
-1.8516
-1.78532
-1.72133
-1.65951
-1.59978
-1.54206
-1.48627
-1.43233
-1.38018
-1.32976
-1.281
-1.23385
-1.18825
-1.14416
-1.10153
-1.06031
-1.02045
-0.981922
-0.944678
-0.90868
-0.873892
-0.840278
-0.807803
-0.776433
-0.746137
-0.716882
-0.688639
-0.661378
-0.635069
-0.609685
-0.585199
-0.561583
-0.538812
-0.51686
-0.495703
-0.475316
-0.455677
-0.436761
-0.418546
-0.401012
-0.384135
-0.367895
-2.65537
-2.55467
-2.45834
-2.36609
-2.27766
-2.19282
-2.11134
-2.03303
-1.95772
-1.88525
-1.81546
-1.74824
-1.68347
-1.62102
-1.56081
-1.50273
-1.44671
-1.39266
-1.3405
-1.29016
-1.24158
-1.19469
-1.14944
-1.10575
-1.06358
-1.02288
-0.983601
-0.945687
-0.909096
-0.873785
-0.839712
-0.806837
-0.77512
-0.744525
-0.715015
-0.686555
-0.659113
-0.632656
-0.607152
-0.58257
-0.558883
-0.53606
-0.514075
-0.4929
-0.47251
-0.452879
-0.433983
-0.415797
-0.398299
-0.381465
-2.68566
-2.59104
-2.49968
-2.41142
-2.32615
-2.24373
-2.16404
-2.08696
-2.0124
-1.94027
-1.87047
-1.80293
-1.73758
-1.67435
-1.61319
-1.55402
-1.49679
-1.44145
-1.38795
-1.33622
-1.28622
-1.2379
-1.1912
-1.14609
-1.10251
-1.06041
-1.01976
-0.980511
-0.942614
-0.906032
-0.870723
-0.83665
-0.803772
-0.772055
-0.74146
-0.711954
-0.683503
-0.656073
-0.629632
-0.604148
-0.579593
-0.555935
-0.533147
-0.511201
-0.490069
-0.469725
-0.450144
-0.4313
-0.41317
-0.395729
-2.5507
-2.47923
-2.40818
-2.33771
-2.26794
-2.19899
-2.13098
-2.06399
-1.99812
-1.93344
-1.87001
-1.80789
-1.74713
-1.68777
-1.62983
-1.57334
-1.5183
-1.46473
-1.41263
-1.36199
-1.3128
-1.26505
-1.21873
-1.1738
-1.13026
-1.08808
-1.04723
-1.00768
-0.969411
-0.932391
-0.896592
-0.861982
-0.828535
-0.796219
-0.765005
-0.734865
-0.705769
-0.677689
-0.650595
-0.62446
-0.599257
-0.574957
-0.551535
-0.528965
-0.507219
-0.486274
-0.466104
-0.446685
-0.427994
-0.410006
-2.48673
-2.42138
-2.35637
-2.29178
-2.22771
-2.16425
-2.10147
-2.03945
-1.97828
-1.918
-1.85869
-1.80039
-1.74316
-1.68703
-1.63204
-1.57821
-1.52558
-1.47415
-1.42395
-1.37498
-1.32725
-1.28075
-1.23549
-1.19146
-1.14865
-1.10705
-1.06666
-1.02744
-0.989401
-0.952511
-0.916755
-0.882113
-0.848564
-0.816087
-0.784661
-0.754263
-0.72487
-0.69646
-0.669008
-0.642492
-0.616889
-0.592174
-0.568324
-0.545317
-0.523129
-0.501736
-0.481118
-0.461251
-0.442112
-0.423681
-2.53362
-2.46247
-2.39257
-2.32389
-2.25644
-2.19023
-2.12524
-2.06148
-1.99895
-1.93767
-1.87763
-1.81883
-1.76129
-1.70499
-1.64995
-1.59616
-1.54363
-1.49234
-1.4423
-1.39349
-1.34592
-1.29958
-1.25445
-1.21053
-1.1678
-1.12625
-1.08587
-1.04664
-1.00854
-0.97157
-0.935696
-0.900907
-0.867181
-0.834501
-0.802846
-0.772195
-0.742529
-0.713826
-0.686064
-0.659224
-0.633282
-0.608218
-0.58401
-0.560636
-0.538075
-0.516306
-0.495307
-0.475057
-0.455536
-0.436722
-2.68151
-2.59733
-2.51562
-2.43626
-2.35917
-2.28425
-2.21143
-2.14064
-2.07179
-2.00484
-1.93972
-1.87638
-1.81476
-1.75483
-1.69653
-1.63982
-1.58468
-1.53105
-1.47891
-1.42822
-1.37895
-1.33107
-1.28455
-1.23936
-1.19548
-1.15288
-1.11153
-1.07141
-1.03249
-0.994738
-0.95814
-0.922667
-0.888295
-0.855
-0.822757
-0.791542
-0.761333
-0.732105
-0.703835
-0.676499
-0.650075
-0.62454
-0.599872
-0.576047
-0.553045
-0.530842
-0.509418
-0.488751
-0.468819
-0.449603
-2.88234
-2.78262
-2.68662
-2.59415
-2.50501
-2.41904
-2.33609
-2.25601
-2.17866
-2.10393
-2.03168
-1.96181
-1.89423
-1.82883
-1.76554
-1.70427
-1.64493
-1.58748
-1.53182
-1.47792
-1.4257
-1.37512
-1.32611
-1.27864
-1.23266
-1.18812
-1.14498
-1.10321
-1.06276
-1.02359
-0.985677
-0.948979
-0.913466
-0.879104
-0.845862
-0.813711
-0.782621
-0.752562
-0.723508
-0.69543
-0.668302
-0.642097
-0.616791
-0.592358
-0.568773
-0.546013
-0.524054
-0.502873
-0.482447
-0.462755
-3.02468
-2.91833
-2.81577
-2.71688
-2.6215
-2.5295
-2.44075
-2.35512
-2.27249
-2.19272
-2.11571
-2.04134
-1.96949
-1.90008
-1.833
-1.76815
-1.70546
-1.64484
-1.58621
-1.5295
-1.47465
-1.42158
-1.37025
-1.32059
-1.27254
-1.22607
-1.1811
-1.13761
-1.09554
-1.05485
-1.01551
-0.977459
-0.940671
-0.905107
-0.870731
-0.837507
-0.805402
-0.774384
-0.74442
-0.71548
-0.687534
-0.660552
-0.634506
-0.609369
-0.585114
-0.561714
-0.539145
-0.51738
-0.496396
-0.476169
-2.9746
-2.88485
-2.796
-2.70839
-2.62228
-2.53787
-2.4553
-2.37468
-2.29607
-2.21951
-2.14501
-2.07256
-2.00216
-1.93376
-1.86735
-1.80288
-1.74032
-1.67962
-1.62074
-1.56364
-1.50828
-1.45461
-1.4026
-1.3522
-1.30337
-1.25607
-1.21027
-1.16592
-1.12299
-1.08144
-1.04124
-1.00234
-0.964717
-0.92833
-0.893149
-0.859138
-0.826266
-0.794501
-0.763812
-0.734168
-0.705539
-0.677897
-0.651212
-0.625457
-0.600605
-0.576628
-0.553501
-0.531199
-0.509696
-0.488969
-2.83602
-2.76163
-2.6874
-2.61354
-2.54024
-2.46765
-2.3959
-2.3251
-2.25536
-2.18675
-2.11933
-2.05317
-1.98831
-1.92479
-1.86263
-1.80186
-1.7425
-1.68455
-1.62803
-1.57292
-1.51924
-1.46698
-1.41612
-1.36666
-1.31857
-1.27186
-1.22649
-1.18245
-1.13971
-1.09826
-1.05807
-1.01911
-0.98137
-0.944812
-0.909415
-0.875152
-0.841996
-0.809922
-0.778903
-0.748912
-0.719925
-0.691913
-0.664853
-0.638718
-0.613484
-0.589125
-0.565617
-0.542936
-0.521058
-0.49996
-2.77975
-2.7069
-2.63487
-2.56367
-2.49337
-2.424
-2.3556
-2.28821
-2.22187
-2.1566
-2.09245
-2.02944
-1.96759
-1.90693
-1.84747
-1.78924
-1.73224
-1.67649
-1.622
-1.56877
-1.5168
-1.4661
-1.41665
-1.36846
-1.32153
-1.27583
-1.23137
-1.18812
-1.14608
-1.10522
-1.06554
-1.02702
-0.989635
-0.953368
-0.918201
-0.884111
-0.851079
-0.819083
-0.788102
-0.758113
-0.729094
-0.701022
-0.673877
-0.647635
-0.622274
-0.597771
-0.574106
-0.551255
-0.529197
-0.507911
-2.81542
-2.73439
-2.65537
-2.57829
-2.50305
-2.42959
-2.35786
-2.28779
-2.21934
-2.15246
-2.08712
-2.02328
-1.96091
-1.89999
-1.84049
-1.78239
-1.72566
-1.6703
-1.61627
-1.56357
-1.51217
-1.46207
-1.41325
-1.36568
-1.31936
-1.27426
-1.23038
-1.18768
-1.14617
-1.10581
-1.0666
-1.0285
-0.99151
-0.955603
-0.920761
-0.886963
-0.854191
-0.822424
-0.79164
-0.761821
-0.732945
-0.704992
-0.67794
-0.65177
-0.62646
-0.601991
-0.57834
-0.555488
-0.533415
-0.5121
-2.86785
-2.77931
-2.69347
-2.61022
-2.52947
-2.45111
-2.37504
-2.30117
-2.2294
-2.15966
-2.09186
-2.02594
-1.96181
-1.89942
-1.83872
-1.77964
-1.72215
-1.66618
-1.61172
-1.55871
-1.50712
-1.45692
-1.40807
-1.36056
-1.31434
-1.2694
-1.22571
-1.18323
-1.14196
-1.10186
-1.06291
-1.02508
-0.988366
-0.952731
-0.918155
-0.884618
-0.852097
-0.82057
-0.790017
-0.760415
-0.731743
-0.703981
-0.677107
-0.6511
-0.625941
-0.601608
-0.578082
-0.555342
-0.533368
-0.51214
-0.292376
-0.285463
-0.278661
-0.271969
-0.265386
-0.258913
-0.252548
-0.246291
-0.240141
-0.234098
-0.228161
-0.222329
-0.216602
-0.210978
-0.205458
-0.200039
-0.194723
-0.189507
-0.18439
-0.179373
-0.174455
-0.169633
-0.164908
-0.160279
-0.155744
-0.151303
-0.146955
-0.142699
-0.138533
-0.134457
-0.13047
-0.126572
-0.122759
-0.119033
-0.115392
-0.111834
-0.108359
-0.104965
-0.101652
-0.0984181
-0.0952627
-0.0921845
-0.0891825
-0.0862554
-0.0834021
-0.0806217
-0.0779128
-0.0752745
-0.0727055
-0.0702047
-0.067771
-0.0654033
-0.0631004
-0.0608611
-0.0586844
-0.0565692
-0.0545141
-0.0525183
-0.0505804
-0.0486994
-0.0468742
-0.0451037
-0.0433867
-0.0417221
-0.0401088
-0.0385458
-0.037032
-0.0355662
-0.0341474
-0.0327746
-0.0314466
-0.0301625
-0.0289212
-0.0277216
-0.0265628
-0.0254438
-0.0243635
-0.023321
-0.0223153
-0.0213455
-0.0204105
-0.0195095
-0.0186415
-0.0178057
-0.0170011
-0.0162269
-0.0154821
-0.014766
-0.0140776
-0.0134162
-0.012781
-0.0121711
-0.0115857
-0.0110242
-0.0104857
-0.00996947
-0.00947484
-0.00900106
-0.00854746
-0.00811335
-0.00769806
-0.00730095
-0.00692137
-0.00655871
-0.00621236
-0.00588174
-0.00556626
-0.00526536
-0.0049785
-0.00470515
-0.00444478
-0.00419689
-0.00396099
-0.0037366
-0.00352327
-0.00332054
-0.00312797
-0.00294515
-0.00277167
-0.00260712
-0.00245112
-0.00230331
-0.00216332
-0.00203081
-0.00190543
-0.00178687
-0.00167482
-0.00156896
-0.00146901
-0.0013747
-0.00128574
-0.00120189
-0.00112289
-0.00104849
-0.000978484
-0.000912633
-0.000850728
-0.000792568
-0.000737955
-0.000686704
-0.000638636
-0.000593579
-0.00055137
-0.000511852
-0.000474876
-0.0004403
-0.000407987
-0.000377808
-0.000349641
-0.000323366
-0.000298874
-0.000276057
-0.000254814
-0.00023505
-0.000216675
-0.000199601
-0.000183748
-0.000169038
-0.000155398
-0.000142758
-0.000131055
-0.000120225
-0.000110211
-0.000100958
-9.2414e-05
-8.45309e-05
-7.72627e-05
-7.05664e-05
-6.44017e-05
-5.87306e-05
-5.35176e-05
-4.87294e-05
-4.43348e-05
-4.03045e-05
-3.66113e-05
-3.32297e-05
-3.01359e-05
-2.73077e-05
-2.47244e-05
-2.23668e-05
-2.0217e-05
-1.82582e-05
-1.64751e-05
-1.48532e-05
-1.33793e-05
-1.20411e-05
-1.0827e-05
-9.72664e-06
-8.7302e-06
-7.82869e-06
-7.0138e-06
-6.2779e-06
-5.61395e-06
-5.01548e-06
-4.47654e-06
-3.99166e-06
-3.55586e-06
-3.16453e-06
-2.8135e-06
-2.49892e-06
-2.21729e-06
-1.96541e-06
-1.74036e-06
-1.53951e-06
-1.36042e-06
-1.20093e-06
-1.05898e-06
-9.32846e-07
-8.2085e-07
-7.21535e-07
-6.33529e-07
-5.55654e-07
-4.86815e-07
-4.26039e-07
-3.7241e-07
-3.25187e-07
-2.8362e-07
-2.47082e-07
-2.15014e-07
-1.86884e-07
-1.62246e-07
-1.40688e-07
-1.21852e-07
-1.05408e-07
-9.10842e-08
-7.8605e-08
-6.77549e-08
-5.83343e-08
-5.01533e-08
-4.30691e-08
-3.6952e-08
-3.16501e-08
-2.70778e-08
-2.31359e-08
-1.97514e-08
-1.68331e-08
-1.43267e-08
-1.21813e-08
-1.03443e-08
-8.77115e-09
-7.43299e-09
-6.28061e-09
-5.3017e-09
-4.47452e-09
-3.7692e-09
-3.17292e-09
-2.66606e-09
-2.22939e-09
-1.87319e-09
-1.58166e-09
-1.30004e-09
-1.08766e-09
-9.02634e-10
-7.7334e-10
-6.16083e-10
-5.01791e-10
-4.46426e-10
-3.63431e-10
-2.77877e-10
-2.5421e-10
-1.86841e-10
-1.60738e-10
-1.48328e-10
-1.09026e-10
-5.85797e-11
-5.0018e-11
-5.54686e-11
-4.7833e-11
-5.42969e-11
-4.48235e-11
-2.34341e-11
-1.39597e-11
-9.22337e-12
-6.58416e-12
-4.90307e-12
-3.72262e-12
-2.84966e-12
-2.18892e-12
-1.68395e-12
-1.29638e-12
-9.98257e-13
-7.6862e-13
-5.91593e-13
-4.55077e-13
-3.4981e-13
-2.68674e-13
-2.06184e-13
-1.58104e-13
-1.21159e-13
-9.2817e-14
-7.11202e-14
-5.45578e-14
-4.19653e-14
-3.24484e-14
-2.53234e-14
-2.00713e-14
-1.63028e-14
-1.37305e-14
-1.21468e-14
-1.14054e-14
-0.301834
-0.294711
-0.287702
-0.280806
-0.274024
-0.267354
-0.260796
-0.254349
-0.248013
-0.241786
-0.235669
-0.22966
-0.223758
-0.217964
-0.212275
-0.206692
-0.201213
-0.195837
-0.190565
-0.185394
-0.180325
-0.175355
-0.170485
-0.165713
-0.161038
-0.156459
-0.151976
-0.147587
-0.143292
-0.139089
-0.134977
-0.130956
-0.127024
-0.12318
-0.119424
-0.115753
-0.112167
-0.108665
-0.105246
-0.101909
-0.0986516
-0.095474
-0.0923747
-0.0893525
-0.0864063
-0.0835349
-0.0807371
-0.0780119
-0.075358
-0.0727744
-0.0702598
-0.067813
-0.0654329
-0.0631184
-0.0608683
-0.0586814
-0.0565566
-0.0544926
-0.0524884
-0.0505428
-0.0486547
-0.0468228
-0.0450461
-0.0433235
-0.0416538
-0.0400358
-0.0384685
-0.0369508
-0.0354816
-0.0340597
-0.0326842
-0.0313538
-0.0300677
-0.0288246
-0.0276236
-0.0264636
-0.0253437
-0.0242628
-0.0232198
-0.0222139
-0.0212441
-0.0203093
-0.0194087
-0.0185413
-0.0177061
-0.0169024
-0.0161291
-0.0153854
-0.0146705
-0.0139835
-0.0133235
-0.0126897
-0.0120814
-0.0114977
-0.0109378
-0.0104011
-0.00988669
-0.0093939
-0.00892201
-0.00847032
-0.00803813
-0.00762479
-0.00722963
-0.00685202
-0.00649133
-0.00614695
-0.00581828
-0.00550476
-0.0052058
-0.00492086
-0.00464941
-0.00439092
-0.00414488
-0.00391081
-0.00368823
-0.00347667
-0.00327568
-0.00308482
-0.00290367
-0.00273182
-0.00256887
-0.00241443
-0.00226814
-0.00212963
-0.00199856
-0.00187459
-0.00175739
-0.00164665
-0.00154207
-0.00144337
-0.00135025
-0.00126246
-0.00117972
-0.0011018
-0.00102845
-0.000959442
-0.000894557
-0.000833581
-0.000776313
-0.000722557
-0.000672128
-0.000624847
-0.000580544
-0.000539056
-0.000500228
-0.000463911
-0.000429964
-0.000398251
-0.000368644
-0.00034102
-0.000315263
-0.000291263
-0.000268913
-0.000248114
-0.000228771
-0.000210794
-0.000194098
-0.000178602
-0.000164229
-0.000150907
-0.000138569
-0.000127148
-0.000116586
-0.000106823
-9.78065e-05
-8.9485e-05
-8.18106e-05
-7.47382e-05
-6.82255e-05
-6.22328e-05
-5.67226e-05
-5.16601e-05
-4.70124e-05
-4.2749e-05
-3.88411e-05
-3.52619e-05
-3.19865e-05
-2.89915e-05
-2.62552e-05
-2.37572e-05
-2.14786e-05
-1.94021e-05
-1.75113e-05
-1.5791e-05
-1.42272e-05
-1.2807e-05
-1.15183e-05
-1.03499e-05
-9.29161e-06
-8.33386e-06
-7.46795e-06
-6.68575e-06
-5.97985e-06
-5.34341e-06
-4.77012e-06
-4.25423e-06
-3.79043e-06
-3.37388e-06
-3.00012e-06
-2.66509e-06
-2.36509e-06
-2.09674e-06
-1.85689e-06
-1.6428e-06
-1.45186e-06
-1.28176e-06
-1.13039e-06
-9.95827e-07
-8.76339e-07
-7.70341e-07
-6.76413e-07
-5.93279e-07
-5.19799e-07
-4.54897e-07
-3.97635e-07
-3.47196e-07
-3.02793e-07
-2.63788e-07
-2.29495e-07
-1.99469e-07
-1.73135e-07
-1.50101e-07
-1.29988e-07
-1.12426e-07
-9.71114e-08
-8.3779e-08
-7.21912e-08
-6.21373e-08
-5.34028e-08
-4.58449e-08
-3.92928e-08
-3.36534e-08
-2.87714e-08
-2.45715e-08
-2.09627e-08
-1.78448e-08
-1.51818e-08
-1.28954e-08
-1.0947e-08
-9.2667e-09
-7.84164e-09
-6.62058e-09
-5.5913e-09
-4.70925e-09
-3.9662e-09
-3.32531e-09
-2.79193e-09
-2.33352e-09
-1.9595e-09
-1.62032e-09
-1.38107e-09
-1.1157e-09
-9.52537e-10
-7.75352e-10
-6.60087e-10
-5.28727e-10
-4.60501e-10
-3.64746e-10
-2.86474e-10
-2.58313e-10
-1.97705e-10
-1.55286e-10
-1.52892e-10
-1.1648e-10
-5.92329e-11
-5.80797e-11
-4.82627e-11
-5.48723e-11
-4.71344e-11
-5.08572e-11
-3.41255e-11
-1.90832e-11
-1.24875e-11
-9.03104e-12
-6.82463e-12
-5.25161e-12
-4.06831e-12
-3.15767e-12
-2.4511e-12
-1.90153e-12
-1.47389e-12
-1.14121e-12
-8.82564e-13
-6.8165e-13
-5.25759e-13
-4.04965e-13
-3.11508e-13
-2.39325e-13
-1.8368e-13
-1.40876e-13
-1.08035e-13
-8.29199e-14
-6.37971e-14
-4.93288e-14
-3.84881e-14
-3.04929e-14
-2.4755e-14
-2.08391e-14
-1.84304e-14
-1.73064e-14
-0.311771
-0.30443
-0.297207
-0.290101
-0.283111
-0.276236
-0.269477
-0.262832
-0.2563
-0.249882
-0.243575
-0.23738
-0.231296
-0.225322
-0.219457
-0.2137
-0.20805
-0.202507
-0.19707
-0.191738
-0.186509
-0.181383
-0.17636
-0.171437
-0.166614
-0.161891
-0.157266
-0.152737
-0.148305
-0.143968
-0.139725
-0.135574
-0.131516
-0.127548
-0.12367
-0.11988
-0.116178
-0.112562
-0.109031
-0.105584
-0.10222
-0.0989377
-0.0957359
-0.0926135
-0.0895693
-0.0866022
-0.0837108
-0.0808942
-0.078151
-0.07548
-0.0728802
-0.0703503
-0.0678891
-0.0654953
-0.063168
-0.0609057
-0.0587074
-0.0565719
-0.0544979
-0.0524843
-0.0505299
-0.0486336
-0.0467942
-0.0450105
-0.0432814
-0.0416056
-0.0399822
-0.0384099
-0.0368875
-0.0354141
-0.0339885
-0.0326096
-0.0312762
-0.0299874
-0.028742
-0.027539
-0.0263773
-0.0252559
-0.0241738
-0.02313
-0.0221234
-0.0211531
-0.0202181
-0.0193174
-0.0184501
-0.0176153
-0.016812
-0.0160394
-0.0152965
-0.0145824
-0.0138964
-0.0132375
-0.012605
-0.0119979
-0.0114156
-0.0108572
-0.010322
-0.00980914
-0.00931797
-0.00884774
-0.00839774
-0.00796729
-0.0075557
-0.00716232
-0.00678649
-0.0064276
-0.00608502
-0.00575816
-0.00544644
-0.00514927
-0.00486612
-0.00459644
-0.0043397
-0.0040954
-0.00386305
-0.00364216
-0.00343226
-0.00323291
-0.00304366
-0.00286408
-0.00269378
-0.00253234
-0.00237938
-0.00223453
-0.00209743
-0.00196773
-0.00184508
-0.00172918
-0.0016197
-0.00151635
-0.00141882
-0.00132685
-0.00124016
-0.0011585
-0.00108161
-0.00100926
-0.000941208
-0.000877247
-0.000817161
-0.000760747
-0.000707812
-0.00065817
-0.000611644
-0.000568064
-0.000527268
-0.000489101
-0.000453416
-0.000420072
-0.000388934
-0.000359876
-0.000332774
-0.000307514
-0.000283986
-0.000262084
-0.000241711
-0.000222771
-0.000205177
-0.000188842
-0.000173688
-0.000159639
-0.000146623
-0.000134572
-0.000123424
-0.000113117
-0.000103595
-9.48054e-05
-8.66967e-05
-7.92221e-05
-7.23371e-05
-6.6e-05
-6.01717e-05
-5.48154e-05
-4.98966e-05
-4.53833e-05
-4.12451e-05
-3.74541e-05
-3.39838e-05
-3.08097e-05
-2.79088e-05
-2.526e-05
-2.28432e-05
-2.064e-05
-1.86333e-05
-1.6807e-05
-1.51464e-05
-1.36379e-05
-1.22686e-05
-1.10268e-05
-9.90177e-06
-8.88332e-06
-7.96223e-06
-7.12997e-06
-6.37869e-06
-5.70114e-06
-5.09065e-06
-4.54114e-06
-4.04697e-06
-3.60302e-06
-3.20457e-06
-2.84733e-06
-2.52733e-06
-2.24099e-06
-1.98507e-06
-1.75651e-06
-1.55266e-06
-1.37099e-06
-1.20929e-06
-1.06551e-06
-9.3779e-07
-8.24491e-07
-7.24061e-07
-6.35151e-07
-5.56541e-07
-4.87099e-07
-4.25834e-07
-3.71835e-07
-3.24319e-07
-2.82526e-07
-2.45835e-07
-2.1365e-07
-1.85455e-07
-1.60781e-07
-1.39234e-07
-1.204e-07
-1.04005e-07
-8.97152e-08
-7.7296e-08
-6.65156e-08
-5.71557e-08
-4.90598e-08
-4.20442e-08
-3.59925e-08
-3.07682e-08
-2.62623e-08
-2.2389e-08
-1.9069e-08
-1.61965e-08
-1.37678e-08
-1.16699e-08
-9.87879e-09
-8.35191e-09
-7.05075e-09
-5.93913e-09
-5.01541e-09
-4.20172e-09
-3.52844e-09
-2.95109e-09
-2.47346e-09
-2.07389e-09
-1.71597e-09
-1.44253e-09
-1.19328e-09
-9.90449e-10
-8.28415e-10
-6.80294e-10
-5.69252e-10
-4.6589e-10
-3.68744e-10
-3.18511e-10
-2.6072e-10
-2.15791e-10
-1.56362e-10
-1.52864e-10
-1.30138e-10
-6.96204e-11
-5.02829e-11
-5.93879e-11
-4.53381e-11
-5.40291e-11
-4.74765e-11
-4.08086e-11
-2.23769e-11
-1.43895e-11
-1.02482e-11
-7.71353e-12
-5.94729e-12
-4.62586e-12
-3.60656e-12
-2.81169e-12
-2.18997e-12
-1.70355e-12
-1.32324e-12
-1.02622e-12
-7.94554e-13
-6.14144e-13
-4.73896e-13
-3.65078e-13
-2.80821e-13
-2.15729e-13
-1.65567e-13
-1.27023e-13
-9.75104e-14
-7.50181e-14
-5.79885e-14
-4.52227e-14
-3.58054e-14
-2.90468e-14
-2.44355e-14
-2.16007e-14
-2.028e-14
-0.322059
-0.314505
-0.30707
-0.299755
-0.292559
-0.28548
-0.278519
-0.271676
-0.264948
-0.258336
-0.251838
-0.245455
-0.239185
-0.233028
-0.226982
-0.221047