/*--------------------------------*- C++ -*----------------------------------*\
| =========                 |                                                 |
| \\      /  F ield         | OpenFOAM: The Open Source CFD Toolbox           |
|  \\    /   O peration     | Version:  2.4.0                                 |
|   \\  /    A nd           | Web:      www.OpenFOAM.org                      |
|    \\/     M anipulation  |                                                 |
\*---------------------------------------------------------------------------*/
FoamFile
{
    version     2.0;
    format      ascii;
    class       surfaceScalarField;
    location    "1.4";
    object      phi;
}
// * * * * * * * * * * * * * * * * * * * * * * * * * * * * * * * * * * * * * //

dimensions      [0 3 -1 0 0 0 0];

internalField   nonuniform List<scalar> 
15580
(
-3.05502e-15
-1.9406e-12
-1.46135e-14
-5.67866e-12
-3.67572e-14
-9.27361e-12
-7.13451e-14
-1.27255e-11
-1.20114e-13
-1.60344e-11
-1.8469e-13
-1.92005e-11
-2.66615e-13
-2.22236e-11
-3.67354e-13
-2.51038e-11
-4.88323e-13
-2.78412e-11
-6.30898e-13
-3.04356e-11
-7.96437e-13
-3.28871e-11
-9.86288e-13
-3.51955e-11
-1.20182e-12
-3.73608e-11
-1.44443e-12
-3.93828e-11
-1.71556e-12
-4.12614e-11
-2.01671e-12
-4.29964e-11
-2.34949e-12
-4.45877e-11
-2.7156e-12
-4.60349e-11
-3.11687e-12
-4.73379e-11
-3.55528e-12
-4.84964e-11
-4.03303e-12
-4.95101e-11
-4.55239e-12
-5.03786e-11
-5.11591e-12
-5.11016e-11
-5.72644e-12
-5.16783e-11
-6.38844e-12
-5.21071e-11
-7.10874e-12
-5.23869e-11
-1.46108e-11
-5.25249e-11
-3.47373e-11
-5.25899e-11
-3.55826e-11
-5.25486e-11
-3.64605e-11
-5.24501e-11
-3.73477e-11
-5.24174e-11
-3.82546e-11
-5.22901e-11
-3.91685e-11
-5.21241e-11
-4.00821e-11
-5.19527e-11
-4.09928e-11
-5.17837e-11
-4.19007e-11
-5.16179e-11
-4.2806e-11
-5.14548e-11
-4.3709e-11
-5.12935e-11
-4.46098e-11
-5.11331e-11
-4.55084e-11
-5.09724e-11
-4.64047e-11
-5.08107e-11
-4.72984e-11
-5.06471e-11
-4.81893e-11
-5.04812e-11
-4.90771e-11
-5.03124e-11
-4.99613e-11
-5.01404e-11
-5.08418e-11
-4.9965e-11
-5.17181e-11
-4.97859e-11
-5.25899e-11
-4.96029e-11
-5.3457e-11
-4.94158e-11
-4.92246e-11
-5.43191e-11
-9.50635e-15
-1.93109e-12
-3.98898e-14
-5.64827e-12
-9.1898e-14
-9.2216e-12
-1.65723e-13
-1.26517e-11
-2.61525e-13
-1.59386e-11
-3.79416e-13
-1.90826e-11
-5.19479e-13
-2.20835e-11
-6.81745e-13
-2.49415e-11
-8.66226e-13
-2.76567e-11
-1.07287e-12
-3.0229e-11
-1.30161e-12
-3.26583e-11
-1.55231e-12
-3.49448e-11
-1.82483e-12
-3.70883e-11
-2.1189e-12
-3.90887e-11
-2.4343e-12
-4.0946e-11
-2.77065e-12
-4.26601e-11
-3.12759e-12
-4.42307e-11
-3.50457e-12
-4.56579e-11
-3.90112e-12
-4.69414e-11
-4.31646e-12
-4.80811e-11
-4.74994e-12
-4.90766e-11
-5.2005e-12
-4.99281e-11
-5.66728e-12
-5.06348e-11
-6.14882e-12
-5.11968e-11
-6.64395e-12
-5.1612e-11
-7.15061e-12
-5.18802e-11
-2.75922e-11
-5.20108e-11
-3.94311e-11
-5.2045e-11
-3.99786e-11
-5.20011e-11
-4.05433e-11
-5.18855e-11
-4.11317e-11
-5.18289e-11
-4.174e-11
-5.16818e-11
-4.23671e-11
-5.14971e-11
-4.30124e-11
-5.13074e-11
-4.36748e-11
-5.11213e-11
-4.43532e-11
-5.09395e-11
-4.50463e-11
-5.07617e-11
-4.57529e-11
-5.05869e-11
-4.64717e-11
-5.04143e-11
-4.72012e-11
-5.02428e-11
-4.79403e-11
-5.00716e-11
-4.86876e-11
-4.98998e-11
-4.9442e-11
-4.97268e-11
-5.02025e-11
-4.95519e-11
-5.0968e-11
-4.93749e-11
-5.17378e-11
-4.91952e-11
-5.2511e-11
-4.90127e-11
-5.32869e-11
-4.88269e-11
-5.40649e-11
-4.86378e-11
-4.84452e-11
-5.48443e-11
-2.78346e-14
-1.90326e-12
-1.05473e-13
-5.57064e-12
-2.28888e-13
-9.09819e-12
-3.95095e-13
-1.24855e-11
-6.01377e-13
-1.57324e-11
-8.45245e-13
-1.88387e-11
-1.12439e-12
-2.18044e-11
-1.43665e-12
-2.46293e-11
-1.77998e-12
-2.73133e-11
-2.15242e-12
-2.98565e-11
-2.55201e-12
-3.22587e-11
-2.97686e-12
-3.45199e-11
-3.42499e-12
-3.66401e-11
-3.89443e-12
-3.86193e-11
-4.38305e-12
-4.04574e-11
-4.88865e-12
-4.21545e-11
-5.40882e-12
-4.37106e-11
-5.94101e-12
-4.51258e-11
-6.48231e-12
-4.64001e-11
-7.02965e-12
-4.75338e-11
-7.57952e-12
-4.85267e-11
-8.12825e-12
-4.93793e-11
-8.6717e-12
-5.00914e-11
-9.20494e-12
-5.06636e-11
-9.71965e-12
-5.10973e-11
-1.06215e-11
-5.13965e-11
-4.33135e-11
-5.15732e-11
-4.37817e-11
-5.15768e-11
-4.42205e-11
-5.15623e-11
-4.46702e-11
-5.14357e-11
-4.514e-11
-5.13592e-11
-4.56262e-11
-5.11956e-11
-4.61277e-11
-5.09956e-11
-4.66455e-11
-5.07896e-11
-4.71802e-11
-5.05865e-11
-4.77318e-11
-5.03879e-11
-4.82997e-11
-5.01937e-11
-4.88832e-11
-5.00035e-11
-4.94812e-11
-4.98163e-11
-5.00927e-11
-4.96313e-11
-5.07168e-11
-4.94476e-11
-5.13523e-11
-4.92643e-11
-5.19984e-11
-4.90807e-11
-5.26542e-11
-4.88961e-11
-5.33189e-11
-4.87102e-11
-5.39917e-11
-4.85224e-11
-5.4672e-11
-4.83324e-11
-5.5359e-11
-4.81399e-11
-5.60521e-11
-4.79447e-11
-4.77466e-11
-5.67508e-11
-2.16834e-14
-1.88158e-12
-8.45162e-14
-5.5078e-12
-1.86572e-13
-8.99613e-12
-3.26125e-13
-1.23459e-11
-5.01551e-13
-1.55569e-11
-7.1133e-13
-1.86289e-11
-9.54021e-13
-2.15617e-11
-1.22827e-12
-2.4355e-11
-1.53276e-12
-2.70089e-11
-1.86627e-12
-2.9523e-11
-2.22757e-12
-3.18974e-11
-2.61553e-12
-3.4132e-11
-3.02899e-12
-3.62267e-11
-3.46684e-12
-3.81814e-11
-3.92794e-12
-3.99963e-11
-4.41122e-12
-4.16712e-11
-4.91553e-12
-4.32062e-11
-5.43979e-12
-4.46015e-11
-5.9828e-12
-4.58571e-11
-6.5435e-12
-4.69731e-11
-7.12064e-12
-4.79496e-11
-7.7131e-12
-4.87869e-11
-8.31944e-12
-4.94851e-11
-8.93852e-12
-5.00445e-11
-9.56991e-12
-5.04659e-11
-1.0688e-11
-5.07499e-11
-4.00737e-11
-5.09154e-11
-4.07138e-11
-5.09368e-11
-4.13842e-11
-5.08919e-11
-4.20344e-11
-5.07856e-11
-4.2687e-11
-5.07066e-11
-4.33451e-11
-5.05374e-11
-4.40069e-11
-5.03338e-11
-4.46722e-11
-5.01243e-11
-4.53412e-11
-4.99175e-11
-4.60143e-11
-4.97148e-11
-4.66918e-11
-4.95162e-11
-4.7374e-11
-4.93212e-11
-4.80611e-11
-4.91292e-11
-4.87532e-11
-4.89393e-11
-4.94501e-11
-4.87507e-11
-5.01518e-11
-4.85626e-11
-5.08581e-11
-4.83743e-11
-5.15688e-11
-4.81854e-11
-5.22837e-11
-4.79953e-11
-5.30025e-11
-4.78036e-11
-5.37248e-11
-4.761e-11
-5.44505e-11
-4.74142e-11
-5.51791e-11
-4.72161e-11
-4.70153e-11
-5.59104e-11
-6.07195e-15
-1.8755e-12
-2.75005e-14
-5.48637e-12
-6.61101e-14
-8.95752e-12
-1.22983e-13
-1.22891e-11
-1.99067e-13
-1.54809e-11
-2.95198e-13
-1.85328e-11
-4.12119e-13
-2.14447e-11
-5.50498e-13
-2.42167e-11
-7.10947e-13
-2.68484e-11
-8.94034e-13
-2.93399e-11
-1.10031e-12
-3.16911e-11
-1.33029e-12
-3.3902e-11
-1.58453e-12
-3.59724e-11
-1.86356e-12
-3.79024e-11
-2.16799e-12
-3.96918e-11
-2.49843e-12
-4.13407e-11
-2.85559e-12
-4.28491e-11
-3.24025e-12
-4.42169e-11
-3.65328e-12
-4.5444e-11
-4.09567e-12
-4.65307e-11
-4.56858e-12
-4.74767e-11
-5.07329e-12
-4.82821e-11
-5.61136e-12
-4.8947e-11
-6.1846e-12
-4.94712e-11
-6.79498e-12
-4.98555e-11
-8.69505e-12
-5.01013e-11
-3.63944e-11
-5.02354e-11
-3.70896e-11
-5.02416e-11
-3.78111e-11
-5.01703e-11
-3.85235e-11
-5.00732e-11
-3.92969e-11
-4.99332e-11
-4.01011e-11
-4.97333e-11
-4.09203e-11
-4.95146e-11
-4.17495e-11
-4.92951e-11
-4.25864e-11
-4.90806e-11
-4.34291e-11
-4.88721e-11
-4.4276e-11
-4.86693e-11
-4.51257e-11
-4.84715e-11
-4.59772e-11
-4.82777e-11
-4.68294e-11
-4.8087e-11
-4.76817e-11
-4.78984e-11
-4.85334e-11
-4.77109e-11
-4.9384e-11
-4.75238e-11
-5.02329e-11
-4.73365e-11
-5.10798e-11
-4.71484e-11
-5.19243e-11
-4.69591e-11
-5.27662e-11
-4.67681e-11
-5.36052e-11
-4.65753e-11
-5.4441e-11
-4.63803e-11
-4.61829e-11
-5.52734e-11
-5.58256e-15
-1.86992e-12
-2.23113e-14
-5.46965e-12
-5.11368e-14
-8.9287e-12
-9.34522e-14
-1.22467e-11
-1.5062e-13
-1.54237e-11
-2.23967e-13
-1.84594e-11
-3.14793e-13
-2.13539e-11
-4.24368e-13
-2.41071e-11
-5.5394e-13
-2.67188e-11
-7.04728e-13
-2.91891e-11
-8.77945e-13
-3.15179e-11
-1.07477e-12
-3.37052e-11
-1.29639e-12
-3.57508e-11
-1.54396e-12
-3.76548e-11
-1.81866e-12
-3.94171e-11
-2.12161e-12
-4.10378e-11
-2.454e-12
-4.25167e-11
-2.81695e-12
-4.38539e-11
-3.21162e-12
-4.50494e-11
-3.63911e-12
-4.61032e-11
-4.10059e-12
-4.70152e-11
-4.59711e-12
-4.77856e-11
-5.12989e-12
-4.84142e-11
-5.70008e-12
-4.8901e-11
-6.30853e-12
-4.9247e-11
-9.63066e-12
-4.94557e-11
-3.56049e-11
-4.9563e-11
-3.6289e-11
-4.95575e-11
-3.70107e-11
-4.94487e-11
-3.77217e-11
-4.93621e-11
-3.84772e-11
-4.91776e-11
-3.92575e-11
-4.8953e-11
-4.00492e-11
-4.87229e-11
-4.08478e-11
-4.84966e-11
-4.16523e-11
-4.82761e-11
-4.24625e-11
-4.80619e-11
-4.32781e-11
-4.78536e-11
-4.40989e-11
-4.76507e-11
-4.49245e-11
-4.74522e-11
-4.57543e-11
-4.72572e-11
-4.65878e-11
-4.70648e-11
-4.74245e-11
-4.68742e-11
-4.82637e-11
-4.66845e-11
-4.9105e-11
-4.64952e-11
-4.99477e-11
-4.63057e-11
-5.07913e-11
-4.61155e-11
-5.16352e-11
-4.59242e-11
-5.24789e-11
-4.57316e-11
-5.33219e-11
-4.55372e-11
-4.5341e-11
-5.41638e-11
-2.63863e-16
-1.86966e-12
-4.10434e-15
-5.46581e-12
-1.40893e-14
-8.91871e-12
-3.24874e-14
-1.22283e-11
-6.14367e-14
-1.53947e-11
-1.02985e-13
-1.84179e-11
-1.59086e-13
-2.12978e-11
-2.31646e-13
-2.40345e-11
-3.2251e-13
-2.6628e-11
-4.33522e-13
-2.90781e-11
-5.6649e-13
-3.1385e-11
-7.23271e-13
-3.35484e-11
-9.05711e-13
-3.55684e-11
-1.11576e-12
-3.74448e-11
-1.35538e-12
-3.91775e-11
-1.62671e-12
-4.07665e-11
-1.93191e-12
-4.22115e-11
-2.27338e-12
-4.35124e-11
-2.65359e-12
-4.46692e-11
-3.07532e-12
-4.56814e-11
-3.54145e-12
-4.65491e-11
-4.05534e-12
-4.72717e-11
-4.62067e-12
-4.78489e-11
-5.24169e-12
-4.828e-11
-5.92085e-12
-4.85679e-11
-1.2304e-11
-4.87222e-11
-3.53055e-11
-4.87781e-11
-3.61228e-11
-4.87402e-11
-3.69791e-11
-4.85924e-11
-3.78451e-11
-4.84962e-11
-3.87125e-11
-4.83102e-11
-3.9579e-11
-4.80864e-11
-4.04442e-11
-4.78577e-11
-4.13083e-11
-4.76325e-11
-4.21721e-11
-4.74124e-11
-4.30361e-11
-4.71979e-11
-4.39009e-11
-4.69888e-11
-4.47666e-11
-4.67849e-11
-4.56333e-11
-4.65856e-11
-4.65006e-11
-4.63899e-11
-4.73683e-11
-4.61971e-11
-4.82361e-11
-4.60064e-11
-4.91036e-11
-4.58171e-11
-4.99704e-11
-4.56284e-11
-5.08363e-11
-4.54399e-11
-5.17008e-11
-4.5251e-11
-5.25637e-11
-4.50614e-11
-5.34245e-11
-4.48707e-11
-5.42831e-11
-4.46787e-11
-4.4485e-11
-5.5139e-11
-3.39805e-15
-1.86626e-12
-1.67641e-14
-5.45244e-12
-4.19731e-14
-8.8935e-12
-8.02107e-14
-1.21901e-11
-1.32514e-13
-1.53424e-11
-1.99814e-13
-1.83506e-11
-2.8293e-13
-2.12147e-11
-3.82618e-13
-2.39348e-11
-4.99555e-13
-2.6511e-11
-6.34399e-13
-2.89433e-11
-7.87748e-13
-3.12316e-11
-9.60231e-13
-3.33759e-11
-1.15244e-12
-3.53762e-11
-1.36503e-12
-3.72322e-11
-1.59864e-12
-3.89439e-11
-1.85406e-12
-4.0511e-11
-2.13204e-12
-4.19335e-11
-2.43353e-12
-4.32109e-11
-2.75951e-12
-4.43432e-11
-3.11123e-12
-4.53297e-11
-3.48981e-12
-4.61705e-11
-3.89645e-12
-4.68651e-11
-4.33248e-12
-4.74128e-11
-4.80282e-12
-4.78097e-11
-5.32016e-12
-4.80505e-11
-1.8302e-11
-4.81406e-11
-3.5254e-11
-4.81956e-11
-3.58584e-11
-4.81358e-11
-3.65198e-11
-4.79309e-11
-3.72233e-11
-4.77928e-11
-3.79638e-11
-4.75696e-11
-3.87337e-11
-4.73165e-11
-3.95268e-11
-4.70646e-11
-4.0338e-11
-4.68214e-11
-4.11626e-11
-4.65877e-11
-4.19974e-11
-4.63631e-11
-4.28396e-11
-4.61466e-11
-4.36875e-11
-4.59371e-11
-4.45396e-11
-4.57334e-11
-4.53952e-11
-4.55343e-11
-4.62535e-11
-4.53388e-11
-4.7114e-11
-4.51459e-11
-4.79762e-11
-4.49548e-11
-4.88398e-11
-4.47648e-11
-4.97043e-11
-4.45754e-11
-5.05693e-11
-4.4386e-11
-5.14345e-11
-4.41962e-11
-5.22994e-11
-4.40058e-11
-5.31638e-11
-4.38143e-11
-4.36217e-11
-5.40271e-11
-2.41233e-14
-1.84214e-12
-9.14521e-14
-5.38511e-12
-1.98252e-13
-8.7867e-12
-3.4153e-13
-1.20468e-11
-5.18523e-13
-1.51654e-11
-7.2662e-13
-1.81425e-11
-9.63374e-13
-2.0978e-11
-1.2264e-12
-2.36718e-11
-1.51344e-12
-2.6224e-11
-1.82221e-12
-2.86345e-11
-2.15047e-12
-3.09033e-11
-2.49593e-12
-3.30305e-11
-2.85628e-12
-3.50158e-11
-3.22903e-12
-3.68594e-11
-3.61169e-12
-3.85612e-11
-4.00145e-12
-4.01213e-11
-4.39546e-12
-4.15395e-11
-4.7904e-12
-4.2816e-11
-5.18288e-12
-4.39507e-11
-5.56888e-12
-4.49437e-11
-5.94446e-12
-4.5795e-11
-6.30525e-12
-4.65043e-11
-6.64628e-12
-4.70718e-11
-6.95665e-12
-4.74993e-11
-7.21443e-12
-4.77928e-11
-4.54228e-11
-4.79673e-11
-4.58795e-11
-4.79532e-11
-4.6089e-11
-4.79263e-11
-4.63649e-11
-4.7655e-11
-4.66962e-11
-4.74615e-11
-4.70739e-11
-4.71919e-11
-4.74917e-11
-4.68987e-11
-4.79428e-11
-4.66135e-11
-4.84205e-11
-4.63437e-11
-4.89196e-11
-4.60886e-11
-4.94365e-11
-4.58462e-11
-4.99691e-11
-4.5614e-11
-5.05165e-11
-4.53897e-11
-5.10783e-11
-4.51716e-11
-5.16544e-11
-4.49582e-11
-5.22448e-11
-4.47485e-11
-5.28493e-11
-4.45415e-11
-5.34675e-11
-4.43366e-11
-5.40991e-11
-4.41333e-11
-5.47433e-11
-4.39311e-11
-5.53994e-11
-4.37298e-11
-5.60668e-11
-4.35289e-11
-5.67444e-11
-4.33281e-11
-5.74314e-11
-4.31273e-11
-4.29261e-11
-5.8127e-11
-2.55169e-14
-1.81662e-12
-9.72678e-14
-5.31336e-12
-2.11721e-13
-8.67225e-12
-3.66064e-13
-1.18925e-11
-5.5769e-13
-1.49738e-11
-7.84162e-13
-1.7916e-11
-1.04319e-12
-2.07189e-11
-1.3326e-12
-2.33824e-11
-1.65033e-12
-2.59063e-11
-1.99436e-12
-2.82905e-11
-2.36276e-12
-3.0535e-11
-2.75359e-12
-3.26396e-11
-3.16495e-12
-3.46045e-11
-3.59488e-12
-3.64295e-11
-4.04145e-12
-3.81147e-11
-4.5026e-12
-3.96601e-11
-4.97624e-12
-4.10659e-11
-5.46014e-12
-4.23321e-11
-5.952e-12
-4.34588e-11
-6.44931e-12
-4.44464e-11
-6.94943e-12
-4.52948e-11
-7.44917e-12
-4.60046e-11
-7.94505e-12
-4.65759e-11
-8.43428e-12
-4.70101e-11
-9.37113e-12
-4.73074e-11
-4.19143e-11
-4.74795e-11
-4.23664e-11
-4.75011e-11
-4.28434e-11
-4.74493e-11
-4.33115e-11
-4.7187e-11
-4.38011e-11
-4.69719e-11
-4.4315e-11
-4.6678e-11
-4.48494e-11
-4.63643e-11
-4.54026e-11
-4.60603e-11
-4.59732e-11
-4.57731e-11
-4.65599e-11
-4.55019e-11
-4.71617e-11
-4.52444e-11
-4.77778e-11
-4.49978e-11
-4.84076e-11
-4.476e-11
-4.90504e-11
-4.45288e-11
-4.97056e-11
-4.4303e-11
-5.03728e-11
-4.40813e-11
-5.10513e-11
-4.3863e-11
-5.17405e-11
-4.36473e-11
-5.24399e-11
-4.34339e-11
-5.31489e-11
-4.32222e-11
-5.38667e-11
-4.3012e-11
-5.45927e-11
-4.28029e-11
-5.53263e-11
-4.25946e-11
-5.60667e-11
-4.23868e-11
-4.21794e-11
-5.68135e-11
-7.32928e-15
-1.80929e-12
-3.26052e-14
-5.28808e-12
-7.73902e-14
-8.62747e-12
-1.42355e-13
-1.18275e-11
-2.28037e-13
-1.48881e-11
-3.34887e-13
-1.78092e-11
-4.63261e-13
-2.05906e-11
-6.13469e-13
-2.32322e-11
-7.85763e-13
-2.5734e-11
-9.80392e-13
-2.80959e-11
-1.19757e-12
-3.03178e-11
-1.43755e-12
-3.23996e-11
-1.70058e-12
-3.43414e-11
-1.98698e-12
-3.61431e-11
-2.29711e-12
-3.78045e-11
-2.63145e-12
-3.93258e-11
-2.99053e-12
-4.07068e-11
-3.37507e-12
-4.19475e-11
-3.78589e-12
-4.3048e-11
-4.22408e-12
-4.40082e-11
-4.69083e-12
-4.48281e-11
-5.18777e-12
-4.55076e-11
-5.7168e-12
-4.60469e-11
-6.2805e-12
-4.64464e-11
-7.57764e-12
-4.67069e-11
-3.83899e-11
-4.68503e-11
-3.90329e-11
-4.68581e-11
-3.97355e-11
-4.67467e-11
-4.0427e-11
-4.64954e-11
-4.11752e-11
-4.62237e-11
-4.1947e-11
-4.59062e-11
-4.27275e-11
-4.55838e-11
-4.35137e-11
-4.52741e-11
-4.43054e-11
-4.49814e-11
-4.51026e-11
-4.47047e-11
-4.59054e-11
-4.44416e-11
-4.67135e-11
-4.41897e-11
-4.75265e-11
-4.3947e-11
-4.83438e-11
-4.37115e-11
-4.91648e-11
-4.3482e-11
-4.99889e-11
-4.32573e-11
-5.08153e-11
-4.30365e-11
-5.16436e-11
-4.2819e-11
-5.24732e-11
-4.26042e-11
-5.33038e-11
-4.23916e-11
-5.41349e-11
-4.21809e-11
-5.49663e-11
-4.19715e-11
-5.57975e-11
-4.17633e-11
-5.66283e-11
-4.1556e-11
-4.13492e-11
-5.74585e-11
-6.0135e-15
-1.80328e-12
-2.45177e-14
-5.26958e-12
-5.65059e-14
-8.59548e-12
-1.0319e-13
-1.17808e-11
-1.65716e-13
-1.48256e-11
-2.4517e-13
-1.77297e-11
-3.42591e-13
-2.04931e-11
-4.58964e-13
-2.31158e-11
-5.95247e-13
-2.55977e-11
-7.52351e-13
-2.79388e-11
-9.31175e-13
-3.0139e-11
-1.13258e-12
-3.21982e-11
-1.35743e-12
-3.41166e-11
-1.60656e-12
-3.58939e-11
-1.8808e-12
-3.75303e-11
-2.18099e-12
-3.90256e-11
-2.50796e-12
-4.03798e-11
-2.86253e-12
-4.1593e-11
-3.24555e-12
-4.2665e-11
-3.65783e-12
-4.35959e-11
-4.10021e-12
-4.43857e-11
-4.57356e-12
-4.50343e-11
-5.07889e-12
-4.55416e-11
-5.6172e-12
-4.59081e-11
-7.71103e-12
-4.61357e-11
-3.71061e-11
-4.62574e-11
-3.77085e-11
-4.62557e-11
-3.8427e-11
-4.60283e-11
-3.91286e-11
-4.57938e-11
-3.98802e-11
-4.54721e-11
-4.06601e-11
-4.51263e-11
-4.14525e-11
-4.47913e-11
-4.22521e-11
-4.44745e-11
-4.3058e-11
-4.41755e-11
-4.38704e-11
-4.38924e-11
-4.46893e-11
-4.36227e-11
-4.55148e-11
-4.33642e-11
-4.63468e-11
-4.3115e-11
-4.7185e-11
-4.28734e-11
-4.80288e-11
-4.26381e-11
-4.88779e-11
-4.24082e-11
-4.97315e-11
-4.21829e-11
-5.05892e-11
-4.19614e-11
-5.14503e-11
-4.17431e-11
-5.23142e-11
-4.15277e-11
-5.31803e-11
-4.13147e-11
-5.40482e-11
-4.11037e-11
-5.49172e-11
-4.08943e-11
-5.5787e-11
-4.06862e-11
-4.04792e-11
-5.6657e-11
-5.6018e-15
-1.79768e-12
-2.33889e-14
-5.25179e-12
-5.45538e-14
-8.56431e-12
-1.00383e-13
-1.1735e-11
-1.62161e-13
-1.47638e-11
-2.41178e-13
-1.76507e-11
-3.3872e-13
-2.03956e-11
-4.56086e-13
-2.29984e-11
-5.9457e-13
-2.54592e-11
-7.55492e-13
-2.77778e-11
-9.40165e-13
-2.99543e-11
-1.14995e-12
-3.19885e-11
-1.38618e-12
-3.38803e-11
-1.65028e-12
-3.56298e-11
-1.94366e-12
-3.72369e-11
-2.26779e-12
-3.87015e-11
-2.62415e-12
-4.00235e-11
-3.01435e-12
-4.12028e-11
-3.43993e-12
-4.22394e-11
-3.90264e-12
-4.31332e-11
-4.40424e-12
-4.38841e-11
-4.94685e-12
-4.44917e-11
-5.5322e-12
-4.49562e-11
-6.16032e-12
-4.528e-11
-1.04235e-11
-4.54697e-11
-3.7703e-11
-4.55544e-11
-3.8423e-11
-4.55357e-11
-3.9193e-11
-4.52582e-11
-3.99813e-11
-4.50055e-11
-4.07789e-11
-4.46746e-11
-4.15839e-11
-4.43213e-11
-4.23957e-11
-4.39795e-11
-4.32138e-11
-4.36564e-11
-4.40382e-11
-4.33511e-11
-4.4869e-11
-4.30616e-11
-4.5706e-11
-4.27856e-11
-4.65492e-11
-4.2521e-11
-4.73983e-11
-4.22659e-11
-4.82528e-11
-4.20189e-11
-4.91123e-11
-4.17786e-11
-4.99763e-11
-4.15443e-11
-5.08442e-11
-4.13149e-11
-5.17156e-11
-4.109e-11
-5.25899e-11
-4.08688e-11
-5.34668e-11
-4.06509e-11
-5.43455e-11
-4.04359e-11
-5.52258e-11
-4.02234e-11
-5.61071e-11
-4.0013e-11
-5.6989e-11
-3.98044e-11
-3.95972e-11
-5.7871e-11
1.14669e-16
-1.79779e-12
-2.8961e-15
-5.24878e-12
-1.1808e-14
-8.5554e-12
-2.90072e-14
-1.17178e-11
-5.6687e-14
-1.47361e-11
-9.68778e-14
-1.76105e-11
-1.51486e-13
-2.0341e-11
-2.22311e-13
-2.29276e-11
-3.11089e-13
-2.53704e-11
-4.19499e-13
-2.76694e-11
-5.49216e-13
-2.98246e-11
-7.01905e-13
-3.18358e-11
-8.79286e-13
-3.3703e-11
-1.08312e-12
-3.5426e-11
-1.31528e-12
-3.70048e-11
-1.57774e-12
-3.8439e-11
-1.87266e-12
-3.97285e-11
-2.20236e-12
-4.08731e-11
-2.56943e-12
-4.18724e-11
-2.97661e-12
-4.2726e-11
-3.42688e-12
-4.34338e-11
-3.92371e-12
-4.39948e-11
-4.47302e-12
-4.44069e-11
-5.08478e-12
-4.46682e-11
-1.24264e-11
-4.47867e-11
-3.62492e-11
-4.4845e-11
-3.6992e-11
-4.4793e-11
-3.78232e-11
-4.4427e-11
-3.86782e-11
-4.41504e-11
-3.95517e-11
-4.38011e-11
-4.0438e-11
-4.3435e-11
-4.13347e-11
-4.30829e-11
-4.224e-11
-4.2751e-11
-4.31527e-11
-4.24384e-11
-4.40717e-11
-4.21426e-11
-4.4996e-11
-4.18613e-11
-4.59247e-11
-4.15922e-11
-4.68572e-11
-4.13335e-11
-4.77925e-11
-4.10835e-11
-4.87302e-11
-4.0841e-11
-4.96694e-11
-4.0605e-11
-5.06098e-11
-4.03746e-11
-5.15507e-11
-4.0149e-11
-5.24917e-11
-3.99277e-11
-5.34324e-11
-3.97102e-11
-5.43724e-11
-3.94959e-11
-5.53113e-11
-3.92845e-11
-5.62488e-11
-3.90755e-11
-5.71845e-11
-3.88687e-11
-3.86636e-11
-5.8118e-11
-1.03836e-14
-1.78741e-12
-4.32538e-14
-5.21591e-12
-9.90671e-14
-8.49959e-12
-1.77656e-13
-1.16392e-11
-2.78845e-13
-1.4635e-11
-4.02411e-13
-1.74869e-11
-5.48127e-13
-2.01953e-11
-7.15703e-13
-2.276e-11
-9.04848e-13
-2.51813e-11
-1.11518e-12
-2.74591e-11
-1.34634e-12
-2.95934e-11
-1.59783e-12
-3.15843e-11
-1.86918e-12
-3.34316e-11
-2.15976e-12
-3.51354e-11
-2.46899e-12
-3.66955e-11
-2.79602e-12
-3.8112e-11
-3.14011e-12
-3.93845e-11
-3.50016e-12
-4.0513e-11
-3.87524e-12
-4.14973e-11
-4.26392e-12
-4.23374e-11
-4.66505e-12
-4.30327e-11
-5.07677e-12
-4.35831e-11
-5.49706e-12
-4.39866e-11
-5.92164e-12
-4.42436e-11
-2.99447e-11
-4.43649e-11
-4.37702e-11
-4.43888e-11
-4.42315e-11
-4.43316e-11
-4.47065e-11
-4.39521e-11
-4.51988e-11
-4.36581e-11
-4.57167e-11
-4.32831e-11
-4.62653e-11
-4.28864e-11
-4.68455e-11
-4.25027e-11
-4.74562e-11
-4.21403e-11
-4.80958e-11
-4.17988e-11
-4.87623e-11
-4.14762e-11
-4.94537e-11
-4.117e-11
-5.01677e-11
-4.08782e-11
-5.09024e-11
-4.05988e-11
-5.16555e-11
-4.03304e-11
-5.24252e-11
-4.00713e-11
-5.32097e-11
-3.98205e-11
-5.40073e-11
-3.9577e-11
-5.48165e-11
-3.93398e-11
-5.56361e-11
-3.91082e-11
-5.64647e-11
-3.88816e-11
-5.73014e-11
-3.86593e-11
-5.81449e-11
-3.84409e-11
-5.89946e-11
-3.82259e-11
-5.98494e-11
-3.80139e-11
-3.78045e-11
-6.07085e-11
-3.24094e-14
-1.755e-12
-1.21684e-13
-5.12664e-12
-2.62464e-13
-8.35881e-12
-4.50833e-13
-1.14509e-11
-6.83197e-13
-1.44026e-11
-9.56243e-13
-1.72139e-11
-1.26686e-12
-1.98846e-11
-1.61213e-12
-2.24148e-11
-1.98922e-12
-2.48042e-11
-2.39541e-12
-2.70529e-11
-2.82797e-12
-2.91608e-11
-3.28417e-12
-3.11281e-11
-3.76119e-12
-3.29546e-11
-4.25616e-12
-3.46405e-11
-4.76596e-12
-3.61857e-11
-5.28735e-12
-3.75906e-11
-5.81673e-12
-3.88551e-11
-6.35029e-12
-3.99795e-11
-6.88374e-12
-4.09638e-11
-7.4126e-12
-4.18085e-11
-7.93185e-12
-4.25134e-11
-8.43553e-12
-4.30794e-11
-8.91409e-12
-4.35081e-11
-9.82731e-12
-4.38039e-11
-4.71666e-11
-4.39803e-11
-4.75794e-11
-4.39759e-11
-4.79851e-11
-4.39259e-11
-4.8427e-11
-4.35102e-11
-4.88989e-11
-4.31863e-11
-4.93985e-11
-4.27835e-11
-4.99229e-11
-4.2362e-11
-5.04714e-11
-4.19542e-11
-5.10436e-11
-4.15681e-11
-5.16387e-11
-4.12037e-11
-5.22558e-11
-4.08591e-11
-5.28937e-11
-4.05321e-11
-5.35512e-11
-4.02207e-11
-5.4227e-11
-3.9923e-11
-5.49198e-11
-3.96375e-11
-5.56286e-11
-3.93626e-11
-5.63521e-11
-3.9097e-11
-5.70894e-11
-3.88397e-11
-5.78394e-11
-3.85898e-11
-5.86012e-11
-3.83464e-11
-5.93739e-11
-3.81088e-11
-6.01567e-11
-3.78765e-11
-6.09488e-11
-3.76488e-11
-6.17494e-11
-3.74253e-11
-6.25578e-11
-3.72055e-11
-3.69891e-11
-6.33732e-11
-2.21448e-14
-1.73285e-12
-8.71047e-14
-5.06168e-12
-1.9315e-13
-8.25276e-12
-3.38496e-13
-1.13055e-11
-5.21457e-13
-1.42196e-11
-7.40459e-13
-1.69949e-11
-9.93992e-13
-1.96311e-11
-1.28064e-12
-2.21281e-11
-1.59902e-12
-2.44858e-11
-1.94783e-12
-2.67041e-11
-2.32577e-12
-2.87829e-11
-2.73159e-12
-3.07223e-11
-3.16403e-12
-3.25221e-11
-3.62188e-12
-3.41826e-11
-4.10384e-12
-3.57038e-11
-4.60871e-12
-3.70857e-11
-5.13512e-12
-3.83287e-11
-5.68184e-12
-3.94327e-11
-6.24741e-12
-4.03983e-11
-6.83052e-12
-4.12254e-11
-7.4294e-12
-4.19146e-11
-8.04262e-12
-4.24662e-11
-8.66929e-12
-4.28814e-11
-9.89454e-12
-4.31612e-11
-4.34651e-11
-4.33275e-11
-4.40966e-11
-4.33444e-11
-4.47818e-11
-4.32407e-11
-4.54598e-11
-4.28322e-11
-4.61915e-11
-4.24546e-11
-4.6955e-11
-4.202e-11
-4.77387e-11
-4.15783e-11
-4.85386e-11
-4.11542e-11
-4.93524e-11
-4.07543e-11
-5.01782e-11
-4.03779e-11
-5.10146e-11
-4.00227e-11
-5.18605e-11
-3.96862e-11
-5.27149e-11
-3.93663e-11
-5.3577e-11
-3.90609e-11
-5.44462e-11
-3.87683e-11
-5.53217e-11
-3.8487e-11
-5.62032e-11
-3.82156e-11
-5.70899e-11
-3.7953e-11
-5.79815e-11
-3.76982e-11
-5.88774e-11
-3.74505e-11
-5.97772e-11
-3.7209e-11
-6.06805e-11
-3.69733e-11
-6.15867e-11
-3.67426e-11
-6.24954e-11
-3.65166e-11
-6.34062e-11
-3.62947e-11
-3.60766e-11
-6.43186e-11
-4.74527e-15
-1.72811e-12
-2.25026e-14
-5.04392e-12
-5.57708e-14
-8.21949e-12
-1.06453e-13
-1.12548e-11
-1.76298e-13
-1.41498e-11
-2.6691e-13
-1.69043e-11
-3.79802e-13
-1.95182e-11
-5.16388e-13
-2.19915e-11
-6.78051e-13
-2.43241e-11
-8.6612e-13
-2.6516e-11
-1.08195e-12
-2.85671e-11
-1.32688e-12
-3.04773e-11
-1.60234e-12
-3.22467e-11
-1.90978e-12
-3.38752e-11
-2.25082e-12
-3.53627e-11
-2.62711e-12
-3.67094e-11
-3.04055e-12
-3.79152e-11
-3.49313e-12
-3.89802e-11
-3.98715e-12
-3.99042e-11
-4.52509e-12
-4.06875e-11
-5.10999e-12
-4.13297e-11
-5.74492e-12
-4.18313e-11
-6.4322e-12
-4.21941e-11
-8.75874e-12
-4.24232e-11
-4.02709e-11
-4.25466e-11
-4.10763e-11
-4.2539e-11
-4.20502e-11
-4.22668e-11
-4.29715e-11
-4.1911e-11
-4.39559e-11
-4.14701e-11
-4.49711e-11
-4.10048e-11
-4.59961e-11
-4.05533e-11
-4.70243e-11
-4.01261e-11
-4.8054e-11
-3.97245e-11
-4.9085e-11
-3.93469e-11
-5.01168e-11
-3.89909e-11
-5.11489e-11
-3.8654e-11
-5.21812e-11
-3.8334e-11
-5.32132e-11
-3.80289e-11
-5.42449e-11
-3.77367e-11
-5.52759e-11
-3.7456e-11
-5.63061e-11
-3.71854e-11
-5.73353e-11
-3.69238e-11
-5.83633e-11
-3.66702e-11
-5.93898e-11
-3.6424e-11
-6.04146e-11
-3.61842e-11
-6.14375e-11
-3.59504e-11
-6.24582e-11
-3.57219e-11
-6.34765e-11
-3.54983e-11
-6.44922e-11
-3.52791e-11
-3.50639e-11
-6.55049e-11
7.81193e-17
-1.72819e-12
-2.17183e-15
-5.04167e-12
-9.97574e-15
-8.21169e-12
-2.67677e-14
-1.1238e-11
-5.57052e-14
-1.41208e-11
-9.97329e-14
-1.68603e-11
-1.61614e-13
-1.94563e-11
-2.4399e-13
-2.19092e-11
-3.49404e-13
-2.42187e-11
-4.80363e-13
-2.63851e-11
-6.39355e-13
-2.84081e-11
-8.28924e-13
-3.02878e-11
-1.05166e-12
-3.20239e-11
-1.31033e-12
-3.36165e-11
-1.6078e-12
-3.50653e-11
-1.94722e-12
-3.637e-11
-2.33195e-12
-3.75305e-11
-2.76572e-12
-3.85464e-11
-3.25253e-12
-3.94174e-11
-3.79687e-12
-4.01431e-11
-4.40388e-12
-4.07227e-11
-5.08043e-12
-4.11547e-11
-5.83476e-12
-4.14398e-11
-1.05439e-11
-4.15872e-11
-3.89584e-11
-4.16621e-11
-3.98885e-11
-4.16088e-11
-4.09831e-11
-4.11722e-11
-4.20996e-11
-4.07945e-11
-4.32393e-11
-4.03305e-11
-4.43946e-11
-3.98495e-11
-4.55584e-11
-3.93895e-11
-4.67264e-11
-3.89581e-11
-4.78965e-11
-3.85544e-11
-4.90675e-11
-3.8176e-11
-5.02382e-11
-3.78201e-11
-5.14079e-11
-3.74843e-11
-5.25758e-11
-3.71661e-11
-5.37413e-11
-3.68634e-11
-5.49037e-11
-3.65742e-11
-5.60628e-11
-3.62969e-11
-5.7218e-11
-3.60301e-11
-5.83691e-11
-3.57727e-11
-5.95156e-11
-3.55237e-11
-6.06574e-11
-3.52822e-11
-6.1794e-11
-3.50475e-11
-6.29254e-11
-3.4819e-11
-6.40511e-11
-3.45961e-11
-6.51711e-11
-3.43783e-11
-6.62851e-11
-3.41651e-11
-3.39561e-11
-6.73929e-11
-8.43647e-15
-3.93349e-14
-9.49867e-14
-1.76077e-13
-2.83199e-13
-4.16898e-13
-5.77626e-13
-7.65815e-13
-9.81801e-13
-1.22593e-12
-1.49843e-12
-1.79958e-12
-2.12952e-12
-2.48847e-12
-2.87648e-12
-3.29373e-12
-3.74015e-12
-4.21591e-12
-4.72075e-12
-5.25458e-12
-5.81694e-12
-6.40938e-12
-7.03654e-12
-2.40106e-11
-4.29006e-11
-4.3611e-11
-4.44206e-11
-4.52869e-11
-4.62009e-11
-4.71572e-11
-4.81519e-11
-4.91801e-11
-5.02373e-11
-5.13189e-11
-5.2421e-11
-5.35399e-11
-5.46724e-11
-5.58156e-11
-5.69672e-11
-5.81251e-11
-5.92875e-11
-6.0453e-11
-6.16201e-11
-6.27877e-11
-6.39549e-11
-6.51209e-11
-6.62848e-11
-6.74459e-11
-6.86037e-11
-6.97576e-11
-5.51759e-11
-4.90291e-11
-5.60272e-11
-4.88293e-11
-5.68728e-11
-4.8625e-11
-5.77126e-11
-4.84163e-11
-5.85463e-11
-4.82031e-11
-5.93738e-11
-4.79854e-11
-6.01949e-11
-4.77633e-11
-6.10096e-11
-4.75367e-11
-6.18176e-11
-4.73058e-11
-6.26188e-11
-4.70705e-11
-6.34132e-11
-4.6831e-11
-6.42006e-11
-4.65873e-11
-6.49809e-11
-4.63396e-11
-6.57541e-11
-4.60879e-11
-6.65199e-11
-4.58324e-11
-6.72784e-11
-4.55731e-11
-6.80295e-11
-4.53102e-11
-6.8773e-11
-4.50437e-11
-6.95089e-11
-4.4774e-11
-7.02372e-11
-4.4501e-11
-7.09577e-11
-4.42249e-11
-7.16703e-11
-4.39458e-11
-7.2375e-11
-4.3664e-11
-7.30718e-11
-4.33795e-11
-7.37605e-11
-4.30925e-11
-7.44411e-11
-4.28032e-11
-7.51136e-11
-4.25117e-11
-7.57778e-11
-4.22182e-11
-7.64338e-11
-4.19228e-11
-7.70814e-11
-4.16257e-11
-7.77207e-11
-4.13271e-11
-7.83515e-11
-4.10271e-11
-7.89738e-11
-4.07259e-11
-7.95876e-11
-4.04237e-11
-8.01929e-11
-4.01206e-11
-8.07895e-11
-3.98168e-11
-8.13775e-11
-3.95125e-11
-8.19568e-11
-3.92078e-11
-8.25273e-11
-3.8903e-11
-8.30892e-11
-3.85982e-11
-8.36422e-11
-3.82935e-11
-8.41864e-11
-3.79893e-11
-8.47218e-11
-3.76857e-11
-8.52484e-11
-3.73828e-11
-8.5766e-11
-3.70809e-11
-8.62747e-11
-3.678e-11
-8.67745e-11
-3.64801e-11
-8.72653e-11
-3.61798e-11
-8.77472e-11
-3.58764e-11
-3.55703e-11
-8.82206e-11
-5.56246e-11
-4.82488e-11
-5.64053e-11
-4.80486e-11
-5.71857e-11
-4.78445e-11
-5.79656e-11
-4.76365e-11
-5.87442e-11
-4.74244e-11
-5.95214e-11
-4.72083e-11
-6.02965e-11
-4.69881e-11
-6.10693e-11
-4.67639e-11
-6.18393e-11
-4.65358e-11
-6.26062e-11
-4.63036e-11
-6.33696e-11
-4.60676e-11
-6.41292e-11
-4.58278e-11
-6.48846e-11
-4.55841e-11
-6.56357e-11
-4.53369e-11
-6.6382e-11
-4.5086e-11
-6.71234e-11
-4.48317e-11
-6.78596e-11
-4.4574e-11
-6.85903e-11
-4.4313e-11
-6.93153e-11
-4.40489e-11
-7.00344e-11
-4.37818e-11
-7.07475e-11
-4.35119e-11
-7.14542e-11
-4.32391e-11
-7.21544e-11
-4.29638e-11
-7.2848e-11
-4.26859e-11
-7.35348e-11
-4.24057e-11
-7.42147e-11
-4.21234e-11
-7.48874e-11
-4.1839e-11
-7.55529e-11
-4.15527e-11
-7.6211e-11
-4.12647e-11
-7.68616e-11
-4.09751e-11
-7.75047e-11
-4.06841e-11
-7.814e-11
-4.03918e-11
-7.87674e-11
-4.00984e-11
-7.9387e-11
-3.98041e-11
-7.99986e-11
-3.9509e-11
-8.06021e-11
-3.92133e-11
-8.11974e-11
-3.89171e-11
-8.17845e-11
-3.86207e-11
-8.23633e-11
-3.83242e-11
-8.29337e-11
-3.80277e-11
-8.34956e-11
-3.77316e-11
-8.40491e-11
-3.74358e-11
-8.45941e-11
-3.71408e-11
-8.51304e-11
-3.68465e-11
-8.56581e-11
-3.65532e-11
-8.61771e-11
-3.6261e-11
-8.66875e-11
-3.59697e-11
-8.71891e-11
-3.56782e-11
-8.76819e-11
-3.53835e-11
-3.50866e-11
-8.81656e-11
-5.74542e-11
-4.75453e-11
-5.8162e-11
-4.73409e-11
-5.88733e-11
-4.71332e-11
-5.95877e-11
-4.69221e-11
-6.03046e-11
-4.67076e-11
-6.10233e-11
-4.64896e-11
-6.17433e-11
-4.62681e-11
-6.24641e-11
-4.60432e-11
-6.31851e-11
-4.58148e-11
-6.39058e-11
-4.55829e-11
-6.46257e-11
-4.53477e-11
-6.53444e-11
-4.51091e-11
-6.60614e-11
-4.48672e-11
-6.67762e-11
-4.4622e-11
-6.74885e-11
-4.43737e-11
-6.81979e-11
-4.41223e-11
-6.89039e-11
-4.3868e-11
-6.96063e-11
-4.36107e-11
-7.03046e-11
-4.33506e-11
-7.09987e-11
-4.30878e-11
-7.16881e-11
-4.28225e-11
-7.23725e-11
-4.25546e-11
-7.30518e-11
-4.22845e-11
-7.37257e-11
-4.20121e-11
-7.43938e-11
-4.17376e-11
-7.50561e-11
-4.14611e-11
-7.57122e-11
-4.11829e-11
-7.6362e-11
-4.09029e-11
-7.70052e-11
-4.06214e-11
-7.76418e-11
-4.03385e-11
-7.82715e-11
-4.00544e-11
-7.88942e-11
-3.97691e-11
-7.95097e-11
-3.94829e-11
-8.01178e-11
-3.91959e-11
-8.07186e-11
-3.89082e-11
-8.13118e-11
-3.86201e-11
-8.18974e-11
-3.83316e-11
-8.24751e-11
-3.80429e-11
-8.30451e-11
-3.77543e-11
-8.3607e-11
-3.74658e-11
-8.41609e-11
-3.71777e-11
-8.47067e-11
-3.68901e-11
-8.52443e-11
-3.66032e-11
-8.57736e-11
-3.63172e-11
-8.62946e-11
-3.60322e-11
-8.68072e-11
-3.57484e-11
-8.73114e-11
-3.54656e-11
-8.7807e-11
-3.51826e-11
-8.82942e-11
-3.48964e-11
-3.46074e-11
-8.87734e-11
-5.66439e-11
-4.68118e-11
-5.73793e-11
-4.66055e-11
-5.81162e-11
-4.63962e-11
-5.88543e-11
-4.6184e-11
-5.95932e-11
-4.59687e-11