/*--------------------------------*- C++ -*----------------------------------*\
| =========                 |                                                 |
| \\      /  F ield         | OpenFOAM: The Open Source CFD Toolbox           |
|  \\    /   O peration     | Version:  2.4.0                                 |
|   \\  /    A nd           | Web:      www.OpenFOAM.org                      |
|    \\/     M anipulation  |                                                 |
\*---------------------------------------------------------------------------*/
FoamFile
{
    version     2.0;
    format      ascii;
    class       volVectorField;
    location    "1.4";
    object      U;
}
// * * * * * * * * * * * * * * * * * * * * * * * * * * * * * * * * * * * * * //

dimensions      [0 1 -1 0 0 0 0];

internalField   nonuniform List<vector> 
8000
(
(-2.20898e-09 -0.000194115 0)
(-5.28552e-08 -0.000568167 0)
(-1.82387e-07 -0.000928034 0)
(-4.05766e-07 -0.00127371 0)
(-7.35606e-07 -0.00160519 0)
(-1.18629e-06 -0.00192247 0)
(-1.76876e-06 -0.00222555 0)
(-2.49719e-06 -0.00251442 0)
(-3.38042e-06 -0.00278907 0)
(-4.43286e-06 -0.00304949 0)
(-5.66138e-06 -0.00329568 0)
(-7.08172e-06 -0.00352763 0)
(-8.69867e-06 -0.00374533 0)
(-1.05306e-05 -0.00394876 0)
(-1.258e-05 -0.00413791 0)
(-1.48694e-05 -0.00431278 0)
(-1.73977e-05 -0.00447333 0)
(-2.01928e-05 -0.00461956 0)
(-2.32502e-05 -0.00475145 0)
(-2.66175e-05 -0.00486897 0)
(-3.03086e-05 -0.00497211 0)
(-3.43669e-05 -0.00506083 0)
(-3.85301e-05 -0.00513512 0)
(-4.2243e-05 -0.0051949 0)
(-4.56659e-05 -0.00524011 0)
(-5.53015e-05 -0.00527077 0)
(-8.49552e-05 -0.00528768 0)
(-0.000142441 -0.00529574 0)
(-0.000243443 -0.00529306 0)
(-0.000447797 -0.00528738 0)
(-0.000302613 -0.00528406 0)
(-0.000293885 -0.00527212 0)
(-0.000305166 -0.00525598 0)
(-0.000316602 -0.00523904 0)
(-0.000324669 -0.00522224 0)
(-0.000331751 -0.00520572 0)
(-0.000338847 -0.00518947 0)
(-0.00034605 -0.00517339 0)
(-0.000353272 -0.00515737 0)
(-0.000360476 -0.00514132 0)
(-0.000367657 -0.00512515 0)
(-0.000374817 -0.00510877 0)
(-0.000381956 -0.00509213 0)
(-0.000389072 -0.00507517 0)
(-0.000396161 -0.00505788 0)
(-0.00040322 -0.00504021 0)
(-0.000410248 -0.00502216 0)
(-0.000417241 -0.00500369 0)
(-0.000424197 -0.0049848 0)
(-0.000431114 -0.00496547 0)
(-1.12341e-08 -0.000194016 0)
(-1.60625e-07 -0.000567581 0)
(-4.84175e-07 -0.000926705 0)
(-9.86342e-07 -0.00127141 0)
(-1.66445e-06 -0.00160171 0)
(-2.51976e-06 -0.00191763 0)
(-3.55086e-06 -0.00221918 0)
(-4.76092e-06 -0.00250636 0)
(-6.14697e-06 -0.00277918 0)
(-7.71274e-06 -0.00303765 0)
(-9.45311e-06 -0.00328175 0)
(-1.13728e-05 -0.00351149 0)
(-1.34641e-05 -0.00372684 0)
(-1.57333e-05 -0.00392782 0)
(-1.81692e-05 -0.00411438 0)
(-2.07803e-05 -0.00428653 0)
(-2.35499e-05 -0.00444422 0)
(-2.64878e-05 -0.00458745 0)
(-2.95737e-05 -0.00471616 0)
(-3.28458e-05 -0.00483034 0)
(-3.63205e-05 -0.00492994 0)
(-3.99703e-05 -0.00501492 0)
(-4.3195e-05 -0.00508521 0)
(-4.485e-05 -0.00514074 0)
(-4.61414e-05 -0.00518132 0)
(-6.17785e-05 -0.00520708 0)
(-0.000118014 -0.00521902 0)
(-0.000204675 -0.00522238 0)
(-0.000313327 -0.00521669 0)
(-0.000485691 -0.00520618 0)
(-0.000328655 -0.00520124 0)
(-0.000321152 -0.00518786 0)
(-0.000331876 -0.00517091 0)
(-0.000341293 -0.00515347 0)
(-0.000347151 -0.00513632 0)
(-0.000352252 -0.00511954 0)
(-0.000357577 -0.00510306 0)
(-0.000363155 -0.00508677 0)
(-0.000368869 -0.00507058 0)
(-0.000374672 -0.0050544 0)
(-0.000380549 -0.00503813 0)
(-0.000386497 -0.00502171 0)
(-0.000392506 -0.00500508 0)
(-0.000398567 -0.00498819 0)
(-0.000404673 -0.00497102 0)
(-0.000410816 -0.00495353 0)
(-0.000416989 -0.00493569 0)
(-0.000423187 -0.0049175 0)
(-0.000429404 -0.00489892 0)
(-0.000435635 -0.00487994 0)
(-4.85565e-08 -0.000192013 0)
(-4.53385e-07 -0.000561797 0)
(-1.24966e-06 -0.000917346 0)
(-2.41137e-06 -0.00125866 0)
(-3.90789e-06 -0.00158575 0)
(-5.71337e-06 -0.00189862 0)
(-7.81058e-06 -0.00219727 0)
(-1.01796e-05 -0.00248169 0)
(-1.28069e-05 -0.0027519 0)
(-1.56728e-05 -0.00300789 0)
(-1.87661e-05 -0.00324965 0)
(-2.20661e-05 -0.00347721 0)
(-2.55638e-05 -0.00369054 0)
(-2.9236e-05 -0.00388965 0)
(-3.30754e-05 -0.00407453 0)
(-3.7054e-05 -0.00424519 0)
(-4.11646e-05 -0.00440162 0)
(-4.53704e-05 -0.00454383 0)
(-4.96709e-05 -0.00467179 0)
(-5.40543e-05 -0.00478553 0)
(-5.85779e-05 -0.00488503 0)
(-6.30809e-05 -0.00497031 0)
(-6.67447e-05 -0.00504133 0)
(-6.80115e-05 -0.00509816 0)
(-6.94831e-05 -0.00514072 0)
(-9.25769e-05 -0.0051692 0)
(-0.000169821 -0.00518396 0)
(-0.000282965 -0.00518621 0)
(-0.000393161 -0.00518351 0)
(-0.000500343 -0.00517026 0)
(-0.000361721 -0.00516296 0)
(-0.000353295 -0.00514689 0)
(-0.000362785 -0.00512708 0)
(-0.00037088 -0.00510674 0)
(-0.000375676 -0.00508674 0)
(-0.000379774 -0.00506726 0)
(-0.000384101 -0.00504827 0)
(-0.000388685 -0.00502969 0)
(-0.000393423 -0.00501144 0)
(-0.000398269 -0.00499341 0)
(-0.000403215 -0.0049755 0)
(-0.000408254 -0.00495763 0)
(-0.000413383 -0.00493971 0)
(-0.000418592 -0.00492169 0)
(-0.000423875 -0.00490351 0)
(-0.000429227 -0.00488513 0)
(-0.000434641 -0.0048665 0)
(-0.000440111 -0.00484761 0)
(-0.000445633 -0.00482841 0)
(-0.000451201 -0.0048089 0)
(-3.44733e-08 -0.000188734 0)
(-3.56723e-07 -0.000552469 0)
(-1.00844e-06 -0.000902427 0)
(-1.97608e-06 -0.00123857 0)
(-3.24014e-06 -0.00156085 0)
(-4.78402e-06 -0.00186925 0)
(-6.59725e-06 -0.00216374 0)
(-8.66703e-06 -0.0024443 0)
(-1.09853e-05 -0.00271091 0)
(-1.35388e-05 -0.00296356 0)
(-1.63215e-05 -0.00320223 0)
(-1.93195e-05 -0.00342693 0)
(-2.25292e-05 -0.00363764 0)
(-2.59346e-05 -0.00383436 0)
(-2.95353e-05 -0.0040171 0)
(-3.33121e-05 -0.00418587 0)
(-3.72675e-05 -0.00434067 0)
(-4.13759e-05 -0.00448151 0)
(-4.56502e-05 -0.00460843 0)
(-5.00845e-05 -0.00472142 0)
(-5.47368e-05 -0.00482054 0)
(-5.94689e-05 -0.00490579 0)
(-6.36738e-05 -0.00497722 0)
(-6.62646e-05 -0.00503489 0)
(-6.98574e-05 -0.00507892 0)
(-9.01767e-05 -0.0051094 0)
(-0.000155172 -0.00512758 0)
(-0.000258322 -0.00513037 0)
(-0.000386339 -0.00512917 0)
(-0.000459679 -0.00511662 0)
(-0.000341157 -0.00510917 0)
(-0.000335295 -0.00509278 0)
(-0.000345672 -0.00507259 0)
(-0.000354559 -0.00505167 0)
(-0.000360412 -0.00503097 0)
(-0.000365556 -0.00501068 0)
(-0.000370821 -0.00499079 0)
(-0.000376239 -0.00497127 0)
(-0.000381726 -0.00495204 0)
(-0.000387247 -0.00493303 0)
(-0.000392804 -0.00491415 0)
(-0.000398399 -0.00489532 0)
(-0.000404031 -0.00487648 0)
(-0.000409699 -0.00485756 0)
(-0.000415402 -0.00483851 0)
(-0.000421137 -0.00481931 0)
(-0.000426902 -0.0047999 0)
(-0.000432695 -0.00478027 0)
(-0.000438513 -0.0047604 0)
(-0.000444353 -0.00474026 0)
(-4.72411e-09 -0.000187705 0)
(-1.05012e-07 -0.000549271 0)
(-3.39522e-07 -0.000896973 0)
(-7.18407e-07 -0.00123079 0)
(-1.24891e-06 -0.0015507 0)
(-1.93594e-06 -0.0018567 0)
(-2.78727e-06 -0.00214875 0)
(-3.80657e-06 -0.00242687 0)
(-5.00146e-06 -0.00269102 0)
(-6.37355e-06 -0.0029412 0)
(-7.93106e-06 -0.00317741 0)
(-9.67362e-06 -0.00339963 0)
(-1.16111e-05 -0.00360786 0)
(-1.3741e-05 -0.00380209 0)
(-1.60763e-05 -0.00398232 0)
(-1.86115e-05 -0.00414854 0)
(-2.1363e-05 -0.00430076 0)
(-2.43213e-05 -0.00443898 0)
(-2.75147e-05 -0.00456319 0)
(-3.09521e-05 -0.00467339 0)
(-3.46947e-05 -0.0047696 0)
(-3.86074e-05 -0.00485181 0)
(-4.21733e-05 -0.00492002 0)
(-4.46624e-05 -0.00497424 0)
(-4.92244e-05 -0.00501452 0)
(-6.9113e-05 -0.00504098 0)
(-0.00012897 -0.00505607 0)
(-0.000233131 -0.00505752 0)
(-0.000413536 -0.00504887 0)
(-0.000373409 -0.00504181 0)
(-0.000311725 -0.00503211 0)
(-0.000311285 -0.00501438 0)
(-0.000321774 -0.0049939 0)
(-0.000330636 -0.004973 0)
(-0.000337583 -0.00495238 0)
(-0.000344141 -0.00493217 0)
(-0.000350814 -0.00491237 0)
(-0.000357592 -0.00489293 0)
(-0.000364406 -0.00487378 0)
(-0.000371226 -0.00485484 0)
(-0.000378046 -0.00483602 0)
(-0.000384863 -0.00481726 0)
(-0.000391672 -0.00479849 0)
(-0.000398471 -0.00477966 0)
(-0.000405255 -0.00476071 0)
(-0.000412021 -0.0047416 0)
(-0.000418768 -0.00472231 0)
(-0.000425492 -0.00470281 0)
(-0.000432191 -0.00468307 0)
(-0.000438865 -0.00466309 0)
(-9.55276e-09 -0.000187289 0)
(-9.07161e-08 -0.000547847 0)
(-2.68159e-07 -0.000894378 0)
(-5.49541e-07 -0.00122687 0)
(-9.45428e-07 -0.00154532 0)
(-1.46441e-06 -0.00184971 0)
(-2.11921e-06 -0.00214004 0)
(-2.91745e-06 -0.00241631 0)
(-3.87258e-06 -0.00267851 0)
(-4.99036e-06 -0.00292662 0)
(-6.28546e-06 -0.00316066 0)
(-7.76148e-06 -0.0033806 0)
(-9.43505e-06 -0.00358646 0)
(-1.1307e-05 -0.00377821 0)
(-1.33969e-05 -0.00395587 0)
(-1.57015e-05 -0.00411941 0)
(-1.82439e-05 -0.00426886 0)
(-2.1015e-05 -0.00440419 0)
(-2.40508e-05 -0.00452541 0)
(-2.73571e-05 -0.00463251 0)
(-3.09878e-05 -0.0047255 0)
(-3.47681e-05 -0.00480437 0)
(-3.82013e-05 -0.00486911 0)
(-4.08619e-05 -0.00491971 0)
(-4.68052e-05 -0.00495624 0)
(-6.83396e-05 -0.00497888 0)
(-0.000125506 -0.00499087 0)
(-0.000233121 -0.00499091 0)
(-0.000461175 -0.00498324 0)
(-0.000313439 -0.00497304 0)
(-0.000297298 -0.00495499 0)
(-0.000305964 -0.00493231 0)
(-0.000316538 -0.00490888 0)
(-0.000323897 -0.00488586 0)
(-0.000330177 -0.00486358 0)
(-0.000336474 -0.00484208 0)
(-0.000342939 -0.00482131 0)
(-0.000349491 -0.00480117 0)
(-0.000356083 -0.00478155 0)
(-0.000362707 -0.00476233 0)
(-0.000369361 -0.0047434 0)
(-0.000376043 -0.00472465 0)
(-0.000382748 -0.00470598 0)
(-0.000389471 -0.00468734 0)
(-0.000396208 -0.00466866 0)
(-0.000402955 -0.00464988 0)
(-0.000409705 -0.00463096 0)
(-0.000416457 -0.00461187 0)
(-0.000423205 -0.00459259 0)
(-0.000429946 -0.00457308 0)
(2.72875e-09 -0.000186779 0)
(-7.34645e-09 -0.000546204 0)
(-5.82579e-08 -0.000891481 0)
(-1.67245e-07 -0.0012226 0)
(-3.52684e-07 -0.00153954 0)
(-6.30351e-07 -0.00184229 0)
(-1.01751e-06 -0.00213086 0)
(-1.52785e-06 -0.00240522 0)
(-2.17857e-06 -0.00266538 0)
(-2.98152e-06 -0.00291133 0)
(-3.9549e-06 -0.00314305 0)
(-5.10876e-06 -0.00336056 0)
(-6.46364e-06 -0.00356384 0)
(-8.02753e-06 -0.00375289 0)
(-9.82497e-06 -0.0039277 0)
(-1.18609e-05 -0.00408829 0)
(-1.41652e-05 -0.00423463 0)
(-1.67393e-05 -0.00436675 0)
(-1.96318e-05 -0.00448464 0)
(-2.28619e-05 -0.0045883 0)
(-2.64798e-05 -0.00467773 0)
(-3.02576e-05 -0.00475296 0)
(-3.36786e-05 -0.00481395 0)
(-3.67849e-05 -0.00486072 0)
(-4.54453e-05 -0.00489332 0)
(-7.24823e-05 -0.00491225 0)
(-0.000129884 -0.0049215 0)
(-0.000241952 -0.00492062 0)
(-0.000473017 -0.0049087 0)
(-0.000299323 -0.00489869 0)
(-0.000295197 -0.00488036 0)
(-0.000308419 -0.00485836 0)
(-0.000319944 -0.00483582 0)
(-0.000327482 -0.00481356 0)
(-0.0003341 -0.00479175 0)
(-0.000340837 -0.00477041 0)
(-0.000347727 -0.00474955 0)
(-0.000354661 -0.00472911 0)
(-0.000361598 -0.00470904 0)
(-0.000368535 -0.00468928 0)
(-0.000375475 -0.00466975 0)
(-0.000382418 -0.00465039 0)
(-0.000389359 -0.00463114 0)
(-0.000396297 -0.00461194 0)
(-0.000403229 -0.00459273 0)
(-0.000410151 -0.00457349 0)
(-0.000417061 -0.00455417 0)
(-0.000423957 -0.00453474 0)
(-0.000430835 -0.00451517 0)
(-0.000437694 -0.00449544 0)
(-9.67882e-10 -0.000187173 0)
(-6.05113e-08 -0.000546985 0)
(-2.10613e-07 -0.000892287 0)
(-4.61147e-07 -0.0012231 0)
(-8.22109e-07 -0.00153943 0)
(-1.29797e-06 -0.00184131 0)
(-1.89919e-06 -0.00212873 0)
(-2.6276e-06 -0.0024017 0)
(-3.49444e-06 -0.00266024 0)
(-4.4983e-06 -0.00290432 0)
(-5.65223e-06 -0.00313397 0)
(-6.9515e-06 -0.00334915 0)
(-8.41239e-06 -0.00354987 0)
(-1.00264e-05 -0.0037361 0)
(-1.18146e-05 -0.00390783 0)
(-1.37632e-05 -0.00406504 0)
(-1.58994e-05 -0.0042077 0)
(-1.82046e-05 -0.00433577 0)
(-2.07323e-05 -0.00444924 0)
(-2.34874e-05 -0.00454803 0)
(-2.6493e-05 -0.00463214 0)
(-2.93365e-05 -0.00470147 0)
(-3.12766e-05 -0.00475594 0)
(-3.29959e-05 -0.00479533 0)
(-4.43959e-05 -0.00481975 0)
(-8.31443e-05 -0.00483048 0)
(-0.000148559 -0.00483401 0)
(-0.000263904 -0.00482743 0)
(-0.000462923 -0.004811 0)
(-0.000292877 -0.00480065 0)
(-0.000289416 -0.00478161 0)
(-0.000302206 -0.00475894 0)
(-0.00031294 -0.00473578 0)
(-0.000319906 -0.00471299 0)
(-0.00032615 -0.00469078 0)
(-0.000332625 -0.00466919 0)
(-0.000339316 -0.00464824 0)
(-0.000346092 -0.00462789 0)
(-0.000352901 -0.00460806 0)
(-0.000359734 -0.00458868 0)
(-0.00036659 -0.00456964 0)
(-0.000373466 -0.00455084 0)
(-0.000380358 -0.0045322 0)
(-0.000387262 -0.00451365 0)
(-0.000394175 -0.00449513 0)
(-0.000401094 -0.00447658 0)
(-0.000408015 -0.00445796 0)
(-0.000414936 -0.00443924 0)
(-0.000421854 -0.00442038 0)
(-0.000428766 -0.00440136 0)
(-4.16733e-08 -0.000185891 0)
(-3.93528e-07 -0.000543229 0)
(-1.08346e-06 -0.000886147 0)
(-2.08773e-06 -0.00121466 0)
(-3.37472e-06 -0.0015288 0)
(-4.92105e-06 -0.00182856 0)
(-6.70484e-06 -0.00211396 0)
(-8.70924e-06 -0.00238501 0)
(-1.09133e-05 -0.00264171 0)
(-1.33019e-05 -0.00288408 0)
(-1.58534e-05 -0.0031121 0)
(-1.85543e-05 -0.00332577 0)
(-2.13806e-05 -0.00352509 0)
(-2.43203e-05 -0.00371005 0)
(-2.73451e-05 -0.00388065 0)
(-3.04421e-05 -0.00403686 0)
(-3.35743e-05 -0.00417868 0)
(-3.67347e-05 -0.00430608 0)
(-3.99175e-05 -0.00441905 0)
(-4.31878e-05 -0.00451754 0)
(-4.63888e-05 -0.00460157 0)
(-4.85625e-05 -0.00467106 0)
(-4.77651e-05 -0.00472598 0)
(-4.65333e-05 -0.00476621 0)
(-6.97907e-05 -0.00479188 0)
(-0.000158901 -0.00480364 0)
(-0.000291182 -0.00480485 0)
(-0.000413875 -0.00479971 0)
(-0.000531633 -0.0047746 0)
(-0.00037328 -0.00475719 0)
(-0.000363862 -0.00473193 0)
(-0.000373588 -0.00470409 0)
(-0.000381541 -0.00467687 0)
(-0.000385871 -0.00465101 0)
(-0.000389497 -0.00462651 0)
(-0.000393397 -0.00460319 0)
(-0.000397574 -0.00458086 0)
(-0.000401907 -0.00455933 0)
(-0.000406351 -0.00453843 0)
(-0.000410903 -0.00451802 0)
(-0.000415569 -0.00449798 0)
(-0.000420348 -0.00447822 0)
(-0.00042524 -0.00445866 0)
(-0.00043024 -0.00443923 0)
(-0.000435345 -0.00441989 0)
(-0.000440548 -0.00440058 0)
(-0.000445843 -0.00438127 0)
(-0.000451225 -0.00436193 0)
(-0.000456685 -0.00434253 0)
(-0.000462218 -0.00432304 0)
(-4.35011e-08 -0.000182541 0)
(-4.1679e-07 -0.000533801 0)
(-1.15398e-06 -0.000871201 0)
(-2.23264e-06 -0.00119471 0)
(-3.62222e-06 -0.0015043 0)
(-5.30018e-06 -0.00179995 0)
(-7.24633e-06 -0.00208164 0)
(-9.44481e-06 -0.00234936 0)
(-1.18768e-05 -0.0026031 0)
(-1.45286e-05 -0.00284285 0)
(-1.73812e-05 -0.00306859 0)
(-2.04231e-05 -0.00328035 0)
(-2.36343e-05 -0.00347809 0)
(-2.70054e-05 -0.00366186 0)
(-3.05132e-05 -0.00383163 0)
(-3.415e-05 -0.00398743 0)
(-3.78858e-05 -0.00412926 0)
(-4.17212e-05 -0.00425716 0)
(-4.56509e-05 -0.00437114 0)
(-4.97274e-05 -0.00447124 0)
(-5.37998e-05 -0.00455748 0)
(-5.7127e-05 -0.00462992 0)
(-5.83693e-05 -0.00468861 0)
(-6.02609e-05 -0.00473371 0)
(-8.1797e-05 -0.00476531 0)
(-0.000154385 -0.00478403 0)
(-0.000265974 -0.00478668 0)
(-0.000401006 -0.00478572 0)
(-0.00048246 -0.00475688 0)
(-0.000350012 -0.00473585 0)
(-0.000342696 -0.00470724 0)
(-0.000352604 -0.00467642 0)
(-0.00036084 -0.00464654 0)
(-0.000365874 -0.00461838 0)
(-0.000370254 -0.00459183 0)
(-0.000374862 -0.00456662 0)
(-0.000379715 -0.00454246 0)
(-0.000384709 -0.0045191 0)
(-0.000389806 -0.00449634 0)
(-0.000395 -0.00447403 0)
(-0.000400291 -0.00445207 0)
(-0.000405674 -0.00443039 0)
(-0.000411146 -0.00440894 0)
(-0.000416702 -0.00438767 0)
(-0.000422337 -0.00436655 0)
(-0.000428045 -0.00434555 0)
(-0.000433822 -0.00432464 0)
(-0.000439661 -0.0043038 0)
(-0.000445559 -0.00428299 0)
(-0.000451509 -0.0042622 0)
(-6.07687e-09 -0.000180979 0)
(-1.26566e-07 -0.000529158 0)
(-4.00745e-07 -0.000863528 0)
(-8.37847e-07 -0.00118406 0)
(-1.43918e-06 -0.00149073 0)
(-2.20927e-06 -0.00178352 0)
(-3.14881e-06 -0.00206241 0)
(-4.26347e-06 -0.00232738 0)
(-5.55189e-06 -0.00257842 0)
(-7.02041e-06 -0.00281552 0)
(-8.66561e-06 -0.00303867 0)
(-1.04956e-05 -0.00324786 0)
(-1.25049e-05 -0.00344308 0)
(-1.47047e-05 -0.00362433 0)
(-1.7087e-05 -0.0037916 0)
(-1.96666e-05 -0.00394491 0)
(-2.24312e-05 -0.00408423 0)
(-2.54073e-05 -0.00420959 0)
(-2.86053e-05 -0.00432097 0)
(-3.20942e-05 -0.0044184 0)
(-3.57472e-05 -0.00450187 0)
(-3.89835e-05 -0.00457139 0)
(-4.08382e-05 -0.00462698 0)
(-4.42443e-05 -0.00466871 0)
(-6.42585e-05 -0.00469666 0)
(-0.00013004 -0.00471267 0)
(-0.00024136 -0.00471428 0)
(-0.00043454 -0.00470398 0)
(-0.000397272 -0.00468141 0)
(-0.00032698 -0.00465812 0)
(-0.000325579 -0.00462776 0)
(-0.000336148 -0.00459592 0)
(-0.00034492 -0.00456508 0)
(-0.000351543 -0.00453585 0)
(-0.000357719 -0.0045082 0)
(-0.000364022 -0.00448193 0)
(-0.000370454 -0.00445682 0)
(-0.000376947 -0.00443264 0)
(-0.000383473 -0.00440922 0)
(-0.000390028 -0.00438639 0)
(-0.00039661 -0.00436405 0)
(-0.000403212 -0.00434209 0)
(-0.000409832 -0.00432045 0)
(-0.000416465 -0.00429906 0)
(-0.000423107 -0.00427788 0)
(-0.000429754 -0.00425687 0)
(-0.000436405 -0.00423599 0)
(-0.000443056 -0.0042152 0)
(-0.000449704 -0.00419449 0)
(-0.000456349 -0.00417381 0)
(-9.25616e-09 -0.00018078 0)
(-9.90053e-08 -0.000528313 0)
(-2.95753e-07 -0.000861821 0)
(-6.08037e-07 -0.0011813 0)
(-1.04256e-06 -0.00148675 0)
(-1.60889e-06 -0.00177817 0)
(-2.31382e-06 -0.00205556 0)
(-3.16774e-06 -0.00231891 0)
(-4.17562e-06 -0.00256823 0)
(-5.34844e-06 -0.0028035 0)
(-6.68905e-06 -0.00302473 0)
(-8.20988e-06 -0.00323192 0)
(-9.91125e-06 -0.00342505 0)
(-1.1808e-05 -0.00360412 0)
(-1.38969e-05 -0.00376913 0)
(-1.61956e-05 -0.00392007 0)
(-1.86951e-05 -0.00405694 0)
(-2.14246e-05 -0.00417973 0)
(-2.43924e-05 -0.00428843 0)
(-2.76567e-05 -0.00438303 0)
(-3.10679e-05 -0.00446352 0)
(-3.40917e-05 -0.00452989 0)
(-3.603e-05 -0.00458213 0)
(-4.03421e-05 -0.00462027 0)
(-6.02679e-05 -0.00464443 0)
(-0.000121877 -0.0046574 0)
(-0.000236113 -0.00465748 0)
(-0.000486308 -0.00464249 0)
(-0.000323952 -0.00461752 0)
(-0.00030766 -0.00458668 0)
(-0.000316881 -0.00455297 0)
(-0.000327774 -0.00452013 0)
(-0.000335163 -0.00448905 0)
(-0.000341427 -0.00445977 0)
(-0.000347726 -0.00443209 0)
(-0.000354211 -0.00440575 0)
(-0.000360795 -0.00438049 0)
(-0.000367433 -0.00435612 0)
(-0.000374115 -0.00433246 0)
(-0.000380844 -0.00430938 0)
(-0.000387617 -0.00428679 0)
(-0.000394429 -0.00426459 0)
(-0.000401275 -0.00424273 0)
(-0.000408151 -0.00422116 0)
(-0.000415052 -0.00419982 0)
(-0.000421974 -0.00417867 0)
(-0.000428911 -0.00415768 0)
(-0.00043586 -0.00413682 0)
(-0.000442816 -0.00411606 0)
(-0.000449776 -0.00409537 0)
(-7.6251e-09 -0.000179895 0)
(-9.32468e-08 -0.000525634 0)
(-2.83649e-07 -0.000857307 0)
(-5.8908e-07 -0.0011749 0)
(-1.0166e-06 -0.0014784 0)
(-1.578e-06 -0.00176781 0)
(-2.28079e-06 -0.0020431 0)
(-3.13889e-06 -0.00230429 0)
(-4.15836e-06 -0.00255135 0)
(-5.35495e-06 -0.00278429 0)
(-6.73273e-06 -0.0030031 0)
(-8.31016e-06 -0.00320777 0)
(-1.00887e-05 -0.00339831 0)
(-1.20907e-05 -0.00357471 0)
(-1.43136e-05 -0.00373696 0)
(-1.67842e-05 -0.00388508 0)
(-1.94947e-05 -0.00401906 0)
(-2.2487e-05 -0.0041389 0)
(-2.57697e-05 -0.0042446 0)
(-2.9399e-05 -0.00433618 0)
(-3.31761e-05 -0.00441364 0)
(-3.65767e-05 -0.00447697 0)
(-3.9285e-05 -0.0045262 0)
(-4.60816e-05 -0.00456138 0)
(-6.98796e-05 -0.00458278 0)
(-0.000130248 -0.00459385 0)
(-0.000249065 -0.00459368 0)
(-0.000507543 -0.00456777 0)
(-0.000315673 -0.00454215 0)
(-0.000310975 -0.00450923 0)
(-0.000324343 -0.00447406 0)
(-0.000335774 -0.00443992 0)
(-0.000342939 -0.00440757 0)
(-0.000349187 -0.00437699 0)
(-0.000355621 -0.00434799 0)
(-0.000362267 -0.00432036 0)
(-0.000369001 -0.00429388 0)
(-0.000375779 -0.00426837 0)
(-0.000382595 -0.00424367 0)
(-0.000389451 -0.00421967 0)
(-0.000396346 -0.00419625 0)
(-0.000403274 -0.00417334 0)
(-0.000410233 -0.00415087 0)
(-0.000417217 -0.00412878 0)
(-0.000424222 -0.00410701 0)
(-0.000431246 -0.00408553 0)
(-0.000438283 -0.00406429 0)
(-0.00044533 -0.00404325 0)
(-0.000452384 -0.00402238 0)
(-0.00045944 -0.00400164 0)
(3.59303e-09 -0.000179691 0)
(-1.5018e-09 -0.000524797 0)
(-4.43912e-08 -0.000855622 0)
(-1.44694e-07 -0.00117216 0)
(-3.19497e-07 -0.00147442 0)
(-5.87667e-07 -0.00176239 0)
(-9.62342e-07 -0.00203607 0)
(-1.46156e-06 -0.00229546 0)
(-2.09529e-06 -0.00254055 0)
(-2.88224e-06 -0.00277134 0)
(-3.8295e-06 -0.00298782 0)
(-4.95808e-06 -0.00318999 0)
(-6.2721e-06 -0.00337783 0)
(-7.79687e-06 -0.00355134 0)
(-9.53258e-06 -0.0037105 0)
(-1.15105e-05 -0.0038553 0)
(-1.37267e-05 -0.00398573 0)
(-1.62336e-05 -0.00410177 0)
(-1.90456e-05 -0.0042034 0)
(-2.22121e-05 -0.0042906 0)
(-2.54712e-05 -0.00436335 0)
(-2.82803e-05 -0.00442158 0)
(-3.07948e-05 -0.00446521 0)
(-3.95817e-05 -0.00449429 0)
(-6.79132e-05 -0.00450973 0)
(-0.000126789 -0.00451676 0)
(-0.000250752 -0.00451347 0)
(-0.000494354 -0.00448182 0)
(-0.000301927 -0.00445572 0)
(-0.000300314 -0.00442235 0)
(-0.000314999 -0.00438705 0)
(-0.000327055 -0.004353 0)
(-0.000334817 -0.00432083 0)
(-0.000341742 -0.00429046 0)
(-0.000348886 -0.00426166 0)
(-0.000356239 -0.00423419 0)
(-0.000363667 -0.00420783 0)
(-0.000371121 -0.00418241 0)
(-0.000378594 -0.00415778 0)
(-0.000386087 -0.00413382 0)
(-0.000393595 -0.00411043 0)
(-0.000401115 -0.00408754 0)
(-0.000408641 -0.00406509 0)
(-0.00041617 -0.00404301 0)
(-0.000423697 -0.00402126 0)
(-0.000431221 -0.0039998 0)
(-0.000438737 -0.00397859 0)
(-0.000446244 -0.0039576 0)
(-0.000453737 -0.00393679 0)
(-0.000461214 -0.00391615 0)
(-1.24282e-08 -0.00017986 0)
(-1.75364e-07 -0.000524952 0)
(-5.2405e-07 -0.000855452 0)
(-1.06126e-06 -0.00117139 0)
(-1.78035e-06 -0.00147281 0)
(-2.68098e-06 -0.00175971 0)
(-3.75752e-06 -0.00203212 0)
(-5.01268e-06 -0.00229006 0)
(-6.4385e-06 -0.00253353 0)
(-8.03922e-06 -0.00276254 0)
(-9.80357e-06 -0.00297708 0)
(-1.17381e-05 -0.00317716 0)
(-1.38272e-05 -0.00336275 0)
(-1.60805e-05 -0.00353385 0)
(-1.84755e-05 -0.00369043 0)
(-2.1024e-05 -0.00383248 0)
(-2.36988e-05 -0.00395995 0)
(-2.65453e-05 -0.00407282 0)
(-2.95761e-05 -0.00417103 0)
(-3.27606e-05 -0.00425457 0)
(-3.54005e-05 -0.00432333 0)
(-3.62021e-05 -0.00437724 0)
(-3.65934e-05 -0.00441609 0)
(-5.35668e-05 -0.00444002 0)
(-0.000116592 -0.00445019 0)
(-0.00021461 -0.00445227 0)
(-0.000351827 -0.00444515 0)
(-0.000553402 -0.0044073 0)
(-0.000357701 -0.00437856 0)
(-0.000350492 -0.00434236 0)
(-0.00036264 -0.00430432 0)
(-0.00037231 -0.00426775 0)
(-0.000377699 -0.00423335 0)
(-0.000382349 -0.00420102 0)
(-0.000387383 -0.00417051 0)
(-0.000392795 -0.00414156 0)
(-0.000398435 -0.00411395 0)
(-0.000404242 -0.00408748 0)
(-0.000410198 -0.00406199 0)
(-0.000416292 -0.00403733 0)
(-0.000422512 -0.0040134 0)
(-0.000428844 -0.00399009 0)
(-0.000435274 -0.00396733 0)
(-0.000441792 -0.00394505 0)
(-0.000448387 -0.0039232 0)
(-0.00045505 -0.00390171 0)
(-0.000461773 -0.00388055 0)
(-0.000468547 -0.00385967 0)
(-0.000475367 -0.00383903 0)
(-0.000482224 -0.00381859 0)
(-5.80656e-08 -0.000177378 0)
(-5.26284e-07 -0.000517876 0)
(-1.43835e-06 -0.000844119 0)
(-2.75956e-06 -0.00115611 0)
(-4.45114e-06 -0.00145385 0)
(-6.47911e-06 -0.00173735 0)
(-8.82083e-06 -0.0020066 0)
(-1.14489e-05 -0.00226162 0)
(-1.43453e-05 -0.00250239 0)
(-1.74822e-05 -0.00272894 0)
(-2.08446e-05 -0.00294126 0)
(-2.44028e-05 -0.00313936 0)
(-2.81445e-05 -0.00332323 0)
(-3.20353e-05 -0.00349288 0)
(-3.60634e-05 -0.00364831 0)
(-4.01851e-05 -0.00378955 0)
(-4.43961e-05 -0.00391656 0)
(-4.86813e-05 -0.00402939 0)
(-5.31001e-05 -0.00412801 0)
(-5.74692e-05 -0.00421248 0)
(-6.08678e-05 -0.00428274 0)
(-6.15662e-05 -0.00433887 0)
(-6.25337e-05 -0.00438083 0)
(-8.76645e-05 -0.00440884 0)
(-0.000173464 -0.0044233 0)
(-0.000300439 -0.00442493 0)
(-0.000436267 -0.00442114 0)
(-0.000550097 -0.00437992 0)
(-0.000390566 -0.00434926 0)
(-0.000381753 -0.00431051 0)
(-0.000392543 -0.00426937 0)
(-0.000401385 -0.00422937 0)
(-0.000406487 -0.00419143 0)
(-0.000410863 -0.0041556 0)
(-0.000415541 -0.0041217 0)
(-0.000420539 -0.00408952 0)
(-0.000425735 -0.00405888 0)
(-0.000431077 -0.00402959 0)
(-0.000436555 -0.00400149 0)
(-0.000442163 -0.00397444 0)
(-0.000447894 -0.00394831 0)
(-0.00045374 -0.00392299 0)
(-0.000459691 -0.00389839 0)
(-0.000465739 -0.00387443 0)
(-0.000471879 -0.00385103 0)
(-0.000478103 -0.00382814 0)
(-0.000484404 -0.00380569 0)
(-0.000490777 -0.00378364 0)
(-0.000497214 -0.00376194 0)
(-0.00050371 -0.00374054 0)
(-3.38492e-08 -0.000173792 0)
(-3.65783e-07 -0.000507702 0)
(-1.04167e-06 -0.000827889 0)
(-2.04822e-06 -0.0011343 0)
(-3.36589e-06 -0.00142691 0)
(-4.97671e-06 -0.00170567 0)
(-6.87064e-06 -0.00197057 0)
(-9.03316e-06 -0.00222158 0)
(-1.14572e-05 -0.00245869 0)
(-1.4127e-05 -0.00268189 0)
(-1.70384e-05 -0.00289116 0)
(-2.01737e-05 -0.00308652 0)
(-2.35322e-05 -0.00326796 0)
(-2.70926e-05 -0.00343548 0)
(-3.08574e-05 -0.00358912 0)
(-3.47983e-05 -0.00372886 0)
(-3.89295e-05 -0.00385476 0)
(-4.32441e-05 -0.00396682 0)
(-4.78062e-05 -0.00406508 0)
(-5.24564e-05 -0.00414957 0)
(-5.65162e-05 -0.00422035 0)
(-5.87923e-05 -0.00427747 0)
(-6.23024e-05 -0.00432108 0)
(-8.44301e-05 -0.00435129 0)
(-0.000157255 -0.00436955 0)
(-0.00027577 -0.0043718 0)
(-0.000449718 -0.00436455 0)
(-0.000477389 -0.00432408 0)
(-0.000368602 -0.00428963 0)
(-0.000363731 -0.00424799 0)
(-0.000375162 -0.00420488 0)
(-0.000384957 -0.00416327 0)
(-0.0003919 -0.00412393 0)
(-0.000398237 -0.00408683 0)
(-0.000404756 -0.00405176 0)
(-0.000411468 -0.00401849 0)
(-0.00041828 -0.00398682 0)
(-0.000425153 -0.00395654 0)
(-0.00043208 -0.00392749 0)
(-0.00043906 -0.00389952 0)
(-0.000446088 -0.00387251 0)
(-0.000453162 -0.00384634 0)
(-0.000460277 -0.00382092 0)
(-0.000467428 -0.00379617 0)
(-0.000474611 -0.00377202 0)
(-0.000481825 -0.00374842 0)
(-0.000489063 -0.0037253 0)
(-0.000496324 -0.00370263 0)
(-0.000503603 -0.00368035 0)
(-0.000510896 -0.00365843 0)
(-2.94837e-09 -0.000172873 0)
(-8.26458e-08 -0.00050477 0)
(-2.80598e-07 -0.000822794 0)
(-6.11811e-07 -0.00112692 0)
(-1.09126e-06 -0.00141714 0)
(-1.72935e-06 -0.00169342 0)
(-2.54137e-06 -0.00195577 0)
(-3.53535e-06 -0.00220416 0)
(-4.72702e-06 -0.00243858 0)
(-6.12157e-06 -0.00265904 0)
(-7.73651e-06 -0.00286553 0)
(-9.57435e-06 -0.00305804 0)
(-1.16561e-05 -0.00323658 0)
(-1.39811e-05 -0.00340115 0)
(-1.6575e-05 -0.00355175 0)
(-1.94323e-05 -0.0036884 0)
(-2.25932e-05 -0.00381109 0)
(-2.60728e-05 -0.00391985 0)
(-2.99462e-05 -0.0040147 0)
(-3.40634e-05 -0.00409564 0)
(-3.7867e-05 -0.0041627 0)
(-4.06135e-05 -0.0042159 0)
(-4.60078e-05 -0.00425534 0)
(-6.83696e-05 -0.00428122 0)
(-0.000135402 -0.00429632 0)
(-0.000256692 -0.00429748 0)
(-0.000514138 -0.00428033 0)
(-0.000369068 -0.00424351 0)
(-0.000341758 -0.00420138 0)
(-0.000349818 -0.00415517 0)
(-0.000362675 -0.00410973 0)
(-0.000372334 -0.00406657 0)
(-0.000380536 -0.00402597 0)
(-0.000388601 -0.0039878 0)
(-0.000396796 -0.00395183 0)
(-0.000405054 -0.00391781 0)
(-0.000413319 -0.00388551 0)
(-0.000421579 -0.00385473 0)
(-0.000429834 -0.00382527 0)
(-0.000438084 -0.00379698 0)
(-0.00044633 -0.00376972 0)
(-0.000454568 -0.00374337 0)
(-0.000462797 -0.00371785 0)
(-0.000471015 -0.00369305 0)
(-0.000479221 -0.00366892 0)
(-0.000487412 -0.00364537 0)
(-0.000495587 -0.00362237 0)
(-0.000503744 -0.00359984 0)
(-0.00051188 -0.00357776 0)
(-0.000519994 -0.00355607 0)
(9.73685e-10 -0.000172685 0)
(9.71104e-10 -0.000503918 0)
(-3.3672e-08 -0.000821006 0)
(-1.25575e-07 -0.00112394 0)
(-3.03063e-07 -0.00141272 0)
(-5.88361e-07 -0.00168733 0)
(-1.0076e-06 -0.00194777 0)
(-1.57813e-06 -0.00219404 0)
(-2.32588e-06 -0.00242614 0)
(-3.26434e-06 -0.00264405 0)
(-4.42162e-06 -0.00284778 0)
(-5.8077e-06 -0.00303731 0)
(-7.45545e-06 -0.00321265 0)
(-9.37074e-06 -0.00337378 0)
(-1.15936e-05 -0.00352069 0)
(-1.4125e-05 -0.00365339 0)
(-1.70257e-05 -0.00377185 0)
(-2.03144e-05 -0.00387608 0)
(-2.40706e-05 -0.00396605 0)
(-2.80942e-05 -0.00404177 0)
(-3.1885e-05 -0.00410318 0)
(-3.51944e-05 -0.00415025 0)
(-4.31611e-05 -0.00418304 0)
(-6.87578e-05 -0.00420226 0)
(-0.000131725 -0.00421255 0)
(-0.000257483 -0.00421038 0)
(-0.000530076 -0.00417511 0)
(-0.000331914 -0.0041373 0)
(-0.000328803 -0.00409243 0)
(-0.000345146 -0.00404581 0)
(-0.000359635 -0.00400096 0)
(-0.000369665 -0.0039587 0)
(-0.00037869 -0.00391901 0)
(-0.000387861 -0.0038817 0)
(-0.000397203 -0.0038465 0)
(-0.000406579 -0.00381318 0)
(-0.000415939 -0.00378152 0)
(-0.000425274 -0.0037513 0)
(-0.000434586 -0.00372235 0)
(-0.000443873 -0.00369453 0)
(-0.000453131 -0.00366769 0)
(-0.000462357 -0.00364174 0)
(-0.000471548 -0.00361658 0)
(-0.000480702 -0.00359214 0)
(-0.000489816 -0.00356834 0)
(-0.000498888 -0.00354513 0)
(-0.000507917 -0.00352246 0)
(-0.000516901 -0.00350028 0)
(-0.000525837 -0.00347854 0)
(-0.000534724 -0.00345721 0)
(-3.86565e-09 -0.000173105 0)
(-1.48998e-07 -0.000504644 0)
(-4.8864e-07 -0.000821561 0)
(-1.0318e-06 -0.0011239 0)
(-1.78493e-06 -0.00141169 0)
(-2.7458e-06 -0.00168496 0)
(-3.92476e-06 -0.00194373 0)
(-5.3171e-06 -0.00218802 0)
(-6.93621e-06 -0.00241785 0)
(-8.77235e-06 -0.0026332 0)
(-1.08428e-05 -0.00283408 0)
(-1.31318e-05 -0.00302048 0)
(-1.56623e-05 -0.00319239 0)
(-1.84096e-05 -0.00334977 0)
(-2.14031e-05 -0.00349261 0)
(-2.46097e-05 -0.00362087 0)
(-2.80907e-05 -0.0037345 0)
(-3.18394e-05 -0.00383345 0)
(-3.58751e-05 -0.00391769 0)
(-3.96466e-05 -0.0039871 0)
(-4.2177e-05 -0.00404159 0)
(-4.4336e-05 -0.00408092 0)
(-5.89375e-05 -0.00410523 0)
(-0.000109213 -0.0041159 0)
(-0.000192194 -0.00411958 0)
(-0.000324324 -0.0041114 0)
(-0.000553884 -0.00406239 0)
(-0.000357293 -0.00402209 0)
(-0.00035288 -0.00397417 0)
(-0.000368045 -0.0039248 0)
(-0.000381062 -0.00387765 0)
(-0.000389814 -0.00383355 0)
(-0.000397816 -0.00379241 0)
(-0.000406183 -0.00375396 0)
(-0.000414901 -0.00371792 0)
(-0.000423806 -0.00368401 0)
(-0.000432825 -0.00365198 0)
(-0.000441934 -0.00362159 0)
(-0.000451117 -0.00359264 0)
(-0.000460359 -0.00356495 0)
(-0.000469643 -0.00353838 0)
(-0.000478957 -0.0035128 0)
(-0.00048829 -0.00348811 0)
(-0.000497631 -0.00346421 0)
(-0.000506972 -0.00344103 0)
(-0.000516307 -0.0034185 0)
(-0.000525627 -0.00339655 0)
(-0.000534929 -0.00337514 0)
(-0.000544206 -0.0033542 0)
(-0.000553454 -0.00333371 0)
(-0.00043799 -0.0049457 0)
(-0.000444823 -0.00492548 0)
(-0.000451612 -0.00490481 0)
(-0.000458354 -0.00488367 0)
(-0.000465048 -0.00486208 0)
(-0.000471693 -0.00484003 0)
(-0.000478288 -0.00481752 0)
(-0.000484831 -0.00479456 0)
(-0.000491322 -0.00477116 0)
(-0.000497759 -0.00474731 0)