/*--------------------------------*- C++ -*----------------------------------*\
| =========                 |                                                 |
| \\      /  F ield         | OpenFOAM: The Open Source CFD Toolbox           |
|  \\    /   O peration     | Version:  2.4.0                                 |
|   \\  /    A nd           | Web:      www.OpenFOAM.org                      |
|    \\/     M anipulation  |                                                 |
\*---------------------------------------------------------------------------*/
FoamFile
{
    version     2.0;
    format      ascii;
    class       volScalarField;
    location    "4.7";
    object      p_rgh;
}
// * * * * * * * * * * * * * * * * * * * * * * * * * * * * * * * * * * * * * //

dimensions      [1 -1 -2 0 0 0 0];

internalField   nonuniform List<scalar> 
8000
(
1.31336
1.30413
1.29639
1.29076
1.28583
1.28175
1.28764
1.32595
1.38271
1.22106
0.274007
-1.31811
0.168443
0.166194
0.165637
0.165625
0.165813
0.166089
0.166403
0.166719
0.167008
0.167257
0.167456
0.167599
0.167683
0.167706
0.167666
0.167561
0.167392
0.167158
0.16686
0.166499
0.166076
0.165591
0.165047
0.164445
0.163786
0.163071
0.162303
0.161484
0.160614
0.159695
0.158731
0.157721
0.156669
0.155575
0.154443
0.153273
0.152067
0.150828
2.45902
2.44982
2.4398
2.4306
2.42166
2.4135
2.41442
2.44181
2.47429
2.29667
1.48075
-0.311383
0.183547
0.184177
0.183448
0.182904
0.182536
0.182223
0.181898
0.181532
0.18111
0.180628
0.180085
0.179486
0.178833
0.178132
0.177385
0.176597
0.175771
0.17491
0.174017
0.173095
0.172146
0.171173
0.170178
0.169165
0.168135
0.16709
0.166033
0.164966
0.16389
0.162807
0.161718
0.160625
0.15953
0.158434
0.157337
0.156241
0.155147
0.154055
3.79542
3.78981
3.78292
3.77546
3.76729
3.76004
3.76157
3.77984
3.77264
3.54574
2.9115
0.281527
0.335086
0.334875
0.334527
0.33439
0.334382
0.334381
0.334327
0.334191
0.333963
0.333641
0.333229
0.33273
0.332149
0.331491
0.33076
0.32996
0.329093
0.328163
0.327172
0.326123
0.32502
0.323864
0.322657
0.321403
0.320103
0.31876
0.317376
0.315953
0.314494
0.312999
0.311472
0.309914
0.308326
0.30671
0.305068
0.303402
0.301712
0.3
5.52058
5.50948
5.49803
5.48584
5.47335
5.48049
5.56122
5.69789
5.36914
3.18088
-0.27807
0.351758
0.391778
0.389407
0.389016
0.38856
0.388084
0.387546
0.38691
0.38616
0.385294
0.38432
0.383249
0.382093
0.380863
0.379568
0.378217
0.376817
0.375373
0.373889
0.37237
0.370819
0.369237
0.367629
0.365995
0.364338
0.362659
0.360962
0.359246
0.357514
0.355767
0.354007
0.352235
0.350452
0.348659
0.346857
0.345047
0.34323
0.341407
0.339578
6.45655
6.42146
6.3835
6.3502
6.32442
6.31671
6.33633
6.31502
5.96871
5.08179
1.55156
0.449769
0.452515
0.450689
0.449956
0.449312
0.44857
0.447695
0.446693
0.44557
0.444334
0.442994
0.441565
0.440063
0.438503
0.4369
0.435264
0.433606
0.431931
0.430244
0.42855
0.42685
0.425148
0.423443
0.421737
0.42003
0.418322
0.416613
0.414904
0.413193
0.411481
0.409767
0.408052
0.406335
0.404615
0.402892
0.401167
0.399438
0.397706
0.395969
7.77427
7.72181
7.66941
7.62721
7.60561
7.62616
7.65831
7.41104
6.2948
3.37738
0.471691
0.471875
0.471469
0.470878
0.470452
0.47007
0.469581
0.46889
0.467954
0.466769
0.465356
0.463756
0.462011
0.460163
0.458247
0.456293
0.454323
0.452351
0.450391
0.44845
0.446536
0.444654
0.442807
0.440996
0.439221
0.437482
0.435777
0.434103
0.432459
0.430841
0.429248
0.427677
0.426125
0.42459
0.423069
0.421561
0.420064
0.418574
0.417092
0.415613
6.02807
5.98597
5.94226
5.92016
5.94955
6.00323
5.74958
4.44576
1.40017
0.370478
0.439708
0.442612
0.441988
0.441969
0.441594
0.440906
0.440144
0.439415
0.43862
0.437922
0.437372
0.437016
0.436856
0.436852
0.436921
0.436975
0.436967
0.436885
0.436739
0.436549
0.43633
0.436087
0.43582
0.435529
0.435217
0.434885
0.434534
0.434161
0.433767
0.433352
0.432913
0.432452
0.431967
0.431457
0.430923
0.430363
0.429776
0.429163
0.428521
0.427852
4.84854
4.94672
5.05569
5.16071
5.28793
5.4237
5.28148
4.19633
-2.89174
-0.158435
0.0871069
0.406063
0.431642
0.429351
0.427511
0.42981
0.429538
0.429042
0.428398
0.427776
0.427504
0.427469
0.427377
0.427168
0.426887
0.426621
0.426377
0.42633
0.426498
0.426874
0.427425
0.428083
0.428779
0.429456
0.430086
0.430667
0.431201
0.431684
0.432112
0.432485
0.432802
0.433065
0.433274
0.43343
0.433531
0.433578
0.433573
0.433514
0.433405
0.433245
-0.496963
-0.258255
-0.0272409
0.158376
0.32974
0.576948
0.915184
0.674147
-2.22394
-11.293
-13.4489
-6.79927
-2.20781
0.138744
0.243084
0.199816
0.196795
0.232661
0.317132
0.392105
0.414112
0.416756
0.425093
0.434175
0.43992
0.442359
0.44176
0.439973
0.439638
0.440187
0.440935
0.441423
0.441553
0.44153
0.441616
0.441783
0.441987
0.442195
0.442436
0.442677
0.442902
0.4431
0.443264
0.443387
0.44347
0.443508
0.4435
0.443446
0.443346
0.443201
9.81148
9.88905
9.97968
10.0631
10.1359
10.2015
10.2683
10.3223
10.3327
10.1666
9.81992
10.2325
12.9319
13.8754
-0.141829
-2.20423
-3.34582
-3.50591
-3.82978
-2.32607
-0.1957
0.444052
0.489757
0.409074
0.349739
0.348771
0.380547
0.405394
0.41623
0.436853
0.457518
0.462187
0.453303
0.446255
0.445657
0.448116
0.449118
0.449033
0.448768
0.448689
0.448699
0.448705
0.448702
0.448664
0.448579
0.44846
0.44837
0.448274
0.448156
0.448006
12.8934
12.9053
12.9179
12.9363
12.9603
12.9917
13.0282
13.0723
13.1255
13.1973
13.2933
13.4185
13.5198
13.6375
13.6541
13.6466
13.6892
14.0812
15.4412
18.0355
18.1916
5.85386
2.39793
1.04841
-1.25243
-4.30518
-4.56439
-0.505758
0.59033
0.985131
0.92291
0.718896
0.537902
0.473126
0.485071
0.486133
0.465817
0.4506
0.450298
0.450479
0.448825
0.447591
0.447962
0.448998
0.449606
0.449627
0.449454
0.449294
0.449122
0.448841
18.6193
18.6048
18.5927
18.5844
18.5794
18.5767
18.5768
18.5784
18.5827
18.5891
18.5984
18.6086
18.6178
18.6266
18.6453
18.6801
18.7504
18.8731
19.046
19.2243
19.4093
19.5361
19.6452
19.7853
20.0276
20.6136
21.7363
21.8483
13.7892
8.43463
3.91211
-2.19245
0.371212
2.42241
3.21246
2.25988
0.93975
0.412358
0.408992
0.427461
0.443852
0.479299
0.475229
0.478302
0.449521
0.436938
0.440524
0.442421
0.442957
0.442965
22.1242
22.0897
22.0531
22.0222
21.997
21.9768
21.9612
21.95
21.9434
21.9413
21.9436
21.9502
21.9611
21.976
21.995
22.0181
22.0455
22.0772
22.1118
22.1411
22.1755
22.2154
22.2615
22.3318
22.4422
22.5729
22.7297
22.8872
23.0433
23.2229
23.542
23.7992
21.1699
19.7862
10.3989
2.03377
-0.0777993
1.81748
2.38672
1.09645
0.50595
0.57426
0.705639
0.749037
0.696407
0.550239
0.448911
0.432183
0.431704
0.427902
25.8597
25.8072
25.7529
25.7068
25.6682
25.6359
25.6095
25.5888
25.5739
25.5648
25.5615
25.564
25.5722
25.5861
25.6059
25.6314
25.6625
25.7088
25.739
25.7959
25.8477
25.9059
25.9697
26.1637
26.0701
26.1522
26.2361
26.3248
26.4218
26.5303
26.6465
26.7659
26.8666
27.027
27.2243
27.5348
25.7131
19.6344
9.917
2.89682
3.30208
3.45468
2.66579
2.31227
2.34131
2.09295
1.65667
1.2509
0.944492
0.7141
28.1578
28.0977
28.0348
27.9805
27.9342
27.8945
27.8608
27.8332
27.8115
27.7958
27.7861
27.7823
27.7845
27.7925
27.8065
27.826
27.8604
27.89
27.9287
27.9766
28.0138
28.0664
28.1339
28.3046
28.0444
28.1282
28.2169
28.3085
28.4054
28.5143
28.6135
28.7274
28.8485
28.9787
29.1126
29.2276
29.3217
29.4785
29.6804
29.723
24.2341
17.9
14.9124
13.1602
11.927
10.5556
9.07977
7.60951
6.1376
4.70491
29.2913
29.2498
29.2054
29.1661
29.1316
29.101
29.074
29.0505
29.0305
29.014
29.001
28.9914
28.9853
28.9825
28.9831
28.9866
29.005
29.0111
29.0255
29.0454
29.0544
29.073
29.0895
29.1842
29.0395
29.0831
29.1198
29.1585
29.194
29.2372
29.2884
29.3169
29.3663
29.4175
29.4704
29.5255
29.5845
29.6458
29.692
29.7186
29.7583
29.7876
29.6524
27.2208
26.254
25.3058
23.6403
21.6455
19.2482
16.6409
30.0746
30.0477
30.0191
29.9937
29.9712
29.9511
29.9331
29.9174
29.9038
29.8925
29.8833
29.8764
29.8716
29.869
29.8685
29.8701
29.8736
29.8878
29.88
29.8931
29.9054
29.9179
29.9264
30.1952
30.1034
30.1332
30.1594
30.1926
30.2152
30.2444
30.2805
30.3087
30.345
30.3827
30.4222
30.4634
30.5061
30.5506
30.5967
30.6454
30.6948
30.7364
30.7793
30.8282
30.8879
30.889
29.9055
29.3003
28.2771
26.8426
30.3954
30.3788
30.3611
30.3455
30.3319
30.3201
30.3099
30.3013
30.2944
30.2892
30.2856
30.2838
30.2836
30.2851
30.2883
30.2932
30.2998
30.3105
30.3202
30.3319
30.3464
30.3613
30.3773
30.3917
30.6116
30.4217
30.4498
30.4764
30.508
30.5314
30.5626
30.5974
30.6251
30.6621
30.7008
30.7414
30.7839
30.8288
30.8755
30.9253
30.977
31.0312
31.0846
31.1329
31.1745
31.2028
31.2179
30.8838
29.7557
28.6057
30.6481
30.64
30.6317
30.6244
30.6181
30.6125
30.6076
30.6035
30.6002
30.5978
30.5961
30.5952
30.5951
30.5959
30.5975
30.5998
30.603
30.6073
30.6119
30.6171
30.6242
30.6306
30.6378
30.6456
30.6524
30.7294
30.6659
30.6761
30.6854
30.6946
30.7007
30.7084
30.7173
30.7186
30.7236
30.7271
30.73
30.7363
30.7501
30.7613
30.7606
30.7347
30.6702
30.5797
29.7002
28.2106
26.9198
25.3757
23.2674
20.5051
30.5485
30.5421
30.5349
30.5284
30.5229
30.5182
30.5143
30.5111
30.5087
30.507
30.506
30.5057
30.5061
30.5072
30.5088
30.511
30.5137
30.517
30.5204
30.5243
30.5286
30.533
30.5374
30.5419
30.5465
30.5508
30.5605
30.5638
30.5667
30.57
30.573
30.5747
30.5776
30.5839
30.5874
30.5782
30.5509
30.5047
30.5577
30.6403
31.3069
27.8587
25.8233
23.7032
21.2143
18.2829
15.1371
12.0682
9.01239
6.30235
0.149557
0.148256
0.146926
0.14557
0.144188
0.142783
0.141357
0.13991
0.138445
0.136962
0.135464
0.133951
0.132426
0.130889
0.129342
0.127786
0.126222
0.124652
0.123076
0.121496
0.119913
0.118328
0.116742
0.115156
0.113571
0.111988
0.110407
0.10883
0.107257
0.10569
0.104129
0.102574
0.101027
0.0994875
0.0979571
0.0964361
0.0949251
0.0934246
0.0919351
0.0904573
0.0889918
0.0875388
0.0860981
0.0846697
0.0832571
0.0818659
0.0804892
0.0790965
0.0776773
0.0763544
0.152967
0.151883
0.150803
0.149728
0.14866
0.147597
0.146541
0.145491
0.144448
0.143413
0.142385
0.141364
0.14035
0.139344
0.138346
0.137355
0.136372
0.135396
0.134428
0.133466
0.132512
0.131565
0.130624
0.12969
0.128763
0.127842
0.126926
0.126017
0.125114
0.124216
0.123323
0.122435
0.121552
0.120674
0.1198
0.118931
0.118065
0.117204
0.116346
0.115491
0.11464
0.113791
0.112946
0.112104
0.111264
0.110422
0.10958
0.108758
0.107966
0.107136
0.298267
0.296515
0.294745
0.292958
0.291154
0.289336
0.287504
0.285658
0.2838
0.281931
0.280052
0.278162
0.276264
0.274357
0.272443
0.270522
0.268594
0.266661
0.264723
0.26278
0.260833
0.258883
0.25693
0.254974
0.253017
0.251058
0.249098
0.247137
0.245177
0.243216
0.241256
0.239298
0.237341
0.235385
0.233432
0.231482
0.229534
0.22759
0.225649
0.223712
0.221779
0.219852
0.217928
0.21601
0.214098
0.212194
0.210296
0.208392
0.20648
0.20461
0.337744
0.335906
0.334063
0.332217
0.330368
0.328516
0.326662
0.324806
0.322947
0.321087
0.319225
0.317362
0.315498
0.313632
0.311766
0.309899
0.308031
0.306162
0.304293
0.302423
0.300553
0.298683
0.296812
0.294941
0.29307
0.291198
0.289327
0.287455
0.285584
0.283713
0.281842
0.279972
0.278102
0.276232
0.274363
0.272494
0.270627
0.26876
0.266894
0.265029
0.263166
0.261303
0.259443
0.257584
0.255726
0.253869
0.252013
0.250165
0.248332
0.246489
0.394229
0.392483
0.390733
0.388977
0.387216
0.385449
0.383675
0.381895
0.380108
0.378315
0.376513
0.374705
0.372888
0.371064
0.369232
0.367391
0.365542
0.363685
0.361819
0.359945
0.358062
0.356171
0.354271
0.352363
0.350446
0.348521
0.346588
0.344646
0.342697
0.340739
0.338774
0.336801
0.334821
0.332834
0.33084
0.32884
0.326833
0.32482
0.322801
0.320776
0.318746
0.316711
0.314671
0.312627
0.310579
0.308528
0.306473
0.304413
0.302349
0.300293
0.414138
0.412664
0.41119
0.409715
0.408237
0.406755
0.405267
0.403774
0.402273
0.400764
0.399247
0.39772
0.396182
0.394634
0.393074
0.391502
0.389918
0.388321
0.386711
0.385087
0.38345
0.3818
0.380135
0.378456
0.376763
0.375056
0.373335
0.3716
0.36985
0.368087
0.366311
0.36452
0.362717
0.3609
0.35907
0.357228
0.355373
0.353506
0.351628
0.349737
0.347836
0.345924
0.344002
0.34207
0.340128
0.338176
0.336214
0.334248
0.332282
0.330302
0.427154
0.426427
0.425671
0.424884
0.424068
0.423221
0.422343
0.421434
0.420494
0.419523
0.418521
0.417488
0.416423
0.415328
0.414201
0.413044
0.411856
0.410638
0.40939
0.408111
0.406803
0.405466
0.4041
0.402706
0.401283
0.399833
0.398355
0.396851
0.39532
0.393764
0.392183
0.390577
0.388946
0.387293
0.385616
0.383917
0.382196
0.380454
0.378691
0.376908
0.375106
0.373286
0.371447
0.369591
0.367718
0.365828
0.363923
0.362004
0.360076
0.358133
0.433034
0.432775
0.432466
0.43211
0.431705
0.431254
0.430756
0.430211
0.429621
0.428986
0.428307
0.427583
0.426817
0.426007
0.425155
0.424262
0.423327
0.422352
0.421338
0.420284
0.419192
0.418062
0.416895
0.415692
0.414453
0.413179
0.411871
0.41053
0.409155
0.407749
0.406311
0.404843
0.403346
0.401819
0.400264
0.398682
0.397073
0.395438
0.393778
0.392094
0.390387
0.388657
0.386905
0.385132
0.383338
0.381525
0.379691
0.377844
0.375987
0.374107
0.44301
0.442773
0.442491
0.442163
0.441789
0.441371
0.440907
0.440399
0.439846
0.439249
0.438608
0.437923
0.437194
0.436423
0.435608
0.434752
0.433854
0.432915
0.431936
0.430916
0.429857
0.428759
0.427623
0.426449
0.425239
0.423992
0.42271
0.421393
0.420042
0.418658
0.417241
0.415793
0.414314
0.412805
0.411267
0.4097
0.408105
0.406484
0.404837
0.403164
0.401468
0.399747
0.398004
0.39624
0.394454
0.392647
0.39082
0.388978
0.387125
0.385251
0.447817
0.447581
0.447296
0.44696
0.446573
0.446137
0.445652
0.44512
0.444541
0.443916
0.443245
0.442528
0.441766
0.44096
0.44011
0.439216
0.43828
0.437301
0.436281
0.43522
0.43412
0.43298
0.431801
0.430585
0.429332
0.428043
0.426718
0.425359
0.423967
0.422542
0.421085
0.419597
0.418079
0.416531
0.414956
0.413353
0.411723
0.410068
0.408388
0.406684
0.404958
0.403209
0.401439
0.399649
0.397839
0.39601
0.394162
0.392301
0.390431
0.388541
0.448541
0.448198
0.447822
0.447416
0.446975
0.446495
0.445969
0.445393
0.444765
0.444086
0.443355
0.442574
0.441743
0.440865
0.439939
0.438968
0.437952
0.436892
0.43579
0.434646
0.433462
0.432238
0.430975
0.429675
0.428338
0.426966
0.42556
0.42412
0.422647
0.421143
0.419609
0.418046
0.416454
0.414835
0.413189
0.411518
0.409823
0.408105
0.406364
0.404601
0.402818
0.401016
0.399195
0.397356
0.395501
0.393629
0.391741
0.389842
0.387936
0.386014
0.442883
0.442764
0.442457
0.442005
0.441471
0.440873
0.440223
0.439523
0.438772
0.437969
0.437116
0.436214
0.435264
0.434268
0.433225
0.432138
0.431007
0.429833
0.428618
0.427363
0.426069
0.424737
0.423369
0.421966
0.420528
0.419058
0.417556
0.416024
0.414462
0.412872
0.411255
0.409612
0.407944
0.406253
0.404538
0.402802
0.401045
0.399269
0.397474
0.39566
0.39383
0.391985
0.390124
0.388249
0.386361
0.38446
0.382547
0.380626
0.378701
0.376764
0.424676
0.423684
0.423878
0.42411
0.424139
0.423824
0.423237
0.422589
0.421919
0.421218
0.420472
0.419674
0.41882
0.417912
0.416951
0.415937
0.414872
0.413759
0.412598
0.411393
0.410144
0.408853
0.407522
0.406153
0.404747
0.403307
0.401832
0.400325
0.398788
0.397222
0.395627
0.394006
0.392359
0.390689
0.388995
0.38728
0.385544
0.38379
0.382017
0.380228
0.378422
0.376602
0.374768
0.372922
0.371065
0.369196
0.367317
0.365431
0.363543
0.361645
0.566819
0.47977
0.436649
0.411137
0.397043
0.394265
0.39446
0.394461
0.393998
0.393436
0.392898
0.392357
0.391781
0.391154
0.390471
0.38973
0.388929
0.38807
0.387154
0.386183
0.38516
0.384087
0.382966
0.381798
0.380587
0.379334
0.378041
0.37671
0.375343
0.373942
0.372508
0.371044
0.36955
0.368028
0.366481
0.364909
0.363314
0.361698
0.360061
0.358406
0.356733
0.355044
0.35334
0.351623
0.349893
0.348151
0.346399
0.34464
0.342876
0.341103
3.4985
2.53556
1.8094
1.18777
0.669477
0.431385
0.370018
0.360322
0.359622
0.359507
0.359162
0.358771
0.358406
0.35805
0.35767
0.357247
0.356771
0.356239
0.355647
0.354996
0.354287
0.353521
0.352701
0.351828
0.350905
0.349935
0.348918
0.347858
0.346756
0.345615
0.344436
0.343221
0.341972
0.340691
0.33938
0.338041
0.336674
0.335282
0.333866
0.332429
0.33097
0.329492
0.327997
0.326485
0.324958
0.323417
0.321863
0.320299
0.318728
0.317147
14.0709
11.5133
8.94557
6.10028
3.04584
1.16886
0.508873
0.35066
0.324139
0.320897
0.320281
0.3202
0.320194
0.320208
0.320234
0.320252
0.320237
0.32017
0.32004
0.319844
0.319581
0.319249
0.318852
0.318391
0.317869
0.317289
0.316653
0.315963
0.315223
0.314434
0.313599
0.312721
0.311802
0.310843
0.309847
0.308816
0.307752
0.306657
0.305533
0.304381
0.303204
0.302003
0.300779
0.299534
0.298271
0.296989
0.295691
0.294379
0.293056
0.29172
24.9086
22.1954
18.4482
13.2246
6.68443
2.3579
0.772429
0.363478
0.287543
0.280307
0.27999
0.280143
0.28048
0.280931
0.281456
0.282005
0.282539
0.283028
0.283452
0.2838
0.284067
0.284252
0.284357
0.284383
0.284333
0.284211
0.284019
0.283762
0.283442
0.283062
0.282626
0.282136
0.281595
0.281005
0.280371
0.279693
0.278974
0.278217
0.277424
0.276596
0.275737
0.274848
0.273931
0.272987
0.27202
0.271029
0.270018
0.268988
0.267942
0.266879
27.1026
24.8575
21.2593
15.3895
7.54549
2.46855
0.739007
0.313793
0.245438
0.245544
0.246441
0.246747
0.247278
0.248021
0.248872
0.249759
0.250639
0.251477
0.252253
0.252952
0.253568
0.254097
0.254541
0.254901
0.25518
0.255381
0.255508
0.255565
0.255555
0.25548
0.255345
0.255152
0.254905
0.254606
0.254257
0.253862
0.253424
0.252943
0.252424
0.251868
0.251277
0.250653
0.249999
0.249317
0.248607
0.247873
0.247115
0.246337
0.245539
0.244723
17.2778
12.9935
7.70231
3.07579
0.971584
0.327253
0.219558
0.226558
0.222124
0.222169
0.222631
0.223203
0.223944
0.2248
0.225719
0.226657
0.227581
0.228464
0.22929
0.230046
0.230729
0.231334
0.231864
0.232318
0.232701
0.233013
0.23326
0.233442
0.233564
0.233627
0.233636
0.233591
0.233497
0.233355
0.233168
0.232938
0.232668
0.232359
0.232014
0.231635
0.231223
0.23078
0.23031
0.229812
0.229289
0.228742
0.228173
0.227584
0.226977
0.226352
4.25006
2.45692
0.9857
0.107467
0.203531
0.214727
0.214404
0.214056
0.213708
0.213906
0.214278
0.214684
0.215115
0.215569
0.216035
0.216497
0.216943
0.217362
0.217747
0.218092
0.218397
0.218658
0.218877
0.219053
0.219187
0.21928
0.219333
0.219347
0.219324
0.219265
0.219171
0.219043
0.218883
0.218692
0.218471
0.218221
0.217944
0.217642
0.217314
0.216963
0.21659
0.216195
0.215781
0.215348
0.214897
0.21443
0.213947
0.21345
0.21294
0.212417
0.0755702
0.0750242
0.0744636
0.0738903
0.0733062
0.0727117
0.0721071
0.0714928
0.070869
0.0702361
0.0695945
0.0689443
0.068286
0.0676199
0.0669463
0.0662656
0.065578
0.0648839
0.0641837
0.0634775
0.0627659
0.062049
0.0613272
0.0606008
0.0598701
0.0591356
0.0583973
0.0576557
0.0569112
0.0561638
0.0554141
0.0546623
0.0539086
0.0531534
0.052397
0.0516396
0.0508815
0.0501231
0.0493646
0.0486062
0.0478482
0.047091
0.0463347
0.0455796
0.044826
0.0440742
0.0433243
0.0425766
0.0418314
0.0410888
0.0403492
0.0396126
0.0388795
0.0381499
0.037424
0.0367022
0.0359845
0.0352712
0.0345625
0.0338585
0.0331594
0.0324654
0.0317767
0.0310935
0.0304158
0.0297439
0.0290779
0.0284179
0.0277641
0.0271167
0.0264756
0.0258412
0.0252134
0.0245925
0.0239784
0.0233714
0.0227715
0.0221788
0.0215934
0.0210153
0.0204448
0.0198817
0.0193262
0.0187784
0.0182383
0.017706
0.0171815
0.0166649
0.0161561
0.0156553
0.0151625
0.0146776
0.0142008
0.013732
0.0132712
0.0128185
0.0123738
0.0119373
0.0115087
0.0110882
0.0106757
0.0102713
0.00987485
0.00948639
0.00910587
0.00873328
0.00836858
0.00801173
0.00766269
0.00732143
0.00698789
0.00666203
0.00634379
0.00603312
0.00572997
0.00543428
0.00514597
0.00486499
0.00459128
0.00432475
0.00406535
0.00381299
0.0035676
0.0033291
0.00309742
0.00287247
0.00265417
0.00244244
0.00223718
0.00203832
0.00184576
0.00165942
0.00147919
0.001305
0.00113675
0.000974337
0.000817675
0.000666665
0.000521212
0.00038122
0.000246589
0.000117223
-6.97647e-06
-0.000126108
-0.000240271
-0.000349563
-0.000454084
-0.000553933
-0.000649208
-0.000740008
-0.000826433
-0.00090858
-0.000986548
-0.00106043
-0.00113034
-0.00119635
-0.00125858
-0.00131711
-0.00137204
-0.00142347
-0.00147149
-0.00151619
-0.00155767
-0.00159602
-0.00163134
-0.0016637
-0.0016932
-0.00171994
-0.001744
-0.00176546
-0.00178441
-0.00180094
-0.00181514
-0.00182707
-0.00183684
-0.00184451
-0.00185017
-0.0018539
-0.00185578
-0.00185587
-0.00185426
-0.00185102
-0.00184622
-0.00183994
-0.00183224
-0.0018232
-0.00181288
-0.00180134
-0.00178866
-0.00177489
-0.0017601
-0.00174435
-0.0017277
-0.00171021
-0.00169193
-0.00167292
-0.00165323
-0.00163293
-0.00161205
-0.00159065
-0.00156877
-0.00154648
-0.0015238
-0.00150079
-0.00147749
-0.00145394
-0.00143019
-0.00140627
-0.00138223
-0.0013581
-0.00133393
-0.00130973
-0.00128557
-0.00126145
-0.00123743
-0.00121354
-0.0011898
-0.00116624
-0.0011429
-0.00111981
-0.00109698
-0.00107447
-0.00105227
-0.00103044
-0.00100898
-0.000987924
-0.000967298
-0.000947121
-0.000927415
-0.000908202
-0.000889501
-0.00087133
-0.000853707
-0.000836649
-0.00082017
-0.000804285
-0.000789008
-0.000774352
-0.000760329
-0.000746952
-0.000734231
-0.000722178
-0.000710806
-0.000700126
-0.000690149
-0.000680889
-0.000672356
-0.000664563
-0.000657523
-0.00065125
-0.000645754
-0.00064105
-0.000637151
-0.00063407
-0.00063182
-0.000630415
-0.000629867
-0.000630188
-0.000631389
-0.000633482
-0.000636475
-0.000640378
-0.0006452
-0.000650948
-0.00065763
-0.000665252
-0.000673819
-0.000683332
-0.000693792
-0.000705198
-0.000717553
-0.000730864
-0.000745146
-0.000760425
-0.000776737
-0.00079413
-0.00081266
-0.000832392
-0.000853392
-0.000875731
-0.000899482
-0.000924724
-0.000951537
-0.000980017
-0.00101029
-0.00104255
-0.00107706
-0.00111403
-0.00115359
-0.00119605
-0.00124251
-0.0012946
-0.00135184
-0.00140934
-0.0014654
-0.00153966
-0.00166766
-0.00182246
-0.00183603
-0.00155682
0.106368
0.105839
0.105318
0.104802
0.104291
0.103783
0.103279
0.102778
0.102282
0.101789
0.101299
0.100813
0.10033
0.0998498
0.099373
0.0988992
0.0984283
0.0979601
0.0974946
0.0970316
0.0965711
0.0961129
0.0956569
0.095203
0.0947511
0.0943012
0.093853
0.0934065
0.0929615
0.0925181
0.0920759
0.0916351
0.0911953
0.0907566
0.0903188
0.0898819
0.0894457
0.0890101
0.088575
0.0881404
0.087706
0.087272
0.086838
0.0864041
0.0859702
0.0855361
0.0851018
0.0846672
0.0842322
0.0837968
0.0833608
0.0829242
0.0824869
0.0820489
0.08161
0.0811703
0.0807296
0.0802878
0.079845
0.0794011
0.078956
0.0785097
0.0780621
0.0776132
0.0771629
0.0767112
0.0762581
0.0758035
0.0753475
0.0748899
0.0744308
0.0739702
0.0735079
0.0730441
0.0725787
0.0721117
0.0716431
0.0711728
0.070701
0.0702275
0.0697525
0.0692758
0.0687976
0.0683178
0.0678365
0.0673537
0.0668693
0.0663835
0.0658963
0.0654076
0.0649176
0.0644263
0.0639336
0.0634397
0.0629446
0.0624483
0.0619509
0.0614524
0.0609529
0.0604524
0.059951
0.0594488
0.0589458
0.058442
0.0579376
0.0574326
0.056927
0.056421
0.0559145
0.0554077
0.0549007
0.0543935
0.0538861
0.0533787
0.0528713
0.052364
0.0518569
0.0513501
0.0508436
0.0503375
0.0498318
0.0493268
0.0488223
0.0483186
0.0478157
0.0473136
0.0468125
0.0463124
0.0458134
0.0453156
0.0448191
0.0443239
0.0438301
0.0433378
0.042847
0.0423579
0.0418704
0.0413847
0.0409009
0.040419
0.0399391
0.0394612
0.0389855
0.0385119
0.0380406
0.0375715
0.0371049
0.0366407
0.0361789
0.0357198
0.0352632
0.0348093
0.0343581
0.0339096
0.033464
0.0330212
0.0325814
0.0321445
0.0317106
0.0312797
0.030852
0.0304273
0.0300058
0.0295875
0.0291724
0.0287606
0.0283521
0.0279469
0.027545
0.0271465
0.0267514
0.0263597
0.0259715
0.0255867
0.0252053
0.0248274
0.0244531
0.0240822
0.0237148
0.0233509
0.0229906
0.0226338
0.0222805
0.0219307
0.0215845
0.0212417
0.0209025
0.0205668
0.0202347
0.019906
0.0195808
0.019259
0.0189407
0.0186259
0.0183145
0.0180065
0.0177019
0.0174007
0.0171028
0.0168083
0.0165171
0.0162292
0.0159445
0.0156631
0.0153849
0.0151099
0.014838
0.0145693
0.0143037
0.0140411
0.0137816
0.0135251
0.0132715
0.013021
0.0127733
0.0125284
0.0122865
0.0120473
0.0118109
0.0115772
0.0113461
0.0111178
0.010892
0.0106688
0.0104482
0.01023
0.0100143
0.00980099
0.00959005
0.00938143
0.0091751
0.008971
0.00876911
0.00856937
0.00837176
0.00817621
0.0079827
0.00779119
0.00760162
0.00741395
0.00722816
0.00704418
0.00686198
0.00668152
0.00650274
0.00632561
0.00615009
0.00597611
0.00580365
0.00563265
0.00546307
0.00529485
0.00512795
0.00496232
0.0047979
0.00463465
0.00447251
0.00431144
0.00415137
0.00399227
0.00383408
0.00367675
0.00352023
0.00336447
0.00320943
0.00305507
0.00290134
0.00274821
0.00259563
0.00244357
0.00229198
0.00214082
0.00199002
0.00183952
0.00168924
0.00153907
0.00138892
0.00123866
0.00108815
0.000937265
0.000785847
0.000633745
0.000480801
0.000326848
0.000171677
1.49908e-05
-0.000143588
-0.000304363
-0.00046744
-0.000633158
-0.000803089
-0.000979694
-0.00116222
-0.00134286
-0.00151732
-0.00171182
-0.00197868
-0.00228869
-0.00241426
-0.00212933
0.203268
0.202327
0.201376
0.200417
0.199451
0.198477
0.197497
0.19651
0.195516
0.194515
0.193507
0.192493
0.191473
0.190445
0.189412
0.188372
0.187326
0.186275
0.185217
0.184153
0.183084
0.182009
0.180929
0.179843
0.178753
0.177657
0.176556
0.17545
0.17434
0.173225
0.172105
0.170982
0.169854
0.168722
0.167587
0.166447
0.165305
0.164158
0.163009
0.161856
0.160701
0.159542
0.158382
0.157218
0.156053
0.154885
0.153715
0.152543
0.15137
0.150195
0.149019
0.147842
0.146664
0.145484
0.144305
0.143124
0.141944
0.140763
0.139582
0.138401
0.137221
0.136041
0.134862
0.133683
0.132506
0.13133
0.130155
0.128981
0.127809
0.126639
0.125471
0.124305
0.123141
0.121979
0.12082
0.119664
0.11851
0.11736
0.116213
0.115069
0.113928
0.112791
0.111658
0.110528
0.109403
0.108282
0.107165
0.106052
0.104944
0.10384
0.102741
0.101647
0.100558
0.0994746
0.0983961
0.0973228
0.0962551
0.0951928
0.0941363
0.0930855
0.0920406
0.0910016
0.0899687
0.0889419
0.0879214
0.0869072
0.0858994
0.0848981
0.0839034
0.0829153
0.081934
0.0809594
0.0799917
0.0790309
0.0780771
0.0771303
0.0761906
0.0752581
0.0743329
0.0734148
0.0725041
0.0716007
0.0707047
0.0698161
0.068935
0.0680614
0.0671953
0.0663368
0.0654858
0.0646425
0.0638068
0.0629787
0.0621582
0.0613454
0.0605403
0.0597429
0.0589532
0.0581711
0.0573967
0.05663
0.055871
0.0551197
0.054376
0.05364
0.0529116
0.0521909
0.0514777
0.0507721
0.0500741
0.0493836
0.0487006
0.0480251
0.0473571
0.0466964
0.0460432
0.0453973
0.0447586
0.0441273
0.0435032
0.0428863
0.0422765
0.0416738
0.0410781
0.0404894
0.0399077
0.0393328
0.0387648
0.0382036
0.0376491
0.0371012
0.0365599
0.0360252
0.035497
0.0349751
0.0344596
0.0339504
0.0334474
0.0329506
0.0324598
0.0319751
0.0314962
0.0310233
0.0305561
0.0300946
0.0296388
0.0291886
0.0287439
0.0283045
0.0278706
0.0274419
0.0270184
0.0266
0.0261866
0.0257782
0.0253747
0.024976
0.024582
0.0241927
0.0238079
0.0234276
0.0230517
0.0226802
0.0223129
0.0219498
0.0215908
0.0212358
0.0208848
0.0205376
0.0201942
0.0198545
0.0195184
0.0191859
0.0188568
0.0185311
0.0182087
0.0178896
0.0175736
0.0172606
0.0169507
0.0166437
0.0163395
0.0160381
0.0157393
0.0154432
0.0151496
0.0148584
0.0145697
0.0142832
0.013999
0.013717
0.013437
0.013159
0.0128831
0.0126089
0.0123366
0.0120661
0.0117972
0.0115299
0.0112641
0.0109998
0.0107369
0.0104753
0.0102149
0.00995576
0.00969771
0.00944071
0.00918468
0.00892956
0.00867526
0.00842172
0.00816886
0.00791661
0.00766489
0.00741365
0.00716279
0.00691225
0.00666197
0.00641186
0.00616186
0.0059119
0.00566191
0.00541182
0.00516157
0.00491108
0.00466031
0.00440919
0.00415766
0.00390566
0.00365312
0.00339998
0.00314615
0.00289155
0.00263607
0.0023796
0.00212201
0.00186317
0.00160295
0.0013412
0.00107778
0.00081256
0.000545391
0.000276131
4.62234e-06
-0.000269305
-0.000545863
-0.000825337
-0.00110806
-0.00139427
-0.001684
-0.00197744
-0.00227575
-0.00258077
-0.00289158
-0.00320146
-0.00350654
-0.0038274
-0.00420497
-0.00461466
-0.00487535
-0.00480064
0.245024
0.243998
0.242971
0.24194
0.240907
0.239871
0.238832
0.237789
0.236744
0.235696
0.234644
0.23359
0.232533
0.231472
0.230409
0.229343
0.228274
0.227202
0.226127
0.225049
0.223969
0.222886
0.221799
0.220711
0.219619
0.218524
0.217427
0.216327
0.215225
0.21412
0.213012
0.211901
0.210788
0.209672
0.208554
0.207433
0.20631
0.205184
0.204056
0.202926
0.201793
0.200657
0.19952
0.19838
0.197238
0.196093
0.194947
0.193798
0.192647
0.191494
0.19034
0.189183
0.188024
0.186863
0.185701
0.184537
0.183371
0.182203
0.181034
0.179863
0.17869
0.177517
0.176341
0.175165
0.173987
0.172808
0.171628
0.170446
0.169264
0.168081
0.166897
0.165712
0.164527
0.16334
0.162154
0.160966
0.159779
0.158591
0.157403
0.156215
0.155026
0.153838
0.15265
0.151462
0.150275
0.149087
0.147901
0.146715
0.145529
0.144345
0.143161
0.141979
0.140797
0.139617
0.138438
0.13726
0.136084
0.13491
0.133737
0.132566
0.131397
0.13023
0.129066
0.127903
0.126743
0.125585
0.12443
0.123278
0.122129
0.120982
0.119839
0.118698
0.117561
0.116428
0.115297
0.114171
0.113048
0.111929
0.110813
0.109702
0.108595
0.107492
0.106393
0.105299
0.104209
0.103124
0.102043
0.100968
0.0998968
0.098831
0.0977703
0.0967147
0.0956644
0.0946194
0.0935798
0.0925457
0.0915172
0.0904944
0.0894773
0.088466
0.0874606
0.0864612
0.0854678
0.0844805
0.0834993
0.0825243
0.0815556
0.0805933
0.0796373
0.0786878
0.0777448
0.0768083
0.0758784
0.0749551
0.0740384
0.0731285
0.0722253
0.0713288
0.0704392
0.0695564
0.0686804
0.0678113
0.0669491
0.0660938
0.0652453
0.0644039
0.0635693
0.0627417
0.0619211
0.0611074
0.0603006
0.0595007
0.0587078
0.0579218
0.0571428
0.0563706
0.0556053
0.0548468
0.0540952
0.0533504
0.0526124
0.0518811
0.0511565
0.0504387
0.0497275
0.0490229
0.0483249
0.0476334
0.0469484
0.0462699
0.0455977
0.044932
0.0442725
0.0436193
0.0429722
0.0423313
0.0416965
0.0410677
0.0404449
0.039828
0.0392169
0.0386116
0.0380119
0.037418
0.0368296
0.0362467
0.0356692
0.035097
0.0345302
0.0339685
0.033412
0.0328606
0.0323141
0.0317725
0.0312357
0.0307036
0.0301762
0.0296534
0.029135
0.028621
0.0281114
0.027606
0.0271047
0.0266075
0.0261143
0.0256249
0.0251394
0.0246576
0.0241794
0.0237048
0.0232336
0.0227658
0.0223013
0.0218401
0.0213819
0.0209268
0.0204746
0.0200252
0.0195786
0.0191347
0.0186934
0.0182546
0.0178182
0.017384
0.0169521
0.0165224
0.0160946
0.0156688
0.0152449
0.0148227
0.0144021
0.0139831
0.0135656
0.0131494
0.0127345
0.0123207
0.0119081
0.0114964
0.0110857
0.0106757
0.0102664
0.00985779
0.00944967
0.00904199
0.00863465
0.00822758