/*--------------------------------*- C++ -*----------------------------------*\
| =========                 |                                                 |
| \\      /  F ield         | OpenFOAM: The Open Source CFD Toolbox           |
|  \\    /   O peration     | Version:  2.4.0                                 |
|   \\  /    A nd           | Web:      www.OpenFOAM.org                      |
|    \\/     M anipulation  |                                                 |
\*---------------------------------------------------------------------------*/
FoamFile
{
    version     2.0;
    format      ascii;
    class       surfaceScalarField;
    location    "0.011";
    object      phi;
}
// * * * * * * * * * * * * * * * * * * * * * * * * * * * * * * * * * * * * * //

dimensions      [0 3 -1 0 0 0 0];

internalField   nonuniform List<scalar> 
123
(
2.00417e-16
8.79252e-16
2.00958e-15
-4.34724e-09
-4.34724e-09
-4.34724e-09
-4.34723e-09
-4.34723e-09
-4.34722e-09
-4.34721e-09
-4.3472e-09
-4.34719e-09
-4.34718e-09
-4.34717e-09
-4.34716e-09
-4.34715e-09
-4.34713e-09
-4.34712e-09
-4.3471e-09
-4.34708e-09
-4.34707e-09
-4.34705e-09
-4.34703e-09
-4.34702e-09
-4.347e-09
-4.34698e-09
-4.34696e-09
-4.34694e-09
-4.34692e-09
-4.3469e-09
-4.34688e-09
-4.34686e-09
-4.34683e-09
-4.34681e-09
-4.34679e-09
-4.34677e-09
-4.34675e-09
-4.34673e-09
-4.34671e-09
-4.34668e-09
-4.34666e-09
-4.34664e-09
-4.34662e-09
-4.3466e-09
-4.34658e-09
-4.34656e-09
-4.34653e-09
-4.34651e-09
-4.34649e-09
-4.34647e-09
-4.34645e-09
-4.34643e-09
-4.34641e-09
-4.34639e-09
-4.34637e-09
-4.34635e-09
-4.34633e-09
-4.34631e-09
-4.34629e-09
-4.34627e-09
-4.34625e-09
-4.34623e-09
-4.34622e-09
-4.3462e-09
-4.34618e-09
-4.34616e-09
-4.34614e-09
-4.34613e-09
-4.34611e-09
-4.34609e-09
-4.34608e-09
-4.34606e-09
-4.34604e-09
-4.34603e-09
-4.34601e-09
-4.346e-09
-4.34598e-09
-4.34596e-09
-4.34595e-09
-4.34593e-09
-4.34592e-09
-4.34591e-09
-4.34589e-09
-4.34588e-09
-4.34586e-09
-4.34585e-09
-4.34583e-09
-4.34582e-09
-4.34581e-09
-4.34579e-09
-4.34578e-09
-4.34577e-09
-4.34575e-09
-4.34574e-09
-4.34573e-09
-4.34572e-09
-4.3457e-09
-4.34569e-09
-4.34568e-09
-4.34447e-09
-4.34448e-09
-4.34449e-09
-4.3445e-09
-4.3445e-09
-4.34451e-09
-4.34452e-09
-4.34453e-09
-4.34454e-09
-4.34455e-09
-4.34456e-09
-4.34457e-09
-4.34458e-09
-4.34459e-09
-4.3446e-09
-4.34461e-09
-4.34462e-09
-4.34463e-09
-4.34465e-09
-4.34466e-09
-4.34467e-09
-4.34468e-09
-4.34469e-09
-4.3447e-09
)
;

boundaryField
{
    BotWall
    {
        type            calculated;
        value           uniform 4.90766e-21;
    }
    FreeStream
    {
        type            calculated;
        value           uniform -4.34472e-09;
    }
    FrontNBack
    {
        type            empty;
        value           nonuniform 0();
    }
    LeftSide
    {
        type            symmetryPlane;
        value           nonuniform 0();
    }
    RightSide
    {
        type            symmetryPlane;
        value           nonuniform 0();
    }
    procBoundary4to1
    {
        type            processor;
        value           nonuniform List<scalar> 
50
(
-2.15041e-14
-2.13361e-14
-2.116e-14
-2.09767e-14
-2.07871e-14
-2.0592e-14
-2.03923e-14
-2.01887e-14
-1.99819e-14
-1.97726e-14
-1.95615e-14
-1.93493e-14
-1.91364e-14
-1.89235e-14
-1.8711e-14
-1.84995e-14
-1.82893e-14
-1.80808e-14
-1.78745e-14
-1.76706e-14
-1.74695e-14
-1.72714e-14
-1.70765e-14
-1.68851e-14
-1.66974e-14
-1.65135e-14
-1.63334e-14
-1.61574e-14
-1.59856e-14
-1.58179e-14
-1.56544e-14
-1.54951e-14
-1.53401e-14
-1.51892e-14
-1.50426e-14
-1.49002e-14
-1.47619e-14
-1.46276e-14
-1.44973e-14
-1.43709e-14
-1.42483e-14
-1.41295e-14
-1.40143e-14
-1.39026e-14
-1.37944e-14
-1.36894e-14
-1.35877e-14
-1.34891e-14
-1.33935e-14
-1.33008e-14
)
;
    }
    procBoundary4to2
    {
        type            processor;
        value           nonuniform List<scalar> 
75
(
-2.26871e-16
-7.58915e-16
-1.26361e-15
-2.34143e-15
-2.49686e-15
-3.3234e-15
-4.62545e-15
-5.88207e-15
-7.06097e-15
-8.17801e-15
-9.247e-15
-1.02702e-14
-1.12472e-14
-1.21779e-14
-1.30627e-14
-1.39022e-14
-1.4697e-14
-1.54477e-14
-1.61548e-14
-1.68192e-14
-1.74416e-14
-1.80227e-14
-1.85634e-14
-1.90645e-14
-1.9527e-14
-1.99518e-14
-2.03398e-14
-2.06921e-14
-2.10097e-14
-2.12936e-14
-2.1545e-14
-2.1765e-14
-2.19546e-14
-2.2115e-14
-2.22474e-14
-2.2353e-14
-2.24328e-14
-2.24881e-14
-2.25201e-14
-2.253e-14
-2.25188e-14
-2.24879e-14
-2.24383e-14
-2.23712e-14
-2.22877e-14
-2.2189e-14
-2.20761e-14
-2.19501e-14
-2.18121e-14
-2.16631e-14
-1.64074e-15
-1.59806e-15
-1.55608e-15
-1.51502e-15
-1.47509e-15
-1.43652e-15
-1.39953e-15
-1.3643e-15
-1.33102e-15
-1.29987e-15
-1.27099e-15
-1.2445e-15
-1.2205e-15
-1.19905e-15
-1.1802e-15
-1.16395e-15
-1.15028e-15
-1.13913e-15
-1.13042e-15
-1.12405e-15
-1.11986e-15
-1.11773e-15
-1.11747e-15
-1.11886e-15
-1.12061e-15
)
;
    }
    procBoundary4to3
    {
        type            processor;
        value           uniform -4.34567e-09;
    }
    procBoundary4to5
    {
        type            processor;
        value           uniform 4.34447e-09;
    }
    procBoundary4to6
    {
        type            processor;
        value           nonuniform List<scalar> 
75
(
8.62384e-16
8.74156e-16
8.8413e-16
8.92356e-16
8.98892e-16
9.038e-16
9.07149e-16
9.09009e-16
9.09459e-16
9.08579e-16
9.06455e-16
9.03172e-16
8.98822e-16
8.93498e-16
8.87292e-16
8.80301e-16
8.72621e-16
8.64348e-16
8.55579e-16
8.4641e-16
8.36936e-16
8.27252e-16
8.17448e-16
8.07617e-16
7.97844e-16
7.88216e-16
7.78816e-16
7.69725e-16
7.61019e-16
7.52772e-16
7.45053e-16
7.37928e-16
7.31458e-16
7.257e-16
7.20706e-16
7.16527e-16
7.13205e-16
7.10781e-16
7.09291e-16
7.08765e-16
7.09231e-16
7.10711e-16
7.13225e-16
7.16785e-16
7.21404e-16
7.27088e-16
7.33839e-16
7.41659e-16
7.50543e-16
7.60485e-16
7.71474e-16
7.83497e-16
7.96538e-16
8.10579e-16
8.25598e-16
8.41574e-16
8.58481e-16
8.76294e-16
8.94984e-16
9.14522e-16
9.34878e-16
9.5602e-16
9.77916e-16
1.00053e-15
1.02384e-15
1.04779e-15
1.07236e-15
1.09752e-15
1.12322e-15
1.14944e-15
1.17613e-15
1.20327e-15
1.23082e-15
1.25874e-15
1.28701e-15
)
;
    }
    procBoundary4to7
    {
        type            processor;
        value           nonuniform List<scalar> 
50
(
2.64482e-17
8.00802e-17
1.33285e-16
2.10275e-16
2.24131e-16
2.4239e-16
2.86063e-16
3.31532e-16
3.75848e-16
4.18283e-16
4.59177e-16
4.98597e-16
5.36466e-16
5.72687e-16
6.07184e-16
6.39895e-16
6.70771e-16
6.99771e-16
7.26864e-16
7.52028e-16
7.75251e-16
7.96529e-16
8.15865e-16
8.33271e-16
8.48768e-16
8.55669e-15
8.8549e-15
9.14763e-15
9.43393e-15
9.71287e-15
9.98354e-15
1.02451e-14
1.04967e-14
1.07377e-14
1.09673e-14
1.1185e-14
1.13903e-14
1.15829e-14
1.17625e-14
1.1929e-14
1.20824e-14
1.22228e-14
1.23505e-14
1.24659e-14
1.25694e-14
1.26616e-14
1.27432e-14
1.28149e-14
1.28778e-14
1.2927e-14
)
;
    }
}


// ************************************************************************* //
