/*--------------------------------*- C++ -*----------------------------------*\
| =========                 |                                                 |
| \\      /  F ield         | OpenFOAM: The Open Source CFD Toolbox           |
|  \\    /   O peration     | Version:  2.4.0                                 |
|   \\  /    A nd           | Web:      www.OpenFOAM.org                      |
|    \\/     M anipulation  |                                                 |
\*---------------------------------------------------------------------------*/
FoamFile
{
    version     2.0;
    format      ascii;
    class       surfaceScalarField;
    location    "0.8";
    object      phi;
}
// * * * * * * * * * * * * * * * * * * * * * * * * * * * * * * * * * * * * * //

dimensions      [0 3 -1 0 0 0 0];

internalField   nonuniform List<scalar> 
220
(
-1.31917e-17
-4.683e-10
-1.55618e-17
-4.683e-10
-1.97535e-17
-4.683e-10
-1.93239e-17
-4.683e-10
-4.683e-10
-1.32188e-17
-4.683e-10
-1.5585e-17
-4.683e-10
-1.97027e-17
-4.683e-10
-1.91325e-17
-4.683e-10
-4.683e-10
-1.32097e-17
-4.683e-10
-1.55799e-17
-4.683e-10
-1.96396e-17
-4.683e-10
-1.89367e-17
-4.683e-10
-4.683e-10
-1.31652e-17
-4.683e-10
-1.55473e-17
-4.683e-10
-1.9564e-17
-4.683e-10
-1.87353e-17
-4.683e-10
-4.683e-10
-1.30867e-17
-4.683e-10
-1.54884e-17
-4.683e-10
-1.94762e-17
-4.683e-10
-1.85285e-17
-4.683e-10
-4.683e-10
-1.29753e-17
-4.683e-10
-1.54042e-17
-4.683e-10
-1.93761e-17
-4.683e-10
-1.83164e-17
-4.683e-10
-4.68301e-10
-1.28323e-17
-4.68299e-10
-1.52961e-17
-4.683e-10
-1.92639e-17
-4.683e-10
-1.80986e-17
-4.683e-10
-4.68301e-10
-1.26591e-17
-4.68299e-10
-1.51652e-17
-4.683e-10
-1.91398e-17
-4.683e-10
-1.78748e-17
-4.683e-10
-4.68301e-10
-1.2457e-17
-4.68299e-10
-1.5013e-17
-4.683e-10
-1.90038e-17
-4.683e-10
-1.76449e-17
-4.683e-10
-4.68301e-10
-1.22275e-17
-4.68299e-10
-1.48407e-17
-4.683e-10
-1.88563e-17
-4.683e-10
-1.74083e-17
-4.683e-10
-4.68301e-10
-1.19723e-17
-4.68299e-10
-1.46497e-17
-4.683e-10
-1.86973e-17
-4.683e-10
-1.71648e-17
-4.683e-10
-4.68301e-10
-1.16929e-17
-4.68299e-10
-1.44415e-17
-4.683e-10
-1.85272e-17
-4.683e-10
-1.6914e-17
-4.683e-10
-4.68301e-10
-1.1391e-17
-4.68299e-10
-1.42174e-17
-4.683e-10
-1.83463e-17
-4.683e-10
-1.66558e-17
-4.683e-10
-4.68301e-10
-1.10682e-17
-4.68299e-10
-1.3979e-17
-4.683e-10
-1.81549e-17
-4.683e-10
-1.639e-17
-4.683e-10
-4.68301e-10
-1.07264e-17
-4.68299e-10
-1.37277e-17
-4.683e-10
-1.79536e-17
-4.683e-10
-1.61164e-17
-4.683e-10
-4.68301e-10
-1.03673e-17
-4.68299e-10
-1.3465e-17
-4.683e-10
-1.77427e-17
-4.683e-10
-1.58352e-17
-4.683e-10
-4.68301e-10
-9.9927e-18
-4.68299e-10
-1.31923e-17
-4.683e-10
-1.7523e-17
-4.683e-10
-1.55466e-17
-4.683e-10
-4.68301e-10
-9.60437e-18
-4.68299e-10
-1.29112e-17
-4.683e-10
-1.72949e-17
-4.683e-10
-1.52507e-17
-4.683e-10
-4.68301e-10
-9.20412e-18
-4.68299e-10
-1.2623e-17
-4.683e-10
-1.70593e-17
-4.683e-10
-1.49479e-17
-4.683e-10
-4.68301e-10
-8.79375e-18
-4.68299e-10
-1.23294e-17
-4.683e-10
-1.68169e-17
-4.683e-10
-1.46389e-17
-4.683e-10
-4.68301e-10
-8.37505e-18
-4.68299e-10
-1.20316e-17
-4.683e-10
-1.65688e-17
-4.683e-10
-1.43244e-17
-4.683e-10
-4.68301e-10
-7.94977e-18
-4.68299e-10
-1.17312e-17
-4.683e-10
-1.6316e-17
-4.683e-10
-1.40063e-17
-4.683e-10
-4.68301e-10
-7.51963e-18
-4.68299e-10
-1.14296e-17
-4.683e-10
-1.60583e-17
-4.683e-10
-1.36848e-17
-4.683e-10
-4.68301e-10
-7.08619e-18
-4.68299e-10
-1.11284e-17
-4.683e-10
-1.57977e-17
-4.683e-10
-1.33755e-17
-4.683e-10
-4.68301e-10
-6.65089e-18
-1.08293e-17
-1.5534e-17
-1.306e-17
)
;

boundaryField
{
    BotWall
    {
        type            calculated;
        value           nonuniform 0();
    }
    FreeStream
    {
        type            calculated;
        value           nonuniform 0();
    }
    FrontNBack
    {
        type            empty;
        value           nonuniform 0();
    }
    LeftSide
    {
        type            symmetryPlane;
        value           uniform 0;
    }
    RightSide
    {
        type            symmetryPlane;
        value           uniform 0;
    }
    procBoundary2to1
    {
        type            processor;
        value           nonuniform List<scalar> 5(4.683e-10 4.683e-10 4.683e-10 4.683e-10 4.683e-10);
    }
    procBoundary2to3
    {
        type            processor;
        value           nonuniform List<scalar> 5(-4.68299e-10 -4.683e-10 -4.683e-10 -4.683e-10 -4.68301e-10);
    }
}


// ************************************************************************* //
