/*--------------------------------*- C++ -*----------------------------------*\
| =========                 |                                                 |
| \\      /  F ield         | OpenFOAM: The Open Source CFD Toolbox           |
|  \\    /   O peration     | Version:  2.4.0                                 |
|   \\  /    A nd           | Web:      www.OpenFOAM.org                      |
|    \\/     M anipulation  |                                                 |
\*---------------------------------------------------------------------------*/
FoamFile
{
    version     2.0;
    format      ascii;
    class       volScalarField;
    location    "4.7";
    object      p;
}
// * * * * * * * * * * * * * * * * * * * * * * * * * * * * * * * * * * * * * //

dimensions      [1 -1 -2 0 0 0 0];

internalField   nonuniform List<scalar> 
8000
(
3.20749
3.19174
3.17672
3.16521
3.15686
3.15121
3.14809
3.14748
3.14939
3.1538
3.1607
3.17011
3.18208
3.1966
3.21387
3.23355
3.25601
3.28148
3.30958
3.34063
3.3748
3.41217
3.4529
3.49755
3.54475
3.5964
3.6517
3.7111
3.77515
3.8459
3.92427
4.00205
4.05519
4.08736
3.98585
3.66901
3.27694
0.933163
-0.474445
-1.06152
-1.43727
-1.59039
-1.4519
-1.16923
-0.839882
-0.412656
-0.0652567
-0.0525035
-0.434688
-0.809102
1.19147
1.18389
1.177
1.17282
1.17134
1.17225
1.17542
1.1808
1.18837
1.19815
1.21003
1.22417
1.24053
1.25917
1.2807
1.3035
1.32932
1.35849
1.38898
1.42295
1.46
1.50033
1.54398
1.59137
1.64218
1.69751
1.75851
1.82737
1.89942
1.95456
1.9761
1.72589
0.973774
0.0143718
-2.92294
-3.50518
-3.85546
-3.90507
-3.67824
-3.06419
-2.41291
-1.23188
-0.852411
-0.625858
-0.580381
-0.527722
-0.420832
-0.335274
-0.29706
-0.271365
-1.01924
-0.993389
-0.964694
-0.938309
-0.91432
-0.892146
-0.871583
-0.852633
-0.835308
-0.819593
-0.805662
-0.793293
-0.78258
-0.773555
-0.76621
-0.760588
-0.756683
-0.754558
-0.754206
-0.755688
-0.758973
-0.76425
-0.771825
-0.78224
-0.794344
-0.801408
-0.785009
-0.764775
-0.944712
-1.86991
-3.39323
-5.43638
-5.81591
-5.45114
-4.54525
-3.00188
-2.47639
-0.846618
-0.840854
-0.507393
-0.441019
-0.32532
-0.309451
-0.293463
-0.288917
-0.290382
-0.292488
-0.292778
-0.292462
-0.292551
-3.55934
-3.49966
-3.438
-3.38488
-3.33959
-3.30057
-3.26734
-3.23989
-3.21825
-3.20237
-3.19236
-3.18813
-3.18974
-3.19721
-3.21061
-3.22998
-3.25543
-3.28697
-3.32473
-3.36878
-3.41972
-3.47842
-3.54418
-3.60684
-3.64448
-3.67736
-3.96019
-5.08957
-7.79452
-7.35856
-6.23683
-4.15187
-2.50958
-0.48945
-0.411164
-0.341107
-0.341574
-0.3054
-0.303045
-0.299062
-0.301011
-0.301117
-0.301169
-0.301204
-0.301369
-0.301608
-0.301909
-0.302168
-0.302381
-0.302621
-4.10968
-4.04725
-3.97981
-3.91928
-3.8655
-3.81695
-3.77307
-3.73397
-3.69952
-3.66977
-3.64474
-3.62439
-3.60881
-3.59797
-3.59203
-3.59099
-3.59499
-3.60418
-3.61902
-3.64062
-3.66961
-3.69926
-3.71442
-3.70787
-3.81949
-4.48176
-5.96101
-5.33102
-3.91363
-1.96226
-0.736979
-0.359757
-0.315364
-0.299674
-0.297315
-0.311649
-0.311072
-0.310726
-0.310949
-0.311093
-0.311255
-0.311473
-0.31174
-0.311955
-0.312173
-0.31241
-0.312694
-0.313007
-0.313403
-0.313872
-4.4163
-4.35964
-4.29945
-4.24602
-4.19893
-4.15682
-4.11934
-4.08648
-4.05799
-4.03398
-4.01438
-3.99906
-3.98788
-3.98063
-3.97705
-3.97672
-3.97919
-3.98435
-3.99254
-4.00295
-4.00383
-3.96214
-3.87289
-3.98176
-5.06701
-7.33238
-3.50798
-1.22495
-0.480853
-0.381328
-0.357767
-0.341995
-0.333646
-0.330372
-0.328694
-0.328324
-0.328149
-0.328222
-0.328328
-0.328461
-0.328603
-0.328747
-0.328897
-0.329066
-0.329269
-0.329519
-0.329841
-0.330234
-0.330716
-0.331294
-3.70484
-3.65648
-3.60127
-3.5471
-3.49364
-3.43996
-3.38583
-3.33107
-3.27596
-3.22061
-3.16525
-3.11004
-3.05546
-3.00188
-2.94981
-2.90056
-2.85443
-2.81466
-2.78169
-2.7548
-2.74068
-2.7251
-2.6943
-2.53793
-2.41185
-4.48122
-2.58662
-1.35699
-0.647812
-0.391668
-0.322124
-0.336013
-0.347159
-0.349312
-0.3498
-0.350361
-0.350358
-0.350499
-0.35061
-0.351362
-0.351677
-0.351972
-0.352238
-0.352492
-0.352751
-0.35303
-0.353344
-0.353709
-0.354136
-0.354636
-3.31457
-3.28338
-3.25269
-3.22854
-3.21067
-3.19878
-3.19211
-3.19068
-3.19436
-3.20297
-3.2162
-3.23367
-3.25488
-3.27905
-3.30539
-3.33278
-3.35963
-3.38474
-3.4024
-3.41386
-3.41672
-3.42323
-3.42065
-3.26378
-2.9937
-3.04105
-3.07452
-2.63694
-2.14052
-1.27423
-0.639371
-0.444165
-0.43054
-0.408303
-0.390534
-0.384272
-0.383502
-0.383568
-0.383093
-0.382291
-0.381737
-0.381367
-0.381103
-0.380883
-0.380707
-0.380582
-0.380514
-0.380511
-0.380578
-0.380722
-1.97991
-1.95103
-1.91718
-1.88237
-1.84613
-1.8081
-1.76761
-1.72488
-1.67994
-1.63282
-1.5836
-1.53241
-1.47948
-1.42508
-1.36975
-1.31412
-1.2589
-1.20606
-1.1557
-1.11133
-1.07455
-1.04715
-1.03345
-1.03123
-1.05079
-1.00929
-0.848671
-1.80088
-1.52982
-0.711218
-0.123643
0.0427315
-0.0594737
-0.146876
-0.227444
-0.301543
-0.352477
-0.379561
-0.392097
-0.397741
-0.399907
-0.400406
-0.400305
-0.400332
-0.400406
-0.400536
-0.400668
-0.400822
-0.401005
-0.401226
-0.688776
-0.682485
-0.676171
-0.671762
-0.669436
-0.669142
-0.670559
-0.673931
-0.679349
-0.686881
-0.696605
-0.708564
-0.722832
-0.739496
-0.758342
-0.779399
-0.802317
-0.827689
-0.853881
-0.880913
-0.908293
-0.934816
-0.95829
-0.96922
-0.956278
-0.955508
-1.1691
-1.76735
-0.465825
0.489749
0.746466
0.526675
0.351718
0.204374
0.04223
-0.117648
-0.251721
-0.340412
-0.387505
-0.410597
-0.420131
-0.422846
-0.423291
-0.422917
-0.422103
-0.421886
-0.421759
-0.42173
-0.421775
-0.421878
0.606694
0.593126
0.579517
0.568448
0.559853
0.553388
0.549031
0.54673
0.546505
0.548384
0.552385
0.558606
0.566876
0.577403
0.590148
0.60515
0.622376
0.641402
0.66377
0.687476
0.712974
0.741802
0.770463
0.799998
0.835068
0.862477
0.899695
0.949618
0.9677
0.601927
0.736713
0.868397
0.77033
0.494371
0.193825
-0.0261774
-0.146765
-0.20465
-0.270724
-0.363042
-0.43119
-0.453594
-0.452899
-0.447683
-0.44442
-0.443341
-0.442884
-0.442183
-0.441545
-0.441396
1.6516
1.6257
1.59862
1.57464
1.55363
1.53479
1.51763
1.50263
1.48958
1.47844
1.46907
1.46175
1.45625
1.4526
1.45082
1.45112
1.45289
1.4568
1.46285
1.47059
1.48064
1.49329
1.50786
1.52508
1.54607
1.56839
1.59438
1.62321
1.65932
1.70667
1.75016
1.68164
1.00355
0.871788
0.950327
0.895091
0.648922
0.316038
0.0243028
-0.187605
-0.362933
-0.456345
-0.471394
-0.462653
-0.459378
-0.460889
-0.462437
-0.463085
-0.464033
-0.464594
2.17528
2.1459
2.1147
2.08696
2.06269
2.04103
2.02103
2.00404
1.98943
1.97714
1.96727
1.95977
1.95461
1.95182
1.9514
1.95334
1.95737
1.96407
1.97319
1.9846
1.99862
2.01499
2.03378
2.05499
2.07891
2.10489
2.13336
2.16438
2.19824
2.23414
2.26914
2.30139
2.33478
2.37579
2.41609
2.36574
1.69198
1.49865
1.20499
0.649542
0.206591
-0.0286046
-0.288649
-0.426021
-0.458725
-0.468024
-0.473437
-0.477167
-0.479135
-0.479835
2.54566
2.51872
2.49073
2.46578
2.44463
2.42431
2.40572
2.38926
2.37469
2.36149
2.35078
2.34178
2.33461
2.32926
2.32573
2.32396
2.32384
2.32568
2.3293
2.33467
2.34181
2.35071
2.36147
2.37373
2.38784
2.40364
2.42123
2.44055
2.46158
2.4843
2.5088
2.53535
2.5643
2.59454
2.62364
2.65438
2.68842
2.71636
2.67409
2.13994
1.84872
1.25411
0.166561
-0.370315
-0.455755
-0.472763
-0.482302
-0.488327
-0.491705
-0.493687
2.12617
2.108
2.08777
2.06881
2.05301
2.03578
2.02009
2.00528
1.99137
1.97773
1.96579
1.95445
1.94395
1.93427
1.92539
1.91731
1.90991
1.90329
1.89736
1.89211
1.8875
1.88349
1.88004
1.87709
1.87462
1.87259
1.87093
1.86959
1.86851
1.86764
1.8669
1.86625
1.86557
1.86485
1.864
1.8633
1.86254
1.86058
1.85682
1.83964
1.78398
1.42005
0.446227
-0.377041
-0.470768
-0.489788
-0.50103
-0.50702
-0.509794
-0.511019
2.23451
2.21625
2.19767
2.18113
2.16789
2.15265
2.14014
2.12877
2.11859
2.10926
2.10151
2.09478
2.08923
2.08485
2.08164
2.07961
2.07876
2.07911
2.08064
2.08335
2.08729
2.09244
2.09881
2.10643
2.11529
2.12541
2.13682
2.14951
2.16352
2.17886
2.19558
2.21365
2.23311
2.25399
2.27685
2.30259
2.33044
2.35045
2.34346
2.26775
2.03569
1.59243
0.493947
-0.409459
-0.512228
-0.524412
-0.531578
-0.535482
-0.537023
-0.537186
1.49615
1.48636
1.47536
1.46492
1.45589
1.44373
1.43473
1.4261
1.41769
1.40984
1.4024
1.39536
1.38873
1.38252
1.37674
1.37139
1.36647
1.36201
1.35801
1.35448
1.3514
1.34881
1.34671
1.3451
1.344
1.34339
1.34331
1.34369
1.34463
1.346
1.34786
1.3499
1.35248
1.357
1.36694
1.37974
1.36082
1.17413
0.738568
0.542377
0.403322
0.190843
-0.168567
-0.454313
-0.538364
-0.552955
-0.555191
-0.556199
-0.556764
-0.556959
1.20908
1.2034
1.1976
1.19659
1.19002
1.18424
1.17836
1.1724
1.16604
1.15994
1.15375
1.14749
1.14119
1.13482
1.1284
1.12192
1.11539
1.10879
1.10214
1.0954
1.08861
1.08165
1.07459
1.06735
1.05993
1.05222
1.04424
1.03577
1.02677
1.01685
1.00596
0.995327
0.987966
0.984011
0.951823
0.750528
0.241922
-0.27455
-0.345103
-0.374908
-0.401209
-0.44304
-0.500511
-0.543961
-0.567797
-0.576023
-0.577335
-0.577531
-0.577705
-0.577828
0.626214
0.623599
0.620236
0.620689
0.612912
0.607464
0.601336
0.594515
0.586971
0.578917
0.569973
0.560311
0.549924
0.538792
0.526926
0.514308
0.500969
0.4869
0.472163
0.456761
0.440817
0.42436
0.407568
0.390528
0.373595
0.35689
0.340883
0.325594
0.312037
0.302193
0.302414
0.315271
0.305231
0.117699
-0.434426
-1.34521
-1.35441
-1.12658
-0.860932
-0.640134
-0.592444
-0.625729
-0.626487
-0.610314
-0.600989
-0.599175
-0.59941
-0.599447
-0.599395
-0.599436
0.433727
0.433045
0.43352
0.437548
0.435194
0.437518
0.440471
0.444113
0.448343
0.453234
0.45881
0.465055
0.47199
0.479577
0.487832
0.496674
0.506108
0.515996
0.526301
0.536834
0.547448
0.557911
0.568011
0.577126
0.585165
0.590301
0.593186
0.595932
0.599962
0.606859
0.577969
0.465017
0.175621
-1.52739
-2.05077
-1.95749
-1.57106
-1.0848
-0.808451
-0.735791
-0.678248
-0.630791
-0.620177
-0.62011
-0.621009
-0.621064
-0.621175
-0.621334
-0.621491
-0.621647
-0.684939
-0.336155
-0.235541
-0.249024
-0.249104
-0.249492
-0.249586
-0.249455
-0.249272
-0.249088
-0.248917
-0.248751
-0.248589
-0.248432
-0.248287
-0.248159
-0.248049
-0.247963
-0.247901
-0.247863
-0.247852
-0.247866
-0.247906
-0.247971
-0.248061
-0.248175
-0.248312
-0.248472
-0.248653
-0.248857
-0.249081
-0.249324
-0.249587
-0.249869
-0.250168
-0.250484
-0.250816
-0.251163
-0.251525
-0.251901
-0.25229
-0.252692
-0.253105
-0.253529
-0.253963
-0.254406
-0.254859
-0.255319
-0.255786
-0.25626
-0.270964
-0.274069
-0.275033
-0.275089
-0.274971
-0.274804
-0.274662
-0.27454
-0.274438
-0.274355
-0.27429
-0.274246
-0.274225
-0.27423
-0.27426
-0.274317
-0.2744
-0.274507
-0.274639
-0.274793
-0.274969
-0.275166
-0.275383
-0.275618
-0.275871
-0.276141
-0.276426
-0.276726
-0.277041
-0.277369
-0.277709
-0.278062
-0.278425
-0.278799
-0.279183
-0.279576
-0.279978
-0.280387
-0.280804
-0.281227
-0.281656
-0.282091
-0.282532
-0.282976
-0.283425
-0.283877
-0.284332
-0.284789
-0.285248
-0.285709
-0.292836
-0.292993
-0.293015
-0.293027
-0.293056
-0.293131
-0.29325
-0.293405
-0.293597
-0.293826
-0.29409
-0.294387
-0.294714
-0.295069
-0.295447
-0.295845
-0.296261
-0.296692
-0.297137
-0.297592
-0.298058
-0.298532
-0.299013
-0.299501
-0.299994
-0.300493
-0.300995
-0.301502
-0.302011
-0.302523
-0.303036
-0.303552
-0.304069
-0.304586
-0.305103
-0.305621
-0.306138
-0.306654
-0.307169
-0.307683
-0.308195
-0.308705
-0.309213
-0.309718
-0.31022
-0.310719
-0.311215
-0.311708
-0.312196
-0.31268
-0.302858
-0.30316
-0.303542
-0.304003
-0.304541
-0.305148
-0.305822
-0.306553
-0.307335
-0.308157
-0.30901
-0.309886
-0.310776
-0.311675
-0.312577
-0.313478
-0.314373
-0.315262
-0.316141
-0.31701
-0.317868
-0.318714
-0.319548
-0.32037
-0.32118
-0.321977
-0.322763
-0.323536
-0.324297
-0.325047
-0.325785
-0.326512
-0.327227
-0.327931
-0.328623
-0.329305
-0.329975
-0.330635
-0.331284
-0.331922
-0.332549
-0.333166
-0.333773
-0.334369
-0.334956
-0.335532
-0.336098
-0.336653
-0.337199
-0.337734
-0.314433
-0.315099
-0.31587
-0.316741
-0.317707
-0.318758
-0.319882
-0.321067
-0.322299
-0.323564
-0.32485
-0.326147
-0.327445
-0.328737
-0.330017
-0.331281
-0.332525
-0.333747
-0.334946
-0.336121
-0.337271
-0.338396
-0.339497
-0.340573
-0.341626
-0.342654
-0.34366
-0.344644
-0.345605
-0.346545
-0.347464
-0.348362
-0.34924
-0.350098
-0.350937
-0.351757
-0.352559
-0.353342
-0.354108
-0.354856
-0.355587
-0.356302
-0.357
-0.357682
-0.358348
-0.358999
-0.359635
-0.360255
-0.360861
-0.361452
-0.331975
-0.332766
-0.333665
-0.334669
-0.33577
-0.336958
-0.338221
-0.339544
-0.340914
-0.342318
-0.343744
-0.345181
-0.346618
-0.34805
-0.349468
-0.35087
-0.352251
-0.353609
-0.354941
-0.356248
-0.357527
-0.35878
-0.360005
-0.361203
-0.362374
-0.363519
-0.364637
-0.36573
-0.366798
-0.367842
-0.368861
-0.369857
-0.370829
-0.371778
-0.372705
-0.37361
-0.374494
-0.375356
-0.376198
-0.377019
-0.37782
-0.378602
-0.379364
-0.380108
-0.380832
-0.381539
-0.382228
-0.382899
-0.383552
-0.384189
-0.355217
-0.355885
-0.356644
-0.357493
-0.358429
-0.359448
-0.36054
-0.361698
-0.362909
-0.364165
-0.365455
-0.366769
-0.368099
-0.369436
-0.370773
-0.372107
-0.373432
-0.374744
-0.376041
-0.377321
-0.378582
-0.379823
-0.381043
-0.382242
-0.383419
-0.384574
-0.385707
-0.386819
-0.387908
-0.388976
-0.390021
-0.391046
-0.392048
-0.39303
-0.393991
-0.39493
-0.395849
-0.396748
-0.397626
-0.398485
-0.399323
-0.400142
-0.400942
-0.401723
-0.402485
-0.403228
-0.403953
-0.40466
-0.405349
-0.40602
-0.38095
-0.381265
-0.38167
-0.382167
-0.382756
-0.383433
-0.384194
-0.385033
-0.385943
-0.386915
-0.387942
-0.389015
-0.390124
-0.391262
-0.392422
-0.393597
-0.394781
-0.39597
-0.397158
-0.398343
-0.399521
-0.400691
-0.40185
-0.402996
-0.404129
-0.405248
-0.406351
-0.407439
-0.40851
-0.409564
-0.410601
-0.411621
-0.412624
-0.413608
-0.414575
-0.415524
-0.416455
-0.417368
-0.418263
-0.41914
-0.419999
-0.42084
-0.421664
-0.422469
-0.423257
-0.424027
-0.424779
-0.425514
-0.426232
-0.426933
-0.401492
-0.401813
-0.402194
-0.40264
-0.403155
-0.403742
-0.404399
-0.405126
-0.40592
-0.406776
-0.40769
-0.408655
-0.409665
-0.410714
-0.411795
-0.412902
-0.414028
-0.415169
-0.416319
-0.417474
-0.41863
-0.419784
-0.420934
-0.422076
-0.42321
-0.424333
-0.425445
-0.426544
-0.427629
-0.4287
-0.429756
-0.430796
-0.431822
-0.432831
-0.433824
-0.4348
-0.435761
-0.436704
-0.43763
-0.43854
-0.439433
-0.440308
-0.441167
-0.442009
-0.442833
-0.443641
-0.444431
-0.445205
-0.445962
-0.446702
-0.422026
-0.422219
-0.42246
-0.422754
-0.423107
-0.423523
-0.424006
-0.424556
-0.425172
-0.425855
-0.426601
-0.427406
-0.428268
-0.42918
-0.430137
-0.431134
-0.432164
-0.433223
-0.434305
-0.435405
-0.436518
-0.43764
-0.438767
-0.439895
-0.441022
-0.442145
-0.443262
-0.444372
-0.445472
-0.446562
-0.447639
-0.448705
-0.449757
-0.450796
-0.45182
-0.45283
-0.453824
-0.454804
-0.455768
-0.456716
-0.457649
-0.458566
-0.459466
-0.460351
-0.461219
-0.462071
-0.462907
-0.463727
-0.46453
-0.465317
-0.441273
-0.441219
-0.441267
-0.441421
-0.441652
-0.441943
-0.44229
-0.442692
-0.443149
-0.443665
-0.444241
-0.444877
-0.445572
-0.446323
-0.447128
-0.447983
-0.448884
-0.449827
-0.450807
-0.45182
-0.45286
-0.453923
-0.455004
-0.4561
-0.457206
-0.458319
-0.459436
-0.460554
-0.461669
-0.462781
-0.463887
-0.464986
-0.466075
-0.467154
-0.468223
-0.469279
-0.470322
-0.471352
-0.472368
-0.473371
-0.474358
-0.475331
-0.476288
-0.477231
-0.478157
-0.479069
-0.479964
-0.480844
-0.481707
-0.482555
-0.464733
-0.464658
-0.464138
-0.463486
-0.463309
-0.463154
-0.463087
-0.463127
-0.463249
-0.46343
-0.463664
-0.463955
-0.464302
-0.464708
-0.465173
-0.465699
-0.466284
-0.466926
-0.467624
-0.468375
-0.469176
-0.470022
-0.47091
-0.471835
-0.472793
-0.47378
-0.474792
-0.475823
-0.476872
-0.477933
-0.479004
-0.480081
-0.481161
-0.482243
-0.483323
-0.4844
-0.485472
-0.486537
-0.487594
-0.488642
-0.48968
-0.490707
-0.491721
-0.492723
-0.493712
-0.494688
-0.495649
-0.496597
-0.497528
-0.498446
-0.479992
-0.480159
-0.48091
-0.481644
-0.482361
-0.48305
-0.483461
-0.48331
-0.482925
-0.482743
-0.482597
-0.482525
-0.482522
-0.482577
-0.482685
-0.482852
-0.483081
-0.483374
-0.483733
-0.484156
-0.484645
-0.485198
-0.485812
-0.486486
-0.487216
-0.487999
-0.488831
-0.489708
-0.490625
-0.491577
-0.492561
-0.493573
-0.494607
-0.495661
-0.496729
-0.497809
-0.498898
-0.499991
-0.501088
-0.502184
-0.503278
-0.504367
-0.505451
-0.506527
-0.507594
-0.508651
-0.509696
-0.510729
-0.511749
-0.512755
-0.494951
-0.495807
-0.496406
-0.496819
-0.4971
-0.497336
-0.497614
-0.49789
-0.498205
-0.498504
-0.498726
-0.498812
-0.498733
-0.498601
-0.498489
-0.498429
-0.49842
-0.498461
-0.498557
-0.498712
-0.498931
-0.499216
-0.499569
-0.499989
-0.500478
-0.501033
-0.501653
-0.502337
-0.50308
-0.50388
-0.504733
-0.505634
-0.50658
-0.507565
-0.508586
-0.509639
-0.510718
-0.51182
-0.51294
-0.514074
-0.51522
-0.516373
-0.517531
-0.51869
-0.519848
-0.521002
-0.52215
-0.523291
-0.524422
-0.525542
-0.511542
-0.511834
-0.512165
-0.512578
-0.512927
-0.51323
-0.513524
-0.513682
-0.513672
-0.513903
-0.514122
-0.514269
-0.514354
-0.514394
-0.514396
-0.514376
-0.514344
-0.514305
-0.51428
-0.514284
-0.514325
-0.514408
-0.514537
-0.514717
-0.514954
-0.51525
-0.515608
-0.51603
-0.516515
-0.517065
-0.517678
-0.518353
-0.519087
-0.519879
-0.520725
-0.521622
-0.522566
-0.523553
-0.524579
-0.52564
-0.526732
-0.52785
-0.528991
-0.530151
-0.531325
-0.532511
-0.533705
-0.534903
-0.536103
-0.537302
-0.536526
-0.535419
-0.534611
-0.53436
-0.534232
-0.533482
-0.532354
-0.532866
-0.532159
-0.533021
-0.533696
-0.533857
-0.533892
-0.533871
-0.533815
-0.53375
-0.533685
-0.53362
-0.533554
-0.533498
-0.533461
-0.533449
-0.533466
-0.533511
-0.533588
-0.533697
-0.533842
-0.534024
-0.534246
-0.534513
-0.534825
-0.535189
-0.535607
-0.536079
-0.536607
-0.537191
-0.53783
-0.538523
-0.539268
-0.540063
-0.540907
-0.541796
-0.542727
-0.543697
-0.544703
-0.545741
-0.546808
-0.547901
-0.549016
-0.550149
-0.556923
-0.55673
-0.556382
-0.556105
-0.555977
-0.55588
-0.555866
-0.555872
-0.555804
-0.555766
-0.555751
-0.555708
-0.555697
-0.555643
-0.555623
-0.555584
-0.555572
-0.555455
-0.555476
-0.555444
-0.555414
-0.555394
-0.555387
-0.555388
-0.555392
-0.555458
-0.555492
-0.555595
-0.555679
-0.555751
-0.555687
-0.555949
-0.556191
-0.556451
-0.556739
-0.557059
-0.557412
-0.557799
-0.558222
-0.558686
-0.55919
-0.559737
-0.560326
-0.560959
-0.561635
-0.562353
-0.563114
-0.563915
-0.564755
-0.56563
-0.577894
-0.577926
-0.57793
-0.577928
-0.577931
-0.577946
-0.577974
-0.578014
-0.578064
-0.57812
-0.578176
-0.578234
-0.578296
-0.578363
-0.578432
-0.578506
-0.578582
-0.57866
-0.578744
-0.578823
-0.578827
-0.57897
-0.57906
-0.579156
-0.579252
-0.579352
-0.579444
-0.579547
-0.579656
-0.579735
-0.579633
-0.579921
-0.58006
-0.580209
-0.580362
-0.580536
-0.580727
-0.580885
-0.581122
-0.58139
-0.581673
-0.581978
-0.582305
-0.582657
-0.583036
-0.583444
-0.583882
-0.584352
-0.584857
-0.585393
-0.599561
-0.599614
-0.599667
-0.599731
-0.5998
-0.599873
-0.59995
-0.600034
-0.600124
-0.60022
-0.600322
-0.600429
-0.600541
-0.600658
-0.600779
-0.600905
-0.601034
-0.601166
-0.601302
-0.60144
-0.601573
-0.601725
-0.601863
-0.601952
-0.602148
-0.60229
-0.602434
-0.602548
-0.602714
-0.602854
-0.603009
-0.603162
-0.603297
-0.603455
-0.603603
-0.603754
-0.603905
-0.60406
-0.604221
-0.604383
-0.60455
-0.604686
-0.604894
-0.605092
-0.605303
-0.605516
-0.605747
-0.606003
-0.606262
-0.606575
-0.621788
-0.621924
-0.622056
-0.622188
-0.622319
-0.62245
-0.622582
-0.622714
-0.622848
-0.622983
-0.623118
-0.623254
-0.623391
-0.623528
-0.623664
-0.6238
-0.623936
-0.624071
-0.624204
-0.624336
-0.624466
-0.624593
-0.624719
-0.624842
-0.624963
-0.625083
-0.625199
-0.625247
-0.625362
-0.62547
-0.625499
-0.625696
-0.625807
-0.6259
-0.625999
-0.626096
-0.62617
-0.626296
-0.626393
-0.626489
-0.626579
-0.626683
-0.626768
-0.62688
-0.626973
-0.627096
-0.627202
-0.627308
-0.627429
-0.627539
-0.25663
-0.256893
-0.257159
-0.257428
-0.257699
-0.257973
-0.25825
-0.258529
-0.258811
-0.259096
-0.259383
-0.259672
-0.259963
-0.260257
-0.260552
-0.26085
-0.26115
-0.261451
-0.261755
-0.26206
-0.262366
-0.262674
-0.262984
-0.263295
-0.263607
-0.263921
-0.264236
-0.264551
-0.264868
-0.265185
-0.265504
-0.265823
-0.266143
-0.266463
-0.266784
-0.267105
-0.267427
-0.267749
-0.268071
-0.268393
-0.268716
-0.269038
-0.26936
-0.269682
-0.270004
-0.270326
-0.270647
-0.270968
-0.271289
-0.271609
-0.271928
-0.272247
-0.272565
-0.272883
-0.273199
-0.273515
-0.273831
-0.274145
-0.274458
-0.274771
-0.275082
-0.275393
-0.275703
-0.276011
-0.276319
-0.276625
-0.27693
-0.277235
-0.277538
-0.27784
-0.278141
-0.278441
-0.27874
-0.279037
-0.279334
-0.27963
-0.279924
-0.280218
-0.28051
-0.280802
-0.281092
-0.281382
-0.281671
-0.281959
-0.282246
-0.282532
-0.282818
-0.283103
-0.283388
-0.283671
-0.283955
-0.284238
-0.28452
-0.284802
-0.285084
-0.285366
-0.285648
-0.285929
-0.286211
-0.286493
-0.286774
-0.287057
-0.287339
-0.287622
-0.287905
-0.288189
-0.288474
-0.28876
-0.289046
-0.289334
-0.289622
-0.289912
-0.290203
-0.290495
-0.290789
-0.291085
-0.291382
-0.291681
-0.291982
-0.292285
-0.29259
-0.292898
-0.293208
-0.29352
-0.293835
-0.294153
-0.294473
-0.294797
-0.295124
-0.295453
-0.295787
-0.296123
-0.296464
-0.296807
-0.297155
-0.297507
-0.297863
-0.298222
-0.298587
-0.298955
-0.299328
-0.299706
-0.300089
-0.300477
-0.300869
-0.301267
-0.30167
-0.302078
-0.302492
-0.302912
-0.303337
-0.303768
-0.304206
-0.304649
-0.305099
-0.305555
-0.306017
-0.306486
-0.306962
-0.307445
-0.307935
-0.308431
-0.308935
-0.309447
-0.309965
-0.310492
-0.311026
-0.311567
-0.312117
-0.312675
-0.31324
-0.313815
-0.314397
-0.314988
-0.315587
-0.316195
-0.316812
-0.317438
-0.318073
-0.318717
-0.319371
-0.320033
-0.320705
-0.321387
-0.322079
-0.32278
-0.323491
-0.324212
-0.324943
-0.325684
-0.326436
-0.327198
-0.327971
-0.328754
-0.329548
-0.330353
-0.331169
-0.331995
-0.332833
-0.333682
-0.334542
-0.335414
-0.336297
-0.337192
-0.338099
-0.339017
-0.339947
-0.340889
-0.341844
-0.34281
-0.343789
-0.344779
-0.345783
-0.346799
-0.347827
-0.348868
-0.349922
-0.350989
-0.352069
-0.353161
-0.354267
-0.355386
-0.356518
-0.357664
-0.358823
-0.359995
-0.361181
-0.362381
-0.363595
-0.364822
-0.366063
-0.367318
-0.368587
-0.36987
-0.371168
-0.372479
-0.373805
-0.375146
-0.376501
-0.37787
-0.379254
-0.380653
-0.382066
-0.383494
-0.384937
-0.386395
-0.387868
-0.389356
-0.390859
-0.392378
-0.393911
-0.39546
-0.397025
-0.398605
-0.4002
-0.401811
-0.403438
-0.405081
-0.406739
-0.408413
-0.410104
-0.41181
-0.413533
-0.415271
-0.417026
-0.418798
-0.420586
-0.42239
-0.424211
-0.426049
-0.427903
-0.429775
-0.431664
-0.433569
-0.435492
-0.437432
-0.43939
-0.441365
-0.443358
-0.445369
-0.447397
-0.449444
-0.451509
-0.453592
-0.455693
-0.457814
-0.459953
-0.462111
-0.464288
-0.466484
-0.4687
-0.470934
-0.47319
-0.475468
-0.477767
-0.480073
-0.482381
-0.484746
-0.487255
-0.489807
-0.286066
-0.286317
-0.28657
-0.286824
-0.28708
-0.287337
-0.287595
-0.287855
-0.288116
-0.288378
-0.288641
-0.288905
-0.28917
-0.289436
-0.289703
-0.28997
-0.290238
-0.290507
-0.290777
-0.291047
-0.291318
-0.291589
-0.29186
-0.292132
-0.292404
-0.292677
-0.292949
-0.293222
-0.293495
-0.293768
-0.29404
-0.294313
-0.294586
-0.294858
-0.29513
-0.295402
-0.295673
-0.295944
-0.296215
-0.296485
-0.296755
-0.297024
-0.297293
-0.297561
-0.297829
-0.298095
-0.298361
-0.298627
-0.298891
-0.299155
-0.299418
-0.29968
-0.299941
-0.300202
-0.300461
-0.30072
-0.300978
-0.301234
-0.30149
-0.301745
-0.301999
-0.302252
-0.302505
-0.302756
-0.303006
-0.303255
-0.303504
-0.303752
-0.303998
-0.304244
-0.304489
-0.304733
-0.304977
-0.30522
-0.305461
-0.305703
-0.305943
-0.306183
-0.306423
-0.306662
-0.3069
-0.307138
-0.307376
-0.307614
-0.307851
-0.308087
-0.308324
-0.308561
-0.308797
-0.309034
-0.30927
-0.309507
-0.309744
-0.309981
-0.310218
-0.310456
-0.310695
-0.310934
-0.311174
-0.311414
-0.311656
-0.311898
-0.312141
-0.312386
-0.312631
-0.312878
-0.313127
-0.313376
-0.313628
-0.313881
-0.314136
-0.314392
-0.314651
-0.314912
-0.315175
-0.31544
-0.315707
-0.315977
-0.31625
-0.316525
-0.316804
-0.317085
-0.317369
-0.317656
-0.317946
-0.31824
-0.318537
-0.318838
-0.319143
-0.319451
-0.319763
-0.320079
-0.3204
-0.320724
-0.321053
-0.321386
-0.321724
-0.322067
-0.322414
-0.322766
-0.323124
-0.323486
-0.323853
-0.324226
-0.324605
-0.324988
-0.325378
-0.325773
-0.326174
-0.326581
-0.326994
-0.327414
-0.327839
-0.328271
-0.32871
-0.329155
-0.329607
-0.330066
-0.330532
-0.331005
-0.331484
-0.331972
-0.332466
-0.332968
-0.333478
-0.333995
-0.33452
-0.335053
-0.335594
-0.336144
-0.336701
-0.337267
-0.337841
-0.338423
-0.339015
-0.339615
-0.340224
-0.340841
-0.341468
-0.342104
-0.34275
-0.343404
-0.344068
-0.344742
-0.345425
-0.346118
-0.346821
-0.347534
-0.348257
-0.34899
-0.349734
-0.350488
-0.351252
-0.352027
-0.352812
-0.353608
-0.354416
-0.355234
-0.356063
-0.356903
-0.357755
-0.358617
-0.359492
-0.360378
-0.361275
-0.362184
-0.363106
-0.364039
-0.364984
-0.365941
-0.36691
-0.367892
-0.368886
-0.369892
-0.370911
-0.371943
-0.372987
-0.374045
-0.375115
-0.376198
-0.377294
-0.378404
-0.379527
-0.380663
-0.381812
-0.382975
-0.384152
-0.385342
-0.386546
-0.387764
-0.388996
-0.390242
-0.391502
-0.392776
-0.394064
-0.395366
-0.396683
-0.398015
-0.399361
-0.400721
-0.402097
-0.403487
-0.404892
-0.406311
-0.407746
-0.409196
-0.410661
-0.412141
-0.413636
-0.415147
-0.416673
-0.418215
-0.419772
-0.421345
-0.422933
-0.424537
-0.426157
-0.427793
-0.429445
-0.431114
-0.432798
-0.434498
-0.436215
-0.437948
-0.439698
-0.441464
-0.443247
-0.445047
-0.446863
-0.448697
-0.450547
-0.452415
-0.454299
-0.456201
-0.458121
-0.460058
-0.462013
-0.463985
-0.465976
-0.467985
-0.470011
-0.472056
-0.47412
-0.476202
-0.478303
-0.480423
-0.482562
-0.48472
-0.486898
-0.489095
-0.491313
-0.49355
-0.495808
-0.498088
-0.500389
-0.502701
-0.505024
-0.507398
-0.509881
-0.512378
-0.31305
-0.313309
-0.313569
-0.313829
-0.314088
-0.314347
-0.314606
-0.314865
-0.315124
-0.315383
-0.315641
-0.315899
-0.316157
-0.316414
-0.316671
-0.316928
-0.317184
-0.317439
-0.317694
-0.317949
-0.318202
-0.318455
-0.318708
-0.318959
-0.31921
-0.31946
-0.31971
-0.319958
-0.320206
-0.320452
-0.320698
-0.320943
-0.321186
-0.321429
-0.321671
-0.321912
-0.322151
-0.32239
-0.322628
-0.322864
-0.323099
-0.323334
-0.323567
-0.323799
-0.324029
-0.324259
-0.324487
-0.324715
-0.324941
-0.325166
-0.32539
-0.325613
-0.325834
-0.326055
-0.326274
-0.326492
-0.32671
-0.326926
-0.327141
-0.327355
-0.327568
-0.32778
-0.327991
-0.328201
-0.32841
-0.328619
-0.328826
-0.329033
-0.329239
-0.329444
-0.329649
-0.329853
-0.330056
-0.330259
-0.330461
-0.330663
-0.330865
-0.331066
-0.331267
-0.331468
-0.331668
-0.331869
-0.332069
-0.33227
-0.33247
-0.332671
-0.332872
-0.333073
-0.333275
-0.333477
-0.33368
-0.333883
-0.334087
-0.334292
-0.334497
-0.334704
-0.334911
-0.33512
-0.335329
-0.335541
-0.335753
-0.335967
-0.336182
-0.336399
-0.336618
-0.336839
-0.337062
-0.337286
-0.337513
-0.337742
-0.337973
-0.338207
-0.338443
-0.338682
-0.338923
-0.339168
-0.339415
-0.339665
-0.339919
-0.340175
-0.340435
-0.340699
-0.340965
-0.341236
-0.34151
-0.341788
-0.34207
-0.342356
-0.342646
-0.342941
-0.343239
-0.343542
-0.34385
-0.344162
-0.344479
-0.344801
-0.345128
-0.34546
-0.345797
-0.346139
-0.346486
-0.346839
-0.347198
-0.347562
-0.347932
-0.348307
-0.348689
-0.349076
-0.34947
-0.34987
-0.350276
-0.350689
-0.351108
-0.351534
-0.351966
-0.352405
-0.352851
-0.353304
-0.353764
-0.354232
-0.354706
-0.355188
-0.355677
-0.356174
-0.356679
-0.357191
-0.357712
-0.35824
-0.358776
-0.35932
-0.359873
-0.360434
-0.361003
-0.361581
-0.362167
-0.362763
-0.363367
-0.36398
-0.364601
-0.365233
-0.365873
-0.366522
-0.367181
-0.36785
-0.368528
-0.369216
-0.369914
-0.370621
-0.371339
-0.372066
-0.372804
-0.373552
-0.374311
-0.37508
-0.375859
-0.376649
-0.37745
-0.378262
-0.379085
-0.379919
-0.380764
-0.381621
-0.382488
-0.383368
-0.384258
-0.385161
-0.386075
-0.387001
-0.387939
-0.388889
-0.389851
-0.390826
-0.391813
-0.392812
-0.393823
-0.394848
-0.395885
-0.396935
-0.397997
-0.399073
-0.400162
-0.401264
-0.402379
-0.403507
-0.404649
-0.405805
-0.406974
-0.408157
-0.409353
-0.410564
-0.411788
-0.413026
-0.414279
-0.415545
-0.416826
-0.418121
-0.419431
-0.420755
-0.422094
-0.423448
-0.424816
-0.426199
-0.427597
-0.42901
-0.430437
-0.431881
-0.433339
-0.434812
-0.436301
-0.437806
-0.439325
-0.440861
-0.442412
-0.443979
-0.445561
-0.44716
-0.448774
-0.450405
-0.452051
-0.453714
-0.455393
-0.457088
-0.4588
-0.460529
-0.462274
-0.464035
-0.465813
-0.467609
-0.469421
-0.47125
-0.473097
-0.47496
-0.476841
-0.47874
-0.480656
-0.48259
-0.484541
-0.486511
-0.488498
-0.490504
-0.492528
-0.49457
-0.496632
-0.498711
-0.50081
-0.502928
-0.505066
-0.507222
-0.509399
-0.511595
-0.513812
-0.516048
-0.518306
-0.520585
-0.522886
-0.5252
-0.52753
-0.529906
-0.53237
-0.53483
-0.33814
-0.338421
-0.338702
-0.338981
-0.339259
-0.339535
-0.339809
-0.340083
-0.340354
-0.340624
-0.340893
-0.34116
-0.341425
-0.341688
-0.34195
-0.342211
-0.342469
-0.342726
-0.342981
-0.343234
-0.343486
-0.343735
-0.343983
-0.344229
-0.344473
-0.344716
-0.344956
-0.345195
-0.345432
-0.345667
-0.345901
-0.346132
-0.346362
-0.346589
-0.346815
-0.347039
-0.347262
-0.347482
-0.347701
-0.347918
-0.348133
-0.348346
-0.348558
-0.348768
-0.348976
-0.349182
-0.349387
-0.34959
-0.349792
-0.349991
-0.35019
-0.350387
-0.350582
-0.350776
-0.350968
-0.351159
-0.351349
-0.351537
-0.351724
-0.35191
-0.352095
-0.352278
-0.352461
-0.352642
-0.352822
-0.353002
-0.35318
-0.353358
-0.353535
-0.353711
-0.353887
-0.354062
-0.354236
-0.354411
-0.354584
-0.354758
-0.354931
-0.355104
-0.355277
-0.355449
-0.355622
-0.355795
-0.355968
-0.356142
-0.356316
-0.35649
-0.356665
-0.35684
-0.357016
-0.357193
-0.35737
-0.357549
-0.357729
-0.357909
-0.358091
-0.358275
-0.358459
-0.358646
-0.358833
-0.359023
-0.359214
-0.359407
-0.359602
-0.359799
-0.359999
-0.3602
-0.360404
-0.36061
-0.360819
-0.361031
-0.361245
-0.361462
-0.361682
-0.361906
-0.362132
-0.362361
-0.362594
-0.36283
-0.36307
-0.363314
-0.363561
-0.363812
-0.364066
-0.364325
-0.364588
-0.364855
-0.365127
-0.365403
-0.365683
-0.365968
-0.366257
-0.366552
-0.366851
-0.367155
-0.367464
-0.367778
-0.368098
-0.368422
-0.368753
-0.369088
-0.36943
-0.369776
-0.370129
-0.370488
-0.370852
-0.371223
-0.371599
-0.371982
-0.372371
-0.372767