/*--------------------------------*- C++ -*----------------------------------*\
| =========                 |                                                 |
| \\      /  F ield         | OpenFOAM: The Open Source CFD Toolbox           |
|  \\    /   O peration     | Version:  2.4.0                                 |
|   \\  /    A nd           | Web:      www.OpenFOAM.org                      |
|    \\/     M anipulation  |                                                 |
\*---------------------------------------------------------------------------*/
FoamFile
{
    version     2.0;
    format      ascii;
    class       volScalarField;
    location    "1.7";
    object      H;
}
// * * * * * * * * * * * * * * * * * * * * * * * * * * * * * * * * * * * * * //

dimensions      [0 2 -2 0 0 0 0];

internalField   nonuniform List<scalar> 
500
(
-11841
-11841
-11841
-11841
-11841
-11058.6
-11058.5
-11058.5
-11058.5
-11058.6
-10267.3
-10267.3
-10267.3
-10267.3
-10267.3
-9467.11
-9467.1
-9467.1
-9467.1
-9467.11
-8657.77
-8657.76
-8657.75
-8657.76
-8657.77
-7839.12
-7839.11
-7839.1
-7839.11
-7839.12
-7011
-7010.99
-7010.98
-7010.99
-7011
-6173.23
-6173.21
-6173.2
-6173.21
-6173.23
-5325.62
-5325.6
-5325.6
-5325.6
-5325.62
-4468
-4467.97
-4467.96
-4467.97
-4468
-3600.16
-3600.13
-3600.12
-3600.13
-3600.16
-2721.9
-2721.88
-2721.86
-2721.88
-2721.91
-1833.04
-1833.01
-1833
-1833.01
-1833.04
-933.358
-933.324
-933.308
-933.324
-933.358
-15.5119
-15.5105
-15.5098
-15.5105
-15.5119
-11.5484
-11.5474
-11.5468
-11.5474
-11.5484
-11.5859
-11.5849
-11.5844
-11.5849
-11.586
-11.6213
-11.6202
-11.6198
-11.6202
-11.6213
-11.6543
-11.6533
-11.6528
-11.6533
-11.6544
-11.685
-11.684
-11.6836
-11.684
-11.6851
-11.7132
-11.7123
-11.7118
-11.7123
-11.7133
-11.7389
-11.7379
-11.7375
-11.7379
-11.7389
-11.7619
-11.7609
-11.7605
-11.7609
-11.7619
-11.782
-11.7811
-11.7807
-11.7811
-11.7821
-11.7993
-11.7985
-11.798
-11.7985
-11.7994
-11.8136
-11.8128
-11.8124
-11.8128
-11.8137
-11.8249
-11.824
-11.8236
-11.824
-11.8249
-11.8328
-11.832
-11.8316
-11.832
-11.8329
-11.8375
-11.8367
-11.8363
-11.8367
-11.8375
-11.8388
-11.838
-11.8376
-11.838
-11.8388
-11.8365
-11.8357
-11.8353
-11.8357
-11.8365
-11.8305
-11.8298
-11.8294
-11.8298
-11.8306
-11.8208
-11.8201
-11.8197
-11.8201
-11.8208
-11.8072
-11.8065
-11.8062
-11.8065
-11.8073
-11.7897
-11.789
-11.7886
-11.789
-11.7897
-11.768
-11.7673
-11.767
-11.7673
-11.768
-11.7421
-11.7415
-11.7411
-11.7415
-11.7422
-11.712
-11.7113
-11.711
-11.7113
-11.712
-11.6773
-11.6767
-11.6764
-11.6767
-11.6774
-11.6382
-11.6376
-11.6372
-11.6376
-11.6382
-11.5944
-11.5938
-11.5935
-11.5938
-11.5944
-11.5459
-11.5453
-11.545
-11.5453
-11.5459
-11.4925
-11.4919
-11.4916
-11.4919
-11.4925
-11.4342
-11.4336
-11.4333
-11.4336
-11.4342
-11.3708
-11.3703
-11.37
-11.3703
-11.3708
-11.3023
-11.3018
-11.3015
-11.3018
-11.3023
-11.2286
-11.228
-11.2278
-11.228
-11.2286
-11.1495
-11.149
-11.1487
-11.149
-11.1495
-11.065
-11.0645
-11.0643
-11.0645
-11.065
-10.9751
-10.9746
-10.9743
-10.9746
-10.9751
-10.8795
-10.8791
-10.8788
-10.8791
-10.8796
-10.7784
-10.7779
-10.7777
-10.7779
-10.7784
-10.6715
-10.6711
-10.6709
-10.6711
-10.6716
-10.5589
-10.5585
-10.5583
-10.5585
-10.5589
-10.4405
-10.4401
-10.4399
-10.4401
-10.4405
-10.3162
-10.3158
-10.3156
-10.3158
-10.3162
-10.186
-10.1856
-10.1854
-10.1856
-10.186
-10.0499
-10.0495
-10.0493
-10.0495
-10.0499
-9.9078
-9.90744
-9.90724
-9.90744
-9.90782
-9.75973
-9.75938
-9.75918
-9.75938
-9.75974
-9.60566
-9.60532
-9.60513
-9.60533
-9.60568
-9.4456
-9.44527
-9.44509
-9.44528
-9.44562
-9.27956
-9.27924
-9.27907
-9.27925
-9.27957
-9.10755
-9.10725
-9.10708
-9.10725
-9.10757
-8.92961
-8.92931
-8.92915
-8.92932
-8.92962
-8.74577
-8.74548
-8.74532
-8.74549
-8.74578
-8.55608
-8.5558
-8.55565
-8.55581
-8.55609
-8.3606
-8.36034
-8.36019
-8.36034
-8.36061
-8.15942
-8.15916
-8.15902
-8.15917
-8.15943
-7.9526
-7.95236
-7.95222
-7.95236
-7.95261
-7.74026
-7.74003
-7.73989
-7.74003
-7.74027
-7.5225
-7.52228
-7.52215
-7.52228
-7.52251
-7.29945
-7.29924
-7.29912
-7.29924
-7.29946
-7.07125
-7.07104
-7.07093
-7.07105
-7.07126
-6.83805
-6.83785
-6.83774
-6.83785
-6.83805
-6.60001
-6.59982
-6.59972
-6.59983
-6.60002
-6.35732
-6.35714
-6.35704
-6.35715
-6.35733
-6.11017
-6.11
-6.10991
-6.11001
-6.11018
-5.85878
-5.85862
-5.85853
-5.85863
-5.85879
-5.60337
-5.60322
-5.60313
-5.60322
-5.60338
-5.34419
-5.34404
-5.34396
-5.34405
-5.34419
-5.08148
-5.08134
-5.08127
-5.08135
-5.08149
-4.81552
-4.8154
-4.81533
-4.8154
-4.81553
-4.54661
-4.54649
-4.54642
-4.5465
-4.54662
-4.27504
-4.27493
-4.27487
-4.27493
-4.27504
-4.00113
-4.00103
-4.00097
-4.00103
-4.00114
-3.72522
-3.72513
-3.72507
-3.72513
-3.72522
-3.44765
-3.44757
-3.44752
-3.44757
-3.44766
-3.16879
-3.16872
-3.16867
-3.16872
-3.1688
-2.88902
-2.88895
-2.88891
-2.88895
-2.88903
-2.60873
-2.60867
-2.60863
-2.60867
-2.60873
-2.32832
-2.32826
-2.32823
-2.32827
-2.32832
-2.04821
-2.04816
-2.04814
-2.04817
-2.04822
-1.76884
-1.7688
-1.76877
-1.7688
-1.76884
-1.49064
-1.49061
-1.49059
-1.49061
-1.49065
-1.21408
-1.21405
-1.21403
-1.21405
-1.21408
-0.939604
-0.939582
-0.939568
-0.939582
-0.939605
-0.667697
-0.667681
-0.667672
-0.667682
-0.667698
-0.398838
-0.398828
-0.398822
-0.398828
-0.398838
-0.133514
-0.133511
-0.133509
-0.133511
-0.133514
)
;

boundaryField
{
    BotWall
    {
        type            zeroGradient;
    }
    FreeStream
    {
        type            zeroGradient;
    }
    FrontNBack
    {
        type            empty;
    }
    LeftSide
    {
        type            symmetryPlane;
    }
    RightSide
    {
        type            symmetryPlane;
    }
}


// ************************************************************************* //
