/*--------------------------------*- C++ -*----------------------------------*\
| =========                 |                                                 |
| \\      /  F ield         | OpenFOAM: The Open Source CFD Toolbox           |
|  \\    /   O peration     | Version:  2.4.0                                 |
|   \\  /    A nd           | Web:      www.OpenFOAM.org                      |
|    \\/     M anipulation  |                                                 |
\*---------------------------------------------------------------------------*/
FoamFile
{
    version     2.0;
    format      ascii;
    class       volScalarField;
    location    "1.7";
    object      p;
}
// * * * * * * * * * * * * * * * * * * * * * * * * * * * * * * * * * * * * * //

dimensions      [1 -1 -2 0 0 0 0];

internalField   nonuniform List<scalar> 
500
(
0.457607
0.457638
0.457634
0.457638
0.457607
0.427739
0.427772
0.427769
0.427772
0.427739
0.397575
0.397607
0.397603
0.397607
0.397575
0.367174
0.367206
0.367201
0.367205
0.367173
0.336971
0.337005
0.337001
0.337004
0.33697
0.306743
0.306776
0.306773
0.306776
0.306742
0.272913
0.272943
0.27294
0.272943
0.272912
0.225982
0.226006
0.226002
0.226005
0.225981
0.169998
0.170028
0.170024
0.170028
0.169997
0.19765
0.197741
0.197738
0.197741
0.197649
0.546305
0.546508
0.546517
0.546508
0.546303
1.108
1.1081
1.10814
1.1081
1.10799
-0.472322
-0.473037
-0.473011
-0.473037
-0.472324
-10.2073
-10.2091
-10.2093
-10.2091
-10.2073
-24.9213
-24.9215
-24.9224
-24.9215
-24.9213
-0.0152026
-0.0152023
-0.0152023
-0.0152023
-0.0152026
-0.00687264
-0.00687295
-0.00687296
-0.00687295
-0.00687264
-0.00869104
-0.00869101
-0.00869101
-0.00869101
-0.00869104
-0.00999935
-0.00999929
-0.00999929
-0.00999929
-0.00999935
-0.010718
-0.010718
-0.010718
-0.010718
-0.010718
-0.0112834
-0.0112834
-0.0112834
-0.0112834
-0.0112834
-0.0118724
-0.0118724
-0.0118724
-0.0118724
-0.0118724
-0.0124914
-0.0124914
-0.0124914
-0.0124914
-0.0124914
-0.0131234
-0.0131234
-0.0131234
-0.0131234
-0.0131234
-0.0137617
-0.0137617
-0.0137617
-0.0137617
-0.0137617
-0.0144062
-0.0144062
-0.0144062
-0.0144062
-0.0144062
-0.0150577
-0.0150577
-0.0150577
-0.0150577
-0.0150577
-0.0157164
-0.0157164
-0.0157164
-0.0157164
-0.0157164
-0.0163826
-0.0163826
-0.0163826
-0.0163826
-0.0163826
-0.0170562
-0.0170562
-0.0170562
-0.0170562
-0.0170562
-0.0177373
-0.0177373
-0.0177373
-0.0177373
-0.0177373
-0.018426
-0.018426
-0.018426
-0.018426
-0.018426
-0.0191224
-0.0191224
-0.0191224
-0.0191224
-0.0191224
-0.0198265
-0.0198266
-0.0198266
-0.0198266
-0.0198265
-0.0205386
-0.0205386
-0.0205386
-0.0205386
-0.0205386
-0.0212585
-0.0212585
-0.0212585
-0.0212585
-0.0212585
-0.0219865
-0.0219865
-0.0219865
-0.0219865
-0.0219865
-0.0227227
-0.0227227
-0.0227227
-0.0227227
-0.0227227
-0.023467
-0.023467
-0.023467
-0.023467
-0.023467
-0.0242196
-0.0242196
-0.0242196
-0.0242196
-0.0242196
-0.0249807
-0.0249807
-0.0249807
-0.0249807
-0.0249807
-0.0257502
-0.0257502
-0.0257502
-0.0257502
-0.0257502
-0.0265284
-0.0265284
-0.0265284
-0.0265284
-0.0265284
-0.0273152
-0.0273152
-0.0273152
-0.0273152
-0.0273152
-0.0281107
-0.0281107
-0.0281107
-0.0281107
-0.0281107
-0.0289152
-0.0289152
-0.0289152
-0.0289152
-0.0289152
-0.0297286
-0.0297287
-0.0297287
-0.0297287
-0.0297286
-0.0305512
-0.0305512
-0.0305512
-0.0305512
-0.0305512
-0.0313829
-0.0313829
-0.0313829
-0.0313829
-0.0313829
-0.0322238
-0.0322238
-0.0322238
-0.0322238
-0.0322238
-0.0330742
-0.0330742
-0.0330742
-0.0330742
-0.0330742
-0.0339341
-0.0339341
-0.0339341
-0.0339341
-0.0339341
-0.0348035
-0.0348035
-0.0348035
-0.0348035
-0.0348035
-0.0356826
-0.0356826
-0.0356826
-0.0356826
-0.0356826
-0.0365716
-0.0365716
-0.0365716
-0.0365716
-0.0365716
-0.0374705
-0.0374705
-0.0374705
-0.0374705
-0.0374705
-0.0383794
-0.0383794
-0.0383794
-0.0383794
-0.0383794
-0.0392984
-0.0392984
-0.0392984
-0.0392984
-0.0392984
-0.0402277
-0.0402278
-0.0402278
-0.0402278
-0.0402277
-0.0411674
-0.0411674
-0.0411674
-0.0411674
-0.0411674
-0.0421176
-0.0421176
-0.0421176
-0.0421176
-0.0421176
-0.0430784
-0.0430784
-0.0430784
-0.0430784
-0.0430784
-0.0440498
-0.0440498
-0.0440498
-0.0440498
-0.0440498
-0.0450322
-0.0450322
-0.0450322
-0.0450322
-0.0450322
-0.0460255
-0.0460255
-0.0460255
-0.0460255
-0.0460255
-0.0470298
-0.0470298
-0.0470298
-0.0470298
-0.0470298
-0.0480454
-0.0480454
-0.0480454
-0.0480454
-0.0480454
-0.0490723
-0.0490723
-0.0490723
-0.0490723
-0.0490723
-0.0501107
-0.0501107
-0.0501107
-0.0501107
-0.0501107
-0.0511607
-0.0511607
-0.0511607
-0.0511607
-0.0511607
-0.0522223
-0.0522223
-0.0522223
-0.0522223
-0.0522223
-0.0532959
-0.0532959
-0.0532959
-0.0532959
-0.0532959
-0.0543814
-0.0543814
-0.0543814
-0.0543814
-0.0543814
-0.055479
-0.055479
-0.055479
-0.055479
-0.055479
-0.0565888
-0.0565888
-0.0565888
-0.0565888
-0.0565888
-0.0577111
-0.0577111
-0.0577111
-0.0577111
-0.0577111
-0.0588459
-0.0588459
-0.0588459
-0.0588459
-0.0588458
-0.0599933
-0.0599933
-0.0599933
-0.0599933
-0.0599933
-0.0611535
-0.0611535
-0.0611535
-0.0611535
-0.0611535
-0.0623267
-0.0623267
-0.0623267
-0.0623267
-0.0623267
-0.063513
-0.063513
-0.063513
-0.063513
-0.063513
-0.0647125
-0.0647125
-0.0647125
-0.0647125
-0.0647125
-0.0659254
-0.0659254
-0.0659254
-0.0659254
-0.0659254
-0.0671518
-0.0671518
-0.0671518
-0.0671518
-0.0671518
-0.068392
-0.068392
-0.068392
-0.068392
-0.068392
-0.0696459
-0.0696459
-0.0696459
-0.0696459
-0.0696459
-0.0709139
-0.0709139
-0.0709139
-0.0709139
-0.0709139
-0.072196
-0.072196
-0.072196
-0.072196
-0.072196
-0.0734924
-0.0734924
-0.0734924
-0.0734924
-0.0734924
-0.0748032
-0.0748032
-0.0748032
-0.0748032
-0.0748032
-0.0761287
-0.0761287
-0.0761287
-0.0761287
-0.0761287
-0.077469
-0.077469
-0.077469
-0.077469
-0.077469
-0.0788243
-0.0788243
-0.0788243
-0.0788243
-0.0788243
-0.0801947
-0.0801947
-0.0801947
-0.0801947
-0.0801947
-0.0815803
-0.0815803
-0.0815803
-0.0815803
-0.0815803
-0.0829814
-0.0829814
-0.0829814
-0.0829814
-0.0829814
-0.0843982
-0.0843982
-0.0843982
-0.0843982
-0.0843982
-0.0858308
-0.0858308
-0.0858308
-0.0858308
-0.0858308
-0.0872793
-0.0872793
-0.0872793
-0.0872793
-0.0872793
-0.088744
-0.088744
-0.088744
-0.088744
-0.088744
)
;

boundaryField
{
    BotWall
    {
        type            calculated;
        value           nonuniform List<scalar> 5(0.472428 0.472459 0.472454 0.472458 0.472428);
    }
    FreeStream
    {
        type            calculated;
        value           nonuniform List<scalar> 5(-0.0894805 -0.0894805 -0.0894805 -0.0894805 -0.0894805);
    }
    FrontNBack
    {
        type            empty;
    }
    LeftSide
    {
        type            symmetryPlane;
    }
    RightSide
    {
        type            symmetryPlane;
    }
}


// ************************************************************************* //
