/*--------------------------------*- C++ -*----------------------------------*\
| =========                 |                                                 |
| \\      /  F ield         | OpenFOAM: The Open Source CFD Toolbox           |
|  \\    /   O peration     | Version:  2.4.0                                 |
|   \\  /    A nd           | Web:      www.OpenFOAM.org                      |
|    \\/     M anipulation  |                                                 |
\*---------------------------------------------------------------------------*/
FoamFile
{
    version     2.0;
    format      ascii;
    class       volScalarField;
    location    "1.7";
    object      p_rgh;
}
// * * * * * * * * * * * * * * * * * * * * * * * * * * * * * * * * * * * * * //

dimensions      [1 -1 -2 0 0 0 0];

internalField   nonuniform List<scalar> 
500
(
0.472428
0.472459
0.472454
0.472458
0.472428
0.472366
0.472398
0.472395
0.472398
0.472365
0.47234
0.472372
0.472368
0.472372
0.47234
0.472413
0.472446
0.472441
0.472445
0.472412
0.473026
0.473059
0.473055
0.473059
0.473025
0.473956
0.47399
0.473986
0.473989
0.473956
0.471633
0.471663
0.47166
0.471663
0.471632
0.45656
0.456584
0.45658
0.456583
0.456559
0.43279
0.43282
0.432816
0.43282
0.432789
0.493015
0.493106
0.493103
0.493106
0.493014
0.874606
0.87481
0.874819
0.87481
0.874605
1.4696
1.4697
1.46975
1.4697
1.4696
-0.0770403
-0.0777556
-0.0777301
-0.0777558
-0.0770423
-9.77801
-9.77974
-9.78
-9.77974
-9.778
-24.4664
-24.4664
-24.4674
-24.4664
-24.4663
-0.00694428
-0.00694395
-0.00694393
-0.00694395
-0.00694428
0.00196883
0.00196852
0.00196851
0.00196852
0.00196883
0.00074005
0.000740081
0.000740078
0.000740081
0.00074005
2.79423e-05
2.79967e-05
2.79966e-05
2.79969e-05
2.79422e-05
-8.78746e-05
-8.78694e-05
-8.78699e-05
-8.78692e-05
-8.78746e-05
-4.36748e-05
-4.36851e-05
-4.3686e-05
-4.36849e-05
-4.36749e-05
-1.62679e-05
-1.62734e-05
-1.62744e-05
-1.62732e-05
-1.6268e-05
-1.20462e-05
-1.20472e-05
-1.20482e-05
-1.20471e-05
-1.20462e-05
-1.37944e-05
-1.37947e-05
-1.37956e-05
-1.37945e-05
-1.37944e-05
-1.4865e-05
-1.48657e-05
-1.48666e-05
-1.48655e-05
-1.4865e-05
-1.5014e-05
-1.50151e-05
-1.5016e-05
-1.50149e-05
-1.50141e-05
-1.49291e-05
-1.49302e-05
-1.49311e-05
-1.493e-05
-1.49291e-05
-1.48719e-05
-1.48729e-05
-1.48739e-05
-1.48728e-05
-1.48719e-05
-1.48511e-05
-1.48521e-05
-1.48531e-05
-1.4852e-05
-1.48511e-05
-1.48394e-05
-1.48404e-05
-1.48413e-05
-1.48402e-05
-1.48393e-05
-1.48263e-05
-1.48273e-05
-1.48282e-05
-1.48271e-05
-1.48263e-05
-1.48116e-05
-1.48126e-05
-1.48135e-05
-1.48124e-05
-1.48116e-05
-1.47963e-05
-1.47973e-05
-1.47982e-05
-1.47972e-05
-1.47963e-05
-1.4781e-05
-1.4782e-05
-1.47828e-05
-1.47818e-05
-1.4781e-05
-1.47655e-05
-1.47665e-05
-1.47673e-05
-1.47663e-05
-1.47655e-05
-1.47499e-05
-1.47508e-05
-1.47517e-05
-1.47507e-05
-1.47499e-05
-1.47341e-05
-1.4735e-05
-1.47359e-05
-1.47348e-05
-1.4734e-05
-1.47181e-05
-1.4719e-05
-1.47198e-05
-1.47188e-05
-1.4718e-05
-1.47019e-05
-1.47028e-05
-1.47036e-05
-1.47027e-05
-1.47019e-05
-1.46856e-05
-1.46864e-05
-1.46872e-05
-1.46863e-05
-1.46855e-05
-1.4669e-05
-1.46699e-05
-1.46707e-05
-1.46697e-05
-1.4669e-05
-1.46523e-05
-1.46531e-05
-1.46539e-05
-1.4653e-05
-1.46522e-05
-1.46354e-05
-1.46362e-05
-1.4637e-05
-1.46361e-05
-1.46353e-05
-1.46183e-05
-1.46191e-05
-1.46198e-05
-1.46189e-05
-1.46182e-05
-1.4601e-05
-1.46018e-05
-1.46025e-05
-1.46016e-05
-1.46009e-05
-1.45835e-05
-1.45843e-05
-1.4585e-05
-1.45841e-05
-1.45834e-05
-1.45658e-05
-1.45666e-05
-1.45673e-05
-1.45664e-05
-1.45657e-05
-1.45479e-05
-1.45487e-05
-1.45493e-05
-1.45485e-05
-1.45479e-05
-1.45298e-05
-1.45306e-05
-1.45312e-05
-1.45304e-05
-1.45298e-05
-1.45115e-05
-1.45123e-05
-1.45129e-05
-1.45121e-05
-1.45115e-05
-1.44931e-05
-1.44937e-05
-1.44944e-05
-1.44936e-05
-1.4493e-05
-1.44744e-05
-1.4475e-05
-1.44756e-05
-1.44749e-05
-1.44743e-05
-1.44554e-05
-1.44561e-05
-1.44567e-05
-1.4456e-05
-1.44554e-05
-1.44363e-05
-1.4437e-05
-1.44376e-05
-1.44369e-05
-1.44363e-05
-1.4417e-05
-1.44176e-05
-1.44182e-05
-1.44175e-05
-1.4417e-05
-1.43975e-05
-1.43981e-05
-1.43986e-05
-1.43979e-05
-1.43974e-05
-1.43777e-05
-1.43783e-05
-1.43788e-05
-1.43782e-05
-1.43776e-05
-1.43577e-05
-1.43583e-05
-1.43588e-05
-1.43582e-05
-1.43577e-05
-1.43375e-05
-1.43381e-05
-1.43386e-05
-1.4338e-05
-1.43375e-05
-1.43171e-05
-1.43176e-05
-1.43181e-05
-1.43175e-05
-1.4317e-05
-1.42964e-05
-1.42969e-05
-1.42974e-05
-1.42968e-05
-1.42964e-05
-1.42756e-05
-1.4276e-05
-1.42765e-05
-1.42759e-05
-1.42755e-05
-1.42544e-05
-1.42549e-05
-1.42553e-05
-1.42548e-05
-1.42544e-05
-1.42331e-05
-1.42335e-05
-1.4234e-05
-1.42334e-05
-1.4233e-05
-1.42115e-05
-1.42119e-05
-1.42123e-05
-1.42118e-05
-1.42115e-05
-1.41897e-05
-1.41901e-05
-1.41905e-05
-1.419e-05
-1.41896e-05
-1.41676e-05
-1.4168e-05
-1.41684e-05
-1.41679e-05
-1.41676e-05
-1.41453e-05
-1.41457e-05
-1.4146e-05
-1.41456e-05
-1.41452e-05
-1.41227e-05
-1.41231e-05
-1.41234e-05
-1.4123e-05
-1.41227e-05
-1.40999e-05
-1.41003e-05
-1.41006e-05
-1.41002e-05
-1.40999e-05
-1.40769e-05
-1.40772e-05
-1.40775e-05
-1.40771e-05
-1.40768e-05
-1.40536e-05
-1.40539e-05
-1.40542e-05
-1.40538e-05
-1.40535e-05
-1.403e-05
-1.40303e-05
-1.40306e-05
-1.40302e-05
-1.40299e-05
-1.40061e-05
-1.40064e-05
-1.40067e-05
-1.40064e-05
-1.40061e-05
-1.3982e-05
-1.39823e-05
-1.39826e-05
-1.39823e-05
-1.3982e-05
-1.39577e-05
-1.39579e-05
-1.39582e-05
-1.39579e-05
-1.39576e-05
-1.3933e-05
-1.39333e-05
-1.39335e-05
-1.39332e-05
-1.3933e-05
-1.39081e-05
-1.39084e-05
-1.39086e-05
-1.39083e-05
-1.39081e-05
-1.38829e-05
-1.38832e-05
-1.38834e-05
-1.38831e-05
-1.38829e-05
-1.38575e-05
-1.38577e-05
-1.38579e-05
-1.38577e-05
-1.38575e-05
-1.38317e-05
-1.38319e-05
-1.38321e-05
-1.38319e-05
-1.38317e-05
-1.38057e-05
-1.38059e-05
-1.38061e-05
-1.38059e-05
-1.38057e-05
-1.37794e-05
-1.37796e-05
-1.37797e-05
-1.37795e-05
-1.37794e-05
-1.37528e-05
-1.3753e-05
-1.37531e-05
-1.37529e-05
-1.37528e-05
-1.37259e-05
-1.3726e-05
-1.37262e-05
-1.3726e-05
-1.37259e-05
-1.36987e-05
-1.36988e-05
-1.3699e-05
-1.36988e-05
-1.36987e-05
-1.36712e-05
-1.36713e-05
-1.36714e-05
-1.36713e-05
-1.36712e-05
-1.36434e-05
-1.36435e-05
-1.36436e-05
-1.36435e-05
-1.36434e-05
-1.36153e-05
-1.36154e-05
-1.36155e-05
-1.36154e-05
-1.36152e-05
-1.35868e-05
-1.3587e-05
-1.35871e-05
-1.35869e-05
-1.35868e-05
-1.35581e-05
-1.35582e-05
-1.35583e-05
-1.35582e-05
-1.35581e-05
-1.35291e-05
-1.35291e-05
-1.35292e-05
-1.35291e-05
-1.3529e-05
-1.34997e-05
-1.34998e-05
-1.34998e-05
-1.34997e-05
-1.34997e-05
-1.347e-05
-1.34701e-05
-1.34701e-05
-1.347e-05
-1.347e-05
-1.34399e-05
-1.344e-05
-1.34401e-05
-1.344e-05
-1.34399e-05
-1.34096e-05
-1.34096e-05
-1.34097e-05
-1.34096e-05
-1.34096e-05
-1.33789e-05
-1.33789e-05
-1.3379e-05
-1.33789e-05
-1.33789e-05
-1.33478e-05
-1.33479e-05
-1.33479e-05
-1.33479e-05
-1.33478e-05
-1.33165e-05
-1.33165e-05
-1.33165e-05
-1.33165e-05
-1.33164e-05
-1.32847e-05
-1.32848e-05
-1.32848e-05
-1.32848e-05
-1.32847e-05
)
;

boundaryField
{
    BotWall
    {
        type            fixedFluxPressure;
        gradient        uniform 0;
        value           nonuniform List<scalar> 5(0.472428 0.472459 0.472454 0.472458 0.472428);
    }
    FreeStream
    {
        type            totalPressure;
        rho             rho;
        psi             none;
        gamma           1;
        p0              uniform 0;
        value           nonuniform List<scalar> 5(-1.32688e-05 -1.32688e-05 -1.32688e-05 -1.32688e-05 -1.32688e-05);
    }
    FrontNBack
    {
        type            empty;
    }
    LeftSide
    {
        type            symmetryPlane;
    }
    RightSide
    {
        type            symmetryPlane;
    }
}


// ************************************************************************* //
