/*--------------------------------*- C++ -*----------------------------------*\
| =========                 |                                                 |
| \\      /  F ield         | OpenFOAM: The Open Source CFD Toolbox           |
|  \\    /   O peration     | Version:  2.4.0                                 |
|   \\  /    A nd           | Web:      www.OpenFOAM.org                      |
|    \\/     M anipulation  |                                                 |
\*---------------------------------------------------------------------------*/
FoamFile
{
    version     2.0;
    format      ascii;
    class       surfaceScalarField;
    location    "1.7";
    object      phi;
}
// * * * * * * * * * * * * * * * * * * * * * * * * * * * * * * * * * * * * * //

dimensions      [0 3 -1 0 0 0 0];

internalField   nonuniform List<scalar> 
895
(
1.14536e-18
-1.14553e-18
7.1697e-19
4.27978e-19
-7.27111e-19
1.44319e-18
-1.16981e-18
4.42051e-19
-1.1705e-18
3.51991e-18
-4.67138e-18
2.18666e-18
1.75133e-18
-2.21774e-18
5.83358e-18
-3.59413e-18
1.80732e-18
-4.77271e-18
5.99907e-18
-1.06775e-17
3.71096e-18
4.0284e-18
-3.76511e-18
1.32945e-17
-6.12556e-18
4.15598e-18
-1.09065e-17
8.59064e-18
-1.92758e-17
5.30021e-18
7.30706e-18
-5.37882e-18
2.39576e-17
-8.77317e-18
7.5382e-18
-1.96878e-17
1.12867e-17
-3.05706e-17
6.95104e-18
1.16306e-17
-7.05563e-18
3.79481e-17
-1.15271e-17
1.19976e-17
-3.1223e-17
1.41093e-17
-4.46882e-17
8.67389e-18
1.70539e-17
-8.80569e-18
5.54117e-17
-1.44097e-17
1.75896e-17
-4.56404e-17
1.70479e-17
-6.17443e-17
1.04634e-17
2.36266e-17
-1.06237e-17
7.64833e-17
-1.74107e-17
2.43652e-17
-6.30584e-17
2.01254e-17
-8.18777e-17
1.23309e-17
3.14098e-17
-1.25212e-17
1.01321e-16
-2.05533e-17
3.23866e-17
-8.36184e-17
2.33163e-17
-1.05202e-16
1.42715e-17
4.04441e-17
-1.44931e-17
1.30072e-16
-2.38121e-17
4.1696e-17
-1.07437e-16
2.6628e-17
-1.31836e-16
1.63068e-17
5.07559e-17
-1.65611e-17
1.62928e-16
-2.71948e-17
5.23211e-17
-1.34636e-16
3.008e-17
-1.61923e-16
1.84404e-17
6.23873e-17
-1.87292e-17
2.00087e-16
-3.07204e-17
6.43052e-17
-1.65361e-16
3.39156e-17
-1.95843e-16
2.06772e-17
7.56192e-17
-2.10024e-17
2.41759e-16
-3.46329e-17
7.79303e-17
-1.99997e-16
3.83519e-17
-2.34199e-16
2.28307e-17
9.11362e-17
-2.3195e-17
2.8778e-16
-3.91509e-17
9.3883e-17
-2.39149e-16
4.26836e-17
-2.82242e-16
2.51651e-17
1.08655e-16
-2.5566e-17
3.38511e-16
-4.35809e-17
1.11898e-16
-2.88204e-16
4.39867e-17
-3.41164e-10
2.80134e-17
-3.41165e-10
-2.8436e-17
-3.41165e-10
-4.49966e-17
-3.41165e-10
-3.41164e-10
4.58913e-17
-3.41164e-10
2.79295e-17
-3.41165e-10
-2.83815e-17
-3.41165e-10
-4.68829e-17
-3.41165e-10
-3.41164e-10
5.16171e-17
-3.41164e-10
2.74368e-17
-3.41165e-10
-2.77631e-17
-3.41165e-10
-5.25629e-17
-3.41165e-10
-3.41164e-10
4.37734e-17
-3.41164e-10
2.69511e-17
-3.41165e-10
-2.71484e-17
-3.41165e-10
-4.4648e-17
-3.41165e-10
-3.41164e-10
4.07409e-17
-3.41164e-10
2.54679e-17
-3.41165e-10
-2.55364e-17
-3.41165e-10
-4.15489e-17
-3.41165e-10
-3.41164e-10
3.94421e-17
-3.41164e-10
2.40394e-17
-3.41165e-10
-2.39805e-17
-3.41165e-10
-4.01862e-17
-3.41165e-10
-3.41164e-10
3.78215e-17
-3.41164e-10
2.28506e-17
-3.41165e-10
-2.26668e-17
-3.41165e-10
-3.85019e-17
-3.41165e-10
-3.41164e-10
3.58118e-17
-3.41164e-10
2.17201e-17
-3.41165e-10
-2.1414e-17
-3.41165e-10
-3.64283e-17
-3.41165e-10
-3.41164e-10
3.37748e-17
-3.41164e-10
2.05756e-17
-3.41165e-10
-2.01497e-17
-3.41165e-10
-3.43273e-17
-3.41165e-10
-3.41164e-10
3.18309e-17
-3.41164e-10
1.94329e-17
-3.41165e-10
-1.88899e-17
-3.41165e-10
-3.23196e-17
-3.41165e-10
-3.41164e-10
2.99578e-17
-3.41164e-10
1.83125e-17
-3.41165e-10
-1.76552e-17
-3.41165e-10
-3.03829e-17
-3.41165e-10
-3.41164e-10
2.81281e-17
-3.41164e-10
1.72196e-17
-3.41165e-10
-1.64509e-17
-3.41165e-10
-2.84898e-17
-3.41165e-10
-3.41164e-10
2.63361e-17
-3.41164e-10
1.61529e-17
-3.41165e-10
-1.52758e-17
-3.41165e-10
-2.66348e-17
-3.41165e-10
-3.41164e-10
2.45852e-17
-3.41164e-10
1.51116e-17
-3.41165e-10
-1.41292e-17
-3.41165e-10
-2.48213e-17
-3.41165e-10
-3.41164e-10
2.2878e-17
-3.41164e-10
1.40958e-17
-3.41165e-10
-1.30112e-17
-3.41165e-10
-2.30521e-17
-3.41165e-10
-3.41164e-10
2.12156e-17
-3.41164e-10
1.31061e-17
-3.41165e-10
-1.19227e-17
-3.41164e-10
-2.13282e-17
-3.41164e-10
-3.41164e-10
1.95986e-17
-3.41164e-10
1.21431e-17
-3.41165e-10
-1.08642e-17
-3.41164e-10
-1.96503e-17
-3.41164e-10
-3.41164e-10
1.80276e-17
-3.41164e-10
1.12071e-17
-3.41164e-10
-9.83631e-18
-3.41164e-10
-1.80192e-17
-3.41164e-10
-3.41164e-10
1.6503e-17
-3.41164e-10
1.02986e-17
-3.41164e-10
-8.83935e-18
-3.41164e-10
-1.64353e-17
-3.41164e-10
-3.41164e-10
1.50255e-17
-3.41164e-10
9.41777e-18
-3.41164e-10
-7.87376e-18
-3.41164e-10
-1.48994e-17
-3.41164e-10
-3.41164e-10
1.35955e-17
-3.41164e-10
8.56501e-18
-3.41164e-10
-6.9399e-18
-3.41164e-10
-1.3412e-17
-3.41164e-10
-3.41164e-10
1.22134e-17
-3.41164e-10
7.74052e-18
-3.41164e-10
-6.03809e-18
-3.41164e-10
-1.19735e-17
-3.41164e-10
-3.41164e-10
1.08797e-17
-3.41164e-10
6.94452e-18
-3.41164e-10
-5.1686e-18
-3.41164e-10
-1.05845e-17
-3.41164e-10
-3.41164e-10
9.59447e-18
-3.41164e-10
6.17719e-18
-3.41164e-10
-4.33165e-18
-3.41164e-10
-9.24528e-18
-3.41164e-10
-3.41164e-10
8.35808e-18
-3.41165e-10
5.43865e-18
-3.41164e-10
-3.52745e-18
-3.41164e-10
-7.95608e-18
-3.41164e-10
-3.41164e-10
7.17063e-18
-3.41165e-10
4.72901e-18
-3.41164e-10
-2.75611e-18
-3.41164e-10
-6.71717e-18
-3.41164e-10
-3.41164e-10
6.0322e-18
-3.41165e-10
4.04832e-18
-3.41164e-10
-2.01774e-18
-3.41164e-10
-5.52868e-18
-3.41164e-10
-3.41165e-10
4.94282e-18
-3.41165e-10
3.3966e-18
-3.41164e-10
-1.31239e-18
-3.41164e-10
-4.39071e-18
-3.41164e-10
-3.41165e-10
3.90244e-18
-3.41165e-10
2.77382e-18
-3.41164e-10
-6.40043e-19
-3.41164e-10
-3.30326e-18
-3.41164e-10
-3.41165e-10
2.91093e-18
-3.41165e-10
2.17991e-18
-3.41164e-10
-6.65142e-22
-3.41164e-10
-2.26628e-18
-3.41164e-10
-3.41165e-10
1.96811e-18
-3.41165e-10
1.61479e-18
-3.41164e-10
6.05842e-19
-3.41164e-10
-1.27965e-18
-3.41164e-10
-3.41165e-10
1.07374e-18
-3.41165e-10
1.07829e-18
-3.41164e-10
1.17962e-18
-3.41164e-10
-3.43163e-19
-3.41164e-10
-3.41165e-10
2.27492e-19
-3.41165e-10
5.70252e-19
-3.41164e-10
1.72085e-18
-3.41164e-10
5.4344e-19
-3.41164e-10
-3.41165e-10
-5.71014e-19
-3.41165e-10
9.04408e-20
-3.41164e-10
2.22978e-18
-3.41164e-10
1.3805e-18
-3.41164e-10
-3.41165e-10
-1.32223e-18
-3.41165e-10
-3.614e-19
-3.41164e-10
2.70668e-18
-3.41164e-10
2.16841e-18
-3.41164e-10
-3.41165e-10
-2.02666e-18
-3.41165e-10
-7.85568e-19
-3.41164e-10
3.15188e-18
-3.41164e-10
2.90765e-18
-3.41164e-10
-3.41165e-10
-2.68489e-18
-3.41165e-10
-1.1824e-18
-3.41164e-10
3.56576e-18
-3.41164e-10
3.59877e-18
-3.41164e-10
-3.41165e-10
-3.29755e-18
-3.41165e-10
-1.55227e-18
-3.41164e-10
3.94873e-18
-3.41164e-10
4.24236e-18
-3.41164e-10
-3.41165e-10
-3.86536e-18
-3.41165e-10
-1.89558e-18
-3.41164e-10
4.30126e-18
-3.41164e-10
4.83911e-18
-3.41164e-10
-3.41164e-10
-4.38906e-18
-3.41165e-10
-2.21278e-18
-3.41164e-10
4.62386e-18
-3.41164e-10
5.38975e-18
-3.41164e-10
-3.41164e-10
-4.86948e-18
-3.41165e-10
-2.50435e-18
-3.41164e-10
4.91707e-18
-3.41164e-10
5.89508e-18
-3.41164e-10
-3.41164e-10
-5.30749e-18
-3.41165e-10
-2.7708e-18
-3.41164e-10
5.18149e-18
-3.41164e-10
6.35597e-18
-3.41164e-10
-3.41164e-10
-5.70404e-18
-3.41165e-10
-3.01268e-18
-3.41164e-10
5.41776e-18
-3.41164e-10
6.77334e-18
-3.41164e-10
-3.41164e-10
-6.0601e-18
-3.41164e-10
-3.23057e-18
-3.41164e-10
5.62654e-18
-3.41164e-10
7.14818e-18
-3.41164e-10
-3.41164e-10
-6.37672e-18
-3.41164e-10
-3.42508e-18
-3.41164e-10
5.80855e-18
-3.41164e-10
7.48154e-18
-3.41164e-10
-3.41164e-10
-6.65498e-18
-3.41164e-10
-3.59684e-18
-3.41164e-10
5.96455e-18
-3.41164e-10
7.77451e-18
-3.41164e-10
-3.41164e-10
-6.89602e-18
-3.41164e-10
-3.74652e-18
-3.41164e-10
6.09532e-18
-3.41164e-10
8.02824e-18
-3.41164e-10
-3.41164e-10
-7.10104e-18
-3.41164e-10
-3.87482e-18
-3.41164e-10
6.20168e-18
-3.41164e-10
8.24394e-18
-3.41164e-10
-3.41164e-10
-7.27125e-18
-3.41164e-10
-3.98246e-18
-3.41165e-10
6.2845e-18
-3.41164e-10
8.42287e-18
-3.41164e-10
-3.41164e-10
-7.40794e-18
-3.41164e-10
-4.07018e-18
-3.41165e-10
6.34466e-18
-3.41164e-10
8.56633e-18
-3.41164e-10
-3.41164e-10
-7.5124e-18
-3.41164e-10
-4.13876e-18
-3.41165e-10
6.38309e-18
-3.41164e-10
8.67567e-18
-3.41164e-10
-3.41164e-10
-7.586e-18
-3.41164e-10
-4.18899e-18
-3.41165e-10
6.40074e-18
-3.41164e-10
8.75229e-18
-3.41164e-10
-3.41164e-10
-7.63012e-18
-3.41164e-10
-4.22167e-18
-3.41165e-10
6.39859e-18
-3.41164e-10
8.79762e-18
-3.41164e-10
-3.41164e-10
-7.64618e-18
-3.41164e-10
-4.23766e-18
-3.41165e-10
6.37764e-18
-3.41165e-10
8.81314e-18
-3.41164e-10
-3.41164e-10
-7.63563e-18
-3.41164e-10
-4.23778e-18
-3.41165e-10
6.33894e-18
-3.41165e-10
8.80037e-18
-3.41164e-10
-3.41164e-10
-7.59995e-18
-3.41164e-10
-4.22293e-18
-3.41165e-10
6.28353e-18
-3.41165e-10
8.76086e-18
-3.41164e-10
-3.41164e-10
-7.54065e-18
-3.41164e-10
-4.19397e-18
-3.41165e-10
6.21249e-18
-3.41165e-10
8.69619e-18
-3.41164e-10
-3.41164e-10
-7.45927e-18
-3.41164e-10
-4.15182e-18
-3.41165e-10
6.12692e-18
-3.41165e-10
8.60798e-18
-3.41164e-10
-3.41164e-10
-7.35737e-18
-3.41164e-10
-4.09739e-18
-3.41165e-10
6.02795e-18
-3.41165e-10
8.49788e-18
-3.41164e-10
-3.41164e-10
-7.23653e-18
-3.41164e-10
-4.0316e-18
-3.41165e-10
5.91671e-18
-3.41165e-10
8.36756e-18
-3.41164e-10
-3.41164e-10
-7.09835e-18
-3.41164e-10
-3.9554e-18
-3.41165e-10
5.79434e-18
-3.41165e-10
8.21871e-18
-3.41164e-10
-3.41164e-10
-6.94444e-18
-3.41164e-10
-3.86974e-18
-3.41165e-10
5.66203e-18
-3.41165e-10
8.05307e-18
-3.41164e-10
-3.41164e-10
-6.77646e-18
-3.41164e-10
-3.77558e-18
-3.41165e-10
5.52095e-18
-3.41165e-10
7.87239e-18
-3.41164e-10
-3.41164e-10
-6.59604e-18
-3.41164e-10
-3.67389e-18
-3.41165e-10
5.37229e-18
-3.41165e-10
7.67843e-18
-3.41164e-10
-3.41164e-10
-6.40487e-18
-3.41164e-10
-3.56566e-18
-3.41165e-10
5.21727e-18
-3.41165e-10
7.47299e-18
-3.41164e-10
-3.41164e-10
-6.20462e-18
-3.41164e-10
-3.45186e-18
-3.41165e-10
5.05711e-18
-3.41165e-10
7.25788e-18
-3.41164e-10
-3.41164e-10
-5.997e-18
-3.41164e-10
-3.33351e-18
-3.41165e-10
4.89302e-18
-3.41165e-10
7.03492e-18
-3.41164e-10
-3.41164e-10
-5.78373e-18
-3.41164e-10
-3.21161e-18
-3.41165e-10
4.72625e-18
-3.41165e-10
6.80597e-18
-3.41164e-10
-3.41164e-10
-5.56651e-18
-3.41164e-10
-3.08717e-18
-3.41165e-10
4.55805e-18
-3.41165e-10
6.5729e-18
-3.41164e-10
-3.41164e-10
-5.34711e-18
-3.41164e-10
-2.96121e-18
-3.41165e-10
4.38967e-18
-3.41165e-10
6.33759e-18
-3.41164e-10
-3.41164e-10
-5.12727e-18
-3.41164e-10
-2.83478e-18
-3.41165e-10
4.22237e-18
-3.41165e-10
6.10196e-18
-3.41164e-10
-3.41164e-10
-4.90877e-18
-3.41164e-10
-2.70891e-18
-3.41165e-10
4.05744e-18
-3.41165e-10
5.86793e-18
-3.41164e-10
-3.41164e-10
-4.69341e-18
-3.41164e-10
-2.58466e-18
-3.41165e-10
3.89615e-18
-3.41165e-10
5.63745e-18
-3.41164e-10
-3.41164e-10
-4.48299e-18
-3.41164e-10
-2.4631e-18
-3.41165e-10
3.73979e-18
-3.41165e-10
5.4125e-18
-3.41164e-10
-3.41164e-10
-4.27935e-18
-3.41164e-10
-2.3453e-18
-3.41165e-10
3.58967e-18
-3.41165e-10
5.19508e-18
-3.41164e-10
-3.41164e-10
-4.08436e-18
-3.41164e-10
-2.23237e-18
-3.41165e-10
3.4471e-18
-3.41165e-10
4.98723e-18
-3.41165e-10
-3.41164e-10
-3.89991e-18
-3.41164e-10
-2.12541e-18
-3.41165e-10
3.31342e-18
-3.41165e-10
4.79101e-18
-3.41165e-10
-3.41164e-10
-3.72792e-18
-3.41164e-10
-2.02557e-18
-3.41165e-10
3.18997e-18
-3.41165e-10
4.60853e-18
-3.41165e-10
-3.41164e-10
-3.57036e-18
-3.41164e-10
-1.934e-18
-3.41165e-10
3.0781e-18
-3.41165e-10
4.44195e-18
-3.41165e-10
-3.41164e-10
-3.42925e-18
-3.41164e-10
-1.85188e-18
-3.41165e-10
2.97922e-18
-3.41165e-10
4.29345e-18
-3.41165e-10
-3.41164e-10
-3.30665e-18
-3.41164e-10
-1.78044e-18
-3.41165e-10
2.89471e-18
-3.41165e-10
4.16529e-18
-3.41165e-10
-3.41164e-10
-3.20467e-18
-3.41164e-10
-1.72092e-18
-3.41165e-10
2.82601e-18
-3.41165e-10
4.05978e-18
-3.41165e-10
-3.41164e-10
-3.12548e-18
-3.41164e-10
-1.67458e-18
-3.41165e-10
2.77457e-18
-3.41165e-10
3.97928e-18
-3.41165e-10
-3.41164e-10
-3.07136e-18
-3.41164e-10
-1.64278e-18
-3.41165e-10
2.7419e-18
-3.41165e-10
3.92627e-18
-3.41165e-10
-3.41164e-10
-3.04505e-18
-3.41164e-10
-1.6271e-18
-3.41165e-10
2.72977e-18
-3.41165e-10
3.90377e-18
-3.41165e-10
-3.41164e-10
-3.0454e-18
-1.62712e-18
2.73727e-18
3.91149e-18
)
;

boundaryField
{
    BotWall
    {
        type            calculated;
        value           nonuniform List<scalar> 5(2.34106e-22 3.42746e-22 5.73385e-22 4.59403e-22 4.07023e-22);
    }
    FreeStream
    {
        type            calculated;
        value           nonuniform List<scalar> 5(-3.41164e-10 -3.41165e-10 -3.41165e-10 -3.41165e-10 -3.41164e-10);
    }
    FrontNBack
    {
        type            empty;
        value           nonuniform 0();
    }
    LeftSide
    {
        type            symmetryPlane;
        value           uniform 0;
    }
    RightSide
    {
        type            symmetryPlane;
        value           uniform 0;
    }
}


// ************************************************************************* //
