/*--------------------------------*- C++ -*----------------------------------*\
| =========                 |                                                 |
| \\      /  F ield         | OpenFOAM: The Open Source CFD Toolbox           |
|  \\    /   O peration     | Version:  2.4.0                                 |
|   \\  /    A nd           | Web:      www.OpenFOAM.org                      |
|    \\/     M anipulation  |                                                 |
\*---------------------------------------------------------------------------*/
FoamFile
{
    version     2.0;
    format      ascii;
    class       volVectorField;
    location    "1.7";
    object      U;
}
// * * * * * * * * * * * * * * * * * * * * * * * * * * * * * * * * * * * * * //

dimensions      [0 1 -1 0 0 0 0];

internalField   nonuniform List<vector> 
500
(
(3.21992e-10 4.34367e-10 0)
(5.18367e-10 4.41234e-10 0)
(6.23696e-13 4.42176e-10 0)
(-5.27027e-10 4.41253e-10 0)
(-3.31128e-10 4.34353e-10 0)
(9.7808e-10 -1.15278e-09 0)
(1.5684e-09 -1.15087e-09 0)
(1.84219e-12 -1.14023e-09 0)
(-1.5945e-09 -1.15074e-09 0)
(-1.00558e-09 -1.15305e-09 0)
(1.64924e-09 5.43189e-10 0)
(2.63676e-09 6.14863e-10 0)
(2.85323e-12 6.45363e-10 0)
(-2.68094e-09 6.15296e-10 0)
(-1.69554e-09 5.42451e-10 0)
(2.33893e-09 -4.76379e-09 0)
(3.7271e-09 -4.69783e-09 0)
(3.767e-12 -4.63559e-09 0)
(-3.79008e-09 -4.69698e-09 0)
(-2.40465e-09 -4.76533e-09 0)
(3.04364e-09 6.77511e-09 0)
(4.83602e-09 6.99291e-09 0)
(4.60646e-12 7.0972e-09 0)
(-4.9182e-09 6.99438e-09 0)
(-3.1291e-09 6.77254e-09 0)
(3.76945e-09 2.68082e-08 0)
(5.96984e-09 2.70337e-08 0)
(5.39823e-12 2.7194e-08 0)
(-6.07153e-09 2.70359e-08 0)
(-3.87493e-09 2.68042e-08 0)
(4.51143e-09 6.32682e-08 0)
(7.12386e-09 6.36898e-08 0)
(6.14222e-12 6.39169e-08 0)
(-7.24547e-09 6.3693e-08 0)
(-4.63731e-09 6.32625e-08 0)
(5.27611e-09 -1.05327e-07 0)
(8.30469e-09 -1.05068e-07 0)
(6.84897e-12 -1.04764e-07 0)
(-8.44667e-09 -1.05064e-07 0)
(-5.4228e-09 -1.05334e-07 0)
(6.05624e-09 -8.0517e-07 0)
(9.5052e-09 -8.04872e-07 0)
(7.54227e-12 -8.04501e-07 0)
(-9.66802e-09 -8.04867e-07 0)
(-6.22423e-09 -8.05179e-07 0)
(6.85975e-09 -1.53318e-06 0)
(1.07332e-08 -1.53243e-06 0)
(8.21134e-12 -1.53199e-06 0)
(-1.09173e-08 -1.53242e-06 0)
(-7.04953e-09 -1.53319e-06 0)
(7.69132e-09 2.66866e-06 0)
(1.19935e-08 2.67263e-06 0)
(8.85092e-12 2.67327e-06 0)
(-1.21995e-08 2.67264e-06 0)
(-7.9034e-09 2.66864e-06 0)
(8.58545e-09 2.12133e-05 0)
(1.33228e-08 2.12213e-05 0)
(9.4791e-12 2.12227e-05 0)
(-1.35513e-08 2.12213e-05 0)
(-8.82045e-09 2.12133e-05 0)
(9.52644e-09 3.9961e-05 0)
(1.47043e-08 3.9963e-05 0)
(1.00027e-11 3.99658e-05 0)
(-1.49563e-08 3.9963e-05 0)
(-9.7853e-09 3.99609e-05 0)
(1.03733e-08 -7.40493e-05 0)
(1.60257e-08 -7.40854e-05 0)
(1.06955e-11 -7.4086e-05 0)
(-1.63025e-08 -7.40854e-05 0)
(-1.06577e-08 -7.40492e-05 0)
(1.07685e-08 -0.000535965 0)
(1.68429e-08 -0.000536006 0)
(1.14379e-11 -0.000536012 0)
(-1.71418e-08 -0.000536006 0)
(-1.10757e-08 -0.000535965 0)
(1.10971e-08 -0.00123395 0)
(1.72249e-08 -0.00123392 0)
(1.14781e-11 -0.00123392 0)
(-1.75268e-08 -0.00123392 0)
(-1.14072e-08 -0.00123395 0)
(1.17907e-08 -0.00284553 0)
(1.76339e-08 -0.00284548 0)
(3.55388e-11 -0.00284548 0)
(-1.79054e-08 -0.00284548 0)
(-1.20934e-08 -0.00284553 0)
(1.05856e-08 -0.00177505 0)
(1.60672e-08 -0.0017751 0)
(5.95917e-11 -0.0017751 0)
(-1.63046e-08 -0.0017751 0)
(-1.08773e-08 -0.00177505 0)
(9.78958e-09 -0.00164954 0)
(1.49223e-08 -0.00164955 0)
(8.24073e-11 -0.00164955 0)
(-1.51266e-08 -0.00164955 0)
(-1.00699e-08 -0.00164954 0)
(9.26274e-09 -0.00167184 0)
(1.40622e-08 -0.00167184 0)
(1.04192e-10 -0.00167184 0)
(-1.42344e-08 -0.00167184 0)
(-9.53191e-09 -0.00167184 0)
(8.76418e-09 -0.001702 0)
(1.32438e-08 -0.001702 0)
(1.24923e-10 -0.001702 0)
(-1.3385e-08 -0.001702 0)
(-9.0222e-09 -0.001702 0)
(8.23411e-09 -0.00170838 0)
(1.24053e-08 -0.00170839 0)
(1.4461e-10 -0.00170839 0)
(-1.25164e-08 -0.00170839 0)
(-8.48092e-09 -0.00170838 0)
(7.704e-09 -0.00170717 0)
(1.15777e-08 -0.00170718 0)
(1.6326e-10 -0.00170718 0)
(-1.16597e-08 -0.00170718 0)
(-7.93954e-09 -0.00170717 0)
(7.1948e-09 -0.00170598 0)
(1.07822e-08 -0.00170598 0)
(1.80883e-10 -0.00170598 0)
(-1.08359e-08 -0.00170598 0)
(-7.41905e-09 -0.00170598 0)
(6.70842e-09 -0.00170571 0)
(1.00204e-08 -0.00170572 0)
(1.9749e-10 -0.00170572 0)
(-1.00469e-08 -0.00170572 0)
(-6.92136e-09 -0.00170571 0)
(6.24182e-09 -0.00170577 0)
(9.28931e-09 -0.00170577 0)
(2.13091e-10 -0.00170577 0)
(-9.28953e-09 -0.00170577 0)
(-6.44347e-09 -0.00170577 0)
(5.79337e-09 -0.00170582 0)
(8.5871e-09 -0.00170582 0)
(2.277e-10 -0.00170582 0)
(-8.56199e-09 -0.00170582 0)
(-5.98374e-09 -0.00170582 0)
(5.36273e-09 -0.00170583 0)
(7.9133e-09 -0.00170583 0)
(2.41328e-10 -0.00170583 0)
(-7.86383e-09 -0.00170583 0)
(-5.54186e-09 -0.00170583 0)
(4.94979e-09 -0.00170582 0)
(7.26767e-09 -0.00170582 0)
(2.53991e-10 -0.00170582 0)
(-7.19481e-09 -0.00170582 0)
(-5.11776e-09 -0.00170582 0)
(4.55437e-09 -0.00170582 0)
(6.64984e-09 -0.00170582 0)
(2.65701e-10 -0.00170582 0)
(-6.55456e-09 -0.00170582 0)
(-4.71124e-09 -0.00170582 0)
(4.17616e-09 -0.00170582 0)
(6.05935e-09 -0.00170582 0)
(2.76476e-10 -0.00170582 0)
(-5.94264e-09 -0.00170582 0)
(-4.32203e-09 -0.00170582 0)
(3.81484e-09 -0.00170582 0)
(5.49572e-09 -0.00170582 0)
(2.86331e-10 -0.00170582 0)
(-5.35856e-09 -0.00170582 0)
(-3.94981e-09 -0.00170582 0)
(3.47009e-09 -0.00170582 0)
(4.95846e-09 -0.00170582 0)
(2.95284e-10 -0.00170582 0)
(-4.80182e-09 -0.00170582 0)
(-3.5943e-09 -0.00170582 0)
(3.1416e-09 -0.00170582 0)
(4.44707e-09 -0.00170582 0)
(3.03352e-10 -0.00170582 0)
(-4.27193e-09 -0.00170582 0)
(-3.25518e-09 -0.00170582 0)
(2.82903e-09 -0.00170582 0)
(3.96102e-09 -0.00170582 0)
(3.10554e-10 -0.00170582 0)
(-3.76836e-09 -0.00170582 0)
(-2.93214e-09 -0.00170582 0)
(2.53205e-09 -0.00170582 0)
(3.4998e-09 -0.00170582 0)
(3.1691e-10 -0.00170582 0)
(-3.29058e-09 -0.00170582 0)
(-2.62486e-09 -0.00170582 0)
(2.2503e-09 -0.00170582 0)
(3.06285e-09 -0.00170582 0)
(3.2244e-10 -0.00170582 0)
(-2.83804e-09 -0.00170582 0)
(-2.333e-09 -0.00170582 0)
(1.98345e-09 -0.00170582 0)
(2.64963e-09 -0.00170582 0)
(3.27165e-10 -0.00170582 0)
(-2.41019e-09 -0.00170582 0)
(-2.05623e-09 -0.00170582 0)
(1.73113e-09 -0.00170582 0)
(2.25956e-09 -0.00170582 0)
(3.31106e-10 -0.00170582 0)
(-2.00646e-09 -0.00170582 0)
(-1.7942e-09 -0.00170582 0)
(1.49298e-09 -0.00170582 0)
(1.89209e-09 -0.00170582 0)
(3.34285e-10 -0.00170582 0)
(-1.62625e-09 -0.00170582 0)
(-1.54656e-09 -0.00170582 0)
(1.26863e-09 -0.00170582 0)
(1.54663e-09 -0.00170582 0)
(3.36726e-10 -0.00170582 0)
(-1.26899e-09 -0.00170582 0)
(-1.31296e-09 -0.00170582 0)
(1.05772e-09 -0.00170582 0)
(1.22258e-09 -0.00170582 0)
(3.38451e-10 -0.00170582 0)
(-9.34073e-10 -0.00170582 0)
(-1.09304e-09 -0.00170582 0)
(8.59865e-10 -0.00170582 0)
(9.19356e-10 -0.00170582 0)
(3.39484e-10 -0.00170582 0)
(-6.20883e-10 -0.00170582 0)
(-8.86432e-10 -0.00170582 0)
(6.74688e-10 -0.00170582 0)
(6.36345e-10 -0.00170582 0)
(3.39851e-10 -0.00170582 0)
(-3.28807e-10 -0.00170582 0)
(-6.92768e-10 -0.00170582 0)
(5.01808e-10 -0.00170582 0)
(3.7294e-10 -0.00170582 0)
(3.39575e-10 -0.00170582 0)
(-5.7221e-11 -0.00170582 0)
(-5.11674e-10 -0.00170582 0)
(3.40841e-10 -0.00170582 0)
(1.28526e-10 -0.00170582 0)
(3.38682e-10 -0.00170582 0)
(1.94505e-10 -0.00170582 0)
(-3.42776e-10 -0.00170582 0)
(1.91402e-10 -0.00170582 0)
(-9.75138e-11 -0.00170582 0)
(3.37198e-10 -0.00170582 0)
(4.27007e-10 -0.00170582 0)
(-1.85694e-10 -0.00170582 0)
(5.31031e-11 -0.00170582 0)
(-3.05802e-10 -0.00170582 0)
(3.3515e-10 -0.00170582 0)
(6.40923e-10 -0.00170582 0)
(-4.00492e-11 -0.00170582 0)
(-7.44433e-11 -0.00170582 0)
(-4.96963e-10 -0.00170582 0)
(3.32562e-10 -0.00170582 0)
(8.36896e-10 -0.00170582 0)
(9.45418e-11 -0.00170582 0)
(-1.91625e-10 -0.00170582 0)
(-6.71622e-10 -0.00170582 0)
(3.29463e-10 -0.00170582 0)
(1.01557e-09 -0.00170582 0)
(2.18462e-10 -0.00170582 0)
(-2.98831e-10 -0.00170582 0)
(-8.30404e-10 -0.00170582 0)
(3.25879e-10 -0.00170582 0)
(1.1776e-09 -0.00170582 0)
(3.32094e-10 -0.00170582 0)
(-3.96449e-10 -0.00170582 0)
(-9.73936e-10 -0.00170582 0)
(3.21837e-10 -0.00170582 0)
(1.32362e-09 -0.00170582 0)
(4.35824e-10 -0.00170582 0)
(-4.84863e-10 -0.00170582 0)
(-1.10284e-09 -0.00170582 0)
(3.17365e-10 -0.00170582 0)
(1.45428e-09 -0.00170582 0)
(5.30033e-10 -0.00170582 0)
(-5.6446e-10 -0.00170582 0)
(-1.21774e-09 -0.00170582 0)
(3.1249e-10 -0.00170582 0)
(1.57024e-09 -0.00170582 0)
(6.15105e-10 -0.00170582 0)
(-6.35621e-10 -0.00170582 0)
(-1.31926e-09 -0.00170582 0)
(3.07239e-10 -0.00170582 0)
(1.67213e-09 -0.00170582 0)
(6.91422e-10 -0.00170582 0)
(-6.98726e-10 -0.00170582 0)
(-1.40802e-09 -0.00170582 0)
(3.01641e-10 -0.00170582 0)
(1.7606e-09 -0.00170582 0)
(7.59363e-10 -0.00170582 0)
(-7.54153e-10 -0.00170582 0)
(-1.48461e-09 -0.00170582 0)
(2.95723e-10 -0.00170582 0)
(1.83629e-09 -0.00170582 0)
(8.19305e-10 -0.00170582 0)
(-8.02275e-10 -0.00170582 0)
(-1.54966e-09 -0.00170582 0)
(2.89513e-10 -0.00170582 0)
(1.89982e-09 -0.00170582 0)
(8.71623e-10 -0.00170582 0)
(-8.4346e-10 -0.00170582 0)
(-1.60377e-09 -0.00170582 0)
(2.83037e-10 -0.00170582 0)
(1.95184e-09 -0.00170582 0)
(9.16689e-10 -0.00170582 0)
(-8.78076e-10 -0.00170582 0)
(-1.64752e-09 -0.00170582 0)
(2.76324e-10 -0.00170582 0)
(1.99296e-09 -0.00170582 0)
(9.54871e-10 -0.00170582 0)
(-9.06481e-10 -0.00170582 0)
(-1.68152e-09 -0.00170582 0)
(2.694e-10 -0.00170582 0)
(2.0238e-09 -0.00170582 0)
(9.86534e-10 -0.00170582 0)
(-9.29032e-10 -0.00170582 0)
(-1.70633e-09 -0.00170582 0)
(2.62293e-10 -0.00170582 0)
(2.04497e-09 -0.00170582 0)
(1.01204e-09 -0.00170582 0)
(-9.46079e-10 -0.00170582 0)
(-1.72253e-09 -0.00170582 0)
(2.55028e-10 -0.00170582 0)
(2.05707e-09 -0.00170582 0)
(1.03174e-09 -0.00170582 0)
(-9.57966e-10 -0.00170582 0)
(-1.73068e-09 -0.00170582 0)
(2.47633e-10 -0.00170582 0)
(2.0607e-09 -0.00170582 0)
(1.04598e-09 -0.00170582 0)
(-9.65032e-10 -0.00170582 0)
(-1.73134e-09 -0.00170582 0)
(2.40132e-10 -0.00170582 0)
(2.05645e-09 -0.00170582 0)
(1.05512e-09 -0.00170582 0)
(-9.67608e-10 -0.00170582 0)
(-1.72505e-09 -0.00170582 0)
(2.32553e-10 -0.00170582 0)
(2.04487e-09 -0.00170582 0)
(1.05949e-09 -0.00170582 0)
(-9.66021e-10 -0.00170582 0)
(-1.71234e-09 -0.00170582 0)
(2.24919e-10 -0.00170582 0)
(2.02655e-09 -0.00170582 0)
(1.05942e-09 -0.00170582 0)
(-9.60589e-10 -0.00170582 0)
(-1.69374e-09 -0.00170582 0)
(2.17256e-10 -0.00170582 0)
(2.00203e-09 -0.00170582 0)
(1.05524e-09 -0.00170582 0)
(-9.51623e-10 -0.00170582 0)
(-1.66975e-09 -0.00170582 0)
(2.09588e-10 -0.00170582 0)
(1.97185e-09 -0.00170582 0)
(1.04727e-09 -0.00170582 0)
(-9.39429e-10 -0.00170582 0)
(-1.64087e-09 -0.00170582 0)
(2.01937e-10 -0.00170582 0)
(1.93656e-09 -0.00170582 0)
(1.03584e-09 -0.00170582 0)
(-9.24302e-10 -0.00170582 0)
(-1.60759e-09 -0.00170582 0)
(1.94328e-10 -0.00170582 0)
(1.89665e-09 -0.00170582 0)
(1.02123e-09 -0.00170582 0)
(-9.06533e-10 -0.00170582 0)
(-1.57038e-09 -0.00170582 0)
(1.86782e-10 -0.00170582 0)
(1.85265e-09 -0.00170582 0)
(1.00376e-09 -0.00170582 0)
(-8.86403e-10 -0.00170582 0)
(-1.52971e-09 -0.00170582 0)
(1.79321e-10 -0.00170582 0)
(1.80504e-09 -0.00170582 0)
(9.83717e-10 -0.00170582 0)
(-8.64186e-10 -0.00170582 0)
(-1.48602e-09 -0.00170582 0)
(1.71965e-10 -0.00170582 0)
(1.7543e-09 -0.00170582 0)
(9.61387e-10 -0.00170582 0)
(-8.40149e-10 -0.00170582 0)
(-1.43974e-09 -0.00170582 0)
(1.64736e-10 -0.00170582 0)
(1.70091e-09 -0.00170582 0)
(9.37049e-10 -0.00170582 0)
(-8.1455e-10 -0.00170582 0)
(-1.39131e-09 -0.00170582 0)
(1.57652e-10 -0.00170582 0)
(1.64531e-09 -0.00170582 0)
(9.10974e-10 -0.00170582 0)
(-7.8764e-10 -0.00170582 0)
(-1.34112e-09 -0.00170582 0)
(1.50732e-10 -0.00170582 0)
(1.58794e-09 -0.00170582 0)
(8.83426e-10 -0.00170582 0)
(-7.59661e-10 -0.00170582 0)
(-1.28958e-09 -0.00170582 0)
(1.43993e-10 -0.00170582 0)
(1.52924e-09 -0.00170582 0)
(8.54661e-10 -0.00170582 0)
(-7.3085e-10 -0.00170582 0)
(-1.23706e-09 -0.00170582 0)
(1.37453e-10 -0.00170582 0)
(1.4696e-09 -0.00170582 0)
(8.24929e-10 -0.00170582 0)
(-7.01433e-10 -0.00170582 0)
(-1.18394e-09 -0.00170582 0)
(1.31127e-10 -0.00170582 0)
(1.40945e-09 -0.00170582 0)
(7.94471e-10 -0.00170582 0)
(-6.71631e-10 -0.00170582 0)
(-1.13058e-09 -0.00170582 0)
(1.2503e-10 -0.00170582 0)
(1.34914e-09 -0.00170582 0)
(7.63522e-10 -0.00170582 0)
(-6.41657e-10 -0.00170582 0)
(-1.07731e-09 -0.00170582 0)
(1.19176e-10 -0.00170582 0)
(1.28908e-09 -0.00170582 0)
(7.32309e-10 -0.00170582 0)
(-6.11717e-10 -0.00170582 0)
(-1.02447e-09 -0.00170582 0)
(1.13579e-10 -0.00170582 0)
(1.2296e-09 -0.00170582 0)
(7.01054e-10 -0.00170582 0)
(-5.8201e-10 -0.00170582 0)
(-9.72372e-10 -0.00170582 0)
(1.0825e-10 -0.00170582 0)
(1.17105e-09 -0.00170582 0)
(6.69969e-10 -0.00170582 0)
(-5.52729e-10 -0.00170582 0)
(-9.21334e-10 -0.00170582 0)
(1.032e-10 -0.00170582 0)
(1.11378e-09 -0.00170582 0)
(6.39264e-10 -0.00170582 0)
(-5.24059e-10 -0.00170582 0)
(-8.71647e-10 -0.00170582 0)
(9.84391e-11 -0.00170582 0)
(1.0581e-09 -0.00170582 0)
(6.0914e-10 -0.00170582 0)
(-4.96183e-10 -0.00170582 0)
(-8.23596e-10 -0.00170582 0)
(9.39765e-11 -0.00170582 0)
(1.00432e-09 -0.00170582 0)
(5.79792e-10 -0.00170582 0)
(-4.69274e-10 -0.00170582 0)
(-7.77456e-10 -0.00170582 0)
(8.98197e-11 -0.00170582 0)
(9.52734e-10 -0.00170582 0)
(5.51412e-10 -0.00170582 0)
(-4.43502e-10 -0.00170582 0)
(-7.33492e-10 -0.00170582 0)
(8.59756e-11 -0.00170582 0)
(9.03639e-10 -0.00170582 0)
(5.24186e-10 -0.00170582 0)
(-4.19035e-10 -0.00170582 0)
(-6.91959e-10 -0.00170582 0)
(8.24496e-11 -0.00170582 0)
(8.57309e-10 -0.00170582 0)
(4.98295e-10 -0.00170582 0)
(-3.96032e-10 -0.00170582 0)
(-6.53103e-10 -0.00170582 0)
(7.92463e-11 -0.00170582 0)
(8.14011e-10 -0.00170582 0)
(4.73916e-10 -0.00170582 0)
(-3.74653e-10 -0.00170582 0)
(-6.17165e-10 -0.00170582 0)
(7.63689e-11 -0.00170582 0)
(7.74003e-10 -0.00170582 0)
(4.51224e-10 -0.00170582 0)
(-3.55052e-10 -0.00170582 0)
(-5.84377e-10 -0.00170582 0)
(7.38197e-11 -0.00170582 0)
(7.37538e-10 -0.00170582 0)
(4.30391e-10 -0.00170582 0)
(-3.37383e-10 -0.00170582 0)
(-5.54963e-10 -0.00170582 0)
(7.15996e-11 -0.00170582 0)
(7.04859e-10 -0.00170582 0)
(4.11586e-10 -0.00170582 0)
(-3.21799e-10 -0.00170582 0)
(-5.29146e-10 -0.00170582 0)
(6.97085e-11 -0.00170582 0)
(6.76203e-10 -0.00170582 0)
(3.94978e-10 -0.00170582 0)
(-3.08448e-10 -0.00170582 0)
(-5.07139e-10 -0.00170582 0)
(6.8145e-11 -0.00170582 0)
(6.51802e-10 -0.00170582 0)
(3.80734e-10 -0.00170582 0)
(-2.97483e-10 -0.00170582 0)
(-4.89157e-10 -0.00170582 0)
(6.69063e-11 -0.00170582 0)
(6.31883e-10 -0.00170582 0)
(3.69021e-10 -0.00170582 0)
(-2.89061e-10 -0.00170582 0)
(-4.75416e-10 -0.00170582 0)
(6.59889e-11 -0.00170582 0)
(6.16678e-10 -0.00170582 0)
(3.60015e-10 -0.00170582 0)
(-2.83359e-10 -0.00170582 0)
(-4.66164e-10 -0.00170582 0)
(6.53886e-11 -0.00170582 0)
(6.06452e-10 -0.00170582 0)
(3.53915e-10 -0.00170582 0)
(-2.80535e-10 -0.00170582 0)
(-4.61612e-10 -0.00170582 0)
(6.50984e-11 -0.00170582 0)
(6.01428e-10 -0.00170582 0)
(3.50898e-10 -0.00170582 0)
)
;

boundaryField
{
    BotWall
    {
        type            fixedValue;
        value           uniform (0 0 0);
    }
    FreeStream
    {
        type            zeroGradient;
    }
    FrontNBack
    {
        type            empty;
    }
    LeftSide
    {
        type            symmetryPlane;
    }
    RightSide
    {
        type            symmetryPlane;
    }
}


// ************************************************************************* //
