/*--------------------------------*- C++ -*----------------------------------*\
| =========                 |                                                 |
| \\      /  F ield         | OpenFOAM: The Open Source CFD Toolbox           |
|  \\    /   O peration     | Version:  2.4.0                                 |
|   \\  /    A nd           | Web:      www.OpenFOAM.org                      |
|    \\/     M anipulation  |                                                 |
\*---------------------------------------------------------------------------*/
FoamFile
{
    version     2.0;
    format      ascii;
    class       volVectorField;
    location    "0.007";
    object      U;
}
// * * * * * * * * * * * * * * * * * * * * * * * * * * * * * * * * * * * * * //

dimensions      [0 1 -1 0 0 0 0];

internalField   nonuniform List<vector> 
125
(
(3.13095e-05 -0.0314029 0)
(3.09517e-05 -0.0314031 0)
(3.05934e-05 -0.0314033 0)
(3.02354e-05 -0.0314035 0)
(2.98785e-05 -0.0314037 0)
(2.95235e-05 -0.031404 0)
(2.91712e-05 -0.0314042 0)
(2.88222e-05 -0.0314044 0)
(2.8477e-05 -0.0314046 0)
(2.81361e-05 -0.0314048 0)
(2.77999e-05 -0.031405 0)
(2.74689e-05 -0.0314052 0)
(2.71433e-05 -0.0314054 0)
(2.68233e-05 -0.0314056 0)
(2.65093e-05 -0.0314058 0)
(2.62013e-05 -0.031406 0)
(2.58996e-05 -0.0314062 0)
(2.56041e-05 -0.0314064 0)
(2.53149e-05 -0.0314066 0)
(2.50321e-05 -0.0314068 0)
(2.47557e-05 -0.0314069 0)
(2.44856e-05 -0.0314071 0)
(2.42217e-05 -0.0314073 0)
(2.39641e-05 -0.0314075 0)
(2.37125e-05 -0.0314077 0)
(2.3467e-05 -0.0314079 0)
(2.32273e-05 -0.0314081 0)
(2.29933e-05 -0.0314082 0)
(2.27649e-05 -0.0314084 0)
(2.2542e-05 -0.0314086 0)
(2.23244e-05 -0.0314088 0)
(2.21118e-05 -0.0314089 0)
(2.19043e-05 -0.0314091 0)
(2.17015e-05 -0.0314093 0)
(2.15033e-05 -0.0314095 0)
(2.13096e-05 -0.0314096 0)
(2.11202e-05 -0.0314098 0)
(2.0935e-05 -0.03141 0)
(2.07537e-05 -0.0314102 0)
(2.05762e-05 -0.0314103 0)
(2.04024e-05 -0.0314105 0)
(2.02321e-05 -0.0314107 0)
(2.00652e-05 -0.0314108 0)
(1.99016e-05 -0.031411 0)
(1.9741e-05 -0.0314112 0)
(1.95834e-05 -0.0314113 0)
(1.94287e-05 -0.0314115 0)
(1.92768e-05 -0.0314117 0)
(1.91275e-05 -0.0314118 0)
(1.89807e-05 -0.031412 0)
(1.88364e-05 -0.0314121 0)
(1.86944e-05 -0.0314123 0)
(1.85547e-05 -0.0314125 0)
(1.84171e-05 -0.0314126 0)
(1.82817e-05 -0.0314128 0)
(1.81483e-05 -0.0314129 0)
(1.80168e-05 -0.0314131 0)
(1.78873e-05 -0.0314132 0)
(1.77596e-05 -0.0314134 0)
(1.76337e-05 -0.0314136 0)
(1.75095e-05 -0.0314137 0)
(1.7387e-05 -0.0314139 0)
(1.72661e-05 -0.031414 0)
(1.71468e-05 -0.0314142 0)
(1.70291e-05 -0.0314143 0)
(1.6913e-05 -0.0314145 0)
(1.67982e-05 -0.0314146 0)
(1.6685e-05 -0.0314148 0)
(1.65732e-05 -0.0314149 0)
(1.64627e-05 -0.0314151 0)
(1.63536e-05 -0.0314152 0)
(1.62459e-05 -0.0314154 0)
(1.61394e-05 -0.0314155 0)
(1.60343e-05 -0.0314157 0)
(1.59303e-05 -0.0314158 0)
(1.58277e-05 -0.031416 0)
(1.57262e-05 -0.0314161 0)
(1.56259e-05 -0.0314162 0)
(1.55268e-05 -0.0314164 0)
(1.54288e-05 -0.0314165 0)
(1.53319e-05 -0.0314167 0)
(1.52361e-05 -0.0314168 0)
(1.51414e-05 -0.031417 0)
(1.50478e-05 -0.0314171 0)
(1.49552e-05 -0.0314172 0)
(1.48636e-05 -0.0314174 0)
(1.4773e-05 -0.0314175 0)
(1.46833e-05 -0.0314177 0)
(1.45946e-05 -0.0314178 0)
(1.45069e-05 -0.0314179 0)
(1.442e-05 -0.0314181 0)
(1.4334e-05 -0.0314182 0)
(1.42489e-05 -0.0314183 0)
(1.41646e-05 -0.0314185 0)
(1.40812e-05 -0.0314186 0)
(1.39985e-05 -0.0314187 0)
(1.39166e-05 -0.0314189 0)
(1.38355e-05 -0.031419 0)
(1.37551e-05 -0.0314192 0)
(1.36754e-05 -0.0314193 0)
(1.35964e-05 -0.0314194 0)
(1.35181e-05 -0.0314195 0)
(1.34404e-05 -0.0314197 0)
(1.33634e-05 -0.0314198 0)
(1.32869e-05 -0.0314199 0)
(1.32111e-05 -0.0314201 0)
(1.31358e-05 -0.0314202 0)
(1.3061e-05 -0.0314203 0)
(1.29868e-05 -0.0314205 0)
(1.29131e-05 -0.0314206 0)
(1.28398e-05 -0.0314207 0)
(1.27671e-05 -0.0314208 0)
(1.26947e-05 -0.031421 0)
(1.26228e-05 -0.0314211 0)
(1.25514e-05 -0.0314212 0)
(1.24803e-05 -0.0314213 0)
(1.24096e-05 -0.0314215 0)
(1.23392e-05 -0.0314216 0)
(1.22692e-05 -0.0314217 0)
(1.21995e-05 -0.0314218 0)
(1.21302e-05 -0.031422 0)
(1.20611e-05 -0.0314221 0)
(1.19923e-05 -0.0314222 0)
(1.19238e-05 -0.0314223 0)
(1.18556e-05 -0.0314224 0)
)
;

boundaryField
{
    BotWall
    {
        type            fixedValue;
        value           nonuniform 0();
    }
    FreeStream
    {
        type            zeroGradient;
    }
    FrontNBack
    {
        type            empty;
    }
    LeftSide
    {
        type            symmetryPlane;
    }
    RightSide
    {
        type            symmetryPlane;
    }
    procBoundary1to0
    {
        type            processor;
        value           uniform (1.17876e-05 -0.0314226 0);
    }
    procBoundary1to2
    {
        type            processor;
        value           uniform (3.16655e-05 -0.0314027 0);
    }
    procBoundary1to3
    {
        type            processor;
        value           nonuniform List<vector> 
75
(
(2.97376e-05 -0.0314636 0)
(2.94929e-05 -0.0314634 0)
(2.92509e-05 -0.0314633 0)
(2.90115e-05 -0.0314631 0)
(2.87746e-05 -0.031463 0)
(2.85401e-05 -0.0314628 0)
(2.83081e-05 -0.0314627 0)
(2.80783e-05 -0.0314626 0)
(2.78507e-05 -0.0314624 0)
(2.76252e-05 -0.0314623 0)
(2.74018e-05 -0.0314622 0)
(2.71805e-05 -0.031462 0)
(2.69611e-05 -0.0314619 0)
(2.67436e-05 -0.0314617 0)
(2.65279e-05 -0.0314616 0)
(2.6314e-05 -0.0314615 0)
(2.61019e-05 -0.0314614 0)
(2.58915e-05 -0.0314612 0)
(2.56828e-05 -0.0314611 0)
(2.54757e-05 -0.031461 0)
(2.52701e-05 -0.0314608 0)
(2.50662e-05 -0.0314607 0)
(2.48638e-05 -0.0314606 0)
(2.46628e-05 -0.0314605 0)
(2.44633e-05 -0.0314603 0)
(2.42652e-05 -0.0314602 0)
(2.40686e-05 -0.0314601 0)
(2.38733e-05 -0.03146 0)
(2.36793e-05 -0.0314598 0)
(2.34866e-05 -0.0314597 0)
(2.32953e-05 -0.0314596 0)
(2.31051e-05 -0.0314595 0)
(2.29163e-05 -0.0314594 0)
(2.27286e-05 -0.0314592 0)
(2.25421e-05 -0.0314591 0)
(2.23568e-05 -0.031459 0)
(2.21726e-05 -0.0314589 0)
(2.19896e-05 -0.0314588 0)
(2.18076e-05 -0.0314586 0)
(2.16267e-05 -0.0314585 0)
(2.14468e-05 -0.0314584 0)
(2.1268e-05 -0.0314583 0)
(2.10902e-05 -0.0314582 0)
(2.09134e-05 -0.0314581 0)
(2.07375e-05 -0.031458 0)
(2.05626e-05 -0.0314579 0)
(2.03886e-05 -0.0314578 0)
(2.02155e-05 -0.0314576 0)
(2.00433e-05 -0.0314575 0)
(1.9872e-05 -0.0314574 0)
(1.97015e-05 -0.0314573 0)
(1.95319e-05 -0.0314572 0)
(1.93631e-05 -0.0314571 0)
(1.9195e-05 -0.031457 0)
(1.90278e-05 -0.0314569 0)
(1.88613e-05 -0.0314568 0)
(1.86956e-05 -0.0314567 0)
(1.85307e-05 -0.0314566 0)
(1.83664e-05 -0.0314565 0)
(1.82029e-05 -0.0314564 0)
(1.804e-05 -0.0314563 0)
(1.78779e-05 -0.0314562 0)
(1.77164e-05 -0.0314561 0)
(1.75556e-05 -0.031456 0)
(1.73954e-05 -0.0314559 0)
(1.72359e-05 -0.0314558 0)
(1.7077e-05 -0.0314557 0)
(1.69187e-05 -0.0314556 0)
(1.6761e-05 -0.0314555 0)
(1.6604e-05 -0.0314554 0)
(1.64475e-05 -0.0314553 0)
(1.62916e-05 -0.0314552 0)
(1.61363e-05 -0.0314551 0)
(1.59816e-05 -0.031455 0)
(1.58274e-05 -0.0314549 0)
)
;
    }
    procBoundary1to4
    {
        type            processor;
        value           nonuniform List<vector> 
50
(
(4.79747e-05 -0.0314722 0)
(4.75114e-05 -0.031472 0)
(4.70443e-05 -0.0314718 0)
(4.65746e-05 -0.0314716 0)
(4.61037e-05 -0.0314714 0)
(4.56325e-05 -0.0314712 0)
(4.51622e-05 -0.031471 0)
(4.46936e-05 -0.0314708 0)
(4.42275e-05 -0.0314706 0)
(4.37647e-05 -0.0314704 0)
(4.33058e-05 -0.0314702 0)
(4.28514e-05 -0.03147 0)
(4.2402e-05 -0.0314698 0)
(4.1958e-05 -0.0314696 0)
(4.15198e-05 -0.0314694 0)
(4.10876e-05 -0.0314692 0)
(4.06617e-05 -0.0314691 0)
(4.02424e-05 -0.0314689 0)
(3.98297e-05 -0.0314687 0)
(3.94237e-05 -0.0314685 0)
(3.90246e-05 -0.0314683 0)
(3.86323e-05 -0.0314682 0)
(3.82469e-05 -0.031468 0)
(3.78683e-05 -0.0314678 0)
(3.74964e-05 -0.0314676 0)
(3.71312e-05 -0.0314675 0)
(3.67726e-05 -0.0314673 0)
(3.64204e-05 -0.0314671 0)
(3.60746e-05 -0.031467 0)
(3.57349e-05 -0.0314668 0)
(3.54013e-05 -0.0314666 0)
(3.50736e-05 -0.0314665 0)
(3.47515e-05 -0.0314663 0)
(3.4435e-05 -0.0314662 0)
(3.41239e-05 -0.031466 0)
(3.38179e-05 -0.0314658 0)
(3.35169e-05 -0.0314657 0)
(3.32208e-05 -0.0314655 0)
(3.29294e-05 -0.0314654 0)
(3.26424e-05 -0.0314652 0)
(3.23597e-05 -0.0314651 0)
(3.20813e-05 -0.0314649 0)
(3.18068e-05 -0.0314647 0)
(3.15361e-05 -0.0314646 0)
(3.12692e-05 -0.0314644 0)
(3.10058e-05 -0.0314643 0)
(3.07458e-05 -0.0314641 0)
(3.04892e-05 -0.031464 0)
(3.02356e-05 -0.0314638 0)
(2.99852e-05 -0.0314637 0)
)
;
    }
}


// ************************************************************************* //
