/*--------------------------------*- C++ -*----------------------------------*\
| =========                 |                                                 |
| \\      /  F ield         | OpenFOAM: The Open Source CFD Toolbox           |
|  \\    /   O peration     | Version:  2.4.0                                 |
|   \\  /    A nd           | Web:      www.OpenFOAM.org                      |
|    \\/     M anipulation  |                                                 |
\*---------------------------------------------------------------------------*/
FoamFile
{
    version     2.0;
    format      ascii;
    class       volScalarField;
    location    "2.2";
    object      H;
}
// * * * * * * * * * * * * * * * * * * * * * * * * * * * * * * * * * * * * * //

dimensions      [0 2 -2 0 0 0 0];

internalField   nonuniform List<scalar> 
125
(
-6.61924
-6.61886
-6.61855
-6.61878
-6.61925
-6.38317
-6.38281
-6.38252
-6.38273
-6.38318
-6.14223
-6.14188
-6.14161
-6.14181
-6.14223
-5.89659
-5.89626
-5.896
-5.89619
-5.89659
-5.64644
-5.64613
-5.64588
-5.64606
-5.64644
-5.392
-5.3917
-5.39147
-5.39164
-5.392
-5.13348
-5.13321
-5.13298
-5.13315
-5.13348
-4.87114
-4.87088
-4.87067
-4.87082
-4.87114
-4.60522
-4.60498
-4.60478
-4.60493
-4.60522
-4.33601
-4.33578
-4.3356
-4.33573
-4.33601
-4.06379
-4.06357
-4.06341
-4.06353
-4.06378
-3.78886
-3.78867
-3.78851
-3.78863
-3.78886
-3.51156
-3.51138
-3.51124
-3.51135
-3.51156
-3.23223
-3.23206
-3.23193
-3.23203
-3.23223
-2.95122
-2.95107
-2.95095
-2.95104
-2.95121
-2.6689
-2.66876
-2.66866
-2.66873
-2.66889
-2.38566
-2.38554
-2.38545
-2.38552
-2.38566
-2.10191
-2.1018
-2.10172
-2.10178
-2.10191
-1.81807
-1.81798
-1.8179
-1.81796
-1.81806
-1.53456
-1.53449
-1.53443
-1.53447
-1.53456
-1.25185
-1.25179
-1.25174
-1.25177
-1.25185
-0.970384
-0.970337
-0.970299
-0.970327
-0.970383
-0.690644
-0.69061
-0.690584
-0.690603
-0.690643
-0.413114
-0.413093
-0.413078
-0.413089
-0.413113
-0.138289
-0.138282
-0.138277
-0.138281
-0.138289
)
;

boundaryField
{
    BotWall
    {
        type            zeroGradient;
    }
    FreeStream
    {
        type            zeroGradient;
    }
    FrontNBack
    {
        type            empty;
    }
    LeftSide
    {
        type            symmetryPlane;
    }
    RightSide
    {
        type            symmetryPlane;
    }
    procBoundary3to2
    {
        type            processor;
        value           nonuniform List<scalar> 5(-6.84979 -6.84939 -6.84907 -6.8493 -6.84979);
    }
}


// ************************************************************************* //
