/*--------------------------------*- C++ -*----------------------------------*\
| =========                 |                                                 |
| \\      /  F ield         | OpenFOAM: The Open Source CFD Toolbox           |
|  \\    /   O peration     | Version:  2.4.0                                 |
|   \\  /    A nd           | Web:      www.OpenFOAM.org                      |
|    \\/     M anipulation  |                                                 |
\*---------------------------------------------------------------------------*/
FoamFile
{
    version     2.0;
    format      ascii;
    class       volScalarField;
    location    "2.2";
    object      p;
}
// * * * * * * * * * * * * * * * * * * * * * * * * * * * * * * * * * * * * * //

dimensions      [1 -1 -2 0 0 0 0];

internalField   nonuniform List<scalar> 
125
(
-0.0577076
-0.0577076
-0.0577076
-0.0577076
-0.0577076
-0.0588423
-0.0588423
-0.0588423
-0.0588423
-0.0588423
-0.0599898
-0.0599898
-0.0599898
-0.0599898
-0.0599898
-0.06115
-0.06115
-0.06115
-0.06115
-0.06115
-0.0623232
-0.0623232
-0.0623232
-0.0623232
-0.0623232
-0.0635095
-0.0635095
-0.0635095
-0.0635095
-0.0635095
-0.064709
-0.064709
-0.064709
-0.064709
-0.064709
-0.0659219
-0.0659219
-0.0659219
-0.0659219
-0.0659219
-0.0671484
-0.0671484
-0.0671484
-0.0671484
-0.0671484
-0.0683885
-0.0683885
-0.0683885
-0.0683885
-0.0683885
-0.0696425
-0.0696425
-0.0696425
-0.0696425
-0.0696425
-0.0709104
-0.0709104
-0.0709104
-0.0709104
-0.0709104
-0.0721925
-0.0721925
-0.0721925
-0.0721925
-0.0721925
-0.073489
-0.073489
-0.073489
-0.073489
-0.073489
-0.0747998
-0.0747998
-0.0747998
-0.0747998
-0.0747998
-0.0761254
-0.0761254
-0.0761254
-0.0761254
-0.0761254
-0.0774657
-0.0774657
-0.0774657
-0.0774657
-0.0774657
-0.0788209
-0.0788209
-0.0788209
-0.0788209
-0.0788209
-0.0801913
-0.0801913
-0.0801913
-0.0801913
-0.0801913
-0.081577
-0.081577
-0.081577
-0.081577
-0.081577
-0.0829781
-0.0829781
-0.0829781
-0.0829781
-0.0829781
-0.0843949
-0.0843949
-0.0843949
-0.0843949
-0.0843949
-0.0858275
-0.0858275
-0.0858275
-0.0858275
-0.0858275
-0.087276
-0.087276
-0.087276
-0.087276
-0.087276
-0.0887407
-0.0887407
-0.0887407
-0.0887407
-0.0887407
)
;

boundaryField
{
    BotWall
    {
        type            calculated;
        value           nonuniform 0();
    }
    FreeStream
    {
        type            calculated;
        value           nonuniform List<scalar> 5(-0.0894772 -0.0894772 -0.0894772 -0.0894772 -0.0894772);
    }
    FrontNBack
    {
        type            empty;
    }
    LeftSide
    {
        type            symmetryPlane;
    }
    RightSide
    {
        type            symmetryPlane;
    }
    procBoundary3to2
    {
        type            processor;
        value           nonuniform List<scalar> 5(-0.0565853 -0.0565853 -0.0565853 -0.0565853 -0.0565853);
    }
}


// ************************************************************************* //
