/*--------------------------------*- C++ -*----------------------------------*\
| =========                 |                                                 |
| \\      /  F ield         | OpenFOAM: The Open Source CFD Toolbox           |
|  \\    /   O peration     | Version:  2.4.0                                 |
|   \\  /    A nd           | Web:      www.OpenFOAM.org                      |
|    \\/     M anipulation  |                                                 |
\*---------------------------------------------------------------------------*/
FoamFile
{
    version     2.0;
    format      ascii;
    class       volVectorField;
    location    "2.2";
    object      U;
}
// * * * * * * * * * * * * * * * * * * * * * * * * * * * * * * * * * * * * * //

dimensions      [0 1 -1 0 0 0 0];

internalField   nonuniform List<vector> 
125
(
(-9.98257e-10 -0.00147911 0)
(-1.77772e-09 -0.0014791 0)
(4.76571e-11 -0.00147909 0)
(2.20999e-09 -0.0014791 0)
(1.41144e-09 -0.00147911 0)
(-1.02925e-09 -0.00147911 0)
(-1.843e-09 -0.0014791 0)
(3.72289e-11 -0.00147909 0)
(2.27612e-09 -0.0014791 0)
(1.4499e-09 -0.00147911 0)
(-1.05513e-09 -0.00147911 0)
(-1.89821e-09 -0.0014791 0)
(2.82489e-11 -0.00147909 0)
(2.3317e-09 -0.0014791 0)
(1.48155e-09 -0.00147911 0)
(-1.0762e-09 -0.00147911 0)
(-1.94396e-09 -0.0014791 0)
(2.06255e-11 -0.00147909 0)
(2.37737e-09 -0.0014791 0)
(1.50683e-09 -0.00147911 0)
(-1.09278e-09 -0.00147911 0)
(-1.98084e-09 -0.0014791 0)
(1.42686e-11 -0.00147909 0)
(2.41377e-09 -0.0014791 0)
(1.52618e-09 -0.00147911 0)
(-1.10516e-09 -0.00147911 0)
(-2.00946e-09 -0.0014791 0)
(9.08948e-12 -0.0014791 0)
(2.44155e-09 -0.0014791 0)
(1.54001e-09 -0.00147911 0)
(-1.11368e-09 -0.00147911 0)
(-2.03043e-09 -0.0014791 0)
(5.00084e-12 -0.0014791 0)
(2.46133e-09 -0.0014791 0)
(1.54877e-09 -0.00147911 0)
(-1.11863e-09 -0.00147911 0)
(-2.04434e-09 -0.0014791 0)
(1.91645e-12 -0.0014791 0)
(2.47378e-09 -0.0014791 0)
(1.55288e-09 -0.00147911 0)
(-1.12033e-09 -0.00147911 0)
(-2.05182e-09 -0.0014791 0)
(-2.4892e-13 -0.0014791 0)
(2.47953e-09 -0.0014791 0)
(1.55278e-09 -0.00147911 0)
(-1.11912e-09 -0.00147911 0)
(-2.05349e-09 -0.0014791 0)
(-1.57967e-12 -0.0014791 0)
(2.47925e-09 -0.0014791 0)
(1.54889e-09 -0.00147911 0)
(-1.11531e-09 -0.00147911 0)
(-2.04996e-09 -0.0014791 0)
(-2.15962e-12 -0.0014791 0)
(2.47358e-09 -0.0014791 0)
(1.54166e-09 -0.00147911 0)
(-1.10922e-09 -0.00147911 0)
(-2.04187e-09 -0.0014791 0)
(-2.07222e-12 -0.0014791 0)
(2.46319e-09 -0.0014791 0)
(1.53151e-09 -0.00147911 0)
(-1.1012e-09 -0.00147911 0)
(-2.02985e-09 -0.0014791 0)
(-1.40085e-12 -0.0014791 0)
(2.44876e-09 -0.0014791 0)
(1.51889e-09 -0.00147911 0)
(-1.09158e-09 -0.00147911 0)
(-2.01454e-09 -0.0014791 0)
(-2.29098e-13 -0.0014791 0)
(2.43097e-09 -0.0014791 0)
(1.50425e-09 -0.00147911 0)
(-1.0807e-09 -0.00147911 0)
(-1.99661e-09 -0.0014791 0)
(1.35891e-12 -0.0014791 0)
(2.4105e-09 -0.0014791 0)
(1.48805e-09 -0.00147911 0)
(-1.06891e-09 -0.00147911 0)
(-1.97671e-09 -0.0014791 0)
(3.2781e-12 -0.0014791 0)
(2.38805e-09 -0.0014791 0)
(1.47074e-09 -0.00147911 0)
(-1.05657e-09 -0.00147911 0)
(-1.95553e-09 -0.0014791 0)
(5.44204e-12 -0.0014791 0)
(2.36434e-09 -0.0014791 0)
(1.45279e-09 -0.00147911 0)
(-1.04404e-09 -0.0014791 0)
(-1.93374e-09 -0.0014791 0)
(7.76249e-12 -0.0014791 0)
(2.34011e-09 -0.0014791 0)
(1.43471e-09 -0.00147911 0)
(-1.03169e-09 -0.0014791 0)
(-1.91206e-09 -0.0014791 0)
(1.01488e-11 -0.0014791 0)
(2.3161e-09 -0.0014791 0)
(1.41697e-09 -0.00147911 0)
(-1.0199e-09 -0.0014791 0)
(-1.8912e-09 -0.0014791 0)
(1.25076e-11 -0.0014791 0)
(2.29308e-09 -0.0014791 0)
(1.40011e-09 -0.00147911 0)
(-1.00907e-09 -0.0014791 0)
(-1.87191e-09 -0.0014791 0)
(1.47418e-11 -0.0014791 0)
(2.27183e-09 -0.0014791 0)
(1.38463e-09 -0.00147911 0)
(-9.99586e-10 -0.0014791 0)
(-1.85494e-09 -0.0014791 0)
(1.67502e-11 -0.0014791 0)
(2.25317e-09 -0.0014791 0)
(1.37111e-09 -0.00147911 0)
(-9.91904e-10 -0.0014791 0)
(-1.84113e-09 -0.0014791 0)
(1.84239e-11 -0.0014791 0)
(2.23801e-09 -0.0014791 0)
(1.36015e-09 -0.00147911 0)
(-9.86543e-10 -0.0014791 0)
(-1.83145e-09 -0.0014791 0)
(1.96426e-11 -0.0014791 0)
(2.2274e-09 -0.0014791 0)
(1.35247e-09 -0.0014791 0)
(-9.83992e-10 -0.0014791 0)
(-1.82682e-09 -0.0014791 0)
(2.02837e-11 -0.0014791 0)
(2.22234e-09 -0.0014791 0)
(1.34876e-09 -0.0014791 0)
)
;

boundaryField
{
    BotWall
    {
        type            fixedValue;
        value           nonuniform 0();
    }
    FreeStream
    {
        type            zeroGradient;
    }
    FrontNBack
    {
        type            empty;
    }
    LeftSide
    {
        type            symmetryPlane;
    }
    RightSide
    {
        type            symmetryPlane;
    }
    procBoundary3to2
    {
        type            processor;
        value           nonuniform List<vector> 5((-9.61853e-10 -0.00147911 0) (-1.7018e-09 -0.0014791 0) (5.96265e-11 -0.00147909 0) (2.13268e-09 -0.0014791 0) (1.36574e-09 -0.00147911 0));
    }
}


// ************************************************************************* //
