/*--------------------------------*- C++ -*----------------------------------*\
| =========                 |                                                 |
| \\      /  F ield         | OpenFOAM: The Open Source CFD Toolbox           |
|  \\    /   O peration     | Version:  2.4.0                                 |
|   \\  /    A nd           | Web:      www.OpenFOAM.org                      |
|    \\/     M anipulation  |                                                 |
\*---------------------------------------------------------------------------*/
FoamFile
{
    version     2.0;
    format      ascii;
    class       surfaceScalarField;
    location    "0.6";
    object      phi;
}
// * * * * * * * * * * * * * * * * * * * * * * * * * * * * * * * * * * * * * //

dimensions      [0 3 -1 0 0 0 0];

internalField   nonuniform List<scalar> 
220
(
5.72154e-17
-4.84205e-10
1.07666e-17
-4.84207e-10
-6.19251e-17
-4.84205e-10
-1.02245e-16
-4.84209e-10
-4.84208e-10
5.49145e-17
-4.84205e-10
9.6049e-18
-4.84207e-10
-5.9927e-17
-4.84205e-10
-9.8114e-17
-4.84209e-10
-4.84208e-10
5.24805e-17
-4.84205e-10
8.38026e-18
-4.84207e-10
-5.79416e-17
-4.84205e-10
-9.39356e-17
-4.84209e-10
-4.84208e-10
4.99123e-17
-4.84205e-10
7.08837e-18
-4.84207e-10
-5.59661e-17
-4.84205e-10
-8.96943e-17
-4.84209e-10
-4.84208e-10
4.72119e-17
-4.84205e-10
5.72658e-18
-4.84207e-10
-5.40008e-17
-4.84205e-10
-8.5393e-17
-4.84209e-10
-4.84208e-10
4.43846e-17
-4.84205e-10
4.29422e-18
-4.84207e-10
-5.20474e-17
-4.84205e-10
-8.1035e-17
-4.84209e-10
-4.84209e-10
4.14405e-17
-4.84205e-10
2.79307e-18
-4.84207e-10
-5.01086e-17
-4.84205e-10
-7.66279e-17
-4.84209e-10
-4.84209e-10
3.83946e-17
-4.84205e-10
1.22787e-18
-4.84207e-10
-4.81889e-17
-4.84205e-10
-7.21846e-17
-4.84209e-10
-4.84209e-10
3.52682e-17
-4.84205e-10
-3.93219e-19
-4.84207e-10
-4.62948e-17
-4.84205e-10
-6.77248e-17
-4.84209e-10
-4.84209e-10
3.20888e-17
-4.84205e-10
-2.05824e-18
-4.84207e-10
-4.44348e-17
-4.84205e-10
-6.32761e-17
-4.84209e-10
-4.84209e-10
2.88908e-17
-4.84205e-10
-3.75123e-18
-4.84206e-10
-4.26199e-17
-4.84205e-10
-5.88747e-17
-4.84209e-10
-4.84209e-10
2.57154e-17
-4.84205e-10
-5.45214e-18
-4.84206e-10
-4.08632e-17
-4.84205e-10
-5.45656e-17
-4.84209e-10
-4.84209e-10
2.26103e-17
-4.84205e-10
-7.13706e-18
-4.84206e-10
-3.918e-17
-4.84205e-10
-5.04026e-17
-4.84209e-10
-4.84209e-10
1.96281e-17
-4.84205e-10
-8.77885e-18
-4.84206e-10
-3.75874e-17
-4.84205e-10
-4.64463e-17
-4.84209e-10
-4.84209e-10
1.68248e-17
-4.84205e-10
-1.03481e-17
-4.84206e-10
-3.61036e-17
-4.84204e-10
-4.27627e-17
-4.84209e-10
-4.84209e-10
1.42571e-17
-4.84205e-10
-1.18148e-17
-4.84206e-10
-3.47474e-17
-4.84204e-10
-3.94192e-17
-4.84209e-10
-4.84209e-10
1.19792e-17
-4.84205e-10
-1.31499e-17
-4.84206e-10
-3.35368e-17
-4.84204e-10
-3.64809e-17
-4.84209e-10
-4.84209e-10
1.0038e-17
-4.84205e-10
-1.43283e-17
-4.84206e-10
-3.24881e-17
-4.84204e-10
-3.4005e-17
-4.84209e-10
-4.84209e-10
8.46927e-18
-4.84205e-10
-1.53311e-17
-4.84206e-10
-3.16142e-17
-4.84204e-10
-3.20347e-17
-4.84209e-10
-4.84209e-10
7.29207e-18
-4.84205e-10
-1.61486e-17
-4.84206e-10
-3.09239e-17
-4.84204e-10
-3.0593e-17
-4.84209e-10
-4.84209e-10
6.50412e-18
-4.84205e-10
-1.67835e-17
-4.84206e-10
-3.04196e-17
-4.84204e-10
-2.96766e-17
-4.84209e-10
-4.84209e-10
6.07744e-18
-4.84205e-10
-1.72527e-17
-4.84206e-10
-3.00972e-17
-4.84204e-10
-2.92503e-17
-4.84209e-10
-4.84209e-10
5.95603e-18
-4.84205e-10
-1.75896e-17
-4.84206e-10
-2.99453e-17
-4.84204e-10
-2.92439e-17
-4.84209e-10
-4.84209e-10
6.05798e-18
-4.84205e-10
-1.78464e-17
-4.84206e-10
-2.99447e-17
-4.84204e-10
-2.95547e-17
-4.84209e-10
-4.84209e-10
6.25315e-18
-1.81212e-17
-3.00356e-17
-3.00119e-17
)
;

boundaryField
{
    BotWall
    {
        type            calculated;
        value           nonuniform 0();
    }
    FreeStream
    {
        type            calculated;
        value           nonuniform List<scalar> 5(-4.84205e-10 -4.84206e-10 -4.84204e-10 -4.84209e-10 -4.84209e-10);
    }
    FrontNBack
    {
        type            empty;
        value           nonuniform 0();
    }
    LeftSide
    {
        type            symmetryPlane;
        value           uniform 0;
    }
    RightSide
    {
        type            symmetryPlane;
        value           uniform 0;
    }
    procBoundary3to2
    {
        type            processor;
        value           nonuniform List<scalar> 5(4.84205e-10 4.84207e-10 4.84205e-10 4.84209e-10 4.84208e-10);
    }
}


// ************************************************************************* //
