/*--------------------------------*- C++ -*----------------------------------*\
| =========                 |                                                 |
| \\      /  F ield         | OpenFOAM: The Open Source CFD Toolbox           |
|  \\    /   O peration     | Version:  2.4.0                                 |
|   \\  /    A nd           | Web:      www.OpenFOAM.org                      |
|    \\/     M anipulation  |                                                 |
\*---------------------------------------------------------------------------*/
FoamFile
{
    version     2.0;
    format      ascii;
    class       volScalarField;
    location    "3.7";
    object      p_rgh;
}
// * * * * * * * * * * * * * * * * * * * * * * * * * * * * * * * * * * * * * //

dimensions      [1 -1 -2 0 0 0 0];

internalField   nonuniform List<scalar> 
125
(
-5.73217e-06
-5.73041e-06
-5.72881e-06
-5.72984e-06
-5.73247e-06
-5.72158e-06
-5.7199e-06
-5.71837e-06
-5.71935e-06
-5.72184e-06
-5.71087e-06
-5.70927e-06
-5.70781e-06
-5.70874e-06
-5.71111e-06
-5.70005e-06
-5.69853e-06
-5.69713e-06
-5.69802e-06
-5.70027e-06
-5.68912e-06
-5.68767e-06
-5.68634e-06
-5.68718e-06
-5.68932e-06
-5.67806e-06
-5.67669e-06
-5.67543e-06
-5.67622e-06
-5.67824e-06
-5.66688e-06
-5.66559e-06
-5.66439e-06
-5.66514e-06
-5.66705e-06
-5.65558e-06
-5.65436e-06
-5.65324e-06
-5.65393e-06
-5.65574e-06
-5.64416e-06
-5.64301e-06
-5.64196e-06
-5.64261e-06
-5.6443e-06
-5.63261e-06
-5.63154e-06
-5.63055e-06
-5.63115e-06
-5.63274e-06
-5.62093e-06
-5.61994e-06
-5.61902e-06
-5.61957e-06
-5.62105e-06
-5.60913e-06
-5.60821e-06
-5.60735e-06
-5.60787e-06
-5.60923e-06
-5.5972e-06
-5.59635e-06
-5.59556e-06
-5.59603e-06
-5.59728e-06
-5.58514e-06
-5.58437e-06
-5.58364e-06
-5.58407e-06
-5.58521e-06
-5.57294e-06
-5.57225e-06
-5.57159e-06
-5.57197e-06
-5.573e-06
-5.56062e-06
-5.55999e-06
-5.5594e-06
-5.55974e-06
-5.56065e-06
-5.54815e-06
-5.5476e-06
-5.54708e-06
-5.54737e-06
-5.54817e-06
-5.53555e-06
-5.53507e-06
-5.53462e-06
-5.53487e-06
-5.53556e-06
-5.52282e-06
-5.52241e-06
-5.52202e-06
-5.52222e-06
-5.5228e-06
-5.50994e-06
-5.5096e-06
-5.50929e-06
-5.50944e-06
-5.50991e-06
-5.49692e-06
-5.49666e-06
-5.49641e-06
-5.49652e-06
-5.49687e-06
-5.48375e-06
-5.48357e-06
-5.48339e-06
-5.48346e-06
-5.48368e-06
-5.47043e-06
-5.47034e-06
-5.47024e-06
-5.47025e-06
-5.47034e-06
-5.45698e-06
-5.45696e-06
-5.45693e-06
-5.4569e-06
-5.45687e-06
-5.44347e-06
-5.4434e-06
-5.44333e-06
-5.44334e-06
-5.4434e-06
)
;

boundaryField
{
    BotWall
    {
        type            fixedFluxPressure;
        gradient        nonuniform 0();
        value           nonuniform 0();
    }
    FreeStream
    {
        type            totalPressure;
        rho             rho;
        psi             none;
        gamma           1;
        p0              uniform 0;
        value           nonuniform List<scalar> 5(-5.43674e-06 -5.43657e-06 -5.4364e-06 -5.43649e-06 -5.43672e-06);
    }
    FrontNBack
    {
        type            empty;
    }
    LeftSide
    {
        type            symmetryPlane;
    }
    RightSide
    {
        type            symmetryPlane;
    }
    procBoundary3to2
    {
        type            processor;
        value           nonuniform List<scalar> 5(-5.74265e-06 -5.74081e-06 -5.73914e-06 -5.74022e-06 -5.74299e-06);
    }
}


// ************************************************************************* //
