/*--------------------------------*- C++ -*----------------------------------*\
| =========                 |                                                 |
| \\      /  F ield         | OpenFOAM: The Open Source CFD Toolbox           |
|  \\    /   O peration     | Version:  2.4.0                                 |
|   \\  /    A nd           | Web:      www.OpenFOAM.org                      |
|    \\/     M anipulation  |                                                 |
\*---------------------------------------------------------------------------*/
FoamFile
{
    version     2.0;
    format      ascii;
    class       volScalarField;
    location    "0.012";
    object      alpha1;
}
// * * * * * * * * * * * * * * * * * * * * * * * * * * * * * * * * * * * * * //

dimensions      [0 0 0 0 0 0 0];

internalField   nonuniform List<scalar> 
125
(
1
1
1
0.882561
1.49271e-126
9.96422e-133
6.54151e-139
4.25368e-145
2.55659e-151
1.32318e-157
5.866e-164
2.28825e-170
7.40672e-177
1.98749e-183
4.47767e-190
8.95707e-197
1.83023e-203
4.37626e-210
1.12667e-216
2.56617e-223
4.49243e-230
5.36875e-237
3.60567e-244
7.65082e-252
0
0
0
0
0
0
0
0
0
0
0
0
0
0
0
0
0
0
0
0
0
0
0
0
0
0
0
0
0
0
0
0
0
0
0
0
0
0
0
0
0
0
0
0
0
0
0
0
0
0
0
0
0
0
0
0
0
0
0
0
0
0
0
0
0
0
0
0
0
0
0
0
0
0
0
0
0
0
0
0
0
0
0
0
0
0
0
0
0
0
0
0
0
0
0
0
0
0
0
0
0
)
;

boundaryField
{
    BotWall
    {
        type            fixedValue;
        value           uniform 1;
    }
    FreeStream
    {
        type            inletOutlet;
        inletValue      uniform 0;
        value           uniform 0;
    }
    FrontNBack
    {
        type            empty;
    }
    LeftSide
    {
        type            symmetryPlane;
    }
    RightSide
    {
        type            symmetryPlane;
    }
    procBoundary9to6
    {
        type            processor;
        value           uniform 0;
    }
    procBoundary9to7
    {
        type            processor;
        value           nonuniform List<scalar> 
75
(
1
1
1
0.892738
1.93023e-128
2.41702e-134
3.59269e-140
5.38923e-146
7.39756e-152
8.98742e-158
9.54443e-164
8.84896e-170
7.13811e-176
4.99749e-182
3.02504e-188
1.57131e-194
6.92618e-201
2.54889e-207
7.64203e-214
1.80257e-220
3.16899e-227
3.7838e-234
2.53876e-241
5.38339e-249
0
0
0
0
0
0
0
0
0
0
0
0
0
0
0
0
0
0
0
0
0
0
0
0
0
0
0
0
0
0
0
0
0
0
0
0
0
0
0
0
0
0
0
0
0
0
0
0
0
0
0
)
;
    }
    procBoundary9to8
    {
        type            processor;
        value           uniform 0;
    }
    procBoundary9to10
    {
        type            processor;
        value           uniform 0;
    }
    procBoundary9to11
    {
        type            processor;
        value           nonuniform List<scalar> 
75
(
1
1
1
0.887122
2.02253e-129
1.3078e-135
8.46981e-142
5.45014e-148
3.23823e-154
1.65472e-160
7.23971e-167
2.78318e-173
8.84681e-180
2.30749e-186
4.8915e-193
8.37675e-200
1.18326e-206
1.5498e-213
2.38112e-220
4.35993e-227
7.1835e-234
8.40991e-241
5.58232e-248
1.17699e-255
0
0
0
0
0
0
0
0
0
0
0
0
0
0
0
0
0
0
0
0
0
0
0
0
0
0
0
0
0
0
0
0
0
0
0
0
0
0
0
0
0
0
0
0
0
0
0
0
0
0
0
)
;
    }
}


// ************************************************************************* //
