/*--------------------------------*- C++ -*----------------------------------*\
| =========                 |                                                 |
| \\      /  F ield         | OpenFOAM: The Open Source CFD Toolbox           |
|  \\    /   O peration     | Version:  2.4.0                                 |
|   \\  /    A nd           | Web:      www.OpenFOAM.org                      |
|    \\/     M anipulation  |                                                 |
\*---------------------------------------------------------------------------*/
FoamFile
{
    version     2.0;
    format      ascii;
    class       volScalarField;
    location    "0.012";
    object      p;
}
// * * * * * * * * * * * * * * * * * * * * * * * * * * * * * * * * * * * * * //

dimensions      [1 -1 -2 0 0 0 0];

internalField   nonuniform List<scalar> 
125
(
0.0604656
-0.0574414
0.312344
-1.7863
-0.200347
0.0513584
0.0173721
-0.00651144
-0.0111421
-0.0100717
-0.00933799
-0.00933825
-0.00954703
-0.00974237
-0.00991012
-0.0100706
-0.0102324
-0.0103958
-0.0105601
-0.0107249
-0.0108904
-0.0110564
-0.0112231
-0.0113903
-0.0115582
-0.0117267
-0.0118958
-0.0120656
-0.0122359
-0.0124069
-0.0125786
-0.0127508
-0.0129237
-0.0130972
-0.0132714
-0.0134462
-0.0136216
-0.0137977
-0.0139745
-0.0141519
-0.0143299
-0.0145086
-0.014688
-0.014868
-0.0150487
-0.01523
-0.015412
-0.0155947
-0.0157781
-0.0159621
-0.0161468
-0.0163322
-0.0165183
-0.016705
-0.0168925
-0.0170806
-0.0172694
-0.0174589
-0.0176492
-0.0178401
-0.0180317
-0.018224
-0.0184171
-0.0186108
-0.0188053
-0.0190004
-0.0191963
-0.0193929
-0.0195903
-0.0197883
-0.0199871
-0.0201866
-0.0203869
-0.0205879
-0.0207896
-0.070797
-0.0711836
-0.0715715
-0.0719609
-0.0723518
-0.072744
-0.0731377
-0.0735329
-0.0739295
-0.0743276
-0.0747271
-0.0751281
-0.0755306
-0.0759346
-0.0763401
-0.076747
-0.0771555
-0.0775654
-0.0779769
-0.0783899
-0.0788043
-0.0792204
-0.0796379
-0.080057
-0.0804776
-0.0808998
-0.0813236
-0.0817489
-0.0821757
-0.0826042
-0.0830342
-0.0834658
-0.0838989
-0.0843337
-0.0847701
-0.0852081
-0.0856477
-0.0860889
-0.0865317
-0.0869762
-0.0874223
-0.08787
-0.0883194
-0.0887705
-0.0892232
-0.0896776
-0.0901336
-0.0905914
-0.0910508
-0.0915117
)
;

boundaryField
{
    BotWall
    {
        type            calculated;
        value           uniform 0.065409;
    }
    FreeStream
    {
        type            calculated;
        value           uniform -0.0917426;
    }
    FrontNBack
    {
        type            empty;
    }
    LeftSide
    {
        type            symmetryPlane;
    }
    RightSide
    {
        type            symmetryPlane;
    }
    procBoundary9to6
    {
        type            processor;
        value           nonuniform List<scalar> 
50
(
-0.0117316
-0.0119007
-0.0120704
-0.0122407
-0.0124117
-0.0125832
-0.0127554
-0.0129283
-0.0131018
-0.0132759
-0.0134506
-0.013626
-0.0138021
-0.0139788
-0.0141561
-0.0143341
-0.0145128
-0.0146921
-0.0148721
-0.0150527
-0.015234
-0.015416
-0.0155986
-0.0157819
-0.0159659
-0.0161506
-0.016336
-0.016522
-0.0167087
-0.0168961
-0.0170842
-0.017273
-0.0174625
-0.0176526
-0.0178435
-0.0180351
-0.0182274
-0.0184204
-0.0186141
-0.0188085
-0.0190036
-0.0191995
-0.0193961
-0.0195934
-0.0197914
-0.0199902
-0.0201896
-0.0203899
-0.0205908
-0.0207925
)
;
    }
    procBoundary9to7
    {
        type            processor;
        value           nonuniform List<scalar> 
75
(
0.0617363
-0.0567285
0.315584
-1.80276
-0.201584
0.0516791
0.0174795
-0.00651231
-0.0111585
-0.0100808
-0.0093431
-0.00934286
-0.0095519
-0.00974739
-0.00991515
-0.0100757
-0.0102374
-0.0104008
-0.0105651
-0.0107299
-0.0108954
-0.0110614
-0.011228
-0.0113953
-0.0115631
-0.0707961
-0.0711826
-0.0715706
-0.07196
-0.0723508
-0.0727431
-0.0731368
-0.073532
-0.0739286
-0.0743267
-0.0747262
-0.0751272
-0.0755297
-0.0759337
-0.0763391
-0.0767461
-0.0771545
-0.0775645
-0.077976
-0.0783889
-0.0788034
-0.0792194
-0.079637
-0.0800561
-0.0804767
-0.0808989
-0.0813226
-0.0817479
-0.0821748
-0.0826032
-0.0830332
-0.0834648
-0.083898
-0.0843328
-0.0847692
-0.0852071
-0.0856467
-0.0860879
-0.0865308
-0.0869752
-0.0874213
-0.0878691
-0.0883185
-0.0887695
-0.0892222
-0.0896766
-0.0901326
-0.0905904
-0.0910498
-0.0915108
)
;
    }
    procBoundary9to8
    {
        type            processor;
        value           uniform -0.0209921;
    }
    procBoundary9to10
    {
        type            processor;
        value           uniform -0.0704119;
    }
    procBoundary9to11
    {
        type            processor;
        value           nonuniform List<scalar> 
75
(
0.060986
-0.0571564
0.313768
-1.79372
-0.200902
0.0515032
0.0174205
-0.00651157
-0.0111491
-0.0100753
-0.00933987
-0.0093399
-0.0095488
-0.0097442
-0.00991194
-0.0100725
-0.0102342
-0.0103976
-0.0105618
-0.0107267
-0.0108921
-0.0110582
-0.0112248
-0.0113921
-0.0115599
-0.0117284
-0.0118975
-0.0120673
-0.0122376
-0.0124086
-0.0125802
-0.0127525
-0.0129253
-0.0130989
-0.013273
-0.0134478
-0.0136232
-0.0137993
-0.0139761
-0.0141535
-0.0143315
-0.0145102
-0.0146895
-0.0148695
-0.0150502
-0.0152315
-0.0154136
-0.0155962
-0.0157796
-0.0159636
-0.0161483
-0.0163337
-0.0165197
-0.0167065
-0.0168939
-0.017082
-0.0172709
-0.0174604
-0.0176506
-0.0178415
-0.0180331
-0.0182254
-0.0184184
-0.0186122
-0.0188066
-0.0190018
-0.0191977
-0.0193943
-0.0195916
-0.0197897
-0.0199885
-0.020188
-0.0203882
-0.0205892
-0.0207909
)
;
    }
}


// ************************************************************************* //
