/*--------------------------------*- C++ -*----------------------------------*\
| =========                 |                                                 |
| \\      /  F ield         | OpenFOAM: The Open Source CFD Toolbox           |
|  \\    /   O peration     | Version:  2.4.0                                 |
|   \\  /    A nd           | Web:      www.OpenFOAM.org                      |
|    \\/     M anipulation  |                                                 |
\*---------------------------------------------------------------------------*/
FoamFile
{
    version     2.0;
    format      ascii;
    class       volScalarField;
    location    "0.014";
    object      H;
}
// * * * * * * * * * * * * * * * * * * * * * * * * * * * * * * * * * * * * * //

dimensions      [0 2 -2 0 0 0 0];

internalField   nonuniform List<scalar> 
125
(
-125.197
-121.407
-117.533
-113.593
-109.606
-105.588
-101.557
-97.5273
-93.5149
-89.5335
-85.5961
-81.7147
-77.9003
-74.163
-70.5116
-66.9541
-63.4973
-60.1471
-56.9085
-53.7853
-50.7805
-47.8964
-45.1343
-42.4948
-39.9776
-37.5821
-35.3069
-33.1499
-31.1087
-29.1805
-27.3621
-25.65
-24.0403
-22.529
-21.1119
-19.7849
-18.5435
-17.3834
-16.3001
-15.2894
-14.3469
-13.4686
-12.6503
-11.888
-11.1781
-10.5168
-9.90078
-9.32666
-8.79134
-8.29193
-7.82566
-7.38997
-6.98249
-6.60099
-6.24343
-5.90792
-5.59271
-5.29624
-5.01702
-4.75375
-4.5052
-4.27029
-4.04802
-3.83749
-3.63787
-3.44844
-3.26853
-3.09753
-2.9349
-2.78015
-2.63284
-2.49254
-2.35891
-2.23159
-2.11028
-1.99469
-1.88457
-1.77967
-1.67975
-1.58462
-1.49406
-1.4079
-1.32595
-1.24803
-1.174
-1.10369
-1.03695
-0.973634
-0.913609
-0.856737
-0.802887
-0.751932
-0.703749
-0.658219
-0.615225
-0.574655
-0.5364
-0.500353
-0.466413
-0.43448
-0.404457
-0.376251
-0.349772
-0.324933
-0.30165
-0.279842
-0.25943
-0.240341
-0.222502
-0.205844
-0.190301
-0.175808
-0.162306
-0.149737
-0.138044
-0.127175
-0.11708
-0.107711
-0.0990221
-0.0909702
-0.0835143
-0.0766156
-0.0702374
-0.0643447
-0.0589049
)
;

boundaryField
{
    BotWall
    {
        type            zeroGradient;
    }
    FreeStream
    {
        type            zeroGradient;
    }
    FrontNBack
    {
        type            empty;
    }
    LeftSide
    {
        type            symmetryPlane;
    }
    RightSide
    {
        type            symmetryPlane;
    }
    procBoundary6to3
    {
        type            processor;
        value           nonuniform List<scalar> 
50
(
-1.99233
-1.88235
-1.77758
-1.67778
-1.58276
-1.49231
-1.40625
-1.32438
-1.24656
-1.17261
-1.10237
-1.0357
-0.972461
-0.912502
-0.855691
-0.8019
-0.751001
-0.70287
-0.65739
-0.614444
-0.573919
-0.535707
-0.499702
-0.465801
-0.433904
-0.403917
-0.375744
-0.349297
-0.324488
-0.301233
-0.279452
-0.259066
-0.240002
-0.222186
-0.205549
-0.190026
-0.175553
-0.16207
-0.149518
-0.137841
-0.126988
-0.116908
-0.107552
-0.0988764
-0.0908368
-0.0833925
-0.0765047
-0.0701367
-0.0642537
-0.058823
)
;
    }
    procBoundary6to4
    {
        type            processor;
        value           nonuniform List<scalar> 
75
(
-125.273
-121.477
-117.596
-113.65
-109.655
-105.631
-101.592
-97.5559
-93.5368
-89.5488
-85.6051
-81.7177
-77.8977
-74.155
-70.4987
-66.9367
-63.4758
-60.1219
-56.88
-53.7539
-50.7467
-47.8606
-45.0968
-42.456
-39.938
-37.5418
-35.2663
-33.1093
-31.0683
-29.1407
-27.323
-25.6117
-24.0029
-22.4928
-21.077
-19.7513
-18.5113
-17.3527
-16.2709
-15.2617
-14.3207
-13.4439
-12.627
-11.8662
-11.1577
-10.4978
-9.88301
-9.31011
-8.77597
-8.27766
-7.81243
-7.37773
-6.97116
-6.59052
-6.23375
-5.89897
-5.58445
-5.28859
-5.00995
-4.7472
-4.49914
-4.26467
-4.0428
-3.83263
-3.63334
-3.44421
-3.26458
-3.09383
-2.93142
-2.77688
-2.62975
-2.48963
-2.35614
-2.22897
-2.10778
)
;
    }
    procBoundary6to5
    {
        type            processor;
        value           uniform -0.0538882;
    }
    procBoundary6to7
    {
        type            processor;
        value           uniform -128.877;
    }
    procBoundary6to8
    {
        type            processor;
        value           nonuniform List<scalar> 
75
(
-7.68491
-7.26348
-6.8691
-6.4996
-6.15296
-5.82736
-5.52111
-5.23268
-4.96068
-4.70383
-4.461
-4.23115
-4.01333
-3.80671
-3.61051
-3.42407
-3.24675
-3.078
-2.91731
-2.76423
-2.61835
-2.47929
-2.34671
-2.2203
-2.09977
-1.98485
-1.87531
-1.7709
-1.67143
-1.57668
-1.48646
-1.4006
-1.31893
-1.24127
-1.16747
-1.09739
-1.03086
-0.96775
-0.907923
-0.851244
-0.797582
-0.746813
-0.698813
-0.653464
-0.610649
-0.570256
-0.532176
-0.496302
-0.462533
-0.430767
-0.400909
-0.372865
-0.346544
-0.32186
-0.298728
-0.277068
-0.2568
-0.23785
-0.220145
-0.203617
-0.188199
-0.173828
-0.160442
-0.147985
-0.136399
-0.125633
-0.115635
-0.10636
-0.0977596
-0.0897922
-0.0824167
-0.0755942
-0.0692881
-0.0634637
-0.0580883
)
;
    }
    procBoundary6to9
    {
        type            processor;
        value           nonuniform List<scalar> 
50
(
-127.752
-123.738
-119.644
-115.488
-111.29
-107.068
-102.84
-98.6225
-94.4309
-90.28
-86.1833
-82.1531
-78.2008
-74.3364
-70.5691
-66.9065
-63.3555
-59.9216
-56.6096
-53.4229
-50.3642
-47.4351
-44.6365
-41.9685
-39.4302
-37.0203
-34.7368
-32.5773
-30.5385
-28.6172
-26.8095
-25.1114
-23.5184
-22.0262
-20.6302
-19.3255
-18.1075
-16.9714
-15.9125
-14.9263
-14.0081
-13.1536
-12.3585
-11.6187
-10.9304
-10.2897
-9.69317
-9.13744
-8.61936
-8.13601
)
;
    }
}


// ************************************************************************* //
