/*--------------------------------*- C++ -*----------------------------------*\
| =========                 |                                                 |
| \\      /  F ield         | OpenFOAM: The Open Source CFD Toolbox           |
|  \\    /   O peration     | Version:  2.4.0                                 |
|   \\  /    A nd           | Web:      www.OpenFOAM.org                      |
|    \\/     M anipulation  |                                                 |
\*---------------------------------------------------------------------------*/
FoamFile
{
    version     2.0;
    format      ascii;
    class       volScalarField;
    location    "1";
    object      alpha1;
}
// * * * * * * * * * * * * * * * * * * * * * * * * * * * * * * * * * * * * * //

dimensions      [0 0 0 0 0 0 0];

internalField   nonuniform List<scalar> 
8000
(
1
1
1
1
1
1
1
1
1
1
1
1
1
1
1
1
1
1
1
1
1
1
1
1
1
1
1
1
1
1
0.999999
0.999999
0.999998
0.999997
0.999995
0.999961
0.810928
0.131595
0.00385241
0.000196874
1.21627e-05
3.80515e-06
2.11005e-06
1.02208e-06
4.32936e-07
1.58338e-07
4.8631e-08
1.20437e-08
2.27842e-09
3.07391e-10
1
1
1
1
1
1
1
1
1
1
1
1
1
1
1
1
1
1
1
1
1
1
1
1
1
1
1
1
1
1
0.999999
0.999999
0.999998
0.999996
0.999995
0.999827
0.608829
0.0395465
0.00125831
7.32459e-05
6.38735e-06
3.4262e-06
1.83569e-06
8.59346e-07
3.55272e-07
1.27203e-07
3.82273e-08
9.25031e-09
1.70796e-09
2.24898e-10
1
1
1
1
1
1
1
1
1
1
1
1
1
1
1
1
1
1
1
1
1
1
1
1
1
1
1
1
1
1
0.999999
0.999998
0.999997
0.999996
0.999995
0.999724
0.460048
0.0216115
0.000842622
4.54812e-05
6.17061e-06
3.20313e-06
1.60577e-06
7.36079e-07
2.99883e-07
1.0576e-07
3.12505e-08
7.42317e-09
1.34404e-09
1.73546e-10
1
1
1
1
1
1
1
1
1
1
1
1
1
1
1
1
1
1
1
1
1
1
1
1
1
1
1
1
1
0.999999
0.999999
0.999998
0.999997
0.999995
0.999995
0.926781
0.19201
0.00486387
0.000205544
1.22927e-05
4.39056e-06
2.4625e-06
1.23073e-06
5.53413e-07
2.19988e-07
7.54271e-08
2.16062e-08
4.96663e-09
8.70035e-10
1.0895e-10
1
1
1
1
1
1
1
1
1
1
1
1
1
1
1
1
1
1
1
1
1
1
1
1
1
1
1
1
1
0.999999
0.999999
0.999998
0.999997
0.999994
0.999965
0.745793
0.065308
0.00176461
8.13296e-05
7.38654e-06
3.77951e-06
1.98503e-06
9.66158e-07
4.24926e-07
1.64932e-07
5.50647e-08
1.53234e-08
3.41718e-09
5.80665e-10
7.06849e-11
1
1
1
1
1
1
1
1
1
1
1
1
1
1
1
1
1
1
1
1
1
1
1
1
1
1
1
1
1
0.999999
0.999999
0.999998
0.999996
0.999995
0.999773
0.436712
0.0156334
0.000472606
2.14953e-05
5.15841e-06
2.89512e-06
1.51297e-06
7.22797e-07
3.09769e-07
1.16577e-07
3.75869e-08
1.00722e-08
2.15945e-09
3.52771e-10
4.14122e-11
1
1
1
1
1
1
1
1
1
1
1
1
1
1
1
1
1
1
1
1
1
1
1
1
1
1
1
1
0.999999
0.999999
0.999998
0.999997
0.999995
0.999995
0.94791
0.191371
0.00425293
0.000153688
9.93404e-06
4.19841e-06
2.29594e-06
1.1771e-06
5.50148e-07
2.2963e-07
8.38447e-08
2.61461e-08
6.76134e-09
1.39718e-09
2.19989e-10
2.49595e-11
1
1
1
1
1
1
1
1
1
1
1
1
1
1
1
1
1
1
1
1
1
1
1
1
1
1
1
1
0.999999
0.999999
0.999998
0.999997
0.999994
0.999963
0.74221
0.0550952
0.00113722
4.44384e-05
5.69935e-06
3.30346e-06
1.79582e-06
9.03743e-07
4.12007e-07
1.66977e-07
5.89942e-08
1.77526e-08
4.42147e-09
8.78979e-10
1.33145e-10
1.45745e-11
1
1
1
1
1
1
1
1
1
1
1
1
1
1
1
1
1
1
1
1
1
1
1
1
1
1
1
1
0.999999
0.999999
0.999998
0.999996
0.999994
0.999831
0.469707
0.0151649
0.000365254
1.61209e-05
4.66902e-06
2.67723e-06
1.43545e-06
7.07142e-07
3.14147e-07
1.23648e-07
4.23136e-08
1.23065e-08
2.95767e-09
5.66804e-10
8.27552e-11
8.75191e-12
1
1
1
1
1
1
1
1
1
1
1
1
1
1
1
1
1
1
1
1
1
1
1
1
1
1
1
1
0.999999
0.999998
0.999997
0.999996
0.999996
0.976052
0.230611
0.00416208
0.000123098
8.07775e-06
3.84927e-06
2.1907e-06
1.15672e-06
5.57435e-07
2.41311e-07
9.23022e-08
3.06263e-08
8.62e-09
2.0018e-09
3.70249e-10
5.21471e-11
5.32899e-12
1
1
1
1
1
1
1
1
1
1
1
1
1
1
1
1
1
1
1
1
1
1
1
1
1
1
1
0.999999
0.999999
0.999998
0.999997
0.999995
0.999985
0.835821
0.0826058
0.00126356
4.22977e-05
5.38367e-06
3.21549e-06
1.80326e-06
9.34299e-07
4.39957e-07
1.85611e-07
6.90571e-08
2.22494e-08
6.07183e-09
1.36546e-09
2.44298e-10
3.32606e-11
3.2893e-12
1
1
1
1
1
1
1
1
1
1
1
1
1
1
1
1
1
1
1
1
1
1
1
1
1
1
1
0.999999
0.999999
0.999998
0.999996
0.999993
0.999917
0.61292
0.025149
0.000430679
1.69085e-05
4.56862e-06
2.71082e-06
1.49423e-06
7.58089e-07
3.486e-07
1.43327e-07
5.18864e-08
1.62426e-08
4.30122e-09
9.3751e-10
1.62381e-10
2.13818e-11
2.04608e-12
1
1
1
1
1
1
1
1
1
1
1
1
1
1
1
1
1
1
1
1
1
1
1
1
1
1
1
0.999999
0.999999
0.999998
0.999996
0.999995
0.999728
0.38308
0.00779592
0.000165581
8.99652e-06
3.94961e-06
2.31528e-06
1.2538e-06
6.22997e-07
2.80053e-07
1.12374e-07
3.9644e-08
1.20772e-08
3.10836e-09
6.57641e-10
1.10408e-10
1.40708e-11
1.30253e-12
1
1
1
1
1
1
1
1
1
1
1
1
1
1
1
1
1
1
1
1
1
1
1
1
1
1
1
0.999999
0.999998
0.999997
0.999996
0.999996
0.962444
0.18843
0.00237453
6.30895e-05
5.46452e-06
3.41308e-06
1.97032e-06
1.04774e-06
5.09904e-07
2.24187e-07
8.78648e-08
3.02386e-08
8.97522e-09
2.24796e-09
4.62224e-10
7.52961e-11
9.2933e-12
8.31991e-13
1
1
1
1
1
1
1
1
1
1
1
1
1
1
1
1
1
1
1
1
1
1
1
1
1
1
0.999999
0.999999
0.999998
0.999997
0.999994
0.999983
0.824454
0.0677243
0.000786487
2.36771e-05
4.81183e-06
2.9473e-06
1.67066e-06
8.7167e-07
4.1541e-07
1.78647e-07
6.84134e-08
2.29815e-08
6.65134e-09
1.62273e-09
3.24603e-10
5.13539e-11
6.14155e-12
5.31566e-13
1
1
1
1
1
1
1
1
1
1
1
1
1
1
1
1
1
1
1
1
1
1
1
1
1
1
0.999999
0.999999
0.999998
0.999996
0.999993
0.999923
0.619386
0.0215011
0.000288991
1.19295e-05
4.24635e-06
2.54851e-06
1.41668e-06
7.24813e-07
3.38167e-07
1.42219e-07
5.32089e-08
1.74455e-08
4.92342e-09
1.1701e-09
2.2771e-10
3.49819e-11
4.05146e-12
3.38508e-13
1
1
1
1
1
1
1
1
1
1
1
1
1
1
1
1
1
1
1
1
1
1
1
1
1
1
0.999999
0.999999
0.999998
0.999996
0.999994
0.99978
0.402994
0.00679914
0.000116172
6.96259e-06
3.76022e-06
2.21449e-06
1.20816e-06
6.06525e-07
2.77275e-07
1.14132e-07
4.17501e-08
1.33701e-08
3.68184e-09
8.52871e-10
1.61533e-10
2.40986e-11
2.70137e-12
2.17485e-13
1
1
1
1
1
1
1
1
1
1
1
1
1
1
1
1
1
1
1
1
1
1
1
1
1
1
0.999999
0.999998
0.999997
0.999996
0.999996
0.982183
0.202577
0.00200346
4.32999e-05
5.15102e-06
3.28878e-06
1.90218e-06
1.0187e-06
5.01785e-07
2.24834e-07
9.0616e-08
3.24259e-08
1.01485e-08
2.7287e-09
6.16474e-10
1.13698e-10
1.64778e-11
1.78746e-12
1.38481e-13
1
1
1
1
1
1
1
1
1
1
1
1
1
1
1
1
1
1
1
1
1
1
1
1
1
0.999999
0.999999
0.999998
0.999997
0.999995
0.99999
0.861409
0.0732102
0.000631866
1.80469e-05
4.60409e-06
2.85503e-06
1.62172e-06
8.52332e-07
4.11747e-07
1.80796e-07
7.13477e-08
2.49789e-08
7.64274e-09
2.00733e-09
4.42518e-10
7.95111e-11
1.11976e-11
1.17526e-12
8.75052e-14
1
1
1
1
1
1
1
1
1
1
1
1
1
1
1
1
1
1
1
1
1
1
1
1
1
0.999999
0.999999
0.999998
0.999996
0.999991
0.999942
0.657739
0.0216667
0.000218365
9.214e-06
4.08165e-06
2.46533e-06
1.37447e-06
7.08526e-07
3.354e-07
1.44214e-07
5.56871e-08
1.90634e-08
5.69954e-09
1.4617e-09
3.14327e-10
5.50046e-11
7.52411e-12
7.63449e-13
5.45468e-14
2.7762e-11
1.77412e-12
9.13536e-14
3.7588e-15
1.17436e-16
3.77528e-18
1.19985e-19
3.755e-21
1.15705e-22
3.51391e-24
1.08049e-25
4.49792e-27
6.20117e-28
1.92977e-28
6.70892e-29
2.32469e-29
7.9513e-30
2.68243e-30
8.92455e-31
2.92807e-31
9.4729e-32
3.02172e-32
9.50283e-33
2.94598e-33
9.0018e-34
2.71077e-34
8.04364e-35
2.35147e-35
6.77132e-36
1.92031e-36
5.3622e-37
1.47396e-37
3.98741e-38
1.06128e-38
2.77808e-39
7.14866e-40
1.80698e-40
4.48157e-41
1.0886e-41
2.58255e-42
5.9592e-43
1.32984e-43
2.84832e-44
5.79933e-45
1.10903e-45
1.96193e-46
3.14576e-47
4.43325e-48
5.19617e-49
4.44046e-50
1.98929e-11
1.2584e-12
6.41825e-14
2.49002e-15
7.43605e-17
2.2951e-18
7.0159e-20
2.11264e-21
6.26529e-23
1.84776e-24
6.20768e-26
5.25491e-27
1.44501e-27
5.12629e-28
1.83704e-28
6.50631e-29
2.27369e-29
7.83851e-30
2.66573e-30
8.94244e-31
2.95884e-31
9.65559e-32
3.10732e-32
9.86044e-33
3.08499e-33
9.51477e-34
2.89244e-34
8.66527e-35
2.55783e-35
7.43784e-36
2.13018e-36
6.00726e-37
1.66769e-37
4.5562e-38
1.22456e-38
3.23615e-39
8.40282e-40
2.14123e-40
5.34498e-41
1.30332e-41
3.09163e-42
7.09388e-43
1.56272e-43
3.27375e-44
6.4453e-45
1.17486e-45
1.94347e-46
2.83117e-47
3.44162e-48
3.07383e-49
1.50988e-11
9.49027e-13
4.81024e-14
1.77034e-15
5.08178e-17
1.51507e-18
4.48469e-20
1.3092e-21
3.77631e-23
1.12811e-24
5.55281e-26
1.08027e-26
3.79017e-27
1.40093e-27
5.13467e-28
1.85782e-28
6.63342e-29
2.33713e-29
8.1249e-30
2.7869e-30
9.43118e-31
3.1486e-31
1.03689e-31
3.36798e-32
1.07887e-32
3.40777e-33
1.06123e-33
3.25774e-34
9.85619e-35
2.93833e-35
8.62972e-36
2.49628e-36
7.11012e-37
1.99349e-37
5.49975e-38
1.49225e-38
3.9791e-39
1.0415e-39
2.6709e-40
6.69209e-41
1.6315e-41
3.84836e-42
8.71769e-43
1.87884e-43
3.80791e-44
7.15194e-45
1.22064e-45
1.83836e-46
2.31852e-47
2.16606e-48
9.2724e-12
5.79485e-13
2.91857e-14
1.00752e-15
2.76516e-17
7.92932e-19
2.26494e-20
6.39596e-22
1.81443e-23
6.49961e-25
7.86881e-26
2.59642e-26
9.86344e-27
3.74109e-27
1.40173e-27
5.18442e-28
1.89262e-28
6.81922e-29
2.42493e-29
8.51007e-30
2.94723e-30
1.00718e-30
3.39603e-31
1.1297e-31
3.70701e-32
1.19977e-32
3.82927e-33
1.20506e-33
3.73844e-34
1.14308e-34
3.44407e-35
1.02228e-35
2.98849e-36
8.60171e-37
2.43671e-37
6.79023e-38
1.85992e-38
5.00166e-39
1.31807e-39
3.39424e-40
8.5065e-41
2.06311e-41
4.80694e-42
1.06604e-42
2.22467e-43
4.30627e-44
7.58493e-45
1.18135e-45
1.5463e-46
1.51171e-47
5.89413e-12
3.66395e-13
1.83197e-14
5.94575e-16
1.56216e-17
4.31481e-19
1.19171e-20
3.27613e-22
9.75696e-24
6.43544e-25
1.7215e-25
6.62553e-26
2.59696e-26
1.00708e-26
3.85639e-27
1.45794e-27
5.44156e-28
2.005e-28
7.2929e-29
2.61854e-29
9.28042e-30
3.24634e-30
1.12072e-30
3.81798e-31
1.28335e-31
4.25575e-32
1.39205e-32
4.49067e-33
1.42844e-33
4.47938e-34
1.38446e-34
4.21643e-35
1.265e-35
3.73747e-36
1.08703e-36
3.11069e-37
8.75153e-38
2.4177e-38
6.54641e-39
1.73246e-39
4.4629e-40
1.11288e-40
2.66689e-41
6.08597e-42
1.3078e-42
2.60925e-43
4.7437e-44
7.64227e-45
1.03856e-45
1.06317e-46
3.36601e-12
2.07666e-13
1.02633e-14
3.10107e-16
7.74758e-18
2.04916e-19
5.45199e-21
1.48797e-22
6.13418e-24
1.10394e-24
4.17596e-25
1.68778e-25
6.77104e-26
2.68351e-26
1.0503e-26
4.05941e-27
1.5493e-27
5.83871e-28
2.17267e-28
7.9827e-29
2.89573e-29
1.03703e-29
3.6661e-30
1.27925e-30
4.40542e-31
1.49706e-31
5.01932e-32
1.66007e-32
5.41509e-33
1.74176e-33
5.523e-34
1.72606e-34
5.31508e-35
1.61213e-35
4.8145e-36
1.41494e-36
4.08898e-37
1.16054e-37
3.229e-38
8.78236e-39
2.32563e-39
5.96293e-40
1.46981e-40
3.4518e-41
7.63877e-42
1.57108e-42
2.94863e-43
4.9147e-44
6.93605e-45
7.43737e-46
1.98013e-12
1.21246e-13
5.91506e-15
1.66604e-16
3.95785e-18
1.00278e-19
2.58937e-21
7.8446e-23
7.46907e-24
2.52533e-24
1.04502e-24
4.33309e-25
1.77633e-25
7.19353e-26
2.87749e-26
1.1369e-26
4.43661e-27
1.70999e-27
6.50929e-28
2.44712e-28
9.0852e-29
3.33074e-29
1.20568e-29
4.3089e-30
1.52014e-30
5.29326e-31
1.81893e-31
6.16722e-32
2.06279e-32
6.8049e-33
2.21354e-33
7.09806e-34
2.24314e-34
6.98384e-35
2.14132e-35
6.46225e-36
1.91805e-36
5.59218e-37
1.5986e-37
4.46806e-38
1.21614e-38
3.20598e-39
8.12805e-40
1.96439e-40
4.47696e-41
9.49259e-42
1.83939e-42
3.17244e-43
4.65085e-44
5.22603e-45
1.12703e-12
6.83947e-14
3.28328e-15
8.59322e-17
1.93472e-18
4.6893e-20
1.21575e-21
5.98407e-23
1.4714e-23
6.11203e-24
2.61552e-24
1.10854e-24
4.64289e-25
1.92129e-25
7.85499e-26
3.17273e-26
1.26602e-26
4.99073e-27
1.9435e-27
7.47637e-28
2.8409e-28
1.06623e-28
3.95218e-29
1.44665e-29
5.22847e-30
1.86556e-30
6.57052e-31
2.28384e-31
7.83288e-32
2.65016e-32
8.84332e-33
2.90961e-33
9.4364e-34
3.01568e-34
9.49285e-35
2.94173e-35
8.96728e-36
2.6856e-36
7.88744e-37
2.26537e-37
6.33758e-38
1.71772e-38
4.47924e-39
1.11407e-39
2.61494e-40
5.71634e-41
1.14372e-41
2.04147e-42
3.10952e-43
3.66237e-44
6.59923e-13
3.96612e-14
1.87093e-15
4.55501e-17
9.71819e-19
2.27324e-20
6.91887e-22
8.81446e-23
3.42921e-23
1.50753e-23
6.59965e-24
2.85659e-24
1.22199e-24
5.16598e-25
2.15817e-25
8.90957e-26
3.63457e-26
1.46509e-26
5.83557e-27
2.29662e-27
8.93019e-28
3.43057e-28
1.30186e-28
4.87988e-29
1.80652e-29
6.6039e-30
2.38348e-30
8.49179e-31
2.98589e-31
1.03595e-31
3.54557e-32
1.19674e-32
3.9825e-33
1.30618e-33
4.22053e-34
1.34278e-34
4.20315e-35
1.29284e-35
3.90042e-36
1.151e-36
3.30925e-37
9.22078e-38
2.47294e-38
6.32946e-39
1.53006e-39
3.4485e-40
7.1248e-41
1.3163e-41
2.08353e-42
2.57294e-43
3.91507e-13
2.3264e-14
1.07613e-15
2.43624e-17
4.92556e-19
1.15865e-20
6.30863e-22
1.85708e-22
8.25858e-23
3.72937e-23
1.66711e-23
7.36751e-24
3.21858e-24
1.38987e-24
5.9325e-25
2.50289e-25
1.04371e-25
4.30167e-26
1.75229e-26
7.05458e-27
2.80677e-27
1.10353e-27
4.28703e-28
1.64543e-28
6.2387e-29
2.33634e-29
8.64035e-30
3.15501e-30
1.13724e-30
4.04568e-31
1.42005e-31
4.91671e-32
1.6787e-32
5.64998e-33
1.87378e-33
6.11994e-34
1.9669e-34
6.21299e-35
1.92529e-35
5.83693e-36
1.72455e-36
4.93966e-37
1.36245e-37
3.58849e-38
8.93404e-39
2.07613e-39
4.42963e-40
8.47136e-41
1.39369e-41
1.80478e-42
2.35559e-13
1.38342e-14
6.27329e-16
1.32415e-17
2.56053e-19
7.15977e-21
1.02236e-21
4.3177e-22
2.00431e-22
9.24782e-23
4.22017e-23
1.90425e-23
8.49568e-24
3.74748e-24
1.63431e-24
7.04652e-25
3.00363e-25
1.26574e-25
5.27298e-26
2.17153e-26
8.83995e-27
3.55694e-27
1.4145e-27
5.55879e-28
2.15848e-28
8.28026e-29
3.13755e-29
1.17411e-29
4.33813e-30
1.58224e-30
5.69522e-31
2.02252e-31
7.08413e-32
2.44647e-32
8.3267e-33
2.79152e-33
9.21073e-34
2.98751e-34
9.50798e-35
2.96112e-35
8.98974e-36
2.6468e-36
7.5076e-37
2.03481e-37
5.21745e-38
1.25015e-38
2.75474e-39
5.4541e-40
9.32778e-41
1.26692e-41
1.42678e-13
8.26973e-15
3.67179e-16
7.24342e-18
1.3896e-19
6.95232e-21
2.18302e-21
1.02653e-21
4.88252e-22
2.29915e-22
1.07083e-22
4.93251e-23
2.24699e-23
1.01229e-23
4.50986e-24
1.98687e-24
8.65595e-25
3.72897e-25
1.58848e-25
6.69078e-26
2.78645e-26
1.14728e-26
4.66973e-27
1.87874e-27
7.47023e-28
2.93513e-28
1.13938e-28
4.36897e-29
1.65448e-29
6.18603e-30
2.28307e-30
8.3149e-31
2.9874e-31
1.05845e-31
3.69666e-32
1.27193e-32
4.30805e-33
1.43463e-33
4.68872e-34
1.49988e-34
4.67852e-35
1.41581e-35
4.12971e-36
1.15176e-36
3.04155e-37
7.51472e-38
1.71025e-38
3.50593e-39
6.2339e-40
8.88157e-41
8.83014e-14
5.04211e-15
2.18983e-16
4.06318e-18
8.85285e-20
1.13863e-20
5.03667e-21
2.46033e-21
1.19449e-21
5.73825e-22
2.72704e-22
1.28205e-22
5.96224e-23
2.74277e-23
1.24806e-23
5.61738e-24
2.50079e-24
1.10118e-24
4.79584e-25
2.06576e-25
8.7999e-26
3.70704e-26
1.54413e-26
6.35909e-27
2.58881e-27
1.04168e-27
4.14203e-28
1.62726e-28
6.31492e-29
2.42014e-29
9.15712e-30
3.41977e-30
1.26014e-30
4.57999e-31
1.64116e-31
5.79472e-32
2.01446e-32
6.88671e-33
2.31104e-33
7.59277e-34
2.43318e-34
7.56767e-35
2.26982e-35
6.51395e-36
1.77166e-36
4.51366e-37
1.06106e-37
2.25231e-38
4.16438e-39
6.22426e-40
5.47539e-14
3.07593e-15
1.30631e-16
2.33098e-18
8.15482e-20
2.39273e-20
1.17894e-20
5.89478e-21
2.91937e-21
1.43071e-21
6.93789e-22
3.32896e-22
1.58046e-22
7.42407e-23
3.45041e-23
1.58657e-23
7.21768e-24
3.24847e-24
1.4464e-24
6.37108e-25
2.77604e-25
1.19644e-25
5.09994e-26
2.14979e-26
8.96029e-27
3.69208e-27
1.50372e-27
6.05231e-28
2.40678e-28
9.45373e-29
3.66695e-29
1.40415e-29
5.30624e-30
1.9782e-30
7.27231e-31
2.6348e-31
9.40048e-32
3.29884e-32
1.13661e-32
3.83499e-33
1.26252e-33
4.03554e-34
1.24463e-34
3.67541e-35
1.02958e-35
2.70497e-36
6.56859e-37
1.44398e-37
2.77657e-38
4.35387e-39
3.39071e-14
1.87197e-15
7.7863e-17
1.44421e-18
1.21987e-19
5.4012e-20
2.76909e-20
1.41296e-20
7.13733e-21
3.56834e-21
1.76567e-21
8.6469e-22
4.1909e-22
2.01021e-22
9.54217e-23
4.48247e-23
2.08373e-23
9.58536e-24
4.36323e-24
1.96528e-24
8.75847e-25
3.86178e-25
1.68444e-25
7.26739e-26
3.10094e-26
1.30837e-26
5.45768e-27
2.25028e-27
9.16894e-28
3.69099e-28
1.46754e-28
5.76137e-29
2.23261e-29
8.53667e-30
3.21932e-30
1.19672e-30
4.38152e-31
1.57817e-31
5.58233e-32
1.93418e-32
6.54094e-33
2.14862e-33
6.81387e-34
2.07049e-34
5.97385e-35
1.61859e-35
4.06054e-36
9.24526e-37
1.84906e-37
3.04208e-38
2.08714e-14
1.13077e-15
4.63904e-17
1.12421e-18
2.43282e-19
1.24076e-19
6.51322e-20
3.38893e-20
1.74573e-20
8.90249e-21
4.49432e-21
2.2461e-21
1.11121e-21
5.44195e-22
2.63811e-22
1.2659e-22
6.0126e-23
2.82667e-23
1.31529e-23
6.05742e-24
2.76086e-24
1.24525e-24
5.55749e-25
2.45389e-25
1.07182e-25
4.63025e-26
1.97799e-26
8.3539e-27
3.48738e-27
1.4386e-27
5.8626e-28
2.35949e-28
9.37513e-29
3.67627e-29
1.42206e-29
5.42322e-30
2.03744e-30
7.53175e-31
2.73488e-31
9.73011e-32
3.37993e-32
1.14095e-32
3.72043e-33
1.1633e-33
3.45714e-34
9.66069e-35
2.50398e-35
5.90562e-36
1.22867e-36
2.12083e-37
1.29179e-14
6.8656e-16
2.85982e-17
1.35116e-18
5.35218e-19
2.86788e-19
1.5357e-19
8.14531e-20
4.27803e-20
2.22488e-20
1.14576e-20
5.84253e-21
2.94999e-21
1.47482e-21
7.30041e-22
3.57791e-22
1.7361e-22
8.34019e-23
3.96658e-23
1.86757e-23
8.70429e-24
4.01556e-24
1.83345e-24
8.2841e-25
3.70348e-25
1.63791e-25
7.16475e-26
3.09922e-26
1.32537e-26
5.60205e-27
2.33966e-27
9.65209e-28
3.93192e-28
1.58103e-28
6.27242e-29
2.45382e-29
9.45845e-30
3.58813e-30
1.33736e-30
4.88533e-31
1.74302e-31
6.04621e-32
2.02717e-32
6.52242e-33
1.99661e-33
5.75466e-34
1.5412e-34
3.76565e-35
8.15076e-36
1.4761e-36
7.90402e-15
4.14507e-16
1.93915e-17
2.36397e-18
1.20261e-18
6.61374e-19
3.61019e-19
1.95199e-19
1.04534e-19
5.54462e-20
2.91282e-20
1.5156e-20
7.81037e-21
3.98627e-21
2.01491e-21
1.00861e-21
4.99991e-22
2.45446e-22
1.19314e-22
5.74318e-23
2.7372e-23
1.29157e-23
6.03305e-24
2.78938e-24
1.27633e-24
5.77866e-25
2.58832e-25
1.14667e-25
5.02329e-26
2.17544e-26
9.31089e-27
3.93714e-27
1.64426e-27
6.77939e-28
2.75836e-28
1.10689e-28
4.37732e-29
1.70402e-29
6.51898e-30
2.44496e-30
8.95969e-31
3.19369e-31
1.101e-31
3.6454e-32
1.14952e-32
3.41758e-33
9.4585e-34
2.39447e-34
5.39272e-35
1.02459e-35
4.7938e-15
2.54531e-16
1.72501e-17
4.90189e-18
2.71669e-18
1.52488e-18
8.48379e-19
4.67613e-19
2.55338e-19
1.38127e-19
7.40243e-20
3.93008e-20
2.06705e-20
1.077e-20
5.5587e-21
2.84194e-21
1.43922e-21
7.21932e-22
3.5868e-22
1.76499e-22
8.60137e-23
4.15095e-23
1.98351e-23
9.38351e-24
4.39416e-24
2.03653e-24
9.33948e-25
4.23719e-25
1.90129e-25
8.43564e-26
3.69962e-26
1.60335e-26
6.86403e-27
2.90164e-27
1.21067e-27
4.98292e-28
2.02152e-28
8.07466e-29
3.17041e-29
1.22076e-29
4.59448e-30
1.68283e-30
5.96516e-31
2.03246e-31
6.60241e-32
2.02492e-32
5.79187e-33
1.51936e-33
3.56076e-34
7.09723e-35
2.87999e-15
1.6937e-16
2.31984e-17
1.0691e-17
6.13938e-18
3.51229e-18
1.99138e-18
1.11881e-18
6.22869e-19
3.43616e-19
1.8784e-19
1.01752e-19
5.46166e-20
2.90486e-20
1.53083e-20
7.99307e-21
4.13497e-21
2.11929e-21
1.07609e-21
5.41289e-22
2.69712e-22
1.33114e-22
6.50647e-23
3.14927e-23
1.5092e-23
7.15947e-24
3.36143e-24
1.56164e-24
7.17702e-25
3.26207e-25
1.46588e-25
6.51057e-26
2.85695e-26
1.23817e-26
5.29737e-27
2.23611e-27
9.30568e-28
3.81374e-28
1.53677e-28
6.0747e-29
2.34806e-29
8.8372e-30
3.22099e-30
1.12942e-30
3.77981e-31
1.19598e-31
3.53584e-32
9.61263e-33
2.34452e-33
4.90186e-34
1.47199e-51
5.39245e-52
1.94021e-52
6.85246e-53
2.37425e-53
8.0653e-54
2.68445e-54
8.7487e-55
2.78991e-55
8.69939e-56
2.65047e-56
7.88439e-57
2.28817e-57
6.47349e-58
1.78389e-58
4.78424e-59
1.2477e-59
3.1614e-60
7.77583e-61
1.85494e-61
4.28791e-62
9.59658e-63
2.07764e-63
4.34755e-64
8.78607e-65
1.71356e-65
3.2231e-66
5.84345e-67
1.02071e-67
1.71736e-68
2.78312e-69
4.34534e-70
6.54023e-71
9.49912e-72
1.3334e-72
1.81282e-73
2.39392e-74
3.08172e-75
3.88406e-76
4.81574e-77
5.90212e-78
7.18094e-79
8.70151e-80
1.05211e-80
1.26992e-81
1.52905e-82
1.83373e-83
2.18613e-84
2.58538e-85
3.02648e-86
3.49931e-87
3.98811e-88
4.47135e-89
4.92255e-90
5.31219e-91
5.61065e-92
5.7917e-93
5.83595e-94
5.73385e-95
5.4873e-96
5.1101e-97
4.62643e-98
4.06798e-99
3.47035e-100
2.86915e-101
2.29641e-102
1.7774e-103
1.32884e-104
9.58527e-106
6.66325e-107
4.45886e-108
2.86884e-109
1.77225e-110
1.0498e-111
5.95475e-113
3.22976e-114
1.67252e-115
8.25606e-117
3.87796e-118
1.73001e-119
7.31553e-121
2.9262e-122
1.10523e-123
3.93092e-125
1.31145e-126
4.09577e-128
1.19337e-129
3.23295e-131
8.12298e-133
1.88965e-134
4.04336e-136
7.87931e-138
1.38784e-139
2.19504e-141
3.08499e-143
3.8332e-145
4.15391e-147
3.85142e-149
3.0014e-151
1.9196e-153
9.60305e-156
3.63801e-158
9.8472e-161
1.68734e-163
1.42286e-166
2.20719e-170
2.16465e-176
2.71341e-181
4.47441e-195
4.96999e-200
0
0
0
0
0
0
0
0
0
0
0
0
0
0
0
0
0
0
0
0
0
0
0
0
0
0
0
0
0
0
0
0
0
0
0
0
0
0
0
0
0
0
0
0
0
0
0
0
0
0
0
0
0
0
0
0
0
0
0
0
0
0
0
0
0
0
0
0
0
0
0
0
0
0
0
0
0
0
0
0
0
0
0
0
0
0
0
0
0
0
0
0
0
0
0
0
0
0
0
0
0
0
0
0
0
0
0
0
0
0
0
0
0
0
0
0
0
0
0
0
0
0
0
0
0
0
0
0
0
0
0
0
0
0
0
0
0
0
0
0
0
0
0
0
0
0
0
0
0
0
0
0
0
0
0
0
0
0
0
0
0
0
0
0
0
0
0
0
0
0
0
0
0
0
0
0
0
0
0
0
0
0
0
0
0
0
0
0
0
0
1.11957e-50
4.16846e-51
1.52459e-51
5.47436e-52
1.92871e-52
6.66325e-53
2.25591e-53
7.47978e-54
2.42715e-54
7.70268e-55
2.38899e-55
7.2359e-56
2.1387e-56
6.16376e-57
1.73077e-57
4.73125e-58
1.25806e-58
3.25125e-59
8.15941e-60
1.98682e-60
4.69013e-61
1.07245e-61
2.37345e-62
5.07993e-63
1.05072e-63
2.09881e-64
4.04631e-65
7.52541e-66
1.3497e-66
2.33404e-67
3.89201e-68
6.26026e-69
9.72027e-70
1.45861e-70
2.11888e-71
2.98667e-72
4.09714e-73
5.49018e-74
7.21694e-75
9.3486e-76
1.19855e-76
1.52642e-77
1.93606e-78
2.44867e-79
3.08823e-80
3.87998e-81
4.8484e-82
6.01432e-83
7.3911e-84
8.97972e-85
1.07635e-85
1.27038e-86
1.47365e-87
1.67718e-88
1.86979e-89
2.03896e-90
2.17204e-91
2.25767e-92
2.28731e-93
2.25643e-94
2.16537e-95
2.0195e-96
1.8286e-97
1.60583e-98
1.36617e-99
1.12478e-100
8.95179e-102
6.87943e-103
5.09914e-104
3.64131e-105
2.50235e-106
1.65298e-107
1.04808e-108
6.37042e-110
3.70671e-111
2.06173e-112
1.09455e-113
5.53734e-115
2.66468e-116
1.21743e-117
5.27027e-119
2.15724e-120
8.33352e-122
3.02981e-123
1.03293e-124
3.29569e-126
9.80764e-128
2.71292e-129
6.95735e-131
1.65099e-132
3.60106e-134
7.14958e-136
1.2826e-137
2.06615e-139
2.95795e-141
3.74607e-143
4.13845e-145
3.91198e-147
3.10651e-149
2.02073e-151
1.02841e-153
3.97462e-156
1.10475e-158
1.94413e-161
1.67204e-164
2.64582e-168
4.34388e-174
5.46276e-179
2.10496e-192
2.55093e-197
0
0
0
0
0
0
0
0
0
0
0
0
0
0
0
0
0
0
0
0
0
0
0
0
0
0
0
0
0
0
0
0
0
0
0
0
0
0
0
0
0
0
0
0
0
0
0
0
0
0
0
0
0
0
0
0
0
0
0
0
0
0
0
0
0
0
0
0
0
0
0
0
0
0
0
0
0
0
0
0
0
0
0
0
0
0
0
0
0
0
0
0
0
0
0
0
0
0
0
0
0
0
0
0
0
0
0
0
0
0
0
0
0
0
0
0
0
0
0
0
0
0
0
0
0
0
0
0
0
0
0
0
0
0
0
0
0
0
0
0
0
0
0
0
0
0
0
0
0
0
0
0
0
0
0
0
0
0
0
0
0
0
0
0
0
0
0
0
0
0
0
0
0
0
0
0
0
0
0
0
0
0
0
0
0
0
0
0
0
0
8.68274e-50
3.28506e-50
1.22107e-50
4.45667e-51
1.59624e-51
5.6072e-52
1.93055e-52
6.51065e-53
2.14925e-53
6.94023e-54
2.19066e-54
6.75426e-55
2.03264e-55
5.96609e-56
1.70661e-56
4.75386e-57
1.2885e-57
3.39542e-58
8.69204e-59
2.15982e-59
5.20509e-60
1.21566e-60
2.74939e-61
6.017e-62
1.27335e-62
2.60417e-63
5.14415e-64
9.81071e-65
1.80599e-65
3.20868e-66
5.50311e-67
9.1153e-68
1.45944e-68
2.26166e-69
3.39856e-70
4.96429e-71
7.07065e-72
9.85618e-73
1.3502e-73
1.82539e-74
2.4449e-75
3.25422e-76
4.31275e-77
5.69508e-78
7.49079e-79
9.8025e-80
1.27414e-80
1.64193e-81
2.09363e-82
2.63621e-83
3.27148e-84
3.99381e-85
4.7879e-86
5.62742e-87
6.47496e-88
7.28355e-89
8.00024e-90
8.57105e-91
8.94723e-92
9.09151e-93
8.98377e-94
8.62455e-95
8.03582e-96
7.25902e-97
6.35038e-98
5.37432e-99
4.3952e-100
3.46971e-101
2.64106e-102
1.93623e-103
1.36569e-104
9.25685e-106
6.02099e-107
3.75316e-108
2.239e-109
1.27645e-110
6.94365e-112
3.59825e-113
1.77306e-114
8.292e-116
3.67303e-117
1.53778e-118
6.07314e-120
2.2562e-121
7.85733e-123
2.5604e-124
7.78005e-126
2.19682e-127
5.74904e-129
1.39135e-130
3.09295e-132
6.25576e-134
1.14297e-135
1.87547e-137
2.7356e-139
3.5323e-141
3.97952e-143
3.83652e-145
3.10551e-147
2.05555e-149
1.06511e-151
4.20295e-154
1.19973e-156
2.16527e-159
1.89752e-162
3.06386e-166
8.31991e-172
1.04945e-176
9.44902e-190
1.24767e-194
0
0
0
0
0
0
0
0
0
0
0
0
0
0
0
0
0
0
0
0
0
0
0
0
0
0
0
0
0
0
0
0
0
0
0
0
0
0
0
0
0
0
0
0
0
0
0
0
0
0
0
0
0
0
0
0
0
0
0
0
0
0
0
0
0
0
0
0
0
0
0
0
0
0
0
0
0
0
0
0
0
0
0
0
0
0
0
0
0
0
0
0
0
0
0
0
0
0
0
0
0
0
0
0
0
0
0
0
0
0
0
0
0
0
0
0
0
0
0
0
0
0
0
0
0
0
0
0
0
0
0
0
0
0
0
0
0
0
0
0
0
0
0
0
0
0
0
0
0
0
0
0
0
0
0
0
0
0
0
0
0
0
0
0
0
0
0
0
0
0
0
0
0
0
0
0
0
0
0
0
0
0
0
0
0
0
0
0
0
0
6.65457e-49
2.55865e-49
9.6668e-50
3.58668e-50
1.30614e-50
4.66571e-51
1.63383e-51
5.60512e-52
1.88263e-52
6.18659e-53
1.98768e-53
6.23935e-54
1.91212e-54
5.71678e-55
1.66617e-55
4.73029e-56
1.30713e-56
3.51296e-57
9.17509e-58
2.32698e-58
5.72642e-59
1.36634e-59
3.15864e-60
7.06991e-61
1.53117e-61
3.2069e-62
6.49227e-63
1.27001e-63
2.40017e-64
4.38233e-65
7.73252e-66
1.31932e-66
2.17885e-67
3.48805e-68
5.42358e-69
8.21214e-70
1.21469e-70
1.7616e-71
2.51468e-72
3.54703e-73
4.96032e-74
6.89431e-75
9.53694e-76
1.31337e-76
1.79951e-77
2.44991e-78
3.30876e-79
4.42492e-80
5.84851e-81
7.62527e-82
9.78869e-83
1.23506e-83
1.52909e-84
1.85479e-85
2.20129e-86
2.55289e-87
2.88977e-88
3.18941e-89
3.42874e-90
3.58684e-91
3.64775e-92
3.60286e-93
3.45252e-94
3.20648e-95
2.883e-96
2.50678e-97
2.10559e-98
1.7067e-99
1.33348e-100
1.00322e-101
7.25959e-103
5.04703e-104
3.36618e-105
2.15102e-106
1.31509e-107
7.6813e-109
4.27966e-110
2.27073e-111
1.14525e-112
5.48008e-114
2.48286e-115
1.06281e-116
4.28954e-118
1.62786e-119
5.78947e-121
1.92629e-122
5.97528e-124
1.72199e-125
4.59777e-127
1.13465e-128
2.57037e-130
5.29579e-132
9.85456e-134
1.64727e-135
2.44863e-137
3.22466e-139
3.7059e-141
3.64471e-143
3.00805e-145
2.02676e-147
1.06994e-149
4.31302e-152
1.2638e-154
2.33475e-157
2.08214e-160
3.43136e-164
1.52384e-169
1.92738e-174
4.05258e-187
5.82174e-192
0
0
0
0
0
0
0
0
0
0
0
0
0
0
0
0
0
0
0
0
0
0
0
0
0
0
0
0
0
0
0
0
0
0
0
0
0
0
0
0
0
0
0
0
0
0
0
0
0
0
0
0
0
0
0
0
0
0
0
0
0
0
0
0
0
0
0
0
0
0
0
0
0
0
0
0
0
0
0
0
0
0
0
0
0
0
0
0
0
0
0
0
0
0
0
0
0
0
0
0
0
0
0
0
0
0
0
0
0
0
0
0
0
0
0
0
0
0
0
0
0
0
0
0
0
0
0
0
0
0
0
0
0
0
0
0
0
0
0
0
0
0
0
0
0
0
0
0
0
0
0
0
0
0
0
0
0
0
0
0
0
0
0
0
0
0
0
0
0
0
0
0
0
0
0
0
0
0
0
0
0
0
0
0
0
0
0
0
0
0
5.13843e-48
2.00782e-48
7.71015e-49
2.90808e-49
1.07673e-49
3.91119e-50
1.39299e-50
4.86131e-51
1.66128e-51
5.55555e-52
1.81682e-52
5.80618e-53
1.812e-53
5.51819e-54
1.63866e-54
4.74143e-55
1.33577e-55
3.66127e-56
9.75612e-57
2.52548e-57
6.3462e-58
1.54695e-58
3.65539e-59
8.36777e-60
1.85461e-60
3.97779e-61
8.25286e-62
1.65586e-62
3.21258e-63
6.02767e-64
1.09415e-64
1.92288e-65
3.27541e-66
5.41642e-67
8.71395e-68
1.36752e-68
2.10015e-69
3.16746e-70
4.70882e-71
6.92385e-72
1.00983e-72
1.46371e-73
2.11033e-74
3.02628e-75
4.31285e-76
6.09999e-77
8.54848e-78
1.18488e-78
1.62139e-79
2.18644e-80
2.90038e-81
3.77851e-82
4.82682e-83
6.03755e-84
7.38514e-85
8.82353e-86
1.02858e-86
1.16869e-87
1.293e-88
1.39159e-89
1.45552e-90
1.47806e-91
1.45574e-92
1.3891e-93
1.28281e-94
1.14526e-95
9.87408e-97
8.21276e-98
6.58279e-99
5.07928e-100
3.76876e-101
2.68595e-102
1.83594e-103
1.20201e-104
7.52725e-106
4.50196e-107
2.56761e-108
1.39412e-109
7.1929e-111
3.51973e-112
1.63024e-113
7.13152e-115
2.94022e-116
1.13935e-117
4.13668e-119
1.4049e-120
4.44751e-122
1.30777e-123
3.56172e-125
8.96077e-127
2.06822e-128
4.34017e-130
8.22507e-132
1.40067e-133
2.12215e-135
2.85088e-137
3.34262e-139
3.354e-141
2.82252e-143
1.93623e-145
1.04177e-147
4.29076e-150
1.28935e-152
2.43253e-155
2.20424e-158
3.70928e-162
2.66567e-167
3.37971e-172
1.65817e-184
2.58744e-189
0
0
0
0
0
0
0
0
0
0
0
0
0
0
0
0
0
0
0
0
0
0
0
0
0
0
0
0
0
0
0
0
0
0
0
0
0
0
0
0
0
0
0
0
0
0
0
0
0
0
0
0
0
0
0
0
0
0
0
0
0
0
0
0
0
0
0
0
0
0
0
0
0
0
0
0
0
0
0
0
0
0
0
0
0
0
0
0
0
0
0
0
0
0
0
0
0
0
0
0
0
0
0
0
0
0
0
0
0
0
0
0
0
0
0
0
0
0
0
0
0
0
0
0
0
0
0
0
0
0
0
0
0
0
0
0
0
0
0
0
0
0
0
0
0
0
0
0
0
0
0
0
0
0
0
0
0
0
0
0
0
0
0
0
0
0
0
0
0
0
0
0
0
0
0
0
0
0
0
0
0
0
0
0
0
0
0
0
0
0
3.93838e-47
1.564e-47
6.10474e-48
2.34084e-48
8.81259e-49
3.25546e-49
1.17933e-49
4.187e-50
1.45593e-50
4.95521e-51
1.6496e-51
5.36774e-52
1.70608e-52
5.29291e-53
1.60164e-53
4.7239e-54
1.357e-54
3.79394e-55
1.03161e-55
2.7261e-56
6.99626e-57
1.74259e-57
4.2097e-58
9.85769e-59
2.23634e-59
4.91301e-60
1.04485e-60
2.1507e-61
4.28462e-62
8.2632e-63
1.54349e-63
2.7948e-64
4.91171e-65
8.39273e-66
1.39743e-66
2.27352e-67
3.62559e-68
5.68647e-69
8.80152e-70
1.34844e-70
2.04962e-71
3.09529e-72
4.64652e-73
6.93097e-74
1.02629e-74
1.50644e-75
2.1884e-76
3.14087e-77
4.4459e-78
6.19581e-79
8.48673e-80
1.1408e-80
1.5027e-81
1.93713e-82
2.44083e-83
3.0028e-84
3.60304e-85
4.21241e-86
4.79389e-87
5.30542e-88
5.70431e-89
5.95263e-90
6.02266e-91
5.90174e-92
5.59513e-93
5.12642e-94
4.53463e-95
3.86854e-96
3.17956e-97
2.51511e-98
1.9127e-99
1.39679e-100
9.7806e-102
6.55789e-103
4.20452e-104
2.57379e-105
1.50195e-106
8.34151e-108
4.40068e-109
2.20117e-110
1.04182e-111
4.65566e-113
1.96007e-114
7.75339e-116
2.87304e-117
9.95729e-119
3.21627e-120
9.64764e-122
2.67965e-123
6.87167e-125
1.61575e-126
3.45321e-128
6.66459e-130
1.15628e-131
1.78587e-133
2.44768e-135
2.92812e-137
2.99758e-139
2.57199e-141
1.7964e-143
9.85269e-146
4.14575e-148
1.27579e-150
2.45182e-153
2.25382e-156
3.87712e-160
4.46403e-165
5.67131e-170
6.48731e-182
1.0977e-186
0
0
0
0
0
0
0
0
0
0
0
0
0
0
0
0
0
0
0
0
0
0
0
0
0
0
0
0
0
0
0
0
0
0
0
0
0
0
0
0
0
0
0
0
0
0
0
0
0
0
0
0
0
0
0
0
0
0
0
0
0
0
0
0
0
0
0
0
0
0
0
0
0
0
0
0
0
0
0
0
0
0
0
0
0
0
0
0
0
0
0
0
0
0
0
0
0
0
0
0
0
0
0
0
0
0
0
0
0
0
0
0
0
0
0
0
0
0
0
0
0
0
0
0
0
0
0
0
0
0
0
0
0
0
0
0
0
0
0
0
0
0
0
0
0
0
0
0
0
0
0
0
0
0
0
0
0
0
0
0
0
0
0
0
0
0
0
0
0
0
0
0
0
0
0
0
0
0
0
0
0
0
0
0
0
0
0
0
0
0
3.0291e-46
1.22253e-46
4.85045e-47
1.89081e-47
7.23793e-48
2.71914e-48
1.00194e-48
3.61893e-49
1.28048e-49
4.43549e-50
1.50314e-50
4.98034e-51
1.61221e-51
5.09552e-52
1.5713e-52
4.72416e-53
1.38383e-53
3.94662e-54
1.09509e-54
2.95435e-55
7.74404e-56
1.97102e-56
4.86822e-57
1.16619e-57
2.7082e-58
6.09448e-59
1.32868e-59
2.80595e-60
5.74048e-61
1.13805e-61
2.18771e-62
4.0818e-63
7.40202e-64
1.30703e-64
2.25246e-65
3.79893e-66
6.28967e-67
1.02552e-67
1.65166e-68
2.6344e-69
4.16893e-70
6.55206e-71
1.02282e-71
1.58501e-72
2.43559e-73
3.7059e-74
5.57454e-75
8.27607e-76
1.21063e-76
1.742e-77
2.46181e-78
3.41188e-79
4.63102e-80
6.14841e-81
7.97542e-82
1.00969e-82
1.2463e-83
1.49841e-84
1.75306e-85
1.99387e-86
2.20247e-87
2.36047e-88
2.452e-89
2.46611e-90
2.39886e-91
2.25446e-92
2.04492e-93
1.78844e-94
1.50653e-95
1.2211e-96
9.51311e-98
7.11514e-99
5.1012e-100
3.5011e-101
2.297e-102
1.43843e-103