/*--------------------------------*- C++ -*----------------------------------*\
| =========                 |                                                 |
| \\      /  F ield         | OpenFOAM: The Open Source CFD Toolbox           |
|  \\    /   O peration     | Version:  2.4.0                                 |
|   \\  /    A nd           | Web:      www.OpenFOAM.org                      |
|    \\/     M anipulation  |                                                 |
\*---------------------------------------------------------------------------*/
FoamFile
{
    version     2.0;
    format      ascii;
    class       volScalarField;
    location    "1";
    object      H;
}
// * * * * * * * * * * * * * * * * * * * * * * * * * * * * * * * * * * * * * //

dimensions      [0 2 -2 0 0 0 0];

internalField   nonuniform List<scalar> 
8000
(
-11947.5
-11383.4
-10821.7
-10264
-9711.96
-9167.07
-8630.91
-8104.97
-7590.68
-7089.37
-6602.31
-6130.66
-5675.45
-5237.63
-4817.98
-4417.17
-4035.71
-3673.98
-3332.2
-3010.4
-2708.49
-2426.22
-2163.15
-1918.73
-1692.22
-1482.79
-1289.45
-1111.1
-946.539
-794.514
-653.738
-522.959
-401.025
-286.938
-179.879
-79.3397
-0.830351
-0.803269
-0.627844
-0.561716
-0.530044
-0.501069
-0.472926
-0.44567
-0.419424
-0.394301
-0.370388
-0.347748
-0.326412
-0.306386
-11950.3
-11391.7
-10835.1
-10282.3
-9734.57
-9193.56
-8660.73
-8137.57
-7625.49
-7125.83
-6639.87
-6168.81
-5713.71
-5275.54
-4855.15
-4453.25
-4070.4
-3707.01
-3363.33
-3039.47
-2735.36
-2450.75
-2185.27
-1938.35
-1709.29
-1497.26
-1301.28
-1120.25
-952.992
-798.249
-654.72
-521.069
-395.861
-277.292
-162.417
-45.5206
-0.572575
-0.564344
-0.474972
-0.46658
-0.461257
-0.451452
-0.438016
-0.422115
-0.404668
-0.386383
-0.367789
-0.349274
-0.33111
-0.313485
-11952.2
-11397.2
-10844.3
-10295
-9750.66
-9212.79
-8682.8
-8162.11
-7652.11
-7154.13
-6669.45
-6199.24
-5744.62
-5306.57
-4885.97
-4483.54
-4099.88
-3735.43
-3390.49
-3065.17
-2759.42
-2473.03
-2205.64
-1956.69
-1725.51
-1511.25
-1312.95
-1129.51
-959.732
-802.3
-655.82
-518.818
-389.696
-266.419
-145.182
-16.088
-0.247511
-0.313155
-0.333118
-0.368708
-0.389651
-0.397376
-0.396012
-0.388712
-0.3777
-0.364516
-0.350194
-0.33541
-0.320587
-0.305979
-11952.4
-11397.8
-10845.3
-10296.2
-9751.95
-9214.03
-8683.88
-8162.92
-7652.54
-7154.1
-6668.88
-6198.07
-5742.8
-5304.07
-4882.75
-4479.6
-4095.21
-3730.03
-3384.34
-3058.27
-2751.77
-2464.61
-2196.4
-1946.6
-1714.48
-1499.19
-1299.72
-1114.93
-943.545
-784.152
-635.215
-495.114
-362.308
-235.676
-115.055
-1.11266
-1.05019
-0.80307
-0.683828
-0.622806
-0.570314
-0.5237
-0.48262
-0.446671
-0.415351
-0.388093
-0.36431
-0.343423
-0.324896
-0.308254
-11952.2
-11397.3
-10844.4
-10294.9
-9750.26
-9211.9
-8681.25
-8159.76
-7648.81
-7149.77
-6663.92
-6192.48
-5736.57
-5297.21
-4875.28
-4471.54
-4086.58
-3720.86
-3374.65
-3048.07
-2741.04
-2453.34
-2184.56
-1934.11
-1701.26
-1485.12
-1284.66
-1098.72
-926.042
-765.289
-615.111
-474.237
-341.626
-216.649
-99.3613
-1.0952
-1.01423
-0.771793
-0.699552
-0.653333
-0.611377
-0.572462
-0.536401
-0.503036
-0.472201
-0.443718
-0.4174
-0.393055
-0.370493
-0.349536
-11951.5
-11395.1
-10840.7
-10289.7
-9743.53
-9203.7
-8671.62
-8148.75
-7636.5
-7136.24
-6649.27
-6176.82
-5720.02
-5279.88
-4857.29
-4453.01
-4067.62
-3701.57
-3355.1
-3028.32
-2721.14
-2433.28
-2164.32
-1913.63
-1680.45
-1463.85
-1262.77
-1076.01
-902.287
-740.189
-588.209
-444.714
-307.821
-174.741
-39.1141
-0.621463
-0.586775
-0.53109
-0.533065
-0.527913
-0.51558
-0.498986
-0.480183
-0.460486
-0.440688
-0.421225
-0.402308
-0.384015
-0.366352
-0.349297
-11950.8
-11393
-10837.2
-10284.8
-9737.36
-9196.22
-8662.89
-8138.81
-7625.41
-7124.08
-6636.12
-6162.77
-5705.16
-5264.32
-4841.12
-4436.33
-4050.51
-3684.11
-3337.35
-3010.32
-2702.9
-2414.8
-2145.54
-1894.49
-1660.82
-1443.57
-1241.62
-1053.71
-878.411
-714.155
-559.178
-411.595
-269.697
-132.636
-1.2671
-1.17629
-0.883892
-0.747924
-0.674514
-0.612949
-0.560819
-0.517284
-0.481241
-0.451441
-0.426613
-0.405572
-0.387284
-0.370904
-0.355783
-0.341453
-11949.9
-11390.5
-10833
-10279
-9729.91
-9187.16
-8652.27
-8126.7
-7611.9
-7109.25
-6620.09
-6145.65
-5687.09
-5245.41
-4821.51
-4416.12
-4029.83
-3663.03
-3315.96
-2988.66
-2681
-2392.64
-2123.08
-1871.63
-1637.45
-1419.52
-1216.69
-1027.7
-851.204
-685.842
-530.337
-383.631
-245.062
-114.486
-1.26629
-1.16383
-0.882927
-0.808522
-0.755837
-0.707738
-0.663442
-0.622695
-0.585206
-0.550664
-0.518761
-0.489206
-0.461735
-0.436118
-0.412157
-0.389684
-11949.2
-11388.4
-10829.5
-10274.2
-9723.73
-9179.72
-8643.62
-8116.91
-7601.05
-7097.43
-6607.39
-6132.17
-5672.92
-5230.66
-4806.26
-4400.46
-4013.82
-3646.73
-3299.4
-2971.85
-2663.92
-2375.25
-2105.3
-1853.36
-1618.55
-1399.84
-1196.05
-1005.91
-828.017
-660.87
-502.865
-352.318
-207.49
-65.9033
-0.992618
-0.859345
-0.716249
-0.681062
-0.650467
-0.621221
-0.593715
-0.567916
-0.543551
-0.520299
-0.497886
-0.476126
-0.454912
-0.434206
-0.414012
-0.39436
-11948.6
-11386.4
-10826.3
-10269.7
-9718.06
-9172.9
-8635.71
-8107.98
-7591.17
-7086.69
-6595.87
-6119.96
-5660.1
-5217.31
-4792.47
-4386.29
-3999.32
-3631.93
-3284.32
-2956.49
-2648.23
-2359.17
-2088.74
-1836.19
-1600.59
-1380.85
-1175.7
-983.733
-803.291
-632.445
-468.875
-309.988
-153.735
-1.44369
-1.09989
-0.7779
-0.621683
-0.544586
-0.495668
-0.466667
-0.450937
-0.442897
-0.438352
-0.434477
-0.429609
-0.422956
-0.414305
-0.403795
-0.391735
-0.378498
-11948
-11384.6
-10823.3
-10265.6
-9712.77
-9166.48
-8628.2
-8099.44
-7581.65
-7076.25
-6584.6
-6107.93
-5647.38
-5203.98
-4778.59
-4371.91
-3984.49
-3616.68
-3268.65
-2940.37
-2631.63
-2342.01
-2070.91
-1817.53
-1580.9
-1359.89
-1153.22
-959.482
-777.232
-605.072
-441.842
-286.834
-139.973
-1.4388
-1.34625
-1.00897
-0.921687
-0.861436
-0.806534
-0.75612
-0.709834
-0.667263
-0.628
-0.591679
-0.557984
-0.52665
-0.497454
-0.470207
-0.444741
-0.420908
-11947.5
-11383.1
-10820.7
-10261.9
-9708.17
-9160.95
-8621.79
-8092.2
-7573.64
-7067.55
-6575.26
-6098.02
-5636.97
-5193.11
-4767.31
-4360.25
-3972.46
-3604.29
-3255.86
-2927.15
-2617.89
-2327.65
-2055.8
-1801.54
-1563.88
-1341.72
-1133.83
-938.91
-755.642
-582.733
-418.967
-263.237
-114.52
-1.43458
-1.26118
-0.993898
-0.929911
-0.877682
-0.828976
-0.783294
-0.7404
-0.700088
-0.662174
-0.626483
-0.592857
-0.561145
-0.531216
-0.502947
-0.476231
-0.450969
-11947
-11381.8
-10818.6
-10259.1
-9704.57
-9156.67
-8616.88
-8086.73
-7567.67
-7061.13
-6568.45
-6090.86
-5629.5
-5185.37
-4759.31
-4352
-3963.94
-3595.46
-3246.69
-2917.54
-2607.76
-2316.89
-2044.26
-1789.06
-1550.29
-1326.79
-1117.26
-920.238
-734.079
-556.921
-386.577
-219.998
-50.8683
-0.888857
-0.773981
-0.718925
-0.718167
-0.70791
-0.690741
-0.669787
-0.647038
-0.623658
-0.600266
-0.577152
-0.55442
-0.53209
-0.510156
-0.488614
-0.467476
-0.44677
-11946.6
-11380.6
-10816.7
-10256.4
-9701.15
-9152.56
-8612.12
-8081.36
-7561.74
-7054.68
-6561.51
-6083.49
-5621.72
-5177.21
-4750.77
-4343.09
-3954.65
-3585.75
-3236.49
-2906.8
-2596.36
-2304.7
-2031.12
-1774.74
-1534.5
-1309.12
-1097.13
-896.801
-706.109
-522.774
-344.613
-170.481
-1.61432
-1.46587
-1.06242
-0.909498
-0.814785
-0.737992
-0.676802
-0.629102
-0.59236
-0.563974
-0.541537
-0.523004
-0.506766
-0.49165
-0.476878
-0.461992
-0.446774
-0.431176
-11946.3
-11379.5
-10814.8
-10253.7
-9697.73
-9148.4
-8607.26
-8075.82
-7555.56
-7047.9
-6554.17
-6075.61
-5613.34
-5168.33
-4741.42
-4333.25
-3944.3
-3574.85
-3224.99
-2894.59
-2583.34
-2290.7
-2015.96
-1758.18
-1516.27
-1288.97
-1074.89
-872.593
-680.733
-498.209
-324.372
-159.152
-1.64988
-1.53618
-1.15547
-1.07031
-1.00551
-0.945032
-0.888622
-0.836229
-0.787675
-0.742709
-0.701039
-0.662366
-0.6264
-0.592876
-0.561557
-0.532234
-0.504724
-0.478868
-11945.9
-11378.5
-10813.1
-10251.4
-9694.86
-9144.98
-8603.32
-8071.4
-7550.7
-7042.63
-6548.52
-6069.61
-5607
-5161.66
-4734.39
-4325.85
-3936.47
-3566.52
-3216.06
-2884.95
-2572.84
-2279.2
-2003.28
-1744.18
-1500.84
-1272.09
-1056.68
-853.364
-660.912
-478.194
-304.211
-138.114
-1.71881
-1.49487
-1.18865
-1.11593
-1.05408
-0.996366
-0.942288
-0.891519
-0.843768
-0.798781
-0.756342
-0.716268
-0.678401
-0.642606
-0.60876
-0.576753
-0.546483
-0.517854
-11945.6
-11377.6
-10811.8
-10249.6
-9692.6
-9142.34
-8600.35
-8068.14
-7547.18
-7038.89
-6544.59
-6065.49
-5602.68
-5157.13
-4729.63
-4320.79
-3931.05
-3560.65
-3209.63
-2877.83
-2564.9
-2270.26
-1993.2
-1732.77
-1487.92
-1257.42
-1039.89
-833.807
-637.397
-448.642
-265.301
-84.4161
-1.41949
-1.14911
-1.00506
-0.960972
-0.921306
-0.884396
-0.84986
-0.817076
-0.785475
-0.754647
-0.724356
-0.694505
-0.665093
-0.636178
-0.607845
-0.580186
-0.553287
-0.527218
-11945.4
-11376.8
-10810.4
-10247.8
-9690.27
-9139.54
-8597.11
-8064.49
-7543.15
-7034.49
-6539.83
-6060.38
-5597.23
-5151.31
-4723.4
-4314.11
-3923.86
-3552.86
-3201.15
-2868.53
-2554.62
-2258.83
-1980.37
-1718.24
-1471.26
-1237.99
-1016.72
-805.323
-601.005
-400.307
-200.128
-1.87108
-1.18945
-0.789793
-0.641177
-0.579744
-0.560147
-0.564292
-0.578705
-0.594546
-0.606894
-0.613612
-0.614271
-0.609359
-0.599758
-0.586453
-0.570373
-0.55233
-0.532996
-0.512903
-11945.1
-11375.9
-10808.9
-10245.6
-9687.47
-9136.11
-8593.06
-8059.82
-7537.88
-7028.63
-6533.39
-6053.37
-5589.64
-5143.13
-4714.61
-4304.66
-3913.69
-3541.9
-3189.27
-2855.61
-2540.48
-2243.24
-1963.05
-1698.85
-1449.39
-1213.24
-988.865
-774.76
-569.677
-372.95
-184.771
-1.8653
-1.74054
-1.29968
-1.20681
-1.13526
-1.06976
-1.00952
-0.953927
-0.902407
-0.85448
-0.809767
-0.767968
-0.728838
-0.692169
-0.657774
-0.625475
-0.595106
-0.566504
-0.539517
-11944.8
-11375
-10807.5
-10243.6
-9684.91
-9133.02
-8589.46
-8055.74
-7533.33
-7023.63
-6527.95
-6047.48
-5583.29
-5136.29
-4707.23
-4296.69
-3905.03
-3532.44
-3178.89
-2844.13
-2527.71
-2228.99
-1947.13
-1681.12
-1429.83
-1192.08
-966.653
-752.444
-548.494
-354.049
-168.58
-2.01683
-1.75732
-1.39781
-1.31658
-1.24556
-1.17874
-1.11575
-1.05633
-1.00027
-0.947362
-0.897439
-0.850339
-0.805909
-0.764002
-0.724473
-0.687181
-0.651987
-0.618756
-0.587358
-0.287651
-0.270168
-0.253884
-0.238733
-0.224643
-0.211537
-0.199339
-0.187974
-0.177369
-0.167455
-0.158171
-0.149459
-0.141268
-0.133552
-0.126271
-0.119389
-0.112876
-0.106704
-0.100851
-0.0952963
-0.0900218
-0.0850121
-0.0802535
-0.0757334
-0.0714407
-0.0673651
-0.0634971
-0.0598276
-0.0563483
-0.053051
-0.0499279
-0.0469716
-0.0441748
-0.0415304
-0.0390316
-0.0366716
-0.0344441
-0.0323428
-0.0303615
-0.0284943
-0.0267355
-0.0250796
-0.0235213
-0.0220555
-0.0206772
-0.0193818
-0.0181647
-0.0170216
-0.0159485
-0.0149413
-0.296518
-0.28028
-0.264806
-0.250107
-0.236175
-0.222991
-0.210529
-0.198759
-0.187646
-0.177156
-0.167254
-0.157906
-0.14908
-0.140743
-0.132865
-0.125419
-0.118379
-0.111719
-0.105417
-0.0994523
-0.0938057
-0.0884595
-0.083397
-0.0786032
-0.074064
-0.0697664
-0.0656982
-0.061848
-0.0582051
-0.0547594
-0.0515014
-0.0484219
-0.0455125
-0.0427647
-0.0401708
-0.0377232
-0.0354147
-0.0332383
-0.0311874
-0.0292556
-0.0274367
-0.025725
-0.0241147
-0.0226005
-0.0211772
-0.0198398
-0.0185838
-0.0174045
-0.0162977
-0.0152593
-0.291726
-0.2779
-0.264532
-0.251633
-0.2392
-0.227229
-0.215713
-0.204648
-0.194028
-0.183848
-0.174103
-0.164786
-0.155888
-0.147402
-0.139316
-0.131619
-0.124298
-0.117341
-0.110734
-0.104462
-0.0985116
-0.0928695
-0.0875217
-0.0824551
-0.0776568
-0.0731142
-0.0688154
-0.0647488
-0.0609033
-0.0572682
-0.0538334
-0.0505891
-0.0475258
-0.0446347
-0.0419072
-0.0393349
-0.0369101
-0.0346253
-0.0324731
-0.0304467
-0.0285396
-0.0267454
-0.025058
-0.0234718
-0.0219813
-0.0205812
-0.0192665
-0.0180325
-0.0168746
-0.0157886
-0.293093
-0.279083
-0.265969
-0.253557
-0.241709
-0.230332
-0.219364
-0.208772
-0.198537
-0.18865
-0.179112
-0.169921
-0.161081
-0.152592
-0.144454
-0.136663
-0.129216
-0.122107
-0.115329
-0.108873
-0.102729
-0.0968888
-0.0913407
-0.0860744
-0.0810791
-0.0763439
-0.071858
-0.0676108
-0.0635917
-0.0597906
-0.0561975
-0.0528026
-0.0495965
-0.0465701
-0.0437146
-0.0410217
-0.038483
-0.0360909
-0.0338378
-0.0317164
-0.02972
-0.0278418
-0.0260757
-0.0244155
-0.0228556
-0.0213903
-0.0200146
-0.0187235
-0.0175121
-0.016376
-0.330019
-0.311794
-0.294731
-0.278716
-0.263652
-0.249454
-0.236049
-0.223377
-0.211381
-0.200015
-0.189237
-0.17901
-0.169301
-0.16008
-0.151321
-0.142999
-0.135092
-0.12758
-0.120444
-0.113666
-0.10723
-0.101122
-0.0953257
-0.0898281
-0.0846159
-0.0796765
-0.0749978
-0.070568
-0.0663758
-0.0624104
-0.0586612
-0.0551181
-0.0517714
-0.0486115
-0.0456293
-0.0428162
-0.0401637
-0.0376638
-0.0353085
-0.0330907
-0.031003
-0.0290386
-0.0271912
-0.0254543
-0.023822
-0.0222887
-0.0208489
-0.0194974
-0.0182294
-0.01704
-0.33282
-0.316896
-0.301509
-0.286654
-0.272328
-0.258534
-0.245276
-0.232555
-0.220369
-0.208714
-0.197583
-0.186964
-0.176844
-0.167208
-0.158039
-0.14932
-0.141033
-0.133161
-0.125684
-0.118587
-0.111852
-0.105463
-0.0994049
-0.0936619
-0.08822
-0.0830652
-0.0781842
-0.0735644
-0.0691935
-0.0650597
-0.0611518
-0.0574589
-0.0539706
-0.050677
-0.0475685
-0.0446359
-0.0418703
-0.0392635
-0.0368072
-0.0344938
-0.0323158
-0.0302662
-0.0283381
-0.0265252
-0.0248212
-0.0232201
-0.0217165
-0.0203049
-0.0189802
-0.0177376
-0.327604
-0.314051
-0.300703
-0.287535
-0.27456
-0.261815
-0.249345
-0.237194
-0.225402
-0.213999
-0.203009
-0.192444
-0.182312
-0.172613
-0.163342
-0.154494
-0.146056
-0.138018
-0.130366
-0.123086
-0.116166
-0.10959
-0.103345
-0.0974169
-0.0917932
-0.0864606
-0.0814066
-0.0766188
-0.0720855
-0.0677952
-0.0637367
-0.0598994
-0.0562728
-0.052847
-0.0496123
-0.0465594
-0.0436794
-0.0409637
-0.038404
-0.0359924
-0.0337214
-0.0315836
-0.029572
-0.0276801
-0.0259014
-0.0242298
-0.0226595
-0.021185
-0.019801
-0.0185024
-0.36856
-0.34867
-0.329914
-0.312208
-0.295478
-0.27966
-0.264695
-0.250528
-0.237109
-0.224393
-0.212337
-0.200901
-0.190049
-0.179747
-0.169965
-0.160674
-0.151849
-0.143466
-0.135501
-0.127937
-0.120752
-0.113931
-0.107456
-0.101311
-0.0954816
-0.089954
-0.0847146
-0.0797502
-0.0750486
-0.0705978
-0.0663862
-0.0624029
-0.0586371
-0.0550785
-0.0517173
-0.048544
-0.0455493
-0.0427244
-0.040061
-0.0375508
-0.0351861
-0.0329594
-0.0308635
-0.0288916
-0.0270372
-0.0252939
-0.0236558
-0.0221171
-0.0206725
-0.0193166
-0.37529
-0.356843
-0.339052
-0.32194
-0.305522
-0.2898
-0.27477
-0.260421
-0.246734
-0.233691
-0.221268
-0.209441
-0.198185
-0.187476
-0.177291
-0.167605
-0.158398
-0.149647
-0.141332
-0.133433
-0.125933
-0.118813
-0.112057
-0.105647
-0.0995687
-0.0938066
-0.0883465
-0.0831745
-0.0782772
-0.073642
-0.0692565
-0.0651089
-0.061188
-0.0574828
-0.0539829
-0.0506783
-0.0475594
-0.0446169
-0.0418421
-0.0392264
-0.0367618
-0.0344405
-0.032255
-0.0301983
-0.0282636
-0.0264444
-0.0247345
-0.0231279
-0.0216191
-0.0202026
-0.36445
-0.349915
-0.335166
-0.320415
-0.305826
-0.291519
-0.277578
-0.26406
-0.250999
-0.238416
-0.226319
-0.214708
-0.203581
-0.192928
-0.18274
-0.173005
-0.16371
-0.154842
-0.146387
-0.138332
-0.130662
-0.123365
-0.116426
-0.109831
-0.103568
-0.0976221
-0.0919812
-0.0866323
-0.0815627
-0.0767604
-0.0722134
-0.0679103
-0.0638398
-0.0599912
-0.0563539
-0.052918
-0.0496737
-0.0466117
-0.043723
-0.040999
-0.0384313
-0.0360121
-0.0337337
-0.0315888
-0.0295705
-0.027672
-0.025887
-0.0242094
-0.0226334
-0.0211534
-0.398572
-0.377608
-0.357901
-0.339342
-0.321835
-0.30529
-0.289627
-0.274776
-0.260675
-0.247268
-0.234508
-0.222354
-0.210771
-0.199727
-0.189195
-0.179152
-0.169576
-0.160447
-0.151747
-0.143459
-0.135567
-0.128055
-0.12091
-0.114115
-0.107658
-0.101525
-0.0957027
-0.0901779
-0.0849383
-0.0799715
-0.0752657
-0.0708094
-0.0665913
-0.0626007
-0.058827
-0.0552602
-0.0518903
-0.0487081
-0.0457043
-0.0428703
-0.0401977
-0.0376784
-0.0353046
-0.0330689
-0.0309642
-0.0289836
-0.0271207
-0.025369
-0.0237228
-0.0221763
-0.427074
-0.404462
-0.38306
-0.362796
-0.343603
-0.325421
-0.308189
-0.291854
-0.276362
-0.261666
-0.247721
-0.234485
-0.221918
-0.209985
-0.198652
-0.187887
-0.177662
-0.167949
-0.158723
-0.14996
-0.141639
-0.133738
-0.126237
-0.119118
-0.112362
-0.105954
-0.0998761
-0.0941142
-0.0886534
-0.0834796
-0.0785796
-0.0739405
-0.0695502
-0.065397
-0.0614694
-0.0577569
-0.054249
-0.0509359
-0.0478079
-0.0448561
-0.0420715
-0.0394459
-0.0369713
-0.0346398
-0.0324441
-0.0303773
-0.0284324
-0.0266032
-0.0248834
-0.0232671
-0.426532
-0.406805
-0.387632
-0.369051
-0.35109
-0.333773
-0.317113
-0.301114
-0.285775
-0.271089
-0.257045
-0.243628
-0.23082
-0.218602
-0.206955
-0.195858
-0.18529
-0.175231
-0.16566
-0.156557
-0.147903
-0.13968
-0.131868
-0.12445
-0.117408
-0.110726
-0.104389
-0.0983793
-0.0926835
-0.087287
-0.0821758
-0.0773367
-0.0727571
-0.0684245
-0.0643273
-0.0604542
-0.0567943
-0.0533373
-0.0500732
-0.0469924
-0.0440858
-0.0413446
-0.0387605
-0.0363255
-0.0340317
-0.031872
-0.0298393
-0.0279269
-0.0261284
-0.0244376
-0.41525
-0.399106
-0.382877
-0.366693
-0.350673
-0.334918
-0.319506
-0.3045
-0.289941
-0.275859
-0.262272
-0.24919
-0.236615
-0.224545
-0.212974
-0.201893
-0.191291
-0.181158
-0.17148
-0.162245
-0.153437
-0.145044
-0.137051
-0.129444
-0.122208
-0.11533
-0.108795
-0.10259
-0.0967012
-0.0911152
-0.0858192
-0.0808005
-0.0760469
-0.0715463
-0.0672874
-0.0632588
-0.0594499
-0.0558502
-0.0524496
-0.0492386
-0.0462078
-0.0433483
-0.0406516
-0.0381094
-0.0357139
-0.0334575
-0.031333
-0.0293336
-0.0274525
-0.0256836
-0.454523
-0.431564
-0.409877
-0.389361
-0.369924
-0.351484
-0.333967
-0.317305
-0.301442
-0.286323
-0.271904
-0.258145
-0.245009
-0.232466
-0.220487
-0.209047
-0.198124
-0.187696
-0.177745
-0.168252
-0.159199
-0.150571
-0.142351
-0.134524
-0.127075
-0.11999
-0.113253
-0.106852
-0.100772
-0.0950006
-0.0895245
-0.0843312
-0.0794085
-0.0747445
-0.0703278
-0.0661471
-0.0621916
-0.0584511
-0.0549152
-0.0515745
-0.0484194
-0.0454409
-0.0426305
-0.0399798
-0.0374806
-0.0351255
-0.032907
-0.030818
-0.0288519
-0.0270021
-0.490774
-0.465153
-0.440907
-0.417954
-0.396217
-0.375623
-0.356101
-0.337587
-0.320021
-0.303347
-0.287512
-0.272469
-0.258173
-0.244585
-0.231665
-0.21938
-0.207698
-0.196587
-0.186021
-0.175974
-0.16642
-0.157336
-0.148702
-0.140496
-0.132699
-0.125293
-0.11826
-0.111583
-0.105246
-0.0992334
-0.0935314
-0.0881255
-0.0830023
-0.0781487
-0.0735525
-0.0692016
-0.0650846
-0.0611906
-0.0575088
-0.0540292
-0.0507421
-0.047638
-0.0447079
-0.0419434
-0.039336
-0.0368778
-0.0345613
-0.0323793
-0.0303246
-0.0283907
-0.502032
-0.477766
-0.454437
-0.43205
-0.4106
-0.39007
-0.37044
-0.351684
-0.333774
-0.31668
-0.300372
-0.28482
-0.269994
-0.255865
-0.242403
-0.229582
-0.217374
-0.205753
-0.194695
-0.184176
-0.174171
-0.164659
-0.155617
-0.147026
-0.138865
-0.131114
-0.123756
-0.116773
-0.110147
-0.103863
-0.0979048
-0.0922572
-0.0869059
-0.0818371
-0.0770377
-0.0724949
-0.0681966
-0.0641311
-0.0602871
-0.0566541
-0.0532217
-0.04998
-0.0469197
-0.0440317
-0.0413073
-0.0387383
-0.0363168
-0.0340351
-0.0318861
-0.0298628
-0.492466
-0.471993
-0.45171
-0.431777
-0.412305
-0.393366
-0.375006
-0.357255
-0.340125
-0.323621
-0.307743
-0.292485
-0.277839
-0.263793
-0.250336
-0.237454
-0.225132
-0.213356
-0.202109
-0.191375
-0.181137
-0.171379
-0.162083
-0.153233
-0.144811
-0.136801
-0.129187
-0.121953
-0.115082
-0.108559
-0.10237
-0.0964988
-0.0909328
-0.0856578
-0.0806606
-0.0759285
-0.0714492
-0.0672108
-0.0632021
-0.059412
-0.0558301
-0.0524461
-0.0492504
-0.0462338
-0.0433872
-0.0407022
-0.0381705
-0.0357843
-0.0335361
-0.0314188
-0.513999
-0.489816
-0.466846
-0.444981
-0.424126
-0.404199
-0.385131
-0.366864
-0.34935
-0.332549
-0.316428
-0.30096
-0.28612
-0.271888
-0.258244
-0.245172
-0.232655
-0.220677
-0.209223
-0.198275
-0.187819
-0.177838
-0.168318
-0.159241
-0.150593
-0.142358
-0.13452
-0.127064
-0.119975
-0.113238
-0.10684
-0.100765
-0.0950004
-0.0895327
-0.084349
-0.0794366
-0.0747835
-0.0703777
-0.066208
-0.0622634
-0.0585333
-0.0550075
-0.0516761
-0.0485298
-0.0455595
-0.0427563
-0.0401121
-0.0376188
-0.0352687
-0.0330544
-0.557671
-0.529577
-0.502969
-0.477744
-0.453811
-0.431084
-0.409487
-0.388949
-0.369407
-0.350804
-0.333086
-0.316207
-0.300123
-0.284793
-0.270181
-0.256253
-0.242976
-0.230321
-0.21826
-0.206767
-0.195818
-0.185388
-0.175456
-0.166
-0.157
-0.148436
-0.140291
-0.132547
-0.125185
-0.118191
-0.111548
-0.105241
-0.0992549
-0.0935762
-0.0881911
-0.0830864
-0.0782496
-0.0736683
-0.0693309
-0.065226
-0.0613428
-0.0576707
-0.0541997
-0.0509201
-0.0478226
-0.0448982
-0.0421384
-0.039535
-0.03708
-0.0347659
-0.0142133
-0.013721
-0.0132429
-0.0127787
-0.0123282
-0.0118911
-0.011467
-0.0110557
-0.0106569
-0.0102705
-0.00989595
-0.00953316
-0.00918181
-0.00884165
-0.0085124
-0.00819381
-0.00788561
-0.00758756
-0.0072994
-0.00702088
-0.00675175
-0.00649178
-0.00624071
-0.00599831
-0.00576435
-0.00553859
-0.00532081
-0.00511079
-0.0049083
-0.00471313
-0.00452505
-0.00434388
-0.00416938
-0.00400138
-0.00383966
-0.00368403
-0.0035343
-0.00339028
-0.00325179
-0.00311865
-0.00299069
-0.00286773
-0.0027496
-0.00263614
-0.00252719
-0.00242259
-0.00232219
-0.00222584
-0.0021334
-0.00204472
-0.00195967
-0.00187811
-0.00179992
-0.00172496
-0.00165311
-0.00158426
-0.00151829
-0.00145508
-0.00139452
-0.00133652
-0.00128096
-0.00122775
-0.0011768
-0.00112801
-0.00108129
-0.00103655
-0.000993719
-0.000952707
-0.000913438
-0.000875839
-0.000839837
-0.000805362
-0.00077235
-0.000740735
-0.000710455
-0.000681453
-0.000653671
-0.000627055
-0.000601553
-0.000577115
-0.000553693
-0.000531242
-0.000509717
-0.000489077
-0.000469282
-0.000450294
-0.000432076
-0.000414594
-0.000397815
-0.000381707
-0.00036624
-0.000351385
-0.000337116
-0.000323406
-0.000310231
-0.000297567
-0.000285393
-0.000273686
-0.000262428
-0.000251598
-0.00024118
-0.000231156
-0.000221509
-0.000212225
-0.000203289
-0.000194686
-0.000186404
-0.000178431
-0.000170753
-0.000163362
-0.000156244
-0.000149391
-0.000142793
-0.000136441
-0.000130326
-0.000124439
-0.000118774
-0.000113321
-0.000108075
-0.000103028
-9.81744e-05
-9.35067e-05
-8.90194e-05
-8.47067e-05
-8.05632e-05
-7.65833e-05
-7.27619e-05
-6.90942e-05
-6.55752e-05
-6.22002e-05
-5.89649e-05
-5.58647e-05
-5.28955e-05
-5.00531e-05
-4.73335e-05
-4.47328e-05
-4.22471e-05
-3.98728e-05
-3.7606e-05
-3.54434e-05
-3.33814e-05
-3.14166e-05
-2.95457e-05
-2.77653e-05
-2.60724e-05
-2.44637e-05
-2.29361e-05
-2.14868e-05
-2.01126e-05
-1.88108e-05
-1.75786e-05
-1.6413e-05
-1.53115e-05
-1.42715e-05
-1.32903e-05
-1.23654e-05
-1.14943e-05
-1.06747e-05
-9.90431e-06
-9.18075e-06
-8.50185e-06
-7.86548e-06
-7.26955e-06
-6.71204e-06
-6.19101e-06
-5.70457e-06
-5.25089e-06
-4.82821e-06
-4.43483e-06
-4.06912e-06
-3.72949e-06
-3.41444e-06
-3.12252e-06
-2.85233e-06
-2.60254e-06
-2.37189e-06
-2.15915e-06
-1.96318e-06
-1.78285e-06
-1.61714e-06
-1.46503e-06
-1.32559e-06
-1.19793e-06
-1.08119e-06
-9.74582e-07
-8.77352e-07
-7.88792e-07
-7.08236e-07
-6.35059e-07
-5.68676e-07
-5.08538e-07
-4.54135e-07
-4.04987e-07
-3.6065e-07
-3.20711e-07
-2.84786e-07
-2.52518e-07
-2.23579e-07
-1.97662e-07
-1.74489e-07
-1.53799e-07
-1.35356e-07
-1.18941e-07
-1.04353e-07
-9.14109e-08
-7.99463e-08
-6.98073e-08
-6.08552e-08
-5.29642e-08
-4.60201e-08
-3.99196e-08
-3.45693e-08
-2.98851e-08
-2.57911e-08
-2.22192e-08
-1.91083e-08
-1.64039e-08
-1.4057e-08
-1.2024e-08
-1.02663e-08
-8.74939e-09
-7.4427e-09
-6.31925e-09
-5.35519e-09
-4.52949e-09
-3.82369e-09
-3.22155e-09
-2.70888e-09
-2.27324e-09
-1.90383e-09
-1.5912e-09
-1.32716e-09
-1.10462e-09
-9.17473e-10
-7.60433e-10
-6.28909e-10
-5.19021e-10
-4.27391e-10
-3.51144e-10
-2.87823e-10
-2.35437e-10
-1.92099e-10
-1.56401e-10
-1.26999e-10
-1.02894e-10
-8.31819e-11
-6.70904e-11
-5.39693e-11
-4.32905e-11
-3.46004e-11
-2.75902e-11
-2.19436e-11
-1.74069e-11
-1.37715e-11
-1.08662e-11
-8.55095e-12
-6.71109e-12
-5.25324e-12
-4.10137e-12
-3.19381e-12
-2.4807e-12
-1.92187e-12
-1.48512e-12
-1.14467e-12
-8.79994e-13
-6.74764e-13
-5.1605e-13
-3.93637e-13
-2.99474e-13
-2.27235e-13
-1.71964e-13
-1.29791e-13
-9.76969e-14
-7.33406e-14
-5.49065e-14
-4.0993e-14
-3.05205e-14
-2.26599e-14
-1.67763e-14
-1.23849e-14
-9.11668e-15
-6.69132e-15
-4.89672e-15
-3.57276e-15
-2.59893e-15
-1.8848e-15
-1.36272e-15
-9.82228e-16
-7.05809e-16
-5.05652e-16
-3.61211e-16
-2.57358e-16
-1.82996e-16
-1.30022e-16
-9.25446e-17
-6.6318e-17
-4.83135e-17
-3.6415e-17
-2.92017e-17
-2.58014e-17
-0.0145087
-0.0140013
-0.0135086
-0.0130303
-0.0125662
-0.0121159
-0.0116793
-0.0112559
-0.0108455
-0.0104478
-0.0100626
-0.00968945
-0.00932821
-0.00897856
-0.00864023
-0.00831294
-0.00799643
-0.00769042
-0.00739466
-0.00710888
-0.00683283
-0.00656626
-0.0063089
-0.00606052
-0.00582086
-0.0055897
-0.00536678
-0.00515189
-0.00494478
-0.00474523
-0.00455303
-0.00436794
-0.00418976
-0.00401828
-0.00385328
-0.00369458
-0.00354196
-0.00339523
-0.0032542
-0.00311869
-0.00298851
-0.00286348
-0.00274344
-0.0026282
-0.0025176
-0.00241148
-0.00230968
-0.00221205
-0.00211843
-0.00202868
-0.00194266
-0.00186023
-0.00178124
-0.00170558
-0.00163311
-0.00156371
-0.00149726
-0.00143364
-0.00137275
-0.00131446
-0.00125868
-0.0012053
-0.00115422
-0.00110536
-0.00105861
-0.00101388
-0.000971097
-0.00093017
-0.00089102
-0.000853571
-0.000817747
-0.000783477
-0.000750693
-0.00071933
-0.000689322
-0.00066061
-0.000633136
-0.000606843
-0.000581677
-0.000557587
-0.000534524
-0.000512442
-0.000491294
-0.000471038
-0.000451634
-0.000433041
-0.000415222
-0.000398142
-0.000381766
-0.000366063
-0.000351002
-0.000336552
-0.000322687
-0.00030938
-0.000296606
-0.00028434
-0.00027256
-0.000261244
-0.000250373
-0.000239925
-0.000229884
-0.000220232
-0.000210952
-0.000202028
-0.000193446
-0.000185191
-0.000177251
-0.000169612
-0.000162262
-0.000155191
-0.000148387
-0.000141841
-0.000135542
-0.000129481
-0.00012365
-0.00011804
-0.000112644
-0.000107453
-0.000102461
-9.7661e-05
-9.30461e-05
-8.86103e-05
-8.43476e-05
-8.02523e-05
-7.63188e-05
-7.2542e-05
-6.89166e-05
-6.54379e-05
-6.21011e-05
-5.89017e-05
-5.58353e-05
-5.28976e-05
-5.00845e-05
-4.7392e-05
-4.48162e-05
-4.23534e-05
-3.99997e-05
-3.77517e-05
-3.56059e-05
-3.35587e-05
-3.16069e-05
-2.97473e-05
-2.79766e-05
-2.62917e-05
-2.46895e-05
-2.31671e-05
-2.17215e-05
-2.035e-05
-1.90496e-05
-1.78176e-05
-1.66514e-05
-1.55484e-05
-1.4506e-05
-1.35216e-05
-1.25929e-05
-1.17174e-05
-1.08929e-05
-1.01171e-05
-9.38774e-06
-8.7027e-06
-8.05991e-06
-7.45734e-06
-6.89301e-06
-6.36504e-06
-5.87156e-06
-5.4108e-06
-4.98103e-06
-4.58059e-06
-4.20787e-06
-3.86132e-06
-3.53947e-06
-3.24087e-06
-2.96416e-06
-2.70802e-06
-2.4712e-06
-2.25249e-06
-2.05074e-06
-1.86486e-06
-1.69381e-06
-1.53659e-06
-1.39227e-06
-1.25994e-06
-1.13878e-06
-1.02796e-06
-9.26752e-07
-8.3443e-07
-7.50327e-07
-6.73813e-07
-6.04297e-07
-5.41224e-07
-4.84076e-07
-4.32368e-07
-3.85647e-07
-3.43493e-07
-3.05513e-07
-2.71343e-07
-2.40647e-07
-2.13111e-07
-1.88447e-07
-1.66389e-07
-1.46692e-07
-1.29129e-07
-1.13494e-07
-9.95976e-08
-8.72652e-08
-7.63386e-08
-6.66731e-08
-5.81373e-08
-5.06113e-08
-4.39869e-08
-3.81658e-08
-3.30593e-08
-2.85873e-08
-2.46778e-08
-2.12661e-08
-1.82938e-08
-1.57092e-08
-1.34656e-08
-1.15217e-08
-9.84038e-09
-8.38897e-09
-7.13835e-09
-6.06278e-09
-5.13951e-09
-4.34852e-09
-3.67216e-09
-3.09494e-09
-2.60332e-09
-2.1854e-09
-1.83091e-09
-1.5308e-09
-1.27728e-09
-1.0635e-09
-8.8365e-10
-7.3266e-10
-6.06153e-10
-5.00359e-10
-4.12178e-10
-3.38809e-10
-2.77801e-10
-2.27301e-10
-1.85526e-10
-1.51119e-10
-1.22754e-10
-9.94918e-11
-8.04426e-11
-6.4867e-11
-5.21381e-11
-4.1753e-11
-3.33536e-11
-2.65813e-11
-2.1133e-11
-1.67599e-11
-1.32581e-11
-1.04611e-11
-8.23287e-12
-6.4626e-12
-5.06002e-12
-3.95177e-12
-3.07845e-12
-2.39207e-12
-1.85404e-12
-1.43338e-12
-1.10534e-12
-8.50198e-13
-6.52269e-13
-4.99127e-13
-3.8095e-13
-2.89995e-13
-2.20178e-13
-1.66729e-13
-1.2592e-13
-9.48454e-14
-7.12472e-14
-5.33751e-14
-3.98767e-14
-2.97096e-14
-2.2073e-14
-1.6353e-14
-1.20807e-14
-8.89883e-15
-6.53588e-15
-4.78622e-15
-3.49448e-15
-2.54368e-15
-1.84594e-15
-1.33549e-15
-9.63217e-16
-6.92582e-16
-4.96481e-16
-3.54873e-16
-2.52991e-16
-1.79996e-16
-1.27963e-16
-9.11326e-17
-6.53457e-17
-4.76363e-17
-3.59312e-17
-2.88382e-17
-2.55037e-17
-0.0150038
-0.0144733
-0.0139583
-0.0134585
-0.0129736
-0.0125032
-0.012047
-0.0116048
-0.0111763
-0.0107611
-0.010359
-0.00996963
-0.00959273
-0.009228
-0.00887515
-0.00853391
-0.00820398
-0.00788509
-0.00757696
-0.00727932
-0.00699189
-0.0067144
-0.0064466
-0.00618823
-0.00593902
-0.00569872
-0.00546708
-0.00524387
-0.00502882
-0.00482172
-0.00462232
-0.00443039
-0.00424571
-0.00406805
-0.0038972
-0.00373295
-0.00357508
-0.00342338
-0.00327767
-0.00313774
-0.00300339
-0.00287445
-0.00275072
-0.00263203
-0.0025182
-0.00240906
-0.00230444
-0.00220418
-0.00210812
-0.00201611
-0.001928
-0.00184363
-0.00176287
-0.00168558
-0.00161163
-0.00154088
-0.00147321
-0.00140849
-0.00134661
-0.00128745
-0.0012309
-0.00117685
-0.0011252
-0.00107584
-0.00102869
-0.000983638
-0.000940603
-0.000899495
-0.000860231
-0.000822728
-0.000786909
-0.000752699
-0.000720024
-0.000688817
-0.000659009
-0.000630538
-0.000603341
-0.00057736
-0.000552538
-0.000528822
-0.000506159
-0.0004845
-0.000463798
-0.000444007
-0.000425085
-0.00040699
-0.000389684
-0.000373127
-0.000357286
-0.000342125
-0.000327614
-0.00031372
-0.000300414
-0.00028767
-0.000275459
-0.000263759
-0.000252543
-0.000241791
-0.000231481
-0.000221592
-0.000212105
-0.000203002
-0.000194266
-0.00018588
-0.00017783
-0.000170099
-0.000162675
-0.000155545
-0.000148696
-0.000142116
-0.000135794
-0.00012972
-0.000123883
-0.000118275
-0.000112887
-0.000107709
-0.000102734
-9.79543e-05
-9.33626e-05
-8.89519e-05
-8.47156e-05
-8.06476e-05
-7.67419e-05
-7.29927e-05
-6.93946e-05
-6.59423e-05
-6.2631e-05
-5.94558e-05
-5.64121e-05
-5.34955e-05
-5.07017e-05
-4.80266e-05
-4.54662e-05
-4.30167e-05
-4.06743e-05
-3.84355e-05
-3.62968e-05
-3.42548e-05
-3.23061e-05
-3.04476e-05
-2.86761e-05
-2.69887e-05
-2.53822e-05
-2.38538e-05
-2.24008e-05
-2.10203e-05
-1.97096e-05
-1.84661e-05
-1.72872e-05
-1.61704e-05
-1.51133e-05
-1.41135e-05
-1.31686e-05
-1.22764e-05
-1.14345e-05
-1.06409e-05
-9.89352e-06
-9.19017e-06
-8.52891e-06
-7.90778e-06
-7.3249e-06
-6.77844e-06
-6.2666e-06
-5.78767e-06