/*--------------------------------*- C++ -*----------------------------------*\
| =========                 |                                                 |
| \\      /  F ield         | OpenFOAM: The Open Source CFD Toolbox           |
|  \\    /   O peration     | Version:  2.4.0                                 |
|   \\  /    A nd           | Web:      www.OpenFOAM.org                      |
|    \\/     M anipulation  |                                                 |
\*---------------------------------------------------------------------------*/
FoamFile
{
    version     2.0;
    format      ascii;
    class       volScalarField;
    location    "1";
    object      p;
}
// * * * * * * * * * * * * * * * * * * * * * * * * * * * * * * * * * * * * * //

dimensions      [1 -1 -2 0 0 0 0];

internalField   nonuniform List<scalar> 
8000
(
0.51195
0.502344
0.493871
0.487232
0.481723
0.476944
0.472767
0.469134
0.46598
0.463244
0.460868
0.458802
0.457003
0.455434
0.45406
0.452855
0.451789
0.450846
0.450002
0.449246
0.448561
0.44794
0.44737
0.446851
0.446375
0.445949
0.44557
0.445237
0.444881
0.444456
0.444337
0.44623
0.451802
0.451487
0.40302
0.265059
0.193574
-0.0157466
-0.0117529
-0.0111901
-0.0111538
-0.0111569
-0.0111622
-0.0111639
-0.0111639
-0.0111636
-0.0111634
-0.0111633
-0.0111631
-0.0111634
-0.0531709
-0.0592355
-0.0666168
-0.0734571
-0.0795018
-0.0849046
-0.089771
-0.0941409
-0.0980338
-0.101469
-0.104464
-0.107036
-0.109197
-0.110961
-0.112335
-0.113328
-0.113945
-0.114191
-0.114067
-0.113576
-0.112715
-0.111486
-0.10988
-0.1079
-0.10553
-0.102764
-0.0995822
-0.0960385
-0.0922729
-0.0883172
-0.0827791
-0.0714691
-0.0538038
-0.0645737
-0.209559
-0.49932
-0.186746
-0.0449161
-0.0339314
-0.0336514
-0.0336243
-0.0336291
-0.0336319
-0.0336309
-0.0336287
-0.0336266
-0.0336246
-0.0336226
-0.0336208
-0.0336194
0.142543
0.139972
0.137539
0.135208
0.132783
0.130201
0.127467
0.124588
0.121567
0.118402
0.115091
0.111631
0.108017
0.104246
0.100311
0.096207
0.0919279
0.0874644
0.0828119
0.0779581
0.0728988
0.0676186
0.0621142
0.056366
0.0503767
0.0441305
0.0376318
0.0307687
0.023315
0.0152228
0.00855032
0.00923471
0.0171828
-0.0200629
-0.254476
-0.677389
-0.226431
-0.0630214
-0.0561779
-0.0559718
-0.0559627
-0.0559677
-0.0559694
-0.0559689
-0.0559678
-0.0559668
-0.0559659
-0.055965
-0.0559642
-0.0559638
-0.117506
-0.119508
-0.122073
-0.124638
-0.127102
-0.129492
-0.131826
-0.134106
-0.136328
-0.138488
-0.140585
-0.142619
-0.144587
-0.14649
-0.148327
-0.150098
-0.151803
-0.153444
-0.155019
-0.156532
-0.157982
-0.159372
-0.160702
-0.161978
-0.163196
-0.164358
-0.165466
-0.166586
-0.16783
-0.169096
-0.169006
-0.164623
-0.159094
-0.187149
-0.322897
-0.494067
-0.16025
-0.0792443
-0.0784485
-0.0783831
-0.0783857
-0.0783921
-0.078393
-0.0783918
-0.0783902
-0.0783889
-0.0783875
-0.0783862
-0.0783851
-0.0783843
-0.0906382
-0.0919107
-0.093233
-0.0945953
-0.0960724
-0.0976917
-0.0994522
-0.10135
-0.103382
-0.105548
-0.107846
-0.110276
-0.112838
-0.115529
-0.118351
-0.121302
-0.124382
-0.127591
-0.130928
-0.134394
-0.137987
-0.141709
-0.145558
-0.149537
-0.153639
-0.157865
-0.162227
-0.166793
-0.171619
-0.17633
-0.179302
-0.17907
-0.185234
-0.238468
-0.374775
-0.40219
-0.138967
-0.10159
-0.10079
-0.100732
-0.10074
-0.100746
-0.100746
-0.100746
-0.100745
-0.100744
-0.100744
-0.100743
-0.100743
-0.100743
-0.21799
-0.218993
-0.22031
-0.221725
-0.223203
-0.224756
-0.22639
-0.228105
-0.2299
-0.231772
-0.233722
-0.235749
-0.237854
-0.240037
-0.242298
-0.244638
-0.24706
-0.249564
-0.252154
-0.25483
-0.257598
-0.260456
-0.263415
-0.266467
-0.269619
-0.272862
-0.276281
-0.280058
-0.284218
-0.287056
-0.283685
-0.274283
-0.302195
-0.492368
-0.834018
-0.362851
-0.128443
-0.123301
-0.12315
-0.123147
-0.123154
-0.123156
-0.123156
-0.123154
-0.123153
-0.123152
-0.123152
-0.123151
-0.12315
-0.12315
-0.222714
-0.223973
-0.225379
-0.226798
-0.228259
-0.229786
-0.231386
-0.233055
-0.234792
-0.236597
-0.238468
-0.240403
-0.242402
-0.244463
-0.246585
-0.248765
-0.251003
-0.253294
-0.255639
-0.258032
-0.260475
-0.262959
-0.265488
-0.26805
-0.270643
-0.273258
-0.275965
-0.278895
-0.281951
-0.283512
-0.279879
-0.273957
-0.306328
-0.470552
-0.695824
-0.266619
-0.146983
-0.145591
-0.145513
-0.145519
-0.145524
-0.145525
-0.145524
-0.145524
-0.145523
-0.145522
-0.145522
-0.145521
-0.145521
-0.145521
-0.265315
-0.267106
-0.269116
-0.271064
-0.272962
-0.274847
-0.276732
-0.278617
-0.2805
-0.28238
-0.284258
-0.286133
-0.288005
-0.289874
-0.291737
-0.293595
-0.295447
-0.29729
-0.299124
-0.300946
-0.302756
-0.30455
-0.306327
-0.30808
-0.309806
-0.311514
-0.313273
-0.315148
-0.31675
-0.31631
-0.312058
-0.313962
-0.366406
-0.512737
-0.528299
-0.201703
-0.168451
-0.167941
-0.167908
-0.167919
-0.167924
-0.167924
-0.167923
-0.167922
-0.167921
-0.16792
-0.167919
-0.167919
-0.167919
-0.167918
-0.307621
-0.308868
-0.310359
-0.311922
-0.313558
-0.31529
-0.317123
-0.319058
-0.321093
-0.323228
-0.325463
-0.3278
-0.330239
-0.332782
-0.335431
-0.338187
-0.341052
-0.344029
-0.347121
-0.350332
-0.353663
-0.357123
-0.360708
-0.364424
-0.368267
-0.372302
-0.37668
-0.381431
-0.385246
-0.384231
-0.378218
-0.400625
-0.550524
-0.827762
-0.464771
-0.197476
-0.190491
-0.19029
-0.190288
-0.190297
-0.190299
-0.190299
-0.190298
-0.190298
-0.190297
-0.190297
-0.190296
-0.190296
-0.190296
-0.190296
-0.318469
-0.32021
-0.322178
-0.32411
-0.326014
-0.327928
-0.32986
-0.331811
-0.333778
-0.335761
-0.337758
-0.339772
-0.341798
-0.343841
-0.345895
-0.347965
-0.350046
-0.352141
-0.354246
-0.356366
-0.358494
-0.360637
-0.362784
-0.364937
-0.367086
-0.369321
-0.37181
-0.37448
-0.375409
-0.369903
-0.360541
-0.395684
-0.594673
-0.887017
-0.355917
-0.214037
-0.21274
-0.212675
-0.212683
-0.212689
-0.21269
-0.21269
-0.212689
-0.212688
-0.212688
-0.212687
-0.212687
-0.212687
-0.212687
-0.212687
-0.325791
-0.328154
-0.330753
-0.33322
-0.335579
-0.337883
-0.340149
-0.342376
-0.344564
-0.346711
-0.348817
-0.350883
-0.352908
-0.35489
-0.356828
-0.35872
-0.360564
-0.362357
-0.364095
-0.365777
-0.367396
-0.368951
-0.37043
-0.371827
-0.37314
-0.374432
-0.375803
-0.377028
-0.376443
-0.371201
-0.367125
-0.405877
-0.55848
-0.691886
-0.29049
-0.235716
-0.235103
-0.235067
-0.235078
-0.235083
-0.235083
-0.235082
-0.235081
-0.23508
-0.235079
-0.235078
-0.235078
-0.235077
-0.235077
-0.235077
-0.35984
-0.361768
-0.363973
-0.366155
-0.368322
-0.370515
-0.372744
-0.37501
-0.377311
-0.379648
-0.382022
-0.384434
-0.386884
-0.389374
-0.391906
-0.394481
-0.397101
-0.399769
-0.402486
-0.405256
-0.408081
-0.410964
-0.413903
-0.416902
-0.419992
-0.423283
-0.42683
-0.429909
-0.429914
-0.425591
-0.435694
-0.52592
-0.725885
-0.592635
-0.272483
-0.257743
-0.25745
-0.257444
-0.257456
-0.25746
-0.25746
-0.25746
-0.257459
-0.257459
-0.257459
-0.257459
-0.257458
-0.257459
-0.257459
-0.257459
-0.377017
-0.378747
-0.380734
-0.382721
-0.384715
-0.386749
-0.388833
-0.390963
-0.393139
-0.395359
-0.397623
-0.399931
-0.402285
-0.404682
-0.407127
-0.409618
-0.412158
-0.414747
-0.41739
-0.420085
-0.422841
-0.42565
-0.428514
-0.431427
-0.434482
-0.437896
-0.441689
-0.443856
-0.438634
-0.426288
-0.457854
-0.680227
-1.07909
-0.519213
-0.283297
-0.279957
-0.279843
-0.279851
-0.27986
-0.279861
-0.27986
-0.279858
-0.279857
-0.279857
-0.279856
-0.279855
-0.279854
-0.279854
-0.279854
-0.279853
-0.379526
-0.381898
-0.384528
-0.387036
-0.389439
-0.391788
-0.3941
-0.396374
-0.398607
-0.400798
-0.402948
-0.405054
-0.407117
-0.409135
-0.411107
-0.413029
-0.414903
-0.416722
-0.418488
-0.420193
-0.421841
-0.423416
-0.424917
-0.426333
-0.427751
-0.429351
-0.431035
-0.430739
-0.423483
-0.412233
-0.448817
-0.659307
-0.964872
-0.421148
-0.30315
-0.30227
-0.302222
-0.302233
-0.30224
-0.30224
-0.302239
-0.302239
-0.302238
-0.302238
-0.302237
-0.302237
-0.302236
-0.302236
-0.302236
-0.302236
-0.392561
-0.3952
-0.39811
-0.400872
-0.40351
-0.406082
-0.408608
-0.411087
-0.413518
-0.415902
-0.418239
-0.420529
-0.422773
-0.424969
-0.427118
-0.429217
-0.431266
-0.433263
-0.435206
-0.437092
-0.438921
-0.440682
-0.442371
-0.443989
-0.445609
-0.447346
-0.448955
-0.448593
-0.443077
-0.438826
-0.482162
-0.652571
-0.801914
-0.372208
-0.325123
-0.324639
-0.324615
-0.324629
-0.324634
-0.324634
-0.324633
-0.324632
-0.324631
-0.32463
-0.324629
-0.324629
-0.324628
-0.324628
-0.324628
-0.324628
-0.427644
-0.429664
-0.43197
-0.43425
-0.436515
-0.438805
-0.44113
-0.443492
-0.445889
-0.44832
-0.450787
-0.45329
-0.455831
-0.458412
-0.461034
-0.463698
-0.466409
-0.469168
-0.471979
-0.474845
-0.47777
-0.480751
-0.483795
-0.486929
-0.490267
-0.49388
-0.497083
-0.497258
-0.492781
-0.501458
-0.589518
-0.795863
-0.698167
-0.361057
-0.347259
-0.346993
-0.346996
-0.34701
-0.347014
-0.347014
-0.347013
-0.347012
-0.347012
-0.347012
-0.347011
-0.347011
-0.347011
-0.347011
-0.347011
-0.347011
-0.447414
-0.449134
-0.451115
-0.453105
-0.455113
-0.457169
-0.459283
-0.461451
-0.463672
-0.465945
-0.468269
-0.470645
-0.473073
-0.475553
-0.478087
-0.480677
-0.483322
-0.486028
-0.488795
-0.491627
-0.494524
-0.497485
-0.500507
-0.503667
-0.507157
-0.511001
-0.513538
-0.509861
-0.499893
-0.525999
-0.712819
-1.05622
-0.615937
-0.372872
-0.369506
-0.369382
-0.369395
-0.369406
-0.369407
-0.369406
-0.369405
-0.369404
-0.369404
-0.369403
-0.369403
-0.369402
-0.369402
-0.369402
-0.369402
-0.369402
-0.452326
-0.454692
-0.457324
-0.459836
-0.462243
-0.464596
-0.466909
-0.469183
-0.471414
-0.473603
-0.475748
-0.477849
-0.479902
-0.48191
-0.483866
-0.485774
-0.487625
-0.489424
-0.49116
-0.492839
-0.494444
-0.495972
-0.49741
-0.498863
-0.500554
-0.502393
-0.50193
-0.493021
-0.478531
-0.520121
-0.77379
-1.1578
-0.52679
-0.392616
-0.391815
-0.391774
-0.391787
-0.391793
-0.391794
-0.391793
-0.391792
-0.391791
-0.391791
-0.39179
-0.39179
-0.39179
-0.39179
-0.39179
-0.39179
-0.39179
-0.459569
-0.462371
-0.465428
-0.468298
-0.471009
-0.473627
-0.476171
-0.47864
-0.481034
-0.483353
-0.485597
-0.487765
-0.489857
-0.491872
-0.493807
-0.495662
-0.497431
-0.499115
-0.500707
-0.502206
-0.5036
-0.504882
-0.506046
-0.507173
-0.508407
-0.509554
-0.508609
-0.501497
-0.493367
-0.534519
-0.727079
-0.953145
-0.469688
-0.414625
-0.414178
-0.414163
-0.414178
-0.414184
-0.414183
-0.414182
-0.414181
-0.41418
-0.41418
-0.414179
-0.414178
-0.414178
-0.414178
-0.414178
-0.414178
-0.414178
-0.505946
-0.507965
-0.510279
-0.512571
-0.514849
-0.517153
-0.519494
-0.521873
-0.524289
-0.526742
-0.529233
-0.531763
-0.534333
-0.536946
-0.539602
-0.542306
-0.545058
-0.547863
-0.550724
-0.553644
-0.556622
-0.559661
-0.562786
-0.566102
-0.569705
-0.573036
-0.573629
-0.569222
-0.574464
-0.651961
-0.856896
-0.838116
-0.452742
-0.436808
-0.436538
-0.436548
-0.436565
-0.436569
-0.436568
-0.436567
-0.436567
-0.436566
-0.436566
-0.436566
-0.436566
-0.436566
-0.436566
-0.436566
-0.436566
-0.436566
-0.0111638
-0.0111644
-0.0111649
-0.0111654
-0.011166
-0.0111665
-0.0111671
-0.0111676
-0.0111682
-0.0111688
-0.0111693
-0.0111699
-0.0111705
-0.0111711
-0.0111717
-0.0111723
-0.0111729
-0.0111734
-0.011174
-0.0111746
-0.0111752
-0.0111758
-0.0111764
-0.011177
-0.0111776
-0.0111782
-0.0111787
-0.0111793
-0.0111799
-0.0111805
-0.011181
-0.0111816
-0.0111821
-0.0111827
-0.0111832
-0.0111838
-0.0111843
-0.0111848
-0.0111854
-0.0111859
-0.0111864
-0.0111869
-0.0111874
-0.0111879
-0.0111883
-0.0111888
-0.0111893
-0.0111897
-0.0111902
-0.0111906
-0.0336182
-0.0336171
-0.033616
-0.033615
-0.033614
-0.033613
-0.0336121
-0.0336111
-0.0336103
-0.0336094
-0.0336086
-0.0336078
-0.033607
-0.0336063
-0.0336055
-0.0336048
-0.0336042
-0.0336035
-0.0336029
-0.0336022
-0.0336016
-0.0336011
-0.0336005
-0.0335999
-0.0335994
-0.0335989
-0.0335984
-0.0335979
-0.0335974
-0.0335969
-0.0335965
-0.033596
-0.0335956
-0.0335952
-0.0335948
-0.0335944
-0.033594
-0.0335936
-0.0335932
-0.0335929
-0.0335925
-0.0335922
-0.0335918
-0.0335915
-0.0335912
-0.0335909
-0.0335906
-0.0335903
-0.03359
-0.0335897
-0.0559636
-0.0559635
-0.0559633
-0.0559632
-0.0559631
-0.0559631
-0.055963
-0.055963
-0.055963
-0.055963
-0.055963
-0.0559631
-0.0559631
-0.0559632
-0.0559633
-0.0559634
-0.0559635
-0.0559636
-0.0559637
-0.0559638
-0.055964
-0.0559641
-0.0559643
-0.0559644
-0.0559646
-0.0559648
-0.055965
-0.0559651
-0.0559653
-0.0559655
-0.0559657
-0.0559659
-0.0559661
-0.0559663
-0.0559665
-0.0559667
-0.0559669
-0.0559671
-0.0559673
-0.0559676
-0.0559678
-0.055968
-0.0559682
-0.0559684
-0.0559686
-0.0559688
-0.055969
-0.0559692
-0.0559694
-0.0559695
-0.0783837
-0.0783831
-0.0783825
-0.0783819
-0.0783813
-0.0783807
-0.0783801
-0.0783796
-0.0783791
-0.0783785
-0.078378
-0.0783775
-0.0783771
-0.0783766
-0.0783761
-0.0783757
-0.0783752
-0.0783748
-0.0783744
-0.078374
-0.0783736
-0.0783732
-0.0783729
-0.0783725
-0.0783721
-0.0783718
-0.0783715
-0.0783712
-0.0783708
-0.0783705
-0.0783702
-0.0783699
-0.0783697
-0.0783694
-0.0783691
-0.0783689
-0.0783686
-0.0783684
-0.0783681
-0.0783679
-0.0783677
-0.0783674
-0.0783672
-0.078367
-0.0783668
-0.0783666
-0.0783664
-0.0783662
-0.078366
-0.0783658
-0.100743
-0.100743
-0.100743
-0.100743
-0.100743
-0.100743
-0.100743
-0.100744
-0.100744
-0.100744
-0.100744
-0.100744
-0.100744
-0.100744
-0.100744
-0.100744
-0.100744
-0.100744
-0.100744
-0.100744
-0.100744
-0.100744
-0.100744
-0.100745
-0.100745
-0.100745
-0.100745
-0.100745
-0.100745
-0.100745
-0.100745
-0.100745
-0.100745
-0.100745
-0.100745
-0.100746
-0.100746
-0.100746
-0.100746
-0.100746
-0.100746
-0.100746
-0.100746
-0.100746
-0.100746
-0.100746
-0.100746
-0.100747
-0.100747
-0.100747
-0.123149
-0.123149
-0.123149
-0.123149
-0.123148
-0.123148
-0.123148
-0.123147
-0.123147
-0.123147
-0.123147
-0.123146
-0.123146
-0.123146
-0.123146
-0.123146
-0.123145
-0.123145
-0.123145
-0.123145
-0.123144
-0.123144
-0.123144
-0.123144
-0.123144
-0.123143
-0.123143
-0.123143
-0.123143
-0.123143
-0.123143
-0.123142
-0.123142
-0.123142
-0.123142
-0.123142
-0.123142
-0.123142
-0.123141
-0.123141
-0.123141
-0.123141
-0.123141
-0.123141
-0.123141
-0.123141
-0.12314
-0.12314
-0.12314
-0.12314
-0.145521
-0.145521
-0.145521
-0.145521
-0.145521
-0.145521
-0.145521
-0.145521
-0.145521
-0.145521
-0.145521
-0.145521
-0.145521
-0.145521
-0.145521
-0.145521
-0.145521
-0.145521
-0.145521
-0.145521
-0.145521
-0.145521
-0.145522
-0.145522
-0.145522
-0.145522
-0.145522
-0.145522
-0.145522
-0.145522
-0.145522
-0.145522
-0.145522
-0.145522
-0.145522
-0.145522
-0.145522
-0.145522
-0.145522
-0.145522
-0.145522
-0.145522
-0.145522
-0.145522
-0.145522
-0.145522
-0.145522
-0.145523
-0.145523
-0.145523
-0.167918
-0.167918
-0.167918
-0.167918
-0.167918
-0.167918
-0.167917
-0.167917
-0.167917
-0.167917
-0.167917
-0.167917
-0.167917
-0.167917
-0.167917
-0.167916
-0.167916
-0.167916
-0.167916
-0.167916
-0.167916
-0.167916
-0.167916
-0.167916
-0.167916
-0.167916
-0.167915
-0.167915
-0.167915
-0.167915
-0.167915
-0.167915
-0.167915
-0.167915
-0.167915
-0.167915
-0.167915
-0.167915
-0.167915
-0.167914
-0.167914
-0.167914
-0.167914
-0.167914
-0.167914
-0.167914
-0.167914
-0.167914
-0.167914
-0.167914
-0.190296
-0.190296
-0.190296
-0.190297
-0.190297
-0.190297
-0.190297
-0.190297
-0.190297
-0.190297
-0.190297
-0.190297
-0.190297
-0.190297
-0.190297
-0.190297
-0.190297
-0.190297
-0.190297
-0.190297
-0.190297
-0.190297
-0.190297
-0.190297
-0.190297
-0.190297
-0.190297
-0.190297
-0.190297
-0.190298
-0.190298
-0.190298
-0.190298
-0.190298
-0.190298
-0.190298
-0.190298
-0.190298
-0.190298
-0.190298
-0.190298
-0.190298
-0.190298
-0.190298
-0.190298
-0.190298
-0.190298
-0.190298
-0.190298
-0.190298
-0.212687
-0.212687
-0.212687
-0.212687
-0.212687
-0.212687
-0.212687
-0.212688
-0.212688
-0.212688
-0.212688
-0.212688
-0.212688
-0.212688
-0.212688
-0.212688
-0.212688
-0.212688
-0.212688
-0.212688
-0.212688
-0.212688
-0.212688
-0.212688
-0.212688
-0.212688
-0.212688
-0.212688
-0.212688
-0.212688
-0.212688
-0.212688
-0.212688
-0.212688
-0.212688
-0.212688
-0.212688
-0.212688
-0.212688
-0.212688
-0.212688
-0.212688
-0.212688
-0.212688
-0.212688
-0.212688
-0.212688
-0.212688
-0.212688
-0.212688
-0.235077
-0.235076
-0.235076
-0.235076
-0.235076
-0.235076
-0.235075
-0.235075
-0.235075
-0.235075
-0.235075
-0.235075
-0.235075
-0.235075
-0.235075
-0.235075
-0.235074
-0.235074
-0.235074
-0.235074
-0.235074
-0.235074
-0.235074
-0.235074
-0.235074
-0.235074
-0.235074
-0.235074
-0.235074
-0.235074
-0.235074
-0.235074
-0.235074
-0.235074
-0.235074
-0.235074
-0.235074
-0.235074
-0.235074
-0.235073
-0.235073
-0.235073
-0.235073
-0.235073
-0.235073
-0.235073
-0.235073
-0.235073
-0.235073
-0.235073
-0.257459
-0.257459
-0.25746
-0.25746
-0.25746
-0.25746
-0.25746
-0.25746
-0.25746
-0.25746
-0.257461
-0.257461
-0.257461
-0.257461
-0.257461
-0.257461
-0.257461
-0.257461
-0.257461
-0.257461
-0.257461
-0.257461
-0.257461
-0.257462
-0.257462
-0.257462
-0.257462
-0.257462
-0.257462
-0.257462
-0.257462
-0.257462
-0.257462
-0.257462
-0.257462
-0.257462
-0.257462
-0.257462
-0.257462
-0.257462
-0.257462
-0.257462
-0.257462
-0.257462
-0.257462
-0.257462
-0.257462
-0.257462
-0.257462
-0.257462
-0.279853
-0.279853
-0.279853
-0.279852
-0.279852
-0.279852
-0.279852
-0.279852
-0.279852
-0.279851
-0.279851
-0.279851
-0.279851
-0.279851
-0.279851
-0.279851
-0.27985
-0.27985
-0.27985
-0.27985
-0.27985
-0.27985
-0.27985
-0.27985
-0.27985
-0.27985
-0.27985
-0.27985
-0.27985
-0.279849
-0.279849
-0.279849
-0.279849
-0.279849
-0.279849
-0.279849
-0.279849
-0.279849
-0.279849
-0.279849
-0.279849
-0.279849
-0.279849
-0.279849
-0.279849
-0.279849
-0.279849
-0.279849
-0.279849
-0.279849
-0.302236
-0.302236
-0.302236
-0.302236
-0.302236
-0.302237
-0.302237
-0.302237
-0.302237
-0.302237
-0.302237
-0.302237
-0.302237
-0.302237
-0.302237
-0.302237
-0.302237
-0.302237
-0.302237
-0.302237
-0.302237
-0.302237
-0.302237
-0.302237
-0.302237
-0.302237
-0.302237
-0.302237
-0.302237
-0.302237
-0.302237
-0.302237
-0.302237
-0.302237
-0.302237
-0.302237
-0.302237
-0.302237
-0.302237
-0.302237
-0.302237
-0.302237
-0.302237
-0.302237
-0.302237
-0.302237
-0.302237
-0.302237
-0.302237
-0.302237
-0.324628
-0.324627
-0.324627
-0.324627
-0.324627
-0.324627
-0.324627
-0.324627
-0.324626
-0.324626
-0.324626
-0.324626
-0.324626
-0.324626
-0.324626
-0.324626
-0.324626
-0.324626
-0.324626
-0.324625
-0.324625
-0.324625
-0.324625
-0.324625
-0.324625
-0.324625
-0.324625
-0.324625
-0.324625
-0.324625
-0.324625
-0.324625
-0.324625
-0.324625
-0.324625
-0.324625
-0.324625
-0.324625
-0.324625
-0.324624
-0.324624
-0.324624
-0.324624
-0.324624
-0.324624
-0.324624
-0.324624
-0.324624
-0.324624
-0.324624
-0.347011
-0.347012
-0.347012
-0.347012
-0.347012
-0.347012
-0.347012
-0.347012
-0.347012
-0.347012
-0.347012
-0.347012
-0.347012
-0.347012
-0.347012
-0.347012
-0.347013
-0.347013
-0.347013
-0.347013
-0.347013
-0.347013
-0.347013
-0.347013
-0.347013
-0.347013
-0.347013
-0.347013
-0.347013
-0.347013
-0.347013
-0.347013
-0.347013
-0.347013
-0.347013
-0.347013
-0.347013
-0.347013
-0.347013
-0.347013
-0.347013
-0.347013
-0.347013
-0.347013
-0.347013
-0.347013
-0.347013
-0.347013
-0.347013
-0.347013
-0.369402
-0.369402
-0.369401
-0.369401
-0.369401
-0.369401
-0.369401
-0.369401
-0.369401
-0.369401
-0.369401
-0.369401
-0.369401
-0.369401
-0.369401
-0.369401
-0.369401
-0.369401
-0.369401
-0.369401
-0.369401
-0.369401
-0.369401
-0.3694
-0.3694
-0.3694
-0.3694
-0.3694
-0.3694
-0.3694
-0.3694
-0.3694
-0.3694
-0.3694
-0.3694
-0.3694
-0.3694
-0.3694
-0.3694
-0.3694
-0.3694
-0.3694
-0.3694
-0.3694
-0.3694
-0.3694
-0.3694
-0.3694
-0.3694
-0.3694
-0.39179
-0.39179
-0.39179
-0.39179
-0.39179
-0.39179
-0.39179
-0.39179
-0.39179
-0.39179
-0.39179
-0.39179
-0.39179
-0.39179
-0.39179
-0.39179
-0.39179
-0.39179
-0.39179
-0.39179
-0.39179
-0.39179
-0.39179
-0.39179
-0.39179
-0.39179
-0.39179
-0.39179
-0.39179
-0.39179
-0.39179
-0.39179
-0.39179
-0.39179
-0.39179
-0.39179
-0.39179
-0.39179
-0.39179
-0.39179
-0.39179
-0.39179
-0.39179
-0.39179
-0.39179
-0.39179
-0.391789
-0.391789
-0.391789
-0.391789
-0.414177
-0.414177
-0.414177
-0.414177
-0.414177
-0.414177
-0.414177
-0.414177
-0.414177
-0.414177
-0.414177
-0.414177
-0.414177
-0.414177
-0.414177
-0.414177
-0.414177
-0.414177
-0.414177
-0.414177
-0.414177
-0.414177
-0.414177
-0.414177
-0.414177
-0.414177
-0.414176
-0.414176
-0.414176
-0.414176
-0.414176
-0.414176
-0.414176
-0.414176
-0.414176
-0.414176
-0.414176
-0.414176
-0.414176
-0.414176
-0.414176
-0.414176
-0.414176
-0.414176
-0.414176
-0.414176
-0.414176
-0.414176
-0.414176
-0.414176
-0.436566
-0.436567
-0.436567
-0.436567
-0.436567
-0.436567
-0.436567
-0.436567
-0.436567
-0.436567
-0.436568
-0.436568
-0.436568
-0.436568
-0.436568
-0.436568
-0.436568
-0.436568
-0.436568
-0.436568
-0.436568
-0.436568
-0.436568
-0.436568
-0.436568
-0.436568
-0.436568
-0.436568
-0.436568
-0.436568
-0.436568
-0.436568
-0.436568
-0.436568
-0.436568
-0.436568
-0.436568
-0.436568
-0.436568
-0.436568
-0.436568
-0.436567
-0.436567
-0.436567
-0.436567
-0.436567
-0.436567
-0.436567
-0.436567
-0.436567
-0.0111909
-0.0111911
-0.0111913
-0.0111915
-0.0111918
-0.011192
-0.0111922
-0.0111924
-0.0111927
-0.0111929
-0.0111931
-0.0111933
-0.0111935
-0.0111937
-0.011194
-0.0111942
-0.0111944
-0.0111946
-0.0111948
-0.011195
-0.0111952
-0.0111954
-0.0111956
-0.0111958
-0.011196
-0.0111961
-0.0111963
-0.0111965
-0.0111967
-0.0111969
-0.011197
-0.0111972
-0.0111974
-0.0111975
-0.0111977
-0.0111979
-0.011198
-0.0111982
-0.0111983
-0.0111985
-0.0111986
-0.0111988
-0.0111989
-0.0111991
-0.0111992
-0.0111993
-0.0111995
-0.0111996
-0.0111997
-0.0111998
-0.0112
-0.0112001
-0.0112002
-0.0112003
-0.0112004
-0.0112005
-0.0112006
-0.0112007
-0.0112008
-0.0112009
-0.011201
-0.0112011
-0.0112012
-0.0112013
-0.0112013
-0.0112014
-0.0112015
-0.0112016
-0.0112016
-0.0112017
-0.0112018
-0.0112018
-0.0112019
-0.0112019
-0.011202
-0.011202
-0.0112021
-0.0112021
-0.0112022
-0.0112022
-0.0112022
-0.0112023
-0.0112023
-0.0112023
-0.0112023
-0.0112024
-0.0112024
-0.0112024
-0.0112024
-0.0112024
-0.0112025
-0.0112025
-0.0112025
-0.0112025
-0.0112025
-0.0112025
-0.0112025
-0.0112025
-0.0112025
-0.0112024
-0.0112024
-0.0112024
-0.0112024
-0.0112024
-0.0112024
-0.0112023
-0.0112023
-0.0112023
-0.0112023
-0.0112022
-0.0112022
-0.0112022
-0.0112021
-0.0112021
-0.0112021
-0.011202
-0.011202
-0.0112019
-0.0112019
-0.0112018
-0.0112018
-0.0112017
-0.0112017
-0.0112016
-0.0112016
-0.0112015
-0.0112015
-0.0112014
-0.0112013
-0.0112013
-0.0112012
-0.0112012
-0.0112011
-0.011201
-0.011201
-0.0112009
-0.0112008
-0.0112007
-0.0112007
-0.0112006
-0.0112005
-0.0112005
-0.0112004
-0.0112003
-0.0112002
-0.0112002
-0.0112001
-0.0112
-0.0111999
-0.0111999
-0.0111998
-0.0111997
-0.0111996
-0.0111995
-0.0111995
-0.0111994
-0.0111993
-0.0111992
-0.0111991
-0.0111991
-0.011199
-0.0111989
-0.0111988
-0.0111987
-0.0111986
-0.0111986
-0.0111985
-0.0111984
-0.0111983
-0.0111982
-0.0111982
-0.0111981
-0.011198
-0.0111979
-0.0111978
-0.0111978
-0.0111977
-0.0111976
-0.0111975
-0.0111975
-0.0111974
-0.0111973
-0.0111972
-0.0111972
-0.0111971
-0.011197
-0.0111969
-0.0111969
-0.0111968
-0.0111967
-0.0111967
-0.0111966
-0.0111965
-0.0111965
-0.0111964
-0.0111963
-0.0111963
-0.0111962
-0.0111961
-0.0111961
-0.011196
-0.0111959
-0.0111959
-0.0111958
-0.0111958
-0.0111957
-0.0111957
-0.0111956
-0.0111955
-0.0111955
-0.0111954
-0.0111954
-0.0111953
-0.0111953
-0.0111952
-0.0111952
-0.0111951
-0.0111951
-0.0111951
-0.011195
-0.011195
-0.0111949
-0.0111949
-0.0111948
-0.0111948
-0.0111948
-0.0111947
-0.0111947
-0.0111946
-0.0111946
-0.0111946
-0.0111945
-0.0111945
-0.0111945
-0.0111944
-0.0111944
-0.0111944
-0.0111943
-0.0111943
-0.0111943
-0.0111942
-0.0111942
-0.0111942
-0.0111942
-0.0111941
-0.0111941
-0.0111941
-0.0111941
-0.011194
-0.011194
-0.011194
-0.011194
-0.0111939
-0.0111939
-0.0111939
-0.0111939
-0.0111939
-0.0111938
-0.0111938
-0.0111938
-0.0111938
-0.0111938
-0.0111938
-0.0111937
-0.0111937
-0.0111937
-0.0111937
-0.0111937
-0.0111937
-0.0111937
-0.0111936
-0.0111936
-0.0111936
-0.0111936
-0.0111936
-0.0111936
-0.0111936
-0.0111936
-0.0111935
-0.0111935
-0.0111935
-0.0111935
-0.0111935
-0.0111935
-0.0111935
-0.0111935
-0.0111935
-0.0111935
-0.0111935
-0.0111935
-0.0111934
-0.0111934
-0.0111934
-0.0111934
-0.0111934
-0.0111934
-0.0111934
-0.0111934
-0.0111934
-0.0111934
-0.0335895
-0.0335894
-0.0335892
-0.0335891
-0.033589
-0.0335888
-0.0335887
-0.0335885
-0.0335884
-0.0335882
-0.0335881
-0.033588
-0.0335878
-0.0335877
-0.0335875
-0.0335874
-0.0335873
-0.0335871
-0.033587
-0.0335869
-0.0335867
-0.0335866
-0.0335864
-0.0335863
-0.0335862
-0.0335861
-0.0335859
-0.0335858
-0.0335857
-0.0335855
-0.0335854
-0.0335853
-0.0335852
-0.033585
-0.0335849
-0.0335848
-0.0335847
-0.0335845
-0.0335844
-0.0335843
-0.0335842
-0.0335841
-0.0335839
-0.0335838
-0.0335837
-0.0335836
-0.0335835
-0.0335834
-0.0335833
-0.0335832
-0.033583
-0.0335829
-0.0335828
-0.0335827
-0.0335826
-0.0335825
-0.0335824
-0.0335823
-0.0335822
-0.0335821
-0.033582
-0.0335819
-0.0335818
-0.0335817
-0.0335817
-0.0335816
-0.0335815
-0.0335814
-0.0335813
-0.0335812
-0.0335811
-0.0335811
-0.033581
-0.0335809
-0.0335808
-0.0335807
-0.0335807
-0.0335806
-0.0335805
-0.0335804
-0.0335804
-0.0335803
-0.0335802
-0.0335802
-0.0335801
-0.0335801
-0.03358
-0.0335799
-0.0335799
-0.0335798
-0.0335798
-0.0335797
-0.0335797
-0.0335796
-0.0335796
-0.0335795
-0.0335795
-0.0335794
-0.0335794
-0.0335793
-0.0335793
-0.0335793
-0.0335792
-0.0335792
-0.0335791
-0.0335791
-0.0335791
-0.0335791
-0.033579
-0.033579
-0.033579
-0.033579
-0.0335789
-0.0335789
-0.0335789
-0.0335789
-0.0335788
-0.0335788
-0.0335788
-0.0335788
-0.0335788
-0.0335788
-0.0335788
-0.0335788
-0.0335788
-0.0335787
-0.0335787
-0.0335787
-0.0335787
-0.0335787
-0.0335787
-0.0335787
-0.0335787
-0.0335787
-0.0335787
-0.0335787
-0.0335788
-0.0335788
-0.0335788
-0.0335788
-0.0335788
-0.0335788
-0.0335788
-0.0335788
-0.0335788
-0.0335788
-0.0335789
-0.0335789
-0.0335789
-0.0335789
-0.0335789
-0.0335789
-0.033579
-0.033579
-0.033579
-0.033579
-0.033579
-0.033579
-0.0335791
-0.0335791
-0.0335791
-0.0335791
-0.0335791
-0.0335792
-0.0335792
-0.0335792
-0.0335792
-0.0335793
-0.0335793
-0.0335793
-0.0335793
-0.0335793
-0.0335794
-0.0335794
-0.0335794
-0.0335794
-0.0335795
-0.0335795
-0.0335795
-0.0335795
-0.0335795
-0.0335796
-0.0335796
-0.0335796
-0.0335796
-0.0335797
-0.0335797
-0.0335797
-0.0335797
-0.0335797
-0.0335798
-0.0335798
-0.0335798
-0.0335798
-0.0335798
-0.0335798
-0.0335799
-0.0335799
-0.0335799
-0.0335799
-0.0335799
-0.0335799
-0.03358
-0.03358
-0.03358
-0.03358
-0.03358
-0.03358
-0.03358
-0.0335801
-0.0335801
-0.0335801
-0.0335801
-0.0335801
-0.0335801
-0.0335801
-0.0335801
-0.0335801
-0.0335801
-0.0335801
-0.0335802
-0.0335802
-0.0335802
-0.0335802
-0.0335802
-0.0335802
-0.0335802
-0.0335802
-0.0335802
-0.0335802
-0.0335802
-0.0335802
-0.0335802
-0.0335802
-0.0335802
-0.0335802
-0.0335802
-0.0335802
-0.0335802
-0.0335802
-0.0335802
-0.0335802
-0.0335802
-0.0335802
-0.0335802
-0.0335802
-0.0335802
-0.0335802
-0.0335802
-0.0335802
-0.0335802
-0.0335802
-0.0335802
-0.0335802
-0.0335802
-0.0335802
-0.0335802
-0.0335802
-0.0335802
-0.0335802
-0.0335802
-0.0335802
-0.0335802
-0.0335802
-0.0335802
-0.0335802
-0.0335802
-0.0335802
-0.0335802
-0.0335802
-0.0335802
-0.0335802
-0.0335802
-0.0335802
-0.0335802
-0.0335802
-0.0335802
-0.0335802
-0.0335802
-0.0335802
-0.0335802
-0.0335802
-0.0335802
-0.0335802
-0.0335802
-0.0335802
-0.0335802
-0.0335802
-0.0335802
-0.0335802
-0.0335802
-0.0335802
-0.0335802
-0.0335802
-0.0335802
-0.0335802
-0.0335802
-0.0335802
-0.0335802
-0.0335802
-0.0559697
-0.0559698
-0.0559699
-0.05597
-0.0559701
-0.0559702
-0.0559703
-0.0559704
-0.0559705
-0.0559706
-0.0559707
-0.0559709
-0.055971
-0.0559711
-0.0559712
-0.0559713
-0.0559714
-0.0559715
-0.0559716
-0.0559717
-0.0559718
-0.0559719
-0.055972
-0.0559721
-0.0559722
-0.0559723
-0.0559724
-0.0559725
-0.0559726
-0.0559727
-0.0559728
-0.0559728
-0.0559729
-0.055973
-0.0559731
-0.0559732
-0.0559733
-0.0559734
-0.0559734
-0.0559735
-0.0559736
-0.0559737
-0.0559737
-0.0559738
-0.0559739
-0.055974
-0.055974
-0.0559741
-0.0559741
-0.0559742
-0.0559743
-0.0559743
-0.0559744
-0.0559744
-0.0559745
-0.0559745
-0.0559746
-0.0559746
-0.0559747
-0.0559747
-0.0559748
-0.0559748
-0.0559749
-0.0559749
-0.0559749
-0.055975
-0.055975
-0.055975
-0.0559751
-0.0559751
-0.0559751
-0.0559751
-0.0559751
-0.0559752
-0.0559752
-0.0559752
-0.0559752
-0.0559752
-0.0559752
-0.0559752
-0.0559753
-0.0559753
-0.0559753
-0.0559753
-0.0559753
-0.0559753
-0.0559753
-0.0559753
-0.0559752
-0.0559752
-0.0559752
-0.0559752
-0.0559752
-0.0559752
-0.0559752
-0.0559752
-0.0559751
-0.0559751
-0.0559751
-0.0559751
-0.055975
-0.055975
-0.055975
-0.055975
-0.0559749
-0.0559749
-0.0559749
-0.0559748
-0.0559748
-0.0559748
-0.0559747
-0.0559747
-0.0559746
-0.0559746
-0.0559746
-0.0559745
-0.0559745
-0.0559744
-0.0559744
-0.0559743
-0.0559743
-0.0559742
-0.0559742
-0.0559741
-0.0559741
-0.055974
-0.055974
-0.0559739
-0.0559739
-0.0559738
-0.0559738
-0.0559737
-0.0559736
-0.0559736
-0.0559735
-0.0559735
-0.0559734
-0.0559733
-0.0559733
-0.0559732
-0.0559732
-0.0559731
-0.055973
-0.055973
-0.0559729
-0.0559728
-0.0559728
-0.0559727
-0.0559726
-0.0559726
-0.0559725
-0.0559724
-0.0559724
-0.0559723
-0.0559722
-0.0559722
-0.0559721
-0.055972
-0.055972
-0.0559719
-0.0559718
-0.0559718
-0.0559717
-0.0559716
-0.0559716
-0.0559715
-0.0559714
-0.0559714
-0.0559713
-0.0559712
-0.0559712
-0.0559711
-0.0559711
-0.055971
-0.0559709
-0.0559709
-0.0559708
-0.0559707
-0.0559707
-0.0559706
-0.0559705
-0.0559705
-0.0559704
-0.0559704
-0.0559703
-0.0559702
-0.0559702
-0.0559701
-0.0559701
-0.05597
-0.0559699
-0.0559699
-0.0559698
-0.0559698
-0.0559697
-0.0559697
-0.0559696
-0.0559695
-0.0559695
-0.0559694
-0.0559694
-0.0559693
-0.0559693
-0.0559692
-0.0559692
-0.0559691
-0.0559691
-0.055969
-0.055969
-0.0559689
-0.0559689
-0.0559688
-0.0559688
-0.0559688
-0.0559687
-0.0559687
-0.0559686
-0.0559686
-0.0559685
-0.0559685
-0.0559685
-0.0559684
-0.0559684
-0.0559683
-0.0559683
-0.0559683
-0.0559682
-0.0559682
-0.0559682
-0.0559681
-0.0559681
-0.0559681
-0.055968
-0.055968
-0.055968
-0.0559679
-0.0559679
-0.0559679
-0.0559678
-0.0559678
-0.0559678
-0.0559677
-0.0559677
-0.0559677