/*--------------------------------*- C++ -*----------------------------------*\
| =========                 |                                                 |
| \\      /  F ield         | OpenFOAM: The Open Source CFD Toolbox           |
|  \\    /   O peration     | Version:  2.4.0                                 |
|   \\  /    A nd           | Web:      www.OpenFOAM.org                      |
|    \\/     M anipulation  |                                                 |
\*---------------------------------------------------------------------------*/
FoamFile
{
    version     2.0;
    format      ascii;
    class       volScalarField;
    location    "1";
    object      p_rgh;
}
// * * * * * * * * * * * * * * * * * * * * * * * * * * * * * * * * * * * * * //

dimensions      [1 -1 -2 0 0 0 0];

internalField   nonuniform List<scalar> 
8000
(
1.18712
1.17752
1.16904
1.16241
1.1569
1.15212
1.14794
1.14431
1.14115
1.13842
1.13604
1.13398
1.13218
1.13061
1.12923
1.12803
1.12696
1.12602
1.12518
1.12442
1.12373
1.12311
1.12254
1.12202
1.12155
1.12112
1.12074
1.12041
1.12005
1.11963
1.11951
1.1214
1.12697
1.12666
1.07819
0.940206
0.743206
0.0828144
0.00198849
0.000124054
3.76945e-05
2.90513e-05
2.2602e-05
2.02167e-05
1.98102e-05
1.98613e-05
1.99856e-05
2.01547e-05
2.02552e-05
2.00357e-05
1.97235
1.96628
1.9589
1.95206
1.94602
1.94062
1.93575
1.93138
1.92749
1.92405
1.92106
1.91848
1.91632
1.91456
1.91318
1.91219
1.91157
1.91133
1.91145
1.91194
1.9128
1.91403
1.91564
1.91762
1.91999
1.92276
1.92594
1.92948
1.93325
1.9372
1.94274
1.95405
1.97171
1.96094
1.81595
1.52586
1.05957
0.0674095
0.0021253
4.47269e-05
-6.13917e-05
-7.21139e-05
-7.80806e-05
-7.89871e-05
-7.78246e-05
-7.61484e-05
-7.43168e-05
-7.24158e-05
-7.06287e-05
-6.92019e-05
3.51841
3.51584
3.51341
3.51107
3.50865
3.50607
3.50333
3.50045
3.49743
3.49427
3.49096
3.4875
3.48388
3.48011
3.47618
3.47207
3.46779
3.46333
3.45868
3.45382
3.44877
3.44348
3.43798
3.43223
3.42624
3.42
3.4135
3.40663
3.39918
3.39109
3.38441
3.3851
3.39304
3.35579
3.12137
2.69756
1.35682
0.0646445
0.00253654
9.61929e-05
-2.5194e-05
-4.00716e-05
-4.71164e-05
-4.94088e-05
-4.97959e-05
-4.94555e-05
-4.87663e-05
-4.79281e-05
-4.72005e-05
-4.68133e-05
4.60871
4.6067
4.60414
4.60157
4.59911
4.59672
4.59439
4.59211
4.58989
4.58772
4.58563
4.58359
4.58163
4.57972
4.57789
4.57611
4.57441
4.57277
4.57119
4.56968
4.56823
4.56684
4.56551
4.56423
4.56302
4.56185
4.56075
4.55963
4.55838
4.55711
4.5572
4.56158
4.56711
4.53904
4.40329
3.89183
0.810483
0.0216464
0.000790614
-4.21652e-05
-8.14948e-05
-9.6817e-05
-0.00010351
-0.000105378
-0.000105414
-0.000104715
-0.000103632
-0.000102401
-0.000101322
-0.000100547
5.98592
5.98465
5.98333
5.98196
5.98049
5.97887
5.97711
5.97521
5.97318
5.97101
5.96871
5.96628
5.96372
5.96103
5.95821
5.95526
5.95218
5.94897
5.94563
5.94217
5.93857
5.93485
5.931
5.92702
5.92292
5.91869
5.91433
5.90977
5.90494
5.90022
5.89725
5.89748
5.8913
5.83806
5.70158
4.15525
0.351958
0.00960595
0.000346926
-3.76062e-05
-6.71747e-05
-8.33963e-05
-9.00692e-05
-9.25531e-05
-9.34262e-05
-9.35335e-05
-9.32215e-05
-9.27745e-05
-9.25106e-05
-9.24968e-05
7.20892
7.20791
7.2066
7.20518
7.2037
7.20215
7.20052
7.1988
7.19701
7.19513
7.19318
7.19116
7.18905
7.18687
7.18461
7.18227
7.17985
7.17734
7.17475
7.17208
7.16931
7.16645
7.16349
7.16044
7.15729
7.15404
7.15062
7.14685
7.14268
7.13984
7.14321
7.1526
7.12468
6.9345
6.59123
2.94986
0.108759
0.0031687
2.39517e-05
-9.17677e-05
-0.000115691
-0.000127848
-0.000132886
-0.000134745
-0.000135161
-0.000134805
-0.000134064
-0.00013327
-0.000132716
-0.000132366
8.55454
8.55328
8.55187
8.55045
8.54899
8.54747
8.54587
8.5442
8.54246
8.54066
8.53878
8.53685
8.53485
8.53279
8.53067
8.52849
8.52625
8.52396
8.52161
8.51922
8.51678
8.51429
8.51176
8.5092
8.50661
8.50399
8.50129
8.49835
8.4953
8.49373
8.49736
8.50327
8.47088
8.30666
7.63179
1.53065
0.0351121
0.00111981
-4.31242e-05
-9.82985e-05
-0.000120463
-0.000130831
-0.00013542
-0.000137375
-0.000137984
-0.000137857
-0.0001374
-0.000136969
-0.000136794
-0.000136771
9.86228
9.86049
9.85848
9.85653
9.85464
9.85275
9.85087
9.84898
9.8471
9.84522
9.84334
9.84147
9.83959
9.83773
9.83586
9.834
9.83215
9.83031
9.82848
9.82665
9.82484
9.82305
9.82127
9.81952
9.81779
9.81608
9.81432
9.81245
9.81084
9.81128
9.81552
9.8136
9.76113
9.6145
7.03175
0.514788
0.0106266
0.000252981
-0.000100329
-0.00013478
-0.000154935
-0.000163835
-0.000167591
-0.000169086
-0.000169382
-0.000169023
-0.000168411
-0.0001679
-0.000167634
-0.000167469
11.1703
11.1691
11.1676
11.166
11.1644
11.1627
11.1608
11.1589
11.1569
11.1547
11.1525
11.1501
11.1477
11.1452
11.1425
11.1398
11.1369
11.1339
11.1308
11.1276
11.1243
11.1208
11.1172
11.1135
11.1097
11.1056
11.1013
11.0965
11.0927
11.0937
11.0997
11.0773
10.9274
10.6483
5.02732
0.163821
0.00374941
9.50427e-06
-0.000117326
-0.000148868
-0.000165481
-0.000173293
-0.000176969
-0.000178578
-0.000179028
-0.000178877
-0.000178544
-0.000178363
-0.000178383
-0.000178461
12.5098
12.5081
12.5061
12.5042
12.5023
12.5004
12.4984
12.4965
12.4945
12.4925
12.4905
12.4885
12.4865
12.4845
12.4824
12.4803
12.4782
12.4762
12.474
12.4719
12.4698
12.4677
12.4655
12.4634
12.4612
12.459
12.4565
12.4538
12.4529
12.4584
12.4677
12.4326
12.2336
11.6391
2.76591
0.0509553
0.00129782
-8.89723e-05
-0.000149939
-0.000177071
-0.000190997
-0.000197873
-0.000201214
-0.000202611
-0.00020292
-0.00020271
-0.000202403
-0.000202289
-0.000202338
-0.00020242
13.8528
13.8505
13.8479
13.8454
13.8431
13.8408
13.8385
13.8363
13.8341
13.8319
13.8298
13.8278
13.8257
13.8237
13.8218
13.8199
13.8181
13.8163
13.8145
13.8129
13.8112
13.8097
13.8082
13.8068
13.8055
13.8042
13.8028
13.8016
13.8022
13.8074
13.8115
13.7727
13.6199
11.1975
1.0962
0.016754
0.000337733
-0.000140089
-0.000181745
-0.000206879
-0.000218902
-0.000224466
-0.000226917
-0.000227646
-0.000227429
-0.000226804
-0.00022618
-0.000225783
-0.000225528
-0.000225309
15.1691
15.1672
15.165
15.1628
15.1607
15.1585
15.1562
15.154
15.1517
15.1493
15.147
15.1446
15.1421
15.1396
15.1371
15.1345
15.1319
15.1292
15.1265
15.1237
15.1209
15.118
15.1151
15.1121
15.109
15.1057
15.1021
15.0991
15.0991
15.1034
15.0932
15.003
14.8018
9.02495
0.368804
0.00605239
2.59367e-05
-0.000155739
-0.000196609
-0.000219416
-0.000230592
-0.000236197
-0.000238959
-0.000240095
-0.000240352
-0.000240255
-0.000240198
-0.000240332
-0.000240545
-0.000240757
16.5023
16.5006
16.4986
16.4966
16.4946
16.4926
16.4905
16.4884
16.4862
16.484
16.4817
16.4794
16.477
16.4746
16.4722
16.4697
16.4672
16.4646
16.4619
16.4592
16.4565
16.4537
16.4508
16.4479
16.4448
16.4414
16.4376
16.4355
16.4407
16.453
16.4214
16.199
15.7957
6.11941
0.125699
0.00237643
-0.000108418
-0.000200476
-0.000236256
-0.000255098
-0.000264341
-0.000268799
-0.000270617
-0.000270931
-0.00027049
-0.000269812
-0.000269259
-0.000268907
-0.000268633
-0.000268379
17.8502
17.8478
17.8452
17.8426
17.8402
17.8379
17.8356
17.8333
17.8311
17.8289
17.8267
17.8246
17.8226
17.8205
17.8186
17.8166
17.8148
17.813
17.8112
17.8095
17.8078
17.8063
17.8048
17.8033
17.8019
17.8003
17.7986
17.7989
17.8062
17.8174
17.7808
17.5703
16.5915
3.25893
0.041372
0.000812625
-0.000172696
-0.00022038
-0.000252587
-0.00026972
-0.000278458
-0.000282828
-0.000284711
-0.000285201
-0.000285027
-0.000284688
-0.000284503
-0.00028448
-0.000284502
-0.00028453
19.1875
19.1848
19.1819
19.1792
19.1765
19.1739
19.1714
19.1689
19.1665
19.1641
19.1618
19.1595
19.1573
19.1551
19.1529
19.1508
19.1488
19.1468
19.1448
19.1429
19.1411
19.1393
19.1377
19.136
19.1344
19.1327
19.1311
19.1314
19.1369
19.1411
19.0978
18.9271
15.3978
1.25619
0.0143404
0.000135975
-0.000203885
-0.000253454
-0.00028338
-0.000298506
-0.000306012
-0.000309596
-0.000310937
-0.000311041
-0.00031059
-0.000310057
-0.000309704
-0.000309489
-0.000309311
-0.000309141
20.5027
20.5007
20.4984
20.4961
20.4939
20.4916
20.4892
20.4869
20.4845
20.4821
20.4796
20.4771
20.4745
20.472
20.4693
20.4667
20.464
20.4612
20.4584
20.4555
20.4526
20.4496
20.4466
20.4434
20.4401
20.4365
20.4333
20.4331
20.4375
20.4288
20.3407
20.1329
12.3978
0.428201
0.00537496
-6.24755e-05
-0.000222922
-0.000272264
-0.000299583
-0.000313371
-0.000320492
-0.000324046
-0.000325523
-0.000325877
-0.000325758
-0.00032561
-0.000325633
-0.000325747
-0.00032587
-0.000325986
21.8333
21.8316
21.8296
21.8276
21.8256
21.8235
21.8214
21.8193
21.817
21.8148
21.8124
21.8101
21.8076
21.8052
21.8026
21.8
21.7974
21.7947
21.7919
21.7891
21.7862
21.7832
21.7802
21.777
21.7736
21.7697
21.7672
21.7708
21.7808
21.7546
21.5678
21.2197
8.58338
0.145161
0.00209154
-0.00017748
-0.000260091
-0.000304804
-0.00032866
-0.000340764
-0.000346942
-0.000349799
-0.000350741
-0.0003507
-0.000350296
-0.000349939
-0.000349758
-0.000349657
-0.00034957
-0.000349487
23.1787
23.1764
23.1737
23.1712
23.1688
23.1665
23.1642
23.1619
23.1596
23.1575
23.1553
23.1532
23.1512
23.1492
23.1472
23.1453
23.1434
23.1416
23.1399
23.1382
23.1366
23.1351
23.1337
23.1322
23.1305
23.1287
23.1291
23.138
23.1525
23.1108
22.8572
22.0592
4.57244
0.0453631
0.000610736
-0.000235152
-0.000291109
-0.000329827
-0.000350865
-0.000361956
-0.000367676
-0.000370276
-0.000371124
-0.000371118
-0.000370842
-0.000370659
-0.000370632
-0.000370659
-0.00037069
-0.00037072
24.5218
24.519
24.516
24.5131
24.5104
24.5078
24.5052
24.5028
24.5004
24.4981
24.4958
24.4936
24.4916
24.4895
24.4876
24.4857
24.484
24.4823
24.4807
24.4792
24.4778
24.4765
24.4754
24.4742
24.473
24.4718
24.4728
24.4799
24.488
24.4468
24.2541
20.6234
1.7427
0.0146838
5.09281e-05
-0.000264099
-0.000322395
-0.00035803
-0.000376533
-0.000386091
-0.000390865
-0.000392852
-0.000393296
-0.000393027
-0.000392586
-0.000392281
-0.000392118
-0.000391998
-0.00039189
-0.000391788
25.8258
25.8238
25.8215
25.8192
25.8169
25.8146
25.8123
25.8099
25.8075
25.805
25.8025
25.8
25.7974
25.7948
25.7922
25.7895
25.7867
25.7839
25.781
25.7781
25.7751
25.7721
25.769
25.7657
25.762
25.7587
25.7581
25.7625
25.7572
25.6796
25.4734
16.6306
0.544484
0.00499951
-0.000147266
-0.000289553
-0.000348133
-0.000380537
-0.000397103
-0.000405858
-0.000410353
-0.000412337
-0.000412953
-0.000412968
-0.000412882
-0.000412937
-0.000413094
-0.000413268
-0.000413437
-0.000413599
1.95672e-05
1.90469e-05
1.85162e-05
1.79779e-05
1.74329e-05
1.68818e-05
1.63252e-05
1.57634e-05
1.51971e-05
1.46265e-05
1.40522e-05
1.34744e-05
1.28936e-05
1.23102e-05
1.17245e-05
1.11369e-05
1.05479e-05
9.95785e-06
9.3671e-06
8.77609e-06
8.18522e-06
7.59492e-06
7.00559e-06
6.41764e-06
5.83148e-06
5.24754e-06
4.6662e-06
4.08787e-06
3.51296e-06
2.94183e-06
2.37488e-06
1.81247e-06
1.25497e-06
7.02714e-07
1.56051e-07
-3.84697e-07
-9.19218e-07
-1.44721e-06
-1.9684e-06
-2.48251e-06
-2.98928e-06
-3.48847e-06
-3.97986e-06
-4.46322e-06
-4.93832e-06
-5.40511e-06
-5.86395e-06
-6.31514e-06
-6.75529e-06
-7.17076e-06
-6.80135e-05
-6.6895e-05
-6.58159e-05
-6.47735e-05
-6.37663e-05
-6.2793e-05
-6.1852e-05
-6.09421e-05
-6.00621e-05
-5.92108e-05
-5.83869e-05
-5.75894e-05
-5.68173e-05
-5.60694e-05
-5.53449e-05
-5.46427e-05
-5.39621e-05
-5.33021e-05
-5.26619e-05
-5.20408e-05
-5.1438e-05
-5.08527e-05
-5.02844e-05
-4.97322e-05
-4.91957e-05
-4.86742e-05
-4.81672e-05
-4.7674e-05
-4.71942e-05
-4.67272e-05
-4.62727e-05
-4.58301e-05
-4.53989e-05
-4.49788e-05
-4.45694e-05
-4.41703e-05
-4.3781e-05
-4.34013e-05
-4.30309e-05
-4.26693e-05
-4.23163e-05
-4.19716e-05
-4.16349e-05
-4.13059e-05
-4.09845e-05
-4.06702e-05
-4.03622e-05
-4.00596e-05
-3.97655e-05
-3.94944e-05
-4.6615e-05
-4.64629e-05
-4.63351e-05
-4.62297e-05
-4.61457e-05
-4.6082e-05
-4.60377e-05
-4.60117e-05
-4.60033e-05
-4.60114e-05
-4.60352e-05
-4.6074e-05
-4.61268e-05
-4.6193e-05
-4.62718e-05
-4.63625e-05
-4.64643e-05
-4.65765e-05
-4.66986e-05
-4.68299e-05
-4.69698e-05
-4.71176e-05
-4.72728e-05
-4.74349e-05
-4.76032e-05
-4.77773e-05
-4.79566e-05
-4.81406e-05
-4.83289e-05
-4.85209e-05
-4.87163e-05
-4.89146e-05
-4.91153e-05
-4.93182e-05
-4.95226e-05
-4.97284e-05
-4.9935e-05
-5.01422e-05
-5.03497e-05
-5.0557e-05
-5.07639e-05
-5.09701e-05
-5.11752e-05
-5.13791e-05
-5.15813e-05
-5.17818e-05
-5.19809e-05
-5.21786e-05
-5.23721e-05
-5.25484e-05
-9.98965e-05
-9.92708e-05
-9.86585e-05
-9.80594e-05
-9.74734e-05
-9.69005e-05
-9.63406e-05
-9.57937e-05
-9.52598e-05
-9.47387e-05
-9.42302e-05
-9.37344e-05
-9.3251e-05
-9.27798e-05
-9.23208e-05
-9.18736e-05
-9.14381e-05
-9.10142e-05
-9.06015e-05
-9.01998e-05
-8.98089e-05
-8.94286e-05
-8.90586e-05
-8.86986e-05
-8.83485e-05
-8.80078e-05
-8.76765e-05
-8.73541e-05
-8.70405e-05
-8.67353e-05
-8.64383e-05
-8.61493e-05
-8.58679e-05
-8.5594e-05
-8.53272e-05
-8.50673e-05
-8.4814e-05
-8.45672e-05
-8.43265e-05
-8.40918e-05
-8.38627e-05
-8.36391e-05
-8.34207e-05
-8.32074e-05
-8.2999e-05
-8.27951e-05
-8.25951e-05
-8.23981e-05
-8.22067e-05
-8.20334e-05
-9.2553e-05
-9.26119e-05
-9.26682e-05
-9.27223e-05
-9.27749e-05
-9.28264e-05
-9.28774e-05
-9.29282e-05
-9.29793e-05
-9.3031e-05
-9.30835e-05
-9.31371e-05
-9.3192e-05
-9.32483e-05
-9.33062e-05
-9.33658e-05
-9.34272e-05
-9.34904e-05
-9.35555e-05
-9.36225e-05
-9.36914e-05
-9.37621e-05
-9.38347e-05
-9.3909e-05
-9.3985e-05
-9.40627e-05
-9.41419e-05
-9.42226e-05
-9.43046e-05
-9.43879e-05
-9.44723e-05
-9.45578e-05
-9.46441e-05
-9.47312e-05
-9.48189e-05
-9.49072e-05
-9.49958e-05
-9.50846e-05
-9.51736e-05
-9.52626e-05
-9.53514e-05
-9.54399e-05
-9.5528e-05
-9.56156e-05
-9.57024e-05
-9.57885e-05
-9.58742e-05
-9.59594e-05
-9.60421e-05
-9.6113e-05
-0.000132062
-0.000131765
-0.000131472
-0.000131184
-0.0001309
-0.000130621
-0.000130346
-0.000130077
-0.000129812
-0.000129553
-0.000129298
-0.000129048
-0.000128804
-0.000128565
-0.00012833
-0.000128101
-0.000127876
-0.000127657
-0.000127443
-0.000127233
-0.000127028
-0.000126828
-0.000126632
-0.000126441
-0.000126254
-0.000126071
-0.000125893
-0.000125719
-0.000125549
-0.000125382
-0.00012522
-0.000125061
-0.000124905
-0.000124753
-0.000124605
-0.000124459
-0.000124317
-0.000124178
-0.000124041
-0.000123907
-0.000123776
-0.000123647
-0.000123521
-0.000123397
-0.000123275
-0.000123155
-0.000123037
-0.000122919
-0.000122805
-0.000122703
-0.000136774
-0.000136782
-0.000136792
-0.000136805
-0.000136819
-0.000136836
-0.000136855
-0.000136875
-0.000136897
-0.000136921
-0.000136946
-0.000136972
-0.000137
-0.000137028
-0.000137058
-0.000137089
-0.000137121
-0.000137155
-0.000137189
-0.000137224
-0.000137259
-0.000137296
-0.000137333
-0.000137371
-0.00013741
-0.000137449
-0.000137489
-0.000137529
-0.000137569
-0.00013761
-0.000137652
-0.000137693
-0.000137735
-0.000137776
-0.000137818
-0.00013786
-0.000137901
-0.000137943
-0.000137984
-0.000138025
-0.000138065
-0.000138106
-0.000138145
-0.000138184
-0.000138223
-0.000138261
-0.000138298
-0.000138335
-0.000138371
-0.000138398
-0.00016732
-0.000167175
-0.000167033
-0.000166894
-0.000166758
-0.000166625
-0.000166495
-0.000166368
-0.000166244
-0.000166123
-0.000166004
-0.000165888
-0.000165775
-0.000165664
-0.000165555
-0.000165449
-0.000165345
-0.000165244
-0.000165144
-0.000165047
-0.000164952
-0.000164859
-0.000164768
-0.000164678
-0.000164591
-0.000164505
-0.000164421
-0.000164339
-0.000164258
-0.000164178
-0.0001641
-0.000164024
-0.000163948
-0.000163874
-0.000163801
-0.000163729
-0.000163658
-0.000163588
-0.00016352
-0.000163451
-0.000163384
-0.000163318
-0.000163252
-0.000163186
-0.000163122
-0.000163058
-0.000162994
-0.000162929
-0.000162866
-0.000162811
-0.000178539
-0.000178613
-0.000178681
-0.000178745
-0.000178805
-0.000178862
-0.000178915
-0.000178966
-0.000179015
-0.000179061
-0.000179104
-0.000179147
-0.000179187
-0.000179226
-0.000179263
-0.000179299
-0.000179334
-0.000179368
-0.000179401
-0.000179433
-0.000179465
-0.000179495
-0.000179525
-0.000179554
-0.000179583
-0.000179611
-0.000179638
-0.000179665
-0.000179691
-0.000179717
-0.000179742
-0.000179767
-0.000179791
-0.000179815
-0.000179838
-0.000179861
-0.000179883
-0.000179904
-0.000179925
-0.000179946
-0.000179965
-0.000179984
-0.000180003
-0.000180021
-0.000180038
-0.000180055
-0.000180071
-0.000180086
-0.0001801
-0.000180109
-0.0002025
-0.000202575
-0.000202645
-0.00020271
-0.00020277
-0.000202826
-0.000202878
-0.000202925
-0.000202969
-0.00020301
-0.000203046
-0.00020308
-0.00020311
-0.000203137
-0.000203162
-0.000203183
-0.000203203
-0.000203219
-0.000203234
-0.000203246
-0.000203256
-0.000203265
-0.000203271
-0.000203275
-0.000203278
-0.00020328
-0.000203279
-0.000203277
-0.000203274
-0.000203269
-0.000203263
-0.000203256
-0.000203247
-0.000203238
-0.000203227
-0.000203215
-0.000203202
-0.000203188
-0.000203173
-0.000203156
-0.000203139
-0.000203121
-0.000203102
-0.000203082
-0.000203061
-0.000203039
-0.000203015
-0.000202991
-0.000202965
-0.000202944
-0.000225104
-0.00022491
-0.000224727
-0.000224555
-0.000224392
-0.000224238
-0.000224093
-0.000223956
-0.000223827
-0.000223705
-0.000223591
-0.000223482
-0.000223381
-0.000223285
-0.000223194
-0.000223109
-0.000223029
-0.000222954
-0.000222883
-0.000222817
-0.000222754
-0.000222696
-0.000222641
-0.000222589
-0.00022254
-0.000222495
-0.000222452
-0.000222412
-0.000222375
-0.000222339
-0.000222306
-0.000222275
-0.000222246
-0.000222219
-0.000222194
-0.00022217
-0.000222147
-0.000222126
-0.000222106
-0.000222087
-0.000222069
-0.000222052
-0.000222036
-0.000222021
-0.000222006
-0.000221992
-0.000221979
-0.000221966
-0.000221953
-0.000221939
-0.000240957
-0.000241144
-0.00024132
-0.000241485
-0.000241641
-0.000241787
-0.000241924
-0.000242053
-0.000242174
-0.000242287
-0.000242394
-0.000242494
-0.000242588
-0.000242677
-0.00024276
-0.000242837
-0.00024291
-0.000242978
-0.000243042
-0.000243101
-0.000243157
-0.000243209
-0.000243257
-0.000243302
-0.000243344
-0.000243383
-0.000243419
-0.000243452
-0.000243482
-0.00024351
-0.000243535
-0.000243558
-0.000243579
-0.000243597
-0.000243614
-0.000243628
-0.00024364
-0.000243651
-0.000243659
-0.000243666
-0.000243671
-0.000243674
-0.000243675
-0.000243675
-0.000243674
-0.00024367
-0.000243665
-0.000243658
-0.00024365
-0.000243643
-0.000268136
-0.000267905
-0.000267684
-0.000267474
-0.000267273
-0.000267082
-0.0002669
-0.000266726
-0.000266561
-0.000266404
-0.000266254
-0.000266111
-0.000265975
-0.000265846
-0.000265724
-0.000265607
-0.000265496
-0.00026539
-0.00026529
-0.000265194
-0.000265103
-0.000265017
-0.000264935
-0.000264857
-0.000264783
-0.000264713
-0.000264646
-0.000264582
-0.000264521
-0.000264464
-0.000264409
-0.000264357
-0.000264307
-0.00026426
-0.000264215
-0.000264172
-0.000264131
-0.000264092
-0.000264054
-0.000264018
-0.000263984
-0.000263951
-0.000263919
-0.000263889
-0.00026386
-0.000263832
-0.000263804
-0.000263778
-0.000263752
-0.000263727
-0.000284558
-0.000284587
-0.000284616
-0.000284645
-0.000284674
-0.000284703
-0.000284732
-0.000284761
-0.000284788
-0.000284816
-0.000284842
-0.000284868
-0.000284893
-0.000284918
-0.000284941
-0.000284964
-0.000284986
-0.000285007
-0.000285027
-0.000285046
-0.000285064
-0.000285081
-0.000285098
-0.000285113
-0.000285127
-0.000285141
-0.000285153
-0.000285164
-0.000285174
-0.000285184
-0.000285192
-0.000285199
-0.000285205
-0.000285211
-0.000285215
-0.000285218
-0.00028522
-0.000285221
-0.000285221
-0.000285219
-0.000285217
-0.000285214
-0.000285209
-0.000285204
-0.000285197
-0.000285189
-0.00028518
-0.00028517
-0.000285158
-0.000285148
-0.000308977
-0.00030882
-0.000308669
-0.000308524
-0.000308385
-0.000308251
-0.000308123
-0.000308
-0.000307882
-0.000307769
-0.000307661
-0.000307557
-0.000307457
-0.000307362
-0.00030727
-0.000307182
-0.000307098
-0.000307018
-0.000306941
-0.000306867
-0.000306796
-0.000306728
-0.000306663
-0.000306601
-0.000306541
-0.000306484
-0.000306429
-0.000306376
-0.000306326
-0.000306277
-0.000306231
-0.000306186
-0.000306143
-0.000306101
-0.000306061
-0.000306023
-0.000305986
-0.00030595
-0.000305915
-0.000305881
-0.000305849
-0.000305817
-0.000305786
-0.000305756
-0.000305727
-0.000305699
-0.000305671
-0.000305643
-0.000305616
-0.000305589
-0.000326095
-0.000326196
-0.000326291
-0.00032638
-0.000326463
-0.00032654
-0.000326613
-0.00032668
-0.000326744
-0.000326803
-0.000326858
-0.00032691
-0.000326958
-0.000327002
-0.000327044
-0.000327083
-0.000327119
-0.000327152
-0.000327183
-0.000327212
-0.000327238
-0.000327263
-0.000327285
-0.000327305
-0.000327323
-0.00032734
-0.000327355
-0.000327368
-0.000327379
-0.000327389
-0.000327397
-0.000327404
-0.00032741
-0.000327414
-0.000327416
-0.000327417
-0.000327417
-0.000327416
-0.000327413
-0.000327409
-0.000327404
-0.000327397
-0.00032739
-0.000327381
-0.00032737
-0.000327359
-0.000327346
-0.000327332
-0.000327316
-0.000327302
-0.000349407
-0.00034933
-0.000349257
-0.000349187
-0.00034912
-0.000349056
-0.000348995
-0.000348937
-0.000348881
-0.000348828
-0.000348778
-0.000348729
-0.000348683
-0.000348639
-0.000348597
-0.000348557
-0.000348519
-0.000348483
-0.000348448
-0.000348415
-0.000348383
-0.000348352
-0.000348322
-0.000348294
-0.000348267
-0.00034824
-0.000348215
-0.00034819
-0.000348167
-0.000348143
-0.000348121
-0.000348098
-0.000348077
-0.000348056
-0.000348035
-0.000348014
-0.000347994
-0.000347973
-0.000347953
-0.000347933
-0.000347913
-0.000347893
-0.000347873
-0.000347853
-0.000347832
-0.000347812
-0.000347791
-0.00034777
-0.000347749
-0.000347726
-0.000370749
-0.000370777
-0.000370803
-0.000370828
-0.000370851
-0.000370872
-0.000370891
-0.000370909
-0.000370925
-0.000370939
-0.000370951
-0.000370962
-0.00037097
-0.000370978
-0.000370983
-0.000370987
-0.00037099
-0.000370991
-0.00037099
-0.000370988
-0.000370984
-0.00037098
-0.000370973
-0.000370966
-0.000370957
-0.000370947
-0.000370936
-0.000370924
-0.000370911
-0.000370896
-0.000370881
-0.000370864
-0.000370847
-0.000370828
-0.000370808
-0.000370788
-0.000370766
-0.000370744
-0.00037072
-0.000370696
-0.000370671
-0.000370644
-0.000370617
-0.000370589
-0.00037056
-0.000370531
-0.0003705
-0.000370467
-0.000370434
-0.000370404
-0.000391693
-0.000391604
-0.000391521
-0.000391444
-0.000391373
-0.000391307
-0.000391245
-0.000391189
-0.000391137
-0.000391089
-0.000391045
-0.000391005
-0.000390968
-0.000390935
-0.000390904
-0.000390877
-0.000390851
-0.000390829
-0.000390808
-0.000390789
-0.000390773
-0.000390757
-0.000390743
-0.000390731
-0.000390719
-0.000390708
-0.000390699
-0.000390689
-0.000390681
-0.000390672
-0.000390664
-0.000390656
-0.000390648
-0.00039064
-0.000390631
-0.000390623
-0.000390614
-0.000390605
-0.000390595
-0.000390585
-0.000390574
-0.000390562
-0.00039055
-0.000390537
-0.000390523
-0.000390508
-0.000390493
-0.000390477
-0.000390459
-0.000390438
-0.000413754
-0.000413903
-0.000414044
-0.000414177
-0.000414303
-0.000414422
-0.000414533
-0.000414637
-0.000414733
-0.000414823
-0.000414904
-0.000414979
-0.000415047
-0.000415108
-0.000415163
-0.000415211
-0.000415253
-0.000415289
-0.00041532
-0.000415345
-0.000415364
-0.000415378
-0.000415388
-0.000415392
-0.000415393
-0.000415389
-0.000415381
-0.000415369
-0.000415354
-0.000415335
-0.000415313
-0.000415287
-0.000415259
-0.000415228
-0.000415194
-0.000415158
-0.00041512
-0.000415079
-0.000415036
-0.000414992
-0.000414945
-0.000414897
-0.000414846
-0.000414795
-0.000414741
-0.000414686
-0.00041463
-0.000414572
-0.000414512
-0.000414457
-7.46124e-06
-7.67869e-06
-7.908e-06
-8.13835e-06
-8.36663e-06
-8.59298e-06
-8.81777e-06
-9.04105e-06
-9.26276e-06
-9.48281e-06
-9.70116e-06
-9.91775e-06
-1.01325e-05
-1.03454e-05
-1.05564e-05
-1.07655e-05
-1.09725e-05
-1.11774e-05
-1.13803e-05
-1.1581e-05
-1.17795e-05
-1.19758e-05
-1.21698e-05
-1.23615e-05
-1.25509e-05
-1.27378e-05
-1.29224e-05
-1.31045e-05
-1.32842e-05
-1.34613e-05
-1.36359e-05
-1.38079e-05
-1.39773e-05
-1.41441e-05
-1.43082e-05
-1.44697e-05
-1.46285e-05
-1.47846e-05
-1.4938e-05
-1.50886e-05
-1.52365e-05
-1.53816e-05
-1.55239e-05
-1.56634e-05
-1.58e-05
-1.59339e-05
-1.60649e-05
-1.61931e-05
-1.63184e-05
-1.64409e-05
-1.65605e-05
-1.66772e-05
-1.67911e-05
-1.69021e-05
-1.70102e-05
-1.71155e-05
-1.72179e-05
-1.73174e-05
-1.74141e-05
-1.75079e-05
-1.75988e-05
-1.76869e-05
-1.77721e-05
-1.78546e-05
-1.79341e-05
-1.80109e-05
-1.80848e-05
-1.8156e-05
-1.82243e-05
-1.82899e-05
-1.83527e-05
-1.84127e-05
-1.847e-05
-1.85246e-05
-1.85764e-05
-1.86256e-05
-1.8672e-05
-1.87158e-05
-1.8757e-05
-1.87955e-05
-1.88314e-05
-1.88647e-05
-1.88955e-05
-1.89236e-05
-1.89493e-05
-1.89724e-05
-1.8993e-05
-1.90112e-05
-1.90269e-05
-1.90401e-05
-1.9051e-05
-1.90595e-05
-1.90656e-05
-1.90693e-05
-1.90708e-05
-1.907e-05
-1.90669e-05
-1.90615e-05
-1.9054e-05
-1.90442e-05
-1.90323e-05
-1.90183e-05
-1.90022e-05
-1.89839e-05
-1.89637e-05
-1.89414e-05
-1.89171e-05
-1.88908e-05
-1.88627e-05
-1.88326e-05
-1.88006e-05
-1.87668e-05
-1.87312e-05
-1.86938e-05
-1.86547e-05
-1.86138e-05
-1.85712e-05
-1.8527e-05
-1.84812e-05
-1.84338e-05
-1.83849e-05
-1.83344e-05
-1.82824e-05
-1.8229e-05
-1.81742e-05
-1.8118e-05
-1.80604e-05
-1.80016e-05
-1.79414e-05
-1.78801e-05
-1.78175e-05
-1.77538e-05
-1.7689e-05
-1.7623e-05
-1.7556e-05
-1.7488e-05
-1.74191e-05
-1.73492e-05
-1.72783e-05
-1.72067e-05
-1.71342e-05
-1.70609e-05
-1.69869e-05
-1.69121e-05
-1.68367e-05
-1.67607e-05
-1.66841e-05
-1.66069e-05
-1.65292e-05
-1.6451e-05
-1.63724e-05
-1.62933e-05
-1.6214e-05
-1.61342e-05
-1.60542e-05
-1.5974e-05
-1.58935e-05
-1.58128e-05
-1.5732e-05
-1.56511e-05
-1.55701e-05
-1.54891e-05
-1.5408e-05
-1.5327e-05
-1.52461e-05
-1.51653e-05
-1.50846e-05
-1.5004e-05
-1.49237e-05
-1.48435e-05
-1.47637e-05
-1.46841e-05
-1.46048e-05
-1.45259e-05
-1.44473e-05
-1.43692e-05
-1.42915e-05
-1.42142e-05
-1.41374e-05
-1.40611e-05
-1.39853e-05
-1.39101e-05
-1.38355e-05
-1.37614e-05
-1.3688e-05
-1.36152e-05
-1.3543e-05
-1.34716e-05
-1.34008e-05
-1.33307e-05
-1.32613e-05
-1.31927e-05
-1.31248e-05
-1.30577e-05
-1.29914e-05
-1.29259e-05
-1.28611e-05
-1.27972e-05
-1.27341e-05
-1.26718e-05
-1.26103e-05
-1.25497e-05
-1.249e-05
-1.24311e-05
-1.23731e-05
-1.23159e-05
-1.22596e-05
-1.22042e-05
-1.21496e-05
-1.20959e-05
-1.20431e-05
-1.19912e-05
-1.19401e-05
-1.189e-05
-1.18406e-05
-1.17922e-05
-1.17446e-05
-1.16979e-05
-1.1652e-05
-1.1607e-05
-1.15629e-05
-1.15196e-05
-1.14771e-05
-1.14354e-05
-1.13946e-05
-1.13546e-05
-1.13154e-05
-1.1277e-05
-1.12394e-05
-1.12025e-05
-1.11665e-05
-1.11312e-05
-1.10966e-05
-1.10628e-05
-1.10298e-05
-1.09974e-05
-1.09658e-05
-1.09349e-05
-1.09047e-05
-1.08751e-05
-1.08463e-05
-1.08181e-05
-1.07905e-05
-1.07636e-05
-1.07373e-05
-1.07116e-05
-1.06865e-05
-1.0662e-05
-1.06381e-05
-1.06148e-05
-1.05921e-05
-1.05699e-05
-1.05482e-05
-1.0527e-05
-1.05064e-05
-1.04863e-05
-1.04667e-05
-1.04476e-05
-1.0429e-05
-1.04108e-05
-1.03931e-05
-1.03759e-05
-1.03591e-05
-1.03427e-05
-1.03268e-05
-1.03113e-05
-1.02962e-05
-1.02815e-05
-1.02672e-05
-1.02534e-05
-1.02399e-05
-1.02268e-05
-1.02141e-05
-1.02017e-05
-1.01898e-05
-1.01782e-05
-1.0167e-05
-1.01561e-05
-1.01456e-05
-1.01355e-05
-1.01257e-05
-1.01162e-05
-1.01071e-05
-1.00984e-05
-1.009e-05
-1.00819e-05
-1.00742e-05
-1.00667e-05
-1.00596e-05
-1.00528e-05
-1.00463e-05
-1.00401e-05
-1.00342e-05
-1.00285e-05
-1.00231e-05
-1.00178e-05
-1.00128e-05
-1.00078e-05
-1.0003e-05
-9.99828e-06
-3.93192e-05
-3.91861e-05
-3.90421e-05
-3.88965e-05
-3.87518e-05
-3.8608e-05
-3.84648e-05
-3.83221e-05
-3.81799e-05
-3.80381e-05
-3.78969e-05
-3.77563e-05
-3.76162e-05
-3.74766e-05
-3.73377e-05
-3.71993e-05
-3.70616e-05
-3.69245e-05
-3.6788e-05
-3.66522e-05
-3.65171e-05
-3.63826e-05
-3.62489e-05
-3.61159e-05
-3.59836e-05
-3.5852e-05
-3.57212e-05
-3.55912e-05
-3.54619e-05
-3.53335e-05
-3.52059e-05
-3.50791e-05
-3.49532e-05
-3.48281e-05
-3.47039e-05
-3.45806e-05
-3.44582e-05
-3.43367e-05
-3.42161e-05
-3.40965e-05
-3.39779e-05
-3.38602e-05
-3.37435e-05
-3.36279e-05
-3.35132e-05
-3.33996e-05
-3.3287e-05
-3.31755e-05
-3.30651e-05
-3.29558e-05
-3.28475e-05
-3.27404e-05
-3.26344e-05
-3.25296e-05
-3.24259e-05
-3.23234e-05
-3.22221e-05
-3.21219e-05
-3.2023e-05
-3.19253e-05
-3.18289e-05
-3.17337e-05
-3.16397e-05
-3.15471e-05
-3.14557e-05
-3.13656e-05
-3.12768e-05
-3.11893e-05
-3.11032e-05
-3.10184e-05
-3.09349e-05
-3.08528e-05
-3.07721e-05
-3.06928e-05
-3.06148e-05
-3.05383e-05
-3.04631e-05
-3.03894e-05
-3.03171e-05
-3.02462e-05
-3.01767e-05
-3.01087e-05
-3.00421e-05
-2.9977e-05
-2.99134e-05
-2.98512e-05
-2.97904e-05
-2.97312e-05
-2.96734e-05
-2.96171e-05
-2.95623e-05
-2.95089e-05
-2.94571e-05
-2.94067e-05
-2.93578e-05
-2.93104e-05
-2.92644e-05
-2.922e-05
-2.9177e-05
-2.91355e-05
-2.90955e-05
-2.90569e-05
-2.90198e-05
-2.89841e-05
-2.89499e-05
-2.89172e-05
-2.88859e-05
-2.8856e-05
-2.88275e-05
-2.88005e-05
-2.87748e-05
-2.87505e-05
-2.87277e-05
-2.87062e-05
-2.8686e-05
-2.86672e-05
-2.86497e-05
-2.86336e-05
-2.86187e-05
-2.86052e-05
-2.85929e-05
-2.85819e-05
-2.85721e-05
-2.85635e-05
-2.85561e-05
-2.855e-05
-2.85449e-05
-2.85411e-05
-2.85384e-05
-2.85367e-05
-2.85362e-05
-2.85367e-05
-2.85383e-05
-2.85409e-05
-2.85444e-05
-2.8549e-05
-2.85545e-05
-2.85609e-05
-2.85683e-05
-2.85765e-05
-2.85855e-05
-2.85954e-05
-2.86061e-05
-2.86176e-05
-2.86298e-05
-2.86427e-05
-2.86564e-05
-2.86707e-05
-2.86856e-05
-2.87012e-05
-2.87173e-05
-2.8734e-05
-2.87513e-05
-2.87691e-05
-2.87873e-05
-2.8806e-05
-2.88251e-05
-2.88446e-05
-2.88645e-05
-2.88848e-05
-2.89053e-05
-2.89262e-05
-2.89473e-05
-2.89687e-05
-2.89902e-05
-2.9012e-05
-2.9034e-05
-2.9056e-05
-2.90782e-05
-2.91005e-05
-2.91229e-05
-2.91453e-05
-2.91677e-05
-2.91901e-05
-2.92125e-05
-2.92348e-05
-2.92571e-05
-2.92793e-05
-2.93014e-05
-2.93234e-05
-2.93452e-05
-2.93669e-05
-2.93884e-05
-2.94096e-05
-2.94307e-05
-2.94515e-05
-2.94721e-05
-2.94925e-05
-2.95125e-05
-2.95323e-05
-2.95517e-05
-2.95709e-05
-2.95897e-05
-2.96082e-05
-2.96263e-05
-2.96441e-05
-2.96615e-05
-2.96785e-05
-2.96952e-05
-2.97114e-05
-2.97273e-05
-2.97428e-05
-2.97578e-05
-2.97725e-05
-2.97867e-05
-2.98005e-05
-2.98139e-05
-2.98268e-05
-2.98393e-05
-2.98514e-05
-2.98631e-05
-2.98744e-05
-2.98852e-05
-2.98956e-05
-2.99056e-05
-2.99151e-05
-2.99242e-05
-2.99329e-05
-2.99412e-05
-2.99491e-05
-2.99566e-05
-2.99637e-05
-2.99704e-05
-2.99767e-05
-2.99827e-05
-2.99882e-05
-2.99934e-05
-2.99982e-05
-3.00027e-05
-3.00068e-05
-3.00106e-05
-3.00141e-05
-3.00172e-05
-3.002e-05
-3.00225e-05
-3.00248e-05
-3.00267e-05
-3.00284e-05
-3.00298e-05
-3.00309e-05
-3.00318e-05
-3.00325e-05