/*--------------------------------*- C++ -*----------------------------------*\
| =========                 |                                                 |
| \\      /  F ield         | OpenFOAM: The Open Source CFD Toolbox           |
|  \\    /   O peration     | Version:  2.4.0                                 |
|   \\  /    A nd           | Web:      www.OpenFOAM.org                      |
|    \\/     M anipulation  |                                                 |
\*---------------------------------------------------------------------------*/
FoamFile
{
    version     2.0;
    format      ascii;
    class       surfaceScalarField;
    location    "1";
    object      phi;
}
// * * * * * * * * * * * * * * * * * * * * * * * * * * * * * * * * * * * * * //

dimensions      [0 3 -1 0 0 0 0];

internalField   nonuniform List<scalar> 
15580
(
-1.30407e-13
-2.60872e-12
-4.26888e-13
-7.71199e-12
-8.47608e-13
-1.26803e-11
-1.37746e-12
-1.75038e-11
-2.00333e-12
-2.21827e-11
-2.71386e-12
-2.67173e-11
-3.49927e-12
-3.11078e-11
-4.35108e-12
-3.53545e-11
-5.262e-12
-3.94575e-11
-6.2257e-12
-4.34169e-11
-7.23672e-12
-4.72331e-11
-8.29036e-12
-5.09061e-11
-9.38249e-12
-5.4436e-11
-1.05096e-11
-5.78229e-11
-1.16685e-11
-6.10671e-11
-1.28566e-11
-6.41685e-11
-1.40714e-11
-6.71272e-11
-1.53109e-11
-6.99433e-11
-1.6573e-11
-7.26169e-11
-1.78562e-11
-7.5148e-11
-1.91586e-11
-7.75365e-11
-2.04789e-11
-7.97826e-11
-2.18156e-11
-8.18861e-11
-2.31671e-11
-8.38472e-11
-2.45319e-11
-8.56658e-11
-2.59086e-11
-8.73417e-11
-2.72953e-11
-8.8875e-11
-2.86904e-11
-9.02657e-11
-3.00917e-11
-9.15134e-11
-3.14972e-11
-9.26183e-11
-3.29042e-11
-9.35801e-11
-3.431e-11
-9.43988e-11
-3.57114e-11
-9.50736e-11
-3.71052e-11
-9.56037e-11
-3.84866e-11
-9.5989e-11
-4.1529e-11
-9.62366e-11
-4.82625e-11
-9.63949e-11
-4.95141e-11
-9.64625e-11
-5.07341e-11
-9.64864e-11
-5.19245e-11
-9.65144e-11
-5.31302e-11
-9.65031e-11
-5.43102e-11
-9.64797e-11
-5.54116e-11
-9.64635e-11
-5.64477e-11
-9.64281e-11
-5.74331e-11
-9.63679e-11
-5.83787e-11
-9.62785e-11
-5.92925e-11
-9.61559e-11
-6.0181e-11
-9.59969e-11
-6.10487e-11
-9.57993e-11
-9.55616e-11
-6.18984e-11
-4.06859e-14
-2.56803e-12
-1.96869e-13
-7.55581e-12
-4.72136e-13
-1.24051e-11
-8.55886e-13
-1.71201e-11
-1.33875e-12
-2.16998e-11
-1.91239e-12
-2.61437e-11
-2.56936e-12
-3.04508e-11
-3.30303e-12
-3.46208e-11
-4.10747e-12
-3.8653e-11
-4.97739e-12
-4.2547e-11
-5.90807e-12
-4.63024e-11
-6.89527e-12
-4.99188e-11
-7.93521e-12
-5.3396e-11
-9.02447e-12
-5.67337e-11
-1.016e-11
-5.99316e-11
-1.13389e-11
-6.29896e-11
-1.25587e-11
-6.59074e-11
-1.38171e-11
-6.8685e-11
-1.51118e-11
-7.13222e-11
-1.64407e-11
-7.3819e-11
-1.78019e-11
-7.61753e-11
-1.91934e-11
-7.8391e-11
-2.06134e-11
-8.04662e-11
-2.20597e-11
-8.24008e-11
-2.35305e-11
-8.4195e-11
-2.50237e-11
-8.58486e-11
-2.65368e-11
-8.73619e-11
-2.80675e-11
-8.8735e-11
-2.9613e-11
-8.99679e-11
-3.11704e-11
-9.1061e-11
-3.27362e-11
-9.20143e-11
-3.43066e-11
-9.28283e-11
-3.5877e-11
-9.35032e-11
-3.7442e-11
-9.40387e-11
-3.89966e-11
-9.44345e-11
-4.80279e-11
-9.46931e-11
-5.24027e-11
-9.48554e-11
-5.39497e-11
-9.49154e-11
-5.54573e-11
-9.49788e-11
-5.6914e-11
-9.50577e-11
-5.8246e-11
-9.51711e-11
-5.94698e-11
-9.52559e-11
-6.06281e-11
-9.53052e-11
-6.17343e-11
-9.53218e-11
-6.28001e-11
-9.53021e-11
-6.38352e-11
-9.52435e-11
-6.48469e-11
-9.51442e-11
-6.58408e-11
-9.5003e-11
-6.68207e-11
-9.48194e-11
-9.45934e-11
-6.77889e-11
-3.18666e-14
-2.53617e-12
-1.04837e-13
-7.48284e-12
-2.1288e-13
-1.2297e-11
-3.57709e-13
-1.69752e-11
-5.40423e-13
-2.15171e-11
-7.61653e-13
-2.59224e-11
-1.02166e-12
-3.01908e-11
-1.32039e-12
-3.43221e-11
-1.65756e-12
-3.83158e-11
-2.03268e-12
-4.21719e-11
-2.44512e-12
-4.589e-11
-2.89413e-12
-4.94698e-11
-3.37889e-12
-5.29113e-11
-3.89851e-12
-5.62141e-11
-4.45206e-12
-5.9378e-11
-5.03863e-12
-6.2403e-11
-5.65727e-12
-6.52888e-11
-6.30705e-12
-6.80352e-11
-6.98707e-12
-7.06422e-11
-7.69647e-12
-7.31096e-11
-8.43439e-12
-7.54374e-11
-9.20007e-12
-7.76254e-11
-9.99274e-12
-7.96735e-11
-1.08118e-11
-8.15818e-11
-1.16565e-11
-8.33503e-11
-1.25263e-11
-8.49787e-11
-1.34209e-11
-8.64674e-11
-1.43397e-11
-8.78161e-11
-1.52825e-11
-8.90251e-11
-1.62491e-11
-9.00944e-11
-1.72393e-11
-9.10242e-11
-1.82534e-11
-9.18142e-11
-1.92915e-11
-9.24651e-11
-2.03524e-11
-9.29778e-11
-2.14309e-11
-9.3356e-11
-3.44923e-11
-9.36049e-11
-3.65785e-11
-9.37228e-11
-3.77221e-11
-9.37719e-11
-3.88749e-11
-9.3826e-11
-4.00661e-11
-9.38665e-11
-4.13409e-11
-9.38963e-11
-4.26633e-11
-9.39336e-11
-4.40112e-11
-9.39573e-11
-4.53761e-11
-9.39569e-11
-4.67516e-11
-9.39266e-11
-4.81324e-11
-9.38627e-11
-4.95142e-11
-9.37623e-11
-5.08937e-11
-9.36236e-11
-5.22676e-11
-9.34455e-11
-9.32275e-11
-5.36335e-11
-1.13262e-14
-2.52484e-12
-6.00954e-14
-7.43407e-12
-1.50742e-13
-1.22064e-11
-2.827e-13
-1.68433e-11
-4.55514e-13
-2.13443e-11
-6.68801e-13
-2.57091e-11
-9.22231e-13
-2.99374e-11
-1.21552e-12
-3.40288e-11
-1.54844e-12
-3.79829e-11
-1.92079e-12
-4.17995e-11
-2.33241e-12
-4.54783e-11
-2.78319e-12
-4.90191e-11
-3.27305e-12
-5.24214e-11
-3.80195e-12
-5.56852e-11
-4.3699e-12
-5.88101e-11
-4.97697e-12
-6.17959e-11
-5.62328e-12
-6.46425e-11
-6.309e-12
-6.73495e-11
-7.03437e-12
-6.99168e-11
-7.79973e-12
-7.23443e-11
-8.60547e-12
-7.46316e-11
-9.45209e-12
-7.67787e-11
-1.03402e-11
-7.87854e-11
-1.12705e-11
-8.06515e-11
-1.22439e-11
-8.23769e-11
-1.32612e-11
-8.39614e-11
-1.43238e-11
-8.54048e-11
-1.54328e-11
-8.67071e-11
-1.65898e-11
-8.78681e-11
-1.77966e-11
-8.88876e-11
-1.9055e-11
-8.97657e-11
-2.03674e-11
-9.05018e-11
-2.17363e-11
-9.10963e-11
-2.3164e-11
-9.155e-11
-2.48502e-11
-9.18661e-11
-3.46499e-11
-9.20592e-11
-3.62568e-11
-9.21159e-11
-3.78792e-11
-9.21494e-11
-3.95142e-11
-9.2191e-11
-4.10962e-11
-9.22845e-11
-4.26082e-11
-9.23843e-11
-4.40869e-11
-9.24549e-11
-4.55436e-11
-9.25005e-11
-4.69846e-11
-9.2516e-11
-4.84134e-11
-9.24978e-11
-4.98323e-11
-9.24437e-11
-5.12426e-11
-9.2352e-11
-5.26449e-11
-9.22213e-11
-5.40391e-11
-9.20513e-11
-9.18418e-11
-5.54248e-11
-1.37636e-14
-2.51108e-12
-4.81127e-14
-7.39972e-12
-1.02268e-13
-1.21522e-11
-1.78332e-13
-1.67672e-11
-2.78206e-13
-2.12444e-11
-4.03624e-13
-2.55837e-11
-5.56185e-13
-2.97849e-11
-7.37363e-13
-3.38476e-11
-9.48533e-13
-3.77718e-11
-1.19098e-12
-4.15571e-11
-1.46592e-12
-4.52034e-11
-1.77449e-12
-4.87105e-11
-2.11782e-12
-5.20781e-11
-2.49695e-12
-5.5306e-11
-2.91294e-12
-5.83941e-11
-3.36682e-12
-6.1342e-11
-3.85959e-12
-6.41497e-11
-4.39228e-12
-6.68168e-11
-4.96592e-12
-6.93432e-11
-5.58156e-12
-7.17286e-11
-6.24028e-12
-7.39729e-11
-6.94318e-12
-7.60758e-11
-7.69145e-12
-7.80372e-11
-8.48626e-12
-7.98567e-11
-9.32893e-12
-8.15342e-11
-1.02208e-11
-8.30695e-11
-1.11633e-11
-8.44623e-11
-1.21579e-11
-8.57125e-11
-1.32064e-11
-8.68196e-11
-1.43103e-11
-8.77837e-11
-1.54716e-11
-8.86044e-11
-1.6692e-11
-8.92814e-11
-1.79751e-11
-8.98131e-11
-1.93277e-11
-9.01975e-11
-2.22641e-11
-9.04371e-11
-3.02976e-11
-9.05977e-11
-3.17839e-11
-9.06295e-11
-3.32808e-11
-9.06525e-11
-3.47803e-11
-9.06915e-11
-3.62886e-11
-9.07763e-11
-3.77818e-11
-9.08911e-11
-3.92492e-11
-9.09874e-11
-4.06967e-11
-9.10531e-11
-4.21288e-11
-9.10838e-11
-4.35493e-11
-9.10773e-11
-4.49611e-11
-9.1032e-11
-4.63662e-11
-9.09468e-11
-4.77662e-11
-9.08214e-11
-4.91617e-11
-9.06558e-11
-9.04505e-11
-5.0553e-11
-5.39741e-15
-2.50568e-12
-2.87787e-14
-7.37634e-12
-7.33794e-14
-1.21076e-11
-1.4048e-13
-1.67001e-11
-2.31308e-13
-2.11536e-11
-3.47037e-13
-2.5468e-11
-4.88785e-13
-2.96431e-11
-6.57618e-13
-3.36788e-11
-8.54555e-13
-3.75748e-11
-1.08057e-12
-4.13311e-11
-1.3366e-12
-4.49474e-11
-1.62353e-12
-4.84235e-11
-1.94224e-12
-5.17594e-11
-2.29355e-12
-5.49547e-11
-2.67825e-12
-5.80094e-11
-3.09714e-12
-6.09232e-11
-3.55096e-12
-6.36959e-11
-4.04044e-12
-6.63273e-11
-4.56631e-12
-6.88173e-11
-5.12927e-12
-7.11657e-11
-5.73e-12
-7.33722e-11
-6.36918e-12
-7.54367e-11
-7.04749e-12
-7.73589e-11
-7.76556e-12
-7.91386e-11
-8.52407e-12
-8.07757e-11
-9.32362e-12
-8.227e-11
-1.01649e-11
-8.36211e-11
-1.10484e-11
-8.4829e-11
-1.19748e-11
-8.58932e-11
-1.29447e-11
-8.68138e-11
-1.3959e-11
-8.75901e-11
-1.50181e-11
-8.82223e-11
-1.6121e-11
-8.87103e-11
-1.7262e-11
-8.90565e-11
-2.82794e-11
-8.92662e-11
-3.17694e-11
-8.93427e-11
-3.30439e-11
-8.93551e-11
-3.43243e-11
-8.9372e-11
-3.56006e-11
-8.94152e-11
-3.68679e-11
-8.9509e-11
-3.81715e-11
-8.95875e-11
-3.9511e-11
-8.96479e-11
-4.08803e-11
-8.96838e-11
-4.22737e-11
-8.96905e-11
-4.36861e-11
-8.96649e-11
-4.51134e-11
-8.96048e-11
-4.65516e-11
-8.95086e-11
-4.79974e-11
-8.93755e-11
-4.94478e-11
-8.92054e-11
-8.89982e-11
-5.09001e-11
-1.14845e-14
-2.4942e-12
-4.45752e-14
-7.34325e-12
-9.96364e-14
-1.20526e-11
-1.77869e-13
-1.66219e-11
-2.80449e-13
-2.1051e-11
-4.08531e-13
-2.53399e-11
-5.63247e-13
-2.94884e-11
-7.45705e-13
-3.34963e-11
-9.56991e-13
-3.73635e-11
-1.19816e-12
-4.10899e-11
-1.47026e-12
-4.46753e-11
-1.7743e-12
-4.81195e-11
-2.11125e-12
-5.14224e-11
-2.48209e-12
-5.45839e-11
-2.88775e-12
-5.76037e-11
-3.32914e-12
-6.04818e-11
-3.80714e-12
-6.32179e-11
-4.32261e-12
-6.58119e-11
-4.87636e-12
-6.82636e-11
-5.46919e-12
-7.05728e-11
-6.10186e-12
-7.27395e-11
-6.77507e-12
-7.47634e-11
-7.48951e-12
-7.66444e-11
-8.24579e-12
-7.83824e-11
-9.04447e-12
-7.9977e-11
-9.88608e-12
-8.14284e-11
-1.0771e-11
-8.27361e-11
-1.16997e-11
-8.39003e-11
-1.26723e-11
-8.49206e-11
-1.3689e-11
-8.5797e-11
-1.475e-11
-8.65292e-11
-1.5855e-11
-8.71173e-11
-1.70032e-11
-8.7562e-11
-1.839e-11
-8.78666e-11
-2.92161e-11
-8.80501e-11
-3.04705e-11
-8.80883e-11
-3.17261e-11
-8.80995e-11
-3.29794e-11
-8.81186e-11
-3.42279e-11
-8.81667e-11
-3.55013e-11
-8.82357e-11
-3.67938e-11
-8.8295e-11
-3.81061e-11
-8.83356e-11
-3.94382e-11
-8.83517e-11
-4.07892e-11
-8.83394e-11
-4.21579e-11
-8.82962e-11
-4.35424e-11
-8.82202e-11
-4.49407e-11
-8.81103e-11
-4.63503e-11
-8.79659e-11
-4.7769e-11
-8.77867e-11
-8.7573e-11
-4.91942e-11
-1.58614e-14
-2.47833e-12
-6.3394e-14
-7.29572e-12
-1.42658e-13
-1.19733e-11
-2.5381e-13
-1.65107e-11
-3.97104e-13
-2.09077e-11
-5.7288e-13
-2.51641e-11
-7.81551e-13
-2.92797e-11
-1.02359e-12
-3.32543e-11
-1.29954e-12
-3.70876e-11
-1.60998e-12
-4.07795e-11
-1.95554e-12
-4.43297e-11
-2.33688e-12
-4.77382e-11
-2.75469e-12
-5.10046e-11
-3.2097e-12
-5.41289e-11
-3.70267e-12
-5.71108e-11
-4.23437e-12
-5.99501e-11
-4.80559e-12
-6.26467e-11
-5.41715e-12
-6.52003e-11
-6.06988e-12
-6.76108e-11
-6.76463e-12
-6.98781e-11
-7.50227e-12
-7.20019e-11
-8.28369e-12
-7.3982e-11
-9.10977e-12
-7.58183e-11
-9.98146e-12
-7.75107e-11
-1.08997e-11
-7.90588e-11
-1.18654e-11
-8.04626e-11
-1.28796e-11
-8.17219e-11
-1.39434e-11
-8.28365e-11
-1.50576e-11
-8.38063e-11
-1.62235e-11
-8.46311e-11
-1.7442e-11
-8.53107e-11
-1.87151e-11
-8.58442e-11
-2.00459e-11
-8.62311e-11
-2.30234e-11
-8.64745e-11
-3.20113e-11
-8.66232e-11
-3.34553e-11
-8.66442e-11
-3.48962e-11
-8.66585e-11
-3.63176e-11
-8.66972e-11
-3.76879e-11
-8.67964e-11
-3.90297e-11
-8.68939e-11
-4.0354e-11
-8.69707e-11
-4.16689e-11
-8.70207e-11
-4.29799e-11
-8.70407e-11
-4.42906e-11
-8.70287e-11
-4.56034e-11
-8.69834e-11
-4.69198e-11
-8.69038e-11
-4.82407e-11
-8.67894e-11
-4.95664e-11
-8.66402e-11
-5.08966e-11
-8.64565e-11
-8.62388e-11
-5.22308e-11
-9.51295e-15
-2.46882e-12
-4.05463e-14
-7.26468e-12
-9.48605e-14
-1.1919e-11
-1.73791e-13
-1.64318e-11
-2.78537e-13
-2.0803e-11
-4.10182e-13
-2.50325e-11
-5.69709e-13
-2.91202e-11
-7.58014e-13
-3.3066e-11
-9.75916e-13
-3.68697e-11
-1.22417e-12
-4.05312e-11
-1.50348e-12
-4.40504e-11
-1.81451e-12
-4.74272e-11
-2.15785e-12
-5.06613e-11
-2.53411e-12
-5.37526e-11
-2.94382e-12
-5.6701e-11
-3.38754e-12
-5.95064e-11
-3.86578e-12
-6.21684e-11
-4.37906e-12
-6.4687e-11
-4.92788e-12
-6.7062e-11
-5.51276e-12
-6.92932e-11
-6.13421e-12
-7.13804e-11
-6.79278e-12
-7.33235e-11
-7.48901e-12
-7.51221e-11
-8.2235e-12
-7.67762e-11
-8.99685e-12
-7.82855e-11
-9.80975e-12
-7.96497e-11
-1.06629e-11
-8.08688e-11
-1.15571e-11
-8.19423e-11
-1.24933e-11
-8.28702e-11
-1.34724e-11
-8.3652e-11
-1.44955e-11
-8.42876e-11
-1.55635e-11
-8.47762e-11
-1.66767e-11
-8.5118e-11
-2.51709e-11
-8.53173e-11
-3.01985e-11
-8.54054e-11
-3.14355e-11
-8.54072e-11
-3.26804e-11
-8.54135e-11
-3.39422e-11
-8.54355e-11
-3.52386e-11
-8.54999e-11
-3.65691e-11
-8.55635e-11
-3.79276e-11
-8.56122e-11
-3.93086e-11
-8.56397e-11
-4.07072e-11
-8.56421e-11
-4.21193e-11
-8.56167e-11
-4.35414e-11
-8.55613e-11
-4.49707e-11
-8.54745e-11
-4.64045e-11
-8.53556e-11
-4.78406e-11
-8.52041e-11
-4.92768e-11
-8.50202e-11
-8.4804e-11
-5.07116e-11
-1.51258e-14
-2.4537e-12
-6.08676e-14
-7.21894e-12
-1.37571e-13
-1.18423e-11
-2.45576e-13
-1.63238e-11
-3.85231e-13
-2.06633e-11
-5.56879e-13
-2.48608e-11
-7.60862e-13
-2.89162e-11
-9.97516e-13
-3.28293e-11
-1.26717e-12
-3.66e-11
-1.57013e-12
-4.02282e-11
-1.90671e-12
-4.37138e-11
-2.2772e-12
-4.70567e-11
-2.68187e-12
-5.02566e-11
-3.12098e-12
-5.33135e-11
-3.59478e-12
-5.62272e-11
-4.10347e-12
-5.89977e-11
-4.64726e-12
-6.16246e-11
-5.22632e-12
-6.4108e-11
-5.8408e-12
-6.64475e-11
-6.49082e-12
-6.86432e-11
-7.17646e-12
-7.06948e-11
-7.89777e-12
-7.26021e-11
-8.65476e-12
-7.43651e-11
-9.44738e-12
-7.59836e-11
-1.02756e-11
-7.74573e-11
-1.11391e-11
-7.87862e-11
-1.20379e-11
-7.997e-11
-1.29715e-11
-8.10087e-11
-1.39396e-11
-8.1902e-11
-1.49419e-11
-8.26497e-11
-1.59778e-11
-8.32518e-11
-1.7045e-11
-8.37089e-11
-1.83252e-11
-8.40237e-11
-3.07046e-11
-8.42069e-11
-3.18662e-11
-8.42438e-11
-3.30275e-11
-8.42459e-11
-3.41902e-11
-8.42509e-11
-3.53523e-11
-8.42734e-11
-3.65465e-11
-8.43057e-11
-3.77788e-11
-8.43311e-11
-3.90466e-11
-8.43443e-11
-4.03463e-11
-8.434e-11
-4.16742e-11
-8.43142e-11
-4.30264e-11
-8.42645e-11
-4.4399e-11
-8.41886e-11
-4.57884e-11
-8.40852e-11
-4.71909e-11
-8.39531e-11
-4.86031e-11
-8.37919e-11
-5.00219e-11
-8.36013e-11
-8.33813e-11
-5.14446e-11
-2.18082e-14
-2.43189e-12
-8.5409e-14
-7.15534e-12
-1.8982e-13
-1.17379e-11
-3.3453e-13
-1.61791e-11
-5.19149e-13
-2.04787e-11
-7.43396e-13
-2.46366e-11
-1.00708e-12
-2.86525e-11
-1.31011e-12
-3.25263e-11
-1.65244e-12
-3.62577e-11
-2.03411e-12
-3.98466e-11
-2.4552e-12
-4.32927e-11
-2.91584e-12
-4.6596e-11
-3.41621e-12
-4.97562e-11
-3.95651e-12
-5.27732e-11
-4.53697e-12
-5.56468e-11
-5.15784e-12
-5.83768e-11
-5.81939e-12
-6.09631e-11
-6.52189e-12
-6.34055e-11
-7.26564e-12
-6.57038e-11
-8.05091e-12
-6.78579e-11
-8.87799e-12
-6.98677e-11
-9.74713e-12
-7.1733e-11
-1.06586e-11
-7.34536e-11
-1.16127e-11
-7.50295e-11
-1.26095e-11
-7.64605e-11
-1.36493e-11
-7.77464e-11
-1.47321e-11
-7.88872e-11
-1.58582e-11
-7.98826e-11
-1.70275e-11
-8.07328e-11
-1.824e-11
-8.14372e-11
-1.9496e-11
-8.19958e-11
-2.07955e-11
-8.24093e-11
-2.27937e-11
-8.26818e-11
-3.38033e-11
-8.28428e-11
-3.51795e-11
-8.28676e-11
-3.65479e-11
-8.28775e-11
-3.78926e-11
-8.29061e-11
-3.91916e-11
-8.29745e-11
-4.04602e-11
-8.30371e-11
-4.17078e-11
-8.30836e-11
-4.2943e-11
-8.31091e-11
-4.41725e-11
-8.31105e-11
-4.54007e-11
-8.30861e-11
-4.66306e-11
-8.30345e-11
-4.78646e-11
-8.29547e-11
-4.91038e-11
-8.28459e-11
-5.0349e-11
-8.2708e-11
-5.16002e-11
-8.25407e-11
-5.28572e-11
-8.23444e-11
-8.21193e-11
-5.41192e-11
-1.63564e-14
-2.41553e-12
-6.65699e-14
-7.10513e-12
-1.51311e-13
-1.16531e-11
-2.70989e-13
-1.60594e-11
-4.25965e-13
-2.03237e-11
-6.16561e-13
-2.4446e-11
-8.43066e-13
-2.8426e-11
-1.10574e-12
-3.22636e-11
-1.40484e-12
-3.59586e-11
-1.74058e-12
-3.95108e-11
-2.11319e-12
-4.29201e-11
-2.52289e-12
-4.61863e-11
-2.96988e-12
-4.93092e-11
-3.45438e-12
-5.22887e-11
-3.97662e-12
-5.51245e-11
-4.53683e-12
-5.78166e-11
-5.13527e-12
-6.03646e-11
-5.77221e-12
-6.27685e-11
-6.44795e-12
-6.50281e-11
-7.16281e-12
-6.71431e-11
-7.91717e-12
-6.91134e-11
-8.71143e-12
-7.09387e-11
-9.54609e-12
-7.2619e-11
-1.04217e-11
-7.41539e-11
-1.13388e-11
-7.55434e-11
-1.22981e-11
-7.6787e-11
-1.33006e-11
-7.78847e-11
-1.43469e-11
-7.88363e-11
-1.54383e-11
-7.96414e-11
-1.65757e-11
-8.02998e-11
-1.77615e-11
-8.081e-11
-1.90004e-11
-8.11704e-11
-2.39019e-11
-8.13842e-11
-3.23436e-11
-8.1511e-11
-3.3693e-11
-8.15182e-11
-3.50461e-11
-8.15244e-11
-3.6405e-11
-8.15472e-11
-3.77765e-11
-8.1603e-11
-3.91494e-11
-8.16642e-11
-4.05212e-11
-8.17117e-11
-4.1891e-11
-8.17393e-11
-4.32578e-11
-8.17437e-11
-4.4621e-11
-8.17229e-11
-4.59803e-11
-8.16752e-11
-4.73357e-11
-8.15993e-11
-4.86872e-11
-8.14945e-11
-5.00348e-11
-8.13604e-11
-5.13784e-11
-8.11971e-11
-5.27179e-11
-8.10048e-11
-8.0784e-11
-5.40532e-11
-1.45056e-14
-2.40103e-12
-5.92533e-14
-7.06038e-12
-1.35125e-13
-1.15773e-11
-2.42783e-13
-1.59517e-11
-3.82788e-13
-2.01837e-11
-5.5561e-13
-2.42732e-11
-7.6164e-13
-2.822e-11
-1.00119e-12
-3.20241e-11
-1.27453e-12
-3.56853e-11
-1.58183e-12
-3.92035e-11
-1.92325e-12
-4.25787e-11
-2.29887e-12
-4.58107e-11
-2.70876e-12
-4.88994e-11
-3.15291e-12
-5.18446e-11
-3.63133e-12
-5.46461e-11
-4.14394e-12
-5.7304e-11
-4.69067e-12
-5.98179e-11
-5.27141e-12
-6.21878e-11
-5.88605e-12
-6.44134e-11
-6.5344e-12
-6.64947e-11
-7.21633e-12
-6.84314e-11
-7.93161e-12
-7.02235e-11
-8.68007e-12
-7.18705e-11
-9.46142e-12
-7.33726e-11
-1.02755e-11
-7.47293e-11
-1.11219e-11
-7.59406e-11
-1.20004e-11
-7.70062e-11
-1.29107e-11
-7.7926e-11
-1.38527e-11
-7.86994e-11
-1.48259e-11
-7.93266e-11
-1.58286e-11
-7.98072e-11
-1.68558e-11
-8.01432e-11
-2.9684e-11
-8.03394e-11
-3.36021e-11
-8.04069e-11
-3.47173e-11
-8.0403e-11
-3.58369e-11
-8.04048e-11
-3.6968e-11
-8.04161e-11
-3.81278e-11
-8.04432e-11
-3.93269e-11
-8.04652e-11
-4.05611e-11
-8.04776e-11
-4.18248e-11
-8.04756e-11
-4.31129e-11
-8.04557e-11
-4.44206e-11
-8.04152e-11
-4.57439e-11
-8.03519e-11
-4.70791e-11
-8.02641e-11
-4.8423e-11
-8.01506e-11
-4.97726e-11
-8.00107e-11
-5.11256e-11
-7.98442e-11
-5.24795e-11
-7.96509e-11
-7.9431e-11
-5.38325e-11
-2.14472e-14
-2.37958e-12
-8.49012e-14
-6.99693e-12
-1.89695e-13
-1.14725e-11
-3.35313e-13
-1.58061e-11
-5.21312e-13
-1.99977e-11
-7.47313e-13
-2.40472e-11
-1.01298e-12
-2.79543e-11
-1.31803e-12
-3.1719e-11
-1.66219e-12
-3.53411e-11
-2.04524e-12
-3.88205e-11
-2.46695e-12
-4.2157e-11
-2.9271e-12
-4.53506e-11
-3.42548e-12
-4.8401e-11
-3.96189e-12
-5.13082e-11
-4.53607e-12
-5.40719e-11
-5.14779e-12
-5.66922e-11
-5.79677e-12
-5.91689e-11
-6.4827e-12
-6.15018e-11
-7.20523e-12
-6.36909e-11
-7.96395e-12
-6.5736e-11
-8.7584e-12
-6.7637e-11
-9.58805e-12
-6.93938e-11
-1.04523e-11
-7.10063e-11
-1.13504e-11
-7.24745e-11
-1.22815e-11
-7.37982e-11
-1.32448e-11
-7.49774e-11
-1.4239e-11
-7.6012e-11
-1.5263e-11
-7.6902e-11
-1.63153e-11
-7.76471e-11
-1.73942e-11
-7.82477e-11
-1.84971e-11
-7.87043e-11
-1.98123e-11
-7.90191e-11
-3.33768e-11
-7.92022e-11
-3.45411e-11
-7.92426e-11
-3.56945e-11
-7.92496e-11
-3.68415e-11
-7.92578e-11
-3.79916e-11
-7.9266e-11
-3.91568e-11
-7.9278e-11
-4.03368e-11
-7.92852e-11
-4.15326e-11
-7.92817e-11
-4.27449e-11
-7.92633e-11
-4.39736e-11
-7.9227e-11
-4.52181e-11
-7.91707e-11
-4.64773e-11
-7.90927e-11
-4.77496e-11
-7.89917e-11
-4.90333e-11
-7.88668e-11
-5.03265e-11
-7.87175e-11
-5.16273e-11
-7.85434e-11
-5.29336e-11
-7.83446e-11
-7.81211e-11
-5.42435e-11
-2.41866e-14
-2.35539e-12
-9.50749e-14
-6.92604e-12
-2.11576e-13
-1.1356e-11
-3.72935e-13
-1.56448e-11
-5.78499e-13
-1.97922e-11
-8.27704e-13
-2.3798e-11
-1.12007e-12
-2.7662e-11
-1.45518e-12
-3.13839e-11
-1.8327e-12
-3.49636e-11
-2.25232e-12
-3.84009e-11
-2.7138e-12
-4.16955e-11
-3.21693e-12
-4.48474e-11
-3.76155e-12
-4.78564e-11
-4.34751e-12
-5.07222e-11
-4.97469e-12
-5.34448e-11
-5.643e-12
-5.60239e-11
-6.35235e-12
-5.84596e-11
-7.10266e-12
-6.07515e-11
-7.89385e-12
-6.28997e-11
-8.72586e-12
-6.4904e-11
-9.59861e-12
-6.67642e-11
-1.0512e-11
-6.84804e-11
-1.1466e-11
-7.00523e-11
-1.24605e-11
-7.148e-11
-1.34953e-11
-7.27634e-11
-1.45703e-11
-7.39023e-11
-1.56854e-11
-7.48969e-11
-1.68404e-11
-7.5747e-11
-1.8035e-11
-7.64525e-11
-1.92695e-11
-7.70133e-11
-2.05438e-11
-7.743e-11
-2.25884e-11
-7.77061e-11
-3.48328e-11
-7.78702e-11
-3.6178e-11
-7.78973e-11
-3.75157e-11
-7.79119e-11
-3.88305e-11
-7.7943e-11
-4.01066e-11
-7.79899e-11
-4.13544e-11
-7.80302e-11
-4.2581e-11
-7.80586e-11
-4.37929e-11
-7.80699e-11
-4.4995e-11
-7.80611e-11
-4.61912e-11
-7.80308e-11
-4.73845e-11
-7.79774e-11
-4.85771e-11
-7.79001e-11
-4.97707e-11
-7.77981e-11
-5.09666e-11
-7.7671e-11
-5.21653e-11
-7.75188e-11
-5.33671e-11
-7.73416e-11
-5.45721e-11
-7.71397e-11
-7.69134e-11
-5.57798e-11
-1.71812e-14
-2.33821e-12
-6.98007e-14
-6.87342e-12
-1.58509e-13
-1.12673e-11
-2.83709e-13
-1.55196e-11
-4.45732e-13
-1.96302e-11
-6.44857e-13
-2.35989e-11
-8.8131e-13
-2.74255e-11
-1.15528e-12
-3.11099e-11
-1.46694e-12
-3.46519e-11
-1.81641e-12
-3.80514e-11
-2.20383e-12
-4.13081e-11
-2.62931e-12
-4.44219e-11
-3.09297e-12
-4.73927e-11
-3.59493e-12
-5.02202e-11
-4.13534e-12
-5.29044e-11
-4.71434e-12
-5.54449e-11
-5.33213e-12
-5.78418e-11
-5.98894e-12
-6.00947e-11
-6.68503e-12
-6.22036e-11
-7.42074e-12
-6.41683e-11
-8.19644e-12
-6.59885e-11
-9.01265e-12
-6.76642e-11
-9.86989e-12
-6.91951e-11
-1.07689e-11
-7.0581e-11
-1.17104e-11
-7.18219e-11
-1.26954e-11
-7.29173e-11
-1.37249e-11
-7.38673e-11
-1.48003e-11
-7.46716e-11
-1.5923e-11
-7.53298e-11
-1.70953e-11
-7.58409e-11
-1.83205e-11
-7.62048e-11
-2.29324e-11
-7.64252e-11
-3.28541e-11
-7.65509e-11
-3.4195e-11
-7.65565e-11
-3.55441e-11
-7.65629e-11
-3.6902e-11
-7.65851e-11
-3.82618e-11
-7.66301e-11
-3.96159e-11
-7.66761e-11
-4.09637e-11
-7.67107e-11
-4.2305e-11
-7.67286e-11
-4.36391e-11
-7.6727e-11
-4.49659e-11
-7.67039e-11
-4.62855e-11
-7.66579e-11
-4.75981e-11
-7.65875e-11
-4.89041e-11
-7.64921e-11
-5.02038e-11
-7.63713e-11
-5.14975e-11
-7.62251e-11
-5.27854e-11
-7.60537e-11
-5.40677e-11
-7.58574e-11
-7.56368e-11
-5.53443e-11
-1.43345e-14
-2.32388e-12
-5.86559e-14
-6.8291e-12
-1.33957e-13
-1.1192e-11
-2.41006e-13
-1.54125e-11
-3.80444e-13
-1.94907e-11
-5.52801e-13
-2.34265e-11
-7.58506e-13
-2.72198e-11
-9.97904e-13
-3.08705e-11
-1.27126e-12
-3.43786e-11
-1.57878e-12
-3.77439e-11
-1.9206e-12
-4.09663e-11
-2.29683e-12
-4.40457e-11
-2.70752e-12
-4.6982e-11
-3.1527e-12
-4.9775e-11
-3.63237e-12
-5.24247e-11
-4.14652e-12
-5.49308e-11
-4.69512e-12
-5.72932e-11
-5.27814e-12
-5.95117e-11
-5.89555e-12
-6.15862e-11
-6.54735e-12
-6.35165e-11
-7.23353e-12
-6.53023e-11
-7.95413e-12
-6.69436e-11
-8.70918e-12
-6.844e-11
-9.49881e-12
-6.97914e-11
-1.03231e-11
-7.09976e-11
-1.11824e-11
-7.20581e-11
-1.20768e-11
-7.2973e-11
-1.30067e-11
-7.37417e-11
-1.39725e-11
-7.4364e-11
-1.49746e-11
-7.48388e-11
-1.60132e-11
-7.51662e-11
-2.66201e-11
-7.53502e-11
-3.24441e-11
-7.54265e-11
-3.35835e-11
-7.54171e-11
-3.47335e-11
-7.54129e-11
-3.59084e-11
-7.54102e-11
-3.71118e-11
-7.54266e-11
-3.83454e-11
-7.54425e-11
-3.96063e-11
-7.54498e-11
-4.08902e-11
-7.54447e-11
-4.21926e-11
-7.54245e-11
-4.35093e-11
-7.53873e-11
-4.48364e-11
-7.53308e-11
-4.61706e-11
-7.52533e-11
-4.7509e-11
-7.51538e-11
-4.8849e-11
-7.50313e-11
-5.01884e-11
-7.48856e-11
-5.15255e-11
-7.47165e-11
-5.28587e-11
-7.45242e-11
-7.43087e-11
-5.41868e-11
-2.11963e-14
-2.30268e-12
-8.43256e-14
-6.76597e-12
-1.88832e-13
-1.10875e-11
-3.3415e-13
-1.52672e-11
-5.19779e-13
-1.93051e-11
-7.45267e-13
-2.3201e-11
-1.0102e-12
-2.69549e-11
-1.3142e-12
-3.05665e-11
-1.65691e-12
-3.40359e-11
-2.03796e-12
-3.73628e-11
-2.45703e-12
-4.05472e-11
-2.91375e-12
-4.3589e-11
-3.40779e-12
-4.6488e-11
-3.93874e-12
-4.92441e-11
-4.50623e-12
-5.18572e-11
-5.10981e-12
-5.43272e-11
-5.74901e-12
-5.6654e-11
-6.42329e-12
-5.88374e-11
-7.13208e-12
-6.08774e-11
-7.87468e-12
-6.27739e-11
-8.65038e-12
-6.45267e-11
-9.45827e-12
-6.61357e-11
-1.02974e-11
-6.76009e-11
-1.11667e-11
-6.89221e-11
-1.20648e-11
-7.00994e-11
-1.29903e-11
-7.11326e-11
-1.39417e-11
-7.20216e-11
-1.49171e-11
-7.27663e-11
-1.59143e-11
-7.33668e-11
-1.69293e-11
-7.38239e-11
-1.81487e-11
-7.41402e-11
-3.38712e-11
-7.43237e-11
-3.49383e-11
-7.43594e-11
-3.59944e-11
-7.43609e-11
-3.70453e-11
-7.43621e-11
-3.81005e-11
-7.4355e-11
-3.91786e-11
-7.43486e-11
-4.02824e-11
-7.43388e-11
-4.14108e-11
-7.43214e-11
-4.25627e-11
-7.42928e-11
-4.37363e-11
-7.4251e-11
-4.49294e-11
-7.41942e-11
-4.61396e-11
-7.41206e-11
-4.73643e-11
-7.40286e-11
-4.86009e-11
-7.39171e-11
-4.98471e-11
-7.37851e-11
-5.11006e-11
-7.36321e-11
-5.23593e-11
-7.34579e-11
-5.36213e-11
-7.32622e-11
-7.30452e-11
-5.48848e-11
-2.62261e-14
-2.27645e-12
-1.02101e-13
-6.69009e-12
-2.25911e-13
-1.09636e-11
-3.96547e-13
-1.50966e-11
-6.13049e-13
-1.90886e-11
-8.74578e-13
-2.29395e-11
-1.18041e-12
-2.6649e-11
-1.52992e-12
-3.0217e-11
-1.92256e-12
-3.36432e-11
-2.35784e-12
-3.69275e-11
-2.83536e-12
-4.00697e-11
-3.35474e-12
-4.30696e-11
-3.91565e-12
-4.59271e-11
-4.51778e-12
-4.8642e-11
-5.16083e-12
-5.12142e-11
-5.84451e-12
-5.36435e-11
-6.56855e-12
-5.59299e-11
-7.33262e-12
-5.80733e-11
-8.13641e-12
-6.00736e-11
-8.97952e-12
-6.19307e-11
-9.86154e-12
-6.36446e-11
-1.0782e-11
-6.52153e-11
-1.17402e-11
-6.66426e-11
-1.27356e-11
-6.79267e-11
-1.37674e-11
-6.90677e-11
-1.48346e-11
-7.00654e-11
-1.5936e-11
-7.09201e-11
-1.70705e-11
-7.16318e-11
-1.82367e-11
-7.22006e-11
-1.94334e-11
-7.26271e-11
-2.10874e-11
-7.29141e-11
-3.52015e-11
-7.30872e-11
-3.64423e-11
-7.31186e-11
-3.76682e-11
-7.3135e-11
-3.88681e-11
-7.31622e-11
-4.00381e-11
-7.31849e-11
-4.11835e-11
-7.32031e-11
-4.23109e-11
-7.32115e-11
-4.34273e-11
-7.3205e-11
-4.45382e-11
-7.31819e-11
-4.56475e-11
-7.31416e-11
-4.67583e-11
-7.30834e-11
-4.78726e-11
-7.30063e-11
-4.89919e-11
-7.29093e-11
-5.01171e-11
-7.2792e-11
-5.12484e-11
-7.26538e-11
-5.23859e-11
-7.24946e-11
-5.35294e-11
-7.23144e-11
-5.46782e-11
-7.21134e-11
-7.18918e-11
-5.58316e-11
-1.69985e-14
-6.94597e-14
-1.58171e-13
-2.83557e-13
-4.45982e-13
-6.45764e-13
-8.83186e-13
-1.1585e-12
-1.47195e-12
-1.82377e-12
-2.21419e-12
-2.64346e-12
-3.11185e-12
-3.61967e-12
-4.16725e-12
-4.755e-12
-5.38335e-12
-6.05283e-12
-6.76405e-12
-7.51764e-12
-8.31442e-12
-9.15521e-12
-1.0041e-11
-1.09729e-11
-1.19522e-11
-1.29801e-11
-1.40585e-11
-1.51889e-11
-1.63741e-11
-1.76157e-11
-2.14305e-11
-3.34702e-11
-3.4837e-11
-3.62131e-11
-3.75923e-11
-3.89489e-11
-4.02789e-11
-4.15863e-11
-4.28746e-11
-4.41467e-11
-4.54049e-11
-4.66513e-11
-4.78875e-11
-4.91151e-11
-5.03353e-11
-5.1549e-11
-5.27571e-11
-5.396e-11
-5.5158e-11
-5.63513e-11
-6.27319e-11
-9.52833e-11
-6.35507e-11
-9.49642e-11
-6.43559e-11
-9.46049e-11
-6.51483e-11
-9.42062e-11
-6.59282e-11
-9.37688e-11
-6.66959e-11
-9.32937e-11
-6.74514e-11
-9.2782e-11
-6.81946e-11
-9.22347e-11
-6.89252e-11
-9.16529e-11
-6.96431e-11
-9.10377e-11
-7.03477e-11
-9.03903e-11
-7.10388e-11
-8.97119e-11
-7.1716e-11
-8.90035e-11
-7.23786e-11
-8.82664e-11
-7.30264e-11
-8.75017e-11
-7.36589e-11
-8.67108e-11
-7.42756e-11
-8.58947e-11
-7.48761e-11
-8.50547e-11
-7.546e-11
-8.41921e-11
-7.60268e-11
-8.33082e-11
-7.65763e-11
-8.2404e-11
-7.7108e-11
-8.14809e-11
-7.76216e-11
-8.05402e-11
-7.81169e-11
-7.9583e-11
-7.85935e-11
-7.86105e-11
-7.90512e-11
-7.76241e-11
-7.94898e-11
-7.66248e-11
-7.9909e-11
-7.5614e-11
-8.03088e-11
-7.45927e-11
-8.0689e-11
-7.3562e-11
-8.10494e-11
-7.25232e-11
-8.139e-11
-7.14774e-11
-8.17108e-11
-7.04255e-11
-8.20117e-11
-6.93688e-11
-8.22926e-11
-6.83081e-11
-8.25537e-11
-6.72446e-11
-8.2795e-11
-6.61792e-11
-8.30165e-11
-6.51128e-11
-8.32183e-11
-6.40465e-11
-8.34005e-11
-6.2981e-11
-8.35633e-11
-6.19173e-11
-8.37068e-11
-6.08563e-11
-8.38312e-11
-5.97988e-11
-8.39366e-11
-5.87457e-11
-8.40232e-11
-5.76979e-11
-8.40913e-11
-5.66563e-11
-8.4141e-11
-5.56219e-11
-8.41726e-11
-5.45957e-11
-8.41863e-11
-5.35788e-11
-5.25737e-11
-8.41801e-11
-6.87469e-11
-9.43253e-11
-6.96954e-11
-9.40157e-11
-7.06347e-11
-9.36656e-11
-7.15649e-11
-9.3276e-11
-7.24857e-11
-9.28479e-11
-7.33968e-11
-9.23826e-11
-7.42976e-11
-9.18812e-11
-7.51875e-11
-9.13447e-11
-7.60659e-11
-9.07746e-11
-7.69318e-11
-9.01717e-11
-7.77847e-11
-8.95375e-11
-7.86236e-11
-8.88729e-11
-7.94479e-11
-8.81793e-11
-8.02566e-11
-8.74577e-11
-8.10489e-11
-8.67094e-11
-8.18242e-11
-8.59355e-11
-8.25817e-11
-8.51373e-11
-8.33205e-11
-8.43159e-11
-8.40401e-11
-8.34726e-11
-8.47397e-11
-8.26086e-11
-8.54187e-11
-8.1725e-11
-8.60765e-11
-8.08231e-11
-8.67125e-11
-7.99041e-11
-8.73263e-11
-7.89692e-11
-8.79174e-11
-7.80195e-11
-8.84852e-11
-7.70563e-11
-8.90295e-11
-7.60806e-11
-8.95498e-11
-7.50936e-11
-9.00459e-11
-7.40966e-11
-9.05175e-11
-7.30905e-11
-9.09643e-11
-7.20764e-11
-9.13862e-11
-7.10555e-11
-9.1783e-11
-7.00287e-11
-9.21546e-11
-6.89972e-11
-9.25009e-11
-6.79618e-11
-9.28219e-11
-6.69236e-11
-9.31176e-11
-6.58835e-11
-9.33879e-11
-6.48425e-11
-9.3633e-11
-6.38014e-11
-9.3853e-11
-6.2761e-11
-9.40479e-11
-6.17224e-11
-9.42179e-11
-6.06863e-11
-9.43631e-11
-5.96535e-11
-9.44838e-11
-5.8625e-11
-9.45802e-11
-5.76015e-11
-9.46525e-11
-5.6584e-11
-9.4701e-11
-5.55734e-11
-9.47259e-11
-5.45707e-11
-9.47277e-11
-5.35771e-11
-5.25926e-11
-9.47088e-11
-5.49891e-11
-9.29697e-11
-5.63323e-11
-9.26725e-11
-5.76615e-11
-9.23364e-11
-5.89753e-11
-9.19622e-11
-6.02723e-11
-9.15509e-11
-6.15515e-11
-9.11034e-11
-6.28119e-11
-9.06208e-11
-6.40526e-11
-9.0104e-11
-6.52729e-11
-8.95542e-11
-6.64721e-11
-8.89725e-11
-6.76497e-11
-8.83599e-11
-6.88049e-11
-8.77176e-11
-6.99374e-11
-8.70468e-11
-7.10467e-11
-8.63484e-11
-7.21323e-11
-8.56238e-11
-7.31937e-11
-8.4874e-11
-7.42307e-11
-8.41003e-11
-7.52428e-11
-8.33038e-11
-7.62297e-11
-8.24857e-11
-7.71911e-11
-8.16472e-11
-7.81267e-11
-8.07894e-11
-7.90361e-11
-7.99136e-11
-7.99193e-11
-7.9021e-11
-8.07759e-11
-7.81126e-11
-8.16057e-11
-7.71897e-11
-8.24086e-11
-7.62534e-11
-8.31843e-11
-7.53048e-11
-8.39329e-11
-7.43451e-11
-8.46542e-11
-7.33753e-11
-8.5348e-11
-7.23966e-11
-8.60144e-11
-7.141e-11
-8.66533e-11
-7.04166e-11
-8.72647e-11
-6.94173e-11
-8.78486e-11
-6.84133e-11
-8.84051e-11
-6.74054e-11
-8.89341e-11
-6.63946e-11
-8.94358e-11
-6.53818e-11
-8.99103e-11
-6.4368e-11
-9.03577e-11
-6.3354e-11
-9.0778e-11
-6.23407e-11
-9.11716e-11
-6.13289e-11
-9.15385e-11
-6.03194e-11
-9.18789e-11
-5.93131e-11
-9.21931e-11
-5.83108e-11
-9.24812e-11
-5.73134e-11
-9.27435e-11
-5.63216e-11
-9.29803e-11
-5.53366e-11
-9.31918e-11
-5.43592e-11
-9.33784e-11
-5.33905e-11
-5.24327e-11
-9.35382e-11
-5.68014e-11
-9.15931e-11
-5.81681e-11
-9.13058e-11
-5.95239e-11
-9.09806e-11
-6.08678e-11
-9.06183e-11
-6.21987e-11
-9.02199e-11
-6.35158e-11
-8.97864e-11