/*--------------------------------*- C++ -*----------------------------------*\
| =========                 |                                                 |
| \\      /  F ield         | OpenFOAM: The Open Source CFD Toolbox           |
|  \\    /   O peration     | Version:  2.4.0                                 |
|   \\  /    A nd           | Web:      www.OpenFOAM.org                      |
|    \\/     M anipulation  |                                                 |
\*---------------------------------------------------------------------------*/
FoamFile
{
    version     2.0;
    format      ascii;
    class       volVectorField;
    location    "1";
    object      U;
}
// * * * * * * * * * * * * * * * * * * * * * * * * * * * * * * * * * * * * * //

dimensions      [0 1 -1 0 0 0 0];

internalField   nonuniform List<vector> 
8000
(
(-3.38519e-07 -0.00027111 0)
(-1.9986e-06 -0.000796708 0)
(-4.85307e-06 -0.00130601 0)
(-8.68598e-06 -0.00179931 0)
(-1.33402e-05 -0.00227683 0)
(-1.87088e-05 -0.00273878 0)
(-2.47111e-05 -0.00318534 0)
(-3.12752e-05 -0.00361666 0)
(-3.83401e-05 -0.00403288 0)
(-4.58499e-05 -0.00443412 0)
(-5.37596e-05 -0.00482048 0)
(-6.20265e-05 -0.00519205 0)
(-7.0618e-05 -0.0055489 0)
(-7.95008e-05 -0.0058911 0)
(-8.86517e-05 -0.00621871 0)
(-9.80438e-05 -0.00653177 0)
(-0.000107661 -0.00683032 0)
(-0.000117481 -0.0071144 0)
(-0.000127493 -0.00738404 0)
(-0.000137675 -0.00763925 0)
(-0.000148023 -0.00788004 0)
(-0.000158515 -0.00810644 0)
(-0.000169148 -0.00831844 0)
(-0.0001799 -0.00851604 0)
(-0.000190773 -0.00869924 0)
(-0.000201738 -0.00886803 0)
(-0.000212799 -0.00902238 0)
(-0.000223923 -0.00916229 0)
(-0.000235121 -0.00928771 0)
(-0.000246359 -0.00939862 0)
(-0.000257653 -0.00949497 0)
(-0.00026887 -0.00957673 0)
(-0.000279774 -0.00964378 0)
(-0.000290213 -0.009696 0)
(-0.000302104 -0.0097333 0)
(-0.000321915 -0.00975648 0)
(-0.000350112 -0.00976893 0)
(-0.000379725 -0.00977108 0)
(-0.000402734 -0.00977063 0)
(-0.000423798 -0.00977014 0)
(-0.000437847 -0.00976684 0)
(-0.00043433 -0.00975868 0)
(-0.000438417 -0.00974939 0)
(-0.000446834 -0.00973948 0)
(-0.000455449 -0.00972843 0)
(-0.000463351 -0.00971553 0)
(-0.000470774 -0.00970015 0)
(-0.000477948 -0.00968179 0)
(-0.000484957 -0.00966002 0)
(-0.000491821 -0.00963456 0)
(9.12135e-09 -0.000254775 0)
(-7.50651e-07 -0.000751834 0)
(-2.46008e-06 -0.00123616 0)
(-5.10261e-06 -0.00170754 0)
(-8.58652e-06 -0.00216578 0)
(-1.283e-05 -0.00261074 0)
(-1.77669e-05 -0.00304227 0)
(-2.33422e-05 -0.00346026 0)
(-2.95056e-05 -0.00386463 0)
(-3.62133e-05 -0.00425527 0)
(-4.34244e-05 -0.00463213 0)
(-5.11043e-05 -0.00499515 0)
(-5.92197e-05 -0.00534427 0)
(-6.77435e-05 -0.00567945 0)
(-7.66478e-05 -0.00600066 0)
(-8.59115e-05 -0.00630786 0)
(-9.55107e-05 -0.00660104 0)
(-0.000105429 -0.00688016 0)
(-0.000115644 -0.00714522 0)
(-0.000126144 -0.00739619 0)
(-0.000136907 -0.00763308 0)
(-0.000147923 -0.00785587 0)
(-0.000159171 -0.00806455 0)
(-0.000170643 -0.00825912 0)
(-0.000182313 -0.00843959 0)
(-0.000194176 -0.00860596 0)
(-0.000206201 -0.00875822 0)
(-0.000218383 -0.00889639 0)
(-0.000230696 -0.00902047 0)
(-0.000243158 -0.00913048 0)
(-0.000255706 -0.00922642 0)
(-0.000268092 -0.00930833 0)
(-0.000279669 -0.00937618 0)
(-0.000290881 -0.00942998 0)
(-0.000307844 -0.00946976 0)
(-0.000345698 -0.00949614 0)
(-0.000388827 -0.00951308 0)
(-0.000416052 -0.00952041 0)
(-0.00044482 -0.00952606 0)
(-0.000469911 -0.00953326 0)
(-0.000477533 -0.00954227 0)
(-0.000473232 -0.00955089 0)
(-0.000479445 -0.00955685 0)
(-0.000488904 -0.0095595 0)
(-0.000498126 -0.00955839 0)
(-0.000506645 -0.00955326 0)
(-0.000514798 -0.00954393 0)
(-0.000522788 -0.0095303 0)
(-0.000530671 -0.00951232 0)
(-0.00053846 -0.00949 0)
(-8.90638e-08 -0.00025669 0)
(-4.81951e-07 -0.000756116 0)
(-1.19422e-06 -0.00124162 0)
(-2.20548e-06 -0.00171321 0)
(-3.51579e-06 -0.00217091 0)
(-5.13107e-06 -0.0026147 0)
(-7.05565e-06 -0.00304459 0)
(-9.29096e-06 -0.00346058 0)
(-1.18352e-05 -0.00386265 0)
(-1.46857e-05 -0.00425081 0)
(-1.78371e-05 -0.00462503 0)
(-2.12847e-05 -0.00498531 0)
(-2.50212e-05 -0.00533163 0)
(-2.90409e-05 -0.005664 0)
(-3.3335e-05 -0.00598239 0)
(-3.78979e-05 -0.0062868 0)
(-4.27199e-05 -0.00657722 0)
(-4.77962e-05 -0.00685365 0)
(-5.31162e-05 -0.00711608 0)
(-5.86769e-05 -0.0073645 0)
(-6.44661e-05 -0.00759892 0)
(-7.04841e-05 -0.00781933 0)
(-7.67164e-05 -0.00802573 0)
(-8.31676e-05 -0.00821814 0)
(-8.982e-05 -0.00839656 0)
(-9.66836e-05 -0.008561 0)
(-0.000103734 -0.00871147 0)
(-0.000110993 -0.00884799 0)
(-0.000118442 -0.00897059 0)
(-0.000126146 -0.00907928 0)
(-0.000134035 -0.00917411 0)
(-0.000141791 -0.00925508 0)
(-0.000148536 -0.00932228 0)
(-0.000155124 -0.00937573 0)
(-0.000170801 -0.00941558 0)
(-0.000216442 -0.00944181 0)
(-0.000270168 -0.00945675 0)
(-0.000295625 -0.00946359 0)
(-0.000318636 -0.00946999 0)
(-0.000332864 -0.009477 0)
(-0.000333951 -0.009484 0)
(-0.000336256 -0.00948982 0)
(-0.000345808 -0.00949343 0)
(-0.000357193 -0.00949413 0)
(-0.000368488 -0.00949143 0)
(-0.000379569 -0.00948503 0)
(-0.000390604 -0.0094747 0)
(-0.000401642 -0.00946032 0)
(-0.000412658 -0.00944179 0)
(-0.000423623 -0.00941912 0)
(9.28621e-09 -0.00025185 0)
(-2.16125e-07 -0.000742417 0)
(-7.63922e-07 -0.00121977 0)
(-1.65129e-06 -0.00168383 0)
(-2.87099e-06 -0.00213453 0)
(-4.41666e-06 -0.00257181 0)
(-6.28413e-06 -0.0029956 0)
(-8.47171e-06 -0.00340586 0)
(-1.09767e-05 -0.00380254 0)
(-1.37984e-05 -0.00418559 0)
(-1.69343e-05 -0.00455498 0)
(-2.03844e-05 -0.00491066 0)
(-2.41466e-05 -0.00525261 0)
(-2.82222e-05 -0.00558079 0)
(-3.26089e-05 -0.00589517 0)
(-3.73095e-05 -0.00619572 0)
(-4.2322e-05 -0.00648243 0)
(-4.76506e-05 -0.00675526 0)
(-5.32933e-05 -0.0070142 0)
(-5.92568e-05 -0.00725922 0)
(-6.55387e-05 -0.00749032 0)
(-7.21489e-05 -0.00770746 0)
(-7.90844e-05 -0.00791064 0)
(-8.6359e-05 -0.00809984 0)
(-9.39689e-05 -0.00827505 0)
(-0.000101933 -0.00843625 0)
(-0.000110245 -0.00858344 0)
(-0.000118932 -0.0087166 0)
(-0.000127996 -0.00883574 0)
(-0.000137487 -0.00894082 0)
(-0.000147355 -0.00903187 0)
(-0.000157422 -0.00910884 0)
(-0.000167314 -0.00917178 0)
(-0.000178026 -0.00922069 0)
(-0.0001954 -0.00925573 0)
(-0.000227759 -0.00927739 0)
(-0.000267788 -0.00928641 0)
(-0.00029612 -0.00929011 0)
(-0.000324879 -0.00929437 0)
(-0.000347669 -0.00929839 0)
(-0.000341639 -0.00930172 0)
(-0.000346128 -0.00930443 0)
(-0.000357539 -0.00930576 0)
(-0.000369886 -0.00930498 0)
(-0.000381651 -0.00930155 0)
(-0.000393045 -0.00929505 0)
(-0.000404328 -0.00928517 0)
(-0.000415565 -0.00927169 0)
(-0.000426751 -0.00925445 0)
(-0.000437873 -0.0092334 0)
(-3.4519e-08 -0.000252341 0)
(-2.12086e-07 -0.000743233 0)
(-5.5804e-07 -0.00122034 0)
(-1.07578e-06 -0.00168365 0)
(-1.77664e-06 -0.00213315 0)
(-2.67468e-06 -0.00256884 0)
(-3.78344e-06 -0.0029907 0)
(-5.11559e-06 -0.00339871 0)
(-6.68224e-06 -0.00379286 0)
(-8.49432e-06 -0.00417313 0)
(-1.05614e-05 -0.00453951 0)
(-1.28933e-05 -0.00489198 0)
(-1.54986e-05 -0.00523051 0)
(-1.83865e-05 -0.0055551 0)
(-2.15647e-05 -0.00586571 0)
(-2.50425e-05 -0.00616234 0)
(-2.88266e-05 -0.00644495 0)
(-3.29269e-05 -0.00671355 0)
(-3.73495e-05 -0.00696809 0)
(-4.21053e-05 -0.00720858 0)
(-4.71996e-05 -0.00743498 0)
(-5.26449e-05 -0.00764728 0)
(-5.84459e-05 -0.00784547 0)
(-6.46174e-05 -0.00802952 0)
(-7.11627e-05 -0.00819941 0)
(-7.80998e-05 -0.00835513 0)
(-8.54303e-05 -0.00849667 0)
(-9.31802e-05 -0.008624 0)
(-0.000101358 -0.0087371 0)
(-0.000109997 -0.00883597 0)
(-0.000119016 -0.00892057 0)
(-0.000128213 -0.00899088 0)
(-0.000137519 -0.00904684 0)
(-0.000148897 -0.00908848 0)
(-0.000168338 -0.0091163 0)
(-0.000197444 -0.0091334 0)
(-0.000231368 -0.00913812 0)
(-0.000264844 -0.00914047 0)
(-0.000294839 -0.00914451 0)
(-0.000305973 -0.00915553 0)
(-0.0002991 -0.0091693 0)
(-0.000306793 -0.00918043 0)
(-0.000319002 -0.00918814 0)
(-0.000331224 -0.00919204 0)
(-0.000342794 -0.00919192 0)
(-0.000354091 -0.00918771 0)
(-0.000365326 -0.00917934 0)
(-0.000376537 -0.00916681 0)
(-0.000387718 -0.00915015 0)
(-0.000398867 -0.00912941 0)
(3.18687e-09 -0.000250361 0)
(-1.01329e-07 -0.00073744 0)
(-3.66241e-07 -0.00121084 0)
(-8.08971e-07 -0.00167053 0)
(-1.43832e-06 -0.00211648 0)
(-2.26238e-06 -0.00254865 0)
(-3.29023e-06 -0.00296702 0)
(-4.53037e-06 -0.00337155 0)
(-5.99157e-06 -0.00376223 0)
(-7.6813e-06 -0.00413902 0)
(-9.60786e-06 -0.00450191 0)
(-1.17777e-05 -0.00485085 0)
(-1.41989e-05 -0.00518584 0)
(-1.68769e-05 -0.00550684 0)
(-1.98199e-05 -0.00581383 0)
(-2.30321e-05 -0.00610679 0)
(-2.65222e-05 -0.00638569 0)
(-3.0293e-05 -0.00665052 0)
(-3.43541e-05 -0.00690124 0)
(-3.87066e-05 -0.00713783 0)
(-4.33617e-05 -0.00736028 0)
(-4.8318e-05 -0.00756855 0)
(-5.35892e-05 -0.00776262 0)
(-5.91704e-05 -0.00794247 0)
(-6.50788e-05 -0.00810807 0)
(-7.13035e-05 -0.00825939 0)
(-7.78684e-05 -0.00839641 0)
(-8.47687e-05 -0.0085191 0)
(-9.20617e-05 -0.00862742 0)
(-9.96966e-05 -0.00872135 0)
(-0.000107414 -0.00880084 0)
(-0.000114504 -0.00886586 0)
(-0.000121673 -0.00891632 0)
(-0.000136619 -0.00895228 0)
(-0.000176051 -0.00897405 0)
(-0.00022423 -0.00898557 0)
(-0.000253554 -0.00898758 0)
(-0.000282654 -0.00898937 0)
(-0.000305528 -0.00899413 0)
(-0.000299747 -0.00900388 0)
(-0.000299903 -0.00901375 0)
(-0.000309492 -0.00902181 0)
(-0.00032113 -0.0090272 0)
(-0.000332586 -0.00902943 0)
(-0.000343857 -0.00902818 0)
(-0.00035519 -0.00902324 0)
(-0.000366642 -0.00901448 0)
(-0.000378182 -0.00900184 0)
(-0.000389774 -0.00898529 0)
(-0.00040139 -0.00896488 0)
(-2.05232e-08 -0.000250492 0)
(-1.86115e-07 -0.000737406 0)
(-5.31493e-07 -0.00121026 0)
(-1.06177e-06 -0.00166907 0)
(-1.78331e-06 -0.00211382 0)
(-2.70369e-06 -0.00254452 0)
(-3.83288e-06 -0.00296118 0)
(-5.1791e-06 -0.00336377 0)
(-6.75224e-06 -0.0037523 0)
(-8.55961e-06 -0.00412676 0)
(-1.06111e-05 -0.00448714 0)
(-1.29131e-05 -0.00483343 0)
(-1.54757e-05 -0.00516562 0)
(-1.83043e-05 -0.00548369 0)
(-2.14093e-05 -0.00578763 0)
(-2.47947e-05 -0.00607742 0)
(-2.84717e-05 -0.00635306 0)
(-3.24425e-05 -0.00661453 0)
(-3.67194e-05 -0.00686181 0)
(-4.13023e-05 -0.00709489 0)
(-4.6205e-05 -0.00731375 0)
(-5.14246e-05 -0.00751837 0)
(-5.69769e-05 -0.00770874 0)
(-6.28552e-05 -0.00788485 0)
(-6.90777e-05 -0.00804667 0)
(-7.56316e-05 -0.0081942 0)
(-8.25414e-05 -0.00832741 0)
(-8.97983e-05 -0.00844629 0)
(-9.74501e-05 -0.00855083 0)
(-0.000105428 -0.00864101 0)
(-0.000113501 -0.00871681 0)
(-0.000121163 -0.00877824 0)
(-0.000129436 -0.00882529 0)
(-0.00014527 -0.00885812 0)
(-0.000179213 -0.00887714 0)
(-0.000222325 -0.00888333 0)
(-0.000250961 -0.00888418 0)
(-0.000276567 -0.00888541 0)
(-0.000291582 -0.0088888 0)
(-0.000283031 -0.00889482 0)
(-0.000288023 -0.0089003 0)
(-0.000298675 -0.00890428 0)
(-0.000309979 -0.00890607 0)
(-0.000320924 -0.00890522 0)
(-0.000331793 -0.0089014 0)
(-0.00034278 -0.00889436 0)
(-0.000353906 -0.00888394 0)
(-0.000365143 -0.00887003 0)
(-0.000376462 -0.0088526 0)
(-0.000387842 -0.00883164 0)
(-2.36001e-08 -0.000248414 0)
(-2.62422e-07 -0.000731348 0)
(-7.61137e-07 -0.00120036 0)
(-1.521e-06 -0.00165542 0)
(-2.5387e-06 -0.0020965 0)
(-3.81458e-06 -0.00252358 0)
(-5.35151e-06 -0.00293662 0)
(-7.15334e-06 -0.00333561 0)
(-9.22418e-06 -0.00372052 0)
(-1.15685e-05 -0.00409134 0)
(-1.41912e-05 -0.00444803 0)
(-1.70974e-05 -0.00479059 0)
(-2.02926e-05 -0.00511899 0)
(-2.37824e-05 -0.00543321 0)
(-2.75729e-05 -0.00573323 0)
(-3.16698e-05 -0.00601904 0)
(-3.60801e-05 -0.00629061 0)
(-4.08093e-05 -0.00654794 0)
(-4.58652e-05 -0.006791 0)
(-5.12529e-05 -0.00701977 0)
(-5.69814e-05 -0.00723424 0)
(-6.3055e-05 -0.00743439 0)
(-6.94843e-05 -0.00762021 0)
(-7.62721e-05 -0.00779168 0)
(-8.34309e-05 -0.00794878 0)
(-9.09615e-05 -0.00809151 0)
(-9.8883e-05 -0.00821985 0)
(-0.000107204 -0.00833378 0)
(-0.000115949 -0.0084333 0)
(-0.000125032 -0.0085184 0)
(-0.000134217 -0.00858904 0)
(-0.000143394 -0.0086452 0)
(-0.000154619 -0.00868693 0)
(-0.000174489 -0.00871461 0)
(-0.000205486 -0.00873108 0)
(-0.000242718 -0.00873464 0)
(-0.00027985 -0.00873579 0)
(-0.0003146 -0.00873865 0)
(-0.000317575 -0.00874629 0)
(-0.000308553 -0.00875469 0)
(-0.000315878 -0.00876131 0)
(-0.000327311 -0.00876553 0)
(-0.000338538 -0.00876693 0)
(-0.000349153 -0.00876529 0)
(-0.000359604 -0.00876042 0)
(-0.000370088 -0.00875222 0)
(-0.00038063 -0.00874062 0)
(-0.000391218 -0.00872558 0)
(-0.000401843 -0.00870714 0)
(-0.000412503 -0.00868531 0)
(-1.1261e-08 -0.000247308 0)
(-1.60384e-07 -0.000727872 0)
(-4.94067e-07 -0.00119437 0)
(-1.0236e-06 -0.00164679 0)
(-1.75636e-06 -0.00208511 0)
(-2.70002e-06 -0.00250931 0)
(-3.86292e-06 -0.00291938 0)
(-5.25245e-06 -0.0033153 0)
(-6.87577e-06 -0.00369705 0)
(-8.73887e-06 -0.00406462 0)
(-1.08479e-05 -0.00441798 0)
(-1.32079e-05 -0.00475711 0)
(-1.58242e-05 -0.00508201 0)
(-1.87014e-05 -0.00539265 0)
(-2.18442e-05 -0.005689 0)
(-2.52569e-05 -0.00597107 0)
(-2.89437e-05 -0.00623882 0)
(-3.29088e-05 -0.00649223 0)
(-3.7156e-05 -0.00673129 0)
(-4.169e-05 -0.00695598 0)
(-4.6514e-05 -0.00716628 0)
(-5.16335e-05 -0.00736217 0)
(-5.7051e-05 -0.00754364 0)
(-6.27732e-05 -0.00771065 0)
(-6.88007e-05 -0.00786319 0)
(-7.51438e-05 -0.00800124 0)
(-8.18113e-05 -0.00812479 0)
(-8.88382e-05 -0.00823379 0)
(-9.62041e-05 -0.00832826 0)
(-0.000103694 -0.00840814 0)
(-0.000110764 -0.00847341 0)
(-0.000117902 -0.00852401 0)
(-0.00013112 -0.00855999 0)
(-0.000163702 -0.00858181 0)
(-0.000205083 -0.00859354 0)
(-0.000236425 -0.00859486 0)
(-0.000269366 -0.00859595 0)
(-0.000298177 -0.0086008 0)
(-0.000287071 -0.00861173 0)
(-0.000286604 -0.00862234 0)
(-0.000296559 -0.00863088 0)
(-0.000308503 -0.00863664 0)
(-0.000320061 -0.00863926 0)
(-0.000331341 -0.00863856 0)
(-0.000342644 -0.0086344 0)
(-0.000354037 -0.00862671 0)
(-0.000365492 -0.00861547 0)
(-0.000376977 -0.00860069 0)
(-0.000388471 -0.00858243 0)
(-0.000399958 -0.00856075 0)
(-2.21845e-08 -0.000246408 0)
(-2.5069e-07 -0.000724994 0)
(-7.31902e-07 -0.00118936 0)
(-1.46889e-06 -0.0016395 0)
(-2.45914e-06 -0.00207542 0)
(-3.70425e-06 -0.00249712 0)
(-5.2058e-06 -0.00290459 0)
(-6.9681e-06 -0.00329782 0)
(-8.99214e-06 -0.00367681 0)
(-1.12826e-05 -0.00404155 0)
(-1.38394e-05 -0.00439203 0)
(-1.6668e-05 -0.00472824 0)
(-1.97671e-05 -0.00505017 0)
(-2.31429e-05 -0.0053578 0)
(-2.67927e-05 -0.00565111 0)
(-3.07239e-05 -0.00593011 0)
(-3.49315e-05 -0.00619477 0)
(-3.94248e-05 -0.00644507 0)
(-4.41961e-05 -0.006681 0)
(-4.9257e-05 -0.00690254 0)
(-5.45959e-05 -0.00710967 0)
(-6.02279e-05 -0.00730238 0)
(-6.61362e-05 -0.00748064 0)
(-7.23402e-05 -0.00764443 0)
(-7.88149e-05 -0.00779373 0)
(-8.55884e-05 -0.00792851 0)
(-9.26399e-05 -0.00804877 0)
(-0.000100029 -0.00815445 0)
(-0.000107669 -0.00824555 0)
(-0.00011528 -0.00832201 0)
(-0.000122198 -0.00838383 0)
(-0.000129517 -0.00843095 0)
(-0.000145654 -0.00846345 0)
(-0.000184361 -0.00848156 0)
(-0.00023325 -0.00848754 0)
(-0.000262086 -0.00848697 0)
(-0.000288218 -0.00848667 0)
(-0.000301979 -0.0084872 0)
(-0.000291214 -0.00848903 0)
(-0.000295933 -0.008491 0)
(-0.000306329 -0.00849221 0)
(-0.000317367 -0.00849199 0)
(-0.000328088 -0.00848987 0)
(-0.000338796 -0.00848549 0)
(-0.000349672 -0.00847858 0)
(-0.000360719 -0.00846893 0)
(-0.000371893 -0.00845638 0)
(-0.000383159 -0.00844087 0)
(-0.00039449 -0.00842234 0)
(-0.000405861 -0.00840079 0)
(-3.49409e-08 -0.000244278 0)
(-3.58278e-07 -0.000718718 0)
(-1.02036e-06 -0.00117903 0)
(-2.01599e-06 -0.00162518 0)
(-3.33474e-06 -0.00205718 0)
(-4.97111e-06 -0.00247498 0)
(-6.92321e-06 -0.00287859 0)
(-9.19017e-06 -0.00326798 0)
(-1.17716e-05 -0.00364313 0)
(-1.46675e-05 -0.00400403 0)
(-1.78782e-05 -0.00435067 0)
(-2.14049e-05 -0.00468303 0)
(-2.52485e-05 -0.00500109 0)
(-2.94109e-05 -0.00530485 0)
(-3.38933e-05 -0.00559427 0)
(-3.86983e-05 -0.00586936 0)
(-4.38271e-05 -0.00613009 0)
(-4.92832e-05 -0.00637646 0)
(-5.50671e-05 -0.00660844 0)
(-6.11833e-05 -0.00682603 0)
(-6.76313e-05 -0.00702921 0)
(-7.44168e-05 -0.00721798 0)
(-8.15375e-05 -0.00739231 0)
(-8.90004e-05 -0.0075522 0)
(-9.67999e-05 -0.00769764 0)
(-0.000104948 -0.00782862 0)
(-0.000113447 -0.00794514 0)
(-0.000122322 -0.00804718 0)
(-0.000131503 -0.00813475 0)
(-0.000140745 -0.00820783 0)
(-0.000149723 -0.00826643 0)
(-0.000159874 -0.00831059 0)
(-0.00017785 -0.00834051 0)
(-0.000211108 -0.00835785 0)
(-0.000254573 -0.00836179 0)
(-0.00029304 -0.00836248 0)
(-0.000329739 -0.00836404 0)
(-0.000331972 -0.0083683 0)
(-0.000320384 -0.00837286 0)
(-0.00032686 -0.0083761 0)
(-0.000337756 -0.00837754 0)
(-0.000348403 -0.00837681 0)
(-0.000358371 -0.0083737 0)
(-0.000368155 -0.00836805 0)
(-0.000377975 -0.00835973 0)
(-0.00038786 -0.00834863 0)
(-0.000397798 -0.0083347 0)
(-0.000407785 -0.00831791 0)
(-0.000417819 -0.00829827 0)
(-0.000427896 -0.00827577 0)
(-2.28057e-08 -0.000242176 0)
(-2.72318e-07 -0.000712462 0)
(-8.02619e-07 -0.00116866 0)
(-1.61808e-06 -0.00161074 0)
(-2.71646e-06 -0.00203867 0)
(-4.09859e-06 -0.00245244 0)
(-5.76638e-06 -0.00285202 0)
(-7.72272e-06 -0.00323738 0)
(-9.96917e-06 -0.00360851 0)
(-1.25083e-05 -0.00396539 0)
(-1.5341e-05 -0.00430798 0)
(-1.84701e-05 -0.00463628 0)
(-2.1896e-05 -0.00495026 0)
(-2.56219e-05 -0.00524991 0)
(-2.9648e-05 -0.0055352 0)
(-3.39779e-05 -0.00580612 0)
(-3.86114e-05 -0.00606265 0)
(-4.3553e-05 -0.00630476 0)
(-4.88022e-05 -0.00653245 0)
(-5.43649e-05 -0.0067457 0)
(-6.02399e-05 -0.00694448 0)
(-6.64348e-05 -0.00712878 0)
(-7.29479e-05 -0.00729859 0)
(-7.97885e-05 -0.00745388 0)
(-8.69544e-05 -0.00759465 0)
(-9.44643e-05 -0.00772086 0)
(-0.00010233 -0.00783251 0)
(-0.000110565 -0.00792958 0)
(-0.000119027 -0.00801205 0)
(-0.000127368 -0.00807988 0)
(-0.00013568 -0.00813302 0)
(-0.000147529 -0.00817148 0)
(-0.00017214 -0.00819586 0)
(-0.000207511 -0.00821017 0)
(-0.000245334 -0.00821217 0)
(-0.000286092 -0.00821302 0)
(-0.000326716 -0.00821679 0)
(-0.000311838 -0.00822486 0)
(-0.000307281 -0.00823265 0)
(-0.00031686 -0.00823871 0)
(-0.000329079 -0.00824245 0)
(-0.000340625 -0.00824357 0)
(-0.000351599 -0.00824191 0)
(-0.000362437 -0.00823735 0)
(-0.000373272 -0.00822982 0)
(-0.000384097 -0.00821927 0)
(-0.000394895 -0.0082057 0)
(-0.00040566 -0.00818912 0)
(-0.000416393 -0.00816959 0)
(-0.000427093 -0.00814715 0)
(-2.02527e-08 -0.000240926 0)
(-2.41478e-07 -0.000708556 0)
(-7.15076e-07 -0.00116196 0)
(-1.44666e-06 -0.00160113 0)
(-2.43682e-06 -0.00202606 0)
(-3.68749e-06 -0.00243675 0)
(-5.20234e-06 -0.00283317 0)
(-6.98395e-06 -0.00321532 0)
(-9.03521e-06 -0.00358319 0)
(-1.13572e-05 -0.00393676 0)
(-1.39521e-05 -0.00427603 0)
(-1.68198e-05 -0.00460096 0)
(-1.99622e-05 -0.00491156 0)
(-2.33779e-05 -0.00520781 0)
(-2.70688e-05 -0.00548969 0)
(-3.10323e-05 -0.00575717 0)
(-3.52708e-05 -0.00601026 0)
(-3.97798e-05 -0.00624892 0)
(-4.45629e-05 -0.00647313 0)
(-4.96135e-05 -0.00668289 0)
(-5.49371e-05 -0.00687816 0)
(-6.0524e-05 -0.00705894 0)
(-6.6382e-05 -0.00722518 0)
(-7.2496e-05 -0.00737688 0)
(-7.88796e-05 -0.007514 0)
(-8.55273e-05 -0.00763652 0)
(-9.24889e-05 -0.00774441 0)
(-9.97075e-05 -0.00783764 0)
(-0.000106855 -0.00791617 0)
(-0.000113107 -0.00797997 0)
(-0.00011927 -0.00802894 0)
(-0.00013446 -0.00806315 0)
(-0.000177954 -0.00808293 0)
(-0.000233259 -0.00809215 0)
(-0.000268127 -0.00809191 0)
(-0.000302318 -0.00809183 0)
(-0.000325704 -0.00809395 0)
(-0.000306585 -0.00809815 0)
(-0.00030816 -0.00810243 0)
(-0.00031816 -0.00810572 0)
(-0.000329237 -0.00810739 0)
(-0.000339777 -0.00810705 0)
(-0.000350154 -0.00810444 0)
(-0.000360643 -0.00809935 0)
(-0.00037127 -0.0080916 0)
(-0.000381992 -0.00808109 0)
(-0.000392773 -0.00806776 0)
(-0.000403589 -0.00805159 0)
(-0.000414421 -0.00803258 0)
(-0.000425252 -0.00801078 0)
(-3.29316e-08 -0.000239234 0)
(-3.53963e-07 -0.000703457 0)
(-1.01698e-06 -0.00115343 0)
(-2.01756e-06 -0.00158916 0)
(-3.34577e-06 -0.00201063 0)
(-4.99468e-06 -0.00241784 0)
(-6.96236e-06 -0.00281077 0)
(-9.24538e-06 -0.00318944 0)
(-1.18432e-05 -0.00355381 0)
(-1.47519e-05 -0.00390389 0)
(-1.7972e-05 -0.00423966 0)
(-2.14991e-05 -0.00456112 0)
(-2.53346e-05 -0.00486825 0)
(-2.94731e-05 -0.00516104 0)
(-3.39172e-05 -0.00543948 0)
(-3.86599e-05 -0.00570356 0)
(-4.3705e-05 -0.00595325 0)
(-4.90433e-05 -0.00618857 0)
(-5.46803e-05 -0.00640947 0)
(-6.06033e-05 -0.00661597 0)
(-6.68204e-05 -0.00680803 0)
(-7.3314e-05 -0.00698566 0)
(-8.00951e-05 -0.00714882 0)
(-8.71384e-05 -0.00729753 0)
(-9.44618e-05 -0.00743174 0)
(-0.000102046 -0.00755148 0)
(-0.000109939 -0.00765669 0)
(-0.000118049 -0.0077474 0)
(-0.000126061 -0.00782356 0)
(-0.000133278 -0.0078852 0)
(-0.000140879 -0.00793231 0)
(-0.000157858 -0.00796499 0)
(-0.000198689 -0.00798344 0)
(-0.000251705 -0.00798908 0)
(-0.000285318 -0.00798893 0)
(-0.000316495 -0.00798906 0)
(-0.000324526 -0.00798866 0)
(-0.000311099 -0.00798881 0)
(-0.000316229 -0.00798887 0)
(-0.000326519 -0.00798814 0)
(-0.000336976 -0.00798616 0)
(-0.000346917 -0.0079826 0)
(-0.000356775 -0.00797718 0)
(-0.000366759 -0.00796968 0)
(-0.000376881 -0.00795994 0)
(-0.00038711 -0.00794783 0)
(-0.000397422 -0.00793326 0)
(-0.000407802 -0.00791619 0)
(-0.000418235 -0.0078966 0)
(-0.000428703 -0.00787448 0)
(-3.80644e-08 -0.000236661 0)
(-3.98151e-07 -0.0006959 0)
(-1.13682e-06 -0.00114103 0)
(-2.24763e-06 -0.00157204 0)
(-3.71738e-06 -0.00198889 0)
(-5.53798e-06 -0.00239158 0)
(-7.70528e-06 -0.00278007 0)
(-1.02159e-05 -0.00315434 0)
(-1.30671e-05 -0.00351439 0)
(-1.6256e-05 -0.00386019 0)
(-1.9781e-05 -0.00419172 0)
(-2.36397e-05 -0.00450897 0)
(-2.78312e-05 -0.00481193 0)
(-3.23535e-05 -0.00510057 0)
(-3.72067e-05 -0.00537489 0)
(-4.23884e-05 -0.00563488 0)
(-4.78997e-05 -0.00588051 0)
(-5.37378e-05 -0.00611179 0)
(-5.99048e-05 -0.00632869 0)
(-6.63967e-05 -0.00653122 0)
(-7.32173e-05 -0.00671935 0)
(-8.03606e-05 -0.00689309 0)
(-8.78319e-05 -0.00705243 0)
(-9.56218e-05 -0.00719736 0)
(-0.000103742 -0.00732788 0)
(-0.000112191 -0.007444 0)
(-0.000120995 -0.0075457 0)
(-0.000130076 -0.00763299 0)
(-0.000139159 -0.00770587 0)
(-0.000147876 -0.00776435 0)
(-0.000157818 -0.00780848 0)
(-0.000176371 -0.00783845 0)
(-0.000212081 -0.00785594 0)
(-0.000259709 -0.00786 0)
(-0.000303248 -0.00786112 0)
(-0.000347137 -0.007863 0)
(-0.000337872 -0.00786557 0)
(-0.000326516 -0.00786804 0)
(-0.000333664 -0.00786952 0)
(-0.000344705 -0.00786954 0)
(-0.000355146 -0.00786776 0)
(-0.000364843 -0.007864 0)
(-0.00037434 -0.00785811 0)
(-0.000383848 -0.00784995 0)
(-0.000393385 -0.00783944 0)
(-0.000402943 -0.00782652 0)
(-0.000412521 -0.00781117 0)
(-0.000422123 -0.00779337 0)
(-0.000431751 -0.00777315 0)
(-0.000441402 -0.00775051 0)
(-2.41903e-08 -0.000234483 0)
(-2.858e-07 -0.000689403 0)
(-8.41255e-07 -0.00113025 0)
(-1.69457e-06 -0.001557 0)
(-2.84345e-06 -0.00196963 0)
(-4.28786e-06 -0.00236811 0)
(-6.02988e-06 -0.00275241 0)
(-8.07112e-06 -0.00312252 0)
(-1.04134e-05 -0.00347841 0)
(-1.30575e-05 -0.00382007 0)
(-1.6005e-05 -0.00414747 0)
(-1.92562e-05 -0.0044606 0)
(-2.28128e-05 -0.00475943 0)
(-2.66747e-05 -0.00504396 0)
(-3.08442e-05 -0.00531415 0)
(-3.5321e-05 -0.00557 0)
(-4.01084e-05 -0.0058115 0)
(-4.52056e-05 -0.00603862 0)
(-5.06174e-05 -0.00625135 0)
(-5.63429e-05 -0.00644969 0)
(-6.2389e-05 -0.00663361 0)
(-6.8754e-05 -0.0068031 0)
(-7.54474e-05 -0.00695816 0)
(-8.24671e-05 -0.00709878 0)
(-8.98326e-05 -0.00722493 0)
(-9.75559e-05 -0.00733663 0)
(-0.000105656 -0.00743384 0)
(-0.000113996 -0.00751658 0)
(-0.000122223 -0.00758481 0)
(-0.000130364 -0.0076385 0)
(-0.000141879 -0.00767768 0)
(-0.00016613 -0.00770284 0)
(-0.000203239 -0.00771758 0)
(-0.000246017 -0.00771992 0)
(-0.000292524 -0.00772125 0)
(-0.00034036 -0.00772513 0)
(-0.000314466 -0.00773111 0)
(-0.000310189 -0.00773672 0)
(-0.000320268 -0.00774091 0)
(-0.000332554 -0.00774318 0)
(-0.000343853 -0.00774327 0)
(-0.00035452 -0.00774102 0)
(-0.000365043 -0.00773632 0)
(-0.000375547 -0.00772907 0)
(-0.000386019 -0.00771924 0)
(-0.000396443 -0.00770679 0)
(-0.000406817 -0.00769176 0)
(-0.000417143 -0.00767416 0)
(-0.000427424 -0.00765405 0)
(-0.000437659 -0.00763149 0)
(-1.99842e-08 -0.000233158 0)
(-2.38649e-07 -0.000685278 0)
(-7.08156e-07 -0.0011232 0)
(-1.43488e-06 -0.0015469 0)
(-2.42019e-06 -0.00195639 0)
(-3.66665e-06 -0.00235166 0)
(-5.17823e-06 -0.00273268 0)
(-6.95794e-06 -0.00309945 0)
(-9.00855e-06 -0.00345196 0)
(-1.13316e-05 -0.00379019 0)
(-1.39288e-05 -0.00411414 0)
(-1.68008e-05 -0.00442377 0)
(-1.99485e-05 -0.00471909 0)
(-2.33719e-05 -0.00500008 0)
(-2.70713e-05 -0.00526671 0)
(-3.10466e-05 -0.00551897 0)
(-3.52976e-05 -0.00575684 0)
(-3.98242e-05 -0.00598031 0)
(-4.46258e-05 -0.00618936 0)
(-4.9703e-05 -0.00638395 0)
(-5.50546e-05 -0.00656408 0)
(-6.06819e-05 -0.00672972 0)
(-6.65817e-05 -0.00688084 0)
(-7.27588e-05 -0.00701742 0)
(-7.92214e-05 -0.00713943 0)
(-8.60033e-05 -0.00724683 0)
(-9.30763e-05 -0.00733962 0)
(-0.000100154 -0.00741772 0)
(-0.000106558 -0.00748111 0)
(-0.000112899 -0.00752967 0)
(-0.000126832 -0.00756348 0)
(-0.000164685 -0.00758301 0)
(-0.000214717 -0.00759244 0)
(-0.000253645 -0.00759174 0)
(-0.000294875 -0.00759129 0)
(-0.000325085 -0.0075927 0)
(-0.000298586 -0.00759598 0)
(-0.000299673 -0.00759947 0)
(-0.000310183 -0.00760213 0)
(-0.000321675 -0.00760339 0)
(-0.000332391 -0.00760293 0)
(-0.000342848 -0.00760052 0)
(-0.000353378 -0.00759596 0)
(-0.000364014 -0.00758908 0)
(-0.000374711 -0.00757978 0)
(-0.000385431 -0.00756802 0)
(-0.000396153 -0.00755377 0)
(-0.000406862 -0.00753704 0)
(-0.000417546 -0.00751785 0)
(-0.000428193 -0.00749626 0)
(-3.1776e-08 -0.000231587 0)
(-3.50739e-07 -0.000680499 0)
(-1.01112e-06 -0.00111516 0)
(-2.00978e-06 -0.00153556 0)
(-3.3349e-06 -0.00194171 0)
(-4.9811e-06 -0.00233361 0)
(-6.94314e-06 -0.00271125 0)
(-9.22025e-06 -0.00307462 0)
(-1.1807e-05 -0.00342372 0)
(-1.47036e-05 -0.00375855 0)
(-1.79037e-05 -0.00407909 0)
(-2.14089e-05 -0.00438533 0)
(-2.52111e-05 -0.00467727 0)
(-2.93136e-05 -0.0049549 0)
(-3.37062e-05 -0.00521819 0)
(-3.83938e-05 -0.00546714 0)
(-4.33631e-05 -0.00570175 0)
(-4.86214e-05 -0.00592198 0)
(-5.41511e-05 -0.00612783 0)
(-5.99627e-05 -0.00631928 0)
(-6.60323e-05 -0.00649632 0)
(-7.23742e-05 -0.00665892 0)
(-7.89548e-05 -0.00680708 0)
(-8.57968e-05 -0.00694077 0)
(-9.28732e-05 -0.00705998 0)
(-0.000100245 -0.00716468 0)
(-0.000107803 -0.00725485 0)
(-0.00011517 -0.00733047 0)
(-0.000121473 -0.00739152 0)
(-0.00012802 -0.00743796 0)
(-0.000145635 -0.00746988 0)
(-0.000192305 -0.00748743 0)
(-0.000253183 -0.00749284 0)
(-0.000289628 -0.00749184 0)
(-0.000323322 -0.00749116 0)
(-0.000326125 -0.00748969 0)
(-0.000311004 -0.00748913 0)
(-0.00031586 -0.00748861 0)
(-0.000325791 -0.00748742 0)
(-0.00033577 -0.00748519 0)
(-0.000345238 -0.00748167 0)
(-0.000354665 -0.00747666 0)
(-0.000364249 -0.00746996 0)
(-0.000373987 -0.00746138 0)
(-0.000383838 -0.0074508 0)
(-0.000393775 -0.00743811 0)
(-0.000403779 -0.00742325 0)
(-0.000413831 -0.0074062 0)
(-0.000423918 -0.00738693 0)
(-0.000434023 -0.00736546 0)
(-4.26701e-08 -0.000228884 0)
(-4.30255e-07 -0.0006726 0)
(-1.21794e-06 -0.00110224 0)
(-2.39569e-06 -0.00151779 0)
(-3.94695e-06 -0.00191921 0)
(-5.86118e-06 -0.0023065 0)
(-8.13206e-06 -0.00267964 0)
(-1.07546e-05 -0.0030386 0)
(-1.37241e-05 -0.00338337 0)
(-1.70368e-05 -0.00371393 0)
(-2.06887e-05 -0.00403027 0)
(-2.46772e-05 -0.00433238 0)
(-2.89988e-05 -0.00462024 0)
(-3.36518e-05 -0.00489384 0)
(-3.86327e-05 -0.00515317 0)
(-4.39407e-05 -0.00539821 0)
(-4.95716e-05 -0.00562897 0)
(-5.55254e-05 -0.00584542 0)
(-6.17966e-05 -0.00604757 0)
(-6.83863e-05 -0.0062354 0)
(-7.52862e-05 -0.00640892 0)
(-8.24986e-05 -0.00656812 0)
(-9.00103e-05 -0.006713 0)
(-9.78285e-05 -0.00684356 0)
(-0.000105948 -0.0069598 0)
(-0.000114396 -0.00706173 0)
(-0.000123091 -0.00714936 0)
(-0.000131716 -0.0072227 0)
(-0.000139755 -0.00728175 0)
(-0.000148669 -0.0073266 0)
(-0.000166735 -0.00735739 0)
(-0.000205752 -0.00737534 0)
(-0.000259486 -0.00737949 0)
(-0.000306681 -0.00738048 0)
(-0.000355129 -0.00738172 0)
(-0.000336734 -0.00738134 0)
(-0.000324833 -0.00738074 0)
(-0.000331706 -0.00737946 0)
(-0.000342184 -0.00737715 0)
(-0.000351878 -0.00737361 0)
(-0.000360838 -0.00736871 0)
(-0.000369651 -0.0073623 0)
(-0.000378516 -0.00735425 0)
(-0.000387444 -0.00734439 0)
(-0.000396423 -0.00733263 0)
(-0.00040545 -0.00731888 0)
(-0.000414525 -0.00730311 0)
(-0.00042365 -0.00728527 0)
(-0.00043282 -0.00726538 0)
(-0.000442031 -0.00724342 0)
(-2.32431e-08 -0.000226515 0)
(-2.83522e-07 -0.000665578 0)
(-8.38233e-07 -0.00109064 0)
(-1.69229e-06 -0.00150168 0)
(-2.84329e-06 -0.00189865 0)
(-4.29201e-06 -0.00228154 0)
(-6.0402e-06 -0.00265031 0)
(-8.09082e-06 -0.00300495 0)
(-1.04452e-05 -0.00334543 0)
(-1.3106e-05 -0.00367172 0)
(-1.60742e-05 -0.00398382 0)
(-1.93528e-05 -0.00428169 0)
(-2.29425e-05 -0.00456533 0)
(-2.68471e-05 -0.00483471 0)
(-3.10675e-05 -0.00508983 0)
(-3.56085e-05 -0.00533066 0)
(-4.04713e-05 -0.00555719 0)
(-4.56623e-05 -0.00576942 0)
(-5.11829e-05 -0.00596734 0)
(-5.70419e-05 -0.00615094 0)
(-6.32402e-05 -0.0063202 0)
(-6.97897e-05 -0.00647514 0)
(-7.66901e-05 -0.00661574 0)
(-8.39633e-05 -0.00674202 0)
(-9.16218e-05 -0.00685397 0)
(-9.96946e-05 -0.0069516 0)
(-0.000108062 -0.00703493 0)
(-0.000116391 -0.00710395 0)
(-0.000124571 -0.00715866 0)
(-0.000135597 -0.00719913 0)
(-0.000158514 -0.00722575 0)
(-0.000197199 -0.00724164 0)
(-0.000246277 -0.00724468 0)
(-0.000299658 -0.00724653 0)
(-0.000356526 -0.00725035 0)
(-0.000319629 -0.00725503 0)
(-0.000314832 -0.00725943 0)
(-0.000325143 -0.00726239 0)
(-0.000337349 -0.00726343 0)
(-0.000348211 -0.00726241 0)
(-0.000358328 -0.00725931 0)
(-0.000368269 -0.00725412 0)
(-0.000378171 -0.00724681 0)
(-0.000388023 -0.00723734 0)
(-0.000397815 -0.00722568 0)
(-0.00040755 -0.00721183 0)
(-0.000417236 -0.00719582 0)
(-0.000426878 -0.00717767 0)
(-0.000436481 -0.00715741 0)
(-0.000446046 -0.00713509 0)
(-0.000498551 -0.00960524 0)
(-0.000505159 -0.009572 0)
(-0.000511653 -0.00953485 0)
(-0.000518042 -0.00949382 0)
(-0.000524331 -0.00944897 0)
(-0.000530521 -0.00940038 0)
(-0.000536614 -0.00934812 0)
(-0.000542609 -0.00929229 0)
(-0.000548505 -0.00923299 0)
(-0.000554299 -0.00917032 0)
(-0.00055999 -0.00910439 0)