/*--------------------------------*- C++ -*----------------------------------*\
| =========                 |                                                 |
| \\      /  F ield         | OpenFOAM: The Open Source CFD Toolbox           |
|  \\    /   O peration     | Version:  2.4.0                                 |
|   \\  /    A nd           | Web:      www.OpenFOAM.org                      |
|    \\/     M anipulation  |                                                 |
\*---------------------------------------------------------------------------*/
FoamFile
{
    version     2.0;
    format      ascii;
    class       volVectorField;
    location    "2.8";
    object      U;
}
// * * * * * * * * * * * * * * * * * * * * * * * * * * * * * * * * * * * * * //

dimensions      [0 1 -1 0 0 0 0];

internalField   nonuniform List<vector> 
125
(
(6.70987e-09 -0.0013044 0)
(1.52064e-08 -0.00130438 0)
(2.90488e-09 -0.00130437 0)
(-1.53122e-08 -0.00130438 0)
(-9.21176e-09 -0.0013044 0)
(6.04351e-09 -0.0013044 0)
(1.37373e-08 -0.00130438 0)
(2.63806e-09 -0.00130437 0)
(-1.37462e-08 -0.00130438 0)
(-8.20948e-09 -0.0013044 0)
(5.40716e-09 -0.0013044 0)
(1.2336e-08 -0.00130438 0)
(2.38498e-09 -0.00130437 0)
(-1.22549e-08 -0.00130438 0)
(-7.25781e-09 -0.0013044 0)
(4.80026e-09 -0.0013044 0)
(1.10009e-08 -0.00130438 0)
(2.14523e-09 -0.00130437 0)
(-1.08365e-08 -0.00130438 0)
(-6.35548e-09 -0.00130441 0)
(4.22226e-09 -0.0013044 0)
(9.73077e-09 -0.00130438 0)
(1.91844e-09 -0.00130437 0)
(-9.48949e-09 -0.00130438 0)
(-5.5012e-09 -0.00130441 0)
(3.67258e-09 -0.0013044 0)
(8.52411e-09 -0.00130438 0)
(1.70422e-09 -0.00130437 0)
(-8.21211e-09 -0.00130438 0)
(-4.69366e-09 -0.00130441 0)
(3.15063e-09 -0.0013044 0)
(7.37948e-09 -0.00130438 0)
(1.50218e-09 -0.00130437 0)
(-7.0027e-09 -0.00130438 0)
(-3.93158e-09 -0.00130441 0)
(2.65582e-09 -0.0013044 0)
(6.29543e-09 -0.00130438 0)
(1.31193e-09 -0.00130437 0)
(-5.85955e-09 -0.00130438 0)
(-3.21368e-09 -0.00130441 0)
(2.18755e-09 -0.0013044 0)
(5.27048e-09 -0.00130438 0)
(1.13311e-09 -0.00130437 0)
(-4.78095e-09 -0.00130438 0)
(-2.53865e-09 -0.00130441 0)
(1.74521e-09 -0.0013044 0)
(4.30315e-09 -0.00130438 0)
(9.65341e-10 -0.00130437 0)
(-3.76516e-09 -0.00130438 0)
(-1.90521e-09 -0.00130441 0)
(1.32816e-09 -0.0013044 0)
(3.39192e-09 -0.00130438 0)
(8.08241e-10 -0.00130437 0)
(-2.81047e-09 -0.00130438 0)
(-1.31208e-09 -0.00130441 0)
(9.35774e-10 -0.0013044 0)
(2.5353e-09 -0.00130438 0)
(6.61445e-10 -0.00130437 0)
(-1.91511e-09 -0.00130438 0)
(-7.57967e-10 -0.00130441 0)
(5.67417e-10 -0.0013044 0)
(1.73175e-09 -0.00130438 0)
(5.24588e-10 -0.00130437 0)
(-1.07734e-09 -0.00130438 0)
(-2.41604e-10 -0.00130441 0)
(2.22437e-10 -0.0013044 0)
(9.79753e-10 -0.00130438 0)
(3.97309e-10 -0.00130437 0)
(-2.954e-10 -0.00130438 0)
(2.38286e-10 -0.00130441 0)
(-9.98221e-11 -0.0013044 0)
(2.77755e-10 -0.00130438 0)
(2.79248e-10 -0.00130437 0)
(4.32473e-10 -0.00130438 0)
(6.8297e-10 -0.00130441 0)
(-4.00023e-10 -0.0013044 0)
(-3.75788e-10 -0.00130438 0)
(1.70052e-10 -0.00130437 0)
(1.10805e-09 -0.00130438 0)
(1.09371e-09 -0.00130441 0)
(-6.78836e-10 -0.0013044 0)
(-9.82436e-10 -0.00130438 0)
(6.93712e-11 -0.00130437 0)
(1.73309e-09 -0.00130438 0)
(1.47176e-09 -0.00130441 0)
(-9.36938e-10 -0.0013044 0)
(-1.54375e-09 -0.00130438 0)
(-2.31398e-11 -0.00130437 0)
(2.30939e-09 -0.00130438 0)
(1.81838e-09 -0.00130441 0)
(-1.17501e-09 -0.0013044 0)
(-2.0613e-09 -0.00130438 0)
(-1.07823e-10 -0.00130437 0)
(2.83871e-09 -0.00130438 0)
(2.1348e-09 -0.00130441 0)
(-1.39375e-09 -0.0013044 0)
(-2.53666e-09 -0.00130438 0)
(-1.85014e-10 -0.00130437 0)
(3.32282e-09 -0.00130438 0)
(2.42227e-09 -0.00130441 0)
(-1.59383e-09 -0.0013044 0)
(-2.97142e-09 -0.00130438 0)
(-2.55047e-10 -0.00130437 0)
(3.76352e-09 -0.00130438 0)
(2.68201e-09 -0.00130441 0)
(-1.77598e-09 -0.0013044 0)
(-3.36716e-09 -0.00130438 0)
(-3.18249e-10 -0.00130437 0)
(4.16259e-09 -0.00130438 0)
(2.91524e-09 -0.00130441 0)
(-1.94088e-09 -0.0013044 0)
(-3.72546e-09 -0.00130438 0)
(-3.74946e-10 -0.00130437 0)
(4.52179e-09 -0.00130438 0)
(3.12319e-09 -0.00130441 0)
(-2.08926e-09 -0.0013044 0)
(-4.04793e-09 -0.00130438 0)
(-4.25455e-10 -0.00130437 0)
(4.84293e-09 -0.00130438 0)
(3.30707e-09 -0.00130441 0)
(-2.22182e-09 -0.0013044 0)
(-4.33617e-09 -0.00130438 0)
(-4.70096e-10 -0.00130437 0)
(5.12776e-09 -0.00130438 0)
(3.46807e-09 -0.00130441 0)
)
;

boundaryField
{
    BotWall
    {
        type            fixedValue;
        value           nonuniform 0();
    }
    FreeStream
    {
        type            zeroGradient;
    }
    FrontNBack
    {
        type            empty;
    }
    LeftSide
    {
        type            symmetryPlane;
    }
    RightSide
    {
        type            symmetryPlane;
    }
    procBoundary2to1
    {
        type            processor;
        value           nonuniform List<vector> 5((7.40677e-09 -0.0013044 0) (1.67445e-08 -0.00130438 0) (3.18582e-09 -0.00130437 0) (-1.69545e-08 -0.00130438 0) (-1.02659e-08 -0.0013044 0));
    }
    procBoundary2to3
    {
        type            processor;
        value           nonuniform List<vector> 5((-2.33929e-09 -0.0013044 0) (-4.59177e-09 -0.00130438 0) (-5.09178e-10 -0.00130437 0) (5.3781e-09 -0.00130438 0) (3.60741e-09 -0.00130441 0));
    }
}


// ************************************************************************* //
