/*--------------------------------*- C++ -*----------------------------------*\
| =========                 |                                                 |
| \\      /  F ield         | OpenFOAM: The Open Source CFD Toolbox           |
|  \\    /   O peration     | Version:  2.4.0                                 |
|   \\  /    A nd           | Web:      www.OpenFOAM.org                      |
|    \\/     M anipulation  |                                                 |
\*---------------------------------------------------------------------------*/
FoamFile
{
    version     2.0;
    format      ascii;
    class       volScalarField;
    location    "2.9";
    object      T;
}
// * * * * * * * * * * * * * * * * * * * * * * * * * * * * * * * * * * * * * //

dimensions      [0 0 0 1 0 0 0];

internalField   nonuniform List<scalar> 
125
(
293.112
293.112
293.112
293.112
293.112
293.337
293.337
293.337
293.337
293.337
293.565
293.565
293.565
293.565
293.565
293.795
293.795
293.795
293.795
293.795
294.027
294.027
294.027
294.027
294.027
294.262
294.262
294.262
294.262
294.262
294.5
294.5
294.5
294.5
294.5
294.74
294.74
294.74
294.74
294.74
294.982
294.982
294.982
294.982
294.982
295.227
295.227
295.227
295.227
295.227
295.475
295.475
295.475
295.475
295.475
295.725
295.725
295.725
295.725
295.725
295.978
295.978
295.978
295.978
295.978
296.233
296.233
296.233
296.233
296.233
296.492
296.492
296.492
296.492
296.492
296.754
296.754
296.754
296.754
296.754
297.018
297.018
297.018
297.018
297.018
297.286
297.286
297.286
297.286
297.286
297.558
297.558
297.558
297.558
297.558
297.973
297.973
297.973
297.973
297.973
297.973
297.973
297.973
297.973
297.973
297.973
297.973
297.973
297.973
297.973
297.973
297.973
297.973
297.973
297.973
297.972
297.972
297.972
297.972
297.972
297.972
297.972
297.972
297.972
297.972
)
;

boundaryField
{
    BotWall
    {
        type            fixedValue;
        value           uniform 293;
    }
    FreeStream
    {
        type            fixedValue;
        value           nonuniform 0();
    }
    FrontNBack
    {
        type            empty;
    }
    LeftSide
    {
        type            symmetryPlane;
    }
    RightSide
    {
        type            symmetryPlane;
    }
    procBoundary0to1
    {
        type            processor;
        value           nonuniform List<scalar> 5(297.972 297.972 297.972 297.972 297.972);
    }
}


// ************************************************************************* //
