/*--------------------------------*- C++ -*----------------------------------*\
| =========                 |                                                 |
| \\      /  F ield         | OpenFOAM: The Open Source CFD Toolbox           |
|  \\    /   O peration     | Version:  2.4.0                                 |
|   \\  /    A nd           | Web:      www.OpenFOAM.org                      |
|    \\/     M anipulation  |                                                 |
\*---------------------------------------------------------------------------*/
FoamFile
{
    version     2.0;
    format      ascii;
    class       volScalarField;
    location    "4.5";
    object      H;
}
// * * * * * * * * * * * * * * * * * * * * * * * * * * * * * * * * * * * * * //

dimensions      [0 2 -2 0 0 0 0];

internalField   nonuniform List<scalar> 
500
(
-12006.3
-12006.3
-12006.3
-12006.3
-12006.3
-11556.4
-11556.3
-11556.3
-11556.3
-11556.4
-11101.4
-11101.3
-11101.2
-11101.3
-11101.4
-10641.3
-10641.2
-10641
-10641.2
-10641.3
-10176
-10175.8
-10175.7
-10175.9
-10176
-9705.37
-9705.23
-9705.02
-9705.25
-9705.36
-9229.41
-9229.24
-9228.99
-9229.27
-9229.41
-8748.01
-8747.81
-8747.51
-8747.84
-8748
-8261.07
-8260.83
-8260.49
-8260.87
-8261.06
-7768.5
-7768.23
-7767.84
-7768.27
-7768.49
-7270.21
-7269.9
-7269.46
-7269.95
-7270.2
-6766.11
-6765.75
-6765.26
-6765.81
-6766.1
-6256.1
-6255.69
-6255.14
-6255.75
-6256.08
-5740.06
-5739.6
-5738.99
-5739.67
-5740.05
-5217.91
-5217.39
-5216.71
-5217.47
-5217.89
-4689.53
-4688.94
-4688.19
-4689.02
-4689.51
-4154.8
-4154.14
-4153.32
-4154.23
-4154.78
-3613.62
-3612.87
-3611.98
-3612.98
-3613.59
-3065.86
-3065.02
-3064.04
-3065.14
-3065.83
-2511.4
-2510.47
-2509.39
-2510.59
-2511.37
-1950.12
-1949.08
-1947.91
-1949.21
-1950.08
-1381.89
-1380.73
-1379.45
-1380.88
-1381.85
-806.573
-805.287
-803.892
-805.445
-806.529
-25.6003
-25.4014
-25.1986
-25.4245
-25.5931
-19.2494
-19.1
-18.9479
-19.1173
-19.2441
-19.3847
-19.2379
-19.0893
-19.2549
-19.3796
-19.5145
-19.3704
-19.2252
-19.387
-19.5096
-19.6386
-19.4971
-19.3553
-19.5133
-19.6338
-19.7566
-19.6178
-19.4793
-19.6336
-19.752
-19.8683
-19.7322
-19.597
-19.7477
-19.8639
-19.9734
-19.8401
-19.7081
-19.8551
-19.9692
-20.0716
-19.941
-19.8123
-19.9557
-20.0677
-20.1628
-20.0349
-19.9094
-20.0492
-20.159
-20.2465
-20.1213
-19.9989
-20.1353
-20.2428
-20.3225
-20.2
-20.0808
-20.2137
-20.319
-20.3905
-20.2707
-20.1546
-20.2841
-20.3872
-20.4502
-20.3332
-20.2201
-20.3462
-20.447
-20.5013
-20.387
-20.277
-20.3997
-20.4983
-20.5436
-20.432
-20.325
-20.4444
-20.5408
-20.5768
-20.4679
-20.3638
-20.4799
-20.5741
-20.6005
-20.4943
-20.3931
-20.506
-20.5979
-20.6144
-20.511
-20.4126
-20.5224
-20.612
-20.6184
-20.5176
-20.4221
-20.5287
-20.616
-20.612
-20.5139
-20.4213
-20.5248
-20.6098
-20.5951
-20.4997
-20.4098
-20.5102
-20.593
-20.5673
-20.4745
-20.3873
-20.4848
-20.5653
-20.5283
-20.4382
-20.3538
-20.4482
-20.5265
-20.478
-20.3905
-20.3087
-20.4002
-20.4762
-20.416
-20.3311
-20.2519
-20.3405
-20.4143
-20.342
-20.2598
-20.1832
-20.2689
-20.3404
-20.2559
-20.1763
-20.1022
-20.1851
-20.2544
-20.1573
-20.0803
-20.0087
-20.0889
-20.1559
-20.0461
-19.9716
-19.9025
-19.9799
-20.0448
-19.922
-19.8501
-19.7834
-19.8581
-19.9208
-19.7849
-19.7154
-19.6511
-19.7232
-19.7837
-19.6344
-19.5674
-19.5055
-19.575
-19.6333
-19.4704
-19.4059
-19.3463
-19.4132
-19.4694
-19.2928
-19.2307
-19.1734
-19.2378
-19.2918
-19.1014
-19.0417
-18.9866
-19.0485
-19.1005
-18.896
-18.8387
-18.7857
-18.8452
-18.8951
-18.6765
-18.6215
-18.5707
-18.6278
-18.6756
-18.4427
-18.39
-18.3413
-18.3961
-18.4419
-18.1947
-18.1442
-18.0976
-18.1501
-18.1939
-17.9322
-17.884
-17.8394
-17.8897
-17.9315
-17.6553
-17.6093
-17.5666
-17.6147
-17.6547
-17.3639
-17.32
-17.2793
-17.3253
-17.3633
-17.058
-17.0162
-16.9773
-17.0212
-17.0574
-16.7376
-16.6979
-16.6608
-16.7027
-16.7371
-16.4027
-16.365
-16.3297
-16.3696
-16.4022
-16.0534
-16.0176
-15.9841
-16.022
-16.0529
-15.6898
-15.6559
-15.6241
-15.6601
-15.6893
-15.3119
-15.2798
-15.2497
-15.2839
-15.3114
-14.9198
-14.8896
-14.8611
-14.8935
-14.9194
-14.5139
-14.4854
-14.4584
-14.4891
-14.5135
-14.0941
-14.0674
-14.0419
-14.0709
-14.0937
-13.6608
-13.6357
-13.6117
-13.639
-13.6604
-13.2142
-13.1907
-13.1681
-13.1938
-13.2138
-12.7545
-12.7326
-12.7114
-12.7356
-12.7542
-12.2822
-12.2617
-12.2419
-12.2645
-12.2818
-11.7974
-11.7783
-11.7598
-11.781
-11.7971
-11.3005
-11.2829
-11.2656
-11.2854
-11.3002
-10.7921
-10.7757
-10.7597
-10.7781
-10.7918
-10.2724
-10.2573
-10.2424
-10.2595
-10.2722
-9.74202
-9.72816
-9.71436
-9.73019
-9.74177
-9.20138
-9.18868
-9.17597
-9.19058
-9.20115
-8.65104
-8.63945
-8.62778
-8.64121
-8.65083
-8.09156
-8.08103
-8.07036
-8.08265
-8.09136
-7.52354
-7.51402
-7.50431
-7.5155
-7.52335
-6.94762
-6.93906
-6.93028
-6.94041
-6.94745
-6.36446
-6.35683
-6.34894
-6.35805
-6.3643
-5.77478
-5.76801
-5.76099
-5.76911
-5.77463
-5.1793
-5.17337
-5.16718
-5.17435
-5.17917
-4.57881
-4.57368
-4.56829
-4.57453
-4.5787
-3.97412
-3.96975
-3.96514
-3.97048
-3.97402
-3.36606
-3.36242
-3.35857
-3.36304
-3.36597
-2.75552
-2.75259
-2.74947
-2.75309
-2.75545
-2.14342
-2.14117
-2.13876
-2.14155
-2.14337
-1.5307
-1.52911
-1.5274
-1.52938
-1.53067
-0.918357
-0.917406
-0.916387
-0.917571
-0.918334
-0.3074
-0.307083
-0.306743
-0.307138
-0.307393
)
;

boundaryField
{
    BotWall
    {
        type            zeroGradient;
    }
    FreeStream
    {
        type            zeroGradient;
    }
    FrontNBack
    {
        type            empty;
    }
    LeftSide
    {
        type            symmetryPlane;
    }
    RightSide
    {
        type            symmetryPlane;
    }
}


// ************************************************************************* //
