/*--------------------------------*- C++ -*----------------------------------*\
| =========                 |                                                 |
| \\      /  F ield         | OpenFOAM: The Open Source CFD Toolbox           |
|  \\    /   O peration     | Version:  2.4.0                                 |
|   \\  /    A nd           | Web:      www.OpenFOAM.org                      |
|    \\/     M anipulation  |                                                 |
\*---------------------------------------------------------------------------*/
FoamFile
{
    version     2.0;
    format      ascii;
    class       volScalarField;
    location    "4.5";
    object      p;
}
// * * * * * * * * * * * * * * * * * * * * * * * * * * * * * * * * * * * * * //

dimensions      [1 -1 -2 0 0 0 0];

internalField   nonuniform List<scalar> 
500
(
0.757334
0.758935
0.7592
0.75885
0.757401
0.727532
0.72914
0.72941
0.729053
0.727598
0.697381
0.698997
0.699273
0.698909
0.697447
0.666907
0.668532
0.668816
0.668443
0.666973
0.636077
0.637711
0.638003
0.637621
0.636143
0.604919
0.606563
0.606863
0.606472
0.604985
0.573396
0.57505
0.575358
0.574958
0.573463
0.541539
0.543204
0.54352
0.543111
0.541606
0.509308
0.510983
0.511309
0.510889
0.509376
0.476735
0.478421
0.478756
0.478326
0.476803
0.443772
0.44547
0.445814
0.445374
0.443841
0.410462
0.412173
0.412526
0.412076
0.410532
0.376802
0.378525
0.378888
0.378426
0.376872
0.342921
0.344658
0.345032
0.344558
0.342992
0.308644
0.310396
0.310782
0.310295
0.308716
0.272911
0.274675
0.275066
0.274574
0.272983
0.233444
0.235194
0.235574
0.235094
0.233516
0.193385
0.195107
0.195452
0.195047
0.193455
0.180884
0.182773
0.183158
0.182645
0.180959
0.251649
0.254195
0.25524
0.25411
0.251752
0.326505
0.330385
0.332612
0.32997
0.326676
-0.318662
-0.316865
-0.316881
-0.317024
-0.31856
-3.02722
-3.04124
-3.05667
-3.03952
-3.02768
-6.06426
-6.10558
-6.14793
-6.10081
-6.06577
-0.0177317
-0.0177294
-0.017727
-0.0177297
-0.0177316
-0.0131474
-0.0131491
-0.0131508
-0.0131489
-0.0131474
-0.0146169
-0.014617
-0.0146172
-0.014617
-0.0146169
-0.0156954
-0.0156952
-0.0156951
-0.0156953
-0.0156954
-0.0164185
-0.0164184
-0.0164183
-0.0164184
-0.0164185
-0.0170626
-0.0170626
-0.0170626
-0.0170626
-0.0170626
-0.0177277
-0.0177277
-0.0177277
-0.0177277
-0.0177277
-0.0184144
-0.0184144
-0.0184144
-0.0184144
-0.0184144
-0.019112
-0.019112
-0.019112
-0.019112
-0.019112
-0.0198168
-0.0198168
-0.0198168
-0.0198168
-0.0198168
-0.0205289
-0.0205289
-0.0205289
-0.0205289
-0.0205289
-0.0212489
-0.0212488
-0.0212488
-0.0212488
-0.0212489
-0.0219768
-0.0219768
-0.0219768
-0.0219768
-0.0219768
-0.022713
-0.0227129
-0.0227129
-0.0227129
-0.022713
-0.0234573
-0.0234573
-0.0234573
-0.0234573
-0.0234573
-0.02421
-0.0242099
-0.0242099
-0.0242099
-0.02421
-0.024971
-0.024971
-0.024971
-0.024971
-0.024971
-0.0257406
-0.0257405
-0.0257405
-0.0257406
-0.0257406
-0.0265187
-0.0265187
-0.0265187
-0.0265187
-0.0265187
-0.0273055
-0.0273055
-0.0273055
-0.0273055
-0.0273055
-0.0281011
-0.0281011
-0.0281011
-0.0281011
-0.0281011
-0.0289056
-0.0289056
-0.0289056
-0.0289056
-0.0289056
-0.029719
-0.029719
-0.029719
-0.029719
-0.029719
-0.0305416
-0.0305416
-0.0305415
-0.0305416
-0.0305416
-0.0313733
-0.0313733
-0.0313732
-0.0313733
-0.0313733
-0.0322143
-0.0322142
-0.0322142
-0.0322143
-0.0322143
-0.0330646
-0.0330646
-0.0330646
-0.0330646
-0.0330646
-0.0339245
-0.0339245
-0.0339245
-0.0339245
-0.0339245
-0.034794
-0.0347939
-0.0347939
-0.0347939
-0.034794
-0.0356731
-0.0356731
-0.0356731
-0.0356731
-0.0356731
-0.0365621
-0.0365621
-0.0365621
-0.0365621
-0.0365621
-0.037461
-0.037461
-0.0374609
-0.037461
-0.037461
-0.0383699
-0.0383699
-0.0383699
-0.0383699
-0.0383699
-0.039289
-0.0392889
-0.0392889
-0.0392889
-0.039289
-0.0402183
-0.0402183
-0.0402183
-0.0402183
-0.0402183
-0.041158
-0.041158
-0.0411579
-0.041158
-0.041158
-0.0421081
-0.0421081
-0.0421081
-0.0421081
-0.0421081
-0.0430689
-0.0430689
-0.0430689
-0.0430689
-0.0430689
-0.0440404
-0.0440404
-0.0440404
-0.0440404
-0.0440404
-0.0450228
-0.0450227
-0.0450227
-0.0450227
-0.0450228
-0.0460161
-0.046016
-0.046016
-0.0460161
-0.0460161
-0.0470204
-0.0470204
-0.0470204
-0.0470204
-0.0470204
-0.048036
-0.048036
-0.048036
-0.048036
-0.048036
-0.049063
-0.049063
-0.0490629
-0.049063
-0.049063
-0.0501014
-0.0501013
-0.0501013
-0.0501013
-0.0501014
-0.0511513
-0.0511513
-0.0511513
-0.0511513
-0.0511513
-0.052213
-0.052213
-0.052213
-0.052213
-0.052213
-0.0532866
-0.0532865
-0.0532865
-0.0532865
-0.0532866
-0.0543721
-0.0543721
-0.0543721
-0.0543721
-0.0543721
-0.0554697
-0.0554697
-0.0554697
-0.0554697
-0.0554697
-0.0565796
-0.0565796
-0.0565796
-0.0565796
-0.0565796
-0.0577018
-0.0577018
-0.0577018
-0.0577018
-0.0577018
-0.0588366
-0.0588366
-0.0588366
-0.0588366
-0.0588366
-0.0599841
-0.0599841
-0.0599841
-0.0599841
-0.0599841
-0.0611443
-0.0611443
-0.0611443
-0.0611443
-0.0611443
-0.0623175
-0.0623175
-0.0623175
-0.0623175
-0.0623175
-0.0635038
-0.0635038
-0.0635038
-0.0635038
-0.0635038
-0.0647034
-0.0647033
-0.0647033
-0.0647033
-0.0647034
-0.0659163
-0.0659163
-0.0659163
-0.0659163
-0.0659163
-0.0671427
-0.0671427
-0.0671427
-0.0671427
-0.0671427
-0.0683829
-0.0683828
-0.0683828
-0.0683828
-0.0683829
-0.0696368
-0.0696368
-0.0696368
-0.0696368
-0.0696368
-0.0709048
-0.0709048
-0.0709048
-0.0709048
-0.0709048
-0.0721869
-0.0721869
-0.0721869
-0.0721869
-0.0721869
-0.0734833
-0.0734833
-0.0734833
-0.0734833
-0.0734833
-0.0747942
-0.0747942
-0.0747942
-0.0747942
-0.0747942
-0.0761197
-0.0761197
-0.0761197
-0.0761197
-0.0761197
-0.0774601
-0.07746
-0.07746
-0.07746
-0.0774601
-0.0788153
-0.0788153
-0.0788153
-0.0788153
-0.0788153
-0.0801857
-0.0801857
-0.0801857
-0.0801857
-0.0801857
-0.0815714
-0.0815714
-0.0815714
-0.0815714
-0.0815714
-0.0829725
-0.0829725
-0.0829725
-0.0829725
-0.0829725
-0.0843893
-0.0843893
-0.0843893
-0.0843893
-0.0843893
-0.0858219
-0.0858219
-0.0858219
-0.0858219
-0.0858219
-0.0872705
-0.0872705
-0.0872705
-0.0872705
-0.0872705
-0.0887352
-0.0887352
-0.0887352
-0.0887352
-0.0887352
)
;

boundaryField
{
    BotWall
    {
        type            calculated;
        value           nonuniform List<scalar> 5(0.772155 0.773755 0.77402 0.773671 0.772221);
    }
    FreeStream
    {
        type            calculated;
        value           nonuniform List<scalar> 5(-0.0894716 -0.0894716 -0.0894716 -0.0894716 -0.0894716);
    }
    FrontNBack
    {
        type            empty;
    }
    LeftSide
    {
        type            symmetryPlane;
    }
    RightSide
    {
        type            symmetryPlane;
    }
}


// ************************************************************************* //
