/*--------------------------------*- C++ -*----------------------------------*\
| =========                 |                                                 |
| \\      /  F ield         | OpenFOAM: The Open Source CFD Toolbox           |
|  \\    /   O peration     | Version:  2.4.0                                 |
|   \\  /    A nd           | Web:      www.OpenFOAM.org                      |
|    \\/     M anipulation  |                                                 |
\*---------------------------------------------------------------------------*/
FoamFile
{
    version     2.0;
    format      ascii;
    class       volScalarField;
    location    "4.5";
    object      p_rgh;
}
// * * * * * * * * * * * * * * * * * * * * * * * * * * * * * * * * * * * * * //

dimensions      [1 -1 -2 0 0 0 0];

internalField   nonuniform List<scalar> 
500
(
0.772155
0.773755
0.77402
0.773671
0.772221
0.772158
0.773766
0.774036
0.77368
0.772224
0.772146
0.773762
0.774038
0.773674
0.772212
0.772147
0.773772
0.774056
0.773683
0.772213
0.772132
0.773766
0.774058
0.773676
0.772198
0.772132
0.773777
0.774076
0.773685
0.772199
0.772116
0.77377
0.774078
0.773678
0.772183
0.772117
0.773782
0.774099
0.773689
0.772185
0.7721
0.773775
0.774101
0.773681
0.772168
0.7721
0.773786
0.774121
0.773691
0.772168
0.772074
0.773772
0.774116
0.773676
0.772143
0.772068
0.773778
0.774132
0.773681
0.772138
0.772083
0.773806
0.774169
0.773708
0.772153
0.772254
0.77399
0.774365
0.773891
0.772324
0.772408
0.774161
0.774547
0.774059
0.77248
0.771491
0.773255
0.773646
0.773154
0.771563
0.767229
0.768979
0.769358
0.768878
0.7673
0.762766
0.764489
0.764833
0.764429
0.762837
0.78626
0.788149
0.788534
0.788021
0.786335
0.89342
0.895967
0.897011
0.895881
0.893524
1.00508
1.00896
1.01118
1.00854
1.00525
0.397125
0.398921
0.398905
0.398762
0.397226
-2.2738
-2.28782
-2.30326
-2.2861
-2.27426
-5.7633
-5.80217
-5.84201
-5.79769
-5.76473
-0.00398485
-0.00398256
-0.00398013
-0.00398284
-0.00398478
0.00124379
0.00124208
0.00124039
0.00124227
0.00124374
0.000425877
0.000425725
0.000425508
0.00042575
0.00042587
6.15125e-06
6.32035e-06
6.45162e-06
6.30534e-06
6.1561e-06
-5.07748e-05
-5.06853e-05
-5.06021e-05
-5.06949e-05
-5.07716e-05
-2.13081e-05
-2.12758e-05
-2.12451e-05
-2.12794e-05
-2.13066e-05
-5.28905e-06
-5.26385e-06
-5.24521e-06
-5.26609e-06
-5.28798e-06
-3.24503e-06
-3.21545e-06
-3.19513e-06
-3.21787e-06
-3.24392e-06
-4.41447e-06
-4.38323e-06
-4.36127e-06
-4.38584e-06
-4.41331e-06
-5.04386e-06
-5.01321e-06
-4.99121e-06
-5.01581e-06
-5.04271e-06
-5.11654e-06
-5.08679e-06
-5.0653e-06
-5.08933e-06
-5.11542e-06
-5.06286e-06
-5.03383e-06
-5.01284e-06
-5.03631e-06
-5.06177e-06
-5.03111e-06
-5.00269e-06
-4.98213e-06
-5.00511e-06
-5.03004e-06
-5.02149e-06
-4.99366e-06
-4.97351e-06
-4.99603e-06
-5.02044e-06
-5.01677e-06
-4.98955e-06
-4.9698e-06
-4.99187e-06
-5.01575e-06
-5.01109e-06
-4.98447e-06
-4.96513e-06
-4.98674e-06
-5.01009e-06
-5.00447e-06
-4.97844e-06
-4.9595e-06
-4.98066e-06
-5.00349e-06
-4.99757e-06
-4.97213e-06
-4.9536e-06
-4.97431e-06
-4.99662e-06
-4.99065e-06
-4.96579e-06
-4.94765e-06
-4.96791e-06
-4.98972e-06
-4.98369e-06
-4.95941e-06
-4.94166e-06
-4.96148e-06
-4.98278e-06
-4.97667e-06
-4.95296e-06
-4.9356e-06
-4.95498e-06
-4.97578e-06
-4.96957e-06
-4.94643e-06
-4.92946e-06
-4.94841e-06
-4.9687e-06
-4.9624e-06
-4.93982e-06
-4.92324e-06
-4.94175e-06
-4.96156e-06
-4.95516e-06
-4.93313e-06
-4.91693e-06
-4.93502e-06
-4.95434e-06
-4.94785e-06
-4.92636e-06
-4.91054e-06
-4.9282e-06
-4.94704e-06
-4.94046e-06
-4.91952e-06
-4.90407e-06
-4.92131e-06
-4.93967e-06
-4.933e-06
-4.91259e-06
-4.89751e-06
-4.91434e-06
-4.93223e-06
-4.92546e-06
-4.90558e-06
-4.89087e-06
-4.90728e-06
-4.92471e-06
-4.91784e-06
-4.89848e-06
-4.88414e-06
-4.90015e-06
-4.91711e-06
-4.91015e-06
-4.89131e-06
-4.87733e-06
-4.89292e-06
-4.90944e-06
-4.90237e-06
-4.88405e-06
-4.87043e-06
-4.88562e-06
-4.90168e-06
-4.89452e-06
-4.8767e-06
-4.86344e-06
-4.87823e-06
-4.89385e-06
-4.88659e-06
-4.86927e-06
-4.85636e-06
-4.87076e-06
-4.88593e-06
-4.87857e-06
-4.86175e-06
-4.84919e-06
-4.86319e-06
-4.87794e-06
-4.87048e-06
-4.85414e-06
-4.84193e-06
-4.85555e-06
-4.86986e-06
-4.8623e-06
-4.84644e-06
-4.83457e-06
-4.84781e-06
-4.8617e-06
-4.85403e-06
-4.83865e-06
-4.82712e-06
-4.83998e-06
-4.85345e-06
-4.84568e-06
-4.83078e-06
-4.81958e-06
-4.83206e-06
-4.84512e-06
-4.83725e-06
-4.82281e-06
-4.81195e-06
-4.82406e-06
-4.8367e-06
-4.82873e-06
-4.81475e-06
-4.80422e-06
-4.81596e-06
-4.8282e-06
-4.82011e-06
-4.80659e-06
-4.79639e-06
-4.80776e-06
-4.8196e-06
-4.81142e-06
-4.79834e-06
-4.78846e-06
-4.79948e-06
-4.81092e-06
-4.80263e-06
-4.79e-06
-4.78044e-06
-4.79109e-06
-4.80215e-06
-4.79375e-06
-4.78156e-06
-4.77232e-06
-4.78262e-06
-4.79328e-06
-4.78477e-06
-4.77302e-06
-4.76409e-06
-4.77404e-06
-4.78433e-06
-4.77571e-06
-4.76438e-06
-4.75577e-06
-4.76537e-06
-4.77528e-06
-4.76655e-06
-4.75564e-06
-4.74734e-06
-4.7566e-06
-4.76613e-06
-4.75729e-06
-4.74681e-06
-4.73881e-06
-4.74773e-06
-4.75689e-06
-4.74794e-06
-4.73787e-06
-4.73018e-06
-4.73875e-06
-4.74755e-06
-4.73849e-06
-4.72883e-06
-4.72144e-06
-4.72968e-06
-4.73812e-06
-4.72894e-06
-4.71969e-06
-4.71259e-06
-4.7205e-06
-4.72858e-06
-4.71929e-06
-4.71044e-06
-4.70364e-06
-4.71122e-06
-4.71895e-06
-4.70953e-06
-4.70109e-06
-4.69458e-06
-4.70184e-06
-4.70921e-06
-4.69968e-06
-4.69163e-06
-4.68542e-06
-4.69234e-06
-4.69937e-06
-4.68972e-06
-4.68207e-06
-4.67614e-06
-4.68275e-06
-4.68943e-06
-4.67966e-06
-4.67239e-06
-4.66675e-06
-4.67304e-06
-4.67938e-06
-4.66949e-06
-4.66261e-06
-4.65725e-06
-4.66322e-06
-4.66923e-06
-4.65921e-06
-4.65271e-06
-4.64764e-06
-4.65329e-06
-4.65897e-06
-4.64883e-06
-4.6427e-06
-4.63791e-06
-4.64325e-06
-4.64859e-06
-4.63833e-06
-4.63258e-06
-4.62807e-06
-4.6331e-06
-4.63811e-06
-4.62772e-06
-4.62235e-06
-4.61812e-06
-4.62284e-06
-4.62752e-06
-4.617e-06
-4.612e-06
-4.60805e-06
-4.61246e-06
-4.61681e-06
-4.60616e-06
-4.60154e-06
-4.59786e-06
-4.60196e-06
-4.60599e-06
-4.59521e-06
-4.59095e-06
-4.58755e-06
-4.59134e-06
-4.59505e-06
-4.58414e-06
-4.58025e-06
-4.57712e-06
-4.58061e-06
-4.58399e-06
-4.57295e-06
-4.56943e-06
-4.56658e-06
-4.56976e-06
-4.57282e-06
-4.56164e-06
-4.55849e-06
-4.55591e-06
-4.55878e-06
-4.56152e-06
-4.5502e-06
-4.54742e-06
-4.54512e-06
-4.54769e-06
-4.5501e-06
-4.53865e-06
-4.53623e-06
-4.5342e-06
-4.53647e-06
-4.53856e-06
-4.52696e-06
-4.52492e-06
-4.52316e-06
-4.52512e-06
-4.52689e-06
-4.51516e-06
-4.51348e-06
-4.512e-06
-4.51365e-06
-4.5151e-06
-4.50322e-06
-4.50191e-06
-4.50071e-06
-4.50205e-06
-4.50317e-06
-4.49113e-06
-4.49022e-06
-4.48931e-06
-4.49033e-06
-4.4911e-06
-4.47888e-06
-4.47841e-06
-4.47782e-06
-4.47848e-06
-4.47888e-06
-4.46656e-06
-4.46645e-06
-4.46613e-06
-4.46649e-06
-4.46657e-06
-4.45449e-06
-4.45421e-06
-4.45385e-06
-4.45425e-06
-4.45447e-06
)
;

boundaryField
{
    BotWall
    {
        type            fixedFluxPressure;
        gradient        uniform 0;
        value           nonuniform List<scalar> 5(0.772155 0.773755 0.77402 0.773671 0.772221);
    }
    FreeStream
    {
        type            totalPressure;
        rho             rho;
        psi             none;
        gamma           1;
        p0              uniform 0;
        value           nonuniform List<scalar> 5(-4.44868e-06 -4.44795e-06 -4.44735e-06 -4.44802e-06 -4.44864e-06);
    }
    FrontNBack
    {
        type            empty;
    }
    LeftSide
    {
        type            symmetryPlane;
    }
    RightSide
    {
        type            symmetryPlane;
    }
}


// ************************************************************************* //
