/*--------------------------------*- C++ -*----------------------------------*\
| =========                 |                                                 |
| \\      /  F ield         | OpenFOAM: The Open Source CFD Toolbox           |
|  \\    /   O peration     | Version:  2.4.0                                 |
|   \\  /    A nd           | Web:      www.OpenFOAM.org                      |
|    \\/     M anipulation  |                                                 |
\*---------------------------------------------------------------------------*/
FoamFile
{
    version     2.0;
    format      ascii;
    class       surfaceScalarField;
    location    "4.5";
    object      phi;
}
// * * * * * * * * * * * * * * * * * * * * * * * * * * * * * * * * * * * * * //

dimensions      [0 3 -1 0 0 0 0];

internalField   nonuniform List<scalar> 
895
(
2.22438e-17
-2.22433e-17
1.60816e-17
6.1632e-18
-1.75766e-17
3.36599e-17
-2.0961e-17
3.38574e-18
-2.09602e-17
6.94378e-17
-9.16726e-17
4.9464e-17
2.61512e-17
-5.40922e-17
1.37236e-16
-6.53894e-17
1.46988e-17
-8.63378e-17
1.1966e-16
-2.11323e-16
8.45851e-17
6.12422e-17
-9.25059e-17
3.14349e-16
-1.1265e-16
3.48598e-17
-1.98976e-16
1.72882e-16
-3.84194e-16
1.21564e-16
1.12578e-16
-1.32933e-16
5.68869e-16
-1.62725e-16
6.46699e-17
-3.61688e-16
2.2928e-16
-6.13461e-16
1.60514e-16
1.81362e-16
-1.75492e-16
9.049e-16
-2.15778e-16
1.04974e-16
-5.77453e-16
2.88999e-16
-9.02448e-16
2.01523e-16
2.68857e-16
-2.20281e-16
1.32673e-15
-2.71943e-16
1.56655e-16
-8.49383e-16
3.52243e-16
-1.25468e-15
2.44712e-16
3.76408e-16
-2.67429e-16
1.8389e-15
-3.31411e-16
2.20656e-16
-1.18078e-15
4.19169e-16
-1.67383e-15
2.90181e-16
5.05416e-16
-3.17044e-16
2.44615e-15
-3.94324e-16
2.97956e-16
-1.57509e-15
4.90011e-16
-2.16383e-15
3.38067e-16
6.57379e-16
-3.69274e-16
3.15351e-15
-4.60901e-16
3.89602e-16
-2.03598e-15
5.64937e-16
-2.72876e-15
3.88478e-16
8.33857e-16
-4.24236e-16
3.96625e-15
-5.31295e-16
4.9668e-16
-2.56726e-15
6.44213e-16
-3.37296e-15
4.41571e-16
1.03652e-15
-4.82099e-16
4.88994e-15
-6.05754e-16
6.20354e-16
-3.17301e-15
7.28026e-16
-4.10097e-15
4.97465e-16
1.2671e-15
-5.42992e-16
5.93043e-15
-6.84448e-16
7.61827e-16
-3.85744e-15
8.16675e-16
-4.91763e-15
5.56334e-16
1.52746e-15
-6.07104e-16
7.09389e-15
-7.67655e-16
9.22395e-16
-4.62509e-15
9.10369e-16
-5.82799e-15
6.18313e-16
1.81953e-15
-6.74581e-16
8.3868e-15
-8.55564e-16
1.10339e-15
-5.48064e-15
1.00944e-15
-6.83742e-15
6.836e-16
2.14538e-15
-7.45636e-16
9.81606e-15
-9.48486e-16
1.30626e-15
-6.42912e-15
1.11413e-15
-7.95154e-15
7.52351e-16
2.50718e-15
-8.2044e-16
1.13889e-14
-1.04664e-15
1.53247e-15
-7.47574e-15
1.22482e-15
-9.17635e-15
8.24787e-16
2.90723e-15
-8.99231e-16
1.31129e-14
-1.15037e-15
1.78362e-15
-8.62611e-15
1.34175e-15
-1.05181e-14
9.01149e-16
3.34785e-15
-9.82329e-16
1.49964e-14
-1.25985e-15
2.06115e-15
-9.88595e-15
1.46512e-15
-1.19832e-14
9.81635e-16
3.83135e-15
-1.06905e-15
1.70471e-14
-1.37538e-15
2.36749e-15
-1.12613e-14
1.5951e-15
-1.35783e-14
1.06451e-15
4.36195e-15
-1.16073e-15
1.92723e-14
-1.49712e-15
2.70389e-15
-1.27584e-14
1.73291e-15
-1.53112e-14
1.15538e-15
4.93949e-15
-1.25822e-15
2.16859e-14
-1.62612e-15
3.07179e-15
-1.43846e-14
1.88262e-15
-1.71938e-14
1.25076e-15
5.57136e-15
-1.36252e-15
2.42992e-14
-1.76664e-15
3.47592e-15
-1.61512e-14
2.04818e-15
-3.15925e-14
1.36607e-15
6.25347e-15
-1.4901e-15
2.71554e-14
-1.91957e-15
3.90539e-15
-2.96626e-14
2.26609e-15
-1.97514e-10
1.5476e-15
-1.97536e-10
-1.69142e-15
-1.97558e-10
-2.11383e-15
-1.97534e-10
-1.97515e-10
2.29441e-15
-1.97517e-10
1.51216e-15
-1.97536e-10
-1.65078e-15
-1.97555e-10
-2.15288e-15
-1.97533e-10
-1.97517e-10
2.28703e-15
-1.97519e-10
1.52425e-15
-1.97535e-10
-1.66547e-15
-1.97552e-10
-2.14267e-15
-1.97533e-10
-1.97519e-10
2.18459e-15
-1.97521e-10
1.44433e-15
-1.97534e-10
-1.57768e-15
-1.97549e-10
-2.051e-15
-1.97532e-10
-1.97521e-10
2.0941e-15
-1.97523e-10
1.3815e-15
-1.97533e-10
-1.50908e-15
-1.97546e-10
-1.96785e-15
-1.97532e-10
-1.97523e-10
2.01168e-15
-1.97525e-10
1.32823e-15
-1.97533e-10
-1.45113e-15
-1.97543e-10
-1.89115e-15
-1.97532e-10
-1.97525e-10
1.9312e-15
-1.97527e-10
1.27681e-15
-1.97532e-10
-1.39519e-15
-1.97541e-10
-1.81615e-15
-1.97531e-10
-1.97527e-10
1.85088e-15
-1.97529e-10
1.22521e-15
-1.97531e-10
-1.33905e-15
-1.97538e-10
-1.74131e-15
-1.97531e-10
-1.97529e-10
1.77106e-15
-1.97531e-10
1.17372e-15
-1.97531e-10
-1.28303e-15
-1.97536e-10
-1.6669e-15
-1.9753e-10
-1.9753e-10
1.69207e-15
-1.97532e-10
1.12271e-15
-1.9753e-10
-1.22753e-15
-1.97533e-10
-1.59321e-15
-1.9753e-10
-1.97532e-10
1.61403e-15
-1.97534e-10
1.07232e-15
-1.9753e-10
-1.17271e-15
-1.97531e-10
-1.52034e-15
-1.9753e-10
-1.97534e-10
1.53696e-15
-1.97536e-10
1.02255e-15
-1.97529e-10
-1.11858e-15
-1.97529e-10
-1.44831e-15
-1.97529e-10
-1.97535e-10
1.46089e-15
-1.97537e-10
9.73444e-16
-1.97529e-10
-1.06516e-15
-1.97527e-10
-1.37716e-15
-1.97529e-10
-1.97536e-10
1.38589e-15
-1.97538e-10
9.25012e-16
-1.97528e-10
-1.01248e-15
-1.97525e-10
-1.30694e-15
-1.97529e-10
-1.97538e-10
1.312e-15
-1.9754e-10
8.77292e-16
-1.97528e-10
-9.60582e-16
-1.97523e-10
-1.2377e-15
-1.97528e-10
-1.97539e-10
1.23927e-15
-1.97541e-10
8.30316e-16
-1.97527e-10
-9.09493e-16
-1.97521e-10
-1.1695e-15
-1.97528e-10
-1.9754e-10
1.16775e-15
-1.97542e-10
7.84117e-16
-1.97527e-10
-8.59249e-16
-1.9752e-10
-1.10238e-15
-1.97528e-10
-1.97541e-10
1.09749e-15
-1.97543e-10
7.38724e-16
-1.97527e-10
-8.09885e-16
-1.97518e-10
-1.0364e-15
-1.97528e-10
-1.97542e-10
1.02854e-15
-1.97544e-10
6.94169e-16
-1.97526e-10
-7.61433e-16
-1.97517e-10
-9.71593e-16
-1.97527e-10
-1.97543e-10
9.60955e-16
-1.97545e-10
6.50483e-16
-1.97526e-10
-7.13926e-16
-1.97515e-10
-9.08017e-16
-1.97527e-10
-1.97544e-10
8.94771e-16
-1.97546e-10
6.07695e-16
-1.97526e-10
-6.67397e-16
-1.97514e-10
-8.45717e-16
-1.97527e-10
-1.97545e-10
8.30038e-16
-1.97547e-10
5.65833e-16
-1.97525e-10
-6.21876e-16
-1.97513e-10
-7.84739e-16
-1.97527e-10
-1.97546e-10
7.66801e-16
-1.97548e-10
5.24928e-16
-1.97525e-10
-5.77394e-16
-1.97512e-10
-7.2513e-16
-1.97527e-10
-1.97546e-10
7.05104e-16
-1.97548e-10
4.85005e-16
-1.97525e-10
-5.33982e-16
-1.97511e-10
-6.66934e-16
-1.97527e-10
-1.97547e-10
6.4499e-16
-1.97549e-10
4.46093e-16
-1.97525e-10
-4.91668e-16
-1.9751e-10
-6.10193e-16
-1.97527e-10
-1.97548e-10
5.86501e-16
-1.9755e-10
4.08218e-16
-1.97525e-10
-4.5048e-16
-1.97509e-10
-5.54952e-16
-1.97526e-10
-1.97548e-10
5.29674e-16
-1.9755e-10
3.71403e-16
-1.97524e-10
-4.10447e-16
-1.97508e-10
-5.01249e-16
-1.97526e-10
-1.97549e-10
4.7455e-16
-1.97551e-10
3.35674e-16
-1.97524e-10
-3.71593e-16
-1.97508e-10
-4.49125e-16
-1.97526e-10
-1.97549e-10
4.21165e-16
-1.97551e-10
3.01054e-16
-1.97524e-10
-3.33944e-16
-1.97507e-10
-3.98618e-16
-1.97526e-10
-1.9755e-10
3.69553e-16
-1.97551e-10
2.67564e-16
-1.97524e-10
-2.97523e-16
-1.97506e-10
-3.49764e-16
-1.97526e-10
-1.9755e-10
3.19746e-16
-1.97552e-10
2.35225e-16
-1.97524e-10
-2.62353e-16
-1.97506e-10
-3.02596e-16
-1.97526e-10
-1.9755e-10
2.71776e-16
-1.97552e-10
2.04055e-16
-1.97524e-10
-2.28454e-16
-1.97505e-10
-2.57147e-16
-1.97526e-10
-1.97551e-10
2.2567e-16
-1.97552e-10
1.74074e-16
-1.97524e-10
-1.95847e-16
-1.97505e-10
-2.13446e-16
-1.97526e-10
-1.97551e-10
1.81455e-16
-1.97552e-10
1.45296e-16
-1.97524e-10
-1.64548e-16
-1.97505e-10
-1.71523e-16
-1.97526e-10
-1.97551e-10
1.39153e-16
-1.97553e-10
1.17737e-16
-1.97524e-10
-1.34574e-16
-1.97504e-10
-1.31401e-16
-1.97526e-10
-1.97551e-10
9.87864e-17
-1.97553e-10
9.14094e-17
-1.97524e-10
-1.05939e-16
-1.97504e-10
-9.31045e-17
-1.97526e-10
-1.97551e-10
6.03715e-17
-1.97553e-10
6.63247e-17
-1.97524e-10
-7.86547e-17
-1.97504e-10
-5.66521e-17
-1.97526e-10
-1.97551e-10
2.39236e-17
-1.97553e-10
4.2492e-17
-1.97524e-10
-5.27322e-17
-1.97504e-10
-2.20613e-17
-1.97526e-10
-1.97551e-10
-1.05456e-17
-1.97553e-10
1.99185e-17
-1.97524e-10
-2.81792e-17
-1.97504e-10
1.06541e-17
-1.97526e-10
-1.97551e-10
-4.3028e-17
-1.97553e-10
-1.39054e-18
-1.97524e-10
-5.00157e-18
-1.97504e-10
4.14833e-17
-1.97526e-10
-1.97551e-10
-7.35185e-17
-1.97553e-10
-2.14322e-17
-1.97524e-10
1.67973e-17
-1.97504e-10
7.04189e-17
-1.97526e-10
-1.97551e-10
-1.02016e-16
-1.97553e-10
-4.02057e-17
-1.97524e-10
3.72163e-17
-1.97504e-10
9.74575e-17
-1.97526e-10
-1.97551e-10
-1.28523e-16
-1.97552e-10
-5.77128e-17
-1.97524e-10
5.6257e-17
-1.97504e-10
1.22599e-16
-1.97526e-10
-1.97551e-10
-1.53046e-16
-1.97552e-10
-7.39577e-17
-1.97524e-10
7.39239e-17
-1.97504e-10
1.45847e-16
-1.97526e-10
-1.97551e-10
-1.75596e-16
-1.97552e-10
-8.89471e-17
-1.97524e-10
9.02239e-17
-1.97505e-10
1.67211e-16
-1.97527e-10
-1.97551e-10
-1.96188e-16
-1.97552e-10
-1.02691e-16
-1.97524e-10
1.05167e-16
-1.97505e-10
1.86702e-16
-1.97527e-10
-1.9755e-10
-2.14841e-16
-1.97552e-10
-1.152e-16
-1.97524e-10
1.18767e-16
-1.97505e-10
2.04337e-16
-1.97527e-10
-1.9755e-10
-2.31581e-16
-1.97551e-10
-1.26492e-16
-1.97524e-10
1.31039e-16
-1.97505e-10
2.20138e-16
-1.97527e-10
-1.9755e-10
-2.46435e-16
-1.97551e-10
-1.36584e-16
-1.97525e-10
1.42004e-16
-1.97506e-10
2.34132e-16
-1.97527e-10
-1.9755e-10
-2.59439e-16
-1.97551e-10
-1.45497e-16
-1.97525e-10
1.51685e-16
-1.97506e-10
2.46349e-16
-1.97527e-10
-1.9755e-10
-2.70631e-16
-1.97551e-10
-1.53256e-16
-1.97525e-10
1.60108e-16
-1.97506e-10
2.56827e-16
-1.97527e-10
-1.97549e-10
-2.80057e-16
-1.9755e-10
-1.5989e-16
-1.97525e-10
1.67304e-16
-1.97506e-10
2.65608e-16
-1.97527e-10
-1.97549e-10
-2.87766e-16
-1.9755e-10
-1.6543e-16
-1.97525e-10
1.73306e-16
-1.97507e-10
2.72738e-16
-1.97527e-10
-1.97549e-10
-2.93817e-16
-1.9755e-10
-1.69911e-16
-1.97525e-10
1.78154e-16
-1.97507e-10
2.78273e-16
-1.97527e-10
-1.97548e-10
-2.9827e-16
-1.9755e-10
-1.73372e-16
-1.97525e-10
1.81889e-16
-1.97507e-10
2.82271e-16
-1.97527e-10
-1.97548e-10
-3.01194e-16
-1.97549e-10
-1.75857e-16
-1.97525e-10
1.84559e-16
-1.97508e-10
2.84799e-16
-1.97528e-10
-1.97548e-10
-3.02665e-16
-1.97549e-10
-1.77411e-16
-1.97526e-10
1.86212e-16
-1.97508e-10
2.85927e-16
-1.97528e-10
-1.97548e-10
-3.02764e-16
-1.97549e-10
-1.78086e-16
-1.97526e-10
1.86906e-16
-1.97509e-10
2.85735e-16
-1.97528e-10
-1.97547e-10
-3.01579e-16
-1.97548e-10
-1.77937e-16
-1.97526e-10
1.867e-16
-1.97509e-10
2.84308e-16
-1.97528e-10
-1.97547e-10
-2.99205e-16
-1.97548e-10
-1.77024e-16
-1.97526e-10
1.85658e-16
-1.97509e-10
2.81739e-16
-1.97528e-10
-1.97547e-10
-2.95747e-16
-1.97548e-10
-1.7541e-16
-1.97526e-10
1.83851e-16
-1.9751e-10
2.78127e-16
-1.97528e-10
-1.97546e-10
-2.91313e-16
-1.97547e-10
-1.73163e-16
-1.97526e-10
1.81352e-16
-1.9751e-10
2.7358e-16
-1.97528e-10
-1.97546e-10
-2.86022e-16
-1.97547e-10
-1.70358e-16
-1.97526e-10
1.78242e-16
-1.9751e-10
2.68211e-16
-1.97528e-10
-1.97546e-10
-2.80001e-16
-1.97547e-10
-1.67072e-16
-1.97526e-10
1.74606e-16
-1.97511e-10
2.62143e-16
-1.97528e-10
-1.97546e-10
-2.73383e-16
-1.97547e-10
-1.63388e-16
-1.97527e-10
1.70534e-16
-1.97511e-10
2.55508e-16
-1.97528e-10
-1.97545e-10
-2.66311e-16
-1.97546e-10
-1.59395e-16
-1.97527e-10
1.66122e-16
-1.97511e-10
2.48444e-16
-1.97528e-10
-1.97545e-10
-2.58938e-16
-1.97546e-10
-1.55187e-16
-1.97527e-10
1.61474e-16
-1.97512e-10
2.41099e-16
-1.97529e-10
-1.97545e-10
-2.51425e-16
-1.97546e-10
-1.50863e-16
-1.97527e-10
1.56697e-16
-1.97512e-10
2.33629e-16
-1.97529e-10
-1.97545e-10
-2.43943e-16
-1.97546e-10
-1.46528e-16
-1.97527e-10
1.51906e-16
-1.97512e-10
2.26201e-16
-1.97529e-10
-1.97544e-10
-2.36673e-16
-1.97545e-10
-1.42294e-16
-1.97527e-10
1.47223e-16
-1.97513e-10
2.1899e-16
-1.97529e-10
-1.97544e-10
-2.29808e-16
-1.97545e-10
-1.38278e-16
-1.97527e-10
1.42774e-16
-1.97513e-10
2.12182e-16
-1.97529e-10
-1.97544e-10
-2.23549e-16
-1.97545e-10
-1.34605e-16
-1.97527e-10
1.38696e-16
-1.97513e-10
2.05974e-16
-1.97529e-10
-1.97544e-10
-2.18112e-16
-1.97545e-10
-1.31405e-16
-1.97527e-10
1.35131e-16
-1.97513e-10
2.00571e-16
-1.97529e-10
-1.97544e-10
-2.13721e-16
-1.97544e-10
-1.28815e-16
-1.97527e-10
1.32227e-16
-1.97514e-10
1.96192e-16
-1.97529e-10
-1.97543e-10
-2.10619e-16
-1.97544e-10
-1.26982e-16
-1.97527e-10
1.30145e-16
-1.97514e-10
1.93069e-16
-1.97529e-10
-1.97543e-10
-2.09093e-16
-1.97544e-10
-1.2608e-16
-1.97528e-10
1.29073e-16
-1.97514e-10
1.91475e-16
-1.97529e-10
-1.97543e-10
-2.09492e-16
-1.26378e-16
1.29312e-16
1.91719e-16
)
;

boundaryField
{
    BotWall
    {
        type            calculated;
        value           nonuniform List<scalar> 5(-4.71264e-22 -8.89178e-22 -1.35385e-21 -1.09356e-21 -8.41181e-22);
    }
    FreeStream
    {
        type            calculated;
        value           nonuniform List<scalar> 5(-1.97544e-10 -1.97528e-10 -1.97514e-10 -1.97529e-10 -1.97543e-10);
    }
    FrontNBack
    {
        type            empty;
        value           nonuniform 0();
    }
    LeftSide
    {
        type            symmetryPlane;
        value           uniform 0;
    }
    RightSide
    {
        type            symmetryPlane;
        value           uniform 0;
    }
}


// ************************************************************************* //
