/*--------------------------------*- C++ -*----------------------------------*\
| =========                 |                                                 |
| \\      /  F ield         | OpenFOAM: The Open Source CFD Toolbox           |
|  \\    /   O peration     | Version:  2.4.0                                 |
|   \\  /    A nd           | Web:      www.OpenFOAM.org                      |
|    \\/     M anipulation  |                                                 |
\*---------------------------------------------------------------------------*/
FoamFile
{
    version     2.0;
    format      ascii;
    class       volVectorField;
    location    "4.5";
    object      U;
}
// * * * * * * * * * * * * * * * * * * * * * * * * * * * * * * * * * * * * * //

dimensions      [0 1 -1 0 0 0 0];

internalField   nonuniform List<vector> 
500
(
(4.1495e-09 -1.86255e-10 0)
(1.2309e-08 -1.67047e-10 0)
(-6.46935e-10 -1.40889e-10 0)
(-1.21245e-08 -1.69456e-10 0)
(-3.36667e-09 -1.8521e-10 0)
(1.28957e-08 1.97467e-10 0)
(3.75358e-08 5.0835e-10 0)
(-1.9696e-09 7.93951e-10 0)
(-3.69634e-08 4.79251e-10 0)
(-1.04999e-08 2.11027e-10 0)
(2.21539e-08 -1.4349e-09 0)
(6.35397e-08 -5.62922e-10 0)
(-3.33022e-09 2.75001e-10 0)
(-6.25578e-08 -6.497e-10 0)
(-1.80864e-08 -1.39453e-09 0)
(3.19378e-08 -3.9946e-10 0)
(9.03482e-08 1.46745e-09 0)
(-4.73098e-09 3.16481e-09 0)
(-8.89344e-08 1.2899e-09 0)
(-2.61367e-08 -3.16091e-10 0)
(4.22722e-08 -3.75957e-09 0)
(1.18003e-07 -6.62164e-10 0)
(-6.17354e-09 2.20838e-09 0)
(-1.16134e-07 -9.64224e-10 0)
(-3.46721e-08 -3.61768e-09 0)
(5.31691e-08 -2.05708e-09 0)
(1.46533e-07 2.81178e-09 0)
(-7.65999e-09 7.18459e-09 0)
(-1.44183e-07 2.34909e-09 0)
(-4.37013e-08 -1.83843e-09 0)
(6.46584e-08 -7.32027e-09 0)
(1.75986e-07 -4.73971e-10 0)
(-9.19246e-09 5.74203e-09 0)
(-1.73129e-07 -1.13437e-09 0)
(-5.32501e-08 -7.00781e-09 0)
(7.67512e-08 -4.87096e-09 0)
(2.06392e-07 4.61712e-09 0)
(-1.07731e-08 1.30384e-08 0)
(-2.03e-07 3.71864e-09 0)
(-6.33262e-08 -4.44375e-09 0)
(8.9482e-08 -1.22517e-08 0)
(2.37803e-07 5.93902e-11 0)
(-1.24042e-08 1.10597e-08 0)
(-2.33848e-07 -1.11828e-09 0)
(-7.39594e-08 -1.16908e-08 0)
(1.02862e-07 -8.949e-09 0)
(2.70253e-07 6.98128e-09 0)
(-1.40884e-08 2.09592e-08 0)
(-2.65702e-07 5.47931e-09 0)
(-8.51569e-08 -8.23044e-09 0)
(1.1693e-07 -1.88544e-08 0)
(3.03801e-07 8.53331e-10 0)
(-1.58282e-08 1.82175e-08 0)
(-2.98623e-07 -1.01834e-09 0)
(-9.69525e-08 -1.79571e-08 0)
(1.31698e-07 -1.48548e-08 0)
(3.38481e-07 9.56569e-09 0)
(-1.76264e-08 3.07535e-08 0)
(-3.32642e-07 7.27419e-09 0)
(-1.09353e-07 -1.37514e-08 0)
(1.47209e-07 -2.76067e-08 0)
(3.74361e-07 1.66435e-09 0)
(-1.9486e-08 2.71263e-08 0)
(-3.67825e-07 -1.09809e-09 0)
(-1.22397e-07 -2.62739e-08 0)
(1.63476e-07 -1.97316e-08 0)
(4.11477e-07 1.54853e-08 0)
(-2.141e-08 4.5725e-08 0)
(-4.04207e-07 1.2191e-08 0)
(-1.36092e-07 -1.81377e-08 0)
(1.80547e-07 -2.75126e-08 0)
(4.49906e-07 1.38152e-08 0)
(-2.34019e-08 4.93683e-08 0)
(-4.41861e-07 9.92463e-09 0)
(-1.50478e-07 -2.56303e-08 0)
(1.98438e-07 -1.68458e-08 0)
(4.89689e-07 3.18785e-08 0)
(-2.54651e-08 7.32468e-08 0)
(-4.80828e-07 2.7337e-08 0)
(-1.65566e-07 -1.46369e-08 0)
(2.172e-07 -9.72001e-08 0)
(5.30908e-07 -4.13265e-08 0)
(-2.76033e-08 6.07853e-09 0)
(-5.21186e-07 -4.65392e-08 0)
(-1.81401e-07 -9.46466e-08 0)
(2.36846e-07 -2.99401e-07 0)
(5.73598e-07 -2.36074e-07 0)
(-2.98195e-08 -1.83081e-07 0)
(-5.62969e-07 -2.41913e-07 0)
(-1.97989e-07 -2.96502e-07 0)
(2.57417e-07 -4.10454e-07 0)
(6.17823e-07 -3.39705e-07 0)
(-3.20243e-08 -2.80828e-07 0)
(-6.0613e-07 -3.4621e-07 0)
(-2.15351e-07 -4.07199e-07 0)
(2.78912e-07 1.18269e-06 0)
(6.63441e-07 1.27131e-06 0)
(-3.46056e-08 1.34557e-06 0)
(-6.50968e-07 1.26306e-06 0)
(-2.33535e-07 1.18664e-06 0)
(3.01657e-07 6.78403e-06 0)
(7.11418e-07 6.9181e-06 0)
(-3.69587e-08 7.03643e-06 0)
(-6.97739e-07 6.90486e-06 0)
(-2.52761e-07 6.7897e-06 0)
(3.26023e-07 8.11589e-06 0)
(7.61679e-07 8.30675e-06 0)
(-3.96662e-08 8.47888e-06 0)
(-7.47037e-07 8.28744e-06 0)
(-2.73487e-07 8.12396e-06 0)
(3.51925e-07 -2.77274e-05 0)
(8.14591e-07 -2.77169e-05 0)
(-4.27059e-08 -2.77417e-05 0)
(-7.99062e-07 -2.7714e-05 0)
(-2.95481e-07 -2.77249e-05 0)
(3.82982e-07 -0.000217539 0)
(8.77605e-07 -0.0002183 0)
(-4.63059e-08 -0.000219121 0)
(-8.60985e-07 -0.000218207 0)
(-3.21825e-07 -0.000217565 0)
(3.89742e-07 -0.000749821 0)
(8.91661e-07 -0.000749468 0)
(-4.7132e-08 -0.000749147 0)
(-8.74818e-07 -0.000749505 0)
(-3.27535e-07 -0.000749807 0)
(3.82298e-07 -0.0017293 0)
(8.7359e-07 -0.00172881 0)
(-4.62417e-08 -0.00172828 0)
(-8.5733e-07 -0.00172887 0)
(-3.21665e-07 -0.00172929 0)
(3.62277e-07 -0.00101725 0)
(8.30631e-07 -0.00101746 0)
(-4.39504e-08 -0.00101764 0)
(-8.15332e-07 -0.00101744 0)
(-3.0498e-07 -0.00101726 0)
(3.43083e-07 -0.000946872 0)
(7.89061e-07 -0.000946996 0)
(-4.17206e-08 -0.000947133 0)
(-7.74689e-07 -0.000946981 0)
(-2.89013e-07 -0.000946876 0)
(3.2516e-07 -0.00096592 0)
(7.49985e-07 -0.00096597 0)
(-3.96273e-08 -0.000966043 0)
(-7.36484e-07 -0.000965962 0)
(-2.74111e-07 -0.000965921 0)
(3.07977e-07 -0.000985775 0)
(7.12516e-07 -0.000985798 0)
(-3.763e-08 -0.000985843 0)
(-6.99843e-07 -0.000985794 0)
(-2.59796e-07 -0.000985774 0)
(2.91221e-07 -0.000989481 0)
(6.76037e-07 -0.000989496 0)
(-3.5694e-08 -0.000989532 0)
(-6.64158e-07 -0.000989492 0)
(-2.45802e-07 -0.00098948 0)
(2.74881e-07 -0.000988516 0)
(6.40491e-07 -0.000988522 0)
(-3.38136e-08 -0.000988551 0)
(-6.29376e-07 -0.000988519 0)
(-2.32126e-07 -0.000988515 0)
(2.58991e-07 -0.000987734 0)
(6.05927e-07 -0.000987729 0)
(-3.19905e-08 -0.000987749 0)
(-5.95545e-07 -0.000987727 0)
(-2.18802e-07 -0.000987733 0)
(2.43564e-07 -0.00098759 0)
(5.72367e-07 -0.000987573 0)
(-3.02252e-08 -0.000987584 0)
(-5.62687e-07 -0.000987572 0)
(-2.05841e-07 -0.000987587 0)
(2.28597e-07 -0.000987639 0)
(5.39808e-07 -0.000987611 0)
(-2.85174e-08 -0.000987614 0)
(-5.308e-07 -0.000987612 0)
(-1.93245e-07 -0.000987636 0)
(2.14088e-07 -0.000987679 0)
(5.0824e-07 -0.000987641 0)
(-2.68664e-08 -0.000987636 0)
(-4.99875e-07 -0.000987642 0)
(-1.8101e-07 -0.000987676 0)
(2.00034e-07 -0.000987692 0)
(4.77659e-07 -0.000987645 0)
(-2.52714e-08 -0.000987633 0)
(-4.69909e-07 -0.000987647 0)
(-1.69138e-07 -0.000987689 0)
(1.86433e-07 -0.000987697 0)
(4.48059e-07 -0.000987641 0)
(-2.37316e-08 -0.000987622 0)
(-4.40895e-07 -0.000987644 0)
(-1.57629e-07 -0.000987693 0)
(1.73284e-07 -0.000987702 0)
(4.19434e-07 -0.000987638 0)
(-2.22465e-08 -0.000987611 0)
(-4.12829e-07 -0.000987641 0)
(-1.46483e-07 -0.000987698 0)
(1.60585e-07 -0.000987708 0)
(3.91776e-07 -0.000987635 0)
(-2.08153e-08 -0.000987603 0)
(-3.85704e-07 -0.00098764 0)
(-1.357e-07 -0.000987703 0)
(1.48333e-07 -0.000987714 0)
(3.6508e-07 -0.000987634 0)
(-1.94372e-08 -0.000987595 0)
(-3.59514e-07 -0.000987639 0)
(-1.2528e-07 -0.000987709 0)
(1.36526e-07 -0.000987719 0)
(3.39337e-07 -0.000987632 0)
(-1.81115e-08 -0.000987587 0)
(-3.34254e-07 -0.000987638 0)
(-1.15222e-07 -0.000987714 0)
(1.25161e-07 -0.000987724 0)
(3.1454e-07 -0.00098763 0)
(-1.68374e-08 -0.00098758 0)
(-3.09914e-07 -0.000987637 0)
(-1.05525e-07 -0.000987718 0)
(1.14234e-07 -0.000987729 0)
(2.9068e-07 -0.000987629 0)
(-1.56141e-08 -0.000987574 0)
(-2.86488e-07 -0.000987636 0)
(-9.61878e-08 -0.000987723 0)
(1.03743e-07 -0.000987733 0)
(2.67748e-07 -0.000987628 0)
(-1.44409e-08 -0.000987567 0)
(-2.63967e-07 -0.000987635 0)
(-8.72098e-08 -0.000987727 0)
(9.36826e-08 -0.000987737 0)
(2.45734e-07 -0.000987626 0)
(-1.33169e-08 -0.000987562 0)
(-2.42343e-07 -0.000987634 0)
(-7.8589e-08 -0.000987731 0)
(8.40502e-08 -0.000987741 0)
(2.2463e-07 -0.000987625 0)
(-1.22413e-08 -0.000987556 0)
(-2.21606e-07 -0.000987633 0)
(-7.03235e-08 -0.000987734 0)
(7.48413e-08 -0.000987744 0)
(2.04424e-07 -0.000987624 0)
(-1.12132e-08 -0.000987552 0)
(-2.01748e-07 -0.000987633 0)
(-6.24111e-08 -0.000987737 0)
(6.60513e-08 -0.000987747 0)
(1.85105e-07 -0.000987623 0)
(-1.02319e-08 -0.000987547 0)
(-1.82757e-07 -0.000987632 0)
(-5.48495e-08 -0.00098774 0)
(5.76756e-08 -0.00098775 0)
(1.66663e-07 -0.000987622 0)
(-9.29646e-09 -0.000987543 0)
(-1.64623e-07 -0.000987632 0)
(-4.76359e-08 -0.000987743 0)
(4.97092e-08 -0.000987752 0)
(1.49084e-07 -0.000987622 0)
(-8.40599e-09 -0.000987539 0)
(-1.47336e-07 -0.000987631 0)
(-4.07675e-08 -0.000987745 0)
(4.21468e-08 -0.000987755 0)
(1.32358e-07 -0.000987621 0)
(-7.55962e-09 -0.000987536 0)
(-1.30883e-07 -0.000987631 0)
(-3.42408e-08 -0.000987747 0)
(3.49829e-08 -0.000987757 0)
(1.16471e-07 -0.00098762 0)
(-6.75644e-09 -0.000987533 0)
(-1.15252e-07 -0.000987631 0)
(-2.80524e-08 -0.000987749 0)
(2.82116e-08 -0.000987758 0)
(1.0141e-07 -0.00098762 0)
(-5.99556e-09 -0.00098753 0)
(-1.00431e-07 -0.00098763 0)
(-2.21985e-08 -0.000987751 0)
(2.18268e-08 -0.00098776 0)
(8.71605e-08 -0.000987619 0)
(-5.27605e-09 -0.000987528 0)
(-8.64071e-08 -0.00098763 0)
(-1.66748e-08 -0.000987752 0)
(1.58222e-08 -0.000987761 0)
(7.37089e-08 -0.000987619 0)
(-4.59698e-09 -0.000987526 0)
(-7.31659e-08 -0.00098763 0)
(-1.1477e-08 -0.000987753 0)
(1.01911e-08 -0.000987762 0)
(6.104e-08 -0.000987619 0)
(-3.95741e-09 -0.000987524 0)
(-6.06937e-08 -0.00098763 0)
(-6.60025e-09 -0.000987754 0)
(4.9265e-09 -0.000987763 0)
(4.91385e-08 -0.000987619 0)
(-3.35639e-09 -0.000987523 0)
(-4.89757e-08 -0.00098763 0)
(-2.03956e-09 -0.000987755 0)
(2.12348e-11 -0.000987763 0)
(3.79887e-08 -0.000987619 0)
(-2.79294e-09 -0.000987522 0)
(-3.79968e-08 -0.00098763 0)
(2.21044e-09 -0.000987756 0)
(-4.53225e-09 -0.000987764 0)
(2.75741e-08 -0.000987619 0)
(-2.26611e-09 -0.000987521 0)
(-2.77414e-08 -0.00098763 0)
(6.15542e-09 -0.000987756 0)
(-8.74176e-09 -0.000987764 0)
(1.7878e-08 -0.000987619 0)
(-1.7749e-09 -0.00098752 0)
(-1.81931e-08 -0.00098763 0)
(9.80136e-09 -0.000987756 0)
(-1.26154e-08 -0.000987764 0)
(8.88285e-09 -0.000987619 0)
(-1.31832e-09 -0.00098752 0)
(-9.33535e-09 -0.000987631 0)
(1.31545e-08 -0.000987756 0)
(-1.61615e-08 -0.000987764 0)
(5.70964e-10 -0.000987619 0)
(-8.95367e-10 -0.00098752 0)
(-1.15081e-09 -0.000987631 0)
(1.62216e-08 -0.000987756 0)
(-1.93889e-08 -0.000987764 0)
(-7.07606e-09 -0.000987619 0)
(-5.05018e-10 -0.00098752 0)
(6.37823e-09 -0.000987631 0)
(1.90094e-08 -0.000987756 0)
(-2.23063e-08 -0.000987763 0)
(-1.4077e-08 -0.00098762 0)
(-1.46249e-10 -0.00098752 0)
(1.32701e-08 -0.000987631 0)
(2.15253e-08 -0.000987755 0)
(-2.49232e-08 -0.000987763 0)
(-2.04513e-08 -0.00098762 0)
(1.81975e-10 -0.000987521 0)
(1.95435e-08 -0.000987632 0)
(2.37767e-08 -0.000987755 0)
(-2.7249e-08 -0.000987762 0)
(-2.62188e-08 -0.00098762 0)
(4.80701e-10 -0.000987521 0)
(2.52177e-08 -0.000987632 0)
(2.57716e-08 -0.000987754 0)
(-2.92935e-08 -0.000987761 0)
(-3.13996e-08 -0.000987621 0)
(7.50988e-10 -0.000987522 0)
(3.03127e-08 -0.000987632 0)
(2.75181e-08 -0.000987753 0)
(-3.10668e-08 -0.00098776 0)
(-3.60147e-08 -0.000987621 0)
(9.93901e-10 -0.000987523 0)
(3.48487e-08 -0.000987633 0)
(2.90247e-08 -0.000987753 0)
(-3.25794e-08 -0.000987759 0)
(-4.00853e-08 -0.000987622 0)
(1.21052e-09 -0.000987524 0)
(3.88465e-08 -0.000987633 0)
(3.03002e-08 -0.000987752 0)
(-3.38418e-08 -0.000987758 0)
(-4.36332e-08 -0.000987622 0)
(1.40193e-09 -0.000987525 0)
(4.23273e-08 -0.000987634 0)
(3.13537e-08 -0.000987751 0)
(-3.4865e-08 -0.000987757 0)
(-4.66804e-08 -0.000987623 0)
(1.56923e-09 -0.000987527 0)
(4.53132e-08 -0.000987634 0)
(3.21947e-08 -0.000987749 0)
(-3.56602e-08 -0.000987756 0)
(-4.92498e-08 -0.000987623 0)
(1.71354e-09 -0.000987528 0)
(4.78262e-08 -0.000987635 0)
(3.28329e-08 -0.000987748 0)
(-3.6239e-08 -0.000987754 0)
(-5.13644e-08 -0.000987624 0)
(1.83596e-09 -0.00098753 0)
(4.98891e-08 -0.000987635 0)
(3.32783e-08 -0.000987747 0)
(-3.66129e-08 -0.000987753 0)
(-5.30477e-08 -0.000987625 0)
(1.93763e-09 -0.000987531 0)
(5.15253e-08 -0.000987635 0)
(3.35412e-08 -0.000987746 0)
(-3.67941e-08 -0.000987751 0)
(-5.43237e-08 -0.000987625 0)
(2.01968e-09 -0.000987533 0)
(5.27582e-08 -0.000987636 0)
(3.36321e-08 -0.000987744 0)
(-3.67948e-08 -0.00098775 0)
(-5.52169e-08 -0.000987626 0)
(2.08328e-09 -0.000987535 0)
(5.36122e-08 -0.000987636 0)
(3.35621e-08 -0.000987743 0)
(-3.66275e-08 -0.000987748 0)
(-5.57521e-08 -0.000987626 0)
(2.12958e-09 -0.000987537 0)
(5.41118e-08 -0.000987637 0)
(3.33423e-08 -0.000987741 0)
(-3.6305e-08 -0.000987747 0)
(-5.59545e-08 -0.000987627 0)
(2.15975e-09 -0.000987538 0)
(5.42818e-08 -0.000987637 0)
(3.29841e-08 -0.00098774 0)
(-3.58403e-08 -0.000987745 0)
(-5.58497e-08 -0.000987628 0)
(2.17498e-09 -0.00098754 0)
(5.41479e-08 -0.000987638 0)
(3.24992e-08 -0.000987739 0)
(-3.52467e-08 -0.000987744 0)
(-5.54638e-08 -0.000987628 0)
(2.17646e-09 -0.000987542 0)
(5.37358e-08 -0.000987638 0)
(3.18997e-08 -0.000987737 0)
(-3.45378e-08 -0.000987742 0)
(-5.48231e-08 -0.000987629 0)
(2.1654e-09 -0.000987544 0)
(5.30717e-08 -0.000987639 0)
(3.11977e-08 -0.000987736 0)
(-3.37272e-08 -0.000987741 0)
(-5.39544e-08 -0.000987629 0)
(2.14301e-09 -0.000987546 0)
(5.21822e-08 -0.000987639 0)
(3.04059e-08 -0.000987734 0)
(-3.2829e-08 -0.000987739 0)
(-5.28849e-08 -0.00098763 0)
(2.11052e-09 -0.000987547 0)
(5.10943e-08 -0.00098764 0)
(2.95368e-08 -0.000987733 0)
(-3.18574e-08 -0.000987738 0)
(-5.1642e-08 -0.000987631 0)
(2.06918e-09 -0.000987549 0)
(4.98355e-08 -0.00098764 0)
(2.86036e-08 -0.000987732 0)
(-3.08268e-08 -0.000987737 0)
(-5.02535e-08 -0.000987631 0)
(2.02025e-09 -0.000987551 0)
(4.84333e-08 -0.000987641 0)
(2.76195e-08 -0.00098773 0)
(-2.97521e-08 -0.000987735 0)
(-4.87477e-08 -0.000987632 0)
(1.96498e-09 -0.000987553 0)
(4.69158e-08 -0.000987641 0)
(2.6598e-08 -0.000987729 0)
(-2.86482e-08 -0.000987734 0)
(-4.71529e-08 -0.000987632 0)
(1.90467e-09 -0.000987554 0)
(4.53115e-08 -0.000987642 0)
(2.55527e-08 -0.000987728 0)
(-2.75302e-08 -0.000987732 0)
(-4.54981e-08 -0.000987633 0)
(1.84061e-09 -0.000987556 0)
(4.36491e-08 -0.000987642 0)
(2.44976e-08 -0.000987726 0)
(-2.64136e-08 -0.000987731 0)
(-4.38125e-08 -0.000987633 0)
(1.77412e-09 -0.000987558 0)
(4.19576e-08 -0.000987643 0)
(2.34469e-08 -0.000987725 0)
(-2.53141e-08 -0.00098773 0)
(-4.21255e-08 -0.000987634 0)
(1.70653e-09 -0.000987559 0)
(4.02664e-08 -0.000987643 0)
(2.2415e-08 -0.000987724 0)
(-2.42477e-08 -0.000987729 0)
(-4.04671e-08 -0.000987634 0)
(1.6392e-09 -0.000987561 0)
(3.86053e-08 -0.000987643 0)
(2.14165e-08 -0.000987723 0)
(-2.32308e-08 -0.000987727 0)
(-3.88674e-08 -0.000987635 0)
(1.5735e-09 -0.000987562 0)
(3.70044e-08 -0.000987644 0)
(2.04664e-08 -0.000987722 0)
(-2.22798e-08 -0.000987726 0)
(-3.73572e-08 -0.000987635 0)
(1.51083e-09 -0.000987564 0)
(3.5494e-08 -0.000987644 0)
(1.95797e-08 -0.000987721 0)
(-2.14116e-08 -0.000987725 0)
(-3.59672e-08 -0.000987636 0)
(1.45262e-09 -0.000987565 0)
(3.41051e-08 -0.000987644 0)
(1.8772e-08 -0.00098772 0)
(-2.06436e-08 -0.000987724 0)
(-3.4729e-08 -0.000987636 0)
(1.40032e-09 -0.000987566 0)
(3.28685e-08 -0.000987645 0)
(1.80587e-08 -0.000987719 0)
(-1.99932e-08 -0.000987723 0)
(-3.36744e-08 -0.000987637 0)
(1.35541e-09 -0.000987568 0)
(3.18161e-08 -0.000987645 0)
(1.74558e-08 -0.000987718 0)
(-1.94791e-08 -0.000987722 0)
(-3.28366e-08 -0.000987637 0)
(1.31946e-09 -0.000987569 0)
(3.09804e-08 -0.000987645 0)
(1.69801e-08 -0.000987717 0)
(-1.91214e-08 -0.000987721 0)
(-3.22511e-08 -0.000987638 0)
(1.29416e-09 -0.00098757 0)
(3.03967e-08 -0.000987646 0)
(1.66496e-08 -0.000987716 0)
(-1.89398e-08 -0.00098772 0)
(-3.19524e-08 -0.000987638 0)
(1.28117e-09 -0.000987572 0)
(3.00988e-08 -0.000987646 0)
(1.64818e-08 -0.000987715 0)
)
;

boundaryField
{
    BotWall
    {
        type            fixedValue;
        value           uniform (0 0 0);
    }
    FreeStream
    {
        type            zeroGradient;
    }
    FrontNBack
    {
        type            empty;
    }
    LeftSide
    {
        type            symmetryPlane;
    }
    RightSide
    {
        type            symmetryPlane;
    }
}


// ************************************************************************* //
