/*--------------------------------*- C++ -*----------------------------------*\
| =========                 |                                                 |
| \\      /  F ield         | OpenFOAM: The Open Source CFD Toolbox           |
|  \\    /   O peration     | Version:  2.4.0                                 |
|   \\  /    A nd           | Web:      www.OpenFOAM.org                      |
|    \\/     M anipulation  |                                                 |
\*---------------------------------------------------------------------------*/
FoamFile
{
    version     2.0;
    format      ascii;
    class       volScalarField;
    location    "1.4";
    object      H;
}
// * * * * * * * * * * * * * * * * * * * * * * * * * * * * * * * * * * * * * //

dimensions      [0 2 -2 0 0 0 0];

internalField   nonuniform List<scalar> 
125
(
-19.5795
-19.579
-19.5786
-19.5789
-19.5796
-19.4066
-19.4061
-19.4057
-19.4059
-19.4066
-19.2209
-19.2204
-19.22
-19.2203
-19.2209
-19.0224
-19.0219
-19.0216
-19.0218
-19.0225
-18.8112
-18.8108
-18.8104
-18.8106
-18.8113
-18.5873
-18.5868
-18.5865
-18.5867
-18.5873
-18.3507
-18.3502
-18.3499
-18.3501
-18.3507
-18.1014
-18.101
-18.1007
-18.1009
-18.1015
-17.8397
-17.8393
-17.839
-17.8391
-17.8397
-17.5655
-17.5651
-17.5648
-17.565
-17.5655
-17.279
-17.2786
-17.2784
-17.2785
-17.2791
-16.9804
-16.98
-16.9798
-16.9799
-16.9804
-16.6699
-16.6695
-16.6692
-16.6694
-16.6699
-16.3475
-16.3472
-16.3469
-16.3471
-16.3476
-16.0137
-16.0133
-16.0131
-16.0132
-16.0137
-15.6685
-15.6682
-15.6679
-15.6681
-15.6685
-15.3123
-15.312
-15.3117
-15.3119
-15.3123
-14.9453
-14.945
-14.9448
-14.9449
-14.9453
-14.5679
-14.5676
-14.5674
-14.5675
-14.5679
-14.1804
-14.1801
-14.1799
-14.18
-14.1804
-13.7831
-13.7829
-13.7827
-13.7828
-13.7831
-13.3765
-13.3762
-13.3761
-13.3762
-13.3765
-12.9609
-12.9606
-12.9605
-12.9606
-12.9609
-12.5367
-12.5365
-12.5363
-12.5364
-12.5367
-12.1044
-12.1042
-12.104
-12.1041
-12.1044
)
;

boundaryField
{
    BotWall
    {
        type            zeroGradient;
    }
    FreeStream
    {
        type            zeroGradient;
    }
    FrontNBack
    {
        type            empty;
    }
    LeftSide
    {
        type            symmetryPlane;
    }
    RightSide
    {
        type            symmetryPlane;
    }
    procBoundary2to1
    {
        type            processor;
        value           nonuniform List<scalar> 5(-19.7382 -19.7376 -19.7373 -19.7375 -19.7382);
    }
    procBoundary2to3
    {
        type            processor;
        value           nonuniform List<scalar> 5(-11.6636 -11.6634 -11.6633 -11.6634 -11.6636);
    }
}


// ************************************************************************* //
