/*--------------------------------*- C++ -*----------------------------------*\
| =========                 |                                                 |
| \\      /  F ield         | OpenFOAM: The Open Source CFD Toolbox           |
|  \\    /   O peration     | Version:  2.4.0                                 |
|   \\  /    A nd           | Web:      www.OpenFOAM.org                      |
|    \\/     M anipulation  |                                                 |
\*---------------------------------------------------------------------------*/
FoamFile
{
    version     2.0;
    format      ascii;
    class       volVectorField;
    location    "1.4";
    object      U;
}
// * * * * * * * * * * * * * * * * * * * * * * * * * * * * * * * * * * * * * //

dimensions      [0 1 -1 0 0 0 0];

internalField   nonuniform List<vector> 
125
(
(-9.40429e-10 -0.00182155 0)
(-1.64301e-09 -0.00182155 0)
(-9.42088e-10 -0.00182155 0)
(-1.63989e-09 -0.00182155 0)
(-1.15814e-09 -0.00182155 0)
(-1.01961e-09 -0.00182155 0)
(-1.76891e-09 -0.00182155 0)
(-9.6467e-10 -0.00182155 0)
(-1.48117e-09 -0.00182155 0)
(-1.02614e-09 -0.00182155 0)
(-1.09192e-09 -0.00182155 0)
(-1.88397e-09 -0.00182155 0)
(-9.84819e-10 -0.00182155 0)
(-1.33027e-09 -0.00182155 0)
(-9.00728e-10 -0.00182155 0)
(-1.15749e-09 -0.00182155 0)
(-1.98839e-09 -0.00182155 0)
(-1.00259e-09 -0.00182155 0)
(-1.18709e-09 -0.00182155 0)
(-7.81804e-10 -0.00182155 0)
(-1.21647e-09 -0.00182155 0)
(-2.08239e-09 -0.00182155 0)
(-1.01806e-09 -0.00182155 0)
(-1.05162e-09 -0.00182155 0)
(-6.69326e-10 -0.00182155 0)
(-1.26901e-09 -0.00182155 0)
(-2.16618e-09 -0.00182155 0)
(-1.0313e-09 -0.00182155 0)
(-9.23785e-10 -0.00182155 0)
(-5.63223e-10 -0.00182155 0)
(-1.31528e-09 -0.00182155 0)
(-2.24001e-09 -0.00182155 0)
(-1.04238e-09 -0.00182155 0)
(-8.0353e-10 -0.00182155 0)
(-4.63418e-10 -0.00182155 0)
(-1.35542e-09 -0.00182155 0)
(-2.30412e-09 -0.00182155 0)
(-1.05138e-09 -0.00182155 0)
(-6.90771e-10 -0.00182155 0)
(-3.69824e-10 -0.00182155 0)
(-1.38961e-09 -0.00182155 0)
(-2.35877e-09 -0.00182155 0)
(-1.05838e-09 -0.00182155 0)
(-5.85419e-10 -0.00182155 0)
(-2.82346e-10 -0.00182155 0)
(-1.41802e-09 -0.00182155 0)
(-2.40422e-09 -0.00182155 0)
(-1.06346e-09 -0.00182155 0)
(-4.87372e-10 -0.00182155 0)
(-2.00879e-10 -0.00182155 0)
(-1.44084e-09 -0.00182155 0)
(-2.44077e-09 -0.00182155 0)
(-1.0667e-09 -0.00182155 0)
(-3.96521e-10 -0.00182155 0)
(-1.25314e-10 -0.00182155 0)
(-1.45825e-09 -0.00182155 0)
(-2.46869e-09 -0.00182155 0)
(-1.06819e-09 -0.00182155 0)
(-3.12742e-10 -0.00182155 0)
(-5.55323e-11 -0.00182155 0)
(-1.47045e-09 -0.00182155 0)
(-2.4883e-09 -0.00182155 0)
(-1.06802e-09 -0.00182155 0)
(-2.35904e-10 -0.00182155 0)
(8.59263e-12 -0.00182155 0)
(-1.47762e-09 -0.00182155 0)
(-2.49989e-09 -0.00182155 0)
(-1.06627e-09 -0.00182155 0)
(-1.65866e-10 -0.00182155 0)
(6.71929e-11 -0.00182155 0)
(-1.47998e-09 -0.00182155 0)
(-2.50379e-09 -0.00182155 0)
(-1.06304e-09 -0.00182155 0)
(-1.02474e-10 -0.00182155 0)
(1.20408e-10 -0.00182155 0)
(-1.47772e-09 -0.00182155 0)
(-2.50033e-09 -0.00182155 0)
(-1.0584e-09 -0.00182155 0)
(-4.55659e-11 -0.00182155 0)
(1.68382e-10 -0.00182155 0)
(-1.47108e-09 -0.00182155 0)
(-2.48985e-09 -0.00182155 0)
(-1.05246e-09 -0.00182155 0)
(5.0301e-12 -0.00182155 0)
(2.11269e-10 -0.00182155 0)
(-1.46025e-09 -0.00182155 0)
(-2.47271e-09 -0.00182155 0)
(-1.04531e-09 -0.00182155 0)
(4.94962e-11 -0.00182155 0)
(2.49224e-10 -0.00182155 0)
(-1.44548e-09 -0.00182155 0)
(-2.44926e-09 -0.00182155 0)
(-1.03703e-09 -0.00182155 0)
(8.8024e-11 -0.00182155 0)
(2.82412e-10 -0.00182155 0)
(-1.42698e-09 -0.00182155 0)
(-2.41987e-09 -0.00182155 0)
(-1.02771e-09 -0.00182155 0)
(1.20814e-10 -0.00182155 0)
(3.11e-10 -0.00182155 0)
(-1.40499e-09 -0.00182155 0)
(-2.38492e-09 -0.00182155 0)
(-1.01746e-09 -0.00182155 0)
(1.48075e-10 -0.00182155 0)
(3.3516e-10 -0.00182155 0)
(-1.37976e-09 -0.00182155 0)
(-2.34479e-09 -0.00182155 0)
(-1.00635e-09 -0.00182155 0)
(1.70009e-10 -0.00182155 0)
(3.55054e-10 -0.00182155 0)
(-1.35151e-09 -0.00182155 0)
(-2.29989e-09 -0.00182155 0)
(-9.94491e-10 -0.00182155 0)
(1.86912e-10 -0.00182155 0)
(3.70931e-10 -0.00182155 0)
(-1.32051e-09 -0.00182155 0)
(-2.25062e-09 -0.00182155 0)
(-9.81966e-10 -0.00182155 0)
(1.98991e-10 -0.00182155 0)
(3.82951e-10 -0.00182155 0)
(-1.287e-09 -0.00182155 0)
(-2.19739e-09 -0.00182155 0)
(-9.68873e-10 -0.00182155 0)
(2.06477e-10 -0.00182155 0)
(3.91296e-10 -0.00182155 0)
)
;

boundaryField
{
    BotWall
    {
        type            fixedValue;
        value           nonuniform 0();
    }
    FreeStream
    {
        type            zeroGradient;
    }
    FrontNBack
    {
        type            empty;
    }
    LeftSide
    {
        type            symmetryPlane;
    }
    RightSide
    {
        type            symmetryPlane;
    }
    procBoundary2to1
    {
        type            processor;
        value           nonuniform List<vector> 5((-8.5424e-10 -0.00182155 0) (-1.50607e-09 -0.00182155 0) (-9.17017e-10 -0.00182155 0) (-1.80634e-09 -0.00182155 0) (-1.29666e-09 -0.00182155 0));
    }
    procBoundary2to3
    {
        type            processor;
        value           nonuniform List<vector> 5((-1.25124e-09 -0.00182155 0) (-2.14063e-09 -0.00182155 0) (-9.55302e-10 -0.00182155 0) (2.09569e-10 -0.00182155 0) (3.96108e-10 -0.00182155 0));
    }
}


// ************************************************************************* //
