/*--------------------------------*- C++ -*----------------------------------*\
| =========                 |                                                 |
| \\      /  F ield         | OpenFOAM: The Open Source CFD Toolbox           |
|  \\    /   O peration     | Version:  2.4.0                                 |
|   \\  /    A nd           | Web:      www.OpenFOAM.org                      |
|    \\/     M anipulation  |                                                 |
\*---------------------------------------------------------------------------*/
FoamFile
{
    version     2.0;
    format      ascii;
    class       volScalarField;
    location    "2";
    object      alpha1;
}
// * * * * * * * * * * * * * * * * * * * * * * * * * * * * * * * * * * * * * //

dimensions      [0 0 0 0 0 0 0];

internalField   nonuniform List<scalar> 
8000
(
1
1
1
1
1
1
1
1
1
1
1
1
1
1
1
1
1
1
1
1
0.999999
0.999998
0.999997
0.999993
0.99999
0.999996
0.869601
0.00899845
5.28007e-08
4.16236e-08
2.14106e-08
9.41579e-09
3.80333e-09
1.42934e-09
5.00523e-10
1.62986e-10
4.91787e-11
1.36909e-11
3.5004e-12
8.1872e-13
1.75245e-13
3.49744e-14
7.08965e-15
1.84625e-15
7.62391e-16
4.27466e-16
2.6257e-16
1.63532e-16
1.01572e-16
6.27458e-17
1
1
1
1
1
1
1
1
1
1
1
1
1
1
1
1
1
1
1
1
0.999999
0.999998
0.999996
0.999993
0.999989
0.999984
0.748374
0.00113882
3.95067e-08
3.66576e-08
1.81425e-08
7.84098e-09
3.12313e-09
1.15823e-09
4.00228e-10
1.28569e-10
3.82588e-11
1.05028e-11
2.64961e-12
6.13475e-13
1.31607e-13
2.74937e-14
6.57532e-15
2.31476e-15
1.19575e-15
7.25187e-16
4.55761e-16
2.86982e-16
1.7987e-16
1.12101e-16
1
1
1
1
1
1
1
1
1
1
1
1
1
1
1
1
1
1
1
1
0.999999
0.999998
0.999996
0.999993
0.999988
0.999986
0.675838
0.000254936
3.89147e-08
3.24998e-08
1.55863e-08
6.62953e-09
2.60573e-09
9.54124e-10
3.25529e-10
1.03235e-10
3.03255e-11
8.22177e-12
2.05287e-12
4.74112e-13
1.04198e-13
2.41578e-14
7.38459e-15
3.38872e-15
1.98372e-15
1.24945e-15
7.96193e-16
5.06009e-16
3.19889e-16
2.01083e-16
1
1
1
1
1
1
1
1
1
1
1
1
1
1
1
1
1
1
1
1
0.999999
0.999998
0.999996
0.999992
0.999984
0.99996
0.510875
1.5215e-05
4.09085e-08
2.78608e-08
1.29584e-08
5.41742e-09
2.0985e-09
7.57767e-10
2.5498e-10
7.97502e-11
2.31123e-11
6.19158e-12
1.53591e-12
3.58865e-13
8.43687e-14
2.36924e-14
9.61949e-15
5.31916e-15
3.32654e-15
2.13968e-15
1.37795e-15
8.83388e-16
5.63217e-16
3.57065e-16
1
1
1
1
1
1
1
1
1
1
1
1
1
1
1
1
1
1
1
1
0.999999
0.999998
0.999996
0.999991
0.99998
0.999945
0.381586
2.40232e-06
4.05305e-08
2.41618e-08
1.09599e-08
4.50913e-09
1.72228e-09
6.1351e-10
2.03671e-10
6.28641e-11
1.7998e-11
4.78065e-12
1.18981e-12
2.89183e-13
7.7478e-14
2.78776e-14
1.41629e-14
8.65841e-15
5.59397e-15
3.6459e-15
2.3695e-15
1.53203e-15
9.85067e-16
6.2985e-16
1
1
1
1
1
1
1
1
1
1
1
1
1
1
1
1
1
1
1
1
0.999999
0.999998
0.999995
0.999989
0.999975
0.999887
0.219612
2.79849e-07
3.73261e-08
2.04337e-08
9.05005e-09
3.6614e-09
1.37755e-09
4.83581e-10
1.58251e-10
4.81873e-11
1.36463e-11
3.61511e-12
9.2003e-13
2.4451e-13
8.04851e-14
3.71465e-14
2.18398e-14
1.40781e-14
9.26887e-15
6.10453e-15
4.00254e-15
2.61024e-15
1.69289e-15
1.09187e-15
1
1
1
1
1
1
1
1
1
1
1
1
1
1
1
1
1
1
1
1
0.999999
0.999998
0.999994
0.999988
0.999978
0.999347
0.0738469
5.98207e-08
3.20384e-08
1.65062e-08
7.17038e-09
2.86162e-09
1.0637e-09
3.69141e-10
1.19509e-10
3.60726e-11
1.01863e-11
2.73782e-12
7.41228e-13
2.31032e-13
9.68628e-14
5.3814e-14
3.42807e-14
2.27346e-14
1.51672e-14
1.00871e-14
6.67435e-15
4.39222e-15
2.87457e-15
1.871e-15
1
1
1
1
1
1
1
1
1
1
1
1
1
1
1
1
1
1
1
1
0.999999
0.999997
0.999993
0.999988
0.99999
0.917702
0.00675933
2.67302e-08
2.50592e-08
1.22283e-08
5.20688e-09
2.04918e-09
7.52722e-10
2.5849e-10
8.29889e-11
2.49717e-11
7.13072e-12
2.01332e-12
6.22938e-13
2.45729e-13
1.29244e-13
8.08629e-14
5.38382e-14
3.63404e-14
2.45057e-14
1.64494e-14
1.09829e-14
7.29313e-15
4.8166e-15
3.16371e-15
1
1
1
1
1
1
1
1
1
1
1
1
1
1
1
1
1
1
1
0.999999
0.999999
0.999996
0.999993
0.999987
0.99999
0.740629
0.000545044
2.37641e-08
2.07073e-08
9.72528e-09
4.06667e-09
1.57805e-09
5.72571e-10
1.94591e-10
6.20819e-11
1.87617e-11
5.53203e-12
1.71908e-12
6.44077e-13
3.17706e-13
1.92685e-13
1.27847e-13
8.70066e-14
5.93732e-14
4.03709e-14
2.73116e-14
1.83784e-14
1.23008e-14
8.18899e-15
5.42239e-15
1
1
1
1
1
1
1
1
1
1
1
1
1
1
1
1
1
1
1
0.999999
0.999998
0.999996
0.999992
0.999986
0.999979
0.597449
4.25165e-05
2.44835e-08
1.7508e-08
7.97613e-09
3.27884e-09
1.25474e-09
4.49876e-10
1.51587e-10
4.83355e-11
1.49007e-11
4.7021e-12
1.69932e-12
7.854e-13
4.56422e-13
2.99351e-13
2.04637e-13
1.41079e-13
9.70785e-14
6.64958e-14
4.53126e-14
3.07155e-14
2.07114e-14
1.38923e-14
9.26932e-15
1
1
1
1
1
1
1
1
1
1
1
1
1
1
1
1
1
1
1
0.999999
0.999998
0.999996
0.999991
0.999981
0.999949
0.460645
5.06239e-06
2.40773e-08
1.48875e-08
6.61604e-09
2.67937e-09
1.01317e-09
3.60041e-10
1.2099e-10
3.90617e-11
1.26349e-11
4.47759e-12
1.94967e-12
1.0753e-12
6.90638e-13
4.72089e-13
3.28241e-13
2.28438e-13
1.58382e-13
1.0927e-13
7.49992e-14
5.1211e-14
3.47875e-14
2.35091e-14
1.5805e-14
1
1
1
1
1
1
1
1
1
1
1
1
1
1
1
1
1
1
1
0.999999
0.999998
0.999995
0.999989
0.999974
0.9999
0.326677
6.87435e-07
2.25739e-08
1.26642e-08
5.51221e-09
2.20373e-09
8.25536e-10
2.92115e-10
9.8865e-11
3.30088e-11
1.16491e-11
4.83278e-12
2.51619e-12
1.56659e-12
1.06427e-12
7.44397e-13
5.2346e-13
3.67218e-13
2.56445e-13
1.78189e-13
1.23184e-13
8.47256e-14
5.79787e-14
3.94739e-14
2.67382e-14
1
1
1
1
1
1
1
1
1
1
1
1
1
1
1
1
1
1
1
0.999999
0.999998
0.999995
0.999988
0.999966
0.999819
0.204627
1.1382e-07
2.05283e-08
1.07497e-08
4.59827e-09
1.81908e-09
6.77562e-10
2.40501e-10
8.32773e-11
2.96449e-11
1.18878e-11
5.8447e-12
3.49424e-12
2.34164e-12
1.64177e-12
1.16495e-12
8.26509e-13
5.84135e-13
4.1085e-13
2.87525e-13
2.0021e-13
1.38715e-13
9.56286e-14
6.55956e-14
4.47685e-14
1
1
1
1
1
1
1
1
1
1
1
1
1
1
1
1
1
1
1
0.999999
0.999998
0.999994
0.999987
0.999972
0.999407
0.0859792
2.88135e-08
1.77774e-08
8.84064e-09
3.73264e-09
1.4681e-09
5.47888e-10
1.97883e-10
7.20063e-11
2.84559e-11
1.33495e-11
7.63442e-12
5.01269e-12
3.50924e-12
2.50895e-12
1.79971e-12
1.28743e-12
9.16831e-13
6.49703e-13
4.58117e-13
3.21428e-13
2.24411e-13
1.55904e-13
1.07774e-13
7.4132e-14
1
1
1
1
1
1
1
1
1
1
1
1
1
1
1
1
1
1
1
0.999999
0.999997
0.999993
0.999987
0.999995
0.963177
0.0137
1.6254e-08
1.4196e-08
6.75373e-09
2.82404e-09
1.1115e-09
4.21149e-10
1.58853e-10
6.34391e-11
2.9142e-11
1.61277e-11
1.03787e-11
7.23983e-12
5.20849e-12
3.77553e-12
2.73358e-12
1.97128e-12
1.41477e-12
1.01037e-12
7.18004e-13
5.07744e-13
3.57305e-13
2.5021e-13
1.74355e-13
1.20896e-13
1
1
1
1
1
1
1
1
1
1
1
1
1
1
1
1
1
1
1
0.999999
0.999997
0.999993
0.999988
0.999995
0.826688
0.00165127
1.3982e-08
1.17965e-08
5.44812e-09
2.26828e-09
9.01e-10
3.52441e-10
1.42866e-10
6.4634e-11
3.45983e-11
2.16887e-11
1.49848e-11
1.08053e-11
7.89648e-12
5.7775e-12
4.21382e-12
3.05957e-12
2.21077e-12
1.58967e-12
1.13754e-12
8.101e-13
5.74146e-13
4.0496e-13
2.84247e-13
1.98544e-13
1
1
1
1
1
1
1
1
1
1
1
1
1
1
1
1
1
1
0.999999
0.999999
0.999996
0.999992
0.999988
0.99999
0.69866
0.00017356
1.31045e-08
1.0035e-08
4.54291e-09
1.89666e-09
7.70502e-10
3.18599e-10
1.43098e-10
7.4387e-11
4.52838e-11
3.08268e-11
2.21941e-11
1.63141e-11
1.20453e-11
8.87695e-12
6.51571e-12
4.76032e-12
3.46122e-12
2.50465e-12
1.80388e-12
1.29307e-12
9.22555e-13
6.55102e-13
4.62972e-13
3.2562e-13
1
1
1
1
1
1
1
1
1
1
1
1
1
1
1
1
1
1
0.999999
0.999998
0.999996
0.999992
0.999987
0.999984
0.592209
1.86038e-05
1.35317e-08
8.75215e-09
3.92927e-09
1.66614e-09
7.06483e-10
3.1739e-10
1.61001e-10
9.49842e-11
6.33718e-11
4.5357e-11
3.34505e-11
2.48907e-11
1.85214e-11
1.37366e-11
1.01432e-11
7.45476e-12
5.45304e-12
3.97014e-12
2.87711e-12
2.07541e-12
1.49019e-12
1.06503e-12
7.57601e-13
5.36364e-13
1
1
1
1
1
1
1
1
1
1
1
1
1
1
1
1
1
1
0.999999
0.999998
0.999996
0.999991
0.999985
0.999984
0.497464
2.60853e-06
1.35762e-08
7.82839e-09
3.52984e-09
1.54589e-09
7.00475e-10
3.49246e-10
1.99823e-10
1.30081e-10
9.21146e-11
6.79459e-11
5.08668e-11
3.81828e-11
2.85983e-11
2.13346e-11
1.58437e-11
1.17111e-11
8.61608e-12
6.30986e-12
4.5999e-12
3.33815e-12
2.41151e-12
1.73413e-12
1.24126e-12
8.84314e-13
1
1
1
1
1
1
1
1
1
1
1
1
1
1
1
1
1
1
0.999999
0.999998
0.999996
0.999991
0.999983
1
0.439671
4.0222e-07
1.4729e-08
7.30159e-09
3.35441e-09
1.54657e-09
7.63717e-10
4.24576e-10
2.68496e-10
1.87018e-10
1.374e-10
1.0325e-10
7.80927e-11
5.90315e-11
4.4475e-11
3.33641e-11
2.4914e-11
1.85176e-11
1.36999e-11
1.00896e-11
7.39728e-12
5.39917e-12
3.92313e-12
2.83773e-12
2.04323e-12
1.46435e-12
3.8537e-17
2.35311e-17
1.42849e-17
8.62149e-18
5.17317e-18
3.08602e-18
1.83022e-18
1.0791e-18
6.32498e-19
3.68538e-19
2.13456e-19
1.2289e-19
7.03193e-20
3.99906e-20
2.26012e-20
1.26928e-20
7.08265e-21
3.9264e-21
2.16221e-21
1.1826e-21
6.42286e-22
3.46318e-22
1.85335e-22
9.84101e-23
5.18274e-23
2.70607e-23
1.40016e-23
7.17582e-24
3.64088e-24
1.828e-24
9.07799e-25
4.45744e-25
2.16338e-25
1.03763e-25
4.91758e-26
2.3027e-26
1.06533e-26
4.86936e-27
2.19865e-27
9.80485e-28
4.31683e-28
1.87533e-28
8.03202e-29
3.38791e-29
1.40535e-29
5.72273e-30
2.28245e-30
8.89055e-31
3.36971e-31
1.23695e-31
6.94625e-17
4.27939e-17
2.62122e-17
1.5963e-17
9.66531e-18
5.81841e-18
3.48238e-18
2.07216e-18
1.22584e-18
7.20924e-19
4.21476e-19
2.44941e-19
1.4149e-19
8.12346e-20
4.63523e-20
2.62834e-20
1.48091e-20
8.29025e-21
4.61041e-21
2.54669e-21
1.397e-21
7.60858e-22
4.11319e-22
2.2064e-22
1.17398e-22
6.19344e-23
3.23818e-23
1.67712e-23
8.60035e-24
4.36473e-24
2.19133e-24
1.08797e-24
5.34029e-25
2.59104e-25
1.24251e-25
5.88867e-26
2.75816e-26
1.27669e-26
5.83937e-27
2.63852e-27
1.17733e-27
5.18465e-28
2.25147e-28
9.63085e-29
4.05231e-29
1.67421e-29
6.77673e-30
2.6799e-30
1.03171e-30
3.84896e-31
1.25681e-16
7.81047e-17
4.82617e-17
2.96514e-17
1.81136e-17
1.10022e-17
6.6445e-18
3.98979e-18
2.38193e-18
1.41378e-18
8.34243e-19
4.89368e-19
2.85355e-19
1.65391e-19
9.52767e-20
5.4547e-20
3.1033e-20
1.75428e-20
9.85234e-21
5.4964e-21
3.04533e-21
1.67537e-21
9.14929e-22
4.95827e-22
2.66551e-22
1.42089e-22
7.50717e-23
3.92942e-23
2.03666e-23
1.04484e-23
5.30345e-24
2.66256e-24
1.32181e-24
6.48776e-25
3.14806e-25
1.51007e-25
7.16063e-26
3.35647e-26
1.55502e-26
7.11879e-27
3.21893e-27
1.43677e-27
6.32517e-28
2.74339e-28
1.17065e-28
4.90605e-29
2.0149e-29
8.08735e-30
3.16153e-30
1.1985e-30
2.25092e-16
1.41097e-16
8.79458e-17
5.45074e-17
3.35922e-17
2.05855e-17
1.25436e-17
7.60003e-18
4.57853e-18
2.74245e-18
1.63319e-18
9.66931e-19
5.69102e-19
3.3296e-19
1.93629e-19
1.11915e-19
6.42846e-20
3.66926e-20
2.08088e-20
1.17233e-20
6.55993e-21
3.64504e-21
2.01068e-21
1.10073e-21
5.97806e-22
3.21962e-22
1.71879e-22
9.09119e-23
4.76213e-23
2.46935e-23
1.26708e-23
6.43179e-24
3.22906e-24
1.60316e-24
7.87054e-25
3.82077e-25
1.83403e-25
8.70463e-26
4.08432e-26
1.89408e-26
8.67762e-27
3.92512e-27
1.7514e-27
7.70053e-28
3.33162e-28
1.41591e-28
5.89837e-29
2.40207e-29
9.53112e-30
3.66915e-30
4.00478e-16
2.53215e-16
1.5921e-16
9.95448e-17
6.18923e-17
3.82668e-17
2.35274e-17
1.43841e-17
8.74453e-18
5.28594e-18
3.17702e-18
1.89849e-18
1.12788e-18
6.66117e-19
3.91062e-19
2.28197e-19
1.32345e-19
7.62758e-20
4.36814e-20
2.48525e-20
1.40452e-20
7.88259e-21
4.39217e-21
2.42897e-21
1.33272e-21
7.25192e-22
3.91183e-22
2.09087e-22
1.10688e-22
5.8014e-23
3.00931e-23
1.5445e-23
7.84164e-24
3.93802e-24
1.95605e-24
9.6096e-25
4.66925e-25
2.24377e-25
1.06618e-25
5.00813e-26
2.32446e-26
1.06534e-26
4.81723e-27
2.1467e-27
9.41473e-28
4.0566e-28
1.71363e-28
7.07849e-29
2.84986e-29
1.11379e-29
7.00346e-16
4.46732e-16
2.83384e-16
1.78771e-16
1.12153e-16
6.99713e-17
4.34128e-17
2.67854e-17
1.64343e-17
1.00268e-17
6.08289e-18
3.66922e-18
2.20054e-18
1.31204e-18
7.77675e-19
4.58192e-19
2.68322e-19
1.56163e-19
9.03149e-20
5.18959e-20
2.96224e-20
1.67928e-20
9.45197e-21
5.2806e-21
2.92717e-21
1.60932e-21
8.77167e-22
4.73783e-22
2.53484e-22
1.34286e-22
7.04169e-23
3.65411e-23
1.87617e-23
9.53037e-24
4.78935e-24
2.38106e-24
1.17106e-24
5.69737e-25
2.74142e-25
1.30422e-25
6.13184e-26
2.84715e-26
1.30445e-26
5.89058e-27
2.61819e-27
1.14345e-27
4.89674e-28
2.05094e-28
8.37494e-29
3.32104e-29
1.21111e-15
7.79654e-16
4.99146e-16
3.17806e-16
2.01235e-16
1.26723e-16
7.93621e-17
4.94277e-17
3.06138e-17
1.88556e-17
1.15483e-17
7.03286e-18
4.25849e-18
2.56368e-18
1.53435e-18
9.12868e-19
5.39849e-19
3.17302e-19
1.85335e-19
1.07562e-19
6.20155e-20
3.55124e-20
2.01922e-20
1.13965e-20
6.38245e-21
3.54536e-21
1.95258e-21
1.06573e-21
5.76242e-22
3.08546e-22
1.63555e-22
8.58097e-23
4.45531e-23
2.28905e-23
1.16375e-23
5.85443e-24
2.91421e-24
1.43525e-24
6.99227e-25
3.3686e-25
1.604e-25
7.54376e-26
3.50115e-26
1.60171e-26
7.21294e-27
3.19196e-27
1.38525e-27
5.88074e-28
2.4346e-28
9.79173e-29
2.0667e-15
1.34271e-15
8.67578e-16
5.57518e-16
3.56315e-16
2.26482e-16
1.43172e-16
9.00114e-17
5.62788e-17
3.49933e-17
2.16371e-17
1.33036e-17
8.13329e-18
4.94387e-18
2.98774e-18
1.79498e-18
1.07196e-18
6.36296e-19
3.75358e-19
2.20025e-19
1.28132e-19
7.41153e-20
4.25698e-20
2.42718e-20
1.37326e-20
7.707e-21
4.28864e-21
2.36526e-21
1.29239e-21
6.99386e-22
3.74739e-22
1.98767e-22
1.04354e-22
5.42247e-23
2.78871e-23
1.41947e-23
7.15063e-24
3.56462e-24
1.75807e-24
8.57546e-25
4.13476e-25
1.96928e-25
9.25627e-26
4.28888e-26
1.95628e-26
8.7693e-27
3.85535e-27
1.65825e-27
6.95684e-28
2.83612e-28
3.57118e-15
2.33933e-15
1.52414e-15
9.87676e-16
6.36592e-16
4.08099e-16
2.6021e-16
1.65018e-16
1.04083e-16
6.529e-17
4.07306e-17
2.52684e-17
1.55881e-17
9.56189e-18
5.83173e-18
3.53608e-18
2.13148e-18
1.27712e-18
7.60531e-19
4.50063e-19
2.64619e-19
1.54546e-19
8.96328e-20
5.16071e-20
2.9487e-20
1.67132e-20
9.39343e-21
5.23298e-21
2.88852e-21
1.5793e-21
8.55077e-22
4.58378e-22
2.43262e-22
1.27802e-22
6.6468e-23
3.42208e-23
1.74401e-23
8.79697e-24
4.39071e-24
2.16763e-24
1.05791e-24
5.10045e-25
2.42696e-25
1.13846e-25
5.25734e-26
2.38608e-26
1.06217e-26
4.62635e-27
1.96573e-27
8.11851e-28
6.15209e-15
4.06158e-15
2.66723e-15
1.74229e-15
1.13208e-15
7.31688e-16
4.70401e-16
3.00812e-16
1.91336e-16
1.21048e-16
7.61652e-17
4.76622e-17
2.96609e-17
1.83553e-17
1.12948e-17
6.91033e-18
4.20328e-18
2.54156e-18
1.52751e-18
9.12368e-19
5.41474e-19
3.19231e-19
1.86911e-19
1.08649e-19
6.26788e-20
3.5872e-20
2.0359e-20
1.1454e-20
6.38563e-21
3.52671e-21
1.9291e-21
1.04494e-21
5.6046e-22
2.97646e-22
1.56514e-22
8.14884e-23
4.20047e-23
2.14335e-23
1.08233e-23
5.40659e-24
2.67011e-24
1.30273e-24
6.27318e-25
2.97804e-25
1.39179e-25
6.39286e-26
2.8802e-26
1.26972e-26
5.46107e-27
2.28342e-27
1.05703e-14
7.03259e-15
4.65447e-15
3.06445e-15
2.00708e-15
1.30769e-15
8.47558e-16
5.46454e-16
3.50465e-16
2.23577e-16
1.41867e-16
8.95332e-17
5.6197e-17
3.50785e-17
2.17741e-17
1.34393e-17
8.24732e-18
5.0316e-18
3.05142e-18
1.83922e-18
1.10158e-18
6.5546e-19
3.87352e-19
2.27275e-19
1.32352e-19
7.64676e-20
4.38149e-20
2.48888e-20
1.40113e-20
7.815e-21
4.31781e-21
2.36279e-21
1.28051e-21
6.87274e-22
3.65308e-22
1.9229e-22
1.00227e-22
5.17211e-23
2.64162e-23
1.33475e-23
6.66805e-24
3.291e-24
1.60314e-24
7.69878e-25
3.63974e-25
1.69118e-25
7.70758e-26
3.43726e-26
1.49562e-26
6.32744e-27
1.80187e-14
1.20803e-14
8.05736e-15
5.34646e-15
3.5294e-15
2.3179e-15
1.51442e-15
9.84345e-16
6.36483e-16
4.094e-16
2.61946e-16
1.66708e-16
1.05525e-16
6.64331e-17
4.15925e-17
2.58949e-17
1.60305e-17
9.86657e-18
6.03697e-18
3.67143e-18
2.21887e-18
1.33231e-18
7.94568e-19
4.7051e-19
2.76543e-19
1.61269e-19
9.32752e-20
5.34881e-20
3.0401e-20
1.71217e-20
9.55337e-21
5.2804e-21
2.89104e-21
1.56787e-21
8.42223e-22
4.48113e-22
2.36125e-22
1.23197e-22
6.36234e-23
3.25077e-23
1.64224e-23
8.19634e-24
4.03748e-24
1.96062e-24
9.3726e-25
4.40333e-25
2.02905e-25
9.14878e-26
4.02489e-26
1.72173e-26
3.03999e-14
2.05382e-14
1.38052e-14
9.23235e-15
6.14287e-15
4.06649e-15
2.67828e-15
1.75497e-15
1.14407e-15
7.41965e-16
4.78681e-16
3.07197e-16
1.96098e-16
1.24505e-16
7.86193e-17
4.93709e-17
3.083e-17
1.91423e-17
1.18161e-17
7.25014e-18
4.42103e-18
2.67855e-18
1.61194e-18
9.63237e-19
5.71339e-19
3.36257e-19
1.96293e-19
1.13619e-19
6.51898e-20
3.70674e-20
2.08842e-20
1.16578e-20
6.44712e-21
3.53233e-21
1.91731e-21
1.03093e-21
5.49056e-22
2.89565e-22
1.51169e-22
7.80812e-23
3.98759e-23
2.01186e-23
1.00178e-23
4.91721e-24
2.37583e-24
1.12806e-24
5.25306e-25
2.39345e-25
1.064e-25
4.59919e-26
5.0736e-14
3.45494e-14
2.34085e-14
1.57803e-14
1.05845e-14
7.06374e-15
4.69038e-15
3.09872e-15
2.03678e-15
1.33192e-15
8.66489e-16
5.60762e-16
3.60994e-16
2.31154e-16
1.47217e-16
9.32469e-17
5.87349e-17
3.67874e-17
2.29079e-17
1.41802e-17
8.72382e-18
5.33269e-18
3.23799e-18
1.95233e-18
1.16849e-18
6.93958e-19
4.08812e-19
2.38813e-19
1.38298e-19
7.93801e-20
4.51523e-20
2.545e-20
1.42141e-20
7.86621e-21
4.31332e-21
2.34326e-21
1.26102e-21
6.72043e-22
3.54547e-22
1.85062e-22
9.55064e-23
4.8691e-23
2.44975e-23
1.21486e-23
5.92973e-24
2.84395e-24
1.33759e-24
6.15476e-25
2.76292e-25
1.20594e-25
8.34116e-14
5.72623e-14
3.91144e-14
2.65846e-14
1.79784e-14
1.20976e-14
8.0998e-15
5.39592e-15
3.57652e-15
2.35854e-15
1.54737e-15
1.00993e-15
6.55711e-16
4.23478e-16
2.72033e-16
1.73801e-16
1.1043e-16
6.97716e-17
4.38301e-17
2.73712e-17
1.69885e-17
1.04771e-17
6.41844e-18
3.90458e-18
2.3579e-18
1.41295e-18
8.39912e-19
4.95122e-19
2.89372e-19
1.67643e-19
9.62596e-20
5.4778e-20
3.08928e-20
1.72658e-20
9.56246e-21
5.24762e-21
2.85285e-21
1.53598e-21
8.18648e-22
4.31683e-22
2.2505e-22
1.15893e-22
5.88908e-23
2.94928e-23
1.45356e-23
7.03822e-24
3.3415e-24
1.55184e-24
7.03011e-25
3.09616e-25
1.38001e-13
9.54466e-14
6.56887e-14
4.49855e-14
3.06555e-14
2.07872e-14
1.4026e-14
9.41696e-15
6.29094e-15
4.18148e-15
2.76525e-15
1.81931e-15
1.19076e-15
7.75286e-16
5.02104e-16
3.23436e-16
2.07209e-16
1.32011e-16
8.3624e-17
5.26621e-17
3.29623e-17
2.05011e-17
1.26663e-17
7.77119e-18
4.73309e-18
2.86068e-18
1.71523e-18
1.01995e-18
6.01366e-19
3.51507e-19
2.03666e-19
1.16968e-19
6.6583e-20
3.75661e-20
2.10055e-20
1.1639e-20
6.38915e-21
3.47352e-21
1.86936e-21
9.95295e-22
5.23866e-22
2.72338e-22
1.39686e-22
7.0601e-23
3.51113e-23
1.71523e-23
8.21421e-24
3.8473e-24
1.75743e-24
7.80316e-25
2.27909e-13
1.58744e-13
1.10031e-13
7.58956e-14
5.20954e-14
3.55847e-14
2.41883e-14
1.63611e-14
1.10122e-14
7.37513e-15
4.91451e-15
3.25824e-15
2.14909e-15
1.41017e-15
9.20459e-16
5.97621e-16
3.8592e-16
2.47839e-16
1.58265e-16
1.00476e-16
6.34023e-17
3.97559e-17
2.47639e-17
1.53184e-17
9.40674e-18
5.73256e-18
3.46584e-18
2.07828e-18
1.23579e-18
7.28569e-19
4.25833e-19
2.46734e-19
1.41718e-19
8.06879e-20
4.5534e-20
2.54645e-20
1.41089e-20
7.7419e-21
4.20513e-21
2.2595e-21
1.20008e-21
6.29458e-22
3.25697e-22
1.66034e-22
8.32677e-23
4.10113e-23
1.97973e-23
9.34447e-24
4.30064e-24
1.92342e-24
3.77921e-13
2.65005e-13
1.84933e-13
1.28435e-13
8.87693e-14
6.10589e-14
4.17961e-14
2.84718e-14
1.93006e-14
1.30191e-14
8.73839e-15
5.83573e-15
3.87749e-15
2.56315e-15
1.68554e-15
1.10259e-15
7.17396e-16
4.64225e-16
2.98715e-16
1.91102e-16
1.21521e-16
7.67894e-17
4.82037e-17
3.00501e-17
1.85975e-17
1.14225e-17
6.96052e-18
4.20716e-18
2.52187e-18
1.49895e-18
8.83374e-19
5.16153e-19
2.98998e-19
1.71706e-19
9.77418e-20
5.51397e-20
3.08183e-20
1.70582e-20
9.34558e-21
5.0645e-21
2.71252e-21
1.43451e-21
7.48245e-22
3.84443e-22
1.94276e-22
9.63941e-23
4.68647e-23
2.22726e-23
1.03181e-23
4.6436e-24
6.27041e-13
4.42508e-13
3.10797e-13
2.17252e-13
1.51141e-13
1.04648e-13
7.21114e-14
4.94527e-14
3.37499e-14
2.29211e-14
1.54901e-14
1.04162e-14
6.9691e-15
4.6391e-15
3.07224e-15
2.02399e-15
1.32634e-15
8.64454e-16
5.60282e-16
3.61048e-16
2.31267e-16
1.47209e-16
9.30871e-17
5.84575e-17
3.64454e-17
2.25507e-17
1.38444e-17
8.43111e-18
5.09237e-18
3.05021e-18
1.81169e-18
1.06699e-18
6.23066e-19
3.60721e-19
2.07017e-19
1.17744e-19
6.6347e-20
3.7022e-20
2.04459e-20
1.11674e-20
6.02753e-21
3.21173e-21
1.68755e-21
8.73219e-22
4.44302e-22
2.219e-22
1.08561e-22
5.19015e-23
2.41789e-23
1.09382e-23
1.04457e-12
7.41619e-13
5.2405e-13
3.68564e-13
2.57991e-13
1.79739e-13
1.24631e-13
8.60077e-14
5.90697e-14
4.03728e-14
2.74592e-14
1.8584e-14
1.25148e-14
8.38528e-15
5.58977e-15
3.707e-15
2.44548e-15
1.6046e-15
1.04703e-15
6.79292e-16
4.3808e-16
2.80756e-16
1.7875e-16
1.13022e-16
7.09481e-17
4.42026e-17
2.73257e-17
1.6758e-17
1.01937e-17
6.14973e-18
3.67932e-18
2.18294e-18
1.28426e-18
7.49112e-19
4.33163e-19
2.48226e-19
1.40921e-19
7.92173e-20
4.40677e-20
2.42414e-20
1.31751e-20
7.06757e-21
3.73769e-21
1.94612e-21
9.96096e-22
5.0029e-22
2.46054e-22
1.18213e-22
5.53188e-23
2.5126e-23
4.3698e-32
2.80948e-32
1.79691e-32
1.14315e-32
7.23266e-33
4.55031e-33
2.8462e-33
1.7697e-33
1.09362e-33
6.71569e-34
4.0972e-34
2.48298e-34
1.49437e-34
8.92997e-35
5.29729e-35
3.11867e-35
1.82176e-35
1.05564e-35
6.06636e-36
3.45633e-36
1.95189e-36
1.09226e-36
6.0548e-37
3.32386e-37
1.80642e-37
9.71595e-38
5.17007e-38
2.72083e-38
1.41561e-38
7.27886e-39
3.69736e-39
1.85463e-39
9.18298e-40
4.48628e-40
2.16161e-40
1.02674e-40
4.80544e-41
2.21508e-41
1.00511e-41
4.48726e-42
1.97e-42
8.50026e-43
3.60275e-43
1.49906e-43
6.11968e-44
2.44959e-44
9.60805e-45
3.69035e-45
1.38706e-45
5.09816e-46
1.83107e-46
6.42161e-47
2.19732e-47
7.33007e-48
2.38191e-48
7.53315e-49
2.31674e-49
6.92204e-50
2.00742e-50
5.64502e-51
1.53774e-51
4.0536e-52
1.03294e-52
2.54157e-53
6.03151e-54
1.3789e-54
3.03311e-55
6.41154e-56
1.30109e-56
2.53509e-57
4.77361e-58
9.03308e-59
2.04509e-59
8.08822e-60
5.69584e-60
4.97298e-60
4.53881e-60
4.1733e-60
3.84154e-60
3.53679e-60
3.2565e-60
2.99886e-60
2.76223e-60
2.5451e-60
2.34601e-60
2.16358e-60
1.99651e-60
1.84354e-60
1.70348e-60
1.57521e-60
1.4577e-60
1.34996e-60
1.25108e-60
1.16024e-60
1.07666e-60
9.9965e-61
9.28568e-61
8.62836e-61
8.0193e-61
7.45377e-61
6.92753e-61
6.43676e-61
5.97809e-61
5.54851e-61
5.14539e-61
4.76645e-61
4.40973e-61
4.07354e-61
3.75651e-61
3.45747e-61
3.17551e-61
2.90988e-61
2.66e-61
2.42542e-61
2.2058e-61
2.00085e-61
1.81031e-61
1.63394e-61
1.47146e-61
1.32255e-61
1.18683e-61
1.06383e-61
9.5299e-62
8.53664e-62
7.65124e-62
6.86572e-62
6.1716e-62
5.56011e-62
5.02244e-62
4.54997e-62
4.13451e-62
3.76842e-62
3.44481e-62
3.15757e-62
2.90144e-62
2.67195e-62
2.46545e-62
2.27895e-62
2.11011e-62
1.95709e-62
1.81847e-62
1.69321e-62
1.5805e-62
1.4797e-62
1.39034e-62
1.31197e-62
1.2442e-62
1.18662e-62
1.13877e-62
1.10013e-62
1.07012e-62
1.04808e-62
1.03328e-62
1.02495e-62
1.02225e-62
1.02435e-62
1.03038e-62
1.03953e-62
1.05101e-62
1.06406e-62
1.07802e-62
1.09229e-62
1.10632e-62
1.11966e-62
1.13193e-62
1.14281e-62
1.15206e-62
1.15948e-62
1.16497e-62
1.16844e-62
1.16986e-62
1.16924e-62
1.1666e-62
1.16195e-62
1.15529e-62
1.14656e-62
1.13566e-62
1.12243e-62
1.10663e-62
1.08797e-62
1.06612e-62
1.04077e-62
1.01163e-62
9.78506e-63
9.41323e-63
9.00173e-63
8.5532e-63
8.07206e-63
7.56428e-63
7.03699e-63
6.49798e-63
5.95518e-63
5.41616e-63
4.88773e-63
4.37574e-63
3.88496e-63
3.41921e-63
2.98142e-63
2.57385e-63
2.19819e-63
1.85569e-63
1.54714e-63
1.27285e-63
1.03258e-63
8.25443e-64
6.49927e-64
5.03884e-64
3.84637e-64
2.8913e-64
2.14106e-64
1.56294e-64
1.12573e-64
8.00988e-65
5.63845e-65
3.93366e-65
2.7252e-65
1.87892e-65
1.29212e-65
8.88265e-66
6.11621e-66
4.22484e-66
2.93075e-66
2.04252e-66
1.42985e-66
1.00468e-66
7.07741e-67
4.99116e-67
3.51815e-67
2.47456e-67
1.73404e-67
1.2088e-67
8.37151e-68
5.75313e-68
3.91944e-68
2.64485e-68
1.76659e-68
1.16729e-68
7.62642e-69
4.92481e-69
3.14216e-69
1.98015e-69
1.23215e-69
7.56837e-70
4.58756e-70
2.74328e-70
1.6178e-70
9.40575e-71
5.389e-71
3.04151e-71
1.69023e-71
9.24431e-72
4.97361e-72
2.63104e-72
1.36783e-72
6.98514e-73
3.50219e-73
1.7231e-73
8.31526e-74
3.93392e-74
1.82374e-74
8.28124e-75
3.68169e-75
1.60194e-75
6.81925e-76
2.83902e-76
1.15558e-76
4.59729e-77
1.78705e-77
6.78526e-78
2.51562e-78
9.10361e-79
3.21439e-79
1.10691e-79
3.71587e-80
1.21545e-80
3.87207e-81
1.20086e-81
3.62422e-82
1.06407e-82
3.03838e-83
8.43641e-84
2.27751e-84
5.97759e-85
1.52538e-85
3.78499e-86
9.13436e-87
2.14454e-87
4.89996e-88
1.0901e-88
2.36274e-89
4.99299e-90
1.02962e-90
2.07393e-91
4.08533e-92
7.88068e-93
1.49096e-93
2.76846e-94
5.0074e-95
8.3614e-96
9.99702e-97
1.38296e-31
8.93777e-32
5.74616e-32
3.67445e-32
2.33673e-32
1.47761e-32
9.28912e-33
5.80474e-33
3.60501e-33
2.22468e-33
1.3639e-33
8.30547e-34
5.02255e-34
3.01556e-34
1.79722e-34
1.06297e-34
6.23763e-35
3.63073e-35
2.09571e-35
1.19926e-35
6.8017e-36
3.82229e-36
2.12765e-36
1.17278e-36
6.39927e-37
3.45544e-37
1.84581e-37
9.75053e-38
5.09181e-38
2.62758e-38
1.33941e-38
6.74172e-39
3.34927e-39
1.64161e-39
7.93483e-40
3.78059e-40
1.77473e-40
8.20447e-41
3.73333e-41
1.67128e-41
7.35663e-42
3.18237e-42
1.35214e-42
5.63944e-43
2.30748e-43
9.25673e-44
3.63847e-44
1.40035e-44
5.27367e-45
1.94199e-45
6.9875e-46
2.45479e-46
8.41372e-47
2.81124e-47
9.14923e-48
2.89788e-48
8.92495e-49
2.67033e-49
7.75452e-50
2.1835e-50
5.95567e-51
1.57194e-51
4.01063e-52
9.88046e-53
2.34767e-53
5.37382e-54
1.18358e-54
2.50556e-55
5.09593e-56
9.98909e-57
1.928e-57
4.06921e-58
1.29157e-58
7.73585e-59
6.49542e-59
5.93143e-59
5.49922e-59
5.11098e-59
4.75195e-59
4.4186e-59
4.10915e-59
3.82215e-59
3.55623e-59
3.31006e-59
3.08239e-59
2.87195e-59
2.67752e-59
2.49793e-59
2.33202e-59
2.1787e-59
2.03694e-59
1.90573e-59
1.78417e-59
1.67138e-59
1.56657e-59
1.46898e-59
1.37795e-59
1.29285e-59
1.2131e-59
1.13819e-59
1.06764e-59
1.00105e-59
9.38034e-60
8.78263e-60
8.21455e-60
7.67366e-60
7.15795e-60
6.66578e-60
6.19587e-60
5.74726e-60
5.3193e-60
4.91158e-60
4.52392e-60
4.15629e-60
3.80879e-60
3.48156e-60
3.17478e-60
2.88857e-60
2.62297e-60
2.37788e-60
2.15305e-60
1.94804e-60
1.7622e-60
1.59469e-60
1.4445e-60
1.31044e-60
1.19124e-60
1.08553e-60
9.91901e-61
9.08983e-61
8.35451e-61
7.70072e-61
7.11727e-61
6.5943e-61
6.12331e-61
5.69721e-61
5.31018e-61
4.9576e-61
4.63589e-61
4.34237e-61
4.07506e-61
3.83255e-61
3.61386e-61
3.41829e-61
3.24531e-61
3.09446e-61
2.96528e-61
2.85718e-61
2.76947e-61
2.70127e-61
2.65147e-61
2.61881e-61
2.60182e-61
2.59885e-61
2.60818e-61
2.62798e-61
2.6564e-61
2.69162e-61
2.73187e-61
2.7755e-61
2.82094e-61
2.86681e-61
2.91185e-61
2.95498e-61
2.99525e-61
3.0319e-61
3.0643e-61
3.092e-61
3.11465e-61
3.13205e-61
3.14407e-61
3.15068e-61
3.15183e-61
3.14747e-61
3.13746e-61
3.12155e-61
3.09933e-61
3.07019e-61
3.03339e-61
2.98803e-61
2.93317e-61
2.86789e-61
2.79142e-61
2.70326e-61
2.6033e-61
2.49186e-61
2.36976e-61
2.2383e-61
2.09918e-61
1.95443e-61
1.8062e-61
1.65669e-61
1.50798e-61
1.36194e-61
1.2202e-61
1.08408e-61
9.54673e-62
8.32837e-62
7.19248e-62
6.14434e-62
5.18793e-62
4.32587e-62
3.55935e-62
2.88787e-62
2.30908e-62
1.81872e-62
1.41076e-62
1.07765e-62
8.10818e-63
6.01124e-63
4.39428e-63
3.17026e-63
2.25995e-63
1.59417e-63
1.11467e-63
7.74074e-64
5.35014e-64
3.68852e-64
2.54203e-64
1.75464e-64
1.21493e-64
8.44714e-65
5.89991e-65
4.13881e-65
2.91398e-65
2.05676e-65
1.45327e-65
1.02633e-65
7.23265e-66
5.07803e-66
3.54684e-66
2.4613e-66
1.69498e-66
1.15722e-66
7.82645e-67
5.23978e-67
3.47071e-67
2.27341e-67
1.47203e-67
9.41863e-68
5.9532e-68
3.716e-68
2.29002e-68
1.39287e-68
8.35914e-69
4.94822e-69
2.88815e-69
1.66152e-69
9.41737e-70
5.25652e-70
2.88809e-70
1.56121e-70
8.29938e-71
4.33664e-71
2.22626e-71
1.12228e-71
5.55287e-72
2.69534e-72
1.28289e-72
5.98475e-73
2.7353e-73
1.22431e-73
5.3646e-74
2.30034e-74
9.64965e-75
3.95877e-75
1.58783e-75
6.2246e-76
2.3842e-76
8.91973e-77
3.25819e-77
1.16156e-77
4.03977e-78
1.37001e-78
4.52833e-79
1.45814e-79
4.57217e-80
1.39553e-80
4.14481e-81
1.1976e-81
3.36572e-82
9.19921e-83
2.44515e-83
6.32059e-84
1.58912e-84
3.88676e-85
9.25039e-86
2.14304e-86
4.83509e-87
1.06302e-87
2.27903e-88
4.76868e-89
9.74795e-90
1.94891e-90
3.81609e-91
7.3289e-92
1.38139e-92
2.53523e-93
4.28861e-94
5.17699e-95
4.38043e-31
2.8459e-31
1.83922e-31
1.18223e-31
7.55707e-32
4.80315e-32
3.03492e-32
1.90609e-32
1.1897e-32
7.37813e-33
4.54559e-33
2.7815e-33
1.69014e-33
1.0196e-33
6.10517e-34
3.62767e-34
2.13852e-34
1.25039e-34
7.24954e-35
4.1667e-35
2.37339e-35
1.33941e-35
7.48683e-36
4.1437e-36
2.2701e-36
1.23063e-36
6.59907e-37
3.49915e-37
1.83404e-37
9.49857e-38
4.85896e-38
2.4541e-38
1.22328e-38
6.01531e-39
2.91677e-39
1.39399e-39
6.56342e-40
3.04302e-40
1.38857e-40
6.23302e-41
2.75085e-41
1.19299e-41
5.0812e-42
2.12423e-42
8.71133e-43
3.50226e-43
1.37948e-43
5.31986e-44
2.00729e-44
7.40527e-45
2.66918e-45
9.39291e-46
3.22457e-46
1.07906e-46
3.517e-47
1.11552e-47
3.44024e-48
1.03065e-48
2.99666e-49
8.44807e-50
2.30694e-50
6.09581e-51
1.55698e-51
3.83984e-52
9.13343e-53
2.09287e-53
4.61486e-54
9.78502e-55
1.99762e-55
3.97185e-56
8.16751e-57
2.17985e-57
1.05866e-57
8.24353e-58
7.46234e-58
6.96292e-58
6.53065e-58
6.1303e-58
5.75544e-58
5.40415e-58
5.07522e-58
4.76756e-58
4.48013e-58
4.21187e-58
3.96173e-58
3.72862e-58
3.51148e-58
3.30922e-58
3.1208e-58
2.94517e-58
2.78134e-58
2.62834e-58
2.48525e-58
2.35121e-58
2.2254e-58
2.10705e-58
1.99545e-58
1.88994e-58
1.78991e-58
1.69481e-58
1.60412e-58
1.5174e-58
1.43425e-58
1.35432e-58
1.27731e-58
1.203e-58
1.13118e-58
1.06174e-58
9.94576e-59
9.29656e-59
8.6698e-59
8.06588e-59
7.48547e-59
6.92947e-59
6.39894e-59
5.89498e-59
5.41867e-59
4.97096e-59
4.55261e-59
4.1641e-59
3.80556e-59
3.47678e-59
3.17712e-59
2.90558e-59
2.66081e-59
2.44113e-59
2.24465e-59
2.0693e-59
1.91294e-59
1.77343e-59
1.64872e-59
1.53689e-59
1.43619e-59
1.34509e-59
1.26229e-59
1.18671e-59
1.11749e-59
1.05396e-59
9.95622e-60
9.42134e-60
8.93263e-60
8.48874e-60
8.08892e-60
7.73289e-60
7.42052e-60
7.15174e-60
6.92628e-60
6.74359e-60
6.60272e-60
6.50225e-60
6.44025e-60
6.4143e-60
6.4215e-60
6.45856e-60
6.52188e-60
6.60763e-60
6.71188e-60
6.83069e-60
6.96021e-60
7.09675e-60
7.23683e-60
7.37727e-60
7.51517e-60
7.64797e-60
7.77346e-60
7.88974e-60
7.9953e-60
8.08894e-60
8.16978e-60
8.2372e-60
8.29079e-60
8.33025e-60
8.35528e-60
8.36546e-60
8.36012e-60
8.33824e-60
8.29837e-60
8.23857e-60
8.15654e-60
8.04965e-60
7.91521e-60
7.75072e-60
7.55414e-60
7.32425e-60
7.0609e-60
6.76519e-60
6.43956e-60
6.08769e-60
5.71433e-60
5.32499e-60
4.92556e-60
4.52194e-60
4.11975e-60
3.72405e-60
3.33921e-60
2.96894e-60
2.61626e-60
2.28363e-60
1.97305e-60
1.68612e-60
1.42406e-60
1.18772e-60
9.77501e-61
7.93322e-61
6.34563e-61
5.00061e-61
3.88154e-61