/*--------------------------------*- C++ -*----------------------------------*\
| =========                 |                                                 |
| \\      /  F ield         | OpenFOAM: The Open Source CFD Toolbox           |
|  \\    /   O peration     | Version:  2.4.0                                 |
|   \\  /    A nd           | Web:      www.OpenFOAM.org                      |
|    \\/     M anipulation  |                                                 |
\*---------------------------------------------------------------------------*/
FoamFile
{
    version     2.0;
    format      ascii;
    class       volScalarField;
    location    "2";
    object      H;
}
// * * * * * * * * * * * * * * * * * * * * * * * * * * * * * * * * * * * * * //

dimensions      [0 2 -2 0 0 0 0];

internalField   nonuniform List<scalar> 
8000
(
-11996.5
-11529.5
-11062.4
-10595.5
-10128.8
-9662.38
-9196.38
-8730.96
-8266.24
-7802.38
-7339.49
-6877.69
-6417.05
-5957.6
-5499.31
-5042.07
-4585.63
-4129.66
-3673.67
-3217.14
-2759.57
-2300.68
-1840.71
-1380.7
-922.731
-469.953
-4.71963
-3.94677
-3.52854
-3.5382
-3.54622
-3.55252
-3.557
-3.5595
-3.55989
-3.55801
-3.55371
-3.54686
-3.53732
-3.52498
-3.50976
-3.49157
-3.47037
-3.44613
-3.41885
-3.38855
-3.35528
-3.3191
-3.28011
-3.23844
-11997.2
-11531.7
-11066.1
-10600.4
-10134.7
-9669.12
-9203.69
-8738.53
-8273.78
-7809.52
-7345.88
-6882.91
-6420.67
-5959.16
-5498.34
-5038.11
-4578.31
-4118.79
-3659.35
-3199.93
-2740.62
-2281.82
-1824.35
-1369.56
-919.365
-476.205
-5.24691
-3.9831
-3.86884
-3.84356
-3.82017
-3.79807
-3.7767
-3.75557
-3.73424
-3.71234
-3.68954
-3.66555
-3.64014
-3.6131
-3.58429
-3.55357
-3.52085
-3.48608
-3.44924
-3.4103
-3.36931
-3.3263
-3.28134
-3.23451
-11997.8
-11533.5
-11069.1
-10604.5
-10139.9
-9675.17
-9210.47
-8745.84
-8281.37
-7817.13
-7353.23
-6889.72
-6426.66
-5964.1
-5502.07
-5040.59
-4579.67
-4119.36
-3659.75
-3200.99
-2743.4
-2287.41
-1833.68
-1383.07
-936.611
-495.513
-5.8302
-4.35518
-4.29805
-4.26137
-4.22303
-4.18334
-4.14249
-4.10059
-4.05771
-4.01385
-3.96902
-3.92322
-3.87642
-3.82861
-3.77977
-3.7299
-3.679
-3.62707
-3.57414
-3.52023
-3.46539
-3.40965
-3.35306
-3.2957
-11997.2
-11531.6
-11065.9
-10600
-10134
-9667.91
-9201.73
-8735.56
-8269.49
-7803.59
-7337.98
-6872.74
-6407.99
-5943.84
-5480.42
-5017.86
-4556.35
-4096.11
-3637.42
-3180.61
-2726.12
-2274.48
-1826.29
-1382.26
-943.128
-509.601
-7.24527
-5.36586
-5.26707
-5.17104
-5.0762
-4.9826
-4.89024
-4.79911
-4.70916
-4.62036
-4.53266
-4.44604
-4.36043
-4.2758
-4.19211
-4.10933
-4.02741
-3.94634
-3.86609
-3.78664
-3.70798
-3.63009
-3.55298
-3.47664
-11996.5
-11529.4
-11062.2
-10594.9
-10127.5
-9660.08
-9192.63
-8725.25
-8258.02
-7791.03
-7324.41
-6858.3
-6392.83
-5928.16
-5464.47
-5001.97
-4540.91
-4081.57
-3624.28
-3169.45
-2717.53
-2269.1
-1824.84
-1385.54
-952.066
-525.214
-9.21191
-6.81909
-6.6646
-6.50478
-6.3421
-6.17866
-6.016
-5.85528
-5.6973
-5.54267
-5.39176
-5.24481
-5.10194
-4.96319
-4.82851
-4.69783
-4.57102
-4.44797
-4.32853
-4.21254
-4.09986
-3.99034
-3.88386
-3.78027
-11995.5
-11526.6
-11057.5
-10588.5
-10119.4
-9650.39
-9181.4
-8712.54
-8243.91
-7775.6
-7307.72
-6840.42
-6373.84
-5908.13
-5443.46
-4980.01
-4518.02
-4057.8
-3599.63
-3143.87
-2690.96
-2241.56
-1796.62
-1357.52
-926.179
-505.627
-13.4901
-9.84718
-9.3828
-8.94356
-8.5294
-8.14006
-7.77501
-7.43341
-7.11423
-6.81623
-6.53804
-6.27823
-6.03535
-5.80796
-5.59465
-5.39412
-5.20515
-5.02661
-4.85748
-4.69687
-4.54397
-4.39808
-4.25858
-4.12493
-11994.6
-11523.7
-11052.7
-10581.7
-10110.5
-9639.26
-9168
-8696.8
-8225.73
-7754.9
-7284.42
-6814.41
-6345
-5876.3
-5408.43
-4941.49
-4475.56
-4010.67
-3546.77
-3083.76
-2621.49
-2159.88
-1698.84
-1237.64
-772.235
-287.702
-17.5315
-12.7531
-11.8073
-10.9518
-10.1825
-9.49423
-8.88081
-8.33535
-7.85077
-7.4201
-7.03665
-6.69419
-6.38706
-6.11018
-5.85909
-5.62989
-5.41922
-5.22423
-5.04252
-4.8721
-4.71131
-4.55882
-4.41353
-4.27458
-11993.3
-11519.7
-11045.9
-10571.9
-10097.6
-9622.97
-9148.16
-8673.22
-8198.23
-7723.28
-7248.46
-6773.87
-6299.56
-5825.55
-5351.84
-4878.32
-4404.76
-3930.76
-3455.64
-2978.34
-2497.45
-2011.41
-1519.04
-1020.43
-517.847
-5.05461
-4.26812
-4.14204
-4.35105
-4.5118
-4.63256
-4.72025
-4.78059
-4.81824
-4.83696
-4.83976
-4.82906
-4.80676
-4.77439
-4.73317
-4.68413
-4.62812
-4.56588
-4.49809
-4.42539
-4.34837
-4.26761
-4.18368
-4.09713
-4.00849
-11991.9
-11515.6
-11039
-10562.1
-10084.9
-9607.27
-9129.32
-8651.09
-8172.63
-7694.02
-7215.31
-6736.52
-6257.67
-5778.74
-5299.67
-4820.38
-4340.75
-3860.68
-3380.15
-2899.23
-2418.28
-1937.97
-1459.44
-984.312
-514.615
-5.70821
-4.30706
-4.28047
-4.29934
-4.31584
-4.32918
-4.33871
-4.34397
-4.34459
-4.34032
-4.331
-4.31654
-4.29692
-4.27217
-4.24239
-4.20772
-4.16835
-4.12449
-4.07641
-4.02439
-3.96875
-3.90981
-3.84791
-3.78338
-3.71658
-11990.8
-11512.2
-11033.4
-10554.3
-10074.9
-9595.06
-9114.89
-8634.38
-8153.57
-7672.51
-7191.23
-6709.8
-6228.26
-5746.69
-5265.17
-4783.84
-4302.88
-3822.57
-3343.27
-2865.5
-2389.93
-1917.41
-1448.93
-985.602
-528.589
-6.74909
-5.00965
-4.94039
-4.87721
-4.81561
-4.75538
-4.69626
-4.63797
-4.5802
-4.52269
-4.46519
-4.40747
-4.34934
-4.29063
-4.23123
-4.17102
-4.10996
-4.048
-3.98513
-3.92136
-3.85673
-3.79129
-3.7251
-3.65824
-3.59079
-11989.7
-11509.1
-11028.2
-10547.1
-10065.6
-9583.71
-9101.46
-8618.86
-8135.95
-7652.79
-7169.48
-6686.12
-6202.85
-5719.83
-5237.29
-4755.49
-4274.77
-3795.54
-3318.29
-2843.59
-2372.12
-1904.64
-1442
-985.136
-534.997
-8.18318
-6.04908
-5.91463
-5.78346
-5.65535
-5.53054
-5.40907
-5.29091
-5.17598
-5.06415
-4.95525
-4.84914
-4.74564
-4.64458
-4.54581
-4.44917
-4.35454
-4.26177
-4.17076
-4.0814
-3.9936
-3.90728
-3.82236
-3.73878
-3.65649
-11988.8
-11506.2
-11023.4
-10540.4
-10057
-9573.32
-9089.26
-8604.89
-8120.29
-7635.55
-7150.78
-6666.15
-6181.84
-5698.07
-5215.13
-4733.32
-4253.03
-3774.67
-3298.75
-2825.8
-2356.46
-1891.45
-1431.64
-978.014
-531.616
-10.4669
-7.70532
-7.46023
-7.22181
-6.9911
-6.76874
-6.555
-6.34992
-6.15333
-5.96499
-5.78457
-5.61167
-5.44591
-5.28688
-5.13419
-4.98745
-4.84629
-4.71039
-4.57943
-4.45311
-4.33116
-4.21333
-4.09939
-3.98912
-3.88231
-11987.9
-11503.7
-11019.4
-10534.8
-10049.9
-9564.77
-9079.35
-8593.69
-8107.89
-7622.05
-7136.31
-6650.82
-6165.79
-5681.43
-5198
-4715.78
-4235.08
-3756.24
-3279.62
-2805.6
-2334.65
-1867.39
-1404.78
-948.371
-500.45
-14.105
-10.2875
-9.78735
-9.31915
-8.88221
-8.47536
-8.097
-7.74528
-7.4182
-7.11371
-6.82979
-6.56451
-6.31604
-6.08272
-5.86306
-5.65571
-5.45951
-5.27343
-5.09658
-4.9282
-4.76761
-4.61422
-4.46752
-4.32705
-4.1924
-11987.1
-11501.3
-11015.3
-10529
-10042.5
-9555.61
-9068.47
-8581.09
-8093.57
-7606
-7118.52
-6631.26
-6144.37
-5658.01
-5172.34
-4687.46
-4203.47
-3720.36
-3238.01
-2756.09
-2274.06
-1791.21
-1306.72
-818.772
-320.294
-17.488
-12.6289
-11.6879
-10.8611
-10.1352
-9.49815
-8.93872
-8.44649
-8.01187
-7.62617
-7.2816
-6.97137
-6.68961
-6.43139
-6.19263
-5.97002
-5.76094
-5.56333
-5.37561
-5.19659
-5.02536
-4.86124
-4.7037
-4.55232
-4.40676
-11986.1
-11498.3
-11010.1
-10521.6
-10032.6
-9543.27
-9053.48
-8563.33
-8072.89
-7582.24
-7091.47
-6600.66
-6109.85
-5619.05
-5128.19
-4637.07
-4145.34
-3652.29
-3156.75
-2656.76
-2149.46
-1631.49
-1100.47
-557.737
-5.29245
-4.6886
-4.30851
-4.51914
-4.68752
-4.82287
-4.93218
-5.02044
-5.09091
-5.14544
-5.18491
-5.20954
-5.2193
-5.21413
-5.19416
-5.15979
-5.11177
-5.05117
-4.97928
-4.8976
-4.80768
-4.71109
-4.60935
-4.50384
-4.3958
-4.2863
-11985
-11494.8
-11004.3
-10513.4
-10021.9
-9529.82
-9037.2
-8544.02
-8050.34
-7556.16
-7061.51
-6566.38
-6070.69
-5574.33
-5077.08
-4578.66
-4078.7
-3576.81
-3072.66
-2566.15
-2057.65
-1548.22
-1039.9
-535.731
-5.54847
-4.2842
-4.21693
-4.27741
-4.33439
-4.38695
-4.43428
-4.47565
-4.51036
-4.53782
-4.5575
-4.56902
-4.57213
-4.56672
-4.55285
-4.53074
-4.50073
-4.46329
-4.41898
-4.3684
-4.31221
-4.25106
-4.18559
-4.11643
-4.04416
-3.9693
-11983.9
-11491.6
-10999
-10506
-10012.3
-9518.1
-9023.18
-8527.59
-8031.3
-7534.31
-7036.61
-6538.18
-6038.99
-5539.02
-5038.25
-4536.7
-4034.48
-3531.82
-3029.11
-2527
-2026.4
-1528.49
-1034.72
-546.619
-6.2943
-4.69591
-4.65346
-4.62936
-4.60642
-4.58412
-4.56192
-4.53929
-4.51575
-4.49084
-4.46416
-4.43539
-4.40425
-4.37053
-4.33409
-4.29484
-4.25275
-4.20783
-4.16015
-4.10979
-4.05688
-4.00155
-3.94397
-3.88432
-3.82275
-3.75947
-11982.9
-11488.6
-10994
-10498.9
-10003.3
-9507
-9010.04
-8512.35
-8013.95
-7514.85
-7015.09
-6514.72
-6013.85
-5512.61
-5011.18
-4509.82
-4008.87
-3508.78
-3010.09
-2513.46
-2019.65
-1529.49
-1043.83
-563.497
-7.23813
-5.36416
-5.28015
-5.20076
-5.12385
-5.04927
-4.97679
-4.90614
-4.83706
-4.76926
-4.7025
-4.63652
-4.57111
-4.50606
-4.4412
-4.37638
-4.31147
-4.24636
-4.18099
-4.11528
-4.0492
-3.98272
-3.91585
-3.84857
-3.78091
-3.7129
-11981.9
-11485.6
-10989
-10492
-9994.46
-9496.34
-8997.6
-8498.25
-7998.34
-7497.93
-6997.15
-6496.13
-5995.07
-5494.22
-4993.86
-4494.35
-3996.08
-3499.51
-3005.15
-2513.54
-2025.24
-1540.81
-1060.83
-585.81
-8.48672
-6.26943
-6.13005
-5.99616
-5.8672
-5.74288
-5.62288
-5.50686
-5.39451
-5.28551
-5.17958
-5.07644
-4.97585
-4.87757
-4.7814
-4.68716
-4.59468
-4.5038
-4.41441
-4.32638
-4.23962
-4.15404
-4.06956
-3.98613
-3.90368
-3.82218
-11981
-11482.9
-10984.5
-10485.9
-9986.89
-9487.46
-8987.63
-8487.46
-7987.04
-7486.49
-6985.99
-6485.75
-5986.02
-5487.07
-4989.22
-4492.83
-3998.26
-3505.89
-3016.1
-2529.28
-2045.74
-1565.77
-1089.57
-617.16
-9.77565
-7.21345
-7.03433
-6.86135
-6.69414
-6.53242
-6.37587
-6.22416
-6.07701
-5.93411
-5.79522
-5.66009
-5.52849
-5.40023
-5.27511
-5.15296
-5.03364
-4.917
-4.8029
-4.69124
-4.58191
-4.47481
-4.36985
-4.26697
-4.16607
-4.0671
-3.19421
-3.14759
-3.09873
-3.04783
-2.99508
-2.94068
-2.88483
-2.82773
-2.76959
-2.71062
-2.651
-2.59093
-2.53058
-2.47012
-2.40972
-2.34951
-2.28963
-2.2302
-2.17134
-2.11314
-2.0557
-1.99907
-1.94334
-1.88856
-1.83477
-1.78201
-1.73031
-1.67971
-1.63021
-1.58182
-1.53456
-1.48843
-1.44343
-1.39954
-1.35677
-1.31509
-1.27451
-1.23501
-1.19656
-1.15915
-1.12277
-1.08739
-1.053
-1.01957
-0.987084
-0.955521
-0.92486
-0.89508
-0.866159
-0.838078
-3.18591
-3.13566
-3.08387
-3.03068
-2.97624
-2.92068
-2.86415
-2.80682
-2.74881
-2.69029
-2.63139
-2.57226
-2.51303
-2.45382
-2.39475
-2.33594
-2.27749
-2.2195
-2.16206
-2.10524
-2.04912
-1.99376
-1.93922
-1.88555
-1.83279
-1.78098
-1.73015
-1.68031
-1.63151
-1.58373
-1.53701
-1.49134
-1.44672
-1.40317
-1.36066
-1.31921
-1.27879
-1.2394
-1.20103
-1.16367
-1.12729
-1.0919
-1.05746
-1.02396
-0.99139
-0.959725
-0.928948
-0.899041
-0.869985
-0.84176
-3.23763
-3.17891
-3.11963
-3.05986
-2.9997
-2.93922
-2.87851
-2.81767
-2.75677
-2.69591
-2.63516
-2.5746
-2.51433
-2.4544
-2.3949
-2.33589
-2.27743
-2.21959
-2.16242
-2.10597
-2.05029
-1.99541
-1.94139
-1.88824
-1.836
-1.7847
-1.73435
-1.68497
-1.63658
-1.58919
-1.54281
-1.49743
-1.45307
-1.40973
-1.36739
-1.32607
-1.28574
-1.24641
-1.20806
-1.17068
-1.13427
-1.0988
-1.06427
-1.03066
-0.997959
-0.966146
-0.935207
-0.905127
-0.875887
-0.847472
-3.40108
-3.32629
-3.25228
-3.17907
-3.10667
-3.03508
-2.96433
-2.89443
-2.8254
-2.75724
-2.68998
-2.62364
-2.55823
-2.49376
-2.43026
-2.36773
-2.3062
-2.24566
-2.18615
-2.12766
-2.07021
-2.0138
-1.95845
-1.90416
-1.85093
-1.79877
-1.74767
-1.69765
-1.6487
-1.60081
-1.55398
-1.50821
-1.46349
-1.41982
-1.37718
-1.33556
-1.29496
-1.25537
-1.21677
-1.17915
-1.14249
-1.10678
-1.07202
-1.03817
-1.00523
-0.973184
-0.942011
-0.911697
-0.882224
-0.853577
-3.67947
-3.58132
-3.48574
-3.39261
-3.30186
-3.21338
-3.12711
-3.04297
-2.96088
-2.88078
-2.80261
-2.72631
-2.65182
-2.5791
-2.50808
-2.43874
-2.37102
-2.30488
-2.24029
-2.17721
-2.11561
-2.05546
-1.99672
-1.93937
-1.88337
-1.82872
-1.77537
-1.72331
-1.67251
-1.62295
-1.57461
-1.52746
-1.4815
-1.43668
-1.393
-1.35044
-1.30897
-1.26858
-1.22924
-1.19094
-1.15365
-1.11736
-1.08205
-1.0477
-1.01428
-0.98179
-0.950196
-0.919486
-0.889638
-0.860636
-3.99668
-3.87341
-3.75479
-3.64049
-3.53026
-3.42384
-3.32104
-3.22166
-3.12553
-3.03248
-2.94238
-2.85508
-2.77047
-2.68842
-2.60883
-2.53159
-2.45661
-2.38381
-2.31309
-2.24438
-2.17761
-2.1127
-2.0496
-1.98825
-1.92858
-1.87055
-1.81411
-1.75921
-1.7058
-1.65385
-1.6033
-1.55414
-1.50631
-1.45979
-1.41454
-1.37053
-1.32772
-1.2861
-1.24563
-1.20628
-1.16802
-1.13084
-1.09469
-1.05957
-1.02544
-0.992283
-0.960071
-0.928785
-0.8984
-0.868897
-4.14127
-4.01304
-3.88946
-3.77017
-3.6549
-3.54341
-3.43551
-3.33103
-3.22985
-3.13181
-3.03681
-2.94474
-2.85548
-2.76894
-2.68502
-2.60363
-2.52467
-2.44806
-2.37372
-2.30156
-2.23151
-2.16349
-2.09745
-2.03331
-1.97101
-1.91049
-1.8517
-1.79458
-1.73908
-1.68516
-1.63277
-1.58186
-1.53239
-1.48433
-1.43763
-1.39226
-1.34818
-1.30535
-1.26375
-1.22334
-1.18409
-1.14598
-1.10896
-1.07301
-1.03811
-1.00423
-0.971335
-0.939408
-0.908423
-0.878354
-3.91826
-3.82692
-3.73492
-3.64265
-3.55049
-3.45877
-3.36776
-3.27771
-3.18882
-3.10127
-3.01519
-2.93068
-2.84783
-2.76669
-2.68731
-2.60971
-2.5339
-2.45988
-2.38764
-2.31717
-2.24845
-2.18145
-2.11616
-2.05254
-1.99057
-1.93021
-1.87144
-1.81422
-1.75852
-1.70431
-1.65156
-1.60024
-1.55032
-1.50177
-1.45456
-1.40865
-1.36403
-1.32065
-1.27849
-1.23752
-1.19772
-1.15906
-1.1215
-1.08503
-1.04961
-1.01523
-0.981848
-0.949448
-0.918005
-0.887493
-3.64783
-3.57745
-3.50576
-3.43305
-3.35958
-3.28561
-3.21137
-3.13707
-3.06289
-2.989
-2.91556
-2.84268
-2.77049
-2.69909
-2.62856
-2.55898
-2.49042
-2.42292
-2.35653
-2.2913
-2.22725
-2.16441
-2.1028
-2.04243
-1.98332
-1.92548
-1.8689
-1.81359
-1.75955
-1.70677
-1.65524
-1.60496
-1.55591
-1.50808
-1.46147
-1.41604
-1.3718
-1.32871
-1.28676
-1.24594
-1.20622
-1.16758
-1.13001
-1.09348
-1.05797
-1.02347
-0.989946
-0.957382
-0.925759
-0.895053
-3.52284
-3.45449
-3.38584
-3.31698
-3.24801
-3.17904
-3.11014
-3.04141
-2.97294
-2.9048
-2.83708
-2.76985
-2.70317
-2.63711
-2.57172
-2.50706
-2.44319
-2.38013
-2.31795
-2.25666
-2.19631
-2.13693
-2.07854
-2.02117
-1.96482
-1.90953
-1.8553
-1.80215
-1.75008
-1.69909
-1.6492
-1.60039
-1.55268
-1.50605
-1.46051
-1.41604
-1.37264
-1.3303
-1.28901
-1.24875
-1.20952
-1.17131
-1.13409
-1.09786
-1.0626
-1.02829
-0.994915
-0.962463
-0.930916
-0.900255
-3.57544
-3.49559
-3.41691
-3.33935
-3.26291
-3.18756
-3.11328
-3.04006
-2.96789
-2.89676
-2.82668
-2.75762
-2.6896
-2.62262
-2.55667
-2.49176
-2.42788
-2.36505
-2.30327
-2.24254
-2.18286
-2.12424
-2.06669
-2.01019
-1.95476
-1.9004
-1.8471
-1.79487
-1.7437
-1.69359
-1.64455
-1.59656
-1.54962
-1.50373
-1.45888
-1.41505
-1.37225
-1.33047
-1.28969
-1.2499
-1.21109
-1.17326
-1.13639
-1.10046
-1.06546
-1.03139
-0.998214
-0.965933
-0.934528
-0.903983
-3.77879
-3.67837
-3.5809
-3.48622
-3.39419
-3.30468
-3.21757
-3.13275
-3.05011
-2.96955
-2.89099
-2.81434
-2.73953
-2.66649
-2.59515
-2.52545
-2.45735
-2.39079
-2.32573
-2.26213
-2.19995
-2.13915
-2.0797
-2.02158
-1.96476
-1.90921
-1.85491
-1.80183
-1.74995
-1.69926
-1.64973
-1.60135
-1.5541
-1.50796
-1.46292
-1.41895
-1.37605
-1.33419
-1.29336
-1.25354
-1.21472
-1.17689
-1.14002
-1.1041
-1.06912
-1.03506
-1.0019
-0.969629
-0.93823
-0.907687
-4.0632
-3.9391
-3.81979
-3.70499
-3.59443
-3.48786
-3.38505
-3.28579
-3.18987
-3.09713
-3.00738
-2.92046
-2.83624
-2.75458
-2.67535
-2.59845
-2.52375
-2.45118
-2.38063
-2.31203
-2.2453
-2.18037
-2.11717
-2.05564
-1.99573
-1.93739
-1.88056
-1.8252
-1.77127
-1.71873
-1.66753
-1.61766
-1.56906
-1.52171
-1.47558
-1.43064
-1.38687
-1.34423
-1.3027
-1.26226
-1.22288
-1.18455
-1.14723
-1.11091
-1.07556
-1.04117
-1.00772
-0.97518
-0.943537
-0.912772
-4.26674
-4.13198
-4.00224
-3.8773
-3.75693
-3.6409
-3.52902
-3.42108
-3.31689
-3.21626
-3.11901
-3.02498
-2.93401
-2.84597
-2.7607
-2.6781
-2.59803
-2.52039
-2.44508
-2.372
-2.30107
-2.2322
-2.16532
-2.10035
-2.03722
-1.97588
-1.91626
-1.8583
-1.80196
-1.74718
-1.69391
-1.64211
-1.59174
-1.54275
-1.49511
-1.44877
-1.40371
-1.35988
-1.31726
-1.27582
-1.23551
-1.19633
-1.15823
-1.12119
-1.08518
-1.05018
-1.01617
-0.983112
-0.950995
-0.919792
-4.17626
-4.06641
-3.95736
-3.84957
-3.74339
-3.63907
-3.53681
-3.43672
-3.33887
-3.24332
-3.15006
-3.0591
-2.97043
-2.88399
-2.79978
-2.71774
-2.63783
-2.56002
-2.48425
-2.41049
-2.33868
-2.26879
-2.20077
-2.13458
-2.07017
-2.00751
-1.94654
-1.88723
-1.82954
-1.77343
-1.71885
-1.66578
-1.61416
-1.56398
-1.51518
-1.46773
-1.4216
-1.37676
-1.33318
-1.29081
-1.24964
-1.20963
-1.17075
-1.13297
-1.09627
-1.06062
-1.02599
-0.992356
-0.959696
-0.927983
-3.89236
-3.81377
-3.73393
-3.65319
-3.57187
-3.49023
-3.40852
-3.32695
-3.24573
-3.165
-3.08492
-3.00562
-2.92722
-2.84981
-2.77347
-2.69829
-2.62433
-2.55164
-2.48027
-2.41025
-2.34161
-2.27438
-2.20858
-2.1442
-2.08126
-2.01977
-1.9597
-1.90107
-1.84386
-1.78805
-1.73363
-1.68059
-1.62891
-1.57856
-1.52953
-1.4818
-1.43533
-1.39011
-1.34612
-1.30332
-1.2617
-1.22123
-1.18189
-1.14365
-1.10649
-1.07038
-1.0353
-1.00123
-0.968146
-0.936018
-3.69466
-3.6285
-3.56117
-3.49285
-3.42371
-3.35392
-3.28365
-3.21304
-3.14225
-3.07141
-3.00065
-2.93011
-2.85988
-2.79008
-2.72081
-2.65217
-2.58422
-2.51705
-2.45072
-2.3853
-2.32083
-2.25737
-2.19496
-2.13362
-2.0734
-2.01431
-1.95638
-1.89962
-1.84404
-1.78965
-1.73645
-1.68445
-1.63364
-1.58402
-1.53558
-1.48832
-1.44223
-1.39729
-1.35349
-1.31082
-1.26927
-1.2288
-1.18942
-1.1511
-1.11383
-1.07758
-1.04233
-1.00807
-0.974785
-0.942443
-3.64458
-3.57598
-3.50717
-3.43819
-3.36912
-3.30001
-3.23092
-3.16193
-3.09311
-3.02451
-2.95622
-2.88829
-2.82079
-2.75377
-2.68731
-2.62146
-2.55626
-2.49178
-2.42806
-2.36515
-2.30307
-2.24188
-2.18161
-2.12228
-2.06393
-2.00658
-1.95024
-1.89494
-1.8407
-1.78752
-1.73541
-1.68438
-1.63444
-1.58559
-1.53782
-1.49115
-1.44555
-1.40103
-1.35759
-1.3152
-1.27387
-1.23359
-1.19433
-1.15609
-1.11886
-1.08262
-1.04736
-1.01305
-0.979695
-0.947264
-3.74159
-3.66188
-3.58304
-3.50504
-3.42788
-3.35156
-3.27606
-3.20139
-3.12757
-3.05459
-2.98247
-2.91121
-2.84084
-2.77137
-2.7028
-2.63517
-2.56848
-2.50274
-2.43799
-2.37422
-2.31146
-2.24971
-2.189
-2.12933
-2.07071
-2.01315
-1.95667
-1.90126
-1.84694
-1.7937
-1.74155
-1.69048
-1.64051
-1.59163
-1.54383
-1.49711
-1.45147
-1.4069
-1.36338
-1.32093
-1.27951
-1.23913
-1.19977
-1.16141
-1.12406
-1.08768
-1.05228
-1.01783
-0.984318
-0.95173
-3.97
-3.87472
-3.7812
-3.68939
-3.59927
-3.51078
-3.4239
-3.33859
-3.25483
-3.17259
-3.09183
-3.01255
-2.93472
-2.85833
-2.78335
-2.70977
-2.63757
-2.56675
-2.49729
-2.42918
-2.3624
-2.29696
-2.23283
-2.17001
-2.10848
-2.04824
-1.98929
-1.93159
-1.87516
-1.81997
-1.76602
-1.7133
-1.66179
-1.61147
-1.56235
-1.51441
-1.46762
-1.42199
-1.37749
-1.33411
-1.29184
-1.25065
-1.21054
-1.17149
-1.13347
-1.09648
-1.0605
-1.0255
-0.99148
-0.958408
-0.817084
-0.802624
-0.788317
-0.774163
-0.760164
-0.746318
-0.732627
-0.71909
-0.705706
-0.692476
-0.679401
-0.666479
-0.65371
-0.641095
-0.628633
-0.616324
-0.604168
-0.592165
-0.580313
-0.568614
-0.557066
-0.54567
-0.534425
-0.52333
-0.512385
-0.501589
-0.490943
-0.480446
-0.470096
-0.459895
-0.44984
-0.439932
-0.43017
-0.420553
-0.411081
-0.401753
-0.392568
-0.383526
-0.374626
-0.365867
-0.357249
-0.34877
-0.34043
-0.332228
-0.324163
-0.316235
-0.308442
-0.300783
-0.293259
-0.285866
-0.278606
-0.271476
-0.264477
-0.257605
-0.250862
-0.244245
-0.237754
-0.231387
-0.225144
-0.219022
-0.213022
-0.207142
-0.201381
-0.195737
-0.19021
-0.184798
-0.179499
-0.174314
-0.16924
-0.164276
-0.159421
-0.154673
-0.150032
-0.145496
-0.141063
-0.136733
-0.132503
-0.128373
-0.124342
-0.120407
-0.116568
-0.112823
-0.10917
-0.105609
-0.102138
-0.0987548
-0.0954591
-0.0922491
-0.0891235
-0.0860808
-0.0831195
-0.0802383
-0.0774358
-0.0747106
-0.0720613
-0.0694864
-0.0669846
-0.0645546
-0.0621948
-0.059904
-0.0576807
-0.0555237
-0.0534315
-0.0514028
-0.0494362
-0.0475305
-0.0456842
-0.0438962
-0.042165
-0.0404894
-0.0388682
-0.0373
-0.0357836
-0.0343177
-0.0329012
-0.0315328
-0.0302112
-0.0289354
-0.0277042
-0.0265163
-0.0253707
-0.0242662
-0.0232017
-0.0221762
-0.0211884
-0.0202375
-0.0193223
-0.0184418
-0.017595
-0.0167808
-0.0159984
-0.0152468
-0.014525
-0.0138321
-0.0131672
-0.0125294
-0.0119179
-0.0113317
-0.0107701
-0.0102322
-0.00971731
-0.00922453
-0.00875315
-0.00830242
-0.00787162
-0.00746002
-0.00706695
-0.00669173
-0.00633369
-0.0059922
-0.00566664
-0.00535639
-0.00506087
-0.0047795
-0.00451173
-0.00425701
-0.00401481
-0.00378464
-0.00356598
-0.00335837
-0.00316133
-0.00297442
-0.00279721
-0.00262926
-0.00247018
-0.00231957
-0.00217704
-0.00204224
-0.00191481
-0.00179441
-0.0016807
-0.00157337
-0.00147212
-0.00137665
-0.00128669
-0.00120195
-0.00112217
-0.00104712
-0.000976542
-0.000910212
-0.000847908
-0.000789419
-0.000734543
-0.000683086
-0.000634863
-0.000589697
-0.00054742
-0.00050787
-0.000470893
-0.000436342
-0.000404079
-0.000373971
-0.00034589
-0.000319717
-0.000295337
-0.000272642
-0.00025153
-0.000231902
-0.000213666
-0.000196734
-0.000181024
-0.000166457
-0.00015296
-0.000140461
-0.000128895
-0.000118201
-0.000108318
-9.91924e-05
-9.07715e-05
-8.30066e-05
-7.58516e-05
-6.92635e-05
-6.32018e-05
-5.76285e-05
-5.25081e-05
-4.78073e-05
-4.34948e-05
-3.95418e-05
-3.59209e-05
-3.26067e-05
-2.95758e-05
-2.68059e-05
-2.42767e-05
-2.1969e-05
-1.98651e-05
-1.79485e-05
-1.62041e-05
-1.46175e-05
-1.31757e-05
-1.18666e-05
-1.06789e-05
-9.60232e-06
-8.6272e-06
-7.74474e-06
-6.94684e-06
-6.22597e-06
-5.57529e-06
-4.98845e-06
-4.45963e-06
-3.98352e-06
-3.55526e-06
-3.17035e-06
-2.82471e-06
-2.51461e-06
-2.23666e-06
-1.98772e-06
-1.76497e-06
-1.56585e-06
-1.38798e-06
-1.22926e-06
-1.08776e-06
-9.61707e-07
-8.49528e-07
-7.49776e-07
-6.61174e-07
-5.8252e-07
-5.12791e-07
-4.51007e-07
-3.96325e-07
-3.47966e-07
-3.05242e-07
-2.67539e-07
-2.3427e-07
-2.04967e-07
-1.79177e-07
-1.56491e-07
-1.3655e-07
-1.19057e-07
-1.03703e-07
-9.02548e-08
-7.84784e-08
-6.81787e-08
-5.918e-08
-5.13164e-08
-4.4452e-08
-3.8486e-08
-3.32721e-08
-2.87477e-08
-2.48079e-08
-2.13892e-08
-1.84104e-08
-1.58396e-08
-1.36125e-08
-1.16625e-08
-9.99561e-09
-8.54211e-09
-7.29289e-09
-6.19815e-09
-5.2591e-09
-4.44021e-09
-3.7318e-09
-3.11659e-09
-2.56427e-09
-2.11176e-09
-1.69719e-09
-1.31026e-09
-9.83746e-10
-6.83362e-10
-4.1741e-10
-1.52769e-10
-0.82065
-0.806106
-0.791714
-0.777475
-0.763389
-0.749457
-0.735677
-0.722051
-0.708579
-0.695261
-0.682097
-0.669086
-0.65623
-0.643527
-0.630979
-0.618584
-0.606343
-0.594255
-0.582321
-0.570539
-0.558911
-0.547435
-0.536111
-0.524939
-0.513919
-0.50305
-0.492332
-0.481764
-0.471346
-0.461077
-0.450957
-0.440985
-0.431161
-0.421484
-0.411953
-0.402568
-0.393329
-0.384233
-0.375282
-0.366473
-0.357807
-0.349282
-0.340897
-0.332652
-0.324546
-0.316579
-0.308748
-0.301053
-0.293493
-0.286068
-0.278776
-0.271616
-0.264588
-0.257689
-0.25092
-0.244278
-0.237764
-0.231375
-0.225111
-0.21897
-0.212952
-0.207055
-0.201277
-0.195619
-0.190077
-0.184652
-0.179342
-0.174145
-0.169061
-0.164088
-0.159224
-0.154469
-0.149821
-0.145278
-0.14084
-0.136505
-0.132271
-0.128138
-0.124103
-0.120166
-0.116324
-0.112578
-0.108924
-0.105362
-0.101891
-0.0985083
-0.0952133
-0.0920042
-0.0888799
-0.0858387
-0.0828792
-0.0800002
-0.0772
-0.0744774
-0.0718308
-0.0692589
-0.0667603
-0.0643335
-0.0619772
-0.05969
-0.0574704
-0.0553171
-0.0532288
-0.0512041
-0.0492415
-0.0473399
-0.0454978
-0.0437139
-0.041987
-0.0403156
-0.0386986
-0.0371346
-0.0356224
-0.0341608
-0.0327485
-0.0313842
-0.0300669
-0.0287952
-0.027568
-0.0263842
-0.0252425
-0.024142
-0.0230814
-0.0220597
-0.0210757
-0.0201285
-0.0192169
-0.0183399
-0.0174966
-0.0166859
-0.0159069
-0.0151586
-0.01444
-0.0137502
-0.0130884
-0.0124536
-0.0118449
-0.0112616
-0.0107027
-0.0101675
-0.00965521
-0.00916496
-0.00869603
-0.00824768
-0.00781918
-0.00740982
-0.00701891
-0.00664578
-0.00628976
-0.00595023
-0.00562655
-0.00531812
-0.00502435
-0.00474468
-0.00447853
-0.00422538
-0.00398469
-0.00375597
-0.00353871
-0.00333243
-0.00313668
-0.00295101
-0.00277498
-0.00260816
-0.00245017
-0.00230059
-0.00215907
-0.00202522
-0.00189869
-0.00177916
-0.00166628
-0.00155974
-0.00145924
-0.00136449
-0.00127521
-0.00119112
-0.00111197
-0.0010375
-0.000967485
-0.000901687
-0.000839888
-0.000781878
-0.000727456
-0.00067643
-0.000628614
-0.000583834
-0.000541922
-0.000502717
-0.000466066
-0.000431824
-0.000399851
-0.000370017
-0.000342195
-0.000316265
-0.000292115
-0.000269637
-0.000248727
-0.00022929
-0.000211233
-0.00019447
-0.000178918
-0.000164499
-0.00015114
-0.000138772
-0.000127328
-0.000116747
-0.000106971
-9.79442e-05
-8.96161e-05
-8.19376e-05
-7.48634e-05
-6.83505e-05
-6.23588e-05
-5.68506e-05
-5.17907e-05
-4.71461e-05
-4.2886e-05
-3.89814e-05
-3.54054e-05
-3.2133e-05
-2.91406e-05
-2.64064e-05
-2.39102e-05
-2.16331e-05
-1.95574e-05
-1.76668e-05
-1.59463e-05
-1.43819e-05
-1.29605e-05
-1.16701e-05
-1.04996e-05
-9.43885e-06
-8.47826e-06
-7.60914e-06
-6.82347e-06
-6.1138e-06
-5.47337e-06
-4.89592e-06
-4.37569e-06
-3.90742e-06
-3.48631e-06
-3.10793e-06
-2.76824e-06
-2.46356e-06
-2.19054e-06
-1.94609e-06
-1.72742e-06
-1.532e-06
-1.35749e-06
-1.20182e-06
-1.06308e-06
-9.39524e-07
-8.29605e-07
-7.31897e-07
-6.45143e-07
-5.68159e-07
-4.99927e-07
-4.39499e-07
-3.86042e-07
-3.38782e-07
-2.97045e-07
-2.60208e-07
-2.2776e-07
-1.99175e-07
-1.74011e-07
-1.51899e-07
-1.3248e-07
-1.15441e-07
-1.00497e-07
-8.74189e-08
-7.59664e-08
-6.59526e-08
-5.72185e-08
-4.95799e-08
-4.29313e-08
-3.71389e-08
-3.20907e-08
-2.77073e-08
-2.38947e-08
-2.05827e-08
-1.77162e-08
-1.52244e-08
-1.30749e-08
-1.12083e-08
-9.57862e-09
-8.19481e-09
-6.97914e-09
-5.94823e-09
-5.01628e-09
-4.24853e-09
-3.57021e-09
-2.96958e-09
-2.44651e-09
-2.01875e-09
-1.60001e-09
-1.25349e-09
-9.33459e-10
-6.6599e-10
-3.79575e-10
-1.57548e-10
-0.826208
-0.811556
-0.797054
-0.782704
-0.768505
-0.754457
-0.740563
-0.726821
-0.713232
-0.699797
-0.686516
-0.673388
-0.660414
-0.647594
-0.634929
-0.622418
-0.610061
-0.597859
-0.585811
-0.573916
-0.562176
-0.550589
-0.539157
-0.527877
-0.51675
-0.505776
-0.494955
-0.484285
-0.473768
-0.463401
-0.453185
-0.443119
-0.433203
-0.423435
-0.413817
-0.404346
-0.395022
-0.385845
-0.376813
-0.367927
-0.359185
-0.350586
-0.342131
-0.333817
-0.325643
-0.31761
-0.309717
-0.301961
-0.294342
-0.28686
-0.279513
-0.272301
-0.265221
-0.258274
-0.251457
-0.24477
-0.238212
-0.231782
-0.225478
-0.219299
-0.213244
-0.207312
-0.201501
-0.195811
-0.190239
-0.184785
-0.179448
-0.174225
-0.169117
-0.16412
-0.159235
-0.154459
-0.149791
-0.145231
-0.140775
-0.136424
-0.132176
-0.128028
-0.123981
-0.120032
-0.116179
-0.112422
-0.10876
-0.105189
-0.10171
-0.0983206
-0.0950192
-0.0918046
-0.0886753
-0.0856298
-0.0826667
-0.0797845
-0.0769817
-0.0742569
-0.0716088
-0.0690357
-0.0665363
-0.0641092
-0.061753
-0.0594661
-0.0572473
-0.0550951
-0.0530082
-0.050985
-0.0490244
-0.0471249
-0.0452852
-0.0435039
-0.0417796
-0.0401112
-0.0384973
-0.0369365
-0.0354277
-0.0339695
-0.0325608
-0.0312002
-0.0298865
-0.0286186
-0.0273953
-0.0262154
-0.0250777
-0.0239811
-0.0229245
-0.0219068
-0.0209268
-0.0199836
-0.019076
-0.018203
-0.0173636
-0.0165569
-0.0157817
-0.0150372
-0.0143224
-0.0136364
-0.0129783
-0.0123471
-0.0117421
-0.0111623
-0.0106069
-0.0100751
-0.00956607
-0.00907909
-0.00861335
-0.00816812
-0.00774267
-0.00733629
-0.00694828
-0.00657797
-0.0062247
-0.00588784
-0.00556676
-0.00526085
-0.00496953
-0.00469223
-0.00442838
-0.00417745
-0.00393892
-0.00371227
-0.00349702
-0.00329269
-0.00309881
-0.00291494
-0.00274064
-0.0025755
-0.00241911
-0.00227109
-0.00213104
-0.00199862
-0.00187346
-0.00175523
-0.00164361
-0.00153828
-0.00143893
-0.00134528
-0.00125705
-0.00117396
-0.00109577
-0.00102221
-0.000953065
-0.000888094
-0.000827084
-0.000769824
-0.000716114
-0.000665765
-0.000618592
-0.000574421
-0.000533086
-0.000494428
-0.000458295
-0.000424543
-0.000393035
-0.000363638
-0.000336229
-0.00031069
-0.000286907
-0.000264775
-0.000244192
-0.000225062
-0.000207294
-0.000190802
-0.000175505
-0.000161326
-0.000148191
-0.000136033
-0.000124786
-0.000114389
-0.000104785
-9.59198e-05
-8.77421e-05
-8.02041e-05
-7.32608e-05
-6.68699e-05
-6.09918e-05
-5.55894e-05
-5.06279e-05
-4.60748e-05
-4.18995e-05
-3.80737e-05
-3.45708e-05
-3.13661e-05
-2.84364e-05
-2.57603e-05
-2.33177e-05
-2.10901e-05
-1.90602e-05
-1.72118e-05
-1.55303e-05
-1.40017e-05
-1.26133e-05
-1.13533e-05
-1.02107e-05
-9.17557e-06
-8.23852e-06
-7.391e-06
-6.62509e-06
-5.93356e-06
-5.3097e-06
-4.7474e-06
-4.24102e-06
-3.7854e-06
-3.37583e-06
-3.00797e-06
-2.67786e-06
-2.38191e-06
-2.11682e-06
-1.87958e-06
-1.66747e-06
-1.47798e-06
-1.30887e-06
-1.15809e-06
-1.02377e-06
-9.04211e-07
-7.97922e-07
-7.03484e-07
-6.19668e-07
-5.45367e-07
-4.79517e-07
-4.21257e-07
-3.69747e-07
-3.24224e-07
-2.84066e-07
-2.48651e-07
-2.17465e-07
-1.89998e-07
-1.65871e-07
-1.44658e-07
-1.26057e-07
-1.09745e-07
-9.54488e-08
-8.29431e-08
-7.20184e-08
-6.24642e-08
-5.41283e-08
-4.68667e-08
-4.05364e-08
-3.50222e-08
-3.0242e-08
-2.6077e-08
-2.24623e-08
-1.93338e-08
-1.66226e-08
-1.42583e-08
-1.22399e-08
-1.04781e-08
-8.95392e-09
-7.63739e-09
-6.50104e-09
-5.53374e-09
-4.67427e-09
-3.94221e-09
-3.30681e-09
-2.74725e-09
-2.27514e-09
-1.84044e-09
-1.48699e-09
-1.14341e-09
-8.59307e-10
-5.68025e-10
-3.52322e-10
-1.20543e-10
-0.832134
-0.817356
-0.802729
-0.788253
-0.773929
-0.759757
-0.745737
-0.731871
-0.718158
-0.704599
-0.691195
-0.677945
-0.664849
-0.651908
-0.639123
-0.626493
-0.614018
-0.601698
-0.589534
-0.577525
-0.565671
-0.553973
-0.542429
-0.53104
-0.519806
-0.508726
-0.4978
-0.487028
-0.476409
-0.465943
-0.455629
-0.445467
-0.435457
-0.425598
-0.415889
-0.40633
-0.39692
-0.387658
-0.378544
-0.369577
-0.360757
-0.352082
-0.343552
-0.335165
-0.326921
-0.31882
-0.310859
-0.303039
-0.295358
-0.287815
-0.28041
-0.27314
-0.266005
-0.259005
-0.252137
-0.245401
-0.238795
-0.232319
-0.22597
-0.219749
-0.213653
-0.207682
-0.201834
-0.196107
-0.190501
-0.185015
-0.179646
-0.174393
-0.169256
-0.164233
-0.159322
-0.154521
-0.149831
-0.145248
-0.140772
-0.136401
-0.132134
-0.12797
-0.123906
-0.119942
-0.116075
-0.112305
-0.10863
-0.105048
-0.101559
-0.0981595
-0.0948493
-0.0916267
-0.08849
-0.0854379
-0.0824689
-0.0795814