/*--------------------------------*- C++ -*----------------------------------*\
| =========                 |                                                 |
| \\      /  F ield         | OpenFOAM: The Open Source CFD Toolbox           |
|  \\    /   O peration     | Version:  2.4.0                                 |
|   \\  /    A nd           | Web:      www.OpenFOAM.org                      |
|    \\/     M anipulation  |                                                 |
\*---------------------------------------------------------------------------*/
FoamFile
{
    version     2.0;
    format      ascii;
    class       volScalarField;
    location    "2";
    object      p;
}
// * * * * * * * * * * * * * * * * * * * * * * * * * * * * * * * * * * * * * //

dimensions      [1 -1 -2 0 0 0 0];

internalField   nonuniform List<scalar> 
8000
(
0.246271
0.241184
0.236589
0.232963
0.229989
0.227463
0.22531
0.2235
0.222003
0.220793
0.219844
0.219142
0.218672
0.218429
0.218408
0.218623
0.219091
0.219827
0.220669
0.22123
0.221749
0.226611
0.246557
0.275468
0.202429
-0.243328
-0.915728
-0.0244985
-0.0108014
-0.0105167
-0.0105894
-0.010621
-0.0106245
-0.0106228
-0.0106226
-0.0106235
-0.0106245
-0.0106254
-0.0106262
-0.010627
-0.0106277
-0.0106284
-0.010629
-0.0106296
-0.0106302
-0.0106307
-0.0106312
-0.0106317
-0.0106322
-0.0106326
0.0256169
0.0217058
0.0172929
0.0133966
0.0100942
0.00727971
0.00489399
0.00292006
0.00134798
0.000171797
-0.000617609
-0.00102256
-0.0010493
-0.000695065
3.73562e-05
0.00116371
0.00269716
0.00464074
0.00682946
0.00892293
0.0112765
0.0181105
0.0385536
0.0632722
-0.0140581
-0.420496
-0.931131
-0.0344354
-0.0319877
-0.0318498
-0.0319045
-0.031929
-0.0319325
-0.0319322
-0.0319331
-0.0319347
-0.0319364
-0.031938
-0.0319394
-0.0319407
-0.0319419
-0.0319431
-0.0319442
-0.0319453
-0.0319462
-0.0319472
-0.031948
-0.0319489
-0.0319496
-0.0319504
0.0365979
0.0353845
0.0341296
0.0329008
0.0316419
0.0303269
0.0289519
0.0275207
0.0260318
0.0244866
0.0228809
0.0212159
0.0194855
0.0176912
0.015825
0.0138963
0.0119066
0.00984732
0.00754982
0.00469651
0.00163276
0.00226543
0.0147571
0.0295452
-0.0527288
-0.435648
-0.899029
-0.0542087
-0.053155
-0.0531653
-0.0532075
-0.0532207
-0.0532214
-0.0532213
-0.0532224
-0.0532239
-0.0532253
-0.0532267
-0.053228
-0.0532292
-0.0532304
-0.0532315
-0.0532326
-0.0532336
-0.0532346
-0.0532356
-0.0532365
-0.0532373
-0.0532381
-0.0532389
-0.0710585
-0.071868
-0.072841
-0.073801
-0.0747309
-0.0756414
-0.0765391
-0.0774212
-0.0782879
-0.0791355
-0.0799661
-0.0807757
-0.0815684
-0.0823396
-0.0830945
-0.0838203
-0.0845169
-0.085196
-0.0860189
-0.087213
-0.0882299
-0.0852972
-0.0724197
-0.0642293
-0.156565
-0.495818
-0.747697
-0.075001
-0.0744077
-0.0745091
-0.0745495
-0.074553
-0.0745498
-0.0745488
-0.0745493
-0.07455
-0.0745506
-0.0745513
-0.0745519
-0.0745525
-0.0745531
-0.0745537
-0.0745542
-0.0745548
-0.0745554
-0.0745559
-0.0745565
-0.074557
-0.0745575
-0.074558
-0.122426
-0.122162
-0.121959
-0.121935
-0.122099
-0.122437
-0.122945
-0.123617
-0.124455
-0.125456
-0.126623
-0.127951
-0.129447
-0.131106
-0.132935
-0.134922
-0.137075
-0.139406
-0.142071
-0.145224
-0.148234
-0.14766
-0.13931
-0.140114
-0.237597
-0.531606
-0.634926
-0.0962894
-0.095712
-0.0958262
-0.0958659
-0.0958675
-0.0958634
-0.0958619
-0.0958619
-0.0958621
-0.0958622
-0.0958623
-0.0958625
-0.0958626
-0.0958627
-0.0958629
-0.095863
-0.0958632
-0.0958633
-0.0958635
-0.0958637
-0.0958638
-0.095864
-0.0958642
-0.172612
-0.172012
-0.171515
-0.171259
-0.171231
-0.171405
-0.171774
-0.172333
-0.173086
-0.174027
-0.175164
-0.176491
-0.178018
-0.179742
-0.181676
-0.183808
-0.186158
-0.188757
-0.191778
-0.195279
-0.198285
-0.197207
-0.190448
-0.203561
-0.326844
-0.593711
-0.456275
-0.117566
-0.117013
-0.11713
-0.11717
-0.117171
-0.117168
-0.117167
-0.117167
-0.117168
-0.117168
-0.117169
-0.117169
-0.11717
-0.11717
-0.117171
-0.117171
-0.117172
-0.117172
-0.117173
-0.117173
-0.117173
-0.117174
-0.117174
-0.164715
-0.165394
-0.166182
-0.166952
-0.167702
-0.168444
-0.169184
-0.169919
-0.17065
-0.171373
-0.172089
-0.172793
-0.173487
-0.174165
-0.174821
-0.175429
-0.175994
-0.176666
-0.177903
-0.179599
-0.177581
-0.160368
-0.130697
-0.195441
-0.646776
-1.39126
-0.287066
-0.138875
-0.138355
-0.13847
-0.138511
-0.138512
-0.138506
-0.138503
-0.138502
-0.138501
-0.1385
-0.138499
-0.138498
-0.138497
-0.138497
-0.138496
-0.138495
-0.138495
-0.138494
-0.138494
-0.138494
-0.138493
-0.138493
-0.138493
-0.135574
-0.137966
-0.140409
-0.142507
-0.144301
-0.145857
-0.147191
-0.148307
-0.1492
-0.149874
-0.150324
-0.150552
-0.150551
-0.150321
-0.149843
-0.149098
-0.148079
-0.146994
-0.146322
-0.145771
-0.140097
-0.116637
-0.0834039
-0.173138
-0.706032
-1.4646
-0.17314
-0.159968
-0.159653
-0.159737
-0.159773
-0.159778
-0.159776
-0.159777
-0.159778
-0.15978
-0.159781
-0.159783
-0.159784
-0.159785
-0.159786
-0.159787
-0.159788
-0.159789
-0.15979
-0.159791
-0.159792
-0.159793
-0.159794
-0.159794
-0.20902
-0.210427
-0.212019
-0.213536
-0.214977
-0.216373
-0.217736
-0.21907
-0.220372
-0.221646
-0.22289
-0.22411
-0.225304
-0.226475
-0.227614
-0.228713
-0.229778
-0.230984
-0.232701
-0.234601
-0.23242
-0.216701
-0.196366
-0.279703
-0.702937
-1.23041
-0.182766
-0.181083
-0.18102
-0.18107
-0.181091
-0.181094
-0.181094
-0.181095
-0.181097
-0.181099
-0.1811
-0.181102
-0.181103
-0.181105
-0.181106
-0.181107
-0.181108
-0.181109
-0.18111
-0.18111
-0.181111
-0.181112
-0.181113
-0.181113
-0.255856
-0.256382
-0.25704
-0.257771
-0.258575
-0.259461
-0.260427
-0.261476
-0.262604
-0.263815
-0.265107
-0.266485
-0.267946
-0.269499
-0.271133
-0.272849
-0.274656
-0.276724
-0.279342
-0.282097
-0.281115
-0.268939
-0.256863
-0.343503
-0.713368
-1.06756
-0.202967
-0.202285
-0.202378
-0.202421
-0.202427
-0.202424
-0.202424
-0.202425
-0.202426
-0.202427
-0.202428
-0.202428
-0.202429
-0.20243
-0.202431
-0.202431
-0.202432
-0.202433
-0.202433
-0.202434
-0.202434
-0.202435
-0.202435
-0.202435
-0.283299
-0.284034
-0.284866
-0.285701
-0.286548
-0.287423
-0.288327
-0.289261
-0.290222
-0.291211
-0.292224
-0.293265
-0.294328
-0.295416
-0.296515
-0.297624
-0.298754
-0.30007
-0.301776
-0.303234
-0.300562
-0.288226
-0.283056
-0.383492
-0.723483
-0.895828
-0.224209
-0.22361
-0.223723
-0.223765
-0.223767
-0.223763
-0.223762
-0.223762
-0.223762
-0.223763
-0.223763
-0.223763
-0.223763
-0.223764
-0.223764
-0.223764
-0.223764
-0.223764
-0.223764
-0.223764
-0.223764
-0.223764
-0.223764
-0.223764
-0.318482
-0.318892
-0.319416
-0.320023
-0.320711
-0.32149
-0.322357
-0.323313
-0.324356
-0.325488
-0.326706
-0.328015
-0.329409
-0.330897
-0.332462
-0.334112
-0.335871
-0.337918
-0.340376
-0.342304
-0.33961
-0.32887
-0.334832
-0.461264
-0.787173
-0.743787
-0.245536
-0.24495
-0.245067
-0.245109
-0.245111
-0.245107
-0.245105
-0.245105
-0.245105
-0.245105
-0.245105
-0.245104
-0.245104
-0.245104
-0.245104
-0.245103
-0.245103
-0.245103
-0.245102
-0.245102
-0.245102
-0.245101
-0.245101
-0.2451
-0.338556
-0.338614
-0.338802
-0.339154
-0.339665
-0.340328
-0.341138
-0.342096
-0.343199
-0.344451
-0.345849
-0.347401
-0.349103
-0.350965
-0.352975
-0.355148
-0.357534
-0.360347
-0.36363
-0.365962
-0.362593
-0.352338
-0.372093
-0.5419
-0.882588
-0.599181
-0.266849
-0.26628
-0.2664
-0.266441
-0.266443
-0.266439
-0.266438
-0.266438
-0.266438
-0.266438
-0.266438
-0.266438
-0.266438
-0.266437
-0.266437
-0.266437
-0.266437
-0.266436
-0.266436
-0.266436
-0.266435
-0.266435
-0.266434
-0.266434
-0.322442
-0.323575
-0.324854
-0.326079
-0.327245
-0.328378
-0.329483
-0.330562
-0.33161
-0.332631
-0.333618
-0.334578
-0.335503
-0.336392
-0.33722
-0.337997
-0.338862
-0.340246
-0.34206
-0.340445
-0.324717
-0.29723
-0.356668
-0.774172
-1.46857
-0.454455
-0.288181
-0.28765
-0.287766
-0.287809
-0.28781
-0.287805
-0.287802
-0.287801
-0.2878
-0.287799
-0.287798
-0.287797
-0.287796
-0.287795
-0.287794
-0.287793
-0.287792
-0.287791
-0.287789
-0.287788
-0.287787
-0.287786
-0.287785
-0.287784
-0.288221
-0.290954
-0.293782
-0.296228
-0.298331
-0.300159
-0.301736
-0.303061
-0.304134
-0.304954
-0.30552
-0.30583
-0.305884
-0.305663
-0.305145
-0.304327
-0.303432
-0.303021
-0.302841
-0.297137
-0.271346
-0.232465
-0.326494
-0.922737
-1.81793
-0.336489
-0.309367
-0.308995
-0.30909
-0.309129
-0.309133
-0.30913
-0.309129
-0.30913
-0.30913
-0.309131
-0.309131
-0.309131
-0.309131
-0.309131
-0.309131
-0.309131
-0.30913
-0.30913
-0.30913
-0.309129
-0.309128
-0.309128
-0.309127
-0.309126
-0.342553
-0.344674
-0.346965
-0.349044
-0.350927
-0.352663
-0.354272
-0.355753
-0.357109
-0.358339
-0.359446
-0.360428
-0.361291
-0.362021
-0.362607
-0.363052
-0.363548
-0.364536
-0.36573
-0.36237
-0.343169
-0.315989
-0.401533
-0.883296
-1.55063
-0.334447
-0.330595
-0.330391
-0.33046
-0.33049
-0.330494
-0.330493
-0.330493
-0.330495
-0.330496
-0.330496
-0.330497
-0.330497
-0.330498
-0.330498
-0.330498
-0.330497
-0.330497
-0.330497
-0.330496
-0.330495
-0.330494
-0.330493
-0.330492
-0.33049
-0.414571
-0.415396
-0.41638
-0.417386
-0.418412
-0.419471
-0.420569
-0.421705
-0.422882
-0.424097
-0.425357
-0.42666
-0.428014
-0.42941
-0.430844
-0.432325
-0.434037
-0.436347
-0.43892
-0.43748
-0.422675
-0.403849
-0.489952
-0.91442
-1.41831
-0.35279
-0.351785
-0.351826
-0.351871
-0.351883
-0.351883
-0.351882
-0.351883
-0.351883
-0.351884
-0.351884
-0.351884
-0.351884
-0.351884
-0.351883
-0.351883
-0.351882
-0.351881
-0.351879
-0.351878
-0.351877
-0.351875
-0.351873
-0.351871
-0.351869
-0.456151
-0.45679
-0.457494
-0.45818
-0.45886
-0.459546
-0.460242
-0.460946
-0.461659
-0.46238
-0.463111
-0.463851
-0.464603
-0.465357
-0.466108
-0.466865
-0.467793
-0.469204
-0.470704
-0.468318
-0.45404
-0.43846
-0.522855
-0.905213
-1.2962
-0.373822
-0.373156
-0.373269
-0.373312
-0.373315
-0.373311
-0.373309
-0.373309
-0.373308
-0.373307
-0.373306
-0.373305
-0.373303
-0.373302
-0.3733
-0.373298
-0.373295
-0.373293
-0.37329
-0.373288
-0.373285
-0.373282
-0.373278
-0.373275
-0.373271
-0.513238
-0.513522
-0.513856
-0.514194
-0.514539
-0.514895
-0.515268
-0.515655
-0.51606
-0.516481
-0.516921
-0.517379
-0.517858
-0.518349
-0.518846
-0.519359
-0.520036
-0.521145
-0.522287
-0.519863
-0.506984
-0.494242
-0.573522
-0.913483
-1.20986
-0.395237
-0.394601
-0.394728
-0.39477
-0.394771
-0.394766
-0.394764
-0.394762
-0.394761
-0.394759
-0.394757
-0.394754
-0.394752
-0.394749
-0.394745
-0.394742
-0.394738
-0.394734
-0.39473
-0.394725
-0.394721
-0.394716
-0.394711
-0.394705
-0.3947
-0.561378
-0.56102
-0.560644
-0.560328
-0.560072
-0.559868
-0.559715
-0.559614
-0.559565
-0.55957
-0.559628
-0.559742
-0.55991
-0.56013
-0.56039
-0.560702
-0.561188
-0.562105
-0.563157
-0.561258
-0.549962
-0.53691
-0.601625
-0.902065
-1.17824
-0.416743
-0.416096
-0.416232
-0.416273
-0.416273
-0.416266
-0.416263
-0.41626
-0.416258
-0.416254
-0.41625
-0.416246
-0.416242
-0.416237
-0.416231
-0.416225
-0.416219
-0.416213
-0.416206
-0.416198
-0.416191
-0.416183
-0.416175
-0.416166
-0.416158
-0.010633
-0.0106334
-0.0106338
-0.0106341
-0.0106345
-0.0106348
-0.0106351
-0.0106354
-0.0106357
-0.0106359
-0.0106362
-0.0106364
-0.0106367
-0.0106369
-0.0106371
-0.0106373
-0.0106375
-0.0106377
-0.0106379
-0.0106381
-0.0106383
-0.0106385
-0.0106386
-0.0106388
-0.010639
-0.0106391
-0.0106393
-0.0106394
-0.0106396
-0.0106397
-0.0106399
-0.01064
-0.0106402
-0.0106403
-0.0106404
-0.0106406
-0.0106407
-0.0106408
-0.010641
-0.0106411
-0.0106412
-0.0106413
-0.0106415
-0.0106416
-0.0106417
-0.0106418
-0.0106419
-0.010642
-0.0106422
-0.0106422
-0.031951
-0.0319517
-0.0319523
-0.0319529
-0.0319534
-0.0319539
-0.0319544
-0.0319549
-0.0319553
-0.0319557
-0.0319561
-0.0319565
-0.0319568
-0.0319571
-0.0319574
-0.0319577
-0.031958
-0.0319582
-0.0319585
-0.0319587
-0.0319589
-0.0319591
-0.0319593
-0.0319595
-0.0319596
-0.0319598
-0.0319599
-0.0319601
-0.0319602
-0.0319603
-0.0319604
-0.0319605
-0.0319606
-0.0319607
-0.0319607
-0.0319608
-0.0319609
-0.0319609
-0.031961
-0.031961
-0.031961
-0.0319611
-0.0319611
-0.0319611
-0.0319611
-0.0319611
-0.0319611
-0.0319611
-0.0319611
-0.0319612
-0.0532397
-0.0532404
-0.0532411
-0.0532417
-0.0532424
-0.053243
-0.0532436
-0.0532441
-0.0532446
-0.0532451
-0.0532456
-0.0532461
-0.0532465
-0.053247
-0.0532474
-0.0532478
-0.0532481
-0.0532485
-0.0532488
-0.0532492
-0.0532495
-0.0532498
-0.05325
-0.0532503
-0.0532506
-0.0532508
-0.0532511
-0.0532513
-0.0532515
-0.0532517
-0.0532519
-0.0532521
-0.0532523
-0.0532525
-0.0532526
-0.0532528
-0.0532529
-0.053253
-0.0532532
-0.0532533
-0.0532534
-0.0532535
-0.0532536
-0.0532537
-0.0532538
-0.0532539
-0.053254
-0.053254
-0.0532541
-0.0532542
-0.0745585
-0.074559
-0.0745595
-0.0745599
-0.0745603
-0.0745608
-0.0745612
-0.0745616
-0.074562
-0.0745623
-0.0745627
-0.074563
-0.0745634
-0.0745637
-0.074564
-0.0745643
-0.0745646
-0.0745648
-0.0745651
-0.0745654
-0.0745656
-0.0745658
-0.074566
-0.0745662
-0.0745664
-0.0745666
-0.0745667
-0.0745669
-0.074567
-0.0745672
-0.0745673
-0.0745674
-0.0745675
-0.0745676
-0.0745677
-0.0745678
-0.0745679
-0.0745679
-0.074568
-0.074568
-0.0745681
-0.0745681
-0.0745681
-0.0745681
-0.0745681
-0.0745681
-0.0745681
-0.0745681
-0.0745681
-0.0745681
-0.0958644
-0.0958645
-0.0958647
-0.0958649
-0.0958651
-0.0958652
-0.0958654
-0.0958656
-0.0958657
-0.0958659
-0.0958661
-0.0958662
-0.0958664
-0.0958665
-0.0958666
-0.0958668
-0.0958669
-0.095867
-0.0958672
-0.0958673
-0.0958674
-0.0958675
-0.0958676
-0.0958677
-0.0958677
-0.0958678
-0.0958679
-0.0958679
-0.095868
-0.095868
-0.0958681
-0.0958681
-0.0958682
-0.0958682
-0.0958682
-0.0958682
-0.0958682
-0.0958682
-0.0958682
-0.0958682
-0.0958682
-0.0958681
-0.0958681
-0.095868
-0.095868
-0.0958679
-0.0958679
-0.0958678
-0.0958678
-0.0958677
-0.117175
-0.117175
-0.117175
-0.117176
-0.117176
-0.117176
-0.117177
-0.117177
-0.117177
-0.117178
-0.117178
-0.117178
-0.117178
-0.117178
-0.117179
-0.117179
-0.117179
-0.117179
-0.117179
-0.11718
-0.11718
-0.11718
-0.11718
-0.11718
-0.11718
-0.11718
-0.11718
-0.11718
-0.11718
-0.117181
-0.117181
-0.117181
-0.117181
-0.117181
-0.117181
-0.117181
-0.11718
-0.11718
-0.11718
-0.11718
-0.11718
-0.11718
-0.11718
-0.11718
-0.11718
-0.11718
-0.11718
-0.117179
-0.117179
-0.117179
-0.138493
-0.138492
-0.138492
-0.138492
-0.138492
-0.138492
-0.138491
-0.138491
-0.138491
-0.138491
-0.138491
-0.138491
-0.138491
-0.138491
-0.13849
-0.13849
-0.13849
-0.13849
-0.13849
-0.13849
-0.13849
-0.13849
-0.13849
-0.138489
-0.138489
-0.138489
-0.138489
-0.138489
-0.138489
-0.138489
-0.138488
-0.138488
-0.138488
-0.138488
-0.138488
-0.138488
-0.138487
-0.138487
-0.138487
-0.138487
-0.138486
-0.138486
-0.138486
-0.138486
-0.138485
-0.138485
-0.138485
-0.138485
-0.138484
-0.138484
-0.159795
-0.159796
-0.159796
-0.159797
-0.159797
-0.159798
-0.159798
-0.159798
-0.159799
-0.159799
-0.159799
-0.1598
-0.1598
-0.1598
-0.1598
-0.159801
-0.159801
-0.159801
-0.159801
-0.159801
-0.159801
-0.159801
-0.159801
-0.159801
-0.159801
-0.159801
-0.159801
-0.159801
-0.159801
-0.159801
-0.159801
-0.1598
-0.1598
-0.1598
-0.1598
-0.1598
-0.159799
-0.159799
-0.159799
-0.159799
-0.159798
-0.159798
-0.159798
-0.159797
-0.159797
-0.159797
-0.159796
-0.159796
-0.159796
-0.159795
-0.181114
-0.181114
-0.181115
-0.181115
-0.181115
-0.181116
-0.181116
-0.181116
-0.181116
-0.181116
-0.181117
-0.181117
-0.181117
-0.181117
-0.181117
-0.181117
-0.181117
-0.181117
-0.181116
-0.181116
-0.181116
-0.181116
-0.181116
-0.181116
-0.181115
-0.181115
-0.181115
-0.181115
-0.181114
-0.181114
-0.181114
-0.181113
-0.181113
-0.181112
-0.181112
-0.181112
-0.181111
-0.181111
-0.18111
-0.18111
-0.181109
-0.181109
-0.181108
-0.181108
-0.181107
-0.181107
-0.181106
-0.181106
-0.181105
-0.181104
-0.202436
-0.202436
-0.202436
-0.202436
-0.202437
-0.202437
-0.202437
-0.202437
-0.202437
-0.202437
-0.202437
-0.202437
-0.202437
-0.202437
-0.202437
-0.202436
-0.202436
-0.202436
-0.202436
-0.202436
-0.202435
-0.202435
-0.202435
-0.202434
-0.202434
-0.202433
-0.202433
-0.202433
-0.202432
-0.202432
-0.202431
-0.202431
-0.20243
-0.202429
-0.202429
-0.202428
-0.202428
-0.202427
-0.202426
-0.202426
-0.202425
-0.202424
-0.202423
-0.202423
-0.202422
-0.202421
-0.20242
-0.20242
-0.202419
-0.202418
-0.223764
-0.223764
-0.223764
-0.223764
-0.223764
-0.223763
-0.223763
-0.223763
-0.223763
-0.223762
-0.223762
-0.223762
-0.223761
-0.223761
-0.22376
-0.22376
-0.223759
-0.223759
-0.223758
-0.223758
-0.223757
-0.223756
-0.223756
-0.223755
-0.223754
-0.223754
-0.223753
-0.223752
-0.223752
-0.223751
-0.22375
-0.223749
-0.223748
-0.223747
-0.223746
-0.223746
-0.223745
-0.223744
-0.223743
-0.223742
-0.223741
-0.22374
-0.223739
-0.223738
-0.223737
-0.223736
-0.223735
-0.223733
-0.223732
-0.223731
-0.2451
-0.245099
-0.245099
-0.245098
-0.245098
-0.245097
-0.245097
-0.245096
-0.245095
-0.245095
-0.245094
-0.245093
-0.245092
-0.245092
-0.245091
-0.24509
-0.245089
-0.245088
-0.245087
-0.245086
-0.245085
-0.245084
-0.245083
-0.245082
-0.245081
-0.24508
-0.245079
-0.245078
-0.245077
-0.245075
-0.245074
-0.245073
-0.245072
-0.245071
-0.245069
-0.245068
-0.245067
-0.245065
-0.245064
-0.245063
-0.245061
-0.24506
-0.245059
-0.245057
-0.245056
-0.245054
-0.245053
-0.245051
-0.24505
-0.245049
-0.266433
-0.266432
-0.266432
-0.266431
-0.26643
-0.26643
-0.266429
-0.266428
-0.266427
-0.266426
-0.266425
-0.266424
-0.266423
-0.266422
-0.266421
-0.26642
-0.266419
-0.266417
-0.266416
-0.266415
-0.266414
-0.266412
-0.266411
-0.26641
-0.266408
-0.266407
-0.266405
-0.266404
-0.266402
-0.266401
-0.266399
-0.266398
-0.266396
-0.266394
-0.266393
-0.266391
-0.266389
-0.266388
-0.266386
-0.266384
-0.266382
-0.266381
-0.266379
-0.266377
-0.266375
-0.266373
-0.266371
-0.266369
-0.266368
-0.266366
-0.287783
-0.287781
-0.28778
-0.287779
-0.287777
-0.287776
-0.287775
-0.287773
-0.287772
-0.28777
-0.287769
-0.287767
-0.287766
-0.287764
-0.287762
-0.287761
-0.287759
-0.287757
-0.287755
-0.287753
-0.287752
-0.28775
-0.287748
-0.287746
-0.287744
-0.287742
-0.28774
-0.287738
-0.287735
-0.287733
-0.287731
-0.287729
-0.287727
-0.287725
-0.287722
-0.28772
-0.287718
-0.287715
-0.287713
-0.287711
-0.287708
-0.287706
-0.287704
-0.287701
-0.287699
-0.287696
-0.287694
-0.287691
-0.287689
-0.287686
-0.309125
-0.309124
-0.309123
-0.309121
-0.30912
-0.309119
-0.309117
-0.309116
-0.309114
-0.309112
-0.309111
-0.309109
-0.309107
-0.309105
-0.309103
-0.309101
-0.309099
-0.309097
-0.309095
-0.309092
-0.30909
-0.309088
-0.309085
-0.309083
-0.30908
-0.309078
-0.309075
-0.309072
-0.30907
-0.309067
-0.309064
-0.309062
-0.309059
-0.309056
-0.309053
-0.30905
-0.309047
-0.309044
-0.309041
-0.309038
-0.309035
-0.309032
-0.309029
-0.309026
-0.309023
-0.30902
-0.309017
-0.309014
-0.30901
-0.309007
-0.330489
-0.330487
-0.330486
-0.330484
-0.330482
-0.33048
-0.330478
-0.330476
-0.330473
-0.330471
-0.330469
-0.330466
-0.330463
-0.330461
-0.330458
-0.330455
-0.330452
-0.330449
-0.330446
-0.330443
-0.33044
-0.330436
-0.330433
-0.33043
-0.330426
-0.330423
-0.330419
-0.330416
-0.330412
-0.330409
-0.330405
-0.330401
-0.330397
-0.330394
-0.33039
-0.330386
-0.330382
-0.330378
-0.330374
-0.33037
-0.330367
-0.330363
-0.330359
-0.330355
-0.330351
-0.330347
-0.330343
-0.330339
-0.330335
-0.33033
-0.351867
-0.351864
-0.351862
-0.351859
-0.351856
-0.351853
-0.35185
-0.351847
-0.351844
-0.351841
-0.351837
-0.351833
-0.35183
-0.351826
-0.351822
-0.351818
-0.351814
-0.35181
-0.351806
-0.351802
-0.351797
-0.351793
-0.351788
-0.351784
-0.351779
-0.351775
-0.35177
-0.351765
-0.351761
-0.351756
-0.351751
-0.351746
-0.351741
-0.351736
-0.351731
-0.351726
-0.351721
-0.351716
-0.351711
-0.351706
-0.351701
-0.351696
-0.35169
-0.351685
-0.35168
-0.351675
-0.35167
-0.351665
-0.35166
-0.351655
-0.373267
-0.373264
-0.373259
-0.373255
-0.373251
-0.373246
-0.373242
-0.373237
-0.373232
-0.373227
-0.373222
-0.373217
-0.373211
-0.373206
-0.3732
-0.373195
-0.373189
-0.373183
-0.373177
-0.373171
-0.373165
-0.373159
-0.373153
-0.373147
-0.37314
-0.373134
-0.373128
-0.373121
-0.373115
-0.373108
-0.373102
-0.373095
-0.373089
-0.373082
-0.373076
-0.373069
-0.373062
-0.373056
-0.373049
-0.373042
-0.373036
-0.373029
-0.373022
-0.373016
-0.373009
-0.373003
-0.372996
-0.372989
-0.372983
-0.372976
-0.394694
-0.394688
-0.394682
-0.394675
-0.394669
-0.394662
-0.394655
-0.394648
-0.394641
-0.394634
-0.394627
-0.394619
-0.394611
-0.394604
-0.394596
-0.394588
-0.39458
-0.394571
-0.394563
-0.394555
-0.394547
-0.394538
-0.39453
-0.394521
-0.394513
-0.394504
-0.394495
-0.394487
-0.394478
-0.394469
-0.39446
-0.394452
-0.394443
-0.394434
-0.394426
-0.394417
-0.394408
-0.394399
-0.394391
-0.394382
-0.394373
-0.394365
-0.394356
-0.394348
-0.394339
-0.394331
-0.394322
-0.394314
-0.394306
-0.394298
-0.416149
-0.416139
-0.41613
-0.41612
-0.41611
-0.4161
-0.41609
-0.41608
-0.416069
-0.416058
-0.416047
-0.416036
-0.416025
-0.416014
-0.416003
-0.415991
-0.41598
-0.415968
-0.415957
-0.415945
-0.415933
-0.415922
-0.41591
-0.415898
-0.415886
-0.415875
-0.415863
-0.415851
-0.415839
-0.415828
-0.415816
-0.415804
-0.415793
-0.415781
-0.41577
-0.415758
-0.415747
-0.415736
-0.415724
-0.415713
-0.415702
-0.415691
-0.41568
-0.415669
-0.415659
-0.415648
-0.415637
-0.415627
-0.415617
-0.415606
-0.0106423
-0.0106423
-0.0106424
-0.0106424
-0.0106425
-0.0106426
-0.0106426
-0.0106427
-0.0106428
-0.0106428
-0.0106429
-0.010643
-0.010643
-0.0106431
-0.0106432
-0.0106432
-0.0106433
-0.0106434
-0.0106434
-0.0106435
-0.0106436
-0.0106436
-0.0106437
-0.0106438
-0.0106438
-0.0106439
-0.010644
-0.010644
-0.0106441
-0.0106442
-0.0106442
-0.0106443
-0.0106444
-0.0106444
-0.0106445
-0.0106446
-0.0106446
-0.0106447
-0.0106448
-0.0106448
-0.0106449
-0.010645
-0.010645
-0.0106451
-0.0106452
-0.0106453
-0.0106453
-0.0106454
-0.0106455
-0.0106455
-0.0106456
-0.0106457
-0.0106457
-0.0106458
-0.0106459
-0.0106459
-0.010646
-0.0106461
-0.0106461
-0.0106462
-0.0106463
-0.0106463
-0.0106464
-0.0106465
-0.0106465
-0.0106466
-0.0106467
-0.0106467
-0.0106468
-0.0106469
-0.0106469
-0.010647
-0.0106471
-0.0106471
-0.0106472
-0.0106472
-0.0106473
-0.0106474
-0.0106474
-0.0106475
-0.0106476
-0.0106476
-0.0106477
-0.0106477
-0.0106478
-0.0106479
-0.0106479
-0.010648
-0.010648
-0.0106481
-0.0106481
-0.0106482
-0.0106483
-0.0106483
-0.0106484
-0.0106484
-0.0106485
-0.0106485
-0.0106486
-0.0106486
-0.0106487
-0.0106487
-0.0106488
-0.0106488
-0.0106489
-0.0106489
-0.010649
-0.010649
-0.0106491
-0.0106491
-0.0106492
-0.0106492
-0.0106493
-0.0106493
-0.0106493
-0.0106494
-0.0106494
-0.0106495
-0.0106495
-0.0106495
-0.0106496
-0.0106496
-0.0106497
-0.0106497
-0.0106497
-0.0106498
-0.0106498
-0.0106498
-0.0106499
-0.0106499
-0.0106499
-0.01065
-0.01065
-0.01065
-0.0106501
-0.0106501
-0.0106501
-0.0106502
-0.0106502
-0.0106502
-0.0106502
-0.0106503
-0.0106503
-0.0106503
-0.0106503
-0.0106504
-0.0106504
-0.0106504
-0.0106504
-0.0106505
-0.0106505
-0.0106505
-0.0106505
-0.0106505
-0.0106506
-0.0106506
-0.0106506
-0.0106506
-0.0106506
-0.0106506
-0.0106507
-0.0106507
-0.0106507
-0.0106507
-0.0106507
-0.0106507
-0.0106507
-0.0106508
-0.0106508
-0.0106508
-0.0106508
-0.0106508
-0.0106508
-0.0106508
-0.0106508
-0.0106509
-0.0106509
-0.0106509
-0.0106509
-0.0106509
-0.0106509
-0.0106509
-0.0106509
-0.0106509
-0.010651
-0.010651
-0.010651
-0.010651
-0.010651
-0.010651
-0.010651
-0.010651
-0.010651
-0.010651
-0.0106511
-0.0106511
-0.0106511
-0.0106511
-0.0106511
-0.0106511
-0.0106511
-0.0106511
-0.0106512
-0.0106512
-0.0106512
-0.0106512
-0.0106512
-0.0106512
-0.0106512
-0.0106513
-0.0106513
-0.0106513
-0.0106513
-0.0106513
-0.0106513
-0.0106514
-0.0106514
-0.0106514
-0.0106514
-0.0106514
-0.0106515
-0.0106515
-0.0106515
-0.0106515
-0.0106515
-0.0106516
-0.0106516
-0.0106516
-0.0106516
-0.0106517
-0.0106517
-0.0106517
-0.0106517
-0.0106518
-0.0106518
-0.0106518
-0.0106518
-0.0106519
-0.0106519
-0.0106519
-0.010652
-0.010652
-0.010652
-0.0106521
-0.0106521
-0.0106521
-0.0106521
-0.0106522
-0.0106522
-0.0106522
-0.0106523
-0.0106523
-0.0106523
-0.0106524
-0.0106524
-0.0106524
-0.0106525
-0.0106525
-0.0106525
-0.0106526
-0.0106526
-0.0106526
-0.0106527
-0.0106527
-0.0106527
-0.0106528
-0.0106528
-0.0106528
-0.0106529
-0.0106529
-0.0106529
-0.010653
-0.010653
-0.010653
-0.010653
-0.0106531
-0.0106531
-0.0106531
-0.0106531
-0.0106532
-0.0106532
-0.0106532
-0.0106532
-0.0106532
-0.0106533
-0.0106533
-0.0106533
-0.0106533
-0.0106533
-0.0106533
-0.0106533
-0.0106533
-0.0106533
-0.0106533
-0.0106533
-0.0106533
-0.0106533
-0.0106533
-0.0106533
-0.0106533
-0.0319612
-0.0319613
-0.0319613
-0.0319613
-0.0319613
-0.0319613
-0.0319613
-0.0319613
-0.0319612
-0.0319612
-0.0319612
-0.0319612
-0.0319612
-0.0319612
-0.0319612
-0.0319611
-0.0319611
-0.0319611
-0.0319611
-0.031961
-0.031961
-0.031961
-0.031961
-0.0319609
-0.0319609
-0.0319609
-0.0319608
-0.0319608
-0.0319607
-0.0319607
-0.0319606
-0.0319606
-0.0319605
-0.0319605
-0.0319604
-0.0319604
-0.0319603
-0.0319603
-0.0319602
-0.0319602
-0.0319601
-0.03196
-0.03196
-0.0319599
-0.0319599
-0.0319598
-0.0319597
-0.0319596
-0.0319596
-0.0319595
-0.0319594
-0.0319594
-0.0319593
-0.0319592
-0.0319591
-0.031959
-0.031959
-0.0319589
-0.0319588
-0.0319587
-0.0319586
-0.0319585
-0.0319584
-0.0319584
-0.0319583
-0.0319582
-0.0319581
-0.031958
-0.0319579
-0.0319578
-0.0319577
-0.0319576
-0.0319575
-0.0319574
-0.0319573
-0.0319572
-0.0319571
-0.031957
-0.0319569
-0.0319568
-0.0319567
-0.0319566
-0.0319565
-0.0319564
-0.0319563
-0.0319562
-0.0319561
-0.031956
-0.0319559
-0.0319558
-0.0319556
-0.0319555
-0.0319554
-0.0319553
-0.0319552
-0.0319551
-0.031955
-0.0319549
-0.0319548
-0.0319547
-0.0319546
-0.0319544
-0.0319543
-0.0319542
-0.0319541
-0.031954
-0.0319539
-0.0319538
-0.0319537
-0.0319536
-0.0319535
-0.0319534
-0.0319532
-0.0319531
-0.031953
-0.0319529
-0.0319528
-0.0319527
-0.0319526
-0.0319525
-0.0319524
-0.0319523
-0.0319522
-0.0319521
-0.031952
-0.0319519
-0.0319518
-0.0319517
-0.0319516
-0.0319515
-0.0319514
-0.0319513
-0.0319512
-0.0319512
-0.0319511
-0.031951
-0.0319509
-0.0319508
-0.0319507
-0.0319506
-0.0319506
-0.0319505
-0.0319504
-0.0319503
-0.0319503
-0.0319502
-0.0319501
-0.0319501
-0.03195
-0.0319499
-0.0319499
-0.0319498
-0.0319497
-0.0319497
-0.0319496
-0.0319496
-0.0319495
-0.0319495
-0.0319494
-0.0319494
-0.0319493
-0.0319493
-0.0319493
-0.0319492
-0.0319492
-0.0319492
-0.0319491
-0.0319491
-0.0319491
-0.0319491
-0.0319491
-0.031949
-0.031949
-0.031949
-0.031949
-0.031949
-0.031949
-0.031949
-0.031949
-0.031949
-0.031949
-0.031949
-0.031949
-0.0319491
-0.0319491
-0.0319491
-0.0319491
-0.0319492
-0.0319492
-0.0319492
-0.0319492
-0.0319493
-0.0319493
-0.0319494
-0.0319494
-0.0319495
-0.0319495
-0.0319496
-0.0319496
-0.0319497
-0.0319498
-0.0319498
-0.0319499
-0.03195
-0.03195
-0.0319501
-0.0319502
-0.0319503
-0.0319503
-0.0319504
-0.0319505
-0.0319506
-0.0319507
-0.0319508
-0.0319509
-0.031951
-0.0319511
-0.0319512
-0.0319513
-0.0319514
-0.0319515
-0.0319517
-0.0319518
-0.0319519
-0.031952
-0.0319521
-0.0319523
-0.0319524
-0.0319525
-0.0319526
-0.0319528
-0.0319529
-0.031953
-0.0319532
-0.0319533
-0.0319534
-0.0319536
-0.0319537
-0.0319539
-0.031954
-0.0319541
-0.0319543
-0.0319544
-0.0319546
-0.0319547
-0.0319549
-0.031955
-0.0319552
-0.0319553
-0.0319555
-0.0319556
-0.0319557
-0.0319559
-0.031956
-0.0319562
-0.0319563
-0.0319565
-0.0319566
-0.0319567
-0.0319569
-0.031957
-0.0319572
-0.0319573
-0.0319574
-0.0319576
-0.0319577
-0.0319578
-0.031958
-0.0319581
-0.0319582
-0.0319583
-0.0319584
-0.0319585
-0.0319587
-0.0319588
-0.0319589
-0.031959
-0.0319591
-0.0319592
-0.0319592
-0.0319593
-0.0319594
-0.0319595
-0.0319596
-0.0319596
-0.0319597
-0.0319597
-0.0319598
-0.0319598
-0.0319599
-0.0319599
-0.03196
-0.03196
-0.03196
-0.03196
-0.03196
-0.03196
-0.03196
-0.03196
-0.03196
-0.0532542
-0.0532542
-0.0532542
-0.0532543
-0.0532543
-0.0532544
-0.0532544
-0.0532544
-0.0532545
-0.0532545
-0.0532545
-0.0532546
-0.0532546
-0.0532546
-0.0532547
-0.0532547
-0.0532547
-0.0532547
-0.0532548
-0.0532548
-0.0532548
-0.0532548
-0.0532548
-0.0532549
-0.0532549
-0.0532549
-0.0532549
-0.0532549
-0.0532549
-0.0532549
-0.0532549
-0.053255
-0.053255
-0.053255
-0.053255
-0.053255
-0.053255
-0.053255
-0.053255
-0.053255
-0.053255
-0.0532549
-0.0532549
-0.0532549
-0.0532549
-0.0532549
-0.0532549
-0.0532549
-0.0532549
-0.0532549
-0.0532548
-0.0532548
-0.0532548
-0.0532548
-0.0532548
-0.0532547
-0.0532547
-0.0532547
-0.0532547
-0.0532546
-0.0532546
-0.0532546
-0.0532545
-0.0532545
-0.0532545
-0.0532544
-0.0532544
-0.0532544
-0.0532543
-0.0532543
-0.0532542
-0.0532542
-0.0532542
-0.0532541
-0.0532541
-0.053254
-0.053254
-0.0532539
-0.0532539
-0.0532538
-0.0532538
-0.0532537
-0.0532537
-0.0532536
-0.0532536
-0.0532535
-0.0532534
-0.0532534
-0.0532533
-0.0532533
-0.0532532
-0.0532532
-0.0532531
-0.053253
-0.053253
-0.0532529
-0.0532528
-0.0532528
-0.0532527
-0.0532526
-0.0532526
-0.0532525
-0.0532524
-0.0532524
-0.0532523
-0.0532522
-0.0532522
-0.0532521
-0.053252
-0.053252
-0.0532519
-0.0532518
-0.0532518
-0.0532517
-0.0532516
-0.0532515
-0.0532515
-0.0532514
-0.0532513
-0.0532513
-0.0532512
-0.0532511
-0.0532511
-0.053251
-0.0532509
-0.0532508
-0.0532508
-0.0532507
-0.0532506
-0.0532506
-0.0532505
-0.0532504
-0.0532504
-0.0532503
-0.0532503
-0.0532502
-0.0532501
-0.0532501
-0.05325
-0.05325
-0.0532499
-0.0532498
-0.0532498
-0.0532497
-0.0532497
-0.0532496
-0.0532496
-0.0532495
-0.0532495
-0.0532495
-0.0532494
-0.0532494
-0.0532493
-0.0532493
-0.0532493
-0.0532492
-0.0532492
-0.0532492
-0.0532491
-0.0532491
-0.0532491
-0.0532491
-0.053249
-0.053249
-0.053249
-0.053249
-0.053249
-0.053249
-0.053249
-0.053249
-0.053249
-0.053249
-0.053249
-0.053249
-0.053249
-0.053249
-0.0532491
-0.0532491
-0.0532491
-0.0532491
-0.0532492
-0.0532492
-0.0532493
-0.0532493
-0.0532493
-0.0532494
-0.0532494
-0.0532495
-0.0532496
-0.0532496
-0.0532497
-0.0532498
-0.0532498
-0.0532499
-0.05325
-0.0532501
-0.0532502
-0.0532503
-0.0532503
-0.0532504
-0.0532505
-0.0532507
-0.0532508
-0.0532509
-0.053251
-0.0532511
-0.0532512
-0.0532514
-0.0532515
-0.0532516
-0.0532518
-0.0532519
-0.0532521
-0.0532522
-0.0532524
-0.0532525
-0.0532527
-0.0532529
-0.053253
-0.0532532
-0.0532534
-0.0532536
-0.0532537
-0.0532539
-0.0532541
-0.0532543
-0.0532545
-0.0532547
-0.0532549
-0.0532551
-0.0532553
-0.0532555
-0.0532557