/*--------------------------------*- C++ -*----------------------------------*\
| =========                 |                                                 |
| \\      /  F ield         | OpenFOAM: The Open Source CFD Toolbox           |
|  \\    /   O peration     | Version:  2.4.0                                 |
|   \\  /    A nd           | Web:      www.OpenFOAM.org                      |
|    \\/     M anipulation  |                                                 |
\*---------------------------------------------------------------------------*/
FoamFile
{
    version     2.0;
    format      ascii;
    class       volScalarField;
    location    "2";
    object      p_rgh;
}
// * * * * * * * * * * * * * * * * * * * * * * * * * * * * * * * * * * * * * //

dimensions      [1 -1 -2 0 0 0 0];

internalField   nonuniform List<scalar> 
8000
(
0.921445
0.916357
0.911762
0.908136
0.905163
0.902636
0.900483
0.898673
0.897176
0.895966
0.895017
0.894315
0.893845
0.893603
0.893581
0.893796
0.894264
0.895
0.895842
0.896403
0.896922
0.901783
0.921728
0.950637
0.877595
0.431842
-0.327138
-0.0073402
0.000381994
0.000666685
0.000594061
0.000562366
0.000558901
0.000560586
0.000560772
0.000559908
0.000558893
0.000557988
0.000557174
0.000556414
0.000555698
0.000555021
0.000554383
0.000553781
0.000553212
0.000552676
0.000552168
0.000551687
0.000551232
0.000550801
2.05114
2.04723
2.04281
2.03892
2.03561
2.0328
2.03041
2.02844
2.02687
2.02569
2.0249
2.0245
2.02447
2.02482
2.02556
2.02668
2.02822
2.03016
2.03235
2.03444
2.0368
2.04363
2.06407
2.08878
2.01144
1.60499
0.593157
0.00138332
0.00156261
0.00170042
0.0016457
0.0016212
0.00161773
0.00161797
0.00161708
0.00161546
0.00161378
0.00161225
0.00161083
0.00160951
0.00160826
0.00160709
0.00160598
0.00160494
0.00160396
0.00160304
0.00160216
0.00160134
0.00160057
0.00159984
3.41246
3.41125
3.41
3.40877
3.40751
3.40619
3.40482
3.40339
3.4019
3.40035
3.39875
3.39708
3.39535
3.39356
3.39169
3.38976
3.38777
3.38571
3.38342
3.38056
3.3775
3.37813
3.39061
3.40539
3.3231
2.94017
1.40064
0.00255469
0.00276217
0.00275182
0.00270958
0.0026963
0.00269561
0.00269569
0.00269464
0.00269314
0.00269167
0.0026903
0.00268901
0.00268778
0.0026866
0.00268547
0.0026844
0.00268337
0.00268239
0.00268145
0.00268055
0.00267969
0.00267887
0.00267808
4.65515
4.65434
4.65337
4.65241
4.65148
4.65057
4.64967
4.64879
4.64792
4.64708
4.64625
4.64544
4.64464
4.64387
4.64312
4.64239
4.6417
4.64102
4.64019
4.639
4.63798
4.64091
4.65377
4.66194
4.56957
4.23021
1.7051
0.00335355
0.00387632
0.00377487
0.00373434
0.00373087
0.003734
0.00373501
0.00373455
0.00373382
0.00373315
0.00373254
0.00373194
0.00373134
0.00373074
0.00373015
0.00372957
0.00372899
0.00372843
0.00372788
0.00372734
0.00372681
0.00372629
0.00372579
5.95413
5.9544
5.9546
5.95462
5.95446
5.95412
5.95361
5.95294
5.9521
5.9511
5.94994
5.94861
5.94711
5.94545
5.94362
5.94164
5.93948
5.93715
5.93449
5.93133
5.92832
5.92889
5.93722
5.93639
5.83884
5.54462
1.74605
0.00437551
0.00493884
0.00482456
0.00478478
0.00478317
0.0047872
0.00478871
0.00478873
0.00478851
0.00478837
0.00478826
0.00478815
0.00478803
0.00478789
0.00478775
0.0047876
0.00478744
0.00478728
0.00478711
0.00478694
0.00478677
0.00478659
0.00478642
7.25429
7.25489
7.25539
7.25565
7.25567
7.2555
7.25513
7.25457
7.25382
7.25288
7.25174
7.25042
7.24889
7.24716
7.24523
7.2431
7.24075
7.23815
7.23513
7.23162
7.22861
7.22968
7.23642
7.22327
7.09988
6.83237
1.27076
0.00545349
0.00600516
0.00588739
0.00584787
0.00584623
0.00584976
0.00585071
0.00585023
0.00584956
0.005849
0.0058485
0.00584802
0.00584754
0.00584706
0.0058466
0.00584614
0.0058457
0.00584526
0.00584483
0.00584441
0.005844
0.0058436
0.00584321
8.61254
8.61186
8.61107
8.6103
8.60955
8.60881
8.60807
8.60733
8.6066
8.60588
8.60516
8.60446
8.60376
8.60309
8.60243
8.60182
8.60126
8.60059
8.59935
8.59765
8.59966
8.61686
8.64651
8.58171
8.13028
7.38036
0.495755
0.00650972
0.00702985
0.00691442
0.0068729
0.0068725
0.00687823
0.00688123
0.00688256
0.00688353
0.00688448
0.0068854
0.00688624
0.00688699
0.00688767
0.00688828
0.00688883
0.00688933
0.00688978
0.00689019
0.00689055
0.00689088
0.00689118
0.00689145
9.99202
9.98963
9.98719
9.98509
9.9833
9.98174
9.98041
9.97929
9.9784
9.97772
9.97727
9.97705
9.97705
9.97728
9.97776
9.9785
9.97952
9.9806
9.98127
9.98182
9.98749
10.0109
10.0441
9.95434
9.42147
7.84333
0.061933
0.00778315
0.00809863
0.00801365
0.00797769
0.0079735
0.00797482
0.00797442
0.00797291
0.00797127
0.00796978
0.00796841
0.00796713
0.0079659
0.00796474
0.00796364
0.0079626
0.00796162
0.00796069
0.00795981
0.00795897
0.00795819
0.00795745
0.00795675
11.2689
11.2675
11.2659
11.2644
11.263
11.2616
11.2602
11.2589
11.2576
11.2563
11.2551
11.2538
11.2526
11.2515
11.2503
11.2492
11.2482
11.247
11.2452
11.2433
11.2455
11.2612
11.2815
11.1981
10.7749
7.3198
0.0135046
0.00903463
0.00909845
0.00904765
0.00902707
0.0090243
0.00902405
0.00902275
0.00902091
0.0090191
0.00901746
0.00901596
0.00901457
0.00901328
0.00901208
0.00901097
0.00900994
0.00900899
0.00900811
0.0090073
0.00900656
0.00900587
0.00900524
0.00900467
12.5724
12.5719
12.5713
12.5705
12.5697
12.5688
12.5679
12.5668
12.5657
12.5645
12.5632
12.5618
12.5603
12.5588
12.5572
12.5554
12.5536
12.5516
12.5489
12.5462
12.5472
12.5593
12.5713
12.4846
12.1147
6.68222
0.0100536
0.0101998
0.0101063
0.0100635
0.0100581
0.0100604
0.0100609
0.0100601
0.010059
0.010058
0.0100571
0.0100562
0.0100554
0.0100547
0.0100539
0.0100533
0.0100526
0.010052
0.0100515
0.0100509
0.0100505
0.01005
0.0100496
0.0100493
13.8953
13.8946
13.8938
13.8929
13.8921
13.8912
13.8903
13.8894
13.8884
13.8874
13.8864
13.8854
13.8843
13.8832
13.8821
13.881
13.8799
13.8786
13.8769
13.8754
13.8781
13.8904
13.8955
13.7949
13.4544
5.76216
0.0107133
0.0112415
0.0111286
0.0110868
0.0110843
0.011088
0.0110894
0.0110893
0.0110889
0.0110886
0.0110884
0.0110882
0.011088
0.0110879
0.0110877
0.0110876
0.0110875
0.0110874
0.0110873
0.0110872
0.0110872
0.0110872
0.0110872
0.0110873
15.2105
15.2101
15.2096
15.209
15.2083
15.2075
15.2066
15.2057
15.2046
15.2035
15.2023
15.201
15.1996
15.1981
15.1965
15.1949
15.1931
15.1911
15.1886
15.1867
15.1893
15.2
15.194
15.0673
14.7403
4.50237
0.0116923
0.0122685
0.012151
0.0121093
0.0121074
0.0121116
0.0121132
0.0121134
0.0121134
0.0121135
0.0121136
0.0121138
0.012114
0.0121143
0.0121145
0.0121148
0.0121151
0.0121154
0.0121157
0.0121161
0.0121165
0.0121169
0.0121173
0.0121177
16.5408
16.5407
16.5405
16.5402
16.5397
16.539
16.5382
16.5372
16.5361
16.5349
16.5335
16.5319
16.5302
16.5284
16.5264
16.5242
16.5218
16.519
16.5157
16.5134
16.5167
16.5269
16.507
16.3369
15.9937
3.07716
0.0127376
0.013305
0.0131854
0.0131437
0.0131419
0.0131458
0.0131473
0.0131473
0.0131471
0.0131471
0.0131471
0.0131472
0.0131474
0.0131475
0.0131477
0.013148
0.0131483
0.0131486
0.013149
0.0131494
0.0131498
0.0131503
0.0131508
0.0131513
17.9072
17.9061
17.9048
17.9036
17.9024
17.9013
17.9002
17.8991
17.8981
17.897
17.8961
17.8951
17.8942
17.8933
17.8925
17.8917
17.8908
17.8894
17.8876
17.8892
17.9049
17.9323
17.8728
17.455
16.7505
1.38891
0.0137712
0.0143021
0.0141856
0.014143
0.0141419
0.0141472
0.01415
0.0141511
0.014152
0.014153
0.0141541
0.0141551
0.0141561
0.0141571
0.0141581
0.0141592
0.0141602
0.0141612
0.0141623
0.0141634
0.0141645
0.0141656
0.0141668
0.014168
19.2918
19.2891
19.2862
19.2838
19.2817
19.2799
19.2783
19.277
19.2759
19.2751
19.2745
19.2742
19.2741
19.2744
19.2749
19.2757
19.2766
19.277
19.2772
19.2829
19.3086
19.3474
19.2533
18.6572
17.0531
0.251632
0.0149518
0.0153236
0.0152285
0.0151895
0.015186
0.0151887
0.0151895
0.015189
0.0151884
0.015188
0.0151878
0.0151876
0.0151875
0.0151876
0.0151877
0.0151879
0.0151882
0.0151886
0.0151891
0.0151896
0.0151903
0.015191
0.0151919
0.0151928
20.5878
20.5857
20.5834
20.5813
20.5794
20.5777
20.5761
20.5746
20.5733
20.572
20.5709
20.5699
20.5691
20.5683
20.5678
20.5673
20.5668
20.5658
20.5646
20.568
20.5871
20.6142
20.5286
20.047
15.8123
0.0462272
0.0160905
0.0162944
0.0162254
0.0161954
0.0161915
0.0161924
0.016192
0.0161909
0.0161898
0.016189
0.0161883
0.0161879
0.0161877
0.0161876
0.0161877
0.0161879
0.0161883
0.0161889
0.0161896
0.0161904
0.0161913
0.0161924
0.0161937
0.016195
21.8661
21.8653
21.8643
21.8633
21.8623
21.8612
21.8601
21.859
21.8578
21.8566
21.8554
21.8541
21.8527
21.8513
21.8499
21.8484
21.8467
21.8444
21.8418
21.8432
21.858
21.8767
21.7905
21.3661
14.2595
0.0200655
0.0172678
0.0172264
0.0171809
0.0171692
0.0171695
0.0171701
0.0171696
0.0171689
0.0171684
0.0171681
0.017168
0.0171682
0.0171685
0.017169
0.0171697
0.0171705
0.0171716
0.0171727
0.0171741
0.0171756
0.0171773
0.0171791
0.0171811
0.0171833
23.1749
23.1743
23.1736
23.1729
23.1722
23.1715
23.1708
23.1701
23.1694
23.1687
23.168
23.1672
23.1665
23.1657
23.165
23.1642
23.1633
23.1619
23.1603
23.1627
23.1769
23.1924
23.1079
22.7255
12.858
0.0180295
0.018263
0.0181502
0.0181068
0.0181038
0.0181079
0.0181098
0.0181105
0.018111
0.0181119
0.018113
0.0181143
0.0181157
0.0181174
0.0181193
0.0181213
0.0181235
0.0181259
0.0181285
0.0181313
0.0181342
0.0181374
0.0181407
0.0181441
0.0181477
24.4682
24.4679
24.4676
24.4672
24.4669
24.4665
24.4661
24.4658
24.4654
24.4649
24.4645
24.464
24.4636
24.4631
24.4626
24.4621
24.4614
24.4603
24.4591
24.4615
24.4743
24.487
24.4075
24.0675
11.4254
0.0186124
0.0191849
0.0190579
0.0190156
0.0190146
0.0190196
0.0190222
0.0190236
0.019025
0.0190269
0.019029
0.0190315
0.0190342
0.0190371
0.0190404
0.0190439
0.0190476
0.0190516
0.0190558
0.0190603
0.019065
0.01907
0.0190751
0.0190805
0.0190861
25.7704
25.7707
25.7711
25.7714
25.7717
25.7719
25.772
25.7721
25.7722
25.7722
25.7721
25.772
25.7718
25.7716
25.7714
25.7711
25.7706
25.7696
25.7686
25.7705
25.7817
25.7946
25.7297
25.4297
10.6434
0.0194197
0.0200568
0.0199205
0.0198795
0.0198801
0.0198861
0.0198897
0.0198922
0.019895
0.0198983
0.0199021
0.0199064
0.019911
0.0199161
0.0199215
0.0199273
0.0199335
0.0199401
0.019947
0.0199542
0.0199617
0.0199696
0.0199778
0.0199862
0.0199949
0.000550391
0.000550002
0.000549632
0.00054928
0.000548944
0.000548624
0.000548318
0.000548026
0.000547746
0.000547478
0.00054722
0.000546973
0.000546735
0.000546506
0.000546285
0.000546072
0.000545866
0.000545666
0.000545473
0.000545286
0.000545104
0.000544926
0.000544754
0.000544586
0.000544422
0.000544262
0.000544106
0.000543953
0.000543803
0.000543656
0.000543511
0.00054337
0.000543231
0.000543094
0.000542959
0.000542827
0.000542696
0.000542567
0.00054244
0.000542315
0.000542191
0.000542069
0.000541948
0.000541828
0.00054171
0.000541593
0.000541476
0.000541357
0.000541243
0.000541159
0.00159916
0.00159851
0.00159789
0.00159732
0.00159677
0.00159626
0.00159577
0.00159531
0.00159488
0.00159448
0.00159409
0.00159373
0.00159339
0.00159306
0.00159276
0.00159247
0.0015922
0.00159195
0.00159171
0.00159149
0.00159128
0.00159108
0.0015909
0.00159072
0.00159056
0.00159041
0.00159027
0.00159014
0.00159002
0.00158991
0.0015898
0.00158971
0.00158962
0.00158954
0.00158947
0.0015894
0.00158934
0.00158929
0.00158924
0.0015892
0.00158916
0.00158913
0.00158911
0.00158909
0.00158907
0.00158906
0.00158905
0.00158905
0.00158905
0.00158903
0.00267733
0.00267661
0.00267592
0.00267526
0.00267463
0.00267403
0.00267345
0.0026729
0.00267237
0.00267186
0.00267138
0.00267091
0.00267047
0.00267004
0.00266964
0.00266925
0.00266887
0.00266852
0.00266817
0.00266785
0.00266754
0.00266724
0.00266695
0.00266668
0.00266642
0.00266617
0.00266593
0.0026657
0.00266549
0.00266528
0.00266508
0.00266489
0.00266472
0.00266455
0.00266439
0.00266423
0.00266409
0.00266395
0.00266382
0.0026637
0.00266358
0.00266347
0.00266337
0.00266328
0.00266319
0.0026631
0.00266303
0.00266295
0.00266289
0.00266284
0.00372529
0.00372482
0.00372435
0.0037239
0.00372346
0.00372303
0.00372262
0.00372222
0.00372183
0.00372146
0.0037211
0.00372076
0.00372043
0.00372011
0.0037198
0.0037195
0.00371922
0.00371895
0.0037187
0.00371845
0.00371822
0.00371799
0.00371778
0.00371758
0.0037174
0.00371722
0.00371705
0.0037169
0.00371675
0.00371661
0.00371649
0.00371637
0.00371627
0.00371617
0.00371608
0.003716
0.00371593
0.00371587
0.00371581
0.00371577
0.00371573
0.0037157
0.00371568
0.00371567
0.00371566
0.00371566
0.00371567
0.00371568
0.0037157
0.00371571
0.00478624
0.00478606
0.00478589
0.00478571
0.00478553
0.00478536
0.00478519
0.00478502
0.00478486
0.0047847
0.00478454
0.00478438
0.00478424
0.00478409
0.00478395
0.00478382
0.00478369
0.00478356
0.00478344
0.00478333
0.00478323
0.00478313
0.00478303
0.00478294
0.00478286
0.00478279
0.00478272
0.00478266
0.0047826
0.00478255
0.00478251
0.00478247
0.00478245
0.00478242
0.00478241
0.0047824
0.0047824
0.0047824
0.00478241
0.00478243
0.00478245
0.00478248
0.00478251
0.00478255
0.0047826
0.00478265
0.00478271
0.00478278
0.00478285
0.00478293
0.00584282
0.00584245
0.0058421
0.00584175
0.00584141
0.00584108
0.00584077
0.00584047
0.00584018
0.0058399
0.00583963
0.00583938
0.00583913
0.0058389
0.00583868
0.00583848
0.00583829
0.0058381
0.00583793
0.00583778
0.00583763
0.0058375
0.00583738
0.00583727
0.00583717
0.00583709
0.00583702
0.00583695
0.0058369
0.00583687
0.00583684
0.00583682
0.00583682
0.00583682
0.00583684
0.00583686
0.0058369
0.00583695
0.00583701
0.00583707
0.00583715
0.00583724
0.00583733
0.00583744
0.00583755
0.00583767
0.00583781
0.00583795
0.00583809
0.00583824
0.0068917
0.00689192
0.00689212
0.00689231
0.00689248
0.00689263
0.00689278
0.00689292
0.00689304
0.00689316
0.00689328
0.00689339
0.0068935
0.00689361
0.00689371
0.00689382
0.00689392
0.00689403
0.00689414
0.00689425
0.00689437
0.00689448
0.00689461
0.00689473
0.00689486
0.006895
0.00689514
0.00689529
0.00689544
0.0068956
0.00689577
0.00689594
0.00689612
0.0068963
0.00689649
0.00689669
0.0068969
0.00689711
0.00689733
0.00689755
0.00689779
0.00689803
0.00689827
0.00689853
0.00689879
0.00689906
0.00689933
0.00689961
0.00689989
0.00690019
0.0079561
0.00795548
0.0079549
0.00795436
0.00795386
0.00795339
0.00795295
0.00795255
0.00795218
0.00795183
0.00795152
0.00795124
0.00795098
0.00795075
0.00795055
0.00795037
0.00795022
0.00795009
0.00794998
0.0079499
0.00794984
0.0079498
0.00794978
0.00794979
0.00794981
0.00794986
0.00794992
0.00795
0.0079501
0.00795022
0.00795035
0.0079505
0.00795067
0.00795086
0.00795106
0.00795128
0.00795151
0.00795175
0.00795201
0.00795229
0.00795258
0.00795288
0.00795319
0.00795352
0.00795386
0.00795421
0.00795457
0.00795495
0.00795533
0.00795572
0.00900415
0.00900368
0.00900325
0.00900287
0.00900253
0.00900223
0.00900197
0.00900174
0.00900155
0.0090014
0.00900127
0.00900118
0.00900112
0.00900109
0.00900108
0.00900111
0.00900116
0.00900123
0.00900133
0.00900145
0.0090016
0.00900176
0.00900195
0.00900216
0.00900239
0.00900264
0.00900291
0.0090032
0.00900351
0.00900383
0.00900418
0.00900454
0.00900491
0.0090053
0.00900571
0.00900613
0.00900657
0.00900702
0.00900749
0.00900796
0.00900846
0.00900896
0.00900948
0.00901001
0.00901055
0.0090111
0.00901167
0.00901224
0.00901282
0.00901342
0.0100489
0.0100486
0.0100484
0.0100482
0.010048
0.0100479
0.0100477
0.0100477
0.0100476
0.0100476
0.0100476
0.0100477
0.0100477
0.0100478
0.010048
0.0100481
0.0100483
0.0100485
0.0100488
0.010049
0.0100493
0.0100496
0.01005
0.0100503
0.0100507
0.0100511
0.0100516
0.010052
0.0100525
0.010053
0.0100535
0.0100541
0.0100546
0.0100552
0.0100558
0.0100564
0.010057
0.0100577
0.0100583
0.010059
0.0100597
0.0100604
0.0100611
0.0100618
0.0100626
0.0100634
0.0100641
0.0100649
0.0100657
0.0100665
0.0110873
0.0110874
0.0110876
0.0110877
0.0110879
0.0110881
0.0110883
0.0110886
0.0110889
0.0110892
0.0110895
0.0110899
0.0110903
0.0110907
0.0110911
0.0110916
0.0110921
0.0110926
0.0110932
0.0110937
0.0110943
0.0110949
0.0110956
0.0110962
0.0110969
0.0110976
0.0110984
0.0110991
0.0110999
0.0111007
0.0111015
0.0111023
0.0111032
0.011104
0.0111049
0.0111058
0.0111067
0.0111077
0.0111086
0.0111096
0.0111106
0.0111116
0.0111126
0.0111137
0.0111147
0.0111158
0.0111168
0.0111179
0.011119
0.0111201
0.0121182
0.0121187
0.0121192
0.0121198
0.0121204
0.012121
0.0121216
0.0121222
0.0121229
0.0121236
0.0121244
0.0121251
0.0121259
0.0121267
0.0121275
0.0121284
0.0121292
0.0121301
0.0121311
0.012132
0.012133
0.012134
0.012135
0.012136
0.0121371
0.0121382
0.0121393
0.0121404
0.0121416
0.0121427
0.0121439
0.0121451
0.0121463
0.0121476
0.0121489
0.0121501
0.0121514
0.0121527
0.0121541
0.0121554
0.0121568
0.0121582
0.0121596
0.012161
0.0121624
0.0121638
0.0121653
0.0121667
0.0121682
0.0121697
0.0131519
0.0131526
0.0131532
0.0131539
0.0131547
0.0131554
0.0131562
0.0131571
0.013158
0.0131589
0.0131598
0.0131608
0.0131619
0.0131629
0.013164
0.0131651
0.0131663
0.0131675
0.0131687
0.01317
0.0131713
0.0131726
0.0131739
0.0131753
0.0131767
0.0131782
0.0131796
0.0131811
0.0131826
0.0131842
0.0131858
0.0131874
0.013189
0.0131906
0.0131923
0.013194
0.0131957
0.0131974
0.0131991
0.0132009
0.0132027
0.0132045
0.0132063
0.0132081
0.01321
0.0132118
0.0132137
0.0132156
0.0132175
0.0132194
0.0141692
0.0141704
0.0141717
0.014173
0.0141743
0.0141757
0.0141771
0.0141785
0.01418
0.0141815
0.014183
0.0141846
0.0141862
0.0141878
0.0141895
0.0141912
0.014193
0.0141947
0.0141966
0.0141984
0.0142003
0.0142022
0.0142041
0.0142061
0.0142081
0.0142101
0.0142122
0.0142142
0.0142163
0.0142185
0.0142206
0.0142228
0.014225
0.0142273
0.0142295
0.0142318
0.0142341
0.0142364
0.0142387
0.0142411
0.0142435
0.0142459
0.0142483
0.0142507
0.0142531
0.0142555
0.014258
0.0142605
0.0142629
0.0142654
0.0151938
0.0151948
0.015196
0.0151972
0.0151985
0.0151999
0.0152014
0.0152029
0.0152045
0.0152062
0.0152079
0.0152097
0.0152116
0.0152135
0.0152155
0.0152176
0.0152197
0.0152218
0.015224
0.0152263
0.0152286
0.015231
0.0152334
0.0152359
0.0152384
0.0152409
0.0152435
0.0152462
0.0152488
0.0152516
0.0152543
0.0152571
0.0152599
0.0152627
0.0152656
0.0152685
0.0152714
0.0152744
0.0152774
0.0152804
0.0152834
0.0152864
0.0152895
0.0152926
0.0152956
0.0152988
0.0153019
0.015305
0.0153081
0.0153113
0.0161965
0.016198
0.0161997
0.0162015
0.0162034
0.0162054
0.0162075
0.0162097
0.016212
0.0162144
0.0162169
0.0162194
0.016222
0.0162248
0.0162275
0.0162304
0.0162333
0.0162363
0.0162394
0.0162425
0.0162457
0.016249
0.0162523
0.0162557
0.0162591
0.0162625
0.016266
0.0162696
0.0162732
0.0162768
0.0162805
0.0162842
0.0162879
0.0162917
0.0162955
0.0162994
0.0163032
0.0163071
0.016311
0.0163149
0.0163189
0.0163228
0.0163268
0.0163308
0.0163348
0.0163388
0.0163429
0.0163469
0.0163509
0.0163549
0.0171855
0.0171879
0.0171905
0.0171931
0.0171959
0.0171988
0.0172019
0.017205
0.0172083
0.0172117
0.0172151
0.0172187
0.0172224
0.0172261
0.01723
0.017234
0.017238
0.0172421
0.0172463
0.0172505
0.0172549
0.0172593
0.0172637
0.0172682
0.0172728
0.0172774
0.0172821
0.0172869
0.0172916
0.0172965
0.0173013
0.0173062
0.0173111
0.0173161
0.0173211
0.0173261
0.0173312
0.0173362
0.0173413
0.0173464
0.0173515
0.0173566
0.0173617
0.0173669
0.017372
0.0173772
0.0173823
0.0173875
0.0173926
0.0173977
0.0181515
0.0181554
0.0181595
0.0181638
0.0181681
0.0181726
0.0181773
0.018182
0.0181869
0.018192
0.0181971
0.0182023
0.0182077
0.0182131
0.0182187
0.0182243
0.0182301
0.0182359
0.0182418
0.0182477
0.0182538
0.0182599
0.018266
0.0182723
0.0182785
0.0182849
0.0182912
0.0182977
0.0183041
0.0183106
0.0183171
0.0183237
0.0183303
0.0183369
0.0183435
0.0183501
0.0183567
0.0183634
0.01837
0.0183767
0.0183833
0.01839
0.0183966
0.0184032
0.0184099
0.0184165
0.0184231
0.0184296
0.0184361
0.0184427
0.0190919
0.0190978
0.019104
0.0191104
0.0191169
0.0191236
0.0191304
0.0191374
0.0191446
0.0191518
0.0191593
0.0191668
0.0191745
0.0191822
0.0191901
0.0191981
0.0192062
0.0192143
0.0192225
0.0192308
0.0192392
0.0192476
0.0192561
0.0192647
0.0192732
0.0192819
0.0192905
0.0192992
0.0193079
0.0193166
0.0193253
0.0193341
0.0193428
0.0193515
0.0193603
0.019369
0.0193777
0.0193864
0.0193951
0.0194037
0.0194124
0.019421
0.0194295
0.0194381
0.0194465
0.019455
0.0194634
0.0194717
0.01948
0.0194882
0.0200039
0.0200131
0.0200226
0.0200323
0.0200422
0.0200523
0.0200625
0.020073
0.0200836
0.0200943
0.0201052
0.0201162
0.0201273
0.0201386
0.0201499
0.0201613
0.0201728
0.0201843
0.0201959
0.0202076
0.0202193
0.020231
0.0202427
0.0202545
0.0202662
0.020278
0.0202898
0.0203015
0.0203132
0.0203249
0.0203366
0.0203482
0.0203598
0.0203713
0.0203828
0.0203943
0.0204056
0.0204169
0.0204282
0.0204394
0.0204505
0.0204615
0.0204724
0.0204833
0.020494
0.0205047
0.0205153
0.0205258
0.0205361
0.0205464
0.00054114
0.0005411
0.000541037
0.00054097
0.000540903
0.000540838
0.000540772
0.000540706
0.00054064
0.000540574
0.000540508
0.000540442
0.000540376
0.00054031
0.000540243
0.000540177
0.00054011
0.000540044
0.000539977
0.00053991
0.000539843
0.000539776
0.000539709
0.000539641
0.000539574
0.000539507
0.000539439
0.000539372
0.000539304
0.000539236
0.000539168
0.000539101
0.000539033
0.000538965
0.000538897
0.000538828
0.00053876
0.000538692
0.000538624
0.000538556
0.000538487
0.000538419
0.000538351
0.000538283
0.000538214
0.000538146
0.000538078
0.00053801
0.000537942
0.000537874
0.000537806
0.000537738
0.00053767
0.000537603
0.000537535
0.000537468
0.0005374
0.000537333
0.000537266
0.000537199
0.000537132
0.000537066
0.000536999
0.000536933
0.000536867
0.000536801
0.000536736
0.000536671
0.000536606
0.000536541
0.000536476
0.000536412
0.000536348
0.000536285
0.000536222
0.000536159
0.000536096
0.000536034
0.000535972
0.00053591
0.000535849
0.000535788
0.000535728
0.000535668
0.000535609
0.000535549
0.000535491
0.000535433
0.000535375
0.000535317
0.000535261
0.000535204
0.000535148
0.000535093
0.000535038
0.000534984
0.00053493
0.000534877
0.000534824
0.000534772
0.00053472
0.000534669
0.000534619
0.000534569
0.00053452
0.000534471
0.000534423
0.000534375
0.000534328
0.000534282
0.000534236
0.000534191
0.000534147
0.000534103
0.00053406
0.000534017
0.000533975
0.000533934
0.000533893
0.000533853
0.000533814
0.000533775
0.000533737
0.000533699
0.000533663
0.000533626
0.000533591
0.000533556
0.000533522
0.000533488
0.000533455
0.000533423
0.000533391
0.00053336
0.00053333
0.0005333
0.000533271
0.000533243
0.000533215
0.000533188
0.000533161
0.000533135
0.00053311
0.000533085
0.000533061
0.000533037
0.000533014
0.000532991
0.000532969
0.000532948
0.000532927
0.000532906
0.000532887
0.000532867
0.000532848
0.00053283
0.000532812
0.000532795
0.000532778
0.000532761
0.000532745
0.000532729
0.000532714
0.000532699
0.000532685
0.00053267
0.000532657
0.000532643
0.00053263
0.000532617
0.000532604
0.000532592
0.00053258
0.000532568
0.000532556
0.000532545
0.000532534
0.000532523
0.000532512
0.000532501
0.00053249
0.000532479
0.000532469
0.000532458
0.000532448
0.000532437
0.000532427
0.000532417
0.000532406
0.000532396
0.000532385
0.000532374
0.000532363
0.000532353
0.000532341
0.00053233
0.000532319
0.000532307
0.000532295
0.000532283
0.000532271
0.000532258
0.000532245
0.000532232
0.000532219
0.000532205
0.000532191
0.000532176
0.000532161
0.000532146
0.00053213
0.000532114
0.000532097
0.00053208
0.000532063
0.000532045
0.000532027
0.000532008
0.000531989
0.000531969
0.000531949
0.000531928
0.000531907
0.000531885
0.000531863
0.00053184
0.000531817
0.000531793
0.000531769
0.000531744
0.000531719
0.000531693
0.000531667
0.00053164
0.000531613
0.000531585
0.000531557
0.000531528
0.000531499
0.00053147
0.00053144
0.00053141
0.000531379
0.000531348
0.000531317
0.000531285
0.000531254
0.000531221
0.000531189
0.000531156
0.000531123
0.00053109
0.000531057
0.000531024
0.000530991
0.000530957
0.000530924
0.00053089
0.000530857
0.000530824
0.000530791
0.000530757
0.000530725
0.000530692
0.00053066
0.000530628
0.000530596
0.000530565
0.000530534
0.000530504
0.000530474
0.000530445
0.000530417
0.000530389
0.000530362
0.000530336
0.000530311
0.000530286
0.000530263
0.00053024
0.000530219
0.000530199
0.00053018
0.000530162
0.000530146
0.000530131
0.000530117
0.000530105
0.000530095
0.000530086
0.000530079
0.000530073
0.00053007
0.000530068
0.000530068
0.00053007
0.000530075
0.000530081
0.00053009
0.000530101
0.00158897
0.00158894
0.00158893
0.00158893
0.00158893
0.00158894
0.00158894
0.00158895
0.00158895
0.00158896
0.00158897
0.00158899
0.001589
0.00158902
0.00158903
0.00158905
0.00158908
0.0015891
0.00158912
0.00158915
0.00158918
0.00158921
0.00158924
0.00158927
0.00158931
0.00158935
0.00158939
0.00158943
0.00158947
0.00158951
0.00158956
0.0015896
0.00158965
0.0015897
0.00158975
0.0015898
0.00158986
0.00158991
0.00158997
0.00159003
0.00159009
0.00159015
0.00159022
0.00159028
0.00159035
0.00159041
0.00159048
0.00159055
0.00159062
0.0015907
0.00159077
0.00159084
0.00159092
0.001591
0.00159108
0.00159116
0.00159124
0.00159132
0.00159141
0.00159149
0.00159158
0.00159166
0.00159175
0.00159184
0.00159193
0.00159202
0.00159211
0.00159221
0.0015923
0.00159239
0.00159249
0.00159259
0.00159268
0.00159278
0.00159288
0.00159298
0.00159308
0.00159318
0.00159329
0.00159339
0.00159349
0.0015936
0.0015937
0.0015938
0.00159391
0.00159402
0.00159412
0.00159423
0.00159434
0.00159445
0.00159455
0.00159466
0.00159477
0.00159488
0.00159499
0.0015951
0.00159521
0.00159532
0.00159543
0.00159554
0.00159565
0.00159576
0.00159587
0.00159598
0.00159608
0.00159619
0.0015963
0.00159641
0.00159652
0.00159663
0.00159674
0.00159685
0.00159695
0.00159706
0.00159717
0.00159727
0.00159738
0.00159748
0.00159759
0.00159769
0.00159779
0.00159789
0.00159799
0.00159809
0.00159819
0.00159829
0.00159839
0.00159849
0.00159858
0.00159868
0.00159877
0.00159886
0.00159895
0.00159904
0.00159913
0.00159922
0.0015993
0.00159939
0.00159947
0.00159955
0.00159963
0.00159971
0.00159978
0.00159986
0.00159993
0.0016
0.00160007
0.00160014
0.00160021
0.00160027
0.00160034
0.0016004
0.00160046
0.00160051
0.00160057
0.00160062
0.00160067
0.00160072
0.00160077
0.00160081
0.00160085
0.00160089
0.00160093
0.00160096
0.001601
0.00160103
0.00160105
0.00160108
0.0016011
0.00160112
0.00160114
0.00160116
0.00160117
0.00160118
0.00160119
0.00160119
0.0016012
0.0016012
0.00160119
0.00160119
0.00160118
0.00160117
0.00160116
0.00160114
0.00160112
0.0016011
0.00160108
0.00160105
0.00160102
0.00160099
0.00160095
0.00160091
0.00160087
0.00160083
0.00160078
0.00160073
0.00160068
0.00160063
0.00160057
0.00160051
0.00160045
0.00160038
0.00160031
0.00160024
0.00160017
0.00160009
0.00160002
0.00159993
0.00159985
0.00159976
0.00159968
0.00159958
0.00159949
0.00159939
0.0015993
0.00159919
0.00159909
0.00159899
0.00159888
0.00159877
0.00159866
0.00159854
0.00159843
0.00159831
0.00159819
0.00159807
0.00159794
0.00159782
0.00159769
0.00159756
0.00159743
0.0015973
0.00159716
0.00159703
0.00159689
0.00159676
0.00159662
0.00159648
0.00159634
0.0015962
0.00159605
0.00159591
0.00159577
0.00159562
0.00159548
0.00159533
0.00159519
0.00159504
0.00159489
0.00159475
0.0015946
0.00159446
0.00159431
0.00159417
0.00159402
0.00159388
0.00159374
0.00159359
0.00159345
0.00159331
0.00159317
0.00159304
0.0015929
0.00159277
0.00159263
0.0015925
0.00159238
0.00159225
0.00159213
0.001592
0.00159189
0.00159177
0.00159166
0.00159155
0.00159144
0.00159133
0.00159123
0.00159114
0.00159104
0.00159095
0.00159087
0.00159079
0.00159071
0.00159064
0.00159057
0.00159051
0.00159045
0.0015904
0.00159035
0.00159031
0.00159027
0.00159024
0.00159022
0.0015902
0.00159018
0.00159018
0.00159018
0.00159018
0.0015902
0.00159022
0.00266284
0.00266281
0.00266277
0.00266272
0.00266268
0.00266264
0.0026626
0.00266257
0.00266253
0.00266249
0.00266246
0.00266243
0.0026624
0.00266237
0.00266234
0.00266231
0.00266228
0.00266226
0.00266223
0.00266221
0.00266219
0.00266217
0.00266215
0.00266214
0.00266212
0.00266211
0.00266209
0.00266208
0.00266207
0.00266206
0.00266205
0.00266205
0.00266204
0.00266204
0.00266203
0.00266203
0.00266203
0.00266203
0.00266204
0.00266204
0.00266204
0.00266205
0.00266206
0.00266207
0.00266208
0.00266209
0.0026621
0.00266211
0.00266213
0.00266214
0.00266216
0.00266218
0.0026622
0.00266222
0.00266224
0.00266227
0.00266229
0.00266232
0.00266234
0.00266237
0.0026624
0.00266243
0.00266246
0.0026625
0.00266253
0.00266257
0.0026626
0.00266264
0.00266268
0.00266272
0.00266276
0.0026628
0.00266285
0.00266289
0.00266293
0.00266298
0.00266303
0.00266308
0.00266312
0.00266317
0.00266323
0.00266328
0.00266333
0.00266338
0.00266344
0.0026635
0.00266355
0.00266361
0.00266367
0.00266373
0.00266379
0.00266385
0.00266391
0.00266397
0.00266403
0.0026641
0.00266416
0.00266422
0.00266429
0.00266435
0.00266442
0.00266449
0.00266455
0.00266462
0.00266469
0.00266476
0.00266483
0.0026649
0.00266497
0.00266504
0.00266511
0.00266518
0.00266525
0.00266532
0.00266539
0.00266546
0.00266553
0.0026656
0.00266567
0.00266574
0.00266581
0.00266588
0.00266595
0.00266601
0.00266608
0.00266615
0.00266622
0.00266629
0.00266635
0.00266642
0.00266649
0.00266655
0.00266661
0.00266668
0.00266674
0.0026668
0.00266686
0.00266692
0.00266698
0.00266704
0.0026671
0.00266715
0.00266721
0.00266726
0.00266731
0.00266736
0.00266741
0.00266746
0.0026675
0.00266755
0.00266759
0.00266763
0.00266767
0.00266771
0.00266774
0.00266778
0.00266781
0.00266784
0.00266786
0.00266789
0.00266791
0.00266793
0.00266795
0.00266797
0.00266798
0.00266799
0.002668
0.00266801
0.00266801
0.00266801
0.00266801
0.002668
0.00266799
0.00266798
0.00266797
0.00266795
0.00266793
0.00266791
0.00266788
0.00266786
0.00266782
0.00266779
0.00266775
0.00266771
0.00266766
0.00266761
0.00266756
0.0026675
0.00266744
0.00266738
0.00266732
0.00266725
0.00266717
0.00266709
0.00266701
0.00266693
0.00266684
0.00266675
0.00266665
0.00266655
0.00266645
0.00266634
0.00266623
0.00266612
0.002666
0.00266588
0.00266575
0.00266562
0.00266549
0.00266535
0.00266521
0.00266507
0.00266492
0.00266477
0.00266462
0.00266446
0.0026643
0.00266413
0.00266396
0.00266379
0.00266361
0.00266343
0.00266325
0.00266307
0.00266288
0.00266269
0.00266249
0.00266229
0.00266209
0.00266189
0.00266169
0.00266148
0.00266127
0.00266105
0.00266084
0.00266062
0.0026604
0.00266018
0.00265996
0.00265973
0.00265951
0.00265928
0.00265905
0.00265882
0.00265859
0.00265836
0.00265813
0.00265789
0.00265766
0.00265743
0.00265719
0.00265696
0.00265672
0.00265649
0.00265626
0.00265603
0.0026558
0.00265557
0.00265534
0.00265512
0.00265489
0.00265467