/*--------------------------------*- C++ -*----------------------------------*\
| =========                 |                                                 |
| \\      /  F ield         | OpenFOAM: The Open Source CFD Toolbox           |
|  \\    /   O peration     | Version:  2.4.0                                 |
|   \\  /    A nd           | Web:      www.OpenFOAM.org                      |
|    \\/     M anipulation  |                                                 |
\*---------------------------------------------------------------------------*/
FoamFile
{
    version     2.0;
    format      ascii;
    class       surfaceScalarField;
    location    "2";
    object      phi;
}
// * * * * * * * * * * * * * * * * * * * * * * * * * * * * * * * * * * * * * //

dimensions      [0 3 -1 0 0 0 0];

internalField   nonuniform List<scalar> 
15580
(
-6.6423e-14
-1.88237e-12
-2.21786e-13
-5.51498e-12
-4.45212e-13
-9.00728e-12
-7.27559e-13
-1.23554e-11
-1.06075e-12
-1.55597e-11
-1.43762e-12
-1.86203e-11
-1.8518e-12
-2.15375e-11
-2.29754e-12
-2.43113e-11
-2.76967e-12
-2.6942e-11
-3.26342e-12
-2.94296e-11
-3.77437e-12
-3.17744e-11
-4.29835e-12
-3.39763e-11
-4.83135e-12
-3.60354e-11
-5.36944e-12
-3.79518e-11
-5.90871e-12
-3.97256e-11
-6.44516e-12
-4.13567e-11
-6.97464e-12
-4.28452e-11
-7.4928e-12
-4.4191e-11
-7.99491e-12
-4.53941e-11
-8.47583e-12
-4.64544e-11
-8.92992e-12
-4.73719e-11
-9.35137e-12
-4.81465e-11
-9.73432e-12
-4.87774e-11
-1.00708e-11
-4.92638e-11
-1.03414e-11
-4.96073e-11
-1.06859e-11
-4.98202e-11
-4.35733e-11
-4.99449e-11
-4.36684e-11
-4.9924e-11
-4.37476e-11
-4.9952e-11
-4.42781e-11
-4.87962e-11
-4.47256e-11
-4.76817e-11
-4.51219e-11
-4.66518e-11
-4.55141e-11
-4.57622e-11
-4.59137e-11
-4.50157e-11
-4.63183e-11
-4.43936e-11
-4.67256e-11
-4.38722e-11
-4.71346e-11
-4.343e-11
-4.7545e-11
-4.30489e-11
-4.79568e-11
-4.27135e-11
-4.83699e-11
-4.24113e-11
-4.8784e-11
-4.2132e-11
-4.91993e-11
-4.18673e-11
-4.96154e-11
-4.16109e-11
-5.00325e-11
-4.1358e-11
-5.04505e-11
-4.11049e-11
-5.08692e-11
-4.0849e-11
-5.12887e-11
-4.05885e-11
-5.17088e-11
-4.03223e-11
-5.21295e-11
-4.00499e-11
-3.9771e-11
-5.25507e-11
-3.27199e-14
-1.84965e-12
-1.38653e-13
-5.40905e-12
-3.14859e-13
-8.83108e-12
-5.53579e-13
-1.21167e-11
-8.4777e-13
-1.52655e-11
-1.19098e-12
-1.82771e-11
-1.57727e-12
-2.11512e-11
-2.00112e-12
-2.38875e-11
-2.45737e-12
-2.64858e-11
-2.94113e-12
-2.89459e-11
-3.44776e-12
-3.12677e-11
-3.97277e-12
-3.34513e-11
-4.51177e-12
-3.54964e-11
-5.06041e-12
-3.74032e-11
-5.61434e-12
-3.91717e-11
-6.16913e-12
-4.0802e-11
-6.7202e-12
-4.22941e-11
-7.26279e-12
-4.36484e-11
-7.79188e-12
-4.4865e-11
-8.30213e-12
-4.59442e-11
-8.78784e-12
-4.68862e-11
-9.24279e-12
-4.76915e-11
-9.65965e-12
-4.83605e-11
-1.00295e-11
-4.88939e-11
-1.03441e-11
-4.92927e-11
-1.131e-11
-4.95577e-11
-4.31062e-11
-4.97019e-11
-4.33069e-11
-4.97233e-11
-4.35785e-11
-4.96805e-11
-4.39893e-11
-4.83853e-11
-4.44733e-11
-4.71977e-11
-4.49592e-11
-4.61659e-11
-4.54319e-11
-4.52895e-11
-4.58943e-11
-4.45533e-11
-4.63507e-11
-4.39373e-11
-4.68035e-11
-4.34194e-11
-4.72545e-11
-4.2979e-11
-4.77049e-11
-4.25985e-11
-4.81559e-11
-4.22625e-11
-4.86084e-11
-4.19588e-11
-4.90631e-11
-4.16773e-11
-4.95205e-11
-4.14099e-11
-4.99809e-11
-4.11506e-11
-5.04444e-11
-4.08945e-11
-5.09112e-11
-4.06381e-11
-5.13812e-11
-4.0379e-11
-5.18544e-11
-4.01153e-11
-5.23307e-11
-3.98461e-11
-5.28098e-11
-3.95708e-11
-3.92892e-11
-5.32916e-11
-1.28701e-14
-1.83678e-12
-4.57352e-14
-5.37618e-12
-9.70228e-14
-8.77979e-12
-1.67039e-13
-1.20467e-11
-2.55787e-13
-1.51768e-11
-3.63033e-13
-1.81699e-11
-4.88362e-13
-2.10259e-11
-6.3121e-13
-2.37446e-11
-7.90908e-13
-2.63261e-11
-9.66702e-13
-2.87701e-11
-1.15779e-12
-3.10766e-11
-1.36334e-12
-3.32457e-11
-1.58253e-12
-3.52772e-11
-1.81452e-12
-3.71712e-11
-2.05854e-12
-3.89277e-11
-2.31388e-12
-4.05466e-11
-2.5799e-12
-4.20281e-11
-2.85607e-12
-4.33722e-11
-3.14202e-12
-4.45791e-11
-3.4375e-12
-4.56487e-11
-3.7425e-12
-4.65812e-11
-4.05724e-12
-4.73768e-11
-4.38229e-12
-4.80355e-11
-4.71876e-12
-4.85575e-11
-5.0683e-12
-4.89432e-11
-6.05771e-12
-4.91942e-11
-3.8156e-11
-4.93399e-11
-3.85318e-11
-4.93476e-11
-3.93805e-11
-4.88317e-11
-4.02192e-11
-4.75467e-11
-4.1008e-11
-4.6409e-11
-4.17382e-11
-4.54357e-11
-4.24154e-11
-4.46123e-11
-4.30489e-11
-4.39199e-11
-4.36483e-11
-4.33378e-11
-4.42224e-11
-4.28453e-11
-4.47782e-11
-4.24232e-11
-4.53218e-11
-4.20549e-11
-4.58575e-11
-4.17268e-11
-4.63891e-11
-4.14272e-11
-4.69192e-11
-4.11472e-11
-4.74497e-11
-4.08794e-11
-4.79821e-11
-4.06182e-11
-4.85172e-11
-4.03593e-11
-4.90557e-11
-4.00996e-11
-4.95978e-11
-3.98369e-11
-5.01436e-11
-3.95695e-11
-5.0693e-11
-3.92967e-11
-5.12458e-11
-3.9018e-11
-3.87334e-11
-5.18016e-11
-5.91442e-15
-1.83086e-12
-2.65767e-14
-5.35552e-12
-6.29805e-14
-8.74339e-12
-1.15191e-13
-1.19945e-11
-1.83315e-13
-1.51087e-11
-2.67494e-13
-1.80857e-11
-3.67892e-13
-2.09255e-11
-4.84699e-13
-2.36278e-11
-6.18121e-13
-2.61926e-11
-7.68392e-13
-2.86198e-11
-9.35759e-13
-3.09093e-11
-1.1205e-12
-3.3061e-11
-1.32289e-12
-3.50748e-11
-1.54327e-12
-3.69508e-11
-1.78195e-12
-3.8689e-11
-2.0393e-12
-4.02893e-11
-2.3157e-12
-4.17517e-11
-2.61155e-12
-4.30764e-11
-2.92725e-12
-4.42634e-11
-3.26324e-12
-4.53127e-11
-3.61995e-12
-4.62245e-11
-3.99784e-12
-4.69989e-11
-4.39731e-12
-4.7636e-11
-4.81854e-12
-4.81362e-11
-5.2612e-12
-4.85005e-11
-7.48449e-12
-4.873e-11
-3.80211e-11
-4.88506e-11
-3.85062e-11
-4.88625e-11
-3.94396e-11
-4.78983e-11
-4.02737e-11
-4.67126e-11
-4.10409e-11
-4.56417e-11
-4.17539e-11
-4.47227e-11
-4.242e-11
-4.39462e-11
-4.30475e-11
-4.32924e-11
-4.36454e-11
-4.27399e-11
-4.42221e-11
-4.22686e-11
-4.47844e-11
-4.18608e-11
-4.5338e-11
-4.15014e-11
-4.58872e-11
-4.11775e-11
-4.64354e-11
-4.0879e-11
-4.69851e-11
-4.05974e-11
-4.75382e-11
-4.03263e-11
-4.80959e-11
-4.00605e-11
-4.86591e-11
-3.97962e-11
-4.92281e-11
-3.95307e-11
-4.98031e-11
-3.92619e-11
-5.0384e-11
-3.89886e-11
-5.09707e-11
-3.871e-11
-5.15627e-11
-3.8426e-11
-3.81365e-11
-5.21595e-11
3.57774e-15
-1.83444e-12
1.27848e-14
-5.36473e-12
2.52951e-14
-8.7559e-12
3.84906e-14
-1.20077e-11
4.99097e-14
-1.51201e-11
5.72288e-14
-1.8093e-11
5.82239e-14
-2.09265e-11
5.07673e-14
-2.36204e-11
3.27827e-14
-2.61746e-11
2.25343e-15
-2.85893e-11
-4.28344e-14
-3.08642e-11
-1.04467e-13
-3.29993e-11
-1.84679e-13
-3.49946e-11
-2.85504e-13
-3.685e-11
-4.09083e-13
-3.85654e-11
-5.57577e-13
-4.01408e-11
-7.33324e-13
-4.1576e-11
-9.38695e-13
-4.2871e-11
-1.17632e-12
-4.40257e-11
-1.44885e-12
-4.50402e-11
-1.75934e-12
-4.5914e-11
-2.11094e-12
-4.66473e-11
-2.50757e-12
-4.72394e-11
-2.9528e-12
-4.7691e-11
-3.44827e-12
-4.80051e-11
-6.38835e-12
-4.81902e-11
-3.58129e-11
-4.82707e-11
-3.64255e-11
-4.825e-11
-3.71334e-11
-4.71903e-11
-3.78451e-11
-4.60009e-11
-3.85497e-11
-4.49371e-11
-3.92479e-11
-4.40245e-11
-3.99407e-11
-4.32534e-11
-4.06282e-11
-4.26049e-11
-4.13108e-11
-4.20573e-11
-4.19891e-11
-4.15903e-11
-4.26641e-11
-4.11859e-11
-4.33366e-11
-4.08289e-11
-4.40073e-11
-4.05068e-11
-4.46772e-11
-4.02092e-11
-4.53468e-11
-3.99279e-11
-4.60166e-11
-3.96565e-11
-4.6687e-11
-3.93901e-11
-4.73583e-11
-3.91249e-11
-4.80307e-11
-3.88583e-11
-4.87042e-11
-3.85884e-11
-4.93788e-11
-3.83139e-11
-5.00544e-11
-3.80344e-11
-5.07309e-11
-3.77495e-11
-3.74594e-11
-5.14081e-11
8.10619e-15
-1.84255e-12
2.75761e-14
-5.3842e-12
5.46943e-14
-8.78301e-12
8.64139e-14
-1.20394e-11
1.19903e-13
-1.51536e-11
1.52506e-13
-1.81256e-11
1.81714e-13
-2.09557e-11
2.05126e-13
-2.36438e-11
2.20431e-13
-2.619e-11
2.25364e-13
-2.85942e-11
2.1769e-13
-3.08565e-11
1.95158e-13
-3.29768e-11
1.5549e-13
-3.49549e-11
9.63248e-14
-3.67908e-11
1.52131e-14
-3.84843e-11
-9.04502e-14
-4.00351e-11
-2.23426e-13
-4.1443e-11
-3.86724e-13
-4.27077e-11
-5.83595e-13
-4.38289e-11
-8.17633e-13
-4.48061e-11
-1.09263e-12
-4.5639e-11
-1.41262e-12
-4.63273e-11
-1.78229e-12
-4.68697e-11
-2.2101e-12
-4.72632e-11
-2.7118e-12
-4.75034e-11
-8.22143e-12
-4.75983e-11
-3.39093e-11
-4.76579e-11
-3.45591e-11
-4.76002e-11
-3.52987e-11
-4.64508e-11
-3.60567e-11
-4.52429e-11
-3.68287e-11
-4.4165e-11
-3.7607e-11
-4.32463e-11
-3.83881e-11
-4.24723e-11
-3.91705e-11
-4.18225e-11
-3.99531e-11
-4.12747e-11
-4.07351e-11
-4.08082e-11
-4.1516e-11
-4.0405e-11
-4.22953e-11
-4.00495e-11
-4.3073e-11
-3.97291e-11
-4.38488e-11
-3.94333e-11
-4.46227e-11
-3.9154e-11
-4.53947e-11
-3.88846e-11
-4.61646e-11
-3.86201e-11
-4.69325e-11
-3.8357e-11
-4.76983e-11
-3.80925e-11
-4.84619e-11
-3.78247e-11
-4.92234e-11
-3.75525e-11
-4.99826e-11
-3.72752e-11
-5.07395e-11
-3.69926e-11
-3.67049e-11
-5.1494e-11
-5.51653e-15
-1.83703e-12
-2.32438e-14
-5.36647e-12
-5.35907e-14
-8.75267e-12
-9.66315e-14
-1.19964e-11
-1.52454e-13
-1.50977e-11
-2.21179e-13
-1.80569e-11
-3.02903e-13
-2.0874e-11
-3.97743e-13
-2.35489e-11
-5.05753e-13
-2.60819e-11
-6.27001e-13
-2.8473e-11
-7.61446e-13
-3.07221e-11
-9.09061e-13
-3.28292e-11
-1.06965e-12
-3.47944e-11
-1.24302e-12
-3.66175e-11
-1.42876e-12
-3.82985e-11
-1.62646e-12
-3.98374e-11
-1.83536e-12
-4.12341e-11
-2.05475e-12
-4.24883e-11
-2.28339e-12
-4.36002e-11
-2.52016e-12
-4.45693e-11
-2.76326e-12
-4.53959e-11
-3.01132e-12
-4.60792e-11
-3.26169e-12
-4.66193e-11
-3.50976e-12
-4.70151e-11
-3.74388e-12
-4.72692e-11
-3.22926e-11
-4.73952e-11
-4.50884e-11
-4.73991e-11
-4.53251e-11
-4.73635e-11
-4.55934e-11
-4.61825e-11
-4.5854e-11
-4.49823e-11
-4.61181e-11
-4.39009e-11
-4.63968e-11
-4.29675e-11
-4.66948e-11
-4.21744e-11
-4.70133e-11
-4.1504e-11
-4.7353e-11
-4.0935e-11
-4.77142e-11
-4.04471e-11
-4.80967e-11
-4.00225e-11
-4.85e-11
-3.96462e-11
-4.89235e-11
-3.93056e-11
-4.93664e-11
-3.89904e-11
-4.98279e-11
-3.86925e-11
-5.03069e-11
-3.84055e-11
-5.08025e-11
-3.81245e-11
-5.13137e-11
-3.78458e-11
-5.18396e-11
-3.75666e-11
-5.23791e-11
-3.72851e-11
-5.29315e-11
-3.70001e-11
-5.34957e-11
-3.67109e-11
-5.4071e-11
-3.64173e-11
-3.61194e-11
-5.46565e-11
-2.51755e-14
-1.81185e-12
-9.3283e-14
-5.29836e-12
-1.99644e-13
-8.64631e-12
-3.41064e-13
-1.1855e-11
-5.14664e-13
-1.49241e-11
-7.17809e-13
-1.78538e-11
-9.48083e-13
-2.06437e-11
-1.20322e-12
-2.32938e-11
-1.4811e-12
-2.58041e-11
-1.77963e-12
-2.81744e-11
-2.09683e-12
-3.04049e-11
-2.43063e-12
-3.24954e-11
-2.77901e-12
-3.4446e-11
-3.13978e-12
-3.62567e-11
-3.5107e-12
-3.79276e-11
-3.88929e-12
-3.94588e-11
-4.27295e-12
-4.08504e-11
-4.65872e-12
-4.21026e-11
-5.04343e-12
-4.32155e-11
-5.42344e-12
-4.41893e-11
-5.79492e-12
-4.50244e-11
-6.15338e-12
-4.57208e-11
-6.49347e-12
-4.62793e-11
-6.80745e-12
-4.67011e-11
-7.52471e-12
-4.699e-11
-4.48901e-11
-4.71579e-11
-4.51322e-11
-4.71571e-11
-4.53322e-11
-4.71634e-11
-4.57026e-11
-4.58122e-11
-4.60966e-11
-4.45883e-11
-4.64951e-11
-4.35024e-11
-4.68973e-11
-4.25654e-11
-4.7305e-11
-4.17667e-11
-4.77201e-11
-4.10889e-11
-4.81441e-11
-4.05109e-11
-4.85784e-11
-4.00128e-11
-4.9024e-11
-3.9577e-11
-4.94816e-11
-3.91886e-11
-4.99519e-11
-3.88353e-11
-5.04351e-11
-3.85072e-11
-5.09313e-11
-3.81963e-11
-5.14405e-11
-3.78964e-11
-5.19625e-11
-3.76025e-11
-5.2497e-11
-3.73113e-11
-5.30437e-11
-3.70199e-11
-5.36021e-11
-3.67267e-11
-5.41718e-11
-3.64305e-11
-5.47522e-11
-3.61305e-11
-5.53429e-11
-3.58267e-11
-3.55191e-11
-5.59432e-11
-1.20456e-14
-1.79981e-12
-4.91649e-14
-5.26124e-12
-1.11095e-13
-8.58438e-12
-1.96967e-13
-1.17691e-11
-3.05919e-13
-1.48152e-11
-4.37089e-13
-1.77226e-11
-5.89638e-13
-2.04911e-11
-7.62722e-13
-2.31207e-11
-9.55539e-13
-2.56113e-11
-1.16728e-12
-2.79627e-11
-1.39718e-12
-3.0175e-11
-1.64448e-12
-3.22481e-11
-1.90849e-12
-3.4182e-11
-2.18848e-12
-3.59767e-11
-2.48385e-12
-3.76323e-11
-2.79395e-12
-3.91487e-11
-3.11829e-12
-4.05261e-11
-3.45631e-12
-4.17645e-11
-3.80773e-12
-4.28641e-11
-4.17214e-12
-4.38249e-11
-4.54948e-12
-4.46471e-11
-4.93945e-12
-4.53308e-11
-5.34233e-12
-4.58764e-11
-5.759e-12
-4.62845e-11
-6.63199e-12
-4.65555e-11
-4.10613e-11
-4.67076e-11
-4.14973e-11
-4.67211e-11
-4.22705e-11
-4.63902e-11
-4.30503e-11
-4.50324e-11
-4.38132e-11
-4.38254e-11
-4.45332e-11
-4.27824e-11
-4.52118e-11
-4.18867e-11
-4.58567e-11
-4.11218e-11
-4.64764e-11
-4.04692e-11
-4.70783e-11
-3.9909e-11
-4.76686e-11
-3.94225e-11
-4.82525e-11
-3.89931e-11
-4.88339e-11
-3.86072e-11
-4.9416e-11
-3.82532e-11
-5.00014e-11
-3.79219e-11
-5.05917e-11
-3.7606e-11
-5.11883e-11
-3.72998e-11
-5.1792e-11
-3.69988e-11
-5.24034e-11
-3.66998e-11
-5.30228e-11
-3.64005e-11
-5.36503e-11
-3.60992e-11
-5.42858e-11
-3.57949e-11
-5.49291e-11
-3.54872e-11
-5.558e-11
-3.51758e-11
-3.4861e-11
-5.62381e-11
-3.54825e-15
-1.79626e-12
-1.59348e-14
-5.24886e-12
-3.85119e-14
-8.5618e-12
-7.23803e-14
-1.17352e-11
-1.18503e-13
-1.47691e-11
-1.7774e-13
-1.76634e-11
-2.50855e-13
-2.0418e-11
-3.3855e-13
-2.3033e-11
-4.41465e-13
-2.55083e-11
-5.60219e-13
-2.78439e-11
-6.95399e-13
-3.00398e-11
-8.47608e-13
-3.20959e-11
-1.01745e-12
-3.40121e-11
-1.20557e-12
-3.57886e-11
-1.41266e-12
-3.74252e-11
-1.63949e-12
-3.89219e-11
-1.8869e-12
-4.02787e-11
-2.15587e-12
-4.14956e-11
-2.44745e-12
-4.25725e-11
-2.76291e-12
-4.35095e-11
-3.10362e-12
-4.43064e-11
-3.47128e-12
-4.49632e-11
-3.86783e-12
-4.54798e-11
-4.29561e-12
-4.58567e-11
-5.65714e-12
-4.60951e-11
-3.87221e-11
-4.6223e-11
-3.92195e-11
-4.62237e-11
-4.02767e-11
-4.5333e-11
-4.12225e-11
-4.40866e-11
-4.21045e-11
-4.29434e-11
-4.29361e-11
-4.19508e-11
-4.37216e-11
-4.11012e-11
-4.4468e-11
-4.03754e-11
-4.51843e-11
-3.97529e-11
-4.5879e-11
-3.92143e-11
-4.65594e-11
-3.87421e-11
-4.72312e-11
-3.83213e-11
-4.7899e-11
-3.79394e-11
-4.85661e-11
-3.7586e-11
-4.92355e-11
-3.72526e-11
-4.99088e-11
-3.69326e-11
-5.05877e-11
-3.66209e-11
-5.12729e-11
-3.63136e-11
-5.19649e-11
-3.60078e-11
-5.26642e-11
-3.57013e-11
-5.33706e-11
-3.53928e-11
-5.40841e-11
-3.50815e-11
-5.48044e-11
-3.47669e-11
-5.5531e-11
-3.44492e-11
-3.41284e-11
-5.62636e-11
-6.47752e-15
-1.78978e-12
-2.57572e-14
-5.22958e-12
-5.82139e-14
-8.52934e-12
-1.04492e-13
-1.16889e-11
-1.65275e-13
-1.47083e-11
-2.41272e-13
-1.75874e-11
-3.33219e-13
-2.03261e-11
-4.41862e-13
-2.29244e-11
-5.67968e-13
-2.53822e-11
-7.12303e-13
-2.76996e-11
-8.75651e-13
-2.98764e-11
-1.05878e-12
-3.19127e-11
-1.26247e-12
-3.38084e-11
-1.48749e-12
-3.55636e-11
-1.73459e-12
-3.71781e-11
-2.0045e-12
-3.8652e-11
-2.29794e-12
-3.99853e-11
-2.61558e-12
-4.11779e-11
-2.95804e-12
-4.22301e-11
-3.32588e-12
-4.31416e-11
-3.71961e-12
-4.39127e-11
-4.13964e-12
-4.45431e-11
-4.58634e-12
-4.50331e-11
-5.05968e-12
-4.53834e-11
-7.7838e-12
-4.5596e-11
-3.90092e-11
-4.57049e-11
-3.95294e-11
-4.57035e-11
-4.02694e-11
-4.4593e-11
-4.10124e-11
-4.33436e-11
-4.17423e-11
-4.22135e-11
-4.24612e-11
-4.12318e-11
-4.31726e-11
-4.03899e-11
-4.38784e-11
-3.96696e-11
-4.45808e-11
-3.90505e-11
-4.52819e-11
-3.85132e-11
-4.59837e-11
-3.80403e-11
-4.66879e-11
-3.76171e-11
-4.73961e-11
-3.72313e-11
-4.81093e-11
-3.68727e-11
-4.88285e-11
-3.65334e-11
-4.95543e-11
-3.62068e-11
-5.02871e-11
-3.58881e-11
-5.10271e-11
-3.55737e-11
-5.17743e-11
-3.52606e-11
-5.25285e-11
-3.4947e-11
-5.32896e-11
-3.46317e-11
-5.40571e-11
-3.43139e-11
-5.48307e-11
-3.39933e-11
-5.561e-11
-3.36699e-11
-3.3344e-11
-5.63944e-11
-2.6438e-15
-1.78714e-12
-1.21224e-14
-5.2201e-12
-2.99404e-14
-8.51152e-12
-5.75598e-14
-1.16613e-11
-9.64049e-14
-1.46694e-11
-1.47879e-13
-1.75359e-11
-2.1336e-13
-2.02606e-11
-2.94221e-13
-2.28435e-11
-3.9182e-13
-2.52846e-11
-5.07532e-13
-2.75839e-11
-6.42723e-13
-2.97413e-11
-7.98798e-13
-3.17567e-11
-9.77162e-13
-3.36301e-11
-1.17928e-12
-3.53614e-11
-1.40664e-12
-3.69507e-11
-1.66079e-12
-3.83978e-11
-1.94331e-12
-3.97027e-11
-2.25592e-12
-4.08653e-11
-2.6003e-12
-4.18857e-11
-2.97835e-12
-4.27636e-11
-3.39202e-12
-4.3499e-11
-3.84365e-12
-4.40915e-11
-4.3353e-12
-4.45415e-11
-4.86758e-12
-4.48511e-11
-9.80222e-12
-4.50276e-11
-3.86662e-11
-4.50996e-11
-3.92887e-11
-4.5081e-11
-3.99552e-11
-4.39265e-11
-4.06405e-11
-4.26583e-11
-4.13402e-11
-4.15138e-11
-4.20523e-11
-4.05197e-11
-4.27752e-11
-3.96669e-11
-4.35074e-11
-3.89374e-11
-4.42476e-11
-3.83103e-11
-4.49951e-11
-3.77657e-11
-4.57491e-11
-3.72862e-11
-4.65095e-11
-3.68568e-11
-4.72758e-11
-3.6465e-11
-4.80479e-11
-3.61006e-11
-4.88257e-11
-3.57555e-11
-4.96092e-11
-3.54234e-11
-5.0398e-11
-3.50993e-11
-5.11922e-11
-3.47795e-11
-5.19915e-11
-3.44613e-11
-5.27957e-11
-3.41428e-11
-5.36046e-11
-3.38228e-11
-5.44178e-11
-3.35006e-11
-5.52352e-11
-3.31759e-11
-5.60563e-11
-3.28488e-11
-3.25194e-11
-5.68809e-11
1.46638e-15
-1.78861e-12
2.60141e-15
-5.22123e-12
7.49465e-16
-8.50967e-12
-6.35234e-15
-1.16542e-11
-2.07943e-14
-1.4655e-11
-4.45221e-14
-1.75122e-11
-7.93751e-14
-2.02257e-11
-1.27104e-13
-2.27958e-11
-1.89409e-13
-2.52223e-11
-2.67956e-13
-2.75053e-11
-3.64418e-13
-2.96448e-11
-4.8048e-13
-3.16406e-11
-6.17896e-13
-3.34927e-11
-7.78481e-13
-3.52009e-11
-9.64187e-13
-3.6765e-11
-1.17708e-12
-3.81849e-11
-1.41944e-12
-3.94604e-11
-1.69371e-12
-4.05911e-11
-2.00267e-12
-4.15767e-11
-2.34923e-12
-4.2417e-11
-2.73659e-12
-4.31116e-11
-3.1685e-12
-4.36596e-11
-3.65124e-12
-4.40587e-11
-4.19508e-12
-4.43072e-11
-1.26967e-11
-4.44145e-11
-3.789e-11
-4.44632e-11
-3.8561e-11
-4.441e-11
-3.92978e-11
-4.31898e-11
-4.00491e-11
-4.19069e-11
-4.08146e-11
-4.07483e-11
-4.15906e-11
-3.97438e-11
-4.23753e-11
-3.88822e-11
-4.3168e-11
-3.81447e-11
-4.39679e-11
-3.75104e-11
-4.47743e-11
-3.69593e-11
-4.55866e-11
-3.64739e-11
-4.64044e-11
-3.6039e-11
-4.72273e-11
-3.56421e-11
-4.80551e-11
-3.52729e-11
-4.88873e-11
-3.49233e-11
-4.97239e-11
-3.45868e-11
-5.05646e-11
-3.42586e-11
-5.1409e-11
-3.3935e-11
-5.22572e-11
-3.36132e-11
-5.31087e-11
-3.32913e-11
-5.39635e-11
-3.29681e-11
-5.48213e-11
-3.26429e-11
-5.56818e-11
-3.23154e-11
-5.65449e-11
-3.19856e-11
-3.16539e-11
-5.74104e-11
-9.71728e-15
-1.77889e-12
-3.96658e-14
-5.19128e-12
-8.98344e-14
-8.4595e-12
-1.5982e-13
-1.15842e-11
-2.49239e-13
-1.45656e-11
-3.57684e-13
-1.74037e-11
-4.84768e-13
-2.00986e-11
-6.30061e-13
-2.26505e-11
-7.93153e-13
-2.50592e-11
-9.73567e-13
-2.73249e-11
-1.17086e-12
-2.94475e-11
-1.38447e-12
-3.1427e-11
-1.61389e-12
-3.32632e-11
-1.85846e-12
-3.49563e-11
-2.11758e-12
-3.65059e-11
-2.39043e-12
-3.79121e-11
-2.67628e-12
-3.91745e-11
-2.97408e-12
-4.02933e-11
-3.28294e-12
-4.12679e-11
-3.60152e-12
-4.20984e-11
-3.92872e-12
-4.27844e-11
-4.26271e-12
-4.33256e-11
-4.60162e-12
-4.37198e-11
-4.94198e-12
-4.39669e-11
-3.10445e-11
-4.40763e-11
-4.55742e-11
-4.40978e-11
-4.59312e-11
-4.4053e-11
-4.63129e-11
-4.28081e-11
-4.67013e-11
-4.15185e-11
-4.71043e-11
-4.03453e-11
-4.75288e-11
-3.93193e-11
-4.79775e-11
-3.84334e-11
-4.84509e-11
-3.76713e-11
-4.89486e-11
-3.70127e-11
-4.947e-11
-3.6438e-11
-5.00142e-11
-3.59297e-11
-5.05801e-11
-3.54731e-11
-5.11667e-11
-3.50554e-11
-5.17729e-11
-3.46667e-11
-5.23977e-11
-3.42985e-11
-5.304e-11
-3.39445e-11
-5.3699e-11
-3.35996e-11
-5.43738e-11
-3.32602e-11
-5.50635e-11
-3.29234e-11
-5.57674e-11
-3.25873e-11
-5.64849e-11
-3.22507e-11
-5.72151e-11
-3.19127e-11
-5.79574e-11
-3.1573e-11
-5.87113e-11
-3.12318e-11
-3.08891e-11
-5.94761e-11
-2.80434e-14
-1.75085e-12
-1.05247e-13
-5.11408e-12
-2.2668e-13
-8.33807e-12
-3.88541e-13
-1.14224e-11
-5.87297e-13
-1.43668e-11
-8.19653e-13
-1.71714e-11
-1.08248e-12
-1.98358e-11
-1.37282e-12
-2.23602e-11
-1.68776e-12
-2.47443e-11
-2.02451e-12
-2.69882e-11
-2.38023e-12
-2.90918e-11
-2.75213e-12
-3.10551e-11
-3.13729e-12
-3.28781e-11
-3.53275e-12
-3.45608e-11
-3.93532e-12
-3.61033e-11
-4.34173e-12
-3.75057e-11
-4.74835e-12
-3.87679e-11
-5.15138e-12
-3.98902e-11
-5.54656e-12
-4.08727e-11
-5.9295e-12
-4.17155e-11
-6.2953e-12
-4.24186e-11
-6.63827e-12
-4.29826e-11
-6.94916e-12
-4.34089e-11
-7.42484e-12
-4.37018e-11
-4.84004e-11
-4.38712e-11
-4.86315e-11
-4.38667e-11
-4.88001e-11
-4.38844e-11
-4.91008e-11
-4.25074e-11
-4.94381e-11
-4.11812e-11
-4.97997e-11
-3.99838e-11
-5.01835e-11
-3.89354e-11
-5.05898e-11
-3.80271e-11
-5.10186e-11
-3.72426e-11
-5.14694e-11
-3.65619e-11
-5.19417e-11
-3.59656e-11
-5.24349e-11
-3.54365e-11
-5.29483e-11
-3.49597e-11
-5.34812e-11
-3.45226e-11
-5.40329e-11
-3.41149e-11
-5.4603e-11
-3.37284e-11
-5.51909e-11
-3.33566e-11
-5.5796e-11
-3.29945e-11
-5.6418e-11
-3.26383e-11
-5.70563e-11
-3.22851e-11
-5.77106e-11
-3.19331e-11
-5.83804e-11
-3.15809e-11
-5.90653e-11
-3.12278e-11
-5.97648e-11
-3.08735e-11
-6.04785e-11
-3.05181e-11
-3.01618e-11
-6.12058e-11
-2.00626e-14
-1.73078e-12
-7.80761e-14
-5.05607e-12
-1.71767e-13
-8.24438e-12
-2.9887e-13
-1.12953e-11
-4.57204e-13
-1.42085e-11
-6.44678e-13
-1.69839e-11
-8.5926e-13
-1.96212e-11
-1.099e-12
-2.21204e-11
-1.36199e-12
-2.44813e-11
-1.64639e-12
-2.67038e-11
-1.95039e-12
-2.87878e-11
-2.27225e-12
-3.07332e-11
-2.61021e-12
-3.25401e-11
-2.9626e-12
-3.42084e-11
-3.32772e-12
-3.57382e-11
-3.70397e-12
-3.71294e-11
-4.08967e-12
-3.83822e-11
-4.48329e-12
-3.94966e-11
-4.88319e-12
-4.04728e-11
-5.2879e-12
-4.13108e-11
-5.69562e-12
-4.20109e-11
-6.10487e-12
-4.25734e-11
-6.51491e-12
-4.29989e-11
-7.13988e-12
-4.32875e-11
-4.43403e-11
-4.34519e-11
-4.47341e-11
-4.34729e-11
-4.52521e-11
-4.33665e-11
-4.58746e-11
-4.18848e-11
-4.65015e-11
-4.05543e-11
-4.7114e-11
-3.93713e-11
-4.77155e-11
-3.83339e-11
-4.83109e-11
-3.74317e-11
-4.89045e-11
-3.6649e-11
-4.94999e-11
-3.59665e-11
-5.01e-11
-3.53655e-11
-5.07073e-11
-3.48292e-11
-5.13239e-11
-3.43431e-11
-5.19512e-11
-3.38952e-11
-5.25905e-11
-3.34756e-11
-5.32425e-11
-3.30764e-11
-5.39078e-11
-3.26913e-11
-5.45868e-11
-3.23155e-11
-5.52797e-11
-3.19454e-11
-5.59864e-11
-3.15784e-11
-5.67069e-11
-3.12125e-11
-5.74411e-11
-3.08467e-11
-5.81886e-11
-3.04803e-11
-5.89492e-11
-3.01129e-11
-5.97226e-11
-2.97448e-11
-2.93761e-11
-6.05082e-11
-6.23419e-15
-1.72455e-12
-2.68636e-14
-5.03544e-12
-6.27681e-14
-8.20847e-12
-1.14263e-13
-1.12438e-11
-1.81548e-13
-1.41412e-11
-2.64724e-13
-1.69007e-11
-3.63817e-13
-1.95221e-11
-4.78798e-13
-2.20054e-11
-6.09608e-13
-2.43505e-11
-7.5617e-13
-2.65572e-11
-9.18422e-13
-2.86255e-11
-1.09632e-12
-3.05553e-11
-1.28986e-12
-3.23466e-11
-1.49912e-12
-3.39992e-11
-1.72425e-12
-3.55131e-11
-1.96549e-12
-3.68882e-11
-2.22325e-12
-3.81244e-11
-2.49805e-12
-3.92218e-11
-2.79063e-12
-4.01802e-11
-3.10187e-12
-4.09996e-11
-3.43295e-12
-4.16798e-11
-3.78534e-12
-4.2221e-11
-4.16095e-12
-4.26233e-11
-5.00908e-12
-4.28867e-11
-4.08202e-11
-4.30307e-11
-4.12485e-11
-4.30446e-11
-4.22238e-11
-4.23912e-11
-4.31222e-11
-4.09864e-11
-4.39823e-11
-3.96942e-11
-4.47978e-11
-3.85558e-11
-4.55705e-11
-3.75613e-11
-4.63081e-11
-3.66941e-11
-4.70205e-11
-3.59365e-11
-4.77167e-11
-3.52703e-11
-4.84041e-11
-3.46781e-11
-4.90888e-11
-3.41445e-11
-4.97757e-11
-3.36563e-11
-5.04684e-11
-3.32025e-11
-5.11699e-11
-3.27741e-11
-5.18823e-11
-3.2364e-11
-5.26071e-11
-3.19664e-11
-5.33454e-11
-3.15772e-11
-5.40977e-11
-3.11931e-11
-5.48645e-11
-3.08116e-11
-5.56457e-11
-3.04313e-11
-5.64412e-11
-3.00512e-11
-5.72509e-11
-2.96706e-11
-5.80742e-11
-2.92896e-11
-5.89109e-11
-2.89081e-11
-2.85267e-11
-5.97603e-11
-5.91146e-15
-1.71864e-12
-2.29167e-14
-5.01843e-12
-5.09138e-14
-8.18048e-12
-9.01137e-14
-1.12046e-11
-1.40726e-13
-1.40906e-11
-2.02953e-13
-1.68385e-11
-2.76987e-13
-1.94481e-11
-3.63022e-13
-2.19194e-11
-4.61247e-13
-2.42523e-11
-5.71861e-13
-2.64466e-11
-6.95063e-13
-2.85023e-11
-8.31071e-13
-3.04193e-11
-9.80106e-13
-3.21975e-11
-1.14242e-12
-3.38369e-11
-1.31826e-12
-3.53372e-11
-1.50791e-12
-3.66985e-11
-1.71169e-12
-3.79207e-11
-1.92991e-12
-3.90036e-11
-2.16293e-12
-3.99472e-11
-2.41114e-12
-4.07513e-11
-2.67492e-12
-4.1416e-11
-2.9547e-12
-4.19412e-11
-3.25098e-12
-4.2327e-11
-4.26061e-12
-4.25733e-11
-3.92294e-11
-4.27032e-11
-3.95556e-11
-4.27184e-11
-4.03473e-11
-4.15996e-11
-4.10982e-11
-4.02355e-11
-4.18146e-11
-3.89778e-11
-4.25076e-11
-3.78628e-11
-4.31834e-11
-3.68855e-11
-4.38473e-11
-3.60302e-11
-4.45054e-11
-3.52784e-11
-4.51634e-11
-3.46123e-11
-4.58262e-11
-3.40153e-11
-4.64978e-11
-3.34729e-11
-4.71813e-11
-3.29728e-11
-4.78792e-11
-3.25046e-11
-4.85933e-11
-3.206e-11
-4.93248e-11
-3.16324e-11
-5.00746e-11
-3.12167e-11
-5.08431e-11
-3.08088e-11
-5.16303e-11
-3.04058e-11
-5.24363e-11
-3.00057e-11
-5.32606e-11
-2.9607e-11
-5.41028e-11
-2.92089e-11
-5.49624e-11
-2.88111e-11
-5.58386e-11
-2.84133e-11
-5.67309e-11
-2.80159e-11
-2.76192e-11
-5.76384e-11
-2.20813e-15
-1.71643e-12
-9.3754e-15
-5.01127e-12
-2.18096e-14
-8.16804e-12
-3.97539e-14
-1.11866e-11
-6.35024e-14
-1.40668e-11
-9.33689e-14
-1.68086e-11
-1.29682e-13
-1.94118e-11
-1.72786e-13
-2.18763e-11
-2.23037e-13
-2.4202e-11
-2.80805e-13
-2.63888e-11
-3.46467e-13
-2.84367e-11
-4.20412e-13
-3.03454e-11
-5.0303e-13
-3.21149e-11
-5.9472e-13
-3.37452e-11
-6.95872e-13
-3.52361e-11
-8.06883e-13
-3.65875e-11
-9.28133e-13
-3.77994e-11
-1.06e-12
-3.88717e-11
-1.20285e-12
-3.98043e-11
-1.35703e-12
-4.05972e-11
-1.52284e-12
-4.12502e-11
-1.70049e-12
-4.17635e-11
-1.89001e-12
-4.21375e-11
-2.783e-12
-4.23717e-11
-3.72962e-11
-4.24865e-11
-3.75082e-11
-4.25064e-11
-3.78883e-11
-4.12194e-11
-3.83131e-11
-3.98107e-11
-3.87722e-11
-3.85188e-11
-3.92646e-11
-3.73703e-11
-3.97905e-11
-3.63596e-11
-4.03493e-11
-3.54714e-11
-4.094e-11
-3.46877e-11
-4.15618e-11
-3.39905e-11
-4.22137e-11
-3.33634e-11
-4.2895e-11
-3.27916e-11
-4.36048e-11
-3.2263e-11
-4.43423e-11
-3.17671e-11
-4.51068e-11
-3.12956e-11
-4.58972e-11
-3.0842e-11
-4.67128e-11
-3.04011e-11
-4.75526e-11
-2.9969e-11
-4.84156e-11
-2.95428e-11
-4.93009e-11
-2.91204e-11
-5.02075e-11
-2.87005e-11
-5.11343e-11
-2.82821e-11
-5.20805e-11
-2.78649e-11
-5.3045e-11
-2.74488e-11
-5.40268e-11
-2.7034e-11
-2.66209e-11
-5.50252e-11
3.68292e-15
1.40932e-14
3.05827e-14
5.24052e-14
7.87531e-14
1.08825e-13
1.41828e-13
1.76967e-13
2.13451e-13
2.50482e-13
2.87263e-13
3.22988e-13
3.56857e-13
3.8806e-13
4.15797e-13
4.39257e-13
4.57641e-13
4.70142e-13
4.75977e-13
4.74377e-13
4.6458e-13
4.45613e-13
4.16034e-13
3.75793e-13
-3.47392e-11
-3.47886e-11
-3.49297e-11
-3.51349e-11
-3.54004e-11
-3.57239e-11
-3.61037e-11
-3.65381e-11
-3.70249e-11
-3.75616e-11
-3.81459e-11
-3.87752e-11
-3.94472e-11
-4.01597e-11
-4.09105e-11
-4.16978e-11
-4.25196e-11
-4.3374e-11
-4.42595e-11
-4.51744e-11
-4.61172e-11
-4.70864e-11
-4.80806e-11
-4.90984e-11
-5.01387e-11
-5.12002e-11
-5.29723e-11
-3.94858e-11
-5.33943e-11
-3.91949e-11
-5.38165e-11
-3.88986e-11
-5.42388e-11
-3.85979e-11
-5.46612e-11
-3.82933e-11
-5.50835e-11
-3.79856e-11
-5.55055e-11
-3.76757e-11
-5.59273e-11
-3.73641e-11
-5.63486e-11
-3.70516e-11
-5.67694e-11
-3.67385e-11
-5.71895e-11
-3.64255e-11
-5.76087e-11
-3.61129e-11
-5.80271e-11
-3.5801e-11
-5.84444e-11
-3.549e-11
-5.88605e-11
-3.51801e-11
-5.92753e-11
-3.48714e-11
-5.96887e-11
-3.4564e-11
-6.01005e-11
-3.4258e-11
-6.05107e-11
-3.39531e-11
-6.09191e-11
-3.36496e-11
-6.13256e-11
-3.33472e-11
-6.17301e-11
-3.30458e-11
-6.21324e-11
-3.27455e-11
-6.25324e-11
-3.24461e-11
-6.29301e-11
-3.21474e-11
-6.33253e-11
-3.18494e-11
-6.37179e-11
-3.1552e-11
-6.41079e-11
-3.12552e-11
-6.4495e-11
-3.09588e-11
-6.48792e-11
-3.06628e-11
-6.52604e-11
-3.03672e-11
-6.56385e-11
-3.00721e-11
-6.60135e-11
-2.97774e-11
-6.63851e-11
-2.94834e-11
-6.67534e-11
-2.91903e-11
-6.71182e-11
-2.88982e-11
-6.74795e-11
-2.86075e-11
-6.78371e-11
-2.83186e-11
-6.81911e-11
-2.80321e-11
-6.85413e-11
-2.77485e-11
-6.88877e-11
-2.74688e-11
-6.92302e-11
-2.71938e-11
-6.95687e-11
-2.69247e-11
-6.99032e-11
-2.66627e-11
-7.02336e-11
-2.64093e-11
-7.05599e-11
-2.61662e-11
-7.08821e-11
-2.59346e-11
-7.12e-11
-2.57157e-11
-7.15138e-11
-2.55088e-11
-2.53074e-11
-7.18192e-11
-5.37757e-11
-3.90017e-11
-5.4262e-11
-3.87086e-11
-5.47501e-11
-3.84105e-11
-5.52399e-11
-3.81081e-11
-5.57309e-11
-3.78023e-11
-5.62229e-11
-3.74936e-11
-5.67156e-11
-3.7183e-11
-5.72088e-11
-3.68709e-11
-5.77022e-11
-3.65582e-11
-5.81955e-11
-3.62452e-11
-5.86884e-11
-3.59325e-11
-5.91808e-11
-3.56205e-11
-5.96724e-11
-3.53094e-11
-6.0163e-11
-3.49994e-11
-6.06523e-11
-3.46907e-11
-6.11402e-11
-3.43835e-11
-6.16265e-11
-3.40778e-11
-6.21109e-11
-3.37735e-11
-6.25933e-11
-3.34708e-11
-6.30734e-11
-3.31694e-11
-6.35512e-11
-3.28694e-11
-6.40264e-11
-3.25706e-11
-6.44989e-11
-3.2273e-11
-6.49685e-11
-3.19765e-11
-6.5435e-11
-3.16809e-11
-6.58983e-11
-3.13861e-11
-6.63582e-11
-3.10921e-11
-6.68145e-11
-3.07988e-11
-6.72672e-11
-3.05061e-11
-6.7716e-11
-3.02139e-11
-6.81609e-11
-2.99223e-11
-6.86017e-11
-2.96313e-11
-6.90382e-11
-2.93409e-11
-6.94704e-11
-2.90513e-11
-6.98981e-11
-2.87626e-11
-7.03211e-11
-2.84751e-11
-7.07395e-11
-2.81891e-11
-7.1153e-11
-2.79051e-11
-7.15616e-11
-2.76235e-11
-7.19651e-11
-2.7345e-11
-7.23635e-11
-2.70704e-11
-7.27567e-11
-2.68006e-11
-7.31445e-11
-2.65368e-11
-7.3527e-11
-2.62802e-11
-7.3904e-11
-2.60323e-11
-7.42755e-11
-2.57946e-11
-7.46415e-11
-2.55687e-11
-7.50019e-11
-2.53553e-11
-7.53567e-11
-2.5154e-11
-2.49548e-11
-7.57094e-11
-5.23602e-11
-3.84431e-11
-5.29211e-11
-3.81477e-11
-5.34838e-11
-3.78478e-11
-5.40479e-11
-3.7544e-11
-5.46129e-11
-3.72372e-11
-5.51785e-11
-3.6928e-11
-5.57442e-11
-3.66173e-11
-5.63096e-11
-3.63055e-11
-5.68744e-11
-3.59934e-11
-5.74383e-11
-3.56814e-11
-5.80008e-11
-3.537e-11
-5.85619e-11
-3.50595e-11
-5.91211e-11
-3.47501e-11
-5.96783e-11
-3.44422e-11
-6.02333e-11
-3.41358e-11
-6.07858e-11
-3.3831e-11
-6.13357e-11
-3.35279e-11
-6.18829e-11
-3.32264e-11
-6.24271e-11
-3.29265e-11
-6.29683e-11
-3.26282e-11
-6.35062e-11
-3.23314e-11
-6.40408e-11
-3.2036e-11
-6.4572e-11
-3.17419e-11
-6.50995e-11
-3.14489e-11
-6.56234e-11
-3.1157e-11
-6.61434e-11
-3.08661e-11
-6.66595e-11
-3.0576e-11
-6.71716e-11
-3.02868e-11
-6.76795e-11
-2.99982e-11
-6.81831e-11
-2.97103e-11
-6.86824e-11
-2.9423e-11
-6.91772e-11
-2.91365e-11
-6.96675e-11
-2.88506e-11
-7.01531e-11
-2.85657e-11
-7.0634e-11
-2.82817e-11
-7.111e-11
-2.79991e-11
-7.15812e-11
-2.7718e-11
-7.20473e-11
-2.74389e-11
-7.25083e-11
-2.71624e-11
-7.29642e-11
-2.68891e-11
-7.34149e-11
-2.66197e-11
-7.38602e-11
-2.63553e-11
-7.43002e-11
-2.60968e-11
-7.47347e-11
-2.58457e-11
-7.51638e-11
-2.56033e-11
-7.55872e-11
-2.53711e-11
-7.60052e-11
-2.51508e-11
-7.64174e-11
-2.49431e-11
-7.68241e-11
-2.47473e-11
-2.45564e-11
-7.72224e-11
-5.27607e-11
-3.7842e-11
-5.33655e-11
-3.75428e-11
-5.39736e-11
-3.72397e-11
-5.45842e-11
-3.69334e-11
-5.51967e-11
-3.66246e-11
-5.58107e-11
-3.63141e-11
-5.64256e-11
-3.60024e-11