/*--------------------------------*- C++ -*----------------------------------*\
| =========                 |                                                 |
| \\      /  F ield         | OpenFOAM: The Open Source CFD Toolbox           |
|  \\    /   O peration     | Version:  2.4.0                                 |
|   \\  /    A nd           | Web:      www.OpenFOAM.org                      |
|    \\/     M anipulation  |                                                 |
\*---------------------------------------------------------------------------*/
FoamFile
{
    version     2.0;
    format      ascii;
    class       volVectorField;
    location    "2";
    object      U;
}
// * * * * * * * * * * * * * * * * * * * * * * * * * * * * * * * * * * * * * //

dimensions      [0 1 -1 0 0 0 0];

internalField   nonuniform List<vector> 
8000
(
(-1.63646e-07 -0.000193621 0)
(-1.02769e-06 -0.000565179 0)
(-2.53649e-06 -0.000921241 0)
(-4.57651e-06 -0.00126197 0)
(-7.05763e-06 -0.00158749 0)
(-9.91196e-06 -0.00189794 0)
(-1.30891e-05 -0.00219339 0)
(-1.65387e-05 -0.00247394 0)
(-2.02212e-05 -0.00273966 0)
(-2.40926e-05 -0.00299059 0)
(-2.81217e-05 -0.00322679 0)
(-3.22677e-05 -0.00344828 0)
(-3.65058e-05 -0.0036551 0)
(-4.07955e-05 -0.00384726 0)
(-4.51161e-05 -0.00402476 0)
(-4.94237e-05 -0.00418759 0)
(-5.36993e-05 -0.00433574 0)
(-5.78897e-05 -0.00446919 0)
(-6.19824e-05 -0.00458789 0)
(-6.59441e-05 -0.0046918 0)
(-6.98141e-05 -0.00478087 0)
(-7.34195e-05 -0.00485504 0)
(-7.60002e-05 -0.00491418 0)
(-7.60859e-05 -0.00495801 0)
(-7.61078e-05 -0.00498614 0)
(-9.50272e-05 -0.00499929 0)
(-0.000166741 -0.00500209 0)
(-0.000279272 -0.00500232 0)
(-0.000406316 -0.0050036 0)
(-0.000490866 -0.00491803 0)
(-0.000357967 -0.00480646 0)
(-0.000349796 -0.00470189 0)
(-0.000358526 -0.00461284 0)
(-0.000365558 -0.00453866 0)
(-0.000369318 -0.00447686 0)
(-0.000372322 -0.004425 0)
(-0.000375442 -0.004381 0)
(-0.000378699 -0.00434308 0)
(-0.000381998 -0.00430971 0)
(-0.000385304 -0.00427964 0)
(-0.000388614 -0.00425185 0)
(-0.000391931 -0.00422551 0)
(-0.000395257 -0.0042 0)
(-0.00039859 -0.00417482 0)
(-0.00040193 -0.00414962 0)
(-0.000405277 -0.00412413 0)
(-0.00040863 -0.00409818 0)
(-0.000411988 -0.00407165 0)
(-0.000415352 -0.00404448 0)
(-0.000418719 -0.00401666 0)
(-2.75701e-08 -0.000184518 0)
(-5.65607e-07 -0.000540286 0)
(-1.68635e-06 -0.000882668 0)
(-3.35394e-06 -0.00121156 0)
(-5.49984e-06 -0.00152688 0)
(-8.06252e-06 -0.00182856 0)
(-1.09927e-05 -0.00211652 0)
(-1.42434e-05 -0.00239073 0)
(-1.77744e-05 -0.00265115 0)
(-2.15432e-05 -0.00289773 0)
(-2.55149e-05 -0.00313047 0)
(-2.96491e-05 -0.00334935 0)
(-3.39153e-05 -0.00355435 0)
(-3.82729e-05 -0.00374547 0)
(-4.26942e-05 -0.00392272 0)
(-4.71357e-05 -0.0040861 0)
(-5.15705e-05 -0.00423563 0)
(-5.59472e-05 -0.00437133 0)
(-6.02462e-05 -0.00449323 0)
(-6.44355e-05 -0.00460136 0)
(-6.85376e-05 -0.00469577 0)
(-7.23685e-05 -0.00477651 0)
(-7.52087e-05 -0.00484364 0)
(-7.58454e-05 -0.00489723 0)
(-7.7154e-05 -0.00493742 0)
(-9.62381e-05 -0.00496436 0)
(-0.000164252 -0.00497959 0)
(-0.000276733 -0.00498186 0)
(-0.000456018 -0.00498637 0)
(-0.000441165 -0.0048578 0)
(-0.000355521 -0.00473793 0)
(-0.000350313 -0.00463312 0)
(-0.000358653 -0.004544 0)
(-0.000365232 -0.00446917 0)
(-0.000369292 -0.00440664 0)
(-0.000372735 -0.00435418 0)
(-0.000376237 -0.0043097 0)
(-0.000379825 -0.00427136 0)
(-0.000383436 -0.00423763 0)
(-0.000387053 -0.00420722 0)
(-0.000390681 -0.00417911 0)
(-0.000394329 -0.00415248 0)
(-0.000397999 -0.00412669 0)
(-0.000401694 -0.00410126 0)
(-0.000405416 -0.00407581 0)
(-0.000409163 -0.00405009 0)
(-0.000412936 -0.00402392 0)
(-0.000416734 -0.00399719 0)
(-0.000420556 -0.00396984 0)
(-0.0004244 -0.00394185 0)
(-3.00351e-08 -0.000184795 0)
(-2.01243e-07 -0.000540591 0)
(-5.32747e-07 -0.000882599 0)
(-1.01777e-06 -0.00121082 0)
(-1.65401e-06 -0.00152525 0)
(-2.43846e-06 -0.00182589 0)
(-3.3702e-06 -0.00211273 0)
(-4.44355e-06 -0.00238578 0)
(-5.65586e-06 -0.00264502 0)
(-6.99853e-06 -0.00289046 0)
(-8.46874e-06 -0.0031221 0)
(-1.00557e-05 -0.00333994 0)
(-1.17578e-05 -0.00354398 0)
(-1.35623e-05 -0.00373423 0)
(-1.54703e-05 -0.0039107 0)
(-1.74665e-05 -0.0040734 0)
(-1.95553e-05 -0.00422233 0)
(-2.17175e-05 -0.00435751 0)
(-2.39692e-05 -0.00447896 0)
(-2.63144e-05 -0.00458669 0)
(-2.88142e-05 -0.00468073 0)
(-3.13346e-05 -0.0047611 0)
(-3.32663e-05 -0.00482782 0)
(-3.35803e-05 -0.00488092 0)
(-3.52231e-05 -0.00492048 0)
(-5.36184e-05 -0.0049466 0)
(-0.000120216 -0.00496113 0)
(-0.00023679 -0.004963 0)
(-0.000477424 -0.00494815 0)
(-0.000355364 -0.0048165 0)
(-0.000320958 -0.00469861 0)
(-0.000325323 -0.00459682 0)
(-0.00033531 -0.0045106 0)
(-0.000342115 -0.00443821 0)
(-0.000347071 -0.00437755 0)
(-0.00035158 -0.00432643 0)
(-0.000356025 -0.00428287 0)
(-0.000360411 -0.0042451 0)
(-0.000364726 -0.00421166 0)
(-0.000368992 -0.00418133 0)
(-0.000373234 -0.00415314 0)
(-0.000377473 -0.00412631 0)
(-0.000381722 -0.00410024 0)
(-0.000385991 -0.00407447 0)
(-0.000390285 -0.00404866 0)
(-0.000394606 -0.00402256 0)
(-0.000398958 -0.00399601 0)
(-0.000403339 -0.00396891 0)
(-0.000407748 -0.0039412 0)
(-0.000412184 -0.00391289 0)
(-3.72538e-09 -0.000182868 0)
(-1.03362e-07 -0.000535114 0)
(-3.27676e-07 -0.000873837 0)
(-6.80584e-07 -0.00119901 0)
(-1.1621e-06 -0.0015106 0)
(-1.77073e-06 -0.00180858 0)
(-2.50928e-06 -0.00209294 0)
(-3.37699e-06 -0.00236365 0)
(-4.37831e-06 -0.00262069 0)
(-5.51155e-06 -0.00286405 0)
(-6.78286e-06 -0.00309371 0)
(-8.18915e-06 -0.00330967 0)
(-9.73897e-06 -0.00351192 0)
(-1.14272e-05 -0.00370045 0)
(-1.32656e-05 -0.00387526 0)
(-1.52457e-05 -0.00403634 0)
(-1.73828e-05 -0.00418369 0)
(-1.96631e-05 -0.00431731 0)
(-2.21142e-05 -0.0044372 0)
(-2.47398e-05 -0.00454336 0)
(-2.75963e-05 -0.0046358 0)
(-3.05204e-05 -0.00471451 0)
(-3.29633e-05 -0.0047795 0)
(-3.42394e-05 -0.00483077 0)
(-3.80402e-05 -0.00486839 0)
(-5.77555e-05 -0.00489244 0)
(-0.000120365 -0.00490569 0)
(-0.00024194 -0.00490653 0)
(-0.000515989 -0.00481844 0)
(-0.000317637 -0.00469501 0)
(-0.000313013 -0.00458592 0)
(-0.00032608 -0.00449277 0)
(-0.000336655 -0.00441414 0)
(-0.000342463 -0.00434801 0)
(-0.000347017 -0.00429226 0)
(-0.00035151 -0.00424485 0)
(-0.000356028 -0.00420398 0)
(-0.000360495 -0.00416809 0)
(-0.000364906 -0.00413588 0)
(-0.000369291 -0.00410629 0)
(-0.000373678 -0.00407846 0)
(-0.000378086 -0.00405172 0)
(-0.000382527 -0.00402555 0)
(-0.000387009 -0.00399954 0)
(-0.000391537 -0.00397341 0)
(-0.000396113 -0.00394695 0)
(-0.000400737 -0.00392002 0)
(-0.000405408 -0.00389255 0)
(-0.000410123 -0.00386451 0)
(-0.00041488 -0.00383589 0)
(5.47645e-09 -0.000183207 0)
(5.96062e-08 -0.000535841 0)
(1.48808e-07 -0.000874686 0)
(2.56241e-07 -0.00119973 0)
(3.59125e-07 -0.00151097 0)
(4.39278e-07 -0.0018084 0)
(4.76222e-07 -0.00209199 0)
(4.55433e-07 -0.00236176 0)
(3.567e-07 -0.00261768 0)
(1.67955e-07 -0.00285976 0)
(-1.3207e-07 -0.00308799 0)
(-5.5305e-07 -0.00330237 0)
(-1.11863e-06 -0.0035029 0)
(-1.83592e-06 -0.00368958 0)
(-2.73261e-06 -0.00386241 0)
(-3.81244e-06 -0.0040214 0)
(-5.10838e-06 -0.00416655 0)
(-6.61965e-06 -0.00429788 0)
(-8.39445e-06 -0.00441539 0)
(-1.04474e-05 -0.00451911 0)
(-1.28476e-05 -0.00460905 0)
(-1.54398e-05 -0.00468523 0)
(-1.77779e-05 -0.00474769 0)
(-1.94636e-05 -0.00479646 0)
(-2.44959e-05 -0.00483164 0)
(-4.39494e-05 -0.0048534 0)
(-0.000101409 -0.00486485 0)
(-0.000229943 -0.00486598 0)
(-0.000503158 -0.00476373 0)
(-0.000293203 -0.00464655 0)
(-0.00029215 -0.0045415 0)
(-0.000306136 -0.00445117 0)
(-0.000316827 -0.00437457 0)
(-0.000322857 -0.00430992 0)
(-0.000327954 -0.00425513 0)
(-0.000333204 -0.00420825 0)
(-0.000338596 -0.00416754 0)
(-0.000343999 -0.00413151 0)
(-0.000349378 -0.00409893 0)
(-0.00035474 -0.00406878 0)
(-0.000360096 -0.00404027 0)
(-0.000365452 -0.00401275 0)
(-0.000370812 -0.00398574 0)
(-0.000376179 -0.00395887 0)
(-0.000381554 -0.00393186 0)
(-0.000386937 -0.00390454 0)
(-0.00039233 -0.00387678 0)
(-0.000397731 -0.00384852 0)
(-0.00040314 -0.00381973 0)
(-0.000408555 -0.00379044 0)
(1.74289e-08 -0.000183781 0)
(1.28879e-07 -0.000537252 0)
(3.16871e-07 -0.000876639 0)
(5.57823e-07 -0.00120195 0)
(8.2392e-07 -0.00151319 0)
(1.09432e-06 -0.00181035 0)
(1.34562e-06 -0.00209344 0)
(1.5619e-06 -0.00236246 0)
(1.71998e-06 -0.00261739 0)
(1.8071e-06 -0.00285824 0)
(1.79859e-06 -0.00308499 0)
(1.68478e-06 -0.00329764 0)
(1.43762e-06 -0.00349616 0)
(1.05067e-06 -0.00368057 0)
(4.90157e-07 -0.00385081 0)
(-2.46131e-07 -0.0040069 0)
(-1.20002e-06 -0.00414879 0)
(-2.3691e-06 -0.00427648 0)
(-3.8166e-06 -0.00438991 0)
(-5.553e-06 -0.00448908 0)
(-7.64731e-06 -0.00457391 0)
(-9.88742e-06 -0.00464442 0)
(-1.18734e-05 -0.00470044 0)
(-1.36735e-05 -0.0047419 0)
(-2.05878e-05 -0.00476879 0)
(-4.27458e-05 -0.00478231 0)
(-9.38523e-05 -0.00478841 0)
(-0.000229675 -0.00478401 0)
(-0.000484078 -0.0046723 0)
(-0.000276856 -0.0045514 0)
(-0.000277925 -0.00444356 0)
(-0.000292839 -0.00435151 0)
(-0.000304108 -0.00427407 0)
(-0.000310809 -0.00420919 0)
(-0.000316677 -0.00415461 0)
(-0.000322749 -0.00410822 0)
(-0.000328984 -0.00406818 0)
(-0.000335241 -0.00403295 0)
(-0.000341477 -0.00400122 0)
(-0.000347692 -0.00397196 0)
(-0.00035389 -0.00394432 0)
(-0.000360073 -0.00391767 0)
(-0.000366241 -0.0038915 0)
(-0.000372392 -0.00386543 0)
(-0.000378527 -0.0038392 0)
(-0.000384645 -0.00381263 0)
(-0.000390745 -0.00378559 0)
(-0.000396828 -0.00375802 0)
(-0.000402893 -0.0037299 0)
(-0.000408939 -0.00370125 0)
(-6.27116e-09 -0.000184664 0)
(-9.34182e-08 -0.000539493 0)
(-2.82616e-07 -0.000879873 0)
(-5.74895e-07 -0.00120584 0)
(-9.7084e-07 -0.00151744 0)
(-1.46822e-06 -0.00181469 0)
(-2.07074e-06 -0.00209761 0)
(-2.77568e-06 -0.00236621 0)
(-3.58834e-06 -0.00262052 0)
(-4.50366e-06 -0.00286052 0)
(-5.52851e-06 -0.00308623 0)
(-6.65455e-06 -0.00329763 0)
(-7.89065e-06 -0.00349473 0)
(-9.22385e-06 -0.00367751 0)
(-1.06654e-05 -0.00384594 0)
(-1.21946e-05 -0.00400001 0)
(-1.38238e-05 -0.0041397 0)
(-1.55269e-05 -0.00426495 0)
(-1.73525e-05 -0.00437574 0)
(-1.93191e-05 -0.00447202 0)
(-2.13814e-05 -0.00455375 0)
(-2.27406e-05 -0.00462083 0)
(-2.19244e-05 -0.00467318 0)
(-2.06639e-05 -0.00471059 0)
(-3.857e-05 -0.00473318 0)
(-0.00010881 -0.00474216 0)
(-0.000217191 -0.00474328 0)
(-0.000374204 -0.00473605 0)
(-0.000575806 -0.00462129 0)
(-0.000361352 -0.00450184 0)
(-0.000353364 -0.0043947 0)
(-0.000364557 -0.00430277 0)
(-0.000372345 -0.00422503 0)
(-0.000375397 -0.00415962 0)
(-0.000377628 -0.00410436 0)
(-0.000380226 -0.00405719 0)
(-0.000383179 -0.00401632 0)
(-0.000386339 -0.00398022 0)
(-0.000389655 -0.00394764 0)
(-0.000393124 -0.00391754 0)
(-0.000396742 -0.0038891 0)
(-0.000400506 -0.00386168 0)
(-0.000404406 -0.00383479 0)
(-0.000408435 -0.00380806 0)
(-0.000412586 -0.00378122 0)
(-0.000416849 -0.00375409 0)
(-0.000421218 -0.00372654 0)
(-0.000425686 -0.00369852 0)
(-0.000430246 -0.00367 0)
(-0.000434891 -0.00364099 0)
(-4.69101e-08 -0.000182525 0)
(-4.06923e-07 -0.000533482 0)
(-1.09858e-06 -0.00087035 0)
(-2.09445e-06 -0.00119312 0)
(-3.3604e-06 -0.00150181 0)
(-4.87366e-06 -0.00179639 0)
(-6.61117e-06 -0.00207689 0)
(-8.55829e-06 -0.00234328 0)
(-1.06932e-05 -0.00259558 0)
(-1.30045e-05 -0.00283378 0)
(-1.54695e-05 -0.00305789 0)
(-1.80799e-05 -0.0032679 0)
(-2.08102e-05 -0.00346383 0)
(-2.36546e-05 -0.00364567 0)
(-2.65824e-05 -0.00381345 0)
(-2.95889e-05 -0.00396714 0)
(-3.2633e-05 -0.00410679 0)
(-3.57184e-05 -0.00423237 0)
(-3.88308e-05 -0.00434394 0)
(-4.20367e-05 -0.00444148 0)
(-4.51554e-05 -0.00452505 0)
(-4.72995e-05 -0.00459462 0)
(-4.67859e-05 -0.0046503 0)
(-4.65786e-05 -0.00469206 0)
(-6.97729e-05 -0.00472015 0)
(-0.000153098 -0.00473501 0)
(-0.000279022 -0.00473646 0)
(-0.00043008 -0.00473658 0)
(-0.000517575 -0.00461128 0)
(-0.000367711 -0.0044893 0)
(-0.000359382 -0.00438015 0)
(-0.000369162 -0.00428579 0)
(-0.000376692 -0.00420524 0)
(-0.000380538 -0.00413686 0)
(-0.000383604 -0.00407858 0)
(-0.000386872 -0.00402842 0)
(-0.000390368 -0.00398462 0)
(-0.000393991 -0.00394567 0)
(-0.000397708 -0.00391034 0)
(-0.000401522 -0.0038776 0)
(-0.000405439 -0.00384666 0)
(-0.000409461 -0.00381685 0)
(-0.000413586 -0.00378771 0)
(-0.000417813 -0.00375885 0)
(-0.000422139 -0.00373 0)
(-0.00042656 -0.00370098 0)
(-0.000431074 -0.00367166 0)
(-0.000435675 -0.00364198 0)
(-0.000440361 -0.0036119 0)
(-0.000445125 -0.00358144 0)
(-1.55285e-08 -0.000180074 0)
(-2.02159e-07 -0.000526523 0)
(-5.92969e-07 -0.000859238 0)
(-1.18465e-06 -0.00117819 0)
(-1.96575e-06 -0.00148334 0)
(-2.92859e-06 -0.00177467 0)
(-4.06475e-06 -0.00205217 0)
(-5.36949e-06 -0.0023158 0)
(-6.83397e-06 -0.00256556 0)
(-8.45466e-06 -0.00280143 0)
(-1.02216e-05 -0.00302342 0)
(-1.21333e-05 -0.00323151 0)
(-1.41783e-05 -0.00342571 0)
(-1.63579e-05 -0.00360602 0)
(-1.86581e-05 -0.00377244 0)
(-2.10833e-05 -0.00392499 0)
(-2.36141e-05 -0.00406369 0)
(-2.62663e-05 -0.00418854 0)
(-2.90455e-05 -0.00429958 0)
(-3.20186e-05 -0.00439682 0)
(-3.5047e-05 -0.00448029 0)
(-3.74509e-05 -0.00455004 0)
(-3.80162e-05 -0.00460611 0)
(-3.96908e-05 -0.00464862 0)
(-5.98622e-05 -0.00467764 0)
(-0.00013255 -0.00469465 0)
(-0.000254301 -0.00469648 0)
(-0.000482278 -0.00469539 0)
(-0.000408812 -0.00455548 0)
(-0.000346844 -0.00443111 0)
(-0.00034657 -0.00432253 0)
(-0.000356743 -0.00422939 0)
(-0.000364361 -0.00415016 0)
(-0.000369649 -0.00408289 0)
(-0.000374337 -0.00402548 0)
(-0.000379003 -0.00397592 0)
(-0.000383681 -0.00393247 0)
(-0.000388342 -0.00389366 0)
(-0.000392995 -0.00385826 0)
(-0.000397661 -0.00382529 0)
(-0.00040236 -0.00379398 0)
(-0.000407106 -0.00376371 0)
(-0.000411906 -0.00373402 0)
(-0.000416765 -0.00370455 0)
(-0.000421688 -0.00367506 0)
(-0.000426676 -0.00364538 0)
(-0.000431728 -0.00361538 0)
(-0.000436844 -0.00358502 0)
(-0.000442022 -0.00355427 0)
(-0.000447258 -0.00352316 0)
(-3.47311e-09 -0.000179875 0)
(-6.05902e-08 -0.000525704 0)
(-1.96265e-07 -0.000857612 0)
(-4.19942e-07 -0.0011756 0)
(-7.37865e-07 -0.00147967 0)
(-1.1582e-06 -0.00176981 0)
(-1.68558e-06 -0.00204603 0)
(-2.32819e-06 -0.00230831 0)
(-3.08849e-06 -0.00255666 0)
(-3.97503e-06 -0.00279107 0)
(-4.98827e-06 -0.00301154 0)
(-6.1382e-06 -0.00321807 0)
(-7.42327e-06 -0.00341065 0)
(-8.85621e-06 -0.00358928 0)
(-1.04329e-05 -0.00375397 0)
(-1.21693e-05 -0.00390471 0)
(-1.4057e-05 -0.00404149 0)
(-1.61239e-05 -0.00416432 0)
(-1.83836e-05 -0.0042732 0)
(-2.09032e-05 -0.00436812 0)
(-2.35489e-05 -0.00444909 0)
(-2.57372e-05 -0.00451608 0)
(-2.65581e-05 -0.00456911 0)
(-2.92587e-05 -0.00460822 0)
(-4.84283e-05 -0.0046335 0)
(-0.000115677 -0.00464737 0)
(-0.000240372 -0.00464791 0)
(-0.000525516 -0.00458056 0)
(-0.000329986 -0.00445032 0)
(-0.000321785 -0.00433436 0)
(-0.000334776 -0.00423382 0)
(-0.000346401 -0.00414755 0)
(-0.000353322 -0.00407376 0)
(-0.000358867 -0.00401052 0)
(-0.000364301 -0.0039559 0)
(-0.000369757 -0.00390815 0)
(-0.000375167 -0.00386574 0)
(-0.000380525 -0.00382737 0)
(-0.000385859 -0.00379197 0)
(-0.0003912 -0.00375869 0)
(-0.000396567 -0.00372684 0)
(-0.000401974 -0.00369587 0)
(-0.000407429 -0.00366539 0)
(-0.000412937 -0.00363508 0)
(-0.000418502 -0.00360472 0)
(-0.000424125 -0.00357416 0)
(-0.000429805 -0.00354332 0)
(-0.000435541 -0.00351214 0)
(-0.000441329 -0.00348063 0)
(-0.000447167 -0.0034488 0)
(-1.0316e-08 -0.000179329 0)
(-1.06355e-07 -0.000524 0)
(-3.08814e-07 -0.000854684 0)
(-6.22346e-07 -0.00117138 0)
(-1.04899e-06 -0.00147409 0)
(-1.59538e-06 -0.0017628 0)
(-2.26493e-06 -0.00203752 0)
(-3.06671e-06 -0.00229824 0)
(-4.00299e-06 -0.00254495 0)
(-5.08465e-06 -0.00277766 0)
(-6.31207e-06 -0.00299636 0)
(-7.69856e-06 -0.00320105 0)
(-9.24177e-06 -0.00339171 0)
(-1.09583e-05 -0.00356836 0)
(-1.28415e-05 -0.00373099 0)
(-1.49115e-05 -0.00387959 0)
(-1.71551e-05 -0.00401416 0)
(-1.96053e-05 -0.00413469 0)
(-2.22649e-05 -0.00424119 0)
(-2.51915e-05 -0.00433365 0)
(-2.82048e-05 -0.00441206 0)
(-3.07549e-05 -0.00447641 0)
(-3.22396e-05 -0.00452669 0)
(-3.6734e-05 -0.00456296 0)
(-5.75145e-05 -0.00458536 0)
(-0.00012107 -0.00459703 0)
(-0.00024972 -0.00459685 0)
(-0.000534335 -0.00449059 0)
(-0.000320612 -0.00436586 0)
(-0.000317523 -0.00425352 0)
(-0.000331487 -0.00415607 0)
(-0.000342527 -0.00407257 0)
(-0.000348789 -0.0040012 0)
(-0.000354042 -0.00393993 0)
(-0.000359452 -0.00388681 0)
(-0.000365036 -0.00384013 0)
(-0.000370672 -0.0037984 0)
(-0.000376327 -0.00376039 0)
(-0.000382011 -0.00372509 0)
(-0.000387739 -0.0036917 0)
(-0.000393518 -0.00365956 0)
(-0.000399352 -0.00362819 0)
(-0.000405242 -0.00359721 0)
(-0.000411191 -0.00356635 0)
(-0.000417197 -0.00353541 0)
(-0.000423259 -0.00350426 0)
(-0.000429374 -0.00347284 0)
(-0.00043554 -0.00344111 0)
(-0.000441752 -0.00340907 0)
(-0.000448008 -0.00337674 0)
(-2.48492e-09 -0.000178668 0)
(-4.50766e-08 -0.000521974 0)
(-1.4996e-07 -0.000851242 0)
(-3.29062e-07 -0.00116646 0)
(-5.9166e-07 -0.00146763 0)
(-9.50888e-07 -0.00175472 0)
(-1.4151e-06 -0.00202775 0)
(-1.9988e-06 -0.00228669 0)
(-2.7086e-06 -0.00253155 0)
(-3.56069e-06 -0.00276232 0)
(-4.5596e-06 -0.00297899 0)
(-5.72419e-06 -0.00318156 0)
(-7.05632e-06 -0.00337004 0)
(-8.5788e-06 -0.00354442 0)
(-1.02895e-05 -0.00370469 0)
(-1.22159e-05 -0.00385088 0)
(-1.43508e-05 -0.00398297 0)
(-1.67382e-05 -0.00410097 0)
(-1.93875e-05 -0.0042049 0)
(-2.2352e-05 -0.00429476 0)
(-2.54144e-05 -0.00437056 0)
(-2.80431e-05 -0.00443232 0)
(-3.00404e-05 -0.00448004 0)
(-3.67233e-05 -0.00451381 0)
(-6.08504e-05 -0.00453391 0)
(-0.000121834 -0.00454388 0)
(-0.000256691 -0.00454385 0)
(-0.000533568 -0.00442947 0)
(-0.000316094 -0.00430369 0)
(-0.000313941 -0.00419001 0)
(-0.00032823 -0.00409117 0)
(-0.00033933 -0.00400629 0)
(-0.000345706 -0.00393359 0)
(-0.000351203 -0.00387102 0)
(-0.000356955 -0.00381664 0)
(-0.000362941 -0.00376873 0)
(-0.000369014 -0.0037258 0)
(-0.000375129 -0.00368662 0)
(-0.000381284 -0.00365019 0)
(-0.000387484 -0.0036157 0)
(-0.000393728 -0.0035825 0)
(-0.000400018 -0.00355012 0)
(-0.00040635 -0.00351818 0)
(-0.000412725 -0.00348641 0)
(-0.000419139 -0.00345462 0)
(-0.000425592 -0.00342268 0)
(-0.000432081 -0.00339053 0)
(-0.000438604 -0.00335812 0)
(-0.000445159 -0.00332547 0)
(-0.000451743 -0.0032926 0)
(5.58759e-09 -0.000178797 0)
(2.08637e-08 -0.000522097 0)
(2.18944e-08 -0.000851111 0)
(-1.0116e-08 -0.00116585 0)
(-9.16894e-08 -0.00146631 0)
(-2.41216e-07 -0.00175249 0)
(-4.71088e-07 -0.00202441 0)
(-7.99034e-07 -0.00228205 0)
(-1.23448e-06 -0.00252542 0)
(-1.79618e-06 -0.0027545 0)
(-2.49085e-06 -0.00296931 0)
(-3.33995e-06 -0.00316981 0)
(-4.3474e-06 -0.00335603 0)
(-5.53934e-06 -0.00352792 0)
(-6.91586e-06 -0.0036855 0)
(-8.50949e-06 -0.00382875 0)
(-1.03167e-05 -0.00395764 0)
(-1.23928e-05 -0.00407217 0)
(-1.47535e-05 -0.00417231 0)
(-1.74457e-05 -0.00425804 0)
(-2.0181e-05 -0.00432935 0)
(-2.23897e-05 -0.00438614 0)
(-2.4357e-05 -0.00442836 0)
(-3.33763e-05 -0.00445602 0)
(-6.31691e-05 -0.00447011 0)
(-0.00012365 -0.00447591 0)
(-0.00026534 -0.00447235 0)
(-0.00052549 -0.00435355 0)
(-0.000310257 -0.00422581 0)
(-0.000309307 -0.00411054 0)
(-0.000324355 -0.00401061 0)
(-0.000335924 -0.00392503 0)
(-0.000342756 -0.00385193 0)
(-0.000348726 -0.00378915 0)
(-0.000354953 -0.0037347 0)
(-0.000361408 -0.00368679 0)
(-0.000367946 -0.0036439 0)
(-0.000374517 -0.00360479 0)
(-0.000381121 -0.00356841 0)
(-0.000387761 -0.00353396 0)
(-0.000394437 -0.00350078 0)
(-0.000401146 -0.0034684 0)
(-0.000407887 -0.00343644 0)
(-0.000414658 -0.00340462 0)
(-0.000421457 -0.00337277 0)
(-0.000428283 -0.00334076 0)
(-0.000435133 -0.00330853 0)
(-0.000442007 -0.00327603 0)
(-0.000448902 -0.0032433 0)
(-0.000455817 -0.00321034 0)
(-1.27668e-08 -0.000178892 0)
(-1.62905e-07 -0.000522104 0)
(-4.78335e-07 -0.000850781 0)
(-9.59136e-07 -0.00116496 0)
(-1.59716e-06 -0.00146466 0)
(-2.3905e-06 -0.0017499 0)
(-3.33238e-06 -0.0020207 0)
(-4.42406e-06 -0.00227707 0)
(-5.65683e-06 -0.00251901 0)
(-7.03376e-06 -0.00274653 0)
(-8.54318e-06 -0.00295961 0)
(-1.01907e-05 -0.00315826 0)
(-1.19608e-05 -0.00334246 0)
(-1.38622e-05 -0.0035122 0)
(-1.58728e-05 -0.00366745 0)
(-1.80038e-05 -0.00380818 0)
(-2.02288e-05 -0.00393437 0)
(-2.25946e-05 -0.00404598 0)
(-2.51177e-05 -0.00414296 0)
(-2.77613e-05 -0.00422528 0)
(-2.97855e-05 -0.00429285 0)
(-2.98264e-05 -0.00434559 0)
(-2.94632e-05 -0.00438329 0)
(-4.68366e-05 -0.00440605 0)
(-0.000112751 -0.00441516 0)
(-0.000215239 -0.00441666 0)
(-0.000371017 -0.00440967 0)
(-0.000584245 -0.00428715 0)
(-0.000367901 -0.00415904 0)
(-0.000360624 -0.00404292 0)
(-0.000372924 -0.0039418 0)
(-0.000381975 -0.00385483 0)
(-0.000386275 -0.00378025 0)
(-0.000389759 -0.00371599 0)
(-0.000393628 -0.00366007 0)
(-0.000397869 -0.00361074 0)
(-0.000402327 -0.0035665 0)
(-0.000406948 -0.0035261 0)
(-0.000411722 -0.00348851 0)
(-0.000416647 -0.00345292 0)
(-0.000421717 -0.00341869 0)
(-0.000426924 -0.00338533 0)
(-0.000432261 -0.00335246 0)
(-0.000437721 -0.00331981 0)
(-0.000443297 -0.0032872 0)
(-0.000448983 -0.00325448 0)
(-0.000454775 -0.0032216 0)
(-0.000460667 -0.00318851 0)
(-0.000466653 -0.00315523 0)
(-0.000472729 -0.00312177 0)
(-4.99997e-08 -0.000176698 0)
(-4.55757e-07 -0.000515879 0)
(-1.24387e-06 -0.000840853 0)
(-2.3818e-06 -0.00115163 0)
(-3.83256e-06 -0.0014482 0)
(-5.5634e-06 -0.00173059 0)
(-7.55109e-06 -0.00199878 0)
(-9.76861e-06 -0.00225278 0)
(-1.21966e-05 -0.00249258 0)
(-1.48076e-05 -0.0027182 0)
(-1.75847e-05 -0.00292963 0)
(-2.0499e-05 -0.00312687 0)
(-2.35357e-05 -0.00330992 0)
(-2.66617e-05 -0.00347879 0)
(-2.98623e-05 -0.00363345 0)
(-3.30954e-05 -0.00377395 0)
(-3.63538e-05 -0.00390024 0)
(-3.96282e-05 -0.00401237 0)
(-4.29834e-05 -0.0041103 0)
(-4.62412e-05 -0.00419408 0)
(-4.84004e-05 -0.00426366 0)
(-4.75192e-05 -0.00431911 0)
(-4.65497e-05 -0.00436036 0)
(-7.14342e-05 -0.0043876 0)
(-0.000163591 -0.00440121 0)
(-0.000301175 -0.00440257 0)
(-0.000452847 -0.00440089 0)
(-0.000565975 -0.00427148 0)
(-0.00039409 -0.00414096 0)
(-0.000384579 -0.00402246 0)
(-0.000394976 -0.00391858 0)
(-0.000402948 -0.00382858 0)
(-0.000406901 -0.00375091 0)
(-0.000410094 -0.0036836 0)
(-0.000413605 -0.00362472 0)
(-0.000417445 -0.00357255 0)
(-0.000421486 -0.00352559 0)
(-0.000425679 -0.0034826 0)
(-0.00043002 -0.00344255 0)
(-0.000434508 -0.00340462 0)
(-0.000439141 -0.00336815 0)
(-0.000443913 -0.00333265 0)
(-0.000448823 -0.00329773 0)
(-0.000453865 -0.00326312 0)
(-0.000459036 -0.0032286 0)
(-0.000464334 -0.00319407 0)
(-0.000469753 -0.00315943 0)
(-0.000475292 -0.00312466 0)
(-0.000480945 -0.00308976 0)
(-0.00048671 -0.00305476 0)
(-3.16111e-08 -0.000173596 0)
(-3.30539e-07 -0.00050712 0)
(-9.31188e-07 -0.00082694 0)
(-1.81663e-06 -0.00113302 0)
(-2.96364e-06 -0.00142534 0)
(-4.35099e-06 -0.00170386 0)
(-5.96385e-06 -0.00196856 0)
(-7.78425e-06 -0.00221943 0)
(-9.79981e-06 -0.00245645 0)
(-1.19919e-05 -0.00267961 0)
(-1.43505e-05 -0.00288891 0)
(-1.68557e-05 -0.00308433 0)
(-1.95007e-05 -0.00326589 0)
(-2.22631e-05 -0.00343358 0)
(-2.51384e-05 -0.00358742 0)
(-2.80988e-05 -0.0037274 0)
(-3.11503e-05 -0.00385356 0)
(-3.42938e-05 -0.00396591 0)
(-3.75956e-05 -0.00406448 0)
(-4.09072e-05 -0.00414928 0)
(-4.34403e-05 -0.00422037 0)
(-4.37171e-05 -0.00427779 0)
(-4.46356e-05 -0.00432167 0)
(-6.64342e-05 -0.00435205 0)
(-0.000146356 -0.00436979 0)
(-0.000273974 -0.00437208 0)
(-0.000467843 -0.00437624 0)
(-0.000482708 -0.00423174 0)
(-0.000370943 -0.00409655 0)
(-0.000365288 -0.00397568 0)
(-0.000375704 -0.00386995 0)
(-0.000384017 -0.00377825 0)
(-0.000389237 -0.00369896 0)
(-0.000393749 -0.00363008 0)
(-0.00039839 -0.00356967 0)
(-0.000403197 -0.00351598 0)
(-0.000408099 -0.00346752 0)
(-0.000413077 -0.00342305 0)
(-0.000418142 -0.00338151 0)
(-0.000423305 -0.00334211 0)
(-0.000428574 -0.00330417 0)
(-0.000433951 -0.00326721 0)
(-0.000439438 -0.00323084 0)
(-0.000445036 -0.00319479 0)
(-0.000450746 -0.00315886 0)
(-0.000456565 -0.00312292 0)
(-0.000462492 -0.00308691 0)
(-0.000468525 -0.00305079 0)
(-0.000474662 -0.00301457 0)
(-0.000480899 -0.00297828 0)
(-6.56578e-09 -0.000172645 0)
(-1.0615e-07 -0.000504216 0)
(-3.28155e-07 -0.000822053 0)
(-6.76221e-07 -0.00112614 0)
(-1.15156e-06 -0.00141647 0)
(-1.75298e-06 -0.00169303 0)
(-2.48265e-06 -0.00195579 0)
(-3.33833e-06 -0.00220476 0)
(-4.32249e-06 -0.00243991 0)
(-5.43106e-06 -0.00266125 0)
(-6.66769e-06 -0.00286875 0)
(-8.02682e-06 -0.00306242 0)
(-9.51452e-06 -0.00324224 0)
(-1.11234e-05 -0.00340822 0)
(-1.28622e-05 -0.00356034 0)
(-1.47197e-05 -0.0036986 0)
(-1.6716e-05 -0.003823 0)
(-1.88671e-05 -0.00393354 0)
(-2.12426e-05 -0.00403021 0)
(-2.37153e-05 -0.00411302 0)
(-2.56069e-05 -0.00418195 0)
(-2.57355e-05 -0.00423703 0)
(-2.7155e-05 -0.00427829 0)
(-4.70288e-05 -0.00430576 0)
(-0.000121075 -0.00432116 0)
(-0.000249744 -0.0043228 0)
(-0.000528671 -0.00429382 0)
(-0.000370006 -0.00414676 0)
(-0.000341882 -0.00401491 0)
(-0.000349096 -0.00389825 0)
(-0.000360385 -0.00379629 0)
(-0.000367863 -0.00370756 0)
(-0.000373589 -0.00363033 0)
(-0.000379019 -0.00356273 0)
(-0.000384483 -0.00350295 0)
(-0.000389963 -0.00344938 0)
(-0.000395448 -0.00340062 0)
(-0.000400961 -0.00335553 0)
(-0.000406533 -0.00331315 0)
(-0.000412185 -0.00327272 0)
(-0.000417931 -0.00323364 0)
(-0.000423782 -0.00319546 0)
(-0.000429744 -0.00315782 0)
(-0.00043582 -0.00312048 0)
(-0.000442012 -0.00308326 0)
(-0.000448319 -0.00304605 0)
(-0.000454741 -0.00300878 0)
(-0.000461273 -0.00297145 0)
(-0.000467914 -0.00293405 0)
(-0.000474659 -0.00289662 0)
(-1.03228e-08 -0.000172184 0)
(-9.61732e-08 -0.000502754 0)
(-2.73229e-07 -0.000819527 0)
(-5.41014e-07 -0.0011225 0)
(-9.00419e-07 -0.00141166 0)
(-1.35104e-06 -0.001687 0)
(-1.89628e-06 -0.00194853 0)
(-2.53545e-06 -0.00219622 0)
(-3.27298e-06 -0.00243007 0)
(-4.10684e-06 -0.00265008 0)
(-5.04302e-06 -0.00285624 0)
(-6.07785e-06 -0.00304853 0)
(-7.21964e-06 -0.00322695 0)
(-8.46224e-06 -0.00339149 0)
(-9.81612e-06 -0.00354214 0)
(-1.12705e-05 -0.0036789 0)
(-1.28459e-05 -0.00380174 0)
(-1.4554e-05 -0.00391067 0)
(-1.64554e-05 -0.00400567 0)
(-1.84152e-05 -0.00408672 0)
(-1.98143e-05 -0.00415383 0)
(-1.96527e-05 -0.00420697 0)
(-2.11139e-05 -0.00424617 0)
(-3.92314e-05 -0.00427143 0)
(-0.000108537 -0.00428493 0)
(-0.000240526 -0.00428618 0)
(-0.000541814 -0.00418735 0)
(-0.000322932 -0.00404955 0)
(-0.000318143 -0.0039241 0)
(-0.00033177 -0.00381329 0)
(-0.000342707 -0.00371629 0)
(-0.000348718 -0.00363153 0)
(-0.000353625 -0.00355721 0)
(-0.000358674 -0.00349155 0)
(-0.000363922 -0.00343287 0)
(-0.000369267 -0.00337971 0)
(-0.00037469 -0.0033308 0)
(-0.000380212 -0.00328512 0)
(-0.000385857 -0.00324181 0)
(-0.000391637 -0.00320019 0)
(-0.000397561 -0.00315975 0)
(-0.000403633 -0.00312007 0)
(-0.000409856 -0.00308086 0)
(-0.000416229 -0.0030419 0)
(-0.000422751 -0.00300304 0)
(-0.000429418 -0.00296421 0)
(-0.000436226 -0.00292535 0)
(-0.000443171 -0.00288646 0)
(-0.000450247 -0.00284757 0)
(-0.000457447 -0.0028087 0)
(-2.64125e-09 -0.000171587 0)
(-3.72799e-08 -0.000500997 0)
(-1.14227e-07 -0.000816633 0)
(-2.3467e-07 -0.00111848 0)
(-4.0123e-07 -0.00140653 0)
(-6.14658e-07 -0.00168076 0)
(-8.79281e-07 -0.00194116 0)
(-1.19554e-06 -0.00218773 0)
(-1.5691e-06 -0.00242045 0)
(-1.99936e-06 -0.00263931 0)
(-2.49359e-06 -0.0028443 0)
(-3.04975e-06 -0.00303541 0)
(-3.67717e-06 -0.00321263 0)
(-4.37148e-06 -0.00337596 0)
(-5.14374e-06 -0.00352538 0)
(-5.9853e-06 -0.00366088 0)
(-6.91606e-06 -0.00378247 0)
(-7.94721e-06 -0.00389013 0)
(-9.13129e-06 -0.00398385 0)
(-1.03412e-05 -0.00406363 0)
(-1.10224e-05 -0.00412947 0)
(-1.03231e-05 -0.00418136 0)
(-1.13428e-05 -0.00421933 0)
(-2.6978e-05 -0.00424334 0)
(-9.09895e-05 -0.00425573 0)
(-0.000227965 -0.00425752 0)
(-0.000527663 -0.00413455 0)
(-0.000295686 -0.00399691 0)
(-0.00029368 -0.00387085 0)
(-0.000306735 -0.00375896 0)
(-0.000316277 -0.00366062 0)
(-0.000321116 -0.00357434 0)
(-0.000325293 -0.00349831 0)
(-0.000329941 -0.00343077 0)
(-0.000335018 -0.00337008 0)
(-0.000340369 -0.00331479 0)
(-0.000345943 -0.00326369 0)
(-0.000351735 -0.00321576 0)
(-0.000357744 -0.00317017 0)
(-0.000363965 -0.00312629 0)
(-0.000370391 -0.0030836 0)
(-0.000377014 -0.00304172 0)
(-0.000383827 -0.00300035 0)
(-0.000390822 -0.00295931 0)
(-0.000397992 -0.00291845 0)
(-0.000405327 -0.00287768 0)
(-0.000412821 -0.00283698 0)
(-0.000420466 -0.00279633 0)
(-0.000428253 -0.00275576 0)
(-0.000436176 -0.00271531 0)
(5.63638e-09 -0.000171693 0)
(6.05851e-08 -0.000501247 0)
(1.67446e-07 -0.000816965 0)
(3.21902e-07 -0.00111883 0)
(5.16335e-07 -0.00140683 0)
(7.43658e-07 -0.00168095 0)
(9.9756e-07 -0.00194118 0)
(1.27172e-06 -0.00218752 0)
(1.55976e-06 -0.00241994 0)
(1.85547e-06 -0.00263845 0)
(2.15226e-06 -0.00284302 0)
(2.44394e-06 -0.00303366 0)
(2.72372e-06 -0.00321034 0)
(2.98566e-06 -0.00337307 0)
(3.22368e-06 -0.00352183 0)
(3.43307e-06 -0.00365661 0)
(3.60352e-06 -0.00377741 0)
(3.70899e-06 -0.00388421 0)
(3.71165e-06 -0.00397702 0)
(3.69186e-06 -0.00405581 0)
(4.14996e-06 -0.00412059 0)
(5.89118e-06 -0.00417135 0)
(6.38798e-06 -0.0042081 0)
(-5.24225e-06 -0.00423078 0)
(-6.40883e-05 -0.00424181 0)
(-0.000207529 -0.00424377 0)
(-0.000507514 -0.00410953 0)
(-0.000267085 -0.00396523 0)
(-0.000266942 -0.00383287 0)
(-0.000279235 -0.00371509 0)
(-0.000287457 -0.00361127 0)
(-0.000291102 -0.00351991 0)
(-0.00029434 -0.00343918 0)
(-0.000298238 -0.00336727 0)
(-0.000302712 -0.00330252 0)
(-0.000307589 -0.00324345 0)
(-0.000312806 -0.0031888 0)
(-0.000318349 -0.00313753 0)
(-0.000324206 -0.0030888 0)
(-0.000330362 -0.00304194 0)
(-0.000336802 -0.00299644 0)
(-0.00034351 -0.00295188 0)
(-0.000350473 -0.00290799 0)
(-0.000357678 -0.00286454 0)
(-0.000365112 -0.00282139 0)
(-0.000372762 -0.00277847 0)
(-0.000380619 -0.00273571 0)
(-0.000388669 -0.00269313 0)
(-0.000396904 -0.00265072 0)
(-0.000405314 -0.00260853 0)
(-0.000422091 -0.00398821 0)
(-0.000425466 -0.00395916 0)
(-0.000428843 -0.00392958 0)
(-0.000432221 -0.00389954 0)
(-0.0004356 -0.0038691 0)
(-0.000438979 -0.00383834 0)
(-0.000442356 -0.00380735 0)
(-0.000445732 -0.00377617 0)
(-0.000449105 -0.00374489 0)
(-0.000452473 -0.00371354 0)
(-0.000455837 -0.00368219 0)
(-0.000459194 -0.00365086 0)