/*--------------------------------*- C++ -*----------------------------------*\
| =========                 |                                                 |
| \\      /  F ield         | OpenFOAM: The Open Source CFD Toolbox           |
|  \\    /   O peration     | Version:  2.4.0                                 |
|   \\  /    A nd           | Web:      www.OpenFOAM.org                      |
|    \\/     M anipulation  |                                                 |
\*---------------------------------------------------------------------------*/
FoamFile
{
    version     2.0;
    format      ascii;
    class       volScalarField;
    location    "2.8";
    object      H;
}
// * * * * * * * * * * * * * * * * * * * * * * * * * * * * * * * * * * * * * //

dimensions      [0 2 -2 0 0 0 0];

internalField   nonuniform List<scalar> 
500
(
-11932.8
-11932.8
-11932.8
-11932.8
-11932.8
-11335.1
-11335.1
-11335.1
-11335.1
-11335.1
-10730.7
-10730.7
-10730.7
-10730.7
-10730.7
-10119.5
-10119.4
-10119.4
-10119.4
-10119.5
-9501.3
-9501.26
-9501.24
-9501.26
-9501.3
-8876.1
-8876.06
-8876.03
-8876.06
-8876.1
-8243.76
-8243.71
-8243.68
-8243.71
-8243.76
-7604.16
-7604.1
-7604.06
-7604.1
-7604.16
-6957.17
-6957.1
-6957.06
-6957.1
-6957.17
-6302.68
-6302.6
-6302.55
-6302.6
-6302.68
-5640.56
-5640.47
-5640.41
-5640.47
-5640.56
-4970.68
-4970.58
-4970.52
-4970.58
-4970.68
-4292.91
-4292.81
-4292.73
-4292.8
-4292.91
-3607.12
-3607.01
-3606.92
-3607.01
-3607.12
-2913.18
-2913.05
-2912.96
-2913.05
-2913.18
-2210.93
-2210.79
-2210.69
-2210.79
-2210.93
-1500.25
-1500.1
-1499.99
-1500.1
-1500.25
-780.985
-780.817
-780.696
-780.815
-780.986
-13.8917
-13.8835
-13.8777
-13.8834
-13.8918
-10.3391
-10.333
-10.3287
-10.333
-10.3391
-10.3453
-10.3393
-10.3351
-10.3393
-10.3453
-10.3497
-10.3439
-10.3397
-10.3438
-10.3498
-10.3523
-10.3466
-10.3426
-10.3466
-10.3524
-10.3531
-10.3475
-10.3435
-10.3474
-10.3531
-10.3518
-10.3464
-10.3425
-10.3463
-10.3519
-10.3485
-10.3432
-10.3394
-10.3431
-10.3486
-10.3431
-10.3379
-10.3342
-10.3378
-10.3432
-10.3355
-10.3304
-10.3267
-10.3303
-10.3355
-10.3256
-10.3206
-10.317
-10.3205
-10.3256
-10.3133
-10.3084
-10.3049
-10.3083
-10.3133
-10.2986
-10.2937
-10.2904
-10.2937
-10.2986
-10.2813
-10.2766
-10.2733
-10.2765
-10.2813
-10.2614
-10.2568
-10.2536
-10.2567
-10.2614
-10.2387
-10.2342
-10.2311
-10.2342
-10.2388
-10.2133
-10.2089
-10.2059
-10.2089
-10.2133
-10.185
-10.1807
-10.1777
-10.1807
-10.185
-10.1537
-10.1495
-10.1466
-10.1495
-10.1537
-10.1193
-10.1152
-10.1124
-10.1152
-10.1193
-10.0818
-10.0778
-10.0751
-10.0778
-10.0818
-10.041
-10.0371
-10.0345
-10.0371
-10.041
-9.99691
-9.99313
-9.99052
-9.9931
-9.99694
-9.94937
-9.94569
-9.94315
-9.94567
-9.9494
-9.89833
-9.89474
-9.89227
-9.89472
-9.89836
-9.84368
-9.84019
-9.83778
-9.84016
-9.84371
-9.78535
-9.78194
-9.77961
-9.78192
-9.78537
-9.72323
-9.71992
-9.71765
-9.7199
-9.72326
-9.65726
-9.65404
-9.65183
-9.65401
-9.65729
-9.58734
-9.5842
-9.58206
-9.58418
-9.58737
-9.5134
-9.51035
-9.50826
-9.51033
-9.51342
-9.43534
-9.43238
-9.43036
-9.43236
-9.43537
-9.3531
-9.35022
-9.34826
-9.3502
-9.35312
-9.2666
-9.2638
-9.2619
-9.26378
-9.26662
-9.17576
-9.17304
-9.1712
-9.17303
-9.17578
-9.08052
-9.07788
-9.0761
-9.07787
-9.08054
-8.9808
-8.97824
-8.97652
-8.97823
-8.98082
-8.87655
-8.87407
-8.8724
-8.87406
-8.87657
-8.7677
-8.7653
-8.76368
-8.76529
-8.76772
-8.65421
-8.65188
-8.65031
-8.65187
-8.65422
-8.53601
-8.53376
-8.53224
-8.53374
-8.53603
-8.41306
-8.41088
-8.40942
-8.41087
-8.41308
-8.28533
-8.28322
-8.28181
-8.28321
-8.28535
-8.15278
-8.15074
-8.14938
-8.15073
-8.15279
-8.01538
-8.01341
-8.0121
-8.0134
-8.01539
-7.8731
-7.87121
-7.86994
-7.8712
-7.87312
-7.72594
-7.72411
-7.72289
-7.72411
-7.72596
-7.57389
-7.57213
-7.57095
-7.57212
-7.5739
-7.41694
-7.41525
-7.41412
-7.41524
-7.41696
-7.25511
-7.25348
-7.25239
-7.25347
-7.25512
-7.08841
-7.08684
-7.0858
-7.08683
-7.08842
-6.91687
-6.91536
-6.91436
-6.91535
-6.91688
-6.74052
-6.73907
-6.73811
-6.73907
-6.74053
-6.5594
-6.55802
-6.5571
-6.55801
-6.55941
-6.37359
-6.37226
-6.37139
-6.37226
-6.3736
-6.18313
-6.18186
-6.18103
-6.18186
-6.18314
-5.98811
-5.9869
-5.9861
-5.98689
-5.98812
-5.78861
-5.78746
-5.7867
-5.78746
-5.78862
-5.58474
-5.58365
-5.58293
-5.58364
-5.58475
-5.37662
-5.37558
-5.37489
-5.37557
-5.37662
-5.16436
-5.16337
-5.16272
-5.16337
-5.16436
-4.9481
-4.94717
-4.94655
-4.94716
-4.94811
-4.728
-4.72712
-4.72654
-4.72712
-4.72801
-4.50422
-4.5034
-4.50285
-4.50339
-4.50423
-4.27695
-4.27617
-4.27566
-4.27617
-4.27696
-4.04638
-4.04565
-4.04517
-4.04565
-4.04638
-3.81271
-3.81203
-3.81159
-3.81203
-3.81271
-3.57617
-3.57554
-3.57513
-3.57554
-3.57617
-3.337
-3.33641
-3.33603
-3.33641
-3.337
-3.09544
-3.09491
-3.09456
-3.09491
-3.09545
-2.85178
-2.85129
-2.85097
-2.85129
-2.85178
-2.60628
-2.60584
-2.60555
-2.60584
-2.60629
-2.35926
-2.35886
-2.3586
-2.35886
-2.35926
-2.11101
-2.11066
-2.11042
-2.11065
-2.11101
-1.86187
-1.86156
-1.86136
-1.86156
-1.86187
-1.61218
-1.61191
-1.61174
-1.61191
-1.61218
-1.3623
-1.36207
-1.36192
-1.36207
-1.3623
-1.11258
-1.1124
-1.11228
-1.1124
-1.11259
-0.863429
-0.863287
-0.863196
-0.863287
-0.86343
-0.615224
-0.615124
-0.615059
-0.615124
-0.615225
-0.368378
-0.368318
-0.368279
-0.368318
-0.368379
-0.123309
-0.123289
-0.123276
-0.123289
-0.123309
)
;

boundaryField
{
    BotWall
    {
        type            zeroGradient;
    }
    FreeStream
    {
        type            zeroGradient;
    }
    FrontNBack
    {
        type            empty;
    }
    LeftSide
    {
        type            symmetryPlane;
    }
    RightSide
    {
        type            symmetryPlane;
    }
}


// ************************************************************************* //
