/*--------------------------------*- C++ -*----------------------------------*\
| =========                 |                                                 |
| \\      /  F ield         | OpenFOAM: The Open Source CFD Toolbox           |
|  \\    /   O peration     | Version:  2.4.0                                 |
|   \\  /    A nd           | Web:      www.OpenFOAM.org                      |
|    \\/     M anipulation  |                                                 |
\*---------------------------------------------------------------------------*/
FoamFile
{
    version     2.0;
    format      ascii;
    class       volScalarField;
    location    "2.8";
    object      p;
}
// * * * * * * * * * * * * * * * * * * * * * * * * * * * * * * * * * * * * * //

dimensions      [1 -1 -2 0 0 0 0];

internalField   nonuniform List<scalar> 
500
(
0.593637
0.593854
0.593857
0.593857
0.593636
0.563812
0.564031
0.564036
0.564033
0.56381
0.53368
0.533899
0.533903
0.533901
0.533678
0.503195
0.503416
0.503422
0.503418
0.503193
0.472386
0.472609
0.472616
0.472611
0.472383
0.4412
0.441425
0.441433
0.441427
0.441198
0.409677
0.409904
0.409914
0.409906
0.409675
0.377872
0.378102
0.378113
0.378103
0.37787
0.346072
0.346304
0.346317
0.346306
0.34607
0.314106
0.314341
0.314355
0.314343
0.314104
0.27951
0.279744
0.27976
0.279746
0.279508
0.23595
0.236177
0.236192
0.236179
0.235948
0.18675
0.186976
0.186985
0.186978
0.186748
0.1956
0.19588
0.195895
0.195882
0.195598
0.420732
0.421185
0.42128
0.421188
0.420729
0.774448
0.775045
0.775359
0.77505
0.774443
-0.363973
-0.364115
-0.363926
-0.364111
-0.363977
-6.98142
-6.9846
-6.9863
-6.98463
-6.9814
-16.6226
-16.6298
-16.6358
-16.6298
-16.6225
-0.0157589
-0.0157585
-0.0157584
-0.0157585
-0.0157589
-0.00976554
-0.00976589
-0.00976598
-0.00976589
-0.00976553
-0.0113064
-0.0113064
-0.0113064
-0.0113064
-0.0113064
-0.012458
-0.012458
-0.012458
-0.012458
-0.012458
-0.0131726
-0.0131726
-0.0131726
-0.0131726
-0.0131726
-0.0137766
-0.0137766
-0.0137766
-0.0137766
-0.0137766
-0.0144006
-0.0144006
-0.0144006
-0.0144006
-0.0144006
-0.0150491
-0.0150491
-0.0150491
-0.0150491
-0.0150491
-0.0157092
-0.0157092
-0.0157092
-0.0157092
-0.0157092
-0.0163762
-0.0163762
-0.0163762
-0.0163762
-0.0163762
-0.0170499
-0.0170499
-0.0170499
-0.0170499
-0.0170499
-0.017731
-0.017731
-0.017731
-0.017731
-0.017731
-0.0184197
-0.0184197
-0.0184197
-0.0184197
-0.0184197
-0.0191161
-0.0191161
-0.019116
-0.0191161
-0.0191161
-0.0198202
-0.0198202
-0.0198202
-0.0198202
-0.0198202
-0.0205323
-0.0205323
-0.0205323
-0.0205323
-0.0205323
-0.0212522
-0.0212522
-0.0212522
-0.0212522
-0.0212522
-0.0219802
-0.0219802
-0.0219802
-0.0219802
-0.0219802
-0.0227164
-0.0227164
-0.0227164
-0.0227164
-0.0227164
-0.0234607
-0.0234607
-0.0234607
-0.0234607
-0.0234607
-0.0242134
-0.0242134
-0.0242134
-0.0242134
-0.0242134
-0.0249744
-0.0249744
-0.0249744
-0.0249744
-0.0249744
-0.025744
-0.025744
-0.025744
-0.025744
-0.025744
-0.0265221
-0.0265221
-0.0265221
-0.0265221
-0.0265221
-0.0273089
-0.0273089
-0.0273089
-0.0273089
-0.0273089
-0.0281045
-0.0281045
-0.0281045
-0.0281045
-0.0281045
-0.028909
-0.028909
-0.028909
-0.028909
-0.028909
-0.0297224
-0.0297224
-0.0297224
-0.0297224
-0.0297224
-0.030545
-0.030545
-0.030545
-0.030545
-0.030545
-0.0313767
-0.0313767
-0.0313767
-0.0313767
-0.0313767
-0.0322177
-0.0322177
-0.0322177
-0.0322177
-0.0322177
-0.033068
-0.033068
-0.033068
-0.033068
-0.033068
-0.0339279
-0.0339279
-0.0339279
-0.0339279
-0.0339279
-0.0347974
-0.0347974
-0.0347974
-0.0347974
-0.0347974
-0.0356765
-0.0356765
-0.0356765
-0.0356765
-0.0356765
-0.0365655
-0.0365655
-0.0365655
-0.0365655
-0.0365655
-0.0374644
-0.0374644
-0.0374644
-0.0374644
-0.0374644
-0.0383733
-0.0383733
-0.0383733
-0.0383733
-0.0383733
-0.0392923
-0.0392923
-0.0392923
-0.0392923
-0.0392923
-0.0402217
-0.0402217
-0.0402217
-0.0402217
-0.0402217
-0.0411614
-0.0411614
-0.0411614
-0.0411614
-0.0411614
-0.0421115
-0.0421115
-0.0421115
-0.0421115
-0.0421115
-0.0430723
-0.0430723
-0.0430723
-0.0430723
-0.0430723
-0.0440438
-0.0440438
-0.0440438
-0.0440438
-0.0440438
-0.0450261
-0.0450261
-0.0450261
-0.0450261
-0.0450261
-0.0460194
-0.0460194
-0.0460194
-0.0460194
-0.0460194
-0.0470238
-0.0470238
-0.0470238
-0.0470238
-0.0470238
-0.0480394
-0.0480394
-0.0480394
-0.0480394
-0.0480394
-0.0490663
-0.0490663
-0.0490663
-0.0490663
-0.0490663
-0.0501047
-0.0501047
-0.0501047
-0.0501047
-0.0501047
-0.0511547
-0.0511547
-0.0511547
-0.0511547
-0.0511547
-0.0522164
-0.0522164
-0.0522164
-0.0522164
-0.0522164
-0.0532899
-0.0532899
-0.0532899
-0.0532899
-0.0532899
-0.0543754
-0.0543754
-0.0543754
-0.0543754
-0.0543754
-0.0554731
-0.0554731
-0.0554731
-0.0554731
-0.0554731
-0.0565829
-0.0565829
-0.0565829
-0.0565829
-0.0565829
-0.0577052
-0.0577052
-0.0577052
-0.0577052
-0.0577052
-0.05884
-0.05884
-0.05884
-0.05884
-0.05884
-0.0599874
-0.0599874
-0.0599874
-0.0599874
-0.0599874
-0.0611477
-0.0611477
-0.0611477
-0.0611477
-0.0611477
-0.0623209
-0.0623209
-0.0623209
-0.0623209
-0.0623209
-0.0635072
-0.0635072
-0.0635072
-0.0635072
-0.0635072
-0.0647067
-0.0647067
-0.0647067
-0.0647067
-0.0647067
-0.0659196
-0.0659196
-0.0659196
-0.0659196
-0.0659196
-0.0671461
-0.0671461
-0.0671461
-0.0671461
-0.0671461
-0.0683862
-0.0683862
-0.0683862
-0.0683862
-0.0683862
-0.0696402
-0.0696402
-0.0696402
-0.0696402
-0.0696402
-0.0709081
-0.0709081
-0.0709081
-0.0709081
-0.0709081
-0.0721902
-0.0721902
-0.0721902
-0.0721902
-0.0721902
-0.0734867
-0.0734867
-0.0734867
-0.0734867
-0.0734867
-0.0747976
-0.0747976
-0.0747976
-0.0747976
-0.0747976
-0.0761231
-0.0761231
-0.0761231
-0.0761231
-0.0761231
-0.0774634
-0.0774634
-0.0774634
-0.0774634
-0.0774634
-0.0788186
-0.0788186
-0.0788186
-0.0788186
-0.0788186
-0.080189
-0.080189
-0.080189
-0.080189
-0.080189
-0.0815747
-0.0815747
-0.0815747
-0.0815747
-0.0815747
-0.0829759
-0.0829759
-0.0829759
-0.0829759
-0.0829759
-0.0843926
-0.0843926
-0.0843926
-0.0843926
-0.0843926
-0.0858252
-0.0858252
-0.0858252
-0.0858252
-0.0858252
-0.0872738
-0.0872738
-0.0872738
-0.0872738
-0.0872738
-0.0887385
-0.0887385
-0.0887385
-0.0887385
-0.0887385
)
;

boundaryField
{
    BotWall
    {
        type            calculated;
        value           nonuniform List<scalar> 5(0.608458 0.608674 0.608677 0.608677 0.608457);
    }
    FreeStream
    {
        type            calculated;
        value           nonuniform List<scalar> 5(-0.089475 -0.089475 -0.089475 -0.089475 -0.089475);
    }
    FrontNBack
    {
        type            empty;
    }
    LeftSide
    {
        type            symmetryPlane;
    }
    RightSide
    {
        type            symmetryPlane;
    }
}


// ************************************************************************* //
