/*--------------------------------*- C++ -*----------------------------------*\
| =========                 |                                                 |
| \\      /  F ield         | OpenFOAM: The Open Source CFD Toolbox           |
|  \\    /   O peration     | Version:  2.4.0                                 |
|   \\  /    A nd           | Web:      www.OpenFOAM.org                      |
|    \\/     M anipulation  |                                                 |
\*---------------------------------------------------------------------------*/
FoamFile
{
    version     2.0;
    format      ascii;
    class       volScalarField;
    location    "2.8";
    object      p_rgh;
}
// * * * * * * * * * * * * * * * * * * * * * * * * * * * * * * * * * * * * * //

dimensions      [1 -1 -2 0 0 0 0];

internalField   nonuniform List<scalar> 
500
(
0.608458
0.608674
0.608677
0.608677
0.608457
0.608438
0.608657
0.608662
0.60866
0.608437
0.608444
0.608664
0.608668
0.608666
0.608443
0.608435
0.608656
0.608662
0.608658
0.608433
0.60844
0.608664
0.60867
0.608665
0.608438
0.608413
0.608639
0.608647
0.60864
0.608411
0.608397
0.608624
0.608634
0.608626
0.608395
0.60845
0.60868
0.608691
0.608682
0.608448
0.608864
0.609096
0.609109
0.609098
0.608861
0.609471
0.609706
0.60972
0.609708
0.609469
0.607811
0.608045
0.608061
0.608047
0.607809
0.597555
0.597783
0.597797
0.597785
0.597553
0.582032
0.582258
0.582267
0.58226
0.58203
0.624933
0.625212
0.625228
0.625214
0.624931
0.884497
0.884949
0.885044
0.884952
0.884493
1.27303
1.27362
1.27394
1.27363
1.27302
0.169811
0.169669
0.169858
0.169673
0.169807
-6.41204
-6.41522
-6.41692
-6.41524
-6.41202
-16.0925
-16.0993
-16.1051
-16.0994
-16.0924
-0.0051288
-0.00512838
-0.00512823
-0.00512838
-0.0051288
0.00147419
0.00147383
0.00147374
0.00147383
0.00147419
0.00054968
0.000549693
0.000549681
0.000549693
0.000549681
2.13333e-05
2.13871e-05
2.13948e-05
2.13874e-05
2.13332e-05
-6.30614e-05
-6.30499e-05
-6.30447e-05
-6.30497e-05
-6.30614e-05
-2.9765e-05
-2.97692e-05
-2.9767e-05
-2.97691e-05
-2.9765e-05
-9.41761e-06
-9.41879e-06
-9.41726e-06
-9.41865e-06
-9.41762e-06
-6.34048e-06
-6.33804e-06
-6.33644e-06
-6.3379e-06
-6.34049e-06
-7.66275e-06
-7.65964e-06
-7.65796e-06
-7.6595e-06
-7.66276e-06
-8.46298e-06
-8.46027e-06
-8.4586e-06
-8.46013e-06
-8.46299e-06
-8.57552e-06
-8.5731e-06
-8.57146e-06
-8.57296e-06
-8.57552e-06
-8.51519e-06
-8.51285e-06
-8.51126e-06
-8.51271e-06
-8.51519e-06
-8.47619e-06
-8.47388e-06
-8.47233e-06
-8.47375e-06
-8.47619e-06
-8.4645e-06
-8.46223e-06
-8.46071e-06
-8.4621e-06
-8.4645e-06
-8.45953e-06
-8.45731e-06
-8.45582e-06
-8.45718e-06
-8.45952e-06
-8.4536e-06
-8.45144e-06
-8.44997e-06
-8.4513e-06
-8.45359e-06
-8.4465e-06
-8.44439e-06
-8.44295e-06
-8.44425e-06
-8.44649e-06
-8.43905e-06
-8.43698e-06
-8.43558e-06
-8.43685e-06
-8.43904e-06
-8.43156e-06
-8.42953e-06
-8.42816e-06
-8.42941e-06
-8.43154e-06
-8.42402e-06
-8.42204e-06
-8.4207e-06
-8.42192e-06
-8.42401e-06
-8.41641e-06
-8.41448e-06
-8.41316e-06
-8.41435e-06
-8.41639e-06
-8.40871e-06
-8.40682e-06
-8.40554e-06
-8.4067e-06
-8.40869e-06
-8.40093e-06
-8.39908e-06
-8.39782e-06
-8.39896e-06
-8.40091e-06
-8.39305e-06
-8.39125e-06
-8.39002e-06
-8.39113e-06
-8.39303e-06
-8.38509e-06
-8.38333e-06
-8.38213e-06
-8.38321e-06
-8.38507e-06
-8.37704e-06
-8.37532e-06
-8.37414e-06
-8.37521e-06
-8.37702e-06
-8.3689e-06
-8.36722e-06
-8.36607e-06
-8.36711e-06
-8.36888e-06
-8.36067e-06
-8.35903e-06
-8.35791e-06
-8.35892e-06
-8.36065e-06
-8.35235e-06
-8.35075e-06
-8.34965e-06
-8.35064e-06
-8.35233e-06
-8.34394e-06
-8.34237e-06
-8.3413e-06
-8.34227e-06
-8.34391e-06
-8.33543e-06
-8.3339e-06
-8.33285e-06
-8.3338e-06
-8.33541e-06
-8.32683e-06
-8.32534e-06
-8.32431e-06
-8.32524e-06
-8.32681e-06
-8.31813e-06
-8.31668e-06
-8.31567e-06
-8.31658e-06
-8.31811e-06
-8.30934e-06
-8.30792e-06
-8.30694e-06
-8.30783e-06
-8.30931e-06
-8.30045e-06
-8.29907e-06
-8.29811e-06
-8.29897e-06
-8.30042e-06
-8.29146e-06
-8.29011e-06
-8.28917e-06
-8.29002e-06
-8.29144e-06
-8.28237e-06
-8.28106e-06
-8.28014e-06
-8.28097e-06
-8.28235e-06
-8.27319e-06
-8.2719e-06
-8.27101e-06
-8.27182e-06
-8.27316e-06
-8.2639e-06
-8.26265e-06
-8.26178e-06
-8.26256e-06
-8.26387e-06
-8.2545e-06
-8.25329e-06
-8.25244e-06
-8.25321e-06
-8.25448e-06
-8.24501e-06
-8.24382e-06
-8.243e-06
-8.24374e-06
-8.24498e-06
-8.23541e-06
-8.23426e-06
-8.23345e-06
-8.23418e-06
-8.23538e-06
-8.2257e-06
-8.22458e-06
-8.2238e-06
-8.22451e-06
-8.22568e-06
-8.21589e-06
-8.2148e-06
-8.21404e-06
-8.21473e-06
-8.21586e-06
-8.20597e-06
-8.20491e-06
-8.20417e-06
-8.20484e-06
-8.20594e-06
-8.19594e-06
-8.19491e-06
-8.19419e-06
-8.19484e-06
-8.19591e-06
-8.1858e-06
-8.1848e-06
-8.1841e-06
-8.18474e-06
-8.18577e-06
-8.17555e-06
-8.17458e-06
-8.1739e-06
-8.17452e-06
-8.17552e-06
-8.16518e-06
-8.16424e-06
-8.16358e-06
-8.16418e-06
-8.16516e-06
-8.1547e-06
-8.15379e-06
-8.15315e-06
-8.15374e-06
-8.15468e-06
-8.14411e-06
-8.14323e-06
-8.14261e-06
-8.14317e-06
-8.14409e-06
-8.1334e-06
-8.13255e-06
-8.13195e-06
-8.1325e-06
-8.13338e-06
-8.12257e-06
-8.12175e-06
-8.12117e-06
-8.1217e-06
-8.12255e-06
-8.11162e-06
-8.11083e-06
-8.11027e-06
-8.11078e-06
-8.1116e-06
-8.10056e-06
-8.09979e-06
-8.09925e-06
-8.09975e-06
-8.10054e-06
-8.08937e-06
-8.08863e-06
-8.08811e-06
-8.08859e-06
-8.08935e-06
-8.07806e-06
-8.07735e-06
-8.07685e-06
-8.07731e-06
-8.07804e-06
-8.06662e-06
-8.06594e-06
-8.06546e-06
-8.0659e-06
-8.0666e-06
-8.05506e-06
-8.05441e-06
-8.05394e-06
-8.05437e-06
-8.05504e-06
-8.04337e-06
-8.04275e-06
-8.0423e-06
-8.04271e-06
-8.04335e-06
-8.03155e-06
-8.03096e-06
-8.03053e-06
-8.03092e-06
-8.03154e-06
-8.01961e-06
-8.01904e-06
-8.01863e-06
-8.019e-06
-8.01959e-06
-8.00753e-06
-8.00699e-06
-8.0066e-06
-8.00695e-06
-8.00751e-06
-7.99532e-06
-7.9948e-06
-7.99444e-06
-7.99477e-06
-7.9953e-06
-7.98297e-06
-7.98248e-06
-7.98214e-06
-7.98246e-06
-7.98296e-06
-7.97049e-06
-7.97003e-06
-7.9697e-06
-7.97e-06
-7.97048e-06
-7.95787e-06
-7.95744e-06
-7.95713e-06
-7.95741e-06
-7.95786e-06
-7.94511e-06
-7.94471e-06
-7.94442e-06
-7.94468e-06
-7.9451e-06
-7.93221e-06
-7.93184e-06
-7.93157e-06
-7.93182e-06
-7.9322e-06
-7.91917e-06
-7.91882e-06
-7.91858e-06
-7.9188e-06
-7.91916e-06
-7.90599e-06
-7.90567e-06
-7.90544e-06
-7.90565e-06
-7.90598e-06
-7.89266e-06
-7.89237e-06
-7.89216e-06
-7.89235e-06
-7.89265e-06
-7.87918e-06
-7.87892e-06
-7.87873e-06
-7.8789e-06
-7.87918e-06
-7.86556e-06
-7.86532e-06
-7.86515e-06
-7.86531e-06
-7.86555e-06
-7.85178e-06
-7.85157e-06
-7.85143e-06
-7.85156e-06
-7.85178e-06
-7.83786e-06
-7.83768e-06
-7.83755e-06
-7.83767e-06
-7.83785e-06
-7.82378e-06
-7.82362e-06
-7.82352e-06
-7.82361e-06
-7.82377e-06
-7.80954e-06
-7.80942e-06
-7.80933e-06
-7.80941e-06
-7.80953e-06
-7.79513e-06
-7.79505e-06
-7.795e-06
-7.79505e-06
-7.79513e-06
-7.78059e-06
-7.78053e-06
-7.78049e-06
-7.78053e-06
-7.78058e-06
-7.76594e-06
-7.76583e-06
-7.76575e-06
-7.76582e-06
-7.76594e-06
)
;

boundaryField
{
    BotWall
    {
        type            fixedFluxPressure;
        gradient        uniform 0;
        value           nonuniform List<scalar> 5(0.608458 0.608674 0.608677 0.608677 0.608457);
    }
    FreeStream
    {
        type            totalPressure;
        rho             rho;
        psi             none;
        gamma           1;
        p0              uniform 0;
        value           nonuniform List<scalar> 5(-7.75863e-06 -7.75842e-06 -7.75828e-06 -7.75842e-06 -7.75863e-06);
    }
    FrontNBack
    {
        type            empty;
    }
    LeftSide
    {
        type            symmetryPlane;
    }
    RightSide
    {
        type            symmetryPlane;
    }
}


// ************************************************************************* //
