/*--------------------------------*- C++ -*----------------------------------*\
| =========                 |                                                 |
| \\      /  F ield         | OpenFOAM: The Open Source CFD Toolbox           |
|  \\    /   O peration     | Version:  2.4.0                                 |
|   \\  /    A nd           | Web:      www.OpenFOAM.org                      |
|    \\/     M anipulation  |                                                 |
\*---------------------------------------------------------------------------*/
FoamFile
{
    version     2.0;
    format      ascii;
    class       surfaceScalarField;
    location    "2.8";
    object      phi;
}
// * * * * * * * * * * * * * * * * * * * * * * * * * * * * * * * * * * * * * //

dimensions      [0 3 -1 0 0 0 0];

internalField   nonuniform List<scalar> 
895
(
4.78895e-18
-4.78939e-18
3.26453e-18
1.52372e-18
-3.24804e-18
6.51149e-18
-4.82939e-18
1.58038e-18
-4.83005e-18
1.48094e-17
-1.96055e-17
9.98297e-18
6.33889e-18
-9.93008e-18
2.64086e-17
-1.49358e-17
6.57337e-18
-1.97751e-17
2.53516e-17
-4.49651e-17
1.69967e-17
1.46811e-17
-1.69056e-17
6.02934e-17
-2.55696e-17
1.52239e-17
-4.53542e-17
3.6424e-17
-8.13979e-17
2.43343e-17
2.67571e-17
-2.4204e-17
1.08813e-16
-3.67405e-17
2.77462e-17
-8.21044e-17
4.80398e-17
-1.29447e-16
3.20086e-17
4.27741e-17
-3.18369e-17
1.7264e-16
-4.84605e-17
4.43553e-17
-1.30575e-16
6.0242e-17
-1.89699e-16
4.00416e-17
6.29599e-17
-3.98264e-17
2.52488e-16
-6.07721e-17
6.52863e-17
-1.91356e-16
7.30441e-17
-2.62753e-16
4.84439e-17
8.75456e-17
-4.81829e-17
3.49096e-16
-7.369e-17
9.07789e-17
-2.65056e-16
8.64939e-17
-3.49257e-16
5.72422e-17
1.16783e-16
-5.6933e-17
4.63252e-16
-8.72623e-17
1.21094e-16
-3.52327e-16
1.00606e-16
-4.49872e-16
6.6447e-17
1.50927e-16
-6.60869e-17
5.95767e-16
-1.01504e-16
1.56497e-16
-4.5384e-16
1.15435e-16
-5.65317e-16
7.60886e-17
1.9026e-16
-7.56748e-17
7.47512e-16
-1.1647e-16
1.97279e-16
-5.70319e-16
1.30998e-16
-6.96325e-16
8.6179e-17
2.35066e-16
-8.57085e-17
9.19383e-16
-1.32179e-16
2.43737e-16
-7.02505e-16
1.47357e-16
-8.4369e-16
9.67521e-17
2.85659e-16
-9.62218e-17
1.11234e-15
-1.48691e-16
2.96195e-16
-8.51203e-16
1.64517e-16
-1.00821e-15
1.07822e-16
3.42343e-16
-1.07228e-16
1.32738e-15
-1.66014e-16
3.54971e-16
-1.01722e-15
1.82514e-16
-1.19074e-15
1.1942e-16
4.05428e-16
-1.1876e-16
1.56554e-15
-1.84184e-16
4.20387e-16
-1.20141e-15
2.01376e-16
-1.39212e-15
1.31544e-16
4.75251e-16
-1.30815e-16
1.82789e-15
-2.03226e-16
4.92791e-16
-1.40464e-15
2.2139e-16
-1.61351e-15
1.44346e-16
5.52289e-16
-1.43543e-16
2.11577e-15
-2.23433e-16
5.72676e-16
-1.62808e-15
2.43191e-16
-1.85671e-15
1.57487e-16
6.37989e-16
-1.56612e-16
2.42987e-15
-2.45442e-16
6.61503e-16
-1.87352e-15
2.67297e-16
-2.42568e-15
1.73064e-16
7.32222e-16
-1.72072e-16
2.775e-15
-2.69819e-16
7.5925e-16
-2.44777e-15
2.90633e-16
-2.60875e-10
1.90999e-16
-2.60878e-10
-1.89831e-16
-2.6088e-10
-2.93519e-16
-2.60878e-10
-2.60875e-10
2.93283e-16
-2.60875e-10
1.90093e-16
-2.60878e-10
-1.8901e-16
-2.6088e-10
-2.96048e-16
-2.60878e-10
-2.60875e-10
2.94984e-16
-2.60876e-10
1.87743e-16
-2.60878e-10
-1.86598e-16
-2.60879e-10
-2.97707e-16
-2.60878e-10
-2.60876e-10
2.79295e-16
-2.60876e-10
1.8143e-16
-2.60878e-10
-1.80284e-16
-2.60879e-10
-2.81863e-16
-2.60878e-10
-2.60876e-10
2.68582e-16
-2.60876e-10
1.7481e-16
-2.60877e-10
-1.73647e-16
-2.60878e-10
-2.7102e-16
-2.60877e-10
-2.60876e-10
2.59897e-16
-2.60876e-10
1.68629e-16
-2.60877e-10
-1.67443e-16
-2.60878e-10
-2.6222e-16
-2.60877e-10
-2.60876e-10
2.51068e-16
-2.60877e-10
1.62775e-16
-2.60877e-10
-1.61567e-16
-2.60878e-10
-2.53278e-16
-2.60877e-10
-2.60877e-10
2.41929e-16
-2.60877e-10
1.56993e-16
-2.60877e-10
-1.55764e-16
-2.60878e-10
-2.44027e-16
-2.60877e-10
-2.60877e-10
2.32818e-16
-2.60877e-10
1.51227e-16
-2.60877e-10
-1.49977e-16
-2.60877e-10
-2.34805e-16
-2.60877e-10
-2.60877e-10
2.23861e-16
-2.60877e-10
1.45504e-16
-2.60877e-10
-1.44235e-16
-2.60877e-10
-2.25738e-16
-2.60877e-10
-2.60877e-10
2.15044e-16
-2.60878e-10
1.39851e-16
-2.60877e-10
-1.38562e-16
-2.60877e-10
-2.16813e-16
-2.60877e-10
-2.60878e-10
2.06347e-16
-2.60878e-10
1.34273e-16
-2.60877e-10
-1.32966e-16
-2.60876e-10
-2.0801e-16
-2.60877e-10
-2.60878e-10
1.97766e-16
-2.60878e-10
1.28771e-16
-2.60877e-10
-1.27447e-16
-2.60876e-10
-1.99324e-16
-2.60877e-10
-2.60878e-10
1.89307e-16
-2.60878e-10
1.23345e-16
-2.60877e-10
-1.22006e-16
-2.60876e-10
-1.90762e-16
-2.60877e-10
-2.60878e-10
1.80976e-16
-2.60878e-10
1.17999e-16
-2.60877e-10
-1.16645e-16
-2.60876e-10
-1.8233e-16
-2.60877e-10
-2.60878e-10
1.72776e-16
-2.60879e-10
1.12735e-16
-2.60877e-10
-1.11367e-16
-2.60875e-10
-1.74032e-16
-2.60877e-10
-2.60879e-10
1.64712e-16
-2.60879e-10
1.07555e-16
-2.60877e-10
-1.06174e-16
-2.60875e-10
-1.65871e-16
-2.60877e-10
-2.60879e-10
1.56787e-16
-2.60879e-10
1.02462e-16
-2.60877e-10
-1.01069e-16
-2.60875e-10
-1.5785e-16
-2.60877e-10
-2.60879e-10
1.49003e-16
-2.60879e-10
9.74578e-17
-2.60876e-10
-9.60543e-17
-2.60875e-10
-1.49974e-16
-2.60876e-10
-2.60879e-10
1.41364e-16
-2.60879e-10
9.25443e-17
-2.60876e-10
-9.11314e-17
-2.60875e-10
-1.42245e-16
-2.60876e-10
-2.60879e-10
1.33874e-16
-2.60879e-10
8.77238e-17
-2.60876e-10
-8.63026e-17
-2.60874e-10
-1.34666e-16
-2.60876e-10
-2.60879e-10
1.26534e-16
-2.60879e-10
8.29981e-17
-2.60876e-10
-8.157e-17
-2.60874e-10
-1.2724e-16
-2.60876e-10
-2.60879e-10
1.19349e-16
-2.6088e-10
7.83693e-17
-2.60876e-10
-7.69353e-17
-2.60874e-10
-1.19971e-16
-2.60876e-10
-2.6088e-10
1.1232e-16
-2.6088e-10
7.38389e-17
-2.60876e-10
-7.24004e-17
-2.60874e-10
-1.1286e-16
-2.60876e-10
-2.6088e-10
1.0545e-16
-2.6088e-10
6.94087e-17
-2.60876e-10
-6.7967e-17
-2.60874e-10
-1.05911e-16
-2.60876e-10
-2.6088e-10
9.87409e-17
-2.6088e-10
6.50803e-17
-2.60876e-10
-6.36365e-17
-2.60874e-10
-9.91249e-17
-2.60876e-10
-2.6088e-10
9.21954e-17
-2.6088e-10
6.0855e-17
-2.60876e-10
-5.94106e-17
-2.60874e-10
-9.25048e-17
-2.60876e-10
-2.6088e-10
8.58152e-17
-2.6088e-10
5.67343e-17
-2.60876e-10
-5.52905e-17
-2.60873e-10
-8.60525e-17
-2.60876e-10
-2.6088e-10
7.96022e-17
-2.6088e-10
5.27194e-17
-2.60876e-10
-5.12775e-17
-2.60873e-10
-7.97699e-17
-2.60876e-10
-2.6088e-10
7.3558e-17
-2.6088e-10
4.88114e-17
-2.60876e-10
-4.73727e-17
-2.60873e-10
-7.36585e-17
-2.60876e-10
-2.6088e-10
6.7684e-17
-2.6088e-10
4.50114e-17
-2.60876e-10
-4.35772e-17
-2.60873e-10
-6.77198e-17
-2.60876e-10
-2.6088e-10
6.19815e-17
-2.6088e-10
4.13203e-17
-2.60876e-10
-3.98918e-17
-2.60873e-10
-6.19552e-17
-2.60876e-10
-2.6088e-10
5.64517e-17
-2.6088e-10
3.77389e-17
-2.60876e-10
-3.63174e-17
-2.60873e-10
-5.63657e-17
-2.60876e-10
-2.6088e-10
5.10955e-17
-2.6088e-10
3.42678e-17
-2.60876e-10
-3.28546e-17
-2.60873e-10
-5.09524e-17
-2.60876e-10
-2.6088e-10
4.59135e-17
-2.60881e-10
3.09076e-17
-2.60876e-10
-2.95039e-17
-2.60873e-10
-4.57158e-17
-2.60876e-10
-2.60881e-10
4.09065e-17
-2.60881e-10
2.76588e-17
-2.60876e-10
-2.62658e-17
-2.60873e-10
-4.06567e-17
-2.60876e-10
-2.60881e-10
3.60746e-17
-2.60881e-10
2.45217e-17
-2.60876e-10
-2.31406e-17
-2.60873e-10
-3.57753e-17
-2.60876e-10
-2.60881e-10
3.14182e-17
-2.60881e-10
2.14965e-17
-2.60876e-10
-2.01284e-17
-2.60873e-10
-3.10719e-17
-2.60876e-10
-2.60881e-10
2.69371e-17
-2.60881e-10
1.85832e-17
-2.60876e-10
-1.72294e-17
-2.60873e-10
-2.65463e-17
-2.60876e-10
-2.60881e-10
2.26312e-17
-2.60881e-10
1.57819e-17
-2.60876e-10
-1.44433e-17
-2.60873e-10
-2.21985e-17
-2.60876e-10
-2.60881e-10
1.85002e-17
-2.60881e-10
1.30924e-17
-2.60876e-10
-1.177e-17
-2.60873e-10
-1.80279e-17
-2.60876e-10
-2.60881e-10
1.45433e-17
-2.60881e-10
1.05144e-17
-2.60876e-10
-9.20923e-18
-2.60873e-10
-1.40339e-17
-2.60876e-10
-2.60881e-10
1.07598e-17
-2.60881e-10
8.04739e-18
-2.60876e-10
-6.76042e-18
-2.60873e-10
-1.02159e-17
-2.60876e-10
-2.60881e-10
7.14883e-18
-2.60881e-10
5.69092e-18
-2.60876e-10
-4.423e-18
-2.60873e-10
-6.57261e-18
-2.60876e-10
-2.60881e-10
3.70906e-18
-2.60881e-10
3.44428e-18
-2.60876e-10
-2.19623e-18
-2.60873e-10
-3.10298e-18
-2.60876e-10
-2.60881e-10
4.39157e-19
-2.60881e-10
1.30667e-18
-2.60876e-10
-7.92551e-20
-2.60873e-10
1.94456e-19
-2.60876e-10
-2.60881e-10
-2.66246e-18
-2.60881e-10
-7.22851e-19
-2.60876e-10
1.92893e-18
-2.60873e-10
3.32132e-18
-2.60876e-10
-2.60881e-10
-5.59758e-18
-2.60881e-10
-2.64535e-18
-2.60876e-10
3.82947e-18
-2.60873e-10
6.27946e-18
-2.60876e-10
-2.60881e-10
-8.36819e-18
-2.60881e-10
-4.46202e-18
-2.60876e-10
5.62363e-18
-2.60873e-10
9.07089e-18
-2.60876e-10
-2.60881e-10
-1.09765e-17
-2.60881e-10
-6.17422e-18
-2.60876e-10
7.31282e-18
-2.60873e-10
1.16979e-17
-2.60876e-10
-2.60881e-10
-1.34249e-17
-2.60881e-10
-7.7834e-18
-2.60876e-10
8.8986e-18
-2.60873e-10
1.41629e-17
-2.60876e-10
-2.60881e-10
-1.5716e-17
-2.60881e-10
-9.29119e-18
-2.60876e-10
1.03827e-17
-2.60873e-10
1.64686e-17
-2.60876e-10
-2.60881e-10
-1.78527e-17
-2.60881e-10
-1.06993e-17
-2.60876e-10
1.17668e-17
-2.60873e-10
1.8618e-17
-2.60876e-10
-2.60881e-10
-1.9838e-17
-2.60881e-10
-1.20097e-17
-2.60876e-10
1.30531e-17
-2.60873e-10
2.06141e-17
-2.60876e-10
-2.60881e-10
-2.16752e-17
-2.60881e-10
-1.32244e-17
-2.60876e-10
1.42436e-17
-2.60873e-10
2.24603e-17
-2.60876e-10
-2.60881e-10
-2.33678e-17
-2.60881e-10
-1.43456e-17
-2.60876e-10
1.53406e-17
-2.60873e-10
2.41601e-17
-2.60876e-10
-2.60881e-10
-2.49196e-17
-2.60881e-10
-1.53757e-17
-2.60876e-10
1.63465e-17
-2.60873e-10
2.57175e-17
-2.60876e-10
-2.60881e-10
-2.63345e-17
-2.60881e-10
-1.6317e-17
-2.60876e-10
1.7264e-17
-2.60873e-10
2.71365e-17
-2.60876e-10
-2.60881e-10
-2.76168e-17
-2.60881e-10
-1.71724e-17
-2.60876e-10
1.80959e-17
-2.60873e-10
2.84214e-17
-2.60876e-10
-2.60881e-10
-2.8771e-17
-2.6088e-10
-1.79447e-17
-2.60876e-10
1.88449e-17
-2.60873e-10
2.95769e-17
-2.60876e-10
-2.6088e-10
-2.98019e-17
-2.6088e-10
-1.86369e-17
-2.60876e-10
1.95144e-17
-2.60873e-10
3.06078e-17
-2.60876e-10
-2.6088e-10
-3.07146e-17
-2.6088e-10
-1.92521e-17
-2.60876e-10
2.01075e-17
-2.60873e-10
3.15192e-17
-2.60876e-10
-2.6088e-10
-3.15143e-17
-2.6088e-10
-1.97938e-17
-2.60876e-10
2.06278e-17
-2.60873e-10
3.23168e-17
-2.60876e-10
-2.6088e-10
-3.22069e-17
-2.6088e-10
-2.02656e-17
-2.60876e-10
2.10789e-17
-2.60873e-10
3.30061e-17
-2.60876e-10
-2.6088e-10
-3.27983e-17
-2.6088e-10
-2.06714e-17
-2.60876e-10
2.14648e-17
-2.60873e-10
3.35935e-17
-2.60876e-10
-2.6088e-10
-3.32949e-17
-2.6088e-10
-2.10151e-17
-2.60876e-10
2.17897e-17
-2.60873e-10
3.40854e-17
-2.60876e-10
-2.6088e-10
-3.37034e-17
-2.6088e-10
-2.13011e-17
-2.60876e-10
2.20579e-17
-2.60873e-10
3.44887e-17
-2.60876e-10
-2.6088e-10
-3.40312e-17
-2.6088e-10
-2.1534e-17
-2.60876e-10
2.22741e-17
-2.60873e-10
3.48107e-17
-2.60876e-10
-2.6088e-10
-3.42857e-17
-2.6088e-10
-2.17185e-17
-2.60876e-10
2.24433e-17
-2.60873e-10
3.50591e-17
-2.60876e-10
-2.6088e-10
-3.44751e-17
-2.6088e-10
-2.186e-17
-2.60876e-10
2.25706e-17
-2.60873e-10
3.52423e-17
-2.60876e-10
-2.6088e-10
-3.4608e-17
-2.6088e-10
-2.19639e-17
-2.60876e-10
2.26617e-17
-2.60873e-10
3.5369e-17
-2.60876e-10
-2.6088e-10
-3.46936e-17
-2.6088e-10
-2.2036e-17
-2.60876e-10
2.27226e-17
-2.60873e-10
3.54485e-17
-2.60876e-10
-2.6088e-10
-3.47418e-17
-2.6088e-10
-2.20826e-17
-2.60876e-10
2.27594e-17
-2.60874e-10
3.54909e-17
-2.60876e-10
-2.6088e-10
-3.47631e-17
-2.6088e-10
-2.21105e-17
-2.60876e-10
2.27791e-17
-2.60874e-10
3.55067e-17
-2.60876e-10
-2.6088e-10
-3.47686e-17
-2.6088e-10
-2.21267e-17
-2.60876e-10
2.27889e-17
-2.60874e-10
3.55075e-17
-2.60876e-10
-2.6088e-10
-3.47705e-17
-2.6088e-10
-2.2139e-17
-2.60876e-10
2.27964e-17
-2.60874e-10
3.55055e-17
-2.60876e-10
-2.6088e-10
-3.47818e-17
-2.6088e-10
-2.21557e-17
-2.60876e-10
2.28101e-17
-2.60874e-10
3.55139e-17
-2.60876e-10
-2.6088e-10
-3.48162e-17
-2.6088e-10
-2.21856e-17
-2.60876e-10
2.28386e-17
-2.60874e-10
3.55467e-17
-2.60876e-10
-2.6088e-10
-3.48885e-17
-2.6088e-10
-2.22378e-17
-2.60876e-10
2.28915e-17
-2.60874e-10
3.56188e-17
-2.60876e-10
-2.6088e-10
-3.50154e-17
-2.6088e-10
-2.23232e-17
-2.60876e-10
2.29792e-17
-2.60874e-10
3.57472e-17
-2.60876e-10
-2.6088e-10
-3.52197e-17
-2.6088e-10
-2.24563e-17
-2.60876e-10
2.31165e-17
-2.60874e-10
3.5955e-17
-2.60876e-10
-2.6088e-10
-3.55426e-17
-2.26671e-17
2.33326e-17
3.62846e-17
)
;

boundaryField
{
    BotWall
    {
        type            calculated;
        value           nonuniform List<scalar> 5(3.19453e-22 5.44296e-22 8.63175e-22 6.93927e-22 5.60574e-22);
    }
    FreeStream
    {
        type            calculated;
        value           nonuniform List<scalar> 5(-2.6088e-10 -2.60876e-10 -2.60874e-10 -2.60876e-10 -2.6088e-10);
    }
    FrontNBack
    {
        type            empty;
        value           nonuniform 0();
    }
    LeftSide
    {
        type            symmetryPlane;
        value           uniform 0;
    }
    RightSide
    {
        type            symmetryPlane;
        value           uniform 0;
    }
}


// ************************************************************************* //
