/*--------------------------------*- C++ -*----------------------------------*\
| =========                 |                                                 |
| \\      /  F ield         | OpenFOAM: The Open Source CFD Toolbox           |
|  \\    /   O peration     | Version:  2.4.0                                 |
|   \\  /    A nd           | Web:      www.OpenFOAM.org                      |
|    \\/     M anipulation  |                                                 |
\*---------------------------------------------------------------------------*/
FoamFile
{
    version     2.0;
    format      ascii;
    class       volVectorField;
    location    "2.8";
    object      U;
}
// * * * * * * * * * * * * * * * * * * * * * * * * * * * * * * * * * * * * * //

dimensions      [0 1 -1 0 0 0 0];

internalField   nonuniform List<vector> 
500
(
(1.17588e-09 1.87278e-10 0)
(2.35075e-09 1.96723e-10 0)
(1.12189e-11 2.01499e-10 0)
(-2.36066e-09 1.96776e-10 0)
(-1.19627e-09 1.87253e-10 0)
(3.59609e-09 -5.49869e-10 0)
(7.13501e-09 -4.93827e-10 0)
(3.44576e-11 -4.42007e-10 0)
(-7.16506e-09 -4.93242e-10 0)
(-3.6584e-09 -5.50312e-10 0)
(6.09967e-09 7.11846e-10 0)
(1.20311e-08 9.25421e-10 0)
(5.84166e-11 1.07651e-09 0)
(-1.20822e-08 9.27211e-10 0)
(-6.20546e-09 7.10583e-10 0)
(8.6926e-09 -1.45356e-09 0)
(1.70463e-08 -1.07583e-09 0)
(8.29909e-11 -7.69965e-10 0)
(-1.71197e-08 -1.07218e-09 0)
(-8.84373e-09 -1.45619e-09 0)
(1.13747e-08 1.09478e-09 0)
(2.21822e-08 1.80664e-09 0)
(1.08392e-10 2.32221e-09 0)
(-2.22786e-08 1.81289e-09 0)
(-1.15728e-08 1.09034e-09 0)
(1.41542e-08 -2.81748e-09 0)
(2.74488e-08 -1.81225e-09 0)
(1.34636e-10 -1.02767e-09 0)
(-2.75689e-08 -1.80267e-09 0)
(-1.44009e-08 -2.82432e-09 0)
(1.70302e-08 3.66202e-10 0)
(3.28467e-08 1.89557e-09 0)
(1.6178e-10 3.00754e-09 0)
(-3.29915e-08 1.90927e-09 0)
(-1.73273e-08 3.56458e-10 0)
(2.00124e-08 -5.83093e-09 0)
(3.83877e-08 -3.86266e-09 0)
(1.89878e-10 -2.35807e-09 0)
(-3.8558e-08 -3.84402e-09 0)
(-2.03617e-08 -5.84422e-09 0)
(2.30991e-08 4.05372e-09 0)
(4.40718e-08 6.76203e-09 0)
(2.18999e-10 8.72403e-09 0)
(-4.42687e-08 6.78652e-09 0)
(-2.35027e-08 4.03629e-09 0)
(2.63016e-08 1.58504e-08 0)
(4.99124e-08 1.91779e-08 0)
(2.49186e-10 2.16738e-08 0)
(-5.01368e-08 1.92092e-08 0)
(-2.67616e-08 1.58281e-08 0)
(2.96181e-08 4.1558e-08 0)
(5.59097e-08 4.58392e-08 0)
(2.80491e-10 4.89427e-08 0)
(-5.61628e-08 4.58785e-08 0)
(-3.01367e-08 4.153e-08 0)
(3.30603e-08 -8.37908e-08 0)
(6.20778e-08 -7.88741e-08 0)
(3.12977e-10 -7.51179e-08 0)
(-6.23607e-08 -7.88264e-08 0)
(-3.364e-08 -8.38248e-08 0)
(3.66248e-08 -5.7794e-07 0)
(6.8415e-08 -5.72197e-07 0)
(3.467e-10 -5.67853e-07 0)
(-6.87288e-08 -5.72142e-07 0)
(-3.72681e-08 -5.77979e-07 0)
(4.03228e-08 -1.06047e-06 0)
(7.4933e-08 -1.05371e-06 0)
(3.81704e-10 -1.04882e-06 0)
(-7.52789e-08 -1.05365e-06 0)
(-4.10322e-08 -1.06051e-06 0)
(4.41613e-08 2.0058e-06 0)
(8.16412e-08 2.01691e-06 0)
(4.18053e-10 2.02333e-06 0)
(-8.20205e-08 2.017e-06 0)
(-4.49396e-08 2.00574e-06 0)
(4.81919e-08 1.51589e-05 0)
(8.86083e-08 1.51789e-05 0)
(4.56021e-10 1.51904e-05 0)
(-8.90225e-08 1.51791e-05 0)
(-4.90423e-08 1.51587e-05 0)
(5.24495e-08 2.72152e-05 0)
(9.58706e-08 2.7242e-05 0)
(4.94935e-10 2.72631e-05 0)
(-9.63231e-08 2.72422e-05 0)
(-5.33764e-08 2.72149e-05 0)
(5.68935e-08 -5.37716e-05 0)
(1.03569e-07 -5.38001e-05 0)
(5.39143e-10 -5.38021e-05 0)
(-1.04061e-07 -5.38001e-05 0)
(-5.79035e-08 -5.37716e-05 0)
(6.07696e-08 -0.000396673 0)
(1.10497e-07 -0.000396761 0)
(5.80846e-10 -0.000396809 0)
(-1.11025e-07 -0.000396761 0)
(-6.18579e-08 -0.000396673 0)
(6.15051e-08 -0.000947774 0)
(1.11635e-07 -0.00094773 0)
(5.86425e-10 -0.000947718 0)
(-1.12169e-07 -0.00094773 0)
(-6.26039e-08 -0.000947774 0)
(6.06341e-08 -0.00218769 0)
(1.09293e-07 -0.00218762 0)
(5.80011e-10 -0.0021876 0)
(-1.09798e-07 -0.00218762 0)
(-6.16964e-08 -0.00218769 0)
(5.74194e-08 -0.00135613 0)
(1.03993e-07 -0.00135618 0)
(5.65454e-10 -0.00135619 0)
(-1.04463e-07 -0.00135618 0)
(-5.84298e-08 -0.00135613 0)
(5.46128e-08 -0.00126017 0)
(9.91465e-08 -0.00126019 0)
(5.50947e-10 -0.0012602 0)
(-9.95825e-08 -0.00126019 0)
(-5.55726e-08 -0.00126017 0)
(5.21316e-08 -0.00127805 0)
(9.47076e-08 -0.00127805 0)
(5.37116e-10 -0.00127806 0)
(-9.51108e-08 -0.00127805 0)
(-5.3043e-08 -0.00127805 0)
(4.97447e-08 -0.00130149 0)
(9.04287e-08 -0.00130149 0)
(5.23717e-10 -0.0013015 0)
(-9.08002e-08 -0.00130149 0)
(-5.06096e-08 -0.00130149 0)
(4.73823e-08 -0.0013064 0)
(8.62243e-08 -0.0013064 0)
(5.10532e-10 -0.0013064 0)
(-8.6565e-08 -0.0013064 0)
(-4.8202e-08 -0.0013064 0)
(4.50693e-08 -0.00130544 0)
(8.21163e-08 -0.00130544 0)
(4.97522e-10 -0.00130544 0)
(-8.24274e-08 -0.00130544 0)
(-4.58453e-08 -0.00130544 0)
(4.28248e-08 -0.00130451 0)
(7.81246e-08 -0.0013045 0)
(4.84695e-10 -0.0013045 0)
(-7.84069e-08 -0.0013045 0)
(-4.35583e-08 -0.00130451 0)
(4.06505e-08 -0.0013043 0)
(7.42513e-08 -0.0013043 0)
(4.72055e-10 -0.0013043 0)
(-7.45058e-08 -0.0013043 0)
(-4.13429e-08 -0.0013043 0)
(3.85436e-08 -0.00130435 0)
(7.04931e-08 -0.00130434 0)
(4.59599e-10 -0.00130434 0)
(-7.07208e-08 -0.00130434 0)
(-3.91961e-08 -0.00130435 0)
(3.65018e-08 -0.00130438 0)
(6.68476e-08 -0.00130438 0)
(4.47324e-10 -0.00130438 0)
(-6.70495e-08 -0.00130438 0)
(-3.71159e-08 -0.00130438 0)
(3.45245e-08 -0.00130439 0)
(6.33136e-08 -0.00130439 0)
(4.35224e-10 -0.00130438 0)
(-6.34907e-08 -0.00130439 0)
(-3.51014e-08 -0.00130439 0)
(3.2611e-08 -0.00130439 0)
(5.98901e-08 -0.00130439 0)
(4.23297e-10 -0.00130438 0)
(-6.00433e-08 -0.00130439 0)
(-3.3152e-08 -0.00130439 0)
(3.07606e-08 -0.00130439 0)
(5.65759e-08 -0.00130438 0)
(4.1154e-10 -0.00130438 0)
(-5.67061e-08 -0.00130438 0)
(-3.12668e-08 -0.00130439 0)
(2.89724e-08 -0.00130439 0)
(5.33697e-08 -0.00130438 0)
(3.9995e-10 -0.00130438 0)
(-5.3478e-08 -0.00130438 0)
(-2.94452e-08 -0.00130439 0)
(2.72456e-08 -0.00130439 0)
(5.02702e-08 -0.00130438 0)
(3.88525e-10 -0.00130438 0)
(-5.03575e-08 -0.00130438 0)
(-2.76861e-08 -0.00130439 0)
(2.55793e-08 -0.00130439 0)
(4.72762e-08 -0.00130438 0)
(3.77263e-10 -0.00130437 0)
(-4.73433e-08 -0.00130438 0)
(-2.59888e-08 -0.00130439 0)
(2.39726e-08 -0.0013044 0)
(4.4386e-08 -0.00130438 0)
(3.66163e-10 -0.00130437 0)
(-4.4434e-08 -0.00130438 0)
(-2.43522e-08 -0.0013044 0)
(2.24246e-08 -0.0013044 0)
(4.15984e-08 -0.00130438 0)
(3.55222e-10 -0.00130437 0)
(-4.16281e-08 -0.00130438 0)
(-2.27755e-08 -0.0013044 0)
(2.09344e-08 -0.0013044 0)
(3.89118e-08 -0.00130438 0)
(3.44439e-10 -0.00130437 0)
(-3.89241e-08 -0.00130438 0)
(-2.12577e-08 -0.0013044 0)
(1.9501e-08 -0.0013044 0)
(3.63248e-08 -0.00130438 0)
(3.33814e-10 -0.00130437 0)
(-3.63205e-08 -0.00130438 0)
(-1.97979e-08 -0.0013044 0)
(1.81234e-08 -0.0013044 0)
(3.38357e-08 -0.00130438 0)
(3.23347e-10 -0.00130437 0)
(-3.38158e-08 -0.00130438 0)
(-1.8395e-08 -0.0013044 0)
(1.68007e-08 -0.0013044 0)
(3.14429e-08 -0.00130438 0)
(3.13036e-10 -0.00130437 0)
(-3.14083e-08 -0.00130438 0)
(-1.7048e-08 -0.0013044 0)
(1.55319e-08 -0.0013044 0)
(2.91449e-08 -0.00130438 0)
(3.02881e-10 -0.00130437 0)
(-2.90964e-08 -0.00130438 0)
(-1.5756e-08 -0.0013044 0)
(1.43159e-08 -0.0013044 0)
(2.694e-08 -0.00130438 0)
(2.92883e-10 -0.00130437 0)
(-2.68784e-08 -0.00130438 0)
(-1.45178e-08 -0.0013044 0)
(1.31517e-08 -0.0013044 0)
(2.48265e-08 -0.00130438 0)
(2.83042e-10 -0.00130437 0)
(-2.47526e-08 -0.00130438 0)
(-1.33325e-08 -0.0013044 0)
(1.20383e-08 -0.0013044 0)
(2.28027e-08 -0.00130438 0)
(2.7336e-10 -0.00130437 0)
(-2.27173e-08 -0.00130438 0)
(-1.2199e-08 -0.0013044 0)
(1.09747e-08 -0.0013044 0)
(2.08668e-08 -0.00130438 0)
(2.63835e-10 -0.00130437 0)
(-2.07707e-08 -0.00130438 0)
(-1.11161e-08 -0.0013044 0)
(9.95962e-09 -0.0013044 0)
(1.9017e-08 -0.00130438 0)
(2.54471e-10 -0.00130437 0)
(-1.8911e-08 -0.00130438 0)
(-1.00828e-08 -0.0013044 0)
(8.99215e-09 -0.0013044 0)
(1.72517e-08 -0.00130438 0)
(2.45268e-10 -0.00130437 0)
(-1.71364e-08 -0.00130438 0)
(-9.09805e-09 -0.0013044 0)
(8.07116e-09 -0.0013044 0)
(1.55689e-08 -0.00130438 0)
(2.36227e-10 -0.00130437 0)
(-1.54452e-08 -0.00130438 0)
(-8.16067e-09 -0.0013044 0)
(7.19555e-09 -0.0013044 0)
(1.39668e-08 -0.00130438 0)
(2.27351e-10 -0.00130437 0)
(-1.38353e-08 -0.00130438 0)
(-7.26956e-09 -0.0013044 0)
(6.36423e-09 -0.0013044 0)
(1.24436e-08 -0.00130438 0)
(2.1864e-10 -0.00130436 0)
(-1.23051e-08 -0.00130438 0)
(-6.4236e-09 -0.0013044 0)
(5.57609e-09 -0.0013044 0)
(1.09974e-08 -0.00130438 0)
(2.10098e-10 -0.00130436 0)
(-1.08525e-08 -0.00130438 0)
(-5.62166e-09 -0.0013044 0)
(4.83001e-09 -0.0013044 0)
(9.62626e-09 -0.00130438 0)
(2.01726e-10 -0.00130436 0)
(-9.47559e-09 -0.00130438 0)
(-4.86259e-09 -0.0013044 0)
(4.12487e-09 -0.0013044 0)
(8.32837e-09 -0.00130438 0)
(1.93527e-10 -0.00130436 0)
(-8.17257e-09 -0.00130438 0)
(-4.14527e-09 -0.0013044 0)
(3.45956e-09 -0.0013044 0)
(7.10177e-09 -0.00130438 0)
(1.85502e-10 -0.00130436 0)
(-6.94146e-09 -0.00130438 0)
(-3.46855e-09 -0.0013044 0)
(2.83294e-09 -0.0013044 0)
(5.94455e-09 -0.00130438 0)
(1.77655e-10 -0.00130436 0)
(-5.7803e-09 -0.00130438 0)
(-2.83127e-09 -0.0013044 0)
(2.24389e-09 -0.0013044 0)
(4.85478e-09 -0.00130438 0)
(1.69988e-10 -0.00130436 0)
(-4.68716e-09 -0.00130438 0)
(-2.2323e-09 -0.0013044 0)
(1.6913e-09 -0.0013044 0)
(3.83052e-09 -0.00130438 0)
(1.62503e-10 -0.00130436 0)
(-3.66006e-09 -0.00130438 0)
(-1.67048e-09 -0.0013044 0)
(1.17402e-09 -0.0013044 0)
(2.86983e-09 -0.00130438 0)
(1.55203e-10 -0.00130436 0)
(-2.69704e-09 -0.00130438 0)
(-1.14466e-09 -0.0013044 0)
(6.90934e-10 -0.0013044 0)
(1.97075e-09 -0.00130438 0)
(1.48091e-10 -0.00130436 0)
(-1.79614e-09 -0.00130438 0)
(-6.53688e-10 -0.0013044 0)
(2.4092e-10 -0.0013044 0)
(1.13136e-09 -0.00130438 0)
(1.41169e-10 -0.00130436 0)
(-9.55379e-10 -0.00130438 0)
(-1.96426e-10 -0.0013044 0)
(-1.77148e-10 -0.0013044 0)
(3.49682e-10 -0.00130438 0)
(1.34441e-10 -0.00130436 0)
(-1.72786e-10 -0.00130438 0)
(2.28276e-10 -0.0013044 0)
(-5.64387e-10 -0.0013044 0)
(-3.7622e-10 -0.00130438 0)
(1.27908e-10 -0.00130436 0)
(5.53613e-10 -0.00130438 0)
(6.2156e-10 -0.0013044 0)
(-9.21913e-10 -0.0013044 0)
(-1.0483e-09 -0.00130438 0)
(1.21574e-10 -0.00130436 0)
(1.22579e-09 -0.00130438 0)
(9.84564e-10 -0.0013044 0)
(-1.25084e-09 -0.0013044 0)
(-1.6685e-09 -0.00130438 0)
(1.1544e-10 -0.00130436 0)
(1.84572e-09 -0.00130438 0)
(1.31842e-09 -0.0013044 0)
(-1.55227e-09 -0.0013044 0)
(-2.23876e-09 -0.00130438 0)
(1.0951e-10 -0.00130436 0)
(2.41536e-09 -0.00130438 0)
(1.62427e-09 -0.0013044 0)
(-1.82731e-09 -0.0013044 0)
(-2.76103e-09 -0.00130438 0)
(1.03785e-10 -0.00130436 0)
(2.93668e-09 -0.00130438 0)
(1.90322e-09 -0.0013044 0)
(-2.07706e-09 -0.0013044 0)
(-3.23723e-09 -0.00130438 0)
(9.82675e-11 -0.00130436 0)
(3.41163e-09 -0.00130438 0)
(2.15641e-09 -0.0013044 0)
(-2.3026e-09 -0.0013044 0)
(-3.66929e-09 -0.00130438 0)
(9.29598e-11 -0.00130436 0)
(3.84217e-09 -0.00130438 0)
(2.38494e-09 -0.0013044 0)
(-2.50502e-09 -0.0013044 0)
(-4.05914e-09 -0.00130438 0)
(8.78635e-11 -0.00130436 0)
(4.23023e-09 -0.00130438 0)
(2.58992e-09 -0.0013044 0)
(-2.68541e-09 -0.0013044 0)
(-4.40868e-09 -0.00130438 0)
(8.29802e-11 -0.00130436 0)
(4.57776e-09 -0.00130438 0)
(2.77245e-09 -0.0013044 0)
(-2.84482e-09 -0.0013044 0)
(-4.71982e-09 -0.00130438 0)
(7.83114e-11 -0.00130436 0)
(4.88669e-09 -0.00130438 0)
(2.93364e-09 -0.0013044 0)
(-2.98434e-09 -0.0013044 0)
(-4.99446e-09 -0.00130438 0)
(7.38581e-11 -0.00130436 0)
(5.15893e-09 -0.00130438 0)
(3.07456e-09 -0.0013044 0)
(-3.10503e-09 -0.0013044 0)
(-5.23449e-09 -0.00130438 0)
(6.96213e-11 -0.00130436 0)
(5.39641e-09 -0.00130438 0)
(3.1963e-09 -0.0013044 0)
(-3.20793e-09 -0.0013044 0)
(-5.4418e-09 -0.00130438 0)
(6.56015e-11 -0.00130436 0)
(5.60102e-09 -0.00130438 0)
(3.29995e-09 -0.0013044 0)
(-3.2941e-09 -0.0013044 0)
(-5.61826e-09 -0.00130438 0)
(6.17989e-11 -0.00130436 0)
(5.77467e-09 -0.00130438 0)
(3.38658e-09 -0.0013044 0)
(-3.3646e-09 -0.0013044 0)
(-5.76574e-09 -0.00130438 0)
(5.82135e-11 -0.00130436 0)
(5.91925e-09 -0.00130438 0)
(3.45724e-09 -0.0013044 0)
(-3.42045e-09 -0.0013044 0)
(-5.88612e-09 -0.00130438 0)
(5.48447e-11 -0.00130437 0)
(6.03665e-09 -0.00130438 0)
(3.51302e-09 -0.0013044 0)
(-3.46269e-09 -0.0013044 0)
(-5.98125e-09 -0.00130438 0)
(5.16917e-11 -0.00130437 0)
(6.12876e-09 -0.00130438 0)
(3.55496e-09 -0.0013044 0)
(-3.49238e-09 -0.0013044 0)
(-6.05299e-09 -0.00130438 0)
(4.87531e-11 -0.00130437 0)
(6.19746e-09 -0.00130438 0)
(3.58413e-09 -0.0013044 0)
(-3.51054e-09 -0.0013044 0)
(-6.1032e-09 -0.00130438 0)
(4.60273e-11 -0.00130437 0)
(6.24462e-09 -0.00130438 0)
(3.60159e-09 -0.0013044 0)
(-3.51821e-09 -0.0013044 0)
(-6.13375e-09 -0.00130438 0)
(4.35117e-11 -0.00130437 0)
(6.27213e-09 -0.00130438 0)
(3.60839e-09 -0.0013044 0)
(-3.51643e-09 -0.0013044 0)
(-6.1465e-09 -0.00130438 0)
(4.12038e-11 -0.00130437 0)
(6.28187e-09 -0.00130438 0)
(3.60561e-09 -0.0013044 0)
(-3.50624e-09 -0.0013044 0)
(-6.14332e-09 -0.00130438 0)
(3.91e-11 -0.00130437 0)
(6.27574e-09 -0.00130438 0)
(3.59429e-09 -0.0013044 0)
(-3.4887e-09 -0.0013044 0)
(-6.12609e-09 -0.00130438 0)
(3.71963e-11 -0.00130437 0)
(6.25564e-09 -0.00130438 0)
(3.57553e-09 -0.0013044 0)
(-3.46485e-09 -0.0013044 0)
(-6.09671e-09 -0.00130438 0)
(3.54881e-11 -0.00130437 0)
(6.22348e-09 -0.00130438 0)
(3.55038e-09 -0.0013044 0)
(-3.43578e-09 -0.0013044 0)
(-6.05709e-09 -0.00130438 0)
(3.39699e-11 -0.00130437 0)
(6.18119e-09 -0.00130438 0)
(3.51996e-09 -0.0013044 0)
(-3.40256e-09 -0.0013044 0)
(-6.00917e-09 -0.00130438 0)
(3.26358e-11 -0.00130437 0)
(6.13073e-09 -0.00130438 0)
(3.48535e-09 -0.0013044 0)
(-3.36629e-09 -0.0013044 0)
(-5.9549e-09 -0.00130438 0)
(3.14786e-11 -0.00130437 0)
(6.07408e-09 -0.00130438 0)
(3.44769e-09 -0.0013044 0)
(-3.3281e-09 -0.0013044 0)
(-5.8963e-09 -0.00130438 0)
(3.04907e-11 -0.00130437 0)
(6.01325e-09 -0.00130438 0)
(3.40813e-09 -0.0013044 0)
(-3.28913e-09 -0.0013044 0)
(-5.83539e-09 -0.00130438 0)
(2.96633e-11 -0.00130437 0)
(5.95029e-09 -0.00130438 0)
(3.36783e-09 -0.0013044 0)
(-3.25057e-09 -0.0013044 0)
(-5.77426e-09 -0.00130438 0)
(2.89865e-11 -0.00130437 0)
(5.88732e-09 -0.00130438 0)
(3.328e-09 -0.0013044 0)
(-3.21361e-09 -0.0013044 0)
(-5.71505e-09 -0.00130438 0)
(2.84497e-11 -0.00130437 0)
(5.82648e-09 -0.00130438 0)
(3.28987e-09 -0.0013044 0)
(-3.17951e-09 -0.0013044 0)
(-5.65994e-09 -0.00130438 0)
(2.80408e-11 -0.00130437 0)
(5.76998e-09 -0.00130438 0)
(3.25472e-09 -0.0013044 0)
(-3.14956e-09 -0.0013044 0)
(-5.61122e-09 -0.00130438 0)
(2.77464e-11 -0.00130437 0)
(5.72012e-09 -0.00130438 0)
(3.22388e-09 -0.0013044 0)
(-3.1252e-09 -0.0013044 0)
(-5.57137e-09 -0.00130438 0)
(2.75517e-11 -0.00130437 0)
(5.67939e-09 -0.00130438 0)
(3.1988e-09 -0.0013044 0)
(-3.10812e-09 -0.0013044 0)
(-5.54332e-09 -0.00130438 0)
(2.74397e-11 -0.00130437 0)
(5.65075e-09 -0.00130438 0)
(3.18121e-09 -0.0013044 0)
(-3.09991e-09 -0.0013044 0)
(-5.52983e-09 -0.00130438 0)
(2.73918e-11 -0.00130437 0)
(5.63698e-09 -0.00130438 0)
(3.17275e-09 -0.0013044 0)
)
;

boundaryField
{
    BotWall
    {
        type            fixedValue;
        value           uniform (0 0 0);
    }
    FreeStream
    {
        type            zeroGradient;
    }
    FrontNBack
    {
        type            empty;
    }
    LeftSide
    {
        type            symmetryPlane;
    }
    RightSide
    {
        type            symmetryPlane;
    }
}


// ************************************************************************* //
