/*--------------------------------*- C++ -*----------------------------------*\
| =========                 |                                                 |
| \\      /  F ield         | OpenFOAM: The Open Source CFD Toolbox           |
|  \\    /   O peration     | Version:  2.4.0                                 |
|   \\  /    A nd           | Web:      www.OpenFOAM.org                      |
|    \\/     M anipulation  |                                                 |
\*---------------------------------------------------------------------------*/
FoamFile
{
    version     2.0;
    format      ascii;
    class       volScalarField;
    location    "2.4";
    object      H;
}
// * * * * * * * * * * * * * * * * * * * * * * * * * * * * * * * * * * * * * //

dimensions      [0 2 -2 0 0 0 0];

internalField   nonuniform List<scalar> 
125
(
-11.2562
-11.2551
-11.2541
-11.2547
-11.2562
-10.8625
-10.8615
-10.8606
-10.8612
-10.8625
-10.4597
-10.4587
-10.4579
-10.4584
-10.4597
-10.0481
-10.0472
-10.0463
-10.0469
-10.0481
-9.62806
-9.62714
-9.62636
-9.62689
-9.62804
-9.19993
-9.19906
-9.19832
-9.19882
-9.19991
-8.76416
-8.76335
-8.76265
-8.76312
-8.76415
-8.32121
-8.32044
-8.31978
-8.32023
-8.32119
-7.87153
-7.87081
-7.8702
-7.87061
-7.87152
-7.41563
-7.41496
-7.41438
-7.41477
-7.41561
-6.95402
-6.95339
-6.95286
-6.95322
-6.954
-6.48724
-6.48666
-6.48617
-6.48651
-6.48723
-6.01587
-6.01534
-6.01488
-6.01519
-6.01585
-5.54049
-5.54
-5.53959
-5.53987
-5.54047
-5.06172
-5.06127
-5.0609
-5.06115
-5.0617
-4.58019
-4.57979
-4.57945
-4.57968
-4.58017
-4.09656
-4.09621
-4.09591
-4.09611
-4.09655
-3.61153
-3.61122
-3.61096
-3.61113
-3.61152
-3.12579
-3.12552
-3.12529
-3.12545
-3.12578
-2.64006
-2.63984
-2.63965
-2.63978
-2.64005
-2.1551
-2.15492
-2.15476
-2.15487
-2.15509
-1.67167
-1.67153
-1.67141
-1.67149
-1.67167
-1.19056
-1.19046
-1.19037
-1.19043
-1.19056
-0.712569
-0.712509
-0.712458
-0.712493
-0.712567
-0.238524
-0.238504
-0.238487
-0.238499
-0.238523
)
;

boundaryField
{
    BotWall
    {
        type            zeroGradient;
    }
    FreeStream
    {
        type            zeroGradient;
    }
    FrontNBack
    {
        type            empty;
    }
    LeftSide
    {
        type            symmetryPlane;
    }
    RightSide
    {
        type            symmetryPlane;
    }
    procBoundary3to2
    {
        type            processor;
        value           nonuniform List<scalar> 5(-11.6394 -11.6383 -11.6373 -11.6379 -11.6394);
    }
}


// ************************************************************************* //
