/*--------------------------------*- C++ -*----------------------------------*\
| =========                 |                                                 |
| \\      /  F ield         | OpenFOAM: The Open Source CFD Toolbox           |
|  \\    /   O peration     | Version:  2.4.0                                 |
|   \\  /    A nd           | Web:      www.OpenFOAM.org                      |
|    \\/     M anipulation  |                                                 |
\*---------------------------------------------------------------------------*/
FoamFile
{
    version     2.0;
    format      ascii;
    class       volScalarField;
    location    "2.4";
    object      p;
}
// * * * * * * * * * * * * * * * * * * * * * * * * * * * * * * * * * * * * * //

dimensions      [1 -1 -2 0 0 0 0];

internalField   nonuniform List<scalar> 
125
(
-0.0577062
-0.0577062
-0.0577062
-0.0577062
-0.0577062
-0.058841
-0.058841
-0.058841
-0.058841
-0.058841
-0.0599884
-0.0599884
-0.0599884
-0.0599884
-0.0599884
-0.0611487
-0.0611487
-0.0611487
-0.0611487
-0.0611487
-0.0623219
-0.0623219
-0.0623219
-0.0623219
-0.0623219
-0.0635082
-0.0635082
-0.0635082
-0.0635082
-0.0635082
-0.0647077
-0.0647077
-0.0647077
-0.0647077
-0.0647077
-0.0659206
-0.0659206
-0.0659206
-0.0659206
-0.0659206
-0.067147
-0.067147
-0.067147
-0.067147
-0.067147
-0.0683872
-0.0683872
-0.0683872
-0.0683872
-0.0683872
-0.0696411
-0.0696411
-0.0696411
-0.0696411
-0.0696411
-0.0709091
-0.0709091
-0.0709091
-0.0709091
-0.0709091
-0.0721912
-0.0721912
-0.0721912
-0.0721912
-0.0721912
-0.0734876
-0.0734876
-0.0734876
-0.0734876
-0.0734876
-0.0747985
-0.0747985
-0.0747985
-0.0747985
-0.0747985
-0.076124
-0.076124
-0.076124
-0.076124
-0.076124
-0.0774643
-0.0774643
-0.0774643
-0.0774643
-0.0774643
-0.0788196
-0.0788196
-0.0788196
-0.0788196
-0.0788196
-0.0801899
-0.0801899
-0.0801899
-0.0801899
-0.0801899
-0.0815756
-0.0815756
-0.0815756
-0.0815756
-0.0815756
-0.0829767
-0.0829767
-0.0829767
-0.0829767
-0.0829767
-0.0843935
-0.0843935
-0.0843935
-0.0843935
-0.0843935
-0.0858261
-0.0858261
-0.0858261
-0.0858261
-0.0858261
-0.0872747
-0.0872747
-0.0872747
-0.0872747
-0.0872747
-0.0887394
-0.0887394
-0.0887394
-0.0887394
-0.0887394
)
;

boundaryField
{
    BotWall
    {
        type            calculated;
        value           nonuniform 0();
    }
    FreeStream
    {
        type            calculated;
        value           nonuniform List<scalar> 5(-0.0894758 -0.0894758 -0.0894758 -0.0894758 -0.0894758);
    }
    FrontNBack
    {
        type            empty;
    }
    LeftSide
    {
        type            symmetryPlane;
    }
    RightSide
    {
        type            symmetryPlane;
    }
    procBoundary3to2
    {
        type            processor;
        value           nonuniform List<scalar> 5(-0.056584 -0.056584 -0.056584 -0.056584 -0.056584);
    }
}


// ************************************************************************* //
