/*--------------------------------*- C++ -*----------------------------------*\
| =========                 |                                                 |
| \\      /  F ield         | OpenFOAM: The Open Source CFD Toolbox           |
|  \\    /   O peration     | Version:  2.4.0                                 |
|   \\  /    A nd           | Web:      www.OpenFOAM.org                      |
|    \\/     M anipulation  |                                                 |
\*---------------------------------------------------------------------------*/
FoamFile
{
    version     2.0;
    format      ascii;
    class       volScalarField;
    location    "4.2";
    object      alpha1;
}
// * * * * * * * * * * * * * * * * * * * * * * * * * * * * * * * * * * * * * //

dimensions      [0 0 0 0 0 0 0];

internalField   nonuniform List<scalar> 
8000
(
1
1
0.999999
0.999999
0.999998
0.999998
0.999999
0.999999
0.999999
0.999998
0.999998
0.999998
0.999998
0.999998
0.999999
0.999998
0.999998
0.999996
0.999993
0.99999
0.999963
0.999835
0.999688
0.999688
0.999794
0.999952
0.999759
0.999079
0.997506
0.995842
0.99516
0.995701
0.998602
0.999933
0.957561
0.762967
0.371907
0.176686
0.107046
0.0609065
0.0252425
0.00766025
0.00234013
0.000629645
0.000142262
1.76351e-05
2.50824e-07
1.89649e-08
4.06801e-09
3.62001e-10
1
1
0.999999
0.999998
0.999998
0.999998
0.999998
0.999998
0.999998
0.999998
0.999998
0.999998
0.999998
0.999998
0.999998
0.999999
0.999999
0.999999
0.999999
0.999999
0.999999
0.999999
0.999999
0.999999
0.999999
0.999999
0.999999
0.999998
0.999995
0.999992
0.999997
0.999998
0.999998
1
1
1
0.988915
0.876437
0.679665
0.431448
0.21337
0.0951783
0.0432443
0.0192686
0.00601471
0.000714992
2.08438e-05
9.12154e-08
2.31384e-08
2.1616e-09
1
1
0.999999
0.999998
0.999997
0.999997
0.999998
0.999998
0.999998
0.999997
0.999997
0.999997
0.999997
0.999998
0.999998
0.999998
0.999999
0.999999
0.999999
0.999999
0.999999
0.999999
0.999999
0.999999
1
0.999999
0.999999
0.999998
0.999998
0.999998
0.999998
0.999998
0.999998
0.999997
0.999995
1
1
0.998318
0.946401
0.830547
0.533093
0.192055
0.0710699
0.0342189
0.0120912
0.00177022
0.000141956
1.362e-05
1.27134e-07
1.46388e-08
1
1
0.999999
0.999998
0.999997
0.999997
0.999997
0.999997
0.999997
0.999997
0.999996
0.999996
0.999997
0.999997
0.999998
0.999998
0.999998
0.999998
0.999998
0.999998
0.999998
0.999997
0.999997
0.999998
0.999998
0.999998
0.999996
0.999993
0.999991
0.999997
1
1
1
1
0.999989
0.98732
0.958478
0.919181
0.894004
0.832863
0.433813
0.0583734
0.0167325
0.0117736
0.00777282
0.0045949
0.00319208
0.00187285
0.000182094
7.37116e-05
1
1
0.999999
0.999998
0.999997
0.999997
0.999997
0.999997
0.999997
0.999996
0.999996
0.999996
0.999996
0.999997
0.999997
0.999997
0.999997
0.999997
0.999997
0.999997
0.999996
0.999994
0.99999
0.999995
0.999998
0.999998
0.999995
0.999989
0.99997
0.999929
0.976557
0.938266
0.886339
0.806774
0.769069
0.751695
0.496364
0.201485
0.0988125
0.079435
0.0452693
0.0181969
0.0283787
0.0435205
0.043529
0.0433369
0.0170488
0.0371419
0.0371603
0.0172998
1
1
0.999999
0.999998
0.999997
0.999997
0.999997
0.999997
0.999996
0.999996
0.999996
0.999996
0.999996
0.999997
0.999997
0.999993
0.999993
0.999994
0.999994
0.999995
0.999994
0.999994
0.999974
0.999858
0.963577
0.894693
0.818783
0.731299
0.588507
0.405087
0.272919
0.193726
0.135212
0.107841
0.0586307
0.0311535
0.0272971
0.0218755
0.00463129
0.00169407
0.00710923
0.0172186
0.00920429
0.0025408
0.00247529
0.00402234
0.00186738
0.00132488
0.000876297
0.000548098
1
1
0.999998
0.999998
0.999998
0.999997
0.999996
0.999996
0.999996
0.999996
0.999997
0.999994
0.999993
0.999994
0.999994
0.999994
0.999996
0.999996
0.999996
0.999996
0.999871
0.947316
0.660845
0.310545
0.198792
0.158647
0.101543
0.055239
0.031426
0.0251989
0.0278405
0.0127114
0.00355344
0.00322882
0.00806278
0.0114909
0.00177398
0.000456754
0.000311736
0.00140856
0.002787
0.000875718
0.000281532
9.51642e-05
6.6684e-05
5.40916e-05
2.7355e-05
1.53753e-05
1.07761e-05
7.40435e-06
1
0.999999
0.999998
0.999997
0.999997
0.999997
0.999997
0.999997
0.999996
0.999996
0.999996
0.999995
0.999993
0.999995
0.999994
0.999995
0.999995
1
0.999959
0.773531
0.126482
0.0708348
0.0388132
0.0211883
0.0116645
0.0109048
0.0169575
0.00502717
0.00128866
0.00121751
0.00122004
0.00227611
0.00355731
0.00118125
0.000422799
0.000266067
5.67974e-05
4.27893e-05
0.000106567
0.000205041
5.382e-05
5.75047e-06
1.85641e-06
1.55351e-06
1.00852e-06
3.51259e-07
1.58644e-07
1.07066e-07
7.75104e-08
5.77442e-08
1
1
0.999998
0.999997
0.999997
0.999996
0.999998
0.999997
0.999997
0.999996
0.999996
0.999995
0.999995
0.999994
0.999995
0.999996
1
0.960018
0.0795004
0.0555313
0.0029396
0.00177041
0.000737084
0.000621019
0.000409689
0.000409678
0.000485785
0.000894335
0.00100427
0.00142166
0.0014214
0.0010276
0.00151083
0.00260694
0.00306224
0.00269479
0.000671512
4.25517e-05
1.84064e-05
1.54099e-05
8.53616e-06
1.14393e-06
5.86292e-07
3.96861e-07
1.30328e-07
1.24597e-07
1.21479e-07
8.65314e-08
6.02307e-08
4.26963e-08
1
1
0.999998
0.999997
0.999997
0.999996
0.999996
0.999998
0.999997
0.999997
0.999997
0.999997
0.999996
0.999995
0.999998
0.999997
0.999996
0.999981
0.999282
0.999444
0.638598
0.102996
0.0240209
0.0137882
0.00424632
0.000986886
0.000477475
0.000321678
0.000307315
0.000307725
0.000410378
0.00041038
0.000412136
0.000597758
0.000845155
0.00262797
0.00277459
0.00277715
0.00118578
0.000127857
0.000610396
0.00118813
0.00118264
0.000508076
7.2882e-05
3.29826e-06
1.80877e-07
1.18473e-07
7.55598e-08
4.64441e-08
1
1
0.999998
0.999996
0.999996
0.999996
0.999996
0.999997
0.999997
0.999998
0.999998
0.999998
0.999998
0.999998
0.999998
0.999998
0.999998
0.999998
0.999999
0.999999
0.999959
0.999623
0.999273
0.944996
0.478996
0.0908114
0.0353649
0.0146229
0.00382186
0.00119596
0.000727252
0.000671618
0.000579986
0.000534284
0.000534947
0.00186065
0.0016799
0.000988653
0.000376049
0.00012559
0.000166544
0.000365682
0.00104842
0.00219404
0.00227401
0.00142363
0.000537833
0.00013395
2.46726e-05
3.08061e-06
1
1
0.999998
0.999996
0.999996
0.999996
0.999997
0.999998
0.999998
0.999998
0.999998
0.999998
0.999998
0.999998
0.999999
0.999999
0.999999
0.999999
0.999999
0.999999
0.999999
0.999999
0.999999
0.999999
0.999934
0.99802
0.98206
0.754986
0.224474
0.0685282
0.0441636
0.0196602
0.0106832
0.0066446
0.00426084
0.00324842
0.00237269
0.00157126
0.000878515
0.000450977
0.000274563
0.000276303
0.000363871
0.000872499
0.00227286
0.00227401
0.00227401
0.00201073
0.000890108
0.000195558
1
0.999999
0.999997
0.999996
0.999996
0.999997
0.999998
0.999998
0.999999
0.999999
0.999998
0.999998
0.999998
0.999998
0.999998
0.999998
0.999998
0.999999
0.999999
0.999999
0.999999
0.999999
0.999999
1
1
1
1
1
0.999927
0.987571
0.844882
0.463642
0.240684
0.160445
0.111997
0.0752773
0.0478459
0.0276187
0.0137717
0.00652581
0.0033516
0.00196825
0.00119555
0.00086114
0.00140832
0.00227401
0.00170762
0.000889342
0.00035266
0.000186969
1
0.999999
0.999997
0.999996
0.999997
0.999998
0.999998
0.999999
0.999999
0.999999
0.999999
0.999999
0.999999
0.999998
0.999998
0.999998
0.999998
0.999998
0.999998
0.999998
0.999998
0.999999
0.999999
0.999999
0.999999
0.999999
0.999999
1
1
1
1
0.999966
0.927912
0.774335
0.605109
0.474381
0.380857
0.29962
0.207028
0.10867
0.0417462
0.0124741
0.00317256
0.000863823
0.000502826
0.000424375
0.000235668
0.000143549
0.000228472
0.000675378
1
0.999999
0.999997
0.999996
0.999997
0.999998
0.999999
0.999999
0.999999
0.999999
0.999999
0.999999
0.999999
0.999999
0.999999
0.999999
0.999999
0.999999
0.999999
0.999999
0.999998
0.999998
0.999998
0.999998
0.999998
0.999998
0.999998
0.999999
0.999999
0.999999
0.999996
0.999998
0.999998
0.990793
0.922734
0.836057
0.751985
0.660609
0.540787
0.34193
0.142791
0.04723
0.0153807
0.00462904
0.001275
0.000380075
0.000155444
0.000107591
0.000241578
0.00117895
1
0.999999
0.999997
0.999997
0.999998
0.999999
0.999999
0.999999
0.999999
0.999999
0.999999
0.999999
0.999999
0.999999
0.999999
1
1
1
1
1
0.999999
0.999998
0.999997
0.999997
0.999996
0.999994
0.999996
0.999999
0.999999
0.999993
0.999975
0.999946
0.954008
0.857844
0.764707
0.658735
0.551493
0.444994
0.327234
0.188905
0.0775771
0.0254917
0.00837894
0.00313986
0.00108604
0.000346273
0.000162038
6.25238e-05
0.000130656
0.000462426
1
0.999999
0.999997
0.999997
0.999998
0.999999
0.999999
0.999999
0.999999
0.999999
0.999999
0.999999
0.999999
0.999999
1
1
1
1
1
1
1
0.999999
0.999998
0.999998
0.999991
0.99997
0.999932
0.999859
0.977586
0.903539
0.809009
0.698596
0.580745
0.447093
0.299922
0.174659
0.0950034
0.0518325
0.0286638
0.0152691
0.00740301
0.00320677
0.00137359
0.000827029
0.000504178
0.000248026
0.000124522
4.96592e-05
1.61681e-05
2.86201e-05
1
0.999999
0.999997
0.999997
0.999998
0.999999
0.999999
0.999999
0.999999
0.999999
0.999999
0.999999
1
1
1
1
1
1
0.999999
0.999979
0.999928
0.999826
0.999659
0.979917
0.885489
0.784178
0.676655
0.546094
0.405755
0.274003
0.162846
0.0896286
0.0499402
0.029906
0.0188556
0.0119185
0.00734703
0.00440947
0.00255604
0.00141795
0.000750828
0.000388456
0.000223788
0.000209518
0.000184233
0.000111541
6.04744e-05
2.61336e-05
4.41857e-06
2.75059e-06
1
0.999999
0.999997
0.999998
0.999998
0.999999
0.999999
0.999999
1
0.999999
0.999999
1
1.00003
1
0.999998
0.999894
0.999696
0.999372
0.952555
0.815719
0.665147
0.504835
0.351976
0.228763
0.134577
0.0754589
0.0440423
0.0268968
0.0161244
0.0092934
0.00532967
0.00328415
0.00226141
0.00162471
0.00108747
0.000634772
0.000328406
0.000159494
7.59279e-05
3.60624e-05
1.73413e-05
7.70063e-06
6.70326e-06
1.42513e-05
7.46769e-05
6.69712e-05
1.52952e-05
7.83444e-06
3.74516e-06
3.53541e-06
1
0.999999
0.999998
0.999998
0.999998
0.999998
0.999998
0.999999
0.999999
0.999999
1
0.998954
0.997305
0.99881
0.935574
0.584048
0.357979
0.149996
0.0727351
0.0416339
0.0248673
0.0139353
0.00723409
0.00346221
0.00162292
0.000909442
0.000659573
0.000500054
0.000365672
0.000247716
0.000140745
7.09385e-05
4.07098e-05
2.93243e-05
2.24066e-05
1.29602e-05
4.78574e-06
1.60211e-06
1.00316e-06
9.26795e-07
9.26388e-07
1.12251e-06
8.87395e-06
2.71755e-05
4.10154e-05
5.41138e-06
2.79979e-06
3.0867e-06
1.06785e-05
2.98617e-05
1.51683e-11
1.32694e-12
1.24304e-13
9.80586e-15
6.68479e-16
7.92362e-17
3.40207e-17
2.0019e-17
1.1618e-17
6.50773e-18
3.52292e-18
1.8486e-18
9.43321e-19
4.69608e-19
2.28757e-19
1.0934e-19
5.14097e-20
2.38333e-20
1.09173e-20
4.95097e-21
2.22681e-21
9.94944e-22
4.4225e-22
1.95808e-22
8.6441e-23
3.80774e-23
1.67457e-23
7.35487e-24
3.22686e-24
1.41442e-24
6.19472e-25
2.71115e-25
1.18585e-25
5.18446e-26
2.26578e-26
9.89864e-27
4.32261e-27
1.88653e-27
8.22705e-28
3.58405e-28
1.55893e-28
6.76218e-29
2.91877e-29
1.24966e-29
5.28973e-30
2.20883e-30
9.09365e-31
3.69189e-31
1.47561e-31
5.75729e-32
8.53727e-11
7.50023e-12
7.04558e-13
5.54353e-14
3.63641e-15
3.51131e-16
1.3734e-16
8.38449e-17
5.08222e-17
2.96473e-17
1.66688e-17
9.06417e-18
4.78516e-18
2.46152e-18
1.23805e-18
6.10737e-19
2.96336e-19
1.4179e-19
6.70572e-20
3.14129e-20
1.46037e-20
6.74928e-21
3.10562e-21
1.42463e-21
6.52209e-22
2.9825e-22
1.36325e-22
6.23167e-23
2.85e-23
1.30451e-23
5.97784e-24
2.74318e-24
1.26091e-24
5.80659e-25
2.67925e-25
1.2387e-25
5.73789e-26
2.66264e-26
1.23759e-26
5.76013e-27
2.68332e-27
1.24991e-27
5.81274e-28
2.69366e-28
1.2416e-28
5.68548e-29
2.58466e-29
1.16578e-29
5.21242e-30
2.30492e-30
4.92469e-10
4.32463e-11
3.99421e-12
3.08796e-13
1.97287e-14
1.67589e-15
6.21524e-16
4.05365e-16
2.6369e-16
1.64412e-16
9.84774e-17
5.69169e-17
3.1888e-17
1.73926e-17
9.27178e-18
4.84798e-18
2.49424e-18
1.26628e-18
6.35973e-19
3.16706e-19
1.56699e-19
7.7172e-20
3.78908e-20
1.85741e-20
9.1018e-21
4.4634e-21
2.19248e-21
1.07967e-21
5.33381e-22
2.64501e-22
1.31729e-22
6.59145e-23
3.31501e-23
1.67619e-23
8.5232e-24
4.35923e-24
2.24291e-24
1.16107e-24
6.04766e-25
3.16974e-25
1.6718e-25
8.8732e-26
4.73934e-26
2.54739e-26
1.37786e-26
7.49938e-27
4.1071e-27
2.26312e-27
1.25461e-27
6.99693e-28
9.68711e-06
2.00459e-06
6.03357e-07
1.43447e-07
2.86916e-08
7.62093e-09
3.55774e-09
1.05502e-09
1.63945e-10
1.32104e-11
6.13364e-13
2.03395e-14
1.60921e-15
9.10879e-16
6.71557e-16
4.87592e-16
3.46847e-16
2.42213e-16
1.66388e-16
1.12657e-16
7.53204e-17
4.98114e-17
3.26357e-17
2.12142e-17
1.36989e-17
8.79757e-18
5.62471e-18
3.58331e-18
2.27648e-18
1.44326e-18
9.13694e-19
5.77938e-19
3.65428e-19
2.31076e-19
1.46185e-19
9.2553e-20
5.86594e-20
3.72261e-20
2.366e-20
1.50631e-20
9.60768e-21
6.14024e-21
3.93248e-21
2.52409e-21
1.62383e-21
1.04715e-21
6.76927e-22
4.38699e-22
2.85038e-22
1.85679e-22
0.00384837
0.0014583
0.000691366
0.000274624
6.92469e-05
7.22415e-06
2.65943e-07
2.27424e-08
1.32448e-09
5.57093e-11
2.46248e-12
8.47023e-14
6.08688e-15
3.82696e-15
3.40482e-15
3.01418e-15
2.63651e-15
2.28101e-15
1.95347e-15
1.65695e-15
1.39256e-15
1.16001e-15
9.58061e-16
7.84768e-16
6.37754e-16
5.14385e-16
4.11922e-16
3.27653e-16
2.58985e-16
2.03511e-16
1.59056e-16
1.23695e-16
9.57591e-17
7.38254e-17
5.67017e-17
4.34015e-17
3.31191e-17
2.52032e-17
1.91322e-17
1.4492e-17
1.0956e-17
8.2688e-18
6.23141e-18
4.68998e-18
3.52595e-18
2.64837e-18
1.9877e-18
1.49094e-18
1.1178e-18
8.37764e-19
0.000273215
0.000139183
6.88784e-05
2.50924e-05
5.75157e-06
6.11943e-07
2.44887e-08
6.03203e-09
3.74277e-10
1.6581e-11
7.79203e-13
3.74684e-14
1.11205e-14
1.00141e-14
9.60312e-15
9.22026e-15
8.83597e-15
8.44242e-15
8.03821e-15
7.62533e-15
7.20726e-15
6.78772e-15
6.37021e-15
5.95774e-15
5.55282e-15
5.15753e-15
4.77363e-15
4.4026e-15
4.04571e-15
3.70404e-15
3.3785e-15
3.0698e-15
2.77852e-15
2.50505e-15
2.24962e-15
2.01233e-15
1.7931e-15
1.59167e-15
1.4076e-15
1.24031e-15
1.08905e-15
9.52957e-16
8.31105e-16
7.22513e-16
6.26175e-16
5.41079e-16
4.66224e-16
4.00639e-16
3.43392e-16
2.93604e-16
4.35706e-06
2.17123e-06
9.50916e-07
2.90812e-07
6.10196e-08
2.36167e-08
7.65682e-09
1.41719e-09
9.46287e-11
4.58644e-12
3.41546e-13
1.11324e-13
8.49605e-14
6.90147e-14
5.6388e-14
4.6778e-14
3.98289e-14
3.50502e-14
3.19172e-14
2.99473e-14
2.8743e-14
2.80048e-14
2.75244e-14
2.71673e-14
2.68529e-14
2.65365e-14
2.61955e-14
2.58206e-14
2.54088e-14
2.49611e-14
2.44793e-14
2.3966e-14
2.34234e-14
2.28538e-14
2.22592e-14
2.16421e-14
2.10049e-14
2.03504e-14
1.96814e-14
1.90004e-14
1.83097e-14
1.76114e-14
1.69077e-14
1.62008e-14
1.54927e-14
1.47858e-14
1.40823e-14
1.33844e-14
1.26942e-14
1.2014e-14
4.03393e-08
2.78165e-08
2.36361e-08
2.29107e-08
2.27698e-08
8.86352e-09
2.5965e-09
3.91728e-10
3.09125e-11
3.53053e-12
2.14537e-12
2.03424e-12
1.956e-12
1.84312e-12
1.69589e-12
1.52061e-12
1.32656e-12
1.12492e-12
9.27266e-13
7.43881e-13
5.82486e-13
4.47508e-13
3.4008e-13
2.58615e-13
1.99714e-13
1.59112e-13
1.32472e-13
1.15914e-13
1.06271e-13
1.01147e-13
9.88357e-14
9.81907e-14
9.84759e-14
9.92407e-14
1.00221e-13
1.01267e-13
1.02301e-13
1.03281e-13
1.04189e-13
1.05016e-13
1.05761e-13
1.06419e-13
1.0699e-13
1.07471e-13
1.0786e-13
1.08157e-13
1.0836e-13
1.08467e-13
1.08476e-13
1.08387e-13
3.03533e-08
2.25456e-08
1.91502e-08
1.63586e-08
1.15703e-08
4.47681e-09
1.25153e-09
1.74965e-10
2.22935e-11
9.11369e-12
9.11288e-12
9.83953e-12
1.05767e-11
1.12604e-11
1.18714e-11
1.24012e-11
1.28521e-11
1.32349e-11
1.35598e-11
1.38247e-11
1.40033e-11
1.40408e-11
1.38622e-11
1.33922e-11
1.25827e-11
1.14355e-11
1.00119e-11
8.42369e-12
6.80747e-12
5.29342e-12
3.97847e-12
2.91271e-12
2.10084e-12
1.51454e-12
1.10894e-12
8.36954e-13
6.58245e-13
5.42515e-13
4.68916e-13
4.23735e-13
3.97966e-13
3.85504e-13
3.82056e-13
3.8456e-13
3.90859e-13
3.99491e-13
4.09511e-13
4.20336e-13
4.31627e-13
4.43192e-13
4.27754e-08
3.18564e-08
2.21621e-08
1.6505e-08
1.17783e-08
5.37506e-09
1.66498e-09
2.89211e-10
4.27319e-11
1.60215e-11
1.612e-11
1.84792e-11
2.1239e-11
2.42497e-11
2.74886e-11
3.09378e-11
3.45822e-11
3.8418e-11
4.24597e-11
4.67377e-11
5.12837e-11
5.61015e-11
6.11331e-11
6.62348e-11
7.11799e-11
7.56991e-11
7.95466e-11
8.25671e-11
8.47253e-11
8.60753e-11
8.66721e-11
8.64675e-11
8.52437e-11
8.26349e-11
7.82459e-11
7.18304e-11
6.34576e-11
5.35906e-11
4.30311e-11
3.27397e-11
2.35971e-11
1.6197e-11
1.07457e-11
7.09328e-12
4.86193e-12
3.60383e-12
2.92521e-12
2.54625e-12
2.30293e-12
2.11709e-12
1.45292e-07
6.15295e-08
3.51508e-08
2.37532e-08
1.67296e-08
1.37579e-08
9.74432e-09
6.04646e-09
3.35048e-09
1.63209e-09
6.8324e-10
2.44927e-10
8.25544e-11
3.89449e-11
3.54099e-11
4.19484e-11
4.95665e-11
5.81718e-11
6.7843e-11
7.86807e-11
9.08184e-11
1.04426e-10
1.19692e-10
1.3679e-10
1.55823e-10
1.76782e-10
1.99521e-10
2.23797e-10
2.49331e-10
2.75892e-10
3.03317e-10
3.31462e-10
3.60082e-10
3.88716e-10
4.1667e-10
4.43143e-10
4.67466e-10
4.89304e-10
5.08653e-10
5.25457e-10
5.38811e-10
5.45966e-10
5.41741e-10
5.19246e-10
4.72533e-10
4.00522e-10
3.09982e-10
2.14889e-10
1.31384e-10
7.0888e-11
7.04472e-05
8.47834e-05
6.45676e-05
1.82238e-05
1.38908e-06
2.87129e-08
1.84775e-08
1.74064e-08
1.38363e-08
9.77139e-09
6.42104e-09
3.98171e-09
2.32623e-09
1.27583e-09
6.59195e-10
3.28192e-10
1.6865e-10
1.03868e-10
8.70984e-11
9.25834e-11
1.07911e-10
1.28243e-10
1.54226e-10
1.85055e-10
2.18939e-10
2.58174e-10
3.0344e-10
3.55367e-10
4.145e-10
4.81304e-10
5.56205e-10
6.39624e-10
7.31997e-10
8.33736e-10
9.45191e-10
1.06667e-09
1.19858e-09
1.34169e-09
1.49727e-09
1.66696e-09
1.85193e-09
2.05135e-09
2.26018e-09
2.46723e-09
2.65512e-09
2.80508e-09
2.90776e-09
2.97637e-09
3.04831e-09
3.15489e-09
0.000354918
0.00147614
0.000840566
0.000230719
3.37917e-05
3.43653e-06
2.91317e-07
2.19604e-08
2.16222e-08
1.94895e-08
1.58378e-08
1.17564e-08
8.14717e-09
5.32793e-09
3.28472e-09
1.90027e-09
1.0305e-09
5.31253e-10
2.75877e-10
1.65783e-10
1.33499e-10
1.39157e-10
1.6448e-10
2.00799e-10
2.44245e-10
2.95673e-10
3.56714e-10
4.30643e-10
5.22873e-10
6.25612e-10
7.45762e-10
8.85609e-10
1.04748e-09
1.2338e-09
1.44717e-09
1.69038e-09
1.96665e-09
2.27996e-09
2.6356e-09
3.04057e-09
3.50346e-09
4.03332e-09
4.63757e-09
5.31911e-09
6.0735e-09
6.88832e-09
7.74835e-09
8.65044e-09
9.62336e-09
1.07265e-08
0.001494
0.001514
0.001514
0.00128303
0.000506565
9.1049e-05
6.35478e-06
1.11999e-07
4.41867e-08
3.07533e-08
2.55324e-08
2.04635e-08
1.54002e-08
1.08861e-08
7.2027e-09
4.43595e-09
2.53121e-09
1.33798e-09
6.65691e-10
3.32291e-10
1.94486e-10
1.57315e-10
1.68833e-10
2.03924e-10
2.52069e-10
3.11213e-10
3.83017e-10
4.71806e-10
5.80081e-10
7.06616e-10
8.58702e-10
1.04454e-09
1.26359e-09
1.51936e-09
1.82035e-09
2.17277e-09
2.58338e-09
3.05971e-09
3.61063e-09
4.24719e-09
4.98371e-09
5.83872e-09
6.83515e-09
7.99887e-09
9.35504e-09
1.09236e-08
1.27177e-08
1.47507e-08
1.70547e-08
1.9707e-08
0.001514
0.001514
0.00148051
0.000773587
0.000266398
5.10596e-05
3.6666e-06
7.75616e-08
5.19014e-08
4.2645e-08
3.3928e-08
2.59142e-08
1.89693e-08
1.31662e-08
8.57257e-09
5.19341e-09
2.9104e-09
1.50717e-09
7.31746e-10
3.54223e-10
2.00597e-10
1.59697e-10
1.72288e-10
2.10584e-10
2.63591e-10
3.29314e-10
4.10311e-10
5.1083e-10
6.32407e-10
7.77719e-10
9.54242e-10
1.16908e-09
1.42649e-09
1.73311e-09
2.09845e-09
2.53386e-09
3.05059e-09
3.66089e-09
4.37796e-09
5.21595e-09
6.1902e-09
7.31826e-09
8.62191e-09
1.01301e-08
1.18819e-08
1.39303e-08
1.63454e-08
1.92078e-08
2.25924e-08
2.65762e-08
0.000739282
0.000492708
0.00027613
0.000111663
3.82065e-05
6.74609e-06
4.13378e-07
7.77902e-08
5.61175e-08
4.22402e-08
3.16791e-08
2.32293e-08
1.63348e-08
1.08556e-08
6.75363e-09
3.90557e-09
2.0913e-09
1.04141e-09
4.97148e-10
2.51948e-10
1.65226e-10
1.55205e-10
1.82108e-10
2.28177e-10
2.87663e-10
3.61061e-10
4.52261e-10
5.64506e-10
6.99715e-10
8.62088e-10
1.05843e-09
1.29504e-09
1.57886e-09
1.92029e-09
2.33212e-09
2.82886e-09
3.42741e-09
4.1473e-09
5.01065e-09
6.04142e-09
7.26385e-09
8.70005e-09
1.03675e-08
1.22748e-08
1.44112e-08
1.6741e-08
1.92547e-08
2.2113e-08
2.57085e-08
3.03671e-08
3.68735e-05
2.07846e-05
1.26717e-05
1.29059e-05
2.27904e-06
3.02037e-07
1.43482e-07
7.49298e-08
5.12561e-08
3.68457e-08
2.70663e-08
1.92274e-08
1.29984e-08
8.29505e-09
4.95818e-09
2.76197e-09
1.43321e-09
7.02144e-10
3.43202e-10
1.93477e-10
1.50758e-10
1.59758e-10
1.95126e-10
2.46213e-10
3.10785e-10
3.90836e-10
4.90337e-10
6.11737e-10
7.57648e-10
9.32222e-10
1.14192e-09
1.39362e-09
1.69644e-09
2.06252e-09
2.50683e-09
3.0481e-09
3.70996e-09
4.52223e-09
5.52236e-09
6.75653e-09
8.27927e-09
1.01507e-08
1.24311e-08
1.51683e-08
1.83484e-08
2.1766e-08
2.49156e-08
2.73388e-08
2.95035e-08
3.29689e-08
2.74838e-06
2.74619e-06
3.08082e-06
7.28356e-06
1.34403e-06
2.00831e-07
1.27878e-07
7.88861e-08
5.7157e-08
4.35246e-08
2.95683e-08
1.97216e-08
1.26961e-08
7.69404e-09
4.42569e-09
2.41671e-09
1.25368e-09
6.29842e-10
3.25986e-10
1.97869e-10
1.59853e-10
1.67213e-10
1.99458e-10
2.48039e-10
3.11579e-10
3.92176e-10
4.93302e-10
6.17167e-10
7.66395e-10
9.44666e-10
1.15859e-09
1.41576e-09
1.7262e-09
2.10214e-09
2.56019e-09
3.12275e-09
3.81963e-09
4.69097e-09
5.79165e-09
7.19655e-09
9.00632e-09
1.1352e-08
1.43979e-08
1.83405e-08
2.33575e-08
2.93606e-08
3.54819e-08
3.17194e-08
4.05944e-08
3.58779e-08
7.40867e-06
1.27042e-05
7.95803e-06
3.8345e-06
1.20936e-06
2.51849e-07
1.31895e-07
9.18389e-08
7.58244e-08
7.13549e-08
4.87367e-08
3.2427e-08
2.30077e-08
1.41883e-08
8.23304e-09
3.82272e-09
2.1149e-09
1.24931e-09
7.40555e-10
4.69286e-10
3.36307e-10
2.78625e-10
2.64187e-10
2.7843e-10
3.16324e-10
3.77346e-10
4.62674e-10
5.73502e-10
7.11394e-10
8.78953e-10
1.08178e-09
1.32694e-09
1.62363e-09
1.98407e-09
2.42475e-09
2.96833e-09
3.64654e-09
4.50395e-09
5.60449e-09
7.04067e-09
8.94616e-09
1.15116e-08
1.50039e-08
1.97913e-08
2.63435e-08
3.50248e-08
3.90462e-08
6.04007e-08
5.88034e-08
4.87605e-08
6.09447e-05
8.49144e-05
1.58383e-05
4.20115e-06
1.56192e-06
3.62525e-07
2.99497e-07
3.96858e-07
9.22404e-08
9.1677e-08
5.87654e-08
3.54824e-08
3.45851e-08
3.08115e-08
2.54584e-08
2.12129e-08
1.47659e-08
7.73761e-09
5.42544e-09
3.81137e-09
2.48722e-09
1.59807e-09
1.07801e-09
7.97125e-10
6.54847e-10
5.92431e-10
5.82118e-10
6.13631e-10
6.84185e-10
7.93753e-10
9.44609e-10
1.14059e-09
1.38756e-09
1.69429e-09
2.0735e-09
2.54364e-09
3.13151e-09
3.87597e-09
4.83413e-09
6.09097e-09
7.77374e-09
1.00724e-08
1.32679e-08
1.77738e-08
2.41825e-08
3.32025e-08
3.99684e-08
6.42424e-08
6.13272e-08
8.85601e-08
2.14513e-32
1.37257e-32
8.68886e-33
5.43162e-33
3.34775e-33
2.02996e-33
1.20755e-33
7.02313e-34
3.97753e-34
2.1816e-34
1.14865e-34
5.71925e-35
2.63147e-35
1.08619e-35
3.86068e-36
1.10312e-36
2.18805e-37
7.23558e-41
5.13052e-41
3.63725e-41
2.57811e-41
1.827e-41
1.29443e-41
9.16875e-42
6.49274e-42
4.59647e-42
3.25303e-42
2.30151e-42
1.62775e-42
1.15081e-42
8.13306e-43
5.74546e-43
4.05702e-43
2.86346e-43
2.02007e-43
1.42437e-43
1.0038e-43
7.07019e-44
4.97695e-44
3.50131e-44
2.46164e-44
1.72955e-44
1.21435e-44
8.52017e-45
5.97356e-45
4.18494e-45
2.92959e-45
2.04916e-45
1.43214e-45
1.00007e-45
6.97751e-46
4.86398e-46
3.38766e-46
2.35734e-46
1.63893e-46
1.13846e-46
7.90149e-47
5.47961e-47
3.79723e-47
2.62967e-47
1.82016e-47
1.25941e-47
8.71322e-48
6.02955e-48
4.17513e-48
2.89451e-48
2.01052e-48
1.40044e-48
9.79342e-49
6.88522e-49
4.87444e-49
3.48151e-49
2.51383e-49
1.83882e-49
1.36534e-49
1.03077e-49
7.9213e-50
6.19925e-50
4.93916e-50
4.00218e-50
3.29292e-50
2.74573e-50
2.31536e-50
1.97041e-50
1.68903e-50
1.45588e-50
1.26005e-50
1.09372e-50
9.51168e-51
8.28144e-51
7.21415e-51
6.28472e-51
5.47326e-51
4.76363e-51
4.14249e-51
3.59866e-51
3.12258e-51
2.70602e-51
2.34182e-51
2.02371e-51
1.74619e-51
1.50438e-51
1.29398e-51
1.11119e-51
9.52616e-52
8.15278e-52
6.96528e-52
5.94023e-52
5.05694e-52
4.29717e-52
3.64481e-52
3.08571e-52
2.60743e-52
2.19907e-52
1.85107e-52
1.55509e-52
1.30385e-52
1.09101e-52
9.11062e-53
7.59239e-53
6.31407e-53
5.24e-53
4.33945e-53
3.58601e-53
2.957e-53
2.43302e-53
1.9975e-53
1.63632e-53
1.33747e-53
1.09074e-53
8.87514e-54
7.20514e-54
5.83597e-54
4.71606e-54
3.80217e-54
3.05817e-54
2.45395e-54
1.96443e-54
1.56881e-54
1.24985e-54
9.93345e-55
7.87575e-55
6.2292e-55
4.91493e-55
3.86852e-55
3.03748e-55
2.37914e-55
1.85894e-55
1.44892e-55
1.12657e-55
8.73789e-56
6.76063e-56
5.21796e-56
4.01742e-56
3.0855e-56
2.36395e-56
1.80669e-56
1.37742e-56
1.04758e-56
7.94779e-57
6.01518e-57
4.54148e-57
3.42055e-57
2.5701e-57
1.92648e-57
1.44061e-57
1.07473e-57
7.99889e-58
5.9395e-58
4.40016e-58
3.25237e-58
2.39858e-58
1.76499e-58
1.29592e-58
9.4944e-59
6.94114e-59
5.06387e-59
3.68671e-59
2.67864e-59
1.94231e-59
1.4056e-59
1.01523e-59
7.31865e-60
5.26602e-60
3.78208e-60
2.71133e-60
1.94021e-60
1.38593e-60
9.88267e-61
7.03489e-61
4.99922e-61
3.54664e-61
2.51196e-61
1.77625e-61
1.25401e-61
8.83919e-62
6.22087e-62
4.37148e-62
3.06729e-62
2.14901e-62
1.50344e-62
1.0503e-62
7.32692e-63
5.1041e-63
3.55062e-63
2.46649e-63
1.711e-63
1.18527e-63
8.19904e-64
5.66333e-64
3.90625e-64
2.69034e-64
1.84999e-64
1.27016e-64
8.69848e-65
5.941e-65
4.04611e-65
2.74728e-65
1.85942e-65
1.25422e-65
8.42946e-66
5.64373e-66
3.76337e-66
2.49878e-66
1.65164e-66
1.08648e-66
7.11085e-67
4.629e-67
2.99625e-67
1.92772e-67
1.23234e-67
7.82489e-68
4.93306e-68
3.08657e-68
1.91594e-68
1.17939e-68
7.19654e-69
4.35111e-69
2.60558e-69
1.54473e-69
9.0628e-70
5.25947e-70
3.01788e-70
1.71137e-70
9.58674e-71
5.30239e-71
2.89424e-71
1.55826e-71
8.27106e-72
4.32583e-72
2.22806e-72
1.12952e-72
5.63276e-73
2.76159e-73
1.33029e-73
6.29243e-74
2.92079e-74
1.32958e-74
5.93158e-75
2.59164e-75
1.10822e-75
4.63464e-76
1.89421e-76
7.56029e-77
2.94447e-77
1.11811e-77
4.13627e-78
1.48933e-78
5.21462e-79
1.77366e-79
5.85425e-80
1.87295e-80
5.80096e-81
1.73709e-81
5.02213e-82
1.39973e-82
3.75491e-83
9.67835e-84
2.3924e-84
5.65984e-85
1.27856e-85
2.75094e-86
5.62149e-87
1.08753e-87
1.98466e-88
3.40264e-89
5.45544e-90
8.13679e-91
1.12219e-91
1.42107e-92
1.63861e-93
1.70325e-94
1.57626e-95
1.27846e-96
8.90171e-98
5.17273e-99
2.40743e-100
8.40575e-102
1.94778e-103
2.22945e-105
1.00634e-30
6.84775e-31
4.63012e-31
3.10443e-31
2.06166e-31
1.35409e-31
8.77927e-32
5.60584e-32
3.51487e-32
2.1551e-32
1.28415e-32
7.36608e-33
4.01228e-33
2.03411e-33
9.27758e-34
3.54297e-34
8.45853e-35
4.06265e-40
2.92474e-40
2.10574e-40
1.51619e-40
1.09176e-40
7.86171e-41
5.66137e-41
4.07692e-41
2.93591e-41
2.1142e-41
1.52243e-41
1.09625e-41
7.8933e-42
5.68296e-42
4.09121e-42
2.945e-42
2.11967e-42
1.52543e-42
1.09763e-42
7.89676e-43
5.68024e-43
4.08509e-43
2.9373e-43
2.11155e-43
1.51758e-43
1.09043e-43
7.83302e-44
5.62525e-44
4.03858e-44
2.89856e-44
2.07969e-44
1.49166e-44
1.06953e-44
7.66577e-45
5.49232e-45
3.93356e-45
2.81604e-45
2.01516e-45
1.44143e-45
1.03057e-45
7.36486e-46
5.26068e-46
3.75583e-46
2.6801e-46
1.91148e-46
1.36257e-46
9.7076e-47
6.91231e-47
4.91915e-47
3.4987e-47
2.48698e-47
1.76678e-47
1.2544e-47
8.90087e-48
6.31212e-48
4.4737e-48
3.16894e-48
2.2435e-48
1.5875e-48
1.1228e-48
7.93791e-49
5.61001e-49
3.96381e-49
2.80032e-49
1.97838e-49
1.39798e-49
9.88293e-50
6.9917e-50
4.95158e-50
3.51196e-50
2.49582e-50
1.77823e-50
1.27105e-50
9.12144e-51
6.57745e-51
4.77016e-51
3.48253e-51
2.56181e-51
1.90048e-51
1.4229e-51
1.0758e-51
8.21652e-52
6.33999e-52
4.9415e-52
3.88877e-52
3.08791e-52
2.47205e-52
1.99335e-52
1.61737e-52
1.31917e-52
1.08054e-52
8.88036e-53
7.31677e-53
6.03932e-53
4.99068e-53
4.1266e-53
3.41257e-53
2.82132e-53
2.33108e-53
1.92429e-53
1.58668e-53
1.30656e-53
1.07426e-53
8.81808e-54
7.22551e-54
5.90946e-54
4.82364e-54
3.92934e-54
3.19412e-54
2.59086e-54
2.09689e-54
1.6933e-54
1.36429e-54
1.09665e-54
8.79437e-55
7.03564e-55
5.61518e-55
4.47078e-55
3.55099e-55
2.81349e-55
2.22364e-55
1.7531e-55
1.37868e-55
1.08152e-55
8.4629e-56
6.60561e-56
5.14301e-56
3.99426e-56
3.09431e-56
2.39108e-56
1.84301e-56
1.41698e-56
1.08667e-56
8.31262e-57
6.34277e-57
4.82751e-57
3.66498e-57
2.77542e-57
2.09654e-57
1.57976e-57
1.18739e-57
8.90248e-58
6.65808e-58
4.96719e-58
3.69659e-58
2.74426e-58
2.03231e-58
1.50141e-58
1.10654e-58
8.13579e-59
5.96779e-59
4.36746e-59
3.18905e-59
2.32334e-59
1.68886e-59
1.22495e-59
8.86558e-60
6.40287e-60
4.61464e-60
3.31906e-60
2.38244e-60
1.70677e-60
1.22037e-60
8.70933e-61
6.20394e-61
4.41118e-61
3.13081e-61
2.21813e-61
1.56875e-61
1.10756e-61
7.80618e-62
5.49257e-62
3.85823e-62
2.70572e-62
1.89439e-62
1.32421e-62
9.24175e-63
6.44007e-63
4.48123e-63
3.11365e-63
2.16014e-63
1.49638e-63
1.03506e-63
7.15102e-64
4.93355e-64
3.39861e-64
2.33767e-64
1.60542e-64
1.10077e-64
7.53502e-65
5.14893e-65
3.51204e-65
2.39095e-65
1.62444e-65
1.10131e-65
7.44951e-66
5.02692e-66
3.38351e-66
2.27121e-66
1.52021e-66
1.01446e-66
6.74796e-67
4.47347e-67
2.9551e-67
1.94479e-67
1.27486e-67
8.32242e-68
5.40929e-68
3.49972e-68
2.25329e-68
1.44335e-68
9.1955e-69
5.8249e-69
3.66749e-69
2.2944e-69
1.42572e-69
8.7965e-70
5.3868e-70
3.27292e-70
1.97223e-70
1.17824e-70
6.97571e-71
4.09124e-71
2.37606e-71
1.36589e-71
7.76867e-72
4.36978e-72
2.42972e-72
1.33485e-72
7.24218e-73
3.87835e-73
2.04896e-73
1.06731e-73
5.47867e-74
2.76973e-74
1.37822e-74
6.74622e-75
3.2463e-75
1.53471e-75
7.12337e-76
3.24396e-76
1.44842e-76
6.33635e-77
2.71391e-77
1.13723e-77
4.65876e-78
1.86437e-78
7.28266e-79
2.77453e-79
1.03005e-79
3.72309e-80
1.30892e-80
4.47143e-81
1.48261e-81
4.76596e-82
1.48344e-82
4.46489e-83
1.29764e-83
3.63617e-84
9.80802e-85
2.54221e-85
6.31999e-86
1.50381e-86
3.41704e-87
7.39556e-88
1.52025e-88
2.95855e-89
5.43106e-90
9.36591e-91
1.51031e-91
2.26543e-92
3.14181e-93
4.00038e-94
4.63757e-95
4.84596e-96
4.50791e-97
3.67484e-98
2.57158e-99
1.50171e-100
7.02244e-102
2.46301e-103
5.72937e-105
6.57999e-107
3.92526e-28
3.00163e-28
2.29525e-28
1.75501e-28
1.34185e-28
1.02588e-28
7.84265e-29
5.99503e-29
4.58229e-29
3.50212e-29
2.6763e-29
2.04498e-29
1.5624e-29
1.19355e-29
9.11649e-30
6.96228e-30
5.31629e-30
4.05877e-30
3.09818e-30
2.36454e-30
1.80432e-30
1.37657e-30
1.05003e-30
8.00791e-31
6.10582e-31
4.6545e-31
3.54733e-31
2.70288e-31
2.05893e-31
1.568e-31
1.1938e-31
9.08648e-32
6.91408e-32
5.25949e-32
3.99962e-32
3.04057e-32
2.31073e-32
1.75549e-32
1.3332e-32
1.01213e-32
7.68109e-33
5.827e-33
4.41876e-33
3.34954e-33
2.53803e-33
1.92233e-33
1.45538e-33
1.10138e-33
8.33126e-34
6.29922e-34
4.76062e-34
3.59614e-34
2.7152e-34
2.04905e-34
1.54557e-34
1.16521e-34
8.77991e-35
6.61221e-35
4.977e-35
3.74411e-35
2.81504e-35
2.11529e-35
1.58854e-35
1.19225e-35
8.94279e-36
6.70358e-36
5.02186e-36
3.75959e-36
2.81275e-36
2.10295e-36
1.57119e-36