/*--------------------------------*- C++ -*----------------------------------*\
| =========                 |                                                 |
| \\      /  F ield         | OpenFOAM: The Open Source CFD Toolbox           |
|  \\    /   O peration     | Version:  2.4.0                                 |
|   \\  /    A nd           | Web:      www.OpenFOAM.org                      |
|    \\/     M anipulation  |                                                 |
\*---------------------------------------------------------------------------*/
FoamFile
{
    version     2.0;
    format      ascii;
    class       volScalarField;
    location    "4.8";
    object      alpha1;
}
// * * * * * * * * * * * * * * * * * * * * * * * * * * * * * * * * * * * * * //

dimensions      [0 0 0 0 0 0 0];

internalField   nonuniform List<scalar> 
8000
(
1
0.999998
0.999992
0.999993
0.999998
1
1
1
1
1
1
1
1
1
1
0.999999
0.999999
0.999999
0.999999
0.999998
0.999998
0.999998
0.999998
0.99984
0.920463
0.375945
0.0383512
0.00272851
0.000260519
3.08724e-05
5.12334e-06
2.55202e-06
1.67177e-06
1.20359e-06
9.44795e-07
7.50159e-07
6.23576e-07
5.4857e-07
4.91202e-07
4.40925e-07
3.95517e-07
3.54562e-07
3.17513e-07
1.74916e-07
4.72264e-07
2.18659e-07
1.9024e-07
1.57162e-07
1.33356e-07
1.22428e-07
1
0.999998
0.999995
0.999997
1
1
1
1
1
1
1
1
1
1
1
1
0.999999
0.999999
0.999999
0.999998
0.999998
0.999984
0.999188
0.593156
0.0721337
0.00341056
0.000244489
2.68671e-05
4.81919e-06
2.11975e-06
1.69988e-06
1.32441e-06
9.2714e-07
7.41133e-07
6.20609e-07
5.30452e-07
4.57317e-07
3.96066e-07
3.43533e-07
2.98166e-07
2.58941e-07
2.25081e-07
1.95943e-07
1.7013e-07
1.05426e-07
1.0145e-07
9.58784e-08
6.30506e-08
1.43147e-07
7.17353e-08
1
0.999998
0.999997
0.999999
1
1
1
1
1
1
1
1
1
1
1
1
0.999999
0.999999
0.999999
0.999999
0.999824
0.863734
0.189076
0.00675494
0.000304912
2.6634e-05
4.47029e-06
2.23462e-06
1.55542e-06
1.17389e-06
9.75263e-07
8.71383e-07
6.06326e-07
4.82132e-07
3.96823e-07
3.29751e-07
2.74689e-07
2.29627e-07
1.92876e-07
1.62921e-07
1.38543e-07
1.18778e-07
1.02846e-07
9.00512e-08
7.97914e-08
7.16126e-08
6.51893e-08
6.02624e-08
4.99907e-08
4.89373e-08
1
0.999998
0.999997
0.999999
1
1
1
1
1
1
1
1
1
1
1
0.999999
0.999999
0.999998
0.999999
0.999331
0.532781
0.0282016
0.000664852
3.63724e-05
4.77709e-06
2.30583e-06
1.64774e-06
1.12546e-06
8.17231e-07
6.46608e-07
5.1799e-07
4.95487e-07
3.42672e-07
2.55967e-07
2.00954e-07
1.61583e-07
1.31941e-07
1.09295e-07
9.2002e-08
7.89002e-08
6.90972e-08
6.18853e-08
5.66959e-08
5.30657e-08
5.06241e-08
4.90813e-08
4.82124e-08
4.78414e-08
4.783e-08
4.80694e-08
1
0.999998
0.999997
0.999999
1
1
1
1
1
1
1
1
1
1
0.999999
0.999999
0.999998
0.99999
0.977954
0.212108
0.00304002
7.93478e-05
5.51848e-06
2.37457e-06
1.79362e-06
1.29105e-06
8.54755e-07
6.01318e-07
4.46076e-07
3.25261e-07
2.3064e-07
1.93725e-07
1.40212e-07
1.05495e-07
8.3583e-08
6.90756e-08
5.92644e-08
5.26988e-08
4.84734e-08
4.59466e-08
4.46394e-08
4.4191e-08
4.43309e-08
4.48574e-08
4.56214e-08
4.6514e-08
4.7457e-08
4.83959e-08
4.92927e-08
5.01208e-08
1
0.999998
0.999996
0.999999
1
1
1
1
1
1
1
1
1
1
0.999999
0.999998
0.999974
0.868768
0.0727656
0.000457731
1.06992e-05
2.51073e-06
1.65069e-06
1.20656e-06
8.54373e-07
5.60895e-07
3.746e-07
2.60238e-07
1.83058e-07
1.28551e-07
9.02448e-08
6.37728e-08
5.10982e-08
4.43958e-08
4.08273e-08
3.92182e-08
3.8913e-08
3.94597e-08
4.05378e-08
4.19107e-08
4.34105e-08
4.49277e-08
4.63914e-08
4.77559e-08
4.8995e-08
5.00927e-08
5.1041e-08
5.18376e-08
5.24819e-08
5.29754e-08
1
0.999998
0.999996
0.999999
1
1
1
1
1
1
1
1
1
0.999999
0.999998
0.999981
0.82781
0.0368862
0.000112977
3.51193e-06
1.54017e-06
9.82519e-07
6.5447e-07
4.40239e-07
2.89739e-07
1.88902e-07
1.2505e-07
8.49454e-08
6.03798e-08
4.59784e-08
3.81458e-08
3.44507e-08
3.35129e-08
3.43636e-08
3.60937e-08
3.81983e-08
4.04187e-08
4.2597e-08
4.46473e-08
4.65148e-08
4.8172e-08
4.96149e-08
5.0845e-08
5.18662e-08
5.26867e-08
5.33066e-08
5.37537e-08
5.40281e-08
5.41441e-08
5.41392e-08
1
0.999998
0.999996
0.999999
1
1
1
1
1
1
1
1
0.999999
0.999998
0.999998
0.927949
0.0457063
5.37549e-05
2.42448e-06
1.07196e-06
6.00371e-07
3.69977e-07
2.34237e-07
1.47346e-07
9.25476e-08
6.00616e-08
4.20092e-08
3.30168e-08
2.95126e-08
2.921e-08
3.06883e-08
3.30802e-08
3.58594e-08
3.8708e-08
4.14381e-08
4.39453e-08
4.618e-08
4.81277e-08
4.97943e-08
5.11895e-08
5.23259e-08
5.32215e-08
5.38806e-08
5.43322e-08
5.45734e-08
5.46314e-08
5.45127e-08
5.42584e-08
5.3905e-08
5.3487e-08
1
0.999998
0.999997
0.999999
1
1
1
1
1
1
1
0.999999
0.999998
0.999998
0.999373
0.198748
0.00012828
2.77922e-06
9.41895e-07
4.8957e-07
2.78169e-07
1.61587e-07
9.44149e-08
5.62945e-08
3.65515e-08
2.79006e-08
2.55284e-08
2.64849e-08
2.90742e-08
3.23577e-08
3.58193e-08
3.91714e-08
4.22555e-08
4.49932e-08
4.73585e-08
4.93576e-08
5.1013e-08
5.23511e-08
5.33969e-08
5.41655e-08
5.46826e-08
5.49489e-08
5.50209e-08
5.48557e-08
5.45291e-08
5.40762e-08
5.35424e-08
5.29717e-08
5.24088e-08
5.18957e-08
1
0.999998
0.999997
1
1
1
1
1
1
1
1
0.999999
0.999996
0.999964
0.610952
0.000853002
2.38327e-06
8.91602e-07
4.21812e-07
2.26152e-07
1.22585e-07
6.66775e-08
3.83084e-08
2.61733e-08
2.29609e-08
2.4177e-08
2.7351e-08
3.12419e-08
3.52431e-08
3.90452e-08
4.24843e-08
4.54824e-08
4.80206e-08
5.01181e-08
5.18125e-08
5.3143e-08
5.41416e-08
5.48302e-08
5.52345e-08
5.5377e-08
5.52837e-08
5.4922e-08
5.44231e-08
5.38066e-08
5.31248e-08
5.24326e-08
5.17826e-08
5.12206e-08
5.07835e-08
5.04983e-08
1
0.999998
0.999998
1
1
1
1
1
1
1
0.999999
0.999998
0.999997
0.999333
0.0953431
4.38038e-06
1.08768e-06
4.34574e-07
2.13281e-07
1.07464e-07
5.48677e-08
3.07679e-08
2.23844e-08
2.1938e-08
2.49394e-08
2.91695e-08
3.36484e-08
3.79409e-08
4.1829e-08
4.5203e-08
4.80298e-08
5.0331e-08
5.21564e-08
5.35602e-08
5.45856e-08
5.52631e-08
5.56034e-08
5.574e-08
5.54412e-08
5.49748e-08
5.43546e-08
5.36148e-08
5.28186e-08
5.20316e-08
5.13118e-08
5.07076e-08
5.02558e-08
4.99814e-08
4.98974e-08
5.00063e-08
1
0.999998
0.999998
1
1
1
1
1
1
1
0.999998
0.999995
0.999994
0.649328
0.000120262
9.0402e-07
3.62738e-07
1.62339e-07
7.91759e-08
3.94945e-08
2.35124e-08
2.00257e-08
2.21442e-08
2.63255e-08
3.10761e-08
3.58106e-08
4.0219e-08
4.40901e-08
4.73445e-08
4.99821e-08
5.20538e-08
5.36288e-08
5.47684e-08
5.55145e-08
5.58825e-08
5.60595e-08
5.5629e-08
5.50952e-08
5.44233e-08
5.36056e-08
5.2726e-08
5.18605e-08
5.10725e-08
5.04131e-08
4.99198e-08
4.9617e-08
4.95163e-08
4.96184e-08
4.99143e-08
5.03877e-08
1
0.999998
0.999999
1
1
1
1
1
1
0.999999
0.999997
0.999988
0.999994
0.19846
9.79678e-07
4.98e-07
1.97523e-07
9.26011e-08
4.47825e-08
2.54714e-08
2.12793e-08
2.36286e-08
2.81228e-08
3.30254e-08
3.77406e-08
4.20088e-08
4.56961e-08
4.87696e-08
5.12375e-08
5.31549e-08
5.45613e-08
5.55077e-08
5.60393e-08
5.63221e-08
5.60586e-08
5.52133e-08
5.46953e-08
5.38677e-08
5.29409e-08
5.20104e-08
5.1147e-08
5.04067e-08
4.98302e-08
4.94443e-08
4.92624e-08
4.92867e-08
4.95093e-08
4.9915e-08
5.04829e-08
5.11882e-08
1
0.999997
0.999999
1
1
1
1
1
0.999999
0.999999
0.999996
1
0.894373
6.06018e-05
4.034e-07
2.00915e-07
1.03097e-07
5.23645e-08
2.99996e-08
2.37851e-08
2.54467e-08
2.999e-08
3.51067e-08
3.99285e-08
4.4152e-08
4.76764e-08
5.04983e-08
5.26698e-08
5.42673e-08
5.53679e-08
5.60477e-08
5.63914e-08
5.73584e-08
5.51242e-08
5.48659e-08
5.43011e-08
5.34185e-08
5.24573e-08
5.1531e-08
5.07036e-08
5.00206e-08
4.9513e-08
4.91989e-08
4.90846e-08
4.91666e-08
4.94336e-08
4.98687e-08
5.04507e-08
5.11562e-08
5.19605e-08
1
0.999997
0.999999
1
1
1
1
0.999999
0.999999
0.999998
0.999993
1
0.494451
3.87866e-05
2.30447e-07
1.28267e-07
6.8426e-08
3.74396e-08
2.6057e-08
2.5405e-08
2.93663e-08
3.46173e-08
3.97417e-08
4.42307e-08
4.79354e-08
5.08573e-08
5.30669e-08
5.4655e-08
5.57059e-08
5.63132e-08
5.665e-08
5.67847e-08
5.52716e-08
5.51055e-08
5.42858e-08
5.33402e-08
5.23695e-08
5.1452e-08
5.06399e-08
4.99717e-08
4.94727e-08
4.91571e-08
4.90284e-08
4.90819e-08
4.93068e-08
4.96874e-08
5.02054e-08
5.08406e-08
5.15721e-08
5.2379e-08
1
0.999997
0.999999
1
1
1
1
0.999999
0.999998
0.999998
0.999998
0.999768
0.221991
0.00195181
1.4565e-07
7.76574e-08
4.33382e-08
2.92213e-08
2.68797e-08
3.00436e-08
3.50538e-08
4.01597e-08
4.46747e-08
4.83882e-08
5.12884e-08
5.34471e-08
5.49628e-08
5.59298e-08
5.64267e-08
5.65228e-08
5.6284e-08
5.57681e-08
5.50138e-08
5.41723e-08
5.32609e-08
5.23528e-08
5.15031e-08
5.07426e-08
5.0104e-08
4.96102e-08
4.92727e-08
4.90952e-08
4.9075e-08
4.92044e-08
4.94724e-08
4.98658e-08
5.03702e-08
5.09704e-08
5.16509e-08
5.23959e-08
1
0.999997
1
1
1
1
0.999998
0.999998
0.999997
0.999396
0.999288
0.331574
1.14979e-05
7.12784e-05
6.11943e-08
4.47679e-08
3.23649e-08
2.96228e-08
3.20015e-08
3.63751e-08
4.10539e-08
4.52866e-08
4.88102e-08
5.15826e-08
5.36562e-08
5.51187e-08
5.60609e-08
5.65618e-08
5.66988e-08
5.65132e-08
5.60819e-08
5.54629e-08
5.47086e-08
5.38814e-08
5.30312e-08
5.22028e-08
5.14334e-08
5.07523e-08
5.01811e-08
4.97345e-08
4.94217e-08
4.92452e-08
4.92008e-08
4.92807e-08
4.94773e-08
4.97816e-08
5.01842e-08
5.06749e-08
5.12432e-08
5.18777e-08
1
0.999999
1
1
0.999999
0.999996
0.999994
0.999216
0.998096
0.230937
0.00776784
0.009336
1.35216e-07
1.98273e-07
4.07026e-08
3.7222e-08
3.66945e-08
3.86903e-08
4.18494e-08
4.52327e-08
4.83397e-08
5.09607e-08
5.30424e-08
5.46063e-08
5.57061e-08
5.64045e-08
5.67619e-08
5.68325e-08
5.6665e-08
5.63061e-08
5.57981e-08
5.51835e-08
5.45006e-08
5.37849e-08
5.30669e-08
5.23727e-08
5.17236e-08
5.11369e-08
5.06262e-08
5.02017e-08
4.98706e-08
4.96375e-08
4.95054e-08
4.94749e-08
4.95417e-08
4.9696e-08
4.99357e-08
5.02571e-08
5.06549e-08
5.11229e-08
1
1
1
0.999999
0.99999
0.99992
0.995873
0.143932
0.00638088
0.00429689
0.00012836
0.000122661
8.75317e-08
9.69153e-08
3.69682e-08
3.5993e-08
3.73544e-08
4.00393e-08
4.3184e-08
4.62634e-08
4.90158e-08
5.13385e-08
5.32141e-08
5.46683e-08
5.57468e-08
5.65016e-08
5.6982e-08
5.72287e-08
5.73187e-08
5.72162e-08
5.69813e-08
5.66626e-08
5.62648e-08
5.58045e-08
5.52934e-08
5.47403e-08
5.41525e-08
5.35386e-08
5.29107e-08
5.22856e-08
5.16845e-08
5.1132e-08
5.06525e-08
5.02672e-08
4.99908e-08
4.9835e-08
4.97945e-08
4.98601e-08
5.00211e-08
5.02666e-08
1
1
1
0.999998
0.999968
0.811917
0.0112693
0.00240011
0.000218611
6.68069e-05
1.30227e-05
9.708e-07
1.71312e-07
1.04322e-07
6.28452e-08
4.46358e-08
3.73712e-08
3.63769e-08
3.99762e-08
4.47361e-08
4.80057e-08
5.05513e-08
5.24998e-08
5.39707e-08
5.50645e-08
5.58611e-08
5.64232e-08
5.67995e-08
5.70315e-08
5.71481e-08
5.71664e-08
5.71196e-08
5.70159e-08
5.6862e-08
5.66553e-08
5.6388e-08
5.60514e-08
5.56394e-08
5.51504e-08
5.4588e-08
5.39627e-08
5.32933e-08
5.26082e-08
5.19432e-08
5.13385e-08
5.08301e-08
5.04453e-08
5.0198e-08
5.00895e-08
5.01103e-08
1.05494e-07
9.20611e-08
8.44266e-08
7.83161e-08
6.75325e-08
6.08036e-08
5.77291e-08
5.60796e-08
5.48771e-08
5.38878e-08
5.30829e-08
5.24595e-08
5.20043e-08
5.16931e-08
5.14971e-08
5.13895e-08
5.13492e-08
5.13616e-08
5.14179e-08
5.15124e-08
5.16408e-08
5.17988e-08
5.19815e-08
5.21839e-08
5.24005e-08
5.26265e-08
5.28577e-08
5.3091e-08
5.33239e-08
5.35549e-08
5.37833e-08
5.40085e-08
5.42304e-08
5.44488e-08
5.46634e-08
5.48738e-08
5.5079e-08
5.52777e-08
5.54682e-08
5.56484e-08
5.58155e-08
5.59663e-08
5.60976e-08
5.6206e-08
5.62872e-08
5.6336e-08
5.63539e-08
5.63268e-08
5.62592e-08
5.61441e-08
5.06037e-08
1.00561e-07
5.34437e-08
5.28705e-08
5.2097e-08
5.13604e-08
5.07705e-08
5.03637e-08
5.01362e-08
5.00646e-08
5.01181e-08
5.02655e-08
5.04785e-08
5.07335e-08
5.10121e-08
5.13006e-08
5.15892e-08
5.18713e-08
5.2143e-08
5.24022e-08
5.26482e-08
5.28815e-08
5.31036e-08
5.33161e-08
5.35215e-08
5.37221e-08
5.39201e-08
5.41175e-08
5.4316e-08
5.45167e-08
5.47198e-08
5.49251e-08
5.51314e-08
5.53368e-08
5.55387e-08
5.57335e-08
5.59174e-08
5.60855e-08
5.62323e-08
5.63538e-08
5.64425e-08
5.64915e-08
5.65039e-08
5.64566e-08
5.63592e-08
5.62014e-08
5.59786e-08
5.56886e-08
5.53274e-08
5.48932e-08
4.836e-08
4.79725e-08
4.79478e-08
4.81214e-08
4.84289e-08
4.88237e-08
4.92699e-08
4.97397e-08
5.02115e-08
5.06687e-08
5.10997e-08
5.14968e-08
5.18558e-08
5.21756e-08
5.24574e-08
5.27042e-08
5.29206e-08
5.31119e-08
5.32842e-08
5.34435e-08
5.35958e-08
5.37467e-08
5.39011e-08
5.4063e-08
5.42354e-08
5.44204e-08
5.46184e-08
5.48291e-08
5.50507e-08
5.52801e-08
5.55133e-08
5.57448e-08
5.5969e-08
5.61786e-08
5.63658e-08
5.65243e-08
5.66436e-08
5.67148e-08
5.67419e-08
5.66932e-08
5.6582e-08
5.63937e-08
5.61235e-08
5.57692e-08
5.53255e-08
5.47906e-08
5.41638e-08
5.34454e-08
5.26373e-08
5.17427e-08
4.84752e-08
4.89815e-08
4.95375e-08
5.01043e-08
5.06533e-08
5.11642e-08
5.16237e-08
5.20242e-08
5.23633e-08
5.2642e-08
5.28664e-08
5.30423e-08
5.31785e-08
5.32844e-08
5.33702e-08
5.34458e-08
5.35205e-08
5.36029e-08
5.37002e-08
5.38185e-08
5.3962e-08
5.41332e-08
5.4333e-08
5.45602e-08
5.48122e-08
5.50842e-08
5.53704e-08
5.56632e-08
5.59537e-08
5.62329e-08
5.64897e-08
5.67119e-08
5.68938e-08
5.70177e-08
5.70742e-08
5.70656e-08
5.69566e-08
5.676e-08
5.64629e-08
5.60614e-08
5.55503e-08
5.49283e-08
5.41947e-08
5.33512e-08
5.24009e-08
5.13487e-08
5.0201e-08
4.89658e-08
4.76522e-08
4.62703e-08
5.08642e-08
5.15111e-08
5.20554e-08
5.24936e-08
5.28362e-08
5.30841e-08
5.32494e-08
5.33453e-08
5.33861e-08
5.33902e-08
5.3368e-08
5.33388e-08
5.33154e-08
5.33107e-08
5.33352e-08
5.33973e-08
5.35031e-08
5.36562e-08
5.38575e-08
5.41056e-08
5.43966e-08
5.47243e-08
5.50803e-08
5.54546e-08
5.58357e-08
5.62101e-08
5.65651e-08
5.68851e-08
5.71542e-08
5.73658e-08
5.74933e-08
5.75453e-08
5.74822e-08
5.73088e-08
5.70159e-08
5.65969e-08
5.60492e-08
5.53693e-08
5.45573e-08
5.36157e-08
5.25492e-08
5.13645e-08
5.007e-08
4.86761e-08
4.71947e-08
4.56387e-08
4.4022e-08
4.2359e-08
4.06644e-08
3.89527e-08
5.33353e-08
5.35649e-08
5.36776e-08
5.37039e-08
5.36403e-08
5.35254e-08
5.33778e-08
5.32196e-08
5.30714e-08
5.29512e-08
5.28753e-08
5.28553e-08
5.29003e-08
5.30155e-08
5.32028e-08
5.34607e-08
5.37845e-08
5.41666e-08
5.45966e-08
5.50618e-08
5.55473e-08
5.6037e-08
5.65128e-08
5.69574e-08
5.73521e-08
5.76758e-08
5.79225e-08
5.8058e-08
5.81051e-08
5.79887e-08
5.77487e-08
5.73602e-08
5.68226e-08
5.61331e-08
5.52915e-08
5.43007e-08
5.31662e-08
5.1896e-08
5.05001e-08
4.89907e-08
4.73818e-08
4.56887e-08
4.39277e-08
4.21163e-08
4.02718e-08
3.84116e-08
3.65526e-08
3.47105e-08
3.29e-08
3.1134e-08
5.40041e-08
5.37901e-08
5.35199e-08
5.32221e-08
5.29275e-08
5.26612e-08
5.24465e-08
5.23026e-08
5.22436e-08
5.22792e-08
5.24135e-08
5.26464e-08
5.29732e-08
5.33853e-08
5.38711e-08
5.44155e-08
5.50015e-08
5.56095e-08
5.62184e-08
5.68063e-08
5.73495e-08
5.78278e-08
5.82144e-08
5.85044e-08
5.866e-08
5.87046e-08
5.85585e-08
5.82644e-08
5.77997e-08
5.71673e-08
5.63649e-08
5.53957e-08
5.42654e-08
5.29822e-08
5.15566e-08
5.00011e-08
4.83301e-08
4.65597e-08
4.47078e-08
4.27934e-08
4.08362e-08
3.88564e-08
3.68734e-08
3.49061e-08
3.29722e-08
3.10875e-08
2.92658e-08
2.75183e-08
2.58539e-08
2.42789e-08
5.3046e-08
5.26151e-08
5.22278e-08
5.1913e-08
5.16941e-08
5.15881e-08
5.16053e-08
5.17498e-08
5.20194e-08
5.24065e-08
5.28991e-08
5.34811e-08
5.41335e-08
5.48347e-08
5.55613e-08
5.62884e-08
5.69903e-08
5.76396e-08
5.82115e-08
5.86782e-08
5.90225e-08
5.92216e-08
5.92789e-08
5.91434e-08
5.88283e-08
5.83291e-08
5.76482e-08
5.67861e-08
5.57486e-08
5.4544e-08
5.31825e-08
5.16759e-08
5.00373e-08
4.82815e-08
4.64247e-08
4.44845e-08
4.24799e-08
4.04316e-08
3.83609e-08
3.629e-08
3.42404e-08
3.22328e-08
3.0285e-08
2.84117e-08
2.66254e-08
2.49354e-08
2.33477e-08
2.18654e-08
2.0489e-08
1.92168e-08
5.14689e-08
5.11571e-08
5.09814e-08
5.09542e-08
5.108e-08
5.13558e-08
5.17721e-08
5.23142e-08
5.29628e-08
5.36956e-08
5.44877e-08
5.53125e-08
5.61423e-08
5.69486e-08
5.77031e-08
5.83767e-08
5.89418e-08
5.93675e-08
5.96454e-08
5.97494e-08
5.9669e-08
5.93866e-08
5.89123e-08
5.82487e-08
5.7399e-08
5.63717e-08
5.51765e-08
5.38249e-08
5.23287e-08
5.07e-08
4.89515e-08
4.70969e-08
4.51512e-08
4.31316e-08
4.10572e-08
3.89492e-08
3.683e-08
3.47228e-08
3.26503e-08
3.06336e-08
2.86917e-08
2.6841e-08
2.50969e-08
2.34634e-08
2.19434e-08
2.05372e-08
1.9242e-08
1.80531e-08
1.69645e-08
1.59695e-08
5.03816e-08
5.04403e-08
5.06722e-08
5.10675e-08
5.16099e-08
5.22784e-08
5.30483e-08
5.38927e-08
5.4783e-08
5.56898e-08
5.65831e-08
5.7433e-08
5.82098e-08
5.88851e-08
5.94311e-08
5.98213e-08
6.00319e-08
6.00792e-08
5.98779e-08
5.94972e-08
5.89257e-08
5.8171e-08
5.724e-08
5.61441e-08
5.48952e-08
5.35047e-08
5.19822e-08
5.03368e-08
4.85773e-08
4.67137e-08
4.47584e-08
4.27269e-08
4.06383e-08
3.85148e-08
3.63812e-08
3.42631e-08
3.21857e-08
3.01722e-08
2.82424e-08
2.64117e-08
2.4691e-08
2.30863e-08
2.15994e-08
2.02281e-08
1.89677e-08
1.78116e-08
1.67521e-08
1.57817e-08
1.48928e-08
1.40788e-08
5.03012e-08
5.07675e-08
5.13847e-08
5.21278e-08
5.29693e-08
5.38797e-08
5.48288e-08
5.57863e-08
5.67217e-08
5.76046e-08
5.84049e-08
5.90939e-08
5.96454e-08
6.00372e-08
6.02471e-08
6.02978e-08
6.00439e-08
5.96492e-08
5.90758e-08
5.83279e-08
5.74183e-08
5.63603e-08
5.51647e-08
5.384e-08
5.23918e-08
5.08233e-08
4.91376e-08
4.73393e-08
4.54366e-08
4.34429e-08
4.13766e-08
3.92614e-08
3.71244e-08
3.49945e-08
3.29001e-08
3.0867e-08
2.89173e-08
2.70676e-08
2.53291e-08
2.37077e-08
2.22044e-08
2.08162e-08
1.95372e-08
1.836e-08
1.72763e-08
1.62781e-08
1.5358e-08
1.45097e-08
1.37279e-08
1.30084e-08
5.10163e-08
5.17741e-08
5.26327e-08
5.35625e-08
5.45334e-08
5.55156e-08
5.64792e-08
5.73945e-08
5.82318e-08
5.89623e-08
5.95591e-08
5.99986e-08
6.02612e-08
6.03938e-08
6.02454e-08
5.98741e-08
5.93964e-08
5.87535e-08
5.79614e-08
5.70349e-08
5.59841e-08
5.48146e-08
5.35269e-08
5.21181e-08
5.05847e-08
4.89247e-08
4.71408e-08
4.52422e-08
4.32456e-08
4.11743e-08
3.90571e-08
3.69256e-08
3.48114e-08
3.27437e-08
3.07478e-08
2.8843e-08
2.70429e-08
2.53553e-08
2.37823e-08
2.23222e-08
2.09696e-08
1.97175e-08
1.85577e-08
1.74824e-08
1.64842e-08
1.55572e-08
1.46964e-08
1.38979e-08
1.3159e-08
1.24772e-08
5.20039e-08
5.29018e-08
5.38536e-08
5.48309e-08
5.58056e-08
5.67494e-08
5.76339e-08
5.8431e-08
5.91134e-08
5.96563e-08
6.00387e-08
6.02445e-08
6.03539e-08
6.01312e-08
5.98046e-08
5.93486e-08
5.87527e-08
5.80324e-08
5.71983e-08
5.62547e-08
5.51995e-08
5.40255e-08
5.27229e-08
5.1283e-08
4.97009e-08
4.79788e-08
4.61277e-08
4.41671e-08
4.21243e-08
4.00311e-08
3.79214e-08
3.58278e-08
3.37793e-08
3.17999e-08
2.99075e-08
2.81142e-08
2.64264e-08
2.48458e-08
2.337e-08
2.19939e-08
2.07107e-08
1.95132e-08
1.83941e-08
1.73475e-08
1.63682e-08
1.54524e-08
1.45974e-08
1.38011e-08
1.30619e-08
1.23785e-08
5.28382e-08
5.37642e-08
5.47132e-08
5.56595e-08
5.65771e-08
5.74397e-08
5.82207e-08
5.88953e-08
5.94414e-08
5.98418e-08
6.0086e-08
6.0171e-08
6.01011e-08
5.98893e-08
5.95472e-08
5.90886e-08
5.85243e-08
5.78595e-08
5.70929e-08
5.62165e-08
5.52181e-08
5.40834e-08
5.28003e-08
5.13612e-08
4.97668e-08
4.80266e-08
4.61601e-08
4.4195e-08
4.21636e-08
4.00998e-08
3.80363e-08
3.6002e-08
3.40208e-08
3.21113e-08
3.02864e-08
2.85541e-08
2.69179e-08
2.53773e-08
2.39293e-08
2.25685e-08
2.12889e-08
2.00844e-08
1.89496e-08
1.78801e-08
1.68728e-08
1.59252e-08
1.5036e-08
1.4204e-08
1.34284e-08
1.27086e-08
5.32397e-08
5.41328e-08
5.50359e-08
5.59258e-08
5.67789e-08
5.75711e-08
5.82795e-08
5.88838e-08
5.9368e-08
5.9722e-08
5.99422e-08
6.00312e-08
5.99969e-08
5.98495e-08
5.95977e-08
5.92516e-08
5.88124e-08
5.82766e-08
5.76348e-08
5.68727e-08
5.59741e-08
5.49239e-08
5.37113e-08
5.23327e-08
5.07926e-08
4.91046e-08
4.72917e-08
4.53836e-08
4.34131e-08
4.14121e-08
3.94098e-08
3.74312e-08
3.54969e-08
3.36232e-08
3.18215e-08
3.00994e-08
2.84604e-08
2.69047e-08
2.54304e-08
2.40336e-08
2.27095e-08
2.14534e-08
2.02611e-08
1.91296e-08
1.80565e-08
1.70406e-08
1.60811e-08
1.51777e-08
1.43302e-08
1.35385e-08
5.31886e-08
5.40117e-08
5.48465e-08
5.56734e-08
5.64718e-08
5.72216e-08
5.79037e-08
5.8502e-08
5.90044e-08
5.94036e-08
5.96973e-08
5.98878e-08
5.99816e-08
5.99848e-08
5.98897e-08
5.97186e-08
5.94565e-08
5.90967e-08
5.86268e-08
5.80301e-08
5.72896e-08
5.63907e-08
5.53252e-08
5.4093e-08
5.26986e-08
5.11501e-08
4.94681e-08
4.7682e-08
4.58224e-08
4.39182e-08
4.1995e-08
4.00754e-08
3.81785e-08
3.63206e-08
3.4515e-08
3.27711e-08
3.10949e-08
2.94876e-08
2.79503e-08
2.64815e-08
2.50782e-08
2.37372e-08
2.24552e-08
2.12299e-08
2.00591e-08
1.89421e-08
1.78787e-08
1.68692e-08
1.5914e-08
1.50136e-08
5.25665e-08
5.32964e-08
5.4053e-08
5.48208e-08
5.55835e-08
5.63244e-08
5.70276e-08
5.76786e-08
5.82656e-08
5.87796e-08
5.9216e-08
5.95728e-08
5.98504e-08
6.00502e-08
6.01727e-08
6.0216e-08
6.0175e-08
6.00404e-08
5.97979e-08
5.94293e-08
5.89151e-08
5.82392e-08
5.73959e-08
5.64066e-08
5.52729e-08
5.39685e-08
5.25087e-08
5.09253e-08
4.9248e-08
4.75021e-08
4.5709e-08
4.38873e-08
4.20539e-08
4.02255e-08
3.84181e-08
3.6648e-08
3.49319e-08
3.32588e-08
3.16399e-08
3.0077e-08
2.85705e-08
2.71198e-08
2.57235e-08
2.43803e-08
2.3088e-08
2.18435e-08
2.0648e-08
1.95021e-08
1.84069e-08
1.73634e-08
5.16538e-08
5.22393e-08
5.28703e-08
5.35365e-08
5.4227e-08
5.49302e-08
5.56347e-08
5.63291e-08
5.70033e-08
5.76407e-08
5.82328e-08
5.87729e-08
5.92564e-08
5.96804e-08
6.0042e-08
6.03367e-08
6.05584e-08
6.06988e-08
6.07438e-08
6.06712e-08
6.04524e-08
6.00411e-08
5.93503e-08
5.87038e-08
5.79996e-08
5.70604e-08
5.59257e-08
5.4647e-08
5.32586e-08
5.17859e-08
5.02443e-08
4.86405e-08
4.69808e-08
4.52705e-08
4.35122e-08
4.17058e-08
4.00428e-08
3.83387e-08
3.66584e-08
3.50078e-08
3.33918e-08
3.18153e-08
3.02838e-08
2.88041e-08
2.73855e-08
2.60003e-08
2.46575e-08
2.33572e-08
2.21019e-08
2.08933e-08
5.05889e-08
5.09799e-08
5.14311e-08
5.19343e-08
5.24807e-08
5.30611e-08
5.36664e-08
5.42882e-08
5.5e-08
5.57175e-08
5.643e-08
5.71252e-08
5.77948e-08
5.84364e-08
5.9048e-08
5.96188e-08
6.01377e-08
6.06022e-08
6.10069e-08
6.1356e-08
6.18357e-08
6.28992e-08
5.96152e-08
6.02276e-08
6.02446e-08
5.97429e-08
5.89883e-08
5.80676e-08
5.70329e-08
5.59471e-08
5.48341e-08
5.36778e-08
5.24895e-08
5.1287e-08
5.00834e-08
4.73211e-08
4.62951e-08
4.47096e-08
4.30986e-08
4.14645e-08
3.98079e-08
3.8127e-08
3.64176e-08
3.46742e-08
3.31949e-08
3.1672e-08
3.01871e-08
2.87292e-08
2.73085e-08
2.59328e-08
5.0242e-08
5.04653e-08
5.076e-08
5.1138e-08
5.15972e-08
5.21262e-08
5.2708e-08
5.20805e-08
5.2709e-08
5.33545e-08
5.40436e-08
5.4743e-08
5.54272e-08
5.61204e-08
5.68743e-08
5.76702e-08
5.84345e-08
5.91496e-08
5.97999e-08
6.03723e-08
6.08491e-08
6.1211e-08
6.15272e-08
6.1695e-08
6.16862e-08
6.13327e-08
6.09288e-08
6.02576e-08
5.92301e-08
5.83483e-08
5.75228e-08
5.65501e-08
5.54639e-08
5.43122e-08
7.85331e-08
4.81135e-08
5.26439e-08
5.15034e-08
5.03338e-08
4.91439e-08
4.79447e-08
4.67457e-08
4.55527e-08
4.15975e-08
4.07144e-08
3.9038e-08
3.74954e-08
3.58955e-08
3.42784e-08
3.26522e-08
5.60686e-08
5.59782e-08
5.58721e-08
5.57496e-08
5.561e-08
5.54526e-08
5.52767e-08
5.50816e-08
5.48668e-08
5.46317e-08
5.43758e-08
5.40984e-08
5.37993e-08
5.34781e-08
5.31344e-08
5.27682e-08
5.23791e-08
5.19673e-08
5.15327e-08
5.10756e-08
5.0596e-08
5.00945e-08
4.95714e-08
4.90271e-08
4.84624e-08
4.78779e-08
4.72744e-08
4.66526e-08
4.60136e-08
4.53584e-08
4.46878e-08
4.40031e-08
4.33053e-08
4.25957e-08
4.18754e-08
4.11458e-08
4.04079e-08
3.96632e-08
3.8913e-08
3.81584e-08
3.74008e-08
3.66414e-08
3.58816e-08
3.51225e-08
3.43654e-08
3.36114e-08
3.28619e-08
3.21178e-08
3.13802e-08
3.06503e-08
2.9929e-08
2.92174e-08
2.85163e-08
2.78267e-08
2.71493e-08
2.6485e-08
2.58345e-08
2.51986e-08
2.45779e-08
2.3973e-08
2.33845e-08
2.28129e-08
2.22588e-08
2.17225e-08
2.12045e-08
2.07052e-08
2.02249e-08
1.97639e-08
1.93226e-08
1.89012e-08
1.84998e-08
1.81188e-08
1.77583e-08
1.74184e-08
1.70993e-08
1.68011e-08
1.6524e-08
1.62679e-08
1.60331e-08
1.58194e-08
1.56271e-08
1.54561e-08
1.53065e-08
1.51783e-08
1.50715e-08
1.49861e-08
1.49221e-08
1.48795e-08
1.48583e-08
1.48585e-08
1.48801e-08
1.49231e-08
1.49874e-08
1.50731e-08
1.51801e-08
1.53084e-08
1.54581e-08
1.56292e-08
1.58217e-08
1.60356e-08
1.62711e-08
1.65284e-08
1.68076e-08
1.71089e-08
1.74327e-08
1.77795e-08
1.81498e-08
1.85444e-08
1.89642e-08
1.94105e-08
1.98849e-08
2.03895e-08
2.09269e-08
2.14997e-08
2.21111e-08
2.27638e-08
2.3461e-08
2.42053e-08
2.49991e-08
2.58443e-08
2.67426e-08
2.76953e-08
2.87037e-08
2.97683e-08
3.08888e-08
3.20626e-08
3.32855e-08
3.45527e-08
3.58601e-08
3.72046e-08
3.85833e-08
3.99935e-08
4.14325e-08
4.28981e-08
4.43885e-08
4.58983e-08
4.74178e-08
4.89367e-08
5.04472e-08
5.19446e-08
5.3426e-08
5.48868e-08
5.63196e-08
5.77136e-08
5.90558e-08
6.03328e-08
6.15315e-08
6.26405e-08
6.36505e-08
6.45547e-08
6.53485e-08
6.60301e-08
6.65992e-08
6.70579e-08
6.74094e-08
6.76582e-08
6.78098e-08
6.78702e-08
6.7846e-08
6.77439e-08
6.75711e-08
6.73346e-08
6.70416e-08
6.6699e-08
6.63136e-08
6.58919e-08
6.54402e-08
6.49644e-08
6.44702e-08
6.39627e-08
6.34468e-08
6.2927e-08
6.24073e-08
6.18914e-08
6.13825e-08
6.08836e-08
6.03971e-08
5.99253e-08
5.94701e-08
5.90331e-08
5.86158e-08
5.82195e-08
5.78459e-08
5.74962e-08
5.71714e-08
5.68719e-08
5.65977e-08
5.63488e-08
5.61286e-08
5.5936e-08
5.57705e-08
5.56311e-08
5.55184e-08
5.5432e-08
5.53808e-08
5.5364e-08
5.53783e-08
5.54326e-08
5.55285e-08
5.56622e-08
5.58418e-08
5.60603e-08
5.63326e-08
5.6648e-08
5.70056e-08
5.74356e-08
5.79371e-08
5.84965e-08
5.91217e-08
5.97846e-08
6.0461e-08
6.11396e-08
6.18475e-08
6.25844e-08
6.33578e-08
6.42021e-08
6.5097e-08
6.60172e-08
6.69945e-08
6.80124e-08
6.90507e-08
7.01175e-08
7.11879e-08
7.22419e-08
7.32964e-08
7.4327e-08
7.53213e-08
7.62847e-08
7.7217e-08
7.81581e-08
7.91049e-08
8.00858e-08
8.11085e-08
8.22012e-08
8.32505e-08
8.42243e-08
8.52209e-08
8.61785e-08
8.70617e-08
8.78485e-08
8.85466e-08
8.91834e-08
8.97422e-08
9.0265e-08
9.07386e-08
9.11601e-08
9.15212e-08
9.18177e-08
9.20463e-08
9.22055e-08
9.22988e-08
9.23273e-08
9.22933e-08
9.2199e-08
9.20474e-08
9.18377e-08
9.15721e-08
9.12524e-08
9.08808e-08
9.04574e-08
8.99831e-08
8.94582e-08
8.88835e-08
8.82607e-08
8.75923e-08
8.68813e-08
8.6131e-08
8.53449e-08
8.45265e-08
8.36793e-08
8.28062e-08
8.19106e-08
8.09953e-08
8.0063e-08
7.91166e-08
7.81586e-08
7.71916e-08
7.62168e-08
7.52296e-08
7.42379e-08
7.32453e-08
7.22542e-08
7.12669e-08
7.02852e-08
6.93107e-08
6.83446e-08
6.7388e-08
6.64415e-08
6.55055e-08
6.45803e-08
6.36657e-08
6.27616e-08
6.18674e-08
6.09827e-08
6.01065e-08
5.92382e-08
5.83767e-08
5.75211e-08
5.66708e-08
5.58222e-08
5.46401e-08
5.43642e-08
5.4065e-08
5.37419e-08
5.33948e-08
5.30231e-08
5.26267e-08
5.22054e-08
5.1759e-08
5.12876e-08
5.07912e-08
5.02702e-08
4.97249e-08
4.91557e-08
4.85633e-08
4.79483e-08
4.73116e-08
4.66542e-08
4.5977e-08
4.52813e-08
4.45683e-08
4.38393e-08
4.30955e-08
4.23386e-08
4.15698e-08
4.07907e-08
4.00028e-08
3.92077e-08
3.84068e-08
3.76017e-08
3.67939e-08
3.59848e-08
3.51761e-08
3.4369e-08
3.35649e-08
3.27654e-08
3.19715e-08
3.11847e-08
3.0406e-08
2.96367e-08
2.88779e-08
2.81305e-08
2.73956e-08
2.6674e-08
2.59667e-08
2.52744e-08
2.45979e-08
2.39379e-08
2.32949e-08
2.26696e-08
2.20626e-08
2.14742e-08
2.09049e-08
2.03551e-08
1.98252e-08
1.93154e-08
1.88261e-08
1.83574e-08
1.79096e-08
1.74828e-08
1.70772e-08
1.66929e-08
1.63301e-08
1.59888e-08
1.5669e-08
1.53709e-08
1.50944e-08
1.48396e-08
1.46065e-08
1.43951e-08
1.42055e-08
1.40375e-08
1.38913e-08
1.37668e-08
1.36639e-08
1.35827e-08
1.35232e-08
1.34854e-08
1.34691e-08
1.34745e-08
1.35015e-08
1.35501e-08
1.36203e-08
1.3712e-08
1.38253e-08
1.39602e-08
1.41166e-08
1.42946e-08
1.44941e-08
1.47151e-08
1.49578e-08
1.5222e-08
1.55078e-08
1.58153e-08
1.61445e-08
1.64956e-08
1.68687e-08
1.7264e-08
1.76818e-08
1.81224e-08
1.85864e-08
1.90742e-08
1.95869e-08
2.01254e-08
2.0691e-08
2.12855e-08
2.19112e-08
2.25709e-08
2.32686e-08
2.40092e-08
2.47992e-08
2.56462e-08
2.6559e-08
2.75451e-08
2.86101e-08
2.97586e-08
3.09941e-08
3.23188e-08
3.37327e-08
3.52347e-08
3.68245e-08
3.85017e-08
4.0264e-08
4.21055e-08
4.40158e-08
4.59739e-08
4.7956e-08
4.99501e-08
5.1954e-08
5.3968e-08
5.59918e-08
5.80243e-08
6.00615e-08
6.21018e-08
6.4144e-08
6.61535e-08
6.8087e-08
6.99186e-08
7.16486e-08
7.32868e-08
7.48363e-08
7.62866e-08
7.76156e-08
7.87965e-08
7.98055e-08
8.0625e-08
8.1245e-08
8.16621e-08
8.18793e-08
8.19041e-08
8.17484e-08
8.1427e-08
8.09566e-08
8.03545e-08
7.96384e-08
7.88253e-08
7.79319e-08
7.69739e-08
7.59658e-08
7.49213e-08
7.38528e-08
7.27717e-08
7.1688e-08
7.06106e-08
6.95473e-08
6.85045e-08
6.74881e-08
6.65029e-08
6.55529e-08
6.46416e-08
6.37715e-08
6.29444e-08
6.21617e-08
6.1424e-08
6.07317e-08
6.00847e-08
5.94825e-08
5.89244e-08
5.84098e-08
5.79378e-08
5.75077e-08
5.7119e-08
5.67751e-08
5.64743e-08
5.62139e-08
5.59905e-08
5.58013e-08
5.56436e-08
5.55491e-08
5.54799e-08
5.54373e-08
5.54147e-08
5.54253e-08
5.54614e-08
5.55994e-08
5.57759e-08
5.59694e-08
5.62721e-08
5.6629e-08
5.70031e-08
5.75068e-08
5.80098e-08
5.86988e-08
5.93611e-08
6.00445e-08
6.10161e-08
6.20793e-08
6.3137e-08
6.43786e-08
6.54803e-08
6.64278e-08
6.72717e-08
6.83429e-08
6.93735e-08
7.04316e-08
7.18597e-08
7.31994e-08
7.43854e-08
7.59672e-08
7.75177e-08
7.89779e-08
8.06065e-08
8.20598e-08
8.33252e-08
8.47672e-08
8.59476e-08
8.69301e-08
8.75806e-08
8.88797e-08
8.95401e-08
9.07302e-08
9.2416e-08
9.4149e-08
9.6391e-08
9.7477e-08
9.80436e-08
9.97235e-08
1.00864e-07
1.0171e-07
1.02223e-07
1.02643e-07
1.0326e-07
1.03447e-07
1.04156e-07
1.04727e-07
1.0523e-07
1.05539e-07
1.05704e-07
1.05747e-07
1.05684e-07
1.0558e-07
1.05387e-07
1.05122e-07
1.04799e-07
1.04446e-07
1.03995e-07
1.03519e-07
1.03011e-07
1.025e-07
1.01925e-07
1.013e-07
1.00591e-07
9.97962e-08
9.89218e-08
9.79793e-08
9.69808e-08
9.59372e-08
9.48576e-08
9.3749e-08
9.26168e-08
9.1465e-08
9.02967e-08
8.91146e-08
8.79213e-08
8.6719e-08
8.551e-08
8.4296e-08
8.30756e-08
8.18408e-08
8.0588e-08
7.93321e-08
7.80811e-08
7.68398e-08
7.56119e-08
7.44003e-08
7.3207e-08
7.20334e-08
7.08805e-08
6.97485e-08
6.86377e-08
6.75477e-08
6.64778e-08
6.54274e-08
6.43953e-08
6.33805e-08
6.23815e-08
6.13971e-08
6.04257e-08
5.94661e-08
5.85158e-08
5.12407e-08
5.07122e-08
5.01576e-08
4.95771e-08
4.8971e-08
4.83399e-08
4.76843e-08
4.70051e-08
4.6303e-08
4.55792e-08
4.4835e-08
4.40716e-08
4.32907e-08
4.24939e-08
4.16828e-08
4.08593e-08
4.00252e-08
3.91823e-08
3.83327e-08
3.7478e-08
3.66203e-08
3.57612e-08
3.49027e-08
3.40463e-08
3.31938e-08
3.23467e-08
3.15065e-08