/*--------------------------------*- C++ -*----------------------------------*\
| =========                 |                                                 |
| \\      /  F ield         | OpenFOAM: The Open Source CFD Toolbox           |
|  \\    /   O peration     | Version:  2.4.0                                 |
|   \\  /    A nd           | Web:      www.OpenFOAM.org                      |
|    \\/     M anipulation  |                                                 |
\*---------------------------------------------------------------------------*/
FoamFile
{
    version     2.0;
    format      ascii;
    class       volScalarField;
    location    "4.8";
    object      H;
}
// * * * * * * * * * * * * * * * * * * * * * * * * * * * * * * * * * * * * * //

dimensions      [0 2 -2 0 0 0 0];

internalField   nonuniform List<scalar> 
8000
(
-11954.4
-11405.5
-10862.4
-10328.4
-9805.63
-9295.13
-8797.07
-8310.58
-7833.95
-7364.78
-6900.17
-6436.95
-5971.94
-5502.18
-5025.15
-4539.02
-4042.79
-3536.39
-3020.81
-2498.08
-1971.13
-1443.34
-918.55
-409.194
-2.58068
-2.54936
-1.85318
-1.22214
-0.947318
-0.804954
-0.727145
-0.689331
-0.675124
-0.673257
-0.676486
-0.680593
-0.683432
-0.684144
-0.682607
-0.679023
-0.673693
-0.666899
-0.658853
-0.649696
-0.639514
-0.628331
-0.616171
-0.603036
-0.588936
-0.573892
-11967.3
-11443
-10922.3
-10406.5
-9896.77
-9392.94
-8894.23
-8399.04
-7905.1
-7409.74
-6910.01
-6402.99
-5886.06
-5357.07
-4814.63
-4258.25
-3688.51
-3107.03
-2516.58
-1921.26
-1326.72
-736.557
-134.951
-1.13537
-1.20215
-0.915021
-0.771401
-0.684985
-0.624926
-0.58926
-0.57398
-0.573551
-0.582448
-0.59604
-0.610834
-0.624549
-0.63586
-0.644115
-0.649097
-0.650838
-0.649496
-0.645284
-0.638429
-0.629154
-0.617674
-0.604197
-0.588921
-0.572047
-0.553771
-0.534289
-11975.5
-11466.6
-10958.4
-10450.9
-9943.39
-9434.88
-8923.57
-8407.2
-7883.14
-7348.6
-6800.87
-6237.59
-5656.97
-5058.06
-4440.92
-3806.77
-3158
-2498.05
-1831.49
-1166.05
-519.603
-3.38529
-0.0784764
-0.18816
-0.293935
-0.390266
-0.47025
-0.535018
-0.5875
-0.629906
-0.663831
-0.690398
-0.710394
-0.724521
-0.733362
-0.737433
-0.737201
-0.733085
-0.725468
-0.714694
-0.701077
-0.68491
-0.666467
-0.646014
-0.623813
-0.600124
-0.575204
-0.549312
-0.522701
-0.495618
-11978.3
-11474.1
-10967.6
-10457.1
-9940.78
-9416.24
-8880.94
-8332.1
-7766.91
-7182.75
-6577.43
-5949.47
-5298.3
-4624.5
-3930
-3218.19
-2494.15
-1765.03
-1040.83
-330.119
-2.96131
-2.63369
-1.96764
-1.7327
-1.54694
-1.39317
-1.27021
-1.17534
-1.10428
-1.05206
-1.01367
-0.984655
-0.961229
-0.940431
-0.92013
-0.898915
-0.875951
-0.850833
-0.823459
-0.793927
-0.762462
-0.72936
-0.694953
-0.659585
-0.623598
-0.587322
-0.551072
-0.515136
-0.47978
-0.445242
-11974.9
-11462.9
-10945.6
-10419.8
-9882.07
-9329.21
-8757.98
-8165.31
-7548.49
-6905.41
-6234.81
-5536.52
-4811.6
-4062.39
-3292.11
-2503.43
-1694.72
-856.583
-5.18322
-0.13069
-0.362358
-0.642456
-0.89144
-1.08697
-1.22832
-1.32058
-1.3719
-1.39127
-1.38697
-1.36582
-1.33301
-1.29223
-1.24599
-1.196
-1.14343
-1.08912
-1.03367
-0.977597
-0.921314
-0.865206
-0.809624
-0.754894
-0.701316
-0.64917
-0.598707
-0.550147
-0.503683
-0.459471
-0.417636
-0.378266
-11965
-11432.3
-10891.4
-10337.5
-9766.13
-9173.28
-8555.32
-7909.21
-7232.76
-6524.8
-5785.32
-5015.43
-4216.88
-3391.38
-2541.12
-1673.86
-815.431
-5.30122
-3.1576
-1.70302
-1.25559
-1.12744
-1.15501
-1.24046
-1.33227
-1.40826
-1.46126
-1.49058
-1.498
-1.48613
-1.45782
-1.41588
-1.36298
-1.3016
-1.23398
-1.16212
-1.08774
-1.01232
-0.937114
-0.863117
-0.791144
-0.721832
-0.655662
-0.592987
-0.53405
-0.479
-0.427906
-0.380772
-0.337545
-0.298125
-11948.8
-11382.7
-10806.1
-10213
-9597.9
-8956.48
-8285.09
-7581.21
-6843.56
-6072.17
-5268.11
-4432.76
-3567.13
-2673.37
-1762.09
-865.588
-5.79986
-5.15807
-3.77673
-3.38891
-3.05973
-2.7833
-2.55649
-2.37291
-2.22448
-2.10255
-1.99885
-1.90614
-1.81864
-1.73217
-1.6441
-1.55316
-1.45914
-1.3626
-1.26462
-1.16652
-1.06956
-0.974916
-0.883616
-0.796487
-0.714156
-0.637062
-0.565476
-0.499522
-0.439204
-0.384428
-0.335022
-0.29075
-0.251325
-0.21643
-11927.3
-11317.7
-10696.1
-10055.8
-9391.14
-8697.54
-7971.87
-7212.44
-6419.18
-5593.49
-4737.41
-3851.72
-2933.92
-1980.01
-997.851
-6.242
-5.74178
-4.31649
-4.02041
-3.73808
-3.47554
-3.2379
-3.02574
-2.83631
-2.66502
-2.50674
-2.35674
-2.21131
-2.06799
-1.92557
-1.78386
-1.64341
-1.50522
-1.3705
-1.24047
-1.11622
-0.998639
-0.888414
-0.785986
-0.691594
-0.605289
-0.526973
-0.456421
-0.393308
-0.337238
-0.287756
-0.244467
-0.206847
-0.174357
-0.146473
-11902.1
-11242
-10569.6
-9877.97
-9161.62
-8416.33
-7639.48
-6830.31
-5990.18
-5122.98
-4235.21
-3335.46
-2432.39
-1529.69
-615.425
-11.4875
-8.04479
-7.18539
-6.4401
-5.77993
-5.19603
-4.6796
-4.22186
-3.81443
-3.44962
-3.12069
-2.822
-2.54899
-2.29812
-2.06674
-1.8529
-1.6552
-1.47263
-1.30447
-1.15011
-1.00905
-0.880803
-0.764848
-0.660638
-0.567574
-0.485006
-0.412244
-0.348562
-0.293216
-0.245453
-0.204527
-0.169709
-0.140299
-0.115633
-0.0950922
-11875.4
-11162
-10437.1
-9694.1
-8927.97
-8134.98
-7312.89
-6461.12
-5580.94
-4675.91
-3752.38
-2820.07
-1892.6
-987.55
-8.03791
-6.03555
-5.72255
-5.46586
-5.18121
-4.87929
-4.56783
-4.25253
-3.93768
-3.62666
-3.32225
-3.02685
-2.74249
-2.47093
-2.21362
-1.97171
-1.74605
-1.53716
-1.34527
-1.17035
-1.01209
-0.870001
-0.743384
-0.631405
-0.53312
-0.447506
-0.373497
-0.310007
-0.255957
-0.210298
-0.172022
-0.140182
-0.113898
-0.0923677
-0.0748631
-0.0607378
-11848.9
-11083.3
-10307.4
-9516
-8705.11
-7872.48
-7017.63
-6142.01
-5248.79
-4342.31
-3426.98
-2505.46
-1576.08
-628.597
-20.8036
-14.3314
-12.5376
-10.9653
-9.58428
-8.37081
-7.30477
-6.36856
-5.54652
-4.82472
-4.19087
-3.63414
-3.14511
-2.71559
-2.33846
-2.00758
-1.71764
-1.464
-1.24265
-1.05005
-0.883074
-0.738926
-0.615091
-0.509284
-0.419416
-0.343573
-0.279999
-0.227088
-0.183376
-0.147534
-0.118373
-0.0948313
-0.0759737
-0.0609849
-0.0491613
-0.0399028
-11822.7
-11005.1
-10178.5
-9338.27
-8480.69
-7603.53
-6706.08
-5789.35
-4856.17
-3911.28
-2961.17
-2013.59
-1076.18
-8.41188
-6.26667
-6.06792
-5.80772
-5.49487
-5.14773
-4.78096
-4.40594
-4.03143
-3.66406
-3.30881
-2.96936
-2.64831
-2.34737
-2.06693
-1.80741
-1.56908
-1.35206
-1.15621
-0.981142
-0.826179
-0.690375
-0.572557
-0.471371
-0.38534
-0.31292
-0.252559
-0.202738
-0.162011
-0.129031
-0.102573
-0.0815389
-0.0649636
-0.0520125
-0.041974
-0.0342508
-0.0283477
-11798.4
-10933.1
-10061.6
-9180.87
-8289.07
-7385.85
-6472.58
-5552.48
-4630.85
-3715.44
-2817.26
-1951.06
-1133.54
-21.8822
-15.1766
-13.3999
-11.7746
-10.307
-8.99513
-7.8305
-6.80098
-5.89301
-5.09303
-4.38839
-3.76782
-3.22151
-2.74118
-2.32031
-1.95289
-1.63336
-1.35699
-1.11994
-0.918296
-0.748172
-0.605798
-0.487603
-0.390264
-0.31074
-0.246289
-0.194475
-0.153156
-0.120473
-0.0948285
-0.0748683
-0.0594532
-0.0476367
-0.038641
-0.0318334
-0.0267055
-0.0228534
-11772.2
-10855
-9932.59
-9002.36
-8062.24
-7110.99
-6148.25
-5174.27
-4189.5
-3193.65
-2183.38
-1147.29
-7.82427
-5.86128
-5.8154
-5.70341
-5.51361
-5.2506
-4.92735
-4.5603
-4.16627
-3.76062
-3.35638
-2.964
-2.59141
-2.24428
-1.92628
-1.63944
-1.38445
-1.16087
-0.96705
-0.800213
-0.65762
-0.536636
-0.434934
-0.350242
-0.280389
-0.223333
-0.177186
-0.140228
-0.11092
-0.0879033
-0.0699972
-0.0561922
-0.0456367
-0.0376238
-0.0315749
-0.0270234
-0.0235985
-0.0210103
-11749.1
-10787.3
-9825.52
-8863.59
-7901.74
-6940.68
-5981.69
-5026.49
-4077.19
-3135.91
-2202.05
-1262.47
-13.6843
-9.8926
-9.13998
-8.3526
-7.5583
-6.7813
-6.03759
-5.33723
-4.68609
-4.08713
-3.54129
-3.04811
-2.60616
-2.21331
-1.86689
-1.56389
-1.30104
-1.07493
-0.882065
-0.718988
-0.582336
-0.468878
-0.375393
-0.298959
-0.236951
-0.187183
-0.147663
-0.116606
-0.0924453
-0.073832
-0.0596211
-0.0488578
-0.040758
-0.0346876
-0.0301414
-0.0267229
-0.0241263
-0.0221192
-11717.5
-10692.6
-9667.93
-8643.42
-7618.81
-6593.62
-5567.32
-4540.65
-3520.01
-2527.06
-1605.82
-798.86
-17.4549
-13.1846
-11.7728
-10.6515
-9.46378
-8.28328
-7.16084
-6.12788
-5.20033
-4.38284
-3.67248
-3.06179
-2.54103
-2.09969
-1.72753
-1.41505
-1.15374
-0.936165
-0.755874
-0.607295
-0.485617
-0.386679
-0.306866
-0.24304
-0.192485
-0.152702
-0.121624
-0.0975367
-0.0790344
-0.0649398
-0.0542807
-0.0462632
-0.0402475
-0.0357248
-0.0322961
-0.0296535
-0.0275636
-0.025853
-11677.3
-10569.4
-9457.66
-8342.2
-7224.5
-6107.06
-4993.4
-3889.48
-2795.33
-1689.6
-787.695
-11.0269
-8.22846
-8.03547
-7.66685
-7.20419
-6.64856
-6.02821
-5.37669
-4.72553
-4.10011
-3.51822
-2.99039
-2.52113
-2.11052
-1.75574
-1.45229
-1.19492
-0.978199
-0.796926
-0.646285
-0.521928
-0.419986
-0.337035
-0.270069
-0.216456
-0.173906
-0.140437
-0.114352
-0.0942039
-0.0787694
-0.067048
-0.0582156
-0.0515818
-0.0465888
-0.042793
-0.0398474
-0.037486
-0.0355095
-0.0337731
-11582
-10276.4
-8947.39
-7586.83
-6191.82
-4761.77
-3286.7
-1743.87
-372.092
-6.29049
-1.17627
-2.56185
-2.89751
-3.38661
-3.67947
-3.78643
-3.73768
-3.57062
-3.32225
-3.0252
-2.70598
-2.38465
-2.07531
-1.78696
-1.52469
-1.29063
-1.08491
-0.906387
-0.753139
-0.622874
-0.513154
-0.421554
-0.34575
-0.283572
-0.23303
-0.192322
-0.159838
-0.134161
-0.114049
-0.0984332
-0.0864017
-0.0771851
-0.0701524
-0.0648092
-0.0607573
-0.0575938
-0.0550089
-0.0527797
-0.0507456
-0.0487912
-11409.5
-9751.67
-8052.78
-6304.45
-4504.93
-2614.68
-449.522
-10.8075
-1.03093
-1.66219
-1.93881
-2.24984
-2.48949
-2.67866
-2.80162
-2.85382
-2.83746
-2.76008
-2.63266
-2.46776
-2.27786
-2.07431
-1.86664
-1.66234
-1.46692
-1.28414
-1.11628
-0.964478
-0.828995
-0.709484
-0.605174
-0.515021
-0.437825
-0.372314
-0.317198
-0.271219
-0.233178
-0.201951
-0.176508
-0.155914
-0.139333
-0.126028
-0.115354
-0.106755
-0.0997585
-0.0940539
-0.0893774
-0.0854942
-0.0822063
-0.0791959
-11172
-9028.48
-6815.2
-4532.28
-2251.6
-15.3235
-1.86297
-1.99188
-2.09685
-2.23756
-2.3648
-2.46052
-2.54389
-2.611
-2.65602
-2.67244
-2.65433
-2.59833
-2.50493
-2.38006
-2.23322
-2.0724
-1.90486
-1.73664
-1.57237
-1.41541
-1.26796
-1.13138
-1.00634
-0.893009
-0.791208
-0.70049
-0.620238
-0.549725
-0.488163
-0.434736
-0.388628
-0.34904
-0.315204
-0.286389
-0.26191
-0.241131
-0.223465
-0.208379
-0.195389
-0.184064
-0.174025
-0.164939
-0.156525
-0.148723
-0.557939
-0.541131
-0.52354
-0.50525
-0.486362
-0.466983
-0.447229
-0.427219
-0.407072
-0.386907
-0.366838
-0.346971
-0.327407
-0.308236
-0.289541
-0.271393
-0.253853
-0.23697
-0.220786
-0.20533
-0.190624
-0.176681
-0.163505
-0.151094
-0.139439
-0.128526
-0.118336
-0.108847
-0.100034
-0.0918667
-0.0843166
-0.0773522
-0.0709413
-0.0650516
-0.0596509
-0.0547073
-0.0501896
-0.0460674
-0.0423115
-0.038894
-0.0357882
-0.0329687
-0.0304118
-0.0280953
-0.0259984
-0.0241026
-0.022391
-0.0208502
-0.0194709
-0.0182523
-0.513801
-0.492502
-0.470583
-0.448236
-0.425641
-0.402971
-0.380387
-0.35804
-0.336065
-0.314583
-0.293701
-0.273508
-0.254082
-0.235481
-0.217753
-0.200929
-0.18503
-0.170065
-0.156032
-0.142922
-0.130714
-0.119386
-0.108907
-0.0992431
-0.0903558
-0.0822056
-0.0747509
-0.0679495
-0.0617586
-0.0561362
-0.0510408
-0.0464323
-0.0422719
-0.0385224
-0.0351487
-0.0321175
-0.0293975
-0.0269596
-0.0247766
-0.0228233
-0.0210767
-0.0195155
-0.0181203
-0.0168734
-0.015759
-0.0147629
-0.0138727
-0.0130782
-0.0123721
-0.0117515
-0.4683
-0.440973
-0.413847
-0.387115
-0.360949
-0.335503
-0.310907
-0.287271
-0.264682
-0.243207
-0.222895
-0.203774
-0.185858
-0.169145
-0.15362
-0.139257
-0.12602
-0.113867
-0.102749
-0.0926116
-0.0833994
-0.0750537
-0.0675156
-0.0607263
-0.0546279
-0.0491641
-0.0442806
-0.0399258
-0.0360506
-0.0326088
-0.0295573
-0.0268562
-0.0244684
-0.0223601
-0.0205001
-0.0188602
-0.0174147
-0.0161406
-0.0150171
-0.0140255
-0.0131493
-0.0123738
-0.0116859
-0.0110742
-0.0105288
-0.010041
-0.00960369
-0.00921104
-0.00885898
-0.00854592
-0.411731
-0.379425
-0.348474
-0.318995
-0.29108
-0.264791
-0.240163
-0.217211
-0.195926
-0.17628
-0.158231
-0.141724
-0.12669
-0.113055
-0.100737
-0.0896534
-0.0797158
-0.0708378
-0.0629331
-0.055918
-0.0497115
-0.0442367
-0.0394207
-0.0351952
-0.0314968
-0.028267
-0.0254519
-0.0230026
-0.0208747
-0.0190279
-0.0174265
-0.0160381
-0.0148342
-0.0137895
-0.0128817
-0.0120912
-0.0114009
-0.0107958
-0.0102632
-0.009792
-0.00937261
-0.00899699
-0.00865833
-0.00835095
-0.00807013
-0.00781211
-0.00757396
-0.0073536
-0.00714999
-0.00696338
-0.341417
-0.307111
-0.275342
-0.246074
-0.219248
-0.194781
-0.172576
-0.152518
-0.134486
-0.118347
-0.103967
-0.0912081
-0.0799354
-0.0700156
-0.0613201
-0.0537263
-0.0471184
-0.0413882
-0.0364351
-0.0321669
-0.0284994
-0.0253563
-0.0226688
-0.0203755
-0.0184217
-0.016759
-0.015345
-0.0141423
-0.0131185
-0.0122455
-0.0114988
-0.0108578
-0.0103044
-0.00982367
-0.00940269
-0.00903073
-0.00869884
-0.00839961
-0.00812698
-0.00787604
-0.00764289
-0.00742447
-0.00721845
-0.00702312
-0.00683729
-0.00666024
-0.00649167
-0.00633169
-0.00618092
-0.00604065
-0.262377
-0.230133
-0.201205
-0.175386
-0.152461
-0.132206
-0.114399
-0.0988197
-0.0852536
-0.0734948
-0.0633482
-0.054631
-0.0471732
-0.0408188
-0.0354255
-0.0308649
-0.0270217
-0.0237933
-0.0210892
-0.0188298
-0.0169457
-0.0153767
-0.0140709
-0.0129838
-0.0120774
-0.0113194
-0.0106827
-0.0101444
-0.00968534
-0.00928979
-0.00894464
-0.00863923
-0.0083649
-0.00811473
-0.00788324
-0.00766619
-0.00746035
-0.00726336
-0.00707358
-0.00688992
-0.00671179
-0.00653898
-0.00637155
-0.00620982
-0.00605429
-0.00590557
-0.00576443
-0.00563173
-0.00550852
-0.00539607
-0.185727
-0.15887
-0.13551
-0.115305
-0.0979261
-0.0830578
-0.0704047
-0.0596925
-0.0506691
-0.0431054
-0.0367952
-0.0315547
-0.0272211
-0.0236519
-0.0207231
-0.0183275
-0.0163733
-0.0147823
-0.0134883
-0.0124356
-0.0115778
-0.0108762
-0.0102988
-0.00981948
-0.00941678
-0.00907334
-0.00877519
-0.00851117
-0.00827247
-0.00805225
-0.00784527
-0.0076476
-0.00745642
-0.00726982
-0.00708658
-0.00690608
-0.00672817
-0.00655303
-0.00638115
-0.00621318
-0.00604994
-0.00589231
-0.00574122
-0.00559761
-0.00546238
-0.00533644
-0.00522064
-0.0051158
-0.00502273
-0.00494222
-0.122691
-0.102534
-0.085554
-0.0713369
-0.0595046
-0.0497147
-0.0416611
-0.0350726
-0.0297113
-0.0253708
-0.0218732
-0.0190668
-0.0168235
-0.0150355
-0.0136132
-0.0124824
-0.0115824
-0.0108635
-0.0102856
-0.00981643
-0.00943006
-0.00910599
-0.00882804
-0.00858358
-0.00836282
-0.00815829
-0.00796442
-0.00777712
-0.00759353
-0.00741177
-0.00723073
-0.00704993
-0.00686939
-0.00668948
-0.00651087
-0.00633445
-0.00616121
-0.00599226
-0.00582872
-0.00567173
-0.00552238
-0.00538171
-0.0052507
-0.00513021
-0.00502101
-0.00492379
-0.00483915
-0.00476762
-0.00470966
-0.00466566
-0.0781068
-0.0641585
-0.0527821
-0.0435651
-0.0361458
-0.0302106
-0.0254905
-0.0217573
-0.0188191
-0.0165163
-0.0147172
-0.0133143
-0.0122206
-0.0113661
-0.010695
-0.0101633
-0.00973623
-0.00938682
-0.00909413
-0.00884206
-0.00861834
-0.00841371
-0.00822126
-0.00803598
-0.0078543
-0.00767381
-0.00749304
-0.0073112
-0.0071281
-0.006944
-0.00675947
-0.00657535
-0.00639266
-0.00621256
-0.00603624
-0.00586493
-0.00569984
-0.00554215
-0.00539295
-0.00525326
-0.00512401
-0.00500601
-0.00490014
-0.00480694
-0.00472688
-0.00466034
-0.00460768
-0.00456919
-0.00454511
-0.00453569
-0.0494225
-0.0404225
-0.0333128
-0.0277325
-0.0233785
-0.0199993
-0.017388
-0.0153765
-0.0138297
-0.0126397
-0.0117213
-0.0110079
-0.0104479
-0.0100016
-0.00963841
-0.00933537
-0.00907504
-0.00884438
-0.0086337
-0.00843584
-0.00824562
-0.00805934
-0.00787447
-0.00768941
-0.00750324
-0.00731563
-0.00712668
-0.00693685
-0.00674688
-0.0065577
-0.0063704
-0.00618614
-0.00600614
-0.00583161
-0.00566375
-0.00550369
-0.0053525
-0.00521112
-0.00508043
-0.00496118
-0.00485402
-0.0047595
-0.00467806
-0.00461006
-0.00455579
-0.00451548
-0.00448929
-0.00447736
-0.00447981
-0.00449677
-0.0327033
-0.0271408
-0.0228673
-0.0195993
-0.0171084
-0.0152125
-0.0137681
-0.0126635
-0.0118123
-0.0111487
-0.0106228
-0.0101973
-0.00984442
-0.00954346
-0.00927931
-0.00904086
-0.00881996
-0.00861068
-0.00840873
-0.00821102
-0.00801542
-0.00782051
-0.00762544
-0.00742984
-0.00723373
-0.00703743
-0.00684151
-0.00664678
-0.00645415
-0.00626466
-0.00607944
-0.00589958
-0.00572623
-0.00556043
-0.00540321
-0.00525549
-0.00511811
-0.00499179
-0.00487718
-0.0047748
-0.00468508
-0.00460837
-0.00454493
-0.00449498
-0.00445864
-0.00443602
-0.00442719
-0.00443218
-0.00445104
-0.00448379
-0.0238603
-0.0204624
-0.0178941
-0.0159515
-0.014476
-0.0133462
-0.0124703
-0.0117795
-0.0112231
-0.0107639
-0.010375
-0.0100369
-0.00973584
-0.00946173
-0.00920736
-0.00896746
-0.00873813
-0.00851646
-0.00830026
-0.00808792
-0.00787825
-0.00767047
-0.00746416
-0.00725915
-0.0070556
-0.00685386
-0.00665449
-0.00645823
-0.00626591
-0.00607845
-0.00589681
-0.00572194
-0.0055548
-0.00539627
-0.00524717
-0.00510825
-0.00498017
-0.00486348
-0.00475866
-0.00466608
-0.00458606
-0.00451881
-0.00446452
-0.00442329
-0.00439519
-0.00438027
-0.00437854
-0.00439001
-0.00441468
-0.00445253
-0.0199599
-0.0177793
-0.0161232
-0.0148497
-0.0138529
-0.0130553
-0.0124006
-0.0118489
-0.0113719
-0.0109502
-0.0105701
-0.0102223
-0.00990023
-0.00959914
-0.00931545
-0.00904631
-0.00878936
-0.0085426
-0.00830429
-0.00807295
-0.00784734
-0.00762653
-0.00740982
-0.0071968
-0.00698735
-0.00678153
-0.00657968
-0.00638226
-0.00618988
-0.00600326
-0.00582317
-0.00565038
-0.00548567
-0.00532979
-0.00518341
-0.00504716
-0.00492157
-0.00480711
-0.00470417
-0.00461306
-0.004534
-0.00446718
-0.00441273
-0.00437072
-0.00434119
-0.00432417
-0.00431964
-0.0043276
-0.00434802
-0.0043809
-0.0190355
-0.0175048
-0.0162924
-0.0153063
-0.0144805
-0.0137691
-0.0131404
-0.0125736
-0.0120548
-0.0115753
-0.0111296
-0.0107139
-0.0103256
-0.00996251
-0.0096225
-0.00930355
-0.00900349
-0.00872014
-0.00845134
-0.00819502
-0.00794929
-0.00771252
-0.00748333
-0.0072607
-0.00704388
-0.00683246
-0.00662628
-0.00642544
-0.00623022
-0.00604106
-0.0058585
-0.00568313
-0.00551558
-0.00535648
-0.00520641
-0.00506594
-0.00493554
-0.00481564
-0.00470659
-0.00460869
-0.00452215
-0.00444715
-0.0043838
-0.00433217
-0.00429231
-0.00426421
-0.00424788
-0.00424328
-0.00425038
-0.00426916
-0.0205285
-0.0192279
-0.0181273
-0.0171645
-0.0162976
-0.0155
-0.0147555
-0.0140554
-0.0133953
-0.0127735
-0.0121897
-0.0116439
-0.0111359
-0.010665
-0.0102297
-0.00982804
-0.00945739
-0.00911474
-0.0087969
-0.0085006
-0.00822273
-0.00796039
-0.00771103
-0.0074725
-0.00724307
-0.00702145
-0.00680673
-0.00659836
-0.00639612
-0.00620003
-0.00601031
-0.00582732
-0.00565152
-0.0054834
-0.0053235
-0.00517231
-0.00503031
-0.00489792
-0.00477552
-0.00466341
-0.00456183
-0.00447098
-0.00439099
-0.00432196
-0.00426394
-0.00421695
-0.00418097
-0.00415598
-0.00414195
-0.00413881
-0.0243963
-0.0231051
-0.0219203
-0.020804
-0.0197345
-0.0187013
-0.0177016
-0.0167371
-0.0158123
-0.0149323
-0.0141024
-0.0133266
-0.0126074
-0.0119459
-0.0113415
-0.0107922
-0.0102946
-0.00984442
-0.00943697
-0.00906707
-0.00872955
-0.00841948
-0.00813228
-0.00786389
-0.00761084
-0.00737029
-0.00713998
-0.00691825
-0.00670392
-0.00649629
-0.00629499
-0.00609997
-0.00591137
-0.00572951
-0.00555478
-0.00538764
-0.00522854
-0.00507792
-0.0049362
-0.00480374
-0.00468084
-0.00456776
-0.00446467
-0.00437173
-0.00428902
-0.0042166
-0.00415446
-0.00410261
-0.004061
-0.00402957
-0.0321749
-0.0306471
-0.0291482
-0.0276566
-0.026165
-0.0246764
-0.0232006
-0.021751
-0.0203424
-0.0189897
-0.017706
-0.016502
-0.0153856
-0.0143615
-0.0134314
-0.0125939
-0.0118455
-0.0111805
-0.0105917
-0.0100711
-0.00961025
-0.00920071
-0.00883433
-0.0085036
-0.00820184
-0.00792325
-0.00766299
-0.00741716
-0.00718274
-0.00695747
-0.00673982
-0.00652879
-0.00632387
-0.00612489
-0.00593193
-0.00574527
-0.00556528
-0.0053924
-0.00522707
-0.00506973
-0.00492077
-0.00478052
-0.00464929
-0.00452728
-0.00441468
-0.0043116
-0.0042181
-0.00413422
-0.00405993
-0.00399521
-0.0468373
-0.0448341
-0.0427555
-0.0405945
-0.0383587
-0.0360664
-0.0337435
-0.0314201
-0.0291282
-0.0268986
-0.02476
-0.0227367
-0.0208481
-0.0191082
-0.0175252
-0.0161017
-0.0148357
-0.0137207
-0.0127469
-0.0119021
-0.0111726
-0.010544
-0.0100017
-0.00953198
-0.00912192
-0.00875999
-0.00843617
-0.00814195
-0.00787039
-0.00761595
-0.0073744
-0.00714264
-0.00691853
-0.00670068
-0.00648834
-0.00628119
-0.00607927
-0.00588283
-0.00569225
-0.005508
-0.00533055
-0.00516036
-0.00499787
-0.00484343
-0.00469736
-0.00455989
-0.00443121
-0.00431144
-0.00420064
-0.00409884
-0.0762375
-0.0731954
-0.069995
-0.0666021
-0.0630138
-0.0592523
-0.0553586
-0.0513862
-0.047395
-0.0434471
-0.0396021
-0.0359143
-0.0324307
-0.0291885
-0.0262144
-0.0235244
-0.021124
-0.0190093
-0.0171686
-0.015584
-0.0142331
-0.0130909
-0.0121312
-0.0113276
-0.0106551
-0.0100904
-0.00961253
-0.00920311
-0.00884652
-0.00852985
-0.00824268
-0.00797687
-0.00772628
-0.00748644
-0.00725429
-0.00702783
-0.00680593
-0.00658809
-0.00637426
-0.00616466
-0.00595975
-0.00576003
-0.00556608
-0.00537843
-0.0051976
-0.00502403
-0.00485809
-0.00470008
-0.00455024
-0.00440871
-0.141467
-0.13468
-0.128286
-0.121964
-0.115444
-0.108634
-0.101541
-0.0942339
-0.0868073
-0.0793635
-0.0720079
-0.0648478
-0.0579865
-0.0515159
-0.0455112
-0.040026
-0.035092
-0.0307186
-0.0268964
-0.0236002
-0.0207932
-0.0184311
-0.0164652
-0.0148451
-0.0135211
-0.0124457
-0.0115748
-0.0108688
-0.0102929
-0.00981752
-0.00941787
-0.00907394
-0.00876994
-0.00849371
-0.00823619
-0.00799088
-0.00775331
-0.00752058
-0.007291
-0.00706377
-0.00683869
-0.00661599
-0.00639617
-0.00617986
-0.00596776
-0.00576057
-0.00555892
-0.00536341
-0.00517455
-0.00499275
-0.0174507
-0.0168463
-0.0162712
-0.0157241
-0.0152036
-0.0147085
-0.0142376
-0.0137897
-0.0133637
-0.0129584
-0.012573
-0.0122063
-0.0118573
-0.0115253
-0.0112093
-0.0109084
-0.0106219
-0.0103491
-0.0100891
-0.00984141
-0.0096053
-0.00938019
-0.00916551
-0.00896073
-0.00876537
-0.00857896
-0.00840108
-0.00823132
-0.00806932
-0.00791475
-0.0077673
-0.00762668
-0.00749264
-0.00736495
-0.00724341
-0.00712782
-0.00701803
-0.00691389
-0.00681528
-0.0067221
-0.00663425
-0.00655168
-0.00647431
-0.00640211
-0.00633506
-0.00627313
-0.00621633
-0.00616465
-0.00611812
-0.00607677
-0.00604063
-0.00600974
-0.00598416
-0.00596395
-0.00594916
-0.00593988
-0.00593618
-0.00593815
-0.00594586
-0.00595942
-0.00597891
-0.00600445
-0.00603612
-0.00607405
-0.00611834
-0.0061691
-0.00622644
-0.0062905
-0.00636139
-0.00643922
-0.00652413
-0.00661624
-0.00671568
-0.00682258
-0.00693705
-0.00705925
-0.00718928
-0.00732729
-0.0074734
-0.00762775
-0.00779044
-0.00796162
-0.00814141
-0.00832991
-0.00852726
-0.00873356
-0.00894892
-0.00917344
-0.00940722
-0.00965035
-0.00990291
-0.010165
-0.0104366
-0.0107179
-0.0110088
-0.0113094
-0.0116197
-0.0119397
-0.0122694
-0.0126087
-0.0129577
-0.0133161
-0.0136841
-0.0140613
-0.0144477
-0.0148431
-0.0152473
-0.0156601
-0.0160813
-0.0165105
-0.0169474
-0.0173918
-0.0178431
-0.0183011
-0.0187652
-0.019235
-0.0197099
-0.0201895
-0.020673
-0.0211599
-0.0216496
-0.0221412
-0.0226342
-0.0231278
-0.0236211
-0.0241134
-0.0246038
-0.0250916
-0.0255758
-0.0260556
-0.0265302
-0.0269985
-0.0274598
-0.0279132
-0.0283577
-0.0287926
-0.029217
-0.02963
-0.030031
-0.030419
-0.0307934
-0.0311535
-0.0314986
-0.0318281
-0.0321414
-0.032438
-0.0327175
-0.0329792
-0.033223
-0.0334485
-0.0336553
-0.0338433
-0.0340123
-0.0341622
-0.0342928
-0.0344043
-0.0344966
-0.0345698
-0.0346241
-0.0346596
-0.0346765
-0.0346751
-0.0346557
-0.0346186
-0.0345642
-0.0344929
-0.0344052
-0.0343013
-0.034182
-0.0340475
-0.0338985
-0.0337354
-0.0335588
-0.0333693
-0.0331674
-0.0329536
-0.0327285
-0.0324927
-0.0322468
-0.0319913
-0.0317267
-0.0314537
-0.0311728
-0.0308845
-0.0305894
-0.0302881
-0.029981
-0.0296687
-0.0293518
-0.0290307
-0.0287059
-0.028378
-0.0280475
-0.0277148
-0.0273804
-0.0270448
-0.0267085
-0.026372
-0.0260356
-0.0256998
-0.0253651
-0.025032
-0.0247007
-0.0243718
-0.0240456
-0.0237226
-0.023403
-0.0230873
-0.0227759
-0.022469
-0.022167
-0.0218702
-0.0215789
-0.0212934
-0.0210139
-0.0207406
-0.0204739
-0.0202138
-0.0199607
-0.0197145
-0.0194756
-0.0192439
-0.0190197
-0.0188029
-0.0185937
-0.018392
-0.0181979
-0.0180114
-0.0178324
-0.017661
-0.0174971
-0.0173406
-0.0171914
-0.0170495
-0.0169146
-0.0167869
-0.016666
-0.0165519
-0.0164445
-0.0163436
-0.0162492
-0.016161
-0.0160789
-0.0160029
-0.0159328
-0.0158684
-0.0158098
-0.0157568
-0.0157093
-0.0156672
-0.0156305
-0.0155991
-0.015573
-0.0155521
-0.0155363
-0.0155257
-0.0155201
-0.0155197
-0.0155244
-0.0155341
-0.0155489
-0.0155687
-0.0155935
-0.0156233
-0.0156581
-0.0156977
-0.0157422
-0.0157914
-0.0158453
-0.0159038
-0.0159667
-0.0160338
-0.0161051
-0.0161803
-0.0162592
-0.0163415
-0.0164271
-0.0165158
-0.0166084
-0.0167036
-0.016801
-0.0168997
-0.0169993
-0.017099
-0.0171982
-0.0172963
-0.0173925
-0.0174863
-0.0175769
-0.0176638
-0.0177462
-0.0178234
-0.0178949
-0.01796
-0.0180182
-0.0180684
-0.0181081
-0.0181138
-0.0178507
-0.0149277
-0.0113446
-0.0110385
-0.0107477
-0.0104711
-0.010208
-0.00995766
-0.00971923
-0.00949207
-0.00927551
-0.00906893
-0.00887177
-0.00868348
-0.00850357
-0.00833155
-0.00816702
-0.00800956
-0.00785882
-0.00771446
-0.00757618
-0.0074437
-0.00731679
-0.00719521
-0.00707878
-0.00696733
-0.00686071
-0.00675879
-0.00666147
-0.00656867
-0.00648031
-0.00639634
-0.00631673
-0.00624146
-0.00617052
-0.00610391
-0.00604165
-0.00598378
-0.00593032
-0.00588132
-0.00583684
-0.00579695
-0.0057617
-0.00573118
-0.00570548
-0.00568467
-0.00566884
-0.00565811
-0.00565257
-0.00565232
-0.00565747
-0.00566813
-0.00568443
-0.00570648
-0.00573439
-0.0057683
-0.00580833
-0.0058546
-0.00590726
-0.00596643
-0.00603225
-0.00610485
-0.00618438
-0.00627099
-0.0063648
-0.00646598
-0.00657466
-0.006691
-0.00681515
-0.00694725
-0.00708747
-0.00723596
-0.00739287
-0.00755835
-0.00773257
-0.00791568
-0.00810783
-0.00830917
-0.00851986
-0.00874003
-0.00896985
-0.00920944
-0.00945895
-0.00971851
-0.00998823
-0.0102682
-0.0105586
-0.0108595
-0.011171
-0.0114931
-0.011826
-0.0121696
-0.0125239
-0.0128891
-0.0132651
-0.0136518
-0.0140492
-0.0144572
-0.0148758
-0.0153047
-0.0157437
-0.0161928
-0.0166517
-0.01712
-0.0175975
-0.0180838
-0.0185785
-0.0190812
-0.0195914
-0.0201085
-0.020632
-0.0211613
-0.0216958
-0.0222346
-0.022777
-0.0233224
-0.0238697
-0.0244181
-0.0249668
-0.0255148
-0.026061
-0.0266046
-0.0271444
-0.0276795
-0.0282087
-0.0287311
-0.0292455
-0.029751
-0.0302464
-0.0307307
-0.031203
-0.0316622
-0.0321074
-0.0325376
-0.0329521
-0.03335
-0.0337304
-0.0340927
-0.0344362
-0.0347603
-0.0350644
-0.0353481
-0.0356109
-0.0358525
-0.0360726
-0.0362709
-0.0364473
-0.0366017
-0.0367341
-0.0368445
-0.036933
-0.0369998
-0.0370451
-0.0370691
-0.0370721
-0.0370546
-0.0370169
-0.0369595
-0.0368829
-0.0367875
-0.0366741
-0.0365431
-0.0363951
-0.0362307
-0.0360507
-0.0358556
-0.0356462
-0.0354229
-0.0351866
-0.0349379
-0.0346774
-0.0344057
-0.0341236
-0.0338316
-0.0335304
-0.0332206
-0.0329027
-0.0325773
-0.0322451
-0.0319066
-0.0315622
-0.0312126
-0.0308583
-0.0304997
-0.0301373
-0.0297717
-0.0294033
-0.0290326
-0.0286599
-0.0282859
-0.0279108
-0.0275352
-0.0271594
-0.026784
-0.0264092
-0.0260356
-0.0256635
-0.0252934
-0.0249256
-0.0245605
-0.0241985
-0.0238401
-0.0234855
-0.0231351
-0.0227893
-0.0224485
-0.022113
-0.021783
-0.021459
-0.0211412
-0.0208298
-0.0205252
-0.0202277
-0.0199373
-0.0196544
-0.0193791
-0.0191116
-0.018852
-0.0186005
-0.0183571
-0.0181219
-0.017895
-0.0176764
-0.0174661
-0.0172641
-0.0170703
-0.0168846
-0.0167071
-0.0165376
-0.0163759
-0.0162219
-0.0160756
-0.0159366
-0.015805
-0.0156803
-0.0155626
-0.0154516
-0.0153471
-0.0152489
-0.0151568
-0.0150707
-0.0149903
-0.0149155
-0.0148461
-0.014782
-0.014723
-0.014669
-0.0146198
-0.0145754
-0.0145357
-0.0145007
-0.0144701
-0.0144441
-0.0144226
-0.0144056
-0.0143931
-0.014385
-0.0143815
-0.0143826
-0.0143883
-0.0143986
-0.0144137
-0.0144335
-0.0144582
-0.0144878
-0.0145223
-0.0145618
-0.0146063
-0.0146559
-0.0147105
-0.01477
-0.0148346
-0.0149041
-0.0149784
-0.0150575
-0.0151411
-0.0152293
-0.0153218
-0.0154187
-0.0155204
-0.0156276
-0.0157408
-0.0158582
-0.0159787
-0.0161012
-0.0162251
-0.0163492
-0.0164729
-0.0165953
-0.0167155
-0.0168327
-0.0169461
-0.0170549
-0.0171583
-0.0172556
-0.0173461
-0.0174289
-0.017503
-0.0175632
-0.0175715
-0.0172143
-0.0138844
-0.00833726
-0.00817965
-0.00802847
-0.00788331
-0.00774382
-0.00760965
-0.00748052
-0.00735615
-0.0072363
-0.00712076
-0.00700935
-0.00690191
-0.0067983
-0.00669842
-0.00660217
-0.00650947
-0.00642029
-0.00633459
-0.00625234
-0.00617355
-0.00609823
-0.0060264
-0.0059581
-0.00589337
-0.00583227
-0.00577487
-0.00572123
-0.00567145
-0.0056256
-0.00558378
-0.00554608
-0.00551261
-0.00548347
-0.00545878
-0.00543863
-0.00542316
-0.00541246
-0.00540668
-0.00540592
-0.0054103
-0.00541997
-0.00543504
-0.00545563
-0.00548189
-0.00551394
-0.00555192
-0.00559597
-0.00564621
-0.00570279
-0.00576585
-0.00583553
-0.00591198
-0.00599535
-0.00608578
-0.00618343
-0.00628846
-0.00640101
-0.00652125
-0.00664935
-0.00678546
-0.00692975
-0.0070824
-0.00724356
-0.00741343
-0.00759216
-0.00777994
-0.00797695
-0.00818335
-0.00839934
-0.00862508
-0.00886076
-0.00910654
-0.0093626
-0.00962911
-0.00990623
-0.0101941
-0.0104929
-0.0108028
-0.0111239
-0.0114563
-0.0118002
-0.0121556
-0.0125226
-0.0129013
-0.0132917
-0.0136939
-0.0141079
-0.0145336
-0.014971
-0.01542
-0.0158804
-0.0163522
-0.0168352
-0.0173291
-0.0178336
-0.0183484
-0.0188732
-0.0194075
-0.0199509
-0.0205029
-0.0210628
-0.0216301
-0.0222041
-0.022784
-0.0233691
-0.0239585
-0.0245513
-0.0251466
-0.0257433
-0.0263404
-0.026937
-0.0275317
-0.0281236
-0.0287113
-0.0292938
-0.0298699
-0.0304382
-0.0309977
-0.0315471
-0.0320852
-0.0326108
-0.0331228
-0.0336201
-0.0341017
-0.0345664
-0.0350133
-0.0354415
-0.0358501
-0.0362383
-0.0366054
-0.0369508
-0.0372738
-0.0375739
-0.0378507
-0.0381039
-0.0383331
-0.0385381
-0.0387189
-0.0388754
-0.0390075
-0.0391155
-0.0391995
-0.0392597
-0.0392964
-0.0393101
-0.0393011
-0.0392699
-0.0392171
-0.0391432
-0.039049
-0.038935
-0.0388019
-0.0386504
-0.0384814
-0.0382955
-0.0380935
-0.0378763
-0.0376444
-0.0373988
-0.0371402
-0.0368694