/*--------------------------------*- C++ -*----------------------------------*\
| =========                 |                                                 |
| \\      /  F ield         | OpenFOAM: The Open Source CFD Toolbox           |
|  \\    /   O peration     | Version:  2.4.0                                 |
|   \\  /    A nd           | Web:      www.OpenFOAM.org                      |
|    \\/     M anipulation  |                                                 |
\*---------------------------------------------------------------------------*/
FoamFile
{
    version     2.0;
    format      ascii;
    class       volScalarField;
    location    "4.8";
    object      p;
}
// * * * * * * * * * * * * * * * * * * * * * * * * * * * * * * * * * * * * * //

dimensions      [1 -1 -2 0 0 0 0];

internalField   nonuniform List<scalar> 
8000
(
-1.27192
-1.28337
-1.29251
-1.30345
-1.31459
-1.32541
-1.3364
-1.3475
-1.35883
-1.37029
-1.38192
-1.3937
-1.40567
-1.41778
-1.43007
-1.44261
-1.45594
-1.47024
-1.48274
-1.48226
-1.46102
-1.48776
-1.83499
-2.89548
-4.18317
-3.02845
-1.62644
-0.876134
-0.792026
-0.787432
-0.787216
-0.787213
-0.787245
-0.787274
-0.78729
-0.787303
-0.787314
-0.787323
-0.787331
-0.787338
-0.787345
-0.787352
-0.787354
-0.787293
-0.787265
-0.787396
-0.787402
-0.787409
-0.787417
-0.787427
-1.8316
-1.84216
-1.85227
-1.86459
-1.87561
-1.88649
-1.89727
-1.90799
-1.91862
-1.92918
-1.93957
-1.94988
-1.95991
-1.96978
-1.97965
-1.99093
-2.00347
-2.0079
-1.97353
-1.89476
-2.01319
-3.09049
-5.49123
-3.84719
-2.11788
-0.9605
-0.814447
-0.809619
-0.810014
-0.809984
-0.809967
-0.809968
-0.809961
-0.809954
-0.809946
-0.809939
-0.809932
-0.809925
-0.809919
-0.809914
-0.809908
-0.809904
-0.809901
-0.809899
-0.809896
-0.809897
-0.809897
-0.809887
-0.809869
-0.809908
-2.00346
-2.01007
-2.01704
-2.0271
-2.03773
-2.05004
-2.06401
-2.07966
-2.09698
-2.116
-2.13673
-2.15918
-2.1835
-2.21024
-2.24
-2.27003
-2.28787
-2.28034
-2.31604
-2.70747
-3.8165
-4.60363
-2.52137
-1.13548
-0.840096
-0.831722
-0.832336
-0.832238
-0.83223
-0.832242
-0.832245
-0.832247
-0.832248
-0.832248
-0.832248
-0.832248
-0.832249
-0.83225
-0.832252
-0.832255
-0.832258
-0.832262
-0.832268
-0.832275
-0.832283
-0.832293
-0.832305
-0.83232
-0.832335
-0.832354
-2.23377
-2.24057
-2.24872
-2.25959
-2.27052
-2.2825
-2.29561
-2.30981
-2.32514
-2.34145
-2.35889
-2.37762
-2.39881
-2.42228
-2.44012
-2.42733
-2.38283
-2.51412
-3.4458
-5.32619
-3.36226
-1.53721
-0.877739
-0.855079
-0.855325
-0.855262
-0.85523
-0.855212
-0.85519
-0.855168
-0.855146
-0.855126
-0.855109
-0.855091
-0.855074
-0.855059
-0.855044
-0.855032
-0.85502
-0.855011
-0.855003
-0.854998
-0.854995
-0.854994
-0.854996
-0.855001
-0.855009
-0.855021
-0.855036
-0.855056
-1.65067
-1.66711
-1.68313
-1.69963
-1.71413
-1.72798
-1.74143
-1.75424
-1.76655
-1.77816
-1.78967
-1.80185
-1.81454
-1.81706
-1.78334
-1.72448
-1.90195
-2.98339
-5.00422
-2.00185
-0.988152
-0.878991
-0.877412
-0.877379
-0.877377
-0.877379
-0.877368
-0.877358
-0.877349
-0.877341
-0.877333
-0.877326
-0.87732
-0.877316
-0.877312
-0.87731
-0.877309
-0.877309
-0.877312
-0.877316
-0.877323
-0.877332
-0.877344
-0.877359
-0.877377
-0.877399
-0.877425
-0.877454
-0.877488
-0.877528
-1.9061
-1.92131
-1.93775
-1.95638
-1.97377
-1.99149
-2.00958
-2.02807
-2.0469
-2.06661
-2.08772
-2.10964
-2.12325
-2.1107
-2.09431
-2.29751
-3.17511
-4.10918
-1.33067
-0.910233
-0.899816
-0.899668
-0.899723
-0.899748
-0.899751
-0.899755
-0.899759
-0.899764
-0.899768
-0.899772
-0.899776
-0.89978
-0.899784
-0.899789
-0.899795
-0.899802
-0.89981
-0.89982
-0.899832
-0.899846
-0.899862
-0.899881
-0.899904
-0.899929
-0.899958
-0.899992
-0.90003
-0.900074
-0.900123
-0.900177
-1.64684
-1.66184
-1.67745
-1.69513
-1.71154
-1.72824
-1.74526
-1.76268
-1.78083
-1.80042
-1.82058
-1.83289
-1.82007
-1.80443
-1.99948
-2.83716
-3.71362
-1.07777
-0.924225
-0.921948
-0.922072
-0.922167
-0.922187
-0.922188
-0.92219
-0.922196
-0.922201
-0.922207
-0.922212
-0.922218
-0.922224
-0.922231
-0.922239
-0.922249
-0.922259
-0.922272
-0.922286
-0.922302
-0.922321
-0.922343
-0.922368
-0.922397
-0.92243
-0.922467
-0.922509
-0.922556
-0.922609
-0.922669
-0.922735
-0.922808
-1.3915
-1.40778
-1.42399
-1.44128
-1.45617
-1.47054
-1.48406
-1.49744
-1.51154
-1.52582
-1.53014
-1.50011
-1.45107
-1.63909
-2.68516
-4.18648
-1.12509
-0.94586
-0.944529
-0.944749
-0.944838
-0.944848
-0.944846
-0.944848
-0.944852
-0.944857
-0.944861
-0.944865
-0.94487
-0.944876
-0.944883
-0.94489
-0.944899
-0.944909
-0.944922
-0.944936
-0.944953
-0.944973
-0.944996
-0.945022
-0.945053
-0.945089
-0.945129
-0.945175
-0.945226
-0.945284
-0.945349
-0.945421
-0.945501
-0.945589
-1.43316
-1.44425
-1.45566
-1.46884
-1.48024
-1.49176
-1.5031
-1.51549
-1.52879
-1.53617
-1.51796
-1.47595
-1.58518
-2.34574
-3.66941
-1.74284
-0.969063
-0.967192
-0.967393
-0.967489
-0.967504
-0.967503
-0.967506
-0.96751
-0.967515
-0.96752
-0.967525
-0.967531
-0.967537
-0.967545
-0.967553
-0.967563
-0.967575
-0.967589
-0.967605
-0.967625
-0.967647
-0.967673
-0.967704
-0.967738
-0.967778
-0.967823
-0.967874
-0.967931
-0.967995
-0.968066
-0.968145
-0.968232
-0.968328
-0.968433
-1.27517
-1.28361
-1.29205
-1.30184
-1.31026
-1.31901
-1.32787
-1.33776
-1.3476
-1.34959
-1.33015
-1.31573
-1.5029
-2.22781
-2.91556
-0.995643
-0.990445
-0.990259
-0.990389
-0.990441
-0.990452
-0.990456
-0.990463
-0.99047
-0.990476
-0.990483
-0.99049
-0.990497
-0.990505
-0.990514
-0.990524
-0.990536
-0.99055
-0.990566
-0.990585
-0.990608
-0.990634
-0.990665
-0.9907
-0.99074
-0.990785
-0.990837
-0.990895
-0.99096
-0.991033
-0.991113
-0.991202
-0.9913
-0.991407
-0.991524
-1.2664
-1.27133
-1.27745
-1.28318
-1.28839
-1.29365
-1.29949
-1.30596
-1.30626
-1.28147
-1.23531
-1.34145
-2.08111
-3.31954
-1.41281
-1.01424
-1.01304
-1.01336
-1.01346
-1.01347
-1.01347
-1.01348
-1.01348
-1.01349
-1.0135
-1.01351
-1.01352
-1.01353
-1.01354
-1.01355
-1.01357
-1.01359
-1.01361
-1.01363
-1.01366
-1.01369
-1.01372
-1.01376
-1.01381
-1.01386
-1.01392
-1.01398
-1.01406
-1.01413
-1.01422
-1.01432
-1.01442
-1.01454
-1.01466
-1.01479
-1.09017
-1.09102
-1.09237
-1.09344
-1.09491
-1.09668
-1.09967
-1.10336
-1.1002
-1.07316
-1.03735
-1.18747
-1.95022
-2.95978
-1.03899
-1.03705
-1.03727
-1.03738
-1.03741
-1.03742
-1.03743
-1.03744
-1.03745
-1.03746
-1.03747
-1.03748
-1.03749
-1.0375
-1.03752
-1.03753
-1.03754
-1.03756
-1.03758
-1.03761
-1.03763
-1.03766
-1.0377
-1.03774
-1.03778
-1.03783
-1.03789
-1.03796
-1.03803
-1.03811
-1.03819
-1.03829
-1.03839
-1.03851
-1.03863
-1.03876
-1.31098
-1.29911
-1.28849
-1.27959
-1.27322
-1.26819
-1.26529
-1.26386
-1.26014
-1.24834
-1.24345
-1.33967
-1.67414
-1.75644
-1.06196
-1.06066
-1.06101
-1.06111
-1.06113
-1.06113
-1.06114
-1.06116
-1.06117
-1.06118
-1.06119
-1.06121
-1.06122
-1.06124
-1.06125
-1.06127
-1.0613
-1.06132
-1.06135
-1.06139
-1.06143
-1.06147
-1.06153
-1.06158
-1.06165
-1.06172
-1.06179
-1.06188
-1.06197
-1.06207
-1.06218
-1.0623
-1.06242
-1.06256
-1.0627
-1.06286
-0.815996
-0.78974
-0.762485
-0.736958
-0.715013
-0.696096
-0.680482
-0.656755
-0.594185
-0.502572
-0.676908
-1.89883
-3.89041
-1.08806
-1.08637
-1.0867
-1.08682
-1.08685
-1.08688
-1.0869
-1.08693
-1.08695
-1.08697
-1.087
-1.08702
-1.08704
-1.08706
-1.08709
-1.08712
-1.08715
-1.08718
-1.08722
-1.08726
-1.08729
-1.08734
-1.08738
-1.08743
-1.08748
-1.08754
-1.0876
-1.08767
-1.08774
-1.08782
-1.08791
-1.08801
-1.08811
-1.08822
-1.08834
-1.08846
-1.0886
-0.44154
-0.383165
-0.323851
-0.272395
-0.230784
-0.197548
-0.172392
-0.146198
-0.0962214
-0.0373317
-0.207175
-1.15707
-2.80992
-1.11262
-1.1106
-1.1114
-1.11142
-1.11147
-1.11153
-1.11158
-1.11163
-1.11168
-1.11172
-1.11175
-1.11179
-1.11183
-1.11187
-1.1119
-1.11194
-1.11199
-1.11203
-1.11207
-1.11212
-1.11218
-1.11223
-1.11229
-1.11236
-1.11244
-1.11252
-1.11261
-1.11271
-1.11282
-1.11293
-1.11305
-1.11318
-1.11331
-1.11345
-1.11361
-1.11376
-1.11393
0.550564
0.622526
0.700648
0.782243
0.867746
0.960617
1.06853
1.20261
1.34121
1.33206
0.912666
-0.421323
-1.5599
-1.16164
-1.14242
-1.14044
-1.14093
-1.14109
-1.1411
-1.14107
-1.14106
-1.14104
-1.14102
-1.14101
-1.14099
-1.14099
-1.14099
-1.14099
-1.141
-1.14102
-1.14104
-1.14107
-1.1411
-1.14115
-1.1412
-1.14126
-1.14131
-1.14138
-1.14145
-1.14152
-1.14159
-1.14167
-1.14175
-1.14184
-1.14193
-1.14202
-1.14212
-1.14223
-1.14234
-1.14246
5.0252
5.08136
5.17263
5.29727
5.46282
5.69367
6.00249
6.21058
5.72273
3.06297
0.61969
-3.12269
-1.16445
-1.16634
-1.16869
-1.16879
-1.16871
-1.16861
-1.16852
-1.16844
-1.16837
-1.16829
-1.16823
-1.16818
-1.16813
-1.1681
-1.16808
-1.16807
-1.16807
-1.16807
-1.16809
-1.16812
-1.16815
-1.16818
-1.16823
-1.16828
-1.16833
-1.16839
-1.16845
-1.16852
-1.16859
-1.16867
-1.16876
-1.16886
-1.16896
-1.16907
-1.16919
-1.16931
-1.16944
-1.16957
-2.17244
-2.12827
-2.07106
-1.96287
-1.73217
-1.56601
-2.62016
-6.9813
-10.7644
-7.54322
-0.971983
-0.990149
-1.20914
-1.19965
-1.2011
-1.20155
-1.20147
-1.20129
-1.20114
-1.20102
-1.2009
-1.20079
-1.20068
-1.2006
-1.20052
-1.20045
-1.2004
-1.20035
-1.20032
-1.20029
-1.20027
-1.20026
-1.20026
-1.20027
-1.20028
-1.2003
-1.20032
-1.20034
-1.20038
-1.20041
-1.20045
-1.2005
-1.20055
-1.20059
-1.20064
-1.20068
-1.20072
-1.20076
-1.2008
-1.20084
-9.41485
-9.50036
-9.4812
-9.38499
-10.3339
-15.1621
-22.781
-8.45236
-1.28704
-0.987577
-1.18743
-1.20817
-1.21954
-1.21913
-1.2192
-1.21951
-1.2199
-1.2203
-1.22072
-1.22114
-1.22157
-1.222
-1.22242
-1.22283
-1.22323
-1.22362
-1.22399
-1.22435
-1.22469
-1.22501
-1.22531
-1.22559
-1.22586
-1.22611
-1.22634
-1.22656
-1.22676
-1.22695
-1.22712
-1.22728
-1.22743
-1.22757
-1.22769
-1.2278
-1.22791
-1.22801
-1.22811
-1.2282
-1.22828
-1.22837
-7.22767
-7.40418
-7.6493
-8.42376
-10.4862
-11.7355
-2.00333
-1.38696
-1.24765
-1.25615
-1.25281
-1.25364
-1.25339
-1.2537
-1.25447
-1.25514
-1.25554
-1.25575
-1.25585
-1.25591
-1.25595
-1.25597
-1.25599
-1.256
-1.256
-1.25601
-1.25602
-1.25604
-1.25606
-1.2561
-1.25614
-1.25619
-1.25625
-1.25631
-1.25638
-1.25645
-1.25652
-1.2566
-1.25668
-1.25676
-1.25683
-1.25691
-1.25699
-1.25707
-1.25714
-1.25721
-1.25728
-1.25734
-1.2574
-1.25746
-0.787438
-0.78745
-0.787463
-0.787479
-0.787496
-0.787515
-0.787536
-0.78756
-0.787587
-0.787616
-0.787649
-0.787684
-0.787723
-0.787765
-0.787812
-0.787862
-0.787916
-0.787974
-0.788037
-0.788105
-0.788178
-0.788256
-0.78834
-0.788429
-0.788524
-0.788626
-0.788733
-0.788848
-0.78897
-0.789098
-0.789235
-0.789379
-0.789531
-0.789691
-0.789859
-0.790037
-0.790223
-0.790418
-0.790623
-0.790837
-0.791061
-0.791295
-0.791539
-0.791794
-0.792059
-0.792336
-0.792623
-0.792922
-0.793232
-0.793554
-0.809909
-0.809923
-0.809958
-0.809976
-0.809997
-0.810022
-0.81005
-0.810081
-0.810117
-0.810157
-0.810201
-0.81025
-0.810304
-0.810363
-0.810428
-0.810498
-0.810574
-0.810657
-0.810747
-0.810843
-0.810947
-0.811059
-0.811178
-0.811305
-0.811441
-0.811586
-0.81174
-0.811903
-0.812076
-0.812258
-0.812451
-0.812655
-0.812869
-0.813094
-0.81333
-0.813578
-0.813838
-0.814109
-0.814393
-0.814689
-0.814998
-0.81532
-0.815655
-0.816003
-0.816366
-0.816742
-0.817132
-0.817537
-0.817958
-0.818393
-0.832376
-0.832401
-0.83243
-0.832462
-0.832498
-0.832538
-0.832583
-0.832633
-0.832687
-0.832748
-0.832814
-0.832886
-0.832965
-0.833051
-0.833144
-0.833245
-0.833354
-0.833471
-0.833597
-0.833732
-0.833877
-0.834031
-0.834195
-0.83437
-0.834556
-0.834752
-0.83496
-0.83518
-0.835412
-0.835656
-0.835912
-0.836181
-0.836464
-0.836759
-0.837069
-0.837392
-0.837729
-0.838081
-0.838447
-0.838828
-0.839225
-0.839637
-0.840066
-0.840511
-0.840972
-0.841451
-0.841948
-0.842463
-0.842997
-0.84355
-0.85508
-0.855108
-0.855142
-0.85518
-0.855225
-0.855275
-0.855332
-0.855396
-0.855467
-0.855545
-0.855631
-0.855726
-0.855829
-0.855941
-0.856063
-0.856195
-0.856337
-0.856489
-0.856653
-0.856827
-0.857014
-0.857212
-0.857423
-0.857647
-0.857883
-0.858133
-0.858396
-0.858673
-0.858964
-0.859269
-0.859589
-0.859924
-0.860274
-0.860639
-0.86102
-0.861417
-0.861831
-0.862262
-0.86271
-0.863176
-0.86366
-0.864162
-0.864685
-0.865226
-0.865789
-0.866372
-0.866978
-0.867605
-0.868256
-0.868931
-0.877572
-0.877622
-0.877678
-0.877741
-0.87781
-0.877887
-0.877971
-0.878064
-0.878165
-0.878275
-0.878395
-0.878525
-0.878664
-0.878815
-0.878976
-0.87915
-0.879334
-0.879531
-0.879741
-0.879963
-0.880199
-0.880448
-0.880711
-0.880988
-0.88128
-0.881586
-0.881907
-0.882244
-0.882596
-0.882964
-0.883348
-0.883749
-0.884167
-0.884603
-0.885056
-0.885528
-0.886019
-0.886529
-0.88706
-0.887611
-0.888184
-0.888779
-0.889398
-0.89004
-0.890706
-0.891398
-0.892116
-0.89286
-0.893633
-0.894433
-0.900238
-0.900307
-0.900382
-0.900465
-0.900556
-0.900657
-0.900766
-0.900885
-0.901014
-0.901153
-0.901304
-0.901465
-0.901639
-0.901825
-0.902023
-0.902234
-0.902458
-0.902696
-0.902948
-0.903214
-0.903494
-0.90379
-0.9041
-0.904426
-0.904767
-0.905124
-0.905498
-0.905889
-0.906297
-0.906722
-0.907166
-0.907628
-0.90811
-0.908611
-0.909133
-0.909676
-0.910241
-0.910829
-0.911441
-0.912077
-0.912738
-0.913425
-0.91414
-0.914882
-0.915653
-0.916453
-0.917284
-0.918146
-0.919039
-0.919965
-0.922889
-0.922978
-0.923076
-0.923182
-0.923298
-0.923425
-0.923561
-0.923709
-0.923867
-0.924038
-0.924221
-0.924416
-0.924624
-0.924845
-0.925079
-0.925328
-0.925591
-0.925868
-0.92616
-0.926467
-0.926789
-0.927127
-0.927481
-0.927852
-0.928239
-0.928644
-0.929067
-0.929507
-0.929967
-0.930446
-0.930945
-0.931466
-0.932008
-0.932572
-0.93316
-0.933772
-0.93441
-0.935073
-0.935764
-0.936483
-0.937231
-0.938008
-0.938816
-0.939656
-0.940528
-0.941434
-0.942372
-0.943345
-0.944353
-0.945396
-0.945686
-0.945793
-0.945909
-0.946035
-0.946172
-0.94632
-0.946479
-0.946651
-0.946834
-0.947031
-0.94724
-0.947463
-0.947699
-0.947949
-0.948214
-0.948493
-0.948787
-0.949096
-0.94942
-0.949761
-0.950117
-0.95049
-0.95088
-0.951288
-0.951713
-0.952157
-0.952621
-0.953105
-0.953609
-0.954135
-0.954683
-0.955255
-0.955851
-0.956473
-0.957121
-0.957796
-0.958499
-0.959232
-0.959996
-0.96079
-0.961617
-0.962477
-0.96337
-0.964298
-0.965261
-0.966259
-0.967293
-0.968364
-0.969472
-0.970616
-0.968548
-0.968673
-0.968808
-0.968954
-0.969112
-0.969281
-0.969463
-0.969657
-0.969864
-0.970083
-0.970317
-0.970564
-0.970825
-0.9711
-0.97139
-0.971694
-0.972014
-0.972349
-0.972701
-0.973068
-0.973452
-0.973854
-0.974273
-0.974711
-0.975168
-0.975645
-0.976142
-0.976662
-0.977204
-0.977769
-0.978359
-0.978975
-0.979618
-0.980288
-0.980987
-0.981716
-0.982476
-0.983268
-0.984093
-0.984951
-0.985844
-0.986771
-0.987735
-0.988734
-0.989771
-0.990844
-0.991954
-0.993102
-0.994287
-0.99551
-0.991651
-0.991789
-0.991938
-0.992099
-0.992271
-0.992455
-0.992652
-0.992862
-0.993085
-0.993321
-0.993571
-0.993834
-0.994112
-0.994404
-0.99471
-0.995032
-0.995369
-0.995722
-0.99609
-0.996476
-0.996879
-0.997299
-0.997738
-0.998197
-0.998676
-0.999176
-0.999698
-1.00024
-1.00081
-1.00141
-1.00203
-1.00268
-1.00335
-1.00406
-1.0048
-1.00557
-1.00637
-1.0072
-1.00807
-1.00898
-1.00992
-1.0109
-1.01191
-1.01296
-1.01405
-1.01518
-1.01634
-1.01754
-1.01878
-1.02006
-1.01494
-1.01509
-1.01526
-1.01543
-1.01562
-1.01582
-1.01604
-1.01626
-1.0165
-1.01675
-1.01702
-1.01729
-1.01759
-1.01789
-1.01821
-1.01855
-1.0189
-1.01926
-1.01964
-1.02004
-1.02045
-1.02089
-1.02134
-1.02181
-1.0223
-1.02282
-1.02335
-1.02391
-1.0245
-1.02511
-1.02575
-1.02642
-1.02711
-1.02784
-1.0286
-1.02939
-1.03022
-1.03108
-1.03198
-1.03291
-1.03388
-1.03488
-1.03592
-1.037
-1.03812
-1.03928
-1.04047
-1.0417
-1.04297
-1.04428
-1.03891
-1.03906
-1.03923
-1.03941
-1.0396
-1.0398
-1.04001
-1.04024
-1.04048
-1.04073
-1.04099
-1.04127
-1.04156
-1.04186
-1.04218
-1.04251
-1.04286
-1.04322
-1.0436
-1.044
-1.04441
-1.04484
-1.04528
-1.04575
-1.04624
-1.04675
-1.04729
-1.04785
-1.04843
-1.04904
-1.04968
-1.05034
-1.05104
-1.05177
-1.05253
-1.05332
-1.05415
-1.05501
-1.05591
-1.05684
-1.05781
-1.05881
-1.05986
-1.06094
-1.06206
-1.06321
-1.06441
-1.06564
-1.06691
-1.06822
-1.06302
-1.0632
-1.06338
-1.06358
-1.06378
-1.064
-1.06423
-1.06447
-1.06472
-1.06499
-1.06526
-1.06555
-1.06584
-1.06615
-1.06648
-1.06681
-1.06716
-1.06752
-1.0679
-1.06829
-1.0687
-1.06912
-1.06957
-1.07003
-1.07051
-1.07101
-1.07153
-1.07208
-1.07265
-1.07325
-1.07387
-1.07452
-1.0752
-1.07591
-1.07665
-1.07742
-1.07823
-1.07907
-1.07995
-1.08085
-1.0818
-1.08278
-1.0838
-1.08485
-1.08595
-1.08707
-1.08824
-1.08944
-1.09069
-1.09196
-1.08874
-1.0889
-1.08906
-1.08924
-1.08943
-1.08962
-1.08983
-1.09004
-1.09027
-1.09051
-1.09076
-1.09102
-1.09129
-1.09158
-1.09187
-1.09218
-1.0925
-1.09283
-1.09318
-1.09354
-1.09392
-1.09431
-1.09471
-1.09514
-1.09558
-1.09605
-1.09653
-1.09703
-1.09756
-1.09812
-1.09869
-1.0993
-1.09993
-1.10059
-1.10128
-1.102
-1.10275
-1.10354
-1.10436
-1.10521
-1.1061
-1.10702
-1.10798
-1.10897
-1.11
-1.11107
-1.11217
-1.11331
-1.11448
-1.1157
-1.11411
-1.11429
-1.11449
-1.11469
-1.1149
-1.11512
-1.11535
-1.11558
-1.11583
-1.11608
-1.11634
-1.11661
-1.11689
-1.11718
-1.11748
-1.11778
-1.1181
-1.11842
-1.11876
-1.11911
-1.11947
-1.11984
-1.12023
-1.12063
-1.12104
-1.12147
-1.12192
-1.12239
-1.12288
-1.12339
-1.12392
-1.12447
-1.12505
-1.12565
-1.12628
-1.12693
-1.12762
-1.12834
-1.12908
-1.12986
-1.13067
-1.13151
-1.13238
-1.13329
-1.13423
-1.13521
-1.13622
-1.13727
-1.13835
-1.13947
-1.14259
-1.14272
-1.14286
-1.143
-1.14315
-1.14331
-1.14348
-1.14365
-1.14384
-1.14403
-1.14422
-1.14443
-1.14465
-1.14487
-1.1451
-1.14534
-1.14559
-1.14585
-1.14611
-1.14639
-1.14668
-1.14698
-1.14729
-1.14762
-1.14796
-1.14831
-1.14867
-1.14906
-1.14946
-1.14988
-1.15031
-1.15077
-1.15125
-1.15176
-1.15228
-1.15283
-1.15341
-1.15401
-1.15465
-1.15531
-1.156
-1.15672
-1.15747
-1.15825
-1.15907
-1.15992
-1.1608
-1.16172
-1.16267
-1.16365
-1.16971
-1.16986
-1.17001
-1.17016
-1.17033
-1.17049
-1.17067
-1.17084
-1.17103
-1.17122
-1.17141
-1.17161
-1.17182
-1.17203
-1.17225
-1.17248
-1.17271
-1.17295
-1.17319
-1.17344
-1.1737
-1.17397
-1.17424
-1.17453
-1.17482
-1.17512
-1.17544
-1.17577
-1.17611
-1.17646
-1.17683
-1.17721
-1.17762
-1.17804
-1.17847
-1.17893
-1.17941
-1.17991
-1.18044
-1.18099
-1.18157
-1.18217
-1.18279
-1.18345
-1.18414
-1.18485
-1.18559
-1.18637
-1.18718
-1.18801
-1.20088
-1.20093
-1.20097
-1.20102
-1.20107
-1.20113
-1.20119
-1.20125
-1.20132
-1.2014
-1.20148
-1.20156
-1.20165
-1.20175
-1.20186
-1.20197
-1.20209
-1.20221
-1.20235
-1.20249
-1.20264
-1.2028
-1.20296
-1.20314
-1.20332
-1.20352
-1.20373
-1.20394
-1.20417
-1.20441
-1.20466
-1.20493
-1.20521
-1.20551
-1.20582
-1.20615
-1.2065
-1.20687
-1.20726
-1.20767
-1.2081
-1.20855
-1.20903
-1.20953
-1.21006
-1.21061
-1.21119
-1.2118
-1.21244
-1.2131
-1.22845
-1.22853
-1.22861
-1.22869
-1.22877
-1.22885
-1.22892
-1.229
-1.22908
-1.22916
-1.22924
-1.22932
-1.22941
-1.22949
-1.22958
-1.22968
-1.22978
-1.22988
-1.22999
-1.23011
-1.23023
-1.23035
-1.23049
-1.23062
-1.23077
-1.23092
-1.23108
-1.23125
-1.23143
-1.23162
-1.23181
-1.23202
-1.23224
-1.23247
-1.23271
-1.23296
-1.23323
-1.23351
-1.23381
-1.23412
-1.23445
-1.2348
-1.23516
-1.23555
-1.23595
-1.23638
-1.23683
-1.2373
-1.2378
-1.23833
-1.25751
-1.25756
-1.2576
-1.25765
-1.25768
-1.25772
-1.25776
-1.2578
-1.25783
-1.25787
-1.2579
-1.25794
-1.25797
-1.25801
-1.25806
-1.2581
-1.25815
-1.2582
-1.25826
-1.25832
-1.25838
-1.25846
-1.25853
-1.25862
-1.25871
-1.25881
-1.25891
-1.25902
-1.25914
-1.25927
-1.25941
-1.25956
-1.25971
-1.25987
-1.26004
-1.26024
-1.26043
-1.26064
-1.26086
-1.26109
-1.26134
-1.26159
-1.26187
-1.26216
-1.26246
-1.26278
-1.26312
-1.26348
-1.26386
-1.26425
-0.793811
-0.793996
-0.794186
-0.794381
-0.79458
-0.794784
-0.794993
-0.795207
-0.795427
-0.795652
-0.795883
-0.79612
-0.796362
-0.796611
-0.796865
-0.797127
-0.797394
-0.797668
-0.79795
-0.798238
-0.798534
-0.798837
-0.799147
-0.799466
-0.799793
-0.800128
-0.800472
-0.800825
-0.801186
-0.801558
-0.801938
-0.802329
-0.80273
-0.803141
-0.803564
-0.803997
-0.804442
-0.804898
-0.805367
-0.805848
-0.806342
-0.806849
-0.807369
-0.807903
-0.808451
-0.809014
-0.809591
-0.810184
-0.810792
-0.811416
-0.812056
-0.812713
-0.813387
-0.814078
-0.814787
-0.815513
-0.816258
-0.817022
-0.817804
-0.818605
-0.819426
-0.820266
-0.821126
-0.822006
-0.822906
-0.823827
-0.824768
-0.82573
-0.826712
-0.827716
-0.82874
-0.829785
-0.830851
-0.831937
-0.833044
-0.834172
-0.83532
-0.836489
-0.837677
-0.838885
-0.840112
-0.841359
-0.842624
-0.843907
-0.845208
-0.846526
-0.847861
-0.849213
-0.85058
-0.851962
-0.853358
-0.854769
-0.856192
-0.857627
-0.859074
-0.860532
-0.862001
-0.863478
-0.864964
-0.866458
-0.867959
-0.869466
-0.870979
-0.872497
-0.87402
-0.875546
-0.877075
-0.878606
-0.88014
-0.881675
-0.883211
-0.884748
-0.886285
-0.887822
-0.889359
-0.890897
-0.892433
-0.89397
-0.895506
-0.897042
-0.898578
-0.900114
-0.901651
-0.903189
-0.904728
-0.906269
-0.907812
-0.909357
-0.910906
-0.912459
-0.914017
-0.91558
-0.917149
-0.918726
-0.920309
-0.921902
-0.923504
-0.925116
-0.92674
-0.928376
-0.930025
-0.931688
-0.933367
-0.935062
-0.936774
-0.938505
-0.940256
-0.942027
-0.94382
-0.945636
-0.947477
-0.949342
-0.951234
-0.953154
-0.955103
-0.957082
-0.959091
-0.961134
-0.96321
-0.965321
-0.967468
-0.969651
-0.971873
-0.974135
-0.976436
-0.97878
-0.981165
-0.983594
-0.986067
-0.988584
-0.991148
-0.993758
-0.996416
-0.999121
-1.00187
-1.00468
-1.00753
-1.01043
-1.01338
-1.01638
-1.01942
-1.02252
-1.02567
-1.02886
-1.03211
-1.0354
-1.03873
-1.04212
-1.04554
-1.04902
-1.05253
-1.05609
-1.05968
-1.06331
-1.06698
-1.07069
-1.07443
-1.0782
-1.082
-1.08582
-1.08967
-1.09355
-1.09744
-1.10135
-1.10528
-1.10922
-1.11317
-1.11713
-1.12109
-1.12506
-1.12902
-1.13298
-1.13694
-1.14089
-1.14483
-1.14875
-1.15265
-1.15654
-1.1604
-1.16424
-1.16805
-1.17183
-1.17557
-1.17928
-1.18294
-1.18656
-1.19013
-1.19366
-1.19713
-1.20054
-1.20389
-1.20718
-1.21041
-1.21356
-1.21663
-1.21963
-1.22255
-1.22538
-1.22813
-1.23077
-1.23333
-1.23578
-1.23812
-1.24036
-1.24248
-1.24449
-1.24638
-1.24814
-1.24978
-1.25129
-1.25266
-1.2539
-1.25499
-1.25595
-1.25676
-1.25743
-1.25794
-1.25831
-1.25853
-1.2586
-1.25852
-1.25829
-1.25791
-1.25738
-1.2567
-1.25588
-1.25492
-1.25381
-1.25257
-1.2512
-1.24969
-1.24807
-1.24632
-1.24445
-1.24248
-1.2404
-1.23823
-1.23596
-1.23361
-1.23118
-1.22868
-1.22611
-1.22349
-1.22082
-1.2181
-1.21535
-1.21257
-1.20976
-1.20695
-1.20412
-1.20129
-1.19846
-1.19565
-1.19285
-1.19007
-1.18733
-1.18461
-1.18193
-1.17933
-1.17656
-0.81874
-0.818988
-0.819242
-0.819502
-0.819768
-0.820041
-0.820321
-0.820607
-0.820901
-0.821201
-0.821509
-0.821825
-0.822149
-0.82248
-0.82282
-0.823168
-0.823525
-0.823891
-0.824266
-0.824651
-0.825045
-0.825449
-0.825863
-0.826288
-0.826724
-0.827171
-0.827629
-0.828099
-0.828581
-0.829075
-0.829581
-0.830101
-0.830634
-0.831181
-0.831741
-0.832315
-0.832905
-0.833509
-0.834128
-0.834762
-0.835413
-0.83608
-0.836763
-0.837462
-0.838179
-0.838913
-0.839665
-0.840434
-0.841221
-0.842027
-0.842851
-0.843694
-0.844556
-0.845437
-0.846337
-0.847256
-0.848194
-0.849152
-0.85013
-0.851127
-0.852143
-0.853179
-0.854235
-0.855309
-0.856403
-0.857516
-0.858647
-0.859797
-0.860966
-0.862152
-0.863356
-0.864577
-0.865816
-0.86707
-0.868341
-0.869627
-0.870928
-0.872243
-0.873572
-0.874914
-0.876269
-0.877635
-0.879012
-0.8804
-0.881797
-0.883203
-0.884617
-0.886038
-0.887466
-0.888899
-0.890338
-0.89178
-0.893226
-0.894675
-0.896126
-0.897578
-0.89903
-0.900483
-0.901935
-0.903386
-0.904836
-0.906284
-0.907729
-0.909171
-0.910611
-0.912048
-0.913481
-0.914911
-0.916338
-0.917761
-0.919181
-0.920598
-0.922012
-0.923424
-0.924833
-0.92624
-0.927646
-0.929051
-0.930456
-0.931861
-0.933266
-0.934673
-0.936082
-0.937493
-0.938908
-0.940327
-0.941752
-0.943182
-0.944618
-0.946062
-0.947515
-0.948976
-0.950448
-0.951931
-0.953425
-0.954933
-0.956454
-0.95799
-0.959542
-0.961111
-0.962698
-0.964303
-0.965929
-0.967575
-0.969244
-0.970936
-0.972652
-0.974393
-0.976162
-0.977958
-0.979783
-0.981638
-0.983524
-0.985444
-0.987396
-0.989384
-0.991408
-0.993469
-0.995568
-0.997707
-0.999886
-1.00211
-1.00437
-1.00668
-1.00903
-1.01143
-1.01387
-1.01636
-1.0189
-1.02149
-1.02413
-1.02681
-1.02955
-1.03234
-1.03517
-1.03806
-1.041
-1.04399
-1.04703
-1.05012
-1.05326
-1.05645
-1.05968
-1.06297
-1.0663
-1.06968
-1.0731
-1.07657
-1.08008
-1.08363
-1.08722
-1.09085
-1.09452
-1.09822
-1.10195
-1.10571
-1.1095
-1.11332
-1.11716
-1.12102
-1.1249
-1.1288
-1.13272
-1.13665
-1.14059
-1.14453
-1.14848
-1.15244
-1.15639
-1.16034
-1.16429
-1.16823
-1.17215
-1.17607
-1.17997
-1.18386
-1.18772
-1.19156
-1.19537
-1.19916
-1.20291
-1.20664
-1.21032
-1.21397
-1.21757
-1.22113
-1.22464
-1.2281
-1.2315
-1.23485
-1.23814
-1.24136
-1.24451
-1.24759
-1.2506
-1.25353
-1.25637
-1.25913
-1.26179
-1.26436
-1.26683
-1.2692
-1.27146
-1.27361
-1.27564
-1.27755
-1.27934
-1.28099
-1.28252
-1.28391
-1.28516
-1.28627
-1.28723
-1.28805
-1.28871
-1.28922
-1.28958
-1.28978
-1.28982
-1.2897
-1.28943
-1.289
-1.28841
-1.28766
-1.28676
-1.28571
-1.2845
-1.28315
-1.28166
-1.28002
-1.27825
-1.27635
-1.27432
-1.27217
-1.2699
-1.26753
-1.26505
-1.26248
-1.25982
-1.25707
-1.25425
-1.25136
-1.24841
-1.24541
-1.24237
-1.23928
-1.23617
-1.23303
-1.22988
-1.22672
-1.22356
-1.22039
-1.21724
-1.2141
-1.21098
-1.20788
-1.20481
-1.20176
-1.19878
-1.19564
-0.84399
-0.844305
-0.844626
-0.844956
-0.845293
-0.845639
-0.845993
-0.846355
-0.846727
-0.847108
-0.847499
-0.847899
-0.848309
-0.848729
-0.849159
-0.849601
-0.850053
-0.850516
-0.850992
-0.851479
-0.851978
-0.85249
-0.853014
-0.853551
-0.854102
-0.854667
-0.855245
-0.855838
-0.856446
-0.857068
-0.857705
-0.858358
-0.859027
-0.859711
-0.860412
-0.861129
-0.861864
-0.862615
-0.863383
-0.864169
-0.864973
-0.865794
-0.866633
-0.867491
-0.868366
-0.86926
-0.870173
-0.871104
-0.872053
-0.873022
-0.874008
-0.875013
-0.876037
-0.877079
-0.878139
-0.879217
-0.880313
-0.881427
-0.882558
-0.883707
-0.884872
-0.886053
-0.88725
-0.888464
-0.889692
-0.890935
-0.892192
-0.893463
-0.894747
-0.896043
-0.897351
-0.89867
-0.9
-0.901339
-0.902687
-0.904044
-0.905408
-0.906778
-0.908155
-0.909537
-0.910923
-0.912312
-0.913705
-0.915099
-0.916494
-0.917891
-0.919287
-0.920682
-0.922075
-0.923467
-0.924856
-0.926241
-0.927623
-0.929001
-0.930375
-0.931743
-0.933107
-0.934466
-0.935819
-0.937166
-0.938509
-0.939846
-0.941177
-0.942504
-0.943825
-0.945142
-0.946455
-0.947764
-0.949069
-0.950371
-0.951671
-0.952969
-0.954265
-0.955561
-0.956856
-0.958152
-0.959449
-0.960747
-0.962049
-0.963353
-0.964662
-0.965975
-0.967294
-0.968619
-0.969951
-0.971291
-0.97264
-0.973998
-0.975366
-0.976745
-0.978136
-0.97954
-0.980957
-0.982388
-0.983835
-0.985297
-0.986777
-0.988274
-0.989791
-0.991327
-0.992885
-0.994464
-0.996066
-0.997692
-0.999344
-1.00102
-1.00273
-1.00446
-1.00622
-1.00802
-1.00984
-1.0117
-1.01359
-1.01552
-1.01749
-1.01949
-1.02153
-1.02361
-1.02574
-1.0279
-1.03011
-1.03236
-1.03466
-1.037
-1.03939
-1.04182
-1.0443
-1.04683
-1.04941
-1.05204
-1.05472
-1.05745
-1.06022
-1.06305
-1.06593
-1.06885
-1.07183
-1.07486
-1.07793
-1.08105
-1.08422
-1.08744
-1.0907
-1.094
-1.09735
-1.10075
-1.10418
-1.10765
-1.11116
-1.11471
-1.11829
-1.12191
-1.12556
-1.12923
-1.13294
-1.13667
-1.14042
-1.1442
-1.14799
-1.15181
-1.15563
-1.15947
-1.16332
-1.16718
-1.17105
-1.17491
-1.17878
-1.18265
-1.18651
-1.19037
-1.19422
-1.19806
-1.20189
-1.20571
-1.2095
-1.21328
-1.21703
-1.22076
-1.22446
-1.22814
-1.23178
-1.23538
-1.23895
-1.24249
-1.24597
-1.24942
-1.25281
-1.25615
-1.25944
-1.26267
-1.26584
-1.26895
-1.27198
-1.27495
-1.27784
-1.28065
-1.28338
-1.28602
-1.28857
-1.29103
-1.29338
-1.29563
-1.29778
-1.29981
-1.30173
-1.30352
-1.30519
-1.30673
-1.30814
-1.30942
-1.31055
-1.31154
-1.31238
-1.31308
-1.31362
-1.31401
-1.31425
-1.31433
-1.31425
-1.31401
-1.31361
-1.31305
-1.31233
-1.31146
-1.31043
-1.30925
-1.30791
-1.30643
-1.3048
-1.30303
-1.30112
-1.29908
-1.29691
-1.29462
-1.29222
-1.2897
-1.28708
-1.28436
-1.28154
-1.27865
-1.27567
-1.27263
-1.26951
-1.26635
-1.26313
-1.25987
-1.25658
-1.25325
-1.24991
-1.24655
-1.24317
-1.23979
-1.23641
-1.23303
-1.22965
-1.22628
-1.22292
-1.21957
-1.21625
-1.21281
-0.869468
-0.869852
-0.870245
-0.870647
-0.871058
-0.871481
-0.871913
-0.872356
-0.87281
-0.873275
-0.873752
-0.87424
-0.87474
-0.875253
-0.875778
-0.876316
-0.876867
-0.877432
-0.87801
-0.878603
-0.87921
-0.879831
-0.880467
-0.881118
-0.881785
-0.882467
-0.883165
-0.88388
-0.88461
-0.885357
-0.886121
-0.886902
-0.8877
-0.888515
-0.889347
-0.890197
-0.891065
-0.89195
-0.892853
-0.893774
-0.894713
-0.895669
-0.896643
-0.897635
-0.898644
-0.899671
-0.900715
-0.901777
-0.902855
-0.90395
-0.905062
-0.906189
-0.907333
-0.908492
-0.909666
-0.910855
-0.912058
-0.913274
-0.914504
-0.915747
-0.917001
-0.918267
-0.919544
-0.920831
-0.922127
-0.923432
-0.924746
-0.926066
-0.927393
-0.928726
-0.930064
-0.931405
-0.932751
-0.934099
-0.935448
-0.936799
-0.93815
-0.939501
-0.94085
-0.942198
-0.943543
-0.944885
-0.946223
-0.947557
-0.948886
-0.95021
-0.951529
-0.952841
-0.954147
-0.955447
-0.956739
-0.958026
-0.959305
-0.960577
-0.961843
-0.963102
-0.964354
-0.965601
-0.966841
-0.968076
-0.969305
-0.97053
-0.97175
-0.972967
-0.97418
-0.97539
-0.976599
-0.977805
-0.979011
-0.980216
-0.981422
-0.982629
-0.983837
-0.985048
-0.986262
-0.987479
-0.9887
-0.989927
-0.991159
-0.992397
-0.993642
-0.994895
-0.996155
-0.997425
-0.998704
-0.999993
-1.00129
-1.0026
-1.00393
-1.00526
-1.00661
-1.00798
-1.00936
-1.01075
-1.01216
-1.01359
-1.01504
-1.01651
-1.018
-1.0195
-1.02104
-1.02259
-1.02417
-1.02577
-1.02741
-1.02907
-1.03075
-1.03247
-1.03422
-1.036
-1.03781
-1.03966
-1.04155
-1.04347
-1.04542
-1.04742
-1.04945
-1.05153
-1.05365
-1.0558
-1.05801
-1.06025
-1.06254
-1.06488
-1.06725
-1.06968
-1.07215
-1.07467
-1.07724
-1.07985
-1.08251
-1.08522
-1.08797
-1.09078
-1.09363
-1.09652
-1.09946
-1.10245
-1.10549
-1.10856
-1.11168
-1.11485
-1.11805
-1.1213
-1.12459
-1.12791
-1.13127
-1.13467
-1.1381
-1.14156
-1.14506
-1.14858
-1.15213
-1.15571
-1.15931
-1.16293
-1.16657
-1.17023
-1.17391
-1.1776
-1.1813
-1.18501
-1.18873
-1.19245
-1.19618
-1.19991
-1.20364
-1.20736
-1.21108
-1.2148
-1.2185
-1.22219
-1.22587
-1.22953
-1.23318
-1.2368
-1.2404
-1.24397
-1.24752