/*--------------------------------*- C++ -*----------------------------------*\
| =========                 |                                                 |
| \\      /  F ield         | OpenFOAM: The Open Source CFD Toolbox           |
|  \\    /   O peration     | Version:  2.4.0                                 |
|   \\  /    A nd           | Web:      www.OpenFOAM.org                      |
|    \\/     M anipulation  |                                                 |
\*---------------------------------------------------------------------------*/
FoamFile
{
    version     2.0;
    format      ascii;
    class       volScalarField;
    location    "4.8";
    object      p_rgh;
}
// * * * * * * * * * * * * * * * * * * * * * * * * * * * * * * * * * * * * * //

dimensions      [1 -1 -2 0 0 0 0];

internalField   nonuniform List<scalar> 
8000
(
53.4171
53.4055
53.3961
53.3852
53.3744
53.3636
53.3527
53.3416
53.3302
53.3188
53.3071
53.2954
53.2834
53.2713
53.2589
53.2464
53.233
53.2187
53.2062
53.2067
53.2279
53.2012
52.8539
51.785
46.2281
18.0969
1.34206
0.176469
0.127841
0.120084
0.118915
0.118779
0.1187
0.118646
0.118616
0.118593
0.118575
0.118562
0.118551
0.118541
0.118531
0.118523
0.118518
0.118572
0.118615
0.118472
0.118463
0.118454
0.118445
0.118435
54.2078
54.1971
54.1868
54.1746
54.1637
54.1529
54.1421
54.1314
54.1208
54.1102
54.0998
54.0895
54.0795
54.0696
54.0597
54.0484
54.0359
54.0314
54.0658
54.1445
54.0261
52.948
50.5034
29.7706
2.78571
0.155683
0.127249
0.120084
0.118474
0.118355
0.118349
0.118327
0.118312
0.118309
0.11831
0.118312
0.118315
0.118319
0.118322
0.118325
0.118328
0.11833
0.118332
0.118332
0.118332
0.118331
0.11833
0.118338
0.118361
0.118318
55.3863
55.3795
55.3725
55.3626
55.352
55.3397
55.3257
55.3101
55.2928
55.2737
55.253
55.2306
55.2062
55.1795
55.1497
55.1197
55.1018
55.1093
55.0736
54.6822
53.5633
45.0954
9.10051
0.196355
0.127702
0.12037
0.118505
0.118477
0.118447
0.118414
0.118399
0.118392
0.118375
0.118369
0.118364
0.118359
0.118356
0.118352
0.118348
0.118343
0.118339
0.118333
0.118327
0.118319
0.11831
0.1183
0.118287
0.118273
0.118256
0.118237
56.5063
56.4994
56.4912
56.4804
56.4695
56.4576
56.4445
56.4303
56.415
56.3986
56.3812
56.3625
56.3413
56.3178
56.3
56.3127
56.3572
56.2259
55.2942
53.3752
28.3879
1.06487
0.133624
0.119978
0.117906
0.117827
0.117821
0.117809
0.117813
0.117825
0.11784
0.117859
0.117867
0.117879
0.117893
0.117906
0.117919
0.11793
0.117941
0.117949
0.117956
0.117961
0.117964
0.117965
0.117963
0.117958
0.117949
0.117938
0.117922
0.117903
58.4398
58.4232
58.4071
58.3907
58.3763
58.3625
58.349
58.3362
58.3239
58.3123
58.3008
58.2886
58.2759
58.2734
58.307
58.3659
58.1883
57.1065
53.7834
11.528
0.186821
0.121021
0.118236
0.118084
0.118052
0.11802
0.118005
0.118
0.117999
0.118001
0.118004
0.118008
0.118011
0.118013
0.118016
0.118017
0.118017
0.118016
0.118014
0.118009
0.118002
0.117993
0.117981
0.117966
0.117948
0.117926
0.117901
0.117871
0.117837
0.117798
59.5347
59.5194
59.5028
59.4843
59.467
59.4493
59.4312
59.4127
59.3939
59.3742
59.3531
59.3311
59.3175
59.33
59.3464
59.1431
58.2641
49.4021
4.08374
0.135114
0.11852
0.118173
0.118066
0.118014
0.11799
0.117968
0.117953
0.117942
0.117933
0.117925
0.117919
0.117914
0.117909
0.117903
0.117897
0.11789
0.117881
0.117871
0.11786
0.117846
0.11783
0.117811
0.117789
0.117763
0.117734
0.1177
0.117662
0.117619
0.11757
0.117515
61.1443
61.1292
61.1134
61.0959
61.0796
61.0629
61.0459
61.0285
61.0103
60.9907
60.9706
60.9582
60.971
60.9866
60.7915
59.9528
48.4446
2.24005
0.122808
0.118325
0.118079
0.11795
0.11791
0.117896
0.117884
0.117872
0.117863
0.117855
0.117847
0.117841
0.117834
0.117827
0.117819
0.11781
0.117799
0.117787
0.117773
0.117756
0.117738
0.117716
0.117691
0.117662
0.11763
0.117593
0.117551
0.117503
0.11745
0.117391
0.117325
0.117251
62.75
62.7336
62.7172
62.7001
62.6853
62.6709
62.6574
62.644
62.6299
62.6157
62.6113
62.6413
62.6903
62.5023
61.4562
55.4101
2.82045
0.119954
0.118047
0.117741
0.117622
0.117598
0.117592
0.117585
0.117577
0.11757
0.117565
0.11756
0.117555
0.117549
0.117542
0.117535
0.117526
0.117516
0.117504
0.11749
0.117473
0.117453
0.11743
0.117404
0.117373
0.117338
0.117298
0.117252
0.1172
0.117142
0.117078
0.117005
0.116925
0.116837
64.0586
64.0474
64.0359
64.0229
64.0116
64.0001
63.9887
63.9763
63.963
63.9557
63.9739
64.0158
63.9065
63.1459
61.782
12.1427
0.123989
0.117776
0.117457
0.117332
0.117303
0.117297
0.11729
0.117283
0.117277
0.117272
0.117267
0.117261
0.117254
0.117247
0.117239
0.117229
0.117218
0.117204
0.117188
0.117168
0.117146
0.11712
0.11709
0.117055
0.117015
0.11697
0.11692
0.116862
0.116798
0.116727
0.116648
0.116561
0.116465
0.11636
65.567
65.5584
65.5499
65.5403
65.532
65.5232
65.5143
65.5044
65.4946
65.4926
65.512
65.5263
65.339
64.612
38.3525
0.167585
0.116868
0.116956
0.116795
0.116731
0.116713
0.116705
0.116696
0.116689
0.116682
0.116675
0.116668
0.116661
0.116654
0.116645
0.116635
0.116624
0.11661
0.116594
0.116575
0.116552
0.116526
0.116496
0.116461
0.116421
0.116375
0.116323
0.116265
0.1162
0.116127
0.116047
0.115958
0.11586
0.115753
0.115636
66.9261
66.921
66.9149
66.9093
66.9042
66.8989
66.8931
66.8866
66.8863
66.911
66.9571
66.8509
66.1112
64.8283
6.11071
0.115575
0.116561
0.116193
0.116081
0.116063
0.116057
0.116049
0.11604
0.116032
0.116023
0.116014
0.116006
0.115996
0.115986
0.115973
0.115958
0.115941
0.115921
0.115898
0.115871
0.11584
0.115804
0.115763
0.115717
0.115666
0.115608
0.115543
0.115471
0.115392
0.115305
0.115209
0.115105
0.114991
0.114868
0.114735
68.4527
68.4517
68.4504
68.4495
68.448
68.4462
68.4432
68.4395
68.4427
68.4697
68.5054
68.355
67.5922
42.6003
0.121125
0.114905
0.114644
0.114522
0.114489
0.114477
0.114466
0.114454
0.114442
0.114431
0.11442
0.11441
0.1144
0.11439
0.114378
0.114365
0.114349
0.114332
0.114311
0.114288
0.114261
0.11423
0.114195
0.114155
0.11411
0.114059
0.114002
0.113938
0.113867
0.113788
0.113701
0.113606
0.113501
0.113387
0.113264
0.11313
69.5822
69.5939
69.6046
69.6137
69.62
69.625
69.6279
69.6294
69.6331
69.6448
69.6496
69.5527
69.2186
13.2542
0.112367
0.113629
0.113261
0.113154
0.113135
0.113127
0.113116
0.113101
0.113088
0.113077
0.113066
0.113054
0.11304
0.113025
0.113008
0.112988
0.112965
0.112938
0.112907
0.112872
0.112832
0.112786
0.112735
0.112678
0.112615
0.112544
0.112467
0.112383
0.112291
0.112191
0.112082
0.111965
0.111839
0.111704
0.111559
0.111404
71.4275
71.4536
71.481
71.5067
71.5286
71.5475
71.5631
71.5868
71.6493
71.7409
71.5663
70.3447
60.8486
0.112865
0.110284
0.109937
0.109811
0.109773
0.10975
0.109726
0.1097
0.109675
0.109653
0.109631
0.109609
0.109586
0.109563
0.109537
0.109509
0.109479
0.109447
0.109411
0.109371
0.109333
0.109292
0.109246
0.109197
0.109144
0.109087
0.109024
0.108957
0.108883
0.108803
0.108716
0.108622
0.10852
0.10841
0.108292
0.108165
0.108029
73.1523
73.2105
73.27
73.3216
73.3631
73.3964
73.4215
73.4476
73.4976
73.5564
73.3862
72.4368
34.1949
0.109179
0.108407
0.1076
0.107573
0.107521
0.107463
0.107409
0.10736
0.107317
0.107278
0.10724
0.107203
0.107166
0.107129
0.10709
0.10705
0.107009
0.106965
0.10692
0.106873
0.106819
0.106761
0.106702
0.10663
0.106553
0.10647
0.10638
0.106282
0.106178
0.106066
0.105946
0.105819
0.105684
0.10554
0.105389
0.105229
0.105062
75.4948
75.5665
75.6448
75.7266
75.812
75.9049
76.0128
76.1467
76.2853
76.2761
75.8567
74.5058
16.0428
0.223573
0.0989439
0.100928
0.100427
0.100268
0.100264
0.100285
0.100304
0.100322
0.100339
0.100354
0.100366
0.100374
0.100376
0.100372
0.100363
0.100346
0.100323
0.100294
0.100258
0.100215
0.100165
0.100106
0.100048
0.0999821
0.099909
0.0998414
0.099769
0.0996917
0.09961
0.0995238
0.099433
0.0993373
0.0992363
0.0991298
0.0990175
0.0988992
81.3198
81.3758
81.4672
81.5919
81.7574
81.9882
82.2969
82.505
82.0171
79.3122
76.8609
23.0193
0.100138
0.102727
0.0950381
0.0949422
0.0950163
0.0951157
0.0952024
0.0952836
0.0953611
0.0954331
0.0954969
0.095551
0.0955944
0.0956269
0.0956487
0.09566
0.0956614
0.0956536
0.0956371
0.0956129
0.0955815
0.0955435
0.0954997
0.0954504
0.0953968
0.0953402
0.0952816
0.0952093
0.0951343
0.0950547
0.0949657
0.0948693
0.0947662
0.0946565
0.0945405
0.0944183
0.0942902
0.0941563
75.4725
75.5165
75.5739
75.6821
75.9127
76.0786
75.0243
70.6038
66.7351
11.3769
0.907251
1.00883
0.0769642
0.0864534
0.0849941
0.0845398
0.0846224
0.0848001
0.0849496
0.0850785
0.0851981
0.0853092
0.0854102
0.0854998
0.0855777
0.0856442
0.0856995
0.0857443
0.0857791
0.0858047
0.0858217
0.0858307
0.0858325
0.0858276
0.0858165
0.0857997
0.0857777
0.0857507
0.085719
0.0856822
0.0856401
0.0855947
0.0855496
0.0855032
0.0854592
0.0854172
0.0853764
0.0853361
0.0852958
0.0852548
69.5804
69.4949
69.5141
69.6102
68.6606
63.827
55.8937
4.03775
0.517123
0.654693
0.130999
0.109821
0.0889226
0.0893383
0.0892656
0.0889477
0.0885592
0.088158
0.0877454
0.0873228
0.0868947
0.0864667
0.0860437
0.0856299
0.0852281
0.0848406
0.0844688
0.0841137
0.083776
0.0834559
0.0831535
0.0828687
0.0826014
0.0823512
0.0821176
0.0819002
0.0816983
0.0815112
0.0813382
0.0811785
0.0810313
0.080896
0.0807724
0.0806594
0.0805522
0.0804506
0.0803549
0.0802644
0.0801767
0.0800914
73.118
72.9414
72.6963
71.9217
69.857
53.7488
0.217934
0.133507
0.100451
0.0799567
0.0790428
0.0772591
0.0774437
0.0771349
0.0763573
0.0756929
0.0752878
0.0750803
0.0749745
0.0749156
0.0748803
0.0748556
0.0748398
0.0748323
0.0748287
0.0748234
0.0748121
0.0747928
0.0747653
0.0747303
0.0746879
0.0746384
0.0745823
0.0745202
0.0744531
0.0743818
0.0743073
0.0742305
0.0741522
0.074073
0.0739939
0.0739154
0.0738381
0.0737627
0.0736895
0.0736187
0.0735503
0.0734847
0.0734237
0.0733676
0.118423
0.118411
0.118397
0.118381
0.118363
0.118344
0.118322
0.118298
0.118272
0.118242
0.11821
0.118174
0.118135
0.118093
0.118047
0.117997
0.117942
0.117884
0.117821
0.117753
0.11768
0.117602
0.117519
0.117429
0.117334
0.117233
0.117125
0.11701
0.116889
0.11676
0.116624
0.11648
0.116328
0.116167
0.115999
0.115822
0.115635
0.11544
0.115236
0.115021
0.114797
0.114563
0.114319
0.114064
0.113799
0.113523
0.113236
0.112937
0.112627
0.112305
0.118316
0.118305
0.118267
0.118249
0.118228
0.118203
0.118175
0.118144
0.118108
0.118068
0.118024
0.117975
0.117921
0.117862
0.117797
0.117727
0.117651
0.117568
0.117478
0.117382
0.117278
0.117167
0.117047
0.11692
0.116784
0.116639
0.116486
0.116322
0.11615
0.115967
0.115774
0.115571
0.115356
0.115131
0.114895
0.114647
0.114387
0.114116
0.113832
0.113536
0.113227
0.112905
0.11257
0.112222
0.11186
0.111484
0.111093
0.110688
0.110268
0.109832
0.118215
0.11819
0.118162
0.11813
0.118094
0.118054
0.118009
0.117959
0.117904
0.117844
0.117778
0.117706
0.117627
0.117541
0.117448
0.117347
0.117238
0.117121
0.116995
0.11686
0.116715
0.116561
0.116397
0.116222
0.116037
0.11584
0.115632
0.115412
0.11518
0.114936
0.11468
0.114411
0.114128
0.113833
0.113523
0.1132
0.112863
0.112511
0.112145
0.111764
0.111367
0.110955
0.110526
0.110082
0.10962
0.109141
0.108644
0.108129
0.107595
0.107042
0.117879
0.117851
0.117817
0.117778
0.117734
0.117683
0.117627
0.117563
0.117492
0.117414
0.117328
0.117233
0.11713
0.117018
0.116896
0.116764
0.116622
0.11647
0.116306
0.116131
0.115945
0.115746
0.115536
0.115312
0.115076
0.114826
0.114563
0.114286
0.113995
0.11369
0.11337
0.113035
0.112686
0.11232
0.111939
0.111542
0.111128
0.110697
0.110249
0.109783
0.109299
0.108796
0.108274
0.107732
0.10717
0.106586
0.105981
0.105353
0.104702
0.104028
0.117754
0.117704
0.117648
0.117585
0.117516
0.117439
0.117354
0.117262
0.117161
0.11705
0.116931
0.116801
0.116661
0.116511
0.116349
0.116176
0.115991
0.115794
0.115585
0.115362
0.115127
0.114878
0.114615
0.114337
0.114046
0.11374
0.113419
0.113082
0.11273
0.112362
0.111978
0.111577
0.111159
0.110723
0.11027
0.109798
0.109307
0.108797
0.108266
0.107715
0.107142
0.106546
0.105928
0.105286
0.104619
0.103928
0.10321
0.102465
0.101692
0.100892
0.117454
0.117386
0.117311
0.117228
0.117136
0.117036
0.116927
0.116808
0.116679
0.116539
0.116389
0.116227
0.116054
0.115868
0.11567
0.115459
0.115234
0.114996
0.114745
0.114479
0.114198
0.113903
0.113593
0.113267
0.112926
0.112568
0.112195
0.111804
0.111396
0.110971
0.110527
0.110065
0.109583
0.109082
0.10856
0.108016
0.107451
0.106863
0.106252
0.105616
0.104954
0.104267
0.103552
0.10281
0.102039
0.101238
0.100408
0.0995458
0.0986522
0.0977264
0.117171
0.117082
0.116984
0.116877
0.116761
0.116635
0.116498
0.116351
0.116192
0.116022
0.115839
0.115644
0.115436
0.115215
0.11498
0.114732
0.114469
0.114192
0.1139
0.113593
0.113271
0.112933
0.112578
0.112208
0.11182
0.111416
0.110993
0.110553
0.110093
0.109614
0.109114
0.108594
0.108052
0.107487
0.106899
0.106287
0.105649
0.104986
0.104295
0.103576
0.102828
0.10205
0.101242
0.100402
0.0995298
0.0986245
0.0976857
0.0967125
0.0957045
0.0946615
0.11674
0.116634
0.116518
0.116391
0.116254
0.116106
0.115947
0.115776
0.115592
0.115396
0.115186
0.114964
0.114727
0.114477
0.114213
0.113934
0.11364
0.113331
0.113006
0.112666
0.11231
0.111937
0.111547
0.111139
0.110714
0.110269
0.109806
0.109322
0.108818
0.108292
0.107743
0.107171
0.106575
0.105953
0.105305
0.10463
0.103926
0.103193
0.10243
0.101635
0.100808
0.0999483
0.0990548
0.0981269
0.097164
0.0961655
0.095131
0.0940602
0.0929524
0.091808
0.116245
0.11612
0.115985
0.115839
0.115681
0.115512
0.11533
0.115136
0.11493
0.11471
0.114477
0.11423
0.113969
0.113693
0.113404
0.113099
0.112779
0.112444
0.112093
0.111726
0.111341
0.11094
0.110521
0.110083
0.109626
0.109149
0.108651
0.108132
0.10759
0.107024
0.106434
0.105818
0.105175
0.104505
0.103805
0.103076
0.102316
0.101524
0.100699
0.0998407
0.0989479
0.0980201
0.0970567
0.096057
0.0950207
0.0939475
0.0928371
0.0916892
0.0905035
0.0892806
0.115509
0.115371
0.115222
0.115061
0.114889
0.114705
0.114508
0.114298
0.114075
0.113839
0.11359
0.113326
0.113049
0.112757
0.11245
0.112129
0.111792
0.111439
0.11107
0.110685
0.110282
0.109861
0.109422
0.108963
0.108484
0.107984
0.107462
0.106917
0.106348
0.105753
0.105132
0.104483
0.103806
0.103099
0.102361
0.101592
0.10079
0.0999541
0.099084
0.0981787
0.0972376
0.0962602
0.0952461
0.0941947
0.0931059
0.0919795
0.0908153
0.0896133
0.0883731
0.0870956
0.114591
0.114436
0.11427
0.114093
0.113904
0.113703
0.11349
0.113265
0.113026
0.112775
0.11251
0.112232
0.111941
0.111635
0.111316
0.110981
0.110632
0.110267
0.109886
0.109488
0.109074
0.108641
0.108189
0.107718
0.107226
0.106712
0.106175
0.105614
0.105029
0.104417
0.103777
0.10311
0.102412
0.101684
0.100924
0.100131
0.0993045
0.0984437
0.0975476
0.0966157
0.0956474
0.0946422
0.0935997
0.0925197
0.091402
0.0902464
0.089053
0.0878216
0.0865521
0.0852453
0.112986
0.112831
0.112664
0.112487
0.112297
0.112096
0.111882
0.111656
0.111418
0.111167
0.110903
0.110626
0.110335
0.110031
0.109713
0.109381
0.109034
0.108672
0.108293
0.107899
0.107487
0.107058
0.106609
0.106141
0.105652
0.10514
0.104606
0.104048
0.103464
0.102854
0.102216
0.101549
0.100852
0.100124
0.0993637
0.0985706
0.0977437
0.0968821
0.0959852
0.0950523
0.0940829
0.0930766
0.0920331
0.090952
0.0898332
0.0886767
0.0874825
0.0862504
0.0849802
0.0836731
0.11124
0.111065
0.110879
0.110683
0.110476
0.110259
0.11003
0.10979
0.109539
0.109276
0.109002
0.108716
0.108418
0.108108
0.107785
0.107449
0.107101
0.106738
0.106361
0.105969
0.105561
0.105136
0.104694
0.104233
0.103752
0.10325
0.102727
0.10218
0.10161
0.101013
0.10039
0.0997389
0.0990589
0.0983488
0.0976075
0.0968342
0.0960279
0.0951878
0.0943133
0.0934036
0.0924583
0.0914768
0.0904589
0.0894041
0.0883123
0.0871834
0.0860174
0.0848141
0.0835729
0.0822955
0.107883
0.107728
0.107563
0.107388
0.107202
0.107007
0.1068
0.106583
0.106355
0.106116
0.105867
0.105606
0.105334
0.10505
0.104755
0.104447
0.104127
0.103794
0.103447
0.103087
0.102711
0.10232
0.101913
0.101488
0.101044
0.100581
0.100098
0.0995921
0.0990637
0.0985112
0.0979333
0.0973289
0.096697
0.0960363
0.0953459
0.0946248
0.0938721
0.0930868
0.0922683
0.0914158
0.0905288
0.0896067
0.088649
0.0876554
0.0866256
0.0855596
0.084457
0.0833175
0.0821406
0.0809278
0.104885
0.104701
0.104507
0.104306
0.104095
0.103877
0.103649
0.103413
0.103169
0.102916
0.102654
0.102384
0.102105
0.101817
0.10152
0.101213
0.100897
0.100571
0.100234
0.0998855
0.0995255
0.0991529
0.098767
0.0983667
0.0979513
0.0975196
0.0970705
0.096603
0.0961158
0.0956079
0.095078
0.0945249
0.0939475
0.0933447
0.0927153
0.0920583
0.0913726
0.0906574
0.0899117
0.0891348
0.0883258
0.0874843
0.0866095
0.0857009
0.0847581
0.083781
0.082769
0.0817216
0.0806378
0.0795198
0.0987745
0.0986434
0.0985054
0.0983605
0.0982084
0.098049
0.0978821
0.0977076
0.0975254
0.0973353
0.0971372
0.096931
0.0967166
0.0964939
0.0962627
0.0960227
0.0957736
0.0955153
0.0952473
0.0949692
0.0946804
0.0943804
0.0940685
0.0937441
0.0934063
0.0930542
0.0926869
0.0923035
0.091903
0.0914842
0.091046
0.0905875
0.0901073
0.0896045
0.089078
0.0885265
0.0879492
0.087345
0.0867129
0.0860521
0.0853616
0.0846408
0.0838889
0.0831052
0.0822893
0.0814406
0.0805587
0.0796427
0.0786913
0.0777067
0.0940167
0.0938715
0.0937207
0.0935645
0.0934026
0.0932353
0.0930624
0.092884
0.0927
0.0925103
0.0923151
0.0921141
0.0919073
0.0916947
0.0914761
0.0912514
0.0910204
0.0907829
0.0905386
0.0902872
0.0900283
0.0897615
0.0894862
0.089202
0.088908
0.0886037
0.0882883
0.0879609
0.0876206
0.0872664
0.0868975
0.0865127
0.0861111
0.0856915
0.0852528
0.0847941
0.0843141
0.0838118
0.0832862
0.0827363
0.0821612
0.0815599
0.0809315
0.0802752
0.0795904
0.0788764
0.0781325
0.0773575
0.0765496
0.0757119
0.0852126
0.0851687
0.0851224
0.0850735
0.0850213
0.0849655
0.0849057
0.0848413
0.0847722
0.0846979
0.0846181
0.0845324
0.0844407
0.0843426
0.0842379
0.0841263
0.0840076
0.0838816
0.083748
0.0836065
0.0834569
0.0832989
0.0831321
0.0829563
0.0827709
0.0825756
0.0823698
0.082153
0.0819247
0.081684
0.0814304
0.0811631
0.0808813
0.080584
0.0802705
0.0799399
0.0795911
0.0792233
0.0788354
0.0784266
0.0779959
0.0775424
0.0770651
0.0765631
0.0760358
0.0754823
0.074902
0.0742934
0.0736544
0.0729876
0.0800081
0.0799268
0.0798472
0.0797689
0.0796916
0.0796149
0.0795384
0.0794616
0.079384
0.0793052
0.0792248
0.0791422
0.0790571
0.078969
0.0788775
0.0787822
0.0786827
0.0785785
0.0784695
0.0783551
0.0782351
0.0781095
0.0779768
0.0778379
0.077692
0.0775388
0.0773778
0.0772087
0.0770309
0.0768442
0.0766478
0.0764413
0.0762241
0.0759954
0.0757546
0.0755008
0.0752337
0.074952
0.0746552
0.0743422
0.0740123
0.0736645
0.0732981
0.0729121
0.0725056
0.072078
0.0716284
0.0711553
0.0706563
0.0701342
0.0733162
0.0732692
0.0732251
0.0731834
0.0731437
0.0731058
0.0730693
0.0730336
0.0729985
0.0729636
0.0729284
0.0728923
0.0728549
0.0728156
0.072774
0.0727294
0.0726814
0.0726295
0.0725733
0.0725122
0.072446
0.0723741
0.0722962
0.072212
0.0721211
0.0720233
0.0719182
0.0718055
0.071685
0.0715563
0.0714192
0.0712733
0.0711186
0.0709542
0.0707915
0.0705925
0.0703961
0.0701889
0.0699695
0.0697376
0.0694925
0.0692336
0.06896
0.068671
0.0683663
0.0680449
0.0677063
0.0673489
0.0669706
0.0665731
0.112047
0.111862
0.111672
0.111478
0.111279
0.111075
0.110865
0.110651
0.110431
0.110206
0.109975
0.109738
0.109496
0.109248
0.108993
0.108732
0.108464
0.10819
0.107908
0.10762
0.107325
0.107021
0.106711
0.106392
0.106065
0.10573
0.105386
0.105033
0.104671
0.1043
0.103919
0.103529
0.103128
0.102716
0.102294
0.101861
0.101416
0.100959
0.100491
0.100009
0.0995157
0.0990088
0.0984886
0.0979545
0.0974063
0.0968437
0.0962662
0.0956735
0.0950653
0.0944412
0.0938008
0.0931439
0.09247
0.0917789
0.0910702
0.0903435
0.0895986
0.0888353
0.088053
0.0872517
0.0864311
0.0855909
0.0847308
0.0838507
0.0829504
0.0820298
0.0810886
0.0801267
0.0791442
0.0781408
0.0771166
0.0760716
0.0750058
0.0739192
0.072812
0.0716842
0.070536
0.0693677
0.0681794
0.0669714
0.0657441
0.0644977
0.0632326
0.0619494
0.0606483
0.0593299
0.0579947
0.0566433
0.0552763
0.0538942
0.0524978
0.0510876
0.0496644
0.0482289
0.0467817
0.0453238
0.0438557
0.0423783
0.0408922
0.0393983
0.0378973
0.03639
0.034877
0.033359
0.0318367
0.0303107
0.0287817
0.0272502
0.0257167
0.0241817
0.0226456
0.0211088
0.0195717
0.0180344
0.0164971
0.0149601
0.0134234
0.011887
0.0103508
0.00881477
0.00727873
0.00574246
0.00420565
0.00266798
0.00112904
-0.000411608
-0.00195447
-0.00350009
-0.00504906
-0.00660202
-0.00815964
-0.00972264
-0.0112918
-0.0128678
-0.0144516
-0.016044
-0.0176459
-0.0192581
-0.0208816
-0.0225175
-0.0241665
-0.0258299
-0.0275085
-0.0292035
-0.0309159
-0.0326468
-0.0343973
-0.0361685
-0.0379615
-0.0397776
-0.0416178
-0.0434833
-0.0453754
-0.0472951
-0.0492438
-0.0512225
-0.0532324
-0.0552749
-0.0573509
-0.0594617
-0.0616085
-0.0637924
-0.0660145
-0.0682758
-0.0705775
-0.0729206
-0.075306
-0.0777347
-0.0802076
-0.0827256
-0.0852893
-0.0878996
-0.090557
-0.0932622
-0.0960157
-0.0988177
-0.101669
-0.104569
-0.107519
-0.110518
-0.113566
-0.116664
-0.11981
-0.123005
-0.126248
-0.129539
-0.132876
-0.136259
-0.139686
-0.143158
-0.146672
-0.150227
-0.153823
-0.157456
-0.161126
-0.164832
-0.16857
-0.17234
-0.176138
-0.179964
-0.183815
-0.187688
-0.191582
-0.195494
-0.199421
-0.20336
-0.207311
-0.211269
-0.215232
-0.219198
-0.223163
-0.227125
-0.231082
-0.23503
-0.238967
-0.24289
-0.246795
-0.250681
-0.254544
-0.258382
-0.262191
-0.265968
-0.269711
-0.273416
-0.27708
-0.280701
-0.284275
-0.287798
-0.291268
-0.294681
-0.298035
-0.301324
-0.304546
-0.307698
-0.310775
-0.313774
-0.316691
-0.319523
-0.322265
-0.324915
-0.327466
-0.329917
-0.332263
-0.3345
-0.336625
-0.338633
-0.34052
-0.342284
-0.343921
-0.345428
-0.346801
-0.348037
-0.349134
-0.350089
-0.3509
-0.351566
-0.352084
-0.352453
-0.352672
-0.352741
-0.35266
-0.352429
-0.352048
-0.351518
-0.350842
-0.350021
-0.349056
-0.347952
-0.346712
-0.345338
-0.343835
-0.342207
-0.340458
-0.338595
-0.336622
-0.334545
-0.33237
-0.330102
-0.327749
-0.32532
-0.322819
-0.320254
-0.317631
-0.314958
-0.312242
-0.30949
-0.306709
-0.303905
-0.301087
-0.29826
-0.29543
-0.292605
-0.28979
-0.286992
-0.284216
-0.281467
-0.278755
-0.27607
-0.27347
-0.270703
0.109485
0.109237
0.108983
0.108723
0.108457
0.108184
0.107904
0.107618
0.107324
0.107024
0.106716
0.1064
0.106076
0.105745
0.105405
0.105057
0.1047
0.104334
0.103959
0.103574
0.10318
0.102776
0.102361
0.101936
0.1015
0.101054
0.100595
0.100126
0.0996437
0.0991495
0.0986428
0.0981231
0.0975901
0.0970436
0.0964832
0.0959085
0.0953194
0.0947153
0.0940961
0.0934614
0.0928109
0.0921442
0.0914612
0.0907614
0.0900446
0.0893105
0.0885589
0.0877895
0.087002
0.0861963
0.0853721
0.0845292
0.0836674
0.0827866
0.0818867
0.0809675
0.0800289
0.0790708
0.0780933
0.0770963
0.0760798
0.0750439
0.0739885
0.0729139
0.0718201
0.0707074
0.0695758
0.0684257
0.0672573
0.066071
0.0648669
0.0636456
0.0624074
0.0611528
0.0598822
0.0585962
0.0572952
0.05598
0.054651
0.0533089
0.0519544
0.0505881
0.0492108
0.0478232
0.0464261
0.0450201
0.0436061
0.0421848
0.0407571
0.0393236
0.0378852
0.0364427
0.0349967
0.033548
0.0320974
0.0306454
0.0291928
0.0277401
0.026288
0.0248369
0.0233873
0.0219397
0.0204944
0.0190518
0.0176121
0.0161756
0.0147423
0.0133123
0.0118858
0.0104625
0.00904254
0.00762562
0.00621155
0.00480006
0.00339082
0.00198347
0.000577551
-0.000827396
-0.00223189
-0.00363651
-0.00504184
-0.00644852
-0.00785722
-0.00926865
-0.0106835
-0.0121026
-0.0135267
-0.0149566
-0.0163931
-0.017837
-0.0192893
-0.0207508
-0.0222224
-0.023705
-0.0251996
-0.026707
-0.0282283
-0.0297643
-0.0313162
-0.032885
-0.0344715
-0.036077
-0.0377024
-0.0393488
-0.0410173
-0.0427091
-0.0444252
-0.0461668
-0.047935
-0.0497311
-0.0515561
-0.0534113
-0.0552978
-0.0572169
-0.0591697
-0.0611574
-0.0631811
-0.0652421
-0.0673415
-0.0694803
-0.0716598
-0.0738809
-0.0761447
-0.0784522
-0.0808044
-0.0832021
-0.0856462
-0.0881374
-0.0906765
-0.0932642
-0.095901
-0.0985873
-0.101324
-0.10411
-0.106948
-0.109836
-0.112774
-0.115763
-0.118803
-0.121893
-0.125033
-0.128222
-0.131459
-0.134745
-0.138077
-0.141456
-0.144879
-0.148347
-0.151856
-0.155407
-0.158998
-0.162626
-0.166291
-0.16999
-0.173721
-0.177484
-0.181274
-0.185091
-0.188933
-0.192796
-0.196679
-0.200579
-0.204495
-0.208423
-0.212361
-0.216306
-0.220257
-0.22421
-0.228164
-0.232115
-0.236061
-0.24
-0.243929
-0.247845
-0.251746
-0.255629
-0.259492
-0.263332
-0.267147
-0.270933
-0.274688
-0.27841
-0.282095
-0.285741
-0.289345
-0.292903
-0.296414
-0.299873
-0.303277
-0.306624
-0.30991
-0.313132
-0.316285
-0.319367
-0.322373
-0.325299
-0.328143
-0.3309
-0.333565
-0.336135
-0.338606
-0.340973
-0.343232
-0.34538
-0.347411
-0.349321
-0.351108
-0.352766
-0.354292
-0.355682
-0.356933
-0.358041
-0.359004
-0.359818
-0.360482
-0.360993
-0.361349
-0.361548
-0.36159
-0.361475
-0.361201
-0.360769
-0.360179
-0.359433
-0.358532
-0.357479
-0.356275
-0.354923
-0.353428
-0.351792
-0.350021
-0.348118
-0.346089
-0.343939
-0.341674
-0.3393
-0.336824
-0.334252
-0.331592
-0.328846
-0.326024
-0.323135
-0.320186
-0.317185
-0.31414
-0.311057
-0.307944
-0.304809
-0.301657
-0.298495
-0.29533
-0.292168
-0.289015
-0.285875
-0.282754
-0.279655
-0.276585
-0.273537
-0.270553
-0.267418
0.106602
0.106287
0.105965
0.105636
0.105299
0.104953
0.104599
0.104236
0.103864
0.103483
0.103093
0.102693
0.102283
0.101863
0.101432
0.100991
0.100538
0.100075
0.0995995
0.0991124
0.0986132
0.0981014
0.097577
0.0970394
0.0964885
0.0959239
0.0953454
0.0947526
0.0941452
0.0935229
0.0928855
0.0922326
0.091564
0.0908793
0.0901784
0.089461
0.0887268
0.0879756
0.0872071
0.0864212
0.0856177
0.0847963
0.083957
0.0830995
0.0822237
0.0813296
0.0804171
0.0794861
0.0785365
0.0775683
0.0765816
0.0755764
0.0745528
0.0735109
0.0724507
0.0713725
0.0702764
0.0691626
0.0680315
0.0668832
0.0657182
0.0645368
0.0633392
0.0621261
0.0608978
0.0596548
0.0583976
0.0571268
0.055843
0.0545468
0.0532387
0.0519196
0.05059
0.0492507
0.0479025
0.046546
0.045182
0.0438114
0.0424348
0.0410532
0.0396671
0.0382776
0.0368853
0.0354909
0.0340953
0.0326992
0.0313033
0.0299082
0.0285146
0.0271232
0.0257343
0.0243487
0.0229667
0.0215888
0.0202154
0.0188467
0.0174831
0.0161246
0.0147715
0.0134238
0.0120816
0.0107447
0.00941313
0.00808667
0.0067651
0.00544816
0.00413552
0.00282681
0.00152159
0.000219419
-0.00108022
-0.00237786
-0.00367408
-0.00496948
-0.00626469
-0.00756035
-0.00885716
-0.0101558
-0.011457
-0.0127614
-0.0140699
-0.0153831
-0.0167018
-0.0180267
-0.0193587
-0.0206985
-0.0220469
-0.0234047
-0.0247727
-0.0261516
-0.0275424
-0.0289458
-0.0303627
-0.0317939
-0.0332404
-0.0347029
-0.0361824
-0.0376799
-0.0391964
-0.0407327
-0.04229
-0.0438691
-0.0454713
-0.0470975
-0.0487489
-0.0504265
-0.0521315
-0.053865
-0.0556281
-0.0574221
-0.059248
-0.061107
-0.0630004
-0.0649291
-0.0668945
-0.0688975
-0.0709393
-0.073021
-0.0751437
-0.0773082
-0.0795157
-0.081767
-0.084063
-0.0864046
-0.0887925
-0.0912274
-0.0937099
-0.0962406
-0.09882
-0.101449
-0.104127
-0.106854
-0.109632
-0.112459
-0.115336
-0.118262
-0.121239
-0.124264
-0.127337
-0.130459
-0.133628
-0.136844
-0.140105
-0.143411
-0.146761
-0.150153
-0.153586
-0.157059
-0.16057
-0.164118
-0.167701
-0.171317
-0.174965
-0.178642
-0.182347
-0.186077
-0.189831
-0.193607
-0.197402
-0.201214
-0.205041
-0.20888
-0.21273
-0.216588
-0.220453
-0.22432
-0.228189
-0.232057
-0.235921
-0.23978
-0.243631
-0.247471
-0.251299
-0.255112
-0.258907
-0.262683
-0.266437
-0.270167
-0.273869
-0.277542
-0.281184
-0.284791
-0.288361
-0.291891
-0.295379
-0.298821
-0.302215
-0.305558
-0.308842
-0.312076
-0.315246
-0.318352
-0.321389
-0.324353
-0.327244
-0.330055
-0.332783
-0.335425
-0.337975
-0.340431
-0.342786
-0.345038
-0.347183
-0.349215
-0.35113
-0.352925
-0.354596
-0.356138
-0.357547
-0.35882
-0.359954
-0.360944
-0.361789
-0.362484
-0.363028
-0.363418
-0.363653
-0.363731
-0.36365
-0.363411
-0.363012
-0.362455
-0.361739
-0.360865
-0.359836
-0.358653
-0.357318
-0.355835
-0.354206
-0.352436
-0.350529
-0.348489
-0.346321
-0.34403
-0.341623
-0.339105
-0.336482
-0.333762
-0.33095
-0.328053
-0.325078
-0.322032
-0.31892
-0.315754
-0.312537
-0.309278
-0.305984
-0.302661
-0.299315
-0.295952
-0.292579
-0.289198
-0.285816
-0.282435
-0.279059
-0.27569
-0.272332
-0.268979
-0.265657
-0.262218
0.10349
0.103106
0.102714
0.102312
0.1019
0.101478
0.101045
0.100602
0.100148
0.099683
0.0992063
0.098718
0.0982176
0.0977049
0.0971797
0.0966416
0.0960903
0.0955255
0.0949471
0.0943546
0.0937478
0.0931264
0.0924902
0.0918389
0.0911722
0.0904899
0.0897917
0.0890775
0.0883468
0.0875997
0.0868358
0.086055
0.0852571
0.084442
0.0836095
0.0827595
0.0818918
0.0810065
0.0801035
0.0791827
0.0782441
0.0772877
0.0763136
0.0753218
0.0743124
0.0732855
0.0722413
0.0711799
0.0701016
0.0690065
0.0678949
0.0667673
0.0656237
0.0644647
0.0632906
0.0621019
0.0608989
0.0596823
0.0584524
0.0572099
0.0559554
0.0546894
0.0534126
0.0521256
0.0508292
0.0495241
0.0482109
0.0468904
0.0455634
0.0442307
0.0428929
0.0415511
0.0402058
0.0388579
0.0375082
0.0361575
0.0348064
0.0334558
0.0321064
0.0307588
0.0294137
0.0280718
0.0267336
0.0253997
0.0240705
0.0227466
0.0214283
0.020116
0.0188099
0.0175104
0.0162175
0.0149314
0.0136522
0.0123798
0.0111142
0.00985526
0.00860278
0.00735654
0.00611626
0.00488159
0.00365217
0.00242755
0.00120729
-9.1141e-06
-0.0012222
-0.00243253
-0.00364069
-0.00484727
-0.0060529
-0.00725821
-0.00846383
-0.00967042
-0.0108786
-0.0120891
-0.0133025
-0.0145195
-0.0157408
-0.0169671
-0.0181988
-0.0194368
-0.0206817
-0.021934
-0.0231944
-0.0244636
-0.0257422
-0.0270309
-0.0283305
-0.0296416
-0.0309649
-0.032301
-0.0336506
-0.0350145
-0.0363936
-0.0377885
-0.0392001
-0.0406294
-0.0420773
-0.0435447
-0.0450325
-0.0465416
-0.0480732
-0.0496281
-0.0512075
-0.0528125
-0.054444
-0.0561031
-0.0577911
-0.0595089
-0.0612577
-0.0630386
-0.0648527
-0.0667011
-0.0685848
-0.0705049
-0.0724624
-0.0744583
-0.0764936
-0.0785692
-0.080686
-0.0828449
-0.0850465
-0.0872918
-0.0895813
-0.0919157
-0.0942956
-0.0967214
-0.0991936
-0.101713
-0.104279
-0.106892
-0.109552
-0.11226
-0.115016
-0.117818
-0.120667
-0.123564
-0.126506
-0.129494
-0.132527
-0.135604
-0.138726
-0.141889
-0.145095
-0.148341
-0.151627
-0.154951
-0.158312
-0.161709
-0.16514
-0.168603
-0.172097
-0.17562
-0.179171
-0.182747
-0.186347
-0.189969
-0.193611
-0.197271
-0.200947
-0.204637
-0.208338
-0.21205
-0.215768
-0.219493
-0.223221
-0.22695
-0.230679