/*--------------------------------*- C++ -*----------------------------------*\
| =========                 |                                                 |
| \\      /  F ield         | OpenFOAM: The Open Source CFD Toolbox           |
|  \\    /   O peration     | Version:  2.4.0                                 |
|   \\  /    A nd           | Web:      www.OpenFOAM.org                      |
|    \\/     M anipulation  |                                                 |
\*---------------------------------------------------------------------------*/
FoamFile
{
    version     2.0;
    format      ascii;
    class       volVectorField;
    location    "4.8";
    object      U;
}
// * * * * * * * * * * * * * * * * * * * * * * * * * * * * * * * * * * * * * //

dimensions      [0 1 -1 0 0 0 0];

internalField   nonuniform List<vector> 
8000
(
(-2.43697e-07 -0.000211861 0)
(-1.80485e-06 -0.000622969 0)
(-4.86136e-06 -0.00102156 0)
(-9.37882e-06 -0.00140771 0)
(-1.53583e-05 -0.00178141 0)
(-2.28121e-05 -0.00214274 0)
(-3.17886e-05 -0.00249158 0)
(-4.23059e-05 -0.00282801 0)
(-5.44219e-05 -0.0031518 0)
(-6.81415e-05 -0.00346307 0)
(-8.35353e-05 -0.00376145 0)
(-0.000100588 -0.00404716 0)
(-0.000119386 -0.00431958 0)
(-0.000139879 -0.00457915 0)
(-0.000162171 -0.00482489 0)
(-0.000186159 -0.00505755 0)
(-0.000212001 -0.00527564 0)
(-0.000239569 -0.00548043 0)
(-0.000269035 -0.00566964 0)
(-0.000299534 -0.00584516 0)
(-0.000329704 -0.0060032 0)
(-0.000358878 -0.00614709 0)
(-0.000400782 -0.0062747 0)
(-0.000503381 -0.00640259 0)
(-0.000680305 -0.00649819 0)
(-0.000857363 -0.00650092 0)
(-0.000973629 -0.00647959 0)
(-0.00113512 -0.00598338 0)
(-0.00119752 -0.00622146 0)
(-0.00102806 -0.00691054 0)
(-0.000901227 -0.00769778 0)
(-0.000821516 -0.00859735 0)
(-0.00067736 -0.00944349 0)
(-0.000493009 -0.0102693 0)
(-0.000291836 -0.0111032 0)
(-7.66597e-05 -0.0119461 0)
(0.000155701 -0.0128067 0)
(0.000406668 -0.0136928 0)
(0.000676229 -0.0146109 0)
(0.000964145 -0.0155661 0)
(0.00127018 -0.0165621 0)
(0.00159408 -0.0176015 0)
(0.0019353 -0.0186854 0)
(0.00229452 -0.0198181 0)
(0.00266998 -0.0210113 0)
(0.00306149 -0.0222388 0)
(0.00346999 -0.0235132 0)
(0.00389372 -0.0248353 0)
(0.00433232 -0.0262089 0)
(0.00478487 -0.0276147 0)
(-8.34192e-08 -0.000197938 0)
(-1.36608e-06 -0.000583185 0)
(-4.14934e-06 -0.000957568 0)
(-8.47379e-06 -0.00132083 0)
(-1.43163e-05 -0.0016728 0)
(-2.16885e-05 -0.00201332 0)
(-3.05923e-05 -0.00234226 0)
(-4.10559e-05 -0.00265954 0)
(-5.30776e-05 -0.00296512 0)
(-6.66731e-05 -0.00325898 0)
(-8.18286e-05 -0.00354119 0)
(-9.85292e-05 -0.00381176 0)
(-0.000116743 -0.00407094 0)
(-0.000136391 -0.00431871 0)
(-0.000157437 -0.00455558 0)
(-0.000179777 -0.00478148 0)
(-0.000203537 -0.00499728 0)
(-0.000228273 -0.00520268 0)
(-0.000252243 -0.00539898 0)
(-0.000270606 -0.0055854 0)
(-0.000286122 -0.00576531 0)
(-0.000340009 -0.0059414 0)
(-0.000548327 -0.00596931 0)
(-0.000799908 -0.00598661 0)
(-0.000939004 -0.00596025 0)
(-0.00113011 -0.00563863 0)
(-0.00120632 -0.00470683 0)
(-0.000830383 -0.00676282 0)
(-0.000735938 -0.00780368 0)
(-0.000673618 -0.0088528 0)
(-0.000511618 -0.00988481 0)
(-0.000324349 -0.0109025 0)
(-0.000128734 -0.0119191 0)
(7.75978e-05 -0.0129359 0)
(0.000298418 -0.0139611 0)
(0.000535382 -0.0150028 0)
(0.000788999 -0.0160687 0)
(0.0010595 -0.0171651 0)
(0.00134699 -0.0182965 0)
(0.0016515 -0.0194662 0)
(0.00197292 -0.0206762 0)
(0.00231107 -0.0219276 0)
(0.0026658 -0.0232208 0)
(0.00303669 -0.0245572 0)
(0.00342311 -0.0259434 0)
(0.00382449 -0.0273664 0)
(0.00424095 -0.0288282 0)
(0.00467246 -0.0303327 0)
(0.00511818 -0.0318763 0)
(0.00557825 -0.0334542 0)
(-6.95e-08 -0.000192941 0)
(-7.14432e-07 -0.000566499 0)
(-2.25717e-06 -0.000927619 0)
(-4.87147e-06 -0.0012761 0)
(-8.72721e-06 -0.00161192 0)
(-1.40307e-05 -0.00193492 0)
(-2.0946e-05 -0.00224521 0)
(-2.96881e-05 -0.0025426 0)
(-4.0409e-05 -0.00282744 0)
(-5.33417e-05 -0.00309947 0)
(-6.86328e-05 -0.00335933 0)
(-8.65458e-05 -0.00360666 0)
(-0.000107226 -0.0038425 0)
(-0.000131018 -0.00406632 0)
(-0.00015814 -0.00427976 0)
(-0.000189028 -0.00448192 0)
(-0.00022326 -0.00467524 0)
(-0.000259489 -0.0048579 0)
(-0.000297041 -0.00503395 0)
(-0.000349943 -0.00520359 0)
(-0.000468085 -0.00538089 0)
(-0.000659977 -0.00555367 0)
(-0.000868736 -0.00556432 0)
(-0.00103338 -0.00554423 0)
(-0.00111189 -0.00349109 0)
(-0.000731633 -0.00655715 0)
(-0.000561809 -0.0073494 0)
(-0.000570851 -0.00848179 0)
(-0.000405937 -0.00963921 0)
(-0.00022749 -0.0107975 0)
(-4.88673e-05 -0.0119642 0)
(0.000137152 -0.0131381 0)
(0.000336185 -0.0143246 0)
(0.00054956 -0.0155301 0)
(0.000777369 -0.0167579 0)
(0.00102006 -0.0180114 0)
(0.00127792 -0.0192938 0)
(0.00155111 -0.0206078 0)
(0.00183966 -0.0219557 0)
(0.00214353 -0.023339 0)
(0.00246266 -0.0247592 0)
(0.00279701 -0.0262172 0)
(0.00314651 -0.0277136 0)
(0.00351111 -0.0292488 0)
(0.00389074 -0.030823 0)
(0.0042854 -0.0324366 0)
(0.00469521 -0.0340894 0)
(0.00512026 -0.0357823 0)
(0.00556069 -0.0375159 0)
(0.0060166 -0.0392887 0)
(3.06539e-08 -0.000191511 0)
(-5.66345e-07 -0.000558324 0)
(-2.20203e-06 -0.000908976 0)
(-5.04017e-06 -0.00124349 0)
(-9.2197e-06 -0.00156186 0)
(-1.48503e-05 -0.00186406 0)
(-2.20769e-05 -0.00215 0)
(-3.10166e-05 -0.00241964 0)
(-4.18208e-05 -0.00267281 0)
(-5.46205e-05 -0.00290943 0)
(-6.95676e-05 -0.00312926 0)
(-8.68389e-05 -0.00333222 0)
(-0.000106649 -0.00351796 0)
(-0.000129375 -0.00368647 0)
(-0.000155043 -0.00383718 0)
(-0.000182547 -0.00397011 0)
(-0.000208594 -0.00408408 0)
(-0.000236528 -0.00417993 0)
(-0.000303295 -0.00425971 0)
(-0.000496855 -0.00431593 0)
(-0.000739464 -0.00436127 0)
(-0.000907385 -0.00439574 0)
(-0.00111348 -0.00380504 0)
(-0.00132271 -0.00603341 0)
(-0.000868954 -0.00678402 0)
(-0.000868229 -0.00800011 0)
(-0.000725998 -0.00928313 0)
(-0.000558961 -0.0105729 0)
(-0.000383665 -0.011878 0)
(-0.000200806 -0.0131914 0)
(-7.76901e-06 -0.0145133 0)
(0.000196139 -0.0158449 0)
(0.00041119 -0.0171891 0)
(0.000637714 -0.0185522 0)
(0.000875621 -0.0199381 0)
(0.00112518 -0.0213504 0)
(0.00138666 -0.0227925 0)
(0.00166031 -0.0242673 0)
(0.0019464 -0.0257774 0)
(0.00224519 -0.0273249 0)
(0.00255697 -0.0289114 0)
(0.00288204 -0.0305384 0)
(0.00322072 -0.0322069 0)
(0.00357332 -0.0339177 0)
(0.00394015 -0.0356713 0)
(0.00432151 -0.0374679 0)
(0.00471767 -0.0393076 0)
(0.00512884 -0.0411901 0)
(0.00555518 -0.043115 0)
(0.00599677 -0.0450817 0)
(-3.23937e-07 -0.000182593 0)
(-2.64048e-06 -0.000531702 0)
(-7.19344e-06 -0.000864733 0)
(-1.38382e-05 -0.0011818 0)
(-2.25327e-05 -0.00148276 0)
(-3.31345e-05 -0.0017678 0)
(-4.57091e-05 -0.00203658 0)
(-6.01011e-05 -0.00228942 0)
(-7.64282e-05 -0.00252577 0)
(-9.44873e-05 -0.00274613 0)
(-0.000114467 -0.00294964 0)
(-0.000136189 -0.00313718 0)
(-0.000160039 -0.00330743 0)
(-0.000185492 -0.00346183 0)
(-0.000211105 -0.00359835 0)
(-0.000233082 -0.00371913 0)
(-0.000257047 -0.0038219 0)
(-0.000328317 -0.00391341 0)
(-0.000526417 -0.00398219 0)
(-0.000786323 -0.00403425 0)
(-0.000933643 -0.00411296 0)
(-0.00106085 -0.00336929 0)
(-0.000596978 -0.00506042 0)
(-0.000563749 -0.00653858 0)
(-0.000443508 -0.00808645 0)
(-0.000317264 -0.0095809 0)
(-0.000187027 -0.0110494 0)
(-5.2233e-05 -0.012499 0)
(8.87984e-05 -0.0139376 0)
(0.000236998 -0.0153733 0)
(0.000393125 -0.0168142 0)
(0.000557821 -0.0182674 0)
(0.000731723 -0.0197382 0)
(0.000915568 -0.021232 0)
(0.00110986 -0.0227535 0)
(0.0013151 -0.0243067 0)
(0.00153181 -0.0258948 0)
(0.00176048 -0.0275209 0)
(0.0020016 -0.0291872 0)
(0.00225561 -0.030896 0)
(0.00252294 -0.0326488 0)
(0.002804 -0.0344469 0)
(0.00309914 -0.0362911 0)
(0.00340867 -0.0381819 0)
(0.00373283 -0.0401192 0)
(0.0040718 -0.0421028 0)
(0.00442566 -0.0441318 0)
(0.00479442 -0.0462052 0)
(0.00517797 -0.0483215 0)
(0.00557614 -0.0504789 0)
(-1.24239e-07 -0.000163837 0)
(-1.97235e-06 -0.000477089 0)
(-6.00265e-06 -0.000775693 0)
(-1.23211e-05 -0.00105959 0)
(-2.08771e-05 -0.00132844 0)
(-3.17643e-05 -0.00158229 0)
(-4.49311e-05 -0.00182061 0)
(-6.05299e-05 -0.00204363 0)
(-7.84726e-05 -0.00225058 0)
(-9.89687e-05 -0.0024419 0)
(-0.000121952 -0.00261652 0)
(-0.000147762 -0.00277519 0)
(-0.000175989 -0.00291643 0)
(-0.000205493 -0.00304131 0)
(-0.000233945 -0.00314769 0)
(-0.000268004 -0.00323792 0)
(-0.000344186 -0.0033122 0)
(-0.000514991 -0.00338077 0)
(-0.000750463 -0.00344317 0)
(-0.000953357 -0.00355567 0)
(-0.00119895 -0.00475557 0)
(-0.000888593 -0.00582977 0)
(-0.000739771 -0.00716367 0)
(-0.000622703 -0.00849037 0)
(-0.000515109 -0.0098433 0)
(-0.000407337 -0.0112264 0)
(-0.000298802 -0.0126423 0)
(-0.000188921 -0.0140884 0)
(-7.63504e-05 -0.0155619 0)
(4.03428e-05 -0.0170612 0)
(0.000162399 -0.0185864 0)
(0.000290884 -0.0201392 0)
(0.000426731 -0.0217219 0)
(0.000570847 -0.0233374 0)
(0.000724076 -0.0249889 0)
(0.000887194 -0.0266796 0)
(0.00106092 -0.0284126 0)
(0.00124593 -0.0301904 0)
(0.00144283 -0.0320152 0)
(0.00165215 -0.0338883 0)
(0.00187437 -0.035811 0)
(0.00210983 -0.0377836 0)
(0.0023588 -0.0398061 0)
(0.00262144 -0.0418777 0)
(0.00289778 -0.0439974 0)
(0.00318774 -0.0461634 0)
(0.00349114 -0.0483736 0)
(0.00380766 -0.0506256 0)
(0.00413689 -0.0529164 0)
(0.00447832 -0.055243 0)
(-1.89028e-07 -0.000156116 0)
(-2.09116e-06 -0.00045131 0)
(-6.11676e-06 -0.000729525 0)
(-1.2291e-05 -0.000990745 0)
(-2.06367e-05 -0.00123497 0)
(-3.11521e-05 -0.00146211 0)
(-4.39132e-05 -0.00167213 0)
(-5.89075e-05 -0.00186485 0)
(-7.62489e-05 -0.00204021 0)
(-9.59421e-05 -0.00219796 0)
(-0.00011821 -0.00233803 0)
(-0.000142701 -0.00246006 0)
(-0.000168227 -0.00256385 0)
(-0.000192578 -0.00264871 0)
(-0.000222219 -0.00271504 0)
(-0.000291405 -0.00276581 0)
(-0.000454201 -0.00281078 0)
(-0.000688952 -0.0028584 0)
(-0.000928963 -0.00298156 0)
(-0.00120034 -0.00391083 0)
(-0.000819783 -0.00521862 0)
(-0.000720887 -0.00657954 0)
(-0.00068187 -0.00797317 0)
(-0.000643548 -0.00938831 0)
(-0.000595209 -0.0108241 0)
(-0.000541987 -0.0122798 0)
(-0.000486369 -0.0137561 0)
(-0.000428545 -0.0152551 0)
(-0.000367961 -0.0167798 0)
(-0.000303906 -0.0183339 0)
(-0.000235552 -0.0199214 0)
(-0.000161985 -0.0215462 0)
(-8.22334e-05 -0.0232122 0)
(4.68089e-06 -0.0249232 0)
(9.97211e-05 -0.026682 0)
(0.000203805 -0.0284914 0)
(0.000317763 -0.0303533 0)
(0.000442316 -0.0322693 0)
(0.000578068 -0.0342401 0)
(0.000725494 -0.0362658 0)
(0.00088493 -0.0383458 0)
(0.00105657 -0.040479 0)
(0.00124046 -0.0426635 0)
(0.00143651 -0.044897 0)
(0.00164448 -0.0471767 0)
(0.00186403 -0.0494992 0)
(0.00209467 -0.051861 0)
(0.00233583 -0.0542581 0)
(0.00258683 -0.0566864 0)
(0.00284692 -0.0591417 0)
(-2.5174e-07 -0.000138941 0)
(-2.46934e-06 -0.000401273 0)
(-6.93347e-06 -0.000647911 0)
(-1.35803e-05 -0.000878688 0)
(-2.22743e-05 -0.00109344 0)
(-3.29577e-05 -0.00129201 0)
(-4.55244e-05 -0.00147424 0)
(-5.99704e-05 -0.00163995 0)
(-7.62376e-05 -0.00178898 0)
(-9.44564e-05 -0.00192116 0)
(-0.000114233 -0.0020363 0)
(-0.000133881 -0.00213412 0)
(-0.000150098 -0.00221422 0)
(-0.00016864 -0.00227662 0)
(-0.000233749 -0.00232365 0)
(-0.000417782 -0.00236117 0)
(-0.000684267 -0.00239642 0)
(-0.000943258 -0.00243596 0)
(-0.00124641 -0.00329726 0)
(-0.000822719 -0.00446405 0)
(-0.000780111 -0.00571644 0)
(-0.000786709 -0.00702082 0)
(-0.000794676 -0.00836489 0)
(-0.000799745 -0.00974336 0)
(-0.000807585 -0.0111544 0)
(-0.00081907 -0.0125977 0)
(-0.000832829 -0.0140748 0)
(-0.000847183 -0.0155882 0)
(-0.000860622 -0.0171413 0)
(-0.000871763 -0.0187378 0)
(-0.000879279 -0.0203817 0)
(-0.000881884 -0.0220766 0)
(-0.000878356 -0.0238259 0)
(-0.00086758 -0.0256325 0)
(-0.000848553 -0.0274984 0)
(-0.000820411 -0.0294253 0)
(-0.000782434 -0.0314138 0)
(-0.000734067 -0.0334636 0)
(-0.000674919 -0.0355737 0)
(-0.00060477 -0.0377425 0)
(-0.000523568 -0.0399673 0)
(-0.000431419 -0.042245 0)
(-0.000328584 -0.044572 0)
(-0.000215464 -0.0469441 0)
(-9.25795e-05 -0.0493569 0)
(3.94697e-05 -0.0518056 0)
(0.000179973 -0.0542854 0)
(0.000328121 -0.0567912 0)
(0.000483077 -0.059318 0)
(0.000643959 -0.0618608 0)
(-1.14316e-07 -0.000127334 0)
(-1.49588e-06 -0.000367004 0)
(-4.42465e-06 -0.00059156 0)
(-8.90796e-06 -0.000800873 0)
(-1.48861e-05 -0.000994827 0)
(-2.23329e-05 -0.00117332 0)
(-3.12068e-05 -0.00133625 0)
(-4.15506e-05 -0.00148355 0)
(-5.34089e-05 -0.00161512 0)
(-6.66784e-05 -0.00173093 0)
(-8.00577e-05 -0.00183087 0)
(-9.09272e-05 -0.00191483 0)
(-0.000101804 -0.00198278 0)
(-0.000144883 -0.00203542 0)
(-0.000279024 -0.0020746 0)
(-0.000483794 -0.00211534 0)
(-0.000738517 -0.00212448 0)
(-0.00119338 -0.00253453 0)
(-0.00079322 -0.00342467 0)
(-0.000781129 -0.00444067 0)
(-0.000833966 -0.00553716 0)
(-0.000899304 -0.00670119 0)
(-0.000968905 -0.00792564 0)
(-0.00104721 -0.00920664 0)
(-0.00113445 -0.0105423 0)
(-0.0012285 -0.0119325 0)
(-0.00132696 -0.0133784 0)
(-0.00142766 -0.0148824 0)
(-0.00152859 -0.0164471 0)
(-0.0016279 -0.0180754 0)
(-0.00172386 -0.0197701 0)
(-0.00181491 -0.0215336 0)
(-0.0018997 -0.0233674 0)
(-0.00197703 -0.0252726 0)
(-0.00204597 -0.027249 0)
(-0.00210577 -0.0292958 0)
(-0.00215592 -0.0314112 0)
(-0.00219611 -0.0335925 0)
(-0.00222625 -0.0358362 0)
(-0.00224643 -0.0381382 0)
(-0.0022569 -0.0404939 0)
(-0.00225808 -0.0428981 0)
(-0.0022505 -0.0453456 0)
(-0.0022348 -0.0478306 0)
(-0.00221169 -0.0503474 0)
(-0.00218197 -0.0528905 0)
(-0.00214646 -0.0554542 0)
(-0.00210604 -0.0580328 0)
(-0.00206159 -0.060621 0)
(-0.002014 -0.0632136 0)
(-1.22248e-07 -0.00011963 0)
(-1.18469e-06 -0.000343651 0)
(-3.38077e-06 -0.000552349 0)
(-6.6934e-06 -0.000745647 0)
(-1.11263e-05 -0.000923442 0)
(-1.66456e-05 -0.00108567 0)
(-2.33054e-05 -0.00123222 0)
(-3.11125e-05 -0.00136304 0)
(-4.0193e-05 -0.00147801 0)
(-5.02213e-05 -0.00157709 0)
(-6.00573e-05 -0.00166004 0)
(-6.80852e-05 -0.00172674 0)
(-8.13122e-05 -0.00177735 0)
(-0.000128368 -0.00181414 0)
(-0.000265355 -0.00184599 0)
(-0.00050611 -0.00185846 0)
(-0.000957162 -0.00191037 0)
(-0.000858649 -0.00236546 0)
(-0.000761899 -0.00298018 0)
(-0.000847082 -0.0037179 0)
(-0.000978835 -0.00456496 0)
(-0.00112656 -0.00551243 0)
(-0.00128741 -0.00655453 0)
(-0.0014616 -0.00768723 0)
(-0.00164681 -0.00890809 0)
(-0.00183979 -0.0102162 0)
(-0.00203746 -0.0116111 0)
(-0.0022371 -0.0130933 0)
(-0.00243632 -0.0146634 0)
(-0.00263302 -0.0163218 0)
(-0.00282537 -0.0180685 0)
(-0.00301185 -0.0199027 0)
(-0.00319123 -0.0218231 0)
(-0.00336257 -0.0238272 0)
(-0.0035252 -0.0259118 0)
(-0.00367873 -0.028073 0)
(-0.003823 -0.0303059 0)
(-0.00395805 -0.0326051 0)
(-0.00408414 -0.0349648 0)
(-0.00420168 -0.0373786 0)
(-0.00431118 -0.0398401 0)
(-0.00441331 -0.0423428 0)
(-0.00450876 -0.0448801 0)
(-0.00459831 -0.0474455 0)
(-0.00468276 -0.0500327 0)
(-0.00476294 -0.0526357 0)
(-0.00483968 -0.0552484 0)
(-0.00491383 -0.0578653 0)
(-0.00498622 -0.0604808 0)
(-0.00505769 -0.0630897 0)
(-5.31531e-08 -0.00011399 0)
(-7.74369e-07 -0.000326654 0)
(-2.29143e-06 -0.000523941 0)
(-4.57769e-06 -0.000705775 0)
(-7.58796e-06 -0.000872082 0)
(-1.127e-05 -0.00102277 0)
(-1.56522e-05 -0.00115778 0)
(-2.07749e-05 -0.00127699 0)
(-2.65144e-05 -0.00138033 0)
(-3.1588e-05 -0.00146767 0)
(-3.34986e-05 -0.00153884 0)
(-3.49771e-05 -0.0015936 0)
(-6.7897e-05 -0.00163232 0)
(-0.000186965 -0.00165662 0)
(-0.00037324 -0.0016785 0)
(-0.000666989 -0.00167192 0)
(-0.00116654 -0.00135521 0)
(-0.000780882 -0.00125059 0)
(-0.000925281 -0.00137147 0)
(-0.00112408 -0.00169164 0)
(-0.00134131 -0.00219289 0)
(-0.00157321 -0.00286099 0)
(-0.00182365 -0.00368431 0)
(-0.00209006 -0.00465296 0)
(-0.00236812 -0.00575901 0)
(-0.00265386 -0.00699621 0)
(-0.00294399 -0.00835938 0)
(-0.00323573 -0.00984399 0)
(-0.00352666 -0.0114458 0)
(-0.00381476 -0.0131605 0)
(-0.00409836 -0.0149836 0)
(-0.00437615 -0.0169099 0)
(-0.00464716 -0.0189339 0)
(-0.00491074 -0.0210493 0)
(-0.00516652 -0.0232494 0)
(-0.0054144 -0.0255271 0)
(-0.0056545 -0.0278746 0)
(-0.0058871 -0.0302844 0)
(-0.00611265 -0.0327485 0)
(-0.00633172 -0.0352592 0)
(-0.00654491 -0.037809 0)
(-0.00675293 -0.0403904 0)
(-0.00695649 -0.0429965 0)
(-0.00715631 -0.0456205 0)
(-0.00735313 -0.0482561 0)
(-0.00754768 -0.050897 0)
(-0.00774067 -0.0535375 0)
(-0.00793281 -0.056172 0)
(-0.0081248 -0.0587952 0)
(-0.00831733 -0.0614021 0)
(-6.58217e-08 -0.000108929 0)
(-2.9521e-07 -0.000312648 0)
(-6.78216e-07 -0.000502055 0)
(-1.2258e-06 -0.000676991 0)
(-1.95376e-06 -0.000837336 0)
(-2.9384e-06 -0.000982988 0)
(-4.25717e-06 -0.00111389 0)
(-6.08828e-06 -0.00123001 0)
(-8.26631e-06 -0.00133134 0)
(-9.64599e-06 -0.0014179 0)
(-8.08201e-06 -0.00148983 0)
(-8.98621e-06 -0.00154735 0)
(-4.24758e-05 -0.0015908 0)
(-0.000179398 -0.00162318 0)
(-0.000433619 -0.00163749 0)
(-0.0010427 -0.00109244 0)
(-0.000756365 -0.000110745 0)
(-0.000915685 0.000533546 0)
(-0.00116715 0.000890014 0)
(-0.00145652 0.000978893 0)
(-0.00176993 0.000819796 0)
(-0.00210744 0.000430603 0)
(-0.00246556 -0.000172113 0)
(-0.00283926 -0.000973057 0)
(-0.00322394 -0.00195861 0)
(-0.00361591 -0.00311658 0)
(-0.00401067 -0.00443579 0)
(-0.00440446 -0.00590723 0)
(-0.0047955 -0.00752201 0)
(-0.00518208 -0.00927118 0)
(-0.00556278 -0.0111456 0)
(-0.00593656 -0.0131358 0)
(-0.00630284 -0.0152322 0)
(-0.00666138 -0.0174249 0)
(-0.00701226 -0.0197038 0)
(-0.00735575 -0.0220589 0)
(-0.00769232 -0.0244805 0)
(-0.00802253 -0.0269591 0)
(-0.00834702 -0.0294855 0)
(-0.0086665 -0.0320512 0)
(-0.00898166 -0.0346481 0)
(-0.00929321 -0.0372686 0)
(-0.00960184 -0.0399056 0)
(-0.00990821 -0.0425524 0)
(-0.010213 -0.0452028 0)
(-0.0105167 -0.0478508 0)
(-0.0108201 -0.0504908 0)
(-0.0111236 -0.0531174 0)
(-0.0114278 -0.0557254 0)
(-0.0117333 -0.0583099 0)
(2.54437e-07 -0.000112893 0)
(2.02464e-06 -0.000322836 0)
(5.3186e-06 -0.000516666 0)
(9.92902e-06 -0.000694106 0)
(1.55946e-05 -0.000854905 0)
(2.2102e-05 -0.000998824 0)
(2.91823e-05 -0.00112565 0)
(3.66217e-05 -0.00123516 0)
(4.42924e-05 -0.00132716 0)
(5.25888e-05 -0.00140129 0)
(6.18167e-05 -0.00145715 0)
(6.78462e-05 -0.00149499 0)
(5.93105e-05 -0.00151817 0)
(-3.78892e-06 -0.00154233 0)
(-0.000290743 -0.00153677 0)
(-0.00101003 0.000887115 0)
(-0.00073904 0.00279363 0)
(-0.00104193 0.00422952 0)
(-0.00140161 0.00523145 0)
(-0.00178835 0.00583748 0)
(-0.00219662 0.00608349 0)
(-0.00262851 0.00600285 0)
(-0.00307962 0.00562553 0)
(-0.00354405 0.00497817 0)
(-0.00401645 0.00408428 0)
(-0.00449227 0.0029647 0)
(-0.00496923 0.0016383 0)
(-0.00544541 0.000123134 0)
(-0.00591799 -0.00156404 0)
(-0.0063854 -0.00340753 0)
(-0.00684771 -0.00539158 0)
(-0.00730492 -0.0074994 0)
(-0.00775665 -0.00971551 0)
(-0.00820296 -0.0120257 0)
(-0.00864418 -0.0144167 0)
(-0.00908072 -0.0168763 0)
(-0.00951303 -0.0193933 0)
(-0.00994155 -0.0219576 0)
(-0.0103668 -0.0245598 0)
(-0.0107892 -0.0271915 0)
(-0.0112093 -0.0298447 0)
(-0.0116275 -0.0325123 0)
(-0.0120443 -0.0351877 0)
(-0.0124601 -0.0378647 0)
(-0.0128754 -0.0405376 0)
(-0.0132904 -0.0432008 0)
(-0.0137056 -0.0458491 0)
(-0.0141212 -0.0484775 0)
(-0.0145376 -0.051081 0)
(-0.0149551 -0.053655 0)
(3.37315e-07 -0.000130758 0)
(3.86914e-06 -0.000373333 0)
(1.10602e-05 -0.000596651 0)
(2.16988e-05 -0.0008004 0)
(3.54512e-05 -0.000984304 0)
(5.19073e-05 -0.0011481 0)
(7.0647e-05 -0.00129156 0)
(9.15554e-05 -0.00141447 0)
(0.000116397 -0.00151662 0)
(0.000148859 -0.00159775 0)
(0.000183222 -0.00165751 0)
(0.000167107 -0.00169621 0)
(1.78407e-06 -0.00171684 0)
(-0.000279317 -0.00173157 0)
(-0.000922019 0.00051267 0)
(-0.000646199 0.00363209 0)
(-0.000941878 0.0061321 0)
(-0.00133163 0.00809258 0)
(-0.00177061 0.00954655 0)
(-0.00224542 0.0105302 0)
(-0.00275325 0.0110805 0)
(-0.00328696 0.0112344 0)
(-0.00383884 0.0110281 0)
(-0.00440246 0.0104957 0)
(-0.00497286 0.00966957 0)
(-0.00554618 0.00857998 0)
(-0.00611955 0.00725534 0)
(-0.00669093 0.00572245 0)
(-0.00725909 0.00400653 0)
(-0.00782304 0.0021312 0)
(-0.00838146 0.000117709 0)
(-0.00893454 -0.00201565 0)
(-0.00948406 -0.00425154 0)
(-0.010027 -0.00657372 0)
(-0.0105617 -0.00897191 0)
(-0.0110901 -0.0114353 0)
(-0.0116132 -0.013953 0)
(-0.0121318 -0.0165153 0)
(-0.0126464 -0.0191128 0)
(-0.0131578 -0.021737 0)
(-0.0136666 -0.02438 0)
(-0.0141735 -0.0270348 0)
(-0.0146789 -0.0296949 0)
(-0.0151833 -0.0323544 0)
(-0.015687 -0.0350078 0)
(-0.0161904 -0.0376498 0)
(-0.0166937 -0.0402752 0)
(-0.0171972 -0.0428791 0)
(-0.0177009 -0.0454567 0)
(-0.0182051 -0.0480034 0)
(9.09092e-07 -0.000162206 0)
(9.37732e-06 -0.000464895 0)
(2.60166e-05 -0.000745267 0)
(5.00124e-05 -0.00100277 0)
(8.0385e-05 -0.00123696 0)
(0.000115974 -0.00144733 0)
(0.000155882 -0.00163353 0)
(0.00019911 -0.00179509 0)
(0.00024643 -0.00193169 0)
(0.000299237 -0.002043 0)
(0.000350879 -0.00212948 0)
(0.000362504 -0.00219265 0)
(0.000242895 -0.00224064 0)
(-7.25635e-05 -0.00226063 0)
(-0.000552142 0.00240767 0)
(5.5467e-05 0.00745424 0)
(-0.000342044 0.0115067 0)
(-0.00071578 0.0146326 0)
(-0.00120483 0.0169452 0)
(-0.00177451 0.0185491 0)
(-0.00240289 0.0195373 0)
(-0.00306828 0.0199895 0)
(-0.00375513 0.0199744 0)
(-0.00445238 0.0195515 0)
(-0.00515219 0.0187726 0)
(-0.00584912 0.0176833 0)
(-0.00653955 0.0163235 0)
(-0.00722122 0.0147286 0)
(-0.00789287 0.01293 0)
(-0.00855398 0.0109554 0)
(-0.0092044 0.00882929 0)
(-0.00984372 0.00657318 0)
(-0.0104711 0.00420611 0)
(-0.0110906 0.00174552 0)
(-0.0117042 -0.000790513 0)
(-0.012309 -0.00338658 0)
(-0.0129101 -0.00603019 0)
(-0.0135112 -0.00870646 0)
(-0.0141111 -0.0114043 0)
(-0.0147098 -0.0141155 0)
(-0.0153079 -0.0168333 0)
(-0.0159055 -0.0195522 0)
(-0.0165029 -0.0222675 0)
(-0.0171 -0.024975 0)
(-0.0176968 -0.0276703 0)
(-0.0182934 -0.0303492 0)
(-0.0188895 -0.0330073 0)
(-0.0194852 -0.0356404 0)
(-0.0200805 -0.0382441 0)
(-0.0206753 -0.0408141 0)
(1.30998e-06 -0.000248403 0)
(1.0665e-05 -0.000702669 0)
(3.01616e-05 -0.00111511 0)
(6.01923e-05 -0.001486 0)
(0.000101594 -0.00181493 0)
(0.000154959 -0.0021009 0)
(0.000221734 -0.00234204 0)
(0.000303677 -0.00253581 0)
(0.000403307 -0.00267893 0)
(0.000516908 -0.00277038 0)
(0.000619374 -0.00281465 0)
(0.000642797 -0.00282466 0)
(0.000574748 -0.00282783 0)
(0.000352005 -0.00278121 0)
(-0.000578634 -0.00217122 0)
(-0.00197279 0.00624955 0)
(-0.00181313 0.0130434 0)
(-0.00247463 0.0183072 0)
(-0.00320258 0.0222076 0)
(-0.00393014 0.0249287 0)
(-0.00465049 0.0266521 0)
(-0.00537114 0.0275445 0)
(-0.00608993 0.0277513 0)
(-0.00680247 0.0273952 0)
(-0.00750552 0.0265781 0)
(-0.00819741 0.0253836 0)
(-0.0088776 0.02388 0)
(-0.00954634 0.0221239 0)
(-0.0102045 0.020162 0)
(-0.0108532 0.0180335 0)
(-0.0114939 0.0157716 0)
(-0.0121282 0.0134042 0)
(-0.0127576 0.010955 0)
(-0.0133835 0.00844378 0)
(-0.0140085 0.00588735 0)
(-0.0146356 0.00329925 0)
(-0.0152614 0.000689823 0)
(-0.0158849 -0.00193503 0)
(-0.0165111 -0.00457029 0)
(-0.0171358 -0.00721114 0)
(-0.0177561 -0.00985971 0)
(-0.0183747 -0.0125144 0)
(-0.0189925 -0.0151717 0)
(-0.0196099 -0.0178274 0)
(-0.020227 -0.020477 0)
(-0.0208442 -0.0231155 0)
(-0.0214616 -0.0257382 0)
(-0.0220796 -0.0283402 0)
(-0.022698 -0.0309168 0)
(-0.0233169 -0.0334635 0)
(-1.04109e-06 -0.000263968 0)
(1.32455e-06 -0.000791951 0)
(1.38878e-05 -0.00132026 0)
(4.06793e-05 -0.00184809 0)
(8.65211e-05 -0.00237604 0)
(0.00015715 -0.00290159 0)
(0.000261169 -0.00342571 0)
(0.000403588 -0.00394709 0)
(0.000554805 -0.00448242 0)
(0.000588637 -0.00505073 0)
(0.000408672 -0.00475331 0)
(7.29011e-05 -0.004424 0)
(-0.000485116 -0.00425402 0)
(-0.00258798 0.012073 0)
(-0.00219295 0.0171171 0)
(-0.0033804 0.0235821 0)
(-0.00435409 0.0285653 0)
(-0.00521927 0.032376 0)
(-0.00598265 0.0351796 0)
(-0.006682 0.0370938 0)
(-0.00733425 0.0382218 0)
(-0.00795005 0.0386648 0)
(-0.00853774 0.0385213 0)
(-0.0091043 0.0378838 0)
(-0.0096555 0.0368359 0)
(-0.010196 0.0354512 0)
(-0.0107296 0.0337922 0)
(-0.0112595 0.0319115 0)
(-0.0117881 0.0298524 0)
(-0.0123176 0.0276505 0)
(-0.0128497 0.0253341 0)
(-0.0133855 0.0229261 0)
(-0.013926 0.0204444 0)
(-0.0144719 0.0179029 0)
(-0.0150234 0.0153124 0)
(-0.0155808 0.0126816 0)
(-0.0161439 0.0100171 0)
(-0.0167115 0.00732455 0)
(-0.0172811 0.00460879 0)
(-0.0178569 0.00187546 0)
(-0.018441 -0.000866153 0)
(-0.0190313 -0.00360912 0)
(-0.0196308 -0.00634689 0)
(-0.0202395 -0.00907193 0)
(-0.0208565 -0.0117794 0)
(-0.0214812 -0.0144657 0)
(-0.0221129 -0.0171278 0)
(-0.0227514 -0.0197628 0)
(-0.0233961 -0.022368 0)
(-0.0240463 -0.0249406 0)
(6.57083e-07 -0.000298851 0)
(6.8945e-06 -0.000957596 0)
(2.07136e-05 -0.00168334 0)
(4.42413e-05 -0.00247042 0)
(8.66641e-05 -0.00333385 0)
(0.000155322 -0.00426159 0)
(0.000212231 -0.00529905 0)
(6.26413e-05 -0.00645474 0)
(-0.000436547 -0.00671032 0)
(-0.00110562 -0.00748342 0)
(-0.00200266 -0.00583207 0)
(-0.00379432 0.00681581 0)
(-0.00439281 0.00706763 0)
(-0.0118699 0.017726 0)
(-0.00986317 0.0243808 0)
(-0.0108677 0.0298278 0)
(-0.0117878 0.0340647 0)
(-0.0124824 0.0372054 0)
(-0.0129764 0.0393913 0)
(-0.0133609 0.0407622 0)
(-0.0136779 0.0414441 0)
(-0.0139497 0.0415471 0)
(-0.0141921 0.0411665 0)
(-0.0144174 0.0403842 0)
(-0.0146349 0.0392699 0)
(-0.0148517 0.0378827 0)
(-0.0150726 0.0362721 0)
(-0.0153012 0.034479 0)
(-0.01554 0.0325374 0)
(-0.015791 0.030475 0)
(-0.0160552 0.0283147 0)
(-0.0163338 0.0260754 0)
(-0.0166275 0.0237727 0)
(-0.0169368 0.0214195 0)
(-0.0172625 0.0190271 0)
(-0.0176051 0.0166048 0)
(-0.0179652 0.0141611 0)
(-0.0183436 0.0117029 0)
(-0.0187409 0.00923629 0)
(-0.0191585 0.00676602 0)
(-0.0195978 0.00429642 0)
(-0.0200587 0.00183052 0)
(-0.0205392 -0.000630759 0)
(-0.0210397 -0.00308807 0)
(-0.0215575 -0.00554046 0)
(-0.0220923 -0.00798623 0)
(-0.0226444 -0.0104233 0)
(-0.0232134 -0.0128495 0)
(-0.0237986 -0.0152625 0)
(-0.0243991 -0.0176599 0)
(-1.46751e-06 -0.000348263 0)
(-1.66946e-05 -0.00105889 0)
(-4.35898e-05 -0.00179669 0)
(-7.05864e-05 -0.00255677 0)
(-0.000123012 -0.00336691 0)
(-0.000404769 -0.00421305 0)
(-0.00122369 -0.00498007 0)
(-0.0023743 -0.00634829 0)
(-0.00333313 -0.00451625 0)
(-0.00391556 0.00415642 0)
(-0.00338941 0.0070695 0)
(-0.00335954 0.061074 0)
(-1.01949e-05 0.0580699 0)
(-0.00237821 0.0540883 0)
(-0.00293131 0.0513461 0)
(-0.00340946 0.0497242 0)
(-0.00379882 0.0488522 0)
(-0.00412551 0.0484005 0)
(-0.00438904 0.0481138 0)
(-0.00461107 0.0478171 0)
(-0.00481444 0.0473991 0)
(-0.00501764 0.0467971 0)
(-0.00523353 0.0459834 0)
(-0.00546999 0.044954 0)
(-0.00573098 0.0437197 0)
(-0.00601782 0.0422994 0)
(-0.00633041 0.0407151 0)
(-0.00666804 0.0389893 0)
(-0.0070299 0.0371434 0)
(-0.00741528 0.0351973 0)
(-0.00782362 0.0331689 0)
(-0.00825457 0.0310739 0)
(-0.00870791 0.0289264 0)
(-0.00918351 0.0267381 0)
(-0.00968126 0.0245195 0)
(-0.010201 0.0222789 0)
(-0.0107426 0.0200236 0)
(-0.0113057 0.0177592 0)
(-0.0118898 0.0154901 0)
(-0.0124946 0.0132198 0)
(-0.0131192 0.0109509 0)
(-0.0137627 0.00868521 0)
(-0.0144233 0.00642435 0)
(-0.0150992 0.0041692 0)
(-0.0157925 0.00192049 0)
(-0.0165026 -0.000322676 0)
(-0.0172269 -0.00256078 0)
(-0.0179634 -0.00479386 0)
(-0.0187126 -0.00702183 0)
(-0.0194728 -0.00924717 0)
(-4.45778e-06 -8.62384e-05 0)
(-3.55322e-05 -0.000276777 0)
(-9.65124e-05 -0.000486117 0)
(-0.000208325 -0.00071355 0)
(-0.00044985 -0.000964502 0)
(-0.000917181 -0.00126422 0)
(-0.00154511 -0.00152912 0)
(-0.00288231 -0.00538391 0)
(-0.00279598 -0.0099389 0)
(-0.00277656 0.00316785 0)
(-0.00171416 -0.0231122 0)
(-0.000473575 0.00324307 0)
(0.00247407 0.0175753 0)
(0.00468326 0.0283921 0)
(0.00556637 0.0350396 0)
(0.00505829 0.0386275 0)
(0.00359452 0.0405867 0)
(0.00179763 0.0418434 0)
(6.18096e-05 0.0428069 0)
(-0.00145632 0.0435747 0)
(-0.00272985 0.0441678 0)
(-0.00376619 0.0445724 0)
(-0.00458208 0.0447555 0)
(-0.00520072 0.0446841 0)
(-0.00565356 0.0443419 0)
(-0.00597885 0.0437346 0)
(-0.00621564 0.0428855 0)
(-0.00639705 0.0418272 0)
(-0.00654788 0.0405933 0)
(-0.00668604 0.0392146 0)
(-0.00682478 0.0377189 0)
(-0.00697419 0.0361295 0)
(-0.00714196 0.0344656 0)
(-0.00733393 0.0327417 0)
(-0.00755444 0.0309688 0)
(-0.00780659 0.0291556 0)
(-0.00809247 0.0273084 0)
(-0.00841331 0.0254322 0)
(-0.00876963 0.0235303 0)
(-0.00916134 0.021605 0)
(-0.00958782 0.0196573 0)
(-0.010048 0.0176879 0)
(-0.0105406 0.0156966 0)
(-0.0110639 0.0136831 0)
(-0.0116162 0.011647 0)
(-0.012196 0.00958831 0)
(-0.0128022 0.00750768 0)
(-0.0134339 0.00540614 0)
(-0.014088 0.00328525 0)
(-0.0147637 0.00115172 0)
(0.00525145 -0.0290567 0)
(0.0057316 -0.0305419 0)
(0.00622495 -0.0320565 0)
(0.00673185 -0.0336025 0)
(0.00725223 -0.035183 0)
(0.00778611 -0.0367925 0)
(0.00833384 -0.0384313 0)
(0.00889564 -0.040099 0)
(0.00947175 -0.0417949 0)
(0.0100625 -0.0435186 0)
(0.0106681 -0.0452697 0)
(0.0112889 -0.0470479 0)
(0.0119251 -0.048853 0)
(0.0125771 -0.0506844 0)
(0.0132449 -0.0525419 0)
(0.0139287 -0.0544247 0)
(0.0146286 -0.0563323 0)
(0.0153445 -0.0582638 0)
(0.0160764 -0.0602181 0)
(0.016824 -0.0621942 0)
(0.0175872 -0.0641908 0)
(0.0183655 -0.0662064 0)
(0.0191586 -0.0682395 0)
(0.0199659 -0.0702883 0)
(0.0207869 -0.072351 0)
(0.0216209 -0.0744256 0)
(0.0224673 -0.0765101 0)
(0.0233252 -0.0786023 0)
(0.0241939 -0.0807001 0)
(0.0250726 -0.0828012 0)
(0.0259603 -0.0849033 0)
(0.0268562 -0.0870042 0)
(0.0277593 -0.0891016 0)
(0.0286688 -0.0911933 0)
(0.0295838 -0.0932771 0)
(0.0305034 -0.095351 0)
(0.0314268 -0.0974129 0)
(0.0323532 -0.099461 0)
(0.0332819 -0.101494 0)
(0.0342123 -0.10351 0)
(0.0351438 -0.105507 0)
(0.036076 -0.107486 0)
(0.0370086 -0.109444 0)
(0.0379413 -0.111382 0)
(0.0388741 -0.113299 0)
(0.0398071 -0.115195 0)
(0.0407405 -0.117071 0)
(0.0416746 -0.118926 0)
(0.0426099 -0.120758 0)
(0.0435473 -0.122563 0)
(0.00605344 -0.0350701 0)
(0.00654307 -0.0367245 0)
(0.00704751 -0.0384129 0)
(0.00756724 -0.0401369 0)
(0.00810205 -0.0418957 0)
(0.00865223 -0.0436885 0)
(0.00921798 -0.0455147 0)
(0.00979947 -0.0473737 0)
(0.0103968 -0.0492647 0)
(0.0110102 -0.051187 0)
(0.0116395 -0.0531396 0)
(0.0122848 -0.0551215 0)
(0.012946 -0.0571316 0)
(0.0136228 -0.0591684 0)
(0.014315 -0.0612305 0)
(0.0150223 -0.0633162 0)
(0.0157442 -0.0654238 0)
(0.0164801 -0.0675512 0)
(0.0172296 -0.0696964 0)
(0.0179919 -0.0718572 0)
(0.0187663 -0.0740313 0)
(0.0195521 -0.0762164 0)
(0.0203483 -0.0784099 0)
(0.0211542 -0.0806094 0)