/*--------------------------------*- C++ -*----------------------------------*\
| =========                 |                                                 |
| \\      /  F ield         | OpenFOAM: The Open Source CFD Toolbox           |
|  \\    /   O peration     | Version:  2.4.0                                 |
|   \\  /    A nd           | Web:      www.OpenFOAM.org                      |
|    \\/     M anipulation  |                                                 |
\*---------------------------------------------------------------------------*/
FoamFile
{
    version     2.0;
    format      ascii;
    class       volScalarField;
    location    "2.4";
    object      H;
}
// * * * * * * * * * * * * * * * * * * * * * * * * * * * * * * * * * * * * * //

dimensions      [0 2 -2 0 0 0 0];

internalField   nonuniform List<scalar> 
500
(
-11917.7
-11917.7
-11917.7
-11917.7
-11917.7
-11289.7
-11289.7
-11289.7
-11289.7
-11289.7
-10654.6
-10654.6
-10654.6
-10654.6
-10654.6
-10012.3
-10012.3
-10012.2
-10012.3
-10012.3
-9362.62
-9362.6
-9362.59
-9362.6
-9362.62
-8705.49
-8705.47
-8705.45
-8705.46
-8705.49
-8040.75
-8040.72
-8040.7
-8040.72
-8040.75
-7368.25
-7368.21
-7368.19
-7368.21
-7368.25
-6687.84
-6687.8
-6687.78
-6687.8
-6687.84
-5999.38
-5999.34
-5999.31
-5999.34
-5999.38
-5302.71
-5302.66
-5302.63
-5302.66
-5302.71
-4597.66
-4597.61
-4597.57
-4597.6
-4597.66
-3884.08
-3884.02
-3883.98
-3884.02
-3884.08
-3161.79
-3161.73
-3161.68
-3161.73
-3161.79
-2430.63
-2430.56
-2430.52
-2430.56
-2430.64
-1690.43
-1690.35
-1690.3
-1690.35
-1690.43
-941.003
-940.917
-940.861
-940.916
-941.004
-22.0542
-22.0468
-22.0422
-22.0467
-22.0542
-16.5114
-16.5059
-16.5024
-16.5058
-16.5114
-16.6395
-16.6341
-16.6307
-16.6341
-16.6396
-16.7635
-16.7581
-16.7548
-16.7581
-16.7635
-16.8829
-16.8777
-16.8744
-16.8776
-16.883
-16.9977
-16.9926
-16.9893
-16.9925
-16.9978
-17.1077
-17.1026
-17.0994
-17.1026
-17.1078
-17.2126
-17.2075
-17.2044
-17.2075
-17.2126
-17.3121
-17.3072
-17.3041
-17.3071
-17.3122
-17.4062
-17.4013
-17.3983
-17.4013
-17.4062
-17.4945
-17.4897
-17.4867
-17.4897
-17.4946
-17.5768
-17.5721
-17.5692
-17.5721
-17.5769
-17.653
-17.6484
-17.6455
-17.6484
-17.6531
-17.7228
-17.7182
-17.7154
-17.7182
-17.7229
-17.7859
-17.7815
-17.7786
-17.7814
-17.786
-17.8422
-17.8378
-17.835
-17.8378
-17.8423
-17.8914
-17.8871
-17.8844
-17.8871
-17.8915
-17.9333
-17.929
-17.9264
-17.929
-17.9333
-17.9676
-17.9635
-17.9608
-17.9634
-17.9677
-17.9942
-17.9901
-17.9875
-17.9901
-17.9943
-18.0128
-18.0088
-18.0062
-18.0088
-18.0128
-18.0232
-18.0192
-18.0167
-18.0192
-18.0232
-18.0251
-18.0213
-18.0188
-18.0212
-18.0252
-18.0184
-18.0146
-18.0122
-18.0146
-18.0185
-18.0029
-17.9992
-17.9968
-17.9991
-18.0029
-17.9782
-17.9746
-17.9723
-17.9746
-17.9783
-17.9443
-17.9407
-17.9385
-17.9407
-17.9444
-17.9009
-17.8974
-17.8952
-17.8974
-17.9009
-17.8478
-17.8444
-17.8422
-17.8444
-17.8479
-17.7849
-17.7815
-17.7794
-17.7815
-17.7849
-17.7119
-17.7086
-17.7065
-17.7086
-17.7119
-17.6286
-17.6254
-17.6234
-17.6254
-17.6287
-17.535
-17.5319
-17.5299
-17.5319
-17.535
-17.4308
-17.4278
-17.4258
-17.4277
-17.4308
-17.3159
-17.3129
-17.311
-17.3129
-17.3159
-17.1902
-17.1873
-17.1854
-17.1872
-17.1902
-17.0534
-17.0506
-17.0488
-17.0506
-17.0535
-16.9056
-16.9028
-16.9011
-16.9028
-16.9056
-16.7466
-16.7439
-16.7422
-16.7439
-16.7466
-16.5762
-16.5736
-16.5719
-16.5736
-16.5762
-16.3945
-16.3919
-16.3903
-16.3919
-16.3945
-16.2013
-16.1988
-16.1973
-16.1988
-16.2014
-15.9967
-15.9942
-15.9927
-15.9942
-15.9967
-15.7804
-15.7781
-15.7766
-15.7781
-15.7805
-15.5527
-15.5504
-15.549
-15.5504
-15.5527
-15.3134
-15.3112
-15.3098
-15.3112
-15.3134
-15.0625
-15.0604
-15.059
-15.0604
-15.0625
-14.8001
-14.798
-14.7967
-14.798
-14.8001
-14.5263
-14.5243
-14.523
-14.5243
-14.5263
-14.241
-14.2391
-14.2379
-14.2391
-14.2411
-13.9445
-13.9426
-13.9415
-13.9426
-13.9445
-13.6368
-13.635
-13.6339
-13.635
-13.6368
-13.318
-13.3163
-13.3152
-13.3163
-13.318
-12.9884
-12.9867
-12.9856
-12.9867
-12.9884
-12.648
-12.6464
-12.6454
-12.6464
-12.648
-12.2971
-12.2955
-12.2946
-12.2955
-12.2971
-11.9359
-11.9344
-11.9335
-11.9344
-11.9359
-11.5646
-11.5632
-11.5623
-11.5632
-11.5646
-11.1836
-11.1823
-11.1814
-11.1823
-11.1836
-10.7931
-10.7918
-10.791
-10.7918
-10.7931
-10.3934
-10.3922
-10.3914
-10.3922
-10.3934
-9.9849
-9.98375
-9.98301
-9.98374
-9.98491
-9.56795
-9.56685
-9.56616
-9.56685
-9.56796
-9.14293
-9.14189
-9.14124
-9.14189
-9.14294
-8.71027
-8.70929
-8.70867
-8.70929
-8.71028
-8.27041
-8.26949
-8.26891
-8.26949
-8.27042
-7.82381
-7.82295
-7.82241
-7.82295
-7.82382
-7.37098
-7.37018
-7.36967
-7.37017
-7.37099
-6.91242
-6.91167
-6.9112
-6.91167
-6.91243
-6.44868
-6.44799
-6.44755
-6.44799
-6.44868
-5.98032
-5.97968
-5.97928
-5.97968
-5.98032
-5.50793
-5.50735
-5.50698
-5.50735
-5.50793
-5.03212
-5.0316
-5.03127
-5.0316
-5.03213
-4.55354
-4.55307
-4.55277
-4.55307
-4.55355
-4.07284
-4.07242
-4.07215
-4.07242
-4.07284
-3.5907
-3.59033
-3.5901
-3.59033
-3.5907
-3.10782
-3.10751
-3.1073
-3.10751
-3.10783
-2.62494
-2.62467
-2.6245
-2.62467
-2.62494
-2.14279
-2.14257
-2.14243
-2.14257
-2.14279
-1.66214
-1.66197
-1.66187
-1.66197
-1.66214
-1.18378
-1.18366
-1.18359
-1.18366
-1.18379
-0.708519
-0.708447
-0.708402
-0.708447
-0.708519
-0.237169
-0.237145
-0.23713
-0.237145
-0.237169
)
;

boundaryField
{
    BotWall
    {
        type            zeroGradient;
    }
    FreeStream
    {
        type            zeroGradient;
    }
    FrontNBack
    {
        type            empty;
    }
    LeftSide
    {
        type            symmetryPlane;
    }
    RightSide
    {
        type            symmetryPlane;
    }
}


// ************************************************************************* //
