/*--------------------------------*- C++ -*----------------------------------*\
| =========                 |                                                 |
| \\      /  F ield         | OpenFOAM: The Open Source CFD Toolbox           |
|  \\    /   O peration     | Version:  2.4.0                                 |
|   \\  /    A nd           | Web:      www.OpenFOAM.org                      |
|    \\/     M anipulation  |                                                 |
\*---------------------------------------------------------------------------*/
FoamFile
{
    version     2.0;
    format      ascii;
    class       volScalarField;
    location    "2.4";
    object      p;
}
// * * * * * * * * * * * * * * * * * * * * * * * * * * * * * * * * * * * * * //

dimensions      [1 -1 -2 0 0 0 0];

internalField   nonuniform List<scalar> 
500
(
0.547402
0.547468
0.54751
0.547468
0.547402
0.517625
0.517694
0.517739
0.517694
0.517625
0.487474
0.487542
0.487585
0.487542
0.487473
0.457014
0.457083
0.457126
0.457083
0.457013
0.426167
0.426237
0.426281
0.426236
0.426166
0.395009
0.39508
0.395124
0.395079
0.395007
0.363544
0.363616
0.363661
0.363616
0.363543
0.332034
0.332108
0.332153
0.332107
0.332033
0.300225
0.300299
0.300345
0.300298
0.300224
0.266083
0.266156
0.266203
0.266156
0.266082
0.224797
0.224865
0.224911
0.224865
0.224796
0.180884
0.180955
0.180999
0.180954
0.180883
0.187935
0.188045
0.188093
0.188045
0.187934
0.36463
0.364836
0.364916
0.364836
0.364628
0.596096
0.596317
0.596468
0.596319
0.596093
-0.489803
-0.49011
-0.490037
-0.49011
-0.489805
-5.81933
-5.82107
-5.8218
-5.82109
-5.81931
-12.6178
-12.6207
-12.623
-12.6208
-12.6178
-0.0157256
-0.0157252
-0.0157251
-0.0157252
-0.0157256
-0.00892676
-0.00892707
-0.00892713
-0.00892707
-0.00892676
-0.010632
-0.010632
-0.010632
-0.010632
-0.010632
-0.0118411
-0.011841
-0.011841
-0.011841
-0.0118411
-0.012552
-0.0125519
-0.0125519
-0.0125519
-0.012552
-0.0131427
-0.0131427
-0.0131427
-0.0131427
-0.0131427
-0.0137573
-0.0137573
-0.0137573
-0.0137573
-0.0137573
-0.0143985
-0.0143985
-0.0143985
-0.0143985
-0.0143985
-0.0150516
-0.0150516
-0.0150516
-0.0150516
-0.0150516
-0.0157113
-0.0157113
-0.0157113
-0.0157113
-0.0157113
-0.0163776
-0.0163776
-0.0163776
-0.0163776
-0.0163776
-0.0170511
-0.0170511
-0.0170511
-0.0170511
-0.0170511
-0.0177322
-0.0177322
-0.0177322
-0.0177322
-0.0177322
-0.0184209
-0.0184209
-0.0184209
-0.0184209
-0.0184209
-0.0191173
-0.0191173
-0.0191173
-0.0191173
-0.0191173
-0.0198214
-0.0198214
-0.0198214
-0.0198214
-0.0198214
-0.0205335
-0.0205335
-0.0205335
-0.0205335
-0.0205335
-0.0212534
-0.0212534
-0.0212534
-0.0212534
-0.0212534
-0.0219815
-0.0219815
-0.0219815
-0.0219815
-0.0219815
-0.0227176
-0.0227176
-0.0227176
-0.0227176
-0.0227176
-0.0234619
-0.0234619
-0.0234619
-0.0234619
-0.0234619
-0.0242146
-0.0242146
-0.0242146
-0.0242146
-0.0242146
-0.0249756
-0.0249756
-0.0249756
-0.0249756
-0.0249756
-0.0257452
-0.0257452
-0.0257452
-0.0257452
-0.0257452
-0.0265233
-0.0265233
-0.0265233
-0.0265233
-0.0265233
-0.0273101
-0.0273101
-0.0273101
-0.0273101
-0.0273101
-0.0281057
-0.0281057
-0.0281057
-0.0281057
-0.0281057
-0.0289102
-0.0289102
-0.0289102
-0.0289102
-0.0289102
-0.0297236
-0.0297236
-0.0297236
-0.0297236
-0.0297236
-0.0305461
-0.0305461
-0.0305461
-0.0305461
-0.0305461
-0.0313778
-0.0313778
-0.0313778
-0.0313778
-0.0313778
-0.0322188
-0.0322188
-0.0322188
-0.0322188
-0.0322188
-0.0330692
-0.0330692
-0.0330692
-0.0330692
-0.0330692
-0.033929
-0.033929
-0.033929
-0.033929
-0.033929
-0.0347985
-0.0347985
-0.0347985
-0.0347985
-0.0347985
-0.0356776
-0.0356776
-0.0356776
-0.0356776
-0.0356776
-0.0365666
-0.0365666
-0.0365666
-0.0365666
-0.0365666
-0.0374655
-0.0374655
-0.0374655
-0.0374655
-0.0374655
-0.0383744
-0.0383744
-0.0383744
-0.0383744
-0.0383744
-0.0392935
-0.0392935
-0.0392935
-0.0392935
-0.0392935
-0.0402228
-0.0402228
-0.0402228
-0.0402228
-0.0402228
-0.0411625
-0.0411625
-0.0411625
-0.0411625
-0.0411625
-0.0421126
-0.0421126
-0.0421126
-0.0421126
-0.0421126
-0.0430734
-0.0430734
-0.0430734
-0.0430734
-0.0430734
-0.0440449
-0.0440449
-0.0440449
-0.0440449
-0.0440449
-0.0450272
-0.0450272
-0.0450272
-0.0450272
-0.0450272
-0.0460205
-0.0460205
-0.0460205
-0.0460205
-0.0460205
-0.0470249
-0.0470249
-0.0470249
-0.0470249
-0.0470249
-0.0480405
-0.0480405
-0.0480405
-0.0480405
-0.0480405
-0.0490674
-0.0490674
-0.0490674
-0.0490674
-0.0490674
-0.0501058
-0.0501058
-0.0501058
-0.0501058
-0.0501058
-0.0511558
-0.0511558
-0.0511558
-0.0511558
-0.0511558
-0.0522174
-0.0522174
-0.0522174
-0.0522174
-0.0522174
-0.053291
-0.053291
-0.053291
-0.053291
-0.053291
-0.0543765
-0.0543765
-0.0543765
-0.0543765
-0.0543765
-0.0554741
-0.0554741
-0.0554741
-0.0554741
-0.0554741
-0.056584
-0.056584
-0.056584
-0.056584
-0.056584
-0.0577062
-0.0577062
-0.0577062
-0.0577062
-0.0577062
-0.058841
-0.058841
-0.058841
-0.058841
-0.058841
-0.0599884
-0.0599884
-0.0599884
-0.0599884
-0.0599884
-0.0611487
-0.0611487
-0.0611487
-0.0611487
-0.0611487
-0.0623219
-0.0623219
-0.0623219
-0.0623219
-0.0623219
-0.0635082
-0.0635082
-0.0635082
-0.0635082
-0.0635082
-0.0647077
-0.0647077
-0.0647077
-0.0647077
-0.0647077
-0.0659206
-0.0659206
-0.0659206
-0.0659206
-0.0659206
-0.067147
-0.067147
-0.067147
-0.067147
-0.067147
-0.0683872
-0.0683872
-0.0683872
-0.0683872
-0.0683872
-0.0696411
-0.0696411
-0.0696411
-0.0696411
-0.0696411
-0.0709091
-0.0709091
-0.0709091
-0.0709091
-0.0709091
-0.0721912
-0.0721912
-0.0721912
-0.0721912
-0.0721912
-0.0734876
-0.0734876
-0.0734876
-0.0734876
-0.0734876
-0.0747985
-0.0747985
-0.0747985
-0.0747985
-0.0747985
-0.076124
-0.076124
-0.076124
-0.076124
-0.076124
-0.0774643
-0.0774643
-0.0774643
-0.0774643
-0.0774643
-0.0788196
-0.0788196
-0.0788196
-0.0788196
-0.0788196
-0.0801899
-0.0801899
-0.0801899
-0.0801899
-0.0801899
-0.0815756
-0.0815756
-0.0815756
-0.0815756
-0.0815756
-0.0829767
-0.0829767
-0.0829767
-0.0829767
-0.0829767
-0.0843935
-0.0843935
-0.0843935
-0.0843935
-0.0843935
-0.0858261
-0.0858261
-0.0858261
-0.0858261
-0.0858261
-0.0872747
-0.0872747
-0.0872747
-0.0872747
-0.0872747
-0.0887394
-0.0887394
-0.0887394
-0.0887394
-0.0887394
)
;

boundaryField
{
    BotWall
    {
        type            calculated;
        value           nonuniform List<scalar> 5(0.562222 0.562288 0.56233 0.562288 0.562222);
    }
    FreeStream
    {
        type            calculated;
        value           nonuniform List<scalar> 5(-0.0894758 -0.0894758 -0.0894758 -0.0894758 -0.0894758);
    }
    FrontNBack
    {
        type            empty;
    }
    LeftSide
    {
        type            symmetryPlane;
    }
    RightSide
    {
        type            symmetryPlane;
    }
}


// ************************************************************************* //
