/*--------------------------------*- C++ -*----------------------------------*\
| =========                 |                                                 |
| \\      /  F ield         | OpenFOAM: The Open Source CFD Toolbox           |
|  \\    /   O peration     | Version:  2.4.0                                 |
|   \\  /    A nd           | Web:      www.OpenFOAM.org                      |
|    \\/     M anipulation  |                                                 |
\*---------------------------------------------------------------------------*/
FoamFile
{
    version     2.0;
    format      ascii;
    class       volScalarField;
    location    "2.4";
    object      p_rgh;
}
// * * * * * * * * * * * * * * * * * * * * * * * * * * * * * * * * * * * * * //

dimensions      [1 -1 -2 0 0 0 0];

internalField   nonuniform List<scalar> 
500
(
0.562222
0.562288
0.56233
0.562288
0.562222
0.562252
0.562321
0.562365
0.562321
0.562251
0.562239
0.562307
0.56235
0.562307
0.562238
0.562253
0.562323
0.562366
0.562322
0.562252
0.562222
0.562292
0.562336
0.562291
0.562221
0.562222
0.562293
0.562338
0.562293
0.562221
0.562265
0.562337
0.562382
0.562336
0.562263
0.562612
0.562686
0.562731
0.562685
0.562611
0.563017
0.563091
0.563137
0.56309
0.563015
0.561448
0.561521
0.561568
0.561521
0.561447
0.553098
0.553167
0.553213
0.553166
0.553097
0.54249
0.54256
0.542604
0.54256
0.542488
0.583216
0.583327
0.583374
0.583326
0.583215
0.793962
0.794169
0.794249
0.794169
0.793961
1.05986
1.06008
1.06023
1.06008
1.05986
0.00877677
0.0084698
0.00854314
0.00847006
0.00877497
-5.28554
-5.28729
-5.28802
-5.2873
-5.28553
-12.2904
-12.2933
-12.2954
-12.2933
-12.2904
-0.00569826
-0.00569792
-0.00569783
-0.00569791
-0.00569827
0.00170338
0.00170307
0.00170301
0.00170307
0.00170338
0.000607746
0.000607772
0.000607764
0.000607772
0.000607747
1.50147e-05
1.50661e-05
1.50703e-05
1.50663e-05
1.50145e-05
-7.25874e-05
-7.25806e-05
-7.25781e-05
-7.25805e-05
-7.25875e-05
-3.31393e-05
-3.31466e-05
-3.31459e-05
-3.31465e-05
-3.31394e-05
-1.04341e-05
-1.04372e-05
-1.0437e-05
-1.0437e-05
-1.04342e-05
-7.26625e-06
-7.26544e-06
-7.26516e-06
-7.2653e-06
-7.26631e-06
-8.82902e-06
-8.8276e-06
-8.82727e-06
-8.82746e-06
-8.82908e-06
-9.71852e-06
-9.71754e-06
-9.71721e-06
-9.7174e-06
-9.71857e-06
-9.8308e-06
-9.8301e-06
-9.82978e-06
-9.82995e-06
-9.83085e-06
-9.7574e-06
-9.75675e-06
-9.75646e-06
-9.75661e-06
-9.75744e-06
-9.71138e-06
-9.71073e-06
-9.71046e-06
-9.71059e-06
-9.71142e-06
-9.69616e-06
-9.69553e-06
-9.69527e-06
-9.69538e-06
-9.6962e-06
-9.68812e-06
-9.68752e-06
-9.68728e-06
-9.68737e-06
-9.68816e-06
-9.67885e-06
-9.67827e-06
-9.67804e-06
-9.67812e-06
-9.67888e-06
-9.66821e-06
-9.66766e-06
-9.66745e-06
-9.66751e-06
-9.66825e-06
-9.65717e-06
-9.65665e-06
-9.65645e-06
-9.6565e-06
-9.6572e-06
-9.64606e-06
-9.64555e-06
-9.64536e-06
-9.6454e-06
-9.64608e-06
-9.63486e-06
-9.63438e-06
-9.6342e-06
-9.63423e-06
-9.63489e-06
-9.62355e-06
-9.62309e-06
-9.62293e-06
-9.62295e-06
-9.62357e-06
-9.61212e-06
-9.61167e-06
-9.61152e-06
-9.61153e-06
-9.61213e-06
-9.60055e-06
-9.60012e-06
-9.59998e-06
-9.59998e-06
-9.60056e-06
-9.58885e-06
-9.58844e-06
-9.58831e-06
-9.5883e-06
-9.58886e-06
-9.57701e-06
-9.57663e-06
-9.57651e-06
-9.57649e-06
-9.57702e-06
-9.56505e-06
-9.56468e-06
-9.56457e-06
-9.56454e-06
-9.56506e-06
-9.55295e-06
-9.5526e-06
-9.5525e-06
-9.55246e-06
-9.55295e-06
-9.54071e-06
-9.54038e-06
-9.54029e-06
-9.54024e-06
-9.54071e-06
-9.52834e-06
-9.52802e-06
-9.52794e-06
-9.52788e-06
-9.52834e-06
-9.51583e-06
-9.51552e-06
-9.51544e-06
-9.51538e-06
-9.51582e-06
-9.50317e-06
-9.50288e-06
-9.50281e-06
-9.50275e-06
-9.50317e-06
-9.49038e-06
-9.4901e-06
-9.49004e-06
-9.48996e-06
-9.49037e-06
-9.47744e-06
-9.47717e-06
-9.47712e-06
-9.47704e-06
-9.47743e-06
-9.46435e-06
-9.4641e-06
-9.46405e-06
-9.46397e-06
-9.46434e-06
-9.45112e-06
-9.45088e-06
-9.45084e-06
-9.45075e-06
-9.45111e-06
-9.43775e-06
-9.43751e-06
-9.43747e-06
-9.43739e-06
-9.43773e-06
-9.42422e-06
-9.424e-06
-9.42396e-06
-9.42387e-06
-9.4242e-06
-9.41054e-06
-9.41032e-06
-9.41029e-06
-9.4102e-06
-9.41052e-06
-9.3967e-06
-9.3965e-06
-9.39647e-06
-9.39638e-06
-9.39668e-06
-9.38271e-06
-9.38252e-06
-9.3825e-06
-9.3824e-06
-9.38269e-06
-9.36857e-06
-9.36839e-06
-9.36836e-06
-9.36827e-06
-9.36855e-06
-9.35427e-06
-9.35409e-06
-9.35407e-06
-9.35398e-06
-9.35425e-06
-9.33981e-06
-9.33964e-06
-9.33962e-06
-9.33952e-06
-9.33978e-06
-9.32518e-06
-9.32502e-06
-9.32501e-06
-9.32491e-06
-9.32516e-06
-9.3104e-06
-9.31024e-06
-9.31023e-06
-9.31013e-06
-9.31037e-06
-9.29545e-06
-9.2953e-06
-9.29529e-06
-9.29519e-06
-9.29542e-06
-9.28033e-06
-9.28018e-06
-9.28018e-06
-9.28008e-06
-9.2803e-06
-9.26504e-06
-9.2649e-06
-9.2649e-06
-9.2648e-06
-9.26501e-06
-9.24958e-06
-9.24945e-06
-9.24945e-06
-9.24935e-06
-9.24956e-06
-9.23396e-06
-9.23383e-06
-9.23383e-06
-9.23373e-06
-9.23393e-06
-9.21815e-06
-9.21803e-06
-9.21803e-06
-9.21794e-06
-9.21812e-06
-9.20217e-06
-9.20206e-06
-9.20206e-06
-9.20197e-06
-9.20215e-06
-9.18602e-06
-9.18591e-06
-9.18591e-06
-9.18582e-06
-9.18599e-06
-9.16968e-06
-9.16957e-06
-9.16957e-06
-9.16949e-06
-9.16965e-06
-9.15316e-06
-9.15306e-06
-9.15306e-06
-9.15298e-06
-9.15314e-06
-9.13646e-06
-9.13637e-06
-9.13637e-06
-9.13629e-06
-9.13644e-06
-9.11958e-06
-9.11948e-06
-9.11948e-06
-9.11941e-06
-9.11955e-06
-9.1025e-06
-9.10241e-06
-9.10241e-06
-9.10234e-06
-9.10248e-06
-9.08524e-06
-9.08515e-06
-9.08515e-06
-9.08508e-06
-9.08521e-06
-9.06779e-06
-9.0677e-06
-9.0677e-06
-9.06763e-06
-9.06776e-06
-9.05014e-06
-9.05006e-06
-9.05006e-06
-9.04999e-06
-9.05011e-06
-9.03229e-06
-9.03222e-06
-9.03222e-06
-9.03216e-06
-9.03227e-06
-9.01425e-06
-9.01418e-06
-9.01418e-06
-9.01412e-06
-9.01422e-06
-8.99601e-06
-8.99594e-06
-8.99594e-06
-8.99588e-06
-8.99598e-06
-8.97756e-06
-8.9775e-06
-8.9775e-06
-8.97745e-06
-8.97754e-06
-8.95891e-06
-8.95885e-06
-8.95886e-06
-8.9588e-06
-8.95889e-06
-8.94006e-06
-8.94e-06
-8.94e-06
-8.93995e-06
-8.94003e-06
-8.92099e-06
-8.92094e-06
-8.92094e-06
-8.9209e-06
-8.92097e-06
-8.90172e-06
-8.90167e-06
-8.90167e-06
-8.90163e-06
-8.9017e-06
-8.88223e-06
-8.88218e-06
-8.88219e-06
-8.88214e-06
-8.88221e-06
-8.86252e-06
-8.86248e-06
-8.86248e-06
-8.86245e-06
-8.8625e-06
-8.8426e-06
-8.84256e-06
-8.84257e-06
-8.84253e-06
-8.84258e-06
-8.82245e-06
-8.82242e-06
-8.82243e-06
-8.82239e-06
-8.82243e-06
-8.80208e-06
-8.80206e-06
-8.80206e-06
-8.80203e-06
-8.80207e-06
-8.78149e-06
-8.78147e-06
-8.78147e-06
-8.78145e-06
-8.78147e-06
-8.76067e-06
-8.76065e-06
-8.76066e-06
-8.76063e-06
-8.76065e-06
-8.73961e-06
-8.73961e-06
-8.73961e-06
-8.73959e-06
-8.7396e-06
-8.71833e-06
-8.71833e-06
-8.71833e-06
-8.71831e-06
-8.71832e-06
-8.69681e-06
-8.69681e-06
-8.69682e-06
-8.6968e-06
-8.6968e-06
-8.67504e-06
-8.67506e-06
-8.67507e-06
-8.67504e-06
-8.67503e-06
-8.65304e-06
-8.65306e-06
-8.65307e-06
-8.65305e-06
-8.65303e-06
-8.63082e-06
-8.63082e-06
-8.63081e-06
-8.63081e-06
-8.63081e-06
)
;

boundaryField
{
    BotWall
    {
        type            fixedFluxPressure;
        gradient        uniform 0;
        value           nonuniform List<scalar> 5(0.562222 0.562288 0.56233 0.562288 0.562222);
    }
    FreeStream
    {
        type            totalPressure;
        rho             rho;
        psi             none;
        gamma           1;
        p0              uniform 0;
        value           nonuniform List<scalar> 5(-8.61966e-06 -8.61963e-06 -8.6196e-06 -8.61962e-06 -8.61966e-06);
    }
    FrontNBack
    {
        type            empty;
    }
    LeftSide
    {
        type            symmetryPlane;
    }
    RightSide
    {
        type            symmetryPlane;
    }
}


// ************************************************************************* //
