/*--------------------------------*- C++ -*----------------------------------*\
| =========                 |                                                 |
| \\      /  F ield         | OpenFOAM: The Open Source CFD Toolbox           |
|  \\    /   O peration     | Version:  2.4.0                                 |
|   \\  /    A nd           | Web:      www.OpenFOAM.org                      |
|    \\/     M anipulation  |                                                 |
\*---------------------------------------------------------------------------*/
FoamFile
{
    version     2.0;
    format      ascii;
    class       surfaceScalarField;
    location    "2.4";
    object      phi;
}
// * * * * * * * * * * * * * * * * * * * * * * * * * * * * * * * * * * * * * //

dimensions      [0 3 -1 0 0 0 0];

internalField   nonuniform List<scalar> 
895
(
2.25788e-18
-2.25768e-18
1.40316e-18
8.55191e-19
-1.39039e-18
2.7946e-18
-2.28828e-18
8.98455e-19
-2.28779e-18
6.94739e-18
-9.19919e-18
4.32021e-18
3.49233e-18
-4.28163e-18
1.14104e-17
-7.03976e-18
3.66761e-18
-9.31949e-18
1.18718e-17
-2.1064e-17
7.37996e-18
7.99529e-18
-7.31654e-18
2.61221e-17
-1.2029e-17
8.39184e-18
-2.13403e-17
1.70239e-17
-3.80802e-17
1.05816e-17
1.44495e-17
-1.04934e-17
4.72131e-17
-1.72504e-17
1.51609e-17
-3.85824e-17
2.24302e-17
-6.05022e-17
1.39394e-17
2.29527e-17
-1.38266e-17
7.49955e-17
-2.27285e-17
2.40751e-17
-6.13026e-17
2.80843e-17
-8.85781e-17
1.74516e-17
3.3598e-17
-1.73139e-17
1.09777e-16
-2.84569e-17
3.52304e-17
-8.97514e-17
3.40226e-17
-1.22592e-16
2.11375e-17
4.64955e-17
-2.09748e-17
1.51906e-16
-3.44727e-17
4.87402e-17
-1.24216e-16
4.02315e-17
-1.62815e-16
2.49925e-17
6.17467e-17
-2.48047e-17
2.01719e-16
-4.07624e-17
6.47095e-17
-1.64971e-16
4.67556e-17
-2.09563e-16
2.90393e-17
7.94747e-17
-2.88262e-17
2.59599e-16
-4.7371e-17
8.32652e-17
-2.12335e-16
5.35795e-17
-2.63135e-16
3.32718e-17
9.97934e-17
-3.30333e-17
3.25919e-16
-5.42834e-17
1.04525e-16
-2.66612e-16
6.07511e-17
-3.23879e-16
3.77159e-17
1.22839e-16
-3.74518e-17
4.01099e-16
-6.15474e-17
1.2863e-16
-3.28154e-16
6.82456e-17
-3.92118e-16
4.23657e-17
1.48728e-16
-4.20759e-17
4.85552e-16
-6.91386e-17
1.55701e-16
-3.97288e-16
7.60995e-17
-4.68211e-16
4.72499e-17
1.77585e-16
-4.69344e-17
5.79746e-16
-7.70937e-17
1.85867e-16
-4.74377e-16
8.43124e-17
-5.52519e-16
5.23619e-17
2.09542e-16
-5.20209e-17
6.84137e-16
-8.54117e-17
2.19263e-16
-5.59786e-16
9.30867e-17
-6.45602e-16
5.7774e-17
2.4486e-16
-5.7408e-17
7.99325e-16
-9.42956e-17
2.56155e-16
-6.5408e-16
1.02681e-16
-7.4828e-16
6.33069e-17
2.84237e-16
-6.29134e-17
9.25548e-16
-1.0401e-16
2.97253e-16
-7.58088e-16
1.13135e-16
-1.49828e-15
6.97318e-17
3.2764e-16
-6.9298e-17
1.06458e-15
-1.14616e-16
3.42572e-16
-1.51792e-15
1.24073e-16
-2.74973e-10
7.79396e-17
-2.74975e-10
-7.74213e-17
-2.74976e-10
-1.25791e-16
-2.74975e-10
-2.74973e-10
1.2559e-16
-2.74973e-10
7.79401e-17
-2.74975e-10
-7.74794e-17
-2.74976e-10
-1.27233e-16
-2.74975e-10
-2.74973e-10
1.30121e-16
-2.74974e-10
7.75478e-17
-2.74975e-10
-7.69818e-17
-2.74976e-10
-1.31761e-16
-2.74975e-10
-2.74974e-10
1.19791e-16
-2.74974e-10
7.4943e-17
-2.74975e-10
-7.43116e-17
-2.74976e-10
-1.21333e-16
-2.74975e-10
-2.74974e-10
1.14333e-16
-2.74974e-10
7.17907e-17
-2.74975e-10
-7.10834e-17
-2.74975e-10
-1.15796e-16
-2.74975e-10
-2.74974e-10
1.10639e-16
-2.74974e-10
6.89228e-17
-2.74975e-10
-6.8136e-17
-2.74975e-10
-1.12035e-16
-2.74975e-10
-2.74974e-10
1.06651e-16
-2.74974e-10
6.63215e-17
-2.74975e-10
-6.54564e-17
-2.74975e-10
-1.07979e-16
-2.74975e-10
-2.74974e-10
1.02297e-16
-2.74974e-10
6.37621e-17
-2.74975e-10
-6.28212e-17
-2.74975e-10
-1.03557e-16
-2.74975e-10
-2.74974e-10
9.79328e-17
-2.74974e-10
6.11853e-17
-2.74975e-10
-6.01707e-17
-2.74975e-10
-9.91242e-17
-2.74975e-10
-2.74974e-10
9.36756e-17
-2.74974e-10
5.8617e-17
-2.74975e-10
-5.75305e-17
-2.74975e-10
-9.47984e-17
-2.74975e-10
-2.74974e-10
8.95041e-17
-2.74974e-10
5.60798e-17
-2.74975e-10
-5.49236e-17
-2.74975e-10
-9.05584e-17
-2.74975e-10
-2.74974e-10
8.53927e-17
-2.74974e-10
5.35791e-17
-2.74975e-10
-5.23552e-17
-2.74975e-10
-8.63785e-17
-2.74975e-10
-2.74974e-10
8.13377e-17
-2.74975e-10
5.11139e-17
-2.74975e-10
-4.98247e-17
-2.74975e-10
-8.22553e-17
-2.74975e-10
-2.74975e-10
7.73436e-17
-2.74975e-10
4.86844e-17
-2.74974e-10
-4.73321e-17
-2.74974e-10
-7.81933e-17
-2.74974e-10
-2.74975e-10
7.34145e-17
-2.74975e-10
4.62915e-17
-2.74974e-10
-4.48785e-17
-2.74974e-10
-7.41966e-17
-2.74974e-10
-2.74975e-10
6.95527e-17
-2.74975e-10
4.39368e-17
-2.74974e-10
-4.24656e-17
-2.74974e-10
-7.02676e-17
-2.74974e-10
-2.74975e-10
6.57602e-17
-2.74975e-10
4.16217e-17
-2.74974e-10
-4.00949e-17
-2.74974e-10
-6.64083e-17
-2.74974e-10
-2.74975e-10
6.20387e-17
-2.74975e-10
3.93475e-17
-2.74974e-10
-3.77677e-17
-2.74974e-10
-6.26207e-17
-2.74974e-10
-2.74975e-10
5.83904e-17
-2.74975e-10
3.71155e-17
-2.74974e-10
-3.54853e-17
-2.74974e-10
-5.89068e-17
-2.74974e-10
-2.74975e-10
5.4817e-17
-2.74975e-10
3.49269e-17
-2.74974e-10
-3.32491e-17
-2.74974e-10
-5.52686e-17
-2.74974e-10
-2.74975e-10
5.13204e-17
-2.74975e-10
3.27829e-17
-2.74974e-10
-3.10603e-17
-2.74974e-10
-5.17079e-17
-2.74974e-10
-2.74975e-10
4.79023e-17
-2.74975e-10
3.06847e-17
-2.74974e-10
-2.89201e-17
-2.74974e-10
-4.82267e-17
-2.74974e-10
-2.74975e-10
4.45644e-17
-2.74975e-10
2.86333e-17
-2.74974e-10
-2.68297e-17
-2.74974e-10
-4.48265e-17
-2.74974e-10
-2.74975e-10
4.13083e-17
-2.74975e-10
2.66298e-17
-2.74974e-10
-2.47901e-17
-2.74974e-10
-4.15092e-17
-2.74974e-10
-2.74975e-10
3.81356e-17
-2.74975e-10
2.46753e-17
-2.74974e-10
-2.28026e-17
-2.74974e-10
-3.82763e-17
-2.74974e-10
-2.74975e-10
3.50477e-17
-2.74975e-10
2.27707e-17
-2.74974e-10
-2.08679e-17
-2.74974e-10
-3.51293e-17
-2.74974e-10
-2.74975e-10
3.2046e-17
-2.74975e-10
2.09169e-17
-2.74974e-10
-1.89872e-17
-2.74974e-10
-3.20697e-17
-2.74974e-10
-2.74975e-10
2.91316e-17
-2.74975e-10
1.91149e-17
-2.74974e-10
-1.71613e-17
-2.74974e-10
-2.90988e-17
-2.74974e-10
-2.74975e-10
2.63059e-17
-2.74975e-10
1.73654e-17
-2.74974e-10
-1.53911e-17
-2.74974e-10
-2.62179e-17
-2.74974e-10
-2.74975e-10
2.35699e-17
-2.74975e-10
1.56693e-17
-2.74974e-10
-1.36772e-17
-2.74973e-10
-2.34282e-17
-2.74974e-10
-2.74975e-10
2.09245e-17
-2.74975e-10
1.40271e-17
-2.74974e-10
-1.20206e-17
-2.74973e-10
-2.07306e-17
-2.74974e-10
-2.74975e-10
1.83708e-17
-2.74975e-10
1.24397e-17
-2.74974e-10
-1.04217e-17
-2.74973e-10
-1.81261e-17
-2.74974e-10
-2.74975e-10
1.59094e-17
-2.74975e-10
1.09075e-17
-2.74974e-10
-8.88125e-18
-2.74973e-10
-1.56157e-17
-2.74974e-10
-2.74975e-10
1.3541e-17
-2.74975e-10
9.43106e-18
-2.74974e-10
-7.39965e-18
-2.74973e-10
-1.32e-17
-2.74974e-10
-2.74975e-10
1.12663e-17
-2.74975e-10
8.01089e-18
-2.74974e-10
-5.97736e-18
-2.74973e-10
-1.08796e-17
-2.74974e-10
-2.74975e-10
9.08572e-18
-2.74975e-10
6.64733e-18
-2.74974e-10
-4.61474e-18
-2.74973e-10
-8.65514e-18
-2.74974e-10
-2.74975e-10
6.99954e-18
-2.74975e-10
5.34072e-18
-2.74974e-10
-3.31207e-18
-2.74973e-10
-6.52693e-18
-2.74974e-10
-2.74975e-10
5.008e-18
-2.74975e-10
4.09129e-18
-2.74974e-10
-2.06954e-18
-2.74973e-10
-4.49525e-18
-2.74974e-10
-2.74975e-10
3.11122e-18
-2.74975e-10
2.89922e-18
-2.74974e-10
-8.8727e-19
-2.74973e-10
-2.56026e-18
-2.74974e-10
-2.74975e-10
1.30918e-18
-2.74976e-10
1.76459e-18
-2.74974e-10
2.34712e-19
-2.74973e-10
-7.21961e-19
-2.74974e-10
-2.74975e-10
-3.98284e-19
-2.74975e-10
6.8741e-19
-2.74974e-10
1.29647e-18
-2.74973e-10
1.01976e-18
-2.74974e-10
-2.74975e-10
-2.01145e-18
-2.74975e-10
-3.3238e-19
-2.74974e-10
2.29814e-18
-2.74973e-10
2.66516e-18
-2.74974e-10
-2.74975e-10
-3.53073e-18
-2.74975e-10
-1.29494e-18
-2.74974e-10
3.23997e-18
-2.74973e-10
4.21462e-18
-2.74974e-10
-2.74975e-10
-4.95669e-18
-2.74975e-10
-2.2005e-18
-2.74974e-10
4.1223e-18
-2.74973e-10
5.6687e-18
-2.74974e-10
-2.74975e-10
-6.29001e-18
-2.74975e-10
-3.04939e-18
-2.74974e-10
4.94554e-18
-2.74973e-10
7.02806e-18
-2.74974e-10
-2.74975e-10
-7.53154e-18
-2.74975e-10
-3.84204e-18
-2.74974e-10
5.71024e-18
-2.74973e-10
8.29355e-18
-2.74974e-10
-2.74975e-10
-8.68227e-18
-2.74975e-10
-4.57894e-18
-2.74974e-10
6.41702e-18
-2.74973e-10
9.46614e-18
-2.74974e-10
-2.74975e-10
-9.74332e-18
-2.74975e-10
-5.26071e-18
-2.74974e-10
7.06659e-18
-2.74973e-10
1.0547e-17
-2.74974e-10
-2.74975e-10
-1.0716e-17
-2.74975e-10
-5.88803e-18
-2.74974e-10
7.65981e-18
-2.74973e-10
1.15373e-17
-2.74974e-10
-2.74975e-10
-1.16017e-17
-2.74975e-10
-6.46171e-18
-2.74974e-10
8.19761e-18
-2.74973e-10
1.24387e-17
-2.74974e-10
-2.74975e-10
-1.24021e-17
-2.74975e-10
-6.98265e-18
-2.74974e-10
8.68102e-18
-2.74973e-10
1.32527e-17
-2.74974e-10
-2.74975e-10
-1.31189e-17
-2.74975e-10
-7.45184e-18
-2.74974e-10
9.11122e-18
-2.74973e-10
1.39811e-17
-2.74974e-10
-2.74975e-10
-1.37541e-17
-2.74975e-10
-7.8704e-18
-2.74974e-10
9.48946e-18
-2.74973e-10
1.4626e-17
-2.74974e-10
-2.74975e-10
-1.43097e-17
-2.74975e-10
-8.23952e-18
-2.74974e-10
9.81712e-18
-2.74974e-10
1.51893e-17
-2.74974e-10
-2.74975e-10
-1.4788e-17
-2.74975e-10
-8.56054e-18
-2.74974e-10
1.00957e-17
-2.74974e-10
1.56734e-17
-2.74974e-10
-2.74975e-10
-1.51914e-17
-2.74975e-10
-8.83488e-18
-2.74974e-10
1.03268e-17
-2.74974e-10
1.60809e-17
-2.74974e-10
-2.74975e-10
-1.55226e-17
-2.74975e-10
-9.06409e-18
-2.74974e-10
1.05122e-17
-2.74974e-10
1.64144e-17
-2.74974e-10
-2.74975e-10
-1.57844e-17
-2.74975e-10
-9.24982e-18
-2.74974e-10
1.06536e-17
-2.74974e-10
1.66768e-17
-2.74974e-10
-2.74975e-10
-1.59797e-17
-2.74975e-10
-9.39385e-18
-2.74974e-10
1.07531e-17
-2.74974e-10
1.68711e-17
-2.74974e-10
-2.74975e-10
-1.61116e-17
-2.74975e-10
-9.49808e-18
-2.74974e-10
1.08128e-17
-2.74974e-10
1.70005e-17
-2.74974e-10
-2.74975e-10
-1.61836e-17
-2.74975e-10
-9.56451e-18
-2.74974e-10
1.08348e-17
-2.74974e-10
1.70686e-17
-2.74974e-10
-2.74975e-10
-1.61992e-17
-2.74975e-10
-9.5953e-18
-2.74974e-10
1.08216e-17
-2.74974e-10
1.7079e-17
-2.74974e-10
-2.74975e-10
-1.61621e-17
-2.74975e-10
-9.5927e-18
-2.74974e-10
1.07755e-17
-2.74974e-10
1.70355e-17
-2.74974e-10
-2.74975e-10
-1.60762e-17
-2.74975e-10
-9.5591e-18
-2.74974e-10
1.06992e-17
-2.74974e-10
1.69421e-17
-2.74974e-10
-2.74975e-10
-1.59458e-17
-2.74975e-10
-9.49705e-18
-2.74974e-10
1.05954e-17
-2.74974e-10
1.68032e-17
-2.74974e-10
-2.74975e-10
-1.5775e-17
-2.74975e-10
-9.40918e-18
-2.74974e-10
1.0467e-17
-2.74974e-10
1.66231e-17
-2.74974e-10
-2.74975e-10
-1.55686e-17
-2.74975e-10
-9.2983e-18
-2.74974e-10
1.03169e-17
-2.74974e-10
1.64068e-17
-2.74974e-10
-2.74975e-10
-1.53313e-17
-2.74975e-10
-9.16735e-18
-2.74974e-10
1.01483e-17
-2.74974e-10
1.6159e-17
-2.74974e-10
-2.74975e-10
-1.50682e-17
-2.74975e-10
-9.01941e-18
-2.74974e-10
9.96442e-18
-2.74974e-10
1.58849e-17
-2.74974e-10
-2.74975e-10
-1.47843e-17
-2.74975e-10
-8.8577e-18
-2.74974e-10
9.76876e-18
-2.74974e-10
1.55899e-17
-2.74974e-10
-2.74975e-10
-1.44853e-17
-2.74975e-10
-8.68561e-18
-2.74974e-10
9.56486e-18
-2.74974e-10
1.52798e-17
-2.74974e-10
-2.74975e-10
-1.41769e-17
-2.74975e-10
-8.50667e-18
-2.74974e-10
9.35643e-18
-2.74974e-10
1.49604e-17
-2.74974e-10
-2.74975e-10
-1.38651e-17
-2.74975e-10
-8.3246e-18
-2.74974e-10
9.14735e-18
-2.74974e-10
1.46378e-17
-2.74974e-10
-2.74975e-10
-1.35562e-17
-2.74975e-10
-8.14327e-18
-2.74974e-10
8.94167e-18
-2.74974e-10
1.43187e-17
-2.74974e-10
-2.74975e-10
-1.32567e-17
-2.74975e-10
-7.96673e-18
-2.74974e-10
8.74358e-18
-2.74974e-10
1.40097e-17
-2.74974e-10
-2.74975e-10
-1.29734e-17
-2.74975e-10
-7.79923e-18
-2.74974e-10
8.55748e-18
-2.74974e-10
1.3718e-17
-2.74974e-10
-2.74975e-10
-1.27137e-17
-2.74975e-10
-7.64522e-18
-2.74974e-10
8.38795e-18
-2.74974e-10
1.34508e-17
-2.74974e-10
-2.74975e-10
-1.24849e-17
-2.74975e-10
-7.50933e-18
-2.74974e-10
8.23976e-18
-2.74974e-10
1.32161e-17
-2.74974e-10
-2.74975e-10
-1.2295e-17
-2.74975e-10
-7.39642e-18
-2.74974e-10
8.11785e-18
-2.74974e-10
1.30219e-17
-2.74974e-10
-2.74975e-10
-1.21521e-17
-2.74975e-10
-7.31152e-18
-2.74974e-10
8.02736e-18
-2.74974e-10
1.28765e-17
-2.74974e-10
-2.74975e-10
-1.2065e-17
-2.74975e-10
-7.2601e-18
-2.74974e-10
7.97383e-18
-2.74974e-10
1.27892e-17
-2.74974e-10
-2.74975e-10
-1.20448e-17
-2.74975e-10
-7.24881e-18
-2.74974e-10
7.96394e-18
-2.74974e-10
1.27711e-17
-2.74974e-10
-2.74975e-10
-1.21046e-17
-7.28548e-18
8.00479e-18
1.28368e-17
)
;

boundaryField
{
    BotWall
    {
        type            calculated;
        value           nonuniform List<scalar> 5(-2.42698e-22 -3.99853e-22 -6.43911e-22 -5.20837e-22 -4.58838e-22);
    }
    FreeStream
    {
        type            calculated;
        value           nonuniform List<scalar> 5(-2.74975e-10 -2.74974e-10 -2.74974e-10 -2.74974e-10 -2.74975e-10);
    }
    FrontNBack
    {
        type            empty;
        value           nonuniform 0();
    }
    LeftSide
    {
        type            symmetryPlane;
        value           uniform 0;
    }
    RightSide
    {
        type            symmetryPlane;
        value           uniform 0;
    }
}


// ************************************************************************* //
