/*--------------------------------*- C++ -*----------------------------------*\
| =========                 |                                                 |
| \\      /  F ield         | OpenFOAM: The Open Source CFD Toolbox           |
|  \\    /   O peration     | Version:  2.4.0                                 |
|   \\  /    A nd           | Web:      www.OpenFOAM.org                      |
|    \\/     M anipulation  |                                                 |
\*---------------------------------------------------------------------------*/
FoamFile
{
    version     2.0;
    format      ascii;
    class       volScalarField;
    location    "2.3";
    object      H;
}
// * * * * * * * * * * * * * * * * * * * * * * * * * * * * * * * * * * * * * //

dimensions      [0 2 -2 0 0 0 0];

internalField   nonuniform List<scalar> 
125
(
-17.8899
-17.8899
-17.8895
-17.8896
-17.8899
-16.9757
-16.9759
-16.9756
-16.9756
-16.9758
-16.0727
-16.0729
-16.0728
-16.0727
-16.0727
-15.1822
-15.1825
-15.1825
-15.1823
-15.1822
-14.3053
-14.3057
-14.3058
-14.3056
-14.3053
-13.4432
-13.4437
-13.4438
-13.4436
-13.4432
-12.5968
-12.5973
-12.5976
-12.5973
-12.5968
-11.767
-11.7676
-11.7679
-11.7675
-11.767
-10.9545
-10.9551
-10.9554
-10.9551
-10.9544
-10.1597
-10.1604
-10.1607
-10.1604
-10.1597
-9.38319
-9.38385
-9.38425
-9.38387
-9.38317
-8.6251
-8.62576
-8.62618
-8.6258
-8.62508
-7.88555
-7.88621
-7.88663
-7.88625
-7.88553
-7.16448
-7.16511
-7.16554
-7.16517
-7.16446
-6.46166
-6.46226
-6.46268
-6.46232
-6.46163
-5.77671
-5.77728
-5.77768
-5.77734
-5.77668
-5.1091
-5.10963
-5.11
-5.10969
-5.10908
-4.45816
-4.45864
-4.45899
-4.4587
-4.45814
-3.82307
-3.8235
-3.82381
-3.82356
-3.82305
-3.20287
-3.20324
-3.20351
-3.20329
-3.20286
-2.59648
-2.59679
-2.59701
-2.59683
-2.59646
-2.00268
-2.00293
-2.0031
-2.00296
-2.00267
-1.42017
-1.42035
-1.42048
-1.42037
-1.42017
-0.847544
-0.847649
-0.847726
-0.847664
-0.847539
-0.283298
-0.283333
-0.283359
-0.283338
-0.283296
)
;

boundaryField
{
    BotWall
    {
        type            zeroGradient;
    }
    FreeStream
    {
        type            zeroGradient;
    }
    FrontNBack
    {
        type            empty;
    }
    LeftSide
    {
        type            symmetryPlane;
    }
    RightSide
    {
        type            symmetryPlane;
    }
    procBoundary3to2
    {
        type            processor;
        value           nonuniform List<scalar> 5(-18.814 -18.8138 -18.8134 -18.8135 -18.814);
    }
}


// ************************************************************************* //
