/*--------------------------------*- C++ -*----------------------------------*\
| =========                 |                                                 |
| \\      /  F ield         | OpenFOAM: The Open Source CFD Toolbox           |
|  \\    /   O peration     | Version:  2.4.0                                 |
|   \\  /    A nd           | Web:      www.OpenFOAM.org                      |
|    \\/     M anipulation  |                                                 |
\*---------------------------------------------------------------------------*/
FoamFile
{
    version     2.0;
    format      ascii;
    class       volScalarField;
    location    "2.3";
    object      p_rgh;
}
// * * * * * * * * * * * * * * * * * * * * * * * * * * * * * * * * * * * * * //

dimensions      [1 -1 -2 0 0 0 0];

internalField   nonuniform List<scalar> 
125
(
-9.8143e-06
-9.81329e-06
-9.81264e-06
-9.81313e-06
-9.81429e-06
-9.76246e-06
-9.7615e-06
-9.76087e-06
-9.76134e-06
-9.76244e-06
-9.71004e-06
-9.70913e-06
-9.70852e-06
-9.70897e-06
-9.71002e-06
-9.65705e-06
-9.65617e-06
-9.6556e-06
-9.65602e-06
-9.65703e-06
-9.60346e-06
-9.60263e-06
-9.60208e-06
-9.60249e-06
-9.60344e-06
-9.54928e-06
-9.5485e-06
-9.54797e-06
-9.54835e-06
-9.54926e-06
-9.4945e-06
-9.49376e-06
-9.49325e-06
-9.49362e-06
-9.49448e-06
-9.43911e-06
-9.43841e-06
-9.43793e-06
-9.43827e-06
-9.4391e-06
-9.38311e-06
-9.38245e-06
-9.38199e-06
-9.38231e-06
-9.38309e-06
-9.32648e-06
-9.32587e-06
-9.32543e-06
-9.32573e-06
-9.32647e-06
-9.26922e-06
-9.26865e-06
-9.26823e-06
-9.26852e-06
-9.26922e-06
-9.21133e-06
-9.2108e-06
-9.21041e-06
-9.21067e-06
-9.21133e-06
-9.1528e-06
-9.15231e-06
-9.15193e-06
-9.15217e-06
-9.15279e-06
-9.09361e-06
-9.09316e-06
-9.09281e-06
-9.09303e-06
-9.09361e-06
-9.03376e-06
-9.03336e-06
-9.03303e-06
-9.03323e-06
-9.03377e-06
-8.97325e-06
-8.97289e-06
-8.97258e-06
-8.97276e-06
-8.97326e-06
-8.91207e-06
-8.91175e-06
-8.91146e-06
-8.91162e-06
-8.91208e-06
-8.85021e-06
-8.84993e-06
-8.84965e-06
-8.8498e-06
-8.85022e-06
-8.78765e-06
-8.78742e-06
-8.78716e-06
-8.78729e-06
-8.78767e-06
-8.72441e-06
-8.72421e-06
-8.72398e-06
-8.72409e-06
-8.72443e-06
-8.66046e-06
-8.66031e-06
-8.66009e-06
-8.66018e-06
-8.66048e-06
-8.5958e-06
-8.59569e-06
-8.59549e-06
-8.59556e-06
-8.59583e-06
-8.53042e-06
-8.53034e-06
-8.53015e-06
-8.53021e-06
-8.53045e-06
-8.4643e-06
-8.46427e-06
-8.4641e-06
-8.46414e-06
-8.46434e-06
-8.39732e-06
-8.39744e-06
-8.39738e-06
-8.39732e-06
-8.39737e-06
)
;

boundaryField
{
    BotWall
    {
        type            fixedFluxPressure;
        gradient        nonuniform 0();
        value           nonuniform 0();
    }
    FreeStream
    {
        type            totalPressure;
        rho             rho;
        psi             none;
        gamma           1;
        p0              uniform 0;
        value           nonuniform List<scalar> 5(-8.36357e-06 -8.36385e-06 -8.36389e-06 -8.36374e-06 -8.36362e-06);
    }
    FrontNBack
    {
        type            empty;
    }
    LeftSide
    {
        type            symmetryPlane;
    }
    RightSide
    {
        type            symmetryPlane;
    }
    procBoundary3to2
    {
        type            processor;
        value           nonuniform List<scalar> 5(-9.86557e-06 -9.86451e-06 -9.86384e-06 -9.86436e-06 -9.86556e-06);
    }
}


// ************************************************************************* //
