/*--------------------------------*- C++ -*----------------------------------*\
| =========                 |                                                 |
| \\      /  F ield         | OpenFOAM: The Open Source CFD Toolbox           |
|  \\    /   O peration     | Version:  2.4.0                                 |
|   \\  /    A nd           | Web:      www.OpenFOAM.org                      |
|    \\/     M anipulation  |                                                 |
\*---------------------------------------------------------------------------*/
FoamFile
{
    version     2.0;
    format      ascii;
    class       surfaceScalarField;
    location    "2.3";
    object      phi;
}
// * * * * * * * * * * * * * * * * * * * * * * * * * * * * * * * * * * * * * //

dimensions      [0 3 -1 0 0 0 0];

internalField   nonuniform List<scalar> 
220
(
-2.47472e-17
-2.7086e-10
-2.00565e-18
-2.70864e-10
1.80535e-17
-2.70866e-10
1.31425e-17
-2.70863e-10
-2.7086e-10
-2.11851e-17
-2.7086e-10
-2.30981e-19
-2.70865e-10
1.59045e-17
-2.70866e-10
1.02448e-17
-2.70863e-10
-2.7086e-10
-1.75782e-17
-2.7086e-10
1.55513e-18
-2.70865e-10
1.37253e-17
-2.70866e-10
7.31904e-18
-2.70863e-10
-2.7086e-10
-1.39399e-17
-2.7086e-10
3.34615e-18
-2.70865e-10
1.15245e-17
-2.70866e-10
4.37631e-18
-2.70863e-10
-2.7086e-10
-1.02838e-17
-2.7086e-10
5.13588e-18
-2.70865e-10
9.3105e-18
-2.70866e-10
1.4272e-18
-2.70863e-10
-2.7086e-10
-6.62328e-18
-2.7086e-10
6.91837e-18
-2.70865e-10
7.0918e-18
-2.70866e-10
-1.51797e-18
-2.70863e-10
-2.7086e-10
-2.97155e-18
-2.7086e-10
8.68798e-18
-2.70865e-10
4.87677e-18
-2.70866e-10
-4.4492e-18
-2.70863e-10
-2.7086e-10
6.5817e-19
-2.7086e-10
1.04393e-17
-2.70865e-10
2.67383e-18
-2.70866e-10
-7.35671e-18
-2.70863e-10
-2.7086e-10
4.25272e-18
-2.7086e-10
1.21673e-17
-2.70865e-10
4.91375e-19
-2.70866e-10
-1.0231e-17
-2.70863e-10
-2.7086e-10
7.79894e-18
-2.7086e-10
1.38668e-17
-2.70865e-10
-1.66216e-18
-2.70866e-10
-1.30627e-17
-2.70863e-10
-2.7086e-10
1.12836e-17
-2.7086e-10
1.55332e-17
-2.70865e-10
-3.77829e-18
-2.70866e-10
-1.58424e-17
-2.70863e-10
-2.7086e-10
1.46933e-17
-2.7086e-10
1.71615e-17
-2.70865e-10
-5.8484e-18
-2.70866e-10
-1.8561e-17
-2.70863e-10
-2.7086e-10
1.80144e-17
-2.7086e-10
1.8747e-17
-2.70865e-10
-7.86371e-18
-2.70866e-10
-2.12089e-17
-2.70863e-10
-2.70861e-10
2.12328e-17
-2.7086e-10
2.02848e-17
-2.70865e-10
-9.81521e-18
-2.70866e-10
-2.37764e-17
-2.70863e-10
-2.70861e-10
2.43339e-17
-2.7086e-10
2.17698e-17
-2.70865e-10
-1.16936e-17
-2.70866e-10
-2.62533e-17
-2.70863e-10
-2.70861e-10
2.73024e-17
-2.7086e-10
2.31963e-17
-2.70865e-10
-1.34891e-17
-2.70866e-10
-2.86289e-17
-2.70863e-10
-2.70861e-10
3.01222e-17
-2.7086e-10
2.45585e-17
-2.70865e-10
-1.51916e-17
-2.70866e-10
-3.08916e-17
-2.70863e-10
-2.70861e-10
3.27761e-17
-2.7086e-10
2.58498e-17
-2.70865e-10
-1.67903e-17
-2.70866e-10
-3.3029e-17
-2.70863e-10
-2.70861e-10
3.52456e-17
-2.7086e-10
2.70628e-17
-2.70865e-10
-1.82736e-17
-2.70865e-10
-3.50273e-17
-2.70863e-10
-2.70861e-10
3.7511e-17
-2.7086e-10
2.81893e-17
-2.70865e-10
-1.96295e-17
-2.70865e-10
-3.68713e-17
-2.70863e-10
-2.70861e-10
3.95504e-17
-2.7086e-10
2.92199e-17
-2.70865e-10
-2.08445e-17
-2.70865e-10
-3.85442e-17
-2.70863e-10
-2.70861e-10
4.13401e-17
-2.7086e-10
3.01438e-17
-2.70865e-10
-2.19041e-17
-2.70865e-10
-4.00268e-17
-2.70863e-10
-2.70861e-10
4.28555e-17
-2.7086e-10
3.09494e-17
-2.70865e-10
-2.27935e-17
-2.70865e-10
-4.12992e-17
-2.70863e-10
-2.70861e-10
4.40749e-17
-2.7086e-10
3.16283e-17
-2.70865e-10
-2.35e-17
-2.70865e-10
-4.23451e-17
-2.70863e-10
-2.70861e-10
4.50063e-17
3.216e-17
-2.40218e-17
-4.31427e-17
)
;

boundaryField
{
    BotWall
    {
        type            calculated;
        value           nonuniform 0();
    }
    FreeStream
    {
        type            calculated;
        value           nonuniform List<scalar> 5(-2.7086e-10 -2.70865e-10 -2.70865e-10 -2.70863e-10 -2.70861e-10);
    }
    FrontNBack
    {
        type            empty;
        value           nonuniform 0();
    }
    LeftSide
    {
        type            symmetryPlane;
        value           uniform 0;
    }
    RightSide
    {
        type            symmetryPlane;
        value           uniform 0;
    }
    procBoundary3to2
    {
        type            processor;
        value           nonuniform List<scalar> 5(2.7086e-10 2.70864e-10 2.70866e-10 2.70863e-10 2.7086e-10);
    }
}


// ************************************************************************* //
