/*--------------------------------*- C++ -*----------------------------------*\
| =========                 |                                                 |
| \\      /  F ield         | OpenFOAM: The Open Source CFD Toolbox           |
|  \\    /   O peration     | Version:  2.4.0                                 |
|   \\  /    A nd           | Web:      www.OpenFOAM.org                      |
|    \\/     M anipulation  |                                                 |
\*---------------------------------------------------------------------------*/
FoamFile
{
    version     2.0;
    format      ascii;
    class       volScalarField;
    location    "0.003";
    object      p_rgh;
}
// * * * * * * * * * * * * * * * * * * * * * * * * * * * * * * * * * * * * * //

dimensions      [1 -1 -2 0 0 0 0];

internalField   nonuniform List<scalar> 
125
(
1.60323
-4.34181
-0.51342
0.0864659
0.00696823
-0.0478594
-0.0582935
-0.0558923
-0.0543195
-0.0543622
-0.0548406
-0.0552808
-0.0556586
-0.056018
-0.0563759
-0.056733
-0.0570874
-0.0574384
-0.057786
-0.0581302
-0.0584709
-0.0588082
-0.0591418
-0.0594716
-0.0597976
-0.0643287
-0.0638331
-0.0633375
-0.062842
-0.0623466
-0.0618512
-0.0613558
-0.0608604
-0.060365
-0.0598695
-0.0593739
-0.0588781
-0.0583823
-0.0578863
-0.0573901
-0.0568937
-0.0563971
-0.0559003
-0.0554032
-0.0549058
-0.0544081
-0.0539101
-0.0534118
-0.0529131
-0.0524141
-0.0519146
-0.0514147
-0.0509144
-0.0504135
-0.0499122
-0.0494104
-0.048908
-0.0484051
-0.0479016
-0.0473974
-0.0468927
-0.0463873
-0.0458812
-0.0453744
-0.044867
-0.0443587
-0.0438498
-0.04334
-0.0428295
-0.0423181
-0.0418059
-0.0412929
-0.0407789
-0.0402641
-0.0397483
-0.0392316
-0.0387139
-0.0381952
-0.0376756
-0.0371548
-0.0366331
-0.0361102
-0.0355863
-0.0350612
-0.034535
-0.0340077
-0.0334792
-0.0329495
-0.0324186
-0.0318864
-0.031353
-0.0308182
-0.0302821
-0.0297447
-0.0292059
-0.0286657
-0.0281241
-0.0275811
-0.0270366
-0.0264906
-0.0259431
-0.025394
-0.0248434
-0.0242913
-0.0237375
-0.0231821
-0.022625
-0.0220663
-0.0215059
-0.0209438
-0.0203799
-0.0198142
-0.0192468
-0.0186775
-0.0181064
-0.0175334
-0.0169585
-0.0163817
-0.0158029
-0.0152222
-0.0146394
-0.0140547
-0.0134682
-0.0128791
-0.0122837
)
;

boundaryField
{
    BotWall
    {
        type            fixedFluxPressure;
        gradient        uniform 0;
        value           uniform 1.60323;
    }
    FreeStream
    {
        type            totalPressure;
        rho             rho;
        psi             none;
        gamma           1;
        p0              uniform 0;
        value           uniform -0.0119838;
    }
    FrontNBack
    {
        type            empty;
    }
    LeftSide
    {
        type            symmetryPlane;
    }
    RightSide
    {
        type            symmetryPlane;
    }
    procBoundary7to4
    {
        type            processor;
        value           nonuniform List<scalar> 
50
(
415.631
-4.4898
-0.662252
-0.061536
-0.139776
-0.193341
-0.202543
-0.198929
-0.196147
-0.194983
-0.194259
-0.193502
-0.192687
-0.191858
-0.191032
-0.190209
-0.189388
-0.188569
-0.187752
-0.186936
-0.186122
-0.18531
-0.1845
-0.183691
-0.182884
-0.0253712
-0.0248519
-0.0243304
-0.0238069
-0.0232811
-0.0227532
-0.022223
-0.0216907
-0.0211561
-0.0206193
-0.0200803
-0.0195392
-0.0189958
-0.0184502
-0.0179025
-0.0173525
-0.0168004
-0.0162462
-0.0156898
-0.0151312
-0.0145706
-0.0140079
-0.0134432
-0.012876
-0.0123026
)
;
    }
    procBoundary7to5
    {
        type            processor;
        value           nonuniform List<scalar> 
75
(
-0.0573422
-0.0570142
-0.0566833
-0.0563495
-0.0560129
-0.0556733
-0.0553309
-0.0549857
-0.0546376
-0.0542867
-0.053933
-0.0535765
-0.0532172
-0.0528552
-0.0524903
-0.0521227
-0.0517524
-0.0513793
-0.0510035
-0.050625
-0.0502437
-0.0498598
-0.0494732
-0.0490839
-0.048692
-0.0482974
-0.0479001
-0.0475003
-0.0470978
-0.0466926
-0.0462849
-0.0458746
-0.0454617
-0.0450462
-0.0446281
-0.0442075
-0.0437843
-0.0433586
-0.0429303
-0.0424995
-0.0420662
-0.0416304
-0.0411921
-0.0407513
-0.040308
-0.0398622
-0.039414
-0.0389633
-0.0385101
-0.0380545
-0.0375964
-0.037136
-0.0366731
-0.0362077
-0.03574
-0.0352699
-0.0347973
-0.0343224
-0.0338451
-0.0333654
-0.0328834
-0.032399
-0.0319122
-0.0314231
-0.0309316
-0.0304378
-0.0299417
-0.0294432
-0.0289425
-0.0284394
-0.027934
-0.0274262
-0.026916
-0.0264033
-0.0258884
)
;
    }
    procBoundary7to6
    {
        type            processor;
        value           uniform -0.0601196;
    }
    procBoundary7to8
    {
        type            processor;
        value           uniform -0.0648243;
    }
    procBoundary7to9
    {
        type            processor;
        value           nonuniform List<scalar> 
75
(
522.654
-4.37581
-0.636747
-0.0455614
-0.12262
-0.175613
-0.184812
-0.181335
-0.178671
-0.177605
-0.176975
-0.176312
-0.175591
-0.174857
-0.174126
-0.173398
-0.172672
-0.171947
-0.171224
-0.170502
-0.169782
-0.169063
-0.168346
-0.167629
-0.166914
-0.0343032
-0.0339023
-0.0334993
-0.0330943
-0.0326872
-0.032278
-0.0318668
-0.0314534
-0.031038
-0.0306204
-0.0302007
-0.0297789
-0.029355
-0.028929
-0.0285009
-0.0280708
-0.0276385
-0.0272043
-0.0267679
-0.0263295
-0.0258891
-0.0254466
-0.0250021
-0.0245555
-0.024107
-0.0236564
-0.0232038
-0.0227492
-0.0222926
-0.021834
-0.0213734
-0.0209109
-0.0204463
-0.0199798
-0.0195114
-0.0190409
-0.0185686
-0.0180943
-0.017618
-0.0171399
-0.0166598
-0.0161778
-0.0156939
-0.0152081
-0.0147205
-0.0142309
-0.0137396
-0.0132467
-0.0127514
-0.0122507
)
;
    }
    procBoundary7to10
    {
        type            processor;
        value           nonuniform List<scalar> 
50
(
-0.0515254
-0.0512361
-0.0509445
-0.0506506
-0.0503545
-0.050056
-0.0497553
-0.0494524
-0.0491471
-0.0488396
-0.0485298
-0.0482178
-0.0479034
-0.0475869
-0.047268
-0.0469469
-0.0466235
-0.0462979
-0.04597
-0.0456398
-0.0453074
-0.0449727
-0.0446358
-0.0442967
-0.0439553
-0.0436116
-0.0432658
-0.0429177
-0.0425673
-0.0422148
-0.0418601
-0.0415031
-0.0411439
-0.0407825
-0.040419
-0.0400532
-0.0396852
-0.0393151
-0.0389427
-0.0385682
-0.0381915
-0.0378126
-0.0374315
-0.0370483
-0.0366629
-0.0362754
-0.0358855
-0.0354934
-0.0350989
-0.0347021
)
;
    }
}


// ************************************************************************* //
