/*--------------------------------*- C++ -*----------------------------------*\
| =========                 |                                                 |
| \\      /  F ield         | OpenFOAM: The Open Source CFD Toolbox           |
|  \\    /   O peration     | Version:  2.4.0                                 |
|   \\  /    A nd           | Web:      www.OpenFOAM.org                      |
|    \\/     M anipulation  |                                                 |
\*---------------------------------------------------------------------------*/
FoamFile
{
    version     2.0;
    format      ascii;
    class       volScalarField;
    location    "0.003";
    object      T;
}
// * * * * * * * * * * * * * * * * * * * * * * * * * * * * * * * * * * * * * //

dimensions      [0 0 0 1 0 0 0];

internalField   nonuniform List<scalar> 
125
(
294.608
297.943
297.944
297.946
297.949
297.951
297.953
297.955
297.957
297.959
297.961
297.963
297.964
297.966
297.968
297.969
297.971
297.972
297.973
297.974
297.976
297.977
297.978
297.979
297.98
298
298
298
298
298
298
298
298
298
298
298
298
298
298
298
298
298
298
298
298
298
298
298
298
298
298
298
298
298
298
298
298
298
298
298
298
298
298
298
298
298
298
298
298
298
298
298
298
298
298
298
298
298
298
298
298
298
298
298
298
298
298
298
298
298
298
298
298
298
298
298
298
298
298
298
298
298
298
298
298
298
298
298
298
298
298
298
298
298
298
298
298
298
298
298
298
298
298
298
298
)
;

boundaryField
{
    BotWall
    {
        type            fixedValue;
        value           uniform 293;
    }
    FreeStream
    {
        type            fixedValue;
        value           uniform 298;
    }
    FrontNBack
    {
        type            empty;
    }
    LeftSide
    {
        type            symmetryPlane;
    }
    RightSide
    {
        type            symmetryPlane;
    }
    procBoundary7to4
    {
        type            processor;
        value           nonuniform List<scalar> 
50
(
294.607
297.943
297.944
297.946
297.949
297.951
297.953
297.955
297.957
297.959
297.961
297.963
297.964
297.966
297.968
297.969
297.97
297.972
297.973
297.974
297.976
297.977
297.978
297.979
297.98
298
298
298
298
298
298
298
298
298
298
298
298
298
298
298
298
298
298
298
298
298
298
298
298
298
)
;
    }
    procBoundary7to5
    {
        type            processor;
        value           uniform 298;
    }
    procBoundary7to6
    {
        type            processor;
        value           uniform 297.981;
    }
    procBoundary7to8
    {
        type            processor;
        value           uniform 298;
    }
    procBoundary7to9
    {
        type            processor;
        value           nonuniform List<scalar> 
75
(
294.597
297.942
297.943
297.945
297.948
297.95
297.952
297.954
297.956
297.958
297.96
297.962
297.964
297.965
297.967
297.968
297.97
297.971
297.973
297.974
297.975
297.976
297.978
297.979
297.98
298
298
298
298
298
298
298
298
298
298
298
298
298
298
298
298
298
298
298
298
298
298
298
298
298
298
298
298
298
298
298
298
298
298
298
298
298
298
298
298
298
298
298
298
298
298
298
298
298
298
)
;
    }
    procBoundary7to10
    {
        type            processor;
        value           uniform 298;
    }
}


// ************************************************************************* //
