/*--------------------------------*- C++ -*----------------------------------*\
| =========                 |                                                 |
| \\      /  F ield         | OpenFOAM: The Open Source CFD Toolbox           |
|  \\    /   O peration     | Version:  2.4.0                                 |
|   \\  /    A nd           | Web:      www.OpenFOAM.org                      |
|    \\/     M anipulation  |                                                 |
\*---------------------------------------------------------------------------*/
FoamFile
{
    version     2.0;
    format      ascii;
    class       volVectorField;
    location    "0.016";
    object      U;
}
// * * * * * * * * * * * * * * * * * * * * * * * * * * * * * * * * * * * * * //

dimensions      [0 1 -1 0 0 0 0];

internalField   nonuniform List<vector> 
125
(
(-1.27276e-05 -0.0165901 0)
(-1.29976e-05 -0.0165901 0)
(-1.32424e-05 -0.01659 0)
(-1.34625e-05 -0.0165899 0)
(-1.36585e-05 -0.0165899 0)
(-1.38309e-05 -0.0165898 0)
(-1.39806e-05 -0.0165897 0)
(-1.4108e-05 -0.0165897 0)
(-1.42141e-05 -0.0165896 0)
(-1.42994e-05 -0.0165895 0)
(-1.43647e-05 -0.0165894 0)
(-1.44107e-05 -0.0165893 0)
(-1.44383e-05 -0.0165893 0)
(-1.44481e-05 -0.0165892 0)
(-1.4441e-05 -0.0165891 0)
(-1.44177e-05 -0.016589 0)
(-1.43791e-05 -0.016589 0)
(-1.43259e-05 -0.0165889 0)
(-1.42589e-05 -0.0165888 0)
(-1.4179e-05 -0.0165887 0)
(-1.40868e-05 -0.0165886 0)
(-1.39831e-05 -0.0165886 0)
(-1.38688e-05 -0.0165885 0)
(-1.37445e-05 -0.0165884 0)
(-1.36111e-05 -0.0165883 0)
(-1.34692e-05 -0.0165882 0)
(-1.33196e-05 -0.0165882 0)
(-1.3163e-05 -0.0165881 0)
(-1.3e-05 -0.016588 0)
(-1.28312e-05 -0.0165879 0)
(-1.26574e-05 -0.0165878 0)
(-1.24792e-05 -0.0165878 0)
(-1.22971e-05 -0.0165877 0)
(-1.21116e-05 -0.0165876 0)
(-1.19234e-05 -0.0165875 0)
(-1.1733e-05 -0.0165875 0)
(-1.15408e-05 -0.0165874 0)
(-1.13473e-05 -0.0165873 0)
(-1.1153e-05 -0.0165873 0)
(-1.09582e-05 -0.0165872 0)
(-1.07634e-05 -0.0165871 0)
(-1.05689e-05 -0.016587 0)
(-1.0375e-05 -0.016587 0)
(-1.01821e-05 -0.0165869 0)
(-9.99047e-06 -0.0165868 0)
(-9.8003e-06 -0.0165868 0)
(-9.61187e-06 -0.0165867 0)
(-9.42538e-06 -0.0165866 0)
(-9.24104e-06 -0.0165866 0)
(-9.05901e-06 -0.0165865 0)
(-8.87944e-06 -0.0165865 0)
(-8.70245e-06 -0.0165864 0)
(-8.52817e-06 -0.0165863 0)
(-8.35667e-06 -0.0165863 0)
(-8.18805e-06 -0.0165862 0)
(-8.02235e-06 -0.0165861 0)
(-7.85963e-06 -0.0165861 0)
(-7.69992e-06 -0.016586 0)
(-7.54323e-06 -0.016586 0)
(-7.38958e-06 -0.0165859 0)
(-7.23896e-06 -0.0165859 0)
(-7.09136e-06 -0.0165858 0)
(-6.94675e-06 -0.0165857 0)
(-6.80512e-06 -0.0165857 0)
(-6.66642e-06 -0.0165856 0)
(-6.53061e-06 -0.0165856 0)
(-6.39765e-06 -0.0165855 0)
(-6.26749e-06 -0.0165855 0)
(-6.14007e-06 -0.0165854 0)
(-6.01533e-06 -0.0165854 0)
(-5.89321e-06 -0.0165853 0)
(-5.77365e-06 -0.0165853 0)
(-5.6566e-06 -0.0165852 0)
(-5.54198e-06 -0.0165852 0)
(-5.42973e-06 -0.0165851 0)
(-5.31979e-06 -0.0165851 0)
(-5.21209e-06 -0.016585 0)
(-5.10658e-06 -0.016585 0)
(-5.00318e-06 -0.0165849 0)
(-4.90185e-06 -0.0165849 0)
(-4.80252e-06 -0.0165848 0)
(-4.70513e-06 -0.0165848 0)
(-4.60963e-06 -0.0165848 0)
(-4.51597e-06 -0.0165847 0)
(-4.4241e-06 -0.0165847 0)
(-4.33396e-06 -0.0165846 0)
(-4.24551e-06 -0.0165846 0)
(-4.1587e-06 -0.0165845 0)
(-4.07349e-06 -0.0165845 0)
(-3.98983e-06 -0.0165844 0)
(-3.9077e-06 -0.0165844 0)
(-3.82704e-06 -0.0165844 0)
(-3.74783e-06 -0.0165843 0)
(-3.67002e-06 -0.0165843 0)
(-3.59359e-06 -0.0165842 0)
(-3.5185e-06 -0.0165842 0)
(-3.44473e-06 -0.0165842 0)
(-3.37224e-06 -0.0165841 0)
(-3.30101e-06 -0.0165841 0)
(-3.23101e-06 -0.016584 0)
(-3.16221e-06 -0.016584 0)
(-3.09459e-06 -0.016584 0)
(-3.02813e-06 -0.0165839 0)
(-2.9628e-06 -0.0165839 0)
(-2.89858e-06 -0.0165838 0)
(-2.83544e-06 -0.0165838 0)
(-2.77338e-06 -0.0165838 0)
(-2.71236e-06 -0.0165837 0)
(-2.65236e-06 -0.0165837 0)
(-2.59337e-06 -0.0165837 0)
(-2.53537e-06 -0.0165836 0)
(-2.47833e-06 -0.0165836 0)
(-2.42223e-06 -0.0165836 0)
(-2.36707e-06 -0.0165835 0)
(-2.31281e-06 -0.0165835 0)
(-2.25943e-06 -0.0165834 0)
(-2.20693e-06 -0.0165834 0)
(-2.15527e-06 -0.0165834 0)
(-2.10444e-06 -0.0165833 0)
(-2.05442e-06 -0.0165833 0)
(-2.0052e-06 -0.0165833 0)
(-1.95674e-06 -0.0165832 0)
(-1.90903e-06 -0.0165832 0)
(-1.86206e-06 -0.0165832 0)
(-1.81579e-06 -0.0165831 0)
)
;

boundaryField
{
    BotWall
    {
        type            fixedValue;
        value           nonuniform 0();
    }
    FreeStream
    {
        type            zeroGradient;
    }
    FrontNBack
    {
        type            empty;
    }
    LeftSide
    {
        type            symmetryPlane;
    }
    RightSide
    {
        type            symmetryPlane;
    }
    procBoundary6to3
    {
        type            processor;
        value           nonuniform List<vector> 
50
(
(6.78338e-06 -0.0165849 0)
(6.69442e-06 -0.0165849 0)
(6.60785e-06 -0.0165849 0)
(6.52356e-06 -0.0165848 0)
(6.44147e-06 -0.0165848 0)
(6.36147e-06 -0.0165848 0)
(6.28346e-06 -0.0165847 0)
(6.20736e-06 -0.0165847 0)
(6.13307e-06 -0.0165847 0)
(6.06052e-06 -0.0165846 0)
(5.98962e-06 -0.0165846 0)
(5.9203e-06 -0.0165846 0)
(5.85248e-06 -0.0165845 0)
(5.7861e-06 -0.0165845 0)
(5.72108e-06 -0.0165845 0)
(5.65737e-06 -0.0165845 0)
(5.5949e-06 -0.0165844 0)
(5.53363e-06 -0.0165844 0)
(5.47348e-06 -0.0165844 0)
(5.41443e-06 -0.0165843 0)
(5.35641e-06 -0.0165843 0)
(5.29938e-06 -0.0165843 0)
(5.24331e-06 -0.0165843 0)
(5.18814e-06 -0.0165842 0)
(5.13385e-06 -0.0165842 0)
(5.08039e-06 -0.0165842 0)
(5.02774e-06 -0.0165841 0)
(4.97585e-06 -0.0165841 0)
(4.92471e-06 -0.0165841 0)
(4.87427e-06 -0.0165841 0)
(4.82452e-06 -0.016584 0)
(4.77543e-06 -0.016584 0)
(4.72697e-06 -0.016584 0)
(4.67912e-06 -0.016584 0)
(4.63185e-06 -0.0165839 0)
(4.58514e-06 -0.0165839 0)
(4.53898e-06 -0.0165839 0)
(4.49334e-06 -0.0165839 0)
(4.44821e-06 -0.0165838 0)
(4.40355e-06 -0.0165838 0)
(4.35936e-06 -0.0165838 0)
(4.31562e-06 -0.0165838 0)
(4.27231e-06 -0.0165837 0)
(4.22941e-06 -0.0165837 0)
(4.1869e-06 -0.0165837 0)
(4.14477e-06 -0.0165837 0)
(4.10301e-06 -0.0165837 0)
(4.06159e-06 -0.0165836 0)
(4.0205e-06 -0.0165836 0)
(3.97972e-06 -0.0165836 0)
)
;
    }
    procBoundary6to4
    {
        type            processor;
        value           nonuniform List<vector> 
75
(
(1.44885e-05 -0.0165891 0)
(1.47893e-05 -0.016589 0)
(1.50608e-05 -0.016589 0)
(1.53038e-05 -0.0165889 0)
(1.5519e-05 -0.0165888 0)
(1.57072e-05 -0.0165888 0)
(1.5869e-05 -0.0165887 0)
(1.60053e-05 -0.0165886 0)
(1.61169e-05 -0.0165886 0)
(1.62046e-05 -0.0165885 0)
(1.62694e-05 -0.0165884 0)
(1.63121e-05 -0.0165884 0)
(1.63336e-05 -0.0165883 0)
(1.6335e-05 -0.0165882 0)
(1.6317e-05 -0.0165882 0)
(1.62808e-05 -0.0165881 0)
(1.62271e-05 -0.016588 0)
(1.61571e-05 -0.016588 0)
(1.60716e-05 -0.0165879 0)
(1.59717e-05 -0.0165878 0)
(1.58582e-05 -0.0165877 0)
(1.57321e-05 -0.0165877 0)
(1.55944e-05 -0.0165876 0)
(1.54459e-05 -0.0165875 0)
(1.52876e-05 -0.0165875 0)
(1.51204e-05 -0.0165874 0)
(1.49452e-05 -0.0165873 0)
(1.47627e-05 -0.0165873 0)
(1.45738e-05 -0.0165872 0)
(1.43794e-05 -0.0165871 0)
(1.41801e-05 -0.0165871 0)
(1.39767e-05 -0.016587 0)
(1.37699e-05 -0.0165869 0)
(1.35605e-05 -0.0165869 0)
(1.3349e-05 -0.0165868 0)
(1.31361e-05 -0.0165868 0)
(1.29223e-05 -0.0165867 0)
(1.27082e-05 -0.0165866 0)
(1.24943e-05 -0.0165866 0)
(1.22811e-05 -0.0165865 0)
(1.20691e-05 -0.0165865 0)
(1.18586e-05 -0.0165864 0)
(1.165e-05 -0.0165864 0)
(1.14437e-05 -0.0165863 0)
(1.124e-05 -0.0165863 0)
(1.10392e-05 -0.0165862 0)
(1.08415e-05 -0.0165861 0)
(1.06471e-05 -0.0165861 0)
(1.04563e-05 -0.016586 0)
(1.02692e-05 -0.016586 0)
(1.00859e-05 -0.0165859 0)
(9.90664e-06 -0.0165859 0)
(9.73139e-06 -0.0165858 0)
(9.56026e-06 -0.0165858 0)
(9.3933e-06 -0.0165858 0)
(9.23055e-06 -0.0165857 0)
(9.07199e-06 -0.0165857 0)
(8.91765e-06 -0.0165856 0)
(8.76748e-06 -0.0165856 0)
(8.62145e-06 -0.0165855 0)
(8.47951e-06 -0.0165855 0)
(8.34161e-06 -0.0165855 0)
(8.20767e-06 -0.0165854 0)
(8.07762e-06 -0.0165854 0)
(7.95136e-06 -0.0165853 0)
(7.8288e-06 -0.0165853 0)
(7.70984e-06 -0.0165853 0)
(7.59438e-06 -0.0165852 0)
(7.48231e-06 -0.0165852 0)
(7.37352e-06 -0.0165851 0)
(7.2679e-06 -0.0165851 0)
(7.16533e-06 -0.0165851 0)
(7.06571e-06 -0.016585 0)
(6.96892e-06 -0.016585 0)
(6.87485e-06 -0.016585 0)
)
;
    }
    procBoundary6to5
    {
        type            processor;
        value           uniform (-1.77022e-06 -0.0165831 0);
    }
    procBoundary6to7
    {
        type            processor;
        value           uniform (-1.24316e-05 -0.0165902 0);
    }
    procBoundary6to8
    {
        type            processor;
        value           nonuniform List<vector> 
75
(
(-1.07105e-05 -0.0165773 0)
(-1.05804e-05 -0.0165773 0)
(-1.04509e-05 -0.0165774 0)
(-1.0322e-05 -0.0165774 0)
(-1.0194e-05 -0.0165775 0)
(-1.0067e-05 -0.0165776 0)
(-9.94087e-06 -0.0165776 0)
(-9.81586e-06 -0.0165777 0)
(-9.69199e-06 -0.0165778 0)
(-9.56931e-06 -0.0165778 0)
(-9.44789e-06 -0.0165779 0)
(-9.32775e-06 -0.0165779 0)
(-9.20893e-06 -0.016578 0)
(-9.09147e-06 -0.016578 0)
(-8.97537e-06 -0.0165781 0)
(-8.86067e-06 -0.0165782 0)
(-8.74737e-06 -0.0165782 0)
(-8.63549e-06 -0.0165783 0)
(-8.52501e-06 -0.0165783 0)
(-8.41596e-06 -0.0165784 0)
(-8.30831e-06 -0.0165784 0)
(-8.20207e-06 -0.0165785 0)
(-8.09724e-06 -0.0165785 0)
(-7.99379e-06 -0.0165786 0)
(-7.89173e-06 -0.0165786 0)
(-7.79103e-06 -0.0165787 0)
(-7.69169e-06 -0.0165787 0)
(-7.59368e-06 -0.0165788 0)
(-7.497e-06 -0.0165788 0)
(-7.40163e-06 -0.0165789 0)
(-7.30756e-06 -0.0165789 0)
(-7.21476e-06 -0.016579 0)
(-7.12321e-06 -0.016579 0)
(-7.03292e-06 -0.0165791 0)
(-6.94385e-06 -0.0165791 0)
(-6.85599e-06 -0.0165791 0)
(-6.76932e-06 -0.0165792 0)
(-6.68384e-06 -0.0165792 0)
(-6.59952e-06 -0.0165793 0)
(-6.51635e-06 -0.0165793 0)
(-6.43431e-06 -0.0165794 0)
(-6.3534e-06 -0.0165794 0)
(-6.27359e-06 -0.0165794 0)
(-6.19487e-06 -0.0165795 0)
(-6.11723e-06 -0.0165795 0)
(-6.04066e-06 -0.0165796 0)
(-5.96514e-06 -0.0165796 0)
(-5.89066e-06 -0.0165796 0)
(-5.81721e-06 -0.0165797 0)
(-5.74477e-06 -0.0165797 0)
(-5.67334e-06 -0.0165797 0)
(-5.6029e-06 -0.0165798 0)
(-5.53344e-06 -0.0165798 0)
(-5.46494e-06 -0.0165798 0)
(-5.3974e-06 -0.0165799 0)
(-5.3308e-06 -0.0165799 0)
(-5.26513e-06 -0.01658 0)
(-5.20038e-06 -0.01658 0)
(-5.13653e-06 -0.01658 0)
(-5.07358e-06 -0.0165801 0)
(-5.01151e-06 -0.0165801 0)
(-4.9503e-06 -0.0165801 0)
(-4.88995e-06 -0.0165801 0)
(-4.83043e-06 -0.0165802 0)
(-4.77175e-06 -0.0165802 0)
(-4.71387e-06 -0.0165802 0)
(-4.6568e-06 -0.0165803 0)
(-4.60051e-06 -0.0165803 0)
(-4.54499e-06 -0.0165803 0)
(-4.49022e-06 -0.0165803 0)
(-4.4362e-06 -0.0165804 0)
(-4.38289e-06 -0.0165804 0)
(-4.3303e-06 -0.0165804 0)
(-4.2784e-06 -0.0165805 0)
(-4.22718e-06 -0.0165805 0)
)
;
    }
    procBoundary6to9
    {
        type            processor;
        value           nonuniform List<vector> 
50
(
(-1.1304e-05 -0.0165735 0)
(-1.15873e-05 -0.0165736 0)
(-1.18506e-05 -0.0165737 0)
(-1.20944e-05 -0.0165737 0)
(-1.23191e-05 -0.0165738 0)
(-1.25252e-05 -0.0165739 0)
(-1.27131e-05 -0.0165739 0)
(-1.28834e-05 -0.016574 0)
(-1.30364e-05 -0.0165741 0)
(-1.31728e-05 -0.0165742 0)
(-1.32931e-05 -0.0165742 0)
(-1.33977e-05 -0.0165743 0)
(-1.34872e-05 -0.0165744 0)
(-1.35622e-05 -0.0165745 0)
(-1.36232e-05 -0.0165745 0)
(-1.36707e-05 -0.0165746 0)
(-1.37052e-05 -0.0165747 0)
(-1.37274e-05 -0.0165748 0)
(-1.37378e-05 -0.0165749 0)
(-1.37369e-05 -0.0165749 0)
(-1.37253e-05 -0.016575 0)
(-1.37035e-05 -0.0165751 0)
(-1.36721e-05 -0.0165752 0)
(-1.36315e-05 -0.0165753 0)
(-1.35823e-05 -0.0165753 0)
(-1.3525e-05 -0.0165754 0)
(-1.34602e-05 -0.0165755 0)
(-1.33882e-05 -0.0165756 0)
(-1.33097e-05 -0.0165757 0)
(-1.3225e-05 -0.0165757 0)
(-1.31346e-05 -0.0165758 0)
(-1.3039e-05 -0.0165759 0)
(-1.29386e-05 -0.016576 0)
(-1.28338e-05 -0.016576 0)
(-1.2725e-05 -0.0165761 0)
(-1.26126e-05 -0.0165762 0)
(-1.2497e-05 -0.0165763 0)
(-1.23786e-05 -0.0165763 0)
(-1.22576e-05 -0.0165764 0)
(-1.21344e-05 -0.0165765 0)
(-1.20093e-05 -0.0165766 0)
(-1.18826e-05 -0.0165766 0)
(-1.17546e-05 -0.0165767 0)
(-1.16255e-05 -0.0165768 0)
(-1.14956e-05 -0.0165768 0)
(-1.13651e-05 -0.0165769 0)
(-1.12342e-05 -0.016577 0)
(-1.11031e-05 -0.0165771 0)
(-1.0972e-05 -0.0165771 0)
(-1.08411e-05 -0.0165772 0)
)
;
    }
}


// ************************************************************************* //
