/*--------------------------------*- C++ -*----------------------------------*\
| =========                 |                                                 |
| \\      /  F ield         | OpenFOAM: The Open Source CFD Toolbox           |
|  \\    /   O peration     | Version:  2.4.0                                 |
|   \\  /    A nd           | Web:      www.OpenFOAM.org                      |
|    \\/     M anipulation  |                                                 |
\*---------------------------------------------------------------------------*/
FoamFile
{
    version     2.0;
    format      ascii;
    class       volScalarField;
    location    "4.3";
    object      H;
}
// * * * * * * * * * * * * * * * * * * * * * * * * * * * * * * * * * * * * * //

dimensions      [0 2 -2 0 0 0 0];

internalField   nonuniform List<scalar> 
500
(
-11990.8
-11990.8
-11990.7
-11990.8
-11990.8
-11509.6
-11509.6
-11509.5
-11509.6
-11509.6
-11023.1
-11023
-11022.9
-11023
-11023.1
-10531.1
-10531
-10530.9
-10531
-10531.1
-10033.6
-10033.4
-10033.2
-10033.4
-10033.6
-9530.47
-9530.22
-9530.01
-9530.24
-9530.47
-9021.62
-9021.32
-9021.08
-9021.34
-9021.62
-8506.99
-8506.64
-8506.35
-8506.66
-8506.98
-7986.49
-7986.09
-7985.76
-7986.12
-7986.48
-7460.03
-7459.58
-7459.21
-7459.61
-7460.03
-6927.54
-6927.03
-6926.62
-6927.07
-6927.53
-6388.92
-6388.35
-6387.89
-6388.39
-6388.91
-5844.08
-5843.45
-5842.94
-5843.49
-5844.07
-5292.92
-5292.23
-5291.67
-5292.28
-5292.91
-4735.36
-4734.6
-4733.98
-4734.65
-4735.35
-4171.29
-4170.46
-4169.78
-4170.52
-4171.28
-3600.63
-3599.71
-3598.96
-3599.77
-3600.61
-3023.26
-3022.25
-3021.44
-3022.32
-3023.24
-2439.08
-2437.98
-2437.09
-2438.06
-2439.07
-1848
-1846.79
-1845.83
-1846.88
-1847.99
-1249.91
-1248.58
-1247.53
-1248.68
-1249.89
-644.696
-643.243
-642.089
-643.352
-644.673
-11.1402
-11.0738
-11.0218
-11.0788
-11.1391
-8.27601
-8.22682
-8.18828
-8.23051
-8.27522
-8.24145
-8.19336
-8.15581
-8.19694
-8.2407
-8.20565
-8.15866
-8.12207
-8.16214
-8.20495
-8.16859
-8.12268
-8.08705
-8.12605
-8.16794
-8.13023
-8.08539
-8.05069
-8.08866
-8.12961
-8.09053
-8.04674
-8.01297
-8.04991
-8.08995
-8.04945
-8.0067
-7.97384
-8.00978
-8.04891
-8.00695
-7.96523
-7.93327
-7.96822
-8.00645
-7.963
-7.9223
-7.89121
-7.92519
-7.96253
-7.91755
-7.87785
-7.84762
-7.88065
-7.91711
-7.87056
-7.83185
-7.80247
-7.83457
-7.87016
-7.822
-7.78427
-7.75572
-7.78689
-7.82163
-7.77182
-7.73505
-7.70732
-7.73759
-7.77147
-7.71998
-7.68417
-7.65724
-7.68662
-7.71966
-7.66644
-7.63156
-7.60542
-7.63394
-7.66615
-7.61116
-7.57721
-7.55184
-7.57951
-7.6109
-7.55409
-7.52106
-7.49644
-7.52328
-7.55386
-7.4952
-7.46306
-7.43919
-7.46521
-7.49499
-7.43444
-7.40319
-7.38005
-7.40527
-7.43426
-7.37178
-7.3414
-7.31897
-7.3434
-7.37161
-7.30716
-7.27764
-7.25591
-7.27957
-7.30702
-7.24055
-7.21187
-7.19083
-7.21374
-7.24043
-7.17191
-7.14406
-7.12369
-7.14586
-7.17181
-7.10119
-7.07417
-7.05445
-7.0759
-7.10111
-7.02836
-7.00214
-6.98307
-7.00381
-7.0283
-6.95338
-6.92795
-6.90951
-6.92956
-6.95333
-6.8762
-6.85155
-6.83372
-6.8531
-6.87617
-6.79679
-6.77291
-6.75568
-6.7744
-6.79677
-6.71511
-6.69198
-6.67535
-6.69342
-6.71511
-6.63113
-6.60874
-6.59268
-6.61012
-6.63115
-6.54481
-6.52315
-6.50765
-6.52447
-6.54484
-6.45612
-6.43517
-6.42022
-6.43644
-6.45616
-6.36503
-6.34477
-6.33037
-6.34599
-6.36507
-6.2715
-6.25192
-6.23805
-6.2531
-6.27155
-6.1755
-6.1566
-6.14324
-6.15773
-6.17556
-6.07701
-6.05878
-6.04591
-6.05986
-6.07709
-5.97602
-5.95843
-5.94605
-5.95946
-5.97609
-5.87248
-5.85552
-5.84363
-5.85652
-5.87257
-5.76639
-5.75005
-5.73862
-5.751
-5.76648
-5.65772
-5.642
-5.63102
-5.64291
-5.65782
-5.54647
-5.53134
-5.52081
-5.53221
-5.54657
-5.43262
-5.41808
-5.40798
-5.41891
-5.43272
-5.31616
-5.3022
-5.29252
-5.30299
-5.31627
-5.19709
-5.18369
-5.17442
-5.18445
-5.19721
-5.07542
-5.06257
-5.0537
-5.06329
-5.07553
-4.95114
-4.93882
-4.93035
-4.93951
-4.95125
-4.82426
-4.81247
-4.80438
-4.81312
-4.82438
-4.69479
-4.68352
-4.6758
-4.68414
-4.69491
-4.56276
-4.55199
-4.54463
-4.55258
-4.56288
-4.42818
-4.41791
-4.4109
-4.41847
-4.4283
-4.29108
-4.28129
-4.27463
-4.28183
-4.2912
-4.1515
-4.14218
-4.13585
-4.14269
-4.15161
-4.00946
-4.00061
-3.99461
-4.00109
-4.00958
-3.86503
-3.85663
-3.85094
-3.85708
-3.86514
-3.71824
-3.71028
-3.70491
-3.7107
-3.71835
-3.56915
-3.56163
-3.55655
-3.56203
-3.56926
-3.41783
-3.41073
-3.40595
-3.4111
-3.41793
-3.26434
-3.25766
-3.25317
-3.25801
-3.26445
-3.10877
-3.1025
-3.09828
-3.10282
-3.10887
-2.9512
-2.94532
-2.94138
-2.94563
-2.95129
-2.79171
-2.78623
-2.78255
-2.78651
-2.79181
-2.63042
-2.62531
-2.6219
-2.62558
-2.63051
-2.46742
-2.46269
-2.45953
-2.46293
-2.4675
-2.30283
-2.29847
-2.29555
-2.29869
-2.30291
-2.13678
-2.13277
-2.1301
-2.13298
-2.13685
-1.96939
-1.96574
-1.9633
-1.96592
-1.96946
-1.80081
-1.7975
-1.7953
-1.79767
-1.80087
-1.63118
-1.62821
-1.62624
-1.62836
-1.63124
-1.46067
-1.45802
-1.45627
-1.45816
-1.46072
-1.28942
-1.28711
-1.28558
-1.28723
-1.28947
-1.11763
-1.11564
-1.11432
-1.11574
-1.11767
-0.945464
-0.94379
-0.942682
-0.943874
-0.945497
-0.773119
-0.771758
-0.770858
-0.771826
-0.773147
-0.600793
-0.59974
-0.599044
-0.599793
-0.600814
-0.428692
-0.427943
-0.427448
-0.42798
-0.428707
-0.257028
-0.25658
-0.256285
-0.256603
-0.257037
-0.0860243
-0.0858746
-0.0857757
-0.085882
-0.0860273
)
;

boundaryField
{
    BotWall
    {
        type            zeroGradient;
    }
    FreeStream
    {
        type            zeroGradient;
    }
    FrontNBack
    {
        type            empty;
    }
    LeftSide
    {
        type            symmetryPlane;
    }
    RightSide
    {
        type            symmetryPlane;
    }
}


// ************************************************************************* //
