/*--------------------------------*- C++ -*----------------------------------*\
| =========                 |                                                 |
| \\      /  F ield         | OpenFOAM: The Open Source CFD Toolbox           |
|  \\    /   O peration     | Version:  2.4.0                                 |
|   \\  /    A nd           | Web:      www.OpenFOAM.org                      |
|    \\/     M anipulation  |                                                 |
\*---------------------------------------------------------------------------*/
FoamFile
{
    version     2.0;
    format      ascii;
    class       volScalarField;
    location    "4.3";
    object      p;
}
// * * * * * * * * * * * * * * * * * * * * * * * * * * * * * * * * * * * * * //

dimensions      [1 -1 -2 0 0 0 0];

internalField   nonuniform List<scalar> 
500
(
0.739567
0.742353
0.742834
0.742314
0.739639
0.709742
0.712536
0.713022
0.712495
0.709813
0.679598
0.682403
0.682896
0.68236
0.679668
0.649111
0.651927
0.65243
0.651883
0.649181
0.618291
0.62112
0.621632
0.621074
0.618361
0.587118
0.58996
0.590482
0.589913
0.587189
0.555607
0.558462
0.558994
0.558414
0.555678
0.523735
0.526604
0.527146
0.526554
0.523806
0.491513
0.494397
0.49495
0.494346
0.491585
0.458911
0.46181
0.462374
0.461758
0.458983
0.425948
0.428863
0.429438
0.42881
0.42602
0.392677
0.395609
0.396196
0.395554
0.39275
0.359316
0.362267
0.362868
0.36221
0.359389
0.325745
0.328717
0.329333
0.328659
0.325819
0.290004
0.292994
0.293617
0.292935
0.290078
0.247042
0.250012
0.250624
0.249953
0.247117
0.19928
0.202193
0.202755
0.202139
0.199353
0.197065
0.200094
0.200714
0.200071
0.197139
0.367073
0.371109
0.372375
0.370961
0.367164
0.644546
0.650605
0.653942
0.650356
0.644677
-0.250657
-0.246236
-0.244157
-0.246585
-0.250526
-5.51796
-5.53662
-5.55123
-5.53522
-5.51822
-13.3055
-13.3721
-13.4261
-13.3669
-13.3066
-0.0170367
-0.0170349
-0.0170336
-0.017035
-0.0170366
-0.0126206
-0.0126218
-0.0126226
-0.0126218
-0.0126206
-0.0139684
-0.0139685
-0.0139686
-0.0139685
-0.0139684
-0.0150246
-0.0150245
-0.0150244
-0.0150245
-0.0150246
-0.0157486
-0.0157486
-0.0157485
-0.0157486
-0.0157486
-0.0163895
-0.0163894
-0.0163894
-0.0163894
-0.0163895
-0.0170475
-0.0170474
-0.0170474
-0.0170474
-0.0170475
-0.0177262
-0.0177262
-0.0177261
-0.0177262
-0.0177262
-0.0184159
-0.0184159
-0.0184159
-0.0184159
-0.0184159
-0.019113
-0.0191129
-0.0191129
-0.0191129
-0.019113
-0.0198172
-0.0198172
-0.0198172
-0.0198172
-0.0198172
-0.0205292
-0.0205292
-0.0205292
-0.0205292
-0.0205292
-0.0212492
-0.0212491
-0.0212491
-0.0212491
-0.0212492
-0.0219772
-0.0219771
-0.0219771
-0.0219771
-0.0219772
-0.0227133
-0.0227133
-0.0227133
-0.0227133
-0.0227133
-0.0234577
-0.0234576
-0.0234576
-0.0234576
-0.0234577
-0.0242103
-0.0242103
-0.0242103
-0.0242103
-0.0242103
-0.0249714
-0.0249714
-0.0249713
-0.0249714
-0.0249714
-0.0257409
-0.0257409
-0.0257409
-0.0257409
-0.0257409
-0.0265191
-0.026519
-0.026519
-0.026519
-0.0265191
-0.0273059
-0.0273059
-0.0273058
-0.0273059
-0.0273059
-0.0281015
-0.0281015
-0.0281014
-0.0281015
-0.0281015
-0.028906
-0.0289059
-0.0289059
-0.0289059
-0.028906
-0.0297194
-0.0297194
-0.0297194
-0.0297194
-0.0297194
-0.0305419
-0.0305419
-0.0305419
-0.0305419
-0.0305419
-0.0313737
-0.0313736
-0.0313736
-0.0313736
-0.0313737
-0.0322146
-0.0322146
-0.0322146
-0.0322146
-0.0322146
-0.033065
-0.033065
-0.033065
-0.033065
-0.033065
-0.0339249
-0.0339249
-0.0339249
-0.0339249
-0.0339249
-0.0347943
-0.0347943
-0.0347943
-0.0347943
-0.0347943
-0.0356735
-0.0356735
-0.0356735
-0.0356735
-0.0356735
-0.0365625
-0.0365625
-0.0365624
-0.0365625
-0.0365625
-0.0374614
-0.0374614
-0.0374613
-0.0374614
-0.0374614
-0.0383703
-0.0383703
-0.0383703
-0.0383703
-0.0383703
-0.0392894
-0.0392893
-0.0392893
-0.0392893
-0.0392894
-0.0402187
-0.0402187
-0.0402187
-0.0402187
-0.0402187
-0.0411584
-0.0411584
-0.0411584
-0.0411584
-0.0411584
-0.0421086
-0.0421085
-0.0421085
-0.0421085
-0.0421086
-0.0430693
-0.0430693
-0.0430693
-0.0430693
-0.0430693
-0.0440408
-0.0440408
-0.0440408
-0.0440408
-0.0440408
-0.0450232
-0.0450232
-0.0450232
-0.0450232
-0.0450232
-0.0460165
-0.0460165
-0.0460165
-0.0460165
-0.0460165
-0.0470209
-0.0470209
-0.0470209
-0.0470209
-0.0470209
-0.0480365
-0.0480365
-0.0480365
-0.0480365
-0.0480365
-0.0490634
-0.0490634
-0.0490634
-0.0490634
-0.0490634
-0.0501018
-0.0501018
-0.0501018
-0.0501018
-0.0501018
-0.0511518
-0.0511518
-0.0511517
-0.0511518
-0.0511518
-0.0522135
-0.0522135
-0.0522134
-0.0522135
-0.0522135
-0.053287
-0.053287
-0.053287
-0.053287
-0.053287
-0.0543725
-0.0543725
-0.0543725
-0.0543725
-0.0543725
-0.0554702
-0.0554701
-0.0554701
-0.0554701
-0.0554702
-0.05658
-0.05658
-0.05658
-0.05658
-0.05658
-0.0577023
-0.0577023
-0.0577023
-0.0577023
-0.0577023
-0.0588371
-0.0588371
-0.0588371
-0.0588371
-0.0588371
-0.0599846
-0.0599845
-0.0599845
-0.0599845
-0.0599845
-0.0611448
-0.0611448
-0.0611448
-0.0611448
-0.0611448
-0.062318
-0.062318
-0.062318
-0.062318
-0.062318
-0.0635043
-0.0635043
-0.0635043
-0.0635043
-0.0635043
-0.0647038
-0.0647038
-0.0647038
-0.0647038
-0.0647038
-0.0659168
-0.0659168
-0.0659167
-0.0659168
-0.0659168
-0.0671432
-0.0671432
-0.0671432
-0.0671432
-0.0671432
-0.0683834
-0.0683834
-0.0683833
-0.0683834
-0.0683834
-0.0696373
-0.0696373
-0.0696373
-0.0696373
-0.0696373
-0.0709053
-0.0709053
-0.0709053
-0.0709053
-0.0709053
-0.0721874
-0.0721874
-0.0721874
-0.0721874
-0.0721874
-0.0734839
-0.0734839
-0.0734838
-0.0734839
-0.0734839
-0.0747948
-0.0747947
-0.0747947
-0.0747947
-0.0747948
-0.0761203
-0.0761203
-0.0761203
-0.0761203
-0.0761203
-0.0774606
-0.0774606
-0.0774606
-0.0774606
-0.0774606
-0.0788159
-0.0788159
-0.0788159
-0.0788159
-0.0788159
-0.0801863
-0.0801862
-0.0801862
-0.0801863
-0.0801863
-0.0815719
-0.0815719
-0.0815719
-0.0815719
-0.0815719
-0.0829731
-0.0829731
-0.0829731
-0.0829731
-0.0829731
-0.0843899
-0.0843899
-0.0843899
-0.0843899
-0.0843899
-0.0858225
-0.0858225
-0.0858225
-0.0858225
-0.0858225
-0.087271
-0.087271
-0.087271
-0.087271
-0.087271
-0.0887358
-0.0887358
-0.0887358
-0.0887358
-0.0887358
)
;

boundaryField
{
    BotWall
    {
        type            calculated;
        value           nonuniform List<scalar> 5(0.754387 0.757173 0.757654 0.757134 0.754459);
    }
    FreeStream
    {
        type            calculated;
        value           nonuniform List<scalar> 5(-0.0894722 -0.0894722 -0.0894722 -0.0894722 -0.0894722);
    }
    FrontNBack
    {
        type            empty;
    }
    LeftSide
    {
        type            symmetryPlane;
    }
    RightSide
    {
        type            symmetryPlane;
    }
}


// ************************************************************************* //
