/*--------------------------------*- C++ -*----------------------------------*\
| =========                 |                                                 |
| \\      /  F ield         | OpenFOAM: The Open Source CFD Toolbox           |
|  \\    /   O peration     | Version:  2.4.0                                 |
|   \\  /    A nd           | Web:      www.OpenFOAM.org                      |
|    \\/     M anipulation  |                                                 |
\*---------------------------------------------------------------------------*/
FoamFile
{
    version     2.0;
    format      ascii;
    class       volScalarField;
    location    "4.3";
    object      p_rgh;
}
// * * * * * * * * * * * * * * * * * * * * * * * * * * * * * * * * * * * * * //

dimensions      [1 -1 -2 0 0 0 0];

internalField   nonuniform List<scalar> 
500
(
0.754387
0.757173
0.757654
0.757134
0.754459
0.754368
0.757162
0.757648
0.757121
0.754439
0.754363
0.757168
0.757661
0.757125
0.754433
0.75435
0.757167
0.75767
0.757123
0.754421
0.754345
0.757175
0.757686
0.757129
0.754416
0.754332
0.757174
0.757695
0.757127
0.754403
0.754327
0.757182
0.757714
0.757134
0.754398
0.754313
0.757182
0.757724
0.757132
0.754384
0.754305
0.757189
0.757741
0.757138
0.754376
0.754276
0.757175
0.757739
0.757123
0.754348
0.754249
0.757165
0.75774
0.757111
0.754322
0.754283
0.757215
0.757802
0.75716
0.754356
0.754597
0.757548
0.758149
0.757491
0.754671
0.755078
0.75805
0.758666
0.757992
0.755152
0.753768
0.756758
0.757382
0.756699
0.753843
0.745622
0.748592
0.749204
0.748533
0.745697
0.733064
0.735977
0.736539
0.735924
0.733137
0.766446
0.769475
0.770095
0.769452
0.766521
0.972448
0.976485
0.97775
0.976337
0.972539
1.28632
1.29238
1.29571
1.29213
1.28645
0.427916
0.432337
0.434416
0.431989
0.428048
-4.80217
-4.82083
-4.83545
-4.81943
-4.80244
-12.6134
-12.6756
-12.7262
-12.6708
-12.6144
-0.00392707
-0.00392529
-0.00392405
-0.0039254
-0.00392705
0.0011262
0.00112501
0.00112422
0.00112508
0.00112618
0.000422794
0.00042269
0.000422588
0.000422699
0.000422793
1.8109e-05
1.82402e-05
1.83129e-05
1.82327e-05
1.81112e-05
-4.70894e-05
-4.7013e-05
-4.69584e-05
-4.70189e-05
-4.70875e-05
-2.17319e-05
-2.16974e-05
-2.16679e-05
-2.1701e-05
-2.17306e-05
-6.11989e-06
-6.09044e-06
-6.06745e-06
-6.09337e-06
-6.1187e-06
-3.73701e-06
-3.70428e-06
-3.68093e-06
-3.70723e-06
-3.73583e-06
-4.74634e-06
-4.71256e-06
-4.68867e-06
-4.71554e-06
-4.74516e-06
-5.36265e-06
-5.32956e-06
-5.30587e-06
-5.3325e-06
-5.36149e-06
-5.45148e-06
-5.41929e-06
-5.39606e-06
-5.42217e-06
-5.45035e-06
-5.40678e-06
-5.37532e-06
-5.35257e-06
-5.37814e-06
-5.40568e-06
-5.37818e-06
-5.34737e-06
-5.32505e-06
-5.35013e-06
-5.3771e-06
-5.37058e-06
-5.3404e-06
-5.31852e-06
-5.34311e-06
-5.36953e-06
-5.3682e-06
-5.33867e-06
-5.31721e-06
-5.34132e-06
-5.36718e-06
-5.36513e-06
-5.33624e-06
-5.31519e-06
-5.33884e-06
-5.36413e-06
-5.36119e-06
-5.33292e-06
-5.3123e-06
-5.33547e-06
-5.36021e-06
-5.357e-06
-5.32935e-06
-5.30915e-06
-5.33185e-06
-5.35604e-06
-5.35279e-06
-5.32577e-06
-5.30598e-06
-5.32821e-06
-5.35187e-06
-5.34859e-06
-5.32217e-06
-5.30279e-06
-5.32456e-06
-5.34768e-06
-5.34435e-06
-5.31854e-06
-5.29957e-06
-5.32088e-06
-5.34347e-06
-5.34008e-06
-5.31486e-06
-5.29629e-06
-5.31715e-06
-5.33922e-06
-5.33576e-06
-5.31114e-06
-5.29297e-06
-5.31337e-06
-5.33492e-06
-5.3314e-06
-5.30737e-06
-5.2896e-06
-5.30955e-06
-5.33059e-06
-5.32701e-06
-5.30355e-06
-5.28618e-06
-5.30569e-06
-5.32622e-06
-5.32257e-06
-5.29969e-06
-5.28271e-06
-5.30177e-06
-5.3218e-06
-5.31809e-06
-5.29578e-06
-5.27919e-06
-5.29781e-06
-5.31735e-06
-5.31358e-06
-5.29182e-06
-5.27562e-06
-5.29381e-06
-5.31285e-06
-5.30902e-06
-5.28781e-06
-5.272e-06
-5.28976e-06
-5.30831e-06
-5.30442e-06
-5.28376e-06
-5.26832e-06
-5.28565e-06
-5.30373e-06
-5.29977e-06
-5.27966e-06
-5.2646e-06
-5.28151e-06
-5.29911e-06
-5.29508e-06
-5.2755e-06
-5.26082e-06
-5.27731e-06
-5.29444e-06
-5.29035e-06
-5.2713e-06
-5.25699e-06
-5.27306e-06
-5.28973e-06
-5.28558e-06
-5.26705e-06
-5.25311e-06
-5.26876e-06
-5.28498e-06
-5.28076e-06
-5.26275e-06
-5.24917e-06
-5.26442e-06
-5.28018e-06
-5.2759e-06
-5.2584e-06
-5.24518e-06
-5.26002e-06
-5.27534e-06
-5.27099e-06
-5.25399e-06
-5.24113e-06
-5.25557e-06
-5.27045e-06
-5.26603e-06
-5.24953e-06
-5.23703e-06
-5.25107e-06
-5.26551e-06
-5.26103e-06
-5.24502e-06
-5.23288e-06
-5.24652e-06
-5.26053e-06
-5.25599e-06
-5.24046e-06
-5.22866e-06
-5.24191e-06
-5.2555e-06
-5.25089e-06
-5.23585e-06
-5.22439e-06
-5.23726e-06
-5.25042e-06
-5.24575e-06
-5.23118e-06
-5.22007e-06
-5.23254e-06
-5.2453e-06
-5.24055e-06
-5.22645e-06
-5.21568e-06
-5.22778e-06
-5.24012e-06
-5.23531e-06
-5.22167e-06
-5.21124e-06
-5.22296e-06
-5.2349e-06
-5.23002e-06
-5.21684e-06
-5.20674e-06
-5.21808e-06
-5.22962e-06
-5.22468e-06
-5.21195e-06
-5.20218e-06
-5.21315e-06
-5.2243e-06
-5.21928e-06
-5.207e-06
-5.19756e-06
-5.20817e-06
-5.21892e-06
-5.21383e-06
-5.20199e-06
-5.19289e-06
-5.20312e-06
-5.21349e-06
-5.20834e-06
-5.19693e-06
-5.18815e-06
-5.19802e-06
-5.20801e-06
-5.20278e-06
-5.19181e-06
-5.18335e-06
-5.19286e-06
-5.20247e-06
-5.19718e-06
-5.18663e-06
-5.17848e-06
-5.18764e-06
-5.19688e-06
-5.19152e-06
-5.18139e-06
-5.17356e-06
-5.18237e-06
-5.19124e-06
-5.1858e-06
-5.17609e-06
-5.16857e-06
-5.17703e-06
-5.18553e-06
-5.18003e-06
-5.17073e-06
-5.16352e-06
-5.17163e-06
-5.17978e-06
-5.1742e-06
-5.16531e-06
-5.15841e-06
-5.16617e-06
-5.17396e-06
-5.16831e-06
-5.15983e-06
-5.15323e-06
-5.16065e-06
-5.16809e-06
-5.16236e-06
-5.15428e-06
-5.14799e-06
-5.15507e-06
-5.16216e-06
-5.15636e-06
-5.14867e-06
-5.14268e-06
-5.14943e-06
-5.15617e-06
-5.15029e-06
-5.143e-06
-5.13731e-06
-5.14372e-06
-5.15012e-06
-5.14417e-06
-5.13726e-06
-5.13187e-06
-5.13795e-06
-5.14401e-06
-5.13798e-06
-5.13146e-06
-5.12636e-06
-5.13211e-06
-5.13784e-06
-5.13173e-06
-5.12559e-06
-5.12079e-06
-5.12621e-06
-5.1316e-06
-5.12541e-06
-5.11966e-06
-5.11515e-06
-5.12024e-06
-5.1253e-06
-5.11903e-06
-5.11365e-06
-5.10944e-06
-5.1142e-06
-5.11893e-06
-5.11259e-06
-5.10759e-06
-5.10366e-06
-5.1081e-06
-5.1125e-06
-5.10608e-06
-5.10145e-06
-5.09781e-06
-5.10193e-06
-5.10601e-06
-5.0995e-06
-5.09524e-06
-5.09189e-06
-5.09568e-06
-5.09944e-06
-5.09285e-06
-5.08897e-06
-5.08591e-06
-5.08937e-06
-5.09281e-06
-5.08613e-06
-5.08262e-06
-5.07985e-06
-5.08299e-06
-5.0861e-06
-5.07934e-06
-5.0762e-06
-5.07372e-06
-5.07654e-06
-5.07933e-06
-5.07248e-06
-5.06971e-06
-5.06752e-06
-5.07002e-06
-5.07249e-06
-5.06555e-06
-5.06315e-06
-5.06124e-06
-5.06342e-06
-5.06557e-06
-5.05855e-06
-5.05652e-06
-5.0549e-06
-5.05675e-06
-5.05858e-06
-5.05144e-06
-5.04982e-06
-5.04851e-06
-5.05002e-06
-5.05149e-06
-5.04421e-06
-5.04306e-06
-5.0421e-06
-5.04322e-06
-5.04428e-06
-5.037e-06
-5.03619e-06
-5.03551e-06
-5.03632e-06
-5.03708e-06
-5.03035e-06
-5.02902e-06
-5.02805e-06
-5.02916e-06
-5.0304e-06
)
;

boundaryField
{
    BotWall
    {
        type            fixedFluxPressure;
        gradient        uniform 0;
        value           nonuniform List<scalar> 5(0.754387 0.757173 0.757654 0.757134 0.754459);
    }
    FreeStream
    {
        type            totalPressure;
        rho             rho;
        psi             none;
        gamma           1;
        p0              uniform 0;
        value           nonuniform List<scalar> 5(-5.02744e-06 -5.02525e-06 -5.02376e-06 -5.02542e-06 -5.02745e-06);
    }
    FrontNBack
    {
        type            empty;
    }
    LeftSide
    {
        type            symmetryPlane;
    }
    RightSide
    {
        type            symmetryPlane;
    }
}


// ************************************************************************* //
