/*--------------------------------*- C++ -*----------------------------------*\
| =========                 |                                                 |
| \\      /  F ield         | OpenFOAM: The Open Source CFD Toolbox           |
|  \\    /   O peration     | Version:  2.4.0                                 |
|   \\  /    A nd           | Web:      www.OpenFOAM.org                      |
|    \\/     M anipulation  |                                                 |
\*---------------------------------------------------------------------------*/
FoamFile
{
    version     2.0;
    format      ascii;
    class       surfaceScalarField;
    location    "4.3";
    object      phi;
}
// * * * * * * * * * * * * * * * * * * * * * * * * * * * * * * * * * * * * * //

dimensions      [0 3 -1 0 0 0 0];

internalField   nonuniform List<scalar> 
895
(
2.68984e-17
-2.68989e-17
1.85003e-17
8.39739e-18
-2.16043e-17
4.01034e-17
-2.60712e-17
4.46597e-18
-2.6072e-17
8.48855e-17
-1.11791e-16
5.72352e-17
3.60371e-17
-6.67145e-17
1.64038e-16
-8.22577e-17
1.99972e-17
-1.08338e-16
1.47321e-16
-2.59119e-16
9.83758e-17
8.49704e-17
-1.14459e-16
3.76857e-16
-1.42748e-16
4.82732e-17
-2.51096e-16
2.14153e-16
-4.73281e-16
1.42125e-16
1.56985e-16
-1.65045e-16
6.84009e-16
-2.07495e-16
9.07102e-17
-4.586e-16
2.85615e-16
-7.58905e-16
1.88633e-16
2.53955e-16
-2.18627e-16
1.09125e-15
-2.76723e-16
1.48792e-16
-7.35332e-16
3.61978e-16
-1.12089e-15
2.38049e-16
3.77869e-16
-2.75368e-16
1.60465e-15
-3.5069e-16
2.24099e-16
-1.08603e-15
4.43497e-16
-1.5644e-15
2.90527e-16
5.30825e-16
-3.35431e-16
2.23059e-15
-4.29642e-16
3.18295e-16
-1.51568e-15
5.30478e-16
-2.09489e-15
3.46245e-16
7.15044e-16
-3.99003e-16
2.97582e-15
-5.1387e-16
4.33148e-16
-2.02956e-15
6.23205e-16
-2.7181e-15
4.05369e-16
9.32865e-16
-4.66263e-16
3.84743e-15
-6.03646e-16
5.70517e-16
-2.63322e-15
7.22021e-16
-3.44013e-15
4.68098e-16
1.18677e-15
-5.37423e-16
4.85293e-15
-6.99299e-16
7.32378e-16
-3.33253e-15
8.27242e-16
-4.26738e-15
5.3462e-16
1.47938e-15
-6.1268e-16
6.00021e-15
-8.01128e-16
9.20813e-16
-4.13366e-15
9.39254e-16
-5.20665e-15
6.05156e-16
1.81347e-15
-6.92271e-16
7.29762e-15
-9.09503e-16
1.13803e-15
-5.04317e-15
1.05841e-15
-6.26507e-15
6.79914e-16
2.19195e-15
-7.76417e-16
8.75393e-15
-1.02476e-15
1.38636e-15
-6.06794e-15
1.18514e-15
-7.45022e-15
7.59146e-16
2.61793e-15
-8.65387e-16
1.03785e-14
-1.14731e-15
1.66827e-15
-7.21526e-15
1.31985e-15
-8.77007e-15
8.4309e-16
3.09468e-15
-9.59433e-16
1.2181e-14
-1.27753e-15
1.98636e-15
-8.4928e-15
1.46303e-15
-1.02331e-14
9.32029e-16
3.62567e-15
-1.05886e-15
1.41718e-14
-1.41591e-15
2.3434e-15
-9.90871e-15
1.6151e-15
-1.18482e-14
1.02622e-15
4.21454e-15
-1.16394e-15
1.6362e-14
-1.56282e-15
2.74227e-15
-1.14715e-14
1.77643e-15
-1.36247e-14
1.12593e-15
4.86504e-15
-1.275e-15
1.87629e-14
-1.71857e-15
3.18584e-15
-1.31901e-14
1.94716e-15
-1.55718e-14
1.23122e-15
5.58098e-15
-1.39121e-15
2.13853e-14
-1.88347e-15
3.67809e-15
-1.50736e-14
2.12839e-15
-1.77002e-14
1.34212e-15
6.36724e-15
-1.51555e-15
2.4243e-14
-2.05865e-15
4.22118e-15
-1.71322e-14
2.32635e-15
-2.00266e-14
1.45923e-15
7.23435e-15
-1.64698e-15
2.73492e-14
-2.2494e-15
4.8236e-15
-1.93816e-14
2.55105e-15
-2.27226e-14
1.60435e-15
8.18105e-15
-1.80403e-15
3.07575e-14
-2.46495e-15
5.48452e-15
-2.19865e-14
2.78723e-15
-2.09956e-10
1.77132e-15
-2.09972e-10
-1.98648e-15
-2.09986e-10
-2.68626e-15
-2.0997e-10
-2.09956e-10
2.80071e-15
-2.09959e-10
1.75426e-15
-2.09971e-10
-1.96707e-15
-2.09982e-10
-2.70677e-15
-2.0997e-10
-2.09959e-10
2.75946e-15
-2.09962e-10
1.73e-15
-2.09969e-10
-1.93993e-15
-2.09978e-10
-2.66799e-15
-2.09969e-10
-2.09962e-10
2.65354e-15
-2.09964e-10
1.66357e-15
-2.09969e-10
-1.86672e-15
-2.09975e-10
-2.56917e-15
-2.09968e-10
-2.09964e-10
2.55746e-15
-2.09967e-10
1.60303e-15
-2.09968e-10
-1.80016e-15
-2.09971e-10
-2.47895e-15
-2.09967e-10
-2.09967e-10
2.46778e-15
-2.09969e-10
1.54683e-15
-2.09967e-10
-1.73837e-15
-2.09968e-10
-2.39446e-15
-2.09967e-10
-2.09969e-10
2.37977e-15
-2.09972e-10
1.49209e-15
-2.09966e-10
-1.67816e-15
-2.09965e-10
-2.31146e-15
-2.09966e-10
-2.09972e-10
2.29219e-15
-2.09974e-10
1.43772e-15
-2.09965e-10
-1.61834e-15
-2.09962e-10
-2.2288e-15
-2.09966e-10
-2.09974e-10
2.20536e-15
-2.09976e-10
1.38376e-15
-2.09964e-10
-1.55897e-15
-2.09959e-10
-2.14678e-15
-2.09965e-10
-2.09976e-10
2.11957e-15
-2.09978e-10
1.33038e-15
-2.09963e-10
-1.50023e-15
-2.09956e-10
-2.06566e-15
-2.09964e-10
-2.09978e-10
2.03489e-15
-2.09981e-10
1.27766e-15
-2.09963e-10
-1.44221e-15
-2.09953e-10
-1.98552e-15
-2.09964e-10
-2.0998e-10
1.95133e-15
-2.09982e-10
1.22562e-15
-2.09962e-10
-1.38494e-15
-2.09951e-10
-1.90637e-15
-2.09963e-10
-2.09982e-10
1.86892e-15
-2.09984e-10
1.17429e-15
-2.09961e-10
-1.32844e-15
-2.09948e-10
-1.82824e-15
-2.09963e-10
-2.09984e-10
1.7877e-15
-2.09986e-10
1.12369e-15
-2.0996e-10
-1.27272e-15
-2.09946e-10
-1.75116e-15
-2.09962e-10
-2.09986e-10
1.70771e-15
-2.09988e-10
1.07384e-15
-2.0996e-10
-1.21783e-15
-2.09943e-10
-1.67517e-15
-2.09962e-10
-2.09987e-10
1.62898e-15
-2.09989e-10
1.02476e-15
-2.09959e-10
-1.16377e-15
-2.09941e-10
-1.60031e-15
-2.09961e-10
-2.09989e-10
1.55155e-15
-2.09991e-10
9.76476e-16
-2.09959e-10
-1.11058e-15
-2.09939e-10
-1.52662e-15
-2.09961e-10
-2.0999e-10
1.47546e-15
-2.09992e-10
9.29011e-16
-2.09958e-10
-1.05828e-15
-2.09937e-10
-1.45413e-15
-2.09961e-10
-2.09992e-10
1.40074e-15
-2.09994e-10
8.82385e-16
-2.09958e-10
-1.00689e-15
-2.09935e-10
-1.38287e-15
-2.0996e-10
-2.09993e-10
1.32742e-15
-2.09995e-10
8.36618e-16
-2.09957e-10
-9.56432e-16
-2.09933e-10
-1.31287e-15
-2.0996e-10
-2.09994e-10
1.25553e-15
-2.09996e-10
7.9173e-16
-2.09957e-10
-9.0693e-16
-2.09932e-10
-1.24417e-15
-2.0996e-10
-2.09996e-10
1.18509e-15
-2.09998e-10
7.47741e-16
-2.09956e-10
-8.58402e-16
-2.0993e-10
-1.1768e-15
-2.09959e-10
-2.09997e-10
1.11615e-15
-2.09999e-10
7.04667e-16
-2.09956e-10
-8.10869e-16
-2.09929e-10
-1.11078e-15
-2.09959e-10
-2.09998e-10
1.04871e-15
-2.1e-10
6.62526e-16
-2.09955e-10
-7.64349e-16
-2.09927e-10
-1.04614e-15
-2.09959e-10
-2.09999e-10
9.8282e-16
-2.10001e-10
6.21334e-16
-2.09955e-10
-7.18858e-16
-2.09926e-10
-9.8291e-16
-2.09958e-10
-2.1e-10
9.18489e-16
-2.10002e-10
5.81106e-16
-2.09955e-10
-6.74414e-16
-2.09925e-10
-9.21111e-16
-2.09958e-10
-2.10001e-10
8.55742e-16
-2.10003e-10
5.41857e-16
-2.09954e-10
-6.31032e-16
-2.09923e-10
-8.60767e-16
-2.09958e-10
-2.10002e-10
7.94601e-16
-2.10003e-10
5.036e-16
-2.09954e-10
-5.88726e-16
-2.09922e-10
-8.01902e-16
-2.09958e-10
-2.10003e-10
7.35083e-16
-2.10004e-10
4.66347e-16
-2.09954e-10
-5.4751e-16
-2.09921e-10
-7.44534e-16
-2.09958e-10
-2.10003e-10
6.77207e-16
-2.10005e-10
4.3011e-16
-2.09954e-10
-5.07397e-16
-2.0992e-10
-6.88683e-16
-2.09957e-10
-2.10004e-10
6.20987e-16
-2.10005e-10
3.94899e-16
-2.09953e-10
-4.68396e-16
-2.0992e-10
-6.34366e-16
-2.09957e-10
-2.10005e-10
5.66438e-16
-2.10006e-10
3.60723e-16
-2.09953e-10
-4.3052e-16
-2.09919e-10
-5.81599e-16
-2.09957e-10
-2.10005e-10
5.13572e-16
-2.10006e-10
3.2759e-16
-2.09953e-10
-3.93775e-16
-2.09918e-10
-5.30396e-16
-2.09957e-10
-2.10006e-10
4.624e-16
-2.10007e-10
2.95508e-16
-2.09953e-10
-3.58171e-16
-2.09917e-10
-4.80771e-16
-2.09957e-10
-2.10006e-10
4.1293e-16
-2.10007e-10
2.64482e-16
-2.09953e-10
-3.23714e-16
-2.09917e-10
-4.32733e-16
-2.09957e-10
-2.10007e-10
3.65169e-16
-2.10008e-10
2.34517e-16
-2.09952e-10
-2.90409e-16
-2.09916e-10
-3.86291e-16
-2.09957e-10
-2.10007e-10
3.19122e-16
-2.10008e-10
2.05617e-16
-2.09952e-10
-2.58261e-16
-2.09916e-10
-3.41455e-16
-2.09956e-10
-2.10007e-10
2.74793e-16
-2.10008e-10
1.77785e-16
-2.09952e-10
-2.27272e-16
-2.09915e-10
-2.98228e-16
-2.09956e-10
-2.10008e-10
2.32182e-16
-2.10009e-10
1.51021e-16
-2.09952e-10
-1.97445e-16
-2.09915e-10
-2.56614e-16
-2.09956e-10
-2.10008e-10
1.91288e-16
-2.10009e-10
1.25325e-16
-2.09952e-10
-1.68779e-16
-2.09915e-10
-2.16617e-16
-2.09956e-10
-2.10008e-10
1.5211e-16
-2.10009e-10
1.00697e-16
-2.09952e-10
-1.41274e-16
-2.09914e-10
-1.78235e-16
-2.09956e-10
-2.10008e-10
1.14643e-16
-2.10009e-10
7.71331e-17
-2.09952e-10
-1.14927e-16
-2.09914e-10
-1.41468e-16
-2.09956e-10
-2.10009e-10
7.888e-17
-2.10009e-10
5.46307e-17
-2.09952e-10
-8.97361e-17
-2.09914e-10
-1.06311e-16
-2.09956e-10
-2.10009e-10
4.48121e-17
-2.10009e-10
3.31845e-17
-2.09952e-10
-6.56949e-17
-2.09914e-10
-7.27586e-17
-2.09956e-10
-2.10009e-10
1.24288e-17
-2.10009e-10
1.27879e-17
-2.09952e-10
-4.27977e-17
-2.09914e-10
-4.08034e-17
-2.09956e-10
-2.10009e-10
-1.8283e-17
-2.10009e-10
-6.56656e-18
-2.09952e-10
-2.10366e-17
-2.09914e-10
-1.04355e-17
-2.09956e-10
-2.10009e-10
-4.73382e-17
-2.10009e-10
-2.48882e-17
-2.09952e-10
-4.02702e-19
-2.09914e-10
1.83569e-17
-2.09956e-10
-2.10009e-10
-7.47541e-17
-2.10009e-10
-4.21873e-17
-2.09952e-10
1.91148e-17
-2.09914e-10
4.5588e-17
-2.09956e-10
-2.10009e-10
-1.0055e-16
-2.10009e-10
-5.84758e-17
-2.09952e-10
3.75279e-17
-2.09914e-10
7.12737e-17
-2.09956e-10
-2.10009e-10
-1.24749e-16
-2.10009e-10
-7.37672e-17
-2.09952e-10
5.48503e-17
-2.09914e-10
9.54326e-17
-2.09956e-10
-2.10009e-10
-1.47374e-16
-2.10009e-10
-8.80763e-17
-2.09952e-10
7.10971e-17
-2.09914e-10
1.18085e-16
-2.09956e-10
-2.10008e-10
-1.68452e-16
-2.10008e-10
-1.0142e-16
-2.09952e-10
8.62853e-17
-2.09915e-10
1.39255e-16
-2.09956e-10
-2.10008e-10
-1.88012e-16
-2.10008e-10
-1.13815e-16
-2.09952e-10
1.00433e-16
-2.09915e-10
1.58968e-16
-2.09957e-10
-2.10008e-10
-2.06088e-16
-2.10008e-10
-1.25283e-16
-2.09952e-10
1.13562e-16
-2.09915e-10
1.77252e-16
-2.09957e-10
-2.10008e-10
-2.22712e-16
-2.10008e-10
-1.35843e-16
-2.09953e-10
1.25692e-16
-2.09915e-10
1.94137e-16
-2.09957e-10
-2.10008e-10
-2.37924e-16
-2.10008e-10
-1.45521e-16
-2.09953e-10
1.36849e-16
-2.09916e-10
2.09658e-16
-2.09957e-10
-2.10008e-10
-2.51763e-16
-2.10007e-10
-1.5434e-16
-2.09953e-10
1.47058e-16
-2.09916e-10
2.23851e-16
-2.09957e-10
-2.10007e-10
-2.64274e-16
-2.10007e-10
-1.62329e-16
-2.09953e-10
1.56348e-16
-2.09916e-10
2.36756e-16
-2.09957e-10
-2.10007e-10
-2.75503e-16
-2.10007e-10
-1.69516e-16
-2.09953e-10
1.64749e-16
-2.09917e-10
2.48415e-16
-2.09957e-10
-2.10007e-10
-2.85501e-16
-2.10007e-10
-1.75932e-16
-2.09953e-10
1.72293e-16
-2.09917e-10
2.58875e-16
-2.09957e-10
-2.10007e-10
-2.94324e-16
-2.10006e-10
-1.81612e-16
-2.09953e-10
1.79016e-16
-2.09917e-10
2.68186e-16
-2.09957e-10
-2.10006e-10
-3.02029e-16
-2.10006e-10
-1.86591e-16
-2.09953e-10
1.84955e-16
-2.09918e-10
2.76402e-16
-2.09957e-10
-2.10006e-10
-3.08679e-16
-2.10006e-10
-1.9091e-16
-2.09953e-10
1.90151e-16
-2.09918e-10
2.8358e-16
-2.09957e-10
-2.10006e-10
-3.14343e-16
-2.10005e-10
-1.94609e-16
-2.09954e-10
1.94649e-16
-2.09918e-10
2.89784e-16
-2.09957e-10
-2.10005e-10
-3.19092e-16
-2.10005e-10
-1.97733e-16
-2.09954e-10
1.98494e-16
-2.09919e-10
2.95079e-16
-2.09958e-10
-2.10005e-10
-3.23006e-16
-2.10005e-10
-2.00331e-16
-2.09954e-10
2.01738e-16
-2.09919e-10
2.9954e-16
-2.09958e-10
-2.10005e-10
-3.26168e-16
-2.10004e-10
-2.02456e-16
-2.09954e-10
2.04435e-16
-2.0992e-10
3.03244e-16
-2.09958e-10
-2.10005e-10
-3.28669e-16
-2.10004e-10
-2.04162e-16
-2.09954e-10
2.06644e-16
-2.0992e-10
3.06275e-16
-2.09958e-10
-2.10004e-10
-3.30607e-16
-2.10004e-10
-2.0551e-16
-2.09954e-10
2.08428e-16
-2.0992e-10
3.08724e-16
-2.09958e-10
-2.10004e-10
-3.32088e-16
-2.10003e-10
-2.06565e-16
-2.09954e-10
2.09856e-16
-2.09921e-10
3.1069e-16
-2.09958e-10
-2.10004e-10
-3.33226e-16
-2.10003e-10
-2.07398e-16
-2.09954e-10
2.11002e-16
-2.09921e-10
3.12279e-16
-2.09958e-10
-2.10003e-10
-3.34146e-16
-2.10003e-10
-2.08084e-16
-2.09955e-10
2.11947e-16
-2.09922e-10
3.13606e-16
-2.09958e-10
-2.10003e-10
-3.34981e-16
-2.10002e-10
-2.08706e-16
-2.09955e-10
2.12777e-16
-2.09922e-10
3.14796e-16
-2.09958e-10
-2.10003e-10
-3.35876e-16
-2.10002e-10
-2.09351e-16
-2.09955e-10
2.13586e-16
-2.09923e-10
3.15985e-16
-2.09958e-10
-2.10002e-10
-3.36986e-16
-2.10002e-10
-2.10114e-16
-2.09955e-10
2.14474e-16
-2.09923e-10
3.17315e-16
-2.09959e-10
-2.10002e-10
-3.38489e-16
-2.10001e-10
-2.11103e-16
-2.09955e-10
2.15554e-16
-2.09923e-10
3.18953e-16
-2.09959e-10
-2.10002e-10
-3.40623e-16
-2.10001e-10
-2.12465e-16
-2.09955e-10
2.16986e-16
-2.09924e-10
3.21119e-16
-2.09959e-10
-2.10001e-10
-3.43836e-16
-2.14537e-16
2.19141e-16
3.24204e-16
)
;

boundaryField
{
    BotWall
    {
        type            calculated;
        value           nonuniform List<scalar> 5(3.47841e-22 6.63046e-22 1.00156e-21 8.09333e-22 6.1799e-22);
    }
    FreeStream
    {
        type            calculated;
        value           nonuniform List<scalar> 5(-2.10001e-10 -2.09955e-10 -2.09924e-10 -2.09959e-10 -2.10001e-10);
    }
    FrontNBack
    {
        type            empty;
        value           nonuniform 0();
    }
    LeftSide
    {
        type            symmetryPlane;
        value           uniform 0;
    }
    RightSide
    {
        type            symmetryPlane;
        value           uniform 0;
    }
}


// ************************************************************************* //
