/*--------------------------------*- C++ -*----------------------------------*\
| =========                 |                                                 |
| \\      /  F ield         | OpenFOAM: The Open Source CFD Toolbox           |
|  \\    /   O peration     | Version:  2.4.0                                 |
|   \\  /    A nd           | Web:      www.OpenFOAM.org                      |
|    \\/     M anipulation  |                                                 |
\*---------------------------------------------------------------------------*/
FoamFile
{
    version     2.0;
    format      ascii;
    class       volVectorField;
    location    "4.3";
    object      U;
}
// * * * * * * * * * * * * * * * * * * * * * * * * * * * * * * * * * * * * * //

dimensions      [0 1 -1 0 0 0 0];

internalField   nonuniform List<vector> 
500
(
(5.60905e-09 5.98403e-11 0)
(1.44218e-08 9.13857e-11 0)
(-1.04542e-09 1.21984e-10 0)
(-1.46061e-08 8.7807e-11 0)
(-4.80001e-09 6.05475e-11 0)
(1.75903e-08 -4.95602e-10 0)
(4.42521e-08 -1.30841e-10 0)
(-3.15818e-09 1.97784e-10 0)
(-4.47887e-08 -1.71811e-10 0)
(-1.51255e-08 -4.86959e-10 0)
(3.04241e-08 -4.81187e-10 0)
(7.52713e-08 6.54272e-10 0)
(-5.30633e-09 1.62005e-09 0)
(-7.61456e-08 5.32884e-10 0)
(-2.62543e-08 -4.54873e-10 0)
(4.41434e-08 -2.25514e-09 0)
(1.07529e-07 5.25752e-11 0)
(-7.49211e-09 2.01029e-09 0)
(-1.08726e-07 -1.93607e-10 0)
(-3.82161e-08 -2.20108e-09 0)
(5.87779e-08 -2.32872e-09 0)
(1.41074e-07 1.67781e-09 0)
(-9.71718e-09 4.99629e-09 0)
(-1.42576e-07 1.26046e-09 0)
(-5.10372e-08 -2.23578e-09 0)
(7.43653e-08 -5.43381e-09 0)
(1.75965e-07 6.95272e-10 0)
(-1.19838e-08 5.75885e-09 0)
(-1.77754e-07 5.98944e-11 0)
(-6.4752e-08 -5.29078e-09 0)
(9.09368e-08 -5.614e-09 0)
(2.1225e-07 3.26373e-09 0)
(-1.42939e-08 1.04799e-08 0)
(-2.14309e-07 2.35987e-09 0)
(-7.9388e-08 -5.40806e-09 0)
(1.08535e-07 -1.01948e-08 0)
(2.49996e-07 1.8934e-09 0)
(-1.66498e-08 1.16893e-08 0)
(-2.52304e-07 6.70201e-10 0)
(-9.49839e-08 -9.91318e-09 0)
(1.27194e-07 -1.04982e-08 0)
(2.89258e-07 5.53916e-09 0)
(-1.90537e-08 1.83683e-08 0)
(-2.91793e-07 3.94127e-09 0)
(-1.11569e-07 -1.01261e-08 0)
(1.46961e-07 -1.69472e-08 0)
(3.30106e-07 3.54603e-09 0)
(-2.15084e-08 1.98813e-08 0)
(-3.32845e-07 1.51839e-09 0)
(-1.29188e-07 -1.64699e-08 0)
(1.67873e-07 -1.80417e-08 0)
(3.72601e-07 7.76615e-09 0)
(-2.40161e-08 2.81094e-08 0)
(-3.7552e-07 5.24794e-09 0)
(-1.47871e-07 -1.74421e-08 0)
(1.89983e-07 -2.69158e-08 0)
(4.16823e-07 4.76274e-09 0)
(-2.658e-08 2.96417e-08 0)
(-4.19894e-07 1.6924e-09 0)
(-1.67667e-07 -2.61774e-08 0)
(2.13331e-07 -2.39203e-08 0)
(4.62835e-07 1.46293e-08 0)
(-2.92027e-08 4.46335e-08 0)
(-4.66032e-07 1.09345e-08 0)
(-1.88612e-07 -2.30235e-08 0)
(2.37977e-07 -1.84085e-08 0)
(5.10728e-07 2.76926e-08 0)
(-3.18879e-08 6.34692e-08 0)
(-5.14021e-07 2.33103e-08 0)
(-2.10758e-07 -1.73338e-08 0)
(2.63965e-07 -3.43493e-09 0)
(5.60573e-07 5.1432e-08 0)
(-3.46383e-08 9.35937e-08 0)
(-5.63931e-07 4.62957e-08 0)
(-2.34145e-07 -2.15694e-09 0)
(2.91363e-07 -1.11372e-07 0)
(6.12468e-07 -4.75101e-08 0)
(-3.74579e-08 1.36732e-09 0)
(-6.15857e-07 -5.3455e-08 0)
(-2.58834e-07 -1.09875e-07 0)
(3.20211e-07 -5.3094e-07 0)
(6.66479e-07 -4.58498e-07 0)
(-4.03497e-08 -4.03462e-07 0)
(-6.69864e-07 -4.65218e-07 0)
(-2.84859e-07 -5.29225e-07 0)
(3.50562e-07 -9.50432e-07 0)
(7.22678e-07 -8.69639e-07 0)
(-4.33163e-08 -8.08951e-07 0)
(-7.26021e-07 -8.77088e-07 0)
(-3.12267e-07 -9.48499e-07 0)
(3.82474e-07 1.5554e-06 0)
(7.81147e-07 1.65792e-06 0)
(-4.62695e-08 1.73328e-06 0)
(-7.84303e-07 1.64886e-06 0)
(-3.41096e-07 1.55776e-06 0)
(4.16192e-07 1.24738e-05 0)
(8.4214e-07 1.26398e-05 0)
(-4.96076e-08 1.27628e-05 0)
(-8.45395e-07 1.26259e-05 0)
(-3.71623e-07 1.24773e-05 0)
(4.52332e-07 2.29141e-05 0)
(9.06646e-07 2.3192e-05 0)
(-5.30289e-08 2.34074e-05 0)
(-9.09924e-07 2.3169e-05 0)
(-4.04402e-07 2.29196e-05 0)
(4.914e-07 -4.43157e-05 0)
(9.7695e-07 -4.43292e-05 0)
(-5.59897e-08 -4.43291e-05 0)
(-9.79644e-07 -4.43316e-05 0)
(-4.39952e-07 -4.43145e-05 0)
(5.27354e-07 -0.00032384 0)
(1.04165e-06 -0.000324357 0)
(-5.87261e-08 -0.000324758 0)
(-1.04379e-06 -0.00032432 0)
(-4.72606e-07 -0.000323847 0)
(5.31899e-07 -0.000761342 0)
(1.04971e-06 -0.000761147 0)
(-5.90471e-08 -0.000761022 0)
(-1.0518e-06 -0.00076116 0)
(-4.76766e-07 -0.000761339 0)
(5.16532e-07 -0.00175662 0)
(1.0181e-06 -0.00175625 0)
(-5.70412e-08 -0.001756 0)
(-1.02061e-06 -0.00175628 0)
(-4.63931e-07 -0.00175662 0)
(4.92679e-07 -0.00109205 0)
(9.72485e-07 -0.00109216 0)
(-5.45472e-08 -0.00109224 0)
(-9.75516e-07 -0.00109216 0)
(-4.43168e-07 -0.00109205 0)
(4.69629e-07 -0.00101461 0)
(9.28142e-07 -0.00101467 0)
(-5.21147e-08 -0.00101473 0)
(-9.31663e-07 -0.00101467 0)
(-4.23107e-07 -0.00101461 0)
(4.47736e-07 -0.00102872 0)
(8.85787e-07 -0.00102872 0)
(-4.97774e-08 -0.00102874 0)
(-8.89763e-07 -0.00102872 0)
(-4.04059e-07 -0.00102872 0)
(4.26632e-07 -0.0010475 0)
(8.44911e-07 -0.00104747 0)
(-4.75215e-08 -0.00104747 0)
(-8.4931e-07 -0.00104748 0)
(-3.85677e-07 -0.0010475 0)
(4.06089e-07 -0.00105147 0)
(8.05138e-07 -0.00105143 0)
(-4.5333e-08 -0.00105142 0)
(-8.09932e-07 -0.00105143 0)
(-3.67748e-07 -0.00105147 0)
(3.86096e-07 -0.00105072 0)
(7.6643e-07 -0.00105067 0)
(-4.3209e-08 -0.00105065 0)
(-7.71593e-07 -0.00105067 0)
(-3.50268e-07 -0.00105072 0)
(3.66675e-07 -0.00104998 0)
(7.28813e-07 -0.00104992 0)
(-4.11492e-08 -0.00104988 0)
(-7.34319e-07 -0.00104992 0)
(-3.33259e-07 -0.00104998 0)
(3.47831e-07 -0.00104983 0)
(6.92292e-07 -0.00104975 0)
(-3.91534e-08 -0.00104971 0)
(-6.98114e-07 -0.00104975 0)
(-3.16728e-07 -0.00104983 0)
(3.29556e-07 -0.00104987 0)
(6.56857e-07 -0.00104978 0)
(-3.72206e-08 -0.00104972 0)
(-6.6297e-07 -0.00104978 0)
(-3.00669e-07 -0.00104987 0)
(3.11843e-07 -0.00104991 0)
(6.22496e-07 -0.0010498 0)
(-3.53501e-08 -0.00104974 0)
(-6.28875e-07 -0.00104981 0)
(-2.85076e-07 -0.00104991 0)
(2.94686e-07 -0.00104993 0)
(5.89197e-07 -0.00104981 0)
(-3.35408e-08 -0.00104974 0)
(-5.95818e-07 -0.00104982 0)
(-2.69948e-07 -0.00104993 0)
(2.78078e-07 -0.00104994 0)
(5.56948e-07 -0.0010498 0)
(-3.17918e-08 -0.00104972 0)
(-5.63788e-07 -0.00104981 0)
(-2.55278e-07 -0.00104993 0)
(2.62015e-07 -0.00104994 0)
(5.25738e-07 -0.0010498 0)
(-3.01021e-08 -0.00104971 0)
(-5.32775e-07 -0.00104981 0)
(-2.41064e-07 -0.00104994 0)
(2.46488e-07 -0.00104995 0)
(4.95554e-07 -0.00104979 0)
(-2.84708e-08 -0.0010497 0)
(-5.02766e-07 -0.00104981 0)
(-2.273e-07 -0.00104995 0)
(2.31491e-07 -0.00104996 0)
(4.66385e-07 -0.00104979 0)
(-2.68969e-08 -0.00104969 0)
(-4.7375e-07 -0.0010498 0)
(-2.13983e-07 -0.00104996 0)
(2.17017e-07 -0.00104997 0)
(4.38217e-07 -0.00104979 0)
(-2.53793e-08 -0.00104968 0)
(-4.45714e-07 -0.0010498 0)
(-2.01107e-07 -0.00104996 0)
(2.0306e-07 -0.00104997 0)
(4.11036e-07 -0.00104979 0)
(-2.39171e-08 -0.00104967 0)
(-4.18646e-07 -0.0010498 0)
(-1.88668e-07 -0.00104997 0)
(1.8961e-07 -0.00104998 0)
(3.84828e-07 -0.00104978 0)
(-2.25093e-08 -0.00104966 0)
(-3.92533e-07 -0.0010498 0)
(-1.76659e-07 -0.00104998 0)
(1.76662e-07 -0.00104999 0)
(3.59581e-07 -0.00104978 0)
(-2.11547e-08 -0.00104965 0)
(-3.67361e-07 -0.0010498 0)
(-1.65077e-07 -0.00104998 0)
(1.64207e-07 -0.00104999 0)
(3.35279e-07 -0.00104978 0)
(-1.98525e-08 -0.00104965 0)
(-3.43115e-07 -0.0010498 0)
(-1.53915e-07 -0.00104999 0)
(1.52237e-07 -0.00105 0)
(3.11906e-07 -0.00104978 0)
(-1.86015e-08 -0.00104964 0)
(-3.19784e-07 -0.00104979 0)
(-1.43167e-07 -0.00104999 0)
(1.40745e-07 -0.00105 0)
(2.8945e-07 -0.00104978 0)
(-1.74006e-08 -0.00104963 0)
(-2.97351e-07 -0.00104979 0)
(-1.32828e-07 -0.00105 0)
(1.29721e-07 -0.00105001 0)
(2.67892e-07 -0.00104977 0)
(-1.62489e-08 -0.00104963 0)
(-2.75802e-07 -0.00104979 0)
(-1.22891e-07 -0.00105 0)
(1.19158e-07 -0.00105001 0)
(2.47219e-07 -0.00104977 0)
(-1.51452e-08 -0.00104962 0)
(-2.55122e-07 -0.00104979 0)
(-1.13351e-07 -0.00105001 0)
(1.09048e-07 -0.00105001 0)
(2.27414e-07 -0.00104977 0)
(-1.40885e-08 -0.00104961 0)
(-2.35296e-07 -0.00104979 0)
(-1.04201e-07 -0.00105001 0)
(9.93803e-08 -0.00105002 0)
(2.08461e-07 -0.00104977 0)
(-1.30777e-08 -0.00104961 0)
(-2.16307e-07 -0.00104979 0)
(-9.54343e-08 -0.00105001 0)
(9.01479e-08 -0.00105002 0)
(1.90342e-07 -0.00104977 0)
(-1.21117e-08 -0.0010496 0)
(-1.98142e-07 -0.00104979 0)
(-8.70443e-08 -0.00105002 0)
(8.13413e-08 -0.00105003 0)
(1.73042e-07 -0.00104977 0)
(-1.11895e-08 -0.0010496 0)
(-1.80782e-07 -0.00104979 0)
(-7.90241e-08 -0.00105002 0)
(7.29516e-08 -0.00105003 0)
(1.56544e-07 -0.00104977 0)
(-1.03101e-08 -0.0010496 0)
(-1.64212e-07 -0.00104979 0)
(-7.13669e-08 -0.00105002 0)
(6.49697e-08 -0.00105003 0)
(1.4083e-07 -0.00104977 0)
(-9.47219e-09 -0.00104959 0)
(-1.48416e-07 -0.00104978 0)
(-6.40655e-08 -0.00105003 0)
(5.73864e-08 -0.00105003 0)
(1.25883e-07 -0.00104976 0)
(-8.67489e-09 -0.00104959 0)
(-1.33377e-07 -0.00104978 0)
(-5.71127e-08 -0.00105003 0)
(5.01924e-08 -0.00105004 0)
(1.11685e-07 -0.00104976 0)
(-7.91706e-09 -0.00104959 0)
(-1.19077e-07 -0.00104978 0)
(-5.05013e-08 -0.00105003 0)
(4.33783e-08 -0.00105004 0)
(9.82188e-08 -0.00104976 0)
(-7.19766e-09 -0.00104958 0)
(-1.055e-07 -0.00104978 0)
(-4.42237e-08 -0.00105003 0)
(3.69347e-08 -0.00105004 0)
(8.54663e-08 -0.00104976 0)
(-6.51562e-09 -0.00104958 0)
(-9.26286e-08 -0.00104978 0)
(-3.82726e-08 -0.00105004 0)
(3.08522e-08 -0.00105004 0)
(7.34095e-08 -0.00104976 0)
(-5.86988e-09 -0.00104958 0)
(-8.04453e-08 -0.00104978 0)
(-3.26401e-08 -0.00105004 0)
(2.51211e-08 -0.00105004 0)
(6.20303e-08 -0.00104976 0)
(-5.25939e-09 -0.00104958 0)
(-6.89326e-08 -0.00104978 0)
(-2.73186e-08 -0.00105004 0)
(1.97319e-08 -0.00105004 0)
(5.13105e-08 -0.00104976 0)
(-4.6831e-09 -0.00104957 0)
(-5.8073e-08 -0.00104978 0)
(-2.23003e-08 -0.00105004 0)
(1.46748e-08 -0.00105004 0)
(4.12317e-08 -0.00104976 0)
(-4.13998e-09 -0.00104957 0)
(-4.78487e-08 -0.00104978 0)
(-1.75774e-08 -0.00105004 0)
(9.94017e-09 -0.00105004 0)
(3.17754e-08 -0.00104976 0)
(-3.629e-09 -0.00104957 0)
(-3.82419e-08 -0.00104978 0)
(-1.31417e-08 -0.00105004 0)
(5.51829e-09 -0.00105005 0)
(2.29233e-08 -0.00104976 0)
(-3.14914e-09 -0.00104957 0)
(-2.92346e-08 -0.00104978 0)
(-8.98543e-09 -0.00105004 0)
(1.39938e-09 -0.00105005 0)
(1.46567e-08 -0.00104976 0)
(-2.69937e-09 -0.00104957 0)
(-2.0809e-08 -0.00104978 0)
(-5.10035e-09 -0.00105004 0)
(-2.42636e-09 -0.00105005 0)
(6.95705e-09 -0.00104976 0)
(-2.27869e-09 -0.00104957 0)
(-1.29469e-08 -0.00104978 0)
(-1.47834e-09 -0.00105004 0)
(-5.96874e-09 -0.00105005 0)
(-1.94335e-10 -0.00104976 0)
(-1.88611e-09 -0.00104957 0)
(-5.63024e-09 -0.00104978 0)
(1.8888e-09 -0.00105004 0)
(-9.2376e-09 -0.00105005 0)
(-6.81614e-09 -0.00104976 0)
(-1.52063e-09 -0.00104957 0)
(1.15909e-09 -0.00104978 0)
(5.00933e-09 -0.00105004 0)
(-1.22428e-08 -0.00105005 0)
(-1.29271e-08 -0.00104976 0)
(-1.18127e-09 -0.00104957 0)
(7.43929e-09 -0.00104978 0)
(7.89155e-09 -0.00105004 0)
(-1.49941e-08 -0.00105004 0)
(-1.85459e-08 -0.00104976 0)
(-8.67072e-10 -0.00104957 0)
(1.32286e-08 -0.00104978 0)
(1.05438e-08 -0.00105004 0)
(-1.75015e-08 -0.00105004 0)
(-2.36913e-08 -0.00104976 0)
(-5.77063e-10 -0.00104957 0)
(1.85452e-08 -0.00104978 0)
(1.29745e-08 -0.00105004 0)
(-1.97748e-08 -0.00105004 0)
(-2.83821e-08 -0.00104976 0)
(-3.10294e-10 -0.00104957 0)
(2.34074e-08 -0.00104978 0)
(1.51921e-08 -0.00105004 0)
(-2.18238e-08 -0.00105004 0)
(-3.2637e-08 -0.00104976 0)
(-6.58223e-11 -0.00104957 0)
(2.78335e-08 -0.00104978 0)
(1.72049e-08 -0.00105004 0)
(-2.36585e-08 -0.00105004 0)
(-3.64749e-08 -0.00104976 0)
(1.57287e-10 -0.00104957 0)
(3.18417e-08 -0.00104978 0)
(1.90216e-08 -0.00105004 0)
(-2.52888e-08 -0.00105004 0)
(-3.99145e-08 -0.00104976 0)
(3.5996e-10 -0.00104957 0)
(3.54505e-08 -0.00104978 0)
(2.06507e-08 -0.00105004 0)
(-2.67246e-08 -0.00105004 0)
(-4.29746e-08 -0.00104976 0)
(5.43116e-10 -0.00104958 0)
(3.86782e-08 -0.00104978 0)
(2.21007e-08 -0.00105004 0)
(-2.79757e-08 -0.00105004 0)
(-4.56741e-08 -0.00104976 0)
(7.07666e-10 -0.00104958 0)
(4.15431e-08 -0.00104978 0)
(2.33803e-08 -0.00105004 0)
(-2.90522e-08 -0.00105004 0)
(-4.80318e-08 -0.00104976 0)
(8.54516e-10 -0.00104958 0)
(4.40637e-08 -0.00104978 0)
(2.44982e-08 -0.00105004 0)
(-2.9964e-08 -0.00105004 0)
(-5.00666e-08 -0.00104976 0)
(9.84567e-10 -0.00104958 0)
(4.62585e-08 -0.00104978 0)
(2.5463e-08 -0.00105004 0)
(-3.07211e-08 -0.00105003 0)
(-5.17975e-08 -0.00104976 0)
(1.09871e-09 -0.00104958 0)
(4.8146e-08 -0.00104978 0)
(2.62836e-08 -0.00105003 0)
(-3.13335e-08 -0.00105003 0)
(-5.32434e-08 -0.00104976 0)
(1.19785e-09 -0.00104958 0)
(4.97447e-08 -0.00104979 0)
(2.69688e-08 -0.00105003 0)
(-3.18115e-08 -0.00105003 0)
(-5.44235e-08 -0.00104977 0)
(1.28288e-09 -0.00104959 0)
(5.10735e-08 -0.00104979 0)
(2.75275e-08 -0.00105003 0)
(-3.21652e-08 -0.00105003 0)
(-5.53571e-08 -0.00104977 0)
(1.35468e-09 -0.00104959 0)
(5.21511e-08 -0.00104979 0)
(2.79686e-08 -0.00105003 0)
(-3.24048e-08 -0.00105003 0)
(-5.60633e-08 -0.00104977 0)
(1.41416e-09 -0.00104959 0)
(5.29965e-08 -0.00104979 0)
(2.83014e-08 -0.00105003 0)
(-3.25409e-08 -0.00105003 0)
(-5.65619e-08 -0.00104977 0)
(1.46221e-09 -0.00104959 0)
(5.36288e-08 -0.00104979 0)
(2.85351e-08 -0.00105003 0)
(-3.25838e-08 -0.00105003 0)
(-5.68726e-08 -0.00104977 0)
(1.49976e-09 -0.00104959 0)
(5.40674e-08 -0.00104979 0)
(2.86788e-08 -0.00105003 0)
(-3.25444e-08 -0.00105002 0)
(-5.70152e-08 -0.00104977 0)
(1.52771e-09 -0.0010496 0)
(5.4332e-08 -0.00104979 0)
(2.87423e-08 -0.00105002 0)
(-3.24334e-08 -0.00105002 0)
(-5.70103e-08 -0.00104977 0)
(1.54701e-09 -0.0010496 0)
(5.44423e-08 -0.00104979 0)
(2.8735e-08 -0.00105002 0)
(-3.22621e-08 -0.00105002 0)
(-5.68783e-08 -0.00104977 0)
(1.55861e-09 -0.0010496 0)
(5.44187e-08 -0.00104979 0)
(2.86669e-08 -0.00105002 0)
(-3.20417e-08 -0.00105002 0)
(-5.66404e-08 -0.00104977 0)
(1.56348e-09 -0.0010496 0)
(5.42817e-08 -0.00104979 0)
(2.85481e-08 -0.00105002 0)
(-3.1784e-08 -0.00105002 0)
(-5.63181e-08 -0.00104977 0)
(1.56263e-09 -0.0010496 0)
(5.40527e-08 -0.00104979 0)
(2.83889e-08 -0.00105002 0)
(-3.1501e-08 -0.00105002 0)
(-5.59336e-08 -0.00104977 0)
(1.5571e-09 -0.00104961 0)
(5.37531e-08 -0.00104979 0)
(2.81999e-08 -0.00105002 0)
(-3.1205e-08 -0.00105001 0)
(-5.55096e-08 -0.00104977 0)
(1.54795e-09 -0.00104961 0)
(5.34054e-08 -0.00104979 0)
(2.79923e-08 -0.00105002 0)
(-3.0909e-08 -0.00105001 0)
(-5.50697e-08 -0.00104977 0)
(1.53631e-09 -0.00104961 0)
(5.30326e-08 -0.00104979 0)
(2.77772e-08 -0.00105001 0)
(-3.06263e-08 -0.00105001 0)
(-5.46381e-08 -0.00104977 0)
(1.52335e-09 -0.00104961 0)
(5.26583e-08 -0.00104979 0)
(2.75665e-08 -0.00105001 0)
(-3.03708e-08 -0.00105001 0)
(-5.424e-08 -0.00104977 0)
(1.51029e-09 -0.00104961 0)
(5.23073e-08 -0.00104979 0)
(2.73724e-08 -0.00105001 0)
(-3.0158e-08 -0.00105001 0)
(-5.39032e-08 -0.00104977 0)
(1.49847e-09 -0.00104962 0)
(5.20067e-08 -0.00104979 0)
(2.72085e-08 -0.00105001 0)
(-3.0006e-08 -0.00105001 0)
(-5.36597e-08 -0.00104978 0)
(1.48942e-09 -0.00104962 0)
(5.17878e-08 -0.00104979 0)
(2.70906e-08 -0.00105001 0)
(-2.99323e-08 -0.00105 0)
(-5.35406e-08 -0.00104978 0)
(1.48467e-09 -0.00104962 0)
(5.16809e-08 -0.00104979 0)
(2.70341e-08 -0.00105001 0)
)
;

boundaryField
{
    BotWall
    {
        type            fixedValue;
        value           uniform (0 0 0);
    }
    FreeStream
    {
        type            zeroGradient;
    }
    FrontNBack
    {
        type            empty;
    }
    LeftSide
    {
        type            symmetryPlane;
    }
    RightSide
    {
        type            symmetryPlane;
    }
}


// ************************************************************************* //
