/*--------------------------------*- C++ -*----------------------------------*\
| =========                 |                                                 |
| \\      /  F ield         | OpenFOAM: The Open Source CFD Toolbox           |
|  \\    /   O peration     | Version:  2.4.0                                 |
|   \\  /    A nd           | Web:      www.OpenFOAM.org                      |
|    \\/     M anipulation  |                                                 |
\*---------------------------------------------------------------------------*/
FoamFile
{
    version     2.0;
    format      ascii;
    class       volScalarField;
    location    "0.002";
    object      alpha1;
}
// * * * * * * * * * * * * * * * * * * * * * * * * * * * * * * * * * * * * * //

dimensions      [0 0 0 0 0 0 0];

internalField   nonuniform List<scalar> 
125
(
0.99998
0.471592
5.5131e-52
5.58513e-58
5.65806e-64
6.17325e-70
6.74688e-76
6.75927e-82
5.9441e-88
4.53261e-94
2.99519e-100
1.71824e-106
8.56431e-113
3.70419e-119
1.38467e-125
4.44129e-132
1.20872e-138
2.7461e-145
5.08708e-152
7.42128e-159
8.07743e-166
5.9798e-173
2.4914e-180
3.28509e-188
0
0
0
0
0
0
0
0
0
0
0
0
0
0
0
0
0
0
0
0
0
0
0
0
0
0
0
0
0
0
0
0
0
0
0
0
0
0
0
0
0
0
0
0
0
0
0
0
0
0
0
0
0
0
0
0
0
0
0
0
0
0
0
0
0
0
0
0
0
0
0
0
0
0
0
0
0
0
0
0
0
0
0
0
0
0
0
0
0
0
0
0
0
0
0
0
0
0
0
0
0
)
;

boundaryField
{
    BotWall
    {
        type            fixedValue;
        value           uniform 1;
    }
    FreeStream
    {
        type            inletOutlet;
        inletValue      uniform 0;
        value           uniform 0;
    }
    FrontNBack
    {
        type            empty;
    }
    LeftSide
    {
        type            symmetryPlane;
    }
    RightSide
    {
        type            symmetryPlane;
    }
    procBoundary4to1
    {
        type            processor;
        value           uniform 0;
    }
    procBoundary4to2
    {
        type            processor;
        value           nonuniform List<scalar> 
75
(
1.00001
0.454494
1.72092e-55
7.18249e-62
3.86821e-68
3.16286e-74
3.43137e-80
3.77831e-86
3.81679e-92
3.34179e-98
2.49091e-104
1.59455e-110
8.69273e-117
4.04912e-123
1.60957e-129
5.43687e-136
1.54882e-142
3.65974e-149
7.0101e-156
1.05153e-162
1.17194e-169
8.84492e-177
3.74379e-184
5.00033e-192
0
0
0
0
0
0
0
0
0
0
0
0
0
0
0
0
0
0
0
0
0
0
0
0
0
0
0
0
0
0
0
0
0
0
0
0
0
0
0
0
0
0
0
0
0
0
0
0
0
0
0
)
;
    }
    procBoundary4to3
    {
        type            processor;
        value           uniform 0;
    }
    procBoundary4to5
    {
        type            processor;
        value           uniform 0;
    }
    procBoundary4to6
    {
        type            processor;
        value           uniform 0;
    }
    procBoundary4to7
    {
        type            processor;
        value           nonuniform List<scalar> 
50
(
1.00001
0.4721
1.55006e-54
9.48097e-61
6.03007e-67
4.84014e-73
4.42595e-79
3.94239e-85
3.17633e-91
2.26704e-97
1.41656e-103
7.76332e-110
3.71286e-116
1.54422e-122
5.56757e-129
1.72664e-135
4.55688e-142
1.00732e-148
1.81958e-155
2.59264e-162
2.762e-169
2.00434e-176
8.19616e-184
1.06214e-191
0
0
0
0
0
0
0
0
0
0
0
0
0
0
0
0
0
0
0
0
0
0
0
0
0
0
)
;
    }
}


// ************************************************************************* //
