/*--------------------------------*- C++ -*----------------------------------*\
| =========                 |                                                 |
| \\      /  F ield         | OpenFOAM: The Open Source CFD Toolbox           |
|  \\    /   O peration     | Version:  2.4.0                                 |
|   \\  /    A nd           | Web:      www.OpenFOAM.org                      |
|    \\/     M anipulation  |                                                 |
\*---------------------------------------------------------------------------*/
FoamFile
{
    version     2.0;
    format      ascii;
    class       volScalarField;
    location    "0.015";
    object      alpha1;
}
// * * * * * * * * * * * * * * * * * * * * * * * * * * * * * * * * * * * * * //

dimensions      [0 0 0 0 0 0 0];

internalField   nonuniform List<scalar> 
125
(
1
1
1
1
0.330344
1.40058e-145
2.33709e-151
3.92328e-157
6.00669e-163
8.11414e-169
9.55719e-175
9.80529e-181
8.73709e-187
6.74644e-193
4.49734e-199
2.56929e-205
1.24404e-211
5.02345e-218
1.65114e-224
4.26633e-231
8.21041e-238
1.07252e-244
7.86886e-252
1.82369e-259
0
0
0
0
0
0
0
0
0
0
0
0
0
0
0
0
0
0
0
0
0
0
0
0
0
0
0
0
0
0
0
0
0
0
0
0
0
0
0
0
0
0
0
0
0
0
0
0
0
0
0
0
0
0
0
0
0
0
0
0
0
0
0
0
0
0
0
0
0
0
0
0
0
0
0
0
0
0
0
0
0
0
0
0
0
0
0
0
0
0
0
0
0
0
0
0
0
0
0
0
0
)
;

boundaryField
{
    BotWall
    {
        type            fixedValue;
        value           uniform 1;
    }
    FreeStream
    {
        type            inletOutlet;
        inletValue      uniform 0;
        value           uniform 0;
    }
    FrontNBack
    {
        type            empty;
    }
    LeftSide
    {
        type            symmetryPlane;
    }
    RightSide
    {
        type            symmetryPlane;
    }
    procBoundary7to4
    {
        type            processor;
        value           nonuniform List<scalar> 
50
(
1
1
1
1
0.3299
9.01018e-143
1.82517e-148
3.38125e-154
5.48578e-160
7.69967e-166
9.34363e-172
9.82068e-178
8.94784e-184
7.05811e-190
4.80083e-196
2.79549e-202
1.37804e-208
5.65796e-215
1.88988e-221
4.96011e-228
9.69081e-235
1.28493e-241
9.5671e-249
2.24943e-256
0
0
0
0
0
0
0
0
0
0
0
0
0
0
0
0
0
0
0
0
0
0
0
0
0
0
)
;
    }
    procBoundary7to5
    {
        type            processor;
        value           uniform 0;
    }
    procBoundary7to6
    {
        type            processor;
        value           uniform 0;
    }
    procBoundary7to8
    {
        type            processor;
        value           uniform 0;
    }
    procBoundary7to9
    {
        type            processor;
        value           nonuniform List<scalar> 
75
(
1
1
1
1
0.323021
4.77241e-144
3.44751e-150
2.46602e-156
1.62998e-162
9.27581e-169
4.52183e-175
1.94081e-181
6.92814e-188
2.06463e-194
5.26791e-201
1.24833e-207
3.19027e-214
9.40726e-221
2.79415e-227
7.06048e-234
1.35522e-240
1.7711e-247
1.29986e-254
3.01274e-262
0
0
0
0
0
0
0
0
0
0
0
0
0
0
0
0
0
0
0
0
0
0
0
0
0
0
0
0
0
0
0
0
0
0
0
0
0
0
0
0
0
0
0
0
0
0
0
0
0
0
0
)
;
    }
    procBoundary7to10
    {
        type            processor;
        value           uniform 0;
    }
}


// ************************************************************************* //
