/*--------------------------------*- C++ -*----------------------------------*\
| =========                 |                                                 |
| \\      /  F ield         | OpenFOAM: The Open Source CFD Toolbox           |
|  \\    /   O peration     | Version:  2.4.0                                 |
|   \\  /    A nd           | Web:      www.OpenFOAM.org                      |
|    \\/     M anipulation  |                                                 |
\*---------------------------------------------------------------------------*/
FoamFile
{
    version     2.0;
    format      ascii;
    class       volScalarField;
    location    "0.015";
    object      H;
}
// * * * * * * * * * * * * * * * * * * * * * * * * * * * * * * * * * * * * * //

dimensions      [0 2 -2 0 0 0 0];

internalField   nonuniform List<scalar> 
125
(
-11002.5
-8541.26
-6065.58
-3571.84
-120.83
-91.2484
-92.2023
-93.0062
-93.6613
-94.1691
-94.5318
-94.7515
-94.831
-94.7732
-94.5813
-94.2591
-93.8104
-93.2392
-92.55
-91.7474
-90.8362
-89.8214
-88.7082
-87.502
-86.2081
-0.0004306
-0.000381143
-0.000337086
-0.00029787
-0.000262993
-0.000232002
-0.000204487
-0.000180079
-0.000158446
-0.000139288
-0.000122339
-0.000107355
-9.41215e-05
-8.24441e-05
-7.2149e-05
-6.30809e-05
-5.51009e-05
-4.8085e-05
-4.19224e-05
-3.65144e-05
-3.17732e-05
-2.76205e-05
-2.39868e-05
-2.08104e-05
-1.80364e-05
-1.56163e-05
-1.3507e-05
-1.16705e-05
-1.00732e-05
-8.68532e-06
-7.48071e-06
-6.43624e-06
-5.53158e-06
-4.74889e-06
-4.07245e-06
-3.48847e-06
-2.98486e-06
-2.55108e-06
-2.17782e-06
-1.85706e-06
-1.58167e-06
-1.34557e-06
-1.14333e-06
-9.70348e-07
-8.22533e-07
-6.96407e-07
-5.889e-07
-4.97356e-07
-4.19534e-07
-3.53447e-07
-2.97382e-07
-2.4991e-07
-2.09745e-07
-1.75794e-07
-1.47159e-07
-1.23033e-07
-1.02717e-07
-8.5639e-08
-7.13059e-08
-5.93002e-08
-4.92431e-08
-4.0837e-08
-3.38152e-08
-2.79698e-08
-2.31006e-08
-1.90435e-08
-1.56881e-08
-1.28978e-08
-1.05981e-08
-8.6798e-09
-7.10444e-09
-5.82312e-09
-4.72775e-09
-3.87866e-09
-3.15608e-09
-2.53695e-09
-2.05771e-09
-1.70022e-09
-1.36116e-09
-1.08968e-09
-8.74125e-10
-7.3875e-10
-5.6766e-10
-4.66118e-10
-3.62125e-10
-2.99597e-10
-2.61534e-10
-1.67195e-10
-1.54133e-10
-1.58215e-10
-6.92001e-11
-5.18038e-11
-5.28852e-11
-5.04609e-11
-5.39e-11
-5.00785e-11
-5.06967e-11
-5.20699e-11
-2.28465e-11
2.71072e-12
)
;

boundaryField
{
    BotWall
    {
        type            zeroGradient;
    }
    FreeStream
    {
        type            zeroGradient;
    }
    FrontNBack
    {
        type            empty;
    }
    LeftSide
    {
        type            symmetryPlane;
    }
    RightSide
    {
        type            symmetryPlane;
    }
    procBoundary7to4
    {
        type            processor;
        value           nonuniform List<scalar> 
50
(
-11002.6
-8541.58
-6066.11
-3572.57
-120.975
-91.3569
-92.3065
-93.1059
-93.7563
-94.2593
-94.6169
-94.8314
-94.9055
-94.8421
-94.6446
-94.3165
-93.8617
-93.2845
-92.5891
-91.7802
-90.8626
-89.8414
-88.7218
-87.5091
-86.2088
-2.6407e-09
-2.13246e-09
-1.74218e-09
-1.39545e-09
-1.13846e-09
-8.97257e-10
-7.78361e-10
-5.82446e-10
-4.68543e-10
-3.63149e-10
-3.32942e-10
-2.59805e-10
-1.78221e-10
-1.59075e-10
-1.53516e-10
-8.54597e-11
-5.26588e-11
-5.18085e-11
-5.23958e-11
-5.14244e-11
-5.11019e-11
-4.9824e-11
-5.19276e-11
-2.94904e-11
1.75198e-12
)
;
    }
    procBoundary7to5
    {
        type            processor;
        value           nonuniform List<scalar> 
75
(
-0.000439246
-0.00038885
-0.000343948
-0.000303975
-0.000268419
-0.000236821
-0.000208762
-0.000183869
-0.000161802
-0.000142258
-0.000124964
-0.000109674
-9.61674e-05
-8.42477e-05
-7.37376e-05
-6.44788e-05
-5.63299e-05
-4.91644e-05
-4.28696e-05
-3.73448e-05
-3.25005e-05
-2.82569e-05
-2.45431e-05
-2.12962e-05
-1.84603e-05
-1.59857e-05
-1.38287e-05
-1.19503e-05
-1.03163e-05
-8.89642e-06
-7.66375e-06
-6.59479e-06
-5.66879e-06
-4.86751e-06
-4.17486e-06
-3.5768e-06
-3.06098e-06
-2.61658e-06
-2.23416e-06
-1.90538e-06
-1.62315e-06
-1.3811e-06
-1.17373e-06
-9.96324e-07
-8.44713e-07
-7.15313e-07
-6.04978e-07
-5.11044e-07
-4.31173e-07
-3.63304e-07
-3.05736e-07
-2.5698e-07
-2.15705e-07
-1.80834e-07
-1.51401e-07
-1.26605e-07
-1.05715e-07
-8.81497e-08
-7.34214e-08
-6.10721e-08
-5.07151e-08
-4.20655e-08
-3.48429e-08
-2.88214e-08
-2.38106e-08
-1.96287e-08
-1.6179e-08
-1.3299e-08
-1.09281e-08
-8.95898e-09
-7.33144e-09
-5.98948e-09
-4.90867e-09
-3.9801e-09
-3.25798e-09
)
;
    }
    procBoundary7to6
    {
        type            processor;
        value           uniform -84.8286;
    }
    procBoundary7to8
    {
        type            processor;
        value           uniform -0.000486082;
    }
    procBoundary7to9
    {
        type            processor;
        value           nonuniform List<scalar> 
75
(
-11004.3
-8546.52
-6074.3
-3583.93
-123.274
-93.1288
-94.1037
-94.9229
-95.5876
-96.0996
-96.461
-96.6742
-96.7421
-96.6677
-96.4545
-96.1063
-95.6273
-95.0217
-94.2943
-93.4498
-92.4933
-91.4302
-90.2658
-89.0059
-87.656
-3.00633e-07
-2.52644e-07
-2.12047e-07
-1.7775e-07
-1.48799e-07
-1.2442e-07
-1.03871e-07
-8.66225e-08
-7.21248e-08
-5.9984e-08
-4.98176e-08
-4.13101e-08
-3.42145e-08
-2.82997e-08
-2.33717e-08
-1.92769e-08
-1.58736e-08
-1.30545e-08
-1.07198e-08
-8.79159e-09
-7.19895e-09
-5.87655e-09
-4.80985e-09
-3.913e-09
-3.18146e-09
-2.57252e-09
-2.10571e-09
-1.70385e-09
-1.40014e-09
-1.08814e-09
-8.81333e-10
-7.6136e-10
-5.68194e-10
-4.68668e-10
-3.62999e-10
-3.11009e-10
-2.58722e-10
-1.73326e-10
-1.59675e-10
-1.52139e-10
-7.74515e-11
-5.18829e-11
-4.91624e-11
-5.49544e-11
-4.86834e-11
-5.4244e-11
-5.15823e-11
-5.07636e-11
-2.51188e-11
2.43509e-12
)
;
    }
    procBoundary7to10
    {
        type            processor;
        value           nonuniform List<scalar> 
50
(
-0.000434121
-0.00038428
-0.000339876
-0.000300351
-0.000265197
-0.000233958
-0.000206221
-0.000181615
-0.000159805
-0.00014049
-0.0001234
-0.000108292
-9.49478e-05
-8.3172e-05
-7.27896e-05
-6.36443e-05
-5.55959e-05
-4.85194e-05
-4.23033e-05
-3.68481e-05
-3.20653e-05
-2.78759e-05
-2.42099e-05
-2.10051e-05
-1.82061e-05
-1.57641e-05
-1.36357e-05
-1.17824e-05
-1.01703e-05
-8.76959e-06
-7.55375e-06
-6.49946e-06
-5.58629e-06
-4.79614e-06
-4.11323e-06
-3.52361e-06
-3.01514e-06
-2.57711e-06
-2.2002e-06
-1.87624e-06
-1.59813e-06
-1.35963e-06
-1.15537e-06
-9.80619e-07
-8.3129e-07
-7.03855e-07
-5.95214e-07
-5.02725e-07
-4.24082e-07
-3.57278e-07
)
;
    }
}


// ************************************************************************* //
