/*--------------------------------*- C++ -*----------------------------------*\
| =========                 |                                                 |
| \\      /  F ield         | OpenFOAM: The Open Source CFD Toolbox           |
|  \\    /   O peration     | Version:  2.4.0                                 |
|   \\  /    A nd           | Web:      www.OpenFOAM.org                      |
|    \\/     M anipulation  |                                                 |
\*---------------------------------------------------------------------------*/
FoamFile
{
    version     2.0;
    format      ascii;
    class       volScalarField;
    location    "0.015";
    object      p;
}
// * * * * * * * * * * * * * * * * * * * * * * * * * * * * * * * * * * * * * //

dimensions      [1 -1 -2 0 0 0 0];

internalField   nonuniform List<scalar> 
125
(
0.0301901
0.0383404
-0.0193373
0.108356
-0.661695
-0.0863213
0.0232737
0.00749582
-0.00500495
-0.00763467
-0.00720613
-0.0068978
-0.00697044
-0.007158
-0.00734098
-0.00750979
-0.00767486
-0.00784075
-0.00800784
-0.0081757
-0.00834418
-0.00851325
-0.00868293
-0.00885324
-0.00902417
-0.0513922
-0.0517197
-0.0520484
-0.0523784
-0.0527095
-0.0530419
-0.0533755
-0.0537103
-0.0540464
-0.0543836
-0.0547222
-0.055062
-0.055403
-0.0557453
-0.0560888
-0.0564336
-0.0567797
-0.057127
-0.0574757
-0.0578256
-0.0581768
-0.0585293
-0.0588831
-0.0592382
-0.0595946
-0.0599523
-0.0603113
-0.0606716
-0.0610333
-0.0613963
-0.0617607
-0.0621264
-0.0624934
-0.0628618
-0.0632315
-0.0636026
-0.0639751
-0.0643489
-0.0647241
-0.0651007
-0.0654787
-0.0658581
-0.0662388
-0.066621
-0.0670046
-0.0673896
-0.067776
-0.0681638
-0.0685531
-0.0689437
-0.0693359
-0.0697294
-0.0701245
-0.0705209
-0.0709189
-0.0713182
-0.0717191
-0.0721215
-0.0725253
-0.0729306
-0.0733374
-0.0737457
-0.0741555
-0.0745668
-0.0749796
-0.075394
-0.0758098
-0.0762272
-0.0766462
-0.0770666
-0.0774887
-0.0779122
-0.0783374
-0.0787641
-0.0791924
-0.0796222
-0.0800536
-0.0804867
-0.0809213
-0.0813575
-0.0817953
-0.0822347
-0.0826758
-0.0831185
-0.0835628
-0.0840087
-0.0844563
-0.0849055
-0.0853564
-0.0858089
-0.0862631
-0.086719
-0.0871766
-0.0876358
-0.0880967
-0.0885594
-0.0890237
-0.0894897
-0.0899575
-0.090427
)
;

boundaryField
{
    BotWall
    {
        type            calculated;
        value           uniform 0.0351334;
    }
    FreeStream
    {
        type            calculated;
        value           uniform -0.0906622;
    }
    FrontNBack
    {
        type            empty;
    }
    LeftSide
    {
        type            symmetryPlane;
    }
    RightSide
    {
        type            symmetryPlane;
    }
    procBoundary7to4
    {
        type            processor;
        value           nonuniform List<scalar> 
50
(
0.0302441
0.0383889
-0.0192458
0.108264
-0.66107
-0.0862487
0.0232509
0.00748343
-0.00501007
-0.00763835
-0.00721017
-0.00690212
-0.0069748
-0.00716234
-0.00734531
-0.00751411
-0.00767917
-0.00784506
-0.00801214
-0.00818
-0.00834846
-0.00851753
-0.00868721
-0.00885751
-0.00902845
-0.0796236
-0.080055
-0.0804881
-0.0809227
-0.0813589
-0.0817967
-0.0822361
-0.0826771
-0.0831198
-0.0835641
-0.08401
-0.0844576
-0.0849068
-0.0853577
-0.0858102
-0.0862644
-0.0867203
-0.0871779
-0.0876371
-0.088098
-0.0885607
-0.089025
-0.089491
-0.0899588
-0.0904281
)
;
    }
    procBoundary7to5
    {
        type            processor;
        value           nonuniform List<scalar> 
75
(
-0.0513942
-0.0517217
-0.0520504
-0.0523803
-0.0527115
-0.0530438
-0.0533774
-0.0537122
-0.0540483
-0.0543855
-0.0547241
-0.0550638
-0.0554048
-0.0557471
-0.0560907
-0.0564355
-0.0567815
-0.0571289
-0.0574775
-0.0578274
-0.0581786
-0.0585311
-0.0588848
-0.0592399
-0.0595963
-0.059954
-0.060313
-0.0606734
-0.0610351
-0.0613981
-0.0617624
-0.0621281
-0.0624951
-0.0628635
-0.0632332
-0.0636043
-0.0639767
-0.0643506
-0.0647258
-0.0651024
-0.0654803
-0.0658597
-0.0662405
-0.0666226
-0.0670062
-0.0673912
-0.0677776
-0.0681654
-0.0685546
-0.0689453
-0.0693374
-0.069731
-0.070126
-0.0705225
-0.0709204
-0.0713198
-0.0717206
-0.072123
-0.0725268
-0.0729321
-0.0733389
-0.0737472
-0.074157
-0.0745683
-0.0749811
-0.0753954
-0.0758113
-0.0762287
-0.0766476
-0.0770681
-0.0774901
-0.0779137
-0.0783388
-0.0787655
-0.0791938
)
;
    }
    procBoundary7to6
    {
        type            processor;
        value           uniform -0.00919572;
    }
    procBoundary7to8
    {
        type            processor;
        value           uniform -0.0510659;
    }
    procBoundary7to9
    {
        type            processor;
        value           nonuniform List<scalar> 
75
(
0.0294194
0.0374672
-0.0194948
0.105105
-0.651909
-0.085044
0.0229724
0.00736623
-0.00501426
-0.00762011
-0.0071976
-0.00689383
-0.00696731
-0.00715463
-0.00733743
-0.00750621
-0.00767127
-0.00783717
-0.00800425
-0.00817211
-0.00834058
-0.00850964
-0.00867932
-0.00884963
-0.00902057
-0.069336
-0.0697296
-0.0701246
-0.0705211
-0.070919
-0.0713184
-0.0717193
-0.0721217
-0.0725255
-0.0729308
-0.0733376
-0.0737459
-0.0741558
-0.0745671
-0.0749799
-0.0753943
-0.0758101
-0.0762276
-0.0766465
-0.077067
-0.077489
-0.0779126
-0.0783378
-0.0787645
-0.0791928
-0.0796226
-0.0800541
-0.0804871
-0.0809218
-0.081358
-0.0817958
-0.0822353
-0.0826763
-0.083119
-0.0835633
-0.0840093
-0.0844569
-0.0849061
-0.085357
-0.0858096
-0.0862638
-0.0867197
-0.0871773
-0.0876365
-0.0880975
-0.0885601
-0.0890245
-0.0894905
-0.0899583
-0.0904277
)
;
    }
    procBoundary7to10
    {
        type            processor;
        value           nonuniform List<scalar> 
50
(
-0.051392
-0.0517195
-0.0520482
-0.0523782
-0.0527093
-0.0530417
-0.0533753
-0.0537101
-0.0540462
-0.0543835
-0.054722
-0.0550618
-0.0554028
-0.0557451
-0.0560887
-0.0564335
-0.0567796
-0.0571269
-0.0574756
-0.0578255
-0.0581767
-0.0585292
-0.058883
-0.0592381
-0.0595945
-0.0599522
-0.0603112
-0.0606716
-0.0610333
-0.0613963
-0.0617606
-0.0621263
-0.0624934
-0.0628618
-0.0632315
-0.0636026
-0.0639751
-0.0643489
-0.0647242
-0.0651008
-0.0654787
-0.0658581
-0.0662389
-0.0666211
-0.0670047
-0.0673897
-0.0677761
-0.0681639
-0.0685532
-0.0689439
)
;
    }
}


// ************************************************************************* //
