/*--------------------------------*- C++ -*----------------------------------*\
| =========                 |                                                 |
| \\      /  F ield         | OpenFOAM: The Open Source CFD Toolbox           |
|  \\    /   O peration     | Version:  2.4.0                                 |
|   \\  /    A nd           | Web:      www.OpenFOAM.org                      |
|    \\/     M anipulation  |                                                 |
\*---------------------------------------------------------------------------*/
FoamFile
{
    version     2.0;
    format      ascii;
    class       volScalarField;
    location    "0.007";
    object      p_rgh;
}
// * * * * * * * * * * * * * * * * * * * * * * * * * * * * * * * * * * * * * //

dimensions      [1 -1 -2 0 0 0 0];

internalField   nonuniform List<scalar> 
125
(
-0.0146312
-0.0145897
-0.0145481
-0.0145063
-0.0144643
-0.0144222
-0.0143799
-0.0143375
-0.0142949
-0.0142522
-0.0142093
-0.0141663
-0.0141231
-0.0140797
-0.0140362
-0.0139925
-0.0139487
-0.0139047
-0.0138605
-0.0138162
-0.0137717
-0.0137271
-0.0136823
-0.0136373
-0.0135921
-0.0135468
-0.0135013
-0.0134557
-0.0134099
-0.0133639
-0.0133178
-0.0132715
-0.013225
-0.0131783
-0.0131315
-0.0130845
-0.0130373
-0.01299
-0.0129425
-0.0128948
-0.0128469
-0.0127988
-0.0127506
-0.0127022
-0.0126537
-0.0126049
-0.012556
-0.0125069
-0.0124576
-0.0124081
-0.0123584
-0.0123086
-0.0122586
-0.0122084
-0.012158
-0.0121074
-0.0120566
-0.0120057
-0.0119546
-0.0119032
-0.0118517
-0.0118
-0.0117481
-0.0116961
-0.0116438
-0.0115913
-0.0115387
-0.0114858
-0.0114328
-0.0113795
-0.0113261
-0.0112725
-0.0112186
-0.0111646
-0.0111104
-0.011056
-0.0110014
-0.0109465
-0.0108915
-0.0108363
-0.0107809
-0.0107252
-0.0106694
-0.0106133
-0.0105571
-0.0105006
-0.010444
-0.0103871
-0.01033
-0.0102727
-0.0102152
-0.0101575
-0.0100996
-0.0100415
-0.00998311
-0.00992454
-0.00986576
-0.00980676
-0.00974755
-0.00968812
-0.00962847
-0.0095686
-0.00950852
-0.00944821
-0.00938768
-0.00932692
-0.00926595
-0.00920475
-0.00914332
-0.00908167
-0.00901979
-0.00895769
-0.00889535
-0.00883279
-0.00877
-0.00870697
-0.00864372
-0.00858023
-0.00851651
-0.00845255
-0.00838836
-0.00832393
-0.00825927
-0.00819436
-0.00812922
)
;

boundaryField
{
    BotWall
    {
        type            fixedFluxPressure;
        gradient        nonuniform 0();
        value           nonuniform 0();
    }
    FreeStream
    {
        type            totalPressure;
        rho             rho;
        psi             none;
        gamma           1;
        p0              nonuniform 0();
        value           nonuniform 0();
    }
    FrontNBack
    {
        type            empty;
    }
    LeftSide
    {
        type            symmetryPlane;
    }
    RightSide
    {
        type            symmetryPlane;
    }
    procBoundary10to7
    {
        type            processor;
        value           nonuniform List<scalar> 
50
(
-0.0110531
-0.0109985
-0.0109437
-0.0108887
-0.0108335
-0.0107781
-0.0107225
-0.0106666
-0.0106106
-0.0105544
-0.0104979
-0.0104413
-0.0103844
-0.0103274
-0.0102701
-0.0102126
-0.0101549
-0.010097
-0.0100389
-0.00998057
-0.00992202
-0.00986326
-0.00980428
-0.00974508
-0.00968567
-0.00962603
-0.00956618
-0.00950611
-0.00944582
-0.0093853
-0.00932456
-0.0092636
-0.00920241
-0.009141
-0.00907937
-0.0090175
-0.00895541
-0.00889309
-0.00883055
-0.00876777
-0.00870476
-0.00864152
-0.00857804
-0.00851433
-0.00845039
-0.00838621
-0.0083218
-0.00825715
-0.00819226
-0.00812714
)
;
    }
    procBoundary10to8
    {
        type            processor;
        value           nonuniform List<scalar> 
75
(
-0.0146265
-0.0145851
-0.0145434
-0.0145017
-0.0144597
-0.0144177
-0.0143754
-0.0143331
-0.0142905
-0.0142478
-0.014205
-0.0141619
-0.0141188
-0.0140754
-0.0140319
-0.0139883
-0.0139445
-0.0139005
-0.0138564
-0.0138121
-0.0137676
-0.013723
-0.0136782
-0.0136333
-0.0135882
-0.0135429
-0.0134974
-0.0134518
-0.013406
-0.0133601
-0.013314
-0.0132677
-0.0132212
-0.0131746
-0.0131278
-0.0130808
-0.0130336
-0.0129863
-0.0129388
-0.0128912
-0.0128433
-0.0127953
-0.0127471
-0.0126987
-0.0126502
-0.0126014
-0.0125525
-0.0125034
-0.0124542
-0.0124047
-0.0123551
-0.0123053
-0.0122553
-0.0122051
-0.0121547
-0.0121042
-0.0120534
-0.0120025
-0.0119514
-0.0119001
-0.0118486
-0.0117969
-0.0117451
-0.011693
-0.0116407
-0.0115883
-0.0115357
-0.0114828
-0.0114298
-0.0113766
-0.0113232
-0.0112696
-0.0112158
-0.0111617
-0.0111075
)
;
    }
    procBoundary10to9
    {
        type            processor;
        value           uniform -0.00806383;
    }
    procBoundary10to11
    {
        type            processor;
        value           uniform -0.0146725;
    }
}


// ************************************************************************* //
