/*--------------------------------*- C++ -*----------------------------------*\
| =========                 |                                                 |
| \\      /  F ield         | OpenFOAM: The Open Source CFD Toolbox           |
|  \\    /   O peration     | Version:  2.4.0                                 |
|   \\  /    A nd           | Web:      www.OpenFOAM.org                      |
|    \\/     M anipulation  |                                                 |
\*---------------------------------------------------------------------------*/
FoamFile
{
    version     2.0;
    format      ascii;
    class       surfaceScalarField;
    location    "0.011";
    object      phi;
}
// * * * * * * * * * * * * * * * * * * * * * * * * * * * * * * * * * * * * * //

dimensions      [0 3 -1 0 0 0 0];

internalField   nonuniform List<scalar> 
124
(
-4.34079e-09
-4.34082e-09
-4.34084e-09
-4.34086e-09
-4.34088e-09
-4.3409e-09
-4.34092e-09
-4.34094e-09
-4.34096e-09
-4.34098e-09
-4.341e-09
-4.34102e-09
-4.34104e-09
-4.34106e-09
-4.34108e-09
-4.34109e-09
-4.34111e-09
-4.34113e-09
-4.34115e-09
-4.34117e-09
-4.34118e-09
-4.3412e-09
-4.34122e-09
-4.34123e-09
-4.34125e-09
-4.34127e-09
-4.34128e-09
-4.3413e-09
-4.34132e-09
-4.34133e-09
-4.34135e-09
-4.34136e-09
-4.34138e-09
-4.34139e-09
-4.34141e-09
-4.34142e-09
-4.34144e-09
-4.34145e-09
-4.34147e-09
-4.34148e-09
-4.3415e-09
-4.34151e-09
-4.34152e-09
-4.34154e-09
-4.34155e-09
-4.34157e-09
-4.34158e-09
-4.34159e-09
-4.34161e-09
-4.34162e-09
-4.34163e-09
-4.34165e-09
-4.34166e-09
-4.34167e-09
-4.34168e-09
-4.3417e-09
-4.34171e-09
-4.34172e-09
-4.34174e-09
-4.34175e-09
-4.34176e-09
-4.34177e-09
-4.34179e-09
-4.3418e-09
-4.34181e-09
-4.34182e-09
-4.34183e-09
-4.34185e-09
-4.34186e-09
-4.34187e-09
-4.34188e-09
-4.34189e-09
-4.34191e-09
-4.34192e-09
-4.34193e-09
-4.34194e-09
-4.34195e-09
-4.34196e-09
-4.34197e-09
-4.34199e-09
-4.342e-09
-4.34201e-09
-4.34202e-09
-4.34203e-09
-4.34204e-09
-4.34205e-09
-4.34206e-09
-4.34208e-09
-4.34209e-09
-4.3421e-09
-4.34211e-09
-4.34212e-09
-4.34213e-09
-4.34214e-09
-4.34215e-09
-4.34216e-09
-4.34217e-09
-4.34218e-09
-4.3422e-09
-4.34221e-09
-4.34222e-09
-4.34223e-09
-4.34224e-09
-4.34225e-09
-4.34226e-09
-4.34227e-09
-4.34228e-09
-4.34229e-09
-4.3423e-09
-4.34231e-09
-4.34232e-09
-4.34233e-09
-4.34234e-09
-4.34235e-09
-4.34236e-09
-4.34237e-09
-4.34238e-09
-4.34239e-09
-4.3424e-09
-4.34241e-09
-4.34242e-09
-4.34243e-09
-4.34244e-09
-4.34245e-09
)
;

boundaryField
{
    BotWall
    {
        type            calculated;
        value           nonuniform 0();
    }
    FreeStream
    {
        type            calculated;
        value           nonuniform 0();
    }
    FrontNBack
    {
        type            empty;
        value           nonuniform 0();
    }
    LeftSide
    {
        type            symmetryPlane;
        value           uniform 0;
    }
    RightSide
    {
        type            symmetryPlane;
        value           nonuniform 0();
    }
    procBoundary1to0
    {
        type            processor;
        value           uniform -4.34246e-09;
    }
    procBoundary1to2
    {
        type            processor;
        value           uniform 4.34077e-09;
    }
    procBoundary1to3
    {
        type            processor;
        value           nonuniform List<scalar> 
75
(
1.32109e-14
1.31236e-14
1.30389e-14
1.29567e-14
1.28768e-14
1.27992e-14
1.27238e-14
1.26505e-14
1.25792e-14
1.25097e-14
1.24421e-14
1.23762e-14
1.2312e-14
1.22494e-14
1.21883e-14
1.21286e-14
1.20704e-14
1.20134e-14
1.19578e-14
1.19033e-14
1.185e-14
1.17978e-14
1.17467e-14
1.16966e-14
1.16475e-14
1.15993e-14
1.1552e-14
1.15056e-14
1.146e-14
1.14151e-14
1.13711e-14
1.13278e-14
1.12852e-14
1.12432e-14
1.12019e-14
1.11613e-14
1.11212e-14
1.10818e-14
1.10429e-14
1.10046e-14
1.09667e-14
1.09294e-14
1.08926e-14
1.08563e-14
1.08205e-14
1.0785e-14
1.07501e-14
1.07155e-14
1.06814e-14
1.06477e-14
1.06143e-14
1.05814e-14
1.05488e-14
1.05166e-14
1.04847e-14
1.04532e-14
1.0422e-14
1.03912e-14
1.03607e-14
1.03305e-14
1.03006e-14
1.02711e-14
1.02419e-14
1.02129e-14
1.01843e-14
1.0156e-14
1.0128e-14
1.01003e-14
1.00729e-14
1.00458e-14
1.00189e-14
9.9924e-15
9.96616e-15
9.94021e-15
9.91455e-15
)
;
    }
    procBoundary1to4
    {
        type            processor;
        value           nonuniform List<scalar> 
50
(
2.15041e-14
2.13361e-14
2.116e-14
2.09767e-14
2.07871e-14
2.0592e-14
2.03923e-14
2.01887e-14
1.99819e-14
1.97726e-14
1.95615e-14
1.93493e-14
1.91364e-14
1.89235e-14
1.8711e-14
1.84995e-14
1.82893e-14
1.80808e-14
1.78745e-14
1.76706e-14
1.74695e-14
1.72714e-14
1.70765e-14
1.68851e-14
1.66974e-14
1.65135e-14
1.63334e-14
1.61574e-14
1.59856e-14
1.58179e-14
1.56544e-14
1.54951e-14
1.53401e-14
1.51892e-14
1.50426e-14
1.49002e-14
1.47619e-14
1.46276e-14
1.44973e-14
1.43709e-14
1.42483e-14
1.41295e-14
1.40143e-14
1.39026e-14
1.37944e-14
1.36894e-14
1.35877e-14
1.34891e-14
1.33935e-14
1.33008e-14
)
;
    }
}


// ************************************************************************* //
