/*--------------------------------*- C++ -*----------------------------------*\
| =========                 |                                                 |
| \\      /  F ield         | OpenFOAM: The Open Source CFD Toolbox           |
|  \\    /   O peration     | Version:  2.4.0                                 |
|   \\  /    A nd           | Web:      www.OpenFOAM.org                      |
|    \\/     M anipulation  |                                                 |
\*---------------------------------------------------------------------------*/
FoamFile
{
    version     2.0;
    format      ascii;
    class       volVectorField;
    location    "0.011";
    object      U;
}
// * * * * * * * * * * * * * * * * * * * * * * * * * * * * * * * * * * * * * //

dimensions      [0 1 -1 0 0 0 0];

internalField   nonuniform List<vector> 
125
(
(1.55293e-05 -0.0217039 0)
(1.53336e-05 -0.021704 0)
(1.51335e-05 -0.0217041 0)
(1.49298e-05 -0.0217042 0)
(1.4723e-05 -0.0217043 0)
(1.45139e-05 -0.0217044 0)
(1.43032e-05 -0.0217045 0)
(1.40914e-05 -0.0217047 0)
(1.38791e-05 -0.0217048 0)
(1.36669e-05 -0.0217049 0)
(1.34552e-05 -0.0217049 0)
(1.32444e-05 -0.021705 0)
(1.30351e-05 -0.0217051 0)
(1.28276e-05 -0.0217052 0)
(1.26223e-05 -0.0217053 0)
(1.24194e-05 -0.0217054 0)
(1.22194e-05 -0.0217055 0)
(1.20224e-05 -0.0217056 0)
(1.18286e-05 -0.0217057 0)
(1.16384e-05 -0.0217058 0)
(1.14519e-05 -0.0217059 0)
(1.12692e-05 -0.021706 0)
(1.10904e-05 -0.021706 0)
(1.09157e-05 -0.0217061 0)
(1.07452e-05 -0.0217062 0)
(1.05789e-05 -0.0217063 0)
(1.04169e-05 -0.0217064 0)
(1.02592e-05 -0.0217065 0)
(1.01058e-05 -0.0217065 0)
(9.95665e-06 -0.0217066 0)
(9.81184e-06 -0.0217067 0)
(9.67128e-06 -0.0217068 0)
(9.53494e-06 -0.0217069 0)
(9.40277e-06 -0.0217069 0)
(9.27471e-06 -0.021707 0)
(9.15067e-06 -0.0217071 0)
(9.0306e-06 -0.0217072 0)
(8.91439e-06 -0.0217072 0)
(8.80197e-06 -0.0217073 0)
(8.69325e-06 -0.0217074 0)
(8.58811e-06 -0.0217074 0)
(8.48648e-06 -0.0217075 0)
(8.38823e-06 -0.0217076 0)
(8.29328e-06 -0.0217077 0)
(8.20151e-06 -0.0217077 0)
(8.11282e-06 -0.0217078 0)
(8.02712e-06 -0.0217079 0)
(7.94428e-06 -0.0217079 0)
(7.86422e-06 -0.021708 0)
(7.78682e-06 -0.0217081 0)
(7.712e-06 -0.0217081 0)
(7.63966e-06 -0.0217082 0)
(7.56969e-06 -0.0217083 0)
(7.50201e-06 -0.0217083 0)
(7.43653e-06 -0.0217084 0)
(7.37316e-06 -0.0217085 0)
(7.31182e-06 -0.0217085 0)
(7.25243e-06 -0.0217086 0)
(7.19491e-06 -0.0217086 0)
(7.13918e-06 -0.0217087 0)
(7.08518e-06 -0.0217088 0)
(7.03283e-06 -0.0217088 0)
(6.98206e-06 -0.0217089 0)
(6.93283e-06 -0.021709 0)
(6.88506e-06 -0.021709 0)
(6.8387e-06 -0.0217091 0)
(6.7937e-06 -0.0217091 0)
(6.75e-06 -0.0217092 0)
(6.70755e-06 -0.0217093 0)
(6.6663e-06 -0.0217093 0)
(6.62622e-06 -0.0217094 0)
(6.58726e-06 -0.0217094 0)
(6.54937e-06 -0.0217095 0)
(6.51252e-06 -0.0217096 0)
(6.47668e-06 -0.0217096 0)
(6.4418e-06 -0.0217097 0)
(6.40786e-06 -0.0217097 0)
(6.37483e-06 -0.0217098 0)
(6.34266e-06 -0.0217098 0)
(6.31134e-06 -0.0217099 0)
(6.28084e-06 -0.02171 0)
(6.25113e-06 -0.02171 0)
(6.22218e-06 -0.0217101 0)
(6.19398e-06 -0.0217101 0)
(6.1665e-06 -0.0217102 0)
(6.13972e-06 -0.0217102 0)
(6.11361e-06 -0.0217103 0)
(6.08816e-06 -0.0217104 0)
(6.06335e-06 -0.0217104 0)
(6.03916e-06 -0.0217105 0)
(6.01557e-06 -0.0217105 0)
(5.99256e-06 -0.0217106 0)
(5.97013e-06 -0.0217106 0)
(5.94825e-06 -0.0217107 0)
(5.92691e-06 -0.0217107 0)
(5.9061e-06 -0.0217108 0)
(5.88579e-06 -0.0217108 0)
(5.86599e-06 -0.0217109 0)
(5.84667e-06 -0.0217109 0)
(5.82782e-06 -0.021711 0)
(5.80944e-06 -0.0217111 0)
(5.7915e-06 -0.0217111 0)
(5.77401e-06 -0.0217112 0)
(5.75694e-06 -0.0217112 0)
(5.7403e-06 -0.0217113 0)
(5.72407e-06 -0.0217113 0)
(5.70823e-06 -0.0217114 0)
(5.6928e-06 -0.0217114 0)
(5.67774e-06 -0.0217115 0)
(5.66307e-06 -0.0217115 0)
(5.64876e-06 -0.0217116 0)
(5.63482e-06 -0.0217116 0)
(5.62123e-06 -0.0217117 0)
(5.60799e-06 -0.0217117 0)
(5.59509e-06 -0.0217118 0)
(5.58254e-06 -0.0217118 0)
(5.57031e-06 -0.0217119 0)
(5.55841e-06 -0.0217119 0)
(5.54683e-06 -0.021712 0)
(5.53556e-06 -0.021712 0)
(5.52461e-06 -0.0217121 0)
(5.51396e-06 -0.0217121 0)
(5.50361e-06 -0.0217122 0)
(5.49355e-06 -0.0217122 0)
(5.48379e-06 -0.0217123 0)
)
;

boundaryField
{
    BotWall
    {
        type            fixedValue;
        value           nonuniform 0();
    }
    FreeStream
    {
        type            zeroGradient;
    }
    FrontNBack
    {
        type            empty;
    }
    LeftSide
    {
        type            symmetryPlane;
    }
    RightSide
    {
        type            symmetryPlane;
    }
    procBoundary1to0
    {
        type            processor;
        value           uniform (5.47431e-06 -0.0217123 0);
    }
    procBoundary1to2
    {
        type            processor;
        value           uniform (1.57197e-05 -0.0217038 0);
    }
    procBoundary1to3
    {
        type            processor;
        value           nonuniform List<vector> 
75
(
(1.22825e-05 -0.0217283 0)
(1.21499e-05 -0.0217283 0)
(1.20201e-05 -0.0217282 0)
(1.18929e-05 -0.0217281 0)
(1.17681e-05 -0.0217281 0)
(1.16458e-05 -0.021728 0)
(1.15258e-05 -0.021728 0)
(1.14079e-05 -0.0217279 0)
(1.12922e-05 -0.0217279 0)
(1.11784e-05 -0.0217278 0)
(1.10666e-05 -0.0217277 0)
(1.09567e-05 -0.0217277 0)
(1.08485e-05 -0.0217276 0)
(1.0742e-05 -0.0217276 0)
(1.06371e-05 -0.0217275 0)
(1.05337e-05 -0.0217275 0)
(1.04319e-05 -0.0217274 0)
(1.03315e-05 -0.0217274 0)
(1.02324e-05 -0.0217273 0)
(1.01347e-05 -0.0217273 0)
(1.00382e-05 -0.0217272 0)
(9.94298e-06 -0.0217272 0)
(9.84889e-06 -0.0217271 0)
(9.75592e-06 -0.0217271 0)
(9.66403e-06 -0.021727 0)
(9.57318e-06 -0.021727 0)
(9.48333e-06 -0.0217269 0)
(9.39445e-06 -0.0217269 0)
(9.30651e-06 -0.0217268 0)
(9.21947e-06 -0.0217268 0)
(9.13331e-06 -0.0217267 0)
(9.04799e-06 -0.0217267 0)
(8.96349e-06 -0.0217267 0)
(8.87979e-06 -0.0217266 0)
(8.79686e-06 -0.0217266 0)
(8.71467e-06 -0.0217265 0)
(8.63321e-06 -0.0217265 0)
(8.55246e-06 -0.0217264 0)
(8.4724e-06 -0.0217264 0)
(8.39301e-06 -0.0217263 0)
(8.31427e-06 -0.0217263 0)
(8.23616e-06 -0.0217263 0)
(8.15868e-06 -0.0217262 0)
(8.08181e-06 -0.0217262 0)
(8.00552e-06 -0.0217261 0)
(7.92982e-06 -0.0217261 0)
(7.85469e-06 -0.0217261 0)
(7.78012e-06 -0.021726 0)
(7.70609e-06 -0.021726 0)
(7.63259e-06 -0.0217259 0)
(7.55962e-06 -0.0217259 0)
(7.48717e-06 -0.0217258 0)
(7.41523e-06 -0.0217258 0)
(7.34379e-06 -0.0217258 0)
(7.27285e-06 -0.0217257 0)
(7.20239e-06 -0.0217257 0)
(7.13241e-06 -0.0217257 0)
(7.0629e-06 -0.0217256 0)
(6.99387e-06 -0.0217256 0)
(6.9253e-06 -0.0217255 0)
(6.85718e-06 -0.0217255 0)
(6.78953e-06 -0.0217255 0)
(6.72232e-06 -0.0217254 0)
(6.65556e-06 -0.0217254 0)
(6.58925e-06 -0.0217253 0)
(6.52338e-06 -0.0217253 0)
(6.45794e-06 -0.0217253 0)
(6.39294e-06 -0.0217252 0)
(6.32837e-06 -0.0217252 0)
(6.26423e-06 -0.0217252 0)
(6.20052e-06 -0.0217251 0)
(6.13722e-06 -0.0217251 0)
(6.07435e-06 -0.0217251 0)
(6.0119e-06 -0.021725 0)
(5.94986e-06 -0.021725 0)
)
;
    }
    procBoundary1to4
    {
        type            processor;
        value           nonuniform List<vector> 
50
(
(2.35798e-05 -0.0217323 0)
(2.33276e-05 -0.0217322 0)
(2.3068e-05 -0.0217321 0)
(2.2802e-05 -0.021732 0)
(2.25306e-05 -0.0217319 0)
(2.22547e-05 -0.0217318 0)
(2.19753e-05 -0.0217317 0)
(2.16931e-05 -0.0217316 0)
(2.1409e-05 -0.0217315 0)
(2.11236e-05 -0.0217314 0)
(2.08378e-05 -0.0217313 0)
(2.0552e-05 -0.0217312 0)
(2.0267e-05 -0.0217311 0)
(1.99832e-05 -0.021731 0)
(1.97011e-05 -0.0217309 0)
(1.94213e-05 -0.0217309 0)
(1.91442e-05 -0.0217308 0)
(1.887e-05 -0.0217307 0)
(1.85992e-05 -0.0217306 0)
(1.83321e-05 -0.0217305 0)
(1.80688e-05 -0.0217304 0)
(1.78098e-05 -0.0217303 0)
(1.7555e-05 -0.0217303 0)
(1.73048e-05 -0.0217302 0)
(1.70592e-05 -0.0217301 0)
(1.68183e-05 -0.02173 0)
(1.65823e-05 -0.0217299 0)
(1.63512e-05 -0.0217299 0)
(1.6125e-05 -0.0217298 0)
(1.59037e-05 -0.0217297 0)
(1.56874e-05 -0.0217296 0)
(1.54759e-05 -0.0217296 0)
(1.52694e-05 -0.0217295 0)
(1.50676e-05 -0.0217294 0)
(1.48707e-05 -0.0217293 0)
(1.46783e-05 -0.0217293 0)
(1.44906e-05 -0.0217292 0)
(1.43074e-05 -0.0217291 0)
(1.41286e-05 -0.0217291 0)
(1.3954e-05 -0.021729 0)
(1.37836e-05 -0.0217289 0)
(1.36173e-05 -0.0217289 0)
(1.34549e-05 -0.0217288 0)
(1.32963e-05 -0.0217287 0)
(1.31414e-05 -0.0217287 0)
(1.29901e-05 -0.0217286 0)
(1.28422e-05 -0.0217286 0)
(1.26976e-05 -0.0217285 0)
(1.25562e-05 -0.0217284 0)
(1.24179e-05 -0.0217284 0)
)
;
    }
}


// ************************************************************************* //
