/*--------------------------------*- C++ -*----------------------------------*\
| =========                 |                                                 |
| \\      /  F ield         | OpenFOAM: The Open Source CFD Toolbox           |
|  \\    /   O peration     | Version:  2.4.0                                 |
|   \\  /    A nd           | Web:      www.OpenFOAM.org                      |
|    \\/     M anipulation  |                                                 |
\*---------------------------------------------------------------------------*/
FoamFile
{
    version     2.0;
    format      ascii;
    class       volScalarField;
    location    "2.1";
    object      p_rgh;
}
// * * * * * * * * * * * * * * * * * * * * * * * * * * * * * * * * * * * * * //

dimensions      [1 -1 -2 0 0 0 0];

internalField   nonuniform List<scalar> 
125
(
-1.02279e-05
-1.02262e-05
-1.02255e-05
-1.0226e-05
-1.0229e-05
-1.11923e-05
-1.11911e-05
-1.11904e-05
-1.1191e-05
-1.11934e-05
-1.13092e-05
-1.13083e-05
-1.13076e-05
-1.13081e-05
-1.13103e-05
-1.12264e-05
-1.12255e-05
-1.12248e-05
-1.12253e-05
-1.12274e-05
-1.11743e-05
-1.11734e-05
-1.11727e-05
-1.11732e-05
-1.11753e-05
-1.11557e-05
-1.11548e-05
-1.11542e-05
-1.11547e-05
-1.11567e-05
-1.11448e-05
-1.1144e-05
-1.11434e-05
-1.11438e-05
-1.11458e-05
-1.11326e-05
-1.11317e-05
-1.11311e-05
-1.11316e-05
-1.11335e-05
-1.11188e-05
-1.1118e-05
-1.11174e-05
-1.11179e-05
-1.11197e-05
-1.11046e-05
-1.11038e-05
-1.11032e-05
-1.11037e-05
-1.11055e-05
-1.10903e-05
-1.10895e-05
-1.10889e-05
-1.10894e-05
-1.10912e-05
-1.10759e-05
-1.10751e-05
-1.10745e-05
-1.1075e-05
-1.10767e-05
-1.10613e-05
-1.10605e-05
-1.106e-05
-1.10604e-05
-1.10622e-05
-1.10466e-05
-1.10458e-05
-1.10453e-05
-1.10457e-05
-1.10474e-05
-1.10317e-05
-1.1031e-05
-1.10305e-05
-1.10309e-05
-1.10325e-05
-1.10167e-05
-1.10159e-05
-1.10154e-05
-1.10158e-05
-1.10175e-05
-1.10015e-05
-1.10008e-05
-1.10003e-05
-1.10007e-05
-1.10023e-05
-1.09861e-05
-1.09854e-05
-1.09849e-05
-1.09853e-05
-1.09869e-05
-1.09706e-05
-1.09699e-05
-1.09694e-05
-1.09698e-05
-1.09714e-05
-1.09549e-05
-1.09542e-05
-1.09538e-05
-1.09541e-05
-1.09557e-05
-1.0939e-05
-1.09384e-05
-1.09379e-05
-1.09383e-05
-1.09398e-05
-1.0923e-05
-1.09223e-05
-1.09219e-05
-1.09222e-05
-1.09237e-05
-1.09068e-05
-1.09061e-05
-1.09057e-05
-1.0906e-05
-1.09075e-05
-1.08904e-05
-1.08898e-05
-1.08894e-05
-1.08897e-05
-1.0891e-05
-1.08738e-05
-1.08732e-05
-1.08728e-05
-1.08731e-05
-1.08744e-05
)
;

boundaryField
{
    BotWall
    {
        type            fixedFluxPressure;
        gradient        nonuniform 0();
        value           nonuniform 0();
    }
    FreeStream
    {
        type            totalPressure;
        rho             rho;
        psi             none;
        gamma           1;
        p0              nonuniform 0();
        value           nonuniform 0();
    }
    FrontNBack
    {
        type            empty;
    }
    LeftSide
    {
        type            symmetryPlane;
    }
    RightSide
    {
        type            symmetryPlane;
    }
    procBoundary1to0
    {
        type            processor;
        value           nonuniform List<scalar> 5(-8.50609e-06 -8.505e-06 -8.50438e-06 -8.50486e-06 -8.50721e-06);
    }
    procBoundary1to2
    {
        type            processor;
        value           nonuniform List<scalar> 5(-1.08571e-05 -1.08565e-05 -1.08561e-05 -1.08564e-05 -1.08576e-05);
    }
}


// ************************************************************************* //
