/*--------------------------------*- C++ -*----------------------------------*\
| =========                 |                                                 |
| \\      /  F ield         | OpenFOAM: The Open Source CFD Toolbox           |
|  \\    /   O peration     | Version:  2.4.0                                 |
|   \\  /    A nd           | Web:      www.OpenFOAM.org                      |
|    \\/     M anipulation  |                                                 |
\*---------------------------------------------------------------------------*/
FoamFile
{
    version     2.0;
    format      ascii;
    class       surfaceScalarField;
    location    "2.1";
    object      phi;
}
// * * * * * * * * * * * * * * * * * * * * * * * * * * * * * * * * * * * * * //

dimensions      [0 3 -1 0 0 0 0];

internalField   nonuniform List<scalar> 
220
(
5.4616e-17
-2.92488e-10
4.36647e-17
-2.92488e-10
-3.17644e-17
-2.92489e-10
-6.71106e-17
-2.92489e-10
-2.92488e-10
5.21201e-17
-2.92488e-10
4.18474e-17
-2.92488e-10
-3.03056e-17
-2.92489e-10
-6.42641e-17
-2.92489e-10
-2.92488e-10
4.96482e-17
-2.92488e-10
4.00527e-17
-2.92488e-10
-2.88576e-17
-2.92489e-10
-6.14426e-17
-2.92488e-10
-2.92488e-10
4.71962e-17
-2.92488e-10
3.82795e-17
-2.92488e-10
-2.74191e-17
-2.92488e-10
-5.86419e-17
-2.92488e-10
-2.92488e-10
4.47685e-17
-2.92488e-10
3.65276e-17
-2.92488e-10
-2.59899e-17
-2.92488e-10
-5.58664e-17
-2.92488e-10
-2.92488e-10
4.23686e-17
-2.92488e-10
3.47977e-17
-2.92488e-10
-2.45707e-17
-2.92488e-10
-5.31197e-17
-2.92488e-10
-2.92488e-10
3.99987e-17
-2.92488e-10
3.30914e-17
-2.92488e-10
-2.31628e-17
-2.92488e-10
-5.0404e-17
-2.92488e-10
-2.92489e-10
3.76602e-17
-2.92489e-10
3.14097e-17
-2.92488e-10
-2.17674e-17
-2.92488e-10
-4.77208e-17
-2.92488e-10
-2.92489e-10
3.53547e-17
-2.92489e-10
2.9754e-17
-2.92488e-10
-2.03856e-17
-2.92488e-10
-4.5072e-17
-2.92488e-10
-2.92489e-10
3.30842e-17
-2.92489e-10
2.81253e-17
-2.92488e-10
-1.90187e-17
-2.92488e-10
-4.24594e-17
-2.92488e-10
-2.92489e-10
3.08501e-17
-2.92489e-10
2.65247e-17
-2.92488e-10
-1.76677e-17
-2.92488e-10
-3.98847e-17
-2.92488e-10
-2.92489e-10
2.86544e-17
-2.92489e-10
2.49533e-17
-2.92488e-10
-1.63338e-17
-2.92488e-10
-3.73498e-17
-2.92488e-10
-2.92489e-10
2.64987e-17
-2.92489e-10
2.34123e-17
-2.92488e-10
-1.50181e-17
-2.92488e-10
-3.48567e-17
-2.92488e-10
-2.92489e-10
2.43847e-17
-2.92489e-10
2.19027e-17
-2.92488e-10
-1.3722e-17
-2.92488e-10
-3.2407e-17
-2.92488e-10
-2.92489e-10
2.23141e-17
-2.92489e-10
2.04255e-17
-2.92488e-10
-1.24465e-17
-2.92488e-10
-3.00027e-17
-2.92488e-10
-2.92489e-10
2.02885e-17
-2.92489e-10
1.89819e-17
-2.92488e-10
-1.11929e-17
-2.92488e-10
-2.76455e-17
-2.92488e-10
-2.92489e-10
1.83095e-17
-2.92489e-10
1.75727e-17
-2.92488e-10
-9.96227e-18
-2.92488e-10
-2.53373e-17
-2.92488e-10
-2.92489e-10
1.63788e-17
-2.92489e-10
1.6199e-17
-2.92488e-10
-8.75594e-18
-2.92488e-10
-2.30798e-17
-2.92488e-10
-2.92489e-10
1.4498e-17
-2.92489e-10
1.48617e-17
-2.92488e-10
-7.57507e-18
-2.92488e-10
-2.08747e-17
-2.92488e-10
-2.92489e-10
1.26685e-17
-2.92489e-10
1.35617e-17
-2.92488e-10
-6.42085e-18
-2.92488e-10
-1.87239e-17
-2.92488e-10
-2.92489e-10
1.08919e-17
-2.92489e-10
1.22999e-17
-2.92488e-10
-5.29448e-18
-2.92488e-10
-1.6629e-17
-2.92488e-10
-2.92489e-10
9.16949e-18
-2.92489e-10
1.10771e-17
-2.92488e-10
-4.19712e-18
-2.92488e-10
-1.45922e-17
-2.92488e-10
-2.92489e-10
7.50279e-18
-2.92489e-10
9.89414e-18
-2.92488e-10
-3.1296e-18
-2.92488e-10
-1.26147e-17
-2.92488e-10
-2.92489e-10
5.89312e-18
-2.92489e-10
8.75177e-18
-2.92488e-10
-2.09337e-18
-2.92488e-10
-1.07007e-17
-2.92488e-10
-2.92489e-10
4.34173e-18
7.65063e-18
-1.08904e-18
-8.84852e-18
)
;

boundaryField
{
    BotWall
    {
        type            calculated;
        value           nonuniform 0();
    }
    FreeStream
    {
        type            calculated;
        value           nonuniform 0();
    }
    FrontNBack
    {
        type            empty;
        value           nonuniform 0();
    }
    LeftSide
    {
        type            symmetryPlane;
        value           uniform 0;
    }
    RightSide
    {
        type            symmetryPlane;
        value           uniform 0;
    }
    procBoundary1to0
    {
        type            processor;
        value           nonuniform List<scalar> 5(2.92488e-10 2.92488e-10 2.92489e-10 2.92489e-10 2.92488e-10);
    }
    procBoundary1to2
    {
        type            processor;
        value           nonuniform List<scalar> 5(-2.92489e-10 -2.92488e-10 -2.92488e-10 -2.92488e-10 -2.92489e-10);
    }
}


// ************************************************************************* //
