/*--------------------------------*- C++ -*----------------------------------*\
| =========                 |                                                 |
| \\      /  F ield         | OpenFOAM: The Open Source CFD Toolbox           |
|  \\    /   O peration     | Version:  2.4.0                                 |
|   \\  /    A nd           | Web:      www.OpenFOAM.org                      |
|    \\/     M anipulation  |                                                 |
\*---------------------------------------------------------------------------*/
FoamFile
{
    version     2.0;
    format      ascii;
    class       volVectorField;
    location    "2.1";
    object      U;
}
// * * * * * * * * * * * * * * * * * * * * * * * * * * * * * * * * * * * * * //

dimensions      [0 1 -1 0 0 0 0];

internalField   nonuniform List<vector> 
125
(
(1.013e-08 -0.00146256 0)
(2.00469e-08 -0.00146256 0)
(4.07085e-09 -0.00146256 0)
(-2.16098e-08 -0.00146256 0)
(-1.54795e-08 -0.00146256 0)
(9.52878e-09 -0.00146234 0)
(1.89481e-08 -0.00146234 0)
(3.91287e-09 -0.00146234 0)
(-2.04634e-08 -0.00146234 0)
(-1.46582e-08 -0.00146234 0)
(8.94513e-09 -0.00146239 0)
(1.788e-08 -0.00146239 0)
(3.76036e-09 -0.00146239 0)
(-1.93472e-08 -0.00146239 0)
(-1.38606e-08 -0.00146239 0)
(8.37777e-09 -0.00146244 0)
(1.68412e-08 -0.00146244 0)
(3.6132e-09 -0.00146244 0)
(-1.82597e-08 -0.00146244 0)
(-1.30853e-08 -0.00146244 0)
(7.82667e-09 -0.00146245 0)
(1.58317e-08 -0.00146245 0)
(3.47131e-09 -0.00146245 0)
(-1.72009e-08 -0.00146245 0)
(-1.23321e-08 -0.00146245 0)
(7.29198e-09 -0.00146244 0)
(1.48516e-08 -0.00146244 0)
(3.33458e-09 -0.00146244 0)
(-1.61711e-08 -0.00146244 0)
(-1.16012e-08 -0.00146244 0)
(6.77374e-09 -0.00146244 0)
(1.39008e-08 -0.00146244 0)
(3.20291e-09 -0.00146244 0)
(-1.51702e-08 -0.00146244 0)
(-1.08924e-08 -0.00146244 0)
(6.27192e-09 -0.00146244 0)
(1.29795e-08 -0.00146244 0)
(3.07621e-09 -0.00146244 0)
(-1.41984e-08 -0.00146244 0)
(-1.02056e-08 -0.00146244 0)
(5.78646e-09 -0.00146244 0)
(1.20874e-08 -0.00146244 0)
(2.95436e-09 -0.00146244 0)
(-1.32555e-08 -0.00146244 0)
(-9.54067e-09 -0.00146244 0)
(5.3173e-09 -0.00146244 0)
(1.12245e-08 -0.00146244 0)
(2.83726e-09 -0.00146244 0)
(-1.23414e-08 -0.00146244 0)
(-8.89745e-09 -0.00146244 0)
(4.86438e-09 -0.00146244 0)
(1.03906e-08 -0.00146244 0)
(2.72481e-09 -0.00146244 0)
(-1.14563e-08 -0.00146244 0)
(-8.27578e-09 -0.00146244 0)
(4.42763e-09 -0.00146244 0)
(9.58572e-09 -0.00146244 0)
(2.61688e-09 -0.00146244 0)
(-1.05999e-08 -0.00146244 0)
(-7.67549e-09 -0.00146244 0)
(4.00697e-09 -0.00146244 0)
(8.8096e-09 -0.00146244 0)
(2.51336e-09 -0.00146244 0)
(-9.77216e-09 -0.00146244 0)
(-7.09641e-09 -0.00146244 0)
(3.60231e-09 -0.00146244 0)
(8.06213e-09 -0.00146244 0)
(2.41414e-09 -0.00146244 0)
(-8.97307e-09 -0.00146244 0)
(-6.53836e-09 -0.00146244 0)
(3.21356e-09 -0.00146244 0)
(7.34313e-09 -0.00146244 0)
(2.3191e-09 -0.00146244 0)
(-8.20247e-09 -0.00146244 0)
(-6.00115e-09 -0.00146244 0)
(2.84062e-09 -0.00146244 0)
(6.65241e-09 -0.00146244 0)
(2.22812e-09 -0.00146244 0)
(-7.46026e-09 -0.00146244 0)
(-5.4846e-09 -0.00146244 0)
(2.48336e-09 -0.00146244 0)
(5.98978e-09 -0.00146244 0)
(2.14108e-09 -0.00146244 0)
(-6.74629e-09 -0.00146244 0)
(-4.9885e-09 -0.00146244 0)
(2.14167e-09 -0.00146244 0)
(5.35501e-09 -0.00146244 0)
(2.05786e-09 -0.00146244 0)
(-6.06042e-09 -0.00146244 0)
(-4.51264e-09 -0.00146244 0)
(1.81541e-09 -0.00146244 0)
(4.74786e-09 -0.00146244 0)
(1.97834e-09 -0.00146244 0)
(-5.40249e-09 -0.00146244 0)
(-4.05682e-09 -0.00146244 0)
(1.50445e-09 -0.00146244 0)
(4.16808e-09 -0.00146244 0)
(1.90238e-09 -0.00146244 0)
(-4.77231e-09 -0.00146244 0)
(-3.62081e-09 -0.00146244 0)
(1.20863e-09 -0.00146244 0)
(3.61539e-09 -0.00146244 0)
(1.82988e-09 -0.00146244 0)
(-4.1697e-09 -0.00146244 0)
(-3.20439e-09 -0.00146244 0)
(9.278e-10 -0.00146244 0)
(3.08951e-09 -0.00146244 0)
(1.7607e-09 -0.00146244 0)
(-3.59448e-09 -0.00146244 0)
(-2.80737e-09 -0.00146244 0)
(6.61778e-10 -0.00146244 0)
(2.59012e-09 -0.00146244 0)
(1.69472e-09 -0.00146244 0)
(-3.04632e-09 -0.00146244 0)
(-2.42938e-09 -0.00146244 0)
(4.10389e-10 -0.00146244 0)
(2.1169e-09 -0.00146244 0)
(1.63182e-09 -0.00146244 0)
(-2.52533e-09 -0.00146244 0)
(-2.07056e-09 -0.00146245 0)
(1.73443e-10 -0.00146244 0)
(1.6695e-09 -0.00146244 0)
(1.57188e-09 -0.00146244 0)
(-2.03076e-09 -0.00146244 0)
(-1.73015e-09 -0.00146245 0)
)
;

boundaryField
{
    BotWall
    {
        type            fixedValue;
        value           nonuniform 0();
    }
    FreeStream
    {
        type            zeroGradient;
    }
    FrontNBack
    {
        type            empty;
    }
    LeftSide
    {
        type            symmetryPlane;
    }
    RightSide
    {
        type            symmetryPlane;
    }
    procBoundary1to0
    {
        type            processor;
        value           nonuniform List<vector> 5((1.07518e-08 -0.00146368 0) (2.11792e-08 -0.00146368 0) (4.23435e-09 -0.00146368 0) (-2.2789e-08 -0.00146368 0) (-1.63276e-08 -0.00146368 0));
    }
    procBoundary1to2
    {
        type            processor;
        value           nonuniform List<vector> 5((-4.92606e-11 -0.00146244 0) (1.24755e-09 -0.00146244 0) (1.51478e-09 -0.00146244 0) (-1.56274e-09 -0.00146244 0) (-1.4083e-09 -0.00146245 0));
    }
}


// ************************************************************************* //
