/*--------------------------------*- C++ -*----------------------------------*\
| =========                 |                                                 |
| \\      /  F ield         | OpenFOAM: The Open Source CFD Toolbox           |
|  \\    /   O peration     | Version:  2.4.0                                 |
|   \\  /    A nd           | Web:      www.OpenFOAM.org                      |
|    \\/     M anipulation  |                                                 |
\*---------------------------------------------------------------------------*/
FoamFile
{
    version     2.0;
    format      ascii;
    class       volScalarField;
    location    "3.2";
    object      H;
}
// * * * * * * * * * * * * * * * * * * * * * * * * * * * * * * * * * * * * * //

dimensions      [0 2 -2 0 0 0 0];

internalField   nonuniform List<scalar> 
500
(
-11956.1
-11956.2
-11956.3
-11956.2
-11956.1
-11405.7
-11405.9
-11406
-11405.9
-11405.7
-10850
-10850.4
-10850.6
-10850.4
-10850
-10289.8
-10290.3
-10290.6
-10290.3
-10289.8
-9725.71
-9726.32
-9726.7
-9726.31
-9725.71
-9158.38
-9159.11
-9159.57
-9159.1
-9158.37
-8588.52
-8589.37
-8589.9
-8589.35
-8588.51
-8016.84
-8017.79
-8018.39
-8017.78
-8016.83
-7444.02
-7445.07
-7445.72
-7445.05
-7444.02
-6870.69
-6871.81
-6872.49
-6871.79
-6870.69
-6297.4
-6298.55
-6299.25
-6298.54
-6297.39
-5724.55
-5725.71
-5726.4
-5725.7
-5724.54
-5152.37
-5153.51
-5154.17
-5153.5
-5152.37
-4580.89
-4581.95
-4582.55
-4581.94
-4580.88
-4009.81
-4010.76
-4011.27
-4010.75
-4009.8
-3438.55
-3439.34
-3439.73
-3439.33
-3438.54
-2866.16
-2866.75
-2867
-2866.74
-2866.16
-2291.34
-2291.69
-2291.77
-2291.68
-2291.33
-1712.42
-1712.5
-1712.39
-1712.49
-1712.42
-1127.43
-1127.21
-1126.91
-1127.21
-1127.43
-154.723
-154.179
-153.759
-154.18
-154.726
-122.74
-122.284
-121.931
-122.285
-122.742
-122.483
-122.04
-121.697
-122.041
-122.485
-122.018
-121.59
-121.256
-121.592
-122.021
-121.347
-120.935
-120.612
-120.937
-121.35
-120.472
-120.077
-119.765
-120.078
-120.474
-119.395
-119.018
-118.717
-119.019
-119.397
-118.121
-117.762
-117.473
-117.763
-118.123
-116.653
-116.312
-116.037
-116.314
-116.654
-114.997
-114.676
-114.414
-114.677
-114.998
-113.159
-112.859
-112.611
-112.86
-113.16
-111.147
-110.867
-110.633
-110.868
-111.148
-108.968
-108.709
-108.49
-108.71
-108.969
-106.632
-106.394
-106.19
-106.395
-106.633
-104.147
-103.931
-103.742
-103.932
-104.148
-101.525
-101.33
-101.156
-101.331
-101.526
-98.7759
-98.602
-98.4433
-98.6026
-98.7765
-95.9116
-95.7587
-95.6151
-95.7591
-95.9121
-92.9441
-92.8119
-92.6833
-92.8122
-92.9445
-89.886
-89.7741
-89.6603
-89.7743
-89.8863
-86.7503
-86.6581
-86.5588
-86.6582
-86.7505
-83.5501
-83.477
-83.3919
-83.477
-83.5502
-80.2988
-80.2442
-80.1728
-80.244
-80.2988
-77.0101
-76.973
-76.9149
-76.9728
-77.0099
-73.6972
-73.677
-73.6315
-73.6766
-73.697
-70.3738
-70.3693
-70.336
-70.3688
-70.3735
-67.0529
-67.0633
-67.0414
-67.0627
-67.0525
-63.7476
-63.7717
-63.7605
-63.771
-63.7471
-60.4702
-60.507
-60.5058
-60.5062
-60.4697
-57.2329
-57.2811
-57.2892
-57.2802
-57.2323
-54.0471
-54.1056
-54.1222
-54.1046
-54.0464
-50.9235
-50.9911
-51.0153
-50.9901
-50.9228
-47.8721
-47.9478
-47.9788
-47.9467
-47.8714
-44.9023
-44.9847
-45.0217
-44.9835
-44.9015
-42.0223
-42.1103
-42.1525
-42.1091
-42.0215
-39.2395
-39.332
-39.3786
-39.3308
-39.2387
-36.5605
-36.6563
-36.7065
-36.6551
-36.5597
-33.9906
-34.0888
-34.1418
-34.0875
-33.9898
-31.5343
-31.6339
-31.689
-31.6326
-31.5336
-29.1952
-29.2951
-29.3517
-29.2939
-29.1944
-26.9756
-27.075
-27.1324
-27.0738
-26.9748
-24.877
-24.9751
-25.0327
-24.974
-24.8762
-22.8998
-22.996
-23.0532
-22.9949
-22.8991
-21.0437
-21.1373
-21.1936
-21.1362
-21.0431
-19.3075
-19.3978
-19.4529
-19.3968
-19.3068
-17.6889
-17.7756
-17.8289
-17.7746
-17.6883
-16.1852
-16.2679
-16.3192
-16.2669
-16.1846
-14.7928
-14.8712
-14.9202
-14.8703
-14.7923
-13.5078
-13.5815
-13.6281
-13.5807
-13.5073
-12.3254
-12.3944
-12.4383
-12.3936
-12.325
-11.2408
-11.3049
-11.346
-11.3042
-11.2403
-10.2484
-10.3078
-10.3459
-10.3071
-10.2481
-9.34287
-9.39736
-9.43265
-9.39674
-9.34251
-8.51826
-8.56801
-8.60042
-8.56744
-8.51794
-7.76877
-7.81391
-7.84348
-7.8134
-7.76847
-7.08851
-7.12922
-7.15602
-7.12875
-7.08824
-6.47166
-6.50814
-6.53228
-6.50773
-6.47142
-5.91251
-5.945
-5.9666
-5.94463
-5.9123
-5.40553
-5.43427
-5.45347
-5.43394
-5.40535
-4.94539
-4.97065
-4.9876
-4.97036
-4.94523
-4.52703
-4.54908
-4.56395
-4.54883
-4.52689
-4.14567
-4.16479
-4.17774
-4.16458
-4.14556
-3.79687
-3.81333
-3.82453
-3.81315
-3.79677
-3.47649
-3.49056
-3.50018
-3.49041
-3.47641
-3.18076
-3.19269
-3.20089
-3.19256
-3.18068
-2.90622
-2.91627
-2.9232
-2.91616
-2.90616
-2.64979
-2.65818
-2.66399
-2.65809
-2.64974
-2.4087
-2.41565
-2.42048
-2.41557
-2.40866
-2.18051
-2.18621
-2.1902
-2.18615
-2.18047
-1.96308
-1.96772
-1.97099
-1.96767
-1.96306
-1.75458
-1.75832
-1.76096
-1.75828
-1.75456
-1.55342
-1.5564
-1.55852
-1.55637
-1.5534
-1.35826
-1.36061
-1.36228
-1.36058
-1.35825
-1.16799
-1.16982
-1.17112
-1.1698
-1.16798
-0.981692
-0.983081
-0.984084
-0.983066
-0.981685
-0.798608
-0.799641
-0.80039
-0.79963
-0.798603
-0.618136
-0.618876
-0.619414
-0.618868
-0.618133
-0.439794
-0.440287
-0.440648
-0.440282
-0.439791
-0.263191
-0.263474
-0.263681
-0.26347
-0.26319
-0.0880082
-0.0881006
-0.0881685
-0.0880996
-0.0880078
)
;

boundaryField
{
    BotWall
    {
        type            zeroGradient;
    }
    FreeStream
    {
        type            zeroGradient;
    }
    FrontNBack
    {
        type            empty;
    }
    LeftSide
    {
        type            symmetryPlane;
    }
    RightSide
    {
        type            symmetryPlane;
    }
}


// ************************************************************************* //
