/*--------------------------------*- C++ -*----------------------------------*\
| =========                 |                                                 |
| \\      /  F ield         | OpenFOAM: The Open Source CFD Toolbox           |
|  \\    /   O peration     | Version:  2.4.0                                 |
|   \\  /    A nd           | Web:      www.OpenFOAM.org                      |
|    \\/     M anipulation  |                                                 |
\*---------------------------------------------------------------------------*/
FoamFile
{
    version     2.0;
    format      ascii;
    class       volScalarField;
    location    "3.2";
    object      p;
}
// * * * * * * * * * * * * * * * * * * * * * * * * * * * * * * * * * * * * * //

dimensions      [1 -1 -2 0 0 0 0];

internalField   nonuniform List<scalar> 
500
(
0.635888
0.635956
0.636112
0.635876
0.635888
0.606036
0.606107
0.606264
0.606027
0.606036
0.575915
0.575985
0.576143
0.575906
0.575914
0.545414
0.545486
0.545644
0.545406
0.545413
0.514623
0.514697
0.514857
0.514618
0.514622
0.483437
0.483512
0.483674
0.483433
0.483436
0.451955
0.452033
0.452195
0.451954
0.451954
0.420066
0.420145
0.420309
0.420067
0.420065
0.38788
0.387961
0.388126
0.387883
0.387878
0.355285
0.355368
0.355534
0.355289
0.355284
0.322417
0.322503
0.322671
0.322424
0.322416
0.289095
0.289182
0.289352
0.289104
0.289094
0.255187
0.255276
0.255446
0.255198
0.255186
0.220145
0.220231
0.220399
0.220153
0.220143
0.185297
0.18538
0.185547
0.185302
0.185296
0.157285
0.157387
0.157581
0.157308
0.157284
0.146049
0.146253
0.146546
0.146174
0.146048
0.121802
0.122184
0.12253
0.122127
0.121799
-0.091718
-0.0917257
-0.0920562
-0.0917799
-0.09173
-0.713535
-0.715832
-0.718572
-0.715818
-0.713549
-1.18588
-1.19251
-1.19734
-1.19249
-1.18584
-0.016796
-0.0167981
-0.0167993
-0.0167981
-0.016796
-0.0107838
-0.0107832
-0.0107829
-0.0107832
-0.0107838
-0.0126348
-0.0126344
-0.0126342
-0.0126344
-0.0126348
-0.0138058
-0.0138056
-0.0138054
-0.0138056
-0.0138058
-0.0145013
-0.0145012
-0.0145011
-0.0145012
-0.0145013
-0.015109
-0.0151089
-0.0151088
-0.0151089
-0.015109
-0.0157475
-0.0157474
-0.0157473
-0.0157474
-0.0157475
-0.0164116
-0.0164114
-0.0164113
-0.0164114
-0.0164116
-0.0170865
-0.0170864
-0.0170863
-0.0170864
-0.0170865
-0.017768
-0.0177679
-0.0177678
-0.0177679
-0.017768
-0.0184564
-0.0184563
-0.0184562
-0.0184563
-0.0184564
-0.0191524
-0.0191522
-0.0191522
-0.0191522
-0.0191524
-0.0198561
-0.019856
-0.0198559
-0.019856
-0.0198561
-0.0205678
-0.0205676
-0.0205675
-0.0205676
-0.0205678
-0.0212873
-0.0212872
-0.0212871
-0.0212872
-0.0212873
-0.0220149
-0.0220148
-0.0220147
-0.0220148
-0.0220149
-0.0227507
-0.0227505
-0.0227505
-0.0227505
-0.0227507
-0.0234946
-0.0234945
-0.0234944
-0.0234945
-0.0234946
-0.0242468
-0.0242467
-0.0242466
-0.0242467
-0.0242468
-0.0250075
-0.0250073
-0.0250073
-0.0250073
-0.0250075
-0.0257766
-0.0257765
-0.0257764
-0.0257765
-0.0257766
-0.0265543
-0.0265542
-0.0265541
-0.0265542
-0.0265543
-0.0273407
-0.0273405
-0.0273405
-0.0273405
-0.0273407
-0.0281358
-0.0281357
-0.0281356
-0.0281357
-0.0281358
-0.0289398
-0.0289397
-0.0289397
-0.0289397
-0.0289398
-0.0297528
-0.0297527
-0.0297527
-0.0297527
-0.0297528
-0.0305749
-0.0305748
-0.0305747
-0.0305748
-0.0305749
-0.0314061
-0.031406
-0.031406
-0.031406
-0.0314061
-0.0322467
-0.0322466
-0.0322465
-0.0322466
-0.0322467
-0.0330966
-0.0330965
-0.0330964
-0.0330965
-0.0330966
-0.0339559
-0.0339559
-0.0339558
-0.0339559
-0.0339559
-0.0348249
-0.0348248
-0.0348248
-0.0348248
-0.0348249
-0.0357036
-0.0357035
-0.0357034
-0.0357035
-0.0357036
-0.0365921
-0.036592
-0.0365919
-0.036592
-0.0365921
-0.0374904
-0.0374904
-0.0374903
-0.0374904
-0.0374904
-0.0383989
-0.0383988
-0.0383987
-0.0383988
-0.0383989
-0.0393174
-0.0393173
-0.0393173
-0.0393173
-0.0393174
-0.0402462
-0.0402461
-0.0402461
-0.0402461
-0.0402462
-0.0411854
-0.0411853
-0.0411853
-0.0411853
-0.0411854
-0.042135
-0.042135
-0.0421349
-0.042135
-0.042135
-0.0430953
-0.0430952
-0.0430952
-0.0430952
-0.0430953
-0.0440662
-0.0440662
-0.0440661
-0.0440662
-0.0440662
-0.045048
-0.0450479
-0.0450479
-0.0450479
-0.045048
-0.0460408
-0.0460407
-0.0460407
-0.0460407
-0.0460408
-0.0470446
-0.0470445
-0.0470445
-0.0470445
-0.0470446
-0.0480596
-0.0480596
-0.0480595
-0.0480596
-0.0480596
-0.049086
-0.0490859
-0.0490859
-0.0490859
-0.049086
-0.0501238
-0.0501237
-0.0501237
-0.0501237
-0.0501238
-0.0511732
-0.0511731
-0.0511731
-0.0511731
-0.0511732
-0.0522343
-0.0522342
-0.0522342
-0.0522342
-0.0522343
-0.0533072
-0.0533072
-0.0533071
-0.0533072
-0.0533072
-0.0543921
-0.0543921
-0.054392
-0.0543921
-0.0543921
-0.0554891
-0.0554891
-0.0554891
-0.0554891
-0.0554891
-0.0565984
-0.0565983
-0.0565983
-0.0565983
-0.0565984
-0.05772
-0.05772
-0.05772
-0.05772
-0.05772
-0.0588542
-0.0588541
-0.0588541
-0.0588541
-0.0588542
-0.060001
-0.060001
-0.0600009
-0.060001
-0.060001
-0.0611606
-0.0611606
-0.0611605
-0.0611606
-0.0611606
-0.0623331
-0.0623331
-0.0623331
-0.0623331
-0.0623331
-0.0635188
-0.0635187
-0.0635187
-0.0635187
-0.0635188
-0.0647176
-0.0647176
-0.0647176
-0.0647176
-0.0647176
-0.0659299
-0.0659298
-0.0659298
-0.0659298
-0.0659299
-0.0671556
-0.0671556
-0.0671556
-0.0671556
-0.0671556
-0.0683951
-0.0683951
-0.068395
-0.0683951
-0.0683951
-0.0696484
-0.0696483
-0.0696483
-0.0696483
-0.0696484
-0.0709156
-0.0709156
-0.0709156
-0.0709156
-0.0709156
-0.072197
-0.072197
-0.072197
-0.072197
-0.072197
-0.0734927
-0.0734927
-0.0734927
-0.0734927
-0.0734927
-0.0748029
-0.0748029
-0.0748029
-0.0748029
-0.0748029
-0.0761277
-0.0761277
-0.0761276
-0.0761277
-0.0761277
-0.0774672
-0.0774672
-0.0774672
-0.0774672
-0.0774672
-0.0788217
-0.0788217
-0.0788217
-0.0788217
-0.0788217
-0.0801914
-0.0801914
-0.0801913
-0.0801914
-0.0801914
-0.0815763
-0.0815763
-0.0815763
-0.0815763
-0.0815763
-0.0829766
-0.0829766
-0.0829766
-0.0829766
-0.0829766
-0.0843926
-0.0843926
-0.0843926
-0.0843926
-0.0843926
-0.0858244
-0.0858244
-0.0858244
-0.0858244
-0.0858244
-0.0872722
-0.0872722
-0.0872722
-0.0872722
-0.0872722
-0.0887361
-0.0887361
-0.0887361
-0.0887361
-0.0887361
)
;

boundaryField
{
    BotWall
    {
        type            calculated;
        value           nonuniform List<scalar> 5(0.650709 0.650776 0.650932 0.650697 0.650709);
    }
    FreeStream
    {
        type            calculated;
        value           nonuniform List<scalar> 5(-0.0894721 -0.0894721 -0.0894721 -0.0894721 -0.0894721);
    }
    FrontNBack
    {
        type            empty;
    }
    LeftSide
    {
        type            symmetryPlane;
    }
    RightSide
    {
        type            symmetryPlane;
    }
}


// ************************************************************************* //
