/*--------------------------------*- C++ -*----------------------------------*\
| =========                 |                                                 |
| \\      /  F ield         | OpenFOAM: The Open Source CFD Toolbox           |
|  \\    /   O peration     | Version:  2.4.0                                 |
|   \\  /    A nd           | Web:      www.OpenFOAM.org                      |
|    \\/     M anipulation  |                                                 |
\*---------------------------------------------------------------------------*/
FoamFile
{
    version     2.0;
    format      ascii;
    class       volScalarField;
    location    "3.2";
    object      T;
}
// * * * * * * * * * * * * * * * * * * * * * * * * * * * * * * * * * * * * * //

dimensions      [0 0 0 1 0 0 0];

internalField   nonuniform List<scalar> 
500
(
293.112
293.112
293.112
293.112
293.112
293.337
293.337
293.337
293.337
293.337
293.564
293.564
293.564
293.564
293.564
293.793
293.793
293.793
293.793
293.793
294.024
294.024
294.023
294.024
294.024
294.256
294.255
294.255
294.255
294.256
294.489
294.488
294.488
294.488
294.489
294.722
294.722
294.722
294.722
294.722
294.957
294.956
294.956
294.956
294.957
295.191
295.191
295.19
295.191
295.191
295.425
295.425
295.425
295.425
295.425
295.66
295.659
295.659
295.659
295.66
295.894
295.893
295.893
295.893
295.894
296.127
296.127
296.127
296.127
296.127
296.361
296.36
296.36
296.36
296.361
296.594
296.594
296.594
296.594
296.594
296.828
296.828
296.828
296.828
296.828
297.063
297.063
297.063
297.063
297.063
297.3
297.3
297.3
297.3
297.3
297.539
297.539
297.539
297.539
297.539
297.932
297.933
297.933
297.933
297.932
297.933
297.933
297.933
297.933
297.933
297.933
297.933
297.933
297.933
297.933
297.933
297.933
297.933
297.933
297.933
297.933
297.934
297.934
297.934
297.933
297.934
297.934
297.934
297.934
297.934
297.934
297.935
297.935
297.935
297.934
297.935
297.935
297.935
297.935
297.935
297.936
297.936
297.936
297.936
297.936
297.937
297.937
297.937
297.937
297.937
297.938
297.938
297.938
297.938
297.938
297.939
297.939
297.939
297.939
297.939
297.94
297.94
297.94
297.94
297.94
297.941
297.942
297.942
297.942
297.941
297.943
297.943
297.943
297.943
297.943
297.944
297.944
297.944
297.944
297.944
297.946
297.946
297.946
297.946
297.946
297.947
297.947
297.947
297.947
297.947
297.949
297.949
297.949
297.949
297.949
297.951
297.951
297.951
297.951
297.951
297.952
297.952
297.952
297.952
297.952
297.954
297.954
297.954
297.954
297.954
297.956
297.956
297.956
297.956
297.956
297.958
297.958
297.958
297.958
297.958
297.959
297.959
297.96
297.959
297.959
297.961
297.961
297.961
297.961
297.961
297.963
297.963
297.963
297.963
297.963
297.965
297.965
297.965
297.965
297.965
297.967
297.967
297.967
297.967
297.967
297.969
297.969
297.969
297.969
297.969
297.97
297.97
297.97
297.97
297.97
297.972
297.972
297.972
297.972
297.972
297.974
297.974
297.974
297.974
297.974
297.975
297.975
297.975
297.975
297.975
297.977
297.977
297.977
297.977
297.977
297.978
297.978
297.978
297.978
297.978
297.98
297.98
297.98
297.98
297.98
297.981
297.981
297.981
297.981
297.981
297.983
297.983
297.983
297.983
297.983
297.984
297.984
297.984
297.984
297.984
297.985
297.985
297.985
297.985
297.985
297.986
297.986
297.986
297.986
297.986
297.987
297.987
297.987
297.987
297.987
297.988
297.988
297.988
297.988
297.988
297.989
297.989
297.989
297.989
297.989
297.99
297.99
297.99
297.99
297.99
297.991
297.991
297.991
297.991
297.991
297.992
297.992
297.992
297.992
297.992
297.993
297.993
297.993
297.993
297.993
297.993
297.993
297.993
297.993
297.993
297.994
297.994
297.994
297.994
297.994
297.994
297.994
297.994
297.994
297.994
297.995
297.995
297.995
297.995
297.995
297.995
297.995
297.995
297.995
297.995
297.996
297.996
297.996
297.996
297.996
297.996
297.996
297.996
297.996
297.996
297.996
297.996
297.996
297.996
297.996
297.997
297.997
297.997
297.997
297.997
297.997
297.997
297.997
297.997
297.997
297.997
297.997
297.997
297.997
297.997
297.998
297.997
297.997
297.997
297.998
297.998
297.998
297.998
297.998
297.998
297.998
297.998
297.998
297.998
297.998
297.998
297.998
297.998
297.998
297.998
297.998
297.998
297.998
297.998
297.998
297.998
297.998
297.998
297.998
297.998
297.999
297.999
297.999
297.999
297.999
297.999
297.999
297.999
297.999
297.999
297.999
297.999
297.999
297.999
297.999
297.999
297.999
297.999
297.999
297.999
297.999
297.999
297.999
297.999
297.999
297.999
297.999
297.999
297.999
297.999
297.999
297.999
297.999
297.999
297.999
297.999
297.999
297.999
297.999
297.999
297.999
297.999
297.999
297.999
297.999
298
298
298
298
298
298
298
298
298
298
298
298
298
298
298
298
298
298
298
298
298
298
298
298
298
)
;

boundaryField
{
    BotWall
    {
        type            fixedValue;
        value           uniform 293;
    }
    FreeStream
    {
        type            fixedValue;
        value           uniform 298;
    }
    FrontNBack
    {
        type            empty;
    }
    LeftSide
    {
        type            symmetryPlane;
    }
    RightSide
    {
        type            symmetryPlane;
    }
}


// ************************************************************************* //
