/*--------------------------------*- C++ -*----------------------------------*\
| =========                 |                                                 |
| \\      /  F ield         | OpenFOAM: The Open Source CFD Toolbox           |
|  \\    /   O peration     | Version:  2.4.0                                 |
|   \\  /    A nd           | Web:      www.OpenFOAM.org                      |
|    \\/     M anipulation  |                                                 |
\*---------------------------------------------------------------------------*/
FoamFile
{
    version     2.0;
    format      ascii;
    class       volScalarField;
    location    "3.8";
    object      p;
}
// * * * * * * * * * * * * * * * * * * * * * * * * * * * * * * * * * * * * * //

dimensions      [1 -1 -2 0 0 0 0];

internalField   nonuniform List<scalar> 
125
(
-0.014376
-0.0143759
-0.0143759
-0.0143759
-0.014376
-0.0150954
-0.0150954
-0.0150954
-0.0150954
-0.0150954
-0.0157253
-0.0157252
-0.0157252
-0.0157252
-0.0157253
-0.0163743
-0.0163743
-0.0163743
-0.0163743
-0.0163743
-0.0170455
-0.0170455
-0.0170455
-0.0170455
-0.0170455
-0.0177278
-0.0177277
-0.0177277
-0.0177277
-0.0177278
-0.0184172
-0.0184171
-0.0184171
-0.0184171
-0.0184172
-0.0191137
-0.0191136
-0.0191136
-0.0191136
-0.0191137
-0.0198178
-0.0198178
-0.0198178
-0.0198178
-0.0198178
-0.0205298
-0.0205298
-0.0205298
-0.0205298
-0.0205298
-0.0212498
-0.0212498
-0.0212497
-0.0212497
-0.0212498
-0.0219778
-0.0219778
-0.0219778
-0.0219778
-0.0219778
-0.0227139
-0.0227139
-0.0227139
-0.0227139
-0.0227139
-0.0234583
-0.0234583
-0.0234582
-0.0234583
-0.0234583
-0.0242109
-0.0242109
-0.0242109
-0.0242109
-0.0242109
-0.024972
-0.024972
-0.024972
-0.024972
-0.024972
-0.0257415
-0.0257415
-0.0257415
-0.0257415
-0.0257415
-0.0265197
-0.0265196
-0.0265196
-0.0265196
-0.0265197
-0.0273065
-0.0273065
-0.0273065
-0.0273065
-0.0273065
-0.0281021
-0.0281021
-0.0281021
-0.0281021
-0.0281021
-0.0289065
-0.0289065
-0.0289065
-0.0289065
-0.0289065
-0.02972
-0.02972
-0.02972
-0.02972
-0.02972
-0.0305425
-0.0305425
-0.0305425
-0.0305425
-0.0305425
-0.0313742
-0.0313742
-0.0313742
-0.0313742
-0.0313742
-0.0322152
-0.0322152
-0.0322152
-0.0322152
-0.0322152
)
;

boundaryField
{
    BotWall
    {
        type            calculated;
        value           nonuniform 0();
    }
    FreeStream
    {
        type            calculated;
        value           nonuniform 0();
    }
    FrontNBack
    {
        type            empty;
    }
    LeftSide
    {
        type            symmetryPlane;
    }
    RightSide
    {
        type            symmetryPlane;
    }
    procBoundary1to0
    {
        type            processor;
        value           nonuniform List<scalar> 5(-0.0132872 -0.0132872 -0.0132873 -0.0132872 -0.0132872);
    }
    procBoundary1to2
    {
        type            processor;
        value           nonuniform List<scalar> 5(-0.0330656 -0.0330656 -0.0330656 -0.0330656 -0.0330656);
    }
}


// ************************************************************************* //
