/*--------------------------------*- C++ -*----------------------------------*\
| =========                 |                                                 |
| \\      /  F ield         | OpenFOAM: The Open Source CFD Toolbox           |
|  \\    /   O peration     | Version:  2.4.0                                 |
|   \\  /    A nd           | Web:      www.OpenFOAM.org                      |
|    \\/     M anipulation  |                                                 |
\*---------------------------------------------------------------------------*/
FoamFile
{
    version     2.0;
    format      ascii;
    class       volVectorField;
    location    "3.8";
    object      U;
}
// * * * * * * * * * * * * * * * * * * * * * * * * * * * * * * * * * * * * * //

dimensions      [0 1 -1 0 0 0 0];

internalField   nonuniform List<vector> 
125
(
(1.17652e-07 -0.00105973 0)
(2.49194e-07 -0.00105976 0)
(5.45897e-08 -0.00105979 0)
(-2.6613e-07 -0.00105977 0)
(-1.86809e-07 -0.00105972 0)
(1.12596e-07 -0.00107651 0)
(2.38385e-07 -0.00107652 0)
(5.208e-08 -0.00107653 0)
(-2.54212e-07 -0.00107652 0)
(-1.78032e-07 -0.00107651 0)
(1.07724e-07 -0.00109696 0)
(2.2798e-07 -0.00109696 0)
(4.96777e-08 -0.00109697 0)
(-2.42747e-07 -0.00109697 0)
(-1.69611e-07 -0.00109696 0)
(1.02935e-07 -0.0011011 0)
(2.17805e-07 -0.0011011 0)
(4.73497e-08 -0.00110111 0)
(-2.31549e-07 -0.00110111 0)
(-1.614e-07 -0.0011011 0)
(9.82459e-08 -0.00110022 0)
(2.07864e-07 -0.00110022 0)
(4.50901e-08 -0.00110022 0)
(-2.2062e-07 -0.00110022 0)
(-1.53407e-07 -0.00110022 0)
(9.36784e-08 -0.00109941 0)
(1.98182e-07 -0.0010994 0)
(4.28998e-08 -0.0010994 0)
(-2.09985e-07 -0.0010994 0)
(-1.45654e-07 -0.00109941 0)
(8.92351e-08 -0.00109924 0)
(1.88763e-07 -0.00109923 0)
(4.0779e-08 -0.00109922 0)
(-1.99648e-07 -0.00109923 0)
(-1.38143e-07 -0.00109924 0)
(8.49132e-08 -0.00109928 0)
(1.79605e-07 -0.00109927 0)
(3.87271e-08 -0.00109926 0)
(-1.89607e-07 -0.00109926 0)
(-1.30869e-07 -0.00109928 0)
(8.07108e-08 -0.00109931 0)
(1.70704e-07 -0.0010993 0)
(3.67429e-08 -0.00109929 0)
(-1.79857e-07 -0.0010993 0)
(-1.23828e-07 -0.00109932 0)
(7.66268e-08 -0.00109932 0)
(1.62058e-07 -0.0010993 0)
(3.48254e-08 -0.00109929 0)
(-1.70395e-07 -0.0010993 0)
(-1.17016e-07 -0.00109933 0)
(7.26605e-08 -0.00109932 0)
(1.53665e-07 -0.0010993 0)
(3.29737e-08 -0.00109929 0)
(-1.61219e-07 -0.0010993 0)
(-1.1043e-07 -0.00109933 0)
(6.88111e-08 -0.00109933 0)
(1.45523e-07 -0.0010993 0)
(3.11865e-08 -0.00109928 0)
(-1.52327e-07 -0.0010993 0)
(-1.04068e-07 -0.00109933 0)
(6.50776e-08 -0.00109933 0)
(1.37629e-07 -0.0010993 0)
(2.94628e-08 -0.00109928 0)
(-1.43715e-07 -0.00109929 0)
(-9.79255e-08 -0.00109933 0)
(6.1459e-08 -0.00109933 0)
(1.29982e-07 -0.0010993 0)
(2.78017e-08 -0.00109928 0)
(-1.3538e-07 -0.00109929 0)
(-9.19995e-08 -0.00109933 0)
(5.79543e-08 -0.00109933 0)
(1.22579e-07 -0.0010993 0)
(2.62019e-08 -0.00109927 0)
(-1.2732e-07 -0.00109929 0)
(-8.62867e-08 -0.00109934 0)
(5.45622e-08 -0.00109933 0)
(1.15417e-07 -0.0010993 0)
(2.46623e-08 -0.00109927 0)
(-1.19531e-07 -0.00109929 0)
(-8.07834e-08 -0.00109934 0)
(5.12817e-08 -0.00109934 0)
(1.08494e-07 -0.0010993 0)
(2.31819e-08 -0.00109927 0)
(-1.12011e-07 -0.00109929 0)
(-7.54862e-08 -0.00109934 0)
(4.81114e-08 -0.00109934 0)
(1.01806e-07 -0.0010993 0)
(2.17594e-08 -0.00109927 0)
(-1.04754e-07 -0.00109929 0)
(-7.03915e-08 -0.00109934 0)
(4.50503e-08 -0.00109934 0)
(9.5352e-08 -0.0010993 0)
(2.03939e-08 -0.00109926 0)
(-9.77594e-08 -0.00109929 0)
(-6.54957e-08 -0.00109935 0)
(4.20969e-08 -0.00109934 0)
(8.91278e-08 -0.0010993 0)
(1.90839e-08 -0.00109926 0)
(-9.10218e-08 -0.00109929 0)
(-6.07951e-08 -0.00109935 0)
(3.92499e-08 -0.00109934 0)
(8.31306e-08 -0.0010993 0)
(1.78285e-08 -0.00109926 0)
(-8.45381e-08 -0.00109929 0)
(-5.62859e-08 -0.00109935 0)
(3.6508e-08 -0.00109934 0)
(7.73573e-08 -0.0010993 0)
(1.66265e-08 -0.00109926 0)
(-7.83044e-08 -0.00109929 0)
(-5.19646e-08 -0.00109935 0)
(3.38697e-08 -0.00109934 0)
(7.18048e-08 -0.0010993 0)
(1.54766e-08 -0.00109926 0)
(-7.23169e-08 -0.00109928 0)
(-4.78272e-08 -0.00109935 0)
(3.13334e-08 -0.00109935 0)
(6.64696e-08 -0.0010993 0)
(1.43777e-08 -0.00109925 0)
(-6.65717e-08 -0.00109928 0)
(-4.38701e-08 -0.00109935 0)
(2.88978e-08 -0.00109935 0)
(6.13485e-08 -0.0010993 0)
(1.33285e-08 -0.00109925 0)
(-6.10646e-08 -0.00109928 0)
(-4.00894e-08 -0.00109935 0)
)
;

boundaryField
{
    BotWall
    {
        type            fixedValue;
        value           nonuniform 0();
    }
    FreeStream
    {
        type            zeroGradient;
    }
    FrontNBack
    {
        type            empty;
    }
    LeftSide
    {
        type            symmetryPlane;
    }
    RightSide
    {
        type            symmetryPlane;
    }
    procBoundary1to0
    {
        type            processor;
        value           nonuniform List<vector> 5((1.23154e-07 -0.00114008 0) (2.60743e-07 -0.00114015 0) (5.72416e-08 -0.0011402 0) (-2.78848e-07 -0.00114017 0) (-1.96251e-07 -0.00114008 0));
    }
    procBoundary1to2
    {
        type            processor;
        value           nonuniform List<vector> 5((2.65612e-08 -0.00109935 0) (5.64379e-08 -0.0010993 0) (1.2328e-08 -0.00109925 0) (-5.57916e-08 -0.00109928 0) (-3.64813e-08 -0.00109936 0));
    }
}


// ************************************************************************* //
