/*--------------------------------*- C++ -*----------------------------------*\
| =========                 |                                                 |
| \\      /  F ield         | OpenFOAM: The Open Source CFD Toolbox           |
|  \\    /   O peration     | Version:  2.4.0                                 |
|   \\  /    A nd           | Web:      www.OpenFOAM.org                      |
|    \\/     M anipulation  |                                                 |
\*---------------------------------------------------------------------------*/
FoamFile
{
    version     2.0;
    format      ascii;
    class       surfaceScalarField;
    location    "0.5";
    object      phi;
}
// * * * * * * * * * * * * * * * * * * * * * * * * * * * * * * * * * * * * * //

dimensions      [0 3 -1 0 0 0 0];

internalField   nonuniform List<scalar> 
15580
(
-1.47371e-14
-3.44807e-12
-5.83651e-14
-1.0205e-11
-1.30585e-13
-1.68225e-11
-2.31251e-13
-2.33002e-11
-3.60237e-13
-2.9638e-11
-5.17443e-13
-3.58357e-11
-7.02794e-13
-4.18932e-11
-9.16236e-13
-4.78103e-11
-1.15774e-12
-5.35869e-11
-1.42729e-12
-5.92228e-11
-1.72491e-12
-6.47179e-11
-2.05063e-12
-7.0072e-11
-2.40451e-12
-7.5285e-11
-2.78663e-12
-8.03567e-11
-3.19709e-12
-8.52871e-11
-3.63602e-12
-9.00758e-11
-4.10355e-12
-9.47229e-11
-4.59985e-12
-9.92281e-11
-5.12511e-12
-1.03591e-10
-5.67954e-12
-1.07812e-10
-6.26335e-12
-1.11891e-10
-6.8768e-12
-1.15828e-10
-7.52015e-12
-1.19621e-10
-8.19368e-12
-1.23273e-10
-8.8977e-12
-1.26781e-10
-9.63253e-12
-1.30146e-10
-1.03985e-11
-1.33368e-10
-1.1196e-11
-1.36447e-10
-1.20253e-11
-1.39382e-10
-1.2887e-11
-1.42173e-10
-1.37813e-11
-1.44821e-10
-1.47087e-11
-1.47325e-10
-1.56697e-11
-1.49684e-10
-1.66648e-11
-1.51899e-10
-1.76943e-11
-1.5397e-10
-1.87589e-11
-1.55897e-10
-1.98591e-11
-1.57678e-10
-2.09953e-11
-1.59314e-10
-2.21682e-11
-1.60806e-10
-2.33785e-11
-1.62152e-10
-2.46266e-11
-1.63352e-10
-2.59133e-11
-1.64407e-10
-2.72393e-11
-1.65316e-10
-2.86054e-11
-1.66079e-10
-3.00122e-11
-1.66696e-10
-3.14606e-11
-1.67167e-10
-3.30856e-11
-1.67491e-10
-3.4615e-11
-1.67679e-10
-3.6176e-11
-1.67759e-10
-1.67763e-10
-3.77423e-11
-1.48283e-14
-3.43324e-12
-6.00105e-14
-1.01598e-11
-1.35769e-13
-1.67467e-11
-2.42101e-13
-2.31939e-11
-3.79016e-13
-2.95011e-11
-5.46529e-13
-3.56682e-11
-7.44665e-13
-4.16951e-11
-9.73459e-13
-4.75815e-11
-1.23295e-12
-5.33274e-11
-1.5232e-12
-5.89326e-11
-1.84426e-12
-6.43968e-11
-2.19622e-12
-6.972e-11
-2.57917e-12
-7.49021e-11
-2.9932e-12
-7.99427e-11
-3.43845e-12
-8.48418e-11
-3.91505e-12
-8.95992e-11
-4.42315e-12
-9.42148e-11
-4.96292e-12
-9.86884e-11
-5.53455e-12
-1.0302e-10
-6.13824e-12
-1.07209e-10
-6.77421e-12
-1.11255e-10
-7.44272e-12
-1.15159e-10
-8.14402e-12
-1.1892e-10
-8.87839e-12
-1.22538e-10
-9.64615e-12
-1.26013e-10
-1.04476e-11
-1.29344e-10
-1.12831e-11
-1.32532e-10
-1.21531e-11
-1.35577e-10
-1.30579e-11
-1.38477e-10
-1.39979e-11
-1.41233e-10
-1.49737e-11
-1.43845e-10
-1.59856e-11
-1.46313e-10
-1.70343e-11
-1.48636e-10
-1.81202e-11
-1.50814e-10
-1.9244e-11
-1.52847e-10
-2.04063e-11
-1.54734e-10
-2.16076e-11
-1.56477e-10
-2.28489e-11
-1.58073e-10
-2.41308e-11
-1.59524e-10
-2.54541e-11
-1.60828e-10
-2.68198e-11
-1.61987e-10
-2.82287e-11
-1.62998e-10
-2.96819e-11
-1.63863e-10
-3.11805e-11
-1.64581e-10
-3.27259e-11
-1.65151e-10
-3.43193e-11
-1.65573e-10
-3.60705e-11
-1.65851e-10
-3.77477e-11
-1.66003e-10
-3.94641e-11
-1.66043e-10
-1.6604e-10
-4.11879e-11
-1.8143e-14
-3.4151e-12
-7.16707e-14
-1.01063e-11
-1.6019e-13
-1.66582e-11
-2.83578e-13
-2.30705e-11
-4.41754e-13
-2.93429e-11
-6.34667e-13
-3.54753e-11
-8.62295e-13
-4.14675e-11
-1.12464e-12
-4.73192e-11
-1.42174e-12
-5.30303e-11
-1.75364e-12
-5.86007e-11
-2.12043e-12
-6.403e-11
-2.52221e-12
-6.93183e-11
-2.95911e-12
-7.44652e-11
-3.43129e-12
-7.94705e-11
-3.93891e-12
-8.43342e-11
-4.48218e-12
-8.9056e-11
-5.06132e-12
-9.36357e-11
-5.67658e-12
-9.80731e-11
-6.32822e-12
-1.02368e-10
-7.01654e-12
-1.0652e-10
-7.74186e-12
-1.1053e-10
-8.50451e-12
-1.14397e-10
-9.30485e-12
-1.1812e-10
-1.01433e-11
-1.217e-10
-1.10202e-11
-1.25136e-10
-1.19361e-11
-1.28429e-10
-1.28914e-11
-1.31577e-10
-1.38865e-11
-1.34581e-10
-1.49221e-11
-1.37441e-10
-1.59985e-11
-1.40157e-10
-1.71165e-11
-1.42727e-10
-1.82766e-11
-1.45153e-10
-1.94793e-11
-1.47433e-10
-2.07254e-11
-1.49567e-10
-2.20154e-11
-1.51557e-10
-2.33501e-11
-1.534e-10
-2.47301e-11
-1.55097e-10
-2.61561e-11
-1.56647e-10
-2.7629e-11
-1.58051e-10
-2.91493e-11
-1.59308e-10
-3.07178e-11
-1.60418e-10
-3.23354e-11
-1.61381e-10
-3.40028e-11
-1.62196e-10
-3.57206e-11
-1.62863e-10
-3.74887e-11
-1.63383e-10
-3.94821e-11
-1.63754e-10
-4.13837e-11
-1.63984e-10
-4.32849e-11
-1.64102e-10
-4.52052e-11
-1.64122e-10
-1.64116e-10
-4.71289e-11
-1.87695e-14
-3.39633e-12
-7.55028e-14
-1.00496e-11
-1.70354e-13
-1.65633e-11
-3.03343e-13
-2.29375e-11
-4.74501e-13
-2.91717e-11
-6.83863e-13
-3.52659e-11
-9.31474e-13
-4.12198e-11
-1.2174e-12
-4.70333e-11
-1.54172e-12
-5.2706e-11
-1.90454e-12
-5.82378e-11
-2.30599e-12
-6.36286e-11
-2.7462e-12
-6.88781e-11
-3.22535e-12
-7.3986e-11
-3.74362e-12
-7.89522e-11
-4.30123e-12
-8.37766e-11
-4.8984e-12
-8.84588e-11
-5.53538e-12
-9.29987e-11
-6.21247e-12
-9.7396e-11
-6.92994e-12
-1.01651e-10
-7.68814e-12
-1.05762e-10
-8.48739e-12
-1.09731e-10
-9.32807e-12
-1.13556e-10
-1.02106e-11
-1.17237e-10
-1.11353e-11
-1.20775e-10
-1.21027e-11
-1.24169e-10
-1.31133e-11
-1.27418e-10
-1.41674e-11
-1.30523e-10
-1.52657e-11
-1.33483e-10
-1.64087e-11
-1.36298e-10
-1.75968e-11
-1.38969e-10
-1.88307e-11
-1.41493e-10
-2.0111e-11
-1.43872e-10
-2.14383e-11
-1.46105e-10
-2.28132e-11
-1.48193e-10
-2.42365e-11
-1.50133e-10
-2.57087e-11
-1.51927e-10
-2.72305e-11
-1.53575e-10
-2.88028e-11
-1.55075e-10
-3.04263e-11
-1.56428e-10
-3.21016e-11
-1.57633e-10
-3.38297e-11
-1.5869e-10
-3.56111e-11
-1.59599e-10
-3.7447e-11
-1.6036e-10
-3.9339e-11
-1.60971e-10
-4.12892e-11
-1.61432e-10
-4.34436e-11
-1.61751e-10
-4.54929e-11
-1.61936e-10
-4.75863e-11
-1.62009e-10
-4.96844e-11
-1.62024e-10
-1.62006e-10
-5.17946e-11
-2.06451e-14
-3.37568e-12
-8.2504e-14
-9.98771e-12
-1.85626e-13
-1.64602e-11
-3.30105e-13
-2.2793e-11
-5.16022e-13
-2.89858e-11
-7.43452e-13
-3.50385e-11
-1.01248e-12
-4.09508e-11
-1.32321e-12
-4.67225e-11
-1.67575e-12
-5.23535e-11
-2.07025e-12
-5.78433e-11
-2.50687e-12
-6.3192e-11
-2.98577e-12
-6.83992e-11
-3.50715e-12
-7.34646e-11
-4.07122e-12
-7.83882e-11
-4.67822e-12
-8.31696e-11
-5.32841e-12
-8.78086e-11
-6.02205e-12
-9.2305e-11
-6.75944e-12
-9.66586e-11
-7.54089e-12
-1.00869e-10
-8.36675e-12
-1.04936e-10
-9.23737e-12
-1.0886e-10
-1.01531e-11
-1.1264e-10
-1.11144e-11
-1.16276e-10
-1.21217e-11
-1.19768e-10
-1.31754e-11
-1.23115e-10
-1.4276e-11
-1.26317e-10
-1.54241e-11
-1.29375e-10
-1.662e-11
-1.32287e-10
-1.78644e-11
-1.35054e-10
-1.91578e-11
-1.37675e-10
-2.05009e-11
-1.4015e-10
-2.18942e-11
-1.42479e-10
-2.33385e-11
-1.44661e-10
-2.48344e-11
-1.46697e-10
-2.63826e-11
-1.48585e-10
-2.79839e-11
-1.50326e-10
-2.9639e-11
-1.5192e-10
-3.13488e-11
-1.53365e-10
-3.31141e-11
-1.54662e-10
-3.49357e-11
-1.55811e-10
-3.68147e-11
-1.56811e-10
-3.87521e-11
-1.57662e-10
-4.07485e-11
-1.58363e-10
-4.28035e-11
-1.58916e-10
-4.58325e-11
-1.5932e-10
-4.81128e-11
-1.59576e-10
-5.03297e-11
-1.59719e-10
-5.25815e-11
-1.59757e-10
-5.48379e-11
-1.59768e-10
-1.59707e-10
-5.71369e-11
-2.2659e-14
-3.35302e-12
-9.07089e-14
-9.91966e-12
-2.04197e-13
-1.63467e-11
-3.63161e-13
-2.2634e-11
-5.67656e-13
-2.87813e-11
-8.17751e-13
-3.47884e-11
-1.11353e-12
-4.0655e-11
-1.45511e-12
-4.6381e-11
-1.84261e-12
-5.1966e-11
-2.2762e-12
-5.74098e-11
-2.75605e-12
-6.27121e-11
-3.28237e-12
-6.78728e-11
-3.85538e-12
-7.28916e-11
-4.47534e-12
-7.77682e-11
-5.14252e-12
-8.25024e-11
-5.85721e-12
-8.70939e-11
-6.61974e-12
-9.15425e-11
-7.43045e-12
-9.58479e-11
-8.2897e-12
-1.0001e-10
-9.1979e-12
-1.04028e-10
-1.01554e-11
-1.07903e-10
-1.11628e-11
-1.11633e-10
-1.22204e-11
-1.15218e-10
-1.33287e-11
-1.18659e-10
-1.44883e-11
-1.21955e-10
-1.56997e-11
-1.25106e-10
-1.69635e-11
-1.28111e-10
-1.82801e-11
-1.30971e-10
-1.96503e-11
-1.33684e-10
-2.10747e-11
-1.36251e-10
-2.2554e-11
-1.38671e-10
-2.40887e-11
-1.40944e-10
-2.56797e-11
-1.4307e-10
-2.73276e-11
-1.45049e-10
-2.90332e-11
-1.46879e-10
-3.07974e-11
-1.48562e-10
-3.26208e-11
-1.50096e-10
-3.45043e-11
-1.51481e-10
-3.64489e-11
-1.52718e-10
-3.84552e-11
-1.53805e-10
-4.05243e-11
-1.54742e-10
-4.2657e-11
-1.55529e-10
-4.48541e-11
-1.56166e-10
-4.71173e-11
-1.56653e-10
-4.96427e-11
-1.56989e-10
-5.20274e-11
-1.57193e-10
-5.44597e-11
-1.57287e-10
-5.69012e-11
-1.57316e-10
-5.93491e-11
-1.5732e-10
-1.57121e-10
-6.19351e-11
-2.43681e-14
-3.32865e-12
-9.73768e-14
-9.84665e-12
-2.19047e-13
-1.62251e-11
-3.89473e-13
-2.24636e-11
-6.08778e-13
-2.8562e-11
-8.77099e-13
-3.45201e-11
-1.1946e-12
-4.03375e-11
-1.56144e-12
-4.60141e-11
-1.97783e-12
-5.15496e-11
-2.44397e-12
-5.69436e-11
-2.96009e-12
-6.2196e-11
-3.52644e-12
-6.73065e-11
-4.1433e-12
-7.22747e-11
-4.81096e-12
-7.71006e-11
-5.52972e-12
-8.17836e-11
-6.29992e-12
-8.63237e-11
-7.12192e-12
-9.07205e-11
-7.99609e-12
-9.49738e-11
-8.92283e-12
-9.90832e-11
-9.90256e-12
-1.03048e-10
-1.09357e-11
-1.06869e-10
-1.20228e-11
-1.10546e-10
-1.31643e-11
-1.14077e-10
-1.43607e-11
-1.17463e-10
-1.56125e-11
-1.20704e-10
-1.69204e-11
-1.23798e-10
-1.82848e-11
-1.26747e-10
-1.97065e-11
-1.29549e-10
-2.1186e-11
-1.32204e-10
-2.27241e-11
-1.34713e-10
-2.43214e-11
-1.37074e-10
-2.59787e-11
-1.39287e-10
-2.76966e-11
-1.41352e-10
-2.9476e-11
-1.43269e-10
-3.13176e-11
-1.45038e-10
-3.32224e-11
-1.46657e-10
-3.51912e-11
-1.48127e-10
-3.72248e-11
-1.49448e-10
-3.93242e-11
-1.50618e-10
-4.14904e-11
-1.51639e-10
-4.37243e-11
-1.52508e-10
-4.6027e-11
-1.53226e-10
-4.83996e-11
-1.53794e-10
-5.08432e-11
-1.54209e-10
-5.34934e-11
-1.54481e-10
-5.60502e-11
-1.54638e-10
-5.86472e-11
-1.5469e-10
-6.12483e-11
-1.54714e-10
-6.38798e-11
-1.54688e-10
-1.54141e-10
-6.68595e-11
-2.61688e-14
-3.30249e-12
-1.04931e-13
-9.76789e-12
-2.36412e-13
-1.60936e-11
-4.20689e-13
-2.22793e-11
-6.57866e-13
-2.83248e-11
-9.48074e-13
-3.42299e-11
-1.29147e-12
-3.99941e-11
-1.68823e-12
-4.56174e-11
-2.13855e-12
-5.10992e-11
-2.64265e-12
-5.64395e-11
-3.20079e-12
-6.16379e-11
-3.81322e-12
-6.6694e-11
-4.48023e-12
-7.16077e-11
-5.20214e-12
-7.63786e-11
-5.97928e-12
-8.10065e-11
-6.81201e-12
-8.5491e-11
-7.7007e-12
-8.98318e-11
-8.64575e-12
-9.40287e-11
-9.6476e-12
-9.80813e-11
-1.07067e-11
-1.01989e-10
-1.18235e-11
-1.05753e-10
-1.29985e-11
-1.09371e-10
-1.42322e-11
-1.12843e-10
-1.55252e-11
-1.1617e-10
-1.68779e-11
-1.19351e-10
-1.82911e-11
-1.22385e-10
-1.97653e-11
-1.25273e-10
-2.13011e-11
-1.28013e-10
-2.28993e-11
-1.30606e-10
-2.45603e-11
-1.33052e-10
-2.62851e-11
-1.35349e-10
-2.80742e-11
-1.37498e-10
-2.99285e-11
-1.39498e-10
-3.18487e-11
-1.41349e-10
-3.38356e-11
-1.43051e-10
-3.589e-11
-1.44603e-10
-3.80127e-11
-1.46005e-10
-4.02047e-11
-1.47256e-10
-4.24667e-11
-1.48356e-10
-4.47998e-11
-1.49305e-10
-4.72049e-11
-1.50103e-10
-4.96829e-11
-1.50748e-10
-5.22347e-11
-1.51242e-10
-5.50962e-11
-1.51585e-10
-5.77831e-11
-1.51796e-10
-6.05227e-11
-1.51898e-10
-6.32749e-11
-1.51938e-10
-6.60316e-11
-1.51958e-10
-6.88942e-11
-1.51826e-10
-1.50743e-10
-7.2292e-11
-2.82211e-14
-3.27427e-12
-1.12723e-13
-9.68339e-12
-2.53525e-13
-1.59528e-11
-4.50746e-13
-2.20821e-11
-7.04532e-13
-2.80711e-11
-1.01505e-12
-3.39194e-11
-1.3825e-12
-3.96267e-11
-1.80709e-12
-4.51928e-11
-2.28906e-12
-5.06173e-11
-2.82867e-12
-5.58999e-11
-3.42619e-12
-6.10404e-11
-4.08192e-12
-6.60383e-11
-4.79618e-12
-7.08935e-11
-5.56932e-12
-7.56055e-11
-6.40169e-12
-8.01741e-11
-7.29368e-12
-8.4599e-11
-8.2457e-12
-8.88798e-11
-9.25817e-12
-9.30162e-11
-1.03315e-11
-9.70079e-11
-1.14663e-11
-1.00855e-10
-1.26629e-11
-1.04556e-10
-1.39219e-11
-1.08112e-10
-1.52438e-11
-1.11521e-10
-1.66292e-11
-1.14785e-10
-1.80787e-11
-1.17901e-10
-1.95929e-11
-1.20871e-10
-2.11724e-11
-1.23693e-10
-2.28178e-11
-1.26368e-10
-2.45298e-11
-1.28894e-10
-2.63092e-11
-1.31272e-10
-2.81567e-11
-1.33501e-10
-3.00729e-11
-1.35582e-10
-3.20587e-11
-1.37512e-10
-3.41148e-11
-1.39293e-10
-3.6242e-11
-1.40924e-10
-3.84412e-11
-1.42404e-10
-4.07132e-11
-1.43733e-10
-4.30588e-11
-1.4491e-10
-4.5479e-11
-1.45936e-10
-4.79747e-11
-1.4681e-10
-5.05466e-11
-1.47531e-10
-5.31956e-11
-1.48099e-10
-5.60818e-11
-1.48515e-10
-5.90144e-11
-1.48787e-10
-6.18642e-11
-1.48947e-10
-6.47551e-11
-1.49007e-10
-6.76483e-11
-1.49044e-10
-7.05698e-11
-1.49036e-10
-7.37779e-11
-1.48618e-10
-1.47137e-10
-7.73846e-11
-2.96663e-14
-3.2446e-12
-1.19075e-13
-9.59398e-12
-2.68459e-13
-1.58034e-11
-4.7798e-13
-2.18726e-11
-7.4782e-13
-2.78012e-11
-1.07818e-12
-3.3589e-11
-1.46928e-12
-3.92356e-11
-1.92136e-12
-4.47407e-11
-2.43468e-12
-5.0104e-11
-3.00952e-12
-5.53251e-11
-3.64617e-12
-6.04037e-11
-4.34495e-12
-6.53395e-11
-5.1062e-12
-7.01322e-11
-5.93027e-12
-7.47814e-11
-6.81753e-12
-7.92869e-11
-7.7684e-12
-8.36481e-11
-8.78328e-12
-8.78649e-11
-9.86262e-12
-9.19369e-11
-1.10069e-11
-9.58637e-11
-1.22165e-11
-9.9645e-11
-1.34921e-11
-1.0328e-10
-1.4834e-11
-1.0677e-10
-1.6243e-11
-1.10112e-10
-1.77195e-11
-1.13308e-10
-1.92641e-11
-1.16357e-10
-2.08774e-11
-1.19258e-10
-2.25601e-11
-1.2201e-10
-2.43128e-11
-1.24615e-10
-2.61363e-11
-1.27071e-10
-2.80311e-11
-1.29377e-10
-2.99981e-11
-1.31534e-10
-3.20379e-11
-1.33542e-10
-3.41513e-11
-1.35399e-10
-3.63392e-11
-1.37105e-10
-3.86023e-11
-1.38661e-10
-4.09415e-11
-1.40064e-10
-4.33576e-11
-1.41317e-10
-4.58516e-11
-1.42416e-10
-4.84242e-11
-1.43363e-10
-5.10766e-11
-1.44157e-10
-5.38095e-11
-1.44798e-10
-5.6624e-11
-1.45285e-10
-5.97909e-11
-1.45622e-10
-6.27498e-11
-1.45831e-10
-6.57641e-11
-1.45932e-10
-6.87893e-11
-1.45982e-10
-7.18195e-11
-1.46014e-10
-7.49528e-11
-1.45903e-10
-7.85313e-11
-1.45039e-10
-1.43473e-10
-8.21952e-11
-3.20218e-14
-3.21258e-12
-1.2794e-13
-9.49806e-12
-2.87793e-13
-1.56435e-11
-5.11726e-13
-2.16487e-11
-7.99907e-13
-2.7513e-11
-1.15253e-12
-3.32364e-11
-1.56981e-12
-3.88183e-11
-2.052e-12
-4.42585e-11
-2.59934e-12
-4.95566e-11
-3.21214e-12
-5.47123e-11
-3.89069e-12
-5.97252e-11
-4.63532e-12
-6.45949e-11
-5.44638e-12
-6.93212e-11
-6.32424e-12
-7.39036e-11
-7.26929e-12
-7.83418e-11
-8.28196e-12
-8.26355e-11
-9.36266e-12
-8.67842e-11
-1.05119e-11
-9.07877e-11
-1.173e-11
-9.46455e-11
-1.30177e-11
-9.83574e-11
-1.43753e-11
-1.01923e-10
-1.58035e-11
-1.05342e-10
-1.73027e-11
-1.08613e-10
-1.88737e-11
-1.11737e-10
-2.05169e-11
-1.14713e-10
-2.2233e-11
-1.17541e-10
-2.40227e-11
-1.20221e-10
-2.58866e-11
-1.22751e-10
-2.78254e-11
-1.25132e-10
-2.98398e-11
-1.27363e-10
-3.19306e-11
-1.29444e-10
-3.40986e-11
-1.31374e-10
-3.63444e-11
-1.33153e-10
-3.8669e-11
-1.34781e-10
-4.10731e-11
-1.36256e-10
-4.35577e-11
-1.3758e-10
-4.61235e-11
-1.38751e-10
-4.87716e-11
-1.39768e-10
-5.15029e-11
-1.40632e-10
-5.43181e-11
-1.41342e-10
-5.72178e-11
-1.41898e-10
-6.03673e-11
-1.423e-10
-6.35693e-11
-1.42563e-10
-6.66853e-11
-1.42715e-10
-6.98387e-11
-1.42779e-10
-7.29922e-11
-1.42828e-10
-7.61767e-11
-1.4283e-10
-7.96201e-11
-1.4246e-10
-8.33691e-11
-1.4129e-10
-1.39806e-10
-8.70362e-11
-3.3323e-14
-3.17925e-12
-1.33639e-13
-9.39775e-12
-3.01191e-13
-1.5476e-11
-5.3618e-13
-2.14137e-11
-8.38829e-13
-2.72104e-11
-1.20938e-12
-3.28658e-11
-1.64808e-12
-3.83796e-11
-2.15521e-12
-4.37514e-11
-2.73107e-12
-4.89808e-11
-3.37595e-12
-5.40674e-11
-4.0902e-12
-5.90109e-11
-4.87414e-12
-6.3811e-11
-5.72814e-12
-6.84672e-11
-6.65259e-12
-7.29791e-11
-7.64788e-12
-7.73465e-11
-8.71443e-12
-8.15689e-11
-9.85267e-12
-8.5646e-11
-1.10631e-11
-8.95773e-11
-1.23461e-11
-9.33625e-11
-1.37022e-11
-9.70012e-11
-1.5132e-11
-1.00493e-10
-1.66359e-11
-1.03838e-10
-1.82146e-11
-1.07034e-10
-1.98685e-11
-1.10083e-10
-2.15983e-11
-1.12984e-10
-2.34046e-11
-1.15735e-10
-2.52881e-11
-1.18337e-10
-2.72493e-11
-1.2079e-10
-2.9289e-11
-1.23092e-10
-3.14078e-11
-1.25244e-10
-3.36065e-11
-1.27245e-10
-3.58858e-11
-1.29095e-10
-3.82464e-11
-1.30792e-10
-4.06893e-11
-1.32338e-10
-4.3215e-11
-1.33731e-10
-4.58246e-11
-1.3497e-10
-4.85188e-11
-1.36056e-10
-5.12985e-11
-1.36989e-10
-5.41647e-11
-1.37766e-10
-5.71186e-11
-1.38388e-10
-6.01616e-11
-1.38855e-10
-6.35944e-11
-1.39176e-10
-6.67846e-11
-1.39376e-10
-7.00285e-11
-1.39471e-10
-7.32788e-11
-1.39529e-10
-7.65372e-11
-1.3957e-10
-7.9906e-11
-1.39461e-10
-8.363e-11
-1.38736e-10
-8.74009e-11
-1.37519e-10
-1.36141e-10
-9.1066e-11
-3.53628e-14
-3.14389e-12
-1.41572e-13
-9.29154e-12
-3.18795e-13
-1.52988e-11
-5.67231e-13
-2.11652e-11
-8.87096e-13
-2.68905e-11
-1.27862e-12
-3.24743e-11
-1.74206e-12
-3.79162e-11
-2.27768e-12
-4.32158e-11
-2.88576e-12
-4.83727e-11
-3.56662e-12
-5.33865e-11
-4.32057e-12
-5.8257e-11
-5.14794e-12
-6.29836e-11
-6.04911e-12
-6.7566e-11
-7.02445e-12
-7.20038e-11
-8.07435e-12
-7.62966e-11
-9.19924e-12
-8.0444e-11
-1.03995e-11
-8.44457e-11
-1.16757e-11
-8.83011e-11
-1.30282e-11
-9.201e-11
-1.44575e-11
-9.55719e-11
-1.59642e-11
-9.89864e-11
-1.75487e-11
-1.02253e-10
-1.92116e-11
-1.05372e-10
-2.09535e-11
-1.08341e-10
-2.27749e-11
-1.11162e-10
-2.46765e-11
-1.13834e-10
-2.66588e-11
-1.16355e-10
-2.87224e-11
-1.18726e-10
-3.08681e-11
-1.20947e-10
-3.30963e-11
-1.23016e-10
-3.54079e-11
-1.24933e-10
-3.78034e-11
-1.26699e-10
-4.02835e-11
-1.28312e-10
-4.28489e-11
-1.29772e-10
-4.55003e-11
-1.31079e-10
-4.82383e-11
-1.32232e-10
-5.10637e-11
-1.33231e-10
-5.39771e-11
-1.34075e-10
-5.6979e-11
-1.34764e-10
-6.00691e-11
-1.35298e-10
-6.3899e-11
-1.3568e-10
-6.72332e-11
-1.35925e-10
-7.05466e-11
-1.36062e-10
-7.38878e-11
-1.3613e-10
-7.72261e-11
-1.3619e-10
-8.06007e-11
-1.36195e-10
-8.42104e-11
-1.35851e-10
-8.80093e-11
-1.34937e-10
-9.1735e-11
-1.33793e-10
-1.32519e-10
-9.53564e-11
-3.70958e-14
-3.1068e-12
-1.4848e-13
-9.18015e-12
-3.34297e-13
-1.5113e-11
-5.94727e-13
-2.09048e-11
-9.29974e-13
-2.65553e-11
-1.34027e-12
-3.2064e-11
-1.82585e-12
-3.74306e-11
-2.387e-12
-4.26546e-11
-3.02399e-12
-4.77357e-11
-3.73714e-12
-5.26734e-11
-4.52677e-12
-5.74673e-11
-5.39322e-12
-6.21171e-11
-6.33686e-12
-6.66224e-11
-7.35805e-12
-7.09826e-11
-8.45719e-12
-7.51975e-11
-9.63469e-12
-7.92665e-11
-1.0891e-11
-8.31894e-11
-1.22265e-11
-8.69656e-11
-1.36417e-11
-9.05948e-11
-1.51371e-11
-9.40765e-11
-1.67132e-11
-9.74103e-11
-1.83704e-11
-1.00596e-10
-2.01094e-11
-1.03633e-10
-2.19306e-11
-1.0652e-10
-2.38346e-11
-1.09258e-10
-2.58219e-11
-1.11846e-10
-2.78932e-11
-1.14284e-10
-3.00491e-11
-1.1657e-10
-3.22901e-11
-1.18706e-10
-3.4617e-11
-1.20689e-10
-3.70302e-11
-1.2252e-10
-3.95305e-11
-1.24199e-10
-4.21186e-11
-1.25724e-10
-4.47951e-11
-1.27096e-10
-4.75606e-11
-1.28314e-10
-5.04159e-11
-1.29377e-10
-5.33616e-11
-1.30285e-10
-5.63985e-11
-1.31038e-10
-5.95271e-11
-1.31636e-10
-6.28957e-11
-1.32077e-10
-6.65076e-11
-1.32375e-10
-6.98734e-11
-1.32559e-10
-7.32885e-11
-1.32647e-10
-7.67047e-11
-1.32714e-10
-8.01324e-11
-1.32763e-10
-8.36734e-11
-1.32654e-10
-8.74596e-11
-1.32065e-10
-9.12406e-11
-1.31156e-10
-9.49333e-11
-1.30101e-10
-1.28924e-10
-9.85282e-11
-3.85039e-14
-3.06829e-12
-1.54296e-13
-9.06436e-12
-3.47618e-13
-1.49196e-11
-6.18697e-13
-2.06337e-11
-9.67773e-13
-2.62062e-11
-1.3951e-12
-3.16367e-11
-1.90093e-12
-3.69247e-11
-2.48555e-12
-4.207e-11
-3.14925e-12
-4.7072e-11
-3.89232e-12
-5.19303e-11
-4.71507e-12
-5.66446e-11
-5.61785e-12
-6.12144e-11
-6.60099e-12
-6.56392e-11
-7.66484e-12
-6.99188e-11
-8.80978e-12
-7.40525e-11
-1.00362e-11
-7.80401e-11
-1.13445e-11
-8.18811e-11
-1.2735e-11
-8.5575e-11
-1.42083e-11
-8.91215e-11
-1.57646e-11
-9.25201e-11
-1.74046e-11
-9.57703e-11
-1.91286e-11
-9.88718e-11
-2.09372e-11
-1.01824e-10
-2.28308e-11
-1.04627e-10
-2.48099e-11
-1.07279e-10
-2.6875e-11
-1.09781e-10
-2.90268e-11
-1.12132e-10
-3.12656e-11
-1.14331e-10
-3.35922e-11
-1.16379e-10
-3.6007e-11
-1.18274e-10
-3.85107e-11
-1.20016e-10
-4.11038e-11
-1.21606e-10
-4.37872e-11
-1.23041e-10
-4.65612e-11
-1.24322e-10
-4.94268e-11
-1.25448e-10
-5.23845e-11
-1.26419e-10
-5.54352e-11
-1.27235e-10
-5.85796e-11
-1.27894e-10
-6.18182e-11
-1.28397e-10
-6.56896e-11
-1.2875e-10
-6.90957e-11
-1.28975e-10
-7.25598e-11
-1.29095e-10
-7.60398e-11
-1.29167e-10
-7.95193e-11
-1.29234e-10
-8.30418e-11
-1.2924e-10
-8.67561e-11
-1.2894e-10
-9.05557e-11
-1.28265e-10
-9.42895e-11
-1.27422e-10
-9.79395e-11
-1.26451e-10
-1.25366e-10
-1.01498e-10
-4.03116e-14
-3.02798e-12
-1.61387e-13
-8.94328e-12
-3.63385e-13
-1.47176e-11
-6.46484e-13
-2.03506e-11
-1.01088e-12
-2.58418e-11
-1.45679e-12
-3.11908e-11
-1.98444e-12
-3.63971e-11
-2.59407e-12
-4.14603e-11
-3.28596e-12
-4.63801e-11
-4.06038e-12
-5.11559e-11
-4.91762e-12
-5.57873e-11
-5.858e-12
-6.0274e-11
-6.88184e-12
-6.46154e-11
-7.98947e-12
-6.88111e-11
-9.18127e-12
-7.28607e-11
-1.04576e-11
-7.67638e-11
-1.18188e-11
-8.05199e-11
-1.32654e-11
-8.41285e-11
-1.47976e-11
-8.75893e-11
-1.64161e-11
-9.09017e-11
-1.81211e-11
-9.40653e-11
-1.99131e-11
-9.70798e-11
-2.17927e-11
-9.99445e-11
-2.37602e-11
-1.02659e-10
-2.58162e-11
-1.05223e-10
-2.79612e-11
-1.07636e-10
-3.01957e-11
-1.09897e-10
-3.25202e-11
-1.12007e-10
-3.49354e-11
-1.13964e-10
-3.74416e-11
-1.15768e-10
-4.00396e-11
-1.17418e-10
-4.273e-11
-1.18915e-10
-4.55133e-11
-1.20258e-10
-4.83901e-11
-1.21445e-10
-5.13612e-11
-1.22477e-10
-5.44273e-11
-1.23353e-10
-5.75886e-11
-1.24073e-10
-6.08453e-11
-1.24637e-10
-6.44922e-11
-1.25045e-10
-6.82378e-11
-1.25316e-10
-7.17358e-11
-1.25477e-10
-7.52734e-11
-1.25558e-10
-7.8808e-11
-1.25633e-10
-8.23548e-11
-1.25687e-10
-8.59966e-11
-1.25598e-10
-8.97654e-11
-1.25171e-10
-9.34963e-11
-1.24534e-10
-9.71538e-11
-1.23764e-10
-1.00731e-10
-1.22873e-10
-1.21873e-10
-1.04224e-10
-4.15731e-14
-2.98641e-12
-1.66366e-13
-8.81849e-12
-3.74534e-13
-1.45095e-11
-6.66284e-13
-2.00589e-11
-1.04183e-12
-2.54663e-11
-1.50141e-12
-3.07312e-11
-2.04525e-12
-3.58533e-11
-2.67363e-12
-4.0832e-11
-3.38679e-12
-4.56669e-11
-4.18501e-12
-5.03577e-11
-5.06859e-12
-5.49038e-11
-6.03782e-12
-5.93048e-11
-7.093e-12
-6.35602e-11
-8.23447e-12
-6.76696e-11
-9.46254e-12
-7.16327e-11
-1.07776e-11
-7.54488e-11
-1.21799e-11
-7.91175e-11
-1.36699e-11
-8.26385e-11
-1.52479e-11
-8.60112e-11
-1.69144e-11
-8.92352e-11
-1.86697e-11
-9.231e-11
-2.05142e-11
-9.52352e-11
-2.24484e-11
-9.80103e-11
-2.44727e-11
-1.00635e-10
-2.65874e-11
-1.03108e-10
-2.87932e-11
-1.0543e-10
-3.10903e-11
-1.076e-10
-3.34794e-11
-1.09618e-10
-3.59608e-11
-1.11482e-10
-3.85351e-11
-1.13194e-10
-4.12027e-11
-1.14751e-10
-4.39641e-11
-1.16154e-10
-4.68199e-11
-1.17402e-10
-4.97704e-11
-1.18494e-10
-5.28163e-11
-1.19431e-10
-5.59581e-11
-1.20211e-10
-5.91972e-11
-1.20834e-10
-6.25347e-11
-1.213e-10
-6.65534e-11
-1.21623e-10
-7.00493e-11
-1.21826e-10
-7.35969e-11
-1.21929e-10
-7.71498e-11
-1.22005e-10
-8.07056e-11
-1.22077e-10
-8.43e-11
-1.22093e-10
-8.80158e-11
-1.21882e-10
-9.17448e-11
-1.21442e-10
-9.54168e-11
-1.20862e-10
-9.90227e-11
-1.20158e-10
-1.02555e-10
-1.1934e-10
-1.18419e-10
-1.0601e-10
-4.2602e-14
-2.9438e-12
-1.70837e-13
-8.69026e-12
-3.84988e-13
-1.42953e-11
-6.85276e-13
-1.97586e-11
-1.07192e-12
-2.50796e-11
-1.54516e-12
-3.0258e-11
-2.10521e-12
-3.52932e-11
-2.75233e-12
-4.01849e-11
-3.48676e-12
-4.49325e-11
-4.30876e-12
-4.95357e-11
-5.21858e-12
-5.39939e-11
-6.21651e-12
-5.83068e-11
-7.30281e-12
-6.24739e-11
-8.47779e-12
-6.64947e-11
-9.74172e-12
-7.03687e-11
-1.10949e-11
-7.40956e-11
-1.25377e-11
-7.76748e-11
-1.40704e-11
-8.11058e-11
-1.56933e-11
-8.43883e-11
-1.74068e-11
-8.75217e-11
-1.92112e-11
-9.05057e-11
-2.11068e-11
-9.33396e-11
-2.3094e-11
-9.60231e-11
-2.51732e-11
-9.85557e-11
-2.73446e-11
-1.00937e-10
-2.96087e-11
-1.03166e-10
-3.19658e-11
-1.05243e-10
-3.44163e-11
-1.07167e-10
-3.69604e-11
-1.08938e-10
-3.95985e-11
-1.10555e-10
-4.2331e-11
-1.12018e-10
-4.5158e-11
-1.13327e-10
-4.80799e-11
-1.1448e-10
-5.1097e-11
-1.15477e-10
-5.42096e-11
-1.16319e-10
-5.74174e-11
-1.17004e-10
-6.07186e-11
-1.17533e-10
-6.53546e-11
-1.1791e-10
-6.89815e-11
-1.18153e-10
-7.25182e-11
-1.18289e-10
-7.60781e-11
-1.18369e-10
-7.96323e-11
-1.1845e-10
-8.31941e-11
-1.18515e-10
-8.68147e-11
-1.18473e-10
-9.04779e-11
-1.18219e-10
-9.41035e-11
-1.17817e-10
-9.76754e-11
-1.17291e-10
-1.01186e-10
-1.16647e-10
-1.04631e-10
-1.15896e-10
-1.15045e-10
-1.08005e-10
-4.43972e-14
-2.89941e-12
-1.77448e-13
-8.55721e-12
-3.9918e-13
-1.40736e-11
-7.09714e-13
-1.9448e-11
-1.10919e-12
-2.46801e-11
-1.59777e-12
-2.97694e-11
-2.17561e-12
-3.47154e-11
-2.84291e-12
-3.95176e-11
-3.59987e-12
-4.41755e-11
-4.44669e-12
-4.86889e-11
-5.3836e-12
-5.3057e-11
-6.41083e-12
-5.72796e-11
-7.52863e-12
-6.13561e-11
-8.73723e-12
-6.52861e-11
-1.00369e-11
-6.9069e-11
-1.14279e-11
-7.27046e-11
-1.29105e-11
-7.61921e-11
-1.44851e-11
-7.95313e-11
-1.61517e-11
-8.27216e-11
-1.79109e-11
-8.57626e-11
-1.97628e-11
-8.86538e-11
-2.17077e-11
-9.13947e-11
-2.3746e-11
-9.39848e-11
-2.58779e-11
-9.64237e-11
-2.81038e-11
-9.8711e-11
-3.04239e-11
-1.00846e-10
-3.28386e-11
-1.02828e-10
-3.53482e-11
-1.04658e-10
-3.79529e-11
-1.06334e-10
-4.06532e-11
-1.07855e-10
-4.34492e-11
-1.09222e-10
-4.63413e-11
-1.10435e-10
-4.93299e-11
-1.11491e-10
-5.2415e-11
-1.12392e-10
-5.55971e-11
-1.13137e-10
-5.88767e-11
-1.13724e-10
-6.24018e-11
-1.14155e-10
-6.64779e-11
-1.14448e-10
-7.00045e-11
-1.14627e-10
-7.35774e-11
-1.14716e-10
-7.71485e-11
-1.14798e-10
-8.07202e-11
-1.14879e-10
-8.43042e-11
-1.14931e-10
-8.79303e-11
-1.14846e-10
-9.15386e-11
-1.14611e-10
-9.5103e-11
-1.14252e-10
-9.86178e-11
-1.13776e-10
-1.02077e-10
-1.13188e-10
-1.05475e-10
-1.12498e-10
-1.11711e-10
-1.08809e-10
-4.48535e-14
-1.79696e-13
-4.04741e-13
-7.20175e-13
-1.12618e-12
-1.62295e-12
-2.21066e-12
-2.8895e-12
-3.65968e-12
-4.52137e-12
-5.47478e-12
-6.52011e-12
-7.65756e-12
-8.88732e-12
-1.02096e-11
-1.16246e-11
-1.31326e-11
-1.47337e-11
-1.64282e-11
-1.82163e-11
-2.00981e-11
-2.2074e-11
-2.41442e-11
-2.63087e-11
-2.8568e-11
-3.09222e-11
-3.33716e-11
-3.59164e-11
-3.85569e-11
-4.12933e-11
-4.4126e-11
-4.70552e-11
-5.00813e-11
-5.32047e-11
-5.64256e-11
-5.97435e-11
-6.42167e-11
-6.77088e-11
-7.1254e-11
-7.48098e-11
-7.83634e-11
-8.1912e-11
-8.54716e-11
-8.90299e-11
-9.25589e-11
-9.60508e-11
-9.94985e-11
-1.02896e-10
-1.06238e-10
-1.09521e-10
-3.93185e-11
-1.67731e-10
-4.14107e-11
-1.66703e-10
-4.34249e-11
-1.63593e-10
-4.53255e-11
-1.60437e-10
-4.71217e-11
-1.57267e-10
-4.88222e-11
-1.54088e-10
-5.04357e-11
-1.50905e-10
-5.19698e-11
-1.47721e-10
-5.34315e-11
-1.44541e-10
-5.48272e-11
-1.41369e-10
-5.61625e-11
-1.38209e-10
-5.74425e-11
-1.35063e-10
-5.86717e-11
-1.31936e-10
-5.9854e-11
-1.28829e-10
-6.0993e-11
-1.25746e-10
-6.20917e-11
-1.2269e-10
-6.31528e-11
-1.19663e-10
-6.41787e-11
-1.16667e-10
-6.51714e-11
-1.13704e-10
-6.61329e-11
-1.10777e-10
-6.70646e-11
-1.07887e-10
-6.79679e-11
-1.05036e-10
-6.88442e-11
-1.02226e-10
-6.96945e-11
-9.94576e-11
-7.05198e-11
-9.67327e-11
-7.13211e-11
-9.40525e-11
-7.20991e-11
-9.1418e-11
-7.28546e-11
-8.88303e-11
-7.35882e-11
-8.62903e-11
-7.43007e-11
-8.37987e-11
-7.49927e-11
-8.13562e-11
-7.56646e-11
-7.89635e-11
-7.63171e-11
-7.66211e-11
-7.69507e-11
-7.43293e-11
-7.75659e-11
-7.20885e-11
-7.81631e-11
-6.98988e-11
-7.87428e-11
-6.77606e-11
-7.93055e-11
-6.56737e-11
-7.98517e-11
-6.36384e-11
-8.03817e-11
-6.16543e-11
-8.08959e-11
-5.97215e-11
-8.13948e-11
-5.78397e-11
-8.18789e-11
-5.60087e-11
-8.23484e-11
-5.4228e-11
-8.28037e-11
-5.24973e-11
-8.32454e-11
-5.08161e-11
-8.36737e-11
-4.91839e-11
-8.40891e-11
-4.76002e-11
-8.44919e-11
-4.60643e-11
-4.45758e-11
-8.48825e-11
-4.29488e-11
-1.6597e-10
-4.54108e-11
-1.64241e-10
-4.77525e-11
-1.61251e-10
-4.99648e-11
-1.58225e-10
-5.20563e-11
-1.55175e-10
-5.40355e-11
-1.52109e-10
-5.59103e-11
-1.4903e-10
-5.76882e-11
-1.45943e-10
-5.93761e-11
-1.42853e-10
-6.09808e-11
-1.39764e-10
-6.25085e-11
-1.36681e-10
-6.39648e-11
-1.33607e-10
-6.5355e-11
-1.30545e-10
-6.66842e-11
-1.275e-10
-6.79567e-11
-1.24474e-10
-6.91765e-11
-1.2147e-10
-7.03475e-11
-1.18492e-10
-7.14729e-11
-1.15542e-10
-7.25557e-11
-1.12622e-10
-7.35986e-11
-1.09734e-10
-7.46041e-11
-1.06882e-10
-7.55742e-11
-1.04066e-10
-7.65111e-11
-1.01289e-10
-7.74163e-11
-9.85524e-11
-7.82914e-11
-9.58575e-11
-7.91379e-11
-9.3206e-11
-7.9957e-11
-9.05989e-11
-8.07498e-11
-8.80375e-11
-8.15173e-11
-8.55228e-11
-8.22604e-11
-8.30555e-11
-8.298e-11
-8.06366e-11
-8.3677e-11
-7.82666e-11
-8.43518e-11
-7.59462e-11
-8.50054e-11
-7.36757e-11
-8.56382e-11
-7.14556e-11
-8.62509e-11
-6.92861e-11
-8.68441e-11
-6.71674e-11
-8.74182e-11
-6.50996e-11
-8.79737e-11
-6.30828e-11
-8.85113e-11
-6.11168e-11
-8.90314e-11
-5.92015e-11
-8.95343e-11
-5.73367e-11
-9.00207e-11
-5.55223e-11
-9.0491e-11
-5.37577e-11
-9.09455e-11
-5.20427e-11
-9.13849e-11
-5.03768e-11
-9.18094e-11
-4.87594e-11
-9.22195e-11
-4.71901e-11
-9.26157e-11
-4.56681e-11
-4.41931e-11
-9.29984e-11
-4.91461e-11
-1.63953e-10
-5.17335e-11
-1.61653e-10
-5.41923e-11
-1.58792e-10
-5.65248e-11
-1.55892e-10
-5.87382e-11
-1.52962e-10
-6.08399e-11
-1.50007e-10
-6.28364e-11
-1.47033e-10
-6.4734e-11
-1.44046e-10
-6.65386e-11
-1.41049e-10
-6.8256e-11
-1.38047e-10
-6.98915e-11
-1.35046e-10
-7.14505e-11
-1.32048e-10
-7.29376e-11
-1.29058e-10
-7.43575e-11
-1.2608e-10
-7.57145e-11
-1.23117e-10
-7.70125e-11
-1.20172e-10
-7.82552e-11
-1.17249e-10
-7.94463e-11
-1.14351e-10
-8.05887e-11
-1.11479e-10
-8.16855e-11
-1.08637e-10
-8.27394e-11
-1.05828e-10
-8.37529e-11
-1.03053e-10
-8.47282e-11
-1.00314e-10
-8.56673e-11
-9.76132e-11
-8.65723e-11
-9.49526e-11
-8.74447e-11
-9.23335e-11
-8.82862e-11
-8.97574e-11
-8.90982e-11
-8.72256e-11
-8.98819e-11
-8.47391e-11
-9.06384e-11
-8.22989e-11
-9.1369e-11
-7.9906e-11
-9.20745e-11
-7.75611e-11
-9.27559e-11
-7.52648e-11
-9.34139e-11
-7.30177e-11
-9.40493e-11
-7.08202e-11
-9.46629e-11
-6.86725e-11
-9.52554e-11
-6.6575e-11
-9.58272e-11
-6.45278e-11
-9.63791e-11
-6.25309e-11
-9.69117e-11
-6.05842e-11
-9.74253e-11
-5.86878e-11
-9.79207e-11
-5.68414e-11
-9.83983e-11
-5.50447e-11
-9.88586e-11
-5.32974e-11
-9.93022e-11
-5.15992e-11
-9.97294e-11
-4.99496e-11
-1.00141e-10
-4.8348e-11
-1.00537e-10
-4.6794e-11
-1.00918e-10
-4.52868e-11
-4.38261e-11
-1.01285e-10
-5.41721e-11
-1.61575e-10
-5.68198e-11
-1.59006e-10
-5.9367e-11
-1.56245e-10
-6.18104e-11
-1.53449e-10
-6.41513e-11
-1.50621e-10