/*--------------------------------*- C++ -*----------------------------------*\
| =========                 |                                                 |
| \\      /  F ield         | OpenFOAM: The Open Source CFD Toolbox           |
|  \\    /   O peration     | Version:  2.4.0                                 |
|   \\  /    A nd           | Web:      www.OpenFOAM.org                      |
|    \\/     M anipulation  |                                                 |
\*---------------------------------------------------------------------------*/
FoamFile
{
    version     2.0;
    format      ascii;
    class       volVectorField;
    location    "0.5";
    object      U;
}
// * * * * * * * * * * * * * * * * * * * * * * * * * * * * * * * * * * * * * //

dimensions      [0 1 -1 0 0 0 0];

internalField   nonuniform List<vector> 
8000
(
(-2.27745e-08 -0.000345541 0)
(-2.42994e-07 -0.00102268 0)
(-6.99187e-07 -0.00168587 0)
(-1.38975e-06 -0.00233509 0)
(-2.3091e-06 -0.00297032 0)
(-3.45435e-06 -0.00359154 0)
(-4.82475e-06 -0.00419874 0)
(-6.41999e-06 -0.00479191 0)
(-8.23979e-06 -0.00537103 0)
(-1.0284e-05 -0.00593608 0)
(-1.25527e-05 -0.00648704 0)
(-1.50459e-05 -0.00702392 0)
(-1.77642e-05 -0.00754668 0)
(-2.0708e-05 -0.00805532 0)
(-2.38781e-05 -0.00854983 0)
(-2.72754e-05 -0.00903019 0)
(-3.09009e-05 -0.00949638 0)
(-3.47559e-05 -0.00994839 0)
(-3.88417e-05 -0.0103862 0)
(-4.31601e-05 -0.0108098 0)
(-4.77125e-05 -0.0112192 0)
(-5.25011e-05 -0.0116144 0)
(-5.75277e-05 -0.0119953 0)
(-6.27947e-05 -0.012362 0)
(-6.83042e-05 -0.0127143 0)
(-7.4059e-05 -0.0130524 0)
(-8.00614e-05 -0.0133762 0)
(-8.63146e-05 -0.0136857 0)
(-9.2821e-05 -0.0139808 0)
(-9.95844e-05 -0.0142616 0)
(-0.000106607 -0.014528 0)
(-0.000113894 -0.0147801 0)
(-0.000121446 -0.0150177 0)
(-0.00012927 -0.015241 0)
(-0.000137367 -0.0154498 0)
(-0.000145743 -0.0156442 0)
(-0.0001544 -0.0158242 0)
(-0.000163345 -0.0159897 0)
(-0.00017258 -0.0161407 0)
(-0.000182113 -0.0162772 0)
(-0.000191945 -0.0163993 0)
(-0.000202084 -0.0165068 0)
(-0.000212518 -0.0165998 0)
(-0.000223249 -0.0166783 0)
(-0.000234343 -0.0167422 0)
(-0.000246104 -0.0167916 0)
(-0.000258844 -0.0168264 0)
(-0.000270505 -0.0168473 0)
(-0.00027979 -0.0168571 0)
(-0.000288295 -0.0168583 0)
(-2.08702e-08 -0.000344112 0)
(-2.46722e-07 -0.00101838 0)
(-7.22602e-07 -0.00167868 0)
(-1.4495e-06 -0.00232501 0)
(-2.42296e-06 -0.00295734 0)
(-3.64094e-06 -0.00357566 0)
(-5.10353e-06 -0.00417995 0)
(-6.81116e-06 -0.00477021 0)
(-8.7642e-06 -0.00534641 0)
(-1.0963e-05 -0.00590854 0)
(-1.34081e-05 -0.00645659 0)
(-1.61001e-05 -0.00699054 0)
(-1.90395e-05 -0.00751037 0)
(-2.22272e-05 -0.00801608 0)
(-2.56641e-05 -0.00850764 0)
(-2.93512e-05 -0.00898504 0)
(-3.32896e-05 -0.00944826 0)
(-3.74808e-05 -0.00989729 0)
(-4.19259e-05 -0.0103321 0)
(-4.66268e-05 -0.0107527 0)
(-5.1585e-05 -0.0111591 0)
(-5.68024e-05 -0.0115512 0)
(-6.22811e-05 -0.0119291 0)
(-6.80232e-05 -0.0122926 0)
(-7.40311e-05 -0.0126419 0)
(-8.03073e-05 -0.0129768 0)
(-8.68545e-05 -0.0132974 0)
(-9.36757e-05 -0.0136037 0)
(-0.000100774 -0.0138956 0)
(-0.000108152 -0.0141731 0)
(-0.000115815 -0.0144362 0)
(-0.000123764 -0.0146849 0)
(-0.000132006 -0.0149192 0)
(-0.000140543 -0.015139 0)
(-0.000149381 -0.0153443 0)
(-0.000158523 -0.0155352 0)
(-0.000167977 -0.0157115 0)
(-0.000177745 -0.0158733 0)
(-0.000187837 -0.0160205 0)
(-0.000198256 -0.0161532 0)
(-0.000209012 -0.0162713 0)
(-0.000220105 -0.0163747 0)
(-0.000231533 -0.0164635 0)
(-0.000243307 -0.0165377 0)
(-0.000255559 -0.0165971 0)
(-0.000268592 -0.0166418 0)
(-0.00028224 -0.0166719 0)
(-0.000293942 -0.0166885 0)
(-0.00030369 -0.0166946 0)
(-0.000314919 -0.0166945 0)
(-2.84558e-08 -0.000342486 0)
(-2.98776e-07 -0.00101351 0)
(-8.58023e-07 -0.00167059 0)
(-1.70441e-06 -0.00231369 0)
(-2.83144e-06 -0.00294281 0)
(-4.23623e-06 -0.00355791 0)
(-5.91848e-06 -0.00415899 0)
(-7.8783e-06 -0.00474603 0)
(-1.0116e-05 -0.005319 0)
(-1.26318e-05 -0.0058779 0)
(-1.54264e-05 -0.0064227 0)
(-1.85005e-05 -0.0069534 0)
(-2.18549e-05 -0.00746997 0)
(-2.54909e-05 -0.00797239 0)
(-2.94097e-05 -0.00846065 0)
(-3.36129e-05 -0.00893474 0)
(-3.81021e-05 -0.00939463 0)
(-4.28791e-05 -0.0098403 0)
(-4.79462e-05 -0.0102718 0)
(-5.33054e-05 -0.010689 0)
(-5.89594e-05 -0.0110919 0)
(-6.49104e-05 -0.0114805 0)
(-7.11618e-05 -0.0118549 0)
(-7.77159e-05 -0.0122149 0)
(-8.45767e-05 -0.0125606 0)
(-9.17468e-05 -0.012892 0)
(-9.92307e-05 -0.0132089 0)
(-0.000107031 -0.0135115 0)
(-0.000115153 -0.0137997 0)
(-0.0001236 -0.0140734 0)
(-0.000132377 -0.0143327 0)
(-0.000141487 -0.0145775 0)
(-0.000150938 -0.0148078 0)
(-0.000160731 -0.0150236 0)
(-0.000170875 -0.0152249 0)
(-0.000181371 -0.0154116 0)
(-0.00019223 -0.0155837 0)
(-0.000203451 -0.0157412 0)
(-0.000215048 -0.0158841 0)
(-0.000227018 -0.0160123 0)
(-0.000239377 -0.0161259 0)
(-0.000252104 -0.0162247 0)
(-0.000265199 -0.0163089 0)
(-0.000278698 -0.0163782 0)
(-0.000292951 -0.0164328 0)
(-0.000308569 -0.0164726 0)
(-0.000323758 -0.0164979 0)
(-0.000335802 -0.016511 0)
(-0.00034627 -0.0165141 0)
(-0.000362735 -0.0165134 0)
(-2.72863e-08 -0.000340573 0)
(-3.11485e-07 -0.00100781 0)
(-9.07806e-07 -0.00166111 0)
(-1.81748e-06 -0.00230046 0)
(-3.03458e-06 -0.00292583 0)
(-4.55699e-06 -0.00353721 0)
(-6.38484e-06 -0.00413456 0)
(-8.5188e-06 -0.00471787 0)
(-1.09596e-05 -0.00528712 0)
(-1.37079e-05 -0.00584229 0)
(-1.67647e-05 -0.00638336 0)
(-2.0131e-05 -0.00691031 0)
(-2.38082e-05 -0.00742312 0)
(-2.77974e-05 -0.00792177 0)
(-3.21005e-05 -0.00840624 0)
(-3.67191e-05 -0.00887651 0)
(-4.16552e-05 -0.00933256 0)
(-4.69109e-05 -0.00977437 0)
(-5.24886e-05 -0.0102019 0)
(-5.83905e-05 -0.0106152 0)
(-6.46197e-05 -0.0110142 0)
(-7.11785e-05 -0.0113988 0)
(-7.80706e-05 -0.0117691 0)
(-8.52986e-05 -0.0121251 0)
(-9.28665e-05 -0.0124666 0)
(-0.000100777 -0.0127938 0)
(-0.000109035 -0.0131065 0)
(-0.000117644 -0.0134048 0)
(-0.000126608 -0.0136886 0)
(-0.000135931 -0.013958 0)
(-0.000145618 -0.0142128 0)
(-0.000155673 -0.0144531 0)
(-0.000166103 -0.0146788 0)
(-0.00017691 -0.01489 0)
(-0.000188102 -0.0150865 0)
(-0.000199681 -0.0152684 0)
(-0.000211657 -0.0154357 0)
(-0.000224031 -0.0155883 0)
(-0.000236815 -0.0157262 0)
(-0.000250009 -0.0158494 0)
(-0.000263621 -0.0159578 0)
(-0.000277635 -0.0160515 0)
(-0.00029206 -0.0161304 0)
(-0.000307006 -0.0161944 0)
(-0.000322871 -0.0162437 0)
(-0.000339814 -0.0162783 0)
(-0.000354962 -0.0162988 0)
(-0.000367381 -0.0163085 0)
(-0.000379898 -0.0163105 0)
(-0.000401756 -0.0163097 0)
(-3.10744e-08 -0.000338674 0)
(-3.41434e-07 -0.00100208 0)
(-9.90396e-07 -0.00165153 0)
(-1.97902e-06 -0.00228701 0)
(-3.3011e-06 -0.00290849 0)
(-4.95477e-06 -0.00351595 0)
(-6.94048e-06 -0.00410938 0)
(-9.25925e-06 -0.00468876 0)
(-1.19121e-05 -0.00525406 0)
(-1.49e-05 -0.00580526 0)
(-1.82241e-05 -0.00634234 0)
(-2.18858e-05 -0.00686528 0)
(-2.58865e-05 -0.00737406 0)
(-3.02279e-05 -0.00786866 0)
(-3.49117e-05 -0.00834906 0)
(-3.99399e-05 -0.00881523 0)
(-4.53146e-05 -0.00926716 0)
(-5.10382e-05 -0.00970482 0)
(-5.71128e-05 -0.0101282 0)
(-6.35415e-05 -0.0105373 0)
(-7.03265e-05 -0.010932 0)
(-7.74714e-05 -0.0113124 0)
(-8.49787e-05 -0.0116783 0)
(-9.28524e-05 -0.0120299 0)
(-0.000101095 -0.0123671 0)
(-0.000109712 -0.0126898 0)
(-0.000118705 -0.0129981 0)
(-0.00012808 -0.0132918 0)
(-0.00013784 -0.0135711 0)
(-0.00014799 -0.0138357 0)
(-0.000158535 -0.0140859 0)
(-0.00016948 -0.0143214 0)
(-0.000180828 -0.0145423 0)
(-0.000192589 -0.0147486 0)
(-0.000204762 -0.0149402 0)
(-0.00021736 -0.0151171 0)
(-0.000230382 -0.0152792 0)
(-0.000243842 -0.0154267 0)
(-0.000257737 -0.0155593 0)
(-0.000272128 -0.0156771 0)
(-0.000286844 -0.0157801 0)
(-0.000302008 -0.0158683 0)
(-0.000317466 -0.0159415 0)
(-0.000334363 -0.0159998 0)
(-0.000355234 -0.0160432 0)
(-0.000376147 -0.0160718 0)
(-0.000391478 -0.0160876 0)
(-0.000403988 -0.0160934 0)
(-0.000421711 -0.0160945 0)
(-0.000447766 -0.0160915 0)
(-3.36781e-08 -0.000336469 0)
(-3.75194e-07 -0.000995473 0)
(-1.0894e-06 -0.00164052 0)
(-2.17721e-06 -0.0022716 0)
(-3.63163e-06 -0.00288869 0)
(-5.45034e-06 -0.00349176 0)
(-7.6337e-06 -0.00408079 0)
(-1.01829e-05 -0.00465576 0)
(-1.30989e-05 -0.00521664 0)
(-1.63829e-05 -0.00576342 0)
(-2.00363e-05 -0.00629606 0)
(-2.40606e-05 -0.00681455 0)
(-2.84574e-05 -0.00731886 0)
(-3.32288e-05 -0.00780897 0)
(-3.83767e-05 -0.00828485 0)
(-4.39036e-05 -0.00874648 0)
(-4.98117e-05 -0.00919383 0)
(-5.61041e-05 -0.00962689 0)
(-6.2783e-05 -0.0100456 0)
(-6.98522e-05 -0.01045 0)
(-7.73141e-05 -0.01084 0)
(-8.5173e-05 -0.0112156 0)
(-9.34315e-05 -0.0115768 0)
(-0.000102095 -0.0119236 0)
(-0.000111165 -0.0122559 0)
(-0.000120648 -0.0125736 0)
(-0.000130547 -0.0128769 0)
(-0.000140868 -0.0131656 0)
(-0.000151614 -0.0134397 0)
(-0.000162792 -0.0136992 0)
(-0.000174404 -0.0139441 0)
(-0.00018646 -0.0141743 0)
(-0.00019896 -0.0143899 0)
(-0.000211915 -0.0145907 0)
(-0.000225326 -0.0147768 0)
(-0.000239206 -0.0149481 0)
(-0.000253552 -0.0151046 0)
(-0.000268382 -0.0152463 0)
(-0.000283691 -0.0153731 0)
(-0.000299496 -0.015485 0)
(-0.000315771 -0.015582 0)
(-0.000332524 -0.0156641 0)
(-0.000349858 -0.0157312 0)
(-0.00036824 -0.0157833 0)
(-0.00038804 -0.0158203 0)
(-0.000406098 -0.015843 0)
(-0.000420816 -0.0158548 0)
(-0.00043521 -0.0158582 0)
(-0.00045988 -0.015859 0)
(-0.000492908 -0.0158497 0)
(-3.65514e-08 -0.000334129 0)
(-4.03043e-07 -0.00098845 0)
(-1.16901e-06 -0.00162881 0)
(-2.3351e-06 -0.00225519 0)
(-3.89458e-06 -0.00286757 0)
(-5.8453e-06 -0.00346592 0)
(-8.18832e-06 -0.00405021 0)
(-1.09253e-05 -0.00462043 0)
(-1.40578e-05 -0.00517654 0)
(-1.75874e-05 -0.00571853 0)
(-2.1516e-05 -0.00624636 0)
(-2.58454e-05 -0.00676001 0)
(-3.05777e-05 -0.00725945 0)
(-3.57152e-05 -0.00774467 0)
(-4.12602e-05 -0.00821563 0)
(-4.72153e-05 -0.0086723 0)
(-5.35834e-05 -0.00911467 0)
(-6.03673e-05 -0.0095427 0)
(-6.75701e-05 -0.00995637 0)
(-7.51951e-05 -0.0103556 0)
(-8.32459e-05 -0.0107405 0)
(-9.17258e-05 -0.0111109 0)
(-0.000100639 -0.0114669 0)
(-0.000109989 -0.0118083 0)
(-0.000119781 -0.0121352 0)
(-0.000130019 -0.0124476 0)
(-0.000140707 -0.0127454 0)
(-0.00015185 -0.0130286 0)
(-0.000163454 -0.0132971 0)
(-0.000175523 -0.013551 0)
(-0.000188064 -0.0137901 0)
(-0.000201079 -0.0140145 0)
(-0.00021458 -0.0142242 0)
(-0.000228566 -0.0144191 0)
(-0.00024305 -0.0145991 0)
(-0.000258032 -0.0147643 0)
(-0.000273527 -0.0149146 0)
(-0.000289533 -0.01505 0)
(-0.000306068 -0.0151705 0)
(-0.000323116 -0.0152759 0)
(-0.000340689 -0.0153664 0)
(-0.000358801 -0.0154418 0)
(-0.000377705 -0.0155021 0)
(-0.000397762 -0.0155473 0)
(-0.000418102 -0.0155776 0)
(-0.000435264 -0.015595 0)
(-0.000450154 -0.0156025 0)
(-0.000470336 -0.015605 0)
(-0.000500532 -0.0156048 0)
(-0.000542558 -0.0155752 0)
(-3.85464e-08 -0.000331614 0)
(-4.33518e-07 -0.000980899 0)
(-1.26077e-06 -0.00161622 0)
(-2.52124e-06 -0.00223754 0)
(-4.20774e-06 -0.00284485 0)
(-6.31751e-06 -0.00343812 0)
(-8.85171e-06 -0.00401732 0)
(-1.18119e-05 -0.00458242 0)
(-1.51998e-05 -0.00513339 0)
(-1.9017e-05 -0.00567022 0)
(-2.32655e-05 -0.00619286 0)
(-2.79471e-05 -0.0067013 0)
(-3.30644e-05 -0.00719551 0)
(-3.86193e-05 -0.00767546 0)
(-4.4615e-05 -0.00814111 0)
(-5.10535e-05 -0.00859245 0)
(-5.79386e-05 -0.00902945 0)
(-6.52725e-05 -0.00945207 0)
(-7.30595e-05 -0.00986028 0)
(-8.13021e-05 -0.0102541 0)
(-9.0005e-05 -0.0106334 0)
(-9.91707e-05 -0.0109982 0)
(-0.000108805 -0.0113485 0)
(-0.00011891 -0.0116843 0)
(-0.000129492 -0.0120055 0)
(-0.000140554 -0.012312 0)
(-0.000152104 -0.012604 0)
(-0.000164141 -0.0128812 0)
(-0.000176677 -0.0131438 0)
(-0.000189711 -0.0133916 0)
(-0.000203255 -0.0136246 0)
(-0.000217307 -0.0138429 0)
(-0.000231881 -0.0140463 0)
(-0.000246975 -0.0142348 0)
(-0.000262604 -0.0144084 0)
(-0.000278765 -0.0145671 0)
(-0.000295476 -0.0147108 0)
(-0.000312732 -0.0148395 0)
(-0.000330549 -0.0149532 0)
(-0.000348898 -0.0150518 0)
(-0.00036779 -0.0151352 0)
(-0.000387344 -0.0152035 0)
(-0.000408096 -0.0152566 0)
(-0.000430435 -0.0152946 0)
(-0.000450746 -0.0153182 0)
(-0.000467387 -0.015331 0)
(-0.000483983 -0.0153356 0)
(-0.00051202 -0.0153378 0)
(-0.000547814 -0.015333 0)
(-0.000592519 -0.0152536 0)
(-4.23614e-08 -0.000328868 0)
(-4.66656e-07 -0.000972657 0)
(-1.35315e-06 -0.00160248 0)
(-2.70252e-06 -0.0022183 0)
(-4.50721e-06 -0.00282009 0)
(-6.76466e-06 -0.00340783 0)
(-9.47621e-06 -0.00398149 0)
(-1.26439e-05 -0.00454103 0)
(-1.62696e-05 -0.00508644 0)
(-2.03554e-05 -0.00561766 0)
(-2.49033e-05 -0.00613469 0)
(-2.99157e-05 -0.00663748 0)
(-3.5395e-05 -0.00712601 0)
(-4.13439e-05 -0.00760025 0)
(-4.77651e-05 -0.00806016 0)
(-5.46619e-05 -0.00850572 0)
(-6.2037e-05 -0.00893689 0)
(-6.98942e-05 -0.00935365 0)
(-7.82364e-05 -0.00975596 0)
(-8.70682e-05 -0.0101438 0)
(-9.63923e-05 -0.0105171 0)
(-0.000106214 -0.0108759 0)
(-0.000116536 -0.0112201 0)
(-0.000127365 -0.0115497 0)
(-0.000138703 -0.0118647 0)
(-0.000150557 -0.0121649 0)
(-0.000162929 -0.0124505 0)
(-0.000175829 -0.0127214 0)
(-0.000189256 -0.0129774 0)
(-0.000203222 -0.0132187 0)
(-0.000217726 -0.0134451 0)
(-0.000232781 -0.0136567 0)
(-0.000248385 -0.0138533 0)
(-0.000264554 -0.014035 0)
(-0.000281282 -0.0142017 0)
(-0.000298591 -0.0143534 0)
(-0.000316471 -0.0144901 0)
(-0.000334948 -0.0146116 0)
(-0.000353989 -0.014718 0)
(-0.000373601 -0.0148093 0)
(-0.000393808 -0.0148853 0)
(-0.00041504 -0.0149461 0)
(-0.000438047 -0.0149917 0)
(-0.000461031 -0.0150223 0)
(-0.000479978 -0.0150401 0)
(-0.000496607 -0.0150484 0)
(-0.000520181 -0.0150521 0)
(-0.000553983 -0.0150536 0)
(-0.000597703 -0.015033 0)
(-0.000626755 -0.0148959 0)
(-4.35911e-08 -0.000326003 0)
(-4.91591e-07 -0.000964047 0)
(-1.43103e-06 -0.00158811 0)
(-2.86366e-06 -0.00219815 0)
(-4.7817e-06 -0.00279415 0)
(-7.18273e-06 -0.00337606 0)
(-1.00682e-05 -0.00394388 0)
(-1.34404e-05 -0.00449755 0)
(-1.73014e-05 -0.00503705 0)
(-2.16535e-05 -0.00556235 0)
(-2.64988e-05 -0.00607341 0)
(-3.184e-05 -0.00657021 0)
(-3.76792e-05 -0.00705271 0)
(-4.40199e-05 -0.00752088 0)
(-5.08643e-05 -0.00797469 0)
(-5.82162e-05 -0.00841411 0)
(-6.60782e-05 -0.0088391 0)
(-7.44544e-05 -0.00924963 0)
(-8.33475e-05 -0.00964566 0)
(-9.27625e-05 -0.0100272 0)
(-0.000102702 -0.0103941 0)
(-0.000113171 -0.0107465 0)
(-0.000124173 -0.0110842 0)
(-0.000135714 -0.0114073 0)
(-0.000147797 -0.0117156 0)
(-0.000160428 -0.0120093 0)
(-0.00017361 -0.0122881 0)
(-0.000187352 -0.0125522 0)
(-0.000201654 -0.0128014 0)
(-0.000216527 -0.0130358 0)
(-0.000231971 -0.0132552 0)
(-0.000247998 -0.0134597 0)
(-0.000264608 -0.0136492 0)
(-0.000281813 -0.0138237 0)
(-0.000299614 -0.0139831 0)
(-0.000318024 -0.0141274 0)
(-0.000337045 -0.0142565 0)
(-0.000356683 -0.0143705 0)
(-0.000376915 -0.0144693 0)
(-0.000397747 -0.0145527 0)
(-0.000419349 -0.0146209 0)
(-0.000442314 -0.0146738 0)
(-0.000466853 -0.0147114 0)
(-0.000488761 -0.0147347 0)
(-0.000506954 -0.0147477 0)
(-0.000526231 -0.0147531 0)
(-0.000558237 -0.0147567 0)
(-0.000597501 -0.0147539 0)
(-0.000642064 -0.0146915 0)
(-0.000653601 -0.0145315 0)
(-4.80336e-08 -0.000322899 0)
(-5.29558e-07 -0.000954722 0)
(-1.5359e-06 -0.00157255 0)
(-3.06796e-06 -0.00217634 0)
(-5.11717e-06 -0.00276607 0)
(-7.6806e-06 -0.00334171 0)
(-1.07599e-05 -0.00390322 0)
(-1.43572e-05 -0.00445056 0)
(-1.84748e-05 -0.00498372 0)
(-2.31147e-05 -0.00550264 0)
(-2.82795e-05 -0.0060073 0)
(-3.39715e-05 -0.00649767 0)
(-4.01936e-05 -0.0069737 0)
(-4.69484e-05 -0.00743538 0)
(-5.42395e-05 -0.00788265 0)
(-6.20692e-05 -0.00831548 0)
(-7.04421e-05 -0.00873385 0)
(-7.93604e-05 -0.00913772 0)
(-8.88294e-05 -0.00952704 0)
(-9.88511e-05 -0.00990179 0)
(-0.000109432 -0.0102619 0)
(-0.000120573 -0.0106074 0)
(-0.000132283 -0.0109382 0)
(-0.000144561 -0.0112543 0)
(-0.000157418 -0.0115557 0)
(-0.000170852 -0.0118422 0)
(-0.000184876 -0.0121139 0)
(-0.000199487 -0.0123707 0)
(-0.000214699 -0.0126127 0)
(-0.000230508 -0.0128397 0)
(-0.00024693 -0.0130517 0)
(-0.00026396 -0.0132486 0)
(-0.000281618 -0.0134305 0)
(-0.000299893 -0.0135973 0)
(-0.000318812 -0.013749 0)
(-0.000338361 -0.0138855 0)
(-0.00035857 -0.0140067 0)
(-0.000379396 -0.0141127 0)
(-0.000400861 -0.0142034 0)
(-0.000423003 -0.0142787 0)
(-0.000446328 -0.0143386 0)
(-0.000471496 -0.0143832 0)
(-0.000496003 -0.0144127 0)
(-0.000516239 -0.0144301 0)
(-0.000534536 -0.0144386 0)
(-0.000562663 -0.0144433 0)
(-0.000600212 -0.0144461 0)
(-0.000646637 -0.0144279 0)
(-0.000672472 -0.0143178 0)
(-0.000684914 -0.0141638 0)
(-4.91899e-08 -0.000319632 0)
(-5.51948e-07 -0.000944912 0)
(-1.60575e-06 -0.00155618 0)
(-3.21253e-06 -0.00215341 0)
(-5.36377e-06 -0.00273656 0)
(-8.05672e-06 -0.00330559 0)
(-1.12933e-05 -0.00386047 0)
(-1.5076e-05 -0.00440116 0)
(-1.94074e-05 -0.00492763 0)
(-2.42897e-05 -0.00543984 0)
(-2.97256e-05 -0.00593775 0)
(-3.57175e-05 -0.00642133 0)
(-4.22687e-05 -0.00689055 0)
(-4.93816e-05 -0.00734536 0)
(-5.70599e-05 -0.00778574 0)
(-6.53062e-05 -0.00821163 0)
(-7.41246e-05 -0.00862301 0)
(-8.35181e-05 -0.00901984 0)
(-9.3491e-05 -0.00940209 0)
(-0.000104046 -0.0097697 0)
(-0.000115189 -0.0101227 0)
(-0.000126923 -0.0104609 0)
(-0.000139252 -0.0107844 0)
(-0.000152181 -0.0110931 0)
(-0.000165715 -0.0113871 0)
(-0.000179858 -0.0116661 0)
(-0.000194616 -0.0119303 0)
(-0.000209993 -0.0121795 0)
(-0.000225995 -0.0124137 0)
(-0.000242628 -0.012633 0)
(-0.000259896 -0.0128371 0)
(-0.000277807 -0.0130262 0)
(-0.000296365 -0.0132001 0)
(-0.000315578 -0.0133588 0)
(-0.000335451 -0.0135023 0)
(-0.000355996 -0.0136305 0)
(-0.0003772 -0.0137434 0)
(-0.00039906 -0.013841 0)
(-0.000421573 -0.0139231 0)
(-0.000444998 -0.0139898 0)
(-0.000469945 -0.014041 0)
(-0.000496157 -0.0140769 0)
(-0.000518965 -0.0140991 0)
(-0.000538294 -0.0141116 0)
(-0.000561176 -0.0141175 0)
(-0.000597285 -0.0141222 0)
(-0.000640255 -0.0141204 0)
(-0.000682072 -0.0140652 0)
(-0.000692828 -0.0139401 0)
(-0.000713647 -0.0137969 0)
(-5.26068e-08 -0.000316212 0)
(-5.85299e-07 -0.000934626 0)
(-1.70033e-06 -0.001539 0)
(-3.39952e-06 -0.00212931 0)
(-5.67342e-06 -0.00270551 0)
(-8.51931e-06 -0.00326757 0)
(-1.19387e-05 -0.00381544 0)
(-1.59344e-05 -0.00434911 0)
(-2.05085e-05 -0.00486851 0)
(-2.56638e-05 -0.00537363 0)
(-3.14021e-05 -0.00586442 0)
(-3.77269e-05 -0.00634085 0)
(-4.46401e-05 -0.00680287 0)
(-5.21457e-05 -0.00725045 0)
(-6.02455e-05 -0.00768356 0)
(-6.89442e-05 -0.00810214 0)
(-7.82435e-05 -0.00850617 0)
(-8.81491e-05 -0.00889561 0)
(-9.86621e-05 -0.00927041 0)
(-0.000109789 -0.00963053 0)
(-0.000121531 -0.00997594 0)
(-0.000133896 -0.0103066 0)
(-0.000146883 -0.0106225 0)
(-0.000160503 -0.0109235 0)
(-0.000174753 -0.0112097 0)
(-0.000189646 -0.0114809 0)
(-0.000205178 -0.0117372 0)
(-0.000221363 -0.0119785 0)
(-0.000238195 -0.0122047 0)
(-0.000255694 -0.0124158 0)
(-0.000273847 -0.0126119 0)
(-0.000292679 -0.0127927 0)
(-0.000312174 -0.0129584 0)
(-0.000332363 -0.0131087 0)
(-0.000353226 -0.0132438 0)
(-0.000374795 -0.0133635 0)
(-0.000397002 -0.0134678 0)
(-0.000419838 -0.0135567 0)
(-0.000443407 -0.0136301 0)
(-0.000468661 -0.013688 0)
(-0.000497168 -0.0137303 0)
(-0.000523827 -0.0137579 0)
(-0.000544888 -0.0137743 0)
(-0.000564933 -0.0137825 0)
(-0.000597772 -0.0137882 0)
(-0.000638477 -0.0137919 0)
(-0.000686321 -0.0137734 0)
(-0.000705751 -0.0136836 0)
(-0.00072088 -0.0135643 0)
(-0.000747341 -0.0134317 0)
(-5.52132e-08 -0.000312566 0)
(-6.1396e-07 -0.000923681 0)
(-1.78323e-06 -0.00152075 0)
(-3.5646e-06 -0.00210373 0)
(-5.94814e-06 -0.00267259 0)
(-8.93058e-06 -0.00322729 0)
(-1.25137e-05 -0.00376779 0)
(-1.67e-05 -0.00429404 0)
(-2.1492e-05 -0.00480602 0)
(-2.68919e-05 -0.00530367 0)
(-3.29024e-05 -0.00578697 0)
(-3.95259e-05 -0.00625587 0)
(-4.67657e-05 -0.00671032 0)
(-5.4624e-05 -0.0071503 0)
(-6.31047e-05 -0.00757576 0)
(-7.22102e-05 -0.00798666 0)
(-8.19449e-05 -0.00838296 0)
(-9.23109e-05 -0.00876461 0)
(-0.000103313 -0.00913159 0)
(-0.000114954 -0.00948384 0)
(-0.00012724 -0.00982132 0)
(-0.000140171 -0.010144 0)
(-0.000153756 -0.0104518 0)
(-0.000167994 -0.0107448 0)
(-0.000182895 -0.0110228 0)
(-0.000198458 -0.0112858 0)
(-0.000214693 -0.0115338 0)
(-0.000231598 -0.0117668 0)
(-0.000249187 -0.0119846 0)
(-0.000267454 -0.0121873 0)
(-0.000286417 -0.0123748 0)
(-0.000306065 -0.0125471 0)
(-0.000326424 -0.0127041 0)
(-0.000347476 -0.0128457 0)
(-0.000369254 -0.012972 0)
(-0.000391713 -0.0130829 0)
(-0.000414861 -0.0131784 0)
(-0.000438705 -0.0132583 0)
(-0.000463725 -0.0133227 0)
(-0.000490815 -0.0133716 0)
(-0.00051834 -0.0134053 0)
(-0.000541393 -0.0134259 0)
(-0.000561411 -0.0134373 0)
(-0.000589193 -0.0134439 0)
(-0.000628772 -0.0134499 0)
(-0.000675245 -0.0134483 0)
(-0.000710002 -0.0133985 0)
(-0.000720695 -0.013304 0)
(-0.000743948 -0.0131943 0)
(-0.000773084 -0.013072 0)
(-5.706e-08 -0.000308798 0)
(-6.37523e-07 -0.000912357 0)
(-1.85361e-06 -0.00150185 0)
(-3.70734e-06 -0.00207723 0)
(-6.18882e-06 -0.00263847 0)
(-9.29464e-06 -0.00318552 0)
(-1.3027e-05 -0.00371834 0)
(-1.73881e-05 -0.00423688 0)
(-2.23808e-05 -0.00474112 0)
(-2.80071e-05 -0.00523101 0)
(-3.42699e-05 -0.00570651 0)
(-4.11712e-05 -0.00616757 0)
(-4.87144e-05 -0.00661416 0)
(-5.69014e-05 -0.00704623 0)
(-6.57361e-05 -0.00746374 0)
(-7.52203e-05 -0.00786666 0)
(-8.53586e-05 -0.00825493 0)
(-9.61527e-05 -0.00862852 0)
(-0.000107607 -0.00898738 0)
(-0.000119725 -0.00933147 0)
(-0.00013251 -0.00966075 0)
(-0.000145964 -0.00997518 0)
(-0.000160094 -0.0102747 0)
(-0.000174901 -0.0105593 0)
(-0.000190392 -0.0108289 0)
(-0.000206567 -0.0110835 0)
(-0.000223434 -0.0113229 0)
(-0.000240994 -0.0115473 0)
(-0.000259256 -0.0117565 0)
(-0.000278219 -0.0119505 0)
(-0.000297893 -0.0121293 0)
(-0.000318278 -0.0122927 0)
(-0.000339385 -0.0124408 0)
(-0.000361217 -0.0125735 0)
(-0.000383773 -0.0126908 0)
(-0.000407023 -0.0127925 0)
(-0.000430949 -0.0128787 0)
(-0.000455773 -0.0129494 0)
(-0.00048235 -0.0130044 0)
(-0.000511329 -0.0130439 0)
(-0.000537174 -0.0130692 0)
(-0.000558279 -0.0130843 0)
(-0.000581092 -0.0130921 0)
(-0.00061845 -0.0130987 0)
(-0.000662428 -0.0131032 0)
(-0.000708491 -0.0130844 0)
(-0.000721451 -0.0130153 0)
(-0.000739848 -0.0129269 0)
(-0.000767853 -0.0128255 0)
(-0.000797502 -0.0127126 0)
(-5.99267e-08 -0.000304857 0)
(-6.6727e-07 -0.00090051 0)
(-1.9383e-06 -0.00148207 0)
(-3.87487e-06 -0.00204951 0)
(-6.46573e-06 -0.00260277 0)
(-9.70744e-06 -0.00314182 0)
(-1.36012e-05 -0.00366661 0)
(-1.81499e-05 -0.00417711 0)
(-2.33553e-05 -0.00467327 0)
(-2.92201e-05 -0.00515505 0)
(-3.57459e-05 -0.00562241 0)
(-4.2936e-05 -0.0060753 0)
(-5.07919e-05 -0.00651368 0)
(-5.93175e-05 -0.00693752 0)
(-6.8514e-05 -0.00734676 0)
(-7.83864e-05 -0.00774136 0)
(-8.89351e-05 -0.00812129 0)
(-0.000100166 -0.00848649 0)
(-0.00011208 -0.00883692 0)
(-0.000124683 -0.00917254 0)
(-0.000137974 -0.00949331 0)
(-0.000151963 -0.00979917 0)
(-0.000166647 -0.0100901 0)
(-0.000182036 -0.010366 0)
(-0.000198127 -0.0106269 0)
(-0.000214933 -0.0108727 0)
(-0.000232446 -0.0111034 0)
(-0.000250685 -0.011319 0)
(-0.000269638 -0.0115193 0)
(-0.000289328 -0.0117043 0)
(-0.000309737 -0.011874 0)
(-0.000330898 -0.0120284 0)
(-0.000352786 -0.0121673 0)
(-0.000375438 -0.0122909 0)
(-0.000398793 -0.0123989 0)
(-0.000422865 -0.0124913 0)
(-0.000447703 -0.0125682 0)
(-0.000473991 -0.0126294 0)
(-0.000502748 -0.012675 0)
(-0.000530731 -0.0127055 0)
(-0.000553854 -0.0127242 0)
(-0.000574829 -0.0127344 0)
(-0.000608029 -0.0127415 0)
(-0.000650484 -0.0127483 0)
(-0.000699387 -0.0127467 0)
(-0.000723575 -0.0127059 0)
(-0.000736231 -0.0126387 0)
(-0.000761514 -0.0125581 0)
(-0.00079094 -0.0124652 0)
(-0.000819895 -0.0123612 0)
(-6.19558e-08 -0.000300736 0)
(-6.8798e-07 -0.000888142 0)
(-1.99792e-06 -0.00146145 0)
(-3.99359e-06 -0.00202061 0)
(-6.66372e-06 -0.00256559 0)
(-1.00046e-05 -0.00309633 0)
(-1.40179e-05 -0.0036128 0)
(-1.87063e-05 -0.00411496 0)
(-2.40718e-05 -0.00460275 0)
(-3.01168e-05 -0.00507613 0)
(-3.68434e-05 -0.00553506 0)
(-4.4254e-05 -0.00597949 0)
(-5.23511e-05 -0.00640939 0)
(-6.1137e-05 -0.0068247 0)
(-7.06145e-05 -0.00722538 0)
(-8.07861e-05 -0.00761139 0)
(-9.1655e-05 -0.00798268 0)
(-0.000103223 -0.00833921 0)
(-0.000115495 -0.00868093 0)
(-0.000128472 -0.00900779 0)
(-0.000142159 -0.00931975 0)
(-0.000156556 -0.00961677 0)
(-0.000171671 -0.0098988 0)
(-0.000187503 -0.0101658 0)
(-0.00020406 -0.0104177 0)
(-0.000221339 -0.0106545 0)
(-0.000239352 -0.0108761 0)
(-0.000258094 -0.0110824 0)
(-0.000277577 -0.0112735 0)
(-0.000297795 -0.0114493 0)
(-0.000318766 -0.0116097 0)
(-0.000340478 -0.0117547 0)
(-0.000362956 -0.0118842 0)
(-0.000386166 -0.0119981 0)
(-0.000410109 -0.0120966 0)
(-0.000434755 -0.0121793 0)
(-0.000460454 -0.0122464 0)
(-0.000488031 -0.0122979 0)
(-0.000517329 -0.0123341 0)
(-0.000542657 -0.0123567 0)
(-0.00056383 -0.01237 0)
(-0.000590924 -0.0123775 0)
(-0.000631552 -0.012385 0)
(-0.000678413 -0.0123903 0)
(-0.000717018 -0.0123748 0)
(-0.000726699 -0.0123284 0)
(-0.000748083 -0.0122676 0)
(-0.000776798 -0.012194 0)
(-0.000806193 -0.0121087 0)
(-0.000834466 -0.0120128 0)
(-6.29101e-08 -0.000296556 0)
(-7.05623e-07 -0.000875573 0)
(-2.05265e-06 -0.00144046 0)
(-4.10615e-06 -0.00199118 0)
(-6.85497e-06 -0.00252768 0)
(-1.02948e-05 -0.00304992 0)
(-1.44278e-05 -0.00355786 0)
(-1.92557e-05 -0.00405146 0)
(-2.47816e-05 -0.00453066 0)
(-3.10065e-05 -0.00499543 0)
(-3.79336e-05 -0.00544571 0)
(-4.55636e-05 -0.00588148 0)
(-5.39005e-05 -0.00630267 0)
(-6.29445e-05 -0.00670925 0)
(-7.27002e-05 -0.00710117 0)
(-8.31674e-05 -0.00747838 0)
(-9.43516e-05 -0.00784085 0)
(-0.000106252 -0.00818852 0)
(-0.000118875 -0.00852134 0)
(-0.000132218 -0.00883928 0)
(-0.000146291 -0.00914228 0)
(-0.000161088 -0.0094303 0)
(-0.000176621 -0.00970329 0)
(-0.000192883 -0.00996121 0)
(-0.000209888 -0.010204 0)
(-0.000227626 -0.0104316 0)
(-0.000246114 -0.010644 0)
(-0.000265339 -0.0108412 0)
(-0.000285321 -0.011023 0)
(-0.000306044 -0.0111895 0)
(-0.000327533 -0.0113405 0)
(-0.000349772 -0.0114761 0)
(-0.000372782 -0.0115962 0)
(-0.000396478 -0.0117008 0)
(-0.000420794 -0.0117897 0)
(-0.000445904 -0.011863 0)
(-0.000473261 -0.0119206 0)
(-0.000505638 -0.0119626 0)
(-0.000535582 -0.01199 0)
(-0.000558409 -0.0120067 0)
(-0.000580855 -0.0120158 0)
(-0.000617947 -0.0120234 0)
(-0.000662158 -0.012031 0)
(-0.000709418 -0.0120307 0)
(-0.000723502 -0.0120039 0)
(-0.00073932 -0.0119609 0)
(-0.000765936 -0.0119056 0)
(-0.000795043 -0.0118383 0)
(-0.000823391 -0.01176 0)
(-0.000850748 -0.0116715 0)
(-6.64429e-08 -0.000292188 0)
(-7.34433e-07 -0.000862454 0)
(-2.13035e-06 -0.00141858 0)
(-4.25541e-06 -0.00196051 0)
(-7.09656e-06 -0.00248822 0)
(-1.06495e-05 -0.00300165 0)
(-1.49148e-05 -0.00350075 0)
(-1.98951e-05 -0.00398549 0)
(-2.55915e-05 -0.00445582 0)
(-3.20064e-05 -0.00491168 0)
(-3.91406e-05 -0.00535305 0)
(-4.69971e-05 -0.00577986 0)
(-5.55762e-05 -0.00619208 0)
(-6.48819e-05 -0.00658966 0)
(-7.49138e-05 -0.00697255 0)
(-8.56768e-05 -0.0073407 0)
(-9.71699e-05 -0.00769407 0)
(-0.000109399 -0.00803262 0)
(-0.000122362 -0.00835629 0)
(-0.000136066 -0.00866504 0)
(-0.000150508 -0.00895882 0)
(-0.000165697 -0.00923759 0)
(-0.000181626 -0.00950129 0)
(-0.00019831 -0.00974989 0)
(-0.000215737 -0.00998333 0)
(-0.000233924 -0.0102016 0)
(-0.000252858 -0.0104046 0)
(-0.00027256 -0.0105923 0)
(-0.00029301 -0.0107646 0)
(-0.000314238 -0.0109216 0)
(-0.000336216 -0.0110631 0)
(-0.000358982 -0.0111892 0)
(-0.000382476 -0.0112997 0)
(-0.000406708 -0.0113946 0)
(-0.000431674 -0.011474 0)
(-0.000457938 -0.0115377 0)
(-0.000486526 -0.0115858 0)
(-0.000515686 -0.0116187 0)
(-0.000540304 -0.0116391 0)
(-0.00056148 -0.0116506 0)
(-0.000593468 -0.0116585 0)
(-0.000636106 -0.0116668 0)
(-0.000684866 -0.0116738 0)
(-0.000711556 -0.0116657 0)
(-0.000721916 -0.01164 0)
(-0.000745476 -0.0116021 0)
(-0.000774123 -0.0115522 0)
(-0.000802758 -0.0114908 0)
(-0.000830396 -0.0114189 0)
(-0.000857309 -0.0113371 0)
(-6.64891e-08 -0.000287706 0)
(-7.4266e-07 -0.000849005 0)
(-2.15856e-06 -0.00139616 0)
(-4.31622e-06 -0.00192911 0)
(-7.20309e-06 -0.00244783 0)
(-1.08148e-05 -0.00295225 0)
(-1.51524e-05 -0.00344234 0)
(-2.02182e-05 -0.00391804 0)
(-2.60139e-05 -0.00437931 0)
(-3.2541e-05 -0.0048261 0)
(-3.9801e-05 -0.00525838 0)
(-4.77956e-05 -0.00567608 0)
(-5.65262e-05 -0.00607916 0)
(-6.59946e-05 -0.00646758 0)
(-7.62025e-05 -0.00684128 0)
(-8.71513e-05 -0.00720023 0)
(-9.88429e-05 -0.00754437 0)
(-0.000111279 -0.00787367 0)
(-0.000124461 -0.00818806 0)
(-0.00013839 -0.00848751 0)
(-0.00015307 -0.00877196 0)
(-0.0001685 -0.00904137 0)
(-0.000184684 -0.0092957 0)
(-0.000201622 -0.00953489 0)
(-0.000219318 -0.0097589 0)
(-0.00023777 -0.00996767 0)
(-0.000256986 -0.0101612 0)
(-0.00027696 -0.0103393 0)
(-0.000297703 -0.0105021 0)
(-0.000319209 -0.0106495 0)
(-0.000341495 -0.0107814 0)
(-0.000364538 -0.0108978 0)
(-0.000388306 -0.0109986 0)
(-0.000412728 -0.0110838 0)
(-0.000438119 -0.0111534 0)
(-0.000465726 -0.0112073 0)
(-0.000496929 -0.0112456 0)
(-0.000524472 -0.0112701 0)
(-0.000546142 -0.0112848 0)
(-0.000571436 -0.011293 0)
(-0.000611429 -0.0113011 0)
(-0.000657869 -0.01131 0)
(-0.000698474 -0.0113147 0)
(-0.000707001 -0.0113045 0)
(-0.00072599 -0.0112822 0)
(-0.000753343 -0.0112482 0)
(-0.000781959 -0.0112028 0)
(-0.000809719 -0.0111467 0)
(-0.000836707 -0.0110805 0)
(-0.000863176 -0.0110049 0)
(-0.000303504 -0.0168561 0)
(-0.000340623 -0.0167863 0)
(-0.000354068 -0.0164703 0)
(-0.000356637 -0.0161487 0)
(-0.000369012 -0.0158259 0)
(-0.000383441 -0.0155027 0)
(-0.00039714 -0.0151794 0)
(-0.000409813 -0.0148564 0)
(-0.000421764 -0.0145342 0)
(-0.000433163 -0.014213 0)
(-0.000444073 -0.0138934 0)
(-0.000454525 -0.0135755 0)
(-0.000464554 -0.0132597 0)
(-0.000474193 -0.0129462 0)
(-0.000483471 -0.0126354 0)
(-0.000492416 -0.0123273 0)
(-0.00050105 -0.0120224 0)
(-0.000509394 -0.0117207 0)
(-0.000517465 -0.0114225 0)
(-0.000525278 -0.011128 0)
(-0.000532848 -0.0108373 0)
(-0.000540185 -0.0105506 0)
(-0.000547301 -0.010268 0)
(-0.000554206 -0.00998974 0)
(-0.000560906 -0.00971587 0)
(-0.000567411 -0.00944652 0)
(-0.000573726 -0.00918181 0)
(-0.000579859 -0.00892181 0)
(-0.000585814 -0.00866663 0)
(-0.000591597 -0.00841633 0)
(-0.000597214 -0.00817098 0)
(-0.000602668 -0.00793064 0)