/*--------------------------------*- C++ -*----------------------------------*\
| =========                 |                                                 |
| \\      /  F ield         | OpenFOAM: The Open Source CFD Toolbox           |
|  \\    /   O peration     | Version:  2.4.0                                 |
|   \\  /    A nd           | Web:      www.OpenFOAM.org                      |
|    \\/     M anipulation  |                                                 |
\*---------------------------------------------------------------------------*/
FoamFile
{
    version     2.0;
    format      ascii;
    class       volScalarField;
    location    "2.6";
    object      H;
}
// * * * * * * * * * * * * * * * * * * * * * * * * * * * * * * * * * * * * * //

dimensions      [0 2 -2 0 0 0 0];

internalField   nonuniform List<scalar> 
500
(
-11940.9
-11940.9
-11940.9
-11940.9
-11940.9
-11359.5
-11359.5
-11359.5
-11359.5
-11359.5
-10771.6
-10771.6
-10771.6
-10771.6
-10771.6
-10177.1
-10177.1
-10177.1
-10177.1
-10177.1
-9575.93
-9575.92
-9575.91
-9575.92
-9575.93
-8967.91
-8967.9
-8967.89
-8967.9
-8967.91
-8352.97
-8352.96
-8352.94
-8352.96
-8352.97
-7730.98
-7730.96
-7730.94
-7730.96
-7730.98
-7101.81
-7101.79
-7101.77
-7101.79
-7101.81
-6465.31
-6465.29
-6465.26
-6465.29
-6465.31
-5821.32
-5821.29
-5821.25
-5821.29
-5821.32
-5169.66
-5169.62
-5169.58
-5169.62
-5169.66
-4510.13
-4510.08
-4510.04
-4510.08
-4510.13
-3842.52
-3842.46
-3842.41
-3842.46
-3842.52
-3166.61
-3166.54
-3166.48
-3166.54
-3166.61
-2482.14
-2482.06
-2481.99
-2482.06
-2482.14
-1788.86
-1788.77
-1788.69
-1788.77
-1788.86
-1086.5
-1086.39
-1086.3
-1086.39
-1086.5
-50.2154
-50.1798
-50.1543
-50.1794
-50.2158
-38.1585
-38.1312
-38.1117
-38.1309
-38.1588
-38.572
-38.545
-38.5256
-38.5447
-38.5723
-38.9631
-38.9363
-38.9172
-38.936
-38.9634
-39.3309
-39.3044
-39.2855
-39.3041
-39.3312
-39.6747
-39.6485
-39.6298
-39.6482
-39.675
-39.9936
-39.9677
-39.9493
-39.9675
-39.9939
-40.287
-40.2614
-40.2432
-40.2611
-40.2873
-40.554
-40.5287
-40.5108
-40.5285
-40.5542
-40.7938
-40.7689
-40.7513
-40.7687
-40.7941
-41.0059
-40.9814
-40.964
-40.9811
-41.0062
-41.1895
-41.1653
-41.1482
-41.1651
-41.1897
-41.3439
-41.3201
-41.3033
-41.3199
-41.3442
-41.4686
-41.4452
-41.4287
-41.445
-41.4689
-41.5629
-41.54
-41.5237
-41.5397
-41.5632
-41.6264
-41.6039
-41.5879
-41.6036
-41.6266
-41.6585
-41.6364
-41.6208
-41.6361
-41.6587
-41.6587
-41.637
-41.6218
-41.6368
-41.6589
-41.6267
-41.6055
-41.5906
-41.6053
-41.6269
-41.5621
-41.5414
-41.5268
-41.5412
-41.5623
-41.4646
-41.4444
-41.4301
-41.4442
-41.4648
-41.3339
-41.3142
-41.3004
-41.3141
-41.3342
-41.17
-41.1508
-41.1373
-41.1506
-41.1702
-40.9726
-40.954
-40.9408
-40.9538
-40.9728
-40.7418
-40.7237
-40.7109
-40.7235
-40.742
-40.4775
-40.4599
-40.4475
-40.4598
-40.4777
-40.1799
-40.1629
-40.1508
-40.1627
-40.1801
-39.8491
-39.8326
-39.821
-39.8324
-39.8493
-39.4853
-39.4694
-39.4582
-39.4693
-39.4855
-39.089
-39.0736
-39.0628
-39.0735
-39.0891
-38.6604
-38.6456
-38.6352
-38.6455
-38.6606
-38.2001
-38.1859
-38.1759
-38.1858
-38.2002
-37.7086
-37.695
-37.6854
-37.6949
-37.7088
-37.1866
-37.1736
-37.1644
-37.1735
-37.1868
-36.6349
-36.6224
-36.6136
-36.6223
-36.635
-36.0541
-36.0422
-36.0338
-36.0421
-36.0542
-35.4452
-35.4339
-35.4259
-35.4338
-35.4453
-34.8093
-34.7985
-34.7909
-34.7984
-34.8093
-34.1472
-34.137
-34.1298
-34.1369
-34.1473
-33.4601
-33.4506
-33.4437
-33.4505
-33.4602
-32.7493
-32.7403
-32.7339
-32.7402
-32.7494
-32.016
-32.0076
-32.0015
-32.0075
-32.0161
-31.2616
-31.2537
-31.248
-31.2536
-31.2616
-30.4873
-30.4799
-30.4746
-30.4798
-30.4873
-29.6947
-29.6878
-29.6829
-29.6878
-29.6947
-28.8852
-28.8789
-28.8743
-28.8788
-28.8853
-28.0604
-28.0546
-28.0504
-28.0546
-28.0605
-27.222
-27.2166
-27.2127
-27.2166
-27.222
-26.3714
-26.3665
-26.3629
-26.3664
-26.3714
-25.5103
-25.5059
-25.5026
-25.5058
-25.5103
-24.6404
-24.6364
-24.6335
-24.6364
-24.6404
-23.7634
-23.7598
-23.7571
-23.7598
-23.7634
-22.8808
-22.8777
-22.8753
-22.8776
-22.8808
-21.9944
-21.9917
-21.9896
-21.9917
-21.9945
-21.1059
-21.1035
-21.1016
-21.1034
-21.1059
-20.2167
-20.2147
-20.213
-20.2146
-20.2167
-19.3285
-19.3268
-19.3254
-19.3267
-19.3285
-18.4428
-18.4414
-18.4402
-18.4414
-18.4428
-17.5611
-17.56
-17.559
-17.56
-17.5611
-16.6848
-16.6839
-16.6831
-16.6839
-16.6848
-15.8152
-15.8146
-15.8139
-15.8146
-15.8152
-14.9536
-14.9532
-14.9527
-14.9532
-14.9536
-14.1012
-14.1009
-14.1006
-14.1009
-14.1012
-13.2589
-13.2588
-13.2586
-13.2588
-13.2589
-12.4278
-12.4279
-12.4277
-12.4278
-12.4278
-11.6087
-11.6089
-11.6088
-11.6089
-11.6087
-10.8023
-10.8026
-10.8026
-10.8026
-10.8022
-10.0092
-10.0096
-10.0097
-10.0095
-10.0091
-9.22982
-9.23028
-9.23043
-9.23027
-9.22981
-8.46457
-8.46507
-8.46527
-8.46506
-8.46456
-7.7136
-7.71413
-7.71435
-7.71412
-7.71358
-6.97694
-6.97749
-6.97773
-6.97748
-6.97693
-6.25452
-6.25506
-6.25531
-6.25505
-6.25451
-5.54609
-5.54661
-5.54687
-5.54661
-5.54608
-4.85129
-4.85178
-4.85202
-4.85177
-4.85127
-4.1696
-4.17005
-4.17028
-4.17005
-4.16959
-3.5004
-3.5008
-3.50101
-3.5008
-3.50039
-2.84294
-2.84327
-2.84345
-2.84327
-2.84293
-2.19633
-2.1966
-2.19674
-2.1966
-2.19633
-1.55961
-1.55981
-1.55991
-1.55981
-1.55961
-0.931724
-0.931842
-0.931906
-0.931842
-0.931721
-0.311516
-0.311556
-0.311577
-0.311555
-0.311515
)
;

boundaryField
{
    BotWall
    {
        type            zeroGradient;
    }
    FreeStream
    {
        type            zeroGradient;
    }
    FrontNBack
    {
        type            empty;
    }
    LeftSide
    {
        type            symmetryPlane;
    }
    RightSide
    {
        type            symmetryPlane;
    }
}


// ************************************************************************* //
