/*--------------------------------*- C++ -*----------------------------------*\
| =========                 |                                                 |
| \\      /  F ield         | OpenFOAM: The Open Source CFD Toolbox           |
|  \\    /   O peration     | Version:  2.4.0                                 |
|   \\  /    A nd           | Web:      www.OpenFOAM.org                      |
|    \\/     M anipulation  |                                                 |
\*---------------------------------------------------------------------------*/
FoamFile
{
    version     2.0;
    format      ascii;
    class       volScalarField;
    location    "2.6";
    object      p;
}
// * * * * * * * * * * * * * * * * * * * * * * * * * * * * * * * * * * * * * //

dimensions      [1 -1 -2 0 0 0 0];

internalField   nonuniform List<scalar> 
500
(
0.570636
0.570669
0.570549
0.57067
0.570636
0.54078
0.540815
0.540697
0.540816
0.54078
0.510661
0.510696
0.510577
0.510697
0.51066
0.480158
0.480194
0.480076
0.480195
0.480157
0.449369
0.449406
0.449289
0.449407
0.449368
0.418174
0.418213
0.418097
0.418213
0.418173
0.386691
0.386731
0.386615
0.386731
0.38669
0.35484
0.354881
0.354766
0.354881
0.354839
0.32282
0.322862
0.322749
0.322863
0.322819
0.29035
0.290393
0.290281
0.290394
0.290349
0.256457
0.256501
0.256389
0.256501
0.256456
0.219013
0.219054
0.218941
0.219054
0.219012
0.181944
0.181986
0.181872
0.181987
0.181943
0.17321
0.173276
0.17317
0.173276
0.173209
0.242366
0.242504
0.242444
0.242506
0.242364
0.293273
0.293478
0.293514
0.29348
0.29327
-0.398126
-0.398259
-0.398428
-0.39826
-0.398127
-2.99567
-2.99716
-2.99828
-2.99718
-2.99566
-5.55369
-5.55732
-5.55991
-5.55735
-5.55365
-0.0163232
-0.0163229
-0.0163227
-0.0163229
-0.0163232
-0.00938994
-0.00939029
-0.00939043
-0.00939029
-0.00938994
-0.0112551
-0.0112551
-0.0112551
-0.0112551
-0.0112551
-0.0124836
-0.0124835
-0.0124835
-0.0124835
-0.0124836
-0.0131877
-0.0131877
-0.0131877
-0.0131877
-0.0131877
-0.0137801
-0.0137801
-0.0137801
-0.0137801
-0.0137801
-0.0144015
-0.0144015
-0.0144015
-0.0144015
-0.0144015
-0.0150505
-0.0150505
-0.0150505
-0.0150505
-0.0150505
-0.015711
-0.015711
-0.015711
-0.015711
-0.015711
-0.0163781
-0.0163781
-0.0163781
-0.0163781
-0.0163781
-0.0170518
-0.0170518
-0.0170518
-0.0170518
-0.0170518
-0.0177328
-0.0177328
-0.0177328
-0.0177328
-0.0177328
-0.0184215
-0.0184215
-0.0184215
-0.0184215
-0.0184215
-0.0191178
-0.0191178
-0.0191178
-0.0191178
-0.0191178
-0.019822
-0.019822
-0.019822
-0.019822
-0.019822
-0.020534
-0.020534
-0.020534
-0.020534
-0.020534
-0.021254
-0.021254
-0.0212539
-0.021254
-0.021254
-0.0219819
-0.0219819
-0.0219819
-0.0219819
-0.0219819
-0.0227181
-0.022718
-0.022718
-0.022718
-0.0227181
-0.0234624
-0.0234624
-0.0234624
-0.0234624
-0.0234624
-0.024215
-0.024215
-0.024215
-0.024215
-0.024215
-0.024976
-0.024976
-0.024976
-0.024976
-0.024976
-0.0257456
-0.0257456
-0.0257456
-0.0257456
-0.0257456
-0.0265237
-0.0265237
-0.0265237
-0.0265237
-0.0265237
-0.0273105
-0.0273105
-0.0273105
-0.0273105
-0.0273105
-0.028106
-0.028106
-0.028106
-0.028106
-0.028106
-0.0289105
-0.0289105
-0.0289105
-0.0289105
-0.0289105
-0.0297239
-0.0297239
-0.0297239
-0.0297239
-0.0297239
-0.0305464
-0.0305464
-0.0305464
-0.0305464
-0.0305464
-0.0313781
-0.0313781
-0.0313781
-0.0313781
-0.0313781
-0.0322191
-0.0322191
-0.032219
-0.0322191
-0.0322191
-0.0330694
-0.0330694
-0.0330694
-0.0330694
-0.0330694
-0.0339292
-0.0339292
-0.0339292
-0.0339292
-0.0339292
-0.0347987
-0.0347987
-0.0347987
-0.0347987
-0.0347987
-0.0356778
-0.0356778
-0.0356778
-0.0356778
-0.0356778
-0.0365667
-0.0365667
-0.0365667
-0.0365667
-0.0365667
-0.0374656
-0.0374656
-0.0374656
-0.0374656
-0.0374656
-0.0383745
-0.0383745
-0.0383745
-0.0383745
-0.0383745
-0.0392935
-0.0392935
-0.0392935
-0.0392935
-0.0392935
-0.0402228
-0.0402228
-0.0402228
-0.0402228
-0.0402228
-0.0411625
-0.0411625
-0.0411625
-0.0411625
-0.0411625
-0.0421126
-0.0421126
-0.0421126
-0.0421126
-0.0421126
-0.0430734
-0.0430734
-0.0430734
-0.0430734
-0.0430734
-0.0440448
-0.0440448
-0.0440448
-0.0440448
-0.0440448
-0.0450271
-0.0450271
-0.0450271
-0.0450271
-0.0450271
-0.0460204
-0.0460204
-0.0460204
-0.0460204
-0.0460204
-0.0470248
-0.0470248
-0.0470248
-0.0470248
-0.0470248
-0.0480403
-0.0480403
-0.0480403
-0.0480403
-0.0480403
-0.0490672
-0.0490672
-0.0490672
-0.0490672
-0.0490672
-0.0501056
-0.0501056
-0.0501056
-0.0501056
-0.0501056
-0.0511555
-0.0511555
-0.0511555
-0.0511555
-0.0511555
-0.0522172
-0.0522172
-0.0522172
-0.0522172
-0.0522172
-0.0532907
-0.0532907
-0.0532907
-0.0532907
-0.0532907
-0.0543762
-0.0543762
-0.0543762
-0.0543762
-0.0543762
-0.0554737
-0.0554737
-0.0554737
-0.0554737
-0.0554737
-0.0565836
-0.0565836
-0.0565836
-0.0565836
-0.0565836
-0.0577058
-0.0577058
-0.0577058
-0.0577058
-0.0577058
-0.0588406
-0.0588406
-0.0588406
-0.0588406
-0.0588406
-0.059988
-0.059988
-0.059988
-0.059988
-0.059988
-0.0611482
-0.0611482
-0.0611482
-0.0611482
-0.0611482
-0.0623214
-0.0623214
-0.0623214
-0.0623214
-0.0623214
-0.0635076
-0.0635076
-0.0635076
-0.0635076
-0.0635076
-0.0647071
-0.0647071
-0.0647071
-0.0647071
-0.0647071
-0.06592
-0.06592
-0.06592
-0.06592
-0.06592
-0.0671464
-0.0671464
-0.0671464
-0.0671464
-0.0671464
-0.0683865
-0.0683865
-0.0683865
-0.0683865
-0.0683865
-0.0696404
-0.0696404
-0.0696404
-0.0696404
-0.0696404
-0.0709084
-0.0709084
-0.0709084
-0.0709084
-0.0709084
-0.0721904
-0.0721904
-0.0721904
-0.0721904
-0.0721904
-0.0734868
-0.0734868
-0.0734868
-0.0734868
-0.0734868
-0.0747977
-0.0747977
-0.0747977
-0.0747977
-0.0747977
-0.0761231
-0.0761231
-0.0761231
-0.0761231
-0.0761231
-0.0774634
-0.0774634
-0.0774634
-0.0774634
-0.0774634
-0.0788186
-0.0788186
-0.0788186
-0.0788186
-0.0788186
-0.080189
-0.080189
-0.080189
-0.080189
-0.080189
-0.0815746
-0.0815746
-0.0815746
-0.0815746
-0.0815746
-0.0829757
-0.0829757
-0.0829757
-0.0829757
-0.0829757
-0.0843924
-0.0843924
-0.0843924
-0.0843924
-0.0843924
-0.085825
-0.085825
-0.085825
-0.085825
-0.085825
-0.0872735
-0.0872735
-0.0872735
-0.0872735
-0.0872735
-0.0887382
-0.0887382
-0.0887382
-0.0887382
-0.0887382
)
;

boundaryField
{
    BotWall
    {
        type            calculated;
        value           nonuniform List<scalar> 5(0.585456 0.585489 0.58537 0.58549 0.585456);
    }
    FreeStream
    {
        type            calculated;
        value           nonuniform List<scalar> 5(-0.0894746 -0.0894746 -0.0894746 -0.0894746 -0.0894746);
    }
    FrontNBack
    {
        type            empty;
    }
    LeftSide
    {
        type            symmetryPlane;
    }
    RightSide
    {
        type            symmetryPlane;
    }
}


// ************************************************************************* //
