/*--------------------------------*- C++ -*----------------------------------*\
| =========                 |                                                 |
| \\      /  F ield         | OpenFOAM: The Open Source CFD Toolbox           |
|  \\    /   O peration     | Version:  2.4.0                                 |
|   \\  /    A nd           | Web:      www.OpenFOAM.org                      |
|    \\/     M anipulation  |                                                 |
\*---------------------------------------------------------------------------*/
FoamFile
{
    version     2.0;
    format      ascii;
    class       volScalarField;
    location    "2.6";
    object      p_rgh;
}
// * * * * * * * * * * * * * * * * * * * * * * * * * * * * * * * * * * * * * //

dimensions      [1 -1 -2 0 0 0 0];

internalField   nonuniform List<scalar> 
500
(
0.585456
0.585489
0.58537
0.58549
0.585456
0.585407
0.585442
0.585324
0.585443
0.585406
0.585426
0.585461
0.585342
0.585462
0.585425
0.585398
0.585434
0.585316
0.585435
0.585397
0.585424
0.585461
0.585344
0.585462
0.585423
0.585388
0.585426
0.58531
0.585427
0.585387
0.585411
0.585451
0.585336
0.585451
0.58541
0.585418
0.585459
0.585345
0.585459
0.585417
0.585612
0.585654
0.585541
0.585655
0.585611
0.585715
0.585758
0.585646
0.585759
0.585714
0.584759
0.584802
0.58469
0.584803
0.584758
0.580618
0.580659
0.580546
0.58066
0.580617
0.577226
0.577267
0.577153
0.577268
0.577225
0.602543
0.602608
0.602503
0.602609
0.602542
0.70613
0.706269
0.706208
0.70627
0.706129
0.791853
0.792058
0.792094
0.79206
0.79185
0.135658
0.135526
0.135356
0.135525
0.135657
-2.42629
-2.42778
-2.4289
-2.4278
-2.42627
-5.41027
-5.41379
-5.41631
-5.41383
-5.41023
-0.00569309
-0.00569273
-0.00569255
-0.00569273
-0.0056931
0.00184978
0.00184943
0.00184929
0.00184943
0.00184978
0.000601019
0.000601054
0.00060104
0.000601054
0.000601019
-4.22218e-06
-4.16484e-06
-4.1524e-06
-4.16465e-06
-4.2224e-06
-7.81285e-05
-7.81187e-05
-7.81111e-05
-7.81186e-05
-7.81286e-05
-3.32934e-05
-3.32975e-05
-3.32942e-05
-3.32974e-05
-3.32935e-05
-1.03599e-05
-1.03591e-05
-1.03567e-05
-1.0359e-05
-1.03599e-05
-7.73022e-06
-7.72547e-06
-7.72298e-06
-7.72544e-06
-7.73028e-06
-9.4886e-06
-9.48339e-06
-9.48078e-06
-9.48335e-06
-9.48866e-06
-1.0369e-05
-1.03644e-05
-1.03618e-05
-1.03643e-05
-1.03691e-05
-1.04422e-05
-1.04379e-05
-1.04354e-05
-1.04378e-05
-1.04422e-05
-1.03432e-05
-1.03389e-05
-1.03365e-05
-1.03389e-05
-1.03432e-05
-1.02794e-05
-1.02753e-05
-1.02729e-05
-1.02752e-05
-1.02795e-05
-1.02475e-05
-1.02434e-05
-1.02411e-05
-1.02434e-05
-1.02475e-05
-1.0222e-05
-1.0218e-05
-1.02157e-05
-1.0218e-05
-1.0222e-05
-1.01947e-05
-1.01908e-05
-1.01886e-05
-1.01908e-05
-1.01948e-05
-1.01659e-05
-1.01621e-05
-1.01599e-05
-1.0162e-05
-1.01659e-05
-1.01365e-05
-1.01327e-05
-1.01306e-05
-1.01327e-05
-1.01365e-05
-1.01067e-05
-1.01031e-05
-1.0101e-05
-1.01031e-05
-1.01068e-05
-1.00768e-05
-1.00732e-05
-1.00711e-05
-1.00732e-05
-1.00768e-05
-1.00464e-05
-1.0043e-05
-1.00409e-05
-1.00429e-05
-1.00465e-05
-1.00158e-05
-1.00124e-05
-1.00104e-05
-1.00123e-05
-1.00158e-05
-9.9848e-06
-9.98146e-06
-9.97955e-06
-9.98143e-06
-9.98483e-06
-9.95345e-06
-9.9502e-06
-9.94833e-06
-9.95016e-06
-9.95348e-06
-9.92176e-06
-9.91858e-06
-9.91676e-06
-9.91855e-06
-9.92179e-06
-9.88971e-06
-9.88661e-06
-9.88484e-06
-9.88658e-06
-9.88974e-06
-9.85731e-06
-9.85428e-06
-9.85256e-06
-9.85425e-06
-9.85734e-06
-9.82455e-06
-9.82159e-06
-9.81991e-06
-9.82156e-06
-9.82457e-06
-9.79142e-06
-9.78854e-06
-9.7869e-06
-9.78851e-06
-9.79144e-06
-9.75792e-06
-9.75511e-06
-9.75351e-06
-9.75508e-06
-9.75794e-06
-9.72405e-06
-9.72131e-06
-9.71976e-06
-9.72128e-06
-9.72407e-06
-9.6898e-06
-9.68713e-06
-9.68562e-06
-9.6871e-06
-9.68982e-06
-9.65517e-06
-9.65257e-06
-9.6511e-06
-9.65254e-06
-9.65519e-06
-9.62015e-06
-9.61762e-06
-9.61619e-06
-9.61759e-06
-9.62017e-06
-9.58475e-06
-9.58228e-06
-9.58089e-06
-9.58225e-06
-9.58476e-06
-9.54894e-06
-9.54654e-06
-9.54519e-06
-9.54652e-06
-9.54896e-06
-9.51274e-06
-9.51041e-06
-9.50909e-06
-9.51038e-06
-9.51275e-06
-9.47614e-06
-9.47387e-06
-9.47259e-06
-9.47384e-06
-9.47615e-06
-9.43913e-06
-9.43692e-06
-9.43568e-06
-9.43689e-06
-9.43914e-06
-9.4017e-06
-9.39956e-06
-9.39836e-06
-9.39953e-06
-9.40171e-06
-9.36386e-06
-9.36178e-06
-9.36061e-06
-9.36175e-06
-9.36387e-06
-9.3256e-06
-9.32358e-06
-9.32244e-06
-9.32355e-06
-9.3256e-06
-9.28691e-06
-9.28495e-06
-9.28385e-06
-9.28492e-06
-9.28691e-06
-9.24779e-06
-9.24589e-06
-9.24482e-06
-9.24586e-06
-9.24779e-06
-9.20824e-06
-9.20639e-06
-9.20536e-06
-9.20637e-06
-9.20824e-06
-9.16824e-06
-9.16645e-06
-9.16545e-06
-9.16643e-06
-9.16824e-06
-9.1278e-06
-9.12607e-06
-9.1251e-06
-9.12604e-06
-9.1278e-06
-9.08691e-06
-9.08523e-06
-9.08429e-06
-9.08521e-06
-9.0869e-06
-9.04556e-06
-9.04394e-06
-9.04303e-06
-9.04392e-06
-9.04556e-06
-9.00375e-06
-9.00219e-06
-9.00131e-06
-9.00216e-06
-9.00375e-06
-8.96148e-06
-8.95996e-06
-8.95911e-06
-8.95994e-06
-8.96147e-06
-8.91873e-06
-8.91727e-06
-8.91645e-06
-8.91725e-06
-8.91873e-06
-8.87551e-06
-8.8741e-06
-8.87331e-06
-8.87408e-06
-8.87551e-06
-8.83181e-06
-8.83045e-06
-8.82969e-06
-8.83043e-06
-8.83181e-06
-8.78762e-06
-8.78631e-06
-8.78558e-06
-8.78629e-06
-8.78762e-06
-8.74294e-06
-8.74168e-06
-8.74097e-06
-8.74166e-06
-8.74294e-06
-8.69777e-06
-8.69655e-06
-8.69587e-06
-8.69653e-06
-8.69776e-06
-8.65208e-06
-8.65092e-06
-8.65026e-06
-8.6509e-06
-8.65208e-06
-8.60589e-06
-8.60478e-06
-8.60414e-06
-8.60476e-06
-8.60589e-06
-8.55919e-06
-8.55812e-06
-8.55751e-06
-8.5581e-06
-8.55918e-06
-8.51197e-06
-8.51094e-06
-8.51036e-06
-8.51093e-06
-8.51196e-06
-8.46422e-06
-8.46324e-06
-8.46268e-06
-8.46322e-06
-8.46421e-06
-8.41594e-06
-8.415e-06
-8.41446e-06
-8.41499e-06
-8.41593e-06
-8.36712e-06
-8.36623e-06
-8.36571e-06
-8.36621e-06
-8.36711e-06
-8.31776e-06
-8.31691e-06
-8.31642e-06
-8.3169e-06
-8.31775e-06
-8.26785e-06
-8.26704e-06
-8.26657e-06
-8.26703e-06
-8.26784e-06
-8.21738e-06
-8.21662e-06
-8.21617e-06
-8.2166e-06
-8.21737e-06
-8.16635e-06
-8.16563e-06
-8.1652e-06
-8.16562e-06
-8.16634e-06
-8.11475e-06
-8.11408e-06
-8.11367e-06
-8.11406e-06
-8.11474e-06
-8.06258e-06
-8.06195e-06
-8.06156e-06
-8.06193e-06
-8.06257e-06
-8.00983e-06
-8.00924e-06
-8.00887e-06
-8.00922e-06
-8.00982e-06
-7.95649e-06
-7.95594e-06
-7.95559e-06
-7.95593e-06
-7.95648e-06
-7.90256e-06
-7.90204e-06
-7.90172e-06
-7.90203e-06
-7.90255e-06
-7.84802e-06
-7.84755e-06
-7.84725e-06
-7.84754e-06
-7.84802e-06
-7.79288e-06
-7.79245e-06
-7.79217e-06
-7.79244e-06
-7.79288e-06
-7.73713e-06
-7.73674e-06
-7.73647e-06
-7.73673e-06
-7.73712e-06
-7.68075e-06
-7.6804e-06
-7.68016e-06
-7.68039e-06
-7.68075e-06
-7.62376e-06
-7.62344e-06
-7.62321e-06
-7.62343e-06
-7.62375e-06
-7.56612e-06
-7.56583e-06
-7.56561e-06
-7.56583e-06
-7.56612e-06
-7.50784e-06
-7.50759e-06
-7.5074e-06
-7.50758e-06
-7.50783e-06
-7.44876e-06
-7.4487e-06
-7.44862e-06
-7.44869e-06
-7.44876e-06
)
;

boundaryField
{
    BotWall
    {
        type            fixedFluxPressure;
        gradient        uniform 0;
        value           nonuniform List<scalar> 5(0.585456 0.585489 0.58537 0.58549 0.585456);
    }
    FreeStream
    {
        type            totalPressure;
        rho             rho;
        psi             none;
        gamma           1;
        p0              uniform 0;
        value           nonuniform List<scalar> 5(-7.41897e-06 -7.4191e-06 -7.41914e-06 -7.4191e-06 -7.41897e-06);
    }
    FrontNBack
    {
        type            empty;
    }
    LeftSide
    {
        type            symmetryPlane;
    }
    RightSide
    {
        type            symmetryPlane;
    }
}


// ************************************************************************* //
