/*--------------------------------*- C++ -*----------------------------------*\
| =========                 |                                                 |
| \\      /  F ield         | OpenFOAM: The Open Source CFD Toolbox           |
|  \\    /   O peration     | Version:  2.4.0                                 |
|   \\  /    A nd           | Web:      www.OpenFOAM.org                      |
|    \\/     M anipulation  |                                                 |
\*---------------------------------------------------------------------------*/
FoamFile
{
    version     2.0;
    format      ascii;
    class       surfaceScalarField;
    location    "2.6";
    object      phi;
}
// * * * * * * * * * * * * * * * * * * * * * * * * * * * * * * * * * * * * * //

dimensions      [0 3 -1 0 0 0 0];

internalField   nonuniform List<scalar> 
895
(
3.17906e-18
-3.17899e-18
2.23059e-18
9.48724e-19
-2.22197e-18
4.45275e-18
-3.20912e-18
9.87229e-19
-3.20886e-18
9.69696e-18
-1.28748e-17
6.69754e-18
3.95004e-18
-6.67073e-18
1.78237e-17
-9.78913e-18
4.10775e-18
-1.29964e-17
1.64225e-17
-2.9296e-17
1.12582e-17
9.11646e-18
-1.12133e-17
4.02981e-17
-1.65802e-17
9.47689e-18
-2.9575e-17
2.33713e-17
-5.26659e-17
1.59493e-17
1.65408e-17
-1.58857e-17
7.21362e-17
-2.3599e-17
1.71926e-17
-5.31724e-17
3.05223e-17
-8.31866e-17
2.0761e-17
2.63045e-17
-2.06781e-17
1.13578e-16
-3.08226e-17
2.73395e-17
-8.39934e-17
3.79215e-17
-1.21106e-16
2.57158e-17
3.85126e-17
-2.56128e-17
1.6491e-16
-3.82975e-17
4.00266e-17
-1.22289e-16
4.55358e-17
-1.66641e-16
3.07985e-17
5.32523e-17
-3.06745e-17
2.26387e-16
-4.5991e-17
5.53454e-17
-1.68279e-16
5.34222e-17
-2.20061e-16
3.6037e-17
7.06398e-17
-3.58911e-17
2.98318e-16
-5.39601e-17
7.34167e-17
-2.22237e-16
6.15392e-17
-2.81599e-16
4.14116e-17
9.07697e-17
-4.12426e-17
3.80975e-16
-6.21639e-17
9.43403e-17
-2.844e-16
6.99535e-17
-3.51551e-16
4.6955e-17
1.1377e-16
-4.67618e-17
4.74695e-16
-7.06693e-17
1.1825e-16
-3.55068e-16
7.86185e-17
-4.30168e-16
5.26451e-17
1.39746e-16
-5.24267e-17
5.79769e-16
-7.94298e-17
1.45255e-16
-4.34496e-16
8.76071e-17
-5.17773e-16
5.85179e-17
1.68837e-16
-5.82732e-17
6.96563e-16
-8.85184e-17
1.75502e-16
-5.23014e-16
9.68663e-17
-6.14638e-16
6.45492e-17
2.01156e-16
-6.42769e-17
8.25391e-16
-9.7883e-17
2.09109e-16
-6.20896e-16
1.0646e-16
-7.21098e-16
7.07719e-17
2.36846e-16
-7.04709e-17
9.66636e-16
-1.07587e-16
2.46227e-16
-7.28482e-16
1.16348e-16
-8.37444e-16
7.71568e-17
2.76038e-16
-7.68262e-17
1.12062e-15
-1.17589e-16
2.86991e-16
-8.46071e-16
1.26668e-16
-9.64112e-16
8.38895e-17
3.18817e-16
-8.3527e-17
1.28804e-15
-1.28033e-16
3.31498e-16
-9.74103e-16
1.3767e-16
-1.10178e-15
9.04854e-17
3.66003e-16
-9.00974e-17
1.46862e-15
-1.3917e-16
3.80571e-16
-1.11327e-15
1.49674e-16
-5.28523e-15
9.8566e-17
4.17111e-16
-9.81165e-17
1.6653e-15
-1.51345e-16
4.33799e-16
-5.34087e-15
1.66976e-16
-2.55105e-10
1.10346e-16
-2.55109e-10
-1.09762e-16
-2.55111e-10
-1.68966e-16
-2.55109e-10
-2.55105e-10
1.68437e-16
-2.55105e-10
1.10323e-16
-2.55109e-10
-1.09823e-16
-2.55111e-10
-1.70317e-16
-2.55109e-10
-2.55105e-10
1.69875e-16
-2.55105e-10
1.09203e-16
-2.55108e-10
-1.08621e-16
-2.55111e-10
-1.71755e-16
-2.55108e-10
-2.55105e-10
1.5407e-16
-2.55105e-10
1.02184e-16
-2.55108e-10
-1.01622e-16
-2.5511e-10
-1.55752e-16
-2.55108e-10
-2.55105e-10
1.43874e-16
-2.55105e-10
9.55089e-17
-2.55108e-10
-9.49371e-17
-2.5511e-10
-1.45408e-16
-2.55108e-10
-2.55105e-10
1.35506e-16
-2.55106e-10
8.95708e-17
-2.55108e-10
-8.8978e-17
-2.5511e-10
-1.36914e-16
-2.55108e-10
-2.55106e-10
1.26849e-16
-2.55106e-10
8.39704e-17
-2.55108e-10
-8.33557e-17
-2.5511e-10
-1.28134e-16
-2.55108e-10
-2.55106e-10
1.1788e-16
-2.55106e-10
7.84131e-17
-2.55108e-10
-7.77773e-17
-2.5511e-10
-1.19041e-16
-2.55108e-10
-2.55106e-10
1.08989e-16
-2.55106e-10
7.28696e-17
-2.55108e-10
-7.2213e-17
-2.5511e-10
-1.10027e-16
-2.55108e-10
-2.55106e-10
1.00298e-16
-2.55106e-10
6.73906e-17
-2.55108e-10
-6.67128e-17
-2.55109e-10
-1.01216e-16
-2.55108e-10
-2.55106e-10
9.17918e-17
-2.55106e-10
6.20082e-17
-2.55108e-10
-6.13091e-17
-2.55109e-10
-9.25907e-17
-2.55108e-10
-2.55106e-10
8.34505e-17
-2.55106e-10
5.67321e-17
-2.55108e-10
-5.60116e-17
-2.55109e-10
-8.41333e-17
-2.55108e-10
-2.55106e-10
7.52805e-17
-2.55106e-10
5.15664e-17
-2.55108e-10
-5.08244e-17
-2.55109e-10
-7.58497e-17
-2.55108e-10
-2.55106e-10
6.72961e-17
-2.55106e-10
4.65166e-17
-2.55108e-10
-4.5753e-17
-2.55109e-10
-6.77542e-17
-2.55108e-10
-2.55106e-10
5.95102e-17
-2.55106e-10
4.15895e-17
-2.55108e-10
-4.08046e-17
-2.55109e-10
-5.986e-17
-2.55108e-10
-2.55106e-10
5.19342e-17
-2.55106e-10
3.67925e-17
-2.55108e-10
-3.59863e-17
-2.55109e-10
-5.21786e-17
-2.55108e-10
-2.55106e-10
4.45787e-17
-2.55107e-10
3.21324e-17
-2.55108e-10
-3.13051e-17
-2.55109e-10
-4.47207e-17
-2.55108e-10
-2.55107e-10
3.74541e-17
-2.55107e-10
2.76161e-17
-2.55108e-10
-2.6768e-17
-2.55109e-10
-3.74969e-17
-2.55108e-10
-2.55107e-10
3.05707e-17
-2.55107e-10
2.325e-17
-2.55108e-10
-2.23814e-17
-2.55109e-10
-3.05175e-17
-2.55108e-10
-2.55107e-10
2.39383e-17
-2.55107e-10
1.90405e-17
-2.55108e-10
-1.81516e-17
-2.55109e-10
-2.37926e-17
-2.55108e-10
-2.55107e-10
1.75665e-17
-2.55107e-10
1.49934e-17
-2.55108e-10
-1.40848e-17
-2.55109e-10
-1.73319e-17
-2.55108e-10
-2.55107e-10
1.14644e-17
-2.55107e-10
1.11147e-17
-2.55108e-10
-1.01868e-17
-2.55109e-10
-1.11444e-17
-2.55108e-10
-2.55107e-10
5.64034e-18
-2.55107e-10
7.40973e-18
-2.55108e-10
-6.46311e-18
-2.55109e-10
-5.23887e-18
-2.55108e-10
-2.55107e-10
1.02505e-19
-2.55107e-10
3.88364e-18
-2.55108e-10
-2.91886e-18
-2.55109e-10
3.76595e-19
-2.55108e-10
-2.55107e-10
-5.1417e-18
-2.55107e-10
5.41159e-19
-2.55108e-10
4.41132e-19
-2.55109e-10
5.69445e-18
-2.55108e-10
-2.55107e-10
-1.00855e-17
-2.55107e-10
-2.61336e-18
-2.55108e-10
3.61248e-18
-2.55109e-10
1.07078e-17
-2.55108e-10
-2.55107e-10
-1.47227e-17
-2.55107e-10
-5.57601e-18
-2.55108e-10
6.59121e-18
-2.55109e-10
1.54104e-17
-2.55108e-10
-2.55107e-10
-1.90479e-17
-2.55107e-10
-8.34333e-18
-2.55108e-10
9.37383e-18
-2.55109e-10
1.97969e-17
-2.55108e-10
-2.55107e-10
-2.30565e-17
-2.55107e-10
-1.09123e-17
-2.55108e-10
1.19573e-17
-2.55109e-10
2.38624e-17
-2.55108e-10
-2.55107e-10
-2.67447e-17
-2.55107e-10
-1.32806e-17
-2.55108e-10
1.43392e-17
-2.55109e-10
2.76032e-17
-2.55108e-10
-2.55107e-10
-3.01093e-17
-2.55107e-10
-1.54461e-17
-2.55108e-10
1.65174e-17
-2.55109e-10
3.10161e-17
-2.55108e-10
-2.55106e-10
-3.31483e-17
-2.55107e-10
-1.74076e-17
-2.55108e-10
1.84906e-17
-2.55109e-10
3.40989e-17
-2.55108e-10
-2.55106e-10
-3.58605e-17
-2.55106e-10
-1.91641e-17
-2.55108e-10
2.02579e-17
-2.55109e-10
3.68505e-17
-2.55108e-10
-2.55106e-10
-3.82454e-17
-2.55106e-10
-2.07156e-17
-2.55108e-10
2.18192e-17
-2.55109e-10
3.92705e-17
-2.55108e-10
-2.55106e-10
-4.03039e-17
-2.55106e-10
-2.20623e-17
-2.55108e-10
2.31746e-17
-2.55109e-10
4.13595e-17
-2.55108e-10
-2.55106e-10
-4.20374e-17
-2.55106e-10
-2.32053e-17
-2.55108e-10
2.43253e-17
-2.55109e-10
4.31192e-17
-2.55108e-10
-2.55106e-10
-4.34485e-17
-2.55106e-10
-2.41462e-17
-2.55108e-10
2.52728e-17
-2.55109e-10
4.45523e-17
-2.55108e-10
-2.55106e-10
-4.45409e-17
-2.55106e-10
-2.48872e-17
-2.55108e-10
2.60194e-17
-2.55109e-10
4.56622e-17
-2.55108e-10
-2.55106e-10
-4.5319e-17
-2.55106e-10
-2.54312e-17
-2.55108e-10
2.65679e-17
-2.55109e-10
4.64536e-17
-2.55108e-10
-2.55106e-10
-4.57885e-17
-2.55106e-10
-2.57816e-17
-2.55108e-10
2.69218e-17
-2.55109e-10
4.69321e-17
-2.55108e-10
-2.55106e-10
-4.59557e-17
-2.55106e-10
-2.59427e-17
-2.55108e-10
2.70852e-17
-2.55109e-10
4.71043e-17
-2.55108e-10
-2.55106e-10
-4.58282e-17
-2.55106e-10
-2.59191e-17
-2.55108e-10
2.70628e-17
-2.55109e-10
4.69777e-17
-2.55108e-10
-2.55106e-10
-4.54142e-17
-2.55106e-10
-2.5716e-17
-2.55108e-10
2.68599e-17
-2.55109e-10
4.65609e-17
-2.55108e-10
-2.55106e-10
-4.47231e-17
-2.55106e-10
-2.53393e-17
-2.55108e-10
2.64823e-17
-2.55109e-10
4.5863e-17
-2.55108e-10
-2.55106e-10
-4.37649e-17
-2.55106e-10
-2.47954e-17
-2.55108e-10
2.59365e-17
-2.55109e-10
4.48944e-17
-2.55108e-10
-2.55106e-10
-4.25505e-17
-2.55106e-10
-2.40911e-17
-2.55108e-10
2.52292e-17
-2.55109e-10
4.36661e-17
-2.55108e-10
-2.55106e-10
-4.10915e-17
-2.55106e-10
-2.32339e-17
-2.55108e-10
2.4368e-17
-2.55109e-10
4.21898e-17
-2.55108e-10
-2.55106e-10
-3.94003e-17
-2.55106e-10
-2.22313e-17
-2.55108e-10
2.33606e-17
-2.5511e-10
4.0478e-17
-2.55108e-10
-2.55106e-10
-3.74896e-17
-2.55106e-10
-2.10917e-17
-2.55108e-10
2.22152e-17
-2.5511e-10
3.85438e-17
-2.55108e-10
-2.55106e-10
-3.53731e-17
-2.55106e-10
-1.98235e-17
-2.55108e-10
2.09403e-17
-2.5511e-10
3.64008e-17
-2.55108e-10
-2.55106e-10
-3.30647e-17
-2.55106e-10
-1.84355e-17
-2.55108e-10
1.95447e-17
-2.5511e-10
3.40632e-17
-2.55108e-10
-2.55106e-10
-3.05787e-17
-2.55106e-10
-1.69367e-17
-2.55108e-10
1.80376e-17
-2.5511e-10
3.15455e-17
-2.55108e-10
-2.55106e-10
-2.79296e-17
-2.55106e-10
-1.53364e-17
-2.55108e-10
1.64282e-17
-2.5511e-10
2.88625e-17
-2.55108e-10
-2.55106e-10
-2.51326e-17
-2.55106e-10
-1.36439e-17
-2.55108e-10
1.47259e-17
-2.5511e-10
2.60293e-17
-2.55108e-10
-2.55106e-10
-2.22025e-17
-2.55106e-10
-1.18686e-17
-2.55108e-10
1.29402e-17
-2.5511e-10
2.30612e-17
-2.55108e-10
-2.55106e-10
-1.91545e-17
-2.55106e-10
-1.002e-17
-2.55108e-10
1.10807e-17
-2.5511e-10
1.99734e-17
-2.55108e-10
-2.55106e-10
-1.60036e-17
-2.55106e-10
-8.10763e-18
-2.55108e-10
9.15684e-18
-2.5511e-10
1.67814e-17
-2.55108e-10
-2.55106e-10
-1.27651e-17
-2.55106e-10
-6.14084e-18
-2.55108e-10
7.17816e-18
-2.5511e-10
1.35002e-17
-2.55108e-10
-2.55105e-10
-9.45363e-18
-2.55106e-10
-4.12893e-18
-2.55108e-10
5.15401e-18
-2.5511e-10
1.01451e-17
-2.55108e-10
-2.55105e-10
-6.08408e-18
-2.55106e-10
-2.08107e-18
-2.55108e-10
3.09362e-18
-2.5511e-10
6.73101e-18
-2.55108e-10
-2.55105e-10
-2.67089e-18
-2.55106e-10
-6.2525e-21
-2.55109e-10
1.00607e-18
-2.5511e-10
3.27258e-18
-2.55109e-10
-2.55105e-10
7.71716e-19
-2.55106e-10
2.08673e-18
-2.55109e-10
-1.09976e-18
-2.5511e-10
-2.15743e-19
-2.55109e-10
-2.55105e-10
4.2298e-18
-2.55106e-10
4.18926e-18
-2.55109e-10
-3.21518e-18
-2.5511e-10
-3.71982e-18
-2.55109e-10
-2.55105e-10
7.68972e-18
-2.55106e-10
6.29297e-18
-2.55109e-10
-5.33171e-18
-2.5511e-10
-7.22579e-18
-2.55108e-10
-2.55105e-10
1.11381e-17
-2.55106e-10
8.38964e-18
-2.55108e-10
-7.44107e-18
-2.5511e-10
-1.07201e-17
-2.55108e-10
-2.55105e-10
1.45618e-17
-2.55106e-10
1.04713e-17
-2.55108e-10
-9.53514e-18
-2.5511e-10
-1.41893e-17
-2.55108e-10
-2.55106e-10
1.79478e-17
-2.55106e-10
1.253e-17
-2.55108e-10
-1.16059e-17
-2.5511e-10
-1.76204e-17
-2.55108e-10
-2.55106e-10
2.12833e-17
-2.55106e-10
1.4558e-17
-2.55108e-10
-1.36456e-17
-2.5511e-10
-2.10001e-17
-2.55108e-10
-2.55106e-10
2.45555e-17
-2.55106e-10
1.65475e-17
-2.55108e-10
-1.56463e-17
-2.5511e-10
-2.43156e-17
-2.55108e-10
-2.55106e-10
2.77513e-17
-2.55106e-10
1.84908e-17
-2.55108e-10
-1.76e-17
-2.5511e-10
-2.75535e-17
-2.55108e-10
-2.55106e-10
3.08576e-17
-2.55106e-10
2.038e-17
-2.55108e-10
-1.94989e-17
-2.5511e-10
-3.07006e-17
-2.55108e-10
-2.55106e-10
3.38608e-17
-2.55106e-10
2.22069e-17
-2.55108e-10
-2.13346e-17
-2.5511e-10
-3.37428e-17
-2.55108e-10
-2.55106e-10
3.67466e-17
-2.55106e-10
2.3963e-17
-2.55108e-10
-2.30984e-17
-2.5511e-10
-3.66658e-17
-2.55108e-10
-2.55106e-10
3.94999e-17
-2.55106e-10
2.56393e-17
-2.55108e-10
-2.47814e-17
-2.55109e-10
-3.94541e-17
-2.55108e-10
-2.55106e-10
4.21046e-17
-2.55106e-10
2.72263e-17
-2.55108e-10
-2.63737e-17
-2.55109e-10
-4.20915e-17
-2.55108e-10
-2.55106e-10
4.45433e-17
-2.55106e-10
2.87135e-17
-2.55108e-10
-2.78649e-17
-2.55109e-10
-4.45603e-17
-2.55108e-10
-2.55106e-10
4.67972e-17
-2.55106e-10
3.00896e-17
-2.55108e-10
-2.92435e-17
-2.55109e-10
-4.68412e-17
-2.55108e-10
-2.55106e-10
4.8845e-17
-2.55106e-10
3.1342e-17
-2.55108e-10
-3.04966e-17
-2.55109e-10
-4.89128e-17
-2.55108e-10
-2.55106e-10
5.06634e-17
-2.55106e-10
3.24566e-17
-2.55108e-10
-3.16101e-17
-2.55109e-10
-5.07513e-17
-2.55108e-10
-2.55106e-10
5.22281e-17
-2.55106e-10
3.34186e-17
-2.55108e-10
-3.25691e-17
-2.55109e-10
-5.23319e-17
-2.55108e-10
-2.55106e-10
5.35188e-17
-2.55106e-10
3.42166e-17
-2.55108e-10
-3.33618e-17
-2.55109e-10
-5.36344e-17
-2.55108e-10
-2.55106e-10
5.4518e-17
3.48302e-17
-3.39677e-17
-5.46409e-17
)
;

boundaryField
{
    BotWall
    {
        type            calculated;
        value           nonuniform List<scalar> 5(-4.4502e-23 -4.29887e-23 -8.97822e-23 -8.26506e-23 -7.66465e-23);
    }
    FreeStream
    {
        type            calculated;
        value           nonuniform List<scalar> 5(-2.55106e-10 -2.55108e-10 -2.55109e-10 -2.55108e-10 -2.55106e-10);
    }
    FrontNBack
    {
        type            empty;
        value           nonuniform 0();
    }
    LeftSide
    {
        type            symmetryPlane;
        value           uniform 0;
    }
    RightSide
    {
        type            symmetryPlane;
        value           uniform 0;
    }
}


// ************************************************************************* //
