/*--------------------------------*- C++ -*----------------------------------*\
| =========                 |                                                 |
| \\      /  F ield         | OpenFOAM: The Open Source CFD Toolbox           |
|  \\    /   O peration     | Version:  2.4.0                                 |
|   \\  /    A nd           | Web:      www.OpenFOAM.org                      |
|    \\/     M anipulation  |                                                 |
\*---------------------------------------------------------------------------*/
FoamFile
{
    version     2.0;
    format      ascii;
    class       volVectorField;
    location    "2.6";
    object      U;
}
// * * * * * * * * * * * * * * * * * * * * * * * * * * * * * * * * * * * * * //

dimensions      [0 1 -1 0 0 0 0];

internalField   nonuniform List<vector> 
500
(
(7.46682e-10 5.78272e-10 0)
(1.5861e-09 5.93187e-10 0)
(7.07049e-12 5.96651e-10 0)
(-1.59383e-09 5.93222e-10 0)
(-7.61052e-10 5.78246e-10 0)
(2.25838e-09 -1.53482e-09 0)
(4.75625e-09 -1.52051e-09 0)
(2.14469e-11 -1.48409e-09 0)
(-4.77961e-09 -1.52011e-09 0)
(-2.30188e-09 -1.53513e-09 0)
(3.79391e-09 2.48962e-09 0)
(7.93892e-09 2.66607e-09 0)
(3.59844e-11 2.76978e-09 0)
(-7.97853e-09 2.66726e-09 0)
(-3.86732e-09 2.4887e-09 0)
(5.36125e-09 -3.7562e-09 0)
(1.11421e-08 -3.56598e-09 0)
(5.07962e-11 -3.35719e-09 0)
(-1.11986e-08 -3.56356e-09 0)
(-5.46553e-09 -3.75808e-09 0)
(6.95167e-09 4.35519e-09 0)
(1.4357e-08 4.87735e-09 0)
(6.59193e-11 5.22494e-09 0)
(-1.44309e-08 4.88145e-09 0)
(-7.08753e-09 4.352e-09 0)
(8.57899e-09 -6.38892e-09 0)
(1.75977e-08 -5.8345e-09 0)
(8.13904e-11 -5.3084e-09 0)
(-1.76892e-08 -5.82825e-09 0)
(-8.74712e-09 -6.39381e-09 0)
(1.02304e-08 5.96591e-09 0)
(2.08513e-08 7.02836e-09 0)
(9.72226e-11 7.7668e-09 0)
(-2.09609e-08 7.03725e-09 0)
(-1.04315e-08 5.95896e-09 0)
(1.19231e-08 -9.68231e-09 0)
(2.41354e-08 -8.56415e-09 0)
(1.13448e-10 -7.56983e-09 0)
(-2.42635e-08 -8.5521e-09 0)
(-1.21583e-08 -9.69175e-09 0)
(1.36417e-08 1.03295e-08 0)
(2.74342e-08 1.21406e-08 0)
(1.30113e-10 1.34279e-08 0)
(-2.75814e-08 1.21564e-08 0)
(-1.39117e-08 1.03172e-08 0)
(1.5406e-08 -3.65162e-09 0)
(3.0768e-08 -1.74685e-09 0)
(1.47225e-10 -1.20609e-10 0)
(-3.09347e-08 -1.72676e-09 0)
(-1.57119e-08 -3.66735e-09 0)
(1.71988e-08 2.13678e-08 0)
(3.41194e-08 2.41491e-08 0)
(1.64797e-10 2.61469e-08 0)
(-3.43063e-08 2.4174e-08 0)
(-1.75417e-08 2.13482e-08 0)
(1.90414e-08 -6.62049e-08 0)
(3.75099e-08 -6.3359e-08 0)
(1.82867e-10 -6.09624e-08 0)
(-3.77175e-08 -6.33289e-08 0)
(-1.94224e-08 -6.62286e-08 0)
(2.09156e-08 -2.25106e-07 0)
(4.09208e-08 -2.21336e-07 0)
(2.01459e-10 -2.18566e-07 0)
(-4.11497e-08 -2.21301e-07 0)
(-2.13359e-08 -2.25133e-07 0)
(2.28423e-08 -2.89334e-07 0)
(4.43729e-08 -2.85326e-07 0)
(2.20594e-10 -2.82111e-07 0)
(-4.46237e-08 -2.85286e-07 0)
(-2.33032e-08 -2.89364e-07 0)
(2.48082e-08 1.30289e-06 0)
(4.78536e-08 1.30942e-06 0)
(2.40322e-10 1.31373e-06 0)
(-4.81271e-08 1.30947e-06 0)
(-2.5311e-08 1.30284e-06 0)
(2.68504e-08 6.34963e-06 0)
(5.1409e-08 6.35984e-06 0)
(2.60808e-10 6.36696e-06 0)
(-5.17062e-08 6.35994e-06 0)
(-2.7397e-08 6.34955e-06 0)
(2.8969e-08 5.95641e-06 0)
(5.50103e-08 5.96907e-06 0)
(2.80953e-10 5.9783e-06 0)
(-5.53341e-08 5.9692e-06 0)
(-2.9562e-08 5.95628e-06 0)
(3.11527e-08 -2.73445e-05 0)
(5.87718e-08 -2.73502e-05 0)
(3.04528e-10 -2.73538e-05 0)
(-5.91206e-08 -2.73503e-05 0)
(-3.17941e-08 -2.73445e-05 0)
(3.38686e-08 -0.000215782 0)
(6.34336e-08 -0.000215875 0)
(3.33739e-10 -0.000215943 0)
(-6.38146e-08 -0.000215876 0)
(-3.45714e-08 -0.000215781 0)
(3.46513e-08 -0.000998081 0)
(6.47874e-08 -0.000998032 0)
(3.42394e-10 -0.000998006 0)
(-6.51769e-08 -0.000998031 0)
(-3.53712e-08 -0.000998082 0)
(3.39186e-08 -0.00228898 0)
(6.31698e-08 -0.00228893 0)
(3.40531e-10 -0.00228889 0)
(-6.35351e-08 -0.00228893 0)
(-3.46118e-08 -0.00228898 0)
(3.09085e-08 -0.00130535 0)
(5.83745e-08 -0.00130541 0)
(3.25028e-10 -0.00130543 0)
(-5.87023e-08 -0.00130541 0)
(-3.15483e-08 -0.00130535 0)
(2.84097e-08 -0.00121729 0)
(5.41476e-08 -0.00121731 0)
(3.10214e-10 -0.00121732 0)
(-5.44392e-08 -0.00121731 0)
(-2.89982e-08 -0.00121729 0)
(2.62323e-08 -0.0012463 0)
(5.03382e-08 -0.0012463 0)
(2.96675e-10 -0.00124631 0)
(-5.05953e-08 -0.0012463 0)
(-2.67726e-08 -0.0012463 0)
(2.4128e-08 -0.00127344 0)
(4.66691e-08 -0.00127345 0)
(2.83958e-10 -0.00127346 0)
(-4.6893e-08 -0.00127345 0)
(-2.46224e-08 -0.00127344 0)
(2.20413e-08 -0.00127814 0)
(4.30636e-08 -0.00127816 0)
(2.71729e-10 -0.00127816 0)
(-4.32554e-08 -0.00127816 0)
(-2.24914e-08 -0.00127814 0)
(2.00076e-08 -0.00127669 0)
(3.95551e-08 -0.00127671 0)
(2.59939e-10 -0.00127671 0)
(-3.97157e-08 -0.00127671 0)
(-2.04149e-08 -0.00127669 0)
(1.80485e-08 -0.00127562 0)
(3.61671e-08 -0.00127563 0)
(2.48605e-10 -0.00127563 0)
(-3.62976e-08 -0.00127563 0)
(-1.84145e-08 -0.00127562 0)
(1.61658e-08 -0.00127542 0)
(3.29032e-08 -0.00127543 0)
(2.37736e-10 -0.00127544 0)
(-3.30046e-08 -0.00127543 0)
(-1.64922e-08 -0.00127542 0)
(1.43571e-08 -0.00127548 0)
(2.97615e-08 -0.00127549 0)
(2.27326e-10 -0.0012755 0)
(-2.98348e-08 -0.00127549 0)
(-1.46455e-08 -0.00127548 0)
(1.26214e-08 -0.00127553 0)
(2.67415e-08 -0.00127554 0)
(2.17368e-10 -0.00127554 0)
(-2.67879e-08 -0.00127554 0)
(-1.28734e-08 -0.00127553 0)
(1.09593e-08 -0.00127554 0)
(2.3844e-08 -0.00127554 0)
(2.07855e-10 -0.00127555 0)
(-2.38646e-08 -0.00127554 0)
(-1.11764e-08 -0.00127554 0)
(9.37097e-09 -0.00127553 0)
(2.10698e-08 -0.00127554 0)
(1.9878e-10 -0.00127555 0)
(-2.10656e-08 -0.00127554 0)
(-9.5549e-09 -0.00127553 0)
(7.85683e-09 -0.00127553 0)
(1.84194e-08 -0.00127554 0)
(1.90135e-10 -0.00127554 0)
(-1.83916e-08 -0.00127554 0)
(-8.00911e-09 -0.00127553 0)
(6.41692e-09 -0.00127553 0)
(1.58932e-08 -0.00127554 0)
(1.81914e-10 -0.00127554 0)
(-1.58429e-08 -0.00127554 0)
(-6.53915e-09 -0.00127553 0)
(5.05122e-09 -0.00127553 0)
(1.34913e-08 -0.00127554 0)
(1.74107e-10 -0.00127554 0)
(-1.34197e-08 -0.00127554 0)
(-5.14496e-09 -0.00127553 0)
(3.7596e-09 -0.00127553 0)
(1.12136e-08 -0.00127554 0)
(1.66708e-10 -0.00127554 0)
(-1.11218e-08 -0.00127554 0)
(-3.82642e-09 -0.00127553 0)
(2.54185e-09 -0.00127553 0)
(9.05998e-09 -0.00127554 0)
(1.59706e-10 -0.00127554 0)
(-8.94908e-09 -0.00127554 0)
(-2.58329e-09 -0.00127553 0)
(1.39764e-09 -0.00127553 0)
(7.02997e-09 -0.00127554 0)
(1.53095e-10 -0.00127554 0)
(-6.90115e-09 -0.00127554 0)
(-1.41524e-09 -0.00127553 0)
(3.26519e-10 -0.00127553 0)
(5.12299e-09 -0.00127554 0)
(1.46865e-10 -0.00127554 0)
(-4.97739e-09 -0.00127554 0)
(-3.21806e-10 -0.00127553 0)
(-6.72052e-10 -0.00127553 0)
(3.33824e-09 -0.00127554 0)
(1.41007e-10 -0.00127554 0)
(-3.177e-09 -0.00127554 0)
(6.97579e-10 -0.00127553 0)
(-1.59874e-09 -0.00127553 0)
(1.67473e-09 -0.00127554 0)
(1.35511e-10 -0.00127554 0)
(-1.49899e-09 -0.00127554 0)
(1.6436e-09 -0.00127553 0)
(-2.45433e-09 -0.00127553 0)
(1.31257e-10 -0.00127554 0)
(1.30368e-10 -0.00127554 0)
(5.78537e-11 -0.00127554 0)
(2.51707e-09 -0.00127553 0)
(-3.23973e-09 -0.00127553 0)
(-1.29359e-09 -0.00127554 0)
(1.25567e-10 -0.00127554 0)
(1.49495e-09 -0.00127554 0)
(3.3189e-09 -0.00127553 0)
(-3.95594e-09 -0.00127553 0)
(-2.60141e-09 -0.00127554 0)
(1.211e-10 -0.00127554 0)
(2.81392e-09 -0.00127554 0)
(4.05014e-09 -0.00127553 0)
(-4.60412e-09 -0.00127553 0)
(-3.79405e-09 -0.00127554 0)
(1.16954e-10 -0.00127554 0)
(4.0166e-09 -0.00127554 0)
(4.71196e-09 -0.00127553 0)
(-5.1855e-09 -0.00127553 0)
(-4.87352e-09 -0.00127554 0)
(1.1312e-10 -0.00127554 0)
(5.10504e-09 -0.00127554 0)
(5.30564e-09 -0.00127553 0)
(-5.70147e-09 -0.00127553 0)
(-5.84208e-09 -0.00127554 0)
(1.09587e-10 -0.00127554 0)
(6.0815e-09 -0.00127554 0)
(5.83258e-09 -0.00127553 0)
(-6.15352e-09 -0.00127553 0)
(-6.70215e-09 -0.00127554 0)
(1.06343e-10 -0.00127554 0)
(6.94843e-09 -0.00127554 0)
(6.29432e-09 -0.00127553 0)
(-6.54324e-09 -0.00127553 0)
(-7.45638e-09 -0.00127554 0)
(1.03378e-10 -0.00127554 0)
(7.70851e-09 -0.00127554 0)
(6.69248e-09 -0.00127553 0)
(-6.87235e-09 -0.00127553 0)
(-8.10762e-09 -0.00127554 0)
(1.00681e-10 -0.00127554 0)
(8.3646e-09 -0.00127554 0)
(7.02881e-09 -0.00127553 0)
(-7.14268e-09 -0.00127553 0)
(-8.6589e-09 -0.00127554 0)
(9.82389e-11 -0.00127554 0)
(8.91975e-09 -0.00127554 0)
(7.30519e-09 -0.00127553 0)
(-7.35615e-09 -0.00127553 0)
(-9.11342e-09 -0.00127554 0)
(9.60412e-11 -0.00127554 0)
(9.37721e-09 -0.00127554 0)
(7.52358e-09 -0.00127553 0)
(-7.51478e-09 -0.00127553 0)
(-9.47459e-09 -0.00127554 0)
(9.40759e-11 -0.00127554 0)
(9.7404e-09 -0.00127554 0)
(7.68604e-09 -0.00127553 0)
(-7.62069e-09 -0.00127553 0)
(-9.74595e-09 -0.00127554 0)
(9.23312e-11 -0.00127554 0)
(1.00129e-08 -0.00127554 0)
(7.79473e-09 -0.00127553 0)
(-7.6761e-09 -0.00127553 0)
(-9.93122e-09 -0.00127554 0)
(9.07952e-11 -0.00127554 0)
(1.01985e-08 -0.00127554 0)
(7.85192e-09 -0.00127553 0)
(-7.68329e-09 -0.00127553 0)
(-1.00343e-08 -0.00127554 0)
(8.94561e-11 -0.00127555 0)
(1.0301e-08 -0.00127554 0)
(7.85993e-09 -0.00127553 0)
(-7.64462e-09 -0.00127553 0)
(-1.0059e-08 -0.00127554 0)
(8.8302e-11 -0.00127555 0)
(1.03245e-08 -0.00127554 0)
(7.82118e-09 -0.00127553 0)
(-7.56252e-09 -0.00127553 0)
(-1.00097e-08 -0.00127554 0)
(8.73209e-11 -0.00127555 0)
(1.02731e-08 -0.00127554 0)
(7.73814e-09 -0.00127553 0)
(-7.43948e-09 -0.00127553 0)
(-9.89038e-09 -0.00127554 0)
(8.65012e-11 -0.00127555 0)
(1.01511e-08 -0.00127554 0)
(7.61335e-09 -0.00127553 0)
(-7.27804e-09 -0.00127553 0)
(-9.70543e-09 -0.00127554 0)
(8.5831e-11 -0.00127555 0)
(9.96274e-09 -0.00127554 0)
(7.4494e-09 -0.00127553 0)
(-7.08077e-09 -0.00127553 0)
(-9.45919e-09 -0.00127554 0)
(8.52989e-11 -0.00127555 0)
(9.7125e-09 -0.00127554 0)
(7.2489e-09 -0.00127553 0)
(-6.85027e-09 -0.00127553 0)
(-9.15607e-09 -0.00127554 0)
(8.48935e-11 -0.00127555 0)
(9.4048e-09 -0.00127554 0)
(7.01451e-09 -0.00127553 0)
(-6.58916e-09 -0.00127553 0)
(-8.80051e-09 -0.00127554 0)
(8.46035e-11 -0.00127555 0)
(9.04414e-09 -0.00127554 0)
(6.74891e-09 -0.00127553 0)
(-6.30007e-09 -0.00127553 0)
(-8.39697e-09 -0.00127554 0)
(8.4418e-11 -0.00127555 0)
(8.63501e-09 -0.00127554 0)
(6.45478e-09 -0.00127553 0)
(-5.98564e-09 -0.00127553 0)
(-7.94991e-09 -0.00127554 0)
(8.43265e-11 -0.00127555 0)
(8.1819e-09 -0.00127554 0)
(6.13479e-09 -0.00127553 0)
(-5.64847e-09 -0.00127553 0)
(-7.46374e-09 -0.00127554 0)
(8.43186e-11 -0.00127555 0)
(7.68929e-09 -0.00127554 0)
(5.7916e-09 -0.00127553 0)
(-5.29116e-09 -0.00127553 0)
(-6.94286e-09 -0.00127554 0)
(8.43843e-11 -0.00127555 0)
(7.1616e-09 -0.00127554 0)
(5.42787e-09 -0.00127553 0)
(-4.91627e-09 -0.00127553 0)
(-6.39158e-09 -0.00127554 0)
(8.45142e-11 -0.00127555 0)
(6.60319e-09 -0.00127554 0)
(5.04619e-09 -0.00127553 0)
(-4.52629e-09 -0.00127553 0)
(-5.81415e-09 -0.00127554 0)
(8.46992e-11 -0.00127555 0)
(6.01836e-09 -0.00127554 0)
(4.64912e-09 -0.00127553 0)
(-4.1237e-09 -0.00127553 0)
(-5.2147e-09 -0.00127554 0)
(8.49306e-11 -0.00127555 0)
(5.41128e-09 -0.00127554 0)
(4.23917e-09 -0.00127553 0)
(-3.71089e-09 -0.00127553 0)
(-4.59726e-09 -0.00127554 0)
(8.52005e-11 -0.00127555 0)
(4.78602e-09 -0.00127554 0)
(3.81877e-09 -0.00127553 0)
(-3.29017e-09 -0.00127553 0)
(-3.96574e-09 -0.00127554 0)
(8.55012e-11 -0.00127555 0)
(4.14652e-09 -0.00127554 0)
(3.3903e-09 -0.00127553 0)
(-2.86379e-09 -0.00127553 0)
(-3.32388e-09 -0.00127554 0)
(8.58259e-11 -0.00127555 0)
(3.49657e-09 -0.00127554 0)
(2.95603e-09 -0.00127553 0)
(-2.43391e-09 -0.00127553 0)
(-2.67528e-09 -0.00127554 0)
(8.61681e-11 -0.00127555 0)
(2.83981e-09 -0.00127554 0)
(2.51816e-09 -0.00127553 0)
(-2.00258e-09 -0.00127553 0)
(-2.02336e-09 -0.00127554 0)
(8.65221e-11 -0.00127555 0)
(2.17969e-09 -0.00127554 0)
(2.0788e-09 -0.00127553 0)
(-1.57177e-09 -0.00127553 0)
(-1.37139e-09 -0.00127554 0)
(8.68828e-11 -0.00127555 0)
(1.51952e-09 -0.00127554 0)
(1.63994e-09 -0.00127553 0)
(-1.14335e-09 -0.00127553 0)
(-7.22433e-10 -0.00127554 0)
(8.72457e-11 -0.00127555 0)
(8.62394e-10 -0.00127554 0)
(1.2035e-09 -0.00127553 0)
(-7.19086e-10 -0.00127553 0)
(-7.9382e-11 -0.00127554 0)
(8.76069e-11 -0.00127555 0)
(2.1124e-10 -0.00127554 0)
(7.71262e-10 -0.00127553 0)
(-3.00642e-10 -0.00127553 0)
(5.55056e-10 -0.00127554 0)
(8.79632e-11 -0.00127555 0)
(-4.31204e-10 -0.00127554 0)
(3.44937e-10 -0.00127553 0)
(1.10416e-10 -0.00127553 0)
(1.17835e-09 -0.00127554 0)
(8.83118e-11 -0.00127555 0)
(-1.06238e-09 -0.00127554 0)
(-7.38825e-11 -0.00127553 0)
(5.12618e-10 -0.00127553 0)
(1.78816e-09 -0.00127554 0)
(8.86508e-11 -0.00127555 0)
(-1.67991e-09 -0.00127554 0)
(-4.83696e-10 -0.00127553 0)
(9.04582e-10 -0.00127553 0)
(2.38229e-09 -0.00127554 0)
(8.89786e-11 -0.00127555 0)
(-2.28158e-09 -0.00127554 0)
(-8.83096e-10 -0.00127553 0)
(1.28501e-09 -0.00127553 0)
(2.95872e-09 -0.00127554 0)
(8.92942e-11 -0.00127555 0)
(-2.86532e-09 -0.00127554 0)
(-1.27076e-09 -0.00127553 0)
(1.65268e-09 -0.00127553 0)
(3.51554e-09 -0.00127554 0)
(8.95968e-11 -0.00127555 0)
(-3.42924e-09 -0.00127554 0)
(-1.64543e-09 -0.00127553 0)
(2.00643e-09 -0.00127553 0)
(4.05099e-09 -0.00127554 0)
(8.98863e-11 -0.00127555 0)
(-3.97151e-09 -0.00127554 0)
(-2.00594e-09 -0.00127553 0)
(2.34515e-09 -0.00127553 0)
(4.56339e-09 -0.00127554 0)
(9.01628e-11 -0.00127555 0)
(-4.49045e-09 -0.00127554 0)
(-2.35114e-09 -0.00127553 0)
(2.66778e-09 -0.00127553 0)
(5.05115e-09 -0.00127554 0)
(9.04265e-11 -0.00127555 0)
(-4.98444e-09 -0.00127554 0)
(-2.67994e-09 -0.00127553 0)
(2.97325e-09 -0.00127553 0)
(5.51271e-09 -0.00127554 0)
(9.06778e-11 -0.00127555 0)
(-5.45191e-09 -0.00127554 0)
(-2.99127e-09 -0.00127553 0)
(3.26053e-09 -0.00127553 0)
(5.94655e-09 -0.00127554 0)
(9.09171e-11 -0.00127555 0)
(-5.89129e-09 -0.00127554 0)
(-3.28407e-09 -0.00127553 0)
(3.52855e-09 -0.00127553 0)
(6.35112e-09 -0.00127554 0)
(9.11448e-11 -0.00127555 0)
(-6.30103e-09 -0.00127554 0)
(-3.55725e-09 -0.00127553 0)
(3.77624e-09 -0.00127553 0)
(6.72484e-09 -0.00127554 0)
(9.13611e-11 -0.00127555 0)
(-6.67952e-09 -0.00127554 0)
(-3.8097e-09 -0.00127553 0)
(4.00244e-09 -0.00127553 0)
(7.06606e-09 -0.00127554 0)
(9.15657e-11 -0.00127555 0)
(-7.02508e-09 -0.00127554 0)
(-4.04025e-09 -0.00127553 0)
(4.20595e-09 -0.00127553 0)
(7.373e-09 -0.00127554 0)
(9.1758e-11 -0.00127555 0)
(-7.33592e-09 -0.00127554 0)
(-4.24769e-09 -0.00127553 0)
(4.38547e-09 -0.00127553 0)
(7.64375e-09 -0.00127554 0)
(9.19366e-11 -0.00127555 0)
(-7.61009e-09 -0.00127554 0)
(-4.43067e-09 -0.00127553 0)
(4.53958e-09 -0.00127553 0)
(7.8762e-09 -0.00127554 0)
(9.20995e-11 -0.00127555 0)
(-7.84547e-09 -0.00127554 0)
(-4.58774e-09 -0.00127553 0)
(4.66674e-09 -0.00127553 0)
(8.06806e-09 -0.00127554 0)
(9.22437e-11 -0.00127555 0)
(-8.03973e-09 -0.00127554 0)
(-4.71735e-09 -0.00127553 0)
(4.76539e-09 -0.00127553 0)
(8.217e-09 -0.00127554 0)
(9.23667e-11 -0.00127555 0)
(-8.19052e-09 -0.00127554 0)
(-4.81789e-09 -0.00127553 0)
(4.83411e-09 -0.00127553 0)
(8.32095e-09 -0.00127554 0)
(9.24687e-11 -0.00127555 0)
(-8.29573e-09 -0.00127554 0)
(-4.88793e-09 -0.00127553 0)
(4.87116e-09 -0.00127553 0)
(8.37726e-09 -0.00127554 0)
(9.25458e-11 -0.00127554 0)
(-8.35269e-09 -0.00127554 0)
(-4.92568e-09 -0.00127553 0)
)
;

boundaryField
{
    BotWall
    {
        type            fixedValue;
        value           uniform (0 0 0);
    }
    FreeStream
    {
        type            zeroGradient;
    }
    FrontNBack
    {
        type            empty;
    }
    LeftSide
    {
        type            symmetryPlane;
    }
    RightSide
    {
        type            symmetryPlane;
    }
}


// ************************************************************************* //
