/*--------------------------------*- C++ -*----------------------------------*\
| =========                 |                                                 |
| \\      /  F ield         | OpenFOAM: The Open Source CFD Toolbox           |
|  \\    /   O peration     | Version:  2.4.0                                 |
|   \\  /    A nd           | Web:      www.OpenFOAM.org                      |
|    \\/     M anipulation  |                                                 |
\*---------------------------------------------------------------------------*/
FoamFile
{
    version     2.0;
    format      ascii;
    class       volScalarField;
    location    "0.8";
    object      H;
}
// * * * * * * * * * * * * * * * * * * * * * * * * * * * * * * * * * * * * * //

dimensions      [0 2 -2 0 0 0 0];

internalField   nonuniform List<scalar> 
125
(
-11698.9
-11698.9
-11698.9
-11698.9
-11698.9
-10630.6
-10630.6
-10630.6
-10630.6
-10630.6
-9550.01
-9550
-9550
-9550
-9550.01
-8456.67
-8456.66
-8456.66
-8456.66
-8456.67
-7350.15
-7350.14
-7350.14
-7350.14
-7350.15
-6229.99
-6229.99
-6229.98
-6229.98
-6229.99
-5095.74
-5095.73
-5095.73
-5095.73
-5095.74
-3946.9
-3946.89
-3946.88
-3946.88
-3946.9
-2782.97
-2782.96
-2782.96
-2782.96
-2782.98
-1603.46
-1603.45
-1603.44
-1603.44
-1603.46
-46.0946
-46.093
-46.0923
-46.0923
-46.095
-34.7367
-34.7355
-34.735
-34.735
-34.737
-35.2312
-35.23
-35.2295
-35.2294
-35.2315
-35.7045
-35.7033
-35.7028
-35.7028
-35.7048
-36.1559
-36.1548
-36.1543
-36.1542
-36.1562
-36.5847
-36.5836
-36.5831
-36.5831
-36.585
-36.9901
-36.989
-36.9885
-36.9885
-36.9904
-37.3714
-37.3703
-37.3698
-37.3698
-37.3717
-37.7279
-37.7268
-37.7263
-37.7262
-37.7281
-38.0588
-38.0577
-38.0572
-38.0572
-38.059
-38.3634
-38.3623
-38.3619
-38.3618
-38.3636
-38.6412
-38.6401
-38.6397
-38.6396
-38.6414
-38.8914
-38.8904
-38.8899
-38.8899
-38.8917
-39.1136
-39.1126
-39.1121
-39.1121
-39.1138
-39.307
-39.306
-39.3055
-39.3055
-39.3072
)
;

boundaryField
{
    BotWall
    {
        type            zeroGradient;
    }
    FreeStream
    {
        type            zeroGradient;
    }
    FrontNBack
    {
        type            empty;
    }
    LeftSide
    {
        type            symmetryPlane;
    }
    RightSide
    {
        type            symmetryPlane;
    }
    procBoundary0to1
    {
        type            processor;
        value           nonuniform List<scalar> 5(-39.4659 -39.4649 -39.4644 -39.4644 -39.4661);
    }
}


// ************************************************************************* //
