/*--------------------------------*- C++ -*----------------------------------*\
| =========                 |                                                 |
| \\      /  F ield         | OpenFOAM: The Open Source CFD Toolbox           |
|  \\    /   O peration     | Version:  2.4.0                                 |
|   \\  /    A nd           | Web:      www.OpenFOAM.org                      |
|    \\/     M anipulation  |                                                 |
\*---------------------------------------------------------------------------*/
FoamFile
{
    version     2.0;
    format      ascii;
    class       volScalarField;
    location    "0.009";
    object      p;
}
// * * * * * * * * * * * * * * * * * * * * * * * * * * * * * * * * * * * * * //

dimensions      [1 -1 -2 0 0 0 0];

internalField   nonuniform List<scalar> 
125
(
0.0373838
-0.0308342
0.116545
-0.781765
-0.104659
0.0244396
0.00564557
-0.00929037
-0.0123914
-0.01184
-0.0114338
-0.0114813
-0.0116649
-0.0118427
-0.0120035
-0.0121599
-0.0123171
-0.0124755
-0.0126348
-0.0127946
-0.0129549
-0.0131159
-0.0132774
-0.0134395
-0.0136023
-0.0137656
-0.0139295
-0.0140941
-0.0142592
-0.014425
-0.0145913
-0.0147583
-0.0149259
-0.0150941
-0.0152629
-0.0154324
-0.0156025
-0.0157731
-0.0159445
-0.0161164
-0.016289
-0.0164622
-0.0166361
-0.0168106
-0.0169858
-0.0171616
-0.017338
-0.0175151
-0.0176928
-0.0178712
-0.0620894
-0.0624313
-0.0627744
-0.0631189
-0.0634645
-0.0638115
-0.0641597
-0.0645093
-0.0648601
-0.0652122
-0.0655656
-0.0659203
-0.0662763
-0.0666336
-0.0669922
-0.0673522
-0.0677134
-0.068076
-0.06844
-0.0688053
-0.0691719
-0.0695399
-0.0699092
-0.0702799
-0.0706519
-0.0710254
-0.0714001
-0.0717763
-0.0721539
-0.0725328
-0.0729132
-0.0732949
-0.0736781
-0.0740627
-0.0744486
-0.074836
-0.0752249
-0.0756151
-0.0760068
-0.0763999
-0.0767945
-0.0771906
-0.0775881
-0.077987
-0.0783874
-0.0787893
-0.0791927
-0.0795976
-0.080004
-0.0804118
-0.0808212
-0.081232
-0.0816444
-0.0820583
-0.0824737
-0.0828906
-0.0833091
-0.0837291
-0.0841507
-0.0845738
-0.0849985
-0.0854247
-0.0858526
-0.0862819
-0.0867129
-0.0871455
-0.0875796
-0.0880153
-0.0884527
-0.0888916
-0.0893322
-0.0897744
-0.0902183
-0.0906637
-0.0911106
)
;

boundaryField
{
    BotWall
    {
        type            calculated;
        value           uniform 0.0423272;
    }
    FreeStream
    {
        type            calculated;
        value           uniform -0.0913343;
    }
    FrontNBack
    {
        type            empty;
    }
    LeftSide
    {
        type            symmetryPlane;
    }
    RightSide
    {
        type            symmetryPlane;
    }
    procBoundary2to0
    {
        type            processor;
        value           nonuniform List<scalar> 
75
(
-0.0620912
-0.0624331
-0.0627762
-0.0631206
-0.0634662
-0.0638131
-0.0641613
-0.0645108
-0.0648615
-0.0652136
-0.0655669
-0.0659216
-0.0662775
-0.0666348
-0.0669934
-0.0673533
-0.0677145
-0.0680771
-0.068441
-0.0688062
-0.0691728
-0.0695407
-0.06991
-0.0702806
-0.0706526
-0.071026
-0.0714007
-0.0717769
-0.0721544
-0.0725333
-0.0729136
-0.0732953
-0.0736784
-0.0740629
-0.0744488
-0.0748362
-0.075225
-0.0756152
-0.0760068
-0.0763999
-0.0767944
-0.0771904
-0.0775878
-0.0779868
-0.0783871
-0.078789
-0.0791923
-0.0795971
-0.0800034
-0.0804112
-0.0808205
-0.0812313
-0.0816436
-0.0820575
-0.0824728
-0.0828897
-0.0833082
-0.0837281
-0.0841496
-0.0845727
-0.0849973
-0.0854235
-0.0858513
-0.0862806
-0.0867115
-0.087144
-0.0875781
-0.0880137
-0.088451
-0.0888899
-0.0893304
-0.0897726
-0.0902163
-0.0906617
-0.0911087
)
;
    }
    procBoundary2to1
    {
        type            processor;
        value           uniform -0.0180502;
    }
    procBoundary2to3
    {
        type            processor;
        value           uniform -0.0617487;
    }
    procBoundary2to4
    {
        type            processor;
        value           nonuniform List<scalar> 
75
(
0.0391167
-0.0305922
0.122478
-0.799483
-0.107019
0.0250172
0.0059101
-0.00925279
-0.0123998
-0.0118376
-0.0114228
-0.0114687
-0.0116527
-0.0118309
-0.0119919
-0.0121482
-0.0123054
-0.0124639
-0.0126232
-0.012783
-0.0129434
-0.0131044
-0.013266
-0.0134281
-0.0135909
-0.0137543
-0.0139182
-0.0140828
-0.014248
-0.0144137
-0.0145801
-0.0147471
-0.0149148
-0.015083
-0.0152519
-0.0154213
-0.0155914
-0.0157622
-0.0159335
-0.0161055
-0.0162781
-0.0164514
-0.0166253
-0.0167998
-0.016975
-0.0171508
-0.0173272
-0.0175044
-0.0176821
-0.0178605
-0.0808205
-0.0812314
-0.0816438
-0.0820577
-0.0824731
-0.0828901
-0.0833086
-0.0837287
-0.0841502
-0.0845734
-0.0849981
-0.0854244
-0.0858522
-0.0862816
-0.0867126
-0.0871452
-0.0875793
-0.0880151
-0.0884525
-0.0888915
-0.0893321
-0.0897743
-0.0902181
-0.0906636
-0.0911105
)
;
    }
    procBoundary2to5
    {
        type            processor;
        value           nonuniform List<scalar> 
50
(
-0.0620876
-0.0624295
-0.0627727
-0.0631171
-0.0634628
-0.0638098
-0.0641581
-0.0645076
-0.0648585
-0.0652106
-0.065564
-0.0659187
-0.0662747
-0.0666321
-0.0669907
-0.0673507
-0.067712
-0.0680746
-0.0684386
-0.0688039
-0.0691705
-0.0695385
-0.0699079
-0.0702786
-0.0706507
-0.0710241
-0.0713989
-0.0717751
-0.0721527
-0.0725317
-0.0729121
-0.0732938
-0.073677
-0.0740616
-0.0744476
-0.074835
-0.0752239
-0.0756141
-0.0760059
-0.076399
-0.0767936
-0.0771897
-0.0775872
-0.0779862
-0.0783867
-0.0787886
-0.079192
-0.0795969
-0.0800032
-0.0804111
)
;
    }
}


// ************************************************************************* //
