/*--------------------------------*- C++ -*----------------------------------*\
| =========                 |                                                 |
| \\      /  F ield         | OpenFOAM: The Open Source CFD Toolbox           |
|  \\    /   O peration     | Version:  2.4.0                                 |
|   \\  /    A nd           | Web:      www.OpenFOAM.org                      |
|    \\/     M anipulation  |                                                 |
\*---------------------------------------------------------------------------*/
FoamFile
{
    version     2.0;
    format      ascii;
    class       surfaceScalarField;
    location    "0.009";
    object      phi;
}
// * * * * * * * * * * * * * * * * * * * * * * * * * * * * * * * * * * * * * //

dimensions      [0 3 -1 0 0 0 0];

internalField   nonuniform List<scalar> 
123
(
-2.54375e-16
-1.10834e-15
-4.81493e-15
-4.04103e-09
-4.04104e-09
-4.04104e-09
-4.04105e-09
-4.04107e-09
-4.04108e-09
-4.0411e-09
-4.04112e-09
-4.04114e-09
-4.04116e-09
-4.04119e-09
-4.04121e-09
-4.04124e-09
-4.04127e-09
-4.04131e-09
-4.04134e-09
-4.04137e-09
-4.04141e-09
-4.04145e-09
-4.04149e-09
-4.04152e-09
-4.04156e-09
-4.0416e-09
-4.04164e-09
-4.04168e-09
-4.04173e-09
-4.04177e-09
-4.04181e-09
-4.04185e-09
-4.04189e-09
-4.04193e-09
-4.04197e-09
-4.04201e-09
-4.04205e-09
-4.04209e-09
-4.04213e-09
-4.04217e-09
-4.04221e-09
-4.04224e-09
-4.04228e-09
-4.04232e-09
-4.04235e-09
-4.04239e-09
-4.04242e-09
-4.04246e-09
-4.04249e-09
-4.04717e-09
-4.04716e-09
-4.04716e-09
-4.04715e-09
-4.04714e-09
-4.04714e-09
-4.04713e-09
-4.04713e-09
-4.04712e-09
-4.04711e-09
-4.04711e-09
-4.0471e-09
-4.0471e-09
-4.04709e-09
-4.04709e-09
-4.04708e-09
-4.04707e-09
-4.04707e-09
-4.04706e-09
-4.04706e-09
-4.04705e-09
-4.04705e-09
-4.04705e-09
-4.04704e-09
-4.04704e-09
-4.04703e-09
-4.04703e-09
-4.04702e-09
-4.04702e-09
-4.04702e-09
-4.04701e-09
-4.04701e-09
-4.04701e-09
-4.04701e-09
-4.047e-09
-4.047e-09
-4.047e-09
-4.047e-09
-4.047e-09
-4.047e-09
-4.04699e-09
-4.04699e-09
-4.04699e-09
-4.04699e-09
-4.04699e-09
-4.047e-09
-4.047e-09
-4.047e-09
-4.047e-09
-4.047e-09
-4.047e-09
-4.04701e-09
-4.04701e-09
-4.04701e-09
-4.04702e-09
-4.04702e-09
-4.04703e-09
-4.04703e-09
-4.04704e-09
-4.04705e-09
-4.04705e-09
-4.04706e-09
-4.04707e-09
-4.04708e-09
-4.04708e-09
-4.04709e-09
-4.0471e-09
-4.04711e-09
-4.04712e-09
-4.04713e-09
-4.04714e-09
-4.04715e-09
-4.04716e-09
-4.04718e-09
)
;

boundaryField
{
    BotWall
    {
        type            calculated;
        value           uniform 2.87979e-21;
    }
    FreeStream
    {
        type            calculated;
        value           uniform -4.04719e-09;
    }
    FrontNBack
    {
        type            empty;
        value           nonuniform 0();
    }
    LeftSide
    {
        type            symmetryPlane;
        value           uniform 0;
    }
    RightSide
    {
        type            symmetryPlane;
        value           nonuniform 0();
    }
    procBoundary2to0
    {
        type            processor;
        value           nonuniform List<scalar> 
75
(
-9.5422e-15
-9.5024e-15
-9.46012e-15
-9.41508e-15
-9.36698e-15
-9.31549e-15
-9.2603e-15
-9.20107e-15
-9.13747e-15
-9.06913e-15
-8.99573e-15
-8.9169e-15
-8.83231e-15
-8.74162e-15
-8.64451e-15
-8.54066e-15
-8.42977e-15
-8.31159e-15
-8.18586e-15
-8.05236e-15
-7.91091e-15
-7.76137e-15
-7.60362e-15
-7.43759e-15
-7.26325e-15
-7.08061e-15
-6.88972e-15
-6.69066e-15
-6.48355e-15
-6.26852e-15
-6.04572e-15
-5.8153e-15
-5.5774e-15
-5.33215e-15
-5.07961e-15
-4.81979e-15
-4.55265e-15
-4.278e-15
-3.99557e-15
-3.70495e-15
-3.4056e-15
-3.09683e-15
-2.77779e-15
-2.44753e-15
-2.10497e-15
-1.74895e-15
-1.3783e-15
-9.91849e-16
-5.88532e-16
-1.67446e-16
2.7196e-16
7.29969e-16
1.20651e-15
1.7009e-15
2.2119e-15
2.7376e-15
3.27545e-15
3.82221e-15
4.37402e-15
4.92643e-15
5.4745e-15
6.01294e-15
6.53627e-15
7.03897e-15
7.5157e-15
7.96146e-15
8.37177e-15
8.74289e-15
9.0719e-15
9.35686e-15
9.59682e-15
9.79189e-15
9.94322e-15
1.00532e-14
1.0118e-14
)
;
    }
    procBoundary2to1
    {
        type            processor;
        value           uniform -4.04252e-09;
    }
    procBoundary2to3
    {
        type            processor;
        value           uniform 4.04718e-09;
    }
    procBoundary2to4
    {
        type            processor;
        value           nonuniform List<scalar> 
75
(
2.54372e-16
8.53964e-16
1.37336e-15
2.90671e-15
3.80993e-15
5.95812e-15
8.81512e-15
1.1604e-14
1.42415e-14
1.6741e-14
1.91205e-14
2.13814e-14
2.35206e-14
2.55357e-14
2.74251e-14
2.9188e-14
3.0824e-14
3.23333e-14
3.37163e-14
3.4974e-14
3.61077e-14
3.71194e-14
3.80113e-14
3.87859e-14
3.94464e-14
3.99961e-14
4.04386e-14
4.0778e-14
4.10186e-14
4.11649e-14
4.12217e-14
4.11937e-14
4.10862e-14
4.09044e-14
4.06534e-14
4.03386e-14
3.99655e-14
3.95392e-14
3.90651e-14
3.85484e-14
3.79943e-14
3.74077e-14
3.67934e-14
3.61562e-14
3.55004e-14
3.48304e-14
3.41502e-14
3.34636e-14
3.27741e-14
3.20851e-14
2.17452e-15
2.11581e-15
2.05334e-15
1.98717e-15
1.91747e-15
1.84454e-15
1.76879e-15
1.69077e-15
1.61116e-15
1.53075e-15
1.45041e-15
1.3711e-15
1.29382e-15
1.21958e-15
1.14937e-15
1.0841e-15
1.0246e-15
9.71581e-16
9.25581e-16
8.86971e-16
8.55935e-16
8.32472e-16
8.16399e-16
8.07293e-16
8.02962e-16
)
;
    }
    procBoundary2to5
    {
        type            processor;
        value           nonuniform List<scalar> 
50
(
3.18262e-15
3.17619e-15
3.16973e-15
3.16322e-15
3.15664e-15
3.14995e-15
3.14313e-15
3.13613e-15
3.12893e-15
3.12148e-15
3.11374e-15
3.10568e-15
3.09723e-15
3.08837e-15
3.07905e-15
3.06922e-15
3.05885e-15
3.04789e-15
3.03631e-15
3.02407e-15
3.01114e-15
2.9975e-15
2.98312e-15
2.96799e-15
2.95209e-15
2.93541e-15
2.91796e-15
2.89973e-15
2.88073e-15
2.86096e-15
2.84042e-15
2.81913e-15
2.79707e-15
2.77425e-15
2.75065e-15
2.72623e-15
2.70096e-15
2.67476e-15
2.64754e-15
2.61919e-15
2.58957e-15
2.55849e-15
2.52577e-15
2.49118e-15
2.45446e-15
2.41534e-15
2.37355e-15
2.32882e-15
2.28087e-15
2.2295e-15
)
;
    }
}


// ************************************************************************* //
