/*--------------------------------*- C++ -*----------------------------------*\
| =========                 |                                                 |
| \\      /  F ield         | OpenFOAM: The Open Source CFD Toolbox           |
|  \\    /   O peration     | Version:  2.4.0                                 |
|   \\  /    A nd           | Web:      www.OpenFOAM.org                      |
|    \\/     M anipulation  |                                                 |
\*---------------------------------------------------------------------------*/
FoamFile
{
    version     2.0;
    format      ascii;
    class       volScalarField;
    location    "0.008";
    object      p;
}
// * * * * * * * * * * * * * * * * * * * * * * * * * * * * * * * * * * * * * //

dimensions      [1 -1 -2 0 0 0 0];

internalField   nonuniform List<scalar> 
125
(
-0.0481661
-0.0484388
-0.0487125
-0.0489872
-0.0492629
-0.0495397
-0.0498175
-0.0500963
-0.0503761
-0.050657
-0.0509389
-0.0512218
-0.0515058
-0.0517908
-0.0520769
-0.052364
-0.0526522
-0.0529415
-0.0532318
-0.0535232
-0.0538156
-0.0541092
-0.0544038
-0.0546995
-0.0549963
-0.0552942
-0.0555932
-0.0558933
-0.0561945
-0.0564968
-0.0568003
-0.0571048
-0.0574105
-0.0577173
-0.0580252
-0.0583343
-0.0586445
-0.0589558
-0.0592683
-0.059582
-0.0598968
-0.0602127
-0.0605299
-0.0608481
-0.0611676
-0.0614883
-0.0618101
-0.0621331
-0.0624573
-0.0627827
-0.0631093
-0.0634371
-0.0637661
-0.0640963
-0.0644278
-0.0647604
-0.0650943
-0.0654295
-0.0657658
-0.0661034
-0.0664422
-0.0667823
-0.0671237
-0.0674663
-0.0678101
-0.0681552
-0.0685016
-0.0688493
-0.0691983
-0.0695485
-0.0699
-0.0702529
-0.070607
-0.0709624
-0.0713192
-0.0716772
-0.0720366
-0.0723973
-0.0727593
-0.0731227
-0.0734874
-0.0738534
-0.0742208
-0.0745896
-0.0749597
-0.0753311
-0.075704
-0.0760782
-0.0764538
-0.0768307
-0.0772091
-0.0775889
-0.07797
-0.0783526
-0.0787365
-0.0791219
-0.0795087
-0.0798969
-0.0802866
-0.0806777
-0.0810702
-0.0814642
-0.0818596
-0.0822565
-0.0826548
-0.0830546
-0.0834559
-0.0838587
-0.0842629
-0.0846686
-0.0850759
-0.0854846
-0.0858948
-0.0863065
-0.0867198
-0.0871346
-0.0875509
-0.0879687
-0.0883881
-0.088809
-0.0892315
-0.0896555
-0.0900811
-0.0905082
-0.0909368
)
;

boundaryField
{
    BotWall
    {
        type            calculated;
        value           nonuniform 0();
    }
    FreeStream
    {
        type            calculated;
        value           uniform -0.0911515;
    }
    FrontNBack
    {
        type            empty;
    }
    LeftSide
    {
        type            symmetryPlane;
    }
    RightSide
    {
        type            symmetryPlane;
    }
    procBoundary0to1
    {
        type            processor;
        value           uniform -0.0478944;
    }
    procBoundary0to2
    {
        type            processor;
        value           nonuniform List<scalar> 
75
(
-0.0630908
-0.0634189
-0.0637482
-0.0640787
-0.0644105
-0.0647434
-0.0650776
-0.065413
-0.0657497
-0.0660876
-0.0664267
-0.0667671
-0.0671087
-0.0674516
-0.0677957
-0.0681411
-0.0684878
-0.0688358
-0.069185
-0.0695356
-0.0698874
-0.0702405
-0.0705949
-0.0709506
-0.0713076
-0.0716659
-0.0720256
-0.0723866
-0.0727489
-0.0731125
-0.0734775
-0.0738438
-0.0742115
-0.0745805
-0.0749509
-0.0753226
-0.0756957
-0.0760702
-0.0764461
-0.0768233
-0.0772019
-0.077582
-0.0779634
-0.0783462
-0.0787304
-0.0791161
-0.0795032
-0.0798917
-0.0802816
-0.0806729
-0.0810657
-0.08146
-0.0818557
-0.0822528
-0.0826514
-0.0830515
-0.0834531
-0.0838561
-0.0842606
-0.0846666
-0.0850741
-0.0854831
-0.0858936
-0.0863056
-0.0867192
-0.0871342
-0.0875508
-0.0879689
-0.0883886
-0.0888098
-0.0892325
-0.0896568
-0.0900827
-0.0905102
-0.0909389
)
;
    }
    procBoundary0to3
    {
        type            processor;
        value           nonuniform List<scalar> 
50
(
-0.0481315
-0.0484046
-0.0486787
-0.0489538
-0.0492298
-0.049507
-0.0497851
-0.0500642
-0.0503444
-0.0506256
-0.0509078
-0.0511911
-0.0514754
-0.0517608
-0.0520472
-0.0523347
-0.0526232
-0.0529128
-0.0532035
-0.0534952
-0.053788
-0.0540818
-0.0543768
-0.0546728
-0.0549699
-0.0552682
-0.0555675
-0.0558679
-0.0561694
-0.056472
-0.0567758
-0.0570806
-0.0573866
-0.0576937
-0.058002
-0.0583113
-0.0586218
-0.0589335
-0.0592463
-0.0595602
-0.0598753
-0.0601916
-0.060509
-0.0608276
-0.0611474
-0.0614683
-0.0617905
-0.0621138
-0.0624383
-0.0627639
)
;
    }
}


// ************************************************************************* //
