/*--------------------------------*- C++ -*----------------------------------*\
| =========                 |                                                 |
| \\      /  F ield         | OpenFOAM: The Open Source CFD Toolbox           |
|  \\    /   O peration     | Version:  2.4.0                                 |
|   \\  /    A nd           | Web:      www.OpenFOAM.org                      |
|    \\/     M anipulation  |                                                 |
\*---------------------------------------------------------------------------*/
FoamFile
{
    version     2.0;
    format      ascii;
    class       volScalarField;
    location    "0.008";
    object      p_rgh;
}
// * * * * * * * * * * * * * * * * * * * * * * * * * * * * * * * * * * * * * //

dimensions      [1 -1 -2 0 0 0 0];

internalField   nonuniform List<scalar> 
125
(
-0.00787417
-0.0078348
-0.00779528
-0.00775563
-0.00771583
-0.00767588
-0.0076358
-0.00759556
-0.00755518
-0.00751466
-0.00747398
-0.00743316
-0.00739219
-0.00735107
-0.0073098
-0.00726838
-0.00722681
-0.00718509
-0.00714322
-0.0071012
-0.00705902
-0.00701669
-0.0069742
-0.00693156
-0.00688876
-0.00684581
-0.00680271
-0.00675944
-0.00671602
-0.00667244
-0.0066287
-0.0065848
-0.00654074
-0.00649652
-0.00645214
-0.0064076
-0.0063629
-0.00631803
-0.006273
-0.0062278
-0.00618244
-0.00613692
-0.00609123
-0.00604537
-0.00599934
-0.00595315
-0.00590679
-0.00586026
-0.00581356
-0.00576669
-0.00571965
-0.00567243
-0.00562505
-0.00557749
-0.00552976
-0.00548185
-0.00543377
-0.00538551
-0.00533708
-0.00528847
-0.00523968
-0.00519071
-0.00514157
-0.00509224
-0.00504274
-0.00499305
-0.00494319
-0.00489314
-0.0048429
-0.00479249
-0.00474189
-0.0046911
-0.00464013
-0.00458897
-0.00453763
-0.0044861
-0.00443437
-0.00438246
-0.00433036
-0.00427807
-0.00422559
-0.00417291
-0.00412005
-0.00406698
-0.00401373
-0.00396028
-0.00390663
-0.00385279
-0.00379875
-0.00374451
-0.00369007
-0.00363544
-0.0035806
-0.00352556
-0.00347032
-0.00341488
-0.00335924
-0.00330339
-0.00324733
-0.00319107
-0.0031346
-0.00307793
-0.00302105
-0.00296396
-0.00290666
-0.00284915
-0.00279143
-0.00273349
-0.00267535
-0.00261699
-0.00255841
-0.00249962
-0.00244062
-0.0023814
-0.00232196
-0.0022623
-0.00220242
-0.00214232
-0.002082
-0.00202146
-0.0019607
-0.00189971
-0.00183851
-0.00177705
-0.00171525
)
;

boundaryField
{
    BotWall
    {
        type            fixedFluxPressure;
        gradient        nonuniform 0();
        value           nonuniform 0();
    }
    FreeStream
    {
        type            totalPressure;
        rho             rho;
        psi             none;
        gamma           1;
        p0              uniform 0;
        value           uniform -0.00168429;
    }
    FrontNBack
    {
        type            empty;
    }
    LeftSide
    {
        type            symmetryPlane;
    }
    RightSide
    {
        type            symmetryPlane;
    }
    procBoundary0to1
    {
        type            processor;
        value           uniform -0.0079134;
    }
    procBoundary0to2
    {
        type            processor;
        value           nonuniform List<scalar> 
75
(
-0.00570116
-0.00565424
-0.00560715
-0.00555989
-0.00551245
-0.00546484
-0.00541706
-0.00536909
-0.00532095
-0.00527263
-0.00522414
-0.00517546
-0.00512661
-0.00507757
-0.00502835
-0.00497895
-0.00492937
-0.00487961
-0.00482966
-0.00477953
-0.00472921
-0.0046787
-0.00462801
-0.00457714
-0.00452607
-0.00447482
-0.00442337
-0.00437174
-0.00431992
-0.0042679
-0.00421569
-0.00416329
-0.0041107
-0.00405791
-0.00400493
-0.00395175
-0.00389838
-0.00384481
-0.00379104
-0.00373707
-0.00368291
-0.00362854
-0.00357398
-0.00351921
-0.00346424
-0.00340907
-0.0033537
-0.00329812
-0.00324233
-0.00318634
-0.00313015
-0.00307375
-0.00301713
-0.00296032
-0.00290329
-0.00284605
-0.0027886
-0.00273094
-0.00267307
-0.00261498
-0.00255668
-0.00249817
-0.00243944
-0.00238049
-0.00232133
-0.00226195
-0.00220235
-0.00214253
-0.00208249
-0.00202223
-0.00196175
-0.00190106
-0.00184015
-0.00177898
-0.00171733
)
;
    }
    procBoundary0to3
    {
        type            processor;
        value           nonuniform List<scalar> 
50
(
-0.00783965
-0.00780064
-0.00776148
-0.00772218
-0.00768274
-0.00764314
-0.0076034
-0.00756352
-0.00752348
-0.0074833
-0.00744297
-0.00740248
-0.00736185
-0.00732107
-0.00728014
-0.00723905
-0.00719782
-0.00715643
-0.00711489
-0.00707319
-0.00703134
-0.00698933
-0.00694717
-0.00690485
-0.00686238
-0.00681975
-0.00677696
-0.00673401
-0.00669091
-0.00664764
-0.00660422
-0.00656063
-0.00651688
-0.00647297
-0.0064289
-0.00638467
-0.00634027
-0.00629571
-0.00625098
-0.00620609
-0.00616103
-0.0061158
-0.00607041
-0.00602485
-0.00597912
-0.00593322
-0.00588715
-0.00584091
-0.0057945
-0.00574792
)
;
    }
}


// ************************************************************************* //
