/*--------------------------------*- C++ -*----------------------------------*\
| =========                 |                                                 |
| \\      /  F ield         | OpenFOAM: The Open Source CFD Toolbox           |
|  \\    /   O peration     | Version:  2.4.0                                 |
|   \\  /    A nd           | Web:      www.OpenFOAM.org                      |
|    \\/     M anipulation  |                                                 |
\*---------------------------------------------------------------------------*/
FoamFile
{
    version     2.0;
    format      ascii;
    class       surfaceScalarField;
    location    "0.008";
    object      phi;
}
// * * * * * * * * * * * * * * * * * * * * * * * * * * * * * * * * * * * * * //

dimensions      [0 3 -1 0 0 0 0];

internalField   nonuniform List<scalar> 
124
(
-3.84302e-09
-3.84304e-09
-3.84305e-09
-3.84307e-09
-3.84308e-09
-3.84309e-09
-3.84311e-09
-3.84312e-09
-3.84314e-09
-3.84315e-09
-3.84316e-09
-3.84318e-09
-3.84319e-09
-3.84321e-09
-3.84322e-09
-3.84323e-09
-3.84325e-09
-3.84326e-09
-3.84327e-09
-3.84329e-09
-3.8433e-09
-3.84331e-09
-3.84333e-09
-3.84334e-09
-3.84335e-09
-3.84337e-09
-3.84338e-09
-3.84339e-09
-3.84341e-09
-3.84342e-09
-3.84343e-09
-3.84344e-09
-3.84346e-09
-3.84347e-09
-3.84348e-09
-3.84349e-09
-3.84351e-09
-3.84352e-09
-3.84353e-09
-3.84354e-09
-3.84356e-09
-3.84357e-09
-3.84358e-09
-3.84359e-09
-3.8436e-09
-3.84362e-09
-3.84363e-09
-3.84364e-09
-3.84365e-09
-3.84366e-09
-3.84368e-09
-3.84369e-09
-3.8437e-09
-3.84371e-09
-3.84372e-09
-3.84373e-09
-3.84375e-09
-3.84376e-09
-3.84377e-09
-3.84378e-09
-3.84379e-09
-3.8438e-09
-3.84381e-09
-3.84382e-09
-3.84384e-09
-3.84385e-09
-3.84386e-09
-3.84387e-09
-3.84388e-09
-3.84389e-09
-3.8439e-09
-3.84391e-09
-3.84392e-09
-3.84393e-09
-3.84394e-09
-3.84395e-09
-3.84396e-09
-3.84397e-09
-3.84398e-09
-3.84398e-09
-3.84399e-09
-3.844e-09
-3.84401e-09
-3.84402e-09
-3.84402e-09
-3.84403e-09
-3.84404e-09
-3.84404e-09
-3.84405e-09
-3.84406e-09
-3.84406e-09
-3.84407e-09
-3.84407e-09
-3.84407e-09
-3.84408e-09
-3.84408e-09
-3.84409e-09
-3.84409e-09
-3.84409e-09
-3.84409e-09
-3.8441e-09
-3.8441e-09
-3.8441e-09
-3.8441e-09
-3.8441e-09
-3.8441e-09
-3.8441e-09
-3.8441e-09
-3.8441e-09
-3.8441e-09
-3.84409e-09
-3.84409e-09
-3.84409e-09
-3.84408e-09
-3.84407e-09
-3.84407e-09
-3.84406e-09
-3.84405e-09
-3.84404e-09
-3.84403e-09
-3.84402e-09
-3.844e-09
-3.84399e-09
-3.84398e-09
)
;

boundaryField
{
    BotWall
    {
        type            calculated;
        value           nonuniform 0();
    }
    FreeStream
    {
        type            calculated;
        value           uniform -3.84397e-09;
    }
    FrontNBack
    {
        type            empty;
        value           nonuniform 0();
    }
    LeftSide
    {
        type            symmetryPlane;
        value           uniform 0;
    }
    RightSide
    {
        type            symmetryPlane;
        value           nonuniform 0();
    }
    procBoundary0to1
    {
        type            processor;
        value           uniform 3.84301e-09;
    }
    procBoundary0to2
    {
        type            processor;
        value           nonuniform List<scalar> 
75
(
1.1797e-14
1.17485e-14
1.16992e-14
1.16488e-14
1.15971e-14
1.15438e-14
1.14885e-14
1.14309e-14
1.13707e-14
1.13073e-14
1.12404e-14
1.11696e-14
1.10942e-14
1.10138e-14
1.09279e-14
1.0836e-14
1.07374e-14
1.06316e-14
1.05181e-14
1.03962e-14
1.02656e-14
1.01255e-14
9.97562e-15
9.8154e-15
9.64446e-15
9.46244e-15
9.26905e-15
9.06407e-15
8.84737e-15
8.61891e-15
8.37874e-15
8.12703e-15
7.86406e-15
7.59022e-15
7.30603e-15
7.01212e-15
6.70927e-15
6.39835e-15
6.08034e-15
5.75633e-15
5.42747e-15
5.09496e-15
4.76e-15
4.42376e-15
4.08727e-15
3.75135e-15
3.41649e-15
3.08271e-15
2.74937e-15
2.41502e-15
2.07713e-15
1.73198e-15
1.37447e-15
9.98073e-16
5.94891e-16
1.55937e-16
-3.28995e-16
-8.69326e-16
-1.47313e-15
-2.14674e-15
-2.89291e-15
-3.70962e-15
-4.58913e-15
-5.51754e-15
-6.47504e-15
-7.43695e-15
-8.37553e-15
-9.26248e-15
-1.00716e-14
-1.07814e-14
-1.1377e-14
-1.18511e-14
-1.2204e-14
-1.24424e-14
-1.25699e-14
)
;
    }
    procBoundary0to3
    {
        type            processor;
        value           nonuniform List<scalar> 
50
(
1.45421e-14
1.44818e-14
1.44216e-14
1.43614e-14
1.43014e-14
1.42414e-14
1.41815e-14
1.41216e-14
1.40619e-14
1.40023e-14
1.39427e-14
1.38833e-14
1.38239e-14
1.37647e-14
1.37056e-14
1.36467e-14
1.3588e-14
1.35294e-14
1.3471e-14
1.34128e-14
1.33548e-14
1.32971e-14
1.32397e-14
1.31825e-14
1.31257e-14
1.30691e-14
1.3013e-14
1.29572e-14
1.29018e-14
1.28468e-14
1.27923e-14
1.27383e-14
1.26847e-14
1.26316e-14
1.25791e-14
1.25271e-14
1.24756e-14
1.24247e-14
1.23743e-14
1.23244e-14
1.22751e-14
1.22262e-14
1.21777e-14
1.21297e-14
1.2082e-14
1.20345e-14
1.19872e-14
1.19399e-14
1.18926e-14
1.1845e-14
)
;
    }
}


// ************************************************************************* //
