/*--------------------------------*- C++ -*----------------------------------*\
| =========                 |                                                 |
| \\      /  F ield         | OpenFOAM: The Open Source CFD Toolbox           |
|  \\    /   O peration     | Version:  2.4.0                                 |
|   \\  /    A nd           | Web:      www.OpenFOAM.org                      |
|    \\/     M anipulation  |                                                 |
\*---------------------------------------------------------------------------*/
FoamFile
{
    version     2.0;
    format      ascii;
    class       volVectorField;
    location    "0.008";
    object      U;
}
// * * * * * * * * * * * * * * * * * * * * * * * * * * * * * * * * * * * * * //

dimensions      [0 1 -1 0 0 0 0];

internalField   nonuniform List<vector> 
125
(
(7.4491e-06 -0.0192151 0)
(7.41694e-06 -0.0192151 0)
(7.38512e-06 -0.0192152 0)
(7.35362e-06 -0.0192153 0)
(7.32244e-06 -0.0192154 0)
(7.29157e-06 -0.0192154 0)
(7.26102e-06 -0.0192155 0)
(7.23078e-06 -0.0192156 0)
(7.20084e-06 -0.0192156 0)
(7.17122e-06 -0.0192157 0)
(7.1419e-06 -0.0192158 0)
(7.11288e-06 -0.0192159 0)
(7.08418e-06 -0.0192159 0)
(7.05578e-06 -0.019216 0)
(7.02769e-06 -0.0192161 0)
(6.99992e-06 -0.0192161 0)
(6.97246e-06 -0.0192162 0)
(6.94533e-06 -0.0192163 0)
(6.91852e-06 -0.0192163 0)
(6.89205e-06 -0.0192164 0)
(6.86591e-06 -0.0192165 0)
(6.84012e-06 -0.0192165 0)
(6.81468e-06 -0.0192166 0)
(6.78961e-06 -0.0192167 0)
(6.7649e-06 -0.0192167 0)
(6.74058e-06 -0.0192168 0)
(6.71664e-06 -0.0192169 0)
(6.6931e-06 -0.0192169 0)
(6.66996e-06 -0.019217 0)
(6.64724e-06 -0.0192171 0)
(6.62493e-06 -0.0192171 0)
(6.60306e-06 -0.0192172 0)
(6.58163e-06 -0.0192173 0)
(6.56064e-06 -0.0192173 0)
(6.54009e-06 -0.0192174 0)
(6.52e-06 -0.0192174 0)
(6.50035e-06 -0.0192175 0)
(6.48115e-06 -0.0192176 0)
(6.46239e-06 -0.0192176 0)
(6.44407e-06 -0.0192177 0)
(6.42617e-06 -0.0192178 0)
(6.40868e-06 -0.0192178 0)
(6.39157e-06 -0.0192179 0)
(6.37482e-06 -0.0192179 0)
(6.35839e-06 -0.019218 0)
(6.34226e-06 -0.0192181 0)
(6.32637e-06 -0.0192181 0)
(6.31067e-06 -0.0192182 0)
(6.29511e-06 -0.0192182 0)
(6.27961e-06 -0.0192183 0)
(6.2641e-06 -0.0192184 0)
(6.2485e-06 -0.0192184 0)
(6.2327e-06 -0.0192185 0)
(6.21662e-06 -0.0192185 0)
(6.20012e-06 -0.0192186 0)
(6.18309e-06 -0.0192186 0)
(6.16539e-06 -0.0192187 0)
(6.14688e-06 -0.0192188 0)
(6.1274e-06 -0.0192188 0)
(6.10679e-06 -0.0192189 0)
(6.08488e-06 -0.0192189 0)
(6.06148e-06 -0.019219 0)
(6.03641e-06 -0.019219 0)
(6.00947e-06 -0.0192191 0)
(5.98046e-06 -0.0192192 0)
(5.94918e-06 -0.0192192 0)
(5.91542e-06 -0.0192193 0)
(5.87899e-06 -0.0192193 0)
(5.83967e-06 -0.0192194 0)
(5.79728e-06 -0.0192194 0)
(5.75163e-06 -0.0192195 0)
(5.70255e-06 -0.0192195 0)
(5.64985e-06 -0.0192196 0)
(5.59342e-06 -0.0192196 0)
(5.5331e-06 -0.0192197 0)
(5.46881e-06 -0.0192197 0)
(5.40047e-06 -0.0192198 0)
(5.32802e-06 -0.0192198 0)
(5.25146e-06 -0.0192199 0)
(5.1708e-06 -0.0192199 0)
(5.0861e-06 -0.0192199 0)
(4.99745e-06 -0.01922 0)
(4.905e-06 -0.01922 0)
(4.80893e-06 -0.0192201 0)
(4.70945e-06 -0.0192201 0)
(4.60683e-06 -0.0192201 0)
(4.50137e-06 -0.0192202 0)
(4.39343e-06 -0.0192202 0)
(4.28338e-06 -0.0192202 0)
(4.17163e-06 -0.0192203 0)
(4.05861e-06 -0.0192203 0)
(3.94476e-06 -0.0192203 0)
(3.83053e-06 -0.0192203 0)
(3.71632e-06 -0.0192204 0)
(3.60252e-06 -0.0192204 0)
(3.48941e-06 -0.0192204 0)
(3.37718e-06 -0.0192204 0)
(3.26585e-06 -0.0192204 0)
(3.15521e-06 -0.0192205 0)
(3.04478e-06 -0.0192205 0)
(2.93375e-06 -0.0192205 0)
(2.8209e-06 -0.0192205 0)
(2.70458e-06 -0.0192205 0)
(2.58269e-06 -0.0192205 0)
(2.45269e-06 -0.0192205 0)
(2.31171e-06 -0.0192205 0)
(2.15671e-06 -0.0192205 0)
(1.98472e-06 -0.0192205 0)
(1.79311e-06 -0.0192205 0)
(1.58006e-06 -0.0192205 0)
(1.34485e-06 -0.0192205 0)
(1.08833e-06 -0.0192205 0)
(8.13133e-07 -0.0192204 0)
(5.23812e-07 -0.0192204 0)
(2.26748e-07 -0.0192204 0)
(-7.02079e-08 -0.0192203 0)
(-3.58325e-07 -0.0192203 0)
(-6.28759e-07 -0.0192203 0)
(-8.73401e-07 -0.0192202 0)
(-1.08566e-06 -0.0192202 0)
(-1.26107e-06 -0.0192201 0)
(-1.39753e-06 -0.0192201 0)
(-1.49531e-06 -0.01922 0)
(-1.55665e-06 -0.0192199 0)
(-1.58514e-06 -0.0192198 0)
)
;

boundaryField
{
    BotWall
    {
        type            fixedValue;
        value           nonuniform 0();
    }
    FreeStream
    {
        type            zeroGradient;
    }
    FrontNBack
    {
        type            empty;
    }
    LeftSide
    {
        type            symmetryPlane;
    }
    RightSide
    {
        type            symmetryPlane;
    }
    procBoundary0to1
    {
        type            processor;
        value           uniform (7.48159e-06 -0.019215 0);
    }
    procBoundary0to2
    {
        type            processor;
        value           nonuniform List<vector> 
75
(
(5.05349e-06 -0.0192319 0)
(4.98112e-06 -0.0192319 0)
(4.90866e-06 -0.0192319 0)
(4.83599e-06 -0.0192318 0)
(4.76297e-06 -0.0192318 0)
(4.68946e-06 -0.0192317 0)
(4.61532e-06 -0.0192317 0)
(4.54035e-06 -0.0192317 0)
(4.4644e-06 -0.0192316 0)
(4.38726e-06 -0.0192316 0)
(4.30874e-06 -0.0192315 0)
(4.22862e-06 -0.0192315 0)
(4.14668e-06 -0.0192315 0)
(4.06269e-06 -0.0192314 0)
(3.97641e-06 -0.0192314 0)
(3.88762e-06 -0.0192314 0)
(3.79607e-06 -0.0192313 0)
(3.70152e-06 -0.0192313 0)
(3.60374e-06 -0.0192312 0)
(3.5025e-06 -0.0192312 0)
(3.39758e-06 -0.0192312 0)
(3.28878e-06 -0.0192311 0)
(3.17592e-06 -0.0192311 0)
(3.05882e-06 -0.0192311 0)
(2.93735e-06 -0.0192311 0)
(2.8114e-06 -0.019231 0)
(2.6809e-06 -0.019231 0)
(2.5458e-06 -0.019231 0)
(2.40612e-06 -0.0192309 0)
(2.26189e-06 -0.0192309 0)
(2.11321e-06 -0.0192309 0)
(1.96023e-06 -0.0192309 0)
(1.80315e-06 -0.0192308 0)
(1.64221e-06 -0.0192308 0)
(1.47773e-06 -0.0192308 0)
(1.31006e-06 -0.0192308 0)
(1.13961e-06 -0.0192307 0)
(9.6685e-07 -0.0192307 0)
(7.92276e-07 -0.0192307 0)
(6.16429e-07 -0.0192307 0)
(4.39877e-07 -0.0192307 0)
(2.63196e-07 -0.0192307 0)
(8.69573e-08 -0.0192307 0)
(-8.83026e-08 -0.0192307 0)
(-2.62113e-07 -0.0192307 0)
(-4.34111e-07 -0.0192306 0)
(-6.04099e-07 -0.0192306 0)
(-7.721e-07 -0.0192306 0)
(-9.38445e-07 -0.0192306 0)
(-1.10384e-06 -0.0192306 0)
(-1.26947e-06 -0.0192306 0)
(-1.43705e-06 -0.0192306 0)
(-1.60892e-06 -0.0192306 0)
(-1.78801e-06 -0.0192307 0)
(-1.97785e-06 -0.0192307 0)
(-2.18241e-06 -0.0192307 0)
(-2.40588e-06 -0.0192307 0)
(-2.65234e-06 -0.0192307 0)
(-2.92533e-06 -0.0192307 0)
(-3.22729e-06 -0.0192307 0)
(-3.55904e-06 -0.0192308 0)
(-3.91924e-06 -0.0192308 0)
(-4.30408e-06 -0.0192308 0)
(-4.70704e-06 -0.0192308 0)
(-5.11916e-06 -0.0192309 0)
(-5.52948e-06 -0.0192309 0)
(-5.92592e-06 -0.019231 0)
(-6.29638e-06 -0.019231 0)
(-6.62992e-06 -0.0192311 0)
(-6.91781e-06 -0.0192311 0)
(-7.15441e-06 -0.0192312 0)
(-7.3374e-06 -0.0192313 0)
(-7.46775e-06 -0.0192313 0)
(-7.54903e-06 -0.0192314 0)
(-7.58656e-06 -0.0192314 0)
)
;
    }
    procBoundary0to3
    {
        type            processor;
        value           nonuniform List<vector> 
50
(
(9.31072e-06 -0.0192342 0)
(9.21237e-06 -0.0192341 0)
(9.1145e-06 -0.0192341 0)
(9.01713e-06 -0.019234 0)
(8.92023e-06 -0.019234 0)
(8.82382e-06 -0.0192339 0)
(8.7279e-06 -0.0192339 0)
(8.63248e-06 -0.0192338 0)
(8.53754e-06 -0.0192338 0)
(8.4431e-06 -0.0192337 0)
(8.34915e-06 -0.0192337 0)
(8.25571e-06 -0.0192336 0)
(8.16277e-06 -0.0192336 0)
(8.07034e-06 -0.0192336 0)
(7.97843e-06 -0.0192335 0)
(7.88704e-06 -0.0192335 0)
(7.79617e-06 -0.0192334 0)
(7.70583e-06 -0.0192334 0)
(7.61603e-06 -0.0192333 0)
(7.52678e-06 -0.0192333 0)
(7.43808e-06 -0.0192332 0)
(7.34993e-06 -0.0192332 0)
(7.26236e-06 -0.0192331 0)
(7.17536e-06 -0.0192331 0)
(7.08894e-06 -0.019233 0)
(7.00312e-06 -0.019233 0)
(6.9179e-06 -0.019233 0)
(6.83328e-06 -0.0192329 0)
(6.74928e-06 -0.0192329 0)
(6.6659e-06 -0.0192328 0)
(6.58316e-06 -0.0192328 0)
(6.50105e-06 -0.0192327 0)
(6.41958e-06 -0.0192327 0)
(6.33875e-06 -0.0192326 0)
(6.25858e-06 -0.0192326 0)
(6.17905e-06 -0.0192326 0)
(6.10017e-06 -0.0192325 0)
(6.02193e-06 -0.0192325 0)
(5.94433e-06 -0.0192324 0)
(5.86734e-06 -0.0192324 0)
(5.79097e-06 -0.0192323 0)
(5.71519e-06 -0.0192323 0)
(5.63997e-06 -0.0192323 0)
(5.56529e-06 -0.0192322 0)
(5.4911e-06 -0.0192322 0)
(5.41737e-06 -0.0192321 0)
(5.34405e-06 -0.0192321 0)
(5.27107e-06 -0.0192321 0)
(5.19837e-06 -0.019232 0)
(5.12587e-06 -0.019232 0)
)
;
    }
}


// ************************************************************************* //
