/*--------------------------------*- C++ -*----------------------------------*\
| =========                 |                                                 |
| \\      /  F ield         | OpenFOAM: The Open Source CFD Toolbox           |
|  \\    /   O peration     | Version:  2.4.0                                 |
|   \\  /    A nd           | Web:      www.OpenFOAM.org                      |
|    \\/     M anipulation  |                                                 |
\*---------------------------------------------------------------------------*/
FoamFile
{
    version     2.0;
    format      ascii;
    class       volScalarField;
    location    "0.005";
    object      p;
}
// * * * * * * * * * * * * * * * * * * * * * * * * * * * * * * * * * * * * * //

dimensions      [1 -1 -2 0 0 0 0];

internalField   nonuniform List<scalar> 
125
(
-0.0287618
-0.0289193
-0.0290775
-0.0292361
-0.0293954
-0.0295553
-0.0297157
-0.0298767
-0.0300384
-0.0302006
-0.0303634
-0.0305268
-0.0306908
-0.0308555
-0.0310207
-0.0311866
-0.031353
-0.0315201
-0.0316878
-0.0318561
-0.032025
-0.0321946
-0.0323647
-0.0325355
-0.032707
-0.032879
-0.0330517
-0.0332251
-0.033399
-0.0335736
-0.0337489
-0.0339248
-0.0341014
-0.0342786
-0.0344564
-0.0346349
-0.0348141
-0.034994
-0.0351744
-0.0353556
-0.0355374
-0.0357199
-0.0359031
-0.036087
-0.0362715
-0.0364567
-0.0366426
-0.0368292
-0.0370164
-0.0372044
-0.037393
-0.0375823
-0.0377724
-0.0379631
-0.0381546
-0.0383467
-0.0385396
-0.0387331
-0.0389274
-0.0391224
-0.0393181
-0.0395146
-0.0397117
-0.0399096
-0.0401082
-0.0403076
-0.0405076
-0.0407085
-0.04091
-0.0411123
-0.0413154
-0.0415192
-0.0417237
-0.041929
-0.0421351
-0.0423419
-0.0425495
-0.0427578
-0.0429669
-0.0431768
-0.0433875
-0.0435989
-0.0438111
-0.0440241
-0.0442379
-0.0444525
-0.0446678
-0.044884
-0.0451009
-0.0453187
-0.0455372
-0.0457566
-0.0459767
-0.0461977
-0.0464195
-0.0466421
-0.0468655
-0.0470898
-0.0473148
-0.0475407
-0.0477675
-0.047995
-0.0482235
-0.0484527
-0.0486828
-0.0489138
-0.0491455
-0.0493782
-0.0496117
-0.0498461
-0.0500813
-0.0503174
-0.0505544
-0.0507922
-0.0510309
-0.0512705
-0.051511
-0.0517524
-0.0519946
-0.0522378
-0.0524818
-0.0527267
-0.0529726
-0.0532193
-0.053467
)
;

boundaryField
{
    BotWall
    {
        type            calculated;
        value           nonuniform 0();
    }
    FreeStream
    {
        type            calculated;
        value           nonuniform 0();
    }
    FrontNBack
    {
        type            empty;
    }
    LeftSide
    {
        type            symmetryPlane;
    }
    RightSide
    {
        type            symmetryPlane;
    }
    procBoundary1to0
    {
        type            processor;
        value           uniform -0.0537155;
    }
    procBoundary1to2
    {
        type            processor;
        value           uniform -0.0286048;
    }
    procBoundary1to3
    {
        type            processor;
        value           nonuniform List<scalar> 
75
(
-0.0373874
-0.0375768
-0.0377668
-0.0379576
-0.0381491
-0.0383413
-0.0385342
-0.0387279
-0.0389222
-0.0391172
-0.039313
-0.0395095
-0.0397067
-0.0399046
-0.0401033
-0.0403027
-0.0405028
-0.0407037
-0.0409053
-0.0411077
-0.0413108
-0.0415146
-0.0417192
-0.0419246
-0.0421307
-0.0423376
-0.0425452
-0.0427536
-0.0429627
-0.0431727
-0.0433834
-0.0435948
-0.0438071
-0.0440201
-0.044234
-0.0444486
-0.044664
-0.0448802
-0.0450972
-0.045315
-0.0455336
-0.045753
-0.0459732
-0.0461942
-0.046416
-0.0466387
-0.0468621
-0.0470864
-0.0473115
-0.0475375
-0.0477643
-0.0479919
-0.0482203
-0.0484496
-0.0486798
-0.0489108
-0.0491426
-0.0493753
-0.0496088
-0.0498432
-0.0500785
-0.0503146
-0.0505516
-0.0507895
-0.0510283
-0.0512679
-0.0515084
-0.0517498
-0.0519921
-0.0522353
-0.0524794
-0.0527244
-0.0529703
-0.053217
-0.0534647
)
;
    }
    procBoundary1to4
    {
        type            processor;
        value           nonuniform List<scalar> 
50
(
-0.0287505
-0.0289081
-0.0290663
-0.0292252
-0.0293846
-0.0295445
-0.0297051
-0.0298663
-0.030028
-0.0301904
-0.0303533
-0.0305169
-0.030681
-0.0308458
-0.0310111
-0.0311771
-0.0313437
-0.0315109
-0.0316787
-0.0318471
-0.0320162
-0.0321858
-0.0323561
-0.032527
-0.0326986
-0.0328708
-0.0330436
-0.033217
-0.0333911
-0.0335659
-0.0337412
-0.0339172
-0.0340939
-0.0342712
-0.0344492
-0.0346278
-0.0348071
-0.034987
-0.0351676
-0.0353489
-0.0355309
-0.0357135
-0.0358967
-0.0360807
-0.0362653
-0.0364506
-0.0366366
-0.0368233
-0.0370106
-0.0371986
)
;
    }
}


// ************************************************************************* //
