/*--------------------------------*- C++ -*----------------------------------*\
| =========                 |                                                 |
| \\      /  F ield         | OpenFOAM: The Open Source CFD Toolbox           |
|  \\    /   O peration     | Version:  2.4.0                                 |
|   \\  /    A nd           | Web:      www.OpenFOAM.org                      |
|    \\/     M anipulation  |                                                 |
\*---------------------------------------------------------------------------*/
FoamFile
{
    version     2.0;
    format      ascii;
    class       volVectorField;
    location    "0.005";
    object      U;
}
// * * * * * * * * * * * * * * * * * * * * * * * * * * * * * * * * * * * * * //

dimensions      [0 1 -1 0 0 0 0];

internalField   nonuniform List<vector> 
125
(
(4.2739e-05 -0.0279259 0)
(4.16316e-05 -0.0279262 0)
(4.05664e-05 -0.0279265 0)
(3.95443e-05 -0.0279267 0)
(3.85657e-05 -0.027927 0)
(3.76305e-05 -0.0279273 0)
(3.67387e-05 -0.0279276 0)
(3.58896e-05 -0.0279278 0)
(3.50824e-05 -0.0279281 0)
(3.4316e-05 -0.0279283 0)
(3.35894e-05 -0.0279286 0)
(3.29011e-05 -0.0279288 0)
(3.22496e-05 -0.0279291 0)
(3.16333e-05 -0.0279293 0)
(3.10507e-05 -0.0279296 0)
(3.04999e-05 -0.0279298 0)
(2.99793e-05 -0.02793 0)
(2.94871e-05 -0.0279302 0)
(2.90215e-05 -0.0279305 0)
(2.85809e-05 -0.0279307 0)
(2.81636e-05 -0.0279309 0)
(2.77679e-05 -0.0279311 0)
(2.73923e-05 -0.0279313 0)
(2.70352e-05 -0.0279316 0)
(2.66953e-05 -0.0279318 0)
(2.63711e-05 -0.027932 0)
(2.60613e-05 -0.0279322 0)
(2.57648e-05 -0.0279324 0)
(2.54803e-05 -0.0279326 0)
(2.52069e-05 -0.0279328 0)
(2.49436e-05 -0.027933 0)
(2.46894e-05 -0.0279332 0)
(2.44435e-05 -0.0279334 0)
(2.42052e-05 -0.0279336 0)
(2.39738e-05 -0.0279338 0)
(2.37487e-05 -0.027934 0)
(2.35292e-05 -0.0279342 0)
(2.33149e-05 -0.0279344 0)
(2.31054e-05 -0.0279346 0)
(2.29001e-05 -0.0279348 0)
(2.26989e-05 -0.027935 0)
(2.25013e-05 -0.0279352 0)
(2.2307e-05 -0.0279354 0)
(2.21159e-05 -0.0279356 0)
(2.19277e-05 -0.0279357 0)
(2.17422e-05 -0.0279359 0)
(2.15593e-05 -0.0279361 0)
(2.13787e-05 -0.0279363 0)
(2.12005e-05 -0.0279365 0)
(2.10245e-05 -0.0279367 0)
(2.08506e-05 -0.0279369 0)
(2.06788e-05 -0.027937 0)
(2.05089e-05 -0.0279372 0)
(2.0341e-05 -0.0279374 0)
(2.0175e-05 -0.0279376 0)
(2.00108e-05 -0.0279378 0)
(1.98484e-05 -0.0279379 0)
(1.96879e-05 -0.0279381 0)
(1.95292e-05 -0.0279383 0)
(1.93722e-05 -0.0279385 0)
(1.9217e-05 -0.0279386 0)
(1.90636e-05 -0.0279388 0)
(1.89119e-05 -0.027939 0)
(1.8762e-05 -0.0279392 0)
(1.86138e-05 -0.0279393 0)
(1.84673e-05 -0.0279395 0)
(1.83226e-05 -0.0279397 0)
(1.81796e-05 -0.0279398 0)
(1.80384e-05 -0.02794 0)
(1.78988e-05 -0.0279402 0)
(1.7761e-05 -0.0279403 0)
(1.76249e-05 -0.0279405 0)
(1.74906e-05 -0.0279407 0)
(1.73579e-05 -0.0279408 0)
(1.72269e-05 -0.027941 0)
(1.70976e-05 -0.0279412 0)
(1.697e-05 -0.0279413 0)
(1.6844e-05 -0.0279415 0)
(1.67197e-05 -0.0279416 0)
(1.65971e-05 -0.0279418 0)
(1.64761e-05 -0.027942 0)
(1.63567e-05 -0.0279421 0)
(1.62389e-05 -0.0279423 0)
(1.61228e-05 -0.0279424 0)
(1.60082e-05 -0.0279426 0)
(1.58951e-05 -0.0279428 0)
(1.57836e-05 -0.0279429 0)
(1.56736e-05 -0.0279431 0)
(1.55651e-05 -0.0279432 0)
(1.54581e-05 -0.0279434 0)
(1.53526e-05 -0.0279435 0)
(1.52485e-05 -0.0279437 0)
(1.51458e-05 -0.0279438 0)
(1.50445e-05 -0.027944 0)
(1.49446e-05 -0.0279441 0)
(1.4846e-05 -0.0279443 0)
(1.47487e-05 -0.0279444 0)
(1.46528e-05 -0.0279446 0)
(1.4558e-05 -0.0279447 0)
(1.44646e-05 -0.0279449 0)
(1.43723e-05 -0.027945 0)
(1.42812e-05 -0.0279452 0)
(1.41912e-05 -0.0279453 0)
(1.41024e-05 -0.0279454 0)
(1.40146e-05 -0.0279456 0)
(1.39279e-05 -0.0279457 0)
(1.38422e-05 -0.0279459 0)
(1.37575e-05 -0.027946 0)
(1.36738e-05 -0.0279462 0)
(1.3591e-05 -0.0279463 0)
(1.35091e-05 -0.0279464 0)
(1.34281e-05 -0.0279466 0)
(1.33479e-05 -0.0279467 0)
(1.32685e-05 -0.0279469 0)
(1.31898e-05 -0.027947 0)
(1.31119e-05 -0.0279471 0)
(1.30347e-05 -0.0279473 0)
(1.29582e-05 -0.0279474 0)
(1.28823e-05 -0.0279475 0)
(1.2807e-05 -0.0279477 0)
(1.27323e-05 -0.0279478 0)
(1.26581e-05 -0.0279479 0)
(1.25845e-05 -0.0279481 0)
(1.25113e-05 -0.0279482 0)
(1.24386e-05 -0.0279483 0)
)
;

boundaryField
{
    BotWall
    {
        type            fixedValue;
        value           nonuniform 0();
    }
    FreeStream
    {
        type            zeroGradient;
    }
    FrontNBack
    {
        type            empty;
    }
    LeftSide
    {
        type            symmetryPlane;
    }
    RightSide
    {
        type            symmetryPlane;
    }
    procBoundary1to0
    {
        type            processor;
        value           uniform (1.23663e-05 -0.0279485 0);
    }
    procBoundary1to2
    {
        type            processor;
        value           uniform (4.38874e-05 -0.0279256 0);
    }
    procBoundary1to3
    {
        type            processor;
        value           nonuniform List<vector> 
75
(
(3.44197e-05 -0.0279944 0)
(3.41232e-05 -0.0279942 0)
(3.38294e-05 -0.027994 0)
(3.35382e-05 -0.0279939 0)
(3.32497e-05 -0.0279937 0)
(3.29638e-05 -0.0279935 0)
(3.26803e-05 -0.0279934 0)
(3.23994e-05 -0.0279932 0)
(3.21209e-05 -0.0279931 0)
(3.18448e-05 -0.0279929 0)
(3.15712e-05 -0.0279927 0)
(3.12999e-05 -0.0279926 0)
(3.1031e-05 -0.0279924 0)
(3.07644e-05 -0.0279923 0)
(3.05001e-05 -0.0279921 0)
(3.02381e-05 -0.027992 0)
(2.99783e-05 -0.0279918 0)
(2.97208e-05 -0.0279917 0)
(2.94656e-05 -0.0279915 0)
(2.92126e-05 -0.0279914 0)
(2.89617e-05 -0.0279912 0)
(2.8713e-05 -0.0279911 0)
(2.84664e-05 -0.027991 0)
(2.8222e-05 -0.0279908 0)
(2.79797e-05 -0.0279907 0)
(2.77394e-05 -0.0279905 0)
(2.75012e-05 -0.0279904 0)
(2.72649e-05 -0.0279902 0)
(2.70307e-05 -0.0279901 0)
(2.67985e-05 -0.02799 0)
(2.65681e-05 -0.0279898 0)
(2.63397e-05 -0.0279897 0)
(2.61132e-05 -0.0279896 0)
(2.58885e-05 -0.0279894 0)
(2.56656e-05 -0.0279893 0)
(2.54445e-05 -0.0279892 0)
(2.52251e-05 -0.027989 0)
(2.50075e-05 -0.0279889 0)
(2.47915e-05 -0.0279888 0)
(2.45772e-05 -0.0279887 0)
(2.43646e-05 -0.0279885 0)
(2.41535e-05 -0.0279884 0)
(2.3944e-05 -0.0279883 0)
(2.3736e-05 -0.0279882 0)
(2.35295e-05 -0.027988 0)
(2.33245e-05 -0.0279879 0)
(2.31209e-05 -0.0279878 0)
(2.29187e-05 -0.0279877 0)
(2.27178e-05 -0.0279875 0)
(2.25183e-05 -0.0279874 0)
(2.23201e-05 -0.0279873 0)
(2.21232e-05 -0.0279872 0)
(2.19275e-05 -0.0279871 0)
(2.17331e-05 -0.027987 0)
(2.15398e-05 -0.0279868 0)
(2.13477e-05 -0.0279867 0)
(2.11567e-05 -0.0279866 0)
(2.09669e-05 -0.0279865 0)
(2.07781e-05 -0.0279864 0)
(2.05904e-05 -0.0279863 0)
(2.04037e-05 -0.0279862 0)
(2.0218e-05 -0.0279861 0)
(2.00333e-05 -0.027986 0)
(1.98495e-05 -0.0279858 0)
(1.96667e-05 -0.0279857 0)
(1.94848e-05 -0.0279856 0)
(1.93038e-05 -0.0279855 0)
(1.91236e-05 -0.0279854 0)
(1.89443e-05 -0.0279853 0)
(1.87658e-05 -0.0279852 0)
(1.85881e-05 -0.0279851 0)
(1.84112e-05 -0.027985 0)
(1.82351e-05 -0.0279849 0)
(1.80597e-05 -0.0279848 0)
(1.78851e-05 -0.0279847 0)
)
;
    }
    procBoundary1to4
    {
        type            processor;
        value           nonuniform List<vector> 
50
(
(6.49186e-05 -0.0280045 0)
(6.35442e-05 -0.0280043 0)
(6.22166e-05 -0.028004 0)
(6.0937e-05 -0.0280037 0)
(5.97062e-05 -0.0280035 0)
(5.85244e-05 -0.0280032 0)
(5.73915e-05 -0.028003 0)
(5.6307e-05 -0.0280027 0)
(5.52702e-05 -0.0280025 0)
(5.42799e-05 -0.0280022 0)
(5.33349e-05 -0.028002 0)
(5.24337e-05 -0.0280018 0)
(5.15746e-05 -0.0280016 0)
(5.07559e-05 -0.0280013 0)
(4.99758e-05 -0.0280011 0)
(4.92322e-05 -0.0280009 0)
(4.85233e-05 -0.0280007 0)
(4.78471e-05 -0.0280005 0)
(4.72015e-05 -0.0280003 0)
(4.65848e-05 -0.0280001 0)
(4.59948e-05 -0.0279998 0)
(4.54299e-05 -0.0279996 0)
(4.48882e-05 -0.0279994 0)
(4.43679e-05 -0.0279992 0)
(4.38676e-05 -0.027999 0)
(4.33855e-05 -0.0279988 0)
(4.29202e-05 -0.0279987 0)
(4.24704e-05 -0.0279985 0)
(4.20347e-05 -0.0279983 0)
(4.16121e-05 -0.0279981 0)
(4.12013e-05 -0.0279979 0)
(4.08013e-05 -0.0279977 0)
(4.04112e-05 -0.0279975 0)
(4.00302e-05 -0.0279973 0)
(3.96575e-05 -0.0279971 0)
(3.92924e-05 -0.027997 0)
(3.89342e-05 -0.0279968 0)
(3.85823e-05 -0.0279966 0)
(3.82364e-05 -0.0279964 0)
(3.78959e-05 -0.0279962 0)
(3.75603e-05 -0.0279961 0)
(3.72294e-05 -0.0279959 0)
(3.69029e-05 -0.0279957 0)
(3.65804e-05 -0.0279955 0)
(3.62617e-05 -0.0279954 0)
(3.59466e-05 -0.0279952 0)
(3.5635e-05 -0.027995 0)
(3.53266e-05 -0.0279949 0)
(3.50213e-05 -0.0279947 0)
(3.47191e-05 -0.0279945 0)
)
;
    }
}


// ************************************************************************* //
