/*--------------------------------*- C++ -*----------------------------------*\
| =========                 |                                                 |
| \\      /  F ield         | OpenFOAM: The Open Source CFD Toolbox           |
|  \\    /   O peration     | Version:  2.4.0                                 |
|   \\  /    A nd           | Web:      www.OpenFOAM.org                      |
|    \\/     M anipulation  |                                                 |
\*---------------------------------------------------------------------------*/
FoamFile
{
    version     2.0;
    format      ascii;
    class       volScalarField;
    location    "3";
    object      H;
}
// * * * * * * * * * * * * * * * * * * * * * * * * * * * * * * * * * * * * * //

dimensions      [0 2 -2 0 0 0 0];

internalField   nonuniform List<scalar> 
500
(
-11953.9
-11953.9
-11953.9
-11953.9
-11953.9
-11398.5
-11398.5
-11398.5
-11398.5
-11398.5
-10837
-10836.9
-10836.9
-10836.9
-10837
-10269
-10269
-10269
-10269
-10269
-9694.59
-9694.55
-9694.52
-9694.55
-9694.59
-9113.58
-9113.53
-9113.49
-9113.53
-9113.58
-8525.86
-8525.8
-8525.76
-8525.8
-8525.86
-7931.3
-7931.24
-7931.18
-7931.24
-7931.3
-7329.79
-7329.71
-7329.66
-7329.72
-7329.79
-6721.19
-6721.11
-6721.04
-6721.11
-6721.19
-6105.37
-6105.28
-6105.2
-6105.28
-6105.38
-5482.2
-5482.09
-5482.01
-5482.09
-5482.2
-4851.53
-4851.41
-4851.32
-4851.41
-4851.53
-4213.22
-4213.09
-4212.99
-4213.09
-4213.23
-3567.13
-3566.99
-3566.88
-3566.99
-3567.14
-2913.11
-2912.95
-2912.83
-2912.95
-2913.11
-2251.01
-2250.83
-2250.7
-2250.83
-2251.01
-1580.66
-1580.47
-1580.33
-1580.47
-1580.66
-901.926
-901.716
-901.563
-901.717
-901.927
-24.3743
-24.3508
-24.3342
-24.3509
-24.3744
-18.2903
-18.2727
-18.2602
-18.2728
-18.2904
-18.4401
-18.4228
-18.4105
-18.4228
-18.4402
-18.5849
-18.5677
-18.5556
-18.5678
-18.5849
-18.7242
-18.7073
-18.6954
-18.7074
-18.7243
-18.858
-18.8413
-18.8295
-18.8414
-18.8581
-18.9859
-18.9695
-18.9579
-18.9695
-18.986
-19.1077
-19.0915
-19.0801
-19.0916
-19.1078
-19.2232
-19.2072
-19.1959
-19.2072
-19.2233
-19.332
-19.3162
-19.3052
-19.3163
-19.3321
-19.434
-19.4184
-19.4075
-19.4185
-19.434
-19.5287
-19.5134
-19.5027
-19.5135
-19.5288
-19.6161
-19.601
-19.5905
-19.6011
-19.6162
-19.6958
-19.681
-19.6706
-19.681
-19.6959
-19.7676
-19.7529
-19.7427
-19.753
-19.7676
-19.8311
-19.8167
-19.8067
-19.8167
-19.8312
-19.8861
-19.872
-19.8621
-19.872
-19.8862
-19.9324
-19.9185
-19.9088
-19.9185
-19.9325
-19.9697
-19.956
-19.9465
-19.956
-19.9698
-19.9977
-19.9842
-19.9749
-19.9843
-19.9978
-20.0161
-20.0029
-19.9937
-20.0029
-20.0162
-20.0248
-20.0118
-20.0028
-20.0118
-20.0248
-20.0234
-20.0106
-20.0018
-20.0106
-20.0234
-20.0116
-19.9991
-19.9905
-19.9991
-20.0117
-19.9893
-19.9771
-19.9686
-19.9771
-19.9894
-19.9563
-19.9442
-19.9359
-19.9442
-19.9563
-19.9121
-19.9003
-19.8922
-19.9003
-19.9122
-19.8567
-19.8452
-19.8372
-19.8452
-19.8568
-19.7898
-19.7785
-19.7707
-19.7785
-19.7899
-19.7113
-19.7001
-19.6925
-19.7002
-19.7113
-19.6208
-19.6099
-19.6024
-19.6099
-19.6208
-19.5181
-19.5075
-19.5002
-19.5075
-19.5182
-19.4032
-19.3929
-19.3857
-19.3929
-19.4033
-19.2759
-19.2657
-19.2588
-19.2657
-19.2759
-19.1359
-19.126
-19.1192
-19.126
-19.1359
-18.9831
-18.9734
-18.9668
-18.9735
-18.9832
-18.8174
-18.808
-18.8015
-18.808
-18.8175
-18.6387
-18.6295
-18.6232
-18.6295
-18.6388
-18.4469
-18.4379
-18.4318
-18.4379
-18.4469
-18.2418
-18.233
-18.2271
-18.2331
-18.2418
-18.0234
-18.0149
-18.0091
-18.0149
-18.0234
-17.7916
-17.7834
-17.7777
-17.7834
-17.7916
-17.5464
-17.5384
-17.533
-17.5384
-17.5465
-17.2879
-17.2801
-17.2748
-17.2801
-17.2879
-17.0159
-17.0083
-17.0032
-17.0083
-17.0159
-16.7305
-16.7232
-16.7182
-16.7232
-16.7305
-16.4317
-16.4246
-16.4198
-16.4246
-16.4317
-16.1197
-16.1128
-16.1082
-16.1128
-16.1197
-15.7944
-15.7878
-15.7833
-15.7878
-15.7945
-15.4561
-15.4497
-15.4454
-15.4497
-15.4561
-15.1048
-15.0987
-15.0945
-15.0987
-15.1049
-14.7408
-14.7348
-14.7308
-14.7348
-14.7408
-14.3641
-14.3584
-14.3545
-14.3584
-14.3641
-13.975
-13.9695
-13.9658
-13.9695
-13.975
-13.5737
-13.5685
-13.5649
-13.5685
-13.5737
-13.1606
-13.1556
-13.1522
-13.1556
-13.1606
-12.7358
-12.731
-12.7278
-12.731
-12.7358
-12.2997
-12.2951
-12.292
-12.2951
-12.2997
-11.8527
-11.8483
-11.8454
-11.8483
-11.8527
-11.395
-11.3909
-11.3881
-11.3909
-11.395
-10.9272
-10.9233
-10.9206
-10.9233
-10.9272
-10.4496
-10.4459
-10.4434
-10.4459
-10.4496
-9.96262
-9.95912
-9.95676
-9.95912
-9.96263
-9.46683
-9.46354
-9.46132
-9.46354
-9.46684
-8.96268
-8.95961
-8.95752
-8.9596
-8.9627
-8.45073
-8.44785
-8.44591
-8.44785
-8.45074
-7.93152
-7.92884
-7.92704
-7.92884
-7.93153
-7.40563
-7.40316
-7.40149
-7.40316
-7.40564
-6.87369
-6.87141
-6.86987
-6.87141
-6.8737
-6.33632
-6.33424
-6.33283
-6.33424
-6.33633
-5.7942
-5.79231
-5.79103
-5.79231
-5.79421
-5.248
-5.2463
-5.24515
-5.2463
-5.24801
-4.69846
-4.69695
-4.69592
-4.69695
-4.69847
-4.1463
-4.14497
-4.14408
-4.14497
-4.14631
-3.5923
-3.59116
-3.59038
-3.59115
-3.5923
-3.03724
-3.03628
-3.03563
-3.03628
-3.03725
-2.48195
-2.48116
-2.48063
-2.48116
-2.48195
-1.92725
-1.92665
-1.92624
-1.92665
-1.92725
-1.37402
-1.37359
-1.3733
-1.37359
-1.37402
-0.823145
-0.822887
-0.822712
-0.822886
-0.823146
-0.27553
-0.275444
-0.275385
-0.275444
-0.27553
)
;

boundaryField
{
    BotWall
    {
        type            zeroGradient;
    }
    FreeStream
    {
        type            zeroGradient;
    }
    FrontNBack
    {
        type            empty;
    }
    LeftSide
    {
        type            symmetryPlane;
    }
    RightSide
    {
        type            symmetryPlane;
    }
}


// ************************************************************************* //
