/*--------------------------------*- C++ -*----------------------------------*\
| =========                 |                                                 |
| \\      /  F ield         | OpenFOAM: The Open Source CFD Toolbox           |
|  \\    /   O peration     | Version:  2.4.0                                 |
|   \\  /    A nd           | Web:      www.OpenFOAM.org                      |
|    \\/     M anipulation  |                                                 |
\*---------------------------------------------------------------------------*/
FoamFile
{
    version     2.0;
    format      ascii;
    class       volScalarField;
    location    "3";
    object      p;
}
// * * * * * * * * * * * * * * * * * * * * * * * * * * * * * * * * * * * * * //

dimensions      [1 -1 -2 0 0 0 0];

internalField   nonuniform List<scalar> 
500
(
0.614737
0.614953
0.615154
0.614967
0.614737
0.584952
0.585171
0.585374
0.585185
0.584952
0.554802
0.555022
0.555224
0.555035
0.554802
0.524341
0.524562
0.524765
0.524575
0.52434
0.49351
0.493733
0.493937
0.493746
0.49351
0.462363
0.462587
0.462793
0.462601
0.462362
0.43083
0.431056
0.431263
0.431069
0.43083
0.398974
0.399202
0.39941
0.399216
0.398974
0.366793
0.367023
0.367232
0.367036
0.366793
0.334486
0.334718
0.334929
0.334731
0.334486
0.301825
0.302059
0.302272
0.302072
0.301825
0.267252
0.267486
0.2677
0.267499
0.267251
0.227229
0.227458
0.227671
0.227471
0.227229
0.185818
0.186045
0.186254
0.186058
0.185818
0.184357
0.184624
0.184843
0.184637
0.184357
0.309521
0.309931
0.310232
0.309944
0.30952
0.458846
0.459412
0.459861
0.459422
0.458845
-0.428714
-0.428719
-0.428501
-0.428708
-0.428714
-4.46757
-4.47041
-4.47227
-4.4704
-4.46756
-9.30886
-9.31609
-9.32151
-9.31606
-9.30882
-0.0162751
-0.0162735
-0.0162731
-0.0162735
-0.0162751
-0.0103216
-0.010321
-0.010321
-0.010321
-0.0103216
-0.0119438
-0.0119427
-0.0119426
-0.0119427
-0.0119438
-0.0131006
-0.0130996
-0.0130995
-0.0130996
-0.0131006
-0.0138126
-0.0138117
-0.0138115
-0.0138117
-0.0138126
-0.014421
-0.0144201
-0.0144199
-0.0144201
-0.014421
-0.0150524
-0.0150515
-0.0150513
-0.0150515
-0.0150524
-0.0157085
-0.0157076
-0.0157074
-0.0157076
-0.0157085
-0.0163761
-0.0163752
-0.016375
-0.0163752
-0.0163761
-0.0170504
-0.0170496
-0.0170494
-0.0170496
-0.0170504
-0.0177316
-0.0177308
-0.0177307
-0.0177308
-0.0177316
-0.0184203
-0.0184194
-0.0184193
-0.0184194
-0.0184203
-0.0191166
-0.0191158
-0.0191157
-0.0191158
-0.0191166
-0.0198208
-0.01982
-0.0198198
-0.01982
-0.0198208
-0.0205328
-0.020532
-0.0205319
-0.020532
-0.0205328
-0.0212527
-0.021252
-0.0212518
-0.021252
-0.0212527
-0.0219807
-0.02198
-0.0219799
-0.02198
-0.0219807
-0.0227168
-0.0227161
-0.022716
-0.0227161
-0.0227168
-0.0234612
-0.0234605
-0.0234603
-0.0234605
-0.0234612
-0.0242138
-0.0242131
-0.024213
-0.0242131
-0.0242138
-0.0249748
-0.0249742
-0.024974
-0.0249742
-0.0249748
-0.0257443
-0.0257437
-0.0257436
-0.0257437
-0.0257443
-0.0265224
-0.0265218
-0.0265217
-0.0265218
-0.0265224
-0.0273092
-0.0273086
-0.0273085
-0.0273086
-0.0273092
-0.0281048
-0.0281042
-0.0281041
-0.0281042
-0.0281048
-0.0289093
-0.0289087
-0.0289086
-0.0289087
-0.0289093
-0.0297227
-0.0297221
-0.029722
-0.0297221
-0.0297227
-0.0305452
-0.0305447
-0.0305445
-0.0305447
-0.0305452
-0.0313769
-0.0313764
-0.0313762
-0.0313764
-0.0313769
-0.0322179
-0.0322173
-0.0322172
-0.0322173
-0.0322179
-0.0330682
-0.0330677
-0.0330676
-0.0330677
-0.0330682
-0.033928
-0.0339276
-0.0339274
-0.0339276
-0.033928
-0.0347975
-0.034797
-0.0347969
-0.034797
-0.0347975
-0.0356766
-0.0356762
-0.035676
-0.0356762
-0.0356766
-0.0365656
-0.0365651
-0.036565
-0.0365651
-0.0365656
-0.0374644
-0.037464
-0.0374639
-0.037464
-0.0374644
-0.0383733
-0.0383729
-0.0383728
-0.0383729
-0.0383733
-0.0392924
-0.039292
-0.0392919
-0.039292
-0.0392924
-0.0402217
-0.0402213
-0.0402212
-0.0402213
-0.0402217
-0.0411613
-0.041161
-0.0411609
-0.041161
-0.0411613
-0.0421115
-0.0421111
-0.042111
-0.0421111
-0.0421115
-0.0430722
-0.0430719
-0.0430718
-0.0430719
-0.0430722
-0.0440437
-0.0440434
-0.0440433
-0.0440434
-0.0440437
-0.045026
-0.0450257
-0.0450256
-0.0450257
-0.045026
-0.0460193
-0.046019
-0.0460189
-0.046019
-0.0460193
-0.0470237
-0.0470234
-0.0470233
-0.0470234
-0.0470237
-0.0480392
-0.0480389
-0.0480389
-0.0480389
-0.0480392
-0.0490661
-0.0490659
-0.0490658
-0.0490659
-0.0490661
-0.0501045
-0.0501042
-0.0501041
-0.0501042
-0.0501045
-0.0511544
-0.0511542
-0.0511541
-0.0511542
-0.0511544
-0.0522161
-0.0522159
-0.0522158
-0.0522159
-0.0522161
-0.0532896
-0.0532894
-0.0532893
-0.0532894
-0.0532896
-0.0543751
-0.0543749
-0.0543748
-0.0543749
-0.0543751
-0.0554727
-0.0554725
-0.0554724
-0.0554725
-0.0554727
-0.0565826
-0.0565824
-0.0565823
-0.0565824
-0.0565826
-0.0577048
-0.0577046
-0.0577045
-0.0577046
-0.0577048
-0.0588396
-0.0588394
-0.0588393
-0.0588394
-0.0588396
-0.059987
-0.0599868
-0.0599868
-0.0599868
-0.059987
-0.0611472
-0.0611471
-0.061147
-0.0611471
-0.0611472
-0.0623204
-0.0623202
-0.0623202
-0.0623202
-0.0623204
-0.0635067
-0.0635065
-0.0635065
-0.0635065
-0.0635067
-0.0647062
-0.064706
-0.064706
-0.064706
-0.0647062
-0.0659191
-0.0659189
-0.0659189
-0.0659189
-0.0659191
-0.0671455
-0.0671454
-0.0671453
-0.0671454
-0.0671455
-0.0683856
-0.0683855
-0.0683854
-0.0683855
-0.0683856
-0.0696395
-0.0696394
-0.0696394
-0.0696394
-0.0696395
-0.0709075
-0.0709074
-0.0709073
-0.0709074
-0.0709075
-0.0721896
-0.0721895
-0.0721894
-0.0721895
-0.0721896
-0.073486
-0.0734859
-0.0734859
-0.0734859
-0.073486
-0.0747968
-0.0747968
-0.0747967
-0.0747968
-0.0747968
-0.0761223
-0.0761223
-0.0761222
-0.0761223
-0.0761223
-0.0774626
-0.0774625
-0.0774625
-0.0774625
-0.0774626
-0.0788178
-0.0788178
-0.0788178
-0.0788178
-0.0788178
-0.0801882
-0.0801882
-0.0801881
-0.0801882
-0.0801882
-0.0815739
-0.0815738
-0.0815738
-0.0815738
-0.0815739
-0.082975
-0.0829749
-0.0829749
-0.0829749
-0.082975
-0.0843917
-0.0843917
-0.0843917
-0.0843917
-0.0843917
-0.0858243
-0.0858243
-0.0858243
-0.0858243
-0.0858243
-0.0872728
-0.0872728
-0.0872728
-0.0872728
-0.0872728
-0.0887375
-0.0887375
-0.0887375
-0.0887375
-0.0887375
)
;

boundaryField
{
    BotWall
    {
        type            calculated;
        value           nonuniform List<scalar> 5(0.629557 0.629773 0.629974 0.629788 0.629558);
    }
    FreeStream
    {
        type            calculated;
        value           nonuniform List<scalar> 5(-0.089474 -0.089474 -0.089474 -0.089474 -0.089474);
    }
    FrontNBack
    {
        type            empty;
    }
    LeftSide
    {
        type            symmetryPlane;
    }
    RightSide
    {
        type            symmetryPlane;
    }
}


// ************************************************************************* //
