/*--------------------------------*- C++ -*----------------------------------*\
| =========                 |                                                 |
| \\      /  F ield         | OpenFOAM: The Open Source CFD Toolbox           |
|  \\    /   O peration     | Version:  2.4.0                                 |
|   \\  /    A nd           | Web:      www.OpenFOAM.org                      |
|    \\/     M anipulation  |                                                 |
\*---------------------------------------------------------------------------*/
FoamFile
{
    version     2.0;
    format      ascii;
    class       volScalarField;
    location    "3";
    object      p_rgh;
}
// * * * * * * * * * * * * * * * * * * * * * * * * * * * * * * * * * * * * * //

dimensions      [1 -1 -2 0 0 0 0];

internalField   nonuniform List<scalar> 
500
(
0.629557
0.629773
0.629974
0.629788
0.629558
0.629578
0.629798
0.630001
0.629812
0.629578
0.629567
0.629786
0.629988
0.6298
0.629567
0.62958
0.629802
0.630005
0.629815
0.62958
0.629565
0.629788
0.629992
0.629801
0.629565
0.629576
0.629801
0.630006
0.629814
0.629576
0.62955
0.629776
0.629983
0.629789
0.62955
0.629553
0.629781
0.629989
0.629794
0.629552
0.629585
0.629815
0.630024
0.629828
0.629585
0.629851
0.630083
0.630294
0.630096
0.629851
0.630127
0.630361
0.630574
0.630374
0.630127
0.628857
0.629091
0.629305
0.629104
0.628857
0.622511
0.62274
0.622952
0.622753
0.62251
0.615151
0.615378
0.615587
0.615391
0.615151
0.648122
0.648388
0.648607
0.648401
0.648121
0.808101
0.808511
0.808812
0.808524
0.8081
0.992631
0.993197
0.993645
0.993206
0.992629
0.140667
0.140663
0.14088
0.140673
0.140667
-3.8622
-3.86504
-3.86689
-3.86502
-3.86219
-9.00645
-9.01339
-9.01859
-9.01335
-9.00642
-0.00503541
-0.00503381
-0.0050334
-0.00503381
-0.00503541
0.00153455
0.00153514
0.00153509
0.00153514
0.00153456
0.000535612
0.000536617
0.00053673
0.000536617
0.000535615
8.93332e-06
9.97198e-06
1.0123e-05
9.97246e-06
8.93531e-06
-6.57989e-05
-6.48262e-05
-6.46803e-05
-6.48257e-05
-6.57969e-05
-2.97984e-05
-2.88637e-05
-2.87235e-05
-2.88631e-05
-2.97964e-05
-9.64008e-06
-8.72272e-06
-8.58408e-06
-8.72218e-06
-9.6381e-06
-6.9258e-06
-6.0249e-06
-5.88629e-06
-6.02436e-06
-6.92385e-06
-8.3318e-06
-7.45022e-06
-7.3117e-06
-7.44969e-06
-8.32988e-06
-9.10128e-06
-8.23993e-06
-8.10172e-06
-8.23941e-06
-9.0994e-06
-9.17647e-06
-8.33505e-06
-8.19725e-06
-8.33453e-06
-9.17461e-06
-9.08984e-06
-8.26795e-06
-8.13062e-06
-8.26743e-06
-9.08801e-06
-9.02908e-06
-8.22647e-06
-8.08965e-06
-8.22594e-06
-9.02728e-06
-8.99588e-06
-8.21235e-06
-8.0761e-06
-8.21183e-06
-8.99411e-06
-8.96896e-06
-8.20432e-06
-8.06869e-06
-8.2038e-06
-8.96722e-06
-8.94091e-06
-8.19494e-06
-8.05999e-06
-8.19443e-06
-8.9392e-06
-8.91167e-06
-8.18416e-06
-8.04995e-06
-8.18365e-06
-8.90999e-06
-8.8821e-06
-8.17283e-06
-8.03942e-06
-8.17232e-06
-8.88045e-06
-8.85248e-06
-8.16124e-06
-8.02869e-06
-8.16074e-06
-8.85086e-06
-8.82284e-06
-8.14938e-06
-8.01775e-06
-8.14888e-06
-8.82124e-06
-8.79311e-06
-8.13722e-06
-8.00656e-06
-8.13673e-06
-8.79155e-06
-8.7633e-06
-8.12475e-06
-7.99512e-06
-8.12425e-06
-8.76177e-06
-8.73341e-06
-8.11195e-06
-7.98342e-06
-8.11146e-06
-8.7319e-06
-8.70342e-06
-8.09883e-06
-7.97145e-06
-8.09834e-06
-8.70195e-06
-8.67335e-06
-8.08538e-06
-7.95922e-06
-8.0849e-06
-8.67191e-06
-8.6432e-06
-8.07161e-06
-7.94672e-06
-8.07113e-06
-8.64178e-06
-8.61295e-06
-8.0575e-06
-7.93395e-06
-8.05703e-06
-8.61156e-06
-8.58261e-06
-8.04306e-06
-7.9209e-06
-8.04259e-06
-8.58125e-06
-8.55217e-06
-8.02828e-06
-7.90757e-06
-8.02782e-06
-8.55084e-06
-8.52165e-06
-8.01316e-06
-7.89395e-06
-8.0127e-06
-8.52034e-06
-8.49102e-06
-7.9977e-06
-7.88005e-06
-7.99725e-06
-8.48975e-06
-8.4603e-06
-7.98189e-06
-7.86585e-06
-7.98144e-06
-8.45905e-06
-8.42947e-06
-7.96574e-06
-7.85136e-06
-7.96529e-06
-8.42825e-06
-8.39855e-06
-7.94923e-06
-7.83657e-06
-7.94879e-06
-8.39735e-06
-8.36751e-06
-7.93237e-06
-7.82148e-06
-7.93194e-06
-8.36635e-06
-8.33637e-06
-7.91516e-06
-7.80608e-06
-7.91473e-06
-8.33523e-06
-8.30511e-06
-7.89758e-06
-7.79037e-06
-7.89716e-06
-8.304e-06
-8.27375e-06
-7.87965e-06
-7.77435e-06
-7.87924e-06
-8.27266e-06
-8.24226e-06
-7.86136e-06
-7.75801e-06
-7.86095e-06
-8.2412e-06
-8.21065e-06
-7.8427e-06
-7.74135e-06
-7.8423e-06
-8.20962e-06
-8.17892e-06
-7.82367e-06
-7.72436e-06
-7.82328e-06
-8.17791e-06
-8.14705e-06
-7.80428e-06
-7.70705e-06
-7.8039e-06
-8.14608e-06
-8.11506e-06
-7.78452e-06
-7.6894e-06
-7.78414e-06
-8.11411e-06
-8.08293e-06
-7.76439e-06
-7.67142e-06
-7.76402e-06
-8.08201e-06
-8.05066e-06
-7.74388e-06
-7.6531e-06
-7.74352e-06
-8.04976e-06
-8.01825e-06
-7.723e-06
-7.63444e-06
-7.72264e-06
-8.01737e-06
-7.98568e-06
-7.70174e-06
-7.61543e-06
-7.70139e-06
-7.98484e-06
-7.95296e-06
-7.6801e-06
-7.59608e-06
-7.67976e-06
-7.95214e-06
-7.92009e-06
-7.65809e-06
-7.57637e-06
-7.65776e-06
-7.91929e-06
-7.88705e-06
-7.63569e-06
-7.55631e-06
-7.63537e-06
-7.88628e-06
-7.85384e-06
-7.61291e-06
-7.53589e-06
-7.6126e-06
-7.8531e-06
-7.82045e-06
-7.58975e-06
-7.51511e-06
-7.58944e-06
-7.81974e-06
-7.78689e-06
-7.5662e-06
-7.49397e-06
-7.5659e-06
-7.7862e-06
-7.75314e-06
-7.54226e-06
-7.47246e-06
-7.54198e-06
-7.75247e-06
-7.7192e-06
-7.51794e-06
-7.45058e-06
-7.51766e-06
-7.71856e-06
-7.68506e-06
-7.49323e-06
-7.42834e-06
-7.49296e-06
-7.68444e-06
-7.65071e-06
-7.46813e-06
-7.40572e-06
-7.46787e-06
-7.65012e-06
-7.61616e-06
-7.44264e-06
-7.38273e-06
-7.44239e-06
-7.61559e-06
-7.58138e-06
-7.41675e-06
-7.35935e-06
-7.41651e-06
-7.58084e-06
-7.54638e-06
-7.39047e-06
-7.3356e-06
-7.39024e-06
-7.54587e-06
-7.51115e-06
-7.3638e-06
-7.31148e-06
-7.36358e-06
-7.51066e-06
-7.47567e-06
-7.33674e-06
-7.28696e-06
-7.33653e-06
-7.47521e-06
-7.43995e-06
-7.30928e-06
-7.26207e-06
-7.30908e-06
-7.43951e-06
-7.40397e-06
-7.28142e-06
-7.23679e-06
-7.28123e-06
-7.40356e-06
-7.36773e-06
-7.25317e-06
-7.21113e-06
-7.25299e-06
-7.36734e-06
-7.33121e-06
-7.22452e-06
-7.18508e-06
-7.22435e-06
-7.33084e-06
-7.29441e-06
-7.19547e-06
-7.15865e-06
-7.19531e-06
-7.29407e-06
-7.25732e-06
-7.16603e-06
-7.13183e-06
-7.16588e-06
-7.257e-06
-7.21992e-06
-7.13618e-06
-7.10463e-06
-7.13605e-06
-7.21963e-06
-7.18221e-06
-7.10594e-06
-7.07704e-06
-7.10582e-06
-7.18194e-06
-7.14418e-06
-7.0753e-06
-7.04906e-06
-7.07519e-06
-7.14393e-06
-7.10581e-06
-7.04427e-06
-7.02071e-06
-7.04416e-06
-7.10559e-06
-7.0671e-06
-7.01283e-06
-6.99197e-06
-7.01274e-06
-7.0669e-06
-7.02803e-06
-6.981e-06
-6.96285e-06
-6.98092e-06
-7.02786e-06
-6.98859e-06
-6.94877e-06
-6.93335e-06
-6.9487e-06
-6.98844e-06
-6.94876e-06
-6.91615e-06
-6.90348e-06
-6.91609e-06
-6.94865e-06
-6.90854e-06
-6.88313e-06
-6.87324e-06
-6.88309e-06
-6.90845e-06
-6.8679e-06
-6.84972e-06
-6.84263e-06
-6.84969e-06
-6.86783e-06
-6.82684e-06
-6.81592e-06
-6.81165e-06
-6.8159e-06
-6.8268e-06
-6.78536e-06
-6.78166e-06
-6.78021e-06
-6.78165e-06
-6.78534e-06
)
;

boundaryField
{
    BotWall
    {
        type            fixedFluxPressure;
        gradient        uniform 0;
        value           nonuniform List<scalar> 5(0.629557 0.629773 0.629974 0.629788 0.629558);
    }
    FreeStream
    {
        type            totalPressure;
        rho             rho;
        psi             none;
        gamma           1;
        p0              uniform 0;
        value           nonuniform List<scalar> 5(-6.76451e-06 -6.7644e-06 -6.76432e-06 -6.7644e-06 -6.76451e-06);
    }
    FrontNBack
    {
        type            empty;
    }
    LeftSide
    {
        type            symmetryPlane;
    }
    RightSide
    {
        type            symmetryPlane;
    }
}


// ************************************************************************* //
