/*--------------------------------*- C++ -*----------------------------------*\
| =========                 |                                                 |
| \\      /  F ield         | OpenFOAM: The Open Source CFD Toolbox           |
|  \\    /   O peration     | Version:  2.4.0                                 |
|   \\  /    A nd           | Web:      www.OpenFOAM.org                      |
|    \\/     M anipulation  |                                                 |
\*---------------------------------------------------------------------------*/
FoamFile
{
    version     2.0;
    format      ascii;
    class       surfaceScalarField;
    location    "3";
    object      phi;
}
// * * * * * * * * * * * * * * * * * * * * * * * * * * * * * * * * * * * * * //

dimensions      [0 3 -1 0 0 0 0];

internalField   nonuniform List<scalar> 
895
(
4.08054e-18
-4.04303e-18
2.42725e-18
1.68685e-18
-2.55681e-18
5.08383e-18
-4.05376e-18
1.5364e-18
-3.99311e-18
1.26901e-17
-1.67336e-17
7.60796e-18
6.76809e-18
-7.98733e-18
2.0678e-17
-1.262e-17
6.16806e-18
-1.66137e-17
2.18555e-17
-3.85896e-17
1.31526e-17
1.547e-17
-1.37795e-17
4.76089e-17
-2.1748e-17
1.41355e-17
-3.83623e-17
3.15681e-17
-7.01583e-17
1.90451e-17
2.7992e-17
-1.99189e-17
8.65716e-17
-3.14284e-17
2.56439e-17
-6.97914e-17
4.1859e-17
-1.12018e-16
2.53071e-17
4.45429e-17
-2.6426e-17
1.38303e-16
-4.16909e-17
4.09077e-17
-1.11483e-16
5.27358e-17
-1.64755e-16
3.19459e-17
6.53317e-17
-3.33078e-17
2.03556e-16
-5.25429e-17
6.01416e-17
-1.64026e-16
6.42515e-17
-2.29007e-16
3.89925e-17
9.05895e-17
-4.05948e-17
2.83142e-16
-6.4038e-17
8.35837e-17
-2.28065e-16
7.6412e-17
-3.05419e-16
4.64553e-17
1.20545e-16
-4.82949e-17
3.77891e-16
-7.61826e-17
1.1147e-16
-3.04248e-16
8.92846e-17
-3.94705e-16
5.43722e-17
1.55456e-16
-5.64457e-17
4.88708e-16
-8.90443e-17
1.44068e-16
-3.93293e-16
1.02874e-16
-4.97579e-16
6.27514e-17
1.95578e-16
-6.50549e-17
6.16513e-16
-1.02628e-16
1.8164e-16
-4.95922e-16
1.17255e-16
-6.14835e-16
7.16355e-17
2.41197e-16
-7.41647e-17
7.62312e-16
-1.17009e-16
2.24483e-16
-6.12931e-16
1.32434e-16
-7.4727e-16
8.10338e-17
2.92596e-16
-8.37838e-17
9.27128e-16
-1.32194e-16
2.72892e-16
-7.45125e-16
1.48494e-16
-8.95764e-16
9.0993e-17
3.50096e-16
-9.39583e-17
1.11208e-15
-1.48265e-16
3.27197e-16
-8.9339e-16
1.65434e-16
-1.0612e-15
1.01525e-16
4.14004e-16
-1.047e-16
1.3183e-15
-1.65223e-16
3.8772e-16
-1.05861e-15
1.83323e-16
-1.24452e-15
1.12673e-16
4.84653e-16
-1.1605e-16
1.54703e-15
-1.83137e-16
4.54806e-16
-1.24175e-15
2.02172e-16
-1.44669e-15
1.24434e-16
5.62391e-16
-1.28006e-16
1.79946e-15
-2.02017e-16
5.28817e-16
-1.44377e-15
2.22258e-16
-1.66895e-15
1.36963e-16
6.47685e-16
-1.40718e-16
2.07714e-15
-2.22148e-16
6.10246e-16
-1.66592e-15
2.44071e-16
-1.91302e-15
1.50279e-16
7.41477e-16
-1.54275e-16
2.3817e-15
-2.44024e-16
6.99995e-16
-1.90994e-15
2.68346e-16
-4.91382e-15
1.65979e-16
8.4385e-16
-1.70101e-16
2.71779e-15
-2.68351e-16
7.9825e-16
-4.90696e-15
2.98644e-16
-2.43591e-10
1.87181e-16
-2.43593e-10
-1.91476e-16
-2.43596e-10
-2.98675e-16
-2.43593e-10
-2.43591e-10
3.01035e-16
-2.43591e-10
1.86386e-16
-2.43593e-10
-1.90727e-16
-2.43595e-10
-3.01101e-16
-2.43593e-10
-2.43591e-10
2.89889e-16
-2.43591e-10
1.84163e-16
-2.43593e-10
-1.884e-16
-2.43595e-10
-2.90024e-16
-2.43593e-10
-2.43591e-10
2.71484e-16
-2.43592e-10
1.75895e-16
-2.43593e-10
-1.79983e-16
-2.43594e-10
-2.71642e-16
-2.43593e-10
-2.43592e-10
2.60045e-16
-2.43592e-10
1.68804e-16
-2.43593e-10
-1.72743e-16
-2.43594e-10
-2.60221e-16
-2.43593e-10
-2.43592e-10
2.50801e-16
-2.43592e-10
1.62499e-16
-2.43592e-10
-1.66294e-16
-2.43594e-10
-2.50995e-16
-2.43592e-10
-2.43592e-10
2.41378e-16
-2.43592e-10
1.56536e-16
-2.43592e-10
-1.60188e-16
-2.43593e-10
-2.41587e-16
-2.43592e-10
-2.43592e-10
2.31606e-16
-2.43593e-10
1.50589e-16
-2.43592e-10
-1.54099e-16
-2.43593e-10
-2.3183e-16
-2.43592e-10
-2.43593e-10
2.21843e-16
-2.43593e-10
1.4462e-16
-2.43592e-10
-1.47989e-16
-2.43593e-10
-2.22079e-16
-2.43592e-10
-2.43593e-10
2.12223e-16
-2.43593e-10
1.38675e-16
-2.43592e-10
-1.41904e-16
-2.43593e-10
-2.12469e-16
-2.43592e-10
-2.43593e-10
2.02733e-16
-2.43593e-10
1.32784e-16
-2.43592e-10
-1.35874e-16
-2.43592e-10
-2.02988e-16
-2.43592e-10
-2.43593e-10
1.93352e-16
-2.43593e-10
1.26954e-16
-2.43592e-10
-1.29907e-16
-2.43592e-10
-1.93614e-16
-2.43592e-10
-2.43593e-10
1.84078e-16
-2.43594e-10
1.21185e-16
-2.43592e-10
-1.24002e-16
-2.43592e-10
-1.84345e-16
-2.43592e-10
-2.43594e-10
1.7492e-16
-2.43594e-10
1.1548e-16
-2.43592e-10
-1.18163e-16
-2.43592e-10
-1.7519e-16
-2.43592e-10
-2.43594e-10
1.65883e-16
-2.43594e-10
1.09842e-16
-2.43592e-10
-1.12391e-16
-2.43591e-10
-1.66156e-16
-2.43592e-10
-2.43594e-10
1.56975e-16
-2.43594e-10
1.04275e-16
-2.43592e-10
-1.06692e-16
-2.43591e-10
-1.57248e-16
-2.43592e-10
-2.43594e-10
1.48201e-16
-2.43594e-10
9.87824e-17
-2.43592e-10
-1.0107e-16
-2.43591e-10
-1.48473e-16
-2.43592e-10
-2.43594e-10
1.39565e-16
-2.43594e-10
9.33683e-17
-2.43592e-10
-9.55274e-17
-2.43591e-10
-1.39835e-16
-2.43592e-10
-2.43594e-10
1.31074e-16
-2.43595e-10
8.80364e-17
-2.43592e-10
-9.00689e-17
-2.43591e-10
-1.31339e-16
-2.43592e-10
-2.43595e-10
1.22732e-16
-2.43595e-10
8.27903e-17
-2.43592e-10
-8.4698e-17
-2.4359e-10
-1.22992e-16
-2.43592e-10
-2.43595e-10
1.14545e-16
-2.43595e-10
7.76336e-17
-2.43592e-10
-7.94185e-17
-2.4359e-10
-1.14799e-16
-2.43592e-10
-2.43595e-10
1.06518e-16
-2.43595e-10
7.257e-17
-2.43592e-10
-7.42341e-17
-2.4359e-10
-1.06764e-16
-2.43592e-10
-2.43595e-10
9.86567e-17
-2.43595e-10
6.7603e-17
-2.43592e-10
-6.91483e-17
-2.4359e-10
-9.88941e-17
-2.43592e-10
-2.43595e-10
9.09656e-17
-2.43595e-10
6.27361e-17
-2.43591e-10
-6.41648e-17
-2.4359e-10
-9.11931e-17
-2.43592e-10
-2.43595e-10
8.34498e-17
-2.43595e-10
5.79729e-17
-2.43591e-10
-5.92872e-17
-2.4359e-10
-8.36665e-17
-2.43591e-10
-2.43595e-10
7.61142e-17
-2.43595e-10
5.33166e-17
-2.43591e-10
-5.45188e-17
-2.4359e-10
-7.63191e-17
-2.43591e-10
-2.43595e-10
6.89636e-17
-2.43595e-10
4.87707e-17
-2.43591e-10
-4.9863e-17
-2.4359e-10
-6.91558e-17
-2.43591e-10
-2.43595e-10
6.20026e-17
-2.43595e-10
4.43383e-17
-2.43591e-10
-4.53231e-17
-2.43589e-10
-6.21812e-17
-2.43591e-10
-2.43595e-10
5.52355e-17
-2.43595e-10
4.00225e-17
-2.43591e-10
-4.09024e-17
-2.43589e-10
-5.53998e-17
-2.43591e-10
-2.43595e-10
4.86667e-17
-2.43596e-10
3.58265e-17
-2.43591e-10
-3.66039e-17
-2.43589e-10
-4.88161e-17
-2.43591e-10
-2.43596e-10
4.23004e-17
-2.43596e-10
3.17531e-17
-2.43591e-10
-3.24307e-17
-2.43589e-10
-4.24341e-17
-2.43591e-10
-2.43596e-10
3.61404e-17
-2.43596e-10
2.78052e-17
-2.43591e-10
-2.83855e-17
-2.43589e-10
-3.6258e-17
-2.43591e-10
-2.43596e-10
3.01905e-17
-2.43596e-10
2.39854e-17
-2.43591e-10
-2.44711e-17
-2.43589e-10
-3.02915e-17
-2.43591e-10
-2.43596e-10
2.44542e-17
-2.43596e-10
2.02962e-17
-2.43591e-10
-2.06902e-17
-2.43589e-10
-2.45383e-17
-2.43591e-10
-2.43596e-10
1.89349e-17
-2.43596e-10
1.67402e-17
-2.43591e-10
-1.70451e-17
-2.43589e-10
-1.90016e-17
-2.43591e-10
-2.43596e-10
1.36355e-17
-2.43596e-10
1.33194e-17
-2.43591e-10
-1.35381e-17
-2.43589e-10
-1.36846e-17
-2.43591e-10
-2.43596e-10
8.55879e-18
-2.43596e-10
1.0036e-17
-2.43591e-10
-1.01713e-17
-2.43589e-10
-8.59013e-18
-2.43591e-10
-2.43596e-10
3.70733e-18
-2.43596e-10
6.89175e-18
-2.43591e-10
-6.94667e-18
-2.43589e-10
-3.72076e-18
-2.43591e-10
-2.43596e-10
-9.16714e-19
-2.43596e-10
3.88847e-18
-2.43591e-10
-3.86588e-18
-2.43589e-10
9.21253e-19
-2.43591e-10
-2.43596e-10
-5.3115e-18
-2.43596e-10
1.02759e-18
-2.43591e-10
-9.30437e-19
-2.43589e-10
5.33401e-18
-2.43591e-10
-2.43596e-10
-9.47547e-18
-2.43596e-10
-1.68963e-18
-2.43591e-10
1.85836e-18
-2.43589e-10
9.51587e-18
-2.43591e-10
-2.43596e-10
-1.34073e-17
-2.43596e-10
-4.26216e-18
-2.43591e-10
4.49947e-18
-2.43589e-10
1.34655e-17
-2.43591e-10
-2.43596e-10
-1.71063e-17
-2.43596e-10
-6.68919e-18
-2.43591e-10
6.99208e-18
-2.43589e-10
1.7182e-17
-2.43591e-10
-2.43596e-10
-2.05717e-17
-2.43596e-10
-8.97018e-18
-2.43591e-10
9.33563e-18
-2.43589e-10
2.06648e-17
-2.43591e-10
-2.43596e-10
-2.38037e-17
-2.43596e-10
-1.11049e-17
-2.43591e-10
1.15299e-17
-2.43589e-10
2.39139e-17
-2.43591e-10
-2.43596e-10
-2.68027e-17
-2.43596e-10
-1.30932e-17
-2.43591e-10
1.35748e-17
-2.43589e-10
2.69296e-17
-2.43591e-10
-2.43596e-10
-2.95695e-17
-2.43596e-10
-1.49356e-17
-2.43591e-10
1.54706e-17
-2.43589e-10
2.97127e-17
-2.43591e-10
-2.43596e-10
-3.21054e-17
-2.43596e-10
-1.66325e-17
-2.43591e-10
1.72181e-17
-2.43589e-10
3.22644e-17
-2.43591e-10
-2.43596e-10
-3.44121e-17
-2.43595e-10
-1.81849e-17
-2.43591e-10
1.88181e-17
-2.43589e-10
3.45865e-17
-2.43592e-10
-2.43595e-10
-3.64919e-17
-2.43595e-10
-1.95941e-17
-2.43591e-10
2.02719e-17
-2.43589e-10
3.66812e-17
-2.43592e-10
-2.43595e-10
-3.83476e-17
-2.43595e-10
-2.08615e-17
-2.43591e-10
2.15811e-17
-2.43589e-10
3.85513e-17
-2.43592e-10
-2.43595e-10
-3.99826e-17
-2.43595e-10
-2.19892e-17
-2.43592e-10
2.27477e-17
-2.43589e-10
4.02001e-17
-2.43592e-10
-2.43595e-10
-4.14007e-17
-2.43595e-10
-2.29794e-17
-2.43592e-10
2.3774e-17
-2.43589e-10
4.16314e-17
-2.43592e-10
-2.43595e-10
-4.26064e-17
-2.43595e-10
-2.38348e-17
-2.43592e-10
2.46628e-17
-2.43589e-10
4.28497e-17
-2.43592e-10
-2.43595e-10
-4.36047e-17
-2.43595e-10
-2.45584e-17
-2.43592e-10
2.54172e-17
-2.43589e-10
4.386e-17
-2.43592e-10
-2.43595e-10
-4.44014e-17
-2.43595e-10
-2.51538e-17
-2.43592e-10
2.60407e-17
-2.43589e-10
4.46681e-17
-2.43592e-10
-2.43595e-10
-4.50028e-17
-2.43595e-10
-2.56248e-17
-2.43592e-10
2.65373e-17
-2.4359e-10
4.52802e-17
-2.43592e-10
-2.43595e-10
-4.54158e-17
-2.43595e-10
-2.59758e-17
-2.43592e-10
2.69113e-17
-2.4359e-10
4.57034e-17
-2.43592e-10
-2.43595e-10
-4.56481e-17
-2.43595e-10
-2.62114e-17
-2.43592e-10
2.71677e-17
-2.4359e-10
4.59452e-17
-2.43592e-10
-2.43595e-10
-4.5708e-17
-2.43595e-10
-2.63368e-17
-2.43592e-10
2.73118e-17
-2.4359e-10
4.60141e-17
-2.43592e-10
-2.43595e-10
-4.56046e-17
-2.43595e-10
-2.63577e-17
-2.43592e-10
2.73492e-17
-2.4359e-10
4.59191e-17
-2.43592e-10
-2.43595e-10
-4.53477e-17
-2.43595e-10
-2.62803e-17
-2.43592e-10
2.72862e-17
-2.4359e-10
4.567e-17
-2.43592e-10
-2.43595e-10
-4.49477e-17
-2.43595e-10
-2.6111e-17
-2.43592e-10
2.71295e-17
-2.4359e-10
4.52773e-17
-2.43592e-10
-2.43595e-10
-4.44159e-17
-2.43595e-10
-2.5857e-17
-2.43592e-10
2.68865e-17
-2.4359e-10
4.47524e-17
-2.43592e-10
-2.43595e-10
-4.37644e-17
-2.43595e-10
-2.5526e-17
-2.43592e-10
2.65647e-17
-2.4359e-10
4.41074e-17
-2.43592e-10
-2.43595e-10
-4.30061e-17
-2.43595e-10
-2.51259e-17
-2.43592e-10
2.61726e-17
-2.4359e-10
4.33551e-17
-2.43592e-10
-2.43595e-10
-4.21547e-17
-2.43595e-10
-2.46655e-17
-2.43592e-10
2.57187e-17
-2.4359e-10
4.25093e-17
-2.43592e-10
-2.43595e-10
-4.12246e-17
-2.43595e-10
-2.41538e-17
-2.43592e-10
2.52126e-17
-2.4359e-10
4.15846e-17
-2.43592e-10
-2.43595e-10
-4.02312e-17
-2.43595e-10
-2.36006e-17
-2.43592e-10
2.46641e-17
-2.4359e-10
4.05964e-17
-2.43592e-10
-2.43595e-10
-3.91908e-17
-2.43595e-10
-2.30161e-17
-2.43592e-10
2.40836e-17
-2.4359e-10
3.9561e-17
-2.43592e-10
-2.43595e-10
-3.81207e-17
-2.43595e-10
-2.24113e-17
-2.43592e-10
2.34822e-17
-2.4359e-10
3.84956e-17
-2.43592e-10
-2.43595e-10
-3.70388e-17
-2.43595e-10
-2.17975e-17
-2.43592e-10
2.28715e-17
-2.4359e-10
3.74184e-17
-2.43592e-10
-2.43594e-10
-3.59643e-17
-2.43594e-10
-2.11867e-17
-2.43592e-10
2.22637e-17
-2.4359e-10
3.63486e-17
-2.43592e-10
-2.43594e-10
-3.49172e-17
-2.43594e-10
-2.05915e-17
-2.43592e-10
2.16718e-17
-2.4359e-10
3.53062e-17
-2.43592e-10
-2.43594e-10
-3.39187e-17
-2.43594e-10
-2.00254e-17
-2.43592e-10
2.11092e-17
-2.4359e-10
3.43125e-17
-2.43592e-10
-2.43594e-10
-3.29909e-17
-2.43594e-10
-1.95022e-17
-2.43592e-10
2.05901e-17
-2.4359e-10
3.33895e-17
-2.43592e-10
-2.43594e-10
-3.2157e-17
-2.43594e-10
-1.90364e-17
-2.43592e-10
2.01293e-17
-2.43591e-10
3.25606e-17
-2.43592e-10
-2.43594e-10
-3.14411e-17
-2.43594e-10
-1.86432e-17
-2.43592e-10
1.97422e-17
-2.43591e-10
3.18498e-17
-2.43592e-10
-2.43594e-10
-3.08692e-17
-2.43594e-10
-1.8339e-17
-2.43592e-10
1.94454e-17
-2.43591e-10
3.12832e-17
-2.43592e-10
-2.43594e-10
-3.04729e-17
-2.43594e-10
-1.8143e-17
-2.43592e-10
1.92587e-17
-2.43591e-10
3.08922e-17
-2.43592e-10
-2.43594e-10
-3.02988e-17
-1.80839e-17
1.9211e-17
3.0723e-17
)
;

boundaryField
{
    BotWall
    {
        type            calculated;
        value           nonuniform List<scalar> 5(1.2965e-20 1.901e-20 3.5697e-20 2.35952e-20 2.28953e-20);
    }
    FreeStream
    {
        type            calculated;
        value           nonuniform List<scalar> 5(-2.43594e-10 -2.43592e-10 -2.43591e-10 -2.43592e-10 -2.43594e-10);
    }
    FrontNBack
    {
        type            empty;
        value           nonuniform 0();
    }
    LeftSide
    {
        type            symmetryPlane;
        value           uniform 0;
    }
    RightSide
    {
        type            symmetryPlane;
        value           uniform 0;
    }
}


// ************************************************************************* //
