/*--------------------------------*- C++ -*----------------------------------*\
| =========                 |                                                 |
| \\      /  F ield         | OpenFOAM: The Open Source CFD Toolbox           |
|  \\    /   O peration     | Version:  2.4.0                                 |
|   \\  /    A nd           | Web:      www.OpenFOAM.org                      |
|    \\/     M anipulation  |                                                 |
\*---------------------------------------------------------------------------*/
FoamFile
{
    version     2.0;
    format      ascii;
    class       volVectorField;
    location    "3";
    object      U;
}
// * * * * * * * * * * * * * * * * * * * * * * * * * * * * * * * * * * * * * //

dimensions      [0 1 -1 0 0 0 0];

internalField   nonuniform List<vector> 
500
(
(1.15327e-09 -3.03461e-10 0)
(1.84044e-09 -3.04684e-10 0)
(-4.02205e-11 -3.01539e-10 0)
(-1.85212e-09 -3.04828e-10 0)
(-1.1255e-09 -3.03354e-10 0)
(3.52896e-09 7.3034e-10 0)
(5.64922e-09 8.06503e-10 0)
(-1.17531e-10 8.41432e-10 0)
(-5.68417e-09 8.04917e-10 0)
(-3.44871e-09 7.30723e-10 0)
(5.9951e-09 -1.45972e-09 0)
(9.6174e-09 -1.30971e-09 0)
(-1.92354e-10 -1.20369e-09 0)
(-9.67604e-09 -1.31419e-09 0)
(-5.86526e-09 -1.45888e-09 0)
(8.54666e-09 1.5849e-09 0)
(1.37424e-08 1.98675e-09 0)
(-2.64717e-10 2.20256e-09 0)
(-1.38254e-08 1.97786e-09 0)
(-8.37042e-09 1.58635e-09 0)
(1.11886e-08 -2.82806e-09 0)
(1.80315e-08 -2.25842e-09 0)
(-3.3441e-10 -1.88759e-09 0)
(-1.81393e-08 -2.27303e-09 0)
(-1.09689e-08 -2.82585e-09 0)
(1.39162e-08 2.34735e-09 0)
(2.24832e-08 3.35628e-09 0)
(-4.01368e-10 3.92395e-09 0)
(-2.26159e-08 3.3345e-09 0)
(-1.36559e-08 2.35051e-09 0)
(1.67409e-08 -4.67791e-09 0)
(2.71113e-08 -3.39507e-09 0)
(-4.65521e-10 -2.57901e-09 0)
(-2.72692e-08 -3.42523e-09 0)
(-1.64431e-08 -4.67377e-09 0)
(1.96576e-08 2.42304e-09 0)
(3.19138e-08 4.34895e-09 0)
(-5.26768e-10 5.45941e-09 0)
(-3.20971e-08 4.309e-09 0)
(-1.93254e-08 2.42833e-09 0)
(2.26812e-08 -7.52824e-09 0)
(3.69085e-08 -5.20318e-09 0)
(-5.85026e-10 -3.73887e-09 0)
(-3.71175e-08 -5.25403e-09 0)
(-2.23178e-08 -7.52182e-09 0)
(2.58053e-08 5.89869e-09 0)
(4.20924e-08 9.09351e-09 0)
(-6.40202e-10 1.09648e-08 0)
(-4.23275e-08 9.03039e-09 0)
(-2.54141e-08 5.90638e-09 0)
(2.90464e-08 4.65193e-09 0)
(4.74851e-08 8.40493e-09 0)
(-6.92236e-10 1.07548e-08 0)
(-4.77464e-08 8.32855e-09 0)
(-2.86306e-08 4.66077e-09 0)
(3.23977e-08 2.47834e-08 0)
(5.30835e-08 2.96392e-08 0)
(-7.41009e-10 3.25261e-08 0)
(-5.33715e-08 2.95482e-08 0)
(-3.19608e-08 2.47935e-08 0)
(3.58761e-08 -7.48707e-08 0)
(5.89081e-08 -6.94195e-08 0)
(-7.86449e-10 -6.59562e-08 0)
(-5.92229e-08 -6.95257e-08 0)
(-3.54216e-08 -7.48593e-08 0)
(3.94742e-08 -3.62383e-07 0)
(6.49548e-08 -3.55847e-07 0)
(-8.28428e-10 -3.51876e-07 0)
(-6.52967e-08 -3.55969e-07 0)
(-3.90058e-08 -3.6237e-07 0)
(4.32092e-08 -5.48704e-07 0)
(7.12432e-08 -5.41339e-07 0)
(-8.66858e-10 -5.36835e-07 0)
(-7.16125e-08 -5.41477e-07 0)
(-4.27305e-08 -5.48688e-07 0)
(4.70816e-08 1.64415e-06 0)
(7.77787e-08 1.65542e-06 0)
(-9.01608e-10 1.66152e-06 0)
(-7.81756e-08 1.65525e-06 0)
(-4.65964e-08 1.64416e-06 0)
(5.11442e-08 9.70233e-06 0)
(8.46341e-08 9.7214e-06 0)
(-9.32715e-10 9.73259e-06 0)
(-8.50593e-08 9.7212e-06 0)
(-5.06567e-08 9.70232e-06 0)
(5.54212e-08 1.29651e-05 0)
(9.18518e-08 1.29916e-05 0)
(-9.68715e-10 1.301e-05 0)
(-9.23164e-08 1.29913e-05 0)
(-5.49374e-08 1.29651e-05 0)
(5.98869e-08 -3.78769e-05 0)
(9.9479e-08 -3.78913e-05 0)
(-9.86405e-10 -3.7896e-05 0)
(-9.99646e-08 -3.78914e-05 0)
(-5.94068e-08 -3.78768e-05 0)
(6.47921e-08 -0.000296009 0)
(1.07956e-07 -0.000296135 0)
(-1.00696e-09 -0.000296221 0)
(-1.08465e-07 -0.000296134 0)
(-6.43144e-08 -0.000296008 0)
(6.59312e-08 -0.000912883 0)
(1.09828e-07 -0.000912814 0)
(-1.01023e-09 -0.000912784 0)
(-1.10342e-07 -0.000912814 0)
(-6.54555e-08 -0.000912883 0)
(6.29095e-08 -0.00210854 0)
(1.05786e-07 -0.00210844 0)
(-9.69059e-10 -0.00210839 0)
(-1.06296e-07 -0.00210844 0)
(-6.24716e-08 -0.00210854 0)
(5.90357e-08 -0.00125784 0)
(9.99982e-08 -0.0012579 0)
(-9.22436e-10 -0.00125792 0)
(-1.0049e-07 -0.0012579 0)
(-5.86276e-08 -0.00125784 0)
(5.59634e-08 -0.00117019 0)
(9.51138e-08 -0.00117021 0)
(-8.76936e-10 -0.00117023 0)
(-9.55874e-08 -0.00117021 0)
(-5.5583e-08 -0.00117019 0)
(5.32256e-08 -0.00119179 0)
(9.06598e-08 -0.00119179 0)
(-8.33059e-10 -0.0011918 0)
(-9.11156e-08 -0.00119179 0)
(-5.28718e-08 -0.00119179 0)
(5.05826e-08 -0.00121556 0)
(8.63639e-08 -0.00121555 0)
(-7.906e-10 -0.00121556 0)
(-8.68022e-08 -0.00121555 0)
(-5.02541e-08 -0.00121556 0)
(4.79666e-08 -0.00122012 0)
(8.21306e-08 -0.00122012 0)
(-7.49395e-10 -0.00122013 0)
(-8.25515e-08 -0.00122012 0)
(-4.76622e-08 -0.00122012 0)
(4.54049e-08 -0.00121901 0)
(7.79833e-08 -0.00121901 0)
(-7.09405e-10 -0.00121901 0)
(-7.83868e-08 -0.00121901 0)
(-4.51232e-08 -0.00121901 0)
(4.29175e-08 -0.00121806 0)
(7.3944e-08 -0.00121806 0)
(-6.7062e-10 -0.00121806 0)
(-7.43302e-08 -0.00121806 0)
(-4.26573e-08 -0.00121806 0)
(4.05064e-08 -0.00121788 0)
(7.00162e-08 -0.00121787 0)
(-6.33028e-10 -0.00121787 0)
(-7.03852e-08 -0.00121787 0)
(-4.02666e-08 -0.00121788 0)
(3.81688e-08 -0.00121792 0)
(6.61973e-08 -0.00121792 0)
(-5.96614e-10 -0.00121792 0)
(-6.65492e-08 -0.00121792 0)
(-3.79481e-08 -0.00121792 0)
(3.59026e-08 -0.00121796 0)
(6.24855e-08 -0.00121796 0)
(-5.6136e-10 -0.00121796 0)
(-6.28206e-08 -0.00121796 0)
(-3.57001e-08 -0.00121796 0)
(3.37072e-08 -0.00121797 0)
(5.88803e-08 -0.00121796 0)
(-5.27251e-10 -0.00121796 0)
(-5.91987e-08 -0.00121796 0)
(-3.35219e-08 -0.00121797 0)
(3.15823e-08 -0.00121797 0)
(5.53815e-08 -0.00121796 0)
(-4.94269e-10 -0.00121796 0)
(-5.56833e-08 -0.00121796 0)
(-3.1413e-08 -0.00121797 0)
(2.95271e-08 -0.00121797 0)
(5.19886e-08 -0.00121796 0)
(-4.62399e-10 -0.00121796 0)
(-5.22741e-08 -0.00121796 0)
(-2.9373e-08 -0.00121797 0)
(2.75412e-08 -0.00121797 0)
(4.87013e-08 -0.00121796 0)
(-4.31627e-10 -0.00121796 0)
(-4.89707e-08 -0.00121796 0)
(-2.74013e-08 -0.00121797 0)
(2.56239e-08 -0.00121797 0)
(4.55188e-08 -0.00121796 0)
(-4.01937e-10 -0.00121795 0)
(-4.57723e-08 -0.00121796 0)
(-2.54972e-08 -0.00121797 0)
(2.37743e-08 -0.00121797 0)
(4.24407e-08 -0.00121796 0)
(-3.73313e-10 -0.00121795 0)
(-4.26786e-08 -0.00121796 0)
(-2.36601e-08 -0.00121797 0)
(2.19919e-08 -0.00121797 0)
(3.94663e-08 -0.00121796 0)
(-3.4574e-10 -0.00121795 0)
(-3.96888e-08 -0.00121796 0)
(-2.18893e-08 -0.00121797 0)
(2.0276e-08 -0.00121797 0)
(3.6595e-08 -0.00121796 0)
(-3.19202e-10 -0.00121795 0)
(-3.68023e-08 -0.00121796 0)
(-2.01841e-08 -0.00121797 0)
(1.86256e-08 -0.00121797 0)
(3.38259e-08 -0.00121796 0)
(-2.93684e-10 -0.00121795 0)
(-3.40185e-08 -0.00121796 0)
(-1.85438e-08 -0.00121797 0)
(1.70402e-08 -0.00121797 0)
(3.11584e-08 -0.00121796 0)
(-2.69169e-10 -0.00121795 0)
(-3.13365e-08 -0.00121796 0)
(-1.69676e-08 -0.00121797 0)
(1.55188e-08 -0.00121798 0)
(2.85917e-08 -0.00121796 0)
(-2.45641e-10 -0.00121795 0)
(-2.87555e-08 -0.00121796 0)
(-1.54548e-08 -0.00121798 0)
(1.40607e-08 -0.00121798 0)
(2.61248e-08 -0.00121796 0)
(-2.23082e-10 -0.00121795 0)
(-2.62747e-08 -0.00121796 0)
(-1.40046e-08 -0.00121798 0)
(1.2665e-08 -0.00121798 0)
(2.37569e-08 -0.00121796 0)
(-2.01478e-10 -0.00121795 0)
(-2.38932e-08 -0.00121796 0)
(-1.26162e-08 -0.00121798 0)
(1.13309e-08 -0.00121798 0)
(2.14869e-08 -0.00121796 0)
(-1.80809e-10 -0.00121795 0)
(-2.161e-08 -0.00121796 0)
(-1.12888e-08 -0.00121798 0)
(1.00574e-08 -0.00121798 0)
(1.93139e-08 -0.00121796 0)
(-1.61059e-10 -0.00121795 0)
(-1.94242e-08 -0.00121796 0)
(-1.00214e-08 -0.00121798 0)
(8.84365e-09 -0.00121798 0)
(1.72368e-08 -0.00121796 0)
(-1.4221e-10 -0.00121795 0)
(-1.73346e-08 -0.00121796 0)
(-8.81327e-09 -0.00121798 0)
(7.68874e-09 -0.00121798 0)
(1.52545e-08 -0.00121796 0)
(-1.24244e-10 -0.00121795 0)
(-1.53401e-08 -0.00121796 0)
(-7.66341e-09 -0.00121798 0)
(6.59167e-09 -0.00121798 0)
(1.33657e-08 -0.00121796 0)
(-1.07143e-10 -0.00121795 0)
(-1.34395e-08 -0.00121796 0)
(-6.57092e-09 -0.00121798 0)
(5.55148e-09 -0.00121798 0)
(1.15693e-08 -0.00121796 0)
(-9.08884e-11 -0.00121795 0)
(-1.16317e-08 -0.00121796 0)
(-5.53483e-09 -0.00121798 0)
(4.56714e-09 -0.00121798 0)
(9.86393e-09 -0.00121796 0)
(-7.54618e-11 -0.00121795 0)
(-9.91531e-09 -0.00121796 0)
(-4.55418e-09 -0.00121798 0)
(3.63763e-09 -0.00121798 0)
(8.24824e-09 -0.00121796 0)
(-6.08442e-11 -0.00121795 0)
(-8.28901e-09 -0.00121796 0)
(-3.62794e-09 -0.00121798 0)
(2.76189e-09 -0.00121798 0)
(6.72083e-09 -0.00121796 0)
(-4.70166e-11 -0.00121795 0)
(-6.75139e-09 -0.00121796 0)
(-2.7551e-09 -0.00121798 0)
(1.93883e-09 -0.00121798 0)
(5.28023e-09 -0.00121796 0)
(-3.39598e-11 -0.00121795 0)
(-5.30099e-09 -0.00121796 0)
(-1.93459e-09 -0.00121798 0)
(1.16735e-09 -0.00121798 0)
(3.92493e-09 -0.00121796 0)
(-2.16542e-11 -0.00121795 0)
(-3.9363e-09 -0.00121796 0)
(-1.16533e-09 -0.00121798 0)
(4.46313e-10 -0.00121798 0)
(2.65333e-09 -0.00121796 0)
(-1.00801e-11 -0.00121794 0)
(-2.65573e-09 -0.00121796 0)
(-4.46208e-10 -0.00121798 0)
(-2.25432e-10 -0.00121798 0)
(1.46381e-09 -0.00121796 0)
(7.82117e-13 -0.00121794 0)
(-1.45763e-09 -0.00121796 0)
(2.23903e-10 -0.00121798 0)
(-8.49071e-10 -0.00121798 0)
(3.54649e-10 -0.00121796 0)
(1.09526e-11 -0.00121794 0)
(-3.40323e-10 -0.00121796 0)
(8.46169e-10 -0.00121798 0)
(-1.42581e-09 -0.00121798 0)
(-6.75906e-10 -0.00121796 0)
(2.04514e-11 -0.00121794 0)
(6.97969e-10 -0.00121796 0)
(1.42177e-09 -0.00121798 0)
(-1.95689e-09 -0.00121798 0)
(-1.62968e-09 -0.00121796 0)
(2.92989e-11 -0.00121794 0)
(1.65906e-09 -0.00121796 0)
(1.95193e-09 -0.00121798 0)
(-2.44356e-09 -0.00121798 0)
(-2.50855e-09 -0.00121796 0)
(3.75154e-11 -0.00121794 0)
(2.54484e-09 -0.00121796 0)
(2.43789e-09 -0.00121798 0)
(-2.8871e-09 -0.00121798 0)
(-3.31445e-09 -0.00121796 0)
(4.51217e-11 -0.00121795 0)
(3.35725e-09 -0.00121796 0)
(2.8809e-09 -0.00121798 0)
(-3.28883e-09 -0.00121798 0)
(-4.0494e-09 -0.00121796 0)
(5.21383e-11 -0.00121795 0)
(4.09829e-09 -0.00121796 0)
(3.28226e-09 -0.00121798 0)
(-3.65009e-09 -0.00121798 0)
(-4.71544e-09 -0.00121796 0)
(5.8586e-11 -0.00121795 0)
(4.77002e-09 -0.00121796 0)
(3.64329e-09 -0.00121798 0)
(-3.97223e-09 -0.00121798 0)
(-5.3147e-09 -0.00121796 0)
(6.44857e-11 -0.00121795 0)
(5.37457e-09 -0.00121796 0)
(3.96533e-09 -0.00121798 0)
(-4.25663e-09 -0.00121798 0)
(-5.84935e-09 -0.00121796 0)
(6.98583e-11 -0.00121795 0)
(5.91413e-09 -0.00121796 0)
(4.24976e-09 -0.00121798 0)
(-4.50471e-09 -0.00121798 0)
(-6.32164e-09 -0.00121796 0)
(7.4725e-11 -0.00121795 0)
(6.39094e-09 -0.00121796 0)
(4.49797e-09 -0.00121798 0)
(-4.7179e-09 -0.00121798 0)
(-6.73384e-09 -0.00121796 0)
(7.91068e-11 -0.00121795 0)
(6.8073e-09 -0.00121796 0)
(4.71138e-09 -0.00121798 0)
(-4.89766e-09 -0.00121798 0)
(-7.08833e-09 -0.00121796 0)
(8.30249e-11 -0.00121795 0)
(7.16557e-09 -0.00121796 0)
(4.89144e-09 -0.00121798 0)
(-5.04548e-09 -0.00121798 0)
(-7.38749e-09 -0.00121796 0)
(8.65004e-11 -0.00121795 0)
(7.46816e-09 -0.00121796 0)
(5.03962e-09 -0.00121798 0)
(-5.16286e-09 -0.00121798 0)
(-7.6338e-09 -0.00121796 0)
(8.95546e-11 -0.00121795 0)
(7.71755e-09 -0.00121796 0)
(5.15742e-09 -0.00121798 0)
(-5.25133e-09 -0.00121798 0)
(-7.82977e-09 -0.00121796 0)
(9.22087e-11 -0.00121795 0)
(7.91627e-09 -0.00121796 0)
(5.24636e-09 -0.00121798 0)
(-5.31244e-09 -0.00121798 0)
(-7.97796e-09 -0.00121796 0)
(9.4484e-11 -0.00121795 0)
(8.06689e-09 -0.00121796 0)
(5.30798e-09 -0.00121798 0)
(-5.34778e-09 -0.00121798 0)
(-8.08099e-09 -0.00121796 0)
(9.64016e-11 -0.00121795 0)
(8.17205e-09 -0.00121796 0)
(5.34386e-09 -0.00121798 0)
(-5.35893e-09 -0.00121798 0)
(-8.14153e-09 -0.00121796 0)
(9.79829e-11 -0.00121795 0)
(8.23443e-09 -0.00121796 0)
(5.35558e-09 -0.00121798 0)
(-5.34752e-09 -0.00121798 0)
(-8.1623e-09 -0.00121796 0)
(9.9249e-11 -0.00121795 0)
(8.25676e-09 -0.00121796 0)
(5.34476e-09 -0.00121798 0)
(-5.31518e-09 -0.00121798 0)
(-8.14606e-09 -0.00121796 0)
(1.00221e-10 -0.00121795 0)
(8.24181e-09 -0.00121796 0)
(5.31304e-09 -0.00121798 0)
(-5.26359e-09 -0.00121798 0)
(-8.09562e-09 -0.00121796 0)
(1.0092e-10 -0.00121795 0)
(8.19242e-09 -0.00121796 0)
(5.26206e-09 -0.00121798 0)
(-5.19441e-09 -0.00121797 0)
(-8.01382e-09 -0.00121796 0)
(1.01368e-10 -0.00121795 0)
(8.11145e-09 -0.00121796 0)
(5.1935e-09 -0.00121797 0)
(-5.10934e-09 -0.00121797 0)
(-7.90356e-09 -0.00121796 0)
(1.01585e-10 -0.00121795 0)
(8.0018e-09 -0.00121796 0)
(5.10907e-09 -0.00121797 0)
(-5.01012e-09 -0.00121797 0)
(-7.76776e-09 -0.00121796 0)
(1.01592e-10 -0.00121795 0)
(7.86641e-09 -0.00121796 0)
(5.01047e-09 -0.00121797 0)
(-4.89846e-09 -0.00121797 0)
(-7.60939e-09 -0.00121796 0)
(1.01411e-10 -0.00121795 0)
(7.70829e-09 -0.00121796 0)
(4.89944e-09 -0.00121797 0)
(-4.77612e-09 -0.00121797 0)
(-7.43145e-09 -0.00121796 0)
(1.01062e-10 -0.00121795 0)
(7.53043e-09 -0.00121796 0)
(4.77773e-09 -0.00121797 0)
(-4.64488e-09 -0.00121797 0)
(-7.23697e-09 -0.00121796 0)
(1.00566e-10 -0.00121795 0)
(7.3359e-09 -0.00121796 0)
(4.64711e-09 -0.00121797 0)
(-4.50651e-09 -0.00121797 0)
(-7.02901e-09 -0.00121796 0)
(9.99442e-11 -0.00121795 0)
(7.12777e-09 -0.00121796 0)
(4.50936e-09 -0.00121797 0)
(-4.36283e-09 -0.00121797 0)
(-6.81066e-09 -0.00121796 0)
(9.92175e-11 -0.00121795 0)
(6.90916e-09 -0.00121796 0)
(4.36629e-09 -0.00121797 0)
(-4.21565e-09 -0.00121797 0)
(-6.58504e-09 -0.00121796 0)
(9.84067e-11 -0.00121795 0)
(6.68319e-09 -0.00121796 0)
(4.21971e-09 -0.00121797 0)
(-4.06681e-09 -0.00121797 0)
(-6.3553e-09 -0.00121796 0)
(9.75328e-11 -0.00121795 0)
(6.45304e-09 -0.00121796 0)
(4.07146e-09 -0.00121797 0)
(-3.91817e-09 -0.00121797 0)
(-6.1246e-09 -0.00121796 0)
(9.66165e-11 -0.00121795 0)
(6.22189e-09 -0.00121796 0)
(3.92339e-09 -0.00121797 0)
(-3.77158e-09 -0.00121797 0)
(-5.89613e-09 -0.00121796 0)
(9.56791e-11 -0.00121795 0)
(5.99294e-09 -0.00121796 0)
(3.77737e-09 -0.00121797 0)
(-3.62895e-09 -0.00121797 0)
(-5.67309e-09 -0.00121796 0)
(9.47417e-11 -0.00121795 0)
(5.76942e-09 -0.00121796 0)
(3.63528e-09 -0.00121797 0)
(-3.49218e-09 -0.00121797 0)
(-5.45873e-09 -0.00121796 0)
(9.38256e-11 -0.00121795 0)
(5.55459e-09 -0.00121796 0)
(3.49903e-09 -0.00121797 0)
(-3.3632e-09 -0.00121797 0)
(-5.2563e-09 -0.00121796 0)
(9.29523e-11 -0.00121795 0)
(5.35171e-09 -0.00121796 0)
(3.37054e-09 -0.00121797 0)
(-3.24397e-09 -0.00121797 0)
(-5.06907e-09 -0.00121796 0)
(9.21434e-11 -0.00121795 0)
(5.16407e-09 -0.00121796 0)
(3.25176e-09 -0.00121797 0)
(-3.13644e-09 -0.00121797 0)
(-4.90032e-09 -0.00121796 0)
(9.14208e-11 -0.00121795 0)
(4.99497e-09 -0.00121796 0)
(3.14465e-09 -0.00121797 0)
(-3.04262e-09 -0.00121797 0)
(-4.75337e-09 -0.00121796 0)
(9.08065e-11 -0.00121795 0)
(4.84774e-09 -0.00121796 0)
(3.05121e-09 -0.00121797 0)
(-2.96462e-09 -0.00121797 0)
(-4.63166e-09 -0.00121796 0)
(9.03239e-11 -0.00121795 0)
(4.72582e-09 -0.00121796 0)
(2.97351e-09 -0.00121797 0)
(-2.90475e-09 -0.00121797 0)
(-4.53894e-09 -0.00121796 0)
(8.99992e-11 -0.00121795 0)
(4.63299e-09 -0.00121796 0)
(2.91386e-09 -0.00121797 0)
(-2.86555e-09 -0.00121797 0)
(-4.47926e-09 -0.00121796 0)
(8.98556e-11 -0.00121795 0)
(4.57329e-09 -0.00121796 0)
(2.8748e-09 -0.00121797 0)
)
;

boundaryField
{
    BotWall
    {
        type            fixedValue;
        value           uniform (0 0 0);
    }
    FreeStream
    {
        type            zeroGradient;
    }
    FrontNBack
    {
        type            empty;
    }
    LeftSide
    {
        type            symmetryPlane;
    }
    RightSide
    {
        type            symmetryPlane;
    }
}


// ************************************************************************* //
