/*--------------------------------*- C++ -*----------------------------------*\
| =========                 |                                                 |
| \\      /  F ield         | OpenFOAM: The Open Source CFD Toolbox           |
|  \\    /   O peration     | Version:  2.4.0                                 |
|   \\  /    A nd           | Web:      www.OpenFOAM.org                      |
|    \\/     M anipulation  |                                                 |
\*---------------------------------------------------------------------------*/
FoamFile
{
    version     2.0;
    format      ascii;
    class       volScalarField;
    location    "2.3";
    object      H;
}
// * * * * * * * * * * * * * * * * * * * * * * * * * * * * * * * * * * * * * //

dimensions      [0 2 -2 0 0 0 0];

internalField   nonuniform List<scalar> 
500
(
-11923.4
-11923.4
-11923.4
-11923.4
-11923.4
-11306.6
-11306.6
-11306.6
-11306.6
-11306.6
-10683
-10683
-10683
-10683
-10683
-10052.3
-10052.3
-10052.3
-10052.3
-10052.3
-9414.46
-9414.45
-9414.44
-9414.45
-9414.46
-8769.35
-8769.34
-8769.33
-8769.34
-8769.35
-8116.83
-8116.82
-8116.81
-8116.82
-8116.83
-7456.76
-7456.74
-7456.73
-7456.74
-7456.76
-6788.96
-6788.95
-6788.93
-6788.95
-6788.96
-6113.28
-6113.26
-6113.24
-6113.26
-6113.28
-5429.5
-5429.48
-5429.45
-5429.48
-5429.5
-4737.43
-4737.39
-4737.37
-4737.39
-4737.43
-4036.82
-4036.78
-4036.75
-4036.78
-4036.82
-3327.43
-3327.38
-3327.35
-3327.38
-3327.43
-2608.99
-2608.94
-2608.9
-2608.94
-2608.99
-1881.22
-1881.16
-1881.11
-1881.16
-1881.22
-1143.82
-1143.75
-1143.7
-1143.75
-1143.83
-53.4857
-53.4612
-53.4454
-53.461
-53.4861
-40.6662
-40.6474
-40.6353
-40.6472
-40.6665
-41.1205
-41.1019
-41.0899
-41.1017
-41.1208
-41.5492
-41.5307
-41.5188
-41.5306
-41.5494
-41.9512
-41.9329
-41.9211
-41.9328
-41.9515
-42.3257
-42.3076
-42.2959
-42.3075
-42.326
-42.6718
-42.6539
-42.6424
-42.6538
-42.6721
-42.9887
-42.971
-42.9596
-42.9709
-42.989
-43.2755
-43.258
-43.2468
-43.2579
-43.2758
-43.5314
-43.5142
-43.5031
-43.5141
-43.5317
-43.7557
-43.7387
-43.7277
-43.7386
-43.7559
-43.9476
-43.9309
-43.9201
-43.9307
-43.9478
-44.1064
-44.0899
-44.0793
-44.0898
-44.1066
-44.2315
-44.2153
-44.2049
-44.2152
-44.2317
-44.3222
-44.3063
-44.2961
-44.3062
-44.3225
-44.3781
-44.3625
-44.3524
-44.3624
-44.3783
-44.3985
-44.3832
-44.3734
-44.3831
-44.3987
-44.3831
-44.3681
-44.3585
-44.368
-44.3833
-44.3314
-44.3168
-44.3073
-44.3167
-44.3316
-44.2432
-44.2289
-44.2197
-44.2288
-44.2434
-44.1181
-44.1042
-44.0952
-44.1041
-44.1183
-43.9561
-43.9425
-43.9338
-43.9424
-43.9563
-43.7569
-43.7437
-43.7352
-43.7436
-43.7571
-43.5206
-43.5078
-43.4995
-43.5077
-43.5208
-43.2472
-43.2348
-43.2267
-43.2347
-43.2473
-42.9368
-42.9248
-42.917
-42.9247
-42.937
-42.5897
-42.578
-42.5705
-42.5779
-42.5898
-42.2061
-42.1948
-42.1876
-42.1948
-42.2062
-41.7864
-41.7756
-41.7686
-41.7755
-41.7866
-41.3312
-41.3208
-41.3141
-41.3207
-41.3313
-40.841
-40.831
-40.8246
-40.831
-40.8411
-40.3165
-40.3069
-40.3007
-40.3069
-40.3166
-39.7584
-39.7493
-39.7434
-39.7492
-39.7585
-39.1676
-39.1589
-39.1533
-39.1589
-39.1678
-38.5451
-38.5369
-38.5315
-38.5368
-38.5452
-37.8919
-37.8841
-37.879
-37.884
-37.892
-37.2091
-37.2017
-37.1969
-37.2017
-37.2092
-36.498
-36.491
-36.4865
-36.491
-36.4981
-35.7599
-35.7533
-35.749
-35.7532
-35.7599
-34.9961
-34.9899
-34.9859
-34.9898
-34.9961
-34.2081
-34.2023
-34.1985
-34.2023
-34.2081
-33.3974
-33.3921
-33.3886
-33.392
-33.3975
-32.5658
-32.5608
-32.5576
-32.5608
-32.5658
-31.7148
-31.7102
-31.7072
-31.7102
-31.7148
-30.8461
-30.8419
-30.8392
-30.8419
-30.8462
-29.9617
-29.9578
-29.9553
-29.9578
-29.9617
-29.0632
-29.0597
-29.0574
-29.0597
-29.0632
-28.1525
-28.1494
-28.1473
-28.1494
-28.1525
-27.2316
-27.2288
-27.2269
-27.2288
-27.2316
-26.3023
-26.2998
-26.2982
-26.2998
-26.3023
-25.3665
-25.3643
-25.3629
-25.3643
-25.3665
-24.4261
-24.4243
-24.423
-24.4243
-24.4261
-23.4832
-23.4816
-23.4805
-23.4815
-23.4831
-22.5394
-22.5381
-22.5372
-22.538
-22.5394
-21.5966
-21.5956
-21.5948
-21.5956
-21.5966
-20.6568
-20.656
-20.6554
-20.6559
-20.6568
-19.7215
-19.7209
-19.7205
-19.7209
-19.7215
-18.7926
-18.7922
-18.7919
-18.7922
-18.7926
-17.8716
-17.8714
-17.8712
-17.8713
-17.8716
-16.96
-16.9599
-16.9599
-16.9599
-16.96
-16.0593
-16.0594
-16.0594
-16.0594
-16.0593
-15.1709
-15.1711
-15.1712
-15.1711
-15.1708
-14.2958
-14.2962
-14.2963
-14.2962
-14.2958
-13.4354
-13.4358
-13.4361
-13.4358
-13.4354
-12.5905
-12.591
-12.5913
-12.591
-12.5904
-11.7619
-11.7625
-11.7628
-11.7625
-11.7619
-10.9505
-10.9511
-10.9515
-10.9511
-10.9504
-10.1567
-10.1573
-10.1577
-10.1573
-10.1566
-9.38092
-9.38162
-9.38204
-9.38161
-9.38089
-8.62349
-8.6242
-8.62464
-8.62419
-8.62346
-7.88448
-7.88519
-7.88563
-7.88518
-7.88445
-7.16383
-7.16454
-7.16496
-7.16453
-7.16381
-6.46134
-6.46202
-6.46244
-6.46202
-6.46132
-5.77665
-5.77729
-5.77769
-5.77729
-5.77663
-5.10922
-5.10982
-5.11019
-5.10982
-5.10921
-4.4584
-4.45895
-4.45929
-4.45895
-4.45839
-3.82338
-3.82387
-3.82417
-3.82387
-3.82337
-3.2032
-3.20363
-3.20389
-3.20362
-3.20319
-2.59679
-2.59715
-2.59737
-2.59714
-2.59678
-2.00296
-2.00324
-2.00341
-2.00323
-2.00295
-1.42038
-1.42059
-1.42071
-1.42059
-1.42038
-0.847675
-0.847798
-0.847873
-0.847796
-0.847672
-0.283343
-0.283384
-0.283409
-0.283384
-0.283342
)
;

boundaryField
{
    BotWall
    {
        type            zeroGradient;
    }
    FreeStream
    {
        type            zeroGradient;
    }
    FrontNBack
    {
        type            empty;
    }
    LeftSide
    {
        type            symmetryPlane;
    }
    RightSide
    {
        type            symmetryPlane;
    }
}


// ************************************************************************* //
