/*--------------------------------*- C++ -*----------------------------------*\
| =========                 |                                                 |
| \\      /  F ield         | OpenFOAM: The Open Source CFD Toolbox           |
|  \\    /   O peration     | Version:  2.4.0                                 |
|   \\  /    A nd           | Web:      www.OpenFOAM.org                      |
|    \\/     M anipulation  |                                                 |
\*---------------------------------------------------------------------------*/
FoamFile
{
    version     2.0;
    format      ascii;
    class       volScalarField;
    location    "2.3";
    object      p;
}
// * * * * * * * * * * * * * * * * * * * * * * * * * * * * * * * * * * * * * //

dimensions      [1 -1 -2 0 0 0 0];

internalField   nonuniform List<scalar> 
500
(
0.535155
0.535184
0.535209
0.535183
0.535156
0.505406
0.505438
0.505465
0.505436
0.505406
0.475243
0.475273
0.475298
0.475272
0.475242
0.4448
0.444831
0.444857
0.444829
0.444799
0.413943
0.413975
0.414001
0.413973
0.413942
0.382812
0.382845
0.382872
0.382844
0.382811
0.35131
0.351344
0.351371
0.351342
0.351309
0.319662
0.319697
0.319724
0.319695
0.319661
0.287554
0.287589
0.287617
0.287587
0.287553
0.253966
0.254001
0.25403
0.254
0.253966
0.21663
0.216663
0.21669
0.216661
0.216629
0.179753
0.179787
0.179814
0.179785
0.179752
0.173029
0.173085
0.173118
0.173084
0.173028
0.248969
0.249083
0.249142
0.249081
0.248968
0.304932
0.305067
0.305166
0.305067
0.30493
-0.428533
-0.428702
-0.428731
-0.428704
-0.428533
-3.18345
-3.18459
-3.18528
-3.18459
-3.18343
-5.88779
-5.89022
-5.89182
-5.89024
-5.88775
-0.0161487
-0.0161484
-0.0161482
-0.0161483
-0.0161487
-0.00864003
-0.00864033
-0.00864042
-0.00864033
-0.00864003
-0.0105945
-0.0105944
-0.0105944
-0.0105944
-0.0105945
-0.0118615
-0.0118615
-0.0118615
-0.0118615
-0.0118615
-0.012564
-0.012564
-0.012564
-0.012564
-0.012564
-0.0131459
-0.013146
-0.0131459
-0.013146
-0.0131459
-0.0137586
-0.0137586
-0.0137585
-0.0137586
-0.0137586
-0.0144001
-0.0144001
-0.0144001
-0.0144001
-0.0144001
-0.0150535
-0.0150535
-0.0150535
-0.0150535
-0.0150535
-0.0157133
-0.0157133
-0.0157133
-0.0157133
-0.0157133
-0.0163795
-0.0163795
-0.0163795
-0.0163795
-0.0163795
-0.017053
-0.017053
-0.017053
-0.017053
-0.017053
-0.0177341
-0.0177341
-0.0177341
-0.0177341
-0.0177341
-0.0184228
-0.0184228
-0.0184228
-0.0184228
-0.0184228
-0.0191192
-0.0191192
-0.0191192
-0.0191192
-0.0191192
-0.0198233
-0.0198233
-0.0198233
-0.0198233
-0.0198233
-0.0205353
-0.0205353
-0.0205353
-0.0205353
-0.0205353
-0.0212553
-0.0212553
-0.0212553
-0.0212553
-0.0212553
-0.0219833
-0.0219832
-0.0219832
-0.0219832
-0.0219833
-0.0227194
-0.0227194
-0.0227194
-0.0227194
-0.0227194
-0.0234637
-0.0234637
-0.0234637
-0.0234637
-0.0234637
-0.0242163
-0.0242163
-0.0242163
-0.0242163
-0.0242163
-0.0249773
-0.0249773
-0.0249773
-0.0249773
-0.0249773
-0.0257468
-0.0257468
-0.0257468
-0.0257468
-0.0257468
-0.026525
-0.026525
-0.026525
-0.026525
-0.026525
-0.0273117
-0.0273117
-0.0273117
-0.0273117
-0.0273117
-0.0281073
-0.0281073
-0.0281073
-0.0281073
-0.0281073
-0.0289118
-0.0289118
-0.0289118
-0.0289118
-0.0289118
-0.0297252
-0.0297252
-0.0297252
-0.0297252
-0.0297252
-0.0305477
-0.0305477
-0.0305477
-0.0305477
-0.0305477
-0.0313794
-0.0313793
-0.0313793
-0.0313793
-0.0313794
-0.0322203
-0.0322203
-0.0322203
-0.0322203
-0.0322203
-0.0330706
-0.0330706
-0.0330706
-0.0330706
-0.0330706
-0.0339305
-0.0339305
-0.0339305
-0.0339305
-0.0339305
-0.0347999
-0.0347999
-0.0347999
-0.0347999
-0.0347999
-0.035679
-0.035679
-0.035679
-0.035679
-0.035679
-0.036568
-0.036568
-0.036568
-0.036568
-0.036568
-0.0374668
-0.0374668
-0.0374668
-0.0374668
-0.0374668
-0.0383757
-0.0383757
-0.0383757
-0.0383757
-0.0383757
-0.0392947
-0.0392947
-0.0392947
-0.0392947
-0.0392947
-0.040224
-0.040224
-0.040224
-0.040224
-0.040224
-0.0411637
-0.0411637
-0.0411637
-0.0411637
-0.0411637
-0.0421138
-0.0421138
-0.0421138
-0.0421138
-0.0421138
-0.0430746
-0.0430746
-0.0430746
-0.0430746
-0.0430746
-0.044046
-0.044046
-0.044046
-0.044046
-0.044046
-0.0450283
-0.0450283
-0.0450283
-0.0450283
-0.0450283
-0.0460216
-0.0460216
-0.0460216
-0.0460216
-0.0460216
-0.0470259
-0.0470259
-0.0470259
-0.0470259
-0.0470259
-0.0480415
-0.0480415
-0.0480415
-0.0480415
-0.0480415
-0.0490684
-0.0490684
-0.0490684
-0.0490684
-0.0490684
-0.0501067
-0.0501067
-0.0501067
-0.0501067
-0.0501067
-0.0511567
-0.0511567
-0.0511567
-0.0511567
-0.0511567
-0.0522183
-0.0522183
-0.0522183
-0.0522183
-0.0522183
-0.0532918
-0.0532918
-0.0532918
-0.0532918
-0.0532918
-0.0543773
-0.0543773
-0.0543773
-0.0543773
-0.0543773
-0.0554749
-0.0554749
-0.0554749
-0.0554749
-0.0554749
-0.0565847
-0.0565847
-0.0565847
-0.0565847
-0.0565847
-0.0577069
-0.0577069
-0.0577069
-0.0577069
-0.0577069
-0.0588417
-0.0588417
-0.0588417
-0.0588417
-0.0588417
-0.0599891
-0.0599891
-0.0599891
-0.0599891
-0.0599891
-0.0611493
-0.0611493
-0.0611493
-0.0611493
-0.0611493
-0.0623225
-0.0623225
-0.0623225
-0.0623225
-0.0623225
-0.0635087
-0.0635087
-0.0635087
-0.0635087
-0.0635087
-0.0647082
-0.0647082
-0.0647082
-0.0647082
-0.0647082
-0.0659211
-0.0659211
-0.0659211
-0.0659211
-0.0659211
-0.0671475
-0.0671475
-0.0671475
-0.0671475
-0.0671475
-0.0683876
-0.0683876
-0.0683875
-0.0683876
-0.0683876
-0.0696415
-0.0696415
-0.0696415
-0.0696415
-0.0696415
-0.0709094
-0.0709094
-0.0709094
-0.0709094
-0.0709094
-0.0721915
-0.0721915
-0.0721915
-0.0721915
-0.0721915
-0.0734878
-0.0734878
-0.0734878
-0.0734878
-0.0734878
-0.0747987
-0.0747987
-0.0747987
-0.0747987
-0.0747987
-0.0761242
-0.0761242
-0.0761242
-0.0761242
-0.0761242
-0.0774644
-0.0774644
-0.0774644
-0.0774644
-0.0774644
-0.0788196
-0.0788196
-0.0788196
-0.0788196
-0.0788196
-0.08019
-0.08019
-0.08019
-0.08019
-0.08019
-0.0815756
-0.0815756
-0.0815756
-0.0815756
-0.0815756
-0.0829767
-0.0829767
-0.0829767
-0.0829767
-0.0829767
-0.0843934
-0.0843934
-0.0843934
-0.0843934
-0.0843934
-0.085826
-0.085826
-0.085826
-0.085826
-0.085826
-0.0872745
-0.0872745
-0.0872745
-0.0872745
-0.0872745
-0.0887392
-0.0887392
-0.0887392
-0.0887392
-0.0887392
)
;

boundaryField
{
    BotWall
    {
        type            calculated;
        value           nonuniform List<scalar> 5(0.549976 0.550004 0.550029 0.550003 0.549976);
    }
    FreeStream
    {
        type            calculated;
        value           nonuniform List<scalar> 5(-0.0894756 -0.0894756 -0.0894756 -0.0894756 -0.0894756);
    }
    FrontNBack
    {
        type            empty;
    }
    LeftSide
    {
        type            symmetryPlane;
    }
    RightSide
    {
        type            symmetryPlane;
    }
}


// ************************************************************************* //
