/*--------------------------------*- C++ -*----------------------------------*\
| =========                 |                                                 |
| \\      /  F ield         | OpenFOAM: The Open Source CFD Toolbox           |
|  \\    /   O peration     | Version:  2.4.0                                 |
|   \\  /    A nd           | Web:      www.OpenFOAM.org                      |
|    \\/     M anipulation  |                                                 |
\*---------------------------------------------------------------------------*/
FoamFile
{
    version     2.0;
    format      ascii;
    class       volScalarField;
    location    "2.3";
    object      p_rgh;
}
// * * * * * * * * * * * * * * * * * * * * * * * * * * * * * * * * * * * * * //

dimensions      [1 -1 -2 0 0 0 0];

internalField   nonuniform List<scalar> 
500
(
0.549976
0.550004
0.550029
0.550003
0.549976
0.550032
0.550064
0.550091
0.550063
0.550032
0.550008
0.550038
0.550063
0.550036
0.550007
0.550039
0.550071
0.550097
0.550069
0.550039
0.549997
0.550029
0.550055
0.550027
0.549997
0.550026
0.550059
0.550086
0.550057
0.550025
0.55003
0.550064
0.550091
0.550062
0.55003
0.55024
0.550275
0.550302
0.550273
0.550239
0.550345
0.55038
0.550408
0.550379
0.550345
0.549331
0.549366
0.549395
0.549365
0.549331
0.544932
0.544964
0.544992
0.544962
0.544931
0.541359
0.541393
0.54142
0.541391
0.541358
0.56831
0.568367
0.568399
0.568365
0.56831
0.678302
0.678415
0.678475
0.678414
0.678301
0.768697
0.768832
0.768931
0.768831
0.768694
0.0700472
0.0698784
0.0698486
0.0698764
0.0700469
-2.64966
-2.6508
-2.6515
-2.65081
-2.64965
-5.75481
-5.75718
-5.75874
-5.7572
-5.75477
-0.00612137
-0.00612106
-0.00612094
-0.00612106
-0.00612138
0.00199011
0.00198981
0.00198972
0.00198981
0.00199012
0.000645253
0.000645295
0.000645286
0.000645295
0.000645253
-5.43432e-06
-5.3803e-06
-5.37248e-06
-5.38021e-06
-5.43453e-06
-8.46284e-05
-8.4622e-05
-8.46172e-05
-8.46219e-05
-8.46285e-05
-3.63623e-05
-3.63683e-05
-3.63662e-05
-3.63682e-05
-3.63623e-05
-1.17201e-05
-1.17206e-05
-1.17192e-05
-1.17206e-05
-1.17202e-05
-8.90426e-06
-8.90071e-06
-8.89916e-06
-8.9007e-06
-8.90432e-06
-1.07953e-05
-1.07913e-05
-1.07897e-05
-1.07913e-05
-1.07954e-05
-1.17396e-05
-1.17361e-05
-1.17346e-05
-1.17361e-05
-1.17396e-05
-1.18164e-05
-1.18133e-05
-1.18118e-05
-1.18133e-05
-1.18165e-05
-1.17086e-05
-1.17056e-05
-1.17041e-05
-1.17056e-05
-1.17087e-05
-1.16389e-05
-1.16359e-05
-1.16344e-05
-1.16359e-05
-1.16389e-05
-1.16033e-05
-1.16004e-05
-1.15989e-05
-1.16003e-05
-1.16033e-05
-1.15746e-05
-1.15717e-05
-1.15703e-05
-1.15717e-05
-1.15746e-05
-1.1544e-05
-1.15411e-05
-1.15398e-05
-1.15411e-05
-1.1544e-05
-1.15116e-05
-1.15088e-05
-1.15075e-05
-1.15088e-05
-1.15116e-05
-1.14786e-05
-1.14759e-05
-1.14746e-05
-1.14759e-05
-1.14786e-05
-1.14453e-05
-1.14426e-05
-1.14414e-05
-1.14426e-05
-1.14453e-05
-1.14117e-05
-1.14091e-05
-1.14078e-05
-1.14091e-05
-1.14117e-05
-1.13777e-05
-1.13751e-05
-1.13739e-05
-1.13751e-05
-1.13777e-05
-1.13433e-05
-1.13408e-05
-1.13397e-05
-1.13408e-05
-1.13433e-05
-1.13085e-05
-1.13061e-05
-1.1305e-05
-1.13061e-05
-1.13086e-05
-1.12734e-05
-1.1271e-05
-1.12699e-05
-1.1271e-05
-1.12734e-05
-1.12379e-05
-1.12356e-05
-1.12345e-05
-1.12356e-05
-1.12379e-05
-1.12019e-05
-1.11997e-05
-1.11986e-05
-1.11997e-05
-1.1202e-05
-1.11656e-05
-1.11634e-05
-1.11624e-05
-1.11634e-05
-1.11656e-05
-1.11289e-05
-1.11267e-05
-1.11257e-05
-1.11267e-05
-1.11289e-05
-1.10917e-05
-1.10896e-05
-1.10886e-05
-1.10896e-05
-1.10917e-05
-1.10541e-05
-1.10521e-05
-1.10512e-05
-1.10521e-05
-1.10542e-05
-1.10162e-05
-1.10142e-05
-1.10133e-05
-1.10142e-05
-1.10162e-05
-1.09777e-05
-1.09758e-05
-1.09749e-05
-1.09758e-05
-1.09778e-05
-1.09389e-05
-1.0937e-05
-1.09362e-05
-1.0937e-05
-1.09389e-05
-1.08996e-05
-1.08978e-05
-1.0897e-05
-1.08978e-05
-1.08997e-05
-1.08599e-05
-1.08582e-05
-1.08573e-05
-1.08582e-05
-1.086e-05
-1.08198e-05
-1.08181e-05
-1.08173e-05
-1.08181e-05
-1.08198e-05
-1.07792e-05
-1.07775e-05
-1.07767e-05
-1.07775e-05
-1.07792e-05
-1.07381e-05
-1.07365e-05
-1.07358e-05
-1.07365e-05
-1.07382e-05
-1.06966e-05
-1.0695e-05
-1.06943e-05
-1.0695e-05
-1.06967e-05
-1.06547e-05
-1.06531e-05
-1.06524e-05
-1.06531e-05
-1.06547e-05
-1.06122e-05
-1.06107e-05
-1.061e-05
-1.06107e-05
-1.06122e-05
-1.05693e-05
-1.05679e-05
-1.05672e-05
-1.05679e-05
-1.05693e-05
-1.05259e-05
-1.05245e-05
-1.05239e-05
-1.05245e-05
-1.05259e-05
-1.04821e-05
-1.04807e-05
-1.04801e-05
-1.04807e-05
-1.04821e-05
-1.04377e-05
-1.04364e-05
-1.04358e-05
-1.04364e-05
-1.04377e-05
-1.03928e-05
-1.03916e-05
-1.0391e-05
-1.03915e-05
-1.03928e-05
-1.03475e-05
-1.03462e-05
-1.03457e-05
-1.03462e-05
-1.03475e-05
-1.03016e-05
-1.03004e-05
-1.02999e-05
-1.03004e-05
-1.03016e-05
-1.02553e-05
-1.02541e-05
-1.02536e-05
-1.02541e-05
-1.02553e-05
-1.02084e-05
-1.02072e-05
-1.02067e-05
-1.02072e-05
-1.02084e-05
-1.0161e-05
-1.01599e-05
-1.01594e-05
-1.01598e-05
-1.0161e-05
-1.0113e-05
-1.0112e-05
-1.01115e-05
-1.01119e-05
-1.0113e-05
-1.00645e-05
-1.00635e-05
-1.00631e-05
-1.00635e-05
-1.00645e-05
-1.00155e-05
-1.00145e-05
-1.00141e-05
-1.00145e-05
-1.00155e-05
-9.96596e-06
-9.96501e-06
-9.96458e-06
-9.965e-06
-9.96596e-06
-9.91585e-06
-9.91493e-06
-9.91452e-06
-9.91492e-06
-9.91584e-06
-9.86518e-06
-9.86429e-06
-9.86389e-06
-9.86428e-06
-9.86517e-06
-9.81394e-06
-9.81309e-06
-9.81271e-06
-9.81308e-06
-9.81393e-06
-9.76213e-06
-9.76132e-06
-9.76095e-06
-9.7613e-06
-9.76212e-06
-9.70975e-06
-9.70896e-06
-9.70861e-06
-9.70895e-06
-9.70974e-06
-9.65678e-06
-9.65603e-06
-9.65568e-06
-9.65602e-06
-9.65677e-06
-9.60322e-06
-9.6025e-06
-9.60217e-06
-9.60249e-06
-9.60321e-06
-9.54906e-06
-9.54838e-06
-9.54806e-06
-9.54836e-06
-9.54905e-06
-9.4943e-06
-9.49365e-06
-9.49334e-06
-9.49364e-06
-9.49429e-06
-9.43893e-06
-9.43831e-06
-9.43801e-06
-9.4383e-06
-9.43893e-06
-9.38295e-06
-9.38235e-06
-9.38207e-06
-9.38234e-06
-9.38294e-06
-9.32634e-06
-9.32577e-06
-9.3255e-06
-9.32576e-06
-9.32633e-06
-9.2691e-06
-9.26856e-06
-9.2683e-06
-9.26855e-06
-9.26909e-06
-9.21122e-06
-9.21071e-06
-9.21046e-06
-9.2107e-06
-9.21121e-06
-9.1527e-06
-9.15222e-06
-9.15198e-06
-9.15221e-06
-9.15269e-06
-9.09352e-06
-9.09307e-06
-9.09285e-06
-9.09307e-06
-9.09351e-06
-9.03369e-06
-9.03327e-06
-9.03305e-06
-9.03326e-06
-9.03368e-06
-8.97319e-06
-8.9728e-06
-8.97259e-06
-8.97279e-06
-8.97318e-06
-8.91201e-06
-8.91165e-06
-8.91145e-06
-8.91164e-06
-8.91201e-06
-8.85016e-06
-8.84982e-06
-8.84963e-06
-8.84981e-06
-8.85015e-06
-8.78761e-06
-8.7873e-06
-8.78713e-06
-8.7873e-06
-8.78761e-06
-8.72437e-06
-8.72409e-06
-8.72392e-06
-8.72408e-06
-8.72436e-06
-8.66043e-06
-8.66017e-06
-8.66002e-06
-8.66017e-06
-8.66042e-06
-8.59577e-06
-8.59554e-06
-8.59539e-06
-8.59554e-06
-8.59577e-06
-8.5304e-06
-8.53018e-06
-8.53004e-06
-8.53018e-06
-8.53039e-06
-8.46428e-06
-8.4641e-06
-8.46396e-06
-8.46409e-06
-8.46428e-06
-8.3973e-06
-8.39726e-06
-8.39721e-06
-8.39726e-06
-8.39729e-06
)
;

boundaryField
{
    BotWall
    {
        type            fixedFluxPressure;
        gradient        uniform 0;
        value           nonuniform List<scalar> 5(0.549976 0.550004 0.550029 0.550003 0.549976);
    }
    FreeStream
    {
        type            totalPressure;
        rho             rho;
        psi             none;
        gamma           1;
        p0              uniform 0;
        value           nonuniform List<scalar> 5(-8.36355e-06 -8.36366e-06 -8.3637e-06 -8.36365e-06 -8.36354e-06);
    }
    FrontNBack
    {
        type            empty;
    }
    LeftSide
    {
        type            symmetryPlane;
    }
    RightSide
    {
        type            symmetryPlane;
    }
}


// ************************************************************************* //
