/*--------------------------------*- C++ -*----------------------------------*\
| =========                 |                                                 |
| \\      /  F ield         | OpenFOAM: The Open Source CFD Toolbox           |
|  \\    /   O peration     | Version:  2.4.0                                 |
|   \\  /    A nd           | Web:      www.OpenFOAM.org                      |
|    \\/     M anipulation  |                                                 |
\*---------------------------------------------------------------------------*/
FoamFile
{
    version     2.0;
    format      ascii;
    class       surfaceScalarField;
    location    "2.3";
    object      phi;
}
// * * * * * * * * * * * * * * * * * * * * * * * * * * * * * * * * * * * * * //

dimensions      [0 3 -1 0 0 0 0];

internalField   nonuniform List<scalar> 
895
(
1.87014e-18
-1.87025e-18
1.16518e-18
7.04729e-19
-1.15242e-18
2.31761e-18
-1.89944e-18
7.46836e-19
-1.89951e-18
5.72365e-18
-7.59465e-18
3.57208e-18
2.85503e-18
-3.53434e-18
9.42225e-18
-5.81144e-18
3.02254e-18
-7.71197e-18
9.75059e-18
-1.73461e-17
6.08643e-18
6.51777e-18
-6.02524e-18
2.1532e-17
-9.89861e-18
6.89443e-18
-1.76116e-17
1.39351e-17
-3.12822e-17
8.69973e-18
1.17517e-17
-8.61642e-18
3.88461e-17
-1.41469e-17
1.24233e-17
-3.17596e-17
1.8313e-17
-4.95963e-17
1.14318e-17
1.86313e-17
-1.13273e-17
6.16031e-17
-1.85902e-17
1.96847e-17
-5.03508e-17
2.28567e-17
-7.24541e-17
1.42695e-17
2.72169e-17
-1.41447e-17
9.00153e-17
-2.32008e-17
2.87393e-17
-7.35526e-17
2.76189e-17
-1.00074e-16
1.72397e-17
3.75946e-17
-1.70955e-17
1.24348e-16
-2.80321e-17
3.96743e-17
-1.01586e-16
3.25587e-17
-1.32634e-16
2.0324e-17
4.98278e-17
-2.01614e-17
1.64832e-16
-3.30432e-17
5.25546e-17
-1.3463e-16
3.77408e-17
-1.70376e-16
2.35547e-17
6.40125e-17
-2.33747e-17
2.11759e-16
-3.82989e-17
6.74775e-17
-1.7293e-16
4.31182e-17
-2.13495e-16
2.69098e-17
8.02195e-17
-2.67136e-17
2.65381e-16
-4.37527e-17
8.45153e-17
-2.16683e-16
4.87615e-17
-2.62257e-16
3.04257e-17
9.8554e-17
-3.02145e-17
3.2602e-16
-4.9475e-17
1.03775e-16
-2.66159e-16
5.46158e-17
-3.16874e-16
3.40788e-17
1.1909e-16
-3.3854e-17
3.93951e-16
-5.54112e-17
1.25331e-16
-3.21571e-16
6.07487e-17
-3.77623e-16
3.79057e-17
1.41932e-16
-3.76687e-17
4.69524e-16
-6.16288e-17
1.4929e-16
-3.832e-16
6.71184e-17
-4.44742e-16
4.18819e-17
1.67168e-16
-4.16346e-17
5.5304e-16
-6.80858e-17
1.75741e-16
-4.51286e-16
7.38767e-17
-5.18619e-16
4.61033e-17
1.94941e-16
-4.58476e-17
6.4499e-16
-7.49341e-17
2.04827e-16
-5.2622e-16
8.11431e-17
-5.99763e-16
5.04401e-17
2.25643e-16
-5.01732e-17
7.45603e-16
-8.22986e-17
2.36952e-16
-6.08519e-16
8.90647e-17
-2.95121e-15
5.55114e-17
2.59197e-16
-5.523e-17
8.56344e-16
-9.03425e-17
2.72065e-16
-2.99422e-15
1.00201e-16
-2.70859e-10
6.27387e-17
-2.70862e-10
-6.23998e-17
-2.70863e-10
-1.01704e-16
-2.70862e-10
-2.70859e-10
1.01093e-16
-2.70859e-10
6.30363e-17
-2.70862e-10
-6.27582e-17
-2.70863e-10
-1.02531e-16
-2.70862e-10
-2.70859e-10
1.03591e-16
-2.70859e-10
6.21803e-17
-2.70862e-10
-6.18414e-17
-2.70863e-10
-1.05009e-16
-2.70862e-10
-2.70859e-10
9.13131e-17
-2.70859e-10
5.79856e-17
-2.70861e-10
-5.76349e-17
-2.70863e-10
-9.25773e-17
-2.70861e-10
-2.70859e-10
8.43961e-17
-2.70859e-10
5.36297e-17
-2.70861e-10
-5.32494e-17
-2.70863e-10
-8.55383e-17
-2.70861e-10
-2.70859e-10
7.90905e-17
-2.70859e-10
4.97564e-17
-2.70861e-10
-4.93402e-17
-2.70863e-10
-8.01253e-17
-2.70861e-10
-2.70859e-10
7.34143e-17
-2.70859e-10
4.6171e-17
-2.70861e-10
-4.57186e-17
-2.70863e-10
-7.43442e-17
-2.70861e-10
-2.70859e-10
6.7399e-17
-2.7086e-10
4.26252e-17
-2.70861e-10
-4.2137e-17
-2.70862e-10
-6.82244e-17
-2.70861e-10
-2.7086e-10
6.14366e-17
-2.7086e-10
3.90794e-17
-2.70861e-10
-3.85557e-17
-2.70862e-10
-6.21584e-17
-2.70861e-10
-2.7086e-10
5.56425e-17
-2.7086e-10
3.55745e-17
-2.70861e-10
-3.50152e-17
-2.70862e-10
-5.62625e-17
-2.70861e-10
-2.7086e-10
4.99928e-17
-2.7086e-10
3.2139e-17
-2.70861e-10
-3.15441e-17
-2.70862e-10
-5.05129e-17
-2.70861e-10
-2.7086e-10
4.44665e-17
-2.7086e-10
2.87813e-17
-2.70861e-10
-2.8151e-17
-2.70862e-10
-4.48887e-17
-2.70861e-10
-2.7086e-10
3.9067e-17
-2.7086e-10
2.55037e-17
-2.70861e-10
-2.48382e-17
-2.70862e-10
-3.93935e-17
-2.70861e-10
-2.7086e-10
3.38057e-17
-2.7086e-10
2.231e-17
-2.70861e-10
-2.16098e-17
-2.70862e-10
-3.40388e-17
-2.70861e-10
-2.7086e-10
2.86931e-17
-2.7086e-10
1.92054e-17
-2.70861e-10
-1.84708e-17
-2.70862e-10
-2.88352e-17
-2.70861e-10
-2.7086e-10
2.37376e-17
-2.7086e-10
1.61952e-17
-2.70861e-10
-1.54267e-17
-2.70862e-10
-2.37914e-17
-2.70861e-10
-2.7086e-10
1.8947e-17
-2.7086e-10
1.32844e-17
-2.70861e-10
-1.24828e-17
-2.70862e-10
-1.89151e-17
-2.70861e-10
-2.7086e-10
1.43292e-17
-2.7086e-10
1.0478e-17
-2.70861e-10
-9.6439e-18
-2.70862e-10
-1.42144e-17
-2.70861e-10
-2.7086e-10
9.89141e-18
-2.7086e-10
7.78072e-18
-2.70861e-10
-6.91492e-18
-2.70862e-10
-9.69666e-18
-2.70861e-10
-2.7086e-10
5.64096e-18
-2.7086e-10
5.19697e-18
-2.70861e-10
-4.30038e-18
-2.70862e-10
-5.36932e-18
-2.70861e-10
-2.7086e-10
1.58464e-18
-2.7086e-10
2.73104e-18
-2.70861e-10
-1.80463e-18
-2.70862e-10
-1.23928e-18
-2.70861e-10
-2.7086e-10
-2.27113e-18
-2.7086e-10
3.86952e-19
-2.70861e-10
5.68215e-19
-2.70862e-10
2.68696e-18
-2.70861e-10
-2.7086e-10
-5.92038e-18
-2.7086e-10
-1.83155e-18
-2.70861e-10
2.81434e-18
-2.70862e-10
6.40332e-18
-2.70861e-10
-2.7086e-10
-9.35763e-18
-2.7086e-10
-3.92101e-18
-2.70861e-10
4.93022e-18
-2.70862e-10
9.90422e-18
-2.70861e-10
-2.7086e-10
-1.25779e-17
-2.7086e-10
-5.87832e-18
-2.70861e-10
6.91267e-18
-2.70862e-10
1.31846e-17
-2.70861e-10
-2.7086e-10
-1.55767e-17
-2.7086e-10
-7.7007e-18
-2.70861e-10
8.75883e-18
-2.70862e-10
1.624e-17
-2.70861e-10
-2.7086e-10
-1.83503e-17
-2.7086e-10
-9.38574e-18
-2.70861e-10
1.04662e-17
-2.70862e-10
1.90664e-17
-2.70861e-10
-2.7086e-10
-2.08955e-17
-2.7086e-10
-1.09314e-17
-2.70861e-10
1.20328e-17
-2.70862e-10
2.16606e-17
-2.70861e-10
-2.7086e-10
-2.32095e-17
-2.7086e-10
-1.23361e-17
-2.70861e-10
1.34569e-17
-2.70862e-10
2.40201e-17
-2.70861e-10
-2.7086e-10
-2.52907e-17
-2.7086e-10
-1.35986e-17
-2.70861e-10
1.47372e-17
-2.70862e-10
2.61428e-17
-2.70861e-10
-2.7086e-10
-2.71378e-17
-2.7086e-10
-1.47183e-17
-2.70861e-10
1.5873e-17
-2.70862e-10
2.80276e-17
-2.70861e-10
-2.7086e-10
-2.87503e-17
-2.7086e-10
-1.56947e-17
-2.70861e-10
1.6864e-17
-2.70862e-10
2.9674e-17
-2.70861e-10
-2.7086e-10
-3.01286e-17
-2.7086e-10
-1.65282e-17
-2.70861e-10
1.77103e-17
-2.70862e-10
3.10823e-17
-2.70861e-10
-2.7086e-10
-3.12737e-17
-2.7086e-10
-1.72193e-17
-2.70861e-10
1.84126e-17
-2.70862e-10
3.22536e-17
-2.70861e-10
-2.7086e-10
-3.21874e-17
-2.7086e-10
-1.77692e-17
-2.70861e-10
1.8972e-17
-2.70862e-10
3.31897e-17
-2.70861e-10
-2.7086e-10
-3.28725e-17
-2.7086e-10
-1.81797e-17
-2.70861e-10
1.93901e-17
-2.70862e-10
3.38934e-17
-2.70861e-10
-2.7086e-10
-3.33322e-17
-2.7086e-10
-1.84527e-17
-2.70861e-10
1.96691e-17
-2.70862e-10
3.4368e-17
-2.70861e-10
-2.7086e-10
-3.35709e-17
-2.7086e-10
-1.8591e-17
-2.70861e-10
1.98115e-17
-2.70862e-10
3.46179e-17
-2.70861e-10
-2.7086e-10
-3.35934e-17
-2.7086e-10
-1.85976e-17
-2.70861e-10
1.98206e-17
-2.70862e-10
3.4648e-17
-2.70861e-10
-2.70859e-10
-3.34055e-17
-2.7086e-10
-1.84762e-17
-2.70861e-10
1.97e-17
-2.70862e-10
3.44641e-17
-2.70861e-10
-2.70859e-10
-3.30136e-17
-2.70859e-10
-1.82307e-17
-2.70861e-10
1.94535e-17
-2.70862e-10
3.40728e-17
-2.70861e-10
-2.70859e-10
-3.24249e-17
-2.70859e-10
-1.78657e-17
-2.70861e-10
1.90859e-17
-2.70863e-10
3.34814e-17
-2.70861e-10
-2.70859e-10
-3.16471e-17
-2.70859e-10
-1.7386e-17
-2.70861e-10
1.8602e-17
-2.70863e-10
3.26976e-17
-2.70861e-10
-2.70859e-10
-3.06888e-17
-2.70859e-10
-1.6797e-17
-2.70862e-10
1.80071e-17
-2.70863e-10
3.17303e-17
-2.70861e-10
-2.70859e-10
-2.95589e-17
-2.70859e-10
-1.61042e-17
-2.70862e-10
1.7307e-17
-2.70863e-10
3.05883e-17
-2.70862e-10
-2.70859e-10
-2.8267e-17
-2.70859e-10
-1.53137e-17
-2.70862e-10
1.65077e-17
-2.70863e-10
2.92816e-17
-2.70862e-10
-2.70859e-10
-2.68232e-17
-2.70859e-10
-1.44318e-17
-2.70862e-10
1.56154e-17
-2.70863e-10
2.78202e-17
-2.70862e-10
-2.70859e-10
-2.52379e-17
-2.70859e-10
-1.34648e-17
-2.70862e-10
1.46368e-17
-2.70863e-10
2.62147e-17
-2.70862e-10
-2.70859e-10
-2.35218e-17
-2.70859e-10
-1.24196e-17
-2.70862e-10
1.35787e-17
-2.70863e-10
2.44761e-17
-2.70862e-10
-2.70859e-10
-2.16859e-17
-2.70859e-10
-1.13031e-17
-2.70862e-10
1.2448e-17
-2.70863e-10
2.26156e-17
-2.70862e-10
-2.70859e-10
-1.97416e-17
-2.70859e-10
-1.01222e-17
-2.70862e-10
1.12518e-17
-2.70863e-10
2.06445e-17
-2.70862e-10
-2.70859e-10
-1.77002e-17
-2.70859e-10
-8.88393e-18
-2.70862e-10
9.99723e-18
-2.70863e-10
1.85745e-17
-2.70862e-10
-2.70859e-10
-1.55729e-17
-2.70859e-10
-7.59543e-18
-2.70862e-10
8.69141e-18
-2.70863e-10
1.64169e-17
-2.70862e-10
-2.70859e-10
-1.33713e-17
-2.70859e-10
-6.26369e-18
-2.70862e-10
7.34147e-18
-2.70863e-10
1.41834e-17
-2.70862e-10
-2.70859e-10
-1.11064e-17
-2.70859e-10
-4.89565e-18
-2.70862e-10
5.95443e-18
-2.70863e-10
1.18853e-17
-2.70862e-10
-2.70859e-10
-8.7893e-18
-2.70859e-10
-3.4981e-18
-2.70862e-10
4.53716e-18
-2.70863e-10
9.53388e-18
-2.70862e-10
-2.70859e-10
-6.43075e-18
-2.70859e-10
-2.07763e-18
-2.70862e-10
3.09637e-18
-2.70863e-10
7.13995e-18
-2.70862e-10
-2.70859e-10
-4.04113e-18
-2.70859e-10
-6.40636e-19
-2.70862e-10
1.63852e-18
-2.70863e-10
4.71413e-18
-2.70862e-10
-2.70859e-10
-1.63046e-18
-2.70859e-10
8.06782e-19
-2.70862e-10
1.69824e-19
-2.70863e-10
2.2666e-18
-2.70862e-10
-2.70859e-10
7.91681e-19
-2.70859e-10
2.25881e-18
-2.70862e-10
-1.30382e-18
-2.70863e-10
-1.92916e-19
-2.70862e-10
-2.70859e-10
3.21623e-18
-2.70859e-10
3.70998e-18
-2.70862e-10
-2.77685e-18
-2.70863e-10
-2.65517e-18
-2.70862e-10
-2.70859e-10
5.63462e-18
-2.70859e-10
5.15514e-18
-2.70862e-10
-4.24401e-18
-2.70863e-10
-5.11146e-18
-2.70862e-10
-2.70859e-10
8.03882e-18
-2.70859e-10
6.58952e-18
-2.70862e-10
-5.70045e-18
-2.70863e-10
-7.55359e-18
-2.70862e-10
-2.70859e-10
1.04214e-17
-2.70859e-10
8.00871e-18
-2.70862e-10
-7.14166e-18
-2.70863e-10
-9.97394e-18
-2.70862e-10
-2.70859e-10
1.27752e-17
-2.70859e-10
9.40866e-18
-2.70862e-10
-8.56347e-18
-2.70863e-10
-1.23654e-17
-2.70862e-10
-2.70859e-10
1.5094e-17
-2.70859e-10
1.07856e-17
-2.70862e-10
-9.96207e-18
-2.70863e-10
-1.47213e-17
-2.70862e-10
-2.70859e-10
1.73716e-17
-2.70859e-10
1.21362e-17
-2.70862e-10
-1.13339e-17
-2.70863e-10
-1.70356e-17
-2.70862e-10
-2.70859e-10
1.96024e-17
-2.70859e-10
1.34573e-17
-2.70862e-10
-1.26758e-17
-2.70863e-10
-1.93024e-17
-2.70862e-10
-2.70859e-10
2.17811e-17
-2.70859e-10
1.47459e-17
-2.70862e-10
-1.39847e-17
-2.70863e-10
-2.15162e-17
-2.70862e-10
-2.70859e-10
2.39024e-17
-2.70859e-10
1.59993e-17
-2.70862e-10
-1.52577e-17
-2.70863e-10
-2.36717e-17
-2.70862e-10
-2.70859e-10
2.59614e-17
-2.70859e-10
1.72148e-17
-2.70862e-10
-1.6492e-17
-2.70863e-10
-2.57638e-17
-2.70862e-10
-2.70859e-10
2.79527e-17
-2.70859e-10
1.83896e-17
-2.70862e-10
-1.76846e-17
-2.70863e-10
-2.77871e-17
-2.70862e-10
-2.70859e-10
2.98711e-17
-2.70859e-10
1.95209e-17
-2.70862e-10
-1.88328e-17
-2.70863e-10
-2.9736e-17
-2.70862e-10
-2.70859e-10
3.17106e-17
-2.70859e-10
2.06057e-17
-2.70862e-10
-1.99332e-17
-2.70863e-10
-3.16045e-17
-2.70862e-10
-2.70859e-10
3.3465e-17
-2.70859e-10
2.16406e-17
-2.70862e-10
-2.09824e-17
-2.70862e-10
-3.33862e-17
-2.70862e-10
-2.70859e-10
3.51271e-17
-2.70859e-10
2.26218e-17
-2.70862e-10
-2.19764e-17
-2.70862e-10
-3.50736e-17
-2.70862e-10
-2.70859e-10
3.66886e-17
-2.70859e-10
2.35449e-17
-2.70862e-10
-2.29105e-17
-2.70862e-10
-3.66583e-17
-2.70861e-10
-2.70859e-10
3.81401e-17
-2.7086e-10
2.44046e-17
-2.70862e-10
-2.37794e-17
-2.70862e-10
-3.81307e-17
-2.70861e-10
-2.70859e-10
3.94705e-17
-2.7086e-10
2.51948e-17
-2.70861e-10
-2.45766e-17
-2.70862e-10
-3.94794e-17
-2.70861e-10
-2.70859e-10
4.06669e-17
-2.7086e-10
2.59082e-17
-2.70861e-10
-2.52947e-17
-2.70862e-10
-4.06912e-17
-2.70861e-10
-2.7086e-10
4.17154e-17
-2.7086e-10
2.65369e-17
-2.70861e-10
-2.59256e-17
-2.70862e-10
-4.17518e-17
-2.70861e-10
-2.7086e-10
4.26058e-17
-2.7086e-10
2.70755e-17
-2.70861e-10
-2.64636e-17
-2.70862e-10
-4.26509e-17
-2.70861e-10
-2.7086e-10
4.33304e-17
2.7514e-17
-2.68982e-17
-4.33807e-17
)
;

boundaryField
{
    BotWall
    {
        type            calculated;
        value           nonuniform List<scalar> 5(5.20269e-23 6.51081e-23 1.01331e-22 9.08308e-23 6.85689e-23);
    }
    FreeStream
    {
        type            calculated;
        value           nonuniform List<scalar> 5(-2.7086e-10 -2.70861e-10 -2.70862e-10 -2.70861e-10 -2.7086e-10);
    }
    FrontNBack
    {
        type            empty;
        value           nonuniform 0();
    }
    LeftSide
    {
        type            symmetryPlane;
        value           uniform 0;
    }
    RightSide
    {
        type            symmetryPlane;
        value           uniform 0;
    }
}


// ************************************************************************* //
