/*--------------------------------*- C++ -*----------------------------------*\
| =========                 |                                                 |
| \\      /  F ield         | OpenFOAM: The Open Source CFD Toolbox           |
|  \\    /   O peration     | Version:  2.4.0                                 |
|   \\  /    A nd           | Web:      www.OpenFOAM.org                      |
|    \\/     M anipulation  |                                                 |
\*---------------------------------------------------------------------------*/
FoamFile
{
    version     2.0;
    format      ascii;
    class       volVectorField;
    location    "2.3";
    object      U;
}
// * * * * * * * * * * * * * * * * * * * * * * * * * * * * * * * * * * * * * //

dimensions      [0 1 -1 0 0 0 0];

internalField   nonuniform List<vector> 
500
(
(5.20713e-10 -7.20618e-10 0)
(8.45229e-10 -7.3087e-10 0)
(7.89816e-12 -7.29255e-10 0)
(-8.51954e-10 -7.30829e-10 0)
(-5.34996e-10 -7.20647e-10 0)
(1.57379e-09 1.83837e-09 0)
(2.55716e-09 1.89766e-09 0)
(2.34908e-11 1.91411e-09 0)
(-2.57732e-09 1.89809e-09 0)
(-1.61642e-09 1.83807e-09 0)
(2.65026e-09 -3.23748e-09 0)
(4.30622e-09 -3.21404e-09 0)
(3.87119e-11 -3.16377e-09 0)
(-4.34032e-09 -3.21279e-09 0)
(-2.72137e-09 -3.23837e-09 0)
(3.7436e-09 4.31762e-09 0)
(6.08642e-09 4.55365e-09 0)
(5.35436e-11 4.65354e-09 0)
(-6.13518e-09 4.55617e-09 0)
(-3.84354e-09 4.31585e-09 0)
(4.86502e-09 -6.04691e-09 0)
(7.90944e-09 -5.87409e-09 0)
(6.80809e-11 -5.70256e-09 0)
(-7.97322e-09 -5.86989e-09 0)
(-4.99383e-09 -6.04991e-09 0)
(6.00278e-09 6.52603e-09 0)
(9.76428e-09 7.05761e-09 0)
(8.23187e-11 7.31576e-09 0)
(-9.84331e-09 7.06395e-09 0)
(-6.16042e-09 6.52148e-09 0)
(7.17315e-09 -9.54385e-09 0)
(1.16677e-08 -9.09982e-09 0)
(9.62634e-11 -8.72925e-09 0)
(-1.17623e-08 -9.09093e-09 0)
(-7.35969e-09 -9.5503e-09 0)
(8.3604e-09 1.16881e-08 0)
(1.36046e-08 1.26453e-08 0)
(1.09918e-10 1.31445e-08 0)
(-1.37152e-08 1.26572e-08 0)
(-8.57595e-09 1.16794e-08 0)
(9.58408e-09 -3.18948e-09 0)
(1.55952e-08 -2.33273e-09 0)
(1.23304e-10 -1.67552e-09 0)
(-1.57221e-08 -2.31731e-09 0)
(-9.82882e-09 -3.20081e-09 0)
(1.08263e-08 2.38876e-08 0)
(1.76222e-08 2.54044e-08 0)
(1.36406e-10 2.6233e-08 0)
(-1.7766e-08 2.54238e-08 0)
(-1.11004e-08 2.38732e-08 0)
(1.21082e-08 -6.89695e-08 0)
(1.97074e-08 -6.76273e-08 0)
(1.49222e-10 -6.66081e-08 0)
(-1.98685e-08 -6.76038e-08 0)
(-1.24119e-08 -6.8987e-08 0)
(1.34104e-08 -2.34183e-07 0)
(2.18321e-08 -2.32132e-07 0)
(1.61751e-10 -2.30945e-07 0)
(-2.2011e-08 -2.32104e-07 0)
(-1.3744e-08 -2.34203e-07 0)
(1.47547e-08 -3.01644e-07 0)
(2.40183e-08 -2.99592e-07 0)
(1.73994e-10 -2.98187e-07 0)
(-2.42155e-08 -2.99559e-07 0)
(-1.51184e-08 -3.01667e-07 0)
(1.61263e-08 1.37558e-06 0)
(2.62529e-08 1.37974e-06 0)
(1.85952e-10 1.38175e-06 0)
(-2.64689e-08 1.37978e-06 0)
(-1.65204e-08 1.37555e-06 0)
(1.75594e-08 6.6713e-06 0)
(2.8576e-08 6.67788e-06 0)
(1.97703e-10 6.68156e-06 0)
(-2.88114e-08 6.67795e-06 0)
(-1.79844e-08 6.67123e-06 0)
(1.90444e-08 6.21625e-06 0)
(3.09737e-08 6.22357e-06 0)
(2.09824e-10 6.22844e-06 0)
(-3.12292e-08 6.22365e-06 0)
(-1.95014e-08 6.21615e-06 0)
(2.05582e-08 -2.87701e-05 0)
(3.34521e-08 -2.87783e-05 0)
(2.21245e-10 -2.87812e-05 0)
(-3.37297e-08 -2.87783e-05 0)
(-2.10486e-08 -2.87701e-05 0)
(2.23837e-08 -0.000227044 0)
(3.64604e-08 -0.000227112 0)
(2.35575e-10 -0.000227155 0)
(-3.67662e-08 -0.000227113 0)
(-2.29165e-08 -0.000227043 0)
(2.29588e-08 -0.0010607 0)
(3.73891e-08 -0.00106066 0)
(2.39731e-10 -0.00106065 0)
(-3.77026e-08 -0.00106066 0)
(-2.35035e-08 -0.0010607 0)
(2.26104e-08 -0.00243205 0)
(3.66351e-08 -0.00243202 0)
(2.38318e-10 -0.002432 0)
(-3.69264e-08 -0.00243202 0)
(-2.31309e-08 -0.00243205 0)
(2.03008e-08 -0.00138564 0)
(3.33637e-08 -0.0013857 0)
(2.30347e-10 -0.00138571 0)
(-3.36211e-08 -0.0013857 0)
(-2.0779e-08 -0.00138564 0)
(1.84911e-08 -0.0012923 0)
(3.06244e-08 -0.00129231 0)
(2.228e-10 -0.00129232 0)
(-3.0849e-08 -0.00129231 0)
(-1.89285e-08 -0.0012923 0)
(1.69674e-08 -0.00132324 0)
(2.82267e-08 -0.00132324 0)
(2.15964e-10 -0.00132325 0)
(-2.84201e-08 -0.00132324 0)
(-1.73665e-08 -0.00132324 0)
(1.54893e-08 -0.0013521 0)
(2.59126e-08 -0.0013521 0)
(2.09609e-10 -0.00135211 0)
(-2.60759e-08 -0.0013521 0)
(-1.58519e-08 -0.0013521 0)
(1.40095e-08 -0.00135708 0)
(2.36219e-08 -0.00135709 0)
(2.03564e-10 -0.0013571 0)
(-2.37561e-08 -0.00135709 0)
(-1.43367e-08 -0.00135708 0)
(1.25652e-08 -0.00135553 0)
(2.13911e-08 -0.00135554 0)
(1.97796e-10 -0.00135555 0)
(-2.14971e-08 -0.00135554 0)
(-1.28584e-08 -0.00135553 0)
(1.11779e-08 -0.00135439 0)
(1.9243e-08 -0.0013544 0)
(1.92304e-10 -0.0013544 0)
(-1.93218e-08 -0.0013544 0)
(-1.14384e-08 -0.00135439 0)
(9.84895e-09 -0.00135418 0)
(1.71803e-08 -0.00135419 0)
(1.87085e-10 -0.0013542 0)
(-1.72328e-08 -0.00135419 0)
(-1.00781e-08 -0.00135418 0)
(8.57575e-09 -0.00135425 0)
(1.52009e-08 -0.00135426 0)
(1.82129e-10 -0.00135426 0)
(-1.52281e-08 -0.00135426 0)
(-8.77475e-09 -0.00135425 0)
(7.35732e-09 -0.0013543 0)
(1.33042e-08 -0.0013543 0)
(1.77423e-10 -0.00135431 0)
(-1.33072e-08 -0.0013543 0)
(-7.52753e-09 -0.0013543 0)
(6.19395e-09 -0.0013543 0)
(1.14911e-08 -0.00135431 0)
(1.72956e-10 -0.00135432 0)
(-1.14708e-08 -0.00135431 0)
(-6.3367e-09 -0.0013543 0)
(5.08609e-09 -0.0013543 0)
(9.76225e-09 -0.00135431 0)
(1.68719e-10 -0.00135431 0)
(-9.71975e-09 -0.00135431 0)
(-5.20268e-09 -0.0013543 0)
(4.03397e-09 -0.0013543 0)
(8.11833e-09 -0.00135431 0)
(1.647e-10 -0.00135431 0)
(-8.05469e-09 -0.00135431 0)
(-4.1257e-09 -0.0013543 0)
(3.03763e-09 -0.0013543 0)
(6.55966e-09 -0.00135431 0)
(1.60889e-10 -0.00135431 0)
(-6.47595e-09 -0.00135431 0)
(-3.10581e-09 -0.0013543 0)
(2.09707e-09 -0.0013543 0)
(5.08643e-09 -0.00135431 0)
(1.57276e-10 -0.00135431 0)
(-4.98374e-09 -0.00135431 0)
(-2.14298e-09 -0.0013543 0)
(1.21216e-09 -0.0013543 0)
(3.69869e-09 -0.00135431 0)
(1.53851e-10 -0.00135431 0)
(-3.5781e-09 -0.00135431 0)
(-1.23709e-09 -0.0013543 0)
(3.82705e-10 -0.0013543 0)
(2.39636e-09 -0.00135431 0)
(1.50604e-10 -0.00135431 0)
(-2.25894e-09 -0.00135431 0)
(-3.87925e-10 -0.0013543 0)
(-3.91582e-10 -0.0013543 0)
(1.17916e-09 -0.00135431 0)
(1.47525e-10 -0.00135431 0)
(-1.02601e-09 -0.00135431 0)
(4.04813e-10 -0.0013543 0)
(-1.11109e-09 -0.0013543 0)
(4.66807e-11 -0.00135431 0)
(1.44604e-10 -0.00135431 0)
(1.21119e-10 -0.00135431 0)
(1.14152e-09 -0.0013543 0)
(-1.7763e-09 -0.0013543 0)
(-1.00167e-09 -0.00135431 0)
(1.41833e-10 -0.00135431 0)
(1.18303e-09 -0.00135431 0)
(1.82271e-09 -0.0013543 0)
(-2.38779e-09 -0.0013543 0)
(-1.96665e-09 -0.00135431 0)
(1.39203e-10 -0.00135431 0)
(2.16049e-09 -0.00135431 0)
(2.44897e-09 -0.0013543 0)
(-2.94625e-09 -0.0013543 0)
(-2.84918e-09 -0.00135431 0)
(1.36704e-10 -0.00135431 0)
(3.05444e-09 -0.00135431 0)
(3.021e-09 -0.0013543 0)
(-3.45245e-09 -0.0013543 0)
(-3.65036e-09 -0.00135431 0)
(1.34328e-10 -0.00135431 0)
(3.86597e-09 -0.00135431 0)
(3.53961e-09 -0.0013543 0)
(-3.90728e-09 -0.0013543 0)
(-4.37148e-09 -0.00135431 0)
(1.32066e-10 -0.00135431 0)
(4.59639e-09 -0.00135431 0)
(4.0057e-09 -0.0013543 0)
(-4.31172e-09 -0.0013543 0)
(-5.01397e-09 -0.00135431 0)
(1.29911e-10 -0.00135431 0)
(5.24714e-09 -0.00135431 0)
(4.42028e-09 -0.0013543 0)
(-4.66685e-09 -0.0013543 0)
(-5.57945e-09 -0.00135431 0)
(1.27855e-10 -0.00135431 0)
(5.81987e-09 -0.00135431 0)
(4.78446e-09 -0.0013543 0)
(-4.97385e-09 -0.0013543 0)
(-6.0697e-09 -0.00135431 0)
(1.2589e-10 -0.00135431 0)
(6.31637e-09 -0.00135431 0)
(5.09944e-09 -0.0013543 0)
(-5.23399e-09 -0.0013543 0)
(-6.48668e-09 -0.00135431 0)
(1.24008e-10 -0.00135431 0)
(6.73862e-09 -0.00135431 0)
(5.36653e-09 -0.0013543 0)
(-5.44865e-09 -0.0013543 0)
(-6.8325e-09 -0.00135431 0)
(1.22204e-10 -0.00135431 0)
(7.08875e-09 -0.00135431 0)
(5.58712e-09 -0.0013543 0)
(-5.61927e-09 -0.0013543 0)
(-7.10944e-09 -0.00135431 0)
(1.20469e-10 -0.00135431 0)
(7.36907e-09 -0.00135431 0)
(5.76271e-09 -0.0013543 0)
(-5.7474e-09 -0.0013543 0)
(-7.3199e-09 -0.00135431 0)
(1.18798e-10 -0.00135431 0)
(7.58202e-09 -0.00135431 0)
(5.89488e-09 -0.0013543 0)
(-5.83467e-09 -0.0013543 0)
(-7.46646e-09 -0.00135431 0)
(1.17185e-10 -0.00135431 0)
(7.73019e-09 -0.00135431 0)
(5.98529e-09 -0.0013543 0)
(-5.88278e-09 -0.0013543 0)
(-7.55182e-09 -0.00135431 0)
(1.15623e-10 -0.00135431 0)
(7.81632e-09 -0.00135431 0)
(6.03568e-09 -0.0013543 0)
(-5.89352e-09 -0.0013543 0)
(-7.5788e-09 -0.00135431 0)
(1.14107e-10 -0.00135431 0)
(7.84326e-09 -0.00135431 0)
(6.04786e-09 -0.0013543 0)
(-5.86872e-09 -0.0013543 0)
(-7.55033e-09 -0.00135431 0)
(1.12632e-10 -0.00135431 0)
(7.81399e-09 -0.00135431 0)
(6.02373e-09 -0.0013543 0)
(-5.81028e-09 -0.0013543 0)
(-7.46946e-09 -0.00135431 0)
(1.11193e-10 -0.00135431 0)
(7.73158e-09 -0.00135431 0)
(5.96522e-09 -0.0013543 0)
(-5.72017e-09 -0.0013543 0)
(-7.33933e-09 -0.00135431 0)
(1.09786e-10 -0.00135431 0)
(7.5992e-09 -0.00135431 0)
(5.87434e-09 -0.0013543 0)
(-5.60037e-09 -0.0013543 0)
(-7.16314e-09 -0.00135431 0)
(1.08406e-10 -0.00135431 0)
(7.42012e-09 -0.00135431 0)
(5.7531e-09 -0.0013543 0)
(-5.45292e-09 -0.0013543 0)
(-6.94417e-09 -0.00135431 0)
(1.07048e-10 -0.00135431 0)
(7.19763e-09 -0.00135431 0)
(5.60361e-09 -0.0013543 0)
(-5.27989e-09 -0.0013543 0)
(-6.68574e-09 -0.00135431 0)
(1.05711e-10 -0.00135431 0)
(6.93511e-09 -0.00135431 0)
(5.42796e-09 -0.0013543 0)
(-5.08335e-09 -0.0013543 0)
(-6.3912e-09 -0.00135431 0)
(1.04389e-10 -0.00135431 0)
(6.63595e-09 -0.00135431 0)
(5.22827e-09 -0.0013543 0)
(-4.8654e-09 -0.0013543 0)
(-6.06392e-09 -0.00135431 0)
(1.03081e-10 -0.00135431 0)
(6.30355e-09 -0.00135431 0)
(5.00668e-09 -0.0013543 0)
(-4.62812e-09 -0.0013543 0)
(-5.70728e-09 -0.00135431 0)
(1.01784e-10 -0.00135431 0)
(5.94134e-09 -0.00135431 0)
(4.76531e-09 -0.0013543 0)
(-4.37359e-09 -0.0013543 0)
(-5.32462e-09 -0.00135431 0)
(1.00495e-10 -0.00135431 0)
(5.55271e-09 -0.00135431 0)
(4.5063e-09 -0.0013543 0)
(-4.10387e-09 -0.0013543 0)
(-4.91926e-09 -0.00135431 0)
(9.92123e-11 -0.00135431 0)
(5.14101e-09 -0.00135431 0)
(4.23174e-09 -0.0013543 0)
(-3.82099e-09 -0.0013543 0)
(-4.49446e-09 -0.00135431 0)
(9.79342e-11 -0.00135431 0)
(4.70955e-09 -0.00135431 0)
(3.94369e-09 -0.0013543 0)
(-3.52693e-09 -0.0013543 0)
(-4.05342e-09 -0.00135431 0)
(9.66593e-11 -0.00135431 0)
(4.26156e-09 -0.00135431 0)
(3.6442e-09 -0.0013543 0)
(-3.22363e-09 -0.0013543 0)
(-3.59924e-09 -0.00135431 0)
(9.53865e-11 -0.00135431 0)
(3.80019e-09 -0.00135431 0)
(3.33523e-09 -0.0013543 0)
(-2.91298e-09 -0.0013543 0)
(-3.13492e-09 -0.00135431 0)
(9.4115e-11 -0.00135431 0)
(3.3285e-09 -0.00135431 0)
(3.01871e-09 -0.0013543 0)
(-2.59679e-09 -0.0013543 0)
(-2.66336e-09 -0.00135431 0)
(9.28442e-11 -0.00135431 0)
(2.84939e-09 -0.00135431 0)
(2.69649e-09 -0.0013543 0)
(-2.2768e-09 -0.0013543 0)
(-2.18732e-09 -0.00135431 0)
(9.15741e-11 -0.00135431 0)
(2.36568e-09 -0.00135431 0)
(2.37035e-09 -0.0013543 0)
(-1.95467e-09 -0.0013543 0)
(-1.7094e-09 -0.00135431 0)
(9.03046e-11 -0.00135431 0)
(1.88002e-09 -0.00135431 0)
(2.04197e-09 -0.0013543 0)
(-1.63196e-09 -0.0013543 0)
(-1.23207e-09 -0.00135431 0)
(8.9036e-11 -0.00135431 0)
(1.39488e-09 -0.00135431 0)
(1.71296e-09 -0.0013543 0)
(-1.31016e-09 -0.0013543 0)
(-7.5762e-10 -0.00135431 0)
(8.77691e-11 -0.00135431 0)
(9.1261e-10 -0.00135431 0)
(1.38482e-09 -0.0013543 0)
(-9.90632e-10 -0.0013543 0)
(-2.88171e-10 -0.00135431 0)
(8.65047e-11 -0.00135431 0)
(4.35354e-10 -0.00135431 0)
(1.05897e-09 -0.0013543 0)
(-6.74666e-10 -0.0013543 0)
(1.74331e-10 -0.00135431 0)
(8.5244e-11 -0.00135431 0)
(-3.4912e-11 -0.00135431 0)
(7.36704e-10 -0.0013543 0)
(-3.63433e-10 -0.0013543 0)
(6.28124e-10 -0.00135431 0)
(8.39885e-11 -0.00135431 0)
(-4.96396e-10 -0.00135431 0)
(4.19228e-10 -0.0013543 0)
(-5.80065e-11 -0.0013543 0)
(1.07163e-09 -0.00135431 0)
(8.27399e-11 -0.00135431 0)
(-9.4749e-10 -0.00135431 0)
(1.07638e-10 -0.0013543 0)
(2.40642e-10 -0.0013543 0)
(1.50343e-09 -0.00135431 0)
(8.15003e-11 -0.00135431 0)
(-1.38677e-09 -0.00135431 0)
(-1.97074e-10 -0.0013543 0)
(5.31641e-10 -0.0013543 0)
(1.92232e-09 -0.00135431 0)
(8.0272e-11 -0.00135431 0)
(-1.81298e-09 -0.00135431 0)
(-4.94015e-10 -0.0013543 0)
(8.14212e-10 -0.0013543 0)
(2.32723e-09 -0.00135431 0)
(7.90577e-11 -0.00135431 0)
(-2.22505e-09 -0.00135431 0)
(-7.82388e-10 -0.0013543 0)
(1.08766e-09 -0.0013543 0)
(2.71727e-09 -0.00135431 0)
(7.78603e-11 -0.00135431 0)
(-2.62205e-09 -0.00135431 0)
(-1.06149e-09 -0.0013543 0)
(1.35139e-09 -0.0013543 0)
(3.09168e-09 -0.00135431 0)
(7.6683e-11 -0.00135431 0)
(-3.00322e-09 -0.00135431 0)
(-1.33069e-09 -0.0013543 0)
(1.60486e-09 -0.0013543 0)
(3.44983e-09 -0.00135431 0)
(7.55294e-11 -0.00135431 0)
(-3.36792e-09 -0.00135431 0)
(-1.58944e-09 -0.0013543 0)
(1.84758e-09 -0.0013543 0)
(3.79123e-09 -0.00135431 0)
(7.44033e-11 -0.00135431 0)
(-3.71561e-09 -0.00135431 0)
(-1.83726e-09 -0.0013543 0)
(2.07915e-09 -0.0013543 0)
(4.11545e-09 -0.00135431 0)
(7.33089e-11 -0.00135431 0)
(-4.04588e-09 -0.00135431 0)
(-2.0737e-09 -0.0013543 0)
(2.29916e-09 -0.0013543 0)
(4.42215e-09 -0.00135431 0)
(7.22507e-11 -0.00135431 0)
(-4.35835e-09 -0.00135431 0)
(-2.29837e-09 -0.0013543 0)
(2.50726e-09 -0.0013543 0)
(4.71102e-09 -0.00135431 0)
(7.12334e-11 -0.00135431 0)
(-4.65271e-09 -0.00135431 0)
(-2.51089e-09 -0.0013543 0)
(2.70309e-09 -0.0013543 0)
(4.9818e-09 -0.00135431 0)
(7.02621e-11 -0.00135431 0)
(-4.92868e-09 -0.00135431 0)
(-2.71089e-09 -0.0013543 0)
(2.88628e-09 -0.0013543 0)
(5.2342e-09 -0.00135431 0)
(6.9342e-11 -0.00135431 0)
(-5.18594e-09 -0.00135431 0)
(-2.89799e-09 -0.0013543 0)
(3.05643e-09 -0.0013543 0)
(5.46789e-09 -0.00135431 0)
(6.84787e-11 -0.00135431 0)
(-5.42416e-09 -0.00135431 0)
(-3.07178e-09 -0.0013543 0)
(3.21311e-09 -0.0013543 0)
(5.68249e-09 -0.00135431 0)
(6.7678e-11 -0.00135431 0)
(-5.64295e-09 -0.00135431 0)
(-3.23183e-09 -0.0013543 0)
(3.35583e-09 -0.0013543 0)
(5.87753e-09 -0.00135431 0)
(6.69455e-11 -0.00135431 0)
(-5.8418e-09 -0.00135431 0)
(-3.37762e-09 -0.0013543 0)
(3.48401e-09 -0.0013543 0)
(6.0524e-09 -0.00135431 0)
(6.62873e-11 -0.00135431 0)
(-6.0201e-09 -0.00135431 0)
(-3.50856e-09 -0.0013543 0)
(3.597e-09 -0.0013543 0)
(6.20636e-09 -0.00135431 0)
(6.57093e-11 -0.00135431 0)
(-6.17708e-09 -0.00135431 0)
(-3.62398e-09 -0.0013543 0)
(3.694e-09 -0.0013543 0)
(6.33847e-09 -0.00135431 0)
(6.52171e-11 -0.00135431 0)
(-6.31176e-09 -0.00135431 0)
(-3.72306e-09 -0.0013543 0)
(3.77412e-09 -0.0013543 0)
(6.44759e-09 -0.00135431 0)
(6.48163e-11 -0.00135431 0)
(-6.42301e-09 -0.00135431 0)
(-3.8049e-09 -0.0013543 0)
(3.83642e-09 -0.0013543 0)
(6.53255e-09 -0.00135431 0)
(6.45132e-11 -0.00135431 0)
(-6.5096e-09 -0.00135431 0)
(-3.86854e-09 -0.0013543 0)
(3.88007e-09 -0.0013543 0)
(6.59232e-09 -0.00135431 0)
(6.43164e-11 -0.00135431 0)
(-6.5705e-09 -0.00135431 0)
(-3.91311e-09 -0.0013543 0)
(3.90392e-09 -0.0013543 0)
(6.62539e-09 -0.00135431 0)
(6.42315e-11 -0.00135431 0)
(-6.60414e-09 -0.00135431 0)
(-3.93745e-09 -0.0013543 0)
)
;

boundaryField
{
    BotWall
    {
        type            fixedValue;
        value           uniform (0 0 0);
    }
    FreeStream
    {
        type            zeroGradient;
    }
    FrontNBack
    {
        type            empty;
    }
    LeftSide
    {
        type            symmetryPlane;
    }
    RightSide
    {
        type            symmetryPlane;
    }
}


// ************************************************************************* //
