/*--------------------------------*- C++ -*----------------------------------*\
| =========                 |                                                 |
| \\      /  F ield         | OpenFOAM: The Open Source CFD Toolbox           |
|  \\    /   O peration     | Version:  2.4.0                                 |
|   \\  /    A nd           | Web:      www.OpenFOAM.org                      |
|    \\/     M anipulation  |                                                 |
\*---------------------------------------------------------------------------*/
FoamFile
{
    version     2.0;
    format      ascii;
    class       volScalarField;
    location    "4.2";
    object      p;
}
// * * * * * * * * * * * * * * * * * * * * * * * * * * * * * * * * * * * * * //

dimensions      [1 -1 -2 0 0 0 0];

internalField   nonuniform List<scalar> 
125
(
-0.0139586
-0.0139587
-0.0139588
-0.0139587
-0.0139586
-0.0150283
-0.0150282
-0.0150281
-0.0150282
-0.0150283
-0.0157509
-0.0157508
-0.0157508
-0.0157508
-0.0157509
-0.0163898
-0.0163898
-0.0163897
-0.0163897
-0.0163898
-0.0170473
-0.0170473
-0.0170473
-0.0170473
-0.0170473
-0.0177261
-0.0177261
-0.0177261
-0.0177261
-0.0177261
-0.0184159
-0.0184159
-0.0184159
-0.0184159
-0.0184159
-0.019113
-0.0191129
-0.0191129
-0.0191129
-0.019113
-0.0198172
-0.0198172
-0.0198172
-0.0198172
-0.0198172
-0.0205292
-0.0205292
-0.0205292
-0.0205292
-0.0205292
-0.0212492
-0.0212492
-0.0212491
-0.0212491
-0.0212492
-0.0219772
-0.0219772
-0.0219771
-0.0219772
-0.0219772
-0.0227133
-0.0227133
-0.0227133
-0.0227133
-0.0227133
-0.0234577
-0.0234577
-0.0234576
-0.0234576
-0.0234577
-0.0242103
-0.0242103
-0.0242103
-0.0242103
-0.0242103
-0.0249714
-0.0249714
-0.0249713
-0.0249714
-0.0249714
-0.0257409
-0.0257409
-0.0257409
-0.0257409
-0.0257409
-0.0265191
-0.0265191
-0.026519
-0.026519
-0.0265191
-0.0273059
-0.0273059
-0.0273059
-0.0273059
-0.0273059
-0.0281015
-0.0281015
-0.0281015
-0.0281015
-0.0281015
-0.028906
-0.0289059
-0.0289059
-0.0289059
-0.028906
-0.0297194
-0.0297194
-0.0297194
-0.0297194
-0.0297194
-0.0305419
-0.0305419
-0.0305419
-0.0305419
-0.0305419
-0.0313737
-0.0313736
-0.0313736
-0.0313736
-0.0313737
-0.0322146
-0.0322146
-0.0322146
-0.0322146
-0.0322146
)
;

boundaryField
{
    BotWall
    {
        type            calculated;
        value           nonuniform 0();
    }
    FreeStream
    {
        type            calculated;
        value           nonuniform 0();
    }
    FrontNBack
    {
        type            empty;
    }
    LeftSide
    {
        type            symmetryPlane;
    }
    RightSide
    {
        type            symmetryPlane;
    }
    procBoundary1to0
    {
        type            processor;
        value           nonuniform List<scalar> 5(-0.0125576 -0.0125583 -0.0125594 -0.0125588 -0.0125574);
    }
    procBoundary1to2
    {
        type            processor;
        value           nonuniform List<scalar> 5(-0.033065 -0.033065 -0.033065 -0.033065 -0.033065);
    }
}


// ************************************************************************* //
