/*--------------------------------*- C++ -*----------------------------------*\
| =========                 |                                                 |
| \\      /  F ield         | OpenFOAM: The Open Source CFD Toolbox           |
|  \\    /   O peration     | Version:  2.4.0                                 |
|   \\  /    A nd           | Web:      www.OpenFOAM.org                      |
|    \\/     M anipulation  |                                                 |
\*---------------------------------------------------------------------------*/
FoamFile
{
    version     2.0;
    format      ascii;
    class       volScalarField;
    location    "0.009";
    object      T;
}
// * * * * * * * * * * * * * * * * * * * * * * * * * * * * * * * * * * * * * //

dimensions      [0 0 0 1 0 0 0];

internalField   nonuniform List<scalar> 
125
(
293.628
294.887
296.156
297.934
297.933
297.933
297.933
297.932
297.932
297.932
297.933
297.933
297.933
297.934
297.935
297.935
297.936
297.937
297.938
297.939
297.94
297.942
297.943
297.944
297.946
297.947
297.948
297.95
297.951
297.953
297.955
297.956
297.958
297.959
297.961
297.962
297.964
297.966
297.967
297.969
297.97
297.971
297.973
297.974
297.975
297.977
297.978
297.979
297.98
297.981
297.983
297.984
297.985
297.985
297.986
297.987
297.988
297.989
297.99
297.99
297.991
297.991
297.992
297.993
297.993
297.994
297.994
297.994
297.995
297.995
297.996
297.996
297.996
297.996
297.997
297.997
297.997
297.997
297.998
297.998
297.998
297.998
297.998
297.998
297.999
297.999
297.999
297.999
297.999
297.999
297.999
297.999
297.999
297.999
297.999
297.999
297.999
297.999
297.999
298
298
298
298
298
298
298
298
298
298
298
298
298
298
298
298
298
298
298
298
298
298
298
298
298
298
)
;

boundaryField
{
    BotWall
    {
        type            fixedValue;
        value           uniform 293;
    }
    FreeStream
    {
        type            fixedValue;
        value           uniform 298;
    }
    FrontNBack
    {
        type            empty;
    }
    LeftSide
    {
        type            symmetryPlane;
    }
    RightSide
    {
        type            symmetryPlane;
    }
    procBoundary4to1
    {
        type            processor;
        value           nonuniform List<scalar> 
50
(
297.983
297.984
297.985
297.986
297.986
297.987
297.988
297.989
297.99
297.99
297.991
297.992
297.992
297.993
297.993
297.994
297.994
297.995
297.995
297.995
297.996
297.996
297.996
297.997
297.997
297.997
297.997
297.997
297.998
297.998
297.998
297.998
297.998
297.998
297.999
297.999
297.999
297.999
297.999
297.999
297.999
297.999
297.999
297.999
297.999
297.999
297.999
297.999
298
298
)
;
    }
    procBoundary4to2
    {
        type            processor;
        value           nonuniform List<scalar> 
75
(
293.626
294.883
296.148
297.932
297.931
297.931
297.931
297.93
297.93
297.93
297.931
297.931
297.931
297.932
297.933
297.933
297.934
297.935
297.936
297.937
297.939
297.94
297.941
297.943
297.944
297.946
297.947
297.949
297.95
297.952
297.954
297.955
297.957
297.959
297.96
297.962
297.963
297.965
297.967
297.968
297.97
297.971
297.973
297.974
297.975
297.977
297.978
297.979
297.98
297.981
298
298
298
298
298
298
298
298
298
298
298
298
298
298
298
298
298
298
298
298
298
298
298
298
298
)
;
    }
    procBoundary4to3
    {
        type            processor;
        value           uniform 298;
    }
    procBoundary4to5
    {
        type            processor;
        value           uniform 298;
    }
    procBoundary4to6
    {
        type            processor;
        value           nonuniform List<scalar> 
75
(
297.947
297.948
297.95
297.951
297.953
297.955
297.956
297.958
297.959
297.961
297.962
297.964
297.966
297.967
297.969
297.97
297.971
297.973
297.974
297.975
297.977
297.978
297.979
297.98
297.981
297.983
297.984
297.985
297.985
297.986
297.987
297.988
297.989
297.99
297.99
297.991
297.991
297.992
297.993
297.993
297.994
297.994
297.994
297.995
297.995
297.996
297.996
297.996
297.996
297.997
297.997
297.997
297.997
297.998
297.998
297.998
297.998
297.998
297.998
297.999
297.999
297.999
297.999
297.999
297.999
297.999
297.999
297.999
297.999
297.999
297.999
297.999
297.999
297.999
298
)
;
    }
    procBoundary4to7
    {
        type            processor;
        value           nonuniform List<scalar> 
50
(
293.628
294.888
296.156
297.934
297.934
297.933
297.933
297.933
297.933
297.933
297.933
297.933
297.933
297.934
297.935
297.935
297.936
297.937
297.938
297.939
297.94
297.942
297.943
297.944
297.946
298
298
298
298
298
298
298
298
298
298
298
298
298
298
298
298
298
298
298
298
298
298
298
298
298
)
;
    }
}


// ************************************************************************* //
