/*--------------------------------*- C++ -*----------------------------------*\
| =========                 |                                                 |
| \\      /  F ield         | OpenFOAM: The Open Source CFD Toolbox           |
|  \\    /   O peration     | Version:  2.4.0                                 |
|   \\  /    A nd           | Web:      www.OpenFOAM.org                      |
|    \\/     M anipulation  |                                                 |
\*---------------------------------------------------------------------------*/
FoamFile
{
    version     2.0;
    format      ascii;
    class       volScalarField;
    location    "0.001";
    object      H;
}
// * * * * * * * * * * * * * * * * * * * * * * * * * * * * * * * * * * * * * //

dimensions      [0 2 -2 0 0 0 0];

internalField   nonuniform List<scalar> 
125
(
-85.455
-69.222
-55.6343
-44.3668
-35.1092
-27.572
-21.4902
-16.6262
-12.7697
-9.73826
-7.37523
-5.54835
-4.14725
-3.08104
-2.27577
-1.67197
-1.22234
-0.889699
-0.645094
-0.466229
-0.336092
-0.241825
-0.173797
-0.12485
-0.0897109
-0.0645199
-0.0464709
-0.0335361
-0.024257
-0.017589
-0.0127866
-0.00931839
-0.00680619
-0.00498085
-0.00365058
-0.00267837
-0.00196611
-0.00144326
-0.00105889
-0.000776083
-0.000567941
-0.000414798
-0.000302221
-0.000219579
-0.000159028
-0.000114767
-8.25039e-05
-5.9061e-05
-4.20873e-05
-2.98454e-05
-2.10535e-05
-1.47681e-05
-1.02966e-05
-7.13235e-06
-4.9057e-06
-3.34828e-06
-2.26607e-06
-1.5193e-06
-1.00794e-06
-6.60725e-07
-4.27104e-07
-2.71563e-07
-1.69201e-07
-1.02741e-07
-6.03059e-08
-3.37075e-08
-1.74467e-08
-7.80451e-09
-2.34735e-09
5.22328e-10
1.88349e-09
2.33019e-09
2.33745e-09
2.09365e-09
1.79452e-09
1.4038e-09
1.09685e-09
8.70912e-10
6.59617e-10
4.73918e-10
3.71658e-10
2.59889e-10
1.78516e-10
1.41274e-10
8.40984e-11
4.15528e-11
5.80462e-11
5.70619e-11
3.53834e-11
2.50848e-11
2.79963e-13
-1.34062e-13
1.09656e-13
3.05057e-14
2.07604e-15
2.27826e-16
2.08518e-16
5.51203e-17
6.92542e-18
1.16272e-18
4.17686e-19
1.02687e-19
1.65308e-20
2.97716e-21
7.96384e-22
1.90866e-22
3.5789e-23
6.6327e-24
1.471e-24
3.32533e-25
6.73125e-26
1.30165e-26
2.65314e-27
5.59641e-28
1.14607e-28
2.26878e-29
4.49e-30
9.01072e-31
1.80868e-31
3.58236e-32
7.00707e-33
1.36537e-33
2.664e-34
5.17289e-35
9.48332e-36
)
;

boundaryField
{
    BotWall
    {
        type            zeroGradient;
    }
    FreeStream
    {
        type            zeroGradient;
    }
    FrontNBack
    {
        type            empty;
    }
    LeftSide
    {
        type            symmetryPlane;
    }
    RightSide
    {
        type            symmetryPlane;
    }
    procBoundary6to3
    {
        type            processor;
        value           nonuniform List<scalar> 
50
(
1.39549e-09
1.09979e-09
8.79853e-10
6.49862e-10
4.69107e-10
3.62602e-10
2.62996e-10
1.67841e-10
1.52517e-10
6.9347e-11
5.89116e-11
3.81528e-11
6.72607e-11
3.7085e-11
2.04968e-11
5.96642e-13
-1.23966e-13
1.111e-13
3.48193e-14
3.21261e-15
3.02926e-16
2.07682e-16
6.22635e-17
9.74991e-18
1.52571e-18
4.21191e-19
1.07966e-19
2.0908e-20
3.95754e-21
8.83449e-22
1.97452e-22
4.01001e-23
8.04581e-24
1.68871e-24
3.52471e-25
7.11239e-26
1.43174e-26
2.91558e-27
5.87609e-28
1.16507e-28
2.31068e-29
4.59797e-30
9.05705e-31
1.76151e-31
3.41917e-32
6.64746e-33
1.28473e-33
2.45818e-34
4.67617e-35
8.87571e-36
)
;
    }
    procBoundary6to4
    {
        type            processor;
        value           nonuniform List<scalar> 
75
(
-85.4525
-69.22
-55.6327
-44.3655
-35.1083
-27.5713
-21.4897
-16.6258
-12.7695
-9.73813
-7.37518
-5.54834
-4.14727
-3.08108
-2.27582
-1.67202
-1.2224
-0.889747
-0.645135
-0.466263
-0.336119
-0.241846
-0.173812
-0.124861
-0.0897186
-0.0645249
-0.0464739
-0.0335376
-0.0242575
-0.0175889
-0.0127861
-0.00931766
-0.00680539
-0.00498007
-0.00364984
-0.00267772
-0.00196555
-0.00144279
-0.00105851
-0.000775778
-0.000567699
-0.00041461
-0.000302075
-0.000219467
-0.000158943
-0.000114704
-8.24571e-05
-5.90266e-05
-4.20621e-05
-2.98271e-05
-2.10404e-05
-1.47588e-05
-1.02901e-05
-7.12776e-06
-4.9025e-06
-3.34612e-06
-2.26459e-06
-1.51832e-06
-1.00728e-06
-6.603e-07
-4.26848e-07
-2.71411e-07
-1.69097e-07
-1.02706e-07
-6.02779e-08
-3.36982e-08
-1.74386e-08
-7.82302e-09
-2.35431e-09
5.223e-10
1.86217e-09
2.34394e-09
2.30216e-09
2.09194e-09
1.79424e-09
)
;
    }
    procBoundary6to5
    {
        type            processor;
        value           uniform 3.1684e-37;
    }
    procBoundary6to7
    {
        type            processor;
        value           uniform -104.665;
    }
    procBoundary6to8
    {
        type            processor;
        value           nonuniform List<scalar> 
75
(
-2.10378e-05
-1.47569e-05
-1.02888e-05
-7.12684e-06
-4.90187e-06
-3.34569e-06
-2.26427e-06
-1.51809e-06
-1.00716e-06
-6.60218e-07
-4.26795e-07
-2.71358e-07
-1.69083e-07
-1.02687e-07
-6.0283e-08
-3.36873e-08
-1.74391e-08
-7.82384e-09
-2.34989e-09
5.26207e-10
1.85946e-09
2.33843e-09
2.30232e-09
2.10718e-09
1.79393e-09
1.39764e-09
1.09471e-09
8.80224e-10
6.56287e-10
4.71604e-10
3.49246e-10
2.74028e-10
1.66427e-10
1.55571e-10
6.59858e-11
6.80088e-11
3.47618e-11
7.27902e-11
3.09783e-11
2.32753e-11
4.94711e-13
-1.23612e-13
1.04735e-13
3.12481e-14
2.50907e-15
2.24376e-16
1.85537e-16
5.31602e-17
7.93083e-18
1.41768e-18
4.23547e-19
9.90745e-20
1.74322e-20
3.54611e-21
8.95665e-22
1.96862e-22
3.64233e-23
7.20239e-24
1.64498e-24
3.58164e-25
6.9583e-26
1.34384e-26
2.79972e-27
5.90017e-28
1.17912e-28
2.2874e-29
4.51649e-30
9.07033e-31
1.80016e-31
3.50395e-32
6.77754e-33
1.3142e-33
2.54528e-34
4.89489e-35
9.33971e-36
)
;
    }
    procBoundary6to9
    {
        type            processor;
        value           nonuniform List<scalar> 
50
(
-85.4509
-69.2186
-55.6315
-44.3645
-35.1074
-27.5705
-21.4891
-16.6253
-12.7691
-9.73782
-7.37492
-5.54814
-4.14711
-3.08096
-2.27573
-1.67195
-1.22234
-0.889703
-0.645102
-0.466238
-0.3361
-0.241832
-0.173801
-0.124853
-0.0897123
-0.0645201
-0.0464703
-0.0335348
-0.0242554
-0.0175873
-0.0127849
-0.00931676
-0.0068047
-0.00497955
-0.00364945
-0.00267742
-0.00196533
-0.00144262
-0.00105838
-0.000775681
-0.000567627
-0.000414556
-0.000302035
-0.000219438
-0.000158922
-0.000114688
-8.24454e-05
-5.90182e-05
-4.20562e-05
-2.98231e-05
)
;
    }
}


// ************************************************************************* //
