/*--------------------------------*- C++ -*----------------------------------*\
| =========                 |                                                 |
| \\      /  F ield         | OpenFOAM: The Open Source CFD Toolbox           |
|  \\    /   O peration     | Version:  2.4.0                                 |
|   \\  /    A nd           | Web:      www.OpenFOAM.org                      |
|    \\/     M anipulation  |                                                 |
\*---------------------------------------------------------------------------*/
FoamFile
{
    version     2.0;
    format      ascii;
    class       volScalarField;
    location    "0.001";
    object      p_rgh;
}
// * * * * * * * * * * * * * * * * * * * * * * * * * * * * * * * * * * * * * //

dimensions      [1 -1 -2 0 0 0 0];

internalField   nonuniform List<scalar> 
125
(
-0.202852
-0.202433
-0.202012
-0.20159
-0.201166
-0.200741
-0.200314
-0.199885
-0.199455
-0.199024
-0.198591
-0.198156
-0.197719
-0.197282
-0.196842
-0.196401
-0.195958
-0.195514
-0.195068
-0.19462
-0.194171
-0.19372
-0.193268
-0.192814
-0.192358
-0.1919
-0.191441
-0.190981
-0.190518
-0.190054
-0.189588
-0.189121
-0.188651
-0.18818
-0.187708
-0.187233
-0.186757
-0.186279
-0.1858
-0.185318
-0.184835
-0.18435
-0.183864
-0.183375
-0.182885
-0.182393
-0.181899
-0.181404
-0.180906
-0.180407
-0.179906
-0.179403
-0.178899
-0.178392
-0.177884
-0.177373
-0.176861
-0.176347
-0.175831
-0.175314
-0.174794
-0.174273
-0.173749
-0.173224
-0.172696
-0.172167
-0.171636
-0.171103
-0.170568
-0.170031
-0.169492
-0.168951
-0.168408
-0.167863
-0.167316
-0.166767
-0.166216
-0.165664
-0.165109
-0.164552
-0.163993
-0.163432
-0.162868
-0.162303
-0.161736
-0.161167
-0.160595
-0.160022
-0.159446
-0.158868
-0.158289
-0.157707
-0.157123
-0.156536
-0.155948
-0.155358
-0.154765
-0.15417
-0.153573
-0.152974
-0.152372
-0.151769
-0.151163
-0.150555
-0.149944
-0.149332
-0.148717
-0.1481
-0.147481
-0.146859
-0.146235
-0.145609
-0.144981
-0.14435
-0.143717
-0.143082
-0.142444
-0.141804
-0.141162
-0.140517
-0.13987
-0.139221
-0.138569
-0.137914
-0.137257
)
;

boundaryField
{
    BotWall
    {
        type            fixedFluxPressure;
        gradient        nonuniform 0();
        value           nonuniform 0();
    }
    FreeStream
    {
        type            totalPressure;
        rho             rho;
        psi             none;
        gamma           1;
        p0              nonuniform 0();
        value           nonuniform 0();
    }
    FrontNBack
    {
        type            empty;
    }
    LeftSide
    {
        type            symmetryPlane;
    }
    RightSide
    {
        type            symmetryPlane;
    }
    procBoundary6to3
    {
        type            processor;
        value           nonuniform List<scalar> 
50
(
-0.166766
-0.166215
-0.165662
-0.165107
-0.164549
-0.16399
-0.163429
-0.162866
-0.162301
-0.161733
-0.161164
-0.160592
-0.160019
-0.159443
-0.158865
-0.158285
-0.157703
-0.157119
-0.156533
-0.155944
-0.155354
-0.154761
-0.154166
-0.153569
-0.152969
-0.152368
-0.151764
-0.151158
-0.15055
-0.149939
-0.149327
-0.148712
-0.148095
-0.147475
-0.146853
-0.146229
-0.145603
-0.144975
-0.144344
-0.143711
-0.143075
-0.142437
-0.141797
-0.141154
-0.14051
-0.139862
-0.139213
-0.138561
-0.137906
-0.137249
)
;
    }
    procBoundary6to4
    {
        type            processor;
        value           nonuniform List<scalar> 
75
(
-0.202798
-0.20238
-0.20196
-0.201539
-0.201116
-0.200692
-0.200266
-0.199839
-0.19941
-0.198979
-0.198547
-0.198113
-0.197678
-0.197241
-0.196803
-0.196363
-0.195921
-0.195477
-0.195032
-0.194586
-0.194137
-0.193687
-0.193236
-0.192782
-0.192328
-0.191871
-0.191413
-0.190953
-0.190491
-0.190028
-0.189563
-0.189096
-0.188627
-0.188157
-0.187685
-0.187211
-0.186736
-0.186259
-0.18578
-0.185299
-0.184817
-0.184333
-0.183847
-0.183359
-0.182869
-0.182378
-0.181885
-0.18139
-0.180893
-0.180394
-0.179894
-0.179391
-0.178887
-0.178381
-0.177873
-0.177364
-0.176852
-0.176339
-0.175823
-0.175306
-0.174787
-0.174266
-0.173743
-0.173218
-0.172691
-0.172162
-0.171632
-0.171099
-0.170564
-0.170028
-0.169489
-0.168949
-0.168406
-0.167861
-0.167315
)
;
    }
    procBoundary6to5
    {
        type            processor;
        value           uniform -0.136598;
    }
    procBoundary6to7
    {
        type            processor;
        value           uniform -0.203269;
    }
    procBoundary6to8
    {
        type            processor;
        value           nonuniform List<scalar> 
75
(
-0.179734
-0.179233
-0.17873
-0.178226
-0.177719
-0.177211
-0.1767
-0.176188
-0.175674
-0.175158
-0.17464
-0.17412
-0.173599
-0.173075
-0.172549
-0.172022
-0.171492
-0.170961
-0.170427
-0.169892
-0.169355
-0.168815
-0.168274
-0.167731
-0.167185
-0.166638
-0.166089
-0.165537
-0.164984
-0.164428
-0.163871
-0.163311
-0.162749
-0.162186
-0.16162
-0.161052
-0.160482
-0.15991
-0.159335
-0.158759
-0.15818
-0.1576
-0.157017
-0.156432
-0.155845
-0.155256
-0.154664
-0.154071
-0.153475
-0.152877
-0.152276
-0.151674
-0.151069
-0.150462
-0.149853
-0.149242
-0.148628
-0.148012
-0.147394
-0.146773
-0.146151
-0.145526
-0.144898
-0.144269
-0.143636
-0.143002
-0.142365
-0.141726
-0.141085
-0.140441
-0.139795
-0.139146
-0.138495
-0.137842
-0.137186
)
;
    }
    procBoundary6to9
    {
        type            processor;
        value           nonuniform List<scalar> 
50
(
-0.202528
-0.202112
-0.201695
-0.201276
-0.200856
-0.200434
-0.200011
-0.199586
-0.199159
-0.198731
-0.198301
-0.19787
-0.197437
-0.197002
-0.196566
-0.196128
-0.195689
-0.195248
-0.194805
-0.19436
-0.193914
-0.193467
-0.193017
-0.192566
-0.192114
-0.191659
-0.191203
-0.190745
-0.190286
-0.189825
-0.189362
-0.188897
-0.188431
-0.187963
-0.187493
-0.187022
-0.186549
-0.186073
-0.185597
-0.185118
-0.184638
-0.184156
-0.183672
-0.183186
-0.182699
-0.182209
-0.181718
-0.181225
-0.18073
-0.180233
)
;
    }
}


// ************************************************************************* //
