/*--------------------------------*- C++ -*----------------------------------*\
| =========                 |                                                 |
| \\      /  F ield         | OpenFOAM: The Open Source CFD Toolbox           |
|  \\    /   O peration     | Version:  2.4.0                                 |
|   \\  /    A nd           | Web:      www.OpenFOAM.org                      |
|    \\/     M anipulation  |                                                 |
\*---------------------------------------------------------------------------*/
FoamFile
{
    version     2.0;
    format      ascii;
    class       surfaceScalarField;
    location    "0.001";
    object      phi;
}
// * * * * * * * * * * * * * * * * * * * * * * * * * * * * * * * * * * * * * //

dimensions      [0 3 -1 0 0 0 0];

internalField   nonuniform List<scalar> 
124
(
-6.69432e-09
-6.6943e-09
-6.69427e-09
-6.69425e-09
-6.69422e-09
-6.6942e-09
-6.69417e-09
-6.69414e-09
-6.69412e-09
-6.69409e-09
-6.69407e-09
-6.69404e-09
-6.69402e-09
-6.694e-09
-6.69397e-09
-6.69395e-09
-6.69392e-09
-6.6939e-09
-6.69387e-09
-6.69385e-09
-6.69382e-09
-6.6938e-09
-6.69378e-09
-6.69375e-09
-6.69373e-09
-6.69371e-09
-6.69368e-09
-6.69366e-09
-6.69364e-09
-6.69361e-09
-6.69359e-09
-6.69357e-09
-6.69355e-09
-6.69352e-09
-6.6935e-09
-6.69348e-09
-6.69346e-09
-6.69343e-09
-6.69341e-09
-6.69339e-09
-6.69337e-09
-6.69335e-09
-6.69333e-09
-6.69331e-09
-6.69328e-09
-6.69326e-09
-6.69324e-09
-6.69322e-09
-6.6932e-09
-6.69318e-09
-6.69316e-09
-6.69314e-09
-6.69312e-09
-6.69311e-09
-6.69309e-09
-6.69307e-09
-6.69305e-09
-6.69303e-09
-6.69301e-09
-6.69299e-09
-6.69298e-09
-6.69296e-09
-6.69294e-09
-6.69292e-09
-6.69291e-09
-6.69289e-09
-6.69287e-09
-6.69286e-09
-6.69284e-09
-6.69283e-09
-6.69281e-09
-6.6928e-09
-6.69278e-09
-6.69277e-09
-6.69275e-09
-6.69274e-09
-6.69272e-09
-6.69271e-09
-6.6927e-09
-6.69268e-09
-6.69267e-09
-6.69266e-09
-6.69265e-09
-6.69263e-09
-6.69262e-09
-6.69261e-09
-6.6926e-09
-6.69259e-09
-6.69258e-09
-6.69257e-09
-6.69256e-09
-6.69255e-09
-6.69254e-09
-6.69253e-09
-6.69252e-09
-6.69251e-09
-6.6925e-09
-6.6925e-09
-6.69249e-09
-6.69248e-09
-6.69247e-09
-6.69247e-09
-6.69246e-09
-6.69245e-09
-6.69245e-09
-6.69244e-09
-6.69244e-09
-6.69243e-09
-6.69243e-09
-6.69242e-09
-6.69242e-09
-6.69241e-09
-6.69241e-09
-6.69241e-09
-6.6924e-09
-6.6924e-09
-6.6924e-09
-6.69239e-09
-6.69239e-09
-6.69239e-09
-6.69239e-09
-6.69239e-09
-6.69238e-09
-6.69238e-09
)
;

boundaryField
{
    BotWall
    {
        type            calculated;
        value           nonuniform 0();
    }
    FreeStream
    {
        type            calculated;
        value           nonuniform 0();
    }
    FrontNBack
    {
        type            empty;
        value           nonuniform 0();
    }
    LeftSide
    {
        type            symmetryPlane;
        value           nonuniform 0();
    }
    RightSide
    {
        type            symmetryPlane;
        value           nonuniform 0();
    }
    procBoundary6to3
    {
        type            processor;
        value           nonuniform List<scalar> 
50
(
-1.3906e-15
-1.23146e-15
-1.07324e-15
-9.15881e-16
-7.59357e-16
-6.03656e-16
-4.48791e-16
-2.94789e-16
-1.41409e-16
1.15261e-17
1.62453e-16
3.11881e-16
4.59355e-16
6.05251e-16
7.49639e-16
8.92364e-16
1.03326e-15
1.17216e-15
1.30889e-15
1.44325e-15
1.57507e-15
1.70414e-15
1.83028e-15
1.9533e-15
2.07299e-15
2.18918e-15
2.30167e-15
2.41028e-15
2.51483e-15
2.61517e-15
2.71111e-15
2.80252e-15
2.88925e-15
2.97116e-15
3.04813e-15
3.12006e-15
3.18684e-15
3.24839e-15
3.30465e-15
3.35555e-15
3.40105e-15
3.44114e-15
3.47579e-15
3.50502e-15
3.52884e-15
3.5473e-15
3.5605e-15
3.5685e-15
3.57145e-15
3.56939e-15
)
;
    }
    procBoundary6to4
    {
        type            processor;
        value           nonuniform List<scalar> 
75
(
-1.40533e-14
-1.39938e-14
-1.39195e-14
-1.38327e-14
-1.37356e-14
-1.36297e-14
-1.35165e-14
-1.33971e-14
-1.32724e-14
-1.31432e-14
-1.30101e-14
-1.28734e-14
-1.27336e-14
-1.25908e-14
-1.24453e-14
-1.22972e-14
-1.21466e-14
-1.19935e-14
-1.1838e-14
-1.168e-14
-1.15196e-14
-1.13568e-14
-1.11915e-14
-1.10237e-14
-1.08535e-14
-1.06808e-14
-1.05058e-14
-1.03283e-14
-1.01485e-14
-9.96655e-15
-9.78241e-15
-9.59618e-15
-9.40797e-15
-9.21788e-15
-9.02602e-15
-8.83253e-15
-8.63755e-15
-8.44121e-15
-8.24367e-15
-8.0451e-15
-7.84567e-15
-7.64555e-15
-7.44492e-15
-7.24396e-15
-7.04285e-15
-6.84178e-15
-6.64093e-15
-6.4405e-15
-6.24065e-15
-6.04158e-15
-5.84342e-15
-5.64633e-15
-5.45042e-15
-5.25582e-15
-5.06262e-15
-4.87093e-15
-4.68084e-15
-4.49243e-15
-4.30575e-15
-4.12085e-15
-3.93776e-15
-3.75649e-15
-3.57704e-15
-3.39941e-15
-3.22357e-15
-3.04946e-15
-2.87706e-15
-2.70628e-15
-2.53707e-15
-2.36934e-15
-2.20302e-15
-2.03806e-15
-1.87438e-15
-1.71198e-15
-1.55073e-15
)
;
    }
    procBoundary6to5
    {
        type            processor;
        value           uniform -6.69238e-09;
    }
    procBoundary6to7
    {
        type            processor;
        value           uniform 6.69435e-09;
    }
    procBoundary6to8
    {
        type            processor;
        value           nonuniform List<scalar> 
75
(
-1.39269e-14
-1.39382e-14
-1.39455e-14
-1.39485e-14
-1.39471e-14
-1.39412e-14
-1.39307e-14
-1.39155e-14
-1.38955e-14
-1.38707e-14
-1.38409e-14
-1.38063e-14
-1.37667e-14
-1.37221e-14
-1.36725e-14
-1.36181e-14
-1.35587e-14
-1.34944e-14
-1.34254e-14
-1.33517e-14
-1.32733e-14
-1.31903e-14
-1.31029e-14
-1.30112e-14
-1.29153e-14
-1.28153e-14
-1.27112e-14
-1.26032e-14
-1.24914e-14
-1.2376e-14
-1.22569e-14
-1.21343e-14
-1.20084e-14
-1.18792e-14
-1.17468e-14
-1.16114e-14
-1.1473e-14
-1.13317e-14
-1.11877e-14
-1.1041e-14
-1.08916e-14
-1.07398e-14
-1.05855e-14
-1.04289e-14
-1.027e-14
-1.01089e-14
-9.94569e-15
-9.78041e-15
-9.61313e-15
-9.44388e-15
-9.27276e-15
-9.09985e-15
-8.92525e-15
-8.74908e-15
-8.57142e-15
-8.39235e-15
-8.21196e-15
-8.03032e-15
-7.84751e-15
-7.66362e-15
-7.47871e-15
-7.29286e-15
-7.10614e-15
-6.91861e-15
-6.73033e-15
-6.54136e-15
-6.35174e-15
-6.16151e-15
-5.97072e-15
-5.77939e-15
-5.58753e-15
-5.39513e-15
-5.20219e-15
-5.00868e-15
-4.81464e-15
)
;
    }
    procBoundary6to9
    {
        type            processor;
        value           nonuniform List<scalar> 
50
(
-1.12244e-14
-1.13157e-14
-1.14002e-14
-1.1479e-14
-1.15533e-14
-1.16239e-14
-1.16916e-14
-1.1757e-14
-1.18205e-14
-1.18825e-14
-1.19434e-14
-1.20034e-14
-1.20628e-14
-1.21217e-14
-1.21802e-14
-1.22386e-14
-1.22968e-14
-1.2355e-14
-1.24132e-14
-1.24714e-14
-1.25296e-14
-1.2588e-14
-1.26464e-14
-1.27048e-14
-1.27632e-14
-1.28216e-14
-1.28799e-14
-1.29381e-14
-1.2996e-14
-1.30535e-14
-1.31106e-14
-1.31671e-14
-1.3223e-14
-1.3278e-14
-1.33321e-14
-1.3385e-14
-1.34367e-14
-1.3487e-14
-1.35356e-14
-1.35825e-14
-1.36274e-14
-1.36701e-14
-1.37104e-14
-1.37483e-14
-1.37833e-14
-1.38155e-14
-1.38446e-14
-1.38704e-14
-1.38928e-14
-1.39117e-14
)
;
    }
}


// ************************************************************************* //
