/*--------------------------------*- C++ -*----------------------------------*\
| =========                 |                                                 |
| \\      /  F ield         | OpenFOAM: The Open Source CFD Toolbox           |
|  \\    /   O peration     | Version:  2.4.0                                 |
|   \\  /    A nd           | Web:      www.OpenFOAM.org                      |
|    \\/     M anipulation  |                                                 |
\*---------------------------------------------------------------------------*/
FoamFile
{
    version     2.0;
    format      ascii;
    class       volVectorField;
    location    "0.001";
    object      U;
}
// * * * * * * * * * * * * * * * * * * * * * * * * * * * * * * * * * * * * * //

dimensions      [0 1 -1 0 0 0 0];

internalField   nonuniform List<vector> 
125
(
(-3.33386e-06 -0.0334717 0)
(-3.30775e-06 -0.0334715 0)
(-3.28314e-06 -0.0334714 0)
(-3.26078e-06 -0.0334713 0)
(-3.24128e-06 -0.0334712 0)
(-3.22518e-06 -0.033471 0)
(-3.21292e-06 -0.0334709 0)
(-3.20485e-06 -0.0334708 0)
(-3.20129e-06 -0.0334707 0)
(-3.20248e-06 -0.0334705 0)
(-3.20864e-06 -0.0334704 0)
(-3.21993e-06 -0.0334703 0)
(-3.2365e-06 -0.0334702 0)
(-3.25845e-06 -0.03347 0)
(-3.28586e-06 -0.0334699 0)
(-3.31878e-06 -0.0334698 0)
(-3.35724e-06 -0.0334697 0)
(-3.40125e-06 -0.0334695 0)
(-3.45078e-06 -0.0334694 0)
(-3.5058e-06 -0.0334693 0)
(-3.56625e-06 -0.0334692 0)
(-3.63203e-06 -0.0334691 0)
(-3.70303e-06 -0.0334689 0)
(-3.77914e-06 -0.0334688 0)
(-3.86018e-06 -0.0334687 0)
(-3.946e-06 -0.0334686 0)
(-4.03639e-06 -0.0334685 0)
(-4.13115e-06 -0.0334684 0)
(-4.23003e-06 -0.0334682 0)
(-4.33278e-06 -0.0334681 0)
(-4.43915e-06 -0.033468 0)
(-4.54883e-06 -0.0334679 0)
(-4.66152e-06 -0.0334678 0)
(-4.77691e-06 -0.0334677 0)
(-4.89466e-06 -0.0334676 0)
(-5.01444e-06 -0.0334674 0)
(-5.13588e-06 -0.0334673 0)
(-5.25863e-06 -0.0334672 0)
(-5.3823e-06 -0.0334671 0)
(-5.50652e-06 -0.033467 0)
(-5.6309e-06 -0.0334669 0)
(-5.75506e-06 -0.0334668 0)
(-5.8786e-06 -0.0334667 0)
(-6.00115e-06 -0.0334666 0)
(-6.12231e-06 -0.0334665 0)
(-6.24171e-06 -0.0334664 0)
(-6.35899e-06 -0.0334663 0)
(-6.47376e-06 -0.0334662 0)
(-6.58573e-06 -0.0334661 0)
(-6.69451e-06 -0.033466 0)
(-6.79983e-06 -0.0334659 0)
(-6.90137e-06 -0.0334658 0)
(-6.99888e-06 -0.0334657 0)
(-7.09211e-06 -0.0334656 0)
(-7.18082e-06 -0.0334655 0)
(-7.26481e-06 -0.0334654 0)
(-7.3439e-06 -0.0334653 0)
(-7.41793e-06 -0.0334652 0)
(-7.48678e-06 -0.0334651 0)
(-7.55035e-06 -0.033465 0)
(-7.60857e-06 -0.0334649 0)
(-7.66138e-06 -0.0334648 0)
(-7.70877e-06 -0.0334648 0)
(-7.75075e-06 -0.0334647 0)
(-7.78734e-06 -0.0334646 0)
(-7.81859e-06 -0.0334645 0)
(-7.84459e-06 -0.0334644 0)
(-7.86543e-06 -0.0334643 0)
(-7.88123e-06 -0.0334643 0)
(-7.89211e-06 -0.0334642 0)
(-7.89822e-06 -0.0334641 0)
(-7.89969e-06 -0.033464 0)
(-7.89674e-06 -0.0334639 0)
(-7.88946e-06 -0.0334639 0)
(-7.8781e-06 -0.0334638 0)
(-7.86275e-06 -0.0334637 0)
(-7.84361e-06 -0.0334637 0)
(-7.82082e-06 -0.0334636 0)
(-7.79453e-06 -0.0334635 0)
(-7.76487e-06 -0.0334635 0)
(-7.73198e-06 -0.0334634 0)
(-7.69598e-06 -0.0334633 0)
(-7.65696e-06 -0.0334633 0)
(-7.61503e-06 -0.0334632 0)
(-7.57026e-06 -0.0334631 0)
(-7.52274e-06 -0.0334631 0)
(-7.47251e-06 -0.033463 0)
(-7.41964e-06 -0.033463 0)
(-7.36419e-06 -0.0334629 0)
(-7.30619e-06 -0.0334629 0)
(-7.24568e-06 -0.0334628 0)
(-7.1827e-06 -0.0334628 0)
(-7.11728e-06 -0.0334627 0)
(-7.04945e-06 -0.0334627 0)
(-6.97924e-06 -0.0334626 0)
(-6.90667e-06 -0.0334626 0)
(-6.83178e-06 -0.0334625 0)
(-6.75457e-06 -0.0334625 0)
(-6.67509e-06 -0.0334625 0)
(-6.59335e-06 -0.0334624 0)
(-6.50937e-06 -0.0334624 0)
(-6.42318e-06 -0.0334624 0)
(-6.33479e-06 -0.0334623 0)
(-6.24423e-06 -0.0334623 0)
(-6.15153e-06 -0.0334623 0)
(-6.05669e-06 -0.0334622 0)
(-5.95975e-06 -0.0334622 0)
(-5.86072e-06 -0.0334622 0)
(-5.75963e-06 -0.0334621 0)
(-5.65649e-06 -0.0334621 0)
(-5.55134e-06 -0.0334621 0)
(-5.44419e-06 -0.0334621 0)
(-5.33506e-06 -0.0334621 0)
(-5.22399e-06 -0.033462 0)
(-5.11098e-06 -0.033462 0)
(-4.99609e-06 -0.033462 0)
(-4.87932e-06 -0.033462 0)
(-4.76071e-06 -0.033462 0)
(-4.6403e-06 -0.033462 0)
(-4.51811e-06 -0.033462 0)
(-4.3942e-06 -0.0334619 0)
(-4.26859e-06 -0.0334619 0)
(-4.14134e-06 -0.0334619 0)
(-4.01249e-06 -0.0334619 0)
(-3.88211e-06 -0.0334619 0)
)
;

boundaryField
{
    BotWall
    {
        type            fixedValue;
        value           nonuniform 0();
    }
    FreeStream
    {
        type            zeroGradient;
    }
    FrontNBack
    {
        type            empty;
    }
    LeftSide
    {
        type            symmetryPlane;
    }
    RightSide
    {
        type            symmetryPlane;
    }
    procBoundary6to3
    {
        type            processor;
        value           nonuniform List<vector> 
50
(
(9.91484e-06 -0.0334788 0)
(9.64839e-06 -0.0334789 0)
(9.38147e-06 -0.0334789 0)
(9.11414e-06 -0.0334789 0)
(8.84649e-06 -0.0334789 0)
(8.57862e-06 -0.033479 0)
(8.31064e-06 -0.033479 0)
(8.04267e-06 -0.033479 0)
(7.77485e-06 -0.033479 0)
(7.50732e-06 -0.0334791 0)
(7.24027e-06 -0.0334791 0)
(6.97385e-06 -0.0334791 0)
(6.70827e-06 -0.0334791 0)
(6.44371e-06 -0.0334791 0)
(6.18039e-06 -0.0334792 0)
(5.91853e-06 -0.0334792 0)
(5.65836e-06 -0.0334792 0)
(5.4001e-06 -0.0334792 0)
(5.14399e-06 -0.0334793 0)
(4.89027e-06 -0.0334793 0)
(4.63918e-06 -0.0334793 0)
(4.39097e-06 -0.0334793 0)
(4.14588e-06 -0.0334793 0)
(3.90414e-06 -0.0334794 0)
(3.66598e-06 -0.0334794 0)
(3.43162e-06 -0.0334794 0)
(3.2013e-06 -0.0334794 0)
(2.9752e-06 -0.0334795 0)
(2.75354e-06 -0.0334795 0)
(2.53648e-06 -0.0334795 0)
(2.32421e-06 -0.0334795 0)
(2.11688e-06 -0.0334796 0)
(1.91463e-06 -0.0334796 0)
(1.71758e-06 -0.0334796 0)
(1.52585e-06 -0.0334796 0)
(1.33952e-06 -0.0334796 0)
(1.15866e-06 -0.0334797 0)
(9.83343e-07 -0.0334797 0)
(8.13592e-07 -0.0334797 0)
(6.49429e-07 -0.0334797 0)
(4.90853e-07 -0.0334798 0)
(3.37847e-07 -0.0334798 0)
(1.90373e-07 -0.0334798 0)
(4.83774e-08 -0.0334798 0)
(-8.82131e-08 -0.0334798 0)
(-2.19489e-07 -0.0334799 0)
(-3.45561e-07 -0.0334799 0)
(-4.66512e-07 -0.0334799 0)
(-5.82528e-07 -0.0334799 0)
(-6.93672e-07 -0.03348 0)
)
;
    }
    procBoundary6to4
    {
        type            processor;
        value           nonuniform List<vector> 
75
(
(3.12398e-05 -0.033475 0)
(3.09929e-05 -0.0334751 0)
(3.07198e-05 -0.0334752 0)
(3.04259e-05 -0.0334752 0)
(3.01161e-05 -0.0334753 0)
(2.97944e-05 -0.0334754 0)
(2.9464e-05 -0.0334755 0)
(2.91279e-05 -0.0334755 0)
(2.8788e-05 -0.0334756 0)
(2.84463e-05 -0.0334757 0)
(2.81042e-05 -0.0334757 0)
(2.77627e-05 -0.0334758 0)
(2.74226e-05 -0.0334759 0)
(2.70847e-05 -0.033476 0)
(2.67494e-05 -0.033476 0)
(2.6417e-05 -0.0334761 0)
(2.60878e-05 -0.0334762 0)
(2.57619e-05 -0.0334762 0)
(2.54393e-05 -0.0334763 0)
(2.51201e-05 -0.0334764 0)
(2.48043e-05 -0.0334764 0)
(2.44918e-05 -0.0334765 0)
(2.41826e-05 -0.0334766 0)
(2.38765e-05 -0.0334766 0)
(2.35735e-05 -0.0334767 0)
(2.32734e-05 -0.0334768 0)
(2.29762e-05 -0.0334768 0)
(2.26818e-05 -0.0334769 0)
(2.23899e-05 -0.033477 0)
(2.21006e-05 -0.033477 0)
(2.18136e-05 -0.0334771 0)
(2.1529e-05 -0.0334771 0)
(2.12465e-05 -0.0334772 0)
(2.0966e-05 -0.0334772 0)
(2.06875e-05 -0.0334773 0)
(2.04108e-05 -0.0334774 0)
(2.01359e-05 -0.0334774 0)
(1.98627e-05 -0.0334775 0)
(1.9591e-05 -0.0334775 0)
(1.93208e-05 -0.0334776 0)
(1.9052e-05 -0.0334776 0)
(1.87845e-05 -0.0334777 0)
(1.85182e-05 -0.0334777 0)
(1.82531e-05 -0.0334778 0)
(1.7989e-05 -0.0334778 0)
(1.77259e-05 -0.0334779 0)
(1.74636e-05 -0.0334779 0)
(1.72022e-05 -0.0334779 0)
(1.69415e-05 -0.033478 0)
(1.66815e-05 -0.033478 0)
(1.6422e-05 -0.0334781 0)
(1.6163e-05 -0.0334781 0)
(1.59044e-05 -0.0334781 0)
(1.56462e-05 -0.0334782 0)
(1.53882e-05 -0.0334782 0)
(1.51304e-05 -0.0334783 0)
(1.48727e-05 -0.0334783 0)
(1.4615e-05 -0.0334783 0)
(1.43573e-05 -0.0334784 0)
(1.40994e-05 -0.0334784 0)
(1.38414e-05 -0.0334784 0)
(1.35831e-05 -0.0334785 0)
(1.33245e-05 -0.0334785 0)
(1.30655e-05 -0.0334785 0)
(1.28061e-05 -0.0334785 0)
(1.25463e-05 -0.0334786 0)
(1.22859e-05 -0.0334786 0)
(1.20249e-05 -0.0334786 0)
(1.17633e-05 -0.0334787 0)
(1.15012e-05 -0.0334787 0)
(1.12384e-05 -0.0334787 0)
(1.09749e-05 -0.0334787 0)
(1.07108e-05 -0.0334788 0)
(1.04461e-05 -0.0334788 0)
(1.01808e-05 -0.0334788 0)
)
;
    }
    procBoundary6to5
    {
        type            processor;
        value           uniform (-3.75025e-06 -0.0334619 0);
    }
    procBoundary6to7
    {
        type            processor;
        value           uniform (-3.36061e-06 -0.0334718 0);
    }
    procBoundary6to8
    {
        type            processor;
        value           nonuniform List<vector> 
75
(
(-1.62099e-05 -0.0334815 0)
(-1.60426e-05 -0.0334816 0)
(-1.58728e-05 -0.0334817 0)
(-1.57004e-05 -0.0334818 0)
(-1.55257e-05 -0.033482 0)
(-1.53487e-05 -0.0334821 0)
(-1.51694e-05 -0.0334822 0)
(-1.49881e-05 -0.0334823 0)
(-1.48047e-05 -0.0334824 0)
(-1.46193e-05 -0.0334825 0)
(-1.44321e-05 -0.0334826 0)
(-1.4243e-05 -0.0334827 0)
(-1.40522e-05 -0.0334828 0)
(-1.38597e-05 -0.0334829 0)
(-1.36656e-05 -0.033483 0)
(-1.34699e-05 -0.0334831 0)
(-1.32727e-05 -0.0334832 0)
(-1.30741e-05 -0.0334833 0)
(-1.28741e-05 -0.0334834 0)
(-1.26728e-05 -0.0334835 0)
(-1.24702e-05 -0.0334836 0)
(-1.22664e-05 -0.0334837 0)
(-1.20614e-05 -0.0334838 0)
(-1.18553e-05 -0.0334839 0)
(-1.16481e-05 -0.033484 0)
(-1.144e-05 -0.0334841 0)
(-1.12309e-05 -0.0334842 0)
(-1.1021e-05 -0.0334843 0)
(-1.08103e-05 -0.0334844 0)
(-1.0599e-05 -0.0334845 0)
(-1.03871e-05 -0.0334845 0)
(-1.01747e-05 -0.0334846 0)
(-9.96183e-06 -0.0334847 0)
(-9.74873e-06 -0.0334848 0)
(-9.53544e-06 -0.0334849 0)
(-9.3221e-06 -0.033485 0)
(-9.10881e-06 -0.0334851 0)
(-8.8957e-06 -0.0334852 0)
(-8.68289e-06 -0.0334853 0)
(-8.4705e-06 -0.0334854 0)
(-8.25865e-06 -0.0334855 0)
(-8.04746e-06 -0.0334856 0)
(-7.83705e-06 -0.0334857 0)
(-7.62753e-06 -0.0334858 0)
(-7.41901e-06 -0.0334858 0)
(-7.21161e-06 -0.0334859 0)
(-7.00544e-06 -0.033486 0)
(-6.80058e-06 -0.0334861 0)
(-6.59718e-06 -0.0334862 0)
(-6.39528e-06 -0.0334863 0)
(-6.19504e-06 -0.0334864 0)
(-5.99654e-06 -0.0334864 0)
(-5.79989e-06 -0.0334865 0)
(-5.6052e-06 -0.0334866 0)
(-5.41257e-06 -0.0334867 0)
(-5.22209e-06 -0.0334868 0)
(-5.03387e-06 -0.0334868 0)
(-4.848e-06 -0.0334869 0)
(-4.66458e-06 -0.033487 0)
(-4.48368e-06 -0.0334871 0)
(-4.3054e-06 -0.0334871 0)
(-4.12981e-06 -0.0334872 0)
(-3.95699e-06 -0.0334873 0)
(-3.787e-06 -0.0334874 0)
(-3.6199e-06 -0.0334874 0)
(-3.45571e-06 -0.0334875 0)
(-3.29449e-06 -0.0334876 0)
(-3.13626e-06 -0.0334876 0)
(-2.98102e-06 -0.0334877 0)
(-2.82877e-06 -0.0334878 0)
(-2.67951e-06 -0.0334878 0)
(-2.53321e-06 -0.0334879 0)
(-2.38987e-06 -0.033488 0)
(-2.24939e-06 -0.033488 0)
(-2.11181e-06 -0.0334881 0)
)
;
    }
    procBoundary6to9
    {
        type            processor;
        value           nonuniform List<vector> 
50
(
(-1.88942e-05 -0.033476 0)
(-1.90204e-05 -0.0334762 0)
(-1.91306e-05 -0.0334763 0)
(-1.92267e-05 -0.0334764 0)
(-1.93102e-05 -0.0334765 0)
(-1.93824e-05 -0.0334767 0)
(-1.94444e-05 -0.0334768 0)
(-1.94969e-05 -0.0334769 0)
(-1.95407e-05 -0.033477 0)
(-1.95763e-05 -0.0334772 0)
(-1.96042e-05 -0.0334773 0)
(-1.96247e-05 -0.0334774 0)
(-1.96382e-05 -0.0334775 0)
(-1.96449e-05 -0.0334776 0)
(-1.9645e-05 -0.0334777 0)
(-1.96387e-05 -0.0334779 0)
(-1.96261e-05 -0.033478 0)
(-1.96073e-05 -0.0334781 0)
(-1.95826e-05 -0.0334782 0)
(-1.95519e-05 -0.0334783 0)
(-1.95155e-05 -0.0334784 0)
(-1.94734e-05 -0.0334785 0)
(-1.94256e-05 -0.0334786 0)
(-1.93724e-05 -0.0334787 0)
(-1.93138e-05 -0.0334788 0)
(-1.92498e-05 -0.033479 0)
(-1.91806e-05 -0.0334791 0)
(-1.91064e-05 -0.0334792 0)
(-1.9027e-05 -0.0334793 0)
(-1.89428e-05 -0.0334794 0)
(-1.88537e-05 -0.0334795 0)
(-1.87598e-05 -0.0334796 0)
(-1.86613e-05 -0.0334797 0)
(-1.85583e-05 -0.0334798 0)
(-1.84508e-05 -0.0334799 0)
(-1.8339e-05 -0.03348 0)
(-1.82229e-05 -0.0334801 0)
(-1.81026e-05 -0.0334802 0)
(-1.79783e-05 -0.0334803 0)
(-1.78501e-05 -0.0334804 0)
(-1.77181e-05 -0.0334805 0)
(-1.75823e-05 -0.0334806 0)
(-1.74429e-05 -0.0334807 0)
(-1.72999e-05 -0.0334808 0)
(-1.71536e-05 -0.0334809 0)
(-1.7004e-05 -0.033481 0)
(-1.68511e-05 -0.0334811 0)
(-1.66952e-05 -0.0334812 0)
(-1.65363e-05 -0.0334813 0)
(-1.63745e-05 -0.0334814 0)
)
;
    }
}


// ************************************************************************* //
