/*--------------------------------*- C++ -*----------------------------------*\
| =========                 |                                                 |
| \\      /  F ield         | OpenFOAM: The Open Source CFD Toolbox           |
|  \\    /   O peration     | Version:  2.4.0                                 |
|   \\  /    A nd           | Web:      www.OpenFOAM.org                      |
|    \\/     M anipulation  |                                                 |
\*---------------------------------------------------------------------------*/
FoamFile
{
    version     2.0;
    format      ascii;
    class       volScalarField;
    location    "0.3";
    object      H;
}
// * * * * * * * * * * * * * * * * * * * * * * * * * * * * * * * * * * * * * //

dimensions      [0 2 -2 0 0 0 0];

internalField   nonuniform List<scalar> 
8000
(
-11739.6
-10763.7
-9802.32
-8864.85
-7959.84
-7094.96
-6276.76
-5510.53
-4800.21
-4148.36
-3556.21
-3023.72
-2549.7
-2132.01
-1767.66
-1453.05
-1184.12
-956.569
-765.965
-607.92
-478.193
-372.783
-287.994
-220.477
-167.256
-125.724
-93.6404
-69.1035
-50.5264
-36.6024
-26.2702
-18.6799
-13.1594
-9.18426
-6.35032
-4.34999
-2.95202
-1.98464
-1.32179
-0.871982
-0.569625
-0.368166
-0.23491
-0.147083
-0.0889246
-0.0495979
-0.0217413
-0.000199306
-1.95521e-06
-1.70913e-06
-11739.5
-10763.3
-9801.69
-8863.91
-7958.56
-7093.33
-6274.77
-5508.18
-4797.52
-4145.37
-3552.96
-3020.27
-2546.13
-2128.37
-1764.03
-1449.48
-1180.69
-953.312
-762.926
-605.128
-475.666
-370.528
-286.01
-218.757
-165.785
-124.483
-92.6063
-68.2535
-49.8366
-36.0497
-25.8329
-18.3381
-12.8956
-8.98312
-6.19879
-4.23719
-2.86903
-1.92428
-1.27836
-0.841046
-0.547755
-0.352743
-0.223935
-0.139
-0.0824818
-0.0439191
-0.0171134
-0.000157002
-1.6701e-06
-1.5472e-06
-11739.3
-10762.8
-9800.87
-8862.7
-7956.93
-7091.25
-6272.24
-5505.21
-4794.14
-4141.62
-3548.91
-3015.99
-2541.69
-2123.87
-1759.55
-1445.1
-1176.48
-949.33
-759.22
-601.731
-472.599
-367.799
-283.617
-216.687
-164.018
-122.996
-91.3714
-67.2412
-49.0175
-35.3952
-25.3166
-17.936
-12.5862
-8.74794
-6.02221
-4.10618
-2.77297
-1.85465
-1.22843
-0.80557
-0.522689
-0.334978
-0.211029
-0.128887
-0.0730749
-0.0326328
-0.000299762
-2.83112e-06
-2.32438e-06
-2.00369e-06
-11739.1
-10762.3
-9799.89
-8861.28
-7955.02
-7088.83
-6269.3
-5501.77
-4790.23
-4137.29
-3544.24
-3011.06
-2536.61
-2118.72
-1754.43
-1440.1
-1171.68
-944.801
-755.011
-597.881
-469.129
-364.718
-280.92
-214.359
-162.037
-121.332
-89.9929
-66.1141
-48.1079
-34.6706
-24.7467
-17.4933
-12.2467
-8.49074
-5.82974
-3.96388
-2.66899
-1.77953
-1.17471
-0.767466
-0.495732
-0.315743
-0.196899
-0.117894
-0.0639126
-0.025495
-0.000233155
-2.32336e-06
-2.14842e-06
-1.75867e-06
-11738.9
-10761.6
-9798.75
-8859.62
-7952.81
-7086.04
-6265.92
-5497.83
-4785.76
-4132.36
-3538.93
-3005.47
-2530.85
-2112.9
-1748.65
-1434.47
-1166.28
-939.716
-750.294
-593.573
-465.253
-361.282
-277.918
-211.773
-159.84
-119.491
-88.4711
-64.8726
-47.1085
-33.8765
-24.1238
-17.0109
-11.8777
-8.21212
-5.6219
-3.81071
-2.55743
-1.69917
-1.11737
-0.726788
-0.466827
-0.294821
-0.180888
-0.103791
-0.0475421
-0.000436528
-4.0908e-06
-2.98198e-06
-2.48097e-06
-1.78437e-06
-11738.7
-10760.8
-9797.42
-8857.68
-7950.24
-7082.81
-6262.04
-5493.3
-4780.64
-4126.74
-3532.89
-2999.13
-2524.32
-2106.31
-1742.12
-1428.12
-1160.21
-934.001
-745.003
-588.748
-460.921
-357.449
-274.575
-208.9
-157.404
-117.455
-86.7917
-63.5061
-46.0113
-33.0071
-23.4437
-16.4858
-11.4774
-7.9108
-5.39787
-3.64616
-2.43797
-1.61333
-1.05616
-0.683237
-0.435495
-0.271411
-0.161936
-0.0870367
-0.0344195
-0.000314784
-3.13498e-06
-2.89004e-06
-2.44171e-06
-1.84724e-06
-11738.4
-10759.9
-9795.9
-8855.48
-7947.33
-7079.16
-6257.66
-5488.22
-4774.92
-4120.45
-3526.15
-2992.06
-2517.06
-2099
-1734.9
-1421.1
-1153.5
-927.702
-739.18
-583.449
-456.171
-353.255
-270.925
-205.768
-154.756
-115.246
-84.9743
-62.0313
-44.8305
-32.0741
-22.7163
-15.926
-11.0521
-7.59178
-5.16155
-3.47319
-2.31276
-1.52351
-0.992028
-0.63721
-0.401628
-0.244874
-0.138392
-0.0615186
-0.000563534
-5.32727e-06
-4.16493e-06
-3.52577e-06
-2.57858e-06
-2.05848e-06
-11738
-10758.9
-9794.16
-8852.99
-7944.03
-7075.05
-6252.73
-5482.52
-4768.52
-4113.44
-3518.66
-2984.22
-2509.02
-2090.91
-1726.91
-1413.36
-1146.12
-920.782
-732.795
-577.649
-450.983
-348.683
-266.955
-202.371
-151.889
-112.862
-83.0185
-60.4488
-43.5674
-31.0795
-21.9435
-15.3334
-10.6037
-7.25667
-4.91424
-3.29277
-2.18244
-1.42997
-0.924789
-0.587987
-0.36384
-0.213643
-0.111497
-0.0010231
-9.49073e-06
-4.29396e-06
-3.8602e-06
-3.18703e-06
-2.48384e-06
-2.16469e-06
-11737.7
-10757.8
-9792.2
-8850.18
-7940.33
-7070.45
-6247.24
-5476.19
-4761.41
-4105.68
-3510.37
-2975.56
-2500.16
-2082.03
-1718.16
-1404.88
-1138.06
-913.233
-725.843
-571.347
-445.358
-343.737
-262.671
-198.714
-148.813
-110.31
-80.9313
-58.7655
-42.2284
-30.0289
-21.1302
-14.7122
-10.1353
-6.90807
-4.65788
-3.10624
-2.04772
-1.33277
-0.853738
-0.533853
-0.318677
-0.170756
-0.0680402
-0.000622178
-6.12704e-06
-5.5668e-06
-4.824e-06
-3.60347e-06
-2.98531e-06
-2.57438e-06
-11737.2
-10756.5
-9790.01
-8847.03
-7936.21
-7065.34
-6241.16
-5469.18
-4753.58
-4097.14
-3501.27
-2966.08
-2490.48
-2072.33
-1708.62
-1395.67
-1129.31
-905.058
-718.331
-564.553
-439.308
-338.431
-258.087
-194.812
-145.539
-107.603
-78.7248
-56.9921
-40.8229
-28.9303
-20.2831
-14.0678
-9.65153
-6.54933
-4.39481
-2.91493
-1.90895
-1.23116
-0.776859
-0.470971
-0.259267
-0.106526
-0.000976685
-9.35263e-06
-7.92524e-06
-6.80702e-06
-5.06042e-06
-3.93869e-06
-3.29581e-06
-2.77397e-06
-11736.8
-10755
-9787.56
-8843.54
-7931.63
-7059.68
-6234.44
-5461.47
-4744.98
-4087.79
-3491.33
-2955.74
-2479.94
-2061.79
-1698.28
-1385.7
-1119.86
-896.253
-710.258
-557.269
-432.838
-332.772
-253.212
-190.675
-142.08
-104.752
-76.4094
-55.1382
-39.3594
-27.7911
-19.4085
-13.4053
-9.15603
-6.18303
-4.12644
-2.71901
-1.76487
-1.12225
-0.689168
-0.390348
-0.168347
-0.00154278
-1.45478e-05
-1.10207e-05
-8.96554e-06
-6.76215e-06
-4.98933e-06
-4.03726e-06
-3.30029e-06
-2.66785e-06
-11736.2
-10753.4
-9784.84
-8839.67
-7926.59
-7053.45
-6227.07
-5453.04
-4735.59
-4077.59
-3480.52
-2944.52
-2468.53
-2050.41
-1687.13
-1374.98
-1109.72
-886.829
-701.64
-549.514
-425.968
-326.781
-248.067
-186.323
-138.453
-101.774
-74.0001
-53.217
-37.8492
-26.6205
-18.5137
-12.7301
-8.65273
-5.81135
-3.85315
-2.51683
-1.61149
-0.999435
-0.580238
-0.268447
-0.0024597
-2.29978e-05
-1.48502e-05
-1.15071e-05
-8.88104e-06
-6.27679e-06
-4.81171e-06
-3.67341e-06
-2.66989e-06
-1.77829e-06
-11735.6
-10751.7
-9781.84
-8835.41
-7921.04
-7046.63
-6219.02
-5443.83
-4725.37
-4066.53
-3468.82
-2932.41
-2456.23
-2038.17
-1675.17
-1363.5
-1098.89
-876.791
-692.485
-541.299
-418.713
-320.475
-242.669
-181.773
-134.676
-98.6848
-71.5108
-51.2404
-36.3023
-25.4268
-17.6049
-12.0467
-8.14382
-5.43424
-3.5722
-2.30239
-1.43917
-0.84954
-0.426776
-0.00391737
-3.64349e-05
-1.91867e-05
-1.51602e-05
-1.19322e-05
-7.89479e-06
-5.32134e-06
-3.25338e-06
-1.39868e-06
2.6112e-07
1.72366e-06
-11735
-10749.7
-9778.54
-8830.72
-7914.97
-7039.17
-6210.24
-5433.83
-4714.29
-4054.57
-3456.19
-2919.36
-2443.03
-2025.05
-1662.39
-1351.26
-1087.38
-866.146
-682.804
-532.638
-411.089
-313.869
-237.035
-177.042
-130.764
-95.499
-68.955
-49.2201
-34.7281
-24.2172
-16.687
-11.3572
-7.62862
-5.04741
-3.27481
-2.06159
-1.22886
-0.654336
-0.261014
-0.0023958
-2.44025e-05
-2.09183e-05
-1.61301e-05
-9.24677e-06
-4.31216e-06
-1.85198e-07
3.55428e-06
6.91578e-06
9.88647e-06
1.24624e-05
-11734.3
-10747.5
-9774.91
-8825.59
-7908.32
-7031.04
-6200.68
-5422.97
-4702.3
-4041.64
-3442.58
-2905.33
-2428.86
-2011.02
-1648.75
-1338.24
-1075.17
-854.884
-672.593
-523.533
-403.101
-306.974
-231.177
-172.143
-126.73
-92.2283
-66.3429
-47.1646
-33.1333
-22.9957
-15.7611
-10.6594
-7.10027
-4.63795
-2.94043
-1.76617
-0.948133
-0.381124
-0.00350893
-3.53237e-05
-2.91475e-05
-2.09417e-05
-8.67816e-06
1.02006e-06
9.58068e-06
1.75008e-05
2.47245e-05
3.11936e-05
3.68735e-05
4.17467e-05
-11733.5
-10745.2
-9770.92
-8819.97
-7901.05
-7022.17
-6190.29
-5411.19
-4689.31
-4027.68
-3427.92
-2890.26
-2413.68
-1996.03
-1634.21
-1324.4
-1062.22
-842.984
-661.841
-513.978
-394.75
-299.793
-225.102
-167.084
-122.583
-88.8813
-63.6821
-45.0797
-31.5211
-21.7623
-14.823
-9.9429
-6.54029
-4.17655
-2.52812
-1.36836
-0.554383
-0.00510002
-5.07636e-05
-4.00788e-05
-2.5584e-05
-3.33866e-06
1.57989e-05
3.37711e-05
5.09732e-05
6.71154e-05
8.19597e-05
9.53148e-05
0.000107032
0.000117017
-11732.6
-10742.6
-9766.54
-8813.8
-7893.1
-7012.48
-6178.96
-5398.38
-4675.23
-4012.59
-3412.11
-2874.05
-2397.4
-1979.99
-1618.7
-1309.68
-1048.5
-830.414
-650.523
-503.959
-386.028
-292.325
-218.81
-161.869
-118.328
-85.4633
-60.9765
-42.9668
-29.8892
-20.5096
-13.8578
-9.18209
-5.9079
-3.60494
-1.96777
-0.803731
-0.00738954
-7.2923e-05
-5.59089e-05
-3.21789e-05
8.71416e-06
4.71689e-05
8.57229e-05
0.000124291
0.000161811
0.000197347
0.000230089
0.000259394
0.000284839
0.000306211
-11731.7
-10739.7
-9761.73
-8807.03
-7884.39
-7001.89
-6166.61
-5384.45
-4659.95
-3996.25
-3395.03
-2856.59
-2379.9
-1962.8
-1602.15
-1294.02
-1033.95
-817.132
-638.609
-493.455
-376.923
-284.563
-212.302
-156.5
-113.968
-81.9762
-58.2259
-40.8217
-28.2271
-19.2177
-12.8316
-8.32307
-5.12355
-2.82276
-1.16295
-0.0106869
-0.000104761
-7.8446e-05
-2.909e-06
9.19899e-06
0.000105418
0.00019758
0.000288897
0.000378272
0.000463817
0.000543452
0.000615445
0.000678661
0.000732532
0.000776912
-11730.6
-10736.5
-9756.42
-8799.57
-7874.82
-6990.28
-6153.1
-5369.23
-4643.31
-3978.5
-3376.54
-2837.74
-2361.07
-1944.37
-1584.44
-1277.32
-1018.5
-803.084
-626.061
-482.44
-367.418
-276.499
-205.573
-150.975
-109.503
-78.4175
-55.4232
-38.6298
-26.5093
-17.8448
-11.6786
-7.26557
-4.05119
-1.68683
-0.0154942
-0.000151578
-0.00014043
-8.39428e-05
1.3612e-05
0.000227025
0.000436024
0.000647986
0.0008587
0.00106214
0.00125253
0.0014256
0.00157881
0.00171096
0.00182179
0.00191158
-11729.5
-10733
-9750.55
-8791.34
-7864.26
-6977.5
-6138.26
-5352.58
-4625.14
-3959.18
-3356.46
-2817.33
-2340.76
-1924.54
-1565.46
-1259.51
-1002.07
-788.214
-612.838
-470.886
-357.497
-268.124
-198.62
-145.293
-104.927
-74.7784
-52.5513
-36.3616
-24.6881
-16.3176
-10.2876
-5.84592
-2.48179
-0.0227852
-0.000225941
-0.000433566
-0.00030621
7.01801e-05
0.000481939
0.000931469
0.00141191
0.00189951
0.00237294
0.00281676
0.00322156
0.00358246
0.00389747
0.00416616
0.00438907
0.0045673
-1.20808e-06
-1.05443e-06
-9.33527e-07
-8.25801e-07
-7.29848e-07
-6.44412e-07
-5.68387e-07
-5.00858e-07
-4.40953e-07
-3.87937e-07
-3.41068e-07
-2.99691e-07
-2.63246e-07
-2.31189e-07
-2.02992e-07
-1.78238e-07
-1.56553e-07
-1.3751e-07
-1.20841e-07
-1.06265e-07
-9.35085e-08
-8.23201e-08
-7.25222e-08
-6.39818e-08
-5.64789e-08
-4.98719e-08
-4.41437e-08
-3.9059e-08
-3.46271e-08
-3.07093e-08
-2.72618e-08
-2.4211e-08
-2.15264e-08
-1.91639e-08
-1.70316e-08
-1.5184e-08
-1.3533e-08
-1.20579e-08
-1.07236e-08
-9.57139e-09
-8.53848e-09
-7.57808e-09
-6.78205e-09
-6.02869e-09
-5.33778e-09
-4.77277e-09
-4.20057e-09
-3.77463e-09
-3.34125e-09
-2.96483e-09
-1.09859e-06
-9.88234e-07
-8.87112e-07
-7.92591e-07
-7.05471e-07
-6.26014e-07
-5.54188e-07
-4.89709e-07
-4.3205e-07
-3.80694e-07
-3.35078e-07
-2.94702e-07
-2.58986e-07
-2.27403e-07
-1.99601e-07
-1.75086e-07
-1.53497e-07
-1.34554e-07
-1.17899e-07
-1.033e-07
-9.05181e-08
-7.92874e-08
-6.94728e-08
-6.08727e-08
-5.33847e-08
-4.67713e-08
-4.11057e-08
-3.60345e-08
-3.16579e-08
-2.78425e-08
-2.44685e-08
-2.15416e-08
-1.8988e-08
-1.67274e-08
-1.47476e-08
-1.30057e-08
-1.1502e-08
-1.01602e-08
-8.97149e-09
-7.94562e-09
-7.0178e-09
-6.22098e-09
-5.52113e-09
-4.88412e-09
-4.30375e-09
-3.82599e-09
-3.37814e-09
-3.00344e-09
-2.65414e-09
-2.34835e-09
-1.3918e-06
-1.20435e-06
-1.04319e-06
-9.04204e-07
-7.8459e-07
-6.81668e-07
-5.93025e-07
-5.16657e-07
-4.5062e-07
-3.93391e-07
-3.43696e-07
-3.0041e-07
-2.62618e-07
-2.29595e-07
-2.00736e-07
-1.75416e-07
-1.53303e-07
-1.33893e-07
-1.16945e-07
-1.02083e-07
-8.9087e-08
-7.77708e-08
-6.78512e-08
-5.91758e-08
-5.16481e-08
-4.5033e-08
-3.93277e-08
-3.43051e-08
-2.99475e-08
-2.61369e-08
-2.28119e-08
-1.99673e-08
-1.74293e-08
-1.52399e-08
-1.33238e-08
-1.16737e-08
-1.02259e-08
-8.95701e-09
-7.84121e-09
-6.89588e-09
-6.03954e-09
-5.32777e-09
-4.64557e-09
-4.08561e-09
-3.6137e-09
-3.15292e-09
-2.79828e-09
-2.43716e-09
-2.16261e-09
-1.92113e-09
-1.34758e-06
-1.19534e-06
-1.0565e-06
-9.31087e-07
-8.18689e-07
-7.18558e-07
-6.29666e-07
-5.51035e-07
-4.81614e-07
-4.20481e-07
-3.6678e-07
-3.19647e-07
-2.78386e-07
-2.42292e-07
-2.10721e-07
-1.83231e-07
-1.59269e-07
-1.38354e-07
-1.20181e-07
-1.04361e-07
-9.06086e-08
-7.86353e-08
-6.82845e-08
-5.92483e-08
-5.14284e-08
-4.46283e-08
-3.87367e-08
-3.36092e-08
-2.91753e-08
-2.53111e-08
-2.19898e-08
-1.90688e-08
-1.65668e-08
-1.44063e-08
-1.25021e-08
-1.08696e-08
-9.43502e-09
-8.24014e-09
-7.12806e-09
-6.22251e-09
-5.42931e-09
-4.71074e-09
-4.10818e-09
-3.58168e-09
-3.12882e-09
-2.7478e-09
-2.3547e-09
-2.09873e-09
-1.8172e-09
-1.592e-09
-1.44129e-06
-1.2507e-06
-1.09079e-06
-9.54696e-07
-8.37374e-07
-7.35151e-07
-6.45374e-07
-5.66204e-07
-4.96221e-07
-4.34314e-07
-3.79625e-07
-3.3139e-07
-2.88931e-07
-2.51601e-07
-2.18898e-07
-1.90223e-07
-1.65195e-07
-1.43328e-07
-1.24279e-07
-1.07687e-07
-9.32853e-08
-8.07299e-08
-6.98485e-08
-6.04215e-08
-5.22042e-08
-4.51246e-08
-3.90227e-08
-3.36917e-08
-2.91025e-08
-2.51302e-08
-2.17032e-08
-1.87355e-08
-1.61815e-08
-1.39711e-08
-1.20588e-08
-1.04302e-08
-8.98855e-09
-7.78737e-09
-6.70786e-09
-5.8251e-09
-5.01527e-09
-4.33486e-09
-3.75578e-09
-3.26354e-09
-2.79903e-09
-2.44628e-09
-2.11347e-09
-1.82584e-09
-1.59935e-09
-1.3871e-09
-1.60289e-06
-1.41168e-06
-1.23889e-06
-1.0843e-06
-9.46996e-07
-8.25694e-07
-7.18968e-07
-6.25308e-07
-5.43348e-07
-4.71718e-07
-4.09211e-07
-3.54746e-07
-3.07372e-07
-2.66173e-07
-2.30336e-07
-1.99265e-07
-1.72261e-07
-1.48875e-07
-1.28574e-07
-1.11015e-07
-9.57858e-08
-8.26074e-08
-7.12294e-08
-6.13812e-08
-5.28656e-08
-4.55166e-08
-3.91597e-08
-3.37281e-08
-2.89996e-08
-2.49442e-08
-2.14504e-08
-1.8445e-08
-1.58367e-08
-1.36187e-08
-1.17079e-08
-1.00429e-08
-8.64622e-09
-7.41781e-09
-6.38314e-09
-5.47525e-09
-4.71714e-09
-4.04703e-09
-3.47872e-09
-2.99069e-09
-2.56609e-09
-2.23208e-09
-1.92054e-09
-1.63132e-09
-1.40219e-09
-1.21822e-09
-1.76816e-06
-1.52995e-06
-1.32705e-06
-1.15301e-06
-1.00282e-06
-8.72547e-07
-7.59042e-07
-6.59874e-07
-5.73102e-07
-4.97135e-07
-4.30683e-07
-3.72598e-07
-3.21952e-07
-2.77848e-07
-2.39506e-07
-2.06192e-07
-1.77364e-07
-1.52452e-07
-1.30879e-07
-1.12333e-07
-9.63272e-08
-8.25552e-08
-7.07003e-08
-6.05262e-08
-5.18197e-08
-4.43415e-08
-3.7901e-08
-3.24154e-08
-2.772e-08
-2.37125e-08
-2.02175e-08
-1.73201e-08
-1.47803e-08
-1.26074e-08
-1.08015e-08
-9.19739e-09
-7.89473e-09
-6.71942e-09
-5.76114e-09
-4.89709e-09
-4.218e-09
-3.56936e-09
-3.07754e-09
-2.62357e-09
-2.23514e-09
-1.93017e-09
-1.64581e-09
-1.40034e-09
-1.19023e-09
-1.04523e-09
-1.91125e-06
-1.6796e-06
-1.46887e-06
-1.27918e-06
-1.10992e-06
-9.59961e-07
-8.27959e-07
-7.1233e-07
-6.11481e-07
-5.23884e-07
-4.4799e-07
-3.82498e-07
-3.26023e-07
-2.77524e-07
-2.35897e-07
-2.00228e-07
-1.69789e-07
-1.43801e-07
-1.21643e-07
-1.02812e-07
-8.68312e-08
-7.32493e-08
-6.17777e-08
-5.20421e-08
-4.38234e-08
-3.68908e-08
-3.10328e-08
-2.61192e-08
-2.19488e-08
-1.84702e-08
-1.55164e-08
-1.30797e-08
-1.09958e-08
-9.23565e-09
-7.78617e-09
-6.55618e-09
-5.53733e-09
-4.63941e-09
-3.91792e-09
-3.31808e-09
-2.80811e-09
-2.34484e-09
-2.02569e-09
-1.71459e-09
-1.41738e-09
-1.19115e-09
-1.04098e-09
-8.94035e-10
-7.47471e-10
-6.59544e-10
-2.21748e-06
-1.90219e-06
-1.62555e-06
-1.38447e-06
-1.17531e-06
-9.94633e-07
-8.38992e-07
-7.05332e-07
-5.90895e-07
-4.93125e-07
-4.09854e-07
-3.39196e-07
-2.79375e-07
-2.28955e-07
-1.8662e-07
-1.5122e-07
-1.2177e-07
-9.73531e-08
-7.72095e-08
-6.07718e-08
-4.72839e-08
-3.64095e-08
-2.76769e-08
-2.06618e-08
-1.51151e-08
-1.07907e-08
-7.39777e-09
-4.7841e-09
-2.8234e-09
-1.34198e-09
-2.59547e-10
4.79116e-10
1.02178e-09
1.34351e-09
1.54393e-09
1.63464e-09
1.65612e-09
1.61196e-09
1.52307e-09
1.45195e-09
1.33085e-09
1.19421e-09
1.09603e-09
9.92856e-10
8.60586e-10
7.82676e-10
6.54028e-10
5.89806e-10
4.89433e-10
4.53285e-10
-2.32587e-06
-1.9403e-06
-1.60876e-06
-1.32399e-06
-1.07979e-06
-8.70856e-07
-6.9292e-07
-5.4201e-07
-4.14883e-07
-3.0867e-07
-2.20605e-07
-1.48432e-07
-9.00204e-08
-4.333e-08
-6.72969e-09
2.14452e-08
4.24553e-08
5.75989e-08
6.79589e-08
7.44083e-08
7.77259e-08
7.86229e-08
7.76595e-08
7.53161e-08
7.19423e-08
6.79115e-08
6.34231e-08
5.87342e-08
5.39434e-08
4.92465e-08
4.46605e-08
4.02741e-08
3.61751e-08
3.23302e-08
2.87788e-08
2.55055e-08
2.25388e-08
1.98868e-08
1.74267e-08
1.52618e-08
1.33424e-08
1.16341e-08
1.00824e-08
8.76803e-09
7.57422e-09
6.56303e-09
5.6464e-09
4.87202e-09
4.17209e-09
3.57632e-09
-2.1187e-06
-1.64172e-06
-1.22874e-06
-8.73441e-07
-5.70426e-07
-3.14975e-07
-1.02531e-07
7.11945e-08
2.10454e-07
3.19307e-07
4.01641e-07
4.61127e-07
5.01149e-07
5.24828e-07
5.35017e-07
5.34214e-07
5.24676e-07
5.08335e-07
4.86896e-07
4.61822e-07
4.34226e-07
4.05217e-07
3.75618e-07
3.45999e-07
3.16982e-07
2.88917e-07
2.62081e-07
2.36722e-07
2.12959e-07
1.90878e-07
1.70455e-07
1.51752e-07
1.34655e-07
1.19159e-07
1.0515e-07
9.25642e-08
8.12425e-08
7.1202e-08
6.22281e-08
5.42566e-08
4.72382e-08
4.10559e-08
3.56187e-08
3.08267e-08
2.66507e-08
2.30168e-08
1.98307e-08
1.70779e-08
1.46649e-08
1.2614e-08
-9.93191e-07
-3.10602e-07
2.73967e-07
7.65692e-07
1.17083e-06
1.49611e-06
1.74897e-06
1.93685e-06
2.0673e-06
2.14772e-06
2.18514e-06
2.18614e-06
2.157e-06
2.10325e-06
2.03006e-06
1.94193e-06
1.84289e-06
1.73639e-06
1.62545e-06
1.51258e-06
1.39987e-06
1.28901e-06
1.18132e-06
1.07792e-06
9.79527e-07
8.86679e-07
7.99723e-07
7.18838e-07
6.44038e-07
5.7526e-07
5.12331e-07
4.55038e-07
4.03113e-07
3.56216e-07
3.14029e-07
2.76213e-07
2.4245e-07
2.12382e-07
1.85652e-07
1.62013e-07
1.41138e-07
1.22686e-07
1.06568e-07
9.23678e-08
7.99437e-08
6.91386e-08
5.96439e-08
5.14312e-08
4.4324e-08
3.80898e-08
2.98972e-06
4.06408e-06
4.95455e-06
5.6716e-06
6.22744e-06
6.63563e-06
6.91029e-06
7.06602e-06
7.11725e-06
7.07816e-06
6.96228e-06
6.78255e-06
6.55094e-06
6.27844e-06
5.97511e-06
5.64994e-06
5.31078e-06
4.96454e-06
4.61712e-06
4.27341e-06
3.93751e-06
3.61268e-06
3.30139e-06
3.00553e-06
2.72643e-06
2.46487e-06
2.22123e-06
1.99554e-06
1.7876e-06
1.59685e-06
1.42274e-06
1.26439e-06
1.12099e-06
9.91543e-07
8.75167e-07
7.70811e-07
6.77564e-07
5.94463e-07
5.20577e-07
4.55096e-07
3.97188e-07
3.46102e-07
3.01126e-07
2.61607e-07
2.26942e-07
1.96647e-07
1.70168e-07
1.47066e-07
1.26966e-07
1.09501e-07
1.46474e-05
1.64523e-05
1.78932e-05
1.89909e-05
1.97695e-05
2.02556e-05
2.0477e-05
2.04628e-05
2.02419e-05
1.9843e-05
1.92939e-05
1.86212e-05
1.78498e-05
1.7003e-05
1.61019e-05
1.51654e-05
1.42105e-05
1.32518e-05
1.23019e-05
1.13712e-05
1.04684e-05
9.60021e-06
8.77195e-06
7.98742e-06
7.24901e-06
6.55821e-06
5.91545e-06
5.32043e-06
4.7722e-06
4.26932e-06
3.80994e-06
3.39186e-06
3.0128e-06
2.67029e-06
2.36176e-06
2.08475e-06
1.83671e-06
1.61523e-06
1.41795e-06
1.24274e-06
1.08738e-06
9.50013e-07
8.28773e-07
7.2199e-07
6.28133e-07
5.4579e-07
4.73632e-07
4.10556e-07
3.55496e-07
3.07483e-07
4.58132e-05
4.90888e-05
5.16031e-05
5.33963e-05
5.4517e-05
5.50197e-05
5.49627e-05
5.44069e-05
5.34143e-05
5.20462e-05
5.03628e-05
4.8422e-05
4.62785e-05
4.3983e-05
4.15825e-05
3.9119e-05
3.66299e-05
3.41479e-05
3.1701e-05
2.93124e-05
2.70015e-05
2.47833e-05
2.26694e-05
2.0668e-05
1.87846e-05
1.7022e-05
1.53808e-05
1.38601e-05
1.24572e-05
1.11685e-05
9.9892e-06
8.91405e-06
7.93729e-06
7.05277e-06
6.2543e-06
5.53556e-06
4.8904e-06
4.31286e-06
3.7971e-06
3.33762e-06
2.92921e-06
2.56695e-06
2.24629e-06
1.96306e-06
1.71326e-06
1.49345e-06
1.30025e-06
1.13084e-06
9.82422e-07
8.52638e-07
0.000125235
0.000131701
0.000136473
0.000139637
0.000141304
0.000141596
0.000140647
0.000138593
0.000135575
0.000131731
0.000127197
0.000122102
0.00011657
0.000110716
0.000104645
9.84528e-05
9.22229e-05
8.60296e-05
7.99363e-05
7.39962e-05
6.82528e-05
6.27405e-05
5.74858e-05
5.25073e-05
4.78175e-05
4.34227e-05
3.93246e-05
3.55204e-05
3.20043e-05
2.87674e-05
2.57987e-05
2.30857e-05
2.06146e-05
1.83709e-05
1.63398e-05
1.45064e-05
1.28559e-05
1.13738e-05
1.00461e-05
8.8596e-06
7.80152e-06
6.85994e-06
6.02371e-06
5.28247e-06
4.62664e-06
4.04735e-06
3.53655e-06
3.08688e-06
2.6916e-06
2.34471e-06
0.000323466
0.000336685
0.000346035
0.000351742
0.000354069
0.000353306
0.000349761
0.000343748
0.000335586
0.00032559
0.000314066
0.000301308
0.000287594
0.000273182
0.00025831
0.000243192
0.000228019
0.000212956
0.000198148
0.000183715
0.000169755
0.000156348
0.000143554
0.000131416
0.000119963
0.00010921
9.91628e-05
8.98153e-05
8.11544e-05
7.31607e-05
6.58096e-05
5.90723e-05
5.29176e-05
4.73123e-05
4.22221e-05
3.76124e-05
3.34486e-05
2.9697e-05
2.63246e-05
2.33e-05
2.05931e-05
1.81754e-05
1.60203e-05
1.41027e-05
1.23996e-05
1.08895e-05
9.55274e-06
8.37128e-06
7.32869e-06
6.40993e-06
0.000811943
0.000837955
0.000855402
0.000864828
0.000866835
0.000862073
0.000851222
0.000834976
0.000814036
0.000789094
0.000760823
0.000729869
0.000696843
0.000662313
0.000626803
0.000590786
0.000554683
0.000518865
0.00048365
0.000449308
0.000416061
0.000384088
0.000353528
0.00032448
0.000297013
0.000271166
0.000246953
0.000224365
0.000203377
0.000183947
0.000166023
0.000149543
0.000134437
0.000120631
0.00010805
9.66147e-05
8.62473e-05
7.68706e-05
6.84093e-05
6.07907e-05
5.39452e-05
4.78063e-05
4.23117e-05
3.74026e-05
3.30242e-05
2.91257e-05
2.56599e-05
2.25836e-05
1.9857e-05
1.74438e-05
0.00198096
0.00203082
0.00206221
0.00207632
0.00207447
0.00205806
0.00202856
0.00198744
0.00193621
0.00187637
0.00180934
0.00173653
0.00165924
0.0015787
0.00149604
0.00141229
0.00132837
0.00124508
0.00116313
0.00108311
0.00100552
0.00093076
0.000859142
0.000790904
0.000726209
0.000665156
0.000607789
0.000554103
0.000504053
0.00045756
0.000414516
0.000374792
0.000338244
0.000304713
0.000274034
0.000246036
0.000220548
0.000197399
0.000176421
0.000157451
0.000140331
0.00012491
0.000111046
9.86035e-05
8.74554e-05
7.74834e-05
6.85773e-05
6.06351e-05
5.35626e-05
4.72735e-05
0.00470239
0.00479628
0.00485121
0.00486968
0.00485446
0.00480844
0.00473469
0.00463632
0.00451646
0.00437822
0.00422463
0.0040586
0.00388291
0.00370015
0.0035127
0.00332275
0.00313228
0.00294301
0.00275648
0.00257398
0.00239661
0.00222527
0.00206067
0.00190337
0.00175376
0.00161209
0.00147851
0.00135303
0.00123561
0.00112611
0.00102432
0.000929998
0.000842847
0.000762546
0.000688752
0.000621108
0.000559249
0.000502809
0.000451424
0.000404739
0.000362407
0.000324095
0.000289484
0.00025827
0.000230166
0.000204903
0.000182228
0.000161906
0.000143719
0.000127465
-2.69925e-09
-2.54087e-09
-2.32954e-09
-2.21473e-09
-2.06925e-09
-1.94135e-09
-1.80007e-09
-1.68153e-09
-1.56457e-09
-1.42645e-09
-1.35571e-09
-1.27778e-09
-1.18114e-09
-1.0932e-09
-9.9163e-10
-9.70272e-10
-8.40221e-10
-8.09136e-10
-7.61816e-10
-6.80811e-10
-6.71108e-10
-5.69892e-10
-5.33792e-10
-5.11812e-10
-4.32018e-10
-4.34514e-10
-3.70361e-10
-3.53509e-10
-3.55019e-10
-2.70424e-10
-2.95984e-10
-2.37555e-10
-2.44533e-10
-2.05665e-10
-1.54745e-10
-1.8177e-10
-1.39463e-10
-1.78539e-10
-1.18827e-10
-1.66146e-10
-1.09606e-10
-5.21712e-11
-7.41466e-11
-3.09993e-11
-9.58887e-11
-4.12122e-11
-4.26107e-11
-6.80479e-11
-3.07931e-11
-7.84176e-11
-1.69386e-11
-7.56876e-11
-3.425e-11
-6.01009e-11
-4.81049e-11
-1.85083e-11
-5.90264e-11
-3.05549e-11
-4.32813e-11
-1.32594e-11
-1.94471e-13
2.88558e-12
2.32648e-12
1.08318e-12
2.42477e-13
-7.98283e-14
-1.10893e-13
-5.92224e-14
-1.79339e-14
-1.46506e-15
1.41255e-15
7.20447e-16
2.19381e-16
2.09653e-16
2.6469e-16
2.08069e-16
9.36766e-17
4.91408e-18
-3.0822e-17
-2.93272e-17
-1.51925e-17
-3.41717e-18
1.99603e-18
2.77534e-18
1.70347e-18
5.57969e-19
-6.26536e-20
-2.2227e-19
-1.62873e-19
-6.54329e-20
-4.13644e-21
1.60784e-20
1.39953e-20
6.35189e-21
9.2688e-22
-1.09887e-21
-1.10824e-21
-5.36572e-22
-9.72794e-23
7.50129e-23
8.22791e-23
4.02757e-23
7.33672e-24
-5.38181e-24
-5.77942e-24
-2.6975e-24
-4.05115e-25
4.06722e-25
3.82613e-25
1.59176e-25
1.2617e-26
-3.06887e-26
-2.34124e-26
-7.96061e-27
4.24294e-28
2.15992e-27
1.27796e-27
3.04733e-28
-1.03964e-28
-1.3406e-28
-5.87988e-29
-5.72476e-30
9.59638e-30
6.98363e-30
2.04169e-30
-3.06321e-31
-6.1127e-31
-2.86089e-31
-3.54691e-32
3.8691e-32
2.86252e-32
7.97609e-33
-1.30697e-33
-2.24248e-33
-9.32831e-34
-6.38208e-35
1.39636e-34
8.19522e-35
1.56463e-35
-6.79258e-36
-5.9527e-36
-1.63295e-36
2.48903e-37
3.82198e-37
1.2745e-37
-7.08733e-39
-2.35436e-38
-8.61171e-39
2.84847e-40
1.51174e-39
5.5953e-40
-2.52734e-41
-1.03177e-40
-3.74899e-41
1.99585e-42
7.07005e-42
2.58145e-42
-9.17536e-44
-4.54819e-43
-1.72921e-43
-1.26732e-47
2.64625e-44
1.07173e-44
4.14068e-46
-1.37639e-45
-5.99053e-46
-4.31492e-47
6.41213e-47
2.9957e-47
2.92683e-48
-2.6975e-48
-1.34055e-48
-1.54606e-49
1.03591e-49
5.38434e-50
6.74119e-51
-3.67191e-51
-1.94727e-51
-2.48673e-52
1.21203e-52
6.35428e-53
7.8353e-54
-3.73987e-54
-1.87159e-54
-2.11017e-55
1.07426e-55
4.96601e-56
4.85513e-57
-2.81933e-57
-1.17971e-57
-9.95054e-59
6.34384e-59
2.46299e-59
2.43546e-60
-8.6786e-61
-4.23043e-61
-1.22467e-61
-2.89055e-62
4.46893e-63
9.53341e-63
4.04035e-63
1.17442e-66
-7.43233e-64
-3.01214e-64
8.31986e-66
5.24083e-65
1.79583e-65
-1.62442e-66
-3.2582e-66
-8.82868e-67
1.63626e-67
1.75102e-67
3.46583e-68
-1.17226e-68
-7.98781e-69
-9.94248e-70
6.50107e-70
3.03997e-70
1.45498e-71
-2.87941e-71
-9.46823e-72
3.65897e-73
1.03231e-72
2.3522e-73
-3.53597e-74
-3.02034e-74
-4.45982e-75
1.47115e-75
7.28605e-76
5.72255e-77
-4.36219e-77
-1.47259e-77
-1.83696e-79
1.03966e-78
2.53227e-79
-1.56962e-80
-2.11661e-80
-3.6516e-81
6.20472e-82
3.75362e-82
3.92575e-83
-1.57301e-83
-5.62182e-84
-1.51349e-85
3.04253e-85
6.54576e-86
-5.22763e-87
-4.49293e-87
-4.92086e-88
1.49002e-88
4.86291e-89
4.66237e-91
-2.20169e-90
-3.49899e-91
4.55061e-92
2.12878e-92
1.08276e-93
-6.97558e-94
-1.33632e-94
8.59285e-96
5.86783e-96
4.27539e-97
-1.44143e-97
-3.08299e-98
8.97665e-100
1.02396e-99
8.8489e-101
-1.86054e-101
-4.35324e-102
9.97689e-105
1.06557e-103
1.08354e-104
-1.20738e-105
-3.48219e-106
-1.3465e-107
4.77574e-108
7.91609e-109
2.93773e-110
-9.23789e-111
-2.562e-111
-2.73697e-112
3.24694e-113
1.41512e-113
1.00257e-114
-2.74235e-115
-5.78171e-116
6.76518e-118
1.43252e-117
1.22202e-118
-1.94723e-119
-4.23933e-120
1.93084e-122
8.19403e-122
6.29821e-123
-9.42585e-124
-1.79481e-124
1.92062e-126
2.97938e-126
1.84562e-127
-3.73579e-128
-2.13263e-09
-2.00285e-09
-1.92126e-09
-1.73796e-09
-1.61492e-09
-1.50432e-09
-1.41462e-09
-1.31312e-09
-1.25897e-09
-1.18406e-09
-1.05102e-09
-1.02595e-09
-9.33694e-10
-8.71291e-10
-7.8818e-10
-7.70312e-10
-6.86219e-10
-6.66159e-10
-5.73233e-10
-5.6288e-10
-4.90108e-10
-4.74423e-10
-4.58847e-10
-3.72787e-10
-3.58928e-10
-3.64041e-10
-3.15175e-10
-2.78196e-10
-2.3787e-10
-2.6705e-10
-2.58399e-10
-1.61397e-10
-1.89869e-10
-1.25429e-10
-1.84006e-10
-1.39129e-10
-1.55533e-10
-1.37115e-10
-1.00344e-10
-8.24596e-11
-6.30392e-11
-5.17598e-11
-4.8394e-11
-8.78637e-11
-2.91047e-11
-8.59434e-11
-1.2711e-11
-6.43278e-11
-6.47169e-11
-2.68016e-11
-6.59642e-11
-3.23393e-11
-6.56251e-11
-1.6532e-11
-5.88622e-11
-4.31498e-11
-4.64533e-11
-2.38371e-11
-6.68312e-12
1.02198e-12
2.77717e-12
2.0097e-12
8.66821e-13
1.63077e-13
-8.42094e-14
-9.68635e-14
-4.97529e-14
-1.50739e-14
-1.70063e-15
6.46934e-16
2.92802e-16
1.33406e-16
2.70638e-16
3.3817e-16
2.48471e-16
1.0397e-16
5.34837e-19
-3.82028e-17
-3.45735e-17
-1.74955e-17
-3.72912e-18
2.51692e-18
3.37181e-18
2.07284e-18
6.88381e-19
-7.23312e-20
-2.758e-19
-2.07208e-19
-8.64686e-20
-7.74412e-21
1.98539e-20
1.83677e-20
8.82233e-21
1.60296e-21
-1.31197e-21
-1.48966e-21
-7.78878e-22
-1.75649e-22
8.52715e-23
1.13347e-22
6.13086e-23
1.44926e-23
-5.94677e-24
-8.21756e-24
-4.35046e-24
-9.48715e-25
4.61273e-25
5.68206e-25
2.7688e-25
4.6756e-26
-3.74995e-26
-3.68946e-26
-1.54331e-26
-1.23226e-27
2.91117e-27
2.1817e-27
7.12876e-28
-5.72983e-29
-2.01215e-28
-1.12237e-28
-2.35512e-29
1.08404e-29
1.17904e-29
4.66971e-30
1.99784e-31
-8.87397e-31
-5.56731e-31
-1.32697e-31
4.02788e-32
4.97178e-32
1.93615e-32
6.67255e-34
-3.44385e-33
-1.95956e-33
-3.69476e-34
1.77695e-34
1.58674e-34
4.68501e-35
-5.52659e-36
-1.09733e-35
-4.22911e-36
-6.75176e-38
6.93291e-37
3.2189e-37
2.45177e-38
-4.36153e-38
-2.27781e-38
-2.27336e-39
2.90756e-39
1.60673e-39
1.7663e-40
-2.01052e-40
-1.15008e-40
-1.43591e-41
1.33821e-41
8.08071e-42
1.20897e-42
-8.06552e-43
-5.3297e-43
-9.57037e-44
4.26769e-44
3.20542e-44
6.71496e-45
-1.95842e-45
-1.73723e-45
-4.10644e-46
7.76701e-47
8.4724e-47
2.19171e-47
-2.66811e-48
-3.73113e-48
-1.0275e-48
8.03421e-50
1.49106e-49
4.25908e-50
-2.18914e-51
-5.42569e-51
-1.56824e-51
5.66568e-53
1.7909e-52
5.12132e-53
-1.3542e-54
-5.20213e-54
-1.44053e-54
1.52895e-56
1.13551e-55
2.87231e-56
1.80453e-57
4.40727e-58
3.77932e-58
-2.49516e-58
-3.32049e-58
-1.10792e-58
2.52152e-59
3.5932e-59
1.07917e-59
-2.44844e-60
-3.10108e-60
-8.24941e-61
2.29927e-61
2.38349e-61
5.32891e-62
-2.0058e-62
-1.64479e-62
-2.84987e-63
1.56948e-63
1.0031e-63
1.1605e-64
-1.07224e-64
-5.28791e-65
-2.66968e-66
6.26958e-66
2.35514e-66
-5.96139e-68
-3.09677e-67
-8.64907e-68
1.04071e-68
1.28196e-68
2.53284e-69
-6.51982e-70
-4.42747e-70
-5.53829e-71
2.82807e-71
1.27424e-71
7.28535e-73
-9.53139e-73
-3.06931e-73
3.45329e-75
2.63243e-74
6.24884e-75
-5.52559e-76
-6.20788e-76
-1.07701e-76
2.08539e-77
1.28726e-77
1.48279e-78
-5.79276e-79
-2.34134e-79
-1.16428e-80
1.32796e-80
3.54886e-81
-1.312e-82
-2.48742e-82
-3.99226e-83
7.30489e-84
3.63329e-84
2.32878e-85
-1.5745e-85
-3.85634e-86
1.77348e-87
2.1872e-87
2.51692e-88
-6.36526e-89
-2.0591e-89
-1.69548e-91
8.41282e-91
1.20934e-91
-1.7048e-92
-6.79575e-93
-2.31777e-94
2.12415e-94
3.35202e-95
-3.07489e-96
-1.42195e-96
-6.53508e-98
3.48574e-98
5.59412e-99
-3.64637e-100
-1.83211e-100
-9.15903e-102
3.44764e-102
5.29501e-103
-2.38332e-104
-1.23526e-104
-6.30451e-106