/*--------------------------------*- C++ -*----------------------------------*\
| =========                 |                                                 |
| \\      /  F ield         | OpenFOAM: The Open Source CFD Toolbox           |
|  \\    /   O peration     | Version:  2.4.0                                 |
|   \\  /    A nd           | Web:      www.OpenFOAM.org                      |
|    \\/     M anipulation  |                                                 |
\*---------------------------------------------------------------------------*/
FoamFile
{
    version     2.0;
    format      ascii;
    class       surfaceScalarField;
    location    "0.3";
    object      phi;
}
// * * * * * * * * * * * * * * * * * * * * * * * * * * * * * * * * * * * * * //

dimensions      [0 3 -1 0 0 0 0];

internalField   nonuniform List<scalar> 
15580
(
-1.12729e-14
-3.46725e-12
-4.48751e-14
-1.02618e-11
-1.00665e-13
-1.69164e-11
-1.78541e-13
-2.34309e-11
-2.78406e-13
-2.98051e-11
-4.00167e-13
-3.6039e-11
-5.43733e-13
-4.21326e-11
-7.09023e-13
-4.80858e-11
-8.95962e-13
-5.38986e-11
-1.10449e-12
-5.95708e-11
-1.33454e-12
-6.51025e-11
-1.5861e-12
-7.04935e-11
-1.85911e-12
-7.57438e-11
-2.15359e-12
-8.08533e-11
-2.46952e-12
-8.5822e-11
-2.80692e-12
-9.06497e-11
-3.16585e-12
-9.53365e-11
-3.54633e-12
-9.98822e-11
-3.94846e-12
-1.04287e-10
-4.37233e-12
-1.0855e-10
-4.81804e-12
-1.12672e-10
-5.28572e-12
-1.16653e-10
-5.77555e-12
-1.20492e-10
-6.28768e-12
-1.2419e-10
-6.82232e-12
-1.27747e-10
-7.37971e-12
-1.31161e-10
-7.96008e-12
-1.34434e-10
-8.56372e-12
-1.37565e-10
-9.19093e-12
-1.40554e-10
-9.84205e-12
-1.43401e-10
-1.05174e-11
-1.46106e-10
-1.12175e-11
-1.48669e-10
-1.19427e-11
-1.51089e-10
-1.26935e-11
-1.53367e-10
-1.34703e-11
-1.55502e-10
-1.42738e-11
-1.57494e-10
-1.51045e-11
-1.59344e-10
-1.59632e-11
-1.6105e-10
-1.68504e-11
-1.62614e-10
-1.77669e-11
-1.64034e-10
-1.87136e-11
-1.65311e-10
-1.96914e-11
-1.66444e-10
-2.07011e-11
-1.67433e-10
-2.17438e-11
-1.68278e-10
-2.28207e-11
-1.68979e-10
-2.39328e-11
-1.69535e-10
-2.50815e-11
-1.69947e-10
-2.62691e-11
-1.70215e-10
-2.74864e-11
-1.70352e-10
-1.70376e-10
-2.8737e-11
-1.40206e-14
-3.45323e-12
-5.61477e-14
-1.02197e-11
-1.26205e-13
-1.68464e-11
-2.23929e-13
-2.33331e-11
-3.49092e-13
-2.96799e-11
-5.01501e-13
-3.58866e-11
-6.80992e-13
-4.19531e-11
-8.87431e-13
-4.78794e-11
-1.12071e-12
-5.36653e-11
-1.38076e-12
-5.93108e-11
-1.66752e-12
-6.48157e-11
-1.98097e-12
-7.01801e-11
-2.32111e-12
-7.54037e-11
-2.68797e-12
-8.04865e-11
-3.0816e-12
-8.54283e-11
-3.50207e-12
-9.02293e-11
-3.9495e-12
-9.48891e-11
-4.424e-12
-9.94077e-11
-4.92574e-12
-1.03785e-10
-5.45489e-12
-1.08021e-10
-6.01166e-12
-1.12116e-10
-6.59629e-12
-1.16068e-10
-7.20902e-12
-1.1988e-10
-7.85015e-12
-1.23549e-10
-8.51998e-12
-1.27077e-10
-9.21886e-12
-1.30462e-10
-9.94713e-12
-1.33706e-10
-1.07052e-11
-1.36807e-10
-1.14935e-11
-1.39766e-10
-1.23124e-11
-1.42582e-10
-1.31625e-11
-1.45256e-10
-1.40441e-11
-1.47787e-10
-1.49579e-11
-1.50175e-10
-1.59043e-11
-1.5242e-10
-1.68839e-11
-1.54522e-10
-1.78973e-11
-1.56481e-10
-1.89451e-11
-1.58296e-10
-2.00279e-11
-1.59968e-10
-2.11462e-11
-1.61495e-10
-2.23008e-11
-1.62879e-10
-2.34922e-11
-1.64119e-10
-2.4721e-11
-1.65215e-10
-2.59879e-11
-1.66166e-10
-2.72934e-11
-1.66972e-10
-2.8638e-11
-1.67634e-10
-3.00223e-11
-1.68151e-10
-3.14465e-11
-1.68523e-10
-3.29098e-11
-1.68753e-10
-3.43971e-11
-1.68865e-10
-1.68866e-10
-3.59071e-11
-1.80029e-14
-3.43523e-12
-7.08273e-14
-1.01669e-11
-1.57827e-13
-1.67594e-11
-2.7865e-13
-2.32123e-11
-4.32987e-13
-2.95256e-11
-6.20572e-13
-3.5699e-11
-8.4118e-13
-4.17325e-11
-1.09462e-12
-4.7626e-11
-1.38075e-12
-5.33792e-11
-1.69945e-12
-5.89921e-11
-2.05065e-12
-6.44645e-11
-2.4343e-12
-6.97964e-11
-2.85039e-12
-7.49876e-11
-3.29894e-12
-8.00379e-11
-3.78002e-12
-8.49473e-11
-4.2937e-12
-8.97156e-11
-4.84011e-12
-9.43427e-11
-5.41939e-12
-9.88284e-11
-6.03173e-12
-1.03173e-10
-6.67732e-12
-1.07375e-10
-7.35641e-12
-1.11436e-10
-8.06925e-12
-1.15356e-10
-8.81615e-12
-1.19133e-10
-9.59741e-12
-1.22768e-10
-1.04134e-11
-1.26261e-10
-1.12644e-11
-1.29611e-10
-1.2151e-11
-1.32819e-10
-1.30734e-11
-1.35884e-10
-1.40322e-11
-1.38807e-10
-1.50278e-11
-1.41587e-10
-1.60606e-11
-1.44223e-10
-1.71313e-11
-1.46716e-10
-1.82403e-11
-1.49066e-10
-1.93881e-11
-1.51272e-10
-2.05754e-11
-1.53335e-10
-2.18027e-11
-1.55253e-10
-2.30706e-11
-1.57028e-10
-2.43796e-11
-1.58659e-10
-2.57304e-11
-1.60145e-10
-2.71236e-11
-1.61486e-10
-2.85598e-11
-1.62683e-10
-3.00395e-11
-1.63735e-10
-3.15635e-11
-1.64642e-10
-3.31323e-11
-1.65404e-10
-3.47463e-11
-1.6602e-10
-3.64063e-11
-1.66491e-10
-3.81148e-11
-1.66817e-10
-3.98616e-11
-1.67006e-10
-4.16405e-11
-1.67086e-10
-1.67081e-10
-4.34261e-11
-1.88782e-14
-3.41635e-12
-7.62007e-14
-1.01096e-11
-1.72038e-13
-1.66635e-11
-3.06183e-13
-2.30782e-11
-4.78449e-13
-2.93533e-11
-6.88671e-13
-3.54888e-11
-9.36704e-13
-4.14845e-11
-1.22242e-12
-4.73402e-11
-1.54573e-12
-5.30559e-11
-1.90654e-12
-5.86313e-11
-2.3048e-12
-6.40663e-11
-2.74048e-12
-6.93607e-11
-3.21359e-12
-7.45145e-11
-3.72414e-12
-7.95273e-11
-4.27219e-12
-8.43992e-11
-4.8578e-12
-8.913e-11
-5.48108e-12
-9.37194e-11
-6.14215e-12
-9.81673e-11
-6.84118e-12
-1.02474e-10
-7.57835e-12
-1.06638e-10
-8.35386e-12
-1.10661e-10
-9.16795e-12
-1.14542e-10
-1.00209e-11
-1.1828e-10
-1.09129e-11
-1.21876e-10
-1.18445e-11
-1.25329e-10
-1.28158e-11
-1.2864e-10
-1.38273e-11
-1.31808e-10
-1.48793e-11
-1.34832e-10
-1.59724e-11
-1.37714e-10
-1.71069e-11
-1.40452e-10
-1.82834e-11
-1.43047e-10
-1.95024e-11
-1.45497e-10
-2.07643e-11
-1.47804e-10
-2.20699e-11
-1.49967e-10
-2.34197e-11
-1.51985e-10
-2.48144e-11
-1.53859e-10
-2.62547e-11
-1.55588e-10
-2.77413e-11
-1.57172e-10
-2.9275e-11
-1.58611e-10
-3.08566e-11
-1.59905e-10
-3.24871e-11
-1.61053e-10
-3.41672e-11
-1.62055e-10
-3.58982e-11
-1.62911e-10
-3.7681e-11
-1.63621e-10
-3.95167e-11
-1.64184e-10
-4.14066e-11
-1.64601e-10
-4.33514e-11
-1.64874e-10
-4.53346e-11
-1.65023e-10
-4.7361e-11
-1.6506e-10
-1.65046e-10
-4.93957e-11
-2.31069e-14
-3.39325e-12
-9.11722e-14
-1.00415e-11
-2.03591e-13
-1.65511e-11
-3.601e-13
-2.29217e-11
-5.60473e-13
-2.91529e-11
-8.04517e-13
-3.52448e-11
-1.09207e-12
-4.11969e-11
-1.42301e-12
-4.70093e-11
-1.79723e-12
-5.26817e-11
-2.21467e-12
-5.82138e-11
-2.6753e-12
-6.36057e-11
-3.1791e-12
-6.88569e-11
-3.7261e-12
-7.39675e-11
-4.31636e-12
-7.89371e-11
-4.94995e-12
-8.37656e-11
-5.62701e-12
-8.84529e-11
-6.34766e-12
-9.29987e-11
-7.11208e-12
-9.74029e-11
-7.92048e-12
-1.01665e-10
-8.77309e-12
-1.05786e-10
-9.67018e-12
-1.09764e-10
-1.0612e-11
-1.136e-10
-1.1599e-11
-1.17293e-10
-1.26314e-11
-1.20843e-10
-1.37097e-11
-1.24251e-10
-1.48343e-11
-1.27515e-10
-1.60056e-11
-1.30636e-10
-1.72241e-11
-1.33614e-10
-1.84904e-11
-1.36448e-10
-1.9805e-11
-1.39137e-10
-2.11685e-11
-1.41683e-10
-2.25816e-11
-1.44084e-10
-2.40448e-11
-1.46341e-10
-2.5559e-11
-1.48452e-10
-2.71249e-11
-1.50419e-10
-2.87432e-11
-1.5224e-10
-3.04148e-11
-1.53916e-10
-3.21405e-11
-1.55446e-10
-3.39213e-11
-1.5683e-10
-3.57581e-11
-1.58068e-10
-3.7652e-11
-1.59159e-10
-3.96038e-11
-1.60103e-10
-4.16148e-11
-1.609e-10
-4.3686e-11
-1.6155e-10
-4.58185e-11
-1.62052e-10
-4.80164e-11
-1.62407e-10
-5.02667e-11
-1.62623e-10
-5.25577e-11
-1.62731e-10
-5.48724e-11
-1.62745e-10
-1.62717e-10
-5.72017e-11
-2.46626e-14
-3.36858e-12
-9.9195e-14
-9.96698e-12
-2.23648e-13
-1.64267e-11
-3.97847e-13
-2.27475e-11
-6.21642e-13
-2.89292e-11
-8.94911e-13
-3.49715e-11
-1.21756e-12
-4.08743e-11
-1.58951e-12
-4.66374e-11
-2.01073e-12
-5.22604e-11
-2.48121e-12
-5.77434e-11
-3.00097e-12
-6.30859e-11
-3.57005e-12
-6.82878e-11
-4.18853e-12
-7.3349e-11
-4.85653e-12
-7.82691e-11
-5.57418e-12
-8.3048e-11
-6.34166e-12
-8.76854e-11
-7.15917e-12
-9.21812e-11
-8.02695e-12
-9.65351e-11
-8.94527e-12
-1.00747e-10
-9.91442e-12
-1.04817e-10
-1.09347e-11
-1.08744e-10
-1.20066e-11
-1.12528e-10
-1.31304e-11
-1.16169e-10
-1.43066e-11
-1.19667e-10
-1.55356e-11
-1.23022e-10
-1.6818e-11
-1.26233e-10
-1.81543e-11
-1.293e-10
-1.9545e-11
-1.32223e-10
-2.09908e-11
-1.35002e-10
-2.24923e-11
-1.37636e-10
-2.40501e-11
-1.40125e-10
-2.56651e-11
-1.42469e-10
-2.73379e-11
-1.44668e-10
-2.90693e-11
-1.46721e-10
-3.08602e-11
-1.48628e-10
-3.27114e-11
-1.50389e-10
-3.46239e-11
-1.52004e-10
-3.65984e-11
-1.53472e-10
-3.86361e-11
-1.54792e-10
-4.07378e-11
-1.55966e-10
-4.29048e-11
-1.56992e-10
-4.51379e-11
-1.5787e-10
-4.74385e-11
-1.58599e-10
-4.98072e-11
-1.59181e-10
-5.22453e-11
-1.59614e-10
-5.47525e-11
-1.59902e-10
-5.73077e-11
-1.60068e-10
-5.9911e-11
-1.60128e-10
-6.25208e-11
-1.60135e-10
-1.60062e-10
-6.51759e-11
-2.84459e-14
-3.34014e-12
-1.12983e-13
-9.88244e-12
-2.53269e-13
-1.62864e-11
-4.4918e-13
-2.25516e-11
-7.0061e-13
-2.86777e-11
-1.00748e-12
-3.46646e-11
-1.36974e-12
-4.0512e-11
-1.78738e-12
-4.62197e-11
-2.26039e-12
-5.17874e-11
-2.78883e-12
-5.72149e-11
-3.37277e-12
-6.2502e-11
-4.0123e-12
-6.76483e-11
-4.70756e-12
-7.26537e-11
-5.45872e-12
-7.75179e-11
-6.26597e-12
-8.22407e-11
-7.12955e-12
-8.68219e-11
-8.0497e-12
-9.12611e-11
-9.02674e-12
-9.55581e-11
-1.0061e-11
-9.97127e-11
-1.11528e-11
-1.03725e-10
-1.23025e-11
-1.07594e-10
-1.35107e-11
-1.1132e-10
-1.47777e-11
-1.14902e-10
-1.6104e-11
-1.18341e-10
-1.74903e-11
-1.21636e-10
-1.89369e-11
-1.24786e-10
-2.04446e-11
-1.27792e-10
-2.2014e-11
-1.30654e-10
-2.36458e-11
-1.3337e-10
-2.53406e-11
-1.35941e-10
-2.70992e-11
-1.38366e-10
-2.89224e-11
-1.40646e-10
-3.08111e-11
-1.42779e-10
-3.27659e-11
-1.44766e-10
-3.47879e-11
-1.46606e-10
-3.6878e-11
-1.48299e-10
-3.90371e-11
-1.49845e-10
-4.12662e-11
-1.51243e-10
-4.35663e-11
-1.52492e-10
-4.59386e-11
-1.53594e-10
-4.8384e-11
-1.54546e-10
-5.09037e-11
-1.5535e-10
-5.3499e-11
-1.56004e-10
-5.61716e-11
-1.56508e-10
-5.8924e-11
-1.56866e-10
-6.17366e-11
-1.57089e-10
-6.4598e-11
-1.57207e-10
-6.74876e-11
-1.57239e-10
-7.03898e-11
-1.57233e-10
-1.56989e-10
-7.34622e-11
-3.06737e-14
-3.30946e-12
-1.23119e-13
-9.78999e-12
-2.77432e-13
-1.61321e-11
-4.93541e-13
-2.23354e-11
-7.71386e-13
-2.83999e-11
-1.11094e-12
-3.43251e-11
-1.5122e-12
-4.01108e-11
-1.97521e-12
-4.57567e-11
-2.50001e-12
-5.12626e-11
-3.08672e-12
-5.66282e-11
-3.73545e-12
-6.18532e-11
-4.44636e-12
-6.69374e-11
-5.21964e-12
-7.18804e-11
-6.0555e-12
-7.66821e-11
-6.9542e-12
-8.1342e-11
-7.91602e-12
-8.586e-11
-8.94128e-12
-9.02358e-11
-1.00303e-11
-9.44691e-11
-1.11835e-11
-9.85595e-11
-1.24014e-11
-1.02507e-10
-1.36842e-11
-1.06311e-10
-1.50326e-11
-1.09971e-10
-1.6447e-11
-1.13488e-10
-1.79281e-11
-1.1686e-10
-1.94763e-11
-1.20087e-10
-2.10924e-11
-1.2317e-10
-2.2777e-11
-1.26108e-10
-2.45308e-11
-1.289e-10
-2.63546e-11
-1.31546e-10
-2.82491e-11
-1.34047e-10
-3.02151e-11
-1.364e-10
-3.22536e-11
-1.38608e-10
-3.43653e-11
-1.40668e-10
-3.65514e-11
-1.4258e-10
-3.88127e-11
-1.44345e-10
-4.11502e-11
-1.45962e-10
-4.35651e-11
-1.4743e-10
-4.60585e-11
-1.48749e-10
-4.86314e-11
-1.49919e-10
-5.12853e-11
-1.5094e-10
-5.40211e-11
-1.51811e-10
-5.68404e-11
-1.52531e-10
-5.97436e-11
-1.53101e-10
-6.30805e-11
-1.53521e-10
-6.61512e-11
-1.53798e-10
-6.92763e-11
-1.53964e-10
-7.24494e-11
-1.54034e-10
-7.56277e-11
-1.5406e-10
-7.88647e-11
-1.53996e-10
-1.53282e-10
-8.25719e-11
-3.42369e-14
-3.27523e-12
-1.36621e-13
-9.68761e-12
-3.07056e-13
-1.59616e-11
-5.45555e-13
-2.20969e-11
-8.52143e-13
-2.80933e-11
-1.22687e-12
-3.39503e-11
-1.66983e-12
-3.96678e-11
-2.18111e-12
-4.52454e-11
-2.76085e-12
-5.06829e-11
-3.40922e-12
-5.59798e-11
-4.12641e-12
-6.1136e-11
-4.91266e-12
-6.61512e-11
-5.7682e-12
-7.10249e-11
-6.69334e-12
-7.57569e-11
-7.68839e-12
-8.0347e-11
-8.75371e-12
-8.47947e-11
-9.88968e-12
-8.90998e-11
-1.10967e-11
-9.3262e-11
-1.23753e-11
-9.7281e-11
-1.37259e-11
-1.01156e-10
-1.5149e-11
-1.04888e-10
-1.66452e-11
-1.08475e-10
-1.82151e-11
-1.11918e-10
-1.98594e-11
-1.15216e-10
-2.15786e-11
-1.18368e-10
-2.33735e-11
-1.21375e-10
-2.52449e-11
-1.24236e-10
-2.71935e-11
-1.26951e-10
-2.92201e-11
-1.2952e-10
-3.13256e-11
-1.31941e-10
-3.35109e-11
-1.34215e-10
-3.5777e-11
-1.36341e-10
-3.81248e-11
-1.3832e-10
-4.05553e-11
-1.4015e-10
-4.30697e-11
-1.41831e-10
-4.56689e-11
-1.43362e-10
-4.83543e-11
-1.44745e-10
-5.11268e-11
-1.45977e-10
-5.39879e-11
-1.47058e-10
-5.69388e-11
-1.47989e-10
-5.99808e-11
-1.48769e-10
-6.31151e-11
-1.49396e-10
-6.63432e-11
-1.49873e-10
-6.96661e-11
-1.50203e-10
-7.30527e-11
-1.50412e-10
-7.64927e-11
-1.50524e-10
-7.99525e-11
-1.50574e-10
-8.34328e-11
-1.5058e-10
-8.7131e-11
-1.50298e-10
-1.48681e-10
-9.17319e-11
-3.72762e-14
-3.23795e-12
-1.49232e-13
-9.57565e-12
-3.35919e-13
-1.57749e-11
-5.97369e-13
-2.18355e-11
-9.33648e-13
-2.7757e-11
-1.34485e-12
-3.35391e-11
-1.8311e-12
-3.91816e-11
-2.39256e-12
-4.4684e-11
-3.02942e-12
-5.0046e-11
-3.7419e-12
-5.52674e-11
-4.53025e-12
-6.03477e-11
-5.39476e-12
-6.52866e-11
-6.33576e-12
-7.00839e-11
-7.35359e-12
-7.47391e-11
-8.44865e-12
-7.92519e-11
-9.62135e-12
-8.3622e-11
-1.08721e-11
-8.7849e-11
-1.22015e-11
-9.19326e-11
-1.361e-11
-9.58725e-11
-1.50982e-11
-9.96682e-11
-1.66666e-11
-1.03319e-10
-1.83159e-11
-1.06826e-10
-2.00468e-11
-1.10187e-10
-2.18599e-11
-1.13402e-10
-2.3756e-11
-1.16472e-10
-2.57359e-11
-1.19395e-10
-2.78003e-11
-1.22172e-10
-2.99502e-11
-1.24802e-10
-3.21864e-11
-1.27284e-10
-3.45098e-11
-1.29618e-10
-3.69214e-11
-1.31804e-10
-3.94222e-11
-1.33841e-10
-4.20133e-11
-1.35729e-10
-4.46956e-11
-1.37467e-10
-4.74704e-11
-1.39056e-10
-5.03388e-11
-1.40494e-10
-5.33019e-11
-1.41781e-10
-5.63611e-11
-1.42917e-10
-5.95176e-11
-1.43902e-10
-6.27728e-11
-1.44734e-10
-6.61279e-11
-1.45413e-10
-6.95842e-11
-1.4594e-10
-7.31468e-11
-1.46318e-10
-7.67829e-11
-1.46567e-10
-8.04769e-11
-1.46718e-10
-8.42069e-11
-1.46794e-10
-8.79411e-11
-1.4684e-10
-9.17893e-11
-1.46732e-10
-9.62185e-11
-1.45869e-10
-1.43484e-10
-1.01416e-10
-4.06132e-14
-3.19734e-12
-1.62394e-13
-9.45387e-12
-3.65386e-13
-1.55719e-11
-6.49703e-13
-2.15512e-11
-1.01549e-12
-2.73912e-11
-1.46293e-12
-3.30917e-11
-1.99223e-12
-3.86523e-11
-2.60361e-12
-4.40726e-11
-3.29735e-12
-4.93523e-11
-4.07373e-12
-5.4491e-11
-4.93308e-12
-5.94883e-11
-5.87576e-12
-6.4344e-11
-6.90215e-12
-6.90575e-11
-8.01268e-12
-7.36286e-11
-9.20779e-12
-7.80568e-11
-1.0488e-11
-8.23418e-11
-1.18538e-11
-8.64833e-11
-1.33057e-11
-9.04807e-11
-1.48443e-11
-9.43338e-11
-1.64704e-11
-9.80422e-11
-1.81844e-11
-1.01605e-10
-1.99871e-11
-1.05023e-10
-2.18793e-11
-1.08295e-10
-2.38617e-11
-1.1142e-10
-2.5935e-11
-1.14399e-10
-2.81002e-11
-1.1723e-10
-3.03581e-11
-1.19914e-10
-3.27097e-11
-1.2245e-10
-3.51558e-11
-1.24837e-10
-3.76974e-11
-1.27076e-10
-4.03357e-11
-1.29165e-10
-4.30715e-11
-1.31105e-10
-4.59062e-11
-1.32894e-10
-4.88407e-11
-1.34533e-10
-5.18763e-11
-1.3602e-10
-5.50141e-11
-1.37356e-10
-5.82555e-11
-1.3854e-10
-6.16017e-11
-1.39571e-10
-6.5054e-11
-1.40449e-10
-6.86138e-11
-1.41174e-10
-7.22822e-11
-1.41745e-10
-7.60699e-11
-1.42165e-10
-7.99374e-11
-1.4245e-10
-8.38696e-11
-1.42635e-10
-8.78466e-11
-1.42741e-10
-9.18267e-11
-1.42814e-10
-9.58701e-11
-1.42796e-10
-1.00263e-10
-1.42339e-10
-1.05464e-10
-1.40668e-10
-1.38109e-10
-1.10838e-10
-4.38035e-14
-3.15353e-12
-1.75409e-13
-9.32227e-12
-3.94977e-13
-1.53524e-11
-7.02679e-13
-2.12435e-11
-1.09872e-12
-2.69952e-11
-1.58333e-12
-3.26071e-11
-2.15678e-12
-3.80788e-11
-2.81935e-12
-4.341e-11
-3.57136e-12
-4.86003e-11
-4.41318e-12
-5.36492e-11
-5.34517e-12
-5.85563e-11
-6.36777e-12
-6.33214e-11
-7.4814e-12
-6.79439e-11
-8.68654e-12
-7.24234e-11
-9.98372e-12
-7.67596e-11
-1.13735e-11
-8.09521e-11
-1.28563e-11
-8.50004e-11
-1.4433e-11
-8.89041e-11
-1.6104e-11
-9.26628e-11
-1.78701e-11
-9.62761e-11
-1.97319e-11
-9.97435e-11
-2.16903e-11
-1.03065e-10
-2.3746e-11
-1.06239e-10
-2.58997e-11
-1.09266e-10
-2.81525e-11
-1.12146e-10
-3.0505e-11
-1.14878e-10
-3.29584e-11
-1.17461e-10
-3.55134e-11
-1.19895e-10
-3.81712e-11
-1.2218e-10
-4.09327e-11
-1.24314e-10
-4.37991e-11
-1.26299e-10
-4.67713e-11
-1.28133e-10
-4.98507e-11
-1.29815e-10
-5.30383e-11
-1.31345e-10
-5.63353e-11
-1.32723e-10
-5.97431e-11
-1.33948e-10
-6.32629e-11
-1.3502e-10
-6.68961e-11
-1.35938e-10
-7.0644e-11
-1.36702e-10
-7.45078e-11
-1.3731e-10
-7.85064e-11
-1.37766e-10
-8.25874e-11
-1.38084e-10
-8.67415e-11
-1.38296e-10
-9.09452e-11
-1.38431e-10
-9.51585e-11
-1.38528e-10
-9.94063e-11
-1.38566e-10
-1.03872e-10
-1.38331e-10
-1.09002e-10
-1.37208e-10
-1.14556e-10
-1.35115e-10
-1.32693e-10
-1.19972e-10
-4.71766e-14
-3.10636e-12
-1.88853e-13
-9.18059e-12
-4.25226e-13
-1.5116e-11
-7.56534e-13
-2.09122e-11
-1.18305e-12
-2.65687e-11
-1.70507e-12
-3.20851e-11
-2.32293e-12
-3.7461e-11
-3.03697e-12
-4.2696e-11
-3.84758e-12
-4.77897e-11
-4.75517e-12
-5.27416e-11
-5.76018e-12
-5.75513e-11
-6.86307e-12
-6.22185e-11
-8.06435e-12
-6.67426e-11
-9.36455e-12
-7.11232e-11
-1.07642e-11
-7.536e-11
-1.22639e-11
-7.94524e-11
-1.38643e-11
-8.34e-11
-1.55661e-11
-8.72023e-11
-1.73698e-11
-9.0859e-11
-1.92763e-11
-9.43696e-11
-2.12863e-11
-9.77335e-11
-2.34005e-11
-1.0095e-10
-2.56198e-11
-1.0402e-10
-2.7945e-11
-1.06941e-10
-3.0377e-11
-1.09714e-10
-3.29168e-11
-1.12338e-10
-3.55652e-11
-1.14812e-10
-3.83233e-11
-1.17137e-10
-4.1192e-11
-1.19311e-10
-4.41725e-11
-1.21334e-10
-4.72658e-11
-1.23206e-10
-5.04731e-11
-1.24925e-10
-5.37954e-11
-1.26492e-10
-5.7234e-11
-1.27907e-10
-6.07901e-11
-1.29167e-10
-6.44649e-11
-1.30274e-10
-6.82599e-11
-1.31225e-10
-7.21762e-11
-1.32022e-10
-7.6215e-11
-1.32663e-10
-8.04074e-11
-1.33149e-10
-8.46792e-11
-1.33495e-10
-8.90325e-11
-1.33731e-10
-9.34383e-11
-1.33891e-10
-9.78616e-11
-1.34008e-10
-1.02304e-10
-1.34086e-10
-1.06892e-10
-1.33977e-10
-1.11985e-10
-1.33238e-10
-1.17599e-10
-1.31594e-10
-1.23176e-10
-1.29538e-10
-1.27299e-10
-1.2857e-10
-5.0515e-14
-3.05584e-12
-2.02347e-13
-9.02876e-12
-4.55774e-13
-1.48626e-11
-8.11088e-13
-2.05569e-11
-1.26861e-12
-2.61111e-11
-1.82868e-12
-3.1525e-11
-2.49168e-12
-3.6798e-11
-3.258e-12
-4.19297e-11
-4.12807e-12
-4.69196e-11
-5.10232e-12
-5.17673e-11
-6.18126e-12
-5.64724e-11
-7.36536e-12
-6.10344e-11
-8.65518e-12
-6.54528e-11
-1.00513e-11
-6.97271e-11
-1.15542e-11
-7.3857e-11
-1.31646e-11
-7.78419e-11
-1.48832e-11
-8.16814e-11
-1.67106e-11
-8.5375e-11
-1.86474e-11
-8.89222e-11
-2.06946e-11
-9.23225e-11
-2.28527e-11
-9.55754e-11
-2.51227e-11
-9.86805e-11
-2.75053e-11
-1.01637e-10
-3.00014e-11
-1.04445e-10
-3.2612e-11
-1.07103e-10
-3.53378e-11
-1.09612e-10
-3.818e-11
-1.1197e-10
-4.11394e-11
-1.14177e-10
-4.42172e-11
-1.16233e-10
-4.74143e-11
-1.18137e-10
-5.07319e-11
-1.19888e-10
-5.4171e-11
-1.21486e-10
-5.77329e-11
-1.22931e-10
-6.14186e-11
-1.24221e-10
-6.52296e-11
-1.25356e-10
-6.91669e-11
-1.26336e-10
-7.32319e-11
-1.2716e-10
-7.74257e-11
-1.27828e-10
-8.17482e-11
-1.2834e-10
-8.62074e-11
-1.28709e-10
-9.07369e-11
-1.28965e-10
-9.5322e-11
-1.29146e-10
-9.99313e-11
-1.29281e-10
-1.04551e-10
-1.29388e-10
-1.09275e-10
-1.29361e-10
-1.14364e-10
-1.28889e-10
-1.19957e-10
-1.27645e-10
-1.25613e-10
-1.25938e-10
-1.31122e-10
-1.2403e-10
-1.21966e-10
-1.36454e-10
-5.40022e-14
-3.00184e-12
-2.16281e-13
-8.86648e-12
-4.87135e-13
-1.45917e-11
-8.66897e-13
-2.01771e-11
-1.35592e-12
-2.56221e-11
-1.95459e-12
-3.09263e-11
-2.6633e-12
-3.60893e-11
-3.48247e-12
-4.11105e-11
-4.41256e-12
-4.59895e-11
-5.45404e-12
-5.07258e-11
-6.60741e-12
-5.5319e-11
-7.87318e-12
-5.97686e-11
-9.25191e-12
-6.4074e-11
-1.07442e-11
-6.82349e-11
-1.23506e-11
-7.22506e-11
-1.40717e-11
-7.61208e-11
-1.59083e-11
-7.98449e-11
-1.78609e-11
-8.34223e-11
-1.99304e-11
-8.68527e-11
-2.21174e-11
-9.01355e-11
-2.44227e-11
-9.32701e-11
-2.6847e-11
-9.62561e-11
-2.93913e-11
-9.90929e-11
-3.20564e-11
-1.0178e-10
-3.48431e-11
-1.04317e-10
-3.77524e-11
-1.06703e-10
-4.07851e-11
-1.08937e-10
-4.39423e-11
-1.1102e-10
-4.72249e-11
-1.12951e-10
-5.0634e-11
-1.14728e-10
-5.41706e-11
-1.16351e-10
-5.78358e-11
-1.17821e-10
-6.16307e-11
-1.19136e-10
-6.55565e-11
-1.20295e-10
-6.96144e-11
-1.21298e-10
-7.38054e-11
-1.22145e-10
-7.81308e-11
-1.22835e-10
-8.25905e-11
-1.23368e-10
-8.72017e-11
-1.23757e-10
-9.18813e-11
-1.2403e-10
-9.66202e-11
-1.24227e-10
-1.01387e-10
-1.24378e-10
-1.06161e-10
-1.24508e-10
-1.11013e-10
-1.24536e-10
-1.16119e-10
-1.24255e-10
-1.21656e-10
-1.23351e-10
-1.2733e-10
-1.21972e-10
-1.3289e-10
-1.20378e-10
-1.38301e-10
-1.18619e-10
-1.16717e-10
-1.43549e-10
-5.75475e-14
-2.94429e-12
-2.30513e-13
-8.69351e-12
-5.19216e-13
-1.4303e-11
-9.23994e-13
-1.97723e-11
-1.44521e-12
-2.51009e-11
-2.08323e-12
-3.02883e-11
-2.83847e-12
-3.5334e-11
-3.71134e-12
-4.02376e-11
-4.7023e-12
-4.49985e-11
-5.81181e-12
-4.96163e-11
-7.04035e-12
-5.40905e-11
-8.38845e-12
-5.84205e-11
-9.85663e-12
-6.26059e-11
-1.14455e-11
-6.66461e-11
-1.31555e-11
-7.05406e-11
-1.49874e-11
-7.42889e-11
-1.69417e-11
-7.78905e-11
-1.90192e-11
-8.13449e-11
-2.12204e-11
-8.46515e-11
-2.35462e-11
-8.78097e-11
-2.59972e-11
-9.08191e-11
-2.85741e-11
-9.36791e-11
-3.12778e-11
-9.63892e-11
-3.4109e-11
-9.89487e-11
-3.70686e-11
-1.01357e-10
-4.01575e-11
-1.03614e-10
-4.33764e-11
-1.05719e-10
-4.67264e-11
-1.0767e-10
-5.02083e-11
-1.09469e-10
-5.3823e-11
-1.11113e-10
-5.75716e-11
-1.12603e-10
-6.14551e-11
-1.13937e-10
-6.54744e-11
-1.15116e-10
-6.96307e-11
-1.16139e-10
-7.39249e-11
-1.17004e-10
-7.83581e-11
-1.17712e-10
-8.29302e-11
-1.18263e-10
-8.76718e-11
-1.18667e-10
-9.24746e-11
-1.18954e-10
-9.73406e-11
-1.19164e-10
-1.02238e-10
-1.19329e-10
-1.0714e-10
-1.19476e-10
-1.12103e-10
-1.19546e-10
-1.17232e-10
-1.19407e-10
-1.227e-10
-1.18786e-10
-1.28342e-10
-1.1771e-10
-1.33902e-10
-1.16412e-10
-1.39338e-10
-1.14942e-10
-1.44634e-10
-1.13322e-10
-1.11571e-10
-1.4978e-10
-6.12306e-14
-2.88306e-12
-2.45197e-13
-8.50955e-12
-5.52193e-13
-1.3996e-11
-9.82539e-13
-1.9342e-11
-1.53657e-12
-2.45469e-11
-2.21465e-12
-2.96102e-11
-3.01714e-12
-3.45315e-11
-3.94444e-12
-3.93103e-11
-4.99697e-12
-4.3946e-11
-6.17514e-12
-4.84382e-11
-7.47941e-12
-5.27862e-11
-8.91024e-12
-5.69897e-11
-1.04681e-11
-6.1048e-11
-1.21536e-11
-6.49606e-11
-1.39671e-11
-6.8727e-11
-1.59093e-11
-7.23467e-11
-1.79807e-11
-7.58191e-11
-2.01819e-11
-7.91437e-11
-2.25136e-11
-8.23198e-11
-2.49762e-11
-8.53471e-11
-2.75706e-11
-8.82248e-11
-3.02973e-11
-9.09524e-11
-3.31571e-11
-9.35294e-11
-3.61507e-11
-9.59551e-11
-3.92788e-11
-9.8229e-11
-4.25422e-11
-1.00351e-10
-4.59416e-11
-1.02319e-10
-4.94779e-11
-1.04134e-10
-5.31518e-11
-1.05795e-10
-5.69642e-11
-1.07301e-10
-6.0916e-11
-1.08651e-10
-6.5008e-11
-1.09845e-10
-6.92411e-11
-1.10883e-10
-7.36162e-11
-1.11764e-10
-7.81341e-11
-1.12486e-10
-8.27948e-11
-1.13051e-10
-8.76476e-11
-1.13469e-10
-9.25484e-11
-1.13767e-10
-9.75159e-11
-1.13987e-10
-1.02518e-10
-1.14162e-10
-1.07524e-10
-1.14322e-10
-1.12577e-10
-1.14424e-10
-1.17724e-10
-1.14398e-10
-1.23117e-10
-1.14015e-10
-1.28686e-10
-1.13217e-10
-1.34202e-10
-1.12194e-10
-1.39615e-10
-1.10998e-10
-1.4491e-10
-1.09648e-10
-1.50074e-10
-1.08158e-10
-1.06546e-10
-1.551e-10
-6.50038e-14
-2.81806e-12
-2.60278e-13
-8.31427e-12
-5.86075e-13
-1.36702e-11
-1.04265e-12
-1.88854e-11
-1.63029e-12
-2.39592e-11
-2.34927e-12
-2.88912e-11
-3.1999e-12
-3.36809e-11
-4.1825e-12
-3.83277e-11
-5.29742e-12
-4.28311e-11
-6.545e-12
-4.71906e-11
-7.92562e-12
-5.14056e-11
-9.43965e-12
-5.54756e-11
-1.10875e-11
-5.94001e-11
-1.28696e-11
-6.31785e-11
-1.47864e-11
-6.68103e-11
-1.68383e-11
-7.02948e-11
-1.90257e-11
-7.36316e-11
-2.13493e-11
-7.68201e-11
-2.38095e-11
-7.98597e-11
-2.64067e-11
-8.27498e-11
-2.91416e-11
-8.54899e-11
-3.20147e-11
-8.80793e-11
-3.50265e-11
-9.05175e-11
-3.81777e-11
-9.28039e-11
-4.14689e-11
-9.49379e-11
-4.49005e-11
-9.69189e-11
-4.84734e-11
-9.87462e-11
-5.21882e-11
-1.00419e-10
-5.60454e-11
-1.01937e-10
-6.00458e-11
-1.033e-10
-6.41901e-11
-1.04507e-10
-6.8479e-11
-1.05557e-10
-7.29132e-11
-1.06449e-10
-7.74933e-11
-1.07184e-10
-8.22192e-11
-1.0776e-10
-8.71668e-11
-1.08189e-10
-9.21406e-11
-1.08496e-10
-9.71847e-11
-1.08723e-10
-1.02266e-10
-1.08905e-10
-1.07352e-10
-1.09076e-10
-1.12474e-10
-1.09201e-10
-1.17629e-10
-1.09268e-10
-1.22938e-10
-1.09089e-10
-1.28409e-10
-1.08544e-10
-1.33848e-10
-1.07778e-10
-1.39203e-10
-1.06839e-10
-1.44458e-10
-1.05743e-10
-1.49601e-10
-1.04504e-10
-1.54622e-10
-1.03137e-10
-1.01654e-10
-1.59514e-10
-6.89352e-14
-2.74912e-12
-2.7586e-13
-8.10735e-12
-6.20922e-13
-1.33252e-11
-1.10429e-12
-1.8402e-11
-1.72615e-12
-2.33374e-11
-2.48669e-12
-2.81307e-11
-3.38611e-12
-3.27815e-11
-4.42462e-12
-3.72892e-11
-5.60245e-12
-4.16533e-11
-6.91984e-12
-4.58732e-11
-8.37703e-12
-4.99484e-11
-9.97428e-12
-5.38784e-11
-1.17119e-11
-5.76625e-11
-1.35901e-11
-6.13003e-11
-1.56092e-11
-6.47912e-11
-1.77695e-11
-6.81345e-11
-2.00714e-11
-7.13297e-11
-2.25152e-11
-7.43763e-11
-2.51011e-11
-7.72737e-11
-2.78297e-11
-8.00212e-11
-3.07012e-11
-8.26183e-11
-3.37161e-11
-8.50644e-11
-3.68747e-11
-8.73589e-11
-4.01775e-11
-8.95012e-11
-4.36249e-11
-9.14906e-11
-4.72172e-11
-9.33265e-11
-5.0955e-11
-9.50084e-11
-5.48387e-11
-9.65356e-11
-5.88688e-11
-9.79074e-11
-6.30458e-11
-9.91232e-11
-6.73701e-11
-1.00182e-10
-7.18422e-11
-1.01084e-10
-7.64625e-11
-1.01829e-10
-8.12309e-11
-1.02415e-10
-8.62617e-11
-1.02853e-10
-9.12844e-11
-1.03167e-10
-9.63808e-11
-1.03399e-10
-1.01518e-10
-1.03586e-10
-1.0666e-10
-1.03763e-10
-1.11829e-10
-1.03907e-10
-1.16977e-10
-1.04053e-10
-1.2219e-10
-1.04055e-10
-1.27538e-10
-1.03741e-10
-1.32869e-10
-1.03213e-10
-1.38132e-10
-1.02515e-10
-1.43312e-10
-1.01659e-10
-1.48396e-10
-1.00659e-10
-1.53373e-10
-9.95271e-11
-1.58235e-10
-9.82754e-11
-9.69148e-11
-1.62974e-10
-7.29722e-14
-2.91974e-13
-6.57039e-13
-1.16818e-12
-1.82544e-12
-2.62883e-12
-3.57839e-12
-4.67418e-12
-5.91624e-12
-7.30464e-12
-8.83944e-12
-1.05207e-11
-1.23486e-11
-1.4323e-11
-1.64443e-11
-1.87124e-11
-2.11275e-11
-2.36897e-11
-2.63992e-11
-2.92561e-11
-3.22605e-11
-3.54127e-11
-3.87127e-11
-4.21609e-11
-4.57573e-11
-4.95023e-11
-5.3396e-11
-5.74388e-11
-6.16308e-11
-6.59723e-11
-7.04637e-11
-7.51049e-11
-7.98957e-11
-8.50092e-11
-9.00602e-11
-9.51886e-11
-1.00361e-10
-1.05541e-10
-1.10739e-10
-1.15866e-10
-1.20973e-10
-1.26181e-10
-1.31383e-10
-1.36528e-10
-1.41603e-10
-1.46595e-10
-1.51494e-10
-1.5629e-10
-1.60974e-10
-1.65541e-10
-2.99958e-11
-1.70338e-10
-3.19675e-11
-1.69147e-10
-3.39051e-11
-1.64448e-10
-3.57701e-11
-1.59678e-10
-3.75586e-11
-1.54931e-10
-3.92764e-11
-1.50225e-10
-4.09307e-11
-1.45563e-10
-4.25273e-11
-1.40952e-10
-4.40713e-11
-1.36397e-10
-4.55674e-11
-1.31902e-10
-4.70194e-11
-1.27472e-10
-4.84311e-11
-1.23113e-10
-4.98053e-11
-1.18828e-10
-5.11448e-11
-1.14621e-10
-5.24517e-11
-1.10496e-10
-5.37279e-11
-1.06455e-10
-5.49751e-11
-1.02502e-10
-5.61945e-11
-9.86391e-11
-5.73872e-11
-9.48681e-11
-5.85541e-11
-9.11911e-11
-5.96959e-11
-8.76098e-11
-6.08132e-11
-8.41252e-11
-6.19065e-11
-8.07386e-11
-6.2976e-11
-7.74506e-11
-6.40222e-11
-7.42616e-11
-6.50452e-11
-7.1172e-11
-6.60452e-11
-6.81817e-11
-6.70224e-11
-6.52905e-11
-6.7977e-11
-6.2498e-11
-6.8909e-11
-5.98034e-11
-6.98187e-11
-5.72061e-11
-7.07061e-11
-5.47049e-11
-7.15716e-11
-5.22989e-11
-7.24151e-11
-4.99865e-11
-7.32371e-11
-4.77664e-11
-7.40376e-11
-4.5637e-11
-7.48169e-11
-4.35966e-11
-7.55754e-11
-4.16434e-11
-7.63134e-11
-3.97755e-11
-7.70311e-11
-3.79909e-11
-7.77289e-11
-3.62875e-11
-7.84073e-11
-3.46632e-11
-7.90668e-11
-3.31157e-11
-7.97076e-11
-3.16429e-11
-8.03304e-11
-3.02424e-11
-8.09357e-11
-2.89119e-11
-8.15239e-11
-2.76491e-11
-8.20957e-11
-2.64515e-11
-8.26518e-11
-2.53161e-11
-2.42401e-11
-8.31926e-11
-3.7423e-11
-1.68822e-10
-4.01786e-11
-1.66391e-10
-4.2766e-11
-1.6186e-10
-4.51724e-11
-1.57272e-10
-4.74134e-11
-1.5269e-10
-4.95095e-11
-1.48128e-10
-5.14788e-11
-1.43594e-10
-5.33361e-11
-1.39095e-10
-5.50947e-11
-1.34638e-10
-5.67656e-11
-1.30231e-10
-5.83587e-11
-1.25879e-10
-5.98823e-11
-1.2159e-10
-6.13436e-11
-1.17367e-10
-6.2749e-11
-1.13216e-10
-6.41037e-11
-1.09141e-10
-6.54123e-11
-1.05147e-10
-6.66789e-11
-1.01236e-10
-6.79067e-11
-9.74114e-11
-6.90985e-11
-9.36763e-11
-7.02567e-11
-9.00329e-11
-7.13834e-11
-8.64831e-11
-7.24801e-11
-8.30285e-11
-7.35484e-11
-7.96704e-11
-7.45892e-11
-7.64097e-11
-7.56037e-11
-7.32472e-11
-7.65925e-11
-7.01832e-11
-7.75563e-11
-6.72179e-11
-7.84957e-11
-6.43511e-11
-7.9411e-11
-6.15826e-11
-8.03028e-11
-5.89116e-11
-8.11714e-11
-5.63376e-11
-8.20169e-11
-5.38594e-11
-8.28399e-11
-5.14759e-11
-8.36404e-11
-4.91859e-11
-8.44189e-11
-4.6988e-11
-8.51755e-11
-4.48804e-11
-8.59106e-11
-4.28615e-11
-8.66246e-11
-4.09295e-11
-8.73177e-11
-3.90824e-11
-8.79904e-11
-3.73182e-11
-8.8643e-11
-3.56349e-11
-8.9276e-11
-3.40302e-11
-8.98898e-11
-3.25019e-11
-9.0485e-11
-3.10477e-11
-9.1062e-11
-2.96654e-11
-9.16215e-11
-2.83524e-11
-9.2164e-11
-2.71065e-11
-9.26902e-11
-2.59253e-11
-9.32007e-11
-2.48055e-11
-2.37445e-11
-9.36964e-11
-4.52267e-11
-1.67022e-10
-4.81956e-11
-1.63423e-10
-5.1018e-11
-1.59038e-10
-5.36823e-11
-1.54608e-10
-5.61965e-11
-1.50175e-10
-5.85713e-11
-1.45754e-10
-6.08162e-11
-1.41349e-10
-6.29409e-11
-1.3697e-10
-6.49542e-11
-1.32625e-10
-6.68648e-11
-1.2832e-10
-6.86805e-11
-1.24064e-10
-7.04088e-11
-1.19861e-10
-7.20566e-11
-1.15719e-10
-7.36301e-11
-1.11643e-10
-7.51351e-11
-1.07636e-10
-7.65768e-11
-1.03705e-10
-7.79599e-11
-9.98526e-11
-7.92888e-11
-9.60825e-11
-8.05672e-11
-9.23979e-11
-8.17986e-11
-8.88015e-11
-8.29859e-11
-8.52958e-11
-8.41319e-11
-8.18825e-11
-8.5239e-11
-7.85633e-11
-8.63092e-11
-7.53395e-11
-8.73443e-11
-7.2212e-11
-8.83461e-11
-6.91815e-11
-8.93159e-11
-6.62481e-11
-9.02549e-11
-6.34121e-11
-9.11643e-11
-6.06732e-11
-9.2045e-11
-5.80309e-11
-9.28979e-11
-5.54846e-11
-9.37238e-11
-5.30334e-11
-9.45235e-11
-5.06763e-11
-9.52975e-11
-4.84119e-11
-9.60465e-11
-4.62389e-11
-9.67712e-11
-4.41557e-11
-9.7472e-11
-4.21606e-11
-9.81497e-11
-4.02518e-11
-9.88046e-11
-3.84274e-11
-9.94375e-11
-3.66853e-11
-1.00049e-10
-3.50235e-11
-1.00639e-10
-3.34397e-11
-1.0121e-10
-3.19317e-11
-1.0176e-10
-3.04971e-11
-1.02292e-10
-2.91337e-11
-1.02805e-10
-2.78391e-11
-1.03301e-10
-2.66108e-11
-1.0378e-10
-2.54464e-11
-1.04243e-10
-2.43428e-11
-2.3297e-11
-1.0469e-10
-5.15004e-11
-1.64917e-10
-5.41579e-11
-1.60765e-10
-5.67956e-11
-1.564e-10
-5.93914e-11
-1.52012e-10
-6.19328e-11
-1.47634e-10
-6.44112e-11