/*--------------------------------*- C++ -*----------------------------------*\
| =========                 |                                                 |
| \\      /  F ield         | OpenFOAM: The Open Source CFD Toolbox           |
|  \\    /   O peration     | Version:  2.4.0                                 |
|   \\  /    A nd           | Web:      www.OpenFOAM.org                      |
|    \\/     M anipulation  |                                                 |
\*---------------------------------------------------------------------------*/
FoamFile
{
    version     2.0;
    format      ascii;
    class       volVectorField;
    location    "0.3";
    object      U;
}
// * * * * * * * * * * * * * * * * * * * * * * * * * * * * * * * * * * * * * //

dimensions      [0 1 -1 0 0 0 0];

internalField   nonuniform List<vector> 
8000
(
(-1.71192e-08 -0.000347319 0)
(-1.86275e-07 -0.00102796 0)
(-5.3823e-07 -0.00169459 0)
(-1.07212e-06 -0.00234721 0)
(-1.78367e-06 -0.00298581 0)
(-2.67059e-06 -0.00361038 0)
(-3.73211e-06 -0.00422091 0)
(-4.96767e-06 -0.00481741 0)
(-6.37671e-06 -0.00539985 0)
(-7.95868e-06 -0.00596825 0)
(-9.71311e-06 -0.00652258 0)
(-1.16396e-05 -0.00706286 0)
(-1.37379e-05 -0.00758906 0)
(-1.60079e-05 -0.00810118 0)
(-1.84495e-05 -0.00859922 0)
(-2.10628e-05 -0.00908317 0)
(-2.3848e-05 -0.00955303 0)
(-2.68055e-05 -0.0100088 0)
(-2.99358e-05 -0.0104504 0)
(-3.32396e-05 -0.010878 0)
(-3.67176e-05 -0.0112914 0)
(-4.03709e-05 -0.0116907 0)
(-4.42006e-05 -0.0120758 0)
(-4.82081e-05 -0.0124468 0)
(-5.23948e-05 -0.0128037 0)
(-5.67624e-05 -0.0131464 0)
(-6.13129e-05 -0.013475 0)
(-6.60483e-05 -0.0137894 0)
(-7.09711e-05 -0.0140896 0)
(-7.60837e-05 -0.0143756 0)
(-8.13891e-05 -0.0146474 0)
(-8.689e-05 -0.0149051 0)
(-9.25902e-05 -0.0151485 0)
(-9.84929e-05 -0.0153777 0)
(-0.000104602 -0.0155926 0)
(-0.000110923 -0.0157934 0)
(-0.000117458 -0.0159798 0)
(-0.000124214 -0.016152 0)
(-0.000131196 -0.0163099 0)
(-0.00013841 -0.0164536 0)
(-0.000145861 -0.0165829 0)
(-0.000153558 -0.0166979 0)
(-0.000161503 -0.0167985 0)
(-0.0001697 -0.0168849 0)
(-0.000178162 -0.0169568 0)
(-0.000186975 -0.0170143 0)
(-0.000196306 -0.0170574 0)
(-0.00020597 -0.0170861 0)
(-0.000214252 -0.0171013 0)
(-0.000221012 -0.0171055 0)
(-2.05444e-08 -0.000346145 0)
(-2.32522e-07 -0.00102443 0)
(-6.74386e-07 -0.00168871 0)
(-1.34467e-06 -0.00233898 0)
(-2.2371e-06 -0.00297523 0)
(-3.34804e-06 -0.00359745 0)
(-4.67599e-06 -0.00420563 0)
(-6.21993e-06 -0.00479978 0)
(-7.97899e-06 -0.00537989 0)
(-9.95244e-06 -0.00594594 0)
(-1.21398e-05 -0.00649793 0)
(-1.45406e-05 -0.00703586 0)
(-1.7155e-05 -0.00755972 0)
(-1.99829e-05 -0.0080695 0)
(-2.30247e-05 -0.00856519 0)
(-2.62809e-05 -0.00904679 0)
(-2.97523e-05 -0.00951429 0)
(-3.34397e-05 -0.00996767 0)
(-3.73443e-05 -0.0104069 0)
(-4.14675e-05 -0.0108321 0)
(-4.58107e-05 -0.0112431 0)
(-5.03759e-05 -0.01164 0)
(-5.51647e-05 -0.0120227 0)
(-6.01796e-05 -0.0123912 0)
(-6.54228e-05 -0.0127456 0)
(-7.0897e-05 -0.0130858 0)
(-7.66047e-05 -0.0134118 0)
(-8.25495e-05 -0.0137236 0)
(-8.87338e-05 -0.0140212 0)
(-9.5162e-05 -0.0143046 0)
(-0.000101837 -0.0145737 0)
(-0.000108763 -0.0148286 0)
(-0.000115943 -0.0150693 0)
(-0.000123383 -0.0152956 0)
(-0.000131086 -0.0155077 0)
(-0.000139057 -0.0157054 0)
(-0.0001473 -0.0158889 0)
(-0.000155822 -0.016058 0)
(-0.000164624 -0.0162128 0)
(-0.000173716 -0.0163532 0)
(-0.000183097 -0.0164792 0)
(-0.000192779 -0.0165908 0)
(-0.000202753 -0.0166879 0)
(-0.000213028 -0.0167706 0)
(-0.000223618 -0.0168389 0)
(-0.000234669 -0.0168926 0)
(-0.000246337 -0.0169319 0)
(-0.00025795 -0.0169567 0)
(-0.000267388 -0.0169686 0)
(-0.000275264 -0.0169699 0)
(-2.85305e-08 -0.000344463 0)
(-2.96191e-07 -0.00101945 0)
(-8.47081e-07 -0.0016805 0)
(-1.67758e-06 -0.00232759 0)
(-2.77942e-06 -0.0029607 0)
(-4.14797e-06 -0.00357982 0)
(-5.78121e-06 -0.00418494 0)
(-7.67773e-06 -0.00477604 0)
(-9.83626e-06 -0.00535312 0)
(-1.22558e-05 -0.00591616 0)
(-1.49355e-05 -0.00646516 0)
(-1.78749e-05 -0.00700009 0)
(-2.10738e-05 -0.00752095 0)
(-2.45324e-05 -0.00802773 0)
(-2.82507e-05 -0.00852042 0)
(-3.22296e-05 -0.00899901 0)
(-3.64697e-05 -0.00946347 0)
(-4.09722e-05 -0.00991381 0)
(-4.57382e-05 -0.01035 0)
(-5.07695e-05 -0.0107721 0)
(-5.60676e-05 -0.01118 0)
(-6.16349e-05 -0.0115737 0)
(-6.74731e-05 -0.0119532 0)
(-7.35852e-05 -0.0123186 0)
(-7.99733e-05 -0.0126697 0)
(-8.66409e-05 -0.0130066 0)
(-9.35901e-05 -0.0133293 0)
(-0.000100825 -0.0136377 0)
(-0.000108349 -0.0139319 0)
(-0.000116166 -0.0142118 0)
(-0.000124278 -0.0144774 0)
(-0.000132692 -0.0147287 0)
(-0.000141409 -0.0149657 0)
(-0.000150436 -0.0151884 0)
(-0.000159774 -0.0153967 0)
(-0.000169433 -0.0155907 0)
(-0.000179411 -0.0157702 0)
(-0.000189719 -0.0159355 0)
(-0.000200355 -0.0160863 0)
(-0.000211332 -0.0162227 0)
(-0.000222647 -0.0163446 0)
(-0.000234311 -0.0164521 0)
(-0.000246311 -0.0165452 0)
(-0.000258662 -0.0166238 0)
(-0.000271413 -0.0166879 0)
(-0.00028478 -0.0167375 0)
(-0.000298816 -0.0167726 0)
(-0.00031192 -0.0167936 0)
(-0.000322566 -0.0168033 0)
(-0.00033196 -0.0168035 0)
(-2.67978e-08 -0.000342642 0)
(-3.13982e-07 -0.00101401 0)
(-9.16945e-07 -0.00167146 0)
(-1.83542e-06 -0.00231496 0)
(-3.06202e-06 -0.0029445 0)
(-4.5927e-06 -0.00356007 0)
(-6.42605e-06 -0.00416165 0)
(-8.56127e-06 -0.00474924 0)
(-1.09975e-05 -0.0053228 0)
(-1.37341e-05 -0.00588234 0)
(-1.67705e-05 -0.00642784 0)
(-2.01063e-05 -0.00695928 0)
(-2.37414e-05 -0.00747665 0)
(-2.7676e-05 -0.00797993 0)
(-3.19103e-05 -0.00846912 0)
(-3.64447e-05 -0.0089442 0)
(-4.128e-05 -0.00940515 0)
(-4.64172e-05 -0.00985196 0)
(-5.18573e-05 -0.0102846 0)
(-5.76017e-05 -0.0107031 0)
(-6.36519e-05 -0.0111074 0)
(-7.00099e-05 -0.0114975 0)
(-7.66773e-05 -0.0118735 0)
(-8.36568e-05 -0.0122351 0)
(-9.09504e-05 -0.0125826 0)
(-9.85611e-05 -0.0129158 0)
(-0.000106491 -0.0132347 0)
(-0.000114745 -0.0135393 0)
(-0.000123324 -0.0138296 0)
(-0.000132234 -0.0141057 0)
(-0.000141477 -0.0143673 0)
(-0.000151058 -0.0146147 0)
(-0.00016098 -0.0148476 0)
(-0.000171249 -0.0150662 0)
(-0.000181869 -0.0152704 0)
(-0.000192846 -0.0154602 0)
(-0.000204184 -0.0156355 0)
(-0.000215891 -0.0157964 0)
(-0.00022797 -0.0159428 0)
(-0.000240431 -0.0160748 0)
(-0.000253278 -0.0161922 0)
(-0.000266514 -0.016295 0)
(-0.000280139 -0.0163834 0)
(-0.000294172 -0.0164571 0)
(-0.000308748 -0.0165163 0)
(-0.000324118 -0.0165609 0)
(-0.000339884 -0.0165909 0)
(-0.000353487 -0.0166074 0)
(-0.000365048 -0.0166136 0)
(-0.000377725 -0.0166128 0)
(-3.63457e-08 -0.000340566 0)
(-3.80418e-07 -0.00100781 0)
(-1.09119e-06 -0.00166116 0)
(-2.16552e-06 -0.00230058 0)
(-3.59428e-06 -0.00292607 0)
(-5.37277e-06 -0.0035376 0)
(-7.49953e-06 -0.00413515 0)
(-9.97368e-06 -0.00471872 0)
(-1.27945e-05 -0.00528828 0)
(-1.59612e-05 -0.00584382 0)
(-1.94735e-05 -0.00638532 0)
(-2.33312e-05 -0.00691277 0)
(-2.75344e-05 -0.00742615 0)
(-3.20832e-05 -0.00792544 0)
(-3.69785e-05 -0.00841062 0)
(-4.22208e-05 -0.00888169 0)
(-4.78113e-05 -0.00933862 0)
(-5.37512e-05 -0.0097814 0)
(-6.00421e-05 -0.01021 0)
(-6.66855e-05 -0.0106244 0)
(-7.36839e-05 -0.0110247 0)
(-8.10389e-05 -0.0114107 0)
(-8.87537e-05 -0.0117824 0)
(-9.68303e-05 -0.0121399 0)
(-0.000105273 -0.0124832 0)
(-0.000114083 -0.0128121 0)
(-0.000123266 -0.0131267 0)
(-0.000132824 -0.013427 0)
(-0.000142762 -0.013713 0)
(-0.000153084 -0.0139846 0)
(-0.000163796 -0.0142418 0)
(-0.0001749 -0.0144846 0)
(-0.000186405 -0.014713 0)
(-0.000198312 -0.0149269 0)
(-0.000210633 -0.0151264 0)
(-0.000223365 -0.0153114 0)
(-0.000236526 -0.0154819 0)
(-0.00025011 -0.0156378 0)
(-0.000264139 -0.0157792 0)
(-0.000278604 -0.015906 0)
(-0.000293529 -0.0160182 0)
(-0.000308893 -0.0161157 0)
(-0.000324721 -0.0161986 0)
(-0.000341053 -0.0162668 0)
(-0.000358153 -0.0163203 0)
(-0.000376168 -0.0163591 0)
(-0.000393503 -0.0163834 0)
(-0.000407793 -0.0163957 0)
(-0.000420585 -0.0163985 0)
(-0.000440255 -0.0163964 0)
(-3.56178e-08 -0.000338141 0)
(-4.09435e-07 -0.00100058 0)
(-1.19267e-06 -0.00164915 0)
(-2.38528e-06 -0.00228384 0)
(-3.97835e-06 -0.00290461 0)
(-5.96733e-06 -0.00351144 0)
(-8.35126e-06 -0.00410432 0)
(-1.11297e-05 -0.00468323 0)
(-1.43025e-05 -0.00524814 0)
(-1.78692e-05 -0.00579903 0)
(-2.18301e-05 -0.0063359 0)
(-2.61853e-05 -0.0068587 0)
(-3.09354e-05 -0.00736743 0)
(-3.6081e-05 -0.00786207 0)
(-4.16234e-05 -0.00834259 0)
(-4.75635e-05 -0.00880898 0)
(-5.39031e-05 -0.00926122 0)
(-6.06436e-05 -0.00969928 0)
(-6.77876e-05 -0.0101231 0)
(-7.53367e-05 -0.0105328 0)
(-8.32941e-05 -0.0109282 0)
(-9.16619e-05 -0.0113094 0)
(-0.000100444 -0.0116763 0)
(-0.000109643 -0.0120289 0)
(-0.000119263 -0.0123671 0)
(-0.000129307 -0.0126911 0)
(-0.000139781 -0.0130007 0)
(-0.000150687 -0.0132958 0)
(-0.000162032 -0.0135766 0)
(-0.00017382 -0.013843 0)
(-0.000186056 -0.0140949 0)
(-0.000198746 -0.0143323 0)
(-0.000211896 -0.0145553 0)
(-0.000225511 -0.0147637 0)
(-0.000239599 -0.0149575 0)
(-0.000254165 -0.0151368 0)
(-0.000269218 -0.0153015 0)
(-0.000284764 -0.0154516 0)
(-0.000300812 -0.015587 0)
(-0.000317368 -0.0157077 0)
(-0.000334436 -0.0158138 0)
(-0.000352012 -0.0159051 0)
(-0.000370121 -0.0159816 0)
(-0.000388922 -0.0160433 0)
(-0.000408729 -0.0160903 0)
(-0.000429048 -0.0161224 0)
(-0.000446814 -0.016141 0)
(-0.0004621 -0.0161495 0)
(-0.000478858 -0.0161506 0)
(-0.000506307 -0.0161468 0)
(-4.35278e-08 -0.00033553 0)
(-4.69489e-07 -0.00099275 0)
(-1.35441e-06 -0.00163611 0)
(-2.69708e-06 -0.00226559 0)
(-4.4876e-06 -0.00288116 0)
(-6.72153e-06 -0.00348279 0)
(-9.3982e-06 -0.00407047 0)
(-1.25178e-05 -0.00464417 0)
(-1.60803e-05 -0.00520388 0)
(-2.0086e-05 -0.00574957 0)
(-2.45353e-05 -0.00628121 0)
(-2.9429e-05 -0.00679879 0)
(-3.47678e-05 -0.00730229 0)
(-4.05532e-05 -0.00779167 0)
(-4.67863e-05 -0.00826693 0)
(-5.34693e-05 -0.00872803 0)
(-6.06035e-05 -0.00917495 0)
(-6.81918e-05 -0.00960767 0)
(-7.6236e-05 -0.0100262 0)
(-8.47397e-05 -0.0104304 0)
(-9.37048e-05 -0.0108204 0)
(-0.000103136 -0.0111961 0)
(-0.000113035 -0.0115575 0)
(-0.000123408 -0.0119045 0)
(-0.000134256 -0.0122371 0)
(-0.000145588 -0.0125554 0)
(-0.000157403 -0.0128593 0)
(-0.000169711 -0.0131487 0)
(-0.000182513 -0.0134236 0)
(-0.000195819 -0.0136841 0)
(-0.00020963 -0.01393 0)
(-0.000223958 -0.0141614 0)
(-0.000238801 -0.0143782 0)
(-0.000254176 -0.0145804 0)
(-0.000270078 -0.014768 0)
(-0.000286529 -0.0149409 0)
(-0.000303519 -0.0150991 0)
(-0.000321075 -0.0152426 0)
(-0.000339185 -0.0153713 0)
(-0.000357878 -0.0154853 0)
(-0.000377122 -0.0155844 0)
(-0.000396956 -0.0156687 0)
(-0.000417438 -0.0157381 0)
(-0.000438917 -0.0157927 0)
(-0.000461458 -0.0158324 0)
(-0.000482811 -0.0158576 0)
(-0.000500685 -0.0158712 0)
(-0.000517366 -0.015876 0)
(-0.000543188 -0.0158763 0)
(-0.000577848 -0.0158654 0)
(-4.47881e-08 -0.000332537 0)
(-5.08561e-07 -0.000983797 0)
(-1.4796e-06 -0.00162122 0)
(-2.95868e-06 -0.00224478 0)
(-4.93558e-06 -0.00285445 0)
(-7.40587e-06 -0.0034502 0)
(-1.03692e-05 -0.004032 0)
(-1.38261e-05 -0.00459983 0)
(-1.77772e-05 -0.00515367 0)
(-2.22231e-05 -0.00569348 0)
(-2.71645e-05 -0.00621924 0)
(-3.26027e-05 -0.00673093 0)
(-3.8539e-05 -0.00722852 0)
(-4.49752e-05 -0.00771198 0)
(-5.19128e-05 -0.00818129 0)
(-5.93543e-05 -0.00863642 0)
(-6.73019e-05 -0.00907734 0)
(-7.57585e-05 -0.00950403 0)
(-8.47267e-05 -0.00991646 0)
(-9.421e-05 -0.0103146 0)
(-0.000104212 -0.0106984 0)
(-0.000114736 -0.0110679 0)
(-0.000125786 -0.0114231 0)
(-0.000137367 -0.0117638 0)
(-0.000149483 -0.0120901 0)
(-0.000162139 -0.012402 0)
(-0.00017534 -0.0126993 0)
(-0.000189092 -0.0129822 0)
(-0.000203401 -0.0132505 0)
(-0.000218272 -0.0135043 0)
(-0.000233713 -0.0137434 0)
(-0.000249729 -0.013968 0)
(-0.000266329 -0.0141778 0)
(-0.000283517 -0.014373 0)
(-0.000301306 -0.0145535 0)
(-0.000319697 -0.0147191 0)
(-0.000338708 -0.01487 0)
(-0.000358337 -0.0150061 0)
(-0.000378604 -0.0151273 0)
(-0.000399495 -0.0152336 0)
(-0.000421025 -0.015325 0)
(-0.000443057 -0.0154015 0)
(-0.000466369 -0.0154629 0)
(-0.000492122 -0.0155093 0)
(-0.0005179 -0.0155409 0)
(-0.000539078 -0.0155595 0)
(-0.000557544 -0.0155688 0)
(-0.000580752 -0.0155717 0)
(-0.000615647 -0.0155701 0)
(-0.000661896 -0.0155336 0)
(-5.14669e-08 -0.000329329 0)
(-5.66054e-07 -0.000974163 0)
(-1.63963e-06 -0.00160515 0)
(-3.27238e-06 -0.00222227 0)
(-5.45385e-06 -0.00282549 0)
(-8.17966e-06 -0.00341478 0)
(-1.14504e-05 -0.00399011 0)
(-1.52669e-05 -0.00455147 0)
(-1.96308e-05 -0.00509881 0)
(-2.45428e-05 -0.00563212 0)
(-3.00048e-05 -0.00615136 0)
(-3.60179e-05 -0.0066565 0)
(-4.25847e-05 -0.00714752 0)
(-4.97066e-05 -0.00762438 0)
(-5.73869e-05 -0.00808707 0)
(-6.56274e-05 -0.00853554 0)
(-7.44321e-05 -0.00896977 0)
(-8.38028e-05 -0.00938973 0)
(-9.37448e-05 -0.00979539 0)
(-0.00010426 -0.0101867 0)
(-0.000115354 -0.0105637 0)
(-0.00012703 -0.0109263 0)
(-0.000139294 -0.0112744 0)
(-0.000152148 -0.0116081 0)
(-0.000165602 -0.0119273 0)
(-0.000179656 -0.012232 0)
(-0.000194321 -0.0125222 0)
(-0.000209597 -0.0127977 0)
(-0.000225498 -0.0130587 0)
(-0.000242023 -0.0133049 0)
(-0.000259187 -0.0135366 0)
(-0.000276988 -0.0137534 0)
(-0.000295444 -0.0139556 0)
(-0.000314552 -0.0141429 0)
(-0.000334333 -0.0143154 0)
(-0.000354781 -0.014473 0)
(-0.000375922 -0.0146158 0)
(-0.000397749 -0.0147436 0)
(-0.00042028 -0.0148564 0)
(-0.000443493 -0.0149542 0)
(-0.000467434 -0.0150369 0)
(-0.000492266 -0.0151046 0)
(-0.000518406 -0.0151571 0)
(-0.000545374 -0.0151946 0)
(-0.000569673 -0.015218 0)
(-0.000590705 -0.0152314 0)
(-0.000612749 -0.0152374 0)
(-0.000647517 -0.0152398 0)
(-0.000689834 -0.015229 0)
(-0.000746572 -0.0151229 0)
(-5.52887e-08 -0.000325731 0)
(-6.17195e-07 -0.000963382 0)
(-1.79232e-06 -0.0015872 0)
(-3.58152e-06 -0.00219714 0)
(-5.97349e-06 -0.00279319 0)
(-8.96401e-06 -0.00337531 0)
(-1.25536e-05 -0.00394347 0)
(-1.67441e-05 -0.00449764 0)
(-2.15369e-05 -0.00503779 0)
(-2.69338e-05 -0.00556387 0)
(-3.29365e-05 -0.00607587 0)
(-3.95475e-05 -0.00657375 0)
(-4.67687e-05 -0.00705748 0)
(-5.46035e-05 -0.00752703 0)
(-6.3054e-05 -0.00798235 0)
(-7.21245e-05 -0.00842343 0)
(-8.18171e-05 -0.00885022 0)
(-9.21372e-05 -0.0092627 0)
(-0.000103087 -0.00966083 0)
(-0.000114673 -0.0100446 0)
(-0.000126897 -0.0104139 0)
(-0.000139768 -0.0107688 0)
(-0.000153286 -0.0111092 0)
(-0.000167462 -0.011435 0)
(-0.000182296 -0.0117464 0)
(-0.0001978 -0.0120431 0)
(-0.000213974 -0.0123252 0)
(-0.000230832 -0.0125926 0)
(-0.000248371 -0.0128453 0)
(-0.000266611 -0.0130833 0)
(-0.000285545 -0.0133065 0)
(-0.000305197 -0.0135149 0)
(-0.000325558 -0.0137084 0)
(-0.000346655 -0.0138871 0)
(-0.000368474 -0.0140508 0)
(-0.000391053 -0.0141995 0)
(-0.00041437 -0.0143332 0)
(-0.000438464 -0.0144518 0)
(-0.000463291 -0.0145553 0)
(-0.000488907 -0.0146437 0)
(-0.000515397 -0.0147169 0)
(-0.00054321 -0.0147748 0)
(-0.000572274 -0.0148175 0)
(-0.000599647 -0.0148457 0)
(-0.000623034 -0.0148627 0)
(-0.000645644 -0.0148721 0)
(-0.000679484 -0.0148772 0)
(-0.00072212 -0.014876 0)
(-0.000776274 -0.0148321 0)
(-0.000815239 -0.0146151 0)
(-6.0697e-08 -0.000321852 0)
(-6.7196e-07 -0.000951738 0)
(-1.94985e-06 -0.00156778 0)
(-3.89531e-06 -0.00216994 0)
(-6.49679e-06 -0.0027582 0)
(-9.75018e-06 -0.0033325 0)
(-1.36568e-05 -0.00389283 0)
(-1.8219e-05 -0.00443914 0)
(-2.34389e-05 -0.00497141 0)
(-2.93187e-05 -0.00548959 0)
(-3.5861e-05 -0.00599365 0)
(-4.30683e-05 -0.00648356 0)
(-5.09439e-05 -0.00695928 0)
(-5.94906e-05 -0.00742078 0)
(-6.87123e-05 -0.00786802 0)
(-7.86124e-05 -0.00830096 0)
(-8.91954e-05 -0.00871957 0)
(-0.000100465 -0.00912382 0)
(-0.000112426 -0.00951365 0)
(-0.000125083 -0.00988905 0)
(-0.000138443 -0.01025 0)
(-0.000152508 -0.0105964 0)
(-0.000167286 -0.0109282 0)
(-0.000182782 -0.0112454 0)
(-0.000199005 -0.0115481 0)
(-0.000215956 -0.011836 0)
(-0.000233648 -0.0121092 0)
(-0.000252082 -0.0123677 0)
(-0.000271273 -0.0126114 0)
(-0.000291219 -0.0128402 0)
(-0.00031194 -0.0130542 0)
(-0.00033343 -0.0132532 0)
(-0.000355715 -0.0134373 0)
(-0.000378783 -0.0136064 0)
(-0.000402669 -0.0137604 0)
(-0.000427354 -0.0138993 0)
(-0.000452877 -0.0140231 0)
(-0.000479196 -0.0141317 0)
(-0.000506357 -0.014225 0)
(-0.00053441 -0.0143031 0)
(-0.000563784 -0.0143658 0)
(-0.000594654 -0.0144133 0)
(-0.000624706 -0.0144458 0)
(-0.000650483 -0.0144662 0)
(-0.000674487 -0.0144787 0)
(-0.000707092 -0.0144863 0)
(-0.000751009 -0.0144902 0)
(-0.000802203 -0.0144715 0)
(-0.000852889 -0.0143438 0)
(-0.000874199 -0.0140822 0)
(-6.50667e-08 -0.000317623 0)
(-7.25167e-07 -0.000939048 0)
(-2.10687e-06 -0.00154662 0)
(-4.21171e-06 -0.0021403 0)
(-7.02776e-06 -0.00272006 0)
(-1.05507e-05 -0.00328585 0)
(-1.47826e-05 -0.00383764 0)
(-1.97259e-05 -0.00437539 0)
(-2.53837e-05 -0.00489906 0)
(-3.17581e-05 -0.00540862 0)
(-3.88527e-05 -0.00590403 0)
(-4.66701e-05 -0.00638524 0)
(-5.52142e-05 -0.00685223 0)
(-6.44882e-05 -0.00730494 0)
(-7.44965e-05 -0.00774335 0)
(-8.52429e-05 -0.00816741 0)
(-9.67324e-05 -0.00857709 0)
(-0.000108969 -0.00897234 0)
(-0.000121958 -0.00935312 0)
(-0.000135705 -0.00971939 0)
(-0.000150216 -0.0100711 0)
(-0.000165495 -0.0104083 0)
(-0.00018155 -0.0107308 0)
(-0.000198386 -0.0110386 0)
(-0.00021601 -0.0113317 0)
(-0.00023443 -0.0116101 0)
(-0.000253651 -0.0118736 0)
(-0.000273683 -0.0121223 0)
(-0.000294532 -0.0123561 0)
(-0.000316208 -0.012575 0)
(-0.000338716 -0.0127789 0)
(-0.00036207 -0.0129678 0)
(-0.000386271 -0.0131415 0)
(-0.000411341 -0.0133002 0)
(-0.000437274 -0.0134437 0)
(-0.000464096 -0.0135719 0)
(-0.000491783 -0.0136849 0)
(-0.000520356 -0.0137826 0)
(-0.000549863 -0.0138649 0)
(-0.000580686 -0.0139318 0)
(-0.000613176 -0.0139833 0)
(-0.000645498 -0.0140195 0)
(-0.000673612 -0.014043 0)
(-0.000699259 -0.0140583 0)
(-0.000730938 -0.0140684 0)
(-0.000776166 -0.0140758 0)
(-0.000826523 -0.0140698 0)
(-0.000882593 -0.0139995 0)
(-0.000908012 -0.0137919 0)
(-0.000939043 -0.0135401 0)
(-7.02185e-08 -0.00031308 0)
(-7.80845e-07 -0.000925401 0)
(-2.26814e-06 -0.00152385 0)
(-4.53432e-06 -0.00210839 0)
(-7.56655e-06 -0.00267897 0)
(-1.13612e-05 -0.00323556 0)
(-1.592e-05 -0.00377812 0)
(-2.1247e-05 -0.00430661 0)
(-2.73446e-05 -0.00482099 0)
(-3.42168e-05 -0.00532121 0)
(-4.1866e-05 -0.00580724 0)
(-5.02969e-05 -0.00627903 0)
(-5.95123e-05 -0.00673654 0)
(-6.95174e-05 -0.00717974 0)
(-8.03153e-05 -0.00760857 0)
(-9.19121e-05 -0.008023 0)
(-0.000104311 -0.00842298 0)
(-0.000117519 -0.00880848 0)
(-0.000131539 -0.00917943 0)
(-0.000146379 -0.00953582 0)
(-0.000162042 -0.00987758 0)
(-0.000178538 -0.0102047 0)
(-0.00019587 -0.0105171 0)
(-0.000214047 -0.0108147 0)
(-0.000233073 -0.0110975 0)
(-0.000252959 -0.0113655 0)
(-0.000273709 -0.0116185 0)
(-0.000295334 -0.0118567 0)
(-0.000317839 -0.0120798 0)
(-0.000341234 -0.0122879 0)
(-0.000365526 -0.0124809 0)
(-0.000390727 -0.0126588 0)
(-0.000416843 -0.0128214 0)
(-0.000443886 -0.0129688 0)
(-0.000471863 -0.013101 0)
(-0.000500771 -0.0132177 0)
(-0.000530605 -0.0133191 0)
(-0.000561421 -0.013405 0)
(-0.000593557 -0.0134754 0)
(-0.000627493 -0.0135304 0)
(-0.000661726 -0.0135699 0)
(-0.000691966 -0.0135961 0)
(-0.000719171 -0.0136137 0)
(-0.000750448 -0.0136261 0)
(-0.000796697 -0.0136364 0)
(-0.000847583 -0.0136379 0)
(-0.000905459 -0.0135999 0)
(-0.000936568 -0.0134452 0)
(-0.000965452 -0.0132316 0)
(-0.00100605 -0.0129984 0)
(-7.50004e-08 -0.000308195 0)
(-8.36263e-07 -0.000910722 0)
(-2.43065e-06 -0.00149936 0)
(-4.86049e-06 -0.00207405 0)
(-8.113e-06 -0.00263477 0)
(-1.21836e-05 -0.00318145 0)
(-1.70755e-05 -0.00371408 0)
(-2.27916e-05 -0.00423259 0)
(-2.93365e-05 -0.00473695 0)
(-3.67125e-05 -0.00522711 0)
(-4.49247e-05 -0.00570303 0)
(-5.39754e-05 -0.00616467 0)
(-6.38705e-05 -0.00661198 0)
(-7.46123e-05 -0.00704491 0)
(-8.62079e-05 -0.00746343 0)
(-9.86594e-05 -0.00786748 0)
(-0.000111975 -0.00825702 0)
(-0.000126156 -0.008632 0)
(-0.000141213 -0.00899238 0)
(-0.000157146 -0.00933811 0)
(-0.000173967 -0.00966914 0)
(-0.000191676 -0.00998542 0)
(-0.000210286 -0.0102869 0)
(-0.000229798 -0.0105736 0)
(-0.000250225 -0.0108453 0)
(-0.000271567 -0.0111021 0)
(-0.000293839 -0.0113439 0)
(-0.000317041 -0.0115707 0)
(-0.00034119 -0.0117824 0)
(-0.000366285 -0.0119789 0)
(-0.000392344 -0.0121602 0)
(-0.000419366 -0.0123263 0)
(-0.000447372 -0.0124771 0)
(-0.000476359 -0.0126125 0)
(-0.000506336 -0.0127325 0)
(-0.000537285 -0.012837 0)
(-0.000569265 -0.0129259 0)
(-0.000602545 -0.0129993 0)
(-0.00063761 -0.0130572 0)
(-0.000673362 -0.0130995 0)
(-0.000705495 -0.013128 0)
(-0.000734093 -0.0131475 0)
(-0.00076544 -0.0131619 0)
(-0.000812444 -0.0131745 0)
(-0.000864466 -0.0131811 0)
(-0.00092288 -0.0131614 0)
(-0.000959079 -0.0130521 0)
(-0.000986124 -0.0128748 0)
(-0.001026 -0.0126761 0)
(-0.00106985 -0.0124613 0)
(-8.02276e-08 -0.000302972 0)
(-8.93957e-07 -0.000895027 0)
(-2.59782e-06 -0.00147316 0)
(-5.19504e-06 -0.00203732 0)
(-8.6711e-06 -0.00258746 0)
(-1.30224e-05 -0.00312354 0)
(-1.8251e-05 -0.00364552 0)
(-2.43619e-05 -0.00415334 0)
(-3.13576e-05 -0.00464697 0)
(-3.92434e-05 -0.00512635 0)
(-4.80212e-05 -0.00559144 0)
(-5.76973e-05 -0.0060422 0)
(-6.82735e-05 -0.00647857 0)
(-7.97571e-05 -0.00690051 0)
(-9.21495e-05 -0.00730797 0)
(-0.000105459 -0.00770091 0)
(-0.000119688 -0.00807926 0)
(-0.000134845 -0.008443 0)
(-0.00015093 -0.00879205 0)
(-0.000167956 -0.00912638 0)
(-0.000185922 -0.00944594 0)
(-0.000204841 -0.00975067 0)
(-0.000224712 -0.0100405 0)
(-0.00024555 -0.0103154 0)
(-0.000267352 -0.0105754 0)
(-0.000290138 -0.0108203 0)
(-0.0003139 -0.0110501 0)
(-0.000338662 -0.0112648 0)
(-0.000364415 -0.0114642 0)
(-0.000391184 -0.0116485 0)
(-0.00041896 -0.0118174 0)
(-0.000447771 -0.0119709 0)
(-0.000477606 -0.012109 0)
(-0.000508484 -0.0122317 0)
(-0.000540372 -0.0123388 0)
(-0.000573334 -0.0124303 0)
(-0.000607607 -0.0125061 0)
(-0.000643725 -0.0125663 0)
(-0.000680807 -0.0126109 0)
(-0.000714512 -0.0126414 0)
(-0.000744282 -0.0126625 0)
(-0.000775892 -0.0126786 0)
(-0.000823463 -0.0126932 0)
(-0.000876792 -0.0127033 0)
(-0.000935529 -0.0126951 0)
(-0.00097552 -0.0126217 0)
(-0.0010011 -0.0124789 0)
(-0.00104002 -0.0123129 0)
(-0.00108412 -0.0121297 0)
(-0.00112757 -0.0119319 0)
(-8.54483e-08 -0.000297397 0)
(-9.52654e-07 -0.000878271 0)
(-2.76898e-06 -0.00144519 0)
(-5.53705e-06 -0.0019981 0)
(-9.24241e-06 -0.00253696 0)
(-1.38795e-05 -0.00306173 0)
(-1.94523e-05 -0.00357234 0)
(-2.59634e-05 -0.00406876 0)
(-3.34182e-05 -0.00455093 0)
(-4.18186e-05 -0.00501882 0)
(-5.11704e-05 -0.00547237 0)
(-6.14752e-05 -0.00591152 0)
(-7.274e-05 -0.00633624 0)
(-8.4966e-05 -0.00674647 0)
(-9.81614e-05 -0.00714215 0)
(-0.000112327 -0.00752325 0)
(-0.000127472 -0.00788971 0)
(-0.000143596 -0.00824147 0)
(-0.000160711 -0.00857849 0)
(-0.000178816 -0.00890071 0)
(-0.000197923 -0.00920808 0)
(-0.000218031 -0.00950055 0)
(-0.000239155 -0.00977805 0)
(-0.00026129 -0.0100405 0)
(-0.000284455 -0.010288 0)
(-0.000308643 -0.0105203 0)
(-0.000333877 -0.0107374 0)
(-0.000360146 -0.0109393 0)
(-0.000387477 -0.0111259 0)
(-0.000415855 -0.0112971 0)
(-0.000445315 -0.0114529 0)
(-0.000475836 -0.0115933 0)
(-0.000507446 -0.0117181 0)
(-0.0005401 -0.0118273 0)
(-0.000573865 -0.0119209 0)
(-0.000608951 -0.0119988 0)
(-0.000645935 -0.0120609 0)
(-0.000684111 -0.0121074 0)
(-0.000719121 -0.0121395 0)
(-0.000749851 -0.012162 0)
(-0.000781756 -0.0121794 0)
(-0.000829745 -0.0121956 0)
(-0.000884371 -0.0122085 0)
(-0.000943531 -0.012208 0)
(-0.000986006 -0.0121622 0)
(-0.00101039 -0.0120511 0)
(-0.00104821 -0.0119156 0)
(-0.00109218 -0.0117625 0)
(-0.00113596 -0.0115938 0)
(-0.00117802 -0.0114115 0)
(-9.09735e-08 -0.00029146 0)
(-1.01361e-06 -0.00086043 0)
(-2.94502e-06 -0.00141541 0)
(-5.88859e-06 -0.00195636 0)
(-9.82724e-06 -0.00248321 0)
(-1.47565e-05 -0.00299593 0)
(-2.06779e-05 -0.00349447 0)
(-2.75966e-05 -0.00397876 0)
(-3.55145e-05 -0.00444877 0)
(-4.4437e-05 -0.00490445 0)
(-5.43651e-05 -0.00534573 0)
(-6.53054e-05 -0.00577258 0)
(-7.72584e-05 -0.00618493 0)
(-9.02319e-05 -0.00658274 0)
(-0.000104225 -0.00696596 0)
(-0.000119249 -0.00733453 0)
(-0.0001353 -0.00768839 0)
(-0.000152392 -0.0080275 0)
(-0.000170519 -0.0083518 0)
(-0.000189698 -0.00866123 0)
(-0.000209922 -0.00895574 0)
(-0.000231208 -0.00923528 0)
(-0.000253549 -0.00949978 0)
(-0.000276965 -0.00974919 0)
(-0.000301446 -0.00998345 0)
(-0.000327016 -0.0102025 0)
(-0.000353659 -0.0104063 0)
(-0.000381407 -0.0105948 0)
(-0.000410239 -0.0107679 0)
(-0.000440192 -0.0109255 0)
(-0.00047124 -0.0110677 0)
(-0.000503417 -0.0111942 0)
(-0.000536667 -0.0113052 0)
(-0.00057106 -0.0114004 0)
(-0.000606782 -0.0114799 0)
(-0.000644448 -0.0115437 0)
(-0.000683518 -0.0115917 0)
(-0.000719606 -0.0116252 0)
(-0.000751099 -0.0116488 0)
(-0.000783236 -0.0116671 0)
(-0.000831502 -0.0116847 0)
(-0.000887332 -0.0116997 0)
(-0.00094707 -0.0117048 0)
(-0.000991044 -0.0116807 0)
(-0.00101427 -0.0115984 0)
(-0.00105087 -0.0114913 0)
(-0.00109438 -0.0113667 0)
(-0.0011381 -0.0112259 0)
(-0.00118026 -0.0110707 0)
(-0.00122103 -0.0109028 0)
(-9.65995e-08 -0.000285153 0)
(-1.07601e-06 -0.000841481 0)
(-3.12624e-06 -0.00138379 0)
(-6.24935e-06 -0.00191204 0)
(-1.04281e-05 -0.00242616 0)
(-1.5655e-05 -0.00292611 0)
(-2.19334e-05 -0.00341184 0)
(-2.92651e-05 -0.0038833 0)
(-3.76551e-05 -0.00434043 0)
(-4.71036e-05 -0.00478319 0)
(-5.76165e-05 -0.00521151 0)
(-6.91933e-05 -0.00562536 0)
(-8.18412e-05 -0.00602466 0)
(-9.55588e-05 -0.00640938 0)
(-0.000110355 -0.00677945 0)
(-0.000126227 -0.00713482 0)
(-0.000143185 -0.00747543 0)
(-0.000161226 -0.00780123 0)
(-0.000180363 -0.00811217 0)
(-0.000200588 -0.00840818 0)
(-0.000221919 -0.00868921 0)
(-0.000244346 -0.0089552 0)
(-0.000267889 -0.00920609 0)
(-0.000292535 -0.00944183 0)
(-0.000318309 -0.00966235 0)
(-0.000345192 -0.0098676 0)
(-0.000373217 -0.0100575 0)
(-0.000402358 -0.010232 0)
(-0.000432655 -0.0103911 0)
(-0.000464076 -0.0105346 0)
(-0.00049666 -0.0106626 0)
(-0.000530342 -0.0107749 0)
(-0.000565189 -0.0108715 0)
(-0.00060137 -0.0109523 0)
(-0.000639537 -0.0110174 0)
(-0.000679325 -0.0110667 0)
(-0.000716302 -0.0111013 0)
(-0.000748376 -0.0111257 0)
(-0.000780624 -0.0111448 0)
(-0.000828983 -0.0111633 0)
(-0.000885877 -0.0111799 0)
(-0.000946319 -0.0111894 0)
(-0.000991107 -0.0111826 0)
(-0.00101305 -0.0111261 0)
(-0.00104839 -0.0110454 0)
(-0.00109123 -0.0109472 0)
(-0.00113457 -0.0108328 0)
(-0.00117652 -0.0107034 0)
(-0.00121721 -0.0105608 0)
(-0.00125683 -0.0104062 0)
(-1.02595e-07 -0.000278455 0)
(-1.141e-06 -0.000821369 0)
(-3.31275e-06 -0.00135025 0)
(-6.62035e-06 -0.00186504 0)
(-1.10429e-05 -0.00236568 0)
(-1.65739e-05 -0.00285213 0)
(-2.32131e-05 -0.00332433 0)
(-3.09649e-05 -0.00378223 0)
(-3.98291e-05 -0.00422578 0)
(-4.98103e-05 -0.00465492 0)
(-6.09071e-05 -0.0050696 0)
(-7.31255e-05 -0.00546976 0)
(-8.64629e-05 -0.00585536 0)
(-0.000100927 -0.00622632 0)
(-0.000116514 -0.0065826 0)
(-0.000133233 -0.00692414 0)
(-0.000151079 -0.00725089 0)
(-0.000170064 -0.00756278 0)
(-0.000190179 -0.00785976 0)
(-0.00021144 -0.00814178 0)
(-0.000233835 -0.00840876 0)
(-0.000257385 -0.00866066 0)
(-0.000282073 -0.00889741 0)
(-0.000307923 -0.00911895 0)
(-0.000334916 -0.00932522 0)
(-0.000363082 -0.00951617 0)
(-0.000392393 -0.00969173 0)
(-0.000422889 -0.00985183 0)
(-0.000454535 -0.00999641 0)
(-0.000487371 -0.0101254 0)
(-0.000521325 -0.0102388 0)
(-0.000556458 -0.0103364 0)
(-0.000592924 -0.0104183 0)
(-0.000631413 -0.0104845 0)
(-0.000671771 -0.0105348 0)
(-0.000709501 -0.0105704 0)
(-0.000741994 -0.0105954 0)
(-0.000774198 -0.0106151 0)
(-0.000822406 -0.0106341 0)
(-0.000880199 -0.0106519 0)
(-0.000941428 -0.0106648 0)
(-0.000986576 -0.0106726 0)
(-0.00100701 -0.0106397 0)
(-0.00104101 -0.0105834 0)
(-0.00108296 -0.0105101 0)
(-0.00112565 -0.0104206 0)
(-0.00116708 -0.0103159 0)
(-0.00120736 -0.0101975 0)
(-0.00124669 -0.0100667 0)
(-0.00128509 -0.00992472 0)
(-1.08587e-07 -0.00027137 0)
(-1.2078e-06 -0.000800103 0)
(-3.50632e-06 -0.00131479 0)
(-7.0045e-06 -0.00181537 0)
(-1.16808e-05 -0.0023018 0)
(-1.75244e-05 -0.00277401 0)
(-2.45369e-05 -0.00323197 0)
(-3.27175e-05 -0.0036756 0)
(-4.20695e-05 -0.00410487 0)
(-5.25903e-05 -0.00451972 0)
(-6.4284e-05 -0.00492008 0)
(-7.71469e-05 -0.00530591 0)
(-9.11847e-05 -0.00567715 0)
(-0.000106392 -0.00603374 0)
(-0.000122777 -0.00637563 0)
(-0.000140332 -0.00670276 0)
(-0.000159067 -0.00701506 0)
(-0.000178973 -0.00731249 0)
(-0.000200063 -0.00759498 0)
(-0.000222324 -0.00786247 0)
(-0.000245774 -0.00811491 0)
(-0.000270394 -0.00835223 0)
(-0.000296209 -0.00857438 0)
(-0.000323194 -0.00878128 0)
(-0.00035138 -0.00897289 0)
(-0.000380736 -0.00914913 0)
(-0.000411302 -0.00930996 0)
(-0.000443039 -0.00945528 0)
(-0.000475988 -0.00958507 0)
(-0.000510071 -0.00969922 0)
(-0.000545341 -0.00979771 0)
(-0.000581932 -0.00988044 0)
(-0.00062059 -0.00994746 0)
(-0.000661426 -0.00999874 0)
(-0.000699852 -0.0100351 0)
(-0.000732647 -0.0100607 0)
(-0.00076466 -0.0100806 0)
(-0.000812427 -0.0100999 0)
(-0.000870975 -0.0101185 0)
(-0.00093309 -0.010134 0)
(-0.00097838 -0.0101546 0)
(-0.00099705 -0.010143 0)
(-0.00102961 -0.0101092 0)
(-0.00107053 -0.010059 0)
(-0.00111235 -0.00999265 0)
(-0.00115302 -0.00991119 0)
(-0.00119262 -0.00981584 0)
(-0.00123137 -0.00970783 0)
(-0.00126929 -0.00958826 0)
(-0.0013063 -0.00945813 0)
(-0.000227713 -0.0171021 0)
(-0.000254111 -0.0170334 0)
(-0.00027987 -0.0165594 0)
(-0.000281184 -0.016076 0)
(-0.000292719 -0.015595 0)
(-0.000306912 -0.0151189 0)
(-0.000320853 -0.014648 0)
(-0.000333973 -0.0141826 0)
(-0.000346516 -0.0137232 0)
(-0.00035865 -0.0132703 0)
(-0.00037043 -0.0128243 0)
(-0.000381879 -0.0123856 0)
(-0.000393017 -0.0119546 0)
(-0.000403867 -0.0115317 0)
(-0.000414449 -0.0111171 0)
(-0.000424778 -0.0107111 0)
(-0.000434869 -0.010314 0)
(-0.000444732 -0.009926 0)
(-0.000454379 -0.00954732 0)
(-0.000463816 -0.00917813 0)
(-0.000473049 -0.00881857 0)
(-0.000482085 -0.00846875 0)
(-0.000490926 -0.00812876 0)
(-0.000499577 -0.00779866 0)
(-0.000508039 -0.0074785 0)
(-0.000516315 -0.0071683 0)
(-0.000524407 -0.00686805 0)
(-0.000532316 -0.00657773 0)
(-0.000540042 -0.00629728 0)
(-0.000547588 -0.00602665 0)
(-0.000554955 -0.00576575 0)
(-0.000562143 -0.00551448 0)
(-0.000569154 -0.00527273 0)