/*--------------------------------*- C++ -*----------------------------------*\
| =========                 |                                                 |
| \\      /  F ield         | OpenFOAM: The Open Source CFD Toolbox           |
|  \\    /   O peration     | Version:  2.4.0                                 |
|   \\  /    A nd           | Web:      www.OpenFOAM.org                      |
|    \\/     M anipulation  |                                                 |
\*---------------------------------------------------------------------------*/
FoamFile
{
    version     2.0;
    format      ascii;
    class       surfaceScalarField;
    location    "1.7";
    object      phi;
}
// * * * * * * * * * * * * * * * * * * * * * * * * * * * * * * * * * * * * * //

dimensions      [0 3 -1 0 0 0 0];

internalField   nonuniform List<scalar> 
15580
(
1.13336e-13
-2.14971e-12
4.29256e-13
-6.27226e-12
9.3234e-13
-1.02217e-11
1.61214e-12
-1.40005e-11
2.45904e-12
-1.76089e-11
3.4638e-12
-2.10472e-11
4.61736e-12
-2.43154e-11
5.91071e-12
-2.74134e-11
7.33491e-12
-3.03414e-11
8.88101e-12
-3.30994e-11
1.05401e-11
-3.56875e-11
1.23033e-11
-3.8106e-11
1.41615e-11
-4.03549e-11
1.61057e-11
-4.24347e-11
1.81266e-11
-4.43454e-11
2.02149e-11
-4.60875e-11
2.23611e-11
-4.76614e-11
2.45552e-11
-4.90674e-11
2.67876e-11
-5.03062e-11
2.90478e-11
-5.13782e-11
3.13256e-11
-5.2284e-11
3.36083e-11
-5.30242e-11
3.58769e-11
-5.35985e-11
3.81053e-11
-5.40072e-11
3.12241e-11
-5.42421e-11
6.79244e-12
-5.43036e-11
8.96499e-12
-5.4325e-11
1.25943e-11
-5.43303e-11
1.5971e-11
-5.01664e-11
1.83976e-11
-4.54954e-11
1.9892e-11
-4.10407e-11
2.04934e-11
-3.68192e-11
2.02558e-11
-3.2832e-11
1.92412e-11
-2.90778e-11
1.75145e-11
-2.55537e-11
1.51415e-11
-2.22548e-11
1.21869e-11
-1.91745e-11
8.71358e-12
-1.63045e-11
4.78121e-12
-1.36354e-11
4.45508e-13
-1.11568e-11
-4.24211e-12
-8.8583e-12
-9.23491e-12
-6.72914e-12
-1.44912e-11
-4.75849e-12
-1.99738e-11
-2.93608e-12
-2.56518e-11
-1.25035e-12
-3.15009e-11
3.10573e-13
-3.74724e-11
1.7272e-12
-4.35531e-11
3.0399e-12
-4.97229e-11
4.24672e-12
5.35349e-12
-5.59634e-11
9.96376e-14
-2.24935e-12
3.9505e-13
-6.56767e-12
8.77376e-13
-1.0704e-11
1.53521e-12
-1.46583e-11
2.35729e-12
-1.8431e-11
3.33241e-12
-2.20223e-11
4.44946e-12
-2.54324e-11
5.69717e-12
-2.86611e-11
7.06426e-12
-3.17085e-11
8.53914e-12
-3.45743e-11
1.01102e-11
-3.72586e-11
1.17654e-11
-3.97612e-11
1.34927e-11
-4.20822e-11
1.52793e-11
-4.42213e-11
1.71128e-11
-4.61789e-11
1.89798e-11
-4.79545e-11
2.08671e-11
-4.95486e-11
2.27607e-11
-5.09611e-11
2.46469e-11
-5.21924e-11
2.65109e-11
-5.32422e-11
2.83383e-11
-5.41113e-11
3.01134e-11
-5.47993e-11
3.18232e-11
-5.53084e-11
3.346e-11
-5.56439e-11
3.61301e-11
-5.58117e-11
5.40655e-12
-5.58413e-11
6.85868e-12
-5.57771e-11
8.18553e-12
-5.56572e-11
8.61548e-12
-5.05963e-11
8.53015e-12
-4.541e-11
7.85057e-12
-4.03611e-11
6.54642e-12
-3.55151e-11
4.60536e-12
-3.0891e-11
2.03252e-12
-2.6505e-11
-1.15291e-12
-2.23683e-11
-4.92062e-12
-1.84871e-11
-9.23187e-12
-1.48633e-11
-1.40423e-11
-1.14941e-11
-1.93037e-11
-8.37398e-12
-2.49646e-11
-5.4959e-12
-3.09704e-11
-2.85244e-12
-3.7236e-11
-4.63595e-13
-4.3802e-11
1.80752e-12
-5.05957e-11
3.85764e-12
-5.75666e-11
5.72049e-12
-6.46701e-11
7.41407e-12
-7.18944e-11
8.95156e-12
-7.91993e-11
1.03448e-11
-8.6557e-11
1.16044e-11
1.27404e-11
-9.39439e-11
9.14845e-14
-2.34083e-12
3.53473e-13
-6.82966e-12
7.75973e-13
-1.11265e-11
1.35024e-12
-1.52326e-11
2.06768e-12
-1.91484e-11
2.92014e-12
-2.28748e-11
3.89957e-12
-2.64119e-11
4.99825e-12
-2.97598e-11
6.20818e-12
-3.29184e-11
7.52152e-12
-3.58876e-11
8.92975e-12
-3.86668e-11
1.04243e-11
-4.12558e-11
1.19958e-11
-4.36536e-11
1.36344e-11
-4.58599e-11
1.53292e-11
-4.78737e-11
1.70691e-11
-4.96944e-11
1.88412e-11
-5.13208e-11
2.06327e-11
-5.27525e-11
2.24284e-11
-5.39881e-11
2.42135e-11
-5.50273e-11
2.59721e-11
-5.587e-11
2.76921e-11
-5.65192e-11
2.93647e-11
-5.69809e-11
3.09732e-11
-5.72525e-11
3.22789e-11
-5.73528e-11
6.65654e-12
-5.74658e-11
8.25444e-12
-5.7375e-11
8.87947e-12
-5.62822e-11
7.95175e-12
-4.96686e-11
5.48108e-12
-4.29394e-11
1.72084e-12
-3.66009e-11
-3.1012e-12
-3.0693e-11
-8.79315e-12
-2.5199e-11
-1.52025e-11
-2.00956e-11
-2.22063e-11
-1.53645e-11
-2.97035e-11
-1.09899e-11
-3.76136e-11
-6.95313e-12
-4.58812e-11
-3.22649e-12
-5.45377e-11
2.825e-13
-6.32425e-11
3.20895e-12
-7.20638e-11
5.96881e-12
-8.10108e-11
8.48344e-12
-8.99629e-11
1.07596e-11
-9.89165e-11
1.28112e-11
-1.0785e-10
1.46541e-11
-1.1674e-10
1.63039e-11
-1.25564e-10
1.77759e-11
-1.34304e-10
1.90845e-11
-1.42943e-10
2.02431e-11
2.12642e-11
-1.51467e-10
4.39946e-14
-2.38482e-12
1.69699e-13
-6.95537e-12
3.75606e-13
-1.13324e-11
6.6337e-13
-1.55203e-11
1.03612e-12
-1.95212e-11
1.49763e-12
-2.33363e-11
2.05221e-12
-2.69664e-11
2.70384e-12
-3.04114e-11
3.45643e-12
-3.3671e-11
4.31254e-12
-3.67437e-11
5.27411e-12
-3.96284e-11
6.34062e-12
-4.23223e-11
7.51033e-12
-4.48233e-11
8.77776e-12
-4.71274e-11
1.01355e-11
-4.92314e-11
1.15707e-11
-5.11296e-11
1.30676e-11
-5.28177e-11
1.46028e-11
-5.42878e-11
1.61494e-11
-5.55346e-11
1.7672e-11
-5.65499e-11
1.91357e-11
-5.73337e-11
2.05019e-11
-5.78854e-11
2.17169e-11
-5.8196e-11
2.1544e-11
-5.8416e-11
-9.41166e-12
-5.86447e-11
-8.48194e-12
-5.83955e-11
-8.36498e-12
-5.7492e-11
-1.27231e-11
-5.19241e-11
-1.9806e-11
-4.25857e-11
-2.81583e-11
-3.45871e-11
-3.72381e-11
-2.75211e-11
-4.68015e-11
-2.11296e-11
-5.67337e-11
-1.52668e-11
-6.69564e-11
-9.87296e-12
-7.73833e-11
-4.93756e-12
-8.77917e-11
-5.81559e-13
-9.86058e-11
3.86096e-12
-1.09601e-10
7.76856e-12
-1.20579e-10
1.12603e-11
-1.31752e-10
1.43824e-11
-1.42947e-10
1.7164e-11
-1.54095e-10
1.96306e-11
-1.65142e-10
2.18068e-11
-1.76047e-10
2.37169e-11
-1.86778e-10
2.53844e-11
-1.97305e-10
2.68317e-11
-2.07609e-10
2.80799e-11
-2.17673e-10
2.91486e-11
-2.27486e-10
3.00555e-11
3.08171e-11
-2.37039e-10
-5.4168e-14
-2.33066e-12
-1.8576e-13
-6.82378e-12
-3.55281e-13
-1.11629e-11
-5.1959e-13
-1.5356e-11
-6.36758e-13
-1.9404e-11
-6.65012e-13
-2.33081e-11
-5.6332e-13
-2.70681e-11
-2.89658e-13
-3.06851e-11
1.97561e-13
-3.41582e-11
9.42249e-13
-3.74884e-11
1.98793e-12
-4.0674e-11
3.38189e-12
-4.37162e-11
5.1708e-12
-4.66122e-11
7.40604e-12
-4.93626e-11
1.01381e-11
-5.19634e-11
1.34209e-11
-5.44124e-11
1.73089e-11
-5.67058e-11
2.18583e-11
-5.88372e-11
2.71443e-11
-6.08206e-11
3.32483e-11
-6.2654e-11
3.93418e-11
-6.34272e-11
4.54998e-11
-6.40434e-11
3.62782e-11
-6.38972e-11
1.54964e-11
-6.34716e-11
1.8965e-11
-6.21133e-11
-1.01399e-10
6.19686e-11
-1.72699e-10
1.38076e-11
-2.29562e-10
4.93929e-12
-2.7128e-10
-8.68023e-13
-3.01701e-10
-4.16625e-12
-3.24088e-10
-5.13355e-12
-3.40794e-10
-4.42417e-12
-3.5353e-10
-2.53002e-12
-3.63682e-10
2.7856e-13
-3.71668e-10
3.0484e-12
-3.78449e-10
6.19981e-12
-3.8402e-10
9.43189e-12
-3.88851e-10
1.25996e-11
-3.93205e-10
1.56137e-11
-3.97243e-10
1.84207e-11
-4.01071e-10
2.09919e-11
-4.04756e-10
2.33157e-11
-4.08342e-10
2.53925e-11
-4.11855e-10
2.72302e-11
-4.15312e-10
2.88415e-11
-4.18722e-10
3.02416e-11
-4.22089e-10
3.1447e-11
-4.25415e-10
3.24743e-11
-4.28699e-10
3.33397e-11
3.40584e-11
-4.3194e-10
-1.23056e-13
-2.2076e-12
-3.68719e-13
-6.57811e-12
-6.45784e-13
-1.08859e-11
-8.80221e-13
-1.51216e-11
-1.00445e-12
-1.92798e-11
-9.51487e-13
-2.3361e-11
-6.58569e-13
-2.7361e-11
-5.87529e-14
-3.12849e-11
9.12166e-13
-3.51291e-11
2.32762e-12
-3.89038e-11
4.25908e-12
-4.26055e-11
6.79264e-12
-4.62498e-11
1.00124e-11
-4.98319e-11
1.40219e-11
-5.33722e-11
1.89231e-11
-5.68646e-11
2.48462e-11
-6.03355e-11
3.1936e-11
-6.37956e-11
4.03815e-11
-6.72826e-11
4.94016e-11
-6.98407e-11
5.91428e-11
-7.23952e-11
6.31133e-11
-7.75018e-11
2.81974e-11
-7.34215e-11
3.07125e-11
-6.69083e-11
-9.5422e-11
6.26629e-11
-1.70268e-10
1.27328e-11
-1.72315e-10
6.40157e-11
-2.40087e-10
8.15797e-11
-2.94934e-10
5.97858e-11
-3.40473e-10
4.46714e-11
-3.78696e-10
3.40563e-11
-4.10855e-10
2.70255e-11
-4.38023e-10
2.27436e-11
-4.61028e-10
2.0475e-11
-4.80374e-10
1.96247e-11
-4.97062e-10
1.97363e-11
-5.11336e-10
2.04744e-11
-5.23501e-10
2.15968e-11
-5.33834e-10
2.29327e-11
-5.42585e-10
2.43643e-11
-5.49977e-10
2.58123e-11
-5.56209e-10
2.72242e-11
-5.6146e-10
2.85663e-11
-5.65885e-10
2.98179e-11
-5.69621e-10
3.09666e-11
-5.72786e-10
3.20061e-11
-5.75479e-10
3.29342e-11
-5.77783e-10
3.37515e-11
-5.79769e-10
3.44605e-11
-5.81495e-10
3.50654e-11
3.55711e-11
-5.83008e-10
3.18741e-13
-2.52634e-12
1.2661e-12
-7.52547e-12
2.80836e-12
-1.24281e-11
4.90253e-12
-1.72157e-11
7.51096e-12
-2.18882e-11
1.06005e-11
-2.64505e-11
1.41419e-11
-3.09025e-11
1.81103e-11
-3.52533e-11
2.24835e-11
-3.95023e-11
2.72436e-11
-4.3664e-11
3.23741e-11
-4.7736e-11
3.78635e-11
-5.17393e-11
4.37022e-11
-5.56706e-11
4.99009e-11
-5.95709e-11
5.64978e-11
-6.34615e-11
6.35761e-11
-6.74139e-11
6.99536e-11
-7.0173e-11
7.56456e-11
-7.29746e-11
7.44559e-11
-7.86453e-11
1.31581e-11
-7.41047e-11
-2.36892e-11
-4.38585e-11
-6.8868e-11
-2.82713e-11
-9.66695e-11
-3.91067e-11
-1.91559e-10
1.57552e-10
-3.43598e-10
1.64772e-10
-4.09875e-10
1.30292e-10
-4.33473e-10
1.05178e-10
-4.57474e-10
8.37867e-11
-4.80863e-10
6.80603e-11
-5.03599e-10
5.67916e-11
-5.25475e-10
4.89019e-11
-5.46242e-10
4.35102e-11
-5.65689e-10
3.99228e-11
-5.83674e-10
3.7609e-11
-6.00113e-10
3.61754e-11
-6.14977e-10
3.53389e-11
-6.28281e-10
3.49011e-11
-6.40075e-10
3.47263e-11
-6.50433e-10
3.47228e-11
-6.5945e-10
3.4829e-11
-6.67229e-10
3.5003e-11
-6.73879e-10
3.5216e-11
-6.79508e-10
3.54473e-11
-6.84223e-10
3.56815e-11
-6.88124e-10
3.5907e-11
-6.91304e-10
3.61148e-11
-6.93851e-10
3.62981e-11
-6.95842e-10
3.64519e-11
-6.9735e-10
3.65727e-11
3.66584e-11
-6.98437e-10
6.46334e-13
-3.17267e-12
2.28691e-12
-9.16605e-12
4.74023e-12
-1.48814e-11
7.89272e-12
-2.03682e-11
1.16326e-11
-2.56281e-11
1.58655e-11
-3.06834e-11
2.04865e-11
-3.55235e-11
2.54098e-11
-4.01766e-11
3.05248e-11
-4.46172e-11
3.5745e-11
-4.88842e-11
4.09546e-11
-5.29455e-11
4.60977e-11
-5.68824e-11
5.10813e-11
-6.06541e-11
5.56913e-11
-6.41809e-11
5.91493e-11
-6.69195e-11
6.1439e-11
-7.00548e-11
4.96236e-11
-7.76201e-11
-5.38349e-12
-7.12461e-11
-1.08859e-10
2.41503e-11
-8.65629e-11
-9.64221e-11
-3.21622e-10
1.91201e-10
-4.77365e-10
1.27471e-10
-6.48436e-10
1.31965e-10
-6.9315e-10
2.02266e-10
-7.27355e-10
1.98977e-10
-7.54729e-10
1.57666e-10
-7.75602e-10
1.26051e-10
-7.93628e-10
1.01812e-10
-8.08948e-10
8.33809e-11
-8.21678e-10
6.95216e-11
-8.31984e-10
5.9208e-11
-8.40076e-10
5.1602e-11
-8.46192e-10
4.60388e-11
-8.50586e-10
4.20024e-11
-8.53509e-10
3.90985e-11
-8.552e-10
3.703e-11
-8.55874e-10
3.55748e-11
-8.55716e-10
3.45683e-11
-8.54882e-10
3.38891e-11
-8.535e-10
3.34473e-11
-8.51674e-10
3.31766e-11
-8.49485e-10
3.30278e-11
-8.47002e-10
3.29641e-11
-8.44279e-10
3.29579e-11
-8.4136e-10
3.29885e-11
-8.38286e-10
3.30404e-11
-8.3509e-10
3.3102e-11
-8.31802e-10
3.31646e-11
-8.28452e-10
3.32218e-11
3.3269e-11
-8.25062e-10
-4.13887e-13
-2.75879e-12
-1.45621e-12
-8.12373e-12
-2.96099e-12
-1.33767e-11
-4.83666e-12
-1.84926e-11
-6.94581e-12
-2.3519e-11
-9.25342e-12
-2.83758e-11
-1.16237e-11
-3.31533e-11
-1.40825e-11
-3.77178e-11
-1.6463e-11
-4.22368e-11
-1.88238e-11
-4.65234e-11
-2.08722e-11
-5.08971e-11
-2.40279e-11
-5.37267e-11
-2.8047e-11
-5.66815e-11
-3.41935e-11
-5.93153e-11
-8.6496e-11
-6.34895e-11
-1.41041e-10
-4.0709e-11
-2.12115e-10
-6.97343e-12
-2.43991e-10
-3.93785e-11
-5.46503e-10
3.26662e-10
-8.83819e-10
2.40895e-10
-9.55998e-10
2.63379e-10
-1.10209e-09
2.73565e-10
-1.20274e-09
2.32618e-10
-1.19648e-09
1.96002e-10
-1.16311e-09
1.65606e-10
-1.14499e-09
1.39548e-10
-1.1363e-09
1.17365e-10
-1.13304e-09
9.85465e-11
-1.13231e-09
8.26507e-11
-1.13211e-09
6.93246e-11
-1.13117e-09
5.82694e-11
-1.12879e-09
4.9215e-11
-1.12466e-09
4.19081e-11
-1.11876e-09
3.6109e-11
-1.11126e-09
3.15932e-11
-1.10238e-09
2.81536e-11
-1.09241e-09
2.5603e-11
-1.08162e-09
2.37753e-11
-1.07025e-09
2.25267e-11
-1.05854e-09
2.17345e-11
-1.04666e-09
2.12962e-11
-1.03476e-09
2.11277e-11
-1.02296e-09
2.11608e-11
-1.01134e-09
2.13409e-11
-9.99976e-10
2.16252e-11
-9.88916e-10
2.19801e-11
-9.78194e-10
2.23798e-11
-9.67834e-10
2.28045e-11
-9.57851e-10
2.32395e-11
2.36735e-11
-9.48256e-10
-5.88186e-13
-2.1706e-12
-1.92442e-12
-6.78749e-12
-3.66701e-12
-1.16341e-11
-5.55064e-12
-1.66089e-11
-7.29384e-12
-2.17758e-11
-8.66183e-12
-2.70078e-11
-9.35905e-12
-3.24561e-11
-9.15195e-12
-3.79249e-11
-8.10057e-12
-4.32881e-11
-7.65087e-12
-4.69731e-11
-7.02359e-12
-5.16581e-11
-4.16533e-11
-6.14186e-11
-1.05406e-10
-5.56611e-11
-1.67875e-10
2.09083e-12
-1.02767e-10
-1.28709e-10
-3.74755e-10
2.31279e-10
-4.545e-10
7.27716e-11
-6.56538e-10
1.62659e-10
-6.07117e-10
2.77242e-10
-7.11787e-10
3.45564e-10
-7.39047e-10
2.90639e-10
-7.16898e-10
2.51416e-10
-7.02445e-10
2.18164e-10
-6.96084e-10
1.89641e-10
-6.96051e-10
1.65573e-10
-7.01077e-10
1.44575e-10
-7.09647e-10
1.25935e-10
-7.20425e-10
1.09325e-10
-7.32364e-10
9.45891e-11
-7.44681e-10
8.16422e-11
-7.56816e-10
7.04042e-11
-7.68382e-10
6.07812e-11
-7.79133e-10
5.26585e-11
-7.88926e-10
4.59024e-11
-7.977e-10
4.03667e-11
-8.05447e-10
3.59008e-11
-8.122e-10
3.23559e-11
-8.18016e-10
2.9591e-11
-8.22966e-10
2.74772e-11
-8.27131e-10
2.58995e-11
-8.30592e-10
2.47576e-11
-8.33431e-10
2.39658e-11
-8.35722e-10
2.3452e-11
-8.37537e-10
2.31565e-11
-8.38943e-10
2.30304e-11
-8.39997e-10
2.30341e-11
-8.40752e-10
2.31356e-11
-8.41257e-10
2.33093e-11
-8.41553e-10
2.3535e-11
2.37965e-11
-8.41676e-10
2.35009e-13
-2.40561e-12
9.05297e-13
-7.45778e-12
1.92147e-12
-1.26502e-11
3.31239e-12
-1.79999e-11
4.9334e-12
-2.33968e-11
6.89754e-12
-2.8972e-11
8.96917e-12
-3.45277e-11
1.12711e-11
-4.02268e-11
1.07857e-11
-4.72043e-11
-3.13291e-11
-6.37663e-11
-1.561e-10
2.02669e-11
-1.1631e-10
-1.01787e-10
-3.56504e-10
1.84533e-10
-5.89125e-10
2.34712e-10
-9.2885e-10
2.11016e-10
-9.34991e-10
2.37419e-10
-1.16636e-09
3.04139e-10
-1.26906e-09
2.6536e-10
-1.25003e-09
2.58216e-10
-1.14534e-09
2.40873e-10
-1.07213e-09
2.1743e-10
-1.01572e-09
1.95e-10
-9.71577e-10
1.74025e-10
-9.3649e-10
1.54554e-10
-9.0757e-10
1.36653e-10
-8.83344e-10
1.20348e-10
-8.63034e-10
1.05625e-10
-8.46174e-10
9.24651e-11
-8.32409e-10
8.08237e-11
-8.21397e-10
7.06301e-11
-8.12798e-10
6.1805e-11
-8.06265e-10
5.42483e-11
-8.01467e-10
4.78606e-11
-7.98088e-10
4.25237e-11
-7.95846e-10
3.8125e-11
-7.94486e-10
3.45409e-11
-7.93786e-10
3.16553e-11
-7.9356e-10
2.9365e-11
-7.93666e-10
2.75827e-11
-7.93985e-10
2.62187e-11
-7.94436e-10
2.52086e-11
-7.94956e-10
2.44866e-11
-7.95507e-10
2.40029e-11
-7.96063e-10
2.37122e-11
-7.96609e-10
2.35763e-11
-7.97138e-10
2.35637e-11
-7.97651e-10
2.36478e-11
-7.98148e-10
2.38065e-11
-7.98635e-10
2.40221e-11
2.42797e-11
-7.99118e-10
-1.63837e-14
-2.38923e-12
-5.7903e-13
-6.89513e-12
-2.10085e-12
-1.11284e-11
-4.93666e-12
-1.51641e-11
-9.47184e-12
-1.88616e-11
-1.60994e-11
-2.23444e-11
-2.51983e-11
-2.54287e-11
-5.96092e-11
-2.91952e-11
-1.59182e-10
-3.47448e-11
-3.4549e-10
1.2182e-10
-4.84334e-10
1.59111e-10
-6.99923e-10
1.13802e-10
-7.04548e-10
1.89158e-10
-7.77709e-10
3.07873e-10
-9.51842e-10
3.85149e-10
-1.07526e-09
3.60835e-10
-1.10633e-09
3.3521e-10
-1.14048e-09
2.99512e-10
-1.14675e-09
2.64483e-10
-1.13878e-09
2.32903e-10
-1.12558e-09
2.04232e-10
-1.1089e-09
1.78317e-10
-1.08994e-09
1.55065e-10
-1.06977e-09
1.34386e-10
-1.04928e-09
1.16162e-10
-1.02911e-09
1.0018e-10
-1.00989e-09
8.64023e-11
-9.92006e-10
7.45845e-11
-9.75657e-10
6.44754e-11
-9.60939e-10
5.59121e-11
-9.47878e-10
4.87442e-11
-9.36402e-10
4.2772e-11
-9.26308e-10
3.77666e-11
-9.17517e-10
3.37325e-11
-9.09891e-10
3.04992e-11
-9.03237e-10
2.78866e-11
-8.97418e-10
2.58364e-11
-8.92345e-10
2.4292e-11
-8.87874e-10
2.31117e-11
-8.83955e-10
2.22999e-11
-8.80463e-10
2.17163e-11
-8.77351e-10
2.13746e-11
-8.74565e-10
2.12172e-11
-8.7206e-10
2.12071e-11
-8.69801e-10
2.1317e-11
-8.6776e-10
2.15233e-11
-8.65916e-10
2.18037e-11
-8.64251e-10
2.21415e-11
-8.62752e-10
2.25226e-11
2.29352e-11
-8.61407e-10
-7.81015e-13
-1.60821e-12
-3.25481e-12
-4.42133e-12
-7.52042e-12
-6.86282e-12
-1.37466e-11
-8.93793e-12
-2.19586e-11
-1.06496e-11
-3.22742e-11
-1.20288e-11
-1.21716e-10
-1.3208e-11
-1.95098e-10
-1.4201e-11
-2.26571e-10
-3.27129e-12
-1.92506e-10
8.77555e-11
-1.95873e-10
1.62478e-10
-3.12078e-10
2.30007e-10
-3.72461e-10
2.49541e-10
-3.56848e-10
2.92259e-10
-2.85581e-10
3.13883e-10
-2.40095e-10
3.15349e-10
-2.12173e-10
3.07288e-10
-2.04069e-10
2.91408e-10
-2.10072e-10
2.70486e-10
-2.24119e-10
2.4695e-10
-2.42445e-10
2.22558e-10
-2.62696e-10
1.98568e-10
-2.83464e-10
1.75832e-10
-3.04021e-10
1.54943e-10
-3.23879e-10
1.36021e-10
-3.42924e-10
1.19224e-10
-3.61162e-10
1.04641e-10
-3.78552e-10
9.1974e-11
-3.95119e-10
8.10428e-11
-4.11019e-10
7.18124e-11
-4.2633e-10
6.40551e-11
-4.41082e-10
5.7524e-11
-4.55388e-10
5.20725e-11
-4.69186e-10
4.75303e-11
-4.82479e-10
4.37927e-11
-4.95235e-10
4.06426e-11
-5.07494e-10
3.8095e-11
-5.19317e-10
3.61151e-11
-5.30757e-10
3.45519e-11
-5.41747e-10
3.329e-11
-5.52396e-10
3.23647e-11
-5.62676e-10
3.16547e-11
-5.726e-10
3.11415e-11
-5.82174e-10
3.07808e-11
-5.91417e-10
3.05605e-11
-6.00344e-10
3.04503e-11
-6.0897e-10
3.04296e-11
-6.17311e-10
3.04819e-11
-6.25382e-10
3.05938e-11
3.07532e-11
-6.332e-10
-9.92518e-13
-6.15694e-13
-3.69907e-12
-1.71478e-12
-7.91024e-12
-2.65165e-12
-1.34416e-11
-3.40657e-12
-2.01288e-11
-3.96231e-12
-3.7723e-11
-4.3474e-12
-1.58677e-10
-4.95942e-12
-1.68005e-10
-4.87297e-12
-2.00133e-10
2.88566e-11
-1.9266e-10
8.02819e-11
-1.68422e-10
1.38241e-10
-1.21324e-10
1.82909e-10
-9.09854e-11
2.19203e-10
-4.83351e-11
2.49609e-10
-7.55232e-12
2.731e-10
1.91159e-11
2.8868e-10
2.98702e-11
2.96533e-10
2.41481e-11
2.9713e-10
3.12724e-12
2.91507e-10
-3.08923e-11
2.8097e-10
-7.52127e-11
2.66879e-10
-1.27051e-10
2.50406e-10
-1.83845e-10
2.32627e-10
-2.43233e-10
2.14331e-10
-3.03468e-10
1.96255e-10
-3.62875e-10
1.78631e-10
-4.20034e-10
1.61799e-10
-4.74156e-10
1.46096e-10
-5.24673e-10
1.31559e-10
-5.71145e-10
1.18284e-10
-6.13414e-10
1.06324e-10
-6.51258e-10
9.53681e-11
-6.84787e-10
8.56016e-11
-7.14183e-10
7.69268e-11
-7.39628e-10
6.92373e-11
-7.61547e-10
6.25617e-11
-7.80197e-10
5.67452e-11
-7.95757e-10
5.16752e-11
-8.08565e-10
4.73596e-11
-8.18978e-10
4.37032e-11
-8.27238e-10
4.06249e-11
-8.33648e-10
3.80639e-11
-8.3846e-10
3.59535e-11
-8.41918e-10
3.42396e-11
-8.44229e-10
3.28707e-11
-8.45581e-10
3.18024e-11
-8.46144e-10
3.09934e-11
-8.4607e-10
3.04075e-11
-8.45489e-10
3.00128e-11
2.97812e-11
-8.44517e-10
-1.117e-12
5.01307e-13
-4.2533e-12
1.42152e-12
-9.08807e-12
2.18312e-12
-1.52608e-11
2.76616e-12
-2.23647e-11
3.14155e-12
-1.22189e-10
3.3079e-12
-1.97134e-10
2.88326e-12
-1.40148e-10
-6.18591e-11
-8.37885e-12
-1.02913e-10
8.35234e-11
-1.16204e-11
2.2292e-10
-1.15611e-12
3.52589e-10
5.32399e-11
4.66785e-10
1.05007e-10
5.71318e-10
1.45077e-10
6.65682e-10
1.78736e-10
7.49774e-10
2.04588e-10
8.21005e-10
2.25303e-10
8.74908e-10
2.43227e-10
9.08041e-10
2.58373e-10
9.19665e-10
2.69346e-10
9.11493e-10
2.7505e-10
8.8648e-10
2.7542e-10
8.48018e-10
2.71089e-10
7.9926e-10
2.63089e-10
7.43206e-10
2.52309e-10
6.8211e-10
2.39728e-10
6.17788e-10
2.26121e-10
5.51873e-10
2.12012e-10
4.85301e-10
1.98131e-10
4.1915e-10
1.84436e-10
3.54364e-10
1.7111e-10
2.91092e-10
1.5864e-10
2.2981e-10
1.46883e-10
1.7078e-10
1.35957e-10
1.14118e-10
1.25899e-10
5.99931e-11
1.16687e-10
8.44412e-12
1.08294e-10
-4.05576e-11
1.00677e-10
-8.69815e-11
9.37835e-11
-1.30854e-10
8.75755e-11
-1.7223e-10
8.20013e-11
-2.11174e-10
7.7008e-11
-2.47766e-10
7.25453e-11
-2.82092e-10
6.85655e-11
-3.14245e-10
6.50239e-11
-3.44322e-10
6.18796e-11
-3.72424e-10
5.90951e-11
-3.98653e-10
5.66366e-11
-4.23114e-10
5.44733e-11
5.25777e-11
-4.4591e-10
-1.06242e-12
1.56372e-12
-3.77567e-12
4.13477e-12
-8.14625e-12
6.55371e-12
-1.42439e-11
8.86381e-12
-2.51052e-11
1.12917e-11
-1.89298e-10
1.38862e-11
-2.03601e-10
1.71865e-11
-1.14792e-11
-2.53981e-10
-4.02733e-11
-7.41185e-11
-2.1001e-11
-3.08927e-11
6.60393e-11
-8.81964e-11
2.17002e-10
-9.77227e-11
4.02786e-10
-8.07779e-11
5.19792e-10
2.80707e-11
4.5683e-10
2.41699e-10
2.38321e-10
4.23097e-10
-6.53581e-11
5.28982e-10
-3.7723e-10
5.551e-10
-6.48939e-10
5.30082e-10
-8.60459e-10
4.80866e-10
-1.01149e-09
4.26082e-10
-1.1105e-09
3.74426e-10
-1.16721e-09
3.278e-10
-1.18941e-09
2.85293e-10
-1.18438e-09
2.47274e-10
-1.15936e-09
2.14707e-10
-1.12113e-09
1.87895e-10
-1.07572e-09
1.66601e-10
-1.02729e-09
1.49705e-10
-9.79069e-10
1.36211e-10
-9.33179e-10
1.2522e-10
-8.90681e-10
1.16142e-10
-8.52308e-10
1.0851e-10
-8.18308e-10
1.01957e-10
-7.88622e-10
9.62134e-11
-7.63027e-10
9.10919e-11
-7.41185e-10
8.64523e-11
-7.22711e-10
8.22029e-11
-7.0721e-10
7.8282e-11
-6.94282e-10
7.46475e-11
-6.8355e-10
7.12694e-11
-6.74668e-10
6.81257e-11
-6.67323e-10
6.52006e-11
-6.61241e-10
6.24833e-11
-6.56185e-10
5.99679e-11
-6.51956e-10
5.76505e-11
-6.48389e-10
5.55288e-11
-6.45353e-10
5.36005e-11
-6.42743e-10
5.18628e-11
5.03122e-11
-6.40477e-10
1.83531e-12
-2.71585e-13
5.71322e-12
2.56855e-13
1.06563e-11
1.61065e-12
1.60702e-11
3.44994e-12
2.12691e-11
6.09267e-12
2.1611e-11
9.04401e-12
-1.0666e-10
1.88151e-11
-3.97987e-10
3.52978e-11
-4.52087e-10
-2.00185e-11
-5.21644e-10
3.86639e-11
-5.04722e-10
-1.05118e-10
-6.15925e-10
1.34808e-11
-4.80871e-10
-2.15832e-10
-5.1172e-10
5.89195e-11
-5.16388e-10
2.46367e-10
-4.85419e-10
3.92128e-10
-4.30576e-10
4.74139e-10
-3.76751e-10
5.01275e-10
-3.41092e-10
4.94423e-10
-3.16698e-10
4.56471e-10
-2.50547e-10
3.59932e-10
-1.58406e-10
2.82285e-10
-8.99833e-11
2.59377e-10
-5.94973e-11
2.54808e-10
-7.48354e-11
2.62612e-10
-1.36434e-10
2.76306e-10
-2.31458e-10
2.82919e-10
-3.40971e-10
2.76114e-10
-4.51243e-10
2.59976e-10
-5.54134e-10
2.39103e-10
-6.44145e-10
2.1523e-10
-7.18723e-10
1.9072e-10
-7.78909e-10
1.68696e-10
-8.27987e-10
1.51035e-10
-8.69241e-10
1.37468e-10
-9.04234e-10
1.26084e-10
-9.33212e-10
1.1543e-10
-9.56193e-10
1.05184e-10
-9.73444e-10
9.55337e-11
-9.85457e-10
8.66601e-11
-9.92761e-10
7.85736e-11
-9.95885e-10
7.12491e-11
-9.95336e-10
6.46516e-11
-9.91581e-10
5.87286e-11
-9.85032e-10
5.34192e-11
-9.76072e-10
4.86901e-11
-9.65068e-10
4.45245e-11
-9.52371e-10
4.09035e-11
-9.38308e-10
3.77999e-11
3.51834e-11
-9.23179e-10
6.30952e-13
-9.02537e-13
3.31397e-12
-2.42616e-12
8.47292e-12
-3.54831e-12
1.61997e-11
-4.27681e-12
2.68419e-11
-4.54953e-12
4.03676e-11
-4.48174e-12
5.19575e-11
-5.08839e-12
6.22931e-11
-6.60502e-12
-7.11187e-11
-9.15436e-12
-2.74175e-11
-1.36958e-11
-1.19846e-10
-2.1303e-11
-1.40039e-10
3.32608e-11
-3.46579e-10
-1.03917e-11
-3.63215e-10
7.55556e-11
-1.1379e-10
-3.05843e-12
7.49287e-11
2.0341e-10
3.61255e-10
1.87813e-10
5.6079e-10
3.0174e-10
7.55412e-10
2.99801e-10
1.13423e-09
7.76538e-11
1.55076e-09
-5.65936e-11
1.8199e-09
1.31448e-11
2.00057e-09
7.8702e-11
2.10448e-09
1.50898e-10
2.13942e-09
2.27676e-10
2.12147e-09
2.94252e-10
2.07571e-09
3.2868e-10
1.99672e-09
3.55104e-10
1.95664e-09
3.00058e-10
1.95235e-09
2.43393e-10
1.93826e-09
2.2932e-10
1.89957e-09
2.2941e-10
1.83487e-09
2.33393e-10
1.74918e-09
2.36727e-10
1.65278e-09
2.33867e-10
1.55939e-09
2.19478e-10
1.47276e-09
2.02055e-10
1.39368e-09
1.84261e-10
1.31875e-09
1.70468e-10
1.24485e-09
1.60561e-10
1.17044e-09
1.52983e-10
1.09489e-09
1.46796e-10
1.01864e-09
1.40899e-10
9.42972e-10
1.34401e-10
8.69281e-10
1.2711e-10
7.98416e-10
1.19555e-10
7.30722e-10
1.12219e-10
6.66386e-10
1.05239e-10
6.0544e-10
9.87457e-11
9.27835e-11
5.4784e-10
3.45983e-13
-1.24852e-12
1.61397e-12
-3.69414e-12
4.12248e-12
-6.05682e-12
8.15972e-12
-8.31406e-12
1.41034e-11
-1.04932e-11
2.22094e-11
-1.25877e-11
3.17606e-11
-1.46396e-11
4.17662e-11
-1.66106e-11
5.09952e-11
-1.83788e-11
5.69742e-11
-1.97216e-11
5.55969e-11
-1.99715e-11
7.7361e-11
-2.08124e-11
8.8932e-11
-2.08019e-11
1.22388e-10
-2.26261e-11
1.24832e-10
-2.38959e-11
3.37702e-10
-2.5054e-11
5.38229e-10
-2.54658e-11
8.55178e-10
-2.43204e-11
1.17056e-09
-2.04454e-11
1.22631e-09
2.16247e-11
1.11312e-09
5.64591e-11
1.07633e-09
4.99367e-11
1.06597e-09
8.90642e-11
1.09356e-09
1.23304e-10
1.1492e-09
1.72033e-10
1.19803e-09
2.45421e-10
1.23029e-09
2.96428e-10
1.46162e-09
1.23774e-10
1.7441e-09
1.75738e-11
1.9505e-09
3.69891e-11
2.08545e-09
9.43723e-11
2.1569e-09
1.57964e-10
2.18438e-09
2.05907e-10
2.1893e-09
2.31812e-10
2.2158e-09
2.0737e-10
2.26637e-09
1.68903e-10
2.30935e-09
1.59077e-10
2.32604e-09
1.67572e-10
2.29565e-09
2.00861e-10
2.24318e-09
2.13025e-10
2.17012e-09
2.26049e-10
2.08046e-09
2.36448e-10
1.98332e-09
2.38042e-10
1.88811e-09
2.29608e-10
1.79759e-09
2.1763e-10
1.71154e-09
2.05607e-10
1.62938e-09
1.94376e-10
1.55055e-09
1.84076e-10
1.47469e-09
1.74607e-10
1.65741e-10
1.40173e-09
7.90626e-13
2.93696e-12
6.26643e-12
1.06464e-11
1.59184e-11
2.19428e-11
2.85358e-11
3.55665e-11
4.30152e-11
5.10945e-11
6.06715e-11
7.09656e-11
8.26559e-11
9.36567e-11
1.04229e-10
1.14039e-10
1.2322e-10
1.30359e-10
1.34201e-10
1.66277e-10
2.02285e-10
2.45273e-10
3.53255e-10
4.93163e-10
6.79089e-10
9.36863e-10
1.24213e-09
1.31953e-09
1.33496e-09
1.32287e-09
1.29349e-09
1.2724e-09
1.26739e-09
1.36599e-09
1.53143e-09
1.65449e-09
1.70018e-09
1.65841e-09
1.66054e-09
1.66933e-09
1.67824e-09
1.69708e-09
1.72586e-09
1.75769e-09
1.79006e-09
1.81858e-09
1.83964e-09
1.85251e-09
1.85806e-09
1.85808e-09
-6.22562e-11
6.36625e-12
-6.85884e-11
7.29077e-12
-7.49448e-11
8.13257e-12
-8.1313e-11
8.89687e-12
-8.76813e-11
9.58858e-12
-9.40395e-11
1.02124e-11
-1.00378e-10
1.07727e-11
-1.06688e-10
1.12737e-11
-1.12963e-10
1.17192e-11
-1.19195e-10
1.21132e-11
-1.25377e-10
1.2459e-11
-1.31505e-10
1.276e-11
-1.37574e-10
1.30192e-11
-1.43578e-10
1.32397e-11
-1.49514e-10
1.34242e-11
-1.5538e-10
1.35753e-11
-1.6117e-10
1.36953e-11
-1.66885e-10
1.37866e-11
-1.7252e-10
1.38513e-11
-1.78075e-10
1.38913e-11
-1.83547e-10
1.39084e-11
-1.88936e-10
1.39043e-11
-1.94242e-10
1.38807e-11
-1.99462e-10
1.38389e-11
-2.04597e-10
1.37803e-11
-2.09648e-10
1.37062e-11
-2.14612e-10
1.36178e-11
-2.19492e-10
1.3516e-11
-2.24286e-10
1.3402e-11
-2.28996e-10
1.32765e-11
-2.33623e-10
1.31405e-11
-2.38165e-10
1.29947e-11
-2.42626e-10
1.28398e-11
-2.47004e-10
1.26766e-11
-2.51302e-10
1.25055e-11
-2.55519e-10
1.23273e-11
-2.59658e-10
1.21423e-11
-2.63718e-10
1.19512e-11
-2.67701e-10
1.17544e-11
-2.71609e-10
1.15524e-11
-2.75442e-10
1.13457e-11
-2.79201e-10
1.11346e-11
-2.82887e-10
1.09196e-11
-2.86503e-10
1.07013e-11
-2.90048e-10
1.048e-11
-2.93525e-10
1.02562e-11
-2.96934e-10
1.00303e-11
-3.00277e-10
9.80265e-12
-3.03556e-10
9.57356e-12
9.34261e-12
-3.06767e-10
-1.0134e-10
1.37619e-11
-1.08726e-10
1.46774e-11
-1.16088e-10
1.54946e-11
-1.23412e-10
1.62208e-11
-1.30686e-10
1.68626e-11
-1.379e-10
1.74264e-11
-1.45045e-10
1.79178e-11
-1.52114e-10
1.83422e-11
-1.59099e-10
1.87047e-11
-1.65996e-10
1.90098e-11
-1.72799e-10
1.92621e-11
-1.79504e-10
1.94654e-11
-1.86109e-10
1.96237e-11
-1.9261e-10
1.97405e-11
-1.99004e-10
1.9819e-11
-2.05291e-10
1.98623e-11
-2.11469e-10
1.98732e-11
-2.17537e-10
1.98545e-11
-2.23494e-10
1.98085e-11
-2.29341e-10
1.97376e-11
-2.35076e-10
1.96439e-11
-2.40701e-10
1.95293e-11
-2.46216e-10
1.93956e-11
-2.51622e-10
1.92444e-11
-2.56919e-10
1.90774e-11
-2.62108e-10
1.88959e-11
-2.67192e-10
1.87012e-11
-2.7217e-10
1.84945e-11
-2.77045e-10
1.82768e-11
-2.81818e-10
1.80493e-11
-2.8649e-10
1.78127e-11
-2.91063e-10
1.7568e-11
-2.95539e-10
1.73159e-11
-2.9992e-10
1.70572e-11
-3.04207e-10
1.67923e-11
-3.08402e-10
1.65221e-11
-3.12506e-10
1.6247e-11
-3.16523e-10
1.59675e-11
-3.20452e-10
1.56841e-11
-3.24297e-10
1.53974e-11
-3.28059e-10
1.51079e-11
-3.31741e-10
1.48159e-11
-3.35343e-10
1.45219e-11
-3.38868e-10
1.42266e-11
-3.42319e-10
1.39304e-11
-3.45696e-10
1.36338e-11
-3.49003e-10
1.33372e-11
-3.52242e-10
1.30412e-11
-3.55414e-10
1.27462e-11
1.24533e-11
-3.58525e-10
-1.59864e-10
2.21593e-11
-1.68126e-10
2.2939e-11
-1.76244e-10
2.36129e-11
-1.84213e-10
2.41901e-11
-1.92029e-10
2.46787e-11
-1.99689e-10
2.50862e-11
-2.07191e-10
2.54195e-11
-2.14534e-10
2.56849e-11
-2.21717e-10
2.58882e-11
-2.28742e-10
2.60347e-11
-2.35609e-10
2.61295e-11
-2.42321e-10
2.61769e-11
-2.48878e-10
2.61813e-11
-2.55284e-10
2.61464e-11
-2.61541e-10
2.60757e-11
-2.67652e-10
2.59726e-11
-2.73618e-10
2.584e-11
-2.79445e-10
2.56808e-11
-2.85133e-10
2.54974e-11
-2.90688e-10
2.52922e-11
-2.96111e-10
2.50673e-11
-3.01407e-10
2.48247e-11
-3.06577e-10
2.45662e-11
-3.11626e-10
2.42934e-11
-3.16557e-10
2.40079e-11
-3.21372e-10
2.3711e-11
-3.26075e-10
2.34039e-11
-3.30668e-10
2.30879e-11
-3.35155e-10
2.27639e-11
-3.39539e-10
2.24329e-11
-3.43822e-10
2.20957e-11
-3.48007e-10
2.17532e-11
-3.52097e-10
2.1406e-11
-3.56095e-10
2.10549e-11
-3.60003e-10
2.07002e-11
-3.63823e-10
2.03427e-11
-3.67559e-10
1.99828e-11
-3.71212e-10
1.96209e-11
-3.74786e-10
1.92575e-11
-3.78281e-10
1.88931e-11
-3.81702e-10
1.8528e-11
-3.85048e-10
1.81627e-11
-3.88324e-10
1.77976e-11
-3.91531e-10
1.74333e-11
-3.94671e-10
1.70701e-11
-3.97746e-10
1.67087e-11
-4.00758e-10
1.63495e-11
-4.0371e-10
1.5993e-11
-4.06603e-10
1.56397e-11
1.52926e-11
-4.09442e-10
-2.46327e-10
3.14479e-11
-2.55349e-10
3.19613e-11
-2.64106e-10
3.23691e-11
-2.72598e-10
3.26822e-11
-2.80829e-10
3.29101e-11
-2.88805e-10
3.30616e-11
-2.96529e-10
3.31443e-11
-3.0401e-10
3.31652e-11
-3.11252e-10
3.31308e-11
-3.18264e-10
3.30467e-11
-3.25053e-10
3.2918e-11
-3.31625e-10
3.27495e-11
-3.37989e-10
3.25453e-11
-3.44152e-10
3.23093e-11
-3.50122e-10
3.2045e-11
-3.55904e-10
3.17554e-11
-3.61508e-10
3.14436e-11
-3.66939e-10
3.1112e-11
-3.72205e-10
3.0763e-11
-3.77311e-10
3.03988e-11
-3.82265e-10
3.00212e-11
-3.87073e-10
2.9632e-11
-3.91739e-10
2.92328e-11
-3.96271e-10
2.88251e-11
-4.00673e-10
2.841e-11
-4.04951e-10
2.79888e-11
-4.09109e-10
2.75624e-11
-4.13153e-10
2.71319e-11
-4.17088e-10
2.6698e-11
-4.20916e-10
2.62616e-11
-4.24644e-10
2.58233e-11
-4.28274e-10
2.53836e-11
-4.31811e-10
2.49432e-11
-4.35259e-10
2.45026e-11
-4.38621e-10
2.4062e-11
-4.419e-10
2.3622e-11
-4.451e-10
2.31829e-11
-4.48225e-10
2.2745e-11
-4.51276e-10
2.23086e-11
-4.54256e-10
2.1874e-11
-4.5717e-10
2.14416e-11
-4.60019e-10
2.10116e-11
-4.62806e-10
2.05845e-11
-4.65533e-10
2.01606e-11
-4.68204e-10
1.97405e-11
-4.70819e-10
1.93245e-11
-4.73383e-10
1.89133e-11
-4.75897e-10
1.85072e-11
-4.78364e-10
1.81068e-11
1.77106e-11
-4.80782e-10
-4.35137e-10
3.46449e-11