/*--------------------------------*- C++ -*----------------------------------*\
| =========                 |                                                 |
| \\      /  F ield         | OpenFOAM: The Open Source CFD Toolbox           |
|  \\    /   O peration     | Version:  2.4.0                                 |
|   \\  /    A nd           | Web:      www.OpenFOAM.org                      |
|    \\/     M anipulation  |                                                 |
\*---------------------------------------------------------------------------*/
FoamFile
{
    version     2.0;
    format      ascii;
    class       volScalarField;
    location    "4.2";
    object      alpha1;
}
// * * * * * * * * * * * * * * * * * * * * * * * * * * * * * * * * * * * * * //

dimensions      [0 0 0 0 0 0 0];

internalField   nonuniform List<scalar> 
8000
(
1
0.999999
0.999998
0.999999
0.999998
0.999998
0.999998
0.999998
0.99951
0.998464
0.99996
0.606948
0.208566
0.0248507
0.0331021
0.00619939
0.00321936
0.000679323
0.0002259
0.000138238
8.51175e-05
5.78445e-05
4.20279e-05
2.92517e-05
1.85905e-05
1.17563e-05
8.22769e-06
6.07348e-06
4.21222e-06
2.99096e-06
2.63307e-06
2.90955e-06
2.23534e-06
9.30386e-07
9.26631e-07
9.26649e-07
9.28497e-07
1.5113e-06
2.05275e-06
1.99579e-06
9.26187e-07
9.54414e-07
2.48661e-06
6.23739e-06
4.57566e-06
8.8279e-07
2.7894e-06
5.51586e-06
1.52514e-05
4.91489e-05
1
0.999999
0.999998
0.999994
0.999998
0.999821
0.998812
0.998277
0.172083
0.0193102
0.0239088
0.000652776
0.000384027
0.000112949
0.000127638
3.13396e-05
1.01051e-05
2.85648e-06
1.24399e-06
1.14917e-06
1.13895e-06
1.13182e-06
1.1202e-06
1.11354e-06
1.10684e-06
1.10022e-06
1.09885e-06
1.09848e-06
1.09457e-06
1.11333e-06
1.30963e-06
9.27485e-07
9.27133e-07
9.2698e-07
9.27985e-07
9.32154e-07
9.28651e-07
9.3004e-07
1.26505e-06
2.06426e-06
2.06681e-06
1.5676e-06
6.43785e-07
6.4407e-07
6.44004e-07
7.3022e-07
1.14471e-06
2.64337e-06
6.03795e-06
1.31882e-05
1
0.999999
0.999993
0.99989
0.999441
0.478665
0.0269584
0.0265498
0.00281634
0.000451399
0.000416849
0.000202588
0.000141837
8.70555e-05
5.2273e-05
2.9015e-05
1.4364e-05
7.50713e-06
4.19472e-06
2.80053e-06
2.22245e-06
1.50306e-06
1.32748e-06
1.21444e-06
1.13427e-06
1.09384e-06
1.0929e-06
1.09288e-06
1.09288e-06
1.25053e-06
1.67221e-06
1.40847e-06
9.37744e-07
9.75016e-07
9.28172e-07
9.2829e-07
2.47182e-06
3.55145e-06
1.4934e-06
6.453e-07
6.42474e-07
6.42452e-07
6.41992e-07
6.41733e-07
6.41476e-07
6.41482e-07
6.4177e-07
1.50411e-06
1.72271e-06
1.16638e-06
1
0.999998
0.999995
0.999748
0.201772
0.0312282
0.031259
0.0179793
0.0179357
0.0163035
0.0123501
0.0102068
0.00870294
0.00594092
0.00433497
0.00311268
0.0022103
0.00155039
0.00112089
0.000816105
0.000596189
0.000441264
0.000331685
0.000252666
0.000194625
0.000151573
0.000120466
9.9193e-05
8.36933e-05
6.93899e-05
5.3816e-05
3.79693e-05
2.40182e-05
1.1886e-05
5.31787e-06
8.44108e-06
2.73647e-05
1.67647e-05
4.39837e-06
6.96281e-07
6.44325e-07
6.45354e-07
6.5497e-07
6.41675e-07
6.41475e-07
6.41478e-07
1.0015e-06
6.09824e-06
7.65499e-06
7.62433e-06
1
0.999998
0.999998
1
1.00008
0.391191
0.411014
0.291101
0.241752
0.21493
0.193605
0.162396
0.145209
0.133227
0.114429
0.0984287
0.0853399
0.0725608
0.0611751
0.051191
0.0424488
0.034876
0.0283932
0.0228957
0.018265
0.0143853
0.0111588
0.00850245
0.0063383
0.00463188
0.00328196
0.0022569
0.00150416
0.000950353
0.00056252
0.000314555
0.000169045
8.65668e-05
3.96787e-05
1.47016e-05
4.47353e-06
1.46707e-06
6.90293e-07
6.4573e-07
6.45391e-07
6.46208e-07
6.4925e-07
1.23884e-06
3.99319e-06
7.59445e-06
1
0.999998
0.999997
0.999999
0.999999
1
0.999981
1.00006
0.966935
0.87952
0.841714
0.807725
0.780985
0.743725
0.705366
0.674803
0.641652
0.602953
0.563541
0.523917
0.482806
0.440792
0.398492
0.356416
0.315378
0.276214
0.239537
0.205836
0.175549
0.147583
0.121768
0.0981193
0.0771191
0.0591106
0.0439027
0.0311879
0.0208368
0.0128092
0.00707548
0.00341179
0.00144025
0.000549787
0.000193949
6.50943e-05
1.72369e-05
2.93411e-06
9.56598e-07
2.17524e-06
1.19946e-05
2.84029e-05
1
0.999998
0.999994
0.999998
1
1
1
1
1
1
1
1
1
1
1.00001
0.999987
1
1.00004
0.992608
0.983669
0.973988
0.962855
0.949652
0.933618
0.914111
0.890368
0.861284
0.825982
0.784405
0.738106
0.687035
0.632496
0.57463
0.513421
0.449672
0.38536
0.322806
0.262667
0.20398
0.148232
0.0998754
0.0627396
0.0357841
0.0174467
0.0064926
0.00172507
0.000341783
5.93677e-05
1.34115e-05
8.0787e-06
1
0.999999
0.999997
0.999999
1
1
1
1
1
1
1
1
1
1
1
1
1
1
1
1
1
1
1
1
1
1
1
1
1
1
0.997342
0.988496
0.978731
0.9661
0.949306
0.926594
0.895693
0.853963
0.79914
0.731143
0.651994
0.557887
0.447296
0.326697
0.211763
0.118752
0.0533858
0.0184878
0.00487085
0.000974054
1
0.999999
0.999996
0.999998
1
1
1
1
1
1
1
1
1
1
1
1
1
0.999999
0.999999
0.999999
0.999999
0.999998
0.999997
0.999996
0.999995
0.999996
0.999998
0.999999
1
1
1
1
1
1
1
1
1
1
0.999993
0.992956
0.98276
0.967716
0.943134
0.90129
0.828668
0.70977
0.543532
0.345255
0.171065
0.0641169
1
0.999998
0.999995
0.999998
1
1
1
1
1
1
1
1
1
1
1
0.999999
0.999999
0.999999
0.999999
0.999998
0.999997
0.999996
0.999994
0.999991
0.999984
0.99999
0.999995
0.999997
0.999998
0.999998
0.999999
0.999999
0.999999
1
1
1
1
1
1
1
1
1
1
1
1
0.988973
0.969549
0.918686
0.785862
0.54087
1
0.999998
0.999995
0.999999
1
1
1
1
1
1
1
1
1
1
1
0.999999
0.999999
0.999999
0.999998
0.999998
0.999997
0.999995
0.999993
0.999991
0.999979
0.999975
0.99999
0.999994
0.999996
0.999997
0.999998
0.999998
0.999999
0.999999
0.999999
0.999999
0.999999
0.999999
0.999999
0.999999
0.999999
0.999999
0.999999
0.999999
1
1
1
0.999999
0.993893
0.952117
1
0.999998
0.999997
0.999999
1
1
1
1
1
1
1
1
1
1
1
0.999999
0.999999
0.999999
0.999998
0.999998
0.999997
0.999996
0.999994
0.99999
0.999983
0.999975
0.999978
0.999989
0.999993
0.999995
0.999996
0.999997
0.999998
0.999998
0.999999
0.999999
0.999999
0.999999
0.999999
0.999998
0.999998
0.999998
0.999998
0.999998
0.999998
0.999998
0.999999
0.999992
0.994961
0.953433
1
0.999998
0.999999
1
1
1
1
1
1
1
1
1
1
1
1
0.999999
0.999999
0.999999
0.999998
0.999998
0.999998
0.999997
0.999996
0.999993
0.999989
0.999982
0.999978
0.999986
0.999992
0.999994
0.999995
0.999996
0.999997
0.999998
0.999998
0.999998
0.999999
0.999999
0.999999
0.999998
0.999998
0.999998
0.999998
0.999998
0.999998
0.999986
0.999313
0.946611
0.826981
0.649979
1
0.999998
0.999998
1
1
1
1
1
1
1
1
1
1
1
1
0.999999
0.999999
0.999999
0.999999
0.999999
0.999998
0.999998
0.999998
0.999996
0.999995
0.999992
0.999986
0.999988
0.999992
0.999994
0.999995
0.999996
0.999997
0.999997
0.999998
0.999998
0.999998
0.999999
1
0.999999
0.999998
0.999998
0.999998
0.999957
0.996184
0.916592
0.774564
0.58276
0.382655
0.213112
1
0.999997
0.999998
1
1
1
1
1
1
1
1
1
1
1
1
1
0.999999
0.999999
0.999999
0.999999
0.999999
0.999999
0.999999
0.999998
0.999998
0.999997
0.999995
0.999993
0.999994
0.999995
0.999996
0.999996
0.999997
0.999997
0.999998
0.999998
0.999998
0.999999
1
0.999999
0.999995
0.9999
0.975202
0.833677
0.637069
0.407699
0.229142
0.116183
0.0546914
0.0232997
1
0.999996
0.999998
1
1
1
1
1
1
1
1
1
1
1
1
1
1
0.999999
0.999999
0.999999
0.999999
0.999999
0.999999
0.999999
0.999999
0.999999
0.999998
0.999998
0.999997
0.999997
0.999997
0.999997
0.999997
0.999997
0.999998
0.999998
0.999999
0.999999
0.999969
0.999794
0.948757
0.712385
0.449124
0.249918
0.110235
0.03284
0.0114336
0.00483316
0.00169301
0.000475056
1
0.999996
0.999998
1
1
1
1
1
1
1
1
1
1
1
1
1
1
1
1
1
1
1
1
0.999999
0.999999
0.999999
0.999999
0.999999
0.999999
0.999998
0.999998
0.999998
0.999998
0.999998
0.999998
0.999994
0.999904
0.999673
0.836893
0.566544
0.355919
0.0759009
0.0204308
0.0056236
0.0015615
0.000489173
0.000142094
4.96622e-05
1.72114e-05
5.5463e-06
1
0.999997
0.999999
1
1
1
1
1
1
1
1
1
1
1
1
1
1
1
1
1
1
1
1
1
1
0.999999
0.999999
0.999999
0.999998
0.999999
0.999998
0.999998
0.999998
0.999958
0.999759
0.926561
0.700667
0.429416
0.0546892
0.0165925
0.00377975
0.00028209
3.31963e-05
9.26741e-06
3.61808e-06
7.80063e-06
6.5489e-06
3.98885e-06
2.02828e-06
9.51082e-07
1
0.999998
0.999999
1
1
1
1
1
1
1
1
1
1
1
1
1
1
1
1
1
1
1
1
0.999999
0.999999
0.999999
0.999999
0.999998
0.999998
0.999998
0.999976
0.99985
0.968528
0.789232
0.491274
0.0550402
0.0177066
0.00373621
0.000113707
6.28132e-05
1.446e-05
3.55575e-06
1.12967e-06
1.26363e-06
1.90736e-06
8.54136e-06
5.50272e-06
1.82541e-06
9.50835e-07
9.48806e-07
1
1
1
1
1
1
1
1
1
1
1
1
1
1
1
1
1
1
1
1
1
0.999999
0.999999
0.999999
0.999999
0.999999
0.999997
0.999455
0.995803
0.998502
0.834746
0.580157
0.068361
0.019845
0.00417397
0.00013638
9.76649e-05
3.62063e-05
3.76435e-06
7.63016e-07
6.80706e-07
6.68875e-07
6.64652e-07
7.17532e-07
5.36204e-06
1.08125e-05
1.00023e-05
3.9903e-06
9.53216e-07
9.48829e-07
9.01505e-05
9.00702e-05
7.99643e-05
2.89064e-05
1.21997e-05
8.37508e-06
9.1617e-06
2.03928e-05
1.76586e-05
6.08634e-06
1.4792e-06
3.78849e-07
1.19537e-07
7.32414e-08
5.19431e-08
3.7175e-08
2.30274e-08
2.86397e-08
2.41102e-08
2.00213e-08
2.41345e-08
1.96036e-08
8.09611e-09
5.42784e-09
3.49395e-09
2.42955e-09
1.93557e-09
1.68494e-09
1.50846e-09
1.36658e-09
1.27332e-09
1.24902e-09
1.3054e-09
1.44679e-09
1.67571e-09
1.99779e-09
2.42564e-09
2.98219e-09
3.70521e-09
4.6542e-09
5.92157e-09
7.64973e-09
1.00566e-08
1.34748e-08
1.84082e-08
2.5563e-08
3.38665e-08
5.01196e-08
5.78e-08
8.15193e-08
2.72721e-05
3.77078e-05
4.51692e-05
3.87466e-05
4.99514e-05
5.15246e-05
5.15066e-05
3.32951e-05
1.88637e-05
9.83168e-06
1.46064e-05
3.8593e-05
6.30029e-05
4.325e-05
1.66756e-05
3.14916e-06
3.83178e-07
2.33048e-07
2.32129e-07
1.6857e-07
5.24158e-08
2.55128e-08
5.70323e-08
2.8246e-08
2.21093e-08
1.09399e-08
7.47076e-09
8.12559e-09
7.48151e-09
6.11577e-09
4.70314e-09
3.56576e-09
2.75935e-09
2.24368e-09
1.96789e-09
1.8923e-09
1.99035e-09
2.24884e-09
2.66995e-09
3.27494e-09
4.11058e-09
5.25973e-09
6.85867e-09
9.12492e-09
1.24013e-08
1.72164e-08
2.37723e-08
3.43203e-08
4.22213e-08
5.78531e-08
1.17284e-06
2.14848e-06
1.27266e-05
2.46182e-05
1.247e-05
9.40934e-06
1.50967e-05
1.8071e-05
1.80842e-05
1.83218e-05
4.95313e-05
6.30012e-05
6.33968e-05
4.14638e-05
8.28902e-06
1.16151e-05
8.56844e-05
5.45343e-05
1.57937e-05
2.22577e-06
1.99459e-07
2.90816e-08
4.25277e-08
4.40147e-08
4.08847e-08
3.36177e-07
2.88329e-07
7.93219e-08
4.11782e-08
2.26852e-08
1.41904e-08
9.77532e-09
6.98694e-09
5.04205e-09
3.68581e-09
2.7938e-09
2.27689e-09
2.06404e-09
2.10236e-09
2.36131e-09
2.83741e-09
3.56311e-09
4.61513e-09
6.11957e-09
8.27458e-09
1.15284e-08
1.64896e-08
4.33782e-08
5.1088e-08
7.12712e-08
4.17072e-06
2.14865e-06
2.14131e-06
2.1496e-06
2.4474e-06
5.32058e-06
1.57739e-05
2.54798e-05
3.41999e-05
3.76759e-05
3.86168e-05
2.79999e-05
1.67788e-05
6.04064e-06
5.86231e-06
1.15476e-05
8.80768e-05
0.000118738
0.000103457
3.92666e-05
5.39061e-06
1.83138e-07
4.75568e-08
8.40512e-08
1.75645e-06
2.87488e-06
1.80005e-06
3.54177e-07
3.1381e-08
2.48928e-08
1.90979e-08
1.39783e-08
9.97035e-09
6.97346e-09
4.81579e-09
3.34624e-09
2.42914e-09
1.94835e-09
1.82906e-09
2.01436e-09
2.62737e-09
3.5133e-09
4.45699e-09
6.11649e-09
1.3251e-08
3.93033e-08
5.86705e-08
2.46969e-07
1.89687e-06
9.58385e-07
8.26054e-06
8.39599e-06
8.60336e-06
9.84349e-06
1.72749e-05
2.89387e-05
2.96346e-05
2.96123e-05
2.11504e-05
1.08839e-05
6.07846e-06
4.75038e-06
4.74464e-06
5.81504e-06
1.80002e-05
9.32315e-05
0.000118737
0.000119242
7.28107e-05
1.69309e-05
3.05819e-06
1.38325e-06
4.95553e-06
6.14288e-06
6.09604e-06
2.95367e-06
9.25218e-07
1.17244e-07
3.67536e-08
2.35303e-08
1.64709e-08
1.16109e-08
8.02832e-09
5.45036e-09
3.70445e-09
2.6577e-09
2.25537e-09
2.78842e-09
4.68617e-09
1.40911e-08
4.32882e-08
1.72038e-07
3.59658e-07
1.90256e-06
1.15793e-06
2.89957e-07
1.24891e-06
4.0886e-06
9.49389e-06
5.44037e-06
3.45845e-05
3.45345e-05
3.45858e-05
3.45365e-05
3.04678e-05
1.38271e-05
1.10617e-05
8.81278e-06
8.39454e-06
1.74532e-05
3.3243e-05
3.10995e-05
3.43395e-05
4.27787e-05
6.88008e-05
9.44663e-05
7.26393e-05
4.41898e-05
1.60306e-05
7.20463e-06
6.17891e-06
7.49446e-06
7.50784e-06
5.59724e-06
3.12251e-06
9.02438e-07
1.34617e-07
3.62561e-08
2.01621e-08
1.37399e-08
9.59518e-09
6.63531e-09
4.61472e-09
3.44136e-09
3.16642e-09
4.16874e-09
8.09014e-09
3.20793e-08
1.20004e-07
1.47074e-06
7.29981e-06
2.29846e-05
3.4967e-05
5.33279e-06
2.78098e-06
1.04929e-06
1.82753e-06
5.04277e-06
2.25494e-05
0.000103209
7.98853e-06
1.43191e-05
3.40804e-05
3.45849e-05
3.13664e-05
8.66614e-06
6.14059e-06
6.1422e-06
2.22786e-05
5.39596e-05
5.40515e-05
5.04826e-05
2.30162e-05
2.039e-05
4.26681e-05
4.1306e-05
1.66544e-05
9.42012e-06
6.86515e-06
5.93135e-06
5.45251e-06
4.87774e-06
3.3018e-06
1.49042e-06
3.77852e-07
7.8436e-08
3.67784e-08
1.57091e-08
1.03664e-08
7.17631e-09
4.98331e-09
3.57557e-09
2.91195e-09
3.11294e-09
4.68791e-09
9.20557e-09
2.09763e-08
4.74235e-08
8.22667e-07
1.46669e-05
8.50351e-05
0.000210254
0.000280243
3.36554e-05
9.20197e-06
5.12005e-06
5.20347e-06
5.17148e-06
2.02356e-05
0.000119223
0.000179995
4.64971e-05
2.25858e-05
2.25865e-05
2.63504e-05
2.98012e-05
1.33067e-05
7.50434e-06
1.03765e-05
3.07146e-05
4.94982e-05
5.05919e-05
2.00931e-05
9.2559e-06
9.61885e-06
1.59686e-05
9.43644e-06
6.30776e-06
4.51884e-06
3.5282e-06
2.37365e-06
1.33586e-06
4.21364e-07
1.17789e-07
6.0781e-08
3.58258e-08
1.59152e-08
9.17019e-09
6.20687e-09
4.23244e-09
2.91984e-09
2.16924e-09
1.96777e-09
2.43468e-09
3.99538e-09
7.89881e-09
1.76867e-08
3.75205e-08
4.61077e-07
1.0196e-05
7.29018e-05
0.000239328
0.000366564
0.000334516
0.000186896
0.000164815
0.000140986
5.07774e-05
5.12957e-05
7.41493e-05
0.0168733
0.00369219
0.00101479
0.000335084
0.000120577
6.68061e-05
3.69377e-05
1.88232e-05
8.38661e-06
8.36883e-06
1.25286e-05
2.81753e-05
2.79916e-05
2.04366e-05
1.03671e-05
5.97841e-06
5.3003e-06
3.91957e-06
2.32665e-06
1.13141e-06
3.85514e-07
1.20497e-07
1.17361e-07
8.56182e-08
5.76024e-08
3.59785e-08
2.1289e-08
1.34273e-08
8.92918e-09
6.07867e-09
4.21037e-09
3.02688e-09
2.3895e-09
2.27739e-09
2.83894e-09
4.60199e-09
9.12195e-09
1.98776e-08
5.23144e-08
1.44749e-06
1.43527e-05
6.7807e-05
0.000156315
0.000232396
0.000229798
0.000215937
0.000242088
0.000332978
0.000497821
0.000495525
0.266994
0.0884922
0.0227638
0.00582357
0.00182774
0.000693489
0.000244771
8.713e-05
3.07188e-05
1.11208e-05
4.24124e-06
4.22075e-06
9.15954e-06
2.03587e-05
1.47673e-05
5.70565e-06
2.15322e-06
1.09215e-06
4.93622e-07
1.50443e-07
9.3668e-08
9.12372e-08
9.16248e-08
8.05337e-08
6.61569e-08
5.16741e-08
3.92328e-08
2.96305e-08
2.2424e-08
1.70235e-08
1.29778e-08
9.96922e-09
7.77671e-09
6.25597e-09
5.34656e-09
5.12764e-09
6.00322e-09
9.17221e-09
1.78697e-08
3.10378e-08
3.31035e-07
2.50017e-06
1.03985e-05
2.78433e-05
5.0579e-05
6.89756e-05
9.01392e-05
0.000128862
0.000186537
0.000241432
0.807425
0.461217
0.154404
0.0363235
0.00798153
0.00199189
0.000588996
0.000239685
9.96283e-05
4.36371e-05
1.8973e-05
8.19589e-06
5.89285e-06
6.01518e-06
4.50254e-06
1.81974e-06
4.09845e-07
1.18582e-07
1.04549e-07
1.01107e-07
1.54392e-07
1.53059e-07
7.9657e-08
6.51713e-08
6.42789e-08
5.85461e-08
5.16236e-08
4.4743e-08
3.83347e-08
3.25834e-08
2.75573e-08
2.3259e-08
1.9653e-08
1.66852e-08
1.43009e-08
1.24701e-08
1.12361e-08
1.08449e-08
1.20159e-08
1.45146e-08
1.87532e-08
2.81114e-08
7.39726e-08
3.43593e-07
1.28062e-06
3.07158e-06
6.10756e-06
1.02883e-05
1.46844e-05
2.48396e-05
0.867598
0.687829
0.327339
0.0766683
0.0152057
0.00325806
0.000699802
0.000155589
4.65401e-05
2.28462e-05
1.38165e-05
1.03248e-05
5.99062e-06
3.01836e-06
1.29786e-06
2.75317e-07
1.73591e-07
1.33131e-07
1.17634e-07
1.04826e-07
1.42356e-07
2.28246e-07
2.27552e-07
1.18872e-07
6.09472e-08
5.84743e-08
5.47474e-08
4.81694e-08
4.06918e-08
3.71745e-08
3.5402e-08
3.32756e-08
3.09381e-08
2.85652e-08
2.62857e-08
2.41784e-08
2.22974e-08
2.07135e-08
1.95808e-08
1.89473e-08
1.91403e-08
2.05224e-08
2.64429e-08
3.0079e-08
3.43266e-08
4.29346e-08
6.95305e-08
1.21339e-07
1.82996e-07
4.0169e-07
0.443433
0.26503
0.12783
0.0374083
0.00739836
0.00134495
0.000214639
3.03608e-05
7.61715e-06
3.44684e-06
5.08789e-06
8.71789e-06
9.27325e-06
8.37241e-06
4.53684e-06
1.82317e-06
6.27666e-07
1.71781e-07
1.33491e-07
1.40132e-07
1.59002e-07
1.7692e-07
1.76846e-07
1.4724e-07
1.30421e-07
1.35221e-07
1.42805e-07
1.92153e-07
2.79543e-07
1.70824e-07
4.3833e-08
3.88319e-08
3.7957e-08
3.7462e-08
3.6724e-08
3.57307e-08
3.45659e-08
3.33043e-08
3.20188e-08
3.07725e-08
2.96985e-08
2.89112e-08
2.87498e-08
2.89028e-08
2.95181e-08
3.07303e-08
3.45041e-08
3.64567e-08
3.68765e-08
3.72966e-08
0.100247
0.0408537
0.0151272
0.00458625
0.000969032
0.000156998
2.34089e-05
3.54604e-06
3.15557e-06
3.14605e-06
3.14414e-06
3.14003e-06
3.14028e-06
1.0226e-05
1.86401e-05
1.86411e-05
1.49013e-05
4.94492e-06
1.50764e-06
1.26128e-06
1.48716e-06
1.65056e-06
2.43665e-06
7.45663e-06
1.72768e-05
1.73177e-05
1.73758e-05
1.41342e-05
5.04313e-06
7.44408e-07
4.84807e-08
4.21698e-08
4.31173e-08
4.44267e-08
4.50854e-08
4.47172e-08
4.31786e-08
4.17024e-08
4.1128e-08
3.95241e-08
3.7955e-08
3.68003e-08
3.6371e-08
3.61575e-08
3.57268e-08
3.51843e-08
3.47794e-08
3.41567e-08
3.34049e-08
3.31779e-08
0.00827973
0.0020848
0.000520549
0.000106186
2.01264e-05
5.69906e-06
3.9962e-06
3.23698e-06
3.15884e-06
3.90372e-06
3.14098e-06
3.13933e-06
3.13933e-06
4.07474e-06
1.65227e-05
1.86413e-05
1.86415e-05
7.24654e-06
5.88206e-06
1.6306e-05
1.9232e-05
1.92325e-05
1.92313e-05
1.41048e-05
3.95612e-06
3.69616e-06
7.25675e-06
2.02508e-05
1.03504e-05
3.53755e-06
1.04423e-06
2.80017e-07
1.04213e-07
8.81042e-08
6.32439e-08
5.36498e-08
3.92927e-07
4.82863e-06
6.80205e-06
6.71018e-06
3.28276e-06
4.60031e-07
4.07269e-08
3.67921e-08
3.72194e-08
3.6932e-08
3.62884e-08
3.50842e-08
3.40538e-08
4.02708e-08
0.000142711
3.89314e-05
1.16661e-05
4.69034e-06
2.31216e-06
2.31876e-06
2.32682e-06
4.79012e-06
8.60824e-06
8.51655e-06
4.52473e-06
3.14189e-06
3.13942e-06
3.24994e-06
8.46917e-06
1.86441e-05
1.86411e-05
1.8641e-05
1.85111e-05
7.74366e-06
2.87478e-06
2.86948e-06
2.86902e-06
2.86905e-06
3.15525e-06
6.07061e-06
1.02838e-05
3.11392e-05
3.20058e-05
2.52395e-05
3.307e-05
3.30551e-05
3.30688e-05
3.16359e-05
1.37376e-05
4.20435e-06
2.48373e-06
2.02623e-06
1.6453e-06
1.07128e-06
3.95479e-07
7.9611e-08
4.42779e-08
5.08754e-08
6.69443e-08
2.34123e-07
1.01727e-06
3.45459e-06
1.10254e-05
2.23063e-05
2.16083e-06
1.13652e-06
1.06515e-06
9.49347e-07
9.49956e-07
2.42335e-06
4.40324e-06
6.92318e-06
8.63557e-06
8.61226e-06
8.63453e-06
6.69098e-06
3.59545e-06
6.60942e-06
8.33048e-06
1.1846e-05
1.86428e-05
1.43576e-05
7.92526e-06
5.46059e-06
4.4705e-06
2.87244e-06
3.2559e-06
4.43036e-06
1.08536e-05
1.87615e-05
1.87825e-05
1.39729e-05
9.70104e-06
5.51307e-06
5.48447e-06
5.9143e-06
1.90643e-05
2.91735e-05
2.90573e-05
2.29441e-05
8.47865e-06
1.82274e-06
3.49361e-07
1.84608e-07
1.82658e-07
2.07655e-07
5.9643e-07
3.27778e-06
4.35502e-06
4.42592e-06
7.19205e-06
1.27537e-05
1.29854e-05
8.49203e-06
9.48812e-07
9.48801e-07
9.48796e-07
9.48865e-07
1.17197e-06
6.98696e-06
9.7795e-06
8.59184e-06
3.82165e-06
3.02117e-06
3.03723e-06
3.1267e-06
5.972e-06
1.42925e-05
1.46106e-05
1.3001e-05
4.77043e-06
1.82886e-06
1.82594e-06
1.82714e-06
3.71953e-06
8.92444e-06
8.95343e-06
8.92703e-06
5.57213e-06
5.59557e-06
7.93881e-06
8.26649e-06
1.94428e-05
2.20028e-05
2.2053e-05
1.26714e-05
6.21241e-06
3.90185e-06
3.92504e-06
1.1566e-05
8.04296e-06
3.79264e-06
1.11198e-06
2.99659e-07
1.82979e-07
3.01776e-07
9.02796e-07
2.72048e-06
1.70247e-06
1.11958e-06
1.10651e-06
1.7961e-06
1.58936e-06
1.52316e-06
9.48798e-07
9.48796e-07
9.48796e-07
9.61553e-07
1.70549e-06
5.75259e-06
9.80265e-06
9.61237e-06
4.69597e-06
2.80872e-06
6.71116e-06
4.19152e-06
3.11811e-06
3.11619e-06
1.09358e-05
1.10337e-05
5.06484e-06
1.83038e-06
1.827e-06
3.88945e-06
2.27055e-06
1.85568e-06
1.85402e-06
1.85402e-06
2.46723e-06
1.47762e-05
4.92049e-05
4.11047e-05
1.8551e-05
9.78896e-06
8.55128e-06
8.42374e-06
1.87187e-05
2.53309e-05
2.53341e-05
2.53305e-05
2.5334e-05
2.38063e-05
1.03062e-05
2.83099e-06
1.06666e-06
4.63467e-07
4.3293e-07
1.03332e-06
5.91346e-06
6.61934e-06
6.02259e-06
1.85845e-06
1.05506e-06
9.72582e-07
9.48812e-07
9.48799e-07
9.48971e-07
2.27178e-06
4.35875e-06
4.37221e-06
2.46191e-06
1.66737e-06
2.33076e-06
2.79512e-06
6.95725e-06
8.2684e-06
8.25124e-06
5.79834e-06
1.97363e-06
1.96607e-06
2.88447e-06
3.69621e-06
5.36361e-06
5.34606e-06
5.36292e-06
3.995e-06
1.8578e-06
1.85633e-06
2.68985e-06
7.87515e-06
4.12342e-05
7.4964e-05
7.49808e-05
7.49609e-05
5.02435e-05
9.37299e-06
2.24036e-06
2.23821e-06
2.23875e-06
2.23601e-06
2.56503e-06
1.64662e-05
2.53292e-05
2.53291e-05
2.53277e-05
2.21288e-05
6.59025e-06
7.11158e-07
6.26381e-07
7.49656e-07
6.5098e-06
9.18596e-06
9.30709e-06
4.48182e-06
9.0281e-08
9.72925e-08
1.02015e-07
1.18424e-07
1.37412e-07
1.22714e-07
1.77579e-07
1.52875e-07
1.48303e-07
1.46154e-07
2.52036e-07
3.58103e-07
9.15934e-07
2.83222e-06
2.1303e-06
2.16984e-06
4.05969e-06
6.92531e-06
1.32198e-05
1.92692e-05
2.3803e-05
3.5486e-05
4.7682e-05
4.83022e-05
2.72392e-05
4.46142e-05
8.19095e-05
0.000143171
0.000194213
0.000399062
0.000397585
0.000395994
0.000307769
0.000113742
9.29662e-05
9.23752e-05
0.000123343
0.000329826
0.000512036
0.000511574
0.000317471
0.000118147
3.94612e-05
3.44343e-05
3.75922e-05
7.66663e-05
0.000237235
0.000575043
0.000257433
4.63764e-05
3.01821e-05
3.06467e-05
4.99405e-05
7.5236e-05
0.000152533
0.000452022
0.000620407
0.000305336
7.25724e-05
4.47838e-05
4.46539e-05
6.26282e-05
0.000134852
0.00044164
0.000480721
0.000400978
0.000134913
3.51067e-05
2.25625e-05
3.98709e-05
0.000133821
0.000407374
0.000414873
0.000338422
0.00010308
2.48494e-05
2.33449e-05
4.77512e-05
0.000237663
0.000288205
0.000289432
0.000191084
3.77215e-05
7.51134e-06
8.37583e-06
2.19381e-05
0.000141075
0.000174843
0.000170174
6.36258e-05
6.62076e-06
1.71463e-05
7.64053e-05
3.42042e-05
1.19706e-05
1.88264e-05
0.00014284
0.000208605
0.000181566
5.80419e-05
4.56637e-06
1.3549e-06
3.01794e-06
4.59857e-05
0.000259118
0.000282382
0.000274994
0.000101809
1.47893e-05
3.04658e-06
2.14157e-05
4.02724e-05
4.01911e-05
1.8392e-05
2.2972e-06
6.77582e-07
6.75486e-07
6.74858e-07
1.03658e-06
1.89372e-05
6.16379e-05
6.18274e-05
3.49155e-05
5.49319e-06
2.72077e-07
7.54135e-08
7.91555e-08
1.28653e-07
8.6199e-08
8.4741e-08
7.72792e-08
6.60207e-08
5.41844e-08
4.34293e-08
3.46297e-08
2.80515e-08
2.34881e-08
2.04817e-08
1.85355e-08
1.72394e-08
1.63074e-08
1.55608e-08
1.48949e-08
1.42494e-08
1.3589e-08
1.2893e-08
1.215e-08
1.13563e-08
1.05163e-08
9.64342e-09
8.75887e-09
7.88907e-09
7.05993e-09
6.29104e-09
5.59096e-09
4.95653e-09
4.37557e-09
3.82906e-09
3.2728e-09
2.80872e-09
2.40804e-09
2.03447e-09
1.69066e-09
1.38023e-09
1.1065e-09
8.71488e-10
6.75296e-10
5.16072e-10
3.90355e-10
2.93626e-10
2.20901e-10
1.67259e-10
1.28229e-10
1.00014e-10
7.95739e-11
6.46016e-11
5.34241e-11
4.48783e-11
3.81808e-11
3.28126e-11
2.84283e-11
2.47908e-11
2.17289e-11
1.91135e-11
1.6845e-11
1.48477e-11
1.30662e-11
1.14628e-11
1.00141e-11
8.70662e-12
7.53293e-12
6.48841e-12
5.56851e-12
4.76731e-12
4.07692e-12
3.48761e-12
2.9883e-12
2.56729e-12
2.21297e-12
1.91435e-12
1.66153e-12
1.44592e-12
1.26036e-12
1.09905e-12
9.57505e-13
8.32298e-13
7.20929e-13
6.21586e-13
5.32965e-13
4.54102e-13
3.84244e-13
3.22745e-13
2.69005e-13
2.22432e-13
1.82423e-13
1.48364e-13
1.19637e-13
9.5633e-14
7.57627e-14
5.947e-14
4.6239e-14
3.55995e-14
2.71302e-14
2.04586e-14
1.52598e-14
1.12542e-14
8.20378e-15
5.9088e-15
4.20371e-15
2.95314e-15
2.04802e-15
1.40175e-15
9.46651e-16
6.30648e-16
4.14345e-16
2.6842e-16
1.71412e-16
1.07878e-16
6.68932e-17
4.08573e-17
2.4574e-17
1.45504e-17
8.47896e-18
4.86122e-18
2.74127e-18
1.51994e-18
8.28399e-19
4.43662e-19
2.33417e-19
1.20599e-19
6.11715e-20
3.04519e-20
1.4873e-20
7.12457e-21
3.34615e-21
1.54029e-21
6.94656e-22
3.06811e-22
1.32656e-22
5.61224e-23
2.32218e-23
9.39249e-24
3.71154e-24
1.43206e-24
5.39178e-25
1.97958e-25
7.08226e-26
2.46715e-26
8.36144e-27
2.75449e-27
8.81162e-28
2.73444e-28
8.22217e-29
2.3926e-29
6.72875e-30
1.82617e-30
4.77521e-31
1.20096e-31
2.89943e-32
6.70552e-33
1.48212e-33
3.12288e-34
6.25495e-35
1.1872e-35
2.12777e-36
3.58676e-37
5.66102e-38
8.32238e-39
1.13278e-39
1.41751e-40
1.61712e-41
1.66488e-42
1.52761e-43
1.22958e-44
8.50402e-46
4.91307e-47
2.27611e-48
7.92716e-50
1.84543e-51
2.15561e-53
6.58466e-08
7.07171e-08
7.93923e-08
8.87259e-08
9.95052e-08
1.0634e-07
1.21158e-07
1.25607e-07
1.28332e-07
1.28518e-07
1.30101e-07
1.48773e-07
2.40124e-06
2.99504e-05
1.66129e-05
4.39116e-06
6.6507e-07
3.04452e-07
6.48001e-07
1.47005e-06
3.02468e-06
6.91714e-06
3.95786e-05
2.64723e-05
1.08082e-05
3.21436e-06
2.95839e-06
6.34562e-06
1.57924e-05
8.31656e-05
0.000132292
0.000172311
0.000305407
0.000260009
0.000125589
3.56191e-05
1.87899e-05
5.21498e-05
0.0002008
0.000512662
0.000511651
0.000505307
0.000215756
3.6453e-05
2.92268e-05
2.91697e-05
0.000190278
0.000575884
0.000576391
0.000398987
9.50686e-05
1.03373e-05
8.85751e-06
8.85822e-06
2.70907e-05
0.000328799
0.000615256
0.000620407
0.000422528
9.9226e-05
3.05562e-05
3.14064e-05
6.20084e-05
0.000399968
0.000480711
0.000480721
0.000392715
0.000104999
1.486e-05
1.47784e-05
2.71388e-05
0.000278872
0.000414866
0.000398064
0.000151209
2.39874e-05
2.27128e-05
2.2834e-05
0.000188984
0.000289431
0.000216485
5.41097e-05
7.7874e-06
7.4708e-06
1.4045e-05
0.00011105
0.000157802
0.000129579
3.54485e-05
2.91188e-05
6.71024e-05
0.00017108
0.000114605
2.62537e-05
1.23479e-05
3.69263e-05
0.00018617
0.000208267
0.00012878
3.07507e-05
3.04363e-05
0.000119246
0.000200318
0.000199324
0.000176862
8.37264e-05
4.56025e-05
4.47699e-05
5.27723e-05
5.61112e-05
5.59938e-05
2.63552e-05
1.03824e-05
3.17868e-06
1.502e-06
2.08401e-06
9.05399e-06
4.49842e-05
7.22055e-05
7.17556e-05
5.88674e-05
2.84372e-05
8.82054e-06
1.12224e-06
1.45143e-07
1.40897e-07
1.35906e-07
1.28828e-07
1.12442e-07
9.8332e-08
8.44359e-08
7.09613e-08
5.85393e-08
4.7809e-08
3.91716e-08
3.26606e-08
2.79969e-08
2.47457e-08
2.24657e-08
2.07969e-08
1.94839e-08
1.83616e-08
1.73284e-08
1.63236e-08
1.53108e-08
1.42706e-08
1.31963e-08
1.2093e-08
1.09771e-08
9.87412e-09
8.81413e-09
7.82518e-09
6.92663e-09
6.12514e-09
5.41441e-09
4.77886e-09
4.19909e-09
3.65378e-09
3.11833e-09
2.64566e-09
2.24592e-09
1.87702e-09
1.5427e-09
1.24655e-09
9.90915e-10
7.7626e-10
6.01055e-10
4.62062e-10
3.54829e-10
2.74259e-10
2.15134e-10
1.72538e-10
1.42155e-10
1.20419e-10
1.04563e-10
9.25631e-11
8.30323e-11
7.50855e-11
6.81979e-11
6.20794e-11
5.65749e-11
5.15937e-11
4.70683e-11
4.29353e-11
3.91323e-11
3.56019e-11
3.22982e-11
2.91909e-11
2.62658e-11
2.35222e-11
2.09685e-11
1.86164e-11
1.64762e-11
1.45537e-11
1.28482e-11
1.13521e-11
1.00517e-11
8.9287e-12
7.96165e-12
7.12797e-12
6.40531e-12
5.77291e-12
5.21247e-12
4.70875e-12
4.24976e-12
3.82668e-12
3.43352e-12
3.06665e-12
2.7242e-12
2.40549e-12
2.11048e-12
1.83939e-12
1.59231e-12
1.36909e-12
1.16918e-12
9.91701e-13
8.35421e-13
6.98893e-13
5.8052e-13
4.78639e-13
3.91593e-13
3.17774e-13
2.55657e-13
2.03816e-13
1.6093e-13
1.25787e-13
9.72774e-14
7.43981e-14
5.62455e-14
4.20152e-14
3.09986e-14
2.25805e-14
1.6234e-14
1.1515e-14
8.05587e-15
5.5568e-15
3.778e-15
2.53098e-15
1.6702e-15
1.08535e-15
6.9431e-16
4.37113e-16
2.70745e-16
1.64941e-16
9.88033e-17
5.81796e-17
3.36671e-17
1.91409e-17
1.06886e-17
5.861e-18
3.15497e-18
1.66677e-18
8.63955e-19
4.39255e-19
2.18988e-19
1.07019e-19
5.125e-20
2.40412e-20
1.10427e-20
4.9645e-21
2.18351e-21
9.39089e-22
3.94733e-22
1.6207e-22
6.49592e-23
2.54004e-23
9.68272e-24
3.59572e-24
1.29972e-24
4.56888e-25
1.56044e-25
5.1726e-26
1.66227e-26
5.17235e-27
1.55626e-27
4.52109e-28
1.26611e-28
3.41199e-29
8.83104e-30
2.19063e-30
5.19603e-31
1.17547e-31
2.52905e-32
5.15871e-33
9.941e-34
1.80257e-34
3.06167e-35
4.84581e-36
7.10386e-37
9.57788e-38
1.17771e-38
1.30733e-39
1.29381e-40
1.1236e-41
8.3871e-43
5.23125e-44
2.6172e-45
9.8464e-47
2.47671e-48
3.12613e-50
1.57436e-07
1.20356e-06
8.10607e-07
3.49269e-07
1.26672e-07
1.31096e-07
1.31127e-07
1.34285e-07
1.34281e-07
1.28857e-07
1.29218e-07
5.85166e-07
2.01872e-05
4.8174e-05
4.8242e-05
2.24167e-05
2.95769e-06
3.01056e-07
2.92774e-07
2.93683e-07
2.96872e-07
4.0851e-07
1.09263e-05
2.60019e-05
1.57174e-05
3.18028e-06
2.40008e-06
3.47037e-06
2.06529e-05
5.31968e-05
2.2359e-05
9.85905e-06
3.59717e-05
0.000195979
0.00011578
2.98226e-05
1.85564e-05
1.87886e-05
6.08491e-05
0.000426068
0.000512657
0.000327613
6.78758e-05
2.92284e-05
2.91695e-05
6.16562e-05
0.000457605
0.000576391
0.000537897
0.00019928
2.31113e-05
8.8673e-06
8.86231e-06
2.38362e-05
0.000286275
0.000578131
0.000583258
0.00031458
8.40259e-05
2.8082e-05
2.98065e-05
6.08061e-05
0.000382835
0.000463787
0.000456913
0.000191902
4.45604e-05
1.45781e-05
1.48046e-05
3.37676e-05
0.000157519
0.000310207
0.000194654
4.94098e-05
2.26763e-05
2.26774e-05
5.11055e-05
0.000169328
0.000214737
0.000105015
4.517e-05
7.22405e-05
8.63092e-05
5.08523e-05
0.00010639
0.000116162
5.86475e-05
2.91239e-05
2.91192e-05
2.91206e-05
9.96865e-05
0.000170809
0.000171078
0.000170806
0.000170108
0.000117886
8.83598e-05
4.01634e-05
5.17216e-05
0.000104029
0.000126031
0.000127018
9.13988e-05
7.81207e-05
6.10882e-05
3.218e-05
5.30502e-05
5.8235e-05
5.80209e-05
4.37762e-05
2.63999e-05
1.64528e-05
1.43243e-05
2.15553e-05
3.76621e-05
5.89364e-05
5.99977e-05
6.01351e-05
4.75583e-05
2.9418e-05
1.27694e-05
2.89561e-06
4.98973e-07
1.82464e-07
1.78689e-07
1.65786e-07
1.47902e-07
1.28841e-07
1.10854e-07
9.50116e-08
8.0843e-08
6.81151e-08
5.69496e-08
4.75735e-08
4.00822e-08
3.43545e-08
3.00978e-08
2.69489e-08
2.45636e-08
2.26654e-08
2.10561e-08
1.96041e-08
1.82261e-08
1.68734e-08
1.55215e-08
1.41656e-08
1.28168e-08
1.14983e-08
1.02399e-08
9.07092e-09
8.01345e-09
7.07696e-09
6.25737e-09
5.53967e-09
4.90238e-09
4.32351e-09
3.78385e-09
3.26752e-09
2.78672e-09
2.37578e-09
2.00068e-09
1.6591e-09
1.3549e-09
1.09075e-09
8.67547e-10
6.84205e-10
5.37933e-10
4.24675e-10
3.39614e-10
2.77643e-10
2.33766e-10
2.03397e-10
1.82571e-10
1.68056e-10
1.57378e-10
1.48785e-10
1.41149e-10
1.33839e-10
1.26587e-10
1.19347e-10
1.12187e-10
1.05204e-10
9.84721e-11
9.20253e-11
8.58556e-11
7.99297e-11
7.42077e-11
6.86591e-11
6.3273e-11
5.80606e-11
5.30519e-11
4.82882e-11
4.38139e-11
3.96686e-11
3.58812e-11
3.24662e-11
2.94231e-11
2.67367e-11