/*--------------------------------*- C++ -*----------------------------------*\
| =========                 |                                                 |
| \\      /  F ield         | OpenFOAM: The Open Source CFD Toolbox           |
|  \\    /   O peration     | Version:  2.4.0                                 |
|   \\  /    A nd           | Web:      www.OpenFOAM.org                      |
|    \\/     M anipulation  |                                                 |
\*---------------------------------------------------------------------------*/
FoamFile
{
    version     2.0;
    format      ascii;
    class       volScalarField;
    location    "4.2";
    object      p_rgh;
}
// * * * * * * * * * * * * * * * * * * * * * * * * * * * * * * * * * * * * * //

dimensions      [1 -1 -2 0 0 0 0];

internalField   nonuniform List<scalar> 
8000
(
51.4267
51.6008
51.7958
51.9883
52.2066
52.4552
52.5216
51.71
48.5918
46.5068
48.0739
23.2558
1.97473
2.40472
1.88087
2.27568
2.26755
2.22902
2.20231
2.19429
2.2027
2.21673
2.2253
2.22787
2.22695
2.22509
2.22367
2.22282
2.22205
2.2211
2.21986
2.21847
2.21683
2.21516
2.21354
2.21197
2.21055
2.2093
2.20869
2.20811
2.20842
2.20864
2.20928
2.21179
2.21205
2.21487
2.21644
2.21941
2.22341
2.2294
47.3336
47.4938
47.7337
48.0642
48.014
45.8902
40.2823
36.8915
-1.37812
2.03873
1.82556
2.13381
2.24125
2.25672
2.2474
2.24096
2.24492
2.24645
2.24458
2.24334
2.24249
2.24157
2.2405
2.23937
2.23829
2.23736
2.23664
2.23619
2.23605
2.23628
2.23702
2.23812
2.2399
2.24234
2.24552
2.24955
2.25453
2.2605
2.26743
2.27534
2.28395
2.29288
2.30237
2.31189
2.32103
2.32948
2.33699
2.34332
2.34828
2.35184
48.4412
48.4073
48.1632
46.9555
44.5295
17.7752
3.01992
3.72098
2.45994
2.17075
2.16853
2.2057
2.2172
2.22005
2.22037
2.22037
2.22106
2.22172
2.22229
2.22281
2.22314
2.22321
2.22302
2.22254
2.22178
2.22077
2.21958
2.2183
2.21702
2.21586
2.21495
2.21435
2.21431
2.21505
2.21673
2.21935
2.22305
2.22792
2.23238
2.23868
2.24592
2.25387
2.26223
2.27063
2.27867
2.28594
2.29205
2.29688
2.30018
2.30176
54.4718
54.3451
53.6923
52.2233
7.59883
1.34072
1.83895
3.59226
3.48694
3.2435
2.75881
2.55162
2.49708
2.36872
2.33806
2.31531
2.29519
2.28033
2.26544
2.24875
2.23215
2.2166
2.20206
2.18847
2.17586
2.16446
2.1546
2.14647
2.1398
2.13395
2.12838
2.12313
2.11853
2.11492
2.11293
2.11034
2.11304
2.10623
2.10235
2.0997
2.09662
2.09265
2.08766
2.08178
2.07532
2.06859
2.06212
2.05676
2.05319
2.04991
48.8255
49.0926
49.2867
48.8682
47.014
14.3119
13.7952
11.6289
12.0459
12.6919
11.6823
10.2706
10.0022
9.45043
8.0283
7.18574
6.61675
5.97562
5.40476
4.91652
4.47686
4.08857
3.75117
3.45794
3.20261
2.98154
2.79295
2.63479
2.50218
2.39023
2.29242
2.20937
2.14061
2.08508
2.04403
2.01656
1.99817
1.98463
1.9741
1.9657
1.95868
1.95198
1.94463
1.93645
1.92798
1.91942
1.91049
1.90149
1.89338
1.88707
67.844
67.8055
67.7902
67.7957
67.8421
67.8992
67.8764
66.4685
55.1612
50.5477
51.0308
50.5968
49.2072
46.8323
44.8124
43.2632
41.1269
38.4431
35.9198
33.4279
30.7935
28.1288
25.5123
22.9774
20.5769
18.3495
16.3173
14.4764
12.7806
11.1205
9.50997
8.01656
6.71259
5.60013
4.64065
3.82319
3.15814
2.64845
2.29794
2.10542
2.03724
2.0253
2.02395
2.02049
2.01438
2.00826
2.0032
1.99862
1.9942
1.9925
70.004
69.908
69.8196
69.761
69.7455
69.7618
69.775
69.7574
69.7201
69.6403
69.576
69.5668
69.5898
69.6308
69.6695
69.6887
69.7206
69.5126
68.1252
67.3901
66.8657
66.1694
65.2346
64.0147
62.4614
60.5125
58.1108
55.3005
52.1991
48.9365
45.464
41.7941
37.9042
33.8282
29.6798
25.5933
21.6158
17.6622
13.6953
10.0337
7.14546
5.15089
3.72661
2.7088
2.21094
2.1738
2.23112
2.25135
2.25321
2.25127
71.7754
71.714
71.6476
71.5832
71.5221
71.4621
71.4027
71.3461
71.2964
71.2551
71.2277
71.2149
71.2168
71.2327
71.2609
71.2973
71.3346
71.3675
71.3947
71.4155
71.4341
71.4558
71.4805
71.5057
71.5292
71.5506
71.5754
71.6156
71.6604
71.5848
70.7825
69.7877
69.1108
68.1969
66.7968
64.7989
62.0657
58.5212
54.202
49.1585
43.4035
36.6579
29.0053
21.0373
13.7495
8.13257
4.55224
2.9561
2.51785
2.47865
73.0571
73.0203
72.9812
72.9431
72.9087
72.8762
72.8453
72.816
72.7885
72.7629
72.7393
72.7179
72.6987
72.6816
72.6666
72.6536
72.6425
72.6331
72.6256
72.6204
72.6179
72.6188
72.623
72.6306
72.642
72.6565
72.6766
72.7018
72.7286
72.7511
72.7683
72.7809
72.7888
72.7956
72.8029
72.8132
72.8339
72.8523
72.7505
71.4702
70.5035
69.1972
66.8615
63.0001
56.9856
48.1055
36.6097
23.6567
12.7414
6.27741
74.2585
74.2275
74.1961
74.1648
74.138
74.1134
74.0908
74.0703
74.0519
74.0356
74.0214
74.0093
73.9992
73.991
73.9847
73.9802
73.9773
73.9761
73.9763
73.9781
73.9813
73.9859
73.992
73.9996
74.0117
74.0195
74.0319
74.0457
74.0608
74.0773
74.0957
74.1159
74.1383
74.1635
74.192
74.2244
74.2593
74.2914
74.319
74.3417
74.3592
74.3764
74.4005
74.4309
74.3888
72.6358
70.603
66.0457
56.0108
39.0698
75.1298
75.1032
75.0762
75.0489
75.0256
75.0039
74.9838
74.9652
74.9482
74.9328
74.9189
74.9065
74.8957
74.8865
74.8788
74.8726
74.868
74.865
74.8635
74.8637
74.8653
74.8686
74.8733
74.8797
74.8872
74.8988
74.9037
74.9168
74.9315
74.9477
74.9655
74.985
75.0062
75.0291
75.0539
75.0806
75.1092
75.14
75.173
75.209
75.2486
75.2925
75.3396
75.3844
75.4292
75.4745
75.5209
75.5344
74.4409
70.6846
75.8539
75.8344
75.815
75.7962
75.7805
75.766
75.753
75.7414
75.7311
75.7221
75.7145
75.7083
75.7033
75.6998
75.6975
75.6966
75.6971
75.6989
75.7021
75.7067
75.7126
75.7199
75.7285
75.7385
75.7497
75.7665
75.7795
75.7964
75.8143
75.8337
75.8547
75.8772
75.9015
75.9275
75.9552
75.9847
76.016
76.0493
76.0844
76.1215
76.1606
76.2019
76.2459
76.2932
76.3423
76.3843
76.4099
76.3848
75.7047
72.1829
76.0283
76.0218
76.0144
76.0073
76.0011
75.995
75.9897
75.9847
75.9801
75.9759
75.9722
75.969
75.9662
75.9639
75.962
75.9606
75.9597
75.9592
75.9593
75.9598
75.9608
75.9622
75.9641
75.9664
75.969
75.972
75.9778
75.9784
75.9835
75.9887
75.9943
76.0003
76.0066
76.0132
76.0201
76.0272
76.0346
76.0422
76.05
76.0575
76.0662
76.0765
76.0856
76.083
76.0556
75.9259
75.5377
71.1495
62.5516
50.0751
76.5687
76.5691
76.5696
76.5706
76.5717
76.5725
76.5739
76.5753
76.5768
76.5785
76.5804
76.5824
76.5847
76.5871
76.5898
76.5926
76.5957
76.599
76.6026
76.6064
76.6104
76.6147
76.6192
76.6239
76.6288
76.6338
76.641
76.6461
76.652
76.6583
76.6647
76.6714
76.6782
76.6852
76.6923
76.6995
76.7066
76.7141
76.7229
76.7335
76.7456
76.7457
76.6675
76.383
75.2472
68.545
58.2182
44.3399
29.9154
17.8212
76.6812
76.686
76.6899
76.6938
76.6975
76.7005
76.7035
76.7062
76.7088
76.7111
76.7133
76.7153
76.7171
76.7188
76.7203
76.7217
76.723
76.7242
76.7253
76.7265
76.7276
76.7287
76.73
76.7313
76.7327
76.7343
76.7362
76.739
76.7413
76.7444
76.748
76.7523
76.7572
76.7629
76.7693
76.7774
76.7887
76.8043
76.815
76.7917
76.5732
75.9612
72.525
61.5212
47.3064
30.8818
18.2836
10.5889
6.44551
4.23831
77.2753
77.2844
77.2935
77.303
77.3112
77.3191
77.3265
77.3335
77.34
77.346
77.3516
77.3568
77.3615
77.3658
77.3697
77.3733
77.3764
77.3792
77.3816
77.3838
77.3856
77.3872
77.3884
77.3895
77.3903
77.391
77.3914
77.3918
77.3921
77.3924
77.3926
77.3927
77.3927
77.3947
77.4017
77.414
77.4058
77.3192
76.8325
75.8597
69.6315
51.7551
32.4639
18.1152
8.69456
3.97075
3.06654
2.82351
2.63969
2.56095
77.4028
77.4243
77.4444
77.4628
77.4773
77.4902
77.501
77.5098
77.5164
77.5209
77.5233
77.5236
77.5218
77.5178
77.5117
77.5034
77.4928
77.48
77.4648
77.4473
77.4274
77.4049
77.3799
77.3521
77.3216
77.2882
77.2519
77.2123
77.1694
77.1228
77.0734
77.0219
76.9694
76.912
76.8502
76.5958
75.7332
74.2877
60.1851
39.2005
24.511
5.28404
2.69008
2.62145
2.58814
2.52604
2.49949
2.49356
2.49112
2.4902
78.3219
78.3387
78.3549
78.37
78.3819
78.3928
78.4022
78.4099
78.416
78.4205
78.4233
78.4246
78.4242
78.4222
78.4185
78.4132
78.4062
78.3975
78.387
78.3748
78.3609
78.345
78.3274
78.3079
78.2864
78.263
78.2376
78.2102
78.1812
78.1506
78.1179
78.0918
77.9932
77.452
75.9504
66.5943
47.3023
28.6214
2.94389
2.34679
2.65346
2.4881
2.4769
2.4712
2.47165
2.47326
2.47336
2.47305
2.47313
2.47338
79.5562
79.5667
79.578
79.5892
79.5988
79.6084
79.6173
79.6257
79.6337
79.6412
79.6482
79.6548
79.6609
79.6668
79.6723
79.6776
79.6824
79.6872
79.6917
79.6962
79.7005
79.7049
79.7089
79.7132
79.717
79.723
79.7348
79.7594
79.7868
79.8113
79.5082
78.2615
71.417
54.3102
32.3866
2.49226
2.4314
2.78359
2.46089
2.45217
2.44899
2.44959
2.44942
2.44999
2.45044
2.45452
2.45336
2.45353
2.45392
2.45445
80.394
80.4073
80.4202
80.4311
80.4403
80.4484
80.4548
80.4603
80.4647
80.468
80.4702
80.4713
80.4713
80.4703
80.4683
80.4651
80.4609
80.4556
80.4492
80.4414
80.4326
80.4226
80.4131
80.4026
80.386
80.3599
80.3836
80.4226
79.1308
77.2017
59.1965
38.4753
2.64946
2.39613
2.82099
2.4434
2.43823
2.43674
2.43176
2.43143
2.43157
2.43189
2.43222
2.43256
2.43331
2.43673
2.43643
2.43591
2.43571
2.43582
2.23586
2.23797
2.23251
2.2289
2.22745
2.22828
2.22715
2.23096
2.22607
2.21997
2.21435
2.20888
2.20317
2.19715
2.1906
2.1836
2.17633
2.16896
2.16156
2.15418
2.14686
2.13963
2.13252
2.12553
2.11867
2.11194
2.10534
2.09887
2.09251
2.08627
2.08013
2.0741
2.06817
2.06233
2.05657
2.0509
2.04531
2.03978
2.03432
2.02893
2.02358
2.01829
2.01304
2.00783
2.00264
1.99748
1.99234
1.9872
1.98205
1.97687
2.35425
2.3549
2.3543
2.35207
2.34995
2.34756
2.34248
2.33425
2.32535
2.32105
2.31144
2.30599
2.31211
2.29136
2.27889
2.26781
2.25858
2.24959
2.24039
2.23098
2.22163
2.21253
2.20367
2.19507
2.18677
2.17876
2.17106
2.16364
2.15651
2.14965
2.14305
2.1367
2.13058
2.12468
2.11899
2.1135
2.10819
2.10305
2.09808
2.09326
2.08857
2.08402
2.07958
2.07525
2.07102
2.06688
2.06282
2.05882
2.05487
2.05095
2.30196
2.30076
2.29923
2.30248
2.2922
2.2885
2.2809
2.27527
2.26922
2.26308
2.25876
2.25892
2.25063
2.23902
2.24418
2.23479
2.26633
2.24208
2.23115
2.22318
2.21634
2.2099
2.20376
2.19798
2.19257
2.18758
2.18282
2.17831
2.17414
2.17023
2.16656
2.16312
2.15989
2.15688
2.15406
2.15143
2.14899
2.14672
2.14463
2.14271
2.14095
2.13936
2.13793
2.13665
2.13554
2.13458
2.13378
2.13314
2.13266
2.13234
2.04742
2.04585
2.04502
2.04466
2.0449
2.04607
2.04808
2.0502
2.05228
2.05553
2.0572
2.0571
2.05774
2.05899
2.06156
2.06265
2.07095
2.09101
2.0846
2.08242
2.08283
2.08576
2.08961
2.09372
2.09812
2.10325
2.10725
2.11177
2.11624
2.12056
2.12471
2.12866
2.13242
2.136
2.1394
2.14263
2.14572
2.14868
2.15152
2.15425
2.15689
2.15944
2.16192
2.16434
2.16672
2.16905
2.17134
2.17359
2.17623
2.17839
1.88232
1.87932
1.87795
1.87794
1.87947
1.88218
1.8848
1.88705
1.88924
1.8923
1.89678
1.90249
1.90846
1.91479
1.92308
1.93613
1.95748
1.96347
1.96548
1.96887
1.97642
1.9866
1.99532
2.00689
2.0183
2.02977
2.04144
2.05303
2.06434
2.07524
2.08566
2.09558
2.10499
2.1139
2.12233
2.13032
2.13789
2.14508
2.1519
2.1584
2.16462
2.17065
2.17648
2.18265
2.1878
2.19337
2.19787
2.20267
2.2087
2.21308
1.99057
1.98796
1.98534
1.9829
1.9796
1.97539
1.97273
1.97208
1.97176
1.97317
1.9764
1.97843
1.98111
1.98461
1.9901
2.00804
1.99909
2.00097
2.00389
2.00911
2.01635
2.02419
2.03273
2.04174
2.05118
2.06084
2.07059
2.08019
2.08948
2.09834
2.10675
2.11466
2.12209
2.12906
2.13559
2.14173
2.14751
2.15301
2.15826
2.16339
2.16867
2.17705
2.18775
2.18226
2.18756
2.19328
2.19766
2.2021
2.2058
2.25125
2.24978
2.24779
2.24748
2.24665
2.2432
2.24006
2.23915
2.23704
2.23599
2.23636
2.23481
2.23095
2.22748
2.22636
2.2228
2.21977
2.2128
2.21062
2.20914
2.20817
2.20751
2.20702
2.20657
2.20619
2.20588
2.20559
2.20522
2.2047
2.20399
2.20309
2.20198
2.20065
2.19911
2.19735
2.19538
2.1932
2.19082
2.18828
2.18543
2.1823
2.18085
2.20098
2.23613
2.13598
2.13308
2.12866
2.12298
2.11672
2.10879
2.10467
2.48945
2.49581
2.49871
2.50057
2.50302
2.50607
2.50395
2.50631
2.50365
2.50214
2.5082
2.50456
2.49724
2.49243
2.48667
2.48079
2.47059
2.46302
2.45499
2.44635
2.43708
2.42729
2.41705
2.40651
2.3957
2.38469
2.37353
2.36227
2.35093
2.33955
2.32813
2.31667
2.30515
2.29356
2.28187
2.27003
2.25797
2.24561
2.23284
2.21992
2.20935
2.20504
2.26194
2.22897
2.20466
2.18899
2.17365
2.16043
2.14543
2.12239
3.54086
2.83356
2.7029
2.66515
2.652
2.64874
2.64765
2.64759
2.64783
2.64797
2.64537
2.64522
2.64289
2.63603
2.63154
2.6261
2.61957
2.61184
2.60292
2.59289
2.58185
2.56992
2.5572
2.54379
2.52981
2.51539
2.50063
2.48562
2.47043
2.45509
2.43965
2.42413
2.40853
2.39286
2.37709
2.36121
2.34513
2.32876
2.31195
2.29459
2.27743
2.26299
2.25163
2.24244
2.22378
2.2049
2.1834
2.17857
2.25338
2.23906
20.682
8.69885
4.24097
3.08183
2.80741
2.72733
2.69202
2.67757
2.67219
2.67108
2.6719
2.67301
2.67188
2.67839
2.67405
2.67092
2.66744
2.66341
2.65839
2.65225
2.64501
2.6367
2.62737
2.61711
2.60602
2.59418
2.58169
2.56865
2.55513
2.54119
2.52691
2.51231
2.49746
2.48237
2.46706
2.45154
2.4358
2.41981
2.40351
2.38678
2.36954
2.35192
2.33446
2.31771
2.30143
2.28539
2.26998
2.25713
2.24693
2.24051
59.7004
34.9079
13.3976
5.19844
3.24202
2.82812
2.73014
2.70538
2.69531
2.69116
2.68955
2.68947
2.69048
2.69162
2.69225
2.69241
2.69249
2.69226
2.69141
2.68971
2.68711
2.6835
2.67886
2.67319
2.66652
2.65886
2.65028
2.64081
2.63055
2.61955
2.60788
2.59564
2.58287
2.56966
2.55606
2.54212
2.5279
2.51344
2.49877
2.48392
2.4689
2.45372
2.43841
2.42307
2.40784
2.39284
2.37833
2.36449
2.35116
2.33896
65.32
51.6572
25.666
8.07034
3.79516
2.96538
2.78781
2.74978
2.74185
2.74006
2.73957
2.73982
2.74033
2.74124
2.74255
2.74424
2.74619
2.74811
2.74975
2.75089
2.75132
2.75096
2.74957
2.7471
2.74351
2.73876
2.73285
2.72579
2.7176
2.70835
2.69809
2.68691
2.67489
2.66213
2.6487
2.6347
2.6202
2.60529
2.59003
2.57449
2.55872
2.54277
2.52668
2.51046
2.49417
2.47782
2.46144
2.44506
2.42872
2.41244
35.5314
22.5495
12.1856
5.44309
3.28876
2.86397
2.7866
2.77507
2.77423
2.77616
2.77621
2.77746
2.77948
2.78104
2.78314
2.78552
2.78815
2.79086
2.79349
2.79586
2.79779
2.79916
2.79979
2.79959
2.79847
2.79629
2.79296
2.78833
2.78232
2.77483
2.76605
2.75613
2.74514
2.73317
2.72036
2.70683
2.69274
2.6782
2.66336
2.64834
2.63324
2.61819
2.60326
2.58855
2.57412
2.56006
2.54641
2.53324
2.5206
2.50852
9.88329
5.7549
3.8935
3.06739
2.78361
2.72597
2.71767
2.7171
2.7183
2.71987
2.72171
2.72382
2.7263
2.72975
2.73395
2.73713
2.73798
2.73976
2.74201
2.74428
2.74603
2.74719
2.74776
2.74814
2.74844
2.7466
2.74321
2.73792
2.73066
2.72286
2.71486
2.70609
2.69628
2.68557
2.6741
2.66201
2.64944
2.63656
2.62351
2.61035
2.59712
2.58394
2.57094
2.55824
2.54587
2.53389
2.5223
2.51113
2.50036
2.48996
3.14965
2.72305
2.63267
2.60657
2.59897
2.59778
2.59856
2.5999
2.60115
2.60232
2.60274
2.60333
2.60375
2.6042
2.60544
2.60662
2.60598
2.60455
2.60409
2.59917
2.59813
2.5962
2.59359
2.58963
2.58477
2.58036
2.57429
2.57629
2.5639
2.55572
2.54768
2.53941
2.53071
2.52154
2.51192
2.50201
2.49221
2.48312
2.47486
2.46522
2.45556
2.44675
2.43913
2.43241
2.42648
2.42137
2.41707
2.41358
2.41087
2.40887
2.53824
2.52697
2.52352
2.52305
2.52338
2.52386
2.52405
2.52411
2.52534
2.52453
2.52249
2.52095
2.5192
2.51709
2.51512
2.51317
2.51
2.50634
2.50214
2.49657
2.49133
2.48591
2.48009
2.47379
2.467
2.46011
2.45312
2.44723
2.43943
2.42982
2.4177
2.40872
2.39935
2.3891
2.37702
2.366
2.35648
2.3476
2.3391
2.33118
2.32414
2.31825
2.31355
2.31001
2.30762
2.30635
2.30629
2.30765
2.3104
2.31379
2.49033
2.49066
2.49089
2.49101
2.49096
2.49086
2.49069
2.4904
2.48997
2.48918
2.48822
2.4869
2.48678
2.4841
2.48254
2.48099
2.4828
2.47807
2.47497
2.472
2.46894
2.46613
2.46247
2.45864
2.45516
2.45157
2.44709
2.43956
2.434
2.42825
2.42255
2.41645
2.41165
2.40694
2.4005
2.39052
2.38253
2.37556
2.36974
2.36495
2.36088
2.35756
2.35524
2.35414
2.3537
2.35394
2.35539
2.35815
2.36059
2.3605
2.4737
2.474
2.4743
2.47461
2.47495
2.47575
2.47769
2.47731
2.47723
2.47756
2.47793
2.47828
2.47889
2.48
2.48065
2.48017
2.48012
2.48047
2.481
2.48156
2.48227
2.48333
2.48403
2.48468
2.48533
2.48606
2.48611
2.48705
2.48859
2.49092
2.49177
2.49205
2.49243
2.49419
2.49486
2.49976
2.49861
2.4991
2.49973
2.50026
2.50085
2.50138
2.50213
2.50396
2.50417
2.50517
2.50602
2.50685
2.50717
2.50734
2.455
2.45558
2.45619
2.45684
2.45762
2.45875
2.46173
2.46248
2.46266
2.46446
2.46583
2.46561
2.46735
2.46882
2.47167
2.47344
2.4722
2.47394
2.47598
2.47832
2.47971
2.48214
2.48467
2.48735
2.49019
2.49429
2.51304
2.51187
2.51085
2.51406
2.51862
2.52288
2.52812
2.53337
2.53825
2.54316
2.54811
2.55297
2.55704
2.56177
2.56709
2.57231
2.57696
2.58088
2.58468
2.58779
2.58926
2.58993
2.5901
2.58954
2.43596
2.4361
2.43625
2.43653
2.43717
2.43736
2.43673
2.43727
2.43725
2.43757
2.43828
2.43943
2.43973
2.43985
2.44005
2.44053
2.44078
2.4415
2.4423
2.44309
2.44392
2.44471
2.44576
2.44681
2.44773
2.44949
2.45413
2.45986
2.46171
2.46298
2.46119
2.45859
2.45945
2.46121
2.463
2.4648
2.46677
2.4701
2.47324
2.47531
2.47708
2.47775
2.47709
2.47719
2.47773
2.47776
2.47784
2.47828
2.47614
2.47231
1.97293
1.97021
1.96747
1.96468
1.96183
1.95894
1.95601
1.95299
1.94992
1.9468
1.94361
1.94034
1.93704
1.93429
1.93076
1.92714
1.92358
1.92001
1.91659
1.91312
1.90955
1.90639
1.91288
1.90926
1.91965
1.90379
1.90141
1.90238
1.90403
1.91594
1.91423
1.90915
1.89759
1.8796
1.886
1.88231
1.87813
1.89023
1.99041
1.98525
1.9157
1.89827
1.88701
1.88565
1.87949
1.87835
1.88531
2.14658
1.89236
1.87604
1.87987
1.87636
1.87233
1.87271
1.87815
1.90088
2.02571
1.78827
1.77004
1.76888
1.76798
1.75914
1.76465
1.78815
1.81862
1.76019
1.74198
1.73554
1.74328
1.7357
1.7462
1.77173
1.78186
1.72891
1.71368
1.71067
1.71339
1.70369
1.71891
1.75482
1.75649
1.74673
1.73751
1.7367
1.73675
1.73036
1.73748
1.75894
1.75472
1.7469
1.77163
1.76481
1.79674
1.76899
1.77842
1.77195
1.77474
1.81084
1.79093
1.78205
1.77777
1.7768
1.7736
1.77207
1.78091
1.79108
1.78326
1.77051
1.76515
1.7698
1.76004
1.76945
1.7691
1.76825
1.76818
1.76883
1.7695
1.77025
1.77076
1.77122
1.77411
1.77495
1.76201
1.7619
1.76248
1.76285
1.76312
1.76335
1.7635
1.76363
1.76373
1.76382
1.76391
1.76402
1.76414
1.76429
1.76449
1.76472
1.76501
1.76535
1.76574
1.76619
1.7667
1.76727
1.76788
1.76854
1.76924
1.76998
1.77073
1.77149
1.77226
1.77302
1.77377
1.77448
1.77516
1.77579
1.77636
1.77688
1.77733
1.7777
1.778
1.77821
1.77834
1.77838
1.77833
1.77819
1.77796
1.77764
1.77723
1.77673
1.77614
1.77547
1.77471
1.77387
1.77295
1.77195
1.77087
1.76972
1.7685
1.76721
1.76585
1.76442
1.76293
1.76137
1.75975
1.75807
1.75633
1.75454
1.75268
1.75077
1.7488
1.74677
1.74469
1.74256
1.74037
1.73813
1.73584
1.7335
1.73111
1.72866
1.72617
1.72363
1.72104
1.71841
1.71572
1.71299
1.71021
1.70739
1.70451
1.70159
1.69862
1.69561
1.69254
1.68943
1.68627
1.68306
1.6798
1.67649
1.67312
1.66971
1.66624
1.66272
1.65915
1.65552
1.65183
1.64809
1.64429
1.64044
1.63652
1.63255
1.62851
1.62442
1.62026
1.61605
1.61177
1.60743
1.60303
1.59857
1.59404
1.58946
1.58481
1.5801
1.57533
1.5705
1.56561
1.56066
1.55565
1.55057
1.54544
1.54026
1.53501
1.52971
1.52436
1.51895
1.51348
1.50797
1.5024
1.49678
1.49112
1.48541
1.47965
1.47384
1.46799
1.46209
1.45616
1.45018
1.44416
1.4381
1.432
1.42586
1.41969
1.41347
1.40722
1.40094
1.39462
1.38826
1.38186
1.37543
1.36897
1.36247
1.35594
1.34938
1.34278
1.33615
1.32949
1.32279
1.31606
1.30929
1.30248
1.29564
1.28877
1.28186
1.2749
1.26787
1.26079
1.25376
1.24685
1.23965
1.23145
1.22278
2.048
2.04598
2.04397
2.04194
2.0399
2.03784
2.03577
2.03367
2.03155
2.0294
2.02721
2.025
2.02295
2.04516
2.03058
2.02715
2.02471
2.02278
2.02037
2.01826
2.01629
2.01466
2.04075
2.02745
2.02435
2.02322
2.02175
2.01842
2.01737
2.02063
2.02316
2.02575
2.13614
2.09722
2.08633
2.07954
2.0902
2.068
2.0792
2.10135
2.1016
2.09367
2.07308
2.06111
2.06577
2.06763
2.08105
2.1097
2.11267
1.97476
1.95614
1.95193
1.95373
1.95466
1.95791
1.98113
2.00862
2.01388
1.86398
1.8415
1.83606
1.83528
1.81825
1.84082
1.88429
1.8822
1.85483
1.83316
1.82472
1.82249
1.81424
1.82822
1.91871
1.90199
1.87983
1.86839
1.86584
1.86274
1.86828
1.93022
1.87846
1.8665
1.86197
1.85977
1.85306
1.85403
1.87979
1.86035
1.85534
1.85736
1.8349
1.8962
1.86127
1.85859
1.86646
1.85311
1.85885
1.87164
1.82739
1.83416
1.8359
1.80089
1.80691
1.80868
1.79786
1.79598
1.79786
1.80046
1.79903
1.80303
1.80545
1.80627
1.80823
1.81056
1.81365
1.81571
1.81755
1.82126
1.82519
1.82694
1.82232
1.82324
1.82399
1.82498
1.82597
1.82675
1.82736
1.82781
1.82813
1.82834
1.82848
1.82856
1.82861
1.82863
1.82865
1.82868
1.82872
1.82879
1.82888
1.82902
1.82919
1.8294
1.82966
1.82995
1.83028
1.83063
1.83102
1.83141
1.83182
1.83223
1.83262
1.833
1.83336
1.83368
1.83395
1.83418
1.83435
1.83446
1.8345
1.83447
1.83437
1.83419
1.83393
1.83359
1.83317
1.83266
1.83208
1.83141
1.83066
1.82983
1.82892
1.82793
1.82687
1.82573
1.82453
1.82325
1.8219
1.82049
1.81901
1.81747
1.81587
1.81421
1.81248
1.8107
1.80886
1.80697
1.80502
1.80301
1.80096
1.79884
1.79668
1.79447
1.7922
1.78988
1.78752
1.7851
1.78264
1.78013
1.77757
1.77496
1.77231
1.76961
1.76687
1.76408
1.76124
1.75836
1.75543
1.75246
1.74944
1.74638
1.74327
1.74011
1.7369
1.73365
1.73035
1.727
1.72359
1.72014
1.71663
1.71307
1.70945
1.70578
1.70206
1.69827
1.69443
1.69052
1.68656
1.68254
1.67845
1.6743
1.67009
1.66581
1.66147
1.65707
1.6526
1.64806
1.64346
1.6388
1.63407
1.62927
1.62441
1.61949
1.6145
1.60944
1.60432
1.59914
1.5939
1.58859
1.58322
1.5778
1.57231
1.56677
1.56117
1.55552
1.54981
1.54405
1.53824
1.53238
1.52648
1.52052
1.51452
1.50848
1.50239
1.49626
1.49009
1.48388
1.47764
1.47136
1.46504
1.45868
1.45229
1.44587
1.43942
1.43293
1.42641
1.41986
1.41329
1.40668
1.40004
1.39338
1.38669
1.37997
1.37322
1.36645
1.35965
1.35282
1.34597
1.33909
1.33217
1.32523
1.31826
1.31127
1.30424
1.29713
1.28998
1.28291
1.27597
1.26874
1.26044
1.25159
2.13222
2.13303
2.13267
2.13266
2.13285
2.133
2.13321
2.13348
2.13382
2.13419
2.13462
2.13502
2.13659
2.13873
2.13944
2.11648
2.11603
2.11674
2.11741
2.11806
2.11871
2.11934
2.12056
2.13421
2.12577
2.12566
2.12672
2.12626
2.12734
2.15473
2.13082
2.14064
2.1236
2.25524
2.18869
2.18365
2.19226
2.19282
2.19634
2.21872
2.28705
2.1366
2.11988
2.12224
2.1221
2.10531
2.12941
2.21953
2.18438
2.15722
2.14366
2.14633
2.14566
2.14181
2.15839
2.18178
2.18257
1.98694
1.97052
1.96545
1.96321
1.94319
1.96058
2.01493
2.00449
1.98275
1.97139
1.9686
1.96672
1.95342
1.95611
2.05612
1.97533
1.96785
1.97892
1.97712
1.97158
1.97384
2.00142
1.92943
1.9551
1.93939
1.94187
1.93791
1.91632
1.92069
1.88447
1.88435
1.88332
1.88072
1.87896
1.87874
1.87541
1.87241
1.87012
1.86556
1.86305
1.88234
1.87419
1.87083
1.88098
1.8791
1.87549
1.87332
1.87136
1.88288
1.87273
1.87518
1.87505
1.87437
1.874
1.87436
1.87631
1.87423
1.87638
1.87917
1.88107
1.88215
1.88246
1.88241
1.88239
1.88268
1.88329
1.88386
1.88428
1.88455
1.88471
1.88476
1.88474
1.88466
1.88455
1.88442
1.88427
1.88413
1.884
1.88388
1.88379
1.88373
1.8837
1.88371
1.88374
1.88381
1.8839
1.88402
1.88415
1.8843
1.88445
1.88461
1.88475
1.88489
1.88499
1.88507
1.88512
1.88512
1.88508
1.88499
1.88484
1.88463
1.88436
1.88402
1.88361
1.88313
1.88259
1.88197
1.88128
1.88051
1.87968
1.87877
1.8778
1.87675
1.87564
1.87446
1.87321
1.8719
1.87053
1.86909
1.86759
1.86604
1.86443
1.86276
1.86104
1.85926
1.85743
1.85554
1.8536
1.85162
1.84958
1.84749
1.84535
1.84316
1.84093
1.83864
1.83631
1.83393
1.83151
1.82903
1.82651
1.82395
1.82134
1.81868
1.81598
1.81323
1.81044
1.8076
1.80472
1.80179
1.79881
1.79579
1.79272
1.7896
1.78644
1.78322
1.77996
1.77664
1.77327
1.76984
1.76636
1.76283
1.75924
1.75559
1.75188
1.74811
1.74427
1.74038
1.73642
1.73239
1.7283
1.72413
1.71991
1.71561
1.71124
1.70681
1.7023
1.69772
1.69307
1.68835
1.68356
1.6787
1.67377
1.66876
1.66369
1.65854
1.65333
1.64805
1.6427
1.63728
1.63179
1.62625
1.62064
1.61496
1.60923
1.60344
1.59759
1.59168
1.58572
1.57971
1.57365
1.56754
1.56139
1.55518
1.54894
1.54265
1.53633
1.52996
1.52356
1.51712
1.51065
1.50415
1.49762
1.49105
1.48446
1.47784
1.4712
1.46452
1.45783
1.45111
1.44436
1.4376
1.43081
1.42401
1.41718
1.41034
1.40348
1.3966
1.3897
1.38279
1.37585
1.3689
1.36192
1.35493
1.34792
1.34089
1.33384
1.32672
1.31956
1.31249
1.30558
1.29839
1.29009
1.28116
2.17997
2.18224
2.18235
2.18338
2.18342
2.2005
2.19294
2.19336
2.19577
2.19477
2.19574
2.19723
2.21494
2.19395
2.19387
2.19871
2.19585
2.20019
2.19939
2.19969
2.20346
2.19863
2.20852
2.20842
2.20889
2.21231
2.20611
2.20745
2.20763
2.19438
2.20103
2.19957
2.19959
2.25148
2.21806
2.21816
2.21679
2.20218
2.20523
2.38259
2.24177
2.22884
2.23866
2.22759
2.23032
2.23741
2.29584
2.14869
2.13447
2.16349
2.16006
2.16066
2.15458
2.14741
2.14356
2.34677
2.19423
2.17691
2.17107
2.16233
2.12157
2.13379
2.12937
2.05927
2.05257
2.04804
2.04475
2.04038
2.03429
2.02966
2.106
2.08143
2.06285
2.08909
2.06975
2.06628
2.06069
2.04067
2.03598
2.03698
2.01954
2.03549
2.01263
2.01778
2.00712
2.00194
1.99751
1.99587
1.99383
1.96872
1.96228
1.95907
1.95518
1.95126
1.94856
1.9462
1.94416
1.94647
1.94481
1.93793
1.9405
1.94816
1.93029
1.92953
1.92935
1.93446
1.92794
1.93033
1.93559
1.92893
1.93346
1.92917
1.93085
1.93181
1.93529
1.93385
1.9335
1.93315
1.93291
1.93299
1.93324
1.93346
1.93358
1.9336
1.93352
1.93337
1.93316
1.93292
1.93265
1.93236
1.93206
1.93177
1.93149
1.93123
1.93099
1.93076
1.93056
1.93039
1.93024
1.93011
1.93
1.92991
1.92983
1.92976
1.9297
1.92963
1.92956
1.92947
1.92937
1.92925
1.9291
1.92892
1.92871
1.92846
1.92817
1.92783
1.92745
1.92701
1.92653
1.92598
1.92539
1.92473
1.92402
1.92324
1.92241
1.92152
1.92057
1.91956
1.9185
1.91737
1.91619
1.91495
1.91365
1.9123
1.91089
1.90944
1.90792
1.90636
1.90475
1.90308
1.90137
1.8996
1.89779
1.89593
1.89402
1.89206
1.89006
1.88801
1.88591
1.88377
1.88158
1.87935
1.87706
1.87474
1.87236
1.86994
1.86748
1.86496
1.86241
1.8598
1.85715
1.85445
1.85171
1.84892
1.84607
1.84318
1.84024
1.83725
1.83421
1.83112
1.82797
1.82477
1.82151
1.81819
1.81481
1.81137
1.80787
1.80431
1.80068
1.79699
1.79322
1.78939
1.78549
1.78151
1.77746
1.77334
1.76914
1.76486
1.76051
1.75608
1.75157
1.74699
1.74232
1.73758
1.73275
1.72785
1.72287
1.71781
1.71267
1.70745
1.70216
1.69679
1.69134
1.68582
1.68023
1.67457
1.66883
1.66303
1.65717
1.65124
1.64524
1.63919
1.63308
1.62691
1.62069
1.61442
1.6081
1.60174
1.59533
1.58888
1.58238
1.57585
1.56929
1.56269
1.55606
1.5494
1.54272
1.53601
1.52927
1.52251
1.51573
1.50893
1.50212
1.49528
1.48843
1.48157
1.4747
1.46781
1.46091
1.454
1.44709
1.44017
1.43324
1.4263
1.41935
1.4124
1.40544
1.39847
1.39149
1.3845
1.37751
1.37051
1.36349
1.35642
1.34932
1.34233
1.3355
1.3284
1.32021
1.31143
2.21528
2.24514
2.23386
2.2344
2.23607
2.23762
2.23875
2.24554
2.24285
2.24411
2.24521
2.24591
2.26085
2.2862
2.24191
2.24436
2.24622
2.24773
2.24917
2.25363
2.25459
2.25626
2.25792
2.25936
2.26098
2.27703
2.25272
2.25412
2.25544
2.25681
2.25801
2.25885
2.25993
2.26085
2.26147
2.26136
2.26183
2.26062
2.25192
2.25
2.26579
2.25916
2.2585
2.26093
2.3055
2.21071
2.20824
2.22069
2.20907
2.20964
2.20992
2.20525
2.15872
2.15353
2.15633
2.15565
2.12187
2.11686
2.11871
2.10391
2.11932
2.09631
2.09826
2.09391
2.08285
2.07831
2.11678
2.10735
2.09342
2.08635
2.08178
2.07635
2.08016
2.06854
2.0771
2.05274
2.04934
2.04846
2.04426
2.0405
2.0377
2.03491
2.03249
2.03346
2.03711
2.03606
2.03205
2.02462
2.01158
2.00735
2.00508
2.00352
2.00213
2.00141
2.00061
1.9989
1.99934
2.00237
2.03258
1.97521
1.97471
1.97482
1.97477
1.97544
1.9765
1.97633
1.97777
1.98132
1.98674
1.97557
1.97735
1.97416
1.97637
1.97348
1.97375
1.97395
1.97408
1.97423
1.97418
1.97419
1.97415
1.97402
1.97382
1.97356
1.97324
1.97289
1.97252
1.97212
1.97172
1.97131
1.9709
1.9705
1.97011
1.96974
1.96938
1.96903
1.96871
1.96839
1.9681
1.96782
1.96755
1.96729
1.96704
1.9668
1.96655
1.96631
1.96606
1.96581
1.96554
1.96527
1.96497
1.96465
1.96431
1.96394
1.96354
1.96311
1.96264
1.96214
1.96159
1.961
1.96037
1.9597
1.95897
1.9582
1.95738
1.95652
1.9556
1.95463
1.95362
1.95255
1.95143
1.95027
1.94905
1.94779
1.94648
1.94512
1.94371
1.94226
1.94076
1.93921
1.93761
1.93597
1.93429
1.93255
1.93078
1.92895
1.92708
1.92517
1.92321
1.9212
1.91915
1.91705
1.91491
1.91272
1.91048
1.90819
1.90586
1.90348
1.90105
1.89857
1.89604
1.89346
1.89083
1.88815
1.88541
1.88262
1.87977
1.87687
1.8739
1.87088
1.8678
1.86465
1.86144
1.85816
1.85481
1.85139
1.8479
1.84433
1.84069
1.83698
1.83318
1.8293
1.82534
1.8213
1.81717
1.81296
1.80866
1.80427
1.79979
1.79523
1.79057
1.78583
1.78099
1.77607
1.77106
1.76596
1.76077
1.7555
1.75013
1.74469
1.73915
1.73354
1.72784
1.72207
1.71622
1.71029
1.70429
1.69822
1.69208
1.68588
1.67961
1.67328
1.6669
1.66046
1.65397
1.64743
1.64084
1.63422
1.62755
1.62084
1.61411
1.60734
1.60054
1.59372
1.58687
1.58
1.57311
1.56621
1.55929
1.55237
1.54543
1.53848
1.53153
1.52457
1.51761
1.51064
1.50368
1.49672
1.48976
1.48281
1.47586
1.46891
1.46197
1.45504
1.44811
1.44119
1.43427
1.42736
1.42045
1.41354
1.40663
1.39974
1.39283
1.38589
1.37893
1.37207
1.36537
1.35841
1.35046
1.34212
2.26147
2.25943
2.26249
2.26528
2.26785
2.27046
2.27333
2.2765
2.27833
2.28116
2.28547
2.29453
2.42099
2.12166
2.12422
2.1283
2.13087
2.1334
2.13512
2.13675
2.13966
2.1411
2.1423
2.1439
2.16489
2.16518
2.16443
2.16449
2.16514
2.16537
2.16562
2.16598
2.16598
2.16688
2.16955
2.21757
2.10739
2.10805
2.11275
2.11276
2.1108
2.11123
2.13622
2.08101
2.08032
2.0833
2.08206
2.07577
2.07526
2.11389
2.1409
2.09604
2.09341
2.09165
2.08954
2.0871
2.08496
2.0869
2.07442
2.07268
2.07124
2.06991
2.06844
2.07068
2.07564
2.07386
2.04803
2.03864
2.03659
2.03582
2.03534
2.03448
2.03317
2.0349
2.03024
2.02922
2.02825
2.02728
2.02635
2.02568
2.02469
2.02372
2.0247
2.03289
2.0422
2.04275
2.04182
2.03622
2.02072
2.01624
2.01541
2.01503
2.01468
2.01432
2.01396
2.01424
2.01852
2.02624
2.02745
2.01207
2.00491
2.00457
2.00481
2.00479
2.00491
2.00503
2.0052
2.00799
2.00578
2.0055
2.00565
2.00546
2.00541
2.0054
2.00518
2.00614
2.00608
2.00522
2.00483
2.00448
2.00411
2.00372
2.0033
2.00286
2.00241
2.00196
2.00151
2.00106
2.00062
2.0002
1.99978
1.99939
1.99901
1.99864
1.9983
1.99797
1.99766
1.99737
1.9971
1.99684
1.9966
1.99637
1.99615
1.99594
1.99574
1.99553
1.99533
1.99512
1.99491
1.99469
1.99445
1.9942
1.99393
1.99364
1.99332
1.99297
1.9926
1.99219
1.99175
1.99127
1.99075
1.99019
1.98959
1.98895
1.98826
1.98753
1.98675
1.98593
1.98507
1.98415
1.98319
1.98219
1.98114
1.98004
1.9789
1.97771
1.97648
1.9752
1.97387
1.9725
1.97109
1.96963
1.96813
1.96658
1.96499
1.96335
1.96167
1.95994
1.95816
1.95634
1.95447
1.95255
1.95058
1.94857