/*--------------------------------*- C++ -*----------------------------------*\
| =========                 |                                                 |
| \\      /  F ield         | OpenFOAM: The Open Source CFD Toolbox           |
|  \\    /   O peration     | Version:  2.4.0                                 |
|   \\  /    A nd           | Web:      www.OpenFOAM.org                      |
|    \\/     M anipulation  |                                                 |
\*---------------------------------------------------------------------------*/
FoamFile
{
    version     2.0;
    format      ascii;
    class       volVectorField;
    location    "4.2";
    object      U;
}
// * * * * * * * * * * * * * * * * * * * * * * * * * * * * * * * * * * * * * //

dimensions      [0 1 -1 0 0 0 0];

internalField   nonuniform List<vector> 
8000
(
(2.18232e-06 -0.000193811 0)
(2.60631e-05 -0.000616161 0)
(7.59884e-05 -0.00107024 0)
(0.000151982 -0.0015597 0)
(0.000255625 -0.00207866 0)
(0.000390117 -0.00263172 0)
(0.000555316 -0.00321304 0)
(0.000708246 -0.0038425 0)
(0.000702344 -0.00453728 0)
(0.000451582 -0.00538807 0)
(0.000178664 -0.00542217 0)
(0.000157047 -0.005962 0)
(0.00032625 -0.00711953 0)
(0.000229939 -0.00931819 0)
(-1.40781e-05 -0.00328022 0)
(9.28417e-05 -0.00993392 0)
(0.000330894 -0.00875268 0)
(-0.000876362 -0.0196341 0)
(-0.00374947 -0.00770402 0)
(-0.00344981 -0.00329595 0)
(-0.0039346 -0.00790483 0)
(-0.00690266 -0.010909 0)
(-0.00983185 -0.011097 0)
(-0.0123445 -0.0088843 0)
(-0.0147745 -0.00440306 0)
(-0.0170242 0.00097481 0)
(-0.0191236 0.00545453 0)
(-0.0212202 0.00880358 0)
(-0.0233725 0.0111794 0)
(-0.0254517 0.0123139 0)
(-0.0273687 0.0121402 0)
(-0.0290976 0.0108395 0)
(-0.0307192 0.0089456 0)
(-0.0323306 0.00678339 0)
(-0.0339307 0.00451681 0)
(-0.0354458 0.00244723 0)
(-0.0368086 0.000835332 0)
(-0.037986 -8.06666e-05 0)
(-0.0389914 4.49729e-06 0)
(-0.0398603 0.00143042 0)
(-0.0406043 0.0047364 0)
(-0.0411542 0.0106659 0)
(-0.0414675 0.0200054 0)
(-0.0416636 0.03344 0)
(-0.0417688 0.0524157 0)
(-0.0414863 0.0786392 0)
(-0.0407079 0.110623 0)
(-0.0391282 0.145515 0)
(-0.0366152 0.179941 0)
(-0.0333205 0.208138 0)
(2.29971e-06 -0.000447535 0)
(2.43084e-05 -0.0013581 0)
(7.07976e-05 -0.00228993 0)
(0.000148272 -0.00324268 0)
(0.00025309 -0.00423208 0)
(0.000296341 -0.00526071 0)
(2.4206e-05 -0.00638172 0)
(-0.00062922 -0.00637978 0)
(-0.00128637 -0.00731544 0)
(-0.00139075 -0.0133385 0)
(-0.00127591 -0.00364955 0)
(-0.000612778 -0.0129268 0)
(0.00212658 -0.00342696 0)
(-0.00242997 -0.00566083 0)
(0.00176764 0.00330055 0)
(0.00171765 -0.0121425 0)
(0.00136693 0.00311073 0)
(-0.000524505 0.0156618 0)
(-0.00163123 0.0275027 0)
(-0.0034293 0.0355573 0)
(-0.00584681 0.0413591 0)
(-0.00871048 0.0455447 0)
(-0.0118233 0.0479431 0)
(-0.0150764 0.0486842 0)
(-0.0183251 0.0481121 0)
(-0.0214468 0.0464668 0)
(-0.0243884 0.0438245 0)
(-0.0271375 0.0401873 0)
(-0.029685 0.0355318 0)
(-0.0320202 0.0298815 0)
(-0.0341238 0.0234499 0)
(-0.0359694 0.0165391 0)
(-0.0375126 0.0094949 0)
(-0.0386986 0.00270048 0)
(-0.0394748 -0.00342998 0)
(-0.0397735 -0.00847894 0)
(-0.0395932 -0.0121173 0)
(-0.0389561 -0.0140329 0)
(-0.0378257 -0.0139218 0)
(-0.0361939 -0.0115268 0)
(-0.0340598 -0.00663825 0)
(-0.0314523 0.000959472 0)
(-0.0284389 0.0114091 0)
(-0.0251023 0.0246033 0)
(-0.0215163 0.0401699 0)
(-0.017558 0.0578151 0)
(-0.0132469 0.0774833 0)
(-0.00854167 0.0992418 0)
(-0.00348115 0.122572 0)
(0.00177692 0.146359 0)
(1.00977e-07 -0.000501869 0)
(-1.01386e-05 -0.00147051 0)
(-3.52558e-05 -0.00240593 0)
(-0.000121839 -0.00332013 0)
(-0.000367847 -0.00421405 0)
(-0.00079454 -0.00541253 0)
(-0.00142146 -0.0090492 0)
(-0.00167926 -0.00108461 0)
(-0.000639497 -0.0112275 0)
(-0.00129098 -0.00996422 0)
(-0.000709958 -0.0123154 0)
(0.000127342 -0.0317688 0)
(0.00116927 -0.0257668 0)
(0.00123431 -0.0195431 0)
(0.00150937 -0.0151141 0)
(0.0019965 -0.00795031 0)
(0.00247819 0.00243099 0)
(0.00330935 0.0170851 0)
(0.00466737 0.0306853 0)
(0.00640744 0.0429323 0)
(0.00833875 0.0535081 0)
(0.0103888 0.0622574 0)
(0.0124625 0.0692104 0)
(0.0144768 0.07438 0)
(0.0163791 0.0778001 0)
(0.0181172 0.0795645 0)
(0.0196365 0.0797319 0)
(0.0208796 0.0782898 0)
(0.0217886 0.0752097 0)
(0.0223073 0.0704718 0)
(0.0224065 0.0639142 0)
(0.022113 0.0552574 0)
(0.0215082 0.0445479 0)
(0.0207453 0.0321418 0)
(0.0200226 0.0184974 0)
(0.0194245 0.00437129 0)
(0.0189431 -0.009385 0)
(0.018703 -0.0227105 0)
(0.0189368 -0.0354487 0)
(0.0199369 -0.0467851 0)
(0.0219462 -0.0557674 0)
(0.0250634 -0.0612876 0)
(0.0292147 -0.0621358 0)
(0.034181 -0.0572733 0)
(0.0396965 -0.0462605 0)
(0.0453764 -0.0293232 0)
(0.0509969 -0.00754111 0)
(0.0564007 0.0175865 0)
(0.0614518 0.0450626 0)
(0.066093 0.0740883 0)
(1.52562e-06 -0.000216948 0)
(-1.5873e-06 -0.000644155 0)
(-3.75054e-05 -0.00105843 0)
(-0.000153211 -0.00144995 0)
(-0.000483283 -0.0020439 0)
(-0.00150869 -0.00479078 0)
(-0.00184562 -0.0145915 0)
(-0.00131103 -0.0158678 0)
(-0.00104817 -0.0166456 0)
(-0.000963081 -0.0133982 0)
(-0.00135778 -0.0128637 0)
(-0.00220312 -0.0135853 0)
(-0.0031763 -0.0125094 0)
(-0.00394068 -0.0112734 0)
(-0.00443697 -0.011609 0)
(-0.00450318 -0.0118927 0)
(-0.00424019 -0.0113015 0)
(-0.00356289 -0.0103851 0)
(-0.00225593 -0.00942295 0)
(-0.000395566 -0.0080982 0)
(0.00189713 -0.00671757 0)
(0.00457543 -0.00525847 0)
(0.00757297 -0.00359361 0)
(0.0108125 -0.00168848 0)
(0.0142315 0.00045363 0)
(0.0177772 0.00289005 0)
(0.0214065 0.00581454 0)
(0.0250522 0.00943486 0)
(0.0285875 0.0137145 0)
(0.0318974 0.0181686 0)
(0.0349504 0.0219424 0)
(0.0377128 0.0241043 0)
(0.0400783 0.0235577 0)
(0.0419829 0.0189406 0)
(0.043387 0.0103311 0)
(0.0441022 0.0021611 0)
(0.0441253 -0.00495763 0)
(0.0437255 -0.0159973 0)
(0.0430709 -0.0317877 0)
(0.0425996 -0.0519888 0)
(0.0428711 -0.0741324 0)
(0.0440986 -0.0940168 0)
(0.0461284 -0.107437 0)
(0.0487724 -0.111713 0)
(0.0520311 -0.105796 0)
(0.0559828 -0.0899954 0)
(0.0605044 -0.0658516 0)
(0.0650171 -0.036288 0)
(0.0692338 -0.00394818 0)
(0.0731398 0.029798 0)
(5.69045e-06 -0.000416515 0)
(3.82675e-05 -0.00118291 0)
(9.71127e-05 -0.00188052 0)
(0.000163736 -0.00251997 0)
(0.000155585 -0.00308776 0)
(-7.04155e-05 -0.00381806 0)
(-0.000687497 -0.00472908 0)
(-0.00134996 -0.00497787 0)
(-0.00197619 -0.00634487 0)
(-0.00235298 -0.00726689 0)
(-0.00254851 -0.00819011 0)
(-0.00273298 -0.0088536 0)
(-0.00292577 -0.00888731 0)
(-0.00308823 -0.00872714 0)
(-0.00322541 -0.00905177 0)
(-0.0033743 -0.00920531 0)
(-0.00352882 -0.00900764 0)
(-0.00366516 -0.00892577 0)
(-0.00375408 -0.00889591 0)
(-0.00378335 -0.00877073 0)
(-0.00374966 -0.00860495 0)
(-0.00365758 -0.00844177 0)
(-0.00350172 -0.00827946 0)
(-0.00327595 -0.0081382 0)
(-0.00297059 -0.00803453 0)
(-0.00257707 -0.00796611 0)
(-0.00207771 -0.0079005 0)
(-0.00144503 -0.00774273 0)
(-0.000651445 -0.00736827 0)
(0.000311564 -0.00681371 0)
(0.00143376 -0.00629094 0)
(0.00268574 -0.0059191 0)
(0.00399043 -0.00564288 0)
(0.00520721 -0.0054284 0)
(0.00616826 -0.00524045 0)
(0.00679065 -0.00472481 0)
(0.00714028 -0.00437663 0)
(0.00717618 -0.00762477 0)
(0.00669193 -0.0188163 0)
(0.00559015 -0.0432737 0)
(0.00375996 -0.076489 0)
(0.00108914 -0.104671 0)
(-0.00222552 -0.122085 0)
(-0.00542136 -0.131582 0)
(-0.00724556 -0.13647 0)
(-0.00685482 -0.13446 0)
(-0.0042965 -0.119221 0)
(-0.000334621 -0.090592 0)
(0.00422168 -0.0542556 0)
(0.00899828 -0.0161125 0)
(-2.79328e-06 -0.000526413 0)
(-1.14005e-05 -0.0014687 0)
(-2.30461e-05 -0.00230081 0)
(-3.53628e-05 -0.00303294 0)
(-4.39676e-05 -0.00365757 0)
(-5.36135e-05 -0.00418483 0)
(-4.4401e-05 -0.0045506 0)
(-5.91309e-05 -0.00496704 0)
(-0.00034113 -0.0057303 0)
(-0.000751474 -0.00642255 0)
(-0.000990246 -0.00700165 0)
(-0.00116473 -0.00740495 0)
(-0.00131421 -0.00761936 0)
(-0.0014299 -0.00775986 0)
(-0.00152667 -0.00791592 0)
(-0.0016205 -0.00796288 0)
(-0.00170366 -0.00789999 0)
(-0.00177254 -0.00789895 0)
(-0.00183086 -0.00802856 0)
(-0.00187404 -0.00818995 0)
(-0.00190209 -0.00830606 0)
(-0.00191784 -0.00838173 0)
(-0.00192428 -0.00842588 0)
(-0.00192236 -0.00845037 0)
(-0.00191473 -0.00845991 0)
(-0.00190402 -0.0084602 0)
(-0.00189266 -0.00845726 0)
(-0.00187854 -0.00844498 0)
(-0.00185431 -0.0084032 0)
(-0.00181115 -0.0083364 0)
(-0.00174581 -0.00827154 0)
(-0.00166015 -0.00822556 0)
(-0.00155976 -0.00818888 0)
(-0.0014502 -0.00815164 0)
(-0.00133084 -0.00814688 0)
(-0.00119315 -0.00823834 0)
(-0.00104136 -0.00848035 0)
(-0.000938984 -0.00894289 0)
(-0.00107559 -0.00980575 0)
(-0.00179838 -0.0113371 0)
(-0.00353453 -0.0135202 0)
(-0.00659438 -0.0155777 0)
(-0.0110236 -0.0177893 0)
(-0.0166143 -0.0288207 0)
(-0.0224364 -0.0668064 0)
(-0.0275178 -0.117963 0)
(-0.032128 -0.140601 0)
(-0.0354315 -0.132689 0)
(-0.03613 -0.111093 0)
(-0.0344681 -0.084877 0)
(-1.60463e-06 -0.000360854 0)
(-1.75617e-05 -0.00106012 0)
(-4.70004e-05 -0.00173592 0)
(-8.71641e-05 -0.00238704 0)
(-0.000133803 -0.00301414 0)
(-0.000183314 -0.0036179 0)
(-0.000232802 -0.00420073 0)
(-0.00028359 -0.00476401 0)
(-0.000342317 -0.00530759 0)
(-0.000413401 -0.00578857 0)
(-0.000493953 -0.00619456 0)
(-0.000578343 -0.00651793 0)
(-0.000660836 -0.00678532 0)
(-0.000736253 -0.00701623 0)
(-0.000806402 -0.00720113 0)
(-0.000872133 -0.00732421 0)
(-0.000928253 -0.00740195 0)
(-0.000981719 -0.00750332 0)
(-0.00105764 -0.00767277 0)
(-0.00114953 -0.00785125 0)
(-0.00123255 -0.00799184 0)
(-0.00130248 -0.00809787 0)
(-0.00136125 -0.00817797 0)
(-0.00141029 -0.00823919 0)
(-0.00144921 -0.00828475 0)
(-0.00147864 -0.00831709 0)
(-0.00149935 -0.00833708 0)
(-0.00151217 -0.00833975 0)
(-0.00151859 -0.00831223 0)
(-0.00152017 -0.00826842 0)
(-0.00151625 -0.00828225 0)
(-0.00150403 -0.00836338 0)
(-0.00148453 -0.00844023 0)
(-0.00146103 -0.00848827 0)
(-0.00143598 -0.00853185 0)
(-0.00141219 -0.00858941 0)
(-0.00139492 -0.00867662 0)
(-0.00139215 -0.00881215 0)
(-0.00141819 -0.00901914 0)
(-0.00149685 -0.00931435 0)
(-0.00165521 -0.00969384 0)
(-0.00189531 -0.0101566 0)
(-0.00219828 -0.0107873 0)
(-0.00266984 -0.0118858 0)
(-0.00373798 -0.0140163 0)
(-0.00619578 -0.0178578 0)
(-0.0109848 -0.0236686 0)
(-0.0180278 -0.0347225 0)
(-0.0232973 -0.0597374 0)
(-0.0259211 -0.0757555 0)
(-8.83587e-07 -0.000285995 0)
(-9.11662e-06 -0.000840945 0)
(-2.58572e-05 -0.00137789 0)
(-5.07258e-05 -0.00189595 0)
(-8.31699e-05 -0.00239451 0)
(-0.000122784 -0.00287377 0)
(-0.000169314 -0.00333352 0)
(-0.000222495 -0.00377378 0)
(-0.000281873 -0.00419393 0)
(-0.000346423 -0.00459339 0)
(-0.000414338 -0.0049712 0)
(-0.000483437 -0.00532726 0)
(-0.000551648 -0.00566167 0)
(-0.000617456 -0.00597531 0)
(-0.000679478 -0.00626901 0)
(-0.000736425 -0.00654369 0)
(-0.00078735 -0.0068005 0)
(-0.000832652 -0.00704123 0)
(-0.000873997 -0.00726639 0)
(-0.000912849 -0.00747292 0)
(-0.000949336 -0.0076592 0)
(-0.000982899 -0.00782614 0)
(-0.00101284 -0.00797476 0)
(-0.00103876 -0.0081058 0)
(-0.00106045 -0.00821916 0)
(-0.00107792 -0.00831451 0)
(-0.00109094 -0.0083902 0)
(-0.00109868 -0.0084434 0)
(-0.00109941 -0.0084685 0)
(-0.00109603 -0.00847884 0)
(-0.00111074 -0.00852674 0)
(-0.00114011 -0.00861052 0)
(-0.00116186 -0.00867943 0)
(-0.00117607 -0.00872078 0)
(-0.00118396 -0.00874946 0)
(-0.001187 -0.00877176 0)
(-0.00118711 -0.00879075 0)
(-0.00118834 -0.00880389 0)
(-0.00119484 -0.00885738 0)
(-0.00120804 -0.00898081 0)
(-0.00123075 -0.00912007 0)
(-0.00126819 -0.00925368 0)
(-0.00132601 -0.00941409 0)
(-0.00141815 -0.00964516 0)
(-0.00158012 -0.00998532 0)
(-0.0018682 -0.0104718 0)
(-0.00233929 -0.0111851 0)
(-0.00306139 -0.0123427 0)
(-0.0042223 -0.0142765 0)
(-0.00627273 -0.017299 0)
(-4.96175e-07 -0.000251041 0)
(-5.49997e-06 -0.000739328 0)
(-1.56267e-05 -0.00121328 0)
(-3.06193e-05 -0.00167209 0)
(-5.00617e-05 -0.00211525 0)
(-7.35718e-05 -0.00254285 0)
(-0.00010083 -0.002955 0)
(-0.000131507 -0.00335157 0)
(-0.000165258 -0.00373251 0)
(-0.000201716 -0.00409768 0)
(-0.000240475 -0.00444705 0)
(-0.000281114 -0.00478067 0)
(-0.000323212 -0.00509872 0)
(-0.000366362 -0.00540142 0)
(-0.000410198 -0.0056891 0)
(-0.000454373 -0.00596208 0)
(-0.000498596 -0.00622081 0)
(-0.000542613 -0.0064657 0)
(-0.000586207 -0.00669715 0)
(-0.000629116 -0.00691541 0)
(-0.000671036 -0.00712075 0)
(-0.000711611 -0.00731342 0)
(-0.000750506 -0.00749377 0)
(-0.000787397 -0.00766213 0)
(-0.000821993 -0.00781888 0)
(-0.000853949 -0.00796444 0)
(-0.000882875 -0.0080992 0)
(-0.000908239 -0.00822357 0)
(-0.00092958 -0.0083382 0)
(-0.000946822 -0.00844375 0)
(-0.000960836 -0.00854081 0)
(-0.000972762 -0.00862725 0)
(-0.000983192 -0.00870079 0)
(-0.000991995 -0.00876043 0)
(-0.000998925 -0.00880664 0)
(-0.00100386 -0.0088382 0)
(-0.00100617 -0.00885306 0)
(-0.00100523 -0.00884612 0)
(-0.00100587 -0.00885699 0)
(-0.0010207 -0.00890873 0)
(-0.00104532 -0.00895752 0)
(-0.00106763 -0.00898773 0)
(-0.00108968 -0.00901285 0)
(-0.00111728 -0.00903515 0)
(-0.00115504 -0.00910724 0)
(-0.00120631 -0.00922955 0)
(-0.00127953 -0.00937742 0)
(-0.00138943 -0.00957571 0)
(-0.00155861 -0.00983114 0)
(-0.00181705 -0.0101488 0)
(-4.55144e-07 -0.000218402 0)
(-4.7968e-06 -0.000644408 0)
(-1.35165e-05 -0.00105964 0)
(-2.63946e-05 -0.00146387 0)
(-4.30746e-05 -0.00185682 0)
(-6.32305e-05 -0.00223853 0)
(-8.65931e-05 -0.00260906 0)
(-0.000112887 -0.00296834 0)
(-0.000141835 -0.00331637 0)
(-0.000173154 -0.00365311 0)
(-0.000206559 -0.00397854 0)
(-0.000241765 -0.00429268 0)
(-0.000278489 -0.00459555 0)
(-0.000316461 -0.00488719 0)
(-0.000355414 -0.00516766 0)
(-0.000395099 -0.00543705 0)
(-0.000435277 -0.00569543 0)
(-0.000475725 -0.0059429 0)
(-0.000516233 -0.00617956 0)
(-0.000556603 -0.00640554 0)
(-0.000596642 -0.00662095 0)
(-0.000636167 -0.00682593 0)
(-0.000675002 -0.00702061 0)
(-0.000712981 -0.00720516 0)
(-0.000749951 -0.00737972 0)
(-0.000785765 -0.00754454 0)
(-0.000820295 -0.00769974 0)
(-0.000853416 -0.00784552 0)
(-0.000885034 -0.00798205 0)
(-0.000915056 -0.00810956 0)
(-0.000943417 -0.0082282 0)
(-0.000970002 -0.0083381 0)
(-0.000994668 -0.00843926 0)
(-0.00101716 -0.00853177 0)
(-0.00103723 -0.00861564 0)
(-0.00105449 -0.00869099 0)
(-0.00106861 -0.00875788 0)
(-0.00107936 -0.0088165 0)
(-0.00108715 -0.00886707 0)
(-0.00109299 -0.00890923 0)
(-0.00109767 -0.00893913 0)
(-0.00110119 -0.00895444 0)
(-0.00110328 -0.00895396 0)
(-0.00110238 -0.00893351 0)
(-0.00110142 -0.00894324 0)
(-0.00110699 -0.00898039 0)
(-0.00111864 -0.0090124 0)
(-0.00113424 -0.00906219 0)
(-0.00115463 -0.00913652 0)
(-0.00118192 -0.00921226 0)
(-3.72572e-07 -0.000193498 0)
(-4.01688e-06 -0.000572022 0)
(-1.13613e-05 -0.000942035 0)
(-2.22153e-05 -0.00130339 0)
(-3.62848e-05 -0.00165599 0)
(-5.33094e-05 -0.00199993 0)
(-7.30766e-05 -0.00233528 0)
(-9.53788e-05 -0.00266202 0)
(-0.00012001 -0.00298015 0)
(-0.000146769 -0.00328965 0)
(-0.000175454 -0.00359053 0)
(-0.000205868 -0.00388277 0)
(-0.000237818 -0.0041664 0)
(-0.000271114 -0.00444143 0)
(-0.000305571 -0.00470788 0)
(-0.000341008 -0.0049658 0)
(-0.000377246 -0.00521522 0)
(-0.000414113 -0.0054562 0)
(-0.000451439 -0.00568879 0)
(-0.000489057 -0.00591305 0)
(-0.000526807 -0.00612906 0)
(-0.000564529 -0.0063369 0)
(-0.000602068 -0.00653666 0)
(-0.000639272 -0.00672841 0)
(-0.000675993 -0.00691226 0)
(-0.000712086 -0.00708835 0)
(-0.000747411 -0.00725675 0)
(-0.00078183 -0.00741755 0)
(-0.000815211 -0.00757086 0)
(-0.000847421 -0.00771679 0)
(-0.00087833 -0.00785545 0)
(-0.000907807 -0.00798695 0)
(-0.000935716 -0.0081114 0)
(-0.000961916 -0.00822892 0)
(-0.00098626 -0.00833964 0)
(-0.0010086 -0.00844366 0)
(-0.00102877 -0.00854114 0)
(-0.00104662 -0.00863222 0)
(-0.00106199 -0.00871703 0)
(-0.00107467 -0.00879566 0)
(-0.00108438 -0.00886815 0)
(-0.0010907 -0.00893452 0)
(-0.00109319 -0.00899481 0)
(-0.00109159 -0.00904914 0)
(-0.00108618 -0.00909772 0)
(-0.00107758 -0.00914019 0)
(-0.00106573 -0.00917162 0)
(-0.00105173 -0.00921017 0)
(-0.00103966 -0.00926755 0)
(-0.00102771 -0.00932056 0)
(-3.29131e-07 -0.000168712 0)
(-3.07556e-06 -0.00050125 0)
(-8.46893e-06 -0.000828634 0)
(-1.63275e-05 -0.00115054 0)
(-2.64221e-05 -0.00146672 0)
(-3.85573e-05 -0.00177708 0)
(-5.25758e-05 -0.00208153 0)
(-6.83248e-05 -0.00237995 0)
(-8.56548e-05 -0.00267223 0)
(-0.000104419 -0.00295825 0)
(-0.000124474 -0.00323793 0)
(-0.000145678 -0.00351119 0)
(-0.000167894 -0.00377795 0)
(-0.000190989 -0.00403818 0)
(-0.000214829 -0.00429182 0)
(-0.000239286 -0.00453886 0)
(-0.000264234 -0.00477929 0)
(-0.000289547 -0.00501309 0)
(-0.000315106 -0.00524028 0)
(-0.00034079 -0.00546088 0)
(-0.000366482 -0.00567493 0)
(-0.000392067 -0.00588247 0)
(-0.000417431 -0.00608355 0)
(-0.000442463 -0.00627825 0)
(-0.000467052 -0.00646664 0)
(-0.000491091 -0.00664883 0)
(-0.000514475 -0.00682488 0)
(-0.000537096 -0.0069949 0)
(-0.000558849 -0.00715902 0)
(-0.000579626 -0.00731738 0)
(-0.000599321 -0.00747013 0)
(-0.000617827 -0.00761742 0)
(-0.000635037 -0.00775943 0)
(-0.000650844 -0.00789634 0)
(-0.000665137 -0.00802834 0)
(-0.000677809 -0.00815567 0)
(-0.000688747 -0.00827851 0)
(-0.000697842 -0.00839716 0)
(-0.000704981 -0.00851182 0)
(-0.00071005 -0.00862283 0)
(-0.000712936 -0.00873042 0)
(-0.000713514 -0.008835 0)
(-0.000711647 -0.0089368 0)
(-0.000707128 -0.00903634 0)
(-0.000699786 -0.00913388 0)
(-0.000689713 -0.00923016 0)
(-0.000678245 -0.00932576 0)
(-0.000668907 -0.00942287 0)
(-0.000663816 -0.00951111 0)
(-0.000656578 -0.00959557 0)
(-3.81373e-08 -0.000158031 0)
(-8.52691e-07 -0.00047024 0)
(-2.60253e-06 -0.000778397 0)
(-5.261e-06 -0.00108227 0)
(-8.74771e-06 -0.00138165 0)
(-1.298e-05 -0.00167645 0)
(-1.78869e-05 -0.00196658 0)
(-2.33956e-05 -0.00225193 0)
(-2.94313e-05 -0.0025324 0)
(-3.59181e-05 -0.00280788 0)
(-4.27766e-05 -0.00307828 0)
(-4.99275e-05 -0.00334354 0)
(-5.72889e-05 -0.00360359 0)
(-6.47789e-05 -0.00385837 0)
(-7.23135e-05 -0.00410785 0)
(-7.98093e-05 -0.00435198 0)
(-8.71806e-05 -0.00459076 0)
(-9.43434e-05 -0.00482417 0)
(-0.000101211 -0.0050522 0)
(-0.000107699 -0.00527488 0)
(-0.00011372 -0.00549222 0)
(-0.000119191 -0.00570424 0)
(-0.000124025 -0.005911 0)
(-0.00012814 -0.00611255 0)
(-0.00013145 -0.00630893 0)
(-0.000133875 -0.00650023 0)
(-0.000135331 -0.00668651 0)
(-0.00013574 -0.00686784 0)
(-0.000135025 -0.00704435 0)
(-0.000133112 -0.00721614 0)
(-0.000129927 -0.00738333 0)
(-0.0001254 -0.00754605 0)
(-0.000119466 -0.00770442 0)
(-0.000112059 -0.00785858 0)
(-0.000103124 -0.00800868 0)
(-9.26024e-05 -0.00815485 0)
(-8.04533e-05 -0.00829727 0)
(-6.66249e-05 -0.00843607 0)
(-5.11002e-05 -0.00857143 0)
(-3.38331e-05 -0.00870348 0)
(-1.4793e-05 -0.00883237 0)
(6.16409e-06 -0.00895823 0)
(2.90986e-05 -0.00908117 0)
(5.37565e-05 -0.00920162 0)
(7.80659e-05 -0.00932053 0)
(9.63933e-05 -0.00944302 0)
(9.8482e-05 -0.00949386 0)
(9.53242e-05 -0.0095408 0)
(9.77249e-05 -0.00958356 0)
(9.5669e-05 -0.00963346 0)
(-5.12349e-08 -0.000155862 0)
(-1.07492e-07 -0.000464046 0)
(-9.68895e-08 -0.000768545 0)
(1.76759e-08 -0.00106919 0)
(2.48246e-07 -0.00136584 0)
(6.08732e-07 -0.00165843 0)
(1.11125e-06 -0.00194691 0)
(1.77325e-06 -0.0022312 0)
(2.61381e-06 -0.00251123 0)
(3.65506e-06 -0.00278695 0)
(4.92085e-06 -0.0030583 0)
(6.43796e-06 -0.00332523 0)
(8.23418e-06 -0.00358772 0)
(1.03404e-05 -0.00384573 0)
(1.27877e-05 -0.00409926 0)
(1.56105e-05 -0.00434828 0)
(1.8842e-05 -0.00459281 0)
(2.25196e-05 -0.00483284 0)
(2.66776e-05 -0.0050684 0)
(3.13556e-05 -0.0052995 0)
(3.65875e-05 -0.00552618 0)
(4.24143e-05 -0.00574847 0)
(4.88677e-05 -0.00596641 0)
(5.59893e-05 -0.00618006 0)
(6.38063e-05 -0.00638947 0)
(7.23597e-05 -0.00659469 0)
(8.16681e-05 -0.00679581 0)
(9.1773e-05 -0.00699282 0)
(0.000102682 -0.00718584 0)
(0.000114434 -0.00737493 0)
(0.000127018 -0.0075602 0)
(0.000140469 -0.00774172 0)
(0.000154754 -0.00791956 0)
(0.000169904 -0.00809382 0)
(0.000185853 -0.00826456 0)
(0.000202622 -0.00843191 0)
(0.0002201 -0.00859588 0)
(0.000238296 -0.00875666 0)
(0.000257093 -0.00891414 0)
(0.000276636 -0.00906865 0)
(0.000296998 -0.00922002 0)
(0.000317923 -0.00936963 0)
(0.000335685 -0.00951943 0)
(0.000338205 -0.00967359 0)
(0.000313793 -0.00971274 0)
(0.000285523 -0.00974218 0)
(0.000271302 -0.00969269 0)
(0.000257299 -0.00962878 0)
(0.000238448 -0.00955313 0)
(0.000214707 -0.00945945 0)
(1.20106e-07 -0.000159223 0)
(7.86917e-07 -0.000473845 0)
(2.02646e-06 -0.000784536 0)
(3.78898e-06 -0.00109116 0)
(6.03738e-06 -0.0013936 0)
(8.7476e-06 -0.00169181 0)
(1.18971e-05 -0.00198575 0)
(1.54623e-05 -0.00227536 0)
(1.94185e-05 -0.0025606 0)
(2.37399e-05 -0.00284143 0)
(2.84003e-05 -0.00311782 0)
(3.3374e-05 -0.00338976 0)
(3.86335e-05 -0.00365721 0)
(4.41533e-05 -0.00392018 0)
(4.9905e-05 -0.00417866 0)
(5.58644e-05 -0.00443266 0)
(6.20018e-05 -0.00468217 0)
(6.8295e-05 -0.00492722 0)
(7.47129e-05 -0.00516781 0)
(8.12368e-05 -0.00540398 0)
(8.78334e-05 -0.00563573 0)
(9.44895e-05 -0.0058631 0)
(0.000101169 -0.0060861 0)
(0.000107865 -0.00630476 0)
(0.000114539 -0.00651909 0)
(0.000121197 -0.00672914 0)
(0.000127791 -0.00693486 0)
(0.000134346 -0.00713632 0)
(0.000140809 -0.00733342 0)
(0.000147226 -0.00752628 0)
(0.000153532 -0.0077147 0)
(0.000159805 -0.00789884 0)
(0.000165967 -0.00807836 0)
(0.000172127 -0.00825353 0)
(0.000178193 -0.00842374 0)
(0.00018433 -0.00858943 0)
(0.000190558 -0.00874954 0)
(0.000197297 -0.00890489 0)
(0.000204652 -0.00905407 0)
(0.000210936 -0.00920018 0)
(0.000206704 -0.00934525 0)
(0.000163843 -0.00946634 0)
(8.52829e-05 -0.00951973 0)
(1.27754e-05 -0.00957294 0)
(-4.42119e-05 -0.00948251 0)
(-0.000113248 -0.0093398 0)
(-0.000225181 -0.0091677 0)
(-0.000386159 -0.00905753 0)
(-0.000555978 -0.00898744 0)
(-0.000709884 -0.00886922 0)
(5.77769e-08 -0.000162675 0)
(1.15274e-06 -0.000484108 0)
(3.5041e-06 -0.000801415 0)
(7.07775e-06 -0.00111439 0)
(1.17714e-05 -0.00142286 0)
(1.74921e-05 -0.00172672 0)
(2.4152e-05 -0.00202587 0)
(3.16712e-05 -0.00232021 0)
(3.99618e-05 -0.00260965 0)
(4.89444e-05 -0.00289413 0)
(5.85285e-05 -0.00317358 0)
(6.86377e-05 -0.00344795 0)
(7.91795e-05 -0.00371721 0)
(9.00818e-05 -0.00398132 0)
(0.00010125 -0.00424027 0)
(0.000112617 -0.00449405 0)
(0.000124087 -0.00474266 0)
(0.0001356 -0.00498613 0)
(0.000147056 -0.00522448 0)
(0.000158409 -0.00545774 0)
(0.000169551 -0.00568596 0)
(0.000180453 -0.0059092 0)
(0.000191002 -0.00612752 0)
(0.00020119 -0.00634104 0)
(0.0002109 -0.00654979 0)
(0.00022015 -0.00675398 0)
(0.000228819 -0.00695359 0)
(0.000236967 -0.00714895 0)
(0.00024447 -0.00733997 0)
(0.000251437 -0.00752717 0)
(0.000257752 -0.00771027 0)
(0.000263571 -0.00789014 0)
(0.000268789 -0.00806615 0)
(0.000273693 -0.00823973 0)
(0.000278507 -0.00840955 0)
(0.000284088 -0.0085781 0)
(0.000290627 -0.00874337 0)
(0.000293619 -0.00891176 0)
(0.000273262 -0.0090863 0)
(0.000185694 -0.00914354 0)
(6.91019e-05 -0.00910085 0)
(-2.40002e-05 -0.0090133 0)
(-0.000144492 -0.00878157 0)
(-0.000360303 -0.008526 0)
(-0.000631239 -0.00827695 0)
(-0.000817441 -0.00778873 0)
(-0.0008413 -0.00651991 0)
(-0.000836934 -0.00587419 0)
(-0.000840636 -0.006085 0)
(-0.000672332 -0.00582367 0)
(3.95816e-07 -0.000176443 0)
(3.50233e-06 -0.000523655 0)
(9.48268e-06 -0.00086498 0)
(1.80683e-05 -0.00120025 0)
(2.89455e-05 -0.00152933 0)
(4.1857e-05 -0.00185212 0)
(5.65884e-05 -0.00216856 0)
(7.29369e-05 -0.00247858 0)
(9.07133e-05 -0.00278212 0)
(0.000109731 -0.00307918 0)
(0.000129816 -0.00336969 0)
(0.000150796 -0.00365368 0)
(0.000172512 -0.00393111 0)
(0.000194797 -0.00420202 0)
(0.000217501 -0.0044664 0)
(0.000240462 -0.00472432 0)
(0.000263536 -0.00497575 0)
(0.000286558 -0.00522084 0)
(0.000309388 -0.00545952 0)
(0.000331853 -0.00569203 0)
(0.000353814 -0.00591825 0)
(0.000375085 -0.00613854 0)
(0.000395524 -0.00635272 0)
(0.000414929 -0.0065613 0)
(0.00043315 -0.00676399 0)
(0.000449962 -0.00696157 0)
(0.0004652 -0.00715354 0)
(0.000478615 -0.0073411 0)
(0.000490008 -0.0075234 0)
(0.000499099 -0.00770228 0)
(0.000505655 -0.00787632 0)
(0.000509491 -0.00804839 0)
(0.00051051 -0.00821606 0)
(0.000508919 -0.00838399 0)
(0.000503916 -0.00854953 0)
(0.000488131 -0.00872593 0)
(0.000431265 -0.00892898 0)
(0.000277318 -0.00884438 0)
(6.38621e-05 -0.00874027 0)
(-0.000209358 -0.0084738 0)
(-0.000530554 -0.00823653 0)
(-0.000738356 -0.00787619 0)
(-0.000836454 -0.00614296 0)
(-0.00112662 -0.00362614 0)
(-0.00142342 -0.00424007 0)
(-0.00170493 -0.0079436 0)
(-0.00152796 -0.00666524 0)
(-0.000551978 -0.00625084 0)
(0.000430057 -0.0120066 0)
(0.00169552 -0.0189959 0)
(2.70763e-07 -0.000202842 0)
(2.64914e-06 -0.000597264 0)
(7.31459e-06 -0.000980708 0)
(1.40659e-05 -0.00135348 0)
(2.26451e-05 -0.00171582 0)
(3.28146e-05 -0.00206798 0)
(4.43755e-05 -0.00241018 0)
(5.71133e-05 -0.0027426 0)
(7.08369e-05 -0.0030654 0)
(8.53259e-05 -0.00337873 0)
(0.000100392 -0.00368269 0)
(0.000115809 -0.00397739 0)
(0.000131392 -0.00426291 0)
(0.000146905 -0.0045393 0)
(0.000162164 -0.00480664 0)
(0.000176923 -0.00506492 0)
(0.000191 -0.00531422 0)
(0.000204131 -0.00555447 0)
(0.000216136 -0.00578576 0)
(0.000226731 -0.00600794 0)
(0.000235732 -0.00622114 0)
(0.000242834 -0.00642509 0)
(0.000247844 -0.00661998 0)
(0.000250428 -0.0068054 0)
(0.000250381 -0.00698164 0)
(0.000247339 -0.00714807 0)
(0.000241073 -0.00730518 0)
(0.00023119 -0.00745198 0)
(0.000217461 -0.00758921 0)
(0.000199449 -0.00771524 0)
(0.000176925 -0.00783138 0)
(0.000149573 -0.00793628 0)
(0.00011456 -0.0080367 0)
(5.35791e-05 -0.00815143 0)
(-9.35416e-05 -0.00810272 0)
(-0.000349177 -0.00798469 0)
(-0.000710451 -0.00787479 0)
(-0.00104091 -0.00763697 0)
(-0.00114857 -0.00703194 0)
(-0.00106769 -0.00253967 0)
(-0.00170207 -0.00212655 0)
(-0.00259601 -0.00861576 0)
(-0.00382561 0.00249886 0)
(-0.00139839 0.00135016 0)
(-0.000614928 -0.00256682 0)
(0.000127604 -0.0109327 0)
(0.00165787 -0.01918 0)
(0.0034214 -0.0266077 0)
(0.00527203 -0.0339167 0)
(0.00709626 -0.0409881 0)
(9.00791e-08 -0.000208369 0)
(1.43934e-06 -0.000613987 0)
(4.259e-06 -0.00100834 0)
(8.48024e-06 -0.00139133 0)
(1.3917e-05 -0.0017629 0)
(2.04224e-05 -0.00212298 0)
(2.77981e-05 -0.00247156 0)
(3.59003e-05 -0.00280858 0)
(4.44993e-05 -0.00313401 0)
(5.34461e-05 -0.00344779 0)
(6.24779e-05 -0.0037499 0)
(7.14524e-05 -0.00404027 0)
(8.00739e-05 -0.00431889 0)
(8.82172e-05 -0.00458568 0)
(9.55508e-05 -0.00484064 0)
(0.000101977 -0.00508366 0)
(0.000107123 -0.00531477 0)
(0.000110929 -0.00553381 0)
(0.00011297 -0.00574083 0)
(0.000113231 -0.00593562 0)
(0.000111227 -0.00611822 0)
(0.000106989 -0.00628839 0)
(9.99583e-05 -0.00644617 0)
(9.01812e-05 -0.0065913 0)
(7.70068e-05 -0.00672373 0)
(6.0511e-05 -0.00684332 0)
(4.03131e-05 -0.00694988 0)
(1.71986e-05 -0.00704358 0)
(-7.75621e-06 -0.00712339 0)
(-3.49281e-05 -0.00718868 0)
(-7.71954e-05 -0.00725017 0)
(-0.000184459 -0.00722807 0)
(-0.000424096 -0.00706442 0)
(-0.000776863 -0.0068495 0)
(-0.00107925 -0.00669113 0)
(-0.0011995 -0.0061285 0)
(-0.0011449 -0.00073295 0)
(-0.001983 -0.00349042 0)
(-0.00351069 -0.0138924 0)
(-0.00478435 0.0196824 0)
(-0.000645456 0.00532227 0)
(-0.00160606 -0.00434206 0)
(0.000729262 -0.0131495 0)
(0.00286751 -0.0227854 0)
(0.00542201 -0.0320541 0)
(0.00793689 -0.0399973 0)
(0.0102761 -0.0469438 0)
(0.0125541 -0.0532517 0)
(0.0146532 -0.0588743 0)
(0.0165556 -0.0637704 0)
(3.04014e-07 -0.000223278 0)
(2.35812e-06 -0.000655958 0)
(6.19735e-06 -0.0010747 0)
(1.16283e-05 -0.00147945 0)
(1.84286e-05 -0.00187007 0)
(2.64288e-05 -0.00224652 0)
(3.54623e-05 -0.00260863 0)
(4.53819e-05 -0.00295643 0)
(5.60297e-05 -0.00328972 0)
(6.7261e-05 -0.00360861 0)
(7.89286e-05 -0.00391283 0)
(9.08929e-05 -0.00420263 0)
(0.000103019 -0.00447765 0)
(0.00011517 -0.00473829 0)
(0.000127225 -0.00498398 0)
(0.000139042 -0.00521541 0)
(0.000150525 -0.00543167 0)
(0.000161499 -0.00563381 0)
(0.000171927 -0.00582035 0)
(0.000181528 -0.00599293 0)
(0.000190401 -0.0061492 0)
(0.000198035 -0.00629165 0)
(0.000204881 -0.00641654 0)
(0.000210142 -0.00652755 0)
(0.000214414 -0.00661872 0)
(0.0002161 -0.0066958 0)
(0.000216609 -0.00675367 0)
(0.000214469 -0.00681349 0)
(0.000191718 -0.00694007 0)
(2.09378e-05 -0.00681158 0)
(-0.000287521 -0.00657262 0)
(-0.000578284 -0.0064097 0)
(-0.000788966 -0.00595763 0)
(-0.000827942 -0.00106495 0)
(-0.00162661 -0.00259017 0)
(-0.00315918 -0.0133381 0)
(-0.00316747 0.0251797 0)
(0.000879814 0.00930628 0)
(-0.000365504 -0.00220142 0)
(0.00343026 -0.0152897 0)
(0.00701012 -0.0290219 0)
(0.0102226 -0.0412631 0)
(0.0132914 -0.0517859 0)
(0.0162219 -0.0605243 0)
(0.018918 -0.0673693 0)
(0.0213168 -0.072401 0)
(0.0234897 -0.0765643 0)
(0.0255478 -0.0802043 0)
(0.0275027 -0.0835727 0)
(0.0293301 -0.0867422 0)
(-0.0299355 0.228376 0)
(-0.0263366 0.245437 0)
(-0.0225106 0.263185 0)
(-0.0184352 0.285577 0)
(-0.0134781 0.315092 0)
(-0.00836018 0.346488 0)
(-0.00290365 0.375775 0)
(0.00247575 0.399876 0)
(0.00760347 0.418723 0)
(0.012675 0.436214 0)
(0.0174303 0.453051 0)
(0.0216307 0.46794 0)
(0.0253157 0.481032 0)
(0.0286244 0.490946 0)
(0.0315905 0.498745 0)
(0.0341527 0.504483 0)
(0.0362597 0.508486 0)
(0.0379278 0.511228 0)
(0.0392284 0.513108 0)
(0.0402501 0.514441 0)
(0.0410682 0.515446 0)
(0.0417409 0.51626 0)
(0.0423127 0.516959 0)
(0.0428157 0.517569 0)
(0.0432713 0.518087 0)
(0.0436917 0.5185 0)
(0.0440822 0.518791 0)
(0.0444442 0.518947 0)
(0.0447774 0.518958 0)
(0.0450812 0.518816 0)
(0.0453549 0.518518 0)
(0.0455985 0.518062 0)
(0.0458124 0.517447 0)
(0.0459975 0.516676 0)
(0.0461551 0.51575 0)
(0.0462867 0.51467 0)
(0.0463941 0.513439 0)
(0.0464791 0.512058 0)
(0.0465438 0.510529 0)
(0.0465901 0.508856 0)
(0.04662 0.507039 0)
(0.0466354 0.505085 0)
(0.0466381 0.503001 0)
(0.0466296 0.500801 0)
(0.0466114 0.498509 0)
(0.0465853 0.496163 0)
(0.0465552 0.493815 0)
(0.0465271 0.491541 0)
(0.0465041 0.489452 0)
(0.0464915 0.487725 0)
(0.00678369 0.168467 0)
(0.0113528 0.188441 0)
(0.0153847 0.208607 0)
(0.019405 0.229889 0)
(0.0234842 0.252431 0)
(0.0277563 0.274465 0)
(0.0322773 0.296507 0)
(0.0369347 0.319295 0)
(0.0417523 0.34334 0)
(0.0462611 0.367389 0)
(0.0506885 0.390525 0)
(0.0548361 0.409866 0)
(0.0586802 0.425489 0)
(0.0624085 0.438694 0)
(0.0659764 0.451924 0)
(0.0690615 0.465705 0)
(0.0715464 0.478604 0)