/*--------------------------------*- C++ -*----------------------------------*\
| =========                 |                                                 |
| \\      /  F ield         | OpenFOAM: The Open Source CFD Toolbox           |
|  \\    /   O peration     | Version:  2.4.0                                 |
|   \\  /    A nd           | Web:      www.OpenFOAM.org                      |
|    \\/     M anipulation  |                                                 |
\*---------------------------------------------------------------------------*/
FoamFile
{
    version     2.0;
    format      ascii;
    class       volScalarField;
    location    "0.014";
    object      p;
}
// * * * * * * * * * * * * * * * * * * * * * * * * * * * * * * * * * * * * * //

dimensions      [1 -1 -2 0 0 0 0];

internalField   nonuniform List<scalar> 
125
(
0.0289273
0.0310896
-0.00939141
0.0456756
-0.451609
-0.0573367
0.0157335
0.00357575
-0.00606253
-0.00807535
-0.00777308
-0.00757236
-0.00766575
-0.00784683
-0.00802415
-0.00819066
-0.00835445
-0.00851904
-0.00868468
-0.00885105
-0.00901802
-0.0091856
-0.00935378
-0.00952258
-0.00969201
-0.00986206
-0.0100327
-0.010204
-0.010376
-0.0105485
-0.0107217
-0.0108956
-0.01107
-0.0112452
-0.0114209
-0.0115973
-0.0117744
-0.0119521
-0.0121305
-0.0123095
-0.0124892
-0.0126695
-0.0128505
-0.0130322
-0.0132145
-0.0133975
-0.0135812
-0.0137655
-0.0139506
-0.0141363
-0.0143227
-0.0145098
-0.0146975
-0.014886
-0.0150751
-0.015265
-0.0154555
-0.0156468
-0.0158387
-0.0160314
-0.0162248
-0.0164189
-0.0166136
-0.0168092
-0.0170054
-0.0172023
-0.0174
-0.0175984
-0.0177976
-0.0179974
-0.018198
-0.0183994
-0.0186014
-0.0188043
-0.0190078
-0.0694637
-0.0698537
-0.0702451
-0.070638
-0.0710323
-0.0714281
-0.0718253
-0.072224
-0.0726241
-0.0730258
-0.0734289
-0.0738335
-0.0742395
-0.0746471
-0.0750562
-0.0754668
-0.0758789
-0.0762925
-0.0767076
-0.0771243
-0.0775425
-0.0779622
-0.0783835
-0.0788063
-0.0792307
-0.0796566
-0.0800841
-0.0805132
-0.0809439
-0.0813762
-0.08181
-0.0822455
-0.0826825
-0.0831212
-0.0835614
-0.0840033
-0.0844468
-0.084892
-0.0853388
-0.0857872
-0.0862373
-0.086689
-0.0871424
-0.0875975
-0.0880543
-0.0885127
-0.0889728
-0.0894346
-0.0898981
-0.0903633
)
;

boundaryField
{
    BotWall
    {
        type            calculated;
        value           uniform 0.0338707;
    }
    FreeStream
    {
        type            calculated;
        value           uniform -0.0905962;
    }
    FrontNBack
    {
        type            empty;
    }
    LeftSide
    {
        type            symmetryPlane;
    }
    RightSide
    {
        type            symmetryPlane;
    }
    procBoundary9to6
    {
        type            processor;
        value           nonuniform List<scalar> 
50
(
-0.00987176
-0.0100423
-0.0102136
-0.0103854
-0.0105579
-0.010731
-0.0109047
-0.0110791
-0.0112541
-0.0114298
-0.0116061
-0.011783
-0.0119607
-0.0121389
-0.0123179
-0.0124974
-0.0126777
-0.0128586
-0.0130402
-0.0132224
-0.0134053
-0.0135889
-0.0137732
-0.0139582
-0.0141438
-0.0143301
-0.0145171
-0.0147048
-0.0148932
-0.0150822
-0.015272
-0.0154625
-0.0156536
-0.0158455
-0.0160381
-0.0162314
-0.0164254
-0.0166201
-0.0168155
-0.0170117
-0.0172085
-0.0174061
-0.0176045
-0.0178035
-0.0180033
-0.0182038
-0.0184051
-0.0186071
-0.0188099
-0.0190134
)
;
    }
    procBoundary9to7
    {
        type            processor;
        value           nonuniform List<scalar> 
75
(
0.02963
0.0319891
-0.00942967
0.049593
-0.461543
-0.0589075
0.0160669
0.00374129
-0.00605032
-0.00809876
-0.00779047
-0.00758381
-0.00767584
-0.00785709
-0.00803457
-0.00820107
-0.00836479
-0.0085293
-0.00869487
-0.00886118
-0.00902809
-0.0091956
-0.00936372
-0.00953245
-0.0097018
-0.0694632
-0.0698532
-0.0702446
-0.0706375
-0.0710318
-0.0714276
-0.0718248
-0.0722235
-0.0726236
-0.0730252
-0.0734283
-0.0738329
-0.074239
-0.0746466
-0.0750557
-0.0754662
-0.0758783
-0.0762919
-0.076707
-0.0771237
-0.0775419
-0.0779616
-0.0783829
-0.0788057
-0.0792301
-0.079656
-0.0800835
-0.0805126
-0.0809433
-0.0813755
-0.0818094
-0.0822448
-0.0826819
-0.0831205
-0.0835608
-0.0840026
-0.0844462
-0.0848913
-0.0853381
-0.0857865
-0.0862366
-0.0866883
-0.0871417
-0.0875968
-0.0880535
-0.0885119
-0.088972
-0.0894338
-0.0898973
-0.0903626
)
;
    }
    procBoundary9to8
    {
        type            processor;
        value           uniform -0.0192121;
    }
    procBoundary9to10
    {
        type            processor;
        value           uniform -0.0690751;
    }
    procBoundary9to11
    {
        type            processor;
        value           nonuniform List<scalar> 
75
(
0.0290188
0.0313864
-0.00951846
0.0474129
-0.456077
-0.0580477
0.0158788
0.00364576
-0.00606145
-0.00809023
-0.0077852
-0.00758176
-0.00767449
-0.0078556
-0.00803293
-0.00819939
-0.0083631
-0.0085276
-0.00869316
-0.00885945
-0.00902635
-0.00919384
-0.00936195
-0.00953067
-0.00970002
-0.00986999
-0.0100406
-0.0102118
-0.0103837
-0.0105562
-0.0107293
-0.010903
-0.0110774
-0.0112525
-0.0114282
-0.0116045
-0.0117815
-0.0119591
-0.0121374
-0.0123164
-0.012496
-0.0126762
-0.0128572
-0.0130388
-0.013221
-0.013404
-0.0135876
-0.0137719
-0.0139568
-0.0141425
-0.0143288
-0.0145158
-0.0147035
-0.0148919
-0.015081
-0.0152708
-0.0154613
-0.0156524
-0.0158443
-0.0160369
-0.0162302
-0.0164242
-0.016619
-0.0168144
-0.0170106
-0.0172075
-0.0174051
-0.0176034
-0.0178025
-0.0180023
-0.0182029
-0.0184041
-0.0186062
-0.0188089
-0.0190124
)
;
    }
}


// ************************************************************************* //
