/*--------------------------------*- C++ -*----------------------------------*\
| =========                 |                                                 |
| \\      /  F ield         | OpenFOAM: The Open Source CFD Toolbox           |
|  \\    /   O peration     | Version:  2.4.0                                 |
|   \\  /    A nd           | Web:      www.OpenFOAM.org                      |
|    \\/     M anipulation  |                                                 |
\*---------------------------------------------------------------------------*/
FoamFile
{
    version     2.0;
    format      ascii;
    class       volScalarField;
    location    "3.5";
    object      T;
}
// * * * * * * * * * * * * * * * * * * * * * * * * * * * * * * * * * * * * * //

dimensions      [0 0 0 1 0 0 0];

internalField   nonuniform List<scalar> 
125
(
293.108
293.108
293.108
293.108
293.108
293.327
293.327
293.327
293.327
293.327
293.547
293.547
293.547
293.547
293.547
293.77
293.77
293.77
293.77
293.77
293.996
293.996
293.996
293.996
293.996
294.224
294.224
294.224
294.224
294.224
294.455
294.455
294.455
294.455
294.455
294.689
294.689
294.689
294.689
294.689
294.925
294.925
294.925
294.925
294.925
295.163
295.164
295.164
295.164
295.163
295.405
295.405
295.405
295.405
295.405
295.649
295.649
295.65
295.65
295.649
295.897
295.897
295.897
295.897
295.897
296.147
296.147
296.147
296.147
296.147
296.4
296.4
296.4
296.4
296.4
296.656
296.656
296.656
296.656
296.656
296.915
296.915
296.915
296.915
296.915
297.177
297.177
297.177
297.177
297.177
297.442
297.443
297.443
297.443
297.442
297.711
297.711
297.711
297.711
297.711
297.995
297.995
297.995
297.995
297.995
297.995
297.995
297.995
297.995
297.995
297.995
297.995
297.995
297.995
297.995
297.995
297.995
297.995
297.995
297.995
297.995
297.995
297.995
297.995
297.995
)
;

boundaryField
{
    BotWall
    {
        type            fixedValue;
        value           uniform 293;
    }
    FreeStream
    {
        type            fixedValue;
        value           nonuniform 0();
    }
    FrontNBack
    {
        type            empty;
    }
    LeftSide
    {
        type            symmetryPlane;
    }
    RightSide
    {
        type            symmetryPlane;
    }
    procBoundary0to1
    {
        type            processor;
        value           nonuniform List<scalar> 5(297.995 297.995 297.995 297.995 297.995);
    }
}


// ************************************************************************* //
