/*--------------------------------*- C++ -*----------------------------------*\
| =========                 |                                                 |
| \\      /  F ield         | OpenFOAM: The Open Source CFD Toolbox           |
|  \\    /   O peration     | Version:  2.4.0                                 |
|   \\  /    A nd           | Web:      www.OpenFOAM.org                      |
|    \\/     M anipulation  |                                                 |
\*---------------------------------------------------------------------------*/
FoamFile
{
    version     2.0;
    format      ascii;
    class       volScalarField;
    location    "1.7";
    object      p_rgh;
}
// * * * * * * * * * * * * * * * * * * * * * * * * * * * * * * * * * * * * * //

dimensions      [1 -1 -2 0 0 0 0];

internalField   nonuniform List<scalar> 
125
(
-1.50334e-05
-1.5033e-05
-1.50326e-05
-1.50329e-05
-1.50337e-05
-1.49479e-05
-1.49476e-05
-1.49473e-05
-1.49475e-05
-1.49481e-05
-1.48901e-05
-1.48898e-05
-1.48894e-05
-1.48896e-05
-1.48902e-05
-1.48687e-05
-1.48684e-05
-1.4868e-05
-1.48682e-05
-1.48688e-05
-1.48563e-05
-1.4856e-05
-1.48556e-05
-1.48558e-05
-1.48564e-05
-1.48426e-05
-1.48423e-05
-1.4842e-05
-1.48422e-05
-1.48426e-05
-1.48273e-05
-1.4827e-05
-1.48267e-05
-1.48269e-05
-1.48273e-05
-1.48115e-05
-1.48112e-05
-1.48108e-05
-1.4811e-05
-1.48115e-05
-1.47955e-05
-1.47952e-05
-1.47949e-05
-1.47951e-05
-1.47956e-05
-1.47795e-05
-1.47792e-05
-1.47789e-05
-1.47791e-05
-1.47795e-05
-1.47633e-05
-1.4763e-05
-1.47627e-05
-1.47629e-05
-1.47633e-05
-1.47469e-05
-1.47466e-05
-1.47463e-05
-1.47465e-05
-1.47469e-05
-1.47304e-05
-1.47301e-05
-1.47298e-05
-1.473e-05
-1.47304e-05
-1.47137e-05
-1.47134e-05
-1.47131e-05
-1.47133e-05
-1.47137e-05
-1.46968e-05
-1.46965e-05
-1.46962e-05
-1.46964e-05
-1.46968e-05
-1.46797e-05
-1.46794e-05
-1.46792e-05
-1.46793e-05
-1.46798e-05
-1.46625e-05
-1.46622e-05
-1.4662e-05
-1.46621e-05
-1.46625e-05
-1.46451e-05
-1.46448e-05
-1.46446e-05
-1.46447e-05
-1.46451e-05
-1.46275e-05
-1.46272e-05
-1.4627e-05
-1.46271e-05
-1.46275e-05
-1.46097e-05
-1.46095e-05
-1.46092e-05
-1.46094e-05
-1.46098e-05
-1.45918e-05
-1.45915e-05
-1.45913e-05
-1.45914e-05
-1.45918e-05
-1.45736e-05
-1.45734e-05
-1.45731e-05
-1.45733e-05
-1.45736e-05
-1.45553e-05
-1.4555e-05
-1.45548e-05
-1.45549e-05
-1.45553e-05
-1.45368e-05
-1.45365e-05
-1.45363e-05
-1.45364e-05
-1.45368e-05
-1.45181e-05
-1.45179e-05
-1.45177e-05
-1.45178e-05
-1.45181e-05
)
;

boundaryField
{
    BotWall
    {
        type            fixedFluxPressure;
        gradient        nonuniform 0();
        value           nonuniform 0();
    }
    FreeStream
    {
        type            totalPressure;
        rho             rho;
        psi             none;
        gamma           1;
        p0              nonuniform 0();
        value           nonuniform 0();
    }
    FrontNBack
    {
        type            empty;
    }
    LeftSide
    {
        type            symmetryPlane;
    }
    RightSide
    {
        type            symmetryPlane;
    }
    procBoundary1to0
    {
        type            processor;
        value           nonuniform List<scalar> 5(-1.48847e-05 -1.4884e-05 -1.48836e-05 -1.48838e-05 -1.48851e-05);
    }
    procBoundary1to2
    {
        type            processor;
        value           nonuniform List<scalar> 5(-1.44993e-05 -1.4499e-05 -1.44988e-05 -1.4499e-05 -1.44993e-05);
    }
}


// ************************************************************************* //
