/*--------------------------------*- C++ -*----------------------------------*\
| =========                 |                                                 |
| \\      /  F ield         | OpenFOAM: The Open Source CFD Toolbox           |
|  \\    /   O peration     | Version:  2.4.0                                 |
|   \\  /    A nd           | Web:      www.OpenFOAM.org                      |
|    \\/     M anipulation  |                                                 |
\*---------------------------------------------------------------------------*/
FoamFile
{
    version     2.0;
    format      ascii;
    class       surfaceScalarField;
    location    "1.7";
    object      phi;
}
// * * * * * * * * * * * * * * * * * * * * * * * * * * * * * * * * * * * * * //

dimensions      [0 3 -1 0 0 0 0];

internalField   nonuniform List<scalar> 
220
(
2.83916e-17
-3.41165e-10
2.1951e-17
-3.41165e-10
-1.65637e-17
-3.41165e-10
-3.49095e-17
-3.41165e-10
-3.41165e-10
2.72757e-17
-3.41165e-10
2.10807e-17
-3.41165e-10
-1.59463e-17
-3.41165e-10
-3.35568e-17
-3.41165e-10
-3.41165e-10
2.6167e-17
-3.41165e-10
2.02187e-17
-3.41165e-10
-1.53347e-17
-3.41165e-10
-3.22177e-17
-3.41165e-10
-3.41165e-10
2.50679e-17
-3.41165e-10
1.93653e-17
-3.41165e-10
-1.47288e-17
-3.41165e-10
-3.08944e-17
-3.41165e-10
-3.41165e-10
2.39796e-17
-3.41165e-10
1.85211e-17
-3.41165e-10
-1.4129e-17
-3.41165e-10
-2.95882e-17
-3.41165e-10
-3.41165e-10
2.29024e-17
-3.41165e-10
1.76866e-17
-3.41165e-10
-1.35358e-17
-3.41165e-10
-2.82996e-17
-3.41165e-10
-3.41165e-10
2.1837e-17
-3.41165e-10
1.68622e-17
-3.41165e-10
-1.29496e-17
-3.41165e-10
-2.70292e-17
-3.41165e-10
-3.41165e-10
2.07839e-17
-3.41165e-10
1.60484e-17
-3.41165e-10
-1.23706e-17
-3.41165e-10
-2.57777e-17
-3.41165e-10
-3.41165e-10
1.97439e-17
-3.41165e-10
1.52456e-17
-3.41165e-10
-1.17991e-17
-3.41165e-10
-2.45457e-17
-3.41165e-10
-3.41165e-10
1.87174e-17
-3.41165e-10
1.44543e-17
-3.41165e-10
-1.12355e-17
-3.41165e-10
-2.33338e-17
-3.41165e-10
-3.41165e-10
1.77053e-17
-3.41165e-10
1.36748e-17
-3.41165e-10
-1.06801e-17
-3.41165e-10
-2.21426e-17
-3.41165e-10
-3.41165e-10
1.6708e-17
-3.41165e-10
1.29076e-17
-3.41165e-10
-1.01332e-17
-3.41165e-10
-2.09725e-17
-3.41165e-10
-3.41165e-10
1.57262e-17
-3.41165e-10
1.21531e-17
-3.41165e-10
-9.59504e-18
-3.41165e-10
-1.98242e-17
-3.41165e-10
-3.41165e-10
1.47604e-17
-3.41165e-10
1.14117e-17
-3.41165e-10
-9.066e-18
-3.41165e-10
-1.86979e-17
-3.41165e-10
-3.41165e-10
1.38112e-17
-3.41165e-10
1.06837e-17
-3.41165e-10
-8.54633e-18
-3.41165e-10
-1.75944e-17
-3.41165e-10
-3.41165e-10
1.28791e-17
-3.41165e-10
9.96951e-18
-3.41165e-10
-8.0363e-18
-3.41165e-10
-1.65138e-17
-3.41165e-10
-3.41165e-10
1.19648e-17
-3.41165e-10
9.26954e-18
-3.41165e-10
-7.53618e-18
-3.41165e-10
-1.54568e-17
-3.41165e-10
-3.41165e-10
1.10687e-17
-3.41165e-10
8.58411e-18
-3.41165e-10
-7.04625e-18
-3.41165e-10
-1.44236e-17
-3.41165e-10
-3.41165e-10
1.01913e-17
-3.41165e-10
7.91357e-18
-3.41165e-10
-6.56673e-18
-3.41165e-10
-1.34147e-17
-3.41165e-10
-3.41165e-10
9.3332e-18
-3.41165e-10
7.25824e-18
-3.41165e-10
-6.09789e-18
-3.41165e-10
-1.24305e-17
-3.41165e-10
-3.41165e-10
8.49481e-18
-3.41165e-10
6.61843e-18
-3.41165e-10
-5.63995e-18
-3.41165e-10
-1.14712e-17
-3.41165e-10
-3.41165e-10
7.6766e-18
-3.41165e-10
5.99446e-18
-3.41165e-10
-5.19313e-18
-3.41165e-10
-1.05371e-17
-3.41165e-10
-3.41165e-10
6.87903e-18
-3.41165e-10
5.3866e-18
-3.41165e-10
-4.75764e-18
-3.41165e-10
-9.62872e-18
-3.41165e-10
-3.41165e-10
6.10251e-18
-3.41165e-10
4.79513e-18
-3.41165e-10
-4.33367e-18
-3.41165e-10
-8.74616e-18
-3.41165e-10
-3.41165e-10
5.34748e-18
4.22028e-18
-3.9214e-18
-7.88974e-18
)
;

boundaryField
{
    BotWall
    {
        type            calculated;
        value           nonuniform 0();
    }
    FreeStream
    {
        type            calculated;
        value           nonuniform 0();
    }
    FrontNBack
    {
        type            empty;
        value           nonuniform 0();
    }
    LeftSide
    {
        type            symmetryPlane;
        value           uniform 0;
    }
    RightSide
    {
        type            symmetryPlane;
        value           uniform 0;
    }
    procBoundary1to0
    {
        type            processor;
        value           nonuniform List<scalar> 5(3.41165e-10 3.41165e-10 3.41165e-10 3.41165e-10 3.41165e-10);
    }
    procBoundary1to2
    {
        type            processor;
        value           nonuniform List<scalar> 5(-3.41165e-10 -3.41165e-10 -3.41165e-10 -3.41165e-10 -3.41165e-10);
    }
}


// ************************************************************************* //
