/*--------------------------------*- C++ -*----------------------------------*\
| =========                 |                                                 |
| \\      /  F ield         | OpenFOAM: The Open Source CFD Toolbox           |
|  \\    /   O peration     | Version:  2.4.0                                 |
|   \\  /    A nd           | Web:      www.OpenFOAM.org                      |
|    \\/     M anipulation  |                                                 |
\*---------------------------------------------------------------------------*/
FoamFile
{
    version     2.0;
    format      ascii;
    class       volScalarField;
    location    "4.8";
    object      p_rgh;
}
// * * * * * * * * * * * * * * * * * * * * * * * * * * * * * * * * * * * * * //

dimensions      [1 -1 -2 0 0 0 0];

internalField   nonuniform List<scalar> 
125
(
-0.00390609
-0.00391259
-0.00392471
-0.00391963
-0.0039037
0.0013543
0.0013566
0.00135936
0.00135806
0.00135367
0.000392463
0.000393485
0.00039542
0.000394604
0.000392229
-3.07428e-05
-3.04199e-05
-2.95735e-05
-2.99051e-05
-3.07669e-05
-7.20874e-05
-7.18812e-05
-7.1339e-05
-7.15489e-05
-7.208e-05
-3.76283e-05
-3.73812e-05
-3.68153e-05
-3.70401e-05
-3.76339e-05
-2.15933e-05
-2.13208e-05
-2.07218e-05
-2.09616e-05
-2.16056e-05
-1.99878e-05
-1.97151e-05
-1.9116e-05
-1.93558e-05
-2.00002e-05
-2.11656e-05
-2.09001e-05
-2.03131e-05
-2.05479e-05
-2.11763e-05
-2.16039e-05
-2.13451e-05
-2.07706e-05
-2.10004e-05
-2.16133e-05
-2.14661e-05
-2.12129e-05
-2.06495e-05
-2.08749e-05
-2.14744e-05
-2.12171e-05
-2.0969e-05
-2.04162e-05
-2.06375e-05
-2.12245e-05
-2.09959e-05
-2.07529e-05
-2.02106e-05
-2.04277e-05
-2.10023e-05
-2.07955e-05
-2.05576e-05
-2.00258e-05
-2.02387e-05
-2.08009e-05
-2.05973e-05
-2.03645e-05
-1.98431e-05
-2.00519e-05
-2.06017e-05
-2.03957e-05
-2.01679e-05
-1.96569e-05
-1.98616e-05
-2.03993e-05
-2.01911e-05
-1.99683e-05
-1.94676e-05
-1.96682e-05
-2.01938e-05
-1.99842e-05
-1.97662e-05
-1.92758e-05
-1.94724e-05
-1.9986e-05
-1.97751e-05
-1.9562e-05
-1.90818e-05
-1.92744e-05
-1.97761e-05
-1.95638e-05
-1.93556e-05
-1.88855e-05
-1.90741e-05
-1.9564e-05
-1.93503e-05
-1.91468e-05
-1.86868e-05
-1.88714e-05
-1.93497e-05
-1.91345e-05
-1.89357e-05
-1.84857e-05
-1.86664e-05
-1.91331e-05
-1.89164e-05
-1.87223e-05
-1.82822e-05
-1.8459e-05
-1.89143e-05
-1.86959e-05
-1.85064e-05
-1.80762e-05
-1.82492e-05
-1.86932e-05
-1.8473e-05
-1.82882e-05
-1.78677e-05
-1.80368e-05
-1.84696e-05
)
;

boundaryField
{
    BotWall
    {
        type            fixedFluxPressure;
        gradient        nonuniform 0();
        value           nonuniform 0();
    }
    FreeStream
    {
        type            totalPressure;
        rho             rho;
        psi             none;
        gamma           1;
        p0              nonuniform 0();
        value           nonuniform 0();
    }
    FrontNBack
    {
        type            empty;
    }
    LeftSide
    {
        type            symmetryPlane;
    }
    RightSide
    {
        type            symmetryPlane;
    }
    procBoundary1to0
    {
        type            processor;
        value           nonuniform List<scalar> 5(-1.04614 -1.05379 -1.10411 -1.08571 -1.04141);
    }
    procBoundary1to2
    {
        type            processor;
        value           nonuniform List<scalar> 5(-1.82477e-05 -1.80674e-05 -1.76566e-05 -1.78219e-05 -1.82437e-05);
    }
}


// ************************************************************************* //
