/*--------------------------------*- C++ -*----------------------------------*\
| =========                 |                                                 |
| \\      /  F ield         | OpenFOAM: The Open Source CFD Toolbox           |
|  \\    /   O peration     | Version:  2.4.0                                 |
|   \\  /    A nd           | Web:      www.OpenFOAM.org                      |
|    \\/     M anipulation  |                                                 |
\*---------------------------------------------------------------------------*/
FoamFile
{
    version     2.0;
    format      ascii;
    class       surfaceScalarField;
    location    "4.8";
    object      phi;
}
// * * * * * * * * * * * * * * * * * * * * * * * * * * * * * * * * * * * * * //

dimensions      [0 3 -1 0 0 0 0];

internalField   nonuniform List<scalar> 
220
(
1.6109e-15
-1.73323e-10
2.30007e-15
-1.73611e-10
-6.40912e-16
-1.74325e-10
-2.35545e-15
-1.74023e-10
-1.73231e-10
1.18529e-15
-1.73325e-10
1.79848e-15
-1.73611e-10
-4.34376e-16
-1.74323e-10
-1.72395e-15
-1.74021e-10
-1.73233e-10
9.17665e-16
-1.73326e-10
1.4602e-15
-1.73612e-10
-3.07763e-16
-1.74321e-10
-1.35923e-15
-1.7402e-10
-1.73234e-10
6.74717e-16
-1.73326e-10
1.16908e-15
-1.73612e-10
-2.05242e-16
-1.7432e-10
-1.03896e-15
-1.7402e-10
-1.73235e-10
4.48802e-16
-1.73327e-10
8.90587e-16
-1.73613e-10
-1.09699e-16
-1.74319e-10
-7.31935e-16
-1.74019e-10
-1.73236e-10
2.39586e-16
-1.73327e-10
6.25545e-16
-1.73613e-10
-2.00442e-17
-1.74318e-10
-4.42531e-16
-1.74019e-10
-1.73236e-10
5.04898e-17
-1.73327e-10
3.81919e-16
-1.73614e-10
6.05506e-17
-1.74318e-10
-1.80558e-16
-1.74018e-10
-1.73237e-10
-1.16513e-16
-1.73327e-10
1.62806e-16
-1.73614e-10
1.30751e-16
-1.74318e-10
5.06109e-17
-1.74018e-10
-1.73237e-10
-2.60416e-16
-1.73327e-10
-3.07683e-17
-1.73614e-10
1.90151e-16
-1.74318e-10
2.50096e-16
-1.74018e-10
-1.73236e-10
-3.805e-16
-1.73326e-10
-1.9813e-16
-1.73614e-10
2.38529e-16
-1.74318e-10
4.17171e-16
-1.74018e-10
-1.73236e-10
-4.76092e-16
-1.73326e-10
-3.38388e-16
-1.73614e-10
2.75656e-16
-1.74319e-10
5.51087e-16
-1.74019e-10
-1.73235e-10
-5.46598e-16
-1.73325e-10
-4.50802e-16
-1.73614e-10
3.01322e-16
-1.7432e-10
6.51149e-16
-1.74019e-10
-1.73235e-10
-5.9156e-16
-1.73325e-10
-5.34778e-16
-1.73614e-10
3.15373e-16
-1.74321e-10
7.16843e-16
-1.74019e-10
-1.73234e-10
-6.10673e-16
-1.73324e-10
-5.89893e-16
-1.73615e-10
3.17725e-16
-1.74322e-10
7.47865e-16
-1.7402e-10
-1.73233e-10
-6.03801e-16
-1.73323e-10
-6.15901e-16
-1.73614e-10
3.08365e-16
-1.74322e-10
7.44131e-16
-1.7402e-10
-1.73233e-10
-5.7098e-16
-1.73323e-10
-6.12749e-16
-1.73614e-10
2.87353e-16
-1.74323e-10
7.05779e-16
-1.74021e-10
-1.73232e-10
-5.12424e-16
-1.73322e-10
-5.80577e-16
-1.73614e-10
2.54828e-16
-1.74324e-10
6.3318e-16
-1.74021e-10
-1.73231e-10
-4.28536e-16
-1.73322e-10
-5.19729e-16
-1.73614e-10
2.11008e-16
-1.74325e-10
5.26944e-16
-1.74021e-10
-1.73231e-10
-3.19908e-16
-1.73322e-10
-4.3076e-16
-1.73614e-10
1.5619e-16
-1.74326e-10
3.87924e-16
-1.74022e-10
-1.7323e-10
-1.87326e-16
-1.73321e-10
-3.14438e-16
-1.73614e-10
9.07554e-17
-1.74326e-10
2.17222e-16
-1.74022e-10
-1.7323e-10
-3.17739e-17
-1.73321e-10
-1.71744e-16
-1.73614e-10
1.51658e-17
-1.74326e-10
1.61781e-17
-1.74022e-10
-1.7323e-10
1.45572e-16
-1.73321e-10
-3.87177e-18
-1.73614e-10
-7.00201e-17
-1.74326e-10
-2.13431e-16
-1.74022e-10
-1.7323e-10
3.43344e-16
-1.73322e-10
1.87548e-16
-1.73614e-10
-1.64187e-16
-1.74326e-10
-4.69912e-16
-1.74021e-10
-1.73231e-10
5.59985e-16
-1.73322e-10
4.01078e-16
-1.73613e-10
-2.66636e-16
-1.74325e-10
-7.51187e-16
-1.74021e-10
-1.73231e-10
7.93765e-16
6.34888e-16
-3.76593e-16
-1.05496e-15
)
;

boundaryField
{
    BotWall
    {
        type            calculated;
        value           nonuniform 0();
    }
    FreeStream
    {
        type            calculated;
        value           nonuniform 0();
    }
    FrontNBack
    {
        type            empty;
        value           nonuniform 0();
    }
    LeftSide
    {
        type            symmetryPlane;
        value           uniform 0;
    }
    RightSide
    {
        type            symmetryPlane;
        value           uniform 0;
    }
    procBoundary1to0
    {
        type            processor;
        value           nonuniform List<scalar> 5(1.73322e-10 1.7361e-10 1.74328e-10 1.74024e-10 1.73229e-10);
    }
    procBoundary1to2
    {
        type            processor;
        value           nonuniform List<scalar> 5(-1.73323e-10 -1.73613e-10 -1.74324e-10 -1.7402e-10 -1.73233e-10);
    }
}


// ************************************************************************* //
