/*--------------------------------*- C++ -*----------------------------------*\
| =========                 |                                                 |
| \\      /  F ield         | OpenFOAM: The Open Source CFD Toolbox           |
|  \\    /   O peration     | Version:  2.4.0                                 |
|   \\  /    A nd           | Web:      www.OpenFOAM.org                      |
|    \\/     M anipulation  |                                                 |
\*---------------------------------------------------------------------------*/
FoamFile
{
    version     2.0;
    format      ascii;
    class       volScalarField;
    location    "0.016";
    object      H;
}
// * * * * * * * * * * * * * * * * * * * * * * * * * * * * * * * * * * * * * //

dimensions      [0 2 -2 0 0 0 0];

internalField   nonuniform List<scalar> 
125
(
-10970.5
-8445.38
-5906.45
-3350.6
-86.6134
-64.9897
-65.5039
-65.9414
-66.3027
-66.5884
-66.7995
-66.9367
-67.0012
-66.9942
-66.917
-66.7711
-66.5579
-66.2792
-65.9367
-65.5322
-65.0678
-64.5454
-63.9671
-63.3353
-62.652
-0.000696962
-0.000620092
-0.000551248
-0.000489644
-0.000434565
-0.000385361
-0.000341443
-0.000302276
-0.000267376
-0.000236304
-0.000208665
-0.000184101
-0.000162288
-0.000142935
-0.000125779
-0.000110585
-9.71405e-05
-8.52541e-05
-7.47548e-05
-6.54892e-05
-5.73196e-05
-5.0123e-05
-4.37894e-05
-3.82204e-05
-3.33282e-05
-2.90347e-05
-2.52701e-05
-2.19724e-05
-1.90865e-05
-1.65634e-05
-1.43596e-05
-1.24367e-05
-1.07604e-05
-9.30064e-06
-8.03069e-06
-6.92699e-06
-5.96877e-06
-5.1377e-06
-4.41769e-06
-3.7945e-06
-3.25575e-06
-2.79042e-06
-2.389e-06
-2.04306e-06
-1.74527e-06
-1.48921e-06
-1.26927e-06
-1.08058e-06
-9.1889e-07
-7.80473e-07
-6.62117e-07
-5.61088e-07
-4.74855e-07
-4.01426e-07
-3.38921e-07
-2.8581e-07
-2.40718e-07
-2.025e-07
-1.70122e-07
-1.42743e-07
-1.19631e-07
-1.00118e-07
-8.36857e-08
-6.98605e-08
-5.82394e-08
-4.84799e-08
-4.03136e-08
-3.34724e-08
-2.77647e-08
-2.29862e-08
-1.90046e-08
-1.56934e-08
-1.29472e-08
-1.06534e-08
-8.76352e-09
-7.20022e-09
-5.89935e-09
-4.81998e-09
-3.95349e-09
-3.20973e-09
-2.63954e-09
-2.12658e-09
-1.74201e-09
-1.39444e-09
-1.15074e-09
-9.10748e-10
-7.79392e-10
-5.91216e-10
-4.689e-10
-3.6102e-10
-3.51496e-10
-2.60187e-10
-1.74216e-10
-1.55801e-10
-1.5632e-10
-6.45244e-11
-4.92839e-11
-5.56128e-11
-4.80854e-11
-5.86388e-11
)
;

boundaryField
{
    BotWall
    {
        type            zeroGradient;
    }
    FreeStream
    {
        type            zeroGradient;
    }
    FrontNBack
    {
        type            empty;
    }
    LeftSide
    {
        type            symmetryPlane;
    }
    RightSide
    {
        type            symmetryPlane;
    }
    procBoundary7to4
    {
        type            processor;
        value           nonuniform List<scalar> 
50
(
-10970.6
-8445.65
-5906.89
-3351.22
-86.6871
-65.0435
-65.5538
-65.9874
-66.3448
-66.6267
-66.8338
-66.9672
-67.0278
-67.017
-66.936
-66.7862
-66.5693
-66.2868
-65.9405
-65.5324
-65.0643
-64.5383
-63.9566
-63.3212
-62.6346
-7.4094e-09
-6.07146e-09
-4.96595e-09
-4.083e-09
-3.3082e-09
-2.69575e-09
-2.20865e-09
-1.80807e-09
-1.41716e-09
-1.18728e-09
-9.73694e-10
-7.72219e-10
-6.25044e-10
-4.67618e-10
-3.8071e-10
-3.63544e-10
-2.55329e-10
-1.96969e-10
-1.54492e-10
-1.54875e-10
-7.2492e-11
-5.13076e-11
-4.94869e-11
-5.28493e-11
-5.31392e-11
)
;
    }
    procBoundary7to5
    {
        type            processor;
        value           nonuniform List<scalar> 
75
(
-0.000709329
-0.000631191
-0.000561199
-0.000498558
-0.000442542
-0.000392493
-0.000347813
-0.00030796
-0.000272443
-0.000240818
-0.000212681
-0.00018767
-0.000165458
-0.000145747
-0.000128272
-0.000112793
-9.90934e-05
-8.69801e-05
-7.62788e-05
-6.68335e-05
-5.85043e-05
-5.11661e-05
-4.47068e-05
-3.90265e-05
-3.40359e-05
-2.96553e-05
-2.58139e-05
-2.24484e-05
-1.95027e-05
-1.69269e-05
-1.46769e-05
-1.27133e-05
-1.10013e-05
-9.5102e-06
-8.21284e-06
-7.08513e-06
-6.10595e-06
-5.25656e-06
-4.52055e-06
-3.88345e-06
-3.33255e-06
-2.85671e-06
-2.44612e-06
-2.09223e-06
-1.78755e-06
-1.52553e-06
-1.30044e-06
-1.10729e-06
-9.41749e-07
-8.00024e-07
-6.78823e-07
-5.75317e-07
-4.86971e-07
-4.11756e-07
-3.47703e-07
-2.93269e-07
-2.47033e-07
-2.07843e-07
-1.74646e-07
-1.46566e-07
-1.22853e-07
-1.02828e-07
-8.59738e-08
-7.17703e-08
-5.98513e-08
-4.98323e-08
-4.14466e-08
-3.44197e-08
-2.85413e-08
-2.36454e-08
-1.95489e-08
-1.61527e-08
-1.33194e-08
-1.09674e-08
-9.02557e-09
)
;
    }
    procBoundary7to6
    {
        type            processor;
        value           uniform -61.9177;
    }
    procBoundary7to8
    {
        type            processor;
        value           uniform -0.000782739;
    }
    procBoundary7to9
    {
        type            processor;
        value           nonuniform List<scalar> 
75
(
-10972
-8449.82
-5913.82
-3360.86
-87.849
-65.9299
-66.4539
-66.8991
-67.2661
-67.5556
-67.7684
-67.9054
-67.9678
-67.9568
-67.8739
-67.7204
-67.498
-67.2084
-66.8535
-66.4351
-65.9553
-65.4162
-64.82
-64.169
-63.4655
-6.6854e-07
-5.66565e-07
-4.79509e-07
-4.05388e-07
-3.42294e-07
-2.88669e-07
-2.43144e-07
-2.04545e-07
-1.71853e-07
-1.44215e-07
-1.20862e-07
-1.01152e-07
-8.45536e-08
-7.05946e-08
-5.88586e-08
-4.89954e-08
-4.07502e-08
-3.38348e-08
-2.80604e-08
-2.32345e-08
-1.92124e-08
-1.58715e-08
-1.30866e-08
-1.07771e-08
-8.85135e-09
-7.29158e-09
-5.95508e-09
-4.88666e-09
-3.98894e-09
-3.26787e-09
-2.64888e-09
-2.15142e-09
-1.76944e-09
-1.39587e-09
-1.18058e-09
-9.25842e-10
-7.78514e-10
-6.05662e-10
-4.66859e-10
-3.63922e-10
-3.66117e-10
-2.55026e-10
-1.79488e-10
-1.59501e-10
-1.52153e-10
-6.7275e-11
-5.1686e-11
-5.26412e-11
-5.12436e-11
-5.21065e-11
)
;
    }
    procBoundary7to10
    {
        type            processor;
        value           nonuniform List<scalar> 
50
(
-0.000701992
-0.000624604
-0.000555291
-0.000493263
-0.000437801
-0.000388253
-0.000344024
-0.000304578
-0.000269426
-0.000238129
-0.000210288
-0.000185542
-0.000163567
-0.000144069
-0.000126784
-0.000111474
-9.79262e-05
-8.5948e-05
-7.53671e-05
-6.60289e-05
-5.77949e-05
-5.05412e-05
-4.41569e-05
-3.8543e-05
-3.36113e-05
-2.92827e-05
-2.54873e-05
-2.21623e-05
-1.92525e-05
-1.67083e-05
-1.44859e-05
-1.25467e-05
-1.08562e-05
-9.38387e-06
-8.10296e-06
-6.98971e-06
-6.02312e-06
-5.18474e-06
-4.45837e-06
-3.82964e-06
-3.28604e-06
-2.81654e-06
-2.41147e-06
-2.06239e-06
-1.76185e-06
-1.50342e-06
-1.28143e-06
-1.09098e-06
-9.27738e-07
-7.88015e-07
)
;
    }
}


// ************************************************************************* //
