/*--------------------------------*- C++ -*----------------------------------*\
| =========                 |                                                 |
| \\      /  F ield         | OpenFOAM: The Open Source CFD Toolbox           |
|  \\    /   O peration     | Version:  2.4.0                                 |
|   \\  /    A nd           | Web:      www.OpenFOAM.org                      |
|    \\/     M anipulation  |                                                 |
\*---------------------------------------------------------------------------*/
FoamFile
{
    version     2.0;
    format      ascii;
    class       volScalarField;
    location    "0.016";
    object      p_rgh;
}
// * * * * * * * * * * * * * * * * * * * * * * * * * * * * * * * * * * * * * //

dimensions      [1 -1 -2 0 0 0 0];

internalField   nonuniform List<scalar> 
125
(
0.0357744
0.0584741
-0.00179792
0.190774
-0.839468
-0.108191
0.0304807
0.0115301
-0.00295851
-0.00582138
-0.00510756
-0.00454856
-0.00443715
-0.00445875
-0.00447371
-0.00447128
-0.00446375
-0.00445648
-0.00444986
-0.00444341
-0.00443692
-0.00443039
-0.00442382
-0.00441722
-0.00441059
-0.00277145
-0.00275878
-0.00274606
-0.0027333
-0.00272049
-0.00270764
-0.00269473
-0.00268178
-0.00266878
-0.00265574
-0.00264264
-0.0026295
-0.00261631
-0.00260308
-0.00258979
-0.00257645
-0.00256307
-0.00254963
-0.00253615
-0.00252262
-0.00250904
-0.0024954
-0.00248172
-0.00246799
-0.00245421
-0.00244037
-0.00242649
-0.00241255
-0.00239857
-0.00238453
-0.00237044
-0.0023563
-0.00234211
-0.00232786
-0.00231356
-0.00229921
-0.00228481
-0.00227035
-0.00225585
-0.00224128
-0.00222667
-0.002212
-0.00219728
-0.0021825
-0.00216767
-0.00215278
-0.00213784
-0.00212284
-0.00210779
-0.00209269
-0.00207753
-0.00206231
-0.00204704
-0.00203171
-0.00201632
-0.00200088
-0.00198538
-0.00196982
-0.00195421
-0.00193854
-0.00192281
-0.00190702
-0.00189118
-0.00187528
-0.00185932
-0.0018433
-0.00182722
-0.00181108
-0.00179488
-0.00177863
-0.00176231
-0.00174593
-0.0017295
-0.001713
-0.00169644
-0.00167982
-0.00166314
-0.0016464
-0.0016296
-0.00161274
-0.00159581
-0.00157882
-0.00156177
-0.00154465
-0.00152748
-0.00151024
-0.00149293
-0.00147557
-0.00145813
-0.00144064
-0.00142308
-0.00140545
-0.00138776
-0.00137001
-0.00135219
-0.0013343
-0.00131635
-0.00129832
-0.00128023
-0.00126212
)
;

boundaryField
{
    BotWall
    {
        type            fixedFluxPressure;
        gradient        uniform 0;
        value           uniform 0.0357744;
    }
    FreeStream
    {
        type            totalPressure;
        rho             rho;
        psi             none;
        gamma           1;
        p0              uniform 0;
        value           uniform -0.0012531;
    }
    FrontNBack
    {
        type            empty;
    }
    LeftSide
    {
        type            symmetryPlane;
    }
    RightSide
    {
        type            symmetryPlane;
    }
    procBoundary7to4
    {
        type            processor;
        value           nonuniform List<scalar> 
50
(
0.0358425
0.0585397
-0.00169905
0.190723
-0.838841
-0.108118
0.0304732
0.0115323
-0.0029504
-0.00581224
-0.00509876
-0.00453998
-0.00442861
-0.00445019
-0.00446514
-0.0044627
-0.00445517
-0.0044479
-0.00444128
-0.00443483
-0.00442834
-0.00442181
-0.00441524
-0.00440865
-0.00440203
-0.00168032
-0.00166367
-0.00164696
-0.00163018
-0.00161335
-0.00159645
-0.00157949
-0.00156247
-0.00154539
-0.00152824
-0.00151103
-0.00149376
-0.00147643
-0.00145903
-0.00144156
-0.00142404
-0.00140644
-0.00138879
-0.00137107
-0.00135328
-0.00133543
-0.00131752
-0.00129955
-0.00128149
-0.00126325
)
;
    }
    procBoundary7to5
    {
        type            processor;
        value           nonuniform List<scalar> 
75
(
-0.00277032
-0.00275766
-0.00274496
-0.00273222
-0.00271942
-0.00270658
-0.0026937
-0.00268076
-0.00266778
-0.00265475
-0.00264167
-0.00262855
-0.00261538
-0.00260215
-0.00258888
-0.00257557
-0.0025622
-0.00254878
-0.00253532
-0.0025218
-0.00250824
-0.00249462
-0.00248096
-0.00246725
-0.00245348
-0.00243967
-0.0024258
-0.00241189
-0.00239792
-0.0023839
-0.00236983
-0.00235571
-0.00234154
-0.00232732
-0.00231304
-0.00229871
-0.00228433
-0.00226989
-0.00225541
-0.00224087
-0.00222627
-0.00221162
-0.00219692
-0.00218217
-0.00216736
-0.0021525
-0.00213758
-0.00212261
-0.00210758
-0.0020925
-0.00207736
-0.00206217
-0.00204692
-0.00203161
-0.00201625
-0.00200083
-0.00198536
-0.00196983
-0.00195424
-0.0019386
-0.00192289
-0.00190713
-0.00189132
-0.00187544
-0.00185951
-0.00184351
-0.00182746
-0.00181135
-0.00179518
-0.00177895
-0.00176267
-0.00174632
-0.00172991
-0.00171344
-0.00169691
)
;
    }
    procBoundary7to6
    {
        type            processor;
        value           uniform -0.00440394;
    }
    procBoundary7to8
    {
        type            processor;
        value           uniform -0.00278407;
    }
    procBoundary7to9
    {
        type            processor;
        value           nonuniform List<scalar> 
75
(
0.0349486
0.0575978
-0.00211913
0.187942
-0.830126
-0.107127
0.0302135
0.0114241
-0.00296712
-0.0058129
-0.00510469
-0.00454936
-0.00443854
-0.00445992
-0.00447475
-0.00447229
-0.00446476
-0.0044575
-0.00445088
-0.00444443
-0.00443794
-0.00443141
-0.00442484
-0.00441825
-0.00441163
-0.00207866
-0.00206343
-0.00204815
-0.00203282
-0.00201742
-0.00200197
-0.00198647
-0.0019709
-0.00195528
-0.0019396
-0.00192387
-0.00190808
-0.00189223
-0.00187632
-0.00186035
-0.00184432
-0.00182824
-0.00181209
-0.00179589
-0.00177963
-0.0017633
-0.00174692
-0.00173048
-0.00171397
-0.00169741
-0.00168078
-0.0016641
-0.00164735
-0.00163054
-0.00161367
-0.00159674
-0.00157974
-0.00156269
-0.00154556
-0.00152838
-0.00151114
-0.00149383
-0.00147645
-0.00145902
-0.00144152
-0.00142395
-0.00140632
-0.00138862
-0.00137086
-0.00135304
-0.00133515
-0.00131719
-0.00129918
-0.00128108
-0.00126286
)
;
    }
    procBoundary7to10
    {
        type            processor;
        value           nonuniform List<scalar> 
50
(
-0.00277302
-0.00276034
-0.00274762
-0.00273485
-0.00272203
-0.00270916
-0.00269625
-0.00268329
-0.00267029
-0.00265723
-0.00264413
-0.00263098
-0.00261778
-0.00260453
-0.00259124
-0.00257789
-0.0025645
-0.00255106
-0.00253757
-0.00252402
-0.00251043
-0.00249679
-0.0024831
-0.00246936
-0.00245557
-0.00244173
-0.00242783
-0.00241389
-0.00239989
-0.00238585
-0.00237175
-0.0023576
-0.0023434
-0.00232914
-0.00231484
-0.00230048
-0.00228607
-0.0022716
-0.00225709
-0.00224252
-0.00222789
-0.00221321
-0.00219848
-0.0021837
-0.00216886
-0.00215396
-0.00213901
-0.00212401
-0.00210895
-0.00209383
)
;
    }
}


// ************************************************************************* //
