/*--------------------------------*- C++ -*----------------------------------*\
| =========                 |                                                 |
| \\      /  F ield         | OpenFOAM: The Open Source CFD Toolbox           |
|  \\    /   O peration     | Version:  2.4.0                                 |
|   \\  /    A nd           | Web:      www.OpenFOAM.org                      |
|    \\/     M anipulation  |                                                 |
\*---------------------------------------------------------------------------*/
FoamFile
{
    version     2.0;
    format      ascii;
    class       volScalarField;
    location    "4.3";
    object      p;
}
// * * * * * * * * * * * * * * * * * * * * * * * * * * * * * * * * * * * * * //

dimensions      [1 -1 -2 0 0 0 0];

internalField   nonuniform List<scalar> 
8000
(
-0.00363992
-0.000627049
0.00240191
0.00490992
0.00678253
0.00861766
0.0137218
0.0277693
0.0390301
-0.0375855
-0.332879
-0.446553
0.160469
0.159591
0.15934
0.15967
0.160324
0.161144
0.162031
0.162914
0.163746
0.164498
0.165155
0.16571
0.166158
0.1665
0.166733
0.166859
0.166877
0.166787
0.166591
0.166288
0.165881
0.165368
0.164753
0.164035
0.163217
0.1623
0.161286
0.160175
0.158972
0.157676
0.156291
0.154818
0.153261
0.151621
0.149901
0.148103
0.146231
0.144287
0.179279
0.183841
0.188657
0.19264
0.195487
0.197925
0.204557
0.223768
0.24066
0.137054
-0.284164
-0.593624
0.283633
0.285093
0.28421
0.283622
0.283151
0.282676
0.282161
0.281597
0.280974
0.280289
0.279538
0.278722
0.277843
0.276903
0.275904
0.274848
0.273737
0.272574
0.271361
0.270098
0.268789
0.267434
0.266034
0.264593
0.263109
0.261586
0.260023
0.258423
0.256785
0.255112
0.253404
0.251662
0.249887
0.248079
0.24624
0.244371
0.242471
0.240542
0.398426
0.401859
0.405413
0.408209
0.409856
0.411093
0.41755
0.44017
0.463196
0.340055
-0.183493
-0.669243
0.507781
0.508021
0.507547
0.507216
0.506942
0.506633
0.506253
0.505789
0.505233
0.504578
0.503819
0.502953
0.501977
0.500892
0.499695
0.498386
0.496966
0.495433
0.493787
0.492029
0.490159
0.488178
0.486085
0.483882
0.481569
0.479148
0.476618
0.473983
0.471242
0.468397
0.46545
0.462402
0.459255
0.456011
0.452671
0.449237
0.445712
0.442098
0.700854
0.702624
0.704479
0.705814
0.706065
0.705907
0.712457
0.741088
0.776218
0.631908
-0.0641737
-0.924487
0.667531
0.668162
0.667578
0.66715
0.666787
0.66637
0.66585
0.665211
0.664443
0.663543
0.662507
0.661336
0.660029
0.658587
0.657011
0.655303
0.653463
0.651493
0.649393
0.647166
0.644812
0.642334
0.639731
0.637007
0.634162
0.631198
0.628117
0.62492
0.621609
0.618187
0.614654
0.611014
0.607267
0.603415
0.599462
0.595409
0.591257
0.587011
1.05773
1.05601
1.05438
1.05283
1.05064
1.04835
1.05414
1.08682
1.13173
0.974506
0.14647
-1.02456
0.833154
0.833525
0.833001
0.832583
0.832199
0.831745
0.831177
0.830481
0.829648
0.828673
0.827553
0.826285
0.824871
0.823308
0.821598
0.819741
0.817737
0.815586
0.81329
0.810848
0.808261
0.805532
0.802659
0.799645
0.796491
0.793197
0.789766
0.786198
0.782496
0.77866
0.774692
0.770595
0.766369
0.762017
0.757541
0.752943
0.748225
0.743389
1.3314
1.32647
1.32138
1.3167
1.31167
1.30679
1.31067
1.34302
1.38802
1.22211
0.355754
-0.902883
0.977133
0.977455
0.97691
0.976461
0.976041
0.975549
0.97494
0.974197
0.97331
0.972273
0.971084
0.969741
0.968244
0.966593
0.964787
0.962827
0.960714
0.958447
0.956028
0.953457
0.950735
0.947863
0.944841
0.941671
0.938354
0.93489
0.931282
0.92753
0.923635
0.9196
0.915426
0.911115
0.906667
0.902086
0.897372
0.892529
0.887557
0.882459
1.514
1.50557
1.4963
1.48711
1.47723
1.46731
1.46546
1.48855
1.51549
1.33458
0.527954
-0.534179
1.10713
1.10726
1.10669
1.10625
1.10587
1.10545
1.10494
1.10431
1.10354
1.10263
1.10157
1.10035
1.09898
1.09745
1.09576
1.09391
1.0919
1.08973
1.0874
1.08491
1.08226
1.07945
1.07649
1.07336
1.07008
1.06665
1.06306
1.05932
1.05542
1.05138
1.04718
1.04284
1.03836
1.03372
1.02895
1.02404
1.01898
1.0138
1.59595
1.58385
1.57038
1.55759
1.54518
1.53476
1.53481
1.55446
1.54829
1.30343
0.606997
0.0156152
1.21093
1.21165
1.21148
1.21159
1.21191
1.21223
1.21246
1.21254
1.21244
1.21214
1.21164
1.21094
1.21005
1.20895
1.20767
1.20619
1.20452
1.20266
1.20062
1.1984
1.196
1.19342
1.19066
1.18773
1.18464
1.18137
1.17793
1.17434
1.17058
1.16666
1.16258
1.15835
1.15396
1.14942
1.14474
1.1399
1.13492
1.1298
1.92692
1.91063
1.89356
1.87675
1.86036
1.85941
1.91422
2.00991
1.75462
0.117388
-2.44084
1.18442
1.32004
1.31663
1.31648
1.31654
1.31662
1.31666
1.31659
1.31637
1.31596
1.31537
1.31459
1.31362
1.31246
1.31112
1.3096
1.3079
1.30603
1.30398
1.30177
1.29939
1.29684
1.29414
1.29127
1.28825
1.28506
1.28173
1.27824
1.2746
1.27081
1.26688
1.26279
1.25857
1.25419
1.24968
1.24502
1.24023
1.2353
1.23023
1.4237
1.37455
1.32092
1.27382
1.23992
1.23761
1.26726
1.16616
0.451093
-0.851054
0.421751
1.40647
1.40813
1.40645
1.40524
1.40434
1.40348
1.40256
1.40155
1.40044
1.39921
1.39786
1.39639
1.3948
1.39308
1.39124
1.38927
1.38717
1.38495
1.3826
1.38013
1.37753
1.3748
1.37195
1.36897
1.36586
1.36263
1.35927
1.35579
1.35217
1.34843
1.34456
1.34057
1.33644
1.33219
1.32781
1.32331
1.31867
1.31391
1.30902
1.53222
1.45633
1.38018
1.32168
1.29605
1.30202
1.19758
0.550499
-0.669841
0.132965
1.44939
1.45398
1.45149
1.45107
1.45035
1.44955
1.44869
1.44776
1.44673
1.44562
1.44441
1.44311
1.44172
1.44023
1.43864
1.43695
1.43517
1.43328
1.4313
1.4292
1.427
1.4247
1.42228
1.41975
1.41711
1.41436
1.41148
1.4085
1.40539
1.40216
1.39882
1.39535
1.39176
1.38804
1.3842
1.38024
1.37615
1.37193
1.36759
1.36311
-2.77624
-2.85922
-2.94392
-2.98043
-2.98411
-3.31364
-4.89498
-7.27394
-0.855152
1.46005
1.47663
1.47316
1.47173
1.47157
1.47134
1.47088
1.47036
1.46974
1.46896
1.46799
1.46687
1.46561
1.46426
1.46282
1.46131
1.45974
1.4581
1.45639
1.45462
1.45278
1.45087
1.44887
1.44679
1.44462
1.44235
1.43999
1.43752
1.43495
1.43228
1.42949
1.42658
1.42356
1.42043
1.41717
1.41378
1.41028
1.40664
1.40288
1.39898
1.39496
-4.63087
-4.63673
-4.6427
-4.63498
-4.66341
-5.062
-6.34656
-6.68346
0.907606
1.28203
1.42435
1.43233
1.45125
1.45876
1.46129
1.46075
1.45994
1.45903
1.45822
1.45757
1.45698
1.45643
1.45593
1.45546
1.45498
1.45443
1.45379
1.45303
1.45217
1.45119
1.45009
1.44887
1.44753
1.44607
1.4445
1.44282
1.44102
1.43911
1.43707
1.43491
1.43263
1.43021
1.42765
1.42496
1.42213
1.41915
1.41603
1.41276
1.40935
1.40579
-5.99556
-5.85615
-5.72203
-5.60324
-5.46512
-5.29765
-5.35903
-6.46914
-8.81534
-12.4331
-2.95316
-3.70814
1.24475
1.37107
1.38198
1.42124
1.44173
1.44612
1.44835
1.44861
1.44799
1.4477
1.44746
1.44723
1.4468
1.44626
1.44564
1.44496
1.44419
1.44333
1.44239
1.44138
1.4403
1.43916
1.43792
1.43658
1.43511
1.43349
1.43172
1.4298
1.42773
1.4255
1.42312
1.42059
1.41789
1.41504
1.41203
1.40886
1.40553
1.40203
3.28959
3.34943
3.43679
3.53974
3.65913
3.79701
3.94378
4.04821
4.07063
3.67312
2.83888
2.32219
-9.39606
-11.2478
-3.47201
-2.33115
0.871105
1.1895
1.24645
1.34564
1.38911
1.38339
1.40217
1.42872
1.43713
1.43268
1.42961
1.42913
1.42991
1.43023
1.42987
1.42911
1.42809
1.42682
1.42532
1.42361
1.42171
1.41965
1.41744
1.4151
1.41261
1.40997
1.40717
1.40421
1.40109
1.3978
1.39436
1.39075
1.38698
1.38304
1.59955
1.63894
1.68309
1.73044
1.7831
1.84131
1.90663
1.98086
2.06601
2.14551
2.17338
2.19607
2.09011
1.91233
1.66487
1.58157
-4.62681
-8.20702
-6.80952
-6.1151
-2.13167
0.622201
1.44716
1.5356
1.42761
1.35957
1.36138
1.37967
1.39428
1.39029
1.3812
1.37813
1.37854
1.37905
1.37874
1.37763
1.37599
1.37404
1.37186
1.36946
1.36687
1.36408
1.36111
1.35796
1.35463
1.35112
1.34743
1.34356
1.33952
1.33529
2.82314
2.8698
2.91828
2.95973
2.99453
3.02374
3.04763
3.06608
3.07897
3.08607
3.08756
3.0863
3.09208
3.10276
3.10973
3.14455
3.1494
3.12327
2.94864
2.57748
2.17857
2.71818
-5.35377
-4.69587
-5.36035
-2.54064
1.06777
2.18971
1.93228
1.41578
1.28712
1.29837
1.29947
1.28872
1.28118
1.27887
1.27853
1.27809
1.27693
1.27521
1.27322
1.27104
1.26863
1.26598
1.2631
1.26001
1.2567
1.25319
1.24948
1.24556
5.17049
5.16024
5.1529
5.15056
5.15281
5.15918
5.16957
5.1839
5.20219
5.22439
5.25046
5.28043
5.31449
5.35279
5.39528
5.44273
5.49935
5.57098
5.66653
5.78445
5.90007
6.07949
6.15183
5.99586
5.32685
1.07742
-0.475981
-5.44041
-5.0921
-2.07869
1.40414
2.40104
1.79092
1.24838
1.14902
1.1456
1.1449
1.14424
1.14472
1.14545
1.14517
1.14358
1.1413
1.13883
1.13627
1.13355
1.13062
1.12747
1.12412
1.12057
5.81408
5.78942
5.76446
5.74471
5.7302
5.72006
5.7142
5.71258
5.71513
5.72189
5.73291
5.74819
5.76777
5.79172
5.82005
5.85279
5.89001
5.9319
5.97868
6.03057
6.08743
6.15058
6.23124
6.28563
6.35425
6.41326
6.51033
6.447
5.86279
1.60165
0.498532
-3.23664
-2.06804
0.195715
1.30681
1.22302
1.05176
1.0083
0.990024
0.977612
0.97129
0.969522
0.96916
0.967973
0.965912
0.963728
0.961657
0.959568
0.957328
0.954887
6.08071
6.04994
6.01794
5.99091
5.96883
5.95068
5.93643
5.92588
5.91911
5.91607
5.91672
5.92102
5.9289
5.94033
5.95526
5.97364
5.99541
6.02051
6.04884
6.0803
6.11493
6.15349
6.1933
6.21853
6.26411
6.32333
6.33735
6.39773
6.43231
6.48385
6.54948
6.41401
4.16957
0.158659
-1.97347
-0.726788
0.55016
1.02515
0.976813
0.855887
0.792722
0.765251
0.753484
0.749918
0.749498
0.748967
0.748081
0.747496
0.747266
0.747116
0.142274
0.140196
0.138054
0.135852
0.133594
0.131282
0.12892
0.126511
0.124058
0.121564
0.119033
0.116469
0.113873
0.111251
0.108604
0.105937
0.103252
0.100552
0.0978417
0.0951229
0.092399
0.089673
0.0869478
0.0842263
0.0815112
0.0788052
0.0761109
0.0734308
0.0707674
0.0681231
0.0654999
0.0629001
0.0603257
0.0577787
0.0552607
0.0527736
0.050319
0.0478982
0.0455128
0.0431639
0.0408527
0.0385803
0.0363478
0.0341564
0.0320061
0.0298958
0.0278272
0.0258114
0.0238569
0.0219231
0.238585
0.2366
0.234588
0.23255
0.230486
0.228397
0.226283
0.224146
0.221986
0.219804
0.217599
0.215374
0.213128
0.210863
0.208578
0.206276
0.203955
0.201618
0.199265
0.196896
0.194513
0.192116
0.189706
0.187284
0.18485
0.182406
0.179952
0.17749
0.175019
0.172541
0.170058
0.167568
0.165075
0.162578
0.160079
0.157578
0.155077
0.152576
0.150076
0.147579
0.145085
0.142595
0.140111
0.137633
0.135163
0.132702
0.130251
0.127802
0.125355
0.122948
0.438396
0.434608
0.430738
0.426788
0.42276
0.418655
0.414478
0.410231
0.405915
0.401534
0.397091
0.392588
0.388027
0.383413
0.378747
0.374032
0.369272
0.364469
0.359625
0.354744
0.349829
0.344883
0.339908
0.334907
0.329883
0.32484
0.319779
0.314703
0.309616
0.30452
0.299418
0.294312
0.289205
0.284099
0.278998
0.273904
0.268819
0.263745
0.258686
0.253642
0.248618
0.243614
0.238633
0.233677
0.228749
0.223848
0.218978
0.214143
0.209352
0.204594
0.58267
0.578239
0.573719
0.569112
0.564421
0.559649
0.554798
0.54987
0.544868
0.539795
0.534652
0.529444
0.524171
0.518838
0.513446
0.507999
0.502499
0.496948
0.49135
0.485708
0.480023
0.474299
0.468538
0.462744
0.456918
0.451064
0.445185
0.439282
0.433359
0.427418
0.421463
0.415495
0.409517
0.403532
0.397542
0.39155
0.385558
0.379569
0.373586
0.367609
0.361643
0.355689
0.34975
0.343827
0.337924
0.332042
0.326182
0.320345
0.314535
0.308767
0.738438
0.733373
0.728197
0.722913
0.717523
0.71203
0.706436
0.700744
0.694957
0.689077
0.683107
0.677051
0.67091
0.664688
0.658388
0.652014
0.645567
0.63905
0.632468
0.625823
0.619118
0.612356
0.605541
0.598675
0.591762
0.584805
0.577806
0.570769
0.563698
0.556594
0.549462
0.542305
0.535124
0.527924
0.520708
0.513478
0.506238
0.498989
0.491737
0.484482
0.477228
0.469978
0.462735
0.455501
0.448279
0.441071
0.433878
0.426707
0.419563
0.412448
0.877238
0.871894
0.866432
0.860852
0.855157
0.849351
0.843434
0.83741
0.831282
0.825052
0.818722
0.812296
0.805776
0.799165
0.792466
0.785682
0.778815
0.771869
0.764846
0.75775
0.750583
0.743349
0.73605
0.72869
0.721271
0.713796
0.706269
0.698693
0.691071
0.683405
0.675699
0.667956
0.660178
0.65237
0.644533
0.636671
0.628787
0.620883
0.612964
0.60503
0.597087
0.589135
0.581179
0.573221
0.565263
0.557309
0.549359
0.541417
0.53349
0.525586
1.00847
1.00302
0.997432
0.991718
0.985879
0.979916
0.973832
0.96763
0.961311
0.954879
0.948336
0.941684
0.934927
0.928067
0.921106
0.914047
0.906894
0.899648
0.892314
0.884893
0.877388
0.869803
0.86214
0.854403
0.846593
0.838715
0.830771
0.822765
0.814698
0.806575
0.798397
0.790169
0.781894
0.773573
0.765211
0.75681
0.748373
0.739903
0.731403
0.722877
0.714327
0.705755
0.697166
0.688561
0.679945
0.671318
0.662683
0.654045
0.645411
0.636783
1.12454
1.11914
1.1136
1.10793
1.10213
1.0962
1.09014
1.08396
1.07765
1.07123
1.06468
1.05803
1.05125
1.04437
1.03738
1.03029
1.02309
1.01579
1.00839
1.0009
0.993319
0.985645
0.977885
0.97004
0.962113
0.954108
0.946026
0.937871
0.929646
0.921352
0.912994
0.904574
0.896094
0.887558
0.878968
0.870327
0.861638
0.852905
0.844129
0.835313
0.826462
0.817576
0.80866
0.799715
0.790746
0.781753
0.77274
0.763709
0.754669
0.745623
1.22503
1.21969
1.21422
1.20862
1.20289
1.19704
1.19106
1.18495
1.17872
1.17237
1.1659
1.15932
1.15262
1.14581
1.13888
1.13185
1.1247
1.11746
1.1101
1.10265
1.0951
1.08745
1.07971
1.07187
1.06395
1.05594
1.04784
1.03966
1.0314
1.02306
1.01464
1.00616
0.997601
0.988976
0.980287
0.971534
0.962723
0.953854
0.94493
0.935955
0.926931
0.91786
0.908746
0.899591
0.890398
0.881169
0.871906
0.862613
0.853298
0.843962
1.30401
1.29887
1.29361
1.28821
1.2827
1.27706
1.2713
1.26541
1.25941
1.25328
1.24703
1.24067
1.23418
1.22759
1.22087
1.21405
1.20711
1.20006
1.1929
1.18564
1.17827
1.17079
1.16322
1.15554
1.14777
1.1399
1.13193
1.12388
1.11573
1.1075
1.09918
1.09078
1.0823
1.07373
1.0651
1.05639
1.04761
1.03876
1.02984
1.02086
1.01182
1.00272
0.993565
0.984357
0.975099
0.965792
0.956439
0.947043
0.937612
0.928148
1.35851
1.35378
1.34892
1.34394
1.33882
1.33358
1.3282
1.3227
1.31708
1.31132
1.30544
1.29943
1.2933
1.28704
1.28066
1.27416
1.26753
1.26079
1.25393
1.24695
1.23985
1.23264
1.22532
1.21789
1.21035
1.2027
1.19495
1.18709
1.17913
1.17108
1.16293
1.15468
1.14634
1.13791
1.12939
1.12078
1.11209
1.10333
1.09448
1.08556
1.07656
1.0675
1.05836
1.04917
1.0399
1.03058
1.0212
1.01177
1.00228
0.992756
1.3908
1.3865
1.38208
1.37752
1.37282
1.36798
1.36301
1.35791
1.35266
1.34728
1.34177
1.33611
1.33033
1.32441
1.31835
1.31217
1.30585
1.2994
1.29282
1.28611
1.27928
1.27232
1.26524
1.25803
1.25071
1.24327
1.23571
1.22804
1.22026
1.21236
1.20436
1.19625
1.18804
1.17973
1.17132
1.16281
1.15421
1.14552
1.13674
1.12787
1.11892
1.10989
1.10079
1.0916
1.08235
1.07302
1.06363
1.05417
1.04465
1.03508
1.40208
1.39821
1.3942
1.39003
1.38572
1.38125
1.37663
1.37185
1.36693
1.36185
1.35662
1.35124
1.34572
1.34004
1.33422
1.32825
1.32214
1.31588
1.30948
1.30294
1.29627
1.28945
1.28251
1.27543
1.26822
1.26088
1.25341
1.24582
1.23811
1.23028
1.22233
1.21426
1.20609
1.1978
1.18941
1.18091
1.17232
1.16362
1.15482
1.14594
1.13696
1.12789
1.11874
1.10951
1.1002
1.09081
1.08134
1.07181
1.06221
1.05255
1.39838
1.39456
1.39058
1.38644
1.38214
1.37767
1.37304
1.36826
1.36331
1.3582
1.35294
1.34751
1.34193
1.3362
1.33032
1.32428
1.31809
1.31175
1.30527
1.29864
1.29187
1.28496
1.27791
1.27072
1.2634
1.25595
1.24837
1.24066
1.23283
1.22487
1.2168
1.2086
1.2003
1.19188
1.18335
1.17472
1.16598
1.15714
1.14821
1.13918
1.13005
1.12084
1.11155
1.10217
1.0927
1.08317
1.07355
1.06387
1.05412
1.0443
1.37895
1.3747
1.37028
1.36571
1.36098
1.35609
1.35104
1.34584
1.34048
1.33496
1.32929
1.32347
1.3175
1.31138
1.30511
1.2987
1.29214
1.28544
1.27859
1.27161
1.26449
1.25724
1.24985
1.24233
1.23468
1.22691
1.21901
1.21099
1.20285
1.1946
1.18623
1.17775
1.16915
1.16046
1.15166
1.14275
1.13375
1.12466
1.11547
1.10619
1.09682
1.08737
1.07784
1.06823
1.05854
1.04879
1.03896
1.02906
1.0191
1.00909
1.33089
1.32632
1.32158
1.31668
1.3116
1.30637
1.30097
1.29541
1.2897
1.28382
1.2778
1.27162
1.26529
1.25881
1.25219
1.24543
1.23852
1.23147
1.22428
1.21696
1.20951
1.20193
1.19421
1.18638
1.17841
1.17033
1.16213
1.15381
1.14538
1.13684
1.12819
1.11944
1.11058
1.10162
1.09257
1.08342
1.07418
1.06485
1.05543
1.04593
1.03635
1.0267
1.01696
1.00716
0.997286
0.987347
0.977343
0.967279
0.95716
0.946992
1.24145
1.23713
1.23262
1.22791
1.22302
1.21794
1.21269
1.20725
1.20164
1.19585
1.1899
1.18378
1.1775
1.17106
1.16446
1.1577
1.1508
1.14375
1.13655
1.12921
1.12174
1.11413
1.10638
1.09851
1.09051
1.08238
1.07414
1.06578
1.0573
1.04871
1.04002
1.03122
1.02232
1.01331
1.00422
0.995024
0.985744
0.976376
0.966925
0.957394
0.947784
0.938101
0.928345
0.918522
0.908633
0.898682
0.888672
0.878604
0.868486
0.858324
1.11681
1.11286
1.10871
1.10437
1.09983
1.0951
1.09019
1.08509
1.07981
1.07435
1.06871
1.06291
1.05693
1.05079
1.04449
1.03803
1.03141
1.02464
1.01772
1.01065
1.00344
0.996087
0.988598
0.980976
0.973224
0.965344
0.957341
0.949217
0.940976
0.932621
0.924155
0.915582
0.906905
0.898128
0.889253
0.880284
0.871225
0.862078
0.852847
0.843535
0.834146
0.824682
0.815148
0.805546
0.795879
0.786152
0.776366
0.766524
0.756632
0.7467
0.95223
0.949353
0.946257
0.942946
0.939423
0.935691
0.931753
0.927611
0.923269
0.918731
0.914
0.909078
0.90397
0.898679
0.893208
0.887562
0.881742
0.875754
0.869601
0.863286
0.856812
0.850185
0.843407
0.836482
0.829414
0.822207
0.814864
0.807388
0.799785
0.792056
0.784207
0.776241
0.768162
0.759972
0.751677
0.74328
0.734784
0.726193
0.717511
0.708742
0.699889
0.690956
0.681946
0.672864
0.663713
0.654496
0.645216
0.635877
0.626484
0.617047
0.746834
0.746323
0.745544
0.744484
0.743141
0.741519
0.739625
0.737466
0.735046
0.732373
0.72945
0.726284
0.72288
0.719244
0.715381
0.711297
0.706997
0.702486
0.697769
0.692853
0.687741
0.68244
0.676954
0.671288
0.665447
0.659437
0.653263
0.646928
0.640439
0.633799
0.627015
0.62009
0.613029
0.605837
0.598518
0.591078
0.583521
0.575851
0.568073
0.560192
0.552211
0.544136
0.53597
0.527719
0.519386
0.510975
0.502492
0.493938
0.48532
0.476647
0.0203841
0.0193268
0.0182868
0.0172606
0.0162475
0.0152478
0.0142619
0.01329
0.0123325
0.0113895
0.0104613
0.00954824
0.00865043
0.00776813
0.00690154
0.00605084
0.00521622
0.00439785
0.00359588
0.00281045
0.00204171
0.00128975
0.000554698
-0.000163362
-0.000864349
-0.00154819
-0.00221484
-0.00286425
-0.0034964
-0.00411126
-0.00470883
-0.00528912
-0.00585216
-0.00639798
-0.00692662
-0.00743815
-0.00793264
-0.00841017
-0.00887083
-0.00931474
-0.00974201
-0.0101528
-0.0105472
-0.0109254
-0.0112875
-0.0116338
-0.0119643
-0.0122794
-0.0125792
-0.0128639
-0.0131337
-0.0133888
-0.0136296
-0.0138562
-0.0140689
-0.014268
-0.0144536
-0.0146261
-0.0147858
-0.0149329
-0.0150678
-0.0151906
-0.0153017
-0.0154014
-0.01549
-0.0155678
-0.0156351
-0.0156922
-0.0157394
-0.015777
-0.0158053
-0.0158246
-0.0158353
-0.0158376
-0.0158319
-0.0158184
-0.0157975
-0.0157694
-0.0157345
-0.015693
-0.0156453
-0.0155916
-0.0155323
-0.0154675
-0.0153976
-0.0153229
-0.0152436
-0.01516
-0.0150723
-0.0149809
-0.0148859
-0.0147876
-0.0146863
-0.0145821
-0.0144754
-0.0143663
-0.0142551
-0.014142
-0.0140272
-0.0139109
-0.0137932
-0.0136745
-0.0135549
-0.0134345
-0.0133136
-0.0131923
-0.0130708
-0.0129492
-0.0128277
-0.0127065
-0.0125856
-0.0124653
-0.0123456
-0.0122267
-0.0121088
-0.0119918
-0.011876
-0.0117614
-0.0116481
-0.0115363
-0.011426
-0.0113173
-0.0112104
-0.0111051
-0.0110018
-0.0109003
-0.0108009
-0.0107035
-0.0106082
-0.0105151
-0.0104242
-0.0103355
-0.0102492
-0.0101653
-0.0100837
-0.0100046
-0.009928
-0.00985388
-0.0097823
-0.00971329
-0.00964688
-0.00958309
-0.00952196
-0.00946349
-0.00940772
-0.00935466
-0.00930433
-0.00925674
-0.00921191
-0.00916984
-0.00913054
-0.00909401
-0.00906024
-0.00902922
-0.00900095
-0.00897539
-0.00895255
-0.0089324
-0.00891492
-0.0089001
-0.00888791
-0.00887833
-0.00887135
-0.00886692
-0.00886504
-0.00886567
-0.00886879
-0.00887437
-0.00888239
-0.00889281
-0.00890561
-0.00892077
-0.00893825
-0.00895804
-0.00898009
-0.00900438
-0.00903087
-0.00905954
-0.00909034
-0.00912323
-0.0091582
-0.00919521
-0.00923424
-0.0092753
-0.00931837
-0.00936347
-0.00941062
-0.00945983
-0.00951114
-0.00956456
-0.00962013
-0.00967787
-0.00973783
-0.00980007
-0.00986466
-0.00993167
-0.0100012
-0.0100734
-0.0101483
-0.010226
-0.0103067
-0.0103905
-0.0104774
-0.0105677
-0.0106613
-0.0107584
-0.010859
-0.0109629
-0.0110699
-0.0111795
-0.011291
-0.011403
-0.0115138
-0.0116205
-0.0117192
-0.0118042
-0.0118675
-0.0118963
-0.0118804
-0.0118347
-0.0117795
-0.0117597
-0.0117659
-0.0118794
-0.0120035
-0.0122176
-0.012385
-0.0125456
-0.0126953
-0.0129473
-0.0131975
-0.0135288
-0.0139329
-0.0142609
-0.0146782
-0.015217
-0.0159227
-0.0172769
-0.0164062
-0.0162214
-0.0167191
-0.0172827
-0.0179639
-0.0187746
-0.019732
-0.0216309
-0.0239847
-0.0269139
-0.0281112
-0.0275419
-0.0282107
-0.0302051
-0.0305912
-0.0324755
-0.032837
-0.031764
-0.0322549
-0.0310583
-0.0308079
-0.0320114
-0.0348165
-0.036207
-0.036329
-0.0350803
-0.0351853
-0.0337122
-0.0339709
-0.0360198
-0.0363936
-0.035029
-0.0355244
-0.0381349
-0.0391197
-0.0384512
-0.0360329
-0.0357618
-0.0373864
-0.0368832
-0.0385737
-0.0386441
-0.0363906
-0.0362135
-0.0379658
-0.0379661
-0.0400607
-0.0445693
-0.0479548
-0.0494577
-0.0500895
-0.0498181
-0.0529986
-0.0545577
-0.0559308
-0.0574042
-0.0587386
-0.0599411
-0.0610335
-0.0620499
-0.0630172
-0.0638903
0.121169
0.119924
0.118672
0.117414
0.116152
0.114885
0.113613
0.112337
0.111057
0.109772
0.108483
0.107189
0.105892
0.104591
0.103286
0.101977
0.100665
0.09935
0.0980315
0.09671
0.0953858
0.0940589
0.0927295
0.0913979
0.0900642
0.0887286
0.0873914
0.0860528
0.084713
0.0833721
0.0820306
0.0806885
0.0793461
0.0780037
0.0766615
0.0753199
0.0739789
0.072639
0.0713003
0.0699632
0.0686279
0.0672947
0.0659638
0.0646356
0.0633104
0.0619883
0.0606698
0.059355
0.0580444
0.0567381
0.0554364
0.0541398
0.0528483
0.0515624
0.0502822
0.0490082
0.0477405
0.0464795
0.0452254
0.0439785
0.0427391
0.0415075
0.0402838
0.0390685
0.0378616
0.0366636
0.0354745
0.0342947
0.0331245
0.0319639
0.0308134
0.029673
0.028543
0.0274236
0.026315
0.0252173
0.0241309
0.0230558
0.0219922
0.0209404
0.0199003
0.0188723
0.0178564
0.0168527
0.0158615
0.0148827
0.0139165
0.0129631
0.0120224
0.0110947
0.0101798
0.00927804
0.0083893
0.00751367
0.0066512
0.00580192
0.00496585
0.00414299
0.00333337
0.00253697
0.00175379
0.000983815
0.000227011
-0.000516649
-0.00124721
-0.00196471
-0.0026692
-0.00336076
-0.00403944
-0.00470533
-0.0053585
-0.00599904
-0.00662705
-0.00724263
-0.00784588
-0.00843693
-0.00901588
-0.00958287
-0.010138
-0.0106815
-0.0112134
-0.0117339
-0.0122431
-0.0127412
-0.0132284
-0.0137049
-0.0141707
-0.0146261
-0.0150713
-0.0155064
-0.0159316
-0.0163472
-0.0167532
-0.01715
-0.0175376
-0.0179163
-0.0182862
-0.0186477
-0.0190008
-0.0193459
-0.0196831
-0.0200125
-0.0203346
-0.0206494
-0.0209571
-0.0212581
-0.0215524
-0.0218402
-0.0221219
-0.0223974
-0.0226671
-0.0229311
-0.0231895
-0.0234425
-0.0236903
-0.023933
-0.0241707
-0.0244037
-0.0246321
-0.0248562
-0.0250759
-0.0252917
-0.0255035
-0.0257116
-0.0259162
-0.0261173
-0.0263152
-0.02651
-0.0267018
-0.0268908
-0.0270771
-0.0272609
-0.0274422
-0.0276212
-0.027798
-0.0279726
-0.0281451
-0.0283156
-0.028484
-0.0286505
-0.028815
-0.0289777
-0.0291386
-0.0292978
-0.0294554
-0.0296116
-0.0297663
-0.0299197
-0.0300718
-0.0302225
-0.0303719
-0.0305198
-0.0306662
-0.0308112
-0.0309547
-0.0310968
-0.0312374
-0.0313767
-0.0315145
-0.0316508
-0.0317855
-0.0319187
-0.0320503
-0.0321803
-0.0323088
-0.0324358
-0.0325614
-0.0326855
-0.0328081
-0.0329294
-0.0330493
-0.0331682
-0.0332864
-0.0334044
-0.0335235
-0.0336453
-0.0337721
-0.0339067
-0.0340582
-0.0342376
-0.034432
-0.0346303
-0.0348275
-0.0350224
-0.0352204
-0.03544
-0.0357066
-0.0359943
-0.0362926
-0.0366138
-0.0369662
-0.0373375
-0.0377451
-0.0382268
-0.0387384
-0.0392946
-0.0398783
-0.0403555
-0.0410403
-0.0415023
-0.0417707
-0.0421878
-0.0427415
-0.0434718
-0.0443779
-0.0451015
-0.0458676
-0.0466386
-0.0474798
-0.048383
-0.0492002
-0.0499144
-0.050615
-0.051211
-0.0517823
-0.0523021
-0.0527455
-0.0532447
-0.0537746
-0.0543286
-0.0548672
-0.0553681
-0.0557966
-0.056204
-0.0565743
-0.0569549
-0.0573571
-0.0577809
-0.0581933
-0.0586264
-0.059092
-0.0595217
-0.0599365
-0.0602941
-0.0606502
-0.0609793
-0.0613963
-0.0618887
-0.0623996
-0.0629401
-0.0635515
-0.064284
-0.0651053
-0.0660901
-0.0672452
-0.0684981
-0.0698021
-0.0710878
-0.0723228
-0.0735883
-0.0748989
-0.0762312
-0.0774657
-0.0785605
-0.0795349
-0.0804012
-0.0811749
-0.0818908
-0.0825982
-0.0832869
0.200937
0.19839
0.195842
0.193293
0.190744
0.188194
0.185645
0.183096
0.180548
0.178001
0.175456
0.172914
0.170374
0.167837
0.165304
0.162775
0.160251
0.157731
0.155216
0.152707
0.150205
0.147709
0.145219
0.142738
0.140264
0.137798
0.135341
0.132894
0.130455
0.128027
0.125609
0.123201
0.120805
0.11842
0.116048
0.113687
0.111339
0.109004
0.106683
0.104375
0.102082
0.0998027
0.0975385
0.0952895
0.093056
0.0908383
0.0886367
0.0864516
0.0842833
0.082132
0.0799981
0.0778817
0.0757833
0.0737031
0.0716412
0.0695981
0.0675738
0.0655687
0.0635829
0.0616166
0.0596701
0.0577436
0.0558372
0.053951
0.0520854
0.0502404
0.0484161
0.0466127
0.0448303
0.043069
0.041329
0.0396102
0.0379129
0.036237
0.0345827
0.0329499
0.0313388
0.0297493
0.0281815
0.0266353
0.0251109
0.0236082
0.0221271
0.0206676
0.0192298
0.0178135
0.0164188
0.0150454
0.0136935
0.0123629
0.0110534
0.00976512
0.00849782
0.00725142
0.00602579
0.00482083
0.00363638
0.00247231
0.00132846
0.000204692
-0.000899168
-0.00198329
-0.00304784
-0.00409301
-0.00511898
-0.00612596
-0.00711412
-0.00808369
-0.00903487
-0.00996787
-0.0108829
-0.0117802
-0.01266
-0.0135226
-0.0143681
-0.0151968
-0.016009
-0.0168049
-0.0175847
-0.0183487
-0.0190972
-0.0198304
-0.0205486
-0.0212521
-0.021941
-0.0226158
-0.0232766
-0.0239237
-0.0245575
-0.0251781
-0.0257859
-0.0263811
-0.0269641
-0.0275351
-0.0280943
-0.0286421
-0.0291788
-0.0297046
-0.0302198
-0.0307246
-0.0312195
-0.0317046
-0.0321803
-0.0326467
-0.0331042
-0.033553
-0.0339935
-0.0344258
-0.0348503
-0.0352672
-0.0356767
-0.0360792
-0.0364748
-0.0368639
-0.0372466
-0.0376232
-0.037994
-0.0383592
-0.0387189
-0.0390736
-0.0394232
-0.0397682
-0.0401086
-0.0404447
-0.0407767
-0.0411048
-0.0414291
-0.0417498
-0.0420672
-0.0423814
-0.0426924
-0.0430006
-0.043306
-0.0436088
-0.043909
-0.0442068
-0.0445024
-0.0447958
-0.0450872
-0.0453766
-0.0456641
-0.0459498
-0.0462339
-0.0465163
-0.0467972
-0.0470765
-0.0473545
-0.0476311
-0.0479063
-0.0481802
-0.0484528
-0.0487243
-0.0489945
-0.0492636
-0.0495316
-0.0497985
-0.0500643
-0.0503291
-0.0505929
-0.0508557
-0.0511175
-0.0513784
-0.0516384
-0.0518975
-0.0521559
-0.0524135
-0.0526704
-0.0529268
-0.0531827
-0.0534384
-0.053694
-0.0539497
-0.0542059
-0.054463
-0.0547214
-0.0549817
-0.0552446
-0.0555108
-0.0557811
-0.0560568
-0.0563383
-0.0566263
-0.0569214
-0.0572244
-0.0575363
-0.0578585
-0.0581927
-0.0585395
-0.0588991
-0.0592722
-0.0596595
-0.0600612
-0.060478
-0.0609102
-0.0613565
-0.0618154
-0.0622847
-0.0627622
-0.0632493
-0.0637415
-0.0642395
-0.0647525
-0.0652888
-0.0658469
-0.0664229
-0.0670092
-0.0676034
-0.068203
-0.068806
-0.0694088
-0.0700051
-0.0705906
-0.0711639
-0.0717225
-0.0722675
-0.0727996
-0.0733202
-0.0738338
-0.0743411
-0.074841
-0.0753318
-0.0758127
-0.0762838
-0.0767476
-0.0772059
-0.077661
-0.0781146
-0.0785679
-0.079022
-0.0794788
-0.0799385
-0.0804006
-0.0808673
-0.0813405
-0.0818241
-0.0823214
-0.0828394
-0.0833834
-0.0839556
-0.0845605
-0.0852038
-0.0858886
-0.0866159
-0.0873877
-0.0882021
-0.0890524
-0.0899316
-0.0908329
-0.0917495
-0.0926804
-0.0936241
-0.094576
-0.0955254
-0.0964639
-0.0973822
-0.0982669
-0.0991121
-0.0999413
-0.100792
-0.101616
0.304377
0.301311
0.298237
0.295157
0.292069
0.288975
0.285874
0.282768
0.279656
0.276539
0.273417
0.27029
0.26716
0.264025
0.260888
0.257747
0.254603
0.251457
0.24831
0.245161
0.24201
0.238859
0.235708
0.232557
0.229406
0.226257
0.223108
0.219962
0.216818
0.213676
0.210538
0.207403
0.204272
0.201146
0.198024
0.194908
0.191798
0.188693
0.185596
0.182506
0.179423
0.176348
0.173282
0.170225
0.167177
0.164139
0.161112
0.158095
0.15509
0.152096
0.149115
0.146146
0.14319
0.140247
0.137319
0.134405
0.131506
0.128622
0.125753
0.122901
0.120065
0.117247
0.114445
0.111661
0.108895
0.106148
0.10342
0.100711
0.0980211
0.0953514
0.0927021
0.0900734
0.0874657
0.0848793
0.0823144
0.0797715
0.0772507
0.0747525
0.072277
0.0698245
0.0673953
0.0649896
0.0626076
0.0602496
0.0579158
0.0556063
0.0533214
0.0510613
0.048826
0.0466158
0.0444308
0.0422711
0.0401368
0.0380281
0.0359451
0.0338877
0.0318561
0.0298504
0.0278706
0.0259167
0.0239887
0.0220867
0.0202107
0.0183606
0.0165364
0.0147381
0.0129657
0.011219
0.00949804
0.00780272
0.00613293
0.00448858
0.00286955
0.00127572
-0.00029304
-0.00183688
-0.00335596
-0.00485043
-0.00632048
-0.00776628
-0.00918803
-0.0105859
-0.0119602
-0.013311
-0.0146386
-0.0159433
-0.0172253
-0.0184848
-0.0197221
-0.0209374
-0.0221311
-0.0233033
-0.0244545
-0.0255848
-0.0266946
-0.0277842
-0.0288538
-0.0299038
-0.0309345
-0.0319462
-0.0329392
-0.0339139
-0.0348706
-0.0358095
-0.0367311
-0.0376357
-0.0385235
-0.039395
-0.0402504
-0.0410901
-0.0419144
-0.0427237
-0.0435183
-0.0442984
-0.0450645
-0.0458169
-0.0465559
-0.0472817
-0.0479948
-0.0486955
-0.049384
-0.0500606
-0.0507257
-0.0513796
-0.0520226
-0.0526549
-0.0532768
-0.0538886
-0.0544906
-0.0550831
-0.0556663
-0.0562404
-0.0568058
-0.0573625
-0.057911
-0.0584514
-0.0589839
-0.0595088
-0.0600262
-0.0605364
-0.0610395
-0.0615357
-0.0620253
-0.0625085
-0.0629853
-0.0634559
-0.0639206
-0.0643794
-0.0648326
-0.0652803
-0.0657225
-0.0661595
-0.0665913
-0.0670182
-0.0674401
-0.0678572
-0.0682697
-0.0686776
-0.0690811
-0.0694803
-0.0698754
-0.0702664
-0.0706535
-0.0710369
-0.0714168
-0.0717933
-0.0721667
-0.0725373
-0.0729053
-0.0732709
-0.0736347
-0.0739968
-0.0743577
-0.0747179
-0.0750779
-0.0754381
-0.0757993
-0.0761619
-0.0765268
-0.0768944
-0.0772654
-0.0776403
-0.0780199
-0.0784045
-0.0787949
-0.0791915
-0.079595
-0.0800056
-0.0804237
-0.0808498
-0.0812841
-0.0817267
-0.0821779
-0.0826376
-0.0831058
-0.0835822
-0.0840663
-0.0845584
-0.0850592
-0.0855705
-0.0860913
-0.0866182
-0.0871488
-0.0876849
-0.0882264
-0.0887727
-0.0893231
-0.0898764
-0.0904316
-0.0909873
-0.0915422
-0.0920952
-0.0926454
-0.0931922
-0.093735
-0.0942737
-0.094808
-0.095338
-0.0958638
-0.0963855