/*--------------------------------*- C++ -*----------------------------------*\
| =========                 |                                                 |
| \\      /  F ield         | OpenFOAM: The Open Source CFD Toolbox           |
|  \\    /   O peration     | Version:  2.4.0                                 |
|   \\  /    A nd           | Web:      www.OpenFOAM.org                      |
|    \\/     M anipulation  |                                                 |
\*---------------------------------------------------------------------------*/
FoamFile
{
    version     2.0;
    format      ascii;
    class       volScalarField;
    location    "2.3";
    object      H;
}
// * * * * * * * * * * * * * * * * * * * * * * * * * * * * * * * * * * * * * //

dimensions      [0 2 -2 0 0 0 0];

internalField   nonuniform List<scalar> 
8000
(
-11371.6
-9636.25
-7849.03
-5984.05
-4032.62
-2028.06
-19.8085
-22.4716
-16.95
-11.5642
-8.57824
-6.39783
-4.8007
-3.6546
-2.86277
-2.31792
-1.94274
-1.68341
-1.50226
-1.3734
-1.27908
-1.20719
-1.14953
-1.10066
-1.05706
-1.01656
-0.977944
-0.940586
-0.904264
-0.868979
-0.834845
-0.802014
-0.77063
-0.740806
-0.712607
-0.686048
-0.660904
-0.637055
-0.614413
-0.592908
-0.572474
-0.553048
-0.534566
-0.516966
-0.50019
-0.484182
-0.468891
-0.454269
-0.440271
-0.42686
-11198.7
-9115.28
-6973.42
-4750.12
-2450.66
-24.1705
-18.0055
-15.883
-14.1197
-12.2376
-10.4776
-8.90007
-7.58014
-6.50038
-5.63934
-4.95744
-4.41366
-3.97615
-3.61994
-3.32547
-3.07741
-2.86376
-2.67518
-2.5046
-2.34689
-2.19859
-2.05754
-1.92264
-1.7935
-1.67018
-1.55347
-1.44375
-1.34132
-1.24629
-1.15859
-1.07805
-1.00456
-0.937834
-0.877442
-0.822909
-0.773732
-0.729227
-0.688796
-0.651925
-0.618174
-0.58717
-0.558593
-0.532171
-0.507675
-0.484909
-11134.6
-8949.53
-6784.51
-4660.95
-2607.25
-46.8427
-32.8763
-28.9616
-25.317
-22.06
-19.2526
-16.9108
-14.9819
-13.3783
-12.0288
-10.8776
-9.8821
-9.01128
-8.24211
-7.55721
-6.94292
-6.38812
-5.88355
-5.42152
-4.99577
-4.60142
-4.23481
-3.89337
-3.57539
-3.27974
-3.00568
-2.75261
-2.51994
-2.30695
-2.1128
-1.93645
-1.77672
-1.63233
-1.50192
-1.38409
-1.27804
-1.18253
-1.09639
-1.01856
-0.948052
-0.884037
-0.825772
-0.772623
-0.724042
-0.679566
-11165.6
-9041.15
-6931.87
-4854.03
-2829.62
-100.452
-70.589
-62.929
-55.7336
-49.1945
-43.4311
-38.3958
-34.0164
-30.2102
-26.8974
-24.0066
-21.4766
-19.2563
-17.3027
-15.5794
-14.0553
-12.7034
-11.5004
-10.4263
-9.46394
-8.59901
-7.81951
-7.11548
-6.47871
-5.90232
-5.38051
-4.90825
-4.48107
-4.09493
-3.74607
-3.43098
-3.14639
-2.88921
-2.65659
-2.44591
-2.25477
-2.08101
-1.9227
-1.77815
-1.64588
-1.5246
-1.4132
-1.31073
-1.21638
-1.12945
-11164.3
-9031.74
-6896.79
-4761.07
-2633.8
-244.684
-175.514
-154.474
-135.451
-118.45
-103.375
-90.1225
-78.5604
-68.4919
-59.7368
-52.1326
-45.5344
-39.8133
-34.8552
-30.5596
-26.838
-23.613
-20.8169
-18.3913
-16.2851
-14.4547
-12.8623
-11.4753
-10.2658
-9.20945
-8.28536
-7.47596
-6.76733
-6.145
-5.59655
-5.11129
-4.68011
-4.29526
-3.95016
-3.63924
-3.35784
-3.10204
-2.86857
-2.65473
-2.45826
-2.27731
-2.11032
-1.95599
-1.81326
-1.6812
-11075.6
-8755.67
-6403.7
-4006.63
-1576.92
-316.384
-255.557
-221.02
-195.866
-176.467
-160.948
-147.696
-135.615
-124.018
-112.886
-102.25
-92.1546
-82.6503
-73.7808
-65.5796
-58.0673
-51.2499
-45.1191
-39.6525
-34.8158
-30.5656
-26.8521
-23.6224
-20.8234
-18.4032
-16.3131
-14.5085
-12.9489
-11.5987
-10.4264
-9.40486
-8.51088
-7.72472
-7.02974
-6.41204
-5.86008
-5.36432
-4.9169
-4.51139
-4.14251
-3.80594
-3.49812
-3.21612
-2.9575
-2.72017
-10872
-8156.68
-5451.17
-2780.46
-28.2664
-23.7646
-29.3575
-33.6373
-37.5397
-40.9885
-44.168
-47.0469
-49.5497
-51.3815
-51.9919
-51.1433
-48.9789
-45.8496
-42.161
-38.2739
-34.4551
-30.8705
-27.6056
-24.6903
-22.1205
-19.8737
-17.9177
-16.2171
-14.7373
-13.4459
-12.3146
-11.3189
-10.4382
-9.65502
-8.95474
-8.32501
-7.7555
-7.23757
-6.76402
-6.32892
-5.92733
-5.55518
-5.20912
-4.88636
-4.58457
-4.30185
-4.03658
-3.78739
-3.55313
-3.33281
-10921
-8303.85
-5683.76
-3040.2
-34.5358
-11.7069
-19.6223
-20.1227
-23.5714
-26.2866
-29.3062
-32.7793
-35.6141
-37.7216
-38.8637
-39.0105
-38.2831
-36.887
-35.0506
-32.9834
-30.8561
-28.7933
-26.867
-25.1043
-23.4987
-22.0331
-20.688
-19.443
-18.2797
-17.1844
-16.1502
-15.1753
-14.2607
-13.4067
-12.6121
-11.8736
-11.1875
-10.5493
-9.95516
-9.40121
-8.88395
-8.40031
-7.94744
-7.5224
-7.12239
-6.74504
-6.38848
-6.05109
-5.73122
-5.42741
-11193.7
-9152.4
-7185.44
-5326.13
-3611.4
-2022.76
-32.4695
-17.2183
-13.204
-9.52953
-1.76035
-8.6811
-14.5638
-17.8271
-21.3161
-23.5883
-24.9863
-25.7275
-25.9914
-25.9
-25.5376
-24.9395
-24.1599
-23.7799
-23.5186
-23.2258
-22.9079
-22.5669
-22.2009
-21.8102
-21.4027
-20.991
-20.5896
-20.2071
-19.8407
-19.4809
-19.1183
-18.7467
-18.3634
-17.9671
-17.5587
-17.142
-16.7203
-16.291
-15.8501
-15.398
-14.9406
-14.4823
-14.0217
-13.5591
-11496.5
-10054
-8672.76
-7370.25
-6147.74
-4995.55
-3902.61
-2863.84
-1877.72
-1020.19
-524.734
-10.2125
-4.68557
-4.71283
-4.46297
-4.34648
-3.85526
-3.31495
-2.79046
-2.43506
-2.22033
-0.60918
-0.166869
-1.4819
-2.96702
-4.59388
-6.17002
-7.58093
-8.78282
-9.75628
-10.4877
-11.0181
-11.384
-11.7806
-12.1437
-12.4661
-12.7451
-12.9629
-13.1248
-13.2864
-13.4351
-13.5209
-13.576
-13.6343
-13.6982
-13.7637
-13.7488
-13.7046
-13.6438
-13.561
-11698.8
-10651.5
-9643.96
-8692.72
-7807.3
-6991.45
-6244.75
-5564.34
-4946.52
-4386.37
-3877.61
-3412.02
-2982.27
-2582.69
-2210.91
-1865.97
-1546.75
-1251.96
-979.469
-727.206
-492.231
-270.463
-83.7382
-2.18623
-0.95332
-0.758426
-0.559828
-0.371497
-0.221154
-0.095784
-0.0231283
-0.4811
-1.04205
-1.72944
-2.51952
-3.30217
-3.9948
-4.60096
-5.20433
-5.80864
-6.38059
-6.8973
-7.45213
-8.04754
-8.58926
-9.0358
-9.4033
-9.71572
-9.98285
-10.2349
-11812.9
-10986.4
-10180.5
-9404.78
-8665.34
-7965.63
-7306.93
-6688.98
-6110.59
-5570.06
-5065.6
-4595.55
-4158.44
-3752.97
-3377.81
-3031.52
-2712.49
-2418.95
-2148.98
-1900.59
-1671.65
-1459.9
-1263.22
-1079.5
-906.207
-742.22
-588.92
-443.987
-305.04
-165.839
-11.3415
-0.365277
-0.162058
-0.109676
-0.0545037
-0.0154877
-0.272023
-0.59098
-0.966679
-1.4856
-2.04651
-2.5615
-3.03028
-3.46189
-3.85788
-4.20818
-4.49813
-4.75294
-5.03201
-5.35045
-11869.2
-11150.8
-10441.7
-9746.96
-9070.97
-8416.99
-7787.45
-7184.11
-6608.21
-6060.66
-5542.18
-5053.3
-4594.38
-4165.54
-3766.69
-3397.4
-3056.93
-2744.23
-2457.96
-2196.55
-1958.27
-1741.29
-1543.75
-1363.86
-1199.87
-1050.16
-913.236
-787.726
-672.409
-566.16
-467.826
-376.09
-289.665
-208.278
-133.124
-66.2083
-0.893764
-0.106218
-0.0641952
-0.0439559
-0.0082922
-0.393893
-0.778972
-1.12383
-1.4229
-1.67294
-1.90039
-2.15717
-2.43715
-2.71542
-11896.3
-11230.1
-10567.3
-9910.84
-9263.68
-8628.86
-8009.31
-7407.88
-6827.26
-6270
-5738.39
-5234.44
-4759.8
-4315.67
-3902.75
-3521.21
-3170.71
-2850.44
-2559.13
-2295.19
-2056.76
-1841.81
-1648.24
-1473.92
-1316.81
-1174.95
-1046.55
-929.966
-823.752
-726.64
-637.549
-555.561
-479.901
-409.888
-344.878
-284.202
-227.091
-172.6
-118.92
-63.2864
-0.720778
-0.0846083
-0.0578667
-0.0407091
-0.0267308
-0.113522
-0.193104
-0.283381
-0.387061
-0.510194
-11907.6
-11263.2
-10620.1
-9980.17
-9345.67
-8719.38
-8104.36
-7503.85
-6921.14
-6359.46
-5821.83
-5310.94
-4829.01
-4377.72
-3958.15
-3570.74
-3215.33
-2891.2
-2597.13
-2331.53
-2092.5
-1877.96
-1685.72
-1513.61
-1359.48
-1221.29
-1097.17
-985.397
-884.425
-792.893
-709.607
-633.532
-563.778
-499.584
-440.301
-385.383
-334.38
-286.905
-242.608
-201.149
-162.187
-125.483
-90.5918
-57.8604
-28.727
-0.384078
-0.0715167
-0.0402391
-0.00179026
-0.0670605
-11916.7
-11290.3
-10665.1
-10042.6
-9424.78
-8814.02
-8213.19
-7625.41
-7053.91
-6501.92
-5972.48
-5468.34
-4991.78
-4544.54
-4127.79
-3742.08
-3387.36
-3063.04
-2768.07
-2500.96
-2259.98
-2043.16
-1848.45
-1673.73
-1516.95
-1376.13
-1249.42
-1135.11
-1031.67
-937.742
-852.1
-773.698
-701.633
-635.125
-573.487
-516.142
-462.627
-412.571
-365.646
-321.53
-279.891
-240.521
-203.051
-167.098
-132.414
-98.9367
-66.9266
-36.0525
-0.529129
-0.105672
-11923.6
-11311.4
-10700.8
-10093.6
-9491.52
-8896.96
-8312.57
-7741.28
-7186.09
-6649.97
-6135.73
-5645.85
-5182.4
-4746.95
-4340.53
-3963.61
-3616.11
-3297.48
-3006.69
-2742.4
-2502.94
-2286.5
-2091.13
-1914.83
-1755.66
-1611.71
-1481.2
-1362.49
-1254.08
-1154.62
-1062.87
-977.762
-898.528
-824.718
-755.601
-690.621
-629.36
-571.488
-516.741
-464.91
-415.83
-369.368
-325.411
-283.865
-244.635
-207.628
-172.74
-139.863
-108.896
-79.8536
-11929.6
-11329.7
-10732.3
-10139.3
-9552.91
-8975.43
-8409.47
-7857.76
-7323.01
-6807.86
-6314.67
-5845.53
-5402.09
-4985.55
-4596.62
-4235.52
-3902.01
-3595.4
-3314.64
-3058.37
-2825
-2612.75
-2419.75
-2244.15
-2084.08
-1937.75
-1803.46
-1679.63
-1564.86
-1457.87
-1357.56
-1262.97
-1173.32
-1087.95
-1006.33
-928.065
-852.847
-780.48
-710.844
-643.888
-579.622
-518.103
-459.425
-403.707
-351.083
-301.684
-255.628
-213.013
-173.905
-138.307
-11938.7
-11357.4
-10779.6
-10207.6
-9643.94
-9090.95
-8551.14
-8026.94
-7520.67
-7034.46
-6570.16
-6129.3
-5713.03
-5322.09
-4956.79
-4617.06
-4302.41
-4012.02
-3744.77
-3499.27
-3273.98
-3067.2
-2877.18
-2702.14
-2540.33
-2390.06
-2249.75
-2117.91
-1993.2
-1874.45
-1760.67
-1650.98
-1544.7
-1441.26
-1340.27
-1241.44
-1144.62
-1049.79
-956.997
-866.418
-778.293
-692.936
-610.708
-532.009
-457.286
-386.975
-321.439
-261.085
-206.373
-157.274
-11950.3
-11392.5
-10839.3
-10293.5
-9757.63
-9234.24
-8725.62
-8233.89
-7760.93
-7308.36
-6877.47
-6469.24
-6084.28
-5722.83
-5384.78
-5069.68
-4776.77
-4505.02
-4253.17
-4019.76
-3803.22
-3601.88
-3414.07
-3238.1
-3072.32
-2915.14
-2765.09
-2620.83
-2481.17
-2345.06
-2211.66
-2080.25
-1950.3
-1821.44
-1693.44
-1566.24
-1439.92
-1314.7
-1190.92
-1069.06
-949.694
-833.525
-721.201
-613.442
-511.311
-415.782
-326.684
-245.362
-176.116
-118.201
-0.413997
-0.401651
-0.389791
-0.378389
-0.367422
-0.356866
-0.346699
-0.336903
-0.327458
-0.318349
-0.309559
-0.301074
-0.292882
-0.284969
-0.277324
-0.269936
-0.262797
-0.255896
-0.249227
-0.242781
-0.236551
-0.230532
-0.224717
-0.219102
-0.213681
-0.208451
-0.203408
-0.198548
-0.193867
-0.189363
-0.185033
-0.180875
-0.176886
-0.173063
-0.169403
-0.165905
-0.162568
-0.159389
-0.156367
-0.153501
-0.150789
-0.14823
-0.145822
-0.143563
-0.141453
-0.139489
-0.137671
-0.135996
-0.134464
-0.133072
-0.463705
-0.443922
-0.425435
-0.408138
-0.391936
-0.376746
-0.362493
-0.349113
-0.336544
-0.324732
-0.313626
-0.303181
-0.293354
-0.284106
-0.2754
-0.267203
-0.259484
-0.252213
-0.245365
-0.238915
-0.23284
-0.227121
-0.221737
-0.216671
-0.211908
-0.207434
-0.203235
-0.199299
-0.195615
-0.192173
-0.188964
-0.185981
-0.183215
-0.180659
-0.178308
-0.176156
-0.174198
-0.172428
-0.170841
-0.169435
-0.168206
-0.16715
-0.166266
-0.16555
-0.165001
-0.164615
-0.16439
-0.164326
-0.164419
-0.164668
-0.638795
-0.601392
-0.567072
-0.535525
-0.506497
-0.47977
-0.455153
-0.432479
-0.411597
-0.392372
-0.374682
-0.358411
-0.343457
-0.329721
-0.317114
-0.305553
-0.294961
-0.285265
-0.2764
-0.268303
-0.26092
-0.254197
-0.248088
-0.242548
-0.237538
-0.233022
-0.228967
-0.225343
-0.222125
-0.219287
-0.216808
-0.214668
-0.21285
-0.211336
-0.210113
-0.209168
-0.208491
-0.208071
-0.207902
-0.207975
-0.208284
-0.208823
-0.209587
-0.210572
-0.211772
-0.213186
-0.21481
-0.216641
-0.218679
-0.22092
-1.04938
-0.975748
-0.908006
-0.845703
-0.788447
-0.735882
-0.687685
-0.643557
-0.603217
-0.566403
-0.532864
-0.502363
-0.474677
-0.449594
-0.426913
-0.406447
-0.388019
-0.371464
-0.35663
-0.343373
-0.331564
-0.32108
-0.311813
-0.303659
-0.296528
-0.290336
-0.285005
-0.280469
-0.276664
-0.273536
-0.271034
-0.269115
-0.267739
-0.266871
-0.266481
-0.26654
-0.267024
-0.267912
-0.269186
-0.270829
-0.272826
-0.275166
-0.277838
-0.280833
-0.284144
-0.287765
-0.291692
-0.295919
-0.300445
-0.305269
-1.55903
-1.44606
-1.34167
-1.24533
-1.15652
-1.07479
-0.99969
-0.930806
-0.867742
-0.810119
-0.757577
-0.70977
-0.666367
-0.627054
-0.591532
-0.559517
-0.530741
-0.504951
-0.481912
-0.461402
-0.443215
-0.427161
-0.413064
-0.400762
-0.390105
-0.380958
-0.373197
-0.366709
-0.361393
-0.357155
-0.353913
-0.351592
-0.350127
-0.349457
-0.349529
-0.350298
-0.351721
-0.353762
-0.35639
-0.359577
-0.363299
-0.367535
-0.372269
-0.377485
-0.383171
-0.389318
-0.395917
-0.402963
-0.410453
-0.418384
-2.50238
-2.30259
-2.11945
-1.95172
-1.79847
-1.65885
-1.5317
-1.416
-1.3108
-1.21528
-1.12867
-1.05025
-0.979388
-0.915462
-0.857912
-0.806214
-0.759882
-0.718467
-0.68155
-0.648749
-0.619709
-0.594105
-0.571638
-0.552035
-0.535048
-0.520451
-0.508038
-0.497623
-0.489038
-0.482134
-0.476774
-0.472838
-0.470217
-0.468817
-0.468552
-0.469347
-0.471136
-0.473863
-0.477478
-0.481937
-0.487202
-0.493244
-0.500034
-0.507552
-0.515777
-0.524697
-0.5343
-0.544578
-0.555526
-0.567142
-3.12558
-2.93067
-2.74743
-2.57527
-2.41362
-2.262
-2.11993
-1.98698
-1.86275
-1.74687
-1.63896
-1.53869
-1.44573
-1.35976
-1.28045
-1.20751
-1.14062
-1.07949
-1.02379
-0.973248
-0.92755
-0.886407
-0.849531
-0.816645
-0.787476
-0.761765
-0.739265
-0.719741
-0.702973
-0.688755
-0.676897
-0.667225
-0.659579
-0.653817
-0.649807
-0.647436
-0.6466
-0.64721
-0.649189
-0.652468
-0.656989
-0.662704
-0.669571
-0.677555
-0.68663
-0.696772
-0.707964
-0.720194
-0.733455
-0.747741
-5.13849
-4.86356
-4.6019
-4.35277
-4.11537
-3.88897
-3.67293
-3.46676
-3.27007
-3.08255
-2.90402
-2.73432
-2.57341
-2.42125
-2.27788
-2.14329
-2.01748
-1.90038
-1.79187
-1.6918
-1.59994
-1.51603
-1.43973
-1.37069
-1.30851
-1.25278
-1.20305
-1.15889
-1.11989
-1.08561
-1.05567
-1.02969
-1.00733
-0.988282
-0.972259
-0.959012
-0.948326
-0.940015
-0.933921
-0.929914
-0.927887
-0.927751
-0.929438
-0.932893
-0.938073
-0.944948
-0.953496
-0.963702
-0.975558
-0.989061
-13.0963
-12.6383
-12.1872
-11.7429
-11.3003
-10.8559
-10.4068
-9.95195
-9.49022
-9.02139
-8.5463
-8.06687
-7.58588
-7.10705
-6.63469
-6.1732
-5.72653
-5.29836
-4.89186
-4.50964
-4.15363
-3.82506
-3.52447
-3.25175
-3.00623
-2.78678
-2.59189
-2.41979
-2.26856
-2.13622
-2.02076
-1.92023
-1.83346
-1.75841
-1.69335
-1.63677
-1.58744
-1.54432
-1.50658
-1.47355
-1.4447
-1.41961
-1.39797
-1.37954
-1.36413
-1.35161
-1.34187
-1.33483
-1.33045
-1.32865
-13.4596
-13.3217
-13.1514
-12.9427
-12.7043
-12.4354
-12.1306
-11.7983
-11.4446
-11.0719
-10.6834
-10.2819
-9.86973
-9.44931
-9.02175
-8.59025
-8.15767
-7.7267
-7.3002
-6.88139
-6.47358
-6.08004
-5.70382
-5.34766
-5.01383
-4.70404
-4.41933
-4.16011
-3.9261
-3.71648
-3.52981
-3.36414
-3.21709
-3.08608
-2.9686
-2.86273
-2.76673
-2.67898
-2.59796
-2.52261
-2.45209
-2.38582
-2.32342
-2.26468
-2.20947
-2.15775
-2.10954
-2.06494
-2.02404
-1.98697
-10.4897
-10.7457
-10.9662
-11.1157
-11.1963
-11.2128
-11.1698
-11.0822
-10.9598
-10.809
-10.6346
-10.4392
-10.2249
-9.99337
-9.74337
-9.47742
-9.1968
-8.90328
-8.59884
-8.28627
-7.96888
-7.65037
-7.33476
-7.02611
-6.72847
-6.44541
-6.17989
-5.93393
-5.7091
-5.50645
-5.32318
-5.15805
-5.00834
-4.87082
-4.74306
-4.62322
-4.5096
-4.40082
-4.29554
-4.19275
-4.09169
-3.99201
-3.89345
-3.79576
-3.69888
-3.60265
-3.5077
-3.41438
-3.32332
-3.23515
-5.71778
-6.16026
-6.69452
-7.2547
-7.68527
-7.95924
-8.10319
-8.17171
-8.24233
-8.30408
-8.35182
-8.39172
-8.42807
-8.45793
-8.4789
-8.48891
-8.48711
-8.47063
-8.43688
-8.38443
-8.31307
-8.22368
-8.11827
-8
-7.87229
-7.73937
-7.60378
-7.47125
-7.34439
-7.21733
-7.09753
-6.98268
-6.87706
-6.77672
-6.67975
-6.58493
-6.49223
-6.40051
-6.30941
-6.21808
-6.12578
-6.03278
-5.93913
-5.84444
-5.74756
-5.64862
-5.54738
-5.44355
-5.3377
-5.23066
-3.01849
-3.33586
-3.65886
-3.97593
-4.28605
-4.58794
-4.87623
-5.15179
-5.41222
-5.65661
-5.88914
-6.10904
-6.31178
-6.49508
-6.65841
-6.80011
-6.92165
-7.02444
-7.11348
-7.18379
-7.23564
-7.27705
-7.30274
-7.31352
-7.31126
-7.29905
-7.27385
-7.24558
-7.21412
-7.1782
-7.13833
-7.0957
-7.05137
-7.00516
-6.95761
-6.90819
-6.857
-6.8047
-6.75128
-6.69663
-6.64073
-6.58365
-6.52658
-6.46773
-6.40716
-6.34421
-6.27986
-6.21487
-6.14903
-6.08278
-0.650763
-0.807073
-0.975226
-1.14825
-1.31916
-1.48739
-1.66152
-1.84977
-2.05135
-2.25879
-2.46599
-2.66903
-2.86428
-3.04865
-3.22065
-3.38046
-3.53022
-3.67443
-3.81977
-3.96325
-4.10506
-4.24432
-4.37215
-4.49767
-4.62651
-4.74846
-4.85931
-4.95714
-5.03967
-5.10733
-5.16165
-5.20338
-5.23327
-5.25268
-5.26286
-5.26469
-5.2592
-5.2474
-5.23056
-5.20971
-5.18602
-5.16012
-5.13205
-5.1024
-5.07276
-5.0433
-5.01413
-4.98534
-4.95712
-4.92979
-0.116717
-0.153229
-0.187535
-0.232695
-0.290411
-0.363122
-0.448529
-0.530426
-0.601348
-0.681131
-0.773464
-0.868844
-0.961978
-1.05145
-1.13688
-1.21806
-1.29476
-1.36691
-1.43468
-1.49849
-1.55935
-1.61883
-1.67825
-1.7396
-1.80345
-1.86743
-1.92741
-1.98019
-2.02386
-2.05807
-2.08399
-2.10272
-2.11434
-2.12095
-2.12261
-2.12039
-2.11277
-2.10083
-2.08572
-2.06844
-2.04896
-2.0273
-2.00521
-1.98349
-1.96202
-1.9411
-1.92087
-1.90161
-1.88326
-1.86636
-0.0684589
-0.0365354
-0.00311516
-0.032281
-0.0572236
-0.0767275
-0.095311
-0.116801
-0.146619
-0.179645
-0.205859
-0.234181
-0.267084
-0.29872
-0.326848
-0.351104
-0.371526
-0.388263
-0.401612
-0.41198
-0.419876
-0.425997
-0.430465
-0.433553
-0.435706
-0.437091
-0.437883
-0.438372
-0.438817
-0.43946
-0.440645
-0.442444
-0.445769
-0.450343
-0.456339
-0.463983
-0.47336
-0.48458
-0.497729
-0.512941
-0.530349
-0.550093
-0.572279
-0.59701
-0.624346
-0.65433
-0.68693
-0.722066
-0.759448
-0.798729
-52.8965
-27.7087
-1.75063
-0.0654127
-0.0206653
-0.000641557
-0.0123238
-0.0212697
-0.0270364
-0.0312806
-0.033891
-0.0322335
-0.0306425
-0.0288192
-0.0250599
-0.0192757
-0.011614
-0.00230479
0.00834934
0.0199837
0.0321812
0.0444911
0.0564616
0.0676029
0.0774454
0.0854898
0.0912553
0.0943689
0.0944722
0.0912047
0.0842276
0.0731941
0.0578571
0.0379824
0.0134602
-0.0158162
-0.0499442
-0.0890023
-0.133044
-0.182102
-0.236186
-0.295281
-0.359352
-0.428351
-0.502214
-0.580853
-0.664097
-0.751702
-0.8434
-0.938923
-106.164
-77.4768
-52.3892
-30.9889
-13.9135
-0.181955
-0.00249148
-0.00593323
-0.00624207
-0.00432107
-0.000105798
0.00299358
0.0368845
0.0721311
0.10839
0.145211
0.182286
0.219271
0.255755
0.291265
0.325272
0.357207
0.386478
0.412483
0.434621
0.452311
0.465023
0.472271
0.473646
0.46885
0.457646
0.439867
0.415412
0.384219
0.346328
0.301765
0.250608
0.192963
0.128937
0.058691
-0.0176363
-0.0999189
-0.188067
-0.282066
-0.38199
-0.487851
-0.599641
-0.717361
-0.840386
-0.968168
-113.158
-74.2407
-43.4797
-16.9913
-0.18595
-0.00213118
-0.00462906
-0.00554509
-0.00410287
-8.08464e-05
0.000372995
0.00905875
0.0903531
0.171232
0.250686
0.328418
0.404156
0.477384
0.547735
0.614817
0.678213
0.737498
0.792256
0.842088
0.886629
0.925556
0.958599
0.985548
1.00625
1.02063
1.02863
1.03027
1.0256
1.01466
0.997533
0.974279
0.944947
0.90956
0.868122
0.820596
0.766919
0.707005
0.640731
0.567936
0.488438
0.402095
0.308769
0.208409
0.101976
-0.00977038
-62.7723
-0.722251
-0.0115862
-0.00157849
-0.00027075
-0.00413061
-0.00321158
-0.00177834
9.56828e-05
0.0018724
0.0168579
0.145098
0.26991
0.392028
0.510857
0.626253
0.737988
0.845764
0.949237
1.04804
1.14181
1.23018
1.31284
1.3895
1.45993
1.52394
1.58141
1.63226
1.67649
1.71414
1.74527
1.76998
1.78841
1.80066
1.80687
1.80713
1.80153
1.79014
1.773
1.75014
1.72158
1.68735
1.6475
1.60208
1.55121
1.49507
1.4339
1.36818
1.29843
1.22531
-0.132092
-0.131448
-0.130841
-0.130272
-0.129742
-0.12925
-0.128798
-0.128384
-0.12801
-0.127676
-0.127382
-0.127129
-0.126916
-0.126744
-0.126613
-0.126524
-0.126476
-0.12647
-0.126505
-0.126583
-0.126703
-0.126865
-0.12707
-0.127318
-0.127608
-0.127941
-0.128318
-0.128737
-0.1292
-0.129706
-0.130255
-0.130848
-0.131484
-0.132163
-0.132886
-0.133653
-0.134463
-0.135316
-0.136213
-0.137153
-0.138136
-0.139163
-0.140233
-0.141346
-0.142502
-0.143701
-0.144942
-0.146227
-0.147554
-0.148923
-0.150335
-0.151789
-0.153284
-0.154822
-0.156401
-0.158022
-0.159684
-0.161388
-0.163132
-0.164918
-0.166744
-0.168611
-0.170518
-0.172466
-0.174454
-0.176482
-0.178551
-0.18066
-0.182809
-0.184998
-0.187228
-0.189499
-0.19181
-0.194163
-0.196557
-0.198992
-0.20147
-0.203991
-0.206555
-0.209164
-0.211817
-0.214516
-0.217263
-0.220057
-0.222902
-0.225797
-0.228745
-0.231749
-0.234808
-0.237927
-0.241108
-0.244353
-0.247665
-0.251048
-0.254504
-0.258039
-0.261656
-0.265359
-0.269153
-0.273044
-0.277036
-0.281135
-0.285348
-0.289681
-0.29414
-0.298734
-0.303468
-0.308353
-0.313394
-0.318602
-0.323986
-0.329555
-0.33532
-0.341291
-0.347481
-0.353901
-0.360565
-0.367486
-0.374681
-0.382164
-0.389954
-0.398069
-0.406529
-0.415356
-0.424573
-0.434204
-0.444277
-0.454819
-0.46586
-0.477431
-0.489564
-0.502294
-0.515654
-0.529679
-0.544405
-0.559865
-0.576092
-0.593117
-0.610968
-0.629669
-0.649239
-0.669692
-0.691035
-0.713266
-0.736379
-0.760356
-0.785171
-0.810788
-0.837163
-0.864239
-0.891952
-0.920225
-0.948973
-0.978101
-1.0075
-1.03707
-1.06668
-1.09621
-1.12552
-1.15448
-1.18295
-1.21079
-1.23787
-1.26403
-1.28917
-1.31313
-1.3358
-1.35707
-1.37683
-1.39498
-1.41144
-1.42615
-1.43904
-1.45008
-1.45924
-1.46651
-1.4719
-1.47545
-1.47718
-1.47715
-1.47543
-1.47209
-1.4672
-1.46087
-1.4532
-1.44429
-1.43425
-1.42313
-1.41099
-1.39784
-1.38372
-1.36867
-1.3527
-1.33587
-1.3182
-1.29974
-1.28053
-1.2606
-1.24001
-1.21881
-1.19704
-1.17476
-1.15201
-1.12885
-1.10535
-1.08154
-1.05749
-1.03324
-1.00885
-0.984351
-0.959791
-0.935206
-0.91063
-0.886095
-0.861628
-0.837256
-0.813
-0.78888
-0.764914
-0.741118
-0.717508
-0.694098
-0.670901
-0.647931
-0.625203
-0.602733
-0.580534
-0.558623
-0.537016
-0.515729
-0.494778
-0.474179
-0.453946
-0.434093
-0.414636
-0.395585
-0.376955
-0.358755
-0.340996
-0.323688
-0.30684
-0.290458
-0.274549
-0.259119
-0.244175
-0.22972
-0.215739
-0.202232
-0.18921
-0.176683
-0.164658
-0.153137
-0.14212
-0.131608
-0.121599
-0.11209
-0.103078
-0.0945566
-0.0865201
-0.0789603
-0.0718679
-0.0652325
-0.0590423
-0.0532844
-0.0479449
-0.0430087
-0.0384599
-0.034282
-0.0304577
-0.026969
-0.0237979
-0.0209259
-0.0183343
-0.0160047
-0.0139187
-0.0120581
-0.0104053
-0.00894302
-0.00765465
-0.00652427
-0.00553673
-0.00467765
-0.00393355
-0.00329183
-0.00274079
-0.00226966
-0.00186856
-0.00152854
-0.0012415
-0.00100018
-0.00079813
-0.000629665
-0.000489799
-0.000374208
-0.000279166
-0.000201485
-0.000138454
-8.77799e-05
-4.75204e-05
-1.60334e-05
-0.164983
-0.165248
-0.16556
-0.165919
-0.166325
-0.166779
-0.167281
-0.167832
-0.168432
-0.169082
-0.169782
-0.170533
-0.171334
-0.172187
-0.173091
-0.174048
-0.175057
-0.17612
-0.177235
-0.178404
-0.179628
-0.180906
-0.182239
-0.183627
-0.18507
-0.186569
-0.188124
-0.189736
-0.191404
-0.193129
-0.194911
-0.196749
-0.198645
-0.200598
-0.202609
-0.204676
-0.206801
-0.208983
-0.211222
-0.213518
-0.215871
-0.21828
-0.220745
-0.223265
-0.225842
-0.228473
-0.231158
-0.233898
-0.23669
-0.239536
-0.242433
-0.245382
-0.248381
-0.251429
-0.254527
-0.257672
-0.260863
-0.264101
-0.267384
-0.27071
-0.274079
-0.277489
-0.280941
-0.284432
-0.287961
-0.291529
-0.295134
-0.298775
-0.302451
-0.306162
-0.309908
-0.313687
-0.317499
-0.321344
-0.325222
-0.329132
-0.333075
-0.337051
-0.341061
-0.345104
-0.349182
-0.353296
-0.357448
-0.361638
-0.365869
-0.370142
-0.374462
-0.378829
-0.383249
-0.387724
-0.392259
-0.396858
-0.401527
-0.406271
-0.411098
-0.416013
-0.421025
-0.426141
-0.431371
-0.436723
-0.442207
-0.447835
-0.453616
-0.459562
-0.465685
-0.471996
-0.478509
-0.485234
-0.492183
-0.499369
-0.506803
-0.514497
-0.522461
-0.530709
-0.539251
-0.548101
-0.55727
-0.566772
-0.576622
-0.586836
-0.597432
-0.60843
-0.61985
-0.631719
-0.644063
-0.656913
-0.670305
-0.684277
-0.698872
-0.714135
-0.730119
-0.746879
-0.764471
-0.782958
-0.802403
-0.822868
-0.844418
-0.867112
-0.891005
-0.916145
-0.942568
-0.970298
-0.999344
-1.0297
-1.06133
-1.0942
-1.12824
-1.16336
-1.19947
-1.23643
-1.27412
-1.31238
-1.35102
-1.38988
-1.42876
-1.46746
-1.50578
-1.54349
-1.5804
-1.61629
-1.65095
-1.68419
-1.71583
-1.74568
-1.77359
-1.79942
-1.82303
-1.84432
-1.86321
-1.87964
-1.89358
-1.90503
-1.91403
-1.92062
-1.92483
-1.92672
-1.92641
-1.92406
-1.91993
-1.91421
-1.90685
-1.89805
-1.88776
-1.87601
-1.86298
-1.84865
-1.83324
-1.81667
-1.79915
-1.78066
-1.76122
-1.74085
-1.71961
-1.69756
-1.67474
-1.6512
-1.627
-1.60221
-1.57688
-1.55107
-1.52485
-1.49826
-1.47135
-1.44418
-1.4168
-1.38926
-1.3616
-1.33385
-1.30604
-1.27819
-1.25033
-1.22246
-1.19461
-1.16679
-1.13901
-1.11127
-1.08358
-1.05595
-1.02838
-1.00087
-0.973434
-0.946074
-0.918804
-0.891636
-0.86459
-0.837685
-0.810943
-0.784386
-0.758038
-0.731923
-0.706063
-0.680479
-0.655192
-0.630222
-0.605587
-0.581305
-0.55739
-0.533858
-0.510722
-0.487995
-0.46569
-0.443821
-0.422393
-0.401382
-0.380797
-0.360656
-0.340998
-0.321849
-0.303227
-0.285149
-0.26763
-0.250683
-0.234322
-0.218559
-0.203404
-0.188866
-0.174953
-0.161669
-0.149018
-0.137001
-0.125617
-0.114862
-0.104732
-0.0952168
-0.0863079
-0.0779925
-0.0702563
-0.0630828
-0.056454
-0.0503499
-0.0447493
-0.0396297
-0.0349676
-0.0307384
-0.0269172
-0.0234786
-0.0203971
-0.0176472
-0.0152037
-0.0130419
-0.0111377
-0.00946781
-0.00801004
-0.00674312
-0.00564701
-0.00470293
-0.00389339
-0.00320225
-0.00261475
-0.00211746
-0.00169828
-0.00134644
-0.00105239
-0.000807755
-0.000605275
-0.000438686
-0.000302626
-0.00019253
-0.000104514
-3.52704e-05
-0.222827
-0.22422
-0.225678
-0.227204
-0.228798
-0.23046
-0.232191
-0.233993
-0.235866
-0.237812
-0.23983
-0.241923
-0.24409
-0.246334
-0.248655
-0.251054
-0.253532
-0.256091
-0.25873
-0.261452
-0.264258
-0.267148
-0.270123
-0.273185
-0.276335
-0.279574
-0.282903
-0.286324
-0.289837
-0.293444
-0.297145
-0.300939
-0.304827
-0.30881
-0.312885
-0.317054
-0.321316
-0.325669
-0.330114
-0.334649
-0.339273
-0.343985
-0.348783
-0.353666
-0.358631
-0.363678
-0.368802
-0.374003
-0.379276
-0.38462
-0.390031
-0.395505
-0.401039
-0.406628
-0.412268
-0.417955
-0.423683
-0.429449
-0.435248
-0.441073
-0.446922
-0.452789
-0.458672
-0.464568
-0.470476
-0.476398
-0.48233
-0.488269
-0.494211
-0.50015
-0.506084
-0.512009
-0.517921
-0.523818
-0.529696
-0.535553
-0.541386
-0.547195
-0.552977
-0.558733
-0.564461
-0.570163
-0.575839
-0.58149
-0.587118
-0.592727
-0.59832
-0.603902
-0.609478
-0.615056
-0.620643
-0.626249
-0.631884
-0.637561
-0.643293
-0.649096
-0.654988
-0.660986
-0.667111
-0.673386
-0.679831
-0.686473
-0.693335
-0.700442
-0.70782
-0.715493
-0.723484
-0.73181
-0.740488
-0.74953
-0.758942
-0.768732
-0.778902
-0.789453
-0.800384
-0.811691
-0.823372
-0.835423
-0.84784
-0.860621
-0.873765
-0.887274
-0.901152
-0.91541
-0.930063
-0.945134
-0.960655
-0.976668
-0.993226
-1.0104
-1.02827
-1.04693
-1.06649
-1.08709
-1.10886
-1.13196
-1.15654
-1.18278
-1.21081
-1.24076
-1.2727
-1.30659
-1.34235
-1.37982
-1.41885
-1.45924
-1.50084
-1.54345
-1.5869
-1.63097
-1.67548
-1.72015
-1.76473
-1.80894
-1.85249
-1.89506
-1.93637
-1.97612
-2.01403
-2.04987
-2.08343
-2.11452
-2.143
-2.16879
-2.19183
-2.21212
-2.22972
-2.24471
-2.2571
-2.26691
-2.27412
-2.27882
-2.2811
-2.28094
-2.27856
-2.27402
-2.26763
-2.25943
-2.24955
-2.23842
-2.22614
-2.21272
-2.19795
-2.18184
-2.16448
-2.14595
-2.12637
-2.1059
-2.08455
-2.0625
-2.03972
-2.01641
-1.99257
-1.96825
-1.94351
-1.91839
-1.89295
-1.86723
-1.84125
-1.81506
-1.78869
-1.76217
-1.73551
-1.70874
-1.6819
-1.655
-1.62807
-1.60107
-1.57401
-1.54688
-1.51966
-1.49236
-1.46496
-1.43746
-1.40982
-1.38203
-1.35409
-1.32597
-1.29767
-1.26918
-1.24052
-1.21168
-1.1827
-1.15359
-1.12441
-1.09518
-1.06594
-1.03674
-1.0076
-0.97854
-0.949598
-0.920794
-0.892147
-0.863674
-0.835387
-0.807298
-0.779417
-0.751755
-0.724269
-0.696926
-0.669728
-0.642693
-0.615857
-0.589285
-0.563018
-0.537087
-0.511523
-0.486356
-0.461617
-0.437338
-0.413552
-0.390292
-0.36759
-0.345477
-0.323986
-0.303146
-0.282983
-0.263525
-0.244793
-0.22681
-0.209591
-0.19315
-0.177499
-0.162644
-0.148588
-0.135331
-0.122867
-0.11119
-0.100287
-0.0901433
-0.0807407
-0.0720578
-0.0640704
-0.0567518
-0.0500734
-0.0440042
-0.0385122
-0.033564
-0.0291253
-0.0251615
-0.021638
-0.0185202
-0.0157743
-0.0133672
-0.011267
-0.00944303
-0.00786629
-0.00650947
-0.00534709
-0.00435564
-0.00351359
-0.00280148
-0.00220185
-0.00169923
-0.00128003
-0.000932479
-0.000646393
-0.000413061
-0.000225035
-7.59388e-05
-0.309264
-0.312146
-0.315129
-0.318215
-0.321406
-0.324703
-0.328108
-0.331622
-0.335249
-0.338989
-0.342846
-0.34682
-0.350915
-0.355133
-0.359477
-0.36395
-0.368556
-0.373297
-0.378178
-0.383201
-0.388367
-0.393679
-0.399138
-0.404744
-0.410499
-0.416403
-0.422456
-0.428659
-0.435012
-0.441516
-0.448171
-0.454978
-0.461937
-0.469049
-0.476313
-0.48373
-0.491301
-0.499023
-0.506897
-0.514921
-0.523095
-0.531416
-0.539882
-0.54849
-0.557238
-0.56612
-0.575133
-0.584272
-0.59353
-0.602901
-0.612378
-0.621953
-0.631617
-0.64136
-0.651172
-0.661043
-0.670961
-0.680914
-0.690889
-0.700873
-0.710853
-0.720814
-0.730742
-0.740621
-0.750436
-0.760167
-0.769803
-0.779334
-0.788749
-0.79804
-0.807199
-0.816217
-0.825088
-0.833804
-0.842359
-0.850751
-0.858979
-0.867052
-0.874983
-0.882779
-0.890427
-0.89792
-0.90525
-0.91241
-0.919396
-0.926207
-0.93284
-0.9393
-0.94559
-0.951718
-0.957695
-0.963536
-0.969258
-0.974886
-0.980445
-0.98597
-0.991497
-0.997065
-1.00272
-1.0085
-1.01445
-1.02063
-1.02708
-1.03389
-1.04111
-1.04883
-1.05716
-1.0662
-1.076
-1.08659
-1.09794
-1.11002
-1.12279
-1.13621
-1.15024
-1.16482
-1.17989
-1.1954
-1.21129
-1.22748
-1.24391
-1.2605
-1.27719
-1.29393
-1.31066
-1.32736
-1.34399
-1.36055
-1.37702
-1.39344
-1.40981
-1.4262
-1.44268
-1.45936
-1.47641
-1.49402
-1.51249
-1.53213
-1.55334
-1.57658
-1.60238
-1.63134
-1.66357
-1.69903
-1.73728
-1.7779
-1.8204
-1.86433
-1.90925
-1.95477
-2.00041
-2.04579
-2.09063
-2.13454
-2.17718
-2.21827
-2.25749
-2.2945
-2.32897
-2.36056
-2.38902
-2.41419
-2.43597
-2.45436
-2.46945
-2.48154
-2.49074
-2.49696
-2.50072
-2.50182
-2.5009
-2.49779
-2.49267
-2.48574
-2.47711
-2.467
-2.45553
-2.44284
-2.42913
-2.41434
-2.3983
-2.38149
-2.36411
-2.34604
-2.32746
-2.30819
-2.28831
-2.26784
-2.24701
-2.22591
-2.20455
-2.18297
-2.16124
-2.13935
-2.1173
-2.0951
-2.07279
-2.05038
-2.02786
-2.00525
-1.98252