/*--------------------------------*- C++ -*----------------------------------*\
| =========                 |                                                 |
| \\      /  F ield         | OpenFOAM: The Open Source CFD Toolbox           |
|  \\    /   O peration     | Version:  2.4.0                                 |
|   \\  /    A nd           | Web:      www.OpenFOAM.org                      |
|    \\/     M anipulation  |                                                 |
\*---------------------------------------------------------------------------*/
FoamFile
{
    version     2.0;
    format      ascii;
    class       surfaceScalarField;
    location    "2.3";
    object      phi;
}
// * * * * * * * * * * * * * * * * * * * * * * * * * * * * * * * * * * * * * //

dimensions      [0 3 -1 0 0 0 0];

internalField   nonuniform List<scalar> 
15580
(
-5.86912e-13
-1.19431e-12
-2.39277e-12
-3.24791e-12
-5.47346e-12
-4.9695e-12
-1.0013e-11
-6.34188e-12
-1.6111e-11
-7.34069e-12
-2.41732e-11
-8.07511e-12
-1.79861e-10
-9.40096e-12
-2.78071e-10
7.80038e-11
-4.2798e-10
1.68623e-10
-6.10841e-10
1.85195e-10
-5.07882e-10
3.80954e-10
-7.4501e-10
5.78504e-10
-8.8448e-10
5.41579e-10
-9.11304e-10
4.99463e-10
-9.14659e-10
4.48792e-10
-8.99977e-10
3.96471e-10
-8.74924e-10
3.4946e-10
-8.47682e-10
3.06666e-10
-8.22097e-10
2.68147e-10
-7.99608e-10
2.33689e-10
-7.80975e-10
2.0283e-10
-7.65976e-10
1.75117e-10
-7.54214e-10
1.50196e-10
-7.45187e-10
1.27793e-10
-7.38316e-10
1.07695e-10
-7.33027e-10
8.97334e-11
-7.28817e-10
7.37558e-11
-7.25293e-10
5.96162e-11
-7.22166e-10
4.71685e-11
-7.19241e-10
3.6266e-11
-7.16394e-10
2.67645e-11
-7.13555e-10
1.85252e-11
-7.10693e-10
1.14193e-11
-7.07821e-10
5.33643e-12
-7.05128e-10
2.84247e-13
-7.02226e-10
-4.31348e-12
-6.99063e-10
-8.07568e-12
-6.95749e-10
-1.12137e-11
-6.92318e-10
-1.3813e-11
-6.88789e-10
-1.59428e-11
-6.85178e-10
-1.76618e-11
-6.81497e-10
-1.90227e-11
-6.7776e-10
-2.00711e-11
-6.73979e-10
-2.08473e-11
-6.70168e-10
-2.13869e-11
-6.66339e-10
-2.17216e-11
-6.62503e-10
-2.18795e-11
-6.58671e-10
-2.18854e-11
-6.54852e-10
-2.17612e-11
-2.15261e-11
-6.51056e-10
-3.52355e-13
-8.41953e-13
-1.28334e-12
-2.31692e-12
-2.68325e-12
-3.56959e-12
-4.41404e-12
-4.6111e-12
-6.43025e-12
-5.48036e-12
-1.83144e-10
-6.3147e-12
-1.86396e-10
-6.14914e-12
-2.14012e-10
1.0562e-10
-2.51857e-10
2.06468e-10
-3.69195e-10
3.02533e-10
-3.55199e-10
3.66959e-10
-1.86425e-10
4.0973e-10
-5.27441e-11
4.07898e-10
5.43696e-11
3.92349e-10
1.34237e-10
3.68925e-10
1.88795e-10
3.41913e-10
2.23831e-10
3.14424e-10
2.42678e-10
2.87819e-10
2.48202e-10
2.62622e-10
2.42988e-10
2.38903e-10
2.29269e-10
2.16548e-10
2.08974e-10
1.95413e-10
1.83772e-10
1.75398e-10
1.55097e-10
1.56468e-10
1.24158e-10
1.38635e-10
9.1955e-11
1.21936e-10
5.92992e-11
1.06412e-10
2.68281e-11
9.20874e-11
-4.97231e-12
7.89688e-11
-3.57441e-11
6.70377e-11
-6.52352e-11
5.62557e-11
-9.32789e-11
4.65689e-11
-1.19772e-10
3.79124e-11
-1.4465e-10
3.02147e-11
-1.67767e-10
2.34009e-11
-1.89475e-10
1.73948e-11
-2.09675e-10
1.21245e-11
-2.28405e-10
7.51634e-12
-2.45705e-10
3.48638e-12
-2.61438e-10
-2.09668e-13
-2.76217e-10
-2.88225e-12
-2.89929e-10
-5.31131e-12
-3.02625e-10
-7.37506e-12
-3.14373e-10
-9.09869e-12
-3.25244e-10
-1.05161e-11
-3.35305e-10
-1.16608e-11
-3.44621e-10
-1.25637e-11
-3.53253e-10
-1.32535e-11
-3.61258e-10
-1.37559e-11
-1.40942e-11
-3.6869e-10
-2.54159e-13
-5.87794e-13
-9.80846e-13
-1.59024e-12
-2.13207e-12
-2.41836e-12
-3.66731e-12
-3.07587e-12
-9.16235e-12
-3.56636e-12
-1.5356e-10
-3.96493e-12
-1.55695e-10
-4.01367e-12
-1.39975e-10
8.98992e-11
-8.7527e-11
1.5402e-10
1.98562e-11
1.95149e-10
1.6306e-10
2.23755e-10
3.27123e-10
2.45666e-10
4.7478e-10
2.60242e-10
5.9858e-10
2.68548e-10
6.95708e-10
2.71797e-10
7.66443e-10
2.71177e-10
8.13229e-10
2.67638e-10
8.39185e-10
2.61863e-10
8.47512e-10
2.54296e-10
8.41186e-10
2.45229e-10
8.22847e-10
2.34887e-10
7.94782e-10
2.23478e-10
7.58958e-10
2.11221e-10
7.17077e-10
1.98349e-10
6.70611e-10
1.851e-10
6.20839e-10
1.71708e-10
5.68867e-10
1.58384e-10
5.15644e-10
1.4531e-10
4.6198e-10
1.32634e-10
4.08548e-10
1.2047e-10
3.55904e-10
1.089e-10
3.04495e-10
9.79781e-11
2.54672e-10
8.77357e-11
2.06701e-10
7.81851e-11
1.60777e-10
6.93245e-11
1.1703e-10
6.11419e-11
7.55374e-11
5.36175e-11
3.63272e-11
4.67265e-11
-6.2686e-13
4.04405e-11
-3.5567e-11
3.47305e-11
-6.80155e-11
2.95663e-11
-9.82389e-11
2.49121e-11
-1.26349e-10
2.07349e-11
-1.5245e-10
1.70027e-11
-1.76651e-10
1.36843e-11
-1.99061e-10
1.07495e-11
-2.19795e-10
8.16997e-12
-2.38967e-10
5.91887e-12
-2.56695e-10
3.97234e-12
2.31126e-12
-2.73101e-10
-1.86517e-13
-4.01277e-13
-7.53097e-13
-1.02366e-12
-1.70371e-12
-1.46775e-12
-3.03858e-12
-1.741e-12
-1.6111e-11
-1.87896e-12
-1.51395e-10
-2.00922e-12
-1.53551e-10
-1.85789e-12
-9.6525e-11
3.28733e-11
-5.60072e-12
6.30961e-11
9.82471e-11
9.13016e-11
2.053e-10
1.16703e-10
3.11213e-10
1.39753e-10
4.11098e-10
1.60357e-10
5.01369e-10
1.78278e-10
5.79802e-10
1.93363e-10
6.45435e-10
2.05545e-10
6.98244e-10
2.1483e-10
7.38821e-10
2.21286e-10
7.68078e-10
2.25038e-10
7.87052e-10
2.26255e-10
7.96789e-10
2.2515e-10
7.98298e-10
2.21969e-10
7.92536e-10
2.16983e-10
7.80406e-10
2.10478e-10
7.62768e-10
2.02739e-10
7.40436e-10
1.94041e-10
7.14179e-10
1.8464e-10
6.84721e-10
1.74768e-10
6.52727e-10
1.64627e-10
6.18808e-10
1.54389e-10
5.83511e-10
1.44197e-10
5.47319e-10
1.3417e-10
5.10654e-10
1.24401e-10
4.73873e-10
1.14966e-10
4.37277e-10
1.05921e-10
4.01112e-10
9.73071e-11
3.65577e-10
8.91522e-11
3.3083e-10
8.14737e-11
2.9699e-10
7.42802e-11
2.64148e-10
6.75729e-11
2.32367e-10
6.13467e-11
2.01688e-10
5.55916e-11
1.72129e-10
5.02934e-11
1.43697e-10
4.54346e-11
1.16386e-10
4.09955e-11
9.01813e-11
3.69544e-11
6.50629e-11
3.32884e-11
4.10077e-11
2.99741e-11
1.79924e-11
2.69877e-11
2.43056e-11
-4.00193e-12
-2.22065e-13
-1.79212e-13
-8.56196e-13
-3.89525e-13
-1.86751e-12
-4.56442e-13
-3.22644e-12
-3.82064e-13
-5.30389e-11
-2.10124e-13
-1.6216e-10
-1.90983e-13
-1.62962e-10
-1.05645e-12
-1.31456e-10
1.3676e-12
-8.44187e-11
1.60586e-11
-3.10039e-11
3.78868e-11
2.23817e-11
6.33172e-11
7.21737e-11
8.99606e-11
1.16067e-10
1.16464e-10
1.52983e-10
1.41362e-10
1.82484e-10
1.63862e-10
2.04531e-10
1.83498e-10
2.19362e-10
1.99999e-10
2.274e-10
2.13248e-10
2.292e-10
2.23239e-10
2.25391e-10
2.30064e-10
2.16642e-10
2.33898e-10
2.03626e-10
2.34986e-10
1.86994e-10
2.33616e-10
1.67377e-10
2.30095e-10
1.45384e-10
2.24732e-10
1.21598e-10
2.17827e-10
9.65657e-11
2.09672e-10
7.07909e-11
2.00543e-10
4.47208e-11
1.90697e-10
1.87419e-11
1.80367e-10
-6.82288e-12
1.69762e-10
-3.17139e-11
1.59061e-10
-5.57249e-11
1.48411e-10
-7.8696e-11
1.37937e-10
-1.00514e-10
1.27739e-10
-1.21108e-10
1.17901e-10
-1.40441e-10
1.08485e-10
-1.58506e-10
9.95396e-11
-1.75323e-10
9.10969e-11
-1.90927e-10
8.31768e-11
-2.05369e-10
7.57882e-11
-2.18708e-10
6.89312e-11
-2.31013e-10
6.25983e-11
-2.42355e-10
5.67763e-11
-2.52807e-10
5.14472e-11
-2.62442e-10
4.65895e-11
-2.71333e-10
4.21792e-11
-2.79549e-10
3.81907e-11
-2.87159e-10
3.45975e-11
3.13725e-11
-2.94226e-10
-2.3453e-13
5.53182e-14
-8.0206e-13
1.78005e-13
-1.56836e-12
3.09855e-13
-2.3963e-12
4.45884e-13
-1.29647e-10
5.16922e-13
-1.81474e-10
2.28796e-13
-6.21109e-11
-1.20419e-10
1.76353e-10
-2.37096e-10
3.6571e-10
-1.73298e-10
5.45593e-10
-1.41997e-10
7.00462e-10
-9.15514e-11
8.33449e-10
-4.30267e-11
9.46942e-10
2.97143e-12
1.03177e-09
5.65309e-11
1.09479e-09
1.00846e-10
1.13861e-09
1.39676e-10
1.16466e-09
1.73945e-10
1.174e-09
2.03911e-10
1.16811e-09
2.29128e-10
1.14919e-09
2.48983e-10
1.1201e-09
2.62991e-10
1.08402e-09
2.71064e-10
1.04385e-09
2.73787e-10
1.00175e-09
2.72197e-10
9.59181e-10
2.67298e-10
9.17012e-10
2.59996e-10
8.75681e-10
2.51003e-10
8.35357e-10
2.40868e-10
7.96034e-10
2.3002e-10
7.57609e-10
2.18792e-10
7.19951e-10
2.0742e-10
6.82945e-10
1.96067e-10
6.46509e-10
1.84848e-10
6.10585e-10
1.7386e-10
5.75132e-10
1.63193e-10
5.4011e-10
1.52923e-10
5.05485e-10
1.4311e-10
4.71236e-10
1.33788e-10
4.37355e-10
1.24978e-10
4.03843e-10
1.16689e-10
3.70715e-10
1.08916e-10
3.38003e-10
1.01644e-10
3.05741e-10
9.48596e-11
2.73965e-10
8.85524e-11
2.42708e-10
8.2705e-11
2.12006e-10
7.72909e-11
1.81906e-10
7.22798e-11
1.52445e-10
6.76513e-11
1.23659e-10
6.33832e-11
5.94532e-11
9.55787e-11
-6.45801e-13
7.01119e-13
-2.39962e-12
1.93182e-12
-5.07645e-12
2.98669e-12
-8.74623e-12
3.92519e-12
-2.06715e-10
3.89503e-12
-2.09176e-10
2.68955e-12
4.53848e-11
-3.7498e-10
4.57101e-12
-1.96282e-10
5.86278e-11
-2.27355e-10
1.86516e-10
-2.69885e-10
3.01432e-10
-2.06468e-10
4.0538e-10
-1.46975e-10
3.53582e-10
5.477e-11
1.56868e-10
2.53244e-10
-1.37498e-10
3.95213e-10
-4.8364e-10
4.85818e-10
-8.45462e-10
5.35767e-10
-1.19353e-09
5.51975e-10
-1.50551e-09
5.41113e-10
-1.76357e-09
5.07043e-10
-1.95724e-09
4.56662e-10
-2.08715e-09
4.00972e-10
-2.16122e-09
3.4786e-10
-2.1896e-09
3.0057e-10
-2.18087e-09
2.58574e-10
-2.14079e-09
2.19913e-10
-2.07437e-09
1.84581e-10
-1.98707e-09
1.53567e-10
-1.88504e-09
1.27993e-10
-1.77473e-09
1.0848e-10
-1.66171e-09
9.44003e-11
-1.54985e-09
8.42131e-11
-1.4412e-09
7.61984e-11
-1.3366e-09
6.92575e-11
-1.23658e-09
6.31763e-11
-1.14175e-09
5.80852e-11
-1.05266e-09
5.40259e-11
-9.69723e-10
5.08478e-11
-8.93079e-10
4.8334e-11
-8.22716e-10
4.6326e-11
-7.58481e-10
4.46816e-11
-7.00087e-10
4.32493e-11
-6.47191e-10
4.19631e-11
-5.99444e-10
4.0806e-11
-5.56506e-10
3.97671e-11
-5.18004e-10
3.87886e-11
-4.83544e-10
3.78196e-11
-4.52773e-10
3.68802e-11
-4.25392e-10
3.6002e-11
3.51958e-11
-4.01134e-10
8.69305e-13
-1.68186e-13
3.60907e-12
-8.0795e-13
8.20155e-12
-1.60579e-12
1.45221e-11
-2.39503e-12
-1.92625e-10
-1.42602e-12
-1.8819e-10
-5.03912e-12
-5.19195e-10
-4.39754e-11
-7.28817e-10
1.33393e-11
-7.76185e-10
-1.79987e-10
-1.00787e-09
-3.82017e-11
-9.47169e-10
-2.67167e-10
-1.1082e-09
1.4057e-11
-1.18342e-09
1.29988e-10
-1.25279e-09
3.22613e-10
-1.27598e-09
4.18405e-10
-1.24895e-09
4.5879e-10
-1.19833e-09
4.85148e-10
-1.1035e-09
4.57139e-10
-9.89177e-10
4.26794e-10
-8.7111e-10
3.88977e-10
-7.68993e-10
3.54545e-10
-6.65839e-10
2.97818e-10
-5.46755e-10
2.28776e-10
-4.07702e-10
1.61517e-10
-2.9081e-10
1.41681e-10
-2.09594e-10
1.38697e-10
-1.54588e-10
1.29575e-10
-1.23507e-10
1.22487e-10
-1.17703e-10
1.22188e-10
-1.38122e-10
1.289e-10
-1.77992e-10
1.3427e-10
-2.24851e-10
1.31072e-10
-2.65338e-10
1.16686e-10
-2.91972e-10
9.58913e-11
-3.02007e-10
7.32112e-11
-2.984e-10
5.44782e-11
-2.87015e-10
4.26412e-11
-2.72094e-10
3.59262e-11
-2.55734e-10
3.19737e-11
-2.41051e-10
3.16431e-11
-2.3139e-10
3.50208e-11
-2.25548e-10
3.74077e-11
-2.18699e-10
3.51143e-11
-2.11996e-10
3.41029e-11
-2.09964e-10
3.77345e-11
-2.15533e-10
4.43576e-11
-2.25348e-10
4.76352e-11
-2.34167e-10
4.56993e-11
-2.43836e-10
4.56701e-11
4.7363e-11
-2.56003e-10
3.11529e-12
-3.28348e-12
1.11531e-11
-8.84575e-12
2.33326e-11
-1.37853e-11
3.90926e-11
-1.8155e-11
5.992e-11
-2.27954e-11
8.92975e-11
-2.71991e-11
-1.05999e-10
-3.21157e-11
-7.54143e-11
-3.83276e-11
-2.25088e-10
-4.63949e-11
-2.50578e-10
-1.53309e-11
-5.15931e-10
-2.50714e-12
-5.31224e-10
2.93499e-11
-3.97277e-10
-3.95933e-12
-7.26949e-11
-1.96882e-12
3.38378e-10
7.33218e-12
7.28616e-10
6.85514e-11
1.16062e-09
5.31467e-11
1.47315e-09
1.44602e-10
1.70885e-09
1.91099e-10
1.8583e-09
2.39522e-10
1.91659e-09
2.96261e-10
2.09473e-09
1.19677e-10
2.48987e-09
-1.66367e-10
2.71933e-09
-6.79462e-11
2.83314e-09
2.78769e-11
2.89425e-09
7.75807e-11
2.91202e-09
1.11807e-10
2.88905e-09
1.45462e-10
2.82554e-09
1.85697e-10
2.73883e-09
2.15608e-10
2.65507e-09
2.18032e-10
2.58189e-09
2.04246e-10
2.57478e-09
1.238e-10
2.58825e-09
8.24274e-11
2.58164e-09
7.9814e-11
2.55418e-09
8.19359e-11
2.51404e-09
8.27866e-11
2.47454e-09
7.54212e-11
2.45711e-09
4.94086e-11
2.44069e-09
4.80599e-11
2.41454e-09
6.11698e-11
2.38853e-09
6.34178e-11
2.38969e-09
3.3961e-11
2.40847e-09
1.53247e-11
2.37633e-09
6.98704e-11
2.31256e-09
1.08129e-10
2.24763e-09
1.12559e-10
2.18137e-09
1.11968e-10
2.12174e-09
1.05297e-10
1.08791e-10
2.06031e-09
1.5743e-13
-3.44091e-12
1.33868e-12
-1.0027e-11
3.74222e-12
-1.61888e-11
7.44217e-12
-2.1855e-11
1.17078e-11
-2.7061e-11
1.62647e-11
-3.1756e-11
2.00042e-11
-3.58456e-11
2.07958e-11
-3.92066e-11
1.57624e-11
-4.1467e-11
3.84645e-11
-4.35461e-11
8.70416e-11
-4.53467e-11
8.93266e-11
-4.85315e-11
1.0749e-10
-5.16377e-11
1.33268e-10
-5.39224e-11
1.7255e-10
-5.46193e-11
2.76185e-10
-5.39098e-11
3.66021e-10
-5.16638e-11
5.46903e-10
-4.74454e-11
7.72955e-10
-4.28963e-11
1.04513e-09
-3.78908e-11
1.37065e-09
-3.22453e-11
1.49642e-09
-6.50785e-12
1.33121e-09
-1.23843e-12
1.26824e-09
-4.98327e-12
1.26923e-09
2.68949e-11
1.30377e-09
4.30331e-11
1.35316e-09
6.24205e-11
1.40258e-09
9.60393e-11
1.45403e-09
1.34252e-10
1.48366e-09
1.85974e-10
1.52569e-09
1.76006e-10
1.75519e-09
-2.52596e-11
1.97159e-09
-9.25962e-11
2.06547e-09
-1.14517e-11
2.09855e-09
4.67359e-11
2.09167e-09
8.88088e-11
2.0673e-09
1.07157e-10
2.07214e-09
7.05823e-11
2.11186e-09
9.69612e-12
2.13906e-09
2.08514e-11
2.13156e-09
6.8675e-11
2.14124e-09
5.37376e-11
2.15589e-09
1.93109e-11
2.17075e-09
4.61622e-13
2.15822e-09
8.24031e-11
2.13792e-09
1.28428e-10
2.13745e-09
1.13033e-10
2.15802e-09
9.13961e-11
2.19124e-09
7.20741e-11
7.5596e-11
2.22444e-09
2.27205e-14
-3.46363e-12
-9.77488e-14
-9.90653e-12
-3.53166e-13
-1.59334e-11
-6.28968e-13
-2.15792e-11
-8.40605e-13
-2.68494e-11
-8.49437e-13
-3.17472e-11
-4.22399e-13
-3.62727e-11
7.98079e-13
-4.04271e-11
3.55165e-12
-4.42205e-11
7.67793e-12
-4.76723e-11
1.3166e-11
-5.08347e-11
1.82401e-11
-5.36044e-11
2.25368e-11
-5.59494e-11
2.63146e-11
-5.7669e-11
3.04126e-11
-5.87004e-11
3.55365e-11
-5.89921e-11
4.22047e-11
-5.85914e-11
5.23653e-11
-5.75269e-11
6.52361e-11
-5.57942e-11
8.06028e-11
-5.33153e-11
9.80118e-11
-4.98647e-11
1.35944e-10
-4.61868e-11
1.70691e-10
-4.21247e-11
1.88241e-10
-3.86819e-11
2.43929e-10
-3.50241e-11
3.1306e-10
-3.0505e-11
3.97646e-10
-2.50811e-11
5.11102e-10
-1.91391e-11
6.57423e-10
-1.29103e-11
8.48257e-10
-5.08413e-12
1.01122e-09
1.30145e-11
9.81502e-10
4.46262e-12
8.97313e-10
-8.40715e-12
8.33485e-10
5.23762e-11
7.93321e-10
8.69003e-11
7.74909e-10
1.0722e-10
7.80035e-10
1.02031e-10
8.05924e-10
4.46928e-11
8.08634e-10
6.98612e-12
7.75304e-10
5.41819e-11
7.36974e-10
1.07005e-10
7.29415e-10
6.12968e-11
6.98423e-10
5.0303e-11
6.01814e-10
9.707e-11
5.91763e-10
9.2454e-11
6.44628e-10
7.55635e-11
7.06607e-10
5.10538e-11
7.91887e-10
6.11609e-12
8.91956e-10
-2.79945e-11
-5.28397e-11
1.02039e-09
-2.64879e-13
-3.19875e-12
-9.07892e-13
-9.26351e-12
-1.87625e-12
-1.4965e-11
-3.16564e-12
-2.02898e-11
-4.77367e-12
-2.52413e-11
-6.69822e-12
-2.98227e-11
-8.93437e-12
-3.40365e-11
-1.14781e-11
-3.78833e-11
-1.43335e-11
-4.13652e-11
-1.75242e-11
-4.44816e-11
-2.11232e-11
-4.72357e-11
-2.51039e-11
-4.96237e-11
-2.94091e-11
-5.16442e-11
-3.37883e-11
-5.32898e-11
-3.79279e-11
-5.45608e-11
-4.14643e-11
-5.54556e-11
-4.40731e-11
-5.59826e-11
-4.545e-11
-5.61499e-11
-4.52712e-11
-5.59731e-11
-4.31141e-11
-5.54724e-11
-3.83068e-11
-5.46719e-11
-3.08805e-11
-5.36131e-11
-2.06732e-11
-5.2332e-11
-8.58688e-12
-5.07674e-11
5.2513e-12
-4.88623e-11
2.12577e-11
-4.65107e-11
3.98333e-11
-4.36548e-11
6.10651e-11
-4.03721e-11
8.46798e-11
-3.65268e-11
1.11779e-10
-3.23011e-11
1.38863e-10
-2.83345e-11
1.64532e-10
-2.40692e-11
1.74786e-10
-1.98474e-11
2.41672e-10
-1.51712e-11
3.36759e-10
-8.44645e-12
4.44965e-10
-1.03475e-12
5.40586e-10
6.4095e-12
5.87017e-10
-1.73843e-12
6.0951e-10
-1.55067e-11
6.44867e-10
1.88255e-11
7.30831e-10
2.10404e-11
7.85612e-10
6.5158e-12
8.24519e-10
1.13963e-11
8.94584e-10
2.70044e-11
9.53315e-10
3.37231e-11
1.01064e-09
1.82397e-11
1.07586e-09
-1.41702e-11
1.12788e-09
-4.59033e-11
1.17109e-09
-7.12057e-11
-1.07622e-10
1.22588e-09
-3.89113e-13
-2.80964e-12
-1.54147e-12
-8.11116e-12
-3.39593e-12
-1.31106e-11
-5.86913e-12
-1.78166e-11
-8.87936e-12
-2.22311e-11
-1.2345e-11
-2.6357e-11
-1.61851e-11
-3.01964e-11
-2.03173e-11
-3.37511e-11
-2.4661e-11
-3.70216e-11
-2.9133e-11
-4.00096e-11
-3.36535e-11
-4.27153e-11
-3.81366e-11
-4.51406e-11
-4.24955e-11
-4.72853e-11
-4.66335e-11
-4.91518e-11
-5.0454e-11
-5.07402e-11
-5.38548e-11
-5.20549e-11
-5.67411e-11
-5.30963e-11
-5.902e-11
-5.3871e-11
-6.06131e-11
-5.438e-11
-6.14533e-11
-5.46321e-11
-6.14968e-11
-5.46284e-11
-6.073e-11
-5.438e-11
-5.91749e-11
-5.38871e-11
-5.67807e-11
-5.31616e-11
-5.34449e-11
-5.2198e-11
-4.89438e-11
-5.10119e-11
-4.30022e-11
-4.95963e-11
-3.53964e-11
-4.79778e-11
-2.57738e-11
-4.61494e-11
-1.39231e-11
-4.41519e-11
-2.8935e-13
-4.19682e-11
1.5282e-11
-3.96401e-11
3.24376e-11
-3.7006e-11
5.12906e-11
-3.40396e-11
7.35228e-11
-3.0695e-11
9.98952e-11
-2.73051e-11
1.23529e-10
-2.42495e-11
1.42213e-10
-2.12337e-11
1.43773e-10
-1.74973e-11
1.75246e-10
-1.28182e-11
1.94564e-10
1.71032e-12
2.06617e-10
-5.53687e-12
2.00611e-10
1.74021e-11
1.89441e-10
3.81747e-11
1.94692e-10
2.84723e-11
2.0836e-10
4.57202e-12
2.2077e-10
-2.65804e-11
2.02963e-10
-2.80969e-11
1.52e-10
-2.02428e-11
-2.36749e-11
6.80532e-11
-5.1799e-13
-2.29165e-12
-1.96487e-12
-6.66427e-12
-4.2466e-12
-1.08289e-11
-7.27609e-12
-1.47871e-11
-1.09677e-11
-1.85395e-11
-1.52378e-11
-2.20869e-11
-2.00041e-11
-2.54302e-11
-2.51857e-11
-2.85694e-11
-3.07023e-11
-3.1505e-11
-3.64746e-11
-3.42373e-11
-4.24231e-11
-3.67667e-11
-4.84696e-11
-3.90941e-11
-5.45344e-11
-4.12205e-11
-6.05394e-11
-4.31468e-11
-6.64052e-11
-4.48745e-11
-7.2055e-11
-4.6405e-11
-7.7411e-11
-4.77404e-11
-8.23995e-11
-4.88825e-11
-8.69459e-11
-4.98336e-11
-9.09818e-11
-5.05961e-11
-9.44377e-11
-5.11726e-11
-9.72518e-11
-5.15658e-11
-9.93608e-11
-5.17781e-11
-1.0071e-10
-5.18129e-11
-1.01236e-10
-5.16718e-11
-1.00888e-10
-5.13592e-11
-9.96085e-11
-5.08762e-11
-9.73568e-11
-5.02295e-11
-9.4087e-11
-4.94192e-11
-8.97861e-11
-4.84527e-11
-8.44271e-11
-4.73272e-11
-7.80124e-11
-4.60548e-11
-7.03935e-11
-4.46249e-11
-6.13788e-11
-4.30543e-11
-5.07435e-11
-4.13303e-11
-3.85614e-11
-3.94872e-11
-2.53236e-11
-3.74876e-11
-1.12382e-11
-3.53196e-11
4.09424e-12
-3.28233e-11
2.12981e-11
-2.99813e-11
4.4953e-11
-2.76769e-11
6.34214e-11
-2.46703e-11
1.03109e-10
-2.26977e-11
1.61066e-10
-2.00153e-11
2.05487e-10
-1.60466e-11
2.26322e-10
-1.62627e-11
2.21048e-10
-2.13067e-11
2.14501e-10
-2.15495e-11
2.16591e-10
-2.23329e-11
-2.46741e-11
2.1759e-10
-5.26915e-13
-1.76474e-12
-1.98058e-12
-5.21061e-12
-4.26142e-12
-8.54801e-12
-7.28525e-12
-1.17633e-11
-1.09715e-11
-1.48532e-11
-1.52432e-11
-1.78153e-11
-2.0026e-11
-2.06473e-11
-2.52485e-11
-2.33469e-11
-3.08414e-11
-2.59121e-11
-3.67375e-11
-2.83412e-11
-4.28714e-11
-3.06328e-11
-4.91796e-11
-3.27859e-11
-5.56001e-11
-3.48001e-11
-6.20719e-11
-3.66749e-11
-6.85359e-11
-3.84105e-11
-7.49336e-11
-4.00073e-11
-8.12081e-11
-4.1466e-11
-8.73029e-11
-4.27876e-11
-9.3163e-11
-4.39735e-11
-9.87336e-11
-4.50255e-11
-1.03961e-10
-4.59456e-11
-1.0879e-10
-4.67361e-11
-1.13169e-10
-4.73996e-11
-1.17043e-10
-4.79393e-11
-1.20356e-10
-4.83583e-11
-1.23055e-10
-4.86606e-11
-1.25081e-10
-4.885e-11
-1.26379e-10
-4.89312e-11
-1.2689e-10
-4.89084e-11
-1.26555e-10
-4.87873e-11
-1.2531e-10
-4.8573e-11
-1.23093e-10
-4.82719e-11
-1.19827e-10
-4.789e-11
-1.15447e-10
-4.7435e-11
-1.09863e-10
-4.69141e-11
-1.03013e-10
-4.6337e-11
-9.47866e-11
-4.57142e-11
-8.50517e-11
-4.50545e-11
-7.35093e-11
-4.43658e-11
-5.9826e-11
-4.36646e-11
-4.45356e-11
-4.29673e-11
-2.69206e-11
-4.22863e-11
-8.15145e-12
-4.1516e-11
1.22279e-11
-4.07271e-11
3.77958e-11
-4.0221e-11
5.85863e-11
-4.00604e-11
7.69178e-11
-4.0176e-11
9.51406e-11
-4.00467e-11
1.13395e-10
-4.05976e-11
-4.19548e-11
1.30675e-10
-2.39993e-13
-1.52475e-12
-9.73094e-13
-4.47751e-12
-2.17334e-12
-7.34776e-12
-3.79635e-12
-1.01403e-11
-5.79809e-12
-1.28515e-11
-8.13497e-12
-1.54784e-11
-1.07637e-11
-1.80185e-11
-1.36414e-11
-2.04693e-11
-1.6725e-11
-2.28285e-11
-1.9972e-11
-2.50942e-11
-2.33401e-11
-2.72647e-11
-2.67873e-11
-2.93387e-11
-3.02722e-11
-3.13152e-11
-3.37536e-11
-3.31935e-11
-3.71911e-11
-3.4973e-11
-4.05446e-11
-3.66537e-11
-4.37749e-11
-3.82357e-11
-4.68431e-11
-3.97194e-11
-4.97113e-11
-4.11053e-11
-5.23423e-11
-4.23946e-11
-5.46996e-11
-4.35882e-11
-5.67478e-11
-4.46879e-11
-5.84523e-11
-4.56951e-11
-5.97794e-11
-4.66122e-11
-6.06965e-11
-4.74412e-11
-6.11722e-11
-4.81849e-11
-6.11765e-11
-4.88458e-11
-6.068e-11
-4.94276e-11
-5.96556e-11
-4.99329e-11
-5.80758e-11
-5.0367e-11
-5.59157e-11
-5.07331e-11
-5.31508e-11
-5.10367e-11
-4.97594e-11
-5.12814e-11
-4.57208e-11
-5.14737e-11
-4.10174e-11
-5.16175e-11
-3.56336e-11
-5.17208e-11
-2.95604e-11
-5.17874e-11
-2.27884e-11
-5.18265e-11
-1.53123e-11
-5.18418e-11
-7.13173e-12
-5.18452e-11
1.74071e-12
-5.18397e-11
1.12949e-11
-5.18404e-11
2.16264e-11
-5.18475e-11
3.27787e-11
-5.18794e-11
4.44973e-11
-5.19396e-11
5.65388e-11
-5.20319e-11
6.84118e-11
-5.20985e-11
8.20847e-11
-5.22722e-11
8.97688e-11
-5.24751e-11
-5.26905e-11
9.96752e-11
-1.66231e-13
-1.35852e-12
-5.80364e-13
-4.06338e-12
-1.20076e-12
-6.72736e-12
-2.0063e-12
-9.33474e-12
-2.97503e-12
-1.18827e-11
-4.08434e-12
-1.43691e-11
-5.31111e-12
-1.67918e-11
-6.6315e-12
-1.91489e-11
-8.02106e-12
-2.14389e-11
-9.45483e-12
-2.36604e-11
-1.09074e-11
-2.58121e-11
-1.2353e-11
-2.78931e-11
-1.37657e-11
-2.99025e-11
-1.51193e-11
-3.18398e-11
-1.63878e-11
-3.37045e-11
-1.7545e-11
-3.54965e-11
-1.85651e-11
-3.72156e-11
-1.94225e-11
-3.8862e-11
-2.00918e-11
-4.0436e-11
-2.05485e-11
-4.19379e-11
-2.07682e-11
-4.33685e-11
-2.07277e-11
-4.47283e-11
-2.04044e-11
-4.60184e-11
-1.97769e-11
-4.72397e-11
-1.88246e-11
-4.83935e-11
-1.75287e-11
-4.94808e-11
-1.58711e-11
-5.05033e-11
-1.38362e-11
-5.14626e-11
-1.14095e-11
-5.23596e-11
-8.5802e-12
-5.31963e-11
-5.33818e-12
-5.39752e-11
-1.67693e-12
-5.4698e-11
2.40861e-12
-5.53669e-11
6.91874e-12
-5.59838e-11
1.18523e-11
-5.6551e-11
1.72028e-11
-5.70713e-11
2.2959e-11
-5.75436e-11
2.91045e-11
-5.7972e-11
3.56212e-11
-5.83585e-11
4.24813e-11
-5.87053e-11
4.96561e-11
-5.90145e-11
5.7104e-11
-5.92883e-11
6.47849e-11
-5.95284e-11
7.26424e-11
-5.97369e-11
8.06178e-11
-5.9915e-11
8.86512e-11
-6.00654e-11
9.67401e-11
-6.01873e-11
1.0475e-10
-6.02823e-11
1.12621e-10
-6.03457e-11
-6.03683e-11
1.20279e-10
1.79909e-14
-1.37651e-12
-5.14009e-15
-4.04025e-12
-9.11099e-14
-6.64139e-12
-2.3402e-13
-9.19183e-12
-4.2644e-13
-1.16903e-11
-6.59622e-13
-1.41359e-11
-9.23641e-13
-1.65278e-11
-1.20745e-12
-1.88651e-11
-1.49903e-12
-2.11474e-11
-1.78551e-12
-2.33739e-11
-2.05327e-12
-2.55444e-11
-2.2881e-12
-2.76583e-11
-2.47529e-12
-2.97153e-11
-2.59977e-12
-3.17153e-11
-2.64615e-12
-3.36582e-11
-2.59888e-12
-3.55438e-11
-2.44232e-12
-3.73722e-11
-2.16083e-12
-3.91435e-11
-1.73887e-12
-4.08579e-11
-1.16104e-12
-4.25158e-11
-4.12245e-13
-4.41173e-11
5.22322e-13
-4.56629e-11
1.65698e-12
-4.71531e-11
3.00561e-12
-4.85884e-11
4.58143e-12
-4.99693e-11
6.39709e-12
-5.12965e-11
8.46437e-12
-5.25706e-11
1.07941e-11
-5.37923e-11
1.33968e-11
-5.49623e-11
1.62815e-11
-5.6081e-11
1.94556e-11
-5.71493e-11
2.29259e-11
-5.81683e-11
2.66978e-11
-5.91387e-11
3.07754e-11
-6.00615e-11
3.51615e-11
-6.09371e-11
3.98564e-11
-6.17662e-11
4.48618e-11
-6.2549e-11
5.01756e-11
-6.32858e-11
5.5795e-11
-6.3978e-11
6.17157e-11
-6.4626e-11
6.79316e-11
-6.52305e-11
7.44352e-11
-6.57918e-11
8.12171e-11
-6.63104e-11
8.82666e-11
-6.67864e-11
9.55717e-11
-6.72201e-11
1.03118e-10
-6.76113e-11
1.10891e-10
-6.79603e-11
1.18875e-10
-6.82665e-11
1.2706e-10
-6.85305e-11
-6.87534e-11
1.35445e-10
-9.15661e-14
-1.28495e-12
-2.79367e-13
-3.85245e-12
-5.29412e-13
-6.39135e-12
-8.33173e-13
-8.88807e-12
-1.18184e-12
-1.13417e-11
-1.56646e-12
-1.37513e-11
-1.97794e-12
-1.61163e-11
-2.40704e-12
-1.8436e-11
-2.84439e-12
-2.071e-11
-3.28049e-12
-2.29378e-11
-3.70572e-12
-2.51191e-11
-4.11041e-12
-2.72536e-11
-4.48483e-12
-2.93409e-11
-4.81924e-12
-3.13809e-11
-5.10393e-12
-3.33735e-11
-5.32926e-12
-3.53184e-11
-5.48571e-12
-3.72157e-11
-5.56392e-12
-3.90653e-11
-5.55474e-12
-4.08671e-11
-5.44923e-12
-4.26213e-11
-5.23881e-12
-4.43277e-11
-4.91519e-12
-4.59865e-11
-4.4705e-12
-4.75978e-11
-3.89732e-12
-4.91615e-11
-3.18874e-12
-5.06779e-11
-2.33834e-12
-5.21469e-11
-1.34037e-12
-5.35686e-11
-1.89581e-13
-5.49431e-11
1.11835e-12
-5.62703e-11
2.58761e-12
-5.75502e-11
4.22095e-12
-5.87827e-11
6.02041e-12
-5.99677e-11
7.98698e-12
-6.11053e-11
1.01208e-11
-6.21953e-11
1.24209e-11
-6.32372e-11
1.48853e-11
-6.42307e-11
1.75116e-11
-6.51752e-11
2.02958e-11
-6.607e-11
2.32324e-11
-6.69145e-11
2.63145e-11
-6.77081e-11
2.95338e-11
-6.84498e-11
3.28803e-11
-6.91383e-11
3.63422e-11
-6.97723e-11
3.99059e-11
-7.035e-11
4.35559e-11
-7.08701e-11
4.72764e-11
-7.13318e-11
5.10522e-11
-7.17361e-11
5.48687e-11
-7.2083e-11
5.87308e-11
-7.23926e-11
-7.27898e-11
6.27672e-11
3.81991e-14
8.50821e-14
1.21726e-13
1.5302e-13
1.84255e-13
2.21115e-13
2.69693e-13
3.36416e-13
4.28048e-13
5.51597e-13
7.14346e-13
9.23728e-13
1.18739e-12
1.51305e-12
1.90858e-12
2.38181e-12
2.9407e-12
3.59304e-12
4.3467e-12
5.2093e-12
6.18849e-12
7.29153e-12
8.5257e-12
9.89776e-12
1.14144e-11
1.30818e-11
1.4906e-11
1.68921e-11
1.90454e-11
2.13701e-11
2.38705e-11
2.65494e-11
2.94098e-11
3.24529e-11
3.56799e-11
3.90906e-11
4.26838e-11
4.64575e-11
5.04078e-11
5.45295e-11
5.8815e-11
6.32585e-11
6.78539e-11
7.26011e-11
7.75097e-11
8.26472e-11
8.78953e-11
9.29993e-11
9.77125e-11
1.01439e-10
-6.4729e-10
-2.11973e-11
-6.43559e-10
-2.07897e-11
-6.3987e-10
-2.03163e-11
-6.36226e-10
-1.97886e-11
-6.3263e-10
-1.92164e-11
-6.29086e-10
-1.86082e-11
-6.25595e-10
-1.79716e-11
-6.22158e-10
-1.73129e-11
-6.18775e-10
-1.6638e-11
-6.15448e-10
-1.59515e-11
-6.12176e-10
-1.52577e-11
-6.08958e-10
-1.45602e-11
-6.05793e-10
-1.3862e-11
-6.02679e-10
-1.31657e-11
-5.99616e-10
-1.24736e-11
-5.96601e-10
-1.17875e-11
-5.93633e-10
-1.1109e-11
-5.9071e-10
-1.04394e-11
-5.87829e-10
-9.77989e-12
-5.8499e-10
-9.13121e-12
-5.82188e-10
-8.49415e-12
-5.79424e-10
-7.86928e-12
-5.76693e-10
-7.25707e-12
-5.73996e-10
-6.65787e-12
-5.71329e-10
-6.07193e-12
-5.68691e-10
-5.4994e-12
-5.66082e-10
-4.94036e-12
-5.63502e-10
-4.39487e-12
-5.60951e-10
-3.86294e-12
-5.58434e-10
-3.34459e-12
-5.55965e-10
-2.83972e-12
-5.53515e-10
-2.34803e-12
-5.5103e-10
-1.86914e-12
-5.48538e-10
-1.40245e-12
-5.46049e-10
-9.46117e-13
-5.43575e-10
-4.93773e-13
-5.41141e-10
-2.99018e-14
-5.38642e-10
3.11638e-13
-5.36114e-10
6.77476e-13
-5.33566e-10
1.03695e-12
-5.31001e-10
1.38583e-12
-5.28418e-10
1.7228e-12
-5.25819e-10
2.04771e-12
-5.23204e-10
2.36118e-12
-5.20571e-10
2.6644e-12
-5.1792e-10
2.95906e-12
-5.15252e-10
3.24716e-12
-5.12566e-10
3.53101e-12
-5.09863e-10
3.81357e-12
4.11264e-12
-5.07172e-10
-3.75598e-10
-1.42892e-11
-3.82028e-10
-1.43599e-11
-3.8802e-10
-1.43238e-11
-3.93613e-10
-1.41953e-11
-3.98842e-10
-1.39877e-11
-4.03737e-10
-1.37131e-11
-4.08327e-10
-1.3382e-11
-4.12636e-10
-1.30037e-11
-4.16687e-10
-1.25864e-11
-4.20502e-10
-1.21372e-11
-4.24097e-10
-1.16625e-11
-4.27489e-10
-1.11677e-11
-4.30693e-10
-1.06578e-11
-4.33722e-10
-1.0137e-11
-4.36587e-10
-9.60903e-12
-4.39297e-10
-9.07702e-12
-4.41862e-10
-8.54379e-12
-4.4429e-10
-8.01177e-12
-4.46587e-10
-7.48302e-12
-4.48759e-10
-6.95931e-12
-4.50811e-10
-6.44217e-12
-4.52747e-10
-5.9329e-12
-4.54572e-10
-5.43259e-12
-4.56287e-10
-4.94219e-12
-4.57897e-10
-4.4625e-12
-4.59402e-10
-3.99421e-12
-4.60804e-10
-3.53793e-12
-4.62105e-10
-3.0942e-12
-4.63304e-10
-2.66354e-12
-4.64402e-10
-2.24647e-12
-4.65399e-10
-1.84356e-12
-4.66291e-10
-1.45566e-12
-4.67076e-10
-1.08402e-12
-4.67748e-10
-7.30475e-13
-4.68294e-10
-3.99981e-13
-4.68684e-10
-1.04106e-13
-4.6899e-10
2.76626e-13
-4.69278e-10
5.98974e-13
-4.69498e-10
8.97572e-13
-4.69638e-10
1.17669e-12
-4.6969e-10
1.43791e-12
-4.69649e-10
1.68225e-12
-4.69512e-10
1.91072e-12
-4.69276e-10
2.12459e-12
-4.68937e-10
2.32551e-12
-4.68493e-10
2.51555e-12
-4.67943e-10
2.69711e-12
-4.67285e-10
2.87299e-12
-4.66519e-10
3.04715e-12
3.21796e-12
-4.65624e-10
-2.88319e-10
9.291e-13
-3.02522e-10
-1.57359e-13
-3.1541e-10
-1.43507e-12
-3.27215e-10
-2.3904e-12
-3.38054e-10
-3.14896e-12
-3.48019e-10
-3.74806e-12
-3.57191e-10
-4.21069e-12
-3.65639e-10
-4.55484e-12
-3.7343e-10
-4.79573e-12
-3.80621e-10
-4.94668e-12
-3.87264e-10
-5.01945e-12
-3.93407e-10
-5.02455e-12
-3.99093e-10
-4.97134e-12
-4.04362e-10
-4.86818e-12
-4.09249e-10
-4.72254e-12
-4.13785e-10
-4.5411e-12
-4.17999e-10
-4.32979e-12
-4.21917e-10
-4.09389e-12
-4.25561e-10
-3.8381e-12
-4.28954e-10
-3.56658e-12
-4.32113e-10
-3.28305e-12
-4.35055e-10
-2.99075e-12
-4.37795e-10
-2.69258e-12
-4.40347e-10
-2.39109e-12
-4.42721e-10
-2.08849e-12
-4.44928e-10
-1.78672e-12
-4.46979e-10
-1.4874e-12
-4.48881e-10
-1.19181e-12
-4.50644e-10
-9.00721e-13
-4.52277e-10
-6.13472e-13
-4.53796e-10
-3.24035e-13
-4.55197e-10
-5.47536e-14
-4.5643e-10
1.49078e-13
-4.57528e-10
3.67542e-13
-4.58508e-10
5.79416e-13
-4.59392e-10
7.80492e-13
-4.60085e-10
9.68844e-13
-4.60628e-10
1.14281e-12
-4.61032e-10
1.30132e-12
-4.61299e-10
1.44369e-12
-4.61431e-10
1.56949e-12
-4.61427e-10
1.67861e-12
-4.61288e-10
1.77141e-12
-4.61012e-10
1.84878e-12
-4.60599e-10
1.91226e-12
-4.60047e-10
1.96405e-12
-4.59357e-10
2.00693e-12
-4.58528e-10
2.04432e-12
-4.57563e-10
2.08136e-12
2.13049e-12
-4.56475e-10
-2.49769e-11
2.19041e-11
-4.48952e-11
1.97609e-11
-6.41845e-11
1.78542e-11
-8.27392e-11
1.61644e-11
-1.00561e-10
1.46724e-11
-1.17669e-10
1.33599e-11
-1.34089e-10
1.22098e-11
-1.4985e-10
1.12062e-11
-1.6498e-10
1.03343e-11
-1.79507e-10
9.58059e-12
-1.93459e-10
8.93263e-12
-2.06863e-10
8.37892e-12
-2.19743e-10
7.90901e-12
-2.32125e-10
7.51331e-12
-2.4403e-10
7.18311e-12
-2.55482e-10
6.91046e-12
-2.665e-10
6.68813e-12
-2.77103e-10
6.50958e-12
-2.8731e-10
6.36883e-12
-2.97137e-10
6.26049e-12
-3.066e-10
6.17967e-12
-3.15713e-10
6.12189e-12
-3.24488e-10
6.08314e-12
-3.32939e-10
6.05972e-12
-3.41076e-10
6.0483e-12
-3.48909e-10
6.0458e-12
-3.56445e-10
6.04945e-12
-3.63694e-10
6.05665e-12
-3.7066e-10
6.06504e-12
-3.77346e-10
6.0724e-12
-3.83746e-10
6.07661e-12
-3.89876e-10
6.07555e-12
-3.95795e-10
6.06723e-12
-4.01477e-10
6.05011e-12
-4.0692e-10
6.02257e-12
-4.12123e-10
5.9831e-12
-4.17084e-10
5.93031e-12
-4.21804e-10
5.8629e-12
-4.26283e-10
5.77962e-12
-4.30518e-10
5.67939e-12
-4.3451e-10
5.56142e-12
-4.38257e-10
5.42524e-12
-4.41756e-10
5.27086e-12
-4.45007e-10
5.09894e-12