/*--------------------------------*- C++ -*----------------------------------*\
| =========                 |                                                 |
| \\      /  F ield         | OpenFOAM: The Open Source CFD Toolbox           |
|  \\    /   O peration     | Version:  2.4.0                                 |
|   \\  /    A nd           | Web:      www.OpenFOAM.org                      |
|    \\/     M anipulation  |                                                 |
\*---------------------------------------------------------------------------*/
FoamFile
{
    version     2.0;
    format      ascii;
    class       volScalarField;
    location    "3.8";
    object      p;
}
// * * * * * * * * * * * * * * * * * * * * * * * * * * * * * * * * * * * * * //

dimensions      [1 -1 -2 0 0 0 0];

internalField   nonuniform List<scalar> 
8000
(
33.6995
33.7022
33.719
33.7468
33.7843
33.8312
33.8883
33.9549
34.0307
34.1158
34.2095
34.3115
34.4213
34.5383
34.6617
34.7906
34.924
35.0606
35.199
35.3375
35.4743
35.607
35.7333
35.8501
35.9543
36.0424
36.1102
36.1533
36.1671
36.1463
36.0855
35.9793
35.8223
35.6091
35.3368
35.0228
34.6143
34.136
33.5949
32.9959
32.3514
31.6716
30.9882
30.3086
29.6089
28.8619
27.7786
24.4972
20.5392
19.2349
30.3347
30.3316
30.3253
30.3153
30.3017
30.2847
30.2639
30.2393
30.2106
30.1778
30.1403
30.098
30.0506
29.9976
29.9388
29.8739
29.8023
29.7239
29.6383
29.5452
29.4445
29.3359
29.2194
29.0949
28.9627
28.8228
28.6758
28.5222
28.3626
28.198
28.0293
27.8578
27.6849
27.5118
27.3398
27.1702
27.0055
26.8447
26.688
26.5342
26.3806
26.2216
26.0482
25.8545
25.6335
25.3553
25.0014
24.5951
24.1429
23.3683
28.9838
28.9649
28.9434
28.9215
28.8988
28.8747
28.8494
28.8227
28.7948
28.7657
28.7355
28.7042
28.6718
28.6385
28.6042
28.5691
28.5331
28.4965
28.4591
28.4212
28.3827
28.3438
28.3044
28.2647
28.2245
28.1838
28.1426
28.1007
28.0579
28.0139
27.9683
27.9207
27.8705
27.8169
27.759
27.6959
27.6262
27.5488
27.4621
27.3643
27.2539
27.1293
26.9889
26.8319
26.6576
26.4663
26.2601
26.0445
25.8273
25.586
26.7496
26.7205
26.6847
26.6489
26.6138
26.5786
26.543
26.507
26.4706
26.4338
26.3965
26.3587
26.3203
26.2814
26.2418
26.2016
26.1606
26.1189
26.0764
26.033
25.9886
25.9432
25.8966
25.8488
25.7997
25.749
25.6968
25.6428
25.5869
25.529
25.4688
25.4062
25.3411
25.2732
25.2025
25.1288
25.052
24.972
24.8888
24.8024
24.7128
24.6203
24.5251
24.4276
24.3279
24.2266
24.1245
24.022
23.9193
23.8166
26.1244
26.0803
26.0323
25.9875
25.9451
25.9039
25.8636
25.8241
25.7856
25.7478
25.7109
25.6746
25.6391
25.6042
25.57
25.5364
25.5033
25.4707
25.4386
25.4071
25.3759
25.3452
25.315
25.2851
25.2556
25.2265
25.1978
25.1695
25.1416
25.1142
25.0872
25.0607
25.0348
25.0096
24.985
24.9613
24.9386
24.917
24.8966
24.8777
24.8605
24.8453
24.8322
24.8217
24.8142
24.8101
24.8103
24.8157
24.8265
24.8388
23.6883
23.6536
23.612
23.5711
23.5313
23.4918
23.4524
23.4129
23.3733
23.3337
23.294
23.2541
23.2141
23.1739
23.1334
23.0927
23.0517
23.0104
22.9688
22.9268
22.8844
22.8416
22.7983
22.7546
22.7104
22.6657
22.6204
22.5747
22.5284
22.4816
22.4342
22.3863
22.3378
22.2888
22.2392
22.189
22.1384
22.0871
22.0353
21.983
21.93
21.8764
21.8222
21.7674
21.7128
21.6598
21.6086
21.5454
21.4313
21.1445
22.6667
22.6367
22.6036
22.5717
22.5406
22.5095
22.4783
22.4468
22.4151
22.3833
22.3513
22.3191
22.2866
22.2539
22.2209
22.1876
22.1539
22.12
22.0856
22.0508
22.0156
21.9799
21.9438
21.907
21.8697
21.8318
21.7932
21.754
21.714
21.6732
21.6316
21.5891
21.5457
21.5013
21.456
21.4096
21.3622
21.3137
21.264
21.2131
21.1611
21.1097
21.062
21.0176
20.9486
20.786
20.4172
20.1985
19.5141
18.1097
20.405
20.3843
20.359
20.3338
20.309
20.2844
20.2596
20.2346
20.2096
20.1844
20.1592
20.134
20.1086
20.0833
20.0579
20.0326
20.0072
19.982
19.9568
19.9318
19.9069
19.8822
19.8578
19.8336
19.8098
19.7864
19.7634
19.7409
19.719
19.6978
19.6772
19.6575
19.6386
19.6206
19.6036
19.5877
19.5728
19.559
19.5469
19.5389
19.5385
19.5412
19.5125
19.3402
18.7835
17.8693
15.8082
14.9051
14.2607
14.3086
19.2869
19.2756
19.2632
19.2506
19.2374
19.2232
19.2081
19.1921
19.1752
19.1575
19.1389
19.1195
19.0993
19.0783
19.0564
19.0338
19.0104
18.9862
18.9611
18.9353
18.9086
18.8811
18.8528
18.8236
18.7936
18.7627
18.7308
18.698
18.6643
18.6295
18.5937
18.5568
18.5188
18.4796
18.4389
18.397
18.3555
18.3167
18.2777
18.214
18.0864
17.6512
16.8169
14.5428
12.8245
12.0983
13.1193
15.1262
17.274
18.5658
17.0916
17.0863
17.0774
17.0671
17.0559
17.0438
17.0307
17.0166
17.0015
16.9855
16.9685
16.9506
16.9317
16.912
16.8913
16.8698
16.8473
16.8241
16.7999
16.7749
16.7491
16.7225
16.695
16.6668
16.6378
16.6081
16.5776
16.5463
16.5144
16.4818
16.4486
16.4148
16.38
16.3441
16.3086
16.2814
16.2756
16.2656
15.9882
14.7519
12.2518
9.64726
7.9906
11.3935
14.9905
17.6135
18.6241
18.6207
18.5505
18.5361
16.5953
16.5843
16.5737
16.5638
16.5538
16.5434
16.5327
16.5216
16.5102
16.4985
16.4866
16.4743
16.4618
16.449
16.4361
16.4229
16.4096
16.3961
16.3826
16.3689
16.3553
16.3416
16.328
16.3145
16.3011
16.288
16.275
16.2623
16.2501
16.2381
16.2258
16.2127
16.2026
16.2108
16.2527
16.241
15.7743
14.3173
10.7198
8.87905
10.038
14.6405
18.4887
18.8012
18.4768
18.3274
18.3071
18.2927
18.2846
18.2817
14.3253
14.3254
14.322
14.316
14.3084
14.299
14.288
14.2752
14.2607
14.2444
14.2264
14.2066
14.1851
14.1618
14.1368
14.11
14.0814
14.0511
14.019
13.9851
13.9495
13.912
13.8728
13.8319
13.7891
13.7446
13.6984
13.6503
13.5995
13.5457
13.4934
13.4603
13.459
13.3746
12.7754
11.2946
9.6097
9.91008
13.5032
18.5859
18.6814
18.2471
18.1766
18.201
18.2075
18.2087
18.2111
18.2134
18.2129
18.2101
14.1832
14.1776
14.1725
14.1672
14.1609
14.1536
14.1452
14.1357
14.1252
14.1136
14.1009
14.0872
14.0724
14.0566
14.0397
14.0218
14.003
13.9831
13.9623
13.9406
13.918
13.8946
13.8704
13.8454
13.8198
13.7936
13.7665
13.738
13.7091
13.6879
13.6906
13.6944
13.4998
12.6974
11.0383
12.7744
15.3842
18.062
18.2304
18.1811
18.1629
18.1578
18.1535
18.1514
18.1462
18.136
18.1224
18.1055
18.0881
18.0602
12.5045
12.5127
12.5183
12.5205
12.5195
12.5156
12.509
12.4995
12.4871
12.4719
12.4538
12.4329
12.409
12.3823
12.3527
12.3201
12.2847
12.2464
12.2052
12.1611
12.1141
12.0642
12.0114
11.9558
11.8972
11.8353
11.77
11.7046
11.6494
11.6053
11.488
11.0444
10.2505
11.7669
16.3222
17.9117
18.119
18.1197
18.1246
18.1255
18.1269
18.1269
18.1208
18.1122
18.0888
18.0435
17.9757
18.0536
18.0805
18.3578
12.4297
12.4453
12.461
12.4725
12.4798
12.4832
12.4831
12.4794
12.472
12.4611
12.4465
12.4283
12.4064
12.3807
12.3512
12.3179
12.2806
12.2393
12.1938
12.1441
12.0899
12.0312
11.9678
11.8994
11.8256
11.746
11.6625
11.5812
11.5031
11.3765
11.04
10.4681
11.0006
15.6462
17.8477
18.1339
18.1864
18.1883
18.1895
18.1875
18.1849
18.1843
18.1853
18.1683
18.1012
18.0014
17.9912
18.0014
18.0563
18.2221
12.3436
12.3678
12.3916
12.4097
12.4224
12.4304
12.4339
12.433
12.4276
12.4178
12.4035
12.3847
12.3613
12.3334
12.3007
12.2633
12.221
12.1737
12.1211
12.0633
11.9999
11.9307
11.8555
11.7741
11.6862
11.5913
11.4888
11.3785
11.2631
11.1498
11.0345
10.8378
10.3539
9.65665
11.552
15.3172
17.2425
17.539
17.5785
17.5759
17.5712
17.567
17.5555
17.5448
17.4693
17.3125
17.3315
17.3244
17.2866
17.4873
13.1294
13.129
13.1272
13.1255
13.1244
13.1238
13.1237
13.124
13.1248
13.1261
13.1279
13.1303
13.1333
13.137
13.1414
13.1467
13.1528
13.16
13.1683
13.1777
13.1884
13.2006
13.2143
13.2296
13.2468
13.2659
13.2872
13.3107
13.3361
13.3637
13.3973
13.447
13.5131
13.5162
13.0263
11.469
8.67808
13.6455
15.2657
16.7182
16.8085
16.8259
16.8139
16.8123
16.8057
16.7917
16.7791
16.7601
16.7276
16.6727
15.1834
15.1675
15.1546
15.144
15.1347
15.1268
15.1207
15.1169
15.1157
15.1176
15.1228
15.1316
15.1443
15.1612
15.1826
15.2086
15.2397
15.276
15.3178
15.3654
15.4189
15.4788
15.5452
15.6184
15.6988
15.7866
15.8822
15.9858
16.0978
16.2185
16.349
16.4913
16.6447
16.7931
16.9012
17.0019
16.8808
14.4266
7.34388
5.98614
10.8674
13.7499
16.3818
16.3628
16.2472
16.1916
16.1787
16.1847
16.1906
16.1902
13.3271
13.364
13.3922
13.409
13.4182
13.4226
13.4233
13.4212
13.417
13.4115
13.4053
13.3987
13.3924
13.3865
13.3815
13.3774
13.3747
13.3733
13.3733
13.3749
13.3781
13.3828
13.3891
13.3968
13.4058
13.416
13.4272
13.4391
13.4515
13.464
13.4762
13.4876
13.4981
13.5083
13.5172
13.5126
13.4659
13.3915
13.3262
13.2761
10.743
8.85914
2.69515
3.34028
11.05
12.7374
15.609
16.3699
16.4055
16.0881
18.6779
18.226
17.7711
17.3821
17.0467
16.7487
16.4816
16.2428
16.03
15.8413
15.675
15.5293
15.4032
15.2954
15.2052
15.1317
15.0743
15.0325
15.006
14.9943
14.9973
15.0148
15.0468
15.0932
15.1543
15.2303
15.3215
15.4285
15.5519
15.6927
15.8519
16.031
16.2316
16.4559
16.7065
16.9866
17.3007
17.6546
18.0539
18.5071
19.0041
19.5889
20.1713
20.4261
19.1594
18.1569
13.2787
13.9605
10.7221
16.5732
20.7051
21.3304
21.7158
22.0906
22.2123
22.0142
21.7351
21.5243
21.3889
21.2757
21.1704
21.0707
20.981
20.9097
20.8696
20.8596
20.8381
20.762
20.6375
20.5039
20.3964
20.3214
20.2654
20.2173
20.3167
20.5824
20.8046
20.6067
20.2495
19.9927
19.8942
19.8403
19.8131
19.9464
20.5456
21.2987
21.4542
21.0816
20.2982
19.3925
18.8512
18.632
18.5532
18.509
18.4568
18.4019
18.3521
18.3066
18.2639
18.2231
22.3922
21.4893
21.452
21.6154
21.3707
20.648
20.0408
19.8059
19.7264
19.6977
19.6903
19.7022
19.7285
19.7378
19.7022
19.6342
19.5583
19.4844
19.4153
19.3544
19.3052
19.2843
19.251
19.315
19.482
19.8905
19.5306
19.2985
19.2067
19.1904
19.3411
19.689
20.0165
20.1503
19.8847
19.4423
19.1005
18.8784
18.6913
18.5148
18.4055
18.3404
18.2866
18.2336
18.1852
18.144
18.1104
18.0847
18.0653
18.0517
25.2479
24.7511
24.4762
23.559
21.9941
20.5125
19.4357
19.0276
18.965
18.9611
18.974
19.0026
19.0107
19.0003
18.9877
18.9747
18.9614
18.9565
18.9247
18.8914
18.8634
18.8398
18.8092
18.79
18.7955
18.8301
19.109
18.8914
18.8196
18.9861
18.9181
18.72
18.7341
18.678
18.5993
19.9456
18.9268
18.6989
18.5463
18.4591
18.4026
18.3524
18.3062
18.2695
18.2412
18.2187
18.2034
18.1952
18.1955
18.2035
23.7188
23.6165
23.4731
22.8954
22.2558
21.2284
19.5216
18.7199
18.6303
18.617
18.6138
18.6163
18.6069
18.5833
18.5719
18.5555
18.5432
18.7475
18.5728
18.5371
18.5224
18.5591
18.5069
18.5018
18.7372
18.5341
18.5158
18.4889
18.474
18.4784
18.4963
18.5402
18.6296
19.4517
19.4258
19.0692
18.8693
18.7535
18.7057
18.6818
18.6637
18.6495
18.6509
18.7536
18.7388
18.7056
18.6984
18.7111
18.7316
18.7528
24.845
24.8142
24.7188
24.1975
23.3422
22.0065
19.9254
18.9712
18.8808
18.8603
18.849
18.8635
18.8181
18.8107
18.8081
18.8156
18.8407
18.961
18.8818
18.8447
18.8277
19.0149
19.0106
18.9989
19
19.0097
19.0334
19.0897
19.1687
19.2394
19.2974
19.3562
19.3491
19.2908
19.1886
19.0962
19.0545
19.0552
19.0776
19.0873
19.0904
19.1097
19.2278
19.5274
21.7408
19.7139
19.4311
19.3112
19.2957
19.3091
20.7802
19.7444
18.9711
18.2671
17.8358
18.4679
18.8819
18.7852
18.7103
18.6935
18.7215
18.7076
18.6996
18.69
18.6792
18.6671
19.1122
19.05
18.9889
18.976
18.9818
18.9463
18.9596
18.9973
19.0864
19.1928
19.228
19.1929
19.1111
18.9643
18.888
18.8403
18.7997
18.7395
18.6933
18.7517
18.7483
18.7856
19.5695
19.3705
19.0727
19.3888
19.2892
19.4851
19.9243
20.4132
20.2051
19.6808
19.3259
19.2322
17.4663
16.8244
16.928
18.132
18.8742
18.966
18.945
18.9425
18.9444
18.962
18.9602
18.948
18.931
18.9047
18.9224
19.0422
18.8463
18.8513
18.6487
18.8422
18.8541
18.8607
18.867
18.862
18.8595
18.8647
18.8722
18.8811
18.8882
18.8967
18.8998
18.9204
18.9443
18.9513
18.9601
19.0083
19.1548
19.3596
19.4634
19.4137
19.2138
19.0307
19.1113
19.0455
19.3025
19.7254
20.0186
20.127
20.1889
20.1305
16.0792
17.9881
18.8157
18.8878
18.837
18.8232
18.8196
18.8187
18.8177
18.8162
18.8166
18.8143
18.8121
18.8108
18.8139
18.825
18.8283
18.8229
18.8313
18.8366
18.8362
18.8369
18.8334
18.8356
18.8368
18.8398
18.8458
18.8522
18.8527
18.8502
18.8898
18.8403
18.8172
18.7906
18.7574
18.7264
18.6895
18.641
18.5852
18.5298
18.4426
18.367
18.3039
18.2285
18.1425
18.079
18.0928
18.8353
18.3644
17.4819
18.7985
18.741
18.6969
18.6806
18.6748
18.6738
18.6738
18.6744
18.6759
18.6754
18.6722
18.6676
18.6647
18.6625
18.6606
18.6625
18.678
18.7371
18.6724
18.6508
18.6433
18.6413
18.6388
18.6354
18.6437
18.6929
19.113
18.8755
18.8232
18.7943
18.7867
18.7879
18.7899
18.7925
18.7956
18.7988
18.8016
18.8024
18.8082
18.8546
18.9588
19.2914
19.1164
19.0129
18.9476
18.9116
18.8731
18.8232
18.7584
18.6915
18.5353
18.5337
18.5309
18.5287
18.5282
18.5318
18.5338
18.5423
18.5701
18.7051
18.6152
18.5809
18.5631
18.5578
18.5515
18.553
18.6152
19.2291
19.0106
18.8581
18.7687
18.7365
18.7276
18.7135
18.6998
18.7307
18.8416
18.9915
18.9725
18.6403
18.4882
18.3991
18.3696
18.3531
18.3254
18.2948
18.2776
18.2831
18.28
18.2528
18.247
18.3229
18.3782
18.3354
18.2705
18.1893
18.0565
17.9032
17.7948
17.7374
18.2813
18.2811
18.2789
18.274
18.2668
18.2608
18.2633
18.2924
18.7815
18.5375
18.46
18.4042
18.4124
18.3497
18.3377
18.3477
18.3813
18.3832
18.3325
18.2379
18.1367
18.1385
18.0731
18.063
18.1008
18.1726
18.1788
18.1203
18.0218
17.8655
17.7063
17.6008
17.5503
17.5016
17.4735
17.4798
17.5597
17.6706
17.6576
17.5745
17.452
17.4169
17.3276
17.1384
16.9051
16.7464
16.6764
16.6449
16.6125
16.5815
18.2066
18.2023
18.1959
18.1873
18.1739
18.1563
18.1359
18.165
18.0833
18.0555
18.0474
18.0083
17.9617
17.9452
17.9342
17.9398
17.9407
17.8799
17.7691
17.6568
17.613
17.5548
17.5748
17.6272
17.6035
17.5239
17.4214
17.2605
17.0507
16.8787
16.7754
16.6867
16.5919
16.5826
16.6674
16.6811
16.5689
16.4304
16.28
16.0444
15.7368
15.488
15.3305
15.2098
15.0884
14.9724
14.8922
14.9007
14.5249
14.3484
18.0227
17.9773
17.9196
17.8571
17.8045
17.7746
17.7554
17.7386
17.8846
17.802
17.7488
17.7619
17.7033
17.6626
17.6159
17.6012
17.5208
17.4186
17.8433
17.5359
17.3459
17.25
17.0306
16.9922
16.9173
16.7799
16.6015
16.3943
16.196
16.0573
15.8838
15.6962
15.574
15.505
15.4521
15.3162
15.082
14.7649
14.4596
14.203
13.9796
13.7776
13.5793
13.3561
13.22
13.1133
12.9219
12.5707
12.2377
12.1085
18.0555
17.9705
17.9095
17.8903
17.9039
17.9035
17.9163
17.8722
17.7366
17.6405
17.5753
17.4959
17.4664
17.4156
17.3412
17.2458
17.1279
16.9979
17.0776
16.9393
16.7982
16.7252
16.4427
16.2958
16.3692
16.0188
15.8465
15.7077
15.5182
15.2564
15.0703
14.8517
14.6491
14.3917
14.174
13.9785
13.7548
13.4866
13.2353
12.976
12.7225
12.507
12.1595
11.925
11.7873
11.4706
11.1768
10.9084
10.6527
10.3746
18.2168
17.9417
18.1872
17.6731
17.7033
17.4689
17.5994
17.5847
17.1646
17.2099
16.8809
16.8944
16.8732
16.8265
16.7578
16.6487
16.5042
16.4853
16.1519
16.4617
16.27
16.1068
16.1791
15.7548
15.6693
15.5917
15.4427
15.2653
15.0783
15.0281
14.6232
14.4721
14.2478
14.0256
13.8496
13.6264
13.3959
13.1727
12.9391
12.6376
12.3509
12.4045
11.9783
11.7182
11.5381
11.2554
10.9808
10.9784
10.7094
10.3944
17.4363
17.3208
17.508
17.0389
17.0275
16.7422
16.8741
16.8587
16.7875
17.0655
16.7909
16.7998
16.7812
16.7426
16.7081
16.5199
16.4162
16.6076
16.0946
16.156
15.9981
15.8649
16.1649
15.3842
15.3855
15.3115
15.1687
15.0511
14.9162
14.7516
14.6487
14.5106
14.2841
14.2507
14.165
14.0268
13.8906
13.7311
13.4804
13.148
13.4356
12.7129
12.6733
12.5406
11.8818
11.8824
11.6449
11.4388
11.2226
10.996
16.565
16.7849
16.6914
16.7681
16.766
16.5426
16.7287
16.4005
16.3917
16.146
16.1995
15.984
16.0174
15.9957
15.8559
15.8331
15.6868
15.8331
15.6844
15.8039
15.7404
15.5963
15.8923
15.492
15.6672
15.5351
15.582
15.5093
15.6184
15.0712
15.2653
15.089
15.1717
15.1545
15.0499
14.921
14.801
14.6162
14.3038
13.9494
13.8152
13.3922
13.5009
13.4504
13.1251
13.1587
12.7372
12.5604
12.3283
12.0685
16.1795
16.1673
16.14
16.1268
16.1045
16.1974
16.1041
16.0416
16.1157
16.0815
16.1129
16.1395
16.1465
16.1347
16.0629
16.0879
16.0761
16.1614
16.168
16.0411
16.0535
16.066
16.057
16.1774
16.0807
16.1064
15.8891
15.9551
16.0568
16.0028
15.8214
16.0748
15.6499
15.8476
15.7372
15.5737
15.6622
15.6447
15.6746
15.3755
15.4928
15.3791
15.6718
15.8123
15.7981
15.7647
15.5839
15.2445
15.374
14.9567
15.9559
15.9526
15.9583
15.9485
15.9617
16.0289
16.0063
15.9885
16.023
16.0024
15.989
16.0126
16.0057
15.9847
15.9892
15.9994
16.0139
16.0323
16.0603
16.0208
16.1241
16.0935
16.1392
16.1902
16.2442
16.2624
16.2918
16.3462
16.4229
16.428
16.4023
16.5428
16.4598
16.6076
16.5644
16.4481
16.5844
16.6185
16.7777
16.9886
16.6562
16.3265
16.4422
16.5021
16.8005
17.3459
17.2029
16.6844
17.0486
16.5298
16.3473
16.3077
16.3123
16.314
16.3175
16.3399
16.3388
16.3269
16.3297
16.3304
16.3307
16.3376
16.3411
16.3451
16.3541
16.3692
16.3385
16.3408
16.3499
16.3624
16.3707
16.3918
16.4029
16.4214
16.4418
16.46
16.4852
16.505
16.5274
16.5517
16.5742
16.5989
16.6239
16.6488
16.6693
16.6882
16.7058
16.7214
16.7339
16.7481
16.7388
16.6359
16.4989
16.6748
16.3766
16.4858
15.8446
15.4115
15.6352
15.3909
18.1941
18.1744
18.1546
18.1348
18.1151
18.0956
18.076
18.0563
18.0365
18.0164
17.9961
17.9756
17.9547
17.9336
17.9121
17.8903
17.8682
17.8458
17.823
17.7999
17.7765
17.7527
17.7286
17.7042
17.6794
17.6542
17.6288
17.6029
17.5766
17.55
17.5229
17.4954
17.4675
17.4392
17.4115
17.3818
17.3519
17.3216
17.2908
17.2594
17.2275
17.195
17.1635
17.1289
17.0944
17.0594
17.0237
16.9873
16.9502
16.9123
16.8737
16.8344
16.7944
16.7537
16.712
16.6682
16.6248
16.5807
16.5357
16.4897
16.4429
16.3951
16.3465
16.2971
16.2468
16.1955
16.1434
16.0903
16.0365
15.9817
15.9262
15.8699
15.8127
15.7548
15.696
15.6365
15.5763
15.5154
15.4538
15.3916
15.3288
15.2654
15.2015
15.1371
15.0723
15.0072
14.9417
14.876
14.8101
14.7441
14.678
14.6119
14.5459
14.48
14.4143
14.3489
14.2838
14.2191
14.1549
14.0913
14.0283
13.9661
13.9046
13.844
13.7842
13.7255
13.6678
13.6112
13.5558
13.5016
13.4486
13.397
13.3467
13.2978
13.2503
13.2042
13.1597
13.1166
13.075
13.035
12.9965
12.9595
12.924
12.8901
12.8576
12.8267
12.7972
12.7691
12.7425
12.7172
12.6933
12.6707
12.6493
12.6292
12.6103
12.5925
12.5757
12.5599
12.5448
12.5315
12.5185
12.5057
12.4926
12.4876
12.4722
12.4657
12.4528
12.4415
12.4296
12.4179
12.4155
12.4081
12.4164
12.4014
12.3958
12.3882
12.3744
12.384
12.3379
12.3501
12.2931
12.2898
12.281
12.2727
12.2549
12.2457
12.2357
12.2223
12.212
12.2007
12.1889
12.1759
12.1629
12.1495
12.1352
12.1202
12.1059
12.0899
12.0732
12.0549
12.0368
12.0194
12.0004
11.9811
11.9615
11.9411
11.9202
11.8986
11.8768
11.8547
11.8321
11.8096
11.7869
11.7641
11.7411
11.7182
11.6951
11.6719
11.6486
11.6253
11.6019
11.578
11.5544
11.5303
11.5052
11.4798
11.455
11.4284
11.4006
11.3723
11.3428
11.3121
11.2797
11.2459
11.2119
11.1748
11.1361
11.0958
11.0536
11.0089
10.9625
10.9144
10.8641
10.8118
10.7576
10.7012
10.6429
10.5824
10.5202
10.4561
10.3902
10.3225
10.2532
10.1821
10.1094
10.0352
9.9594
9.88217
9.80363
9.72363
9.64214
9.55919
9.47485
9.38939
9.30281
9.21516
9.12645
9.03671
8.94596
8.85423
8.76157
8.66802
8.57363
8.47841
8.38237
8.28551
8.18783
8.08934
7.99007
7.89003
7.78927
7.68781
7.58567
7.48289
7.37949
7.27551
7.171
7.06601
6.96058
6.85479
6.74867
6.6423
6.53574
6.42904
6.32227
6.2155
6.10878
6.00218
5.89575
5.78951
5.6835
5.57774
5.47225
5.36704
5.26214
5.15755
5.05327
4.94931
4.84564
4.74227
4.63924
4.53659
4.43424
4.33202
4.22996
4.12862
4.02824
3.92683
3.82064
3.71099
18.0448
18.0409
18.0376
18.0347
18.0322
18.0298
18.0273
18.0246
18.0216
18.0181
18.0139
18.0092
18.0038
17.9977
17.991
17.9835
17.9753
17.9663
17.9567
17.9463
17.9354
17.9236
17.9111
17.8981
17.8844
17.87
17.8551
17.8394
17.8232
17.8064
17.7889
17.7709
17.7522
17.733
17.7132
17.6925
17.6707
17.6488
17.6263
17.6032
17.5793
17.5549
17.5304
17.5069
17.4763
17.4485
17.4202
17.3912
17.3614
17.3307
17.299
17.2665
17.2331
17.1988
17.1638
17.129
17.1051
17.053
17.0121
16.9727
16.9318
16.8902
16.8553
16.8072
16.7615
16.7155
16.6687
16.6209
16.572
16.5227
16.4796
16.4225
16.3692
16.3154
16.2609
16.2052
16.1485
16.0907
16.032
15.9725
15.9121
15.8508
15.7884
15.7249
15.6603
15.5949
15.5285
15.4613
15.3936
15.3252
15.2564
15.1873
15.1178
15.0481
14.9782
14.9082
14.8382
14.7682
14.6984
14.6288
14.5594
14.4904
14.4219
14.3539
14.2865
14.2198
14.1538
14.0888
14.0246
13.9614
13.8994
13.8384
13.7786
13.7201
13.6629
13.607
13.5526
13.4996
13.4481
13.3982
13.3498
13.303
13.2578
13.2142
13.1723
13.1321
13.0935
13.0566
13.0213
12.9877
12.9557
12.9254
12.8967
12.8695
12.8439
12.8198
12.7972
12.776
12.7562
12.7377
12.7206
12.7046
12.6897
12.6758
12.6628
12.6524
12.6403
12.6311
12.6214
12.6112
12.6015
12.5931
12.5851
12.575
12.5635
12.5643
12.538
12.543
12.5283
12.5658
12.5471
12.5762
12.5708
12.5469
12.5443
12.5214
12.5501
12.5252
12.5168
12.496
12.5003
12.4816
12.4822
12.4578
12.4536
12.4418
12.434
12.4206
12.4105
12.3994
12.3867
12.3744
12.3617
12.3494
12.3359
12.3214
12.3071
12.2925
12.2772
12.2611
12.245
12.2297
12.2115
12.1952
12.1785
12.1617
12.1449
12.128
12.111
12.0939
12.0766
12.0592
12.0416
12.0233
12.0052
11.9865
11.9667
11.9458
11.9255
11.9042
11.8803
11.8569
11.8319
11.8045
11.775
11.7436
11.7111
11.6762
11.6397
11.6008
11.5593
11.5156
11.4693
11.4198
11.3709
11.3173
11.2609
11.2025
11.1414
11.0779
11.012
10.9436
10.8731
10.8003
10.7254
10.6482
10.5689
10.4876
10.4042
10.3188
10.2314
10.1422
10.0511
9.95817
9.86352
9.76723
9.66934
9.56992
9.46899
9.36657
9.26265
9.15729
9.05054
8.94246
8.83313
8.72261
8.61093
8.49814
8.38429
8.26944
8.15369
8.03713
7.91986
7.80199
7.6836
7.56478
7.44559
7.32613
7.20651
7.08683
6.96721
6.84776
6.72861
6.60986
6.49162
6.37399
6.25706
6.1409
6.02562
5.91128
5.79796
5.68571
5.57458
5.46459
5.35574
5.24802
5.14141
5.03592
4.93153
4.82829
4.72629
4.62559
4.52603
4.42731
4.32935
4.2328
4.13805
4.04264
3.94136
3.83479
18.2136
18.2217
18.2305
18.2396
18.2491
18.2586
18.268
18.2771
18.2859
18.2939
18.301
18.3075
18.313
18.3159
18.3189
18.3211
18.3223
18.3225
18.3217
18.32
18.3174
18.3138
18.3094
18.3042
18.2981
18.2913
18.2837
18.2752
18.2659
18.256
18.2452
18.2337
18.2215
18.2086
18.195
18.1813
18.1654
18.1495
18.133
18.1156
18.0974
18.0787
18.0613
18.0683
18.023
17.9973
17.9731
17.949
17.9238
17.8976
17.8704
17.8422
17.8131
17.783
17.752
17.7231
17.6981
17.6843
17.5915
17.5492
17.5134
17.4754
17.4374
17.4097
17.3671
17.3207
17.2745
17.2292
17.1827
17.1352
17.0896
17.0626
17.0075
16.9509
16.8956
16.8424
16.7878
16.7324
16.6762
16.637
16.5782
16.5063
16.4459
16.3845
16.3231
16.2591
16.1932
16.1259
16.0564
15.9846
15.9113
15.8369
15.7619
15.6864
15.6104
15.5343
15.4579
15.3816
15.3052
15.229
15.153
15.0772
15.0018
14.9267
14.8522
14.7783
14.705
14.6324
14.5606
14.4897
14.4197
14.3506
14.2827
14.2158
14.1501
14.0857
14.0225
13.9606
13.9002
13.8412
13.7836
13.7276
13.6732
13.6204
13.5692
13.5196
13.4718
13.4256
13.3812
13.3385
13.2975
13.2583
13.2209
13.1852
13.1513
13.1192
13.0887
13.06
13.033
13.0076
12.9839
12.9617
12.9412
12.9222
12.9047
12.8886
12.8738
12.8608
12.8487
12.8383
12.829
12.8204
12.8127
12.8056
12.7983
12.7894
12.7975
12.7861
12.7947
12.7874
12.7785
12.7722
12.7693
12.7629
12.7737
12.7547
12.7448
12.7399
12.7376
12.7814
12.7655
12.756
12.7542
12.7325
12.7937
12.7781
12.8108
12.7915
12.7771
12.7886
12.7695
12.7697
12.753
12.7503
12.7408
12.7339
12.7197
12.7134
12.7027
12.6927
12.6827
12.6727
12.6628
12.653
12.6425
12.6329
12.623
12.613
12.6028
12.5928
12.5825
12.5722
12.5619
12.5518
12.5413
12.5303
12.5191
12.5073
12.493
12.4772
12.4608
12.444
12.4243
12.4058
12.3849
12.3612
12.3346
12.3061
12.2783
12.2484
12.2171
12.184
12.1459
12.1033
12.059
12.0157
11.9601
11.9085
11.8513
11.7923
11.7295
11.6643
11.5945
11.5222
11.446
11.3671
11.2849
11.1997
11.1115
11.0203
10.9263
10.8293
10.7295
10.627
10.5216
10.4137
10.3031
10.1899
10.0742
9.95606
9.8355
9.71263
9.58755
9.46037
9.33117
9.20002
9.06705
8.93241
8.79625
8.65873
8.52
8.38019
8.23946
8.09799
7.95593
7.81353
7.67101
7.52859
7.38653
7.24503
7.10432
6.96457
6.82599
6.68884
6.5534
6.41993
6.28859
6.15953
6.0329
5.90886
5.78757
5.66916
5.55369
5.44118
5.33166
5.22514
5.12164
5.02114
4.92361
4.82901
4.73732
4.64845
4.56215
4.478
4.39583
4.31615
4.23911
4.16215
4.08073
3.9963
18.7689
18.7801
18.7911
18.8018
18.8122
18.8223
18.8318
18.841
18.8516
18.8686
18.9794
18.9144
18.9053
18.9033
18.9062
18.9084
18.9083
18.9073
18.9057
18.903
18.8994
18.895
18.89
18.8844
18.8784
18.8719
18.8642
18.8552
18.8457
18.8347
18.8226
18.8099
18.7967
18.7831
18.7696
18.7572
18.7571
18.7366
18.7171
18.7016
18.6863
18.6698
18.6593
18.6827
18.6612
18.6079
18.5767
18.5497
18.5254
18.5007
18.4752
18.4482
18.4208
18.3922
18.3614
18.332
18.3058
18.3065
18.2682
18.2224
18.1808
18.143
18.104
18.0635
18.0236
17.9848
17.9416
17.8745
17.8218
17.7788
17.712
17.6787
17.6023
17.5503
17.5008
17.4649
17.4345
17.3789
17.1955
17.1338
17.0624
17.0139
17.0016
17.1556
17.059
16.8964
16.7661
16.6782
16.5997
16.5198
16.436
16.3517
16.2675
16.1839
16.1007
16.0183
15.9367
15.8568
15.7761
15.6968
15.6183
15.5405
15.4635
15.3872
15.3116
15.2369
15.1628
15.0895
15.017
14.9453
14.8745
14.8045
14.7354
14.6672
14.6
14.5338
14.4686
14.4046
14.3416
14.2798
14.2192
14.1598
14.1017
14.0449
13.9894
13.9353
13.8826
13.8314
13.7817
13.7335
13.6869
13.6418
13.5982
13.5563
13.516
13.4772
13.4402
13.4047
13.371
13.339
13.3087
13.2802
13.2534
13.2285
13.2053
13.1839
13.1641
13.1461
13.1296
13.1148
13.1016
13.0899
13.0796
13.0711
13.0642
13.059
13.0544
13.0511
13.049
13.0462
13.0444
13.044
13.0449
13.0493
13.0502
13.0447
13.0753
13.0598
13.0691
13.0841
13.076
13.0673
13.0936
13.0554
13.1048
13.1077
13.1004
13.0956
13.095
13.0983
13.1042
13.1113
13.1285
13.1272
13.1194
13.1291
13.1101
13.1145
13.1239
13.1178
13.1232
13.115
13.1102
13.1109
13.1065
13.105
13.0984
13.0955
13.0932
13.0898
13.0863
13.0827
13.0793
13.0764
13.0732
13.0702
13.0663
13.0622
13.0575
13.0521
13.0461
13.0389
13.0297
13.0192
13.0085
12.9968
12.9841
12.97
12.9499
12.9255
12.9014
12.8738
12.8469
12.8078
12.7691
12.7301
12.6829
12.6392
12.5881
12.5308
12.4719
12.4086
12.3418
12.2669
12.1918
12.1108
12.0268
11.937
11.8422
11.7438
11.6412
11.5352
11.4248
11.3096
11.1903
11.0665
10.9388
10.8073
10.672
10.5327
10.3896
10.2427
10.092
9.93819
9.78115
9.62121
9.45838
9.29276
9.12456
8.95402
8.78156
8.60758
8.43235
8.25605
8.07885
7.90191
7.72611
7.55142
7.37776
7.20559
7.03555
6.8681
6.70359
6.5423
6.38461
6.2311
6.08236
5.93862
5.80012
5.66698
5.53883
5.41548
5.29739
5.18512
5.07898
4.97918
4.88558
4.79755
4.71445
4.63601
4.56234
4.49369
4.43013
4.37128
4.31647
4.26538
4.21798
4.17292
4.12663
4.0776
19.318
19.3215
19.3234
19.3248
19.3259
19.3266
19.3268
19.3263
19.325
19.3365
19.4379
20.7793
20.2115
19.9129
19.8117
19.7853
19.7865
19.7823
19.7713
19.7592
19.7474
19.7355
19.7229
19.7084
19.694
19.6839
19.6765
19.6702
19.659
19.6434
19.625
19.6051
19.5843
19.5631
19.5416
19.531
19.559
20.1878
19.7182
19.6473
19.6159
19.5963
19.5752
19.6099
19.5574
19.4995
19.4881
19.459
19.4509
19.6329
19.5944
19.3351
19.2769
19.2426
19.2141
19.1786
19.1386
19.0951
19.0478
19.0019
18.9623
18.9846
18.8514
18.7845
18.7214
18.6611
18.601
18.5436
18.4795
18.4244
18.3798
18.3648
18.2763
18.2047
18.1438
18.0794
18.0093
17.9352
17.8948
17.9353
18.9315
17.776
17.5717
17.4717
17.4101
17.3747
17.4373
17.8779
17.9816
16.4648
16.2729
16.1879
16.1578
16.1148
16.0613
16.0094
15.9572
15.9034
15.8597
15.7995
15.7405
15.6824
15.6244
15.565
15.5076
15.4468
15.3874
15.3282
15.2688
15.2094
15.1501
15.091
15.0322
14.9737
14.9156
14.8579
14.8006
14.7439
14.6879
14.6324
14.5775
14.5233
14.4698
14.4171
14.3651
14.3141
14.2639
14.2146
14.1663
14.1191
14.0729
14.0278
13.9839
13.9412
13.8998
13.8596
13.8208
13.7832
13.747
13.7123
13.6789
13.6472
13.617
13.5884
13.5614
13.5362
13.5126
13.4906
13.4702
13.4513
13.434
13.4183
13.404
13.3916
13.38
13.3706
13.3625
13.3557
13.3505
13.3465
13.3487
13.3463
13.3489
13.3522
13.3557
13.3598
13.3629
13.375
13.3781
13.3885
13.3979
13.4011
13.3995
13.4272
13.416
13.4357
13.446
13.4443
13.4417
13.4363
13.4508
13.4634
13.4833
13.5015
13.5207
13.515
13.5116
13.5136
13.5196
13.5082
13.5211
13.5441
13.5336
13.5425
13.5478
13.5343
13.5441
13.5568
13.56
13.5539
13.5661
13.5616
13.5679
13.5737
13.576
13.5773
13.5778
13.5777
13.5764
13.5755
13.5748
13.5734
13.5706
13.5661
13.5603
13.5536
13.545
13.5336
13.522
13.5072
13.4909
13.4716
13.4488
13.4213
13.3892
13.3538
13.316
13.2752
13.2315
13.1832
13.1289
13.0685
13.0003
12.9238
12.8484
12.7661
12.6809
12.5893
12.4881
12.3791
12.2683
12.1513
12.0291
11.9028
11.7654
11.6211
11.4747
11.3217
11.166
11.0025
10.8303
10.6499
10.4682
10.2809
10.0945
9.90203
9.70191
9.49599
9.28474
9.07167
8.85524
8.63568
8.41657
8.19528
7.97734
7.76116
7.54707
7.33218
7.1182
6.90951
6.70759
6.51077
6.31558
6.12195
5.93543
5.76331
5.60602
5.45414
5.30317
5.15755
5.02033
4.89499
4.78383
4.68502
4.59453
4.51406
4.44645
4.39093
4.34672
4.31295
4.28717
4.26661
4.25072
4.24156
4.24023
4.24586
4.25711
4.27385
4.29839
4.33233
19.195
19.1679
19.1396
19.1066
19.0674
19.024
18.9753
18.9194
18.8534
18.8086
18.9928
19.8412
24.2348
21.5512
20.3672
19.7623
19.6038
19.534
19.4646
19.3731
19.28
19.1861
19.0865
18.9972
19.0156
19.375
20.8594
20.582
19.9706
19.4889
19.2888
19.1831
19.0936
18.986
18.8737
18.7538
18.7013
18.9533
23.9573
22.1803
20.679
20.1291
19.8801
19.7634
19.6626
19.5444
19.4273
19.3116
19.2025
19.2543
23.7061
21.7598
21.1473
20.8412
20.6955
20.6153
20.5294
20.4394
20.3593
20.2871
20.2255
20.2259
20.3548
20.7316
19.2302
19.0967
19.0329
18.997
18.9561
18.9105
18.8684
18.8386
18.8616
18.939
19.0257
18.7333
18.6242
18.6344
18.6262
18.617
20.8621
19.7406
17.8411
17.6861
17.6471
17.6592
17.6788
17.8227
18.1344
18.3565
16.2668
16.0806
15.994
15.9667
15.952
15.9251
15.8921
15.8582
15.8224
15.7901
15.7478
15.7045
15.6627
15.6177
15.5683
15.5219
15.4745
15.4197
15.3703
15.3216
15.2733
15.225
15.1769
15.1291
15.0816
15.0347
14.9887
14.9526
14.9021
14.8545
14.8098
14.7664
14.7234
14.6807
14.6387
14.5973
14.5563
14.5159
14.4761
14.4371
14.3986
14.3607
14.3235
14.287
14.2513
14.2168
14.1829
14.1496
14.1174
14.0864
14.0564
14.0273
13.9992
13.9722
13.9461
13.9213
13.8978
13.8753
13.8532
13.8339
13.8154
13.797
13.7828
13.7698
13.7582
13.7476
13.7378
13.7291
13.7214
13.715
13.71
13.7067
13.7039
13.7014
13.7023
13.705
13.7114
13.7184
13.7239
13.7296
13.7374
13.7463
13.76
13.7666
13.7845
13.7907
13.8056
13.8212
13.8318
13.8383
13.8405
13.8351
13.8519
13.8607
13.8919
13.9195
13.9285
13.9266
13.9258
13.9373
13.902
13.9266
13.9466
13.9506