/*--------------------------------*- C++ -*----------------------------------*\
| =========                 |                                                 |
| \\      /  F ield         | OpenFOAM: The Open Source CFD Toolbox           |
|  \\    /   O peration     | Version:  2.4.0                                 |
|   \\  /    A nd           | Web:      www.OpenFOAM.org                      |
|    \\/     M anipulation  |                                                 |
\*---------------------------------------------------------------------------*/
FoamFile
{
    version     2.0;
    format      ascii;
    class       volScalarField;
    location    "3.8";
    object      p_rgh;
}
// * * * * * * * * * * * * * * * * * * * * * * * * * * * * * * * * * * * * * //

dimensions      [1 -1 -2 0 0 0 0];

internalField   nonuniform List<scalar> 
8000
(
115.396
115.398
115.415
115.443
115.48
115.527
115.584
115.651
115.727
115.812
115.906
116.008
116.117
116.234
116.358
116.487
116.62
116.757
116.895
117.033
117.17
117.303
117.429
117.546
117.65
117.738
117.806
117.849
117.862
117.841
117.78
117.674
117.516
117.297
116.999
116.681
116.273
115.815
115.287
114.691
114.047
113.367
112.679
111.998
111.302
110.558
109.447
104.271
87.8921
58.747
113.381
113.378
113.372
113.362
113.348
113.331
113.31
113.286
113.257
113.224
113.187
113.144
113.097
113.044
112.985
112.92
112.849
112.77
112.685
112.592
112.491
112.382
112.266
112.141
112.009
111.869
111.722
111.568
111.409
111.244
111.076
110.904
110.731
110.558
110.386
110.216
110.052
109.891
109.734
109.58
109.427
109.268
109.094
108.901
108.68
108.402
108.048
107.641
107.189
104.264
113.38
113.362
113.34
113.318
113.295
113.271
113.246
113.219
113.191
113.162
113.132
113.101
113.068
113.035
113.001
112.966
112.93
112.893
112.856
112.818
112.779
112.74
112.701
112.661
112.621
112.58
112.539
112.497
112.454
112.41
112.365
112.317
112.267
112.213
112.155
112.092
112.023
111.945
111.859
111.761
111.65
111.526
111.385
111.228
111.054
110.863
110.657
110.441
110.224
109.983
112.497
112.468
112.432
112.396
112.361
112.326
112.29
112.254
112.218
112.181
112.143
112.106
112.067
112.028
111.989
111.949
111.908
111.866
111.823
111.78
111.736
111.69
111.644
111.596
111.547
111.496
111.444
111.39
111.334
111.276
111.216
111.153
111.088
111.02
110.949
110.876
110.799
110.719
110.636
110.549
110.46
110.367
110.272
110.174
110.075
109.973
109.871
109.769
109.666
109.563
113.222
113.178
113.13
113.085
113.042
113.001
112.961
112.921
112.883
112.845
112.808
112.772
112.736
112.702
112.667
112.634
112.601
112.568
112.536
112.504
112.473
112.443
112.412
112.382
112.353
112.324
112.295
112.267
112.239
112.211
112.184
112.158
112.132
112.107
112.082
112.059
112.036
112.014
111.994
111.975
111.958
111.942
111.929
111.919
111.911
111.907
111.907
111.913
111.924
111.936
112.136
112.101
112.06
112.019
111.979
111.94
111.9
111.861
111.821
111.781
111.742
111.702
111.662
111.622
111.581
111.54
111.499
111.458
111.416
111.374
111.332
111.289
111.246
111.202
111.158
111.113
111.068
111.022
110.976
110.929
110.882
110.834
110.785
110.736
110.687
110.637
110.586
110.535
110.483
110.431
110.378
110.324
110.27
110.215
110.16
110.107
110.056
109.993
109.879
109.592
112.465
112.435
112.402
112.37
112.339
112.308
112.276
112.245
112.213
112.181
112.149
112.117
112.085
112.052
112.019
111.986
111.952
111.918
111.884
111.849
111.814
111.778
111.742
111.705
111.668
111.63
111.591
111.552
111.512
111.471
111.43
111.387
111.344
111.299
111.254
111.208
111.16
111.112
111.062
111.011
110.959
110.908
110.86
110.815
110.746
110.584
110.215
109.996
109.103
102.337
111.553
111.533
111.507
111.482
111.457
111.433
111.408
111.383
111.358
111.333
111.308
111.282
111.257
111.232
111.206
111.181
111.156
111.13
111.105
111.08
111.055
111.031
111.006
110.982
110.958
110.935
110.912
110.889
110.867
110.846
110.826
110.806
110.787
110.769
110.752
110.736
110.721
110.707
110.695
110.687
110.687
110.689
110.661
110.488
109.932
109.016
103.589
91.2694
71.706
48.1367
111.786
111.774
111.762
111.749
111.736
111.722
111.707
111.691
111.674
111.656
111.638
111.618
111.598
111.577
111.555
111.533
111.509
111.485
111.46
111.434
111.407
111.38
111.352
111.322
111.292
111.261
111.23
111.197
111.163
111.128
111.092
111.056
111.018
110.978
110.938
110.896
110.854
110.815
110.776
110.713
110.585
110.15
109.315
105.984
89.715
70.3726
48.5514
28.2788
21.5697
20.8699
110.941
110.935
110.927
110.916
110.905
110.893
110.88
110.866
110.851
110.835
110.818
110.8
110.781
110.761
110.74
110.719
110.696
110.673
110.649
110.624
110.598
110.572
110.544
110.516
110.487
110.457
110.427
110.395
110.363
110.331
110.298
110.264
110.229
110.193
110.158
110.13
110.125
110.115
109.837
108.6
106.097
90.9559
70.156
44.0968
22.6026
21.1486
20.8334
20.3661
20.1638
20.116
111.795
111.784
111.773
111.763
111.753
111.743
111.732
111.721
111.71
111.698
111.686
111.674
111.661
111.648
111.636
111.622
111.609
111.596
111.582
111.568
111.555
111.541
111.527
111.514
111.501
111.487
111.474
111.462
111.449
111.437
111.425
111.412
111.402
111.41
111.452
111.44
110.974
109.515
102.186
75.5325
44.5426
20.0043
20.8832
20.9229
20.2499
19.976
19.9122
19.8807
19.866
19.8608
110.875
110.875
110.872
110.866
110.858
110.849
110.838
110.825
110.81
110.794
110.776
110.756
110.735
110.712
110.687
110.66
110.631
110.601
110.569
110.535
110.499
110.462
110.423
110.382
110.339
110.294
110.248
110.2
110.149
110.096
110.043
110.01
110.009
109.924
109.325
107.843
96.8491
57.7883
24.1829
20.9774
21.0047
19.9461
19.8129
19.8134
19.8113
19.8099
19.8119
19.8141
19.8138
19.8121
112.083
112.078
112.073
112.067
112.061
112.054
112.045
112.036
112.025
112.014
112.001
111.987
111.973
111.957
111.94
111.922
111.903
111.883
111.862
111.841
111.818
111.795
111.77
111.746
111.72
111.694
111.667
111.638
111.609
111.588
111.591
111.594
111.4
110.597
105.997
58.2803
21.4112
19.969
19.9676
19.8412
19.7955
19.7825
19.7757
19.7733
19.7681
19.7587
19.749
19.741
19.7413
19.7091
111.755
111.763
111.769
111.771
111.77
111.766
111.759
111.75
111.738
111.722
111.704
111.683
111.659
111.633
111.603
111.571
111.535
111.497
111.456
111.412
111.365
111.315
111.262
111.206
111.148
111.086
111.02
110.955
110.9
110.856
110.738
110.295
109.5
88.6673
28.3587
19.8008
19.7773
19.7659
19.7688
19.7695
19.7709
19.7709
19.7648
19.7568
19.7396
19.7193
19.6838
19.796
19.8338
20.0418
113.03
113.046
113.062
113.073
113.081
113.084
113.084
113.08
113.073
113.062
113.047
113.029
113.007
112.982
112.952
112.919
112.881
112.84
112.795
112.745
112.691
112.632
112.569
112.5
112.426
112.347
112.263
112.182
112.104
111.977
111.641
111.069
97.8102
34.7711
20.5074
19.8323
19.8565
19.8548
19.8559
19.8538
19.8512
19.8506
19.8518
19.8381
19.805
19.7828
19.7818
19.792
19.8252
19.9275
114.295
114.319
114.343
114.361
114.374
114.382
114.385
114.384
114.379
114.369
114.355
114.336
114.312
114.285
114.252
114.214
114.172
114.125
114.072
114.014
113.951
113.882
113.807
113.725
113.637
113.542
113.44
113.33
113.214
113.101
112.986
112.789
112.305
111.606
62.8336
20.8153
19.7534
19.2715
19.2846
19.2648
19.2599
19.2557
19.2442
19.2341
19.1698
19.077
19.1462
19.1391
19.0478
19.2156
116.431
116.43
116.429
116.427
116.426
116.425
116.425
116.425
116.426
116.428
116.429
116.432
116.435
116.438
116.443
116.448
116.454
116.462
116.47
116.479
116.49
116.502
116.516
116.531
116.548
116.567
116.589
116.612
116.638
116.665
116.699
116.748
116.815
116.818
116.327
114.765
63.5337
21.1375
20.4035
18.5708
18.5773
18.5446
18.5253
18.5236
18.5172
18.5061
18.5024
18.4876
18.4641
18.424
119.835
119.819
119.806
119.796
119.787
119.779
119.773
119.769
119.768
119.769
119.775
119.783
119.796
119.813
119.834
119.86
119.892
119.928
119.97
120.017
120.071
120.131
120.197
120.27
120.351
120.438
120.534
120.638
120.75
120.87
121.001
121.143
121.297
121.445
121.553
121.654
121.532
117.843
100.053
41.7393
20.5011
20.3495
18.9056
18.2307
18.0151
17.9312
17.9167
17.9227
17.9286
17.9286
119.329
119.366
119.394
119.411
119.42
119.425
119.425
119.423
119.419
119.414
119.407
119.401
119.395
119.389
119.384
119.38
119.377
119.375
119.376
119.377
119.38
119.385
119.391
119.399
119.408
119.418
119.429
119.441
119.454
119.466
119.478
119.49
119.5
119.51
119.519
119.515
119.468
119.394
119.328
119.278
113.354
110.256
81.1984
28.2461
18.9072
19.3081
19.4702
18.8396
18.3843
17.9107
126.03
125.579
125.124
124.735
124.399
124.101
123.834
123.595
123.383
123.194
123.028
122.882
122.756
122.648
122.558
122.484
122.427
122.385
122.359
122.347
122.35
122.367
122.399
122.446
122.507
122.583
122.674
122.781
122.904
123.045
123.204
123.384
123.584
123.808
124.059
124.339
124.653
125.007
125.406
125.86
126.357
126.941
127.524
126.595
122.337
119.782
102.479
102.401
47.3943
19.2548
45.4709
37.2114
31.7619
28.6577
26.9124
25.8079
25.0032
24.396
23.9577
23.6168
23.3232
23.0624
22.8371
22.6554
22.5296
22.4524
22.3692
22.2317
22.053
21.882
21.7561
21.6754
21.6195
21.5742
21.6986
22.0994
22.3377
22.1372
21.6728
21.3562
21.2489
21.1963
21.1798
21.3878
22.4864
23.808
23.9635
23.5908
22.7367
21.1797
20.2889
19.9945
19.9069
19.8622
19.81
19.7551
19.7053
19.66
19.6173
19.5765
97.6175
83.4813
68.0472
54.9595
43.168
32.515
25.6614
23.0574
22.0931
21.6582
21.4927
21.4217
21.3948
21.3524
21.2642
21.1479
21.0311
20.9237
20.8266
20.745
20.6852
20.6615
20.6307
20.7174
20.9919
21.4543
21.059
20.7275
20.6272
20.6105
20.8441
21.4853
22.0525
22.1978
21.9313
21.2732
20.7501
20.4423
20.1644
19.9132
19.7845
19.7165
19.6622
19.6092
19.5608
19.5196
19.4861
19.4605
19.4411
19.4273
109.645
107.992
105.539
100.473
88.6769
64.7429
37.6394
24.4282
21.2487
20.5501
20.4145
20.4128
20.4136
20.403
20.3908
20.3769
20.3636
20.3651
20.3311
20.2941
20.2646
20.2401
20.2103
20.1959
20.222
20.3275
20.6541
20.4098
20.3111
20.4433
20.451
20.2273
20.204
20.1481
20.1144
21.687
20.5193
20.1608
19.9561
19.8587
19.8007
19.7505
19.7043
19.6676
19.6393
19.6168
19.6015
19.5932
19.5935
19.6014
109.466
109.363
109.22
108.284
105.678
96.8385
63.0307
28.1377
21.289
20.1958
20.0443
20.0375
20.0287
20.0076
19.999
19.9967
20.0339
20.2821
20.0792
20.0121
19.9643
19.992
19.9465
19.9693
20.2484
20.0107
19.9924
19.9675
19.9743
20.01
20.0817
20.2039
20.3641
21.3346
21.3086
20.7624
20.375
20.1881
20.1275
20.1024
20.0842
20.0702
20.0756
20.2061
20.1847
20.136
20.1206
20.1317
20.152
20.1732
111.942
111.912
111.816
110.841
106.478
93.9743
61.0706
28.1937
21.3028
20.4146
20.2964
20.3071
20.2689
20.2733
20.2861
20.359
20.5251
20.6635
20.5748
20.4481
20.3348
20.4888
20.485
20.5177
20.5674
20.6274
20.7213
20.8622
21.0219
21.1335
21.2332
21.2957
21.2885
21.1877
20.9339
20.6849
20.5415
20.5081
20.5239
20.5338
20.54
20.5709
20.7543
21.2389
23.7783
21.4386
20.9339
20.7618
20.7393
20.7519
109.227
106.808
100.077
86.0472
58.0165
30.9862
22.5675
20.6832
20.2375
20.1646
20.1871
20.1746
20.1777
20.1833
20.1959
20.2477
20.7781
20.7113
20.5058
20.4697
20.4723
20.4417
20.4848
20.6107
20.9226
21.1045
21.1398
21.1046
21.0229
20.8007
20.5911
20.513
20.4414
20.3245
20.2138
20.2575
20.2541
20.3144
21.2838
21.0423
20.6313
20.8737
20.7909
21.1139
22.0853
22.6202
22.4124
21.4763
20.8562
20.7032
91.1847
72.2206
46.6726
28.3444
22.4721
20.9258
20.5283
20.4485
20.4357
20.4501
20.4481
20.4401
20.4334
20.4219
20.4722
20.6131
20.3487
20.3537
20.1885
20.4189
20.4304
20.3751
20.358
20.3531
20.3516
20.3624
20.3752
20.3893
20.3992
20.409
20.4232
20.4566
20.488
20.4969
20.5053
20.5601
20.7852
21.1044
21.2082
21.1585
20.8663
20.5547
20.6094
20.5683
20.9842
21.9328
22.2739
22.3823
22.4442
22.3858
29.6621
22.6267
21.2773
20.669
20.4255
20.3612
20.341
20.3333
20.3296
20.3269
20.3269
20.3246
20.3248
20.329
20.338
20.3533
20.3566
20.3479
20.351
20.3544
20.3548
20.3555
20.3498
20.3503
20.3512
20.354
20.3588
20.3641
20.3645
20.365
20.414
20.3582
20.33
20.3029
20.2712
20.2433
20.2087
20.1622
20.1108
20.0593
19.9674
19.8853
19.8186
19.7432
19.6597
19.615
19.6586
20.6602
20.1394
19.1043
20.627
20.4079
20.298
20.2471
20.2232
20.2147
20.2112
20.2103
20.2108
20.21
20.2059
20.2003
20.1973
20.1951
20.1932
20.1957
20.2193
20.2883
20.2129
20.1843
20.1759
20.1739
20.1714
20.1681
20.1799
20.2502
20.7393
20.4607
20.3771
20.3343
20.3204
20.3202
20.3222
20.3248
20.3279
20.3312
20.334
20.3349
20.3426
20.408
20.6145
20.9933
20.7929
20.5974
20.5008
20.4571
20.4116
20.357
20.2908
20.2238
20.104
20.0966
20.0906
20.0863
20.084
20.0871
20.0891
20.0983
20.1351
20.2908
20.1863
20.1396
20.1183
20.1128
20.1067
20.1109
20.1936
20.911
20.6571
20.4448
20.328
20.2915
20.2825
20.2687
20.2575
20.3
20.4942
20.7146
20.6955
20.3212
20.0736
19.9556
19.9243
19.9078
19.8801
19.8499
19.8373
19.8578
19.8653
19.8372
19.8416
20.0275
20.1249
20.0821
20.0172
19.936
19.7489
19.4905
19.3515
19.2921
19.8591
19.8585
19.8563
19.8516
19.8448
19.8398
19.8521
19.8954
20.4711
20.1864
20.0717
19.9945
19.9935
19.9398
19.938
19.9764
20.0873
20.0892
20.0386
19.892
19.7298
19.7173
19.6583
19.6625
19.7441
19.9204
19.9266
19.8682
19.7697
19.5473
19.3052
19.1793
19.1275
19.0809
19.0644
19.0855
19.2466
19.4431
19.4302
19.3248
19.2238
19.1887
19.0994
18.8719
18.5308
18.3294
18.2551
18.2236
18.1913
18.162
19.81
19.8082
19.8066
19.806
19.8091
19.8061
19.8648
19.9024
19.8092
19.6971
19.6819
19.6435
19.6134
19.6652
19.6645
19.6701
19.671
19.5888
19.4259
19.2773
19.2259
19.1713
19.2421
19.3999
19.3762
19.2966
19.194
19.01
18.7027
18.4857
18.3785
18.2898
18.1988
18.2187
18.4429
18.4788
18.3666
18.2281
18.0777
17.8204
17.4058
17.098
16.9344
16.8138
16.6929
16.5858
16.5297
16.564
16.1477
15.9732
19.6814
19.6642
19.6342
19.6036
19.5953
19.5654
19.544
19.4331
19.5457
19.4701
19.4904
19.5187
19.4601
19.3813
19.2866
19.2405
19.1635
19.0808
19.6018
19.2586
19.0193
18.9167
18.7273
18.7879
18.7148
18.5774
18.3735
18.087
17.8537
17.6936
17.5229
17.3474
17.2408
17.2441
17.2749
17.139
16.9049
16.5138
16.1406
15.8591
15.6194
15.4052
15.2057
14.9906
14.894
14.8946
14.7035
14.3419
13.9184
13.7577
19.7904
19.786
19.725
19.7058
19.6755
19.6018
19.5926
19.5485
19.432
19.4131
19.3491
19.2601
19.1437
19.0708
18.9963
18.9014
18.8071
18.7402
18.8615
18.7194
18.513
18.4231
18.1652
18.0764
18.1914
17.7962
17.5557
17.3921
17.2027
16.9655
16.7895
16.5708
16.3593
16.1093
15.9036
15.7238
15.5008
15.2218
14.9575
14.6768
14.4087
14.1821
13.859
13.6768
13.5589
13.2336
12.8787
12.6099
12.3624
12.081
19.9222
19.7088
20.0068
19.3734
19.4036
19.2108
19.3739
19.2894
18.9487
19.0065
18.6087
18.5721
18.5509
18.5042
18.4355
18.3562
18.2985
18.2998
17.9113
18.1479
17.9734
17.9309
18.0511
17.5664
17.3555
17.2689
17.1207
16.975
16.8237
16.804
16.3587
16.1944
15.9703
15.7994
15.63
15.4063
15.1049
14.852
14.6185
14.3266
14.1029
14.2274
13.7689
13.4422
13.2435
12.9609
12.7333
12.7829
12.5137
12.1163
19.1646
19.1042
19.3381
18.7621
18.7506
18.5055
18.6724
18.5767
18.5127
18.8687
18.5385
18.509
18.4869
18.476
18.4083
18.2432
18.2108
18.4464
17.8138
17.8648
17.7203
17.6893
18.062
17.1137
17.0852
17.0113
16.8758
16.7745
16.6591
16.566
16.5163
16.3783
16.1081
15.9561
15.8573
15.7191
15.5829
15.424
15.2076
15.0157
15.4171
14.5628
14.3834
14.2483
13.6775
13.7206
13.4761
13.1601
12.9174
12.6907
18.3528
18.6379
18.5216
18.5141
18.512
18.3181
18.5471
18.1412
18.1324
17.9234
17.992
17.724
17.7501
17.7522
17.5829
17.5601
17.4271
17.619
17.4377
17.5354
17.4718
17.3667
17.7436
17.2532
17.3959
17.2731
17.3539
17.2773
17.346
16.8806
17.1576
16.9489
16.9059
16.8691
16.7646
16.6387
16.529
16.3632
16.1421
15.9542
15.8224
15.2913
15.2338
15.1757
14.8772
14.9532
14.4683
14.2916
14.0925
13.8193
17.9222
17.9207
17.9298
17.9204
17.8981
17.9669
17.8874
17.8465
17.9493
17.91
17.8998
17.9152
17.9046
17.8928
17.8284
17.8653
17.8467
17.9029
17.9089
17.8051
17.8216
17.822
17.8133
17.9615
17.8313
17.8508
17.6701
17.7466
17.8031
17.7507
17.644
17.9612
17.4077
17.5845
17.4814
17.3675
17.5059
17.4697
17.4684
17.3126
17.5268
17.3767
17.4597
17.5601
17.5375
17.5025
17.3244
17.037
17.2391
16.7124
17.7269
17.7111
17.7175
17.7143
17.7346
17.8212
17.7937
17.7639
17.7904
17.7748
17.7899
17.8234
17.8165
17.7841
17.7711
17.7765
17.7835
17.7919
17.817
17.7854
17.9151
17.8723
17.9089
17.9507
18.0013
18.0208
18.0572
18.1148
18.1801
18.1879
18.1838
18.3526
18.2288
18.3646
18.3274
18.2561
18.452
18.4841
18.565
18.7482
18.4573
18.2793
18.4686
18.5278
18.6476
19.1188
18.9767
18.562
19.0844
18.3811
18.176
18.0874
18.0905
18.0924
18.0965
18.1256
18.1235
18.1075
18.1082
18.1089
18.1112
18.1211
18.1247
18.13
18.1544
18.1714
18.1334
18.1229
18.1284
18.1408
18.151
18.1735
18.1827
18.1998
18.22
18.2384
18.2656
18.2847
18.306
18.3299
18.3527
18.3776
18.4024
18.4271
18.4476
18.4665
18.484
18.4996
18.5121
18.5263
18.5179
18.4312
18.3591
18.5859
18.1675
18.2679
17.7208
17.6489
18.0444
17.8
19.5474
19.5276
19.5078
19.488
19.4683
19.4488
19.4292
19.4095
19.3897
19.3696
19.3493
19.3288
19.3079
19.2868
19.2653
19.2435
19.2214
19.1989
19.1762
19.1531
19.1297
19.1059
19.0818
19.0574
19.0326
19.0074
18.982
18.9561
18.9298
18.9032
18.8761
18.8486
18.8207
18.7924
18.7648
18.735
18.7051
18.6748
18.644
18.6126
18.5807
18.5483
18.5169
18.4822
18.4476
18.4125
18.3769
18.3405
18.3034
18.2655
18.2269
18.1876
18.1477
18.1072
18.0655
18.0215
17.978
17.9339
17.8889
17.8429
17.796
17.7483
17.6997
17.6503
17.6
17.5487
17.4965
17.4435
17.3897
17.3349
17.2794
17.2231
17.1659
17.108
17.0492
16.9897
16.9295
16.8685
16.807
16.7448
16.6819
16.6186
16.5547
16.4903
16.4255
16.3604
16.2949
16.2292
16.1633
16.0973
16.0312
15.9651
15.8991
15.8332
15.7675
15.7021
15.637
15.5723
15.5081
15.4445
15.3815
15.3193
15.2578
15.1971
15.1374
15.0787
15.021
14.9644
14.909
14.8548
14.8018
14.7502
14.6999
14.6509
14.6035
14.5574
14.5128
14.4698
14.4282
14.3882
14.3496
14.3127
14.2772
14.2432
14.2108
14.1798
14.1503
14.1223
14.0957
14.0704
14.0465
14.0238
14.0025
13.9824
13.9635
13.9457
13.9289
13.9131
13.8982
13.8852
13.872
13.8593
13.8467
13.8431
13.8266
13.8195
13.8072
13.797
13.7866
13.7784
13.7774
13.77
13.7751
13.7614
13.7587
13.7512
13.7347
13.7408
13.7022
13.7187
13.6507
13.6447
13.6359
13.6297
13.6089
13.5996
13.5909
13.5767
13.5655
13.5542
13.5425
13.5292
13.5161
13.5028
13.4886
13.4739
13.4599
13.4435
13.4269
13.4092
13.3921
13.375
13.356
13.3351
13.3147
13.2943
13.2734
13.2519
13.2301
13.2081
13.1854
13.1628
13.1401
13.1173
13.0943
13.0714
13.0483
13.0252
13.002
12.9788
12.9554
12.9315
12.9077
12.8836
12.8586
12.834
12.8095
12.7829
12.7546
12.7256
12.6961
12.6654
12.6331
12.5999
12.5662
12.5291
12.4896
12.4491
12.4068
12.3623
12.3161
12.2681
12.2178
12.1652
12.1109
12.0545
11.9961
11.9357
11.8734
11.8093
11.7434
11.6757
11.6064
11.5353
11.4626
11.3884
11.3126
11.2354
11.1568
11.0768
10.9953
10.9124
10.828
10.7426
10.656
10.5683
10.4796
10.3899
10.2991
10.2074
10.1148
10.0212
9.92682
9.8316
9.73556
9.6387
9.54102
9.44253
9.34326
9.24322
9.14246
9.041
8.93887
8.83608
8.73268
8.6287
8.52419
8.4192
8.31377
8.20798
8.10187
7.9955
7.88893
7.78223
7.67546
7.56869
7.46197
7.35538
7.24894
7.1427
7.03669
6.93093
6.82544
6.72024
6.61533
6.51074
6.40646
6.3025
6.19883
6.09546
5.99243
5.88978
5.78743
5.68521
5.58315
5.48181
5.38143
5.28002
5.17383
5.06419
19.4204
19.4165
19.4131
19.4103
19.4078
19.4054
19.4029
19.4002
19.3972
19.3937
19.3895
19.3847
19.3794
19.3733
19.3665
19.3591
19.3508
19.3419
19.3322
19.3219
19.3109
19.2991
19.2867
19.2736
19.2599
19.2456
19.2306
19.215
19.1988
19.1819
19.1645
19.1464
19.1278
19.1085
19.0889
19.0682
19.0463
19.0244
19.0019
18.9788
18.9549
18.9305
18.9064
18.8832
18.8521
18.8241
18.7958
18.7668
18.737
18.7062
18.6746
18.6421
18.6087
18.5744
18.5395
18.5057
18.4833
18.4296
18.3878
18.3482
18.3074
18.2659
18.232
18.1833
18.1372
18.091
18.0443
17.9964
17.9476
17.8986
17.8564
17.7987
17.7448
17.691
17.6364
17.5808
17.524
17.4663
17.4076
17.3481
17.2877
17.2263
17.164
17.1005
17.0358
16.9704
16.9041
16.8369
16.7691
16.7008
16.632
16.5628
16.4933
16.4236
16.3538
16.2838
16.2138
16.1438
16.074
16.0043
15.935
15.866
15.7974
15.7294
15.662
15.5953
15.5294
15.4643
15.4002
15.337
15.2749
15.2139
15.1542
15.0956
15.0384
14.9826
14.9281
14.8752
14.8237
14.7737
14.7253
14.6785
14.6333
14.5898
14.5479
14.5076
14.469
14.4321
14.3969
14.3633
14.3313
14.301
14.2722
14.2451
14.2195
14.1954
14.1727
14.1515
14.1317
14.1133
14.0961
14.0802
14.0653
14.0515
14.0386
14.0286
14.0163
14.0069
13.9972
13.9874
13.9783
13.9708
13.9627
13.9532
13.9471
13.9498
13.9188
13.9219
13.9081
13.957
13.9359
13.9558
13.9502
13.9368
13.9355
13.9089
13.9299
13.9133
13.9046
13.8757
13.8772
13.8616
13.8646
13.8349
13.8296
13.8184
13.8116
13.797
13.7866
13.7755
13.7632
13.7514
13.7387
13.7267
13.7133
13.6979
13.6829
13.6682
13.6529
13.6369
13.6211
13.606
13.5872
13.5708
13.5541
13.5373
13.5205
13.5036
13.4866
13.4695
13.4524
13.4351
13.4174
13.3991
13.3808
13.3621
13.3424
13.3224
13.3031
13.2818
13.2575
13.2327
13.2075
13.1802
13.151
13.1206
13.0883
13.0533
13.0157
12.9764
12.935
12.8912
12.8449
12.7959
12.7482
12.6945
12.6365
12.5781
12.5169
12.4534
12.3875
12.3191
12.2488
12.1759
12.1009
12.0238
11.9445
11.8632
11.7797
11.6943
11.607
11.5177
11.4266
11.3337
11.2391
11.1428
11.0449
10.9455
10.8446
10.7421
10.6382
10.5329
10.4261
10.318
10.2087
10.0982
9.98649
9.87369
9.75984
9.645
9.52925
9.41269
9.29542
9.17755
9.05916
8.94033
8.82115
8.70169
8.58207
8.46239
8.34277
8.22332
8.10416
7.98542
7.86718
7.74955
7.63261
7.51646
7.40118
7.28684
7.17352
7.06127
6.95014
6.84015
6.7313
6.62357
6.51697
6.41147
6.30709
6.20385
6.10185
6.00114
5.90159
5.80287
5.70491
5.60836
5.51361
5.41819
5.31692
5.21035
19.6116
19.6197
19.6284
19.6376
19.647
19.6565
19.666
19.6751
19.6839
19.6919
19.6989
19.7057
19.7113
19.714
19.7169
19.719
19.7202
19.7204
19.7196
19.718
19.7153
19.7118
19.7073
19.7021
19.6961
19.6892
19.6816
19.6731
19.6639
19.6539
19.6431
19.6317
19.6194
19.6065
19.593
19.5794
19.5634
19.5475
19.5309
19.5136
19.4953
19.4766
19.4607
19.4707
19.4228
19.3955
19.371
19.347
19.3218
19.2955
19.2683
19.2401
19.211
19.1809
19.15
19.1219
19.1036
19.092
18.9928
18.9475
18.9113
18.8734
18.8375
18.8113
18.7686
18.7203
18.6727
18.6271
18.5806
18.5333
18.4901
18.466
18.4103
18.3514
18.294
18.2403
18.1858
18.1305
18.0775
18.0413
17.9825
17.9073
17.8444
17.7824
17.7211
17.657
17.5911
17.5238
17.4543
17.3825
17.3092
17.2349
17.1598
17.0843
17.0084
16.9322
16.8559
16.7795
16.7031
16.6269
16.5509
16.4751
16.3997
16.3247
16.2502
16.1762
16.1029
16.0303
15.9585
15.8876
15.8176
15.7486
15.6806
15.6137
15.548
15.4836
15.4204
15.3586
15.2981
15.2391
15.1816
15.1256
15.0711
15.0183
14.9671
14.9175
14.8697
14.8235
14.7791
14.7364
14.6954
14.6562
14.6188
14.5831
14.5492
14.5171
14.4867
14.4579
14.4309
14.4055
14.3818
14.3596
14.3391
14.3201
14.3026
14.2866
14.2718
14.2589
14.2468
14.2363
14.227
14.2184
14.2107
14.2037
14.1968
14.1885
14.2005
14.1875
14.1937
14.1872
14.1814
14.178
14.1751
14.1673
14.1752
14.1592
14.1577
14.1527
14.1502
14.1839
14.1704
14.1755
14.1749
14.1489
14.1955
14.182
14.2286
14.2069
14.1812
14.1877
14.1714
14.1743
14.1554
14.15
14.1407
14.136
14.1195
14.1119
14.102
14.0917
14.0815
14.0716
14.0614
14.0519
14.0412
14.031
14.021
14.011
14.0008
13.9907
13.9805
13.9702
13.96
13.9499
13.9394
13.9283
13.9171
13.9053
13.8911
13.8764
13.861
13.8442
13.8239
13.804
13.7829
13.7592
13.733
13.7057
13.6782
13.6482
13.6155
13.582
13.5439
13.5021
13.4593
13.4169
13.3583
13.3065
13.2494
13.1907
13.1278
13.0623
12.9927
12.9204
12.8439
12.765
12.6828
12.5976
12.5094
12.4183
12.3242
12.2272
12.1275
12.0249
11.9196
11.8116
11.701
11.5878
11.4721
11.354
11.2334
11.1106
10.9855
10.8583
10.7291
10.5979
10.465
10.3303
10.1942
10.0567
9.91793
9.77811
9.63739
9.49591
9.35386
9.21145
9.06893
8.92652
8.78445
8.64296
8.50224
8.3625
8.22392
8.08676
7.95132
7.81785
7.68652
7.55746
7.43082
7.30678
7.18549
7.06708
6.95162
6.83911
6.72958
6.62307
6.51957
6.41906
6.32153
6.22694
6.13525
6.04638
5.96008
5.87592
5.79376
5.71408
5.63703
5.56008
5.47866
5.39422
20.1892
20.2004
20.2114
20.2221
20.2325
20.2426
20.2521
20.2613
20.2724
20.2925
20.4135
20.3417
20.3271
20.3238
20.3265
20.3287
20.3286
20.3276
20.326
20.3233
20.3197
20.3153
20.3103
20.3047
20.2987
20.2921
20.2845
20.2755
20.266
20.255
20.2429
20.2302
20.217
20.2034
20.19
20.1782
20.1804
20.159
20.138
20.1219
20.1067
20.0906
20.0884
20.1184
20.0969
20.0368
19.9985
19.9701
19.9458
19.9211
19.8956
19.8686
19.8411
19.8125
19.7817
19.7529
19.7343
19.7388
19.7006
19.649
19.602
19.5636
19.5246
19.4844
19.4471
19.4135
19.3703
19.301
19.2435
19.1996
19.136
19.1047
19.0247
18.9722
18.9228
18.9017
18.8914
18.8357
18.6387
18.5604
18.4889
18.4425
18.4867
18.664
18.5675
18.3544
18.191
18.0987
18.02
17.9401
17.8563
17.772
17.6878
17.6041
17.521
17.4386
17.357
17.2773
17.1965
17.1171
17.0386
16.9608
16.8838
16.8075
16.7319
16.6572
16.5831
16.5098
16.4373
16.3656
16.2947
16.2247
16.1556
16.0875
16.0203
15.9541
15.8889
15.8249
15.7619
15.7001
15.6395
15.5801
15.522
15.4652
15.4097
15.3556
15.3029
15.2517
15.202
15.1538
15.1072
15.0621
15.0185
14.9766
14.9363
14.8975
14.8605
14.825
14.7913
14.7593
14.729
14.7005
14.6737
14.6488
14.6256
14.6042
14.5844
14.5665
14.55
14.5351
14.5219
14.5102
14.5
14.4916
14.4846
14.4794
14.475
14.4718
14.4697
14.4674
14.4667
14.4663
14.467
14.4705
14.4715
14.4673
14.5071
14.4873
14.4922
14.5055
14.4988
14.5041
14.537
14.4874
14.5283
14.5312
14.5351
14.5424
14.5418
14.5451
14.5458
14.5393
14.5533
14.552
14.5579
14.5708
14.5478
14.5395
14.5456
14.5405
14.5506
14.5412
14.5332
14.5322
14.528
14.5281
14.5204
14.5164
14.5138
14.5104
14.5072
14.5033
14.4998
14.4968
14.4937
14.4907
14.4867
14.4826
14.4779
14.4726
14.4668
14.4596
14.4509
14.4417
14.431
14.4193
14.4054
14.3907
14.3706
14.3468
14.3231
14.2954
14.2675
14.2297
14.1928
14.154
14.1046
14.0597
14.0087
13.9521
13.8932
13.8296
13.7623
13.6885
13.6137
13.5312
13.4471
13.3573
13.2626
13.1644
13.0618
12.9555
12.8451
12.73
12.6108
12.4869
12.3591
12.2276
12.0923
11.953
11.81
11.6632
11.5123
11.3585
11.2014
11.0415
10.8787
10.7131
10.5448
10.3743
10.2018
10.0279
9.85264
9.67634
9.49914
9.3222
9.1464
8.97171
8.79805
8.62588
8.45584
8.2884
8.12388
7.9626
7.8049
7.65139
7.50265
7.35891
7.22041
7.08727
6.95912
6.83577
6.71768
6.60541
6.49927
6.39947
6.30587
6.21784
6.13474
6.05631
5.98263
5.91398
5.85042
5.79157
5.73676
5.68567
5.63827
5.59321
5.54693
5.49789
20.7607
20.7642
20.7661
20.7675
20.7685
20.7692
20.7694
20.769
20.7678
20.7803
20.8972
22.3793
21.7559
21.3823
21.2567
21.2281
21.2292
21.2249
21.214
21.2019
21.1901
21.1781
21.1656
21.151
21.1367
21.1266
21.1192
21.1129
21.1017
21.0861
21.0677
21.0478
21.0269
21.0058
20.9844
20.9764
21.0264
21.7291
21.2089
21.0984
21.059
21.0392
21.0186
21.0647
21.0093
20.9454
20.9313
20.9024
20.9002
21.1385
21.0965
20.7972
20.7215
20.6853
20.6568
20.6213
20.5818
20.539
20.4924
20.4496
20.4304
20.4618
20.3194
20.2333
20.166
20.1054
20.0449
19.9869
19.923
19.8702
19.8462
19.836
19.7452
19.6561
19.5892
19.5249
19.4559
19.3838
19.3538
19.4869
20.6258
19.3273
19.0396
18.9284
18.8668
18.832
18.961
19.654
19.7718
18.0281
17.7253
17.6307
17.6004
17.5574
17.5039
17.4521
17.3998
17.3463
17.3044
17.2437
17.1835
17.1251
17.067
17.0078
16.9508
16.8896
16.8301
16.7708
16.7114
16.652
16.5928
16.5337
16.4749
16.4164
16.3582
16.3005
16.2433
16.1866
16.1305
16.075
16.0202
15.9659
15.9125
15.8597
15.8078
15.7567
15.7065
15.6573
15.609
15.5617
15.5155
15.4705
15.4266
15.3839
15.3425
15.3023
15.2634
15.2259
15.1897
15.1549
15.1216
15.0898
15.0596
15.0311
15.0041
14.9789
14.9553
14.9333
14.913
14.8941
14.8767
14.861
14.8467
14.8344
14.8227
14.8132
14.8052
14.7984
14.7934
14.7897
14.7929
14.7898
14.7918
14.7951
14.7986
14.8027
14.8061
14.8208
14.8228
14.8318
14.8412
14.8447
14.8477
14.8815
14.8641
14.8805
14.8905
14.8902
14.8906
14.9023
14.9202
14.9329
14.9427
14.9496
14.9667
14.9631
14.9701
14.9922
14.9982
14.9803
14.9735
14.9927
14.9854
15.0025
15.0084
14.9872
14.9903
15.0001
15.0033
15.0013
15.0175
15.0116
15.0125
15.0166
15.0188
15.0201
15.021
15.021
15.0194
15.0184
15.0176
15.0163
15.0135
15.0091
15.0035
14.997
14.9885
14.9776
14.9666
14.9518
14.9341
14.9146
14.8918
14.8644
14.8343
14.8001
14.7622
14.7215
14.6765
14.6264
14.5719
14.5115
14.4435
14.3694
14.2959
14.2132
14.1245
14.032
13.9309
13.8228
13.7133
13.5962
13.4724
13.3456
13.2083
13.0649
12.9194
12.765
12.6087
12.4452
12.2731
12.0937
11.9133
11.7248
11.5373
11.3447
11.1447
10.9391
10.7277
10.5144
10.2983
10.0802
9.86161
9.64001
9.42029
9.20384
8.98974
8.77485
8.56086
8.35217
8.15025
7.95343
7.75824
7.56461
7.37809
7.20596
7.04868
6.8968
6.74583
6.60021
6.46299
6.33765
6.22648
6.12768
6.03719
5.95672
5.8891
5.83359
5.78938
5.7556
5.72983
5.70927
5.69338
5.68421
5.68289
5.68852
5.69977
5.71651
5.74105
5.77499
20.66
20.633
20.6047
20.5718
20.5326
20.4891
20.4404
20.3844
20.3186
20.2757
20.4991
21.7885
26.5574
23.6714
22.0234
21.2455
21.0694
20.9991
20.9297
20.8383
20.7452
20.6512
20.5517
20.4634
20.5028
21.1206
22.7374
22.4621
21.6616
20.9911
20.7553
20.6482
20.5586
20.451
20.3387
20.2193
20.1725
20.5555
26.2109
24.2649
22.3891
21.6322
21.3476
21.2294
21.1285
21.0101
20.8929
20.7773
20.6687
20.7525
25.7458
23.5885
22.7163
22.317
22.1609
22.0803
21.9945
21.9044
21.8244
21.7525
21.6925
21.7141
22.0353
22.4658
20.7862
20.5706
20.4983
20.4623
20.4214
20.3759
20.3348
20.3077
20.3653
20.5809
20.6763
20.3544
20.1319
20.1055
20.098
20.1193
23.1035
21.8106
19.5312
19.1825
19.1264
19.1385
19.161
19.4663
20.3074
20.5548
18.1718
17.6303
17.4639
17.4318
17.417
17.3901
17.3571
17.3233
17.2894
17.2582
17.216
17.171
17.1279
17.0828
17.0344
16.9902
16.9427
16.8869
16.8359
16.7866
16.7383
16.6901
16.642
16.5941
16.5467
16.4997
16.4543
16.4209
16.3693
16.3202
16.2749
16.2315
16.1884
16.1458
16.1037
16.0623
16.0214
15.9809
15.9411
15.9021
15.8636
15.8257
15.7885
15.752
15.7164
15.682
15.6481
15.6147
15.5825
15.5514
15.5214
15.4923
15.4642
15.4372
15.4112
15.3863
15.3629
15.3403
15.3189
15.3009
15.2826
15.2629
15.248
15.2349
15.2233
15.2126
15.2028
15.1941
15.1865
15.1801
15.1752
15.1719
15.1693
15.1683
15.1693
15.1719
15.177
15.1838
15.1893
15.1957
15.2038
15.2125
15.2254
15.2324
15.2533
15.2583
15.2717
15.2866
15.2971
15.3046
15.3082
15.3154
15.3361
15.3418
15.3607
15.3867
15.3957
15.399
15.4241
15.4362
15.3843
15.4015
15.4198