/*--------------------------------*- C++ -*----------------------------------*\
| =========                 |                                                 |
| \\      /  F ield         | OpenFOAM: The Open Source CFD Toolbox           |
|  \\    /   O peration     | Version:  2.4.0                                 |
|   \\  /    A nd           | Web:      www.OpenFOAM.org                      |
|    \\/     M anipulation  |                                                 |
\*---------------------------------------------------------------------------*/
FoamFile
{
    version     2.0;
    format      ascii;
    class       volVectorField;
    location    "3.8";
    object      U;
}
// * * * * * * * * * * * * * * * * * * * * * * * * * * * * * * * * * * * * * //

dimensions      [0 1 -1 0 0 0 0];

internalField   nonuniform List<vector> 
8000
(
(-5.5599e-07 -0.000305517 0)
(-9.94389e-07 -0.000907971 0)
(-1.38e-06 -0.00149738 0)
(-1.35087e-06 -0.00207162 0)
(-8.98638e-07 -0.00263113 0)
(-6.88791e-08 -0.0031765 0)
(1.2003e-06 -0.00370785 0)
(2.96226e-06 -0.00422514 0)
(5.27945e-06 -0.0047283 0)
(8.22113e-06 -0.00521724 0)
(1.1865e-05 -0.00569188 0)
(1.62979e-05 -0.00615218 0)
(2.16155e-05 -0.00659807 0)
(2.79228e-05 -0.00702955 0)
(3.53333e-05 -0.00744662 0)
(4.39693e-05 -0.00784933 0)
(5.39621e-05 -0.00823773 0)
(6.54518e-05 -0.00861192 0)
(7.85881e-05 -0.00897201 0)
(9.35309e-05 -0.00931816 0)
(0.000110452 -0.00965053 0)
(0.000129533 -0.00996934 0)
(0.000150968 -0.0102748 0)
(0.000174955 -0.0105672 0)
(0.000201701 -0.0108468 0)
(0.000231417 -0.011114 0)
(0.000264318 -0.0113692 0)
(0.00030062 -0.0116126 0)
(0.000340538 -0.0118449 0)
(0.000384276 -0.0120664 0)
(0.00043203 -0.0122778 0)
(0.000483984 -0.0124795 0)
(0.000540321 -0.0126722 0)
(0.00060123 -0.0128567 0)
(0.000666907 -0.0130336 0)
(0.000737518 -0.013204 0)
(0.000813008 -0.0133686 0)
(0.000893299 -0.0135285 0)
(0.000978439 -0.0136846 0)
(0.00106844 -0.0138384 0)
(0.0011632 -0.0139912 0)
(0.0012624 -0.0141437 0)
(0.00136615 -0.0143014 0)
(0.00147214 -0.0144671 0)
(0.00157506 -0.0146355 0)
(0.00166784 -0.0148117 0)
(0.00172966 -0.0149998 0)
(0.00175594 -0.0153345 0)
(0.00173906 -0.0157139 0)
(0.0016143 -0.0161498 0)
(1.94453e-07 -0.000313888 0)
(9.95352e-07 -0.000936235 0)
(2.00598e-06 -0.00154594 0)
(3.21945e-06 -0.00213872 0)
(4.59656e-06 -0.00271467 0)
(6.09263e-06 -0.00327505 0)
(7.71193e-06 -0.00382041 0)
(9.46442e-06 -0.00435099 0)
(1.13705e-05 -0.004867 0)
(1.34623e-05 -0.0053686 0)
(1.57824e-05 -0.00585596 0)
(1.83835e-05 -0.00632922 0)
(2.13269e-05 -0.00678852 0)
(2.46816e-05 -0.007234 0)
(2.85228e-05 -0.00766579 0)
(3.29306e-05 -0.00808403 0)
(3.79884e-05 -0.00848886 0)
(4.37817e-05 -0.00888042 0)
(5.03967e-05 -0.00925886 0)
(5.79185e-05 -0.00962432 0)
(6.64298e-05 -0.00997697 0)
(7.6009e-05 -0.010317 0)
(8.67288e-05 -0.0106445 0)
(9.86539e-05 -0.0109596 0)
(0.00011184 -0.0112627 0)
(0.000126329 -0.0115537 0)
(0.000142151 -0.0118329 0)
(0.000159318 -0.0121005 0)
(0.000177823 -0.0123566 0)
(0.000197637 -0.0126014 0)
(0.000218708 -0.0128351 0)
(0.000240953 -0.0130578 0)
(0.000264261 -0.0132697 0)
(0.000288483 -0.0134709 0)
(0.000313421 -0.0136615 0)
(0.000338816 -0.0138417 0)
(0.000364428 -0.0140103 0)
(0.000389962 -0.0141687 0)
(0.000415001 -0.0143169 0)
(0.000439082 -0.0144548 0)
(0.000461691 -0.0145825 0)
(0.000482228 -0.0146999 0)
(0.000499812 -0.0148067 0)
(0.00051378 -0.0149028 0)
(0.000523631 -0.0149876 0)
(0.000528361 -0.0150604 0)
(0.000526451 -0.0151201 0)
(0.000514535 -0.0151639 0)
(0.000486955 -0.0152024 0)
(0.000441975 -0.0152003 0)
(-3.48387e-07 -0.000306259 0)
(-2.88815e-06 -0.000912023 0)
(-7.73322e-06 -0.00150605 0)
(-1.47375e-05 -0.00208452 0)
(-2.37206e-05 -0.00264724 0)
(-3.45611e-05 -0.00319541 0)
(-4.71655e-05 -0.00372957 0)
(-6.14389e-05 -0.00424996 0)
(-7.7285e-05 -0.0047568 0)
(-9.46048e-05 -0.00525027 0)
(-0.000113298 -0.00573056 0)
(-0.000133263 -0.00619784 0)
(-0.000154396 -0.00665227 0)
(-0.000176593 -0.00709401 0)
(-0.00019975 -0.00752321 0)
(-0.000223759 -0.00794002 0)
(-0.000248517 -0.00834456 0)
(-0.000273918 -0.00873698 0)
(-0.000299857 -0.00911738 0)
(-0.000326233 -0.0094859 0)
(-0.000352942 -0.00984264 0)
(-0.000379889 -0.0101877 0)
(-0.000406976 -0.0105211 0)
(-0.000434113 -0.0108431 0)
(-0.000461211 -0.0111535 0)
(-0.000488187 -0.0114526 0)
(-0.000514962 -0.0117402 0)
(-0.000541464 -0.0120164 0)
(-0.000567625 -0.0122813 0)
(-0.000593385 -0.0125347 0)
(-0.000618691 -0.0127766 0)
(-0.000643494 -0.0130069 0)
(-0.000667757 -0.0132255 0)
(-0.000691448 -0.0134321 0)
(-0.000714541 -0.0136267 0)
(-0.000737014 -0.013809 0)
(-0.000758844 -0.0139787 0)
(-0.00078002 -0.0141354 0)
(-0.000800548 -0.0142787 0)
(-0.000820448 -0.0144083 0)
(-0.000839752 -0.0145236 0)
(-0.000858501 -0.014624 0)
(-0.000876746 -0.0147089 0)
(-0.000894545 -0.0147774 0)
(-0.000911957 -0.0148288 0)
(-0.000929056 -0.014862 0)
(-0.00094589 -0.0148759 0)
(-0.000962344 -0.0148694 0)
(-0.000977996 -0.014841 0)
(-0.000992577 -0.0147885 0)
(-1.66037e-07 -0.000287388 0)
(-3.98548e-06 -0.000854665 0)
(-1.20998e-05 -0.00141094 0)
(-2.45048e-05 -0.00195324 0)
(-4.09051e-05 -0.00248144 0)
(-6.10426e-05 -0.00299658 0)
(-8.47269e-05 -0.00349915 0)
(-0.00011178 -0.00398942 0)
(-0.000142028 -0.0044676 0)
(-0.000175304 -0.00493392 0)
(-0.000211443 -0.00538856 0)
(-0.000250283 -0.00583171 0)
(-0.00029167 -0.00626354 0)
(-0.000335448 -0.00668422 0)
(-0.00038147 -0.0070939 0)
(-0.000429587 -0.00749273 0)
(-0.000479654 -0.00788084 0)
(-0.000531531 -0.00825836 0)
(-0.000585076 -0.00862541 0)
(-0.000640152 -0.0089821 0)
(-0.000696622 -0.00932852 0)
(-0.000754351 -0.00966478 0)
(-0.000813205 -0.00999094 0)
(-0.00087305 -0.0103071 0)
(-0.000933754 -0.0106133 0)
(-0.000995182 -0.0109095 0)
(-0.0010572 -0.0111959 0)
(-0.00111967 -0.0114724 0)
(-0.00118246 -0.0117391 0)
(-0.00124543 -0.0119959 0)
(-0.00130842 -0.0122428 0)
(-0.0013713 -0.0124798 0)
(-0.0014339 -0.0127067 0)
(-0.00149607 -0.0129236 0)
(-0.00155763 -0.0131302 0)
(-0.00161841 -0.0133266 0)
(-0.00167821 -0.0135125 0)
(-0.00173683 -0.0136877 0)
(-0.00179404 -0.013852 0)
(-0.00184961 -0.0140053 0)
(-0.00190329 -0.0141472 0)
(-0.00195478 -0.0142774 0)
(-0.00200378 -0.0143957 0)
(-0.00204996 -0.0145016 0)
(-0.00209294 -0.0145947 0)
(-0.0021323 -0.0146746 0)
(-0.00216759 -0.0147408 0)
(-0.0021983 -0.0147926 0)
(-0.0022239 -0.0148294 0)
(-0.00224383 -0.0148507 0)
(-8.0595e-07 -0.000249668 0)
(-7.31279e-06 -0.000744336 0)
(-1.99483e-05 -0.00123142 0)
(-3.83819e-05 -0.00170844 0)
(-6.21476e-05 -0.00217514 0)
(-9.08889e-05 -0.00263216 0)
(-0.000124342 -0.00307977 0)
(-0.000162259 -0.00351803 0)
(-0.000204403 -0.00394702 0)
(-0.000250547 -0.0043668 0)
(-0.000300474 -0.00477744 0)
(-0.000353976 -0.00517902 0)
(-0.000410855 -0.00557161 0)
(-0.00047092 -0.00595527 0)
(-0.000533986 -0.00633009 0)
(-0.000599877 -0.00669613 0)
(-0.000668418 -0.00705347 0)
(-0.000739443 -0.00740219 0)
(-0.000812787 -0.00774235 0)
(-0.00088829 -0.00807403 0)
(-0.000965796 -0.00839729 0)
(-0.00104515 -0.0087122 0)
(-0.00112619 -0.00901882 0)
(-0.00120878 -0.00931722 0)
(-0.00129276 -0.00960745 0)
(-0.00137798 -0.00988957 0)
(-0.00146428 -0.0101636 0)
(-0.00155151 -0.0104297 0)
(-0.00163951 -0.0106878 0)
(-0.00172813 -0.010938 0)
(-0.0018172 -0.0111804 0)
(-0.00190655 -0.0114149 0)
(-0.00199601 -0.0116416 0)
(-0.00208539 -0.0118606 0)
(-0.0021745 -0.0120719 0)
(-0.00226315 -0.0122754 0)
(-0.00235112 -0.0124714 0)
(-0.00243819 -0.0126597 0)
(-0.00252412 -0.0128404 0)
(-0.00260866 -0.0130136 0)
(-0.00269154 -0.0131793 0)
(-0.00277247 -0.0133375 0)
(-0.00285115 -0.0134882 0)
(-0.00292723 -0.0136316 0)
(-0.00300037 -0.0137676 0)
(-0.00307016 -0.0138963 0)
(-0.00313617 -0.0140178 0)
(-0.00319788 -0.0141321 0)
(-0.00325468 -0.0142391 0)
(-0.00330608 -0.0143392 0)
(-2.70862e-07 -0.000208573 0)
(-4.86903e-06 -0.000624467 0)
(-1.45786e-05 -0.00103657 0)
(-2.93588e-05 -0.00144275 0)
(-4.88839e-05 -0.00184259 0)
(-7.28684e-05 -0.0022364 0)
(-0.000101095 -0.00262416 0)
(-0.000133356 -0.00300579 0)
(-0.000169449 -0.00338119 0)
(-0.000209173 -0.00375028 0)
(-0.00025233 -0.00411301 0)
(-0.000298724 -0.00446934 0)
(-0.000348166 -0.00481924 0)
(-0.000400466 -0.00516269 0)
(-0.000455438 -0.00549968 0)
(-0.000512899 -0.00583022 0)
(-0.000572667 -0.00615431 0)
(-0.000634564 -0.00647198 0)
(-0.00069841 -0.00678324 0)
(-0.000764028 -0.00708812 0)
(-0.000831243 -0.00738667 0)
(-0.000899878 -0.00767892 0)
(-0.000969759 -0.00796492 0)
(-0.00104071 -0.00824472 0)
(-0.00111256 -0.00851837 0)
(-0.00118513 -0.00878594 0)
(-0.00125824 -0.00904749 0)
(-0.00133171 -0.00930309 0)
(-0.00140537 -0.00955282 0)
(-0.00147905 -0.00979677 0)
(-0.00155254 -0.010035 0)
(-0.00162568 -0.0102676 0)
(-0.00169829 -0.0104947 0)
(-0.00177016 -0.0107165 0)
(-0.00184112 -0.0109329 0)
(-0.00191099 -0.0111442 0)
(-0.00197955 -0.0113504 0)
(-0.00204664 -0.0115518 0)
(-0.00211205 -0.0117485 0)
(-0.0021756 -0.0119406 0)
(-0.00223709 -0.0121284 0)
(-0.00229633 -0.012312 0)
(-0.00235315 -0.0124918 0)
(-0.00240736 -0.0126679 0)
(-0.00245874 -0.0128406 0)
(-0.00250698 -0.0130101 0)
(-0.0025516 -0.0131772 0)
(-0.00259231 -0.0133433 0)
(-0.00263175 -0.0135094 0)
(-0.00267938 -0.0136795 0)
(-5.41056e-07 -0.000182309 0)
(-4.85734e-06 -0.000546033 0)
(-1.33239e-05 -0.000907031 0)
(-2.57698e-05 -0.0012638 0)
(-4.19459e-05 -0.00161613 0)
(-6.16622e-05 -0.00196427 0)
(-8.47763e-05 -0.0023083 0)
(-0.000111146 -0.00264816 0)
(-0.000140627 -0.00298382 0)
(-0.000173073 -0.00331526 0)
(-0.000208335 -0.00364245 0)
(-0.000246268 -0.00396539 0)
(-0.000286725 -0.00428408 0)
(-0.00032956 -0.00459851 0)
(-0.000374625 -0.00490871 0)
(-0.000421775 -0.00521468 0)
(-0.000470862 -0.00551647 0)
(-0.000521742 -0.00581409 0)
(-0.000574266 -0.00610758 0)
(-0.000628289 -0.006397 0)
(-0.000683664 -0.00668238 0)
(-0.000740243 -0.00696379 0)
(-0.000797878 -0.00724128 0)
(-0.000856421 -0.00751492 0)
(-0.000915723 -0.00778477 0)
(-0.000975635 -0.0080509 0)
(-0.00103601 -0.00831339 0)
(-0.00109668 -0.00857231 0)
(-0.00115752 -0.00882774 0)
(-0.00121835 -0.00907977 0)
(-0.00127904 -0.00932847 0)
(-0.00133942 -0.00957392 0)
(-0.00139934 -0.00981619 0)
(-0.00145864 -0.0100554 0)
(-0.00151717 -0.0102915 0)
(-0.00157477 -0.0105247 0)
(-0.00163129 -0.010755 0)
(-0.00168658 -0.0109824 0)
(-0.00174047 -0.011207 0)
(-0.00179283 -0.0114289 0)
(-0.00184353 -0.0116479 0)
(-0.00189236 -0.0118642 0)
(-0.00193893 -0.0120775 0)
(-0.00198263 -0.0122878 0)
(-0.00202355 -0.0124957 0)
(-0.00206613 -0.0127026 0)
(-0.00212586 -0.0129127 0)
(-0.00220434 -0.0131321 0)
(-0.00229958 -0.0132351 0)
(-0.00239461 -0.0133145 0)
(-1.23569e-07 -0.000157275 0)
(-2.79744e-06 -0.000472329 0)
(-8.55449e-06 -0.000786374 0)
(-1.74121e-05 -0.00109818 0)
(-2.92092e-05 -0.0014075 0)
(-4.38048e-05 -0.00171446 0)
(-6.10974e-05 -0.00201902 0)
(-8.09932e-05 -0.00232109 0)
(-0.0001034 -0.00262059 0)
(-0.000128226 -0.00291745 0)
(-0.000155382 -0.00321162 0)
(-0.000184779 -0.00350305 0)
(-0.000216331 -0.00379172 0)
(-0.000249953 -0.00407759 0)
(-0.000285559 -0.00436067 0)
(-0.000323067 -0.00464096 0)
(-0.000362394 -0.00491845 0)
(-0.000403458 -0.00519318 0)
(-0.000446178 -0.00546516 0)
(-0.000490473 -0.00573444 0)
(-0.000536262 -0.00600105 0)
(-0.000583464 -0.00626505 0)
(-0.000632 -0.00652649 0)
(-0.000681788 -0.00678544 0)
(-0.000732747 -0.00704198 0)
(-0.000784796 -0.00729617 0)
(-0.000837853 -0.00754811 0)
(-0.000891832 -0.00779789 0)
(-0.000946649 -0.00804559 0)
(-0.00100222 -0.00829133 0)
(-0.00105844 -0.00853519 0)
(-0.00111524 -0.0087773 0)
(-0.0011725 -0.00901777 0)
(-0.00123014 -0.0092567 0)
(-0.00128803 -0.00949422 0)
(-0.00134606 -0.00973045 0)
(-0.00140413 -0.00996552 0)
(-0.0014621 -0.0101995 0)
(-0.00151983 -0.0104326 0)
(-0.00157706 -0.0106649 0)
(-0.00163321 -0.0108964 0)
(-0.00168756 -0.0111277 0)
(-0.00174029 -0.0113601 0)
(-0.00179933 -0.0115967 0)
(-0.00188498 -0.0118501 0)
(-0.00203696 -0.0119957 0)
(-0.00220534 -0.0120481 0)
(-0.00233353 -0.0120943 0)
(-0.00246793 -0.0119892 0)
(-0.00264799 -0.0118479 0)
(-2.68237e-07 -0.000141839 0)
(-1.90832e-06 -0.000426338 0)
(-5.04681e-06 -0.000710407 0)
(-9.65533e-06 -0.000993052 0)
(-1.57228e-05 -0.00127403 0)
(-2.32586e-05 -0.00155339 0)
(-3.22831e-05 -0.00183106 0)
(-4.28083e-05 -0.00210694 0)
(-5.48395e-05 -0.00238095 0)
(-6.83765e-05 -0.002653 0)
(-8.34146e-05 -0.00292303 0)
(-9.99459e-05 -0.00319101 0)
(-0.000117959 -0.00345689 0)
(-0.000137439 -0.00372065 0)
(-0.000158371 -0.00398227 0)
(-0.000180736 -0.00424176 0)
(-0.000204515 -0.00449912 0)
(-0.000229686 -0.00475437 0)
(-0.000256229 -0.00500753 0)
(-0.000284123 -0.00525864 0)
(-0.000313347 -0.00550775 0)
(-0.000343879 -0.0057549 0)
(-0.000375701 -0.00600016 0)
(-0.000408795 -0.00624361 0)
(-0.000443145 -0.00648532 0)
(-0.000478739 -0.00672539 0)
(-0.000515568 -0.00696391 0)
(-0.000553627 -0.00720101 0)
(-0.000592915 -0.00743679 0)
(-0.00063344 -0.00767141 0)
(-0.000675215 -0.00790502 0)
(-0.000718261 -0.00813778 0)
(-0.000762611 -0.00836989 0)
(-0.000808311 -0.00860155 0)
(-0.000855431 -0.00883302 0)
(-0.000904062 -0.00906456 0)
(-0.000954227 -0.00929645 0)
(-0.00100584 -0.00952894 0)
(-0.00105865 -0.00976232 0)
(-0.00111316 -0.0099976 0)
(-0.0011745 -0.0102388 0)
(-0.00125791 -0.0104981 0)
(-0.00139479 -0.010746 0)
(-0.00158808 -0.0107819 0)
(-0.00179478 -0.010808 0)
(-0.00203065 -0.0107137 0)
(-0.00227681 -0.0106864 0)
(-0.00239963 -0.0106358 0)
(-0.00229792 -0.00997055 0)
(-0.00199264 -0.00805632 0)
(1.56292e-07 -0.000141672 0)
(-2.27652e-07 -0.000423191 0)
(-1.55028e-06 -0.000702161 0)
(-3.98564e-06 -0.000978046 0)
(-7.58174e-06 -0.00125087 0)
(-1.23698e-05 -0.00152083 0)
(-1.83904e-05 -0.00178805 0)
(-2.5685e-05 -0.00205258 0)
(-3.42932e-05 -0.00231448 0)
(-4.42525e-05 -0.00257379 0)
(-5.55978e-05 -0.00283057 0)
(-6.83624e-05 -0.00308485 0)
(-8.25773e-05 -0.00333668 0)
(-9.82716e-05 -0.00358609 0)
(-0.000115473 -0.00383314 0)
(-0.000134205 -0.00407785 0)
(-0.000154492 -0.00432028 0)
(-0.000176355 -0.00456044 0)
(-0.000199811 -0.0047984 0)
(-0.000224876 -0.00503417 0)
(-0.000251563 -0.00526778 0)
(-0.000279882 -0.00549928 0)
(-0.00030984 -0.00572867 0)
(-0.000341438 -0.00595598 0)
(-0.000374675 -0.00618122 0)
(-0.000409544 -0.00640437 0)
(-0.000446033 -0.00662544 0)
(-0.000484124 -0.00684439 0)
(-0.00052379 -0.00706116 0)
(-0.000564998 -0.0072757 0)
(-0.000607702 -0.00748791 0)
(-0.000651849 -0.00769767 0)
(-0.00069739 -0.00790481 0)
(-0.000744283 -0.00810914 0)
(-0.000792472 -0.00831035 0)
(-0.000841522 -0.00850794 0)
(-0.000889969 -0.00870146 0)
(-0.000936561 -0.00889148 0)
(-0.000990051 -0.00908333 0)
(-0.00109651 -0.00929648 0)
(-0.00136837 -0.00921609 0)
(-0.00174283 -0.00908752 0)
(-0.00217709 -0.00891107 0)
(-0.00258915 -0.00887646 0)
(-0.00265943 -0.0085924 0)
(-0.00211428 -0.00608831 0)
(-0.00131965 -0.00713359 0)
(-0.000600539 -0.0132816 0)
(0.000473099 -0.015881 0)
(0.0037209 -0.0104114 0)
(-3.60031e-07 -0.00013018 0)
(-2.10329e-06 -0.000389359 0)
(-5.23966e-06 -0.000646537 0)
(-9.6833e-06 -0.000901097 0)
(-1.54258e-05 -0.00115289 0)
(-2.25032e-05 -0.00140195 0)
(-3.0971e-05 -0.00164824 0)
(-4.08868e-05 -0.00189173 0)
(-5.23102e-05 -0.00213238 0)
(-6.5304e-05 -0.00237017 0)
(-7.99334e-05 -0.00260508 0)
(-9.62664e-05 -0.00283712 0)
(-0.000114373 -0.0030663 0)
(-0.000134323 -0.00329265 0)
(-0.000156191 -0.00351621 0)
(-0.000180048 -0.00373702 0)
(-0.000205969 -0.00395515 0)
(-0.000234027 -0.00417068 0)
(-0.000264296 -0.00438368 0)
(-0.00029685 -0.00459427 0)
(-0.000331762 -0.00480256 0)
(-0.000369103 -0.00500869 0)
(-0.000408946 -0.00521282 0)
(-0.000451359 -0.00541511 0)
(-0.000496411 -0.00561576 0)
(-0.000544168 -0.005815 0)
(-0.000594695 -0.00601307 0)
(-0.000648052 -0.00621026 0)
(-0.000704295 -0.00640687 0)
(-0.000763477 -0.00660327 0)
(-0.000825687 -0.00679988 0)
(-0.000891036 -0.00699715 0)
(-0.000959638 -0.00719553 0)
(-0.00103076 -0.00739542 0)
(-0.00110217 -0.00759742 0)
(-0.00117375 -0.00780377 0)
(-0.00126105 -0.00802087 0)
(-0.00143218 -0.00818344 0)
(-0.00169925 -0.00818137 0)
(-0.00200434 -0.00816093 0)
(-0.0023081 -0.00779302 0)
(-0.00256912 -0.00695859 0)
(-0.00252909 0.00190521 0)
(-0.00204951 -0.00696693 0)
(-0.00167941 -0.0192384 0)
(0.000814957 -0.0200082 0)
(0.00715042 -0.0243299 0)
(0.0159939 -0.039554 0)
(0.0273249 -0.0695434 0)
(0.0407451 -0.112184 0)
(2.86026e-07 -0.000127004 0)
(7.75205e-07 -0.000378257 0)
(1.04131e-06 -0.00062608 0)
(8.01342e-07 -0.000869973 0)
(-1.13428e-07 -0.00110981 0)
(-1.84087e-06 -0.00134562 0)
(-4.518e-06 -0.00157735 0)
(-8.28186e-06 -0.00180498 0)
(-1.3268e-05 -0.00202847 0)
(-1.96094e-05 -0.00224779 0)
(-2.74371e-05 -0.00246292 0)
(-3.68799e-05 -0.00267385 0)
(-4.80649e-05 -0.00288059 0)
(-6.11177e-05 -0.00308315 0)
(-7.6162e-05 -0.00328153 0)
(-9.33205e-05 -0.00347577 0)
(-0.000112714 -0.00366589 0)
(-0.000134463 -0.00385193 0)
(-0.000158685 -0.00403394 0)
(-0.0001855 -0.00421195 0)
(-0.000215023 -0.00438602 0)
(-0.000247373 -0.0045562 0)
(-0.000282666 -0.00472254 0)
(-0.000321021 -0.0048851 0)
(-0.000362557 -0.00504392 0)
(-0.000407395 -0.00519906 0)
(-0.000455656 -0.00535055 0)
(-0.000507468 -0.00549845 0)
(-0.000563007 -0.00564278 0)
(-0.000622506 -0.00578357 0)
(-0.000686148 -0.0059208 0)
(-0.000753181 -0.00605439 0)
(-0.000821265 -0.00618413 0)
(-0.000890861 -0.00631036 0)
(-0.000982583 -0.00643559 0)
(-0.00116399 -0.00653422 0)
(-0.00143011 -0.00659585 0)
(-0.0017168 -0.00656164 0)
(-0.00202088 -0.00625093 0)
(-0.00241608 -0.00387231 0)
(-0.0025766 -0.000647977 0)
(-0.00224616 -0.010128 0)
(0.00171443 -0.00518477 0)
(0.009536 -0.0154512 0)
(0.0179806 -0.060219 0)
(0.0299784 -0.124249 0)
(0.0436753 -0.194027 0)
(0.0574453 -0.257715 0)
(0.0709027 -0.312793 0)
(0.083755 -0.359012 0)
(-2.53874e-07 -0.000128842 0)
(-1.16416e-06 -0.000380974 0)
(-2.72703e-06 -0.00062709 0)
(-4.95274e-06 -0.000866865 0)
(-7.9535e-06 -0.00110026 0)
(-1.1878e-05 -0.00132735 0)
(-1.68869e-05 -0.00154816 0)
(-2.3143e-05 -0.00176273 0)
(-3.08121e-05 -0.00197109 0)
(-4.00624e-05 -0.00217326 0)
(-5.10645e-05 -0.00236929 0)
(-6.39895e-05 -0.00255922 0)
(-7.90087e-05 -0.00274311 0)
(-9.62917e-05 -0.00292103 0)
(-0.000116006 -0.00309306 0)
(-0.000138316 -0.00325927 0)
(-0.000163379 -0.00341976 0)
(-0.00019135 -0.00357463 0)
(-0.000222373 -0.003724 0)
(-0.000256583 -0.00386798 0)
(-0.000294107 -0.00400671 0)
(-0.000335056 -0.00414032 0)
(-0.000379526 -0.00426895 0)
(-0.000427597 -0.00439275 0)
(-0.000479325 -0.00451186 0)
(-0.000534744 -0.00462644 0)
(-0.000593872 -0.00473664 0)
(-0.000656737 -0.0048426 0)
(-0.000723363 -0.00494446 0)
(-0.000793405 -0.00504229 0)
(-0.000865418 -0.00513607 0)
(-0.000937504 -0.00522596 0)
(-0.00101487 -0.00531313 0)
(-0.00113055 -0.00540081 0)
(-0.00132837 -0.00545289 0)
(-0.00153353 -0.00543956 0)
(-0.00165419 -0.00519034 0)
(-0.0018191 -0.00161091 0)
(-0.00110733 -0.0005908 0)
(0.00155626 -0.00347746 0)
(0.00665483 -0.00787598 0)
(0.0127713 -0.0636742 0)
(0.0210176 -0.135808 0)
(0.0308218 -0.209431 0)
(0.0406964 -0.274865 0)
(0.0495658 -0.327538 0)
(0.0562048 -0.364896 0)
(0.0597539 -0.387131 0)
(0.060875 -0.401917 0)
(0.0615243 -0.416823 0)
(3.37331e-07 -0.000122955 0)
(1.93011e-06 -0.000362987 0)
(4.48417e-06 -0.000596359 0)
(7.61222e-06 -0.000822451 0)
(1.09479e-05 -0.00104092 0)
(1.4157e-05 -0.00125155 0)
(1.69141e-05 -0.00145416 0)
(1.8893e-05 -0.0016486 0)
(1.9764e-05 -0.00183473 0)
(1.91947e-05 -0.00201247 0)
(1.68502e-05 -0.00218178 0)
(1.23926e-05 -0.00234264 0)
(5.4811e-06 -0.00249506 0)
(-4.22896e-06 -0.0026391 0)
(-1.70857e-05 -0.00277485 0)
(-3.3441e-05 -0.00290244 0)
(-5.36507e-05 -0.00302205 0)
(-7.80744e-05 -0.00313387 0)
(-0.000107075 -0.00323816 0)
(-0.000141019 -0.00333523 0)
(-0.000180276 -0.00342541 0)
(-0.000225217 -0.00350912 0)
(-0.000276212 -0.00358682 0)
(-0.000333632 -0.00365903 0)
(-0.000397848 -0.00372635 0)
(-0.00046925 -0.00378945 0)
(-0.000548248 -0.00384909 0)
(-0.000635162 -0.00390612 0)
(-0.000729716 -0.00396146 0)
(-0.000830855 -0.00401609 0)
(-0.000940052 -0.00407122 0)
(-0.00107227 -0.00412893 0)
(-0.00126359 -0.00419244 0)
(-0.00147984 -0.00427085 0)
(-0.00167843 -0.00434638 0)
(-0.0019079 -0.00443287 0)
(-0.00265527 -0.00253749 0)
(-0.00075773 -0.0151603 0)
(-0.00218201 -0.0414317 0)
(-0.00185703 -0.0924062 0)
(-0.0010739 -0.141773 0)
(-2.72964e-05 -0.187359 0)
(-3.68712e-05 -0.22922 0)
(-0.000558036 -0.270527 0)
(-0.00289356 -0.303034 0)
(-0.00816653 -0.31585 0)
(-0.0147572 -0.321797 0)
(-0.0220214 -0.326343 0)
(-0.0280769 -0.332043 0)
(-0.0361105 -0.344756 0)
(2.45068e-07 -0.000145682 0)
(2.69563e-06 -0.000423134 0)
(7.34474e-06 -0.000686378 0)
(1.37995e-05 -0.00093521 0)
(2.15427e-05 -0.00116957 0)
(3.00908e-05 -0.00138947 0)
(3.89888e-05 -0.0015949 0)
(4.77896e-05 -0.00178585 0)
(5.60444e-05 -0.00196229 0)
(6.33001e-05 -0.00212419 0)
(6.90973e-05 -0.00227153 0)
(7.2967e-05 -0.00240428 0)
(7.44279e-05 -0.00252241 0)
(7.2983e-05 -0.0026259 0)
(6.81155e-05 -0.00271472 0)
(5.92856e-05 -0.00278887 0)
(4.5926e-05 -0.00284835 0)
(2.74379e-05 -0.00289317 0)
(3.18579e-06 -0.00292336 0)
(-2.75076e-05 -0.00293895 0)
(-6.53664e-05 -0.00294003 0)
(-0.000111168 -0.0029267 0)
(-0.000165749 -0.00289907 0)
(-0.000230014 -0.00285734 0)
(-0.000304959 -0.00280172 0)
(-0.000391682 -0.00273249 0)
(-0.000491326 -0.00265 0)
(-0.000604779 -0.00255468 0)
(-0.000732534 -0.00244709 0)
(-0.000876687 -0.00232789 0)
(-0.00104815 -0.00219794 0)
(-0.00127048 -0.00205792 0)
(-0.00153412 -0.00189372 0)
(-0.00180322 -0.00186734 0)
(-0.00211358 -0.00168031 0)
(-0.00293361 -0.000707869 0)
(-0.00292336 -0.0163971 0)
(-0.00347988 0.00362848 0)
(-0.00331685 0.00484411 0)
(-0.00701064 -0.00665785 0)
(-0.0161118 -0.0322409 0)
(-0.0294147 -0.0689698 0)
(-0.0424164 -0.11647 0)
(-0.0580558 -0.164172 0)
(-0.0749091 -0.1826 0)
(-0.0861234 -0.187897 0)
(-0.0976086 -0.191865 0)
(-0.110141 -0.197667 0)
(-0.120844 -0.206035 0)
(-0.132337 -0.222425 0)
(4.79622e-07 -0.000159758 0)
(4.3307e-06 -0.000460831 0)
(1.15562e-05 -0.00074314 0)
(2.1677e-05 -0.00100648 0)
(3.41255e-05 -0.00125074 0)
(4.842e-05 -0.00147584 0)
(6.41436e-05 -0.00168167 0)
(8.09095e-05 -0.0018681 0)
(9.83495e-05 -0.00203496 0)
(0.00011611 -0.00218205 0)
(0.000133851 -0.00230911 0)
(0.000151239 -0.00241586 0)
(0.000167947 -0.00250197 0)
(0.000183649 -0.00256704 0)
(0.000198016 -0.00261063 0)
(0.000210716 -0.00263225 0)
(0.000221403 -0.00263132 0)
(0.00022972 -0.0026072 0)
(0.000235292 -0.00255916 0)
(0.000237718 -0.00248639 0)
(0.000236574 -0.00238799 0)
(0.0002314 -0.00226294 0)
(0.0002217 -0.00211012 0)
(0.000206932 -0.00192826 0)
(0.000186506 -0.00171597 0)
(0.000159766 -0.0014717 0)
(0.000125977 -0.00119374 0)
(8.4305e-05 -0.000880197 0)
(3.39403e-05 -0.000529004 0)
(-2.55781e-05 -0.000137922 0)
(-9.43272e-05 0.000295606 0)
(-0.000175161 0.000775139 0)
(-0.000282755 0.00130562 0)
(-0.000446512 0.00171875 0)
(-0.000636699 0.00232722 0)
(-0.000811726 0.00201782 0)
(-0.00107228 -0.00169623 0)
(-0.00185318 0.00279454 0)
(-0.00112248 -0.0156374 0)
(-0.00128328 0.0623219 0)
(-0.00134271 0.135009 0)
(-0.00368477 0.159267 0)
(-0.0100292 0.13641 0)
(-0.0177714 0.0741062 0)
(-0.0418018 0.0164899 0)
(-0.060859 -0.00379482 0)
(-0.0763474 -0.016032 0)
(-0.0908341 -0.0264354 0)
(-0.105011 -0.0380445 0)
(-0.120038 -0.0565364 0)
(1.46016e-07 -0.000198102 0)
(2.0539e-07 -0.000565314 0)
(5.2047e-08 -0.000904571 0)
(-3.61202e-07 -0.00121687 0)
(-9.95854e-07 -0.00150312 0)
(-1.81022e-06 -0.00176412 0)
(-2.7709e-06 -0.00200055 0)
(-3.84812e-06 -0.00221295 0)
(-5.00913e-06 -0.00240177 0)
(-6.21406e-06 -0.00256735 0)
(-7.41286e-06 -0.0027099 0)
(-8.54266e-06 -0.00282958 0)
(-9.52536e-06 -0.00292644 0)
(-1.02653e-05 -0.00300044 0)
(-1.06469e-05 -0.00305147 0)
(-1.05327e-05 -0.00307931 0)
(-9.76057e-06 -0.00308366 0)
(-8.14189e-06 -0.00306415 0)
(-5.45842e-06 -0.00302027 0)
(-1.45964e-06 -0.00295145 0)
(4.14047e-06 -0.00285701 0)
(1.1667e-05 -0.00273616 0)
(2.14882e-05 -0.00258798 0)
(3.40201e-05 -0.00241146 0)
(4.97312e-05 -0.00220544 0)
(6.91506e-05 -0.00196864 0)
(9.2874e-05 -0.00169963 0)
(0.000121561 -0.00139683 0)
(0.000155942 -0.00105849 0)
(0.000196786 -0.000682728 0)
(0.000245128 -0.000267485 0)
(0.000302582 0.00018943 0)
(0.000371658 0.000690597 0)
(0.000451923 0.00123976 0)
(0.000528115 0.00184328 0)
(0.000515641 0.00189719 0)
(0.000418618 0.00200952 0)
(0.000290373 0.00217279 0)
(9.40197e-05 -0.00115126 0)
(8.28852e-05 0.0034945 0)
(0.00304221 -0.00643969 0)
(0.0105507 0.0167797 0)
(0.0197512 0.103183 0)
(0.0224401 0.20698 0)
(0.0240667 0.269067 0)
(0.0240166 0.269511 0)
(0.0220826 0.231472 0)
(0.0184487 0.190267 0)
(0.0127861 0.157243 0)
(0.00402425 0.128217 0)
(-6.78844e-07 -0.000153985 0)
(-3.30486e-06 -0.00044596 0)
(-7.86448e-06 -0.000721018 0)
(-1.41481e-05 -0.000978467 0)
(-2.213e-05 -0.00121787 0)
(-3.18107e-05 -0.00143894 0)
(-4.31578e-05 -0.0016415 0)
(-5.60896e-05 -0.00182545 0)
(-7.04786e-05 -0.00199077 0)
(-8.61554e-05 -0.00213744 0)
(-0.00010291 -0.0022655 0)
(-0.000120492 -0.00237503 0)
(-0.000138611 -0.00246609 0)
(-0.000156935 -0.00253876 0)
(-0.000175095 -0.00259312 0)
(-0.000192678 -0.00262926 0)
(-0.000209229 -0.00264724 0)
(-0.000224253 -0.00264712 0)
(-0.000237207 -0.00262895 0)
(-0.000247502 -0.00259277 0)
(-0.000254497 -0.00253859 0)
(-0.000257499 -0.00246645 0)
(-0.000255757 -0.00237634 0)
(-0.00024846 -0.00226827 0)
(-0.000234726 -0.00214223 0)
(-0.000213603 -0.00199825 0)
(-0.000184058 -0.00183632 0)
(-0.000144972 -0.0016565 0)
(-9.51324e-05 -0.00145883 0)
(-3.32314e-05 -0.00124343 0)
(4.21861e-05 -0.00101042 0)
(0.000132782 -0.000760042 0)
(0.000240491 -0.000492612 0)
(0.000366687 -0.000208654 0)
(0.000511001 9.14369e-05 0)
(0.000668468 0.000408174 0)
(0.000828776 0.0007514 0)
(0.00096061 0.000902936 0)
(0.0010206 0.000854655 0)
(0.00108086 0.00113483 0)
(0.00119136 0.0019047 0)
(0.00132135 0.000864304 0)
(0.0024256 0.00344892 0)
(0.00785283 0.00826297 0)
(0.0192256 0.0139278 0)
(0.0321666 0.0116586 0)
(0.0427325 0.0479891 0)
(0.0507973 0.086925 0)
(0.0570291 0.136361 0)
(0.0625852 0.19153 0)
(1.70477e-06 -0.000182203 0)
(9.03978e-06 -0.000510618 0)
(1.96155e-05 -0.000808176 0)
(3.15298e-05 -0.00107714 0)
(4.33711e-05 -0.00131959 0)
(5.42184e-05 -0.00153743 0)
(6.34698e-05 -0.00173241 0)
(7.07422e-05 -0.00190614 0)
(7.58299e-05 -0.00206011 0)
(7.86773e-05 -0.00219567 0)
(7.93549e-05 -0.00231407 0)
(7.80374e-05 -0.00241645 0)
(7.49849e-05 -0.00250388 0)
(7.0528e-05 -0.0025773 0)
(6.50545e-05 -0.00263763 0)
(5.89989e-05 -0.00268567 0)
(5.28331e-05 -0.0027222 0)
(4.7059e-05 -0.00274794 0)
(4.22011e-05 -0.00276355 0)
(3.88007e-05 -0.00276967 0)
(3.74105e-05 -0.00276693 0)
(3.85887e-05 -0.00275591 0)
(4.28946e-05 -0.0027372 0)
(5.08819e-05 -0.0027114 0)
(6.3094e-05 -0.00267912 0)
(8.00566e-05 -0.00264098 0)
(0.000102271 -0.00259764 0)
(0.000130203 -0.00254982 0)
(0.000164278 -0.00249828 0)
(0.000204863 -0.00244387 0)
(0.00025225 -0.00238753 0)
(0.000306643 -0.00233032 0)
(0.000368149 -0.00227342 0)
(0.000436804 -0.0022182 0)
(0.000512563 -0.00216615 0)
(0.000594801 -0.00211884 0)
(0.000681237 -0.00207768 0)
(0.000766856 -0.00204378 0)
(0.000846464 -0.00200856 0)
(0.000920648 -0.00198968 0)
(0.00100023 -0.00190925 0)
(0.00105125 -0.00210491 0)
(0.00110632 -0.00215982 0)
(0.00126026 -0.00230227 0)
(0.00164402 -0.00238147 0)
(0.00224905 -0.00391812 0)
(0.00299662 0.000598081 0)
(0.00516995 0.00255559 0)
(0.00921199 0.015916 0)
(0.0134665 0.026308 0)
(6.89271e-05 -0.000231231 0)
(0.000196323 -0.000621323 0)
(0.000293963 -0.000947803 0)
(0.000366437 -0.00122115 0)
(0.000418301 -0.00145003 0)
(0.000452794 -0.00164157 0)
(0.000472215 -0.00180174 0)
(0.000478517 -0.00193554 0)
(0.000473453 -0.00204714 0)
(0.000458591 -0.00214007 0)
(0.000435322 -0.00221724 0)
(0.00040488 -0.0022811 0)
(0.000368367 -0.00233369 0)
(0.000326772 -0.00237668 0)
(0.000280984 -0.00241149 0)
(0.000231809 -0.00243923 0)
(0.000179982 -0.00246083 0)
(0.000126173 -0.002477 0)
(7.10024e-05 -0.0024883 0)
(1.50438e-05 -0.00249511 0)
(-4.11655e-05 -0.00249766 0)
(-9.71193e-05 -0.00249606 0)
(-0.000152336 -0.00249025 0)
(-0.000206352 -0.00248004 0)
(-0.000258718 -0.00246506 0)
(-0.000308991 -0.00244479 0)
(-0.000356728 -0.00241851 0)
(-0.000401483 -0.00238527 0)
(-0.000442795 -0.00234387 0)
(-0.000480183 -0.00229281 0)
(-0.000513136 -0.00223024 0)
(-0.0005411 -0.00215389 0)
(-0.000563467 -0.00206098 0)
(-0.000579558 -0.00194815 0)
(-0.000588604 -0.00181131 0)
(-0.000589725 -0.00164553 0)
(-0.000581868 -0.00144481 0)
(-0.000563725 -0.0012018 0)
(-0.0005336 -0.00090742 0)
(-0.000489476 -0.00055074 0)
(-0.000429011 -0.000118851 0)
(-0.000350732 0.000398394 0)
(-0.000254393 0.00101583 0)
(-0.000142413 0.00177834 0)
(-1.50593e-05 0.0027675 0)
(0.00010576 0.00376931 0)
(0.000367536 0.00520416 0)
(0.000785535 0.00648748 0)
(0.00130606 0.00832628 0)
(0.0020611 0.0109111 0)
(0.00146538 -0.015187 0)
(0.00155332 -0.0145857 0)
(0.00171832 -0.0146583 0)
(0.00185601 -0.0144927 0)
(0.00196961 -0.0137516 0)
(0.00207486 -0.0123564 0)
(0.00220801 -0.0106375 0)
(0.00239841 -0.00860509 0)
(0.0026501 -0.00615779 0)
(0.00296617 -0.00322669 0)
(0.00336608 0.000281493 0)
(0.00388503 0.00450415 0)
(0.00458318 0.00968992 0)
(0.00561854 0.0162173 0)
(0.00741947 0.0245643 0)
(0.0108251 0.0352992 0)
(0.0167836 0.0490326 0)
(0.0258754 0.0668601 0)
(0.0383664 0.0915613 0)
(0.0545963 0.129219 0)
(0.074944 0.191522 0)
(0.0967695 0.288445 0)
(0.111293 0.381691 0)
(0.131457 0.432214 0)
(0.158365 0.445093 0)
(0.175187 0.448946 0)
(0.192016 0.453272 0)
(0.209722 0.45642 0)
(0.226424 0.459939 0)
(0.248669 0.462877 0)
(0.266604 0.453584 0)
(0.276808 0.454 0)
(0.291316 0.475737 0)
(0.308348 0.492708 0)
(0.317621 0.496437 0)
(0.325426 0.500993 0)
(0.334434 0.506162 0)
(0.343945 0.511709 0)
(0.35146 0.516694 0)
(0.358064 0.521416 0)
(0.36675 0.52693 0)
(0.377195 0.535803 0)
(0.382518 0.554763 0)
(0.387482 0.589124 0)
(0.395101 0.637053 0)
(0.403019 0.693157 0)
(0.409591 0.751625 0)
(0.414606 0.80755 0)
(0.418124 0.857648 0)
(0.419983 0.899753 0)
(0.000399442 -0.015192 0)
(0.0003715 -0.0151714 0)
(0.000356992 -0.0151023 0)
(0.000349419 -0.0149739 0)
(0.000355124 -0.0147826 0)
(0.000396123 -0.0145318 0)