/*--------------------------------*- C++ -*----------------------------------*\
| =========                 |                                                 |
| \\      /  F ield         | OpenFOAM: The Open Source CFD Toolbox           |
|  \\    /   O peration     | Version:  2.4.0                                 |
|   \\  /    A nd           | Web:      www.OpenFOAM.org                      |
|    \\/     M anipulation  |                                                 |
\*---------------------------------------------------------------------------*/
FoamFile
{
    version     2.0;
    format      ascii;
    class       volScalarField;
    location    "4.5";
    object      alpha1;
}
// * * * * * * * * * * * * * * * * * * * * * * * * * * * * * * * * * * * * * //

dimensions      [0 0 0 0 0 0 0];

internalField   nonuniform List<scalar> 
8000
(
1
1
0.999999
0.999998
0.999998
0.999998
0.999998
0.999998
0.999997
0.999997
0.999998
0.999998
0.999998
0.999998
0.999998
0.999997
0.999996
0.999994
0.999992
0.999984
0.99999
0.999995
0.999995
0.999995
0.999995
0.999996
0.999996
0.99999
0.999928
0.999653
0.999063
0.998894
0.999945
0.999992
0.999995
0.999952
0.999853
0.999836
0.999846
0.999965
0.99999
0.999995
0.999996
1
1
0.999994
0.999993
1
0.995485
0.925679
1
1
0.999999
0.999998
0.999998
0.999998
0.999997
0.999997
0.999997
0.999997
0.999997
0.999997
0.999997
0.999997
0.999998
0.999998
0.999998
0.999996
0.999997
0.999997
0.999997
0.999996
0.999996
0.999996
0.999995
0.999995
0.999995
0.999994
0.999995
0.999995
0.999996
0.999997
0.999998
0.999999
0.999999
1
1
1
1
1
1
1
1
1
1
1
0.999999
0.999998
0.999999
0.999999
1
1
0.999999
0.999998
0.999997
0.999997
0.999997
0.999997
0.999997
0.999997
0.999997
0.999997
0.999997
0.999997
0.999997
0.999997
0.999997
0.999997
0.999997
0.999997
0.999997
0.999997
0.999997
0.999996
0.999996
0.999996
0.999998
0.999997
0.999999
0.999998
0.999999
0.999998
0.999999
1
1
1
1
1
1
1
1
0.999999
1
1
1
0.999999
0.999993
0.999977
0.999938
0.98557
1
1
0.999999
0.999998
0.999997
0.999997
0.999997
0.999997
0.999997
0.999997
0.999997
0.999997
0.999997
0.999997
0.999997
0.999997
0.999997
0.999997
0.999997
0.999997
0.999997
0.999997
0.999997
0.999997
0.999997
0.999997
0.999997
0.999997
0.999997
0.999998
0.999998
0.999999
0.999999
0.999999
1
1
1
1
1
1
0.999998
0.999989
0.999969
0.999933
0.99987
0.982686
0.94105
0.883336
0.794987
0.666703
1
1
0.999999
0.999998
0.999998
0.999997
0.999997
0.999997
0.999997
0.999997
0.999997
0.999997
0.999997
0.999997
0.999997
0.999997
0.999997
0.999997
0.999997
0.999998
0.999998
0.999998
0.999998
0.999997
0.999998
0.999998
0.999998
0.999998
0.999998
0.999998
0.999998
0.999999
0.999999
0.999999
1
0.999992
0.999969
0.999927
0.999851
0.999738
0.96817
0.918602
0.855978
0.780463
0.687376
0.57925
0.461917
0.338606
0.201347
0.0905241
1
1
0.999999
0.999998
0.999998
0.999997
0.999997
0.999997
0.999997
0.999997
0.999998
0.999997
0.999997
0.999998
0.999998
0.999998
0.999998
0.999998
0.999998
0.999999
0.999998
0.999998
0.999998
0.999998
0.999999
0.999998
0.999998
0.999999
0.999999
0.999999
0.999997
0.999966
0.999879
0.999731
0.989131
0.928417
0.853196
0.767648
0.668838
0.558787
0.444042
0.332593
0.231503
0.146215
0.0860486
0.0489535
0.0276533
0.0148017
0.00675822
0.00249145
1
1
0.999999
0.999998
0.999998
0.999997
0.999997
0.999997
0.999998
0.999997
0.999999
0.999998
0.999998
0.999998
0.999998
0.999998
0.999998
0.999998
0.999999
0.999999
0.999999
0.999998
0.999999
0.999998
0.999998
0.999998
0.999997
0.99996
0.99983
0.999528
0.9586
0.840221
0.696927
0.554317
0.40019
0.283364
0.188772
0.122004
0.0771537
0.048826
0.0295998
0.0172689
0.00978395
0.0052571
0.00274977
0.00147279
0.000781672
0.0003703
0.000157029
6.16475e-05
1
1
0.999998
0.999997
0.999997
0.999997
0.999997
0.999998
0.999998
0.999998
0.999998
0.999998
0.999998
0.999999
0.999999
0.999998
0.999999
0.999999
0.999999
0.999999
0.999999
0.999998
0.999998
0.999994
0.999935
0.999682
0.991665
0.81651
0.633146
0.396536
0.275014
0.099643
0.0641135
0.0368214
0.0169214
0.012376
0.00507543
0.00348686
0.00176085
0.000987578
0.000578177
0.00032547
0.000178326
9.67569e-05
5.33198e-05
3.19059e-05
1.81066e-05
1.37788e-05
1.97644e-05
8.72899e-06
1
1
0.999998
0.999997
0.999997
0.999997
0.999997
0.999998
0.999998
0.999998
0.999999
0.999999
0.999999
0.999999
0.999999
0.999999
0.999999
0.999999
0.999999
0.999999
0.999999
0.999954
0.999382
0.923596
0.759242
0.485404
0.138727
0.0264156
0.0257356
0.00541832
0.00266697
0.00077145
0.000297521
0.000153412
7.52106e-05
4.44509e-05
2.40806e-05
1.56025e-05
1.01955e-05
6.76138e-06
5.00096e-06
4.06053e-06
3.40147e-06
2.67805e-06
2.49983e-06
2.49827e-06
2.50052e-06
2.51611e-06
2.51294e-06
3.20636e-06
1
0.999999
0.999998
0.999996
0.999997
0.999997
0.999998
0.999999
0.999999
0.999999
0.999999
0.999999
0.999999
0.999999
0.999999
0.999999
0.999999
0.999999
0.999992
0.999655
0.966147
0.786791
0.221693
0.0395203
0.0282907
0.00204435
0.000792701
0.00021225
0.000109322
1.27666e-05
6.468e-06
3.83652e-06
2.68697e-06
2.58511e-06
2.53992e-06
2.57663e-06
2.96391e-06
2.84936e-06
2.65487e-06
2.62486e-06
2.60883e-06
2.50586e-06
2.5129e-06
2.53771e-06
2.49958e-06
2.49828e-06
3.20157e-06
8.2189e-06
1.36434e-05
1.39203e-05
1
0.999999
0.999997
0.999996
0.999997
0.999998
0.999998
0.999999
0.999999
0.999999
0.999999
0.999999
0.999999
0.999999
0.999998
0.999999
0.999999
0.999579
0.904776
0.389353
0.028721
0.023082
0.00174617
0.000292798
0.000163672
3.72486e-06
2.81901e-06
2.81292e-06
2.7369e-06
2.62361e-06
2.55498e-06
3.34346e-06
3.42705e-06
2.77107e-06
2.5382e-06
2.96516e-06
3.47831e-06
3.47892e-06
2.63754e-06
2.5106e-06
2.51059e-06
2.51095e-06
4.7569e-06
2.86125e-06
2.51664e-06
2.50397e-06
3.93983e-06
1.34339e-05
2.77647e-05
3.30603e-05
1
0.999999
0.999997
0.999996
0.999997
0.999998
0.999999
0.999999
0.999999
0.999999
0.999999
0.999999
0.999999
0.999999
0.999996
0.999938
0.957395
0.239669
0.0150836
0.0119997
0.000781944
0.000260542
0.000121402
3.67189e-06
3.66643e-06
3.65919e-06
4.89162e-06
2.82082e-06
2.8179e-06
3.03534e-06
2.54938e-06
2.54804e-06
3.42204e-06
2.65477e-06
2.53717e-06
2.53843e-06
3.24709e-06
3.4794e-06
3.43149e-06
2.51247e-06
2.5108e-06
2.51285e-06
6.71643e-06
7.93608e-06
4.39836e-06
2.50432e-06
2.50035e-06
2.50014e-06
2.50038e-06
8.19241e-06
1
0.999999
0.999997
0.999997
0.999998
0.999998
0.999999
1
1
1
0.999999
0.999999
0.999999
0.999999
1
0.734917
0.0227577
0.00394134
0.0024932
0.000619907
0.000362904
0.000216796
0.00011838
5.07718e-05
1.89078e-05
6.03556e-06
2.83299e-06
2.82511e-06
7.89717e-06
5.22177e-06
2.5475e-06
2.54281e-06
2.54238e-06
2.53718e-06
2.53727e-06
3.03786e-06
3.04116e-06
2.51654e-06
2.51517e-06
2.51508e-06
2.92438e-06
4.77604e-06
7.93093e-06
7.93615e-06
7.90382e-06
5.24134e-06
2.79898e-06
2.50177e-06
2.76682e-06
7.59036e-06
1
0.999999
0.999997
0.999997
0.999998
0.999998
0.999999
1
1
1
1
0.999999
0.999999
1
0.999999
0.397662
0.0560115
0.02558
0.00799995
0.00518466
0.00318558
0.00204522
0.00123705
0.000722799
0.000412374
0.000229668
0.00011756
5.42301e-05
2.44656e-05
1.2628e-05
6.86153e-06
2.82114e-06
2.54845e-06
2.54267e-06
2.53765e-06
2.53185e-06
2.52769e-06
2.52031e-06
2.70863e-06
5.23831e-06
8.51416e-06
7.99853e-06
2.43902e-06
1.98166e-06
2.94631e-06
9.93213e-06
9.94481e-06
4.67899e-06
6.36885e-06
8.32305e-06
1
0.999999
0.999997
0.999997
0.999997
0.999997
0.999998
1
1
1
1
1
1
1
1
1.00029
0.715942
0.364115
0.179931
0.101593
0.0671476
0.0497927
0.0350553
0.0241578
0.0159499
0.0102578
0.00639384
0.00383036
0.00216257
0.00114815
0.000564851
0.000253286
0.000102238
3.78613e-05
1.35384e-05
5.1109e-06
2.70463e-06
2.52636e-06
2.53037e-06
2.62622e-06
4.85484e-06
1.96728e-06
1.96695e-06
1.96682e-06
1.96673e-06
3.47154e-06
5.16728e-06
1.1398e-05
1.85091e-05
1.85127e-05
1
0.999999
0.999997
0.999997
0.999995
0.999993
0.999994
0.999996
0.999997
0.999999
1
1
1
1
1.00001
0.999995
0.99997
1.0001
0.878856
0.606899
0.450275
0.379094
0.322558
0.265994
0.212249
0.164637
0.124178
0.0912945
0.0647584
0.0442615
0.0288782
0.0177162
0.0100793
0.0052671
0.00246878
0.00100685
0.000336551
8.90803e-05
1.9246e-05
6.78533e-06
3.82995e-06
1.97262e-06
1.9732e-06
1.98453e-06
1.96339e-06
1.9634e-06
1.96749e-06
5.14055e-06
1.45457e-05
1.85092e-05
1
0.999999
0.999997
0.999996
0.99999
0.999988
0.999991
0.999993
0.999996
1
1
1.00001
1
1
1.00001
0.999996
1
1.00001
0.999969
1.00014
0.928638
0.88294
0.838635
0.782386
0.718491
0.647634
0.571675
0.493516
0.414115
0.338255
0.268157
0.204394
0.14799
0.101052
0.0642323
0.0376656
0.0197865
0.00896007
0.00336208
0.000983784
0.000210006
3.31089e-05
5.18968e-06
2.04268e-06
1.96925e-06
1.96723e-06
1.98402e-06
1.96447e-06
1.97021e-06
6.78685e-06
1
0.999999
0.999997
0.99999
0.999984
0.999985
0.99999
0.999994
0.999999
1.00001
1.00001
1.00001
1.00001
1.00001
1
0.999993
0.999992
0.99999
0.999996
0.999996
0.999986
0.999979
1.00004
0.987297
0.97532
0.960017
0.939809
0.912146
0.874566
0.824529
0.761083
0.685551
0.599209
0.504335
0.404939
0.307671
0.219759
0.143687
0.0830697
0.0408988
0.0162498
0.00484011
0.00102679
0.000153972
2.19069e-05
5.15844e-06
2.37485e-06
1.97061e-06
1.97902e-06
1.98287e-06
1
0.999999
0.999995
0.999984
0.999981
0.999987
0.999994
1
1
1
1
1.00001
1
1
0.999997
0.999994
0.999996
0.999998
0.999997
0.999998
0.999998
1
1
1
0.999999
1
1.00001
0.99999
0.999981
0.999942
0.986307
0.971525
0.950491
0.919704
0.874097
0.806538
0.714708
0.606108
0.480548
0.345582
0.219102
0.114961
0.0459237
0.0133313
0.00299247
0.000662622
0.000191964
5.98999e-05
1.95908e-05
8.3842e-06
1
0.999999
0.999992
0.99998
0.999984
0.999993
1
1
1
1
1
1
0.999999
0.999997
0.999997
0.999996
0.999997
0.999996
0.999996
0.999996
0.999996
0.999997
0.999998
0.999998
0.999998
0.999998
0.999998
0.999999
0.999999
1
1
1
1
1
1
0.999793
0.979882
0.952017
0.914613
0.845652
0.729959
0.568619
0.372313
0.191966
0.074848
0.0234636
0.00777519
0.0028688
0.00100058
0.000312992
0.726168
0.450526
0.24567
0.11067
0.0345126
0.00717963
0.000903793
8.0473e-05
4.60138e-06
1.59153e-07
7.84905e-08
2.43872e-08
7.79539e-10
1.52169e-11
1.82588e-13
1.16809e-15
4.36362e-17
5.55891e-17
7.65177e-17
1.02317e-16
1.31584e-16
1.62414e-16
1.92773e-16
2.20752e-16
2.44744e-16
2.63536e-16
2.76363e-16
2.82907e-16
2.83268e-16
2.77899e-16
2.67525e-16
2.53052e-16
2.35471e-16
2.15787e-16
1.9494e-16
1.73768e-16
1.52968e-16
1.33089e-16
1.14531e-16
9.75541e-17
8.22995e-17
6.88095e-17
5.70495e-17
4.69297e-17
3.8323e-17
3.10811e-17
2.5047e-17
2.0064e-17
1.59826e-17
1.26649e-17
0.990204
0.919526
0.758937
0.500885
0.186986
0.0342774
0.00309645
0.000182434
8.2103e-06
1.96132e-07
8.18103e-08
2.28431e-08
1.27129e-09
2.95605e-11
4.09965e-13
3.05449e-15
1.2205e-16
1.63858e-16
2.35701e-16
3.27649e-16
4.38868e-16
5.66851e-16
7.08019e-16
8.58308e-16
1.01365e-15
1.17036e-15
1.32545e-15
1.47681e-15
1.62333e-15
1.76493e-15
1.9025e-15
2.03777e-15
2.17316e-15
2.31154e-15
2.45607e-15
2.60999e-15
2.77646e-15
2.95842e-15
3.1585e-15
3.37893e-15
3.62153e-15
3.88771e-15
4.1785e-15
4.49452e-15
4.83611e-15
5.20328e-15
5.5958e-15
6.01317e-15
6.45466e-15
6.91929e-15
0.939168
0.84666
0.675899
0.506162
0.201727
0.029591
0.00160692
2.28668e-05
3.43497e-06
9.76668e-08
5.87791e-08
1.55229e-08
1.13919e-09
3.0852e-11
4.84128e-13
4.16167e-15
2.63412e-16
3.63863e-16
5.22949e-16
7.2922e-16
9.85784e-16
1.29319e-15
1.64995e-15
2.05316e-15
2.49918e-15
2.98425e-15
3.50504e-15
4.05912e-15
4.64536e-15
5.26423e-15
5.91789e-15
6.61032e-15
7.3472e-15
8.13575e-15
8.98452e-15
9.90314e-15
1.0902e-14
1.1992e-14
1.31842e-14
1.44898e-14
1.59197e-14
1.74844e-14
1.91941e-14
2.10585e-14
2.30866e-14
2.52871e-14
2.76681e-14
3.02372e-14
3.30015e-14
3.59676e-14
0.527865
0.343804
0.125982
0.0294206
0.00550629
0.000657042
0.000131597
2.19426e-06
3.90468e-07
7.0846e-08
3.68732e-08
9.42572e-09
8.33616e-10
2.6246e-11
4.6672e-13
4.69939e-15
4.8228e-16
6.68448e-16
9.47459e-16
1.31048e-15
1.76816e-15
2.32861e-15
2.99754e-15
3.77873e-15
4.67464e-15
5.68706e-15
6.81778e-15
8.06928e-15
9.44536e-15
1.09517e-14
1.25963e-14
1.43901e-14
1.63467e-14
1.84833e-14
2.08197e-14
2.33791e-14
2.61873e-14
2.92729e-14
3.26668e-14
3.64017e-14
4.05123e-14
4.50348e-14
5.00063e-14
5.54653e-14
6.1451e-14
6.80032e-14
7.51627e-14
8.29708e-14
9.14692e-14
1.007e-13
0.0348551
0.0129643
0.00407013
0.000875894
0.00013997
5.73679e-05
3.56765e-06
1.93771e-07
1.98436e-07
4.82218e-08
2.2671e-08
5.71785e-09
5.86976e-10
2.17482e-11
4.45713e-13
5.36671e-15
7.46214e-16
1.0212e-15
1.42529e-15
1.95131e-15
2.61981e-15
3.44995e-15
4.45921e-15
5.66351e-15
7.07757e-15
8.7154e-15
1.05909e-14
1.27187e-14
1.51144e-14
1.77962e-14
2.07849e-14
2.41047e-14
2.77843e-14
3.18572e-14
3.6362e-14
4.13429e-14
4.685e-14
5.29392e-14
5.96726e-14
6.71179e-14
7.53493e-14
8.44461e-14
9.44938e-14
1.05583e-13
1.1781e-13
1.31276e-13
1.46088e-13
1.62357e-13
1.80201e-13
1.99741e-13
0.000819382
0.0002955
9.721e-05
6.5245e-05
9.175e-06
2.01184e-06
1.74895e-07
1.69213e-07
1.2138e-07
3.57161e-08
1.58621e-08
4.06848e-09
4.86415e-10
2.21901e-11
5.52314e-13
8.12095e-15
9.4952e-16
1.25572e-15
1.73594e-15
2.3621e-15
3.16379e-15
4.1716e-15
5.4163e-15
6.92857e-15
8.73904e-15
1.08785e-14
1.33782e-14
1.62706e-14
1.95898e-14
2.33723e-14
2.7658e-14
3.2491e-14
3.79206e-14
4.40021e-14
5.07978e-14
5.83779e-14
6.68214e-14
7.62165e-14
8.66616e-14
9.82657e-14
1.11149e-13
1.25443e-13
1.41292e-13
1.58851e-13
1.78289e-13
1.99787e-13
2.2354e-13
2.49755e-13
2.78654e-13
3.10469e-13
3.85192e-05
4.28076e-05
4.02391e-06
1.42251e-06
7.68982e-07
2.2525e-07
1.92659e-07
1.60899e-07
1.02169e-07
3.44487e-08
1.56524e-08
4.41681e-09
6.69063e-10
4.43312e-11
1.6569e-12
3.78642e-14
1.38935e-15
1.20513e-15
1.66286e-15
2.26794e-15
3.04906e-15
4.04338e-15
5.29091e-15
6.8341e-15
8.71751e-15
1.09877e-14
1.36934e-14
1.68857e-14
2.06185e-14
2.4949e-14
2.99384e-14
3.5653e-14
4.21648e-14
4.95526e-14
5.79034e-14
6.73133e-14
7.78891e-14
8.9749e-14
1.03024e-13
1.17861e-13
1.34419e-13
1.52877e-13
1.73429e-13
1.96289e-13
2.21691e-13
2.49888e-13
2.81153e-13
3.15781e-13
3.54082e-13
3.96385e-13
9.34169e-06
3.92167e-05
2.38797e-05
7.61934e-06
1.10135e-06
3.80136e-07
2.16023e-07
2.01875e-07
1.44988e-07
7.46121e-08
3.86598e-08
1.81258e-08
7.81563e-09
3.299e-09
1.41066e-09
6.10312e-10
2.65261e-10
1.15029e-10
4.94682e-11
2.09859e-11
8.7425e-12
3.56302e-12
1.417e-12
5.50082e-13
2.10383e-13
8.23433e-14
3.68952e-14
2.28178e-14
2.04782e-14
2.26538e-14
2.68266e-14
3.21955e-14
3.8563e-14
4.59375e-14
5.43987e-14
6.40548e-14
7.50306e-14
8.74643e-14
1.01508e-13
1.17331e-13
1.35117e-13
1.5507e-13
1.77414e-13
2.02396e-13
2.30288e-13
2.61387e-13
2.9602e-13
3.34545e-13
3.77354e-13
4.24866e-13
1.0326e-05
1.30461e-05
1.51887e-05
1.90425e-05
1.86013e-05
9.53733e-06
2.37464e-06
3.06962e-07
2.09903e-07
1.27613e-07
9.38624e-08
6.46486e-08
4.2732e-08
2.76167e-08
1.76452e-08
1.12054e-08
7.0886e-09
4.46994e-09
2.80893e-09
1.75778e-09
1.09438e-09
6.77221e-10
4.16159e-10
2.53749e-10
1.53414e-10
9.19133e-11
5.45393e-11
3.2036e-11
1.86193e-11
1.07037e-11
6.08553e-12
3.42358e-12
1.9094e-12
1.06094e-12
5.93983e-13
3.43041e-13
2.13005e-13
1.50009e-13
1.24027e-13
1.18625e-13
1.25002e-13
1.38585e-13
1.57104e-13
1.79529e-13
2.05493e-13
2.34988e-13
2.68201e-13
3.05441e-13
3.47095e-13
3.93612e-13
2.28456e-05
3.31896e-05
1.47164e-05
1.72195e-05
3.54515e-05
3.56916e-05
3.57681e-05
2.29146e-05
8.8152e-06
2.56057e-06
3.1118e-07
1.75836e-07
1.07765e-07
7.42403e-08
5.81742e-08
4.39957e-08
3.26048e-08
2.38322e-08
1.72274e-08
1.23448e-08
8.79206e-09
6.23998e-09
4.42362e-09
3.13833e-09
2.23111e-09
1.59048e-09
1.13678e-09
8.1397e-10
5.83052e-10
4.17079e-10
2.97416e-10
2.11077e-10
1.48894e-10
1.04295e-10
7.24968e-11
4.99922e-11
3.4195e-11
2.32027e-11
1.56228e-11
1.04443e-11
6.93995e-12
4.59193e-12
3.03546e-12
2.01616e-12
1.35849e-12
9.42531e-13
6.87212e-13
5.38297e-13
4.59912e-13
4.28619e-13
3.3214e-05
3.32137e-05
3.32141e-05
3.31372e-05
1.84617e-05
7.52257e-06
5.41528e-06
9.78171e-06
2.24371e-05
2.24813e-05
2.1766e-05
1.03174e-05
2.6914e-06
3.93293e-07
6.89641e-08
7.83183e-08
6.99517e-08
5.92372e-08
4.97952e-08
4.07382e-08
3.06649e-08
1.86577e-08
1.07455e-08
8.22003e-09
8.19476e-09
7.71632e-09
6.949e-09
6.04863e-09
5.11473e-09
4.2181e-09
3.40549e-09
2.70173e-09
2.11388e-09
1.63664e-09
1.2575e-09
9.6097e-10
7.31486e-10
5.55068e-10
4.19983e-10
3.16809e-10
2.38167e-10
1.78357e-10
1.32996e-10
9.87141e-11
7.29136e-11
5.35895e-11
3.91928e-11
2.85284e-11
2.06766e-11
1.49326e-11
3.16714e-05
3.32141e-05
3.10045e-05
1.22423e-05
2.07053e-06
1.51622e-06
1.51673e-06
1.51963e-06
2.00442e-06
5.43155e-06
2.17089e-05
1.62751e-05
6.63057e-06
1.3107e-06
1.18224e-07
1.0326e-07
9.81917e-08
9.39471e-08
8.98248e-08
8.80695e-08
9.97585e-08
3.07314e-07
4.05018e-07
2.21636e-07
4.36781e-08
3.39943e-08
2.7614e-08
2.24285e-08
1.86461e-08
1.57501e-08
1.33597e-08
1.13089e-08
9.52914e-09
7.98741e-09
6.6612e-09
5.52959e-09
4.57077e-09
3.76251e-09
3.08358e-09
2.51488e-09
2.03998e-09
1.6451e-09
1.31867e-09
1.05078e-09
8.32785e-10
6.56926e-10
5.16237e-10
4.04507e-10
3.16298e-10
2.46956e-10
3.01568e-05
1.73822e-05
7.0839e-06
2.43729e-06
1.51632e-06
1.51335e-06
1.51418e-06
1.51586e-06
1.51198e-06
1.51613e-06
6.97806e-06
1.1578e-05
4.9022e-06
9.942e-07
1.21287e-07
1.2263e-07
1.27244e-07
1.25142e-07
1.16198e-07
1.03314e-07
1.52379e-07
3.89276e-06
9.49204e-06
4.13298e-06
7.87887e-07
5.76712e-08
4.00504e-08
3.54957e-08
3.26756e-08
2.95132e-08
2.54504e-08
1.89986e-08
1.45106e-08
1.22887e-08
1.08277e-08
1.01255e-08
9.54188e-09
8.84311e-09
8.10372e-09
7.3593e-09
6.63785e-09
5.95541e-09
5.31889e-09
4.7293e-09
4.18432e-09
3.68042e-09
3.21443e-09
2.78439e-09
2.38969e-09
2.03074e-09
1.05499e-05
1.38223e-05
9.63852e-06
5.14345e-06
1.78747e-06
1.51291e-06
1.51403e-06
1.86064e-06
1.52535e-06
1.52458e-06
1.53045e-06
2.10962e-06
9.12263e-06
1.45615e-05
1.45419e-05
8.72824e-06
1.69621e-06
7.11327e-07
2.57809e-06
1.33794e-05
3.38357e-05
2.95329e-05
1.1233e-05
2.22803e-06
2.43438e-07
5.69712e-08
5.40217e-08
5.1701e-08
5.04595e-08
5.44769e-08
8.05548e-08
1.51396e-06
7.78252e-06
5.09312e-06
1.32714e-06
9.49601e-08
2.6179e-08
2.01524e-08
1.71221e-08
1.57108e-08
1.46442e-08
1.37558e-08
1.29721e-08
1.22363e-08
1.15104e-08
1.07701e-08
1.00022e-08
9.20352e-09
8.37978e-09
7.54366e-09
1.77329e-05
4.85395e-06
1.43016e-06
1.34284e-06
1.43359e-06
1.51199e-06
1.60464e-06
2.15512e-06
3.3895e-06
3.94323e-06
5.88187e-06
7.67552e-06
1.45579e-05
1.45439e-05
1.45618e-05
1.12119e-05
3.79775e-06
1.04065e-06
1.55316e-06
6.42186e-06
3.33551e-05
3.82131e-05
3.81417e-05
2.58879e-05
6.21515e-06
6.11584e-07
4.0412e-07
1.36491e-06
5.39236e-06
3.0018e-05
7.37893e-05
7.4217e-05
7.42244e-05
4.57835e-05
1.05971e-05
1.0141e-06
5.49777e-08
4.28094e-08
3.71416e-08
3.24823e-08
3.02335e-08
2.87899e-08
2.74687e-08
2.62029e-08
2.4927e-08
2.36146e-08
2.22509e-08
2.08306e-08
1.93583e-08
1.7848e-08
1.7635e-05
5.53166e-06
1.75801e-06
1.34159e-06
1.34232e-06
1.38485e-06
2.00264e-06
1.99823e-06
2.53152e-06
2.94382e-06
3.72435e-06
3.8692e-06
1.34551e-05
1.01327e-05
5.72351e-06
2.84831e-06
1.70949e-06
1.28803e-06
1.16196e-06
9.71753e-07
1.12652e-06
3.11048e-06
2.54166e-05
1.53569e-05
4.70598e-06
8.38085e-07
5.13606e-07
1.15395e-06
3.1089e-06
7.3554e-06
1.72018e-05
4.93747e-05
7.42154e-05
7.42218e-05
7.16827e-05
7.42011e-05
7.41915e-05
5.6235e-05
1.75106e-05
2.07296e-06
7.93359e-08
3.65726e-08
3.74879e-08
3.71026e-08
3.6735e-08
3.58542e-08
3.44723e-08
3.25554e-08
2.9768e-08
2.55428e-08
1.43009e-05
7.06028e-06
2.23956e-06
1.34043e-06
1.41429e-06
1.75734e-06
4.00889e-06
4.55626e-06
2.9189e-06
2.90038e-06
2.92264e-06
3.05954e-06
5.46083e-06
8.72801e-06
5.32501e-06
3.33467e-06
1.95399e-06
1.11471e-06
6.87979e-07
7.60397e-07
1.32057e-06
3.25545e-06
1.80574e-05
1.02682e-05
3.13607e-06
9.94875e-07
7.10301e-07
7.14989e-07
7.14257e-07
7.15181e-07
8.38921e-07
3.88156e-06
5.50516e-06
4.961e-06
7.26976e-06
6.98939e-05
5.66165e-05
2.42549e-05
5.20881e-06
4.5798e-07
5.28899e-08
4.79834e-08
4.92432e-08
5.03598e-08
5.04523e-08
4.96003e-08
4.77821e-08
4.56919e-08
1.41113e-07
1.98384e-05
3.0566e-06
3.66254e-06
1.23689e-06
1.24004e-06
1.29482e-06
1.86608e-06
4.67191e-06
7.93867e-06
7.52796e-06
7.01147e-06
6.72411e-06
4.96178e-06
4.72297e-06
4.96195e-06
7.15921e-06
7.14982e-06
3.74567e-06
1.37387e-06
6.88344e-07
9.33007e-07
3.53472e-06
6.57544e-06
6.44845e-06
2.59571e-06
9.23678e-07
9.21671e-07
1.68809e-06
1.96108e-06
1.95386e-06
1.23243e-06
3.2154e-07
3.03617e-07
3.0456e-07
3.0421e-07
3.05494e-07
3.924e-06
1.44603e-05
7.21964e-06
1.45151e-06
1.02459e-07
7.45016e-08
7.0258e-08
7.03567e-08
6.90133e-08
6.61509e-08
6.43669e-08
1.78528e-07
2.51994e-06
1.9704e-05
2.46245e-05
3.50735e-06
1.34694e-06
1.24077e-06
1.24149e-06
1.24248e-06
1.52774e-06
5.8582e-06
1.01296e-05
1.01551e-05
8.90151e-06
4.21491e-06
4.27974e-06
6.09323e-06
7.43698e-06
5.8e-06
2.36786e-06
1.57022e-06
1.22152e-06
6.89845e-07
9.01983e-07
1.44351e-06
1.65713e-06
8.83498e-07
8.49296e-07
1.31118e-06
1.32174e-06
9.41179e-07
7.326e-07
6.01138e-07
3.79273e-07
3.15653e-07
3.15084e-07
5.32511e-07
6.599e-07
7.75878e-07
1.04042e-06
2.71359e-06
5.04507e-06
5.0231e-06
4.98994e-06
4.49677e-06
1.99845e-06
2.61978e-07
2.7011e-07
1.5536e-06
7.21106e-06
8.95171e-06
9.07087e-06
7.81059e-06
4.60415e-06
8.82127e-05
2.301e-05
5.72877e-06
1.94621e-06
1.24642e-06
2.08498e-06
7.26199e-06
1.01552e-05
7.99432e-06
2.30148e-06
2.17474e-06
6.82575e-06
9.32517e-06
3.9768e-06
3.13793e-07
2.7115e-07
2.71388e-07
2.82916e-07
1.23822e-06
4.03018e-06
4.24495e-06
1.18138e-06
2.04671e-07
1.96996e-07
2.02799e-07
5.96955e-07
1.85657e-06
2.44765e-06
9.59675e-07
3.86607e-07
8.28259e-07
2.27759e-06
4.0962e-06
4.1058e-06
3.87504e-06
1.18253e-06
4.49576e-07
4.83958e-07
8.51775e-07
3.46959e-06
6.86745e-06
9.0861e-06
9.10402e-06
9.09652e-06
6.37036e-06
2.79156e-06
1.69636e-06
1.6933e-06
2.53832e-06
9.21696e-06
9.98662e-18
8.82311e-18
7.78312e-18
6.85527e-18
6.02897e-18
5.29442e-18
4.64257e-18
4.06512e-18
3.55444e-18
3.10355e-18
2.7061e-18
2.35633e-18
2.049e-18
1.77938e-18
1.54321e-18
1.33665e-18
1.15625e-18
9.98935e-19
8.61942e-19
7.42818e-19
6.39376e-19
5.49675e-19
4.71994e-19
4.04813e-19
3.46789e-19
2.96739e-19
2.53621e-19
2.16523e-19
1.84644e-19
1.57283e-19
1.33828e-19
1.13746e-19
9.65725e-20
8.19026e-20
6.93863e-20
5.87197e-20
4.96397e-20
4.19191e-20
3.53618e-20
2.97986e-20
2.50841e-20
2.10932e-20
1.77186e-20
1.48682e-20
1.24632e-20
1.04362e-20
8.72971e-21
7.29453e-21
6.08887e-21
5.0771e-21
4.22898e-21
3.51879e-21
2.92475e-21
2.42839e-21
2.01412e-21
1.66872e-21
1.38106e-21
1.14175e-21
9.42878e-22
7.77795e-22
6.40909e-22
5.2753e-22
4.33725e-22
3.56201e-22
2.92204e-22
2.39434e-22
1.9597e-22
1.60212e-22
1.30827e-22
1.06708e-22
8.69328e-23
7.0739e-23
5.74934e-23
4.6672e-23
3.78417e-23
3.06449e-23
2.47863e-23
2.0023e-23
1.6155e-23
1.30179e-23
1.04767e-23
8.42081e-24
6.75967e-24
5.41918e-24
4.33884e-24
3.46929e-24
2.77032e-24
2.20921e-24
1.75936e-24
1.3992e-24
1.11123e-24
8.81303e-25
6.97969e-25
5.51991e-25
4.3592e-25
3.43759e-25
2.70689e-25
2.12837e-25
1.67101e-25
1.30998e-25
1.02539e-25
8.01409e-26
6.25389e-26
4.87271e-26
3.79062e-26
2.94417e-26
2.28307e-26
1.76757e-26
1.36623e-26
1.05428e-26
8.12206e-27
6.24663e-27
4.7961e-27
3.67608e-27
2.81273e-27
2.14837e-27
1.63803e-27
1.24668e-27
9.47111e-28
7.18208e-28
5.43618e-28
4.10698e-28
3.09689e-28
2.33075e-28
1.75073e-28
1.31247e-28
9.81957e-29
7.33196e-29
5.46336e-29
4.06258e-29
3.01463e-29
2.23225e-29
1.64938e-29
1.21605e-29
8.94585e-30
6.56637e-30
4.80897e-30
3.51399e-30
2.5622e-30
1.86498e-30
1.35736e-30
9.93743e-31
7.4715e-31
6.14988e-31
6.38946e-31
9.57951e-31
1.93981e-30
4.49932e-30
1.08547e-29
2.63026e-29
6.33349e-29
1.51074e-28
3.56647e-28
8.33047e-28
1.92506e-27
4.40091e-27
9.95301e-27
2.22674e-26
4.92805e-26
1.07885e-25
2.33621e-25
5.00397e-25
1.06012e-24
2.22132e-24
4.60333e-24
9.4344e-24
1.91214e-23
3.83237e-23
7.59512e-23
1.48833e-22
2.88364e-22
5.52372e-22
1.04605e-21
1.95827e-21
3.62386e-21
6.62866e-21
1.19842e-20
2.14142e-20
3.78165e-20
6.59969e-20
1.13818e-19
1.93966e-19
3.26626e-19
5.43469e-19
8.93485e-19
1.45138e-18
2.32945e-18
3.69406e-18
5.78817e-18
8.96138e-18
1.37095e-17
2.07255e-17
3.09636e-17
4.57189e-17
6.67238e-17
9.62611e-17
1.37297e-16
1.93626e-16
2.7004e-16
3.72495e-16
5.08295e-16
6.86268e-16
9.16949e-16
1.21274e-15
1.58807e-15
2.05953e-15
2.64603e-15
3.3689e-15
4.25171e-15
5.31984e-15
6.55607e-15
7.92338e-15
9.40246e-15
1.09726e-14
1.26111e-14
1.42943e-14
1.59982e-14
1.76992e-14
1.93745e-14
2.1003e-14
2.2565e-14
2.40427e-14
2.54204e-14
2.66839e-14
2.78213e-14
2.8822e-14
2.96775e-14
3.03805e-14
3.09253e-14
3.13077e-14
3.15246e-14
3.15747e-14
3.14579e-14
3.11755e-14
3.07308e-14
3.01284e-14
2.9375e-14
2.8479e-14
2.74509e-14
2.63031e-14
2.50496e-14
2.37064e-14
2.22906e-14
2.08207e-14
1.93156e-14
1.77948e-14
1.62772e-14
1.47813e-14
1.33244e-14
1.19219e-14
1.05874e-14
9.33203e-15
8.16437e-15
7.0903e-15
6.11307e-15
5.23338e-15
4.44965e-15
3.75834e-15
3.15429e-15
2.63119e-15
2.18192e-15
1.799e-15
1.47487e-15
1.2022e-15
9.74116e-16
7.84307e-16
6.27127e-16
4.97613e-16
3.91462e-16
3.04984e-16
2.35029e-16
1.78913e-16
1.34349e-16
9.93725e-17
7.22965e-17
5.16634e-17
3.62162e-17
2.48768e-17
1.67299e-17
1.10106e-17
7.09246e-18
4.47529e-18
2.77104e-18
1.68826e-18
1.01567e-18
6.0569e-19
3.59188e-19
2.12079e-19
1.24425e-19
7.21111e-20
4.08882e-20
2.23974e-20
1.1676e-20
5.6948e-21
2.5481e-21
1.02133e-21
3.55322e-22
1.02248e-22
2.22206e-23
2.836e-24
7.40583e-15
7.68061e-15
7.96241e-15
8.251e-15
8.54612e-15
8.84746e-15
9.15469e-15
9.46742e-15
9.78524e-15
1.01077e-14
1.04342e-14
1.07642e-14
1.10972e-14
1.14325e-14
1.17694e-14
1.21071e-14
1.24449e-14
1.27819e-14
1.31173e-14
1.34501e-14
1.37796e-14
1.41046e-14
1.44243e-14
1.47375e-14
1.50434e-14
1.53409e-14
1.5629e-14
1.59066e-14
1.61728e-14
1.64265e-14
1.66668e-14
1.68926e-14
1.71032e-14
1.72975e-14
1.74748e-14
1.76342e-14
1.7775e-14
1.78964e-14
1.7998e-14
1.80791e-14
1.81391e-14
1.81778e-14
1.81947e-14
1.81896e-14
1.81623e-14
1.81128e-14
1.80409e-14
1.79469e-14
1.78309e-14
1.76931e-14
1.7534e-14
1.73538e-14
1.71533e-14
1.69329e-14
1.66933e-14
1.64354e-14
1.61599e-14
1.58676e-14
1.55597e-14
1.5237e-14
1.49007e-14
1.45517e-14
1.41913e-14
1.38206e-14
1.34407e-14
1.30529e-14
1.26584e-14
1.22583e-14
1.18539e-14
1.14464e-14
1.10368e-14
1.06264e-14
1.02163e-14
9.80757e-15
9.40125e-15
8.99833e-15
8.59978e-15
8.20649e-15
7.81933e-15
7.43908e-15
7.06646e-15
6.70216e-15
6.34678e-15
6.00087e-15
5.66491e-15
5.3393e-15
5.02442e-15
4.72055e-15
4.42793e-15
4.14672e-15
3.87704e-15
3.61896e-15
3.37249e-15
3.13758e-15
2.91416e-15
2.70209e-15
2.50121e-15
2.31131e-15
2.13216e-15
1.9635e-15
1.80503e-15
1.65643e-15
1.51739e-15
1.38755e-15
1.26654e-15
1.154e-15
1.04954e-15
9.52798e-16
8.63373e-16
7.80887e-16
7.04958e-16
6.35211e-16
5.71275e-16
5.12789e-16
4.59401e-16
4.10769e-16
3.66564e-16
3.26468e-16
2.90177e-16
2.574e-16
2.27862e-16
2.013e-16
1.77467e-16
1.56129e-16
1.37067e-16
1.20077e-16
1.04967e-16
9.15603e-17
7.96911e-17
6.92076e-17
5.99692e-17
5.18472e-17
4.47233e-17
3.84896e-17
3.3048e-17
2.83092e-17
2.41925e-17
2.0625e-17
1.7541e-17
1.48817e-17
1.25943e-17
1.06319e-17
8.95257e-18
7.51922e-18
6.29903e-18
5.26304e-18
4.3858e-18
3.645e-18
3.02111e-18
2.49714e-18
2.05832e-18
1.69184e-18
1.38666e-18
1.13325e-18
9.23451e-19
7.50266e-19
6.07736e-19
4.90789e-19
3.95129e-19
3.17123e-19
2.53716e-19
2.02342e-19
1.60857e-19
1.27479e-19
1.00738e-19
7.94368e-20
6.26326e-20
4.96369e-20
4.00579e-20
3.39096e-20
3.18441e-20
3.56002e-20
4.88393e-20
7.86582e-20
1.38272e-19
2.51689e-19
4.61714e-19
8.43422e-19
1.52646e-18
2.73134e-18
4.82734e-18
8.42343e-18
1.45082e-17
2.46607e-17
4.13629e-17
6.84513e-17
1.11757e-16
1.79992e-16
2.85945e-16
4.4806e-16
6.92458e-16
1.05545e-15
1.58661e-15
2.35226e-15
3.43957e-15
4.96074e-15
7.0575e-15
9.9052e-15
1.37165e-14
1.87441e-14
2.52822e-14
3.3666e-14
4.42703e-14
5.75055e-14
7.38127e-14
9.36584e-14
1.17528e-13
1.4591e-13
1.79259e-13
2.17919e-13
2.59677e-13
3.03216e-13
3.47776e-13
3.9269e-13
4.37349e-13
4.81199e-13
5.23746e-13
5.64557e-13
6.03261e-13
6.39546e-13
6.73153e-13
7.03876e-13
7.31554e-13
7.56065e-13
7.7732e-13
7.95259e-13
8.09847e-13
8.21063e-13
8.28906e-13
8.33384e-13
8.34517e-13
8.32333e-13
8.26871e-13
8.18181e-13
8.06329e-13
7.91392e-13
7.7347e-13
7.52686e-13
7.29187e-13
7.03149e-13
6.74782e-13
6.44324e-13
6.12048e-13
5.78258e-13
5.43282e-13
5.07474e-13
4.71201e-13
4.34842e-13
3.98772e-13
3.63358e-13
3.28944e-13
2.95846e-13
2.64342e-13
2.3466e-13
2.06978e-13
1.81421e-13
1.58056e-13
1.36896e-13
1.17908e-13
1.01014e-13
8.6103e-14
7.30371e-14
6.16619e-14
5.18144e-14
4.33309e-14
3.60527e-14
2.98312e-14
2.45308e-14
2.00305e-14
1.62243e-14
1.30203e-14
1.0339e-14
8.11214e-15
6.27987e-15
4.78944e-15
3.59344e-15
2.64875e-15
1.91583e-15
1.35847e-15
9.43782e-16
6.42392e-16
4.28669e-16
2.80875e-16
1.81173e-16
1.1545e-16
7.29761e-17
4.5927e-17
2.88361e-17
1.80438e-17
1.11961e-17
6.82692e-18
4.04024e-18
2.28605e-18
1.21554e-18
5.9546e-19
2.62453e-19
1.00928e-19
3.23387e-20
7.91225e-21
1.15737e-21
3.91413e-14
4.09773e-14
4.28881e-14
4.48755e-14
4.69413e-14
4.90874e-14
5.13155e-14
5.36276e-14
5.60254e-14
5.85105e-14
6.10847e-14
6.37496e-14
6.65066e-14
6.93574e-14
7.23032e-14
7.53454e-14
7.84853e-14
8.1724e-14
8.50626e-14
8.85023e-14
9.20438e-14
9.56882e-14
9.94363e-14
1.03289e-13
1.07247e-13
1.1131e-13
1.15481e-13
1.19759e-13
1.24145e-13
1.2864e-13
1.33245e-13
1.37962e-13
1.4279e-13
1.47731e-13
1.52788e-13
1.5796e-13
1.63251e-13
1.68662e-13
1.74195e-13
1.79854e-13
1.85641e-13
1.91559e-13
1.97612e-13
2.03805e-13
2.10141e-13
2.16625e-13
2.23263e-13
2.30061e-13
2.37025e-13
2.44161e-13
2.51477e-13
2.58981e-13
2.66681e-13
2.74586e-13
2.82705e-13
2.91048e-13
2.99626e-13
3.08449e-13
3.1753e-13
3.26879e-13
3.3651e-13
3.46435e-13
3.56669e-13
3.67224e-13
3.78116e-13
3.89358e-13
4.00968e-13
4.12959e-13
4.25348e-13
4.38152e-13
4.51387e-13
4.65069e-13
4.79217e-13
4.93846e-13
5.08976e-13
5.24623e-13
5.40806e-13
5.57542e-13
5.7485e-13
5.92747e-13
6.11252e-13
6.30383e-13
6.50158e-13
6.70594e-13
6.9171e-13
7.13522e-13
7.36049e-13
7.59307e-13
7.83312e-13
8.08082e-13
8.33632e-13
8.59977e-13
8.8713e-13
9.15107e-13
9.4392e-13
9.73579e-13
1.0041e-12
1.03548e-12
1.06774e-12
1.10088e-12
1.13491e-12
1.16982e-12
1.20562e-12
1.2423e-12
1.27986e-12