/*--------------------------------*- C++ -*----------------------------------*\
| =========                 |                                                 |
| \\      /  F ield         | OpenFOAM: The Open Source CFD Toolbox           |
|  \\    /   O peration     | Version:  2.4.0                                 |
|   \\  /    A nd           | Web:      www.OpenFOAM.org                      |
|    \\/     M anipulation  |                                                 |
\*---------------------------------------------------------------------------*/
FoamFile
{
    version     2.0;
    format      ascii;
    class       volScalarField;
    location    "4.5";
    object      H;
}
// * * * * * * * * * * * * * * * * * * * * * * * * * * * * * * * * * * * * * //

dimensions      [0 2 -2 0 0 0 0];

internalField   nonuniform List<scalar> 
8000
(
-11921.4
-11304.2
-10688
-10074.5
-9466.59
-8867.67
-8281.42
-7711.59
-7161.69
-6634.81
-6133.5
-5659.62
-5214.33
-4798.14
-4410.91
-4051.99
-3720.28
-3414.4
-3132.72
-2873.54
-2635.09
-2415.65
-2213.59
-2027.36
-1855.53
-1696.83
-1550.08
-1414.22
-1288.32
-1171.51
-1063.01
-962.113
-868.303
-781.029
-699.765
-624.068
-553.534
-487.806
-426.565
-369.536
-316.474
-267.156
-221.386
-179.007
-139.874
-103.727
-69.9057
-36.553
-0.306665
-0.0288134
-11923.5
-11311.7
-10703.4
-10101.7
-9509.82
-8931.13
-8368.99
-7826.48
-7306.25
-6810.42
-6340.48
-5897.28
-5481.05
-5091.49
-4727.82
-4388.9
-4073.37
-3779.68
-3506.27
-3251.55
-3014.02
-2792.28
-2585.03
-2391.11
-2209.49
-2039.25
-1879.56
-1729.7
-1589
-1456.89
-1332.83
-1216.31
-1106.89
-1004.14
-907.67
-817.107
-732.101
-652.324
-577.487
-507.349
-441.696
-380.282
-322.846
-269.205
-219.365
-173.443
-131.242
-92.3262
-57.452
-27.4812
-11942.5
-11369.2
-10800.7
-10240.1
-9690.89
-9155.86
-8637.68
-8138.53
-7660.04
-7203.29
-6768.83
-6356.7
-5966.49
-5597.47
-5248.66
-4918.91
-4607.02
-4311.77
-4032.02
-3766.7
-3514.84
-3275.62
-3048.29
-2832.23
-2626.88
-2431.74
-2246.37
-2070.36
-1903.35
-1744.99
-1594.95
-1452.91
-1318.54
-1191.52
-1071.54
-958.32
-851.474
-750.605
-655.49
-566.237
-483.059
-405.491
-332.65
-264.278
-201.717
-147.566
-99.2503
-52.8762
-11.5545
-0.0812208
-11965.6
-11438.4
-10916
-10401.3
-9896.9
-9405.1
-8927.6
-8465.69
-8020.16
-7591.34
-7179.21
-6783.41
-6403.37
-6038.37
-5687.65
-5350.44
-5026.04
-4713.82
-4413.27
-4123.99
-3845.64
-3578.02
-3320.94
-3074.27
-2837.89
-2611.69
-2395.52
-2189.2
-1992.6
-1805.61
-1628.18
-1460.15
-1301.17
-1151.07
-1010.09
-878.363
-754.591
-637.238
-525.872
-423.376
-335.052
-255.04
-175.811
-94.0852
-19.704
-0.155448
-0.00574391
-0.00255359
-0.000616033
-0.00105283
-11983.3
-11491.3
-11002.8
-10519.9
-10044.5
-9577.86
-9121.09
-8674.85
-8239.48
-7815.1
-7401.61
-6998.82
-6606.49
-6224.37
-5852.29
-5490.15
-5137.91
-4795.64
-4463.47
-4141.57
-3830.15
-3529.44
-3239.64
-2960.94
-2693.48
-2437.36
-2192.62
-1959.26
-1737.28
-1527.03
-1329.04
-1142.45
-965.135
-797.621
-645.948
-515.082
-391.353
-264.067
-129.571
-11.5863
-0.118541
-0.0129065
-0.00861918
-0.00488932
-0.00115396
-0.00176227
-0.00271047
-0.00484357
-0.00779858
-0.0116512
-11989.4
-11508.9
-11030.3
-10554.7
-10083.3
-9616.65
-9155.54
-8700.43
-8251.72
-7809.75
-7374.82
-6947.26
-6527.43
-6115.71
-5712.54
-5318.37
-4933.66
-4558.88
-4194.46
-3840.81
-3498.29
-3167.24
-2847.94
-2540.66
-2245.5
-1962.47
-1691.63
-1433
-1185.62
-953.114
-745.677
-552.624
-349.285
-138.907
-1.30751
-0.0361111
-0.0193153
-0.0138429
-0.00744422
-0.000855756
-0.00462298
-0.00583295
-0.00762091
-0.0103241
-0.0137681
-0.0176554
-0.021582
-0.0250955
-0.0277892
-0.0298612
-11983.9
-11491.9
-11000.9
-10511.5
-10024.1
-9539.37
-9057.88
-8580.23
-8107.06
-7639.02
-7176.79
-6721.02
-6272.35
-5831.41
-5398.74
-4974.87
-4560.24
-4155.25
-3760.25
-3375.58
-3001.57
-2638.62
-2287.19
-1948.01
-1620.6
-1303.53
-999.655
-714.103
-412.649
-111.685
-1.04353
-0.036872
-0.0195719
-0.00909561
-0.00134195
-0.00733677
-0.0127538
-0.0182937
-0.0251118
-0.0331509
-0.0421239
-0.0506777
-0.0578487
-0.0631474
-0.066715
-0.068807
-0.0694224
-0.0687844
-0.0672176
-0.0649642
-11968.4
-11445.7
-10924
-10404
-9886.11
-9370.85
-8858.78
-8350.46
-7846.43
-7347.21
-6853.31
-6365.17
-5883.2
-5407.76
-4939.21
-4477.9
-4024.19
-3578.52
-3141.41
-2713.55
-2295.89
-1889.32
-1494.17
-1121.28
-756.892
-358.413
-3.08797
-0.0631977
-0.024757
-0.00953284
-0.0234913
-0.0314171
-0.0452949
-0.0651737
-0.085518
-0.108712
-0.126575
-0.146413
-0.162599
-0.177473
-0.189949
-0.199664
-0.206275
-0.209487
-0.209133
-0.205128
-0.197597
-0.18696
-0.173956
-0.15946
-11948
-11383.9
-10820.1
-10257.1
-9695.47
-9135.6
-8577.95
-8022.84
-7470.56
-6921.32
-6375.33
-5832.81
-5294.06
-4759.49
-4229.67
-3705.37
-3187.61
-2677.77
-2177.63
-1689.61
-1220.91
-763.822
-253.735
-1.87758
-0.0542132
-0.0256542
-0.00174972
-0.0483426
-0.0977937
-0.133514
-0.17294
-0.209981
-0.24849
-0.284968
-0.319082
-0.349661
-0.376596
-0.399653
-0.418196
-0.432112
-0.441136
-0.445255
-0.444488
-0.438916
-0.428664
-0.413906
-0.394885
-0.371931
-0.345461
-0.316061
-11927.3
-11321.5
-10714.7
-10106.6
-9497.5
-8887.34
-8276.17
-7663.92
-7050.56
-6436.12
-5820.78
-5204.99
-4589.48
-3975.29
-3363.83
-2756.92
-2157.25
-1568.75
-995.23
-413.929
-2.95405
-0.0620882
-0.0339228
-0.0943686
-0.143987
-0.175399
-0.227388
-0.280711
-0.335546
-0.390769
-0.445246
-0.497766
-0.546867
-0.59087
-0.628834
-0.660096
-0.68438
-0.701632
-0.711948
-0.715558
-0.712783
-0.70402
-0.689717
-0.670311
-0.646334
-0.61828
-0.586601
-0.551798
-0.514243
-0.474219
-11908.7
-11265.1
-10619
-9969.32
-9315.06
-8655.42
-7989.68
-7317.3
-6637.96
-5951.69
-5258.93
-4560.65
-3858.27
-3153.3
-2446.89
-1740.64
-1041.9
-371.078
-2.74952
-0.0683882
-0.127489
-0.184952
-0.232115
-0.300577
-0.373677
-0.447103
-0.519638
-0.591841
-0.663005
-0.732159
-0.796762
-0.855072
-0.905738
-0.947788
-0.980669
-1.00416
-1.01835
-1.02359
-1.02046
-1.00974
-0.992273
-0.969
-0.940923
-0.908912
-0.8739
-0.8366
-0.797701
-0.757838
-0.717309
-0.676209
-11891.5
-11213.2
-10531
-9842.75
-9146.13
-8439.22
-7720.55
-6989.1
-6244.47
-5486.92
-4717.6
-3938.46
-3151.8
-2358.39
-1555.58
-744.35
-5.30302
-0.142692
-0.251857
-0.349535
-0.392642
-0.461964
-0.537245
-0.612172
-0.688258
-0.767397
-0.850478
-0.937133
-1.02294
-1.10291
-1.1743
-1.23554
-1.28549
-1.32337
-1.34899
-1.36248
-1.36438
-1.35544
-1.3367
-1.30938
-1.27482
-1.23433
-1.18939
-1.14112
-1.09072
-1.03941
-0.988138
-0.937672
-0.88862
-0.841487
-11868
-11141.9
-10410.1
-9669.36
-8916.98
-8151.21
-7371.11
-6576.58
-5768.36
-4948.12
-4119.04
-3286.94
-2461.64
-1655.81
-876.061
-7.85369
-6.70173
-5.0804
-4.15044
-3.35222
-2.81882
-2.43105
-2.17061
-2.01408
-1.92622
-1.88344
-1.86682
-1.86056
-1.85903
-1.85866
-1.85623
-1.84931
-1.83586
-1.81456
-1.78473
-1.74622
-1.69926
-1.64445
-1.58269
-1.51505
-1.4428
-1.36732
-1.29002
-1.21215
-1.13509
-1.05993
-0.987747
-0.91935
-0.855336
-0.796075
-11838.2
-11053.4
-10264.8
-9470.43
-8669.12
-7860.78
-7046.25
-6226.93
-5404.58
-4581.43
-3761.64
-2954.75
-2180.36
-1467.04
-830.533
-14.6195
-12.4532
-9.94413
-7.87083
-6.65006
-5.72008
-5.01561
-4.46145
-4.02078
-3.66561
-3.37447
-3.132
-2.92822
-2.75542
-2.60651
-2.47529
-2.35702
-2.2479
-2.14443
-2.04397
-1.9445
-1.84447
-1.74324
-1.63979
-1.53406
-1.42655
-1.31819
-1.21049
-1.10525
-1.00384
-0.907606
-0.817581
-0.735289
-0.661262
-0.595434
-11818.9
-10997.7
-10179.3
-9364.75
-8555.64
-7753.86
-6961.69
-6181.58
-5415.78
-4666.06
-3933.34
-3217.29
-2516.29
-1831.81
-1181.95
-603.363
-7.06308
-0.745779
-1.21517
-1.28378
-1.49365
-1.70573
-1.88462
-2.03663
-2.15532
-2.24331
-2.30522
-2.3473
-2.37418
-2.38955
-2.39215
-2.37917
-2.34828
-2.29874
-2.2313
-2.14745
-2.0484
-1.93534
-1.81012
-1.6754
-1.5347
-1.39134
-1.24882
-1.11019
-0.97836
-0.855748
-0.74406
-0.644369
-0.556976
-0.481558
-11796.3
-10929.8
-10067
-9211.61
-8367.75
-7539.81
-6732.38
-5950.01
-5197.11
-4477.67
-3795.14
-3152.38
-2551.73
-1995.09
-1483.89
-1019.78
-610.041
-276.544
-2.78911
-0.139661
-0.608557
-0.887414
-1.12718
-1.43605
-1.73041
-1.99725
-2.25029
-2.49795
-2.73494
-2.94408
-3.09906
-3.16913
-3.1526
-3.07391
-2.96421
-2.84344
-2.71144
-2.56021
-2.38497
-2.18939
-1.98071
-1.7664
-1.55316
-1.34717
-1.15369
-0.976595
-0.818431
-0.680493
-0.562868
-0.46448
-11764.9
-10835.5
-9910.5
-8994.97
-8095.37
-7218.87
-6372.98
-5565.16
-4802.44
-4090.77
-3434.75
-2837.5
-2300.56
-1823.88
-1406.03
-1044.4
-735.353
-473.026
-247.009
-55.9755
-0.683464
-0.131311
-0.0361491
-0.593129
-0.969397
-1.22059
-1.4454
-1.70406
-2.03317
-2.46211
-3.04495
-3.53874
-3.93082
-4.24959
-4.4842
-4.58214
-4.47526
-4.12811
-3.66435
-3.224
-2.83432
-2.46869
-2.11764
-1.78696
-1.48363
-1.21273
-0.977016
-0.777152
-0.611971
-0.478884
-11725.3
-10717.4
-9715.89
-8728.46
-7764.57
-6834.71
-5949.5
-5118.76
-4350.8
-3651.81
-3025.6
-2473.38
-1993.97
-1584.08
-1238.81
-952.045
-717.042
-526.84
-374.582
-253.87
-159.057
-83.3748
-19.2495
-0.499077
-0.311307
-0.255367
-0.199808
-0.142989
-0.0824272
-0.0118215
-1.4163
-2.25249
-2.80697
-3.3616
-4.07052
-5.0299
-6.42631
-7.04373
-6.58112
-5.53659
-4.38482
-3.37302
-2.64563
-2.12727
-1.70555
-1.34519
-1.0405
-0.789593
-0.5895
-0.435277
-11684.2
-10596.6
-9522.34
-8473
-7461.42
-6500.64
-5602.67
-4777.5
-4032.33
-3371.19
-2794.78
-2300.8
-1884.41
-1538.82
-1256
-1027.36
-844.231
-698.386
-582.299
-489.346
-413.891
-351.276
-297.772
-250.527
-207.247
-166.293
-126.625
-87.725
-48.7642
-0.753019
-0.361974
-0.295458
-0.229951
-0.163561
-0.093931
-0.0442406
-5.81507
-9.62412
-8.9907
-6.43495
-4.25846
-2.85469
-2.00333
-1.43117
-1.03929
-0.79395
-0.616039
-0.472984
-0.357116
-0.265595
-11664.8
-10541.8
-9441.33
-8378.24
-7366.88
-6420.03
-5548.14
-4758.64
-4055.75
-3440.22
-2909.8
-2459.62
-2082.84
-1771.36
-1516.46
-1309.39
-1141.79
-1006
-895.299
-803.912
-727.058
-660.866
-602.288
-548.979
-499.189
-451.651
-405.485
-360.112
-315.189
-270.547
-226.17
-182.023
-138.256
-95.2296
-52.3458
-0.678393
-0.385438
-18.7429
-16.4267
-7.99464
-3.4877
-1.58262
-0.776568
-0.439932
-0.292872
-0.215311
-0.166078
-0.134665
-0.113023
-0.0968397
-0.00117448
-0.0940383
-0.112498
-0.127378
-0.143628
-0.153681
-0.164826
-0.180278
-0.187688
-0.181009
-0.160952
-0.132307
-0.10055
-0.0717503
-0.0483477
-0.0309058
-0.0188133
-0.0109404
-0.00609439
-0.00325981
-0.00167778
-0.000832483
-0.000398893
-0.000184864
-8.29819e-05
-3.61259e-05
-1.52717e-05
-6.27598e-06
-2.50995e-06
-9.77879e-07
-3.71526e-07
-1.37818e-07
-5.00058e-08
-1.7816e-08
-6.29488e-09
-2.26676e-09
-8.94853e-10
-4.39577e-10
-2.96315e-10
-2.55216e-10
-2.46974e-10
-2.49119e-10
-2.54491e-10
-2.60879e-10
-2.67624e-10
-2.74515e-10
-2.81492e-10
-2.8852e-10
-2.95551e-10
-3.02553e-10
-0.20997
-0.00246313
-0.113506
-0.095185
-0.0879278
-0.0875023
-0.0842203
-0.0904733
-0.100548
-0.107248
-0.105766
-0.0957032
-0.0797985
-0.0618428
-0.0449023
-0.0307491
-0.0199682
-0.0123511
-0.00730307
-0.0041405
-0.00225664
-0.00118496
-0.000600646
-0.000294419
-0.000139773
-6.43584e-05
-2.8779e-05
-1.25127e-05
-5.29558e-06
-2.18385e-06
-8.78472e-07
-3.45087e-07
-1.32591e-07
-4.99771e-08
-1.86126e-08
-6.9812e-09
-2.77134e-09
-1.29148e-09
-7.92988e-10
-6.41176e-10
-6.09784e-10
-6.19787e-10
-6.4428e-10
-6.73037e-10
-7.04002e-10
-7.36391e-10
-7.69936e-10
-8.04555e-10
-8.4028e-10
-8.77099e-10
-0.000702662
-0.0156037
-0.0212725
-0.0261781
-0.0316798
-0.0385434
-0.0432554
-0.0528361
-0.0631178
-0.0705271
-0.0726081
-0.0687179
-0.0600504
-0.0487899
-0.0371233
-0.0266265
-0.0181039
-0.0117233
-0.00725823
-0.00431045
-0.00246213
-0.00135584
-0.000721277
-0.000371335
-0.000185309
-8.97674e-05
-4.2267e-05
-1.93671e-05
-8.64561e-06
-3.76398e-06
-1.5998e-06
-6.64562e-07
-2.70196e-07
-1.07791e-07
-4.24297e-08
-1.67154e-08
-6.83309e-09
-3.13842e-09
-1.81153e-09
-1.37562e-09
-1.26862e-09
-1.28272e-09
-1.34286e-09
-1.42012e-09
-1.50665e-09
-1.59965e-09
-1.69719e-09
-1.7992e-09
-1.90676e-09
-2.01787e-09
-0.0031257
-0.00664749
-0.011876
-0.0185852
-0.0245499
-0.0306904
-0.0379977
-0.044957
-0.0509088
-0.0546799
-0.0552579
-0.0522858
-0.0462958
-0.0384563
-0.0300932
-0.0222876
-0.0156929
-0.0105474
-0.0067909
-0.00420112
-0.00250377
-0.00144078
-0.000802112
-0.00043278
-0.00022666
-0.00011539
-5.71756e-05
-2.76065e-05
-1.30031e-05
-5.98086e-06
-2.68904e-06
-1.18306e-06
-5.09976e-07
-2.15828e-07
-9.00444e-08
-3.73955e-08
-1.58345e-08
-7.22051e-09
-3.89175e-09
-2.68519e-09
-2.31761e-09
-2.27881e-09
-2.37182e-09
-2.52032e-09
-2.69594e-09
-2.88802e-09
-3.094e-09
-3.31292e-09
-3.54392e-09
-3.78785e-09
-0.0160418
-0.0201774
-0.0237839
-0.0274975
-0.0318091
-0.0361721
-0.0400423
-0.043277
-0.0455634
-0.0464162
-0.0453699
-0.0422661
-0.0373897
-0.0313852
-0.0250315
-0.0190163
-0.0138017
-0.00959893
-0.00641552
-0.00413128
-0.00256912
-0.00154605
-0.000901982
-0.000511002
-0.000281541
-0.000151059
-7.9026e-05
-4.03566e-05
-2.01391e-05
-9.83077e-06
-4.69869e-06
-2.20108e-06
-1.0117e-06
-4.56975e-07
-2.03377e-07
-8.96799e-08
-3.96872e-08
-1.8154e-08
-9.10764e-09
-5.45149e-09
-4.08795e-09
-3.69086e-09
-3.70125e-09
-3.88764e-09
-4.15735e-09
-4.47297e-09
-4.8206e-09
-5.1955e-09
-5.59628e-09
-6.0233e-09
-0.0319533
-0.0341107
-0.0362226
-0.0381711
-0.0397088
-0.0409466
-0.041909
-0.042522
-0.0425693
-0.0417474
-0.0397971
-0.0366331
-0.0324116
-0.0274982
-0.0223604
-0.0174419
-0.0130724
-0.00943254
-0.00656645
-0.0044193
-0.00288097
-0.00182248
-0.00112059
-0.000670722
-0.000391346
-0.000222875
-0.000124042
-6.75411e-05
-3.60182e-05
-1.88308e-05
-9.66122e-06
-4.86894e-06
-2.41278e-06
-1.17705e-06
-5.66194e-07
-2.69258e-07
-1.27236e-07
-6.03855e-08
-2.94423e-08
-1.54036e-08
-9.22087e-09
-6.65106e-09
-5.73223e-09
-5.56896e-09
-5.75901e-09
-6.1243e-09
-6.58704e-09
-7.11452e-09
-7.69314e-09
-8.31923e-09
-0.0624589
-0.0596689
-0.0565202
-0.0533905
-0.0505164
-0.0480482
-0.0460157
-0.0442709
-0.042552
-0.0405615
-0.038049
-0.0348821
-0.0310859
-0.026834
-0.0223956
-0.0180623
-0.0140836
-0.0106276
-0.00777221
-0.00551696
-0.00380701
-0.0025578
-0.00167569
-0.00107198
-0.000670552
-0.000410673
-0.000246558
-0.000145287
-8.41253e-05
-4.7921e-05
-2.68861e-05
-1.48746e-05
-8.12469e-06
-4.38718e-06
-2.34539e-06
-1.2435e-06
-6.55314e-07
-3.44346e-07
-1.81313e-07
-9.64637e-08
-5.26031e-08
-3.0102e-08
-1.86866e-08
-1.30213e-08
-1.03475e-08
-9.24562e-09
-8.98568e-09
-9.19333e-09
-9.6763e-09
-1.03365e-08
-0.144246
-0.128785
-0.113309
-0.0985596
-0.0852886
-0.073982
-0.0647647
-0.0574417
-0.0516075
-0.0467797
-0.0425061
-0.0384371
-0.0343618
-0.0302089
-0.0260205
-0.0219091
-0.018012
-0.014454
-0.0113245
-0.0086684
-0.00648833
-0.00475399
-0.00341355
-0.00240485
-0.00166426
-0.00113269
-0.000759032
-0.000501367
-0.000326794
-0.000210417
-0.000133977
-8.44466e-05
-5.27462e-05
-3.26832e-05
-2.01124e-05
-1.23058e-05
-7.49544e-06
-4.55087e-06
-2.75817e-06
-1.67134e-06
-1.01438e-06
-6.17945e-07
-3.78842e-07
-2.34548e-07
-1.47349e-07
-9.45681e-08
-6.25892e-08
-4.32389e-08
-3.16029e-08
-2.47171e-08
-0.285413
-0.254361
-0.223686
-0.19416
-0.166535
-0.141523
-0.119681
-0.101245
-0.0860545
-0.0736905
-0.0636125
-0.0552742
-0.0481998
-0.0420219
-0.0364891
-0.0314524
-0.0268412
-0.022635
-0.0188387
-0.0154637
-0.0125159
-0.00998899
-0.00786377
-0.00610945
-0.00468707
-0.00355327
-0.00266381
-0.00197631
-0.00145214
-0.00105752
-0.000763827
-0.000547556
-0.000389821
-0.000275785
-0.000193997
-0.000135762
-9.45681e-05
-6.5602e-05
-4.53428e-05
-3.12413e-05
-2.14677e-05
-1.47193e-05
-1.0075e-05
-6.88768e-06
-4.70541e-06
-3.21416e-06
-2.19669e-06
-1.50343e-06
-1.03189e-06
-7.12371e-07
-0.432245
-0.390321
-0.349425
-0.310361
-0.273622
-0.239376
-0.208051
-0.179678
-0.15449
-0.13255
-0.113723
-0.0977379
-0.0842065
-0.0727185
-0.0628961
-0.0544203
-0.0470379
-0.0405572
-0.0348378
-0.0297786
-0.0253065
-0.0213663
-0.0179136
-0.0149091
-0.012316
-0.0100977
-0.00821763
-0.00663912
-0.00532618
-0.00424407
-0.00336004
-0.0026439
-0.00206837
-0.00160931
-0.00124571
-0.000959623
-0.000735893
-0.00056193
-0.000427382
-0.000323837
-0.000244521
-0.000184026
-0.000138074
-0.0001033
-7.70798e-05
-5.73744e-05
-4.26133e-05
-3.1594e-05
-2.34084e-05
-1.73956e-05
-0.634289
-0.590905
-0.545977
-0.500135
-0.454457
-0.410593
-0.36862
-0.329071
-0.292039
-0.257632
-0.226215
-0.197798
-0.17243
-0.150034
-0.130418
-0.113324
-0.0984663
-0.0855556
-0.0743238
-0.0645325
-0.0559774
-0.0484866
-0.0419176
-0.0361521
-0.031092
-0.0266548
-0.0227703
-0.0193783
-0.0164256
-0.013865
-0.0116538
-0.00975314
-0.00812737
-0.00674374
-0.0055722
-0.00458534
-0.00375825
-0.00306849
-0.00249602
-0.00202311
-0.00163418
-0.00131567
-0.00105591
-0.000844877
-0.000674067
-0.000536309
-0.000425601
-0.000336986
-0.000266498
-0.000211352
-0.796652
-0.753697
-0.712785
-0.673371
-0.635019
-0.596445
-0.557595
-0.518624
-0.479696
-0.441151
-0.403274
-0.366143
-0.330171
-0.29585
-0.263662
-0.233953
-0.206905
-0.182544
-0.160781
-0.141452
-0.124354
-0.109265
-0.0959676
-0.0842577
-0.0739434
-0.0648508
-0.0568267
-0.0497391
-0.0434745
-0.0379357
-0.0330394
-0.0287137
-0.0248961
-0.0215319
-0.0185725
-0.0159753
-0.0137016
-0.011717
-0.00999001
-0.0084922
-0.00719756
-0.00608243
-0.00512528
-0.00430658
-0.00360874
-0.00301594
-0.00251413
-0.00209106
-0.00173685
-0.00144631
-0.74186
-0.692081
-0.647233
-0.607169
-0.571603
-0.540189
-0.512538
-0.488184
-0.466548
-0.446782
-0.428036
-0.409323
-0.389689
-0.36875
-0.346709
-0.323899
-0.30071
-0.277551
-0.254813
-0.232845
-0.211937
-0.192324
-0.174107
-0.157276
-0.141813
-0.127661
-0.11475
-0.103001
-0.0923316
-0.0826563
-0.0738925
-0.0659613
-0.0587904
-0.0523153
-0.0464765
-0.0412184
-0.0364889
-0.0322402
-0.028429
-0.0250155
-0.0219639
-0.0192412
-0.0168173
-0.0146644
-0.0127572
-0.011072
-0.00958728
-0.00828402
-0.00714802
-0.00618058
-0.537406
-0.486783
-0.442955
-0.405353
-0.373341
-0.346319
-0.323675
-0.304874
-0.289442
-0.277004
-0.267257
-0.259994
-0.255174
-0.252325
-0.250504
-0.24895
-0.246941
-0.243697
-0.238649
-0.231945
-0.223816
-0.214454
-0.204186
-0.193322
-0.182078
-0.170652
-0.159228
-0.147966
-0.137001
-0.126444
-0.116379
-0.106872
-0.0979598
-0.0896388
-0.0819
-0.0747186
-0.0680638
-0.0619054
-0.0562139
-0.0509605
-0.0461179
-0.0416605
-0.0375639
-0.0338053
-0.0303631
-0.0272169
-0.0243478
-0.0217395
-0.0193846
-0.0173116
-0.417442
-0.363518
-0.318762
-0.281904
-0.251749
-0.227224
-0.207377
-0.191384
-0.178538
-0.168511
-0.160864
-0.155194
-0.151214
-0.148691
-0.147494
-0.147506
-0.148695
-0.151116
-0.154532
-0.15812
-0.161278
-0.163487
-0.164564
-0.164201
-0.162426
-0.159448
-0.155418
-0.150513
-0.144926
-0.138881
-0.132507
-0.125919
-0.119297
-0.112679
-0.106144
-0.0997613
-0.0935644
-0.0875785
-0.0818213
-0.0763035
-0.07103
-0.0660024
-0.0612206
-0.0566829
-0.0523864
-0.0483273
-0.0445019
-0.0409083
-0.0375568
-0.034516
-0.383678
-0.318321
-0.266234
-0.225122
-0.192902
-0.167764
-0.148197
-0.132976
-0.121142
-0.111924
-0.104714
-0.0992308
-0.0951237
-0.0920749
-0.0899088
-0.0884823
-0.0876935
-0.0874719
-0.0877735
-0.0885762
-0.0898865
-0.0917423
-0.0942555
-0.097533
-0.101445
-0.10558
-0.109493
-0.11278
-0.115043
-0.11619
-0.116362
-0.115719
-0.114353
-0.11238
-0.109914
-0.107043
-0.10384
-0.100342
-0.0966079
-0.0927259
-0.0887401
-0.084691
-0.0806191
-0.0765594
-0.072541
-0.0685876
-0.0647196
-0.0609571
-0.057333
-0.0539504
-0.374175
-0.293434
-0.232319
-0.186689
-0.152937
-0.12808
-0.109742
-0.0962018
-0.0863547
-0.0791107
-0.0737138
-0.069641
-0.0665388
-0.0641565
-0.0623203
-0.0609171
-0.05986
-0.0590862
-0.058549
-0.0582142
-0.058056
-0.0580566
-0.0582145
-0.0585009
-0.0589378
-0.0595437
-0.0603539
-0.0614528
-0.0630288
-0.0650734
-0.0674138
-0.0699103
-0.0724613
-0.0749132
-0.0770949
-0.0790284
-0.0805923
-0.0818095
-0.0826786
-0.083163
-0.0832244
-0.08285
-0.0820512
-0.0808572
-0.079309
-0.0774541
-0.0753436
-0.0730319
-0.0705869
-0.0681494
-0.320273
-0.237032
-0.178271
-0.137623
-0.109878
-0.091055
-0.078259
-0.069454
-0.0634153
-0.0591971
-0.0561796
-0.0539709
-0.0523279
-0.0510925
-0.0501619
-0.0494628
-0.0489467
-0.048584
-0.0483498
-0.048225
-0.0481959
-0.0482506
-0.0483771
-0.0485687
-0.0488245
-0.0491393
-0.0495101
-0.0499342
-0.0504117
-0.0509429
-0.0515319
-0.0521886
-0.0529343
-0.0538161
-0.0549179
-0.0562158
-0.0577039
-0.0593545
-0.0611205
-0.0629273
-0.0647029
-0.0663747
-0.0678748
-0.0691448
-0.0701386
-0.0708252
-0.0711895
-0.0712349
-0.0709878
-0.0704938
-0.19614
-0.145882
-0.111282
-0.0884441
-0.0737662
-0.064421
-0.0584276
-0.0544864
-0.0517903
-0.049865
-0.0484312
-0.0473374
-0.0464894
-0.0458302
-0.0453217
-0.0449409
-0.0446738
-0.0445053
-0.0444257
-0.044429
-0.0445087
-0.0446581
-0.0448723
-0.0451501
-0.0454889
-0.0458866
-0.0463414
-0.0468522
-0.0474176
-0.048036
-0.0487066
-0.0494286
-0.0502014
-0.0510255
-0.0519022
-0.0528349
-0.0538308
-0.0548989
-0.0560579
-0.0573165
-0.0586512
-0.0600279
-0.0614066
-0.0627354
-0.063978
-0.0651029
-0.066077
-0.0668788
-0.067493
-0.067913
-0.0839607
-0.0735929
-0.0655582
-0.0596734
-0.05555
-0.0526997
-0.0506672
-0.0491142
-0.0478384
-0.0467381
-0.0457776
-0.0449401
-0.0442161
-0.0435985
-0.0430878
-0.0426794
-0.042363
-0.0421314
-0.0419794
-0.0419037
-0.0418993
-0.0419634
-0.0420996
-0.0423074
-0.0425863
-0.042936
-0.043356
-0.0438447
-0.0443997
-0.0450223
-0.0457118
-0.0464669
-0.0472857
-0.0481656
-0.049107
-0.0501062
-0.0511655
-0.0522824
-0.053454
-0.0546795
-0.0559573
-0.0572898
-0.0586467
-0.0599675
-0.0611989
-0.0622981
-0.0632243
-0.0639183
-0.0643972
-0.0647151
-3.08975e-10
-3.13051e-10
-3.16999e-10
-3.20945e-10
-3.24944e-10
-3.29005e-10
-3.33133e-10
-3.37315e-10
-3.41536e-10
-3.45785e-10
-3.5005e-10
-3.54339e-10
-3.58659e-10
-3.63011e-10
-3.67389e-10
-3.71795e-10
-3.76227e-10
-3.80678e-10
-3.85142e-10
-3.89625e-10
-3.94136e-10
-3.98675e-10
-4.03269e-10
-4.07936e-10
-4.12689e-10
-4.17531e-10
-4.22462e-10
-4.27468e-10
-4.32529e-10
-4.37636e-10
-4.42782e-10
-4.47963e-10
-4.53186e-10
-4.58441e-10
-4.63735e-10
-4.69073e-10
-4.74451e-10
-4.79882e-10
-4.8538e-10
-4.90956e-10
-4.9663e-10
-5.02407e-10
-5.08294e-10
-5.14275e-10
-5.20341e-10
-5.26469e-10
-5.32654e-10
-5.38884e-10
-5.45167e-10
-5.51495e-10
-5.57881e-10
-5.6432e-10
-5.7083e-10
-5.77415e-10
-5.84096e-10
-5.90878e-10
-5.97772e-10
-6.04772e-10
-6.11864e-10
-6.19038e-10
-6.26274e-10
-6.33565e-10
-6.40908e-10
-6.48301e-10
-6.55753e-10
-6.63267e-10
-6.7085e-10
-6.78512e-10
-6.86271e-10
-6.94131e-10
-7.02094e-10
-7.10152e-10
-7.18295e-10
-7.26506e-10
-7.3477e-10
-7.43079e-10
-7.51431e-10
-7.59834e-10
-7.68293e-10
-7.76816e-10
-7.85418e-10
-7.941e-10
-8.02859e-10
-8.11683e-10
-8.20555e-10
-8.29455e-10
-8.38365e-10
-8.47278e-10
-8.56189e-10
-8.65103e-10
-8.74025e-10
-8.8296e-10
-8.91909e-10
-9.00864e-10
-9.09811e-10
-9.18725e-10
-9.27584e-10
-9.3637e-10
-9.45067e-10
-9.53664e-10
-9.62162e-10
-9.70559e-10
-9.78854e-10
-9.87049e-10
-9.95144e-10
-1.00313e-09
-1.01098e-09
-1.0187e-09
-1.02625e-09
-1.03361e-09
-1.04078e-09
-1.04774e-09
-1.05448e-09
-1.061e-09
-1.06729e-09
-1.07332e-09
-1.07908e-09
-1.08457e-09
-1.08978e-09
-1.09471e-09
-1.09934e-09
-1.10368e-09
-1.10773e-09
-1.11147e-09
-1.1149e-09
-1.118e-09
-1.12075e-09
-1.12313e-09
-1.12513e-09
-1.12675e-09
-1.12799e-09
-1.12885e-09
-1.12931e-09
-1.12937e-09
-1.12903e-09
-1.12825e-09
-1.12703e-09
-1.12535e-09
-1.1232e-09
-1.12059e-09
-1.1175e-09
-1.11396e-09
-1.10997e-09
-1.10553e-09
-1.10063e-09
-1.09528e-09
-1.08946e-09
-1.08319e-09
-1.07645e-09
-1.06924e-09
-1.06155e-09
-1.05338e-09
-1.04472e-09
-1.03559e-09
-1.026e-09
-1.01598e-09
-1.00552e-09
-9.94644e-10
-9.83345e-10
-9.71624e-10
-9.59474e-10
-9.46902e-10
-9.33915e-10
-9.20515e-10
-9.06702e-10
-8.92482e-10
-8.77907e-10
-8.64218e-10
-8.50685e-10
-8.37044e-10
-8.23195e-10
-8.09114e-10
-7.94799e-10
-7.80256e-10
-7.65499e-10
-7.50551e-10
-7.35454e-10
-7.20255e-10
-7.05004e-10
-6.89744e-10
-6.74522e-10
-6.59396e-10
-6.44437e-10
-6.29737e-10
-6.15393e-10
-6.01503e-10
-5.88173e-10
-5.75524e-10
-5.63705e-10
-5.52881e-10
-5.43232e-10
-5.34942e-10
-5.2819e-10
-5.23169e-10
-5.20086e-10
-5.19171e-10
-5.20668e-10
-5.24819e-10
-5.31858e-10
-5.42003e-10
-5.55457e-10
-5.7242e-10
-5.93077e-10
-6.17608e-10
-6.46172e-10
-6.78921e-10
-7.15984e-10
-7.57472e-10
-8.03485e-10
-8.54278e-10
-9.07754e-10
-9.60846e-10
-1.01234e-09
-1.06148e-09
-1.10774e-09
-1.15064e-09
-1.18978e-09
-1.22481e-09
-1.25543e-09
-1.28141e-09
-1.30253e-09
-1.31862e-09
-1.32958e-09
-1.33536e-09
-1.33598e-09
-1.3315e-09
-1.32203e-09
-1.30769e-09
-1.28867e-09
-1.2652e-09
-1.23753e-09
-1.20597e-09
-1.17086e-09
-1.13255e-09
-1.09141e-09
-1.04781e-09
-1.00215e-09
-9.54828e-10
-9.06238e-10
-8.56785e-10
-8.06887e-10
-7.5687e-10
-7.07089e-10
-6.57886e-10
-6.09571e-10
-5.62444e-10
-5.1677e-10
-4.72782e-10
-4.30666e-10
-3.90591e-10
-3.52699e-10
-3.17092e-10
-2.83824e-10
-2.52911e-10
-2.24344e-10
-1.98128e-10
-1.74245e-10
-1.52624e-10
-1.33166e-10
-1.15742e-10
-1.00228e-10
-8.64728e-11
-7.43443e-11
-6.37293e-11
-5.45261e-11
-4.66037e-11
-3.98196e-11
-3.40549e-11
-2.91835e-11
-2.5106e-11
-2.17142e-11
-1.89167e-11
-1.66309e-11
-1.47703e-11
-1.32694e-11
-1.20747e-11
-1.11236e-11
-1.03696e-11
-9.78379e-12
-9.32568e-12
-8.96843e-12
-8.69051e-12
-8.4745e-12
-8.305e-12
-8.1774e-12
-8.07629e-12
-7.99502e-12
-7.9288e-12
-7.87411e-12
-7.82841e-12
-7.78988e-12
-7.7573e-12
-7.72981e-12
-7.70684e-12
-7.68801e-12
-7.67301e-12
-7.66158e-12
-7.65346e-12
-7.64838e-12
-7.64606e-12
-9.11708e-10
-9.34296e-10
-9.56479e-10
-9.78774e-10
-1.00142e-09
-1.02452e-09
-1.04815e-09
-1.07231e-09
-1.09701e-09
-1.12225e-09
-1.148e-09
-1.17422e-09
-1.20076e-09
-1.22713e-09
-1.25389e-09
-1.28117e-09
-1.30902e-09
-1.33744e-09
-1.36645e-09
-1.39606e-09
-1.42628e-09
-1.45714e-09
-1.48865e-09
-1.52083e-09
-1.55372e-09
-1.58732e-09
-1.62167e-09
-1.65675e-09
-1.69258e-09
-1.72916e-09
-1.7665e-09
-1.8046e-09
-1.84351e-09
-1.8833e-09
-1.923e-09
-1.96335e-09
-2.00452e-09
-2.04657e-09
-2.08954e-09
-2.13346e-09
-2.17835e-09
-2.22424e-09
-2.27113e-09
-2.31905e-09
-2.368e-09
-2.418e-09
-2.46905e-09
-2.52119e-09
-2.57445e-09
-2.62886e-09
-2.68443e-09
-2.74103e-09
-2.79824e-09
-2.85661e-09
-2.91627e-09
-2.97723e-09
-3.03953e-09
-3.1032e-09
-3.16824e-09
-3.2347e-09
-3.30258e-09
-3.37194e-09
-3.4428e-09
-3.51518e-09
-3.5891e-09
-3.66461e-09
-3.74083e-09
-3.81854e-09
-3.89787e-09
-3.97886e-09
-4.06155e-09
-4.14596e-09
-4.23212e-09
-4.32005e-09
-4.40976e-09
-4.50127e-09
-4.59457e-09
-4.68969e-09
-4.78673e-09
-4.88481e-09
-4.98467e-09
-5.0864e-09
-5.19005e-09
-5.2956e-09
-5.40308e-09
-5.51249e-09
-5.62382e-09
-5.73709e-09
-5.8523e-09
-5.9694e-09
-6.08817e-09
-6.20826e-09
-6.33018e-09
-6.45398e-09
-6.57964e-09
-6.7071e-09
-6.83634e-09
-6.96729e-09
-7.09994e-09
-7.23425e-09
-7.37022e-09
-7.5079e-09
-7.64622e-09
-7.78591e-09
-7.927e-09
-8.06942e-09
-8.21311e-09
-8.35799e-09
-8.50398e-09
-8.65099e-09
-8.79894e-09
-8.94774e-09
-9.09729e-09
-9.2475e-09
-9.39827e-09
-9.5495e-09
-9.70092e-09
-9.8521e-09
-1.00033e-08
-1.01546e-08
-1.03056e-08
-1.04564e-08
-1.06067e-08
-1.07565e-08
-1.09056e-08
-1.10539e-08
-1.12011e-08
-1.13471e-08
-1.14917e-08
-1.16348e-08
-1.17762e-08
-1.19157e-08
-1.20532e-08
-1.21885e-08
-1.23214e-08
-1.24517e-08
-1.25793e-08
-1.27039e-08
-1.28254e-08
-1.29437e-08
-1.30584e-08
-1.31695e-08
-1.32766e-08
-1.33795e-08
-1.3478e-08
-1.35718e-08
-1.36606e-08
-1.37442e-08
-1.38228e-08
-1.38965e-08
-1.39648e-08
-1.40277e-08
-1.40848e-08
-1.41359e-08
-1.41807e-08
-1.42191e-08
-1.42508e-08
-1.42756e-08
-1.42933e-08
-1.43044e-08
-1.43086e-08
-1.43056e-08
-1.42952e-08
-1.42773e-08
-1.42516e-08
-1.4218e-08
-1.41765e-08
-1.41276e-08
-1.4071e-08
-1.40065e-08
-1.39339e-08
-1.38533e-08
-1.37646e-08
-1.36679e-08
-1.35638e-08
-1.34523e-08
-1.33335e-08
-1.32075e-08
-1.30746e-08
-1.29353e-08
-1.27901e-08
-1.264e-08
-1.24855e-08
-1.23274e-08
-1.21667e-08
-1.20047e-08
-1.18429e-08
-1.1683e-08
-1.15275e-08
-1.13783e-08
-1.1238e-08
-1.11096e-08
-1.09962e-08
-1.09014e-08
-1.08291e-08
-1.07834e-08
-1.07685e-08
-1.07888e-08
-1.08488e-08
-1.09529e-08
-1.11053e-08
-1.13101e-08
-1.15708e-08
-1.18907e-08
-1.22724e-08
-1.2718e-08
-1.32289e-08
-1.38058e-08
-1.44484e-08
-1.51555e-08
-1.58748e-08
-1.65755e-08
-1.72438e-08
-1.78716e-08
-1.84532e-08
-1.89841e-08
-1.94605e-08
-1.98794e-08
-2.02383e-08
-2.05352e-08
-2.07687e-08
-2.09376e-08
-2.10416e-08
-2.10807e-08
-2.10553e-08
-2.09663e-08
-2.0815e-08
-2.06033e-08
-2.03333e-08
-2.00076e-08
-1.96289e-08
-1.92004e-08
-1.87255e-08
-1.82078e-08
-1.76512e-08
-1.70597e-08
-1.64375e-08
-1.57886e-08
-1.51176e-08
-1.44286e-08
-1.3726e-08
-1.30141e-08
-1.22973e-08
-1.15797e-08
-1.08654e-08
-1.01582e-08
-9.46207e-09
-8.78043e-09
-8.11659e-09
-7.47354e-09
-6.854e-09
-6.26024e-09
-5.69424e-09
-5.15757e-09
-4.65142e-09
-4.17663e-09
-3.73363e-09
-3.32252e-09
-2.94299e-09
-2.59452e-09
-2.27627e-09
-1.98719e-09
-1.72601e-09
-1.49136e-09
-1.28174e-09
-1.09559e-09
-9.3125e-10
-7.87084e-10
-6.61412e-10
-5.52629e-10
-4.5916e-10
-3.7948e-10
-3.12099e-10
-2.55587e-10
-2.08609e-10
-1.69912e-10
-1.38395e-10
-1.13017e-10
-9.2779e-11
-7.67851e-11
-6.42431e-11
-5.45061e-11
-4.70541e-11
-4.1433e-11
-3.72338e-11
-3.41299e-11
-3.18552e-11
-3.0205e-11
-2.90199e-11
-2.81806e-11
-2.75855e-11
-2.71752e-11
-2.68909e-11
-2.66961e-11
-2.65652e-11
-2.64797e-11
-2.64259e-11
-2.63931e-11
-2.63727e-11
-2.63603e-11
-2.12311e-09
-2.19337e-09
-2.26357e-09
-2.33353e-09
-2.4048e-09
-2.47802e-09
-2.55352e-09
-2.63148e-09
-2.71084e-09
-2.79253e-09
-2.87682e-09
-2.96387e-09
-3.05261e-09
-3.14394e-09
-3.23813e-09
-3.33498e-09
-3.43402e-09
-3.53607e-09
-3.64151e-09
-3.74904e-09
-3.85967e-09
-3.97371e-09
-4.09108e-09
-4.21133e-09
-4.3352e-09
-4.4626e-09
-4.59316e-09
-4.72766e-09
-4.86607e-09
-5.00807e-09
-5.15464e-09
-5.30447e-09
-5.45863e-09
-5.61752e-09
-5.7802e-09
-5.94769e-09
-6.12006e-09
-6.29697e-09
-6.47932e-09
-6.66631e-09
-6.85912e-09
-7.05679e-09
-7.26063e-09
-7.46957e-09
-7.68497e-09
-7.90582e-09
-8.1335e-09
-8.36703e-09
-8.60781e-09
-8.85488e-09
-9.10965e-09
-9.37108e-09
-9.64059e-09
-9.91727e-09
-1.02025e-08
-1.04957e-08
-1.07966e-08
-1.11069e-08
-1.14255e-08
-1.17535e-08
-1.20911e-08
-1.24379e-08
-1.2795e-08
-1.31626e-08
-1.35405e-08
-1.39287e-08
-1.43286e-08
-1.474e-08
-1.51631e-08
-1.55976e-08
-1.60448e-08
-1.65049e-08
-1.69782e-08