/*--------------------------------*- C++ -*----------------------------------*\
| =========                 |                                                 |
| \\      /  F ield         | OpenFOAM: The Open Source CFD Toolbox           |
|  \\    /   O peration     | Version:  2.4.0                                 |
|   \\  /    A nd           | Web:      www.OpenFOAM.org                      |
|    \\/     M anipulation  |                                                 |
\*---------------------------------------------------------------------------*/
FoamFile
{
    version     2.0;
    format      ascii;
    class       surfaceScalarField;
    location    "4.5";
    object      phi;
}
// * * * * * * * * * * * * * * * * * * * * * * * * * * * * * * * * * * * * * //

dimensions      [0 3 -1 0 0 0 0];

internalField   nonuniform List<scalar> 
15580
(
-5.50255e-13
-1.73355e-12
-2.04858e-12
-5.1439e-12
-4.39521e-12
-8.46286e-12
-7.51639e-12
-1.16735e-11
-1.13399e-11
-1.47741e-11
-1.57956e-11
-1.77626e-11
-2.08147e-11
-2.0637e-11
-2.63305e-11
-2.33957e-11
-3.22775e-11
-2.60375e-11
-3.85919e-11
-2.85613e-11
-4.52111e-11
-3.09665e-11
-5.20736e-11
-3.32525e-11
-5.91193e-11
-3.54191e-11
-6.62889e-11
-3.74662e-11
-7.35241e-11
-3.93939e-11
-8.07676e-11
-4.12025e-11
-8.79625e-11
-4.28927e-11
-9.50528e-11
-4.44651e-11
-1.01983e-10
-4.59206e-11
-1.08699e-10
-4.72603e-11
-1.15144e-10
-4.84855e-11
-1.21266e-10
-4.9598e-11
-1.2701e-10
-5.05995e-11
-1.32323e-10
-5.14917e-11
-1.3715e-10
-5.22768e-11
-1.41438e-10
-5.29572e-11
-1.45135e-10
-5.35354e-11
-1.48188e-10
-5.40146e-11
-1.50545e-10
-5.43974e-11
-1.52156e-10
-5.46878e-11
-1.52976e-10
-5.48871e-11
-1.52963e-10
-5.49774e-11
-1.52023e-10
-5.49939e-11
-1.50121e-10
-5.49354e-11
-1.47207e-10
-5.48123e-11
-1.43225e-10
-5.46304e-11
-1.38114e-10
-5.43945e-11
-1.31817e-10
-5.41123e-11
-1.24287e-10
-5.37824e-11
-1.15465e-10
-5.34208e-11
-1.05289e-10
-5.30356e-11
-9.37067e-11
-5.2633e-11
-8.06497e-11
-5.22258e-11
-6.59617e-11
-5.18218e-11
-4.96515e-11
-5.14358e-11
-3.2464e-11
-5.10772e-11
-1.42704e-11
-5.07177e-11
5.45532e-12
-5.06334e-11
2.18658e-11
-5.07062e-11
-5.10568e-11
3.88191e-11
-2.98271e-13
-1.43528e-12
-1.24208e-12
-4.20009e-12
-2.81524e-12
-6.8897e-12
-4.9694e-12
-9.5193e-12
-7.65539e-12
-1.20881e-11
-1.08236e-11
-1.45944e-11
-1.44241e-11
-1.70365e-11
-1.84068e-11
-1.9413e-11
-2.27217e-11
-2.17226e-11
-2.73187e-11
-2.39642e-11
-3.21481e-11
-2.61371e-11
-3.71602e-11
-2.82404e-11
-4.2306e-11
-3.02734e-11
-4.75365e-11
-3.22357e-11
-5.28034e-11
-3.4127e-11
-5.80585e-11
-3.59473e-11
-6.32548e-11
-3.76964e-11
-6.83453e-11
-3.93746e-11
-7.32836e-11
-4.09823e-11
-7.80239e-11
-4.25199e-11
-8.25214e-11
-4.39881e-11
-8.67315e-11
-4.53879e-11
-9.06108e-11
-4.67201e-11
-9.41164e-11
-4.79861e-11
-9.72063e-11
-4.91869e-11
-9.98393e-11
-5.03242e-11
-1.01975e-10
-5.13993e-11
-1.03576e-10
-5.24141e-11
-1.04604e-10
-5.33698e-11
-1.05022e-10
-5.42691e-11
-1.04798e-10
-5.5111e-11
-1.03874e-10
-5.59019e-11
-1.02226e-10
-5.66416e-11
-9.98248e-11
-5.73368e-11
-9.66477e-11
-5.79894e-11
-9.26754e-11
-5.86027e-11
-8.78916e-11
-5.91782e-11
-8.2286e-11
-5.97179e-11
-7.58442e-11
-6.02242e-11
-6.85664e-11
-6.06987e-11
-6.04568e-11
-6.11452e-11
-5.15226e-11
-6.15672e-11
-4.17792e-11
-6.19691e-11
-3.12494e-11
-6.23517e-11
-1.99677e-11
-6.27175e-11
-7.95956e-12
-6.30853e-11
4.81509e-12
-6.34923e-11
1.79761e-11
-6.37944e-11
3.12452e-11
-6.39754e-11
-6.39552e-11
4.41043e-11
-3.72829e-13
-1.06245e-12
-1.3477e-12
-3.22522e-12
-2.84632e-12
-5.39108e-12
-4.82266e-12
-7.54296e-12
-7.23196e-12
-9.67883e-12
-1.00308e-11
-1.17956e-11
-1.31769e-11
-1.38904e-11
-1.66293e-11
-1.59606e-11
-2.03478e-11
-1.80041e-11
-2.42935e-11
-2.00185e-11
-2.84283e-11
-2.20023e-11
-3.27153e-11
-2.39534e-11
-3.71181e-11
-2.58705e-11
-4.16017e-11
-2.77521e-11
-4.61317e-11
-2.9597e-11
-5.06748e-11
-3.14041e-11
-5.51986e-11
-3.31726e-11
-5.96716e-11
-3.49016e-11
-6.40632e-11
-3.65907e-11
-6.83439e-11
-3.82392e-11
-7.2485e-11
-3.98471e-11
-7.64589e-11
-4.1414e-11
-8.02389e-11
-4.29401e-11
-8.37996e-11
-4.44254e-11
-8.71162e-11
-4.58704e-11
-9.01654e-11
-4.7275e-11
-9.29241e-11
-4.86406e-11
-9.53711e-11
-4.9967e-11
-9.7485e-11
-5.1256e-11
-9.92467e-11
-5.25074e-11
-1.00634e-10
-5.37235e-11
-1.01632e-10
-5.49039e-11
-1.02222e-10
-5.60517e-11
-1.02393e-10
-5.71659e-11
-1.02132e-10
-5.82508e-11
-1.01428e-10
-5.93062e-11
-1.00266e-10
-6.03408e-11
-9.86306e-11
-6.13528e-11
-9.65026e-11
-6.23522e-11
-9.38708e-11
-6.33304e-11
-9.06818e-11
-6.43342e-11
-8.68596e-11
-6.53894e-11
-8.22537e-11
-6.65751e-11
-7.69494e-11
-6.7656e-11
-7.11372e-11
-6.85297e-11
-6.51338e-11
-6.91328e-11
-5.95275e-11
-6.9538e-11
-5.4256e-11
-7.048e-11
-5.12411e-11
-7.08001e-11
-6.99999e-11
-4.60654e-11
-9.21913e-14
-9.7026e-13
-4.22108e-13
-2.8953e-12
-9.89271e-13
-4.82392e-12
-1.7675e-12
-6.76474e-12
-2.73103e-12
-8.7153e-12
-3.85423e-12
-1.06724e-11
-5.11167e-12
-1.26329e-11
-6.47809e-12
-1.45942e-11
-7.92854e-12
-1.65536e-11
-9.43828e-12
-1.85088e-11
-1.0983e-11
-2.04575e-11
-1.25388e-11
-2.23977e-11
-1.40819e-11
-2.43274e-11
-1.55892e-11
-2.62448e-11
-1.7038e-11
-2.81482e-11
-1.84062e-11
-3.0036e-11
-1.96722e-11
-3.19067e-11
-2.08147e-11
-3.3759e-11
-2.18138e-11
-3.55917e-11
-2.26494e-11
-3.74035e-11
-2.33031e-11
-3.91934e-11
-2.37565e-11
-4.09605e-11
-2.39931e-11
-4.27036e-11
-2.39964e-11
-4.44221e-11
-2.3752e-11
-4.61147e-11
-2.32459e-11
-4.77811e-11
-2.24663e-11
-4.94202e-11
-2.14018e-11
-5.10315e-11
-2.00438e-11
-5.2614e-11
-1.83836e-11
-5.41676e-11
-1.64146e-11
-5.56924e-11
-1.41256e-11
-5.71929e-11
-1.15048e-11
-5.86725e-11
-8.5363e-12
-6.01344e-11
-5.19412e-12
-6.1593e-11
-1.395e-12
-6.31053e-11
2.99209e-12
-6.47279e-11
8.18072e-12
-6.65415e-11
1.39465e-11
-6.81179e-11
2.00678e-11
-6.94517e-11
2.59816e-11
-7.03761e-11
3.10478e-11
-7.11422e-11
3.4812e-11
-7.22413e-11
3.753e-11
-7.44746e-11
3.71369e-11
-7.60748e-11
4.17724e-11
-7.54298e-11
4.71633e-11
-7.49872e-11
5.12198e-11
-7.45607e-11
5.39585e-11
-7.35442e-11
-7.12431e-11
5.52017e-11
-3.88794e-14
-9.3138e-13
-8.49988e-14
-2.84918e-12
-1.06891e-13
-4.80202e-12
-9.24541e-14
-6.77917e-12
-2.9491e-14
-8.77827e-12
9.46597e-14
-1.07965e-11
2.9313e-13
-1.28314e-11
5.79452e-13
-1.48805e-11
9.67606e-13
-1.69418e-11
1.4719e-12
-1.90131e-11
2.10708e-12
-2.10927e-11
2.88822e-12
-2.31788e-11
3.83084e-12
-2.527e-11
4.95077e-12
-2.73647e-11
6.26425e-12
-2.94616e-11
7.78785e-12
-3.15596e-11
9.53845e-12
-3.36573e-11
1.15332e-11
-3.57538e-11
1.37894e-11
-3.78479e-11
1.63246e-11
-3.99387e-11
1.91561e-11
-4.2025e-11
2.23017e-11
-4.4106e-11
2.57778e-11
-4.61798e-11
2.96018e-11
-4.8246e-11
3.37887e-11
-5.03015e-11
3.83547e-11
-5.23471e-11
4.33125e-11
-5.4378e-11
4.86825e-11
-5.64015e-11
5.44854e-11
-5.84169e-11
6.07537e-11
-6.04359e-11
6.75595e-11
-6.24982e-11
7.50586e-11
-6.4692e-11
8.33248e-11
-6.69387e-11
9.19684e-11
-6.87779e-11
1.00753e-10
-7.03773e-11
1.08641e-10
-7.14926e-11
1.14807e-10
-7.27809e-11
1.18492e-10
-7.47098e-11
1.19945e-10
-7.86911e-11
1.14803e-10
-8.03608e-11
1.2207e-10
-7.89193e-11
1.28433e-10
-7.76325e-11
1.32632e-10
-7.65195e-11
1.33098e-10
-7.49822e-11
1.29613e-10
-7.25983e-11
1.24755e-10
-7.05715e-11
1.23085e-10
-7.33172e-11
1.33743e-10
-8.52186e-11
1.61043e-10
-1.00845e-10
-1.04734e-10
1.94534e-10
1.14901e-13
-1.04628e-12
4.23908e-13
-3.15819e-12
9.20491e-13
-5.29861e-12
1.61121e-12
-7.46989e-12
2.50156e-12
-9.66862e-12
3.59684e-12
-1.18918e-11
4.90246e-12
-1.4137e-11
6.42389e-12
-1.6402e-11
8.16717e-12
-1.8685e-11
1.01387e-11
-2.09847e-11
1.2346e-11
-2.32999e-11
1.47971e-11
-2.563e-11
1.75019e-11
-2.79748e-11
2.04712e-11
-3.03341e-11
2.3718e-11
-3.27084e-11
2.72569e-11
-3.50985e-11
3.11047e-11
-3.75051e-11
3.52809e-11
-3.993e-11
3.98071e-11
-4.2374e-11
4.47084e-11
-4.484e-11
5.00118e-11
-4.73284e-11
5.57493e-11
-4.98436e-11
6.19539e-11
-5.23844e-11
6.86671e-11
-5.49592e-11
7.59342e-11
-5.75686e-11
8.38191e-11
-6.0232e-11
9.24068e-11
-6.29658e-11
1.01888e-10
-6.58824e-11
1.11995e-10
-6.85245e-11
1.2232e-10
-7.07603e-11
1.32226e-10
-7.25695e-11
1.39676e-10
-7.4189e-11
1.4252e-10
-7.71636e-11
1.39116e-10
-8.18104e-11
1.36544e-10
-8.17032e-11
1.44559e-10
-7.98679e-11
1.50054e-10
-7.84532e-11
1.52932e-10
-7.77017e-11
1.51453e-10
-7.72659e-11
1.50109e-10
-7.90228e-11
1.53876e-10
-8.26862e-11
1.63651e-10
-8.74077e-11
1.81126e-10
-9.39939e-11
2.03485e-10
-9.73413e-11
2.21664e-10
-9.07774e-11
2.28767e-10
-7.76744e-11
2.24612e-10
-6.91628e-11
2.10636e-10
-7.12426e-11
1.87239e-10
-7.74472e-11
-7.058e-11
1.53085e-10
2.50235e-13
-1.29652e-12
1.02212e-12
-3.93007e-12
2.30368e-12
-6.58016e-12
4.06718e-12
-9.23339e-12
6.28541e-12
-1.18868e-11
8.93297e-12
-1.45394e-11
1.19853e-11
-1.71893e-11
1.542e-11
-1.98367e-11
1.9215e-11
-2.248e-11
2.33511e-11
-2.51208e-11
2.78088e-11
-2.77577e-11
3.25725e-11
-3.03937e-11
3.76254e-11
-3.30277e-11
4.29559e-11
-3.56646e-11
4.85501e-11
-3.83026e-11
5.44015e-11
-4.09498e-11
6.04989e-11
-4.36025e-11
6.68422e-11
-4.62733e-11
7.34228e-11
-4.89546e-11
8.02487e-11
-5.16659e-11
8.73143e-11
-5.43939e-11
9.46496e-11
-5.71789e-11
1.02281e-10
-6.00156e-11
1.10328e-10
-6.30063e-11
1.18862e-10
-6.61027e-11
1.27025e-10
-6.83954e-11
1.34689e-10
-7.06298e-11
1.38898e-10
-7.25315e-11
1.37124e-10
-7.71318e-11
1.18317e-10
-8.08123e-11
1.13592e-10
-7.86222e-11
1.14008e-10
-7.49388e-11
1.04804e-10
-6.81066e-11
9.75058e-11
-7.4567e-11
8.74537e-11
-7.16511e-11
8.93433e-11
-8.17575e-11
9.92096e-11
-8.83195e-11
9.99206e-11
-7.84127e-11
1.10922e-10
-8.82672e-11
1.05826e-10
-7.39269e-11
1.0655e-10
-8.34103e-11
1.08712e-10
-8.95695e-11
1.10809e-10
-9.60909e-11
1.15384e-10
-1.01917e-10
1.25648e-10
-1.01041e-10
1.40707e-10
-9.27328e-11
1.43873e-10
-7.23294e-11
1.24561e-10
-5.19301e-11
7.89664e-11
-3.18529e-11
1.87787e-11
-1.03923e-11
4.56914e-13
-1.75343e-12
1.70367e-12
-5.17683e-12
3.65911e-12
-8.5356e-12
6.26252e-12
-1.18368e-11
9.4564e-12
-1.50807e-11
1.31843e-11
-1.82673e-11
1.73938e-11
-2.13988e-11
2.20318e-11
-2.44747e-11
2.70495e-11
-2.74978e-11
3.23961e-11
-3.04673e-11
3.80248e-11
-3.33864e-11
4.38847e-11
-3.62536e-11
4.99296e-11
-3.90726e-11
5.61067e-11
-4.18417e-11
6.23681e-11
-4.4564e-11
6.86568e-11
-4.72386e-11
7.49202e-11
-4.98659e-11
8.10955e-11
-5.24486e-11
8.71277e-11
-5.49868e-11
9.29678e-11
-5.75061e-11
9.86088e-11
-6.00348e-11
1.03664e-10
-6.22341e-11
1.07716e-10
-6.40676e-11
1.10132e-10
-6.58109e-11
1.08418e-10
-6.83671e-11
9.55732e-11
-7.48979e-11
6.23041e-11
-7.02794e-11
3.94171e-11
-5.02003e-11
-9.0571e-12
-2.88273e-11
-1.64363e-11
-7.34748e-11
-6.43604e-11
-3.06981e-11
-2.00107e-11
-1.19288e-10
-6.8551e-11
-1.95664e-11
-4.27453e-11
-1.00373e-10
-4.51355e-11
-6.92609e-11
-4.20113e-11
-8.48817e-11
-2.59078e-11
-1.04423e-10
2.12293e-12
-1.06443e-10
3.32675e-11
-1.19412e-10
8.97669e-11
-1.30426e-10
1.386e-10
-1.32243e-10
1.89497e-10
-1.40467e-10
2.38891e-10
-1.45485e-10
2.82704e-10
-1.4573e-10
3.23755e-10
-1.42092e-10
3.60643e-10
-1.29621e-10
3.95418e-10
-1.07104e-10
4.14184e-10
-7.06968e-11
4.05814e-10
-2.34823e-11
4.09014e-11
3.83691e-10
1.30136e-13
-1.88357e-12
5.1787e-13
-5.56456e-12
1.14602e-12
-9.16375e-12
1.99074e-12
-1.26815e-11
3.02943e-12
-1.61194e-11
4.23976e-12
-1.94777e-11
5.60014e-12
-2.27591e-11
7.08829e-12
-2.59628e-11
8.68224e-12
-2.90918e-11
1.03585e-11
-3.21435e-11
1.20936e-11
-3.51215e-11
1.38616e-11
-3.80217e-11
1.5637e-11
-4.08479e-11
1.73898e-11
-4.35946e-11
1.90908e-11
-4.6265e-11
2.07064e-11
-4.88542e-11
2.22116e-11
-5.13712e-11
2.35865e-11
-5.38235e-11
2.47003e-11
-5.61007e-11
2.48918e-11
-5.76975e-11
2.36917e-11
-5.89025e-11
2.03234e-11
-6.16592e-11
-1.91944e-11
-6.20676e-11
-4.93667e-11
-5.43364e-11
-9.75476e-11
-2.06299e-11
-9.72112e-11
-7.53705e-11
-1.38977e-10
-2.85162e-11
-1.31368e-10
-5.78098e-11
-1.8067e-10
2.04751e-11
-2.05455e-10
-4.86901e-11
-2.08999e-10
-2.71536e-11
-2.81948e-10
-4.63394e-11
-2.05217e-10
-9.62976e-11
-2.1535e-10
-9.024e-11
-1.56476e-10
-1.28135e-10
-1.04015e-10
-1.37343e-10
-5.48665e-11
-1.53571e-10
1.44766e-11
-1.75787e-10
8.13819e-11
-1.86317e-10
1.53545e-10
-2.02589e-10
2.32654e-10
-2.11352e-10
3.08816e-10
-2.16629e-10
3.79858e-10
-2.16528e-10
4.45059e-10
-2.1093e-10
5.0118e-10
-1.98213e-10
5.49137e-10
-1.77578e-10
5.89753e-10
-1.47719e-10
6.27612e-10
-1.08556e-10
6.61713e-10
-5.75831e-11
5.93592e-12
6.96678e-10
-2.36494e-13
-1.64707e-12
-9.0782e-13
-4.89324e-12
-1.97364e-12
-8.09794e-12
-3.3928e-12
-1.12624e-11
-5.13103e-12
-1.43812e-11
-7.15534e-12
-1.74533e-11
-9.44055e-12
-2.04739e-11
-1.19599e-11
-2.34435e-11
-1.46953e-11
-2.63564e-11
-1.76235e-11
-2.92153e-11
-2.07311e-11
-3.20139e-11
-2.39952e-11
-3.47576e-11
-2.7404e-11
-3.74391e-11
-3.09303e-11
-4.00683e-11
-3.45554e-11
-4.26398e-11
-3.82364e-11
-4.51732e-11
-4.20388e-11
-4.75688e-11
-4.62605e-11
-4.96018e-11
-5.09277e-11
-5.18976e-11
-7.38153e-11
-5.57862e-11
-1.09883e-10
-5.34961e-11
-1.84143e-10
1.20743e-11
-1.39248e-10
-1.07049e-10
-2.03756e-10
1.01713e-11
-2.7505e-10
5.06641e-11
-3.51358e-10
9.37546e-13
-4.30394e-10
5.05207e-11
-5.29372e-10
4.11681e-11
-5.33447e-10
2.45497e-11
-5.64964e-10
-1.71728e-11
-5.60551e-10
-3.1567e-11
-5.41025e-10
-6.58652e-11
-5.31563e-10
-1.0576e-10
-4.82242e-10
-1.39562e-10
-4.4123e-10
-1.69147e-10
-3.84674e-10
-1.93899e-10
-3.23714e-10
-2.14532e-10
-2.67788e-10
-2.31712e-10
-2.08992e-10
-2.45113e-10
-1.57047e-10
-2.54534e-10
-1.08591e-10
-2.59809e-10
-6.45147e-11
-2.60705e-10
-2.34757e-11
-2.57567e-10
1.40395e-11
-2.48446e-10
4.99312e-11
-2.34105e-10
8.53691e-11
-2.13016e-10
1.22266e-10
-1.84617e-10
1.64277e-10
-1.50567e-10
2.1949e-10
-1.12796e-10
-6.99954e-11
2.95421e-10
-2.59134e-13
-1.38794e-12
-9.56891e-13
-4.19548e-12
-2.05769e-12
-6.99714e-12
-3.54858e-12
-9.77147e-12
-5.42292e-12
-1.25068e-11
-7.67756e-12
-1.51987e-11
-1.03175e-11
-1.7834e-11
-1.33496e-11
-2.04114e-11
-1.679e-11
-2.29159e-11
-2.06547e-11
-2.53506e-11
-2.4971e-11
-2.76976e-11
-2.97625e-11
-2.9966e-11
-3.5067e-11
-3.21346e-11
-4.09158e-11
-3.42195e-11
-4.73664e-11
-3.61892e-11
-5.45316e-11
-3.8008e-11
-6.23009e-11
-3.98705e-11
-9.49524e-11
-4.26388e-11
-1.34597e-10
-3.89835e-11
-1.92482e-10
1.80566e-12
-2.19373e-10
-2.66048e-11
-4.19565e-10
2.12267e-10
-6.24461e-10
9.78472e-11
-6.90281e-10
7.59908e-11
-7.53104e-10
1.13487e-10
-8.6388e-10
1.11714e-10
-9.09647e-10
9.62875e-11
-9.34992e-10
6.65135e-11
-9.29414e-10
1.89718e-11
-9.19724e-10
-2.68635e-11
-8.80852e-10
-7.04384e-11
-8.35431e-10
-1.11287e-10
-7.92425e-10
-1.48765e-10
-7.49915e-10
-1.82071e-10
-7.07659e-10
-2.11403e-10
-6.64789e-10
-2.36768e-10
-6.21703e-10
-2.57618e-10
-5.79018e-10
-2.74397e-10
-5.36724e-10
-2.87407e-10
-4.94672e-10
-2.96586e-10
-4.52399e-10
-3.02082e-10
-4.09325e-10
-3.03779e-10
-3.66273e-10
-3.00619e-10
-3.18386e-10
-2.96332e-10
-2.63326e-10
-2.89165e-10
-1.9996e-10
-2.76382e-10
-1.25613e-10
-2.58963e-10
-3.88268e-11
-2.37353e-10
6.50395e-11
-2.16662e-10
-1.93508e-10
1.88552e-10
7.08623e-14
-1.4588e-12
1.62372e-13
-4.28699e-12
2.04548e-13
-7.03931e-12
1.53959e-13
-9.72088e-12
-3.49911e-14
-1.23179e-11
-4.09325e-13
-1.48244e-11
-1.02247e-12
-1.72208e-11
-1.92859e-12
-1.95053e-11
-3.18967e-12
-2.16549e-11
-4.86772e-12
-2.36726e-11
-7.03426e-12
-2.55311e-11
-9.76085e-12
-2.72394e-11
-1.31336e-11
-2.87618e-11
-1.72431e-11
-3.01101e-11
-2.21863e-11
-3.1246e-11
-3.15432e-11
-3.24496e-11
-9.24789e-11
-3.33384e-11
-1.2882e-10
-6.68348e-12
-1.50363e-10
-1.74404e-11
-1.67324e-10
1.87665e-11
-2.1188e-10
1.79509e-11
-6.83015e-11
6.86884e-11
-8.11963e-11
1.10742e-10
-8.32956e-11
7.80901e-11
-3.15959e-11
6.17872e-11
4.3248e-11
3.68701e-11
1.35458e-10
4.07759e-12
2.28105e-10
-2.61337e-11
3.03287e-10
-5.62103e-11
3.61852e-10
-8.5428e-11
4.08624e-10
-1.1721e-10
4.46172e-10
-1.48835e-10
4.76621e-10
-1.79215e-10
5.02568e-10
-2.08018e-10
5.26181e-10
-2.35016e-10
5.49221e-10
-2.59808e-10
5.73948e-10
-2.82345e-10
6.01886e-10
-3.02335e-10
6.33485e-10
-3.19006e-10
6.70851e-10
-3.33953e-10
7.14923e-10
-3.46153e-10
7.65719e-10
-3.54575e-10
8.25359e-10
-3.60259e-10
8.92052e-10
-3.63025e-10
9.67539e-10
-3.64652e-10
1.05305e-09
-3.61891e-10
1.14953e-09
-3.5545e-10
1.25715e-09
-3.44966e-10
1.37122e-09
-3.30736e-10
-3.14817e-10
1.49253e-09
1.81888e-13
-1.64069e-12
7.62046e-13
-4.86715e-12
1.7178e-12
-7.99507e-12
3.00022e-12
-1.10033e-11
4.56451e-12
-1.38822e-11
6.35926e-12
-1.66191e-11
8.33663e-12
-1.91982e-11
1.04441e-11
-2.16127e-11
1.26391e-11
-2.38499e-11
1.48748e-11
-2.59082e-11
1.71179e-11
-2.77742e-11
1.93285e-11
-2.945e-11
2.14815e-11
-3.09149e-11
2.35522e-11
-3.21808e-11
2.55707e-11
-3.32286e-11
-3.48977e-11
-3.41125e-11
-3.27112e-11
-3.55249e-11
2.27321e-12
-4.16679e-11
1.6999e-11
-3.21662e-11
8.76275e-11
-5.18619e-11
1.67237e-10
-6.16586e-11
3.03379e-10
-6.74531e-11
4.81993e-10
-6.78721e-11
6.28739e-10
-6.86562e-11
7.63585e-10
-7.30587e-11
8.7976e-10
-7.93046e-11
9.73506e-10
-8.96684e-11
1.0368e-09
-8.94317e-11
1.06645e-09
-8.58534e-11
1.07724e-09
-9.62195e-11
1.07059e-09
-1.10564e-10
1.05243e-09
-1.30673e-10
1.02858e-09
-1.55369e-10
1.0029e-09
-1.82335e-10
9.78689e-10
-2.10803e-10
9.59643e-10
-2.40763e-10
9.48698e-10
-2.71399e-10
9.48822e-10
-3.02459e-10
9.62612e-10
-3.32796e-10
9.89421e-10
-3.60761e-10
1.02767e-09
-3.84402e-10
1.08068e-09
-4.07586e-10
1.14654e-09
-4.26123e-10
1.22584e-09
-4.42324e-10
1.31589e-09
-4.54699e-10
1.41702e-09
-4.63016e-10
1.52613e-09
-4.64569e-10
1.64769e-09
-4.66517e-10
1.77811e-09
-4.61156e-10
-4.52445e-10
1.91573e-09
7.73859e-13
-2.41455e-12
2.88973e-12
-6.98302e-12
6.17422e-12
-1.12796e-11
1.04783e-11
-1.53074e-11
1.56574e-11
-1.90613e-11
2.15789e-11
-2.25407e-11
2.81084e-11
-2.57276e-11
3.51296e-11
-2.86339e-11
4.25187e-11
-3.1239e-11
5.01763e-11
-3.35659e-11
5.7985e-11
-3.5583e-11
6.58636e-11
-3.73285e-11
7.3698e-11
-3.87493e-11
8.14285e-11
-3.99112e-11
8.90117e-11
-4.07357e-11
3.28418e-11
-4.15004e-11
4.09916e-11
-4.36748e-11
5.62658e-11
-5.6942e-11
8.97365e-11
-6.56368e-11
1.33001e-10
-9.51266e-11
1.65119e-10
-9.37767e-11
1.97553e-10
-9.98874e-11
2.2486e-10
-9.51791e-11
2.51533e-10
-9.53283e-11
2.72198e-10
-9.37241e-11
2.85501e-10
-9.26072e-11
2.88421e-10
-9.25888e-11
2.92815e-10
-9.38254e-11
2.99185e-10
-9.2224e-11
2.92275e-10
-8.9309e-11
2.73294e-10
-9.15833e-11
2.43844e-10
-1.01223e-10
2.0089e-10
-1.12415e-10
1.43055e-10
-1.245e-10
7.61937e-11
-1.43942e-10
9.17111e-12
-1.73741e-10
-4.92921e-11
-2.12936e-10
-9.53295e-11
-2.56422e-10
-1.28535e-10
-2.9959e-10
-1.48327e-10
-3.4097e-10
-1.52395e-10
-3.80334e-10
-1.4845e-10
-4.1153e-10
-1.29664e-10
-4.44909e-10
-9.55101e-11
-4.76478e-10
-4.48632e-11
-5.05346e-10
2.16913e-11
-5.2957e-10
1.08322e-10
-5.51201e-10
2.08942e-10
-5.67137e-10
3.26413e-10
-5.78626e-10
-5.78641e-10
4.52609e-10
8.92342e-13
-3.30689e-12
3.28583e-12
-9.3765e-12
6.98601e-12
-1.49797e-11
1.1842e-11
-2.01633e-11
1.77044e-11
-2.49237e-11
2.44364e-11
-2.92726e-11
3.19047e-11
-3.31959e-11
3.99868e-11
-3.67161e-11
4.85564e-11
-3.98086e-11
5.74985e-11
-4.2508e-11
6.66872e-11
-4.47717e-11
7.60118e-11
-4.66532e-11
8.53438e-11
-4.80813e-11
9.45808e-11
-4.91482e-11
1.03584e-10
-4.97387e-11
1.06823e-10
-4.99995e-11
5.61412e-11
-4.79169e-11
4.77858e-11
-5.15879e-11
3.94189e-11
-5.72699e-11
9.59325e-12
-6.5301e-11
-7.71815e-12
-7.64653e-11
-2.43574e-11
-8.32481e-11
-3.56181e-11
-8.39184e-11
-4.53533e-11
-8.5593e-11
-5.11564e-11
-8.7921e-11
-5.30309e-11
-9.07327e-11
-5.28951e-11
-9.27246e-11
-5.25992e-11
-9.41213e-11
-4.93451e-11
-9.54782e-11
-4.17631e-11
-9.68909e-11
-3.66936e-11
-9.66528e-11
-4.27994e-11
-9.51177e-11
-6.22252e-11
-9.29891e-11
-9.59822e-11
-9.07429e-11
-1.46607e-10
-9.33175e-11
-2.131e-10
-1.07247e-10
-2.95608e-10
-1.30428e-10
-3.95293e-10
-1.56737e-10
-5.08737e-10
-1.86147e-10
-6.33344e-10
-2.16363e-10
-7.59747e-10
-2.5393e-10
-8.7196e-10
-2.99317e-10
-9.69198e-10
-3.47672e-10
-1.04962e-09
-3.96053e-10
-1.11181e-09
-4.43157e-10
-1.15318e-09
-4.88205e-10
-1.17304e-09
-5.31332e-10
-1.16983e-09
-5.70353e-10
-1.1462e-09
-6.0225e-10
-6.29717e-10
-1.09513e-09
5.76285e-14
-3.36452e-12
4.69634e-13
-9.78851e-12
1.34213e-12
-1.58522e-11
2.70781e-12
-2.1529e-11
4.60522e-12
-2.68211e-11
7.06622e-12
-3.17336e-11
1.01394e-11
-3.62691e-11
1.38545e-11
-4.04311e-11
1.82639e-11
-4.42181e-11
2.33936e-11
-4.76377e-11
2.93059e-11
-5.06839e-11
3.60254e-11
-5.33727e-11
4.36358e-11
-5.56917e-11
5.21579e-11
-5.76703e-11
6.16926e-11
-5.92733e-11
7.22453e-11
-6.05522e-11
8.35199e-11
-6.2181e-11
8.52897e-11
-6.37726e-11
6.63976e-11
-6.51903e-11
6.93602e-11
-6.91811e-11
6.61658e-11
-7.32709e-11
5.95794e-11
-7.66617e-11
5.33553e-11
-7.76943e-11
4.68771e-11
-7.91149e-11
3.99692e-11
-8.10131e-11
3.2142e-11
-8.29054e-11
2.40394e-11
-8.4622e-11
1.60688e-11
-8.61507e-11
8.20696e-12
-8.76163e-11
3.42031e-13
-8.9026e-11
-6.10754e-12
-9.02032e-11
-9.80253e-12
-9.14227e-11
-9.76253e-12
-9.30291e-11
-5.44425e-12
-9.50611e-11
-1.15784e-12
-9.76039e-11
-7.4081e-12
-1.00997e-10
-3.29335e-11
-1.04903e-10
-8.12629e-11
-1.08407e-10
-1.57844e-10
-1.09566e-10
-2.60518e-10
-1.13689e-10
-3.84963e-10
-1.29485e-10
-5.26347e-10
-1.57932e-10
-6.80331e-10
-1.93688e-10
-8.37692e-10
-2.38692e-10
-9.86635e-10
-2.94214e-10
-1.11828e-09
-3.56561e-10
-1.22672e-09
-4.22889e-10
-1.30659e-09
-4.90485e-10
-1.35127e-09
-5.57574e-10
-6.20492e-10
-1.36049e-09
3.02524e-14
-3.39477e-12
4.38133e-14
-9.80207e-12
6.48145e-14
-1.58732e-11
1.6717e-13
-2.16314e-11
4.2629e-13
-2.70803e-11
9.2121e-13
-3.22286e-11
1.73429e-12
-3.70821e-11
2.94618e-12
-4.1643e-11
4.64122e-12
-4.59131e-11
6.8992e-12
-4.98956e-11
9.80836e-12
-5.35931e-11
1.34469e-11
-5.70113e-11
1.79089e-11
-6.01536e-11
2.32674e-11
-6.30288e-11
2.96365e-11
-6.56424e-11
3.70901e-11
-6.80058e-11
4.50315e-11
-7.01224e-11
5.32554e-11
-7.19965e-11
6.28284e-11
-7.39049e-11
5.91983e-11
-7.55844e-11
5.62839e-11
-7.71731e-11
5.61449e-11
-7.7756e-11
5.71743e-11
-7.90277e-11
5.8804e-11
-8.07446e-11
5.99618e-11
-8.21709e-11
6.01786e-11
-8.31221e-11
5.94091e-11
-8.38526e-11
5.76562e-11
-8.43978e-11
5.50763e-11
-8.50365e-11
5.17453e-11
-8.5695e-11
4.80565e-11
-8.65144e-11
4.41558e-11
-8.7522e-11
3.97374e-11
-8.86106e-11
3.44837e-11
-8.98075e-11
2.80732e-11
-9.11934e-11
1.9895e-11
-9.28186e-11
9.78652e-12
-9.47943e-11
-1.16124e-12
-9.74596e-11
-9.48118e-12
-1.01246e-10
-1.66641e-11
-1.06506e-10
-3.41608e-11
-1.11989e-10
-8.00526e-11
-1.12041e-10
-1.60099e-10
-1.13641e-10
-2.66493e-10
-1.32299e-10
-3.91809e-10
-1.68898e-10
-5.22114e-10
-2.26256e-10
-6.44749e-10
-3.00254e-10
-7.47492e-10
-3.87741e-10
-8.20728e-10
-4.84339e-10
-5.84629e-10
-8.56591e-10
-2.78271e-13
-3.1165e-12
-9.0874e-13
-9.1716e-12
-1.77757e-12
-1.50044e-11
-2.82058e-12
-2.05884e-11
-3.98117e-12
-2.59197e-11
-5.20585e-12
-3.10039e-11
-6.44325e-12
-3.58447e-11
-7.64176e-12
-4.04445e-11
-8.75117e-12
-4.48037e-11
-9.7226e-12
-4.89242e-11
-1.05095e-11
-5.28062e-11
-1.10685e-11
-5.64523e-11
-1.1359e-11
-5.98631e-11
-1.13464e-11
-6.30415e-11
-1.09998e-11
-6.5989e-11
-1.02979e-11
-6.87077e-11
-9.21891e-12
-7.12014e-11
-7.74586e-12
-7.34695e-11
-6.13687e-12
-7.55139e-11
-4.3989e-12
-7.73224e-11
-3.31861e-12
-7.88753e-11
4.17572e-13
-8.03273e-11
1.09433e-11
-8.1673e-11
8.07833e-12
-8.30259e-11
6.84576e-12
-8.41831e-11
6.13131e-12
-8.50279e-11
5.86987e-12
-8.55969e-11
5.9717e-12
-8.58916e-11
5.64721e-12
-8.54829e-11
5.92031e-12
-8.6073e-11
6.75283e-12
-8.7347e-11
7.5088e-12
-8.8278e-11
7.73339e-12
-8.88352e-11
7.18234e-12
-8.92564e-11
5.86221e-12
-8.98733e-11
3.63487e-12
-9.05912e-11
4.25432e-13
-9.15849e-11
-4.22785e-12
-9.28064e-11
-1.12405e-11
-9.42332e-11
-2.17509e-11
-9.59961e-11
-3.53427e-11
-9.83968e-11
-4.55302e-11
-1.01853e-10
-5.22946e-11
-1.06877e-10
-7.08455e-11
-1.13748e-10
-1.15379e-10
-1.24365e-10
-1.93987e-10
-1.47648e-10
-3.01523e-10
-1.92718e-10
-4.25167e-10
-2.64097e-10
-5.45339e-10
-3.64167e-10
-4.88118e-10
-6.4185e-10
-2.06945e-13
-2.90955e-12
-8.56797e-13
-8.52175e-12
-1.91547e-12
-1.39457e-11
-3.31918e-12
-1.91847e-11
-5.0069e-12
-2.42319e-11
-6.92405e-12
-2.90867e-11
-9.01898e-12
-3.37498e-11
-1.12427e-11
-3.82208e-11
-1.35459e-11
-4.25005e-11
-1.58817e-11
-4.65883e-11
-1.82025e-11
-5.04854e-11
-2.04636e-11
-5.41912e-11
-2.26189e-11
-5.77079e-11
-2.46252e-11
-6.10352e-11
-2.64383e-11
-6.41759e-11
-2.80161e-11
-6.713e-11
-2.93163e-11
-6.99011e-11
-3.02966e-11
-7.24892e-11
-3.09119e-11
-7.48987e-11
-3.11055e-11
-7.71288e-11
-3.07946e-11
-7.91862e-11
-3.00517e-11
-8.10703e-11
-2.89327e-11
-8.27921e-11
-2.76551e-11
-8.43259e-11
-2.61888e-11
-8.56827e-11
-2.44511e-11
-8.68326e-11
-2.20273e-11
-8.77834e-11
-1.92829e-11
-8.85212e-11
-1.7202e-11
-8.92547e-11
-2.13855e-11
-8.99262e-11
-2.19455e-11
-9.06016e-11
-2.21655e-11
-9.11247e-11
-2.19323e-11
-9.14033e-11
-2.13949e-11
-9.14002e-11
-2.1527e-11
-9.06179e-11
-2.12687e-11
-9.12339e-11
-2.05161e-11
-9.23375e-11
-2.0236e-11
-9.30864e-11
-2.07637e-11
-9.37055e-11
-2.23734e-11
-9.43864e-11
-2.54208e-11
-9.53494e-11
-3.07387e-11
-9.65351e-11
-3.95216e-11
-9.80938e-11
-5.27237e-11
-1.00546e-10
-7.18773e-11
-1.05212e-10
-1.0402e-10
-1.15506e-10
-1.62561e-10
-1.34176e-10
-2.69974e-10
-1.56685e-10
-4.29728e-10
-2.04413e-10
-2.84198e-10
-6.33648e-10
-2.23607e-13
-8.34389e-13
-1.79449e-12
-3.07243e-12
-4.63208e-12
-6.43663e-12
-8.45061e-12
-1.06387e-11
-1.29668e-11
-1.54005e-11
-1.79066e-11
-2.04513e-11
-2.30027e-11
-2.55282e-11
-2.79976e-11
-3.03795e-11
-3.26458e-11
-3.47669e-11
-3.67167e-11
-3.84671e-11
-3.99948e-11
-4.1275e-11
-4.22918e-11
-4.30031e-11
-4.33759e-11
-4.33474e-11
-4.28585e-11
-4.18371e-11
-4.04172e-11
-3.86789e-11
-3.6777e-11
-3.47236e-11
-3.24494e-11
-2.98857e-11
-2.61841e-11
-3.00126e-11
-3.13807e-11
-2.92509e-11
-2.82204e-11
-2.71445e-11
-2.627e-11
-2.58223e-11
-2.62313e-11
-2.82328e-11
-3.39186e-11
-4.84558e-11
-7.90004e-11
-1.27482e-10
-2.16211e-10
-3.67329e-10
5.38172e-11
-5.15294e-11
6.685e-11
-5.17955e-11
7.64727e-11
-5.17213e-11
8.61541e-11
-5.12142e-11
1.0457e-10
-5.02961e-11
1.41467e-10
-4.84792e-11
2.27586e-10
-4.13894e-11
3.99409e-10
4.74736e-12
5.43869e-10
2.73953e-10
5.03719e-10
7.10482e-10
3.03772e-10
1.04654e-09
-1.26781e-11
1.2743e-09
-4.07232e-10
1.41797e-09
-8.49458e-10
1.50203e-09
-1.3176e-09
1.5472e-09
-1.79746e-09
1.56896e-09
-2.28059e-09
1.5777e-09
-2.76239e-09
1.57977e-09
-3.24062e-09
1.57871e-09
-3.71433e-09
1.57631e-09
-4.1832e-09
1.5734e-09
-4.64721e-09
1.57033e-09
-5.10645e-09
1.56722e-09
-5.56105e-09
1.56413e-09
-6.01115e-09
1.56104e-09
-6.45687e-09
1.55796e-09
-6.89834e-09
1.55488e-09
-7.33567e-09
1.55179e-09
-7.76896e-09
1.54869e-09
-8.19831e-09
1.54558e-09
-8.6238e-09
1.54246e-09
-9.04552e-09
1.53934e-09
-9.46355e-09
1.5362e-09
-9.87795e-09
1.53305e-09
-1.02888e-08
1.5299e-09
-1.06962e-08
1.52674e-09
-1.11001e-08
1.52358e-09
-1.15007e-08
1.5204e-09
-1.1898e-08
1.51722e-09
-1.22921e-08
1.51403e-09
-1.2683e-08
1.51082e-09
-1.30707e-08
1.5076e-09
-1.34554e-08
1.50436e-09
-1.38371e-08
1.5011e-09
-1.42158e-08
1.49781e-09
-1.45916e-08
1.49448e-09
-1.49645e-08
1.4911e-09
-1.53346e-08
1.48766e-09
-1.57019e-08
1.48415e-09
1.48053e-09
-1.60665e-08
5.40651e-11
-6.37144e-11
6.56263e-11
-6.33811e-11
7.68872e-11
-6.29822e-11
8.82287e-11
-6.25557e-11
9.99753e-11
-6.20427e-11
1.12733e-10
-6.12366e-11
1.29459e-10
-5.8116e-11
1.5605e-10
-2.18435e-11
7.93866e-11
3.50617e-10
-5.72395e-11
8.47108e-10
-2.56884e-10
1.24618e-09
-5.14937e-10
1.53235e-09
-8.21152e-10
1.72418e-09
-1.16284e-09
1.84371e-09
-1.52799e-09
1.91235e-09
-1.907e-09
1.94797e-09
-2.29307e-09
1.96378e-09
-2.68186e-09
1.96857e-09
-3.07085e-09
1.9677e-09
-3.45869e-09
1.96415e-09
-3.84472e-09
1.95943e-09
-4.22867e-09
1.95427e-09
-4.61042e-09
1.94897e-09
-4.98995e-09
1.94366e-09
-5.36728e-09
1.93837e-09
-5.74242e-09
1.9331e-09
-6.1154e-09
1.92786e-09
-6.48624e-09
1.92262e-09
-6.85495e-09
1.9174e-09
-7.22155e-09
1.91218e-09
-7.58605e-09
1.90696e-09
-7.94845e-09
1.90174e-09
-8.30878e-09
1.89652e-09
-8.66702e-09
1.8913e-09
-9.02319e-09
1.88607e-09
-9.37729e-09
1.88084e-09
-9.72932e-09
1.87561e-09
-1.00793e-08
1.87038e-09
-1.04272e-08
1.86515e-09
-1.07731e-08
1.85991e-09
-1.11169e-08
1.85466e-09
-1.14587e-08
1.8494e-09
-1.17985e-08
1.84414e-09
-1.21363e-08
1.83886e-09
-1.2472e-08
1.83356e-09
-1.28058e-08
1.82824e-09
-1.31376e-08
1.82288e-09
-1.34674e-08
1.81746e-09
-1.37952e-08
1.81199e-09
1.80641e-09
-1.41211e-08
-4.03575e-11
-6.94295e-11
-3.49154e-11
-6.88232e-11
-2.98718e-11
-6.80258e-11
-2.64554e-11
-6.59721e-11
-2.44528e-11
-6.40453e-11
-1.86062e-11
-6.70831e-11
-5.44372e-11
-2.2285e-11
-2.19126e-10
1.42845e-10
-5.28443e-10
6.59934e-10
-8.10937e-10
1.1296e-09
-1.06919e-09
1.50443e-09
-1.32014e-09
1.7833e-09
-1.57444e-09
1.97849e-09
-1.83692e-09
2.10619e-09
-2.10833e-09
2.18376e-09
-2.38732e-09
2.22695e-09
-2.67184e-09
2.2483e-09
-2.96e-09
2.25673e-09
-3.25037e-09
2.25807e-09
-3.54199e-09
2.25576e-09
-3.83427e-09
2.25172e-09
-4.1269e-09
2.24689e-09
-4.41968e-09
2.24175e-09
-4.71251e-09
2.23649e-09
-5.00533e-09
2.23118e-09
-5.29808e-09
2.22585e-09
-5.59073e-09
2.2205e-09
-5.88323e-09
2.21513e-09
-6.17555e-09
2.20972e-09
-6.46764e-09
2.20427e-09
-6.75947e-09
2.19879e-09
-7.05098e-09
2.19326e-09
-7.34214e-09
2.18768e-09
-7.63289e-09
2.18205e-09
-7.92319e-09
2.17637e-09
-8.213e-09
2.17065e-09
-8.50227e-09
2.16488e-09
-8.79095e-09
2.15907e-09
-9.07902e-09
2.15321e-09
-9.36642e-09
2.14731e-09
-9.65311e-09
2.14136e-09
-9.93907e-09
2.13536e-09
-1.02243e-08
2.12932e-09
-1.05086e-08
2.12324e-09
-1.07922e-08
2.11711e-09
-1.10749e-08
2.11092e-09
-1.13566e-08
2.10467e-09
-1.16375e-08
2.09834e-09
-1.19175e-08
2.09193e-09
2.08539e-09
-1.21964e-08
5.24039e-11
-6.66317e-11
5.08951e-11
-6.73145e-11
6.77461e-11
-8.48768e-11
8.30669e-11
-8.12929e-11
6.43858e-11
-4.53643e-11
-4.84552e-11
4.57579e-11
-2.99886e-10
2.29146e-10
-7.33977e-10
5.76936e-10
-1.11698e-09
1.04294e-09
-1.42644e-09
1.43906e-09
-1.68024e-09
1.75823e-09
-1.89907e-09
2.00212e-09
-2.09889e-09
2.17831e-09
-2.29084e-09
2.29814e-09
-2.48163e-09
2.37455e-09
-2.67459e-09
2.41991e-09
-2.87089e-09
2.4446e-09
-3.0706e-09
2.45644e-09
-3.27331e-09
2.46078e-09
-3.47856e-09
2.46102e-09
-3.68596e-09
2.45912e-09
-3.89524e-09
2.45617e-09
-4.10619e-09
2.45271e-09
-4.3187e-09
2.449e-09
-4.53268e-09
2.44516e-09
-4.74805e-09
2.44122e-09
-4.96474e-09
2.4372e-09
-5.18271e-09
2.4331e-09
-5.40189e-09
2.4289e-09
-5.62222e-09
2.42461e-09
-5.84365e-09
2.42021e-09