/*--------------------------------*- C++ -*----------------------------------*\
| =========                 |                                                 |
| \\      /  F ield         | OpenFOAM: The Open Source CFD Toolbox           |
|  \\    /   O peration     | Version:  2.4.0                                 |
|   \\  /    A nd           | Web:      www.OpenFOAM.org                      |
|    \\/     M anipulation  |                                                 |
\*---------------------------------------------------------------------------*/
FoamFile
{
    version     2.0;
    format      ascii;
    class       volScalarField;
    location    "0.01";
    object      p;
}
// * * * * * * * * * * * * * * * * * * * * * * * * * * * * * * * * * * * * * //

dimensions      [1 -1 -2 0 0 0 0];

internalField   nonuniform List<scalar> 
125
(
-0.0271293
-0.0273484
-0.0275683
-0.027789
-0.0280104
-0.0282328
-0.0284559
-0.0286798
-0.0289046
-0.0291302
-0.0293566
-0.0295839
-0.029812
-0.030041
-0.0302707
-0.0305014
-0.0307328
-0.0309652
-0.0311984
-0.0314324
-0.0316673
-0.0319031
-0.0321397
-0.0323772
-0.0326156
-0.0328549
-0.033095
-0.0333361
-0.033578
-0.0338208
-0.0340645
-0.0343091
-0.0345546
-0.034801
-0.0350483
-0.0352965
-0.0355456
-0.0357957
-0.0360466
-0.0362985
-0.0365513
-0.0368051
-0.0370598
-0.0373154
-0.037572
-0.0378295
-0.0380879
-0.0383473
-0.0386077
-0.038869
-0.0391313
-0.0393945
-0.0396588
-0.0399239
-0.0401901
-0.0404572
-0.0407254
-0.0409945
-0.0412646
-0.0415357
-0.0418078
-0.0420809
-0.042355
-0.0426301
-0.0429062
-0.0431834
-0.0434615
-0.0437407
-0.0440209
-0.0443022
-0.0445845
-0.0448678
-0.0451522
-0.0454376
-0.045724
-0.0460115
-0.0463001
-0.0465898
-0.0468805
-0.0471722
-0.0474651
-0.047759
-0.048054
-0.0483501
-0.0486473
-0.0489456
-0.0492449
-0.0495454
-0.049847
-0.0501497
-0.0504535
-0.0507584
-0.0510645
-0.0513716
-0.0516799
-0.0519894
-0.0523
-0.0526117
-0.0529246
-0.0532386
-0.0535538
-0.0538701
-0.0541876
-0.0545063
-0.0548261
-0.0551471
-0.0554693
-0.0557927
-0.0561173
-0.0564431
-0.0567701
-0.0570982
-0.0574276
-0.0577582
-0.05809
-0.0584231
-0.0587573
-0.0590928
-0.0594296
-0.0597675
-0.0601067
-0.0604472
-0.0607889
-0.0611319
-0.0614761
)
;

boundaryField
{
    BotWall
    {
        type            calculated;
        value           nonuniform 0();
    }
    FreeStream
    {
        type            calculated;
        value           nonuniform 0();
    }
    FrontNBack
    {
        type            empty;
    }
    LeftSide
    {
        type            symmetryPlane;
    }
    RightSide
    {
        type            symmetryPlane;
    }
    procBoundary3to0
    {
        type            processor;
        value           nonuniform List<scalar> 
50
(
-0.0460166
-0.0463051
-0.0465947
-0.0468854
-0.0471771
-0.0474699
-0.0477637
-0.0480587
-0.0483547
-0.0486518
-0.04895
-0.0492494
-0.0495498
-0.0498513
-0.0501539
-0.0504577
-0.0507626
-0.0510685
-0.0513757
-0.0516839
-0.0519933
-0.0523038
-0.0526155
-0.0529283
-0.0532423
-0.0535574
-0.0538737
-0.0541911
-0.0545097
-0.0548295
-0.0551505
-0.0554727
-0.055796
-0.0561205
-0.0564462
-0.0567732
-0.0571013
-0.0574306
-0.0577612
-0.0580929
-0.0584259
-0.0587601
-0.0590956
-0.0594322
-0.0597702
-0.0601093
-0.0604497
-0.0607914
-0.0611343
-0.0614785
)
;
    }
    procBoundary3to1
    {
        type            processor;
        value           nonuniform List<scalar> 
75
(
-0.0271396
-0.0273586
-0.0275784
-0.027799
-0.0280204
-0.0282426
-0.0284657
-0.0286896
-0.0289143
-0.0291398
-0.0293661
-0.0295933
-0.0298213
-0.0300502
-0.0302799
-0.0305105
-0.0307419
-0.0309741
-0.0312072
-0.0314412
-0.031676
-0.0319117
-0.0321483
-0.0323857
-0.0326241
-0.0328632
-0.0331033
-0.0333443
-0.0335861
-0.0338288
-0.0340725
-0.034317
-0.0345624
-0.0348088
-0.035056
-0.0353041
-0.0355532
-0.0358032
-0.0360541
-0.0363059
-0.0365586
-0.0368123
-0.0370669
-0.0373225
-0.037579
-0.0378364
-0.0380948
-0.0383542
-0.0386145
-0.0388757
-0.0391379
-0.0394011
-0.0396653
-0.0399304
-0.0401965
-0.0404636
-0.0407316
-0.0410007
-0.0412707
-0.0415418
-0.0418138
-0.0420868
-0.0423609
-0.0426359
-0.042912
-0.0431891
-0.0434672
-0.0437463
-0.0440265
-0.0443077
-0.0445899
-0.0448731
-0.0451574
-0.0454428
-0.0457292
)
;
    }
    procBoundary3to2
    {
        type            processor;
        value           uniform -0.0618216;
    }
    procBoundary3to4
    {
        type            processor;
        value           uniform -0.0269111;
    }
    procBoundary3to5
    {
        type            processor;
        value           nonuniform List<scalar> 
75
(
-0.0391287
-0.0393919
-0.0396561
-0.0399213
-0.0401875
-0.0404547
-0.0407228
-0.0409919
-0.041262
-0.0415332
-0.0418053
-0.0420784
-0.0423525
-0.0426276
-0.0429038
-0.0431809
-0.0434591
-0.0437383
-0.0440185
-0.0442998
-0.0445821
-0.0448654
-0.0451498
-0.0454352
-0.0457217
-0.0460092
-0.0462978
-0.0465875
-0.0468782
-0.04717
-0.0474628
-0.0477568
-0.0480518
-0.0483479
-0.0486451
-0.0489434
-0.0492428
-0.0495433
-0.0498449
-0.0501476
-0.0504514
-0.0507564
-0.0510624
-0.0513696
-0.0516779
-0.0519874
-0.052298
-0.0526097
-0.0529226
-0.0532367
-0.0535519
-0.0538682
-0.0541857
-0.0545044
-0.0548243
-0.0551453
-0.0554676
-0.055791
-0.0561156
-0.0564414
-0.0567684
-0.0570966
-0.057426
-0.0577566
-0.0580884
-0.0584215
-0.0587558
-0.0590913
-0.059428
-0.059766
-0.0601052
-0.0604457
-0.0607875
-0.0611305
-0.0614747
)
;
    }
    procBoundary3to6
    {
        type            processor;
        value           nonuniform List<scalar> 
50
(
-0.0271262
-0.0273453
-0.0275651
-0.0277858
-0.0280073
-0.0282296
-0.0284528
-0.0286767
-0.0289015
-0.0291271
-0.0293536
-0.0295808
-0.0298089
-0.0300379
-0.0302677
-0.0304983
-0.0307298
-0.0309622
-0.0311954
-0.0314294
-0.0316643
-0.0319001
-0.0321368
-0.0323743
-0.0326127
-0.0328519
-0.0330921
-0.0333331
-0.0335751
-0.0338179
-0.0340616
-0.0343062
-0.0345517
-0.0347981
-0.0350454
-0.0352937
-0.0355428
-0.0357929
-0.0360438
-0.0362957
-0.0365486
-0.0368023
-0.037057
-0.0373127
-0.0375693
-0.0378268
-0.0380852
-0.0383447
-0.038605
-0.0388664
)
;
    }
}


// ************************************************************************* //
