/*--------------------------------*- C++ -*----------------------------------*\
| =========                 |                                                 |
| \\      /  F ield         | OpenFOAM: The Open Source CFD Toolbox           |
|  \\    /   O peration     | Version:  2.4.0                                 |
|   \\  /    A nd           | Web:      www.OpenFOAM.org                      |
|    \\/     M anipulation  |                                                 |
\*---------------------------------------------------------------------------*/
FoamFile
{
    version     2.0;
    format      ascii;
    class       volScalarField;
    location    "2";
    object      H;
}
// * * * * * * * * * * * * * * * * * * * * * * * * * * * * * * * * * * * * * //

dimensions      [0 2 -2 0 0 0 0];

internalField   nonuniform List<scalar> 
125
(
-11903
-11903
-11903
-11903
-11903
-11245.5
-11245.5
-11245.5
-11245.5
-11245.5
-10580.8
-10580.8
-10580.8
-10580.8
-10580.8
-9909.15
-9909.16
-9909.17
-9909.17
-9909.15
-9230.51
-9230.53
-9230.54
-9230.53
-9230.51
-8544.94
-8544.96
-8544.96
-8544.96
-8544.94
-7852.43
-7852.45
-7852.46
-7852.45
-7852.43
-7152.93
-7152.95
-7152.96
-7152.96
-7152.93
-6446.34
-6446.36
-6446.36
-6446.36
-6446.34
-5732.47
-5732.49
-5732.49
-5732.49
-5732.47
-5011.07
-5011.08
-5011.08
-5011.08
-5011.07
-4281.81
-4281.81
-4281.8
-4281.81
-4281.81
-3544.26
-3544.25
-3544.24
-3544.25
-3544.26
-2797.93
-2797.91
-2797.89
-2797.9
-2797.93
-2042.23
-2042.21
-2042.17
-2042.19
-2042.23
-1276.53
-1276.5
-1276.45
-1276.48
-1276.53
-85.0223
-84.998
-84.9754
-84.9884
-85.026
-65.3263
-65.3072
-65.2896
-65.2997
-65.3291
-65.9857
-65.9668
-65.9493
-65.9594
-65.9885
-66.5798
-66.5612
-66.5439
-66.5538
-66.5826
-67.1071
-67.0886
-67.0716
-67.0814
-67.1098
-67.5657
-67.5475
-67.5307
-67.5404
-67.5684
-67.9543
-67.9364
-67.9198
-67.9294
-67.9569
-68.2715
-68.2538
-68.2375
-68.2469
-68.274
-68.5159
-68.4986
-68.4826
-68.4918
-68.5184
)
;

boundaryField
{
    BotWall
    {
        type            zeroGradient;
    }
    FreeStream
    {
        type            zeroGradient;
    }
    FrontNBack
    {
        type            empty;
    }
    LeftSide
    {
        type            symmetryPlane;
    }
    RightSide
    {
        type            symmetryPlane;
    }
    procBoundary0to1
    {
        type            processor;
        value           nonuniform List<scalar> 5(-68.6708 -68.6539 -68.6382 -68.6472 -68.6733);
    }
}


// ************************************************************************* //
