/*--------------------------------*- C++ -*----------------------------------*\
| =========                 |                                                 |
| \\      /  F ield         | OpenFOAM: The Open Source CFD Toolbox           |
|  \\    /   O peration     | Version:  2.4.0                                 |
|   \\  /    A nd           | Web:      www.OpenFOAM.org                      |
|    \\/     M anipulation  |                                                 |
\*---------------------------------------------------------------------------*/
FoamFile
{
    version     2.0;
    format      ascii;
    class       surfaceScalarField;
    location    "2";
    object      phi;
}
// * * * * * * * * * * * * * * * * * * * * * * * * * * * * * * * * * * * * * //

dimensions      [0 3 -1 0 0 0 0];

internalField   nonuniform List<scalar> 
220
(
1.28495e-18
-1.28506e-18
1.11873e-18
1.6654e-19
-7.51089e-19
1.86992e-18
-1.55862e-18
8.07738e-19
-1.55873e-18
3.92337e-18
-5.2097e-18
3.36761e-18
7.2018e-19
-2.26344e-18
7.49797e-18
-4.75031e-18
3.29223e-18
-6.31078e-18
6.63495e-18
-1.18462e-17
5.66008e-18
1.69268e-18
-3.80951e-18
1.69643e-17
-8.02956e-18
7.50974e-18
-1.43421e-17
9.44636e-18
-2.12942e-17
8.01823e-18
3.11826e-18
-5.41016e-18
3.03893e-17
-1.1427e-17
1.35239e-17
-2.57708e-17
1.2322e-17
-3.36179e-17
1.04248e-17
5.0128e-18
-7.04926e-18
4.78598e-17
-1.49042e-17
2.13762e-17
-4.06768e-17
1.53138e-17
-4.89335e-17
1.29077e-17
7.41622e-18
-8.75124e-18
6.95153e-17
-1.85182e-17
3.11405e-17
-5.91966e-17
1.83691e-17
-6.73044e-17
1.54422e-17
1.03405e-17
-1.04913e-17
9.54453e-17
-2.22181e-17
4.28647e-17
-8.14163e-17
2.15551e-17
-8.88612e-17
1.80606e-17
1.38325e-17
-1.23019e-17
1.25805e-16
-2.60718e-17
5.66321e-17
-1.0749e-16
2.48075e-17
-1.1367e-16
2.07328e-17
1.79049e-17
-1.41524e-17
1.60687e-16
-3.00165e-17
7.2494e-17
-1.37508e-16
2.82021e-17
-1.41874e-16
2.34961e-17
2.26086e-17
-1.60799e-17
2.0026e-16
-3.41284e-17
9.05404e-17
-1.71637e-16
3.16653e-17
-1.73541e-16
2.63158e-17
2.79562e-17
-1.80503e-17
2.44623e-16
-3.8336e-17
1.10824e-16
-2.09974e-16
3.52746e-17
-2.08817e-16
2.923e-17
3.3999e-17
-2.01037e-17
2.93955e-16
-4.27163e-17
1.33435e-16
-2.52691e-16
3.89659e-17
-2.47784e-16
3.22044e-17
4.0759e-17
-2.22065e-17
3.48364e-16
-4.72038e-17
1.58432e-16
-2.99896e-16
4.28586e-17
-2.90643e-16
3.53365e-17
4.82802e-17
-2.44418e-17
4.08141e-16
-5.19357e-17
1.85925e-16
-3.51832e-16
4.69808e-17
-3.37624e-16
3.84272e-17
5.68333e-17
-2.66328e-17
4.73201e-16
-5.69623e-17
2.16254e-16
-4.08794e-16
5.13164e-17
-2.55152e-15
4.21178e-17
6.6033e-17
-2.91734e-17
5.44491e-16
-6.25306e-17
2.49612e-16
-3.09216e-15
5.75291e-17
-2.8457e-10
4.75008e-17
-2.84574e-10
-3.25198e-17
-2.84577e-10
-7.1362e-17
-2.84575e-10
-2.8457e-10
5.8546e-17
-2.8457e-10
4.77308e-17
-2.84574e-10
-3.32965e-17
-2.84577e-10
-7.11544e-17
-2.84575e-10
-2.8457e-10
5.66768e-17
-2.8457e-10
4.53138e-17
-2.84574e-10
-2.97587e-17
-2.84577e-10
-7.08102e-17
-2.84575e-10
-2.8457e-10
4.385e-17
-2.84571e-10
4.09591e-17
-2.84574e-10
-2.54359e-17
-2.84577e-10
-5.80123e-17
-2.84575e-10
-2.8457e-10
3.62087e-17
-2.84571e-10
3.64846e-17
-2.84574e-10
-2.06446e-17
-2.84577e-10
-5.09045e-17
-2.84575e-10
-2.8457e-10
2.98947e-17
-2.84571e-10
3.25067e-17
-2.84574e-10
-1.62011e-17
-2.84577e-10
-4.53113e-17
-2.84575e-10
-2.8457e-10
2.31914e-17
-2.84571e-10
2.88624e-17
-2.84574e-10
-1.20498e-17
-2.84576e-10
-3.93533e-17
-2.84575e-10
-2.8457e-10
1.62574e-17
-2.84571e-10
2.53368e-17
-2.84574e-10
-7.99036e-18
-2.84576e-10
-3.31705e-17
-2.84575e-10
-2.8457e-10
9.50481e-18
2.19022e-17
-3.98702e-18
-2.71844e-17
)
;

boundaryField
{
    BotWall
    {
        type            calculated;
        value           nonuniform List<scalar> 5(-3.8211e-24 -4.84148e-23 -1.39074e-22 -1.3274e-22 -4.36795e-24);
    }
    FreeStream
    {
        type            calculated;
        value           nonuniform 0();
    }
    FrontNBack
    {
        type            empty;
        value           nonuniform 0();
    }
    LeftSide
    {
        type            symmetryPlane;
        value           uniform 0;
    }
    RightSide
    {
        type            symmetryPlane;
        value           uniform 0;
    }
    procBoundary0to1
    {
        type            processor;
        value           nonuniform List<scalar> 5(-2.84571e-10 -2.84574e-10 -2.84576e-10 -2.84575e-10 -2.8457e-10);
    }
}


// ************************************************************************* //
