/*--------------------------------*- C++ -*----------------------------------*\
| =========                 |                                                 |
| \\      /  F ield         | OpenFOAM: The Open Source CFD Toolbox           |
|  \\    /   O peration     | Version:  2.4.0                                 |
|   \\  /    A nd           | Web:      www.OpenFOAM.org                      |
|    \\/     M anipulation  |                                                 |
\*---------------------------------------------------------------------------*/
FoamFile
{
    version     2.0;
    format      ascii;
    class       volScalarField;
    location    "2";
    object      T;
}
// * * * * * * * * * * * * * * * * * * * * * * * * * * * * * * * * * * * * * //

dimensions      [0 0 0 1 0 0 0];

internalField   nonuniform List<scalar> 
125
(
293.134
293.134
293.134
293.134
293.134
293.403
293.403
293.403
293.403
293.403
293.674
293.674
293.674
293.674
293.674
293.949
293.949
293.949
293.949
293.949
294.226
294.226
294.226
294.226
294.226
294.507
294.507
294.507
294.507
294.507
294.79
294.79
294.79
294.79
294.79
295.076
295.076
295.076
295.076
295.076
295.365
295.365
295.365
295.365
295.365
295.656
295.656
295.656
295.656
295.656
295.951
295.951
295.951
295.951
295.951
296.249
296.249
296.249
296.249
296.249
296.551
296.551
296.551
296.551
296.551
296.856
296.856
296.856
296.856
296.856
297.165
297.165
297.165
297.165
297.165
297.478
297.478
297.478
297.478
297.478
297.964
297.964
297.964
297.964
297.964
297.964
297.964
297.964
297.964
297.964
297.964
297.964
297.964
297.964
297.964
297.963
297.963
297.963
297.963
297.963
297.963
297.963
297.963
297.963
297.963
297.963
297.963
297.963
297.963
297.963
297.963
297.963
297.963
297.963
297.963
297.962
297.962
297.962
297.962
297.962
297.962
297.962
297.962
297.962
297.962
)
;

boundaryField
{
    BotWall
    {
        type            fixedValue;
        value           uniform 293;
    }
    FreeStream
    {
        type            fixedValue;
        value           nonuniform 0();
    }
    FrontNBack
    {
        type            empty;
    }
    LeftSide
    {
        type            symmetryPlane;
    }
    RightSide
    {
        type            symmetryPlane;
    }
    procBoundary0to1
    {
        type            processor;
        value           nonuniform List<scalar> 5(297.962 297.962 297.962 297.962 297.962);
    }
}


// ************************************************************************* //
