/*--------------------------------*- C++ -*----------------------------------*\
| =========                 |                                                 |
| \\      /  F ield         | OpenFOAM: The Open Source CFD Toolbox           |
|  \\    /   O peration     | Version:  2.4.0                                 |
|   \\  /    A nd           | Web:      www.OpenFOAM.org                      |
|    \\/     M anipulation  |                                                 |
\*---------------------------------------------------------------------------*/
FoamFile
{
    version     2.0;
    format      ascii;
    class       volVectorField;
    location    "2";
    object      U;
}
// * * * * * * * * * * * * * * * * * * * * * * * * * * * * * * * * * * * * * //

dimensions      [0 1 -1 0 0 0 0];

internalField   nonuniform List<vector> 
125
(
(2.85779e-10 1.06164e-09 0)
(6.56991e-10 1.07983e-09 0)
(1.46551e-10 1.08138e-09 0)
(-6.84114e-10 1.08045e-09 0)
(-4.55345e-10 1.06138e-09 0)
(8.65857e-10 -2.7383e-09 0)
(1.97164e-09 -2.7665e-09 0)
(4.37721e-10 -2.74851e-09 0)
(-2.05458e-09 -2.75984e-09 0)
(-1.37417e-09 -2.74113e-09 0)
(1.45181e-09 4.68218e-09 0)
(3.28812e-09 4.80112e-09 0)
(7.28208e-10 4.85143e-09 0)
(-3.42888e-09 4.8205e-09 0)
(-2.30018e-09 4.67386e-09 0)
(2.05373e-09 -6.65616e-09 0)
(4.61629e-09 -6.66669e-09 0)
(1.01786e-09 -6.56384e-09 0)
(-4.81714e-09 -6.6278e-09 0)
(-3.24365e-09 -6.67284e-09 0)
(2.65864e-09 8.11204e-09 0)
(5.94321e-09 8.39571e-09 0)
(1.30665e-09 8.56547e-09 0)
(-6.20618e-09 8.46093e-09 0)
(-4.19141e-09 8.0839e-09 0)
(3.28367e-09 -1.10956e-08 0)
(7.28645e-09 -1.10214e-08 0)
(1.59523e-09 -1.0762e-08 0)
(-7.61387e-09 -1.09228e-08 0)
(-5.16157e-09 -1.1138e-08 0)
(3.91013e-09 1.41363e-08 0)
(8.62759e-09 1.46564e-08 0)
(1.88384e-09 1.50193e-08 0)
(-9.02212e-09 1.47957e-08 0)
(-6.13608e-09 1.40762e-08 0)
(4.55985e-09 -8.43682e-09 0)
(9.98845e-09 -8.20141e-09 0)
(2.17257e-09 -7.70919e-09 0)
(-1.04529e-08 -8.01387e-09 0)
(-7.13716e-09 -8.51796e-09 0)
(5.21057e-09 2.44002e-08 0)
(1.13469e-08 2.52226e-08 0)
(2.46156e-09 2.58554e-08 0)
(-1.18843e-08 2.54654e-08 0)
(-8.14284e-09 2.42942e-08 0)
(5.88667e-09 -6.2953e-08 0)
(1.27273e-08 -6.2528e-08 0)
(2.75088e-09 -6.17383e-08 0)
(-1.33406e-08 -6.22272e-08 0)
(-9.1777e-09 -6.30857e-08 0)
(6.56385e-09 -1.64557e-07 0)
(1.41051e-08 -1.63456e-07 0)
(3.04047e-09 -1.62524e-07 0)
(-1.47976e-08 -1.63101e-07 0)
(-1.02179e-08 -1.64716e-07 0)
(7.26768e-09 -2.08666e-07 0)
(1.55055e-08 -2.07878e-07 0)
(3.3303e-09 -2.06751e-07 0)
(-1.62811e-08 -2.07451e-07 0)
(-1.12894e-08 -2.08852e-07 0)
(7.97648e-09 1.11789e-06 0)
(1.69079e-08 1.12025e-06 0)
(3.62094e-09 1.12189e-06 0)
(-1.77704e-08 1.12089e-06 0)
(-1.23713e-08 1.11765e-06 0)
(8.7225e-09 4.98325e-06 0)
(1.83486e-08 4.98646e-06 0)
(3.91427e-09 4.98939e-06 0)
(-1.93026e-08 4.98763e-06 0)
(-1.34986e-08 4.98281e-06 0)
(9.48504e-09 3.79408e-06 0)
(1.97954e-08 3.79751e-06 0)
(4.20708e-09 3.8009e-06 0)
(-2.08516e-08 3.79887e-06 0)
(-1.46535e-08 3.7934e-06 0)
(1.02569e-08 -2.25322e-05 0)
(2.1283e-08 -2.25365e-05 0)
(4.5125e-09 -2.25394e-05 0)
(-2.24409e-08 -2.25379e-05 0)
(-1.58311e-08 -2.25325e-05 0)
(1.12224e-08 -0.000177027 0)
(2.31381e-08 -0.000177067 0)
(4.89258e-09 -0.000177105 0)
(-2.44394e-08 -0.000177083 0)
(-1.73197e-08 -0.000177022 0)
(1.15564e-08 -0.00114488 0)
(2.37835e-08 -0.00114487 0)
(5.02658e-09 -0.00114486 0)
(-2.51239e-08 -0.00114486 0)
(-1.78268e-08 -0.00114489 0)
(1.03951e-08 -0.00260541 0)
(2.20345e-08 -0.00260541 0)
(5.28427e-09 -0.00260541 0)
(-2.35365e-08 -0.00260541 0)
(-1.69904e-08 -0.00260541 0)
(7.83665e-09 -0.00144759 0)
(1.85459e-08 -0.00144765 0)
(5.38739e-09 -0.00144767 0)
(-2.01668e-08 -0.00144766 0)
(-1.45613e-08 -0.00144759 0)
(5.84143e-09 -0.00135251 0)
(1.5679e-08 -0.00135253 0)
(5.50815e-09 -0.00135255 0)
(-1.74222e-08 -0.00135254 0)
(-1.27181e-08 -0.00135251 0)
(4.12825e-09 -0.00138915 0)
(1.31593e-08 -0.00138916 0)
(5.64835e-09 -0.00138917 0)
(-1.50283e-08 -0.00138916 0)
(-1.11815e-08 -0.00138915 0)
(2.46426e-09 -0.00142084 0)
(1.07376e-08 -0.00142085 0)
(5.80011e-09 -0.00142086 0)
(-1.27322e-08 -0.00142086 0)
(-9.70733e-09 -0.00142084 0)
(8.19695e-10 -0.001426 0)
(8.37583e-09 -0.00142602 0)
(5.95906e-09 -0.00142603 0)
(-1.0494e-08 -0.00142602 0)
(-8.25967e-09 -0.001426 0)
(-7.61238e-10 -0.00142419 0)
(6.11856e-09 -0.00142421 0)
(6.12441e-09 -0.00142422 0)
(-8.35747e-09 -0.00142422 0)
(-6.88119e-09 -0.00142419 0)
)
;

boundaryField
{
    BotWall
    {
        type            fixedValue;
        value           uniform (0 0 0);
    }
    FreeStream
    {
        type            zeroGradient;
    }
    FrontNBack
    {
        type            empty;
    }
    LeftSide
    {
        type            symmetryPlane;
    }
    RightSide
    {
        type            symmetryPlane;
    }
    procBoundary0to1
    {
        type            processor;
        value           nonuniform List<vector> 5((-2.25624e-09 -0.00142294 0) (3.98965e-09 -0.00142295 0) (6.29594e-09 -0.00142296 0) (-6.34612e-09 -0.00142296 0) (-5.59373e-09 -0.00142293 0));
    }
}


// ************************************************************************* //
