/*--------------------------------*- C++ -*----------------------------------*\
| =========                 |                                                 |
| \\      /  F ield         | OpenFOAM: The Open Source CFD Toolbox           |
|  \\    /   O peration     | Version:  2.4.0                                 |
|   \\  /    A nd           | Web:      www.OpenFOAM.org                      |
|    \\/     M anipulation  |                                                 |
\*---------------------------------------------------------------------------*/
FoamFile
{
    version     2.0;
    format      ascii;
    class       volScalarField;
    location    "1.9";
    object      p;
}
// * * * * * * * * * * * * * * * * * * * * * * * * * * * * * * * * * * * * * //

dimensions      [1 -1 -2 0 0 0 0];

internalField   nonuniform List<scalar> 
8000
(
-0.517006
-0.517876
-0.518866
-0.519861
-0.520875
-0.521922
-0.523006
-0.524126
-0.525284
-0.526477
-0.52771
-0.52898
-0.530296
-0.531646
-0.533029
-0.534455
-0.536101
-0.53828
-0.540578
-0.538909
-0.525207
-0.510803
-0.599667
-0.99176
-1.3875
-0.460699
-0.459966
-0.460059
-0.460102
-0.460106
-0.460102
-0.4601
-0.4601
-0.460099
-0.460099
-0.460098
-0.460098
-0.460097
-0.460096
-0.460096
-0.460095
-0.460094
-0.460093
-0.460092
-0.460091
-0.460089
-0.460088
-0.460087
-0.460086
-0.460084
-0.565638
-0.566627
-0.567713
-0.568732
-0.569693
-0.570616
-0.571512
-0.572378
-0.573215
-0.574021
-0.574798
-0.575543
-0.576258
-0.576931
-0.577557
-0.578147
-0.578864
-0.579951
-0.58086
-0.577675
-0.56393
-0.554101
-0.647712
-1.00237
-1.24748
-0.483069
-0.482436
-0.482555
-0.482598
-0.4826
-0.482596
-0.482594
-0.482593
-0.482593
-0.482592
-0.482591
-0.482591
-0.48259
-0.482589
-0.482588
-0.482587
-0.482585
-0.482584
-0.482583
-0.482581
-0.48258
-0.482578
-0.482577
-0.482575
-0.482573
-0.622576
-0.623047
-0.623583
-0.624112
-0.624639
-0.625172
-0.625719
-0.626278
-0.626852
-0.62744
-0.628045
-0.628665
-0.629305
-0.629953
-0.63061
-0.631288
-0.632133
-0.633337
-0.634365
-0.631789
-0.620474
-0.614567
-0.701408
-1.00433
-1.14061
-0.505544
-0.504917
-0.505046
-0.505088
-0.505089
-0.505085
-0.505083
-0.505082
-0.505082
-0.505081
-0.505081
-0.50508
-0.505079
-0.505078
-0.505077
-0.505075
-0.505074
-0.505073
-0.505071
-0.505069
-0.505068
-0.505066
-0.505064
-0.505062
-0.50506
-0.676814
-0.676652
-0.676494
-0.676374
-0.676294
-0.67625
-0.676243
-0.676273
-0.676344
-0.676455
-0.676609
-0.676806
-0.677049
-0.677332
-0.677654
-0.678024
-0.678546
-0.679392
-0.680243
-0.678575
-0.669996
-0.663071
-0.722881
-0.95469
-1.07035
-0.528066
-0.527423
-0.527562
-0.527604
-0.527604
-0.527599
-0.527597
-0.527597
-0.527596
-0.527595
-0.527594
-0.527593
-0.527592
-0.527591
-0.527589
-0.527587
-0.527586
-0.527584
-0.527582
-0.527579
-0.527577
-0.527575
-0.527572
-0.527569
-0.527567
-0.725363
-0.724378
-0.72331
-0.722339
-0.721461
-0.720656
-0.719917
-0.719246
-0.718643
-0.718111
-0.717648
-0.717256
-0.716933
-0.716678
-0.716478
-0.716352
-0.716383
-0.716756
-0.717177
-0.715289
-0.706641
-0.698537
-0.751885
-0.972333
-1.0752
-0.550625
-0.549954
-0.550105
-0.550146
-0.550145
-0.55014
-0.550138
-0.550137
-0.550136
-0.550135
-0.550133
-0.550131
-0.550129
-0.550127
-0.550125
-0.550122
-0.55012
-0.550117
-0.550114
-0.550111
-0.550107
-0.550104
-0.5501
-0.550096
-0.550093
-0.767866
-0.765623
-0.763198
-0.760995
-0.758995
-0.757148
-0.755434
-0.753857
-0.752412
-0.751106
-0.749933
-0.748903
-0.748006
-0.747253
-0.746624
-0.746152
-0.745926
-0.746191
-0.746616
-0.744529
-0.734586
-0.724669
-0.784639
-1.042
-1.16279
-0.573203
-0.57251
-0.572673
-0.572712
-0.572709
-0.572704
-0.572701
-0.5727
-0.572698
-0.572696
-0.572694
-0.572691
-0.572688
-0.572685
-0.572681
-0.572677
-0.572673
-0.572669
-0.572665
-0.57266
-0.572655
-0.57265
-0.572645
-0.572639
-0.572633
-0.78952
-0.786043
-0.782312
-0.778946
-0.775908
-0.773127
-0.770567
-0.768239
-0.766135
-0.764267
-0.762624
-0.761223
-0.760045
-0.759112
-0.758385
-0.757916
-0.757803
-0.758399
-0.759325
-0.757134
-0.744283
-0.729331
-0.802595
-1.14635
-1.39124
-0.595853
-0.595138
-0.595311
-0.595346
-0.595341
-0.595334
-0.59533
-0.595327
-0.595324
-0.59532
-0.595315
-0.59531
-0.595305
-0.595299
-0.595293
-0.595286
-0.595279
-0.595272
-0.595264
-0.595256
-0.595248
-0.59524
-0.595232
-0.595223
-0.595214
-0.762027
-0.759804
-0.757289
-0.75474
-0.752112
-0.749378
-0.746523
-0.743558
-0.740476
-0.737286
-0.73397
-0.730539
-0.726962
-0.723242
-0.719317
-0.715209
-0.71103
-0.707223
-0.703397
-0.694983
-0.671018
-0.63923
-0.716074
-1.16901
-1.71817
-0.618547
-0.617823
-0.617997
-0.618031
-0.618025
-0.618017
-0.618011
-0.618005
-0.617998
-0.61799
-0.617982
-0.617972
-0.617962
-0.617951
-0.61794
-0.617928
-0.617916
-0.617903
-0.61789
-0.617877
-0.617863
-0.617849
-0.617835
-0.617821
-0.617807
-0.691145
-0.687667
-0.683293
-0.678749
-0.674105
-0.669317
-0.664348
-0.659221
-0.653932
-0.648515
-0.642965
-0.637331
-0.631613
-0.625868
-0.620082
-0.614362
-0.608977
-0.604739
-0.601457
-0.593028
-0.562865
-0.517566
-0.620689
-1.29376
-2.35757
-0.648717
-0.641045
-0.640821
-0.640903
-0.640918
-0.640905
-0.640886
-0.640867
-0.640847
-0.640826
-0.640802
-0.640778
-0.640753
-0.640727
-0.640701
-0.640674
-0.640648
-0.640621
-0.640595
-0.640568
-0.640542
-0.640516
-0.640491
-0.640465
-0.64044
-0.924833
-0.916889
-0.909068
-0.902485
-0.896966
-0.892266
-0.888342
-0.885162
-0.882735
-0.881012
-0.879989
-0.879605
-0.879843
-0.88061
-0.881929
-0.883541
-0.885561
-0.887495
-0.889816
-0.893299
-0.894197
-0.885892
-0.875972
-0.963274
-1.27872
-0.950478
-0.66609
-0.664808
-0.664699
-0.664563
-0.664419
-0.664282
-0.664157
-0.664043
-0.663937
-0.66384
-0.66375
-0.663667
-0.663589
-0.663517
-0.66345
-0.663387
-0.663328
-0.663273
-0.663221
-0.663172
-0.663126
-0.663082
-0.66304
-0.663001
-0.616876
-0.612003
-0.606087
-0.600054
-0.59398
-0.587766
-0.581388
-0.574838
-0.568139
-0.561287
-0.554314
-0.547215
-0.540044
-0.532801
-0.525556
-0.518311
-0.511187
-0.504381
-0.498488
-0.493318
-0.485202
-0.462525
-0.433284
-0.499036
-0.915854
-1.58698
-0.688704
-0.685718
-0.685684
-0.685717
-0.685713
-0.685697
-0.68568
-0.68566
-0.68564
-0.685618
-0.685594
-0.68557
-0.685545
-0.68552
-0.685494
-0.685468
-0.685442
-0.685417
-0.685391
-0.685365
-0.68534
-0.685315
-0.68529
-0.685266
-0.611122
-0.60627
-0.600922
-0.595792
-0.590841
-0.585961
-0.58114
-0.576367
-0.571665
-0.567017
-0.562445
-0.557922
-0.553475
-0.549062
-0.544701
-0.5403
-0.535893
-0.531669
-0.528447
-0.525975
-0.51713
-0.481478
-0.423045
-0.52453
-1.29383
-2.61543
-0.78331
-0.70782
-0.707527
-0.707634
-0.707645
-0.707638
-0.707631
-0.707625
-0.707619
-0.707613
-0.707605
-0.707597
-0.707588
-0.707579
-0.707569
-0.707558
-0.707547
-0.707536
-0.707524
-0.707512
-0.707499
-0.707486
-0.707473
-0.70746
-0.548511
-0.542779
-0.536538
-0.530648
-0.525012
-0.51952
-0.514117
-0.508824
-0.503616
-0.498518
-0.493493
-0.48857
-0.483702
-0.478935
-0.474196
-0.469563
-0.464904
-0.460342
-0.455988
-0.452219
-0.448693
-0.440461
-0.418637
-0.399358
-0.487394
-0.885932
-1.36672
-0.73686
-0.729758
-0.729672
-0.729739
-0.729756
-0.729761
-0.729765
-0.729768
-0.729771
-0.729772
-0.729773
-0.729772
-0.72977
-0.729767
-0.729764
-0.72976
-0.729755
-0.72975
-0.729744
-0.729737
-0.72973
-0.729723
-0.729715
-0.352618
-0.348649
-0.343814
-0.338892
-0.33394
-0.328898
-0.323734
-0.31846
-0.313078
-0.307606
-0.302039
-0.296399
-0.290677
-0.284904
-0.279063
-0.273179
-0.267206
-0.261188
-0.25532
-0.250302
-0.245922
-0.236357
-0.204947
-0.157303
-0.243051
-0.873779
-1.95674
-0.786675
-0.752241
-0.751958
-0.752059
-0.752076
-0.752074
-0.752072
-0.752072
-0.752071
-0.75207
-0.752069
-0.752066
-0.752064
-0.75206
-0.752056
-0.752052
-0.752048
-0.752042
-0.752037
-0.752031
-0.752025
-0.752018
-0.752011
-0.404302
-0.397295
-0.389973
-0.383389
-0.37744
-0.371935
-0.36684
-0.362134
-0.357832
-0.353905
-0.350365
-0.347174
-0.344349
-0.341842
-0.339684
-0.337797
-0.336264
-0.334906
-0.33386
-0.333152
-0.333039
-0.333546
-0.32893
-0.314601
-0.31068
-0.425505
-0.778582
-1.07073
-0.777977
-0.774637
-0.774593
-0.774616
-0.774607
-0.774589
-0.77457
-0.774554
-0.774538
-0.774524
-0.77451
-0.774496
-0.774483
-0.774471
-0.774459
-0.774447
-0.774436
-0.774425
-0.774414
-0.774404
-0.774393
-0.774383
-0.180672
-0.175316
-0.169316
-0.163559
-0.158029
-0.152611
-0.147275
-0.142024
-0.13687
-0.131815
-0.126869
-0.122031
-0.117317
-0.112722
-0.108266
-0.103943
-0.0997701
-0.095727
-0.0918506
-0.0882352
-0.0852754
-0.0827276
-0.0771623
-0.0612436
-0.0385893
-0.093821
-0.432026
-1.18707
-0.806107
-0.796878
-0.796718
-0.796789
-0.796787
-0.79678
-0.796774
-0.796769
-0.796764
-0.796759
-0.796753
-0.796748
-0.796742
-0.796735
-0.796729
-0.796722
-0.796716
-0.796709
-0.796702
-0.796695
-0.796687
-0.79668
0.0259043
0.0311664
0.0371366
0.0427351
0.0479049
0.0527543
0.0573232
0.0616198
0.0656374
0.0693855
0.0728624
0.0760847
0.0790518
0.0817857
0.0842854
0.0865808
0.0886757
0.0906236
0.0924127
0.093957
0.0949007
0.0955017
0.0995966
0.115259
0.137635
0.076045
-0.285504
-1.15191
-0.828842
-0.819206
-0.819056
-0.819119
-0.819128
-0.819126
-0.819123
-0.819121
-0.819119
-0.819117
-0.819114
-0.819112
-0.819108
-0.819105
-0.819101
-0.819097
-0.819092
-0.819087
-0.819082
-0.819077
-0.819071
-0.819065
0.052858
0.0602374
0.0676054
0.0739951
0.0796336
0.0847095
0.0892763
0.0933197
0.0968404
0.0998228
0.102271
0.104163
0.105498
0.106245
0.106401
0.105926
0.104821
0.103046
0.100576
0.0972295
0.09277
0.0875696
0.0849407
0.0897683
0.0921282
0.0163535
-0.262766
-1.09986
-0.846106
-0.841461
-0.841351
-0.841416
-0.841417
-0.841416
-0.841417
-0.841417
-0.841416
-0.841415
-0.841414
-0.841412
-0.841409
-0.841406
-0.841402
-0.841398
-0.841394
-0.841389
-0.841384
-0.841379
-0.841373
-0.841367
0.616804
0.623839
0.631908
0.639094
0.645174
0.650328
0.65461
0.658047
0.660586
0.662226
0.662896
0.662581
0.661182
0.658669
0.654911
0.649868
0.643393
0.635358
0.625321
0.612779
0.598504
0.588436
0.592272
0.587262
0.426287
-0.155319
-0.854272
-0.894994
-0.864046
-0.863899
-0.863958
-0.863971
-0.863974
-0.863977
-0.863979
-0.863981
-0.863982
-0.863982
-0.863981
-0.863979
-0.863976
-0.863972
-0.863968
-0.863962
-0.863956
-0.86395
-0.863942
-0.863935
-0.863927
-0.863918
0.631629
0.629842
0.627032
0.62494
0.624132
0.624462
0.625922
0.628344
0.631844
0.636235
0.641704
0.647992
0.655387
0.663538
0.672888
0.682953
0.694149
0.705304
0.717099
0.732608
0.766716
0.823136
0.807184
0.385021
-0.819069
-0.894229
-0.800142
-0.881827
-0.88645
-0.886436
-0.886427
-0.88642
-0.886412
-0.886402
-0.886391
-0.886379
-0.886367
-0.886354
-0.886341
-0.886327
-0.886313
-0.886299
-0.886285
-0.886271
-0.886257
-0.886243
-0.886228
-0.886214
-0.8862
-0.886186
-0.460083
-0.460081
-0.46008
-0.460078
-0.460076
-0.460075
-0.460073
-0.460071
-0.460069
-0.460067
-0.460065
-0.460063
-0.460061
-0.460059
-0.460057
-0.460055
-0.460053
-0.46005
-0.460048
-0.460045
-0.460043
-0.460041
-0.460038
-0.460036
-0.460033
-0.46003
-0.460028
-0.460025
-0.460022
-0.460019
-0.460017
-0.460014
-0.460011
-0.460008
-0.460005
-0.460002
-0.459999
-0.459996
-0.459993
-0.45999
-0.459987
-0.459984
-0.459981
-0.459977
-0.459974
-0.459971
-0.459968
-0.459964
-0.459961
-0.459958
-0.482571
-0.482569
-0.482567
-0.482565
-0.482563
-0.482561
-0.482558
-0.482556
-0.482554
-0.482551
-0.482549
-0.482546
-0.482544
-0.482541
-0.482538
-0.482535
-0.482532
-0.48253
-0.482527
-0.482524
-0.482521
-0.482517
-0.482514
-0.482511
-0.482508
-0.482505
-0.482501
-0.482498
-0.482495
-0.482491
-0.482488
-0.482484
-0.482481
-0.482477
-0.482474
-0.48247
-0.482467
-0.482463
-0.482459
-0.482456
-0.482452
-0.482448
-0.482444
-0.482441
-0.482437
-0.482433
-0.482429
-0.482425
-0.482421
-0.482417
-0.505058
-0.505055
-0.505053
-0.50505
-0.505048
-0.505045
-0.505042
-0.50504
-0.505037
-0.505034
-0.505031
-0.505028
-0.505025
-0.505021
-0.505018
-0.505015
-0.505011
-0.505008
-0.505004
-0.505001
-0.504997
-0.504994
-0.50499
-0.504986
-0.504982
-0.504978
-0.504974
-0.50497
-0.504966
-0.504962
-0.504958
-0.504954
-0.50495
-0.504946
-0.504942
-0.504937
-0.504933
-0.504929
-0.504924
-0.50492
-0.504916
-0.504911
-0.504907
-0.504902
-0.504898
-0.504893
-0.504889
-0.504884
-0.50488
-0.504875
-0.527564
-0.527561
-0.527557
-0.527554
-0.527551
-0.527547
-0.527544
-0.52754
-0.527537
-0.527533
-0.527529
-0.527525
-0.527521
-0.527517
-0.527513
-0.527508
-0.527504
-0.5275
-0.527495
-0.527491
-0.527486
-0.527482
-0.527477
-0.527472
-0.527468
-0.527463
-0.527458
-0.527453
-0.527448
-0.527443
-0.527438
-0.527433
-0.527428
-0.527423
-0.527418
-0.527413
-0.527407
-0.527402
-0.527397
-0.527392
-0.527386
-0.527381
-0.527376
-0.52737
-0.527365
-0.52736
-0.527354
-0.527349
-0.527344
-0.527338
-0.550088
-0.550084
-0.55008
-0.550075
-0.550071
-0.550066
-0.550061
-0.550056
-0.550051
-0.550046
-0.550041
-0.550036
-0.55003
-0.550025
-0.55002
-0.550014
-0.550008
-0.550003
-0.549997
-0.549991
-0.549985
-0.549979
-0.549973
-0.549967
-0.549961
-0.549955
-0.549949
-0.549942
-0.549936
-0.54993
-0.549924
-0.549917
-0.549911
-0.549905
-0.549898
-0.549892
-0.549886
-0.549879
-0.549873
-0.549867
-0.54986
-0.549854
-0.549847
-0.549841
-0.549834
-0.549828
-0.549822
-0.549815
-0.549809
-0.549802
-0.572628
-0.572622
-0.572615
-0.572609
-0.572603
-0.572596
-0.57259
-0.572583
-0.572576
-0.572569
-0.572562
-0.572555
-0.572548
-0.57254
-0.572533
-0.572526
-0.572518
-0.572511
-0.572503
-0.572496
-0.572488
-0.57248
-0.572473
-0.572465
-0.572457
-0.572449
-0.572442
-0.572434
-0.572426
-0.572418
-0.572411
-0.572403
-0.572395
-0.572387
-0.572379
-0.572372
-0.572364
-0.572356
-0.572348
-0.572341
-0.572333
-0.572325
-0.572318
-0.57231
-0.572302
-0.572295
-0.572287
-0.57228
-0.572272
-0.572265
-0.595205
-0.595195
-0.595186
-0.595176
-0.595167
-0.595157
-0.595147
-0.595137
-0.595127
-0.595117
-0.595107
-0.595097
-0.595087
-0.595077
-0.595066
-0.595056
-0.595046
-0.595036
-0.595025
-0.595015
-0.595005
-0.594995
-0.594984
-0.594974
-0.594964
-0.594954
-0.594944
-0.594934
-0.594924
-0.594914
-0.594904
-0.594894
-0.594885
-0.594875
-0.594865
-0.594856
-0.594846
-0.594837
-0.594827
-0.594818
-0.594808
-0.594799
-0.59479
-0.594781
-0.594771
-0.594762
-0.594753
-0.594744
-0.594736
-0.594727
-0.617792
-0.617778
-0.617763
-0.617749
-0.617734
-0.617719
-0.617705
-0.61769
-0.617676
-0.617662
-0.617647
-0.617633
-0.617619
-0.617605
-0.617591
-0.617577
-0.617563
-0.61755
-0.617536
-0.617523
-0.617509
-0.617496
-0.617483
-0.61747
-0.617457
-0.617445
-0.617432
-0.61742
-0.617408
-0.617395
-0.617383
-0.617371
-0.61736
-0.617348
-0.617336
-0.617325
-0.617314
-0.617302
-0.617291
-0.61728
-0.617269
-0.617259
-0.617248
-0.617237
-0.617227
-0.617216
-0.617206
-0.617196
-0.617186
-0.617176
-0.640416
-0.640392
-0.640368
-0.640345
-0.640322
-0.640299
-0.640277
-0.640256
-0.640235
-0.640214
-0.640193
-0.640173
-0.640154
-0.640135
-0.640116
-0.640097
-0.640079
-0.640061
-0.640043
-0.640026
-0.640009
-0.639993
-0.639976
-0.63996
-0.639944
-0.639929
-0.639914
-0.639899
-0.639884
-0.639869
-0.639855
-0.639841
-0.639827
-0.639813
-0.639799
-0.639786
-0.639773
-0.63976
-0.639747
-0.639735
-0.639722
-0.63971
-0.639698
-0.639686
-0.639674
-0.639662
-0.639651
-0.639639
-0.639628
-0.639617
-0.662963
-0.662928
-0.662893
-0.66286
-0.662829
-0.662799
-0.66277
-0.662742
-0.662715
-0.662689
-0.662664
-0.66264
-0.662616
-0.662593
-0.662571
-0.66255
-0.662529
-0.662508
-0.662489
-0.662469
-0.66245
-0.662432
-0.662414
-0.662396
-0.662379
-0.662362
-0.662345
-0.662329
-0.662313
-0.662298
-0.662282
-0.662267
-0.662252
-0.662238
-0.662224
-0.66221
-0.662196
-0.662182
-0.662169
-0.662155
-0.662142
-0.66213
-0.662117
-0.662104
-0.662092
-0.66208
-0.662068
-0.662056
-0.662044
-0.662033
-0.685241
-0.685218
-0.685194
-0.685171
-0.685149
-0.685126
-0.685105
-0.685083
-0.685062
-0.685041
-0.685021
-0.685001
-0.684981
-0.684962
-0.684943
-0.684924
-0.684906
-0.684888
-0.68487
-0.684853
-0.684836
-0.684819
-0.684802
-0.684786
-0.68477
-0.684754
-0.684739
-0.684723
-0.684708
-0.684693
-0.684679
-0.684664
-0.68465
-0.684636
-0.684622
-0.684608
-0.684595
-0.684581
-0.684568
-0.684555
-0.684542
-0.68453
-0.684517
-0.684505
-0.684492
-0.68448
-0.684468
-0.684457
-0.684445
-0.684433
-0.707446
-0.707433
-0.707419
-0.707405
-0.707391
-0.707377
-0.707363
-0.707349
-0.707334
-0.70732
-0.707306
-0.707292
-0.707277
-0.707263
-0.707249
-0.707235
-0.707221
-0.707207
-0.707193
-0.707179
-0.707166
-0.707152
-0.707139
-0.707125
-0.707112
-0.707099
-0.707085
-0.707072
-0.707059
-0.707046
-0.707034
-0.707021
-0.707008
-0.706996
-0.706984
-0.706971
-0.706959
-0.706947
-0.706935
-0.706923
-0.706912
-0.7069
-0.706888
-0.706877
-0.706865
-0.706854
-0.706843
-0.706832
-0.706821
-0.70681
-0.729707
-0.729698
-0.72969
-0.72968
-0.729671
-0.729661
-0.729651
-0.729641
-0.729631
-0.729621
-0.72961
-0.729599
-0.729588
-0.729578
-0.729567
-0.729555
-0.729544
-0.729533
-0.729522
-0.72951
-0.729499
-0.729488
-0.729476
-0.729465
-0.729454
-0.729442
-0.729431
-0.72942
-0.729408
-0.729397
-0.729386
-0.729374
-0.729363
-0.729352
-0.729341
-0.72933
-0.729319
-0.729308
-0.729297
-0.729286
-0.729275
-0.729264
-0.729253
-0.729243
-0.729232
-0.729222
-0.729211
-0.729201
-0.72919
-0.72918
-0.752004
-0.751997
-0.751989
-0.751981
-0.751973
-0.751965
-0.751957
-0.751948
-0.751939
-0.75193
-0.751921
-0.751912
-0.751903
-0.751893
-0.751884
-0.751874
-0.751865
-0.751855
-0.751845
-0.751835
-0.751825
-0.751815
-0.751805
-0.751795
-0.751785
-0.751775
-0.751765
-0.751755
-0.751745
-0.751735
-0.751725
-0.751715
-0.751705
-0.751695
-0.751685
-0.751675
-0.751665
-0.751655
-0.751645
-0.751635
-0.751625
-0.751615
-0.751605
-0.751595
-0.751585
-0.751575
-0.751566
-0.751556
-0.751546
-0.751537
-0.774373
-0.774363
-0.774353
-0.774343
-0.774334
-0.774324
-0.774314
-0.774305
-0.774295
-0.774285
-0.774276
-0.774266
-0.774257
-0.774247
-0.774237
-0.774228
-0.774218
-0.774209
-0.774199
-0.774189
-0.77418
-0.77417
-0.77416
-0.774151
-0.774141
-0.774131
-0.774121
-0.774112
-0.774102
-0.774092
-0.774083
-0.774073
-0.774063
-0.774054
-0.774044
-0.774034
-0.774024
-0.774015
-0.774005
-0.773996
-0.773986
-0.773976
-0.773967
-0.773957
-0.773948
-0.773938
-0.773929
-0.773919
-0.77391
-0.773901
-0.796672
-0.796665
-0.796657
-0.796649
-0.796641
-0.796633
-0.796625
-0.796617
-0.796609
-0.7966
-0.796592
-0.796583
-0.796575
-0.796566
-0.796558
-0.796549
-0.79654
-0.796532
-0.796523
-0.796514
-0.796505
-0.796496
-0.796487
-0.796479
-0.79647
-0.796461
-0.796452
-0.796443
-0.796434
-0.796425
-0.796416
-0.796407
-0.796398
-0.796389
-0.79638
-0.796371
-0.796362
-0.796353
-0.796344
-0.796335
-0.796326
-0.796317
-0.796308
-0.796299
-0.79629
-0.796282
-0.796273
-0.796264
-0.796255
-0.796246
-0.819059
-0.819053
-0.819046
-0.819039
-0.819032
-0.819025
-0.819017
-0.81901
-0.819002
-0.818994
-0.818986
-0.818977
-0.818969
-0.81896
-0.818952
-0.818943
-0.818934
-0.818925
-0.818916
-0.818907
-0.818898
-0.818889
-0.818879
-0.81887
-0.818861
-0.818851
-0.818842
-0.818832
-0.818823
-0.818813
-0.818804
-0.818794
-0.818785
-0.818775
-0.818765
-0.818756
-0.818746
-0.818737
-0.818727
-0.818718
-0.818708
-0.818699
-0.818689
-0.81868
-0.81867
-0.818661
-0.818652
-0.818642
-0.818633
-0.818624
-0.841361
-0.841354
-0.841347
-0.84134
-0.841333
-0.841326
-0.841318
-0.84131
-0.841303
-0.841295
-0.841287
-0.841279
-0.84127
-0.841262
-0.841254
-0.841245
-0.841237
-0.841228
-0.84122
-0.841211
-0.841203
-0.841194
-0.841185
-0.841177
-0.841168
-0.841159
-0.841151
-0.841142
-0.841133
-0.841124
-0.841116
-0.841107
-0.841098
-0.84109
-0.841081
-0.841072
-0.841063
-0.841055
-0.841046
-0.841037
-0.841029
-0.84102
-0.841012
-0.841003
-0.840994
-0.840986
-0.840977
-0.840969
-0.84096
-0.840952
-0.863909
-0.8639
-0.86389
-0.86388
-0.863869
-0.863859
-0.863848
-0.863837
-0.863826
-0.863815
-0.863803
-0.863792
-0.86378
-0.863768
-0.863756
-0.863744
-0.863732
-0.863721
-0.863709
-0.863697
-0.863685
-0.863673
-0.863661
-0.863649
-0.863637
-0.863625
-0.863613
-0.863601
-0.86359
-0.863578
-0.863566
-0.863555
-0.863543
-0.863532
-0.863521
-0.863509
-0.863498
-0.863487
-0.863476
-0.863465
-0.863454
-0.863443
-0.863433
-0.863422
-0.863411
-0.863401
-0.86339
-0.86338
-0.86337
-0.86336
-0.886172
-0.886159
-0.886145
-0.886131
-0.886118
-0.886105
-0.886092
-0.886079
-0.886067
-0.886054
-0.886042
-0.88603
-0.886018
-0.886006
-0.885994
-0.885983
-0.885971
-0.88596
-0.885949
-0.885938
-0.885927
-0.885917
-0.885906
-0.885896
-0.885885
-0.885875
-0.885865
-0.885855
-0.885845
-0.885835
-0.885826
-0.885816
-0.885806
-0.885797
-0.885788
-0.885778
-0.885769
-0.88576
-0.885751
-0.885742
-0.885733
-0.885724
-0.885715
-0.885706
-0.885697
-0.885689
-0.88568
-0.885671
-0.885663
-0.885654
-0.459955
-0.459954
-0.459952
-0.45995
-0.459948
-0.459947
-0.459945
-0.459943
-0.459941
-0.459939
-0.459938
-0.459936
-0.459934
-0.459932
-0.45993
-0.459928
-0.459926
-0.459924
-0.459922
-0.45992
-0.459918
-0.459916
-0.459914
-0.459912
-0.45991
-0.459908
-0.459906
-0.459904
-0.459902
-0.4599
-0.459897
-0.459895
-0.459893
-0.459891
-0.459889
-0.459886
-0.459884
-0.459882
-0.45988
-0.459877
-0.459875
-0.459873
-0.45987
-0.459868
-0.459866
-0.459863
-0.459861
-0.459858
-0.459856
-0.459853
-0.459851
-0.459848
-0.459846
-0.459843
-0.459841
-0.459838
-0.459836
-0.459833
-0.45983
-0.459828
-0.459825
-0.459823
-0.45982
-0.459817
-0.459815
-0.459812
-0.459809
-0.459806
-0.459804
-0.459801
-0.459798
-0.459795
-0.459792
-0.45979
-0.459787
-0.459784
-0.459781
-0.459778
-0.459775
-0.459772
-0.459769
-0.459766
-0.459764
-0.459761
-0.459758
-0.459755
-0.459752
-0.459749
-0.459745
-0.459742
-0.459739
-0.459736
-0.459733
-0.45973
-0.459727
-0.459724
-0.459721
-0.459718
-0.459714
-0.459711
-0.459708
-0.459705
-0.459702
-0.459698
-0.459695
-0.459692
-0.459689
-0.459685
-0.459682
-0.459679
-0.459675
-0.459672
-0.459669
-0.459665
-0.459662
-0.459659
-0.459655
-0.459652
-0.459648
-0.459645
-0.459642
-0.459638
-0.459635
-0.459631
-0.459628
-0.459624
-0.459621
-0.459617
-0.459614
-0.45961
-0.459607
-0.459603
-0.4596
-0.459596
-0.459593
-0.459589
-0.459586
-0.459582
-0.459578
-0.459575
-0.459571
-0.459568
-0.459564
-0.45956
-0.459557
-0.459553
-0.45955
-0.459546
-0.459542
-0.459539
-0.459535
-0.459531
-0.459528
-0.459524
-0.45952
-0.459517
-0.459513
-0.459509
-0.459506
-0.459502
-0.459498
-0.459495
-0.459491
-0.459487
-0.459484
-0.45948
-0.459476
-0.459473
-0.459469
-0.459465
-0.459461
-0.459458
-0.459454
-0.45945
-0.459447
-0.459443
-0.459439
-0.459436
-0.459432
-0.459428
-0.459425
-0.459421
-0.459417
-0.459414
-0.45941
-0.459406
-0.459403
-0.459399
-0.459395
-0.459392
-0.459388
-0.459384
-0.459381
-0.459377
-0.459373
-0.45937
-0.459366
-0.459363
-0.459359
-0.459355
-0.459352
-0.459348
-0.459345
-0.459341
-0.459338
-0.459334
-0.459331
-0.459327
-0.459324
-0.45932
-0.459317
-0.459313
-0.45931
-0.459306
-0.459303
-0.4593
-0.459296
-0.459293
-0.459289
-0.459286
-0.459283
-0.459279
-0.459276
-0.459273
-0.45927
-0.459266
-0.459263
-0.45926
-0.459257
-0.459254
-0.45925
-0.459247
-0.459244
-0.459241
-0.459238
-0.459235
-0.459232
-0.459229
-0.459226
-0.459223
-0.45922
-0.459217
-0.459214
-0.459212
-0.459209
-0.459206
-0.459203
-0.4592
-0.459198
-0.459195
-0.459192
-0.45919
-0.459187
-0.459184
-0.459182
-0.459179
-0.459177
-0.459174
-0.459172
-0.45917
-0.459167
-0.459165
-0.459163
-0.45916
-0.459158
-0.459156
-0.459154
-0.459152
-0.45915
-0.459148
-0.459146
-0.459144
-0.459142
-0.45914
-0.459138
-0.459137
-0.459135
-0.459133
-0.459131
-0.45913
-0.459128
-0.459127
-0.459125
-0.459124
-0.459123
-0.459121
-0.45912
-0.459119
-0.459118
-0.459117
-0.459116
-0.459115
-0.459114
-0.459113
-0.459112
-0.459111
-0.45911
-0.45911
-0.459109
-0.459109
-0.482414
-0.482412
-0.48241
-0.482408
-0.482406
-0.482404
-0.482402
-0.4824
-0.482398
-0.482396
-0.482393
-0.482391
-0.482389
-0.482387
-0.482385
-0.482382
-0.48238
-0.482378
-0.482375
-0.482373
-0.482371
-0.482368
-0.482366
-0.482364
-0.482361
-0.482359
-0.482356
-0.482354
-0.482351
-0.482349
-0.482346
-0.482344
-0.482341
-0.482339
-0.482336
-0.482334
-0.482331
-0.482328
-0.482326
-0.482323
-0.48232
-0.482318
-0.482315
-0.482312
-0.48231
-0.482307
-0.482304
-0.482301
-0.482298
-0.482296
-0.482293
-0.48229
-0.482287
-0.482284
-0.482281
-0.482278
-0.482275
-0.482273
-0.48227
-0.482267
-0.482264
-0.482261
-0.482258
-0.482255
-0.482252
-0.482248
-0.482245
-0.482242
-0.482239
-0.482236
-0.482233
-0.48223
-0.482227
-0.482223
-0.48222
-0.482217
-0.482214
-0.482211
-0.482207
-0.482204
-0.482201
-0.482198
-0.482194
-0.482191
-0.482188
-0.482184
-0.482181
-0.482178
-0.482174
-0.482171
-0.482167
-0.482164
-0.48216
-0.482157
-0.482154
-0.48215
-0.482147
-0.482143
-0.48214
-0.482136
-0.482133
-0.482129
-0.482125
-0.482122
-0.482118
-0.482115
-0.482111
-0.482108
-0.482104
-0.4821
-0.482097
-0.482093
-0.482089
-0.482086
-0.482082
-0.482078
-0.482075
-0.482071
-0.482067
-0.482063
-0.48206
-0.482056
-0.482052
-0.482048
-0.482045
-0.482041
-0.482037
-0.482033
-0.48203
-0.482026
-0.482022
-0.482018
-0.482014
-0.48201
-0.482007
-0.482003
-0.481999
-0.481995
-0.481991
-0.481987
-0.481983
-0.481979
-0.481976
-0.481972
-0.481968
-0.481964
-0.48196
-0.481956
-0.481952
-0.481948
-0.481944
-0.48194
-0.481936
-0.481932
-0.481929
-0.481925
-0.481921
-0.481917
-0.481913
-0.481909
-0.481905
-0.481901
-0.481897
-0.481893
-0.481889
-0.481885
-0.481881
-0.481877
-0.481873
-0.481869
-0.481865
-0.481861
-0.481857
-0.481854
-0.48185
-0.481846
-0.481842
-0.481838
-0.481834
-0.48183
-0.481826
-0.481822
-0.481818
-0.481814
-0.48181
-0.481806
-0.481803
-0.481799
-0.481795
-0.481791
-0.481787
-0.481783
-0.481779
-0.481776
-0.481772
-0.481768
-0.481764
-0.48176
-0.481756
-0.481753
-0.481749
-0.481745
-0.481741
-0.481738
-0.481734
-0.48173
-0.481726
-0.481723
-0.481719
-0.481715
-0.481712
-0.481708
-0.481704
-0.481701
-0.481697
-0.481694
-0.48169
-0.481687
-0.481683
-0.481679
-0.481676
-0.481672
-0.481669
-0.481666
-0.481662
-0.481659
-0.481655
-0.481652
-0.481649
-0.481645
-0.481642
-0.481639
-0.481635
-0.481632
-0.481629
-0.481626
-0.481623
-0.481619
-0.481616
-0.481613
-0.48161
-0.481607
-0.481604
-0.481601
-0.481598
-0.481595
-0.481592
-0.481589
-0.481587
-0.481584
-0.481581
-0.481578
-0.481576
-0.481573
-0.48157
-0.481568
-0.481565
-0.481562
-0.48156
-0.481557
-0.481555
-0.481553
-0.48155
-0.481548
-0.481545
-0.481543
-0.481541
-0.481539
-0.481537
-0.481535
-0.481533
-0.48153
-0.481529
-0.481527
-0.481525
-0.481523
-0.481521
-0.481519
-0.481518
-0.481516
-0.481514
-0.481513
-0.481511
-0.48151
-0.481508
-0.481507
-0.481506
-0.481504
-0.481503
-0.481502
-0.481501
-0.4815
-0.481499
-0.481498
-0.481497
-0.481496
-0.481496
-0.481495
-0.481494
-0.481494
-0.504872
-0.504869
-0.504867
-0.504865
-0.504862
-0.50486
-0.504857
-0.504855
-0.504852
-0.50485
-0.504847
-0.504845
-0.504842
-0.50484
-0.504837
-0.504834
-0.504832
-0.504829
-0.504826
-0.504824
-0.504821
-0.504818
-0.504816
-0.504813
-0.50481
-0.504807
-0.504804
-0.504802
-0.504799
-0.504796
-0.504793
-0.50479
-0.504787
-0.504784
-0.504781
-0.504778
-0.504775
-0.504772
-0.504769
-0.504766
-0.504763
-0.50476
-0.504757
-0.504754
-0.504751
-0.504748
-0.504745
-0.504742
-0.504738
-0.504735
-0.504732
-0.504729
-0.504726
-0.504722
-0.504719
-0.504716
-0.504713
-0.504709
-0.504706
-0.504703
-0.504699
-0.504696
-0.504693
-0.504689
-0.504686
-0.504682
-0.504679
-0.504675
-0.504672
-0.504668
-0.504665
-0.504661
-0.504658
-0.504654
-0.504651
-0.504647
-0.504644
-0.50464
-0.504637
-0.504633
-0.504629
-0.504626
-0.504622
-0.504618
-0.504615
-0.504611
-0.504607
-0.504604
-0.5046
-0.504596
-0.504592
-0.504589
-0.504585
-0.504581
-0.504577
-0.504573
-0.50457
-0.504566
-0.504562
-0.504558
-0.504554
-0.50455
-0.504547
-0.504543
-0.504539
-0.504535
-0.504531
-0.504527
-0.504523
-0.504519
-0.504515
-0.504511
-0.504507
-0.504503
-0.504499
-0.504495
-0.504491
-0.504487
-0.504483
-0.504479
-0.504475
-0.504471
-0.504467
-0.504463
-0.504459
-0.504455
-0.504451
-0.504447
-0.504442
-0.504438
-0.504434
-0.50443
-0.504426
-0.504422
-0.504418
-0.504414
-0.504409
-0.504405
-0.504401
-0.504397
-0.504393
-0.504389
-0.504384
-0.50438
-0.504376
-0.504372
-0.504368
-0.504364
-0.504359
-0.504355
-0.504351
-0.504347
-0.504343
-0.504338
-0.504334
-0.50433
-0.504326
-0.504322
-0.504317
-0.504313
-0.504309
-0.504305
-0.504301
-0.504296
-0.504292
-0.504288
-0.504284
-0.50428
-0.504275
-0.504271
-0.504267
-0.504263
-0.504259
-0.504254
-0.50425
-0.504246
-0.504242
-0.504238
-0.504234
-0.504229
-0.504225
-0.504221
-0.504217
-0.504213
-0.504209
-0.504205
-0.504201
-0.504196
-0.504192
-0.504188
-0.504184
-0.50418
-0.504176
-0.504172
-0.504168
-0.504164
-0.50416
-0.504156
-0.504152
-0.504148
-0.504144
-0.50414
-0.504136
-0.504132
-0.504128
-0.504124
-0.50412
-0.504116
-0.504113
-0.504109
-0.504105
-0.504101
-0.504097
-0.504093
-0.50409
-0.504086
-0.504082
-0.504078
-0.504075
-0.504071
-0.504067
-0.504064
-0.50406
-0.504056
-0.504053
-0.504049
-0.504046
-0.504042
-0.504039
-0.504035
-0.504032
-0.504028
-0.504025
-0.504021
-0.504018
-0.504015
-0.504011
-0.504008
-0.504005
-0.504002
-0.503998
-0.503995
-0.503992
-0.503989
-0.503986
-0.503983
-0.50398
-0.503977
-0.503974
-0.503971
-0.503968
-0.503965
-0.503962
-0.50396
-0.503957
-0.503954
-0.503951
-0.503949
-0.503946
-0.503943
-0.503941
-0.503938
-0.503936
-0.503934
-0.503931
-0.503929
-0.503926
-0.503924
-0.503922
-0.50392
-0.503918
-0.503916
-0.503913
-0.503911
-0.503909
-0.503908
-0.503906
-0.503904
-0.503902
-0.5039
-0.503899
-0.503897
-0.503896
-0.503894
-0.503893
-0.503891
-0.50389
-0.503888
-0.503887
-0.503886
-0.503885
-0.503884
-0.503883
-0.503882
-0.503881
-0.50388
-0.503879
-0.503879
-0.503878
-0.503877
-0.527334
-0.527332
-0.527329
-0.527326
-0.527323
-0.52732
-0.527317
-0.527314
-0.527311
-0.527308
-0.527305
-0.527302
-0.527299
-0.527296
-0.527293
-0.52729
-0.527287
-0.527284
-0.527281
-0.527278
-0.527275
-0.527271
-0.527268
-0.527265
-0.527262
-0.527259
-0.527255
-0.527252
-0.527249
-0.527246
-0.527242
-0.527239
-0.527236
-0.527232
-0.527229
-0.527225
-0.527222
-0.527219
-0.527215
-0.527212
-0.527208
-0.527205
-0.527201
-0.527198
-0.527194
-0.527191
-0.527187
-0.527184
-0.52718
-0.527176
-0.527173
-0.527169
-0.527166