/*--------------------------------*- C++ -*----------------------------------*\
| =========                 |                                                 |
| \\      /  F ield         | OpenFOAM: The Open Source CFD Toolbox           |
|  \\    /   O peration     | Version:  2.4.0                                 |
|   \\  /    A nd           | Web:      www.OpenFOAM.org                      |
|    \\/     M anipulation  |                                                 |
\*---------------------------------------------------------------------------*/
FoamFile
{
    version     2.0;
    format      ascii;
    class       volVectorField;
    location    "1.9";
    object      U;
}
// * * * * * * * * * * * * * * * * * * * * * * * * * * * * * * * * * * * * * //

dimensions      [0 1 -1 0 0 0 0];

internalField   nonuniform List<vector> 
8000
(
(-1.20843e-08 -0.000172549 0)
(-1.24211e-07 -0.000503802 0)
(-3.61891e-07 -0.000821212 0)
(-7.27005e-07 -0.00112478 0)
(-1.2221e-06 -0.00141452 0)
(-1.84737e-06 -0.00169042 0)
(-2.6075e-06 -0.00195248 0)
(-3.50169e-06 -0.00220071 0)
(-4.53519e-06 -0.00243509 0)
(-5.70522e-06 -0.00265562 0)
(-7.01849e-06 -0.0028623 0)
(-8.47025e-06 -0.00305513 0)
(-1.00699e-05 -0.00323409 0)
(-1.18099e-05 -0.00339918 0)
(-1.37027e-05 -0.0035504 0)
(-1.5736e-05 -0.00368773 0)
(-1.79338e-05 -0.00381116 0)
(-2.0307e-05 -0.00392069 0)
(-2.29208e-05 -0.0040163 0)
(-2.56336e-05 -0.00409797 0)
(-2.78169e-05 -0.0041657 0)
(-2.84731e-05 -0.00421946 0)
(-3.09173e-05 -0.00425927 0)
(-5.07102e-05 -0.00428518 0)
(-0.000121365 -0.00429941 0)
(-0.000251015 -0.00430045 0)
(-0.000546037 -0.00427386 0)
(-0.000341768 -0.00422227 0)
(-0.000329952 -0.00417434 0)
(-0.000341465 -0.00412645 0)
(-0.000352423 -0.00407795 0)
(-0.000359017 -0.0040289 0)
(-0.000364557 -0.00397957 0)
(-0.000370294 -0.00393016 0)
(-0.000376315 -0.00388077 0)
(-0.000382499 -0.00383149 0)
(-0.000388797 -0.00378238 0)
(-0.000395203 -0.00373355 0)
(-0.000401719 -0.00368507 0)
(-0.000408344 -0.00363705 0)
(-0.000415074 -0.00358955 0)
(-0.000421907 -0.00354263 0)
(-0.000428839 -0.00349634 0)
(-0.000435867 -0.00345073 0)
(-0.000442988 -0.00340582 0)
(-0.0004502 -0.00336161 0)
(-0.000457501 -0.00331813 0)
(-0.000464887 -0.00327537 0)
(-0.000472358 -0.00323334 0)
(-0.000479909 -0.00319202 0)
(-1.44745e-08 -0.000171466 0)
(-1.50804e-07 -0.000500632 0)
(-4.2976e-07 -0.000816022 0)
(-8.47393e-07 -0.00111762 0)
(-1.39976e-06 -0.00140543 0)
(-2.08169e-06 -0.00167943 0)
(-2.89422e-06 -0.00193962 0)
(-3.83308e-06 -0.00218598 0)
(-4.90161e-06 -0.00241852 0)
(-6.09426e-06 -0.00263721 0)
(-7.41682e-06 -0.00284205 0)
(-8.86173e-06 -0.00303304 0)
(-1.04379e-05 -0.00321015 0)
(-1.21343e-05 -0.00337339 0)
(-1.3963e-05 -0.00352275 0)
(-1.59069e-05 -0.00365821 0)
(-1.79899e-05 -0.00377976 0)
(-2.02132e-05 -0.0038874 0)
(-2.26308e-05 -0.00398112 0)
(-2.50743e-05 -0.00406089 0)
(-2.69632e-05 -0.00412671 0)
(-2.75371e-05 -0.00417858 0)
(-3.0547e-05 -0.00421651 0)
(-4.97907e-05 -0.00424052 0)
(-0.000115714 -0.00425324 0)
(-0.000249956 -0.00425444 0)
(-0.000547113 -0.00420357 0)
(-0.000321161 -0.00415135 0)
(-0.000317097 -0.00410021 0)
(-0.000330431 -0.00404897 0)
(-0.000340901 -0.00399753 0)
(-0.000346705 -0.00394602 0)
(-0.000351757 -0.00389457 0)
(-0.000357221 -0.00384325 0)
(-0.000363078 -0.00379211 0)
(-0.000369172 -0.00374122 0)
(-0.000375444 -0.00369062 0)
(-0.000381887 -0.0036404 0)
(-0.000388495 -0.00359064 0)
(-0.000395263 -0.0035414 0)
(-0.000402182 -0.00349275 0)
(-0.000409244 -0.00344475 0)
(-0.000416443 -0.00339744 0)
(-0.000423772 -0.00335085 0)
(-0.000431227 -0.00330499 0)
(-0.000438801 -0.00325989 0)
(-0.00044649 -0.00321554 0)
(-0.000454288 -0.00317196 0)
(-0.000462192 -0.00312912 0)
(-0.000470197 -0.00308704 0)
(-5.83814e-09 -0.000170735 0)
(-6.71972e-08 -0.000498469 0)
(-1.97235e-07 -0.000812453 0)
(-3.95865e-07 -0.00111267 0)
(-6.64012e-07 -0.00139911 0)
(-1.00045e-06 -0.00167176 0)
(-1.40855e-06 -0.0019306 0)
(-1.88682e-06 -0.00217563 0)
(-2.44017e-06 -0.00240683 0)
(-3.0657e-06 -0.00262419 0)
(-3.77021e-06 -0.00282772 0)
(-4.54884e-06 -0.00301739 0)
(-5.41094e-06 -0.0031932 0)
(-6.3485e-06 -0.00335514 0)
(-7.37349e-06 -0.00350321 0)
(-8.47296e-06 -0.00363739 0)
(-9.66945e-06 -0.0037577 0)
(-1.09659e-05 -0.00386412 0)
(-1.24072e-05 -0.00395664 0)
(-1.38407e-05 -0.00403527 0)
(-1.47686e-05 -0.00410002 0)
(-1.46091e-05 -0.00415089 0)
(-1.69381e-05 -0.00418791 0)
(-3.30315e-05 -0.004211 0)
(-9.15927e-05 -0.00422261 0)
(-0.000233114 -0.00422484 0)
(-0.000525497 -0.00416706 0)
(-0.00029288 -0.00411178 0)
(-0.000291345 -0.00405711 0)
(-0.000304632 -0.00400215 0)
(-0.000314355 -0.00394699 0)
(-0.000319476 -0.00389182 0)
(-0.00032405 -0.00383681 0)
(-0.000329184 -0.00378206 0)
(-0.000334815 -0.00372764 0)
(-0.000340775 -0.00367359 0)
(-0.000347002 -0.00361999 0)
(-0.000353482 -0.0035669 0)
(-0.000360204 -0.00351441 0)
(-0.000367157 -0.00346257 0)
(-0.000374328 -0.00341144 0)
(-0.000381704 -0.00336108 0)
(-0.000389274 -0.00331152 0)
(-0.000397028 -0.00326277 0)
(-0.000404956 -0.00321486 0)
(-0.000413048 -0.00316779 0)
(-0.000421297 -0.00312156 0)
(-0.000429694 -0.00307617 0)
(-0.00043823 -0.00303162 0)
(-0.0004469 -0.00298789 0)
(3.08576e-09 -0.000170642 0)
(2.87969e-08 -0.000498148 0)
(7.65585e-08 -0.000811863 0)
(1.43238e-07 -0.00111177 0)
(2.22879e-07 -0.00139786 0)
(3.11715e-07 -0.00167011 0)
(4.03512e-07 -0.00192852 0)
(4.95124e-07 -0.00217307 0)
(5.79329e-07 -0.00240376 0)
(6.53566e-07 -0.00262057 0)
(7.09347e-07 -0.00282349 0)
(7.44928e-07 -0.00301251 0)
(7.50228e-07 -0.00318763 0)
(7.24837e-07 -0.00334883 0)
(6.57305e-07 -0.00349611 0)
(5.49553e-07 -0.00362945 0)
(3.83651e-07 -0.00374886 0)
(1.47273e-07 -0.00385432 0)
(-1.97557e-07 -0.00394583 0)
(-5.61242e-07 -0.00402338 0)
(-5.6903e-07 -0.00408697 0)
(3.14746e-07 -0.0041366 0)
(-4.08897e-07 -0.00417227 0)
(-1.06423e-05 -0.00419389 0)
(-5.94611e-05 -0.0042037 0)
(-0.000210676 -0.00420608 0)
(-0.000503506 -0.00413758 0)
(-0.000262558 -0.00407337 0)
(-0.000263768 -0.0040109 0)
(-0.000276993 -0.00394901 0)
(-0.000285973 -0.00388763 0)
(-0.000290388 -0.00382687 0)
(-0.000294442 -0.00376676 0)
(-0.000299185 -0.00370735 0)
(-0.000304522 -0.00364862 0)
(-0.000310276 -0.00359059 0)
(-0.000316383 -0.00353329 0)
(-0.000322827 -0.00347676 0)
(-0.000329594 -0.00342104 0)
(-0.000336669 -0.00336619 0)
(-0.000344035 -0.00331224 0)
(-0.000351675 -0.00325923 0)
(-0.000359573 -0.00320717 0)
(-0.000367716 -0.00315609 0)
(-0.000376089 -0.00310598 0)
(-0.000384681 -0.00305685 0)
(-0.000393478 -0.00300868 0)
(-0.000402469 -0.00296147 0)
(-0.000411643 -0.00291521 0)
(-0.000420989 -0.00286987 0)
(1.42221e-08 -0.000171083 0)
(1.52756e-07 -0.000499413 0)
(4.32545e-07 -0.000813892 0)
(8.46163e-07 -0.0011145 0)
(1.38219e-06 -0.00140121 0)
(2.02897e-06 -0.00167401 0)
(2.77835e-06 -0.00193288 0)
(3.61902e-06 -0.00217782 0)
(4.5435e-06 -0.0024088 0)
(5.53925e-06 -0.00262582 0)
(6.59961e-06 -0.00282885 0)
(7.7105e-06 -0.0030179 0)
(8.8666e-06 -0.00319294 0)
(1.00519e-05 -0.00335397 0)
(1.12639e-05 -0.00350097 0)
(1.24844e-05 -0.00363394 0)
(1.37106e-05 -0.00375287 0)
(1.49043e-05 -0.00385774 0)
(1.60503e-05 -0.00394856 0)
(1.71938e-05 -0.0040253 0)
(1.8727e-05 -0.00408797 0)
(2.11578e-05 -0.00413655 0)
(2.22836e-05 -0.00417103 0)
(1.46818e-05 -0.0041914 0)
(-3.12667e-05 -0.00419988 0)
(-0.000192076 -0.00420229 0)
(-0.000489526 -0.00412697 0)
(-0.000236891 -0.00405643 0)
(-0.000240485 -0.00398775 0)
(-0.000253134 -0.0039196 0)
(-0.000260916 -0.003852 0)
(-0.000264179 -0.0037851 0)
(-0.000267286 -0.00371901 0)
(-0.000271233 -0.00365378 0)
(-0.000275888 -0.00358944 0)
(-0.000281066 -0.00352603 0)
(-0.0002867 -0.00346357 0)
(-0.000292773 -0.00340211 0)
(-0.000299268 -0.0033417 0)
(-0.000306167 -0.00328239 0)
(-0.000313448 -0.0032242 0)
(-0.000321092 -0.00316717 0)
(-0.000329079 -0.00311131 0)
(-0.000337393 -0.00305662 0)
(-0.000346015 -0.00300309 0)
(-0.000354929 -0.00295072 0)
(-0.000364118 -0.00289949 0)
(-0.000373568 -0.00284938 0)
(-0.000383264 -0.00280038 0)
(-0.000393191 -0.00275244 0)
(3.33696e-08 -0.000172518 0)
(3.50729e-07 -0.000503576 0)
(9.89685e-07 -0.000820641 0)
(1.93415e-06 -0.00112368 0)
(3.16196e-06 -0.00141267 0)
(4.65042e-06 -0.00168759 0)
(6.38768e-06 -0.00194843 0)
(8.35309e-06 -0.00219517 0)
(1.05385e-05 -0.00242779 0)
(1.29207e-05 -0.00264629 0)
(1.54955e-05 -0.00285066 0)
(1.82356e-05 -0.00304087 0)
(2.11418e-05 -0.00321693 0)
(2.41807e-05 -0.00337881 0)
(2.73608e-05 -0.00352651 0)
(3.06398e-05 -0.00366002 0)
(3.40325e-05 -0.00377934 0)
(3.74636e-05 -0.00388444 0)
(4.09409e-05 -0.00397534 0)
(4.44678e-05 -0.00405203 0)
(4.85386e-05 -0.0041145 0)
(5.37009e-05 -0.00416274 0)
(5.76129e-05 -0.00419672 0)
(5.11888e-05 -0.00421647 0)
(2.24538e-06 -0.00422425 0)
(-0.000163066 -0.00422658 0)
(-0.000462436 -0.00413605 0)
(-0.000201153 -0.00405283 0)
(-0.000208035 -0.0039729 0)
(-0.00021944 -0.00389448 0)
(-0.000225474 -0.00381748 0)
(-0.000227214 -0.00374192 0)
(-0.000229078 -0.0036678 0)
(-0.000231959 -0.0035951 0)
(-0.000235688 -0.00352376 0)
(-0.000240075 -0.00345374 0)
(-0.000245056 -0.00338504 0)
(-0.000250609 -0.00331768 0)
(-0.000256714 -0.00325167 0)
(-0.000263347 -0.00318704 0)
(-0.000270482 -0.00312382 0)
(-0.000278094 -0.00306201 0)
(-0.00028616 -0.00300162 0)
(-0.000294656 -0.00294265 0)
(-0.00030356 -0.00288507 0)
(-0.000312851 -0.00282888 0)
(-0.000322507 -0.00277405 0)
(-0.00033251 -0.00272055 0)
(-0.000342839 -0.00266835 0)
(-0.000353477 -0.00261742 0)
(5.43197e-08 -0.000175365 0)
(5.51803e-07 -0.000511774 0)
(1.54886e-06 -0.000833882 0)
(3.02104e-06 -0.00114168 0)
(4.93711e-06 -0.00143517 0)
(7.2633e-06 -0.00171434 0)
(9.98718e-06 -0.00197919 0)
(1.30779e-05 -0.00222972 0)
(1.6531e-05 -0.00246592 0)
(2.03116e-05 -0.0026878 0)
(2.44231e-05 -0.00289533 0)
(2.88234e-05 -0.0030885 0)
(3.35255e-05 -0.00326731 0)
(3.84763e-05 -0.00343173 0)
(4.3702e-05 -0.00358175 0)
(4.91336e-05 -0.00371734 0)
(5.48093e-05 -0.00383849 0)
(6.06105e-05 -0.00394516 0)
(6.65663e-05 -0.00403732 0)
(7.26416e-05 -0.00411495 0)
(7.95159e-05 -0.00417802 0)
(8.79452e-05 -0.00422645 0)
(9.52755e-05 -0.00426016 0)
(8.86298e-05 -0.00427911 0)
(2.94187e-05 -0.00428559 0)
(-0.000133594 -0.00428631 0)
(-0.000436478 -0.00418337 0)
(-0.000168251 -0.0040899 0)
(-0.000177768 -0.00399962 0)
(-0.000186889 -0.00391093 0)
(-0.000190541 -0.00382379 0)
(-0.000190362 -0.00373827 0)
(-0.000190718 -0.00365439 0)
(-0.000192361 -0.00357215 0)
(-0.000195072 -0.00349154 0)
(-0.000198647 -0.00341256 0)
(-0.000203009 -0.00333522 0)
(-0.000208122 -0.00325956 0)
(-0.000213954 -0.0031856 0)
(-0.000220467 -0.00311338 0)
(-0.000227627 -0.00304291 0)
(-0.000235399 -0.00297419 0)
(-0.00024375 -0.00290724 0)
(-0.00025265 -0.00284202 0)
(-0.000262068 -0.00277852 0)
(-0.000271976 -0.0027167 0)
(-0.000282346 -0.00265653 0)
(-0.000293151 -0.00259797 0)
(-0.000304366 -0.00254097 0)
(-0.000315967 -0.00248551 0)
(3.27283e-08 -0.000179181 0)
(3.23259e-07 -0.000522786 0)
(9.39764e-07 -0.000851726 0)
(1.89496e-06 -0.00116602 0)
(3.19817e-06 -0.00146567 0)
(4.8535e-06 -0.00175069 0)
(6.87649e-06 -0.00202112 0)
(9.2661e-06 -0.00227696 0)
(1.20401e-05 -0.00251823 0)
(1.51909e-05 -0.00274493 0)
(1.87413e-05 -0.00295707 0)
(2.26766e-05 -0.00315462 0)
(2.70291e-05 -0.00333759 0)
(3.17755e-05 -0.00350594 0)
(3.6965e-05 -0.00365964 0)
(4.25635e-05 -0.00379867 0)
(4.86386e-05 -0.00392298 0)
(5.51052e-05 -0.00403251 0)
(6.20127e-05 -0.00412722 0)
(6.93892e-05 -0.00420702 0)
(7.81615e-05 -0.00427185 0)
(8.96073e-05 -0.00432156 0)
(0.000100977 -0.00435596 0)
(9.39794e-05 -0.00437487 0)
(2.33646e-05 -0.00438044 0)
(-0.000130285 -0.00438051 0)
(-0.000426601 -0.00424213 0)
(-0.000154087 -0.00414276 0)
(-0.000154513 -0.00403611 0)
(-0.000155868 -0.00393039 0)
(-0.000152971 -0.00382697 0)
(-0.000147228 -0.00372626 0)
(-0.000142725 -0.00362825 0)
(-0.000140113 -0.00353285 0)
(-0.000139126 -0.00344 0)
(-0.000139515 -0.00334962 0)
(-0.000141163 -0.00326163 0)
(-0.000144 -0.00317598 0)
(-0.000147963 -0.00309264 0)
(-0.00015299 -0.00301159 0)
(-0.000159021 -0.00293279 0)
(-0.000165999 -0.00285623 0)
(-0.000173867 -0.00278188 0)
(-0.000182573 -0.00270969 0)
(-0.000192067 -0.00263963 0)
(-0.000202298 -0.00257165 0)
(-0.000213221 -0.0025057 0)
(-0.000224789 -0.00244173 0)
(-0.000236961 -0.00237967 0)
(-0.000249694 -0.00231948 0)
(5.93328e-09 -0.000178723 0)
(3.88363e-07 -0.000522587 0)
(1.28466e-06 -0.000852724 0)
(2.70588e-06 -0.00116896 0)
(4.65676e-06 -0.00147118 0)
(7.11977e-06 -0.00175932 0)
(1.01113e-05 -0.00203335 0)
(1.36111e-05 -0.00229323 0)
(1.76456e-05 -0.00253895 0)
(2.21845e-05 -0.00277049 0)
(2.7267e-05 -0.00298783 0)
(3.28512e-05 -0.00319099 0)
(3.89936e-05 -0.00337996 0)
(4.56387e-05 -0.00355477 0)
(5.28684e-05 -0.00371543 0)
(6.0612e-05 -0.00386199 0)
(6.89777e-05 -0.00399447 0)
(7.78221e-05 -0.00411294 0)
(8.72195e-05 -0.00421742 0)
(9.71509e-05 -0.00430804 0)
(0.000108951 -0.0043849 0)
(0.000124611 -0.00444831 0)
(0.000141185 -0.00449843 0)
(0.000130164 -0.0045348 0)
(3.59946e-05 -0.00455781 0)
(-0.000127612 -0.00456541 0)
(-0.000320933 -0.00456378 0)
(-0.000295262 -0.00441038 0)
(-0.000153746 -0.00426593 0)
(-0.000136265 -0.00412697 0)
(-0.000129667 -0.00399284 0)
(-0.000121511 -0.00386394 0)
(-0.000112985 -0.0037399 0)
(-0.000106352 -0.00362033 0)
(-0.000102011 -0.00350487 0)
(-9.97322e-05 -0.00339323 0)
(-9.9282e-05 -0.00328517 0)
(-0.000100508 -0.00318052 0)
(-0.000103291 -0.0030792 0)
(-0.000107523 -0.00298111 0)
(-0.000113101 -0.00288621 0)
(-0.000119927 -0.00279445 0)
(-0.000127914 -0.00270578 0)
(-0.000136977 -0.00262013 0)
(-0.000147039 -0.00253745 0)
(-0.000158029 -0.00245764 0)
(-0.000169879 -0.00238063 0)
(-0.000182528 -0.00230632 0)
(-0.000195915 -0.00223463 0)
(-0.000209987 -0.00216546 0)
(1.82766e-07 -0.000185618 0)
(1.41137e-06 -0.000542171 0)
(3.74369e-06 -0.000884059 0)
(7.0864e-06 -0.00121131 0)
(1.13455e-05 -0.00152394 0)
(1.64742e-05 -0.00182198 0)
(2.24022e-05 -0.00210543 0)
(2.91115e-05 -0.00237432 0)
(3.65244e-05 -0.00262866 0)
(4.46376e-05 -0.00286848 0)
(5.3362e-05 -0.00309379 0)
(6.27094e-05 -0.00330462 0)
(7.25757e-05 -0.00350098 0)
(8.2989e-05 -0.00368292 0)
(9.38114e-05 -0.00385043 0)
(0.00010512 -0.00400358 0)
(0.000116682 -0.00414237 0)
(0.000128705 -0.00426688 0)
(0.000140784 -0.00437711 0)
(0.000153059 -0.00447315 0)
(0.000165479 -0.004555 0)
(0.000178297 -0.00462289 0)
(0.000193382 -0.0046769 0)
(0.000203491 -0.00471698 0)
(0.000189938 -0.00474113 0)
(0.000146649 -0.00474628 0)
(1.51117e-05 -0.00475519 0)
(-0.000100755 -0.00472276 0)
(1.73837e-05 -0.00452759 0)
(4.84621e-05 -0.00434112 0)
(5.97257e-05 -0.00416383 0)
(6.80769e-05 -0.00399495 0)
(7.59047e-05 -0.00383393 0)
(8.15689e-05 -0.00368035 0)
(8.45629e-05 -0.00353377 0)
(8.4995e-05 -0.00339377 0)
(8.30839e-05 -0.00325994 0)
(7.90191e-05 -0.00313194 0)
(7.29694e-05 -0.00300943 0)
(6.50948e-05 -0.00289213 0)
(5.55478e-05 -0.00277979 0)
(4.44709e-05 -0.00267218 0)
(3.19957e-05 -0.00256907 0)
(1.82429e-05 -0.00247025 0)
(3.32293e-06 -0.00237554 0)
(-1.26629e-05 -0.00228473 0)
(-2.96215e-05 -0.00219765 0)
(-4.74669e-05 -0.00211413 0)
(-6.61198e-05 -0.00203401 0)
(-8.5507e-05 -0.00195713 0)
(2.43175e-08 -0.000193443 0)
(5.93479e-07 -0.000564488 0)
(1.86774e-06 -0.000919841 0)
(3.86237e-06 -0.00125967 0)
(6.55135e-06 -0.0015841 0)
(9.92642e-06 -0.00189316 0)
(1.39619e-05 -0.00218689 0)
(1.86593e-05 -0.00246533 0)
(2.3985e-05 -0.00272848 0)
(2.99458e-05 -0.00297638 0)
(3.64968e-05 -0.00320901 0)
(4.36549e-05 -0.00342639 0)
(5.13599e-05 -0.00362849 0)
(5.96449e-05 -0.00381528 0)
(6.84291e-05 -0.00398673 0)
(7.77688e-05 -0.0041428 0)
(8.75596e-05 -0.00428341 0)
(9.78821e-05 -0.00440849 0)
(0.000108565 -0.00451796 0)
(0.000119696 -0.00461169 0)
(0.000131127 -0.00468956 0)
(0.000143822 -0.00475132 0)
(0.000158754 -0.00479669 0)
(0.000173956 -0.00482539 0)
(0.000172315 -0.00483702 0)
(0.000111965 -0.00483317 0)
(-2.22348e-05 -0.00482796 0)
(-0.000186291 -0.00481786 0)
(-9.17882e-05 -0.00464369 0)
(-3.26398e-05 -0.00444597 0)
(-1.87336e-05 -0.00425084 0)
(-7.44272e-06 -0.0040595 0)
(4.21784e-06 -0.00387289 0)
(1.41773e-05 -0.00369198 0)
(2.17669e-05 -0.00351755 0)
(2.69881e-05 -0.00335004 0)
(2.99666e-05 -0.00318965 0)
(3.07984e-05 -0.0030364 0)
(2.95653e-05 -0.00289016 0)
(2.63518e-05 -0.00275076 0)
(2.12483e-05 -0.00261792 0)
(1.43478e-05 -0.00249138 0)
(5.74374e-06 -0.00237083 0)
(-4.47084e-06 -0.002256 0)
(-1.62038e-05 -0.00214659 0)
(-2.93643e-05 -0.00204233 0)
(-4.38628e-05 -0.00194297 0)
(-5.96118e-05 -0.00184826 0)
(-7.65258e-05 -0.00175796 0)
(-9.45214e-05 -0.00167187 0)
(7.04143e-08 -0.00019454 0)
(7.33027e-07 -0.000568876 0)
(2.09995e-06 -0.000928382 0)
(4.18065e-06 -0.00127304 0)
(6.95129e-06 -0.00160284 0)
(1.04201e-05 -0.00191775 0)
(1.45718e-05 -0.00221776 0)
(1.94283e-05 -0.00250285 0)
(2.49675e-05 -0.00277302 0)
(3.12223e-05 -0.00302825 0)
(3.81611e-05 -0.00326857 0)
(4.58318e-05 -0.00349396 0)
(5.41918e-05 -0.00370445 0)
(6.33087e-05 -0.00390004 0)
(7.31261e-05 -0.00408076 0)
(8.37409e-05 -0.00424663 0)
(9.50814e-05 -0.00439769 0)
(0.000107275 -0.00453395 0)
(0.00012017 -0.00465548 0)
(0.000133842 -0.00476231 0)
(0.000148269 -0.00485454 0)
(0.000164969 -0.00493221 0)
(0.000186413 -0.00499547 0)
(0.000209946 -0.00504442 0)
(0.00020214 -0.00507888 0)
(0.000101811 -0.00509803 0)
(-6.228e-05 -0.00510267 0)
(-0.000195959 -0.00510817 0)
(-0.000202276 -0.00504999 0)
(-4.91325e-05 -0.0048129 0)
(-3.76108e-05 -0.00457687 0)
(-2.32548e-05 -0.00434758 0)
(-8.04451e-06 -0.00412545 0)
(5.81779e-06 -0.00391086 0)
(1.66036e-05 -0.00370413 0)
(2.4484e-05 -0.00350547 0)
(2.9655e-05 -0.00331491 0)
(3.22777e-05 -0.00313239 0)
(3.24718e-05 -0.00295774 0)
(3.03477e-05 -0.00279077 0)
(2.60142e-05 -0.00263126 0)
(1.95802e-05 -0.00247896 0)
(1.11532e-05 -0.00233365 0)
(8.40258e-07 -0.00219507 0)
(-1.12529e-05 -0.00206298 0)
(-2.50216e-05 -0.00193714 0)
(-4.03628e-05 -0.00181733 0)
(-5.71755e-05 -0.00170331 0)
(-7.53608e-05 -0.00159485 0)
(-9.48225e-05 -0.00149173 0)
(9.32996e-08 -0.000201858 0)
(8.90326e-07 -0.000589949 0)
(2.50564e-06 -0.000962492 0)
(4.91323e-06 -0.00131957 0)
(8.0943e-06 -0.00166126 0)
(1.20097e-05 -0.00198761 0)
(1.6671e-05 -0.00229865 0)
(2.20358e-05 -0.00259443 0)
(2.81301e-05 -0.002875 0)
(3.48973e-05 -0.00314039 0)
(4.23805e-05 -0.00339065 0)
(5.05052e-05 -0.0036258 0)
(5.93364e-05 -0.00384588 0)
(6.87745e-05 -0.00405092 0)
(7.89164e-05 -0.00424096 0)
(8.96222e-05 -0.004416 0)
(0.000101041 -0.00457611 0)
(0.000112976 -0.00472128 0)
(0.000125623 -0.00485157 0)
(0.000138718 -0.00496696 0)
(0.000152407 -0.00506752 0)
(0.000166674 -0.00515322 0)
(0.00018239 -0.00522425 0)
(0.000200067 -0.00528067 0)
(0.000216896 -0.00532228 0)
(0.000215918 -0.00534666 0)
(0.000166121 -0.00535054 0)
(4.48301e-05 -0.00535587 0)
(-6.02299e-05 -0.00535516 0)
(-1.44041e-05 -0.00508489 0)
(6.6529e-05 -0.00480091 0)
(8.11046e-05 -0.00452528 0)
(9.12882e-05 -0.00425914 0)
(0.00010083 -0.00400284 0)
(0.000108657 -0.00375662 0)
(0.000113638 -0.00352063 0)
(0.000115648 -0.00329489 0)
(0.000114865 -0.00307925 0)
(0.000111457 -0.00287347 0)
(0.000105549 -0.0026773 0)
(9.72586e-05 -0.00249043 0)
(8.67042e-05 -0.00231254 0)
(7.40071e-05 -0.00214333 0)
(5.92895e-05 -0.00198249 0)
(4.26731e-05 -0.00182969 0)
(2.42782e-05 -0.00168465 0)
(4.22328e-06 -0.00154706 0)
(-1.7376e-05 -0.00141662 0)
(-4.04073e-05 -0.00129303 0)
(-6.47621e-05 -0.00117602 0)
(1.88308e-08 -0.000204662 0)
(4.92317e-07 -0.000598867 0)
(1.56625e-06 -0.000977914 0)
(3.26016e-06 -0.00134177 0)
(5.57451e-06 -0.00169041 0)
(8.49699e-06 -0.00202383 0)
(1.20347e-05 -0.00234201 0)
(1.61737e-05 -0.00264498 0)
(2.09232e-05 -0.00293273 0)
(2.62605e-05 -0.00320528 0)
(3.21987e-05 -0.00346262 0)
(3.87056e-05 -0.00370479 0)
(4.58024e-05 -0.00393178 0)
(5.34453e-05 -0.00414363 0)
(6.16677e-05 -0.00434035 0)
(7.04118e-05 -0.00452197 0)
(7.97303e-05 -0.00468849 0)
(8.95505e-05 -0.00483997 0)
(9.99446e-05 -0.0049764 0)
(0.00011077 -0.00509786 0)
(0.000122057 -0.0052043 0)
(0.000133763 -0.00529585 0)
(0.000147113 -0.0053725 0)
(0.000164021 -0.00543438 0)
(0.000182042 -0.00548155 0)
(0.000173989 -0.00551349 0)
(8.81672e-05 -0.00553012 0)
(-5.7035e-05 -0.00553264 0)
(-0.000188278 -0.00553576 0)
(-0.000200914 -0.00537974 0)
(-5.58864e-05 -0.00505055 0)
(-4.46417e-05 -0.00473264 0)
(-3.3582e-05 -0.00442725 0)
(-2.201e-05 -0.00413379 0)
(-1.18544e-05 -0.00385186 0)
(-4.98652e-06 -0.00358116 0)
(-1.51189e-06 -0.00332149 0)
(-1.19163e-06 -0.00307268 0)
(-3.83361e-06 -0.00283459 0)
(-9.28817e-06 -0.00260704 0)
(-1.74083e-05 -0.00238986 0)
(-2.80419e-05 -0.00218286 0)
(-4.10356e-05 -0.00198583 0)
(-5.62391e-05 -0.00179853 0)
(-7.35064e-05 -0.00162071 0)
(-9.26975e-05 -0.00145209 0)
(-0.000113678 -0.00129239 0)
(-0.00013632 -0.00114131 0)
(-0.000160502 -0.000998533 0)
(-0.000186108 -0.000863742 0)
(1.3123e-07 -0.000209101 0)
(1.1518e-06 -0.000612044 0)
(3.14884e-06 -0.000999686 0)
(6.06817e-06 -0.001372 0)
(9.83543e-06 -0.00172897 0)
(1.4414e-05 -0.00207059 0)
(1.97493e-05 -0.00239686 0)
(2.58285e-05 -0.00270778 0)
(3.25898e-05 -0.00300336 0)
(4.0033e-05 -0.00328361 0)
(4.80861e-05 -0.00354853 0)
(5.67639e-05 -0.00379817 0)
(6.59802e-05 -0.00403252 0)
(7.5768e-05 -0.00425163 0)
(8.60205e-05 -0.00445552 0)
(9.67981e-05 -0.00464424 0)
(0.000107953 -0.00481783 0)
(0.000119604 -0.00497635 0)
(0.000131532 -0.00511984 0)
(0.000143916 -0.00524839 0)
(0.000156477 -0.00536203 0)
(0.000169272 -0.00546087 0)
(0.000182499 -0.00554497 0)
(0.000196642 -0.00561454 0)
(0.000212099 -0.00566979 0)
(0.000224012 -0.00571068 0)
(0.000216329 -0.00573543 0)
(0.000175674 -0.00574173 0)
(6.444e-05 -0.00574843 0)
(-1.81772e-05 -0.00574471 0)
(2.76948e-05 -0.0053831 0)
(9.04597e-05 -0.00501619 0)
(0.000104189 -0.00466051 0)
(0.00010897 -0.00431613 0)
(0.000111345 -0.00398375 0)
(0.000110992 -0.00366403 0)
(0.000106941 -0.00335751 0)
(9.90674e-05 -0.00306448 0)
(8.76027e-05 -0.00278505 0)
(7.28148e-05 -0.00251912 0)
(5.49511e-05 -0.00226648 0)
(3.42486e-05 -0.00202681 0)
(1.09398e-05 -0.00179975 0)
(-1.47497e-05 -0.00158485 0)
(-4.26045e-05 -0.00138168 0)
(-7.24212e-05 -0.00118976 0)
(-0.000104009 -0.00100863 0)
(-0.00013719 -0.000837837 0)
(-0.000171797 -0.000676918 0)
(-0.000207679 -0.000525435 0)
(6.86985e-08 -0.000217466 0)
(7.81579e-07 -0.000635848 0)
(2.25775e-06 -0.00103777 0)
(4.47998e-06 -0.00142334 0)
(7.40716e-06 -0.00179263 0)
(1.10071e-05 -0.00214571 0)
(1.52471e-05 -0.00248264 0)
(2.01e-05 -0.00280346 0)
(2.55288e-05 -0.0031082 0)
(3.15051e-05 -0.00339691 0)
(3.79867e-05 -0.00366961 0)
(4.49467e-05 -0.00392632 0)
(5.23373e-05 -0.00416709 0)
(6.01358e-05 -0.00439192 0)
(6.82872e-05 -0.00460084 0)
(7.67756e-05 -0.00479385 0)
(8.55374e-05 -0.00497099 0)
(9.45672e-05 -0.00513224 0)
(0.000103791 -0.00527762 0)
(0.000113219 -0.00540712 0)
(0.000122726 -0.00552075 0)
(0.000132326 -0.00561845 0)
(0.000141929 -0.00570021 0)
(0.000152216 -0.00576597 0)
(0.00016409 -0.00581569 0)
(0.000175545 -0.00584945 0)
(0.000173047 -0.00586708 0)
(0.000122091 -0.00587033 0)
(5.12487e-06 -0.00586626 0)
(-0.00010064 -0.00585646 0)
(-8.92568e-05 -0.00545896 0)
(-9.77823e-06 -0.00504498 0)
(-2.02871e-05 -0.00464031 0)
(-2.23189e-05 -0.00424699 0)
(-2.60216e-05 -0.00386594 0)
(-3.20703e-05 -0.00349834 0)
(-4.14486e-05 -0.00314528 0)
(-5.41038e-05 -0.00280755 0)
(-6.99088e-05 -0.00248567 0)
(-8.8743e-05 -0.00217986 0)
(-0.000110476 -0.00189012 0)
(-0.000134954 -0.00161627 0)
(-0.000162004 -0.00135798 0)
(-0.000191443 -0.00111479 0)
(-0.000223087 -0.000886187 0)
(-0.000256749 -0.000671613 0)
(-0.000292246 -0.00047048 0)
(-0.000329388 -0.000282193 0)
(-0.000368017 -0.000106163 0)
(-0.000407993 5.82182e-05 0)
(4.91559e-08 -0.000218748 0)
(7.47173e-07 -0.000640576 0)
(2.22108e-06 -0.0010466 0)
(4.45553e-06 -0.00143671 0)
(7.39262e-06 -0.00181083 0)
(1.09878e-05 -0.00216888 0)
(1.51927e-05 -0.00251083 0)
(1.99707e-05 -0.00283664 0)
(2.52721e-05 -0.00314627 0)
(3.10619e-05 -0.0034397 0)
(3.72869e-05 -0.00371694 0)
(4.39154e-05 -0.00397798 0)
(5.08907e-05 -0.00422283 0)
(5.81856e-05 -0.0044515 0)
(6.57394e-05 -0.00466403 0)
(7.35318e-05 -0.00486045 0)
(8.14977e-05 -0.00504081 0)
(8.96281e-05 -0.00520515 0)
(9.78539e-05 -0.00535355 0)
(0.000106178 -0.00548607 0)
(0.0001145 -0.0056028 0)
(0.000122802 -0.00570383 0)
(0.000131082 -0.0057893 0)
(0.000140004 -0.00585928 0)
(0.000150607 -0.00591396 0)
(0.000160775 -0.00595349 0)
(0.000155943 -0.00597815 0)
(0.000101346 -0.00598996 0)
(-1.28743e-05 -0.00599103 0)
(-0.000120629 -0.00598673 0)
(-0.000115802 -0.00557031 0)
(-3.95021e-05 -0.00514246 0)
(-4.92658e-05 -0.00471815 0)
(-6.19775e-05 -0.00429971 0)
(-7.65178e-05 -0.00388925 0)
(-9.40343e-05 -0.00348918 0)
(-0.000115745 -0.00310167 0)
(-0.000141636 -0.00272851 0)
(-0.000171391 -0.00237101 0)
(-0.000204694 -0.00203006 0)
(-0.000241251 -0.00170616 0)
(-0.000280765 -0.00139948 0)
(-0.000322933 -0.00110995 0)
(-0.000367465 -0.000837253 0)
(-0.000414093 -0.000580959 0)
(-0.000462521 -0.000340506 0)
(-0.000512426 -0.000115307 0)
(-0.000563564 9.52279e-05 0)
(-0.000615732 0.000291726 0)
(-0.00066872 0.000474806 0)
(1.70257e-07 -0.000227811 0)
(1.29291e-06 -0.000666014 0)
(3.4181e-06 -0.00108685 0)
(6.45593e-06 -0.00149034 0)
(1.03242e-05 -0.00187654 0)
(1.49554e-05 -0.00224548 0)
(2.03055e-05 -0.0025972 0)
(2.6319e-05 -0.00293172 0)
(3.29595e-05 -0.0032491 0)
(4.01697e-05 -0.00354935 0)
(4.7917e-05 -0.0038325 0)
(5.61399e-05 -0.0040986 0)
(6.48063e-05 -0.00434766 0)
(7.38462e-05 -0.00457973 0)
(8.32247e-05 -0.00479484 0)
(9.28589e-05 -0.00499302 0)
(0.000102708 -0.00517432 0)
(0.000112674 -0.00533881 0)
(0.000122708 -0.00548652 0)
(0.000132687 -0.00561757 0)
(0.000142529 -0.00573202 0)
(0.000152068 -0.00583 0)
(0.000161335 -0.00591161 0)
(0.00017065 -0.00597695 0)
(0.000180535 -0.00602614 0)
(0.000188166 -0.0060598 0)
(0.000182873 -0.00607992 0)
(0.000142572 -0.0060912 0)
(4.5406e-05 -0.00608895 0)
(-4.3479e-05 -0.00607605 0)
(-3.63194e-05 -0.0055255 0)
(5.8346e-06 -0.00498544 0)
(-2.4718e-05 -0.00446053 0)
(-5.12055e-05 -0.00395073 0)
(-8.23174e-05 -0.00345684 0)
(-0.000117958 -0.00298054 0)
(-0.000158359 -0.00252362 0)
(-0.000203055 -0.00208761 0)
(-0.00025157 -0.00167373 0)
(-0.000303478 -0.00128282 0)
(-0.000358372 -0.000915299 0)
(-0.000415824 -0.000571245 0)
(-0.000475409 -0.000250421 0)
(-0.000536898 4.77039e-05 0)
(-0.000600018 0.000324017 0)
(-0.00066439 0.000579502 0)
(-0.00072974 0.000815235 0)
(-0.000795794 0.00103234 0)
(-0.000862274 0.00123194 0)
(-0.000928941 0.00141511 0)
(3.29496e-08 -0.000231828 0)
(9.82036e-07 -0.000678059 0)
(3.00718e-06 -0.00110685 0)
(6.08592e-06 -0.00151822 0)
(1.01211e-05 -0.0019122 0)
(1.50627e-05 -0.00228879 0)
(2.08523e-05 -0.00264806 0)
(2.74847e-05 -0.00298998 0)
(3.49138e-05 -0.00331459 0)
(4.3152e-05 -0.00362186 0)
(5.2148e-05 -0.0039118 0)
(6.19189e-05 -0.00418433 0)
(7.23953e-05 -0.00443945 0)
(8.35853e-05 -0.00467704 0)
(9.53875e-05 -0.00489709 0)
(0.000107787 -0.00509942 0)
(0.000120638 -0.00528402 0)
(0.000133887 -0.00545067 0)
(0.00014732 -0.00559936 0)
(0.00016079 -0.00572986 0)
(0.000173977 -0.00584215 0)
(0.000186932 -0.00593595 0)
(0.000200242 -0.00601109 0)
(0.000214726 -0.00606734 0)
(0.000224986 -0.006106 0)
(0.000206028 -0.00613194 0)
(0.000137699 -0.00614582 0)
(4.25034e-05 -0.00614794 0)
(-2.69077e-05 -0.00614081 0)
(-4.71049e-05 -0.00599322 0)
(-2.48876e-05 -0.00537531 0)
(-7.75515e-05 -0.00477846 0)
(-0.000140594 -0.00419839 0)
(-0.00021165 -0.00363638 0)
(-0.000289986 -0.00309384 0)
(-0.000374951 -0.00257279 0)
(-0.000465165 -0.00207509 0)
(-0.000559255 -0.00160227 0)
(-0.000656109 -0.00115536 0)
(-0.000754572 -0.000734805 0)
(-0.000853608 -0.000340854 0)
(-0.000952585 2.64986e-05 0)
(-0.00105106 0.000367666 0)
(-0.00114847 0.000683343 0)
(-0.00124436 0.000974338 0)
(-0.00133851 0.00124167 0)
(-0.00143073 0.00148651 0)
(-0.00152084 0.00171011 0)
(-0.00160873 0.00191377 0)
(-0.00169428 0.00209878 0)
(1.20056e-07 -0.000244024 0)
(-4.42214e-08 -0.000711479 0)
(-5.31812e-07 -0.00115897 0)
(-1.28818e-06 -0.00158713 0)
(-2.07401e-06 -0.00199646 0)
(-2.72658e-06 -0.00238741 0)
(-2.97846e-06 -0.00276028 0)
(-2.70569e-06 -0.00311539 0)
(-1.62507e-06 -0.0034528 0)
(3.49735e-07 -0.00377271 0)
(3.52018e-06 -0.00407497 0)
(7.9261e-06 -0.00435964 0)
(1.38816e-05 -0.00462637 0)
(2.137e-05 -0.00487507 0)
(3.07061e-05 -0.00510518 0)
(4.1815e-05 -0.00531648 0)
(5.49735e-05 -0.00550823 0)
(7.00249e-05 -0.00568004 0)
(8.70746e-05 -0.00583103 0)
(0.000105987 -0.00596055 0)
(0.000127553 -0.00606763 0)
(0.000153451 -0.00615119 0)
(0.00018325 -0.00621149 0)
(0.000199014 -0.00625087 0)
(0.000142467 -0.00626041 0)
(4.20142e-05 -0.00626207 0)
(-3.41863e-05 -0.00626531 0)
(-6.52293e-05 -0.00622993 0)
(-6.92065e-05 -0.00613188 0)
(-0.000129655 -0.00539632 0)
(-0.00022702 -0.00445428 0)
(-0.000333406 -0.00358126 0)
(-0.000449648 -0.00277414 0)
(-0.000571298 -0.00202981 0)
(-0.000696032 -0.00134632 0)
(-0.00082151 -0.000721751 0)
(-0.000947076 -0.00015368 0)
(-0.00107212 0.000361309 0)
(-0.0011954 0.000826721 0)
(-0.00131624 0.00124592 0)
(-0.00143431 0.00162237 0)
(-0.00154931 0.0019595 0)
(-0.00166097 0.00226057 0)
(-0.00176914 0.00252863 0)
(-0.00187375 0.00276654 0)
(-0.0019748 0.00297698 0)
(-0.00207231 0.00316247 0)
(-0.00216635 0.0033253 0)
(-0.00225697 0.00346765 0)
(-0.00234426 0.00359146 0)
(-0.000487539 -0.00315141 0)
(-0.000495245 -0.0031115 0)
(-0.000503025 -0.00307229 0)
(-0.000510876 -0.00303377 0)
(-0.000518795 -0.00299592 0)
(-0.000526779 -0.00295874 0)
(-0.000534826 -0.00292221 0)
(-0.000542933 -0.00288633 0)
(-0.000551097 -0.00285108 0)
(-0.000559314 -0.00281645 0)
(-0.000567582 -0.00278244 0)
(-0.000575899 -0.00274904 0)
(-0.00058426 -0.00271622 0)
(-0.000592663 -0.00268398 0)
(-0.000601106 -0.00265231 0)
(-0.000609585 -0.0026212 0)
(-0.000618097 -0.00259063 0)
(-0.000626639 -0.00256059 0)
(-0.000635208 -0.00253108 0)
(-0.000643803 -0.00250207 0)
(-0.000652418 -0.00247356 0)
(-0.000661053 -0.00244554 0)
(-0.000669704 -0.002418 0)
(-0.000678368 -0.00239092 0)
(-0.000687043 -0.0023643 0)
(-0.000695726 -0.00233813 0)
(-0.000704415 -0.00231239 0)
(-0.000713106 -0.00228707 0)