/*--------------------------------*- C++ -*----------------------------------*\
| =========                 |                                                 |
| \\      /  F ield         | OpenFOAM: The Open Source CFD Toolbox           |
|  \\    /   O peration     | Version:  2.4.0                                 |
|   \\  /    A nd           | Web:      www.OpenFOAM.org                      |
|    \\/     M anipulation  |                                                 |
\*---------------------------------------------------------------------------*/
FoamFile
{
    version     2.0;
    format      ascii;
    class       surfaceScalarField;
    location    "0.006";
    object      phi;
}
// * * * * * * * * * * * * * * * * * * * * * * * * * * * * * * * * * * * * * //

dimensions      [0 3 -1 0 0 0 0];

internalField   nonuniform List<scalar> 
124
(
-5.96556e-09
-5.96553e-09
-5.9655e-09
-5.96547e-09
-5.96544e-09
-5.96541e-09
-5.96538e-09
-5.96535e-09
-5.96532e-09
-5.96529e-09
-5.96526e-09
-5.96523e-09
-5.9652e-09
-5.96517e-09
-5.96515e-09
-5.96512e-09
-5.96509e-09
-5.96506e-09
-5.96503e-09
-5.96501e-09
-5.96498e-09
-5.96495e-09
-5.96492e-09
-5.9649e-09
-5.96487e-09
-5.96484e-09
-5.96482e-09
-5.96479e-09
-5.96477e-09
-5.96474e-09
-5.96471e-09
-5.96469e-09
-5.96466e-09
-5.96464e-09
-5.96461e-09
-5.96459e-09
-5.96456e-09
-5.96454e-09
-5.96451e-09
-5.96449e-09
-5.96447e-09
-5.96444e-09
-5.96442e-09
-5.9644e-09
-5.96437e-09
-5.96435e-09
-5.96433e-09
-5.9643e-09
-5.96428e-09
-5.96426e-09
-5.96423e-09
-5.96421e-09
-5.96419e-09
-5.96417e-09
-5.96415e-09
-5.96412e-09
-5.9641e-09
-5.96408e-09
-5.96406e-09
-5.96404e-09
-5.96402e-09
-5.964e-09
-5.96397e-09
-5.96395e-09
-5.96393e-09
-5.96391e-09
-5.96389e-09
-5.96387e-09
-5.96385e-09
-5.96383e-09
-5.96381e-09
-5.96379e-09
-5.96377e-09
-5.96375e-09
-5.96373e-09
-5.96371e-09
-5.9637e-09
-5.96368e-09
-5.96366e-09
-5.96364e-09
-5.96362e-09
-5.9636e-09
-5.96358e-09
-5.96356e-09
-5.96355e-09
-5.96353e-09
-5.96351e-09
-5.96349e-09
-5.96347e-09
-5.96346e-09
-5.96344e-09
-5.96342e-09
-5.9634e-09
-5.96339e-09
-5.96337e-09
-5.96335e-09
-5.96334e-09
-5.96332e-09
-5.9633e-09
-5.96329e-09
-5.96327e-09
-5.96325e-09
-5.96324e-09
-5.96322e-09
-5.9632e-09
-5.96319e-09
-5.96317e-09
-5.96316e-09
-5.96314e-09
-5.96313e-09
-5.96311e-09
-5.9631e-09
-5.96308e-09
-5.96306e-09
-5.96305e-09
-5.96303e-09
-5.96302e-09
-5.96301e-09
-5.96299e-09
-5.96298e-09
-5.96296e-09
-5.96295e-09
-5.96293e-09
-5.96292e-09
)
;

boundaryField
{
    BotWall
    {
        type            calculated;
        value           nonuniform 0();
    }
    FreeStream
    {
        type            calculated;
        value           nonuniform 0();
    }
    FrontNBack
    {
        type            empty;
        value           nonuniform 0();
    }
    LeftSide
    {
        type            symmetryPlane;
        value           nonuniform 0();
    }
    RightSide
    {
        type            symmetryPlane;
        value           nonuniform 0();
    }
    procBoundary3to0
    {
        type            processor;
        value           nonuniform List<scalar> 
50
(
-2.51316e-14
-2.50197e-14
-2.49074e-14
-2.47947e-14
-2.46815e-14
-2.45678e-14
-2.44536e-14
-2.43389e-14
-2.42237e-14
-2.4108e-14
-2.39917e-14
-2.38748e-14
-2.37573e-14
-2.36392e-14
-2.35206e-14
-2.34012e-14
-2.32813e-14
-2.31607e-14
-2.30395e-14
-2.29177e-14
-2.27951e-14
-2.2672e-14
-2.25482e-14
-2.24238e-14
-2.22987e-14
-2.2173e-14
-2.20467e-14
-2.19197e-14
-2.17922e-14
-2.1664e-14
-2.15353e-14
-2.1406e-14
-2.12762e-14
-2.11459e-14
-2.1015e-14
-2.08837e-14
-2.0752e-14
-2.06198e-14
-2.04873e-14
-2.03544e-14
-2.02212e-14
-2.00877e-14
-1.9954e-14
-1.98202e-14
-1.96862e-14
-1.95522e-14
-1.94182e-14
-1.92843e-14
-1.91505e-14
-1.9017e-14
)
;
    }
    procBoundary3to1
    {
        type            processor;
        value           nonuniform List<scalar> 
75
(
-3.43542e-14
-3.41957e-14
-3.40392e-14
-3.38846e-14
-3.37318e-14
-3.35806e-14
-3.3431e-14
-3.3283e-14
-3.31364e-14
-3.29911e-14
-3.28473e-14
-3.27046e-14
-3.25633e-14
-3.24231e-14
-3.22841e-14
-3.21463e-14
-3.20095e-14
-3.18738e-14
-3.17392e-14
-3.16056e-14
-3.14731e-14
-3.13415e-14
-3.12109e-14
-3.10813e-14
-3.09526e-14
-3.08248e-14
-3.0698e-14
-3.0572e-14
-3.0447e-14
-3.03227e-14
-3.01994e-14
-3.00768e-14
-2.99551e-14
-2.98341e-14
-2.97139e-14
-2.95945e-14
-2.94758e-14
-2.93578e-14
-2.92404e-14
-2.91238e-14
-2.90077e-14
-2.88923e-14
-2.87775e-14
-2.86632e-14
-2.85495e-14
-2.84363e-14
-2.83235e-14
-2.82112e-14
-2.80994e-14
-2.79879e-14
-2.78768e-14
-2.7766e-14
-2.76556e-14
-2.75454e-14
-2.74355e-14
-2.73258e-14
-2.72163e-14
-2.71069e-14
-2.69977e-14
-2.68886e-14
-2.67795e-14
-2.66705e-14
-2.65615e-14
-2.64525e-14
-2.63434e-14
-2.62342e-14
-2.61249e-14
-2.60155e-14
-2.59059e-14
-2.57961e-14
-2.5686e-14
-2.55758e-14
-2.54652e-14
-2.53544e-14
-2.52432e-14
)
;
    }
    procBoundary3to2
    {
        type            processor;
        value           uniform -5.96291e-09;
    }
    procBoundary3to4
    {
        type            processor;
        value           uniform 5.96559e-09;
    }
    procBoundary3to5
    {
        type            processor;
        value           nonuniform List<scalar> 
75
(
5.33376e-15
5.36724e-15
5.39978e-15
5.43133e-15
5.46188e-15
5.49142e-15
5.51992e-15
5.54737e-15
5.57375e-15
5.59905e-15
5.62325e-15
5.64635e-15
5.66833e-15
5.68919e-15
5.70892e-15
5.72751e-15
5.74496e-15
5.76127e-15
5.77643e-15
5.79044e-15
5.8033e-15
5.81501e-15
5.82558e-15
5.835e-15
5.84328e-15
5.85042e-15
5.85644e-15
5.86134e-15
5.86513e-15
5.86781e-15
5.8694e-15
5.8699e-15
5.86932e-15
5.86768e-15
5.86499e-15
5.86125e-15
5.85649e-15
5.85071e-15
5.84394e-15
5.83617e-15
5.82744e-15
5.81775e-15
5.80713e-15
5.79559e-15
5.78314e-15
5.76981e-15
5.75561e-15
5.74057e-15
5.7247e-15
5.70803e-15
5.69057e-15
5.67233e-15
5.65335e-15
5.63364e-15
5.61322e-15
5.59213e-15
5.57037e-15
5.54797e-15
5.52496e-15
5.50136e-15
5.47718e-15
5.45247e-15
5.42723e-15
5.4015e-15
5.37529e-15
5.34864e-15
5.32156e-15
5.2941e-15
5.26626e-15
5.23809e-15
5.2096e-15
5.18085e-15
5.15185e-15
5.12264e-15
5.09324e-15
)
;
    }
    procBoundary3to6
    {
        type            processor;
        value           nonuniform List<scalar> 
50
(
3.18684e-15
3.22336e-15
3.26073e-15
3.29889e-15
3.33782e-15
3.37749e-15
3.41787e-15
3.45892e-15
3.50062e-15
3.54292e-15
3.5858e-15
3.62923e-15
3.67316e-15
3.71756e-15
3.76239e-15
3.80762e-15
3.85321e-15
3.89913e-15
3.94533e-15
3.99177e-15
4.03842e-15
4.08523e-15
4.13217e-15
4.17919e-15
4.22626e-15
4.27333e-15
4.32036e-15
4.36731e-15
4.41414e-15
4.46081e-15
4.50727e-15
4.55349e-15
4.59942e-15
4.64502e-15
4.69026e-15
4.73509e-15
4.77948e-15
4.82338e-15
4.86676e-15
4.90958e-15
4.9518e-15
4.9934e-15
5.03432e-15
5.07454e-15
5.11403e-15
5.15276e-15
5.19068e-15
5.22777e-15
5.264e-15
5.29933e-15
)
;
    }
}


// ************************************************************************* //
