/*--------------------------------*- C++ -*----------------------------------*\
| =========                 |                                                 |
| \\      /  F ield         | OpenFOAM: The Open Source CFD Toolbox           |
|  \\    /   O peration     | Version:  2.4.0                                 |
|   \\  /    A nd           | Web:      www.OpenFOAM.org                      |
|    \\/     M anipulation  |                                                 |
\*---------------------------------------------------------------------------*/
FoamFile
{
    version     2.0;
    format      ascii;
    class       volScalarField;
    location    "0.6";
    object      H;
}
// * * * * * * * * * * * * * * * * * * * * * * * * * * * * * * * * * * * * * //

dimensions      [0 2 -2 0 0 0 0];

internalField   nonuniform List<scalar> 
125
(
-28.7951
-28.7984
-28.7996
-28.8
-28.7942
-26.7511
-26.754
-26.7552
-26.7555
-26.7502
-24.9042
-24.9069
-24.9079
-24.9082
-24.9034
-23.2399
-23.2424
-23.2433
-23.2436
-23.2392
-21.7436
-21.7458
-21.7466
-21.7469
-21.743
-20.4005
-20.4024
-20.4031
-20.4034
-20.3999
-19.1958
-19.1975
-19.1982
-19.1984
-19.1953
-18.1154
-18.1169
-18.1175
-18.1176
-18.1149
-17.1456
-17.1469
-17.1473
-17.1475
-17.1451
-16.2732
-16.2743
-16.2747
-16.2749
-16.2728
-15.4862
-15.4871
-15.4875
-15.4876
-15.4858
-14.773
-14.7738
-14.7741
-14.7742
-14.7727
-14.1233
-14.124
-14.1242
-14.1243
-14.1231
-13.5276
-13.5282
-13.5284
-13.5284
-13.5274
-12.9774
-12.9778
-12.978
-12.978
-12.9772
-12.465
-12.4654
-12.4655
-12.4655
-12.4648
-11.9838
-11.9841
-11.9842
-11.9843
-11.9837
-11.5281
-11.5284
-11.5284
-11.5285
-11.528
-11.0929
-11.0931
-11.0931
-11.0931
-11.0928
-10.6739
-10.6741
-10.6741
-10.6741
-10.6738
-10.2678
-10.2679
-10.2679
-10.2679
-10.2677
-9.87151
-9.8716
-9.8716
-9.8716
-9.87142
-9.48281
-9.48287
-9.48287
-9.48287
-9.48273
-9.09982
-9.09987
-9.09986
-9.09986
-9.09975
-8.72114
-8.72117
-8.72116
-8.72115
-8.72107
)
;

boundaryField
{
    BotWall
    {
        type            zeroGradient;
    }
    FreeStream
    {
        type            zeroGradient;
    }
    FrontNBack
    {
        type            empty;
    }
    LeftSide
    {
        type            symmetryPlane;
    }
    RightSide
    {
        type            symmetryPlane;
    }
    procBoundary2to1
    {
        type            processor;
        value           nonuniform List<scalar> 5(-31.0519 -31.0554 -31.0568 -31.0572 -31.0509);
    }
    procBoundary2to3
    {
        type            processor;
        value           nonuniform List<scalar> 5(-8.34566 -8.34569 -8.34567 -8.34566 -8.3456);
    }
}


// ************************************************************************* //
