/*--------------------------------*- C++ -*----------------------------------*\
| =========                 |                                                 |
| \\      /  F ield         | OpenFOAM: The Open Source CFD Toolbox           |
|  \\    /   O peration     | Version:  2.4.0                                 |
|   \\  /    A nd           | Web:      www.OpenFOAM.org                      |
|    \\/     M anipulation  |                                                 |
\*---------------------------------------------------------------------------*/
FoamFile
{
    version     2.0;
    format      ascii;
    class       volScalarField;
    location    "0.6";
    object      p;
}
// * * * * * * * * * * * * * * * * * * * * * * * * * * * * * * * * * * * * * //

dimensions      [1 -1 -2 0 0 0 0];

internalField   nonuniform List<scalar> 
125
(
-0.0332256
-0.0332256
-0.0332256
-0.0332256
-0.0332257
-0.0340834
-0.0340834
-0.0340834
-0.0340834
-0.0340834
-0.0349507
-0.0349507
-0.0349507
-0.0349507
-0.0349507
-0.0358277
-0.0358277
-0.0358277
-0.0358277
-0.0358277
-0.0367145
-0.0367145
-0.0367145
-0.0367145
-0.0367145
-0.0376112
-0.0376111
-0.0376111
-0.0376111
-0.0376112
-0.0385178
-0.0385178
-0.0385178
-0.0385178
-0.0385179
-0.0394346
-0.0394346
-0.0394346
-0.0394346
-0.0394347
-0.0403617
-0.0403617
-0.0403617
-0.0403617
-0.0403617
-0.0412991
-0.041299
-0.041299
-0.041299
-0.0412991
-0.0422469
-0.0422469
-0.0422469
-0.0422469
-0.0422469
-0.0432053
-0.0432053
-0.0432053
-0.0432053
-0.0432053
-0.0441744
-0.0441744
-0.0441744
-0.0441744
-0.0441744
-0.0451543
-0.0451543
-0.0451543
-0.0451543
-0.0451543
-0.0461452
-0.0461452
-0.0461452
-0.0461452
-0.0461452
-0.0471471
-0.0471471
-0.0471471
-0.0471471
-0.0471471
-0.0481602
-0.0481602
-0.0481602
-0.0481602
-0.0481602
-0.0491846
-0.0491846
-0.0491846
-0.0491846
-0.0491846
-0.0502204
-0.0502204
-0.0502204
-0.0502204
-0.0502204
-0.0512678
-0.0512678
-0.0512678
-0.0512678
-0.0512678
-0.0523269
-0.0523269
-0.0523269
-0.0523269
-0.0523269
-0.0533978
-0.0533978
-0.0533978
-0.0533978
-0.0533978
-0.0544806
-0.0544806
-0.0544806
-0.0544806
-0.0544807
-0.0555756
-0.0555756
-0.0555756
-0.0555756
-0.0555756
-0.0566827
-0.0566827
-0.0566827
-0.0566827
-0.0566827
)
;

boundaryField
{
    BotWall
    {
        type            calculated;
        value           nonuniform 0();
    }
    FreeStream
    {
        type            calculated;
        value           nonuniform 0();
    }
    FrontNBack
    {
        type            empty;
    }
    LeftSide
    {
        type            symmetryPlane;
    }
    RightSide
    {
        type            symmetryPlane;
    }
    procBoundary2to1
    {
        type            processor;
        value           nonuniform List<scalar> 5(-0.0323774 -0.0323773 -0.0323773 -0.0323773 -0.0323774);
    }
    procBoundary2to3
    {
        type            processor;
        value           nonuniform List<scalar> 5(-0.0578022 -0.0578022 -0.0578022 -0.0578022 -0.0578022);
    }
}


// ************************************************************************* //
