/*--------------------------------*- C++ -*----------------------------------*\
| =========                 |                                                 |
| \\      /  F ield         | OpenFOAM: The Open Source CFD Toolbox           |
|  \\    /   O peration     | Version:  2.4.0                                 |
|   \\  /    A nd           | Web:      www.OpenFOAM.org                      |
|    \\/     M anipulation  |                                                 |
\*---------------------------------------------------------------------------*/
FoamFile
{
    version     2.0;
    format      ascii;
    class       volVectorField;
    location    "0.6";
    object      U;
}
// * * * * * * * * * * * * * * * * * * * * * * * * * * * * * * * * * * * * * //

dimensions      [0 1 -1 0 0 0 0];

internalField   nonuniform List<vector> 
125
(
(2.01992e-08 -0.00242101 0)
(1.67276e-08 -0.00242104 0)
(-2.02647e-09 -0.00242104 0)
(-4.07077e-08 -0.00242105 0)
(-4.21015e-08 -0.00242102 0)
(2.00753e-08 -0.00242101 0)
(1.64154e-08 -0.00242104 0)
(-2.21817e-09 -0.00242104 0)
(-3.96902e-08 -0.00242105 0)
(-4.11106e-08 -0.00242102 0)
(1.99089e-08 -0.00242101 0)
(1.60665e-08 -0.00242104 0)
(-2.40683e-09 -0.00242104 0)
(-3.86325e-08 -0.00242105 0)
(-4.00753e-08 -0.00242102 0)
(1.97069e-08 -0.00242102 0)
(1.56889e-08 -0.00242104 0)
(-2.58939e-09 -0.00242104 0)
(-3.75446e-08 -0.00242105 0)
(-3.90074e-08 -0.00242102 0)
(1.94753e-08 -0.00242102 0)
(1.52899e-08 -0.00242104 0)
(-2.76318e-09 -0.00242104 0)
(-3.64366e-08 -0.00242105 0)
(-3.79185e-08 -0.00242102 0)
(1.92196e-08 -0.00242102 0)
(1.48759e-08 -0.00242104 0)
(-2.92603e-09 -0.00242104 0)
(-3.53174e-08 -0.00242105 0)
(-3.68185e-08 -0.00242103 0)
(1.89444e-08 -0.00242102 0)
(1.44524e-08 -0.00242104 0)
(-3.07618e-09 -0.00242104 0)
(-3.41944e-08 -0.00242105 0)
(-3.57155e-08 -0.00242103 0)
(1.86534e-08 -0.00242102 0)
(1.40241e-08 -0.00242104 0)
(-3.21235e-09 -0.00242103 0)
(-3.3074e-08 -0.00242105 0)
(-3.46164e-08 -0.00242103 0)
(1.83496e-08 -0.00242102 0)
(1.35946e-08 -0.00242104 0)
(-3.33366e-09 -0.00242103 0)
(-3.19612e-08 -0.00242105 0)
(-3.35264e-08 -0.00242103 0)
(1.80354e-08 -0.00242102 0)
(1.31668e-08 -0.00242104 0)
(-3.43965e-09 -0.00242103 0)
(-3.08599e-08 -0.00242105 0)
(-3.24494e-08 -0.00242103 0)
(1.77124e-08 -0.00242102 0)
(1.27427e-08 -0.00242104 0)
(-3.53022e-09 -0.00242103 0)
(-2.97731e-08 -0.00242105 0)
(-3.13881e-08 -0.00242103 0)
(1.73817e-08 -0.00242102 0)
(1.23235e-08 -0.00242104 0)
(-3.60558e-09 -0.00242103 0)
(-2.87029e-08 -0.00242105 0)
(-3.03442e-08 -0.00242103 0)
(1.70436e-08 -0.00242102 0)
(1.19101e-08 -0.00242104 0)
(-3.66624e-09 -0.00242103 0)
(-2.76508e-08 -0.00242105 0)
(-2.93184e-08 -0.00242103 0)
(1.66984e-08 -0.00242102 0)
(1.15024e-08 -0.00242104 0)
(-3.71295e-09 -0.00242103 0)
(-2.66174e-08 -0.00242105 0)
(-2.83109e-08 -0.00242103 0)
(1.63457e-08 -0.00242102 0)
(1.11003e-08 -0.00242104 0)
(-3.74663e-09 -0.00242103 0)
(-2.56031e-08 -0.00242105 0)
(-2.73211e-08 -0.00242103 0)
(1.59849e-08 -0.00242102 0)
(1.07029e-08 -0.00242104 0)
(-3.76838e-09 -0.00242103 0)
(-2.4608e-08 -0.00242105 0)
(-2.63482e-08 -0.00242103 0)
(1.56154e-08 -0.00242102 0)
(1.03094e-08 -0.00242104 0)
(-3.77939e-09 -0.00242103 0)
(-2.36317e-08 -0.00242105 0)
(-2.53911e-08 -0.00242103 0)
(1.52362e-08 -0.00242102 0)
(9.91864e-09 -0.00242104 0)
(-3.78094e-09 -0.00242103 0)
(-2.26739e-08 -0.00242105 0)
(-2.44483e-08 -0.00242104 0)
(1.48464e-08 -0.00242102 0)
(9.52926e-09 -0.00242104 0)
(-3.77437e-09 -0.00242103 0)
(-2.17342e-08 -0.00242105 0)
(-2.35185e-08 -0.00242104 0)
(1.44449e-08 -0.00242102 0)
(9.13996e-09 -0.00242104 0)
(-3.76104e-09 -0.00242103 0)
(-2.08121e-08 -0.00242105 0)
(-2.26004e-08 -0.00242104 0)
(1.40308e-08 -0.00242102 0)
(8.74938e-09 -0.00242104 0)
(-3.7423e-09 -0.00242103 0)
(-1.99074e-08 -0.00242105 0)
(-2.16929e-08 -0.00242104 0)
(1.3603e-08 -0.00242102 0)
(8.35619e-09 -0.00242104 0)
(-3.71949e-09 -0.00242103 0)
(-1.90204e-08 -0.00242105 0)
(-2.07953e-08 -0.00242104 0)
(1.31608e-08 -0.00242102 0)
(7.95914e-09 -0.00242104 0)
(-3.69394e-09 -0.00242103 0)
(-1.81479e-08 -0.00242105 0)
(-1.99036e-08 -0.00242104 0)
(1.27033e-08 -0.00242102 0)
(7.55716e-09 -0.00242103 0)
(-3.66692e-09 -0.00242103 0)
(-1.72955e-08 -0.00242105 0)
(-1.90225e-08 -0.00242104 0)
(1.223e-08 -0.00242102 0)
(7.14924e-09 -0.00242103 0)
(-3.63976e-09 -0.00242103 0)
(-1.64553e-08 -0.00242105 0)
(-1.81432e-08 -0.00242104 0)
)
;

boundaryField
{
    BotWall
    {
        type            fixedValue;
        value           nonuniform 0();
    }
    FreeStream
    {
        type            zeroGradient;
    }
    FrontNBack
    {
        type            empty;
    }
    LeftSide
    {
        type            symmetryPlane;
    }
    RightSide
    {
        type            symmetryPlane;
    }
    procBoundary2to1
    {
        type            processor;
        value           nonuniform List<vector> 5((2.02732e-08 -0.00242101 0) (1.69944e-08 -0.00242104 0) (-1.83527e-09 -0.00242104 0) (-4.16693e-08 -0.00242105 0) (-4.30304e-08 -0.00242102 0));
    }
    procBoundary2to3
    {
        type            processor;
        value           nonuniform List<vector> 5((1.17406e-08 -0.00242102 0) (6.73462e-09 -0.00242103 0) (-3.61357e-09 -0.00242103 0) (-1.56352e-08 -0.00242105 0) (-1.7273e-08 -0.00242104 0));
    }
}


// ************************************************************************* //
