/*--------------------------------*- C++ -*----------------------------------*\
| =========                 |                                                 |
| \\      /  F ield         | OpenFOAM: The Open Source CFD Toolbox           |
|  \\    /   O peration     | Version:  2.4.0                                 |
|   \\  /    A nd           | Web:      www.OpenFOAM.org                      |
|    \\/     M anipulation  |                                                 |
\*---------------------------------------------------------------------------*/
FoamFile
{
    version     2.0;
    format      ascii;
    class       volScalarField;
    location    "1.9";
    object      H;
}
// * * * * * * * * * * * * * * * * * * * * * * * * * * * * * * * * * * * * * //

dimensions      [0 2 -2 0 0 0 0];

internalField   nonuniform List<scalar> 
125
(
-8.75415
-8.75382
-8.75357
-8.75375
-8.75415
-8.44008
-8.43977
-8.43952
-8.4397
-8.44008
-8.11943
-8.11913
-8.11889
-8.11906
-8.11942
-7.79247
-7.79218
-7.79196
-7.79212
-7.79247
-7.45951
-7.45924
-7.45903
-7.45918
-7.45951
-7.12087
-7.12061
-7.12042
-7.12056
-7.12087
-6.77689
-6.77665
-6.77646
-6.7766
-6.77689
-6.42793
-6.42771
-6.42753
-6.42766
-6.42793
-6.07438
-6.07417
-6.074
-6.07412
-6.07438
-5.71664
-5.71644
-5.71628
-5.71639
-5.71663
-5.35512
-5.35494
-5.3548
-5.3549
-5.35512
-4.99028
-4.99011
-4.98998
-4.99007
-4.99027
-4.62258
-4.62242
-4.6223
-4.62238
-4.62257
-4.25249
-4.25235
-4.25224
-4.25232
-4.25249
-3.88053
-3.8804
-3.8803
-3.88037
-3.88052
-3.50721
-3.50709
-3.507
-3.50707
-3.5072
-3.13307
-3.13297
-3.13289
-3.13294
-3.13307
-2.75867
-2.75858
-2.75851
-2.75856
-2.75867
-2.38458
-2.38451
-2.38445
-2.38449
-2.38458
-2.0114
-2.01134
-2.01129
-2.01132
-2.0114
-1.63973
-1.63968
-1.63964
-1.63967
-1.63973
-1.2702
-1.27016
-1.27012
-1.27015
-1.27019
-0.903426
-0.903397
-0.903375
-0.903391
-0.903425
-0.540071
-0.540054
-0.54004
-0.54005
-0.54007
-0.180791
-0.180785
-0.18078
-0.180783
-0.18079
)
;

boundaryField
{
    BotWall
    {
        type            zeroGradient;
    }
    FreeStream
    {
        type            zeroGradient;
    }
    FrontNBack
    {
        type            empty;
    }
    LeftSide
    {
        type            symmetryPlane;
    }
    RightSide
    {
        type            symmetryPlane;
    }
    procBoundary3to2
    {
        type            processor;
        value           nonuniform List<scalar> 5(-9.06072 -9.06037 -9.0601 -9.06029 -9.06072);
    }
}


// ************************************************************************* //
