/*--------------------------------*- C++ -*----------------------------------*\
| =========                 |                                                 |
| \\      /  F ield         | OpenFOAM: The Open Source CFD Toolbox           |
|  \\    /   O peration     | Version:  2.4.0                                 |
|   \\  /    A nd           | Web:      www.OpenFOAM.org                      |
|    \\/     M anipulation  |                                                 |
\*---------------------------------------------------------------------------*/
FoamFile
{
    version     2.0;
    format      ascii;
    class       volScalarField;
    location    "1.9";
    object      p;
}
// * * * * * * * * * * * * * * * * * * * * * * * * * * * * * * * * * * * * * //

dimensions      [1 -1 -2 0 0 0 0];

internalField   nonuniform List<scalar> 
125
(
-0.0577091
-0.0577091
-0.0577091
-0.0577091
-0.0577091
-0.0588439
-0.0588439
-0.0588439
-0.0588439
-0.0588439
-0.0599913
-0.0599913
-0.0599913
-0.0599913
-0.0599913
-0.0611516
-0.0611516
-0.0611516
-0.0611516
-0.0611516
-0.0623247
-0.0623247
-0.0623247
-0.0623247
-0.0623247
-0.063511
-0.063511
-0.063511
-0.063511
-0.063511
-0.0647105
-0.0647105
-0.0647105
-0.0647105
-0.0647105
-0.0659234
-0.0659234
-0.0659234
-0.0659234
-0.0659234
-0.0671499
-0.0671499
-0.0671499
-0.0671499
-0.0671499
-0.06839
-0.06839
-0.06839
-0.06839
-0.06839
-0.069644
-0.069644
-0.069644
-0.069644
-0.069644
-0.0709119
-0.0709119
-0.0709119
-0.0709119
-0.0709119
-0.072194
-0.072194
-0.072194
-0.072194
-0.072194
-0.0734904
-0.0734904
-0.0734904
-0.0734904
-0.0734904
-0.0748013
-0.0748013
-0.0748013
-0.0748013
-0.0748013
-0.0761268
-0.0761268
-0.0761268
-0.0761268
-0.0761268
-0.0774671
-0.0774671
-0.0774671
-0.0774671
-0.0774671
-0.0788223
-0.0788223
-0.0788223
-0.0788223
-0.0788223
-0.0801927
-0.0801927
-0.0801927
-0.0801927
-0.0801927
-0.0815784
-0.0815784
-0.0815784
-0.0815784
-0.0815784
-0.0829795
-0.0829795
-0.0829795
-0.0829795
-0.0829795
-0.0843963
-0.0843963
-0.0843963
-0.0843963
-0.0843963
-0.0858288
-0.0858288
-0.0858288
-0.0858288
-0.0858288
-0.0872774
-0.0872774
-0.0872774
-0.0872774
-0.0872774
-0.0887421
-0.0887421
-0.0887421
-0.0887421
-0.0887421
)
;

boundaryField
{
    BotWall
    {
        type            calculated;
        value           nonuniform 0();
    }
    FreeStream
    {
        type            calculated;
        value           nonuniform List<scalar> 5(-0.0894785 -0.0894785 -0.0894785 -0.0894785 -0.0894785);
    }
    FrontNBack
    {
        type            empty;
    }
    LeftSide
    {
        type            symmetryPlane;
    }
    RightSide
    {
        type            symmetryPlane;
    }
    procBoundary3to2
    {
        type            processor;
        value           nonuniform List<scalar> 5(-0.0565869 -0.0565869 -0.0565869 -0.0565869 -0.0565869);
    }
}


// ************************************************************************* //
