/*--------------------------------*- C++ -*----------------------------------*\
| =========                 |                                                 |
| \\      /  F ield         | OpenFOAM: The Open Source CFD Toolbox           |
|  \\    /   O peration     | Version:  2.4.0                                 |
|   \\  /    A nd           | Web:      www.OpenFOAM.org                      |
|    \\/     M anipulation  |                                                 |
\*---------------------------------------------------------------------------*/
FoamFile
{
    version     2.0;
    format      ascii;
    class       volScalarField;
    location    "5";
    object      alpha1;
}
// * * * * * * * * * * * * * * * * * * * * * * * * * * * * * * * * * * * * * //

dimensions      [0 0 0 0 0 0 0];

internalField   nonuniform List<scalar> 
8000
(
1
1
1
1
1
1
1
1
1
1
1
1
1
1
1
1
1
1
1
1
1
1
1
1
1
1
1
1
1
1
1
1
1
1
1
1
1
1
1
1
1
1
1
1
1
1
1
1
1
1
1
1
1
1
1
1
0.999999
0.999999
0.999999
0.999999
1
1
1
1
1
1
1
1
1
1
1
1
1
1
1
1
1
1
1
1
1
1
1
1
1
1
1
1
1
1
1
1
1
1
1
1
1
1
1
1
1
1
1
0.999999
0.999997
0.999995
0.999995
0.999996
0.999998
1
0.999996
0.999967
0.999942
0.969175
0.932602
0.977443
0.852494
0.789729
0.969094
0.889621
0.571415
0.63262
0.865342
0.889077
0.872501
0.745276
0.498616
0.392483
0.697581
0.814901
0.812901
0.712997
0.652812
0.748845
0.807929
0.778272
0.603956
0.229688
0.169196
0.350625
0.526066
0.583496
0.66792
0.775468
0.782159
0.693014
0.403913
0.123736
0.0360896
0.0591377
1
1
1
0.999999
0.999996
0.999993
0.999994
0.999999
1
0.466064
0.198426
0.193484
0.171739
0.174897
0.152071
0.130002
0.144572
0.138537
0.0755991
0.127987
0.102455
0.104621
0.10061
0.0464436
0.0776594
0.0721208
0.061251
0.0592392
0.058895
0.0206467
0.021658
0.0513559
0.0438134
0.0145821
0.0184122
0.0255648
0.0194529
0.0156327
0.0130441
0.00976623
0.00597363
0.0039994
0.00285651
0.00247281
0.0029976
0.00393423
0.00400035
0.00414995
0.00333467
0.00200827
1
1
1
0.999999
0.999997
0.999995
0.999993
0.999981
0.999974
0.999917
0.99993
0.439351
0.129416
0.0503734
0.0236766
0.0179992
0.00761298
0.00243614
0.0024338
0.00261724
0.00148798
0.00127785
0.00108002
0.000760824
0.000756629
0.00049232
0.000741341
0.000696937
0.0015324
0.00626775
0.0102141
0.00184195
0.00809486
0.0172667
0.0157444
0.00217539
0.00140766
0.00140765
0.00247792
0.00363332
0.000473007
0.000472641
0.00062882
0.000683672
0.000156247
0.000156254
0.000199054
0.00066924
0.000788629
7.4776e-05
1
1
1
0.999999
0.999998
0.999996
0.999994
0.999992
0.999993
0.999994
0.999995
1
1
0.999999
0.999986
0.945808
0.753554
0.39876
0.138807
0.0288275
0.0309305
0.0148286
0.0056113
0.0023948
0.00117673
0.000491417
0.000154288
5.20773e-05
5.19912e-05
0.00018363
0.000740309
0.000337948
0.000337947
0.00114638
0.00221254
0.00325826
0.00534092
0.0131345
0.0131347
0.00539697
0.00188338
0.000952635
0.000628059
0.000823569
0.000387752
0.000156256
0.000156264
0.000349163
0.000641155
7.261e-05
1
1
1
0.999999
0.999998
0.999995
0.999994
0.999994
0.999994
0.999994
0.999996
0.999997
0.999997
0.999999
0.999999
1
1
1
1
0.999976
1
0.839677
0.636597
0.48653
0.307152
0.141516
0.0494444
0.0284222
0.0150327
0.00679836
0.00343929
0.00212953
0.00107198
0.000981796
0.000981637
0.00132144
0.00192425
0.00245513
0.00417411
0.00194775
0.00194702
0.00597858
0.0117899
0.00615262
0.00173589
0.00046226
0.000156266
0.000593345
0.000710145
0.00055468
1
1
1
0.999999
0.999997
0.999996
0.999995
0.999995
0.999996
0.999996
0.999997
0.999996
0.999995
0.999994
0.999993
0.999993
0.999993
0.999993
0.999989
0.999981
0.99999
1
1
1
1
1
1
0.989345
0.913714
0.730447
0.386022
0.141456
0.053386
0.0275345
0.0146817
0.00692693
0.00357402
0.00263667
0.00239072
0.0020031
0.00218481
0.00973797
0.0117863
0.0100611
0.00355681
0.000742299
0.000172641
0.000198288
0.000463583
0.0005884
1
1
1
0.999999
0.999997
0.999996
0.999996
0.999996
0.999997
0.999996
0.999997
0.999993
0.99999
0.999989
0.999988
0.999987
0.999985
0.999952
0.999846
0.999856
0.999939
0.999984
0.999992
0.999994
0.999996
0.999997
0.999999
1
1
1
1
1
1.00001
0.983196
0.926435
0.716311
0.324777
0.115219
0.0490192
0.0327402
0.0187142
0.014966
0.00909753
0.0036956
0.00116667
0.00059361
0.000466299
0.000725362
0.00191489
0.00747086
1
1
1
0.999998
0.999997
0.999997
0.999997
0.999997
0.999998
0.999994
0.999991
0.999989
0.999985
0.999985
0.999985
0.999977
0.999895
0.999656
0.99957
0.999773
0.999949
0.999985
0.99999
0.99999
0.999991
0.999993
0.999995
0.999997
0.999998
0.999999
0.999999
1
1
1
1
1
0.999999
0.998397
0.984949
0.961848
0.823645
0.422537
0.12743
0.0816996
0.0580013
0.0356327
0.0255419
0.0184084
0.0128906
0.00916468
1
1
1
0.999999
0.999998
0.999998
0.999998
0.999998
0.999996
0.999993
0.999989
0.999984
0.99998
0.999986
0.999983
0.999924
0.999618
0.999426
0.999576
0.999912
0.999988
0.999993
0.999991
0.99998
0.999987
0.999991
0.999994
0.999996
0.999997
0.999998
0.999998
0.999999
0.999999
0.999999
1
1
1
1
1
1
1
0.999999
0.989246
0.973961
0.889009
0.591527
0.288304
0.177293
0.136714
0.104627
1
1
1
0.999999
0.999998
0.999998
0.999998
0.999997
0.999995
0.999992
0.999987
0.999982
0.99998
0.999986
0.999981
0.99989
0.999565
0.999426
0.999548
0.999871
0.999983
0.999992
0.999985
0.999976
0.99998
0.999988
0.999991
0.999993
0.999995
0.999996
0.999997
0.999998
0.999998
0.999998
0.999999
0.999999
0.999999
0.999999
0.999999
0.999999
1
1
1
1
1
0.997503
0.970181
0.92757
0.865211
0.780458
1
1
1
0.999999
0.999999
0.999998
0.999998
0.999997
0.999996
0.999993
0.999989
0.999983
0.99998
0.999984
0.99998
0.999961
0.999815
0.999495
0.999464
0.999696
0.999932
0.999972
0.999982
0.999976
0.99996
0.999985
0.999987
0.999989
0.999992
0.999994
0.999995
0.999996
0.999997
0.999997
0.999997
0.999998
0.999998
0.999998
0.999998
0.999998
0.999997
0.999997
0.999997
0.999997
0.999998
0.999999
1
1
1
0.994169
1
1
1
0.999999
0.999999
0.999999
0.999998
0.999997
0.999996
0.999995
0.999992
0.999987
0.999982
0.99998
0.99998
0.999983
0.999975
0.999814
0.999464
0.999708
0.999877
0.999913
0.999939
0.999948
0.999963
0.999982
0.999984
0.999986
0.99999
0.999991
0.999993
0.999994
0.999995
0.999995
0.999996
0.999996
0.999996
0.999997
0.999996
0.999996
0.999995
0.999994
0.999993
0.999991
0.999987
0.999983
0.999988
0.999994
0.999997
0.999999
1
1
1
0.999999
0.999999
0.999999
0.999998
0.999998
0.999997
0.999996
0.999994
0.999992
0.999989
0.999986
0.999985
0.999991
0.999991
0.999978
0.999892
0.999741
0.999868
0.999876
0.999903
0.999928
0.99995
0.999966
0.999976
0.999981
0.999986
0.99999
0.999991
0.999992
0.999993
0.999994
0.999995
0.999995
0.999996
0.999996
0.999996
0.999995
0.999995
0.999994
0.999992
0.999988
0.999981
0.999969
0.999965
0.999965
0.999974
0.999982
1
1
1
0.999999
0.999999
0.999999
0.999998
0.999998
0.999998
0.999997
0.999996
0.999995
0.999994
0.999992
0.99999
0.99999
0.99999
0.999994
0.999989
0.999989
0.999977
0.999963
0.999929
0.999928
0.999937
0.999949
0.999965
0.999977
0.999983
0.999987
0.99999
0.999992
0.999993
0.999994
0.999994
0.999995
0.999995
0.999996
0.999996
0.999996
0.999996
0.999996
0.999996
0.999995
0.999993
0.99999
0.999979
0.999958
0.999947
0.999947
1
1
0.999999
0.999999
0.999999
0.999998
0.999998
0.999998
0.999998
0.999997
0.999997
0.999997
0.999996
0.999996
0.999995
0.999995
0.999994
0.999994
0.999995
0.999995
0.999995
0.999995
0.999994
0.999992
0.99999
0.999973
0.999976
0.999982
0.999985
0.999989
0.999992
0.999994
0.999995
0.999995
0.999996
0.999996
0.999997
0.999997
0.999997
0.999998
0.999998
0.999998
0.999998
0.999998
0.999998
0.999997
0.999996
0.999995
0.99999
0.999957
1
1
0.999999
0.999999
0.999998
0.999998
0.999998
0.999998
0.999997
0.999997
0.999997
0.999997
0.999997
0.999997
0.999997
0.999997
0.999997
0.999997
0.999997
0.999997
0.999997
0.999997
0.999997
0.999997
0.999997
0.999997
0.999997
0.999996
0.999994
0.999994
0.999996
0.999997
0.999998
0.999998
0.999998
0.999998
0.999998
0.999999
0.999999
0.999999
0.999999
0.999999
0.999999
0.999999
0.999999
0.999999
0.999998
0.999998
0.999998
0.999998
1
1
0.999999
0.999998
0.999998
0.999998
0.999998
0.999997
0.999997
0.999997
0.999997
0.999997
0.999997
0.999997
0.999997
0.999997
0.999998
0.999998
0.999998
0.999998
0.999998
0.999998
0.999998
0.999998
0.999998
0.999999
0.999999
0.999999
0.999999
0.999999
0.999999
0.999999
1
1
1
1
1
1
1
1
1
1
1
1
0.999999
0.999999
0.999999
0.999999
0.999999
0.999946
1
1
0.999999
0.999998
0.999998
0.999998
0.999997
0.999997
0.999997
0.999997
0.999997
0.999997
0.999998
0.999998
0.999998
0.999998
0.999998
0.999998
0.999998
0.999998
0.999998
0.999999
0.999999
0.999999
0.999999
0.999999
0.999999
1
1
1
1
1
1
1
1
1
1
1
1
1
1
1
1
0.999999
0.999999
0.999999
0.999999
0.999999
0.999799
0.994242
0.980325
0.92419
0.801643
0.795613
0.790442
0.52209
0.0807057
0.113915
0.616392
0.790306
0.369885
0.0533541
0.00806735
0.0129389
0.00830495
0.0238585
0.404882
0.396485
0.119144
0.011037
0.00473749
0.00819525
0.0145913
0.00817715
0.0027797
0.00688697
0.136778
0.205929
0.0803657
0.0110841
0.00210169
0.00505197
0.0434915
0.0662708
0.0295252
0.00559619
0.00428946
0.0172945
0.227436
0.196602
0.0598957
0.0164615
0.0103833
0.011163
0.0303549
0.171729
0.130527
0.0423958
0.0085098
0.00102792
1
0.999997
0.999972
0.999967
0.999963
0.999803
0.983082
0.946506
0.981446
0.983751
0.983733
0.968106
0.947863
0.520372
0.634763
0.863449
0.956921
0.956951
0.949876
0.925835
0.925773
0.833466
0.284231
0.045981
0.244391
0.719588
0.877104
0.894338
0.910911
0.935466
0.93937
0.939357
0.934982
0.657901
0.127983
0.052322
0.30699
0.787815
0.901893
0.904887
0.910831
0.931794
0.939052
0.939058
0.935428
0.920435
0.914878
0.891981
0.514751
0.0843568
0.431615
0.503612
0.217241
0.0649527
0.0390147
0.0253468
0.0220102
0.0316602
0.311172
0.779251
0.431502
0.0851142
0.0262608
0.0278848
0.022318
0.025952
0.239657
0.512367
0.222878
0.044854
0.0217437
0.0189503
0.0258075
0.186897
0.367544
0.368649
0.135848
0.0319224
0.0271145
0.0198579
0.0109952
0.028426
0.31683
0.840849
0.910129
0.909529
0.804432
0.259198
0.0223015
0.00718092
0.0105675
0.0113198
0.00741791
0.00273983
0.00787683
0.137445
0.163026
0.0603265
0.00797838
0.00113814
0.00137299
0.00130911
0.00146666
0.00229979
0.00243641
0.00154102
0.000599235
0.000619531
0.00078381
0.00105276
0.00231412
0.00449977
0.00310663
0.000958381
0.000260248
0.000358151
0.000513864
0.00076089
0.000856734
0.000802693
0.00052089
0.000396991
0.00065714
0.00134222
0.00321837
0.00524887
0.00449469
0.00164142
0.000403704
0.000401287
0.00108886
0.00443309
0.00445322
0.00312364
0.00211795
0.00204858
0.00161937
0.000729662
0.00052742
0.0038857
0.00299004
0.000788586
0.000278412
0.000369181
0.000466754
0.000285891
0.000280257
0.000717429
0.00201392
0.00143796
6.42286e-05
0.000102822
0.000313531
0.000343432
8.87961e-05
8.83783e-05
0.000161172
0.000430825
0.000258107
7.6325e-05
0.000248906
0.000363185
0.000103224
7.63167e-05
8.97928e-05
0.000476315
0.000805059
0.000774224
0.000195276
4.87683e-05
5.43965e-05
0.000268634
0.000868603
0.00128674
6.48579e-05
4.52488e-05
4.58509e-05
0.000306348
0.0013173
0.00163498
0.0010932
8.38688e-05
0.000232038
0.00130959
0.0021119
0.000857642
9.49143e-05
7.64744e-05
8.13292e-05
0.000114349
0.000129392
0.000629826
0.00127554
0.00127107
0.00111624
0.000166904
2.85573e-05
2.85557e-05
2.89442e-05
4.87222e-05
6.42284e-05
6.42284e-05
6.42286e-05
8.54617e-05
0.000417244
0.000630548
0.000623981
0.000196182
7.63243e-05
7.63243e-05
7.63243e-05
7.63244e-05
8.25078e-05
7.63167e-05
8.45779e-05
0.000260482
0.000325675
1.89962e-05
1.1844e-05
3.01041e-05
0.00027231
0.00074104
0.000866523
0.000416586
0.000149775
0.000895228
0.00126816
0.00126612
0.000512812
6.8271e-05
5.55786e-05
5.71126e-05
0.00045012
0.00162554
0.0021057
0.00124888
0.000140682
7.61373e-05
7.64743e-05
8.51381e-05
8.54545e-05
8.5675e-05
0.000267065
0.000941673
0.00114376
0.000266477
3.2557e-05
5.97196e-05
0.000409191
0.000732798
0.000234684
0.000121632
0.000133617
0.000278815
0.00016338
0.000156505
0.000162431
9.78607e-05
7.63246e-05
0.000155087
0.000356952
0.000264534
0.000104765
7.63166e-05
7.63174e-05
0.00020357
0.000333455
8.62651e-05
1.18975e-05
1.18438e-05
1.63746e-05
5.62136e-05
0.00012607
0.000229645
0.000386565
0.000585923
0.000314482
0.000133124
0.000111315
0.000117434
0.00056074
0.000940655
0.000938933
0.000769347
0.000146346
6.9708e-05
6.99115e-05
0.000116269
0.000725976
0.00119074
0.00119117
0.000957887
0.000148321
8.78835e-05
8.79227e-05
9.94324e-05
0.000365606
0.000650376
0.000647516
0.000507937
0.00136106
0.00321735
0.00157974
0.000468414
0.00012101
0.000121006
0.000121009
0.000214047
0.000509312
0.000700809
0.000386549
0.000169348
0.00013894
0.00018985
0.000193917
0.000165479
0.000228314
0.000210564
0.000150869
0.000111371
7.91536e-05
3.50953e-05
4.4719e-05
0.000108437
0.000119897
0.000100869
0.000109739
0.000202699
0.000231967
0.000102591
0.000246453
0.000438327
0.000282321
0.000193158
0.000193585
0.000486845
0.000535032
0.000448432
9.04706e-05
8.49495e-05
0.000437461
0.00100283
0.000580226
0.00017448
0.000704871
0.000941669
0.000925182
0.000327776
0.000267824
0.000442917
0.0111815
0.0111726
0.00778698
0.00246171
0.000309031
0.000121001
0.000121006
0.000121003
0.00017694
0.000914654
0.00126532
0.000542298
0.000145398
0.000145463
0.000202997
0.00183427
0.00440187
0.00440361
0.00283136
0.000658486
0.000106503
4.51853e-05
8.36669e-05
0.000184435
0.000183738
0.000102483
9.37158e-05
0.000154648
0.000408546
0.000409502
0.000339076
8.75405e-05
9.11113e-05
0.000264888
0.000269038
0.000111794
0.000111421
0.000450437
0.000290984
8.52902e-05
7.57051e-05
0.000139275
0.000653499
0.000470793
0.000236247
0.000236184
0.000479627
0.000786127
0.000784879
0.000767414
0.00590633
0.00329596
0.00148374
0.00053694
0.000252416
0.000247712
0.00025727
0.00101941
0.0109178
0.0114863
0.00568218
0.00127677
0.000423196
0.00176033
0.0037106
0.00370877
0.00333934
0.00147304
0.000433708
0.000164894
0.000161586
0.000545849
0.0047167
0.00643602
0.00641541
0.00338458
0.000674847
0.000173625
0.000124559
9.45881e-05
4.72874e-05
3.9425e-05
3.94238e-05
0.000137108
0.000138348
5.23504e-05
4.09214e-05
4.47255e-05
0.000216733
0.000288633
0.000288262
0.000140372
0.000130304
0.000129167
0.000771874
0.00159413
0.00151454
0.000881351
0.000271924
0.000767157
0.0717545
0.0426789
0.0214878
0.00722567
0.00824455
0.02826
0.0282615
0.0259176
0.0148516
0.00828769
0.00595441
0.00469826
0.00387628
0.0027541
0.00133764
0.000943337
0.000941475
0.0019383
0.00459636
0.00473842
0.00474406
0.00473842
0.0030138
0.00170457
0.000961927
0.000363444
0.000110967
0.000109853
0.000110244
8.74634e-05
4.90982e-05
3.94307e-05
3.94762e-05
7.29921e-05
4.11238e-05
4.09213e-05
4.09212e-05
4.09213e-05
4.13292e-05
6.19492e-05
0.000222012
0.00215491
0.0058412
0.00585183
0.00506592
0.00169323
0.000238148
3.45736e-05
4.61985e-05
0.00075308
0.655448
0.46135
0.268119
0.157343
0.0767322
0.0371314
0.0221137
0.0149082
0.0101533
0.00705392
0.00505909
0.00379613
0.00294134
0.00222615
0.00154468
0.00106454
0.000876033
0.000913072
0.000803933
0.000643441
0.000917443
0.0022391
0.00107266
0.00040607
0.00126551
0.00249167
0.00102114
0.001217
0.00269708
0.00294155
0.00294177
0.00294155
0.00192612
0.000511065
5.48327e-05
4.09214e-05
4.09213e-05
0.000103028
0.000827883
0.00463016
0.00585731
0.00585736
0.00585731
0.00394224
0.000931373
9.96733e-05
3.45734e-05
3.45602e-05
3.45728e-05
0.000548849
0.97859
0.962801
0.931398
0.846343
0.637704
0.372573
0.18752
0.0757783
0.0242001
0.00790965
0.0032619
0.00170155
0.00105058
0.00054723
0.000304504
0.000304287
0.000445912
0.000335616
0.000203596
0.000105725
6.14837e-05
9.18175e-05
9.91745e-05
0.00016327
0.000864509
0.00248037
0.00243003
0.00113841
0.000275555
0.000182998
0.000472032
0.001442
0.000717395
0.000186714
4.09953e-05
4.09213e-05
4.09213e-05
4.13221e-05
0.000616589
0.00471241
0.00422789
0.00160704
0.000525677
0.000145629
3.50113e-05
3.45729e-05
3.45604e-05
3.45411e-05
3.45602e-05
5.93228e-05
1
1
1
1
0.995243
0.959543
0.849091
0.571372
0.280397
0.102084
0.0236228
0.0045987
0.00103211
0.000349352
0.000145888
7.05131e-05
3.54713e-05
1.63992e-05
1.53255e-05
1.53324e-05
2.44088e-05
3.80459e-05
5.99319e-05
0.000189765
0.000270584
0.000912716
0.000580736
0.000186223
0.000182988
0.000182768
0.000299758
0.00139003
0.00177646
0.00177583
0.00102677
0.00025617
4.09222e-05
8.09932e-05
0.000681358
0.00210761
0.000972851
0.000252442
7.70738e-05
3.45919e-05
3.45728e-05
3.45601e-05
3.45411e-05
3.45255e-05
9.88853e-05
0.00102388
0.999991
0.999996
0.999998
0.999999
1
1
1
0.993898
0.901391
0.623533
0.266436
0.0564678
0.00483833
0.000495777
0.000189713
5.66907e-05
3.3206e-05
3.31523e-05
6.39994e-05
0.000202399
0.000386218
0.00052026
0.000753449
0.00189342
0.00153648
0.000707383
0.000467332
0.000467005
0.000712858
0.00187465
0.00228615
0.00229304
0.0010107
0.000902385
0.000963355
0.0028435
0.00162606
0.00037949
0.00051746
0.00161897
0.00281395
0.00267783
0.00111936
0.000162528
3.4594e-05
4.91894e-05
0.000165869
0.000478177
0.000248794
0.000248892
0.999959
0.999975
0.999991
0.999996
0.999997
0.999997
0.999998
0.999998
0.999996
0.962887
0.712981
0.19404
0.01567
0.000608375
5.79722e-05
5.66354e-05
7.656e-05
0.000174192
0.00055055
0.0012141
0.00130291
0.0013026
0.00160157
0.00189381
0.00122367
0.00122347
0.00206217
0.00222417
0.0017896
0.000837678
0.00197061
0.00337572
0.00141163
0.000902454
0.00256673
0.00284515
0.00256959
0.000785127
0.000756304
0.00254108
0.00281393
0.00155779
0.000558227
0.000940014
0.00291318
0.00290819
0.00248163
0.000482997
0.000495376
0.0029017
0.999941
0.999948
0.999983
0.999995
0.999996
0.999996
0.999997
0.999977
0.879447
0.528238
0.109839
0.00781287
0.000294974
6.43755e-05
6.16501e-05
0.00015744
0.000286983
0.000675546
0.00145531
0.00145541
0.000965998
0.000750955
0.00149133
0.00189342
0.00138792
0.00122364
0.00172178
0.0022242
0.0013422
0.000412355
0.0023793
0.00357626
0.00357626
0.00183483
0.000446549
0.00117079
0.00295627
0.0029506
0.00263242
0.000802133
0.000806726
0.00156133
0.0030109
0.00301129
0.0030109
0.00191854
0.000402499
0.00155359
0.00368076
0.00366271
0.999951
0.999978
0.999992
0.999997
0.999997
0.999981
0.913541
0.68971
0.24936
0.026477
0.000558412
0.000102709
2.2737e-05
5.46461e-05
0.000145078
0.000317928
0.00111936
0.00162587
0.00124816
0.000225495
0.000163065
0.000771927
0.0016898
0.00189381
0.00103242
0.00199924
0.00171798
0.000242703
7.47787e-05
0.00043633
0.00232389
0.00357626
0.00290321
0.000635957
0.000449025
0.00199779
0.00294724
0.000635499
0.000122245
0.000975796
0.00281208
0.00301092
0.00301129
0.00173079
0.000213464
8.31802e-05
0.000437181
0.00240099
0.00368483
0.00219954
0.999964
0.999992
0.999992
0.999974
0.896121
0.714208
0.3179
0.0301963
0.00157607
0.00020285
6.68185e-05
5.95256e-06
3.48534e-05
0.000102259
0.000164019
0.00031072
0.00103013
0.00162665
0.000739748
0.000163065
0.000163189
0.000384978
0.000876283
0.00127569
0.000660867
0.00120499
0.00174153
0.000161884
7.44732e-05
0.000138829
0.000900597
0.00225472
0.00125611
0.000179583
0.000491701
0.00174572
0.00251312
0.000150532
3.68526e-05
4.61616e-05
0.000431033
0.00194255
0.00301092
0.00231819
0.000418731
8.25004e-05
8.31797e-05
0.000153168
0.000927576
0.00230264
0.999964
0.966754
0.823463
0.647876
0.204236
0.0190243
0.0034647
0.000157647
6.05844e-05
4.30477e-05
1.29565e-05
2.70656e-06
2.0159e-05
8.76708e-05
0.000156486
0.000197614
0.00032656
0.000980091
0.00103946
0.000341752
0.000163064
0.000163189
0.000353684
0.000666067
0.000663458
0.000521955
0.000205054
8.29861e-05
7.44272e-05
0.000138543
0.000769977
0.00167866
0.000470444
7.23913e-05
6.96594e-05
0.000282476
0.000824228
0.000860684
0.000681631
0.000109999
5.70658e-05
6.64598e-05
0.000248481
0.000616282
0.000861493
0.000860764
0.00051359
7.45329e-05
5.80675e-05
7.53667e-05
1.43806e-09
1.07269e-08
2.01554e-08
3.16211e-08
3.32895e-07
9.58377e-06
0.000105439
0.000432299
0.000213547
5.0511e-05
6.97218e-06
6.26299e-07
6.89369e-08
8.0445e-08
1.09663e-07
9.1286e-08
6.27943e-08
4.97064e-08
4.84001e-08
7.02116e-08
5.60244e-08
2.93882e-08
1.51822e-07
1.63213e-05
0.000222487
0.000570505
0.000938918
0.0450585
0.242754
0.116028
0.0204934
0.00212483
0.00500306
0.0052885
0.0294517
0.0420129
0.0181663
0.00587558
0.030084
0.232417
0.127851
0.0255396
0.00179665
0.000127121
2.71584e-05
5.81764e-06
1.67404e-05
6.38315e-05
5.67841e-05
1.79745e-05
5.36927e-06
7.54135e-06
0.00047698
0.00498706
0.00280199
0.000699447
7.47176e-05
2.99085e-06
2.80702e-07
4.70103e-07
4.61314e-07
2.46196e-07
4.00273e-07
5.01564e-06
1.16425e-05
8.33607e-06
1.06356e-05
2.9682e-05
0.000142542
0.000830592
0.00408039
0.00796867
0.00640485
0.001923
0.000150406
5.20214e-06
4.19512e-05
0.000351625
0.0942191
0.220783
0.172234
0.0458828
0.0174183
0.0174183
0.0787343
0.463023
0.240952
0.0572199
0.0327112
0.0365426
0.0219528
0.00413429
0.000156295
8.18964e-07
2.45429e-09
2.6378e-09
2.77223e-09
3.6928e-09
6.82304e-09
1.1275e-08
5.77747e-08
8.19124e-07
1.33486e-05
0.000182824
0.00132814
0.00107074
0.000482508
0.000109653
9.40325e-06
3.93841e-07
1.48678e-07
8.93836e-07
4.9548e-05
0.00229223
0.00569419
0.0025606
0.000403986
1.65273e-05
3.73404e-07
2.75701e-06
6.77937e-05
0.000695179
0.00105924
0.00080251
0.00024591
6.28331e-05
4.3591e-05
2.77504e-05
4.62654e-06
3.66383e-06
7.05526e-05
0.000422201
0.000449352
0.000182306
0.000145093
0.00042988
0.0166665
0.0539813
0.0444623
0.0148404
0.00144534
3.70162e-05
7.31045e-07
1.91366e-06
1.37119e-05
0.000307031
0.0177804
0.449709
0.722597
0.517618
0.101486
0.00417469
2.98489e-05
1.03197e-07
1.82261e-07
2.52194e-06
2.70871e-06
1.09092e-06
1.75439e-06
5.19552e-05
0.003083
0.0944701
0.174257
0.13085
0.032638
0.00323749
0.00101888
0.00101888
0.00635128
0.0191805
0.0168997
0.00618714
0.00134879
0.00134879
0.00530651
0.0332896
0.0362815
0.0179989
0.00269843
9.80951e-05
5.03429e-07
2.36307e-09
1.68358e-09
8.841e-10
4.30729e-10
2.0566e-10
9.63563e-11
4.46302e-11
2.08137e-11
1.01099e-11
5.45409e-12
3.61741e-12
3.17677e-12
3.61173e-12
4.76326e-12
6.58227e-12
8.96046e-12
1.16557e-11
1.43015e-11
1.64857e-11
1.78629e-11
1.82709e-11
1.78935e-11
1.78165e-11
2.23788e-11
4.85205e-11
1.5977e-10
5.94967e-10
2.21664e-09
8.18438e-09
4.23311e-08
2.73378e-06
0.000117956
0.00367564
0.00725471
0.00413351
0.000523754
0.000896557
0.00491938
0.00527408
0.00326481
0.00236106
0.00114904
7.39506e-05
5.09853e-09
3.93316e-14
2.3091e-14
1.84968e-14
1.62565e-14
1.45461e-14
1.29974e-14
1.15457e-14
1.01889e-14
8.93365e-15
7.7848e-15
6.7435e-15
5.80795e-15
4.97427e-15
4.23719e-15
3.59023e-15
3.02608e-15
2.53724e-15
2.11645e-15
1.75655e-15
1.45063e-15
1.19218e-15
9.75205e-16
7.94143e-16
6.43866e-16
5.19886e-16
4.18211e-16
3.35203e-16
2.67765e-16
2.13308e-16
1.69372e-16
1.34037e-16
1.05725e-16
8.31222e-17
6.5143e-17
5.08925e-17
3.9637e-17
3.07772e-17
2.38262e-17
1.83895e-17
1.41499e-17
1.08529e-17
8.296e-18
6.31867e-18
4.79406e-18
3.62231e-18
2.72488e-18
2.04011e-18
1.51964e-18
1.12565e-18
8.28636e-19
6.05725e-19
4.39226e-19
3.15526e-19
2.24187e-19
1.5724e-19
1.08617e-19
7.37064e-20
4.89986e-20
3.18181e-20
2.01213e-20
1.23508e-20
7.33071e-21
4.18833e-21
2.29097e-21
1.19219e-21
5.85957e-22
2.69728e-22
1.15154e-22
4.50711e-23
1.59635e-23
5.04227e-24
1.39642e-24
3.30358e-25
6.2533e-26
7.48487e-27
2.96055e-09
7.64369e-07
8.17001e-07
1.66209e-06
9.13865e-06
0.000225228
0.00133698
0.00149815
0.000754645
0.000156129
1.44716e-05
6.4483e-07
1.19342e-06
2.16068e-05
2.80628e-05
1.42235e-05
3.84674e-06
2.03172e-06
4.77107e-06
6.34061e-05
0.000390261
0.000263587
0.000239941
0.00135208
0.0213559
0.233641
0.731529
0.905469
0.905501
0.831586
0.914736
0.91486
0.76762
0.850638
0.932132
0.931711
0.873309
0.928704
0.932132
0.931711
0.932132
0.840132
0.260614
0.0173185
0.000217575
3.05441e-05
0.000936565
0.00249417
0.0010837
0.000184318
7.58692e-06
8.23627e-06
0.000376753
0.00705153
0.00451012
0.00144878
0.000205301
1.21965e-05
7.73752e-05
0.00022191
0.000143515
3.07397e-05
5.9134e-06
3.1491e-05
0.000296067
0.000413424
0.000578917
0.00619734
0.21074
0.660617
0.663084
0.574847
0.15217
0.00898082
9.05291e-05
5.38625e-06
1.03679e-05
0.000105354
0.00137809
0.0323758
0.586492
0.763603
0.757722
0.843216
0.88741
0.887389
0.867282
0.88741
0.88741
0.88741
0.55636
0.0776342
0.00189518
6.63407e-06
1.02373e-08
1.28076e-08
3.40534e-08
1.14098e-07
3.04822e-07
7.33211e-07
7.01977e-06
0.000149841
0.00194859
0.00637143
0.00357069
0.000733693
0.000462192
0.000487015
0.0048251
0.0116836
0.00511721
0.000602556
0.000388076
0.00558527
0.0255521
0.0124248
0.00231317
0.000128653
1.78192e-06
1.10334e-06
1.36916e-06
9.91299e-06
0.000328889
0.0148798
0.037018
0.037424
0.0184808
0.00291807
8.57231e-05
3.64473e-06
5.84018e-06
1.9055e-05
2.09915e-05
2.58942e-05
0.000134761
0.00245742
0.00190522
0.00114165
0.00117161
0.00383638
0.00232646
0.000648084
7.2411e-05
2.44666e-05
2.19075e-05
4.29233e-05
0.00113654
0.103263
0.203547
0.0797268
0.00946258
0.000258843
1.27321e-06
3.17214e-08
6.30305e-08
1.13724e-06
3.80595e-05
0.000182227
0.000192405
0.000108007
7.82922e-05
0.000126511
0.0014888
0.0263726
0.0418867
0.0420554
0.0197958
0.00237201
0.000153837
0.000150409
0.000228444
0.00165887
0.00218405
0.00218742
0.00102059
0.000184367
0.000163652
0.00029452
0.000172525
1.8329e-05
1.81214e-07
3.13941e-09
1.39422e-09
6.40523e-10
5.00777e-10
8.47714e-10
2.09073e-09
1.03623e-08
3.41007e-08
9.80918e-08
2.37875e-07
2.69473e-07
1.39753e-07
2.14586e-08
8.81145e-09
4.17696e-09
2.04671e-09
1.02181e-09
5.78189e-10
4.24466e-10
4.5116e-10
6.39917e-10
8.50564e-10
9.80099e-10
1.10564e-09
1.39833e-09
2.05947e-09
3.52269e-09
6.67921e-09
3.43371e-08
3.3419e-07
4.24383e-06
3.87336e-05
0.00027672
0.000329489
9.73848e-05
1.24536e-06
1.39638e-11
2.31457e-12
5.88967e-13
2.05712e-13
1.00588e-13
6.50545e-14
5.0938e-14
4.4629e-14
4.13273e-14
3.90974e-14
3.73262e-14
3.56841e-14
3.40206e-14
3.22854e-14
3.04735e-14
2.85988e-14
2.66828e-14
2.4749e-14
2.28207e-14
2.09196e-14
1.90651e-14
1.72737e-14
1.55594e-14
1.3934e-14
1.24073e-14
1.09866e-14
9.67615e-15
8.47633e-15
7.38573e-15
6.40208e-15
5.52148e-15
4.73892e-15
4.04806e-15
3.4423e-15
2.91531e-15
2.45894e-15
2.06725e-15
1.73052e-15
1.44208e-15
1.19659e-15
9.88859e-16
8.14014e-16
6.676e-16
5.45583e-16
4.44359e-16
3.60732e-16
2.91904e-16
2.35445e-16
1.89269e-16
1.51608e-16
1.20974e-16
9.61279e-17
7.60388e-17
5.98527e-17
4.6861e-17
3.64755e-17
2.82092e-17
2.16599e-17
1.64973e-17
1.2451e-17
9.30013e-18
6.86451e-18
4.99782e-18
3.58158e-18
2.52021e-18
1.73656e-18
1.16831e-18
7.65032e-19
4.85938e-19
2.98267e-19
1.76115e-19
9.94946e-20
5.34472e-20
2.71112e-20
1.2882e-20
5.68091e-21
2.29936e-21
8.43521e-22
2.76583e-22
7.98071e-23
1.98091e-23
3.98685e-24
5.18756e-25
0.000168275
6.71253e-05
1.53599e-05
7.63152e-06
2.79688e-05
0.000267392
0.00140684
0.00150457
0.00149628
0.000667969
0.000217328
9.08984e-05
0.000105724
0.000431855
0.000358194
0.000205351
0.000123736
0.000168291
0.000249949
0.00132164
0.0183675
0.0298042
0.0296376
0.0195127
0.00338718
0.00392877
0.033501
0.100348
0.0520573
0.0158812
0.0063174
0.0208003
0.231081
0.148054
0.0422923
0.0100216
0.0195045
0.0261945
0.0191396
0.0143523
0.0173872
0.0167561
0.00936476
0.00198289
0.000166374
0.000645607
0.00687458
0.00477527
0.0019586
0.000363524
2.13652e-05
4.09039e-05
0.00146537
0.00934734
0.00489567
0.000976243
0.000168599
0.000167033
0.00260882
0.00797461
0.00366934
0.000633462
2.60408e-05
5.51944e-05
0.00062137
0.0140335
0.273019
0.451692
0.456089
0.322542
0.0713064
0.00906491
0.00281795
0.00159633
0.000850686
0.000359893
7.96405e-05
0.000157208
0.00111633
0.00945449
0.0121269
0.008248
0.00528888
0.00440506
0.00244634
0.00183869
0.00769342
0.24963
0.840185
0.88741
0.681201
0.145665
0.00689116
8.23323e-05
7.98011e-07
1.92418e-06
8.07483e-05
0.00369105
0.0149733
0.00765144
0.00140668
0.000215684
0.000312154
0.0163609
0.0688461
0.0311542
0.00506534
0.000579411
0.00111119
0.0207588
0.0322783
0.0311984
0.0071717
0.00860508
0.0860402
0.0535335
0.0152625
0.00172901
6.4017e-05
5.59789e-06
8.23271e-06
8.6136e-06
9.19539e-06
4.69385e-05
0.00106323
0.0367434
0.112366
0.045916
0.00595131
0.000146255
2.5522e-06
2.55702e-06
2.55154e-06
7.68311e-06
0.000310601
0.00551001
0.0420606
0.023095
0.00471795
0.000244504
5.19837e-05
5.19784e-05
0.000167656
0.00710408
0.011695
0.0043062
0.00147795
0.00297949
0.0246797
0.0170525
0.00424273
0.000278963
3.20649e-06
3.4985e-08
3.13918e-07
6.6379e-06
0.000103759
0.000187859
7.36593e-05
6.72218e-05
0.000112065
0.00264974
0.0127447
0.00589479
0.00137502
0.00127128
0.00369821
0.00882927
0.00563838
0.000861619
3.37159e-05
1.22461e-05
1.22349e-05
7.00946e-06
1.42321e-06
6.20776e-07
1.04102e-06
1.88479e-06
1.69761e-06
3.56012e-07
8.27636e-09
1.70095e-09
9.04212e-10
1.43967e-09
4.26762e-09
1.72409e-08
3.73303e-07
4.34725e-06
5.24994e-05
5.15651e-05
2.87542e-05
5.06004e-06
3.33542e-07
1.06359e-08
6.64199e-09
3.83812e-09
2.41499e-09
2.41299e-09
4.07631e-09
6.04567e-09
9.3606e-09
1.30575e-08
4.64312e-08
4.15867e-08
3.59164e-08
2.12798e-08
1.27127e-08
1.87513e-07
7.59143e-05
0.000179577
0.000107016
1.17304e-05
3.77958e-06
5.53638e-08
4.86194e-10
2.01653e-09
7.7556e-09
1.43056e-11
7.9552e-12
4.52867e-12
2.60857e-12
1.49053e-12
8.51844e-13
4.84312e-13
2.83799e-13
1.83346e-13
1.36796e-13
1.16375e-13
1.07967e-13
1.04774e-13
1.0344e-13
1.02373e-13
1.00909e-13
9.88158e-14
9.60547e-14
9.26742e-14
8.87594e-14
8.441e-14
7.9729e-14
7.48177e-14
6.97712e-14
6.46749e-14
5.96043e-14
5.46272e-14
4.98039e-14
4.51812e-14
4.07919e-14
3.66609e-14
3.28061e-14
2.92375e-14
2.59568e-14
2.29622e-14
2.02454e-14
1.7799e-14
1.55945e-14
1.36108e-14
1.18344e-14
1.02513e-14
8.84768e-15
7.60927e-15
6.52207e-15
5.57221e-15
4.74602e-15
4.03018e-15
3.4119e-15
2.87921e-15
2.42117e-15
2.02806e-15
1.69138e-15
1.40376e-15
1.15886e-15
9.51087e-16
7.75531e-16
6.27829e-16
5.04128e-16
4.0108e-16
3.15795e-16
2.45743e-16
1.88709e-16
1.42744e-16
1.06137e-16
7.73987e-17
5.52184e-17
3.84368e-17
2.603e-17
1.70954e-17
1.08484e-17
6.62279e-18
3.86776e-18
2.14713e-18
1.12524e-18
5.52397e-19
2.51857e-19
1.05518e-19
4.01359e-20
1.36768e-20
4.11605e-21
1.07294e-21
2.3001e-22
3.27083e-23
0.000306127
4.51269e-05
4.5918e-05
0.000259338
0.000690252
0.00131596
0.00140363
0.000236213
0.000159408
0.000654094
0.00148826
0.00259328
0.00100211
0.000524613
0.00120242
0.00182179
0.00182108