/*--------------------------------*- C++ -*----------------------------------*\
| =========                 |                                                 |
| \\      /  F ield         | OpenFOAM: The Open Source CFD Toolbox           |
|  \\    /   O peration     | Version:  2.4.0                                 |
|   \\  /    A nd           | Web:      www.OpenFOAM.org                      |
|    \\/     M anipulation  |                                                 |
\*---------------------------------------------------------------------------*/
FoamFile
{
    version     2.0;
    format      ascii;
    class       volScalarField;
    location    "5";
    object      H;
}
// * * * * * * * * * * * * * * * * * * * * * * * * * * * * * * * * * * * * * //

dimensions      [0 2 -2 0 0 0 0];

internalField   nonuniform List<scalar> 
8000
(
-11765.9
-10875.9
-10069
-9353.39
-8720.71
-8157.51
-7650.86
-7190.07
-6766.8
-6374.73
-6009.08
-5666.21
-5343.39
-5038.55
-4750.09
-4476.8
-4217.65
-3971.86
-3738.79
-3517.75
-3308.19
-3109.54
-2921.31
-2743.02
-2574.16
-2414.17
-2262.5
-2118.65
-1982.28
-1853.1
-1730.9
-1615.41
-1506.36
-1403.49
-1306.55
-1215.27
-1129.35
-1048.49
-972.452
-901.049
-834.122
-771.526
-713.077
-658.559
-607.731
-560.349
-516.18
-474.959
-435.462
-379.842
-11719.2
-10739.4
-9859.81
-9095
-8433.71
-7856.86
-7346.3
-6887.48
-6469.5
-6084.53
-5727.06
-5393.17
-5080
-4784.86
-4505.68
-4241.05
-3990.49
-3752.69
-3527.1
-3314.2
-3113.1
-2922.29
-2741.7
-2571.76
-2412.12
-2261.93
-2120.17
-1985.75
-1857.93
-1737.26
-1623.88
-1517.48
-1417.48
-1323.51
-1235.5
-1153.24
-1076.23
-1003.91
-935.67
-871.253
-811.161
-755.305
-703.451
-655.337
-610.65
-568.979
-529.959
-493.273
-458.472
-423.657
-11545.4
-10202.5
-8922.77
-7724.24
-6611.82
-5578.31
-4606.47
-3674.83
-2771.7
-1914.81
-1156.32
-563.451
-242.928
-1.19192
-0.954344
-0.903462
-1.03209
-1.06097
-0.805305
-0.86196
-1.30824
-1.082
-0.706811
-0.63346
-0.654797
-0.818224
-1.28699
-1.72997
-0.881628
-0.676244
-0.648681
-0.754602
-0.820314
-0.660445
-0.568023
-0.600597
-0.811063
-2.17042
-3.28576
-1.29929
-0.747984
-0.585744
-0.446599
-0.336279
-0.313262
-0.364744
-0.641555
-2.06393
-8.02053
-2.28326
-11498.9
-10049
-8631.03
-7255.78
-5924.16
-4630.68
-3378.3
-2208.32
-1194.53
-3.55624
-0.809219
-0.503058
-0.192684
-0.988037
-1.32977
-1.42842
-1.48289
-1.47351
-1.40459
-1.36482
-1.34622
-1.22967
-1.07008
-0.941473
-0.88509
-0.885731
-0.927626
-0.907699
-0.744893
-0.584406
-0.494773
-0.469987
-0.463959
-0.389521
-0.377563
-0.421843
-0.471635
-0.508901
-0.504252
-0.367989
-0.265366
-0.19051
-0.140079
-0.113127
-0.105917
-0.115244
-0.135929
-0.162687
-0.174588
-0.145403
-11618
-10400.7
-9198.02
-8014.15
-6850.54
-5705.35
-4572.72
-3445.66
-2333.53
-1306.43
-584.225
-2.34421
-1.06587
-0.849961
-0.0370091
-0.189121
-0.273079
-0.354736
-0.435525
-0.47219
-0.471022
-0.468879
-0.455382
-0.429373
-0.38382
-0.325702
-0.272897
-0.218114
-0.164167
-0.11933
-0.0816429
-0.0501654
-0.0325301
-0.0221561
-0.0170331
-0.013806
-0.012313
-0.010866
-0.009349
-0.00780274
-0.00639559
-0.00565538
-0.00527114
-0.00519901
-0.00529324
-0.00553205
-0.00578033
-0.00599757
-0.00609642
-0.00608743
-11745.2
-10784
-9843.67
-8932.16
-8053.84
-7209.49
-6396.21
-5608.03
-4835.89
-4066.85
-3281.41
-2460.5
-1605.59
-807.375
-292.589
-0.72484
-0.307572
-0.394176
-0.551152
-0.0282958
-0.12952
-0.12291
-0.126839
-0.135057
-0.138581
-0.135837
-0.128224
-0.117919
-0.1069
-0.0946949
-0.0816839
-0.0672552
-0.0547355
-0.0442761
-0.0352604
-0.0276476
-0.020889
-0.0153039
-0.0103605
-0.00683575
-0.00480649
-0.00389237
-0.00366734
-0.00388923
-0.00431853
-0.00487432
-0.00550479
-0.00614955
-0.00676998
-0.0072982
-11848.2
-11089.8
-10345.2
-9621.2
-8922.06
-8249.92
-7604.99
-6985.99
-6390.52
-5815.48
-5257.39
-4712.57
-4177.93
-3652.12
-3133.72
-2614.91
-2077.31
-1497.94
-869.065
-261.128
-112.442
-0.468443
-0.2974
-0.282344
-0.275561
-0.263119
-0.085384
-0.0604433
-0.0430989
-0.0385786
-0.0373831
-0.0360509
-0.0334149
-0.0305874
-0.0276826
-0.024892
-0.0219167
-0.0187472
-0.0159215
-0.0129059
-0.010547
-0.00892923
-0.00764131
-0.00634819
-0.00535334
-0.00475255
-0.00441362
-0.00431923
-0.00438623
-0.00461298
-11906.3
-11262
-10626.1
-10002.9
-9395.67
-8806.39
-8236.33
-7686.12
-7155.91
-6645.57
-6154.69
-5682.7
-5228.87
-4792.3
-4371.93
-3966.38
-3574.01
-3193.14
-2822.98
-2464.43
-2118.07
-1777.87
-1433.71
-1077.87
-716.537
-383.228
-123.402
-0.337211
-0.105168
-0.088956
-0.0949176
-0.0952311
-0.0218822
-0.0149711
-0.0134576
-0.0129265
-0.012523
-0.0119342
-0.0111829
-0.0102347
-0.0092436
-0.00884674
-0.00804228
-0.00722316
-0.0062752
-0.0055383
-0.00502227
-0.00464993
-0.00440043
-0.00424669
-11917.9
-11295.4
-10677.4
-10066.7
-9465.92
-8877.41
-8303.4
-7745.94
-7206.89
-6687.84
-6190.13
-5714.82
-5262.62
-4833.92
-4428.76
-4046.82
-3687.47
-3349.81
-3032.66
-2734.69
-2454.39
-2190.1
-1940.08
-1702.7
-1476.73
-1261.45
-1055.97
-857.663
-661.628
-466.052
-279.757
-123.446
-18.5294
-0.083036
-0.0387821
-0.0289639
-0.025819
-0.00020301
-0.00587186
-0.0079178
-0.00794814
-0.00775116
-0.00721364
-0.00651311
-0.00591923
-0.00549797
-0.00514445
-0.00485947
-0.00466967
-0.00461421
-11911.8
-11276.4
-10644.5
-10018.3
-9400.19
-8792.76
-8198.65
-7620.57
-7061.14
-6522.77
-6007.61
-5517.45
-5053.65
-4617.12
-4208.33
-3827.29
-3473.57
-3146.41
-2844.77
-2567.42
-2312.92
-2079.61
-1865.79
-1669.72
-1489.67
-1323.94
-1170.93
-1029.11
-897.109
-773.767
-658.044
-548.918
-444.864
-343.772
-244.523
-149.975
-68.082
-0.113003
-0.0219503
-0.0141172
-0.00806306
-0.00217023
-0.00432251
-0.00567799
-0.00551937
-0.005068
-0.00504349
-0.0049674
-0.00482347
-0.00466335
-11903
-11249.8
-10599.4
-9953.97
-9316.12
-8688.7
-8074.81
-7477.62
-6900.24
-6345.55
-5816.1
-5314.01
-4840.89
-4397.84
-3985.38
-3603.52
-3251.74
-2929.15
-2634.56
-2366.53
-2123.33
-1903.11
-1703.96
-1524
-1361.36
-1214.28
-1081.08
-960.249
-850.389
-750.273
-658.816
-575.061
-498.154
-427.336
-361.98
-301.577
-245.637
-193.485
-144.1
-96.4952
-50.6026
-7.7223
-0.0254774
-0.0116765
-0.00673782
-3.24295e-05
-0.00533878
-0.00767898
-0.00778704
-0.00742167
-11898.9
-11237.7
-10580
-9928.15
-9284.93
-8653.35
-8036.6
-7437.87
-6860.25
-6306.58
-5779.32
-5280.47
-4811.54
-4373.44
-3966.58
-3590.79
-3245.42
-2929.43
-2641.53
-2380.16
-2143.54
-1929.72
-1736.77
-1562.78
-1405.9
-1264.38
-1136.56
-1020.95
-916.183
-821.023
-734.379
-655.284
-582.886
-516.44
-455.295
-398.883
-346.713
-298.36
-253.456
-211.673
-172.699
-136.152
-101.535
-68.3929
-36.2733
-0.0623262
-0.0180596
-0.0122663
-0.00672303
-2.97934e-05
-11904.5
-11255
-10609.3
-9970.39
-9341.05
-8724.36
-8123.4
-7541.17
-6980.5
-6443.93
-5933.6
-5451.2
-4997.93
-4574.47
-4181
-3817.21
-3482.35
-3175.28
-2894.63
-2638.86
-2406.25
-2194.94
-2003.08
-1828.84
-1670.47
-1526.33
-1394.9
-1274.77
-1164.68
-1063.51
-970.258
-884.054
-804.135
-729.843
-660.604
-595.924
-535.376
-478.586
-425.227
-375.014
-327.694
-283.053
-240.904
-201.085
-163.455
-127.816
-93.9606
-61.9297
-32.1604
-0.062797
-11917.1
-11292.8
-10672.9
-10060.5
-9458.47
-8869.91
-8297.71
-7744.58
-7212.98
-6705.02
-6222.41
-5766.4
-5337.8
-4936.94
-4563.71
-4217.62
-3897.79
-3603.05
-3331.97
-3083.02
-2854.62
-2645.08
-2452.68
-2275.78
-2112.82
-1962.32
-1822.93
-1693.44
-1572.75
-1459.89
-1354.04
-1254.48
-1160.59
-1071.85
-987.832
-908.176
-832.586
-760.821
-692.683
-628.011
-566.669
-508.544
-453.542
-401.591
-352.626
-306.582
-263.391
-222.975
-185.241
-150.062
-11933.7
-11343
-10757.6
-10180.8
-9615.76
-9065.32
-8532.15
-8018.59
-7526.6
-7057.73
-6613.1
-6193.42
-5798.96
-5429.58
-5084.8
-4763.81
-4465.56
-4188.78
-3932.05
-3693.84
-3472.65
-3266.95
-3075.24
-2896.11
-2728.21
-2570.33
-2421.35
-2280.3
-2146.32
-2018.65
-1896.67
-1779.85
-1667.76
-1560.03
-1456.38
-1356.58
-1260.47
-1167.93
-1078.87
-993.252
-911.044
-832.234
-756.811
-684.769
-616.105
-550.811
-488.872
-430.262
-374.953
-322.915
-11958.3
-11417
-10881.5
-10355.4
-9841.63
-9342.93
-8861.54
-8399.26
-7957.47
-7537.12
-7138.71
-6762.35
-6407.82
-6074.54
-5761.7
-5468.28
-5193.08
-4934.82
-4692.16
-4463.74
-4248.23
-4044.35
-3850.89
-3666.75
-3490.9
-3322.47
-3160.64
-3004.75
-2854.2
-2708.5
-2567.25
-2430.12
-2296.85
-2167.22
-2041.06
-1918.24
-1798.66
-1682.27
-1569.05
-1459
-1352.17
-1248.55
-1148.19
-1051.09
-957.278
-866.788
-779.664
-695.961
-615.743
-539.083
-11984
-11494.1
-11010.5
-10536.6
-10075.2
-9628.64
-9198.68
-8786.56
-8393.04
-8018.43
-7662.63
-7325.22
-7005.52
-6702.61
-6415.44
-6142.85
-5883.64
-5636.61
-5400.59
-5174.48
-4957.24
-4747.97
-4545.83
-4350.12
-4160.22
-3975.61
-3795.88
-3620.69
-3449.76
-3282.88
-3119.88
-2960.64
-2805.06
-2653.05
-2504.54
-2359.48
-2217.81
-2079.47
-1944.42
-1812.6
-1683.98
-1558.52
-1436.22
-1317.06
-1201.02
-1088.08
-978.272
-871.613
-768.156
-667.986
-12008.8
-11568.5
-11134.1
-10708.7
-10294.6
-9893.7
-9507.11
-9135.51
-8779.09
-8437.63
-8110.63
-7797.32
-7496.81
-7208.08
-6930.11
-6661.87
-6402.4
-6150.82
-5906.35
-5668.33
-5436.19
-5209.51
-4987.93
-4771.22
-4559.21
-4351.8
-4148.94
-3950.61
-3756.82
-3567.59
-3382.94
-3202.88
-3027.4
-2856.48
-2690.06
-2528.08
-2370.44
-2217
-2067.65
-1922.22
-1780.55
-1642.48
-1507.86
-1376.53
-1248.34
-1123.17
-1000.84
-881.188
-764.029
-649.241
-12027.8
-11625.2
-11227.4
-10836.9
-10455.2
-10083.7
-9722.91
-9372.9
-9033.48
-8704.15
-8384.24
-8072.98
-7769.59
-7473.3
-7183.44
-6899.43
-6620.84
-6347.34
-6078.74
-5814.97
-5556.05
-5302.1
-5053.27
-4809.78
-4571.86
-4339.76
-4113.7
-3893.87
-3680.45
-3473.55
-3273.24
-3079.54
-2892.4
-2711.72
-2537.34
-2369.07
-2206.66
-2049.82
-1898.24
-1751.61
-1609.58
-1471.82
-1337.99
-1207.78
-1080.88
-956.877
-835.269
-715.421
-596.396
-476.811
-12039.1
-11658.4
-11280.6
-10907.1
-10538.7
-10175.9
-9818.97
-9467.63
-9121.61
-8780.5
-8443.91
-8111.49
-7782.98
-7458.26
-7137.36
-6820.43
-6507.77
-6199.77
-5896.93
-5599.78
-5308.91
-5024.89
-4748.27
-4479.57
-4219.23
-3967.63
-3725.07
-3491.74
-3267.73
-3053.08
-2847.68
-2651.37
-2463.9
-2284.94
-2114.11
-1950.97
-1795.05
-1645.86
-1502.88
-1365.63
-1233.62
-1106.36
-983.319
-864.16
-748.657
-635.936
-524.561
-414.585
-305.85
-188.611
-6.75945
-0.119859
-0.0043273
-0.00195768
-0.00157069
-0.000878811
-0.00179349
-0.000625481
-7.28668e-05
-2.18713e-05
-0.000636553
-0.00428858
-0.0147394
-0.0237267
-0.0187662
-0.0084374
-0.00474941
-0.00487163
-0.00678104
-0.0153844
-0.0331169
-0.0531197
-0.0740109
-0.0972095
-0.133297
-0.191965
-0.23132
-0.234655
-0.23207
-0.210378
-0.179726
-0.15236
-0.132271
-0.12136
-0.10714
-0.083231
-0.06212
-0.0421992
-0.0350247
-0.033154
-0.0308761
-0.0269561
-0.0235981
-0.0203698
-0.0170506
-0.0154612
-0.0146093
-0.0136231
-0.0122031
-0.0106833
-373.171
-328.381
-285.216
-246.542
-200.123
-82.7358
-2.2224
-0.653678
-0.131546
-0.0214088
-0.00308377
-0.00574016
-0.0161858
-0.0308763
-0.0526887
-0.0651745
-0.0679947
-0.0681799
-0.0665079
-0.0631154
-0.0591528
-0.0566543
-0.0559368
-0.059617
-0.0664722
-0.0738555
-0.0836835
-0.0902268
-0.0917074
-0.0906643
-0.0884251
-0.0851436
-0.0812863
-0.0771453
-0.0680599
-0.0469428
-0.0433186
-0.0415056
-0.0390918
-0.0359313
-0.0323455
-0.0287003
-0.0251857
-0.0219498
-0.0190885
-0.0167415
-0.0151475
-0.0142578
-0.0138355
-0.0133037
-0.239397
-0.122798
-0.288037
-0.844616
-1.26877
-0.310717
-0.704919
-0.333023
-0.0393327
-0.0102495
-0.00405617
-0.00733294
-0.0206562
-0.0329023
-0.0453448
-0.0596571
-0.0754599
-0.0769996
-0.0756245
-0.0683318
-0.0598569
-0.0542764
-0.0463573
-0.0408707
-0.040969
-0.0439732
-0.051887
-0.0674662
-0.0713333
-0.0658991
-0.047959
-0.024408
-0.0150828
-0.013293
-0.0122058
-0.0115444
-0.0113326
-0.0115403
-0.0130741
-0.0170495
-0.0174869
-0.0169026
-0.0153602
-0.0124995
-0.00918315
-0.00757432
-0.00731161
-0.0071981
-0.00711479
-0.00719074
-0.11201
-0.0863901
-0.0702539
-0.0634532
-0.0601478
-0.0550326
-0.0489662
-0.0420518
-0.0352193
-0.0292907
-0.0245621
-0.0214084
-0.0191571
-0.0176536
-0.01676
-0.0161249
-0.0157122
-0.0157587
-0.016012
-0.0164195
-0.016538
-0.0157203
-0.014272
-0.0126945
-0.0115767
-0.0111096
-0.0113015
-0.0122499
-0.0132044
-0.0120837
-0.0101484
-0.00889156
-0.00797656
-0.007323
-0.00693031
-0.00677793
-0.00675388
-0.00677117
-0.00679773
-0.00705846
-0.00704346
-0.00695371
-0.0070735
-0.00736851
-0.00777421
-0.00821602
-0.00868154
-0.00912983
-0.00955035
-0.00973915
-0.00617648
-0.00633892
-0.00656848
-0.0068193
-0.00706839
-0.00734984
-0.00764186
-0.00794874
-0.00823951
-0.00853156
-0.00885765
-0.00916452
-0.00942431
-0.0096668
-0.00987797
-0.0100644
-0.0102164
-0.0103183
-0.0103794
-0.0104355
-0.0104638
-0.0104561
-0.0104743
-0.0105022
-0.0104711
-0.0105082
-0.0105416
-0.0105694
-0.0106046
-0.0105958
-0.0105505
-0.0104872
-0.0105165
-0.0105696
-0.0105937
-0.0105503
-0.0104985
-0.0105268
-0.010582
-0.0106539
-0.0107319
-0.0108178
-0.0108938
-0.0109116
-0.0108781
-0.0107745
-0.0106575
-0.0105232
-0.0103696
-0.0102264
-0.00782544
-0.00830805
-0.00874359
-0.0091311
-0.00948402
-0.0097839
-0.0100167
-0.0101898
-0.0103328
-0.0104557
-0.0105465
-0.0106126
-0.0106593
-0.0106912
-0.0107118
-0.010727
-0.0107269
-0.0107024
-0.0106918
-0.0106787
-0.01067
-0.010668
-0.0106533
-0.0106222
-0.0105959
-0.010612
-0.0106185
-0.010603
-0.0105726
-0.0105385
-0.0105283
-0.0105206
-0.0105237
-0.0105463
-0.0105507
-0.0105204
-0.0104665
-0.0104412
-0.0104136
-0.0103738
-0.0103178
-0.010243
-0.0101536
-0.0100635
-0.00994496
-0.00975829
-0.00956348
-0.0093806
-0.00921539
-0.00906662
-0.00498642
-0.00547224
-0.00600366
-0.00654306
-0.00703985
-0.00750903
-0.00793043
-0.00830516
-0.00864702
-0.00896575
-0.0092618
-0.00951246
-0.00972964
-0.00992802
-0.0101036
-0.0102547
-0.0103805
-0.0104509
-0.0105092
-0.0105569
-0.0105832
-0.0105903
-0.0105799
-0.0105533
-0.0105111
-0.0104511
-0.0103694
-0.0102712
-0.010171
-0.0100657
-0.00997395
-0.0098881
-0.00978219
-0.00967605
-0.00954964
-0.00945255
-0.00936604
-0.00928266
-0.00922359
-0.00916844
-0.00908118
-0.00897529
-0.00882839
-0.00869354
-0.00855286
-0.00839487
-0.00822806
-0.00805558
-0.00785646
-0.00764489
-0.00424543
-0.0043575
-0.00445802
-0.00464854
-0.00491124
-0.00521248
-0.00550857
-0.00579479
-0.00607654
-0.00635182
-0.0066123
-0.00688559
-0.00718023
-0.00748341
-0.00777545
-0.00804656
-0.00829768
-0.00850511
-0.00868297
-0.00884907
-0.00900167
-0.00913509
-0.00926061
-0.00937847
-0.00946716
-0.00953625
-0.00958738
-0.00962649
-0.00962118
-0.00955468
-0.00949752
-0.00940372
-0.00924912
-0.00907391
-0.00888731
-0.00871628
-0.00851963
-0.00829729
-0.00804663
-0.00784354
-0.00767877
-0.00754822
-0.00738644
-0.00719978
-0.00706939
-0.00691748
-0.00673561
-0.00652695
-0.00633272
-0.00616582
-0.00446758
-0.00434212
-0.00422261
-0.00409505
-0.00406217
-0.00412948
-0.00423237
-0.0043499
-0.00447099
-0.00461995
-0.00473814
-0.00484392
-0.00497342
-0.00511708
-0.00525248
-0.00542307
-0.00557653
-0.00573921
-0.00590698
-0.00608604
-0.00629392
-0.00649637
-0.00668919
-0.00687719
-0.00704964
-0.00720541
-0.00735184
-0.00749191
-0.00761553
-0.00770929
-0.00778163
-0.00782671
-0.00785797
-0.00786885
-0.00785118
-0.00780013
-0.00772498
-0.00764974
-0.00752745
-0.00736663
-0.00717777
-0.00695415
-0.00672195
-0.00639941
-0.00605801
-0.00573832
-0.00548332
-0.00528943
-0.00515753
-0.00506688
-0.00450175
-0.00436438
-0.00426227
-0.00419601
-0.00411086
-0.00398274
-0.00388641
-0.00385403
-0.00396738
-0.00394583
-0.00390607
-0.00386008
-0.00388395
-0.00396494
-0.0040457
-0.0041377
-0.00422729
-0.00430185
-0.00436432
-0.00442895
-0.00449948
-0.00458625
-0.00472095
-0.00482993
-0.00496336
-0.00509674
-0.00525864
-0.00544756
-0.00562412
-0.00577897
-0.0059119
-0.00602587
-0.00612133
-0.00620211
-0.00626014
-0.00629278
-0.00630274
-0.00629225
-0.00626778
-0.00622137
-0.00615314
-0.00606289
-0.00596022
-0.00583906
-0.00572831
-0.00560364
-0.00545982
-0.00529054
-0.00512662
-0.0049904
-0.00815949
-0.00838151
-0.00797755
-0.00705988
-0.00654228
-0.00651628
-0.00597422
-0.00551077
-0.0050077
-0.00463098
-0.00439975
-0.00423295
-0.00410967
-0.00400241
-0.00389457
-0.00383952
-0.00379798
-0.00380744
-0.00382643
-0.00382324
-0.00384659
-0.00389412
-0.00393749
-0.00399278
-0.0040501
-0.00410343
-0.00417621
-0.00426774
-0.00436847
-0.00447151
-0.00457291
-0.00466678
-0.004749
-0.00481815
-0.00486857
-0.00489929
-0.00490736
-0.00489325
-0.00486114
-0.00481363
-0.00475706
-0.00473654
-0.00471306
-0.0046848
-0.00465993
-0.0046037
-0.00455272
-0.00450038
-0.00443489
-0.0043832
-0.00743513
-0.0101519
-0.0106539
-0.00995081
-0.00908824
-0.00922647
-0.00914785
-0.0087935
-0.00828276
-0.00771724
-0.00715373
-0.00663612
-0.0061758
-0.00576745
-0.00539752
-0.00507334
-0.00480329
-0.00458228
-0.00438705
-0.00423069
-0.00412647
-0.00409063
-0.00396693
-0.00387295
-0.00384635
-0.00383772
-0.00375802
-0.00373888
-0.00375974
-0.00376377
-0.00377793
-0.00380389
-0.00381076
-0.0038112
-0.00382604
-0.00383977
-0.00383857
-0.00382428
-0.00382367
-0.00384791
-0.00384546
-0.00385542
-0.00387023
-0.00385612
-0.00382455
-0.00380705
-0.00379286
-0.00377025
-0.0037384
-0.00372038
-0.0224102
-0.0165551
-0.011258
-0.00638378
-2.70998e-05
-0.00439524
-0.0058881
-0.00595277
-0.00653629
-0.00684988
-0.00712335
-0.00740038
-0.00763472
-0.0077828
-0.00789249
-0.00798741
-0.00805527
-0.00802683
-0.00794068
-0.00781111
-0.00766253
-0.00750481
-0.00733652
-0.00717185
-0.00707692
-0.00700112
-0.00683588
-0.00660163
-0.006379
-0.0062113
-0.00610033
-0.00600592
-0.00586735
-0.00573651
-0.00561157
-0.00548462
-0.00535833
-0.00523524
-0.00515339
-0.0051437
-0.00504081
-0.00491364
-0.00481708
-0.00474386
-0.0046761
-0.00460743
-0.0045385
-0.00447068
-0.00440362
-0.00433924
-117.293
-86.7364
-58.2338
-30.781
-0.053862
-0.014785
-0.0084925
-3.40936e-05
-0.00456829
-0.00768417
-0.0088146
-0.00878062
-0.00892599
-0.00922375
-0.00944463
-0.00952113
-0.009395
-0.00905194
-0.00857653
-0.00806812
-0.00758573
-0.00715561
-0.00678409
-0.0064739
-0.00622083
-0.00605479
-0.00588678
-0.00575028
-0.0056538
-0.00558078
-0.00554076
-0.00556019
-0.00555981
-0.00555871
-0.0055414
-0.00554048
-0.00556687
-0.00560654
-0.00568902
-0.00575764
-0.00578092
-0.00581194
-0.00584526
-0.0058681
-0.00587954
-0.00587944
-0.00586863
-0.0058493
-0.00582865
-0.00582708
-274.103
-228.443
-185.837
-146.126
-108.947
-73.4729
-37.985
-0.0541868
-0.00612458
-0.0133614
-0.0172723
-0.0176021
-0.0145178
-0.0129299
-0.0120325
-0.0109243
-0.00968297
-0.00849542
-0.00746091
-0.00660484
-0.00592716
-0.00540638
-0.00501787
-0.00479576
-0.00460033
-0.00445117
-0.00437011
-0.00433751
-0.00435174
-0.00441035
-0.00445554
-0.00450848
-0.00452298
-0.00457936
-0.00465692
-0.00478645
-0.0048249
-0.00486692
-0.00495235
-0.00510067
-0.00525521
-0.00537038
-0.00542952
-0.00550945
-0.00562068
-0.00572731
-0.00582131
-0.0058933
-0.00591961
-0.00593048
-466.06
-396.752
-331.219
-269.554
-211.823
-158.243
-109.24
-64.9702
-25.5782
-0.0309696
-0.0351246
-0.0334715
-0.0260722
-0.0182018
-0.0139625
-0.0107086
-0.00829888
-0.00654909
-0.00531254
-0.00450106
-0.00397412
-0.00367821
-0.00356161
-0.00355118
-0.00356269
-0.00364432
-0.00377716
-0.00388504
-0.00397537
-0.00405804
-0.00421084
-0.00435403
-0.00438522
-0.0044447
-0.00458942
-0.00466786
-0.00469336
-0.00463519
-0.0046402
-0.00470078
-0.00470148
-0.0046522
-0.00458724
-0.00459769
-0.00465402
-0.00464588
-0.0046186
-0.00453447
-0.00448885
-0.00451509
-571.256
-478.199
-389.065
-304.032
-223.441
-147.618
-75.6976
-4.46755
-0.00605637
-0.0205913
-0.0212364
-0.0162869
-0.01233
-0.00982109
-0.0077041
-0.00603447
-0.0047256
-0.00388542
-0.00343951
-0.00321439
-0.00312212
-0.00311328
-0.00318541
-0.00325309
-0.00329665
-0.0033463
-0.00341485
-0.00347407
-0.00349214
-0.00349186
-0.00355778
-0.00360663
-0.00361547
-0.00360211
-0.00357903
-0.00360921
-0.00365691
-0.00367509
-0.00368069
-0.00365533
-0.00365177
-0.00365757
-0.00367389
-0.00366309
-0.00365405
-0.00363195
-0.00358618
-0.00357524
-0.00359216
-0.00359262
-537.013
-428.162
-323.812
-223.472
-128.203
-38.4563
-0.04955
-0.000109249
-0.0012841
-0.00242329
-0.00302297
-0.00364495
-0.00385364
-0.00371729
-0.00340372
-0.00308796
-0.00288506
-0.00278893
-0.002749
-0.00273983
-0.00278052
-0.00284226
-0.00290692
-0.00296189
-0.00300972
-0.00308995
-0.00313753
-0.0031702
-0.00322179
-0.00328261
-0.00335572
-0.00341724
-0.00345691
-0.00348009
-0.00353077
-0.003599
-0.00364643
-0.00366513
-0.00370158
-0.00376858
-0.00384232
-0.0038973
-0.00394957
-0.00399877
-0.00404518
-0.00412757
-0.00423055
-0.00436389
-0.00449506
-0.00459983
-355.924
-237.542
-134.638
-30.5228
-0.0424698
-0.000382935
-0.00227364
-0.00380044
-0.0046627
-0.00548336
-0.00570641
-0.00538565
-0.00477021
-0.0040622
-0.00342115
-0.00294035
-0.00264742
-0.00250282
-0.00243403
-0.00242722
-0.00247724
-0.00254985
-0.00263708
-0.00273005
-0.00282238
-0.00293344
-0.00303852
-0.00311733
-0.00322438
-0.00333433
-0.00345052
-0.00357001
-0.0036679
-0.00376032
-0.00388715
-0.00401914
-0.0041351
-0.00421819
-0.00433994
-0.00447128
-0.00461523
-0.00478795
-0.0049639
-0.00512074
-0.00526656
-0.005443
-0.00564534
-0.00586346
-0.00612477
-0.00644035
-40.1864
-0.0581376
-0.00117018
-0.00030208
-0.0180505
-0.0329053
-0.0363215
-0.0349462
-0.0304014
-0.0239482
-0.0179054
-0.0132702
-0.0100024
-0.00770438
-0.00603846
-0.00481707
-0.00393436
-0.00334225
-0.00294376
-0.00265384
-0.00248069
-0.00238247
-0.00233545
-0.00232504
-0.00233669
-0.00236982
-0.00241609
-0.00247336
-0.00254399
-0.00262529
-0.00272213
-0.00283198
-0.00292974
-0.00304237
-0.00318123
-0.00332651
-0.0034812
-0.00363395
-0.00379399
-0.00396101
-0.00414785
-0.00434743
-0.00455835
-0.00478118
-0.00501328
-0.00525441
-0.00550696
-0.00577125
-0.00606843
-0.00638972
-0.00986134
-0.00925576
-0.00873449
-0.00828817
-0.00789874
-0.00755148
-0.00724707
-0.0069768
-0.00670929
-0.00646581
-0.00624471
-0.00603796
-0.00583949
-0.00564543
-0.0054539
-0.00526531
-0.00508201
-0.00490776
-0.00474579
-0.0045914
-0.00442784
-0.00423061
-0.00397825
-0.00364557
-0.00321688
-0.0026949
-0.00212794
-0.00163708
-0.00157697
-0.0015159
-0.0013927
-0.00119182
-0.000948181
-0.000870292
-0.000800297
-0.00076405
-0.000719065
-0.000620324
-0.000490548
-0.000467531
-0.000461132
-0.000465786
-0.000498595
-0.000587583
-0.000755445
-0.0010508
-0.00144719
-0.00191361
-0.00243348
-0.00300333
-0.00360592
-0.00419324
-0.00477617
-0.00525926
-0.00555914
-0.00573581
-0.00581744
-0.00579699
-0.00566587
-0.00542341
-0.0050755
-0.00463689
-0.00413267
-0.00359401
-0.00305268
-0.00253768
-0.00206802
-0.00164526
-0.00127363
-0.000959942
-0.000723181
-0.000570813
-0.000459964
-0.000365967
-0.000287698
-0.000227517
-0.000180236
-0.00014249
-0.000117691
-0.000121979
-0.000135982
-0.000168327
-0.000221163
-0.000246597
-0.000261942
-0.000270592
-0.000294809
-0.000355278
-0.000410071
-0.000429695
-0.000432495
-0.000435845
-0.000463444
-0.000515476
-0.000588642
-0.00068194
-0.000793359
-0.000919209
-0.00105516
-0.00119774
-0.00134455
-0.00149411
-0.0016455
-0.00179771
-0.00194606
-0.0020859
-0.00221922
-0.0023492
-0.0024751
-0.00259287
-0.00269938
-0.00279259
-0.00287329
-0.0029555
-0.00299221
-0.0029921
-0.00296976
-0.00293175
-0.00287574
-0.00280338
-0.00271916
-0.00263037
-0.00253784
-0.00244124
-0.00234298
-0.00224901
-0.00216134
-0.00207987
-0.00200372
-0.00193189
-0.00186408
-0.00180122
-0.00174143
-0.00168377
-0.00163027
-0.0015912
-0.00159884
-0.00162467
-0.00166704
-0.00171625
-0.00171693
-0.00163968
-0.00152841
-0.00144349
-0.00138681
-0.00126047
-0.00105435
-0.00103349
-0.00102136
-0.00101357
-0.00101041
-0.000982888
-0.000901165
-0.000801868
-0.000720499
-0.000661559
-0.000628238
-0.000627727
-0.000671951
-0.000777612
-0.000967106
-0.00107743
-0.00111812
-0.00117301
-0.00126996
-0.0014209
-0.00152295
-0.00159422
-0.00166768
-0.00170935
-0.00173884
-0.00175972
-0.00177851
-0.00178858
-0.00179656
-0.00179245
-0.00177663
-0.00174389
-0.001666
-0.00155659
-0.00142902
-0.00128997
-0.00114817
-0.00100997
-0.000879564
-0.000759767
-0.000652444
-0.000558623
-0.000478557
-0.000411833
-0.00035752
-0.000314325
-0.00028073
-0.000255123
-0.000235923
-0.000221668
-0.000211082
-0.000203105
-0.000196899
-0.000191835
-0.000187469
-0.000183506
-0.000179773
-0.000176202
-0.000172819
-0.000169751
-0.000167243
-0.000165687
-0.000165665
-0.00016799
-0.000173643
-0.000183525
-0.000197748
-0.000217756
-0.000228393
-0.000226681
-0.00021132
-0.000197201
-0.000197696
-0.000197162
-0.000194211
-0.000189382
-0.000162612
-8.97729e-05
-2.63694e-05
-5.59095e-06
-9.69981e-07
-1.75984e-07
-5.93709e-08
-4.00411e-08
-3.31712e-08
-2.82992e-08
-2.42081e-08
-2.06946e-08
-1.76598e-08
-1.50468e-08
-1.27904e-08
-1.08474e-08
-9.17614e-09
-7.74261e-09
-6.51447e-09
-5.46646e-09
-4.57285e-09
-3.81462e-09
-3.17288e-09
-2.63121e-09
-2.17672e-09
-1.79667e-09
-1.47847e-09
-1.21653e-09
-9.96273e-10
-8.18373e-10
-6.68664e-10
-5.49043e-10
-4.49839e-10
-3.68024e-10
-3.03655e-10
-2.49491e-10
-2.07015e-10
-1.69225e-10
-1.46139e-10
-1.21382e-10
-1.01779e-10
-8.74505e-11
-7.61407e-11
-6.71496e-11
-6.00008e-11
-5.44801e-11
-5.20068e-11
-5.00645e-11
-4.44795e-11
-4.22333e-11
-4.05221e-11
-3.9235e-11
-3.82338e-11
-3.74407e-11
-3.68087e-11
-3.62999e-11
-3.58845e-11
-3.55397e-11
-3.52498e-11
-3.50035e-11
-3.48384e-11
-3.47442e-11
-3.46752e-11
-3.46226e-11
-3.45832e-11
-3.45547e-11
-3.4535e-11
-3.45224e-11
-3.45154e-11
-3.45126e-11
-3.45131e-11
-3.45161e-11
-3.45206e-11
-3.45253e-11
-3.45295e-11
-3.45329e-11
-3.4535e-11
-3.4536e-11
-0.0115887
-0.0107486
-0.00992569
-0.00919427
-0.00858664
-0.00812172
-0.00779562
-0.00748845
-0.00719344
-0.00693099
-0.00670206
-0.00648024
-0.00624221
-0.00597395
-0.0056573
-0.00528277
-0.00484387
-0.00434291
-0.00379747
-0.00324386
-0.0027101
-0.00216476
-0.00162196
-0.00107816
-0.000722312
-0.000652962
-0.000635367
-0.000616976
-0.000591637
-0.000564412
-0.000531971
-0.000501542
-0.000477115
-0.000454187
-0.00043452
-0.000419174
-0.000409435
-0.000405681
-0.000408775
-0.000418792
-0.00043627
-0.000462729
-0.000536425
-0.0010782
-0.00250174
-0.00394994
-0.00524261
-0.00614003
-0.00681092
-0.0073551
-0.00779877
-0.00812466
-0.00841882
-0.00869103
-0.00870712
-0.00858104
-0.0083552
-0.0080224
-0.00757617
-0.00700371
-0.00629613
-0.00547841
-0.00459266
-0.00368671
-0.00280342
-0.00196292
-0.00115365
-0.000396578
-0.000152447
-0.000131136
-0.000119692
-0.000116346
-0.000119946
-0.000151582
-0.000225917
-0.000315957
-0.000369796
-0.000375096
-0.000343446
-0.000287671
-0.000276122
-0.000281418
-0.000290841
-0.00031055
-0.000338225
-0.000374735
-0.000420724
-0.000470821
-0.000510497
-0.000535638
-0.000555685
-0.000591581
-0.000698767
-0.000804458
-0.000923568
-0.00106539
-0.0012345
-0.00143319
-0.00166232
-0.00192387
-0.00221995
-0.00255065
-0.00290021
-0.00317847
-0.00342623
-0.00366337
-0.00391223
-0.00418749
-0.00449262
-0.00467574
-0.00484499
-0.00502531
-0.00524103
-0.00553325
-0.00564916
-0.0057255
-0.00578218
-0.00584149
-0.00589147
-0.00592882
-0.00596188
-0.0059961
-0.00604377
-0.00611725
-0.00611185
-0.00606983
-0.00596934
-0.00575343
-0.00549616
-0.00525138
-0.00502487
-0.00483025
-0.00468679
-0.00461771
-0.00462752
-0.00467764
-0.00470365
-0.00471023
-0.00469615
-0.00465943
-0.00456867
-0.00442233
-0.00421881
-0.00395422
-0.00361181
-0.00314579
-0.00241384
-0.00192857
-0.00191991
-0.0019389
-0.00194485
-0.00184259
-0.00164791
-0.00141752
-0.00119657
-0.00101248
-0.000882737
-0.000816428
-0.000818209
-0.000892293
-0.00104093
-0.001262
-0.00154154
-0.00175284
-0.00184075
-0.00191157
-0.00198021
-0.00207428
-0.00217231
-0.00224406
-0.00227749
-0.00226817
-0.00221785
-0.00214185
-0.00203341
-0.00188681
-0.00171836
-0.00155048
-0.00139819
-0.00126545
-0.00114592
-0.00102977
-0.000914966
-0.000804476
-0.000701745
-0.000609019
-0.000527379
-0.000457092
-0.000397863
-0.000348996
-0.000309543
-0.000278412
-0.000254404
-0.000236241
-0.000222645
-0.00021246
-0.000204723
-0.000198669
-0.000193715
-0.000189436
-0.000185541
-0.000181847
-0.000178269
-0.000174804
-0.00017154
-0.000168678
-0.000166565
-0.00016575
-0.000167008
-0.000171277
-0.000179365
-0.000190163
-0.000198493
-0.000202671
-0.000195867
-0.000156358
-7.20267e-05
-2.05721e-05
-6.60627e-06
-3.32259e-06
-2.19468e-06
-1.49603e-06
-9.28388e-07
-4.75345e-07
-2.21051e-07
-1.47217e-07
-1.12699e-07
-9.71934e-08
-8.88247e-08
-8.21248e-08
-7.58708e-08
-6.98763e-08
-6.41274e-08
-5.86363e-08
-5.3411e-08
-4.8466e-08
-4.38061e-08
-3.94396e-08
-3.53658e-08
-3.15866e-08
-2.80938e-08
-2.48878e-08
-2.19592e-08
-1.93004e-08
-1.68976e-08
-1.47335e-08
-1.28013e-08
-1.10787e-08
-9.55324e-09
-8.20717e-09
-7.02782e-09
-5.99793e-09
-5.10398e-09
-4.33141e-09
-3.66266e-09
-3.08689e-09
-2.5918e-09
-2.17004e-09
-1.81043e-09
-1.5072e-09
-1.25222e-09
-1.03648e-09
-8.5804e-10
-7.07771e-10
-5.82308e-10
-4.80485e-10
-3.96814e-10
-3.27879e-10
-2.67402e-10
-2.26217e-10
-1.84999e-10
-1.55443e-10
-1.32808e-10
-1.10931e-10
-9.53569e-11
-8.30923e-11
-7.34428e-11
-6.59326e-11
-6.00981e-11
-5.5673e-11
-5.24613e-11
-5.15901e-11
-4.82206e-11
-4.59211e-11
-4.46937e-11
-4.37835e-11
-4.30914e-11
-4.25648e-11
-4.2162e-11
-4.18499e-11
-4.1603e-11
-4.14004e-11
-4.1225e-11
-4.11019e-11
-4.10515e-11
-4.10323e-11
-4.10212e-11
-4.10154e-11
-4.10129e-11
-4.10129e-11
-0.00728865
-0.00741132
-0.00754818
-0.00767434
-0.00777498
-0.00787407
-0.00797966
-0.00802063
-0.00805612
-0.00805742
-0.00806338
-0.00804683
-0.00796735
-0.00784961
-0.00766092
-0.00740293
-0.00705004
-0.0065902
-0.00601588
-0.00543228
-0.00502001
-0.00470478
-0.00441074
-0.00410311
-0.00365632
-0.00332511
-0.00302541
-0.00287201
-0.00274746
-0.00225629
-0.00254636
-0.00312673
-0.00328363
-0.00318853
-0.00293043
-0.00298109
-0.002968
-0.00330702
-0.00387238
-0.00452227
-0.00513255
-0.00591312
-0.00670809
-0.00746417
-0.00821876
-0.00895135
-0.00956081
-0.00986826
-0.0100317
-0.0101446
-0.0102314
-0.0102534
-0.0103542
-0.0104244
-0.010267
-0.00998772
-0.00966182
-0.00924497
-0.00883077
-0.00834096
-0.00753717
-0.00646031
-0.00523845
-0.00394384
-0.00263134
-0.001534
-0.00129359
-0.00123639
-0.00118192
-0.00113791
-0.00108721
-0.0011771
-0.00160782
-0.00211822
-0.00258599
-0.00297658
-0.00333229
-0.00370375