/*--------------------------------*- C++ -*----------------------------------*\
| =========                 |                                                 |
| \\      /  F ield         | OpenFOAM: The Open Source CFD Toolbox           |
|  \\    /   O peration     | Version:  2.4.0                                 |
|   \\  /    A nd           | Web:      www.OpenFOAM.org                      |
|    \\/     M anipulation  |                                                 |
\*---------------------------------------------------------------------------*/
FoamFile
{
    version     2.0;
    format      ascii;
    class       volScalarField;
    location    "5";
    object      p;
}
// * * * * * * * * * * * * * * * * * * * * * * * * * * * * * * * * * * * * * //

dimensions      [1 -1 -2 0 0 0 0];

internalField   nonuniform List<scalar> 
8000
(
-50.054
-49.1041
-48.2514
-47.5715
-47.0007
-46.4992
-46.0534
-45.6565
-45.3016
-44.9815
-44.6885
-44.4152
-44.1539
-43.8983
-43.6496
-43.4005
-43.1328
-42.8563
-42.6075
-42.3251
-42.038
-41.7673
-41.508
-41.2923
-41.124
-41.0219
-40.9202
-40.7261
-40.511
-40.2227
-39.8916
-39.5229
-39.1077
-38.6762
-38.2168
-37.7297
-37.2689
-36.7297
-35.923
-34.9782
-33.7259
-32.2814
-30.7383
-29.171
-27.5903
-25.9012
-23.8238
-21.0576
-19.4227
-26.327
-4.67428
-4.11739
-3.45101
-2.84436
-2.32083
-1.86739
-1.47707
-1.14917
-0.882463
-0.669229
-0.496174
-0.340916
-0.269152
-0.214807
-0.221538
-0.335358
-0.539352
-0.598279
-0.636326
-1.02929
-1.39748
-1.32197
-1.16852
-1.35578
-2.11112
-3.29511
-4.66702
-5.88362
-5.79711
-5.83978
-6.71719
-8.25469
-9.54382
-10.1087
-10.7932
-12.3769
-14.7164
-17.9624
-21.2328
-19.5607
-18.4369
-18.5544
-19.1535
-19.9215
-21.2962
-23.5918
-27.1883
-33.963
-41.3079
-29.5991
-24.3708
-24.3211
-24.299
-24.2693
-24.2172
-24.137
-24.0277
-23.8737
-23.6401
-23.4286
-23.7038
-24.6972
-25.0574
-29.3939
-27.122
-20.0479
-20.2732
6.4019
33.1982
-3.48465
84.3216
57.3046
28.879
45.6513
38.5853
27.2993
40.1835
92.3313
-25.6115
11.115
16.0533
-5.17444
15.688
-2.90718
45.6757
32.1518
9.13685
6.64759
33.329
-41.719
-28.8022
-18.3843
-0.277084
57.4598
79.2355
21.0108
-1.23438
-6.71385
31.2187
22.2892
-4.45311
-4.25029
-4.00408
-3.77886
-3.5661
-3.30449
-2.99607
-3.15303
-5.34116
-8.25088
-3.19455
-1.67828
2.60545
2.08167
1.92211
4.46774
4.8782
3.32158
10.1573
4.82494
3.42101
3.5772
2.17726
7.02273
3.39024
3.85262
2.93881
2.77189
2.51701
5.69947
5.50548
6.30896
5.03126
4.89815
3.97749
4.02527
3.21446
2.74145
2.69962
2.75907
3.11884
3.51817
3.85444
3.97208
3.94676
3.92401
3.60224
3.22931
2.93905
2.96158
-13.1516
-12.8906
-12.627
-12.3839
-12.1563
-11.9231
-11.6466
-11.2879
-11.2605
-12.6158
-13.6485
-15.159
-9.28098
-2.10727
2.77457
3.49398
3.91323
4.23074
4.32586
4.23101
4.17147
4.22348
4.44097
4.61183
4.5718
4.44427
4.27331
4.25138
4.21075
3.99206
5.52571
5.62393
2.65041
6.3377
5.60332
6.13427
6.42184
6.30746
6.076
6.60722
5.59977
5.60702
5.56008
5.5754
5.58351
5.53433
5.45141
5.4464
5.41831
5.21248
4.83518
4.8438
4.88526
4.94718
5.02229
5.10903
5.20866
5.32037
5.41654
5.43511
5.3994
5.21298
5.26719
6.39316
7.21147
-4.0768
-8.56297
-8.55535
-5.19958
4.70545
3.9805
4.83195
4.81291
4.88927
4.89815
4.93793
5.0006
5.04064
5.06534
5.0554
5.18654
5.20398
5.2176
5.16028
5.13526
5.09348
4.98238
6.26416
6.26787
4.04171
4.2385
4.40089
4.50431
4.5458
4.5129
4.54981
4.54312
4.41364
4.54668
4.31608
1.74255
1.72922
1.71103
1.70079
1.70202
1.71412
1.73665
1.76973
1.81294
1.8675
1.93602
2.02792
2.14644
2.28062
2.40493
2.46621
2.4646
2.64183
3.69343
6.04355
5.81634
-4.93793
-6.83199
-5.58977
-4.30237
-3.69767
0.381818
2.37566
3.74093
4.11613
4.17398
4.17831
4.19684
4.23324
4.25577
4.18871
4.15178
4.18499
4.91296
5.12504
5.1173
5.16865
8.08783
5.2747
5.22007
5.21007
5.34318
5.09004
5.11146
5.03131
6.14261
6.16634
6.19714
6.22758
6.2564
6.28393
6.31062
6.33587
6.35997
6.38273
6.40446
6.42378
6.44151
6.45596
6.46777
6.48263
6.50759
6.55665
6.62706
6.68276
6.7498
6.72228
6.69936
6.70825
6.89854
7.64448
8.9717
6.67542
-0.243184
-3.34575
-4.78144
-3.9771
0.529792
3.44059
4.68614
4.92246
4.94019
4.95872
4.97793
5.10364
5.12731
4.82281
5.8923
4.94109
4.83169
4.75739
4.72766
4.69829
4.56803
4.57846
6.70317
6.70939
6.71477
6.72109
6.72929
6.7396
6.75203
6.76641
6.78335
6.80171
6.82271
6.84582
6.87104
6.89823
6.9273
6.95824
6.9911
7.02565
7.08321
7.1127
7.12456
7.16607
7.21746
7.2915
7.39988
7.53842
7.68603
7.82906
7.91222
7.95242
8.0328
8.46554
9.36897
7.26075
1.35781
-2.99005
-4.46386
-2.0679
3.44031
5.56022
6.61817
6.46955
5.53895
5.06795
5.25069
5.3239
5.36329
5.37594
5.45601
5.86496
9.39652
9.3767
9.35832
9.3454
9.33729
9.33343
9.33342
9.33746
9.34565
9.35752
9.37331
9.39297
9.41649
9.44389
9.47515
9.51029
9.54957
9.59518
9.68624
9.63472
9.68827
9.7457
9.80709
9.87248
9.94177
10.0142
10.089
10.1677
10.2552
10.3603
10.494
10.6562
10.8436
11.0415
11.2179
11.3666
11.4968
11.5998
10.7394
7.9372
2.25391
0.220661
2.65588
5.28394
6.66394
6.46708
6.51358
6.69465
6.72292
6.4762
10.4677
10.4219
10.3747
10.3353
10.3032
10.277
10.2563
10.2412
10.2315
10.2273
10.2286
10.2354
10.2496
10.2673
10.2893
10.3183
10.3539
10.4891
10.4614
10.5132
10.5718
10.6394
10.7107
10.7952
10.8776
10.9709
11.0716
11.1798
11.2956
11.4193
11.5511
11.6907
11.8374
11.9933
12.1642
12.3549
12.565
12.7935
13.0342
13.2897
13.5852
14.0184
13.5244
11.1342
4.16459
0.628101
1.35691
4.6584
6.71009
7.26033
10.2376
10.2073
10.1746
10.1462
10.1221
10.1014
10.084
10.0697
10.0586
10.0507
10.0459
10.0442
10.0466
10.0511
10.0559
10.0664
10.0805
10.1664
10.1247
10.1465
10.1713
10.2036
10.2306
10.2681
10.3019
10.3405
10.3819
10.4259
10.4726
10.5219
10.5736
10.6278
10.6843
10.7428
10.8035
10.8661
10.9305
10.9962
11.0635
11.135
11.2114
11.2893
11.3611
11.4396
11.3957
10.8729
9.98301
8.80678
7.28147
5.80006
10.123
10.101
10.0779
10.0576
10.0397
10.0235
10.0091
9.99642
9.98547
9.97626
9.96878
9.96302
9.96075
9.95829
9.95598
9.95677
9.95936
9.96423
9.98559
9.87654
9.88337
9.89113
9.90471
9.91039
9.92734
9.92513
9.93529
9.94552
9.95567
9.96559
9.97508
9.98392
9.99191
9.99879
10.0043
10.0082
10.0101
10.0097
10.0066
10.0002
9.99034
9.97622
9.95707
9.93153
9.89977
9.86871
9.85424
9.85983
9.77169
8.93342
9.18211
9.16363
9.1429
9.12411
9.10732
9.09211
9.07833
9.06597
9.05505
9.04555
9.03748
9.03083
9.02558
9.02303
9.02047
9.02067
9.02021
9.02182
9.19598
9.07947
9.08406
9.09087
9.09908
9.10858
9.11928
9.13156
9.14511
9.1599
9.1759
9.19309
9.21144
9.23089
9.25142
9.27299
9.29556
9.3191
9.34359
9.36893
9.39503
9.42197
9.44966
9.47802
9.50697
9.53648
9.56702
9.60056
9.63072
9.65989
9.68501
9.70833
8.67087
8.6526
8.63375
8.61715
8.6024
8.58905
8.57696
8.56615
8.5566
8.54831
8.54127
8.53548
8.53091
8.52846
8.52693
8.52789
8.52841
8.52978
8.53297
8.6118
8.55361
8.56037
8.56805
8.57747
8.58849
8.601
8.61495
8.63036
8.64729
8.66575
8.68579
8.70745
8.73078
8.75583
8.78267
8.81137
8.84202
8.8749
8.90953
8.94658
8.986
9.02792
9.07248
9.11988
9.1703
9.22397
9.28274
9.34317
9.40727
9.47689
7.24883
7.2398
7.22936
7.21969
7.21096
7.20297
7.19563
7.18893
7.18287
7.17743
7.17262
7.16843
7.16485
7.16188
7.15953
7.15819
7.15667
7.1576
7.15583
7.1564
7.15645
7.1575
7.1599
7.16354
7.16202
7.1653
7.16931
7.17388
7.17896
7.18451
7.19054
7.19703
7.20399
7.21142
7.21931
7.22767
7.23649
7.24578
7.25555
7.26583
7.27652
7.28767
7.29931
7.31145
7.32409
7.3372
7.35079
7.36503
7.3847
7.39985
6.35009
6.34818
6.34683
6.3459
6.34517
6.34456
6.3441
6.34377
6.34361
6.34359
6.34372
6.34402
6.34446
6.34507
6.34584
6.34677
6.34797
6.34924
6.3506
6.35219
6.35383
6.3557
6.35768
6.35957
6.36166
6.36493
6.36629
6.36638
6.36922
6.37217
6.37529
6.37855
6.38196
6.38549
6.38916
6.39296
6.39691
6.401
6.40525
6.40965
6.41422
6.41897
6.42387
6.42893
6.43417
6.43962
6.44528
6.45109
6.45698
6.46316
4.84241
4.84995
4.85743
4.86392
4.86967
4.87489
4.87963
4.88388
4.88765
4.89096
4.8938
4.89618
4.89812
4.89963
4.9007
4.90135
4.90157
4.90137
4.90076
4.89973
4.89829
4.89646
4.89424
4.89163
4.88864
4.88527
4.88148
4.8772
4.87309
4.86813
4.86249
4.8569
4.85096
4.84467
4.83803
4.83105
4.82372
4.81607
4.80812
4.79987
4.79134
4.78256
4.77352
4.76424
4.75477
4.74513
4.73538
4.72556
4.71578
4.70634
3.97211
3.98544
4.00034
4.0139
4.02603
4.03706
4.04711
4.05621
4.06437
4.07159
4.0779
4.08328
4.08775
4.09131
4.09396
4.09569
4.09649
4.09635
4.09526
4.09321
4.09016
4.0861
4.08099
4.07482
4.06755
4.05914
4.04956
4.03876
4.02671
4.01333
3.99859
3.98242
3.96476
3.94554
3.9247
3.90214
3.8778
3.85158
3.82339
3.79313
3.76069
3.72596
3.68875
3.64899
3.60649
3.56109
3.51343
3.46719
3.42749
3.39122
2.76063
2.77666
2.79322
2.80782
2.82078
2.83251
2.84314
2.85266
2.86111
2.86844
2.87467
2.87982
2.88389
2.88687
2.88876
2.88953
2.88918
2.8877
2.88505
2.88122
2.87617
2.86987
2.86228
2.85336
2.84305
2.83131
2.81808
2.80329
2.78687
2.76874
2.74882
2.72702
2.70324
2.67736
2.64928
2.61886
2.58598
2.55049
2.51222
2.47103
2.42681
2.37961
2.32962
2.27775
2.22525
2.1679
2.09282
2.01353
1.90704
2.01572
-43.9991
-24.0703
-8.90577
-4.68272
-6.93846
-37.5559
126.576
116.526
104.551
203.61
-0.764822
-8.6707
-3.35027
-4.38712
-2.11576
-1.83637
72.0871
80.7948
-15.3745
-9.916
-9.31789
-10.3006
-9.49247
-10.007
-7.94839
-8.41055
3.46236
38.3118
-9.75368
-5.85713
-4.95247
-6.80886
-8.55516
-0.907968
-13.5709
-11.8398
-10.8563
-13.7794
37.5982
26.3048
-6.22733
-1.89414
-1.71096
-2.68906
-5.62923
27.9024
11.9433
-3.12287
-2.94002
-3.24922
-23.3756
-23.4541
-28.3468
-33.3456
-38.9437
-48.1788
-73.798
-48.9889
-44.7378
-35.9906
-40.0623
-59.6563
-112.227
36.4592
6.17344
63.6209
94.7101
101.571
82.106
42.5195
-13.132
-22.3462
-13.3436
102.228
9.73605
34.6464
54.2802
52.4114
41.7018
45.292
69.0979
69.6063
61.089
47.5703
39.5725
75.0112
-40.1833
-12.7826
5.5183
-3.70266
3.48562
12.4466
38.1268
97.4808
64.3142
55.6733
54.0601
37.4001
13.9467
2.04965
46.5256
121.245
-15.3474
-19.8856
-19.9849
-19.0436
-17.9021
-17.0154
-8.01315
245.58
29.5585
5.87211
6.4563
4.51728
4.90631
4.56402
9.83432
160.249
1.03041
-9.06886
-9.40415
-9.37211
-9.21173
-4.52584
73.9869
57.0994
16.0594
18.5283
17.1561
17.9212
20.6638
16.7809
16.1434
52.5764
161.149
74.2148
22.6733
2.18886
6.98752
10.0746
8.99671
8.86885
8.80639
9.64721
9.81073
21.6059
40.8523
3.33076
-1.79091
-3.32633
3.16244
3.08487
2.94637
2.80513
2.70104
2.3917
2.29775
2.29926
2.66692
3.19663
3.41439
3.3459
2.55597
2.00956
2.07981
2.22695
2.55974
2.82781
2.65437
2.31627
2.13508
2.12721
2.18441
2.36443
2.61622
2.87127
2.66374
2.06312
2.17799
2.25652
2.06779
2.51156
2.5065
3.11605
4.14067
5.84557
7.19624
7.8993
7.98861
8.08873
7.75375
7.88836
8.15582
8.11671
7.91745
8.18515
8.70848
8.93652
9.25777
8.9858
5.15815
5.06926
5.00279
4.92843
4.8333
4.77179
4.6682
4.73377
4.64804
4.72259
4.63472
4.65246
4.59468
4.57994
4.50455
4.38161
4.42822
4.36212
4.36859
4.41342
4.36869
4.28047
4.1959
4.42109
4.02044
4.0718
4.0596
3.99858
3.97105
4.15394
3.98811
4.50533
4.50997
4.33417
4.71958
4.23967
4.37927
4.44812
4.49149
4.54251
4.60806
4.64182
4.68627
4.70856
4.63732
4.65999
4.66046
4.65169
4.6438
4.625
4.33454
4.32439
4.30919
4.26559
4.18131
4.21666
4.20664
4.24212
4.25401
4.23313
4.20575
4.17953
4.15507
4.12895
4.08563
4.078
4.08711
4.02071
4.01288
3.96382
3.88794
3.81235
3.85293
3.66017
3.78849
3.37081
3.51131
3.5114
3.54732
3.5595
3.55658
3.54951
3.5648
3.63153
3.93544
3.49172
3.42854
3.40798
3.40994
3.40776
3.39833
3.39539
3.4265
3.54624
3.64983
3.16756
3.19332
3.15342
3.14348
3.2786
5.06252
5.09331
5.06467
5.07154
4.98763
4.94507
4.89949
4.85428
4.81507
4.71944
4.74603
4.64433
4.59275
4.54705
4.47387
4.3885
4.37052
4.19585
4.13312
4.05814
3.976
3.89125
3.79961
3.70748
3.62175
3.64169
3.44448
3.38842
3.33998
3.27361
3.19378
3.13086
3.0844
2.97045
2.94644
2.91545
2.87779
2.82435
2.795
2.78073
2.76004
2.60716
2.58689
2.57145
2.55027
2.52362
2.48943
2.44683
2.42496
2.41672
4.6196
5.4768
4.66778
4.55878
4.50559
4.46522
4.42485
4.37638
4.32104
4.36367
4.17234
4.13287
4.10225
4.02713
3.97308
3.91266
3.86304
3.81024
3.75713
3.69899
3.63842
3.60228
3.53885
3.47854
3.4244
3.37101
3.31308
3.25838
3.22011
3.18455
3.06464
3.09923
2.98105
2.98485
2.93792
2.87931
2.86119
2.796
2.86015
2.83472
2.69041
2.93045
2.71439
2.90528
2.60178
2.68053
2.66772
2.69507
2.73896
2.62754
6.78524
6.97885
5.16125
4.59749
4.31598
4.25223
4.26821
4.28969
4.32272
4.42789
4.60072
4.28771
4.25539
4.2437
4.25344
4.36436
4.56246
4.57259
3.66562
3.54416
3.49944
3.49998
3.48326
3.48693
3.4819
3.46403
3.44743
3.40451
3.37309
3.34053
3.28043
3.2788
3.25162
3.13826
3.114
3.09823
3.07295
3.19951
3.10567
3.10907
3.10879
3.04841
3.23723
3.14929
3.2361
3.238
3.15948
3.12622
3.11469
3.15005
6.06791
5.7096
5.49674
5.43784
5.47728
5.50155
5.58125
5.76348
6.60297
7.37989
3.95509
3.40064
3.6882
3.22306
3.51662
3.60951
3.3067
3.09873
2.99115
3.03545
3.04954
3.07893
3.37095
4.52258
4.38673
4.06001
3.84961
3.77677
3.767
3.77068
3.77171
3.77466
3.77598
3.78973
3.7915
3.76557
3.77576
3.77878
3.78271
3.82379
3.83172
3.87264
3.89692
3.90112
3.80945
3.89424
3.87964
3.78284
4.17786
4.21732
6.34842
5.15735
4.45286
8.32552
7.74532
5.28069
6.8739
5.92509
5.1484
4.58657
4.32246
4.22076
4.1529
4.05854
3.97457
4.11141
4.14226
4.21146
4.38384
4.51985
4.62591
4.62709
4.50884
4.41998
4.36526
4.32595
4.32664
4.34338
4.36882
4.39185
4.41504
4.4444
4.47848
4.52336
4.55095
4.58777
4.62796
4.67047
4.71335
4.75333
4.78244
4.81536
4.8963
4.95125
4.60455
4.70494
4.81774
4.9974
5.02931
5.38086
4.07839
2.73289
2.71035
3.12759
4.51059
4.85772
4.72981
4.49724
4.36014
4.3364
4.32672
4.30701
4.28278
4.25668
4.23509
4.22706
4.23709
4.23585
4.24687
4.30642
4.25808
4.92278
4.3313
4.63914
4.2649
4.9069
4.80392
4.71114
4.74836
4.84532
4.93357
4.93313
4.82494
4.70194
4.64371
4.64306
4.65639
4.68325
4.77041
4.96169
5.12936
5.18893
5.13749
4.99996
4.91244
4.90239
4.92225
4.94866
4.96772
5.23329
9.0199
8.99361
7.67268
5.08178
3.50301
3.78831
4.44045
4.59695
4.52925
4.44814
4.37994
4.35762
4.3554
4.35735
4.38847
4.39623
4.42842
4.40227
4.41943
4.44561
4.4822
4.50418
4.53903
4.60046
4.75198
5.05119
5.10334
4.44591
4.40824
4.4681
4.41912
4.98489
4.65872
4.66067
4.69513
4.74918
4.80866
4.88434
5.0652
5.7931
5.70784
4.56966
4.53901
4.56432
4.61302
4.66991
4.72505
4.77569
4.82389
4.87497
9.73681
9.7781
9.82914
9.81242
8.92656
7.22807
5.57725
4.56124
4.47047
4.43648
4.24671
4.10098
4.05398
4.04346
4.04125
4.04205
4.04366
4.04504
4.04547
4.04572
4.04627
4.04534
4.04754
4.05598
4.08041
4.38625
4.19424
4.12781
4.09993
4.09867
4.1184
4.16936
4.39742
4.3609
4.2837
4.23989
4.3123
4.30152
4.34421
5.07692
4.47598
4.42028
4.4021
4.41099
4.43175
4.45774
4.48937
4.52769
4.58914
4.71769
9.55195
9.63122
9.71105
9.78888
9.87228
9.95978
9.98308
8.98052
7.55573
6.04416
4.34272
3.34164
3.11926
3.08816
3.08388
3.08121
3.08097
3.06921
3.05263
3.04259
3.02785
3.00473
2.9847
3.49086
3.25609
3.1642
3.1681
3.12177
3.02116
2.97036
3.12596
3.05615
2.95143
2.94358
2.85305
3.74591
3.07485
3.61242
3.50679
3.43347
3.95231
3.83552
3.77845
3.77295
3.79035
3.7722
3.7447
3.88511
3.84313
3.85242
7.41482
7.43102
7.44791
7.46654
7.48778
7.50609
7.50422
7.46505
7.30754
6.88487
5.55397
3.99344
3.70511
3.67752
3.66253
3.65999
3.65259
3.64845
3.63215
3.61139
3.5992
3.59196
3.58476
3.73724
3.75577
3.7533
3.74501
3.8405
3.66468
4.13718
3.55693
4.24267
3.37387
3.66771
2.83285
2.95381
2.88699
3.37301
3.41375
2.88125
3.01609
2.49424
3.06691
2.85838
2.80122
2.81336
2.67386
3.61673
3.61381
4.16033
6.47768
6.48088
6.48932
6.50156
6.51088
6.48239
6.24928
5.73573
5.40955
4.80593
4.01481
3.80258
3.79415
3.80188
3.80412
3.74507
3.71184
3.64228
3.56504
3.55341
3.36277
3.46374
3.07707
3.23019
2.99291
3.07437
2.7954
3.02523
2.64843
3.10978
2.04046
2.48329
2.47626
2.57625
3.32026
2.91336
2.80623
2.75122
2.63439
2.73244
2.75563
2.32104
2.25113
2.23835
2.26723
2.33486
3.13816
2.55076
3.5059
3.5032
4.71964
4.69856
4.67916
4.62949
4.3812
3.85047
3.14208
2.85964
2.5159
3.196
3.65018
3.72679
3.77734
3.76078
3.73279
3.6556
3.51588
3.66913
3.55648
3.70173
3.74546
3.32624
3.18447
3.24164
3.23145
3.22877
3.13941
3.27021
3.38821
3.135
2.96795
3.47559
3.22301
3.36605
3.49138
2.67109
3.13681
2.08791
2.371
1.91827
1.84146
1.92753
1.96652
2.0094
2.08099
2.16335
1.9692
1.91238
2.53003
1.85244
3.28514
3.03106
2.79969
2.21689
1.21064
0.440075
-0.37212
1.76353
2.90545
3.07328
3.09396
3.12655
3.10727
3.09384
3.07132
3.00845
2.89637
3.13634
2.77161
2.85155
2.84755
2.66486
2.57433
2.70811
2.68187
2.47018
2.70987
2.31648
2.36402
2.2613
2.13939
2.69739
2.17647
2.707
2.49155
2.43386
2.75295
1.69333
1.73252
1.68072
1.62014
1.54713
2.00856
1.62153
1.58892
1.56408
1.52361
1.44925
1.41196
2.05311
1.972
-0.500642
-1.52861
-2.86232
-1.99237
0.982832
2.16767
2.26375
2.27889
2.27904
2.28188
2.291
2.2801
2.27141
2.26085
2.24515
2.20984
2.24775
2.26763
2.04561
2.13245
2.11556
2.07194
2.04851
2.03215
1.97147
1.97873
1.97921
1.9761
1.92083
1.88216
2.29978
1.73738
1.76039
1.75692
1.63204
1.60793
1.60812
1.52262
1.52292
1.52983
1.50142
1.45976
1.42144
1.51393
1.49675
1.47209
1.45135
1.43196
1.39812
-3.37472
-3.36636
-3.35975
-3.36183
-3.37199
-3.38243
-3.36387
-3.06415
-3.31063
-3.39884
-3.46198
-3.50711
-3.5548
-3.61167
-3.67514
-3.74401
-3.81892
-3.89966
-3.98252
-4.06506
-4.13908
-4.2127
-4.29409
-4.3867
-4.42425
-4.61755
-4.98754
-9.82716
122.344
14.5699
7.16157
10.6646
7.91879
6.22635
4.90724
6.63601
0.271252
5.12066
-7.20995
109.376
23.3033
3.68064
1.82836
1.37963
1.2231
1.1735
1.05678
0.913548
0.767956
0.632577
0.52657
0.413695
0.331731
3.31301
1.52125
1.25559
1.0906
0.974769
0.869767
0.761715
0.652282
0.539509
0.419537
0.294355
0.170416
0.0414731
-0.093762
-0.199276
-0.380181
-0.972658
-2.30373
-3.12635
-4.77303
-6.81774
-7.33284
-7.46846
-7.70547
-8.06147
-10.7659
53.23
7.87313
3.71878
10.2962
5.6338
-15.2739
176.966
23.5063
14.6149
13.255
7.53342
1.81371
-2.46681
-3.09026
-3.26351
-3.43481
-3.58951
-3.71735
-3.82496
-3.91605
-3.99791
-4.0595
-4.10402
-4.14746
-4.13132
-3.80685
-3.93993
-4.22728
-4.31079
-4.32864
-4.31913
-4.30143
-4.3049
-4.24258
-3.84496
-1.97378
-3.5244
-3.79342
-3.86095
-3.85461
-3.86632
-3.88316
-3.87327
-3.75997
-3.91805
-3.88556
-3.79294
-3.67272
-3.65072
-3.70348
-3.79372
-3.89755
-4.01914
-4.15515
-4.38635
-4.48523
-5.52528
-9.6422
-0.205491
-3.93123
-2.93605
-2.00465
-1.87651
-1.98783
-2.14302
-2.29757
-2.43356
-1.83244
4.7596
122.706
16.7922
0.788817
-2.50023
-2.8183
-2.89072
-2.9697
-3.05184
-3.11612
-3.16475
-3.16541
-3.49018
-5.07019
-9.85517
18.0386
-1.7639
-2.30462
-1.64
-0.766457
-0.808119
-1.0578
2.57553
1.84629
0.857885
0.899083
1.00158
-0.231878
0.612463
1.80157
-4.46195
-3.26342
-2.4671
-2.09085
-1.97118
-1.84324
-1.70749
-1.59757
-1.50269
-1.41708
-1.34094
-1.2728
-1.2111
-1.15492
-1.10346
-1.05582
-1.0111
-0.968726
-0.928356
-0.889662
-0.852223
-0.815614
-0.779469
-0.743484
-0.707416
-0.671091
-0.634404
-0.597321
-0.559895
-0.522269
-0.484712
-0.447312
-0.410835
-0.374817
-0.343387
-0.362597
-0.43024
0.594908
-0.356907
0.714605
0.548027
0.298276
0.132021
-0.4367
-0.290032
-0.0523443
0.21465
0.268893
0.264466
0.26154
0.255388
0.247011
0.236897
0.225591
0.213504
0.200978
0.188291
0.175668
0.163288
0.151293
0.139792
0.128865
0.118566
0.108927
0.099966
0.0916843
0.0840752
0.0771291
0.070836
0.0651863
0.0601804
0.0558366
0.0521927
0.0493385
0.0475205
0.0473477
0.0501615
0.052023
0.0501664
0.0465936
0.0420093
0.036747
0.0310014
0.024911
0.018592
0.0121516
0.00569331
-0.000683409
-0.00688373
-0.0128196
-0.0184117
-0.0235913
-0.0283018
-0.0325004
-0.0361585
-0.0392626
-0.0418141
-0.0438284
-0.0453333
-0.046367
-0.0469753
-0.0472084
-0.0471182
-0.0467557
-0.046169
-0.0454018
-0.0444926
-0.0434739
-0.0423719
-0.0412069
-0.0399936
-0.0387423
-0.0374599
-0.0361515
-0.0348201
-0.0334677
-0.0320962
-0.0307094
-0.0293102
-0.0278899
-0.0264278
-0.02493
-0.0234901
-0.0383991
-0.0711695
-0.0586195
-0.0349177
0.00994595
0.147663
0.39155
0.595966
-0.21062
-0.339998
-0.389304
-0.382295
-0.3797
-0.381878
-0.385296
-0.406041
-0.420324
-0.431717
-0.440064
-0.41972
-0.244933
-0.208092
-0.16273
-0.419349
-0.514951
2.13785
35.1425
68.0055
70.1308
37.6151
44.9776
-25.8268
7.64233
7.799
59.5052
68.0953
13.6536
12.9546
82.1328
113.455
105.242
73.2326
24.1916
1.35022
-0.645498
-0.598273
-0.945198
0.378545
-0.871594
-1.12873
-1.10627
-1.12068
-1.076
3.57391
1.80781
1.67368
1.61503
1.67492
1.647
1.70062
1.70277
1.70901
1.75013
1.72433
1.74239
1.79426
1.82114
0.928965
9.67705
59.4316
128.219
45.775
4.59534
-9.37279
-10.4254
-10.5615
-10.5527
-10.5497
-10.2981
-7.54007
11.7168
23.6782
4.59178
7.6575
36.9699
51.7228
74.6914
94.0688
103.171
91.9086
44.6113
3.50881
-5.39083
-5.88396
-5.94118
-5.93084
-5.98952
-6.0772
-6.15914
-6.25119
-6.34223
-6.16702
-5.29652
-2.72135
-4.5144
-5.4419
-5.60432
-5.24779
-4.09214
0.0112973
-4.1529
-3.58489
-3.28786
-3.23845
7.58368
0.450179
-0.909263
-1.24911
-1.30123
-1.29502
-1.33411
-1.37379
-1.24132
-0.297379
2.72009
4.34222
-3.96362
-4.79505
-5.11109
-5.11733
-5.07348
-5.08513
-5.07872
-5.01733
-5.11231
-4.99648
-5.05671
-4.62399
-4.75456
-4.4868
-4.70867
-4.10784
-3.68784
-3.63658
-3.70006
-3.85878
-4.66242
-6.5383
30.7255
-10.1621
-7.30696
-6.4669
-6.27785
-6.21814
-6.12326
-6.02385
-5.9406
-5.87544
-5.82922
-5.82703
-5.69262
-5.69906
-6.86025
-11.6484
-9.22232
-8.50265
-6.09165
-4.22517
-3.71564
-3.71794
-3.78608
-3.867
-3.76545
-4.06932
-4.23565
-4.1288
-4.13662
-4.17902
-4.22102
-4.20438
-4.10139
-3.94822
-3.75454
-3.55399
-3.36257
-3.18093
-3.00791
-2.84242
-2.68365
-2.53097
-2.38371
-2.24164
-2.10533
-1.9754
-1.85089
-1.73051
-1.61394
-1.50144
-1.39299
-1.28827
-1.18691
-1.08862
-0.993146
-0.900269
-0.809831
-0.721666
-0.635696
-0.552283
-0.474976
-0.406064
-0.343322
-0.291772
-0.275319
-0.236256
-0.193569
-0.144205
-0.112789
-0.126631
-0.147722
-0.171516
-0.195764
-0.22028
-0.246708
-0.282124
-0.321091
-0.352571
-0.378246
-0.399059
-0.415835
-0.429205
-0.439671
-0.447641
-0.453459
-0.457417
-0.459764
-0.460714
-0.460461
-0.459173
-0.457
-0.454073
-0.450516
-0.446446
-0.441973
-0.437197
-0.432223
-0.427161
-0.422119
-0.417224
-0.412636
-0.408568
-0.405351
-0.403636
-0.404734
-0.411084
-0.412203
-0.407787
-0.400552
-0.391522
-0.381225
-0.369992
-0.358065
-0.34564
-0.33289
-0.319969
-0.307021
-0.294174
-0.281544
-0.269235
-0.257333
-0.245911
-0.235021
-0.224703
-0.214976
-0.205842
-0.197291
-0.189296
-0.181821
-0.174821
-0.168248
-0.162052
-0.156188
-0.150611
-0.145283
-0.14017
-0.135244
-0.130478
-0.12585
-0.121336
-0.116917
-0.112574
-0.108289
-0.104047
-0.0998333
-0.0956361
-0.0914519
-0.0872831
-0.0831094
-0.0788626
-0.0745067
-0.0702397
-3.66397
-3.70423
-3.72483
-3.76251
-3.84076
-3.92077
-4.02089
-4.0277
-4.09857
-4.15828
-4.22051
-4.21273
-4.338
-4.39983
-4.56887
-4.73799
-4.77969
-4.90496
-4.97548
-4.79534
-3.40974
-1.86238
-2.58705
-14.1746
-5.21758
-6.07492
-4.32913
37.79
-2.18798
-5.84517
-1.80272
-7.8535
120.426
46.9126
21.1358
25.8411
21.0562
19.9641
16.0878
13.6163
12.1839
10.3843
5.34425
1.48322
1.95585
1.37745
5.45467
3.71777
3.15964
2.96262
3.10868
2.99561
2.71271
7.57336
4.42517
4.5952
5.21649
5.11699
4.83174
8.1195
5.54635
5.66723
5.95163
5.97531
6.20771
9.85819
43.3457
108.375
142.8
36.6785
6.37147
-2.53366
-4.03566
-4.33901
-4.36909
-4.3858
-4.18982
-4.00749
-3.38618
-0.078788
2.05157
0.954399
-0.479038
-2.1558
-3.85112
-4.53548
-4.34933
15.6912
91.1969
189.58
48.8688
-4.04021
-20.2149
-21.0568
-21.159
-21.2012
-20.6851
-17.4567
-8.82329
-15.1572
-18.4879
-19.0415
-18.8763
-15.6865
13.5076
-12.3984
-17.3867
-16.4247
-16.8777
-16.3616
-11.8292
-15.8102
-6.273
-9.07014
23.1983
1.22051
-2.57113
-2.89894
-3.03092
-3.22934
-3.43305
-3.62385
-3.7978
-3.96202
-4.59702
-8.03702
21.4082
-10.1226
-8.06859
-7.66722
-7.72205
-7.85975
-7.94384
-8.02437
-8.1665
-8.71613
3.36968
-6.6634
-6.40787
-5.67269
-5.47844
-5.5971
-5.97217
-6.29621
-5.35531
-8.02805
-7.06236
-9.64719
-9.83011
-11.8282
-9.3983
-7.51868
-7.07289
-7.14815
-7.11427
-6.97386
-6.82965
-6.66298
-6.58538
-6.45155
-6.52472
-7.58632
-5.6229
-7.14464
-5.28479
-5.00174
-6.28579
-5.26616
-5.56417
-4.44317
-3.99695
-3.91834
-3.88638
-3.83471
-3.79778
-3.78432
-3.78106
-3.77538
-3.73208
-3.64102
-3.52894
-3.41387
-3.29809
-3.18284
-3.06901
-2.95661
-2.8454
-2.73573
-2.62131
-2.51185
-2.40368
-2.29237
-2.18177
-2.07171
-1.96126
-1.85209
-1.74415
-1.63667
-1.52962
-1.4233
-1.31774
-1.21289
-1.10872
-1.0053
-0.902706
-0.801416
-0.702728
-0.612234
-0.531641
-0.422848
-0.370173
-0.321231
-0.305556
-0.305895
-0.320519
-0.343956
-0.369
-0.404819
-0.443142
-0.472341
-0.4847
-0.486616
-0.485079
-0.485456
-0.489349
-0.495753
-0.503374
-0.511149
-0.518622
-0.525471
-0.531511
-0.536633
-0.540775
-0.543912
-0.546039
-0.547165
-0.547312
-0.546506
-0.544778
-0.542164
-0.5387
-0.53442
-0.529359
-0.523549
-0.517021
-0.509801
-0.501901
-0.49332
-0.484025
-0.473944
-0.462905
-0.450492
-0.435753
-0.416582
-0.403684
-0.393797
-0.385481
-0.378223
-0.371764
-0.365933
-0.360597
-0.355638
-0.350946
-0.346421
-0.341966
-0.337496
-0.332934
-0.328216
-0.323289
-0.318115
-0.312667
-0.306936
-0.300924
-0.294645
-0.288124
-0.281391
-0.274484
-0.26744
-0.260297
-0.25309
-0.245852
-0.238608
-0.231382
-0.224193
-0.217056
-0.209982
-0.20298
-0.196051
-0.189195
-0.182409
-0.175683
-0.169008
-0.162372
-0.15576
-0.14917
-0.142612
-0.136067
-0.129436
-0.122635
-0.115907
8.8736
8.807
8.6852
8.33663
8.09851
8.39923
8.33599
8.29989
8.29707
7.72759
7.55188
8.3154
6.80951
7.10805
6.44375
6.41953
6.4636
6.39357
6.38509
6.3111
6.1033
6.04728
6.04451
6.13686
6.8928
6.61819
6.59495
6.75274
6.7817
6.74507
7.67085
7.69902
7.07828
6.93991
7.01261
7.48827
8.88419
9.51673
6.35799
5.7706
5.59427
5.54157
5.5387
5.53021
5.60534
5.92628
5.50923
1.83285
1.55104
1.40867
0.60501
0.178281
13.1905
6.95767
5.31227
5.0356
4.88815
4.04258
5.37201
8.77816
3.22277
0.323067
-0.846334
-1.11905
-1.31265
-1.34834
-0.139534
7.08381
43.8474
5.24594
-8.6349
-11.8265
-12.7326
-12.9733
-13.1689
-13.1914
-13.507
-13.1198
-9.82732
27.9903
3.88641
-8.15509
-12.3214
-13.6378
-13.9445
-14.1942
-14.3993
-13.8255
-14.6692
-17.0196
43.4933
3.49463
-14.3132
-16.5072
-15.911
-16.6494
-16.4705
25.1132
5.97032
-2.64934
-4.25405
-3.31325
-4.38247
-6.39616
29.5824
-12.4205
-11.3713
-7.39366
-7.70774
-3.90262
-5.96671
-4.57624
-4.98269
-6.64509
-7.43565
-7.57696
-13.8969
-12.1352
-8.72468
-9.32967
-9.33074
-10.8648
-10.9518
-10.9681
-11.8218
-14.0314
10.7712
4.49383
-10.0353
-8.34087
-8.00373
-7.94283
-7.87035
-7.7251
-7.50643
-6.87278
-2.58465
23.9883
-7.84752
-7.88076
-7.62293
-7.36974
-7.90224
-3.54333
-8.10248
-16.6361
-8.68287
-12.4291
-9.31209
-12.3909
-7.89353
-6.17341
-5.82409
-5.86151
-5.76004
-5.59367
-5.36529
-5.09247
-4.93567
-4.7925
-4.62193
-4.98149
-5.52729
-5.72304
-7.96127
-5.47557
-5.11854
-8.62776
-4.51847
-6.16635
-3.67024
-2.53127
-2.17816
-2.14043
-2.10075
-2.07179
-2.08153
-2.11402
-2.15615
-2.19778
-2.2323
-2.25722
-2.27195
-2.27754
-2.27492
-2.26468
-2.24738
-2.22548
-2.20799
-2.1867
-2.13312
-2.17069
-2.09944
-2.03382
-1.97741
-1.91578
-1.845
-1.77127
-1.69614
-1.61942
-1.54126
-1.46133
-1.38159
-1.30184
-1.22229
-1.14346
-1.07349
-1.02435
-0.9103
-0.928939
-0.871375
-0.847258
-0.839822
-0.838417
-0.843408
-0.85501
-0.871331
-0.890686
-0.911873
-0.932881
-0.951777
-0.967824
-0.981172
-0.992316
-1.00168
-1.00949
-1.01581
-1.02068
-1.02409
-1.026
-1.02642
-1.02537
-1.02288
-1.01899
-1.01375
-1.00724
-0.999536
-0.990718
-0.980875
-0.970098
-0.958477
-0.946103
-0.933072
-0.91948
-0.905422
-0.891003
-0.876361
-0.861631
-0.846976
-0.832651
-0.819031
-0.806777
-0.793994
-0.7823
-0.767653
-0.750951
-0.733103
-0.714486
-0.695334
-0.675824
-0.656112
-0.636335
-0.616618
-0.597076
-0.577811
-0.55891
-0.540451
-0.522493
-0.505085
-0.488258
-0.472031
-0.456407
-0.44138
-0.42693
-0.413032
-0.399655
-0.386763
-0.374321
-0.362292
-0.350642
-0.339338
-0.32835
-0.31765
-0.307212
-0.297015
-0.287039
-0.277265
-0.267679
-0.258264
-0.249004
-0.239886
-0.23089
-0.221995
-0.213179
-0.20443
-0.195752
-0.187123
-0.178423
-0.169539
-0.160734
4.59359
4.55892
4.48644
4.37901
4.7946
4.55111
4.55747
4.58223
4.57072
4.26033
4.32817
5.68534
5.77165
5.56522
5.38745
5.36004
5.37722
5.40454
5.47295
5.72316
6.29648
7.07664
7.38499
5.71873
5.10545
4.90412
4.91437
4.97224
5.06055
5.23425
5.4899
5.77221
6.14929
6.72655
7.29505
7.451
6.22053
5.447
4.90146
4.79351
4.7159
4.64001
4.71508
4.89169
5.19905
5.53668
5.82945
5.81177
5.45816
5.27433
5.64507
5.66627
5.10975
3.48473
1.40818
5.49601
-1.64016
0.152415
0.359099
-1.30403
-4.16902
-4.99558
-5.84708
-6.9607
-4.65213
1.29045
14.3908
12.2611
5.19845
0.0494617
-0.634696
-3.41498
-3.79227
-4.6858
-4.88217
-3.07746
0.117618
2.93372
4.39489
2.35498
-4.76597
-10.0476
-12.8683
-14.1024
-14.0065
-14.2483
-12.2435
-6.40576
38.5111
-3.21045
-8.16158
-9.11843
-8.76142
-8.74063
-9.01862
-9.93404
-2.60735
-4.93595
-9.88974
-9.486
-9.76377
-19.4887
-19.4166
-16.032
-19.89
-25.0965
-27.1471
-24.7676
-25.8707
-25.7461
56.7602
17.7757
6.8992
4.57701
3.88335
3.60998
3.3857
5.68407
7.62669
-4.05256
-12.0474
-14.3679
-14.9434
-15.549
-15.9497
-17.6449
-20
4.20835
-3.02117
-10.8738
-13.8446
-14.557
-14.7686
-14.8493
-14.9763
-15.0099
-13.1364
69.3413
14.4799
4.35093
2.23916
2.06617
-1.93584
-1.80952
3.49977
-4.90597
18.7613
-3.85474
-3.13694
-15.5933
-12.6973
-11.7858
-11.5659
-11.5995
-11.5446
-11.0257
9.8457
-0.220165
-2.37564
-2.51489
-2.40926
-3.55535
9.17008
0.00569361
-2.92843
-0.693123
-0.123227
-2.28422
-4.84751
-5.76112
-6.12077
-3.89309
-2.72119
-2.37046
-2.38817
-2.43352
-2.46411
-2.50488
-2.54664
-2.58203
-2.61008
-2.63123
-2.64592
-2.6551
-2.65908
-2.65777
-2.65114
-2.64097
-2.63661
-2.63997
-2.64424
-2.63293
-2.52534
-2.57223
-2.45434
-2.34847
-2.28888
-2.23213
-2.16683
-2.09856
-2.03026
-1.96238
-1.89537
-1.82975
-1.76509
-1.70245
-1.65975
-1.6451
-1.56489
-1.52151
-1.44311
-1.39982
-1.39903
-1.41032
-1.42394
-1.43678
-1.44731
-1.45563
-1.46011
-1.46382
-1.4699
-1.47669
-1.48164
-1.48352
-1.48248
-1.47895
-1.47335
-1.46599
-1.45685
-1.44575
-1.43269
-1.41783
-1.40134
-1.38334
-1.36397
-1.34332
-1.32151
-1.29871
-1.27505
-1.25062
-1.22553
-1.19984
-1.17357
-1.1467
-1.11913
-1.09061
-1.06312
-1.03601
-1.00916
-0.982423
-0.955612
-0.928263
-0.902703
-0.878456
-0.855284
-0.833051