/*--------------------------------*- C++ -*----------------------------------*\
| =========                 |                                                 |
| \\      /  F ield         | OpenFOAM: The Open Source CFD Toolbox           |
|  \\    /   O peration     | Version:  2.4.0                                 |
|   \\  /    A nd           | Web:      www.OpenFOAM.org                      |
|    \\/     M anipulation  |                                                 |
\*---------------------------------------------------------------------------*/
FoamFile
{
    version     2.0;
    format      ascii;
    class       volScalarField;
    location    "5";
    object      p_rgh;
}
// * * * * * * * * * * * * * * * * * * * * * * * * * * * * * * * * * * * * * //

dimensions      [1 -1 -2 0 0 0 0];

internalField   nonuniform List<scalar> 
8000
(
-49.3788
-48.4289
-47.5762
-46.8964
-46.3255
-45.824
-45.3782
-44.9813
-44.6264
-44.3063
-44.0134
-43.74
-43.4787
-43.2231
-42.9745
-42.7253
-42.4576
-42.1811
-41.9323
-41.6499
-41.3628
-41.0922
-40.8328
-40.6171
-40.4488
-40.3467
-40.2451
-40.0509
-39.8358
-39.5475
-39.2164
-38.8478
-38.4325
-38.001
-37.5417
-37.0545
-36.5937
-36.0546
-35.2478
-34.303
-33.0507
-31.6062
-30.0631
-28.4959
-26.9151
-25.226
-23.1486
-20.3825
-18.7475
-25.6518
-2.64876
-2.09187
-1.42549
-0.818837
-0.295311
0.158129
0.548452
0.876346
1.14305
1.35629
1.52935
1.6846
1.75637
1.81071
1.80398
1.69016
1.48617
1.42724
1.38919
0.996225
0.628038
0.703546
0.856996
0.669735
-0.0855964
-1.26959
-2.6415
-3.8581
-3.77159
-3.81426
-4.69167
-6.22917
-7.5183
-8.08313
-8.76772
-10.3514
-12.6909
-15.9369
-19.2073
-17.5352
-16.4113
-16.5289
-17.1279
-17.8959
-19.2706
-21.5663
-25.1628
-31.9375
-39.2824
-27.5736
-20.9949
-20.9452
-20.9231
-20.8934
-20.8413
-20.7611
-20.6518
-20.4978
-20.2643
-20.0528
-20.3279
-21.3214
-21.6817
-26.1204
-23.9699
-16.7469
-17.387
9.07967
36.4715
-0.475239
86.2746
59.4608
31.8079
48.6589
41.5379
29.8295
41.8947
93.6902
-23.2397
13.8764
18.808
-2.7514
17.9112
-0.36513
48.4139
34.7915
11.1979
7.46606
33.9467
-40.4991
-26.9998
-16.3912
1.99629
60.0902
81.8882
23.3675
0.162511
-6.24713
31.3945
22.5415
0.273105
0.475926
0.722129
0.947351
1.1601
1.42169
1.73012
1.57318
-0.614951
-6.00637
-2.194
-0.700695
3.48197
2.97286
2.70721
5.15027
5.62844
4.04377
10.587
5.4981
3.97549
4.14176
2.72317
7.31689
3.82948
4.26612
3.30179
3.12552
2.86903
5.87372
5.68443
6.62595
5.31319
5.04421
4.14135
4.22238
3.38316
2.8924
2.83853
2.88275
3.22489
3.61504
3.94601
4.06186
4.03897
4.02058
3.69911
3.32689
3.03283
3.04919
-7.07505
-6.81407
-6.55043
-6.30735
-6.07974
-5.84653
-5.57012
-5.2115
-5.18409
-6.53969
-7.5724
-12.4329
-8.40696
-1.70559
3.01671
3.70219
4.05937
4.34595
4.44105
4.3473
4.28101
4.33176
4.54807
4.71702
4.67697
4.54786
4.37839
4.3562
4.32056
4.13016
5.6874
5.73558
2.79943
6.54153
5.79805
6.24792
6.53091
6.41652
6.19146
6.72959
5.70325
5.71049
5.66448
5.68014
5.68509
5.63591
5.55325
5.55105
5.52367
5.31358
12.2621
12.2707
12.3122
12.3741
12.4492
12.5359
12.6355
12.7472
12.8434
12.862
12.8263
12.6399
12.6941
13.8201
14.6383
2.95429
-2.93608
-5.51984
-4.06274
5.03902
4.32943
5.06328
4.97691
5.02978
5.02976
5.06454
5.12474
5.16403
5.18874
5.17976
5.31497
5.32946
5.34309
5.29167
5.27444
5.24029
5.14441
6.48311
6.48682
4.20414
4.37527
4.53087
4.63192
4.67483
4.63875
4.67397
4.66728
4.53921
4.67438
4.43963
10.5198
10.5065
10.4883
10.478
10.4793
10.4913
10.5139
10.5469
10.5901
10.6447
10.7132
10.8051
10.9237
11.0579
11.1822
11.2435
11.2418
11.4191
12.4707
14.8206
14.5936
2.45544
-1.19159
-1.24472
-1.50569
-2.33074
0.953999
2.76638
4.01607
4.3202
4.34906
4.34208
4.35148
4.3871
4.40963
4.3455
4.31378
4.35157
5.09437
5.28724
5.27949
5.36564
8.33498
5.4732
5.38044
5.35944
5.48991
5.24054
5.26297
5.18148
16.2702
16.2939
16.3247
16.3552
16.384
16.4115
16.4382
16.4634
16.4875
16.5103
16.532
16.5513
16.5691
16.5835
16.5953
16.6102
16.6351
16.6842
16.7545
16.8102
16.8773
16.8499
16.827
16.8358
17.0261
17.7721
19.0993
16.6969
9.02502
4.09714
-0.768973
-2.40047
1.22926
3.88258
5.00011
5.15921
5.14354
5.15273
5.1695
5.29134
5.31682
5.08755
6.17744
5.20904
5.03487
4.93254
4.89713
4.86801
4.7404
4.75208
18.1811
18.1873
18.1927
18.199
18.2072
18.2175
18.2299
18.2443
18.2613
18.2796
18.3006
18.3237
18.3489
18.3761
18.4051
18.436
18.4689
18.5031
18.5594
18.589
18.6018
18.6438
18.6953
18.7694
18.8778
19.0163
19.164
19.307
19.3902
19.4304
19.5107
19.9435
20.8471
18.549
12.0054
5.28566
-0.60772
-0.577203
4.18375
6.1199
7.01954
6.82861
5.83176
5.29978
5.45398
5.52072
5.55868
5.57425
5.66774
6.1394
22.2248
22.205
22.1866
22.1737
22.1655
22.1617
22.1617
22.1657
22.1739
22.1857
22.2015
22.2211
22.2446
22.272
22.3032
22.3383
22.3765
22.4191
22.5091
22.4602
22.5159
22.5738
22.6353
22.7006
22.7699
22.8424
22.9173
22.9959
23.0835
23.1886
23.3222
23.4845
23.6719
23.8698
24.0462
24.1949
24.3251
24.4079
23.3778
20.2842
12.8573
5.76379
4.47599
6.52713
7.60815
7.1291
7.04829
7.13937
7.09803
6.8043
24.6463
24.6006
24.5534
24.514
24.4818
24.4556
24.4349
24.4199
24.4101
24.4059
24.4071
24.4138
24.428
24.4458
24.4677
24.4959
24.5272
24.6597
24.6341
24.6907
24.7503
24.818
24.8892
24.9736
25.0561
25.1494
25.2502
25.3583
25.4742
25.5979
25.7298
25.8693
26.016
26.1719
26.3428
26.5335
26.7436
26.9722
27.2129
27.4684
27.7638
28.197
27.5531
24.9498
16.7956
9.11108
5.61181
7.3654
8.85126
8.95408
25.7665
25.7363
25.7036
25.6752
25.651
25.6304
25.6129
25.5986
25.5875
25.5795
25.5747
25.5729
25.5753
25.5798
25.5846
25.5938
25.6029
25.6866
25.6467
25.6736
25.7
25.7324
25.7593
25.7967
25.8306
25.8693
25.9107
25.9548
26.0015
26.0508
26.1026
26.1568
26.2132
26.2718
26.3324
26.395
26.4594
26.5252
26.5925
26.664
26.7404
26.8183
26.89
26.9686
26.9247
26.3638
25.0566
23.2296
20.752
17.9763
27.0023
26.9803
26.9573
26.9369
26.919
26.9028
26.8884
26.8757
26.8647
26.8555
26.8479
26.8421
26.8397
26.8373
26.835
26.8354
26.8356
26.8352
26.856
26.7508
26.7616
26.77
26.7838
26.7893
26.806
26.8042
26.8144
26.8247
26.8349
26.8448
26.8543
26.8632
26.8712
26.8781
26.8836
26.8875
26.8894
26.889
26.8859
26.8795
26.8696
26.8555
26.8364
26.8108
26.7791
26.748
26.7336
26.7392
26.651
25.716
27.4118
27.3933
27.3726
27.3538
27.337
27.3218
27.308
27.2956
27.2847
27.2751
27.267
27.2603
27.2549
27.2523
27.2498
27.25
27.2494
27.2482
27.416
27.3039
27.3115
27.319
27.3277
27.3373
27.3483
27.3609
27.3745
27.3893
27.4054
27.4226
27.441
27.4605
27.481
27.5026
27.5252
27.5487
27.5732
27.5985
27.6246
27.6516
27.6792
27.7076
27.7365
27.766
27.7965
27.8299
27.8602
27.8895
27.9146
27.938
28.2509
28.2326
28.2138
28.1972
28.1824
28.169
28.157
28.1461
28.1366
28.1283
28.1212
28.1153
28.1107
28.1082
28.1067
28.1077
28.1083
28.1094
28.1109
28.1868
28.1311
28.138
28.1462
28.1561
28.1676
28.1804
28.1945
28.21
28.227
28.2456
28.2656
28.2873
28.3107
28.3357
28.3626
28.3913
28.422
28.4548
28.4895
28.5265
28.5659
28.6078
28.6524
28.6997
28.75
28.8034
28.8621
28.9225
28.9868
29.0566
28.1792
28.1702
28.1597
28.15
28.1413
28.1333
28.126
28.1193
28.1132
28.1077
28.1029
28.0987
28.0951
28.0921
28.0897
28.0883
28.0868
28.0879
28.086
28.0865
28.0864
28.0871
28.0888
28.0924
28.0911
28.0946
28.099
28.1038
28.109
28.1146
28.1207
28.1272
28.1342
28.1417
28.1496
28.1579
28.1668
28.1761
28.1858
28.1961
28.2068
28.218
28.2296
28.2417
28.2543
28.2674
28.2807
28.2945
28.314
28.3291
28.6308
28.6289
28.6275
28.6266
28.6259
28.6252
28.6248
28.6244
28.6243
28.6242
28.6244
28.6247
28.6251
28.6257
28.6265
28.6274
28.6286
28.6298
28.6312
28.6328
28.6344
28.6363
28.6383
28.6401
28.6422
28.6451
28.6465
28.6467
28.6496
28.6526
28.6558
28.6591
28.6626
28.6661
28.6698
28.6736
28.6776
28.6817
28.6859
28.6903
28.6949
28.6996
28.7045
28.7096
28.7148
28.7203
28.7259
28.7317
28.7375
28.7429
28.4735
28.481
28.4885
28.495
28.5007
28.5059
28.5106
28.5149
28.5187
28.522
28.5248
28.5272
28.5291
28.5306
28.5317
28.5323
28.5326
28.5324
28.5317
28.5307
28.5293
28.5275
28.5252
28.5226
28.5196
28.5163
28.5125
28.5082
28.504
28.4991
28.4935
28.4879
28.482
28.4757
28.4691
28.4621
28.4547
28.4471
28.4392
28.4309
28.4224
28.4136
28.4046
28.3953
28.3858
28.3762
28.3664
28.3566
28.3468
28.3374
28.9535
28.9668
28.9817
28.9953
29.0074
29.0184
29.0285
29.0376
29.0457
29.0529
29.0592
29.0646
29.0691
29.0727
29.0753
29.077
29.0778
29.0777
29.0766
29.0746
29.0715
29.0675
29.0624
29.0562
29.0489
29.0405
29.0309
29.0201
29.0081
28.9947
28.98
28.9638
28.9462
28.9269
28.9061
28.8835
28.8592
28.833
28.8048
28.7745
28.7421
28.7074
28.6702
28.6304
28.5879
28.5425
28.4948
28.4486
28.4089
28.3713
29.0924
29.1084
29.125
29.1395
29.1525
29.1642
29.1748
29.1844
29.1928
29.2001
29.2064
29.2115
29.2156
29.2186
29.2205
29.2212
29.2209
29.2194
29.2168
29.2129
29.2079
29.2016
29.194
29.1851
29.1748
29.163
29.1498
29.135
29.1186
29.1005
29.0806
29.0588
29.035
29.0091
28.981
28.9506
28.9177
28.8822
28.844
28.8028
28.7586
28.7114
28.6614
28.6095
28.557
28.4996
28.4246
28.3453
28.2336
28.1984
-43.337
-23.4455
-8.3623
-4.14326
-6.40243
-37.198
126.641
116.613
104.971
204.146
-0.508039
-8.62409
-3.33373
-4.36734
-2.09907
-1.80934
72.3671
81.0693
-15.2842
-9.89749
-9.30356
-10.284
-9.4716
-9.99036
-7.93536
-8.39479
3.56437
38.4597
-9.68914
-5.83858
-4.93989
-6.79433
-8.5151
-0.852781
-13.5402
-11.8249
-10.8423
-13.7567
37.7604
26.4466
-6.17637
-1.87202
-1.69289
-2.67047
-5.59789
28.0276
12.0412
-3.08353
-2.92318
-3.23735
-21.3501
-21.4286
-26.3213
-31.3201
-36.9183
-46.1537
-71.8062
-47.0699
-42.7492
-33.9974
-38.0692
-57.6943
-110.306
37.5293
7.47142
65.3744
96.6498
103.511
84.0316
44.3973
-11.2543
-20.6524
-12.7439
102.353
10.2564
36.1133
56.0609
54.2264
43.5498
47.1889
71.0027
71.511
62.985
48.9143
39.861
75.149
-39.5382
-11.1797
7.3484
-1.8666
5.33351
14.3363
40.0309
99.3849
66.2111
57.5403
55.916
39.2105
15.0056
2.25124
48.0145
122.973
-14.5703
-19.6141
-19.7995
-18.9036
-17.7731
-16.8543
-6.92415
248.223
31.047
6.2106
6.5994
4.66577
5.03632
4.70609
10.6859
162.006
1.82627
-8.86403
-9.27605
-9.25328
-9.07013
-3.84943
75.2631
58.3792
16.5663
18.6902
17.3021
18.043
20.7562
16.9312
17.2511
55.4239
164.226
77.2903
25.3999
3.1053
7.11748
10.1543
9.08771
8.96235
8.88693
9.71222
9.8928
22.1181
41.4495
3.58696
-1.70851
-3.26663
3.2471
3.16924
3.03147
2.89411
2.79065
2.47715
2.37882
2.38042
2.74884
3.2798
3.50343
3.4451
2.64869
2.0923
2.1593
2.3069
2.64041
2.90963
2.73663
2.39829
2.21578
2.20734
2.26575
2.44895
2.70946
2.97395
2.76291
2.14904
2.25815
2.33667
2.15114
2.61044
2.60549
3.20885
4.2288
5.93337
7.28205
7.98098
8.06935
8.18508
7.84593
7.97031
8.2354
8.19671
7.9979
8.26477
8.78806
9.01813
9.34541
9.07076
5.25918
5.17053
5.10531
5.03113
4.93448
4.87297
4.76981
4.83699
4.75023
4.82369
4.73686
4.75528
4.69595
4.68105
4.60573
4.48511
4.53368
4.4674
4.47041
4.51436
4.46966
4.38272
4.30174
4.52943
4.12148
4.17272
4.16052
4.10106
4.07958
4.26436
4.09529
4.60648
4.61201
4.44264
4.83285
4.34544
4.48049
4.54922
4.59263
4.64385
4.70948
4.74624
4.79454
4.81681
4.74464
4.76164
4.76128
4.75251
4.74462
4.72594
4.45802
4.44787
4.43267
4.38924
4.30738
4.34428
4.33421
4.36657
4.37759
4.35671
4.32932
4.3031
4.27869
4.25252
4.20926
4.20292
4.21251
4.14387
4.13599
4.08706
4.01295
3.94078
3.98228
3.78623
3.91261
3.50037
3.64359
3.64366
3.67409
3.68302
3.68001
3.67294
3.69111
3.76642
4.07384
3.62386
3.55258
3.53155
3.53352
3.5314
3.52197
3.51903
3.55147
3.67614
3.7812
3.29252
3.31658
3.27688
3.26948
3.40697
5.20993
5.23975
5.21121
5.21933
5.13443
5.0918
5.04628
5.00051
4.96111
4.86616
4.89449
4.79199
4.73904
4.6931
4.61991
4.53564
4.51878
4.34198
4.27861
4.20363
4.12152
4.03712
3.94609
3.85484
3.77047
3.79213
3.59258
3.53495
3.48633
3.42001
3.344
3.28436
3.23789
3.12247
3.09309
3.06144
3.02378
2.97073
2.94665
2.9364
2.91571
2.76081
2.73356
2.71759
2.69642
2.66987
2.63797
2.59783
2.57593
2.56649
4.80091
5.67659
4.85126
4.73119
4.67455
4.63417
4.59381
4.54627
4.49387
4.5384
4.34394
4.30231
4.27139
4.19677
4.14277
4.08206
4.03306
3.98009
3.92638
3.86785
3.80696
3.77038
3.70705
3.64737
3.59335
3.53977
3.48192
3.42815
3.39017
3.35332
3.23484
3.27135
3.15162
3.15453
3.1076
3.05191
3.03427
2.96822
3.0288
3.00332
2.86252
3.10819
2.88792
3.07476
2.77656
2.85766
2.84469
2.86608
2.90938
2.7997
7.10158
7.29508
5.43927
4.8154
4.50959
4.44372
4.45969
4.48118
4.51484
4.62833
4.80512
4.48395
4.44715
4.43546
4.44584
4.57519
4.80226
4.81241
3.8877
3.74171
3.69076
3.69061
3.67433
3.67913
3.67409
3.65531
3.63861
3.59637
3.56782
3.53527
3.47437
3.4699
3.44276
3.33136
3.30716
3.28961
3.26432
3.39472
3.29907
3.30015
3.29976
3.2401
3.43472
3.34472
3.42889
3.43078
3.35501
3.32521
3.31367
3.34883
6.35491
5.96367
5.72794
5.6571
5.69295
5.71716
5.79698
5.98882
6.95319
7.73728
4.23926
3.62924
3.90603
3.45776
3.77592
3.86879
3.56131
3.3298
3.20911
3.25001
3.26406
3.2983
3.64294
4.81626
4.68015
4.31519
4.07061
3.99145
3.98105
3.98436
3.98479
3.98764
3.98896
4.00395
4.00573
3.97872
3.98876
3.99182
3.99793
4.03992
4.04784
4.08689
4.11104
4.11524
4.03167
4.12683
4.11123
4.00644
4.39377
4.43949
7.5838
5.9873
4.98733
8.66112
8.09514
5.90959
7.50282
6.52133
5.59034
4.93699
4.64034
4.52112
4.4418
4.33179
4.22808
4.35942
4.39024
4.47334
4.68278
4.82077
4.92691
4.92801
4.78572
4.67859
4.61352
4.56587
4.56303
4.57977
4.60521
4.62792
4.65058
4.6798
4.71388
4.75923
4.78637
4.82319
4.86338
4.9059
4.94878
4.98905
5.02038
5.08026
5.2126
5.2677
4.91004
4.9634
5.05592
5.23273
5.2648
5.62621
14.3455
10.0357
7.06223
5.78771
5.93964
5.682
5.32475
4.98213
4.77242
4.70135
4.6612
4.6222
4.58492
4.5479
4.5159
4.50053
4.50769
4.50702
4.51637
4.57347
4.52931
5.21419
4.6049
4.90256
4.54144
5.20217
5.07673
4.98695
5.04677
5.14746
5.23571
5.23527
5.11158
4.96697
4.90176
4.9009
4.91423
4.94204
5.04027
5.28962
5.47603
5.5356
5.48416
5.31738
5.18388
5.16113
5.18
5.2064
5.22547
5.49889
25.5438
25.2555
23.4132
19.4105
14.3683
10.2525
7.83282
6.13444
5.21055
4.85903
4.71367
4.66545
4.65243
4.64602
4.67311
4.68086
4.71541
4.68743
4.70239
4.72695
4.76281
4.78529
4.82026
4.88275
5.04592
5.37195
5.42327
4.7444
4.6924
4.75072
4.70654
5.28841
4.95021
4.94335
4.9754
5.02944
5.08892
5.16461
5.35502
6.15091
6.05761
4.87592
4.82732
4.84632
4.89319
4.95007
5.00521
5.05585
5.10405
5.15554
27.9665
28.0078
28.0588
28.0421
27.071
24.7324
21.1015
15.1066
9.7993
6.56857
4.97216
4.48538
4.37443
4.35168
4.34582
4.34526
4.34625
4.34728
4.34769
4.34795
4.34866
4.34797
4.35056
4.36134
4.38721
4.70456
4.5066
4.4331
4.40517
4.4039
4.42572
4.49623
4.73122
4.69468
4.60406
4.54643
4.61498
4.60492
4.65838
5.41665
4.79537
4.72676
4.70543
4.71356
4.73433
4.76031
4.79194
4.83026
4.89287
5.038
29.1318
29.2112
29.291
29.3689
29.4523
29.5398
29.5631
28.443
25.237
18.375
9.79746
4.75329
3.53674
3.42203
3.41185
3.40662
3.40593
3.39417
3.37819
3.3708
3.35961
3.33907
3.32353
3.85164
3.60999
3.50214
3.50142
3.45508
3.3592
3.33078
3.4943
3.42462
3.29521
3.28527
3.19592
4.12498
3.43048
3.94405
3.84107
3.78896
4.33082
4.2114
4.12432
4.1004
4.11534
4.09746
4.07221
4.21863
4.17224
4.18154
28.3443
28.3609
28.3781
28.3968
28.4181
28.4364
28.4346
28.3954
28.2378
27.0513
20.5764
8.33419
4.37434
4.03673
4.01041
4.00784
4.00085
3.99872
3.99017
3.98307
3.97271
3.96546
3.96441
4.1229
4.12764
4.12517
4.13414
4.23297
4.0482
4.50111
3.94418
4.65884
3.74961
4.03297
3.23237
3.35906
3.28657
3.73586
3.776
3.28024
3.42069
2.87299
3.42509
3.22441
3.20787
3.21991
3.07162
3.97336
3.97069
4.56674
28.7571
28.7605
28.7697
28.7822
28.7915
28.763
28.5299
28.016
25.0488
16.7496
6.79063
4.34282
4.16967
4.17234
4.17452
4.11757
4.08718
4.02613
3.96598
3.95436
3.75299
3.84925
3.4788
3.64073
3.39237
3.47023
3.20218
3.44302
3.04689
3.48787
2.46164
2.93071
2.92368
2.9855
3.6991
3.30807
3.24006
3.18492
3.06112
3.11907
3.14236
2.7243
2.68616
2.67339
2.70226
2.74595
3.51603
2.95386
3.9556
3.95251
28.3496
28.3291
28.31
28.2605
28.0122
27.4811
24.7639
19.2797
8.70236
4.20273
4.05458
4.1206
4.16929
4.15347
4.12758
4.05441
3.93332
4.09833
3.97691
4.09839
4.14067
3.7356
3.61516
3.67707
3.64687
3.66665
3.57075
3.66727
3.78136
3.53656
3.41338
3.95012
3.6819
3.77225
3.89323
3.10893
3.59672
2.4941
2.76526
2.33237
2.29823
2.38892
2.42792
2.44104
2.47737
2.5567
2.37078
2.35959
3.00709
2.29498
28.2657
28.0123
27.7809
27.1977
23.64
18.4003
7.85172
2.91917
3.35796
3.49205
3.50939
3.54048
3.52191
3.51014
3.48913
3.42987
3.33547
3.59009
3.20357
3.26935
3.26534
3.08811
3.00964
3.15324
3.1119
2.91357
3.16644
2.73424
2.77963
2.67849
2.5753
3.16656
2.62112
3.12519
2.91742
2.89054
3.22848
2.11082
2.14721
2.09564
2.04452
2.00864
2.49632
2.09227
2.01299
1.97989
1.93944
1.8668
1.84853
2.52347
28.3028
24.9702
20.2316
14.351
3.73259
1.91163
2.69354
2.70398
2.71661
2.71631
2.71837
2.72722
2.71677
2.70983
2.70105
2.68642
2.65445
2.70928
2.7307
2.49061
2.57283
2.55594
2.51725
2.50191
2.48548
2.42114
2.42019
2.41751
2.41418
2.36057
2.33825
2.7794
2.18572
2.19842
2.19487
2.07551
2.06543
2.06656
1.97642
1.96192
1.96746
1.9393
1.90235
1.87356
1.97239
1.95519
1.92155
1.88943
1.86962
1.83623
-3.36354
-3.35518
-3.34857
-3.35065
-3.3608
-3.37124
-3.35261
-3.05268
-3.2993
-3.38762
-3.4508
-3.49593
-3.54361
-3.60049
-3.66396
-3.73282
-3.80774
-3.88848
-3.97133
-4.05388
-4.12789
-4.20152
-4.28291
-4.3755
-4.41292
-4.60599
-4.97573
-9.78606
122.516
14.6582
7.18636
10.6772
7.93329
6.24104
4.93798
6.67509
0.294497
5.13574
-7.17879
109.542
23.3994
3.70878
1.84073
1.39089
1.2343
1.18469
1.06798
0.924774
0.779177
0.643772
0.537757
0.424884
0.343231
3.32751
1.53429
1.26724
1.10183
0.985955
0.88095
0.772899
0.663466
0.550692
0.430721
0.305542
0.181607
0.052662
-0.0825715
-0.188073
-0.368903
-0.960924
-2.28984
-3.10988
-4.7576
-6.80528
-7.32155
-7.45727
-7.69426
-8.05005
-10.6922
53.3877
7.99867
3.76043
10.319
5.65655
-15.2104
177.285
23.6775
14.6641
13.2879
7.56886
1.83947
-2.45288
-3.07897
-3.25233
-3.42362
-3.57833
-3.70617
-3.81377
-3.90487
-3.98673
-4.04831
-4.09284
-4.13627
-4.12002
-3.79478
-3.92804
-4.21578
-4.29953
-4.31745
-4.30794
-4.29025
-4.29372
-4.23136
-3.83226
-1.95882
-3.51152
-3.78196
-3.84975
-3.84342
-3.85514
-3.87193
-3.86162
-3.74808
-3.90633
-3.87422
-3.78171
-3.66151
-3.63952
-3.69229
-3.78253
-3.88632
-4.00767
-4.14367
-4.37505
-4.47395
-5.51381
-9.61995
-0.158465
-3.89053
-2.91501
-1.9925
-1.86531
-1.97665
-2.13183
-2.28638
-2.42217
-1.80945
5.06939
123.197
17.1471
0.867386
-2.48628
-2.8071
-2.87954
-2.95852
-3.04066
-3.10494
-3.15357
-3.15422
-3.47896
-5.05696
-9.78126
18.1655
-1.66583
-2.27177
-1.62667
-0.754597
-0.796259
-1.0424
2.59945
1.8687
0.873176
0.911162
1.01366
-0.217171
0.645751
1.83684
-4.43882
-3.25044
-2.45585
-2.07966
-1.96
-1.83206
-1.6963
-1.58639
-1.4915
-1.4059
-1.32976
-1.26161
-1.19991
-1.14373
-1.09228
-1.04464
-0.999921
-0.957542
-0.917173
-0.878479
-0.84104
-0.804431
-0.768286
-0.732301
-0.696233
-0.659907
-0.62322
-0.586137
-0.548711
-0.511085
-0.473529
-0.436128
-0.399652
-0.363633
-0.332201
-0.351335
-0.416616
0.610908
-0.342979
0.726136
0.559806
0.312726
0.146706
-0.423349
-0.277281
-0.0403979
0.225882
0.280077
0.27565
0.272723
0.266571
0.258194
0.248081
0.236774
0.224687
0.212162
0.199475
0.186852
0.174471
0.162476
0.150975
0.140049
0.12975
0.120111
0.111149
0.102868
0.0952586
0.0883125
0.0820194
0.0763697
0.0713638
0.06702
0.0633761
0.0605219
0.0587039
0.0585311
0.0613449
0.0632064
0.0613498
0.057777
0.0531927
0.0479304
0.0421848
0.0360944
0.0297754
0.023335
0.0168767
0.0105
0.00429967
-0.00163621
-0.00722832
-0.0124079
-0.0171184
-0.021317
-0.0249751
-0.0280792
-0.0306307
-0.032645
-0.0341499
-0.0351836
-0.0357919
-0.036025
-0.0359348
-0.0355723
-0.0349856
-0.0342184
-0.0333092
-0.0322905
-0.0311885
-0.0300235
-0.0288102
-0.0275589
-0.0262765
-0.0249681
-0.0236367
-0.0222843
-0.0209128
-0.019526
-0.0181268
-0.0167065
-0.0152444
-0.0137466
-0.0123067
-0.00484894
-0.0376178
-0.0250677
-0.00136415
0.0435144
0.181662
0.427763
0.6325
-0.175567
-0.306137
-0.355725
-0.348743
-0.346147
-0.348285
-0.35169
-0.372463
-0.386766
-0.398163
-0.406504
-0.386044
-0.210606
-0.174017
-0.128702
-0.383106
-0.43886
2.6368
36.6332
69.8427
71.9681
39.3052
46.8332
-23.9709
9.20495
9.527
61.3956
69.9848
15.4267
14.8381
84.0232
115.345
107.132
74.9397
24.7443
1.41827
-0.611514
-0.564662
-0.909782
0.417063
-0.835885
-1.09482
-1.07271
-1.08712
-1.0417
3.62151
1.85034
1.71012
1.64899
1.7085
1.68071
1.73462
1.73661
1.74262
1.7837
1.75795
1.77653
1.82863
1.85585
0.97486
10.1304
60.7811
129.574
46.9537
4.93201
-9.32135
-10.3917
-10.5279
-10.5192
-10.5159
-10.2618
-7.44203
12.9187
25.2329
6.13469
9.37071
38.7712
53.524
76.4526
95.8701
104.972
93.7099
45.7531
3.69701
-5.35351
-5.8504
-5.90763
-5.89729
-5.95597
-6.04365
-6.12559
-6.21764
-6.30867
-6.13317
-5.25909
-2.67511
-4.47374
-5.40689
-5.56985
-5.21327
-4.04898
0.0681209
-4.10916
-3.55014
-3.25353
-3.19377
7.66813
0.508479
-0.871105
-1.2153
-1.26768
-1.26147
-1.30055
-1.34022
-1.20711
-0.234188
2.82738
4.45032
-3.89325
-4.75569
-5.07737
-5.08377
-5.03992
-5.05154
-5.04513
-4.98373
-5.07849
-4.95804
-5.01936
-4.58817
-4.71868
-4.44561
-4.67049
-4.073
-3.65415
-3.60298
-3.66647
-3.82514
-4.62661
-6.29905
31.1646
-9.96978
-7.25456
-6.43284
-6.24429
-6.18459
-6.08971
-5.99029
-5.90698
-5.84152
-5.79529
-5.79326
-5.65892
-5.66526
-6.82373
-11.5623
-9.10533
-8.38533
-6.01866
-4.1869
-3.68178
-3.68409
-3.75208
-3.83015
-3.72755
-4.03141
-4.20006
-4.09488
-4.10274
-4.14488
-4.18712
-4.1708
-4.06784
-3.91467
-3.72099
-3.52044
-3.32902
-3.14738
-2.97436
-2.80887
-2.6501
-2.49742
-2.35015
-2.20809
-2.07178
-1.94185
-1.81734
-1.69696
-1.58039
-1.46789
-1.35944
-1.25472
-1.15336
-1.05507
-0.959596
-0.866719
-0.776281
-0.688116
-0.602146
-0.518733
-0.441426
-0.372513
-0.309771
-0.258213
-0.241692
-0.202155
-0.159362
-0.110461
-0.0792361
-0.0930811
-0.114172
-0.137966
-0.162214
-0.18673
-0.213158
-0.248574
-0.287541
-0.319021
-0.344696
-0.365508
-0.382284
-0.395655
-0.406121
-0.414091
-0.419909
-0.423867
-0.426214
-0.427164
-0.426911
-0.425623
-0.42345
-0.420523
-0.416965
-0.412896
-0.408422
-0.403647
-0.398673
-0.39361
-0.388569
-0.383673
-0.379085
-0.375017
-0.3718
-0.370086
-0.371184
-0.377534
-0.378653
-0.374237
-0.367002
-0.357972
-0.347675
-0.336442
-0.324515
-0.31209
-0.29934
-0.286419
-0.273471
-0.260623
-0.247994
-0.235685
-0.223783
-0.21236
-0.201471
-0.191153
-0.181425
-0.172292
-0.163741
-0.155746
-0.148271
-0.14127
-0.134697
-0.128502
-0.122638
-0.117061
-0.111733
-0.10662
-0.101694
-0.096928
-0.0922993
-0.0877859
-0.0833669
-0.0790236
-0.0747387
-0.0704968
-0.0662831
-0.0620859
-0.0579017
-0.0537329
-0.0495592
-0.0453124
-0.0409565
-0.0366895
-3.60749
-3.64809
-3.66886
-3.70657
-3.78475
-3.86397
-3.96031
-3.96679
-4.03768
-4.10015
-4.16387
-4.15651
-4.28173
-4.34248
-4.51176
-4.6814
-4.72337
-4.84849
-4.91873
-4.73503
-3.29284
-1.70752
-2.43274
-14.0539
-5.15041
-6.00596
-4.162
38.1791
-1.95923
-5.73653
-1.72583
-7.72853
121.25
47.46
21.3321
25.9303
21.1769
20.107
16.2073
13.7199
12.2975
10.4959
5.43125
1.54572
2.01232
1.43552
5.53341
3.78954
3.22206
3.01975
3.16467
3.05166
2.77349
7.66031
4.49734
4.65436
5.27297
5.17346
4.89632
8.20189
5.61445
5.72525
6.00763
6.03141
6.26569
9.9607
44.3081
109.93
144.37
37.8052
6.66412
-2.44765
-3.97039
-4.2778
-4.31035
-4.32869
-4.13363
-3.95105
-3.32655
0.0085174
2.14775
1.0377
-0.405562
-2.08525
-3.78708
-4.47346
-4.26788
16.5759
94.0422
192.582
51.1863
-3.5007
-20.1361
-21.0006
-21.103
-21.1452
-20.6289
-17.3885
-8.71766
-15.0759
-18.4273
-18.9848
-18.8194
-15.5763
13.7921
-12.239
-17.3139
-16.3669
-16.8181
-16.2368
-11.6661
-15.6507
-6.19327
-8.98565
23.5399
1.45416
-2.46454
-2.83729
-2.97479
-3.17341
-3.37711
-3.56791
-3.74186
-3.90595
-4.53757
-7.85912
21.8372
-9.91429
-7.99292
-7.61081
-7.66612
-7.80382
-7.88792
-7.96843
-8.10955
-8.64192
3.56523
-6.53081
-6.33629
-5.61596
-5.42235
-5.54101
-5.91569
-6.2167
-5.26056
-7.95783
-7.00154
-9.58138
-9.69225
-11.7157
-9.32829
-7.46183
-7.01696
-7.09223
-7.05835
-6.91792
-6.77339
-6.60644
-6.52921
-6.39541
-6.46843
-7.52161
-5.52467
-7.06916
-5.2243
-4.94161
-6.2176
-5.18093
-5.48953
-4.38439
-3.94092
-3.86238
-3.83042
-3.77877
-3.74186
-3.7284
-3.72514
-3.71946
-3.67616
-3.5851
-3.47303
-3.35795
-3.24218
-3.12693
-3.01309
-2.90069
-2.78948
-2.6798
-2.56522
-2.45576
-2.34767
-2.23643
-2.12585
-2.01579
-1.90535
-1.79617
-1.68824
-1.58075
-1.47371
-1.36738
-1.26183
-1.15697
-1.05281
-0.949378
-0.846789
-0.745499
-0.646811
-0.556317
-0.475472
-0.366334
-0.3139
-0.265275
-0.249626
-0.249978
-0.264602
-0.288039
-0.313083
-0.348902
-0.387225
-0.416424
-0.428783
-0.430699
-0.429162
-0.429539
-0.433432
-0.439836
-0.447457
-0.455232
-0.462705
-0.469554
-0.475594
-0.480716
-0.484858
-0.487995
-0.490122
-0.491248
-0.491395
-0.490589
-0.488861
-0.486247
-0.482783
-0.478503
-0.473442
-0.467632
-0.461104
-0.453884
-0.445984
-0.437403
-0.428108
-0.418027
-0.406988
-0.394575
-0.379836
-0.360665
-0.347767
-0.33788
-0.329564
-0.322306
-0.315847
-0.310016
-0.30468
-0.299721
-0.295029
-0.290504
-0.286049
-0.281579
-0.277017
-0.272299
-0.267372
-0.262198
-0.25675
-0.251019
-0.245007
-0.238728
-0.232207
-0.225474
-0.218567
-0.211523
-0.20438
-0.197173
-0.189935
-0.182691
-0.175465
-0.168276
-0.161139
-0.154065
-0.147063
-0.140134
-0.133278
-0.126492
-0.119766
-0.113091
-0.106455
-0.0998429
-0.0932533
-0.086695
-0.0801496
-0.073519
-0.0667181
-0.0599902
8.95331
8.88549
8.7637
8.41612
8.18
8.48363
8.4208
8.37927
8.37609
7.80892
7.63708
8.40573
6.89245
7.18877
6.52763
6.50629
6.55034
6.47981
6.46749
6.39403
6.18858
6.13149
6.12973
6.2244
6.98422
6.70813
6.68104
6.83476
6.86297
6.82928
7.76765
7.79427
7.16692
7.02485
7.09664
7.5723
8.99157
9.62583
6.44957
5.85222
5.67404
5.62134
5.61847
5.60997
5.68669
6.04319
5.62563
1.92921
1.63689
1.49272
0.692624
0.271239
13.3814
7.11494
5.42089
5.1185
4.97113
4.13485
5.53738
8.96685
3.39194
0.4277
-0.765583
-1.04033
-1.23362
-1.26479
-0.048041
7.2817
44.3086
5.50813
-8.52107
-11.744
-12.6507
-12.8913
-13.0848
-13.0989
-13.4075
-13.0116
-9.60389
28.4987
4.28131
-7.97683
-12.2322
-13.5509
-13.8576
-14.1074
-14.3105
-13.72
-14.5482
-16.8796
44.3505
4.09351
-14.0843
-16.411
-15.8292
-16.5614
-16.3662
25.6293
6.35011
-2.46142
-4.15815
-3.23143
-4.29519
-6.07328
30.2485
-12.1089
-11.2573
-7.31186
-7.62202
-3.69382
-5.77234
-4.44522
-4.85302
-6.28533
-6.79428
-6.93526
-13.308
-11.9037
-8.63164
-9.22224
-9.21355
-10.7695
-10.8719
-10.8889
-11.7373
-13.7792
11.5045
5.19896
-9.77903
-8.24918
-7.92513
-7.86453
-7.79206
-7.64679
-7.42771
-6.79037
-2.15215
24.6494
-7.54533
-7.77227
-7.54359
-7.29122
-7.82064
-3.15734
-7.76288
-16.4692
-8.59704
-12.3297
-9.10054
-12.2433
-7.8017
-6.09441
-5.7458
-5.78323
-5.68173
-5.51522
-5.28635
-5.01326
-4.85668
-4.71391
-4.54334
-4.90006
-5.30535
-5.50405
-7.83707
-5.39136
-5.03347
-8.51691
-4.33444
-6.02004
-3.57964
-2.45247
-2.09984
-2.06213
-2.02246
-1.99351
-2.00325
-2.03573
-2.07787
-2.11949
-2.15401
-2.17894
-2.19366
-2.19925
-2.19664
-2.1864
-2.16909
-2.14713
-2.12925
-2.10572
-2.05189
-2.09088
-2.02073
-1.95551
-1.89913
-1.8375
-1.76671
-1.69298
-1.61785
-1.54114
-1.46297
-1.38305
-1.30331
-1.22355
-1.14401
-1.06517
-0.99513
-0.945282
-0.830212
-0.850333
-0.793032
-0.76897
-0.761538
-0.760133
-0.765124
-0.776726
-0.793047
-0.812402
-0.833589
-0.854598
-0.873493
-0.889541
-0.902888
-0.914032
-0.923399
-0.931201
-0.937529
-0.9424
-0.945805
-0.947719
-0.948141
-0.947091
-0.944597
-0.940704
-0.935467
-0.928957
-0.921252
-0.912434
-0.902591
-0.891814
-0.880193
-0.867819
-0.854788
-0.841196
-0.827138
-0.812719
-0.798077
-0.783347
-0.768692
-0.754367
-0.740747
-0.728494
-0.71571
-0.704017
-0.689369
-0.672667
-0.654819
-0.636203
-0.61705
-0.59754
-0.577828
-0.558051
-0.538334
-0.518792
-0.499527
-0.480627
-0.462167
-0.44421
-0.426801
-0.409975
-0.393747
-0.378124
-0.363096
-0.348646
-0.334748
-0.321371
-0.308479
-0.296037
-0.284008
-0.272358
-0.261054
-0.250066
-0.239366
-0.228928
-0.218732
-0.208755
-0.198982
-0.189395
-0.17998
-0.170721
-0.161602
-0.152606
-0.143712
-0.134896
-0.126146
-0.117469
-0.108839
-0.100139
-0.0912547
-0.0824504
4.69471
4.66043
4.59175
4.49611
4.91509
4.67018
4.66156
4.68383
4.6723
4.36414
4.44472
5.81038
5.89666
5.67972
5.48946
5.46144
5.47862
5.50594
5.57456
5.82908
6.41457
7.20951
7.5176
5.84169
5.20903
5.0053
5.0155
5.07336
5.16188
5.33784
5.59655
5.88165
6.26163
6.84736
7.43164
7.58771
6.35193
5.55938
5.00609
4.89648
4.81893
4.74569
4.82658
5.0157
5.34569
5.70334
6.01577
6.01246
5.66203
5.49511
5.89686
5.91773
5.36154
3.73619
1.58887
5.63526
-1.42676
0.395187
0.601698
-1.06125
-3.9936
-4.86837
-5.71863
-6.81354
-4.48134
1.6458
14.8192
12.6917
5.482
0.207823
-0.492793
-3.24763
-3.5959
-4.47407
-4.65247
-2.69449
0.679537
3.57515
5.04853
3.0217
-4.34219
-9.80908
-12.7084
-13.9854
-13.8949
-14.131
-12.0677
-5.83956
39.556
-2.51766
-7.90882
-8.99164
-8.64115
-8.62082
-8.82266
-9.26173
-1.83333
-4.14766
-9.47893
-9.31694
-9.60595
-19.2181
-18.4834
-15.0569
-18.9114
-24.6681
-27.0066
-24.6614
-25.7555
-25.3477
58.2311
18.9117
7.29256
4.73292
4.0394
3.76589
3.76106
6.79557
8.74467
-2.99648
-11.6408
-14.2372
-14.8315
-15.4404
-15.8408
-17.4984
-19.1142
5.43995
-1.7934
-10.1596
-13.6649
-14.4543
-14.6679
-14.7485
-14.8751
-14.9038
-12.5986
71.0134
15.5811
4.65279
2.34924
2.16958
-1.78135
-1.18851
4.19921
-4.31859
18.9513
-3.31962
-2.57872
-15.3078
-12.5653
-11.6833
-11.4652
-11.4988
-11.4436
-10.8996
10.2927
0.086612
-2.22529
-2.41089
-2.3082
-3.4459
9.74543
0.460442
-2.71637
-0.581298
-0.014601
-2.15872
-4.61378
-5.51875
-5.90261
-3.76083
-2.61803
-2.26951
-2.28743
-2.33285
-2.36346
-2.40423
-2.44599
-2.48138
-2.50943
-2.53058
-2.54526
-2.55444
-2.55843
-2.55712
-2.55049
-2.54027
-2.53553
-2.53704
-2.53983
-2.52241
-2.41352
-2.46237
-2.35084
-2.24759
-2.18822
-2.13148
-2.06618
-1.9979
-1.92961
-1.86173
-1.79472
-1.7291
-1.66444
-1.6018
-1.55891
-1.54278
-1.46142
-1.41842
-1.34205
-1.29914
-1.29836
-1.30965
-1.32328
-1.33613
-1.34666
-1.35498
-1.35946
-1.36317
-1.36925
-1.37604
-1.38099
-1.38287
-1.38183
-1.3783
-1.3727
-1.36534
-1.3562
-1.3451
-1.33204
-1.31718
-1.30069
-1.28269
-1.26332
-1.24267
-1.22086
-1.19806
-1.17439
-1.14997
-1.12488
-1.09919
-1.07292
-1.04605
-1.01847
-0.989964
-0.96247
-0.935361
-0.908505
-0.881773
-0.854961
-0.827612
-0.802053
-0.777806