/*--------------------------------*- C++ -*----------------------------------*\
| =========                 |                                                 |
| \\      /  F ield         | OpenFOAM: The Open Source CFD Toolbox           |
|  \\    /   O peration     | Version:  2.4.0                                 |
|   \\  /    A nd           | Web:      www.OpenFOAM.org                      |
|    \\/     M anipulation  |                                                 |
\*---------------------------------------------------------------------------*/
FoamFile
{
    version     2.0;
    format      ascii;
    class       surfaceScalarField;
    location    "5";
    object      phi;
}
// * * * * * * * * * * * * * * * * * * * * * * * * * * * * * * * * * * * * * //

dimensions      [0 3 -1 0 0 0 0];

internalField   nonuniform List<scalar> 
15580
(
1.25151e-11
5.87452e-12
4.1368e-11
1.97601e-11
8.25438e-11
3.39983e-11
1.3441e-10
4.77879e-11
1.95568e-10
6.11686e-11
2.64834e-10
7.41361e-11
3.41215e-10
8.66798e-11
4.23881e-10
9.87892e-11
5.12144e-10
1.1046e-10
6.05436e-10
1.21694e-10
7.03301e-10
1.32488e-10
8.05383e-10
1.42838e-10
9.11416e-10
1.5274e-10
1.02127e-09
1.62141e-10
1.13482e-09
1.71124e-10
1.25195e-09
1.79743e-10
1.37282e-09
1.87788e-10
1.49787e-09
1.95052e-10
1.62651e-09
2.02658e-10
1.75909e-09
2.09728e-10
1.89534e-09
2.16975e-10
2.03515e-09
2.24272e-10
2.17856e-09
2.31565e-10
2.32442e-09
2.40148e-10
2.47155e-09
2.50094e-10
2.61833e-09
2.61852e-10
2.76397e-09
2.74529e-10
2.91009e-09
2.85655e-10
3.05692e-09
2.96582e-10
3.20571e-09
3.0633e-10
3.35577e-09
3.1691e-10
3.50635e-09
3.28377e-10
3.65773e-09
3.39698e-10
3.80995e-09
3.51092e-10
3.96252e-09
3.63118e-10
4.1144e-09
3.76336e-10
4.26355e-09
3.91713e-10
4.40919e-09
4.07818e-10
4.55554e-09
4.19512e-10
4.70366e-09
4.29916e-10
4.85814e-09
4.35619e-10
5.01957e-09
4.40848e-10
5.18815e-09
4.46216e-10
5.36305e-09
4.52957e-10
5.54264e-09
4.62049e-10
5.7257e-09
4.73127e-10
5.91104e-09
4.86108e-10
6.0993e-09
4.99025e-10
6.2974e-09
5.05581e-10
5.09409e-10
6.50927e-09
3.9603e-12
1.91421e-12
1.84655e-11
5.25488e-12
4.35403e-11
8.92345e-12
7.8055e-11
1.32733e-11
1.21e-10
1.82235e-11
1.71454e-10
2.36824e-11
2.28565e-10
2.95686e-11
2.91549e-10
3.58049e-11
3.59698e-10
4.23112e-11
4.32515e-10
4.88776e-11
5.09592e-10
5.54112e-11
5.91759e-10
6.06714e-11
6.78285e-10
6.62138e-11
7.69859e-10
7.05649e-11
8.66251e-10
7.4731e-11
9.6723e-10
7.87642e-11
1.07112e-09
8.39012e-11
1.18099e-09
8.51881e-11
1.29987e-09
8.37809e-11
1.42167e-09
8.79336e-11
1.54585e-09
9.27993e-11
1.68014e-09
8.99844e-11
1.82707e-09
8.46307e-11
1.98425e-09
8.2956e-11
2.14438e-09
8.99671e-11
2.30302e-09
1.03201e-10
2.45971e-09
1.17841e-10
2.61027e-09
1.351e-10
2.77934e-09
1.27509e-10
2.96403e-09
1.21643e-10
3.15628e-09
1.2467e-10
3.34766e-09
1.36989e-10
3.54075e-09
1.46604e-10
3.7476e-09
1.4424e-10
3.96753e-09
1.43181e-10
4.18734e-09
1.56535e-10
4.40201e-09
1.77053e-10
4.60722e-09
2.02621e-10
4.77649e-09
2.50242e-10
4.99849e-09
2.07914e-10
5.24449e-09
1.89589e-10
5.50888e-09
1.76422e-10
5.79056e-09
1.64547e-10
6.09002e-09
1.53575e-10
6.39754e-09
1.54577e-10
6.69884e-09
1.71767e-10
6.99242e-09
1.92423e-10
7.26905e-09
2.22294e-10
7.41294e-09
3.61698e-10
1.49296e-10
7.77326e-09
1.09269e-12
8.21523e-13
2.60768e-12
3.73988e-12
4.16026e-12
7.37087e-12
5.99381e-12
1.14398e-11
8.25055e-12
1.59667e-11
1.09409e-11
2.09921e-11
1.39589e-11
2.65506e-11
1.70656e-11
3.26982e-11
1.99316e-11
3.94452e-11
2.32742e-11
4.55368e-11
2.26538e-11
5.39508e-11
-3.70181e-13
6.89836e-11
-1.47284e-11
5.33393e-11
-9.16332e-11
6.50855e-11
-1.50474e-10
7.10193e-11
-2.07526e-10
7.37539e-11
-2.72808e-10
8.71574e-11
-3.77753e-10
1.30942e-10
-3.91885e-10
4.29695e-11
-4.55293e-10
9.72567e-11
-5.84155e-10
1.68373e-10
-6.91758e-10
1.48883e-10
-7.39082e-10
8.87166e-11
-7.04336e-10
8.41433e-12
-7.13842e-10
5.90905e-11
-7.33551e-10
7.96711e-11
-8.18499e-10
1.56791e-10
-9.47287e-10
2.14782e-10
-9.36873e-10
7.34277e-11
-8.42597e-10
-1.16158e-11
-6.97031e-10
-5.81767e-11
-5.90897e-10
-7.28492e-12
-6.05444e-10
1.23107e-10
-5.16888e-10
2.06661e-11
-4.6867e-11
-3.59275e-10
3.00658e-10
-2.24054e-10
5.89969e-10
-1.47128e-10
7.94063e-10
-3.85428e-11
8.50768e-10
1.512e-10
1.1335e-09
-1.07895e-10
1.47941e-09
-1.8445e-10
1.82611e-09
-1.94615e-10
2.16654e-09
-1.97044e-10
2.93457e-09
-6.32883e-10
3.97649e-09
-9.04688e-10
4.37699e-09
-2.4667e-10
4.77769e-09
-2.26972e-10
5.15899e-09
-1.79128e-10
5.307e-09
1.84217e-10
1.50132e-10
5.29402e-09
1.31326e-12
-4.91746e-13
6.53116e-12
-1.47801e-12
1.5902e-11
-1.99996e-12
2.91964e-11
-1.85461e-12
4.62108e-11
-1.04772e-12
6.67574e-11
4.45528e-13
9.05897e-11
2.71835e-12
1.17643e-10
5.6449e-12
1.47853e-10
9.2331e-12
5.41686e-11
1.9171e-11
8.0591e-11
1.51909e-11
1.32295e-10
9.7627e-12
1.59302e-10
2.3723e-11
1.90106e-10
3.42817e-11
2.04605e-10
5.65204e-11
2.03415e-10
7.49434e-11
2.5157e-10
3.90025e-11
2.89993e-10
9.25189e-11
7.77983e-11
2.55164e-10
4.85203e-12
1.70203e-10
9.86531e-11
7.45715e-11
1.4569e-10
1.01846e-10
8.97542e-11
1.44652e-10
-2.5707e-10
3.55239e-10
-4.09049e-10
2.11069e-10
-3.70933e-10
4.15558e-11
-3.26168e-10
1.12026e-10
-2.34026e-10
1.22639e-10
-2.58393e-10
9.77955e-11
-2.99734e-10
2.97245e-11
-3.34574e-10
-2.33361e-11
-3.74481e-10
3.26218e-11
-1.85864e-10
-6.55095e-11
-3.01338e-11
-1.35064e-10
-1.67328e-10
-2.22081e-10
-8.87678e-11
-3.02614e-10
4.77672e-11
-2.83662e-10
3.4034e-10
-3.31116e-10
9.2491e-10
-4.33369e-10
1.2595e-09
-4.42482e-10
1.57899e-09
-5.03939e-10
2.01851e-09
-6.34134e-10
2.67607e-09
-8.54606e-10
2.93273e-09
-8.89549e-10
2.9514e-09
-9.23351e-10
3.82462e-09
-1.1199e-09
4.84882e-09
-1.25117e-09
5.97584e-09
-1.30615e-09
7.51467e-09
-1.35461e-09
-1.25742e-09
8.92222e-09
2.92989e-12
-3.42164e-12
1.03069e-11
-8.85503e-12
2.16434e-11
-1.33364e-11
3.69111e-11
-1.71224e-11
5.61206e-11
-2.02572e-11
7.9333e-11
-2.27669e-11
1.06729e-10
-2.46771e-11
1.38373e-10
-2.59999e-11
1.74369e-10
-2.67625e-11
1.89801e-10
-2.85357e-11
2.04928e-10
-2.98102e-11
1.69135e-10
-3.22885e-11
2.17574e-10
-3.54938e-11
2.73648e-10
-2.57308e-11
3.26984e-10
3.08081e-12
4.11194e-10
-9.26722e-12
4.50103e-10
9.34831e-14
5.30101e-10
1.25216e-11
6.74253e-10
1.11012e-10
7.97933e-10
4.65235e-11
8.4623e-10
2.62742e-11
9.06658e-10
4.14174e-11
9.28384e-10
1.22927e-10
1.07995e-09
2.03677e-10
1.10014e-09
1.90878e-10
1.00516e-09
1.36527e-10
1.05471e-09
6.2483e-11
1.2493e-09
-7.19539e-11
1.42055e-09
-7.34541e-11
1.43983e-09
1.04413e-11
1.45881e-09
-4.23125e-11
1.37511e-09
1.16319e-10
1.26315e-09
4.64504e-11
1.11661e-09
1.14774e-11
7.81404e-10
1.13126e-10
3.40843e-10
1.37946e-10
-2.67206e-11
8.3901e-11
-3.65568e-10
7.7308e-12
-7.77175e-10
-2.1762e-11
-1.16083e-09
-5.88294e-11
-1.56406e-09
-1.00709e-10
-1.9799e-09
-2.18289e-10
-2.53572e-09
-2.98788e-10
-3.07706e-09
-3.48208e-10
-3.60409e-09
-3.96325e-10
-4.2168e-09
-5.07183e-10
-4.76951e-09
-6.98466e-10
-5.29304e-09
-7.82609e-10
-5.84518e-09
-8.02468e-10
-7.52646e-10
-6.34996e-09
-5.15111e-13
-2.90653e-12
-8.32317e-13
-8.53783e-12
-4.15189e-13
-1.37536e-11
9.41667e-13
-1.84792e-11
3.43318e-12
-2.27487e-11
7.24617e-12
-2.65799e-11
1.25579e-11
-2.99889e-11
1.95492e-11
-3.29912e-11
2.83934e-11
-3.56067e-11
3.7692e-11
-3.78343e-11
4.75698e-11
-3.9688e-11
5.62651e-11
-4.09968e-11
6.23371e-11
-4.1592e-11
7.77388e-11
-4.16002e-11
1.15995e-10
-4.13916e-11
9.96862e-11
-4.14379e-11
1.24734e-10
-4.135e-11
1.65946e-10
-4.00296e-11
3.07345e-10
-3.63264e-11
3.44886e-10
8.89294e-12
3.90332e-10
-1.96002e-11
3.94639e-10
3.71107e-11
5.06246e-10
1.13197e-11
6.56333e-10
5.35902e-11
6.9217e-10
1.55042e-10
6.03951e-10
2.24747e-10
6.294e-10
3.70333e-11
6.81561e-10
-1.24115e-10
7.21628e-10
-1.1352e-10
6.88829e-10
4.32403e-11
5.17786e-10
1.2873e-10
4.39857e-10
1.94248e-10
2.66842e-10
2.19465e-10
1.13596e-10
1.64724e-10
4.4968e-11
1.81754e-10
-4.55501e-11
2.28465e-10
-2.19897e-10
2.58248e-10
-4.82814e-10
2.70648e-10
-7.70991e-10
2.66415e-10
-1.19835e-09
3.6853e-10
-1.76655e-09
4.67495e-10
-2.51555e-09
5.30708e-10
-3.4191e-09
6.04762e-10
-4.37954e-09
6.12235e-10
-5.36595e-09
5.90077e-10
-6.48263e-09
6.095e-10
-7.95682e-09
7.75722e-10
-9.67179e-09
9.32361e-10
-1.14777e-08
1.00339e-09
1.02649e-09
-1.32568e-08
-8.48452e-15
-2.89805e-12
-3.12967e-13
-8.23335e-12
-8.65655e-13
-1.32009e-11
-1.48825e-12
-1.78566e-11
-2.0306e-12
-2.22064e-11
-2.35969e-12
-2.62508e-11
-2.35712e-12
-2.99915e-11
-1.91737e-12
-3.3431e-11
-9.50352e-13
-3.65737e-11
6.40458e-13
-3.94251e-11
2.9444e-12
-4.19919e-11
6.22493e-12
-4.42773e-11
1.09216e-11
-4.62886e-11
1.73691e-11
-4.80477e-11
2.55612e-11
-4.95837e-11
3.49379e-11
-5.08151e-11
4.52429e-11
-5.16557e-11
5.70449e-11
-5.1831e-11
7.17899e-11
-5.10663e-11
1.22873e-10
-5.06848e-11
1.529e-10
-4.95508e-11
2.12458e-10
-5.01903e-11
2.60109e-10
-4.9781e-11
3.52452e-10
-4.85879e-11
5.47336e-10
-4.60189e-11
8.09411e-10
-4.02087e-11
8.6207e-10
-1.60147e-11
7.47045e-10
-9.08999e-12
6.28675e-10
4.84995e-12
6.37678e-10
3.42374e-11
6.64048e-10
1.0236e-10
7.10156e-10
1.4814e-10
8.70448e-10
5.91737e-11
1.07643e-09
-4.12546e-11
1.31374e-09
-5.55569e-11
1.53681e-09
5.3913e-12
1.73829e-09
5.67663e-11
1.91624e-09
9.26994e-11
2.0545e-09
1.28151e-10
2.20987e-09
2.13165e-10
2.29029e-09
3.87077e-10
2.34033e-09
4.80669e-10
2.41701e-09
5.28076e-10
2.47946e-09
5.4979e-10
2.47321e-09
5.9632e-10
2.34089e-09
7.4182e-10
1.92104e-09
1.19558e-09
1.18526e-09
1.66814e-09
3.04492e-10
1.88416e-09
2.03837e-09
-7.07391e-10
1.34168e-13
-3.03222e-12
7.2671e-13
-8.82589e-12
1.83367e-12
-1.43078e-11
3.44493e-12
-1.94679e-11
5.55513e-12
-2.43166e-11
8.16415e-12
-2.88598e-11
1.12754e-11
-3.31027e-11
1.48946e-11
-3.70502e-11
1.9028e-11
-4.07071e-11
2.36815e-11
-4.40785e-11
2.88591e-11
-4.71695e-11
3.45668e-11
-4.99851e-11
4.08084e-11
-5.25302e-11
4.75706e-11
-5.48099e-11
5.48165e-11
-5.68297e-11
6.2595e-11
-5.85935e-11
7.10428e-11
-6.01035e-11
8.05763e-11
-6.13645e-11
9.19059e-11
-6.2396e-11
1.04456e-10
-6.32353e-11
1.18831e-10
-6.39257e-11
1.32954e-10
-6.43311e-11
1.47552e-10
-6.43791e-11
1.62812e-10
-6.38511e-11
1.79364e-10
-6.25744e-11
1.99609e-10
-6.05016e-11
2.41617e-10
-5.82344e-11
2.64869e-10
-5.57841e-11
3.17059e-10
-5.41104e-11
3.99181e-10
-5.24832e-11
5.49538e-10
-5.06413e-11
7.42179e-10
-4.55432e-11
8.31626e-10
-3.03791e-11
8.06416e-10
-1.60442e-11
7.61854e-10
-1.0995e-11
7.4098e-10
2.62647e-11
7.23218e-10
7.45282e-11
7.38221e-10
7.7697e-11
8.48709e-10
1.76623e-11
1.07641e-09
-1.45326e-11
1.33051e-09
1.32969e-10
1.61246e-09
1.98728e-10
1.90903e-09
2.31499e-10
2.21251e-09
2.46317e-10
2.58011e-09
2.2872e-10
3.0368e-09
2.85124e-10
3.59922e-09
6.33158e-10
4.07682e-09
1.19054e-09
4.41441e-09
1.54657e-09
1.72185e-09
4.73093e-09
9.42161e-14
-3.12644e-12
2.76877e-13
-9.00855e-12
5.33684e-13
-1.45646e-11
8.89545e-13
-1.98237e-11
1.36876e-12
-2.47958e-11
1.99677e-12
-2.94878e-11
2.79972e-12
-3.39057e-11
3.80425e-12
-3.80547e-11
5.03695e-12
-4.19398e-11
6.5241e-12
-4.55657e-11
8.29124e-12
-4.89366e-11
1.03629e-11
-5.20567e-11
1.27622e-11
-5.49295e-11
1.55103e-11
-5.7558e-11
1.86256e-11
-5.99449e-11
2.21243e-11
-6.20923e-11
2.60225e-11
-6.40017e-11
3.03333e-11
-6.56752e-11
3.50473e-11
-6.711e-11
4.01388e-11
-6.83268e-11
4.55283e-11
-6.93152e-11
5.12667e-11
-7.00695e-11
5.74759e-11
-7.05883e-11
6.4494e-11
-7.08691e-11
7.28343e-11
-7.09147e-11
8.30715e-11
-7.07389e-11
9.52059e-11
-7.03687e-11
1.09239e-10
-6.98175e-11
1.24147e-10
-6.90184e-11
1.39515e-10
-6.78512e-11
1.54932e-10
-6.60634e-11
1.73858e-10
-6.36374e-11
1.99643e-10
-6.07211e-11
2.35483e-10
-5.76236e-11
2.76789e-10
-5.48307e-11
3.53615e-10
-5.20295e-11
4.75416e-10
-4.7882e-11
5.94385e-10
-4.12737e-11
6.40476e-10
-2.84288e-11
6.56994e-10
-3.10507e-11
7.8385e-10
6.11298e-12
9.16546e-10
6.60335e-11
1.09072e-09
5.73255e-11
1.36003e-09
-2.29957e-11
1.6752e-09
-8.64497e-11
2.04563e-09
-8.53053e-11
2.63669e-09
4.21018e-11
3.53729e-09
2.89937e-10
4.57318e-09
5.10682e-10
5.96932e-10
5.6981e-09
-2.40554e-13
-2.88588e-12
-8.50378e-13
-8.39872e-12
-1.7595e-12
-1.36555e-11
-2.92179e-12
-1.86615e-11
-4.29544e-12
-2.34221e-11
-5.84074e-12
-2.79425e-11
-7.51938e-12
-3.22271e-11
-9.29409e-12
-3.628e-11
-1.11287e-11
-4.01051e-11
-1.29883e-11
-4.37061e-11
-1.48387e-11
-4.70863e-11
-1.66466e-11
-5.02488e-11
-1.83797e-11
-5.31965e-11
-2.00057e-11
-5.5932e-11
-2.14933e-11
-5.84573e-11
-2.28108e-11
-6.07747e-11
-2.39265e-11
-6.28861e-11
-2.4809e-11
-6.47927e-11
-2.54191e-11
-6.65e-11
-2.57362e-11
-6.80096e-11
-2.5738e-11
-6.93134e-11
-2.53946e-11
-7.04129e-11
-2.4675e-11
-7.13079e-11
-2.35465e-11
-7.19977e-11
-2.1979e-11
-7.24822e-11
-1.99562e-11
-7.27617e-11
-1.74886e-11
-7.28363e-11
-1.45995e-11
-7.27066e-11
-1.12478e-11
-7.23701e-11
-7.2751e-12
-7.18239e-11
-2.27409e-12
-7.10644e-11
4.18396e-12
-7.00954e-11
1.23945e-11
-6.89316e-11
2.23515e-11
-6.75807e-11
3.34852e-11
-6.59644e-11
4.54223e-11
-6.39664e-11
5.89787e-11
-6.15586e-11
6.84647e-11
-5.87198e-11
9.41879e-11
-5.56749e-11
1.14532e-10
-5.2351e-11
1.69111e-10
-4.89353e-11
2.80102e-10
-4.50229e-11
3.72957e-10
-3.55297e-11
3.91398e-10
-4.14369e-11
3.39528e-10
-3.45799e-11
2.78497e-10
-2.4274e-11
3.44536e-10
-2.39373e-11
6.67828e-10
-3.33557e-11
1.21216e-09
-3.36531e-11
-1.25953e-11
1.82169e-09
-4.73935e-13
-2.41195e-12
-1.77478e-12
-7.09788e-12
-3.80134e-12
-1.1629e-11
-6.468e-12
-1.59948e-11
-9.69805e-12
-2.01921e-11
-1.34217e-11
-2.42188e-11
-1.75748e-11
-2.8074e-11
-2.20979e-11
-3.17568e-11
-2.69359e-11
-3.52672e-11
-3.20369e-11
-3.8605e-11
-3.73527e-11
-4.17705e-11
-4.28374e-11
-4.47641e-11
-4.84477e-11
-4.75861e-11
-5.41424e-11
-5.02373e-11
-5.98814e-11
-5.27183e-11
-6.56261e-11
-5.503e-11
-7.13384e-11
-5.71738e-11
-7.69804e-11
-5.91507e-11
-8.25159e-11
-6.09644e-11
-8.79113e-11
-6.26143e-11
-9.31226e-11
-6.41021e-11
-9.81062e-11
-6.54293e-11
-1.02817e-10
-6.65974e-11
-1.07206e-10
-6.76088e-11
-1.11222e-10
-6.84661e-11
-1.14812e-10
-6.91714e-11
-1.17921e-10
-6.97275e-11
-1.2049e-10
-7.01373e-11
-1.22456e-10
-7.04041e-11
-1.23749e-10
-7.05316e-11
-1.24289e-10
-7.05242e-11
-1.23997e-10
-7.03874e-11
-1.22801e-10
-7.01279e-11
-1.20628e-10
-6.97536e-11
-1.1732e-10
-6.92724e-11
-1.12593e-10
-6.86928e-11
-1.06126e-10
-6.80257e-11
-9.75584e-11
-6.72875e-11
-8.67294e-11
-6.6504e-11
-7.3429e-11
-6.56514e-11
-5.76653e-11
-6.47182e-11
-3.89041e-11
-6.36761e-11
-1.3114e-11
-6.30908e-11
6.88634e-12
-6.22389e-11
3.39217e-11
-6.20382e-11
7.20301e-11
-6.23837e-11
1.11609e-10
-6.35164e-11
1.44386e-10
-6.61323e-11
1.7564e-10
-6.49068e-11
-5.74188e-11
2.20463e-10
-2.88136e-13
-2.12381e-12
-1.13392e-12
-6.2521e-12
-2.49815e-12
-1.02647e-11
-4.33244e-12
-1.41605e-11
-6.59018e-12
-1.79343e-11
-9.22634e-12
-2.15827e-11
-1.21971e-11
-2.51032e-11
-1.546e-11
-2.8494e-11
-1.89735e-11
-3.17537e-11
-2.26975e-11
-3.48811e-11
-2.65928e-11
-3.78752e-11
-3.06216e-11
-4.07353e-11
-3.47467e-11
-4.3461e-11
-3.89319e-11
-4.6052e-11
-4.31424e-11
-4.85079e-11
-4.73435e-11
-5.0829e-11
-5.15015e-11
-5.30158e-11
-5.55838e-11
-5.50684e-11
-5.95596e-11
-5.69886e-11
-6.33995e-11
-5.87744e-11
-6.70692e-11
-6.04324e-11
-7.05361e-11
-6.19623e-11
-7.37682e-11
-6.33654e-11
-7.67332e-11
-6.46437e-11
-7.9399e-11
-6.58004e-11
-8.17325e-11
-6.68379e-11
-8.37007e-11
-6.77592e-11
-8.52705e-11
-6.85675e-11
-8.64084e-11
-6.92662e-11
-8.70808e-11
-6.98592e-11
-8.72541e-11
-7.03509e-11
-8.68954e-11
-7.07461e-11
-8.59734e-11
-7.10499e-11
-8.44589e-11
-7.1268e-11
-8.23245e-11
-7.14068e-11
-7.95442e-11
-7.14731e-11
-7.60952e-11
-7.14747e-11
-7.19624e-11
-7.14203e-11
-6.71465e-11
-7.13199e-11
-6.1614e-11
-7.11839e-11
-5.53084e-11
-7.10238e-11
-4.813e-11
-7.08545e-11
-4.05295e-11
-7.06915e-11
-3.22187e-11
-7.05499e-11
-2.38241e-11
-7.04399e-11
-2.02743e-11
-7.03093e-11
-1.49559e-11
-7.00691e-11
-1.26273e-11
-6.92629e-11
-9.62679e-12
-6.83178e-11
-6.81525e-11
1.10519e-12
-2.24108e-13
-1.8997e-12
-8.38685e-13
-5.63752e-12
-1.8057e-12
-9.29772e-12
-3.0968e-12
-1.28694e-11
-4.68339e-12
-1.63478e-11
-6.53648e-12
-1.97296e-11
-8.62655e-12
-2.30131e-11
-1.09235e-11
-2.6197e-11
-1.3397e-11
-2.92802e-11
-1.60163e-11
-3.22618e-11
-1.87506e-11
-3.51409e-11
-2.15688e-11
-3.7917e-11
-2.44402e-11
-4.05897e-11
-2.73338e-11
-4.31585e-11
-3.02182e-11
-4.56234e-11
-3.30629e-11
-4.79843e-11
-3.5837e-11
-5.02416e-11
-3.8509e-11
-5.23964e-11
-4.10447e-11
-5.44529e-11
-4.34229e-11
-5.63963e-11
-4.56228e-11
-5.82324e-11
-4.7622e-11
-5.99631e-11
-4.93962e-11
-6.15912e-11
-5.09238e-11
-6.3116e-11
-5.21833e-11
-6.45409e-11
-5.31534e-11
-6.58678e-11
-5.38156e-11
-6.7097e-11
-5.41526e-11
-6.82304e-11
-5.41493e-11
-6.92695e-11
-5.37927e-11
-7.02158e-11
-5.30726e-11
-7.10711e-11
-5.19818e-11
-7.18368e-11
-5.05171e-11
-7.25146e-11
-4.86793e-11
-7.31058e-11
-4.64742e-11
-7.36119e-11
-4.39133e-11
-7.4034e-11
-4.10149e-11
-7.43731e-11
-3.78054e-11
-7.46298e-11
-3.43206e-11
-7.48047e-11
-3.06067e-11
-7.48978e-11
-2.67218e-11
-7.49087e-11
-2.27398e-11
-7.48365e-11
-1.87516e-11
-7.46798e-11
-1.48648e-11
-7.44366e-11
-1.12027e-11
-7.41019e-11
-7.84704e-12
-7.3665e-11
-4.80741e-12
-7.31099e-11
-1.58227e-12
-7.24886e-11
1.95336e-12
-7.18535e-11
-7.11618e-11
5.67811e-13
-1.63417e-13
-1.73629e-12
-6.64874e-13
-5.13607e-12
-1.49264e-12
-8.46995e-12
-2.62394e-12
-1.17381e-11
-4.03625e-12
-1.49354e-11
-5.70727e-12
-1.80586e-11
-7.61471e-12
-2.11057e-11
-9.73636e-12
-2.40754e-11
-1.20501e-11
-2.69664e-11
-1.45342e-11
-2.97777e-11
-1.71671e-11
-3.2508e-11
-1.99275e-11
-3.51566e-11
-2.27946e-11
-3.77226e-11
-2.57476e-11
-4.02055e-11
-2.87669e-11
-4.26041e-11
-3.18325e-11
-4.49187e-11
-3.49248e-11
-4.71493e-11
-3.80257e-11
-4.92955e-11
-4.11218e-11
-5.13567e-11
-4.41897e-11
-5.33285e-11
-4.72138e-11
-5.52082e-11
-5.01724e-11
-5.70045e-11
-5.30475e-11
-5.87161e-11
-5.58194e-11
-6.03442e-11
-5.8471e-11
-6.18893e-11
-6.09865e-11
-6.33523e-11
-6.33493e-11
-6.47342e-11
-6.55437e-11
-6.6036e-11
-6.75546e-11
-6.72586e-11
-6.93674e-11
-6.8403e-11
-7.09683e-11
-6.94702e-11
-7.23438e-11
-7.04614e-11
-7.3481e-11
-7.13774e-11
-7.43677e-11
-7.22192e-11
-7.49919e-11
-7.29877e-11
-7.53421e-11
-7.36837e-11
-7.54072e-11
-7.43079e-11
-7.51762e-11
-7.48609e-11
-7.46381e-11
-7.53428e-11
-7.37819e-11
-7.5754e-11
-7.25961e-11
-7.60944e-11
-7.10689e-11
-7.63637e-11
-6.91873e-11
-7.65614e-11
-6.69375e-11
-7.66864e-11
-6.4302e-11
-7.67375e-11
-6.12541e-11
-7.67129e-11
-5.77522e-11
-7.66117e-11
-5.38083e-11
-7.64325e-11
-4.94898e-11
-7.61719e-11
-7.58184e-11
-4.48333e-11
-1.919e-13
-1.54439e-12
-7.0806e-13
-4.61991e-12
-1.51522e-12
-7.66279e-12
-2.59335e-12
-1.066e-11
-3.92333e-12
-1.36055e-11
-5.48682e-12
-1.64951e-11
-7.26604e-12
-1.93264e-11
-9.24375e-12
-2.20977e-11
-1.14032e-11
-2.4807e-11
-1.37282e-11
-2.74526e-11
-1.62032e-11
-3.00331e-11
-1.8813e-11
-3.25468e-11
-2.15431e-11
-3.49925e-11
-2.43796e-11
-3.7369e-11
-2.73085e-11
-3.96752e-11
-3.0317e-11
-4.19102e-11
-3.33928e-11
-4.40735e-11
-3.65238e-11
-4.61645e-11
-3.96977e-11
-4.81828e-11
-4.28981e-11
-5.01282e-11
-4.61095e-11
-5.19968e-11
-4.93197e-11
-5.37943e-11
-5.25155e-11
-5.55204e-11
-5.56845e-11
-5.71751e-11
-5.88148e-11
-5.8759e-11
-6.18944e-11
-6.02727e-11
-6.49116e-11
-6.1717e-11
-6.78547e-11
-6.30929e-11
-7.07121e-11
-6.44012e-11
-7.34721e-11
-6.56429e-11
-7.61231e-11
-6.68193e-11
-7.8653e-11
-6.79314e-11
-8.10498e-11
-6.89806e-11
-8.33009e-11
-6.99681e-11
-8.53933e-11
-7.08953e-11
-8.73134e-11
-7.17637e-11
-8.90464e-11
-7.25749e-11
-9.05771e-11
-7.33302e-11
-9.18883e-11
-7.40315e-11
-9.29619e-11
-7.46804e-11
-9.37777e-11
-7.52786e-11
-9.43135e-11
-7.58279e-11
-9.45446e-11
-7.63302e-11
-9.44435e-11
-7.67875e-11
-9.39793e-11
-7.72017e-11
-9.31172e-11
-7.75751e-11
-9.18188e-11
-7.79101e-11
-9.00427e-11
-7.82086e-11
-8.77411e-11
-7.84736e-11
-7.87088e-11
-8.48507e-11
-7.23092e-14
-1.47208e-12
-3.10836e-13
-4.38138e-12
-7.14568e-13
-7.25906e-12
-1.27178e-12
-1.01028e-11
-1.97119e-12
-1.2906e-11
-2.80186e-12
-1.56644e-11
-3.75301e-12
-1.83753e-11
-4.81398e-12
-2.10367e-11
-5.97423e-12
-2.36467e-11
-7.22333e-12
-2.62035e-11
-8.5509e-12
-2.87055e-11
-9.94667e-12
-3.1151e-11
-1.14004e-11
-3.35388e-11
-1.29019e-11
-3.58676e-11
-1.44407e-11
-3.81363e-11
-1.60065e-11
-4.03443e-11
-1.75895e-11
-4.24906e-11
-1.91793e-11
-4.45747e-11
-2.07654e-11
-4.65967e-11
-2.23379e-11
-4.85557e-11
-2.38822e-11
-5.04524e-11
-2.53899e-11
-5.22865e-11
-2.68517e-11
-5.40587e-11
-2.82568e-11
-5.577e-11
-2.95976e-11
-5.74182e-11
-3.08635e-11
-5.90067e-11
-3.2045e-11
-6.05355e-11
-3.31325e-11
-6.20054e-11
-3.41155e-11
-6.34182e-11
-3.49835e-11
-6.47749e-11
-3.57259e-11
-6.60769e-11
-3.63316e-11
-6.73257e-11
-3.67894e-11
-6.85228e-11
-3.70874e-11
-6.967e-11
-3.72136e-11
-7.07691e-11
-3.71554e-11
-7.1822e-11
-3.68996e-11
-7.28306e-11
-3.64328e-11
-7.37971e-11
-3.57406e-11
-7.47237e-11
-3.48081e-11
-7.56128e-11
-3.36199e-11
-7.64668e-11
-3.21596e-11
-7.72882e-11
-3.04102e-11
-7.80797e-11
-2.83537e-11
-7.88439e-11
-2.59715e-11
-7.95838e-11
-2.32444e-11
-8.03022e-11
-2.01524e-11
-8.10021e-11
-1.66743e-11
-8.16867e-11
-1.27882e-11
-8.23597e-11
-8.30223e-11
-8.47473e-12
-3.17402e-14
-1.44034e-12
-9.37343e-14
-4.31939e-12
-1.73945e-13
-7.17885e-12
-2.7046e-13
-1.00063e-11
-3.81189e-13
-1.27953e-11
-5.03909e-13
-1.55417e-11
-6.36244e-13
-1.8243e-11
-7.75645e-13
-2.08973e-11
-9.19395e-13
-2.3503e-11
-1.06461e-12
-2.60583e-11
-1.20826e-12
-2.85618e-11
-1.34715e-12
-3.10121e-11
-1.47797e-12
-3.3408e-11
-1.59723e-12
-3.57483e-11
-1.70135e-12
-3.80322e-11
-1.78673e-12
-4.02589e-11
-1.84939e-12
-4.24279e-11
-1.8855e-12
-4.45386e-11
-1.89133e-12
-4.65909e-11
-1.8624e-12
-4.85846e-11
-1.79498e-12
-5.05199e-11
-1.68466e-12
-5.23968e-11
-1.52756e-12
-5.42158e-11
-1.32063e-12
-5.59769e-11
-1.05764e-12
-5.76812e-11
-7.3541e-13
-5.93289e-11
-3.49348e-13
-6.09216e-11
1.04495e-13
-6.24593e-11
6.30168e-13
-6.39439e-11
1.23165e-12
-6.53764e-11
1.91305e-12
-6.67583e-11
2.6788e-12
-6.80914e-11
3.53339e-12
-6.93774e-11
4.48145e-12
-7.06181e-11
5.52783e-12
-7.18155e-11
6.67755e-12
-7.29717e-11
7.93586e-12
-7.40889e-11
9.30826e-12
-7.51695e-11
1.08006e-11
-7.62161e-11
1.24189e-11
-7.72312e-11
1.41698e-11
-7.82177e-11
1.60599e-11
-7.91784e-11
1.80967e-11
-8.01164e-11
2.02876e-11
-8.10349e-11
2.26409e-11
-8.1937e-11
2.51648e-11
-8.28261e-11
2.78681e-11
-8.37055e-11
3.07599e-11
-8.45785e-11
3.38484e-11
-8.54481e-11
-8.63179e-11
3.7144e-11
8.51625e-14
-1.5255e-12
3.03116e-13
-4.53734e-12
6.37026e-13
-7.51276e-12
1.08048e-12
-1.04497e-11
1.62762e-12
-1.33424e-11
2.27297e-12
-1.6187e-11
3.01141e-12
-1.89814e-11
3.83814e-12
-2.1724e-11
4.74865e-12
-2.44135e-11
5.73871e-12
-2.70484e-11
6.80434e-12
-2.96275e-11
7.94178e-12
-3.21496e-11
9.14747e-12
-3.46137e-11
1.0418e-11
-3.70189e-11
1.17502e-11
-3.93644e-11
1.31408e-11
-4.16495e-11
1.45867e-11
-4.38739e-11
1.60851e-11
-4.60369e-11
1.76327e-11
-4.81385e-11
1.92264e-11
-5.01783e-11
2.08629e-11
-5.21564e-11
2.25389e-11
-5.40728e-11
2.42508e-11
-5.59278e-11
2.59954e-11
-5.77215e-11
2.77687e-11
-5.94545e-11
2.95671e-11
-6.11273e-11
3.13859e-11
-6.27404e-11
3.32214e-11
-6.42947e-11
3.50685e-11
-6.5791e-11
3.69225e-11
-6.72303e-11
3.87779e-11
-6.86137e-11
4.06291e-11
-6.99427e-11
4.24703e-11
-7.12186e-11
4.42955e-11
-7.24433e-11
4.60983e-11
-7.36183e-11
4.78725e-11
-7.47458e-11
4.96115e-11
-7.58279e-11
5.13089e-11
-7.68669e-11
5.29584e-11
-7.78656e-11
5.45539e-11
-7.88267e-11
5.60895e-11
-7.97533e-11
5.75602e-11
-8.0649e-11
5.89612e-11
-8.15175e-11
6.02891e-11
-8.23628e-11
6.15413e-11
-8.31892e-11
6.27169e-11
-8.40017e-11
6.3817e-11
-8.48056e-11
6.4845e-11
-8.56065e-11
6.58091e-11
-8.64122e-11
-8.72252e-11
6.67164e-11
1.17682e-13
-1.64318e-12
4.80167e-13
-4.89982e-12
1.07993e-12
-8.11253e-12
1.90218e-12
-1.1272e-11
2.93362e-12
-1.43739e-11
4.16215e-12
-1.74156e-11
5.57665e-12
-2.03959e-11
7.16686e-12
-2.33142e-11
8.92331e-12
-2.61699e-11
1.08373e-11
-2.89623e-11
1.29006e-11
-3.16908e-11
1.51056e-11
-3.43546e-11
1.74452e-11
-3.69533e-11
1.99126e-11
-3.94863e-11
2.25014e-11
-4.19531e-11
2.52052e-11
-4.43534e-11
2.8018e-11
-4.66867e-11
3.09338e-11
-4.89527e-11
3.39464e-11
-5.11511e-11
3.70498e-11
-5.32817e-11
4.02376e-11
-5.53442e-11
4.35032e-11
-5.73384e-11
4.68397e-11
-5.92643e-11
5.02398e-11
-6.11216e-11
5.36955e-11
-6.29102e-11
5.71984e-11
-6.46302e-11
6.07394e-11
-6.62815e-11
6.43087e-11
-6.7864e-11
6.78954e-11
-6.93777e-11
7.14878e-11
-7.08228e-11
7.50733e-11
-7.21991e-11
7.86375e-11
-7.35069e-11
8.2165e-11
-7.47462e-11
8.56388e-11
-7.59171e-11
8.90403e-11
-7.70198e-11
9.2349e-11
-7.80545e-11
9.55425e-11
-7.90214e-11
9.85964e-11
-7.99208e-11
1.01484e-10
-8.07529e-11
1.04175e-10
-8.15181e-11
1.06639e-10
-8.22168e-11
1.08839e-10
-8.28493e-11
1.10738e-10
-8.34163e-11
1.12293e-10
-8.39184e-11
1.13461e-10
-8.43572e-11
1.14196e-10
-8.47364e-11
1.14451e-10
-8.50607e-11
1.14179e-10
-8.53344e-11
1.13441e-10
-8.56737e-11
-8.5913e-11
1.12128e-10
1.68759e-13
6.24333e-13
1.3395e-12
2.29938e-12
3.49074e-12
4.90172e-12
6.52158e-12
8.34054e-12
1.03497e-11
1.25409e-11
1.49066e-11
1.74399e-11
2.01344e-11
2.2984e-11
2.59831e-11
2.9126e-11
3.24073e-11
3.58219e-11
3.93642e-11
4.30288e-11
4.681e-11
5.07018e-11
5.46978e-11
5.87913e-11
6.29746e-11
6.72397e-11
7.15774e-11
7.5978e-11
8.04302e-11
8.49219e-11
8.94391e-11
9.39665e-11
9.8487e-11
1.02981e-10
1.07428e-10
1.11802e-10
1.16077e-10
1.20222e-10
1.24204e-10
1.27984e-10
1.3152e-10
1.34769e-10
1.37684e-10
1.40218e-10
1.42345e-10
1.44093e-10
1.45043e-10
1.44913e-10
1.42949e-10
1.39908e-10
6.27885e-09
5.06229e-10
6.51313e-09
5.08927e-10
6.74559e-09
5.14351e-10
7.00338e-09
5.21809e-10
7.26602e-09
5.244e-10
7.51317e-09
5.23816e-10
7.6958e-09
5.14847e-10
8.02665e-09
5.834e-10
8.3983e-09
6.62374e-10
8.85423e-09
6.79893e-10
9.27168e-09
6.60679e-10
9.65395e-09
6.22435e-10
9.91728e-09
4.00227e-10
1.06193e-08
-3.12483e-10
1.1047e-08
2.12998e-10
1.15762e-08
7.21652e-10
1.21358e-08
7.83812e-10
1.26846e-08
8.06145e-10
1.32477e-08
7.34145e-10
1.38012e-08
5.6086e-10
1.43443e-08
2.10272e-11
1.43707e-08
1.40706e-10
1.42121e-08
9.83895e-11
1.44732e-08
-3.4576e-10
1.48469e-08
-2.01623e-10
1.52559e-08
4.7641e-10
1.56769e-08
5.69396e-10
1.61094e-08
6.01677e-10
1.65577e-08
5.37594e-10
1.70717e-08
3.58811e-10
1.71306e-08
4.80017e-10
1.71984e-08
1.81541e-10
1.73572e-08
1.28575e-10
1.74617e-08
1.45073e-10
1.76652e-08
1.74523e-11
1.81128e-08
-2.83218e-10
1.85985e-08
-1.50421e-10
1.89481e-08
1.59965e-10
1.92987e-08
2.12551e-10
1.96368e-08
1.93636e-10
1.9979e-08
1.05779e-10
2.02946e-08
-1.20299e-10
2.06471e-08
-2.61123e-10
2.05287e-08
1.2797e-10
2.08205e-08
-8.13789e-11
2.10638e-08
-4.11302e-11
2.13092e-08
-6.21986e-11
2.15645e-08
-1.35624e-10
2.18152e-08
-2.07983e-10
-2.1838e-10
2.20786e-08
8.17729e-09
1.02195e-10
8.61691e-09
6.78445e-11
9.03298e-09
8.60069e-11
9.43851e-09
1.02961e-10
9.81488e-09
1.33606e-10
1.02348e-08
4.84521e-11
1.03205e-08
2.79892e-10
1.06505e-08
2.53308e-10
1.11969e-08
1.16064e-10
1.18131e-08
6.36058e-11
1.23994e-08
7.44636e-11
1.2939e-08
8.28269e-11
1.31484e-08
1.90827e-10
1.22377e-08
5.98217e-10
1.19727e-08
4.78e-10
1.24374e-08
2.5693e-10
1.30373e-08
1.83948e-10
1.3733e-08
1.10394e-10
1.43224e-08
1.44727e-10
1.47024e-08
1.80926e-10
1.43876e-08
3.35775e-10
1.40979e-08
4.30414e-10
1.39942e-08
2.02122e-10
1.34752e-08
1.73173e-10
1.31293e-08
1.4434e-10
1.34723e-08
1.33391e-10
1.38943e-08
1.47408e-10
1.43011e-08
1.94856e-10
1.45828e-08
2.55901e-10
1.47921e-08
1.49517e-10
1.53778e-08
-1.05735e-10
1.57873e-08
-2.2792e-10
1.61436e-08
-2.27701e-10
1.65372e-08
-2.48594e-10
1.68009e-08
-2.46243e-10
1.69202e-08
-4.02518e-10
1.71064e-08
-3.36571e-10
1.75751e-08
-3.08776e-10
1.80572e-08
-2.69487e-10
1.82515e-08
-6.99423e-13
1.86091e-08
-2.51796e-10
1.89208e-08
-4.32006e-10
1.92104e-08
-5.50697e-10
2.0517e-08
-1.17863e-09
2.09622e-08
-5.26592e-10
2.14928e-08
-5.71781e-10
2.20133e-08
-5.82693e-10
2.2378e-08
-5.00282e-10
2.26079e-08
-4.37957e-10
-4.75795e-10
2.28654e-08
5.37678e-09
1.1893e-11
6.59517e-09
-1.15512e-09
7.42378e-09
-7.47373e-10
8.34003e-09
-8.1818e-10
9.30918e-09
-8.40455e-10
1.01041e-08
-7.47345e-10
1.10264e-08
-6.42444e-10
1.19196e-08
-6.39877e-10
1.25255e-08
-4.89804e-10
1.37734e-08
-1.18438e-09
1.41408e-08
-2.9287e-10
1.4633e-08
-4.09417e-10
1.50663e-08
-2.42483e-10
1.57124e-08
-4.78834e-11
1.60231e-08
1.67304e-10
1.63288e-08
-4.87417e-11
1.6615e-08
-1.0227e-10
1.77361e-08
-1.01072e-09
1.83303e-08
-4.49396e-10
1.88975e-08
-3.86361e-10
1.93286e-08
-9.52281e-11
1.98145e-08
-5.55327e-11
2.04414e-08
-4.24782e-10
2.11126e-08
-4.98053e-10
2.19709e-08
-7.13906e-10
2.23151e-08
-2.10799e-10
2.24678e-08
-5.31304e-12
2.22672e-08
3.95441e-10
2.16537e-08
8.69441e-10
2.10538e-08
7.49394e-10
2.08197e-08
1.28307e-10
2.08488e-08
-2.56976e-10
2.10304e-08
-4.09311e-10
2.12253e-08
-4.43507e-10
2.30924e-08
-2.11336e-09
2.32189e-08
-5.29029e-10
2.34154e-08
-5.32989e-10
2.35093e-08
-4.02712e-10
2.34484e-08
-2.08632e-10
2.35209e-08
-7.31133e-11
2.33102e-08
-4.11007e-11
2.29058e-08
-2.76158e-11
2.25956e-08
-2.40537e-10
2.17808e-08
-3.63829e-10
2.20135e-08
-7.59287e-10
2.23402e-08
-8.98479e-10
2.31462e-08
-1.38868e-09
2.43383e-08
-1.69237e-09
2.59055e-08
-2.00521e-09
-2.26763e-09
2.76974e-08
1.02951e-08
-1.361e-09
1.04824e-08
-1.34243e-09
1.14477e-08
-1.71268e-09
1.23909e-08
-1.76135e-09
1.32651e-08
-1.71462e-09
1.41077e-08
-1.58997e-09
1.49787e-08
-1.51348e-09
1.56521e-08
-1.31327e-09
1.63055e-08
-1.14321e-09
1.60536e-08
-9.32426e-10
1.69833e-08
-1.22263e-09
1.77626e-08
-1.18868e-09
1.87053e-08
-1.18513e-09
1.97498e-08
-1.09244e-09
2.08817e-08
-9.64563e-10
2.16199e-08
-7.8696e-10
2.21065e-08
-5.88825e-10
2.16441e-08
-5.48337e-10
2.17126e-08
-5.17925e-10
2.1701e-08
-3.74723e-10
2.18151e-08
-2.09352e-10
2.19229e-08
-1.63358e-10
2.17968e-08
-2.98691e-10
2.15669e-08
-2.68126e-10
2.09594e-08
-1.06404e-10
2.06217e-08
1.26893e-10
2.03129e-08
3.03487e-10
2.02005e-08
5.07807e-10
2.0204e-08
8.65987e-10
2.0064e-08
8.89334e-10
1.95062e-08
6.86119e-10
1.85605e-08
6.88717e-10
1.74237e-08
7.27544e-10
1.63616e-08
6.18556e-10
1.35581e-08
6.90116e-10
1.2171e-08
8.58088e-10
1.03215e-08
1.31656e-09
8.43383e-09
1.48494e-09
6.77055e-09
1.45465e-09
5.33728e-09
1.36015e-09
3.96561e-09
1.33057e-09
2.62609e-09
1.3119e-09
1.14328e-09
1.24227e-09
-2.59675e-10
1.03913e-09
-1.89139e-09
8.72424e-10
-3.56849e-09
7.78628e-10
-5.2755e-09
3.18332e-10
-6.29967e-09
-6.68198e-10