/*--------------------------------*- C++ -*----------------------------------*\
| =========                 |                                                 |
| \\      /  F ield         | OpenFOAM: The Open Source CFD Toolbox           |
|  \\    /   O peration     | Version:  2.4.0                                 |
|   \\  /    A nd           | Web:      www.OpenFOAM.org                      |
|    \\/     M anipulation  |                                                 |
\*---------------------------------------------------------------------------*/
FoamFile
{
    version     2.0;
    format      ascii;
    class       volVectorField;
    location    "5";
    object      U;
}
// * * * * * * * * * * * * * * * * * * * * * * * * * * * * * * * * * * * * * //

dimensions      [0 1 -1 0 0 0 0];

internalField   nonuniform List<vector> 
8000
(
(3.1676e-05 0.00158486 0)
(0.000192768 0.00448576 0)
(0.000471624 0.00714568 0)
(0.000846966 0.00959697 0)
(0.00130228 0.0118672 0)
(0.00182636 0.0139773 0)
(0.00241077 0.0159456 0)
(0.00304845 0.0177873 0)
(0.00373341 0.0195162 0)
(0.00446065 0.0211446 0)
(0.00522609 0.0226831 0)
(0.00602648 0.0241415 0)
(0.00685944 0.0255288 0)
(0.00772326 0.0268533 0)
(0.00861688 0.0281227 0)
(0.0095397 0.0293446 0)
(0.0104918 0.0305261 0)
(0.0114745 0.0316735 0)
(0.0124895 0.0327943 0)
(0.0135356 0.0338993 0)
(0.0146105 0.0349935 0)
(0.0157147 0.0360815 0)
(0.0168487 0.037173 0)
(0.0180084 0.0382781 0)
(0.019183 0.0394034 0)
(0.0203597 0.0405479 0)
(0.0215305 0.0417065 0)
(0.0226954 0.0428718 0)
(0.0238644 0.0440368 0)
(0.0250474 0.0452102 0)
(0.0262442 0.0463994 0)
(0.0274478 0.0476058 0)
(0.0286547 0.0488248 0)
(0.0298685 0.0500534 0)
(0.0310906 0.0512963 0)
(0.0323114 0.0525579 0)
(0.0335156 0.0538313 0)
(0.0346949 0.0551043 0)
(0.0358563 0.05636 0)
(0.0370267 0.0575806 0)
(0.0382357 0.0587935 0)
(0.0394977 0.060023 0)
(0.0408179 0.0612888 0)
(0.0421928 0.0626103 0)
(0.0436129 0.0640036 0)
(0.0450601 0.0654785 0)
(0.0465412 0.0670303 0)
(0.0480954 0.0686539 0)
(0.0497375 0.0703254 0)
(0.0511408 0.072 0)
(2.67043e-07 -4.74738e-05 0)
(7.19148e-05 7.67392e-06 0)
(0.00022908 0.000195112 0)
(0.000468329 0.000500678 0)
(0.000780121 0.000905325 0)
(0.00115565 0.00138717 0)
(0.00158759 0.00192602 0)
(0.00206941 0.00250434 0)
(0.00259512 0.00310755 0)
(0.00315961 0.00372392 0)
(0.00375988 0.00434317 0)
(0.00439576 0.00495541 0)
(0.00507021 0.00554719 0)
(0.00578376 0.00611664 0)
(0.0065355 0.00662896 0)
(0.00732396 0.00710507 0)
(0.00814397 0.00757915 0)
(0.00899804 0.00794442 0)
(0.00991016 0.00805944 0)
(0.0108753 0.00849186 0)
(0.0118576 0.00896731 0)
(0.012888 0.00923588 0)
(0.014008 0.00948737 0)
(0.0152326 0.00994522 0)
(0.0165109 0.0109089 0)
(0.0177912 0.0121638 0)
(0.0190459 0.0135935 0)
(0.0202716 0.0150824 0)
(0.0215398 0.0157377 0)
(0.0229529 0.0163012 0)
(0.0244659 0.0171945 0)
(0.0260046 0.0184832 0)
(0.0275423 0.0197286 0)
(0.0291375 0.0205027 0)
(0.0308497 0.0213384 0)
(0.0326261 0.0228971 0)
(0.0343763 0.0247793 0)
(0.0360268 0.0267677 0)
(0.0375251 0.0286774 0)
(0.0390795 0.0287594 0)
(0.0409191 0.0286169 0)
(0.0429677 0.0283929 0)
(0.0451641 0.0281336 0)
(0.0474992 0.027883 0)
(0.0499513 0.0281631 0)
(0.052422 0.0291827 0)
(0.0548215 0.0302584 0)
(0.0569714 0.0311874 0)
(0.0586874 0.0317519 0)
(0.0607266 0.0299576 0)
(5.26065e-06 0.000252827 0)
(1.41674e-05 0.000774799 0)
(2.64047e-05 0.00131488 0)
(3.96782e-05 0.00187462 0)
(5.60434e-05 0.00245645 0)
(7.59223e-05 0.00306356 0)
(9.86454e-05 0.00369969 0)
(0.000123705 0.00436839 0)
(0.000152396 0.00507251 0)
(0.000180605 0.00580744 0)
(0.000198261 0.00650069 0)
(0.000124142 0.0071267 0)
(-3.50426e-05 0.00728066 0)
(-0.000401211 0.00768729 0)
(-0.000941275 0.00803246 0)
(-0.00141937 0.00833252 0)
(-0.00193234 0.00878669 0)
(-0.0026057 0.00926196 0)
(-0.00306164 0.0081725 0)
(-0.0033767 0.00882301 0)
(-0.00413006 0.00990051 0)
(-0.00520185 0.0090341 0)
(-0.00574519 0.007494 0)
(-0.00578513 0.00652405 0)
(-0.0056771 0.007209 0)
(-0.00575099 0.00838008 0)
(-0.00619687 0.010256 0)
(-0.00721009 0.0116769 0)
(-0.00757976 0.00929828 0)
(-0.00711257 0.0080199 0)
(-0.00619208 0.00774499 0)
(-0.00530116 0.00849575 0)
(-0.00498209 0.00954281 0)
(-0.00443039 0.00849347 0)
(-0.0022061 0.00728274 0)
(0.000894233 0.00848527 0)
(0.00335535 0.0105789 0)
(0.00524489 0.0136457 0)
(0.00673193 0.0178898 0)
(0.00824756 0.0121593 0)
(0.010314 0.00900605 0)
(0.0127699 0.00675384 0)
(0.0158388 0.00482598 0)
(0.0207334 0.00323216 0)
(0.0275299 0.00321034 0)
(0.0332581 0.00545104 0)
(0.0366736 0.00829657 0)
(0.0392886 0.0131276 0)
(0.0416785 0.0265853 0)
(0.0423361 0.000774085 0)
(-5.10589e-07 2.64812e-05 0)
(2.46416e-05 0.000148701 0)
(8.19605e-05 0.000338999 0)
(0.000172178 0.000596118 0)
(0.000292984 0.000922091 0)
(0.000446353 0.00132234 0)
(0.000638728 0.00180005 0)
(0.000861974 0.00235857 0)
(0.00102254 0.00299514 0)
(0.000897315 0.00398835 0)
(0.000508097 0.00441531 0)
(0.000772934 0.00517535 0)
(0.00115616 0.00477947 0)
(0.00140949 0.00581085 0)
(0.00156669 0.00679213 0)
(0.00166865 0.00759514 0)
(0.00189275 0.00924136 0)
(0.00216099 0.0124819 0)
(0.0014763 0.00678514 0)
(0.000303013 0.0120267 0)
(0.000399519 0.01882 0)
(0.00100066 0.0174638 0)
(0.00108002 0.0104121 0)
(-0.000557535 0.0017816 0)
(-0.00276927 0.00531589 0)
(-0.00326368 0.00921069 0)
(-0.00296944 0.0180303 0)
(-0.0022427 0.0224198 0)
(-0.00179322 0.0085202 0)
(-0.00208653 -0.00440812 0)
(-0.00275309 -0.0122361 0)
(-0.00290052 -0.00548632 0)
(-0.00234072 0.00453954 0)
(-0.000778032 -0.00944809 0)
(-0.000568 -0.0541212 0)
(-0.00117327 -0.0475709 0)
(-0.00063846 -0.0364865 0)
(0.00123131 -0.0214024 0)
(0.00468913 -0.00347961 0)
(0.00904244 -0.0261304 0)
(0.0115626 -0.0361008 0)
(0.0144249 -0.0367749 0)
(0.0192288 -0.041152 0)
(0.0230347 -0.0901716 0)
(0.0229097 -0.117511 0)
(0.0261155 -0.0544847 0)
(0.0336058 -0.0482628 0)
(0.0420067 -0.0423419 0)
(0.0535175 5.56048e-05 0)
(0.066443 0.0116199 0)
(6.76586e-06 -0.000216577 0)
(4.57862e-05 -0.000581976 0)
(0.000119898 -0.000877847 0)
(0.000226223 -0.00110559 0)
(0.000363751 -0.00126719 0)
(0.000533013 -0.00136362 0)
(0.000734694 -0.00139672 0)
(0.000985087 -0.00136754 0)
(0.00126191 -0.00127843 0)
(0.00148189 -0.00112265 0)
(0.00157262 -0.00151569 0)
(0.00153806 -0.00194876 0)
(0.00148575 -0.00187979 0)
(0.00186311 -0.000137649 0)
(0.00242301 0.00424575 0)
(0.00292016 0.00402744 0)
(0.0030403 0.00105587 0)
(0.00437459 0.00797013 0)
(0.00618539 0.03057 0)
(0.00362898 0.0152889 0)
(0.00566671 0.00182739 0)
(0.00800219 0.00671683 0)
(0.0102884 0.0187541 0)
(0.00777131 0.0477063 0)
(0.00749433 0.0309101 0)
(0.00701854 0.00219163 0)
(0.00566205 0.00702522 0)
(0.01053 0.0103418 0)
(0.0124349 0.00638472 0)
(0.0113306 0.00333497 0)
(0.0117009 8.06739e-05 0)
(0.0111471 0.00358678 0)
(0.010535 -0.00809587 0)
(0.00941696 -0.0127935 0)
(0.00818784 -0.014612 0)
(0.00580698 -0.0175904 0)
(0.0005018 -0.0260938 0)
(-0.00229689 -0.0436084 0)
(-0.00481269 -0.055063 0)
(-0.00691765 -0.0644696 0)
(-0.00976852 -0.073431 0)
(-0.015766 -0.101507 0)
(-0.018235 -0.127915 0)
(-0.0210716 -0.139013 0)
(-0.0265984 -0.148647 0)
(-0.0325449 -0.166256 0)
(-0.034948 -0.204796 0)
(-0.0414552 -0.221059 0)
(-0.0444118 -0.223222 0)
(-0.04752 -0.219684 0)
(-2.68115e-06 -0.00038493 0)
(-6.41637e-06 -0.0010668 0)
(-6.50086e-06 -0.00166799 0)
(9.36354e-08 -0.00219809 0)
(1.50247e-05 -0.002664 0)
(3.98658e-05 -0.0030699 0)
(7.61213e-05 -0.00341935 0)
(0.000125648 -0.00371544 0)
(0.00018922 -0.00396261 0)
(0.000264339 -0.00416211 0)
(0.000341906 -0.00431271 0)
(0.000406221 -0.00440866 0)
(0.000466577 -0.00437477 0)
(0.000576115 -0.00416008 0)
(0.000765089 -0.0039142 0)
(0.000854656 -0.00380654 0)
(0.00090029 -0.00365835 0)
(0.00113672 -0.00335727 0)
(0.00163305 -0.00235906 0)
(0.00255997 0.00195797 0)
(0.00319288 0.00121994 0)
(0.00322363 0.00649422 0)
(0.00341401 0.00556453 0)
(0.00440173 0.0106146 0)
(0.00556099 0.0239701 0)
(0.00643206 0.0343998 0)
(0.00444557 0.00812362 0)
(0.00429453 -0.0234398 0)
(0.00594323 -0.0222027 0)
(0.00609759 0.0013026 0)
(0.00473221 0.000263136 0)
(0.00354618 0.0251757 0)
(0.00287953 0.0219109 0)
(0.00147831 0.0214175 0)
(0.000863425 0.0367738 0)
(0.000282943 0.0432703 0)
(-0.00125186 0.0446263 0)
(-0.00301966 0.0443515 0)
(-0.00472288 0.0444372 0)
(-0.0070733 0.0459569 0)
(-0.0113281 0.0467566 0)
(-0.0170264 0.0496638 0)
(-0.0242291 0.0580698 0)
(-0.0314299 0.0586397 0)
(-0.0375486 0.0547512 0)
(-0.0458807 0.0496161 0)
(-0.0585408 0.0454325 0)
(-0.073295 0.0455715 0)
(-0.0831448 0.0456506 0)
(-0.0950332 0.0486037 0)
(6.15083e-07 -0.000246066 0)
(-8.85995e-07 -0.000714546 0)
(-4.53562e-06 -0.00115649 0)
(-9.42812e-06 -0.00157158 0)
(-1.43651e-05 -0.00195967 0)
(-1.81105e-05 -0.00232009 0)
(-1.96432e-05 -0.00265244 0)
(-1.80687e-05 -0.0029566 0)
(-1.2639e-05 -0.00323285 0)
(-2.6561e-06 -0.0034818 0)
(1.25932e-05 -0.00370411 0)
(3.44085e-05 -0.00390008 0)
(6.5551e-05 -0.00406947 0)
(0.000110036 -0.00421362 0)
(0.000169617 -0.00434082 0)
(0.000239353 -0.00446273 0)
(0.00031171 -0.00452554 0)
(0.000389302 -0.00447885 0)
(0.000509302 -0.00427576 0)
(0.000766282 -0.00386059 0)
(0.00108821 -0.00383204 0)
(0.00142625 -0.0036793 0)
(0.00184406 -0.00366189 0)
(0.00244318 -0.00347267 0)
(0.00348418 -0.00304206 0)
(0.00507963 -0.00212735 0)
(0.00674881 0.000309118 0)
(0.0069613 0.00182227 0)
(0.00586613 0.00397758 0)
(0.00494827 0.00869772 0)
(0.00495147 0.0188641 0)
(0.00547748 0.0253615 0)
(0.00613933 0.0147509 0)
(0.0075435 -0.00278965 0)
(0.00947822 -0.00712164 0)
(0.0115415 -0.000821158 0)
(0.0131769 0.00498674 0)
(0.0147745 0.00944455 0)
(0.015792 0.0139472 0)
(0.0168823 0.0285224 0)
(0.0181695 0.0497882 0)
(0.0187186 0.0604394 0)
(0.019039 0.0645018 0)
(0.0194451 0.066007 0)
(0.0199366 0.0694511 0)
(0.0203048 0.0837493 0)
(0.0176948 0.12571 0)
(0.0117974 0.153216 0)
(0.00602939 0.163569 0)
(-0.000862137 0.169956 0)
(-1.62109e-07 -0.000313775 0)
(2.60491e-06 -0.00090231 0)
(9.2693e-06 -0.00145337 0)
(2.01104e-05 -0.00196896 0)
(3.49978e-05 -0.00245042 0)
(5.38764e-05 -0.00289855 0)
(7.67514e-05 -0.00331407 0)
(0.00010366 -0.0036976 0)
(0.000134658 -0.00404983 0)
(0.000169794 -0.0043714 0)
(0.000209111 -0.00466297 0)
(0.000252654 -0.0049252 0)
(0.000300454 -0.00515876 0)
(0.000352457 -0.00536445 0)
(0.000408483 -0.0055432 0)
(0.00046835 -0.00569583 0)
(0.000532707 -0.00582273 0)
(0.000604074 -0.00592418 0)
(0.0006864 -0.00600167 0)
(0.000783072 -0.0060611 0)
(0.000891896 -0.00612005 0)
(0.00100599 -0.00617569 0)
(0.00112044 -0.00616675 0)
(0.00123546 -0.00605374 0)
(0.00135725 -0.00582138 0)
(0.0015118 -0.00543419 0)
(0.00174807 -0.00489958 0)
(0.00200475 -0.00452703 0)
(0.00232018 -0.00422364 0)
(0.0028317 -0.00395768 0)
(0.00362877 -0.00363529 0)
(0.00488778 -0.00296302 0)
(0.00636925 -0.0013943 0)
(0.00691216 0.00026834 0)
(0.00651583 0.00150593 0)
(0.0060576 0.0063865 0)
(0.00581589 0.0131701 0)
(0.00575333 0.0143132 0)
(0.00584307 0.0073465 0)
(0.00706751 0.00489343 0)
(0.0100801 0.0255597 0)
(0.0121058 0.034631 0)
(0.0140416 0.0398556 0)
(0.0161874 0.0438033 0)
(0.0184705 0.0485716 0)
(0.0220099 0.0600965 0)
(0.0275121 0.101322 0)
(0.0315574 0.168489 0)
(0.0338255 0.206365 0)
(0.0367842 0.229205 0)
(3.2275e-07 -0.000303147 0)
(1.34284e-06 -0.000878661 0)
(3.04037e-06 -0.00142419 0)
(5.46385e-06 -0.00194081 0)
(8.76147e-06 -0.00242923 0)
(1.31384e-05 -0.00288984 0)
(1.88094e-05 -0.00332297 0)
(2.59857e-05 -0.00372893 0)
(3.48819e-05 -0.00410806 0)
(4.57098e-05 -0.00446071 0)
(5.8677e-05 -0.00478721 0)
(7.39848e-05 -0.0050879 0)
(9.18246e-05 -0.00536305 0)
(0.000112374 -0.00561294 0)
(0.000135791 -0.00583778 0)
(0.000162217 -0.00603773 0)
(0.000191786 -0.0062129 0)
(0.000224617 -0.00636341 0)
(0.000260736 -0.00648949 0)
(0.000300008 -0.00659246 0)
(0.000341997 -0.00667247 0)
(0.000386329 -0.00672895 0)
(0.000433528 -0.00676154 0)
(0.000485705 -0.00677 0)
(0.000546333 -0.00675479 0)
(0.000619737 -0.00671777 0)
(0.000709808 -0.00666416 0)
(0.000815327 -0.00660501 0)
(0.000931956 -0.0065355 0)
(0.00105158 -0.00641599 0)
(0.00117056 -0.00620248 0)
(0.00130478 -0.00583017 0)
(0.00148233 -0.0053505 0)
(0.00172529 -0.00492215 0)
(0.0020464 -0.00456894 0)
(0.0024862 -0.00419171 0)
(0.00314784 -0.00372131 0)
(0.00413406 -0.00299698 0)
(0.00505425 -0.00190106 0)
(0.00536407 -0.00174918 0)
(0.00578787 0.00363026 0)
(0.00676271 0.0110429 0)
(0.00780238 0.0107271 0)
(0.00936134 0.00118831 0)
(0.0119734 -0.0094211 0)
(0.0146636 -0.0103728 0)
(0.0165601 0.0141549 0)
(0.0223143 0.064039 0)
(0.0339052 0.10349 0)
(0.0424057 0.117849 0)
(-5.10549e-07 -0.000315547 0)
(-3.83165e-06 -0.00091321 0)
(-9.89063e-06 -0.00147888 0)
(-1.82467e-05 -0.00201404 0)
(-2.84812e-05 -0.00252 0)
(-4.02399e-05 -0.00299775 0)
(-5.32115e-05 -0.00344817 0)
(-6.70981e-05 -0.00387198 0)
(-8.16066e-05 -0.00426983 0)
(-9.64527e-05 -0.00464233 0)
(-0.00011136 -0.00499 0)
(-0.000126059 -0.00531332 0)
(-0.000140287 -0.0056127 0)
(-0.000153787 -0.00588851 0)
(-0.000166305 -0.00614104 0)
(-0.00017759 -0.00637055 0)
(-0.000187388 -0.00657724 0)
(-0.000195442 -0.00676126 0)
(-0.00020147 -0.00692281 0)
(-0.000205234 -0.00706279 0)
(-0.000206561 -0.00718018 0)
(-0.000205254 -0.00727462 0)
(-0.000201065 -0.00734592 0)
(-0.000193731 -0.00739384 0)
(-0.000182987 -0.00741817 0)
(-0.00016865 -0.0074188 0)
(-0.000150691 -0.00739569 0)
(-0.000129299 -0.00734883 0)
(-0.000104574 -0.0072778 0)
(-7.57517e-05 -0.00718191 0)
(-4.06491e-05 -0.00706007 0)
(4.38113e-06 -0.00691192 0)
(6.30338e-05 -0.00673954 0)
(0.000136334 -0.00654837 0)
(0.000221477 -0.00633508 0)
(0.000313965 -0.00605982 0)
(0.000410514 -0.00567684 0)
(0.000502724 -0.00520476 0)
(0.000633148 -0.00469347 0)
(0.000829948 -0.0042418 0)
(0.00113275 -0.00364409 0)
(0.00164985 -0.00290623 0)
(0.00249863 -0.00200217 0)
(0.00324058 -0.00262432 0)
(0.00304828 -0.00202223 0)
(0.00246538 -0.000801137 0)
(0.00231629 -0.000610679 0)
(0.00371267 -0.00137839 0)
(0.00711696 -0.00084182 0)
(0.0118533 0.0021678 0)
(-8.3097e-07 -0.000262148 0)
(-7.72712e-06 -0.000767384 0)
(-2.0959e-05 -0.00125321 0)
(-3.98481e-05 -0.00171934 0)
(-6.35984e-05 -0.00216563 0)
(-9.15569e-05 -0.00259204 0)
(-0.000123189 -0.00299863 0)
(-0.000158008 -0.00338548 0)
(-0.000195559 -0.00375272 0)
(-0.000235415 -0.00410048 0)
(-0.000277176 -0.00442889 0)
(-0.000320467 -0.00473812 0)
(-0.000364932 -0.00502831 0)
(-0.000410234 -0.00529961 0)
(-0.000456048 -0.00555217 0)
(-0.000502057 -0.00578614 0)
(-0.000547957 -0.00600171 0)
(-0.000593452 -0.00619905 0)
(-0.000638241 -0.0063785 0)
(-0.000682039 -0.00654011 0)
(-0.000724547 -0.00668353 0)
(-0.000765417 -0.00680894 0)
(-0.000804289 -0.00691648 0)
(-0.000840785 -0.0070063 0)
(-0.000874509 -0.00707858 0)
(-0.000905042 -0.00713343 0)
(-0.000931953 -0.00717101 0)
(-0.000954789 -0.00719145 0)
(-0.000973063 -0.00719487 0)
(-0.000986242 -0.00718143 0)
(-0.000993724 -0.00715131 0)
(-0.000994883 -0.00710486 0)
(-0.000989125 -0.00704262 0)
(-0.00097588 -0.0069653 0)
(-0.000954312 -0.00687356 0)
(-0.000922789 -0.006768 0)
(-0.000878671 -0.00664935 0)
(-0.000819144 -0.0065192 0)
(-0.000741866 -0.00637937 0)
(-0.000646636 -0.00623425 0)
(-0.000531458 -0.00606557 0)
(-0.000388976 -0.00586455 0)
(-0.00021179 -0.00561801 0)
(-2.5736e-05 -0.00556798 0)
(0.000163519 -0.00545099 0)
(0.000394695 -0.00539516 0)
(0.000698401 -0.00553895 0)
(0.00103301 -0.00592962 0)
(0.00130118 -0.00584868 0)
(0.00158815 -0.00501781 0)
(-4.17554e-07 -0.000222772 0)
(-4.79248e-06 -0.000655881 0)
(-1.35602e-05 -0.00107615 0)
(-2.64129e-05 -0.00148307 0)
(-4.28813e-05 -0.00187615 0)
(-6.25523e-05 -0.00225502 0)
(-8.50678e-05 -0.00261939 0)
(-0.000110086 -0.00296906 0)
(-0.000137273 -0.00330386 0)
(-0.000166302 -0.00362364 0)
(-0.000196856 -0.00392831 0)
(-0.000228628 -0.0042178 0)
(-0.000261316 -0.00449204 0)
(-0.00029463 -0.00475102 0)
(-0.000328282 -0.0049947 0)
(-0.000361994 -0.00522313 0)
(-0.000395496 -0.00543638 0)
(-0.000428523 -0.00563449 0)
(-0.00046082 -0.00581783 0)
(-0.000492144 -0.00598637 0)
(-0.000522245 -0.00614065 0)
(-0.000550857 -0.00628085 0)
(-0.000577718 -0.00640715 0)
(-0.000602571 -0.00651981 0)
(-0.00062516 -0.00661921 0)
(-0.000645223 -0.00670568 0)
(-0.000662496 -0.00677961 0)
(-0.000676714 -0.00684146 0)
(-0.000687612 -0.00689173 0)
(-0.000694921 -0.00693102 0)
(-0.000698369 -0.00695997 0)
(-0.000697692 -0.00697932 0)
(-0.00069263 -0.00698989 0)
(-0.000682942 -0.00699263 0)
(-0.000668399 -0.00698855 0)
(-0.000648787 -0.00697884 0)
(-0.000623907 -0.00696486 0)
(-0.000593625 -0.00694823 0)
(-0.000557858 -0.00693081 0)
(-0.000516508 -0.00691463 0)
(-0.000469204 -0.0069019 0)
(-0.00041548 -0.00689526 0)
(-0.000355031 -0.00689849 0)
(-0.000289182 -0.00691555 0)
(-0.000223024 -0.00694623 0)
(-0.000173468 -0.00699207 0)
(-0.000139498 -0.00702519 0)
(-0.000113765 -0.00701562 0)
(-9.01354e-05 -0.00692504 0)
(-3.29448e-05 -0.00681494 0)
(-4.10242e-07 -0.000200316 0)
(-3.63309e-06 -0.000592027 0)
(-9.90413e-06 -0.000974281 0)
(-1.89772e-05 -0.0013465 0)
(-3.05542e-05 -0.00170818 0)
(-4.43757e-05 -0.00205897 0)
(-6.02085e-05 -0.00239869 0)
(-7.78169e-05 -0.00272718 0)
(-9.69597e-05 -0.00304432 0)
(-0.000117392 -0.00335 0)
(-0.000138868 -0.00364415 0)
(-0.00016114 -0.00392669 0)
(-0.00018396 -0.00419758 0)
(-0.000207082 -0.00445679 0)
(-0.000230256 -0.00470427 0)
(-0.000253236 -0.00494005 0)
(-0.000275773 -0.00516417 0)
(-0.000297616 -0.00537668 0)
(-0.000318502 -0.00557783 0)
(-0.000338207 -0.00576682 0)
(-0.000356563 -0.00594413 0)
(-0.000373404 -0.0061099 0)
(-0.000388542 -0.00626426 0)
(-0.000401794 -0.00640726 0)
(-0.000412985 -0.0065392 0)
(-0.000421942 -0.00666028 0)
(-0.000428507 -0.00677064 0)
(-0.000432537 -0.00687047 0)
(-0.0004339 -0.00695995 0)
(-0.000432483 -0.00703931 0)
(-0.000428194 -0.00710874 0)
(-0.00042096 -0.00716847 0)
(-0.000410741 -0.0072187 0)
(-0.000397524 -0.00725965 0)
(-0.000381335 -0.00729153 0)
(-0.000362241 -0.00731453 0)
(-0.000340359 -0.00732882 0)
(-0.000315866 -0.00733457 0)
(-0.000289007 -0.0073319 0)
(-0.000260107 -0.0073209 0)
(-0.000229579 -0.0073016 0)
(-0.000197942 -0.00727403 0)
(-0.000165854 -0.00723814 0)
(-0.000134171 -0.0071938 0)
(-0.000103895 -0.0071407 0)
(-7.58807e-05 -0.00707806 0)
(-4.97803e-05 -0.00700294 0)
(-2.34124e-05 -0.00691019 0)
(2.01903e-06 -0.00682544 0)
(1.09479e-05 -0.00677407 0)
(-2.0412e-07 -0.000181844 0)
(-2.75293e-06 -0.00053881 0)
(-8.01468e-06 -0.000888614 0)
(-1.58729e-05 -0.00123075 0)
(-2.60965e-05 -0.00156476 0)
(-3.84784e-05 -0.00189034 0)
(-5.28376e-05 -0.00220734 0)
(-6.89981e-05 -0.00251564 0)
(-8.67836e-05 -0.00281514 0)
(-0.000106019 -0.00310577 0)
(-0.000126529 -0.00338746 0)
(-0.000148144 -0.00366013 0)
(-0.000170696 -0.00392377 0)
(-0.000194017 -0.00417833 0)
(-0.000217946 -0.00442379 0)
(-0.000242324 -0.00466017 0)
(-0.000266992 -0.00488751 0)
(-0.0002918 -0.00510584 0)
(-0.000316625 -0.00531526 0)
(-0.000341319 -0.00551477 0)
(-0.000365724 -0.00570442 0)
(-0.000389693 -0.00588476 0)
(-0.000413066 -0.0060559 0)
(-0.00043569 -0.00621785 0)
(-0.000457418 -0.00637084 0)
(-0.000478119 -0.00651499 0)
(-0.000497664 -0.00665038 0)
(-0.000515924 -0.00677711 0)
(-0.000532774 -0.00689531 0)
(-0.000548098 -0.00700509 0)
(-0.00056178 -0.00710656 0)
(-0.000573711 -0.00719981 0)
(-0.000583787 -0.00728494 0)
(-0.000591907 -0.00736204 0)
(-0.000597974 -0.00743115 0)
(-0.000601894 -0.00749232 0)
(-0.000603578 -0.00754556 0)
(-0.000602936 -0.00759087 0)
(-0.000599881 -0.0076282 0)
(-0.000594326 -0.00765747 0)
(-0.000586181 -0.00767854 0)
(-0.000575354 -0.00769124 0)
(-0.000561748 -0.00769534 0)
(-0.000545259 -0.00769053 0)
(-0.000525758 -0.00767643 0)
(-0.000503049 -0.00765258 0)
(-0.000476884 -0.00761851 0)
(-0.000447105 -0.00757372 0)
(-0.000413956 -0.00751776 0)
(-0.000378095 -0.00744987 0)
(-3.69491e-07 -0.000163052 0)
(-3.08885e-06 -0.000484898 0)
(-8.33111e-06 -0.000801889 0)
(-1.59002e-05 -0.0011134 0)
(-2.55778e-05 -0.00141886 0)
(-3.71914e-05 -0.00171791 0)
(-5.05977e-05 -0.00201034 0)
(-6.56591e-05 -0.00229598 0)
(-8.22405e-05 -0.00257469 0)
(-0.00010021 -0.00284631 0)
(-0.000119441 -0.0031107 0)
(-0.00013981 -0.00336773 0)
(-0.000161198 -0.00361729 0)
(-0.000183492 -0.00385928 0)
(-0.00020658 -0.00409356 0)
(-0.000230355 -0.00432009 0)
(-0.000254717 -0.00453884 0)
(-0.00027957 -0.00474973 0)
(-0.000304817 -0.00495275 0)
(-0.000330344 -0.00514764 0)
(-0.000356021 -0.00533421 0)
(-0.000381733 -0.00551311 0)
(-0.000407382 -0.00568435 0)
(-0.000432866 -0.00584793 0)
(-0.000458087 -0.00600392 0)
(-0.00048295 -0.00615237 0)
(-0.000507361 -0.00629336 0)
(-0.000531226 -0.00642696 0)
(-0.000554451 -0.00655325 0)
(-0.000576944 -0.00667233 0)
(-0.000598612 -0.00678429 0)
(-0.000619359 -0.00688924 0)
(-0.000639091 -0.00698728 0)
(-0.000657708 -0.00707853 0)
(-0.000675109 -0.0071631 0)
(-0.000691187 -0.00724111 0)
(-0.00070583 -0.00731267 0)
(-0.000718917 -0.0073779 0)
(-0.00073032 -0.00743693 0)
(-0.000739897 -0.00748987 0)
(-0.000747497 -0.00753684 0)
(-0.000752951 -0.00757796 0)
(-0.000756071 -0.00761335 0)
(-0.000756649 -0.00764312 0)
(-0.000754453 -0.0076674 0)
(-0.00074922 -0.00768631 0)
(-0.00074066 -0.00770004 0)
(-0.000728458 -0.0077087 0)
(-0.000712255 -0.00771245 0)
(-0.000691611 -0.00771146 0)
(-6.01488e-08 -0.000148349 0)
(-1.25158e-06 -0.000442835 0)
(-3.79317e-06 -0.000734406 0)
(-7.64588e-06 -0.00102233 0)
(-1.2696e-05 -0.00130596 0)
(-1.884e-05 -0.00158483 0)
(-2.59892e-05 -0.00185867 0)
(-3.40589e-05 -0.00212727 0)
(-4.29647e-05 -0.00239042 0)
(-5.26229e-05 -0.00264794 0)
(-6.29502e-05 -0.00289964 0)
(-7.38641e-05 -0.00314536 0)
(-8.52826e-05 -0.00338495 0)
(-9.71239e-05 -0.00361828 0)
(-0.000109305 -0.00384524 0)
(-0.000121745 -0.00406572 0)
(-0.00013436 -0.00427967 0)
(-0.000147071 -0.00448701 0)
(-0.000159797 -0.00468774 0)
(-0.000172454 -0.00488179 0)
(-0.000184943 -0.00506901 0)
(-0.000197172 -0.00524963 0)
(-0.000209068 -0.00542365 0)
(-0.000220555 -0.0055911 0)
(-0.000231557 -0.0057519 0)
(-0.000242003 -0.00590624 0)
(-0.000251813 -0.00605417 0)
(-0.000260909 -0.00619578 0)
(-0.000269211 -0.0063312 0)
(-0.000276636 -0.00646054 0)
(-0.0002831 -0.00658392 0)
(-0.000288514 -0.00670147 0)
(-0.000292791 -0.00681335 0)
(-0.000295838 -0.00691969 0)
(-0.00029756 -0.00702067 0)
(-0.000297857 -0.00711646 0)
(-0.000296628 -0.00720724 0)
(-0.000293766 -0.00729321 0)
(-0.000289159 -0.00737458 0)
(-0.000282691 -0.00745157 0)
(-0.00027424 -0.00752441 0)
(-0.000263679 -0.00759333 0)
(-0.000250875 -0.0076586 0)
(-0.000235688 -0.00772049 0)
(-0.000217971 -0.00777928 0)
(-0.000197574 -0.00783528 0)
(-0.000174338 -0.00788881 0)
(-0.000148099 -0.00794021 0)
(-0.000118686 -0.00798988 0)
(-8.59304e-05 -0.00803819 0)
(-1.02638e-07 -0.000144075 0)
(-4.64864e-07 -0.000430474 0)
(-1.03064e-06 -0.000714436 0)
(-1.74502e-06 -0.000995245 0)
(-2.58028e-06 -0.00127226 0)
(-3.51895e-06 -0.00154506 0)
(-4.54392e-06 -0.00181338 0)
(-5.6361e-06 -0.00207705 0)
(-6.77426e-06 -0.00233589 0)
(-7.93607e-06 -0.00258973 0)
(-9.09774e-06 -0.0028384 0)
(-1.02344e-05 -0.00308178 0)
(-1.132e-05 -0.00331973 0)
(-1.23274e-05 -0.00355214 0)
(-1.32283e-05 -0.00377891 0)
(-1.39938e-05 -0.00399999 0)
(-1.45936e-05 -0.00421528 0)
(-1.49965e-05 -0.00442475 0)
(-1.51721e-05 -0.0046284 0)
(-1.50882e-05 -0.00482621 0)
(-1.4711e-05 -0.00501819 0)
(-1.40076e-05 -0.00520436 0)
(-1.29465e-05 -0.00538475 0)
(-1.14987e-05 -0.00555942 0)
(-9.62755e-06 -0.00572832 0)
(-7.29546e-06 -0.00589163 0)
(-4.47039e-06 -0.00604944 0)
(-1.1189e-06 -0.0062018 0)
(2.79107e-06 -0.0063489 0)
(7.29144e-06 -0.00649086 0)
(1.24145e-05 -0.00662783 0)
(1.81943e-05 -0.00675999 0)
(2.46665e-05 -0.0068875 0)
(3.18676e-05 -0.00701054 0)
(3.98356e-05 -0.00712932 0)
(4.86097e-05 -0.00724405 0)
(5.8231e-05 -0.00735493 0)
(6.87425e-05 -0.00746219 0)
(8.01895e-05 -0.00756608 0)
(9.26196e-05 -0.00766684 0)
(0.000106083 -0.00776473 0)
(0.000120633 -0.00786 0)
(0.000136326 -0.00795294 0)
(0.000153221 -0.00804381 0)
(0.000171381 -0.00813289 0)
(0.000190873 -0.00822047 0)
(0.000211764 -0.00830681 0)
(0.000234126 -0.0083922 0)
(0.000258031 -0.00847691 0)
(0.000283548 -0.00856111 0)
(1.85433e-07 -0.000146185 0)
(1.34733e-06 -0.00043667 0)
(3.53233e-06 -0.000724599 0)
(6.65166e-06 -0.00100928 0)
(1.06292e-05 -0.00129007 0)
(1.54111e-05 -0.00156656 0)
(2.09563e-05 -0.00183849 0)
(2.72261e-05 -0.00210569 0)
(3.41838e-05 -0.00236799 0)
(4.17943e-05 -0.00262524 0)
(5.00248e-05 -0.00287727 0)
(5.88444e-05 -0.00312397 0)
(6.82238e-05 -0.0033652 0)
(7.81354e-05 -0.00360086 0)
(8.85526e-05 -0.00383088 0)
(9.94498e-05 -0.00405517 0)
(0.000110802 -0.00427367 0)
(0.000122586 -0.00448635 0)
(0.000134776 -0.00469317 0)
(0.000147347 -0.00489412 0)
(0.000160275 -0.00508921 0)
(0.000173531 -0.00527845 0)
(0.00018709 -0.00546187 0)
(0.000200923 -0.0056395 0)
(0.000215003 -0.00581142 0)
(0.000229297 -0.00597768 0)
(0.000243775 -0.00613838 0)
(0.000258401 -0.00629357 0)
(0.000273141 -0.00644339 0)
(0.000287955 -0.00658795 0)
(0.000302804 -0.00672739 0)
(0.000317642 -0.00686187 0)
(0.000332424 -0.00699156 0)
(0.000347101 -0.00711666 0)
(0.000361626 -0.00723737 0)
(0.000375947 -0.00735388 0)
(0.000390012 -0.00746645 0)
(0.000403771 -0.0075753 0)
(0.000417171 -0.00768072 0)
(0.000430163 -0.00778298 0)
(0.000442698 -0.00788238 0)
(0.000454734 -0.00797924 0)
(0.000466228 -0.00807389 0)
(0.00047715 -0.00816669 0)
(0.000487474 -0.00825801 0)
(0.000497185 -0.00834821 0)
(0.000506284 -0.0084377 0)
(0.000514784 -0.00852687 0)
(0.000522727 -0.00861612 0)
(0.000530197 -0.00870581 0)
(1.44834e-07 -0.000157194 0)
(1.98499e-06 -0.000468223 0)
(5.7917e-06 -0.000775366 0)
(1.14904e-05 -0.00107807 0)
(1.89338e-05 -0.0013758 0)
(2.79997e-05 -0.00166822 0)
(3.85939e-05 -0.00195515 0)
(5.06323e-05 -0.00223646 0)
(6.40371e-05 -0.00251203 0)
(7.87356e-05 -0.00278176 0)
(9.46603e-05 -0.00304553 0)
(0.000111748 -0.00330325 0)
(0.000129941 -0.00355483 0)
(0.000149182 -0.00380019 0)
(0.00016942 -0.00403926 0)
(0.000190602 -0.004272 0)
(0.000212681 -0.00449835 0)
(0.000235607 -0.00471828 0)
(0.000259333 -0.00493176 0)
(0.00028381 -0.00513876 0)
(0.000308988 -0.00533928 0)
(0.000334815 -0.00553333 0)
(0.000361238 -0.0057209 0)
(0.000388199 -0.00590201 0)
(0.000415638 -0.0060767 0)
(0.000443491 -0.00624499 0)
(0.000471685 -0.00640694 0)
(0.000500147 -0.00656261 0)
(0.000528793 -0.00671206 0)
(0.000557535 -0.00685537 0)
(0.000586273 -0.00699263 0)
(0.000614901 -0.00712395 0)
(0.000643301 -0.00724947 0)
(0.000671342 -0.00736932 0)
(0.000698882 -0.00748366 0)
(0.000725765 -0.00759267 0)
(0.000751821 -0.00769656 0)
(0.000776862 -0.00779556 0)
(0.000800683 -0.00788992 0)
(0.00082306 -0.00797993 0)
(0.000843746 -0.00806593 0)
(0.000862475 -0.00814828 0)
(0.000878952 -0.0082274 0)
(0.000892857 -0.00830374 0)
(0.000903842 -0.00837784 0)
(0.000911519 -0.00845026 0)
(0.000915497 -0.00852162 0)
(0.000915555 -0.00859269 0)
(0.00091182 -0.00866435 0)
(0.000904792 -0.0087381 0)
(3.23023e-07 -0.000173417 0)
(2.71792e-06 -0.000514675 0)
(7.35167e-06 -0.000850062 0)
(1.40696e-05 -0.00117925 0)
(2.27065e-05 -0.0015019 0)
(3.31416e-05 -0.00181782 0)
(4.52858e-05 -0.00212696 0)
(5.90595e-05 -0.00242932 0)
(7.43889e-05 -0.0027249 0)
(9.12058e-05 -0.00301366 0)
(0.000109448 -0.00329559 0)
(0.000129057 -0.00357066 0)
(0.000149981 -0.00383884 0)
(0.00017217 -0.0041001 0)
(0.000195575 -0.00435441 0)
(0.000220154 -0.00460175 0)
(0.000245862 -0.00484209 0)
(0.000272656 -0.0050754 0)
(0.000300494 -0.00530164 0)
(0.000329333 -0.00552078 0)
(0.000359128 -0.0057328 0)
(0.000389833 -0.00593765 0)
(0.000421397 -0.00613529 0)
(0.00045377 -0.00632569 0)
(0.000486892 -0.00650879 0)
(0.000520703 -0.00668455 0)
(0.000555134 -0.0068529 0)
(0.000590108 -0.0070138 0)
(0.000625543 -0.00716717 0)
(0.000661344 -0.00731294 0)
(0.000697409 -0.00745103 0)
(0.00073362 -0.00758133 0)
(0.000769848 -0.00770376 0)
(0.000805948 -0.00781818 0)
(0.000841756 -0.00792448 0)
(0.00087709 -0.00802252 0)
(0.000911745 -0.00811212 0)
(0.000945491 -0.00819311 0)
(0.000978072 -0.00826531 0)
(0.0010092 -0.00832847 0)
(0.00103855 -0.00838237 0)
(0.00106577 -0.0084267 0)
(0.0010905 -0.00846113 0)
(0.0011124 -0.00848529 0)
(0.00113122 -0.00849888 0)
(0.00114672 -0.00850182 0)
(0.00115831 -0.00849439 0)
(0.00116421 -0.00847734 0)
(0.0011599 -0.00845263 0)
(0.00113538 -0.00846566 0)
(0.051176 0.0737058 0)
(0.0511699 0.0747244 0)
(0.0528444 0.0752674 0)
(0.0550677 0.0774605 0)
(0.057104 0.0781259 0)
(0.0585719 0.0771693 0)
(0.0597232 0.0731934 0)
(0.0638109 0.0915578 0)
(0.0665858 0.1046 0)
(0.0688766 0.111396 0)
(0.0714044 0.108065 0)
(0.074365 0.101092 0)
(0.0791115 0.0625169 0)
(0.0815642 -0.0213655 0)
(0.0842295 0.0424401 0)
(0.0936161 0.12354 0)
(0.0965763 0.134074 0)
(0.0988592 0.136067 0)
(0.102009 0.128078 0)
(0.106746 0.102319 0)
(0.115452 0.0200739 0)
(0.115374 0.0133916 0)
(0.114784 -0.00191878 0)
(0.113835 -0.0435355 0)
(0.11423 -0.0189443 0)
(0.122456 0.0841175 0)
(0.125183 0.0986345 0)
(0.127178 0.10401 0)
(0.129398 0.097254 0)
(0.133112 0.0755019 0)
(0.138189 0.0698022 0)
(0.138047 0.0281393 0)
(0.138916 0.0264489 0)
(0.139279 0.0266838 0)
(0.139779 0.0160879 0)
(0.141118 -0.00973584 0)
(0.146629 0.0108616 0)
(0.152188 0.050028 0)
(0.15392 0.0572825 0)
(0.155356 0.0545239 0)
(0.157432 0.0436804 0)
(0.160874 0.0104744 0)
(0.164084 -0.00741716 0)
(0.164352 0.0271598 0)
(0.1665 0.0177126 0)
(0.167966 0.0213316 0)
(0.169183 0.0191152 0)
(0.170849 0.0099 0)
(0.173071 -0.000457775 0)
(0.175665 -0.000572196 0)
(0.0636726 0.0279526 0)
(0.0671148 0.0265061 0)
(0.0706018 0.0269046 0)
(0.0739422 0.0273555 0)
(0.0771729 0.0273495 0)
(0.0801531 0.0268771 0)
(0.0820867 0.0267023 0)
(0.0838791 0.0267044 0)
(0.087198 0.0260458 0)
(0.0919475 0.0246297 0)
(0.0971801 0.0234712 0)
(0.101823 0.0224866 0)
(0.10425 0.021671 0)
(0.101764 0.0215705 0)
(0.0967049 0.0223991 0)
(0.0973575 0.0228942 0)
(0.101455 0.0230465 0)
(0.107107 0.0219288 0)
(0.112634 0.0209437 0)
(0.116334 0.0198839 0)
(0.116518 0.0192443 0)
(0.114637 0.0188415 0)
(0.11291 0.0173904 0)
(0.108979 0.014755 0)
(0.105636 0.0153788 0)
(0.106706 0.0157122 0)
(0.10934 0.0157416 0)
(0.112519 0.015088 0)
(0.115454 0.0121524 0)
(0.11765 0.00887981 0)