/*--------------------------------*- C++ -*----------------------------------*\
| =========                 |                                                 |
| \\      /  F ield         | OpenFOAM: The Open Source CFD Toolbox           |
|  \\    /   O peration     | Version:  2.4.0                                 |
|   \\  /    A nd           | Web:      www.OpenFOAM.org                      |
|    \\/     M anipulation  |                                                 |
\*---------------------------------------------------------------------------*/
FoamFile
{
    version     2.0;
    format      ascii;
    class       volScalarField;
    location    "4.6";
    object      T;
}
// * * * * * * * * * * * * * * * * * * * * * * * * * * * * * * * * * * * * * //

dimensions      [0 0 0 1 0 0 0];

internalField   nonuniform List<scalar> 
125
(
293.092
293.092
293.092
293.092
293.092
293.278
293.278
293.278
293.278
293.278
293.465
293.466
293.466
293.466
293.465
293.655
293.655
293.655
293.655
293.655
293.847
293.847
293.847
293.847
293.847
294.041
294.041
294.041
294.041
294.041
294.238
294.238
294.238
294.238
294.238
294.436
294.436
294.436
294.436
294.436
294.637
294.637
294.637
294.637
294.637
294.84
294.84
294.84
294.84
294.84
295.045
295.046
295.046
295.046
295.045
295.253
295.253
295.254
295.254
295.253
295.464
295.464
295.464
295.464
295.464
295.676
295.677
295.677
295.677
295.676
295.892
295.892
295.892
295.892
295.892
296.109
296.11
296.11
296.11
296.109
296.33
296.33
296.33
296.33
296.33
296.553
296.553
296.554
296.553
296.553
296.778
296.779
296.779
296.779
296.778
297.007
297.007
297.008
297.007
297.007
297.238
297.238
297.239
297.239
297.238
297.472
297.472
297.473
297.472
297.471
297.708
297.709
297.71
297.709
297.708
297.993
297.993
297.994
297.993
297.993
297.993
297.993
297.994
297.993
297.993
)
;

boundaryField
{
    BotWall
    {
        type            fixedValue;
        value           uniform 293;
    }
    FreeStream
    {
        type            fixedValue;
        value           nonuniform 0();
    }
    FrontNBack
    {
        type            empty;
    }
    LeftSide
    {
        type            symmetryPlane;
    }
    RightSide
    {
        type            symmetryPlane;
    }
    procBoundary0to1
    {
        type            processor;
        value           nonuniform List<scalar> 5(297.993 297.993 297.994 297.993 297.993);
    }
}


// ************************************************************************* //
