/*--------------------------------*- C++ -*----------------------------------*\
| =========                 |                                                 |
| \\      /  F ield         | OpenFOAM: The Open Source CFD Toolbox           |
|  \\    /   O peration     | Version:  2.4.0                                 |
|   \\  /    A nd           | Web:      www.OpenFOAM.org                      |
|    \\/     M anipulation  |                                                 |
\*---------------------------------------------------------------------------*/
FoamFile
{
    version     2.0;
    format      ascii;
    class       volScalarField;
    location    "0.003";
    object      p_rgh;
}
// * * * * * * * * * * * * * * * * * * * * * * * * * * * * * * * * * * * * * //

dimensions      [1 -1 -2 0 0 0 0];

internalField   nonuniform List<scalar> 
125
(
-0.0601196
-0.0604379
-0.0607523
-0.0610631
-0.0613703
-0.0616738
-0.0619737
-0.0622699
-0.0625625
-0.0628514
-0.0631366
-0.0634181
-0.0636958
-0.0639699
-0.0642401
-0.0645067
-0.0647694
-0.0650284
-0.0652836
-0.0655349
-0.0657825
-0.0660262
-0.0662661
-0.0665021
-0.0667343
-0.0669626
-0.067187
-0.0674076
-0.0676242
-0.0678369
-0.0680458
-0.0682507
-0.0684516
-0.0686487
-0.0688417
-0.0690309
-0.069216
-0.0693972
-0.0695745
-0.0697477
-0.069917
-0.0700823
-0.0702435
-0.0704008
-0.0705541
-0.0707034
-0.0708486
-0.0709898
-0.071127
-0.0712602
-0.0713894
-0.0715145
-0.0716356
-0.0717527
-0.0718657
-0.0719747
-0.0720797
-0.0721806
-0.0722775
-0.0723704
-0.0724592
-0.072544
-0.0726247
-0.0727014
-0.0727741
-0.0728427
-0.0729073
-0.0729679
-0.0730244
-0.0730769
-0.0731254
-0.0731699
-0.0732103
-0.0732468
-0.0732792
-0.0733076
-0.0733321
-0.0733525
-0.0733689
-0.0733814
-0.0733899
-0.0733944
-0.0733949
-0.0733914
-0.0733841
-0.0733727
-0.0733574
-0.0733382
-0.073315
-0.073288
-0.073257
-0.0732221
-0.0731833
-0.0731406
-0.073094
-0.0730436
-0.0729893
-0.0729311
-0.0728691
-0.0728032
-0.0727336
-0.0726601
-0.0725828
-0.0725017
-0.0724168
-0.0723281
-0.0722357
-0.0721395
-0.0720395
-0.0719358
-0.0718284
-0.0717173
-0.0716025
-0.071484
-0.0713618
-0.0712359
-0.0711064
-0.0709732
-0.0708364
-0.070696
-0.0705519
-0.0704041
-0.0702524
-0.0700967
-0.069937
)
;

boundaryField
{
    BotWall
    {
        type            fixedFluxPressure;
        gradient        nonuniform 0();
        value           nonuniform 0();
    }
    FreeStream
    {
        type            totalPressure;
        rho             rho;
        psi             none;
        gamma           1;
        p0              nonuniform 0();
        value           nonuniform 0();
    }
    FrontNBack
    {
        type            empty;
    }
    LeftSide
    {
        type            symmetryPlane;
    }
    RightSide
    {
        type            symmetryPlane;
    }
    procBoundary6to3
    {
        type            processor;
        value           nonuniform List<scalar> 
50
(
-0.127416
-0.126761
-0.126107
-0.125455
-0.124804
-0.124156
-0.123509
-0.122864
-0.122221
-0.12158
-0.120941
-0.120304
-0.119668
-0.119034
-0.118402
-0.117772
-0.117144
-0.116517
-0.115892
-0.115269
-0.114647
-0.114028
-0.11341
-0.112793
-0.112178
-0.111565
-0.110954
-0.110344
-0.109736
-0.109129
-0.108524
-0.10792
-0.107318
-0.106717
-0.106118
-0.105521
-0.104925
-0.10433
-0.103737
-0.103145
-0.102554
-0.101965
-0.101378
-0.100791
-0.100206
-0.0996226
-0.0990401
-0.098459
-0.097879
-0.0973004
)
;
    }
    procBoundary6to4
    {
        type            processor;
        value           nonuniform List<scalar> 
75
(
-0.182079
-0.181276
-0.180475
-0.179676
-0.178878
-0.178083
-0.177289
-0.176498
-0.175708
-0.17492
-0.174134
-0.17335
-0.172568
-0.171788
-0.17101
-0.170234
-0.16946
-0.168688
-0.167918
-0.16715
-0.166384
-0.16562
-0.164858
-0.164098
-0.16334
-0.162585
-0.161831
-0.161079
-0.16033
-0.159582
-0.158836
-0.158093
-0.157351
-0.156612
-0.155875
-0.15514
-0.154407
-0.153676
-0.152947
-0.15222
-0.151495
-0.150772
-0.150052
-0.149333
-0.148617
-0.147902
-0.14719
-0.14648
-0.145771
-0.145065
-0.144361
-0.143659
-0.14296
-0.142262
-0.141566
-0.140872
-0.140181
-0.139491
-0.138804
-0.138118
-0.137435
-0.136753
-0.136074
-0.135396
-0.134721
-0.134048
-0.133376
-0.132707
-0.13204
-0.131374
-0.130711
-0.130049
-0.129389
-0.128731
-0.128073
)
;
    }
    procBoundary6to5
    {
        type            processor;
        value           uniform -0.0697735;
    }
    procBoundary6to7
    {
        type            processor;
        value           uniform -0.0597976;
    }
    procBoundary6to8
    {
        type            processor;
        value           nonuniform List<scalar> 
75
(
-0.132545
-0.131912
-0.131281
-0.130651
-0.130023
-0.129397
-0.128773
-0.12815
-0.127529
-0.12691
-0.126293
-0.125677
-0.125063
-0.124451
-0.12384
-0.123232
-0.122625
-0.122019
-0.121416
-0.120814
-0.120214
-0.119615
-0.119019
-0.118424
-0.11783
-0.117238
-0.116648
-0.11606
-0.115473
-0.114888
-0.114304
-0.113723
-0.113142
-0.112564
-0.111986
-0.111411
-0.110837
-0.110265
-0.109694
-0.109125
-0.108557
-0.10799
-0.107426
-0.106862
-0.106301
-0.10574
-0.105182
-0.104624
-0.104068
-0.103514
-0.102961
-0.102409
-0.101858
-0.101309
-0.100762
-0.100215
-0.0996705
-0.0991268
-0.0985844
-0.0980433
-0.0975035
-0.0969649
-0.0964276
-0.0958914
-0.0953565
-0.0948228
-0.0942902
-0.0937588
-0.0932286
-0.0926995
-0.0921715
-0.0916446
-0.0911187
-0.090594
-0.0900703
)
;
    }
    procBoundary6to9
    {
        type            processor;
        value           nonuniform List<scalar> 
50
(
-0.166201
-0.165489
-0.164778
-0.164068
-0.163361
-0.162654
-0.161949
-0.161245
-0.160543
-0.159843
-0.159144
-0.158447
-0.157751
-0.157057
-0.156364
-0.155673
-0.154984
-0.154296
-0.15361
-0.152925
-0.152242
-0.151561
-0.150882
-0.150204
-0.149528
-0.148853
-0.148181
-0.147509
-0.14684
-0.146172
-0.145506
-0.144842
-0.14418
-0.143519
-0.14286
-0.142202
-0.141547
-0.140893
-0.140241
-0.13959
-0.138941
-0.138294
-0.137649
-0.137006
-0.136364
-0.135724
-0.135086
-0.134449
-0.133813
-0.133178
)
;
    }
}


// ************************************************************************* //
