/*--------------------------------*- C++ -*----------------------------------*\
| =========                 |                                                 |
| \\      /  F ield         | OpenFOAM: The Open Source CFD Toolbox           |
|  \\    /   O peration     | Version:  2.4.0                                 |
|   \\  /    A nd           | Web:      www.OpenFOAM.org                      |
|    \\/     M anipulation  |                                                 |
\*---------------------------------------------------------------------------*/
FoamFile
{
    version     2.0;
    format      ascii;
    class       volVectorField;
    location    "0.003";
    object      U;
}
// * * * * * * * * * * * * * * * * * * * * * * * * * * * * * * * * * * * * * //

dimensions      [0 1 -1 0 0 0 0];

internalField   nonuniform List<vector> 
125
(
(-0.000182263 -0.0514509 0)
(-0.000177845 -0.0514502 0)
(-0.000173643 -0.0514495 0)
(-0.000169666 -0.0514487 0)
(-0.000165921 -0.051448 0)
(-0.00016241 -0.0514473 0)
(-0.000159132 -0.0514467 0)
(-0.000156085 -0.051446 0)
(-0.00015326 -0.0514453 0)
(-0.000150647 -0.0514447 0)
(-0.000148236 -0.051444 0)
(-0.000146012 -0.0514434 0)
(-0.000143962 -0.0514427 0)
(-0.000142073 -0.0514421 0)
(-0.000140329 -0.0514415 0)
(-0.000138717 -0.0514408 0)
(-0.000137225 -0.0514402 0)
(-0.00013584 -0.0514396 0)
(-0.000134549 -0.051439 0)
(-0.000133344 -0.0514383 0)
(-0.000132213 -0.0514377 0)
(-0.000131148 -0.0514371 0)
(-0.000130141 -0.0514365 0)
(-0.000129184 -0.0514359 0)
(-0.00012827 -0.0514353 0)
(-0.000127394 -0.0514347 0)
(-0.00012655 -0.0514341 0)
(-0.000125734 -0.0514334 0)
(-0.000124942 -0.0514328 0)
(-0.000124169 -0.0514322 0)
(-0.000123413 -0.0514316 0)
(-0.000122671 -0.051431 0)
(-0.00012194 -0.0514304 0)
(-0.000121218 -0.0514298 0)
(-0.000120504 -0.0514292 0)
(-0.000119796 -0.0514286 0)
(-0.000119093 -0.051428 0)
(-0.000118393 -0.0514274 0)
(-0.000117696 -0.0514268 0)
(-0.000117001 -0.0514262 0)
(-0.000116307 -0.0514256 0)
(-0.000115614 -0.051425 0)
(-0.000114921 -0.0514244 0)
(-0.000114228 -0.0514238 0)
(-0.000113534 -0.0514232 0)
(-0.00011284 -0.0514226 0)
(-0.000112145 -0.051422 0)
(-0.000111449 -0.0514214 0)
(-0.000110753 -0.0514209 0)
(-0.000110055 -0.0514203 0)
(-0.000109356 -0.0514197 0)
(-0.000108656 -0.0514191 0)
(-0.000107955 -0.0514185 0)
(-0.000107252 -0.0514179 0)
(-0.000106549 -0.0514173 0)
(-0.000105845 -0.0514167 0)
(-0.00010514 -0.0514162 0)
(-0.000104433 -0.0514156 0)
(-0.000103726 -0.051415 0)
(-0.000103018 -0.0514144 0)
(-0.00010231 -0.0514138 0)
(-0.0001016 -0.0514133 0)
(-0.00010089 -0.0514127 0)
(-0.00010018 -0.0514121 0)
(-9.94687e-05 -0.0514116 0)
(-9.87571e-05 -0.051411 0)
(-9.80452e-05 -0.0514104 0)
(-9.73329e-05 -0.0514098 0)
(-9.66204e-05 -0.0514093 0)
(-9.59077e-05 -0.0514087 0)
(-9.51949e-05 -0.0514081 0)
(-9.4482e-05 -0.0514076 0)
(-9.37692e-05 -0.051407 0)
(-9.30564e-05 -0.0514065 0)
(-9.23437e-05 -0.0514059 0)
(-9.16313e-05 -0.0514053 0)
(-9.09191e-05 -0.0514048 0)
(-9.02073e-05 -0.0514042 0)
(-8.94959e-05 -0.0514037 0)
(-8.87848e-05 -0.0514031 0)
(-8.80744e-05 -0.0514026 0)
(-8.73644e-05 -0.051402 0)
(-8.66551e-05 -0.0514015 0)
(-8.59466e-05 -0.0514009 0)
(-8.52387e-05 -0.0514004 0)
(-8.45317e-05 -0.0513999 0)
(-8.38255e-05 -0.0513993 0)
(-8.31203e-05 -0.0513988 0)
(-8.24161e-05 -0.0513982 0)
(-8.17129e-05 -0.0513977 0)
(-8.10109e-05 -0.0513972 0)
(-8.031e-05 -0.0513966 0)
(-7.96104e-05 -0.0513961 0)
(-7.89121e-05 -0.0513956 0)
(-7.82152e-05 -0.0513951 0)
(-7.75197e-05 -0.0513945 0)
(-7.68257e-05 -0.051394 0)
(-7.61333e-05 -0.0513935 0)
(-7.54426e-05 -0.051393 0)
(-7.47536e-05 -0.0513925 0)
(-7.40664e-05 -0.0513919 0)
(-7.3381e-05 -0.0513914 0)
(-7.26977e-05 -0.0513909 0)
(-7.20163e-05 -0.0513904 0)
(-7.13371e-05 -0.0513899 0)
(-7.066e-05 -0.0513894 0)
(-6.99853e-05 -0.0513889 0)
(-6.93128e-05 -0.0513884 0)
(-6.86429e-05 -0.0513879 0)
(-6.79754e-05 -0.0513874 0)
(-6.73106e-05 -0.0513869 0)
(-6.66485e-05 -0.0513864 0)
(-6.59891e-05 -0.0513859 0)
(-6.53327e-05 -0.0513854 0)
(-6.46792e-05 -0.0513849 0)
(-6.40288e-05 -0.0513844 0)
(-6.33815e-05 -0.0513839 0)
(-6.27375e-05 -0.0513834 0)
(-6.20968e-05 -0.051383 0)
(-6.14595e-05 -0.0513825 0)
(-6.08257e-05 -0.051382 0)
(-6.01955e-05 -0.0513815 0)
(-5.9569e-05 -0.051381 0)
(-5.89462e-05 -0.0513806 0)
(-5.83273e-05 -0.0513801 0)
)
;

boundaryField
{
    BotWall
    {
        type            fixedValue;
        value           nonuniform 0();
    }
    FreeStream
    {
        type            zeroGradient;
    }
    FrontNBack
    {
        type            empty;
    }
    LeftSide
    {
        type            symmetryPlane;
    }
    RightSide
    {
        type            symmetryPlane;
    }
    procBoundary6to3
    {
        type            processor;
        value           nonuniform List<vector> 
50
(
(0.000127514 -0.0513863 0)
(0.000126657 -0.0513857 0)
(0.000125804 -0.051385 0)
(0.000124953 -0.0513844 0)
(0.000124104 -0.0513838 0)
(0.000123258 -0.0513831 0)
(0.000122415 -0.0513825 0)
(0.000121575 -0.0513819 0)
(0.000120738 -0.0513813 0)
(0.000119903 -0.0513806 0)
(0.000119072 -0.05138 0)
(0.000118244 -0.0513794 0)
(0.000117418 -0.0513788 0)
(0.000116596 -0.0513782 0)
(0.000115777 -0.0513776 0)
(0.000114962 -0.051377 0)
(0.000114149 -0.0513764 0)
(0.00011334 -0.0513758 0)
(0.000112534 -0.0513752 0)
(0.000111732 -0.0513746 0)
(0.000110932 -0.051374 0)
(0.000110136 -0.0513734 0)
(0.000109344 -0.0513728 0)
(0.000108554 -0.0513723 0)
(0.000107768 -0.0513717 0)
(0.000106986 -0.0513711 0)
(0.000106206 -0.0513705 0)
(0.00010543 -0.05137 0)
(0.000104657 -0.0513694 0)
(0.000103888 -0.0513689 0)
(0.000103121 -0.0513683 0)
(0.000102358 -0.0513677 0)
(0.000101598 -0.0513672 0)
(0.000100841 -0.0513666 0)
(0.000100088 -0.0513661 0)
(9.93369e-05 -0.0513656 0)
(9.85893e-05 -0.051365 0)
(9.78446e-05 -0.0513645 0)
(9.7103e-05 -0.0513639 0)
(9.63643e-05 -0.0513634 0)
(9.56286e-05 -0.0513629 0)
(9.48957e-05 -0.0513624 0)
(9.41656e-05 -0.0513618 0)
(9.34384e-05 -0.0513613 0)
(9.2714e-05 -0.0513608 0)
(9.19923e-05 -0.0513603 0)
(9.12734e-05 -0.0513598 0)
(9.05571e-05 -0.0513593 0)
(8.98436e-05 -0.0513588 0)
(8.91327e-05 -0.0513583 0)
)
;
    }
    procBoundary6to4
    {
        type            processor;
        value           nonuniform List<vector> 
75
(
(0.000230797 -0.0514428 0)
(0.000225855 -0.0514418 0)
(0.000221175 -0.0514408 0)
(0.000216799 -0.0514399 0)
(0.000212742 -0.0514389 0)
(0.000209006 -0.051438 0)
(0.000205581 -0.0514371 0)
(0.000202449 -0.0514362 0)
(0.000199586 -0.0514353 0)
(0.00019697 -0.0514345 0)
(0.000194574 -0.0514336 0)
(0.000192376 -0.0514328 0)
(0.000190352 -0.051432 0)
(0.000188481 -0.0514311 0)
(0.000186744 -0.0514303 0)
(0.000185124 -0.0514295 0)
(0.000183606 -0.0514287 0)
(0.000182175 -0.0514279 0)
(0.00018082 -0.0514271 0)
(0.00017953 -0.0514263 0)
(0.000178297 -0.0514255 0)
(0.000177112 -0.0514248 0)
(0.000175969 -0.051424 0)
(0.000174861 -0.0514232 0)
(0.000173784 -0.0514224 0)
(0.000172734 -0.0514217 0)
(0.000171705 -0.0514209 0)
(0.000170696 -0.0514201 0)
(0.000169703 -0.0514194 0)
(0.000168725 -0.0514186 0)
(0.000167758 -0.0514179 0)
(0.000166802 -0.0514171 0)
(0.000165855 -0.0514164 0)
(0.000164916 -0.0514156 0)
(0.000163983 -0.0514149 0)
(0.000163056 -0.0514141 0)
(0.000162134 -0.0514134 0)
(0.000161216 -0.0514127 0)
(0.000160302 -0.0514119 0)
(0.000159391 -0.0514112 0)
(0.000158482 -0.0514105 0)
(0.000157576 -0.0514097 0)
(0.000156672 -0.051409 0)
(0.00015577 -0.0514083 0)
(0.00015487 -0.0514076 0)
(0.00015397 -0.0514068 0)
(0.000153072 -0.0514061 0)
(0.000152176 -0.0514054 0)
(0.00015128 -0.0514047 0)
(0.000150385 -0.051404 0)
(0.000149491 -0.0514033 0)
(0.000148598 -0.0514026 0)
(0.000147705 -0.0514019 0)
(0.000146814 -0.0514011 0)
(0.000145923 -0.0514004 0)
(0.000145034 -0.0513998 0)
(0.000144145 -0.0513991 0)
(0.000143257 -0.0513984 0)
(0.00014237 -0.0513977 0)
(0.000141484 -0.051397 0)
(0.000140599 -0.0513963 0)
(0.000139716 -0.0513956 0)
(0.000138833 -0.0513949 0)
(0.000137952 -0.0513943 0)
(0.000137073 -0.0513936 0)
(0.000136195 -0.0513929 0)
(0.000135318 -0.0513922 0)
(0.000134443 -0.0513916 0)
(0.00013357 -0.0513909 0)
(0.000132699 -0.0513902 0)
(0.000131829 -0.0513896 0)
(0.000130962 -0.0513889 0)
(0.000130096 -0.0513883 0)
(0.000129233 -0.0513876 0)
(0.000128372 -0.051387 0)
)
;
    }
    procBoundary6to5
    {
        type            processor;
        value           uniform (-5.77123e-05 -0.0513796 0);
    }
    procBoundary6to7
    {
        type            processor;
        value           uniform (-0.000186889 -0.0514517 0);
    }
    procBoundary6to8
    {
        type            processor;
        value           nonuniform List<vector> 
75
(
(-7.78873e-05 -0.0512122 0)
(-7.73292e-05 -0.0512127 0)
(-7.67707e-05 -0.0512132 0)
(-7.62118e-05 -0.0512137 0)
(-7.56526e-05 -0.0512141 0)
(-7.50932e-05 -0.0512146 0)
(-7.45338e-05 -0.0512151 0)
(-7.39743e-05 -0.0512156 0)
(-7.3415e-05 -0.051216 0)
(-7.2856e-05 -0.0512165 0)
(-7.22972e-05 -0.051217 0)
(-7.17388e-05 -0.0512175 0)
(-7.1181e-05 -0.0512179 0)
(-7.06237e-05 -0.0512184 0)
(-7.00671e-05 -0.0512189 0)
(-6.95114e-05 -0.0512193 0)
(-6.89564e-05 -0.0512198 0)
(-6.84025e-05 -0.0512203 0)
(-6.78496e-05 -0.0512207 0)
(-6.72979e-05 -0.0512212 0)
(-6.67474e-05 -0.0512217 0)
(-6.61982e-05 -0.0512221 0)
(-6.56504e-05 -0.0512226 0)
(-6.51041e-05 -0.0512231 0)
(-6.45594e-05 -0.0512235 0)
(-6.40163e-05 -0.051224 0)
(-6.3475e-05 -0.0512244 0)
(-6.29355e-05 -0.0512249 0)
(-6.23978e-05 -0.0512254 0)
(-6.18622e-05 -0.0512258 0)
(-6.13286e-05 -0.0512263 0)
(-6.07971e-05 -0.0512267 0)
(-6.02678e-05 -0.0512272 0)
(-5.97408e-05 -0.0512276 0)
(-5.92161e-05 -0.0512281 0)
(-5.86938e-05 -0.0512285 0)
(-5.8174e-05 -0.051229 0)
(-5.76566e-05 -0.0512294 0)
(-5.71418e-05 -0.0512299 0)
(-5.66297e-05 -0.0512303 0)
(-5.61202e-05 -0.0512307 0)
(-5.56134e-05 -0.0512312 0)
(-5.51094e-05 -0.0512316 0)
(-5.46082e-05 -0.0512321 0)
(-5.41098e-05 -0.0512325 0)
(-5.36144e-05 -0.0512329 0)
(-5.31218e-05 -0.0512334 0)
(-5.26322e-05 -0.0512338 0)
(-5.21456e-05 -0.0512342 0)
(-5.16619e-05 -0.0512346 0)
(-5.11812e-05 -0.0512351 0)
(-5.07036e-05 -0.0512355 0)
(-5.0229e-05 -0.0512359 0)
(-4.97575e-05 -0.0512363 0)
(-4.9289e-05 -0.0512367 0)
(-4.88236e-05 -0.0512372 0)
(-4.83613e-05 -0.0512376 0)
(-4.7902e-05 -0.051238 0)
(-4.74458e-05 -0.0512384 0)
(-4.69927e-05 -0.0512388 0)
(-4.65426e-05 -0.0512392 0)
(-4.60956e-05 -0.0512396 0)
(-4.56516e-05 -0.05124 0)
(-4.52107e-05 -0.0512404 0)
(-4.47728e-05 -0.0512408 0)
(-4.4338e-05 -0.0512412 0)
(-4.39061e-05 -0.0512416 0)
(-4.34773e-05 -0.051242 0)
(-4.30514e-05 -0.0512424 0)
(-4.26286e-05 -0.0512428 0)
(-4.22087e-05 -0.0512432 0)
(-4.17918e-05 -0.0512436 0)
(-4.13779e-05 -0.0512439 0)
(-4.0967e-05 -0.0512443 0)
(-4.0559e-05 -0.0512447 0)
)
;
    }
    procBoundary6to9
    {
        type            processor;
        value           nonuniform List<vector> 
50
(
(-0.000127211 -0.051187 0)
(-0.000123634 -0.0511876 0)
(-0.000120419 -0.0511881 0)
(-0.00011753 -0.0511887 0)
(-0.000114934 -0.0511893 0)
(-0.0001126 -0.0511899 0)
(-0.000110499 -0.0511904 0)
(-0.000108606 -0.051191 0)
(-0.000106896 -0.0511915 0)
(-0.000105349 -0.051192 0)
(-0.000103944 -0.0511926 0)
(-0.000102665 -0.0511931 0)
(-0.000101497 -0.0511936 0)
(-0.000100424 -0.0511941 0)
(-9.94349e-05 -0.0511946 0)
(-9.85185e-05 -0.0511951 0)
(-9.76648e-05 -0.0511957 0)
(-9.68651e-05 -0.0511962 0)
(-9.61118e-05 -0.0511967 0)
(-9.53978e-05 -0.0511972 0)
(-9.47172e-05 -0.0511977 0)
(-9.40648e-05 -0.0511981 0)
(-9.34358e-05 -0.0511986 0)
(-9.28263e-05 -0.0511991 0)
(-9.22327e-05 -0.0511996 0)
(-9.16521e-05 -0.0512001 0)
(-9.10818e-05 -0.0512006 0)
(-9.05197e-05 -0.0512011 0)
(-8.9964e-05 -0.0512016 0)
(-8.9413e-05 -0.0512021 0)
(-8.88654e-05 -0.0512026 0)
(-8.83202e-05 -0.051203 0)
(-8.77766e-05 -0.0512035 0)
(-8.72337e-05 -0.051204 0)
(-8.66911e-05 -0.0512045 0)
(-8.61483e-05 -0.051205 0)
(-8.56049e-05 -0.0512055 0)
(-8.50608e-05 -0.051206 0)
(-8.45156e-05 -0.0512064 0)
(-8.39694e-05 -0.0512069 0)
(-8.3422e-05 -0.0512074 0)
(-8.28734e-05 -0.0512079 0)
(-8.23236e-05 -0.0512084 0)
(-8.17725e-05 -0.0512089 0)
(-8.12204e-05 -0.0512093 0)
(-8.06671e-05 -0.0512098 0)
(-8.01129e-05 -0.0512103 0)
(-7.95577e-05 -0.0512108 0)
(-7.90016e-05 -0.0512113 0)
(-7.84448e-05 -0.0512117 0)
)
;
    }
}


// ************************************************************************* //
