/*--------------------------------*- C++ -*----------------------------------*\
| =========                 |                                                 |
| \\      /  F ield         | OpenFOAM: The Open Source CFD Toolbox           |
|  \\    /   O peration     | Version:  2.4.0                                 |
|   \\  /    A nd           | Web:      www.OpenFOAM.org                      |
|    \\/     M anipulation  |                                                 |
\*---------------------------------------------------------------------------*/
FoamFile
{
    version     2.0;
    format      ascii;
    class       volScalarField;
    location    "0.6";
    object      H;
}
// * * * * * * * * * * * * * * * * * * * * * * * * * * * * * * * * * * * * * //

dimensions      [0 2 -2 0 0 0 0];

internalField   nonuniform List<scalar> 
125
(
-11653.9
-11653.9
-11653.9
-11653.9
-11653.9
-10496.8
-10496.9
-10496.9
-10496.9
-10496.8
-9331.78
-9331.8
-9331.81
-9331.81
-9331.77
-8161.28
-8161.31
-8161.31
-8161.32
-8161.27
-6987.04
-6987.07
-6987.07
-6987.08
-6987.03
-5809.38
-5809.4
-5809.41
-5809.41
-5809.37
-4626.96
-4626.98
-4626.98
-4626.99
-4626.96
-3436.65
-3436.66
-3436.66
-3436.66
-3436.65
-2233.59
-2233.58
-2233.57
-2233.57
-2233.59
-257.451
-257.423
-257.415
-257.408
-257.459
-201.978
-201.955
-201.949
-201.942
-201.984
-201.901
-201.879
-201.873
-201.867
-201.908
-201.266
-201.244
-201.239
-201.233
-201.272
-200.081
-200.061
-200.055
-200.05
-200.087
-198.361
-198.341
-198.336
-198.331
-198.366
-196.121
-196.103
-196.099
-196.093
-196.127
-193.383
-193.366
-193.362
-193.357
-193.388
-190.168
-190.153
-190.149
-190.144
-190.173
-186.504
-186.489
-186.485
-186.481
-186.508
-182.417
-182.404
-182.4
-182.396
-182.42
-177.939
-177.927
-177.925
-177.921
-177.943
-173.104
-173.094
-173.091
-173.088
-173.107
-167.947
-167.938
-167.936
-167.933
-167.95
-162.505
-162.497
-162.495
-162.492
-162.507
-156.815
-156.809
-156.807
-156.805
-156.817
)
;

boundaryField
{
    BotWall
    {
        type            zeroGradient;
    }
    FreeStream
    {
        type            zeroGradient;
    }
    FrontNBack
    {
        type            empty;
    }
    LeftSide
    {
        type            symmetryPlane;
    }
    RightSide
    {
        type            symmetryPlane;
    }
    procBoundary0to1
    {
        type            processor;
        value           nonuniform List<scalar> 5(-150.912 -150.907 -150.906 -150.904 -150.914);
    }
}


// ************************************************************************* //
