/*--------------------------------*- C++ -*----------------------------------*\
| =========                 |                                                 |
| \\      /  F ield         | OpenFOAM: The Open Source CFD Toolbox           |
|  \\    /   O peration     | Version:  2.4.0                                 |
|   \\  /    A nd           | Web:      www.OpenFOAM.org                      |
|    \\/     M anipulation  |                                                 |
\*---------------------------------------------------------------------------*/
FoamFile
{
    version     2.0;
    format      ascii;
    class       volScalarField;
    location    "0.6";
    object      T;
}
// * * * * * * * * * * * * * * * * * * * * * * * * * * * * * * * * * * * * * //

dimensions      [0 0 0 1 0 0 0];

internalField   nonuniform List<scalar> 
125
(
293.236
293.236
293.236
293.236
293.236
293.709
293.709
293.709
293.709
293.709
294.185
294.185
294.185
294.185
294.185
294.663
294.663
294.663
294.663
294.663
295.143
295.143
295.143
295.143
295.143
295.625
295.625
295.625
295.625
295.625
296.108
296.108
296.108
296.108
296.108
296.595
296.595
296.595
296.595
296.595
297.087
297.087
297.087
297.087
297.087
297.889
297.889
297.889
297.889
297.889
297.889
297.889
297.889
297.889
297.889
297.889
297.889
297.889
297.889
297.889
297.889
297.889
297.889
297.889
297.889
297.89
297.89
297.89
297.89
297.89
297.891
297.891
297.891
297.891
297.891
297.892
297.892
297.892
297.892
297.892
297.894
297.894
297.894
297.894
297.894
297.895
297.895
297.895
297.895
297.895
297.897
297.897
297.897
297.897
297.897
297.9
297.9
297.9
297.9
297.9
297.902
297.902
297.902
297.902
297.902
297.905
297.905
297.905
297.905
297.905
297.908
297.908
297.908
297.908
297.908
297.911
297.911
297.911
297.911
297.911
297.914
297.914
297.914
297.914
297.914
)
;

boundaryField
{
    BotWall
    {
        type            fixedValue;
        value           uniform 293;
    }
    FreeStream
    {
        type            fixedValue;
        value           nonuniform 0();
    }
    FrontNBack
    {
        type            empty;
    }
    LeftSide
    {
        type            symmetryPlane;
    }
    RightSide
    {
        type            symmetryPlane;
    }
    procBoundary0to1
    {
        type            processor;
        value           nonuniform List<scalar> 5(297.917 297.917 297.917 297.917 297.917);
    }
}


// ************************************************************************* //
