/*--------------------------------*- C++ -*----------------------------------*\
| =========                 |                                                 |
| \\      /  F ield         | OpenFOAM: The Open Source CFD Toolbox           |
|  \\    /   O peration     | Version:  2.4.0                                 |
|   \\  /    A nd           | Web:      www.OpenFOAM.org                      |
|    \\/     M anipulation  |                                                 |
\*---------------------------------------------------------------------------*/
FoamFile
{
    version     2.0;
    format      ascii;
    class       volScalarField;
    location    "4.1";
    object      alpha1;
}
// * * * * * * * * * * * * * * * * * * * * * * * * * * * * * * * * * * * * * //

dimensions      [0 0 0 0 0 0 0];

internalField   nonuniform List<scalar> 
8000
(
1
1
1
1
1
0.999999
0.999998
0.999996
0.999995
0.999983
0.999607
0.00715898
3.46869e-07
2.09359e-09
3.45112e-09
5.80625e-09
8.2342e-09
1.05003e-08
1.25122e-08
1.42875e-08
1.59136e-08
1.75122e-08
1.92089e-08
2.11091e-08
2.3281e-08
2.57464e-08
2.84787e-08
3.1407e-08
3.4428e-08
3.74278e-08
4.03135e-08
4.30337e-08
4.5574e-08
4.79963e-08
5.0403e-08
7.50331e-08
3.30309e-08
3.01174e-08
9.89831e-09
6.15995e-09
4.69387e-09
3.87641e-09
3.22778e-09
2.6693e-09
2.18704e-09
1.77529e-09
1.42845e-09
1.14034e-09
9.04286e-10
7.13361e-10
1
1
1
1
1
0.999999
0.999997
0.999995
0.999994
0.999983
0.999614
0.00670062
1.2968e-06
1.79814e-09
2.6117e-09
4.78843e-09
7.16099e-09
9.4631e-09
1.15505e-08
1.33812e-08
1.49917e-08
1.64743e-08
1.79539e-08
1.95653e-08
2.14304e-08
2.36386e-08
2.62335e-08
2.92062e-08
3.24942e-08
3.59881e-08
3.9549e-08
4.30388e-08
4.63456e-08
4.94385e-08
5.31906e-08
6.67986e-08
1.64867e-07
1.00732e-07
1.92714e-08
1.04788e-08
7.65838e-09
6.43047e-09
5.47663e-09
4.634e-09
3.88237e-09
3.2189e-09
2.64133e-09
2.1462e-09
1.72834e-09
1.38117e-09
1
1
1
1
1
0.999999
0.999996
0.999993
0.999993
0.999988
0.99956
0.00457261
6.19652e-07
1.8783e-09
2.40647e-09
4.46905e-09
6.77838e-09
9.07282e-09
1.11978e-08
1.30864e-08
1.47419e-08
1.62242e-08
1.76355e-08
1.91037e-08
2.07632e-08
2.27338e-08
2.51028e-08
2.79124e-08
3.11557e-08
3.47785e-08
3.8687e-08
4.27602e-08
4.68576e-08
5.07749e-08
5.42213e-08
5.73446e-08
1.65572e-07
2.89099e-07
5.02659e-08
1.62147e-08
1.13918e-08
9.8607e-09
8.61286e-09
7.46774e-09
6.41127e-09
5.44491e-09
4.57238e-09
3.79684e-09
3.11887e-09
2.53616e-09
1
1
1
1
1
0.999998
0.999995
0.999992
0.999991
0.999984
0.999803
0.0168483
4.71029e-08
1.98541e-09
1.99549e-09
3.93659e-09
6.18646e-09
8.48004e-09
1.06554e-08
1.26248e-08
1.43602e-08
1.58856e-08
1.72711e-08
1.86258e-08
2.00839e-08
2.17865e-08
2.38604e-08
2.63987e-08
2.94474e-08
3.29993e-08
3.69963e-08
4.13366e-08
4.58933e-08
5.06316e-08
5.56787e-08
5.74772e-08
1.0138e-07
2.96511e-07
3.74451e-07
1.91361e-08
1.61421e-08
1.46153e-08
1.30928e-08
1.162e-08
1.0221e-08
8.89569e-09
7.65302e-09
6.50579e-09
5.46417e-09
4.53417e-09
1
1
1
1
1
0.999998
0.999995
0.99999
0.999989
0.99999
1
0.137184
6.59083e-08
2.25282e-09
1.74038e-09
3.58707e-09
5.78689e-09
8.07054e-09
1.0277e-08
1.23116e-08
1.41286e-08
1.57261e-08
1.71457e-08
1.84709e-08
1.98216e-08
2.13403e-08
2.31724e-08
2.54446e-08
2.82441e-08
3.16015e-08
3.54844e-08
3.98005e-08
4.44071e-08
4.91149e-08
5.39314e-08
6.11591e-08
8.30977e-08
3.50958e-07
5.75077e-07
5.21263e-08
2.25104e-08
2.12301e-08
1.94498e-08
1.76593e-08
1.59347e-08
1.42405e-08
1.25839e-08
1.09898e-08
9.48054e-09
8.07227e-09
1
1
1
1
1
0.999998
0.999994
0.999989
0.999987
0.999992
1
0.355447
8.41235e-08
2.67604e-09
1.52479e-09
3.28359e-09
5.43359e-09
7.69898e-09
9.92387e-09
1.20131e-08
1.39112e-08
1.5597e-08
1.70868e-08
1.84389e-08
1.9754e-08
2.11673e-08
2.28323e-08
2.48996e-08
2.74929e-08
3.06856e-08
3.44826e-08
3.88138e-08
4.35347e-08
4.8417e-08
5.33259e-08
6.0645e-08
8.74904e-08
4.0061e-07
6.28182e-07
1.42926e-07
3.20066e-08
3.03355e-08
2.80146e-08
2.59416e-08
2.4001e-08
2.20181e-08
1.99875e-08
1.79565e-08
1.596e-08
1.40132e-08
1
1
1
1
1
0.999997
0.999993
0.999986
0.999983
0.999991
0.999999
0.640858
1.06332e-06
3.11158e-09
1.402e-09
3.05112e-09
5.13862e-09
7.37771e-09
9.61291e-09
1.17482e-08
1.37221e-08
1.55003e-08
1.70789e-08
1.84933e-08
1.98245e-08
2.11962e-08
2.27618e-08
2.46849e-08
2.71164e-08
3.01676e-08
3.38876e-08
3.82495e-08
4.31464e-08
4.8388e-08
5.40338e-08
6.40041e-08
1.02252e-07
4.40351e-07
6.43737e-07
2.33314e-07
4.86761e-08
4.26369e-08
3.93566e-08
3.72246e-08
3.53446e-08
3.3241e-08
3.09292e-08
2.85698e-08
2.62301e-08
2.38802e-08
1
1
1
1
1
0.999997
0.999992
0.999983
0.999978
0.999989
0.999999
0.89935
0.000814467
3.92007e-09
1.05123e-09
2.48051e-09
4.50359e-09
6.75905e-09
9.06015e-09
1.12945e-08
1.33913e-08
1.53049e-08
1.70136e-08
1.8533e-08
1.99282e-08
2.13144e-08
2.28459e-08
2.46973e-08
2.70405e-08
3.00187e-08
3.37219e-08
3.81703e-08
4.33045e-08
4.89699e-08
5.52638e-08
6.64399e-08
1.07856e-07
4.64879e-07
6.30991e-07
3.03964e-07
6.54552e-08
5.55971e-08
5.29447e-08
5.20416e-08
5.09317e-08
4.8838e-08
4.5938e-08
4.32755e-08
4.09977e-08
3.8825e-08
1
1
1
1
1
0.999997
0.999991
0.99998
0.999974
0.999985
0.999987
0.999392
0.0294979
2.92556e-08
6.69372e-10
1.6534e-09
3.59629e-09
5.92614e-09
8.3699e-09
1.0769e-08
1.3039e-08
1.51244e-08
1.69878e-08
1.86301e-08
2.01082e-08
2.15355e-08
2.30699e-08
2.48944e-08
2.71931e-08
3.01252e-08
3.38001e-08
3.82621e-08
4.34941e-08
4.93962e-08
5.55751e-08
6.1706e-08
7.73797e-08
3.83328e-07
6.44001e-07
4.03079e-07
6.98897e-08
6.75418e-08
6.86711e-08
7.19386e-08
7.52084e-08
7.38952e-08
6.47542e-08
6.09744e-08
5.95481e-08
5.88697e-08
1
1
1
1
1
0.999997
0.999989
0.999978
0.999973
0.999983
0.99999
0.999339
0.0707975
1.96343e-08
7.84481e-10
1.54207e-09
3.49917e-09
5.95135e-09
8.60726e-09
1.12346e-08
1.36656e-08
1.58145e-08
1.76712e-08
1.92796e-08
2.07252e-08
2.2132e-08
2.3658e-08
2.54816e-08
2.77791e-08
3.06977e-08
3.43302e-08
3.8705e-08
4.38032e-08
4.9616e-08
5.60154e-08
6.18292e-08
6.57164e-08
2.95618e-07
6.3269e-07
4.12071e-07
6.69452e-08
6.68522e-08
6.88038e-08
8.28923e-08
1.74358e-07
1.81676e-07
6.71016e-08
6.76797e-08
6.58072e-08
1.19779e-07
1
1
1
1
1
0.999996
0.999987
0.999976
0.999974
0.999985
0.99999
0.923368
0.0102158
6.38015e-09
8.83659e-10
1.59242e-09
3.49937e-09
5.90256e-09
8.53254e-09
1.11698e-08
1.36552e-08
1.59034e-08
1.78915e-08
1.96382e-08
2.11934e-08
2.26436e-08
2.41161e-08
2.57734e-08
2.7794e-08
3.03488e-08
3.35795e-08
3.75888e-08
4.24517e-08
4.82442e-08
5.52095e-08
6.48559e-08
7.73366e-08
1.44174e-07
4.6366e-07
4.81669e-07
6.61103e-08
6.78561e-08
6.98158e-08
1.33177e-07
2.48578e-07
1.6143e-07
7.67098e-08
8.64191e-08
8.98295e-08
1.15875e-07
1
1
1
1
1
0.999995
0.999984
0.999975
0.999977
0.999988
0.999899
0.510292
0.00024608
7.75029e-09
9.35538e-10
1.72077e-09
3.49354e-09
5.72712e-09
8.20214e-09
1.07266e-08
1.31501e-08
1.53806e-08
1.73796e-08
1.91454e-08
2.07013e-08
2.20987e-08
2.34259e-08
2.48151e-08
2.64413e-08
2.85118e-08
3.12461e-08
3.48468e-08
3.94636e-08
4.51577e-08
5.18356e-08
5.90771e-08
6.68721e-08
8.26018e-08
2.98214e-07
4.41453e-07
6.63457e-08
7.16556e-08
7.28916e-08
1.69163e-07
2.41455e-07
9.8137e-08
6.19643e-08
6.34239e-08
6.64231e-08
2.29622e-07
1
1
1
1
0.999999
0.999992
0.999983
0.999977
0.999985
0.999988
0.883624
0.0160857
4.30413e-07
7.01995e-09
7.78194e-10
1.22702e-09
2.63894e-09
4.52563e-09
6.71915e-09
9.06006e-09
1.14053e-08
1.36453e-08
1.57137e-08
1.75809e-08
1.92433e-08
2.07177e-08
2.20452e-08
2.33e-08
2.46004e-08
2.61213e-08
2.81076e-08
3.08859e-08
3.48677e-08
4.05345e-08
4.83817e-08
5.87674e-08
7.16529e-08
8.63328e-08
9.63384e-08
1.50296e-07
1.27769e-07
7.3054e-08
8.6396e-08
9.57831e-08
2.26e-07
1.09518e-07
7.11016e-08
6.96249e-08
6.8247e-08
7.09173e-08
1
1
1
1
0.999998
0.999991
0.999983
0.999982
0.999991
0.999631
0.261418
6.70417e-05
2.34338e-06
5.40986e-07
5.57242e-08
1.09978e-08
4.25107e-09
3.26026e-09
3.91869e-09
5.27825e-09
6.98529e-09
8.86225e-09
1.07987e-08
1.27194e-08
1.45725e-08
1.65068e-08
1.82667e-08
1.9763e-08
2.11237e-08
2.24221e-08
2.37571e-08
2.52757e-08
2.71909e-08
2.97946e-08
3.34555e-08
3.85732e-08
4.54381e-08
5.39602e-08
6.33243e-08
7.14578e-08
7.91569e-08
8.01501e-08
8.30876e-08
8.65071e-08
9.17188e-08
9.37023e-08
8.90331e-08
9.77237e-08
8.92307e-08
7.01196e-08
1
1
1
1
1
0.999994
0.999987
0.999985
0.999991
0.865526
0.0194287
0.0194844
0.000756176
0.00109783
0.000277349
4.00238e-05
3.29875e-06
1.07199e-07
4.01424e-08
2.32783e-08
1.52498e-08
1.14729e-08
1e-08
9.8587e-09
1.04984e-08
1.16249e-08
1.30218e-08
1.44954e-08
1.59658e-08
1.73968e-08
1.87802e-08
2.0133e-08
2.1503e-08
2.30626e-08
2.48603e-08
2.70511e-08
2.98778e-08
3.35472e-08
3.811e-08
4.3328e-08
4.87683e-08
5.38082e-08
5.83609e-08
6.24346e-08
6.59024e-08
6.85266e-08
6.97191e-08
7.05472e-08
7.05992e-08
6.89113e-08
1
1
1
1
1
0.999999
0.999995
0.99999
0.99999
0.999983
0.999833
0.501015
0.0365925
0.0504822
0.00152073
0.00187765
2.202e-05
3.47836e-05
2.60289e-06
2.56313e-07
1.3351e-07
7.04995e-08
3.85135e-08
2.35988e-08
1.63186e-08
1.34488e-08
1.29461e-08
1.29183e-08
1.30899e-08
1.34089e-08
1.42238e-08
1.5117e-08
1.60605e-08
1.70678e-08
1.81594e-08
1.93569e-08
2.07087e-08
2.22883e-08
2.41781e-08
2.64355e-08
2.90608e-08
3.20013e-08
3.51527e-08
3.84591e-08
4.17843e-08
4.49515e-08
4.78638e-08
5.0307e-08
5.21741e-08
5.3464e-08
1
1
1
1
1
1
0.999999
0.999996
0.999994
0.999995
0.999993
0.999964
0.999579
1
0.810491
0.261789
0.0356825
0.017117
0.00585773
0.00175836
0.000531357
0.000137267
3.05769e-05
2.43462e-05
1.59991e-05
9.49858e-06
5.29381e-06
2.78013e-06
1.41451e-06
7.53461e-07
2.717e-07
1.60379e-07
9.86183e-08
6.45123e-08
4.49964e-08
3.31677e-08
2.57658e-08
2.32641e-08
2.23202e-08
2.21233e-08
2.22082e-08
2.24858e-08
2.29558e-08
2.4395e-08
2.60314e-08
2.78305e-08
2.97485e-08
3.17265e-08
3.36808e-08
3.5546e-08
1
1
1
1
1
1
1
1
0.999999
0.999998
0.999997
0.999996
0.999996
0.999998
1
1
1
0.999979
0.963793
0.812876
0.48394
0.152585
0.0315934
0.0208035
0.0125489
0.00582157
0.00230742
0.00111543
0.000639531
0.00041774
0.000278842
0.000186129
0.000121072
7.24817e-05
3.82302e-05
1.80532e-05
8.09327e-06
3.70575e-06
1.82591e-06
9.73097e-07
5.4663e-07
3.1637e-07
1.9057e-07
8.3394e-08
6.11531e-08
4.67188e-08
3.77701e-08
3.37721e-08
3.23364e-08
3.1786e-08
1
1
1
1
1
1
1
1
1
1
1
0.999999
0.999999
0.999999
0.999998
0.999997
0.999999
1
1
1
1
0.999978
0.999457
0.999979
0.840702
0.511004
0.177283
0.0433085
0.0325457
0.0204582
0.0111104
0.00571279
0.00279158
0.00140103
0.000759334
0.000448485
0.00027949
0.000177121
0.000110963
6.77589e-05
4.04959e-05
2.40719e-05
1.44145e-05
8.68281e-06
5.24094e-06
3.0938e-06
1.6911e-06
8.16865e-07
3.48686e-07
1.33952e-07
1
1
1
0.999999
0.999999
0.999999
0.999999
1
1
1
1
0.999999
0.999999
0.999999
0.999999
0.999999
0.999999
0.999999
0.999998
0.999997
0.999992
0.999981
0.999958
0.999977
0.999992
0.999972
0.999868
0.977238
0.957689
0.690288
0.282725
0.0786434
0.0519864
0.034912
0.0212096
0.01209
0.00703512
0.00427227
0.00269081
0.00174239
0.00113441
0.000714774
0.000425261
0.000238753
0.000126806
6.3652e-05
3.03817e-05
1.4065e-05
6.50467e-06
3.07742e-06
5.60744e-10
4.39949e-10
3.45037e-10
2.70755e-10
2.12629e-10
1.66994e-10
1.30965e-10
1.02355e-10
7.95471e-11
6.1359e-11
4.69118e-11
3.5526e-11
2.66503e-11
1.98189e-11
1.46314e-11
1.07436e-11
7.8642e-12
5.7524e-12
4.21418e-12
3.0977e-12
2.28724e-12
1.69689e-12
1.26425e-12
9.44774e-13
7.07058e-13
5.29023e-13
3.95085e-13
2.9411e-13
2.18007e-13
1.60784e-13
1.17927e-13
8.59936e-14
6.2341e-14
4.49338e-14
3.22077e-14
2.2966e-14
1.62985e-14
1.15185e-14
8.11199e-15
5.69735e-15
3.99393e-15
2.79701e-15
1.95855e-15
1.3724e-15
9.62998e-16
6.76989e-16
4.76912e-16
3.36622e-16
2.3795e-16
1.68307e-16
1.09708e-09
8.67931e-10
6.85426e-10
5.41471e-10
4.28522e-10
3.39892e-10
2.69963e-10
2.14287e-10
1.69527e-10
1.33297e-10
1.03924e-10
8.02081e-11
6.12344e-11
4.62474e-11
3.4584e-11
2.56477e-11
1.89041e-11
1.38847e-11
1.01906e-11
7.49374e-12
5.53297e-12
4.1071e-12
3.06583e-12
2.2998e-12
1.73112e-12
1.30512e-12
9.83576e-13
7.39646e-13
5.54186e-13
4.13253e-13
3.06454e-13
2.25886e-13
1.65456e-13
1.20424e-13
8.71027e-14
6.26236e-14
4.47708e-14
3.18433e-14
2.25464e-14
1.59036e-14
1.11851e-14
7.85085e-15
5.505e-15
3.86003e-15
2.70909e-15
1.90458e-15
1.34204e-15
9.48059e-16
6.71373e-16
4.7635e-16
2.04397e-09
1.63564e-09
1.30287e-09
1.03615e-09
8.25171e-10
6.59524e-10
5.294e-10
4.26273e-10
3.43339e-10
2.75624e-10
2.19752e-10
1.73516e-10
1.35439e-10
1.04422e-10
7.95314e-11
5.9899e-11
4.46898e-11
3.31117e-11
2.44365e-11
1.80216e-11
1.33226e-11
9.89723e-12
7.39953e-12
5.56891e-12
4.21514e-12
3.20304e-12
2.43816e-12
1.855e-12
1.40783e-12
1.06411e-12
8.00117e-13
5.97997e-13
4.4403e-13
3.27483e-13
2.39885e-13
1.74544e-13
1.26183e-13
9.06696e-14
6.47912e-14
4.60734e-14
3.26295e-14
2.30353e-14
1.62273e-14
1.14192e-14
8.03614e-15
5.66161e-15
3.99679e-15
2.82914e-15
2.00868e-15
1.43029e-15
3.71845e-09
3.01686e-09
2.42639e-09
1.94076e-09
1.55029e-09
1.24227e-09
1.00191e-09
8.14053e-10
6.65008e-10
5.43938e-10
4.43311e-10
3.58442e-10
2.86605e-10
2.26178e-10
1.7602e-10
1.35117e-10
1.02419e-10
7.68142e-11
5.71629e-11
4.23542e-11
3.13643e-11
2.32979e-11
1.74103e-11
1.31109e-11
9.95103e-12
7.60298e-12
5.83489e-12
4.48629e-12
3.44709e-12
2.64113e-12
2.01453e-12
1.52786e-12
1.15126e-12
8.6147e-13
6.39996e-13
4.72026e-13
3.45666e-13
2.51399e-13
1.81662e-13
1.30497e-13
9.32561e-14
6.63531e-14
4.70522e-14
3.32899e-14
2.35276e-14
1.66308e-14
1.17719e-14
8.35312e-15
5.94675e-15
4.24946e-15
6.77796e-09
5.60989e-09
4.57932e-09
3.69466e-09
2.95899e-09
2.36744e-09
1.90581e-09
1.55168e-09
1.27874e-09
1.06265e-09
8.84987e-10
7.33932e-10
6.02997e-10
4.89073e-10
3.90774e-10
3.07327e-10
2.37952e-10
1.81601e-10
1.3691e-10
1.02286e-10
7.60335e-11
5.64873e-11
4.21276e-11
3.1651e-11
2.40034e-11
1.83766e-11
1.41798e-11
1.09982e-11
8.54836e-12
6.63911e-12
5.14016e-12
3.96016e-12
3.03239e-12
2.30593e-12
1.74055e-12
1.30378e-12
9.69117e-13
7.14913e-13
5.23541e-13
3.80758e-13
2.75169e-13
1.9775e-13
1.41444e-13
1.00799e-13
7.16531e-14
5.0873e-14
3.61251e-14
2.56922e-14
1.8324e-14
1.31195e-14
1.21278e-08
1.03223e-08
8.62396e-09
7.06792e-09
5.69406e-09
4.53841e-09
3.61904e-09
2.92276e-09
2.407e-09
2.01879e-09
1.71227e-09
1.45575e-09
1.231e-09
1.02941e-09
8.48098e-10
6.86884e-10
5.46379e-10
4.26919e-10
3.28071e-10
2.48535e-10
1.86274e-10
1.38769e-10
1.03315e-10
7.72873e-11
5.83481e-11
4.45603e-11
3.44237e-11
2.68436e-11
2.10595e-11
1.65614e-11
1.30131e-11
1.01901e-11
7.93741e-12
6.14242e-12
4.71851e-12
3.59638e-12
2.71902e-12
2.039e-12
1.51679e-12
1.11957e-12
8.20301e-13
5.96965e-13
4.31817e-13
3.10756e-13
2.22727e-13
1.59182e-13
1.13601e-13
8.10772e-14
5.79597e-14
4.15655e-14
2.14819e-08
1.90182e-08
1.649e-08
1.39232e-08
1.13971e-08
9.05979e-09
7.09731e-09
5.60893e-09
4.55109e-09
3.80951e-09
3.26877e-09
2.84223e-09
2.47592e-09
2.14166e-09
1.82822e-09
1.53406e-09
1.2623e-09
1.01739e-09
8.03156e-10
6.21695e-10
4.73032e-10
3.552e-10
2.64684e-10
1.9704e-10
1.47544e-10
1.1175e-10
8.58646e-11
6.69182e-11
5.275e-11
4.18829e-11
3.3351e-11
2.65355e-11
2.10363e-11
1.65836e-11
1.29834e-11
1.00863e-11
7.77121e-12
5.93656e-12
4.49605e-12
3.37606e-12
2.51407e-12
1.85743e-12
1.36228e-12
9.92572e-13
7.19112e-13
5.18602e-13
3.7275e-13
2.67406e-13
1.91778e-13
1.37744e-13
3.65485e-08
3.41127e-08
3.13691e-08
2.8024e-08
2.38108e-08
1.88576e-08
1.43154e-08
1.09011e-08
8.58255e-09
7.07352e-09
6.08053e-09
5.37876e-09
4.82084e-09
4.32139e-09
3.83814e-09
3.35636e-09
2.87772e-09
2.41256e-09
1.9746e-09
1.57706e-09
1.23011e-09
9.39372e-10
7.05459e-10
5.24486e-10
3.89287e-10
2.91015e-10
2.20704e-10
1.70441e-10
1.33972e-10
1.06785e-10
8.58604e-11
6.92823e-11
5.58681e-11
4.48826e-11
3.58472e-11
2.84249e-11
2.23577e-11
1.74339e-11
1.34728e-11
1.0317e-11
7.82888e-12
5.88823e-12
4.39119e-12
3.24894e-12
2.38663e-12
1.74221e-12
1.26516e-12
9.15056e-13
6.60136e-13
4.75803e-13
5.74302e-08
5.74433e-08
5.87889e-08
6.06306e-08
5.72578e-08
4.13808e-08
2.89899e-08
2.09081e-08
1.58939e-08
1.28506e-08
1.10196e-08
9.88105e-09
9.09848e-09
8.46238e-09
7.85028e-09
7.19836e-09
6.48291e-09
5.70815e-09
4.89714e-09
4.08406e-09
3.30682e-09
2.60029e-09
1.99045e-09
1.49078e-09
1.10143e-09
8.11454e-10
6.03084e-10
4.56488e-10
3.53571e-10
2.80002e-10
2.25601e-10
1.83724e-10
1.50301e-10
1.22919e-10
1.00154e-10
8.11192e-11
6.52164e-11
5.19936e-11
4.10794e-11
3.21512e-11
2.49213e-11
1.91307e-11
1.45462e-11
1.09596e-11
8.18677e-12
6.06776e-12
4.46609e-12
3.26773e-12
2.37948e-12
1.72666e-12
5.77071e-08
6.09548e-08
9.11129e-08
2.73904e-07
2.64809e-07
5.16489e-08
3.96818e-08
2.98813e-08
2.40877e-08
2.04805e-08
1.83203e-08
1.70547e-08
1.63113e-08
1.58203e-08
1.53857e-08
1.48659e-08
1.41633e-08
1.32223e-08
1.20303e-08
1.06185e-08
9.05815e-09
7.4502e-09
5.90505e-09
4.52061e-09
3.36308e-09
2.45679e-09
1.78726e-09
1.31452e-09
9.89528e-10
7.66884e-10
6.11059e-10
4.97399e-10
4.10262e-10
3.40377e-10
2.82476e-10
2.33596e-10
1.92028e-10
1.56674e-10
1.26736e-10
1.01564e-10
8.05889e-11
6.32924e-11
4.91934e-11
3.78432e-11
2.8824e-11
2.17509e-11
1.62745e-11
1.20853e-11
8.91579e-12
6.54133e-12
6.07931e-08
1.60389e-07
3.90698e-07
3.92153e-07
2.35577e-07
5.45307e-08
4.15742e-08
3.48257e-08
3.08414e-08
2.87283e-08
2.77921e-08
2.76237e-08
2.79574e-08
2.85984e-08
2.93797e-08
3.01279e-08
3.06446e-08
3.0705e-08
3.00789e-08
2.85784e-08
2.6131e-08
2.29484e-08
1.92079e-08
1.53279e-08
1.16623e-08
8.54168e-09
6.1099e-09
4.34714e-09
3.13587e-09
2.3291e-09
1.79451e-09
1.43208e-09
1.17456e-09
9.80581e-10
8.259e-10
6.9618e-10
5.84847e-10
4.88378e-10
4.04698e-10
3.32392e-10
2.70339e-10
2.17559e-10
1.73142e-10
1.36221e-10
1.05951e-10
8.14982e-11
6.20447e-11
4.67996e-11
3.50187e-11
2.60258e-11
5.11419e-07
5.20159e-07
3.28807e-07
5.99743e-08
4.79894e-08
4.29071e-08
4.02691e-08
3.92183e-08
3.90971e-08
3.949e-08
4.01112e-08
4.07574e-08
4.12768e-08
4.15627e-08
4.15518e-08
4.12147e-08
4.06022e-08
3.99151e-08
3.9413e-08
4.79221e-08
1.95042e-07
2.45195e-07
2.12107e-07
4.46471e-08
3.17543e-08
2.25999e-08
1.67093e-08
1.27281e-08
9.94727e-09
7.98601e-09
6.55794e-09
5.47952e-09
4.63239e-09
3.94011e-09
3.35542e-09
2.85144e-09
2.41156e-09
2.02626e-09
1.68964e-09
1.39726e-09
1.14516e-09
9.29438e-10
7.46347e-10
5.92374e-10
4.64326e-10
3.59293e-10
2.74537e-10
2.07382e-10
1.55154e-10
1.15225e-10
1.96863e-07
4.59923e-07
4.57215e-07
1.34096e-07
5.45897e-08
4.69947e-08
4.38508e-08
4.2517e-08
4.22128e-08
4.23546e-08
4.27693e-08
4.3565e-08
4.49453e-08
4.67477e-08
4.6589e-08
7.88826e-08
4.1047e-07
6.38958e-07
6.46242e-07
2.48957e-07
5.18207e-08
4.60628e-08
4.03519e-08
3.33554e-08
2.82827e-08
2.52161e-08
2.32174e-08
2.17775e-08
2.06237e-08
1.96028e-08
1.86155e-08
1.7598e-08
1.64956e-08
1.54e-08
1.45668e-08
1.36157e-08
1.25246e-08
1.13525e-08
1.01529e-08
8.96692e-09
7.82985e-09
6.77538e-09
5.83386e-09
4.98731e-09
4.2078e-09
3.49852e-09
2.86271e-09
2.3009e-09
1.81255e-09
1.39711e-09
7.31766e-08
8.0409e-08
8.82219e-08
2.42535e-07
2.53975e-07
1.998e-07
6.1208e-08
5.26389e-08
4.87895e-08
4.67415e-08
4.59821e-08
4.63114e-08
4.76315e-08
4.84646e-08
1.05201e-07
4.65572e-07
6.36509e-07
6.23605e-07
1.63777e-07
5.19229e-08
4.5825e-08
4.01955e-08
3.65364e-08
3.40478e-08
3.23131e-08
3.11345e-08
3.04657e-08
3.03856e-08
3.10886e-08
3.29945e-08
3.71857e-08
4.04876e-08
7.16801e-08
1.51287e-07
7.75421e-08
4.58867e-08
4.04384e-08
4.09339e-08
4.54186e-08
5.27459e-08
6.21718e-08
6.99741e-08
5.96132e-08
4.10704e-08
3.12857e-08
2.59895e-08
2.27472e-08
2.02147e-08
1.77256e-08
1.52231e-08
6.77932e-08
6.90617e-08
7.51832e-08
9.30296e-08
1.23801e-07
2.12983e-07
6.5813e-08
8.05991e-08
4.98101e-08
5.56415e-08
5.08288e-08
4.87598e-08
4.8851e-08
5.11249e-08
5.60407e-08
6.1793e-08
8.85749e-08
2.95741e-07
3.16571e-07
1.28481e-07
5.09816e-08
1.08592e-07
2.18656e-07
2.18877e-07
9.43917e-08
4.345e-08
3.81806e-08
3.61128e-08
3.59017e-08
3.87016e-08
5.5629e-08
1.87189e-07
1.98673e-07
1.51955e-07
5.07097e-08
4.92281e-08
7.97356e-08
1.78303e-07
1.78607e-07
8.70134e-08
4.38699e-08
4.13328e-08
3.87381e-08
3.61125e-08
3.40336e-08
3.25347e-08
3.1655e-08
3.13665e-08
8.81955e-08
3.60291e-07
5.43101e-08
5.50666e-08
5.63979e-08
5.94813e-08
6.44996e-08
7.01733e-08
6.65544e-08
7.1231e-08
6.71508e-08
6.14249e-08
5.66342e-08
5.22911e-08
4.89306e-08
4.68086e-08
4.61592e-08
4.71723e-08
5.04699e-08
6.0202e-08
7.837e-08
8.01241e-08
7.34415e-08
7.18536e-08
6.82384e-08
1.14342e-07
1.3415e-07
6.44666e-08
5.03237e-08
4.20809e-08
4.02653e-08
4.09383e-08
4.4221e-08
5.3292e-08
6.77376e-08
1.40255e-07
1.38624e-07
7.62667e-08
5.15319e-08
4.96617e-08
8.33026e-08
1.84764e-07
1.83554e-07
9.96141e-08
4.43152e-08
4.07855e-08
3.89211e-08
3.74875e-08
3.63219e-08
3.6079e-08
7.84544e-08
3.68734e-07
3.72801e-08
3.88728e-08
4.03717e-08
4.1965e-08
4.39193e-08
4.60951e-08
4.74477e-08
5.05994e-08
5.22588e-08
5.23348e-08
5.17764e-08
5.05386e-08
4.88906e-08
4.69859e-08
4.51293e-08
4.35779e-08
4.25893e-08
4.25985e-08
4.41902e-08
4.6369e-08
4.74944e-08
4.79983e-08
4.87679e-08
5.01169e-08
5.46415e-08
5.31091e-08
4.77293e-08
4.23362e-08
3.87512e-08
3.66642e-08
3.58425e-08
3.67991e-08
4.0481e-08
4.74393e-08
5.36865e-08
5.31411e-08
4.88191e-08
4.70116e-08
4.91544e-08
5.64203e-08
6.08374e-08
5.79467e-08
5.07856e-08
4.62363e-08
4.4074e-08
4.35575e-08
4.43476e-08
4.62493e-08
4.88018e-08
4.79204e-08
3.1697e-08
3.18383e-08
3.21619e-08
3.26515e-08
3.33347e-08
3.4238e-08
3.51973e-08
3.65047e-08
3.78439e-08
3.89929e-08
3.99203e-08
4.05661e-08
4.09166e-08
4.09561e-08
4.07167e-08
4.02598e-08
3.96659e-08
3.90513e-08
3.85639e-08
3.83119e-08
3.82107e-08
3.81375e-08
3.8078e-08
3.8098e-08
3.83582e-08
3.86809e-08
3.8202e-08
3.68792e-08
3.52242e-08
3.36379e-08
3.21946e-08
3.0939e-08
3.01884e-08
3.0316e-08
3.12233e-08
3.20657e-08
3.21842e-08
3.18026e-08
3.14415e-08
3.14931e-08
3.1789e-08
3.16232e-08
3.0738e-08
2.95731e-08
2.85532e-08
2.7807e-08
2.73488e-08
2.72121e-08
2.74637e-08
2.81475e-08
3.52391e-08
3.28256e-08
3.14671e-08
3.08176e-08
3.05711e-08
3.04723e-08
3.05076e-08
3.07099e-08
3.10659e-08
3.154e-08
3.20974e-08
3.2694e-08
3.32812e-08
3.38052e-08
3.42203e-08
3.44988e-08
3.46338e-08
3.46404e-08
3.45504e-08
3.44045e-08
3.42339e-08
3.40498e-08
3.38545e-08
3.36532e-08
3.34583e-08
3.329e-08
3.30798e-08
3.27186e-08
3.21681e-08
3.1472e-08
3.06931e-08
2.98256e-08
2.88769e-08
2.79507e-08
2.7162e-08
2.65815e-08
2.6128e-08
2.56945e-08
2.52204e-08
2.46928e-08
2.4226e-08
2.3709e-08
2.30799e-08
2.23529e-08
2.15944e-08
2.08625e-08
2.0189e-08
1.95779e-08
1.90385e-08
1.85996e-08
1.48491e-06
7.2547e-07
3.42165e-07
1.42161e-07
3.50911e-08
3.21353e-08
3.13623e-08
3.07586e-08
3.03222e-08
3.0051e-08
2.99395e-08
2.99735e-08
3.01255e-08
3.03544e-08
3.06108e-08
3.08484e-08
3.10329e-08
3.11473e-08
3.11915e-08
3.11764e-08
3.11173e-08
3.10277e-08
3.0917e-08
3.07905e-08
3.0651e-08
3.05016e-08
3.03403e-08
3.0151e-08
2.99121e-08
2.96107e-08
2.92475e-08
2.88171e-08
2.83072e-08
2.77278e-08
2.71012e-08
2.64617e-08
2.58356e-08
2.52324e-08
2.46613e-08
2.40651e-08
2.3483e-08
2.29044e-08
2.23173e-08
2.16956e-08
2.10474e-08
2.03601e-08
1.96817e-08
1.90235e-08
1.83913e-08
1.7793e-08
1.18984e-16
1.0021e-16
8.42697e-17
7.07456e-17
5.92823e-17
4.95766e-17
4.137e-17
3.44414e-17
2.86018e-17
2.36896e-17
1.95662e-17
1.6113e-17
1.32284e-17
1.08252e-17
8.82886e-18
7.17557e-18
5.81079e-18
4.688e-18
3.76755e-18
3.01578e-18
2.40412e-18
1.90844e-18
1.5084e-18
1.18693e-18
9.29708e-19
7.24834e-19
5.62405e-19
4.3424e-19
3.33604e-19
2.54978e-19
1.93864e-19
1.46609e-19
1.10267e-19
8.24711e-20
6.13304e-20
4.53438e-20
3.33255e-20
2.43445e-20
1.76742e-20
1.27509e-20
9.14014e-21
6.5092e-21
4.60484e-21
3.23568e-21
2.25804e-21
1.56483e-21
1.07678e-21
7.35647e-22
4.98946e-22
3.35925e-22
2.24492e-22
1.48902e-22
9.802e-23
6.40364e-23
4.1517e-23
2.67126e-23
1.70574e-23
1.0811e-23
6.80228e-24
4.25041e-24
2.63904e-24
1.62976e-24
1.0027e-24
6.16254e-25
3.80016e-25
2.3677e-25
1.50619e-25
9.92364e-26
6.88548e-26
5.10549e-26
4.07315e-26
3.48144e-26
3.14714e-26
2.96182e-26
2.86174e-26
2.80971e-26
2.78418e-26
2.77271e-26
2.76819e-26
2.76652e-26
2.76538e-26
2.76341e-26
2.75985e-26
2.75423e-26
2.74626e-26
2.73577e-26
2.72265e-26
2.7068e-26
2.68818e-26
2.66674e-26
2.64246e-26
2.61531e-26
2.58531e-26
2.55245e-26
2.51676e-26
2.47828e-26
2.43704e-26
2.39311e-26
2.34655e-26
2.29745e-26
2.2459e-26
2.19202e-26
2.13593e-26
2.07776e-26
2.01766e-26
1.95579e-26
1.89232e-26
1.82743e-26
1.76131e-26
1.69417e-26
1.6262e-26
1.55763e-26
1.48866e-26
1.41953e-26
1.35046e-26
1.28166e-26
1.21336e-26
1.14578e-26
1.07914e-26
1.01364e-26
9.49482e-27
8.86851e-27
8.25927e-27
7.66872e-27
7.09836e-27
6.54952e-27
6.02336e-27
5.52087e-27
5.04284e-27
4.58988e-27
4.16241e-27
3.76065e-27
3.38464e-27
3.03424e-27
2.70908e-27
2.40853e-27
2.13168e-27
1.87765e-27
1.64613e-27
1.43604e-27
1.24645e-27
1.07632e-27
9.24554e-28
7.89911e-28
6.71173e-28
5.67133e-28
4.76456e-28
3.97926e-28
3.30375e-28
2.72589e-28
2.23516e-28
1.82095e-28
1.47394e-28
1.1851e-28
9.46423e-29
7.50565e-29
5.91053e-29
4.62095e-29
3.58631e-29
2.7628e-29
2.11225e-29
1.60245e-29
1.20613e-29
9.00559e-30
6.66965e-30
4.89879e-30
3.56831e-30
2.57701e-30
1.84499e-30
1.30953e-30
9.21142e-31
6.4217e-31
4.43592e-31
3.03569e-31
2.05753e-31
1.38126e-31
9.18242e-32
6.04655e-32
3.94207e-32
2.54518e-32
1.62689e-32
1.02957e-32
6.45122e-33
4.00372e-33
2.46136e-33
1.49899e-33
9.04282e-34
5.40301e-34
3.19695e-34
1.87319e-34
1.08691e-34
6.24618e-35
3.55514e-35
2.00398e-35
1.11855e-35
6.18116e-36
3.38122e-36
1.83078e-36
9.81162e-37
5.20412e-37
2.73137e-37
1.41817e-37
7.28245e-38
3.69781e-38
1.85648e-38
9.2156e-39
4.52338e-39
2.19532e-39
1.05333e-39
4.99528e-40
2.34083e-40
1.08362e-40
4.95443e-41
2.23692e-41
9.97267e-42
4.38993e-42
1.90799e-42
8.1875e-43
3.46877e-43
1.45091e-43
5.99145e-44
2.4425e-44
9.82908e-45
3.90414e-45
1.53045e-45
5.92041e-46
2.25997e-46
8.51283e-47
3.16427e-47
1.16067e-47
4.20137e-48
1.50083e-48
5.29122e-49
1.84122e-49
6.32436e-50
2.14435e-50
7.17701e-51
2.37105e-51
7.73078e-52
2.48703e-52
7.8921e-53
2.46974e-53
7.62036e-54
2.3178e-54
6.94809e-55
2.05244e-55
5.97309e-56
1.71219e-56
4.83287e-57
1.34286e-57
3.67211e-58
9.88009e-59
2.61505e-59
6.80788e-60
1.74283e-60
4.38566e-61
1.08425e-61
2.63194e-62
6.26977e-63
1.4653e-63
3.35856e-64
7.54638e-65
1.66144e-65
3.58213e-66
7.55793e-67
1.55925e-67
3.1436e-68
6.18996e-69
1.18942e-69
2.22815e-70
4.0652e-71
7.21744e-72
1.24574e-72
2.0879e-73
3.39317e-74
5.33887e-75
8.12259e-76
1.19265e-76
1.68647e-77
2.29188e-78
2.98718e-79
3.72387e-80
4.42734e-81
5.00546e-82
5.36238e-83
5.42524e-84
5.16037e-85
4.59106e-86
3.79758e-87
2.90064e-88
2.02804e-89
1.28464e-90
7.28249e-92
3.63854e-93
1.57037e-94
5.6881e-96
1.6607e-97
3.66367e-99
5.42982e-101
4.0556e-103
3.38317e-16
2.85597e-16
2.4079e-16
2.02725e-16
1.70403e-16
1.4298e-16
1.19734e-16
1.00052e-16
8.341e-17
6.93619e-17
5.75249e-17
4.75716e-17
3.92214e-17
3.22339e-17
2.64026e-17
2.15505e-17
1.7526e-17
1.41989e-17
1.14582e-17
9.20888e-18
7.36994e-18
5.87261e-18
4.65855e-18
3.67846e-18
2.89081e-18
2.26076e-18
1.7592e-18
1.36189e-18
1.04877e-18
8.03293e-19
6.11872e-19
4.63428e-19
3.48963e-19
2.61211e-19
1.94338e-19
1.43686e-19
1.05561e-19
7.70465e-20
5.58605e-20
4.02246e-20
2.87639e-20
2.04225e-20
1.43948e-20
1.0071e-20
6.99265e-21
4.81778e-21
3.29323e-21
2.23305e-21
1.5018e-21
1.0016e-21
6.62344e-22
4.34226e-22
2.8218e-22
1.81743e-22
1.15997e-22
7.33557e-23
4.59584e-23
2.85222e-23
1.75322e-23
1.06726e-23
6.43327e-24
3.8395e-24
2.26855e-24
1.3268e-24
7.68068e-25
4.40032e-25
2.49466e-25
1.39938e-25
7.76628e-26
4.26378e-26
2.31544e-26
1.24361e-26
6.60543e-27
3.46925e-27
1.80153e-27
9.24861e-28
4.69353e-28
2.35437e-28
1.16729e-28
5.72005e-29
2.77052e-29
1.32662e-29
6.28296e-30
2.94628e-30
1.37116e-30
6.3647e-31
2.97782e-31
1.43392e-31
7.37234e-32
4.25322e-32
2.86109e-32
2.23555e-32
1.94703e-32
1.80578e-32
1.72899e-32
1.681e-32
1.64662e-32
1.61951e-32
1.59704e-32
1.57816e-32
1.56244e-32
1.54971e-32
1.53991e-32
1.53298e-32
1.52888e-32
1.52754e-32
1.52888e-32
1.53281e-32
1.5392e-32
1.5479e-32
1.55876e-32
1.57158e-32
1.58613e-32
1.60218e-32
1.61947e-32
1.63771e-32
1.65657e-32
1.67575e-32
1.69487e-32
1.71357e-32
1.73147e-32
1.74817e-32
1.76326e-32
1.77635e-32
1.78703e-32
1.79489e-32
1.79955e-32
1.80064e-32
1.79782e-32
1.79077e-32
1.77922e-32
1.76294e-32
1.74175e-32
1.71552e-32
1.68419e-32
1.64777e-32
1.60632e-32
1.55996e-32
1.50891e-32
1.45345e-32
1.39392e-32
1.33075e-32
1.26441e-32
1.19545e-32
1.12444e-32
1.05201e-32
9.78801e-33
9.05461e-33
8.32642e-33
7.60976e-33
6.91062e-33
6.23456e-33
5.5866e-33
4.97108e-33
4.39162e-33
3.85105e-33
3.35137e-33
2.89379e-33
2.47871e-33
2.10575e-33
1.7739e-33
1.48151e-33
1.22646e-33
1.00622e-33
8.17991e-34
6.58813e-34
5.25672e-34
4.15656e-34
3.2617e-34
2.55341e-34
2.02766e-34
1.70555e-34
1.64063e-34
1.89427e-34
2.23109e-34
2.30432e-34
2.20724e-34
1.95092e-34
1.6503e-34
1.34106e-34
1.05619e-34
8.10761e-35
6.02593e-35
4.31428e-35
2.98505e-35
2.00601e-35
1.3174e-35
8.50185e-36
5.40929e-36
3.3946e-36
2.09848e-36
1.27637e-36
7.64022e-37
4.50866e-37
2.62902e-37
1.51699e-37
8.66142e-38
4.88711e-38
2.72108e-38
1.49427e-38
8.0997e-39
4.34089e-39
2.30343e-39
1.21056e-39
6.29425e-40
3.23194e-40
1.63635e-40
8.16437e-41
4.0155e-41
1.94846e-41
9.33709e-42
4.42242e-42
2.07116e-42
9.59049e-43
4.38905e-43
1.98421e-43
8.85745e-44
3.90263e-44
1.69638e-44
7.27084e-45
3.07167e-45
1.27884e-45
5.24734e-46
2.12256e-46
8.4667e-47
3.33106e-47
1.29269e-47
4.94847e-48
1.8689e-48
6.96553e-49
2.56289e-49
9.31178e-50
3.34103e-50
1.18348e-50
4.13696e-51
1.42629e-51
4.84767e-52
1.62389e-52
5.36186e-53
1.74548e-53
5.60292e-54
1.77318e-54
5.53131e-55
1.70048e-55
5.15112e-56
1.53733e-56
4.52003e-57
1.30926e-57
3.73588e-58
1.04988e-58
2.90468e-59
7.90793e-60
2.11719e-60
5.57078e-61
1.44e-61
3.65598e-62
9.11679e-63
2.23311e-63
5.3704e-64
1.26701e-64
2.93054e-65
6.64074e-66
1.47363e-66
3.20126e-67
6.80725e-68
1.41638e-68
2.88088e-69
5.72328e-70
1.10967e-70
2.0983e-71
3.86576e-72
6.93207e-73
1.20855e-73
2.04556e-74
3.35724e-75
5.33236e-76
8.17914e-77
1.2102e-77
1.72447e-78
2.36162e-79
3.10246e-80
3.903e-81
4.68591e-82
5.3531e-83
5.79547e-84
5.92014e-85
5.67996e-86
5.09265e-87
4.24111e-88
3.26028e-89
2.29492e-90
1.46363e-91
8.35793e-93
4.1979e-94
1.81636e-95
6.57989e-97
1.91595e-98
4.20478e-100