/*--------------------------------*- C++ -*----------------------------------*\
| =========                 |                                                 |
| \\      /  F ield         | OpenFOAM: The Open Source CFD Toolbox           |
|  \\    /   O peration     | Version:  2.4.0                                 |
|   \\  /    A nd           | Web:      www.OpenFOAM.org                      |
|    \\/     M anipulation  |                                                 |
\*---------------------------------------------------------------------------*/
FoamFile
{
    version     2.0;
    format      ascii;
    class       volScalarField;
    location    "4.1";
    object      p_rgh;
}
// * * * * * * * * * * * * * * * * * * * * * * * * * * * * * * * * * * * * * //

dimensions      [1 -1 -2 0 0 0 0];

internalField   nonuniform List<scalar> 
8000
(
0.983936
0.981149
0.978797
0.976626
0.974573
0.977232
0.997291
1.031
0.956983
0.447095
-0.363508
0.303292
0.32817
0.323661
0.323164
0.323471
0.324069
0.3248
0.325588
0.326376
0.327131
0.327833
0.32847
0.329033
0.329511
0.329892
0.330162
0.330304
0.330302
0.330137
0.329792
0.329251
0.328502
0.327531
0.326333
0.324915
0.323241
0.321351
0.319236
0.316901
0.314353
0.311604
0.308661
0.305535
0.302235
0.298771
0.295152
0.291387
0.287485
0.283452
2.39893
2.39644
2.39377
2.39124
2.38911
2.39203
2.41265
2.44709
2.37446
1.86902
1.06535
0.403559
0.418655
0.418069
0.417188
0.416497
0.415973
0.415493
0.414979
0.414395
0.413728
0.412977
0.412144
0.411237
0.410261
0.409223
0.408129
0.406984
0.405793
0.404561
0.403291
0.401985
0.400645
0.39927
0.397859
0.396406
0.394961
0.393404
0.391839
0.390227
0.388568
0.386864
0.385114
0.383319
0.381481
0.379602
0.377683
0.375726
0.373735
0.37171
3.93675
3.93478
3.9329
3.93081
3.92861
3.93149
3.95357
3.99044
3.90616
3.33368
2.43067
0.731184
0.736275
0.734702
0.734029
0.733669
0.733368
0.733044
0.73267
0.73223
0.731714
0.731117
0.730438
0.729676
0.728834
0.72791
0.726906
0.725821
0.724654
0.723401
0.722061
0.720628
0.719098
0.717465
0.715722
0.713859
0.711869
0.709816
0.707462
0.705081
0.702548
0.699864
0.697028
0.694039
0.690895
0.687595
0.684142
0.680537
0.676781
0.672878
5.2236
5.22354
5.22312
5.22204
5.2204
5.22066
5.22948
5.24517
5.20431
4.934
4.50277
0.875037
0.868007
0.867756
0.867105
0.866668
0.86636
0.866052
0.865685
0.865236
0.864694
0.864058
0.863329
0.862509
0.861601
0.86061
0.859537
0.858388
0.857164
0.855868
0.854501
0.853063
0.851554
0.849973
0.848318
0.846582
0.844756
0.84289
0.84093
0.838762
0.836565
0.834251
0.831821
0.829272
0.826599
0.823799
0.82087
0.817811
0.814621
0.8113
6.63608
6.63895
6.64151
6.64289
6.64293
6.64217
6.64346
6.65132
6.65508
6.58026
6.32944
1.26207
1.01374
1.01343
1.01287
1.01248
1.01219
1.01188
1.0115
1.01104
1.01049
1.00985
1.00912
1.00831
1.0074
1.00642
1.00535
1.00421
1.00299
1.0017
1.00035
0.998921
0.99743
0.995871
0.994245
0.99255
0.990774
0.988918
0.987103
0.984852
0.982759
0.98056
0.978256
0.975842
0.973312
0.970661
0.967883
0.964974
0.96193
0.958748
8.20418
8.20651
8.20868
8.21
8.21005
8.2095
8.21403
8.23513
8.25852
8.13522
7.59147
2.43147
1.10029
1.10024
1.09966
1.0992
1.0988
1.09838
1.0979
1.09734
1.0967
1.09598
1.09518
1.0943
1.09334
1.09231
1.0912
1.09003
1.08879
1.08749
1.08614
1.08472
1.08326
1.08174
1.08017
1.07855
1.07687
1.07514
1.07348
1.07143
1.06955
1.0676
1.06558
1.06348
1.06131
1.05905
1.0567
1.05425
1.0517
1.04903
9.94151
9.93978
9.93835
9.93732
9.93589
9.9345
9.94116
9.97504
10.0242
9.87684
9.0547
4.82191
1.16552
1.1649
1.16454
1.16428
1.16405
1.16378
1.16345
1.16305
1.16256
1.16199
1.16133
1.16059
1.15976
1.15885
1.15785
1.15678
1.15563
1.15441
1.15313
1.15178
1.15037
1.1489
1.14738
1.14581
1.14418
1.1425
1.14088
1.13893
1.13713
1.13528
1.13337
1.13142
1.1294
1.12733
1.12519
1.12299
1.12071
1.11835
11.5184
11.5148
11.5115
11.5088
11.5056
11.5022
11.5089
11.5522
11.6234
11.4524
10.3596
7.66619
1.20824
1.20455
1.20513
1.2048
1.20454
1.20433
1.20408
1.20375
1.20334
1.20283
1.20222
1.20151
1.20071
1.19981
1.19881
1.19773
1.19656
1.1953
1.19397
1.19256
1.19109
1.18955
1.18794
1.18629
1.18457
1.18281
1.18109
1.1791
1.17723
1.17532
1.17337
1.17138
1.16936
1.16731
1.16522
1.16309
1.16091
1.15869
12.8759
12.8722
12.8679
12.8635
12.8581
12.8518
12.8524
12.8802
12.9322
12.8071
11.9854
10.6711
1.45004
1.23414
1.23443
1.23393
1.23356
1.23325
1.2329
1.23246
1.23193
1.23129
1.23054
1.22968
1.22871
1.22763
1.22644
1.22516
1.22378
1.2223
1.22073
1.21908
1.21736
1.21556
1.21369
1.21176
1.20977
1.20772
1.20575
1.20351
1.20135
1.19916
1.19693
1.19467
1.19239
1.19009
1.18777
1.18543
1.18307
1.18069
14.35
14.3392
14.3276
14.3171
14.3064
14.2958
14.2935
14.3233
14.382
14.2446
13.319
11.7913
1.86208
1.2475
1.24774
1.24721
1.24681
1.24646
1.24606
1.24556
1.24495
1.24423
1.24339
1.24243
1.24135
1.24015
1.23884
1.23742
1.23589
1.23425
1.23251
1.23068
1.22875
1.22673
1.22463
1.22246
1.2202
1.21788
1.21566
1.21312
1.21065
1.20812
1.20556
1.20296
1.20036
1.19771
1.19502
1.19233
1.18963
1.18695
15.8443
15.8219
15.7988
15.7783
15.7592
15.7415
15.736
15.7695
15.8251
15.6178
14.4778
11.7844
1.34757
1.24703
1.24757
1.24705
1.24666
1.24633
1.24593
1.24543
1.24482
1.24408
1.24322
1.24223
1.24111
1.23987
1.23851
1.23703
1.23544
1.23372
1.2319
1.22997
1.22793
1.22579
1.22355
1.22123
1.21881
1.2163
1.21387
1.21123
1.2085
1.20572
1.20289
1.2
1.19713
1.19412
1.19111
1.18808
1.18502
1.18195
16.6528
16.618
16.5807
16.5477
16.5187
16.495
16.4863
16.5068
16.4911
16.1966
15.3804
7.63831
1.24133
1.23913
1.23924
1.23897
1.23868
1.23835
1.23794
1.23741
1.23676
1.236
1.23512
1.23411
1.233
1.23176
1.23041
1.22894
1.22736
1.22566
1.22385
1.22193
1.2199
1.21775
1.2155
1.21315
1.2107
1.20814
1.20549
1.20283
1.19983
1.19692
1.19393
1.19087
1.18778
1.18451
1.18126
1.17795
1.17459
1.17119
17.5119
17.4672
17.4212
17.381
17.3465
17.3285
17.3532
17.3998
17.1623
15.9683
12.5032
1.41675
1.22664
1.22777
1.2274
1.22694
1.22639
1.22565
1.22473
1.22365
1.22244
1.22113
1.21973
1.21825
1.2167
1.21508
1.21338
1.21162
1.20977
1.20785
1.20584
1.20375
1.20157
1.19932
1.19697
1.19454
1.19203
1.18943
1.18675
1.18401
1.18115
1.17822
1.1752
1.17211
1.169
1.1657
1.16239
1.159
1.15555
1.15204
16.5338
16.4948
16.452
16.4135
16.385
16.3827
16.4081
16.3129
15.6667
14.4776
3.7679
1.22131
1.22899
1.22617
1.22545
1.22598
1.22533
1.22383
1.22203
1.22005
1.2179
1.21561
1.21321
1.21075
1.20823
1.20568
1.20309
1.20047
1.19782
1.19513
1.1924
1.18963
1.18681
1.18394
1.18102
1.17805
1.17502
1.17192
1.16878
1.16557
1.1623
1.15898
1.1556
1.15217
1.14868
1.14514
1.14155
1.13791
1.13421
1.13047
15.871
15.8709
15.8653
15.8483
15.8326
15.8528
15.8811
15.5393
13.9587
9.40109
0.832473
1.29967
1.23975
1.23194
1.2105
1.17797
1.17835
1.17851
1.17831
1.17754
1.17661
1.17566
1.17463
1.17343
1.172
1.17031
1.16837
1.16621
1.16387
1.16138
1.15878
1.1561
1.15333
1.15051
1.14762
1.14468
1.1417
1.13865
1.13555
1.13239
1.12916
1.12587
1.12251
1.11908
1.11558
1.11201
1.10838
1.10468
1.10091
1.09709
13.3652
13.4829
13.5904
13.6667
13.7136
13.739
13.7679
13.8361
13.8419
13.1537
10.7334
-2.06098
-1.92975
-2.84932
1.04293
1.1464
1.12849
1.15774
1.17306
1.17916
1.18367
1.18591
1.18559
1.18487
1.18332
1.18036
1.17646
1.17203
1.16731
1.16238
1.15726
1.15198
1.14658
1.14109
1.13556
1.13002
1.1245
1.11903
1.11362
1.10828
1.10304
1.09788
1.09282
1.08785
1.08295
1.07812
1.07335
1.06863
1.06394
1.05927
21.5721
21.6586
21.7625
21.8666
21.9703
22.0749
22.1823
22.2942
22.417
22.5462
22.6355
22.4027
21.4409
20.0869
4.55627
-7.32791
-3.12563
-0.883424
0.920015
1.05127
1.04907
1.09956
1.1231
1.12491
1.13995
1.15649
1.15733
1.14827
1.14045
1.13679
1.13403
1.12992
1.12451
1.11853
1.11227
1.10584
1.09936
1.09294
1.08661
1.08037
1.07416
1.06798
1.06181
1.05566
1.04951
1.04339
1.03732
1.03129
1.02533
1.01943
24.8514
24.8888
24.9356
24.9876
25.0454
25.1092
25.1798
25.2565
25.3419
25.4388
25.5489
25.6421
25.6488
25.6419
25.4393
25.2454
25.347
25.7012
19.5351
13.4416
5.80456
-2.71123
-0.079923
0.773847
1.5701
1.35778
1.11696
1.02103
1.00653
1.01691
1.01666
1.00012
0.983056
0.973377
0.96959
0.968644
0.968573
0.968373
0.967517
0.965831
0.963419
0.960506
0.957308
0.953963
0.950536
0.947041
0.943474
0.939817
0.936058
0.932187
26.923
26.9747
27.0266
27.0715
27.1104
27.1448
27.1751
27.2009
27.2224
27.2391
27.2513
27.2582
27.2602
27.26
27.2691
27.2882
27.311
27.3477
27.3705
27.4005
27.42
27.2925
26.912
28.0928
16.7651
7.48849
-1.58443
1.49493
2.31459
2.80258
1.80115
1.12379
0.953537
0.94523
0.921985
0.894728
0.875348
0.86393
0.857397
0.853688
0.851758
0.850887
0.850394
0.849631
0.848179
0.845967
0.843194
0.840166
0.837116
0.834142
32.2969
32.285
32.2762
32.2714
32.27
32.2712
32.2752
32.2818
32.2912
32.3031
32.3175
32.3343
32.3534
32.375
32.3992
32.4263
32.456
32.4888
32.5283
32.5798
32.6531
32.7452
32.8393
32.9745
33.0089
32.9477
32.5002
28.0647
24.8053
14.3364
3.11901
1.89723
2.96765
2.84942
1.55802
1.09394
1.04647
1.01319
0.950136
0.883244
0.825872
0.781231
0.749492
0.728227
0.715001
0.708075
0.70546
0.705143
0.705576
0.705822
0.279297
0.275026
0.270647
0.266165
0.261586
0.256916
0.25216
0.247324
0.242413
0.237432
0.232386
0.22728
0.222118
0.216906
0.211649
0.206351
0.201017
0.195652
0.190261
0.184847
0.179417
0.173973
0.168522
0.163066
0.157611
0.152161
0.14672
0.141292
0.13588
0.13049
0.125124
0.119787
0.114482
0.109213
0.103982
0.0987948
0.0936531
0.0885604
0.08352
0.0785347
0.0736069
0.0687398
0.0639379
0.0592054
0.054539
0.0499275
0.0453812
0.0409685
0.0367471
0.032507
0.369656
0.367573
0.365464
0.363331
0.361177
0.359002
0.356809
0.354598
0.352372
0.35013
0.347875
0.345606
0.343325
0.341033
0.338729
0.336414
0.334088
0.331752
0.329407
0.327051
0.324685
0.322309
0.319923
0.317527
0.315121
0.312705
0.310279
0.307842
0.305395
0.302937
0.300468
0.297989
0.295498
0.292997
0.290484
0.287961
0.285427
0.282881
0.280325
0.277758
0.275181
0.272594
0.269996
0.26739
0.264776
0.262154
0.25952
0.256869
0.25422
0.251616
0.668831
0.664643
0.66032
0.655864
0.651282
0.646576
0.641752
0.636815
0.631768
0.626617
0.621365
0.616017
0.610578
0.605051
0.599441
0.59375
0.587984
0.582146
0.576238
0.570266
0.564232
0.558139
0.551991
0.54579
0.539541
0.533246
0.526908
0.52053
0.514116
0.507667
0.501187
0.494679
0.488146
0.481589
0.475012
0.468418
0.46181
0.455189
0.448558
0.44192
0.435277
0.428632
0.421989
0.415349
0.408714
0.402078
0.395445
0.388854
0.382337
0.375796
0.80785
0.804272
0.800569
0.796743
0.792797
0.788734
0.784559
0.780274
0.775884
0.771392
0.766803
0.762119
0.757345
0.752485
0.747541
0.742517
0.737417
0.732243
0.726998
0.721686
0.716308
0.710869
0.705369
0.699812
0.6942
0.688536
0.68282
0.677057
0.671247
0.665394
0.659498
0.653562
0.647587
0.641577
0.635532
0.629454
0.623346
0.617208
0.611044
0.604854
0.598641
0.592405
0.586149
0.579876
0.573586
0.567281
0.560959
0.554624
0.548293
0.541972
0.955425
0.951959
0.94835
0.944597
0.9407
0.936661
0.932481
0.928161
0.923706
0.919116
0.914395
0.909547
0.904574
0.899482
0.894272
0.888949
0.883516
0.877978
0.872337
0.866597
0.860762
0.854835
0.84882
0.842719
0.836535
0.830273
0.823934
0.817521
0.811038
0.804487
0.797871
0.791193
0.784454
0.777658
0.770806
0.763902
0.756948
0.749947
0.7429
0.735809
0.728678
0.721509
0.714303
0.707065
0.699794
0.692492
0.68516
0.677811
0.670463
0.663087
1.04626
1.04337
1.04036
1.03722
1.03396
1.03057
1.02706
1.02341
1.01964
1.01574
1.01171
1.00755
1.00328
0.99888
0.994364
0.989733
0.984988
0.980135
0.975174
0.97011
0.964946
0.959685
0.954329
0.948883
0.943348
0.937728
0.932026
0.926244
0.920385
0.914451
0.908446
0.902371
0.896229
0.890022
0.883752
0.877423
0.871035
0.86459
0.858092
0.851541
0.844941
0.838292
0.831597
0.824858
0.818077
0.811257
0.804397
0.797496
0.790559
0.783608
1.11591
1.11338
1.11075
1.10803
1.1052
1.10226
1.09921
1.09605
1.09277
1.08937
1.08585
1.0822
1.07844
1.07456
1.07055
1.06642
1.06218
1.05782
1.05334
1.04875
1.04405
1.03924
1.03432
1.0293
1.02418
1.01897
1.01366
1.00825
1.00276
0.997187
0.991528
0.985787
0.979968
0.974074
0.968107
0.962068
0.955962
0.949789
0.943552
0.937253
0.930894
0.924478
0.918005
0.911479
0.904901
0.898275
0.891601
0.884875
0.878103
0.871301
1.15642
1.1541
1.15172
1.14927
1.14676
1.14418
1.14152
1.13878
1.13595
1.13303
1.13003
1.12693
1.12373
1.12043
1.11703
1.11353
1.10992
1.10621
1.1024
1.09848
1.09447
1.09035
1.08613
1.08181
1.0774
1.07289
1.06829
1.06359
1.05881
1.05395
1.049
1.04396
1.03885
1.03366
1.0284
1.02306
1.01766
1.01218
1.00664
1.00104
0.995369
0.989641
0.983854
0.97801
0.972112
0.966164
0.960165
0.954104
0.947979
0.941834
1.17829
1.17587
1.17342
1.17095
1.16844
1.1659
1.16332
1.1607
1.15803
1.15531
1.15254
1.1497
1.1468
1.14384
1.14081
1.1377
1.13452
1.13125
1.12791
1.12448
1.12097
1.11738
1.1137
1.10993
1.10607
1.10213
1.0981
1.09399
1.08979
1.08551
1.08115
1.0767
1.07218
1.06758
1.06291
1.05816
1.05334
1.04846
1.0435
1.03848
1.03339
1.02824
1.02303
1.01776
1.01244
1.00706
1.00163
0.996133
0.990566
0.984976
1.1842
1.18147
1.17872
1.17605
1.1733
1.17053
1.16777
1.16499
1.16221
1.1594
1.15658
1.15374
1.15087
1.14797
1.14504
1.14207
1.13907
1.13602
1.13292
1.12978
1.12658
1.12333
1.12002
1.11666
1.11323
1.10975
1.1062
1.10259
1.09891
1.09518
1.09137
1.08751
1.08357
1.07957
1.07551
1.07139
1.06719
1.06294
1.05862
1.05424
1.04981
1.04531
1.04075
1.03614
1.03147
1.02675
1.02198
1.01715
1.01224
1.00731
1.17886
1.17574
1.17262
1.1695
1.1663
1.16317
1.16005
1.15692
1.1538
1.15068
1.14756
1.14444
1.14132
1.1382
1.13508
1.13195
1.12882
1.12568
1.12253
1.11937
1.11619
1.11299
1.10977
1.10653
1.10325
1.09995
1.09662
1.09325
1.08985
1.0864
1.08291
1.07938
1.0758
1.07218
1.06852
1.06481
1.06106
1.05727
1.05343
1.04955
1.04563
1.04166
1.03765
1.03359
1.02949
1.02535
1.02117
1.01692
1.01259
1.00826
1.16775
1.16428
1.16069
1.15716
1.15362
1.15006
1.14648
1.1429
1.13931
1.13572
1.13213
1.12854
1.12496
1.12139
1.11783
1.11428
1.11074
1.10721
1.10369
1.10018
1.09668
1.09321
1.08971
1.08624
1.08277
1.07931
1.07585
1.07239
1.06894
1.06549
1.06204
1.05858
1.05512
1.05165
1.04818
1.04469
1.04118
1.03766
1.03411
1.03054
1.02695
1.02333
1.01968
1.01599
1.01227
1.00853
1.00475
1.00091
0.997015
0.993107
1.14846
1.14494
1.14126
1.13751
1.13375
1.12994
1.1261
1.12224
1.11834
1.11443
1.1105
1.10656
1.1026
1.09864
1.09468
1.09072
1.08677
1.08293
1.07899
1.07505
1.07114
1.06724
1.06336
1.0595
1.05565
1.05182
1.04802
1.04423
1.04045
1.0367
1.03296
1.02924
1.02554
1.02185
1.01818
1.01452
1.01088
1.00726
1.00365
1.00005
0.996475
0.99291
0.98936
0.985823
0.982299
0.978785
0.975284
0.971791
0.968294
0.964793
1.12667
1.12283
1.11893
1.11499
1.11101
1.10696
1.1029
1.0988
1.09466
1.09049
1.08629
1.08206
1.07781
1.07355
1.06926
1.06496
1.06074
1.05643
1.05211
1.04781
1.04351
1.03922
1.03494
1.03067
1.02642
1.02219
1.01799
1.01381
1.00966
1.00554
1.00144
0.997382
0.993354
0.989399
0.985402
0.981477
0.977587
0.97373
0.969907
0.966119
0.962365
0.958647
0.954955
0.9513
0.947677
0.94408
0.940515
0.937001
0.933553
0.930098
1.09322
1.08929
1.08531
1.08128
1.07721
1.07315
1.06893
1.06475
1.06053
1.05627
1.05199
1.04767
1.04333
1.03896
1.03457
1.03017
1.02574
1.02131
1.01688
1.01234
1.00792
1.00343
0.999017
0.994561
0.990101
0.985664
0.981239
0.97683
0.97244
0.96807
0.963725
0.959409
0.955127
0.950848
0.946627
0.942442
0.938279
0.934183
0.930116
0.926056
0.922076
0.918141
0.914252
0.910412
0.906619
0.902867
0.899159
0.89553
0.892015
0.88864
1.05462
1.04999
1.04535
1.04071
1.03607
1.03143
1.02678
1.02212
1.01745
1.01278
1.00811
1.00343
0.99875
0.994069
0.98939
0.984713
0.980041
0.975374
0.970717
0.966066
0.961424
0.956795
0.952179
0.947581
0.943006
0.938415
0.933872
0.929352
0.924857
0.920389
0.91595
0.911543
0.907169
0.90284
0.898538
0.894253
0.890038
0.885856
0.881708
0.877617
0.873562
0.869517
0.865555
0.861639
0.85777
0.853945
0.850165
0.846449
0.842819
0.839371
1.01361
1.00787
1.0022
0.996593
0.991054
0.985573
0.980144
0.97476
0.969415
0.964104
0.958824
0.953573
0.948348
0.943148
0.937973
0.932822
0.927698
0.922601
0.917531
0.91249
0.907479
0.9025
0.897554
0.892641
0.887764
0.882923
0.87812
0.873357
0.868636
0.863958
0.859324
0.854736
0.850195
0.845704
0.841265
0.836877
0.832543
0.828264
0.82404
0.819876
0.815771
0.811726
0.807743
0.803824
0.79997
0.796182
0.792459
0.788797
0.785197
0.781679
0.928204
0.924112
0.919921
0.915643
0.911293
0.906882
0.902423
0.897926
0.893399
0.888848
0.884279
0.879695
0.8751
0.870495
0.865881
0.861262
0.856636
0.852006
0.847373
0.842739
0.838106
0.833477
0.828855
0.824245
0.819651
0.815074
0.810519
0.805989
0.801486
0.797013
0.792573
0.788168
0.783801
0.779473
0.775186
0.770943
0.766745
0.762594
0.758493
0.754444
0.750449
0.746511
0.742632
0.738815
0.735062
0.731377
0.727762
0.724209
0.720713
0.717309
0.831254
0.828413
0.825587
0.822741
0.819843
0.816869
0.813804
0.81064
0.807374
0.804009
0.800552
0.797012
0.793396
0.789714
0.785974
0.782184
0.778352
0.774482
0.770582
0.766655
0.762705
0.758736
0.754752
0.750755
0.746749
0.742737
0.738723
0.734709
0.730699
0.726697
0.722706
0.718728
0.714768
0.710829
0.706916
0.703032
0.69918
0.695362
0.691583
0.687844
0.684149
0.680499
0.676898
0.673349
0.669854
0.666416
0.663037
0.659715
0.656444
0.65325
0.705563
0.704891
0.704035
0.703166
0.702344
0.701542
0.700717
0.699835
0.69887
0.697799
0.696604
0.695273
0.693798
0.692177
0.69041
0.688503
0.686462
0.684296
0.682015
0.679628
0.677146
0.674578
0.671931
0.669215
0.666435
0.6636
0.660714
0.657784
0.654815
0.651813
0.648782
0.645728
0.642655
0.639568
0.63647
0.633367
0.630263
0.627161
0.624066
0.620982
0.617912
0.61486
0.611829
0.608823
0.605845
0.602901
0.599993
0.597125
0.594295
0.591519
0.0288914
0.0263206
0.0237719
0.0212511
0.018757
0.0162905
0.0138524
0.0114438
0.00906568
0.00671895
0.00440457
0.00212347
-0.000123468
-0.00233535
-0.00451132
-0.00665055
-0.00875222
-0.0108155
-0.0128397
-0.0148241
-0.0167678
-0.0186703
-0.0205308
-0.0223487
-0.0241235
-0.0258544
-0.027541
-0.0291827
-0.030779
-0.0323295
-0.0338337
-0.0352911
-0.0367016
-0.0380646
-0.0393798
-0.0406472
-0.0418662
-0.0430369
-0.044159
-0.0452324
-0.046257
-0.0472327
-0.0481596
-0.0490377
-0.049867
-0.0506476
-0.0513798
-0.0520636
-0.0526994
-0.0532874
-0.0538278
-0.0543211
-0.0547677
-0.0551679
-0.0555223
-0.0558314
-0.0560957
-0.0563158
-0.0564923
-0.056626
-0.0567175
-0.0567677
-0.0567772
-0.0567469
-0.0566776
-0.0565703
-0.0564259
-0.0562453
-0.0560295
-0.0557795
-0.0554965
-0.0551814
-0.0548354
-0.0544595
-0.054055
-0.053623
-0.0531647
-0.0526813
-0.0521741
-0.0516442
-0.0510929
-0.0505215
-0.0499313
-0.0493235
-0.0486995
-0.0480604
-0.0474077
-0.0467426
-0.0460664
-0.0453803
-0.0446857
-0.0439839
-0.043276
-0.0425634
-0.0418472
-0.0411288
-0.0404093
-0.0396899
-0.0389718
-0.0382561
-0.037544
-0.0368366
-0.0361349
-0.03544
-0.0347529
-0.0340746
-0.0334061
-0.0327484
-0.0321022
-0.0314686
-0.0308483
-0.0302421
-0.0296509
-0.0290753
-0.0285161
-0.0279739
-0.0274494
-0.0269432
-0.0264558
-0.0259879
-0.0255399
-0.0251124
-0.0247059
-0.0243209
-0.0239579
-0.0236174
-0.0233001
-0.0230065
-0.0227375
-0.022494
-0.0222772
-0.0220885
-0.0219297
-0.0218045
-0.0217214
-0.0216806
-0.0216278
-0.0216242
-0.0216832
-0.0218162
-0.0220329
-0.0223448
-0.0227901
-0.023385
-0.022982
-0.0227155
-0.0229093
-0.0233172
-0.0238306
-0.0248541
-0.0248986
-0.0254778
-0.0251692
-0.0250866
-0.0255702
-0.0263199
-0.0262178
-0.0263933
-0.0271682
-0.0271205
-0.0276768
-0.0274449
-0.0278219
-0.0273438
-0.0274856
-0.0282429
-0.0280764
-0.0285325
-0.0296617
-0.0301979
-0.0314911
-0.0322398
-0.0324375
-0.031591
-0.031482
-0.0321065
-0.0335099
-0.0343844
-0.0361445
-0.0374083
-0.0396468
-0.041582
-0.0432651
-0.0447419
-0.0460423
-0.0471917
-0.0482119
-0.0491213
-0.0499359
-0.0506692
-0.0513328
-0.0519368
-0.0524898
-0.0529993
-0.0534714
-0.0539115
-0.0543241
-0.0547133
-0.0550824
-0.0554346
-0.0557723
-0.0560977
-0.0564126
-0.0567185
-0.0570166
-0.0573082
-0.0575945
-0.0578765
-0.0581551
-0.0584309
-0.0587047
-0.0589768
-0.0592474
-0.0595169
-0.0597853
-0.0600528
-0.0603194
-0.0605852
-0.0608502
-0.0611146
-0.0613785
-0.0616421
-0.0619054
-0.0621685
-0.0624315
-0.0626944
-0.0629573
-0.06322
-0.0634826
-0.063745
-0.0640069
-0.0642683
-0.0645289
-0.0647885
-0.0650474
-0.0653054
-0.0655628
-0.0658196
-0.0660758
-0.0663314
-0.0665864
-0.0668407
-0.0670942
-0.0673469
-0.0675988
-0.0678497
-0.0680994
-0.0683476
-0.068594
-0.068838
-0.0690795
-0.0693186
-0.0695552
-0.0697894
-0.0700212
-0.0702502
-0.0704764
-0.0706994
-0.0709194
-0.0711362
-0.0713499
-0.0715605
-0.0717679
-0.071972
-0.0721727
-0.0723697
-0.0725627
-0.0727514
-0.0729357
-0.0731154
-0.0732904
-0.0734604
-0.0736255
-0.0737855
-0.0739407
-0.0740914
-0.0742378
-0.0743805
-0.0745193
-0.0746542
-0.0747848
-0.0749108
-0.0750319
-0.0751483
-0.0752604
-0.0753686
-0.0754731
-0.0755739
-0.0756706
-0.0757628
-0.07585
-0.0759322
-0.0760093
-0.0760816
-0.0761494
-0.0762129
-0.0762717
-0.0763268
-0.0763827
-0.0764428
0.249675
0.248254
0.246813
0.245361
0.243896
0.242419
0.240928
0.239423
0.237905
0.236373
0.234826
0.233264
0.231687
0.230096
0.228489
0.226866
0.225228
0.223573
0.221903
0.220217
0.218514
0.216795
0.21506
0.213308
0.21154
0.209756
0.207955
0.206137
0.204304
0.202454
0.200587
0.198705
0.196807
0.194893
0.192964
0.191019
0.189059
0.187084
0.185094
0.18309
0.181072
0.17904
0.176995
0.174938
0.172867
0.170785
0.16869
0.166585
0.164469
0.162342
0.160207
0.158062
0.155908
0.153747
0.151578
0.149402
0.147221
0.145034
0.142843
0.140647
0.138449
0.136248
0.134045
0.131841
0.129637
0.127433
0.125231
0.123031
0.120835
0.118641
0.116453
0.11427
0.112093
0.109924
0.107762
0.105609
0.103466
0.101333
0.099212
0.0971028
0.0950066
0.0929241
0.0908562
0.0888036
0.0867672
0.0847476
0.0827457
0.0807621
0.0787976
0.0768528
0.0749284
0.073025
0.0711433
0.0692839
0.0674472
0.0656338
0.0638442
0.0620789
0.0603383
0.0586227
0.0569326
0.0552682
0.0536297
0.0520175
0.0504317
0.0488723
0.0473396
0.0458334
0.0443539
0.0429008
0.041474
0.0400734
0.0386986
0.0373493
0.0360251
0.0347255
0.03345
0.0321979
0.0309684
0.0297608
0.0285742
0.0274076
0.0262598
0.0251296
0.0240159
0.022917
0.0218316
0.0207578
0.019694
0.0186383
0.0175886
0.0165428
0.0154983
0.0144533
0.0134076
0.0123573
0.0112876
0.0101827
0.00904272
0.00788208
0.00671328
0.00553131
0.00433873
0.00318239
0.00200365
0.000839644
-0.000302861
-0.00145612
-0.00260215
-0.00373655
-0.00486261
-0.00594068
-0.0070391
-0.00811554
-0.0091767
-0.0102124
-0.0112599
-0.0122988
-0.0132996
-0.0143119
-0.015288
-0.0162589
-0.0172031
-0.0181595
-0.019101
-0.0200299
-0.0210081
-0.0219837
-0.0229455
-0.023899
-0.0248229
-0.0257234
-0.0266006
-0.027706
-0.0287994
-0.0299172
-0.0310441
-0.0321877
-0.0333437
-0.0345393
-0.035714
-0.0368699
-0.0379938
-0.0390805
-0.0401286
-0.0411376
-0.0421075
-0.0430386
-0.0439314
-0.0447871
-0.0456073
-0.0463942
-0.0471497
-0.0478757
-0.0485738
-0.0492452
-0.0498915
-0.0505145
-0.0511164
-0.0516988
-0.0522631
-0.0528103
-0.053341
-0.053856
-0.0543564
-0.0548436
-0.055319
-0.0557838
-0.0562392
-0.0566857
-0.0571238
-0.0575536
-0.0579753
-0.058389
-0.0587949
-0.0591931
-0.0595839
-0.0599675
-0.0603446
-0.0607158
-0.0610815
-0.0614424
-0.0617987
-0.0621506
-0.0624985
-0.0628425
-0.0631827
-0.0635194
-0.0638525
-0.0641818
-0.0645072
-0.0648283
-0.0651453
-0.0654583
-0.0657678
-0.0660744
-0.0663781
-0.0666793
-0.0669779
-0.0672736
-0.0675662
-0.0678555
-0.0681416
-0.0684245
-0.068704
-0.06898
-0.0692518
-0.0695187
-0.06978
-0.0700355
-0.0702855
-0.0705304
-0.0707706
-0.0710061
-0.0712366
-0.0714615
-0.0716805
-0.0718937
-0.0721011
-0.0723029
-0.0724992
-0.0726898
-0.0728745
-0.0730531
-0.0732251
-0.0733899
-0.0735473
-0.0736968
-0.0738386
-0.0739724
-0.0740981
-0.0742157
-0.0743252
-0.0744268
-0.074521
-0.0746085
-0.07469
-0.0747656
-0.0748351
-0.0748978
-0.0749531
-0.0750009
-0.0750417
-0.0750768
-0.0751075
-0.0751347
-0.0751586
-0.0751789
-0.0751955
-0.0752084
-0.0752185
-0.0752273
-0.0752372
-0.0752506
-0.0752695
-0.0752942
-0.0753235
-0.0753585
-0.0754045
-0.0754604
0.370579
0.366888
0.363185
0.359472
0.355751
0.352021
0.348282
0.344536
0.340783
0.337023
0.333257
0.329485
0.325709
0.321929
0.318144
0.314357
0.310567
0.306776
0.302983
0.299189
0.295396
0.291603
0.287811
0.284022
0.280235
0.276451
0.272671
0.268896
0.265126
0.261362
0.257604
0.253854
0.250112
0.246378
0.242653
0.238938
0.235234
0.231541
0.227861
0.224192
0.220538
0.216897
0.21327
0.20966
0.206065
0.202487
0.198926
0.195383
0.191859
0.188354
0.18487
0.181406
0.177963
0.174542
0.171144
0.167769
0.164418
0.161092
0.15779
0.154514
0.151265
0.148042
0.144847
0.141679
0.138541
0.135431
0.132351
0.1293
0.126281
0.123292
0.120336
0.117411
0.114518
0.111659
0.108832
0.10604
0.103281
0.100557
0.0978677
0.0952134
0.0925945
0.0900113
0.0874639
0.0849527
0.0824779
0.0800397
0.0776382
0.0752736
0.072946
0.0706556
0.0684023
0.0661864
0.0640077
0.0618663
0.0597622
0.0576954
0.0556657
0.0536731
0.0517174
0.0497986
0.0479164
0.0460707
0.0442612
0.0424877
0.0407499
0.0390475
0.0373802
0.0357476
0.0341494
0.0325852
0.0310545
0.0295569
0.028092
0.0266591
0.0252579
0.0238877
0.0225481
0.0212383
0.0199579
0.0187061
0.0174823
0.0162858
0.0151159
0.0139719
0.012853
0.0117584
0.0106872
0.00963868
0.00861185
0.00760579
0.0066195
0.00565194
0.00470201
0.00376852
0.00285026
0.00194585
0.00105366
0.000172075
-0.000700135
-0.00156378
-0.00241945
-0.00326762
-0.00410852
-0.00494225
-0.00576943
-0.00659034
-0.00740533
-0.00821489
-0.00901915
-0.00981824
-0.0106123
-0.0114014
-0.0121863
-0.0129673
-0.0137446
-0.0145187
-0.0152901
-0.0160592
-0.0168258
-0.0175907
-0.0183539
-0.019116
-0.0198778
-0.0206405
-0.0214046
-0.0221711
-0.0229407
-0.0237134
-0.024489
-0.0252676
-0.0260494
-0.0268357
-0.0276283
-0.0284297
-0.0292391
-0.0300561
-0.0308796
-0.031708
-0.0325398
-0.0333767
-0.0342198
-0.0350615
-0.0358936
-0.0367167
-0.0375306
-0.0383342
-0.0391267
-0.0399074
-0.0406755
-0.0414306
-0.0421722
-0.0429004
-0.043614
-0.0443121
-0.0450016
-0.0456776
-0.0463406
-0.0469907
-0.0476283
-0.0482537
-0.0488673
-0.0494693
-0.0500599
-0.0506397
-0.0512091
-0.0517685
-0.0523183
-0.0528588
-0.0533906
-0.0539137
-0.0544286
-0.0549355
-0.0554346
-0.0559261
-0.0564103
-0.0568874
-0.0573576
-0.0578211
-0.0582783
-0.0587294
-0.0591746
-0.0596142
-0.0600482
-0.060477
-0.0609006
-0.0613192
-0.0617328
-0.0621417
-0.0625458
-0.0629451
-0.0633396
-0.0637295
-0.0641146
-0.0644951
-0.0648711
-0.0652426
-0.0656097
-0.0659723
-0.0663304
-0.0666838
-0.0670324
-0.067376
-0.0677145
-0.0680478
-0.0683755
-0.0686974
-0.0690132
-0.0693224
-0.0696248
-0.06992
-0.070208
-0.0704887
-0.0707619
-0.0710275
-0.0712852
-0.0715348
-0.071776
-0.0720088
-0.0722332
-0.072449
-0.0726561
-0.0728544
-0.0730437
-0.0732238
-0.0733944
-0.0735554
-0.0737063
-0.0738471
-0.0739775
-0.0740973
-0.0742063
-0.0743044
-0.0743914
-0.0744675
-0.0745329
-0.074588
-0.0746331
-0.0746686
-0.0746947
-0.0747117
-0.07472
-0.0747202
-0.0747132
-0.0746998
-0.0746812
-0.0746587
-0.0746337
-0.0746077
-0.0745827
-0.0745612
-0.0745456
-0.0745389
-0.0745441
-0.0745643
-0.0746011
-0.0746507
-0.0747038
-0.0747623
-0.0748555
-0.0750028
0.537113
0.533678
0.530219
0.52674
0.523241
0.519722
0.516182
0.512623
0.509043
0.505444
0.501825
0.498186
0.494528
0.490851
0.487154
0.483438
0.479704
0.47595
0.472178
0.468388
0.46458
0.460753
0.456909
0.453048
0.449169
0.445273
0.441361
0.437432
0.433487
0.429526
0.42555
0.421558
0.417552
0.413531
0.409497
0.405448
0.401387
0.397312
0.393225
0.389126
0.385015
0.380894
0.376762
0.37262
0.368468
0.364307
0.360138
0.355961
0.351777
0.347586
0.343389
0.339186
0.334979
0.330768
0.326553
0.322335
0.318115
0.313894
0.309673
0.305451
0.30123
0.297011
0.292794
0.288581
0.284372
0.280167
0.275968
0.271776
0.267591
0.263414
0.259246
0.255088
0.250941
0.246806
0.242684
0.238575
0.23448
0.230401
0.226338
0.222292
0.218264
0.214255
0.210267
0.206298
0.202352
0.198428
0.194528
0.190652
0.186801
0.182976
0.179178
0.175408
0.171666
0.167954
0.164272
0.160621
0.157001
0.153414
0.14986
0.14634
0.142855
0.139404
0.135989
0.13261
0.129269
0.125964
0.122697
0.119469
0.116279
0.113128
0.110017
0.106945
0.103913
0.100921
0.0979691
0.0950578
0.092187
0.0893566
0.0865667
0.0838172
0.081108
0.0784389
0.0758097
0.0732203
0.0706702
0.0681591
0.0656866
0.0632524
0.0608558
0.0584963
0.0561735
0.0538866
0.0516349
0.0494178
0.0472346
0.0450844
0.0429664
0.04088
0.0388244
0.0367991
0.0348037
0.0328376
0.0309004
0.0289917
0.0271111
0.0252582
0.0234328
0.0216343
0.0198624
0.0181168
0.016397
0.0147027
0.0130336
0.0113892
0.0097691
0.00817288
0.00660012
0.00505037
0.00352315
0.00201797
0.000534324
-0.000928315
-0.00237045
-0.00379262
-0.00519534
-0.00657915
-0.00794457
-0.0092921
-0.0106223
-0.0119356
-0.0132325
-0.0145135
-0.015779
-0.0170293
-0.0182645
-0.0194849
-0.0206903
-0.0218807
-0.0230558
-0.0242154
-0.0253592
-0.0264869
-0.0275981
-0.0286925
-0.0297698
-0.03083
-0.0318728
-0.0328982
-0.0339062
-0.0348966
-0.0358694
-0.0368245
-0.0377633
-0.0386876
-0.0395891
-0.0404728
-0.041339
-0.0421878
-0.0430194
-0.0438341
-0.0446324
-0.045412
-0.046172
-0.0469307
-0.0476755
-0.0484072
-0.0491259
-0.0498321
-0.0505259
-0.0512077
-0.0518778
-0.0525364
-0.0531837
-0.05382
-0.0544456
-0.0550608
-0.0556658
-0.0562609
-0.0568465
-0.0574226
-0.0579897
-0.058548
-0.0590978
-0.0596391
-0.0601723
-0.0606975
-0.0612149
-0.0617247
-0.0622269
-0.0627217
-0.0632092
-0.0636895
-0.0641628
-0.064629
-0.0650883
-0.0655407
-0.0659861
-0.0664245
-0.0668558
-0.0672799
-0.0676966
-0.0681056
-0.0685067
-0.0688997
-0.0692841
-0.0696598
-0.0700263
-0.0703833
-0.0707306
-0.0710679
-0.0713949
-0.0717114
-0.0720173
-0.0723124
-0.0725964
-0.0728693
-0.0731309
-0.0733809
-0.0736191
-0.0738452
-0.0740588
-0.0742597
-0.0744473
-0.0746213
-0.0747812
-0.0749268
-0.0750576
-0.0751734
-0.0752739
-0.0753591
-0.0754287
-0.0754827
-0.0755214
-0.075545
-0.0755536
-0.0755478
-0.0755279
-0.0754942
-0.0754475
-0.0753884
-0.075318
-0.0752377
-0.0751496
-0.0750557
-0.0749585
-0.0748606
-0.0747646
-0.0746733
-0.0745898
-0.0745176
-0.0744601
-0.0744201
-0.0744005
-0.0744049
-0.0744336
-0.0744746
-0.0745064
-0.0745401
-0.0746593
-0.0749264
0.657339
0.653294
0.649223
0.645127
0.641006
0.63686