/*--------------------------------*- C++ -*----------------------------------*\
| =========                 |                                                 |
| \\      /  F ield         | OpenFOAM: The Open Source CFD Toolbox           |
|  \\    /   O peration     | Version:  2.4.0                                 |
|   \\  /    A nd           | Web:      www.OpenFOAM.org                      |
|    \\/     M anipulation  |                                                 |
\*---------------------------------------------------------------------------*/
FoamFile
{
    version     2.0;
    format      ascii;
    class       volScalarField;
    location    "4";
    object      H;
}
// * * * * * * * * * * * * * * * * * * * * * * * * * * * * * * * * * * * * * //

dimensions      [0 2 -2 0 0 0 0];

internalField   nonuniform List<scalar> 
500
(
-11995.2
-11995.3
-11995.3
-11995.3
-11995.2
-11523.1
-11523.2
-11523.2
-11523.2
-11523.1
-11045.8
-11046
-11046
-11046
-11045.8
-10563.4
-10563.6
-10563.6
-10563.6
-10563.4
-10075.7
-10076
-10076
-10076
-10075.7
-9582.91
-9583.24
-9583.27
-9583.25
-9582.91
-9084.92
-9085.3
-9085.33
-9085.31
-9084.92
-8581.75
-8582.16
-8582.19
-8582.17
-8581.75
-8073.36
-8073.8
-8073.82
-8073.81
-8073.36
-7559.73
-7560.19
-7560.2
-7560.2
-7559.73
-7040.81
-7041.27
-7041.26
-7041.28
-7040.81
-6516.52
-6516.97
-6516.94
-6516.99
-6516.53
-5986.79
-5987.22
-5987.16
-5987.23
-5986.8
-5451.51
-5451.9
-5451.8
-5451.91
-5451.51
-4910.53
-4910.87
-4910.74
-4910.88
-4910.53
-4363.71
-4363.98
-4363.8
-4363.99
-4363.71
-3810.85
-3811.04
-3810.81
-3811.05
-3810.85
-3251.76
-3251.84
-3251.56
-3251.85
-3251.76
-2686.18
-2686.15
-2685.8
-2686.16
-2686.18
-2113.85
-2113.69
-2113.27
-2113.7
-2113.85
-1534.49
-1534.19
-1533.69
-1534.2
-1534.48
-947.774
-947.324
-946.747
-947.336
-947.772
-53.9229
-53.6678
-53.4337
-53.6724
-53.9213
-41.1663
-40.971
-40.7914
-40.9745
-41.1651
-41.5374
-41.3471
-41.1709
-41.3504
-41.5362
-41.8833
-41.698
-41.5255
-41.7012
-41.8822
-42.2031
-42.023
-41.854
-42.026
-42.202
-42.4961
-42.3212
-42.1559
-42.324
-42.495
-42.7614
-42.5918
-42.4302
-42.5945
-42.7604
-42.9981
-42.8339
-42.6761
-42.8365
-42.9972
-43.2057
-43.0469
-42.8928
-43.0493
-43.2048
-43.3832
-43.23
-43.0797
-43.2323
-43.3823
-43.53
-43.3824
-43.236
-43.3846
-43.5292
-43.6455
-43.5035
-43.361
-43.5055
-43.6447
-43.7289
-43.5927
-43.4541
-43.5946
-43.7282
-43.7798
-43.6493
-43.5147
-43.6511
-43.7792
-43.7975
-43.6728
-43.5422
-43.6745
-43.7969
-43.7816
-43.6627
-43.5361
-43.6643
-43.7811
-43.7316
-43.6186
-43.4961
-43.6201
-43.7311
-43.6472
-43.54
-43.4216
-43.5414
-43.6467
-43.5279
-43.4266
-43.3123
-43.428
-43.5275
-43.3736
-43.2782
-43.168
-43.2795
-43.3733
-43.1841
-43.0945
-42.9884
-43.0957
-43.1837
-42.9591
-42.8754
-42.7735
-42.8766
-42.9588
-42.6987
-42.6208
-42.5231
-42.6219
-42.6985
-42.4029
-42.3308
-42.2372
-42.3319
-42.4027
-42.0717
-42.0055
-41.916
-42.0065
-42.0716
-41.7054
-41.6449
-41.5595
-41.6459
-41.7054
-41.3043
-41.2494
-41.1682
-41.2503
-41.3042
-40.8686
-40.8193
-40.7421
-40.8202
-40.8686
-40.3987
-40.355
-40.2819
-40.3559
-40.3988
-39.8953
-39.857
-39.7879
-39.8579
-39.8954
-39.3589
-39.3259
-39.2609
-39.3268
-39.3591
-38.7902
-38.7625
-38.7013
-38.7633
-38.7904
-38.1901
-38.1674
-38.1102
-38.1682
-38.1903
-37.5592
-37.5416
-37.4882
-37.5424
-37.5595
-36.8988
-36.886
-36.8363
-36.8868
-36.8991
-36.2097
-36.2016
-36.1556
-36.2024
-36.2101
-35.4931
-35.4896
-35.4472
-35.4903
-35.4935
-34.7503
-34.7511
-34.7123
-34.7519
-34.7507
-33.9825
-33.9875
-33.9521
-33.9883
-33.983
-33.1911
-33.2
-33.1681
-33.2008
-33.1916
-32.3774
-32.3902
-32.3615
-32.391
-32.378
-31.5432
-31.5595
-31.534
-31.5604
-31.5437
-30.6898
-30.7095
-30.687
-30.7104
-30.6904
-29.8189
-29.8418
-29.8222
-29.8426
-29.8195
-28.9321
-28.958
-28.9412
-28.9589
-28.9328
-28.0312
-28.0598
-28.0457
-28.0607
-28.0319
-27.1179
-27.149
-27.1374
-27.1499
-27.1186
-26.1939
-26.2273
-26.2181
-26.2281
-26.1946
-25.261
-25.2964
-25.2895
-25.2973
-25.2618
-24.321
-24.3581
-24.3534
-24.359
-24.3218
-23.3756
-23.4143
-23.4115
-23.4152
-23.3764
-22.4266
-22.4665
-22.4656
-22.4674
-22.4274
-21.4757
-21.5166
-21.5174
-21.5175
-21.4765
-20.5246
-20.5663
-20.5685
-20.5672
-20.5254
-19.5749
-19.6171
-19.6207
-19.618
-19.5757
-18.6282
-18.6707
-18.6755
-18.6715
-18.629
-17.686
-17.7285
-17.7344
-17.7293
-17.6867
-16.7497
-16.7919
-16.7988
-16.7928
-16.7504
-15.8206
-15.8625
-15.8701
-15.8633
-15.8213
-14.9
-14.9412
-14.9495
-14.942
-14.9007
-13.989
-14.0293
-14.0381
-14.0301
-13.9897
-13.0886
-13.1278
-13.1369
-13.1286
-13.0893
-12.1996
-12.2375
-12.2468
-12.2383
-12.2003
-11.3228
-11.3592
-11.3686
-11.36
-11.3235
-10.4588
-10.4935
-10.5028
-10.4942
-10.4594
-9.60787
-9.64073
-9.64991
-9.64139
-9.60843
-8.77041
-8.80125
-8.81014
-8.80187
-8.77094
-7.9465
-7.97516
-7.98366
-7.97574
-7.94699
-7.13607
-7.16242
-7.17042
-7.16295
-7.13652
-6.3389
-6.36281
-6.37023
-6.36329
-6.33931
-5.55461
-5.57597
-5.58272
-5.5764
-5.55498
-4.78266
-4.80136
-4.80736
-4.80174
-4.78298
-4.02233
-4.03829
-4.04348
-4.03861
-4.0226
-3.27278
-3.28592
-3.29025
-3.28619
-3.273
-2.533
-2.54328
-2.54668
-2.54348
-2.53317
-1.80187
-1.80924
-1.81169
-1.80938
-1.80199
-1.07814
-1.08257
-1.08405
-1.08266
-1.07822
-0.360462
-0.361947
-0.362445
-0.361977
-0.360488
)
;

boundaryField
{
    BotWall
    {
        type            zeroGradient;
    }
    FreeStream
    {
        type            zeroGradient;
    }
    FrontNBack
    {
        type            empty;
    }
    LeftSide
    {
        type            symmetryPlane;
    }
    RightSide
    {
        type            symmetryPlane;
    }
}


// ************************************************************************* //
