/*--------------------------------*- C++ -*----------------------------------*\
| =========                 |                                                 |
| \\      /  F ield         | OpenFOAM: The Open Source CFD Toolbox           |
|  \\    /   O peration     | Version:  2.4.0                                 |
|   \\  /    A nd           | Web:      www.OpenFOAM.org                      |
|    \\/     M anipulation  |                                                 |
\*---------------------------------------------------------------------------*/
FoamFile
{
    version     2.0;
    format      ascii;
    class       volScalarField;
    location    "4";
    object      p;
}
// * * * * * * * * * * * * * * * * * * * * * * * * * * * * * * * * * * * * * //

dimensions      [1 -1 -2 0 0 0 0];

internalField   nonuniform List<scalar> 
500
(
0.713428
0.713695
0.712573
0.713835
0.713407
0.683591
0.683864
0.682747
0.684002
0.68357
0.653458
0.653736
0.652623
0.653874
0.653437
0.622964
0.623248
0.62214
0.623385
0.622943
0.592159
0.592449
0.591347
0.592586
0.592138
0.560981
0.561277
0.56018
0.561413
0.56096
0.529486
0.529788
0.528696
0.529923
0.529465
0.497607
0.497915
0.496828
0.49805
0.497587
0.465405
0.465719
0.464637
0.465853
0.465384
0.432806
0.433126
0.432049
0.43326
0.432785
0.39988
0.400206
0.399135
0.40034
0.39986
0.366577
0.36691
0.365844
0.367043
0.366557
0.33302
0.333359
0.332299
0.333492
0.333
0.299018
0.299364
0.298308
0.299496
0.298997
0.263956
0.264307
0.263253
0.264439
0.263935
0.226544
0.226889
0.225832
0.22702
0.226523
0.189462
0.189799
0.188735
0.189931
0.189441
0.17043
0.170824
0.169817
0.170993
0.17041
0.199242
0.199972
0.199167
0.200078
0.199224
0.210276
0.211464
0.211398
0.211632
0.21026
-0.256229
-0.25595
-0.257576
-0.255966
-0.256224
-1.89136
-1.89759
-1.90423
-1.89747
-1.89139
-3.399
-3.41576
-3.43023
-3.41548
-3.39911
-0.0175506
-0.0175501
-0.0175491
-0.0175501
-0.0175506
-0.0122731
-0.0122739
-0.0122747
-0.0122739
-0.0122731
-0.0139238
-0.0139237
-0.0139238
-0.0139237
-0.0139238
-0.0150504
-0.0150503
-0.0150502
-0.0150503
-0.0150504
-0.0157641
-0.0157641
-0.015764
-0.0157641
-0.0157641
-0.0163942
-0.0163942
-0.0163941
-0.0163942
-0.0163942
-0.0170498
-0.0170498
-0.0170498
-0.0170498
-0.0170498
-0.017729
-0.0177289
-0.0177289
-0.0177289
-0.017729
-0.0184191
-0.0184191
-0.0184191
-0.0184191
-0.0184191
-0.0191162
-0.0191162
-0.0191161
-0.0191162
-0.0191162
-0.0198204
-0.0198204
-0.0198203
-0.0198204
-0.0198204
-0.0205323
-0.0205323
-0.0205323
-0.0205323
-0.0205323
-0.0212523
-0.0212522
-0.0212522
-0.0212522
-0.0212523
-0.0219802
-0.0219802
-0.0219802
-0.0219802
-0.0219802
-0.0227163
-0.0227163
-0.0227163
-0.0227163
-0.0227163
-0.0234606
-0.0234606
-0.0234606
-0.0234606
-0.0234606
-0.0242133
-0.0242132
-0.0242132
-0.0242132
-0.0242133
-0.0249743
-0.0249743
-0.0249742
-0.0249743
-0.0249743
-0.0257438
-0.0257438
-0.0257438
-0.0257438
-0.0257438
-0.0265219
-0.0265219
-0.0265219
-0.0265219
-0.0265219
-0.0273087
-0.0273086
-0.0273086
-0.0273086
-0.0273087
-0.0281042
-0.0281042
-0.0281042
-0.0281042
-0.0281042
-0.0289087
-0.0289086
-0.0289086
-0.0289086
-0.0289087
-0.0297221
-0.0297221
-0.029722
-0.0297221
-0.0297221
-0.0305446
-0.0305446
-0.0305445
-0.0305446
-0.0305446
-0.0313762
-0.0313762
-0.0313762
-0.0313762
-0.0313762
-0.0322172
-0.0322172
-0.0322172
-0.0322172
-0.0322172
-0.0330675
-0.0330675
-0.0330675
-0.0330675
-0.0330675
-0.0339274
-0.0339273
-0.0339273
-0.0339273
-0.0339274
-0.0347968
-0.0347967
-0.0347967
-0.0347967
-0.0347968
-0.0356759
-0.0356759
-0.0356759
-0.0356759
-0.0356759
-0.0365648
-0.0365648
-0.0365648
-0.0365648
-0.0365648
-0.0374637
-0.0374636
-0.0374636
-0.0374636
-0.0374637
-0.0383725
-0.0383725
-0.0383725
-0.0383725
-0.0383725
-0.0392916
-0.0392915
-0.0392915
-0.0392915
-0.0392916
-0.0402208
-0.0402208
-0.0402208
-0.0402208
-0.0402208
-0.0411605
-0.0411605
-0.0411605
-0.0411605
-0.0411605
-0.0421106
-0.0421106
-0.0421106
-0.0421106
-0.0421106
-0.0430713
-0.0430713
-0.0430713
-0.0430713
-0.0430713
-0.0440428
-0.0440428
-0.0440428
-0.0440428
-0.0440428
-0.0450251
-0.0450251
-0.0450251
-0.0450251
-0.0450251
-0.0460184
-0.0460183
-0.0460183
-0.0460183
-0.0460184
-0.0470227
-0.0470227
-0.0470227
-0.0470227
-0.0470227
-0.0480382
-0.0480382
-0.0480382
-0.0480382
-0.0480382
-0.0490651
-0.0490651
-0.0490651
-0.0490651
-0.0490651
-0.0501035
-0.0501034
-0.0501034
-0.0501034
-0.0501035
-0.0511534
-0.0511534
-0.0511534
-0.0511534
-0.0511534
-0.052215
-0.052215
-0.052215
-0.052215
-0.052215
-0.0532885
-0.0532885
-0.0532885
-0.0532885
-0.0532885
-0.054374
-0.054374
-0.054374
-0.054374
-0.054374
-0.0554716
-0.0554715
-0.0554715
-0.0554715
-0.0554716
-0.0565814
-0.0565814
-0.0565814
-0.0565814
-0.0565814
-0.0577036
-0.0577036
-0.0577036
-0.0577036
-0.0577036
-0.0588383
-0.0588383
-0.0588383
-0.0588383
-0.0588383
-0.0599857
-0.0599857
-0.0599857
-0.0599857
-0.0599857
-0.0611459
-0.0611459
-0.0611459
-0.0611459
-0.0611459
-0.0623191
-0.0623191
-0.0623191
-0.0623191
-0.0623191
-0.0635053
-0.0635053
-0.0635053
-0.0635053
-0.0635053
-0.0647048
-0.0647048
-0.0647048
-0.0647048
-0.0647048
-0.0659176
-0.0659176
-0.0659176
-0.0659176
-0.0659176
-0.067144
-0.067144
-0.067144
-0.067144
-0.067144
-0.0683841
-0.0683841
-0.0683841
-0.0683841
-0.0683841
-0.069638
-0.069638
-0.069638
-0.069638
-0.069638
-0.0709059
-0.0709059
-0.0709059
-0.0709059
-0.0709059
-0.072188
-0.072188
-0.072188
-0.072188
-0.072188
-0.0734844
-0.0734844
-0.0734843
-0.0734844
-0.0734844
-0.0747952
-0.0747952
-0.0747952
-0.0747952
-0.0747952
-0.0761206
-0.0761206
-0.0761206
-0.0761206
-0.0761206
-0.0774609
-0.0774609
-0.0774609
-0.0774609
-0.0774609
-0.0788161
-0.0788161
-0.0788161
-0.0788161
-0.0788161
-0.0801864
-0.0801864
-0.0801864
-0.0801864
-0.0801864
-0.081572
-0.081572
-0.081572
-0.081572
-0.081572
-0.0829731
-0.0829731
-0.0829731
-0.0829731
-0.0829731
-0.0843898
-0.0843898
-0.0843898
-0.0843898
-0.0843898
-0.0858224
-0.0858224
-0.0858224
-0.0858224
-0.0858224
-0.0872709
-0.0872709
-0.0872709
-0.0872709
-0.0872709
-0.0887355
-0.0887355
-0.0887355
-0.0887355
-0.0887355
)
;

boundaryField
{
    BotWall
    {
        type            calculated;
        value           nonuniform List<scalar> 5(0.728248 0.728516 0.727394 0.728656 0.728228);
    }
    FreeStream
    {
        type            calculated;
        value           nonuniform List<scalar> 5(-0.0894719 -0.0894719 -0.0894719 -0.0894719 -0.0894719);
    }
    FrontNBack
    {
        type            empty;
    }
    LeftSide
    {
        type            symmetryPlane;
    }
    RightSide
    {
        type            symmetryPlane;
    }
}


// ************************************************************************* //
