/*--------------------------------*- C++ -*----------------------------------*\
| =========                 |                                                 |
| \\      /  F ield         | OpenFOAM: The Open Source CFD Toolbox           |
|  \\    /   O peration     | Version:  2.4.0                                 |
|   \\  /    A nd           | Web:      www.OpenFOAM.org                      |
|    \\/     M anipulation  |                                                 |
\*---------------------------------------------------------------------------*/
FoamFile
{
    version     2.0;
    format      ascii;
    class       volScalarField;
    location    "4";
    object      p_rgh;
}
// * * * * * * * * * * * * * * * * * * * * * * * * * * * * * * * * * * * * * //

dimensions      [1 -1 -2 0 0 0 0];

internalField   nonuniform List<scalar> 
500
(
0.728248
0.728516
0.727394
0.728656
0.728228
0.728217
0.72849
0.727374
0.728629
0.728196
0.728223
0.728501
0.727388
0.728638
0.728202
0.728204
0.728488
0.72738
0.728625
0.728183
0.728214
0.728504
0.727402
0.72864
0.728193
0.728195
0.728491
0.727394
0.728627
0.728174
0.728206
0.728508
0.727416
0.728643
0.728185
0.728186
0.728493
0.727407
0.728628
0.728165
0.728197
0.728511
0.727429
0.728645
0.728176
0.728171
0.72849
0.727414
0.728625
0.72815
0.728182
0.728508
0.727437
0.728642
0.728161
0.728183
0.728515
0.727449
0.728648
0.728163
0.728302
0.728641
0.72758
0.728773
0.728281
0.728351
0.728697
0.727641
0.728829
0.72833
0.72772
0.728071
0.727017
0.728203
0.727699
0.725124
0.725469
0.724412
0.7256
0.725103
0.723247
0.723584
0.722519
0.723715
0.723226
0.739812
0.740205
0.739198
0.740374
0.739791
0.804618
0.805347
0.804542
0.805454
0.804599
0.852047
0.853236
0.853169
0.853404
0.852031
0.422345
0.422623
0.420997
0.422608
0.42235
-1.17557
-1.1818
-1.18844
-1.18168
-1.1756
-3.2602
-3.27625
-3.29008
-3.27598
-3.2603
-0.00444098
-0.0044405
-0.00443952
-0.00444053
-0.00444097
0.00147369
0.0014729
0.00147209
0.00147292
0.00147369
0.000467412
0.000467458
0.000467388
0.000467461
0.000467413
-7.64916e-06
-7.51692e-06
-7.43608e-06
-7.51763e-06
-7.64826e-06
-6.2582e-05
-6.25253e-05
-6.24762e-05
-6.25258e-05
-6.25813e-05
-2.64667e-05
-2.64395e-05
-2.64163e-05
-2.64395e-05
-2.64662e-05
-8.48511e-06
-8.4561e-06
-8.43808e-06
-8.45597e-06
-8.48461e-06
-6.52241e-06
-6.48927e-06
-6.47034e-06
-6.48914e-06
-6.5219e-06
-7.92273e-06
-7.88914e-06
-7.86962e-06
-7.88902e-06
-7.92221e-06
-8.59603e-06
-8.56344e-06
-8.54415e-06
-8.56333e-06
-8.5955e-06
-8.63158e-06
-8.59994e-06
-8.58111e-06
-8.59982e-06
-8.63106e-06
-8.53475e-06
-8.50382e-06
-8.48543e-06
-8.50369e-06
-8.53423e-06
-8.46696e-06
-8.43666e-06
-8.41867e-06
-8.43652e-06
-8.46643e-06
-8.42411e-06
-8.39444e-06
-8.37684e-06
-8.3943e-06
-8.42359e-06
-8.38601e-06
-8.35697e-06
-8.33975e-06
-8.35682e-06
-8.38548e-06
-8.34625e-06
-8.31785e-06
-8.30101e-06
-8.3177e-06
-8.34573e-06
-8.30503e-06
-8.27726e-06
-8.26078e-06
-8.2771e-06
-8.30451e-06
-8.26315e-06
-8.23599e-06
-8.21987e-06
-8.23582e-06
-8.26262e-06
-8.22085e-06
-8.19429e-06
-8.17854e-06
-8.19412e-06
-8.22032e-06
-8.17812e-06
-8.15216e-06
-8.13676e-06
-8.15199e-06
-8.17759e-06
-8.13492e-06
-8.10955e-06
-8.0945e-06
-8.10938e-06
-8.1344e-06
-8.09124e-06
-8.06645e-06
-8.05175e-06
-8.06628e-06
-8.09072e-06
-8.04707e-06
-8.02286e-06
-8.0085e-06
-8.02268e-06
-8.04655e-06
-8.00241e-06
-7.97877e-06
-7.96474e-06
-7.97859e-06
-8.0019e-06
-7.95726e-06
-7.93418e-06
-7.92048e-06
-7.934e-06
-7.95675e-06
-7.91161e-06
-7.88908e-06
-7.8757e-06
-7.8889e-06
-7.9111e-06
-7.86546e-06
-7.84347e-06
-7.83041e-06
-7.84329e-06
-7.86495e-06
-7.81879e-06
-7.79734e-06
-7.7846e-06
-7.79716e-06
-7.81829e-06
-7.77161e-06
-7.75069e-06
-7.73826e-06
-7.75051e-06
-7.77111e-06
-7.7239e-06
-7.70351e-06
-7.69138e-06
-7.70333e-06
-7.72341e-06
-7.67567e-06
-7.6558e-06
-7.64397e-06
-7.65562e-06
-7.67519e-06
-7.62691e-06
-7.60755e-06
-7.59601e-06
-7.60737e-06
-7.62643e-06
-7.57762e-06
-7.55876e-06
-7.54751e-06
-7.55858e-06
-7.57714e-06
-7.52777e-06
-7.50941e-06
-7.49845e-06
-7.50924e-06
-7.5273e-06
-7.47738e-06
-7.45951e-06
-7.44883e-06
-7.45934e-06
-7.47692e-06
-7.42644e-06
-7.40905e-06
-7.39865e-06
-7.40888e-06
-7.42598e-06
-7.37494e-06
-7.35802e-06
-7.3479e-06
-7.35786e-06
-7.37449e-06
-7.32287e-06
-7.30642e-06
-7.29657e-06
-7.30626e-06
-7.32242e-06
-7.27022e-06
-7.25425e-06
-7.24466e-06
-7.25409e-06
-7.26979e-06
-7.217e-06
-7.20148e-06
-7.19216e-06
-7.20133e-06
-7.21658e-06
-7.1632e-06
-7.14813e-06
-7.13906e-06
-7.14798e-06
-7.16278e-06
-7.1088e-06
-7.09418e-06
-7.08537e-06
-7.09403e-06
-7.10839e-06
-7.05381e-06
-7.03963e-06
-7.03106e-06
-7.03948e-06
-7.05341e-06
-6.99822e-06
-6.98447e-06
-6.97615e-06
-6.98433e-06
-6.99782e-06
-6.94201e-06
-6.92869e-06
-6.92062e-06
-6.92855e-06
-6.94163e-06
-6.88519e-06
-6.8723e-06
-6.86446e-06
-6.87216e-06
-6.88482e-06
-6.82775e-06
-6.81527e-06
-6.80767e-06
-6.81514e-06
-6.82738e-06
-6.76968e-06
-6.75761e-06
-6.75024e-06
-6.75748e-06
-6.76932e-06
-6.71097e-06
-6.69931e-06
-6.69217e-06
-6.69918e-06
-6.71062e-06
-6.65161e-06
-6.64035e-06
-6.63344e-06
-6.64024e-06
-6.65128e-06
-6.59161e-06
-6.58075e-06
-6.57406e-06
-6.58063e-06
-6.59129e-06
-6.53095e-06
-6.52048e-06
-6.51401e-06
-6.52037e-06
-6.53064e-06
-6.46963e-06
-6.45954e-06
-6.45329e-06
-6.45943e-06
-6.46932e-06
-6.40763e-06
-6.39792e-06
-6.39189e-06
-6.39782e-06
-6.40734e-06
-6.34495e-06
-6.33562e-06
-6.3298e-06
-6.33553e-06
-6.34467e-06
-6.28159e-06
-6.27263e-06
-6.26702e-06
-6.27254e-06
-6.28132e-06
-6.21753e-06
-6.20894e-06
-6.20354e-06
-6.20885e-06
-6.21728e-06
-6.15277e-06
-6.14454e-06
-6.13935e-06
-6.14446e-06
-6.15253e-06
-6.08731e-06
-6.07943e-06
-6.07444e-06
-6.07936e-06
-6.08707e-06
-6.02112e-06
-6.0136e-06
-6.00881e-06
-6.01353e-06
-6.0209e-06
-5.95421e-06
-5.94704e-06
-5.94245e-06
-5.94697e-06
-5.954e-06
-5.88656e-06
-5.87974e-06
-5.87535e-06
-5.87968e-06
-5.88637e-06
-5.81817e-06
-5.8117e-06
-5.8075e-06
-5.81164e-06
-5.81799e-06
-5.74904e-06
-5.7429e-06
-5.73889e-06
-5.74285e-06
-5.74887e-06
-5.67914e-06
-5.67334e-06
-5.66953e-06
-5.67329e-06
-5.67898e-06
-5.60848e-06
-5.60301e-06
-5.59939e-06
-5.60296e-06
-5.60833e-06
-5.53704e-06
-5.5319e-06
-5.52847e-06
-5.53186e-06
-5.53691e-06
-5.46482e-06
-5.46001e-06
-5.45677e-06
-5.45997e-06
-5.4647e-06
-5.3918e-06
-5.38732e-06
-5.38426e-06
-5.38728e-06
-5.3917e-06
-5.31798e-06
-5.31382e-06
-5.31095e-06
-5.31379e-06
-5.31789e-06
-5.24335e-06
-5.23951e-06
-5.23683e-06
-5.23948e-06
-5.24327e-06
-5.16789e-06
-5.16438e-06
-5.16189e-06
-5.16436e-06
-5.16783e-06
-5.09161e-06
-5.08842e-06
-5.08612e-06
-5.0884e-06
-5.09157e-06
-5.01453e-06
-5.0116e-06
-5.00945e-06
-5.01158e-06
-5.0145e-06
-4.93665e-06
-4.93389e-06
-4.93185e-06
-4.93387e-06
-4.93663e-06
-4.85779e-06
-4.8554e-06
-4.85358e-06
-4.85538e-06
-4.85778e-06
-4.77711e-06
-4.77645e-06
-4.77563e-06
-4.77648e-06
-4.77712e-06
)
;

boundaryField
{
    BotWall
    {
        type            fixedFluxPressure;
        gradient        uniform 0;
        value           nonuniform List<scalar> 5(0.728248 0.728516 0.727394 0.728656 0.728228);
    }
    FreeStream
    {
        type            totalPressure;
        rho             rho;
        psi             none;
        gamma           1;
        p0              uniform 0;
        value           nonuniform List<scalar> 5(-4.73589e-06 -4.73701e-06 -4.73725e-06 -4.73711e-06 -4.73591e-06);
    }
    FrontNBack
    {
        type            empty;
    }
    LeftSide
    {
        type            symmetryPlane;
    }
    RightSide
    {
        type            symmetryPlane;
    }
}


// ************************************************************************* //
