/*--------------------------------*- C++ -*----------------------------------*\
| =========                 |                                                 |
| \\      /  F ield         | OpenFOAM: The Open Source CFD Toolbox           |
|  \\    /   O peration     | Version:  2.4.0                                 |
|   \\  /    A nd           | Web:      www.OpenFOAM.org                      |
|    \\/     M anipulation  |                                                 |
\*---------------------------------------------------------------------------*/
FoamFile
{
    version     2.0;
    format      ascii;
    class       surfaceScalarField;
    location    "4";
    object      phi;
}
// * * * * * * * * * * * * * * * * * * * * * * * * * * * * * * * * * * * * * //

dimensions      [0 3 -1 0 0 0 0];

internalField   nonuniform List<scalar> 
895
(
1.59644e-17
-1.59655e-17
1.17805e-17
4.18189e-18
-1.3657e-17
2.54342e-17
-1.55059e-17
1.8463e-18
-1.5508e-17
4.86958e-17
-6.46799e-17
3.49798e-17
1.78666e-17
-4.05519e-17
1.00921e-16
-4.74407e-17
8.69985e-18
-6.29745e-17
8.24223e-17
-1.47124e-16
5.84897e-17
4.17639e-17
-6.77733e-17
2.27136e-16
-8.04342e-17
2.13229e-17
-1.43435e-16
1.17102e-16
-2.64251e-16
8.25488e-17
7.62792e-17
-9.55765e-17
4.05209e-16
-1.14421e-16
4.01279e-17
-2.57884e-16
1.52738e-16
-4.17016e-16
1.07163e-16
1.21815e-16
-1.23964e-16
6.36281e-16
-1.49406e-16
6.55293e-17
-4.07318e-16
1.89404e-16
-6.06448e-16
1.32366e-16
1.78811e-16
-1.52969e-16
9.21561e-16
-1.85463e-16
9.79816e-17
-5.92809e-16
2.27095e-16
-8.33571e-16
1.58158e-16
2.47705e-16
-1.82588e-16
1.26225e-15
-2.2259e-16
1.37941e-16
-8.15427e-16
2.65898e-16
-1.0995e-15
1.84584e-16
3.28977e-16
-2.12866e-16
1.65965e-15
-2.60878e-16
1.8591e-16
-1.07633e-15
3.05802e-16
-1.40533e-15
2.11637e-16
4.231e-16
-2.43793e-16
2.11502e-15
-3.00316e-16
2.42392e-16
-1.37668e-15
3.46913e-16
-1.75227e-15
2.39371e-16
5.306e-16
-2.75421e-16
2.62976e-15
-3.41014e-16
3.07943e-16
-1.71772e-15
3.89212e-16
-2.14151e-15
2.67778e-16
6.51993e-16
-3.07739e-16
3.20522e-15
-3.82954e-16
3.83119e-16
-2.1007e-15
4.3282e-16
-2.57436e-15
2.96919e-16
7.87854e-16
-3.40808e-16
3.84289e-15
-4.26262e-16
4.68535e-16
-2.52698e-15
4.77718e-16
-3.0521e-15
3.26784e-16
9.3875e-16
-3.74612e-16
4.54424e-15
-4.70921e-16
5.64808e-16
-2.99793e-15
5.2404e-16
-3.57617e-15
3.57443e-16
1.10531e-15
-4.09221e-16
5.31086e-15
-5.17067e-16
6.72619e-16
-3.51502e-15
5.71768e-16
-4.14796e-15
3.88888e-16
1.28816e-15
-4.44623e-16
6.14432e-15
-5.64685e-16
7.9265e-16
-4.07972e-15
6.21053e-16
-4.76904e-15
4.21194e-16
1.48798e-15
-4.8089e-16
7.04637e-15
-6.1393e-16
9.25661e-16
-4.69367e-15
6.71865e-16
-5.44092e-15
4.54347e-16
1.70548e-15
-5.18004e-16
8.01869e-15
-6.64777e-16
1.07241e-15
-5.35846e-15
7.24327e-16
-6.16527e-15
4.88454e-16
1.94132e-15
-5.56137e-16
9.06325e-15
-7.17295e-16
1.23355e-15
-6.07577e-15
7.78297e-16
-6.94358e-15
5.23535e-16
2.19607e-15
-5.94362e-16
1.01811e-14
-7.71472e-16
1.41064e-15
-6.84725e-15
8.33829e-16
-7.77742e-15
5.59394e-16
2.47049e-15
-6.35511e-16
1.1376e-14
-8.27493e-16
1.60261e-15
-7.67475e-15
8.93601e-16
-8.67102e-15
5.9431e-16
2.76978e-15
-6.75577e-16
1.26459e-14
-8.87607e-16
1.81464e-15
-8.56235e-15
9.58686e-16
-2.98418e-14
6.4181e-16
3.08665e-15
-7.23869e-16
1.40116e-14
-9.52617e-16
2.04339e-15
-2.94854e-14
1.05621e-15
-2.03808e-10
7.16104e-16
-2.03851e-10
-8.00189e-16
-2.03871e-10
-1.0485e-15
-2.03852e-10
-2.03808e-10
1.06829e-15
-2.03809e-10
7.09112e-16
-2.03851e-10
-7.93523e-16
-2.03869e-10
-1.06149e-15
-2.03852e-10
-2.03809e-10
1.03485e-15
-2.0381e-10
6.96344e-16
-2.03851e-10
-7.79664e-16
-2.03868e-10
-1.02846e-15
-2.03851e-10
-2.0381e-10
9.59265e-16
-2.03811e-10
6.41774e-16
-2.0385e-10
-7.23098e-16
-2.03866e-10
-9.54342e-16
-2.03851e-10
-2.03811e-10
8.94027e-16
-2.03812e-10
5.9645e-16
-2.0385e-10
-6.75935e-16
-2.03865e-10
-8.90274e-16
-2.03851e-10
-2.03812e-10
8.33449e-16
-2.03813e-10
5.5628e-16
-2.0385e-10
-6.34021e-16
-2.03864e-10
-8.30696e-16
-2.03851e-10
-2.03813e-10
7.73851e-16
-2.03813e-10
5.17435e-16
-2.03849e-10
-5.93453e-16
-2.03863e-10
-7.72038e-16
-2.03851e-10
-2.03814e-10
7.14852e-16
-2.03814e-10
4.78959e-16
-2.03849e-10
-5.53256e-16
-2.03862e-10
-7.13945e-16
-2.0385e-10
-2.03814e-10
6.56962e-16
-2.03815e-10
4.41034e-16
-2.03849e-10
-5.13614e-16
-2.03861e-10
-6.5692e-16
-2.0385e-10
-2.03815e-10
6.00434e-16
-2.03815e-10
4.03893e-16
-2.03849e-10
-4.74762e-16
-2.0386e-10
-6.01214e-16
-2.0385e-10
-2.03816e-10
5.45332e-16
-2.03816e-10
3.6764e-16
-2.03849e-10
-4.36802e-16
-2.03859e-10
-5.4689e-16
-2.0385e-10
-2.03816e-10
4.91697e-16
-2.03816e-10
3.32316e-16
-2.03848e-10
-3.99776e-16
-2.03858e-10
-4.93988e-16
-2.0385e-10
-2.03817e-10
4.39594e-16
-2.03817e-10
2.9796e-16
-2.03848e-10
-3.63722e-16
-2.03858e-10
-4.42574e-16
-2.0385e-10
-2.03817e-10
3.89093e-16
-2.03817e-10
2.64617e-16
-2.03848e-10
-3.28682e-16
-2.03857e-10
-3.92721e-16
-2.0385e-10
-2.03817e-10
3.40267e-16
-2.03818e-10
2.3233e-16
-2.03848e-10
-2.94701e-16
-2.03857e-10
-3.44498e-16
-2.0385e-10
-2.03818e-10
2.93183e-16
-2.03818e-10
2.01147e-16
-2.03848e-10
-2.61824e-16
-2.03856e-10
-2.97974e-16
-2.0385e-10
-2.03818e-10
2.47903e-16
-2.03818e-10
1.71109e-16
-2.03848e-10
-2.30093e-16
-2.03856e-10
-2.53214e-16
-2.0385e-10
-2.03818e-10
2.04491e-16
-2.03818e-10
1.42259e-16
-2.03848e-10
-1.99548e-16
-2.03855e-10
-2.10278e-16
-2.0385e-10
-2.03819e-10
1.63004e-16
-2.03818e-10
1.14636e-16
-2.03848e-10
-1.70227e-16
-2.03855e-10
-1.69228e-16
-2.0385e-10
-2.03819e-10
1.23497e-16
-2.03819e-10
8.82773e-17
-2.03848e-10
-1.42168e-16
-2.03855e-10
-1.30118e-16
-2.0385e-10
-2.03819e-10
8.60243e-17
-2.03819e-10
6.32187e-17
-2.03848e-10
-1.15406e-16
-2.03855e-10
-9.30011e-17
-2.0385e-10
-2.03819e-10
5.0632e-17
-2.03819e-10
3.94933e-17
-2.03848e-10
-8.99719e-17
-2.03855e-10
-5.79263e-17
-2.0385e-10
-2.03819e-10
1.73645e-17
-2.03819e-10
1.71315e-17
-2.03848e-10
-6.58962e-17
-2.03855e-10
-2.49382e-17
-2.0385e-10
-2.03819e-10
-1.37386e-17
-2.03819e-10
-3.8389e-18
-2.03848e-10
-4.32059e-17
-2.03855e-10
5.92296e-18
-2.0385e-10
-2.03819e-10
-4.26427e-17
-2.03819e-10
-2.33932e-17
-2.03848e-10
-2.19251e-17
-2.03855e-10
3.46216e-17
-2.0385e-10
-2.03819e-10
-6.9318e-17
-2.03819e-10
-4.15099e-17
-2.03848e-10
-2.07487e-18
-2.03855e-10
6.11269e-17
-2.0385e-10
-2.03819e-10
-9.374e-17
-2.03819e-10
-5.81706e-17
-2.03848e-10
1.63269e-17
-2.03855e-10
8.54135e-17
-2.0385e-10
-2.03819e-10
-1.1589e-16
-2.03818e-10
-7.33607e-17
-2.03848e-10
3.32657e-17
-2.03855e-10
1.07461e-16
-2.0385e-10
-2.03819e-10
-1.35754e-16
-2.03818e-10
-8.70693e-17
-2.03848e-10
4.87308e-17
-2.03855e-10
1.27256e-16
-2.0385e-10
-2.03819e-10
-1.53325e-16
-2.03818e-10
-9.9289e-17
-2.03848e-10
6.27149e-17
-2.03855e-10
1.4479e-16
-2.0385e-10
-2.03818e-10
-1.68602e-16
-2.03818e-10
-1.10017e-16
-2.03848e-10
7.52147e-17
-2.03855e-10
1.6006e-16
-2.0385e-10
-2.03818e-10
-1.81591e-16
-2.03818e-10
-1.19254e-16
-2.03848e-10
8.62308e-17
-2.03855e-10
1.73071e-16
-2.0385e-10
-2.03818e-10
-1.92303e-16
-2.03818e-10
-1.27004e-16
-2.03848e-10
9.57679e-17
-2.03856e-10
1.83832e-16
-2.03851e-10
-2.03818e-10
-2.00757e-16
-2.03817e-10
-1.33279e-16
-2.03848e-10
1.03835e-16
-2.03856e-10
1.92362e-16
-2.03851e-10
-2.03818e-10
-2.06977e-16
-2.03817e-10
-1.3809e-16
-2.03848e-10
1.10444e-16
-2.03856e-10
1.98684e-16
-2.03851e-10
-2.03818e-10
-2.10995e-16
-2.03817e-10
-1.41457e-16
-2.03848e-10
1.15613e-16
-2.03856e-10
2.02828e-16
-2.03851e-10
-2.03817e-10
-2.12849e-16
-2.03817e-10
-1.43402e-16
-2.03848e-10
1.19363e-16
-2.03857e-10
2.04831e-16
-2.03851e-10
-2.03817e-10
-2.12585e-16
-2.03817e-10
-1.43951e-16
-2.03849e-10
1.21721e-16
-2.03857e-10
2.04737e-16
-2.03851e-10
-2.03817e-10
-2.10254e-16
-2.03816e-10
-1.43137e-16
-2.03849e-10
1.22714e-16
-2.03857e-10
2.02596e-16
-2.03851e-10
-2.03817e-10
-2.05914e-16
-2.03816e-10
-1.40994e-16
-2.03849e-10
1.22379e-16
-2.03857e-10
1.98464e-16
-2.03851e-10
-2.03817e-10
-1.99629e-16
-2.03816e-10
-1.37563e-16
-2.03849e-10
1.20751e-16
-2.03858e-10
1.92405e-16
-2.03851e-10
-2.03816e-10
-1.9147e-16
-2.03816e-10
-1.32886e-16
-2.03849e-10
1.17874e-16
-2.03858e-10
1.84486e-16
-2.03851e-10
-2.03816e-10
-1.8151e-16
-2.03816e-10
-1.27012e-16
-2.03849e-10
1.13791e-16
-2.03858e-10
1.74783e-16
-2.03851e-10
-2.03816e-10
-1.69833e-16
-2.03815e-10
-1.19991e-16
-2.03849e-10
1.08554e-16
-2.03858e-10
1.63374e-16
-2.03851e-10
-2.03816e-10
-1.56524e-16
-2.03815e-10
-1.11879e-16
-2.03849e-10
1.02213e-16
-2.03859e-10
1.50344e-16
-2.03851e-10
-2.03816e-10
-1.41673e-16
-2.03815e-10
-1.02732e-16
-2.03849e-10
9.48241e-17
-2.03859e-10
1.35783e-16
-2.03851e-10
-2.03816e-10
-1.25374e-16
-2.03815e-10
-9.26123e-17
-2.03849e-10
8.64454e-17
-2.03859e-10
1.19784e-16
-2.03852e-10
-2.03815e-10
-1.07727e-16
-2.03815e-10
-8.15816e-17
-2.03849e-10
7.71374e-17
-2.03859e-10
1.02443e-16
-2.03852e-10
-2.03815e-10
-8.88318e-17
-2.03815e-10
-6.97056e-17
-2.03849e-10
6.69629e-17
-2.03859e-10
8.38604e-17
-2.03852e-10
-2.03815e-10
-6.87923e-17
-2.03815e-10
-5.70516e-17
-2.03849e-10
5.59866e-17
-2.03859e-10
6.41383e-17
-2.03852e-10
-2.03815e-10
-4.7714e-17
-2.03815e-10
-4.36881e-17
-2.03849e-10
4.42747e-17
-2.0386e-10
4.33811e-17
-2.03852e-10
-2.03815e-10
-2.57037e-17
-2.03815e-10
-2.9685e-17
-2.03849e-10
3.18946e-17
-2.0386e-10
2.16944e-17
-2.03852e-10
-2.03815e-10
-2.86897e-18
-2.03815e-10
-1.5113e-17
-2.03849e-10
1.89145e-17
-2.0386e-10
-8.15114e-19
-2.03852e-10
-2.03815e-10
2.06821e-17
-2.03815e-10
-4.29089e-20
-2.03849e-10
5.40311e-18
-2.0386e-10
-2.40406e-17
-2.03852e-10
-2.03815e-10
4.48421e-17
-2.03815e-10
1.54539e-17
-2.03849e-10
-8.57042e-18
-2.0386e-10
-4.78756e-17
-2.03851e-10
-2.03815e-10
6.95042e-17
-2.03815e-10
3.13067e-17
-2.03849e-10
-2.29372e-17
-2.0386e-10
-7.2214e-17
-2.03851e-10
-2.03815e-10
9.45625e-17
-2.03815e-10
4.74448e-17
-2.03849e-10
-3.76286e-17
-2.03859e-10
-9.6951e-17
-2.03851e-10
-2.03815e-10
1.19913e-16
-2.03815e-10
6.37984e-17
-2.03849e-10
-5.25764e-17
-2.03859e-10
-1.21983e-16
-2.03851e-10
-2.03815e-10
1.45453e-16
-2.03815e-10
8.02987e-17
-2.03849e-10
-6.77133e-17
-2.03859e-10
-1.47208e-16
-2.03851e-10
-2.03816e-10
1.71081e-16
-2.03815e-10
9.68774e-17
-2.03849e-10
-8.29725e-17
-2.03859e-10
-1.72527e-16
-2.03851e-10
-2.03816e-10
1.96698e-16
-2.03816e-10
1.13468e-16
-2.03849e-10
-9.82879e-17
-2.03859e-10
-1.97839e-16
-2.03851e-10
-2.03816e-10
2.22208e-16
-2.03816e-10
1.30003e-16
-2.03849e-10
-1.13595e-16
-2.03859e-10
-2.2305e-16
-2.03851e-10
-2.03816e-10
2.47514e-16
-2.03816e-10
1.46418e-16
-2.03848e-10
-1.28827e-16
-2.03858e-10
-2.48063e-16
-2.03851e-10
-2.03816e-10
2.72521e-16
-2.03816e-10
1.62648e-16
-2.03848e-10
-1.43923e-16
-2.03858e-10
-2.72784e-16
-2.03851e-10
-2.03817e-10
2.97134e-16
-2.03817e-10
1.78627e-16
-2.03848e-10
-1.58815e-16
-2.03858e-10
-2.97118e-16
-2.03851e-10
-2.03817e-10
3.21257e-16
-2.03817e-10
1.94291e-16
-2.03848e-10
-1.7344e-16
-2.03857e-10
-3.20972e-16
-2.0385e-10
-2.03817e-10
3.44795e-16
-2.03817e-10
2.09573e-16
-2.03848e-10
-1.87732e-16
-2.03857e-10
-3.44247e-16
-2.0385e-10
-2.03818e-10
3.67646e-16
-2.03818e-10
2.24404e-16
-2.03848e-10
-2.01623e-16
-2.03856e-10
-3.66847e-16
-2.0385e-10
-2.03818e-10
3.89707e-16
-2.03818e-10
2.38715e-16
-2.03848e-10
-2.15042e-16
-2.03856e-10
-3.88666e-16
-2.0385e-10
-2.03818e-10
4.10867e-16
-2.03818e-10
2.5243e-16
-2.03848e-10
-2.27916e-16
-2.03856e-10
-4.09597e-16
-2.0385e-10
-2.03819e-10
4.3101e-16
-2.03819e-10
2.65471e-16
-2.03847e-10
-2.40165e-16
-2.03855e-10
-4.29522e-16
-2.0385e-10
-2.03819e-10
4.50007e-16
-2.03819e-10
2.77752e-16
-2.03847e-10
-2.51706e-16
-2.03854e-10
-4.48317e-16
-2.03849e-10
-2.0382e-10
4.67718e-16
-2.0382e-10
2.8918e-16
-2.03847e-10
-2.62446e-16
-2.03854e-10
-4.65843e-16
-2.03849e-10
-2.0382e-10
4.83989e-16
-2.0382e-10
2.99654e-16
-2.03847e-10
-2.72285e-16
-2.03853e-10
-4.81945e-16
-2.03849e-10
-2.03821e-10
4.9864e-16
-2.03821e-10
3.09057e-16
-2.03847e-10
-2.8111e-16
-2.03853e-10
-4.96449e-16
-2.03849e-10
-2.03821e-10
5.11491e-16
-2.03821e-10
3.17273e-16
-2.03846e-10
-2.88805e-16
-2.03852e-10
-5.09175e-16
-2.03848e-10
-2.03822e-10
5.22406e-16
-2.03822e-10
3.24209e-16
-2.03846e-10
-2.95278e-16
-2.03852e-10
-5.19995e-16
-2.03848e-10
-2.03822e-10
5.31278e-16
3.29657e-16
-3.00311e-16
-5.28824e-16
)
;

boundaryField
{
    BotWall
    {
        type            calculated;
        value           nonuniform List<scalar> 5(9.36924e-22 1.70014e-21 2.65088e-21 2.13263e-21 1.68012e-21);
    }
    FreeStream
    {
        type            calculated;
        value           nonuniform List<scalar> 5(-2.03822e-10 -2.03846e-10 -2.03851e-10 -2.03848e-10 -2.03823e-10);
    }
    FrontNBack
    {
        type            empty;
        value           nonuniform 0();
    }
    LeftSide
    {
        type            symmetryPlane;
        value           uniform 0;
    }
    RightSide
    {
        type            symmetryPlane;
        value           uniform 0;
    }
}


// ************************************************************************* //
