/*--------------------------------*- C++ -*----------------------------------*\
| =========                 |                                                 |
| \\      /  F ield         | OpenFOAM: The Open Source CFD Toolbox           |
|  \\    /   O peration     | Version:  2.4.0                                 |
|   \\  /    A nd           | Web:      www.OpenFOAM.org                      |
|    \\/     M anipulation  |                                                 |
\*---------------------------------------------------------------------------*/
FoamFile
{
    version     2.0;
    format      ascii;
    class       volVectorField;
    location    "4";
    object      U;
}
// * * * * * * * * * * * * * * * * * * * * * * * * * * * * * * * * * * * * * //

dimensions      [0 1 -1 0 0 0 0];

internalField   nonuniform List<vector> 
500
(
(2.90255e-09 2.86667e-10 0)
(8.87228e-09 3.1277e-10 0)
(-5.99708e-10 3.35775e-10 0)
(-9.01571e-09 3.10284e-10 0)
(-2.46319e-09 2.8724e-10 0)
(8.80898e-09 -9.43981e-10 0)
(2.65067e-08 -7.54879e-10 0)
(-1.77098e-09 -5.37573e-10 0)
(-2.69436e-08 -7.78757e-10 0)
(-7.52571e-09 -9.39401e-10 0)
(1.48496e-08 8.49865e-10 0)
(4.41288e-08 1.51216e-09 0)
(-2.92048e-09 2.1352e-09 0)
(-4.48676e-08 1.44313e-09 0)
(-1.27529e-08 8.62562e-10 0)
(2.10361e-08 -2.83487e-09 0)
(6.17501e-08 -1.61872e-09 0)
(-4.04807e-09 -3.8583e-10 0)
(-6.27997e-08 -1.75428e-09 0)
(-1.81567e-08 -2.81062e-09 0)
(2.73641e-08 7.5491e-10 0)
(7.93651e-08 2.96293e-09 0)
(-5.15292e-09 5.02346e-09 0)
(-8.07341e-08 2.73643e-09 0)
(-2.37331e-08 7.94423e-10 0)
(3.38513e-08 -5.5196e-09 0)
(9.69925e-08 -2.34869e-09 0)
(-6.23485e-09 7.40255e-10 0)
(-9.86891e-08 -2.68546e-09 0)
(-2.94995e-08 -5.46204e-09 0)
(4.04896e-08 7.19486e-11 0)
(1.14622e-07 4.77659e-09 0)
(-7.29308e-09 9.12283e-09 0)
(-1.16655e-07 4.30414e-09 0)
(-3.54488e-08 1.50921e-10 0)
(4.73012e-08 -9.06459e-09 0)
(1.32279e-07 -2.96321e-09 0)
(-8.32749e-09 2.84354e-09 0)
(-1.34656e-07 -3.58909e-09 0)
(-4.1603e-08 -8.962e-09 0)
(5.42754e-08 -1.21388e-09 0)
(1.49948e-07 6.99595e-09 0)
(-9.33714e-09 1.45062e-08 0)
(-1.52678e-07 6.18997e-09 0)
(-4.79521e-08 -1.08464e-09 0)
(6.14383e-08 -1.36472e-08 0)
(1.67659e-07 -3.57709e-09 0)
(-1.0322e-08 5.84131e-09 0)
(-1.70751e-07 -4.57903e-09 0)
(-5.45224e-08 -1.34898e-08 0)
(6.87772e-08 -3.34708e-09 0)
(1.85395e-07 9.44048e-09 0)
(-1.1281e-08 2.1025e-08 0)
(-1.88857e-07 8.21463e-09 0)
(-6.1302e-08 -3.15878e-09 0)
(7.63218e-08 -1.94438e-08 0)
(2.0319e-07 -4.30076e-09 0)
(-1.22143e-08 9.65743e-09 0)
(-2.07031e-07 -5.76447e-09 0)
(-6.83202e-08 -1.92238e-08 0)
(8.40583e-08 -4.28879e-09 0)
(2.21026e-07 1.42224e-08 0)
(-1.31205e-08 3.08384e-08 0)
(-2.25254e-07 1.24901e-08 0)
(-7.55646e-08 -4.03487e-09 0)
(9.20191e-08 -1.99951e-08 0)
(2.38938e-07 1.42522e-09 0)
(-1.39998e-08 2.09176e-08 0)
(-2.43563e-07 -5.8875e-10 0)
(-8.30671e-08 -1.9707e-08 0)
(1.0019e-07 -2.27703e-09 0)
(2.56909e-07 2.32272e-08 0)
(-1.48509e-08 4.58568e-08 0)
(-2.61939e-07 2.09038e-08 0)
(-9.08153e-08 -1.95268e-09 0)
(1.08607e-07 -6.81961e-08 0)
(2.74977e-07 -3.93675e-08 0)
(-1.56739e-08 -1.35291e-08 0)
(-2.80421e-07 -4.20031e-08 0)
(-9.88434e-08 -6.78372e-08 0)
(1.17253e-07 -1.69032e-07 0)
(2.93119e-07 -1.36e-07 0)
(-1.64672e-08 -1.06972e-07 0)
(-2.98986e-07 -1.38976e-07 0)
(-1.07137e-07 -1.6864e-07 0)
(1.26159e-07 -2.0468e-07 0)
(3.11368e-07 -1.67997e-07 0)
(-1.7231e-08 -1.35361e-07 0)
(-3.17667e-07 -1.71323e-07 0)
(-1.15729e-07 -2.04259e-07 0)
(1.3532e-07 8.70373e-07 0)
(3.29717e-07 9.16083e-07 0)
(-1.78646e-08 9.56531e-07 0)
(-3.36343e-07 9.12295e-07 0)
(-1.24596e-07 8.70843e-07 0)
(1.44798e-07 4.14406e-06 0)
(3.48113e-07 4.20911e-06 0)
(-1.8769e-08 4.26735e-06 0)
(-3.55423e-07 4.20466e-06 0)
(-1.33865e-07 4.14464e-06 0)
(1.54799e-07 3.41542e-06 0)
(3.66804e-07 3.49795e-06 0)
(-1.9577e-08 3.56619e-06 0)
(-3.7475e-07 3.49295e-06 0)
(-1.437e-07 3.41616e-06 0)
(1.65242e-07 -1.85737e-05 0)
(3.86839e-07 -1.85553e-05 0)
(-1.97126e-08 -1.85655e-05 0)
(-3.94727e-07 -1.8559e-05 0)
(-1.53954e-07 -1.85732e-05 0)
(1.78983e-07 -0.000145836 0)
(4.12676e-07 -0.00014628 0)
(-1.99063e-08 -0.000146716 0)
(-4.20479e-07 -0.000146276 0)
(-1.67416e-07 -0.000145839 0)
(1.82879e-07 -0.000810394 0)
(4.20404e-07 -0.000810254 0)
(-1.99432e-08 -0.000810087 0)
(-4.28186e-07 -0.000810262 0)
(-1.71255e-07 -0.000810393 0)
(1.73239e-07 -0.00185071 0)
(4.01525e-07 -0.00185074 0)
(-1.93353e-08 -0.00185056 0)
(-4.09231e-07 -0.00185075 0)
(-1.62203e-07 -0.00185071 0)
(1.58501e-07 -0.00103944 0)
(3.72e-07 -0.00103973 0)
(-1.86215e-08 -0.00103988 0)
(-3.79648e-07 -0.00103974 0)
(-1.48173e-07 -0.00103944 0)
(1.44934e-07 -0.000970206 0)
(3.44198e-07 -0.000970428 0)
(-1.7923e-08 -0.000970538 0)
(-3.51779e-07 -0.000970432 0)
(-1.35286e-07 -0.000970207 0)
(1.32359e-07 -0.000995194 0)
(3.18153e-07 -0.000995377 0)
(-1.72489e-08 -0.000995456 0)
(-3.25657e-07 -0.000995382 0)
(-1.23355e-07 -0.000995195 0)
(1.2034e-07 -0.00101752 0)
(2.93222e-07 -0.0010177 0)
(-1.65968e-08 -0.00101776 0)
(-3.00642e-07 -0.0010177 0)
(-1.11946e-07 -0.00101752 0)
(1.08739e-07 -0.00102126 0)
(2.69132e-07 -0.00102144 0)
(-1.59633e-08 -0.0010215 0)
(-2.76461e-07 -0.00102144 0)
(-1.00928e-07 -0.00102126 0)
(9.759e-08 -0.00102002 0)
(2.45903e-07 -0.0010202 0)
(-1.53472e-08 -0.00102026 0)
(-2.53134e-07 -0.0010202 0)
(-9.03345e-08 -0.00102002 0)
(8.69233e-08 -0.00101914 0)
(2.23578e-07 -0.00101931 0)
(-1.47481e-08 -0.00101937 0)
(-2.30704e-07 -0.00101931 0)
(-8.01972e-08 -0.00101914 0)
(7.67446e-08 -0.00101899 0)
(2.02169e-07 -0.00101915 0)
(-1.41655e-08 -0.00101921 0)
(-2.09184e-07 -0.00101916 0)
(-7.05224e-08 -0.00101899 0)
(6.70518e-08 -0.00101904 0)
(1.81677e-07 -0.0010192 0)
(-1.35991e-08 -0.00101925 0)
(-1.88575e-07 -0.00101921 0)
(-6.13089e-08 -0.00101904 0)
(5.78432e-08 -0.00101908 0)
(1.621e-07 -0.00101924 0)
(-1.30482e-08 -0.00101929 0)
(-1.68875e-07 -0.00101925 0)
(-5.25557e-08 -0.00101908 0)
(4.91181e-08 -0.00101909 0)
(1.43438e-07 -0.00101925 0)
(-1.25122e-08 -0.00101929 0)
(-1.50083e-07 -0.00101925 0)
(-4.42629e-08 -0.00101909 0)
(4.08753e-08 -0.00101909 0)
(1.2569e-07 -0.00101924 0)
(-1.19908e-08 -0.00101929 0)
(-1.322e-07 -0.00101925 0)
(-3.64301e-08 -0.00101909 0)
(3.31131e-08 -0.00101909 0)
(1.08853e-07 -0.00101924 0)
(-1.14832e-08 -0.00101928 0)
(-1.15223e-07 -0.00101925 0)
(-2.90565e-08 -0.00101909 0)
(2.58288e-08 -0.00101909 0)
(9.29243e-08 -0.00101924 0)
(-1.09891e-08 -0.00101928 0)
(-9.91487e-08 -0.00101925 0)
(-2.21401e-08 -0.00101909 0)
(1.90191e-08 -0.00101909 0)
(7.78984e-08 -0.00101924 0)
(-1.05079e-08 -0.00101928 0)
(-8.39724e-08 -0.00101925 0)
(-1.56785e-08 -0.00101909 0)
(1.268e-08 -0.00101909 0)
(6.37698e-08 -0.00101924 0)
(-1.00392e-08 -0.00101928 0)
(-6.96887e-08 -0.00101925 0)
(-9.66841e-09 -0.00101909 0)
(6.80692e-09 -0.00101909 0)
(5.05312e-08 -0.00101924 0)
(-9.58238e-09 -0.00101928 0)
(-5.62905e-08 -0.00101925 0)
(-4.10598e-09 -0.00101909 0)
(1.39438e-09 -0.00101909 0)
(3.81744e-08 -0.00101924 0)
(-9.1371e-09 -0.00101927 0)
(-4.37698e-08 -0.00101925 0)
(1.01348e-09 -0.00101909 0)
(-3.56374e-09 -0.00101909 0)
(2.66895e-08 -0.00101924 0)
(-8.7029e-09 -0.00101927 0)
(-3.21172e-08 -0.00101925 0)
(5.69537e-09 -0.00101909 0)
(-8.07431e-09 -0.00101909 0)
(1.60656e-08 -0.00101924 0)
(-8.27935e-09 -0.00101927 0)
(-2.13218e-08 -0.00101925 0)
(9.94584e-09 -0.0010191 0)
(-1.2145e-08 -0.00101909 0)
(6.29053e-09 -0.00101924 0)
(-7.86605e-09 -0.00101927 0)
(-1.13716e-08 -0.00101925 0)
(1.37718e-08 -0.0010191 0)
(-1.5784e-08 -0.00101909 0)
(-2.64948e-09 -0.00101924 0)
(-7.46263e-09 -0.00101927 0)
(-2.2534e-09 -0.00101925 0)
(1.71809e-08 -0.0010191 0)
(-1.90006e-08 -0.00101909 0)
(-1.07693e-08 -0.00101924 0)
(-7.06874e-09 -0.00101927 0)
(6.04753e-09 -0.00101925 0)
(2.01816e-08 -0.00101909 0)
(-2.18045e-08 -0.00101909 0)
(-1.80852e-08 -0.00101924 0)
(-6.68404e-09 -0.00101927 0)
(1.35471e-08 -0.00101925 0)
(2.27829e-08 -0.00101909 0)
(-2.42062e-08 -0.00101909 0)
(-2.46147e-08 -0.00101924 0)
(-6.30824e-09 -0.00101927 0)
(2.02627e-08 -0.00101925 0)
(2.49949e-08 -0.00101909 0)
(-2.62169e-08 -0.00101909 0)
(-3.03767e-08 -0.00101924 0)
(-5.94105e-09 -0.00101927 0)
(2.62127e-08 -0.00101925 0)
(2.68281e-08 -0.00101909 0)
(-2.78487e-08 -0.00101909 0)
(-3.53913e-08 -0.00101924 0)
(-5.58224e-09 -0.00101927 0)
(3.1417e-08 -0.00101925 0)
(2.82938e-08 -0.00101909 0)
(-2.9114e-08 -0.00101909 0)
(-3.96799e-08 -0.00101924 0)
(-5.23158e-09 -0.00101928 0)
(3.58966e-08 -0.00101925 0)
(2.9404e-08 -0.00101909 0)
(-3.00261e-08 -0.00101909 0)
(-4.3265e-08 -0.00101924 0)
(-4.88887e-09 -0.00101928 0)
(3.96738e-08 -0.00101925 0)
(3.01715e-08 -0.00101909 0)
(-3.05988e-08 -0.00101909 0)
(-4.61704e-08 -0.00101924 0)
(-4.55395e-09 -0.00101928 0)
(4.27721e-08 -0.00101925 0)
(3.06094e-08 -0.00101909 0)
(-3.08465e-08 -0.00101909 0)
(-4.8421e-08 -0.00101924 0)
(-4.22667e-09 -0.00101928 0)
(4.52158e-08 -0.00101925 0)
(3.07317e-08 -0.00101909 0)
(-3.07842e-08 -0.00101909 0)
(-5.00427e-08 -0.00101924 0)
(-3.90693e-09 -0.00101928 0)
(4.70306e-08 -0.00101925 0)
(3.05527e-08 -0.00101909 0)
(-3.04272e-08 -0.00101909 0)
(-5.10624e-08 -0.00101924 0)
(-3.59465e-09 -0.00101928 0)
(4.82431e-08 -0.00101925 0)
(3.00876e-08 -0.00101909 0)
(-2.97915e-08 -0.00101908 0)
(-5.15079e-08 -0.00101924 0)
(-3.28974e-09 -0.00101928 0)
(4.88807e-08 -0.00101925 0)
(2.93515e-08 -0.00101909 0)
(-2.88933e-08 -0.00101908 0)
(-5.1408e-08 -0.00101924 0)
(-2.99219e-09 -0.00101928 0)
(4.89718e-08 -0.00101925 0)
(2.83605e-08 -0.00101909 0)
(-2.77492e-08 -0.00101908 0)
(-5.07919e-08 -0.00101924 0)
(-2.70196e-09 -0.00101929 0)
(4.85455e-08 -0.00101926 0)
(2.71307e-08 -0.00101908 0)
(-2.63761e-08 -0.00101908 0)
(-4.96899e-08 -0.00101924 0)
(-2.41907e-09 -0.00101929 0)
(4.76314e-08 -0.00101926 0)
(2.56784e-08 -0.00101908 0)
(-2.4791e-08 -0.00101908 0)
(-4.81324e-08 -0.00101924 0)
(-2.14354e-09 -0.00101929 0)
(4.62598e-08 -0.00101926 0)
(2.40206e-08 -0.00101908 0)
(-2.30111e-08 -0.00101908 0)
(-4.61506e-08 -0.00101924 0)
(-1.87541e-09 -0.00101929 0)
(4.44615e-08 -0.00101926 0)
(2.21739e-08 -0.00101908 0)
(-2.10539e-08 -0.00101908 0)
(-4.37759e-08 -0.00101924 0)
(-1.61472e-09 -0.00101929 0)
(4.22675e-08 -0.00101926 0)
(2.01555e-08 -0.00101908 0)
(-1.89366e-08 -0.00101908 0)
(-4.10397e-08 -0.00101924 0)
(-1.36156e-09 -0.00101929 0)
(3.9709e-08 -0.00101926 0)
(1.79822e-08 -0.00101908 0)
(-1.66763e-08 -0.00101908 0)
(-3.79738e-08 -0.00101924 0)
(-1.11598e-09 -0.00101929 0)
(3.68175e-08 -0.00101926 0)
(1.5671e-08 -0.00101908 0)
(-1.42903e-08 -0.00101908 0)
(-3.46098e-08 -0.00101924 0)
(-8.78073e-10 -0.00101929 0)
(3.36242e-08 -0.00101926 0)
(1.32387e-08 -0.00101908 0)
(-1.17953e-08 -0.00101908 0)
(-3.09792e-08 -0.00101925 0)
(-6.47921e-10 -0.00101929 0)
(3.01603e-08 -0.00101926 0)
(1.07019e-08 -0.00101908 0)
(-9.20807e-09 -0.00101907 0)
(-2.7113e-08 -0.00101925 0)
(-4.25611e-10 -0.0010193 0)
(2.64567e-08 -0.00101926 0)
(8.07703e-09 -0.00101908 0)
(-6.54469e-09 -0.00101907 0)
(-2.30419e-08 -0.00101925 0)
(-2.11225e-10 -0.0010193 0)
(2.25439e-08 -0.00101926 0)
(5.37996e-09 -0.00101908 0)
(-3.82098e-09 -0.00101907 0)
(-1.87962e-08 -0.00101925 0)
(-4.84278e-12 -0.0010193 0)
(1.84517e-08 -0.00101926 0)
(2.62629e-09 -0.00101908 0)
(-1.05225e-09 -0.00101907 0)
(-1.44053e-08 -0.00101925 0)
(1.93464e-10 -0.0010193 0)
(1.42095e-08 -0.00101926 0)
(-1.68887e-10 -0.00101908 0)
(1.74676e-09 -0.00101907 0)
(-9.89791e-09 -0.00101925 0)
(3.83634e-10 -0.0010193 0)
(9.84591e-09 -0.00101926 0)
(-2.99103e-09 -0.00101908 0)
(4.56193e-09 -0.00101907 0)
(-5.30188e-09 -0.00101925 0)
(5.65617e-10 -0.0010193 0)
(5.38848e-09 -0.00101926 0)
(-5.82621e-09 -0.00101908 0)
(7.37977e-09 -0.00101907 0)
(-6.44072e-10 -0.00101925 0)
(7.39378e-10 -0.0010193 0)
(8.63993e-10 -0.00101926 0)
(-8.66112e-09 -0.00101908 0)
(1.01875e-08 -0.00101907 0)
(4.04972e-09 -0.00101925 0)
(9.04898e-10 -0.0010193 0)
(-3.70185e-09 -0.00101926 0)
(-1.14831e-08 -0.00101908 0)
(1.29731e-08 -0.00101907 0)
(8.7548e-09 -0.00101925 0)
(1.06218e-09 -0.0010193 0)
(-8.28443e-09 -0.00101926 0)
(-1.42804e-08 -0.00101908 0)
(1.57252e-08 -0.00101907 0)
(1.34476e-08 -0.00101924 0)
(1.21123e-09 -0.0010193 0)
(-1.28603e-08 -0.00101926 0)
(-1.70417e-08 -0.00101908 0)
(1.84333e-08 -0.00101907 0)
(1.81059e-08 -0.00101924 0)
(1.3521e-09 -0.0010193 0)
(-1.74071e-08 -0.00101926 0)
(-1.97567e-08 -0.00101908 0)
(2.10876e-08 -0.00101908 0)
(2.27085e-08 -0.00101924 0)
(1.48485e-09 -0.0010193 0)
(-2.19037e-08 -0.00101926 0)
(-2.24157e-08 -0.00101908 0)
(2.36789e-08 -0.00101908 0)
(2.72355e-08 -0.00101924 0)
(1.60955e-09 -0.0010193 0)
(-2.63302e-08 -0.00101926 0)
(-2.50098e-08 -0.00101908 0)
(2.61988e-08 -0.00101908 0)
(3.1668e-08 -0.00101924 0)
(1.72631e-09 -0.00101929 0)
(-3.06677e-08 -0.00101926 0)
(-2.75306e-08 -0.00101908 0)
(2.86397e-08 -0.00101908 0)
(3.59884e-08 -0.00101924 0)
(1.83525e-09 -0.00101929 0)
(-3.48986e-08 -0.00101925 0)
(-2.99706e-08 -0.00101908 0)
(3.09943e-08 -0.00101908 0)
(4.01801e-08 -0.00101924 0)
(1.93649e-09 -0.00101929 0)
(-3.9006e-08 -0.00101925 0)
(-3.23228e-08 -0.00101908 0)
(3.32559e-08 -0.00101908 0)
(4.42272e-08 -0.00101924 0)
(2.03021e-09 -0.00101929 0)
(-4.29742e-08 -0.00101925 0)
(-3.45806e-08 -0.00101908 0)
(3.54183e-08 -0.00101908 0)
(4.81148e-08 -0.00101924 0)
(2.11656e-09 -0.00101929 0)
(-4.67881e-08 -0.00101925 0)
(-3.6738e-08 -0.00101908 0)
(3.74756e-08 -0.00101908 0)
(5.18285e-08 -0.00101924 0)
(2.19572e-09 -0.00101929 0)
(-5.04331e-08 -0.00101925 0)
(-3.8789e-08 -0.00101909 0)
(3.94219e-08 -0.00101909 0)
(5.53543e-08 -0.00101924 0)
(2.26788e-09 -0.00101929 0)
(-5.38954e-08 -0.00101925 0)
(-4.07282e-08 -0.00101909 0)
(4.12514e-08 -0.00101909 0)
(5.86786e-08 -0.00101924 0)
(2.33324e-09 -0.00101928 0)
(-5.7161e-08 -0.00101925 0)
(-4.25498e-08 -0.00101909 0)
(4.29585e-08 -0.00101909 0)
(6.17877e-08 -0.00101924 0)
(2.39197e-09 -0.00101928 0)
(-6.02163e-08 -0.00101925 0)
(-4.42484e-08 -0.00101909 0)
(4.45368e-08 -0.00101909 0)
(6.46675e-08 -0.00101924 0)
(2.44428e-09 -0.00101928 0)
(-6.30473e-08 -0.00101925 0)
(-4.58179e-08 -0.00101909 0)
(4.59799e-08 -0.00101909 0)
(6.73037e-08 -0.00101924 0)
(2.49033e-09 -0.00101928 0)
(-6.56396e-08 -0.00101925 0)
(-4.7252e-08 -0.0010191 0)
(4.72806e-08 -0.0010191 0)
(6.96811e-08 -0.00101924 0)
(2.5303e-09 -0.00101927 0)
(-6.79779e-08 -0.00101925 0)
(-4.85438e-08 -0.0010191 0)
(4.84308e-08 -0.0010191 0)
(7.17834e-08 -0.00101924 0)
(2.56434e-09 -0.00101927 0)
(-7.0046e-08 -0.00101925 0)
(-4.96855e-08 -0.0010191 0)
(4.94215e-08 -0.0010191 0)
(7.35928e-08 -0.00101923 0)
(2.59257e-09 -0.00101927 0)
(-7.18264e-08 -0.00101925 0)
(-5.06682e-08 -0.0010191 0)
(5.02423e-08 -0.0010191 0)
(7.50901e-08 -0.00101923 0)
(2.61511e-09 -0.00101927 0)
(-7.32999e-08 -0.00101924 0)
(-5.1482e-08 -0.0010191 0)
(5.0883e-08 -0.0010191 0)
(7.62561e-08 -0.00101923 0)
(2.6321e-09 -0.00101926 0)
(-7.44475e-08 -0.00101924 0)
(-5.2117e-08 -0.00101911 0)
(5.13347e-08 -0.00101911 0)
(7.70742e-08 -0.00101923 0)
(2.64373e-09 -0.00101926 0)
(-7.5253e-08 -0.00101924 0)
(-5.25647e-08 -0.00101911 0)
(5.1585e-08 -0.00101911 0)
(7.75228e-08 -0.00101923 0)
(2.65014e-09 -0.00101926 0)
(-7.5695e-08 -0.00101924 0)
(-5.28134e-08 -0.00101911 0)
)
;

boundaryField
{
    BotWall
    {
        type            fixedValue;
        value           uniform (0 0 0);
    }
    FreeStream
    {
        type            zeroGradient;
    }
    FrontNBack
    {
        type            empty;
    }
    LeftSide
    {
        type            symmetryPlane;
    }
    RightSide
    {
        type            symmetryPlane;
    }
}


// ************************************************************************* //
