/*--------------------------------*- C++ -*----------------------------------*\
| =========                 |                                                 |
| \\      /  F ield         | OpenFOAM: The Open Source CFD Toolbox           |
|  \\    /   O peration     | Version:  2.4.0                                 |
|   \\  /    A nd           | Web:      www.OpenFOAM.org                      |
|    \\/     M anipulation  |                                                 |
\*---------------------------------------------------------------------------*/
FoamFile
{
    version     2.0;
    format      ascii;
    class       surfaceScalarField;
    location    "0.012";
    object      phi;
}
// * * * * * * * * * * * * * * * * * * * * * * * * * * * * * * * * * * * * * //

dimensions      [0 3 -1 0 0 0 0];

internalField   nonuniform List<scalar> 
124
(
-4.46465e-09
-4.46467e-09
-4.46469e-09
-4.46471e-09
-4.46473e-09
-4.46474e-09
-4.46476e-09
-4.46478e-09
-4.4648e-09
-4.46481e-09
-4.46483e-09
-4.46485e-09
-4.46486e-09
-4.46488e-09
-4.4649e-09
-4.46491e-09
-4.46493e-09
-4.46495e-09
-4.46496e-09
-4.46498e-09
-4.46499e-09
-4.46501e-09
-4.46502e-09
-4.46504e-09
-4.46505e-09
-4.46507e-09
-4.46508e-09
-4.4651e-09
-4.46511e-09
-4.46513e-09
-4.46514e-09
-4.46516e-09
-4.46517e-09
-4.46518e-09
-4.4652e-09
-4.46521e-09
-4.46523e-09
-4.46524e-09
-4.46525e-09
-4.46527e-09
-4.46528e-09
-4.46529e-09
-4.46531e-09
-4.46532e-09
-4.46533e-09
-4.46534e-09
-4.46536e-09
-4.46537e-09
-4.46538e-09
-4.46539e-09
-4.46541e-09
-4.46542e-09
-4.46543e-09
-4.46544e-09
-4.46545e-09
-4.46547e-09
-4.46548e-09
-4.46549e-09
-4.4655e-09
-4.46551e-09
-4.46553e-09
-4.46554e-09
-4.46555e-09
-4.46556e-09
-4.46557e-09
-4.46558e-09
-4.46559e-09
-4.46561e-09
-4.46562e-09
-4.46563e-09
-4.46564e-09
-4.46565e-09
-4.46566e-09
-4.46567e-09
-4.46568e-09
-4.46569e-09
-4.4657e-09
-4.46572e-09
-4.46573e-09
-4.46574e-09
-4.46575e-09
-4.46576e-09
-4.46577e-09
-4.46578e-09
-4.46579e-09
-4.4658e-09
-4.46581e-09
-4.46582e-09
-4.46583e-09
-4.46584e-09
-4.46585e-09
-4.46586e-09
-4.46587e-09
-4.46588e-09
-4.46589e-09
-4.4659e-09
-4.46591e-09
-4.46592e-09
-4.46593e-09
-4.46594e-09
-4.46595e-09
-4.46596e-09
-4.46597e-09
-4.46598e-09
-4.46599e-09
-4.466e-09
-4.46601e-09
-4.46602e-09
-4.46603e-09
-4.46604e-09
-4.46605e-09
-4.46606e-09
-4.46607e-09
-4.46608e-09
-4.46609e-09
-4.4661e-09
-4.46611e-09
-4.46612e-09
-4.46613e-09
-4.46614e-09
-4.46615e-09
-4.46616e-09
-4.46617e-09
-4.46618e-09
)
;

boundaryField
{
    BotWall
    {
        type            calculated;
        value           nonuniform 0();
    }
    FreeStream
    {
        type            calculated;
        value           nonuniform 0();
    }
    FrontNBack
    {
        type            empty;
        value           nonuniform 0();
    }
    LeftSide
    {
        type            symmetryPlane;
        value           uniform 0;
    }
    RightSide
    {
        type            symmetryPlane;
        value           nonuniform 0();
    }
    procBoundary1to0
    {
        type            processor;
        value           uniform -4.46619e-09;
    }
    procBoundary1to2
    {
        type            processor;
        value           uniform 4.46464e-09;
    }
    procBoundary1to3
    {
        type            processor;
        value           nonuniform List<scalar> 
75
(
1.23233e-14
1.22471e-14
1.2173e-14
1.21009e-14
1.20307e-14
1.19623e-14
1.18958e-14
1.1831e-14
1.17679e-14
1.17064e-14
1.16464e-14
1.1588e-14
1.15311e-14
1.14755e-14
1.14214e-14
1.13685e-14
1.13168e-14
1.12664e-14
1.12171e-14
1.1169e-14
1.11219e-14
1.10758e-14
1.10308e-14
1.09867e-14
1.09435e-14
1.09011e-14
1.08596e-14
1.0819e-14
1.07791e-14
1.07399e-14
1.07015e-14
1.06637e-14
1.06267e-14
1.05902e-14
1.05544e-14
1.05192e-14
1.04846e-14
1.04505e-14
1.0417e-14
1.0384e-14
1.03515e-14
1.03195e-14
1.02879e-14
1.02568e-14
1.02262e-14
1.0196e-14
1.01662e-14
1.01368e-14
1.01079e-14
1.00793e-14
1.00511e-14
1.00233e-14
9.99579e-15
9.96868e-15
9.94192e-15
9.9155e-15
9.88941e-15
9.86365e-15
9.83821e-15
9.81308e-15
9.78827e-15
9.76375e-15
9.73954e-15
9.71561e-15
9.69197e-15
9.66861e-15
9.64553e-15
9.6227e-15
9.60014e-15
9.57782e-15
9.55575e-15
9.53392e-15
9.5123e-15
9.49091e-15
9.46971e-15
)
;
    }
    procBoundary1to4
    {
        type            processor;
        value           nonuniform List<scalar> 
50
(
1.82103e-14
1.81239e-14
1.80301e-14
1.79296e-14
1.7823e-14
1.77107e-14
1.75934e-14
1.74716e-14
1.73458e-14
1.72164e-14
1.7084e-14
1.6949e-14
1.68118e-14
1.66729e-14
1.65325e-14
1.63912e-14
1.62491e-14
1.61067e-14
1.59643e-14
1.58221e-14
1.56804e-14
1.55394e-14
1.53995e-14
1.52607e-14
1.51232e-14
1.49873e-14
1.48532e-14
1.47208e-14
1.45905e-14
1.44622e-14
1.43361e-14
1.42123e-14
1.40908e-14
1.39717e-14
1.3855e-14
1.37408e-14
1.36291e-14
1.35199e-14
1.34132e-14
1.33091e-14
1.32075e-14
1.31083e-14
1.30117e-14
1.29175e-14
1.28257e-14
1.27362e-14
1.26492e-14
1.25644e-14
1.24818e-14
1.24015e-14
)
;
    }
}


// ************************************************************************* //
