/*--------------------------------*- C++ -*----------------------------------*\
| =========                 |                                                 |
| \\      /  F ield         | OpenFOAM: The Open Source CFD Toolbox           |
|  \\    /   O peration     | Version:  2.4.0                                 |
|   \\  /    A nd           | Web:      www.OpenFOAM.org                      |
|    \\/     M anipulation  |                                                 |
\*---------------------------------------------------------------------------*/
FoamFile
{
    version     2.0;
    format      ascii;
    class       volScalarField;
    location    "0.8";
    object      p;
}
// * * * * * * * * * * * * * * * * * * * * * * * * * * * * * * * * * * * * * //

dimensions      [1 -1 -2 0 0 0 0];

internalField   nonuniform List<scalar> 
8000
(
0.717196
0.704547
0.693583
0.685106
0.678104
0.67205
0.666785
0.662235
0.658322
0.654963
0.652086
0.649624
0.647523
0.645731
0.644204
0.642904
0.641794
0.640846
0.64003
0.639322
0.638702
0.638149
0.637645
0.637178
0.636733
0.636299
0.635864
0.635424
0.634969
0.634497
0.634002
0.633487
0.632949
0.632393
0.631796
0.631161
0.630603
0.630616
0.631594
0.630666
0.616058
0.57812
0.5699
0.261456
-0.0104046
-0.0114317
-0.0112015
-0.0111554
-0.0111538
-0.0111588
-0.136031
-0.143075
-0.152045
-0.160529
-0.168108
-0.174951
-0.181195
-0.186894
-0.192074
-0.19676
-0.200975
-0.204741
-0.208077
-0.210999
-0.21352
-0.215653
-0.217407
-0.21879
-0.219808
-0.220466
-0.220766
-0.220712
-0.220302
-0.219537
-0.218412
-0.216925
-0.215071
-0.212843
-0.210233
-0.207233
-0.203831
-0.200015
-0.195768
-0.191099
-0.186042
-0.180575
-0.174177
-0.165454
-0.154642
-0.154507
-0.19982
-0.28323
-0.138361
-0.0553635
-0.0347681
-0.0338344
-0.0336464
-0.0336088
-0.0336095
-0.0336105
0.229665
0.226044
0.2228
0.219796
0.216713
0.213457
0.210033
0.206456
0.202729
0.19885
0.194818
0.190627
0.186274
0.181752
0.177056
0.172179
0.167112
0.161848
0.156376
0.150686
0.144768
0.138609
0.132198
0.12552
0.118562
0.111306
0.10374
0.0958425
0.0875993
0.0789858
0.0699887
0.0605802
0.0507455
0.0404299
0.0295753
0.0181701
0.00669545
-0.00375228
-0.0140791
-0.0368614
-0.100848
-0.183017
-0.114411
-0.0899989
-0.0581501
-0.0561172
-0.0559079
-0.0558856
-0.0558909
-0.0558948
-0.178802
-0.181267
-0.184613
-0.188035
-0.191356
-0.194605
-0.197806
-0.200965
-0.204074
-0.207132
-0.210135
-0.213082
-0.21597
-0.2188
-0.221569
-0.224277
-0.226923
-0.229507
-0.232027
-0.234483
-0.236874
-0.239201
-0.241459
-0.243651
-0.245771
-0.247822
-0.249797
-0.251699
-0.253519
-0.25526
-0.25691
-0.258473
-0.25994
-0.26134
-0.262661
-0.263746
-0.264012
-0.263306
-0.265723
-0.284805
-0.324865
-0.305687
-0.148875
-0.0801015
-0.0784411
-0.078334
-0.0782915
-0.0782927
-0.0782978
-0.078298
-0.0886864
-0.0902307
-0.0917488
-0.0932999
-0.0950028
-0.0968936
-0.0989672
-0.101217
-0.103638
-0.10623
-0.108992
-0.111921
-0.115018
-0.118281
-0.12171
-0.125307
-0.12907
-0.133002
-0.137105
-0.141379
-0.145828
-0.150456
-0.155266
-0.160262
-0.165451
-0.170837
-0.176431
-0.182236
-0.188266
-0.194524
-0.201025
-0.20777
-0.214823
-0.222296
-0.230158
-0.237263
-0.242817
-0.247448
-0.267714
-0.343578
-0.453849
-0.292081
-0.151377
-0.10366
-0.100874
-0.100568
-0.100545
-0.100556
-0.100566
-0.100573
-0.266307
-0.268161
-0.270489
-0.272878
-0.275274
-0.277707
-0.28019
-0.282724
-0.285306
-0.287934
-0.290606
-0.293322
-0.29608
-0.298879
-0.301718
-0.304595
-0.30751
-0.310459
-0.313444
-0.31646
-0.319507
-0.322581
-0.325683
-0.328805
-0.331949
-0.335106
-0.338278
-0.341454
-0.344636
-0.347809
-0.350976
-0.354123
-0.357277
-0.360436
-0.363481
-0.36584
-0.367042
-0.370236
-0.388628
-0.433813
-0.443118
-0.25849
-0.13086
-0.123441
-0.12307
-0.12301
-0.123011
-0.123016
-0.123018
-0.123017
-0.262394
-0.264265
-0.266336
-0.268428
-0.27059
-0.272861
-0.275247
-0.277745
-0.280354
-0.283072
-0.285899
-0.288834
-0.291877
-0.295027
-0.298283
-0.301645
-0.305113
-0.308685
-0.312361
-0.316142
-0.320025
-0.324013
-0.328104
-0.332299
-0.336597
-0.340999
-0.345504
-0.350116
-0.354828
-0.359644
-0.364554
-0.369604
-0.374878
-0.380386
-0.385233
-0.386928
-0.385693
-0.40425
-0.506468
-0.684629
-0.42916
-0.204549
-0.148084
-0.145662
-0.145422
-0.145396
-0.145401
-0.145404
-0.145404
-0.145403
-0.334456
-0.336782
-0.339477
-0.342155
-0.344813
-0.347497
-0.350221
-0.352986
-0.355789
-0.35863
-0.361509
-0.364426
-0.367381
-0.370374
-0.373405
-0.376475
-0.379583
-0.38273
-0.385915
-0.38914
-0.392403
-0.395707
-0.39905
-0.402434
-0.405857
-0.409324
-0.41283
-0.416382
-0.419972
-0.42361
-0.427291
-0.431051
-0.43491
-0.438777
-0.442061
-0.444053
-0.447492
-0.466735
-0.51994
-0.547534
-0.337719
-0.179468
-0.168435
-0.167846
-0.167771
-0.167772
-0.167778
-0.167779
-0.167779
-0.167778
-0.352489
-0.355025
-0.357887
-0.360717
-0.36354
-0.366408
-0.369336
-0.372322
-0.375366
-0.378466
-0.381623
-0.384836
-0.388105
-0.39143
-0.394811
-0.398248
-0.40174
-0.405287
-0.408889
-0.412545
-0.416255
-0.420017
-0.423833
-0.427699
-0.431617
-0.435584
-0.439601
-0.443664
-0.447771
-0.451917
-0.45613
-0.460478
-0.464964
-0.468903
-0.470379
-0.469538
-0.483688
-0.561712
-0.698443
-0.507211
-0.260685
-0.193037
-0.190427
-0.190189
-0.190163
-0.190168
-0.190171
-0.190171
-0.190169
-0.190168
-0.383095
-0.385989
-0.389257
-0.392454
-0.395598
-0.398747
-0.40192
-0.405116
-0.408333
-0.411571
-0.414831
-0.418111
-0.421413
-0.424737
-0.428084
-0.431452
-0.434844
-0.438258
-0.441696
-0.445157
-0.448643
-0.452153
-0.455689
-0.459248
-0.462837
-0.466449
-0.470092
-0.473758
-0.477457
-0.48118
-0.484971
-0.48886
-0.492772
-0.496002
-0.497431
-0.499547
-0.519636
-0.586483
-0.638269
-0.410066
-0.227941
-0.213328
-0.212618
-0.212532
-0.212532
-0.212538
-0.21254
-0.212539
-0.212539
-0.212538
-0.406487
-0.409513
-0.412937
-0.416293
-0.419599
-0.422918
-0.426268
-0.42965
-0.43306
-0.436498
-0.439966
-0.443462
-0.446988
-0.450543
-0.454127
-0.457742
-0.461386
-0.46506
-0.468765
-0.472499
-0.476264
-0.480058
-0.483883
-0.487737
-0.491622
-0.495535
-0.499477
-0.503445
-0.507439
-0.511471
-0.515589
-0.519796
-0.523703
-0.526126
-0.526976
-0.536222
-0.583621
-0.670722
-0.581824
-0.327731
-0.238554
-0.235213
-0.234941
-0.234912
-0.234918
-0.234922
-0.234922
-0.234921
-0.23492
-0.234919
-0.420409
-0.423704
-0.427394
-0.430976
-0.434475
-0.43796
-0.441451
-0.444949
-0.448449
-0.451953
-0.45546
-0.458971
-0.462486
-0.466005
-0.469528
-0.473056
-0.476588
-0.480126
-0.483668
-0.487216
-0.490768
-0.494328
-0.497889
-0.501461
-0.505034
-0.508619
-0.512202
-0.515796
-0.519385
-0.523019
-0.526747
-0.530548
-0.533631
-0.534235
-0.533628
-0.551259
-0.632364
-0.742139
-0.49053
-0.280476
-0.258279
-0.257397
-0.257294
-0.257292
-0.257298
-0.257299
-0.257299
-0.257298
-0.257297
-0.257296
-0.44442
-0.44772
-0.451447
-0.455083
-0.458649
-0.462211
-0.465791
-0.469388
-0.473
-0.476625
-0.480265
-0.483919
-0.487588
-0.491272
-0.49497
-0.498684
-0.502413
-0.506158
-0.509919
-0.513696
-0.517488
-0.521298
-0.525123
-0.528967
-0.532826
-0.536706
-0.540598
-0.54451
-0.548442
-0.552436
-0.556513
-0.560487
-0.563513
-0.564902
-0.569674
-0.598559
-0.668977
-0.671794
-0.410911
-0.285265
-0.280045
-0.279699
-0.27966
-0.279665
-0.27967
-0.279671
-0.27967
-0.27967
-0.279669
-0.279669
-0.457443
-0.460844
-0.464659
-0.468363
-0.47198
-0.475581
-0.479186
-0.482796
-0.486407
-0.490018
-0.493629
-0.497241
-0.500854
-0.504467
-0.50808
-0.511693
-0.515306
-0.518919
-0.522531
-0.526142
-0.529751
-0.533358
-0.536963
-0.540563
-0.544161
-0.547749
-0.551328
-0.554888
-0.558476
-0.56219
-0.566043
-0.569011
-0.568207
-0.563776
-0.581597
-0.695402
-0.899085
-0.609524
-0.345302
-0.303454
-0.302189
-0.30206
-0.302052
-0.302057
-0.302059
-0.302058
-0.302057
-0.302055
-0.302054
-0.302053
-0.475194
-0.478648
-0.482528
-0.4863
-0.489987
-0.49366
-0.497341
-0.50103
-0.504724
-0.508423
-0.512126
-0.515834
-0.519549
-0.523269
-0.526997
-0.530731
-0.534474
-0.538223
-0.541984
-0.545752
-0.549534
-0.553324
-0.55713
-0.560946
-0.564782
-0.568627
-0.572494
-0.576373
-0.580316
-0.584372
-0.58847
-0.591735
-0.592557
-0.593451
-0.616069
-0.701527
-0.784666
-0.508283
-0.335064
-0.324967
-0.324477
-0.324418
-0.324422
-0.324427
-0.324428
-0.324427
-0.324427
-0.324426
-0.324425
-0.324425
-0.494024
-0.497435
-0.50128
-0.505024
-0.508686
-0.512336
-0.515997
-0.519666
-0.523343
-0.527026
-0.530715
-0.534411
-0.538113
-0.541822
-0.545539
-0.549263
-0.552995
-0.556734
-0.560483
-0.564239
-0.568005
-0.571779
-0.575565
-0.579359
-0.583167
-0.586981
-0.590808
-0.594656
-0.598577
-0.602591
-0.60637
-0.608747
-0.609215
-0.616205
-0.658623
-0.748906
-0.708158
-0.434495
-0.349561
-0.347013
-0.346808
-0.346791
-0.346798
-0.346801
-0.346801
-0.346801
-0.3468
-0.3468
-0.346799
-0.346799
-0.504636
-0.508133
-0.512041
-0.515817
-0.519488
-0.523128
-0.526758
-0.530378
-0.533983
-0.537574
-0.541149
-0.544709
-0.548252
-0.55178
-0.555291
-0.558784
-0.562258
-0.565713
-0.569146
-0.57256
-0.575947
-0.579312
-0.582646
-0.585958
-0.589228
-0.592463
-0.595641
-0.598842
-0.602217
-0.605791
-0.607912
-0.603966
-0.594203
-0.620165
-0.800066
-1.12282
-0.651874
-0.393336
-0.369936
-0.369264
-0.369189
-0.369189
-0.369193
-0.369193
-0.369192
-0.36919
-0.369189
-0.369187
-0.369186
-0.369185
-0.527429
-0.530815
-0.53463
-0.538348
-0.541986
-0.545615
-0.549256
-0.55291
-0.556572
-0.560242
-0.563921
-0.56761
-0.571309
-0.575018
-0.578737
-0.582469
-0.586212
-0.58997
-0.593741
-0.597528
-0.60133
-0.605153
-0.608993
-0.612857
-0.616739
-0.620648
-0.624578
-0.628583
-0.63272
-0.636906
-0.640208
-0.640905
-0.641745
-0.665905
-0.756918
-0.846489
-0.547373
-0.397839
-0.391904
-0.39158
-0.391545
-0.391551
-0.391555
-0.391555
-0.391555
-0.391554
-0.391553
-0.391553
-0.391552
-0.391552
-0.543065
-0.546426
-0.550205
-0.55388
-0.557472
-0.56105
-0.564635
-0.568226
-0.571821
-0.575419
-0.57902
-0.582625
-0.586233
-0.589845
-0.593461
-0.597082
-0.600708
-0.604339
-0.607975
-0.611619
-0.615268
-0.618926
-0.622592
-0.626268
-0.62995
-0.633641
-0.637355
-0.641154
-0.645059
-0.648669
-0.650588
-0.650259
-0.657977
-0.708471
-0.815263
-0.759269
-0.481141
-0.415763
-0.414074
-0.413928
-0.413921
-0.413928
-0.41393
-0.41393
-0.413929
-0.413929
-0.413928
-0.413928
-0.413927
-0.413927
-0.556341
-0.55975
-0.56356
-0.567241
-0.570819
-0.574364
-0.577899
-0.581421
-0.584928
-0.588419
-0.591893
-0.59535
-0.598791
-0.602212
-0.605616
-0.608999
-0.612363
-0.615703
-0.619024
-0.622316
-0.625587
-0.628825
-0.63204
-0.635212
-0.638348
-0.641423
-0.644529
-0.647841
-0.651384
-0.653283
-0.648284
-0.636673
-0.665675
-0.869817
-1.23609
-0.705881
-0.453456
-0.436826
-0.436363
-0.436313
-0.436316
-0.436319
-0.436319
-0.436317
-0.436316
-0.436315
-0.436313
-0.436312
-0.436311
-0.43631
-0.0111605
-0.0111604
-0.0111606
-0.0111615
-0.0111625
-0.0111636
-0.0111647
-0.0111658
-0.0111669
-0.0111681
-0.0111692
-0.0111703
-0.0111714
-0.0111725
-0.0111736
-0.0111747
-0.0111757
-0.0111767
-0.0111778
-0.0111787
-0.0111797
-0.0111806
-0.0111816
-0.0111825
-0.0111833
-0.0111842
-0.011185
-0.0111858
-0.0111865
-0.0111873
-0.011188
-0.0111887
-0.0111893
-0.01119
-0.0111906
-0.0111912
-0.0111918
-0.0111923
-0.0111928
-0.0111933
-0.0111938
-0.0111943
-0.0111947
-0.0111951
-0.0111955
-0.0111959
-0.0111962
-0.0111966
-0.0111969
-0.0111972
-0.0336075
-0.0336034
-0.0335999
-0.0335972
-0.0335948
-0.0335925
-0.0335903
-0.0335883
-0.0335864
-0.0335846
-0.0335829
-0.0335813
-0.0335798
-0.0335785
-0.0335772
-0.0335759
-0.0335748
-0.0335737
-0.0335727
-0.0335718
-0.0335709
-0.0335701
-0.0335693
-0.0335686
-0.033568
-0.0335674
-0.0335668
-0.0335662
-0.0335657
-0.0335653
-0.0335648
-0.0335644
-0.033564
-0.0335637
-0.0335633
-0.033563
-0.0335627
-0.0335625
-0.0335622
-0.033562
-0.0335618
-0.0335616
-0.0335614
-0.0335612
-0.033561
-0.0335609
-0.0335607
-0.0335606
-0.0335605
-0.0335603
-0.0558955
-0.0558954
-0.0558959
-0.0558968
-0.0558979
-0.0558989
-0.0558999
-0.055901
-0.055902
-0.055903
-0.055904
-0.055905
-0.0559061
-0.0559071
-0.0559081
-0.0559091
-0.0559101
-0.0559111
-0.055912
-0.055913
-0.055914
-0.0559149
-0.0559159
-0.0559168
-0.0559177
-0.0559186
-0.0559195
-0.0559204
-0.0559213
-0.0559221
-0.0559229
-0.0559238
-0.0559246
-0.0559253
-0.0559261
-0.0559268
-0.0559276
-0.0559283
-0.055929
-0.0559297
-0.0559303
-0.0559309
-0.0559316
-0.0559322
-0.0559327
-0.0559333
-0.0559338
-0.0559344
-0.0559349
-0.0559354
-0.0782961
-0.0782942
-0.0782933
-0.0782929
-0.0782926
-0.0782923
-0.0782922
-0.0782922
-0.0782922
-0.0782923
-0.0782924
-0.0782926
-0.0782928
-0.0782931
-0.0782933
-0.0782937
-0.078294
-0.0782943
-0.0782947
-0.0782951
-0.0782955
-0.0782959
-0.0782962
-0.0782966
-0.078297
-0.0782974
-0.0782978
-0.0782982
-0.0782986
-0.078299
-0.0782994
-0.0782998
-0.0783002
-0.0783005
-0.0783009
-0.0783012
-0.0783016
-0.0783019
-0.0783022
-0.0783026
-0.0783029
-0.0783032
-0.0783035
-0.0783037
-0.078304
-0.0783043
-0.0783045
-0.0783048
-0.078305
-0.0783052
-0.100578
-0.100583
-0.100588
-0.100594
-0.100598
-0.100603
-0.100607
-0.100611
-0.100615
-0.100618
-0.100621
-0.100624
-0.100627
-0.10063
-0.100632
-0.100635
-0.100637
-0.100639
-0.100641
-0.100643
-0.100645
-0.100647
-0.100649
-0.10065
-0.100652
-0.100653
-0.100655
-0.100656
-0.100657
-0.100659
-0.10066
-0.100661
-0.100662
-0.100663
-0.100664
-0.100665
-0.100666
-0.100667
-0.100668
-0.100669
-0.10067
-0.100671
-0.100671
-0.100672
-0.100673
-0.100674
-0.100674
-0.100675
-0.100675
-0.100676
-0.123016
-0.123016
-0.123016
-0.123017
-0.123018
-0.123018
-0.123019
-0.12302
-0.123021
-0.123022
-0.123023
-0.123024
-0.123025
-0.123026
-0.123027
-0.123028
-0.123028
-0.123029
-0.12303
-0.123031
-0.123032
-0.123033
-0.123034
-0.123035
-0.123036
-0.123036
-0.123037
-0.123038
-0.123039
-0.123039
-0.12304
-0.123041
-0.123042
-0.123042
-0.123043
-0.123043
-0.123044
-0.123045
-0.123045
-0.123046
-0.123046
-0.123047
-0.123047
-0.123048
-0.123048
-0.123049
-0.123049
-0.12305
-0.12305
-0.12305
-0.145402
-0.145402
-0.145402
-0.145402
-0.145402
-0.145402
-0.145403
-0.145403
-0.145403
-0.145404
-0.145404
-0.145405
-0.145405
-0.145406
-0.145406
-0.145407
-0.145407
-0.145408
-0.145408
-0.145409
-0.145409
-0.14541
-0.14541
-0.145411
-0.145411
-0.145412
-0.145412
-0.145413
-0.145414
-0.145414
-0.145415
-0.145415
-0.145416
-0.145416
-0.145417
-0.145417
-0.145418
-0.145419
-0.145419
-0.14542
-0.14542
-0.145421
-0.145421
-0.145422
-0.145422
-0.145423
-0.145423
-0.145423
-0.145424
-0.145424
-0.167778
-0.167778
-0.167778
-0.167779
-0.167779
-0.16778
-0.167781
-0.167781
-0.167782
-0.167782
-0.167783
-0.167783
-0.167784
-0.167784
-0.167785
-0.167786
-0.167786
-0.167787
-0.167787
-0.167788
-0.167788
-0.167789
-0.167789
-0.16779
-0.16779
-0.167791
-0.167791
-0.167792
-0.167792
-0.167793
-0.167793
-0.167794
-0.167794
-0.167794
-0.167795
-0.167795
-0.167796
-0.167796
-0.167796
-0.167797
-0.167797
-0.167798
-0.167798
-0.167798
-0.167799
-0.167799
-0.167799
-0.1678
-0.1678
-0.1678
-0.190167
-0.190166
-0.190166
-0.190166
-0.190166
-0.190166
-0.190166
-0.190166
-0.190166
-0.190166
-0.190166
-0.190166
-0.190166
-0.190166
-0.190166
-0.190166
-0.190166
-0.190167
-0.190167
-0.190167
-0.190167
-0.190167
-0.190168
-0.190168
-0.190168
-0.190168
-0.190169
-0.190169
-0.190169
-0.190169
-0.19017
-0.19017
-0.19017
-0.190171
-0.190171
-0.190171
-0.190171
-0.190172
-0.190172
-0.190172
-0.190173
-0.190173
-0.190173
-0.190174
-0.190174
-0.190174
-0.190174
-0.190175
-0.190175
-0.190175
-0.212538
-0.212538
-0.212538
-0.212539
-0.212539
-0.212539
-0.212539
-0.21254
-0.21254
-0.21254
-0.212541
-0.212541
-0.212541
-0.212542
-0.212542
-0.212542
-0.212543
-0.212543
-0.212543
-0.212543
-0.212544
-0.212544
-0.212544
-0.212545
-0.212545
-0.212545
-0.212546
-0.212546
-0.212546
-0.212546
-0.212547
-0.212547
-0.212547
-0.212547
-0.212548
-0.212548
-0.212548
-0.212549
-0.212549
-0.212549
-0.212549
-0.21255
-0.21255
-0.21255
-0.21255
-0.212551
-0.212551
-0.212551
-0.212551
-0.212551
-0.234918
-0.234918
-0.234918
-0.234918
-0.234918
-0.234918
-0.234919
-0.234919
-0.234919
-0.234919
-0.234919
-0.234919
-0.234919
-0.234919
-0.23492
-0.23492
-0.23492
-0.23492
-0.23492
-0.23492
-0.23492
-0.234921
-0.234921
-0.234921
-0.234921
-0.234921
-0.234922
-0.234922
-0.234922
-0.234922
-0.234922
-0.234923
-0.234923
-0.234923
-0.234923
-0.234923
-0.234924
-0.234924
-0.234924
-0.234924
-0.234924
-0.234925
-0.234925
-0.234925
-0.234925
-0.234925
-0.234926
-0.234926
-0.234926
-0.234926
-0.257296
-0.257296
-0.257296
-0.257296
-0.257296
-0.257296
-0.257296
-0.257296
-0.257296
-0.257296
-0.257297
-0.257297
-0.257297
-0.257297
-0.257297
-0.257297
-0.257297
-0.257297
-0.257298
-0.257298
-0.257298
-0.257298
-0.257298
-0.257298
-0.257299
-0.257299
-0.257299
-0.257299
-0.257299
-0.257299
-0.2573
-0.2573
-0.2573
-0.2573
-0.2573
-0.2573
-0.257301
-0.257301
-0.257301
-0.257301
-0.257301
-0.257301
-0.257301
-0.257302
-0.257302
-0.257302
-0.257302
-0.257302
-0.257302
-0.257303
-0.279669
-0.279669
-0.279669
-0.279669
-0.279669
-0.27967
-0.27967
-0.27967
-0.27967
-0.27967
-0.279671
-0.279671
-0.279671
-0.279671
-0.279671
-0.279672
-0.279672
-0.279672
-0.279672
-0.279672
-0.279672
-0.279673
-0.279673
-0.279673
-0.279673
-0.279673
-0.279673
-0.279674
-0.279674
-0.279674
-0.279674
-0.279674
-0.279674
-0.279675
-0.279675
-0.279675
-0.279675
-0.279675
-0.279675
-0.279676
-0.279676
-0.279676
-0.279676
-0.279676
-0.279676
-0.279677
-0.279677
-0.279677
-0.279677
-0.279677
-0.302053
-0.302053
-0.302052
-0.302052
-0.302052
-0.302052
-0.302052
-0.302052
-0.302051
-0.302051
-0.302051
-0.302051
-0.302051
-0.302051
-0.302051
-0.302051
-0.302051
-0.302051
-0.302051
-0.302051
-0.302051
-0.302051
-0.302051
-0.302051
-0.302051
-0.302051
-0.302051
-0.302051
-0.302051
-0.302052
-0.302052
-0.302052
-0.302052
-0.302052
-0.302052
-0.302052
-0.302052
-0.302052
-0.302052
-0.302052
-0.302053
-0.302053
-0.302053
-0.302053
-0.302053
-0.302053
-0.302053
-0.302053
-0.302053
-0.302053
-0.324425
-0.324425
-0.324425
-0.324425
-0.324425
-0.324425
-0.324425
-0.324425
-0.324425
-0.324425
-0.324425
-0.324425
-0.324425
-0.324425
-0.324425
-0.324425
-0.324425
-0.324425
-0.324425
-0.324425
-0.324426
-0.324426
-0.324426
-0.324426
-0.324426
-0.324426
-0.324426
-0.324426
-0.324426
-0.324426
-0.324426
-0.324426
-0.324427
-0.324427
-0.324427
-0.324427
-0.324427
-0.324427
-0.324427
-0.324427
-0.324427
-0.324427
-0.324427
-0.324428
-0.324428
-0.324428
-0.324428
-0.324428
-0.324428
-0.324428
-0.346799
-0.346799
-0.346799
-0.346799
-0.3468
-0.3468
-0.3468
-0.3468
-0.3468
-0.3468
-0.3468
-0.3468
-0.3468
-0.346801
-0.346801
-0.346801
-0.346801
-0.346801
-0.346801
-0.346801
-0.346801
-0.346801
-0.346801
-0.346801
-0.346802
-0.346802
-0.346802
-0.346802
-0.346802
-0.346802
-0.346802
-0.346802
-0.346802
-0.346802
-0.346802
-0.346803
-0.346803
-0.346803
-0.346803
-0.346803
-0.346803
-0.346803
-0.346803
-0.346803
-0.346803
-0.346804
-0.346804
-0.346804
-0.346804
-0.346804
-0.369185
-0.369184
-0.369184
-0.369183
-0.369183
-0.369182
-0.369182
-0.369182
-0.369181
-0.369181
-0.369181
-0.36918
-0.36918
-0.36918
-0.36918
-0.36918
-0.36918
-0.369179
-0.369179
-0.369179
-0.369179
-0.369179
-0.369179
-0.369179
-0.369179
-0.369179
-0.369179
-0.369179
-0.369179
-0.369179
-0.369178
-0.369178
-0.369178
-0.369178
-0.369178
-0.369179
-0.369179
-0.369179
-0.369179
-0.369179
-0.369179
-0.369179
-0.369179
-0.369179
-0.369179
-0.369179
-0.369179
-0.369179
-0.369179
-0.369179
-0.391552
-0.391552
-0.391552
-0.391552
-0.391552
-0.391552
-0.391552
-0.391552
-0.391552
-0.391552
-0.391552
-0.391552
-0.391552
-0.391552
-0.391552
-0.391552
-0.391552
-0.391552
-0.391552
-0.391553
-0.391553
-0.391553
-0.391553
-0.391553
-0.391553
-0.391553
-0.391553
-0.391553
-0.391553
-0.391553
-0.391553
-0.391553
-0.391553
-0.391553
-0.391553
-0.391553
-0.391553
-0.391553
-0.391554
-0.391554
-0.391554
-0.391554
-0.391554
-0.391554
-0.391554
-0.391554
-0.391554
-0.391554
-0.391554
-0.391554
-0.413927
-0.413927
-0.413927
-0.413927
-0.413927
-0.413927
-0.413928
-0.413928
-0.413928
-0.413928
-0.413928
-0.413928
-0.413928
-0.413928
-0.413928
-0.413928
-0.413928
-0.413928
-0.413928
-0.413928
-0.413928
-0.413928
-0.413928
-0.413928
-0.413928
-0.413928
-0.413928
-0.413928
-0.413928
-0.413928
-0.413928
-0.413928
-0.413928
-0.413928
-0.413928
-0.413928
-0.413928
-0.413929
-0.413929
-0.413929
-0.413929
-0.413929
-0.413929
-0.413929
-0.413929
-0.413929
-0.413929
-0.413929
-0.413929
-0.413929
-0.43631
-0.436309
-0.436309
-0.436309
-0.436308
-0.436308
-0.436308
-0.436307
-0.436307
-0.436307
-0.436306
-0.436306
-0.436306
-0.436306
-0.436306
-0.436305
-0.436305
-0.436305
-0.436305
-0.436305
-0.436305
-0.436305
-0.436305
-0.436304
-0.436304
-0.436304
-0.436304
-0.436304
-0.436304
-0.436304
-0.436304
-0.436304
-0.436304
-0.436304
-0.436304
-0.436304
-0.436304
-0.436304
-0.436304
-0.436304
-0.436304
-0.436304
-0.436304
-0.436304
-0.436304
-0.436305
-0.436305
-0.436305
-0.436305
-0.436305
-0.0111975
-0.0111976
-0.0111978
-0.0111979
-0.011198
-0.0111981
-0.0111982
-0.0111983
-0.0111984
-0.0111985
-0.0111986
-0.0111987
-0.0111988
-0.0111989
-0.011199
-0.0111991
-0.0111991
-0.0111992
-0.0111993
-0.0111993
-0.0111994
-0.0111994
-0.0111995
-0.0111995
-0.0111996
-0.0111996
-0.0111997
-0.0111997
-0.0111997
-0.0111998
-0.0111998
-0.0111998
-0.0111998
-0.0111998
-0.0111998
-0.0111998
-0.0111999
-0.0111999
-0.0111999
-0.0111999
-0.0111998
-0.0111998
-0.0111998
-0.0111998
-0.0111998
-0.0111998
-0.0111998
-0.0111997
-0.0111997
-0.0111997
-0.0111997
-0.0111996
-0.0111996
-0.0111996
-0.0111995
-0.0111995
-0.0111994
-0.0111994
-0.0111993
-0.0111993
-0.0111992
-0.0111992
-0.0111991
-0.0111991
-0.011199
-0.011199
-0.0111989
-0.0111988
-0.0111988
-0.0111987
-0.0111987
-0.0111986
-0.0111985
-0.0111985
-0.0111984
-0.0111983
-0.0111982
-0.0111982
-0.0111981
-0.011198
-0.0111979
-0.0111979
-0.0111978
-0.0111977
-0.0111976
-0.0111975
-0.0111974
-0.0111974
-0.0111973
-0.0111972
-0.0111971
-0.011197
-0.0111969
-0.0111969
-0.0111968
-0.0111967
-0.0111966
-0.0111965
-0.0111964
-0.0111963
-0.0111962
-0.0111961
-0.011196
-0.011196
-0.0111959
-0.0111958
-0.0111957
-0.0111956
-0.0111955
-0.0111954
-0.0111953
-0.0111952
-0.0111951
-0.011195
-0.0111949
-0.0111948
-0.0111948
-0.0111947
-0.0111946
-0.0111945
-0.0111944
-0.0111943
-0.0111942
-0.0111941
-0.011194
-0.0111939
-0.0111938
-0.0111937
-0.0111937
-0.0111936
-0.0111935
-0.0111934
-0.0111933
-0.0111932
-0.0111931
-0.011193
-0.011193
-0.0111929
-0.0111928
-0.0111927
-0.0111926
-0.0111925
-0.0111924
-0.0111924
-0.0111923
-0.0111922
-0.0111921
-0.011192
-0.011192
-0.0111919
-0.0111918
-0.0111917
-0.0111917
-0.0111916
-0.0111915
-0.0111914
-0.0111914
-0.0111913
-0.0111912
-0.0111911
-0.0111911
-0.011191
-0.0111909
-0.0111909
-0.0111908
-0.0111907
-0.0111907
-0.0111906
-0.0111905
-0.0111905
-0.0111904
-0.0111904
-0.0111903
-0.0111903
-0.0111902
-0.0111901
-0.0111901
-0.01119
-0.01119
-0.0111899
-0.0111899
-0.0111898
-0.0111898
-0.0111897
-0.0111897
-0.0111896
-0.0111896
-0.0111895
-0.0111895
-0.0111895
-0.0111894
-0.0111894
-0.0111893
-0.0111893
-0.0111893
-0.0111892
-0.0111892
-0.0111892
-0.0111891
-0.0111891
-0.0111891
-0.011189
-0.011189
-0.011189
-0.0111889
-0.0111889
-0.0111889
-0.0111889
-0.0111888
-0.0111888
-0.0111888
-0.0111888
-0.0111887
-0.0111887
-0.0111887
-0.0111887
-0.0111886
-0.0111886
-0.0111886
-0.0111886
-0.0111886
-0.0111886
-0.0111885
-0.0111885
-0.0111885
-0.0111885
-0.0111885
-0.0111885
-0.0111884
-0.0111884
-0.0111884
-0.0111884
-0.0111884
-0.0111884
-0.0111884
-0.0111884
-0.0111884
-0.0111884
-0.0111883
-0.0111883
-0.0111883
-0.0111883
-0.0111883
-0.0111883
-0.0111883
-0.0111883
-0.0111883
-0.0111883
-0.0111883
-0.0111883
-0.0111883
-0.0111883
-0.0111883
-0.0111883
-0.0111883
-0.0111883
-0.0111883
-0.0111883
-0.0111883
-0.0111883
-0.0111883
-0.0111883
-0.0111883
-0.0111883
-0.0111883
-0.0111883
-0.0111883
-0.0111883
-0.0111883
-0.0111883
-0.0111883
-0.0111883
-0.0111883
-0.0111883
-0.0111883
-0.0111883
-0.0111883
-0.0111883
-0.0111883
-0.0111883
-0.0111883
-0.0111883
-0.0111883
-0.0111883
-0.0111883
-0.0111883
-0.0111883
-0.0111883
-0.0111883
-0.0111883
-0.0111883
-0.0111883
-0.0111883
-0.0111884
-0.0111884
-0.0111884
-0.0111884
-0.0111884
-0.0111884
-0.0111884
-0.0335602
-0.0335601
-0.03356
-0.03356
-0.0335599
-0.0335599
-0.0335598
-0.0335597
-0.0335597
-0.0335596
-0.0335596
-0.0335595
-0.0335595
-0.0335594
-0.0335594
-0.0335593
-0.0335593
-0.0335592
-0.0335592
-0.0335591
-0.0335591
-0.0335591
-0.033559
-0.033559
-0.0335589
-0.0335589
-0.0335589
-0.0335588
-0.0335588
-0.0335588
-0.0335588
-0.0335587
-0.0335587
-0.0335587
-0.0335586
-0.0335586
-0.0335586
-0.0335586
-0.0335585
-0.0335585
-0.0335585
-0.0335585
-0.0335585
-0.0335584
-0.0335584
-0.0335584
-0.0335584
-0.0335584
-0.0335583
-0.0335583
-0.0335583
-0.0335583
-0.0335583
-0.0335583
-0.0335583
-0.0335583
-0.0335583
-0.0335582
-0.0335582
-0.0335582
-0.0335582
-0.0335582
-0.0335582
-0.0335582
-0.0335582
-0.0335582
-0.0335582
-0.0335582
-0.0335582
-0.0335582
-0.0335582
-0.0335582
-0.0335582
-0.0335582
-0.0335582
-0.0335582
-0.0335582
-0.0335582
-0.0335582
-0.0335582
-0.0335582
-0.0335583
-0.0335583
-0.0335583
-0.0335583
-0.0335583
-0.0335583
-0.0335583
-0.0335583
-0.0335584
-0.0335584
-0.0335584
-0.0335584
-0.0335584
-0.0335585
-0.0335585
-0.0335585
-0.0335585
-0.0335586
-0.0335586
-0.0335586
-0.0335586
-0.0335587
-0.0335587
-0.0335587
-0.0335587
-0.0335588
-0.0335588
-0.0335588
-0.0335589
-0.0335589
-0.0335589
-0.033559
-0.033559
-0.033559
-0.0335591
-0.0335591
-0.0335592
-0.0335592
-0.0335592
-0.0335593
-0.0335593
-0.0335593
-0.0335594
-0.0335594
-0.0335595
-0.0335595
-0.0335596
-0.0335596
-0.0335596
-0.0335597
-0.0335597
-0.0335598
-0.0335598
-0.0335599
-0.0335599
-0.03356
-0.03356
-0.0335601
-0.0335601
-0.0335601
-0.0335602
-0.0335602
-0.0335603
-0.0335603
-0.0335604
-0.0335604
-0.0335605
-0.0335605
-0.0335606
-0.0335606
-0.0335607
-0.0335607
-0.0335608
-0.0335608
-0.0335609
-0.0335609
-0.033561
-0.033561
-0.033561
-0.0335611
-0.0335611
-0.0335612
-0.0335612
-0.0335613
-0.0335613
-0.0335614
-0.0335614
-0.0335615
-0.0335615
-0.0335615
-0.0335616
-0.0335616
-0.0335617
-0.0335617
-0.0335618
-0.0335618
-0.0335619
-0.0335619
-0.0335619
-0.033562
-0.033562
-0.0335621
-0.0335621
-0.0335621
-0.0335622
-0.0335622
-0.0335623
-0.0335623
-0.0335623
-0.0335624
-0.0335624
-0.0335624
-0.0335625
-0.0335625
-0.0335625
-0.0335626
-0.0335626
-0.0335626
-0.0335627
-0.0335627
-0.0335627
-0.0335628
-0.0335628
-0.0335628
-0.0335629
-0.0335629
-0.0335629
-0.033563
-0.033563
-0.033563
-0.033563
-0.0335631
-0.0335631
-0.0335631
-0.0335632
-0.0335632
-0.0335632
-0.0335632
-0.0335633
-0.0335633
-0.0335633
-0.0335633
-0.0335634
-0.0335634
-0.0335634
-0.0335634
-0.0335635
-0.0335635
-0.0335635
-0.0335635
-0.0335636
-0.0335636
-0.0335636
-0.0335636
-0.0335637
-0.0335637
-0.0335637
-0.0335637
-0.0335638
-0.0335638
-0.0335638
-0.0335638
-0.0335638
-0.0335639
-0.0335639
-0.0335639
-0.0335639
-0.033564
-0.033564
-0.033564
-0.033564
-0.033564
-0.0335641
-0.0335641
-0.0335641
-0.0335641
-0.0335642
-0.0335642
-0.0335642
-0.0335642
-0.0335642
-0.0335643
-0.0335643
-0.0335643
-0.0335643
-0.0335644
-0.0335644
-0.0335644
-0.0335644
-0.0335645
-0.0335645
-0.0335645
-0.0335645
-0.0335645
-0.0335646
-0.0335646
-0.0335646
-0.0335646
-0.0335647
-0.0335647
-0.0335647
-0.0335647
-0.0335648
-0.0335648
-0.0335648
-0.0335648
-0.0335649
-0.0335649
-0.0335649
-0.0335649
-0.033565
-0.033565
-0.033565
-0.033565
-0.0335651
-0.0335651
-0.0335651
-0.0335651
-0.0335652
-0.0559357
-0.055936
-0.0559363
-0.0559365
-0.0559367
-0.055937
-0.0559372
-0.0559374
-0.0559377
-0.0559379
-0.0559381
-0.0559383
-0.0559385
-0.0559387
-0.0559389
-0.0559391
-0.0559393
-0.0559395
-0.0559397
-0.0559398
-0.05594
-0.0559402
-0.0559403
-0.0559405
-0.0559407
-0.0559408
-0.055941
-0.0559411
-0.0559412
-0.0559414
-0.0559415
-0.0559416
-0.0559418
-0.0559419
-0.055942
-0.0559421
-0.0559422
-0.0559423
-0.0559424
-0.0559425
-0.0559426
-0.0559427
-0.0559427
-0.0559428
-0.0559429
-0.055943
-0.055943
-0.0559431
-0.0559432
-0.0559432
-0.0559433
-0.0559433
-0.0559434
-0.0559434
-0.0559435
-0.0559435
-0.0559435
-0.0559436
-0.0559436
-0.0559436
-0.0559436
-0.0559436
-0.0559437
-0.0559437
-0.0559437
-0.0559437
-0.0559437
-0.0559437
-0.0559437
-0.0559437
-0.0559437
-0.0559437
-0.0559437
-0.0559437
-0.0559437
-0.0559436
-0.0559436
-0.0559436
-0.0559436
-0.0559436
-0.0559435
-0.0559435
-0.0559435
-0.0559435
-0.0559434
-0.0559434
-0.0559434
-0.0559433
-0.0559433
-0.0559433
-0.0559432
-0.0559432
-0.0559431
-0.0559431
-0.0559431
-0.055943
-0.055943
-0.0559429
-0.0559429
-0.0559428
-0.0559428
-0.0559427
-0.0559427
-0.0559427
-0.0559426
-0.0559426
-0.0559425
-0.0559425
-0.0559424
-0.0559424
-0.0559423
-0.0559423
-0.0559422
-0.0559422
-0.0559421
-0.0559421
-0.055942
-0.055942
-0.0559419
-0.0559419
-0.0559418
-0.0559418
-0.0559417
-0.0559417
-0.0559416
-0.0559416
-0.0559415
-0.0559415
-0.0559414
-0.0559414
-0.0559413
-0.0559413
-0.0559412
-0.0559412
-0.0559411
-0.0559411
-0.055941
-0.055941
-0.0559409
-0.0559409
-0.0559409
-0.0559408
-0.0559408
-0.0559407
-0.0559407
-0.0559407
-0.0559406
-0.0559406
-0.0559405
-0.0559405
-0.0559405
-0.0559404
-0.0559404
-0.0559404
-0.0559403
-0.0559403
-0.0559402
-0.0559402
-0.0559402
-0.0559402
-0.0559401
-0.0559401
-0.0559401
-0.05594
-0.05594
-0.05594
-0.05594
-0.0559399
-0.0559399
-0.0559399
-0.0559399
-0.0559398
-0.0559398
-0.0559398
-0.0559398
-0.0559398
-0.0559397
-0.0559397
-0.0559397
-0.0559397
-0.0559397
-0.0559397
-0.0559396
-0.0559396
-0.0559396
-0.0559396
-0.0559396
-0.0559396
-0.0559396
-0.0559396
-0.0559396
-0.0559396
-0.0559395
-0.0559395
-0.0559395
-0.0559395
-0.0559395
-0.0559395
-0.0559395
-0.0559395
-0.0559395
-0.0559395
-0.0559395
-0.0559395
-0.0559395
-0.0559395
-0.0559395
-0.0559395
-0.0559395
-0.0559395
-0.0559396
-0.0559396
-0.0559396
-0.0559396
-0.0559396
-0.0559396
-0.0559396
-0.0559396
-0.0559396
-0.0559396
-0.0559396
-0.0559397
-0.0559397
-0.0559397
-0.0559397
-0.0559397
-0.0559397
-0.0559398
-0.0559398
-0.0559398
-0.0559398
-0.0559398
-0.0559398
-0.0559399
-0.0559399
-0.0559399
-0.0559399
-0.0559399
-0.05594
-0.05594
-0.05594
-0.05594
-0.05594