/*--------------------------------*- C++ -*----------------------------------*\
| =========                 |                                                 |
| \\      /  F ield         | OpenFOAM: The Open Source CFD Toolbox           |
|  \\    /   O peration     | Version:  2.4.0                                 |
|   \\  /    A nd           | Web:      www.OpenFOAM.org                      |
|    \\/     M anipulation  |                                                 |
\*---------------------------------------------------------------------------*/
FoamFile
{
    version     2.0;
    format      ascii;
    class       surfaceScalarField;
    location    "0.8";
    object      phi;
}
// * * * * * * * * * * * * * * * * * * * * * * * * * * * * * * * * * * * * * //

dimensions      [0 3 -1 0 0 0 0];

internalField   nonuniform List<scalar> 
15580
(
-1.76201e-13
-3.11097e-12
-5.69927e-13
-9.23392e-12
-1.12314e-12
-1.52266e-11
-1.81646e-12
-2.10741e-11
-2.63307e-12
-2.67765e-11
-3.55844e-12
-3.23342e-11
-4.58004e-12
-3.77473e-11
-5.6871e-12
-4.30159e-11
-6.87035e-12
-4.81403e-11
-8.12182e-12
-5.31204e-11
-9.43466e-12
-5.79565e-11
-1.0803e-11
-6.26485e-11
-1.22218e-11
-6.71966e-11
-1.36866e-11
-7.16008e-11
-1.5194e-11
-7.58612e-11
-1.67406e-11
-7.99778e-11
-1.83238e-11
-8.39507e-11
-1.99412e-11
-8.77798e-11
-2.1591e-11
-9.14651e-11
-2.32715e-11
-9.50068e-11
-2.49811e-11
-9.84046e-11
-2.67187e-11
-1.01659e-10
-2.84832e-11
-1.04769e-10
-3.02737e-11
-1.07735e-10
-3.20892e-11
-1.10558e-10
-3.39291e-11
-1.13237e-10
-3.57925e-11
-1.15772e-10
-3.76788e-11
-1.18162e-10
-3.95871e-11
-1.20409e-10
-4.15168e-11
-1.22512e-10
-4.34667e-11
-1.2447e-10
-4.54361e-11
-1.26285e-10
-4.74236e-11
-1.27955e-10
-4.9428e-11
-1.29481e-10
-5.14476e-11
-1.30862e-10
-5.34806e-11
-1.32099e-10
-5.55247e-11
-1.33191e-10
-5.75773e-11
-1.34139e-10
-5.96353e-11
-1.34942e-10
-6.16953e-11
-1.356e-10
-6.37533e-11
-1.36112e-10
-6.61082e-11
-1.3648e-10
-6.95758e-11
-1.36722e-10
-7.15557e-11
-1.36882e-10
-7.34206e-11
-1.36974e-10
-7.52303e-11
-1.37033e-10
-7.70079e-11
-1.37025e-10
-7.88259e-11
-1.3654e-10
-8.04816e-11
-1.35547e-10
-1.3446e-10
-8.19117e-11
-3.93612e-14
-3.07161e-12
-2.14763e-13
-9.05852e-12
-5.35904e-13
-1.49055e-11
-9.90146e-13
-2.06198e-11
-1.56635e-12
-2.62003e-11
-2.2546e-12
-3.16459e-11
-3.04607e-12
-3.69558e-11
-3.93293e-12
-4.21291e-11
-4.9082e-12
-4.7165e-11
-5.96569e-12
-5.20629e-11
-7.09992e-12
-5.68222e-11
-8.30604e-12
-6.14424e-11
-9.57975e-12
-6.59229e-11
-1.09173e-11
-7.02633e-11
-1.23153e-11
-7.44632e-11
-1.37708e-11
-7.85223e-11
-1.52814e-11
-8.24402e-11
-1.68446e-11
-8.62165e-11
-1.84586e-11
-8.98511e-11
-2.01217e-11
-9.33437e-11
-2.18322e-11
-9.66941e-11
-2.3589e-11
-9.99019e-11
-2.53908e-11
-1.02967e-10
-2.72367e-11
-1.0589e-10
-2.91257e-11
-1.08669e-10
-3.10569e-11
-1.11306e-10
-3.30297e-11
-1.13799e-10
-3.50433e-11
-1.16149e-10
-3.70969e-11
-1.18356e-10
-3.91897e-11
-1.20419e-10
-4.1321e-11
-1.22339e-10
-4.34898e-11
-1.24116e-10
-4.5695e-11
-1.2575e-10
-4.79355e-11
-1.2724e-10
-5.02098e-11
-1.28588e-10
-5.25162e-11
-1.29793e-10
-5.48526e-11
-1.30855e-10
-5.72168e-11
-1.31775e-10
-5.96056e-11
-1.32553e-10
-6.20151e-11
-1.3319e-10
-6.44396e-11
-1.33687e-10
-6.9211e-11
-1.34046e-10
-7.22662e-11
-1.34287e-10
-7.47356e-11
-1.34413e-10
-7.71932e-11
-1.34516e-10
-7.96048e-11
-1.34622e-10
-8.19744e-11
-1.34655e-10
-8.42714e-11
-1.34243e-10
-8.63266e-11
-1.33492e-10
-1.32613e-10
-8.81733e-11
-4.83846e-14
-3.02322e-12
-1.5432e-13
-8.95258e-12
-3.06684e-13
-1.47531e-11
-5.07595e-13
-2.04189e-11
-7.58415e-13
-2.59495e-11
-1.05994e-12
-3.13444e-11
-1.41255e-12
-3.66032e-11
-1.81625e-12
-4.17254e-11
-2.27079e-12
-4.67105e-11
-2.77568e-12
-5.1558e-11
-3.3303e-12
-5.62676e-11
-3.93388e-12
-6.08388e-11
-4.5856e-12
-6.52712e-11
-5.28457e-12
-6.95643e-11
-6.0299e-12
-7.37179e-11
-6.82068e-12
-7.77315e-11
-7.65604e-12
-8.16048e-11
-8.53512e-12
-8.53375e-11
-9.45714e-12
-8.89291e-11
-1.04214e-11
-9.23795e-11
-1.14271e-11
-9.56883e-11
-1.24739e-11
-9.88552e-11
-1.35611e-11
-1.0188e-10
-1.46885e-11
-1.04762e-10
-1.58557e-11
-1.07502e-10
-1.70626e-11
-1.10099e-10
-1.83093e-11
-1.12552e-10
-1.95958e-11
-1.14862e-10
-2.09226e-11
-1.17029e-10
-2.229e-11
-1.19052e-10
-2.36989e-11
-1.2093e-10
-2.51502e-11
-1.22665e-10
-2.66451e-11
-1.24255e-10
-2.81852e-11
-1.257e-10
-2.97722e-11
-1.27001e-10
-3.14085e-11
-1.28156e-10
-3.30967e-11
-1.29167e-10
-3.48399e-11
-1.30032e-10
-3.6642e-11
-1.30751e-10
-3.85067e-11
-1.31326e-10
-4.04375e-11
-1.31757e-10
-4.47801e-11
-1.32051e-10
-4.68498e-11
-1.32239e-10
-4.8923e-11
-1.3234e-10
-5.10167e-11
-1.32422e-10
-5.31495e-11
-1.32489e-10
-5.54423e-11
-1.32362e-10
-5.78772e-11
-1.31808e-10
-6.02835e-11
-1.31085e-10
-1.30268e-10
-6.26285e-11
-1.03866e-14
-3.01284e-12
-6.74094e-14
-8.89556e-12
-1.78946e-13
-1.46416e-11
-3.44213e-13
-2.02536e-11
-5.626e-13
-2.57311e-11
-8.33601e-13
-3.10734e-11
-1.1568e-12
-3.628e-11
-1.53182e-12
-4.13503e-11
-1.95837e-12
-4.62839e-11
-2.4362e-12
-5.10802e-11
-2.96509e-12
-5.57387e-11
-3.54488e-12
-6.0259e-11
-4.17545e-12
-6.46406e-11
-4.85674e-12
-6.88831e-11
-5.58871e-12
-7.29859e-11
-6.37138e-12
-7.69488e-11
-7.20485e-12
-8.07714e-11
-8.08922e-12
-8.44531e-11
-9.0247e-12
-8.79936e-11
-1.00115e-11
-9.13927e-11
-1.10501e-11
-9.46498e-11
-1.21407e-11
-9.77646e-11
-1.32839e-11
-1.00737e-10
-1.44802e-11
-1.03566e-10
-1.57303e-11
-1.06252e-10
-1.70349e-11
-1.08794e-10
-1.83949e-11
-1.11192e-10
-1.98113e-11
-1.13446e-10
-2.12853e-11
-1.15555e-10
-2.2818e-11
-1.17519e-10
-2.44108e-11
-1.19337e-10
-2.60653e-11
-1.2101e-10
-2.77833e-11
-1.22537e-10
-2.95667e-11
-1.23917e-10
-3.14175e-11
-1.2515e-10
-3.33382e-11
-1.26236e-10
-3.53313e-11
-1.27174e-10
-3.73996e-11
-1.27964e-10
-3.95467e-11
-1.28604e-10
-4.17776e-11
-1.29095e-10
-4.45103e-11
-1.29437e-10
-4.85621e-11
-1.29661e-10
-5.10416e-11
-1.2976e-10
-5.35663e-11
-1.29815e-10
-5.61201e-11
-1.29869e-10
-5.87003e-11
-1.29909e-10
-6.13461e-11
-1.29717e-10
-6.39327e-11
-1.29222e-10
-6.64215e-11
-1.28597e-10
-1.27875e-10
-6.88147e-11
-1.84692e-14
-2.99437e-12
-6.15071e-14
-8.85252e-12
-1.27195e-13
-1.45759e-11
-2.18589e-13
-2.01622e-11
-3.38474e-13
-2.56112e-11
-4.89395e-13
-3.09225e-11
-6.73683e-13
-3.60957e-11
-8.93462e-13
-4.11306e-11
-1.15068e-12
-4.60267e-11
-1.44713e-12
-5.07838e-11
-1.78446e-12
-5.54014e-11
-2.16422e-12
-5.98793e-11
-2.58785e-12
-6.4217e-11
-3.05672e-12
-6.84142e-11
-3.57212e-12
-7.24705e-11
-4.1353e-12
-7.63857e-11
-4.74745e-12
-8.01592e-11
-5.40973e-12
-8.37908e-11
-6.12329e-12
-8.72801e-11
-6.88926e-12
-9.06267e-11
-7.70873e-12
-9.38303e-11
-8.58283e-12
-9.68905e-11
-9.51267e-12
-9.98069e-11
-1.04994e-11
-1.02579e-10
-1.1544e-11
-1.05207e-10
-1.26478e-11
-1.0769e-10
-1.38119e-11
-1.10028e-10
-1.50374e-11
-1.1222e-10
-1.63255e-11
-1.14267e-10
-1.76774e-11
-1.16167e-10
-1.90943e-11
-1.17921e-10
-2.05772e-11
-1.19527e-10
-2.21274e-11
-1.20987e-10
-2.3746e-11
-1.22298e-10
-2.5434e-11
-1.23462e-10
-2.71925e-11
-1.24477e-10
-2.90227e-11
-1.25344e-10
-3.09254e-11
-1.26061e-10
-3.29001e-11
-1.2663e-10
-3.49434e-11
-1.27051e-10
-4.00974e-11
-1.2733e-10
-4.22989e-11
-1.2749e-10
-4.45022e-11
-1.27556e-10
-4.671e-11
-1.27607e-10
-4.89366e-11
-1.27642e-10
-5.13142e-11
-1.27531e-10
-5.38528e-11
-1.27178e-10
-5.63728e-11
-1.26702e-10
-5.88406e-11
-1.26129e-10
-1.25467e-10
-6.12484e-11
-1.17732e-14
-2.9826e-12
-5.69705e-14
-8.80732e-12
-1.39284e-13
-1.44936e-11
-2.59458e-13
-2.00421e-11
-4.18338e-13
-2.54523e-11
-6.16837e-13
-3.0724e-11
-8.55917e-13
-3.58566e-11
-1.13657e-12
-4.08499e-11
-1.4598e-12
-4.57035e-11
-1.82665e-12
-5.04169e-11
-2.23814e-12
-5.49899e-11
-2.69532e-12
-5.94221e-11
-3.19923e-12
-6.37131e-11
-3.75093e-12
-6.78625e-11
-4.35146e-12
-7.187e-11
-5.00187e-12
-7.57352e-11
-5.70321e-12
-7.94579e-11
-6.45655e-12
-8.30375e-11
-7.26293e-12
-8.64737e-11
-8.1234e-12
-8.97662e-11
-9.03905e-12
-9.29146e-11
-1.00109e-11
-9.59186e-11
-1.10401e-11
-9.87777e-11
-1.21277e-11
-1.01492e-10
-1.32748e-11
-1.0406e-10
-1.44825e-11
-1.06482e-10
-1.5752e-11
-1.08759e-10
-1.70844e-11
-1.10888e-10
-1.84808e-11
-1.1287e-10
-1.99425e-11
-1.14705e-10
-2.14707e-11
-1.16392e-10
-2.30666e-11
-1.17931e-10
-2.47315e-11
-1.19322e-10
-2.64667e-11
-1.20563e-10
-2.82736e-11
-1.21655e-10
-3.01534e-11
-1.22597e-10
-3.21074e-11
-1.2339e-10
-3.41377e-11
-1.2403e-10
-3.62493e-11
-1.24518e-10
-3.86778e-11
-1.24853e-10
-4.30253e-11
-1.25073e-10
-4.53476e-11
-1.25168e-10
-4.7696e-11
-1.25208e-10
-5.00581e-11
-1.25245e-10
-5.2448e-11
-1.25252e-10
-5.48944e-11
-1.25085e-10
-5.73404e-11
-1.24732e-10
-5.97631e-11
-1.24279e-10
-6.21569e-11
-1.23735e-10
-1.23109e-10
-6.45147e-11
-1.74753e-14
-2.96512e-12
-6.6914e-14
-8.75788e-12
-1.4862e-13
-1.44119e-11
-2.6443e-13
-1.99263e-11
-4.16067e-13
-2.53007e-11
-6.0516e-13
-3.05349e-11
-8.33272e-13
-3.56285e-11
-1.1019e-12
-4.05813e-11
-1.41249e-12
-4.53929e-11
-1.76642e-12
-5.0063e-11
-2.16505e-12
-5.45913e-11
-2.60969e-12
-5.89774e-11
-3.1016e-12
-6.32211e-11
-3.64203e-12
-6.73221e-11
-4.23218e-12
-7.12798e-11
-4.87326e-12
-7.50942e-11
-5.5664e-12
-7.87647e-11
-6.31277e-12
-8.22911e-11
-7.11349e-12
-8.5673e-11
-7.96965e-12
-8.89101e-11
-8.88235e-12
-9.20019e-11
-9.85267e-12
-9.49483e-11
-1.08817e-11
-9.77487e-11
-1.19704e-11
-1.00403e-10
-1.31198e-11
-1.02911e-10
-1.4331e-11
-1.05271e-10
-1.5605e-11
-1.07485e-10
-1.69427e-11
-1.0955e-10
-1.83452e-11
-1.11468e-10
-1.98133e-11
-1.13237e-10
-2.13479e-11
-1.14858e-10
-2.29501e-11
-1.16329e-10
-2.46205e-11
-1.17651e-10
-2.63602e-11
-1.18823e-10
-2.81698e-11
-1.19845e-10
-3.00504e-11
-1.20717e-10
-3.20028e-11
-1.21437e-10
-3.4026e-11
-1.22007e-10
-3.61141e-11
-1.2243e-10
-4.28908e-11
-1.22709e-10
-4.55264e-11
-1.22861e-10
-4.77818e-11
-1.22912e-10
-5.00386e-11
-1.22951e-10
-5.23001e-11
-1.22984e-10
-5.46056e-11
-1.22947e-10
-5.69554e-11
-1.22735e-10
-5.92858e-11
-1.22402e-10
-6.15878e-11
-1.21977e-10
-6.38571e-11
-1.21466e-10
-1.20876e-10
-6.60904e-11
-1.90012e-14
-2.94612e-12
-7.91756e-14
-8.69771e-12
-1.8203e-13
-1.4309e-11
-3.2827e-13
-1.978e-11
-5.18633e-13
-2.51103e-11
-7.53876e-13
-3.02996e-11
-1.03478e-12
-3.53476e-11
-1.36214e-12
-4.02539e-11
-1.73676e-12
-4.50183e-11
-2.15947e-12
-4.96403e-11
-2.63111e-12
-5.41196e-11
-3.15251e-12
-5.8456e-11
-3.7245e-12
-6.26491e-11
-4.34795e-12
-6.66986e-11
-5.02369e-12
-7.06041e-11
-5.75257e-12
-7.43653e-11
-6.53545e-12
-7.79818e-11
-7.37317e-12
-8.14534e-11
-8.26656e-12
-8.47796e-11
-9.21649e-12
-8.79601e-11
-1.02238e-11
-9.09946e-11
-1.12893e-11
-9.38828e-11
-1.24138e-11
-9.66242e-11
-1.35983e-11
-9.92185e-11
-1.48434e-11
-1.01665e-10
-1.61501e-11
-1.03965e-10
-1.75192e-11
-1.06116e-10
-1.89514e-11
-1.08118e-10
-2.04477e-11
-1.09972e-10
-2.20089e-11
-1.11676e-10
-2.36358e-11
-1.13231e-10
-2.53292e-11
-1.14636e-10
-2.709e-11
-1.1589e-10
-2.8919e-11
-1.16994e-10
-3.08171e-11
-1.17947e-10
-3.27849e-11
-1.18749e-10
-3.48236e-11
-1.19398e-10
-3.69365e-11
-1.19894e-10
-3.92947e-11
-1.20238e-10
-4.40748e-11
-1.20459e-10
-4.63798e-11
-1.20556e-10
-4.86994e-11
-1.20593e-10
-5.10222e-11
-1.20628e-10
-5.33615e-11
-1.20644e-10
-5.57575e-11
-1.20551e-10
-5.81673e-11
-1.20325e-10
-6.05607e-11
-1.20008e-10
-6.29316e-11
-1.19606e-10
-6.52738e-11
-1.19124e-10
-1.18567e-10
-6.75826e-11
-2.22527e-14
-2.92387e-12
-8.88217e-14
-8.63114e-12
-2.00256e-13
-1.41976e-11
-3.57444e-13
-1.96228e-11
-5.61242e-13
-2.49065e-11
-8.12483e-13
-3.00484e-11
-1.11198e-12
-3.50481e-11
-1.46053e-12
-3.99054e-11
-1.85893e-12
-4.46199e-11
-2.30794e-12
-4.91913e-11
-2.80834e-12
-5.36192e-11
-3.36088e-12
-5.79035e-11
-3.96631e-12
-6.20437e-11
-4.62538e-12
-6.60395e-11
-5.33881e-12
-6.98907e-11
-6.10733e-12
-7.35968e-11
-6.93167e-12
-7.71575e-11
-7.81254e-12
-8.05725e-11
-8.75064e-12
-8.38415e-11
-9.74667e-12
-8.69641e-11
-1.08013e-11
-8.994e-11
-1.19153e-11
-9.27688e-11
-1.30893e-11
-9.54502e-11
-1.43239e-11
-9.79839e-11
-1.56198e-11
-1.0037e-10
-1.69776e-11
-1.02607e-10
-1.8398e-11
-1.04695e-10
-1.98816e-11
-1.06634e-10
-2.14291e-11
-1.08424e-10
-2.30408e-11
-1.10064e-10
-2.47176e-11
-1.11554e-10
-2.64597e-11
-1.12894e-10
-2.82679e-11
-1.14082e-10
-3.01425e-11
-1.1512e-10
-3.20843e-11
-1.16006e-10
-3.40935e-11
-1.1674e-10
-3.617e-11
-1.17322e-10
-3.83106e-11
-1.17754e-10
-4.38663e-11
-1.18039e-10
-4.718e-11
-1.18201e-10
-4.94826e-11
-1.18253e-10
-5.17866e-11
-1.18289e-10
-5.40906e-11
-1.18324e-10
-5.64062e-11
-1.18329e-10
-5.87367e-11
-1.1822e-10
-6.10537e-11
-1.18008e-10
-6.33505e-11
-1.17711e-10
-6.56226e-11
-1.17334e-10
-6.78659e-11
-1.1688e-10
-1.16355e-10
-7.00775e-11
-2.52058e-14
-2.89866e-12
-1.01362e-13
-8.55498e-12
-2.28891e-13
-1.40701e-11
-4.08162e-13
-1.94436e-11
-6.39558e-13
-2.46751e-11
-9.23476e-13
-2.97645e-11
-1.26033e-12
-3.47113e-11
-1.65053e-12
-3.95152e-11
-2.09452e-12
-4.41759e-11
-2.59274e-12
-4.8693e-11
-3.14565e-12
-5.30663e-11
-3.7537e-12
-5.72954e-11
-4.41737e-12
-6.138e-11
-5.13712e-12
-6.53198e-11
-5.91343e-12
-6.91144e-11
-6.74679e-12
-7.27634e-11
-7.63767e-12
-7.62666e-11
-8.58656e-12
-7.96236e-11
-9.59394e-12
-8.28341e-11
-1.06603e-11
-8.58977e-11
-1.17861e-11
-8.88141e-11
-1.2972e-11
-9.1583e-11
-1.42182e-11
-9.4204e-11
-1.55254e-11
-9.66767e-11
-1.68939e-11
-9.90009e-11
-1.83244e-11
-1.01176e-10
-1.98173e-11
-1.03202e-10
-2.1373e-11
-1.05079e-10
-2.2992e-11
-1.06805e-10
-2.46749e-11
-1.08381e-10
-2.6422e-11
-1.09807e-10
-2.82338e-11
-1.11082e-10
-3.01109e-11
-1.12205e-10
-3.20536e-11
-1.13177e-10
-3.40625e-11
-1.13997e-10
-3.6138e-11
-1.14664e-10
-3.82812e-11
-1.15179e-10
-4.06548e-11
-1.15542e-10
-4.60435e-11
-1.15772e-10
-4.83654e-11
-1.1588e-10
-5.07021e-11
-1.15917e-10
-5.30377e-11
-1.15953e-10
-5.5376e-11
-1.15986e-10
-5.77359e-11
-1.15969e-10
-6.0099e-11
-1.15857e-10
-6.24456e-11
-1.15662e-10
-6.47707e-11
-1.15386e-10
-6.70698e-11
-1.15035e-10
-6.93389e-11
-1.14611e-10
-1.14119e-10
-7.15754e-11
-2.62574e-14
-2.8724e-12
-1.05744e-13
-8.4755e-12
-2.38962e-13
-1.39368e-11
-4.26301e-13
-1.92562e-11
-6.6814e-13
-2.44333e-11
-9.64848e-13
-2.94678e-11
-1.31679e-12
-3.43593e-11
-1.72432e-12
-3.91076e-11
-2.18779e-12
-4.37124e-11
-2.70756e-12
-4.81733e-11
-3.28398e-12
-5.24899e-11
-3.91739e-12
-5.6662e-11
-4.60813e-12
-6.06893e-11
-5.35656e-12
-6.45714e-11
-6.16302e-12
-6.83079e-11
-7.02785e-12
-7.18986e-11
-7.95139e-12
-7.53431e-11
-8.93399e-12
-7.8641e-11
-9.97598e-12
-8.17921e-11
-1.10777e-11
-8.4796e-11
-1.22395e-11
-8.76523e-11
-1.34617e-11
-9.03608e-11
-1.47447e-11
-9.2921e-11
-1.60887e-11
-9.53327e-11
-1.74942e-11
-9.75955e-11
-1.89615e-11
-9.9709e-11
-2.04908e-11
-1.01673e-10
-2.20827e-11
-1.03487e-10
-2.37374e-11
-1.05151e-10
-2.54552e-11
-1.06664e-10
-2.72365e-11
-1.08026e-10
-2.90817e-11
-1.09237e-10
-3.09912e-11
-1.10296e-10
-3.29652e-11
-1.11203e-10
-3.50041e-11
-1.11958e-10
-3.71083e-11
-1.1256e-10
-3.92784e-11
-1.13009e-10
-4.31745e-11
-1.13306e-10
-4.7416e-11
-1.13489e-10
-4.97462e-11
-1.13549e-10
-5.20794e-11
-1.13583e-10
-5.44118e-11
-1.13621e-10
-5.67416e-11
-1.13656e-10
-5.90747e-11
-1.13636e-10
-6.13974e-11
-1.13534e-10
-6.37036e-11
-1.13355e-10
-6.59895e-11
-1.131e-10
-6.82511e-11
-1.12773e-10
-7.0485e-11
-1.12377e-10
-1.11915e-10
-7.26884e-11
-2.92654e-14
-2.84314e-12
-1.16529e-13
-8.38823e-12
-2.61658e-13
-1.37917e-11
-4.64715e-13
-1.90532e-11
-7.2578e-13
-2.41722e-11
-1.04495e-12
-2.91486e-11
-1.42233e-12
-3.3982e-11
-1.85804e-12
-3.86719e-11
-2.35221e-12
-4.32182e-11
-2.90498e-12
-4.76205e-11
-3.5165e-12
-5.18784e-11
-4.18692e-12
-5.59916e-11
-4.9164e-12
-5.99598e-11
-5.70511e-12
-6.37827e-11
-6.5532e-12
-6.74598e-11
-7.46086e-12
-7.09909e-11
-8.42825e-12
-7.43757e-11
-9.45554e-12
-7.76137e-11
-1.05429e-11
-8.07048e-11
-1.16905e-11
-8.36484e-11
-1.28986e-11
-8.64443e-11
-1.41672e-11
-8.90922e-11
-1.54966e-11
-9.15916e-11
-1.6887e-11
-9.39423e-11
-1.83386e-11
-9.61439e-11
-1.98514e-11
-9.81961e-11
-2.14259e-11
-1.00098e-10
-2.30621e-11
-1.01851e-10
-2.47602e-11
-1.03452e-10
-2.65206e-11
-1.04903e-10
-2.83434e-11
-1.06203e-10
-3.02289e-11
-1.07351e-10
-3.21775e-11
-1.08347e-10
-3.41898e-11
-1.09191e-10
-3.62659e-11
-1.09882e-10
-3.84055e-11
-1.1042e-10
-4.0605e-11
-1.10809e-10
-4.68794e-11
-1.11055e-10
-4.92237e-11
-1.1118e-10
-5.15561e-11
-1.11217e-10
-5.38868e-11
-1.11253e-10
-5.62111e-11
-1.11297e-10
-5.85167e-11
-1.11351e-10
-6.0809e-11
-1.11343e-10
-6.30874e-11
-1.11256e-10
-6.53499e-11
-1.11093e-10
-6.75933e-11
-1.10857e-10
-6.98143e-11
-1.10552e-10
-7.20099e-11
-1.10182e-10
-1.09748e-10
-7.41776e-11
-2.87256e-14
-2.81441e-12
-1.15576e-13
-8.30138e-12
-2.60884e-13
-1.36464e-11
-4.64809e-13
-1.88492e-11
-7.27505e-13
-2.39095e-11
-1.04912e-12
-2.8827e-11
-1.42978e-12
-3.36013e-11
-1.86964e-12
-3.82321e-11
-2.36883e-12
-4.2719e-11
-2.92746e-12
-4.70619e-11
-3.54567e-12
-5.12602e-11
-4.22359e-12
-5.53137e-11
-4.96132e-12
-5.92221e-11
-5.75899e-12
-6.2985e-11
-6.61673e-12
-6.66021e-11
-7.53463e-12
-7.0073e-11
-8.51282e-12
-7.33975e-11
-9.55141e-12
-7.65752e-11
-1.06505e-11
-7.96057e-11
-1.18102e-11
-8.24887e-11
-1.30307e-11
-8.52238e-11
-1.4312e-11
-8.78109e-11
-1.56543e-11
-9.02493e-11
-1.70576e-11
-9.2539e-11
-1.85221e-11
-9.46794e-11
-2.0048e-11
-9.66702e-11
-2.16353e-11
-9.85112e-11
-2.32841e-11
-1.00202e-10
-2.49947e-11
-1.01742e-10
-2.67672e-11
-1.03131e-10
-2.86017e-11
-1.04368e-10
-3.04985e-11
-1.05454e-10
-3.24575e-11
-1.06388e-10
-3.4479e-11
-1.07169e-10
-3.65638e-11
-1.07797e-10
-3.87152e-11
-1.08269e-10
-4.15067e-11
-1.08587e-10
-4.68535e-11
-1.08793e-10
-4.91628e-11
-1.0887e-10
-5.14779e-11
-1.08902e-10
-5.37926e-11
-1.08938e-10
-5.61006e-11
-1.08989e-10
-5.84094e-11
-1.09042e-10
-6.07144e-11
-1.09038e-10
-6.30066e-11
-1.08964e-10
-6.52818e-11
-1.08818e-10
-6.75358e-11
-1.08603e-10
-6.97651e-11
-1.08323e-10
-7.19668e-11
-1.0798e-10
-1.07576e-10
-7.4139e-11
-3.00719e-14
-2.78434e-12
-1.20051e-13
-8.2114e-12
-2.69885e-13
-1.34966e-11
-4.79617e-13
-1.86395e-11
-7.49295e-13
-2.36399e-11
-1.07897e-12
-2.84973e-11
-1.46869e-12
-3.32116e-11
-1.91853e-12
-3.77822e-11
-2.42852e-12
-4.2209e-11
-2.99874e-12
-4.64916e-11
-3.62923e-12
-5.06297e-11
-4.32005e-12
-5.46229e-11
-5.07124e-12
-5.84709e-11
-5.88285e-12
-6.21734e-11
-6.75492e-12
-6.573e-11
-7.68747e-12
-6.91405e-11
-8.68054e-12
-7.24044e-11
-9.73414e-12
-7.55216e-11
-1.08483e-11
-7.84915e-11
-1.20229e-11
-8.1314e-11
-1.32581e-11
-8.39887e-11
-1.45537e-11
-8.65153e-11
-1.59097e-11
-8.88934e-11
-1.73259e-11
-9.11227e-11
-1.88023e-11
-9.3203e-11
-2.03387e-11
-9.51338e-11
-2.19349e-11
-9.6915e-11
-2.35906e-11
-9.85461e-11
-2.53054e-11
-1.00027e-10
-2.70789e-11
-1.01357e-10
-2.89106e-11
-1.02537e-10
-3.07999e-11
-1.03565e-10
-3.27462e-11
-1.04442e-10
-3.47485e-11
-1.05167e-10
-3.68046e-11
-1.05741e-10
-3.89084e-11
-1.06165e-10
-4.63892e-11
-1.06444e-10
-4.962e-11
-1.06597e-10
-5.18477e-11
-1.06642e-10
-5.40699e-11
-1.0668e-10
-5.62816e-11
-1.06726e-10
-5.84603e-11
-1.0681e-10
-6.0623e-11
-1.06879e-10
-6.27832e-11
-1.06878e-10
-6.49374e-11
-1.06809e-10
-6.7081e-11
-1.06674e-10
-6.921e-11
-1.06474e-10
-7.13215e-11
-1.06211e-10
-7.34133e-11
-1.05888e-10
-1.05506e-10
-7.54833e-11
-3.04287e-14
-2.75391e-12
-1.2166e-13
-8.12017e-12
-2.73691e-13
-1.33445e-11
-4.86534e-13
-1.84267e-11
-7.60196e-13
-2.33662e-11
-1.09468e-12
-2.81628e-11
-1.48998e-12
-3.28163e-11
-1.94609e-12
-3.73261e-11
-2.46301e-12
-4.16921e-11
-3.04072e-12
-4.59139e-11
-3.67922e-12
-4.99912e-11
-4.3785e-12
-5.39236e-11
-5.13854e-12
-5.77109e-11
-5.95933e-12
-6.13526e-11
-6.84086e-12
-6.48485e-11
-7.78313e-12
-6.81982e-11
-8.78612e-12
-7.14014e-11
-9.84983e-12
-7.44578e-11
-1.09743e-11
-7.73671e-11
-1.21594e-11
-8.01289e-11
-1.34053e-11
-8.27428e-11
-1.47119e-11
-8.52086e-11
-1.60793e-11
-8.75259e-11
-1.75076e-11
-8.96945e-11
-1.89967e-11
-9.17138e-11
-2.05469e-11
-9.35837e-11
-2.21582e-11
-9.53037e-11
-2.38308e-11
-9.68736e-11
-2.55649e-11
-9.82929e-11
-2.73608e-11
-9.95614e-11
-2.92189e-11
-1.00679e-10
-3.11397e-11
-1.01644e-10
-3.31239e-11
-1.02458e-10
-3.5172e-11
-1.03119e-10
-3.72844e-11
-1.03628e-10
-3.96188e-11
-1.03989e-10
-4.61188e-11
-1.04212e-10
-4.84021e-11
-1.04313e-10
-5.0698e-11
-1.04347e-10
-5.29948e-11
-1.04383e-10
-5.52749e-11
-1.04446e-10
-5.75199e-11
-1.04565e-10
-5.97522e-11
-1.04647e-10
-6.19683e-11
-1.04662e-10
-6.41677e-11
-1.0461e-10
-6.63487e-11
-1.04493e-10
-6.85098e-11
-1.04313e-10
-7.06494e-11
-1.04072e-10
-7.27661e-11
-1.03771e-10
-1.03413e-10
-7.48586e-11
-2.98203e-14
-2.72409e-12
-1.19758e-13
-8.03024e-12
-2.70006e-13
-1.31943e-11
-4.80616e-13
-1.8216e-11
-7.51628e-13
-2.30952e-11
-1.08307e-12
-2.78314e-11
-1.47497e-12
-3.24244e-11
-1.92734e-12
-3.68738e-11
-2.44017e-12
-4.11793e-11
-3.01348e-12
-4.53406e-11
-3.64725e-12
-4.93574e-11
-4.34147e-12
-5.32294e-11
-5.09612e-12
-5.69562e-11
-5.91118e-12
-6.05375e-11
-6.78662e-12
-6.3973e-11
-7.72242e-12
-6.72624e-11
-8.71854e-12
-7.04053e-11
-9.77494e-12
-7.34014e-11
-1.08916e-11
-7.62504e-11
-1.20685e-11
-7.8952e-11
-1.33055e-11
-8.15058e-11
-1.46027e-11
-8.39114e-11
-1.59601e-11
-8.61686e-11
-1.73776e-11
-8.8277e-11
-1.88551e-11
-9.02362e-11
-2.03929e-11
-9.2046e-11
-2.19907e-11
-9.37058e-11
-2.36488e-11
-9.52155e-11
-2.53672e-11
-9.65745e-11
-2.71461e-11
-9.77825e-11
-2.89855e-11
-9.88392e-11
-3.08855e-11
-9.97442e-11
-3.28462e-11
-1.00497e-10
-3.48693e-11
-1.01096e-10
-3.69604e-11
-1.01537e-10
-4.03842e-11
-1.01823e-10
-4.57239e-11
-1.02016e-10
-4.79635e-11
-1.02074e-10
-5.02091e-11
-1.02101e-10
-5.24538e-11
-1.02138e-10
-5.46772e-11
-1.02223e-10
-5.6886e-11
-1.02356e-10
-5.90884e-11
-1.02444e-10
-6.12819e-11
-1.02468e-10
-6.3464e-11
-1.02428e-10
-6.5632e-11
-1.02325e-10
-6.77833e-11
-1.02162e-10
-6.99157e-11
-1.01939e-10
-7.20275e-11
-1.0166e-10
-1.01324e-10
-7.41167e-11
-3.11988e-14
-2.69289e-12
-1.24044e-13
-7.93739e-12
-2.78177e-13
-1.30402e-11
-4.93442e-13
-1.80008e-11
-7.69702e-13
-2.28189e-11
-1.10683e-12
-2.74943e-11
-1.50472e-12
-3.20265e-11
-1.96327e-12
-3.64152e-11
-2.48237e-12
-4.06602e-11
-3.06193e-12
-4.47611e-11
-3.70184e-12
-4.87175e-11
-4.40199e-12
-5.25292e-11
-5.16227e-12
-5.61959e-11
-5.98256e-12
-5.97172e-11
-6.86271e-12
-6.30929e-11
-7.80257e-12
-6.63225e-11
-8.80196e-12
-6.94059e-11
-9.86067e-12
-7.23427e-11
-1.09785e-11
-7.51326e-11
-1.21551e-11
-7.77754e-11
-1.33902e-11
-8.02706e-11
-1.46835e-11
-8.26181e-11
-1.60345e-11
-8.48176e-11
-1.74427e-11
-8.68688e-11
-1.89075e-11
-8.87714e-11
-2.04283e-11
-9.05251e-11
-2.20043e-11
-9.21299e-11
-2.36345e-11
-9.35852e-11
-2.53178e-11
-9.48912e-11
-2.70529e-11
-9.60474e-11
-2.88383e-11
-9.70538e-11
-3.06726e-11
-9.79099e-11
-3.25537e-11
-9.86158e-11
-3.44769e-11
-9.91726e-11
-3.64301e-11
-9.95841e-11
-4.74969e-11
-9.98554e-11
-4.97119e-11
-9.9986e-11
-5.17588e-11
-1.00027e-10
-5.3793e-11
-1.00067e-10
-5.58064e-11
-1.00125e-10
-5.77629e-11
-1.00266e-10
-5.97118e-11
-1.00407e-10
-6.16704e-11
-1.00486e-10
-6.36357e-11
-1.00503e-10
-6.56036e-11
-1.0046e-10
-6.75706e-11
-1.00358e-10
-6.95336e-11
-1.00199e-10
-7.14899e-11
-9.9983e-11
-7.3437e-11
-9.97125e-11
-9.93881e-11
-7.53727e-11
-2.95991e-14
-2.6633e-12
-1.18817e-13
-7.84817e-12
-2.67832e-13
-1.28911e-11
-4.7669e-13
-1.77919e-11
-7.45411e-13
-2.25502e-11
-1.074e-12
-2.71657e-11
-1.46243e-12
-3.1638e-11
-1.91068e-12
-3.5967e-11
-2.41871e-12
-4.01522e-11
-2.98645e-12
-4.41933e-11
-3.61385e-12
-4.80901e-11
-4.30082e-12
-5.18423e-11
-5.04729e-12
-5.54494e-11
-5.85318e-12
-5.89113e-11
-6.71839e-12
-6.22277e-11
-7.64284e-12
-6.53981e-11
-8.62644e-12
-6.84223e-11
-9.6691e-12
-7.13001e-11
-1.07707e-11
-7.4031e-11
-1.19313e-11
-7.66148e-11
-1.31507e-11
-7.90512e-11
-1.44289e-11
-8.13399e-11
-1.57659e-11
-8.34806e-11
-1.71617e-11
-8.5473e-11
-1.86164e-11
-8.73167e-11
-2.013e-11
-8.90115e-11
-2.17027e-11
-9.05571e-11
-2.33348e-11
-9.19532e-11
-2.50265e-11
-9.31995e-11
-2.67783e-11
-9.42956e-11
-2.85908e-11
-9.52413e-11
-3.04647e-11
-9.6036e-11
-3.24007e-11
-9.66798e-11
-3.44001e-11
-9.71732e-11
-3.66279e-11
-9.75196e-11
-4.3608e-11
-9.77313e-11
-4.57741e-11
-9.78199e-11
-4.79499e-11
-9.78513e-11
-5.01274e-11
-9.7889e-11
-5.22788e-11
-9.79735e-11
-5.43997e-11
-9.81453e-11
-5.65197e-11
-9.82875e-11
-5.86338e-11
-9.83717e-11
-6.07408e-11
-9.83961e-11
-6.28389e-11
-9.83619e-11
-6.49261e-11
-9.82709e-11
-6.70003e-11
-9.81243e-11
-6.90599e-11
-9.79234e-11
-7.11031e-11
-9.76692e-11
-9.73629e-11
-7.31283e-11
-2.95261e-14
-2.63377e-12
-1.18247e-13
-7.75945e-12
-2.66222e-13
-1.27432e-11
-4.73462e-13
-1.75847e-11
-7.39965e-13
-2.22837e-11
-1.06572e-12
-2.68399e-11
-1.4507e-12
-3.12531e-11
-1.89487e-12
-3.55228e-11
-2.39819e-12
-3.96488e-11
-2.96062e-12
-4.36309e-11
-3.5821e-12
-4.74686e-11
-4.26256e-12
-5.11618e-11
-5.00194e-12
-5.47101e-11
-5.80018e-12
-5.81131e-11
-6.6572e-12
-6.13706e-11
-7.57294e-12
-6.44824e-11
-8.54731e-12
-6.7448e-11
-9.58026e-12
-7.02671e-11
-1.06717e-11
-7.29395e-11
-1.18217e-11
-7.54649e-11
-1.303e-11
-7.78429e-11
-1.42968e-11
-8.00732e-11
-1.5622e-11
-8.21554e-11
-1.70056e-11
-8.40894e-11
-1.84476e-11
-8.58746e-11
-1.99483e-11
-8.75108e-11
-2.15078e-11
-8.89977e-11
-2.31262e-11
-9.03348e-11
-2.48039e-11
-9.15218e-11
-2.65412e-11
-9.25582e-11
-2.83385e-11
-9.3444e-11
-3.01961e-11
-9.41784e-11
-3.21163e-11
-9.47596e-11
-3.41056e-11
-9.51839e-11
-3.78286e-11
-9.54533e-11
-4.34646e-11
-9.56357e-11
-4.56013e-11
-9.56831e-11
-4.77459e-11
-9.57067e-11
-4.98884e-11
-9.57465e-11
-5.19939e-11
-9.5868e-11
-5.40778e-11
-9.60613e-11
-5.61553e-11
-9.621e-11
-5.8227e-11
-9.63e-11
-6.02918e-11
-9.63313e-11
-6.23482e-11
-9.63055e-11
-6.43946e-11
-9.62245e-11
-6.64294e-11
-9.60896e-11
-6.8451e-11
-9.59017e-11
-7.04581e-11
-9.56622e-11
-9.53721e-11
-7.24489e-11
-3.03806e-14
-1.20863e-13
-2.711e-13
-4.809e-13
-7.50088e-13
-1.0785e-12
-1.46598e-12
-1.91237e-12
-2.41752e-12
-2.98127e-12
-3.60346e-12
-4.28391e-12
-5.02243e-12
-5.81882e-12
-6.67284e-12
-7.58425e-12
-8.55276e-12
-9.57805e-12
-1.06598e-11
-1.17975e-11
-1.29907e-11
-1.42389e-11
-1.55415e-11
-1.68977e-11
-1.83068e-11
-1.97676e-11
-2.12792e-11
-2.28401e-11
-2.44488e-11
-2.61036e-11
-2.78028e-11
-2.9544e-11
-3.13219e-11
-3.31232e-11
-4.54518e-11
-4.74473e-11
-4.93302e-11
-5.1199e-11
-5.30411e-11
-5.48226e-11
-5.66127e-11
-5.8423e-11
-6.02497e-11
-6.20886e-11
-6.39359e-11
-6.57885e-11
-6.76435e-11
-6.9498e-11
-7.13495e-11
-7.31957e-11
-8.31445e-11
-1.33303e-10
-8.42103e-11
-1.32089e-10
-8.51326e-11
-1.30822e-10
-8.59296e-11
-1.29502e-10
-8.66172e-11
-1.28132e-10
-8.7209e-11
-1.26713e-10
-8.77163e-11
-1.25248e-10
-8.81485e-11
-1.23739e-10
-8.85134e-11
-1.22189e-10
-8.88178e-11
-1.206e-10
-8.9067e-11
-1.18976e-10
-8.92658e-11
-1.1732e-10
-8.94179e-11
-1.15633e-10
-8.95268e-11
-1.13919e-10
-8.95953e-11
-1.12181e-10
-8.96258e-11
-1.10421e-10
-8.96206e-11
-1.08642e-10
-8.95814e-11
-1.06848e-10
-8.95101e-11
-1.05039e-10
-8.9408e-11
-1.0322e-10
-8.92767e-11
-1.01391e-10
-8.91173e-11
-9.95564e-11
-8.89311e-11
-9.77174e-11
-8.87193e-11
-9.58764e-11
-8.84828e-11
-9.40355e-11
-8.82227e-11
-9.21966e-11
-8.794e-11
-9.03616e-11
-8.76356e-11
-8.85324e-11
-8.73104e-11
-8.67107e-11
-8.69654e-11
-8.48981e-11
-8.66013e-11
-8.30962e-11
-8.6219e-11
-8.13065e-11
-8.58194e-11
-7.95302e-11
-8.54033e-11
-7.77688e-11
-8.49714e-11
-7.60234e-11
-8.45245e-11
-7.42951e-11
-8.40635e-11
-7.25851e-11
-8.3589e-11
-7.08942e-11
-8.31018e-11
-6.92235e-11
-8.26027e-11
-6.75736e-11
-8.20922e-11
-6.59455e-11
-8.15712e-11
-6.43398e-11
-8.10404e-11
-6.27571e-11
-8.05004e-11
-6.1198e-11
-7.99518e-11
-5.96631e-11
-7.93953e-11
-5.81528e-11
-7.88316e-11
-5.66675e-11
-7.82614e-11
-5.52076e-11
-7.76851e-11
-5.37733e-11
-5.23634e-11
-7.71068e-11
-8.98355e-11
-1.31641e-10
-9.13347e-11
-1.3059e-10
-9.2689e-11
-1.29467e-10
-9.39137e-11
-1.28277e-10
-9.50215e-11
-1.27024e-10
-9.60229e-11
-1.25712e-10
-9.6927e-11
-1.24344e-10
-9.77417e-11
-1.22924e-10
-9.84736e-11
-1.21457e-10
-9.91284e-11
-1.19946e-10
-9.97112e-11
-1.18394e-10
-1.00226e-10
-1.16804e-10
-1.00677e-10
-1.15182e-10
-1.01068e-10
-1.13528e-10
-1.01401e-10
-1.11848e-10
-1.01679e-10
-1.10143e-10
-1.01905e-10
-1.08417e-10
-1.02081e-10
-1.06672e-10
-1.02208e-10
-1.04911e-10
-1.0229e-10
-1.03138e-10
-1.02328e-10
-1.01354e-10
-1.02323e-10
-9.95612e-11
-1.02277e-10
-9.77629e-11
-1.02193e-10
-9.5961e-11
-1.02071e-10
-9.41576e-11
-1.01913e-10
-9.23547e-11
-1.0172e-10
-9.05543e-11
-1.01494e-10
-8.87583e-11
-1.01236e-10
-8.69684e-11
-1.00948e-10
-8.51862e-11
-1.00631e-10
-8.34135e-11
-1.00286e-10
-8.16516e-11
-9.99143e-11
-7.99019e-11
-9.95172e-11
-7.81659e-11
-9.90959e-11
-7.64446e-11
-9.86516e-11
-7.47394e-11
-9.81854e-11
-7.30513e-11
-9.76984e-11
-7.13812e-11
-9.71918e-11
-6.97301e-11
-9.66665e-11
-6.80989e-11
-9.61236e-11
-6.64884e-11
-9.55642e-11
-6.48992e-11
-9.49893e-11
-6.3332e-11
-9.43998e-11
-6.17875e-11
-9.37966e-11
-6.02662e-11
-9.31809e-11
-5.87686e-11
-9.25533e-11
-5.72951e-11
-9.19149e-11
-5.5846e-11
-9.12666e-11
-5.44217e-11
-5.30228e-11
-9.06072e-11
-6.49017e-11
-1.29368e-10
-6.70977e-11
-1.28394e-10
-6.92131e-11
-1.27352e-10
-7.12457e-11
-1.26245e-10
-7.31941e-11
-1.25076e-10
-7.50577e-11
-1.23848e-10
-7.68366e-11
-1.22565e-10
-7.85312e-11
-1.2123e-10
-8.01424e-11
-1.19846e-10
-8.16713e-11
-1.18417e-10
-8.31195e-11
-1.16945e-10
-8.44884e-11
-1.15436e-10
-8.57798e-11
-1.1389e-10
-8.69956e-11
-1.12313e-10
-8.81377e-11
-1.10706e-10
-8.9208e-11
-1.09073e-10
-9.02086e-11
-1.07416e-10
-9.11415e-11
-1.05739e-10
-9.20087e-11
-1.04044e-10
-9.28123e-11
-1.02334e-10
-9.35542e-11
-1.00612e-10
-9.42364e-11
-9.8879e-11
-9.48609e-11
-9.71384e-11
-9.54297e-11
-9.53922e-11
-9.59445e-11
-9.36427e-11
-9.64073e-11
-9.18919e-11
-9.68199e-11
-9.01417e-11
-9.7184e-11
-8.83942e-11
-9.75014e-11
-8.6651e-11
-9.77738e-11
-8.49139e-11
-9.80027e-11
-8.31845e-11
-9.81899e-11
-8.14644e-11
-9.83368e-11
-7.9755e-11
-9.8445e-11
-7.80577e-11
-9.85159e-11
-7.63737e-11
-9.85511e-11
-7.47043e-11
-9.85518e-11
-7.30505e-11
-9.85195e-11
-7.14135e-11
-9.84554e-11
-6.97942e-11
-9.83608e-11
-6.81935e-11
-9.8237e-11
-6.66122e-11
-9.80851e-11
-6.50511e-11
-9.79064e-11
-6.35108e-11
-9.77018e-11
-6.19921e-11
-9.74726e-11
-6.04955e-11
-9.72197e-11
-5.90215e-11
-9.69442e-11
-5.75706e-11
-9.66471e-11
-5.61431e-11
-9.63292e-11
-5.47395e-11
-5.33597e-11
-9.59923e-11
-7.1114e-11
-1.27068e-10
-7.33222e-11
-1.26186e-10
-7.54419e-11
-1.25232e-10
-7.74762e-11
-1.2421e-10
-7.94275e-11
-1.23124e-10
-8.12979e-11