/*--------------------------------*- C++ -*----------------------------------*\
| =========                 |                                                 |
| \\      /  F ield         | OpenFOAM: The Open Source CFD Toolbox           |
|  \\    /   O peration     | Version:  2.4.0                                 |
|   \\  /    A nd           | Web:      www.OpenFOAM.org                      |
|    \\/     M anipulation  |                                                 |
\*---------------------------------------------------------------------------*/
FoamFile
{
    version     2.0;
    format      ascii;
    class       volScalarField;
    location    "4.1";
    object      H;
}
// * * * * * * * * * * * * * * * * * * * * * * * * * * * * * * * * * * * * * //

dimensions      [0 2 -2 0 0 0 0];

internalField   nonuniform List<scalar> 
500
(
-11994.7
-11994.7
-11994.7
-11994.7
-11994.7
-11521.5
-11521.5
-11521.5
-11521.5
-11521.5
-11043
-11043
-11042.9
-11043
-11043
-10559.1
-10559.1
-10559
-10559.1
-10559.1
-10069.8
-10069.7
-10069.6
-10069.7
-10069.8
-9574.8
-9574.68
-9574.55
-9574.68
-9574.8
-9074.18
-9074.03
-9073.88
-9074.04
-9074.18
-8567.8
-8567.63
-8567.46
-8567.64
-8567.8
-8055.57
-8055.37
-8055.17
-8055.38
-8055.57
-7537.39
-7537.16
-7536.94
-7537.17
-7537.39
-7013.16
-7012.9
-7012.64
-7012.91
-7013.16
-6482.77
-6482.47
-6482.19
-6482.49
-6482.77
-5946.11
-5945.78
-5945.47
-5945.8
-5946.11
-5403.08
-5402.72
-5402.36
-5402.73
-5403.08
-4853.57
-4853.16
-4852.77
-4853.18
-4853.57
-4297.45
-4297
-4296.57
-4297.02
-4297.45
-3734.62
-3734.11
-3733.64
-3734.14
-3734.61
-3164.94
-3164.38
-3163.86
-3164.41
-3164.94
-2588.3
-2587.68
-2587.11
-2587.71
-2588.3
-2004.57
-2003.88
-2003.26
-2003.91
-2004.56
-1413.62
-1412.85
-1412.17
-1412.89
-1413.61
-815.316
-814.47
-813.723
-814.515
-815.308
-23.6865
-23.5765
-23.4831
-23.5824
-23.6855
-17.7812
-17.6987
-17.6288
-17.7031
-17.7805
-17.9011
-17.8201
-17.7517
-17.8243
-17.9004
-18.0163
-17.9367
-17.8698
-17.9409
-18.0156
-18.1264
-18.0484
-17.9829
-18.0524
-18.1258
-18.2314
-18.1548
-18.0908
-18.1587
-18.2308
-18.3309
-18.2558
-18.1932
-18.2596
-18.3303
-18.4247
-18.351
-18.2899
-18.3547
-18.4242
-18.5125
-18.4404
-18.3807
-18.4439
-18.5121
-18.5942
-18.5235
-18.4652
-18.527
-18.5938
-18.6694
-18.6002
-18.5433
-18.6036
-18.669
-18.738
-18.6702
-18.6147
-18.6735
-18.7376
-18.7996
-18.7333
-18.6791
-18.7364
-18.7992
-18.854
-18.7891
-18.7363
-18.7921
-18.8537
-18.9009
-18.8374
-18.7859
-18.8404
-18.9006
-18.9401
-18.8781
-18.8279
-18.8809
-18.9398
-18.9713
-18.9107
-18.8618
-18.9135
-18.9711
-18.9943
-18.9351
-18.8875
-18.9378
-18.9941
-19.0087
-18.951
-18.9046
-18.9536
-19.0086
-19.0144
-18.9581
-18.913
-18.9606
-19.0143
-19.0111
-18.9562
-18.9123
-18.9586
-19.011
-18.9985
-18.945
-18.9023
-18.9473
-18.9984
-18.9764
-18.9242
-18.8827
-18.9264
-18.9763
-18.9445
-18.8937
-18.8533
-18.8958
-18.9444
-18.9025
-18.8531
-18.8139
-18.8552
-18.9025
-18.8503
-18.8022
-18.7642
-18.8042
-18.8503
-18.7876
-18.7408
-18.7039
-18.7427
-18.7876
-18.7141
-18.6687
-18.6329
-18.6705
-18.7141
-18.6296
-18.5855
-18.5508
-18.5873
-18.6297
-18.534
-18.4912
-18.4576
-18.4929
-18.534
-18.4269
-18.3854
-18.3529
-18.3871
-18.427
-18.3083
-18.268
-18.2365
-18.2696
-18.3083
-18.1778
-18.1388
-18.1084
-18.1403
-18.1779
-18.0353
-17.9976
-17.9682
-17.999
-18.0354
-17.8807
-17.8442
-17.8158
-17.8456
-17.8808
-17.7137
-17.6784
-17.651
-17.6798
-17.7138
-17.5342
-17.5002
-17.4737
-17.5015
-17.5344
-17.3422
-17.3093
-17.2838
-17.3105
-17.3423
-17.1373
-17.1057
-17.0811
-17.1069
-17.1375
-16.9197
-16.8892
-16.8655
-16.8903
-16.9198
-16.689
-16.6597
-16.6369
-16.6608
-16.6892
-16.4454
-16.4172
-16.3953
-16.4182
-16.4456
-16.1887
-16.1616
-16.1406
-16.1626
-16.1889
-15.9189
-15.8928
-15.8727
-15.8938
-15.919
-15.6359
-15.6109
-15.5917
-15.6118
-15.6361
-15.3398
-15.3159
-15.2974
-15.3167
-15.3399
-15.0305
-15.0077
-14.99
-15.0085
-15.0307
-14.7082
-14.6864
-14.6695
-14.6872
-14.7084
-14.3729
-14.3521
-14.336
-14.3528
-14.3731
-14.0247
-14.0049
-13.9895
-14.0056
-14.0249
-13.6637
-13.6448
-13.6302
-13.6455
-13.6639
-13.29
-13.272
-13.2582
-13.2727
-13.2902
-12.9038
-12.8868
-12.8736
-12.8874
-12.904
-12.5053
-12.4892
-12.4767
-12.4897
-12.5055
-12.0947
-12.0795
-12.0677
-12.08
-12.0949
-11.6723
-11.6579
-11.6468
-11.6584
-11.6725
-11.2383
-11.2248
-11.2143
-11.2253
-11.2385
-10.7931
-10.7804
-10.7705
-10.7808
-10.7933
-10.337
-10.3251
-10.3158
-10.3255
-10.3372
-9.87033
-9.85916
-9.85046
-9.85954
-9.87047
-9.39351
-9.38309
-9.37497
-9.38345
-9.39365
-8.90698
-8.89729
-8.88973
-8.89762
-8.90711
-8.41119
-8.40221
-8.3952
-8.40252
-8.41132
-7.90665
-7.89837
-7.89188
-7.89865
-7.90677
-7.39388
-7.38627
-7.38031
-7.38653
-7.394
-6.87345
-6.86649
-6.86103
-6.86673
-6.87355
-6.34594
-6.33961
-6.33465
-6.33983
-6.34604
-5.81198
-5.80628
-5.80179
-5.80647
-5.81207
-5.27224
-5.26714
-5.26313
-5.26732
-5.27232
-4.72741
-4.7229
-4.71934
-4.72305
-4.72749
-4.17822
-4.17428
-4.17117
-4.17442
-4.17829
-3.62544
-3.62205
-3.61938
-3.62217
-3.62549
-3.06984
-3.067
-3.06476
-3.0671
-3.06989
-2.51228
-2.50997
-2.50815
-2.51005
-2.51232
-1.9536
-1.95182
-1.95041
-1.95188
-1.95363
-1.39471
-1.39344
-1.39244
-1.39349
-1.39473
-0.836526
-0.835771
-0.835173
-0.835797
-0.836539
-0.280014
-0.279762
-0.279562
-0.27977
-0.280019
)
;

boundaryField
{
    BotWall
    {
        type            zeroGradient;
    }
    FreeStream
    {
        type            zeroGradient;
    }
    FrontNBack
    {
        type            empty;
    }
    LeftSide
    {
        type            symmetryPlane;
    }
    RightSide
    {
        type            symmetryPlane;
    }
}


// ************************************************************************* //
