/*--------------------------------*- C++ -*----------------------------------*\
| =========                 |                                                 |
| \\      /  F ield         | OpenFOAM: The Open Source CFD Toolbox           |
|  \\    /   O peration     | Version:  2.4.0                                 |
|   \\  /    A nd           | Web:      www.OpenFOAM.org                      |
|    \\/     M anipulation  |                                                 |
\*---------------------------------------------------------------------------*/
FoamFile
{
    version     2.0;
    format      ascii;
    class       volScalarField;
    location    "4.1";
    object      p;
}
// * * * * * * * * * * * * * * * * * * * * * * * * * * * * * * * * * * * * * //

dimensions      [1 -1 -2 0 0 0 0];

internalField   nonuniform List<scalar> 
500
(
0.722245
0.723111
0.722383
0.723212
0.722245
0.692416
0.693287
0.692563
0.693386
0.692415
0.662278
0.663156
0.662437
0.663254
0.662277
0.631789
0.632674
0.631961
0.632771
0.631788
0.600977
0.60187
0.601163
0.601966
0.600976
0.569804
0.570704
0.570004
0.570799
0.569803
0.538301
0.539209
0.538515
0.539304
0.5383
0.506428
0.507343
0.506656
0.507438
0.506427
0.474216
0.475141
0.47446
0.475234
0.474216
0.441619
0.442551
0.441877
0.442644
0.441618
0.408679
0.40962
0.408952
0.409712
0.408678
0.375396
0.376346
0.375686
0.376438
0.375396
0.34192
0.34288
0.342227
0.34297
0.34192
0.308066
0.309036
0.30839
0.309126
0.308066
0.272617
0.273595
0.272952
0.273684
0.272616
0.232897
0.233865
0.233218
0.233954
0.232897
0.19226
0.193208
0.192541
0.193299
0.192259
0.182863
0.183891
0.183275
0.184015
0.182863
0.270354
0.271897
0.271596
0.27194
0.270359
0.370036
0.372407
0.373224
0.372468
0.370049
-0.344256
-0.343115
-0.343652
-0.343185
-0.344228
-3.46568
-3.47539
-3.48391
-3.47485
-3.46576
-7.09348
-7.12192
-7.1463
-7.12034
-7.09376
-0.0172986
-0.017297
-0.0172958
-0.0172971
-0.0172986
-0.0124544
-0.0124556
-0.0124564
-0.0124555
-0.0124544
-0.0139432
-0.0139433
-0.0139434
-0.0139433
-0.0139432
-0.0150346
-0.0150345
-0.0150344
-0.0150345
-0.0150346
-0.0157546
-0.0157545
-0.0157545
-0.0157545
-0.0157546
-0.0163903
-0.0163903
-0.0163903
-0.0163903
-0.0163903
-0.0170471
-0.0170471
-0.0170471
-0.0170471
-0.0170471
-0.0177261
-0.017726
-0.017726
-0.017726
-0.0177261
-0.018416
-0.018416
-0.018416
-0.018416
-0.018416
-0.0191131
-0.019113
-0.019113
-0.019113
-0.0191131
-0.0198173
-0.0198173
-0.0198173
-0.0198173
-0.0198173
-0.0205293
-0.0205293
-0.0205293
-0.0205293
-0.0205293
-0.0212493
-0.0212492
-0.0212492
-0.0212492
-0.0212493
-0.0219773
-0.0219772
-0.0219772
-0.0219772
-0.0219773
-0.0227134
-0.0227134
-0.0227134
-0.0227134
-0.0227134
-0.0234577
-0.0234577
-0.0234577
-0.0234577
-0.0234577
-0.0242104
-0.0242104
-0.0242104
-0.0242104
-0.0242104
-0.0249715
-0.0249714
-0.0249714
-0.0249714
-0.0249715
-0.025741
-0.025741
-0.025741
-0.025741
-0.025741
-0.0265191
-0.0265191
-0.0265191
-0.0265191
-0.0265191
-0.027306
-0.0273059
-0.0273059
-0.0273059
-0.027306
-0.0281016
-0.0281015
-0.0281015
-0.0281015
-0.0281016
-0.028906
-0.028906
-0.028906
-0.028906
-0.028906
-0.0297195
-0.0297195
-0.0297195
-0.0297195
-0.0297195
-0.030542
-0.030542
-0.030542
-0.030542
-0.030542
-0.0313737
-0.0313737
-0.0313737
-0.0313737
-0.0313737
-0.0322147
-0.0322147
-0.0322147
-0.0322147
-0.0322147
-0.0330651
-0.0330651
-0.0330651
-0.0330651
-0.0330651
-0.0339249
-0.0339249
-0.0339249
-0.0339249
-0.0339249
-0.0347944
-0.0347944
-0.0347944
-0.0347944
-0.0347944
-0.0356736
-0.0356735
-0.0356735
-0.0356735
-0.0356736
-0.0365625
-0.0365625
-0.0365625
-0.0365625
-0.0365625
-0.0374614
-0.0374614
-0.0374614
-0.0374614
-0.0374614
-0.0383703
-0.0383703
-0.0383703
-0.0383703
-0.0383703
-0.0392894
-0.0392894
-0.0392894
-0.0392894
-0.0392894
-0.0402187
-0.0402187
-0.0402187
-0.0402187
-0.0402187
-0.0411584
-0.0411584
-0.0411584
-0.0411584
-0.0411584
-0.0421086
-0.0421086
-0.0421086
-0.0421086
-0.0421086
-0.0430694
-0.0430694
-0.0430694
-0.0430694
-0.0430694
-0.0440409
-0.0440409
-0.0440409
-0.0440409
-0.0440409
-0.0450232
-0.0450232
-0.0450232
-0.0450232
-0.0450232
-0.0460165
-0.0460165
-0.0460165
-0.0460165
-0.0460165
-0.0470209
-0.0470209
-0.0470209
-0.0470209
-0.0470209
-0.0480365
-0.0480365
-0.0480365
-0.0480365
-0.0480365
-0.0490634
-0.0490634
-0.0490634
-0.0490634
-0.0490634
-0.0501018
-0.0501018
-0.0501018
-0.0501018
-0.0501018
-0.0511518
-0.0511518
-0.0511518
-0.0511518
-0.0511518
-0.0522135
-0.0522135
-0.0522135
-0.0522135
-0.0522135
-0.053287
-0.053287
-0.053287
-0.053287
-0.053287
-0.0543725
-0.0543725
-0.0543725
-0.0543725
-0.0543725
-0.0554701
-0.0554701
-0.0554701
-0.0554701
-0.0554701
-0.05658
-0.05658
-0.05658
-0.05658
-0.05658
-0.0577023
-0.0577023
-0.0577023
-0.0577023
-0.0577023
-0.0588371
-0.0588371
-0.0588371
-0.0588371
-0.0588371
-0.0599845
-0.0599845
-0.0599845
-0.0599845
-0.0599845
-0.0611448
-0.0611448
-0.0611448
-0.0611448
-0.0611448
-0.062318
-0.062318
-0.062318
-0.062318
-0.062318
-0.0635043
-0.0635043
-0.0635043
-0.0635043
-0.0635043
-0.0647038
-0.0647038
-0.0647038
-0.0647038
-0.0647038
-0.0659167
-0.0659167
-0.0659167
-0.0659167
-0.0659167
-0.0671432
-0.0671432
-0.0671432
-0.0671432
-0.0671432
-0.0683833
-0.0683833
-0.0683833
-0.0683833
-0.0683833
-0.0696373
-0.0696373
-0.0696373
-0.0696373
-0.0696373
-0.0709053
-0.0709053
-0.0709052
-0.0709053
-0.0709053
-0.0721874
-0.0721874
-0.0721874
-0.0721874
-0.0721874
-0.0734838
-0.0734838
-0.0734838
-0.0734838
-0.0734838
-0.0747947
-0.0747947
-0.0747947
-0.0747947
-0.0747947
-0.0761202
-0.0761202
-0.0761202
-0.0761202
-0.0761202
-0.0774605
-0.0774605
-0.0774605
-0.0774605
-0.0774605
-0.0788158
-0.0788158
-0.0788158
-0.0788158
-0.0788158
-0.0801862
-0.0801862
-0.0801862
-0.0801862
-0.0801862
-0.0815719
-0.0815719
-0.0815719
-0.0815719
-0.0815719
-0.082973
-0.082973
-0.082973
-0.082973
-0.082973
-0.0843898
-0.0843898
-0.0843898
-0.0843898
-0.0843898
-0.0858224
-0.0858224
-0.0858224
-0.0858224
-0.0858224
-0.0872709
-0.0872709
-0.0872709
-0.0872709
-0.0872709
-0.0887357
-0.0887357
-0.0887357
-0.0887357
-0.0887357
)
;

boundaryField
{
    BotWall
    {
        type            calculated;
        value           nonuniform List<scalar> 5(0.737065 0.737931 0.737203 0.738032 0.737065);
    }
    FreeStream
    {
        type            calculated;
        value           nonuniform List<scalar> 5(-0.0894721 -0.0894721 -0.0894721 -0.0894721 -0.0894721);
    }
    FrontNBack
    {
        type            empty;
    }
    LeftSide
    {
        type            symmetryPlane;
    }
    RightSide
    {
        type            symmetryPlane;
    }
}


// ************************************************************************* //
