/*--------------------------------*- C++ -*----------------------------------*\
| =========                 |                                                 |
| \\      /  F ield         | OpenFOAM: The Open Source CFD Toolbox           |
|  \\    /   O peration     | Version:  2.4.0                                 |
|   \\  /    A nd           | Web:      www.OpenFOAM.org                      |
|    \\/     M anipulation  |                                                 |
\*---------------------------------------------------------------------------*/
FoamFile
{
    version     2.0;
    format      ascii;
    class       volScalarField;
    location    "4.1";
    object      p_rgh;
}
// * * * * * * * * * * * * * * * * * * * * * * * * * * * * * * * * * * * * * //

dimensions      [1 -1 -2 0 0 0 0];

internalField   nonuniform List<scalar> 
500
(
0.737065
0.737931
0.737203
0.738032
0.737065
0.737042
0.737913
0.73719
0.738013
0.737041
0.737043
0.73792
0.737202
0.738018
0.737042
0.737029
0.737914
0.737201
0.738011
0.737027
0.737032
0.737925
0.737218
0.738021
0.737031
0.737018
0.737917
0.737217
0.738013
0.737016
0.737021
0.737929
0.737235
0.738024
0.73702
0.737006
0.737922
0.737235
0.738016
0.737005
0.737008
0.737933
0.737252
0.738026
0.737007
0.736984
0.737916
0.737242
0.738009
0.736983
0.73698
0.737921
0.737254
0.738013
0.736979
0.737002
0.737952
0.737291
0.738043
0.737002
0.737202
0.738161
0.737508
0.738252
0.737201
0.737399
0.738369
0.737723
0.738459
0.737399
0.736381
0.73736
0.736717
0.737449
0.736381
0.731477
0.732445
0.731798
0.732534
0.731477
0.726044
0.726993
0.726325
0.727083
0.726043
0.752244
0.753272
0.752657
0.753396
0.752244
0.875729
0.877273
0.876971
0.877316
0.875734
1.01181
1.01418
1.01499
1.01424
1.01182
0.334318
0.335459
0.334921
0.335388
0.334345
-2.7499
-2.7596
-2.76812
-2.75906
-2.74997
-6.77147
-6.79834
-6.82139
-6.79685
-6.77173
-0.00418899
-0.00418746
-0.00418621
-0.00418753
-0.00418898
0.00129242
0.00129127
0.00129041
0.00129132
0.00129241
0.000447958
0.000447871
0.000447759
0.000447876
0.000447958
8.13128e-06
8.24936e-06
8.31836e-06
8.24463e-06
8.13233e-06
-5.30419e-05
-5.29859e-05
-5.2941e-05
-5.29892e-05
-5.30411e-05
-2.26137e-05
-2.25971e-05
-2.25792e-05
-2.25988e-05
-2.26132e-05
-5.80554e-06
-5.79196e-06
-5.78033e-06
-5.79324e-06
-5.80511e-06
-3.60423e-06
-3.58671e-06
-3.57427e-06
-3.58803e-06
-3.6038e-06
-4.81259e-06
-4.79386e-06
-4.78061e-06
-4.79521e-06
-4.81216e-06
-5.47381e-06
-5.45555e-06
-5.44232e-06
-5.45689e-06
-5.47339e-06
-5.55321e-06
-5.53557e-06
-5.52263e-06
-5.53688e-06
-5.55279e-06
-5.49855e-06
-5.48135e-06
-5.46869e-06
-5.48262e-06
-5.49814e-06
-5.46613e-06
-5.44927e-06
-5.43688e-06
-5.45053e-06
-5.46573e-06
-5.45683e-06
-5.44032e-06
-5.42817e-06
-5.44155e-06
-5.45644e-06
-5.45275e-06
-5.43659e-06
-5.42468e-06
-5.43779e-06
-5.45237e-06
-5.44769e-06
-5.43189e-06
-5.42021e-06
-5.43307e-06
-5.44732e-06
-5.44165e-06
-5.4262e-06
-5.41475e-06
-5.42735e-06
-5.44129e-06
-5.43534e-06
-5.42022e-06
-5.40902e-06
-5.42135e-06
-5.43498e-06
-5.42899e-06
-5.41422e-06
-5.40325e-06
-5.41532e-06
-5.42865e-06
-5.42262e-06
-5.40818e-06
-5.39744e-06
-5.40926e-06
-5.42228e-06
-5.41618e-06
-5.40208e-06
-5.39157e-06
-5.40314e-06
-5.41586e-06
-5.40968e-06
-5.39591e-06
-5.38563e-06
-5.39694e-06
-5.40936e-06
-5.40311e-06
-5.38966e-06
-5.37961e-06
-5.39067e-06
-5.4028e-06
-5.39647e-06
-5.38334e-06
-5.37351e-06
-5.38433e-06
-5.39616e-06
-5.38976e-06
-5.37695e-06
-5.36734e-06
-5.37792e-06
-5.38946e-06
-5.38297e-06
-5.37049e-06
-5.3611e-06
-5.37143e-06
-5.38269e-06
-5.37612e-06
-5.36394e-06
-5.35477e-06
-5.36487e-06
-5.37584e-06
-5.3692e-06
-5.35733e-06
-5.34837e-06
-5.35823e-06
-5.36893e-06
-5.3622e-06
-5.35064e-06
-5.3419e-06
-5.35151e-06
-5.36194e-06
-5.35513e-06
-5.34387e-06
-5.33534e-06
-5.34473e-06
-5.35488e-06
-5.34799e-06
-5.33702e-06
-5.32871e-06
-5.33786e-06
-5.34774e-06
-5.34077e-06
-5.3301e-06
-5.32199e-06
-5.33091e-06
-5.34053e-06
-5.33347e-06
-5.3231e-06
-5.3152e-06
-5.32389e-06
-5.33324e-06
-5.3261e-06
-5.31601e-06
-5.30832e-06
-5.31679e-06
-5.32588e-06
-5.31866e-06
-5.30885e-06
-5.30137e-06
-5.30961e-06
-5.31844e-06
-5.31113e-06
-5.30161e-06
-5.29432e-06
-5.30234e-06
-5.31092e-06
-5.30352e-06
-5.29428e-06
-5.2872e-06
-5.295e-06
-5.30333e-06
-5.29584e-06
-5.28687e-06
-5.27999e-06
-5.28757e-06
-5.29565e-06
-5.28808e-06
-5.27938e-06
-5.2727e-06
-5.28006e-06
-5.28789e-06
-5.28023e-06
-5.2718e-06
-5.26531e-06
-5.27246e-06
-5.28005e-06
-5.2723e-06
-5.26414e-06
-5.25785e-06
-5.26478e-06
-5.27213e-06
-5.26429e-06
-5.25639e-06
-5.25029e-06
-5.25701e-06
-5.26413e-06
-5.25619e-06
-5.24856e-06
-5.24265e-06
-5.24916e-06
-5.25604e-06
-5.24801e-06
-5.24063e-06
-5.23491e-06
-5.24122e-06
-5.24786e-06
-5.23975e-06
-5.23262e-06
-5.22709e-06
-5.23319e-06
-5.2396e-06
-5.23139e-06
-5.22452e-06
-5.21918e-06
-5.22507e-06
-5.23126e-06
-5.22295e-06
-5.21633e-06
-5.21117e-06
-5.21686e-06
-5.22282e-06
-5.21442e-06
-5.20804e-06
-5.20307e-06
-5.20856e-06
-5.2143e-06
-5.2058e-06
-5.19967e-06
-5.19487e-06
-5.20017e-06
-5.20568e-06
-5.19709e-06
-5.1912e-06
-5.18658e-06
-5.19168e-06
-5.19698e-06
-5.18828e-06
-5.18263e-06
-5.1782e-06
-5.1831e-06
-5.18818e-06
-5.17939e-06
-5.17397e-06
-5.16972e-06
-5.17442e-06
-5.17929e-06
-5.1704e-06
-5.16522e-06
-5.16114e-06
-5.16565e-06
-5.1703e-06
-5.16131e-06
-5.15636e-06
-5.15246e-06
-5.15678e-06
-5.16122e-06
-5.15212e-06
-5.14741e-06
-5.14368e-06
-5.14781e-06
-5.15205e-06
-5.14284e-06
-5.13836e-06
-5.1348e-06
-5.13874e-06
-5.14277e-06
-5.13346e-06
-5.12921e-06
-5.12583e-06
-5.12957e-06
-5.1334e-06
-5.12398e-06
-5.11995e-06
-5.11674e-06
-5.1203e-06
-5.12392e-06
-5.1144e-06
-5.1106e-06
-5.10756e-06
-5.11093e-06
-5.11435e-06
-5.10472e-06
-5.10114e-06
-5.09827e-06
-5.10145e-06
-5.10467e-06
-5.09493e-06
-5.09157e-06
-5.08887e-06
-5.09187e-06
-5.09489e-06
-5.08504e-06
-5.0819e-06
-5.07937e-06
-5.08219e-06
-5.085e-06
-5.07504e-06
-5.07212e-06
-5.06976e-06
-5.07239e-06
-5.07501e-06
-5.06493e-06
-5.06224e-06
-5.06004e-06
-5.06249e-06
-5.06491e-06
-5.05472e-06
-5.05224e-06
-5.05021e-06
-5.05248e-06
-5.0547e-06
-5.04439e-06
-5.04213e-06
-5.04027e-06
-5.04235e-06
-5.04438e-06
-5.03396e-06
-5.03191e-06
-5.03022e-06
-5.03212e-06
-5.03394e-06
-5.02341e-06
-5.02158e-06
-5.02005e-06
-5.02177e-06
-5.0234e-06
-5.01274e-06
-5.01113e-06
-5.00977e-06
-5.01131e-06
-5.01274e-06
-5.00196e-06
-5.00057e-06
-4.99938e-06
-5.00073e-06
-5.00196e-06
-4.99106e-06
-4.98989e-06
-4.98887e-06
-4.99004e-06
-4.99107e-06
-4.98005e-06
-4.9791e-06
-4.97824e-06
-4.97922e-06
-4.98006e-06
-4.96891e-06
-4.96818e-06
-4.96749e-06
-4.96829e-06
-4.96893e-06
-4.95764e-06
-4.95715e-06
-4.95664e-06
-4.95724e-06
-4.95766e-06
-4.94622e-06
-4.946e-06
-4.9457e-06
-4.94608e-06
-4.94625e-06
-4.93472e-06
-4.93472e-06
-4.93458e-06
-4.93478e-06
-4.93476e-06
-4.92343e-06
-4.92319e-06
-4.92292e-06
-4.92326e-06
-4.92346e-06
)
;

boundaryField
{
    BotWall
    {
        type            fixedFluxPressure;
        gradient        uniform 0;
        value           nonuniform List<scalar> 5(0.737065 0.737931 0.737203 0.738032 0.737065);
    }
    FreeStream
    {
        type            totalPressure;
        rho             rho;
        psi             none;
        gamma           1;
        p0              uniform 0;
        value           nonuniform List<scalar> 5(-4.91798e-06 -4.91731e-06 -4.91678e-06 -4.9174e-06 -4.91801e-06);
    }
    FrontNBack
    {
        type            empty;
    }
    LeftSide
    {
        type            symmetryPlane;
    }
    RightSide
    {
        type            symmetryPlane;
    }
}


// ************************************************************************* //
