/*--------------------------------*- C++ -*----------------------------------*\
| =========                 |                                                 |
| \\      /  F ield         | OpenFOAM: The Open Source CFD Toolbox           |
|  \\    /   O peration     | Version:  2.4.0                                 |
|   \\  /    A nd           | Web:      www.OpenFOAM.org                      |
|    \\/     M anipulation  |                                                 |
\*---------------------------------------------------------------------------*/
FoamFile
{
    version     2.0;
    format      ascii;
    class       surfaceScalarField;
    location    "4.1";
    object      phi;
}
// * * * * * * * * * * * * * * * * * * * * * * * * * * * * * * * * * * * * * //

dimensions      [0 3 -1 0 0 0 0];

internalField   nonuniform List<scalar> 
895
(
1.87848e-17
-1.87856e-17
1.34178e-17
5.36568e-18
-1.57649e-17
2.91805e-17
-1.82288e-17
2.46219e-18
-1.82302e-17
5.79724e-17
-7.67697e-17
4.04036e-17
2.29146e-17
-4.74455e-17
1.17001e-16
-5.63663e-17
1.13607e-17
-7.46128e-17
9.89948e-17
-1.75779e-16
6.82098e-17
5.36772e-17
-8.00224e-17
2.65203e-16
-9.63559e-17
2.76701e-17
-1.70986e-16
1.41805e-16
-3.17599e-16
9.70597e-17
9.83981e-17
-1.13734e-16
4.75964e-16
-1.38133e-16
5.20429e-17
-3.09136e-16
1.86468e-16
-5.04084e-16
1.27e-16
1.57841e-16
-1.48627e-16
7.51556e-16
-1.81761e-16
8.51508e-17
-4.90914e-16
2.33096e-16
-7.37198e-16
1.58087e-16
2.32824e-16
-1.84759e-16
1.09437e-15
-2.27351e-16
1.27716e-16
-7.18282e-16
2.81758e-16
-1.01897e-15
1.90364e-16
3.24192e-16
-2.22174e-16
1.50687e-15
-2.7497e-16
1.80486e-16
-9.9327e-16
3.32583e-16
-1.35158e-15
2.239e-16
4.32848e-16
-2.60943e-16
1.99168e-15
-3.24748e-16
2.44264e-16
-1.31804e-15
3.85642e-16
-1.73724e-15
2.58738e-16
5.59725e-16
-3.01111e-16
2.55149e-15
-3.76754e-16
3.1988e-16
-1.69481e-15
4.41085e-16
-2.17834e-15
2.9496e-16
7.05823e-16
-3.42761e-16
3.18917e-15
-4.31135e-16
4.08228e-16
-2.12596e-15
4.98989e-16
-2.67735e-15
3.32612e-16
8.72175e-16
-3.8594e-16
3.90769e-15
-4.87968e-16
5.10231e-16
-2.61394e-15
5.59523e-16
-3.23689e-15
3.71785e-16
1.05989e-15
-4.30742e-16
4.71018e-15
-5.47419e-16
6.26883e-16
-3.16138e-15
6.22774e-16
-3.85968e-15
4.12531e-16
1.2701e-15
-4.77221e-16
5.5999e-15
-6.09575e-16
7.59214e-16
-3.77097e-15
6.8893e-16
-4.54862e-15
4.54955e-16
1.50406e-15
-5.25483e-16
6.58031e-15
-6.7462e-16
9.08329e-16
-4.4456e-15
7.58094e-16
-5.30673e-15
4.99119e-16
1.76301e-15
-5.75591e-16
7.655e-15
-7.42654e-16
1.07537e-15
-5.18827e-15
8.30481e-16
-6.13723e-15
5.45134e-16
2.04834e-15
-6.27662e-16
8.82777e-15
-8.1389e-16
1.26158e-15
-6.00217e-15
9.06184e-16
-7.04343e-15
5.93067e-16
2.36144e-15
-6.81762e-16
1.01026e-14
-8.88419e-16
1.46822e-15
-6.8906e-15
9.85361e-16
-8.0288e-15
6.43052e-16
2.70373e-15
-7.3809e-16
1.14837e-14
-9.66344e-16
1.69646e-15
-7.85695e-15
1.06797e-15
-9.09677e-15
6.95122e-16
3.07656e-15
-7.95755e-16
1.29746e-14
-1.04776e-15
1.94845e-15
-8.90471e-15
1.15433e-15
-1.02511e-14
7.49083e-16
3.4818e-15
-8.57543e-16
1.45812e-14
-1.1331e-15
2.224e-15
-1.00378e-14
1.24815e-15
-1.14993e-14
8.03735e-16
3.92621e-15
-9.20161e-16
1.63051e-14
-1.22549e-15
2.52932e-15
-1.12633e-14
1.35271e-15
-1.92868e-14
8.74976e-16
4.40394e-15
-9.9555e-16
1.81756e-14
-1.32751e-15
2.86128e-15
-1.88942e-14
1.49001e-15
-2.07682e-10
9.77691e-16
-2.07695e-10
-1.10526e-15
-2.07707e-10
-1.45861e-15
-2.07694e-10
-2.07682e-10
1.50265e-15
-2.07684e-10
9.66203e-16
-2.07695e-10
-1.09321e-15
-2.07704e-10
-1.47453e-15
-2.07694e-10
-2.07684e-10
1.49741e-15
-2.07685e-10
9.6653e-16
-2.07694e-10
-1.09218e-15
-2.07702e-10
-1.46957e-15
-2.07694e-10
-2.07685e-10
1.43032e-15
-2.07687e-10
9.21385e-16
-2.07694e-10
-1.04299e-15
-2.077e-10
-1.40587e-15
-2.07693e-10
-2.07687e-10
1.37295e-15
-2.07688e-10
8.8332e-16
-2.07693e-10
-1.00143e-15
-2.07699e-10
-1.35103e-15
-2.07693e-10
-2.07688e-10
1.32125e-15
-2.07689e-10
8.49847e-16
-2.07693e-10
-9.6474e-16
-2.07697e-10
-1.30145e-15
-2.07693e-10
-2.07689e-10
1.27059e-15
-2.0769e-10
8.17538e-16
-2.07692e-10
-9.29277e-16
-2.07695e-10
-1.25281e-15
-2.07692e-10
-2.0769e-10
1.21989e-15
-2.07692e-10
7.85283e-16
-2.07692e-10
-8.93873e-16
-2.07693e-10
-1.20409e-15
-2.07692e-10
-2.07692e-10
1.1695e-15
-2.07693e-10
7.53152e-16
-2.07691e-10
-8.58609e-16
-2.07692e-10
-1.15563e-15
-2.07692e-10
-2.07693e-10
1.11969e-15
-2.07694e-10
7.21332e-16
-2.07691e-10
-8.23683e-16
-2.0769e-10
-1.10769e-15
-2.07691e-10
-2.07694e-10
1.07051e-15
-2.07695e-10
6.89899e-16
-2.07691e-10
-7.89173e-16
-2.07689e-10
-1.06031e-15
-2.07691e-10
-2.07695e-10
1.02195e-15
-2.07696e-10
6.5887e-16
-2.0769e-10
-7.55097e-16
-2.07687e-10
-1.01348e-15
-2.07691e-10
-2.07696e-10
9.74035e-16
-2.07697e-10
6.28253e-16
-2.0769e-10
-7.21465e-16
-2.07686e-10
-9.67234e-16
-2.07691e-10
-2.07697e-10
9.26792e-16
-2.07698e-10
5.98065e-16
-2.0769e-10
-6.88292e-16
-2.07685e-10
-9.2159e-16
-2.0769e-10
-2.07698e-10
8.80248e-16
-2.07699e-10
5.68321e-16
-2.07689e-10
-6.55598e-16
-2.07683e-10
-8.76581e-16
-2.0769e-10
-2.07699e-10
8.34433e-16
-2.077e-10
5.39041e-16
-2.07689e-10
-6.23401e-16
-2.07682e-10
-8.32233e-16
-2.0769e-10
-2.077e-10
7.89371e-16
-2.07701e-10
5.1024e-16
-2.07689e-10
-5.91719e-16
-2.07681e-10
-7.88574e-16
-2.0769e-10
-2.077e-10
7.45091e-16
-2.07701e-10
4.81936e-16
-2.07688e-10
-5.60569e-16
-2.0768e-10
-7.45629e-16
-2.0769e-10
-2.07701e-10
7.01616e-16
-2.07702e-10
4.54145e-16
-2.07688e-10
-5.2997e-16
-2.07679e-10
-7.03425e-16
-2.07689e-10
-2.07702e-10
6.58971e-16
-2.07703e-10
4.26884e-16
-2.07688e-10
-4.99937e-16
-2.07678e-10
-6.61987e-16
-2.07689e-10
-2.07703e-10
6.17183e-16
-2.07703e-10
4.00167e-16
-2.07688e-10
-4.70487e-16
-2.07677e-10
-6.21341e-16
-2.07689e-10
-2.07703e-10
5.76273e-16
-2.07704e-10
3.7401e-16
-2.07687e-10
-4.41637e-16
-2.07677e-10
-5.8151e-16
-2.07689e-10
-2.07704e-10
5.36266e-16
-2.07704e-10
3.48428e-16
-2.07687e-10
-4.13401e-16
-2.07676e-10
-5.42518e-16
-2.07689e-10
-2.07704e-10
4.97184e-16
-2.07705e-10
3.23435e-16
-2.07687e-10
-3.85796e-16
-2.07675e-10
-5.04388e-16
-2.07689e-10
-2.07705e-10
4.59048e-16
-2.07705e-10
2.99046e-16
-2.07687e-10
-3.58835e-16
-2.07674e-10
-4.67143e-16
-2.07689e-10
-2.07705e-10
4.2188e-16
-2.07706e-10
2.75273e-16
-2.07687e-10
-3.32534e-16
-2.07674e-10
-4.30805e-16
-2.07689e-10
-2.07706e-10
3.85699e-16
-2.07706e-10
2.5213e-16
-2.07687e-10
-3.06904e-16
-2.07673e-10
-3.95394e-16
-2.07688e-10
-2.07706e-10
3.50525e-16
-2.07706e-10
2.29628e-16
-2.07687e-10
-2.8196e-16
-2.07673e-10
-3.6093e-16
-2.07688e-10
-2.07706e-10
3.16375e-16
-2.07707e-10
2.07779e-16
-2.07686e-10
-2.57713e-16
-2.07672e-10
-3.27433e-16
-2.07688e-10
-2.07707e-10
2.83267e-16
-2.07707e-10
1.86595e-16
-2.07686e-10
-2.34174e-16
-2.07672e-10
-2.9492e-16
-2.07688e-10
-2.07707e-10
2.51216e-16
-2.07707e-10
1.66085e-16
-2.07686e-10
-2.11356e-16
-2.07671e-10
-2.63409e-16
-2.07688e-10
-2.07707e-10
2.20238e-16
-2.07708e-10
1.4626e-16
-2.07686e-10
-1.89267e-16
-2.07671e-10
-2.32916e-16
-2.07688e-10
-2.07708e-10
1.90347e-16
-2.07708e-10
1.27127e-16
-2.07686e-10
-1.67917e-16
-2.07671e-10
-2.03455e-16
-2.07688e-10
-2.07708e-10
1.61554e-16
-2.07708e-10
1.08695e-16
-2.07686e-10
-1.47314e-16
-2.07671e-10
-1.7504e-16
-2.07688e-10
-2.07708e-10
1.33871e-16
-2.07708e-10
9.09715e-17
-2.07686e-10
-1.27466e-16
-2.0767e-10
-1.47684e-16
-2.07688e-10
-2.07708e-10
1.07307e-16
-2.07708e-10
7.39622e-17
-2.07686e-10
-1.0838e-16
-2.0767e-10
-1.21397e-16
-2.07688e-10
-2.07708e-10
8.18711e-17
-2.07708e-10
5.76726e-17
-2.07686e-10
-9.00608e-17
-2.0767e-10
-9.61899e-17
-2.07688e-10
-2.07708e-10
5.75701e-17
-2.07708e-10
4.21071e-17
-2.07686e-10
-7.25138e-17
-2.0767e-10
-7.207e-17
-2.07688e-10
-2.07708e-10
3.44089e-17
-2.07708e-10
2.72691e-17
-2.07686e-10
-5.57424e-17
-2.0767e-10
-4.90443e-17
-2.07688e-10
-2.07708e-10
1.23913e-17
-2.07708e-10
1.3161e-17
-2.07686e-10
-3.97493e-17
-2.0767e-10
-2.71179e-17
-2.07688e-10
-2.07708e-10
-8.48083e-18
-2.07708e-10
-2.15948e-19
-2.07686e-10
-2.4536e-17
-2.0767e-10
-6.29417e-18
-2.07688e-10
-2.07708e-10
-2.82074e-17
-2.07708e-10
-1.28617e-17
-2.07686e-10
-1.01027e-17
-2.0767e-10
1.34251e-17
-2.07688e-10
-2.07708e-10
-4.679e-17
-2.07708e-10
-2.47772e-17
-2.07686e-10
3.55134e-18
-2.0767e-10
3.20401e-17
-2.07688e-10
-2.07708e-10
-6.42324e-17
-2.07708e-10
-3.59648e-17
-2.07686e-10
1.64283e-17
-2.0767e-10
4.95528e-17
-2.07688e-10
-2.07708e-10
-8.05401e-17
-2.07708e-10
-4.64281e-17
-2.07686e-10
2.85316e-17
-2.0767e-10
6.59672e-17
-2.07688e-10
-2.07708e-10
-9.57209e-17
-2.07708e-10
-5.61719e-17
-2.07686e-10
3.98659e-17
-2.0767e-10
8.12892e-17
-2.07688e-10
-2.07708e-10
-1.09784e-16
-2.07708e-10
-6.52026e-17
-2.07686e-10
5.04376e-17
-2.0767e-10
9.55269e-17
-2.07688e-10
-2.07708e-10
-1.22743e-16
-2.07708e-10
-7.35279e-17
-2.07686e-10
6.0254e-17
-2.0767e-10
1.08691e-16
-2.07688e-10
-2.07708e-10
-1.34611e-16
-2.07708e-10
-8.11569e-17
-2.07686e-10
6.93244e-17
-2.0767e-10
1.20793e-16
-2.07688e-10
-2.07708e-10
-1.45405e-16
-2.07707e-10
-8.81003e-17
-2.07686e-10
7.76595e-17
-2.07671e-10
1.31849e-16
-2.07688e-10
-2.07708e-10
-1.55144e-16
-2.07707e-10
-9.43706e-17
-2.07686e-10
8.52714e-17
-2.07671e-10
1.41876e-16
-2.07688e-10
-2.07708e-10
-1.6385e-16
-2.07707e-10
-9.99817e-17
-2.07686e-10
9.21742e-17
-2.07671e-10
1.50894e-16
-2.07689e-10
-2.07707e-10
-1.71548e-16
-2.07707e-10
-1.04949e-16
-2.07686e-10
9.83834e-17
-2.07671e-10
1.58926e-16
-2.07689e-10
-2.07707e-10
-1.78265e-16
-2.07707e-10
-1.09291e-16
-2.07687e-10
1.03917e-16
-2.07671e-10
1.65996e-16
-2.07689e-10
-2.07707e-10
-1.84031e-16
-2.07707e-10
-1.13025e-16
-2.07687e-10
1.08793e-16
-2.07672e-10
1.72134e-16
-2.07689e-10
-2.07707e-10
-1.88879e-16
-2.07706e-10
-1.16174e-16
-2.07687e-10
1.13034e-16
-2.07672e-10
1.77369e-16
-2.07689e-10
-2.07707e-10
-1.92845e-16
-2.07706e-10
-1.1876e-16
-2.07687e-10
1.16662e-16
-2.07672e-10
1.81737e-16
-2.07689e-10
-2.07707e-10
-1.95969e-16
-2.07706e-10
-1.20809e-16
-2.07687e-10
1.19703e-16
-2.07672e-10
1.85274e-16
-2.07689e-10
-2.07706e-10
-1.98294e-16
-2.07706e-10
-1.22348e-16
-2.07687e-10
1.22184e-16
-2.07673e-10
1.88021e-16
-2.07689e-10
-2.07706e-10
-1.99865e-16
-2.07706e-10
-1.23406e-16
-2.07687e-10
1.24135e-16
-2.07673e-10
1.90021e-16
-2.07689e-10
-2.07706e-10
-2.00732e-16
-2.07705e-10
-1.24015e-16
-2.07687e-10
1.25587e-16
-2.07673e-10
1.91323e-16
-2.07689e-10
-2.07706e-10
-2.00948e-16
-2.07705e-10
-1.24209e-16
-2.07687e-10
1.26575e-16
-2.07673e-10
1.91976e-16
-2.07689e-10
-2.07706e-10
-2.00571e-16
-2.07705e-10
-1.24024e-16
-2.07687e-10
1.27136e-16
-2.07674e-10
1.92037e-16
-2.07689e-10
-2.07705e-10
-1.99663e-16
-2.07705e-10
-1.235e-16
-2.07687e-10
1.27309e-16
-2.07674e-10
1.91563e-16
-2.07689e-10
-2.07705e-10
-1.98288e-16
-2.07705e-10
-1.22678e-16
-2.07687e-10
1.27135e-16
-2.07674e-10
1.90618e-16
-2.07689e-10
-2.07705e-10
-1.96518e-16
-2.07704e-10
-1.21602e-16
-2.07687e-10
1.2666e-16
-2.07674e-10
1.89269e-16
-2.07689e-10
-2.07705e-10
-1.94425e-16
-2.07704e-10
-1.20321e-16
-2.07688e-10
1.25931e-16
-2.07675e-10
1.87587e-16
-2.07689e-10
-2.07705e-10
-1.92091e-16
-2.07704e-10
-1.18883e-16
-2.07688e-10
1.25001e-16
-2.07675e-10
1.8565e-16
-2.0769e-10
-2.07705e-10
-1.896e-16
-2.07704e-10
-1.17343e-16
-2.07688e-10
1.23922e-16
-2.07675e-10
1.83537e-16
-2.0769e-10
-2.07704e-10
-1.87041e-16
-2.07704e-10
-1.15757e-16
-2.07688e-10
1.22752e-16
-2.07675e-10
1.81337e-16
-2.0769e-10
-2.07704e-10
-1.84512e-16
-2.07703e-10
-1.14186e-16
-2.07688e-10
1.21554e-16
-2.07675e-10
1.79141e-16
-2.0769e-10
-2.07704e-10
-1.82114e-16
-2.07703e-10
-1.12694e-16
-2.07688e-10
1.20393e-16
-2.07676e-10
1.77048e-16
-2.0769e-10
-2.07704e-10
-1.79956e-16
-2.07703e-10
-1.11349e-16
-2.07688e-10
1.19338e-16
-2.07676e-10
1.75162e-16
-2.0769e-10
-2.07704e-10
-1.78153e-16
-2.07703e-10
-1.10223e-16
-2.07688e-10
1.18463e-16
-2.07676e-10
1.73593e-16
-2.0769e-10
-2.07703e-10
-1.76828e-16
-2.07703e-10
-1.09391e-16
-2.07688e-10
1.17845e-16
-2.07676e-10
1.72459e-16
-2.0769e-10
-2.07703e-10
-1.76113e-16
-2.07703e-10
-1.08937e-16
-2.07688e-10
1.17571e-16
-2.07677e-10
1.71888e-16
-2.0769e-10
-2.07703e-10
-1.76177e-16
-2.07702e-10
-1.08964e-16
-2.07688e-10
1.17748e-16
-2.07677e-10
1.72038e-16
-2.0769e-10
-2.07703e-10
-1.77238e-16
-1.09656e-16
1.18577e-16
1.73104e-16
)
;

boundaryField
{
    BotWall
    {
        type            calculated;
        value           nonuniform List<scalar> 5(6.27603e-22 1.18426e-21 1.81547e-21 1.4568e-21 1.13052e-21);
    }
    FreeStream
    {
        type            calculated;
        value           nonuniform List<scalar> 5(-2.07702e-10 -2.07688e-10 -2.07677e-10 -2.0769e-10 -2.07703e-10);
    }
    FrontNBack
    {
        type            empty;
        value           nonuniform 0();
    }
    LeftSide
    {
        type            symmetryPlane;
        value           uniform 0;
    }
    RightSide
    {
        type            symmetryPlane;
        value           uniform 0;
    }
}


// ************************************************************************* //
