/*--------------------------------*- C++ -*----------------------------------*\
| =========                 |                                                 |
| \\      /  F ield         | OpenFOAM: The Open Source CFD Toolbox           |
|  \\    /   O peration     | Version:  2.4.0                                 |
|   \\  /    A nd           | Web:      www.OpenFOAM.org                      |
|    \\/     M anipulation  |                                                 |
\*---------------------------------------------------------------------------*/
FoamFile
{
    version     2.0;
    format      ascii;
    class       volVectorField;
    location    "4.1";
    object      U;
}
// * * * * * * * * * * * * * * * * * * * * * * * * * * * * * * * * * * * * * //

dimensions      [0 1 -1 0 0 0 0];

internalField   nonuniform List<vector> 
500
(
(3.62032e-09 1.66268e-10 0)
(1.0277e-08 1.9215e-10 0)
(-7.58944e-10 2.16872e-10 0)
(-1.04532e-08 1.89238e-10 0)
(-3.0642e-09 1.66885e-10 0)
(1.11198e-08 -6.68703e-10 0)
(3.09853e-08 -4.28763e-10 0)
(-2.26026e-09 -1.8381e-10 0)
(-3.15156e-08 -4.58702e-10 0)
(-9.4701e-09 -6.63051e-10 0)
(1.89261e-08 2.32509e-10 0)
(5.19721e-08 1.01109e-09 0)
(-3.75365e-09 1.71771e-09 0)
(-5.28606e-08 9.2403e-10 0)
(-1.6195e-08 2.48702e-10 0)
(2.70544e-08 -2.30409e-09 0)
(7.32559e-08 -7.92359e-10 0)
(-5.23977e-09 6.19297e-10 0)
(-7.45068e-08 -9.65701e-10 0)
(-2.32536e-08 -2.27228e-09 0)
(3.55107e-08 -5.32278e-10 0)
(9.48474e-08 2.12979e-09 0)
(-6.71828e-09 4.49812e-09 0)
(-9.64642e-08 1.83898e-09 0)
(-3.06512e-08 -4.79337e-10 0)
(4.43147e-08 -4.87379e-09 0)
(1.16771e-07 -9.18569e-10 0)
(-8.18966e-09 2.65636e-09 0)
(-1.18757e-07 -1.35533e-09 0)
(-3.84068e-08 -4.79491e-09 0)
(5.34711e-08 -2.12585e-09 0)
(1.39036e-07 3.63787e-09 0)
(-9.6538e-09 8.68686e-09 0)
(-1.41394e-07 3.02245e-09 0)
(-4.65245e-08 -2.01539e-09 0)
(6.30034e-08 -8.45464e-09 0)
(1.6167e-07 -7.84898e-10 0)
(-1.11111e-08 6.00241e-09 0)
(-1.64404e-07 -1.6076e-09 0)
(-5.50269e-08 -8.30789e-09 0)
(7.29153e-08 -4.60152e-09 0)
(1.84683e-07 5.59597e-09 0)
(-1.25616e-08 1.44087e-08 0)
(-1.87794e-07 4.53138e-09 0)
(-6.39174e-08 -4.41262e-09 0)
(8.32341e-08 -1.32947e-08 0)
(2.08107e-07 -5.16941e-10 0)
(-1.40058e-08 1.06e-08 0)
(-2.11599e-07 -1.85205e-09 0)
(-7.32219e-08 -1.3059e-08 0)
(9.39633e-08 -8.51026e-09 0)
(2.31952e-07 7.58017e-09 0)
(-1.54435e-08 2.13086e-08 0)
(-2.35825e-07 5.93788e-09 0)
(-8.29438e-08 -8.22178e-09 0)
(1.05133e-07 -1.98654e-08 0)
(2.56254e-07 -4.55224e-10 0)
(-1.68755e-08 1.61826e-08 0)
(-2.6051e-07 -2.43404e-09 0)
(-9.3112e-08 -1.95196e-08 0)
(1.16749e-07 -1.05816e-08 0)
(2.81022e-07 1.30015e-08 0)
(-1.83017e-08 3.28974e-08 0)
(-2.85663e-07 1.06448e-08 0)
(-1.03731e-07 -1.01721e-08 0)
(1.28843e-07 -1.54732e-08 0)
(3.06299e-07 1.22741e-08 0)
(-1.97229e-08 3.57699e-08 0)
(-3.11326e-07 9.51175e-09 0)
(-1.14831e-07 -1.49954e-08 0)
(1.41422e-07 -2.12959e-09 0)
(3.32095e-07 3.07884e-08 0)
(-2.11388e-08 5.82034e-08 0)
(-3.37508e-07 2.75809e-08 0)
(-1.26419e-07 -1.57572e-09 0)
(1.54521e-07 -8.73708e-08 0)
(3.58455e-07 -4.9611e-08 0)
(-2.25506e-08 -1.81202e-08 0)
(-3.64255e-07 -5.32822e-08 0)
(-1.3853e-07 -8.67386e-08 0)
(1.68146e-07 -3.18444e-07 0)
(3.85386e-07 -2.75514e-07 0)
(-2.39579e-08 -2.4013e-07 0)
(-3.91572e-07 -2.79654e-07 0)
(-1.51166e-07 -3.17734e-07 0)
(1.82326e-07 -4.56901e-07 0)
(4.12921e-07 -4.08939e-07 0)
(-2.53611e-08 -3.69554e-07 0)
(-4.19492e-07 -4.13561e-07 0)
(-1.64357e-07 -4.56114e-07 0)
(1.97077e-07 1.32188e-06 0)
(4.41083e-07 1.38231e-06 0)
(-2.66647e-08 1.43096e-06 0)
(-4.47928e-07 1.37685e-06 0)
(-1.78102e-07 1.3228e-06 0)
(2.12506e-07 7.73104e-06 0)
(4.69892e-07 7.8224e-06 0)
(-2.82657e-08 7.89655e-06 0)
(-4.77348e-07 7.81502e-06 0)
(-1.92563e-07 7.73229e-06 0)
(2.28928e-07 9.82984e-06 0)
(4.99795e-07 9.96052e-06 0)
(-2.98189e-08 1.00683e-05 0)
(-5.07806e-07 9.95071e-06 0)
(-2.08e-07 9.83157e-06 0)
(2.46364e-07 -3.08602e-05 0)
(5.32149e-07 -3.08572e-05 0)
(-3.0744e-08 -3.08583e-05 0)
(-5.40009e-07 -3.08602e-05 0)
(-2.2437e-07 -3.08595e-05 0)
(2.66694e-07 -0.000241698 0)
(5.69834e-07 -0.000242176 0)
(-3.18337e-08 -0.00024259 0)
(-5.77506e-07 -0.000242152 0)
(-2.43419e-07 -0.000241701 0)
(2.70899e-07 -0.000782818 0)
(5.7768e-07 -0.000782596 0)
(-3.20437e-08 -0.000782431 0)
(-5.85316e-07 -0.000782608 0)
(-2.47379e-07 -0.000782816 0)
(2.65642e-07 -0.00180705 0)
(5.6479e-07 -0.00180673 0)
(-3.10528e-08 -0.00180646 0)
(-5.72416e-07 -0.00180674 0)
(-2.43146e-07 -0.00180705 0)
(2.5216e-07 -0.0010712 0)
(5.37567e-07 -0.00107134 0)
(-2.97246e-08 -0.00107143 0)
(-5.45233e-07 -0.00107133 0)
(-2.31069e-07 -0.00107121 0)
(2.39334e-07 -0.00099675 0)
(5.11328e-07 -0.000996823 0)
(-2.84312e-08 -0.000996888 0)
(-5.19025e-07 -0.00099682 0)
(-2.19597e-07 -0.00099675 0)
(2.27391e-07 -0.00101589 0)
(4.86642e-07 -0.00101591 0)
(-2.7193e-08 -0.00101595 0)
(-4.94354e-07 -0.00101591 0)
(-2.08932e-07 -0.00101589 0)
(2.15932e-07 -0.00103644 0)
(4.62934e-07 -0.00103645 0)
(-2.59989e-08 -0.00103646 0)
(-4.70649e-07 -0.00103645 0)
(-1.98688e-07 -0.00103644 0)
(2.04747e-07 -0.00104034 0)
(4.39842e-07 -0.00104034 0)
(-2.48396e-08 -0.00104035 0)
(-4.47549e-07 -0.00104034 0)
(-1.8867e-07 -0.00104034 0)
(1.93841e-07 -0.00103936 0)
(4.17343e-07 -0.00103936 0)
(-2.37134e-08 -0.00103936 0)
(-4.25034e-07 -0.00103936 0)
(-1.78881e-07 -0.00103936 0)
(1.83239e-07 -0.00103855 0)
(3.95473e-07 -0.00103854 0)
(-2.26204e-08 -0.00103854 0)
(-4.03136e-07 -0.00103854 0)
(-1.69351e-07 -0.00103855 0)
(1.7295e-07 -0.00103839 0)
(3.7424e-07 -0.00103838 0)
(-2.15604e-08 -0.00103837 0)
(-3.81868e-07 -0.00103838 0)
(-1.60085e-07 -0.00103839 0)
(1.62968e-07 -0.00103844 0)
(3.53641e-07 -0.00103841 0)
(-2.05331e-08 -0.0010384 0)
(-3.61223e-07 -0.00103842 0)
(-1.51082e-07 -0.00103844 0)
(1.53291e-07 -0.00103848 0)
(3.33668e-07 -0.00103845 0)
(-1.9538e-08 -0.00103843 0)
(-3.41197e-07 -0.00103845 0)
(-1.42339e-07 -0.00103848 0)
(1.43917e-07 -0.00103849 0)
(3.14317e-07 -0.00103845 0)
(-1.85746e-08 -0.00103843 0)
(-3.21784e-07 -0.00103846 0)
(-1.33855e-07 -0.00103849 0)
(1.34843e-07 -0.00103849 0)
(2.95582e-07 -0.00103845 0)
(-1.76423e-08 -0.00103842 0)
(-3.02979e-07 -0.00103845 0)
(-1.2563e-07 -0.00103849 0)
(1.26067e-07 -0.0010385 0)
(2.77459e-07 -0.00103845 0)
(-1.67407e-08 -0.00103841 0)
(-2.84778e-07 -0.00103845 0)
(-1.17661e-07 -0.0010385 0)
(1.17587e-07 -0.0010385 0)
(2.59942e-07 -0.00103844 0)
(-1.58693e-08 -0.00103841 0)
(-2.67176e-07 -0.00103845 0)
(-1.09948e-07 -0.0010385 0)
(1.09401e-07 -0.0010385 0)
(2.43025e-07 -0.00103844 0)
(-1.50275e-08 -0.0010384 0)
(-2.50167e-07 -0.00103845 0)
(-1.0249e-07 -0.0010385 0)
(1.01506e-07 -0.00103851 0)
(2.26702e-07 -0.00103844 0)
(-1.42149e-08 -0.0010384 0)
(-2.33745e-07 -0.00103845 0)
(-9.5285e-08 -0.00103851 0)
(9.38983e-08 -0.00103851 0)
(2.10967e-07 -0.00103844 0)
(-1.34309e-08 -0.00103839 0)
(-2.17905e-07 -0.00103845 0)
(-8.8331e-08 -0.00103851 0)
(8.6576e-08 -0.00103851 0)
(1.95813e-07 -0.00103844 0)
(-1.26749e-08 -0.00103839 0)
(-2.0264e-07 -0.00103845 0)
(-8.16264e-08 -0.00103851 0)
(7.95357e-08 -0.00103852 0)
(1.81234e-07 -0.00103844 0)
(-1.19465e-08 -0.00103838 0)
(-1.87945e-07 -0.00103845 0)
(-7.51693e-08 -0.00103852 0)
(7.27743e-08 -0.00103852 0)
(1.67222e-07 -0.00103844 0)
(-1.12451e-08 -0.00103838 0)
(-1.73812e-07 -0.00103844 0)
(-6.89575e-08 -0.00103852 0)
(6.62884e-08 -0.00103852 0)
(1.53771e-07 -0.00103844 0)
(-1.05701e-08 -0.00103838 0)
(-1.60234e-07 -0.00103844 0)
(-6.29889e-08 -0.00103852 0)
(6.00747e-08 -0.00103853 0)
(1.40872e-07 -0.00103844 0)
(-9.92107e-09 -0.00103837 0)
(-1.47204e-07 -0.00103844 0)
(-5.7261e-08 -0.00103853 0)
(5.41295e-08 -0.00103853 0)
(1.28519e-07 -0.00103843 0)
(-9.29735e-09 -0.00103837 0)
(-1.34715e-07 -0.00103844 0)
(-5.17714e-08 -0.00103853 0)
(4.84492e-08 -0.00103853 0)
(1.16702e-07 -0.00103843 0)
(-8.69843e-09 -0.00103837 0)
(-1.22759e-07 -0.00103844 0)
(-4.65174e-08 -0.00103853 0)
(4.30299e-08 -0.00103853 0)
(1.05415e-07 -0.00103843 0)
(-8.12375e-09 -0.00103836 0)
(-1.11328e-07 -0.00103844 0)
(-4.14961e-08 -0.00103853 0)
(3.78676e-08 -0.00103853 0)
(9.46473e-08 -0.00103843 0)
(-7.57276e-09 -0.00103836 0)
(-1.00415e-07 -0.00103844 0)
(-3.67047e-08 -0.00103853 0)
(3.29583e-08 -0.00103853 0)
(8.43917e-08 -0.00103843 0)
(-7.04489e-09 -0.00103836 0)
(-9.00096e-08 -0.00103844 0)
(-3.21401e-08 -0.00103853 0)
(2.82976e-08 -0.00103854 0)
(7.46388e-08 -0.00103843 0)
(-6.5396e-09 -0.00103836 0)
(-8.01049e-08 -0.00103844 0)
(-2.7799e-08 -0.00103854 0)
(2.38814e-08 -0.00103854 0)
(6.53795e-08 -0.00103843 0)
(-6.05632e-09 -0.00103836 0)
(-7.06913e-08 -0.00103844 0)
(-2.36782e-08 -0.00103854 0)
(1.97051e-08 -0.00103854 0)
(5.66044e-08 -0.00103843 0)
(-5.5945e-09 -0.00103835 0)
(-6.176e-08 -0.00103844 0)
(-1.9774e-08 -0.00103854 0)
(1.57641e-08 -0.00103854 0)
(4.83039e-08 -0.00103843 0)
(-5.1536e-09 -0.00103835 0)
(-5.33016e-08 -0.00103844 0)
(-1.60828e-08 -0.00103854 0)
(1.20536e-08 -0.00103854 0)
(4.04683e-08 -0.00103843 0)
(-4.73305e-09 -0.00103835 0)
(-4.53066e-08 -0.00103844 0)
(-1.2601e-08 -0.00103854 0)
(8.56885e-09 -0.00103854 0)
(3.30875e-08 -0.00103843 0)
(-4.33231e-09 -0.00103835 0)
(-3.77652e-08 -0.00103844 0)
(-9.32445e-09 -0.00103854 0)
(5.30486e-09 -0.00103854 0)
(2.61512e-08 -0.00103843 0)
(-3.95085e-09 -0.00103835 0)
(-3.06675e-08 -0.00103844 0)
(-6.24922e-09 -0.00103854 0)
(2.25653e-09 -0.00103854 0)
(1.96491e-08 -0.00103843 0)
(-3.58811e-09 -0.00103835 0)
(-2.40034e-08 -0.00103844 0)
(-3.37109e-09 -0.00103854 0)
(-5.81367e-10 -0.00103854 0)
(1.35703e-08 -0.00103843 0)
(-3.24356e-09 -0.00103835 0)
(-1.77624e-08 -0.00103844 0)
(-6.85718e-10 -0.00103854 0)
(-3.21416e-09 -0.00103854 0)
(7.90414e-09 -0.00103843 0)
(-2.91667e-09 -0.00103835 0)
(-1.1934e-08 -0.00103844 0)
(1.81137e-09 -0.00103854 0)
(-5.6473e-09 -0.00103854 0)
(2.63945e-09 -0.00103843 0)
(-2.60691e-09 -0.00103835 0)
(-6.50728e-09 -0.00103844 0)
(4.12478e-09 -0.00103854 0)
(-7.88636e-09 -0.00103854 0)
(-2.23501e-09 -0.00103843 0)
(-2.31377e-09 -0.00103835 0)
(-1.47131e-09 -0.00103844 0)
(6.25925e-09 -0.00103854 0)
(-9.93702e-09 -0.00103854 0)
(-6.73071e-09 -0.00103843 0)
(-2.03672e-09 -0.00103835 0)
(3.18513e-09 -0.00103844 0)
(8.21967e-09 -0.00103854 0)
(-1.18051e-08 -0.00103854 0)
(-1.08593e-08 -0.00103843 0)
(-1.77525e-09 -0.00103835 0)
(7.47346e-09 -0.00103844 0)
(1.0011e-08 -0.00103854 0)
(-1.34965e-08 -0.00103854 0)
(-1.46327e-08 -0.00103843 0)
(-1.52888e-09 -0.00103835 0)
(1.14053e-08 -0.00103844 0)
(1.16385e-08 -0.00103854 0)
(-1.50172e-08 -0.00103854 0)
(-1.80628e-08 -0.00103843 0)
(-1.29708e-09 -0.00103835 0)
(1.49924e-08 -0.00103844 0)
(1.31073e-08 -0.00103854 0)
(-1.63735e-08 -0.00103854 0)
(-2.1162e-08 -0.00103843 0)
(-1.07939e-09 -0.00103835 0)
(1.82468e-08 -0.00103844 0)
(1.4423e-08 -0.00103854 0)
(-1.75714e-08 -0.00103854 0)
(-2.39425e-08 -0.00103843 0)
(-8.75314e-10 -0.00103835 0)
(2.11807e-08 -0.00103844 0)
(1.55909e-08 -0.00103854 0)
(-1.86175e-08 -0.00103854 0)
(-2.64171e-08 -0.00103843 0)
(-6.84377e-10 -0.00103835 0)
(2.38064e-08 -0.00103844 0)
(1.66168e-08 -0.00103854 0)
(-1.95181e-08 -0.00103854 0)
(-2.85984e-08 -0.00103843 0)
(-5.06112e-10 -0.00103835 0)
(2.61364e-08 -0.00103844 0)
(1.75064e-08 -0.00103854 0)
(-2.02799e-08 -0.00103854 0)
(-3.04994e-08 -0.00103843 0)
(-3.40058e-10 -0.00103835 0)
(2.81836e-08 -0.00103844 0)
(1.82657e-08 -0.00103854 0)
(-2.09095e-08 -0.00103854 0)
(-3.21331e-08 -0.00103843 0)
(-1.85761e-10 -0.00103835 0)
(2.99607e-08 -0.00103844 0)
(1.89006e-08 -0.00103854 0)
(-2.14136e-08 -0.00103854 0)
(-3.35129e-08 -0.00103843 0)
(-4.2775e-11 -0.00103836 0)
(3.14808e-08 -0.00103844 0)
(1.94174e-08 -0.00103854 0)
(-2.17993e-08 -0.00103853 0)
(-3.46522e-08 -0.00103843 0)
(8.93406e-11 -0.00103836 0)
(3.27572e-08 -0.00103844 0)
(1.98223e-08 -0.00103854 0)
(-2.20734e-08 -0.00103853 0)
(-3.55645e-08 -0.00103843 0)
(2.11019e-10 -0.00103836 0)
(3.38034e-08 -0.00103844 0)
(2.01217e-08 -0.00103854 0)
(-2.2243e-08 -0.00103853 0)
(-3.62637e-08 -0.00103843 0)
(3.22687e-10 -0.00103836 0)
(3.46327e-08 -0.00103844 0)
(2.03221e-08 -0.00103853 0)
(-2.23155e-08 -0.00103853 0)
(-3.67635e-08 -0.00103843 0)
(4.24766e-10 -0.00103836 0)
(3.52591e-08 -0.00103844 0)
(2.04301e-08 -0.00103853 0)
(-2.2298e-08 -0.00103853 0)
(-3.70782e-08 -0.00103843 0)
(5.17673e-10 -0.00103836 0)
(3.56963e-08 -0.00103844 0)
(2.04525e-08 -0.00103853 0)
(-2.21979e-08 -0.00103853 0)
(-3.7222e-08 -0.00103843 0)
(6.01817e-10 -0.00103836 0)
(3.59584e-08 -0.00103844 0)
(2.0396e-08 -0.00103853 0)
(-2.20228e-08 -0.00103853 0)
(-3.72091e-08 -0.00103843 0)
(6.77608e-10 -0.00103836 0)
(3.60597e-08 -0.00103845 0)
(2.02678e-08 -0.00103853 0)
(-2.17803e-08 -0.00103853 0)
(-3.70542e-08 -0.00103844 0)
(7.45448e-10 -0.00103836 0)
(3.60146e-08 -0.00103845 0)
(2.00748e-08 -0.00103853 0)
(-2.14781e-08 -0.00103853 0)
(-3.6772e-08 -0.00103844 0)
(8.05742e-10 -0.00103837 0)
(3.58375e-08 -0.00103845 0)
(1.98242e-08 -0.00103853 0)
(-2.1124e-08 -0.00103853 0)
(-3.63774e-08 -0.00103844 0)
(8.58889e-10 -0.00103837 0)
(3.55432e-08 -0.00103845 0)
(1.95235e-08 -0.00103853 0)
(-2.0726e-08 -0.00103852 0)
(-3.58854e-08 -0.00103844 0)
(9.05292e-10 -0.00103837 0)
(3.51466e-08 -0.00103845 0)
(1.91799e-08 -0.00103853 0)
(-2.02922e-08 -0.00103852 0)
(-3.53112e-08 -0.00103844 0)
(9.45355e-10 -0.00103837 0)
(3.46627e-08 -0.00103845 0)
(1.8801e-08 -0.00103853 0)
(-1.98307e-08 -0.00103852 0)
(-3.46702e-08 -0.00103844 0)
(9.79484e-10 -0.00103837 0)
(3.41068e-08 -0.00103845 0)
(1.83946e-08 -0.00103852 0)
(-1.935e-08 -0.00103852 0)
(-3.39781e-08 -0.00103844 0)
(1.00809e-09 -0.00103837 0)
(3.34944e-08 -0.00103845 0)
(1.79684e-08 -0.00103852 0)
(-1.88584e-08 -0.00103852 0)
(-3.32506e-08 -0.00103844 0)
(1.0316e-09 -0.00103837 0)
(3.28409e-08 -0.00103845 0)
(1.75304e-08 -0.00103852 0)
(-1.83646e-08 -0.00103852 0)
(-3.25038e-08 -0.00103844 0)
(1.05044e-09 -0.00103837 0)
(3.21624e-08 -0.00103845 0)
(1.70886e-08 -0.00103852 0)
(-1.78774e-08 -0.00103852 0)
(-3.17539e-08 -0.00103844 0)
(1.06505e-09 -0.00103838 0)
(3.14749e-08 -0.00103845 0)
(1.66513e-08 -0.00103852 0)
(-1.74057e-08 -0.00103852 0)
(-3.10175e-08 -0.00103844 0)
(1.07589e-09 -0.00103838 0)
(3.07947e-08 -0.00103845 0)
(1.62268e-08 -0.00103852 0)
(-1.69588e-08 -0.00103852 0)
(-3.03113e-08 -0.00103844 0)
(1.08344e-09 -0.00103838 0)
(3.01386e-08 -0.00103845 0)
(1.58238e-08 -0.00103852 0)
(-1.65461e-08 -0.00103852 0)
(-2.96526e-08 -0.00103844 0)
(1.0882e-09 -0.00103838 0)
(2.95234e-08 -0.00103845 0)
(1.54509e-08 -0.00103852 0)
(-1.6177e-08 -0.00103852 0)
(-2.90587e-08 -0.00103844 0)
(1.09068e-09 -0.00103838 0)
(2.89663e-08 -0.00103845 0)
(1.5117e-08 -0.00103852 0)
(-1.58616e-08 -0.00103851 0)
(-2.85475e-08 -0.00103844 0)
(1.09144e-09 -0.00103838 0)
(2.8485e-08 -0.00103845 0)
(1.48314e-08 -0.00103852 0)
(-1.56104e-08 -0.00103851 0)
(-2.81379e-08 -0.00103844 0)
(1.09109e-09 -0.00103838 0)
(2.80982e-08 -0.00103845 0)
(1.46038e-08 -0.00103852 0)
(-1.54354e-08 -0.00103851 0)
(-2.7851e-08 -0.00103844 0)
(1.09034e-09 -0.00103838 0)
(2.78267e-08 -0.00103845 0)
(1.44452e-08 -0.00103851 0)
(-1.53479e-08 -0.00103851 0)
(-2.77071e-08 -0.00103844 0)
(1.0899e-09 -0.00103838 0)
(2.76905e-08 -0.00103845 0)
(1.43661e-08 -0.00103851 0)
)
;

boundaryField
{
    BotWall
    {
        type            fixedValue;
        value           uniform (0 0 0);
    }
    FreeStream
    {
        type            zeroGradient;
    }
    FrontNBack
    {
        type            empty;
    }
    LeftSide
    {
        type            symmetryPlane;
    }
    RightSide
    {
        type            symmetryPlane;
    }
}


// ************************************************************************* //
