/*--------------------------------*- C++ -*----------------------------------*\
| =========                 |                                                 |
| \\      /  F ield         | OpenFOAM: The Open Source CFD Toolbox           |
|  \\    /   O peration     | Version:  2.4.0                                 |
|   \\  /    A nd           | Web:      www.OpenFOAM.org                      |
|    \\/     M anipulation  |                                                 |
\*---------------------------------------------------------------------------*/
FoamFile
{
    version     2.0;
    format      ascii;
    class       volScalarField;
    location    "1";
    object      alpha1;
}
// * * * * * * * * * * * * * * * * * * * * * * * * * * * * * * * * * * * * * //

dimensions      [0 0 0 0 0 0 0];

internalField   nonuniform List<scalar> 
8000
(
1
1
1
1
1
1
1
1
1
1
1
1
1
1
1
0.999999
0.999999
0.999999
0.999596
0.627046
0.0267585
0.000207169
4.65606e-06
2.79295e-06
2.34647e-06
2.19096e-06
1.97115e-06
1.6809e-06
1.49872e-06
1.42501e-06
1.31959e-06
1.23791e-06
1.17232e-06
1.11606e-06
1.02453e-06
1.02982e-06
8.45404e-07
1.41042e-06
1.15466e-06
1.00527e-06
1.1877e-06
9.97836e-07
8.40067e-07
8.6906e-07
8.06836e-07
5.34171e-07
9.75186e-07
7.69739e-07
6.86603e-07
8.19179e-07
1
1
1
1
1
1
1
1
1
1
1
1
1
1
0.999999
0.999999
0.999999
0.999321
0.531317
0.0141881
0.000106737
4.60807e-06
3.42041e-06
2.76115e-06
3.07072e-06
2.95478e-06
2.6183e-06
1.79094e-06
1.34052e-06
1.35072e-06
1.23003e-06
1.11778e-06
1.03787e-06
9.76981e-07
8.25079e-07
1.03574e-06
8.35536e-07
7.24401e-07
7.59332e-07
7.00196e-07
6.33059e-07
5.91295e-07
4.0669e-07
8.69632e-07
5.34537e-07
4.09937e-07
7.21652e-07
5.87648e-07
5.0126e-07
4.65955e-07
1
1
1
1
1
1
1
1
1
1
1
1
1
0.999999
0.999999
0.999999
0.99926
0.536307
0.0129952
0.000104649
5.79355e-06
4.49294e-06
3.2627e-06
1.9821e-06
2.68559e-06
3.71868e-06
3.71893e-06
2.12932e-06
7.6196e-07
8.77064e-07
9.67152e-07
7.57129e-07
7.43112e-07
7.03764e-07
6.70164e-07
6.20289e-07
5.88753e-07
3.07452e-07
9.44159e-07
4.66005e-07
4.36953e-07
4.13853e-07
3.99073e-07
3.60648e-07
3.58459e-07
3.59381e-07
3.37009e-07
3.30364e-07
3.31826e-07
3.35585e-07
1
1
1
1
1
1
1
1
1
1
1
1
1
0.999999
0.999999
0.99986
0.775919
0.0443328
0.000310331
0.000185578
2.46944e-05
7.87612e-06
3.24525e-06
1.97902e-06
1.09346e-06
8.66421e-07
6.76798e-07
6.23037e-07
6.2848e-07
5.29367e-07
4.95482e-07
4.84851e-07
4.57593e-07
4.21737e-07
3.83866e-07
3.49442e-07
3.21184e-07
3.00024e-07
2.36378e-07
2.44808e-07
2.53948e-07
2.58843e-07
2.63622e-07
2.70119e-07
2.78458e-07
2.8809e-07
2.98314e-07
3.0851e-07
3.1823e-07
3.27215e-07
1
1
1
1
1
1
1
1
1
1
1
1
1
1
0.999999
0.999995
0.999229
0.352036
0.0101691
0.0132957
0.000520932
0.00026363
2.12647e-06
7.7201e-07
7.59653e-07
5.99274e-07
4.66547e-07
4.11724e-07
3.50776e-07
2.98317e-07
2.6902e-07
2.47178e-07
2.30692e-07
2.1981e-07
2.15166e-07
2.15806e-07
2.19956e-07
2.27082e-07
2.36279e-07
2.46817e-07
2.58163e-07
2.70173e-07
2.82544e-07
2.95026e-07
3.07298e-07
3.19176e-07
3.3048e-07
3.41108e-07
3.51019e-07
3.6024e-07
1
1
1
1
1
1
1
1
1
1
1
1
1
1
1
0.999999
0.999998
0.999398
0.998808
0.401316
0.0254209
0.0311661
0.000395449
0.000182841
1.4835e-06
6.71907e-07
5.13188e-07
4.72741e-07
3.87971e-07
3.26713e-07
3.1577e-07
3.06933e-07
2.91445e-07
2.69562e-07
2.53637e-07
2.43293e-07
2.32447e-07
2.25793e-07
2.21579e-07
2.18059e-07
2.13753e-07
2.12144e-07
2.12617e-07
2.16013e-07
2.20652e-07
2.26511e-07
2.3294e-07
2.39823e-07
2.47129e-07
2.54914e-07
1
1
1
1
1
1
1
1
1
1
1
1
1
1
1
1
0.999999
1
0.999999
0.999556
0.998285
0.955418
0.236123
0.0433318
0.0279376
0.00274707
8.42828e-05
0.000114233
4.66344e-05
5.24516e-07
5.44026e-07
6.13106e-07
6.34175e-07
5.15686e-07
4.574e-07
4.42081e-07
3.75304e-07
3.36539e-07
3.16215e-07
2.96012e-07
2.32832e-07
1.86928e-07
1.36895e-07
1.10185e-07
8.73313e-08
7.53644e-08
6.76069e-08
6.30673e-08
6.05251e-08
5.91294e-08
1
1
1
1
1
1
1
1
1
1
1
1
1
1
1
1
1
1
1
1
0.999999
0.999999
0.999597
0.998642
0.981718
0.754864
0.199959
0.0316051
0.0299242
0.00901836
0.000829257
0.000234146
0.000321758
5.00371e-05
1.08403e-06
1.43274e-06
9.58589e-07
7.64343e-07
8.53334e-07
1.0544e-06
6.97253e-07
6.12435e-07
3.63865e-07
2.74784e-07
1.52049e-07
9.59925e-08
5.61337e-08
3.17128e-08
1.85087e-08
1.24243e-08
1
1
1
1
1
1
1
1
1
1
1
1
1
1
1
1
1
1
1
1
1
0.999998
0.999999
0.999999
0.999999
0.999984
0.999771
0.99083
0.982869
0.806935
0.354733
0.0669798
0.0378436
0.0157984
0.00247367
0.000752029
0.000384069
4.6899e-05
1.77717e-06
3.5017e-06
1.2342e-06
1.45897e-06
8.41368e-07
7.66331e-07
3.99701e-07
2.67989e-07
1.6559e-07
9.11687e-08
4.66609e-08
2.18655e-08
1
1
1
1
1
1
1
1
1
1
1
1
1
1
1
1
1
1
1
1
1
1
1
1
0.999999
0.999997
0.999998
0.999999
0.999999
0.999988
0.999826
0.984515
0.975496
0.798518
0.319733
0.0613008
0.0401677
0.0091239
0.000658986
0.000802301
3.56236e-05
2.16402e-06
1.36433e-06
1.49543e-06
7.26334e-07
4.95175e-07
3.6908e-07
2.17701e-07
1.3169e-07
6.48024e-08
1
1
1
1
1
1
1
1
1
1
1
1
1
1
1
1
1
1
1
1
1
1
1
1
1
1
1
0.999999
0.999999
0.999997
0.999998
1
1
0.999986
0.999813
0.964491
0.937731
0.541848
0.113352
0.0426991
0.00647318
0.0011369
0.000275187
9.97833e-06
1.87388e-06
7.2965e-07
1.00892e-06
5.53165e-07
4.7339e-07
2.49659e-07
1
1
1
1
1
1
1
1
1
1
1
1
1
1
1
1
1
1
1
1
1
1
1
1
1
1
1
1
1
1
0.999999
0.999998
0.999997
0.999996
0.999998
0.999999
0.999999
0.999972
0.97476
0.938597
0.513367
0.0923731
0.0360825
0.00307282
0.000865735
5.26268e-05
4.01065e-06
1.14691e-06
1.69919e-06
8.33886e-07
1
1
1
1
1
1
1
1
1
1
1
1
1
1
1
1
1
1
1
1
1
1
1
1
1
1
1
1
1
0.999999
0.999999
0.999999
0.999998
0.999998
0.999998
0.999998
0.999998
0.999998
1
1
0.999965
0.979972
0.840007
0.274617
0.0614927
0.0147498
0.00194921
0.000230087
8.43197e-06
2.3797e-06
1
1
1
1
1
1
1
1
1
1
1
1
1
1
1
1
1
1
1
1
1
1
1
1
1
1
0.999999
0.999999
0.999999
0.999999
0.999999
0.999999
0.999998
0.999998
0.999998
0.999998
0.999998
0.999999
0.999999
1
1
1
1
0.99999
0.917563
0.474842
0.125711
0.0265958
0.00315616
0.000208355
1
1
1
1
1
1
1
1
1
1
1
1
1
1
1
1
1
1
1
1
1
1
1
1
0.999999
0.999999
0.999999
0.999999
0.999998
0.999998
0.999998
0.999998
0.999998
0.999997
0.999997
0.999998
0.999998
0.999999
0.999999
0.999999
1
1
1
1
1
0.995568
0.887928
0.475798
0.127065
0.0186052
1
1
1
1
1
1
1
1
1
1
1
1
1
1
1
1
1
1
1
1
1
1
1
1
1
0.999999
0.999999
0.999999
0.999999
0.999998
0.999998
0.999997
0.999997
0.999997
0.999997
0.999997
0.999998
0.999998
0.999999
0.999999
0.999999
0.999999
0.999998
0.999997
0.999996
0.999997
1
0.975051
0.742211
0.241836
1
1
1
1
1
1
1
1
1
1
1
1
1
1
1
1
1
1
1
1
1
1
1
1
1
1
1
0.999999
0.999999
0.999999
0.999998
0.999998
0.999998
0.999997
0.999997
0.999997
0.999998
0.999998
0.999998
0.999998
0.999998
0.999998
0.999995
0.999989
0.999984
0.999927
0.999966
0.999996
0.972464
0.667317
1
1
1
1
1
1
1
1
1
1
1
1
1
1
1
1
1
1
1
1
1
1
1
1
1
1
1
1
1
0.999999
0.999999
0.999999
0.999999
0.999998
0.999998
0.999998
0.999998
0.999998
0.999998
0.999998
0.999998
0.999997
0.999992
0.99998
0.99992
0.999517
0.999513
0.999905
0.999992
0.827806
1
1
1
1
1
1
1
1
1
1
1
1
1
1
1
1
1
1
1
1
1
1
1
1
1
1
1
1
1
1
1
1
0.999999
0.999999
0.999999
0.999999
0.999999
0.999999
0.999999
0.999999
0.999999
0.999997
0.999988
0.999965
0.999812
0.999258
0.998618
0.999599
0.998425
0.614977
1
1
1
1
1
1
1
1
1
1
1
1
1
1
1
1
1
1
1
1
1
1
1
1
1
1
1
1
1
1
1
1
1
1
1
1
1
1
1
1
0.999999
0.999998
0.999991
0.999968
0.999885
0.999489
0.99869
0.998824
0.999998
0.881719
6.69067e-07
5.02065e-07
1.04754e-06
7.02243e-07
6.74212e-07
6.51866e-07
6.50219e-07
6.4965e-07
4.61271e-07
1.69727e-06
1.20038e-06
6.36593e-07
6.31928e-07
4.26978e-07
1.07943e-06
6.35428e-07
6.56936e-07
6.41748e-07
6.833e-07
6.46312e-07
5.3155e-07
6.87943e-07
6.39998e-07
5.44145e-07
7.30465e-07
6.27646e-07
6.199e-07
6.12131e-07
5.38682e-07
7.6722e-07
8.05123e-07
6.99406e-07
6.49084e-07
6.43563e-07
6.20124e-07
6.02851e-07
5.96602e-07
5.8963e-07
5.79582e-07
5.66004e-07
5.5127e-07
5.37217e-07
5.2546e-07
5.16544e-07
5.09332e-07
5.02188e-07
4.93617e-07
4.82371e-07
4.67588e-07
4.48676e-07
4.35252e-07
4.03118e-07
5.42404e-07
5.77249e-07
4.7957e-07
4.73756e-07
4.69719e-07
4.65261e-07
4.582e-07
4.21037e-07
5.33803e-07
6.54524e-07
6.27627e-07
4.22676e-07
1.0742e-06
5.32395e-07
5.12294e-07
4.93087e-07
4.76691e-07
4.66219e-07
4.60313e-07
4.56874e-07
4.58127e-07
4.63354e-07
4.44243e-07
8.5172e-07
4.73395e-07
4.91374e-07
5.22742e-07
5.57774e-07
5.84996e-07
5.95076e-07
5.90294e-07
5.72326e-07
5.17174e-07
4.29744e-07
1.12855e-06
6.7884e-07
6.83779e-07
5.92877e-07
5.36669e-07
5.15147e-07
9.48472e-07
5.17761e-07
5.15237e-07
5.07652e-07
5.08732e-07
5.13228e-07
5.20987e-07
5.29719e-07
3.3985e-07
3.40379e-07
4.23444e-07
4.1621e-07
3.78686e-07
3.58406e-07
3.53359e-07
3.54463e-07
3.57387e-07
3.60353e-07
3.6874e-07
3.925e-07
4.14447e-07
4.18865e-07
4.03999e-07
3.97514e-07
3.93885e-07
3.93586e-07
3.95938e-07
3.99671e-07
4.04014e-07
4.09197e-07
4.16785e-07
4.28278e-07
4.43679e-07
4.50866e-07
4.67042e-07
4.75676e-07
4.74886e-07
4.65964e-07
4.528e-07
4.38944e-07
4.27324e-07
4.19425e-07
4.15259e-07
4.15447e-07
4.19327e-07
4.23194e-07
4.26216e-07
4.26259e-07
7.62636e-07
5.16688e-07
5.13111e-07
5.11444e-07
5.11327e-07
1.082e-06
5.55906e-07
5.73821e-07
5.9708e-07
6.19125e-07
3.35306e-07
3.41776e-07
3.43722e-07
3.52508e-07
3.58385e-07
3.63536e-07
3.68535e-07
3.73537e-07
3.78381e-07
3.82447e-07
3.84614e-07
3.89513e-07
3.93644e-07
3.96244e-07
5.3114e-07
3.97791e-07
4.09612e-07
4.08628e-07
4.07549e-07
4.05722e-07
4.02556e-07
3.96258e-07
3.94158e-07
3.90744e-07
3.86805e-07
3.81579e-07
3.78886e-07
3.77517e-07
3.92259e-07
3.52166e-07
3.58422e-07
3.49413e-07
3.47925e-07
3.57737e-07
3.75995e-07
4.01854e-07
4.29799e-07
3.11882e-07
1.14506e-06
6.21256e-07
7.11668e-07
7.36476e-07
7.74584e-07
4.3942e-07
1.55705e-06
8.19521e-07
4.26067e-07
1.38935e-06
6.87909e-07
6.44338e-07
3.68857e-07
3.76989e-07
3.84768e-07
3.92327e-07
3.99789e-07
4.07271e-07
4.14882e-07
4.22724e-07
4.30876e-07
4.39377e-07
4.48198e-07
4.5723e-07
4.66318e-07
4.75367e-07
4.84562e-07
4.99307e-07
5.12776e-07
5.28561e-07
5.47029e-07
5.68301e-07
5.9255e-07
6.0207e-07
6.47726e-07
6.95608e-07
7.63564e-07
8.61461e-07
1.00395e-06
1.10228e-06
1.1266e-06
1.00167e-06
1.20232e-06
4.76142e-07
6.707e-07
7.48226e-07
8.1284e-07
1.1439e-06
5.20524e-07
4.36044e-07
5.53464e-07
1.08261e-06
2.56483e-07
4.40706e-07
4.12029e-07
4.0906e-07
3.84215e-07
3.30103e-07
2.99118e-07
2.84123e-07
2.37003e-07
2.145e-07
2.63268e-07
2.72267e-07
2.81936e-07
2.9223e-07
3.03037e-07
3.14198e-07
3.25525e-07
3.3682e-07
3.47887e-07
3.58533e-07
3.68577e-07
3.77851e-07
3.86206e-07
3.93524e-07
3.99738e-07
4.04851e-07
4.08961e-07
4.12259e-07
4.14989e-07
4.1723e-07
7.77823e-07
2.15572e-07
4.49391e-07
4.99448e-07
4.78359e-07
2.35129e-07
2.86476e-07
2.42014e-07
2.27292e-07
2.27755e-07
2.19069e-07
2.13056e-07
2.0321e-07
1.93771e-07
1.85306e-07
1.77321e-07
1.70529e-07
1.63234e-07
1.55522e-07
1.47812e-07
1.41373e-07
1.35249e-07
1.29948e-07
1.24955e-07
1.19701e-07
1.14626e-07
1.09831e-07
1.0504e-07
1.00038e-07
9.52054e-08
5.83393e-08
5.79188e-08
5.77679e-08
5.7851e-08
5.81303e-08
5.85552e-08
5.90661e-08
5.96024e-08
6.01093e-08
6.05413e-08
6.08628e-08
6.10475e-08
6.10773e-08
6.09411e-08
6.0633e-08
6.01513e-08
5.9497e-08
5.86713e-08
5.76725e-08
5.64933e-08
5.51223e-08
5.78602e-08
5.68346e-08
5.6138e-08
5.64289e-08
5.79508e-08
5.78163e-08
5.75797e-08
5.7072e-08
5.63536e-08
5.55729e-08
5.47506e-08
5.38865e-08
5.29641e-08
5.19662e-08
5.08775e-08
4.96842e-08
4.83739e-08
4.69365e-08
4.53648e-08
4.36558e-08
4.1811e-08
3.98359e-08
3.77386e-08
3.55291e-08
3.32187e-08
3.08213e-08
2.83545e-08
2.58405e-08
2.33058e-08
1.00939e-08
9.58427e-09
9.75378e-09
1.01877e-08
1.0703e-08
1.12265e-08
1.17318e-08
1.22093e-08
1.26559e-08
1.30707e-08
1.34532e-08
1.38028e-08
1.41187e-08
1.43996e-08
1.46439e-08
1.48501e-08
1.50162e-08
1.51407e-08
1.52218e-08
1.52578e-08
1.52471e-08
1.51879e-08
1.50788e-08
1.49181e-08
1.47041e-08
1.44358e-08
1.41119e-08
1.37322e-08
1.32968e-08
1.28072e-08
1.22659e-08
1.16766e-08
1.10446e-08
1.03768e-08
9.68095e-09
8.96631e-09
8.24269e-09
7.52028e-09
6.80904e-09
6.11827e-09
5.45607e-09
4.82904e-09
4.24203e-09
3.69813e-09
3.19883e-09
2.74434e-09
2.334e-09
1.96668e-09
1.64107e-09
1.35571e-09
9.93661e-09
5.23119e-09
3.28554e-09
2.57452e-09
2.36249e-09
2.32852e-09
2.35864e-09
2.40857e-09
2.46019e-09
2.50547e-09
2.54053e-09
2.56339e-09
2.57307e-09
2.56913e-09
2.55148e-09
2.5203e-09
2.476e-09
2.41917e-09
2.35058e-09
2.27119e-09
2.18207e-09
2.0844e-09
1.97943e-09
1.86845e-09
1.75276e-09
1.63365e-09
1.51239e-09
1.39024e-09
1.2684e-09
1.14807e-09
1.03041e-09
9.16584e-10
8.07666e-10
7.04673e-10
6.08504e-10
5.19897e-10
4.39395e-10
3.67311e-10
3.03713e-10
2.48431e-10
2.01076e-10
1.61085e-10
1.2777e-10
1.00369e-10
7.80958e-11
6.01834e-11
4.59138e-11
3.46407e-11
2.58026e-11
1.89283e-11
2.84875e-08
1.31147e-08
5.77914e-09
2.53463e-09
1.25524e-09
7.18417e-10
4.8582e-10
3.81151e-10
3.32276e-10
3.08674e-10
2.96255e-10
2.88071e-10
2.8073e-10
2.72677e-10
2.63289e-10
2.52405e-10
2.40082e-10
2.26491e-10
2.11856e-10
1.96436e-10
1.80505e-10
1.64341e-10
1.48222e-10
1.32406e-10
1.17128e-10
1.02591e-10
8.89556e-11
7.63429e-11
6.48316e-11
5.44617e-11
4.52391e-11
3.71415e-11
3.01235e-11
2.41225e-11
1.90628e-11
1.48594e-11
1.14212e-11
8.65434e-12
6.46465e-12
4.76093e-12
3.45755e-12
2.47674e-12
1.75022e-12
1.22002e-12
8.38481e-13
5.67567e-13
3.77724e-13
2.46516e-13
1.57223e-13
9.75641e-14
1.15044e-07
5.70412e-08
2.66067e-08
1.10181e-08
4.86896e-09
2.23473e-09
1.07168e-09
5.33996e-10
2.69974e-10
1.36725e-10
7.06267e-11
3.89719e-11
2.43348e-11
1.76715e-11
1.45217e-11
1.28035e-11
1.16099e-11
1.0583e-11
9.59972e-12
8.63079e-12
7.67978e-12
6.75931e-12
5.88273e-12
5.06143e-12
4.30416e-12
3.61687e-12
3.00269e-12
2.46222e-12
1.99375e-12
1.5937e-12
1.25707e-12
9.77906e-13
7.49757e-13
5.66041e-13
4.20352e-13
3.0667e-13
2.19484e-13
1.53867e-13
1.05487e-13
7.06114e-14
4.60804e-14
2.92773e-14
1.80894e-14
1.08595e-14
6.33018e-15
3.58136e-15
1.9656e-15
1.04561e-15
5.38115e-16
2.67003e-16
4.36036e-07
2.30252e-07
1.21165e-07
5.05289e-08
2.25986e-08
1.04423e-08
5.03314e-09
2.55069e-09
1.31759e-09
6.65971e-10
3.22998e-10
1.48998e-10
6.50204e-11
2.66661e-11
1.0218e-11
3.64956e-12
1.21284e-12
3.87336e-13
1.3349e-13
6.18625e-14
4.21173e-14
3.54587e-14
3.17161e-14
2.85394e-14
2.54425e-14
2.23504e-14
1.9292e-14
1.63317e-14
1.35432e-14
1.09933e-14
8.73106e-15
6.783e-15
5.15344e-15
3.82791e-15
2.77845e-15
1.96922e-15
1.36136e-15
9.16677e-16
6.00152e-16
3.81245e-16
2.34438e-16
1.39198e-16
7.95941e-17
4.37171e-17
2.30094e-17
1.1582e-17
5.56814e-18
2.55579e-18
1.12084e-18
4.70349e-19
1.83229e-06
9.52579e-07
6.01389e-07
2.53172e-07
1.12661e-07
5.17681e-08
2.45559e-08
1.24616e-08
6.66685e-09
3.54545e-09
1.81718e-09
8.86023e-10
4.08426e-10
1.76655e-10
7.1156e-11
2.65932e-11
9.05281e-12
2.77489e-12
7.58496e-13
1.82171e-13
3.78538e-14
6.71761e-15
1.01418e-15
1.37846e-16
2.36657e-17
8.74009e-18
5.12519e-18
3.22985e-18
2.01537e-18
1.2332e-18
7.38472e-19
4.31948e-19
2.46225e-19
1.36427e-19
7.32641e-20
3.80214e-20
1.90128e-20
9.1367e-21
4.21034e-21
1.85844e-21
7.86581e-22
3.21107e-22
1.2852e-22
5.23248e-23
2.31024e-23
1.18073e-23
7.0153e-24
4.53274e-24
2.94556e-24
1.82386e-24
1.0439e-05
3.87191e-06
2.55279e-06
1.22344e-06
5.34937e-07
2.44781e-07
1.13248e-07
5.58726e-08
3.04399e-08
1.69548e-08
9.18633e-09
4.74359e-09
2.3146e-09
1.05838e-09
4.4971e-10
1.77793e-10
6.39488e-11
2.06672e-11
5.95273e-12
1.5047e-12
3.28385e-13
6.09049e-14
9.4356e-15
1.1991e-15
1.23079e-16
1.00262e-17
6.30609e-19
2.9975e-20
1.30207e-21
1.97709e-22
9.16731e-23
4.5822e-23
2.20233e-23
1.01127e-23
4.42865e-24
1.84716e-24
7.33004e-25
2.76553e-25
9.91737e-26
3.38043e-26
1.09523e-26
3.37009e-27
9.82042e-28
2.69198e-28
6.85659e-29
1.59063e-29
3.26064e-30
5.63858e-31
7.60287e-32
6.73019e-33
0.00178448
0.000181861
1.7027e-05
3.39665e-06
1.72357e-06
8.82791e-07
4.42439e-07
2.25883e-07
1.24069e-07
7.10483e-08
4.03025e-08
2.2032e-08
1.13828e-08
5.50252e-09
2.46307e-09
1.02776e-09
3.89714e-10
1.32385e-10
4.00486e-11
1.06221e-11
2.43331e-12
4.74234e-13
7.70603e-14
1.02481e-14
1.09898e-15
9.34858e-17
6.13898e-18
3.00914e-19
1.06474e-20
2.75937e-22
6.08741e-24
1.25491e-25
2.88243e-27
2.08738e-28
5.35945e-29
1.5984e-29
4.57712e-30
1.24074e-30
3.16962e-31
7.59651e-32
1.69926e-32
3.52597e-33
6.73516e-34
1.17248e-34
1.83429e-35
2.52592e-36
2.96344e-37
2.80324e-38
1.92467e-39
7.36999e-41
0.0375365
0.00388468
0.000238874
5.98767e-06
3.82307e-06
2.53645e-06
1.5043e-06
8.30827e-07
4.62037e-07
2.68553e-07
1.59145e-07
9.19657e-08
5.04207e-08
2.58674e-08
1.22631e-08
5.39174e-09
2.15054e-09
7.64018e-10
2.40601e-10
6.6098e-11
1.56427e-11
3.19909e-12
5.46581e-13
7.62659e-14
8.57109e-15
7.64274e-16
5.27132e-17
2.72836e-18
1.03116e-19
2.90548e-21
6.98605e-23
1.52997e-24
3.07867e-26
5.59637e-28
9.94099e-30
3.79458e-31
6.0967e-32
1.32834e-32
2.79449e-33
5.51114e-34
1.01065e-34
1.70895e-35
2.63664e-36
3.66113e-37
4.49197e-38
4.74611e-39
4.15687e-40
2.83847e-41
1.34876e-42
3.36636e-44
0.152088
0.0122126
0.000417848
7.84835e-06
5.86944e-06
3.96171e-06
2.38204e-06
1.38829e-06
8.42805e-07
5.35751e-07
3.41496e-07
2.09729e-07
1.21895e-07
6.65491e-08
3.39793e-08
1.60088e-08
6.79378e-09
2.56556e-09
8.63576e-10
2.56558e-10
6.6187e-11
1.44695e-11
2.63027e-12
3.89927e-13
4.66101e-14
4.43059e-15
3.27106e-16
1.82831e-17
7.58593e-19
2.39453e-20
6.40906e-22
1.52236e-23
3.22807e-25
6.04912e-27
1.00722e-28
1.58708e-30
4.06202e-32
4.46123e-33
8.28533e-34
1.51557e-34
2.57648e-35
4.02242e-36
5.70511e-37
7.25169e-38
8.11178e-39
7.78467e-40
6.171e-41
3.79976e-42
1.62034e-43
3.59886e-45
0.214207
0.0149253
0.000355348
9.80073e-06
7.79096e-06
5.08206e-06
3.05281e-06
1.8667e-06
1.22032e-06
8.30639e-07
5.59761e-07
3.61675e-07
2.21496e-07
1.28193e-07
6.9694e-08
3.52069e-08
1.62526e-08
6.73896e-09
2.4775e-09
7.91476e-10
2.17325e-10
5.05854e-11
9.76923e-12
1.53481e-12
1.96064e-13
2.00588e-14
1.60387e-15
9.82068e-17
4.54496e-18
1.6245e-19
4.83425e-21
1.23761e-22
2.75516e-24
5.34966e-26
9.17995e-28
1.42421e-29
2.06269e-31
2.88852e-33
4.03476e-35
5.61565e-37
7.74501e-39
1.05445e-40
1.41483e-42
1.86747e-44
2.43016e-46
3.18064e-48
4.56193e-50
8.43454e-52
1.85939e-53
2.93331e-55
0.0403434
0.00104733
3.45886e-05
1.12887e-05
5.78179e-06
3.49538e-06
2.21606e-06
1.49488e-06
1.06423e-06
7.61152e-07
5.27318e-07
3.48906e-07
2.19815e-07
1.31612e-07
7.44851e-08
3.94439e-08
1.92723e-08
8.5494e-09
3.38445e-09
1.17418e-09
3.51045e-10
8.89524e-11
1.8788e-11
3.24998e-12
4.54968e-13
5.10428e-14
4.51963e-15
3.10836e-16
1.64284e-17
6.73576e-19
2.23073e-20
6.17283e-22
1.45986e-23
3.00031e-25
5.49404e-27
9.24757e-29
1.48041e-30
2.33001e-32
3.70045e-34
5.91453e-36
9.42341e-38
1.48377e-39
2.29612e-41
3.4767e-43
5.13595e-45
7.38966e-47
1.0341e-48
1.40607e-50
1.8564e-52
2.37737e-54
0.0513861
0.00114973
5.15775e-05
1.18692e-05
4.93665e-06
2.91457e-06
1.84497e-06
1.21627e-06
8.66385e-07
6.38262e-07
4.60621e-07
3.17801e-07
2.08585e-07
1.30208e-07
7.7052e-08
4.28297e-08
2.20352e-08
1.0305e-08
4.29856e-09
1.57032e-09
4.9378e-10
1.31475e-10
2.91788e-11
5.30922e-12
7.83685e-13
9.31191e-14
8.79831e-15
6.51776e-16
3.74086e-17
1.66071e-18
5.87739e-20
1.7721e-21
4.71775e-23
1.13068e-24
2.50731e-26
5.21544e-28
1.03421e-29
1.98957e-31
3.77092e-33
7.08899e-35
1.31779e-36
2.40298e-38
4.26538e-40
7.33096e-42
1.21636e-43
1.94575e-45
2.99975e-47
4.45738e-49
6.38492e-51
8.81847e-53
4.37093e-07
2.6626e-07
7.65842e-07
3.78139e-07
3.62225e-07
3.45431e-07
3.27989e-07
3.10204e-07
2.92373e-07
1.78733e-07
4.79963e-07
2.34815e-07
1.54183e-07
3.76956e-07
1.84026e-07
1.69996e-07
1.56591e-07
1.44408e-07
1.34031e-07
1.25719e-07
1.19331e-07
1.14484e-07
1.10774e-07
1.07913e-07
1.05747e-07
1.04188e-07
1.0313e-07
1.02396e-07
1.01735e-07
1.00851e-07
9.94664e-08
9.73588e-08
9.43841e-08
9.04788e-08
8.56535e-08
7.9982e-08
7.35913e-08
6.66511e-08
5.93614e-08
5.19378e-08
4.45951e-08
3.75333e-08
3.09248e-08
2.49067e-08
1.95763e-08
1.4989e-08
1.11594e-08
8.06346e-09
5.64453e-09
3.82129e-09
2.49782e-09
1.57407e-09
9.54956e-10
5.57013e-10
3.11981e-10
1.67594e-10
8.62518e-11
4.24801e-11
2.00013e-11
8.99377e-12
3.85838e-12
1.57768e-12
6.14274e-13
2.27515e-13
8.00823e-14
2.67618e-14
8.48226e-15
2.5473e-15
7.24043e-16
1.94579e-16
4.93842e-17
1.18231e-17
2.66683e-18
5.66003e-19
1.12878e-19
2.11218e-20
3.70263e-21
6.07043e-22
9.29117e-23
1.32497e-23
1.75668e-24
2.16019e-25
2.45734e-26
2.5783e-27
2.48692e-28
2.19699e-29
1.76999e-30
1.29403e-31
8.53571e-33
5.04519e-34
2.65015e-35
1.22463e-36
4.91488e-38
1.68473e-39
4.82123e-41
1.11443e-42
1.97391e-44
2.43776e-46
1.987e-48
8.98123e-51
1.33439e-53
9.0461e-57
3.45269e-61
1.12154e-67
5.65157e-77
1.87378e-89
0
0
0
0
0
0
0
0
0
0
0
0
0
0
0
0
0
0
0
0
0
0
0
0
0
0
0
0
0
0
0
0
0
0
0
0
0
0
0
0
0
0
0
0
0
0
0
0
0
0
0
0
0
0
0
0
0
0
0
0
0
0
0
0
0
0
0
0
0
0
0
0
0
0
0
0
0
0
0
0
0
0
0
0
0
0
0
0
0
0
0
0
0
0
0
0
0
0
0
0
0
0
0
0
0
0
0
0
0
0
0
0
0
0
0
0
0
0
0
0
0
0
0
0
0
0
0
0
0
0
0
0
0
0
0
0
0
0
0
0
0
0
0
0
0
0
0
0
0
0
0
0
0
0
0
0
0
0
0
0
0
0
0
0
0
0
0
0
0
0
0
0
0
0
0
0
0
0
0
0
0
0
0
0
0
0
0
0
0
0
0
0
0
0
5.34244e-07
5.31259e-07
5.34257e-07
5.34242e-07
5.23589e-07
5.14064e-07
4.97639e-07
4.78673e-07
4.53961e-07
4.2858e-07
4.01167e-07
6.53415e-07
3.13795e-07
2.68212e-07
4.65057e-07
2.17088e-07
1.93126e-07
1.73088e-07
1.56012e-07
1.42209e-07
1.31694e-07
1.23993e-07
1.18429e-07
1.14133e-07
1.11327e-07
1.09491e-07
1.08498e-07
1.08167e-07
1.08417e-07
1.08686e-07
1.09296e-07
1.09637e-07
1.09333e-07
1.08029e-07
1.05463e-07
1.01502e-07
9.61519e-08
8.9544e-08
8.1911e-08
7.3547e-08
6.47711e-08
5.58948e-08
4.72028e-08
3.89425e-08
3.13208e-08
2.45008e-08
1.85955e-08
1.3661e-08
9.69232e-09
6.6276e-09
4.35972e-09
2.75423e-09
1.6684e-09
9.67684e-10
5.3666e-10
2.84202e-10
1.43538e-10
6.90529e-11
3.16038e-11
1.3744e-11
5.67254e-12
2.2192e-12
8.21918e-13
2.87816e-13
9.51658e-14
2.96707e-14
8.71019e-15
2.40393e-15
6.22743e-16
1.51162e-16
3.4318e-17
7.2724e-18
1.43538e-18
2.63239e-19
4.47388e-20
7.02576e-21
1.01611e-21
1.34833e-22
1.63451e-23
1.80111e-24
1.79343e-25
1.60229e-26
1.27331e-27
8.90266e-29
5.39923e-30
2.78613e-31
1.18883e-32
4.13818e-34
1.15455e-35
2.45875e-37
3.73524e-39
4.46493e-41
3.074e-43
1.03963e-45
4.32497e-49
1.59993e-51
1.14304e-54
1.87886e-58
3.55078e-61
1.4721e-64
1.24864e-69
1.47127e-73
2.79591e-80
0
0
0
0
0
0
0
0
0
0
0
0
0
0
0
0
0
0
0
0
0
0
0
0
0
0
0
0
0
0
0
0
0
0
0
0
0
0
0
0
0
0
0
0
0
0
0
0
0
0
0
0
0
0
0
0
0
0
0
0
0
0
0
0
0
0
0
0
0
0
0
0
0
0
0
0
0
0
0
0
0
0
0
0
0
0
0
0
0
0
0
0
0
0
0
0
0
0
0
0
0
0
0
0
0
0
0
0
0
0
0
0
0
0
0
0
0
0
0
0
0
0
0
0
0
0
0
0
0
0
0
0
0
0
0
0
0
0
0
0
0
0
0
0
0
0
0
0
0
0
0
0
0
0
0
0
0
0
0
0
0
0
0
0
0
0
0
0
0
0
0
0
0
0
0
0
0
0
0
0
0
0
0
0
0
0
0
0
0
0
0
0
0
0
0
0
0
5.3667e-07
1.14222e-06
5.59631e-07
5.27673e-07
1.02246e-06
5.16213e-07
8.1904e-07
3.97125e-07
6.82897e-07
3.46006e-07
6.02019e-07
3.12849e-07
5.20669e-07
2.65259e-07
1.63338e-07
5.4262e-07
2.69007e-07
2.43664e-07
2.1567e-07
1.89633e-07
1.64944e-07
1.46538e-07
1.20439e-07
1.86079e-07
1.18208e-07
1.15849e-07
1.1271e-07
1.18169e-07
9.40048e-08
2.56707e-07
1.32743e-07
1.2494e-07
1.12125e-07
1.01193e-07
9.35813e-08
8.79692e-08
8.29643e-08
7.78118e-08
7.22392e-08
6.62091e-08
5.97571e-08
5.2926e-08
4.57817e-08
3.8466e-08
3.12256e-08
2.43803e-08
1.82467e-08
1.30583e-08
8.92038e-09
5.80841e-09
3.60032e-09
2.12156e-09
1.18682e-09
6.29326e-10
3.15824e-10
1.49757e-10
6.69833e-11
2.8212e-11
1.11688e-11
4.1484e-12
1.44279e-12
4.68915e-13
1.4211e-13
4.00712e-14
1.04887e-14
2.54268e-15
5.69566e-16
1.17597e-16
2.24365e-17
3.96535e-18
6.51179e-19
9.98869e-20
1.44152e-20
1.97507e-21
2.60731e-22
3.33027e-23
4.04491e-24
4.62181e-25
4.90897e-26
4.77077e-27
4.17776e-28
3.25211e-29
2.20814e-30
1.27962e-31
6.11697e-33
2.26068e-34
5.40811e-36
4.87739e-38
1.30328e-44
1.03589e-46
6.66508e-49
2.32073e-51
2.28553e-54
1.81955e-57
2.97652e-60
2.06241e-63
1.05667e-67
4.84098e-74
1.29908e-80
0
0
0
0
0
0
0
0
0
0
0
0
0
0
0
0
0
0
0
0
0
0
0
0
0
0
0
0
0
0
0
0
0
0
0
0
0
0
0
0
0
0
0
0
0
0
0
0
0
0
0
0
0
0
0
0
0
0
0
0
0
0
0
0
0
0
0
0
0
0
0
0
0
0
0
0
0
0
0
0
0
0
0
0
0
0
0
0
0
0
0
0
0
0
0
0
0
0
0
0
0
0
0
0
0
0
0
0
0
0
0
0
0
0
0
0
0
0
0
0
0
0
0
0
0
0
0
0
0
0
0
0
0
0
0
0
0
0
0
0
0
0
0
0
0
0
0
0
0
0
0
0
0
0
0
0
0
0
0
0
0
0
0
0
0
0
0
0
0
0
0
0
0
0
0
0
0
0
0
0
0
0
0
0
0
0
0
0
0
0
0
0
0
0
0
0
0
0
0
0
0
6.11344e-07
6.08871e-07
3.06251e-07
9.1134e-07
4.80556e-07
4.32841e-07
4.02197e-07
3.58285e-07
3.32532e-07
2.95874e-07
2.71628e-07
2.38399e-07
2.16125e-07
1.87474e-07
1.5405e-07
1.63912e-07
1.38752e-07
1.13003e-07
1.16151e-07
1.05226e-07
2.44938e-07
1.29216e-07
1.99729e-07
1.0735e-07
1.3852e-07
1.04259e-07
1.95796e-07
9.50602e-08
9.06539e-08
1.02058e-07
8.95684e-08
8.39257e-08
7.93233e-08
7.49384e-08
7.02973e-08
6.50763e-08
5.90872e-08
5.23176e-08
4.49528e-08
3.73421e-08
2.99089e-08
2.30607e-08
1.70905e-08
1.21616e-08
8.30418e-09
5.43929e-09
3.41818e-09
2.06169e-09
1.19425e-09
6.65292e-10
3.56284e-10
1.83364e-10
9.0617e-11
4.29422e-11
1.94866e-11
8.44957e-12
3.48921e-12
1.36827e-12
5.07928e-13
1.77953e-13
5.86688e-14
1.8153e-14
5.25675e-15
1.42078e-15
3.57448e-16
8.34837e-17
1.80506e-17
3.60286e-18
6.62055e-19
1.11757e-19
1.7304e-20
2.45678e-21
3.20329e-22
3.8535e-23
4.33981e-24
4.66213e-25
4.78237e-26
4.70441e-27
4.42935e-28
3.9197e-29
3.18395e-30
2.33091e-31
1.49032e-32
8.10987e-34
3.60968e-35
1.21194e-36
2.35041e-38
1.22388e-40
3.31599e-46
2.45396e-48
1.45815e-50
4.64796e-53
4.14772e-56
2.95288e-59
4.24853e-62
2.55435e-65
1.11789e-69
4.25597e-76
9.193e-83
0
0
0
0
0
0
0
0
0
0
0
0
0
0
0
0
0
0
0
0
0
0
0
0
0
0
0
0
0
0
0
0
0
0
0
0
0
0
0
0
0
0
0
0
0
0
0
0
0
0
0
0
0
0
0
0
0
0
0
0
0
0
0
0
0
0
0
0
0
0
0
0
0
0
0
0
0
0
0
0
0
0
0
0
0
0
0
0
0
0
0
0
0
0
0
0
0
0
0
0
0
0
0
0
0
0
0
0
0
0
0
0
0
0
0
0
0
0
0
0
0
0
0
0
0
0
0
0
0
0
0
0
0
0
0
0
0
0
0
0
0
0
0
0
0
0
0
0
0
0
0
0
0
0
0
0
0
0
0
0
0
0
0
0
0
0
0
0
0
0
0
0
0
0
0
0
0
0
0
0
0
0
0
0
0
0
0
0
0
0
0
0
0
0
0
0
0
0
0
0
0
1.94298e-07
1.84486e-07
1.74558e-07
1.72103e-07
1.54167e-07
1.46405e-07
1.39559e-07
1.33771e-07
1.30505e-07
1.3156e-07
1.38106e-07
1.4228e-07
1.26048e-07
9.73643e-08
1.09318e-07
1.07936e-07
2.02257e-07
5.22396e-08
1.00825e-07
9.76814e-08
9.42052e-08
8.69869e-08
8.15524e-08
7.39634e-08
6.91072e-08
6.39872e-08
5.85708e-08
5.04236e-08
4.53671e-08
4.04627e-08
3.518e-08
3.04081e-08
2.60155e-08
2.19963e-08
1.83501e-08
1.50723e-08
1.21559e-08
9.59611e-09
7.39047e-09
5.5353e-09
4.02017e-09
2.82412e-09
1.91451e-09
1.25006e-09
7.84946e-10
4.73479e-10
2.74183e-10
1.52397e-10
8.13302e-11
4.17112e-11
2.05607e-11
9.74491e-12
4.44179e-12
1.94687e-12
8.20396e-13
3.31921e-13
1.28563e-13
4.75396e-14
1.67241e-14
5.57769e-15
1.75739e-15
5.21454e-16
1.45222e-16
3.78385e-17
9.19641e-18
2.07873e-18
4.35671e-19
8.44004e-20
1.50645e-20
2.46927e-21
3.70524e-22
5.07536e-23
6.33331e-24
7.19631e-25
7.48784e-26
7.2281e-27
6.52185e-28
5.58393e-29
4.61082e-30
3.65693e-31
2.72849e-32
1.88059e-33
1.13883e-34
5.87294e-36
2.46676e-37
7.69672e-39
1.27726e-40
3.83866e-43
6.28205e-48
4.41698e-50
2.47919e-52
7.42157e-55
6.17787e-58
4.06568e-61
5.34509e-64
2.92152e-67
1.15944e-71
3.9583e-78
7.6222e-85
0
0
0
0
0
0
0
0
0
0
0
0
0
0
0
0
0
0
0
0
0
0
0
0
0
0
0
0
0
0
0
0
0
0
0
0
0
0
0
0
0
0
0
0
0
0
0
0
0
0
0
0
0
0
0
0
0
0
0
0
0
0
0
0
0
0
0
0
0
0
0
0
0
0
0
0
0
0
0
0
0
0
0
0
0
0
0
0
0
0
0
0
0
0
0
0
0
0
0
0
0
0
0
0
0
0
0
0
0
0
0
0
0
0
0
0
0
0
0
0
0
0
0
0
0
0
0
0
0
0
0
0
0
0
0
0
0
0
0
0
0
0
0
0
0
0
0
0
0
0
0
0
0
0
0
0
0
0
0
0
0
0
0
0
0
0
0
0
0
0
0
0
0
0
0
0
0
0
0
0
0
0
0
0
0
0
0
0
0
0
0
0
0
0
0
0
0
0
0
0
0
9.01135e-08
8.72836e-08
8.43448e-08
8.13139e-08
7.81422e-08
7.50293e-08
7.18932e-08
6.87651e-08
6.56742e-08
6.26267e-08
5.95486e-08
5.61964e-08
5.23634e-08
4.8616e-08
4.58506e-08
4.263e-08
3.94147e-08
3.48762e-08
3.26841e-08
2.96544e-08
2.66917e-08
2.38112e-08
2.10977e-08
1.85331e-08
1.61666e-08
1.39466e-08
1.18838e-08
9.99639e-09
8.34319e-09
6.86521e-09
5.56453e-09
4.44933e-09
3.50745e-09
2.72478e-09
2.08464e-09
1.56904e-09
1.16005e-09
8.40814e-10
5.96062e-10
4.12233e-10
2.77399e-10
1.81151e-10
1.14513e-10
6.99109e-11
4.1136e-11
2.3289e-11
1.26698e-11
6.61782e-12
3.31774e-12
1.59666e-12
7.37657e-13
3.27321e-13
1.39587e-13
5.72524e-14
2.26024e-14
8.5865e-15
3.13343e-15
1.0961e-15
3.66373e-16
1.16594e-16
3.51931e-17
1.00394e-17
2.69586e-18
6.78923e-19
1.59811e-19
3.50462e-20
7.13667e-21
1.34497e-21
2.33762e-22
3.73319e-23
5.45747e-24
7.27442e-25
8.80758e-26
9.65461e-27
9.57524e-28
8.62924e-29
7.09729e-30
5.39822e-31
3.88974e-32
2.69712e-33
1.79657e-34
1.14597e-35
6.50602e-37
3.16124e-38
1.25113e-39
3.65485e-41
5.46808e-43
1.06521e-45
7.76227e-50
5.16799e-52
2.7283e-54
7.62749e-57
5.8774e-60
3.53673e-63
4.18278e-66
2.04028e-69
7.20519e-74
2.14917e-80
3.56629e-87
0
0
0
0
0
0
0
0
0
0
0
0
0
0
0
0
0
0
0
0
0
0
0
0
0
0
0
0
0
0
0
0
0
0
0
0
0
0
0
0
0
0
0
0
0
0
0
0
0
0
0
0
0
0
0
0
0
0
0
0
0
0
0
0
0
0
0
0
0
0
0
0
0
0
0
0
0
0
0
0
0
0
0
0
0
0
0
0
0
0
0
0
0
0
0
0
0
0
0
0
0
0
0
0
0
0
0
0
0
0
0
0
0
0
0
0
0
0
0
0
0
0
0
0
0
0
0
0
0
0
0
0
0
0
0
0
0
0
0
0
0
0
0
0
0
0
0
0
0
0
0
0
0
0
0
0
0
0
0
0
0
0
0
0
0
0
0
0
0
0
0
0
0
0
0
0
0
0
0
0
0
0
0
0
0
0
0
0
0
0
0
0
0
0
0
0
0
0
0
0
0
2.07811e-08
1.94668e-08
1.81694e-08
1.68959e-08
1.5653e-08
1.4447e-08
1.32837e-08
1.21677e-08
1.11026e-08
1.00912e-08
9.13531e-09
8.23662e-09
7.39393e-09
6.60797e-09
5.87924e-09
5.2047e-09
4.58451e-09
4.01664e-09
3.50131e-09
3.02956e-09
2.60234e-09
2.21769e-09
1.87357e-09
1.56779e-09
1.29825e-09
1.06266e-09
8.59031e-10
6.85293e-10
5.39152e-10
4.17876e-10
3.1896e-10
2.39732e-10
1.77386e-10
1.29185e-10
9.25646e-11
6.52148e-11
4.51336e-11
3.06425e-11
2.03737e-11
1.32386e-11
8.38771e-12
5.16897e-12
3.09056e-12
1.78846e-12
9.99387e-13
5.38152e-13
2.7876e-13
1.38709e-13
6.62386e-14
3.03395e-14
1.3325e-14
5.61245e-15
2.26838e-15
8.80605e-16
3.28768e-16
1.18119e-16
4.08206e-17
1.35552e-17
4.31498e-18
1.31257e-18
3.8013e-19
1.04406e-19
2.70733e-20
6.60002e-21
1.50686e-21
3.21035e-22
6.35945e-23
1.16708e-23
1.97684e-24
3.0783e-25
4.38866e-26
5.70265e-27
6.72248e-28
7.15517e-29
6.84807e-30
5.88172e-31
4.52816e-32
3.13982e-33
1.99469e-34
1.18734e-35
6.77071e-37
3.83074e-38
1.96795e-39
8.74448e-41
3.17918e-42
8.53294e-44
1.17255e-45
1.9227e-48
4.50663e-52
2.7743e-54
1.33825e-56
3.3714e-59
2.29744e-62
1.18947e-65
1.16214e-68
4.5092e-72
1.21859e-76