/*--------------------------------*- C++ -*----------------------------------*\
| =========                 |                                                 |
| \\      /  F ield         | OpenFOAM: The Open Source CFD Toolbox           |
|  \\    /   O peration     | Version:  2.4.0                                 |
|   \\  /    A nd           | Web:      www.OpenFOAM.org                      |
|    \\/     M anipulation  |                                                 |
\*---------------------------------------------------------------------------*/
FoamFile
{
    version     2.0;
    format      ascii;
    class       volScalarField;
    location    "1";
    object      p;
}
// * * * * * * * * * * * * * * * * * * * * * * * * * * * * * * * * * * * * * //

dimensions      [1 -1 -2 0 0 0 0];

internalField   nonuniform List<scalar> 
8000
(
-1.66402
-1.70192
-1.74281
-1.78002
-1.81375
-1.84487
-1.87364
-1.90007
-1.92408
-1.9457
-1.96504
-1.98261
-1.99853
-2.00932
-2.00326
-1.97681
-2.01967
-2.42563
-3.28189
-2.56948
-1.40876
-1.35607
-1.35541
-1.35543
-1.35546
-1.35544
-1.35542
-1.3554
-1.35538
-1.35536
-1.35535
-1.35534
-1.35534
-1.35533
-1.35533
-1.35533
-1.35525
-1.355
-1.35514
-1.35511
-1.35511
-1.35518
-1.35519
-1.3552
-1.35521
-1.3551
-1.35514
-1.35525
-1.35524
-1.35526
-2.26887
-2.31792
-2.37046
-2.41795
-2.46078
-2.50013
-2.53636
-2.56943
-2.5993
-2.62615
-2.65059
-2.67258
-2.68657
-2.67631
-2.64128
-2.72078
-3.3279
-4.46563
-2.83364
-1.42383
-1.37949
-1.37877
-1.37881
-1.3788
-1.37874
-1.37867
-1.37863
-1.37858
-1.37852
-1.37847
-1.37843
-1.37839
-1.37835
-1.37831
-1.37822
-1.37819
-1.37825
-1.37823
-1.37821
-1.3782
-1.3782
-1.37818
-1.37809
-1.37792
-1.37808
-1.37802
-1.37806
-1.37813
-1.37814
-1.37814
-3.59489
-3.6554
-3.72011
-3.77757
-3.82793
-3.87282
-3.91263
-3.94752
-3.9775
-4.00332
-4.02475
-4.03594
-4.01924
-3.97467
-4.05292
-4.69687
-5.88402
-3.3869
-1.46403
-1.3983
-1.39829
-1.39889
-1.39904
-1.39856
-1.39905
-1.39873
-1.3989
-1.39913
-1.39929
-1.39947
-1.39959
-1.39978
-1.39989
-1.39999
-1.40009
-1.40017
-1.40024
-1.40019
-1.40003
-1.40033
-1.40038
-1.40044
-1.40048
-1.40052
-1.40056
-1.4006
-1.40063
-1.40065
-1.40068
-1.4007
-5.24821
-5.2741
-5.3029
-5.33399
-5.36936
-5.40903
-5.45385
-5.50319
-5.55846
-5.61885
-5.68351
-5.74309
-5.79655
-5.90261
-6.26693
-6.94794
-6.3628
-1.92761
-1.40967
-1.40332
-1.41515
-1.41932
-1.41927
-1.41972
-1.42017
-1.42059
-1.42093
-1.42124
-1.42151
-1.42175
-1.42197
-1.42216
-1.42234
-1.42249
-1.42263
-1.42275
-1.42286
-1.42295
-1.42302
-1.4231
-1.42317
-1.42322
-1.42327
-1.42331
-1.42334
-1.42337
-1.4234
-1.42342
-1.42343
-1.42344
-9.28102
-9.21761
-9.16486
-9.13551
-9.12693
-9.13795
-9.16699
-9.21555
-9.28262
-9.37091
-9.47813
-9.60081
-9.72158
-9.85724
-10.1698
-11.0482
-12.1159
-7.48901
-1.44616
-1.53557
-1.50528
-1.44703
-1.44738
-1.44848
-1.44881
-1.44888
-1.44879
-1.44866
-1.44851
-1.44836
-1.4482
-1.44806
-1.44793
-1.4478
-1.44767
-1.44756
-1.44744
-1.44733
-1.44722
-1.44712
-1.44701
-1.44691
-1.44682
-1.44673
-1.44664
-1.44655
-1.44647
-1.4464
-1.44632
-1.44625
-5.49264
-5.43133
-5.36455
-5.30671
-5.2578
-5.21677
-5.18233
-5.1551
-5.13403
-5.12032
-5.11324
-5.11617
-5.12512
-5.12324
-5.06533
-5.00191
-5.43226
-7.43267
-9.97927
-11.791
-2.32399
-2.49152
-1.55089
-1.49235
-1.47203
-1.47332
-1.47137
-1.47115
-1.47122
-1.47121
-1.47115
-1.47104
-1.47088
-1.4707
-1.4705
-1.4703
-1.4701
-1.46991
-1.46973
-1.46955
-1.46939
-1.46923
-1.46909
-1.46895
-1.46882
-1.46871
-1.4686
-1.46849
-1.4684
-1.46831
-3.1061
-3.06688
-3.02173
-2.97385
-2.92369
-2.86906
-2.81123
-2.74814
-2.68183
-2.60933
-2.5335
-2.45039
-2.36459
-2.27086
-2.17121
-2.04328
-1.8812
-1.7562
-2.05934
-3.95457
-7.33555
-14.741
-13.9336
-7.07347
-4.32218
-1.73199
-1.52151
-1.50912
-1.50495
-1.4906
-1.48492
-1.48635
-1.48718
-1.48744
-1.48757
-1.48768
-1.48777
-1.48785
-1.48792
-1.48798
-1.48804
-1.48809
-1.48814
-1.48817
-1.48821
-1.48824
-1.48827
-1.48831
-1.48834
-1.48837
-0.59594
-0.571609
-0.540652
-0.506071
-0.467861
-0.425629
-0.379249
-0.328574
-0.27369
-0.214249
-0.150504
-0.0817618
-0.0086353
0.0700135
0.152832
0.241994
0.336683
0.443689
0.560834
0.675068
0.708815
0.376041
-1.10151
-2.71197
-6.98032
-13.1179
-12.7327
-3.69888
-3.43572
-1.58933
-1.55254
-1.51747
-1.5184
-1.51529
-1.50819
-1.51105
-1.51212
-1.51201
-1.51187
-1.51167
-1.51167
-1.51164
-1.51162
-1.5116
-1.51158
-1.51156
-1.51154
-1.51152
-1.5115
-1.51149
0.634444
0.643732
0.656249
0.671691
0.69078
0.713077
0.739154
0.768281
0.801247
0.837087
0.876894
0.919362
0.965991
1.01502
1.06846
1.12391
1.18398
1.24551
1.31278
1.38398
1.46729
1.55718
1.63806
1.67787
1.71508
1.43488
0.659511
-1.25522
-2.55979
-8.50175
-10.7543
-6.12441
-3.34491
-1.35522
-1.57347
-1.54565
-1.52565
-1.53291
-1.53109
-1.53235
-1.53266
-1.53261
-1.53258
-1.53255
-1.53255
-1.53257
-1.53258
-1.5326
-1.53261
-1.53263
1.86451
1.86685
1.87228
1.881
1.89269
1.9074
1.92496
1.94553
1.96889
1.99524
2.02432
2.05638
2.09111
2.12881
2.1691
2.21235
2.25813
2.30681
2.35793
2.41188
2.46833
2.52808
2.59164
2.66046
2.73799
2.82844
2.92455
3.01221
3.12558
2.99575
2.33039
-0.273879
-1.52176
-7.96402
-8.94855
-4.2026
-2.65507
-1.38923
-1.50004
-1.50969
-1.55646
-1.55548
-1.5558
-1.55579
-1.55589
-1.55582
-1.55578
-1.55577
-1.55576
-1.55575
1.99619
1.99826
2.00076
2.00416
2.00878
2.01456
2.02158
2.02972
2.03908
2.04952
2.06115
2.0738
2.0876
2.10236
2.11819
2.13489
2.15259
2.17105
2.19041
2.2104
2.23116
2.25241
2.27428
2.29649
2.31921
2.3427
2.36744
2.39393
2.42348
2.45653
2.48578
2.49306
2.52283
2.34605
1.76596
-2.18664
-5.13263
-8.53653
-6.30092
-3.52019
-1.73356
-1.60956
-1.56582
-1.57626
-1.57635
-1.57643
-1.5764
-1.57648
-1.57652
-1.57657
2.52709
2.52315
2.51989
2.51796
2.51723
2.51759
2.519
2.52145
2.52492
2.52941
2.53486
2.54125
2.54853
2.55665
2.56555
2.57516
2.58541
2.59621
2.60749
2.61911
2.63101
2.64301
2.65504
2.66685
2.67843
2.68938
2.69973
2.70892
2.71704
2.72382
2.73003
2.73531
2.73885
2.73421
2.72271
2.69589
2.66588
2.39153
-0.321224
-3.92272
-7.66383
-4.58036
-2.51424
-1.73678
-1.63344
-1.60131
-1.59972
-1.5998
-1.59972
-1.59988
2.54161
2.52631
2.51014
2.49654
2.48561
2.47692
2.47033
2.46581
2.46335
2.46294
2.46458
2.46824
2.47393
2.48163
2.49135
2.5031
2.51686
2.53267
2.55052
2.57045
2.59247
2.61661
2.6429
2.6714
2.70213
2.73515
2.77052
2.80829
2.84854
2.89135
2.93677
2.9849
3.03586
3.09006
3.1483
3.21072
3.27615
3.34119
3.40017
3.4942
3.45143
0.600285
-4.66471
-5.38521
-3.29847
-1.92004
-1.67209
-1.62681
-1.62237
-1.62213
2.65131
2.62983
2.60861
2.59136
2.57768
2.56697
2.55906
2.55391
2.55154
2.55194
2.55511
2.56104
2.56974
2.58122
2.59551
2.61261
2.6326
2.65546
2.68129
2.7101
2.74201
2.77702
2.8153
2.85682
2.90182
2.95026
3.00244
3.05828
3.11818
3.18202
3.25031
3.32286
3.40035
3.4826
3.57016
3.66295
3.76262
3.86903
3.98233
4.08943
4.18599
4.33472
4.58223
4.60715
-0.313103
-2.98935
-2.36024
-1.80227
-1.6621
-1.64927
1.57908
1.56728
1.5543
1.543
1.53356
1.5257
1.51928
1.51428
1.51071
1.50855
1.50779
1.50843
1.51045
1.51386
1.51864
1.5248
1.53232
1.54122
1.55149
1.56314
1.57616
1.59058
1.60639
1.6236
1.64224
1.66229
1.6838
1.70674
1.73117
1.75705
1.78447
1.81334
1.84379
1.87576
1.90927
1.94417
1.98073
2.0186
2.05814
2.09931
2.14317
2.18737
2.22259
2.24747
2.21843
1.62581
0.110547
-1.2012
-1.48735
-1.61424
0.933239
0.929441
0.926181
0.923646
0.92157
0.919828
0.918407
0.91731
0.916541
0.916096
0.915973
0.916169
0.916681
0.917503
0.918629
0.920049
0.921754
0.923727
0.925953
0.928407
0.931067
0.933902
0.936875
0.939949
0.943074
0.946202
0.94927
0.952215
0.954959
0.957428
0.95952
0.961151
0.962193
0.962581
0.96205
0.960611
0.958033
0.954198
0.948889
0.941992
0.933274
0.922417
0.908968
0.894043
0.879201
0.86519
0.820327
0.431888
-0.261671
-1.2566
-0.411127
-0.407385
-0.404029
-0.40095
-0.397852
-0.394658
-0.391391
-0.388072
-0.38471
-0.381301
-0.377843
-0.374328
-0.370745
-0.367085
-0.363336
-0.359485
-0.355521
-0.351431
-0.347204
-0.342828
-0.338295
-0.333594
-0.328718
-0.323661
-0.318416
-0.31298
-0.307352
-0.301529
-0.295513
-0.289307
-0.282914
-0.27634
-0.269592
-0.262677
-0.25559
-0.248426
-0.241122
-0.23371
-0.226212
-0.21858
-0.210966
-0.203431
-0.195964
-0.18844
-0.180082
-0.149936
-0.141354
-0.150674
-0.265655
-0.742361
-0.970203
-0.946476
-0.920991
-0.900593
-0.885429
-0.874362
-0.86664
-0.861827
-0.859583
-0.859594
-0.861567
-0.865238
-0.870369
-0.876747
-0.88418
-0.892495
-0.901537
-0.911166
-0.921256
-0.931694
-0.94238
-0.953222
-0.96414
-0.975064
-0.985929
-0.996681
-1.00727
-1.01766
-1.0278
-1.03768
-1.04727
-1.05654
-1.06548
-1.07409
-1.08234
-1.09024
-1.09782
-1.10506
-1.11194
-1.11852
-1.12482
-1.13079
-1.1365
-1.14193
-1.14709
-1.06398
-1.06809
-0.989168
-0.963138
-1.1801
-2.63689
-2.57597
-2.5196
-2.47653
-2.4436
-2.41785
-2.39789
-2.3829
-2.37221
-2.36517
-2.36122
-2.35987
-2.3607
-2.36333
-2.36745
-2.37278
-2.37907
-2.38611
-2.39372
-2.40173
-2.41
-2.41842
-2.42687
-2.43526
-2.44352
-2.45157
-2.45937
-2.46685
-2.47399
-2.48074
-2.4871
-2.49304
-2.49856
-2.50365
-2.50834
-2.51263
-2.51655
-2.52015
-2.52347
-2.52658
-2.52957
-2.53254
-2.53547
-2.53804
-2.54013
-2.54386
-2.28618
-2.34008
-2.78438
-2.31868
1.16777
0.781035
0.393097
0.0591423
-0.232187
-0.494684
-0.734242
-0.953483
-1.15448
-1.33923
-1.50951
-1.66684
-1.81253
-1.94767
-2.07321
-2.18997
-2.29865
-2.39988
-2.49417
-2.58199
-2.66375
-2.7398
-2.81044
-2.87595
-2.93655
-2.99245
-3.04381
-3.09079
-3.13351
-3.17205
-3.20648
-3.23684
-3.26316
-3.28542
-3.30357
-3.31755
-3.32723
-3.33246
-3.33302
-3.32865
-3.31901
-3.30372
-3.28235
-3.2543
-3.21796
-3.16814
-2.7338
-2.68398
-2.08788
-1.99115
-1.35528
-1.35521
-1.35506
-1.35525
-1.35527
-1.35528
-1.3553
-1.35532
-1.35525
-1.35468
-1.35494
-1.35497
-1.35498
-1.3549
-1.3546
-1.35483
-1.35485
-1.35485
-1.35484
-1.35486
-1.35482
-1.35482
-1.35485
-1.35481
-1.35481
-1.35486
-1.35486
-1.35486
-1.35482
-1.35482
-1.3548
-1.35486
-1.35486
-1.35486
-1.35485
-1.35485
-1.35485
-1.35485
-1.35485
-1.35485
-1.35485
-1.35485
-1.35485
-1.35485
-1.35485
-1.35485
-1.35485
-1.35485
-1.35486
-1.35486
-1.37813
-1.37812
-1.37812
-1.3781
-1.37814
-1.37814
-1.37814
-1.37814
-1.37813
-1.37811
-1.37813
-1.37807
-1.37806
-1.37796
-1.37763
-1.37789
-1.37788
-1.37787
-1.37786
-1.37785
-1.37783
-1.37782
-1.37781
-1.37779
-1.37777
-1.37755
-1.37773
-1.37772
-1.37772
-1.3777
-1.37768
-1.37767
-1.37765
-1.37764
-1.3776
-1.37754
-1.37719
-1.3774
-1.37738
-1.37736
-1.37732
-1.37729
-1.37705
-1.37726
-1.37724
-1.37723
-1.37721
-1.37719
-1.37718
-1.37716
-1.40071
-1.40072
-1.40073
-1.40074
-1.40075
-1.40075
-1.40075
-1.40075
-1.40074
-1.40073
-1.40072
-1.4007
-1.40068
-1.40066
-1.40065
-1.40063
-1.4006
-1.40058
-1.40055
-1.40053
-1.4005
-1.40048
-1.40045
-1.40043
-1.4004
-1.40037
-1.40034
-1.40031
-1.40028
-1.40026
-1.40023
-1.4002
-1.40017
-1.40014
-1.40011
-1.40008
-1.40005
-1.40002
-1.39999
-1.39996
-1.39977
-1.39987
-1.39984
-1.39981
-1.39978
-1.39946
-1.3997
-1.39967
-1.39965
-1.39962
-1.42345
-1.42346
-1.42346
-1.42346
-1.42345
-1.42345
-1.42344
-1.42343
-1.42342
-1.4234
-1.42339
-1.42337
-1.42335
-1.42333
-1.42325
-1.42329
-1.42327
-1.42325
-1.42323
-1.4232
-1.42318
-1.42315
-1.42313
-1.42311
-1.42308
-1.42306
-1.42303
-1.42301
-1.42298
-1.42296
-1.42293
-1.42291
-1.42288
-1.42286
-1.42284
-1.42281
-1.42279
-1.42272
-1.42232
-1.42256
-1.42258
-1.42256
-1.42254
-1.42236
-1.42179
-1.42214
-1.42193
-1.4219
-1.42224
-1.42222
-1.44618
-1.44612
-1.44605
-1.44599
-1.44593
-1.44588
-1.44582
-1.44577
-1.44572
-1.44567
-1.44562
-1.44557
-1.44553
-1.44548
-1.44544
-1.4454
-1.44535
-1.44531
-1.44527
-1.44523
-1.44519
-1.44515
-1.44511
-1.44507
-1.44503
-1.44499
-1.44495
-1.44489
-1.44484
-1.44486
-1.4448
-1.44476
-1.44482
-1.44481
-1.44477
-1.44456
-1.44483
-1.44475
-1.44476
-1.44446
-1.44482
-1.44486
-1.44483
-1.44479
-1.44476
-1.44473
-1.4447
-1.44468
-1.44465
-1.44462
-1.46823
-1.46815
-1.46808
-1.46801
-1.46795
-1.46789
-1.46783
-1.46777
-1.46772
-1.46768
-1.46763
-1.46758
-1.46754
-1.4675
-1.46746
-1.46743
-1.46739
-1.46736
-1.46732
-1.46729
-1.46708
-1.46723
-1.46731
-1.46727
-1.46726
-1.46722
-1.4672
-1.46717
-1.46715
-1.46712
-1.4671
-1.46708
-1.46705
-1.46703
-1.46701
-1.46699
-1.46697
-1.46695
-1.46693
-1.46691
-1.46689
-1.46688
-1.46686
-1.46684
-1.46682
-1.46681
-1.46679
-1.46677
-1.46676
-1.46674
-1.48839
-1.48842
-1.48845
-1.48847
-1.4885
-1.48852
-1.48854
-1.48857
-1.48859
-1.48861
-1.48862
-1.48864
-1.48866
-1.48867
-1.48869
-1.4887
-1.48872
-1.48873
-1.48874
-1.48875
-1.48876
-1.48877
-1.48878
-1.48879
-1.4888
-1.4888
-1.48881
-1.48882
-1.48882
-1.48883
-1.48883
-1.48884
-1.48884
-1.48884
-1.48885
-1.48885
-1.48885
-1.48885
-1.48886
-1.48886
-1.48886
-1.48886
-1.48886
-1.48886
-1.48886
-1.48886
-1.48886
-1.48886
-1.48885
-1.48885
-1.51147
-1.51146
-1.51144
-1.51143
-1.51142
-1.5114
-1.51139
-1.51138
-1.51137
-1.51136
-1.51136
-1.51135
-1.51134
-1.51133
-1.51132
-1.51132
-1.51131
-1.5113
-1.5113
-1.51129
-1.51129
-1.51128
-1.51128
-1.51127
-1.51127
-1.51126
-1.51126
-1.51125
-1.51125
-1.51124
-1.51124
-1.51123
-1.51123
-1.51122
-1.51122
-1.51121
-1.51121
-1.51121
-1.5112
-1.5112
-1.51119
-1.51119
-1.51118
-1.51118
-1.51118
-1.51117
-1.51117
-1.51116
-1.51116
-1.51116
-1.53264
-1.53266
-1.53268
-1.5327
-1.53271
-1.53273
-1.53275
-1.53277
-1.53278
-1.5328
-1.53282
-1.53284
-1.53285
-1.53287
-1.53289
-1.5329
-1.53292
-1.53293
-1.53295
-1.53297
-1.53298
-1.53299
-1.53301
-1.53302
-1.53304
-1.53305
-1.53306
-1.53307
-1.53309
-1.5331
-1.53311
-1.53312
-1.53313
-1.53314
-1.53315
-1.53316
-1.53317
-1.53318
-1.53319
-1.53319
-1.5332
-1.53321
-1.53322
-1.53322
-1.53323
-1.53323
-1.53324
-1.53324
-1.53325
-1.53325
-1.55574
-1.55573
-1.55572
-1.55571
-1.5557
-1.55569
-1.55569
-1.55568
-1.55568
-1.55567
-1.55567
-1.55566
-1.55566
-1.55566
-1.55566
-1.55565
-1.55565
-1.55565
-1.55565
-1.55565
-1.55565
-1.55565
-1.55565
-1.55565
-1.55565
-1.55564
-1.55564
-1.55564
-1.55564
-1.55565
-1.55565
-1.55565
-1.55565
-1.55565
-1.55565
-1.55565
-1.55565
-1.55565
-1.55565
-1.55565
-1.55565
-1.55565
-1.55565
-1.55565
-1.55565
-1.55566
-1.55566
-1.55566
-1.55566
-1.55566
-1.57662
-1.57667
-1.57672
-1.57676
-1.57681
-1.57685
-1.5769
-1.57694
-1.57698
-1.57702
-1.57705
-1.57709
-1.57712
-1.57716
-1.57719
-1.57722
-1.57725
-1.57728
-1.57731
-1.57734
-1.57736
-1.57739
-1.57741
-1.57743
-1.57746
-1.57748
-1.5775
-1.57752
-1.57754
-1.57756
-1.57757
-1.57759
-1.57761
-1.57762
-1.57764
-1.57765
-1.57767
-1.57768
-1.57769
-1.57771
-1.57772
-1.57773
-1.57774
-1.57775
-1.57776
-1.57777
-1.57778
-1.57779
-1.5778
-1.5778
-1.5999
-1.59992
-1.59995
-1.59997
-1.59999
-1.6
-1.60002
-1.60003
-1.60005
-1.60006
-1.60007
-1.60008
-1.6001
-1.60011
-1.60011
-1.60012
-1.60013
-1.60014
-1.60015
-1.60015
-1.60016
-1.60016
-1.60017
-1.60018
-1.60018
-1.60019
-1.60019
-1.6002
-1.6002
-1.6002
-1.60021
-1.60021
-1.60022
-1.60022
-1.60022
-1.60023
-1.60023
-1.60023
-1.60024
-1.60024
-1.60024
-1.60025
-1.60025
-1.60025
-1.60026
-1.60026
-1.60026
-1.60026
-1.60027
-1.60027
-1.62218
-1.62227
-1.62226
-1.62226
-1.62226
-1.62226
-1.62227
-1.62227
-1.62227
-1.62228
-1.62228
-1.62229
-1.6223
-1.6223
-1.62231
-1.62232
-1.62232
-1.62233
-1.62234
-1.62235
-1.62235
-1.62236
-1.62237
-1.62238
-1.62238
-1.62239
-1.6224
-1.62241
-1.62242
-1.62242
-1.62243
-1.62244
-1.62244
-1.62245
-1.62246
-1.62247
-1.62247
-1.62248
-1.62249
-1.62249
-1.6225
-1.6225
-1.62251
-1.62252
-1.62252
-1.62253
-1.62253
-1.62254
-1.62254
-1.62255
-1.64532
-1.64489
-1.64498
-1.64513
-1.64512
-1.6451
-1.64508
-1.64507
-1.64506
-1.64505
-1.64504
-1.64503
-1.64502
-1.64502
-1.64501
-1.64501
-1.645
-1.645
-1.64499
-1.64499
-1.64498
-1.64498
-1.64498
-1.64498
-1.64498
-1.64497
-1.64497
-1.64497
-1.64497
-1.64497
-1.64497
-1.64497
-1.64497
-1.64497
-1.64497
-1.64497
-1.64497
-1.64497
-1.64497
-1.64497
-1.64498
-1.64498
-1.64498
-1.64498
-1.64498
-1.64498
-1.64498
-1.64499
-1.64499
-1.64499
-1.66032
-1.66655
-1.66733
-1.66734
-1.66735
-1.66735
-1.66735
-1.66734
-1.66734
-1.66734
-1.66733
-1.66733
-1.66733
-1.66733
-1.66732
-1.66732
-1.66732
-1.66732
-1.66732
-1.66732
-1.66732
-1.66732
-1.66732
-1.66732
-1.66732
-1.66732
-1.66732
-1.66732
-1.66732
-1.66733
-1.66733
-1.66733
-1.66733
-1.66733
-1.66733
-1.66733
-1.66734
-1.66734
-1.66734
-1.66734
-1.66734
-1.66734
-1.66734
-1.66735
-1.66735
-1.66735
-1.66735
-1.66735
-1.66735
-1.66736
-1.62433
-1.68502
-1.68944
-1.68963
-1.68964
-1.68965
-1.68965
-1.68966
-1.68967
-1.68967
-1.68968
-1.68968
-1.68969
-1.68969
-1.68969
-1.6897
-1.6897
-1.6897
-1.6897
-1.68971
-1.68971
-1.68971
-1.68971
-1.68971
-1.68972
-1.68972
-1.68972
-1.68972
-1.68972
-1.68972
-1.68972
-1.68972
-1.68973
-1.68973
-1.68973
-1.68973
-1.68973
-1.68973
-1.68973
-1.68973
-1.68973
-1.68973
-1.68974
-1.68974
-1.68974
-1.68974
-1.68974
-1.68974
-1.68974
-1.68974
-1.57708
-1.70792
-1.71215
-1.71222
-1.71223
-1.71222
-1.71222
-1.71222
-1.71222
-1.71222
-1.71221
-1.71221
-1.71221
-1.7122
-1.7122
-1.7122
-1.7122
-1.71219
-1.71219
-1.71219
-1.71219
-1.71218
-1.71218
-1.71218
-1.71218
-1.71218
-1.71218
-1.71217
-1.71217
-1.71217
-1.71217
-1.71217
-1.71217
-1.71217
-1.71217
-1.71217
-1.71216
-1.71216
-1.71216
-1.71216
-1.71216
-1.71216
-1.71216
-1.71216
-1.71216
-1.71216
-1.71216
-1.71216
-1.71216
-1.71216
-1.64874
-1.73319
-1.73468
-1.73461
-1.7346
-1.7346
-1.7346
-1.7346
-1.73459
-1.73459
-1.73458
-1.73458
-1.73457
-1.73457
-1.73457
-1.73456
-1.73456
-1.73456
-1.73455
-1.73455
-1.73455
-1.73455
-1.73454
-1.73454
-1.73454
-1.73454
-1.73454
-1.73454
-1.73453
-1.73453
-1.73453
-1.73453
-1.73453
-1.73453
-1.73453
-1.73453
-1.73453
-1.73453
-1.73452
-1.73452
-1.73452
-1.73452
-1.73452
-1.73452
-1.73452
-1.73452
-1.73452
-1.73452
-1.73452
-1.73452
-1.78288
-1.75786
-1.75715
-1.75705
-1.75707
-1.75708
-1.75708
-1.75707
-1.75707
-1.75706
-1.75706
-1.75705
-1.75704
-1.75704
-1.75703
-1.75703
-1.75702
-1.75702
-1.75701
-1.75701
-1.757
-1.757
-1.75699
-1.75699
-1.75699
-1.75698
-1.75698
-1.75697
-1.75697
-1.75697
-1.75697
-1.75696
-1.75696
-1.75696
-1.75695
-1.75695
-1.75695
-1.75695
-1.75694
-1.75694
-1.75694
-1.75694
-1.75694
-1.75694
-1.75693
-1.75693
-1.75693
-1.75693
-1.75693
-1.75693
-1.78928
-1.77965
-1.7793
-1.77932
-1.77934
-1.77935
-1.77935
-1.77935
-1.77935
-1.77936
-1.77936
-1.77935
-1.77935
-1.77935
-1.77935
-1.77935
-1.77934
-1.77934
-1.77934
-1.77933
-1.77933
-1.77933
-1.77933
-1.77932
-1.77932
-1.77932
-1.77932
-1.77932
-1.77931
-1.77931
-1.77931
-1.77931
-1.77931
-1.7793
-1.7793
-1.7793
-1.7793
-1.7793
-1.7793
-1.77929
-1.77929
-1.77929
-1.77929
-1.77929
-1.77929
-1.77929
-1.77929
-1.77928
-1.77928
-1.77928
-1.35485
-1.3547
-1.35426
-1.35462
-1.35462
-1.35462
-1.35462
-1.35463
-1.35462
-1.35452
-1.35428
-1.35449
-1.35443
-1.35443
-1.35459
-1.3546
-1.3546
-1.3546
-1.3546
-1.3546
-1.3546
-1.3546
-1.3546
-1.3546
-1.3546
-1.3546
-1.3546
-1.3546
-1.3546
-1.3546
-1.3546
-1.3546
-1.3546
-1.3546
-1.3546
-1.3546
-1.3546
-1.35459
-1.35459
-1.35459
-1.35459
-1.35459
-1.35459
-1.35459
-1.35459
-1.35458
-1.35458
-1.35458
-1.35458
-1.35458
-1.35458
-1.35457
-1.35457
-1.35457
-1.35457
-1.35457
-1.35456
-1.35456
-1.35456
-1.35456
-1.35455
-1.35455
-1.35455
-1.35455
-1.35455
-1.35454
-1.35454
-1.35454
-1.35454
-1.35453
-1.35453
-1.35453
-1.35453
-1.35453
-1.35452
-1.35452
-1.35452
-1.35452
-1.35451
-1.35451
-1.35451
-1.35451
-1.3545
-1.3545
-1.3545
-1.3545
-1.35449
-1.35449
-1.35449
-1.35449
-1.35448
-1.35448
-1.35448
-1.35448
-1.35447
-1.35447
-1.35447
-1.35447
-1.35446
-1.35446
-1.35446
-1.35446
-1.35445
-1.35445
-1.35445
-1.35445
-1.35445
-1.35444
-1.35444
-1.35444
-1.35444
-1.35443
-1.35443
-1.35443
-1.35443
-1.35442
-1.35442
-1.35442
-1.35442
-1.35442
-1.35441
-1.35441
-1.35441
-1.35441
-1.3544
-1.3544
-1.3544
-1.3544
-1.3544
-1.35439
-1.35439
-1.35439
-1.35439
-1.35438
-1.35438
-1.35438
-1.35438
-1.35438
-1.35437
-1.35437
-1.35437
-1.35437
-1.35437
-1.35436
-1.35436
-1.35436
-1.35436
-1.35436
-1.35435
-1.35435
-1.35435
-1.35435
-1.35435
-1.35435
-1.35434
-1.35434
-1.35434
-1.35434
-1.35434
-1.35433
-1.35433
-1.35433
-1.35433
-1.35433
-1.35433
-1.35432
-1.35432
-1.35432
-1.35432
-1.35432
-1.35432
-1.35431
-1.35431
-1.35431
-1.35431
-1.35431
-1.35431
-1.3543
-1.3543
-1.3543
-1.3543
-1.3543
-1.3543
-1.3543
-1.35429
-1.35429
-1.35429
-1.35429
-1.35429
-1.35429
-1.35428
-1.35428
-1.35428
-1.35428
-1.35428
-1.35428
-1.35428
-1.35427
-1.35427
-1.35427
-1.35427
-1.35427
-1.35427
-1.35427
-1.35427
-1.35426
-1.35426
-1.35426
-1.35426
-1.35426
-1.35426
-1.35426
-1.35426
-1.35425
-1.35425
-1.35425
-1.35425
-1.35425
-1.35425
-1.35425
-1.35425
-1.35424
-1.35424
-1.35424
-1.35424
-1.35424
-1.35424
-1.35424
-1.35424
-1.35424
-1.35423
-1.35423
-1.35423
-1.35423
-1.35423
-1.35423
-1.35423
-1.35423
-1.35423
-1.35422
-1.35422
-1.35422
-1.35422
-1.35422
-1.35422
-1.35422
-1.35422
-1.35422
-1.35422
-1.35422
-1.35421
-1.35421
-1.35421
-1.35421
-1.35421
-1.35421
-1.35421
-1.35421
-1.35421
-1.35421
-1.35421
-1.35421
-1.3542
-1.3542
-1.3542
-1.3542
-1.3542
-1.3542
-1.3542
-1.3542
-1.3542
-1.3542
-1.3542
-1.3542
-1.3542
-1.3542
-1.3542
-1.35419
-1.35419
-1.35419
-1.35419
-1.35419
-1.35419
-1.35419
-1.35419
-1.35419
-1.35419
-1.35419
-1.35419
-1.35419
-1.35419
-1.35419
-1.35419
-1.35419
-1.35419
-1.35419
-1.35419
-1.35419
-1.35419
-1.35419
-1.37715
-1.37714
-1.37713
-1.37712
-1.37712
-1.37711
-1.3771
-1.37709
-1.37708
-1.37705
-1.37702
-1.3768
-1.37708
-1.37703
-1.37702
-1.37722
-1.37721
-1.37721
-1.3772
-1.37719
-1.37718
-1.37717
-1.37716
-1.37716
-1.37715
-1.37714
-1.37714
-1.37713
-1.37712
-1.37711
-1.37711
-1.3771
-1.3771
-1.37709
-1.37708
-1.37708
-1.37707
-1.37707
-1.37706
-1.37705
-1.37705
-1.37704
-1.37704
-1.37703
-1.37703
-1.37702
-1.37702
-1.37701
-1.37701
-1.377
-1.377
-1.37699
-1.37699
-1.37698
-1.37698
-1.37698
-1.37697
-1.37697
-1.37696
-1.37696
-1.37695
-1.37695
-1.37695
-1.37694
-1.37694
-1.37693
-1.37693
-1.37693
-1.37692
-1.37692
-1.37692
-1.37691
-1.37691
-1.37691
-1.3769
-1.3769
-1.3769
-1.37689
-1.37689
-1.37689
-1.37688
-1.37688
-1.37688
-1.37687
-1.37687
-1.37687
-1.37686
-1.37686
-1.37686
-1.37686
-1.37685
-1.37685
-1.37685
-1.37684
-1.37684
-1.37684
-1.37684
-1.37683
-1.37683
-1.37683
-1.37683
-1.37682
-1.37682
-1.37682
-1.37682
-1.37681
-1.37681
-1.37681
-1.37681
-1.3768
-1.3768
-1.3768
-1.3768
-1.37679
-1.37679
-1.37679
-1.37679
-1.37679
-1.37678
-1.37678
-1.37678
-1.37678
-1.37677
-1.37677
-1.37677
-1.37677
-1.37677
-1.37676
-1.37676
-1.37676
-1.37676
-1.37676
-1.37675
-1.37675
-1.37675
-1.37675
-1.37675
-1.37674
-1.37674
-1.37674
-1.37674
-1.37674
-1.37674
-1.37673
-1.37673
-1.37673
-1.37673
-1.37673
-1.37672
-1.37672
-1.37672
-1.37672
-1.37672
-1.37672
-1.37671
-1.37671
-1.37671
-1.37671
-1.37671
-1.37671
-1.3767
-1.3767
-1.3767
-1.3767
-1.3767
-1.3767
-1.37669
-1.37669
-1.37669
-1.37669
-1.37669
-1.37669
-1.37668
-1.37668
-1.37668
-1.37668
-1.37668
-1.37668
-1.37667
-1.37667
-1.37667
-1.37667
-1.37667
-1.37667
-1.37667
-1.37666
-1.37666
-1.37666
-1.37666
-1.37666
-1.37666
-1.37666
-1.37665
-1.37665
-1.37665
-1.37665
-1.37665
-1.37665
-1.37665
-1.37665
-1.37664
-1.37664
-1.37664
-1.37664
-1.37664
-1.37664
-1.37664
-1.37663
-1.37663
-1.37663
-1.37663
-1.37663
-1.37663
-1.37663
-1.37663
-1.37662
-1.37662
-1.37662
-1.37662
-1.37662
-1.37662
-1.37662
-1.37662
-1.37662
-1.37661
-1.37661
-1.37661
-1.37661
-1.37661
-1.37661
-1.37661
-1.37661
-1.37661
-1.3766
-1.3766
-1.3766
-1.3766
-1.3766
-1.3766
-1.3766
-1.3766
-1.3766
-1.3766
-1.37659
-1.37659
-1.37659
-1.37659
-1.37659
-1.37659
-1.37659
-1.37659
-1.37659
-1.37659
-1.37659
-1.37659
-1.37658
-1.37658
-1.37658
-1.37658
-1.37658
-1.37658
-1.37658
-1.37658
-1.37658
-1.37658
-1.37658
-1.37658
-1.37658
-1.37657
-1.37657
-1.37657
-1.37657
-1.37657
-1.37657
-1.37657
-1.37657
-1.37657
-1.37657
-1.37657
-1.37657
-1.37657
-1.37657
-1.37657
-1.37657
-1.37657
-1.37657
-1.37657
-1.37656
-1.37656
-1.37656
-1.37656
-1.37656
-1.37656
-1.37656
-1.37656
-1.37656
-1.37656
-1.37656
-1.37656
-1.37656
-1.39957
-1.39899
-1.39951
-1.39946
-1.39944
-1.39988
-1.39986
-1.39985
-1.39983
-1.39981
-1.3998
-1.39978
-1.39976
-1.39974
-1.39964
-1.39962
-1.39984
-1.39982
-1.39981
-1.39979
-1.39978
-1.39976
-1.39973
-1.39971
-1.39975
-1.39973
-1.39972
-1.39971
-1.39968
-1.39955
-1.39963
-1.39962
-1.39961
-1.3996
-1.39959
-1.39958
-1.39957
-1.39956
-1.39955
-1.39955
-1.39954
-1.39953
-1.39952
-1.39951
-1.3995
-1.3995
-1.39949
-1.39948
-1.39947
-1.39947
-1.39946
-1.39945
-1.39945
-1.39944
-1.39943
-1.39943
-1.39942
-1.39941
-1.39941
-1.3994
-1.39939
-1.39939
-1.39938
-1.39938
-1.39937
-1.39937
-1.39936
-1.39936
-1.39935
-1.39935
-1.39934
-1.39934
-1.39933
-1.39933
-1.39932
-1.39932
-1.39931
-1.39931
-1.3993
-1.3993
-1.3993
-1.39929
-1.39929
-1.39928
-1.39928
-1.39928
-1.39927
-1.39927
-1.39926
-1.39926
-1.39926
-1.39925
-1.39925
-1.39925
-1.39924
-1.39924
-1.39924
-1.39923
-1.39923
-1.39923
-1.39922
-1.39922
-1.39922
-1.39921
-1.39921
-1.39921
-1.3992
-1.3992
-1.3992
-1.39919
-1.39919
-1.39919
-1.39919
-1.39918
-1.39918
-1.39918
-1.39917
-1.39917
-1.39917
-1.39917
-1.39916
-1.39916
-1.39916
-1.39916
-1.39915
-1.39915
-1.39915
-1.39915
-1.39914
-1.39914
-1.39914
-1.39914
-1.39913
-1.39913
-1.39913
-1.39913
-1.39913
-1.39912
-1.39912
-1.39912
-1.39912
-1.39911
-1.39911
-1.39911
-1.39911
-1.39911
-1.3991
-1.3991
-1.3991
-1.3991
-1.3991
-1.39909
-1.39909
-1.39909
-1.39909
-1.39909
-1.39908
-1.39908
-1.39908
-1.39908
-1.39908
-1.39908
-1.39907
-1.39907
-1.39907
-1.39907
-1.39907
-1.39907
-1.39906
-1.39906
-1.39906
-1.39906
-1.39906
-1.39906
-1.39905
-1.39905
-1.39905
-1.39905
-1.39905
-1.39905
-1.39904
-1.39904
-1.39904
-1.39904
-1.39904
-1.39904
-1.39904
-1.39903
-1.39903
-1.39903
-1.39903
-1.39903
-1.39903
-1.39903
-1.39902
-1.39902
-1.39902
-1.39902
-1.39902
-1.39902
-1.39902
-1.39901
-1.39901
-1.39901
-1.39901
-1.39901
-1.39901
-1.39901
-1.39901
-1.399
-1.399
-1.399
-1.399
-1.399
-1.399
-1.399
-1.399
-1.399
-1.39899
-1.39899
-1.39899
-1.39899
-1.39899
-1.39899
-1.39899
-1.39899
-1.39899
-1.39898
-1.39898
-1.39898
-1.39898
-1.39898
-1.39898
-1.39898
-1.39898
-1.39898
-1.39897
-1.39897
-1.39897
-1.39897
-1.39897
-1.39897
-1.39897
-1.39897
-1.39897
-1.39897
-1.39897
-1.39896
-1.39896
-1.39896
-1.39896
-1.39896
-1.39896
-1.39896
-1.39896
-1.39896
-1.39896
-1.39896
-1.39896
-1.39895
-1.39895
-1.39895
-1.39895
-1.39895
-1.39895
-1.39895
-1.39895
-1.39895
-1.39895
-1.39895
-1.39895
-1.39895
-1.39895
-1.39895
-1.39895
-1.39894
-1.39894
-1.39894
-1.39894
-1.39894
-1.39894
-1.39894
-1.39894
-1.39894
-1.39894
-1.39894
-1.39894
-1.39894
-1.39894
-1.39894
-1.39894
-1.39894
-1.39894
-1.39894
-1.39894
-1.39894
-1.39894
-1.39894
-1.39894
-1.39894
-1.42221
-1.4222
-1.42192
-1.42168
-1.42206
-1.42205
-1.42204
-1.42203
-1.42203
-1.42202
-1.42201
-1.422
-1.422
-1.42199
-1.42198
-1.42197
-1.42197
-1.42196
-1.42195
-1.42194
-1.42183
-1.42191
-1.4219
-1.4219
-1.42191
-1.42188
-1.4218
-1.42188
-1.42187
-1.42186
-1.42186
-1.42186
-1.42185
-1.42184
-1.42184
-1.42183
-1.42183
-1.42182
-1.42181
-1.42181
-1.4218
-1.4218
-1.42179
-1.42179
-1.42178
-1.42177
-1.42177
-1.42176
-1.42176
-1.42175
-1.42175
-1.42174
-1.42174
-1.42173
-1.42173
-1.42172
-1.42172
-1.42171
-1.42171
-1.42171
-1.4217
-1.4217
-1.42169
-1.42169
-1.42168
-1.42168
-1.42168
-1.42167
-1.42167
-1.42166
-1.42166
-1.42166
-1.42165
-1.42165
-1.42165
-1.42164
-1.42164
-1.42163
-1.42163
-1.42163
-1.42162
-1.42162
-1.42162
-1.42161
-1.42161
-1.42161
-1.4216
-1.4216
-1.4216
-1.42159
-1.42159
-1.42159
-1.42159
-1.42158
-1.42158
-1.42158
-1.42157
-1.42157
-1.42157
-1.42157
-1.42156
-1.42156
-1.42156
-1.42156
-1.42155
-1.42155
-1.42155
-1.42155
-1.42154
-1.42154
-1.42154
-1.42154
-1.42153
-1.42153
-1.42153
-1.42153
-1.42152
-1.42152
-1.42152
-1.42152
-1.42152
-1.42151
-1.42151
-1.42151
-1.42151
-1.42151
-1.4215
-1.4215
-1.4215
-1.4215
-1.4215
-1.42149
-1.42149
-1.42149
-1.42149
-1.42149
-1.42148
-1.42148
-1.42148
-1.42148
-1.42148
-1.42147
-1.42147
-1.42147
-1.42147
-1.42147
-1.42147
-1.42146
-1.42146
-1.42146
-1.42146
-1.42146
-1.42146
-1.42145
-1.42145
-1.42145
-1.42145
-1.42145
-1.42145
-1.42144
-1.42144
-1.42144
-1.42144
-1.42144
-1.42144
-1.42144
-1.42143
-1.42143
-1.42143
-1.42143
-1.42143
-1.42143
-1.42143
-1.42142
-1.42142
-1.42142
-1.42142
-1.42142
-1.42142
-1.42142
-1.42141
-1.42141
-1.42141
-1.42141
-1.42141
-1.42141
-1.42141
-1.4214
-1.4214
-1.4214
-1.4214
-1.4214
-1.4214
-1.4214
-1.42139
-1.42139
-1.42139
-1.42139
-1.42139
-1.42139
-1.42139
-1.42139
-1.42138
-1.42138
-1.42138
-1.42138
-1.42138
-1.42138
-1.42138
-1.42138
-1.42138
-1.42137
-1.42137
-1.42137
-1.42137
-1.42137
-1.42137
-1.42137
-1.42137
-1.42136
-1.42136
-1.42136
-1.42136
-1.42136
-1.42136
-1.42136
-1.42136
-1.42136
-1.42136
-1.42135
-1.42135
-1.42135
-1.42135
-1.42135
-1.42135
-1.42135
-1.42135
-1.42135
-1.42135
-1.42134
-1.42134
-1.42134
-1.42134
-1.42134
-1.42134
-1.42134
-1.42134
-1.42134
-1.42134
-1.42134
-1.42134
-1.42133
-1.42133
-1.42133
-1.42133
-1.42133
-1.42133
-1.42133
-1.42133
-1.42133
-1.42133
-1.42133
-1.42133
-1.42133
-1.42132
-1.42132
-1.42132
-1.42132
-1.42132
-1.42132
-1.42132
-1.42132
-1.42132
-1.42132
-1.42132
-1.42132
-1.42132
-1.42132
-1.42132
-1.42132
-1.42132
-1.42132
-1.42131
-1.42131
-1.42131
-1.42131
-1.42131
-1.42131
-1.42131
-1.42131
-1.42131
-1.42131
-1.42131
-1.42131
-1.42131
-1.42131
-1.42131
-1.42131
-1.42131
-1.42131
-1.4446
-1.44459
-1.44457
-1.44456
-1.44455
-1.44454
-1.44452
-1.44451
-1.4445
-1.44448
-1.44447
-1.44446
-1.44445
-1.44443
-1.44443
-1.44442
-1.44433
-1.44443
-1.44446
-1.44445
-1.44444
-1.44443
-1.44442
-1.44441
-1.4444
-1.44439
-1.44438
-1.44437
-1.44436
-1.44435
-1.44434
-1.44433
-1.44432
-1.44431
-1.4443
-1.44429
-1.44429
-1.44428
-1.44427
-1.44426
-1.44425
-1.44424
-1.44424
-1.44423
-1.44422
-1.44421
-1.44421
-1.4442
-1.44419
-1.44419
-1.44418
-1.44417
-1.44417
-1.44416
-1.44415
-1.44415
-1.44414
-1.44414
-1.44413
-1.44412
-1.44412
-1.44411
-1.44411
-1.4441
-1.4441
-1.44409
-1.44409
-1.44408
-1.44408
-1.44407
-1.44407
-1.44406
-1.44406
-1.44405
-1.44405
-1.44404
-1.44404
-1.44404
-1.44403
-1.44403
-1.44402
-1.44402
-1.44402
-1.44401
-1.44401
-1.444
-1.444
-1.444
-1.44399
-1.44399
-1.44399
-1.44398
-1.44398
-1.44397