/*--------------------------------*- C++ -*----------------------------------*\
| =========                 |                                                 |
| \\      /  F ield         | OpenFOAM: The Open Source CFD Toolbox           |
|  \\    /   O peration     | Version:  2.4.0                                 |
|   \\  /    A nd           | Web:      www.OpenFOAM.org                      |
|    \\/     M anipulation  |                                                 |
\*---------------------------------------------------------------------------*/
FoamFile
{
    version     2.0;
    format      ascii;
    class       volScalarField;
    location    "1";
    object      p_rgh;
}
// * * * * * * * * * * * * * * * * * * * * * * * * * * * * * * * * * * * * * //

dimensions      [1 -1 -2 0 0 0 0];

internalField   nonuniform List<scalar> 
8000
(
80.0319
79.994
79.9532
79.9159
79.8822
79.8511
79.8223
79.7959
79.7719
79.7503
79.7309
79.7134
79.6974
79.6866
79.6927
79.7191
79.6762
79.2702
78.3816
49.1624
2.09428
0.0137619
-0.00184075
-0.00201443
-0.00207682
-0.00207533
-0.00206772
-0.00206973
-0.00206668
-0.00205799
-0.00205484
-0.00205204
-0.00205047
-0.00205036
-0.00205613
-0.00205737
-0.0019872
-0.00169883
-0.00185268
-0.00183324
-0.00182305
-0.00191237
-0.00192928
-0.00193783
-0.001958
-0.00186164
-0.00186654
-0.00199587
-0.00199603
-0.00199925
80.7774
80.7284
80.6758
80.6284
80.5855
80.5462
80.51
80.4769
80.447
80.4202
80.3957
80.3737
80.3597
80.37
80.405
80.3254
79.7183
78.5252
41.935
1.11048
0.00478402
-0.00283844
-0.00297673
-0.00301245
-0.00293124
-0.00287307
-0.00285345
-0.00287289
-0.00285651
-0.0028058
-0.00276984
-0.00273694
-0.00270554
-0.00267611
-0.00259683
-0.00254785
-0.00262554
-0.00260819
-0.0025911
-0.00258858
-0.00258738
-0.0025714
-0.00249575
-0.00229061
-0.00247971
-0.00243076
-0.00244614
-0.00252305
-0.00254124
-0.00254426
80.8018
80.7413
80.6765
80.6191
80.5687
80.5238
80.484
80.4491
80.4192
80.3933
80.3719
80.3607
80.3774
80.4219
80.3437
79.6997
78.4512
42.5239
1.01247
0.00831256
0.00011629
-0.000592994
-0.000847706
-0.000466335
-0.000903542
-0.00049532
-0.000668659
-0.00103272
-0.00129806
-0.00146784
-0.0015845
-0.00179555
-0.00190449
-0.0020083
-0.0021053
-0.00219775
-0.00227106
-0.00223452
-0.00202719
-0.00236391
-0.0024224
-0.00247635
-0.0025255
-0.00256857
-0.00260731
-0.00264158
-0.00267446
-0.00270064
-0.00272358
-0.00274282
80.4988
80.4729
80.4441
80.413
80.3776
80.338
80.2932
80.2438
80.1885
80.1282
80.0635
80.0039
79.9504
79.8443
79.48
78.7872
60.4882
3.23112
0.036791
0.0326235
0.0072235
0.00163642
0.0012935
0.000738571
0.000210852
-0.000227538
-0.000585152
-0.000893819
-0.00116277
-0.00141761
-0.00163544
-0.00183051
-0.00200743
-0.00216525
-0.00230509
-0.00242831
-0.00253753
-0.00263321
-0.0027132
-0.00278762
-0.00285219
-0.00290652
-0.00295348
-0.00299376
-0.00302792
-0.00305639
-0.00307978
-0.00309867
-0.00311334
-0.00312416
77.8163
77.8797
77.9325
77.9618
77.9704
77.9594
77.9304
77.8818
77.8147
77.7264
77.6192
77.4965
77.3758
77.2401
76.9275
76.0487
74.9155
24.1072
0.867529
1.04593
-0.0180011
0.0182119
-0.00454222
-0.00575322
-0.00608801
-0.00616746
-0.00609405
-0.00596835
-0.0058187
-0.00567137
-0.00552309
-0.0053803
-0.00524751
-0.0051207
-0.00499769
-0.00487901
-0.00476395
-0.00465147
-0.00454188
-0.0044355
-0.0043323
-0.00423251
-0.00413624
-0.00404352
-0.00395437
-0.00386879
-0.00378671
-0.00370802
-0.00363263
-0.0035604
82.9551
83.0164
83.0831
83.141
83.1899
83.2309
83.2654
83.2926
83.3137
83.3274
83.3345
83.3315
83.3226
83.3244
83.3823
83.4457
83.0153
80.9626
78.3648
24.5816
1.35222
1.68441
-0.0514662
-0.0114233
-0.00687295
-0.00823354
-0.00629633
-0.00608405
-0.00616277
-0.00615279
-0.00609603
-0.00598619
-0.00582666
-0.00564704
-0.00545274
-0.00525154
-0.00505589
-0.00486652
-0.00468425
-0.00451021
-0.00434485
-0.00418889
-0.00404307
-0.00390689
-0.00377974
-0.00366118
-0.00355074
-0.00344786
-0.003352
-0.00326258
86.6919
86.7312
86.7763
86.8242
86.8743
86.929
86.9868
87.0499
87.1162
87.1887
87.2645
87.3477
87.4335
87.5272
87.6268
87.7547
87.9168
88.0418
87.7386
85.8043
82.311
71.1199
8.40595
-1.75942
-0.367595
-0.00200513
-0.0266733
-0.0116427
-0.0134404
-0.00316384
0.00252351
0.00109715
0.000263211
1.73326e-06
-0.000135704
-0.000250188
-0.000342976
-0.000424733
-0.000499675
-0.00056542
-0.000629995
-0.000684021
-0.000731636
-0.000772462
-0.000809584
-0.000843726
-0.000876144
-0.000907566
-0.000938152
-0.000967827
90.5524
90.5768
90.6077
90.6423
90.6805
90.7228
90.7691
90.8198
90.8747
90.9341
90.9979
91.0666
91.1398
91.2184
91.3012
91.3904
91.4851
91.5921
91.7092
91.8234
91.8572
91.5243
90.0108
88.3147
82.5293
56.0568
6.70112
0.643915
0.756404
0.72882
0.0315512
0.0132781
0.0202029
-0.00104463
0.00166492
-0.00115813
-0.00227661
-0.00218727
-0.00203213
-0.00181289
-0.00185032
-0.00182569
-0.00182982
-0.0018182
-0.00180821
-0.0017923
-0.00177573
-0.00175887
-0.00174202
-0.00172556
93.1332
93.1425
93.155
93.1704
93.1895
93.2118
93.2379
93.267
93.3
93.3358
93.3756
93.4181
93.4647
93.5138
93.5672
93.6226
93.6827
93.7442
93.8115
93.8827
93.966
94.0558
94.1367
94.1765
94.2137
93.9321
93.1374
90.4094
88.3806
66.4345
23.0467
1.50064
1.62971
1.61404
0.183681
0.0548885
0.0414156
0.00348676
0.00119466
9.56307e-05
-0.000419336
-0.000353102
-0.000375703
-0.000350606
-0.000388728
-0.00041691
-0.000441916
-0.000463728
-0.00048296
-0.000500879
95.7136
95.7159
95.7214
95.7301
95.7418
95.7565
95.774
95.7946
95.818
95.8443
95.8734
95.9055
95.9402
95.9779
96.0182
96.0614
96.1072
96.1559
96.207
96.261
96.3174
96.3772
96.4407
96.5095
96.5869
96.6773
96.7734
96.8612
96.9745
96.8437
96.1634
92.1461
90.0657
67.2893
22.1156
3.00963
2.60668
1.00735
0.115273
0.118854
0.00132152
-0.000791808
-0.00118454
-0.00116116
-0.0013328
-0.00127743
-0.00125628
-0.00125726
-0.00125462
-0.00124948
97.1956
97.1977
97.2002
97.2036
97.2082
97.214
97.221
97.2292
97.2385
97.2489
97.2606
97.2732
97.287
97.3018
97.3176
97.3343
97.352
97.3705
97.3898
97.4098
97.4306
97.4518
97.4737
97.4959
97.5186
97.5421
97.5668
97.5933
97.6228
97.6557
97.685
97.6925
97.7222
97.5441
96.9479
89.6883
84.237
43.7695
5.88826
2.05427
0.449331
0.07374
0.036799
0.00153428
0.000688648
0.000495593
0.000554701
0.000428774
0.000383581
0.00031198
99.0769
99.0729
99.0697
99.0677
99.067
99.0674
99.0688
99.0712
99.0747
99.0792
99.0846
99.091
99.0983
99.1064
99.1153
99.1249
99.1352
99.146
99.1573
99.1689
99.1808
99.1928
99.2048
99.2166
99.2282
99.2391
99.2495
99.2587
99.2668
99.2736
99.2797
99.2849
99.2884
99.2836
99.2723
99.2456
99.2156
98.9387
93.832
86.7969
42.6799
5.78975
2.51104
0.154215
0.0479904
0.00291307
-0.000112734
-0.000465816
-0.000327834
-0.000577848
100.442
100.426
100.41
100.397
100.386
100.377
100.37
100.366
100.363
100.363
100.365
100.368
100.374
100.382
100.391
100.403
100.417
100.433
100.451
100.471
100.493
100.517
100.543
100.572
100.602
100.635
100.671
100.708
100.749
100.791
100.837
100.885
100.936
100.99
101.048
101.111
101.176
101.241
101.3
101.394
101.348
96.5721
77.8315
22.6761
4.24355
1.12164
0.137174
0.016938
3.72788e-05
-0.000305148
101.902
101.88
101.859
101.842
101.828
101.817
101.81
101.804
101.802
101.802
101.806
101.812
101.82
101.832
101.846
101.863
101.883
101.906
101.932
101.961
101.992
102.027
102.066
102.107
102.152
102.201
102.253
102.309
102.369
102.432
102.501
102.573
102.651
102.733
102.82
102.913
103.013
103.119
103.233
103.34
103.436
103.585
103.833
103.857
90.891
45.0023
11.5539
2.43761
0.28992
0.0150304
102.18
102.168
102.155
102.144
102.134
102.127
102.12
102.115
102.112
102.109
102.109
102.109
102.111
102.115
102.119
102.126
102.133
102.142
102.152
102.164
102.177
102.191
102.207
102.224
102.243
102.263
102.285
102.307
102.332
102.358
102.385
102.414
102.444
102.476
102.51
102.545
102.581
102.619
102.659
102.7
102.744
102.788
102.823
102.848
102.819
101.788
89.6236
47.5379
12.7501
1.89279
102.884
102.881
102.877
102.875
102.873
102.871
102.87
102.868
102.868
102.867
102.867
102.867
102.868
102.869
102.87
102.871
102.873
102.875
102.877
102.88
102.882
102.885
102.888
102.891
102.894
102.897
102.9
102.903
102.906
102.908
102.91
102.912
102.913
102.913
102.913
102.912
102.909
102.905
102.9
102.893
102.884
102.873
102.86
102.845
102.83
102.816
102.772
99.8816
75.8429
24.6791
102.89
102.894
102.897
102.901
102.904
102.907
102.91
102.913
102.917
102.92
102.924
102.927
102.931
102.934
102.938
102.942
102.946
102.95
102.954
102.959
102.963
102.968
102.973
102.978
102.983
102.989
102.994
103
103.006
103.012
103.018
103.025
103.032
103.039
103.046
103.053
103.06
103.068
103.075
103.083
103.09
103.098
103.105
103.112
103.12
103.144
103.157
103.15
100.238
68.7617
103.682
103.705
103.731
103.751
103.766
103.777
103.785
103.79
103.792
103.792
103.79
103.787
103.781
103.775
103.768
103.759
103.75
103.741
103.731
103.72
103.709
103.699
103.688
103.677
103.666
103.655
103.645
103.634
103.624
103.614
103.605
103.595
103.586
103.578
103.569
103.561
103.554
103.547
103.54
103.533
103.527
103.521
103.515
103.508
103.497
103.538
103.534
103.653
103.688
85.7499
103.365
103.426
103.483
103.526
103.559
103.584
103.604
103.619
103.63
103.637
103.641
103.642
103.641
103.639
103.635
103.629
103.623
103.616
103.608
103.6
103.592
103.584
103.575
103.567
103.559
103.551
103.543
103.535
103.528
103.521
103.515
103.509
103.504
103.498
103.494
103.489
103.486
103.482
103.479
103.476
103.472
103.469
103.465
103.461
103.442
103.381
103.572
103.62
103.054
63.5463
108.52
108.134
107.746
107.412
107.12
106.858
106.618
106.399
106.198
106.013
105.843
105.686
105.54
105.405
105.279
105.163
105.054
104.953
104.858
104.771
104.689
104.613
104.542
104.477
104.416
104.36
104.309
104.262
104.219
104.18
104.146
104.116
104.089
104.067
104.049
104.035
104.025
104.02
104.019
104.024
104.033
104.049
104.069
104.095
104.122
104.13
104.48
104.544
105.264
92.874
-0.00203155
-0.00198054
-0.0017876
-0.00200069
-0.00202007
-0.00203728
-0.00205567
-0.00207333
-0.00201725
-0.00134979
-0.00165519
-0.00172997
-0.00174282
-0.00167269
-0.00131799
-0.00158561
-0.00160244
-0.0016071
-0.00159478
-0.00161963
-0.00158177
-0.00157814
-0.00160508
-0.00157662
-0.001555
-0.00161336
-0.00161641
-0.00161513
-0.00158748
-0.00157084
-0.00154782
-0.00160907
-0.00161261
-0.00161218
-0.00161317
-0.00161167
-0.00160967
-0.00160916
-0.00161013
-0.00161117
-0.00161215
-0.00161222
-0.00161223
-0.00161372
-0.0016156
-0.00161753
-0.00162018
-0.0016237
-0.00162798
-0.00163412
-0.00253531
-0.00252443
-0.00251789
-0.00249852
-0.00254681
-0.00254524
-0.00254329
-0.00254133
-0.00253732
-0.00252112
-0.00252472
-0.00245579
-0.00245307
-0.00236707
-0.00198609
-0.00229257
-0.00228377
-0.00227388
-0.00226327
-0.00225134
-0.00223822
-0.00222457
-0.00221012
-0.00219606
-0.0021776
-0.00192632
-0.00213016
-0.00212111
-0.00211774
-0.00209811
-0.00207797
-0.00205829
-0.002045
-0.00203392
-0.00199801
-0.00194842
-0.00153526
-0.00178162
-0.00176549
-0.00175614
-0.00171674
-0.0016924
-0.00141823
-0.00165994
-0.00164299
-0.0016255
-0.00160986
-0.00159479
-0.00157907
-0.00156222
-0.00275881
-0.0027715
-0.00276775
-0.00277825
-0.00279846
-0.00279913
-0.0027957
-0.00279077
-0.00278317
-0.00277307
-0.00276063
-0.00274413
-0.00272329
-0.00270303
-0.00268798
-0.00266719
-0.00264464
-0.00262113
-0.0025971
-0.00257208
-0.00254618
-0.00251964
-0.0024926
-0.00246487
-0.00243558
-0.00240668
-0.00237774
-0.00234709
-0.00231857
-0.00229134
-0.00226261
-0.00223438
-0.00220586
-0.00217685
-0.00214751
-0.00211857
-0.00208938
-0.00205976
-0.00203077
-0.00200261
-0.00178443
-0.00189935
-0.00186859
-0.00183866
-0.00180967
-0.00144525
-0.00172518
-0.00170141
-0.0016717
-0.00164179
-0.00313148
-0.00313572
-0.00313751
-0.00313612
-0.00313218
-0.00312578
-0.00311724
-0.00310667
-0.00309418
-0.00307998
-0.00306444
-0.00304729
-0.00302908
-0.00300959
-0.0029158
-0.00296597
-0.00294639
-0.00292352
-0.00290042
-0.00287696
-0.00285333
-0.00282946
-0.00280502
-0.00278062
-0.00275603
-0.0027312
-0.00270627
-0.00268205
-0.00265385
-0.00263422
-0.00260938
-0.00258481
-0.00256027
-0.0025382
-0.00251438
-0.00248135
-0.00245742
-0.00240207
-0.00192769
-0.00221386
-0.00222541
-0.00220341
-0.00218238
-0.00203067
-0.00136332
-0.00177656
-0.00159997
-0.00149226
-0.00188747
-0.00187425
-0.00349117
-0.00342479
-0.00336108
-0.00329984
-0.00324085
-0.00318393
-0.00312891
-0.00307563
-0.00302394
-0.00297369
-0.00292476
-0.00287703
-0.00283041
-0.00278472
-0.00273997
-0.00269578
-0.00265231
-0.0026089
-0.00256574
-0.0025224
-0.00247949
-0.00243949
-0.00239653
-0.00235239
-0.00230647
-0.00225681
-0.00220179
-0.00214034
-0.00208799
-0.00211484
-0.00203618
-0.00206388
-0.00210285
-0.00209199
-0.00204331
-0.00180835
-0.00212362
-0.00205425
-0.00205881
-0.00171196
-0.00213913
-0.00216685
-0.00213203
-0.00209943
-0.00207006
-0.00204656
-0.00201881
-0.00199219
-0.00197084
-0.00194639
-0.00317906
-0.00310089
-0.00302759
-0.00295872
-0.00289386
-0.00283266
-0.00277479
-0.00271998
-0.00266795
-0.00261849
-0.00257139
-0.00252645
-0.00248351
-0.00244244
-0.0024031
-0.00236535
-0.00232904
-0.00229409
-0.00226083
-0.00222805
-0.0019886
-0.00218784
-0.00224664
-0.00220565
-0.00218929
-0.00217402
-0.00215106
-0.00212605
-0.00210238
-0.00207787
-0.00205499
-0.00203269
-0.00201131
-0.00199093
-0.00197084
-0.00195166
-0.00193175
-0.00191208
-0.00189335
-0.00187523
-0.00185704
-0.0018388
-0.00182103
-0.00180365
-0.00178663
-0.00177016
-0.00175429
-0.00173893
-0.00172432
-0.00170999
-0.000996527
-0.00102422
-0.0010509
-0.00107655
-0.00110118
-0.00112477
-0.00114733
-0.00116885
-0.00118936
-0.00120886
-0.00122738
-0.00124494
-0.00126156
-0.00127727
-0.00129209
-0.00130607
-0.00131921
-0.00133149
-0.001343
-0.00135425
-0.00136482
-0.0013736
-0.0013827
-0.00139176
-0.00139909
-0.00140574
-0.00141227
-0.00141841
-0.001424
-0.00142914
-0.00143381
-0.00143812
-0.00144219
-0.00144599
-0.00144953
-0.00145261
-0.00145534
-0.0014577
-0.00145968
-0.00146136
-0.00146273
-0.00146367
-0.00146415
-0.00146426
-0.00146395
-0.00146326
-0.00146224
-0.00146094
-0.00145936
-0.00145746
-0.00170993
-0.00169533
-0.0016816
-0.0016686
-0.00165629
-0.00164464
-0.00163361
-0.00162316
-0.00161326
-0.00160386
-0.00159494
-0.00158646
-0.00157839
-0.00157072
-0.0015634
-0.00155643
-0.00154977
-0.00154345
-0.00153746
-0.00153171
-0.00152618
-0.00152092
-0.00151578
-0.00151064
-0.00150563
-0.00150063
-0.00149569
-0.00149081
-0.00148604
-0.00148133
-0.00147669
-0.00147211
-0.00146759
-0.00146311
-0.00145869
-0.00145431
-0.00144998
-0.00144568
-0.00144142
-0.00143719
-0.001433
-0.00142884
-0.00142472
-0.00142063
-0.00141658
-0.00141257
-0.0014086
-0.00140465
-0.00140076
-0.00139711
-0.000518113
-0.000535149
-0.000552321
-0.000569695
-0.000587213
-0.0006048
-0.000622407
-0.000639998
-0.000657539
-0.000674998
-0.000692346
-0.000709554
-0.000726594
-0.00074344
-0.000760067
-0.000776454
-0.000792578
-0.00080842
-0.000823964
-0.000839194
-0.000854095
-0.000868656
-0.000882867
-0.000896719
-0.000910206
-0.000923322
-0.000936063
-0.000948427
-0.000960414
-0.000972021
-0.00098325
-0.000994101
-0.00100458
-0.00101468
-0.00102441
-0.00103377
-0.00104277
-0.00105141
-0.00105969
-0.00106762
-0.0010752
-0.00108244
-0.00108935
-0.00109592
-0.00110217
-0.00110811
-0.00111374
-0.00111907
-0.00112405
-0.0011286
-0.00124186
-0.00123305
-0.00122437
-0.00121615
-0.00120857
-0.00120167
-0.00119541
-0.00118976
-0.00118466
-0.00118008
-0.00117599
-0.00117235
-0.00116912
-0.00116627
-0.00116377
-0.00116158
-0.00115968
-0.00115805
-0.00115667
-0.0011555
-0.00115454
-0.00115376
-0.00115316
-0.00115271
-0.00115239
-0.00115221
-0.00115215
-0.00115219
-0.00115232
-0.00115255
-0.00115285
-0.00115322
-0.00115366
-0.00115415
-0.0011547
-0.00115528
-0.00115591
-0.00115657
-0.00115726
-0.00115798
-0.00115872
-0.00115947
-0.00116024
-0.00116102
-0.00116181
-0.00116261
-0.0011634
-0.00116416
-0.00116492
-0.00116594
0.000247445
0.000193202
0.000143096
9.55969e-05
5.01031e-05
6.08505e-06
-3.66042e-05
-7.79784e-05
-0.000118029
-0.000156758
-0.000194177
-0.000230306
-0.000265171
-0.000298801
-0.000331229
-0.000362487
-0.000392611
-0.000421636
-0.000449596
-0.000476528
-0.000502465
-0.000527441
-0.00055149
-0.000574643
-0.000596932
-0.000618387
-0.000639037
-0.000658909
-0.000678032
-0.000696431
-0.000714132
-0.000731157
-0.000747532
-0.000763276
-0.000778413
-0.000792962
-0.000806944
-0.000820377
-0.000833278
-0.000845667
-0.000857559
-0.000868972
-0.000879919
-0.000890417
-0.00090048
-0.000910125
-0.000919368
-0.000928209
-0.000936599
-0.000944486
-0.000632351
-0.000674364
-0.000707792
-0.000735445
-0.000757125
-0.000775793
-0.000792564
-0.000807908
-0.000822063
-0.000835161
-0.000847302
-0.000858575
-0.000869065
-0.000878846
-0.000887988
-0.000896551
-0.000904589
-0.000912151
-0.00091928
-0.000926016
-0.000932393
-0.000938444
-0.000944198
-0.000949681
-0.000954917
-0.000959929
-0.000964734
-0.000969352
-0.000973799
-0.000978088
-0.000982232
-0.000986244
-0.000990135
-0.000993912
-0.000997585
-0.00100116
-0.00100465
-0.00100805
-0.00101138
-0.00101463
-0.00101781
-0.00102092
-0.00102398
-0.00102697
-0.00102991
-0.00103279
-0.00103562
-0.00103836
-0.00104105
-0.00104391
-0.000413577
-0.000585886
-0.000608324
-0.000642026
-0.000658233
-0.000666515
-0.000671904
-0.000676454
-0.000681064
-0.00068602
-0.000691372
-0.000697115
-0.000703224
-0.000709659
-0.000716379
-0.000723343
-0.000730515
-0.00073786
-0.000745347
-0.000752943
-0.000760622
-0.000768358
-0.000776128
-0.00078391
-0.000791686
-0.000799439
-0.000807154
-0.000814816
-0.000822412
-0.000829933
-0.000837368
-0.000844707
-0.000851943
-0.000859069
-0.000866079
-0.000872967
-0.000879728
-0.000886358
-0.000892853
-0.000899211
-0.000905429
-0.000911505
-0.000917437
-0.000923224
-0.000928866
-0.000934362
-0.000939715
-0.000944913
-0.00094992
-0.000954723
-0.000340473
-0.00055444
-0.000774948
-0.00104688
-0.001104
-0.00111539
-0.00111388
-0.00110673
-0.00109766
-0.0010885
-0.00107975
-0.00107157
-0.00106401
-0.00105713
-0.0010509
-0.00104528
-0.00104023
-0.0010357
-0.00103166
-0.00102807
-0.0010249
-0.00102211
-0.0010197
-0.00101761
-0.00101585
-0.00101437
-0.00101316
-0.00101221
-0.00101149
-0.00101099
-0.0010107
-0.00101059
-0.00101065
-0.00101088
-0.00101126
-0.00101177
-0.00101242
-0.00101318
-0.00101406
-0.00101503
-0.0010161
-0.00101725
-0.00101848
-0.00101979
-0.00102115
-0.00102258
-0.00102407
-0.00102558
-0.00102714
-0.00102882
0.182558
0.0177712
0.000684529
-0.000682165
-0.00085329
-0.000937426
-0.00097726
-0.000993972
-0.001
-0.00100192
-0.0010021
-0.00100137
-0.00100019
-0.000998831
-0.000997513
-0.000996369
-0.000995455
-0.000994768
-0.000994289
-0.000994005
-0.000993904
-0.000993976
-0.000994209
-0.000994591
-0.000995113
-0.000995763
-0.000996533
-0.000997412
-0.000998391
-0.000999461
-0.00100061
-0.00100184
-0.00100314
-0.00100449
-0.0010059
-0.00100736
-0.00100885
-0.00101038
-0.00101194
-0.00101353
-0.00101513
-0.00101675
-0.00101838
-0.00102001
-0.00102165
-0.00102329
-0.00102492
-0.00102654
-0.00102813
-0.00102973
3.82786
0.393159
0.0232064
-0.000333073
-0.000565979
-0.000697625
-0.000808317
-0.000883872
-0.000927733
-0.000952951
-0.000969045
-0.000980377
-0.000988641
-0.000994732
-0.000999314
-0.0010029
-0.00100588
-0.00100852
-0.00101092
-0.00101313
-0.00101515
-0.00101702
-0.00101874
-0.00102035
-0.00102186
-0.00102328
-0.00102463
-0.00102592
-0.00102715
-0.00102834
-0.00102949
-0.00103061
-0.0010317
-0.00103278
-0.00103383
-0.00103488
-0.00103592
-0.00103695
-0.00103798
-0.001039
-0.00104003
-0.00104105
-0.00104208
-0.00104311
-0.00104414
-0.00104518
-0.00104623
-0.00104727
-0.00104831
-0.00104934
15.5846
1.24382
0.0413585
-0.000366178
-0.000569794
-0.000761531
-0.000921071
-0.00101995
-0.00107265
-0.00110094
-0.0011178
-0.00112836
-0.00113446
-0.00113724
-0.00113772
-0.00113676
-0.00113498
-0.00113284
-0.00113063
-0.0011285
-0.00112647
-0.00112451
-0.00112264
-0.00112084
-0.00111913
-0.00111749
-0.00111592
-0.00111443
-0.00111302
-0.00111167
-0.0011104
-0.00110919
-0.00110805
-0.00110697
-0.00110595
-0.00110499
-0.00110409
-0.00110324
-0.00110245
-0.00110171
-0.00110101
-0.00110037
-0.00109977
-0.00109922
-0.00109871
-0.00109824
-0.00109781
-0.00109741
-0.00109704
-0.00109676
22.1305
1.53632
0.0353238
-0.000175544
-0.000371298
-0.000651419
-0.000858596
-0.000976528
-0.00103834
-0.00107389
-0.00109749
-0.00111379
-0.00112426
-0.00113005
-0.0011324
-0.00113245
-0.00113105
-0.00112887
-0.00112638
-0.00112391
-0.00112159
-0.00111943
-0.00111739
-0.00111548
-0.00111368
-0.00111199
-0.00111041
-0.00110892
-0.00110753
-0.00110622
-0.001105
-0.00110385
-0.00110278
-0.00110178
-0.00110084
-0.00109998
-0.00109917
-0.00109842
-0.00109773
-0.00109709
-0.0010965
-0.00109597
-0.00109548
-0.00109503
-0.00109463
-0.00109428
-0.00109396
-0.00109369
-0.00109345
-0.0010932
4.17857
0.107116
0.00225114
-8.07971e-05
-0.000672025
-0.000919426
-0.0010512
-0.00112122
-0.00116075
-0.0011872
-0.00120637
-0.00121956
-0.00122746
-0.00123104
-0.00123139
-0.00122951
-0.00122616
-0.00122197
-0.0012174
-0.00121277
-0.00120827
-0.00120394
-0.00119977
-0.00119575
-0.00119188
-0.00118815
-0.00118456
-0.00118111
-0.00117779
-0.0011746
-0.00117154
-0.0011686
-0.00116578
-0.00116307
-0.00116048
-0.00115799
-0.00115561
-0.00115332
-0.00115114
-0.00114904
-0.00114704
-0.00114513
-0.0011433
-0.00114155
-0.00113989
-0.0011383
-0.00113678
-0.00113533
-0.00113397
-0.00113269
5.41393
0.119889
0.00430398
8.88909e-05
-0.000659474
-0.000879709
-0.000996854
-0.0010654
-0.00110286
-0.00112724
-0.00114617
-0.00116075
-0.00117092
-0.00117717
-0.00118032
-0.0011812
-0.00118049
-0.00117875
-0.0011764
-0.0011738
-0.00117118
-0.00116861
-0.0011661
-0.00116364
-0.00116124
-0.00115891
-0.00115665
-0.00115445
-0.00115232
-0.00115026
-0.00114827
-0.00114635
-0.0011445
-0.00114271
-0.001141
-0.00113935
-0.00113776
-0.00113624
-0.00113478
-0.00113339
-0.00113205
-0.00113077
-0.00112955
-0.00112839
-0.00112728
-0.00112623
-0.00112523
-0.00112428
-0.00112339
-0.00112252
-0.00162623
-0.00148751
-0.00100527
-0.00139346
-0.00139709
-0.00140082
-0.00140535
-0.00141028
-0.00140062
-0.00131428
-0.00104867
-0.00128256
-0.00122295
-0.00120579
-0.00138847
-0.0013908
-0.00139292
-0.00139501
-0.00139676
-0.00139817
-0.00139928
-0.00140014
-0.00140079
-0.00140124
-0.00140151
-0.00140162
-0.00140158
-0.00140143
-0.00140121
-0.00140094
-0.00140065
-0.00140035
-0.00140005
-0.00139972
-0.00139938
-0.00139901
-0.00139861
-0.00139816
-0.00139765
-0.00139707
-0.0013964
-0.00139563
-0.00139475
-0.00139374
-0.00139261
-0.00139135
-0.00138998
-0.00138848
-0.00138689
-0.0013852
-0.00138344
-0.00138162
-0.00137976
-0.00137786
-0.00137592
-0.00137394
-0.00137193
-0.00136988
-0.00136781
-0.0013657
-0.00136357
-0.00136141
-0.00135923
-0.00135702
-0.00135479
-0.00135254
-0.00135027
-0.00134798
-0.00134568
-0.00134336
-0.00134102
-0.00133867
-0.00133631
-0.00133393
-0.00133155
-0.00132915
-0.00132674
-0.00132433
-0.00132191
-0.00131948
-0.00131704
-0.00131461
-0.00131216
-0.00130971
-0.00130726
-0.00130481
-0.00130236
-0.0012999
-0.00129745
-0.00129499
-0.00129253
-0.00129008
-0.00128763
-0.00128518
-0.00128273
-0.00128029
-0.00127785
-0.00127541
-0.00127298
-0.00127055
-0.00126813
-0.00126572
-0.00126331
-0.00126091
-0.00125851
-0.00125613
-0.00125375
-0.00125138
-0.00124901
-0.00124666
-0.00124431
-0.00124198
-0.00123965
-0.00123733
-0.00123503
-0.00123273
-0.00123044
-0.00122817
-0.0012259
-0.00122364
-0.0012214
-0.00121917
-0.00121695
-0.00121474
-0.00121254
-0.00121035
-0.00120818
-0.00120601
-0.00120386
-0.00120172
-0.0011996
-0.00119748
-0.00119538
-0.00119329
-0.00119121
-0.00118915
-0.00118709
-0.00118505
-0.00118303
-0.00118101
-0.00117901
-0.00117702
-0.00117504
-0.00117307
-0.00117112
-0.00116917
-0.00116725
-0.00116533
-0.00116342
-0.00116153
-0.00115965
-0.00115778
-0.00115592
-0.00115408
-0.00115224
-0.00115042
-0.00114861
-0.00114681
-0.00114502
-0.00114325
-0.00114148
-0.00113973
-0.00113799
-0.00113626
-0.00113454
-0.00113283
-0.00113113
-0.00112944
-0.00112776
-0.0011261
-0.00112444
-0.0011228
-0.00112116
-0.00111954
-0.00111793
-0.00111632
-0.00111473
-0.00111315
-0.00111158
-0.00111001
-0.00110846
-0.00110692
-0.00110538
-0.00110386
-0.00110235
-0.00110084
-0.00109935
-0.00109787
-0.00109639
-0.00109493
-0.00109347
-0.00109202
-0.00109059
-0.00108916
-0.00108774
-0.00108633
-0.00108493
-0.00108354
-0.00108216
-0.00108079
-0.00107942
-0.00107807
-0.00107672
-0.00107539
-0.00107406
-0.00107274
-0.00107144
-0.00107014
-0.00106885
-0.00106756
-0.00106629
-0.00106503
-0.00106377
-0.00106253
-0.00106129
-0.00106006
-0.00105885
-0.00105764
-0.00105644
-0.00105525
-0.00105406
-0.00105289
-0.00105173
-0.00105057
-0.00104943
-0.00104829
-0.00104717
-0.00104605
-0.00104494
-0.00104384
-0.00104275
-0.00104167
-0.0010406
-0.00103954
-0.00103849
-0.00103745
-0.00103642
-0.00103539
-0.00103438
-0.00103338
-0.00103239
-0.0010314
-0.00103043
-0.00102947
-0.00102852
-0.00102758
-0.00102664
-0.00102572
-0.00102481
-0.00102391
-0.00102303
-0.00102215
-0.00102128
-0.00102042
-0.00101958
-0.00101874
-0.00101792
-0.00101711
-0.00101631
-0.00101552
-0.00101474
-0.00101398
-0.00101323
-0.00101249
-0.00101176
-0.00101104
-0.00101034
-0.00100964
-0.00100896
-0.0010083
-0.00100765
-0.001007
-0.00100638
-0.00100576
-0.00100516
-0.00100458
-0.001004
-0.00100345
-0.0010029
-0.00100237
-0.00100185
-0.00100135
-0.00100087
-0.00100039
-0.000999937
-0.000999496
-0.00099907
-0.000998659
-0.000998265
-0.000997886
-0.000997524
-0.000997177
-0.000996848
-0.000996535
-0.000996239
-0.00099596
-0.000995699
-0.000995455
-0.000995229
-0.000995026
-0.00154843
-0.0015401
-0.00152994
-0.00152129
-0.00151417
-0.00150751
-0.00150167
-0.00149546
-0.00148933
-0.00146135
-0.00143137
-0.00118552
-0.00149564
-0.00145218
-0.00142797
-0.00164752
-0.00164045
-0.00163334
-0.00162636
-0.00161924
-0.00161194
-0.00160455
-0.00159712
-0.00158976
-0.00158248
-0.00157526
-0.00156807
-0.00156103
-0.00155418
-0.00154743
-0.00154077
-0.00153423
-0.00152801
-0.00152215
-0.00151648
-0.00151098
-0.00150567
-0.00150052
-0.00149553
-0.00149067
-0.0014859
-0.00148122
-0.00147658
-0.00147198
-0.00146739
-0.0014628
-0.00145819
-0.00145356
-0.00144892
-0.00144428
-0.00143964
-0.00143503
-0.00143046
-0.00142595
-0.00142151
-0.00141713
-0.00141281
-0.00140855
-0.00140435
-0.00140021
-0.00139613
-0.0013921
-0.00138812
-0.0013842
-0.00138032
-0.0013765
-0.00137273
-0.00136901
-0.00136533
-0.0013617
-0.00135811
-0.00135457
-0.00135107
-0.00134762
-0.00134421
-0.00134083
-0.0013375
-0.00133421
-0.00133095
-0.00132773
-0.00132455
-0.0013214
-0.00131829
-0.00131522
-0.00131218
-0.00130917
-0.00130618
-0.00130323
-0.0013003
-0.00129744
-0.0012946
-0.00129178
-0.00128899
-0.00128622
-0.00128349
-0.00128078
-0.0012781
-0.00127544
-0.00127281
-0.00127021
-0.00126764
-0.00126508
-0.00126256
-0.00126005
-0.00125757
-0.00125511
-0.00125268
-0.00125027
-0.00124788
-0.00124551
-0.00124316
-0.00124083
-0.00123852
-0.00123623
-0.00123396
-0.00123171
-0.00122948
-0.00122727
-0.00122507
-0.00122289
-0.00122073
-0.00121859
-0.00121646
-0.00121435
-0.00121225
-0.00121017
-0.0012081
-0.00120605
-0.00120402
-0.00120199
-0.00119999
-0.00119799
-0.00119601
-0.00119404
-0.00119209
-0.00119015
-0.00118822
-0.0011863
-0.0011844
-0.0011825
-0.00118062
-0.00117876
-0.0011769
-0.00117505
-0.00117322
-0.00117139
-0.00116958
-0.00116778
-0.00116598
-0.0011642
-0.00116243
-0.00116067
-0.00115892
-0.00115718
-0.00115545
-0.00115373
-0.00115202
-0.00115031
-0.00114862
-0.00114694
-0.00114526
-0.0011436
-0.00114195
-0.0011403
-0.00113866
-0.00113704
-0.00113542
-0.00113381
-0.00113221
-0.00113062
-0.00112903
-0.00112746
-0.0011259
-0.00112434
-0.00112279
-0.00112125
-0.00111972
-0.0011182
-0.00111669
-0.00111518
-0.00111369
-0.0011122
-0.00111072
-0.00110925
-0.00110779
-0.00110634
-0.00110489
-0.00110345
-0.00110202
-0.0011006
-0.00109919
-0.00109779
-0.00109639
-0.00109501
-0.00109363
-0.00109226
-0.0010909
-0.00108955
-0.0010882
-0.00108686
-0.00108554
-0.00108422
-0.00108291
-0.0010816
-0.00108031
-0.00107902
-0.00107775
-0.00107648
-0.00107522
-0.00107396
-0.00107272
-0.00107148
-0.00107026
-0.00106904
-0.00106783
-0.00106663
-0.00106544
-0.00106425
-0.00106308
-0.00106191
-0.00106076
-0.00105961
-0.00105847
-0.00105734
-0.00105622
-0.0010551
-0.001054
-0.0010529
-0.00105182
-0.00105074
-0.00104967
-0.00104862
-0.00104757
-0.00104653
-0.0010455
-0.00104448
-0.00104347
-0.00104246
-0.00104147
-0.00104049
-0.00103952
-0.00103855
-0.0010376
-0.00103666
-0.00103573
-0.0010348
-0.00103389
-0.00103299
-0.0010321
-0.00103121
-0.00103034
-0.00102948
-0.00102863
-0.0010278
-0.00102697
-0.00102615
-0.00102535
-0.00102455
-0.00102377
-0.001023
-0.00102224
-0.00102149
-0.00102076
-0.00102003
-0.00101932
-0.00101862
-0.00101793
-0.00101726
-0.00101659
-0.00101594
-0.00101531
-0.00101468
-0.00101407
-0.00101348
-0.00101289
-0.00101232
-0.00101177
-0.00101122
-0.0010107
-0.00101018
-0.00100968
-0.0010092
-0.00100873
-0.00100827
-0.00100783
-0.00100741
-0.001007
-0.00100661
-0.00100623
-0.00100587
-0.00100552
-0.00100519
-0.00100488
-0.00100459
-0.00100431
-0.00100405
-0.0010038
-0.00100358
-0.00100337
-0.00100319
-0.00159998
-0.000970175
-0.00153912
-0.00149389
-0.00143004
-0.0019152
-0.00186957
-0.0018883
-0.00184625
-0.00185805
-0.00182026
-0.00182879
-0.00179013
-0.00179454
-0.00170119
-0.00164873
-0.00188905
-0.00187639
-0.00186429
-0.00185236
-0.00184057
-0.00182556
-0.00179462
-0.00176536
-0.00181083
-0.00179826
-0.00178646
-0.00177728
-0.00175073
-0.00160113
-0.00169775
-0.00168779
-0.00167833
-0.00166907
-0.00165969
-0.0016504
-0.00164133
-0.00163253
-0.00162398
-0.00161566
-0.00160755
-0.00159965
-0.00159194
-0.0015844
-0.00157699
-0.00156968
-0.00156244
-0.00155525
-0.0015481
-0.00154099
-0.00153395
-0.00152701
-0.00152018
-0.00151348
-0.00150691
-0.00150047
-0.00149414
-0.00148793
-0.00148184
-0.00147585
-0.00146997
-0.00146419
-0.00145852
-0.00145294
-0.00144747
-0.00144208
-0.00143679
-0.00143158
-0.00142646
-0.00142142
-0.00141647
-0.00141159
-0.00140679
-0.00140207
-0.00139742
-0.00139284
-0.00138833
-0.00138389
-0.00137951
-0.0013752
-0.00137095