/*--------------------------------*- C++ -*----------------------------------*\
| =========                 |                                                 |
| \\      /  F ield         | OpenFOAM: The Open Source CFD Toolbox           |
|  \\    /   O peration     | Version:  2.4.0                                 |
|   \\  /    A nd           | Web:      www.OpenFOAM.org                      |
|    \\/     M anipulation  |                                                 |
\*---------------------------------------------------------------------------*/
FoamFile
{
    version     2.0;
    format      ascii;
    class       volVectorField;
    location    "1";
    object      U;
}
// * * * * * * * * * * * * * * * * * * * * * * * * * * * * * * * * * * * * * //

dimensions      [0 1 -1 0 0 0 0];

internalField   nonuniform List<vector> 
8000
(
(-5.67957e-07 -8.73523e-05 0)
(-5.89789e-06 -0.000252276 0)
(-1.66148e-05 -0.000407674 0)
(-3.24548e-05 -0.000553775 0)
(-5.29843e-05 -0.000690756 0)
(-7.78836e-05 -0.000818789 0)
(-0.000106829 -0.000937987 0)
(-0.000139577 -0.00104848 0)
(-0.000175802 -0.00115033 0)
(-0.000215274 -0.00124363 0)
(-0.000257663 -0.00132837 0)
(-0.000302783 -0.00140462 0)
(-0.000350364 -0.00147232 0)
(-0.00040018 -0.0015315 0)
(-0.000451245 -0.00158193 0)
(-0.000501744 -0.00162344 0)
(-0.000552144 -0.00165591 0)
(-0.000618685 -0.00168128 0)
(-0.000741736 -0.00170363 0)
(-0.000902425 -0.0017206 0)
(-0.0010585 -0.0017336 0)
(-0.00123148 -0.00174955 0)
(-0.00138605 -0.00198109 0)
(-0.00108964 -0.0026309 0)
(-0.000866461 -0.00333425 0)
(-0.000634129 -0.00406091 0)
(-0.000357369 -0.00479736 0)
(-3.31597e-05 -0.00553051 0)
(0.000329029 -0.00624966 0)
(0.000720249 -0.00694366 0)
(0.00113387 -0.00760292 0)
(0.00156411 -0.00821996 0)
(0.00200534 -0.00878847 0)
(0.00245256 -0.00930286 0)
(0.00290197 -0.0097612 0)
(0.00334969 -0.0101677 0)
(0.00379243 -0.0105326 0)
(0.00422222 -0.0108665 0)
(0.00463613 -0.0111382 0)
(0.00503546 -0.0113581 0)
(0.00541668 -0.0115386 0)
(0.00578004 -0.0116473 0)
(0.00612666 -0.0117307 0)
(0.00645594 -0.0117829 0)
(0.00676596 -0.0117771 0)
(0.00705689 -0.0117292 0)
(0.00732784 -0.011661 0)
(0.00757913 -0.011531 0)
(0.00781298 -0.0113442 0)
(0.0080289 -0.0111471 0)
(-7.68745e-07 -4.38478e-05 0)
(-7.73263e-06 -0.000127353 0)
(-2.16526e-05 -0.000206724 0)
(-4.21287e-05 -0.000281944 0)
(-6.86132e-05 -0.000353045 0)
(-0.000100641 -0.00041998 0)
(-0.000137837 -0.000482799 0)
(-0.000179824 -0.000541428 0)
(-0.000226234 -0.000595935 0)
(-0.000276699 -0.000646209 0)
(-0.000330871 -0.000692334 0)
(-0.000388475 -0.000734149 0)
(-0.000449002 -0.000771736 0)
(-0.000511115 -0.000804758 0)
(-0.000572089 -0.000833108 0)
(-0.000633518 -0.000856537 0)
(-0.000719922 -0.00087725 0)
(-0.000885902 -0.000899427 0)
(-0.00108989 -0.00092039 0)
(-0.00126196 -0.000942081 0)
(-0.00146464 -0.00100035 0)
(-0.00148251 -0.00221465 0)
(-0.000872117 -0.00429503 0)
(-0.000368191 -0.00626089 0)
(0.000169845 -0.0080581 0)
(0.000752752 -0.00967659 0)
(0.00136558 -0.0111308 0)
(0.00198999 -0.0124058 0)
(0.00261307 -0.0135132 0)
(0.00322218 -0.0144544 0)
(0.00381229 -0.015252 0)
(0.00438001 -0.0158933 0)
(0.00492003 -0.0164008 0)
(0.00542904 -0.0167834 0)
(0.00590571 -0.0170503 0)
(0.00634785 -0.0172251 0)
(0.0067548 -0.0172854 0)
(0.00712768 -0.0172715 0)
(0.00746642 -0.0171805 0)
(0.00777145 -0.0170069 0)
(0.00804263 -0.0167896 0)
(0.00828093 -0.0165086 0)
(0.00848886 -0.0162017 0)
(0.00866606 -0.0158677 0)
(0.00881549 -0.0154837 0)
(0.00894136 -0.0150686 0)
(0.00904407 -0.0146581 0)
(0.00912603 -0.0142117 0)
(0.00919042 -0.0137457 0)
(0.00923831 -0.0132779 0)
(-8.93263e-07 5.53192e-06 0)
(-9.57955e-06 1.52264e-05 0)
(-2.69338e-05 2.37366e-05 0)
(-5.24936e-05 3.12131e-05 0)
(-8.55175e-05 3.7953e-05 0)
(-0.000125511 4.39444e-05 0)
(-0.00017201 4.94442e-05 0)
(-0.000224693 5.42576e-05 0)
(-0.000283157 5.8576e-05 0)
(-0.000347124 6.20104e-05 0)
(-0.000416283 6.46601e-05 0)
(-0.000490152 6.5954e-05 0)
(-0.000567235 6.59211e-05 0)
(-0.000644576 6.39172e-05 0)
(-0.00072382 5.97168e-05 0)
(-0.000831425 5.14859e-05 0)
(-0.00102543 3.6775e-05 0)
(-0.00125809 1.02753e-05 0)
(-0.00145282 -1.8522e-05 0)
(-0.00166854 -0.000129882 0)
(-5.64936e-05 -0.00360468 0)
(0.00193211 -0.00835384 0)
(0.00329923 -0.012089 0)
(0.00455638 -0.0149519 0)
(0.00564279 -0.017157 0)
(0.00653766 -0.0187937 0)
(0.00725725 -0.019923 0)
(0.00782836 -0.0207387 0)
(0.0082778 -0.0213001 0)
(0.00861874 -0.0216405 0)
(0.00886835 -0.0218185 0)
(0.00904285 -0.0218205 0)
(0.00915194 -0.0216845 0)
(0.00920371 -0.0214304 0)
(0.00920598 -0.0210741 0)
(0.00916482 -0.0206458 0)
(0.00908628 -0.020138 0)
(0.00897546 -0.0195901 0)
(0.0088378 -0.0190129 0)
(0.0086792 -0.018392 0)
(0.00850378 -0.0177523 0)
(0.00831677 -0.0170987 0)
(0.00812117 -0.0164417 0)
(0.00791931 -0.01579 0)
(0.00771401 -0.015144 0)
(0.00750812 -0.0145089 0)
(0.00730283 -0.0138954 0)
(0.00709958 -0.0132873 0)
(0.00690046 -0.0126897 0)
(0.00670667 -0.0121033 0)
(-6.06201e-07 7.64362e-05 0)
(-4.0208e-06 0.000214908 0)
(-1.11835e-05 0.000341159 0)
(-2.23614e-05 0.000457735 0)
(-3.84702e-05 0.000565981 0)
(-6.00153e-05 0.000667881 0)
(-8.82504e-05 0.000763649 0)
(-0.000123711 0.000854813 0)
(-0.000167909 0.000940488 0)
(-0.000221475 0.00102176 0)
(-0.000286124 0.00109661 0)
(-0.000362118 0.00116563 0)
(-0.000450255 0.0012256 0)
(-0.000551896 0.00127646 0)
(-0.000680537 0.00131371 0)
(-0.000864847 0.00133612 0)
(-0.00110123 0.00134136 0)
(-0.00138188 0.00132257 0)
(-0.00174775 0.000665301 0)
(-0.00260638 -0.0439825 0)
(0.00065261 -0.0379251 0)
(-5.6652e-06 -0.0412243 0)
(0.00144828 -0.0392093 0)
(0.00273313 -0.0358576 0)
(0.00354457 -0.0326346 0)
(0.00392741 -0.0297739 0)
(0.00406493 -0.0272297 0)
(0.00404239 -0.0251123 0)
(0.00392409 -0.0233482 0)
(0.00374605 -0.0218572 0)
(0.00352501 -0.020581 0)
(0.0032703 -0.0194448 0)
(0.00299072 -0.0184116 0)
(0.0026935 -0.0174562 0)
(0.0023854 -0.0165633 0)
(0.00207268 -0.0157258 0)
(0.00176109 -0.0149367 0)
(0.00145527 -0.0142004 0)
(0.00115794 -0.0135187 0)
(0.000871871 -0.0128836 0)
(0.000599426 -0.0123002 0)
(0.000341902 -0.0117601 0)
(0.000100486 -0.0112586 0)
(-0.000124152 -0.0107928 0)
(-0.000331869 -0.0103593 0)
(-0.000522795 -0.00995306 0)
(-0.000697209 -0.00957027 0)
(-0.00085552 -0.00920788 0)
(-0.000998124 -0.00886271 0)
(-0.00112546 -0.00853155 0)
(2.03034e-06 3.58946e-05 0)
(1.36595e-05 0.000121277 0)
(3.34531e-05 0.000222502 0)
(5.87159e-05 0.000340092 0)
(8.73472e-05 0.000477669 0)
(0.000116539 0.000634309 0)
(0.000144795 0.000815213 0)
(0.000169152 0.00101771 0)
(0.000188291 0.00124913 0)
(0.000198786 0.00150449 0)
(0.000199303 0.00179411 0)
(0.000186077 0.0021098 0)
(0.00015885 0.00246604 0)
(0.000114861 0.00284996 0)
(4.85616e-05 0.00328216 0)
(-7.53782e-05 0.00374435 0)
(-0.000293369 0.00426854 0)
(-0.000594769 0.0051261 0)
(-0.00102899 0.00452324 0)
(-0.00215985 -0.00573451 0)
(-0.00374668 -0.00693179 0)
(-0.00635082 -0.0623063 0)
(-0.0061585 -0.0518531 0)
(-0.00707046 -0.0424112 0)
(-0.00797023 -0.0322652 0)
(-0.00923031 -0.0258313 0)
(-0.0104205 -0.0220783 0)
(-0.0112739 -0.0197124 0)
(-0.0118728 -0.018191 0)
(-0.0122557 -0.0171783 0)
(-0.0124779 -0.0163304 0)
(-0.0125944 -0.0155579 0)
(-0.012629 -0.0148487 0)
(-0.0126035 -0.0142045 0)
(-0.0125303 -0.0136275 0)
(-0.0124205 -0.0131171 0)
(-0.0122822 -0.0126657 0)
(-0.0121221 -0.0122634 0)
(-0.0119457 -0.011902 0)
(-0.0117578 -0.0115748 0)
(-0.0115623 -0.0112749 0)
(-0.0113622 -0.0109973 0)
(-0.01116 -0.0107377 0)
(-0.0109579 -0.0104917 0)
(-0.0107574 -0.0102559 0)
(-0.0105598 -0.0100273 0)
(-0.0103662 -0.00980372 0)
(-0.0101771 -0.00958302 0)
(-0.00999299 -0.00936357 0)
(-0.00981415 -0.00914406 0)
(7.13115e-07 -6.37467e-05 0)
(9.41135e-06 -0.00014404 0)
(2.70482e-05 -0.000178477 0)
(5.28789e-05 -0.000165347 0)
(8.59936e-05 -0.000106939 0)
(0.000125379 1.26562e-06 0)
(0.000170491 0.000155459 0)
(0.000220518 0.000363611 0)
(0.000275086 0.000619602 0)
(0.000333506 0.000935976 0)
(0.000395467 0.00130307 0)
(0.000460335 0.00173976 0)
(0.000527611 0.00223094 0)
(0.000597642 0.00280436 0)
(0.000673188 0.00343648 0)
(0.000759761 0.00416826 0)
(0.000842771 0.00496612 0)
(0.000839908 0.00589372 0)
(0.000639511 0.00612384 0)
(0.000281074 0.00662632 0)
(-0.000428731 0.00855669 0)
(-0.00247373 0.000310713 0)
(-0.00319773 0.00954956 0)
(-0.0114941 -0.0200149 0)
(-0.0101046 -0.00442744 0)
(-0.00781236 0.00532446 0)
(-0.0119386 -0.000281083 0)
(-0.0127713 -0.00568796 0)
(-0.0130059 -0.0101745 0)
(-0.0136947 -0.013851 0)
(-0.0145016 -0.0162649 0)
(-0.015111 -0.0175059 0)
(-0.0155523 -0.0181762 0)
(-0.0158171 -0.0185804 0)
(-0.0159138 -0.0187601 0)
(-0.0158837 -0.0187473 0)
(-0.0157521 -0.0186018 0)
(-0.0155471 -0.018354 0)
(-0.0152919 -0.0180242 0)
(-0.0150035 -0.0176368 0)
(-0.0146931 -0.0172107 0)
(-0.01437 -0.0167578 0)
(-0.0140424 -0.0162873 0)
(-0.0137167 -0.0158059 0)
(-0.0133977 -0.0153193 0)
(-0.0130886 -0.0148321 0)
(-0.0127914 -0.0143485 0)
(-0.0125074 -0.0138713 0)
(-0.0122371 -0.0134021 0)
(-0.0119803 -0.0129419 0)
(4.7379e-07 -9.49014e-05 0)
(5.33779e-06 -0.000244644 0)
(1.58371e-05 -0.000354701 0)
(3.28009e-05 -0.000425442 0)
(5.62553e-05 -0.000457154 0)
(8.75032e-05 -0.000449794 0)
(0.000126511 -0.000403642 0)
(0.000175075 -0.000318004 0)
(0.000233075 -0.00019358 0)
(0.0003028 -2.85114e-05 0)
(0.000384131 0.000175339 0)
(0.000479885 0.000421939 0)
(0.00059004 0.000706988 0)
(0.000717854 0.0010382 0)
(0.000863672 0.00140662 0)
(0.00103197 0.00182615 0)
(0.00122591 0.00227919 0)
(0.00145084 0.00279171 0)
(0.00168905 0.00333712 0)
(0.00185457 0.00397659 0)
(0.0018064 0.00449416 0)
(0.00160375 0.00436803 0)
(0.0015052 0.00497771 0)
(0.00141919 0.00738999 0)
(0.000224135 0.000786898 0)
(0.000249514 0.00386145 0)
(0.0019855 0.00776959 0)
(-0.00359432 -0.00177664 0)
(0.000924555 -0.0131703 0)
(0.000431991 0.00608178 0)
(-0.00345943 0.00311221 0)
(-0.00283792 -0.00135059 0)
(-0.00353044 -0.00500708 0)
(-0.00438069 -0.00874635 0)
(-0.00542246 -0.012237 0)
(-0.00620432 -0.0146073 0)
(-0.00678505 -0.0162684 0)
(-0.00722454 -0.0174452 0)
(-0.0075349 -0.018172 0)
(-0.00773995 -0.018565 0)
(-0.00786247 -0.0187404 0)
(-0.00793283 -0.0187061 0)
(-0.00797059 -0.0185033 0)
(-0.0079872 -0.0181735 0)
(-0.00799025 -0.0177525 0)
(-0.00798478 -0.0172705 0)
(-0.00797396 -0.0167514 0)
(-0.00795966 -0.0162133 0)
(-0.00794293 -0.0156687 0)
(-0.00792427 -0.015126 0)
(1.16599e-07 -0.000122883 0)
(2.72747e-06 -0.00033532 0)
(9.08359e-06 -0.000514953 0)
(1.97344e-05 -0.000663628 0)
(3.51809e-05 -0.000781185 0)
(5.60099e-05 -0.000870236 0)
(8.27743e-05 -0.000929466 0)
(0.0001162 -0.000962605 0)
(0.00015683 -0.000966833 0)
(0.000205558 -0.000947516 0)
(0.000262886 -0.000899759 0)
(0.000329929 -0.000831315 0)
(0.000407115 -0.000734372 0)
(0.000495824 -0.000620114 0)
(0.000596378 -0.000476634 0)
(0.000710415 -0.000319961 0)
(0.000838224 -0.000132581 0)
(0.000981874 6.26178e-05 0)
(0.0011422 0.000290709 0)
(0.00132133 0.000521445 0)
(0.00151734 0.00079661 0)
(0.00170995 0.00108439 0)
(0.00183732 0.00149617 0)
(0.00183735 0.00193724 0)
(0.00175324 0.00178024 0)
(0.00175956 0.00194392 0)
(0.00195945 0.00238382 0)
(0.00224329 0.00487996 0)
(0.00185309 0.000813043 0)
(0.00159052 0.00781151 0)
(0.00180136 0.00969273 0)
(-0.000651224 0.00946977 0)
(0.000433604 -0.00285837 0)
(0.00235161 0.00569826 0)
(-0.00183784 0.0039787 0)
(-0.00124484 -0.0035942 0)
(-0.00137247 -0.00733153 0)
(-0.00223663 -0.0098229 0)
(-0.00277392 -0.0124193 0)
(-0.00289626 -0.0143345 0)
(-0.00285642 -0.0155119 0)
(-0.00284348 -0.0160747 0)
(-0.00288516 -0.0162527 0)
(-0.00296922 -0.0161776 0)
(-0.00308282 -0.0159345 0)
(-0.00321557 -0.0155894 0)
(-0.00335936 -0.0151872 0)
(-0.00350847 -0.0147573 0)
(-0.00365862 -0.0143179 0)
(-0.00380669 -0.0138794 0)
(9.26154e-08 -0.000131191 0)
(9.58421e-07 -0.000366576 0)
(3.30839e-06 -0.000575699 0)
(7.32514e-06 -0.000759045 0)
(1.36267e-05 -0.000917749 0)
(2.22437e-05 -0.00105199 0)
(3.3913e-05 -0.00116317 0)
(4.84418e-05 -0.00125109 0)
(6.66879e-05 -0.00131746 0)
(8.82279e-05 -0.00136165 0)
(0.000114058 -0.00138569 0)
(0.00014352 -0.00138841 0)
(0.000177755 -0.00137227 0)
(0.000215875 -0.00133548 0)
(0.00025915 -0.00128094 0)
(0.000306488 -0.00120622 0)
(0.000359231 -0.00111463 0)
(0.000416136 -0.00100319 0)
(0.000478523 -0.000875479 0)
(0.000545281 -0.000728233 0)
(0.000617943 -0.000564981 0)
(0.000696241 -0.000382447 0)
(0.000781426 -0.000181631 0)
(0.000872679 4.41451e-05 0)
(0.000964202 0.000296262 0)
(0.00104353 0.000606757 0)
(0.00107865 0.00100583 0)
(0.00104413 0.00151903 0)
(0.000976576 0.00162545 0)
(0.00109157 0.00205772 0)
(0.00144406 0.00248028 0)
(0.00190421 0.0038128 0)
(0.00224872 0.000896966 0)
(0.00220154 0.00471705 0)
(0.0021658 0.00894208 0)
(0.00103025 0.00323597 0)
(0.0020171 -0.0072914 0)
(0.00207782 0.0009954 0)
(-0.000166245 -0.0117213 0)
(0.000236617 -0.0218642 0)
(-0.000373085 -0.0189241 0)
(-0.000946609 -0.0175205 0)
(-0.00129488 -0.0162655 0)
(-0.00153033 -0.0151488 0)
(-0.00172491 -0.0141567 0)
(-0.00190518 -0.0133218 0)
(-0.002076 -0.0126161 0)
(-0.00223701 -0.0120168 0)
(-0.00238813 -0.0115036 0)
(-0.00253023 -0.0110581 0)
(-1.41298e-07 -0.000130606 0)
(-3.2341e-07 -0.000370343 0)
(-7.21812e-08 -0.000588618 0)
(9.89592e-07 -0.000785709 0)
(3.08178e-06 -0.000961584 0)
(6.54135e-06 -0.00111669 0)
(1.14785e-05 -0.00125089 0)
(1.82073e-05 -0.00136479 0)
(2.67577e-05 -0.00145812 0)
(3.74255e-05 -0.00153165 0)
(5.01772e-05 -0.00158494 0)
(6.52906e-05 -0.00161892 0)
(8.26895e-05 -0.00163296 0)
(0.00010263 -0.00162816 0)
(0.00012502 -0.00160367 0)
(0.000150086 -0.00156074 0)
(0.000177752 -0.00149833 0)
(0.000208201 -0.00141783 0)
(0.000241411 -0.00131804 0)
(0.000277505 -0.00120041 0)
(0.000316557 -0.00106368 0)
(0.000358642 -0.000909308 0)
(0.00040404 -0.000736214 0)
(0.000452954 -0.000545657 0)
(0.000506127 -0.000336924 0)
(0.000564619 -0.000110271 0)
(0.000630377 0.000135171 0)
(0.000705119 0.000401754 0)
(0.00078791 0.000686684 0)
(0.000871906 0.00101047 0)
(0.000925198 0.00136463 0)
(0.000907921 0.00181709 0)
(0.00085361 0.00186478 0)
(0.00090556 0.00224132 0)
(0.00113705 0.00261076 0)
(0.00148306 0.00324046 0)
(0.00149273 0.000592245 0)
(0.00130741 0.00508498 0)
(0.000535731 0.00589111 0)
(-0.000406608 -0.00283523 0)
(-0.000336141 0.00417315 0)
(-0.0023749 -0.00799353 0)
(-0.00215512 -0.0115274 0)
(-0.00268024 -0.0114178 0)
(-0.00302692 -0.0116007 0)
(-0.00317865 -0.0115886 0)
(-0.00328348 -0.0114637 0)
(-0.00337262 -0.0112825 0)
(-0.00345576 -0.0110645 0)
(-0.00353005 -0.0108201 0)
(6.66129e-08 -0.000130572 0)
(2.96798e-07 -0.000373699 0)
(8.49275e-07 -0.000598706 0)
(1.82534e-06 -0.000805453 0)
(3.44029e-06 -0.00099391 0)
(5.83818e-06 -0.001164 0)
(9.26275e-06 -0.0013158 0)
(1.384e-05 -0.00144929 0)
(1.98279e-05 -0.00156462 0)
(2.73358e-05 -0.00166181 0)
(3.6635e-05 -0.00174109 0)
(4.7822e-05 -0.0018025 0)
(6.11789e-05 -0.0018463 0)
(7.67948e-05 -0.00187262 0)
(9.49602e-05 -0.00188168 0)
(0.000115764 -0.00187373 0)
(0.000139504 -0.00184895 0)
(0.000166276 -0.00180774 0)
(0.000196383 -0.00175019 0)
(0.000229937 -0.00167694 0)
(0.000267241 -0.00158791 0)
(0.000308432 -0.00148413 0)
(0.000353813 -0.00136521 0)
(0.000403541 -0.00123277 0)
(0.000457918 -0.00108592 0)
(0.000517151 -0.000927208 0)
(0.000581605 -0.000755033 0)
(0.000651605 -0.000573333 0)
(0.000727648 -0.000379431 0)
(0.000810279 -0.000178939 0)
(0.00090032 3.31276e-05 0)
(0.000997658 0.000250661 0)
(0.00110096 0.000482551 0)
(0.00120381 0.000735123 0)
(0.00128064 0.000959433 0)
(0.00132293 0.00117798 0)
(0.00133055 0.00116289 0)
(0.00138942 0.00145799 0)
(0.00159869 0.00186542 0)
(0.00182803 7.20503e-06 0)
(0.00180033 0.000215172 0)
(0.00159041 -0.000516647 0)
(0.00156731 -0.00770618 0)
(0.00103907 -0.000722329 0)
(0.000523727 -0.0110907 0)
(0.000296827 -0.0100811 0)
(-4.64538e-05 -0.00961137 0)
(-0.000260309 -0.00928664 0)
(-0.000448894 -0.00905279 0)
(-0.000637752 -0.00889295 0)
(-1.27668e-07 -0.00013051 0)
(-8.34096e-07 -0.000374394 0)
(-2.02724e-06 -0.000601351 0)
(-3.53761e-06 -0.000811624 0)
(-5.18176e-06 -0.00100544 0)
(-6.76675e-06 -0.00118303 0)
(-8.10571e-06 -0.00134458 0)
(-8.98859e-06 -0.0014903 0)
(-9.21465e-06 -0.00162039 0)
(-8.56037e-06 -0.00173505 0)
(-6.81562e-06 -0.00183448 0)
(-3.75216e-06 -0.00191886 0)
(8.46353e-07 -0.00198843 0)
(7.20599e-06 -0.00204336 0)
(1.55472e-05 -0.00208391 0)
(2.60872e-05 -0.00211023 0)
(3.90488e-05 -0.00212264 0)
(5.46331e-05 -0.00212125 0)
(7.3063e-05 -0.00210645 0)
(9.4516e-05 -0.0020783 0)
(0.000119211 -0.00203728 0)
(0.000147293 -0.00198339 0)
(0.000178971 -0.0019172 0)
(0.00021435 -0.00183863 0)
(0.000253613 -0.00174836 0)
(0.000296815 -0.00164623 0)
(0.0003441 -0.00153302 0)
(0.00039545 -0.00140847 0)
(0.000450933 -0.00127343 0)
(0.000510472 -0.00112758 0)
(0.000574065 -0.000971809 0)
(0.00064171 -0.000805801 0)
(0.000713281 -0.000630261 0)
(0.000788657 -0.000444847 0)
(0.000866903 -0.000249383 0)
(0.000946933 -4.1917e-05 0)
(0.00102692 0.00018395 0)
(0.00109908 0.000421615 0)
(0.00114073 0.000703897 0)
(0.00113397 0.000739493 0)
(0.00110486 0.000998608 0)
(0.00107077 0.000975466 0)
(0.000949379 -0.000438795 0)
(0.000663664 0.000549926 0)
(0.000224752 -0.00519119 0)
(0.000353964 -0.00334089 0)
(-0.000169069 -0.0072527 0)
(-0.000291009 -0.00732872 0)
(-0.000601674 -0.0067151 0)
(-0.00082753 -0.00638843 0)
(-2.12271e-07 -0.000122594 0)
(-2.44959e-06 -0.000352916 0)
(-6.84375e-06 -0.00056867 0)
(-1.31514e-05 -0.000770186 0)
(-2.10327e-05 -0.000957769 0)
(-3.01783e-05 -0.00113172 0)
(-4.031e-05 -0.0012923 0)
(-5.11595e-05 -0.00143977 0)
(-6.24663e-05 -0.00157432 0)
(-7.39729e-05 -0.00169621 0)
(-8.54309e-05 -0.00180561 0)
(-9.65946e-05 -0.00190275 0)
(-0.000107228 -0.00198776 0)
(-0.000117095 -0.00206089 0)
(-0.000125971 -0.00212222 0)
(-0.000133631 -0.00217203 0)
(-0.00013986 -0.00221033 0)
(-0.000144444 -0.00223743 0)
(-0.000147173 -0.00225328 0)
(-0.000147849 -0.00225825 0)
(-0.000146265 -0.00225217 0)
(-0.000142238 -0.00223549 0)
(-0.000135561 -0.0022079 0)
(-0.000126072 -0.00216998 0)
(-0.000113556 -0.00212118 0)
(-9.78769e-05 -0.00206228 0)
(-7.88031e-05 -0.00199238 0)
(-5.62329e-05 -0.00191258 0)
(-2.9904e-05 -0.00182149 0)
(2.41317e-07 -0.00172061 0)
(3.45116e-05 -0.00160786 0)
(7.2911e-05 -0.00148541 0)
(0.000115811 -0.00135014 0)
(0.00016316 -0.00120518 0)
(0.0002155 -0.00104596 0)
(0.000272751 -0.000876999 0)
(0.0003358 -0.000691511 0)
(0.000404161 -0.000496101 0)
(0.000478624 -0.000280282 0)
(0.000558194 -5.04166e-05 0)
(0.000641769 0.000207815 0)
(0.000706369 0.000293298 0)
(0.000727397 0.00033505 0)
(0.000727638 0.000407274 0)
(0.000704177 -0.00017892 0)
(0.000503712 -0.00127709 0)
(0.00037505 -0.00152014 0)
(0.00012428 -0.00401309 0)
(-3.88991e-06 -0.00332986 0)
(-0.000199913 -0.00389442 0)
(-4.61987e-07 -9.77672e-05 0)
(-3.81274e-06 -0.000284098 0)
(-1.01012e-05 -0.000461192 0)
(-1.89628e-05 -0.000629038 0)
(-2.99907e-05 -0.000787643 0)
(-4.28517e-05 -0.000937018 0)
(-5.72504e-05 -0.00107719 0)
(-7.29205e-05 -0.00120818 0)
(-8.95924e-05 -0.00133003 0)
(-0.000107025 -0.00144275 0)
(-0.000124964 -0.00154643 0)
(-0.000143193 -0.00164109 0)
(-0.000161471 -0.00172683 0)
(-0.000179599 -0.00180369 0)
(-0.000197344 -0.00187178 0)
(-0.000214524 -0.00193117 0)
(-0.000230907 -0.00198199 0)
(-0.000246325 -0.00202432 0)
(-0.000260541 -0.00205832 0)
(-0.000273401 -0.00208409 0)
(-0.000284657 -0.0021018 0)
(-0.000294163 -0.00211157 0)
(-0.000301653 -0.00211361 0)
(-0.000306991 -0.00210805 0)
(-0.000309881 -0.00209513 0)
(-0.000310192 -0.00207501 0)
(-0.000307592 -0.00204794 0)
(-0.000301949 -0.00201413 0)
(-0.000292879 -0.00197382 0)
(-0.000280245 -0.00192734 0)
(-0.000263598 -0.00187484 0)
(-0.00024278 -0.00181684 0)
(-0.000217272 -0.00175332 0)
(-0.00018686 -0.00168512 0)
(-0.00015097 -0.00161192 0)
(-0.000109275 -0.00153504 0)
(-6.11189e-05 -0.00145364 0)
(-5.98198e-06 -0.00136984 0)
(5.7064e-05 -0.0012819 0)
(0.000127873 -0.00119307 0)
(0.000206527 -0.00110021 0)
(0.00029269 -0.00100835 0)
(0.000391756 -0.000898069 0)
(0.000502717 -0.000890332 0)
(0.00058151 -0.00100036 0)
(0.000613737 -0.00112244 0)
(0.000620478 -0.00126087 0)
(0.000611749 -0.00156016 0)
(0.000520466 -0.00178012 0)
(0.000432831 -0.00224306 0)
(-1.16829e-07 -8.02578e-05 0)
(-1.76828e-06 -0.000235452 0)
(-5.13415e-06 -0.000385089 0)
(-1.00726e-05 -0.000528934 0)
(-1.63538e-05 -0.000666786 0)
(-2.37625e-05 -0.000798489 0)
(-3.21117e-05 -0.000923914 0)
(-4.12182e-05 -0.00104296 0)
(-5.09079e-05 -0.00115555 0)
(-6.10047e-05 -0.00126162 0)
(-7.1342e-05 -0.00136114 0)
(-8.175e-05 -0.00145409 0)
(-9.20687e-05 -0.00154047 0)
(-0.000102134 -0.00162031 0)
(-0.000111791 -0.00169364 0)
(-0.00012088 -0.00176052 0)
(-0.00012925 -0.00182103 0)
(-0.000136745 -0.00187527 0)
(-0.000143218 -0.00192334 0)
(-0.000148516 -0.00196538 0)
(-0.000152492 -0.00200152 0)
(-0.000155 -0.00203195 0)
(-0.000155892 -0.00205684 0)
(-0.000155027 -0.00207643 0)
(-0.000152253 -0.00209092 0)
(-0.000147442 -0.00210061 0)
(-0.000140434 -0.00210576 0)
(-0.000131113 -0.00210669 0)
(-0.000119311 -0.00210376 0)
(-0.000104931 -0.00209735 0)
(-8.77922e-05 -0.00208788 0)
(-6.78185e-05 -0.0020758 0)
(-4.4818e-05 -0.00206168 0)
(-1.87407e-05 -0.00204598 0)
(1.06193e-05 -0.00202945 0)
(4.32798e-05 -0.00201261 0)
(7.94595e-05 -0.00199643 0)
(0.00011914 -0.00198144 0)
(0.000162541 -0.00196893 0)
(0.000209639 -0.00195945 0)
(0.000260687 -0.00195464 0)
(0.000315726 -0.00195494 0)
(0.000374599 -0.0019624 0)
(0.000436056 -0.0019778 0)
(0.00049613 -0.0020031 0)
(0.000543105 -0.00204651 0)
(0.000578067 -0.00209792 0)
(0.000609899 -0.00214143 0)
(0.00063721 -0.00217336 0)
(0.000659166 -0.00220161 0)
(-1.4103e-07 -7.21554e-05 0)
(-7.91552e-07 -0.000212651 0)
(-1.90391e-06 -0.000349152 0)
(-3.38749e-06 -0.000481473 0)
(-5.17213e-06 -0.000609452 0)
(-7.20065e-06 -0.00073295 0)
(-9.41696e-06 -0.000851851 0)
(-1.17637e-05 -0.000966059 0)
(-1.41789e-05 -0.0010755 0)
(-1.66004e-05 -0.00118012 0)
(-1.89615e-05 -0.00127987 0)
(-2.11961e-05 -0.00137473 0)
(-2.32339e-05 -0.00146471 0)
(-2.50047e-05 -0.0015498 0)
(-2.6435e-05 -0.00163003 0)
(-2.74517e-05 -0.00170546 0)
(-2.79787e-05 -0.00177613 0)
(-2.79404e-05 -0.00184212 0)
(-2.72601e-05 -0.00190351 0)
(-2.58607e-05 -0.00196039 0)
(-2.36665e-05 -0.00201289 0)
(-2.06006e-05 -0.00206113 0)
(-1.65907e-05 -0.00210524 0)
(-1.15619e-05 -0.00214536 0)
(-5.44863e-06 -0.00218168 0)
(1.81959e-06 -0.00221433 0)
(1.02976e-05 -0.00224353 0)
(2.00485e-05 -0.00226945 0)
(3.11112e-05 -0.0022923 0)
(4.35373e-05 -0.00231229 0)
(5.7344e-05 -0.00232964 0)
(7.25661e-05 -0.00234458 0)
(8.91913e-05 -0.00235735 0)
(0.000107231 -0.00236819 0)
(0.000126634 -0.00237737 0)
(0.000147379 -0.00238512 0)
(0.000169367 -0.00239172 0)
(0.000192527 -0.00239743 0)
(0.000216708 -0.00240253 0)
(0.000241769 -0.00240725 0)
(0.00026749 -0.00241191 0)
(0.000293653 -0.00241671 0)
(0.00031989 -0.00242199 0)
(0.000345952 -0.00242786 0)
(0.000371466 -0.00243461 0)
(0.000396461 -0.00244193 0)
(0.000419921 -0.0024524 0)
(0.000435339 -0.00245832 0)
(0.000445223 -0.00245473 0)
(0.000457572 -0.00244243 0)
(1.45411e-07 -7.44563e-05 0)
(7.34664e-07 -0.000219129 0)
(1.76279e-06 -0.000359416 0)
(3.16756e-06 -0.000495157 0)
(4.91465e-06 -0.000626222 0)
(6.97424e-06 -0.000752515 0)
(9.31163e-06 -0.000873964 0)
(1.18877e-05 -0.000990523 0)
(1.46604e-05 -0.00110217 0)
(1.75895e-05 -0.0012089 0)
(2.06358e-05 -0.00131072 0)
(2.37648e-05 -0.00140768 0)
(2.69453e-05 -0.00149981 0)
(3.0152e-05 -0.0015872 0)
(3.33638e-05 -0.0016699 0)
(3.65658e-05 -0.00174802 0)
(3.97474e-05 -0.00182165 0)
(4.29039e-05 -0.00189091 0)
(4.60346e-05 -0.00195591 0)
(4.91438e-05 -0.00201679 0)
(5.22389e-05 -0.00207368 0)
(5.53315e-05 -0.00212671 0)
(5.84349e-05 -0.00217604 0)
(6.15655e-05 -0.00222182 0)
(6.47405e-05 -0.00226419 0)
(6.79783e-05 -0.00230332 0)
(7.12971e-05 -0.00233936 0)
(7.47145e-05 -0.00237248 0)
(7.82475e-05 -0.00240283 0)
(8.19098e-05 -0.00243058 0)
(8.57142e-05 -0.00245587 0)
(8.96679e-05 -0.00247888 0)
(9.37766e-05 -0.00249973 0)
(9.80384e-05 -0.0025186 0)
(0.000102449 -0.00253561 0)
(0.000106995 -0.0025509 0)
(0.000111659 -0.00256459 0)
(0.000116414 -0.0025768 0)
(0.000121228 -0.00258763 0)
(0.000126057 -0.00259718 0)
(0.000130855 -0.0026055 0)
(0.000135553 -0.00261265 0)
(0.000140089 -0.00261866 0)
(0.000144373 -0.00262354 0)
(0.000148358 -0.00262725 0)
(0.00015212 -0.00262978 0)
(0.00015544 -0.0026318 0)
(0.000157088 -0.00263153 0)
(0.000154273 -0.00262727 0)
(0.000150723 -0.00261872 0)
(2.44516e-07 -7.60254e-05 0)
(3.86987e-06 -0.000225187 0)
(1.09019e-05 -0.000370656 0)
(2.08504e-05 -0.000511742 0)
(3.30076e-05 -0.00064793 0)
(4.67716e-05 -0.000778845 0)
(6.16536e-05 -0.000904228 0)
(7.72398e-05 -0.00102392 0)
(9.31746e-05 -0.00113782 0)
(0.000109153 -0.00124593 0)
(0.000124918 -0.00134827 0)
(0.000140254 -0.00144491 0)
(0.000154984 -0.00153596 0)
(0.000168966 -0.00162156 0)
(0.000182086 -0.00170186 0)
(0.000194258 -0.00177705 0)
(0.000205418 -0.00184729 0)
(0.000215524 -0.00191279 0)
(0.000224551 -0.00197375 0)
(0.000232488 -0.00203035 0)
(0.000239339 -0.00208282 0)
(0.000245117 -0.00213133 0)
(0.000249847 -0.00217609 0)
(0.000253557 -0.0022173 0)
(0.000256288 -0.00225514 0)
(0.000258079 -0.0022898 0)
(0.000258978 -0.00232145 0)
(0.000259032 -0.00235025 0)
(0.000258293 -0.00237638 0)
(0.000256809 -0.00239999 0)
(0.000254634 -0.00242122 0)
(0.000251818 -0.0024402 0)
(0.000248412 -0.00245708 0)
(0.000244463 -0.00247197 0)
(0.000240021 -0.00248497 0)
(0.000235129 -0.00249618 0)
(0.000229833 -0.00250571 0)
(0.000224174 -0.00251361 0)
(0.000218192 -0.00251998 0)
(0.000211926 -0.00252484 0)
(0.000205413 -0.00252828 0)
(0.000198697 -0.00253029 0)
(0.000191799 -0.00253093 0)
(0.000184789 -0.00253017 0)
(0.000177678 -0.00252805 0)
(0.000170528 -0.0025245 0)
(0.000163416 -0.00252116 0)
(0.000156061 -0.00251807 0)
(0.000147917 -0.00251071 0)
(0.000139236 -0.00250307 0)
(1.83006e-06 -0.000134983 0)
(1.22268e-05 -0.000376313 0)
(2.94404e-05 -0.000594154 0)
(5.1441e-05 -0.000790681 0)
(7.64387e-05 -0.000967841 0)
(0.000103124 -0.00112739 0)
(0.000130516 -0.00127096 0)
(0.000157845 -0.00140001 0)
(0.000184501 -0.00151591 0)
(0.000210011 -0.00161991 0)
(0.000234016 -0.00171315 0)
(0.000256253 -0.00179665 0)
(0.000276535 -0.00187137 0)
(0.00029474 -0.00193816 0)
(0.000310793 -0.0019978 0)
(0.000324666 -0.00205101 0)
(0.000336359 -0.00209842 0)
(0.000345901 -0.00214062 0)
(0.00035334 -0.00217815 0)
(0.00035874 -0.00221147 0)
(0.000362176 -0.00224103 0)
(0.000363732 -0.00226723 0)
(0.000363498 -0.00229041 0)
(0.000361567 -0.00231089 0)
(0.000358032 -0.00232898 0)
(0.000352989 -0.00234493 0)
(0.000346528 -0.00235899 0)
(0.000338742 -0.00237136 0)
(0.000329714 -0.00238224 0)
(0.000319529 -0.0023918 0)
(0.00030826 -0.0024002 0)
(0.00029598 -0.00240758 0)
(0.000282749 -0.00241407 0)
(0.000268624 -0.00241976 0)
(0.000253648 -0.00242478 0)
(0.00023786 -0.0024292 0)
(0.000221278 -0.00243311 0)
(0.000203921 -0.00243657 0)
(0.000185774 -0.00243966 0)
(0.000166825 -0.00244241 0)
(0.00014702 -0.00244492 0)
(0.000126301 -0.0024472 0)
(0.000104562 -0.00244933 0)
(8.17118e-05 -0.00245134 0)
(5.76323e-05 -0.00245332 0)
(3.20906e-05 -0.00245531 0)
(4.21418e-06 -0.00245815 0)
(-2.79624e-05 -0.00246263 0)
(-6.27986e-05 -0.00246135 0)
(-9.25814e-05 -0.00245772 0)
(7.02976e-05 -0.000202844 0)
(0.000203116 -0.000543874 0)
(0.000311698 -0.000827912 0)
(0.000400089 -0.00106445 0)
(0.000472085 -0.00126129 0)
(0.000530357 -0.0014249 0)
(0.000576775 -0.00156067 0)
(0.000612903 -0.0016731 0)
(0.000640118 -0.00176601 0)
(0.000659628 -0.00184256 0)
(0.000672479 -0.00190542 0)
(0.000679577 -0.00195684 0)
(0.000681703 -0.00199868 0)
(0.000679539 -0.00203253 0)
(0.000673672 -0.00205971 0)
(0.000664614 -0.00208132 0)
(0.00065281 -0.0020983 0)
(0.000638645 -0.00211142 0)
(0.000622455 -0.00212134 0)
(0.000604532 -0.0021286 0)
(0.000585129 -0.00213366 0)
(0.000564468 -0.0021369 0)
(0.000542741 -0.00213862 0)
(0.000520115 -0.00213908 0)
(0.000496736 -0.0021385 0)
(0.000472732 -0.00213702 0)
(0.000448216 -0.00213479 0)
(0.000423285 -0.00213189 0)
(0.000398029 -0.00212838 0)
(0.000372524 -0.00212429 0)
(0.000346844 -0.00211962 0)
(0.000321053 -0.00211434 0)
(0.000295215 -0.00210839 0)
(0.000269392 -0.00210167 0)
(0.000243643 -0.00209405 0)
(0.000218035 -0.00208536 0)
(0.000192633 -0.00207535 0)
(0.000167514 -0.00206379 0)
(0.000142762 -0.00205028 0)
(0.000118476 -0.00203446 0)
(9.47683e-05 -0.00201575 0)
(7.17732e-05 -0.00199361 0)
(4.96438e-05 -0.00196719 0)
(2.85551e-05 -0.00193572 0)
(8.74008e-06 -0.00189798 0)
(-9.41425e-06 -0.00185294 0)
(-2.51666e-05 -0.00179912 0)
(-3.91474e-05 -0.00172207 0)
(-5.18969e-05 -0.00163974 0)
(-6.45903e-05 -0.00152857 0)
(0.00822623 -0.0109169 0)
(0.0084053 -0.0107025 0)
(0.00856489 -0.0104868 0)
(0.0087067 -0.0102346 0)
(0.00883238 -0.00995773 0)
(0.00894079 -0.00968004 0)
(0.00903277 -0.00938806 0)
(0.0091095 -0.00907167 0)
(0.00917129 -0.00875042 0)
(0.00921634 -0.00842359 0)
(0.00924411 -0.00810204 0)
(0.00925561 -0.00778655 0)
(0.00925251 -0.00747741 0)
(0.00923463 -0.00719006 0)
(0.00920173 -0.00691203 0)
(0.00915512 -0.00662569 0)
(0.00909634 -0.00633999 0)
(0.00902706 -0.00606639 0)
(0.00894857 -0.00579865 0)
(0.00886174 -0.00552836 0)
(0.00876685 -0.00526007 0)
(0.00866535 -0.00500128 0)
(0.00855891 -0.00473474 0)
(0.00844806 -0.00446958 0)
(0.00833345 -0.00424104 0)
(0.0082147 -0.00402034 0)
(0.00809134 -0.00380245 0)
(0.00796348 -0.00359264 0)
(0.0078316 -0.00340102 0)
(0.00769717 -0.00322173 0)
(0.00756132 -0.00305537 0)
(0.00742341 -0.00290112 0)
(0.00728289 -0.00275565 0)
(0.00714025 -0.00262067 0)
(0.00699595 -0.00249774 0)
(0.00685073 -0.00239145 0)
(0.00670561 -0.00229785 0)
(0.00656096 -0.00221056 0)
(0.00641682 -0.00213124 0)
(0.00627346 -0.0020595 0)
(0.00613131 -0.0019954 0)
(0.00599064 -0.00193722 0)
(0.00585159 -0.00188311 0)
(0.00571438 -0.00183182 0)
(0.0055792 -0.00178582 0)
(0.00544619 -0.00174442 0)
(0.00531529 -0.00170745 0)
(0.00518621 -0.00167477 0)
(0.00505847 -0.00164657 0)
(0.00493118 -0.00162278 0)
(0.00927131 -0.0127904 0)
(0.00929062 -0.0123165 0)
(0.00929602 -0.011849 0)