/*--------------------------------*- C++ -*----------------------------------*\
| =========                 |                                                 |
| \\      /  F ield         | OpenFOAM: The Open Source CFD Toolbox           |
|  \\    /   O peration     | Version:  2.4.0                                 |
|   \\  /    A nd           | Web:      www.OpenFOAM.org                      |
|    \\/     M anipulation  |                                                 |
\*---------------------------------------------------------------------------*/
FoamFile
{
    version     2.0;
    format      ascii;
    class       volScalarField;
    location    "0.008";
    object      p;
}
// * * * * * * * * * * * * * * * * * * * * * * * * * * * * * * * * * * * * * //

dimensions      [1 -1 -2 0 0 0 0];

internalField   nonuniform List<scalar> 
125
(
-0.0253767
-0.0255656
-0.0257551
-0.0259453
-0.0261363
-0.0263279
-0.0265202
-0.0267133
-0.026907
-0.0271015
-0.0272967
-0.0274926
-0.0276892
-0.0278866
-0.0280847
-0.0282835
-0.028483
-0.0286833
-0.0288843
-0.0290861
-0.0292886
-0.0294918
-0.0296958
-0.0299006
-0.0301061
-0.0303124
-0.0305194
-0.0307272
-0.0309357
-0.0311451
-0.0313551
-0.031566
-0.0317777
-0.0319901
-0.0322033
-0.0324173
-0.0326321
-0.0328476
-0.033064
-0.0332812
-0.0334991
-0.0337179
-0.0339375
-0.0341579
-0.0343791
-0.0346011
-0.0348239
-0.0350476
-0.0352721
-0.0354974
-0.0357235
-0.0359505
-0.0361783
-0.0364069
-0.0366364
-0.0368667
-0.0370979
-0.0373299
-0.0375628
-0.0377966
-0.0380312
-0.0382667
-0.038503
-0.0387402
-0.0389783
-0.0392173
-0.0394571
-0.0396978
-0.0399394
-0.0401819
-0.0404253
-0.0406696
-0.0409148
-0.0411609
-0.0414079
-0.0416559
-0.0419047
-0.0421544
-0.0424051
-0.0426567
-0.0429092
-0.0431627
-0.043417
-0.0436724
-0.0439286
-0.0441858
-0.044444
-0.0447031
-0.0449631
-0.0452242
-0.0454861
-0.0457491
-0.046013
-0.0462779
-0.0465437
-0.0468106
-0.0470784
-0.0473472
-0.047617
-0.0478878
-0.0481596
-0.0484324
-0.0487062
-0.048981
-0.0492568
-0.0495337
-0.0498115
-0.0500904
-0.0503703
-0.0506513
-0.0509332
-0.0512162
-0.0515003
-0.0517854
-0.0520716
-0.0523588
-0.052647
-0.0529364
-0.0532268
-0.0535182
-0.0538108
-0.0541044
-0.0543991
-0.0546948
-0.0549917
)
;

boundaryField
{
    BotWall
    {
        type            calculated;
        value           nonuniform 0();
    }
    FreeStream
    {
        type            calculated;
        value           nonuniform 0();
    }
    FrontNBack
    {
        type            empty;
    }
    LeftSide
    {
        type            symmetryPlane;
    }
    RightSide
    {
        type            symmetryPlane;
    }
    procBoundary8to5
    {
        type            processor;
        value           nonuniform List<scalar> 
50
(
-0.0416053
-0.0418545
-0.0421046
-0.0423556
-0.0426076
-0.0428605
-0.0431143
-0.043369
-0.0436247
-0.0438813
-0.0441389
-0.0443974
-0.0446569
-0.0449173
-0.0451787
-0.045441
-0.0457043
-0.0459686
-0.0462338
-0.0465001
-0.0467673
-0.0470354
-0.0473046
-0.0475748
-0.0478459
-0.0481181
-0.0483912
-0.0486654
-0.0489405
-0.0492167
-0.0494939
-0.0497721
-0.0500514
-0.0503316
-0.0506129
-0.0508952
-0.0511786
-0.051463
-0.0517485
-0.052035
-0.0523225
-0.0526111
-0.0529008
-0.0531916
-0.0534834
-0.0537763
-0.0540702
-0.0543653
-0.0546614
-0.0549586
)
;
    }
    procBoundary8to6
    {
        type            processor;
        value           nonuniform List<scalar> 
75
(
-0.0252974
-0.0254866
-0.0256765
-0.0258671
-0.0260585
-0.0262505
-0.0264432
-0.0266366
-0.0268308
-0.0270257
-0.0272212
-0.0274175
-0.0276146
-0.0278123
-0.0280108
-0.02821
-0.0284099
-0.0286106
-0.028812
-0.0290141
-0.029217
-0.0294207
-0.0296251
-0.0298302
-0.0300361
-0.0302428
-0.0304502
-0.0306584
-0.0308673
-0.031077
-0.0312875
-0.0314987
-0.0317108
-0.0319236
-0.0321372
-0.0323516
-0.0325667
-0.0327827
-0.0329994
-0.033217
-0.0334353
-0.0336545
-0.0338745
-0.0340952
-0.0343168
-0.0345392
-0.0347624
-0.0349865
-0.0352113
-0.035437
-0.0356635
-0.0358909
-0.0361191
-0.0363481
-0.036578
-0.0368087
-0.0370402
-0.0372726
-0.0375059
-0.03774
-0.037975
-0.0382109
-0.0384476
-0.0386852
-0.0389237
-0.039163
-0.0394032
-0.0396443
-0.0398863
-0.0401292
-0.040373
-0.0406176
-0.0408632
-0.0411097
-0.041357
)
;
    }
    procBoundary8to7
    {
        type            processor;
        value           uniform -0.0552897;
    }
    procBoundary8to9
    {
        type            processor;
        value           uniform -0.0251886;
    }
    procBoundary8to10
    {
        type            processor;
        value           nonuniform List<scalar> 
75
(
-0.0356924
-0.0359196
-0.0361476
-0.0363764
-0.036606
-0.0368365
-0.0370679
-0.0373001
-0.0375332
-0.0377671
-0.0380019
-0.0382375
-0.038474
-0.0387114
-0.0389497
-0.0391888
-0.0394289
-0.0396698
-0.0399116
-0.0401542
-0.0403978
-0.0406423
-0.0408877
-0.0411339
-0.0413811
-0.0416292
-0.0418782
-0.0421281
-0.042379
-0.0426308
-0.0428835
-0.0431371
-0.0433916
-0.0436471
-0.0439036
-0.044161
-0.0444193
-0.0446786
-0.0449388
-0.0452
-0.0454622
-0.0457253
-0.0459894
-0.0462544
-0.0465205
-0.0467875
-0.0470555
-0.0473245
-0.0475945
-0.0478654
-0.0481374
-0.0484104
-0.0486844
-0.0489593
-0.0492353
-0.0495124
-0.0497904
-0.0500695
-0.0503495
-0.0506307
-0.0509128
-0.051196
-0.0514802
-0.0517655
-0.0520519
-0.0523392
-0.0526277
-0.0529172
-0.0532078
-0.0534994
-0.0537921
-0.0540859
-0.0543808
-0.0546768
-0.0549738
)
;
    }
    procBoundary8to11
    {
        type            processor;
        value           nonuniform List<scalar> 
50
(
-0.0253346
-0.0255236
-0.0257134
-0.0259038
-0.026095
-0.0262868
-0.0264794
-0.0266727
-0.0268667
-0.0270614
-0.0272568
-0.0274529
-0.0276498
-0.0278473
-0.0280457
-0.0282447
-0.0284445
-0.028645
-0.0288462
-0.0290482
-0.0292509
-0.0294544
-0.0296586
-0.0298636
-0.0300693
-0.0302758
-0.0304831
-0.0306911
-0.0308999
-0.0311094
-0.0313197
-0.0315308
-0.0317427
-0.0319553
-0.0321687
-0.032383
-0.032598
-0.0328138
-0.0330304
-0.0332477
-0.0334659
-0.0336849
-0.0339047
-0.0341253
-0.0343468
-0.034569
-0.034792
-0.0350159
-0.0352406
-0.0354661
)
;
    }
}


// ************************************************************************* //
