/*--------------------------------*- C++ -*----------------------------------*\
| =========                 |                                                 |
| \\      /  F ield         | OpenFOAM: The Open Source CFD Toolbox           |
|  \\    /   O peration     | Version:  2.4.0                                 |
|   \\  /    A nd           | Web:      www.OpenFOAM.org                      |
|    \\/     M anipulation  |                                                 |
\*---------------------------------------------------------------------------*/
FoamFile
{
    version     2.0;
    format      ascii;
    class       volScalarField;
    location    "0.008";
    object      p_rgh;
}
// * * * * * * * * * * * * * * * * * * * * * * * * * * * * * * * * * * * * * //

dimensions      [1 -1 -2 0 0 0 0];

internalField   nonuniform List<scalar> 
125
(
-0.0111536
-0.0111263
-0.0110989
-0.0110714
-0.0110439
-0.0110162
-0.0109884
-0.0109605
-0.0109325
-0.0109044
-0.0108762
-0.0108479
-0.0108195
-0.010791
-0.0107624
-0.0107337
-0.0107049
-0.0106759
-0.0106469
-0.0106178
-0.0105885
-0.0105592
-0.0105297
-0.0105002
-0.0104705
-0.0104407
-0.0104108
-0.0103808
-0.0103507
-0.0103205
-0.0102902
-0.0102598
-0.0102292
-0.0101986
-0.0101678
-0.0101369
-0.0101059
-0.0100748
-0.0100436
-0.0100122
-0.00998079
-0.00994923
-0.00991755
-0.00988575
-0.00985384
-0.00982182
-0.00978967
-0.00975741
-0.00972503
-0.00969253
-0.00965992
-0.00962718
-0.00959432
-0.00956135
-0.00952825
-0.00949504
-0.0094617
-0.00942824
-0.00939466
-0.00936096
-0.00932713
-0.00929318
-0.0092591
-0.0092249
-0.00919058
-0.00915613
-0.00912155
-0.00908685
-0.00905202
-0.00901707
-0.00898199
-0.00894677
-0.00891143
-0.00887596
-0.00884037
-0.00880464
-0.00876878
-0.00873279
-0.00869667
-0.00866041
-0.00862403
-0.00858751
-0.00855085
-0.00851407
-0.00847715
-0.00844009
-0.0084029
-0.00836557
-0.00832811
-0.00829051
-0.00825277
-0.00821489
-0.00817688
-0.00813872
-0.00810043
-0.008062
-0.00802342
-0.00798471
-0.00794585
-0.00790686
-0.00786771
-0.00782843
-0.007789
-0.00774943
-0.00770972
-0.00766985
-0.00762985
-0.00758969
-0.00754939
-0.00750894
-0.00746835
-0.0074276
-0.00738671
-0.00734567
-0.00730448
-0.00726313
-0.00722164
-0.00717999
-0.00713819
-0.00709624
-0.00705413
-0.00701187
-0.00696946
-0.00692688
-0.00688415
)
;

boundaryField
{
    BotWall
    {
        type            fixedFluxPressure;
        gradient        nonuniform 0();
        value           nonuniform 0();
    }
    FreeStream
    {
        type            totalPressure;
        rho             rho;
        psi             none;
        gamma           1;
        p0              nonuniform 0();
        value           nonuniform 0();
    }
    FrontNBack
    {
        type            empty;
    }
    LeftSide
    {
        type            symmetryPlane;
    }
    RightSide
    {
        type            symmetryPlane;
    }
    procBoundary8to5
    {
        type            processor;
        value           nonuniform List<scalar> 
50
(
-0.0087541
-0.0087186
-0.00868297
-0.00864721
-0.00861132
-0.0085753
-0.00853914
-0.00850285
-0.00846643
-0.00842987
-0.00839317
-0.00835634
-0.00831938
-0.00828227
-0.00824503
-0.00820766
-0.00817014
-0.00813248
-0.00809469
-0.00805675
-0.00801868
-0.00798046
-0.00794211
-0.00790361
-0.00786497
-0.00782618
-0.00778725
-0.00774818
-0.00770896
-0.0076696
-0.0076301
-0.00759044
-0.00755064
-0.0075107
-0.0074706
-0.00743036
-0.00738996
-0.00734942
-0.00730873
-0.00726789
-0.0072269
-0.00718575
-0.00714446
-0.00710301
-0.0070614
-0.00701965
-0.00697774
-0.00693567
-0.00689345
-0.00685107
)
;
    }
    procBoundary8to6
    {
        type            processor;
        value           nonuniform List<scalar> 
75
(
-0.0110742
-0.0110473
-0.0110203
-0.0109932
-0.010966
-0.0109388
-0.0109114
-0.0108839
-0.0108563
-0.0108286
-0.0108007
-0.0107728
-0.0107448
-0.0107167
-0.0106885
-0.0106602
-0.0106317
-0.0106032
-0.0105746
-0.0105458
-0.010517
-0.010488
-0.010459
-0.0104298
-0.0104005
-0.0103711
-0.0103416
-0.010312
-0.0102823
-0.0102525
-0.0102225
-0.0101925
-0.0101623
-0.010132
-0.0101017
-0.0100712
-0.0100406
-0.0100098
-0.009979
-0.00994806
-0.00991699
-0.00988581
-0.00985452
-0.00982311
-0.00979158
-0.00975994
-0.00972817
-0.0096963
-0.0096643
-0.00963218
-0.00959995
-0.0095676
-0.00953512
-0.00950253
-0.00946982
-0.00943698
-0.00940402
-0.00937094
-0.00933774
-0.00930442
-0.00927097
-0.0092374
-0.0092037
-0.00916988
-0.00913594
-0.00910187
-0.00906767
-0.00903334
-0.00899889
-0.00896431
-0.00892961
-0.00889477
-0.0088598
-0.0088247
-0.00878947
)
;
    }
    procBoundary8to7
    {
        type            processor;
        value           uniform -0.00684127;
    }
    procBoundary8to9
    {
        type            processor;
        value           uniform -0.0111808;
    }
    procBoundary8to10
    {
        type            processor;
        value           nonuniform List<scalar> 
75
(
-0.00962884
-0.00959629
-0.00956361
-0.00953081
-0.00949789
-0.00946485
-0.00943169
-0.00939841
-0.009365
-0.00933148
-0.00929783
-0.00926405
-0.00923015
-0.00919613
-0.00916198
-0.00912771
-0.00909331
-0.00905879
-0.00902414
-0.00898936
-0.00895445
-0.00891942
-0.00888426
-0.00884896
-0.00881354
-0.00877799
-0.00874231
-0.0087065
-0.00867055
-0.00863448
-0.00859827
-0.00856193
-0.00852545
-0.00848884
-0.0084521
-0.00841522
-0.00837821
-0.00834106
-0.00830377
-0.00826635
-0.00822879
-0.00819109
-0.00815325
-0.00811528
-0.00807716
-0.00803891
-0.00800051
-0.00796198
-0.0079233
-0.00788448
-0.00784552
-0.00780641
-0.00776716
-0.00772777
-0.00768823
-0.00764855
-0.00760872
-0.00756874
-0.00752862
-0.00748835
-0.00744793
-0.00740737
-0.00736665
-0.00732579
-0.00728477
-0.0072436
-0.00720229
-0.00716082
-0.0071192
-0.00707742
-0.0070355
-0.00699342
-0.00695118
-0.00690879
-0.00686624
)
;
    }
    procBoundary8to11
    {
        type            processor;
        value           nonuniform List<scalar> 
50
(
-0.0111114
-0.0110844
-0.0110572
-0.0110299
-0.0110026
-0.0109751
-0.0109476
-0.0109199
-0.0108921
-0.0108643
-0.0108363
-0.0108082
-0.01078
-0.0107518
-0.0107234
-0.0106949
-0.0106663
-0.0106376
-0.0106088
-0.0105799
-0.0105509
-0.0105217
-0.0104925
-0.0104632
-0.0104337
-0.0104042
-0.0103745
-0.0103447
-0.0103148
-0.0102849
-0.0102548
-0.0102245
-0.0101942
-0.0101638
-0.0101332
-0.0101026
-0.0100718
-0.0100409
-0.0100099
-0.00997881
-0.00994758
-0.00991624
-0.00988478
-0.0098532
-0.00982151
-0.00978971
-0.00975778
-0.00972574
-0.00969357
-0.00966127
)
;
    }
}


// ************************************************************************* //
