/*--------------------------------*- C++ -*----------------------------------*\
| =========                 |                                                 |
| \\      /  F ield         | OpenFOAM: The Open Source CFD Toolbox           |
|  \\    /   O peration     | Version:  2.4.0                                 |
|   \\  /    A nd           | Web:      www.OpenFOAM.org                      |
|    \\/     M anipulation  |                                                 |
\*---------------------------------------------------------------------------*/
FoamFile
{
    version     2.0;
    format      ascii;
    class       volVectorField;
    location    "0.008";
    object      U;
}
// * * * * * * * * * * * * * * * * * * * * * * * * * * * * * * * * * * * * * //

dimensions      [0 1 -1 0 0 0 0];

internalField   nonuniform List<vector> 
125
(
(-2.27943e-05 -0.0192149 0)
(-2.25224e-05 -0.0192151 0)
(-2.22532e-05 -0.0192152 0)
(-2.19867e-05 -0.0192154 0)
(-2.17227e-05 -0.0192155 0)
(-2.14613e-05 -0.0192156 0)
(-2.12023e-05 -0.0192158 0)
(-2.09457e-05 -0.0192159 0)
(-2.06915e-05 -0.0192161 0)
(-2.04397e-05 -0.0192162 0)
(-2.01903e-05 -0.0192163 0)
(-1.99433e-05 -0.0192165 0)
(-1.96987e-05 -0.0192166 0)
(-1.94565e-05 -0.0192167 0)
(-1.92167e-05 -0.0192168 0)
(-1.89793e-05 -0.019217 0)
(-1.87443e-05 -0.0192171 0)
(-1.85117e-05 -0.0192172 0)
(-1.82816e-05 -0.0192174 0)
(-1.80538e-05 -0.0192175 0)
(-1.78285e-05 -0.0192176 0)
(-1.76055e-05 -0.0192177 0)
(-1.7385e-05 -0.0192179 0)
(-1.71668e-05 -0.019218 0)
(-1.6951e-05 -0.0192181 0)
(-1.67376e-05 -0.0192182 0)
(-1.65264e-05 -0.0192183 0)
(-1.63177e-05 -0.0192184 0)
(-1.61112e-05 -0.0192186 0)
(-1.59071e-05 -0.0192187 0)
(-1.57052e-05 -0.0192188 0)
(-1.55056e-05 -0.0192189 0)
(-1.53083e-05 -0.019219 0)
(-1.51132e-05 -0.0192191 0)
(-1.49203e-05 -0.0192192 0)
(-1.47296e-05 -0.0192193 0)
(-1.45412e-05 -0.0192194 0)
(-1.43549e-05 -0.0192196 0)
(-1.41707e-05 -0.0192197 0)
(-1.39888e-05 -0.0192198 0)
(-1.38089e-05 -0.0192199 0)
(-1.36312e-05 -0.01922 0)
(-1.34556e-05 -0.0192201 0)
(-1.32821e-05 -0.0192202 0)
(-1.31106e-05 -0.0192203 0)
(-1.29412e-05 -0.0192204 0)
(-1.27739e-05 -0.0192205 0)
(-1.26085e-05 -0.0192206 0)
(-1.24452e-05 -0.0192207 0)
(-1.22839e-05 -0.0192208 0)
(-1.21246e-05 -0.0192209 0)
(-1.19673e-05 -0.0192209 0)
(-1.1812e-05 -0.019221 0)
(-1.16585e-05 -0.0192211 0)
(-1.15071e-05 -0.0192212 0)
(-1.13575e-05 -0.0192213 0)
(-1.12098e-05 -0.0192214 0)
(-1.10641e-05 -0.0192215 0)
(-1.09202e-05 -0.0192216 0)
(-1.07782e-05 -0.0192217 0)
(-1.0638e-05 -0.0192217 0)
(-1.04996e-05 -0.0192218 0)
(-1.0363e-05 -0.0192219 0)
(-1.02283e-05 -0.019222 0)
(-1.00953e-05 -0.0192221 0)
(-9.96409e-06 -0.0192221 0)
(-9.83461e-06 -0.0192222 0)
(-9.70686e-06 -0.0192223 0)
(-9.58082e-06 -0.0192224 0)
(-9.45647e-06 -0.0192225 0)
(-9.33379e-06 -0.0192225 0)
(-9.21277e-06 -0.0192226 0)
(-9.09339e-06 -0.0192227 0)
(-8.97563e-06 -0.0192228 0)
(-8.85946e-06 -0.0192228 0)
(-8.74488e-06 -0.0192229 0)
(-8.63187e-06 -0.019223 0)
(-8.5204e-06 -0.019223 0)
(-8.41046e-06 -0.0192231 0)
(-8.30202e-06 -0.0192232 0)
(-8.19508e-06 -0.0192232 0)
(-8.0896e-06 -0.0192233 0)
(-7.98558e-06 -0.0192234 0)
(-7.883e-06 -0.0192234 0)
(-7.78183e-06 -0.0192235 0)
(-7.68206e-06 -0.0192236 0)
(-7.58366e-06 -0.0192236 0)
(-7.48663e-06 -0.0192237 0)
(-7.39094e-06 -0.0192237 0)
(-7.29657e-06 -0.0192238 0)
(-7.20352e-06 -0.0192238 0)
(-7.11174e-06 -0.0192239 0)
(-7.02125e-06 -0.019224 0)
(-6.932e-06 -0.019224 0)
(-6.84399e-06 -0.0192241 0)
(-6.7572e-06 -0.0192241 0)
(-6.67161e-06 -0.0192242 0)
(-6.58721e-06 -0.0192242 0)
(-6.50398e-06 -0.0192243 0)
(-6.4219e-06 -0.0192243 0)
(-6.34096e-06 -0.0192244 0)
(-6.26114e-06 -0.0192244 0)
(-6.18242e-06 -0.0192245 0)
(-6.1048e-06 -0.0192245 0)
(-6.02826e-06 -0.0192246 0)
(-5.95278e-06 -0.0192246 0)
(-5.87835e-06 -0.0192247 0)
(-5.80495e-06 -0.0192247 0)
(-5.73258e-06 -0.0192248 0)
(-5.66121e-06 -0.0192248 0)
(-5.59085e-06 -0.0192248 0)
(-5.52146e-06 -0.0192249 0)
(-5.45305e-06 -0.0192249 0)
(-5.38559e-06 -0.019225 0)
(-5.31908e-06 -0.019225 0)
(-5.25351e-06 -0.019225 0)
(-5.18887e-06 -0.0192251 0)
(-5.12514e-06 -0.0192251 0)
(-5.06231e-06 -0.0192251 0)
(-5.00037e-06 -0.0192252 0)
(-4.93932e-06 -0.0192252 0)
(-4.87914e-06 -0.0192253 0)
(-4.81982e-06 -0.0192253 0)
(-4.76135e-06 -0.0192253 0)
(-4.70372e-06 -0.0192254 0)
)
;

boundaryField
{
    BotWall
    {
        type            fixedValue;
        value           nonuniform 0();
    }
    FreeStream
    {
        type            zeroGradient;
    }
    FrontNBack
    {
        type            empty;
    }
    LeftSide
    {
        type            symmetryPlane;
    }
    RightSide
    {
        type            symmetryPlane;
    }
    procBoundary8to5
    {
        type            processor;
        value           nonuniform List<vector> 
50
(
(-6.95724e-06 -0.0192363 0)
(-6.83524e-06 -0.0192362 0)
(-6.71506e-06 -0.0192361 0)
(-6.5967e-06 -0.019236 0)
(-6.48013e-06 -0.0192359 0)
(-6.36534e-06 -0.0192359 0)
(-6.25231e-06 -0.0192358 0)
(-6.14102e-06 -0.0192357 0)
(-6.03145e-06 -0.0192356 0)
(-5.92357e-06 -0.0192356 0)
(-5.81738e-06 -0.0192355 0)
(-5.71285e-06 -0.0192354 0)
(-5.60995e-06 -0.0192353 0)
(-5.50867e-06 -0.0192353 0)
(-5.40898e-06 -0.0192352 0)
(-5.31086e-06 -0.0192351 0)
(-5.21429e-06 -0.019235 0)
(-5.11925e-06 -0.019235 0)
(-5.0257e-06 -0.0192349 0)
(-4.93364e-06 -0.0192348 0)
(-4.84303e-06 -0.0192347 0)
(-4.75385e-06 -0.0192347 0)
(-4.66608e-06 -0.0192346 0)
(-4.57969e-06 -0.0192345 0)
(-4.49466e-06 -0.0192345 0)
(-4.41096e-06 -0.0192344 0)
(-4.32858e-06 -0.0192343 0)
(-4.24749e-06 -0.0192343 0)
(-4.16766e-06 -0.0192342 0)
(-4.08907e-06 -0.0192341 0)
(-4.0117e-06 -0.0192341 0)
(-3.93552e-06 -0.019234 0)
(-3.86052e-06 -0.0192339 0)
(-3.78666e-06 -0.0192339 0)
(-3.71392e-06 -0.0192338 0)
(-3.64229e-06 -0.0192338 0)
(-3.57174e-06 -0.0192337 0)
(-3.50225e-06 -0.0192336 0)
(-3.4338e-06 -0.0192336 0)
(-3.36636e-06 -0.0192335 0)
(-3.29992e-06 -0.0192335 0)
(-3.23446e-06 -0.0192334 0)
(-3.16995e-06 -0.0192333 0)
(-3.10638e-06 -0.0192333 0)
(-3.04372e-06 -0.0192332 0)
(-2.98196e-06 -0.0192332 0)
(-2.92109e-06 -0.0192331 0)
(-2.86106e-06 -0.019233 0)
(-2.80189e-06 -0.019233 0)
(-2.74353e-06 -0.0192329 0)
)
;
    }
    procBoundary8to6
    {
        type            processor;
        value           nonuniform List<vector> 
75
(
(-2.21795e-05 -0.0192444 0)
(-2.1876e-05 -0.0192443 0)
(-2.1577e-05 -0.0192441 0)
(-2.12822e-05 -0.019244 0)
(-2.09913e-05 -0.0192439 0)
(-2.07042e-05 -0.0192437 0)
(-2.04206e-05 -0.0192436 0)
(-2.01405e-05 -0.0192434 0)
(-1.98637e-05 -0.0192433 0)
(-1.95902e-05 -0.0192432 0)
(-1.93199e-05 -0.019243 0)
(-1.90526e-05 -0.0192429 0)
(-1.87885e-05 -0.0192428 0)
(-1.85273e-05 -0.0192427 0)
(-1.82691e-05 -0.0192425 0)
(-1.80137e-05 -0.0192424 0)
(-1.77613e-05 -0.0192423 0)
(-1.75117e-05 -0.0192422 0)
(-1.72648e-05 -0.019242 0)
(-1.70207e-05 -0.0192419 0)
(-1.67793e-05 -0.0192418 0)
(-1.65406e-05 -0.0192417 0)
(-1.63045e-05 -0.0192415 0)
(-1.6071e-05 -0.0192414 0)
(-1.584e-05 -0.0192413 0)
(-1.56115e-05 -0.0192412 0)
(-1.53855e-05 -0.0192411 0)
(-1.51619e-05 -0.0192409 0)
(-1.49408e-05 -0.0192408 0)
(-1.4722e-05 -0.0192407 0)
(-1.45055e-05 -0.0192406 0)
(-1.42914e-05 -0.0192405 0)
(-1.40796e-05 -0.0192404 0)
(-1.387e-05 -0.0192403 0)
(-1.36626e-05 -0.0192402 0)
(-1.34575e-05 -0.0192401 0)
(-1.32546e-05 -0.0192399 0)
(-1.30539e-05 -0.0192398 0)
(-1.28553e-05 -0.0192397 0)
(-1.26589e-05 -0.0192396 0)
(-1.24647e-05 -0.0192395 0)
(-1.22725e-05 -0.0192394 0)
(-1.20825e-05 -0.0192393 0)
(-1.18946e-05 -0.0192392 0)
(-1.17088e-05 -0.0192391 0)
(-1.15251e-05 -0.019239 0)
(-1.13434e-05 -0.0192389 0)
(-1.11638e-05 -0.0192388 0)
(-1.09864e-05 -0.0192387 0)
(-1.08109e-05 -0.0192386 0)
(-1.06376e-05 -0.0192385 0)
(-1.04662e-05 -0.0192384 0)
(-1.0297e-05 -0.0192383 0)
(-1.01298e-05 -0.0192382 0)
(-9.9646e-06 -0.0192381 0)
(-9.80146e-06 -0.019238 0)
(-9.64037e-06 -0.0192379 0)
(-9.4813e-06 -0.0192378 0)
(-9.32425e-06 -0.0192377 0)
(-9.16922e-06 -0.0192376 0)
(-9.01621e-06 -0.0192376 0)
(-8.86521e-06 -0.0192375 0)
(-8.7162e-06 -0.0192374 0)
(-8.56919e-06 -0.0192373 0)
(-8.42417e-06 -0.0192372 0)
(-8.28113e-06 -0.0192371 0)
(-8.14005e-06 -0.019237 0)
(-8.00094e-06 -0.0192369 0)
(-7.86377e-06 -0.0192369 0)
(-7.72855e-06 -0.0192368 0)
(-7.59525e-06 -0.0192367 0)
(-7.46387e-06 -0.0192366 0)
(-7.33439e-06 -0.0192365 0)
(-7.20681e-06 -0.0192364 0)
(-7.08109e-06 -0.0192363 0)
)
;
    }
    procBoundary8to7
    {
        type            processor;
        value           uniform (-4.64692e-06 -0.0192254 0);
    }
    procBoundary8to9
    {
        type            processor;
        value           uniform (-2.30692e-05 -0.0192148 0);
    }
    procBoundary8to10
    {
        type            processor;
        value           nonuniform List<vector> 
75
(
(1.53511e-05 -0.0192266 0)
(1.5161e-05 -0.0192266 0)
(1.49719e-05 -0.0192266 0)
(1.47836e-05 -0.0192266 0)
(1.45963e-05 -0.0192266 0)
(1.44099e-05 -0.0192265 0)
(1.42244e-05 -0.0192265 0)
(1.40399e-05 -0.0192265 0)
(1.38563e-05 -0.0192265 0)
(1.36737e-05 -0.0192265 0)
(1.34921e-05 -0.0192265 0)
(1.33115e-05 -0.0192265 0)
(1.31319e-05 -0.0192265 0)
(1.29532e-05 -0.0192265 0)
(1.27756e-05 -0.0192265 0)
(1.25991e-05 -0.0192264 0)
(1.24236e-05 -0.0192264 0)
(1.22491e-05 -0.0192264 0)
(1.20757e-05 -0.0192264 0)
(1.19033e-05 -0.0192264 0)
(1.1732e-05 -0.0192264 0)
(1.15618e-05 -0.0192264 0)
(1.13927e-05 -0.0192264 0)
(1.12247e-05 -0.0192264 0)
(1.10578e-05 -0.0192264 0)
(1.0892e-05 -0.0192263 0)
(1.07273e-05 -0.0192263 0)
(1.05637e-05 -0.0192263 0)
(1.04012e-05 -0.0192263 0)
(1.02398e-05 -0.0192263 0)
(1.00796e-05 -0.0192263 0)
(9.92052e-06 -0.0192263 0)
(9.76255e-06 -0.0192263 0)
(9.60572e-06 -0.0192263 0)
(9.45002e-06 -0.0192263 0)
(9.29545e-06 -0.0192263 0)
(9.14202e-06 -0.0192263 0)
(8.98973e-06 -0.0192263 0)
(8.83857e-06 -0.0192263 0)
(8.68854e-06 -0.0192263 0)
(8.53965e-06 -0.0192262 0)
(8.3919e-06 -0.0192262 0)
(8.24527e-06 -0.0192262 0)
(8.09978e-06 -0.0192262 0)
(7.9554e-06 -0.0192262 0)
(7.81215e-06 -0.0192262 0)
(7.67002e-06 -0.0192262 0)
(7.52901e-06 -0.0192262 0)
(7.3891e-06 -0.0192262 0)
(7.25029e-06 -0.0192262 0)
(7.11258e-06 -0.0192262 0)
(6.97597e-06 -0.0192262 0)
(6.84044e-06 -0.0192262 0)
(6.70599e-06 -0.0192262 0)
(6.57261e-06 -0.0192262 0)
(6.44029e-06 -0.0192262 0)
(6.30903e-06 -0.0192262 0)
(6.17881e-06 -0.0192262 0)
(6.04963e-06 -0.0192262 0)
(5.92147e-06 -0.0192262 0)
(5.79434e-06 -0.0192262 0)
(5.6682e-06 -0.0192262 0)
(5.54307e-06 -0.0192262 0)
(5.41892e-06 -0.0192262 0)
(5.29574e-06 -0.0192262 0)
(5.17352e-06 -0.0192262 0)
(5.05225e-06 -0.0192262 0)
(4.93193e-06 -0.0192262 0)
(4.81252e-06 -0.0192262 0)
(4.69403e-06 -0.0192262 0)
(4.57644e-06 -0.0192262 0)
(4.45973e-06 -0.0192262 0)
(4.3439e-06 -0.0192262 0)
(4.22893e-06 -0.0192262 0)
(4.11481e-06 -0.0192262 0)
)
;
    }
    procBoundary8to11
    {
        type            processor;
        value           nonuniform List<vector> 
50
(
(2.58133e-05 -0.0192272 0)
(2.55882e-05 -0.0192272 0)
(2.53638e-05 -0.0192271 0)
(2.51401e-05 -0.0192271 0)
(2.4917e-05 -0.0192271 0)
(2.46945e-05 -0.0192271 0)
(2.44725e-05 -0.0192271 0)
(2.4251e-05 -0.0192271 0)
(2.40301e-05 -0.0192271 0)
(2.38096e-05 -0.0192271 0)
(2.35897e-05 -0.0192271 0)
(2.33704e-05 -0.0192271 0)
(2.31517e-05 -0.019227 0)
(2.29335e-05 -0.019227 0)
(2.27159e-05 -0.019227 0)
(2.2499e-05 -0.019227 0)
(2.22826e-05 -0.019227 0)
(2.20669e-05 -0.019227 0)
(2.18519e-05 -0.019227 0)
(2.16375e-05 -0.019227 0)
(2.14238e-05 -0.019227 0)
(2.12108e-05 -0.0192269 0)
(2.09985e-05 -0.0192269 0)
(2.07868e-05 -0.0192269 0)
(2.05759e-05 -0.0192269 0)
(2.03656e-05 -0.0192269 0)
(2.0156e-05 -0.0192269 0)
(1.99472e-05 -0.0192269 0)
(1.9739e-05 -0.0192269 0)
(1.95316e-05 -0.0192268 0)
(1.93249e-05 -0.0192268 0)
(1.91189e-05 -0.0192268 0)
(1.89137e-05 -0.0192268 0)
(1.87091e-05 -0.0192268 0)
(1.85054e-05 -0.0192268 0)
(1.83023e-05 -0.0192268 0)
(1.81e-05 -0.0192268 0)
(1.78985e-05 -0.0192268 0)
(1.76977e-05 -0.0192267 0)
(1.74977e-05 -0.0192267 0)
(1.72985e-05 -0.0192267 0)
(1.71001e-05 -0.0192267 0)
(1.69024e-05 -0.0192267 0)
(1.67056e-05 -0.0192267 0)
(1.65096e-05 -0.0192267 0)
(1.63144e-05 -0.0192267 0)
(1.612e-05 -0.0192266 0)
(1.59265e-05 -0.0192266 0)
(1.57338e-05 -0.0192266 0)
(1.5542e-05 -0.0192266 0)
)
;
    }
}


// ************************************************************************* //
