/*--------------------------------*- C++ -*----------------------------------*\
| =========                 |                                                 |
| \\      /  F ield         | OpenFOAM: The Open Source CFD Toolbox           |
|  \\    /   O peration     | Version:  2.4.0                                 |
|   \\  /    A nd           | Web:      www.OpenFOAM.org                      |
|    \\/     M anipulation  |                                                 |
\*---------------------------------------------------------------------------*/
FoamFile
{
    version     2.0;
    format      ascii;
    class       volScalarField;
    location    "3";
    object      H;
}
// * * * * * * * * * * * * * * * * * * * * * * * * * * * * * * * * * * * * * //

dimensions      [0 2 -2 0 0 0 0];

internalField   nonuniform List<scalar> 
125
(
-19.6174
-19.6093
-19.6012
-19.6067
-19.6182
-19.5018
-19.4939
-19.486
-19.4913
-19.5026
-19.3737
-19.3659
-19.3582
-19.3635
-19.3744
-19.2329
-19.2253
-19.2178
-19.2229
-19.2336
-19.0793
-19.0719
-19.0646
-19.0696
-19.08
-18.9128
-18.9055
-18.8984
-18.9033
-18.9134
-18.7331
-18.7261
-18.7191
-18.7239
-18.7338
-18.5403
-18.5334
-18.5267
-18.5313
-18.5409
-18.3343
-18.3275
-18.321
-18.3255
-18.3348
-18.1149
-18.1083
-18.102
-18.1063
-18.1154
-17.8821
-17.8757
-17.8695
-17.8738
-17.8826
-17.6359
-17.6296
-17.6237
-17.6278
-17.6364
-17.3762
-17.3702
-17.3644
-17.3684
-17.3767
-17.1031
-17.0972
-17.0916
-17.0955
-17.1035
-16.8166
-16.8109
-16.8054
-16.8092
-16.817
-16.5167
-16.5112
-16.5059
-16.5096
-16.5171
-16.2035
-16.1981
-16.1931
-16.1966
-16.2039
-15.8771
-15.8719
-15.867
-15.8704
-15.8774
-15.5376
-15.5325
-15.5278
-15.5311
-15.5379
-15.1851
-15.1802
-15.1757
-15.1789
-15.1854
-14.8198
-14.8151
-14.8107
-14.8138
-14.8201
-14.4419
-14.4374
-14.4332
-14.4361
-14.4421
-14.0515
-14.0472
-14.0432
-14.046
-14.0518
-13.649
-13.6449
-13.641
-13.6438
-13.6493
-13.2346
-13.2307
-13.227
-13.2296
-13.2349
)
;

boundaryField
{
    BotWall
    {
        type            zeroGradient;
    }
    FreeStream
    {
        type            zeroGradient;
    }
    FrontNBack
    {
        type            empty;
    }
    LeftSide
    {
        type            symmetryPlane;
    }
    RightSide
    {
        type            symmetryPlane;
    }
    procBoundary2to1
    {
        type            processor;
        value           nonuniform List<scalar> 5(-19.719 -19.7108 -19.7025 -19.7081 -19.7199);
    }
    procBoundary2to3
    {
        type            processor;
        value           nonuniform List<scalar> 5(-12.8077 -12.8039 -12.8003 -12.8028 -12.8079);
    }
}


// ************************************************************************* //
