/*--------------------------------*- C++ -*----------------------------------*\
| =========                 |                                                 |
| \\      /  F ield         | OpenFOAM: The Open Source CFD Toolbox           |
|  \\    /   O peration     | Version:  2.4.0                                 |
|   \\  /    A nd           | Web:      www.OpenFOAM.org                      |
|    \\/     M anipulation  |                                                 |
\*---------------------------------------------------------------------------*/
FoamFile
{
    version     2.0;
    format      ascii;
    class       volScalarField;
    location    "3";
    object      p;
}
// * * * * * * * * * * * * * * * * * * * * * * * * * * * * * * * * * * * * * //

dimensions      [1 -1 -2 0 0 0 0];

internalField   nonuniform List<scalar> 
125
(
-0.0330657
-0.0330665
-0.033067
-0.0330675
-0.0330681
-0.0339256
-0.0339264
-0.0339269
-0.0339274
-0.033928
-0.034795
-0.0347958
-0.0347964
-0.0347968
-0.0347974
-0.0356742
-0.035675
-0.0356755
-0.035676
-0.0356765
-0.0365632
-0.036564
-0.0365645
-0.0365649
-0.0365655
-0.0374621
-0.0374629
-0.0374634
-0.0374638
-0.0374643
-0.0383711
-0.0383718
-0.0383723
-0.0383727
-0.0383732
-0.0392902
-0.0392909
-0.0392913
-0.0392918
-0.0392923
-0.0402195
-0.0402202
-0.0402207
-0.0402211
-0.0402216
-0.0411592
-0.0411599
-0.0411604
-0.0411608
-0.0411612
-0.0421095
-0.0421101
-0.0421105
-0.0421109
-0.0421114
-0.0430703
-0.0430708
-0.0430713
-0.0430717
-0.0430721
-0.0440418
-0.0440424
-0.0440428
-0.0440432
-0.0440436
-0.0450241
-0.0450247
-0.0450251
-0.0450255
-0.0450259
-0.0460175
-0.046018
-0.0460184
-0.0460188
-0.0460192
-0.0470219
-0.0470224
-0.0470228
-0.0470232
-0.0470236
-0.0480375
-0.048038
-0.0480384
-0.0480388
-0.0480392
-0.0490645
-0.0490649
-0.0490653
-0.0490657
-0.0490661
-0.0501029
-0.0501033
-0.0501037
-0.0501041
-0.0501044
-0.0511529
-0.0511533
-0.0511537
-0.051154
-0.0511544
-0.0522146
-0.052215
-0.0522154
-0.0522157
-0.052216
-0.0532881
-0.0532886
-0.0532889
-0.0532892
-0.0532895
-0.0543737
-0.0543741
-0.0543744
-0.0543747
-0.054375
-0.0554713
-0.0554717
-0.0554721
-0.0554724
-0.0554726
-0.0565812
-0.0565816
-0.0565819
-0.0565822
-0.0565825
)
;

boundaryField
{
    BotWall
    {
        type            calculated;
        value           nonuniform 0();
    }
    FreeStream
    {
        type            calculated;
        value           nonuniform 0();
    }
    FrontNBack
    {
        type            empty;
    }
    LeftSide
    {
        type            symmetryPlane;
    }
    RightSide
    {
        type            symmetryPlane;
    }
    procBoundary2to1
    {
        type            processor;
        value           nonuniform List<scalar> 5(-0.0322153 -0.0322161 -0.0322167 -0.0322172 -0.0322178);
    }
    procBoundary2to3
    {
        type            processor;
        value           nonuniform List<scalar> 5(-0.0577035 -0.0577039 -0.0577042 -0.0577045 -0.0577047);
    }
}


// ************************************************************************* //
