/*--------------------------------*- C++ -*----------------------------------*\
| =========                 |                                                 |
| \\      /  F ield         | OpenFOAM: The Open Source CFD Toolbox           |
|  \\    /   O peration     | Version:  2.4.0                                 |
|   \\  /    A nd           | Web:      www.OpenFOAM.org                      |
|    \\/     M anipulation  |                                                 |
\*---------------------------------------------------------------------------*/
FoamFile
{
    version     2.0;
    format      ascii;
    class       volScalarField;
    location    "3";
    object      p_rgh;
}
// * * * * * * * * * * * * * * * * * * * * * * * * * * * * * * * * * * * * * //

dimensions      [1 -1 -2 0 0 0 0];

internalField   nonuniform List<scalar> 
125
(
-5.95883e-06
-6.79003e-06
-7.32481e-06
-7.81771e-06
-8.42181e-06
-5.97981e-06
-6.78756e-06
-7.31599e-06
-7.80204e-06
-8.38988e-06
-6.00062e-06
-6.78517e-06
-7.3071e-06
-7.78607e-06
-8.35797e-06
-6.02122e-06
-6.7829e-06
-7.29814e-06
-7.76984e-06
-8.32609e-06
-6.04158e-06
-6.78077e-06
-7.28909e-06
-7.75337e-06
-8.29423e-06
-6.06169e-06
-6.77879e-06
-7.27994e-06
-7.73667e-06
-8.26237e-06
-6.08154e-06
-6.77694e-06
-7.27069e-06
-7.71974e-06
-8.23052e-06
-6.10114e-06
-6.77523e-06
-7.26135e-06
-7.70258e-06
-8.19866e-06
-6.12049e-06
-6.77366e-06
-7.25191e-06
-7.6852e-06
-8.1668e-06
-6.13958e-06
-6.77222e-06
-7.24238e-06
-7.66761e-06
-8.13492e-06
-6.15841e-06
-6.7709e-06
-7.23275e-06
-7.64979e-06
-8.10303e-06
-6.177e-06
-6.76969e-06
-7.22302e-06
-7.63176e-06
-8.07111e-06
-6.19534e-06
-6.76861e-06
-7.2132e-06
-7.61351e-06
-8.03917e-06
-6.21343e-06
-6.76762e-06
-7.20328e-06
-7.59504e-06
-8.00721e-06
-6.23129e-06
-6.76674e-06
-7.19326e-06
-7.57636e-06
-7.97521e-06
-6.2489e-06
-6.76596e-06
-7.18316e-06
-7.55746e-06
-7.94318e-06
-6.26628e-06
-6.76527e-06
-7.17296e-06
-7.53835e-06
-7.91111e-06
-6.28342e-06
-6.76466e-06
-7.16266e-06
-7.51902e-06
-7.87899e-06
-6.30034e-06
-6.76414e-06
-7.15227e-06
-7.49948e-06
-7.84683e-06
-6.31703e-06
-6.7637e-06
-7.14178e-06
-7.47973e-06
-7.81462e-06
-6.3335e-06
-6.76332e-06
-7.1312e-06
-7.45976e-06
-7.78234e-06
-6.34975e-06
-6.76301e-06
-7.12052e-06
-7.43958e-06
-7.75001e-06
-6.3658e-06
-6.76276e-06
-7.10975e-06
-7.41918e-06
-7.7176e-06
-6.38172e-06
-6.76256e-06
-7.09884e-06
-7.39855e-06
-7.68487e-06
-6.39749e-06
-6.7624e-06
-7.0878e-06
-7.37766e-06
-7.65217e-06
)
;

boundaryField
{
    BotWall
    {
        type            fixedFluxPressure;
        gradient        nonuniform 0();
        value           nonuniform 0();
    }
    FreeStream
    {
        type            totalPressure;
        rho             rho;
        psi             none;
        gamma           1;
        p0              nonuniform 0();
        value           nonuniform 0();
    }
    FrontNBack
    {
        type            empty;
    }
    LeftSide
    {
        type            symmetryPlane;
    }
    RightSide
    {
        type            symmetryPlane;
    }
    procBoundary2to1
    {
        type            processor;
        value           nonuniform List<scalar> 5(-5.93768e-06 -6.79258e-06 -7.33354e-06 -7.83305e-06 -8.45385e-06);
    }
    procBoundary2to3
    {
        type            processor;
        value           nonuniform List<scalar> 5(-6.41316e-06 -6.76226e-06 -7.07661e-06 -7.35652e-06 -7.61924e-06);
    }
}


// ************************************************************************* //
