/*--------------------------------*- C++ -*----------------------------------*\
| =========                 |                                                 |
| \\      /  F ield         | OpenFOAM: The Open Source CFD Toolbox           |
|  \\    /   O peration     | Version:  2.4.0                                 |
|   \\  /    A nd           | Web:      www.OpenFOAM.org                      |
|    \\/     M anipulation  |                                                 |
\*---------------------------------------------------------------------------*/
FoamFile
{
    version     2.0;
    format      ascii;
    class       volVectorField;
    location    "3";
    object      U;
}
// * * * * * * * * * * * * * * * * * * * * * * * * * * * * * * * * * * * * * //

dimensions      [0 1 -1 0 0 0 0];

internalField   nonuniform List<vector> 
125
(
(2.95005e-09 -0.00121797 0)
(8.64138e-09 -0.00121796 0)
(2.3834e-09 -0.00121795 0)
(-1.17099e-08 -0.00121796 0)
(-7.64457e-09 -0.00121797 0)
(2.15511e-09 -0.00121797 0)
(7.01525e-09 -0.00121796 0)
(2.0942e-09 -0.00121795 0)
(-9.99624e-09 -0.00121796 0)
(-6.49597e-09 -0.00121797 0)
(1.40253e-09 -0.00121797 0)
(5.47345e-09 -0.00121796 0)
(1.81959e-09 -0.00121795 0)
(-8.37226e-09 -0.00121796 0)
(-5.40995e-09 -0.00121797 0)
(6.9168e-10 -0.00121797 0)
(4.01488e-09 -0.00121796 0)
(1.55929e-09 -0.00121795 0)
(-6.83663e-09 -0.00121796 0)
(-4.38524e-09 -0.00121797 0)
(2.20632e-11 -0.00121797 0)
(2.63843e-09 -0.00121796 0)
(1.31297e-09 -0.00121795 0)
(-5.38786e-09 -0.00121796 0)
(-3.42055e-09 -0.00121797 0)
(-6.06882e-10 -0.00121797 0)
(1.34291e-09 -0.00121796 0)
(1.08032e-09 -0.00121795 0)
(-4.02444e-09 -0.00121796 0)
(-2.5146e-09 -0.00121797 0)
(-1.19576e-09 -0.00121797 0)
(1.27062e-10 -0.00121796 0)
(8.61015e-10 -0.00121795 0)
(-2.74479e-09 -0.00121796 0)
(-1.66605e-09 -0.00121797 0)
(-1.7452e-09 -0.00121797 0)
(-1.01044e-09 -0.00121796 0)
(6.54737e-10 -0.00121795 0)
(-1.54727e-09 -0.00121796 0)
(-8.7355e-10 -0.00121797 0)
(-2.25588e-09 -0.00121797 0)
(-2.07099e-09 -0.00121796 0)
(4.61152e-10 -0.00121795 0)
(-4.30194e-10 -0.00121796 0)
(-1.35717e-10 -0.00121797 0)
(-2.72852e-09 -0.00121797 0)
(-3.05605e-09 -0.00121796 0)
(2.79929e-10 -0.00121795 0)
(6.082e-10 -0.00121796 0)
(5.4885e-10 -0.00121797 0)
(-3.16387e-09 -0.00121797 0)
(-3.96716e-09 -0.00121796 0)
(1.1073e-10 -0.00121795 0)
(1.56973e-09 -0.00121796 0)
(1.18158e-09 -0.00121797 0)
(-3.56271e-09 -0.00121797 0)
(-4.80592e-09 -0.00121796 0)
(-4.67831e-11 -0.00121795 0)
(2.45627e-09 -0.00121796 0)
(1.76393e-09 -0.00121797 0)
(-3.92588e-09 -0.00121797 0)
(-5.57402e-09 -0.00121796 0)
(-1.92954e-10 -0.00121795 0)
(3.26975e-09 -0.00121796 0)
(2.29738e-09 -0.00121797 0)
(-4.25425e-09 -0.00121797 0)
(-6.27321e-09 -0.00121796 0)
(-3.28129e-10 -0.00121795 0)
(4.01218e-09 -0.00121796 0)
(2.78344e-09 -0.00121797 0)
(-4.54872e-09 -0.00121797 0)
(-6.90532e-09 -0.00121796 0)
(-4.52655e-10 -0.00121795 0)
(4.68562e-09 -0.00121796 0)
(3.22362e-09 -0.00121797 0)
(-4.81025e-09 -0.00121797 0)
(-7.47225e-09 -0.00121796 0)
(-5.66887e-10 -0.00121795 0)
(5.29217e-09 -0.00121796 0)
(3.61948e-09 -0.00121797 0)
(-5.03982e-09 -0.00121797 0)
(-7.97598e-09 -0.00121796 0)
(-6.71178e-10 -0.00121795 0)
(5.83403e-09 -0.00121796 0)
(3.97261e-09 -0.00121797 0)
(-5.23847e-09 -0.00121797 0)
(-8.41855e-09 -0.00121796 0)
(-7.65887e-10 -0.00121795 0)
(6.31342e-09 -0.00121796 0)
(4.2846e-09 -0.00121797 0)
(-5.40727e-09 -0.00121797 0)
(-8.8021e-09 -0.00121796 0)
(-8.51376e-10 -0.00121795 0)
(6.73264e-09 -0.00121796 0)
(4.55708e-09 -0.00121797 0)
(-5.54734e-09 -0.00121797 0)
(-9.12882e-09 -0.00121796 0)
(-9.2801e-10 -0.00121795 0)
(7.09406e-09 -0.00121796 0)
(4.7917e-09 -0.00121797 0)
(-5.65981e-09 -0.00121797 0)
(-9.401e-09 -0.00121796 0)
(-9.96156e-10 -0.00121795 0)
(7.40008e-09 -0.00121796 0)
(4.99013e-09 -0.00121797 0)
(-5.7459e-09 -0.00121797 0)
(-9.62096e-09 -0.00121796 0)
(-1.05618e-09 -0.00121795 0)
(7.65317e-09 -0.00121796 0)
(5.15407e-09 -0.00121797 0)
(-5.80682e-09 -0.00121797 0)
(-9.79115e-09 -0.00121796 0)
(-1.10847e-09 -0.00121795 0)
(7.85587e-09 -0.00121796 0)
(5.28523e-09 -0.00121797 0)
(-5.84396e-09 -0.00121797 0)
(-9.91413e-09 -0.00121796 0)
(-1.15338e-09 -0.00121795 0)
(8.01062e-09 -0.00121796 0)
(5.38523e-09 -0.00121797 0)
(-5.85857e-09 -0.00121797 0)
(-9.99244e-09 -0.00121796 0)
(-1.19128e-09 -0.00121795 0)
(8.12027e-09 -0.00121796 0)
(5.45599e-09 -0.00121797 0)
)
;

boundaryField
{
    BotWall
    {
        type            fixedValue;
        value           nonuniform 0();
    }
    FreeStream
    {
        type            zeroGradient;
    }
    FrontNBack
    {
        type            empty;
    }
    LeftSide
    {
        type            symmetryPlane;
    }
    RightSide
    {
        type            symmetryPlane;
    }
    procBoundary2to1
    {
        type            processor;
        value           nonuniform List<vector> 5((3.78768e-09 -0.00121797 0) (1.03528e-08 -0.00121796 0) (2.68748e-09 -0.00121795 0) (-1.35147e-08 -0.00121796 0) (-8.85688e-09 -0.00121797 0));
    }
    procBoundary2to3
    {
        type            processor;
        value           nonuniform List<vector> 5((-5.85201e-09 -0.00121797 0) (-1.00288e-08 -0.00121796 0) (-1.22257e-09 -0.00121795 0) (8.18737e-09 -0.00121796 0) (5.49918e-09 -0.00121797 0));
    }
}


// ************************************************************************* //
