/*--------------------------------*- C++ -*----------------------------------*\
| =========                 |                                                 |
| \\      /  F ield         | OpenFOAM: The Open Source CFD Toolbox           |
|  \\    /   O peration     | Version:  2.4.0                                 |
|   \\  /    A nd           | Web:      www.OpenFOAM.org                      |
|    \\/     M anipulation  |                                                 |
\*---------------------------------------------------------------------------*/
FoamFile
{
    version     2.0;
    format      ascii;
    class       volScalarField;
    location    "0.002";
    object      p_rgh;
}
// * * * * * * * * * * * * * * * * * * * * * * * * * * * * * * * * * * * * * //

dimensions      [1 -1 -2 0 0 0 0];

internalField   nonuniform List<scalar> 
125
(
0.714292
0.710275
0.706266
0.702264
0.698271
0.694287
0.690312
0.686346
0.682389
0.678441
0.674502
0.670572
0.66665
0.662738
0.658834
0.654939
0.651052
0.647175
0.643306
0.639446
0.635594
0.631751
0.627917
0.624091
0.620273
0.616464
0.612663
0.608871
0.605086
0.60131
0.597542
0.593783
0.590031
0.586287
0.582552
0.578824
0.575104
0.571391
0.567687
0.56399
0.5603
0.556618
0.552944
0.549276
0.545616
0.541964
0.538318
0.534679
0.531048
0.527423
0.523805
0.520193
0.516589
0.51299
0.509398
0.505813
0.502234
0.49866
0.495093
0.491532
0.487977
0.484427
0.480883
0.477345
0.473812
0.470284
0.466762
0.463244
0.459732
0.456225
0.452722
0.449224
0.445731
0.442242
0.438757
0.435277
0.4318
0.428328
0.424859
0.421395
0.417934
0.414476
0.411022
0.407571
0.404123
0.400679
0.397237
0.393798
0.390361
0.386928
0.383496
0.380067
0.37664
0.373216
0.369793
0.366372
0.362952
0.359534
0.356118
0.352702
0.349288
0.345875
0.342463
0.339052
0.335641
0.33223
0.32882
0.32541
0.322001
0.318591
0.315181
0.31177
0.30836
0.304948
0.301536
0.298123
0.294709
0.291293
0.287877
0.284459
0.281039
0.277617
0.274194
0.270768
0.26734
)
;

boundaryField
{
    BotWall
    {
        type            fixedFluxPressure;
        gradient        nonuniform 0();
        value           nonuniform 0();
    }
    FreeStream
    {
        type            totalPressure;
        rho             rho;
        psi             none;
        gamma           1;
        p0              nonuniform 0();
        value           nonuniform 0();
    }
    FrontNBack
    {
        type            empty;
    }
    LeftSide
    {
        type            symmetryPlane;
    }
    RightSide
    {
        type            symmetryPlane;
    }
    procBoundary3to0
    {
        type            processor;
        value           nonuniform List<scalar> 
50
(
0.430624
0.427983
0.425324
0.422649
0.419959
0.417255
0.414535
0.411801
0.409052
0.406288
0.40351
0.400717
0.39791
0.395088
0.392252
0.389401
0.386536
0.383656
0.380762
0.377854
0.374931
0.371994
0.369043
0.366077
0.363097
0.360102
0.357094
0.354071
0.351034
0.347982
0.344917
0.341837
0.338743
0.335635
0.332513
0.329377
0.326227
0.323062
0.319884
0.316691
0.313484
0.310264
0.307029
0.30378
0.300518
0.297241
0.29395
0.290645
0.287326
0.283994
)
;
    }
    procBoundary3to1
    {
        type            processor;
        value           nonuniform List<scalar> 
75
(
0.584058
0.582588
0.581102
0.579601
0.578084
0.576551
0.575003
0.573439
0.571859
0.570264
0.568653
0.567027
0.565384
0.563727
0.562053
0.560364
0.558659
0.556938
0.555202
0.55345
0.551683
0.5499
0.548101
0.546287
0.544456
0.542611
0.540749
0.538873
0.53698
0.535072
0.533148
0.531209
0.529254
0.527283
0.525297
0.523296
0.521278
0.519246
0.517198
0.515134
0.513055
0.51096
0.50885
0.506724
0.504583
0.502427
0.500255
0.498068
0.495865
0.493647
0.491414
0.489166
0.486902
0.484623
0.482328
0.480018
0.477693
0.475353
0.472998
0.470627
0.468242
0.465841
0.463425
0.460994
0.458548
0.456087
0.453611
0.45112
0.448614
0.446093
0.443556
0.441005
0.438437
0.435852
0.433247
)
;
    }
    procBoundary3to2
    {
        type            processor;
        value           uniform 0.26391;
    }
    procBoundary3to4
    {
        type            processor;
        value           uniform 0.718314;
    }
    procBoundary3to5
    {
        type            processor;
        value           nonuniform List<scalar> 
75
(
0.389359
0.387465
0.385563
0.383651
0.381731
0.3798
0.377859
0.375907
0.373945
0.371973
0.36999
0.367997
0.365993
0.363979
0.361954
0.359919
0.357873
0.355816
0.353749
0.351672
0.349584
0.347485
0.345376
0.343257
0.341127
0.338986
0.336835
0.334674
0.332502
0.330319
0.328126
0.325923
0.323709
0.321485
0.31925
0.317005
0.314749
0.312483
0.310207
0.30792
0.305623
0.303316
0.300998
0.29867
0.296331
0.293983
0.291623
0.289254
0.286874
0.284484
0.282083
0.279673
0.277252
0.27482
0.272379
0.269927
0.267465
0.264993
0.26251
0.260017
0.257514
0.255001
0.252478
0.249944
0.2474
0.244846
0.242282
0.239707
0.237123
0.234528
0.231923
0.229308
0.226682
0.224047
0.221401
)
;
    }
    procBoundary3to6
    {
        type            processor;
        value           nonuniform List<scalar> 
50
(
0.471193
0.469801
0.4684
0.466989
0.465569
0.464139
0.462699
0.46125
0.459791
0.458322
0.456843
0.455354
0.453855
0.452347
0.450828
0.4493
0.447762
0.446213
0.444654
0.443086
0.441507
0.439918
0.438319
0.43671
0.435091
0.433461
0.431821
0.430171
0.428511
0.42684
0.425159
0.423468
0.421766
0.420054
0.418331
0.416599
0.414855
0.413102
0.411338
0.409563
0.407778
0.405983
0.404177
0.402361
0.400534
0.398697
0.396849
0.394991
0.393122
0.391244
)
;
    }
}


// ************************************************************************* //
