/*--------------------------------*- C++ -*----------------------------------*\
| =========                 |                                                 |
| \\      /  F ield         | OpenFOAM: The Open Source CFD Toolbox           |
|  \\    /   O peration     | Version:  2.4.0                                 |
|   \\  /    A nd           | Web:      www.OpenFOAM.org                      |
|    \\/     M anipulation  |                                                 |
\*---------------------------------------------------------------------------*/
FoamFile
{
    version     2.0;
    format      ascii;
    class       volScalarField;
    location    "0.001";
    object      H;
}
// * * * * * * * * * * * * * * * * * * * * * * * * * * * * * * * * * * * * * //

dimensions      [0 2 -2 0 0 0 0];

internalField   nonuniform List<scalar> 
125
(
1.39549e-09
1.09979e-09
8.79853e-10
6.49862e-10
4.69107e-10
3.62602e-10
2.62996e-10
1.67841e-10
1.52517e-10
6.9347e-11
5.89116e-11
3.81528e-11
6.72607e-11
3.7085e-11
2.04968e-11
5.96642e-13
-1.23966e-13
1.111e-13
3.48193e-14
3.21261e-15
3.02926e-16
2.07682e-16
6.22635e-17
9.74991e-18
1.52571e-18
4.21191e-19
1.07966e-19
2.0908e-20
3.95754e-21
8.83449e-22
1.97452e-22
4.01001e-23
8.04581e-24
1.68871e-24
3.52471e-25
7.11239e-26
1.43174e-26
2.91558e-27
5.87609e-28
1.16507e-28
2.31068e-29
4.59797e-30
9.05705e-31
1.76151e-31
3.41917e-32
6.64746e-33
1.28473e-33
2.45818e-34
4.67617e-35
8.87571e-36
1.67812e-36
3.15361e-37
5.89319e-38
1.09588e-38
2.027e-39
3.72954e-40
6.83223e-41
1.246e-41
2.25916e-42
4.0709e-43
7.29944e-44
1.30348e-44
2.31606e-45
4.09014e-46
7.18105e-47
1.25472e-47
2.1821e-48
3.77416e-49
6.4891e-50
1.10955e-50
1.88761e-51
3.19447e-52
5.37549e-53
8.99372e-54
1.49648e-54
2.47661e-55
4.07593e-56
6.66961e-57
1.08513e-57
1.75558e-58
2.82434e-59
4.51776e-60
7.18463e-61
1.13597e-61
1.78579e-62
2.79113e-63
4.337e-64
6.69953e-65
1.02885e-65
1.57076e-66
2.38402e-67
3.59697e-68
5.39492e-69
8.04374e-70
1.19221e-70
1.75653e-71
2.57258e-72
3.74531e-73
5.42016e-74
7.7972e-75
1.11497e-75
1.58485e-76
2.23928e-77
3.14504e-78
4.39077e-79
6.09326e-80
8.40532e-81
1.15254e-81
1.57091e-82
2.12835e-83
2.86637e-84
3.83723e-85
5.10622e-86
6.75427e-87
8.88086e-88
1.16072e-88
1.50799e-89
1.94744e-90
2.49991e-91
3.18992e-92
4.04601e-93
5.10111e-94
6.39274e-95
7.95926e-96
9.6239e-97
)
;

boundaryField
{
    BotWall
    {
        type            zeroGradient;
    }
    FreeStream
    {
        type            zeroGradient;
    }
    FrontNBack
    {
        type            empty;
    }
    LeftSide
    {
        type            symmetryPlane;
    }
    RightSide
    {
        type            symmetryPlane;
    }
    procBoundary3to0
    {
        type            processor;
        value           nonuniform List<scalar> 
50
(
4.01365e-56
-2.87385e-56
2.85388e-57
1.50679e-57
1.49527e-58
3.33824e-61
7.21778e-61
5.75127e-61
9.96241e-62
8.04086e-63
7.90432e-64
2.33568e-64
4.86614e-65
6.20785e-66
6.99656e-67
1.17324e-67
2.21508e-68
3.34438e-69
4.35642e-70
6.24154e-71
1.01192e-71
1.55884e-72
2.18482e-73
3.05274e-74
4.5107e-75
6.69986e-76
9.54187e-77
1.32949e-77
1.87752e-78
2.67548e-79
3.75756e-80
5.18776e-81
7.13897e-82
9.84126e-83
1.34902e-83
1.82999e-84
2.46464e-85
3.30764e-86
4.41863e-87
5.86147e-88
7.72072e-89
1.01119e-89
1.31729e-90
1.70562e-91
2.19414e-92
2.80499e-93
3.56446e-94
4.50194e-95
5.65016e-96
7.04628e-97
)
;
    }
    procBoundary3to1
    {
        type            processor;
        value           nonuniform List<scalar> 
75
(
1.41261e-09
1.10412e-09
8.63569e-10
6.6473e-10
4.70729e-10
3.5503e-10
2.73876e-10
1.67391e-10
1.54863e-10
6.6047e-11
6.6398e-11
3.19346e-11
7.16683e-11
3.69789e-11
2.16982e-11
4.98873e-13
-2.16743e-13
1.01698e-13
3.49692e-14
2.91409e-15
2.03522e-16
2.04479e-16
6.24066e-17
8.77688e-18
1.23704e-18
4.03875e-19
1.11637e-19
2.06891e-20
3.60985e-21
8.31096e-22
1.99924e-22
4.1462e-23
8.10118e-24
1.67978e-24
3.59272e-25
7.46352e-26
1.52053e-26
3.10427e-27
6.30395e-28
1.26735e-28
2.54955e-29
5.13517e-30
1.02305e-30
2.01211e-31
3.94741e-32
7.75504e-33
1.51493e-33
2.92909e-34
5.6258e-35
1.07769e-35
2.05639e-36
3.89766e-37
7.33787e-38
1.37428e-38
2.56164e-39
4.7492e-40
8.75407e-41
1.60448e-41
2.92457e-42
5.30189e-43
9.56014e-44
1.71449e-44
3.05748e-45
5.42181e-46
9.56225e-47
1.67747e-47
2.92667e-48
5.07748e-49
8.76002e-50
1.50316e-50
2.56535e-51
4.35393e-52
7.3479e-53
1.23125e-53
1.9735e-54
)
;
    }
    procBoundary3to2
    {
        type            processor;
        value           uniform 7.07682e-99;
    }
    procBoundary3to4
    {
        type            processor;
        value           uniform 1.79424e-09;
    }
    procBoundary3to5
    {
        type            processor;
        value           nonuniform List<scalar> 
75
(
3.1684e-37
-2.18894e-37
1.17288e-38
1.41073e-38
1.98484e-39
-6.11292e-42
-8.81894e-42
7.9451e-42
2.29802e-42
2.28061e-43
7.85659e-45
4.03522e-45
1.70582e-45
3.0303e-46
3.07349e-47
4.07037e-48
1.15382e-48
2.57044e-49
3.82522e-50
5.04562e-51
9.10301e-52
1.89478e-52
3.30529e-53
4.93606e-54
7.7408e-55
1.38076e-55
2.42976e-56
3.89969e-57
6.06221e-58
9.86137e-59
1.64752e-59
2.67061e-60
4.18367e-61
6.5574e-62
1.0429e-62
1.65193e-63
2.56926e-64
3.95217e-65
6.07999e-66
9.34413e-67
1.42436e-67
2.15021e-68
3.22685e-69
4.8241e-70
7.17267e-71
1.05881e-71
1.55238e-72
2.26302e-73
3.28039e-74
4.72544e-75
6.76283e-76
9.61807e-77
1.35948e-77
1.90957e-78
2.6652e-79
3.69624e-80
5.09354e-81
6.97396e-82
9.48696e-83
1.28223e-83
1.72179e-84
2.29689e-85
3.04391e-86
4.00733e-87
5.24085e-88
6.80847e-89
8.78581e-90
1.12614e-90
1.43376e-91
1.8131e-92
2.27726e-93
2.84082e-94
3.51973e-95
4.33115e-96
5.29319e-97
)
;
    }
    procBoundary3to6
    {
        type            processor;
        value           nonuniform List<scalar> 
50
(
1.4038e-09
1.09685e-09
8.70912e-10
6.59617e-10
4.73918e-10
3.71658e-10
2.59889e-10
1.78516e-10
1.41274e-10
8.40984e-11
4.15528e-11
5.80462e-11
5.70619e-11
3.53834e-11
2.50848e-11
2.79963e-13
-1.34062e-13
1.09656e-13
3.05057e-14
2.07604e-15
2.27826e-16
2.08518e-16
5.51203e-17
6.92542e-18
1.16272e-18
4.17686e-19
1.02687e-19
1.65308e-20
2.97716e-21
7.96384e-22
1.90866e-22
3.5789e-23
6.6327e-24
1.471e-24
3.32533e-25
6.73125e-26
1.30165e-26
2.65314e-27
5.59641e-28
1.14607e-28
2.26878e-29
4.49e-30
9.01072e-31
1.80868e-31
3.58236e-32
7.00707e-33
1.36537e-33
2.664e-34
5.17289e-35
9.48332e-36
)
;
    }
}


// ************************************************************************* //
