/*--------------------------------*- C++ -*----------------------------------*\
| =========                 |                                                 |
| \\      /  F ield         | OpenFOAM: The Open Source CFD Toolbox           |
|  \\    /   O peration     | Version:  2.4.0                                 |
|   \\  /    A nd           | Web:      www.OpenFOAM.org                      |
|    \\/     M anipulation  |                                                 |
\*---------------------------------------------------------------------------*/
FoamFile
{
    version     2.0;
    format      ascii;
    class       surfaceScalarField;
    location    "0.001";
    object      phi;
}
// * * * * * * * * * * * * * * * * * * * * * * * * * * * * * * * * * * * * * //

dimensions      [0 3 -1 0 0 0 0];

internalField   nonuniform List<scalar> 
124
(
-6.69577e-09
-6.69578e-09
-6.69578e-09
-6.69579e-09
-6.69579e-09
-6.69579e-09
-6.6958e-09
-6.6958e-09
-6.69581e-09
-6.69581e-09
-6.69582e-09
-6.69582e-09
-6.69583e-09
-6.69583e-09
-6.69584e-09
-6.69584e-09
-6.69585e-09
-6.69585e-09
-6.69585e-09
-6.69586e-09
-6.69586e-09
-6.69587e-09
-6.69587e-09
-6.69588e-09
-6.69588e-09
-6.69589e-09
-6.69589e-09
-6.69589e-09
-6.6959e-09
-6.6959e-09
-6.69591e-09
-6.69591e-09
-6.69592e-09
-6.69592e-09
-6.69593e-09
-6.69593e-09
-6.69594e-09
-6.69594e-09
-6.69594e-09
-6.69595e-09
-6.69595e-09
-6.69596e-09
-6.69596e-09
-6.69597e-09
-6.69597e-09
-6.69598e-09
-6.69598e-09
-6.69599e-09
-6.69599e-09
-6.696e-09
-6.696e-09
-6.69601e-09
-6.69601e-09
-6.69601e-09
-6.69602e-09
-6.69602e-09
-6.69603e-09
-6.69603e-09
-6.69604e-09
-6.69604e-09
-6.69605e-09
-6.69605e-09
-6.69606e-09
-6.69606e-09
-6.69607e-09
-6.69607e-09
-6.69608e-09
-6.69608e-09
-6.69609e-09
-6.6961e-09
-6.6961e-09
-6.69611e-09
-6.69611e-09
-6.69612e-09
-6.69612e-09
-6.69613e-09
-6.69613e-09
-6.69614e-09
-6.69614e-09
-6.69615e-09
-6.69615e-09
-6.69616e-09
-6.69616e-09
-6.69617e-09
-6.69617e-09
-6.69618e-09
-6.69618e-09
-6.69619e-09
-6.69619e-09
-6.6962e-09
-6.6962e-09
-6.69621e-09
-6.69621e-09
-6.69622e-09
-6.69622e-09
-6.69623e-09
-6.69623e-09
-6.69624e-09
-6.69624e-09
-6.69625e-09
-6.69625e-09
-6.69625e-09
-6.69626e-09
-6.69626e-09
-6.69627e-09
-6.69627e-09
-6.69627e-09
-6.69628e-09
-6.69628e-09
-6.69628e-09
-6.69629e-09
-6.69629e-09
-6.69629e-09
-6.6963e-09
-6.6963e-09
-6.6963e-09
-6.6963e-09
-6.69631e-09
-6.69631e-09
-6.69631e-09
-6.69631e-09
-6.69632e-09
-6.69632e-09
-6.69632e-09
)
;

boundaryField
{
    BotWall
    {
        type            calculated;
        value           nonuniform 0();
    }
    FreeStream
    {
        type            calculated;
        value           nonuniform 0();
    }
    FrontNBack
    {
        type            empty;
        value           nonuniform 0();
    }
    LeftSide
    {
        type            symmetryPlane;
        value           nonuniform 0();
    }
    RightSide
    {
        type            symmetryPlane;
        value           nonuniform 0();
    }
    procBoundary3to0
    {
        type            processor;
        value           nonuniform List<scalar> 
50
(
7.52866e-15
7.4581e-15
7.38479e-15
7.30875e-15
7.22998e-15
7.14846e-15
7.06422e-15
6.97726e-15
6.88761e-15
6.79531e-15
6.70042e-15
6.60299e-15
6.50311e-15
6.40084e-15
6.2963e-15
6.18958e-15
6.0808e-15
5.97009e-15
5.85757e-15
5.74339e-15
5.6277e-15
5.51066e-15
5.39242e-15
5.27317e-15
5.15307e-15
5.03231e-15
4.91105e-15
4.78948e-15
4.66779e-15
4.54614e-15
4.42472e-15
4.30369e-15
4.18323e-15
4.06348e-15
3.9446e-15
3.82673e-15
3.71e-15
3.59454e-15
3.48046e-15
3.36786e-15
3.25682e-15
3.14742e-15
3.03973e-15
2.9338e-15
2.82967e-15
2.7274e-15
2.62706e-15
2.52865e-15
2.43223e-15
2.33764e-15
)
;
    }
    procBoundary3to1
    {
        type            processor;
        value           nonuniform List<scalar> 
75
(
3.60541e-15
3.71202e-15
3.82143e-15
3.93344e-15
4.04787e-15
4.16456e-15
4.28332e-15
4.40397e-15
4.52633e-15
4.6502e-15
4.77538e-15
4.90167e-15
5.02886e-15
5.15672e-15
5.28504e-15
5.41359e-15
5.54213e-15
5.67042e-15
5.7982e-15
5.92524e-15
6.05128e-15
6.17607e-15
6.29934e-15
6.42084e-15
6.54033e-15
6.65754e-15
6.77225e-15
6.8842e-15
6.99317e-15
7.09894e-15
7.20129e-15
7.30003e-15
7.39497e-15
7.48595e-15
7.57279e-15
7.65535e-15
7.73353e-15
7.80719e-15
7.87625e-15
7.94064e-15
8.00031e-15
8.05521e-15
8.10532e-15
8.15066e-15
8.19122e-15
8.22706e-15
8.25822e-15
8.28471e-15
8.30666e-15
8.3241e-15
8.3372e-15
8.34603e-15
8.35073e-15
8.35142e-15
8.34819e-15
8.34116e-15
8.33043e-15
8.3161e-15
8.29827e-15
8.27703e-15
8.25247e-15
8.22468e-15
8.19373e-15
8.1597e-15
8.12266e-15
8.08267e-15
8.03978e-15
7.99406e-15
7.94553e-15
7.89425e-15
7.84023e-15
7.78343e-15
7.72392e-15
7.66157e-15
7.59653e-15
)
;
    }
    procBoundary3to2
    {
        type            processor;
        value           uniform -6.69632e-09;
    }
    procBoundary3to4
    {
        type            processor;
        value           uniform 6.69577e-09;
    }
    procBoundary3to5
    {
        type            processor;
        value           nonuniform List<scalar> 
75
(
-3.56246e-15
-3.55071e-15
-3.53425e-15
-3.5132e-15
-3.48772e-15
-3.45795e-15
-3.42406e-15
-3.38622e-15
-3.34458e-15
-3.29935e-15
-3.25069e-15
-3.1988e-15
-3.14389e-15
-3.08615e-15
-3.0258e-15
-2.96307e-15
-2.89818e-15
-2.83136e-15
-2.76286e-15
-2.69291e-15
-2.62174e-15
-2.54962e-15
-2.47682e-15
-2.40352e-15
-2.33003e-15
-2.25648e-15
-2.18313e-15
-2.11016e-15
-2.03779e-15
-1.9662e-15
-1.89561e-15
-1.82617e-15
-1.75806e-15
-1.69143e-15
-1.62641e-15
-1.56312e-15
-1.50167e-15
-1.44214e-15
-1.38459e-15
-1.32907e-15
-1.2756e-15
-1.22419e-15
-1.17482e-15
-1.12746e-15
-1.08205e-15
-1.03855e-15
-9.96849e-16
-9.56831e-16
-9.18466e-16
-8.8157e-16
-8.46156e-16
-8.12052e-16
-7.79195e-16
-7.47454e-16
-7.16722e-16
-6.86901e-16
-6.57898e-16
-6.29626e-16
-6.02009e-16
-5.74977e-16
-5.48471e-16
-5.22443e-16
-4.96852e-16
-4.71673e-16
-4.4689e-16
-4.22499e-16
-3.98511e-16
-3.74946e-16
-3.5184e-16
-3.29235e-16
-3.07171e-16
-2.8567e-16
-2.64838e-16
-2.44676e-16
-2.25422e-16
)
;
    }
    procBoundary3to6
    {
        type            processor;
        value           nonuniform List<scalar> 
50
(
1.3906e-15
1.23146e-15
1.07324e-15
9.15881e-16
7.59357e-16
6.03656e-16
4.48791e-16
2.94789e-16
1.41409e-16
-1.15261e-17
-1.62453e-16
-3.11881e-16
-4.59355e-16
-6.05251e-16
-7.49639e-16
-8.92364e-16
-1.03326e-15
-1.17216e-15
-1.30889e-15
-1.44325e-15
-1.57507e-15
-1.70414e-15
-1.83028e-15
-1.9533e-15
-2.07299e-15
-2.18918e-15
-2.30167e-15
-2.41028e-15
-2.51483e-15
-2.61517e-15
-2.71111e-15
-2.80252e-15
-2.88925e-15
-2.97116e-15
-3.04813e-15
-3.12006e-15
-3.18684e-15
-3.24839e-15
-3.30465e-15
-3.35555e-15
-3.40105e-15
-3.44114e-15
-3.47579e-15
-3.50502e-15
-3.52884e-15
-3.5473e-15
-3.5605e-15
-3.5685e-15
-3.57145e-15
-3.56939e-15
)
;
    }
}


// ************************************************************************* //
