/*--------------------------------*- C++ -*----------------------------------*\
| =========                 |                                                 |
| \\      /  F ield         | OpenFOAM: The Open Source CFD Toolbox           |
|  \\    /   O peration     | Version:  2.4.0                                 |
|   \\  /    A nd           | Web:      www.OpenFOAM.org                      |
|    \\/     M anipulation  |                                                 |
\*---------------------------------------------------------------------------*/
FoamFile
{
    version     2.0;
    format      ascii;
    class       volScalarField;
    location    "2.8";
    object      alpha1;
}
// * * * * * * * * * * * * * * * * * * * * * * * * * * * * * * * * * * * * * //

dimensions      [0 0 0 0 0 0 0];

internalField   nonuniform List<scalar> 
8000
(
1
0.999999
0.999996
0.999992
0.999988
0.999993
1
1
0.999994
0.999997
0.999997
0.999996
0.999995
0.999993
0.999991
0.999989
0.99999
0.999992
0.999992
0.99999
0.999992
0.999993
0.999993
0.999991
0.99999
0.99999
0.99999
0.999991
0.999992
0.999993
0.999994
0.999995
0.999995
0.999996
0.999996
0.999996
0.999997
0.999997
0.999997
0.999997
0.999997
0.999997
0.999997
0.999997
0.999997
0.999998
0.999981
0.999982
0.997222
0.965303
1
0.999999
0.999996
0.999996
0.999996
1
1
1
0.999999
0.999999
0.999999
0.999999
0.999998
0.999998
0.999997
0.999996
0.999995
0.999994
0.999994
0.999993
0.999995
0.999994
0.999994
0.999993
0.999992
0.999995
0.999991
0.999992
0.999993
0.999994
0.999995
0.999996
0.999996
0.999997
0.999997
0.999998
0.999998
0.999998
0.999999
0.999999
1
0.999999
0.999999
0.999999
0.99999
0.999929
0.992025
0.948282
0.860394
0.715674
1
0.999999
0.999997
0.999999
1
0.999999
0.999997
0.999999
0.999999
0.999999
0.999999
0.999999
0.999998
0.999998
0.999997
0.999996
0.999995
0.999994
0.999993
0.999993
0.999993
0.999993
0.999993
0.999993
0.999993
0.999993
0.999992
0.999992
0.999993
0.999994
0.999994
0.999995
0.999996
0.999996
0.999997
0.999997
0.999998
0.999998
0.999998
0.999999
0.999998
0.999994
0.999924
0.999729
0.95962
0.875741
0.750713
0.589268
0.411747
0.245127
1
0.999999
0.999997
0.999998
0.999999
0.999999
0.999998
0.999999
0.999999
0.999999
0.999999
0.999999
0.999998
0.999998
0.999997
0.999996
0.999996
0.999995
0.999994
0.999993
0.999993
0.999993
0.999993
0.999994
0.999994
0.999994
0.999994
0.999994
0.999994
0.999994
0.999995
0.999995
0.999996
0.999996
0.999997
0.999997
0.999998
0.999998
0.999998
0.999925
0.999671
0.967116
0.867006
0.723763
0.548282
0.37445
0.22642
0.122487
0.0608011
0.028123
1
0.999999
0.999997
0.999998
0.999998
0.999999
0.999999
0.999999
0.999999
0.999999
0.999999
0.999999
0.999998
0.999998
0.999998
0.999997
0.999996
0.999995
0.999995
0.999994
0.999994
0.999994
0.999994
0.999995
0.999995
0.999995
0.999995
0.999995
0.999995
0.999995
0.999996
0.999996
0.999996
0.999996
0.999997
0.999997
0.999967
0.999689
0.983026
0.863242
0.690606
0.502765
0.319018
0.177261
0.0911785
0.0437862
0.02021
0.0090641
0.00347891
0.00132157
1
0.999999
0.999997
0.999998
0.999998
0.999999
0.999999
0.999999
0.999999
0.999999
0.999999
0.999999
0.999998
0.999998
0.999998
0.999998
0.999997
0.999997
0.999996
0.999995
0.999995
0.999995
0.999995
0.999996
0.999996
0.999996
0.999997
0.999997
0.999997
0.999997
0.999997
0.999996
0.999996
0.999996
0.999873
0.999276
0.909494
0.691332
0.450646
0.27466
0.144247
0.0742666
0.0217224
0.00706125
0.00337997
0.0013778
0.000431403
0.0001642
6.73592e-05
2.70977e-05
1
0.999999
0.999997
0.999998
0.999999
0.999999
1
0.999999
0.999999
0.999999
0.999999
0.999999
0.999999
0.999998
0.999998
0.999998
0.999998
0.999997
0.999997
0.999997
0.999997
0.999996
0.999996
0.999997
0.999997
0.999997
0.999998
0.999998
0.999998
0.999998
0.999997
0.999991
0.999647
0.995417
0.802822
0.495554
0.285745
0.110561
0.034465
0.0150992
0.00251465
0.000829688
0.000311125
7.89924e-05
2.14201e-05
8.04494e-06
3.98827e-06
2.00305e-06
1.16248e-06
7.70618e-07
1
0.999999
0.999998
0.999998
0.999999
0.999999
0.999999
0.999999
0.999999
0.999999
0.999999
0.999999
0.999999
0.999999
0.999999
0.999998
0.999998
0.999998
0.999998
0.999998
0.999998
0.999998
0.999998
0.999998
0.999998
0.999998
0.999998
0.999998
0.999998
0.999963
0.999418
0.949636
0.646992
0.36002
0.1336
0.0148624
0.00608526
0.00161539
0.000100962
1.98186e-05
3.43537e-06
1.93641e-06
1.14238e-06
7.33276e-07
5.95285e-07
5.9482e-07
5.95824e-07
5.85781e-07
5.66336e-07
5.40449e-07
1
0.999999
0.999998
0.999998
0.999999
0.999999
0.999999
0.999999
0.999999
0.999999
0.999999
0.999999
0.999999
0.999999
0.999999
0.999999
0.999999
0.999999
0.999999
0.999999
0.999999
0.999999
0.999998
0.999998
0.999998
0.999998
0.999998
0.999943
0.999213
0.882744
0.519499
0.211515
0.0231354
0.00395376
0.00182256
0.000100644
1.30549e-05
3.40941e-06
6.70441e-07
6.43209e-07
6.3133e-07
6.27574e-07
6.20724e-07
6.11426e-07
5.99929e-07
5.86134e-07
5.69966e-07
5.51744e-07
5.31758e-07
5.10692e-07
1
1
0.999998
0.999999
0.999999
0.999999
0.999999
0.999999
0.999999
0.999999
0.999999
0.999999
0.999999
0.999999
0.999999
0.999999
0.999999
0.999999
0.999999
0.999999
0.999999
0.999999
0.999999
0.999999
0.999999
0.999954
0.999102
0.84504
0.420553
0.0950242
0.00638101
0.00285583
0.000392063
1.04331e-05
4.19328e-06
1.17451e-06
9.35064e-07
1.10837e-06
7.15068e-07
6.75201e-07
6.7904e-07
6.82997e-07
6.84999e-07
6.84254e-07
6.79657e-07
6.69304e-07
6.51243e-07
6.27655e-07
5.98402e-07
5.6733e-07
1
1
0.999999
0.999999
0.999999
0.999999
0.999999
0.999999
0.999999
0.999999
0.999999
0.999999
0.999999
0.999999
0.999999
0.999999
0.999999
0.999999
1
1
0.999999
0.999999
0.999999
0.999985
0.999224
0.852953
0.360208
0.0476868
0.00294071
0.00128324
0.000142624
6.87522e-06
2.36586e-06
1.45118e-06
1.45125e-06
1.28636e-06
8.11909e-07
7.88911e-07
7.55976e-07
7.59535e-07
7.77407e-07
7.90047e-07
7.97173e-07
8.03426e-07
8.11057e-07
8.15134e-07
7.95814e-07
7.6992e-07
7.24651e-07
6.83322e-07
1
1
0.999999
0.999999
0.999999
1
1
0.999999
0.999999
0.999999
0.999999
0.999999
0.999999
0.999999
0.999999
1
1
1
1
1
0.999999
0.999997
0.999477
0.911213
0.376603
0.0363713
0.00170566
0.000576659
8.59182e-05
5.60951e-06
2.65218e-06
1.83543e-06
2.01782e-06
1.52134e-06
1.20545e-06
1.12349e-06
9.89445e-07
9.07091e-07
8.76898e-07
8.85759e-07
9.19808e-07
9.31482e-07
9.20468e-07
9.10506e-07
9.21952e-07
9.65356e-07
9.41353e-07
9.27811e-07
8.54316e-07
8.32984e-07
1
1
1
0.999999
1
1
1
1
1
0.999999
0.999999
0.999999
0.999999
1
1
1
1
1
1
0.999999
0.999833
0.990041
0.457238
0.039033
0.00137829
0.000223026
5.07909e-05
5.68979e-06
2.78683e-06
2.44941e-06
2.08644e-06
1.81538e-06
1.54902e-06
1.27532e-06
2.74911e-06
1.2271e-06
1.16002e-06
1.1485e-06
1.07581e-06
1.06783e-06
1.14405e-06
1.12946e-06
1.06601e-06
1.01432e-06
1.01384e-06
1.12134e-06
1.03394e-06
1.04162e-06
8.94892e-07
9.48736e-07
1
1
1
1
1
1
1
1
1
1
1
1
1
1
1
1
1
1
0.999996
0.998929
0.688242
0.0793079
0.00206772
0.000115014
1.84647e-05
4.23714e-06
2.74174e-06
2.23695e-06
2.04483e-06
1.81205e-06
1.65683e-06
1.52378e-06
1.39351e-06
1.2738e-06
1.16744e-06
2.36527e-06
1.16129e-06
1.72445e-06
1.0759e-06
1.19253e-06
1.45193e-06
1.21309e-06
1.09551e-06
1.06389e-06
1.10331e-06
1.40487e-06
9.89684e-07
1.20664e-06
6.9019e-07
8.85133e-07
1
1
1
1
1
1
1
1
1
1
1
1
1
1
1
1
1
0.999869
0.94881
0.249389
0.00654247
0.000164986
1.09222e-05
3.50046e-06
2.38434e-06
2.12089e-06
1.87263e-06
1.69115e-06
1.53076e-06
1.41521e-06
1.34173e-06
1.29366e-06
1.27379e-06
1.27321e-06
1.15109e-06
1.14071e-06
1.25617e-06
1.28111e-06
1.33503e-06
1.15403e-06
2.28186e-06
1.01944e-06
1.08941e-06
1.10198e-06
9.72896e-07
1.88443e-06
6.65848e-07
8.46311e-07
6.60174e-07
5.96304e-07
1
1
1
1
1
1
1
1
1
1
1
1
1
1
1
0.999999
0.999378
0.668531
0.0406878
0.000551079
1.50888e-05
3.41037e-06
2.32222e-06
1.96095e-06
1.8263e-06
1.76099e-06
1.71635e-06
1.6424e-06
1.51224e-06
1.37851e-06
1.31376e-06
1.24374e-06
1.20586e-06
2.36056e-06
1.13264e-06
1.13523e-06
1.46168e-06
1.33529e-06
1.68663e-06
1.08086e-06
1.05701e-06
1.01678e-06
8.89721e-07
1.48808e-06
6.92327e-07
6.91338e-07
6.62102e-07
1.18687e-06
5.45462e-07
5.44481e-07
1
1
1
1
1
1
1
1
1
0.999999
0.999999
0.999999
1
1
0.999998
0.998048
0.342505
0.00506435
5.55726e-05
3.65246e-06
2.43026e-06
1.77592e-06
1.64899e-06
1.65969e-06
1.75119e-06
1.89005e-06
2.32419e-06
2.22596e-06
1.52315e-06
1.19071e-06
1.14315e-06
9.50306e-07
1.05493e-06
1.0614e-06
1.95994e-06
1.13558e-06
1.22643e-06
1.31147e-06
1.68854e-06
1.15444e-06
1.08557e-06
9.98816e-07
8.82954e-07
7.96542e-07
7.46605e-07
7.01308e-07
6.54973e-07
6.0523e-07
5.65963e-07
5.23249e-07
1
1
1
1
1
1
1
1
1
0.999998
0.999996
0.999998
1
0.999954
0.944088
0.115865
0.00050256
6.57343e-06
2.63962e-06
1.70237e-06
1.40543e-06
1.35428e-06
1.33712e-06
1.33355e-06
1.3183e-06
1.27988e-06
1.17019e-06
1.67371e-06
1.3841e-06
9.19114e-07
9.55746e-07
1.10337e-06
1.47836e-06
3.08206e-06
3.08531e-06
1.50361e-06
1.04177e-06
9.92129e-07
1.31265e-06
8.01386e-07
8.07071e-07
8.46427e-07
9.03161e-07
1.00278e-06
9.77916e-07
8.52278e-07
7.34222e-07
6.56413e-07
6.2908e-07
6.31223e-07
1
1
1
1
1
1
1
1
0.999999
0.999995
0.999989
0.999998
0.999787
0.730063
0.0194457
3.96582e-05
2.84159e-06
1.62888e-06
1.34178e-06
1.27629e-06
1.24373e-06
1.21894e-06
1.18833e-06
1.1484e-06
1.10134e-06
1.05464e-06
1.01962e-06
1.01233e-06
1.02443e-06
1.12291e-06
9.38208e-07
1.2283e-06
3.67841e-06
5.17492e-06
9.83088e-07
9.82561e-07
9.82612e-07
9.87545e-07
2.06236e-06
3.68927e-06
5.6602e-07
5.63077e-07
5.67029e-07
5.71674e-07
1.27945e-06
3.20101e-06
1.17411e-06
5.1901e-07
5.2393e-07
8.50177e-07
1
1
1
1
1
1
1
0.999999
0.999997
0.999993
0.999967
0.999378
0.458832
0.0020486
4.39459e-06
2.48616e-06
1.75937e-06
1.3936e-06
1.26949e-06
1.23497e-06
1.21234e-06
1.18592e-06
1.14887e-06
1.10487e-06
1.05941e-06
1.0178e-06
9.93917e-07
1.01944e-06
1.00761e-06
9.32313e-07
9.36673e-07
1.93761e-06
4.16591e-06
5.16472e-06
9.82417e-07
9.82419e-07
9.83617e-07
1.17333e-06
3.3111e-06
4.64476e-06
5.58301e-07
5.58303e-07
5.627e-07
1.22142e-06
3.93691e-06
5.89157e-06
7.62606e-07
5.23456e-07
7.87075e-07
3.77349e-06
0.888174
0.754361
0.552711
0.239693
0.0587047
0.011951
0.00291791
0.000887738
0.000277286
7.21305e-05
7.54808e-06
4.156e-06
2.6913e-06
2.01488e-06
1.63419e-06
1.36939e-06
1.18432e-06
1.04475e-06
9.42709e-07
8.39036e-07
9.26506e-07
8.19056e-07
6.67697e-07
6.077e-07
5.86657e-07
5.71678e-07
5.63795e-07
5.45939e-07
4.69292e-07
5.38465e-07
4.33592e-07
4.19971e-07
3.49091e-07
3.77888e-07
3.85271e-07
5.68676e-07
3.46126e-07
3.50847e-07
5.48899e-07
3.63822e-07
3.92305e-07
6.56929e-07
3.92089e-07
4.23232e-07
4.11191e-07
6.58838e-07
5.34414e-07
6.75246e-07
5.42606e-07
3.13423e-07
0.501845
0.293506
0.169544
0.0802094
0.0269459
0.00756844
0.00223357
0.000709324
0.000216725
5.51213e-05
5.95097e-06
3.39277e-06
2.21887e-06
1.6308e-06
1.29907e-06
1.08478e-06
9.63765e-07
8.70024e-07
7.9841e-07
7.09571e-07
7.94139e-07
6.62962e-07
5.57196e-07
5.09734e-07
4.93698e-07
4.92549e-07
4.90507e-07
4.75667e-07
4.25519e-07
3.82831e-07
3.85819e-07
3.63395e-07
3.47152e-07
3.26952e-07
3.28072e-07
3.34072e-07
3.17271e-07
3.32913e-07
2.95772e-07
3.5996e-07
3.67003e-07
3.49458e-07
3.90899e-07
3.97391e-07
4.04813e-07
3.71892e-07
4.03896e-07
7.06085e-07
2.5057e-07
2.95182e-07
0.117764
0.0479403
0.0203295
0.0101284
0.00492734
0.00211691
0.000813351
0.000278946
8.29349e-05
2.00582e-05
2.90481e-06
2.07958e-06
1.55685e-06
1.22495e-06
1.00909e-06
8.56601e-07
8.06374e-07
7.45166e-07
6.87772e-07
6.17534e-07
6.1952e-07
5.21858e-07
4.59582e-07
4.34632e-07
4.28858e-07
4.29213e-07
4.32015e-07
4.13455e-07
3.64412e-07
3.52634e-07
3.35065e-07
3.1468e-07
2.94804e-07
2.81877e-07
2.83438e-07
3.56036e-07
2.66436e-07
2.93242e-07
2.91823e-07
2.99148e-07
3.18948e-07
3.48029e-07
3.68819e-07
3.51963e-07
3.71485e-07
3.61396e-07
3.36855e-07
2.61116e-07
2.4835e-07
2.51695e-07
0.0121537
0.00497472
0.00204139
0.00098754
0.000556327
0.000294304
0.000131445
4.80544e-05
1.47384e-05
3.36994e-06
1.66972e-06
1.1252e-06
9.59621e-07
8.43824e-07
7.44416e-07
6.45994e-07
6.86083e-07
6.34925e-07
5.76113e-07
5.20983e-07
4.48041e-07
4.02857e-07
3.80277e-07
3.7053e-07
3.71115e-07
3.77782e-07
3.75719e-07
3.47707e-07
3.07337e-07
2.99833e-07
2.91675e-07
2.75548e-07
2.53667e-07
2.39858e-07
2.11965e-07
3.70183e-07
1.931e-07
2.32995e-07
2.31686e-07
2.42448e-07
2.70002e-07
3.11361e-07
3.52948e-07
2.78791e-07
3.0736e-07
2.70635e-07
2.50253e-07
2.2268e-07
2.10639e-07
2.06974e-07
0.000527027
0.000224029
0.000103992
5.48761e-05
3.44534e-05
1.83642e-05
8.03375e-06
2.97507e-06
1.58477e-06
1.11163e-06
8.93468e-07
7.76828e-07
7.03529e-07
6.25797e-07
5.60276e-07
4.70131e-07
6.11484e-07
5.17808e-07
4.49365e-07
3.91333e-07
3.54844e-07
3.28474e-07
3.1415e-07
3.12736e-07
3.16974e-07
3.21389e-07
3.11382e-07
2.81644e-07
2.53948e-07
2.52939e-07
2.50852e-07
2.40109e-07
2.15487e-07
2.08838e-07
1.89897e-07
1.59203e-07
1.88364e-07
1.79915e-07
1.76206e-07
1.80587e-07
1.96413e-07
2.26567e-07
3.787e-07
1.76578e-07
2.60503e-07
1.89903e-07
1.92456e-07
1.78108e-07
1.6915e-07
1.65643e-07
1.10185e-05
5.9656e-06
3.69073e-06
2.40133e-06
1.13025e-06
7.55719e-07
6.38934e-07
6.43302e-07
6.08767e-07
5.75484e-07
5.52584e-07
5.38238e-07
5.17662e-07
4.5551e-07
4.13927e-07
3.28669e-07
5.15295e-07
3.56613e-07
3.13896e-07
2.78667e-07
2.68608e-07
2.6135e-07
2.56865e-07
2.5847e-07
2.60017e-07
2.5781e-07
2.46192e-07
2.2531e-07
2.04304e-07
2.07328e-07
2.08682e-07
2.04495e-07
1.72479e-07
1.72531e-07
1.64479e-07
1.55662e-07
1.46725e-07
1.38573e-07
1.322e-07
1.28476e-07
1.28154e-07
2.52484e-07
1.12921e-07
1.70681e-07
2.70446e-07
1.15243e-07
1.44751e-07
1.36808e-07
1.31996e-07
1.30448e-07
7.51902e-07
8.18893e-07
8.0134e-07
5.91429e-07
5.05005e-07
4.82894e-07
4.73365e-07
4.47121e-07
4.40628e-07
4.39283e-07
4.38302e-07
4.24101e-07
3.79797e-07
3.21498e-07
3.02902e-07
2.791e-07
2.41031e-07
2.5217e-07
2.28476e-07
2.20731e-07
2.1347e-07
2.08059e-07
2.03624e-07
2.01183e-07
1.99929e-07
1.98106e-07
1.931e-07
1.81056e-07
1.57052e-07
1.60762e-07
1.6423e-07
1.78701e-07
1.28414e-07
1.33683e-07
1.27973e-07
1.22282e-07
1.16782e-07
1.11551e-07
1.06436e-07
1.00966e-07
9.44555e-08
8.63617e-08
1.07841e-07
2.0887e-07
8.75557e-08
1.11571e-07
1.07193e-07
1.03951e-07
1.02218e-07
1.01896e-07
5.12444e-07
4.87275e-07
4.66339e-07
4.47435e-07
4.28336e-07
4.09424e-07
3.93316e-07
3.82713e-07
3.76115e-07
3.66849e-07
3.46687e-07
3.09567e-07
2.65706e-07
2.48514e-07
2.37536e-07
2.28799e-07
2.20178e-07
2.06271e-07
1.82443e-07
1.75302e-07
1.6638e-07
1.58578e-07
1.52504e-07
1.48665e-07
1.47401e-07
1.48791e-07
1.52499e-07
1.57617e-07
1.13238e-07
1.15021e-07
1.02599e-07
1.92339e-07
8.54186e-08
1.03136e-07
9.9725e-08
9.6764e-08
9.42442e-08
9.20439e-08
8.99101e-08
8.74922e-08
8.44406e-08
8.05446e-08
7.5829e-08
7.05351e-08
8.4439e-08
8.19824e-08
8.00398e-08
7.88025e-08
7.83016e-08
7.84517e-08
4.88805e-07
4.66978e-07
4.44021e-07
4.20111e-07
3.95995e-07
3.729e-07
3.51835e-07
3.33187e-07
3.16801e-07
3.0215e-07
2.86284e-07
2.58722e-07
2.16788e-07
2.08066e-07
1.98167e-07
1.9127e-07
1.8727e-07
1.86185e-07
1.45154e-07
1.40515e-07
1.31122e-07
1.22442e-07
1.14777e-07
1.0841e-07
1.03577e-07
1.0045e-07
9.91346e-08
1.89544e-07
7.77485e-08
1.04319e-07
7.61707e-08
7.10936e-08
8.26336e-08
7.98592e-08
7.75267e-08
7.56286e-08
7.40943e-08
7.2799e-08
7.15899e-08
7.03179e-08
6.88762e-08
6.7236e-08
6.5457e-08
6.36682e-08
6.20273e-08
6.06753e-08
5.97029e-08
5.91383e-08
5.89533e-08
5.90797e-08
5.33147e-07
5.04971e-07
4.76048e-07
4.45681e-07
4.12996e-07
3.79325e-07
3.46346e-07
3.15636e-07
2.89389e-07
2.71621e-07
2.63528e-07
2.45087e-07
1.91194e-07
1.83013e-07
1.6714e-07
1.52727e-07
1.3945e-07
2.19399e-07
1.14716e-07
1.19868e-07
1.11055e-07
1.0264e-07
9.46744e-08
8.72263e-08
8.03695e-08
7.41722e-08
6.86814e-08
6.389e-08
7.40938e-08
1.41346e-07
6.67004e-08
6.48853e-08
6.44982e-08
6.20376e-08
5.99175e-08
5.81082e-08
5.65247e-08
5.50653e-08
5.36506e-08
5.22321e-08
5.07935e-08
4.9358e-08
4.79787e-08
4.67222e-08
4.56499e-08
4.48035e-08
4.41977e-08
4.38185e-08
4.36245e-08
4.35505e-08
6.13545e-07
5.76031e-07
5.38423e-07
5.0331e-07
4.62905e-07
4.19639e-07
3.76618e-07
3.36159e-07
2.99042e-07
2.65111e-07
2.34642e-07
2.10236e-07
1.95168e-07
1.76396e-07
1.60515e-07
1.46669e-07
1.33601e-07
1.19662e-07
1.13391e-07
1.06013e-07
9.82284e-08
9.0936e-08
8.40672e-08
7.76058e-08
7.15803e-08
6.60614e-08
6.11721e-08
5.70267e-08
5.35234e-08
5.04477e-08
9.54375e-08
4.43761e-08
5.06501e-08
4.8246e-08
4.6147e-08
4.4356e-08
4.27844e-08
4.13311e-08
3.99508e-08
3.86361e-08
3.7391e-08
3.62342e-08
3.51916e-08
3.42886e-08
3.35442e-08
3.29672e-08
3.25546e-08
3.22892e-08
3.21351e-08
3.20342e-08
6.85964e-07
6.42807e-07
5.84714e-07
5.50075e-07
5.03599e-07
4.52273e-07
4.00779e-07
3.53061e-07
3.1061e-07
2.73106e-07
2.3982e-07
2.10508e-07
1.85357e-07
1.64591e-07
1.48294e-07
1.36434e-07
1.28916e-07
1.256e-07
9.66321e-08
9.20466e-08
8.49449e-08
7.8579e-08
7.27772e-08
6.73797e-08
6.22094e-08
5.71359e-08
5.23782e-08
4.85992e-08
4.58619e-08
4.31606e-08
4.05371e-08
4.23046e-08
3.97943e-08
3.73849e-08
3.52834e-08
3.35656e-08
3.21222e-08
3.08112e-08
2.95886e-08
2.8463e-08
2.7436e-08
2.65146e-08
2.5707e-08
2.50194e-08
2.44555e-08
2.40158e-08
2.36972e-08
2.3491e-08
2.33786e-08
2.33274e-08
6.8422e-07
6.82704e-07
5.75152e-07
5.53789e-07
5.01817e-07
4.46484e-07
3.9239e-07
3.43036e-07
2.99363e-07
2.60706e-07
2.26213e-07
1.95546e-07
1.68676e-07
1.4549e-07
1.25669e-07
1.08771e-07
9.43494e-08
1.58205e-07
7.27291e-08
7.71911e-08
7.05178e-08
6.49494e-08
6.03881e-08
5.66211e-08
5.30579e-08
4.87945e-08
4.38457e-08
4.01834e-08
3.87031e-08
3.69461e-08
3.51609e-08
3.31429e-08
3.08597e-08
2.85408e-08
2.65316e-08
2.49866e-08
2.3767e-08
2.26784e-08
2.16697e-08
2.07572e-08
1.9937e-08
1.92081e-08
1.85695e-08
1.80193e-08
1.75544e-08
1.71711e-08
1.68653e-08
1.66343e-08
1.64778e-08
1.63994e-08
5.88683e-07
6.90441e-07
4.70986e-07
5.00156e-07
4.46656e-07
3.9496e-07
3.47253e-07
3.0437e-07
2.66006e-07
2.31616e-07
2.00941e-07
1.73967e-07
1.5064e-07
1.30701e-07
1.13726e-07
9.92348e-08
8.6778e-08
7.5955e-08
7.08934e-08
6.3096e-08
5.6489e-08
5.11414e-08
4.72307e-08
4.47384e-08
4.27395e-08
3.92993e-08
3.39104e-08
2.98739e-08
2.90516e-08
2.76518e-08
2.62777e-08
2.47075e-08
2.28819e-08
2.09982e-08
1.93682e-08
1.81292e-08
1.71598e-08
1.62972e-08
1.55031e-08
1.47908e-08
1.41541e-08
1.35893e-08
1.30935e-08
1.26647e-08
1.23019e-08
1.20049e-08
1.17743e-08
1.16114e-08
1.15179e-08
1.14961e-08
5.56636e-07
4.97693e-07
4.68135e-07
4.19973e-07
3.7535e-07
3.3422e-07
2.96206e-07
2.61041e-07
2.28807e-07
1.99815e-07
1.74289e-07
1.5217e-07
1.33143e-07
1.16773e-07
1.0262e-07
9.0307e-08
7.95444e-08
7.01187e-08
6.18674e-08
5.46557e-08
4.83655e-08
4.28961e-08
3.81674e-08
3.41186e-08
3.06967e-08
2.78307e-08
2.54003e-08
2.32628e-08
2.13532e-08
1.96839e-08
1.82136e-08
1.69091e-08
1.5741e-08
1.46835e-08
1.37207e-08
1.2848e-08
1.20652e-08
1.13681e-08
1.07476e-08
1.01953e-08
9.7057e-09
9.27491e-09
8.90029e-09
8.58015e-09
8.31368e-09
8.10085e-09
7.94243e-09
7.83994e-09
7.79551e-09
7.81185e-09
4.97124e-07
4.53151e-07
4.13437e-07
3.76707e-07
3.40758e-07
3.04939e-07
2.7001e-07
2.37438e-07
2.08417e-07
1.8325e-07
1.61493e-07
1.42527e-07
1.25876e-07
1.11201e-07
9.82076e-08
8.6634e-08
7.62987e-08
6.71117e-08
5.90224e-08
5.19443e-08
4.57475e-08
4.03014e-08
3.55073e-08
3.13014e-08
2.76389e-08
2.44745e-08
2.17533e-08
1.94146e-08
1.74014e-08
1.56645e-08
1.41621e-08
1.28587e-08
1.17247e-08
1.07354e-08
9.87044e-09
9.11297e-09
8.44884e-09
7.86615e-09
7.35503e-09
6.90741e-09
6.51693e-09
6.17872e-09
5.88921e-09
5.64592e-09
5.44729e-09
5.29261e-09
5.18183e-09
5.11549e-09
5.09461e-09
5.12053e-09
4.8891e-07
4.63068e-07
4.40654e-07
4.03901e-07
3.56331e-07
3.11274e-07
2.72653e-07
2.42399e-07
2.18634e-07
1.97128e-07
1.76357e-07
1.57204e-07
1.40493e-07
1.2608e-07
1.13139e-07
1.00869e-07
8.90465e-08
7.81486e-08
6.86345e-08
6.04357e-08
5.32058e-08
4.66439e-08
4.06184e-08
3.51472e-08
3.03111e-08
2.6147e-08
2.26008e-08
1.95781e-08
1.69976e-08
1.47984e-08
1.29307e-08
1.13487e-08
1.001e-08
8.87682e-09
7.91634e-09
7.1006e-09
6.40634e-09
5.81447e-09
5.30943e-09
4.87868e-09
4.51215e-09
4.20187e-09
3.94152e-09
3.7262e-09
3.55209e-09
3.41637e-09
3.317e-09
3.25264e-09
3.22252e-09
3.2263e-09
6.78215e-07
8.18884e-07
1.00609e-06
4.50424e-07
3.38645e-07
3.20199e-07
3.1634e-07
3.28405e-07
3.32315e-07
2.88362e-07
2.48241e-07
2.21682e-07
2.06618e-07
1.96776e-07
1.85647e-07
1.68229e-07
1.45003e-07
1.24532e-07
1.09611e-07
9.821e-08
8.80809e-08
7.79255e-08
6.7408e-08
5.70479e-08
4.78309e-08
4.02578e-08
3.4036e-08
2.87683e-08
2.42461e-08
2.03842e-08
1.71248e-08
1.43991e-08
1.21346e-08
1.02644e-08
8.72556e-09
7.45897e-09
6.41563e-09
5.55473e-09
4.84292e-09
4.25323e-09
3.76426e-09
3.35913e-09
3.02464e-09
2.75037e-09
2.52802e-09
2.35082e-09
2.2132e-09
2.11062e-09
2.03945e-09
1.99687e-09
2.87214e-06
2.89237e-06
5.63364e-07
4.36771e-07
3.84742e-07
3.27499e-07
1.19034e-06
2.77757e-06
1.00138e-06
3.95475e-07
3.70047e-07
3.91037e-07
4.33956e-07
4.88674e-07
5.34534e-07
4.77358e-07
3.22827e-07
2.57318e-07
2.32513e-07
2.20406e-07
2.09238e-07
1.92526e-07
1.66185e-07
1.33357e-07
1.062e-07
8.8166e-08
7.46653e-08
6.30679e-08
5.26782e-08
4.35751e-08
3.58168e-08
2.92594e-08
2.37504e-08
1.9248e-08
1.5628e-08
1.27141e-08
1.03837e-08
8.52253e-09
7.03536e-09
5.84216e-09
4.8795e-09
4.09805e-09
3.46063e-09
2.93998e-09
2.51619e-09
2.17399e-09
1.90073e-09
1.68549e-09
1.51882e-09
1.39273e-09
6.19043e-06
2.08425e-06
4.56109e-07
4.21954e-07
4.11442e-07
2.03814e-06
5.36557e-06
5.32925e-06
6.46102e-07
4.3241e-07
4.09421e-07
4.06224e-07
4.40151e-07
2.29952e-06
5.43408e-06
2.22202e-06
4.58655e-07
4.90782e-07
5.10285e-07
5.50524e-07
6.11062e-07
6.62858e-07
5.97028e-07
3.77764e-07
2.6478e-07
2.23526e-07
1.96797e-07
1.71037e-07
1.44307e-07
1.20515e-07
1.00604e-07
8.27149e-08
6.55216e-08
5.18635e-08
4.10941e-08
3.23171e-08
2.53988e-08
1.99985e-08
1.58304e-08
1.26167e-08
1.01313e-08
8.18993e-09
6.64783e-09
5.40033e-09
4.37992e-09
3.54579e-09
2.86978e-09
2.328e-09
1.89927e-09
1.5643e-09
3.35262e-07
3.05932e-07
3.69233e-07
3.5526e-07
3.16797e-07
3.32768e-07
3.36695e-07
3.40625e-07
3.46114e-07
3.56599e-07
6.41609e-07
4.39496e-07
5.13592e-07
5.5954e-07
5.94733e-07
6.16057e-07
6.76934e-07
7.22577e-07
9.09616e-07
1.62942e-06
1.17695e-06
4.76725e-07
5.18826e-07
5.64665e-07
5.86452e-07
6.06085e-07
6.63485e-07
8.58243e-07
6.31676e-07
6.96455e-07
1.42681e-06
4.93949e-07
7.03291e-07
8.25e-07
8.89115e-07
9.50951e-07
8.83365e-07
8.52767e-07
8.2345e-07
1.14363e-06
1.55239e-06
1.29813e-06
6.79136e-07
5.97625e-07
6.27224e-07
6.76259e-07
6.82682e-07
1.23115e-06
2.02118e-06
2.02106e-06
1.3653e-06
5.83746e-07
5.51321e-07
5.51537e-07
5.65722e-07
9.68795e-07
2.11365e-06
2.26361e-06
2.22873e-06
7.93465e-07
5.00145e-07
4.63354e-07
4.57727e-07
4.6353e-07
9.64042e-07
2.43079e-06
2.42755e-06
1.783e-06
5.09927e-07
4.39269e-07
4.48971e-07
4.90548e-07
1.50052e-06
2.74126e-06
2.74552e-06
2.06288e-06
5.0818e-07
4.53776e-07
4.55107e-07
4.63863e-07
1.01061e-06
2.58223e-06
3.26463e-06
3.26302e-06
1.54257e-06
4.70048e-07
4.25409e-07
4.2403e-07
4.22703e-07
4.37241e-07
6.01e-07
2.23469e-06
3.21852e-06
3.15101e-06
1.11839e-06
5.00977e-07
5.09675e-07
1.40278e-06
2.74585e-06
2.7456e-06
1.2924e-06
5.26069e-07
5.33747e-07
5.70336e-07
1.69855e-06
2.5302e-06
1.16601e-06
2.74181e-06
3.77159e-06
3.77137e-06
1.83728e-06
5.55282e-07
5.12634e-07
4.90683e-07
8.03311e-07
2.51515e-06
2.8091e-06
2.50026e-06
6.64646e-07
5.43312e-07
1.46789e-06
2.32925e-06
1.89165e-06
5.88345e-07
6.74904e-07
2.00599e-06
3.77413e-06
3.77595e-06
1.69793e-06
1.06534e-06
1.15916e-06
1.39942e-06
1.08381e-06
1.22726e-06
1.60241e-06
1.95644e-06
3.42229e-06
3.3617e-06
1.47833e-06
1.55307e-06
1.22979e-06
1.40135e-06
1.35578e-06
2.38628e-06
1.34108e-06
1.32076e-06
1.24727e-06
1.20494e-06
1.37211e-06
1.80377e-06
8.75234e-06
5.17852e-06
1.41948e-06
1.32843e-06
1.3361e-06
2.64427e-06
1.12186e-05
5.62792e-06
1.26901e-06
9.98468e-07
9.95853e-07
9.76324e-07
9.72867e-07
3.33799e-06
1.00941e-05
1.02799e-05
6.62927e-06
1.36748e-06
7.12087e-07
7.09341e-07
6.87882e-07
8.74213e-07
6.8576e-07
6.84089e-07
6.75411e-07
6.72176e-07
6.71022e-07
6.71011e-07
1.96719e-06
1.44007e-05
1.942e-05
1.93608e-05
1.39781e-05
4.70658e-06
1.75237e-06
6.14824e-07
5.10172e-07
4.63596e-07
4.44575e-07
4.31279e-07
4.28408e-07
9.34633e-07
7.4726e-06
1.11034e-05
1.11006e-05
1.11018e-05
5.83945e-06
8.37461e-07
3.78707e-07
3.76056e-07
4.23543e-07
1.38089e-06
9.24538e-07
3.16536e-07
3.09799e-07
3.08277e-07
3.04369e-07
3.03687e-07
4.00341e-07
3.76037e-06
6.57171e-06
6.59234e-06
2.30227e-06
3.27964e-07
2.98107e-07
2.91572e-07
2.83055e-07
2.7977e-07
3.62294e-07
4.01285e-07
3.57305e-07
3.57291e-07
3.60401e-07
1.95438e-06
2.49856e-06
2.51253e-06
1.12606e-06
2.93104e-07
3.04787e-07
3.25018e-07
3.42273e-07
3.58307e-07
3.07518e-07
3.03202e-07
3.18616e-07
2.8819e-06
6.41029e-06
6.41018e-06
3.98611e-06
7.73806e-07
2.71633e-07
2.68982e-07
2.66359e-07
2.65394e-07
2.65495e-07
1.33386e-06
4.6971e-06
4.76582e-06
3.95077e-06
1.10522e-06
3.26486e-07
3.23458e-07
3.23394e-07
3.41039e-07
4.95667e-07
3.99052e-07
3.24411e-07
6.68581e-07
4.68049e-06
3.84948e-06
1.25517e-06
4.40436e-07
4.37349e-07
4.37608e-07
1.80263e-06
3.58965e-06
1.71718e-06
4.42083e-07
4.36466e-07
4.36445e-07
4.36439e-07
4.36439e-07
1.13659e-06
1.62364e-06
1.63562e-06
7.71642e-07
4.41127e-07
4.38995e-07
6.06556e-07
9.16118e-06
2.51347e-05
1.73993e-05
4.13381e-06
5.52348e-07
9.27534e-07
4.79551e-06
1.0696e-05
4.18843e-06
1.14502e-06
4.55168e-06
9.91308e-06
4.17013e-06
6.83132e-07
5.71881e-07
1.43034e-06
5.12238e-06
3.57007e-06
8.55792e-07
5.22473e-07
2.53723e-06
2.9796e-07
2.95827e-07
2.96004e-07
2.99372e-07
3.04561e-07
3.09526e-07
3.14357e-07
3.212e-07
3.32176e-07
3.49963e-07
3.77179e-07
4.38522e-07
4.84501e-07
5.25387e-07
5.49375e-07
5.61028e-07
6.67644e-07
5.49787e-07
7.16015e-07
1.61929e-06
9.89956e-07
3.45014e-07
4.33734e-07
4.64935e-07
4.89122e-07
5.1493e-07
5.38147e-07
5.57565e-07
6.31911e-07
6.95767e-07
1.41551e-06
3.53335e-07
4.5036e-07
5.36766e-07
5.67604e-07
5.90458e-07
1.44451e-06
1.47596e-06
1.1574e-06
5.17655e-07
4.6946e-07
4.62707e-07
4.7233e-07
4.62508e-07
4.0376e-07
1.18308e-06
1.88981e-06
1.86852e-06
5.02299e-07
3.72908e-07
3.62344e-07
3.63022e-07
3.59833e-07
3.6644e-07
1.60744e-06
2.81827e-06
2.75266e-06
7.69727e-07
3.84758e-07
3.44853e-07
3.29871e-07
3.2649e-07
3.49322e-07
4.76701e-07
1.72562e-06
2.42973e-06
1.20836e-06
3.36265e-07
3.21333e-07
3.20486e-07
3.94895e-07
1.84152e-06
2.74443e-06
2.67593e-06
6.47359e-07
3.25953e-07
3.22023e-07
3.21094e-07
3.27261e-07
1.31694e-06
3.47574e-06
3.68845e-06
1.79783e-06
3.72768e-07
3.2073e-07
3.06874e-07
2.99274e-07
2.9417e-07
3.0223e-07
4.22597e-07
2.19711e-06
3.21984e-06
2.98684e-06
6.33502e-07
4.20955e-07
3.71367e-07
8.47185e-07
2.29259e-06
2.74588e-06
1.21591e-06
4.22456e-07
3.94236e-07
3.82295e-07
3.61385e-07
5.772e-07
2.97755e-06
4.49901e-06
4.43474e-06
1.39976e-06
4.2775e-07
3.98084e-07
3.95671e-07
3.93597e-07
3.57518e-07
7.67584e-07
2.21655e-06
2.81619e-06
1.67992e-06
4.85128e-07
4.62379e-07
8.97917e-07
1.26822e-06
4.57254e-07
6.66967e-07
1.94102e-06
3.69043e-06
3.7756e-06
3.53617e-06
1.0984e-06
7.70362e-07
7.0559e-07
1.21008e-06
6.65994e-07
9.14638e-07
2.74584e-06
2.89504e-06
2.12053e-06
1.23317e-06
1.12207e-06
1.7178e-06
1.15341e-06
1.7339e-06
2.3168e-06
1.30859e-06
1.58449e-06
1.17635e-06
1.17042e-06
1.26378e-06
2.16262e-06
1.81271e-06
1.19239e-06
1.49689e-06
1.3176e-06
1.28821e-06
1.42634e-06
4.21928e-06
3.87495e-06
1.44817e-06
1.24218e-06
1.39419e-06
8.81536e-07
9.47305e-07
1.02363e-06
5.40978e-06
1.01064e-05
7.58252e-06
2.21933e-06
7.62438e-07
7.57635e-07
7.59958e-07
7.31453e-07
7.01381e-07
9.87633e-07
1.38869e-06
6.80358e-07
6.71117e-07
6.7105e-07
6.71004e-07
6.70979e-07
6.70979e-07
1.08658e-06
9.90982e-06
2.57881e-05
2.57976e-05
2.57836e-05
1.35976e-05
2.17821e-06
4.33588e-07
4.29025e-07
4.28971e-07
4.28394e-07
4.2805e-07
4.28055e-07
4.67709e-06
9.3844e-06
3.7308e-06
5.46113e-07
3.77482e-07
3.76049e-07
3.76046e-07
4.42114e-07
2.62485e-06
9.10743e-06
6.57278e-06
1.46642e-06
3.129e-07
3.12508e-07
3.04557e-07
3.03549e-07
3.25576e-07
2.73279e-06
9.80146e-06
9.95241e-06
9.71162e-06
3.71255e-06
4.66315e-07
2.82198e-07
2.80577e-07
2.80579e-07
4.99608e-07
1.3986e-06
1.92725e-06
9.38272e-07
3.3188e-07
3.26497e-07
3.2644e-07
3.2458e-07
1.89128e-06
6.84107e-06
6.96838e-06
6.04335e-06
1.84213e-06
3.11185e-07
3.03091e-07
3.02783e-07
3.03605e-07
4.06609e-07
3.14909e-06
1.04519e-05
1.05412e-05
9.97781e-06
3.62849e-06
4.40752e-07
2.668e-07
2.65515e-07
2.65947e-07
3.12003e-07
2.15891e-06
5.14694e-06
5.14168e-06
4.29482e-06
1.21946e-06
3.26189e-07
3.23088e-07
3.24397e-07
3.22927e-07
3.2291e-07
3.82791e-07
4.58954e-06
2.25837e-05
2.40026e-05
9.99598e-06
1.5334e-06
4.39408e-07
4.36745e-07
4.42301e-07
4.41806e-07
4.37444e-07
4.36436e-07
4.38573e-07
1.64384e-06
1.41219e-06
4.68167e-07
4.39129e-07
4.38972e-07
4.38938e-07
4.38926e-07
4.38973e-07
1.11312e-06
1.373e-05
2.51419e-05
2.51348e-05
1.88356e-05
4.31477e-06
9.91533e-07
5.42045e-06
1.08322e-05
1.08281e-05
1.08303e-05
6.48196e-06
1.14858e-06
5.73145e-07
5.7163e-07
5.71654e-07
2.14364e-06
5.10643e-06
4.70363e-06
1.30311e-06
1.0513e-06
5.32007e-06
2.53373e-07
2.56383e-07
2.59859e-07
2.63667e-07
2.67894e-07
2.72792e-07
2.78798e-07
2.86676e-07
2.97719e-07
3.1384e-07
3.37059e-07
3.67826e-07
4.03071e-07
4.36908e-07
4.57882e-07
5.71003e-07
4.17635e-07
4.92972e-07
7.14272e-07
7.13719e-07
2.64856e-07
3.19586e-07
3.51303e-07
3.7403e-07
3.95202e-07
4.1528e-07
4.34445e-07
4.61173e-07
5.17928e-07
6.0944e-07
1.14262e-06
2.93567e-07
3.72277e-07
4.36978e-07
4.91168e-07
4.99188e-07
1.138e-06
1.4743e-06
2.69533e-07
3.5037e-07
3.6314e-07
3.89488e-07
4.22599e-07
4.65443e-07
3.90886e-07
3.39483e-07
1.10565e-06
1.56461e-06
2.44157e-07
2.83825e-07
3.07526e-07
3.1952e-07
3.34609e-07
3.43376e-07
1.12781e-06
2.81005e-06
1.87175e-06
2.9108e-07
3.06546e-07
2.90622e-07
2.83255e-07
2.90153e-07
3.00655e-07
3.15151e-07
3.47331e-07
1.05407e-06
1.27793e-06
2.44162e-07
2.98009e-07
2.87432e-07
3.26909e-07
4.31964e-07
1.61527e-06
2.57227e-06
3.15748e-07
2.52656e-07
2.87288e-07
3.12962e-07
3.1832e-07
6.24764e-07
2.27028e-06
3.67389e-06
4.41977e-07
2.68758e-07
2.58238e-07
2.50781e-07
2.51221e-07
2.55495e-07