/*--------------------------------*- C++ -*----------------------------------*\
| =========                 |                                                 |
| \\      /  F ield         | OpenFOAM: The Open Source CFD Toolbox           |
|  \\    /   O peration     | Version:  2.4.0                                 |
|   \\  /    A nd           | Web:      www.OpenFOAM.org                      |
|    \\/     M anipulation  |                                                 |
\*---------------------------------------------------------------------------*/
FoamFile
{
    version     2.0;
    format      ascii;
    class       volScalarField;
    location    "2.8";
    object      H;
}
// * * * * * * * * * * * * * * * * * * * * * * * * * * * * * * * * * * * * * //

dimensions      [0 2 -2 0 0 0 0];

internalField   nonuniform List<scalar> 
8000
(
-11731.1
-10742.2
-9778.18
-8853.09
-7978.48
-7163.2
-6413.34
-5732.39
-5121.26
-4578.71
-4101.77
-3686.08
-3326.39
-3016.89
-2751.63
-2524.72
-2330.59
-2164.07
-2020.54
-1895.87
-1786.47
-1689.25
-1601.52
-1521.01
-1445.8
-1374.24
-1304.98
-1236.89
-1169.08
-1100.88
-1031.79
-961.553
-890.07
-817.439
-743.931
-669.977
-596.148
-523.14
-451.75
-382.854
-317.352
-256.135
-199.987
-149.585
-105.672
-68.2287
-38.2816
-15.0409
-0.139301
-0.00143534
-11773
-10866.9
-9983.32
-9134.59
-8330.61
-7578.8
-6884.12
-6249.18
-5674.59
-5159.12
-4700.23
-4294.33
-3937.12
-3623.95
-3349.98
-3110.48
-2900.87
-2716.89
-2554.59
-2410.39
-2281.05
-2163.67
-2055.68
-1954.76
-1858.91
-1766.37
-1675.63
-1585.43
-1494.72
-1402.8
-1309.16
-1213.55
-1115.96
-1016.65
-916.103
-815.058
-714.446
-615.38
-519.113
-426.967
-340.188
-260.31
-188.08
-124.181
-72.4391
-25.6652
-0.262684
-0.00363785
-7.50676e-05
-0.00293706
-11815.3
-10993
-10190.1
-9417.3
-8682.83
-7992.86
-7351.41
-6760.63
-6220.98
-5731.54
-5290.33
-4894.55
-4540.88
-4225.64
-3945.02
-3695.16
-3472.33
-3272.93
-3093.51
-2930.86
-2781.96
-2644.01
-2514.42
-2390.85
-2271.2
-2153.61
-2036.49
-1918.54
-1798.76
-1676.43
-1551.16
-1422.88
-1291.84
-1158.61
-1024.08
-889.436
-756.203
-626.056
-501.076
-383.395
-273.657
-178.058
-89.7974
-5.43684
-0.0626444
-0.00231962
-4.9828e-05
-0.000382473
-0.000556024
-0.000636293
-11854.6
-11109.8
-10381.4
-9678.23
-9007.25
-8373.58
-7780.6
-7230.19
-6722.88
-6258.13
-5834.5
-5449.9
-5101.76
-4787.16
-4503
-4246.06
-4013.07
-3800.81
-3606.07
-3425.79
-3256.99
-3096.88
-2942.85
-2792.49
-2643.69
-2494.58
-2343.63
-2189.66
-2031.83
-1869.7
-1703.2
-1532.67
-1358.83
-1182.81
-1006.13
-830.664
-659.135
-492.869
-337.91
-198.11
-55.9477
-0.602952
-0.0123683
-0.00054868
-0.00187963
-0.00129595
-0.00083711
-0.000507556
-1.58376e-05
1.05549e-06
-11889
-11212.1
-10549
-9907.06
-9292.16
-8708.56
-8159.19
-7645.72
-7168.77
-6728.03
-6322.45
-5950.4
-5609.76
-5298.06
-5012.55
-4750.29
-4508.22
-4283.21
-4072.11
-3871.84
-3679.41
-3491.99
-3306.96
-3121.97
-2935.01
-2744.4
-2548.91
-2347.71
-2140.45
-1927.21
-1708.58
-1485.58
-1259.68
-1032.8
-807.684
-585.389
-377.212
-160.094
-1.69135
-0.0311112
-0.00451171
-0.00503013
-0.00277258
-0.00177641
-4.52997e-05
-1.11015e-06
8.87734e-06
7.23079e-05
0.000223681
0.000777464
-11917.9
-11298
-10689.9
-10100
-9533.04
-8992.81
-8481.78
-8001.43
-7552.3
-7134.13
-6746.01
-6386.39
-6053.29
-5744.3
-5456.68
-5187.48
-4933.57
-4691.72
-4458.71
-4231.4
-4006.78
-3782.1
-3554.89
-3323.09
-3085.05
-2839.64
-2586.24
-2324.81
-2055.84
-1780.4
-1500.06
-1217.1
-933.423
-652.362
-382.75
-89.8138
-0.970348
-0.0230593
-0.00685858
-0.00456682
-0.00359011
-0.000101065
6.27856e-06
9.04926e-05
0.000180696
0.000625401
0.00372756
0.0299558
0.0574223
0.0867038
-11941.6
-11368.6
-10805.9
-10259
-9732.02
-9228.19
-8749.6
-8297.44
-7872.02
-7472.89
-7098.92
-6748.4
-6419.09
-6108.35
-5813.19
-5530.4
-5256.63
-4988.53
-4722.79
-4456.3
-4186.24
-3910.17
-3626.11
-3332.63
-3028.92
-2714.81
-2390.82
-2058.14
-1718.6
-1374.86
-1028.78
-689.036
-336.539
-3.41685
-0.062059
-0.00923523
-0.0189711
-0.0111367
-0.000481372
-1.59264e-05
0.000166318
0.000688823
0.0046532
0.0382359
0.0691275
0.0984017
0.126518
0.153363
0.178615
0.201977
-11961
-11426.2
-10900.5
-10388.6
-9894.37
-9420.27
-8968
-8538.28
-8130.97
-7745.16
-7379.24
-7031
-6697.74
-6376.35
-6063.49
-5755.63
-5449.26
-5140.97
-4827.63
-4506.45
-4175.15
-3832.02
-3476.03
-3106.92
-2725.16
-2332.06
-1929.68
-1521.24
-1109.39
-703.837
-275.662
-2.63878
-0.0565096
-0.00130491
-0.00627157
-0.000384252
0.000301912
0.000849177
0.000952965
0.00625925
0.0506038
0.0905349
0.126491
0.15896
0.188038
0.213882
0.236662
0.2565
0.273496
0.287745
-11977.2
-11474.5
-10979.9
-10497.5
-10030.3
-9580.28
-9148.45
-8734.84
-8338.63
-7958.2
-7591.26
-7234.97
-6886.06
-6541
-6196.13
-5847.82
-5492.67
-5127.62
-4750.08
-4358.12
-3950.46
-3526.65
-3087.14
-2633.32
-2167.39
-1692.45
-1211.91
-736.614
-243.513
-2.43921
-0.0566887
-0.038
-0.00225293
0.000993935
0.00391351
0.00627892
0.047745
0.0860602
0.121221
0.153442
0.183323
0.210641
0.235269
0.257138
0.276215
0.292511
0.306074
0.316986
0.325358
0.331317
-11991.4
-11516.5
-11048.5
-10590.5
-10144.8
-9712.53
-9293.74
-8887.61
-8492.47
-8105.88
-7724.83
-7345.89
-6965.4
-6579.61
-6184.91
-5778.01
-5356.08
-4917
-4459.39
-3982.75
-3487.26
-2973.5
-2444.9
-1905.23
-1359.37
-817.219
-262.011
-2.69343
-0.0657141
-0.0726792
-0.0409792
-0.0176732
0.00284327
0.0395936
0.0732906
0.105776
0.136378
0.165621
0.193323
0.218993
0.242283
0.263124
0.281508
0.297436
0.310927
0.322017
0.330761
0.337228
0.341506
0.34369
-12003.4
-11552
-11105.3
-10665.5
-10233.7
-9810.01
-9393.47
-8982.31
-8573.99
-8165.35
-7752.84
-7332.72
-6901.28
-6455.07
-5991.07
-5506.95
-5001.21
-4473.4
-3924.19
-3355.33
-2769.4
-2169.74
-1561.01
-952.619
-344.425
-3.51125
-0.0894561
-0.0934268
-0.0497357
-0.017875
0.0122949
0.0408341
0.0686544
0.0957066
0.121406
0.146504
0.17096
0.194453
0.216705
0.237467
0.256569
0.273912
0.289407
0.302978
0.314567
0.324133
0.331654
0.337127
0.340568
0.342015
-12012.2
-11577.3
-11144.5
-10714.2
-10286.2
-9859.48
-9431.95
-9000.95
-8563.23
-8115.21
-7653.22
-7173.72
-6673.59
-6150.38
-5602.58
-5029.71
-4432.42
-3812.57
-3173.21
-2518.44
-1851.94
-1176.68
-506.062
-4.94935
-0.122192
-0.140173
-0.0978089
-0.0695787
-0.0399776
-0.00984973
0.0202732
0.0496489
0.0778961
0.104872
0.130497
0.154769
0.177614
0.198992
0.218944
0.237491
0.25462
0.270286
0.284421
0.296939
0.307753
0.316776
0.323933
0.329167
0.332441
0.333743
-12016
-11587.7
-11157.9
-10725.5
-10288.6
-9844.84
-9391.22
-8924.36
-8440.65
-7936.53
-7408.75
-6854.65
-6272.41
-5661.3
-5021.8
-4355.7
-3666.08
-2957.4
-2235.55
-1505.72
-761.379
-7.08779
-0.16009
-0.435871
-0.425981
-0.407625
-0.347041
-0.265261
-0.180945
-0.104668
-0.0405961
0.0116479
0.0541374
0.089241
0.119155
0.145458
0.169201
0.190988
0.211135
0.229766
0.24689
0.26245
0.276365
0.28854
0.298887
0.307329
0.313804
0.318272
0.320715
0.321144
-12013.3
-11578.1
-11137.8
-10689
-10228.4
-9752.27
-9256.88
-8738.42
-8193.33
-7618.55
-7011.83
-6371.98
-5699.13
-4994.82
-4262.13
-3505.5
-2730.54
-1944.44
-1160.23
-393.611
-4.57792
-0.216459
-0.194589
-0.202576
-0.205115
-0.19649
-0.177704
-0.151482
-0.120294
-0.0862098
-0.0508079
-0.0152139
0.0197921
0.0536721
0.0860464
0.116641
0.145237
0.171689
0.195866
0.21769
0.237099
0.254054
0.268547
0.280586
0.290195
0.297418
0.302307
0.304944
0.305413
0.303829
-12003.5
-11547.2
-11082.1
-10602.9
-10104.5
-9582.31
-9031.87
-8449.29
-7831.45
-7176.28
-6483.05
-5752.59
-4987.48
-4192.08
-3372.48
-2535.37
-1684.59
-819.684
-7.81265
-0.245339
-0.378527
-0.490899
-0.591145
-0.645593
-0.653795
-0.62226
-0.560921
-0.480723
-0.391621
-0.301422
-0.215451
-0.136794
-0.0668073
-0.00567471
0.0471064
0.0923644
0.131016
0.163922
0.191828
0.215343
0.234954
0.251024
0.263868
0.273722
0.280795
0.28528
0.287336
0.287163
0.284928
0.280818
-11986.2
-11494.4
-10990.2
-10466.5
-9916.96
-9335.85
-8718.35
-8060.73
-7360.61
-6617.27
-5831.92
-5007.83
-4150.51
-3267.9
-2371.66
-1479.84
-620.93
-7.38468
-5.7101
-3.31713
-2.24201
-1.53051
-1.07712
-0.799189
-0.627298
-0.512828
-0.426521
-0.353033
-0.285425
-0.221213
-0.159935
-0.101888
-0.047548
0.00266047
0.0484312
0.0895857
0.126058
0.157876
0.185151
0.208048
0.226793
0.241637
0.252858
0.260752
0.265608
0.267736
0.267426
0.264966
0.26062
0.254656
-11961.7
-11419.7
-10862.2
-10280.2
-9666.27
-9013.93
-8318.33
-7576.34
-6786.95
-5951.56
-5074.32
-4162.27
-3225.25
-2274.84
-1318.76
-331.55
-6.33162
-5.03632
-4.26388
-3.7856
-3.29342
-2.81489
-2.36824
-1.96278
-1.60226
-1.28703
-1.01531
-0.783938
-0.589015
-0.426273
-0.291368
-0.18015
-0.0888366
-0.0141084
0.0468609
0.096413
0.136474
0.168596
0.194033
0.213787
0.228683
0.239398
0.246501
0.250486
0.251784
0.250778
0.247813
0.243198
0.237213
0.23011
-11929.9
-11323
-10697.3
-10042.4
-9349.66
-8612.36
-7826.04
-6988.88
-6101.97
-5169.29
-4196.86
-3189.91
-2148.2
-1071.14
-10.2467
-0.532085
-0.774305
-1.11272
-1.3727
-1.54474
-1.62959
-1.63374
-1.56937
-1.45219
-1.29901
-1.12563
-0.945458
-0.768881
-0.603123
-0.452655
-0.319721
-0.20489
-0.1076
-0.0265935
0.0397593
0.093227
0.135568
0.168433
0.193318
0.211542
0.224263
0.232468
0.236995
0.23855
0.23772
0.234994
0.230779
0.22541
0.219161
0.212259
-11889.9
-11202
-10491.9
-9747.49
-8959.25
-8120.21
-7226.49
-6277.41
-5275.49
-4226.72
-3142.62
-2045.86
-978.399
-10.9998
-8.87939
-5.88885
-4.48616
-3.37833
-2.55336
-1.96846
-1.56522
-1.28573
-1.08232
-0.921446
-0.782662
-0.655434
-0.535615
-0.422574
-0.317219
-0.220823
-0.13442
-0.0585929
0.00658131
0.0614519
0.10668
0.143152
0.171847
0.193777
0.209937
0.221254
0.228551
0.232609
0.234065
0.23347
0.231289
0.227904
0.223607
0.218665
0.213275
0.207588
-11840.1
-11051.3
-10237.1
-9383.69
-8480.41
-7520.35
-6501.11
-5426.13
-4306.58
-3163.1
-2024.98
-923.958
-14.2195
-10.2808
-8.57912
-7.34912
-6.22741
-5.22175
-4.33628
-3.56973
-2.91556
-2.36339
-1.90078
-1.51493
-1.19385
-0.926882
-0.704998
-0.520683
-0.36777
-0.241222
-0.136907
-0.0514032
0.0181603
0.074217
0.118847
0.153879
0.180877
0.201202
0.216039
0.226389
0.233103
0.236953
0.238537
0.238365
0.236861
0.234348
0.231074
0.2273
0.22317
0.218817
-0.0123705
-0.016934
-0.0163658
-0.0130946
-0.00745359
-0.000245111
0.00343419
0.0343356
0.0639913
0.0929087
0.121063
0.148314
0.174384
0.199125
0.22241
0.244133
0.264212
0.282582
0.299203
0.314051
0.327127
0.338445
0.348043
0.355977
0.362318
0.367154
0.370587
0.372729
0.373705
0.373645
0.372685
0.370967
0.368632
0.365817
0.362651
0.359261
0.355757
0.352248
0.348829
0.345579
0.342575
0.339877
0.337532
0.335586
0.334068
0.333004
0.332404
0.332282
0.332637
0.333465
-0.00529778
-0.00641771
-0.00585133
-0.00350795
-3.36476e-05
0.00272931
0.0324357
0.0605579
0.0881268
0.115163
0.141441
0.166738
0.190771
0.21338
0.234428
0.253801
0.271407
0.28718
0.301078
0.313084
0.323208
0.33148
0.337958
0.342721
0.345866
0.347509
0.347778
0.346816
0.344774
0.341818
0.338114
0.333821
0.329093
0.324075
0.318903
0.313698
0.308572
0.30362
0.298926
0.294561
0.290581
0.287032
0.283949
0.281354
0.279262
0.277679
0.276604
0.276032
0.275946
0.276338
-0.000580061
-0.000349334
-6.85423e-06
0.000237587
0.00313705
0.0337531
0.0625582
0.0903623
0.117332
0.143295
0.168004
0.191261
0.212887
0.232768
0.25081
0.266939
0.281105
0.293282
0.303467
0.311686
0.317985
0.322436
0.325134
0.326191
0.325738
0.323919
0.32089
0.316813
0.311853
0.306193
0.300015
0.293477
0.286726
0.279897
0.273111
0.266476
0.260083
0.254011
0.248324
0.243072
0.238294
0.234018
0.230261
0.227028
0.224322
0.222132
0.220447
0.219248
0.218514
0.218222
2.04035e-05
0.000162057
0.00068579
0.00467733
0.0407644
0.0742105
0.105175
0.133834
0.160279
0.184522
0.206569
0.226422
0.244099
0.259612
0.272977
0.284219
0.293372
0.300485
0.305628
0.308884
0.310357
0.310167
0.308449
0.305348
0.301022
0.295632
0.289344
0.282325
0.274736
0.266754
0.258546
0.250246
0.241974
0.233837
0.225929
0.218329
0.2111
0.204297
0.19796
0.192119
0.186792
0.181989
0.177712
0.173956
0.170709
0.167954
0.16567
0.163834
0.162419
0.161396
0.00489522
0.0409616
0.0740637
0.104658
0.133033
0.159119
0.182941
0.204501
0.223816
0.24091
0.255814
0.268558
0.279174
0.287704
0.294198
0.298723
0.301361
0.302207
0.301376
0.298995
0.295203
0.290147
0.283984
0.276872
0.268967
0.260427
0.251399
0.242033
0.232498
0.222915
0.213394
0.204032
0.194913
0.186111
0.177683
0.169679
0.162136
0.15508
0.148529
0.142494
0.136976
0.131972
0.127472
0.12346
0.119921
0.116831
0.114167
0.111901
0.110007
0.108456
0.116216
0.144529
0.170732
0.194483
0.21567
0.234291
0.250443
0.264214
0.275681
0.284915
0.291992
0.296994
0.300015
0.301158
0.300539
0.298283
0.294529
0.289413
0.283087
0.275699
0.267398
0.258331
0.248677
0.238579
0.228172
0.217583
0.206927
0.196311
0.185829
0.175562
0.165583
0.155953
0.14672
0.137925
0.129598
0.121761
0.114428
0.107606
0.101295
0.0954909
0.0901834
0.0853593
0.081001
0.0770893
0.0736025
0.0705162
0.0678061
0.065446
0.0634097
0.0616711
0.223178
0.242035
0.258458
0.272428
0.283979
0.29317
0.300085
0.30482
0.307486
0.308203
0.307104
0.304328
0.300021
0.294335
0.287421
0.279432
0.270519
0.26083
0.250506
0.239685
0.228495
0.217059
0.205488
0.193887
0.18235
0.170962
0.159797
0.148921
0.138389
0.12825
0.118541
0.109292
0.100527
0.0922616
0.0845044
0.0772593
0.0705247
0.0642942
0.0585577
0.0533013
0.0485085
0.04416
0.0402351
0.0367113
0.0335651
0.0307728
0.0283096
0.026151
0.0242725
0.0226499
0.299347
0.308413
0.315063
0.31943
0.321655
0.321884
0.32027
0.316966
0.312126
0.305904
0.298452
0.289918
0.280446
0.270178
0.259247
0.247782
0.235906
0.223733
0.211371
0.198921
0.186475
0.174117
0.161923
0.149962
0.138295
0.126973
0.116043
0.105542
0.0954995
0.0859406
0.0768824
0.0683367
0.0603093
0.052802
0.0458115
0.0393305
0.0333482
0.0278508
0.0228217
0.0182423
0.0140921
0.0103494
0.0069913
0.00399439
0.00133488
-0.0010111
-0.00306728
-0.00485705
-0.00640325
-0.00772802
0.335003
0.336563
0.336148
0.333909
0.329997
0.324562
0.317749
0.309704
0.300567
0.290476
0.279565
0.267962
0.255793
0.243177
0.230228
0.217053
0.203754
0.190426
0.177155
0.164021
0.151096
0.138447
0.126129
0.114194
0.102684
0.0916346
0.0810751
0.0710283
0.0615101
0.052532
0.044099
0.0362117
0.028866
0.0220542
0.0157648
0.00998359
0.00469346
-0.000124736
-0.00449192
-0.00843042
-0.0119635
-0.0151153
-0.0179101
-0.0203723
-0.0225263
-0.0243959
-0.0260045
-0.0273748
-0.0285284
-0.0294861
0.343888
0.342215
0.33879
0.333741
0.327197
0.319292
0.31016
0.299939
0.288766
0.276775
0.264102
0.250875
0.237222
0.223264
0.209116
0.194885
0.180672
0.166572
0.152666
0.139033
0.125738
0.112842
0.100393
0.0884347
0.0770005
0.0661173
0.0558048
0.046076
0.0369379
0.0283922
0.0204353
0.0130593
0.00625216
-1.31423e-06
-0.00571933
-0.0109225
-0.0156332
-0.0198756
-0.0236748
-0.0270565
-0.030047
-0.0326727
-0.0349596
-0.0369333
-0.038619
-0.040041
-0.0412224
-0.0421856
-0.0429516
-0.0435403
0.34152
0.339159
0.335022
0.329216
0.321859
0.313084
0.303029
0.291841
0.27967
0.266667
0.252982
0.238764
0.224155
0.209292
0.194303
0.179309
0.16442
0.149734
0.135343
0.121323
0.107742
0.0946573
0.0821157
0.0701544
0.0588015
0.0480769
0.0379927
0.0285541
0.0197601
0.0116041
0.00407473
-0.00284339
-0.00916927
-0.0149248
-0.0201342
-0.0248233
-0.0290196
-0.0327512
-0.0360467
-0.0389349
-0.0414444
-0.0436033
-0.0454391
-0.0469784
-0.0482467
-0.0492685
-0.0500669
-0.0506637
-0.0510795
-0.0513333
0.333082
0.330502
0.326082
0.319925
0.31215
0.302896
0.292313
0.28056
0.267803
0.254211
0.239951
0.225186
0.210074
0.194764
0.179396
0.164097
0.148983
0.134158
0.11971
0.105718
0.0922449
0.0793439
0.067056
0.0554119
0.0444323
0.0341296
0.0245081
0.0155653
0.00729275
-0.000323221
-0.0073005
-0.0136606
-0.0194277
-0.0246286
-0.0292914
-0.0334455
-0.037121
-0.0403484
-0.0431578
-0.0455793
-0.0476423
-0.0493752
-0.0508055
-0.0519596
-0.0528626
-0.0535383
-0.0540088
-0.0542952
-0.0544169
-0.0543919
0.319587
0.316107
0.310797
0.303787
0.295215
0.285235
0.274012
0.261718
0.248529
0.234618
0.220159
0.205317
0.190248
0.175099
0.160003
0.145081
0.13044
0.116173
0.102359
0.0890633
0.0763394
0.064228
0.0527593
0.0419533
0.0318213
0.0223665
0.0135855
0.00546873
-0.00199807
-0.00883346
-0.0150593
-0.0207
-0.0257823
-0.030334
-0.0343842
-0.0379625
-0.0410987
-0.0438222
-0.0461624
-0.0481479
-0.0498064
-0.0511646
-0.0522484
-0.0530822
-0.0536892
-0.0540912
-0.0543088
-0.0543612
-0.0542661
-0.0540401
0.300307
0.294988
0.288017
0.279557
0.269772
0.258835
0.246922
0.234206
0.220858
0.207042
0.192913
0.178618
0.164291
0.150054
0.136013
0.122265
0.10889
0.095957
0.0835219
0.0716293
0.0603128
0.0495968
0.0394967
0.0300203
0.0211687
0.0129372
0.00531639
-0.00170747
-0.00815135
-0.014035
-0.0193801
-0.0242104
-0.0285503
-0.0324254
-0.0358616
-0.0388849
-0.0415214
-0.0437967
-0.0457362
-0.0473646
-0.0487056
-0.0497824
-0.0506172
-0.0512309
-0.0516439
-0.0518749
-0.051942
-0.051862
-0.0516504
-0.0513218
0.275014
0.267705
0.259076
0.249312
0.238595
0.227098
0.214989
0.202425
0.189554
0.176509
0.163413
0.150376
0.137494
0.12485
0.112516
0.100552
0.0890069
0.0779195
0.0673197
0.0572292
0.0476626
0.0386281
0.0301287
0.0221626
0.0147242
0.00780442
0.00139181
-0.00452744
-0.00996887
-0.0149494
-0.0194869
-0.0236003
-0.0273087
-0.030632
-0.03359
-0.0362027
-0.0384899
-0.0404715
-0.0421667
-0.0435948
-0.0447745
-0.0457239
-0.0464606
-0.0470017
-0.0473636
-0.047562
-0.0476117
-0.0475269
-0.0473211
-0.047007
0.247315
0.238823
0.229389
0.219206
0.208448
0.197274
0.185824
0.174224
0.162584
0.150997
0.139545
0.128297
0.117309
0.106627
0.0962877
0.0863197
0.0767442
0.067576
0.0588248
0.0504959
0.0425909
0.0351084
0.0280447
0.0213941
0.0151494
0.00930216
0.00384311
-0.0012378
-0.00595121
-0.0103082
-0.0143202
-0.017999
-0.0213566
-0.0244052
-0.0271574
-0.0296257
-0.031823
-0.0337621
-0.035456
-0.0369178
-0.0381604
-0.039197
-0.0400404
-0.0407034
-0.0411987
-0.0415386
-0.0417353
-0.0418004
-0.0417454
-0.0415812
0.222114
0.213424
0.204215
0.194641
0.184834
0.174908
0.164956
0.155058
0.145277
0.135666
0.126264
0.117102
0.108202
0.0995818
0.0912506
0.0832149
0.0754779
0.0680397
0.0608988
0.0540525
0.0474971
0.0412286
0.0352428
0.0295354
0.0241025
0.0189401
0.0140443
0.00941179
0.00503893
0.000922341
-0.00294143
-0.00655594
-0.00992493
-0.0130524
-0.0159427
-0.0186007
-0.0210313
-0.0232404
-0.025234
-0.0270189
-0.028602
-0.0299911
-0.0311942
-0.0322196
-0.0330762
-0.0337729
-0.0343191
-0.0347242
-0.0349976
-0.0351488
0.20489
0.197204
0.189328
0.181356
0.17337
0.165428
0.157576
0.149845
0.142262
0.134841
0.127591
0.120515
0.113613
0.106884
0.100326
0.093935
0.0877067
0.0816362
0.0757184
0.0699492
0.0643257
0.058846
0.0535094
0.0483162
0.0432674
0.0383651
0.0336118
0.0290111
0.0245667
0.0202831
0.0161649
0.0122167
0.00844314
0.00484865
0.00143723
-0.00178759
-0.00482291
-0.00766654
-0.0103171
-0.0127741
-0.0150381
-0.0171102
-0.0189929
-0.0206895
-0.0222041
-0.0235417
-0.0247081
-0.0257099
-0.0265542
-0.0272487
0.201727
0.195768
0.189776
0.183817
0.177917
0.172094
0.166359
0.160715
0.155156
0.149686
0.144294
0.13897
0.133706
0.128494
0.123331
0.118216
0.113139
0.108092
0.103066
0.0980574
0.0930641
0.0880875
0.0831302
0.0781947
0.073284
0.0684015
0.0635524
0.0587434
0.0539826
0.0492793
0.0446439
0.0400876
0.0356222
0.0312598
0.0270128
0.0228932
0.0189127
0.0150825
0.0114131
0.0079139
0.00459321
0.00145809
-0.00148575
-0.00423403
-0.00678399
-0.00913433
-0.0112852
-0.0132383
-0.0149966
-0.0165644
0.214324
0.20974
0.205145
0.200568
0.196024
0.191534
0.187112
0.182746
0.178429
0.174187
0.169998
0.165852
0.16174
0.157658
0.153596
0.149525
0.145448
0.141353
0.137222
0.133041
0.128801
0.1245
0.120133
0.115701
0.111194
0.106607
0.101935
0.0971798
0.0923449
0.0874369
0.0824656
0.0774437
0.0723861
0.0673096
0.0622321
0.0571731
0.0521531
0.0471931
0.0423145
0.0375383
0.032885
0.0283742
0.0240239
0.0198507
0.0158692
0.012092
0.00852961
0.00519007
0.00207921
-0.000799446
0.334482
0.335328
0.336315
0.337441
0.338706
0.340109
0.34165
0.343326
0.345136
0.347079
0.349154
0.351353
0.35368
0.35613
0.358701
0.361391
0.364197
0.367116
0.370148
0.373293
0.376537
0.379882
0.383334
0.386885
0.390533
0.394275
0.398112
0.402041
0.406056
0.410161
0.414356
0.41862
0.422974
0.427405
0.431913
0.436496
0.441155
0.445887
0.450693
0.455574
0.460526
0.465543
0.470624
0.475778
0.480999
0.486286
0.491639
0.497061
0.50255
0.508096
0.5137
0.519362
0.52509
0.530876
0.536719
0.542621
0.548588
0.554601
0.560669
0.566777
0.572952
0.579185
0.585475
0.591822
0.598235
0.604724
0.611264
0.617866
0.624525
0.631262
0.63806
0.644919
0.65185
0.658846
0.665888
0.672987
0.680127
0.687337
0.694592
0.70189
0.709233
0.716627
0.724043
0.731483
0.738935
0.746411
0.753913
0.761421
0.768926
0.776422
0.783909
0.791402
0.79887
0.806297
0.813668
0.821011
0.828312
0.835567
0.842767
0.849873
0.856869
0.863767
0.870559
0.877225
0.883779
0.890199
0.896454
0.902623
0.908614
0.914398
0.919952
0.925262
0.930326
0.935098
0.939565
0.943735
0.947551
0.951013
0.954075
0.956763
0.95903
0.960839
0.962146
0.962882
0.963064
0.962647
0.961574
0.959748
0.957125
0.953743
0.949546
0.944478
0.938504
0.931596
0.923734
0.914888
0.905043
0.894128
0.882109
0.869024
0.854801
0.839419
0.822838
0.805194
0.78638
0.766396
0.745178
0.722677
0.698844
0.673615
0.646998
0.618711
0.588899
0.557614
0.524823
0.490526
0.454715
0.417155
0.378084
0.337662
0.296031
0.253358
0.209777
0.165369
0.120175
0.074126
0.0273413
-0.0200651
-0.0679707
-0.116253
-0.164778
-0.213385
-0.261875
-0.310028
-0.357609
-0.404331
-0.449883
-0.493918
-0.536065
-0.576027
-0.613297
-0.649388
-0.683745
-0.716495
-0.746857
-0.776204
-0.804768
-0.832656
-0.859935
-0.886668
-0.912923
-0.938828
-0.964657
-0.990676
-1.01809
-1.04719
-1.07753
-1.1091
-1.14175
-1.17499
-1.20816
-1.24041
-1.27057
-1.29791
-1.32288
-1.34597
-1.36756
-1.38783
-1.40681
-1.42449
-1.44068
-1.45505
-1.4679
-1.47964
-1.49054
-1.50083
-1.51063
-1.51999
-1.52891
-1.53735
-1.54522
-1.55247
-1.55899
-1.56474
-1.56955
-1.57333
-1.5761
-1.57794
-1.57887
-1.57889
-1.57803
-1.57637
-1.57406
-1.57123
-1.56802
-1.56463
-1.56111
-1.55741
-1.55368
-1.55012
-1.54695
-1.5443
-1.54233
-1.54116
-1.54088
-1.54157
-1.54322
-1.54575
-1.54924
-1.5537
-1.55918
-1.56566
-1.57306
-1.58133
-1.59038
-1.6001
-1.61032
-1.62079
-1.63121
-1.64101
-1.64977
-1.65715
-1.66298
-1.66723
-1.67015
-1.67234
-1.67396
-1.6749
-1.675
-1.67407
-1.67198
-1.66866
-1.6641
-1.65831
-1.65148
-1.64464
-1.6386
-1.63367
-1.63016
-1.62839
-1.62758
-1.6265
-1.62539
-1.62448
-1.62406
-1.62436
-1.62465
-1.62442
-1.62393
-1.62346
-1.62291
-1.62229
-1.6217
-1.62089
-1.61907
-1.61381
-1.59725
-1.54521
-1.38032
-0.852332
0.277007
0.277605
0.278335
0.279195
0.280181
0.281292
0.282526
0.283877
0.285345
0.286924
0.288612
0.290405
0.2923
0.294292
0.29638
0.29856
0.300829
0.303182
0.305621
0.308145
0.31074
0.31341
0.316158
0.318978
0.321867
0.324823
0.327844
0.330928
0.334074
0.337278
0.340545
0.343855
0.347228
0.350653
0.354129
0.357657
0.361241
0.364869
0.368543
0.372259
0.376023
0.379827
0.383671
0.387553
0.391472
0.395434
0.399433
0.403463
0.40752
0.411619
0.415748
0.419906
0.424091
0.428302
0.432549
0.436824
0.441115
0.445418
0.449755
0.454116
0.458494
0.462889
0.467302
0.471734
0.476198
0.480682
0.485182
0.489715
0.494284
0.49888
0.503503
0.508167
0.512861
0.517583
0.522328
0.527121
0.531946
0.536797
0.541672
0.546582
0.551533
0.556497
0.561475
0.566478
0.571509
0.576544
0.581575
0.586595
0.591603
0.596599
0.601601
0.606589
0.611559
0.616503
0.621448
0.626368
0.631264
0.636143
0.640991
0.645792
0.650554
0.655268
0.659921
0.664516
0.669058
0.67358
0.678061
0.682501
0.686865
0.691182
0.695413
0.699524
0.703498
0.707326
0.71101
0.714564
0.717966
0.721231
0.724369
0.727374
0.730225
0.732911
0.735416
0.737769
0.73996
0.741951
0.743711
0.745241
0.746447
0.747348
0.747905
0.748103
0.747918
0.747365
0.746461
0.745163
0.743472
0.741331
0.73871
0.735589
0.731944
0.727782
0.723073
0.717777
0.711889
0.705331
0.698094
0.690148
0.681569
0.672334
0.662404
0.651783
0.640449
0.62841
0.615662
0.602245
0.588072
0.573125
0.557498
0.541196
0.524238
0.506678
0.488555
0.469951
0.450864
0.431243
0.411146
0.390666
0.369839
0.348726
0.32741
0.305986
0.284556
0.263221
0.242082
0.221234
0.200757
0.180723
0.16118
0.142136
0.123518
0.105212
0.0870095
0.0683056
0.048836
0.0288872
0.00848732
-0.0123272
-0.0335393
-0.0551405
-0.0771404
-0.0995797
-0.122554
-0.146273
-0.171129
-0.197231
-0.224426
-0.25249
-0.281169
-0.310164
-0.339103
-0.367521
-0.394898
-0.420508
-0.443953
-0.465819
-0.486733
-0.507092
-0.527185
-0.547209
-0.567368
-0.587978
-0.609494
-0.631944
-0.655608
-0.680433
-0.706028
-0.731625
-0.756993
-0.781902
-0.806095
-0.829318
-0.851379
-0.872104
-0.891358
-0.909168
-0.925432
-0.940228
-0.953602
-0.965035
-0.974367
-0.981831
-0.987715
-0.992235
-0.995586
-0.998111
-1.00021
-1.00259
-1.00519
-1.00777
-1.01048
-1.0138
-1.01792
-1.0229
-1.02877
-1.03555
-1.04324
-1.05211
-1.06216
-1.07332
-1.08565
-1.09923
-1.11406
-1.13006
-1.14705
-1.16482
-1.183
-1.20103
-1.21821
-1.23326
-1.24468
-1.25273
-1.25808
-1.26126
-1.26277
-1.2633
-1.26349
-1.26358
-1.26363
-1.26368
-1.26377
-1.2639
-1.26416
-1.26475
-1.26586
-1.26696
-1.2679
-1.26922
-1.2717
-1.27623
-1.28279
-1.29115
-1.30054
-1.31037
-1.32092
-1.33228
-1.34416
-1.35629
-1.36823
-1.37979
-1.39077
-1.40102
-1.41038
-1.41858
-1.42485
-1.42681
-1.41692
-1.37208
-1.22125
-0.744234
0.218319
0.218505
0.218805
0.219218
0.219739
0.220365
0.221092
0.221917
0.222834
0.223841
0.224934
0.226107
0.227358
0.228682
0.230076
0.231537
0.23306
0.234644
0.236286
0.237983
0.239729
0.241527
0.243372
0.245262
0.247194
0.249167
0.251178
0.253226
0.255308
0.257423
0.259573
0.261746
0.263953
0.266187
0.268448
0.270734
0.273047
0.275381
0.27773
0.280105
0.282495
0.284899
0.287314
0.289739
0.29217
0.294609
0.297058
0.29951
0.301958
0.304419
0.30688
0.30934
0.311799
0.314255
0.316713
0.319173
0.321621
0.324061
0.326508
0.328945
0.331371
0.333782
0.336179
0.338559
0.340924
0.343279
0.345616
0.347931
0.350243
0.352545
0.354838
0.357126
0.359418
0.361707
0.363982
0.366277
0.368574
0.370871
0.373168
0.375472
0.377791
0.380117
0.382436
0.384789
0.387144
0.389494
0.391832
0.394155
0.396462
0.398751
0.40103
0.4033
0.405558
0.407802
0.410062
0.412309
0.414543
0.416767
0.418969
0.421161
0.423345
0.425507
0.427645
0.42976
0.431856
0.433952
0.436056
0.438145
0.440257
0.44237
0.444451
0.446488
0.448474
0.450403
0.452276
0.454095
0.455866
0.457599
0.459282
0.460932
0.462552
0.464146
0.465725
0.46732
0.468917
0.470544
0.472143
0.473722
0.475231
0.476643
0.477944
0.479128
0.480194
0.481148
0.482012
0.482796
0.483472
0.484071
0.484547
0.484898
0.485127
0.485236
0.485235
0.485099
0.48486
0.484477
0.483934
0.48324
0.48238
0.481386
0.480213
0.478848
0.477305
0.475584
0.47371
0.471639
0.469353
0.466844
0.46411
0.461151
0.45796
0.454549
0.450941
0.447212
0.443265
0.439104
0.434757
0.430185
0.425366
0.420291
0.414964
0.409386
0.403565
0.39752
0.391236
0.384753
0.378097
0.371278
0.364312
0.357208
0.349978
0.342611
0.335212
0.327554
0.319609
0.311431
0.302945
0.29411
0.284899
0.275295
0.265286
0.254865
0.244027
0.232773
0.221104
0.209056
0.196684
0.184046
0.17121
0.15825
0.145241
0.132255
0.119365
0.106577
0.0938765
0.0812292
0.0685896
0.055913
0.0431314
0.0301624
0.0168903
0.00315115
-0.0111623
-0.0260721
-0.0415746
-0.0576782
-0.0744966
-0.09244
-0.111346
-0.130985
-0.150982
-0.170764
-0.189891
-0.208025
-0.225197
-0.241463
-0.256842
-0.271341
-0.285005
-0.29796
-0.310006
-0.32097
-0.330843
-0.339382
-0.34654
-0.353105
-0.359782
-0.366989
-0.375251
-0.384966
-0.396081
-0.408022
-0.420553
-0.433483
-0.446697
-0.460168
-0.47398
-0.488382
-0.503827
-0.520568
-0.53843
-0.557215
-0.576855
-0.597241
-0.618226
-0.639599
-0.661052
-0.682158
-0.702429
-0.721161
-0.737582
-0.751917
-0.764642
-0.77633
-0.787364
-0.798107
-0.808852
-0.819787
-0.830987
-0.842434
-0.854019
-0.865476
-0.876687
-0.887754
-0.898873
-0.910347
-0.922155
-0.934187
-0.947456
-0.962769
-0.980486
-0.99996
-1.02071
-1.04217
-1.06421
-1.08674
-1.10942
-1.13181
-1.15351
-1.17413
-1.1934
-1.21115
-1.22726
-1.24143
-1.25276
-1.2586
-1.2511
-1.20767
-1.06331
-0.63069
0.160879
0.160618
0.160455
0.160384
0.160404
0.160509
0.160697
0.160963
0.161302
0.161713
0.162189
0.162727
0.163324
0.163976
0.164678
0.165428
0.166222
0.167057
0.16793
0.168836
0.169775
0.170743
0.171736
0.172754
0.173793
0.174851
0.175926
0.177017
0.178121
0.179238
0.180362
0.181496
0.182638
0.183786
0.184939
0.186096
0.187256
0.188418
0.189576
0.190735
0.19189
0.19304
0.194182
0.195315
0.196439
0.197548
0.198647
0.19973
0.200799
0.201853
0.20289
0.203909
0.20491
0.205892
0.206854
0.207798
0.208721
0.209617
0.210497
0.211354
0.212185
0.21299
0.213767
0.214514
0.21523
0.215914
0.216567
0.217187
0.217777
0.218335
0.218864
0.219367
0.219841
0.220293
0.220723
0.22113
0.221521
0.221895
0.222255
0.2226
0.222936
0.223269
0.22359
0.223908
0.224223
0.224531
0.224829
0.225115
0.22539
0.225653
0.225905
0.226151
0.22639
0.226618
0.226847
0.22707
0.227285
0.227489
0.227687
0.227872
0.22805
0.228217
0.228376
0.228526
0.228669
0.228809
0.228951
0.229093
0.229231
0.229375
0.229516
0.229651
0.229778
0.229896
0.230002
0.230096
0.230178
0.230249
0.230311
0.230365
0.230416
0.230468
0.230528
0.230612
0.230732
0.230885
0.23108
0.231295
0.231512
0.231723
0.231922
0.232105
0.232271
0.232423
0.232563
0.232691
0.232814
0.232931
0.233043
0.233154
0.233267
0.233387
0.233516
0.233654
0.233799
0.233947
0.234094
0.234241
0.234394
0.234545
0.234702
0.234855
0.235002
0.235145
0.235277
0.235406
0.235524
0.235629
0.235706
0.235754
0.235774
0.235771
0.235743
0.23569
0.235601
0.235464
0.235265
0.234993
0.234639
0.234186
0.233638
0.232995
0.232271
0.231469
0.230575
0.229596
0.228548
0.227443
0.226297
0.22513
0.223974
0.22287
0.221772
0.220658
0.219495
0.218239
0.216849
0.215333
0.213702
0.21196
0.210104
0.208132
0.20602
0.203726
0.201136
0.19829
0.195243
0.192036
0.188683
0.185214
0.181655
0.178038
0.174437
0.170899
0.167532
0.164213
0.160881
0.15747
0.153906
0.150137
0.146138
0.141932
0.137562
0.133039
0.128349
0.123446
0.118269
0.11278
0.107039
0.101096
0.0949228
0.0883393
0.0815179
0.074619
0.0675886
0.0604482
0.0532344
0.045987
0.0387347
0.0314919