/*--------------------------------*- C++ -*----------------------------------*\
| =========                 |                                                 |
| \\      /  F ield         | OpenFOAM: The Open Source CFD Toolbox           |
|  \\    /   O peration     | Version:  2.4.0                                 |
|   \\  /    A nd           | Web:      www.OpenFOAM.org                      |
|    \\/     M anipulation  |                                                 |
\*---------------------------------------------------------------------------*/
FoamFile
{
    version     2.0;
    format      ascii;
    class       volScalarField;
    location    "2.8";
    object      p;
}
// * * * * * * * * * * * * * * * * * * * * * * * * * * * * * * * * * * * * * //

dimensions      [1 -1 -2 0 0 0 0];

internalField   nonuniform List<scalar> 
8000
(
4.14764
4.1386
4.12938
4.12134
4.11585
4.10732
4.10582
4.10067
4.09546
4.09112
4.08885
4.08696
4.08634
4.08656
4.08766
4.09029
4.09274
4.09631
4.10093
4.10647
4.11217
4.12007
4.1282
4.13727
4.14732
4.1584
4.1703
4.1832
4.19712
4.21205
4.22801
4.245
4.26306
4.28218
4.30238
4.32367
4.34606
4.3696
4.39425
4.42009
4.44714
4.47585
4.50638
4.53887
4.57117
4.59958
4.61074
4.57664
4.21525
3.62853
3.24612
3.24264
3.23878
3.23557
3.23217
3.22929
3.22707
3.22557
3.22257
3.22095
3.21965
3.21866
3.218
3.21767
3.21768
3.21802
3.21869
3.2197
3.22116
3.22312
3.22474
3.22678
3.22969
3.23303
3.2367
3.24085
3.24333
3.2473
3.25166
3.25671
3.262
3.26765
3.2735
3.27972
3.28607
3.29281
3.29955
3.30669
3.31395
3.32263
3.33326
3.3432
3.34256
3.32642
3.2325
3.03155
2.26231
1.62211
1.23815
0.80486
2.52175
2.52022
2.51999
2.5185
2.51855
2.51815
2.51923
2.51891
2.51978
2.5211
2.52246
2.52433
2.52652
2.52904
2.53187
2.53502
2.53847
2.54223
2.54627
2.55062
2.55522
2.55997
2.56494
2.57038
2.57589
2.58158
2.5876
2.59349
2.59958
2.60575
2.61201
2.61824
2.6245
2.63058
2.63662
2.64244
2.6489
2.65644
2.66514
2.66928
2.66308
2.55581
2.17471
1.63161
0.473906
0.147746
-0.103207
-0.429708
-0.744589
-0.974379
1.65336
1.65374
1.65459
1.65535
1.65651
1.65838
1.66041
1.66252
1.66515
1.66806
1.67134
1.67489
1.67878
1.68298
1.68754
1.69243
1.69771
1.70334
1.70939
1.71581
1.72276
1.72996
1.73776
1.74605
1.75481
1.76408
1.77408
1.78459
1.79579
1.80763
1.8203
1.8336
1.84773
1.86295
1.88068
1.90277
1.92863
1.94429
1.86349
1.42981
0.704487
-0.950432
-1.50539
-1.63369
-1.72247
-1.69994
-1.48147
-1.16902
-0.939516
-0.88666
0.730556
0.734607
0.739494
0.744234
0.749164
0.754766
0.760557
0.766753
0.773358
0.780314
0.787634
0.795326
0.803407
0.811893
0.820793
0.83014
0.839929
0.850218
0.86098
0.872309
0.884145
0.896604
0.909642
0.923364
0.937629
0.952806
0.968464
0.985206
1.0023
1.0206
1.03906
1.06008
1.08448
1.1164
1.14209
1.11243
0.757926
-0.138834
-2.04832
-3.09157
-3.15015
-3.03698
-2.86296
-2.48776
-1.8646
-1.35493
-1.13919
-1.07094
-1.03625
-1.0101
-0.175325
-0.166728
-0.157053
-0.148536
-0.140966
-0.13368
-0.126942
-0.120907
-0.115429
-0.110501
-0.106204
-0.102441
-0.0993278
-0.0967294
-0.094811
-0.0933883
-0.0926917
-0.0924669
-0.0930323
-0.0940357
-0.0959135
-0.0981742
-0.101377
-0.105082
-0.109814
-0.114835
-0.121173
-0.128115
-0.136838
-0.144382
-0.144791
-0.129384
-0.130973
-0.315147
-1.27219
-2.95815
-4.46966
-4.3535
-3.79279
-3.37026
-2.9898
-2.67493
-1.85798
-1.24778
-1.06498
-1.0381
-1.03197
-1.02321
-1.02259
-1.02345
-1.23305
-1.22187
-1.21016
-1.19993
-1.19063
-1.18158
-1.17289
-1.16514
-1.15763
-1.15063
-1.14411
-1.13806
-1.13245
-1.12729
-1.12251
-1.11817
-1.11413
-1.11052
-1.10712
-1.10416
-1.10126
-1.09886
-1.0963
-1.09447
-1.09235
-1.09139
-1.0901
-1.08713
-1.07256
-1.04454
-1.05576
-1.41412
-2.63823
-4.18266
-5.50664
-5.42742
-5.38815
-3.58487
-2.38631
-1.82056
-1.2169
-1.05341
-1.03922
-1.04774
-1.04566
-1.04473
-1.04465
-1.04467
-1.04463
-1.04463
-1.62875
-1.62105
-1.61166
-1.60313
-1.59556
-1.58847
-1.58199
-1.57638
-1.57123
-1.56677
-1.56289
-1.55971
-1.55705
-1.55508
-1.55356
-1.55275
-1.55226
-1.55253
-1.55294
-1.55417
-1.55529
-1.55734
-1.55919
-1.5628
-1.56574
-1.56564
-1.54825
-1.51859
-1.57303
-2.18002
-3.82695
-6.44139
-7.05993
-6.85258
-4.37072
-2.18086
-1.41776
-1.09901
-1.06965
-1.06418
-1.06742
-1.06827
-1.0675
-1.06721
-1.06718
-1.06715
-1.06714
-1.06715
-1.06716
-1.06717
-2.79248
-2.77836
-2.7648
-2.7543
-2.74625
-2.74006
-2.73568
-2.73346
-2.73292
-2.7344
-2.73765
-2.74295
-2.74995
-2.75908
-2.76981
-2.78279
-2.79724
-2.8141
-2.83224
-2.85304
-2.87519
-2.90123
-2.92848
-2.95319
-2.95561
-2.94235
-3.05973
-3.91427
-5.9872
-7.47328
-7.37023
-6.39675
-3.04426
-1.15526
-0.980539
-1.10137
-1.09287
-1.09049
-1.09017
-1.09014
-1.09016
-1.09014
-1.0901
-1.09008
-1.09006
-1.09004
-1.09002
-1.09
-1.08998
-1.08996
-2.69854
-2.68792
-2.67637
-2.66719
-2.66055
-2.65602
-2.65346
-2.65312
-2.65463
-2.6583
-2.66388
-2.67169
-2.68141
-2.69347
-2.70743
-2.72389
-2.7422
-2.76324
-2.78641
-2.81383
-2.8442
-2.87182
-2.87233
-2.84248
-2.95536
-3.88468
-6.21837
-7.19905
-6.54579
-4.34595
-1.44712
-1.04184
-1.09711
-1.11759
-1.11282
-1.11134
-1.11147
-1.11156
-1.11171
-1.11178
-1.11185
-1.1119
-1.11194
-1.11197
-1.11199
-1.11201
-1.11203
-1.11203
-1.11204
-1.11204
-3.05939
-3.0593
-3.06116
-3.06513
-3.07093
-3.07841
-3.08755
-3.09865
-3.11139
-3.12615
-3.14266
-3.16134
-3.18185
-3.2047
-3.22941
-3.25665
-3.28611
-3.31957
-3.35672
-3.39233
-3.40178
-3.37103
-3.45538
-4.25215
-6.41163
-7.32931
-6.20046
-3.46613
-1.22707
-1.07161
-1.13321
-1.13412
-1.13301
-1.1332
-1.13308
-1.13308
-1.1332
-1.13333
-1.13344
-1.13353
-1.13361
-1.13367
-1.13373
-1.13378
-1.13382
-1.13385
-1.13388
-1.1339
-1.13392
-1.13394
-2.34875
-2.36541
-2.38258
-2.39752
-2.41067
-2.42222
-2.43241
-2.44125
-2.44865
-2.45461
-2.45911
-2.46213
-2.46353
-2.46332
-2.46147
-2.45895
-2.45568
-2.44709
-2.4131
-2.34118
-2.34954
-2.91146
-4.70558
-6.60526
-5.6696
-3.0515
-1.21947
-1.12421
-1.15313
-1.15601
-1.15583
-1.15587
-1.15576
-1.15575
-1.15579
-1.15583
-1.15587
-1.1559
-1.15592
-1.15595
-1.15598
-1.156
-1.15602
-1.15603
-1.15604
-1.15604
-1.15605
-1.15606
-1.15606
-1.15606
-2.24186
-2.25361
-2.26475
-2.27342
-2.28021
-2.28506
-2.28827
-2.28958
-2.28912
-2.28653
-2.28209
-2.27524
-2.26645
-2.25552
-2.24407
-2.23012
-2.20165
-2.13002
-2.04098
-2.24852
-3.51548
-6.679
-5.26911
-3.07127
-1.27413
-1.16667
-1.17682
-1.17926
-1.17888
-1.17877
-1.17869
-1.17863
-1.17846
-1.17829
-1.17752
-1.17825
-1.17822
-1.17819
-1.17816
-1.17813
-1.17812
-1.17811
-1.1781
-1.17807
-1.17806
-1.17801
-1.17804
-1.17803
-1.17803
-1.17802
-3.09812
-3.10845
-3.12299
-3.13947
-3.15778
-3.17766
-3.19958
-3.22318
-3.24887
-3.27611
-3.30553
-3.33678
-3.37191
-3.41008
-3.44394
-3.44392
-3.40433
-3.5412
-4.5661
-6.91482
-5.63378
-3.07594
-1.35967
-1.19819
-1.19986
-1.20041
-1.20017
-1.20013
-1.20013
-1.20014
-1.20014
-1.20015
-1.20015
-1.20009
-1.20004
-1.19944
-1.20004
-1.20002
-1.20003
-1.20008
-1.20008
-1.20019
-1.20019
-1.20017
-1.20019
-1.20004
-1.20024
-1.20024
-1.20024
-1.20024
-2.33061
-2.35555
-2.38267
-2.40892
-2.43534
-2.46209
-2.48978
-2.51793
-2.54706
-2.57667
-2.60808
-2.6416
-2.67649
-2.69863
-2.68546
-2.67644
-2.99716
-4.24589
-6.37802
-3.35773
-1.58822
-1.22735
-1.22202
-1.22258
-1.22248
-1.22244
-1.22245
-1.22246
-1.22247
-1.22248
-1.22249
-1.22249
-1.2225
-1.2225
-1.22248
-1.22248
-1.22252
-1.22251
-1.22251
-1.22243
-1.22185
-1.22249
-1.2225
-1.22251
-1.22246
-1.22199
-1.22259
-1.2226
-1.2226
-1.22261
-2.76884
-2.78595
-2.80711
-2.82962
-2.85307
-2.87795
-2.90407
-2.93175
-2.96085
-2.99256
-3.02653
-3.05789
-3.06713
-3.04996
-3.14702
-3.82501
-5.28293
-4.51844
-2.12274
-1.27043
-1.24451
-1.24477
-1.24477
-1.24476
-1.24474
-1.24474
-1.24474
-1.24474
-1.24474
-1.24474
-1.24475
-1.24472
-1.2447
-1.24414
-1.24475
-1.24475
-1.24492
-1.24498
-1.24481
-1.24488
-1.24489
-1.24488
-1.24484
-1.24455
-1.24494
-1.24494
-1.24494
-1.2447
-1.24503
-1.24504
-2.061
-2.08629
-2.11402
-2.14043
-2.16548
-2.18983
-2.21336
-2.23688
-2.26155
-2.28755
-2.30001
-2.26042
-2.17142
-2.39245
-3.9341
-6.9308
-3.05831
-1.43079
-1.26972
-1.2671
-1.26714
-1.26725
-1.26725
-1.26727
-1.2673
-1.26731
-1.26711
-1.26718
-1.2672
-1.26721
-1.26723
-1.26717
-1.26724
-1.26726
-1.26685
-1.26727
-1.26733
-1.26739
-1.26722
-1.2675
-1.26751
-1.26753
-1.26755
-1.26757
-1.26759
-1.26761
-1.26763
-1.26765
-1.26767
-1.26769
-1.54245
-1.58204
-1.62428
-1.66228
-1.69685
-1.72853
-1.75859
-1.78757
-1.81499
-1.82747
-1.79644
-1.74917
-2.00285
-3.27277
-5.45778
-2.13587
-1.31258
-1.28895
-1.28883
-1.28898
-1.28904
-1.28905
-1.28907
-1.28909
-1.28911
-1.28912
-1.28911
-1.28891
-1.28908
-1.28911
-1.28916
-1.28928
-1.28932
-1.28902
-1.28906
-1.28954
-1.28958
-1.2896
-1.28965
-1.28993
-1.28998
-1.29004
-1.29009
-1.29009
-1.29015
-1.2902
-1.29024
-1.29029
-1.29032
-1.29036
-2.05331
-2.09014
-2.13177
-2.1721
-2.21085
-2.24976
-2.28919
-2.32722
-2.35059
-2.34525
-2.37397
-2.74939
-3.8332
-4.3408
-1.73066
-1.31436
-1.3108
-1.31107
-1.31122
-1.31126
-1.31127
-1.31129
-1.3113
-1.31132
-1.31133
-1.31134
-1.31135
-1.31136
-1.31137
-1.31137
-1.31136
-1.31138
-1.31137
-1.31061
-1.31265
-1.31265
-1.31265
-1.31267
-1.31267
-1.31188
-1.31339
-1.3134
-1.31343
-1.31347
-1.3135
-1.31258
-1.31363
-1.31366
-1.31371
-1.31392
-1.95534
-1.99466
-2.03812
-2.0799
-2.12106
-2.16265
-2.1993
-2.21358
-2.20135
-2.30063
-2.94578
-4.22065
-3.22391
-1.42209
-1.33299
-1.33266
-1.33287
-1.33298
-1.33303
-1.33306
-1.33309
-1.33313
-1.33316
-1.3332
-1.33323
-1.33327
-1.33329
-1.33333
-1.33337
-1.33337
-1.33341
-1.33346
-1.33323
-1.33277
-1.33434
-1.33436
-1.33438
-1.33441
-1.3344
-1.33374
-1.3357
-1.3357
-1.33571
-1.33571
-1.33567
-1.33469
-1.33714
-1.33702
-1.33715
-1.33714
2.97178
1.96382
0.674784
-0.505433
-0.847109
-0.904275
-0.914541
-0.916989
-0.917735
-0.917964
-0.918007
-0.917998
-0.917981
-0.917962
-0.917941
-0.91792
-0.917899
-0.917878
-0.917857
-0.917827
-0.917806
-0.917798
-0.91778
-0.917762
-0.917746
-0.917733
-0.917723
-0.917715
-0.917705
-0.917702
-0.917706
-0.917707
-0.917696
-0.917716
-0.917728
-0.917654
-0.917747
-0.917768
-0.917767
-0.917791
-0.917831
-0.917731
-0.917893
-0.917941
-0.917972
-0.918007
-0.918053
-0.91803
-0.918136
-0.918182
0.477807
0.434098
0.104165
-0.514724
-0.860827
-0.925592
-0.935824
-0.9382
-0.938903
-0.939129
-0.939195
-0.939209
-0.939205
-0.939198
-0.93919
-0.93918
-0.939168
-0.939156
-0.939142
-0.939121
-0.939108
-0.939102
-0.939088
-0.939074
-0.93906
-0.939049
-0.93904
-0.939034
-0.939029
-0.939024
-0.939022
-0.939023
-0.939025
-0.939027
-0.939035
-0.939044
-0.939058
-0.939073
-0.939074
-0.939103
-0.939122
-0.939144
-0.939174
-0.939198
-0.939224
-0.939242
-0.939287
-0.939175
-0.939428
-0.939486
-1.08321
-0.971644
-0.800388
-0.806464
-0.894124
-0.945039
-0.95654
-0.958993
-0.959696
-0.959932
-0.960014
-0.960044
-0.96006
-0.960075
-0.960088
-0.960099
-0.960108
-0.960116
-0.960122
-0.960125
-0.960129
-0.960133
-0.960135
-0.960137
-0.960139
-0.960143
-0.960147
-0.960154
-0.960161
-0.960168
-0.960176
-0.960186
-0.960196
-0.960202
-0.960216
-0.960198
-0.960251
-0.960279
-0.960296
-0.960315
-0.960336
-0.960357
-0.960376
-0.960401
-0.96042
-0.960449
-0.960476
-0.960501
-0.960527
-0.960556
-0.941158
-0.984496
-0.981085
-0.968445
-0.968402
-0.97484
-0.97925
-0.980651
-0.981018
-0.981119
-0.981148
-0.981167
-0.981184
-0.981202
-0.981219
-0.981232
-0.981246
-0.981264
-0.981279
-0.981293
-0.981306
-0.98132
-0.981334
-0.981347
-0.981363
-0.981378
-0.981396
-0.981415
-0.981434
-0.981453
-0.981474
-0.981496
-0.981519
-0.981536
-0.981548
-0.981498
-0.981608
-0.981652
-0.98168
-0.981709
-0.98174
-0.981771
-0.981783
-0.981847
-0.981882
-0.981917
-0.981952
-0.981988
-0.982024
-0.982061
-1.00054
-1.00047
-1.00105
-1.00072
-1.00074
-1.00134
-1.00183
-1.00198
-1.00203
-1.00207
-1.00212
-1.00215
-1.00219
-1.00222
-1.00225
-1.00224
-1.00227
-1.00235
-1.00238
-1.00241
-1.00244
-1.00247
-1.0025
-1.00253
-1.00257
-1.0026
-1.00263
-1.00267
-1.0027
-1.00273
-1.00277
-1.0028
-1.00284
-1.00287
-1.00291
-1.00293
-1.00298
-1.00302
-1.00305
-1.00309
-1.00313
-1.00317
-1.00313
-1.00327
-1.00331
-1.00334
-1.00338
-1.00342
-1.00346
-1.0035
-1.02346
-1.02333
-1.02333
-1.02337
-1.02338
-1.02337
-1.02339
-1.02343
-1.02347
-1.02352
-1.02355
-1.02359
-1.02363
-1.02367
-1.02371
-1.02371
-1.02372
-1.02384
-1.02388
-1.02391
-1.02395
-1.02399
-1.02403
-1.02407
-1.02411
-1.02415
-1.02419
-1.02423
-1.02426
-1.0243
-1.02434
-1.02438
-1.02442
-1.02447
-1.02451
-1.02455
-1.02459
-1.02463
-1.02467
-1.02471
-1.02475
-1.02474
-1.02478
-1.02485
-1.02485
-1.02496
-1.02502
-1.02506
-1.02511
-1.02515
-1.04465
-1.04468
-1.04472
-1.04479
-1.04483
-1.04487
-1.04492
-1.04497
-1.04501
-1.04506
-1.04511
-1.04516
-1.04521
-1.04526
-1.0453
-1.04535
-1.04539
-1.04544
-1.04549
-1.04553
-1.04558
-1.04562
-1.04567
-1.04571
-1.04576
-1.0458
-1.04584
-1.04589
-1.04593
-1.04597
-1.04602
-1.04605
-1.0461
-1.04614
-1.04618
-1.04622
-1.04626
-1.0463
-1.04635
-1.04639
-1.04643
-1.04647
-1.04651
-1.04651
-1.04661
-1.04666
-1.0467
-1.04674
-1.04679
-1.04683
-1.06718
-1.06719
-1.06721
-1.06723
-1.06725
-1.06727
-1.06729
-1.06732
-1.06734
-1.06737
-1.0674
-1.06743
-1.06746
-1.06749
-1.06751
-1.06755
-1.06758
-1.06761
-1.06764
-1.06767
-1.0677
-1.06773
-1.06776
-1.06779
-1.06782
-1.06785
-1.06788
-1.06791
-1.06795
-1.06798
-1.06801
-1.068
-1.06808
-1.06811
-1.06815
-1.06818
-1.06821
-1.06825
-1.06828
-1.06832
-1.06835
-1.06838
-1.06842
-1.06845
-1.06849
-1.06853
-1.06857
-1.0686
-1.06864
-1.06868
-1.08994
-1.08993
-1.08991
-1.0899
-1.08989
-1.08989
-1.08988
-1.08988
-1.08988
-1.08987
-1.08988
-1.08988
-1.08988
-1.08988
-1.08989
-1.0899
-1.0899
-1.08991
-1.08992
-1.08993
-1.08994
-1.08995
-1.08997
-1.08998
-1.09
-1.09001
-1.09002
-1.09
-1.09007
-1.09009
-1.0901
-1.09012
-1.09015
-1.09017
-1.09019
-1.09021
-1.09023
-1.09026
-1.09028
-1.09031
-1.09033
-1.09036
-1.09038
-1.09041
-1.09044
-1.09047
-1.0905
-1.09053
-1.09056
-1.09059
-1.11204
-1.11204
-1.11204
-1.11203
-1.11203
-1.11202
-1.11202
-1.11202
-1.11201
-1.11201
-1.11201
-1.11201
-1.11201
-1.11201
-1.11201
-1.11201
-1.112
-1.11197
-1.11202
-1.11203
-1.11204
-1.11204
-1.11205
-1.11206
-1.11207
-1.11208
-1.11209
-1.1121
-1.11212
-1.1121
-1.11215
-1.11216
-1.11218
-1.1122
-1.11221
-1.11223
-1.11225
-1.11227
-1.11229
-1.11231
-1.11233
-1.11235
-1.11238
-1.1124
-1.11242
-1.11245
-1.11247
-1.1125
-1.11252
-1.11255
-1.13395
-1.13396
-1.13397
-1.13397
-1.13398
-1.13398
-1.13398
-1.13399
-1.13399
-1.13399
-1.13399
-1.134
-1.134
-1.134
-1.13401
-1.13401
-1.13402
-1.13402
-1.13403
-1.13404
-1.13405
-1.13406
-1.13406
-1.13408
-1.13409
-1.1341
-1.13411
-1.13412
-1.13413
-1.13415
-1.13414
-1.13418
-1.1342
-1.13421
-1.13423
-1.13425
-1.13427
-1.13429
-1.13431
-1.13433
-1.13435
-1.13437
-1.13439
-1.13441
-1.13444
-1.13446
-1.13448
-1.13451
-1.13453
-1.13456
-1.15606
-1.15606
-1.15606
-1.15606
-1.15606
-1.15606
-1.15606
-1.15606
-1.15606
-1.15606
-1.15606
-1.15606
-1.15606
-1.15607
-1.15607
-1.15608
-1.15608
-1.15609
-1.1561
-1.15611
-1.15612
-1.15613
-1.15614
-1.15615
-1.15616
-1.15617
-1.15619
-1.1562
-1.15622
-1.15623
-1.15625
-1.15627
-1.15628
-1.1563
-1.15632
-1.15634
-1.15636
-1.15638
-1.1564
-1.15642
-1.15644
-1.15647
-1.15649
-1.15651
-1.15653
-1.15656
-1.15658
-1.15661
-1.15663
-1.15666
-1.17802
-1.17802
-1.17802
-1.17802
-1.17802
-1.17802
-1.17803
-1.17803
-1.17804
-1.17804
-1.17805
-1.17806
-1.17807
-1.17808
-1.1781
-1.1781
-1.17811
-1.1781
-1.17815
-1.17817
-1.17818
-1.1782
-1.17822
-1.17824
-1.17826
-1.17828
-1.1783
-1.17832
-1.17834
-1.17836
-1.17838
-1.1784
-1.17842
-1.17845
-1.17847
-1.17849
-1.17852
-1.17854
-1.17857
-1.17859
-1.17862
-1.17864
-1.17867
-1.17869
-1.17872
-1.17874
-1.17877
-1.1788
-1.17882
-1.17885
-1.20024
-1.20025
-1.20025
-1.20026
-1.20026
-1.20027
-1.20028
-1.20029
-1.2003
-1.20031
-1.20032
-1.20034
-1.20035
-1.20037
-1.20038
-1.2004
-1.20041
-1.20043
-1.20045
-1.20047
-1.20049
-1.20051
-1.20053
-1.20055
-1.20057
-1.20059
-1.20061
-1.20064
-1.20066
-1.20068
-1.2007
-1.20073
-1.20075
-1.20078
-1.2008
-1.20083
-1.20085
-1.20088
-1.2009
-1.20093
-1.20095
-1.20098
-1.20101
-1.20103
-1.20106
-1.20109
-1.20111
-1.20114
-1.20117
-1.20119
-1.22261
-1.22262
-1.22263
-1.22264
-1.22265
-1.22266
-1.22267
-1.22269
-1.2227
-1.22271
-1.22273
-1.22275
-1.22276
-1.22278
-1.2228
-1.22282
-1.22284
-1.22286
-1.22288
-1.2229
-1.22292
-1.22295
-1.22297
-1.22299
-1.22302
-1.22304
-1.22306
-1.22309
-1.22311
-1.22314
-1.22316
-1.22319
-1.22321
-1.22324
-1.22327
-1.22329
-1.22332
-1.22335
-1.22337
-1.2234
-1.22342
-1.22345
-1.22348
-1.2235
-1.22353
-1.22356
-1.22358
-1.22361
-1.22364
-1.22366
-1.24506
-1.24507
-1.24509
-1.2451
-1.24512
-1.24514
-1.24515
-1.24517
-1.24519
-1.24521
-1.24523
-1.24525
-1.24528
-1.2453
-1.24532
-1.24535
-1.24537
-1.24539
-1.24542
-1.24544
-1.24547
-1.2455
-1.24552
-1.24555
-1.24558
-1.2456
-1.24563
-1.24566
-1.24568
-1.24571
-1.24574
-1.24576
-1.24579
-1.24582
-1.24585
-1.24587
-1.2459
-1.24593
-1.24595
-1.24598
-1.24601
-1.24603
-1.24606
-1.24609
-1.24611
-1.24614
-1.24617
-1.24619
-1.24622
-1.24624
-1.26772
-1.26774
-1.26776
-1.26778
-1.26781
-1.26783
-1.26785
-1.26788
-1.2679
-1.26792
-1.26795
-1.26797
-1.268
-1.26802
-1.26805
-1.26807
-1.2681
-1.26813
-1.26815
-1.26818
-1.26821
-1.26823
-1.26826
-1.26829
-1.26831
-1.26834
-1.26837
-1.26839
-1.26842
-1.26845
-1.26847
-1.2685
-1.26852
-1.26855
-1.26858
-1.2686
-1.26863
-1.26865
-1.26868
-1.2687
-1.26873
-1.26875
-1.26877
-1.2688
-1.26882
-1.26884
-1.26887
-1.26889
-1.26891
-1.26893
-1.29039
-1.29039
-1.29034
-1.29048
-1.29051
-1.29054
-1.29058
-1.29061
-1.29064
-1.29068
-1.29072
-1.29075
-1.29078
-1.29081
-1.29084
-1.29087
-1.2909
-1.29093
-1.29096
-1.29099
-1.29101
-1.29104
-1.29107
-1.2911
-1.29113
-1.29115
-1.29118
-1.29121
-1.29123
-1.29126
-1.29129
-1.29131
-1.29133
-1.29136
-1.29138
-1.29141
-1.29143
-1.29145
-1.29147
-1.29149
-1.29152
-1.29154
-1.29156
-1.29158
-1.2916
-1.29162
-1.29163
-1.29165
-1.29167
-1.29169
-1.31329
-1.31333
-1.31369
-1.31373
-1.31373
-1.31373
-1.31374
-1.31296
-1.31384
-1.31385
-1.31385
-1.31388
-1.31389
-1.3139
-1.31391
-1.31395
-1.31399
-1.31401
-1.31403
-1.31405
-1.31407
-1.31409
-1.31412
-1.31414
-1.31416
-1.31418
-1.3142
-1.31422
-1.31423
-1.31425
-1.31427
-1.31428
-1.3143
-1.31431
-1.31433
-1.31434
-1.31436
-1.31437
-1.31438
-1.3144
-1.31441
-1.31442
-1.31443
-1.31444
-1.31445
-1.31447
-1.31448
-1.31449
-1.3145
-1.31451
-1.33591
-1.33801
-1.33802
-1.33803
-1.33806
-1.33811
-1.33659
-1.33667
-1.33684
-1.33689
-1.33693
-1.33697
-1.33701
-1.33704
-1.33548
-1.33713
-1.33716
-1.33719
-1.33722
-1.33724
-1.33724
-1.33724
-1.33727
-1.33731
-1.33732
-1.33732
-1.33732
-1.33733
-1.33733
-1.33733
-1.33734
-1.33734
-1.33734
-1.33735
-1.33735
-1.33735
-1.33735
-1.33735
-1.33735
-1.33735
-1.33735
-1.33735
-1.33735
-1.33735
-1.33735
-1.33735
-1.33735
-1.33735
-1.33735
-1.33736
-0.918239
-0.91824
-0.918244
-0.918283
-0.91831
-0.918352
-0.918383
-0.918413
-0.918444
-0.918477
-0.918276
-0.91845
-0.918545
-0.918611
-0.918646
-0.918683
-0.91872
-0.918758
-0.918797
-0.91824
-0.918656
-0.918693
-0.918766
-0.918843
-0.918883
-0.918924
-0.918966
-0.918856
-0.918899
-0.918991
-0.918461
-0.91923
-0.919432
-0.919567
-0.919607
-0.919602
-0.919693
-0.919714
-0.919736
-0.919777
-0.919508
-0.919741
-0.919777
-0.919777
-0.919838
-0.919888
-0.919926
-0.919973
-0.919972
-0.920004
-0.920464
-0.920493
-0.920515
-0.920546
-0.920582
-0.920614
-0.920643
-0.920569
-0.920624
-0.920656
-0.920679
-0.920703
-0.920731
-0.920767
-0.920804
-0.920831
-0.920867
-0.921321
-0.921351
-0.921366
-0.921409
-0.921462
-0.921503
-0.921534
-0.921567
-0.92203
-0.922069
-0.9221
-0.922149
-0.922204
-0.922263
-0.92233
-0.921992
-0.922059
-0.922138
-0.922194
-0.922247
-0.92231
-0.922373
-0.922441
-0.92251
-0.922576
-0.922095
-0.922202
-0.922277
-0.922014
-0.922088
-0.922161
-0.921519
-0.921584
-0.92167
-0.921723
-0.921774
-0.921834
-0.921869
-0.921527
-0.921561
-0.922281
-0.921769
-0.921789
-0.921823
-0.921827
-0.921811
-0.921801
-0.921821
-0.921808
-0.921651
-0.921802
-0.921792
-0.921724
-0.922173
-0.921745
-0.921974
-0.921382
-0.921438
-0.921467
-0.92078
-0.920801
-0.920981
-0.92095
-0.921003
-0.920994
-0.921008
-0.921082
-0.921097
-0.921112
-0.92047
-0.920528
-0.920585
-0.920612
-0.920615
-0.920709
-0.920718
-0.920293
-0.920794
-0.920835
-0.920861
-0.920897
-0.920987
-0.921058
-0.918605
-0.92015
-0.920405
-0.920409
-0.920436
-0.920457
-0.916985
-0.919315
-0.919316
-0.919276
-0.91923
-0.919163
-0.919091
-0.919041
-0.918933
-0.918789
-0.920151
-0.92013
-0.920098
-0.920062
-0.920024
-0.919934
-0.91998
-0.919964
-0.919955
-0.919952
-0.919955
-0.919963
-0.919959
-0.919878
-0.918537
-0.918627
-0.919266
-0.919182
-0.919145
-0.919163
-0.919228
-0.919291
-0.919352
-0.919413
-0.91948
-0.919556
-0.919573
-0.919509
-0.919542
-0.919646
-0.919843
-0.919965
-0.920052
-0.920132
-0.920227
-0.920093
-0.92029
-0.920376
-0.92044
-0.920506
-0.920575
-0.920647
-0.920721
-0.920783
-0.920139
-0.92024
-0.920535
-0.920568
-0.920643
-0.920723
-0.920798
-0.92087
-0.92094
-0.921
-0.921073
-0.921137
-0.921199
-0.921291
-0.921188
-0.921252
-0.921331
-0.921343
-0.921396
-0.921456
-0.921483
-0.921509
-0.921535
-0.921552
-0.921569
-0.921589
-0.921496
-0.921463
-0.922064
-0.921999
-0.92195
-0.921961
-0.921976
-0.92199
-0.922003
-0.92201
-0.921974
-0.921969
-0.922203
-0.92223
-0.922244
-0.92228
-0.922321
-0.922364
-0.92239
-0.922446
-0.922482
-0.92258
-0.92219
-0.922455
-0.922762
-0.922823
-0.922887
-0.92295
-0.922916
-0.922634
-0.922979
-0.923029
-0.923031
-0.923025
-0.923015
-0.923007
-0.923026
-0.922921
-0.922928
-0.922907
-0.922894
-0.922922
-0.92296
-0.923222
-0.92017
-0.922015
-0.922478
-0.921943
-0.922079
-0.922208
-0.921114
-0.922385
-0.921816
-0.922498
-0.921629
-0.922719
-0.92275
-0.922751
-0.922976
-0.922347
-0.922726
-0.922812
-0.922853
-0.923155
-0.939518
-0.939543
-0.939567
-0.939593
-0.93962
-0.939646
-0.939674
-0.939702
-0.939731
-0.939761
-0.939791
-0.939823
-0.939854
-0.939886
-0.939919
-0.939952
-0.939976
-0.940009
-0.94006
-0.939343
-0.939908
-0.939943
-0.940051
-0.940114
-0.940153
-0.940192
-0.940233
-0.940274
-0.940318
-0.940362
-0.939843
-0.940717
-0.940836
-0.940948
-0.940996
-0.941046
-0.941096
-0.941124
-0.941417
-0.941459
-0.941504
-0.941558
-0.941615
-0.941671
-0.941693
-0.941759
-0.94132
-0.941404
-0.941492
-0.941548
-0.941615
-0.941685
-0.941754
-0.941828
-0.941903
-0.941153
-0.941274
-0.941354
-0.941417
-0.941483
-0.941545
-0.941609
-0.94168
-0.941745
-0.941804
-0.941402
-0.942261
-0.942314
-0.942361
-0.942415
-0.942475
-0.94253
-0.94202
-0.942119
-0.942178
-0.94222
-0.942264
-0.942305
-0.942345
-0.942381
-0.942388
-0.942285
-0.943435
-0.943449
-0.943465
-0.943484
-0.943502
-0.943516
-0.943533
-0.943547
-0.943553
-0.94298
-0.943119
-0.943124
-0.943015
-0.942987
-0.942996
-0.942981
-0.942725
-0.943547
-0.943544
-0.943542
-0.943538
-0.943534
-0.943542
-0.943547
-0.942764
-0.94282
-0.942866
-0.942863
-0.942864
-0.942866
-0.942863
-0.942842
-0.942832
-0.942802
-0.942481
-0.943029
-0.943012
-0.942978
-0.943141
-0.942937
-0.942869
-0.942925
-0.94287
-0.94281
-0.942719
-0.942797
-0.942785
-0.942652
-0.942588
-0.942406
-0.942374
-0.942445
-0.942399
-0.942295
-0.942607
-0.94255
-0.942476
-0.942621
-0.942585
-0.942633
-0.94236
-0.942779
-0.942769
-0.94277
-0.942763
-0.942798
-0.942422
-0.942565
-0.942466
-0.9425
-0.942518
-0.942503
-0.942546
-0.941836
-0.941973
-0.942309
-0.942307
-0.942306
-0.942308
-0.942342
-0.942379
-0.942376
-0.940583
-0.941637
-0.941737
-0.941781
-0.941809
-0.94183
-0.94184
-0.941844
-0.941853
-0.941719
-0.941968
-0.941974
-0.941981
-0.941991
-0.942005
-0.942028
-0.942107
-0.942159
-0.941785
-0.941778
-0.941987
-0.942297
-0.94248
-0.942584
-0.942661
-0.942733
-0.942804
-0.942872
-0.942931
-0.94295
-0.941464
-0.943405
-0.943524
-0.943616
-0.943708
-0.943806
-0.943911
-0.944017
-0.942258
-0.943177
-0.943377
-0.943438
-0.943536
-0.943624
-0.943702
-0.943771
-0.943822
-0.943759
-0.943767
-0.943953
-0.9441
-0.944184
-0.944249
-0.944309
-0.944364
-0.944414
-0.944448
-0.944338
-0.944626
-0.944648
-0.944653
-0.944656
-0.944665
-0.944678
-0.944629
-0.944574
-0.944897
-0.944959
-0.94488
-0.944921
-0.944924
-0.944931
-0.944964
-0.944996
-0.94484
-0.944822
-0.945056
-0.945163
-0.945191
-0.945201
-0.945203
-0.945198
-0.945191
-0.945195
-0.945082
-0.945044
-0.945253
-0.945254
-0.945221
-0.945182
-0.945134
-0.945076
-0.945004
-0.944914
-0.944789
-0.943812
-0.943313
-0.946054
-0.946035
-0.945945
-0.945878
-0.945823
-0.945765
-0.945704
-0.94565
-0.945598
-0.945378
-0.94537
-0.945382
-0.945306
-0.945226
-0.945137
-0.945035
-0.944916
-0.944791
-0.944663
-0.944065
-0.943838
-0.945043
-0.94501
-0.944276
-0.94513
-0.944997
-0.945004
-0.945086
-0.945286
-0.945355
-0.945398
-0.945489
-0.945608
-0.945761
-0.945357
-0.945629
-0.945236
-0.945378
-0.945196
-0.96058
-0.960599
-0.960618
-0.960638
-0.960658
-0.960679
-0.9607
-0.960721
-0.960743
-0.960765
-0.960787
-0.960809
-0.960832
-0.960855
-0.960879
-0.960808
-0.960834
-0.96092
-0.960768
-0.960794
-0.960825
-0.960893
-0.960942
-0.960966
-0.960989
-0.961012
-0.961035
-0.961058
-0.961081
-0.961103
-0.96071
-0.961385
-0.961465
-0.961535
-0.961556
-0.961577
-0.961553
-0.961317
-0.962159
-0.962235
-0.962262
-0.962281
-0.962298
-0.962286
-0.962301
-0.962284
-0.962278
-0.961966
-0.962885
-0.962929
-0.962964
-0.962983
-0.963002
-0.963023
-0.963045
-0.961918
-0.962583
-0.962606
-0.962627
-0.962645
-0.962661
-0.962684
-0.962703
-0.962721
-0.962739
-0.962663
-0.962534
-0.963066
-0.963107
-0.963108
-0.963115
-0.963121
-0.963102
-0.962502
-0.963869
-0.963829
-0.963846
-0.963844
-0.96384
-0.963836
-0.963808
-0.962961
-0.964856
-0.964851
-0.964848
-0.964846
-0.964847
-0.96485
-0.964855
-0.96486
-0.964868
-0.964476
-0.964151
-0.964879
-0.964908
-0.964903
-0.96491
-0.964318
-0.964747
-0.964759
-0.964761
-0.964756
-0.964751
-0.964745
-0.96474
-0.964722
-0.96345
-0.964829
-0.964824
-0.964819
-0.964811
-0.964801
-0.964792
-0.964785
-0.964778
-0.964774
-0.964776
-0.964411
-0.96474
-0.964736
-0.964707
-0.964695
-0.964699
-0.964683
-0.964266
-0.964399
-0.964401
-0.964382
-0.964375
-0.964375
-0.964369
-0.96436
-0.964357
-0.964345
-0.964263
-0.963936
-0.964811
-0.964898
-0.964894
-0.964886
-0.964884
-0.964874
-0.964389
-0.965069
-0.965112
-0.965148
-0.96515
-0.965079
-0.965224
-0.965239
-0.965133
-0.965093
-0.9651
-0.965131
-0.964704
-0.965133
-0.965094
-0.965129
-0.965183
-0.965171
-0.965223
-0.965261
-0.96529
-0.964207
-0.964605
-0.965021
-0.96506
-0.965099
-0.965138
-0.965183
-0.965228
-0.965275
-0.965322
-0.964854
-0.965192
-0.965255
-0.965308
-0.965357
-0.965403
-0.965444
-0.965473
-0.965484
-0.963779
-0.964371
-0.966416
-0.966456
-0.966474
-0.966493
-0.966525
-0.966567
-0.966618
-0.966676
-0.96674
-0.966662
-0.966783
-0.9669
-0.966943
-0.966985
-0.967025
-0.96706
-0.967088
-0.967097
-0.967074
-0.966541
-0.966555
-0.967602
-0.967725
-0.967799
-0.967868
-0.967979
-0.96806
-0.966202
-0.967865
-0.96796
-0.968033
-0.968111
-0.968181
-0.968247
-0.968306
-0.968358
-0.968407
-0.968446
-0.966957
-0.968187
-0.968256
-0.96828
-0.968301
-0.968328
-0.968339
-0.968338
-0.968335
-0.968369
-0.96819
-0.96804
-0.968463
-0.968553
-0.967939
-0.968778
-0.968186
-0.969135
-0.969035
-0.968972
-0.968926
-0.968886
-0.968846
-0.968809
-0.968781
-0.968394
-0.968512
-0.968525
-0.968455
-0.968403
-0.968343
-0.968273
-0.968194
-0.968106
-0.968011
-0.967932
-0.967845
-0.967112
-0.966987
-0.968505
-0.968596
-0.968555
-0.968501
-0.968447
-0.968396
-0.968346
-0.968299
-0.968256
-0.968222
-0.967842
-0.968042
-0.968031
-0.968011
-0.968003
-0.968008
-0.968032
-0.968016
-0.966735
-0.966915
-0.967245
-0.966446
-0.966709
-0.96725
-0.967103
-0.967683
-0.967316
-0.967376
-0.967616
-0.967694
-0.967656
-0.967685
-0.967809
-0.967835
-0.967724
-0.968163
-0.967771
-0.967919
-0.967404
-0.982093
-0.982118
-0.982144
-0.982169
-0.982195
-0.982221
-0.982247
-0.982274
-0.9823
-0.982327
-0.982354
-0.982382
-0.982409
-0.982436
-0.982464
-0.982491
-0.982497
-0.982532
-0.982563
-0.982584
-0.982618
-0.982656
-0.982685
-0.982715
-0.982745
-0.982774
-0.9828
-0.982831
-0.982858
-0.982643
-0.983001
-0.983084
-0.983137
-0.983169
-0.983201
-0.983233
-0.983265
-0.98296
-0.983482
-0.983544
-0.983585
-0.983614
-0.983646
-0.983675
-0.983494
-0.983765
-0.98386
-0.983891
-0.983984
-0.98402
-0.984066
-0.984097
-0.984086
-0.984117
-0.984099
-0.984108
-0.983779
-0.98461
-0.984649
-0.984681
-0.984707
-0.984751
-0.984789
-0.984823
-0.984853
-0.984901
-0.984923
-0.984962
-0.984875
-0.984922
-0.985004
-0.984977
-0.985048
-0.985088
-0.985052
-0.985218
-0.985285
-0.985331
-0.985247
-0.985292
-0.985484
-0.985015
-0.985473
-0.985513
-0.985544
-0.985577
-0.985611
-0.98564
-0.985666
-0.985691
-0.985712
-0.985714
-0.985393
-0.986023
-0.986038
-0.986052
-0.986057
-0.986066
-0.98594
-0.986119
-0.986123
-0.986162
-0.986177
-0.98616
-0.986174
-0.986207
-0.986139
-0.985998
-0.986394
-0.986426
-0.986445
-0.986454
-0.986463
-0.986472
-0.986481
-0.98649
-0.986499
-0.986507
-0.986519
-0.986526
-0.986494
-0.986491
-0.986512
-0.986503
-0.985698
-0.98684
-0.986846
-0.986861
-0.986874
-0.986883
-0.986893
-0.986906
-0.98692
-0.986934
-0.986867
-0.986992
-0.987014
-0.98706
-0.987083
-0.987107
-0.98713
-0.987159
-0.987184
-0.987186
-0.987243
-0.987288
-0.987328
-0.987362
-0.987155
-0.987467
-0.987517
-0.987507
-0.987586
-0.987493
-0.987736
-0.987838
-0.987836
-0.987797
-0.987937
-0.98799
-0.988059
-0.987928
-0.988078
-0.988136
-0.988202
-0.988275
-0.988351
-0.988425
-0.98825
-0.988524
-0.988607
-0.988711
-0.988787
-0.988334
-0.988607
-0.988725
-0.98884
-0.988959
-0.989084
-0.989221
-0.989151
-0.989308
-0.989383
-0.989496
-0.98965
-0.989308
-0.989634
-0.98982
-0.989929
-0.990034
-0.990135
-0.990235
-0.990332
-0.990292
-0.990399
-0.990581
-0.990664
-0.990764
-0.990871
-0.990988
-0.99112
-0.991261
-0.991418
-0.990151
-0.990616
-0.991135
-0.99136
-0.991478
-0.991628
-0.991841
-0.991674
-0.992052
-0.992162
-0.992264
-0.992363
-0.992452
-0.992498
-0.992634
-0.992728
-0.99282
-0.992922
-0.993024
-0.990232
-0.991764
-0.991919
-0.992026
-0.992122
-0.992215
-0.992308
-0.992399
-0.992486
-0.992582
-0.992638
-0.991345
-0.991666
-0.992169
-0.99221
-0.992248
-0.992302
-0.992326
-0.992342