/*--------------------------------*- C++ -*----------------------------------*\
| =========                 |                                                 |
| \\      /  F ield         | OpenFOAM: The Open Source CFD Toolbox           |
|  \\    /   O peration     | Version:  2.4.0                                 |
|   \\  /    A nd           | Web:      www.OpenFOAM.org                      |
|    \\/     M anipulation  |                                                 |
\*---------------------------------------------------------------------------*/
FoamFile
{
    version     2.0;
    format      ascii;
    class       volScalarField;
    location    "2.8";
    object      p_rgh;
}
// * * * * * * * * * * * * * * * * * * * * * * * * * * * * * * * * * * * * * //

dimensions      [1 -1 -2 0 0 0 0];

internalField   nonuniform List<scalar> 
8000
(
58.8367
58.8276
58.8182
58.8099
58.8043
58.796
58.7951
58.7899
58.7842
58.78
58.7777
58.7758
58.7751
58.7752
58.7762
58.7787
58.7812
58.7849
58.7895
58.795
58.8008
58.8087
58.8169
58.8258
58.8358
58.8469
58.8588
58.8718
58.8857
58.9007
58.9167
58.9337
58.9518
58.971
58.9912
59.0125
59.0349
59.0585
59.0831
59.109
59.136
59.1647
59.1952
59.2277
59.2601
59.2885
59.2987
59.2647
58.7549
56.4514
59.2855
59.282
59.278
59.2747
59.2713
59.2687
59.2666
59.2651
59.2619
59.2603
59.259
59.258
59.2573
59.2569
59.2569
59.2572
59.2578
59.2588
59.2602
59.2621
59.2638
59.2658
59.2688
59.272
59.2756
59.2799
59.2822
59.2863
59.2907
59.2958
59.3011
59.3068
59.3127
59.3189
59.3253
59.3321
59.3388
59.346
59.3533
59.3619
59.3726
59.3825
59.3819
59.3657
59.2713
59.067
57.8622
54.8113
49.5837
41.1747
59.9115
59.9099
59.9096
59.9081
59.9082
59.9078
59.9088
59.9086
59.9095
59.9108
59.9121
59.914
59.9162
59.9186
59.9214
59.9245
59.9279
59.9316
59.9356
59.94
59.9446
59.9493
59.9543
59.9597
59.9652
59.9709
59.9769
59.9828
59.9889
59.9951
60.0014
60.0077
60.014
60.0201
60.0262
60.032
60.0385
60.0461
60.0548
60.0589
60.0527
59.9452
59.5602
59.006
55.5846
50.5244
43.217
33.7786
23.4446
13.811
60.3934
60.3938
60.3945
60.3953
60.3965
60.3984
60.4004
60.4025
60.4052
60.4081
60.4114
60.4149
60.4187
60.4229
60.4275
60.4323
60.4375
60.4431
60.4491
60.4555
60.4624
60.4696
60.4774
60.4858
60.4945
60.5038
60.5138
60.5243
60.5355
60.5474
60.5601
60.5734
60.5876
60.6028
60.6205
60.6427
60.6686
60.6843
60.6035
60.1655
59.4256
55.89
49.552
41.149
30.9232
20.9039
12.5711
6.87968
3.54575
1.71088
60.821
60.825
60.8297
60.8345
60.8395
60.8452
60.8509
60.8571
60.8637
60.8707
60.878
60.8857
60.8937
60.9022
60.9111
60.9204
60.9301
60.9404
60.9511
60.9624
60.9742
60.9867
60.9997
61.0135
61.0277
61.0429
61.0586
61.0753
61.0924
61.1107
61.1292
61.1503
61.1747
61.2066
61.2323
61.2027
60.8464
59.9332
57.039
48.9171
38.6566
27.6693
16.9847
8.9828
4.51892
2.22794
1.05044
0.460023
0.164663
0.063323
61.2654
61.274
61.2835
61.2921
61.2997
61.307
61.3138
61.3198
61.3253
61.3302
61.3345
61.3382
61.3413
61.3439
61.3458
61.3472
61.3479
61.3481
61.3475
61.3465
61.3446
61.3423
61.3391
61.3354
61.3307
61.3257
61.3194
61.3124
61.3037
61.2962
61.2958
61.3112
61.3096
61.1254
60.1609
58.4388
51.5025
38.4366
24.4543
14.2432
6.74376
2.83018
0.472244
0.196568
0.156933
0.0628426
0.0117821
0.0044051
-0.000834346
-0.00412241
61.5581
61.5692
61.5808
61.591
61.6004
61.6095
61.6182
61.6259
61.6334
61.6404
61.6469
61.653
61.6586
61.6637
61.6685
61.6728
61.6768
61.6804
61.6838
61.6868
61.6896
61.692
61.6946
61.6964
61.6986
61.6996
61.7009
61.7038
61.7184
61.7464
61.7352
61.3765
60.1311
58.3255
45.1085
26.2136
13.297
4.28246
0.781995
0.15189
-0.0215634
0.0378821
0.0200439
-0.00280712
-0.00427636
-0.00418011
-0.0043524
-0.00448628
-0.00450025
-0.00452215
62.5127
62.5204
62.5296
62.5382
62.5458
62.5529
62.5594
62.565
62.5702
62.5746
62.5785
62.5817
62.5843
62.5863
62.5878
62.5886
62.5891
62.5888
62.5884
62.5872
62.586
62.584
62.5821
62.5785
62.5756
62.5757
62.5931
62.6228
62.5683
61.9591
60.2778
54.5232
34.8141
16.9196
5.11904
-0.180935
0.0285206
0.0653135
-0.000857405
-0.000505386
-0.0047794
-0.00572813
-0.00500302
-0.00474015
-0.00472062
-0.00469127
-0.00468421
-0.00468985
-0.00469829
-0.00470996
62.6993
62.7134
62.7269
62.7374
62.7455
62.7517
62.7561
62.7583
62.7588
62.7573
62.7541
62.7488
62.7418
62.7326
62.7219
62.7089
62.6945
62.6776
62.6595
62.6387
62.6165
62.5905
62.5632
62.5385
62.5361
62.5494
62.432
61.5739
59.4539
50.4664
27.1739
8.31108
-0.469394
0.184183
0.221636
-0.0100932
-0.00724317
-0.00547646
-0.00533822
-0.00531
-0.005329
-0.00531062
-0.00527496
-0.00525052
-0.00523141
-0.00521063
-0.00518964
-0.00516968
-0.00515132
-0.00513477
64.1436
64.1542
64.1657
64.1749
64.1815
64.1861
64.1887
64.189
64.1875
64.1838
64.1782
64.1704
64.1607
64.1486
64.1347
64.1182
64.0999
64.0789
64.0557
64.0283
63.9979
63.9703
63.9697
63.9996
63.8867
62.9544
60.5647
49.4568
22.2064
3.00762
0.0794882
0.253048
0.0358229
-0.00975006
-0.00538294
-0.0041022
-0.0042504
-0.00432816
-0.00450854
-0.00458193
-0.00464502
-0.00469656
-0.00473705
-0.00476879
-0.00479354
-0.00481249
-0.00482653
-0.00483639
-0.00484301
-0.00484693
65.1331
65.1332
65.1313
65.1273
65.1215
65.114
65.1049
65.0938
65.081
65.0663
65.0498
65.0311
65.0106
64.9877
64.963
64.9358
64.9063
64.8729
64.8358
64.8001
64.7907
64.8214
64.737
63.9393
61.7288
51.0018
19.0857
0.861414
0.0996643
0.143973
0.00587792
-0.00413298
-0.00332706
-0.00358029
-0.00346161
-0.0034741
-0.00362262
-0.00375802
-0.00386219
-0.00395273
-0.00403196
-0.00409655
-0.0041522
-0.00419954
-0.0042383
-0.00427058
-0.00430343
-0.00432897
-0.00435104
-0.0043688
67.1941
67.1774
67.1602
67.1453
67.1321
67.1206
67.1104
67.1016
67.0941
67.0882
67.0837
67.0807
67.0793
67.0795
67.0813
67.0839
67.0871
67.0957
67.1297
67.2016
67.1932
66.6312
64.8015
56.8654
21.2385
0.587863
0.0490742
0.0671227
0.0046383
-0.00373288
-0.00375813
-0.00385906
-0.00372687
-0.0037578
-0.00381241
-0.00386019
-0.00390784
-0.00394603
-0.00396955
-0.00400064
-0.00402479
-0.00404138
-0.00406199
-0.00407367
-0.00408721
-0.00408024
-0.00409845
-0.00410556
-0.00411439
-0.00411708
68.6513
68.6396
68.6284
68.6197
68.613
68.6081
68.6049
68.6036
68.604
68.6066
68.6111
68.6179
68.6267
68.6376
68.6491
68.6631
68.6915
68.7632
68.8522
68.6446
67.366
63.5199
27.7833
0.824326
-0.00378014
0.023135
0.000977542
-0.0046018
-0.00443121
-0.00433758
-0.0042918
-0.00424887
-0.00409419
-0.00393978
-0.00307192
-0.0039041
-0.00387955
-0.00385467
-0.00382645
-0.00380321
-0.00378046
-0.00377144
-0.00377345
-0.00374183
-0.00373053
-0.00367055
-0.00370913
-0.0037011
-0.00370672
-0.00369792
69.1454
69.1351
69.1205
69.104
69.0857
69.0659
69.0439
69.0203
68.9946
68.9674
68.938
68.9067
68.8716
68.8335
68.7996
68.7996
68.8392
68.7023
67.6772
65.2527
44.4603
3.75527
-0.0161452
0.00660968
-0.0019256
-0.00348361
-0.00335061
-0.00334666
-0.0033618
-0.00338341
-0.00340067
-0.00341384
-0.00342501
-0.00337607
-0.00333208
-0.0026451
-0.00333376
-0.00327863
-0.00333003
-0.0033749
-0.00335041
-0.0034803
-0.00348645
-0.00347124
-0.0034851
-0.00331222
-0.00354449
-0.00352825
-0.00356558
-0.0035536
71.2633
71.2383
71.2112
71.185
71.1585
71.1318
71.1041
71.0759
71.0468
71.0172
70.9858
70.9523
70.9174
70.8953
70.9085
70.9175
70.5967
69.3385
63.511
15.9108
0.104283
0.00358088
-0.0022388
-0.00333719
-0.0033141
-0.00329781
-0.00331903
-0.00334498
-0.00336964
-0.00338755
-0.00339981
-0.00340799
-0.00341334
-0.00341639
-0.00340805
-0.00340491
-0.003435
-0.00342435
-0.00342111
-0.00335238
-0.00269549
-0.00343024
-0.00342939
-0.00343578
-0.00339633
-0.00286463
-0.00355482
-0.00354457
-0.00356253
-0.00357257
72.1754
72.1583
72.1371
72.1146
72.0912
72.0663
72.0402
72.0125
71.9834
71.9516
71.9177
71.8863
71.8772
71.8943
71.7972
71.1192
69.6155
45.9956
2.11743
0.0115389
-0.00204469
-0.00316263
-0.00324254
-0.00325474
-0.00325216
-0.00325486
-0.003258
-0.00326303
-0.00327392
-0.0032853
-0.00329281
-0.00326824
-0.00325742
-0.00260508
-0.00330508
-0.00331183
-0.00345429
-0.00352133
-0.00333255
-0.00344415
-0.0034554
-0.00344989
-0.00341258
-0.003086
-0.00352669
-0.00353573
-0.00353745
-0.0032579
-0.0036316
-0.00364478
74.2336
74.2083
74.1806
74.1541
74.1291
74.1047
74.0812
74.0577
74.033
74.007
73.9945
74.0341
74.1232
73.9021
72.3603
69.2173
23.9039
0.212914
-0.00182636
-0.0030979
-0.00323792
-0.00339267
-0.00340529
-0.00341744
-0.00344392
-0.00344761
-0.00321351
-0.00328453
-0.00335841
-0.00339886
-0.00341982
-0.00337063
-0.00343414
-0.00345567
-0.00297779
-0.00345842
-0.00351208
-0.00356504
-0.00337025
-0.00368446
-0.00370755
-0.00373236
-0.00376088
-0.00378756
-0.00381069
-0.00383305
-0.00385611
-0.00388085
-0.00390581
-0.00393095
76.1025
76.0629
76.0206
75.9826
75.9481
75.9164
75.8863
75.8573
75.8299
75.8173
75.8482
75.8956
75.6421
74.3687
67.9178
7.99756
0.0118899
-0.00236158
-0.00253677
-0.00275707
-0.00283812
-0.00285782
-0.0028728
-0.00289313
-0.00291953
-0.0029354
-0.00292576
-0.002693
-0.00288493
-0.00295241
-0.00300102
-0.00309996
-0.00311307
-0.00269459
-0.0027345
-0.0033341
-0.00340685
-0.00343224
-0.00345774
-0.00377617
-0.00382401
-0.0038858
-0.00392925
-0.00392436
-0.00398495
-0.00403988
-0.0040968
-0.00414654
-0.00417838
-0.00421787
76.942
76.9051
76.8635
76.8232
76.7844
76.7455
76.7061
76.668
76.6446
76.6497
76.6204
76.2457
75.1455
53.684
1.08847
-0.00282455
-0.0021247
-0.00248126
-0.0026605
-0.00270564
-0.00271992
-0.00273499
-0.0027527
-0.00277052
-0.00278726
-0.00280238
-0.00281198
-0.00281952
-0.00283027
-0.00282787
-0.00282791
-0.00283097
-0.0026231
-0.00175457
-0.00411818
-0.0041128
-0.00411845
-0.00413123
-0.00404794
-0.00313515
-0.00488439
-0.00490244
-0.00493013
-0.00496305
-0.00494349
-0.00387312
-0.00507816
-0.00516649
-0.00521271
-0.00539783
78.3903
78.351
78.3075
78.2657
78.2246
78.183
78.1463
78.132
78.144
78.0444
77.3972
76.0758
34.3614
0.0706076
-0.00182258
-0.00164371
-0.00190337
-0.00204799
-0.00210077
-0.0021348
-0.00216998
-0.00220719
-0.00224545
-0.00228408
-0.00232265
-0.00236074
-0.0023888
-0.00242424
-0.00246598
-0.00247161
-0.00251315
-0.00248118
-0.00208063
-0.00154092
-0.00343807
-0.00345681
-0.00348035
-0.00349047
-0.00331055
-0.00255303
-0.00483533
-0.00483356
-0.00483811
-0.00479361
-0.00453525
-0.00339635
-0.00625685
-0.00614905
-0.00626427
-0.0060219
51.6465
43.4416
31.3072
13.2919
3.21607
0.644342
0.148249
0.0366117
0.00303419
-0.00822879
-0.0117456
-0.0119192
-0.0119809
-0.011998
-0.0119981
-0.0119911
-0.01198
-0.0119666
-0.0119507
-0.0119262
-0.0119004
-0.0118984
-0.0118885
-0.011874
-0.0118594
-0.0118471
-0.0118372
-0.0118305
-0.0118245
-0.0118179
-0.011827
-0.0118289
-0.0118214
-0.0118405
-0.0118521
-0.0117681
-0.0118734
-0.0118934
-0.0118823
-0.0119159
-0.0119546
-0.0118404
-0.0120163
-0.0120628
-0.0120942
-0.0121161
-0.0121688
-0.0121387
-0.0122511
-0.01231
29.0633
17.5378
10.3762
4.83393
1.55242
0.419736
0.115492
0.0291141
0.00126283
-0.00786915
-0.0106451
-0.0108
-0.0108608
-0.0108859
-0.0108957
-0.0108976
-0.0108929
-0.0108857
-0.0108758
-0.0108602
-0.0108418
-0.010843
-0.0108348
-0.0108233
-0.0108107
-0.0107999
-0.0107911
-0.0107857
-0.010783
-0.0107803
-0.0107784
-0.0107804
-0.0107837
-0.0107872
-0.0107944
-0.0108033
-0.0108179
-0.0108325
-0.0108354
-0.0108609
-0.0108793
-0.0109022
-0.0109302
-0.0109539
-0.010979
-0.0109993
-0.011043
-0.0109141
-0.0111919
-0.0112479
6.51385
2.68466
1.29758
0.715766
0.33456
0.125027
0.0399542
0.00733907
-0.00442579
-0.00821126
-0.00926151
-0.00933726
-0.00938272
-0.00941642
-0.00944193
-0.00946161
-0.00947369
-0.00948468
-0.00949373
-0.00950146
-0.00950503
-0.00951416
-0.00952018
-0.00952337
-0.00952577
-0.00952956
-0.00953336
-0.00954189
-0.00955101
-0.00955878
-0.00956808
-0.00957874
-0.00959022
-0.0095971
-0.00961082
-0.00958868
-0.00964649
-0.00967332
-0.00969048
-0.00970918
-0.00972883
-0.00974848
-0.00976648
-0.00979252
-0.00981037
-0.00983943
-0.0098679
-0.00989764
-0.00992365
-0.00995282
0.733885
0.275835
0.109796
0.0615584
0.0366913
0.0151167
0.00129858
-0.00491956
-0.00721063
-0.00796816
-0.00809564
-0.0081458
-0.00817294
-0.00819748
-0.0082201
-0.00823866
-0.00825096
-0.00827128
-0.00828963
-0.00830688
-0.00832475
-0.00834097
-0.00835602
-0.00836967
-0.0083854
-0.00840039
-0.00841835
-0.00843952
-0.00846024
-0.00848017
-0.00850134
-0.00852422
-0.00854811
-0.00856614
-0.00857983
-0.0085211
-0.00864058
-0.00868273
-0.00871053
-0.00873932
-0.00876867
-0.00879693
-0.00880707
-0.00887554
-0.00890813
-0.00894541
-0.00898217
-0.00901951
-0.00905585
-0.00909276
0.0259224
0.00808979
0.000422781
-0.00215598
-0.00338372
-0.00493511
-0.0060307
-0.00648626
-0.00661458
-0.00668663
-0.00674011
-0.00678289
-0.00682148
-0.00685954
-0.00689457
-0.00689003
-0.00691366
-0.00699367
-0.00703011
-0.00706479
-0.00709829
-0.00713108
-0.00716221
-0.00719388
-0.00722654
-0.00725755
-0.00729348
-0.00732893
-0.00736287
-0.00739645
-0.00743053
-0.00746626
-0.00750235
-0.00753759
-0.00757364
-0.00759957
-0.00764289
-0.00768199
-0.00771874
-0.00775699
-0.00779466
-0.00783118
-0.00778765
-0.00793224
-0.00796803
-0.0080105
-0.00805035
-0.00809125
-0.00813198
-0.00817261
-0.00510359
-0.00527923
-0.00541906
-0.00553925
-0.00561927
-0.00563477
-0.00566612
-0.00570356
-0.00574834
-0.00579187
-0.00583213
-0.00587212
-0.00591298
-0.00595641
-0.00599294
-0.00599769
-0.00600365
-0.00612664
-0.00616764
-0.00620748
-0.00624631
-0.00628501
-0.00632343
-0.00636261
-0.0064015
-0.00644138
-0.00648255
-0.00652347
-0.00656225
-0.00660241
-0.00664193
-0.00668309
-0.00672499
-0.00676523
-0.00680623
-0.00684758
-0.0068889
-0.00693041
-0.00697184
-0.0070123
-0.00705453
-0.00703121
-0.00708584
-0.00715154
-0.00714329
-0.00726765
-0.00731967
-0.0073639
-0.00740984
-0.00745489
-0.00455091
-0.00457706
-0.00461616
-0.00469721
-0.00474354
-0.00478793
-0.00483436
-0.00488208
-0.00492945
-0.00497759
-0.00502597
-0.0050767
-0.00512833
-0.00517947
-0.00522812
-0.0052767
-0.00532344
-0.00536984
-0.00541861
-0.00546486
-0.00551051
-0.00555571
-0.00560039
-0.00564473
-0.0056888
-0.00573268
-0.00577686
-0.0058212
-0.00586314
-0.00590689
-0.00594875
-0.00598406
-0.00603119
-0.00607316
-0.00611492
-0.00615709
-0.00619891
-0.00624067
-0.00628244
-0.00632427
-0.00636503
-0.0064036
-0.00644957
-0.00643773
-0.00654429
-0.00659388
-0.00663621
-0.00667995
-0.00672291
-0.00676619
-0.004723
-0.00473783
-0.00475558
-0.00477593
-0.00479788
-0.00482098
-0.0048452
-0.00487044
-0.0048969
-0.00492481
-0.0049544
-0.00498534
-0.00501663
-0.00504672
-0.00507695
-0.00510765
-0.00513874
-0.00517033
-0.00520216
-0.00523324
-0.00526455
-0.0052959
-0.00532707
-0.00535808
-0.00538928
-0.00542092
-0.00545119
-0.00548058
-0.00551572
-0.00554834
-0.00557583
-0.00556033
-0.00564811
-0.00568544
-0.00571806
-0.00575191
-0.00578519
-0.00581875
-0.00585263
-0.00588689
-0.00592155
-0.00595658
-0.00599126
-0.00602533
-0.00606233
-0.00609966
-0.00613709
-0.00617442
-0.00621233
-0.0062507
-0.00512004
-0.00510707
-0.00509595
-0.00508675
-0.00507938
-0.00507364
-0.0050694
-0.00506656
-0.00506513
-0.00506522
-0.00506699
-0.00507088
-0.00507628
-0.00508091
-0.00508666
-0.00509327
-0.0051011
-0.00510976
-0.00512206
-0.00513268
-0.00514443
-0.00515707
-0.00517035
-0.00518427
-0.00519878
-0.00521299
-0.00522876
-0.00519696
-0.00527395
-0.00529053
-0.00530973
-0.00532759
-0.00535005
-0.0053719
-0.00539403
-0.00541624
-0.00543911
-0.00546264
-0.00548685
-0.00551173
-0.00553728
-0.00556351
-0.00559038
-0.00561788
-0.005646
-0.00567474
-0.00570407
-0.00573406
-0.00576484
-0.00579616
-0.00484889
-0.00484887
-0.00484786
-0.00484631
-0.00484456
-0.00484278
-0.00484107
-0.00483947
-0.00483792
-0.0048364
-0.00483523
-0.00483571
-0.00483893
-0.00483996
-0.0048423
-0.00483928
-0.00483763
-0.00480037
-0.00485914
-0.00486466
-0.00487151
-0.00487954
-0.00488818
-0.00489757
-0.0049077
-0.00491855
-0.0049295
-0.00493994
-0.00495527
-0.00493372
-0.00498732
-0.00500226
-0.00501812
-0.00503495
-0.00505236
-0.0050704
-0.00508912
-0.00510853
-0.00512861
-0.00514936
-0.00517077
-0.00519284
-0.00521554
-0.00523888
-0.00526285
-0.00528743
-0.00531264
-0.00533852
-0.00536515
-0.00539235
-0.00438534
-0.00439691
-0.00440656
-0.00441459
-0.00442182
-0.00442836
-0.00443426
-0.00443962
-0.0044446
-0.00444937
-0.00445401
-0.00445853
-0.00446293
-0.00446807
-0.0044735
-0.00447935
-0.00448572
-0.0044926
-0.00449983
-0.00450785
-0.00451655
-0.00452586
-0.00453581
-0.0045464
-0.00455762
-0.00456946
-0.00458191
-0.00459495
-0.00460735
-0.00462067
-0.00461288
-0.00465372
-0.00467059
-0.00468721
-0.00470485
-0.00472279
-0.00474132
-0.00476045
-0.00478017
-0.00480046
-0.00482132
-0.00484274
-0.00486472
-0.00488725
-0.00491033
-0.00493395
-0.00495811
-0.00498285
-0.00500824
-0.00503408
-0.00412777
-0.00412989
-0.00413268
-0.00413377
-0.00413571
-0.00413811
-0.00414074
-0.00414349
-0.00414639
-0.00414958
-0.00415315
-0.00415716
-0.00416166
-0.00416665
-0.00417212
-0.00417803
-0.00418468
-0.00419195
-0.00420174
-0.00421059
-0.0042204
-0.00423104
-0.00424236
-0.00425441
-0.00426716
-0.00428059
-0.00429465
-0.00430928
-0.00432453
-0.0043403
-0.0043565
-0.00437332
-0.00439131
-0.00440961
-0.00442835
-0.0044476
-0.00446738
-0.00448767
-0.00450846
-0.00452974
-0.0045515
-0.00457372
-0.00459641
-0.00461954
-0.00464312
-0.00466714
-0.0046916
-0.00471652
-0.00474196
-0.00476777
-0.00371404
-0.00371199
-0.0037186
-0.00372059
-0.00372615
-0.00373305
-0.0037409
-0.00374951
-0.00375883
-0.00376888
-0.00377969
-0.00379122
-0.00380344
-0.00381632
-0.00382985
-0.00383722
-0.00384611
-0.00382959
-0.00388805
-0.00390399
-0.00392092
-0.00393873
-0.00395691
-0.00397564
-0.00399494
-0.00401482
-0.00403513
-0.00405571
-0.00407668
-0.00409814
-0.00412002
-0.00414231
-0.00416498
-0.00418796
-0.00421123
-0.0042348
-0.00425866
-0.00428283
-0.00430728
-0.00433201
-0.004357
-0.00438225
-0.00440775
-0.00443351
-0.0044595
-0.00448574
-0.00451221
-0.00453894
-0.00456599
-0.0045932
-0.00357847
-0.00357456
-0.00359482
-0.00359866
-0.0036092
-0.00362077
-0.00363268
-0.00364517
-0.00365824
-0.00367192
-0.00368619
-0.00370104
-0.00371644
-0.00373239
-0.00374888
-0.00376591
-0.00378342
-0.00380145
-0.00381993
-0.00383922
-0.00385891
-0.00387901
-0.00389952
-0.0039205
-0.003942
-0.00396413
-0.00398668
-0.00400931
-0.00403224
-0.00405559
-0.0040793
-0.00410333
-0.00412765
-0.00415221
-0.00417697
-0.00420195
-0.00422714
-0.00425253
-0.00427812
-0.00430389
-0.00432983
-0.00435593
-0.00438218
-0.00440857
-0.00443511
-0.00446177
-0.00448857
-0.0045155
-0.00454263
-0.00456984
-0.00358191
-0.00359373
-0.00360443
-0.00361742
-0.00363096
-0.00364522
-0.00366016
-0.00367579
-0.00369206
-0.00370892
-0.00372634
-0.0037443
-0.00376279
-0.00378181
-0.00380137
-0.00382146
-0.00384207
-0.00386316
-0.00388473
-0.00390677
-0.00392923
-0.00395208
-0.00397531
-0.00399887
-0.00402276
-0.00404696
-0.00407145
-0.0040962
-0.00412119
-0.0041464
-0.0041718
-0.00419739
-0.00422313
-0.00424902
-0.00427503
-0.00430115
-0.00432736
-0.00435365
-0.00438001
-0.00440642
-0.00443288
-0.00445938
-0.00448591
-0.00451246
-0.00453902
-0.0045656
-0.00459219
-0.00461878
-0.00464542
-0.00467206
-0.00366198
-0.00367994
-0.00369798
-0.00371666
-0.00373617
-0.00375636
-0.00377714
-0.00379838
-0.00381998
-0.00384194
-0.0038643
-0.00388709
-0.0039103
-0.00393393
-0.00395796
-0.0039824
-0.00400721
-0.00403236
-0.00405783
-0.00408359
-0.00410961
-0.00413587
-0.00416235
-0.00418901
-0.00421583
-0.00424278
-0.00426984
-0.00429699
-0.0043242
-0.00435145
-0.00437874
-0.00440602
-0.0044333
-0.00446056
-0.00448777
-0.00451492
-0.00454201
-0.00456902
-0.00459594
-0.00462276
-0.00464948
-0.00467609
-0.00470258
-0.00472896
-0.00475522
-0.00478135
-0.00480737
-0.00483325
-0.00485902
-0.00488469
-0.00395469
-0.00397781
-0.00400232
-0.00402967
-0.00405689
-0.00408341
-0.00410915
-0.00413388
-0.00415877
-0.00418413
-0.00420995
-0.00423597
-0.00426214
-0.00428845
-0.00431498
-0.00434176
-0.00436877
-0.00439592
-0.00442313
-0.00445039
-0.0044777
-0.00450507
-0.00453243
-0.00455976
-0.00458701
-0.00461416
-0.00464118
-0.00466806
-0.0046948
-0.00472138
-0.00474778
-0.00477399
-0.00480001
-0.00482582
-0.00485143
-0.00487683
-0.004902
-0.00492696
-0.00495169
-0.00497619
-0.00500048
-0.00502454
-0.00504837
-0.005072
-0.00509541
-0.00511861
-0.00514161
-0.00516439
-0.00518696
-0.00520942
-0.00425188
-0.00424077
-0.00417278
-0.00435777
-0.00439723
-0.00442811
-0.00446156
-0.00449535
-0.00452652
-0.0045708
-0.00460595
-0.00463851
-0.00467039
-0.00470204
-0.00473324
-0.00476525
-0.00479711
-0.00482775
-0.00485755
-0.00488719
-0.00491679
-0.0049463
-0.0049756
-0.00500453
-0.00503295
-0.00506083
-0.00508822
-0.00511517
-0.00514166
-0.00516768
-0.00519323
-0.00521831
-0.00524293
-0.00526708
-0.00529078
-0.00531403
-0.00533684
-0.00535924
-0.00538121
-0.00540279
-0.00542397
-0.00544478
-0.00546523
-0.00548533
-0.0055051
-0.00552456
-0.00554372
-0.00556255
-0.00558108
-0.00559945
-0.00460812
-0.00464333
-0.00519197
-0.00523656
-0.00524627
-0.00524909
-0.00519405
-0.00428385
-0.00530566
-0.00536203
-0.00536447
-0.00538787
-0.00540055
-0.00540592
-0.00541265
-0.00545032
-0.00550506
-0.00552842
-0.00554923
-0.00557153
-0.00559552
-0.00562051
-0.00564592
-0.00567118
-0.00569411
-0.00571493
-0.00573475
-0.00575392
-0.00577241
-0.00579021
-0.00580732
-0.00582379
-0.00583966
-0.00585495
-0.00586969
-0.00588394
-0.00589775
-0.00591116
-0.00592419
-0.0059369
-0.0059493
-0.00596143
-0.00597331
-0.00598498
-0.00599646
-0.00600777
-0.00601893
-0.00602993
-0.00604077
-0.00605164
-0.00460035
-0.00701572
-0.0071592
-0.00717274
-0.00720761
-0.00712723
-0.0053448
-0.00542455
-0.00596782
-0.00603454
-0.0060763
-0.00611539
-0.00615459
-0.00602921
-0.00422725
-0.00612646
-0.00629583
-0.00632979
-0.00635583
-0.00636885
-0.0063684
-0.00636321
-0.00639802
-0.00645843
-0.00647521
-0.00648015
-0.00648463
-0.00648967
-0.00649519
-0.00650025
-0.00650478
-0.00650897
-0.00651309
-0.00651645
-0.0065191
-0.00652131
-0.00652309
-0.0065245
-0.00652561
-0.00652649
-0.00652717
-0.0065277
-0.00652814
-0.0065285
-0.00652882
-0.00652913
-0.00652944
-0.00652974
-0.00653006
-0.00653057
-0.0123658
-0.0123677
-0.0123691
-0.0124085
-0.0124378
-0.0124783
-0.012509
-0.0125388
-0.0125699
-0.0126019
-0.0123857
-0.0125712
-0.0126617
-0.0127257
-0.0127591
-0.0127941
-0.0128279
-0.0128634
-0.0128926
-0.0122971
-0.0127373
-0.0128121
-0.0128831
-0.0129574
-0.0129964
-0.0130362
-0.0130749
-0.012954
-0.0130099
-0.0130979
-0.012529
-0.0133485
-0.013539
-0.0136668
-0.0137033
-0.0136959
-0.0137904
-0.0138128
-0.0138361
-0.0138606
-0.0135694
-0.0138156
-0.0138851
-0.0138898
-0.0139487
-0.0139967
-0.0140343
-0.0140515
-0.0140079
-0.0140404
-0.0145357
-0.0146062
-0.0146302
-0.0146607
-0.0146964
-0.0147061
-0.0146739
-0.014592
-0.0146489
-0.0147579
-0.0147965
-0.014823
-0.0148511
-0.0148862
-0.0148967
-0.0148453
-0.0148813
-0.0153694
-0.0154682
-0.0154866
-0.0155293
-0.0155806
-0.0155667
-0.0155308
-0.0155635
-0.0160639
-0.0161858
-0.0162201
-0.0162689
-0.0163241
-0.016353
-0.016336
-0.0159606
-0.0160278
-0.0161996
-0.016313
-0.0163689
-0.0164317
-0.0164948
-0.0165621
-0.0166222
-0.0166
-0.0160666
-0.0161769
-0.0163618
-0.0161321
-0.016205
-0.0162305
-0.0155154
-0.0155811
-0.0157448
-0.0158392
-0.0158897
-0.0159481
-0.0159225
-0.0155356
-0.0156427
-0.0162781
-0.0157111
-0.0157304
-0.0158692
-0.0159418
-0.0159285
-0.0159196
-0.0159225
-0.0158174
-0.0156444
-0.015812
-0.0159013
-0.0158391
-0.016239
-0.0157645
-0.0160171
-0.0154952
-0.0155468
-0.0155036
-0.0147218
-0.0147422
-0.0150342
-0.0150374
-0.0150848
-0.0150634
-0.0150948
-0.0151608
-0.0151554
-0.0151513
-0.0144304
-0.0144913
-0.0146504
-0.0146732
-0.0146937
-0.0147779
-0.0147897
-0.0143092
-0.0148666
-0.0149081
-0.0149386
-0.0149767
-0.0150578
-0.0151054
-0.0122793
-0.0140158
-0.0144729
-0.0144818
-0.014509
-0.0144599
-0.0105266
-0.0131569
-0.0133928
-0.0133672
-0.0133206
-0.0132547
-0.0131832
-0.0130058
-0.012535
-0.0123809
-0.0139394
-0.0142015
-0.0142043
-0.0141686
-0.0141312
-0.0140316
-0.014088
-0.0140723
-0.014063
-0.01406
-0.0140632
-0.0140712
-0.0139975
-0.0132479
-0.0116375
-0.0117304
-0.0126593
-0.0130737
-0.0131951
-0.013275
-0.0133449
-0.0134107
-0.0134724
-0.0135342
-0.0136013
-0.0136506
-0.0133154
-0.013056
-0.0130892
-0.0131936
-0.0136738
-0.0140647
-0.0141766
-0.0142566
-0.0143491
-0.0141637
-0.014385
-0.0145034
-0.0145674
-0.0146344
-0.0147033
-0.0147757
-0.0148445
-0.0147254
-0.0139299
-0.0140299
-0.0145559
-0.0146953
-0.0147718
-0.0148524
-0.0149279
-0.0149997
-0.0150647
-0.0151228
-0.0151982
-0.0152621
-0.0153241
-0.0153301
-0.0151984
-0.0152619
-0.0154155
-0.015472
-0.0155238
-0.0155832
-0.0156092
-0.0156346
-0.015663
-0.0156807
-0.0156962
-0.0155782
-0.0152962
-0.0152631
-0.0159945
-0.0161015
-0.0160799
-0.0160907
-0.0161067
-0.0161205
-0.016133
-0.0160825
-0.0158663
-0.0158578
-0.0161356
-0.0163148
-0.0163709
-0.0164073
-0.0164477
-0.0164907
-0.0165079
-0.0165687
-0.0166094
-0.0166882
-0.0160827
-0.0163927
-0.0168393
-0.0169444
-0.0170085
-0.0170708
-0.0169638
-0.0165851
-0.0170316
-0.0171494
-0.0171519
-0.0171458
-0.0171358
-0.017128
-0.0171092
-0.0169783
-0.0169844
-0.0170098
-0.0170153
-0.0170434
-0.017072
-0.0168743
-0.0129631
-0.0152241
-0.0164002
-0.0160578
-0.0161733
-0.016095
-0.0146835
-0.0163044
-0.0158991
-0.016398
-0.0152402
-0.0166392
-0.0168576
-0.0168651
-0.0170439
-0.0162165
-0.0166786
-0.0169104
-0.0169693
-0.0171629
-0.0112795
-0.011304
-0.0113285
-0.0113545
-0.0113806
-0.0114071
-0.0114344
-0.0114623
-0.0114908
-0.0115195
-0.0115483
-0.0115764
-0.0116056
-0.0116349
-0.0116661
-0.0116986
-0.0117174
-0.0117569
-0.0117983
-0.0110314
-0.011631
-0.0117015
-0.0118047
-0.0118661
-0.0119036
-0.0119418
-0.0119809
-0.0120212
-0.012061
-0.0121012
-0.0115423
-0.0124754
-0.0125887
-0.0126963
-0.0127428
-0.0127918
-0.0127942
-0.0128204
-0.0131313
-0.0132084
-0.0132557
-0.0133102
-0.0133664
-0.0134237
-0.0134483
-0.0134718
-0.0129934
-0.0130788
-0.0132418
-0.0133056
-0.0133725
-0.0134425
-0.0135117
-0.0135857
-0.013592
-0.012775
-0.0128996
-0.0130889
-0.0131733
-0.0132418
-0.0133051
-0.0133685
-0.0134385
-0.0134962
-0.0134869
-0.0130459
-0.0139723
-0.0140736
-0.0141208
-0.0141756
-0.0142309
-0.0142061
-0.0136466
-0.013749
-0.0139203
-0.0139798
-0.0140236
-0.0140646
-0.0141043
-0.0140859
-0.0139746
-0.0138592
-0.0151135
-0.0152061
-0.0152253
-0.0152453
-0.0152636
-0.0152776
-0.0152944
-0.0153011
-0.01521
-0.0145808
-0.0147319
-0.0148665
-0.0147695
-0.0147439
-0.0147272
-0.0146321
-0.0143518
-0.0152581
-0.0152982
-0.0152983
-0.0152951
-0.0152914
-0.0152881
-0.0151611
-0.0142938
-0.0143537
-0.0145671
-0.0146177
-0.0146198
-0.0146217
-0.0146196
-0.0145997
-0.014568
-0.0144579
-0.0141031
-0.0147147
-0.0147633
-0.0147302
-0.0148698
-0.014645
-0.0146212
-0.0146657
-0.0145404
-0.0143849
-0.0142885
-0.0143803
-0.0145025
-0.0143873
-0.0143273
-0.014117
-0.0141147
-0.0141723
-0.0140259
-0.0139137
-0.0142678
-0.01426
-0.0141917
-0.0143037
-0.0142994
-0.0143156
-0.0140103
-0.014485
-0.0144596
-0.0144833
-0.0144766
-0.0145066
-0.0140803
-0.014243
-0.0141786
-0.0141949
-0.0142228
-0.0142102
-0.0142449
-0.013381
-0.0135373
-0.0140066
-0.0140165
-0.0140073
-0.0140371
-0.0140678
-0.0141006
-0.0138559
-0.0118037
-0.0129973
-0.0133926
-0.013517
-0.013545
-0.0135662
-0.0135778
-0.0135835
-0.0135764
-0.01342
-0.013708
-0.0137144
-0.0137219
-0.0137313
-0.0137455
-0.0137693
-0.0138246
-0.0133905
-0.0121418
-0.0121345
-0.0123442
-0.0133252
-0.0141373
-0.0143379
-0.0144151
-0.0144873
-0.0145585
-0.0146261
-0.0146856
-0.0144701
-0.0127244
-0.0149777
-0.0152716
-0.0153733
-0.0154652
-0.0155632
-0.0156647
-0.0156498
-0.0135338
-0.0145931
-0.0150735
-0.0151987
-0.0152966
-0.0153849
-0.0154633
-0.0155306
-0.0154493
-0.0149967
-0.0149965
-0.0151958
-0.0156733
-0.0159364
-0.0160113
-0.0160714
-0.0161268
-0.0161645
-0.016149
-0.0160091
-0.0163523
-0.016407
-0.0164127
-0.0164162
-0.016425
-0.0163512
-0.0160297
-0.0159673
-0.016342
-0.0166348
-0.016641
-0.0166817
-0.0166851
-0.0166924
-0.0167195
-0.0166006
-0.0160421
-0.016019
-0.0162841
-0.0167406
-0.0169445
-0.0169637
-0.0169661
-0.0169613
-0.0169518
-0.0168537
-0.0165762
-0.0165384
-0.016794
-0.0169643
-0.0169811
-0.0169418
-0.0168944
-0.016836
-0.0167636
-0.0166705
-0.0163144
-0.014345
-0.0137675
-0.0172804
-0.0177279
-0.0176989
-0.0176312
-0.0175763
-0.017518
-0.0174581
-0.0174033
-0.0173521
-0.0170648
-0.0170696
-0.0171342
-0.0170596
-0.0169794
-0.0168906
-0.016789
-0.0166691
-0.0165078
-0.0156844
-0.0144571
-0.014231
-0.0157823
-0.0165497
-0.0159989
-0.0166095
-0.0161781
-0.0161848
-0.0162671
-0.0167063
-0.0170692
-0.0171447
-0.0172353
-0.0173542
-0.0174209
-0.0168533
-0.0171471
-0.0169424
-0.0170982
-0.0166806
-0.00997665
-0.00999515
-0.0100146
-0.0100343
-0.0100542
-0.0100744
-0.010095
-0.0101158
-0.0101368
-0.0101579
-0.0101789
-0.0101997
-0.0102204
-0.0102417
-0.0102639
-0.0101869
-0.0102213
-0.0103036
-0.0101392
-0.0101643
-0.0102214
-0.0102858
-0.0103332
-0.0103556
-0.0103778
-0.0103999
-0.0104218
-0.0104433
-0.010463
-0.0104798
-0.010056
-0.0107798
-0.0108554
-0.0109218
-0.0109394
-0.0109596
-0.0108995
-0.0106447
-0.0115547
-0.0116258
-0.0116525
-0.0116699
-0.0116855
-0.0116707
-0.0116899
-0.0116756
-0.0116271
-0.0112892
-0.012282
-0.0123239
-0.0123576
-0.0123757
-0.0123943
-0.0124142
-0.0123923
-0.0111708
-0.0118889
-0.0120004
-0.0120204
-0.0120399
-0.012056
-0.0120784
-0.0120968
-0.0121141
-0.0121306
-0.0120143
-0.0118726
-0.012463
-0.0125013
-0.0125028
-0.0125074
-0.0125072
-0.0124218
-0.0117681
-0.0132625
-0.013226
-0.0132413
-0.0132372
-0.0132327
-0.013212
-0.0130913
-0.0121645
-0.0142422
-0.0142469
-0.0142445
-0.0142424
-0.0142433
-0.0142464
-0.014251
-0.0142568
-0.0142232
-0.0137529
-0.0133951
-0.0142702
-0.0142967
-0.0142929
-0.0142782
-0.0136229
-0.014096
-0.0141523
-0.0141543
-0.0141501
-0.0141384
-0.0141367
-0.0141287
-0.014013
-0.0126065
-0.0141334
-0.0142163
-0.0142109
-0.014203
-0.0141924
-0.0141835
-0.0141758
-0.0141688
-0.0141616
-0.0141561
-0.0137489
-0.0141164
-0.0141213
-0.0140962
-0.0140847
-0.0140723
-0.0139264
-0.0134622
-0.0136098
-0.0137607
-0.0137642
-0.0137573
-0.0137567
-0.013749
-0.0137405
-0.0137324
-0.0137162
-0.0135616
-0.0131946
-0.0141948
-0.0142688
-0.0142634
-0.0142547
-0.0142346
-0.0142171
-0.0136694
-0.0144408