/*--------------------------------*- C++ -*----------------------------------*\
| =========                 |                                                 |
| \\      /  F ield         | OpenFOAM: The Open Source CFD Toolbox           |
|  \\    /   O peration     | Version:  2.4.0                                 |
|   \\  /    A nd           | Web:      www.OpenFOAM.org                      |
|    \\/     M anipulation  |                                                 |
\*---------------------------------------------------------------------------*/
FoamFile
{
    version     2.0;
    format      ascii;
    class       surfaceScalarField;
    location    "2.8";
    object      phi;
}
// * * * * * * * * * * * * * * * * * * * * * * * * * * * * * * * * * * * * * //

dimensions      [0 3 -1 0 0 0 0];

internalField   nonuniform List<scalar> 
15580
(
-9.43241e-14
-2.19374e-12
-3.48223e-13
-6.52345e-12
-7.43963e-13
-1.07872e-11
-1.26947e-12
-1.49817e-11
-1.9129e-12
-1.91062e-11
-2.66251e-12
-2.31607e-11
-3.5071e-12
-2.71454e-11
-4.43552e-12
-3.10593e-11
-5.4361e-12
-3.49013e-11
-6.49726e-12
-3.86704e-11
-7.60741e-12
-4.23656e-11
-8.75514e-12
-4.59865e-11
-9.92877e-12
-4.95322e-11
-1.11167e-11
-5.30021e-11
-1.23075e-11
-5.63957e-11
-1.34899e-11
-5.97125e-11
-1.46522e-11
-6.29519e-11
-1.57832e-11
-6.61139e-11
-1.68721e-11
-6.91981e-11
-1.7908e-11
-7.22044e-11
-1.88805e-11
-7.51325e-11
-1.97794e-11
-7.79824e-11
-2.05946e-11
-8.07544e-11
-2.13166e-11
-8.34483e-11
-2.19362e-11
-8.60644e-11
-2.24449e-11
-8.86025e-11
-2.28343e-11
-9.10632e-11
-2.30966e-11
-9.34466e-11
-2.32244e-11
-9.57531e-11
-2.3211e-11
-9.79831e-11
-2.305e-11
-1.00137e-10
-2.27357e-11
-1.02215e-10
-2.22627e-11
-1.04218e-10
-2.16266e-11
-1.06147e-10
-2.08231e-11
-1.08001e-10
-1.98489e-11
-1.09781e-10
-1.87012e-11
-1.11489e-10
-1.73775e-11
-1.13124e-10
-1.58766e-11
-1.14687e-10
-1.41962e-11
-1.1618e-10
-1.23362e-11
-1.17601e-10
-1.02917e-11
-1.18957e-10
-8.05983e-12
-1.20245e-10
-5.62586e-12
-1.21478e-10
-3.02372e-12
-1.22607e-10
-3.27322e-13
-1.23587e-10
2.40859e-12
-1.2448e-10
4.43835e-12
-1.25322e-10
5.78367e-12
-1.25665e-10
-1.26038e-10
7.99271e-12
-2.69749e-14
-2.16677e-12
-1.14095e-13
-6.43633e-12
-2.58399e-13
-1.06429e-11
-4.53074e-13
-1.4787e-11
-6.90983e-13
-1.88683e-11
-9.64793e-13
-2.28869e-11
-1.26748e-12
-2.68427e-11
-1.59174e-12
-3.0735e-11
-1.93002e-12
-3.4563e-11
-2.27456e-12
-3.83259e-11
-2.61706e-12
-4.20231e-11
-2.94939e-12
-4.56542e-11
-3.26305e-12
-4.92185e-11
-3.54945e-12
-5.27157e-11
-3.79983e-12
-5.61453e-11
-4.0054e-12
-5.95069e-11
-4.15703e-12
-6.28003e-11
-4.2458e-12
-6.60251e-11
-4.26279e-12
-6.91811e-11
-4.19922e-12
-7.2268e-11
-4.046e-12
-7.52857e-11
-3.79428e-12
-7.82341e-11
-3.43575e-12
-8.11129e-11
-2.96192e-12
-8.39222e-11
-2.36473e-12
-8.66615e-11
-1.63589e-12
-8.93314e-11
-7.6808e-13
-9.1931e-11
2.46382e-13
-9.4461e-11
1.41366e-12
-9.69204e-11
2.74109e-12
-9.93105e-11
4.23333e-12
-1.01629e-10
5.89748e-12
-1.03879e-10
7.73634e-12
-1.06057e-10
9.75702e-12
-1.08167e-10
1.19599e-11
-1.10204e-10
1.43526e-11
-1.12174e-10
1.69326e-11
-1.14069e-10
1.97088e-11
-1.159e-10
2.26763e-11
-1.17655e-10
2.58523e-11
-1.19356e-10
2.92378e-11
-1.20987e-10
3.28869e-11
-1.22606e-10
3.65346e-11
-1.23892e-10
4.01608e-11
-1.25105e-10
4.32527e-11
-1.2614e-10
4.36362e-11
-1.27023e-10
4.41225e-11
-1.27066e-10
4.58352e-11
-1.27062e-10
4.72132e-11
-1.27043e-10
-1.26925e-10
4.81004e-11
-1.77896e-14
-2.14898e-12
-6.05618e-14
-6.39356e-12
-1.20792e-13
-1.05827e-11
-1.92196e-13
-1.47156e-11
-2.6835e-13
-1.87921e-11
-3.43092e-13
-2.28122e-11
-4.10029e-13
-2.67758e-11
-4.62635e-13
-3.06824e-11
-4.94123e-13
-3.45315e-11
-4.97417e-13
-3.83226e-11
-4.65395e-13
-4.20552e-11
-3.90565e-13
-4.5729e-11
-2.65417e-13
-4.93436e-11
-8.20873e-14
-5.2899e-11
1.67295e-13
-5.63947e-11
4.91041e-13
-5.98307e-11
8.97384e-13
-6.32066e-11
1.39509e-12
-6.65228e-11
1.99277e-12
-6.97787e-11
2.69967e-12
-7.29749e-11
3.52478e-12
-7.61108e-11
4.47774e-12
-7.91871e-11
5.56805e-12
-8.22032e-11
6.80584e-12
-8.516e-11
8.20095e-12
-8.80567e-11
9.76386e-12
-9.08943e-11
1.15049e-11
-9.3672e-11
1.34346e-11
-9.63907e-11
1.55638e-11
-9.90496e-11
1.79028e-11
-1.01649e-10
2.04631e-11
-1.0419e-10
2.32541e-11
-1.0667e-10
2.62883e-11
-1.09091e-10
2.95733e-11
-1.11452e-10
3.31233e-11
-1.13754e-10
3.6944e-11
-1.15995e-10
4.10568e-11
-1.18181e-10
4.54755e-11
-1.20319e-10
5.02559e-11
-1.22435e-10
5.51852e-11
-1.24286e-10
6.0156e-11
-1.25958e-10
6.46814e-11
-1.27396e-10
6.70453e-11
-1.29521e-10
5.98016e-11
-1.29569e-10
6.23479e-11
-1.29217e-10
6.41691e-11
-1.28861e-10
6.55848e-11
-1.28482e-10
6.65848e-11
-1.28062e-10
6.73537e-11
-1.27812e-10
-1.28165e-10
6.85931e-11
1.13083e-15
-2.15011e-12
1.08272e-14
-6.40325e-12
3.55917e-14
-1.06074e-11
8.16304e-14
-1.47617e-11
1.54908e-13
-1.88654e-11
2.61017e-13
-2.29183e-11
4.05276e-13
-2.69201e-11
5.92925e-13
-3.08701e-11
8.2916e-13
-3.47677e-11
1.11914e-12
-3.86126e-11
1.46817e-12
-4.24042e-11
1.88149e-12
-4.61423e-11
2.36461e-12
-4.98268e-11
2.92297e-12
-5.34574e-11
3.56249e-12
-5.70342e-11
4.28895e-12
-6.05571e-11
5.1089e-12
-6.40266e-11
6.02857e-12
-6.74425e-11
7.05535e-12
-7.08055e-11
8.19605e-12
-7.41156e-11
9.45917e-12
-7.73739e-11
1.08521e-11
-8.05801e-11
1.23848e-11
-8.37359e-11
1.40653e-11
-8.68405e-11
1.59051e-11
-8.98965e-11
1.79133e-11
-9.29024e-11
2.01027e-11
-9.58614e-11
2.24832e-11
-9.87713e-11
2.50695e-11
-1.01636e-10
2.7872e-11
-1.04452e-10
3.09064e-11
-1.07224e-10
3.41837e-11
-1.09948e-10
3.77197e-11
-1.12627e-10
4.15284e-11
-1.15261e-10
4.56348e-11
-1.1786e-10
5.0077e-11
-1.20437e-10
5.47934e-11
-1.22898e-10
5.9471e-11
-1.24997e-10
6.39215e-11
-1.2696e-10
6.57328e-11
-1.29336e-10
5.57824e-11
-1.30205e-10
5.34382e-11
-1.2979e-10
5.28474e-11
-1.29017e-10
5.14385e-11
-1.28163e-10
4.91585e-11
-1.26937e-10
4.5965e-11
-1.25668e-10
4.21569e-11
-1.24674e-10
3.76683e-11
-1.23574e-10
3.06743e-11
-1.20818e-10
-1.17358e-10
1.98678e-11
3.49816e-14
-2.18509e-12
1.41032e-13
-6.5093e-12
3.20931e-13
-1.07873e-11
5.77767e-13
-1.50185e-11
9.14043e-13
-1.92017e-11
1.33168e-12
-2.33359e-11
1.8322e-12
-2.74206e-11
2.41687e-12
-3.14547e-11
3.08696e-12
-3.54378e-11
3.84351e-12
-3.93691e-11
4.68781e-12
-4.32485e-11
5.6209e-12
-4.70754e-11
6.64428e-12
-5.08501e-11
7.7592e-12
-5.45723e-11
8.96751e-12
-5.82425e-11
1.02709e-11
-6.18605e-11
1.16716e-11
-6.54273e-11
1.3172e-11
-6.89428e-11
1.47749e-11
-7.24084e-11
1.64834e-11
-7.58241e-11
1.8301e-11
-7.91915e-11
2.02321e-11
-8.25112e-11
2.22805e-11
-8.57842e-11
2.44524e-11
-8.90124e-11
2.67518e-11
-9.21958e-11
2.91878e-11
-9.53384e-11
3.17632e-11
-9.84369e-11
3.44922e-11
-1.015e-10
3.73743e-11
-1.04518e-10
4.04307e-11
-1.07508e-10
4.36548e-11
-1.10448e-10
4.70838e-11
-1.13377e-10
5.07116e-11
-1.16255e-10
5.46123e-11
-1.19162e-10
5.83081e-11
-1.21556e-10
6.17666e-11
-1.23895e-10
6.35651e-11
-1.26094e-10
5.37196e-11
-1.28567e-10
4.1366e-11
-1.2801e-10
3.89884e-11
-1.27176e-10
3.45559e-11
-1.25798e-10
2.8809e-11
-1.24044e-10
1.90229e-11
-1.19231e-10
-4.86872e-12
-1.04272e-10
-2.87109e-11
-1.03095e-10
-3.80726e-11
-1.16306e-10
-5.70391e-11
-1.05708e-10
-7.80532e-11
-1.02559e-10
-7.70649e-11
-1.21807e-10
-1.25291e-10
-6.91322e-11
7.81694e-14
-2.26326e-12
3.16263e-13
-6.7474e-12
7.09957e-13
-1.1181e-11
1.25156e-12
-1.55601e-11
1.93394e-12
-1.9884e-11
2.75086e-12
-2.41528e-11
3.69635e-12
-2.83661e-11
4.76549e-12
-3.25239e-11
5.95342e-12
-3.66258e-11
7.25657e-12
-4.06723e-11
8.67088e-12
-4.46628e-11
1.0194e-11
-4.85985e-11
1.18225e-11
-5.24786e-11
1.35553e-11
-5.6305e-11
1.5389e-11
-6.00763e-11
1.73243e-11
-6.37958e-11
1.93577e-11
-6.74607e-11
2.14915e-11
-7.10767e-11
2.37219e-11
-7.46388e-11
2.60537e-11
-7.81559e-11
2.84822e-11
-8.162e-11
3.10158e-11
-8.50448e-11
3.36485e-11
-8.84169e-11
3.63938e-11
-9.17578e-11
3.92441e-11
-9.50461e-11
4.22198e-11
-9.83141e-11
4.53114e-11
-1.01528e-10
4.85468e-11
-1.04736e-10
5.19159e-11
-1.07887e-10
5.54605e-11
-1.11053e-10
5.91881e-11
-1.14176e-10
6.31682e-11
-1.17357e-10
6.662e-11
-1.19707e-10
6.95682e-11
-1.2211e-10
6.75224e-11
-1.24947e-10
3.65505e-11
-1.24274e-10
2.64731e-11
-1.23214e-10
1.87316e-11
-1.20955e-10
7.22368e-12
-1.16502e-10
-1.25366e-11
-1.07415e-10
-4.32383e-11
-9.50962e-11
-1.26824e-10
-4.04582e-11
-1.01808e-10
-1.44247e-10
-9.95825e-11
-1.06497e-10
-1.37833e-10
-6.4844e-11
-1.66259e-10
-8.78801e-11
-1.64395e-10
-1.07572e-10
-1.50302e-10
-1.16652e-10
-1.47375e-10
-1.24733e-10
-1.43241e-10
-1.29426e-10
1.18871e-13
-2.38214e-12
4.34786e-13
-7.06331e-12
9.27507e-13
-1.16737e-11
1.58684e-12
-1.62194e-11
2.4027e-12
-2.06999e-11
3.36538e-12
-2.51155e-11
4.46529e-12
-2.9466e-11
5.69332e-12
-3.37519e-11
7.04047e-12
-3.79729e-11
8.49824e-12
-4.213e-11
1.00582e-11
-4.62228e-11
1.17125e-11
-5.02528e-11
1.34531e-11
-5.42192e-11
1.52724e-11
-5.81244e-11
1.71632e-11
-6.19671e-11
1.91177e-11
-6.57503e-11
2.11293e-11
-6.94723e-11
2.31899e-11
-7.31372e-11
2.52936e-11
-7.67425e-11
2.74312e-11
-8.02936e-11
2.95982e-11
-8.3787e-11
3.17837e-11
-8.72303e-11
3.39855e-11
-9.06186e-11
3.61898e-11
-9.39621e-11
3.83977e-11
-9.72541e-11
4.05902e-11
-1.00507e-10
4.27763e-11
-1.03715e-10
4.49357e-11
-1.06895e-10
4.71107e-11
-1.10062e-10
4.90384e-11
-1.12981e-10
5.04538e-11
-1.15591e-10
5.07238e-11
-1.17988e-10
3.83481e-11
-1.22565e-10
8.93986e-12
-1.20101e-10
7.16557e-13
-1.17127e-10
-1.42132e-11
-1.09382e-10
-9.52989e-11
-4.21283e-11
-9.13645e-11
-1.2489e-10
-1.10848e-10
-9.70186e-11
-2.05653e-10
-1.26105e-11
-2.16486e-10
-8.4263e-11
-1.92681e-10
-6.4264e-11
-2.76057e-10
-6.08693e-11
-2.89133e-10
-9.3421e-11
-2.59438e-10
-9.45392e-11
-2.47628e-10
-9.969e-11
-2.35723e-10
-1.19477e-10
-2.15546e-10
-1.3683e-10
-1.88832e-10
-1.51448e-10
-1.65656e-10
-1.66417e-10
5.56318e-14
-2.43777e-12
2.58302e-13
-7.26598e-12
6.11969e-13
-1.20274e-11
1.10471e-12
-1.67122e-11
1.72417e-12
-2.13194e-11
2.45692e-12
-2.58483e-11
3.28915e-12
-3.02982e-11
4.20561e-12
-3.46684e-11
5.191e-12
-3.89583e-11
6.22787e-12
-4.31669e-11
7.29935e-12
-4.72943e-11
8.3853e-12
-5.13387e-11
9.46719e-12
-5.53011e-11
1.05214e-11
-5.91786e-11
1.15278e-11
-6.29734e-11
1.2458e-11
-6.66806e-11
1.32907e-11
-7.0305e-11
1.39911e-11
-7.38377e-11
1.45371e-11
-7.72884e-11
1.48853e-11
-8.06418e-11
1.50139e-11
-8.39156e-11
1.48678e-11
-8.70843e-11
1.44278e-11
-9.01786e-11
1.36217e-11
-9.3156e-11
1.2439e-11
-9.60714e-11
1.07953e-11
-9.88629e-11
8.71542e-12
-1.01635e-10
5.69722e-12
-1.03877e-10
1.63672e-12
-1.06002e-10
-4.70742e-12
-1.08232e-10
-3.58413e-11
-1.09615e-10
-6.59041e-11
-1.08145e-10
-8.66325e-11
-1.02134e-10
-1.79857e-10
-2.68807e-11
-1.93466e-10
-1.03518e-10
-1.4031e-10
-1.62537e-10
-2.88904e-10
1.06466e-10
-4.33476e-10
1.9682e-11
-5.14222e-10
-1.62724e-11
-5.31017e-10
4.18578e-12
-5.8807e-10
-2.72099e-11
-6.03465e-10
-4.88695e-11
-5.97423e-10
-6.69117e-11
-6.01977e-10
-8.88667e-11
-5.88126e-10
-1.0839e-10
-5.62215e-10
-1.25601e-10
-5.40231e-10
-1.4146e-10
-5.2095e-10
-1.56111e-10
-5.02776e-10
-1.69622e-10
-1.82099e-10
-4.86333e-10
1.68299e-13
-2.60607e-12
5.89564e-13
-7.68725e-12
1.21508e-12
-1.26529e-11
2.01288e-12
-1.751e-11
2.95244e-12
-2.22589e-11
4.00256e-12
-2.68984e-11
5.13374e-12
-3.14294e-11
6.31454e-12
-3.58492e-11
7.51573e-12
-4.01595e-11
8.70449e-12
-4.43557e-11
9.85124e-12
-4.8441e-11
1.09206e-11
-5.2408e-11
1.18823e-11
-5.62629e-11
1.26975e-11
-5.99937e-11
1.33358e-11
-6.36118e-11
1.37539e-11
-6.70986e-11
1.39227e-11
-7.04738e-11
1.37938e-11
-7.37087e-11
1.33425e-11
-7.68371e-11
1.25143e-11
-7.98136e-11
1.12936e-11
-8.26949e-11
9.61856e-12
-8.54093e-11
7.49221e-12
-8.80522e-11
4.85335e-12
-9.05171e-11
1.75018e-12
-9.29682e-11
-2.27799e-12
-9.48347e-11
-7.27313e-12
-9.66396e-11
-1.46369e-11
-9.89324e-11
-5.59899e-11
-9.86677e-11
-8.4794e-11
-9.68511e-11
-1.09072e-10
-8.55792e-11
-2.26596e-10
9.37952e-12
-1.88971e-10
-1.3976e-10
-2.13666e-10
-2.1857e-12
-4.56487e-10
1.39303e-10
-6.7458e-10
5.55559e-11
-6.72163e-10
1.04049e-10
-7.41805e-10
8.93234e-11
-7.99636e-10
4.15587e-11
-8.012e-10
5.75005e-12
-8.0251e-10
-2.59004e-11
-7.97355e-10
-5.40236e-11
-7.85194e-10
-7.90734e-11
-7.72626e-10
-1.01435e-10
-7.59468e-10
-1.21548e-10
-7.45363e-10
-1.39705e-10
-7.30726e-10
-1.56098e-10
-7.1594e-10
-1.70897e-10
-7.01302e-10
-1.8426e-10
-1.96328e-10
-6.87073e-10
9.91664e-14
-2.70524e-12
4.01296e-13
-7.98938e-12
8.83349e-13
-1.3135e-11
1.50839e-12
-1.8135e-11
2.24119e-12
-2.29917e-11
3.04574e-12
-2.77029e-11
3.88818e-12
-3.22718e-11
4.73258e-12
-3.66936e-11
5.54593e-12
-4.09728e-11
6.29138e-12
-4.51011e-11
6.93627e-12
-4.90859e-11
7.44183e-12
-5.29136e-11
7.77574e-12
-5.65968e-11
7.89644e-12
-6.01144e-11
7.77279e-12
-6.34881e-11
7.35999e-12
-6.66858e-11
6.63024e-12
-6.97441e-11
5.53542e-12
-7.26139e-11
4.05474e-12
-7.53564e-11
2.13694e-12
-7.78958e-11
-2.23398e-13
-8.03346e-11
-3.07203e-12
-8.25606e-11
-6.37736e-12
-8.47469e-11
-1.04094e-11
-8.64851e-11
-1.52105e-11
-8.81671e-11
-2.15572e-11
-9.04536e-11
-6.67616e-11
-9.02257e-11
-9.59651e-11
-8.81625e-11
-1.31633e-10
-6.32278e-11
-1.99734e-10
-2.87509e-11
-2.07988e-10
-7.73246e-11
-2.7351e-10
7.49013e-11
-4.92977e-10
7.97077e-11
-5.52648e-10
5.74858e-11
-5.5519e-10
1.41845e-10
-6.33601e-10
1.33967e-10
-6.19064e-10
8.95118e-11
-5.8203e-10
5.22899e-11
-5.588e-10
1.83283e-11
-5.40809e-10
-1.22408e-11
-5.27008e-10
-3.97011e-11
-5.16648e-10
-6.43836e-11
-5.09004e-10
-8.67172e-11
-5.03478e-10
-1.06961e-10
-4.99687e-10
-1.25339e-10
-4.97334e-10
-1.42058e-10
-4.96168e-10
-1.57263e-10
-4.96013e-10
-1.71053e-10
-4.96742e-10
-1.83531e-10
-1.94796e-10
-4.98274e-10
3.82552e-14
-2.74349e-12
8.44663e-14
-8.03559e-12
1.02282e-13
-1.31528e-11
7.10335e-14
-1.81038e-11
-2.64923e-14
-2.28942e-11
-2.08747e-13
-2.75207e-11
-4.90765e-13
-3.19898e-11
-8.91595e-13
-3.62927e-11
-1.42621e-12
-4.04382e-11
-2.11666e-12
-4.44107e-11
-2.97953e-12
-4.8223e-11
-4.04217e-12
-5.1851e-11
-5.32419e-12
-5.53148e-11
-6.86062e-12
-5.8578e-11
-8.6756e-12
-6.16732e-11
-1.08146e-11
-6.45468e-11
-1.3308e-11
-6.72507e-11
-1.62153e-11
-6.97066e-11
-1.95748e-11
-7.19969e-11
-2.34605e-11
-7.401e-11
-2.79149e-11
-7.58802e-11
-3.30345e-11
-7.7441e-11
-3.90044e-11
-7.8777e-11
-4.57345e-11
-8.03896e-11
-8.66605e-11
-8.07925e-11
-1.21754e-10
-7.95502e-11
-1.60664e-10
-5.15834e-11
-1.93851e-10
-5.49751e-11
-1.85916e-10
-7.11625e-11
-2.3929e-10
2.46226e-11
-3.56012e-10
3.93973e-11
-3.62685e-10
8.15744e-11
-3.81321e-10
9.83444e-11
-4.06333e-10
8.24971e-11
-3.31383e-10
6.68956e-11
-2.46527e-10
4.91108e-11
-1.86121e-10
2.91055e-11
-1.42478e-10
8.64706e-12
-1.12549e-10
-1.16008e-11
-9.36223e-11
-3.11672e-11
-8.34273e-11
-4.98961e-11
-8.006e-11
-6.77509e-11
-8.20508e-11
-8.47264e-11
-8.82941e-11
-1.00718e-10
-9.80105e-11
-1.15623e-10
-1.1054e-10
-1.29529e-10
-1.25284e-10
-1.42519e-10
-1.41788e-10
-1.5455e-10
-1.59715e-10
-1.65603e-10
-1.75718e-10
-1.78793e-10
-1.7049e-13
-2.573e-12
-6.35345e-13
-7.57073e-12
-1.36303e-12
-1.24251e-11
-2.32986e-12
-1.71369e-11
-3.51456e-12
-2.17095e-11
-4.89649e-12
-2.61388e-11
-6.45697e-12
-3.04293e-11
-8.17631e-12
-3.45734e-11
-1.00365e-11
-3.85781e-11
-1.20165e-11
-4.24306e-11
-1.40971e-11
-4.61424e-11
-1.62547e-11
-4.96934e-11
-1.84675e-11
-5.3102e-11
-2.07092e-11
-5.63363e-11
-2.29554e-11
-5.94269e-11
-2.51819e-11
-6.23203e-11
-2.73632e-11
-6.50694e-11
-2.94844e-11
-6.75854e-11
-3.15132e-11
-6.99682e-11
-3.34532e-11
-7.207e-11
-3.58691e-11
-7.34643e-11
-3.88484e-11
-7.44618e-11
-6.46824e-11
-7.55273e-11
-1.06798e-10
-7.45571e-11
-1.40957e-10
-4.70138e-11
-1.81664e-10
-3.88436e-11
-1.65955e-10
-6.72916e-11
-2.09864e-10
-1.10666e-11
-2.73738e-10
-7.28847e-12
-2.77365e-10
2.82499e-11
-2.76586e-10
3.86177e-11
-2.27172e-10
3.21606e-11
-1.53775e-10
2.4947e-11
-8.71641e-11
1.58867e-11
-2.65052e-11
6.23665e-12
2.6357e-11
-3.75141e-12
6.96594e-11
-1.41969e-11
1.03301e-10
-2.49946e-11
1.27825e-10
-3.6125e-11
1.43962e-10
-4.73036e-11
1.52542e-10
-5.84762e-11
1.54541e-10
-6.97499e-11
1.50901e-10
-8.10864e-11
1.42402e-10
-9.22197e-11
1.29627e-10
-1.02848e-10
1.13139e-10
-1.1304e-10
9.35112e-11
-1.22892e-10
7.12068e-11
-1.32245e-10
4.66357e-11
-1.41032e-10
-1.49234e-10
2.01517e-11
-1.37691e-13
-2.43531e-12
-4.92424e-13
-7.216e-12
-1.03781e-12
-1.18797e-11
-1.76096e-12
-1.64138e-11
-2.65658e-12
-2.08139e-11
-3.71283e-12
-2.50825e-11
-4.92706e-12
-2.92151e-11
-6.28222e-12
-3.32182e-11
-7.77414e-12
-3.70862e-11
-9.37493e-12
-4.08298e-11
-1.10759e-11
-4.44414e-11
-1.28334e-11
-4.79358e-11
-1.46324e-11
-5.1303e-11
-1.64104e-11
-5.45583e-11
-1.81448e-11
-5.76926e-11
-1.9753e-11
-6.07121e-11
-2.12013e-11
-6.36211e-11
-2.23933e-11
-6.63934e-11
-2.34127e-11
-6.89487e-11
-2.42339e-11
-7.12489e-11
-2.9589e-11
-7.52903e-11
-8.60809e-11
-7.42553e-11
-9.3365e-11
-6.8843e-11
-1.30825e-10
-3.70966e-11
-1.00762e-10
-7.70778e-11
-9.65782e-11
-4.30269e-11
-1.34181e-10
-2.96888e-11
-1.27789e-10
-1.74584e-11
-1.25188e-10
-9.89002e-12
-8.65432e-11
-1.03946e-11
-3.60901e-11
-1.18354e-11
1.0161e-11
-1.40906e-11
5.18873e-11
-1.67792e-11
8.79226e-11
-2.01487e-11
1.18349e-10
-2.41902e-11
1.43368e-10
-2.87697e-11
1.63111e-10
-3.39397e-11
1.77851e-10
-3.97349e-11
1.87693e-10
-4.59671e-11
1.92918e-10
-5.25283e-11
1.93566e-10
-5.91245e-11
1.90095e-10
-6.62792e-11
1.82623e-10
-7.36142e-11
1.71335e-10
-8.0931e-11
1.56506e-10
-8.80191e-11
1.38352e-10
-9.48865e-11
1.1724e-10
-1.01779e-10
9.34332e-11
-1.08438e-10
6.72463e-11
-1.14845e-10
-1.20958e-10
3.89705e-11
-4.03688e-14
-2.39494e-12
-2.59954e-13
-6.99641e-12
-7.06958e-13
-1.14327e-11
-1.4012e-12
-1.57195e-11
-2.36482e-12
-1.98503e-11
-3.61367e-12
-2.38337e-11
-5.17107e-12
-2.76577e-11
-7.05103e-12
-3.13383e-11
-9.28216e-12
-3.4855e-11
-1.18783e-11
-3.82337e-11
-1.4878e-11
-4.14417e-11
-1.82952e-11
-4.45186e-11
-2.21836e-11
-4.74147e-11
-2.65542e-11
-5.01876e-11
-3.14793e-11
-5.27675e-11
-3.6956e-11
-5.52354e-11
-4.30827e-11
-5.74944e-11
-4.99347e-11
-5.95414e-11
-5.74119e-11
-6.16204e-11
-1.11729e-10
-6.32162e-11
-1.48521e-10
-6.40826e-11
-1.8809e-10
-3.48515e-11
-1.76751e-10
-8.01819e-11
-1.48674e-10
-6.51739e-11
-1.78432e-10
-4.73202e-11
-1.7441e-10
-4.70485e-11
-1.64919e-10
-3.91803e-11
-1.45836e-10
-3.65404e-11
-1.21514e-10
-3.42126e-11
-9.94761e-11
-3.24324e-11
-7.99714e-11
-3.13401e-11
-6.31699e-11
-3.08921e-11
-4.88267e-11
-3.11224e-11
-3.70154e-11
-3.19599e-11
-2.77251e-11
-3.34805e-11
-2.10227e-11
-3.54722e-11
-1.62697e-11
-3.86927e-11
-1.36167e-11
-4.23879e-11
-1.34281e-11
-4.61557e-11
-1.57045e-11
-5.02519e-11
-2.04074e-11
-5.44216e-11
-2.74356e-11
-5.9251e-11
-3.69835e-11
-6.40663e-11
-4.91044e-11
-6.88101e-11
-6.36053e-11
-7.35182e-11
-8.04333e-11
-7.80585e-11
-9.94643e-11
-8.27483e-11
-1.20452e-10
-8.74503e-11
-1.43277e-10
-9.20203e-11
-9.64287e-11
-1.67807e-10
-2.45731e-13
-2.14921e-12
-9.20308e-13
-6.32184e-12
-2.00801e-12
-1.0345e-11
-3.5144e-12
-1.42132e-11
-5.44689e-12
-1.79178e-11
-7.81272e-12
-2.14678e-11
-1.06252e-11
-2.48452e-11
-1.38978e-11
-2.80657e-11
-1.76551e-11
-3.10977e-11
-2.1921e-11
-3.39678e-11
-2.67367e-11
-3.6626e-11
-3.21401e-11
-3.91152e-11
-3.81949e-11
-4.13599e-11
-4.49524e-11
-4.34301e-11
-5.24959e-11
-4.52239e-11
-6.08765e-11
-4.68549e-11
-7.02361e-11
-4.81348e-11
-8.57104e-11
-4.97134e-11
-1.56211e-10
-5.06114e-11
-1.74114e-10
-4.583e-11
-1.7492e-10
-6.32768e-11
-1.49776e-10
-5.99952e-11
-1.82703e-10
-4.72547e-11
-1.96253e-10
-5.16238e-11
-1.98961e-10
-4.46124e-11
-2.0576e-10
-4.02498e-11
-2.08221e-10
-3.67191e-11
-2.10807e-10
-3.39542e-11
-2.13064e-10
-3.1956e-11
-2.14923e-10
-3.05734e-11
-2.1652e-10
-2.97424e-11
-2.17955e-10
-2.9458e-11
-2.19443e-10
-2.96335e-11
-2.21209e-10
-3.01941e-11
-2.23646e-10
-3.10434e-11
-2.26734e-10
-3.23851e-11
-2.31394e-10
-3.40321e-11
-2.37676e-10
-3.6106e-11
-2.4512e-10
-3.87118e-11
-2.54339e-10
-4.10331e-11
-2.64905e-10
-4.38548e-11
-2.77217e-10
-4.69394e-11
-2.91034e-10
-5.02489e-11
-3.06157e-10
-5.36878e-11
-3.23137e-10
-5.65379e-11
-3.41695e-10
-5.95002e-11
-3.60977e-10
-6.34668e-11
-3.81316e-10
-6.7111e-11
-4.02896e-10
-7.04407e-11
-7.37942e-11
-4.2553e-10
-1.13535e-13
-2.03568e-12
-5.28898e-13
-5.90647e-12
-1.28635e-12
-9.58756e-12
-2.4124e-12
-1.30871e-11
-3.93051e-12
-1.63997e-11
-5.8687e-12
-1.95296e-11
-8.24818e-12
-2.24658e-11
-1.10977e-11
-2.52161e-11
-1.44343e-11
-2.77612e-11
-1.82866e-11
-3.01155e-11
-2.26645e-11
-3.22481e-11
-2.75946e-11
-3.41851e-11
-3.30742e-11
-3.58803e-11
-3.91327e-11
-3.73717e-11
-4.58755e-11
-3.84811e-11
-5.33809e-11
-3.93495e-11
-8.79939e-11
-4.0406e-11
-1.36079e-10
-4.155e-11
-1.49914e-10
-3.67765e-11
-1.50341e-10
-4.54031e-11
-1.72522e-10
-4.10952e-11
-1.88099e-10
-4.44188e-11
-1.96044e-10
-3.93098e-11
-2.12521e-10
-3.51466e-11
-2.25718e-10
-3.14151e-11
-2.37847e-10
-2.81211e-11
-2.49354e-10
-2.52115e-11
-2.60347e-10
-2.29614e-11
-2.71434e-10
-2.08692e-11
-2.82954e-10
-1.90536e-11
-2.95088e-10
-1.76081e-11
-3.08113e-10
-1.64326e-11
-3.21755e-10
-1.59919e-11
-3.36094e-10
-1.58551e-11
-3.50932e-10
-1.62057e-11
-3.66398e-10
-1.69187e-11
-3.82203e-10
-1.82276e-11
-3.98374e-10
-1.99343e-11
-4.15439e-10
-2.16472e-11
-4.33002e-10
-2.347e-11
-4.51373e-10
-2.54842e-11
-4.70646e-10
-2.76659e-11
-4.90875e-10
-3.00204e-11
-5.12038e-10
-3.25242e-11
-5.33437e-10
-3.51386e-11
-5.55044e-10
-3.78938e-11
-5.77812e-10
-4.06986e-11
-6.01286e-10
-4.36372e-11
-6.25169e-10
-4.65573e-11
-4.94101e-11
-6.49553e-10
-2.30114e-13
-1.80556e-12
-9.09766e-13
-5.22682e-12
-2.03466e-12
-8.46266e-12
-3.60389e-12
-1.15179e-11
-5.61839e-12
-1.43852e-11
-8.07833e-12
-1.70697e-11
-1.09839e-11
-1.95601e-11
-1.43329e-11
-2.18672e-11
-1.81202e-11
-2.39738e-11
-2.23365e-11
-2.58992e-11
-2.6966e-11
-2.76185e-11
-3.19872e-11
-2.9164e-11
-3.73728e-11
-3.04947e-11
-4.31248e-11
-3.16197e-11
-4.89426e-11
-3.27674e-11
-1.39044e-10
-3.35968e-11
-1.63327e-10
-3.4248e-11
-1.75422e-10
-2.94551e-11
-1.80786e-10
-3.14124e-11
-1.99486e-10
-2.67037e-11
-2.15337e-10
-2.52435e-11
-2.38097e-10
-2.16592e-11
-2.59406e-10
-1.80001e-11
-2.80028e-10
-1.45251e-11
-3.00108e-10
-1.13348e-11
-3.19993e-10
-8.23627e-12
-3.39269e-10
-5.93585e-12
-3.58747e-10
-3.4828e-12
-3.78718e-10
-8.98114e-13
-3.98919e-10
1.1467e-12
-4.19491e-10
2.96398e-12
-4.40353e-10
4.42914e-12
-4.62018e-10
5.6734e-12
-4.8461e-10
6.73744e-12
-5.08733e-10
7.91656e-12
-5.32656e-10
7.00481e-12
-5.56901e-10
6.01718e-12
-5.8148e-10
4.64436e-12
-6.06073e-10
2.94641e-12
-6.31086e-10
1.54286e-12
-6.56432e-10
-1.38437e-13
-6.81782e-10
-2.31596e-12
-7.07216e-10
-4.58633e-12
-7.32806e-10
-6.93416e-12
-7.58473e-10
-9.47127e-12
-7.84321e-10
-1.20464e-11
-8.10357e-10
-1.46625e-11
-8.36653e-10
-1.73412e-11
-8.63154e-10
-2.00562e-11
-2.27294e-11
-8.89835e-10
-3.90819e-13
-1.41474e-12
-1.48699e-12
-4.13065e-12
-3.23927e-12
-6.71038e-12
-5.60843e-12
-9.14872e-12
-8.56254e-12
-1.1431e-11
-1.20649e-11
-1.35673e-11
-1.60897e-11
-1.55354e-11
-2.06022e-11
-1.73547e-11
-2.55821e-11
-1.89939e-11
-3.09961e-11
-2.04852e-11
-3.6827e-11
-2.17876e-11
-4.30424e-11
-2.29487e-11
-4.96399e-11
-2.38971e-11
-5.83319e-11
-2.49024e-11
-1.42763e-10
-2.58738e-11
-1.55882e-10
-2.10356e-11
-1.68494e-10
-2.16363e-11
-1.80955e-10
-1.69935e-11
-2.05586e-10
-6.78171e-12
-2.32385e-10
9.59551e-14
-2.64422e-10
6.7929e-12
-2.9871e-10
1.26288e-11
-3.34379e-10
1.76691e-11
-3.70843e-10
2.19391e-11
-4.07712e-10
2.55336e-11
-4.44467e-10
2.85189e-11
-4.81269e-10
3.08665e-11
-5.175e-10
3.27481e-11
-5.52585e-10
3.41867e-11
-5.86804e-10
3.53661e-11
-6.19991e-10
3.61504e-11
-6.5236e-10
3.67988e-11
-6.84128e-10
3.74409e-11
-7.15887e-10
3.8497e-11
-7.4643e-10
3.84587e-11
-7.77544e-10
3.81192e-11
-8.08331e-10
3.68039e-11
-8.38952e-10
3.52655e-11
-8.69798e-10
3.37928e-11
-8.99983e-10
3.17277e-11
-9.2962e-10
2.9499e-11
-9.58678e-10
2.6742e-11
-9.87205e-10
2.39403e-11
-1.01513e-09
2.09909e-11
-1.04314e-09
1.85393e-11
-1.07095e-09
1.57666e-11
-1.09834e-09
1.27246e-11
-1.12524e-09
9.5574e-12
-1.15185e-09
6.5511e-12
3.65417e-12
-1.17823e-09
-3.12159e-13
-1.10258e-12
-1.27655e-12
-3.16625e-12
-2.89277e-12
-5.09416e-12
-5.15146e-12
-6.89004e-12
-8.03561e-12
-8.54688e-12
-1.15371e-11
-1.00658e-11
-1.56355e-11
-1.1437e-11
-2.0326e-11
-1.26642e-11
-2.55839e-11
-1.3736e-11
-3.14037e-11
-1.46653e-11
-3.77521e-11
-1.54392e-11
-4.46555e-11
-1.60453e-11
-6.10647e-11
-1.67109e-11
-1.32936e-10
-1.76844e-11
-1.5411e-10
-4.69966e-12
-1.74199e-10
-9.46324e-13
-2.09926e-10
1.40901e-11
-2.54528e-10
2.76091e-11
-3.01648e-10
4.03378e-11
-3.53217e-10
5.16648e-11
-4.07848e-10
6.14243e-11
-4.64852e-10
6.9633e-11
-5.23527e-10
7.63433e-11
-5.83265e-10
8.16772e-11
-6.43486e-10
8.57548e-11
-7.0367e-10
8.87028e-11
-7.63458e-10
9.06545e-11
-8.22417e-10
9.17072e-11
-8.80229e-10
9.19986e-11
-9.36506e-10
9.16435e-11
-9.9099e-10
9.0634e-11
-1.04331e-09
8.91212e-11
-1.09315e-09
8.72817e-11
-1.13981e-09
8.51502e-11
-1.1837e-09
8.2357e-11
-1.22477e-09
7.91892e-11
-1.26394e-09
7.59703e-11
-1.30134e-09
7.26653e-11
-1.33692e-09
6.93716e-11
-1.37164e-09
6.64446e-11
-1.40414e-09
6.19984e-11
-1.43486e-09
5.74665e-11
-1.46401e-09
5.30881e-11
-1.49203e-09
4.90135e-11
-1.51887e-09
4.53779e-11
-1.54614e-09
4.30389e-11
-1.57101e-09
3.75883e-11
-1.59381e-09
3.23619e-11
-1.61486e-09
2.75997e-11
2.33633e-11
-1.63457e-09
-3.59963e-13
-1.41328e-12
-3.1454e-12
-5.54997e-12
-8.61546e-12
-1.23341e-11
-1.66879e-11
-2.16641e-11
-2.72233e-11
-3.3348e-11
-4.00228e-11
-7.37763e-11
-1.33547e-10
-1.42513e-10
-1.5206e-10
-1.88345e-10
-2.31604e-10
-2.81396e-10
-3.36022e-10
-3.94472e-10
-4.56039e-10
-5.20119e-10
-5.86209e-10
-6.53732e-10
-7.22252e-10
-7.91357e-10
-8.60628e-10
-9.29643e-10
-9.98037e-10
-1.0653e-09
-1.13098e-09
-1.19459e-09
-1.25592e-09
-1.3143e-09
-1.36907e-09
-1.42114e-09
-1.47059e-09
-1.51738e-09
-1.56162e-09
-1.60275e-09
-1.64137e-09
-1.67743e-09
-1.71116e-09
-1.74264e-09
-1.7713e-09
-1.79559e-09
-1.81724e-09
-1.83608e-09
-1.85307e-09
-1.86781e-09
1.00858e-11
-1.26458e-10
1.22917e-11
-1.27045e-10
1.4928e-11
-1.27857e-10
1.78353e-11
-1.28448e-10
2.07363e-11
-1.28747e-10
2.37102e-11
-1.29167e-10
2.67267e-11
-1.29862e-10
2.97943e-11
-1.31547e-10
3.30286e-11
-1.35855e-10
3.67051e-11
-1.46609e-10
4.11796e-11
-1.70247e-10
4.68579e-11
-2.04206e-10
5.34826e-11
-2.37598e-10
6.07047e-11
-2.69595e-10
6.79779e-11
-2.99817e-10
7.4906e-11
-3.28079e-10
8.10496e-11
-3.54291e-10
8.59563e-11
-3.78402e-10
8.92469e-11
-4.00418e-10
9.06177e-11
-4.20382e-10
8.98662e-11
-4.38388e-10
8.68217e-11
-4.54443e-10
8.1407e-11
-4.6874e-10
7.36179e-11
-4.81408e-10
6.3413e-11
-4.92584e-10
5.08236e-11
-5.02406e-10
3.61327e-11
-5.11013e-10
1.94753e-11
-5.18499e-10
1.03258e-12
-5.25048e-10
-1.90681e-11
-5.308e-10
-4.06092e-11
-5.3587e-10
-6.34216e-11
-5.40368e-10
-8.74698e-11
-5.44376e-10
-1.12522e-10
-5.4803e-10
-1.38424e-10
-5.51394e-10
-1.65154e-10
-5.54484e-10
-1.92452e-10
-5.57309e-10
-2.20184e-10
-5.59976e-10
-2.48276e-10
-5.62557e-10
-2.76761e-10
-5.64902e-10
-3.05544e-10
-5.67217e-10
-3.34586e-10
-5.6941e-10
-3.63704e-10
-5.71568e-10
-3.92806e-10
-5.73657e-10
-4.21986e-10
-5.75653e-10
-4.51267e-10
-5.77529e-10
-4.80449e-10
-5.79485e-10
-5.0958e-10
-5.81306e-10
-5.38732e-10
-5.82902e-10
-5.84539e-10
-5.67669e-10
4.81872e-11
-1.26545e-10
4.69518e-11
-1.2581e-10
4.48844e-11
-1.25789e-10
4.54096e-11
-1.28973e-10
4.7923e-11
-1.3126e-10
5.06946e-11
-1.31938e-10
5.41882e-11
-1.33355e-10
5.91086e-11
-1.36468e-10
6.70014e-11
-1.43747e-10
8.00758e-11
-1.59684e-10
9.70771e-11
-1.87248e-10
1.13471e-10
-2.206e-10
1.28243e-10
-2.5237e-10
1.40759e-10
-2.82112e-10
1.50574e-10
-3.09632e-10
1.57357e-10
-3.34862e-10
1.60861e-10
-3.57795e-10
1.60938e-10
-3.78479e-10
1.57531e-10
-3.9701e-10
1.50666e-10
-4.13517e-10
1.40428e-10
-4.2815e-10
1.27011e-10
-4.41026e-10
1.10595e-10
-4.52324e-10
9.13898e-11
-4.62203e-10
6.9627e-11
-4.70821e-10
4.55777e-11
-4.78357e-10
1.94784e-11
-4.84914e-10
-8.40277e-12
-4.90618e-10
-3.78261e-11
-4.95624e-10
-6.85791e-11
-5.00047e-10
-1.00461e-10
-5.03987e-10
-1.33302e-10
-5.07528e-10
-1.66933e-10
-5.10745e-10
-2.01255e-10
-5.13708e-10
-2.36143e-10
-5.16506e-10
-2.71487e-10
-5.1914e-10
-3.07201e-10
-5.21595e-10
-3.4324e-10
-5.23937e-10
-3.79568e-10
-5.26229e-10
-4.15988e-10
-5.28482e-10
-4.52551e-10
-5.30653e-10
-4.89193e-10
-5.32768e-10
-5.25921e-10
-5.34841e-10
-5.62712e-10
-5.36867e-10
-5.99536e-10
-5.38829e-10
-6.36315e-10
-5.4075e-10
-6.73131e-10
-5.42669e-10
-7.09851e-10
-5.44586e-10
-7.46318e-10
-5.46435e-10
-5.48205e-10
-7.82652e-10
7.0636e-11
-1.28588e-10
7.17607e-11
-1.26934e-10
6.8508e-11
-1.22537e-10
6.19992e-11
-1.22464e-10
6.16134e-11
-1.30874e-10
6.74936e-11
-1.37819e-10
7.75713e-11
-1.43433e-10
9.34694e-11
-1.52366e-10
1.17427e-10
-1.67705e-10
1.48562e-10
-1.90818e-10
1.80616e-10
-2.19303e-10
2.08023e-10
-2.48006e-10
2.30157e-10
-2.74504e-10
2.46745e-10
-2.987e-10
2.57734e-10
-3.20621e-10
2.63232e-10
-3.4036e-10
2.63435e-10
-3.57997e-10
2.58611e-10
-3.73656e-10
2.49089e-10
-3.87488e-10
2.3525e-10
-3.99678e-10
2.17486e-10
-4.10386e-10
1.96234e-10
-4.19774e-10
1.71905e-10
-4.27995e-10
1.44897e-10
-4.35195e-10
1.15606e-10
-4.4153e-10
8.43868e-11
-4.47138e-10
5.15274e-11
-4.52055e-10
1.73206e-11
-4.56411e-10
-1.79874e-11
-4.60316e-10
-5.41829e-11
-4.63851e-10
-9.109e-11
-4.6708e-10
-1.2856e-10
-4.70058e-10
-1.66473e-10
-4.72831e-10
-2.04746e-10
-4.75435e-10
-2.4326e-10
-4.77992e-10
-2.81966e-10
-4.80434e-10
-3.20836e-10
-4.82725e-10
-3.59826e-10
-4.84948e-10
-3.9885e-10
-4.87206e-10
-4.3795e-10
-4.89381e-10
-4.77098e-10
-4.91505e-10
-5.16296e-10
-4.93571e-10
-5.5556e-10
-4.95577e-10
-5.94955e-10
-4.97472e-10
-6.34432e-10
-4.99352e-10
-6.74008e-10
-5.01173e-10
-7.13718e-10
-5.02958e-10
-7.5359e-10
-5.04715e-10
-7.9358e-10
-5.06445e-10
-5.08164e-10
-8.3362e-10
1.10714e-11
-1.19791e-10
8.63844e-12
-1.24501e-10
1.06633e-11
-1.24561e-10
1.38287e-11
-1.25629e-10
2.15793e-11
-1.38624e-10
4.03751e-11
-1.56615e-10
7.01099e-11
-1.73168e-10
1.08912e-10
-1.91168e-10
1.53459e-10
-2.12253e-10
1.9764e-10
-2.34999e-10
2.35455e-10
-2.57119e-10
2.64892e-10
-2.77443e-10
2.86246e-10
-2.95858e-10
2.9998e-10
-3.12433e-10
3.06652e-10
-3.27294e-10
3.06884e-10
-3.40592e-10
3.01418e-10
-3.52531e-10
2.90763e-10
-3.63001e-10
2.75572e-10
-3.72297e-10
2.56443e-10
-3.80549e-10
2.33939e-10
-3.87883e-10
2.08579e-10
-3.94414e-10
1.80835e-10
-4.00251e-10
1.51138e-10
-4.05498e-10
1.19884e-10
-4.10276e-10
8.73715e-11
-4.14625e-10
5.38599e-11
-4.18543e-10