/*--------------------------------*- C++ -*----------------------------------*\
| =========                 |                                                 |
| \\      /  F ield         | OpenFOAM: The Open Source CFD Toolbox           |
|  \\    /   O peration     | Version:  2.4.0                                 |
|   \\  /    A nd           | Web:      www.OpenFOAM.org                      |
|    \\/     M anipulation  |                                                 |
\*---------------------------------------------------------------------------*/
FoamFile
{
    version     2.0;
    format      ascii;
    class       volScalarField;
    location    "1.4";
    object      H;
}
// * * * * * * * * * * * * * * * * * * * * * * * * * * * * * * * * * * * * * //

dimensions      [0 2 -2 0 0 0 0];

internalField   nonuniform List<scalar> 
500
(
-11815.7
-11815.7
-11815.7
-11815.7
-11815.7
-10982.4
-10982.4
-10982.4
-10982.4
-10982.4
-10139.7
-10139.7
-10139.7
-10139.7
-10139.7
-9287.31
-9287.31
-9287.31
-9287.31
-9287.32
-8425.09
-8425.08
-8425.08
-8425.08
-8425.09
-7552.78
-7552.77
-7552.77
-7552.77
-7552.78
-6670.17
-6670.15
-6670.15
-6670.15
-6670.17
-5777.01
-5777
-5776.99
-5777
-5777.01
-4873.08
-4873.06
-4873.05
-4873.06
-4873.08
-3958.11
-3958.09
-3958.08
-3958.09
-3958.11
-3031.85
-3031.83
-3031.82
-3031.83
-3031.85
-2094.05
-2094.03
-2094.02
-2094.03
-2094.05
-1144.43
-1144.4
-1144.39
-1144.4
-1144.43
-24.522
-24.5202
-24.5195
-24.5202
-24.5221
-18.3516
-18.3502
-18.3497
-18.3502
-18.3516
-18.5283
-18.527
-18.5265
-18.527
-18.5284
-18.6995
-18.6981
-18.6976
-18.6981
-18.6995
-18.8648
-18.8635
-18.863
-18.8635
-18.8648
-19.024
-19.0227
-19.0223
-19.0227
-19.0241
-19.1769
-19.1757
-19.1752
-19.1757
-19.177
-19.3233
-19.322
-19.3216
-19.322
-19.3233
-19.4628
-19.4616
-19.4611
-19.4616
-19.4628
-19.5952
-19.594
-19.5935
-19.594
-19.5953
-19.7203
-19.7191
-19.7187
-19.7191
-19.7204
-19.8378
-19.8366
-19.8362
-19.8366
-19.8379
-19.9474
-19.9463
-19.9459
-19.9463
-19.9475
-20.049
-20.0479
-20.0474
-20.0479
-20.049
-20.1422
-20.1411
-20.1406
-20.1411
-20.1422
-20.2267
-20.2257
-20.2252
-20.2257
-20.2268
-20.3025
-20.3014
-20.301
-20.3014
-20.3025
-20.3691
-20.368
-20.3676
-20.368
-20.3691
-20.4263
-20.4253
-20.4248
-20.4253
-20.4263
-20.4739
-20.4729
-20.4725
-20.473
-20.474
-20.5118
-20.5108
-20.5104
-20.5108
-20.5118
-20.5395
-20.5385
-20.5381
-20.5385
-20.5395
-20.5569
-20.556
-20.5556
-20.556
-20.557
-20.5639
-20.5629
-20.5625
-20.563
-20.5639
-20.5601
-20.5592
-20.5588
-20.5592
-20.5601
-20.5453
-20.5444
-20.544
-20.5444
-20.5454
-20.5194
-20.5186
-20.5182
-20.5186
-20.5195
-20.4822
-20.4814
-20.481
-20.4814
-20.4823
-20.4335
-20.4326
-20.4323
-20.4326
-20.4335
-20.373
-20.3722
-20.3719
-20.3722
-20.3731
-20.3008
-20.3
-20.2996
-20.3
-20.3008
-20.2165
-20.2157
-20.2154
-20.2157
-20.2165
-20.1201
-20.1193
-20.119
-20.1193
-20.1201
-20.0114
-20.0107
-20.0103
-20.0107
-20.0114
-19.8903
-19.8896
-19.8893
-19.8896
-19.8904
-19.7568
-19.7561
-19.7558
-19.7561
-19.7569
-19.6108
-19.6101
-19.6098
-19.6101
-19.6108
-19.4521
-19.4514
-19.4511
-19.4514
-19.4521
-19.2807
-19.2801
-19.2798
-19.2801
-19.2808
-19.0967
-19.0961
-19.0958
-19.0961
-19.0967
-18.8999
-18.8993
-18.899
-18.8993
-18.9
-18.6905
-18.6899
-18.6896
-18.6899
-18.6905
-18.4684
-18.4678
-18.4675
-18.4678
-18.4684
-18.2336
-18.233
-18.2327
-18.233
-18.2336
-17.9862
-17.9857
-17.9854
-17.9857
-17.9863
-17.7264
-17.7259
-17.7256
-17.7259
-17.7264
-17.4542
-17.4537
-17.4534
-17.4537
-17.4542
-17.1697
-17.1692
-17.169
-17.1692
-17.1698
-16.8732
-16.8727
-16.8724
-16.8727
-16.8732
-16.5646
-16.5642
-16.564
-16.5642
-16.5647
-16.2444
-16.244
-16.2437
-16.244
-16.2444
-15.9126
-15.9122
-15.912
-15.9122
-15.9127
-15.5696
-15.5692
-15.569
-15.5692
-15.5696
-15.2155
-15.2151
-15.2149
-15.2151
-15.2155
-14.8507
-14.8503
-14.8501
-14.8503
-14.8507
-14.4754
-14.4751
-14.4749
-14.4751
-14.4755
-14.0901
-14.0897
-14.0896
-14.0897
-14.0901
-13.695
-13.6946
-13.6945
-13.6947
-13.695
-13.2905
-13.2902
-13.29
-13.2902
-13.2905
-12.877
-12.8767
-12.8766
-12.8767
-12.8771
-12.455
-12.4547
-12.4546
-12.4547
-12.455
-12.0248
-12.0246
-12.0244
-12.0246
-12.0249
-11.587
-11.5867
-11.5866
-11.5867
-11.587
-11.1419
-11.1417
-11.1416
-11.1417
-11.142
-10.6902
-10.69
-10.6898
-10.69
-10.6902
-10.2322
-10.232
-10.2319
-10.232
-10.2322
-9.76861
-9.76839
-9.76829
-9.7684
-9.76862
-9.29985
-9.29965
-9.29955
-9.29965
-9.29986
-8.82652
-8.82633
-8.82624
-8.82633
-8.82653
-8.34919
-8.34901
-8.34893
-8.34902
-8.3492
-7.86845
-7.86828
-7.8682
-7.86829
-7.86846
-7.38489
-7.38473
-7.38466
-7.38474
-7.38489
-6.89912
-6.89898
-6.8989
-6.89898
-6.89912
-6.41176
-6.41163
-6.41156
-6.41163
-6.41176
-5.92343
-5.92331
-5.92325
-5.92332
-5.92344
-5.43478
-5.43467
-5.43462
-5.43468
-5.43479
-4.94645
-4.94635
-4.9463
-4.94635
-4.94645
-4.45908
-4.45899
-4.45895
-4.45899
-4.45908
-3.97333
-3.97325
-3.97321
-3.97325
-3.97333
-3.48986
-3.48979
-3.48976
-3.48979
-3.48986
-3.00934
-3.00928
-3.00925
-3.00928
-3.00934
-2.53243
-2.53238
-2.53236
-2.53239
-2.53244
-2.05981
-2.05977
-2.05975
-2.05977
-2.05982
-1.59216
-1.59213
-1.59211
-1.59213
-1.59216
-1.13014
-1.13012
-1.13011
-1.13012
-1.13014
-0.674446
-0.674433
-0.674426
-0.674433
-0.674446
-0.225755
-0.22575
-0.225748
-0.22575
-0.225755
)
;

boundaryField
{
    BotWall
    {
        type            zeroGradient;
    }
    FreeStream
    {
        type            zeroGradient;
    }
    FrontNBack
    {
        type            empty;
    }
    LeftSide
    {
        type            symmetryPlane;
    }
    RightSide
    {
        type            symmetryPlane;
    }
}


// ************************************************************************* //
