/*--------------------------------*- C++ -*----------------------------------*\
| =========                 |                                                 |
| \\      /  F ield         | OpenFOAM: The Open Source CFD Toolbox           |
|  \\    /   O peration     | Version:  2.4.0                                 |
|   \\  /    A nd           | Web:      www.OpenFOAM.org                      |
|    \\/     M anipulation  |                                                 |
\*---------------------------------------------------------------------------*/
FoamFile
{
    version     2.0;
    format      ascii;
    class       volScalarField;
    location    "1.4";
    object      p;
}
// * * * * * * * * * * * * * * * * * * * * * * * * * * * * * * * * * * * * * //

dimensions      [1 -1 -2 0 0 0 0];

internalField   nonuniform List<scalar> 
500
(
0.412307
0.412319
0.412312
0.412319
0.412307
0.382539
0.382553
0.382546
0.382553
0.382539
0.352462
0.352476
0.352468
0.352475
0.352461
0.32252
0.322535
0.322528
0.322535
0.322519
0.292345
0.292359
0.292353
0.292359
0.292344
0.258935
0.258948
0.258941
0.258948
0.258934
0.21483
0.214838
0.214831
0.214838
0.21483
0.166049
0.166062
0.166055
0.166062
0.166048
0.192523
0.192586
0.192579
0.192586
0.192522
0.477921
0.478067
0.478066
0.478067
0.47792
0.869291
0.869338
0.869354
0.869338
0.869288
-0.677328
-0.677917
-0.677914
-0.677917
-0.677329
-8.72094
-8.72225
-8.72238
-8.72224
-8.72092
-19.4195
-19.4197
-19.4201
-19.4196
-19.4194
-0.0154824
-0.0154821
-0.015482
-0.0154821
-0.0154824
-0.00596498
-0.00596529
-0.0059653
-0.00596529
-0.00596498
-0.00801498
-0.00801494
-0.00801494
-0.00801494
-0.00801498
-0.00941141
-0.00941135
-0.00941135
-0.00941135
-0.00941141
-0.0101299
-0.0101299
-0.0101299
-0.0101299
-0.0101299
-0.01068
-0.01068
-0.01068
-0.01068
-0.01068
-0.0112587
-0.0112587
-0.0112587
-0.0112587
-0.0112587
-0.0118706
-0.0118706
-0.0118706
-0.0118706
-0.0118706
-0.012496
-0.012496
-0.012496
-0.012496
-0.012496
-0.0131274
-0.0131274
-0.0131274
-0.0131274
-0.0131274
-0.0137648
-0.0137648
-0.0137648
-0.0137648
-0.0137648
-0.014409
-0.014409
-0.014409
-0.014409
-0.014409
-0.0150605
-0.0150605
-0.0150605
-0.0150605
-0.0150605
-0.0157193
-0.0157193
-0.0157193
-0.0157193
-0.0157193
-0.0163854
-0.0163854
-0.0163854
-0.0163854
-0.0163854
-0.017059
-0.017059
-0.017059
-0.017059
-0.017059
-0.0177401
-0.0177401
-0.0177401
-0.0177401
-0.0177401
-0.0184288
-0.0184288
-0.0184288
-0.0184288
-0.0184288
-0.0191252
-0.0191252
-0.0191252
-0.0191252
-0.0191252
-0.0198294
-0.0198294
-0.0198294
-0.0198294
-0.0198294
-0.0205414
-0.0205414
-0.0205414
-0.0205414
-0.0205414
-0.0212613
-0.0212613
-0.0212613
-0.0212613
-0.0212613
-0.0219893
-0.0219893
-0.0219893
-0.0219893
-0.0219893
-0.0227254
-0.0227254
-0.0227254
-0.0227254
-0.0227254
-0.0234698
-0.0234698
-0.0234698
-0.0234698
-0.0234698
-0.0242224
-0.0242224
-0.0242224
-0.0242224
-0.0242224
-0.0249834
-0.0249834
-0.0249834
-0.0249834
-0.0249834
-0.025753
-0.025753
-0.025753
-0.025753
-0.025753
-0.0265311
-0.0265311
-0.0265311
-0.0265311
-0.0265311
-0.0273179
-0.0273179
-0.0273179
-0.0273179
-0.0273179
-0.0281134
-0.0281134
-0.0281134
-0.0281134
-0.0281134
-0.0289179
-0.0289179
-0.0289179
-0.0289179
-0.0289179
-0.0297313
-0.0297313
-0.0297313
-0.0297313
-0.0297313
-0.0305538
-0.0305538
-0.0305538
-0.0305538
-0.0305538
-0.0313855
-0.0313855
-0.0313855
-0.0313855
-0.0313855
-0.0322265
-0.0322265
-0.0322265
-0.0322265
-0.0322265
-0.0330768
-0.0330768
-0.0330768
-0.0330768
-0.0330768
-0.0339367
-0.0339367
-0.0339367
-0.0339367
-0.0339367
-0.0348061
-0.0348061
-0.0348061
-0.0348061
-0.0348061
-0.0356852
-0.0356852
-0.0356852
-0.0356852
-0.0356852
-0.0365742
-0.0365742
-0.0365742
-0.0365742
-0.0365742
-0.0374731
-0.0374731
-0.0374731
-0.0374731
-0.0374731
-0.038382
-0.038382
-0.038382
-0.038382
-0.038382
-0.039301
-0.039301
-0.039301
-0.039301
-0.039301
-0.0402303
-0.0402303
-0.0402303
-0.0402303
-0.0402303
-0.0411699
-0.0411699
-0.0411699
-0.0411699
-0.0411699
-0.0421201
-0.0421201
-0.0421201
-0.0421201
-0.0421201
-0.0430808
-0.0430808
-0.0430808
-0.0430808
-0.0430808
-0.0440523
-0.0440523
-0.0440523
-0.0440523
-0.0440523
-0.0450346
-0.0450346
-0.0450346
-0.0450346
-0.0450346
-0.0460279
-0.0460279
-0.0460279
-0.0460279
-0.0460279
-0.0470323
-0.0470323
-0.0470323
-0.0470323
-0.0470323
-0.0480478
-0.0480478
-0.0480478
-0.0480478
-0.0480478
-0.0490747
-0.0490747
-0.0490747
-0.0490747
-0.0490747
-0.0501131
-0.0501131
-0.0501131
-0.0501131
-0.0501131
-0.051163
-0.051163
-0.051163
-0.051163
-0.051163
-0.0522247
-0.0522247
-0.0522247
-0.0522247
-0.0522247
-0.0532982
-0.0532982
-0.0532982
-0.0532982
-0.0532982
-0.0543837
-0.0543837
-0.0543837
-0.0543837
-0.0543837
-0.0554813
-0.0554813
-0.0554813
-0.0554813
-0.0554813
-0.0565911
-0.0565911
-0.0565911
-0.0565911
-0.0565911
-0.0577134
-0.0577134
-0.0577134
-0.0577134
-0.0577134
-0.0588481
-0.0588481
-0.0588481
-0.0588481
-0.0588481
-0.0599955
-0.0599955
-0.0599955
-0.0599955
-0.0599955
-0.0611558
-0.0611558
-0.0611558
-0.0611558
-0.0611558
-0.0623289
-0.0623289
-0.0623289
-0.0623289
-0.0623289
-0.0635152
-0.0635152
-0.0635152
-0.0635152
-0.0635152
-0.0647147
-0.0647147
-0.0647147
-0.0647147
-0.0647147
-0.0659276
-0.0659276
-0.0659276
-0.0659276
-0.0659276
-0.067154
-0.067154
-0.067154
-0.067154
-0.067154
-0.0683941
-0.0683941
-0.0683941
-0.0683941
-0.0683941
-0.069648
-0.069648
-0.069648
-0.069648
-0.069648
-0.070916
-0.070916
-0.070916
-0.070916
-0.070916
-0.0721981
-0.0721981
-0.0721981
-0.0721981
-0.0721981
-0.0734944
-0.0734944
-0.0734944
-0.0734944
-0.0734944
-0.0748053
-0.0748053
-0.0748053
-0.0748053
-0.0748053
-0.0761308
-0.0761308
-0.0761308
-0.0761308
-0.0761308
-0.0774711
-0.0774711
-0.0774711
-0.0774711
-0.0774711
-0.0788263
-0.0788263
-0.0788263
-0.0788263
-0.0788263
-0.0801966
-0.0801966
-0.0801966
-0.0801966
-0.0801966
-0.0815823
-0.0815823
-0.0815823
-0.0815823
-0.0815823
-0.0829834
-0.0829834
-0.0829834
-0.0829834
-0.0829834
-0.0844001
-0.0844001
-0.0844001
-0.0844001
-0.0844001
-0.0858327
-0.0858327
-0.0858327
-0.0858327
-0.0858327
-0.0872812
-0.0872812
-0.0872812
-0.0872812
-0.0872812
-0.0887459
-0.0887459
-0.0887459
-0.0887459
-0.0887459
)
;

boundaryField
{
    BotWall
    {
        type            calculated;
        value           nonuniform List<scalar> 5(0.427128 0.42714 0.427132 0.42714 0.427127);
    }
    FreeStream
    {
        type            calculated;
        value           nonuniform List<scalar> 5(-0.0894823 -0.0894823 -0.0894823 -0.0894823 -0.0894823);
    }
    FrontNBack
    {
        type            empty;
    }
    LeftSide
    {
        type            symmetryPlane;
    }
    RightSide
    {
        type            symmetryPlane;
    }
}


// ************************************************************************* //
