/*--------------------------------*- C++ -*----------------------------------*\
| =========                 |                                                 |
| \\      /  F ield         | OpenFOAM: The Open Source CFD Toolbox           |
|  \\    /   O peration     | Version:  2.4.0                                 |
|   \\  /    A nd           | Web:      www.OpenFOAM.org                      |
|    \\/     M anipulation  |                                                 |
\*---------------------------------------------------------------------------*/
FoamFile
{
    version     2.0;
    format      ascii;
    class       volScalarField;
    location    "1.4";
    object      p_rgh;
}
// * * * * * * * * * * * * * * * * * * * * * * * * * * * * * * * * * * * * * //

dimensions      [1 -1 -2 0 0 0 0];

internalField   nonuniform List<scalar> 
500
(
0.427128
0.42714
0.427132
0.42714
0.427127
0.427166
0.42718
0.427173
0.42718
0.427165
0.427227
0.427241
0.427233
0.42724
0.427226
0.427759
0.427775
0.427767
0.427774
0.427759
0.428399
0.428414
0.428407
0.428414
0.428399
0.426149
0.426161
0.426155
0.426161
0.426148
0.413551
0.413558
0.413551
0.413558
0.41355
0.396627
0.396641
0.396633
0.396641
0.396626
0.455314
0.455377
0.455371
0.455377
0.455314
0.773286
0.773432
0.773431
0.773431
0.773285
1.19759
1.19764
1.19766
1.19764
1.19759
-0.315722
-0.316311
-0.316309
-0.316311
-0.315724
-8.32566
-8.32696
-8.3271
-8.32696
-8.32564
-19.1381
-19.1382
-19.1387
-19.1382
-19.138
-0.0078007
-0.00780038
-0.00780037
-0.00780038
-0.00780071
0.00229338
0.00229307
0.00229306
0.00229307
0.00229338
0.000826489
0.00082653
0.000826527
0.00082653
0.000826489
1.9682e-05
1.97391e-05
1.97385e-05
1.97393e-05
1.96818e-05
-0.000102571
-0.000102567
-0.000102568
-0.000102567
-0.000102571
-4.98367e-05
-4.98485e-05
-4.98497e-05
-4.98483e-05
-4.98368e-05
-1.8941e-05
-1.8947e-05
-1.89482e-05
-1.89468e-05
-1.8941e-05
-1.45158e-05
-1.45171e-05
-1.45183e-05
-1.45168e-05
-1.45159e-05
-1.65929e-05
-1.65935e-05
-1.65947e-05
-1.65933e-05
-1.6593e-05
-1.77914e-05
-1.77925e-05
-1.77937e-05
-1.77923e-05
-1.77915e-05
-1.7939e-05
-1.79404e-05
-1.79416e-05
-1.79402e-05
-1.79391e-05
-1.78321e-05
-1.78335e-05
-1.78348e-05
-1.78333e-05
-1.78321e-05
-1.77608e-05
-1.77622e-05
-1.77635e-05
-1.7762e-05
-1.77609e-05
-1.7731e-05
-1.77324e-05
-1.77336e-05
-1.77322e-05
-1.7731e-05
-1.77109e-05
-1.77123e-05
-1.77135e-05
-1.7712e-05
-1.77109e-05
-1.7689e-05
-1.76904e-05
-1.76917e-05
-1.76902e-05
-1.76891e-05
-1.76653e-05
-1.76666e-05
-1.76679e-05
-1.76664e-05
-1.76653e-05
-1.76408e-05
-1.76422e-05
-1.76434e-05
-1.7642e-05
-1.76408e-05
-1.76162e-05
-1.76175e-05
-1.76188e-05
-1.76173e-05
-1.76162e-05
-1.75913e-05
-1.75927e-05
-1.75939e-05
-1.75924e-05
-1.75913e-05
-1.75662e-05
-1.75675e-05
-1.75687e-05
-1.75673e-05
-1.75662e-05
-1.75407e-05
-1.75421e-05
-1.75433e-05
-1.75419e-05
-1.75407e-05
-1.7515e-05
-1.75164e-05
-1.75176e-05
-1.75162e-05
-1.7515e-05
-1.7489e-05
-1.74904e-05
-1.74915e-05
-1.74901e-05
-1.7489e-05
-1.74627e-05
-1.74641e-05
-1.74652e-05
-1.74638e-05
-1.74627e-05
-1.74362e-05
-1.74375e-05
-1.74386e-05
-1.74372e-05
-1.74361e-05
-1.74093e-05
-1.74106e-05
-1.74117e-05
-1.74103e-05
-1.74092e-05
-1.73821e-05
-1.73834e-05
-1.73845e-05
-1.73831e-05
-1.7382e-05
-1.73546e-05
-1.73558e-05
-1.73569e-05
-1.73556e-05
-1.73545e-05
-1.73268e-05
-1.7328e-05
-1.73291e-05
-1.73278e-05
-1.73267e-05
-1.72986e-05
-1.72999e-05
-1.7301e-05
-1.72997e-05
-1.72986e-05
-1.72702e-05
-1.72714e-05
-1.72725e-05
-1.72712e-05
-1.72702e-05
-1.72415e-05
-1.72427e-05
-1.72437e-05
-1.72424e-05
-1.72414e-05
-1.72124e-05
-1.72136e-05
-1.72146e-05
-1.72133e-05
-1.72123e-05
-1.7183e-05
-1.71841e-05
-1.71851e-05
-1.71839e-05
-1.71829e-05
-1.71532e-05
-1.71544e-05
-1.71554e-05
-1.71542e-05
-1.71532e-05
-1.71232e-05
-1.71243e-05
-1.71253e-05
-1.71241e-05
-1.71231e-05
-1.70928e-05
-1.70939e-05
-1.70948e-05
-1.70937e-05
-1.70927e-05
-1.7062e-05
-1.70631e-05
-1.7064e-05
-1.70629e-05
-1.7062e-05
-1.70309e-05
-1.7032e-05
-1.70329e-05
-1.70318e-05
-1.70309e-05
-1.69995e-05
-1.70005e-05
-1.70014e-05
-1.70003e-05
-1.69994e-05
-1.69677e-05
-1.69687e-05
-1.69696e-05
-1.69685e-05
-1.69676e-05
-1.69356e-05
-1.69365e-05
-1.69374e-05
-1.69364e-05
-1.69355e-05
-1.69031e-05
-1.6904e-05
-1.69048e-05
-1.69038e-05
-1.6903e-05
-1.68702e-05
-1.68711e-05
-1.68719e-05
-1.68709e-05
-1.68701e-05
-1.6837e-05
-1.68379e-05
-1.68387e-05
-1.68377e-05
-1.68369e-05
-1.68034e-05
-1.68043e-05
-1.6805e-05
-1.68041e-05
-1.68033e-05
-1.67694e-05
-1.67703e-05
-1.6771e-05
-1.67701e-05
-1.67693e-05
-1.6735e-05
-1.67359e-05
-1.67366e-05
-1.67357e-05
-1.6735e-05
-1.67003e-05
-1.67011e-05
-1.67018e-05
-1.67009e-05
-1.67002e-05
-1.66652e-05
-1.6666e-05
-1.66666e-05
-1.66658e-05
-1.66651e-05
-1.66297e-05
-1.66304e-05
-1.66311e-05
-1.66303e-05
-1.66296e-05
-1.65938e-05
-1.65945e-05
-1.65951e-05
-1.65943e-05
-1.65937e-05
-1.65574e-05
-1.65582e-05
-1.65588e-05
-1.6558e-05
-1.65574e-05
-1.65207e-05
-1.65214e-05
-1.6522e-05
-1.65213e-05
-1.65207e-05
-1.64836e-05
-1.64843e-05
-1.64848e-05
-1.64841e-05
-1.64835e-05
-1.64461e-05
-1.64467e-05
-1.64472e-05
-1.64466e-05
-1.6446e-05
-1.64081e-05
-1.64087e-05
-1.64093e-05
-1.64086e-05
-1.64081e-05
-1.63698e-05
-1.63703e-05
-1.63708e-05
-1.63702e-05
-1.63697e-05
-1.6331e-05
-1.63315e-05
-1.6332e-05
-1.63314e-05
-1.63309e-05
-1.62917e-05
-1.62923e-05
-1.62927e-05
-1.62921e-05
-1.62917e-05
-1.62521e-05
-1.62526e-05
-1.6253e-05
-1.62525e-05
-1.6252e-05
-1.6212e-05
-1.62124e-05
-1.62129e-05
-1.62123e-05
-1.62119e-05
-1.61714e-05
-1.61719e-05
-1.61723e-05
-1.61718e-05
-1.61713e-05
-1.61304e-05
-1.61308e-05
-1.61312e-05
-1.61307e-05
-1.61303e-05
-1.6089e-05
-1.60894e-05
-1.60897e-05
-1.60893e-05
-1.60889e-05
-1.6047e-05
-1.60474e-05
-1.60478e-05
-1.60473e-05
-1.6047e-05
-1.60047e-05
-1.6005e-05
-1.60053e-05
-1.60049e-05
-1.60046e-05
-1.59618e-05
-1.59622e-05
-1.59625e-05
-1.59621e-05
-1.59618e-05
-1.59185e-05
-1.59188e-05
-1.59191e-05
-1.59187e-05
-1.59184e-05
-1.58747e-05
-1.5875e-05
-1.58752e-05
-1.58749e-05
-1.58746e-05
-1.58304e-05
-1.58307e-05
-1.58309e-05
-1.58306e-05
-1.58303e-05
-1.57856e-05
-1.57859e-05
-1.57861e-05
-1.57858e-05
-1.57856e-05
-1.57403e-05
-1.57406e-05
-1.57408e-05
-1.57405e-05
-1.57403e-05
-1.56945e-05
-1.56948e-05
-1.5695e-05
-1.56947e-05
-1.56945e-05
-1.56483e-05
-1.56485e-05
-1.56486e-05
-1.56484e-05
-1.56482e-05
-1.56014e-05
-1.56016e-05
-1.56018e-05
-1.56016e-05
-1.56014e-05
-1.55541e-05
-1.55543e-05
-1.55545e-05
-1.55543e-05
-1.55541e-05
-1.55063e-05
-1.55064e-05
-1.55066e-05
-1.55064e-05
-1.55063e-05
-1.54579e-05
-1.54581e-05
-1.54582e-05
-1.5458e-05
-1.54579e-05
-1.5409e-05
-1.54091e-05
-1.54092e-05
-1.54091e-05
-1.5409e-05
-1.53595e-05
-1.53597e-05
-1.53597e-05
-1.53596e-05
-1.53595e-05
-1.53095e-05
-1.53096e-05
-1.53097e-05
-1.53096e-05
-1.53095e-05
-1.5259e-05
-1.52591e-05
-1.52591e-05
-1.5259e-05
-1.5259e-05
-1.52079e-05
-1.52079e-05
-1.5208e-05
-1.52079e-05
-1.52078e-05
-1.51562e-05
-1.51562e-05
-1.51563e-05
-1.51562e-05
-1.51561e-05
)
;

boundaryField
{
    BotWall
    {
        type            fixedFluxPressure;
        gradient        uniform 0;
        value           nonuniform List<scalar> 5(0.427128 0.42714 0.427132 0.42714 0.427127);
    }
    FreeStream
    {
        type            totalPressure;
        rho             rho;
        psi             none;
        gamma           1;
        p0              uniform 0;
        value           nonuniform List<scalar> 5(-1.51302e-05 -1.51302e-05 -1.51303e-05 -1.51302e-05 -1.51301e-05);
    }
    FrontNBack
    {
        type            empty;
    }
    LeftSide
    {
        type            symmetryPlane;
    }
    RightSide
    {
        type            symmetryPlane;
    }
}


// ************************************************************************* //
