/*--------------------------------*- C++ -*----------------------------------*\
| =========                 |                                                 |
| \\      /  F ield         | OpenFOAM: The Open Source CFD Toolbox           |
|  \\    /   O peration     | Version:  2.4.0                                 |
|   \\  /    A nd           | Web:      www.OpenFOAM.org                      |
|    \\/     M anipulation  |                                                 |
\*---------------------------------------------------------------------------*/
FoamFile
{
    version     2.0;
    format      ascii;
    class       surfaceScalarField;
    location    "1.4";
    object      phi;
}
// * * * * * * * * * * * * * * * * * * * * * * * * * * * * * * * * * * * * * //

dimensions      [0 3 -1 0 0 0 0];

internalField   nonuniform List<scalar> 
895
(
9.18377e-19
-9.18296e-19
5.35201e-19
3.83157e-19
-5.51502e-19
1.08653e-18
-9.41638e-19
3.90107e-19
-9.41259e-19
2.80417e-18
-3.71799e-18
1.62396e-18
1.57094e-18
-1.67385e-18
4.39483e-18
-2.875e-18
1.59952e-18
-3.81024e-18
4.76923e-18
-8.48196e-18
2.75242e-18
3.59614e-18
-2.83728e-18
9.99581e-18
-4.88977e-18
3.66065e-18
-8.69398e-18
6.80082e-18
-1.5277e-17
3.91746e-18
6.48831e-18
-4.03885e-18
1.79638e-17
-6.97425e-18
6.6048e-18
-1.56623e-17
8.92079e-18
-2.41918e-17
5.12914e-18
1.02889e-17
-5.28874e-18
2.83933e-17
-9.14869e-18
1.04733e-17
-2.48054e-17
1.11112e-17
-3.52971e-17
6.37892e-18
1.50299e-17
-6.57811e-18
4.13615e-17
-1.13955e-17
1.52989e-17
-3.61956e-17
1.34015e-17
-4.86928e-17
7.68095e-18
2.07587e-17
-7.92127e-18
5.69742e-17
-1.37446e-17
2.11298e-17
-4.99354e-17
1.57563e-17
-6.44437e-17
9.02399e-18
2.74986e-17
-9.30699e-18
7.53148e-17
-1.61602e-17
2.79898e-17
-6.60915e-17
1.81975e-17
-8.26363e-17
1.04321e-17
3.52708e-17
-1.07592e-17
9.65143e-17
-1.86649e-17
3.59013e-17
-8.4753e-17
2.07268e-17
-1.03359e-16
1.18996e-17
4.41037e-17
-1.22725e-17
1.20693e-16
-2.12601e-17
4.48934e-17
-1.0601e-16
2.35425e-17
-1.26898e-16
1.34362e-17
5.42142e-17
-1.38572e-17
1.47992e-16
-2.4144e-17
5.51835e-17
-1.30153e-16
2.67633e-17
-1.5366e-16
1.48852e-17
6.60948e-17
-1.53569e-17
1.78237e-16
-2.74382e-17
6.72667e-17
-1.5759e-16
2.99071e-17
-2.80102e-16
1.63676e-17
7.96343e-17
-1.68895e-17
2.11494e-16
-3.06685e-17
8.10456e-17
-2.87262e-16
3.10189e-17
-3.64309e-10
1.82682e-17
-3.6431e-10
-1.88327e-17
-3.6431e-10
-3.18919e-17
-3.6431e-10
-3.64309e-10
3.24501e-17
-3.64309e-10
1.84899e-17
-3.6431e-10
-1.90864e-17
-3.6431e-10
-3.33098e-17
-3.6431e-10
-3.64309e-10
3.77155e-17
-3.64309e-10
1.79019e-17
-3.6431e-10
-1.83026e-17
-3.6431e-10
-3.85402e-17
-3.6431e-10
-3.64309e-10
2.9838e-17
-3.64309e-10
1.74793e-17
-3.6431e-10
-1.76736e-17
-3.6431e-10
-3.05952e-17
-3.6431e-10
-3.64309e-10
2.69422e-17
-3.64309e-10
1.60682e-17
-3.6431e-10
-1.60573e-17
-3.6431e-10
-2.76366e-17
-3.6431e-10
-3.64309e-10
2.57475e-17
-3.64309e-10
1.47312e-17
-3.6431e-10
-1.45181e-17
-3.6431e-10
-2.63813e-17
-3.6431e-10
-3.64309e-10
2.41729e-17
-3.64309e-10
1.36417e-17
-3.6431e-10
-1.32305e-17
-3.6431e-10
-2.47455e-17
-3.6431e-10
-3.64309e-10
2.22005e-17
-3.64309e-10
1.26103e-17
-3.6431e-10
-1.20048e-17
-3.6431e-10
-2.27107e-17
-3.6431e-10
-3.64309e-10
2.02161e-17
-3.64309e-10
1.15655e-17
-3.6431e-10
-1.07699e-17
-3.6431e-10
-2.06629e-17
-3.6431e-10
-3.64309e-10
1.83398e-17
-3.64309e-10
1.0526e-17
-3.6431e-10
-9.54444e-18
-3.6431e-10
-1.87222e-17
-3.6431e-10
-3.64309e-10
1.65446e-17
-3.64309e-10
9.51343e-18
-3.6431e-10
-8.35028e-18
-3.6431e-10
-1.68618e-17
-3.6431e-10
-3.64309e-10
1.48012e-17
-3.64309e-10
8.53279e-18
-3.6431e-10
-7.19266e-18
-3.6431e-10
-1.50528e-17
-3.6431e-10
-3.64309e-10
1.31046e-17
-3.64309e-10
7.58265e-18
-3.6431e-10
-6.07032e-18
-3.6431e-10
-1.329e-17
-3.6431e-10
-3.64309e-10
1.14584e-17
-3.64309e-10
6.66206e-18
-3.6431e-10
-4.98248e-18
-3.6431e-10
-1.15771e-17
-3.6431e-10
-3.64309e-10
9.8654e-18
-3.64309e-10
5.77128e-18
-3.6431e-10
-3.92957e-18
-3.6431e-10
-9.91712e-18
-3.6431e-10
-3.64309e-10
8.32683e-18
-3.64309e-10
4.91097e-18
-3.6431e-10
-2.91242e-18
-3.6431e-10
-8.31139e-18
-3.6431e-10
-3.64309e-10
6.84328e-18
-3.64309e-10
4.08167e-18
-3.6431e-10
-1.93172e-18
-3.6431e-10
-6.7606e-18
-3.6431e-10
-3.64309e-10
5.41533e-18
-3.64309e-10
3.28378e-18
-3.6431e-10
-9.88054e-19
-3.6431e-10
-5.26546e-18
-3.6431e-10
-3.64309e-10
4.0436e-18
-3.64309e-10
2.51768e-18
-3.6431e-10
-8.19246e-20
-3.6431e-10
-3.82671e-18
-3.6431e-10
-3.64309e-10
2.72867e-18
-3.64309e-10
1.78368e-18
-3.6431e-10
7.86212e-19
-3.6431e-10
-2.44504e-18
-3.6431e-10
-3.64309e-10
1.47101e-18
-3.64309e-10
1.08204e-18
-3.6431e-10
1.61595e-18
-3.6431e-10
-1.12105e-18
-3.6431e-10
-3.64309e-10
2.71034e-19
-3.64309e-10
4.12994e-19
-3.6431e-10
2.40693e-18
-3.6431e-10
1.44737e-19
-3.6431e-10
-3.64309e-10
-8.70957e-19
-3.64309e-10
-2.23277e-19
-3.6431e-10
3.15886e-18
-3.6431e-10
1.35188e-18
-3.6431e-10
-3.64309e-10
-1.95473e-18
-3.64309e-10
-8.26642e-19
-3.6431e-10
3.87149e-18
-3.6431e-10
2.50002e-18
-3.6431e-10
-3.64309e-10
-2.98013e-18
-3.64309e-10
-1.39702e-18
-3.6431e-10
4.54464e-18
-3.6431e-10
3.58889e-18
-3.6431e-10
-3.64309e-10
-3.94711e-18
-3.64309e-10
-1.93438e-18
-3.6431e-10
5.1782e-18
-3.6431e-10
4.61831e-18
-3.6431e-10
-3.64309e-10
-4.85569e-18
-3.64309e-10
-2.43874e-18
-3.6431e-10
5.77209e-18
-3.6431e-10
5.58819e-18
-3.6431e-10
-3.64309e-10
-5.70598e-18
-3.64309e-10
-2.91016e-18
-3.6431e-10
6.32632e-18
-3.6431e-10
6.49851e-18
-3.6431e-10
-3.64309e-10
-6.49819e-18
-3.64309e-10
-3.34877e-18
-3.6431e-10
6.84096e-18
-3.6431e-10
7.34936e-18
-3.6431e-10
-3.64309e-10
-7.23262e-18
-3.64309e-10
-3.75474e-18
-3.6431e-10
7.31611e-18
-3.6431e-10
8.14093e-18
-3.6431e-10
-3.64309e-10
-7.90963e-18
-3.64309e-10
-4.1283e-18
-3.6431e-10
7.75199e-18
-3.6431e-10
8.87348e-18
-3.6431e-10
-3.64309e-10
-8.52972e-18
-3.64309e-10
-4.46971e-18
-3.6431e-10
8.14883e-18
-3.6431e-10
9.54736e-18
-3.6431e-10
-3.64309e-10
-9.09343e-18
-3.64309e-10
-4.7793e-18
-3.6431e-10
8.50695e-18
-3.6431e-10
1.0163e-17
-3.6431e-10
-3.64309e-10
-9.60142e-18
-3.64309e-10
-5.05744e-18
-3.6431e-10
8.82675e-18
-3.6431e-10
1.07211e-17
-3.6431e-10
-3.64309e-10
-1.00544e-17
-3.64309e-10
-5.30458e-18
-3.6431e-10
9.10866e-18
-3.6431e-10
1.12221e-17
-3.6431e-10
-3.64309e-10
-1.04533e-17
-3.64309e-10
-5.52118e-18
-3.6431e-10
9.3532e-18
-3.6431e-10
1.16668e-17
-3.6431e-10
-3.64309e-10
-1.07989e-17
-3.64309e-10
-5.70777e-18
-3.6431e-10
9.56094e-18
-3.6431e-10
1.2056e-17
-3.6431e-10
-3.64309e-10
-1.10922e-17
-3.64309e-10
-5.86492e-18
-3.6431e-10
9.73251e-18
-3.6431e-10
1.23907e-17
-3.6431e-10
-3.64309e-10
-1.13344e-17
-3.64309e-10
-5.99327e-18
-3.6431e-10
9.86863e-18
-3.6431e-10
1.26718e-17
-3.6431e-10
-3.64309e-10
-1.15266e-17
-3.64309e-10
-6.09348e-18
-3.6431e-10
9.97006e-18
-3.6431e-10
1.29005e-17
-3.6431e-10
-3.64309e-10
-1.167e-17
-3.64309e-10
-6.16626e-18
-3.6431e-10
1.00376e-17
-3.6431e-10
1.3078e-17
-3.6431e-10
-3.64309e-10
-1.1766e-17
-3.64309e-10
-6.21239e-18
-3.6431e-10
1.00722e-17
-3.6431e-10
1.32054e-17
-3.6431e-10
-3.64309e-10
-1.18159e-17
-3.64309e-10
-6.23266e-18
-3.6431e-10
1.00747e-17
-3.6431e-10
1.32841e-17
-3.6431e-10
-3.64309e-10
-1.18213e-17
-3.64309e-10
-6.22793e-18
-3.6431e-10
1.00462e-17
-3.6431e-10
1.33157e-17
-3.6431e-10
-3.64309e-10
-1.17837e-17
-3.64309e-10
-6.19907e-18
-3.6431e-10
9.98767e-18
-3.6431e-10
1.33015e-17
-3.6431e-10
-3.64309e-10
-1.17047e-17
-3.64309e-10
-6.14702e-18
-3.6431e-10
9.90029e-18
-3.6431e-10
1.32432e-17
-3.6431e-10
-3.64309e-10
-1.15859e-17
-3.64309e-10
-6.07273e-18
-3.6431e-10
9.78518e-18
-3.6431e-10
1.31424e-17
-3.6431e-10
-3.64309e-10
-1.14292e-17
-3.64309e-10
-5.9772e-18
-3.6431e-10
9.64358e-18
-3.6431e-10
1.30009e-17
-3.6431e-10
-3.64309e-10
-1.12363e-17
-3.64309e-10
-5.86146e-18
-3.6431e-10
9.47672e-18
-3.6431e-10
1.28205e-17
-3.6431e-10
-3.64309e-10
-1.1009e-17
-3.64309e-10
-5.72658e-18
-3.6431e-10
9.28592e-18
-3.6431e-10
1.2603e-17
-3.6431e-10
-3.64309e-10
-1.07494e-17
-3.64309e-10
-5.57363e-18
-3.6431e-10
9.07252e-18
-3.6431e-10
1.23503e-17
-3.6431e-10
-3.64309e-10
-1.04592e-17
-3.64309e-10
-5.40373e-18
-3.6431e-10
8.8379e-18
-3.6431e-10
1.20646e-17
-3.6431e-10
-3.64309e-10
-1.01406e-17
-3.64309e-10
-5.21802e-18
-3.6431e-10
8.5835e-18
-3.6431e-10
1.17477e-17
-3.6431e-10
-3.64309e-10
-9.79552e-18
-3.64309e-10
-5.01766e-18
-3.6431e-10
8.31075e-18
-3.6431e-10
1.14017e-17
-3.6431e-10
-3.64309e-10
-9.42608e-18
-3.64309e-10
-4.80383e-18
-3.6431e-10
8.02116e-18
-3.6431e-10
1.10289e-17
-3.6431e-10
-3.64309e-10
-9.03437e-18
-3.64309e-10
-4.57771e-18
-3.6431e-10
7.71624e-18
-3.6431e-10
1.06313e-17
-3.6431e-10
-3.64309e-10
-8.6225e-18
-3.64309e-10
-4.34051e-18
-3.6431e-10
7.39752e-18
-3.6431e-10
1.02113e-17
-3.6431e-10
-3.64309e-10
-8.19264e-18
-3.64309e-10
-4.09346e-18
-3.6431e-10
7.06656e-18
-3.6431e-10
9.77092e-18
-3.6431e-10
-3.64309e-10
-7.74695e-18
-3.64309e-10
-3.83777e-18
-3.6431e-10
6.72495e-18
-3.6431e-10
9.31258e-18
-3.6431e-10
-3.64309e-10
-7.2876e-18
-3.64309e-10
-3.57468e-18
-3.6431e-10
6.37427e-18
-3.6431e-10
8.83853e-18
-3.6431e-10
-3.64309e-10
-6.81678e-18
-3.64309e-10
-3.30543e-18
-3.6431e-10
6.01612e-18
-3.6431e-10
8.35107e-18
-3.6431e-10
-3.64309e-10
-6.33667e-18
-3.64309e-10
-3.03123e-18
-3.6431e-10
5.65212e-18
-3.6431e-10
7.85255e-18
-3.6431e-10
-3.64309e-10
-5.84947e-18
-3.64309e-10
-2.75334e-18
-3.6431e-10
5.28388e-18
-3.6431e-10
7.34528e-18
-3.6431e-10
-3.64309e-10
-5.35736e-18
-3.64309e-10
-2.47297e-18
-3.6431e-10
4.91301e-18
-3.6431e-10
6.8316e-18
-3.6431e-10
-3.64309e-10
-4.8625e-18
-3.64309e-10
-2.19134e-18
-3.6431e-10
4.54112e-18
-3.6431e-10
6.31387e-18
-3.6431e-10
-3.64309e-10
-4.36706e-18
-3.64309e-10
-1.90966e-18
-3.6431e-10
4.1698e-18
-3.6431e-10
5.7944e-18
-3.6431e-10
-3.64309e-10
-3.87318e-18
-3.64309e-10
-1.62912e-18
-3.6431e-10
3.80066e-18
-3.6431e-10
5.27552e-18
-3.6431e-10
-3.64309e-10
-3.38296e-18
-3.64309e-10
-1.35092e-18
-3.6431e-10
3.43526e-18
-3.6431e-10
4.75955e-18
-3.6431e-10
-3.64309e-10
-2.89851e-18
-3.64309e-10
-1.0762e-18
-3.6431e-10
3.07517e-18
-3.6431e-10
4.24878e-18
-3.6431e-10
-3.64309e-10
-2.42188e-18
-3.64309e-10
-8.06122e-19
-3.6431e-10
2.72192e-18
-3.6431e-10
3.74548e-18
-3.6431e-10
-3.64309e-10
-1.95511e-18
-3.64309e-10
-5.41804e-19
-3.6431e-10
2.37702e-18
-3.6431e-10
3.2519e-18
-3.6431e-10
-3.64309e-10
-1.50018e-18
-3.64309e-10
-2.84347e-19
-3.6431e-10
2.04197e-18
-3.6431e-10
2.77026e-18
-3.6431e-10
-3.64309e-10
-1.05905e-18
-3.64309e-10
-3.48281e-20
-3.6431e-10
1.7182e-18
-3.6431e-10
2.30277e-18
-3.6431e-10
-3.64309e-10
-6.33642e-19
-3.64309e-10
2.05702e-19
-3.6431e-10
1.40716e-18
-3.6431e-10
1.85156e-18
-3.6431e-10
-3.64309e-10
-2.25816e-19
-3.64309e-10
4.3622e-19
-3.6431e-10
1.11022e-18
-3.6431e-10
1.41878e-18
-3.6431e-10
-3.64309e-10
1.62594e-19
-3.64309e-10
6.55731e-19
-3.6431e-10
8.28742e-19
-3.6431e-10
1.0065e-18
-3.6431e-10
-3.64309e-10
5.29806e-19
-3.64309e-10
8.63268e-19
-3.6431e-10
5.64028e-19
-3.6431e-10
6.16768e-19
-3.6431e-10
-3.64309e-10
8.74082e-19
-3.64309e-10
1.05789e-18
-3.6431e-10
3.17349e-19
-3.6431e-10
2.51601e-19
-3.6431e-10
-3.64309e-10
1.19373e-18
-3.64309e-10
1.2387e-18
-3.6431e-10
8.99321e-20
-3.6431e-10
-8.70323e-20
-3.6431e-10
-3.64309e-10
1.4871e-18
-3.64309e-10
1.40482e-18
-3.6431e-10
-1.17043e-19
-3.6431e-10
-3.97201e-19
-3.6431e-10
-3.64309e-10
1.75259e-18
-3.64309e-10
1.55539e-18
-3.6431e-10
-3.02441e-19
-3.6431e-10
-6.77012e-19
-3.6431e-10
-3.64309e-10
1.98863e-18
-3.64309e-10
1.6896e-18
-3.6431e-10
-4.65172e-19
-3.6431e-10
-9.24602e-19
-3.6431e-10
-3.64309e-10
2.19369e-18
-3.64309e-10
1.80664e-18
-3.6431e-10
-6.04174e-19
-3.6431e-10
-1.13813e-18
-3.6431e-10
-3.64309e-10
2.36622e-18
-3.64309e-10
1.90572e-18
-3.6431e-10
-7.18412e-19
-3.6431e-10
-1.31578e-18
-3.6431e-10
-3.64309e-10
2.50487e-18
-3.64309e-10
1.98615e-18
-3.6431e-10
-8.06982e-19
-3.6431e-10
-1.45586e-18
-3.6431e-10
-3.64309e-10
2.60871e-18
-3.64309e-10
2.04762e-18
-3.6431e-10
-8.69424e-19
-3.6431e-10
-1.55702e-18
-3.6431e-10
-3.64309e-10
2.68522e-18
2.09407e-18
-9.10748e-19
-1.62501e-18
)
;

boundaryField
{
    BotWall
    {
        type            calculated;
        value           nonuniform List<scalar> 5(-1.3691e-22 1.79796e-22 3.1807e-22 1.64242e-22 -2.50768e-22);
    }
    FreeStream
    {
        type            calculated;
        value           nonuniform List<scalar> 5(-3.64309e-10 -3.6431e-10 -3.6431e-10 -3.6431e-10 -3.64309e-10);
    }
    FrontNBack
    {
        type            empty;
        value           nonuniform 0();
    }
    LeftSide
    {
        type            symmetryPlane;
        value           uniform 0;
    }
    RightSide
    {
        type            symmetryPlane;
        value           uniform 0;
    }
}


// ************************************************************************* //
