/*--------------------------------*- C++ -*----------------------------------*\
| =========                 |                                                 |
| \\      /  F ield         | OpenFOAM: The Open Source CFD Toolbox           |
|  \\    /   O peration     | Version:  2.4.0                                 |
|   \\  /    A nd           | Web:      www.OpenFOAM.org                      |
|    \\/     M anipulation  |                                                 |
\*---------------------------------------------------------------------------*/
FoamFile
{
    version     2.0;
    format      ascii;
    class       volVectorField;
    location    "1.4";
    object      U;
}
// * * * * * * * * * * * * * * * * * * * * * * * * * * * * * * * * * * * * * //

dimensions      [0 1 -1 0 0 0 0];

internalField   nonuniform List<vector> 
500
(
(2.83564e-10 -1.02447e-09 0)
(3.88533e-10 -1.03329e-09 0)
(-1.33759e-12 -1.03254e-09 0)
(-3.97735e-10 -1.03329e-09 0)
(-2.91335e-10 -1.0245e-09 0)
(8.55964e-10 1.06586e-09 0)
(1.17008e-09 1.10352e-09 0)
(-4.05333e-12 1.11062e-09 0)
(-1.19786e-09 1.1036e-09 0)
(-8.79406e-10 1.06564e-09 0)
(1.44064e-09 -5.26271e-09 0)
(1.96423e-09 -5.26494e-09 0)
(-6.81196e-12 -5.24341e-09 0)
(-2.01097e-09 -5.26474e-09 0)
(-1.48011e-09 -5.26343e-09 0)
(2.03334e-09 8.69025e-09 0)
(2.7666e-09 8.83586e-09 0)
(-9.64621e-12 8.8783e-09 0)
(-2.83289e-09 8.8363e-09 0)
(-2.08933e-09 8.68884e-09 0)
(2.64117e-09 1.92324e-08 0)
(3.58414e-09 1.93117e-08 0)
(-1.2555e-11 1.93848e-08 0)
(-3.6703e-09 1.93124e-08 0)
(-2.71394e-09 1.92299e-08 0)
(3.25681e-09 5.08196e-08 0)
(4.40975e-09 5.11123e-08 0)
(-1.55055e-11 5.1222e-08 0)
(-4.51607e-09 5.11134e-08 0)
(-3.34663e-09 5.08158e-08 0)
(3.8897e-09 -1.10687e-07 0)
(5.25278e-09 -1.10631e-07 0)
(-1.85083e-11 -1.10477e-07 0)
(-5.37962e-09 -1.1063e-07 0)
(-3.99686e-09 -1.10692e-07 0)
(4.5292e-09 -6.6506e-07 0)
(6.10256e-09 -6.64858e-07 0)
(-2.15461e-11 -6.64664e-07 0)
(-6.25027e-09 -6.64856e-07 0)
(-4.65405e-09 -6.65065e-07 0)
(5.18698e-09 -1.12247e-06 0)
(6.97048e-09 -1.12199e-06 0)
(-2.45868e-11 -1.12175e-06 0)
(-7.13943e-09 -1.12199e-06 0)
(-5.32988e-09 -1.12248e-06 0)
(5.86148e-09 2.68094e-06 0)
(7.85494e-09 2.68407e-06 0)
(-2.76532e-11 2.68443e-06 0)
(-8.04555e-09 2.68408e-06 0)
(-6.02286e-09 2.68092e-06 0)
(6.58369e-09 1.78049e-05 0)
(8.78791e-09 1.78107e-05 0)
(-3.0779e-11 1.78115e-05 0)
(-9.00068e-09 1.78107e-05 0)
(-6.76399e-09 1.78048e-05 0)
(7.33228e-09 2.80109e-05 0)
(9.74552e-09 2.80115e-05 0)
(-3.40412e-11 2.80129e-05 0)
(-9.98145e-09 2.80115e-05 0)
(-7.5324e-09 2.80108e-05 0)
(8.00124e-09 -6.59343e-05 0)
(1.06392e-08 -6.59618e-05 0)
(-3.73425e-11 -6.59621e-05 0)
(-1.08995e-08 -6.59618e-05 0)
(-8.2224e-09 -6.59343e-05 0)
(8.3633e-09 -0.000504038 0)
(1.12327e-08 -0.000504076 0)
(-4.06087e-11 -0.000504081 0)
(-1.15182e-08 -0.000504076 0)
(-8.60625e-09 -0.000504037 0)
(8.67133e-09 -0.00134112 0)
(1.15792e-08 -0.00134109 0)
(-4.12156e-11 -0.00134108 0)
(-1.1869e-08 -0.00134109 0)
(-8.91803e-09 -0.00134112 0)
(9.28098e-09 -0.00309936 0)
(1.19678e-08 -0.00309932 0)
(2.54761e-12 -0.00309932 0)
(-1.22212e-08 -0.00309932 0)
(-9.53339e-09 -0.00309936 0)
(8.04696e-09 -0.00188803 0)
(1.04535e-08 -0.00188809 0)
(4.69844e-11 -0.00188809 0)
(-1.06647e-08 -0.00188809 0)
(-8.29997e-09 -0.00188803 0)
(7.26363e-09 -0.00175562 0)
(9.40209e-09 -0.00175563 0)
(8.92556e-11 -0.00175563 0)
(-9.57203e-09 -0.00175563 0)
(-7.5161e-09 -0.00175562 0)
(6.75705e-09 -0.00178382 0)
(8.64119e-09 -0.00178381 0)
(1.29604e-10 -0.00178382 0)
(-8.77126e-09 -0.00178381 0)
(-7.00848e-09 -0.00178382 0)
(6.27303e-09 -0.00181773 0)
(7.91494e-09 -0.00181773 0)
(1.68027e-10 -0.00181773 0)
(-8.00632e-09 -0.00181773 0)
(-6.52272e-09 -0.00181773 0)
(5.75527e-09 -0.00182453 0)
(7.16547e-09 -0.00182454 0)
(2.04565e-10 -0.00182454 0)
(-7.2192e-09 -0.00182454 0)
(-6.00244e-09 -0.00182453 0)
(5.2395e-09 -0.00182305 0)
(6.42822e-09 -0.00182305 0)
(2.39234e-10 -0.00182305 0)
(-6.44535e-09 -0.00182305 0)
(-5.48339e-09 -0.00182305 0)
(4.74771e-09 -0.0018217 0)
(5.72521e-09 -0.0018217 0)
(2.72048e-10 -0.00182171 0)
(-5.70681e-09 -0.0018217 0)
(-4.98759e-09 -0.0018217 0)
(4.28141e-09 -0.00182142 0)
(5.05789e-09 -0.00182142 0)
(3.03023e-10 -0.00182142 0)
(-5.00506e-09 -0.00182142 0)
(-4.5166e-09 -0.00182142 0)
(3.83717e-09 -0.00182149 0)
(4.42276e-09 -0.00182149 0)
(3.32177e-10 -0.00182149 0)
(-4.33661e-09 -0.00182149 0)
(-4.06704e-09 -0.00182149 0)
(3.41325e-09 -0.00182154 0)
(3.81793e-09 -0.00182154 0)
(3.5953e-10 -0.00182154 0)
(-3.6996e-09 -0.00182154 0)
(-3.6372e-09 -0.00182154 0)
(3.00927e-09 -0.00182155 0)
(3.24292e-09 -0.00182155 0)
(3.85103e-10 -0.00182155 0)
(-3.09356e-09 -0.00182155 0)
(-3.22676e-09 -0.00182155 0)
(2.62512e-09 -0.00182155 0)
(2.69745e-09 -0.00182155 0)
(4.08919e-10 -0.00182155 0)
(-2.51823e-09 -0.00182155 0)
(-2.83561e-09 -0.00182155 0)
(2.26052e-09 -0.00182155 0)
(2.18112e-09 -0.00182155 0)
(4.31002e-10 -0.00182155 0)
(-1.97323e-09 -0.00182155 0)
(-2.46354e-09 -0.00182155 0)
(1.91511e-09 -0.00182155 0)
(1.69342e-09 -0.00182155 0)
(4.51378e-10 -0.00182155 0)
(-1.45805e-09 -0.00182155 0)
(-2.11022e-09 -0.00182155 0)
(1.58853e-09 -0.00182155 0)
(1.23382e-09 -0.00182155 0)
(4.70074e-10 -0.00182155 0)
(-9.72165e-10 -0.00182155 0)
(-1.77533e-09 -0.00182155 0)
(1.28038e-09 -0.00182155 0)
(8.01756e-10 -0.00182155 0)
(4.87117e-10 -0.00182155 0)
(-5.15037e-10 -0.00182155 0)
(-1.4585e-09 -0.00182155 0)
(9.90269e-10 -0.00182155 0)
(3.96666e-10 -0.00182155 0)
(5.0254e-10 -0.00182155 0)
(-8.61063e-11 -0.00182155 0)
(-1.1594e-09 -0.00182155 0)
(7.17807e-10 -0.00182155 0)
(1.79696e-11 -0.00182155 0)
(5.16372e-10 -0.00182155 0)
(3.15202e-10 -0.00182155 0)
(-8.77649e-10 -0.00182155 0)
(4.62581e-10 -0.00182155 0)
(-3.34933e-10 -0.00182155 0)
(5.28646e-10 -0.00182155 0)
(6.89482e-10 -0.00182155 0)
(-6.12891e-10 -0.00182155 0)
(2.24175e-10 -0.00182155 0)
(-6.62658e-10 -0.00182155 0)
(5.39397e-10 -0.00182155 0)
(1.03735e-09 -0.00182155 0)
(-3.64742e-10 -0.00182155 0)
(2.16353e-12 -0.00182155 0)
(-9.65834e-10 -0.00182155 0)
(5.48661e-10 -0.00182155 0)
(1.35942e-09 -0.00182155 0)
(-1.32812e-10 -0.00182155 0)
(-2.03887e-10 -0.00182155 0)
(-1.24511e-09 -0.00182155 0)
(5.56473e-10 -0.00182155 0)
(1.65636e-09 -0.00182155 0)
(8.32964e-11 -0.00182155 0)
(-3.94416e-10 -0.00182155 0)
(-1.50113e-09 -0.00182155 0)
(5.62873e-10 -0.00182155 0)
(1.92881e-09 -0.00182155 0)
(2.83988e-10 -0.00182155 0)
(-5.69872e-10 -0.00182155 0)
(-1.73459e-09 -0.00182155 0)
(5.67899e-10 -0.00182155 0)
(2.17745e-09 -0.00182155 0)
(4.69676e-10 -0.00182155 0)
(-7.30706e-10 -0.00182155 0)
(-1.94615e-09 -0.00182155 0)
(5.71592e-10 -0.00182155 0)
(2.40297e-09 -0.00182155 0)
(6.40778e-10 -0.00182155 0)
(-8.77377e-10 -0.00182155 0)
(-2.1365e-09 -0.00182155 0)
(5.73993e-10 -0.00182155 0)
(2.60607e-09 -0.00182155 0)
(7.97722e-10 -0.00182155 0)
(-1.01035e-09 -0.00182155 0)
(-2.30636e-09 -0.00182155 0)
(5.75146e-10 -0.00182155 0)
(2.78747e-09 -0.00182155 0)
(9.40938e-10 -0.00182155 0)
(-1.13009e-09 -0.00182155 0)
(-2.45644e-09 -0.00182155 0)
(5.75094e-10 -0.00182155 0)
(2.94787e-09 -0.00182155 0)
(1.07086e-09 -0.00182155 0)
(-1.23706e-09 -0.00182155 0)
(-2.58744e-09 -0.00182155 0)
(5.73881e-10 -0.00182155 0)
(3.08802e-09 -0.00182155 0)
(1.18794e-09 -0.00182155 0)
(-1.33175e-09 -0.00182155 0)
(-2.7001e-09 -0.00182155 0)
(5.71554e-10 -0.00182155 0)
(3.20866e-09 -0.00182155 0)
(1.29261e-09 -0.00182155 0)
(-1.41463e-09 -0.00182155 0)
(-2.79514e-09 -0.00182155 0)
(5.6816e-10 -0.00182155 0)
(3.31053e-09 -0.00182155 0)
(1.38533e-09 -0.00182155 0)
(-1.48617e-09 -0.00182155 0)
(-2.87331e-09 -0.00182155 0)
(5.63745e-10 -0.00182155 0)
(3.39438e-09 -0.00182155 0)
(1.46654e-09 -0.00182155 0)
(-1.54685e-09 -0.00182155 0)
(-2.93534e-09 -0.00182155 0)
(5.58358e-10 -0.00182155 0)
(3.46098e-09 -0.00182155 0)
(1.5367e-09 -0.00182155 0)
(-1.59715e-09 -0.00182155 0)
(-2.98196e-09 -0.00182155 0)
(5.52047e-10 -0.00182155 0)
(3.51109e-09 -0.00182155 0)
(1.59627e-09 -0.00182155 0)
(-1.63756e-09 -0.00182155 0)
(-3.01393e-09 -0.00182155 0)
(5.44862e-10 -0.00182155 0)
(3.54547e-09 -0.00182155 0)
(1.6457e-09 -0.00182155 0)
(-1.66854e-09 -0.00182155 0)
(-3.03198e-09 -0.00182155 0)
(5.36853e-10 -0.00182155 0)
(3.5649e-09 -0.00182155 0)
(1.68545e-09 -0.00182155 0)
(-1.69058e-09 -0.00182155 0)
(-3.03685e-09 -0.00182155 0)
(5.28071e-10 -0.00182155 0)
(3.57013e-09 -0.00182155 0)
(1.71597e-09 -0.00182155 0)
(-1.70415e-09 -0.00182155 0)
(-3.02929e-09 -0.00182155 0)
(5.18565e-10 -0.00182155 0)
(3.56195e-09 -0.00182155 0)
(1.73773e-09 -0.00182155 0)
(-1.70971e-09 -0.00182155 0)
(-3.01002e-09 -0.00182155 0)
(5.08387e-10 -0.00182155 0)
(3.54111e-09 -0.00182155 0)
(1.75117e-09 -0.00182155 0)
(-1.70774e-09 -0.00182155 0)
(-2.97978e-09 -0.00182155 0)
(4.97589e-10 -0.00182155 0)
(3.50838e-09 -0.00182155 0)
(1.75676e-09 -0.00182155 0)
(-1.6987e-09 -0.00182155 0)
(-2.93929e-09 -0.00182155 0)
(4.8622e-10 -0.00182155 0)
(3.46452e-09 -0.00182155 0)
(1.75493e-09 -0.00182155 0)
(-1.68305e-09 -0.00182155 0)
(-2.88927e-09 -0.00182155 0)
(4.74334e-10 -0.00182155 0)
(3.41028e-09 -0.00182155 0)
(1.74614e-09 -0.00182155 0)
(-1.66123e-09 -0.00182155 0)
(-2.83043e-09 -0.00182155 0)
(4.6198e-10 -0.00182155 0)
(3.34641e-09 -0.00182155 0)
(1.73083e-09 -0.00182155 0)
(-1.63371e-09 -0.00182155 0)
(-2.76347e-09 -0.00182155 0)
(4.49211e-10 -0.00182155 0)
(3.27366e-09 -0.00182155 0)
(1.70944e-09 -0.00182155 0)
(-1.60091e-09 -0.00182155 0)
(-2.68909e-09 -0.00182155 0)
(4.36076e-10 -0.00182155 0)
(3.19276e-09 -0.00182155 0)
(1.6824e-09 -0.00182155 0)
(-1.56327e-09 -0.00182155 0)
(-2.60797e-09 -0.00182155 0)
(4.22626e-10 -0.00182155 0)
(3.10442e-09 -0.00182155 0)
(1.65014e-09 -0.00182155 0)
(-1.52122e-09 -0.00182155 0)
(-2.52077e-09 -0.00182155 0)
(4.08911e-10 -0.00182155 0)
(3.00937e-09 -0.00182155 0)
(1.61308e-09 -0.00182155 0)
(-1.47518e-09 -0.00182155 0)
(-2.42816e-09 -0.00182155 0)
(3.94981e-10 -0.00182155 0)
(2.9083e-09 -0.00182155 0)
(1.57164e-09 -0.00182155 0)
(-1.42555e-09 -0.00182155 0)
(-2.33077e-09 -0.00182155 0)
(3.80884e-10 -0.00182155 0)
(2.80191e-09 -0.00182155 0)
(1.52623e-09 -0.00182155 0)
(-1.37274e-09 -0.00182155 0)
(-2.22923e-09 -0.00182155 0)
(3.66667e-10 -0.00182155 0)
(2.69086e-09 -0.00182155 0)
(1.47724e-09 -0.00182155 0)
(-1.31713e-09 -0.00182155 0)
(-2.12417e-09 -0.00182155 0)
(3.52379e-10 -0.00182155 0)
(2.57581e-09 -0.00182155 0)
(1.42508e-09 -0.00182155 0)
(-1.2591e-09 -0.00182155 0)
(-2.01617e-09 -0.00182155 0)
(3.38066e-10 -0.00182155 0)
(2.45742e-09 -0.00182155 0)
(1.37011e-09 -0.00182155 0)
(-1.19903e-09 -0.00182155 0)
(-1.90582e-09 -0.00182155 0)
(3.23772e-10 -0.00182155 0)
(2.33631e-09 -0.00182155 0)
(1.31273e-09 -0.00182155 0)
(-1.13727e-09 -0.00182155 0)
(-1.79368e-09 -0.00182155 0)
(3.09541e-10 -0.00182155 0)
(2.21309e-09 -0.00182155 0)
(1.25329e-09 -0.00182155 0)
(-1.07418e-09 -0.00182155 0)
(-1.68029e-09 -0.00182155 0)
(2.95416e-10 -0.00182155 0)
(2.08835e-09 -0.00182155 0)
(1.19216e-09 -0.00182155 0)
(-1.01008e-09 -0.00182155 0)
(-1.56619e-09 -0.00182155 0)
(2.8144e-10 -0.00182155 0)
(1.96267e-09 -0.00182155 0)
(1.12967e-09 -0.00182155 0)
(-9.45311e-10 -0.00182155 0)
(-1.45187e-09 -0.00182155 0)
(2.67651e-10 -0.00182155 0)
(1.83661e-09 -0.00182155 0)
(1.06617e-09 -0.00182155 0)
(-8.80178e-10 -0.00182155 0)
(-1.33782e-09 -0.00182155 0)
(2.54088e-10 -0.00182155 0)
(1.71069e-09 -0.00182155 0)
(1.00197e-09 -0.00182155 0)
(-8.14983e-10 -0.00182155 0)
(-1.22451e-09 -0.00182155 0)
(2.40788e-10 -0.00182155 0)
(1.58544e-09 -0.00182155 0)
(9.37405e-10 -0.00182155 0)
(-7.50015e-10 -0.00182155 0)
(-1.11239e-09 -0.00182155 0)
(2.27788e-10 -0.00182155 0)
(1.46133e-09 -0.00182155 0)
(8.72762e-10 -0.00182155 0)
(-6.85551e-10 -0.00182155 0)
(-1.00187e-09 -0.00182155 0)
(2.15119e-10 -0.00182155 0)
(1.33886e-09 -0.00182155 0)
(8.08337e-10 -0.00182155 0)
(-6.21853e-10 -0.00182155 0)
(-8.93358e-10 -0.00182155 0)
(2.02815e-10 -0.00182155 0)
(1.21846e-09 -0.00182155 0)
(7.44411e-10 -0.00182155 0)
(-5.59173e-10 -0.00182155 0)
(-7.87236e-10 -0.00182155 0)
(1.90904e-10 -0.00182155 0)
(1.10057e-09 -0.00182155 0)
(6.81253e-10 -0.00182155 0)
(-4.9775e-10 -0.00182155 0)
(-6.8386e-10 -0.00182155 0)
(1.79416e-10 -0.00182155 0)
(9.85576e-10 -0.00182155 0)
(6.1912e-10 -0.00182155 0)
(-4.37808e-10 -0.00182155 0)
(-5.83568e-10 -0.00182155 0)
(1.68376e-10 -0.00182155 0)
(8.73874e-10 -0.00182155 0)
(5.58257e-10 -0.00182155 0)
(-3.79563e-10 -0.00182155 0)
(-4.86674e-10 -0.00182155 0)
(1.57809e-10 -0.00182155 0)
(7.65819e-10 -0.00182155 0)
(4.98898e-10 -0.00182155 0)
(-3.23213e-10 -0.00182155 0)
(-3.93469e-10 -0.00182155 0)
(1.47735e-10 -0.00182155 0)
(6.61745e-10 -0.00182155 0)
(4.41265e-10 -0.00182155 0)
(-2.68949e-10 -0.00182155 0)
(-3.04224e-10 -0.00182155 0)
(1.38175e-10 -0.00182155 0)
(5.61965e-10 -0.00182155 0)
(3.8557e-10 -0.00182155 0)
(-2.16947e-10 -0.00182155 0)
(-2.19189e-10 -0.00182155 0)
(1.29148e-10 -0.00182155 0)
(4.66768e-10 -0.00182155 0)
(3.32012e-10 -0.00182155 0)
(-1.67371e-10 -0.00182155 0)
(-1.38589e-10 -0.00182155 0)
(1.20667e-10 -0.00182155 0)
(3.7642e-10 -0.00182155 0)
(2.80778e-10 -0.00182155 0)
(-1.20376e-10 -0.00182155 0)
(-6.26307e-11 -0.00182155 0)
(1.12746e-10 -0.00182155 0)
(2.91166e-10 -0.00182155 0)
(2.32048e-10 -0.00182154 0)
(-7.61028e-11 -0.00182155 0)
(8.50016e-12 -0.00182155 0)
(1.05396e-10 -0.00182155 0)
(2.11225e-10 -0.00182155 0)
(1.85987e-10 -0.00182154 0)
(-3.46839e-11 -0.00182155 0)
(7.46393e-11 -0.00182155 0)
(9.86265e-11 -0.00182155 0)
(1.36799e-10 -0.00182155 0)
(1.42754e-10 -0.00182154 0)
(3.75948e-12 -0.00182155 0)
(1.35642e-10 -0.00182155 0)
(9.24428e-11 -0.00182155 0)
(6.80641e-11 -0.00182155 0)
(1.02495e-10 -0.00182154 0)
(3.91155e-11 -0.00182155 0)
(1.91382e-10 -0.00182155 0)
(8.68493e-11 -0.00182155 0)
(5.1779e-12 -0.00182155 0)
(6.53487e-11 -0.00182154 0)
(7.12815e-11 -0.00182155 0)
(2.41754e-10 -0.00182155 0)
(8.18476e-11 -0.00182155 0)
(-5.17235e-11 -0.00182155 0)
(3.14446e-11 -0.00182154 0)
(1.00163e-10 -0.00182155 0)
(2.86668e-10 -0.00182155 0)
(7.74371e-11 -0.00182155 0)
(-1.02523e-10 -0.00182155 0)
(9.04317e-13 -0.00182154 0)
(1.25675e-10 -0.00182155 0)
(3.26053e-10 -0.00182155 0)
(7.36149e-11 -0.00182155 0)
(-1.47125e-10 -0.00182155 0)
(-2.61579e-11 -0.00182154 0)
(1.47736e-10 -0.00182155 0)
(3.59853e-10 -0.00182155 0)
(7.03756e-11 -0.00182155 0)
(-1.85448e-10 -0.00182155 0)
(-4.96341e-11 -0.00182154 0)
(1.66272e-10 -0.00182155 0)
(3.88028e-10 -0.00182155 0)
(6.77117e-11 -0.00182155 0)
(-2.1743e-10 -0.00182155 0)
(-6.94214e-11 -0.00182154 0)
(1.81216e-10 -0.00182155 0)
(4.10553e-10 -0.00182155 0)
(6.56132e-11 -0.00182155 0)
(-2.43026e-10 -0.00182155 0)
(-8.54224e-11 -0.00182154 0)
(1.92512e-10 -0.00182155 0)
(4.27433e-10 -0.00182155 0)
(6.40672e-11 -0.00182155 0)
(-2.62223e-10 -0.00182155 0)
(-9.75519e-11 -0.00182154 0)
(2.00127e-10 -0.00182155 0)
(4.38716e-10 -0.00182155 0)
(6.30586e-11 -0.00182155 0)
(-2.75045e-10 -0.00182155 0)
(-1.05739e-10 -0.00182155 0)
(2.04026e-10 -0.00182155 0)
(4.44461e-10 -0.00182155 0)
(6.25677e-11 -0.00182155 0)
(-2.8154e-10 -0.00182155 0)
(-1.09918e-10 -0.00182155 0)
)
;

boundaryField
{
    BotWall
    {
        type            fixedValue;
        value           uniform (0 0 0);
    }
    FreeStream
    {
        type            zeroGradient;
    }
    FrontNBack
    {
        type            empty;
    }
    LeftSide
    {
        type            symmetryPlane;
    }
    RightSide
    {
        type            symmetryPlane;
    }
}


// ************************************************************************* //
