/*--------------------------------*- C++ -*----------------------------------*\
| =========                 |                                                 |
| \\      /  F ield         | OpenFOAM: The Open Source CFD Toolbox           |
|  \\    /   O peration     | Version:  2.4.0                                 |
|   \\  /    A nd           | Web:      www.OpenFOAM.org                      |
|    \\/     M anipulation  |                                                 |
\*---------------------------------------------------------------------------*/
FoamFile
{
    version     2.0;
    format      ascii;
    class       volScalarField;
    location    "0.009";
    object      alpha1;
}
// * * * * * * * * * * * * * * * * * * * * * * * * * * * * * * * * * * * * * //

dimensions      [0 0 0 0 0 0 0];

internalField   nonuniform List<scalar> 
125
(
1
1
1
0.304159
2.0252e-114
1.15373e-120
6.58374e-127
3.73333e-133
1.95593e-139
8.81767e-146
3.40513e-152
1.15595e-158
3.2461e-165
7.48312e-172
1.40253e-178
2.12384e-185
2.65084e-192
3.05955e-199
4.13158e-206
6.66774e-213
9.71621e-220
1.00748e-226
5.92713e-234
1.10829e-241
0
0
0
0
0
0
0
0
0
0
0
0
0
0
0
0
0
0
0
0
0
0
0
0
0
0
0
0
0
0
0
0
0
0
0
0
0
0
0
0
0
0
0
0
0
0
0
0
0
0
0
0
0
0
0
0
0
0
0
0
0
0
0
0
0
0
0
0
0
0
0
0
0
0
0
0
0
0
0
0
0
0
0
0
0
0
0
0
0
0
0
0
0
0
0
0
0
0
0
0
0
)
;

boundaryField
{
    BotWall
    {
        type            fixedValue;
        value           uniform 1;
    }
    FreeStream
    {
        type            inletOutlet;
        inletValue      nonuniform 0();
        value           nonuniform 0();
    }
    FrontNBack
    {
        type            empty;
    }
    LeftSide
    {
        type            symmetryPlane;
    }
    RightSide
    {
        type            symmetryPlane;
    }
    procBoundary11to8
    {
        type            processor;
        value           uniform 0;
    }
    procBoundary11to9
    {
        type            processor;
        value           nonuniform List<scalar> 
75
(
1
1
1
0.300048
1.45741e-111
8.57028e-118
4.9589e-124
2.84338e-130
1.50766e-136
6.88709e-143
2.69611e-149
9.29137e-156
2.6582e-162
6.30742e-169
1.25714e-175
2.22577e-182
4.02718e-189
8.53059e-196
1.94647e-202
3.93106e-209
6.1048e-216
6.47476e-223
3.8609e-230
7.27705e-238
0
0
0
0
0
0
0
0
0
0
0
0
0
0
0
0
0
0
0
0
0
0
0
0
0
0
0
0
0
0
0
0
0
0
0
0
0
0
0
0
0
0
0
0
0
0
0
0
0
0
0
)
;
    }
    procBoundary11to10
    {
        type            processor;
        value           uniform 0;
    }
}


// ************************************************************************* //
