/*--------------------------------*- C++ -*----------------------------------*\
| =========                 |                                                 |
| \\      /  F ield         | OpenFOAM: The Open Source CFD Toolbox           |
|  \\    /   O peration     | Version:  2.4.0                                 |
|   \\  /    A nd           | Web:      www.OpenFOAM.org                      |
|    \\/     M anipulation  |                                                 |
\*---------------------------------------------------------------------------*/
FoamFile
{
    version     2.0;
    format      ascii;
    class       volScalarField;
    location    "0.009";
    object      p;
}
// * * * * * * * * * * * * * * * * * * * * * * * * * * * * * * * * * * * * * //

dimensions      [1 -1 -2 0 0 0 0];

internalField   nonuniform List<scalar> 
125
(
0.0382718
-0.0307535
0.119818
-0.791677
-0.10597
0.0247739
0.00580474
-0.00925841
-0.0123852
-0.0118278
-0.0114168
-0.0114634
-0.0116472
-0.0118252
-0.0119862
-0.0121425
-0.0122997
-0.0124582
-0.0126174
-0.0127773
-0.0129377
-0.0130986
-0.0132602
-0.0134224
-0.0135851
-0.0137485
-0.0139124
-0.014077
-0.0142422
-0.0144079
-0.0145743
-0.0147413
-0.0149089
-0.0150772
-0.015246
-0.0154155
-0.0155856
-0.0157563
-0.0159277
-0.0160997
-0.0162723
-0.0164455
-0.0166194
-0.016794
-0.0169691
-0.017145
-0.0173214
-0.0174985
-0.0176763
-0.0178547
-0.0180338
-0.0182135
-0.0183939
-0.018575
-0.0187567
-0.0189391
-0.0191222
-0.019306
-0.0194904
-0.0196755
-0.0198613
-0.0200477
-0.0202349
-0.0204227
-0.0206113
-0.0208005
-0.0209904
-0.0211811
-0.0213724
-0.0215644
-0.0217572
-0.0219506
-0.0221448
-0.0223396
-0.0225352
-0.0227316
-0.0229286
-0.0231264
-0.0233248
-0.0235241
-0.023724
-0.0239247
-0.0241261
-0.0243283
-0.0245312
-0.0247349
-0.0249393
-0.0251445
-0.0253504
-0.0255571
-0.0257645
-0.0259727
-0.0261817
-0.0263914
-0.0266019
-0.0268132
-0.0270253
-0.0272381
-0.0274518
-0.0276662
-0.0278814
-0.0280974
-0.0283142
-0.0285318
-0.0287502
-0.0289694
-0.0291894
-0.0294102
-0.0296318
-0.0298543
-0.0300775
-0.0303016
-0.0305265
-0.0307523
-0.0309788
-0.0312062
-0.0314345
-0.0316636
-0.0318935
-0.0321243
-0.0323559
-0.0325883
-0.0328217
-0.0330559
-0.0332909
)
;

boundaryField
{
    BotWall
    {
        type            calculated;
        value           uniform 0.0432152;
    }
    FreeStream
    {
        type            calculated;
        value           nonuniform 0();
    }
    FrontNBack
    {
        type            empty;
    }
    LeftSide
    {
        type            symmetryPlane;
    }
    RightSide
    {
        type            symmetryPlane;
    }
    procBoundary11to8
    {
        type            processor;
        value           nonuniform List<scalar> 
50
(
-0.0227265
-0.0229236
-0.0231214
-0.0233199
-0.0235192
-0.0237192
-0.0239199
-0.0241214
-0.0243236
-0.0245265
-0.0247302
-0.0249347
-0.0251399
-0.0253458
-0.0255526
-0.02576
-0.0259683
-0.0261773
-0.0263871
-0.0265976
-0.0268089
-0.027021
-0.0272339
-0.0274476
-0.027662
-0.0278772
-0.0280933
-0.0283101
-0.0285277
-0.0287462
-0.0289654
-0.0291854
-0.0294063
-0.0296279
-0.0298504
-0.0300737
-0.0302978
-0.0305227
-0.0307485
-0.0309751
-0.0312025
-0.0314308
-0.0316599
-0.0318898
-0.0321206
-0.0323523
-0.0325848
-0.0328181
-0.0330523
-0.0332874
)
;
    }
    procBoundary11to9
    {
        type            processor;
        value           nonuniform List<scalar> 
75
(
0.0377178
-0.0307077
0.117567
-0.784494
-0.105004
0.0245569
0.00571399
-0.00925787
-0.0123664
-0.0118134
-0.011406
-0.0114533
-0.0116371
-0.011815
-0.0119761
-0.0121325
-0.0122898
-0.0124484
-0.0126077
-0.0127677
-0.0129281
-0.0130892
-0.0132509
-0.0134131
-0.013576
-0.0137394
-0.0139035
-0.0140681
-0.0142334
-0.0143993
-0.0145657
-0.0147328
-0.0149005
-0.0150689
-0.0152378
-0.0154074
-0.0155775
-0.0157483
-0.0159198
-0.0160919
-0.0162646
-0.0164379
-0.0166119
-0.0167865
-0.0169617
-0.0171376
-0.0173142
-0.0174914
-0.0176692
-0.0178478
-0.0180269
-0.0182067
-0.0183872
-0.0185684
-0.0187502
-0.0189326
-0.0191158
-0.0192996
-0.0194841
-0.0196693
-0.0198552
-0.0200417
-0.0202289
-0.0204169
-0.0206055
-0.0207948
-0.0209848
-0.0211755
-0.0213669
-0.021559
-0.0217518
-0.0219453
-0.0221395
-0.0223345
-0.0225301
)
;
    }
    procBoundary11to10
    {
        type            processor;
        value           uniform -0.0335268;
    }
}


// ************************************************************************* //
