/*--------------------------------*- C++ -*----------------------------------*\
| =========                 |                                                 |
| \\      /  F ield         | OpenFOAM: The Open Source CFD Toolbox           |
|  \\    /   O peration     | Version:  2.4.0                                 |
|   \\  /    A nd           | Web:      www.OpenFOAM.org                      |
|    \\/     M anipulation  |                                                 |
\*---------------------------------------------------------------------------*/
FoamFile
{
    version     2.0;
    format      ascii;
    class       volScalarField;
    location    "0.009";
    object      p_rgh;
}
// * * * * * * * * * * * * * * * * * * * * * * * * * * * * * * * * * * * * * //

dimensions      [1 -1 -2 0 0 0 0];

internalField   nonuniform List<scalar> 
125
(
0.0432152
-0.0159051
0.144608
-0.780701
-0.105228
0.0256822
0.0068801
-0.00801532
-0.0109738
-0.0102474
-0.00966682
-0.00954324
-0.00955622
-0.00956276
-0.00955161
-0.00953524
-0.00951909
-0.00950356
-0.00948818
-0.00947272
-0.00945719
-0.00944158
-0.00942593
-0.00941021
-0.00939444
-0.00937861
-0.00936272
-0.00934677
-0.00933077
-0.0093147
-0.00929858
-0.0092824
-0.00926616
-0.00924986
-0.0092335
-0.00921707
-0.00920059
-0.00918405
-0.00916745
-0.00915079
-0.00913406
-0.00911728
-0.00910043
-0.00908352
-0.00906655
-0.00904952
-0.00903242
-0.00901526
-0.00899804
-0.00898076
-0.00896341
-0.008946
-0.00892852
-0.00891098
-0.00889338
-0.00887571
-0.00885798
-0.00884018
-0.00882231
-0.00880438
-0.00878639
-0.00876833
-0.0087502
-0.00873201
-0.00871374
-0.00869542
-0.00867702
-0.00865856
-0.00864003
-0.00862143
-0.00860276
-0.00858403
-0.00856522
-0.00854635
-0.00852741
-0.0085084
-0.00848932
-0.00847016
-0.00845094
-0.00843165
-0.00841229
-0.00839285
-0.00837335
-0.00835377
-0.00833412
-0.0083144
-0.00829461
-0.00827474
-0.0082548
-0.00823479
-0.0082147
-0.00819454
-0.00817431
-0.008154
-0.00813362
-0.00811316
-0.00809263
-0.00807202
-0.00805134
-0.00803058
-0.00800974
-0.00798883
-0.00796784
-0.00794678
-0.00792563
-0.00790441
-0.00788312
-0.00786174
-0.00784028
-0.00781875
-0.00779714
-0.00777544
-0.00775367
-0.00773182
-0.00770989
-0.00768788
-0.00766578
-0.00764361
-0.00762135
-0.00759902
-0.0075766
-0.00755409
-0.00753151
-0.00750883
-0.00748606
)
;

boundaryField
{
    BotWall
    {
        type            fixedFluxPressure;
        gradient        uniform 0;
        value           uniform 0.0432152;
    }
    FreeStream
    {
        type            totalPressure;
        rho             rho;
        psi             none;
        gamma           1;
        p0              nonuniform 0();
        value           nonuniform 0();
    }
    FrontNBack
    {
        type            empty;
    }
    LeftSide
    {
        type            symmetryPlane;
    }
    RightSide
    {
        type            symmetryPlane;
    }
    procBoundary11to8
    {
        type            processor;
        value           nonuniform List<scalar> 
50
(
-0.00850334
-0.00848431
-0.0084652
-0.00844601
-0.00842676
-0.00840744
-0.00838804
-0.00836857
-0.00834903
-0.00832942
-0.00830974
-0.00828998
-0.00827015
-0.00825025
-0.00823027
-0.00821022
-0.0081901
-0.0081699
-0.00814963
-0.00812928
-0.00810885
-0.00808836
-0.00806778
-0.00804713
-0.0080264
-0.0080056
-0.00798472
-0.00796376
-0.00794273
-0.00792161
-0.00790042
-0.00787915
-0.00785781
-0.00783638
-0.00781487
-0.00779329
-0.00777162
-0.00774988
-0.00772805
-0.00770615
-0.00768416
-0.00766209
-0.00763994
-0.00761771
-0.0075954
-0.007573
-0.00755052
-0.00752796
-0.00750531
-0.00748259
)
;
    }
    procBoundary11to9
    {
        type            processor;
        value           nonuniform List<scalar> 
75
(
0.0426612
-0.0158593
0.142357
-0.773659
-0.104262
0.0254651
0.00678936
-0.00801478
-0.0109549
-0.0102331
-0.00965601
-0.00953318
-0.00954608
-0.00955259
-0.00954151
-0.00952524
-0.00950919
-0.00949376
-0.00947847
-0.00946311
-0.00944767
-0.00943216
-0.0094166
-0.00940097
-0.00938529
-0.00936956
-0.00935376
-0.0093379
-0.00932199
-0.00930601
-0.00928998
-0.00927389
-0.00925774
-0.00924152
-0.00922525
-0.00920892
-0.00919252
-0.00917607
-0.00915955
-0.00914298
-0.00912634
-0.00910964
-0.00909288
-0.00907605
-0.00905916
-0.00904221
-0.0090252
-0.00900812
-0.00899099
-0.00897378
-0.00895652
-0.00893918
-0.00892179
-0.00890433
-0.0088868
-0.00886921
-0.00885156
-0.00883384
-0.00881605
-0.0087982
-0.00878028
-0.0087623
-0.00874425
-0.00872613
-0.00870794
-0.00868969
-0.00867137
-0.00865298
-0.00863452
-0.008616
-0.0085974
-0.00857874
-0.00856
-0.00854119
-0.0085223
)
;
    }
    procBoundary11to10
    {
        type            processor;
        value           uniform -0.00746321;
    }
}


// ************************************************************************* //
