/*--------------------------------*- C++ -*----------------------------------*\
| =========                 |                                                 |
| \\      /  F ield         | OpenFOAM: The Open Source CFD Toolbox           |
|  \\    /   O peration     | Version:  2.4.0                                 |
|   \\  /    A nd           | Web:      www.OpenFOAM.org                      |
|    \\/     M anipulation  |                                                 |
\*---------------------------------------------------------------------------*/
FoamFile
{
    version     2.0;
    format      ascii;
    class       volVectorField;
    location    "0.009";
    object      U;
}
// * * * * * * * * * * * * * * * * * * * * * * * * * * * * * * * * * * * * * //

dimensions      [0 1 -1 0 0 0 0];

internalField   nonuniform List<vector> 
125
(
(1.50258e-07 6.28812e-05 0)
(4.69157e-07 -0.000164344 0)
(7.82699e-07 0.000643919 0)
(1.34369e-06 -0.00281182 0)
(2.08841e-06 -0.0226804 0)
(4.30978e-06 -0.0260512 0)
(6.58456e-06 -0.0209743 0)
(8.77998e-06 -0.0199472 0)
(1.08747e-05 -0.0200363 0)
(1.28633e-05 -0.0202019 0)
(1.47489e-05 -0.020244 0)
(1.65329e-05 -0.0202396 0)
(1.82164e-05 -0.0202333 0)
(1.98002e-05 -0.0202317 0)
(2.12853e-05 -0.0202318 0)
(2.2673e-05 -0.0202321 0)
(2.39648e-05 -0.0202322 0)
(2.51625e-05 -0.0202321 0)
(2.62679e-05 -0.0202321 0)
(2.7283e-05 -0.0202321 0)
(2.82102e-05 -0.0202321 0)
(2.90517e-05 -0.0202321 0)
(2.98101e-05 -0.0202321 0)
(3.04882e-05 -0.0202321 0)
(3.10887e-05 -0.0202321 0)
(3.16146e-05 -0.0202321 0)
(3.2069e-05 -0.0202321 0)
(3.24549e-05 -0.0202321 0)
(3.27756e-05 -0.0202321 0)
(3.30343e-05 -0.0202321 0)
(3.32344e-05 -0.0202321 0)
(3.33793e-05 -0.0202321 0)
(3.34722e-05 -0.0202321 0)
(3.35165e-05 -0.0202321 0)
(3.35156e-05 -0.0202321 0)
(3.34728e-05 -0.0202321 0)
(3.33913e-05 -0.0202321 0)
(3.32743e-05 -0.0202321 0)
(3.3125e-05 -0.0202321 0)
(3.29464e-05 -0.0202321 0)
(3.27414e-05 -0.0202321 0)
(3.25129e-05 -0.0202321 0)
(3.22636e-05 -0.0202321 0)
(3.19961e-05 -0.0202321 0)
(3.17128e-05 -0.0202321 0)
(3.14161e-05 -0.0202321 0)
(3.11082e-05 -0.020232 0)
(3.07911e-05 -0.020232 0)
(3.04667e-05 -0.020232 0)
(3.01368e-05 -0.020232 0)
(2.9803e-05 -0.020232 0)
(2.94668e-05 -0.020232 0)
(2.91294e-05 -0.020232 0)
(2.87922e-05 -0.020232 0)
(2.84561e-05 -0.020232 0)
(2.81221e-05 -0.020232 0)
(2.7791e-05 -0.020232 0)
(2.74634e-05 -0.020232 0)
(2.714e-05 -0.020232 0)
(2.68212e-05 -0.020232 0)
(2.65074e-05 -0.020232 0)
(2.6199e-05 -0.020232 0)
(2.5896e-05 -0.020232 0)
(2.55986e-05 -0.020232 0)
(2.5307e-05 -0.0202319 0)
(2.50211e-05 -0.0202319 0)
(2.47409e-05 -0.0202319 0)
(2.44663e-05 -0.0202319 0)
(2.41972e-05 -0.0202319 0)
(2.39334e-05 -0.0202319 0)
(2.36747e-05 -0.0202319 0)
(2.3421e-05 -0.0202319 0)
(2.3172e-05 -0.0202319 0)
(2.29275e-05 -0.0202319 0)
(2.26872e-05 -0.0202319 0)
(2.2451e-05 -0.0202319 0)
(2.22186e-05 -0.0202318 0)
(2.19897e-05 -0.0202318 0)
(2.17641e-05 -0.0202318 0)
(2.15416e-05 -0.0202318 0)
(2.1322e-05 -0.0202318 0)
(2.11051e-05 -0.0202318 0)
(2.08907e-05 -0.0202318 0)
(2.06785e-05 -0.0202318 0)
(2.04685e-05 -0.0202318 0)
(2.02605e-05 -0.0202318 0)
(2.00543e-05 -0.0202317 0)
(1.98498e-05 -0.0202317 0)
(1.96469e-05 -0.0202317 0)
(1.94454e-05 -0.0202317 0)
(1.92453e-05 -0.0202317 0)
(1.90465e-05 -0.0202317 0)
(1.88488e-05 -0.0202317 0)
(1.86523e-05 -0.0202317 0)
(1.84569e-05 -0.0202317 0)
(1.82625e-05 -0.0202316 0)
(1.80691e-05 -0.0202316 0)
(1.78765e-05 -0.0202316 0)
(1.76849e-05 -0.0202316 0)
(1.74942e-05 -0.0202316 0)
(1.73043e-05 -0.0202316 0)
(1.71152e-05 -0.0202316 0)
(1.6927e-05 -0.0202316 0)
(1.67395e-05 -0.0202316 0)
(1.65528e-05 -0.0202315 0)
(1.6367e-05 -0.0202315 0)
(1.61819e-05 -0.0202315 0)
(1.59975e-05 -0.0202315 0)
(1.5814e-05 -0.0202315 0)
(1.56312e-05 -0.0202315 0)
(1.54492e-05 -0.0202315 0)
(1.5268e-05 -0.0202315 0)
(1.50876e-05 -0.0202315 0)
(1.4908e-05 -0.0202314 0)
(1.47291e-05 -0.0202314 0)
(1.45511e-05 -0.0202314 0)
(1.43739e-05 -0.0202314 0)
(1.41974e-05 -0.0202314 0)
(1.40218e-05 -0.0202314 0)
(1.3847e-05 -0.0202314 0)
(1.36731e-05 -0.0202314 0)
(1.35e-05 -0.0202314 0)
(1.33277e-05 -0.0202314 0)
(1.31562e-05 -0.0202313 0)
(1.29857e-05 -0.0202313 0)
)
;

boundaryField
{
    BotWall
    {
        type            fixedValue;
        value           uniform (0 0 0);
    }
    FreeStream
    {
        type            zeroGradient;
    }
    FrontNBack
    {
        type            empty;
    }
    LeftSide
    {
        type            symmetryPlane;
    }
    RightSide
    {
        type            symmetryPlane;
    }
    procBoundary11to8
    {
        type            processor;
        value           nonuniform List<vector> 
50
(
(-1.94281e-05 -0.0202233 0)
(-1.91624e-05 -0.0202234 0)
(-1.89018e-05 -0.0202235 0)
(-1.86462e-05 -0.0202237 0)
(-1.83953e-05 -0.0202238 0)
(-1.81488e-05 -0.0202239 0)
(-1.79067e-05 -0.020224 0)
(-1.76687e-05 -0.0202241 0)
(-1.74346e-05 -0.0202243 0)
(-1.72043e-05 -0.0202244 0)
(-1.69776e-05 -0.0202245 0)
(-1.67543e-05 -0.0202246 0)
(-1.65343e-05 -0.0202247 0)
(-1.63176e-05 -0.0202248 0)
(-1.61038e-05 -0.0202249 0)
(-1.58931e-05 -0.020225 0)
(-1.56851e-05 -0.0202251 0)
(-1.54799e-05 -0.0202252 0)
(-1.52774e-05 -0.0202253 0)
(-1.50775e-05 -0.0202254 0)
(-1.48801e-05 -0.0202256 0)
(-1.46852e-05 -0.0202257 0)
(-1.44926e-05 -0.0202258 0)
(-1.43025e-05 -0.0202259 0)
(-1.41146e-05 -0.020226 0)
(-1.3929e-05 -0.0202261 0)
(-1.37457e-05 -0.0202261 0)
(-1.35645e-05 -0.0202262 0)
(-1.33856e-05 -0.0202263 0)
(-1.32087e-05 -0.0202264 0)
(-1.3034e-05 -0.0202265 0)
(-1.28614e-05 -0.0202266 0)
(-1.26908e-05 -0.0202267 0)
(-1.25223e-05 -0.0202268 0)
(-1.23558e-05 -0.0202269 0)
(-1.21914e-05 -0.020227 0)
(-1.20289e-05 -0.0202271 0)
(-1.18684e-05 -0.0202272 0)
(-1.17099e-05 -0.0202272 0)
(-1.15534e-05 -0.0202273 0)
(-1.13987e-05 -0.0202274 0)
(-1.1246e-05 -0.0202275 0)
(-1.10952e-05 -0.0202276 0)
(-1.09463e-05 -0.0202277 0)
(-1.07993e-05 -0.0202277 0)
(-1.06542e-05 -0.0202278 0)
(-1.05109e-05 -0.0202279 0)
(-1.03694e-05 -0.020228 0)
(-1.02298e-05 -0.0202281 0)
(-1.00919e-05 -0.0202281 0)
)
;
    }
    procBoundary11to9
    {
        type            processor;
        value           nonuniform List<vector> 
75
(
(-1.64026e-07 6.23064e-05 0)
(-5.17532e-07 -0.000162519 0)
(-8.66569e-07 0.000636786 0)
(-1.50604e-06 -0.00280358 0)
(-2.25288e-06 -0.0226901 0)
(-4.34042e-06 -0.0259893 0)
(-6.52297e-06 -0.0209512 0)
(-8.6377e-06 -0.0199295 0)
(-1.0658e-05 -0.0200182 0)
(-1.25769e-05 -0.0201829 0)
(-1.43976e-05 -0.0202248 0)
(-1.61217e-05 -0.0202206 0)
(-1.77497e-05 -0.0202144 0)
(-1.92821e-05 -0.0202129 0)
(-2.07195e-05 -0.0202132 0)
(-2.20631e-05 -0.0202135 0)
(-2.3314e-05 -0.0202137 0)
(-2.44735e-05 -0.0202138 0)
(-2.55432e-05 -0.020214 0)
(-2.65249e-05 -0.0202141 0)
(-2.74204e-05 -0.0202143 0)
(-2.8232e-05 -0.0202144 0)
(-2.89619e-05 -0.0202146 0)
(-2.96124e-05 -0.0202148 0)
(-3.01861e-05 -0.020215 0)
(-3.06858e-05 -0.0202151 0)
(-3.11142e-05 -0.0202153 0)
(-3.14743e-05 -0.0202155 0)
(-3.1769e-05 -0.0202157 0)
(-3.20015e-05 -0.0202159 0)
(-3.21747e-05 -0.0202161 0)
(-3.2292e-05 -0.0202163 0)
(-3.23565e-05 -0.0202164 0)
(-3.23715e-05 -0.0202166 0)
(-3.23402e-05 -0.0202168 0)
(-3.22657e-05 -0.020217 0)
(-3.21513e-05 -0.0202172 0)
(-3.2e-05 -0.0202174 0)
(-3.18151e-05 -0.0202176 0)
(-3.15994e-05 -0.0202178 0)
(-3.13559e-05 -0.020218 0)
(-3.10874e-05 -0.0202181 0)
(-3.07967e-05 -0.0202183 0)
(-3.04865e-05 -0.0202185 0)
(-3.01591e-05 -0.0202187 0)
(-2.98171e-05 -0.0202189 0)
(-2.94627e-05 -0.020219 0)
(-2.90979e-05 -0.0202192 0)
(-2.87249e-05 -0.0202194 0)
(-2.83455e-05 -0.0202196 0)
(-2.79613e-05 -0.0202197 0)
(-2.7574e-05 -0.0202199 0)
(-2.71851e-05 -0.0202201 0)
(-2.67958e-05 -0.0202202 0)
(-2.64073e-05 -0.0202204 0)
(-2.60207e-05 -0.0202205 0)
(-2.56369e-05 -0.0202207 0)
(-2.52568e-05 -0.0202208 0)
(-2.48809e-05 -0.020221 0)
(-2.451e-05 -0.0202211 0)
(-2.41446e-05 -0.0202213 0)
(-2.37849e-05 -0.0202214 0)
(-2.34315e-05 -0.0202216 0)
(-2.30844e-05 -0.0202217 0)
(-2.27439e-05 -0.0202219 0)
(-2.241e-05 -0.020222 0)
(-2.20829e-05 -0.0202221 0)
(-2.17624e-05 -0.0202223 0)
(-2.14487e-05 -0.0202224 0)
(-2.11415e-05 -0.0202225 0)
(-2.08407e-05 -0.0202227 0)
(-2.05463e-05 -0.0202228 0)
(-2.0258e-05 -0.0202229 0)
(-1.99757e-05 -0.0202231 0)
(-1.96991e-05 -0.0202232 0)
)
;
    }
    procBoundary11to10
    {
        type            processor;
        value           uniform (1.2816e-05 -0.0202313 0);
    }
}


// ************************************************************************* //
