/*--------------------------------*- C++ -*----------------------------------*\
| =========                 |                                                 |
| \\      /  F ield         | OpenFOAM: The Open Source CFD Toolbox           |
|  \\    /   O peration     | Version:  2.4.0                                 |
|   \\  /    A nd           | Web:      www.OpenFOAM.org                      |
|    \\/     M anipulation  |                                                 |
\*---------------------------------------------------------------------------*/
FoamFile
{
    version     2.0;
    format      ascii;
    class       volScalarField;
    location    "2.6";
    object      H;
}
// * * * * * * * * * * * * * * * * * * * * * * * * * * * * * * * * * * * * * //

dimensions      [0 2 -2 0 0 0 0];

internalField   nonuniform List<scalar> 
125
(
-37.8594
-37.8494
-37.8382
-37.8449
-37.8607
-37.3313
-37.3218
-37.311
-37.3175
-37.3326
-36.7735
-36.7644
-36.7541
-36.7603
-36.7747
-36.1867
-36.178
-36.1681
-36.174
-36.1878
-35.5718
-35.5635
-35.5541
-35.5597
-35.5728
-34.9297
-34.9219
-34.913
-34.9183
-34.9307
-34.2617
-34.2543
-34.2458
-34.2509
-34.2626
-33.5687
-33.5617
-33.5537
-33.5585
-33.5696
-32.852
-32.8455
-32.8379
-32.8424
-32.8528
-32.1128
-32.1067
-32.0996
-32.1038
-32.1136
-31.3526
-31.3469
-31.3402
-31.3442
-31.3534
-30.5727
-30.5674
-30.5612
-30.5648
-30.5734
-29.7745
-29.7696
-29.7638
-29.7672
-29.7752
-28.9596
-28.9551
-28.9497
-28.9529
-28.9603
-28.1296
-28.1255
-28.1205
-28.1233
-28.1302
-27.2859
-27.2822
-27.2776
-27.2802
-27.2865
-26.4303
-26.427
-26.4227
-26.4251
-26.4309
-25.5644
-25.5614
-25.5575
-25.5597
-25.5649
-24.6899
-24.6872
-24.6837
-24.6856
-24.6903
-23.8084
-23.806
-23.8028
-23.8046
-23.8088
-22.9215
-22.9195
-22.9166
-22.9182
-22.9219
-22.0311
-22.0293
-22.0268
-22.0282
-22.0315
-21.1387
-21.1372
-21.1349
-21.1361
-21.139
-20.2459
-20.2447
-20.2427
-20.2437
-20.2462
-19.3544
-19.3534
-19.3517
-19.3525
-19.3547
)
;

boundaryField
{
    BotWall
    {
        type            zeroGradient;
    }
    FreeStream
    {
        type            zeroGradient;
    }
    FrontNBack
    {
        type            empty;
    }
    LeftSide
    {
        type            symmetryPlane;
    }
    RightSide
    {
        type            symmetryPlane;
    }
    procBoundary2to1
    {
        type            processor;
        value           nonuniform List<scalar> 5(-38.3528 -38.3424 -38.3307 -38.3377 -38.3541);
    }
    procBoundary2to3
    {
        type            processor;
        value           nonuniform List<scalar> 5(-18.4656 -18.4648 -18.4633 -18.4641 -18.4659);
    }
}


// ************************************************************************* //
