/*--------------------------------*- C++ -*----------------------------------*\
| =========                 |                                                 |
| \\      /  F ield         | OpenFOAM: The Open Source CFD Toolbox           |
|  \\    /   O peration     | Version:  2.4.0                                 |
|   \\  /    A nd           | Web:      www.OpenFOAM.org                      |
|    \\/     M anipulation  |                                                 |
\*---------------------------------------------------------------------------*/
FoamFile
{
    version     2.0;
    format      ascii;
    class       volScalarField;
    location    "0.006";
    object      alpha1;
}
// * * * * * * * * * * * * * * * * * * * * * * * * * * * * * * * * * * * * * //

dimensions      [0 0 0 0 0 0 0];

internalField   nonuniform List<scalar> 
125
(
1
1
0.668191
4.27125e-89
2.49501e-95
1.27908e-101
6.45493e-108
3.22952e-114
1.49479e-120
5.96246e-127
2.03831e-133
6.13121e-140
1.52768e-146
3.1349e-153
5.29096e-160
7.49364e-167
9.74955e-174
1.41148e-180
2.44937e-187
4.17637e-194
5.67506e-201
5.30452e-208
2.79055e-215
4.64203e-223
0
0
0
0
0
0
0
0
0
0
0
0
0
0
0
0
0
0
0
0
0
0
0
0
0
0
0
0
0
0
0
0
0
0
0
0
0
0
0
0
0
0
0
0
0
0
0
0
0
0
0
0
0
0
0
0
0
0
0
0
0
0
0
0
0
0
0
0
0
0
0
0
0
0
0
0
0
0
0
0
0
0
0
0
0
0
0
0
0
0
0
0
0
0
0
0
0
0
0
0
0
)
;

boundaryField
{
    BotWall
    {
        type            fixedValue;
        value           uniform 1;
    }
    FreeStream
    {
        type            inletOutlet;
        inletValue      uniform 0;
        value           uniform 0;
    }
    FrontNBack
    {
        type            empty;
    }
    LeftSide
    {
        type            symmetryPlane;
    }
    RightSide
    {
        type            symmetryPlane;
    }
    procBoundary9to6
    {
        type            processor;
        value           uniform 0;
    }
    procBoundary9to7
    {
        type            processor;
        value           nonuniform List<scalar> 
75
(
1
1
0.681757
3.30132e-91
2.54141e-97
2.37406e-103
2.6403e-109
2.97517e-115
3.08113e-121
2.8369e-127
2.29191e-133
1.62263e-139
1.00268e-145
5.39296e-152
2.51488e-158
1.00899e-164
3.44344e-171
9.83297e-178
2.29177e-184
4.20909e-191
5.77024e-198
5.37928e-205
2.82125e-212
4.68145e-220
0
0
0
0
0
0
0
0
0
0
0
0
0
0
0
0
0
0
0
0
0
0
0
0
0
0
0
0
0
0
0
0
0
0
0
0
0
0
0
0
0
0
0
0
0
0
0
0
0
0
0
)
;
    }
    procBoundary9to8
    {
        type            processor;
        value           uniform 0;
    }
    procBoundary9to10
    {
        type            processor;
        value           uniform 0;
    }
    procBoundary9to11
    {
        type            processor;
        value           nonuniform List<scalar> 
75
(
1
1
0.674265
5.53421e-92
2.89655e-98
1.37787e-104
6.65479e-111
3.22811e-117
1.4579e-123
5.69581e-130
1.91297e-136
5.66128e-143
1.38768e-149
2.79286e-156
4.55769e-163
5.9397e-170
6.11967e-177
5.15182e-184
4.24359e-191
4.43171e-198
5.07676e-205
4.47846e-212
2.28632e-219
3.75666e-227
0
0
0
0
0
0
0
0
0
0
0
0
0
0
0
0
0
0
0
0
0
0
0
0
0
0
0
0
0
0
0
0
0
0
0
0
0
0
0
0
0
0
0
0
0
0
0
0
0
0
0
)
;
    }
}


// ************************************************************************* //
