/*--------------------------------*- C++ -*----------------------------------*\
| =========                 |                                                 |
| \\      /  F ield         | OpenFOAM: The Open Source CFD Toolbox           |
|  \\    /   O peration     | Version:  2.4.0                                 |
|   \\  /    A nd           | Web:      www.OpenFOAM.org                      |
|    \\/     M anipulation  |                                                 |
\*---------------------------------------------------------------------------*/
FoamFile
{
    version     2.0;
    format      ascii;
    class       volScalarField;
    location    "0.006";
    object      H;
}
// * * * * * * * * * * * * * * * * * * * * * * * * * * * * * * * * * * * * * //

dimensions      [0 2 -2 0 0 0 0];

internalField   nonuniform List<scalar> 
125
(
-9962.18
-5411.38
-111.712
-82.8204
-81.7488
-80.6355
-79.4812
-78.2864
-77.0523
-75.78
-74.4709
-73.1266
-71.7489
-70.3398
-68.9013
-67.4356
-65.9451
-64.4322
-62.8994
-61.3492
-59.7842
-58.2072
-56.6206
-55.0273
-53.4299
-51.8311
-50.2334
-48.6394
-47.0517
-45.4727
-43.9048
-42.3503
-40.8115
-39.2905
-37.7893
-36.3098
-34.8539
-33.4233
-32.0195
-30.644
-29.2981
-27.9831
-26.7
-25.4498
-24.2333
-23.0513
-21.9043
-20.7929
-19.7173
-18.6779
-17.6747
-16.7079
-15.7773
-14.8827
-14.024
-13.2007
-12.4125
-11.6589
-10.9393
-10.253
-9.59944
-8.9778
-8.38732
-7.82717
-7.29649
-6.79438
-6.31992
-5.87218
-5.4502
-5.05302
-4.67966
-4.32914
-4.00051
-3.69278
-3.40501
-2.10378e-45
5.5899e-48
2.72081e-47
-8.74691e-49
-5.39271e-49
-7.08459e-51
5.14177e-51
-2.44965e-52
-1.17159e-52
-2.10539e-54
8.95444e-55
-6.81124e-56
-2.38122e-56
-4.49203e-58
1.39415e-58
-1.69749e-59
-4.47588e-60
-9.38428e-62
1.70734e-62
-3.71096e-63
-7.67258e-64
-2.02109e-65
1.06663e-66
-7.26484e-67
-1.2072e-67
-4.33169e-69
-1.75023e-70
-1.29583e-70
-1.78362e-71
-8.84861e-73
-8.01116e-74
-2.11853e-74
-2.52854e-75
-1.6582e-76
-1.82775e-77
-3.17374e-78
-3.4592e-79
-2.77113e-80
-3.16498e-81
-4.34972e-82
-4.51063e-83
-4.07567e-84
-4.56e-85
-5.43795e-86
-5.49142e-87
-5.26245e-88
-5.67044e-89
-6.18359e-90
-6.17527e-91
-7.96988e-92
)
;

boundaryField
{
    BotWall
    {
        type            zeroGradient;
    }
    FreeStream
    {
        type            zeroGradient;
    }
    FrontNBack
    {
        type            empty;
    }
    LeftSide
    {
        type            symmetryPlane;
    }
    RightSide
    {
        type            symmetryPlane;
    }
    procBoundary9to6
    {
        type            processor;
        value           nonuniform List<scalar> 
50
(
-50.8087
-49.248
-47.6915
-46.1417
-44.6007
-43.071
-41.5546
-40.0537
-38.5702
-37.1061
-35.6633
-34.2433
-32.8479
-31.4786
-30.1367
-28.8235
-27.5401
-26.2876
-25.067
-23.8789
-22.7242
-21.6033
-20.5168
-19.4649
-18.448
-17.4662
-16.5194
-15.6078
-14.731
-13.889
-13.0813
-12.3076
-11.5673
-10.8601
-10.1853
-9.54217
-8.93012
-8.34836
-7.79611
-7.27255
-6.77684
-6.30809
-5.86541
-5.44788
-5.05459
-4.68461
-4.33699
-4.0108
-3.70511
-3.41901
)
;
    }
    procBoundary9to7
    {
        type            processor;
        value           nonuniform List<scalar> 
75
(
-9955.5
-5391.37
-109.859
-81.4266
-80.3399
-79.2156
-78.0542
-76.8561
-75.6224
-74.3539
-73.0521
-71.7183
-70.3541
-68.9613
-67.5419
-66.0978
-64.6312
-63.1444
-61.6397
-60.1194
-58.586
-57.042
-55.4897
-53.9319
-52.3708
-1.39017e-30
-1.6564e-31
-2.14699e-32
-3.00811e-33
-4.16909e-34
-5.51524e-35
-6.96414e-36
-9.08627e-37
-1.25072e-37
-1.64254e-38
-2.03242e-39
-2.60837e-40
-3.46607e-41
-4.39379e-42
-5.38621e-43
-6.78493e-44
-8.60899e-45
-1.05631e-45
-1.27907e-46
-1.56709e-47
-1.9075e-48
-2.27632e-49
-2.70214e-50
-3.21099e-51
-3.77857e-52
-4.39401e-53
-5.08983e-54
-5.87524e-55
-6.72032e-56
-7.6216e-57
-8.60768e-58
-9.67562e-59
-1.07903e-59
-1.19469e-60
-1.31683e-61
-1.44436e-62
-1.57315e-63
-1.70235e-64
-1.83363e-65
-1.9651e-66
-2.09251e-67
-2.21494e-68
-2.33317e-69
-2.44485e-70
-2.54642e-71
-2.6372e-72
-2.71723e-73
-2.78479e-74
-2.85756e-75
-3.81973e-76
)
;
    }
    procBoundary9to8
    {
        type            processor;
        value           uniform -3.13624;
    }
    procBoundary9to10
    {
        type            processor;
        value           uniform -1.27994e-29;
    }
    procBoundary9to11
    {
        type            processor;
        value           nonuniform List<scalar> 
75
(
-9959.18
-5402.4
-110.873
-82.1893
-81.1098
-79.9905
-78.8319
-77.6347
-76.3997
-75.1283
-73.8216
-72.4812
-71.1089
-69.7064
-68.2758
-66.8193
-65.339
-63.8374
-62.3167
-60.7795
-59.2284
-57.6659
-56.0945
-54.5169
-52.9356
-51.3533
-49.7724
-48.1956
-46.6251
-45.0635
-43.513
-41.976
-40.4545
-38.9507
-37.4665
-36.0038
-34.5644
-33.15
-31.762
-30.402
-29.0711
-27.7707
-26.5017
-25.2652
-24.0619
-22.8925
-21.7576
-20.6577
-19.5932
-18.5643
-17.5711
-16.6136
-15.6919
-14.8057
-13.9548
-13.1389
-12.3575
-11.6102
-10.8965
-10.2157
-9.56712
-8.95009
-8.36382
-7.80751
-7.2803
-6.78134
-6.3097
-5.86449
-5.44476
-5.04956
-4.67794
-4.32894
-4.00162
-3.69501
-3.40818
)
;
    }
}


// ************************************************************************* //
