/*--------------------------------*- C++ -*----------------------------------*\
| =========                 |                                                 |
| \\      /  F ield         | OpenFOAM: The Open Source CFD Toolbox           |
|  \\    /   O peration     | Version:  2.4.0                                 |
|   \\  /    A nd           | Web:      www.OpenFOAM.org                      |
|    \\/     M anipulation  |                                                 |
\*---------------------------------------------------------------------------*/
FoamFile
{
    version     2.0;
    format      ascii;
    class       volVectorField;
    location    "0.006";
    object      U;
}
// * * * * * * * * * * * * * * * * * * * * * * * * * * * * * * * * * * * * * //

dimensions      [0 1 -1 0 0 0 0];

internalField   nonuniform List<vector> 
125
(
(-3.63036e-07 -0.000403803 0)
(-1.07784e-06 0.00158784 0)
(-2.06671e-06 -0.0048324 0)
(-2.74428e-06 -0.0303615 0)
(-6.31318e-06 -0.0417966 0)
(-9.92369e-06 -0.0310312 0)
(-1.3336e-05 -0.0292097 0)
(-1.65286e-05 -0.0293927 0)
(-1.95034e-05 -0.0297139 0)
(-2.22736e-05 -0.0297909 0)
(-2.48492e-05 -0.0297815 0)
(-2.72381e-05 -0.0297696 0)
(-2.94482e-05 -0.0297669 0)
(-3.14869e-05 -0.0297674 0)
(-3.33618e-05 -0.0297681 0)
(-3.50799e-05 -0.0297684 0)
(-3.66486e-05 -0.0297686 0)
(-3.80747e-05 -0.0297688 0)
(-3.93649e-05 -0.029769 0)
(-4.05259e-05 -0.0297692 0)
(-4.15642e-05 -0.0297694 0)
(-4.2486e-05 -0.0297697 0)
(-4.32975e-05 -0.0297699 0)
(-4.40046e-05 -0.0297701 0)
(-4.46132e-05 -0.0297704 0)
(-4.5129e-05 -0.0297706 0)
(-4.55574e-05 -0.0297709 0)
(-4.59039e-05 -0.0297712 0)
(-4.61735e-05 -0.0297714 0)
(-4.63713e-05 -0.0297717 0)
(-4.65022e-05 -0.029772 0)
(-4.65708e-05 -0.0297722 0)
(-4.65817e-05 -0.0297725 0)
(-4.65392e-05 -0.0297728 0)
(-4.64474e-05 -0.029773 0)
(-4.63105e-05 -0.0297733 0)
(-4.61321e-05 -0.0297736 0)
(-4.5916e-05 -0.0297738 0)
(-4.56657e-05 -0.0297741 0)
(-4.53844e-05 -0.0297744 0)
(-4.50753e-05 -0.0297747 0)
(-4.47415e-05 -0.0297749 0)
(-4.43856e-05 -0.0297752 0)
(-4.40104e-05 -0.0297755 0)
(-4.36183e-05 -0.0297757 0)
(-4.32116e-05 -0.029776 0)
(-4.27926e-05 -0.0297762 0)
(-4.23632e-05 -0.0297765 0)
(-4.19253e-05 -0.0297768 0)
(-4.14806e-05 -0.029777 0)
(-4.10308e-05 -0.0297773 0)
(-4.05772e-05 -0.0297775 0)
(-4.01212e-05 -0.0297778 0)
(-3.9664e-05 -0.029778 0)
(-3.92066e-05 -0.0297783 0)
(-3.87501e-05 -0.0297785 0)
(-3.82954e-05 -0.0297788 0)
(-3.78431e-05 -0.029779 0)
(-3.73939e-05 -0.0297792 0)
(-3.69485e-05 -0.0297795 0)
(-3.65073e-05 -0.0297797 0)
(-3.60708e-05 -0.0297799 0)
(-3.56392e-05 -0.0297802 0)
(-3.5213e-05 -0.0297804 0)
(-3.47923e-05 -0.0297806 0)
(-3.43772e-05 -0.0297809 0)
(-3.3968e-05 -0.0297811 0)
(-3.35647e-05 -0.0297813 0)
(-3.31672e-05 -0.0297815 0)
(-3.27757e-05 -0.0297817 0)
(-3.23901e-05 -0.029782 0)
(-3.20103e-05 -0.0297822 0)
(-3.16363e-05 -0.0297824 0)
(-3.12679e-05 -0.0297826 0)
(-3.09051e-05 -0.0297828 0)
(4.02707e-07 -0.0298047 0)
(2.95625e-07 -0.0298047 0)
(1.88316e-07 -0.0298047 0)
(8.05735e-08 -0.0298048 0)
(-2.7835e-08 -0.0298048 0)
(-1.37165e-07 -0.0298048 0)
(-2.47691e-07 -0.0298048 0)
(-3.59705e-07 -0.0298048 0)
(-4.73514e-07 -0.0298049 0)
(-5.89427e-07 -0.0298049 0)
(-7.07759e-07 -0.0298049 0)
(-8.28814e-07 -0.0298049 0)
(-9.52884e-07 -0.0298049 0)
(-1.08023e-06 -0.029805 0)
(-1.21109e-06 -0.029805 0)
(-1.34565e-06 -0.029805 0)
(-1.48402e-06 -0.029805 0)
(-1.62629e-06 -0.029805 0)
(-1.77242e-06 -0.0298051 0)
(-1.92232e-06 -0.0298051 0)
(-2.0758e-06 -0.0298051 0)
(-2.23257e-06 -0.0298051 0)
(-2.39224e-06 -0.0298051 0)
(-2.55431e-06 -0.0298052 0)
(-2.71818e-06 -0.0298052 0)
(-2.88317e-06 -0.0298052 0)
(-3.0485e-06 -0.0298052 0)
(-3.21332e-06 -0.0298053 0)
(-3.37671e-06 -0.0298053 0)
(-3.53771e-06 -0.0298053 0)
(-3.69534e-06 -0.0298053 0)
(-3.84861e-06 -0.0298053 0)
(-3.99656e-06 -0.0298054 0)
(-4.13824e-06 -0.0298054 0)
(-4.2728e-06 -0.0298054 0)
(-4.39945e-06 -0.0298054 0)
(-4.51751e-06 -0.0298054 0)
(-4.62642e-06 -0.0298055 0)
(-4.72575e-06 -0.0298055 0)
(-4.81521e-06 -0.0298055 0)
(-4.89466e-06 -0.0298055 0)
(-4.96412e-06 -0.0298055 0)
(-5.02374e-06 -0.0298056 0)
(-5.07381e-06 -0.0298056 0)
(-5.11476e-06 -0.0298056 0)
(-5.14711e-06 -0.0298056 0)
(-5.17148e-06 -0.0298056 0)
(-5.1886e-06 -0.0298057 0)
(-5.19926e-06 -0.0298057 0)
(-5.20429e-06 -0.0298056 0)
)
;

boundaryField
{
    BotWall
    {
        type            fixedValue;
        value           uniform (0 0 0);
    }
    FreeStream
    {
        type            zeroGradient;
    }
    FrontNBack
    {
        type            empty;
    }
    LeftSide
    {
        type            symmetryPlane;
    }
    RightSide
    {
        type            symmetryPlane;
    }
    procBoundary9to6
    {
        type            processor;
        value           nonuniform List<vector> 
50
(
(-5.92061e-05 -0.0298489 0)
(-5.96202e-05 -0.0298486 0)
(-5.99218e-05 -0.0298483 0)
(-6.01184e-05 -0.029848 0)
(-6.02176e-05 -0.0298477 0)
(-6.02265e-05 -0.0298474 0)
(-6.01519e-05 -0.0298471 0)
(-6.00006e-05 -0.0298468 0)
(-5.97791e-05 -0.0298466 0)
(-5.94934e-05 -0.0298463 0)
(-5.91496e-05 -0.029846 0)
(-5.87533e-05 -0.0298457 0)
(-5.831e-05 -0.0298454 0)
(-5.78246e-05 -0.0298451 0)
(-5.73023e-05 -0.0298448 0)
(-5.67475e-05 -0.0298445 0)
(-5.61646e-05 -0.0298442 0)
(-5.55577e-05 -0.029844 0)
(-5.49307e-05 -0.0298437 0)
(-5.42872e-05 -0.0298434 0)
(-5.36304e-05 -0.0298431 0)
(-5.29635e-05 -0.0298428 0)
(-5.22893e-05 -0.0298426 0)
(-5.16105e-05 -0.0298423 0)
(-5.09294e-05 -0.029842 0)
(-5.02481e-05 -0.0298417 0)
(-4.95688e-05 -0.0298415 0)
(-4.88931e-05 -0.0298412 0)
(-4.82225e-05 -0.029841 0)
(-4.75585e-05 -0.0298407 0)
(-4.69023e-05 -0.0298404 0)
(-4.62549e-05 -0.0298402 0)
(-4.56172e-05 -0.0298399 0)
(-4.49899e-05 -0.0298397 0)
(-4.43737e-05 -0.0298394 0)
(-4.3769e-05 -0.0298392 0)
(-4.31761e-05 -0.029839 0)
(-4.25953e-05 -0.0298387 0)
(-4.20267e-05 -0.0298385 0)
(-4.14705e-05 -0.0298383 0)
(-4.09266e-05 -0.029838 0)
(-4.03949e-05 -0.0298378 0)
(-3.98753e-05 -0.0298376 0)
(-3.93675e-05 -0.0298373 0)
(-3.88713e-05 -0.0298371 0)
(-3.83863e-05 -0.0298369 0)
(-3.79124e-05 -0.0298367 0)
(-3.7449e-05 -0.0298364 0)
(-3.69959e-05 -0.0298362 0)
(-3.65526e-05 -0.029836 0)
)
;
    }
    procBoundary9to7
    {
        type            processor;
        value           nonuniform List<vector> 
75
(
(-5.77113e-07 -0.000408612 0)
(-1.7153e-06 0.00161182 0)
(-3.29885e-06 -0.00487007 0)
(-4.2364e-06 -0.0303654 0)
(-8.92672e-06 -0.0420121 0)
(-1.37691e-05 -0.0311233 0)
(-1.83471e-05 -0.0292895 0)
(-2.26205e-05 -0.0294747 0)
(-2.65897e-05 -0.0297988 0)
(-3.02736e-05 -0.0298762 0)
(-3.36862e-05 -0.0298664 0)
(-3.68385e-05 -0.0298541 0)
(-3.97408e-05 -0.029851 0)
(-4.24032e-05 -0.0298512 0)
(-4.48362e-05 -0.0298515 0)
(-4.70497e-05 -0.0298514 0)
(-4.90537e-05 -0.0298512 0)
(-5.08578e-05 -0.0298509 0)
(-5.24717e-05 -0.0298507 0)
(-5.39046e-05 -0.0298505 0)
(-5.51658e-05 -0.0298502 0)
(-5.62644e-05 -0.0298499 0)
(-5.72092e-05 -0.0298497 0)
(-5.80087e-05 -0.0298494 0)
(-5.86716e-05 -0.0298491 0)
(-3.46116e-06 -0.0298019 0)
(-3.40111e-06 -0.0298019 0)
(-3.33903e-06 -0.0298019 0)
(-3.27452e-06 -0.0298019 0)
(-3.20717e-06 -0.0298019 0)
(-3.13654e-06 -0.0298019 0)
(-3.06217e-06 -0.0298019 0)
(-2.98358e-06 -0.0298019 0)
(-2.90031e-06 -0.029802 0)
(-2.81185e-06 -0.029802 0)
(-2.71776e-06 -0.029802 0)
(-2.61757e-06 -0.029802 0)
(-2.51088e-06 -0.029802 0)
(-2.3973e-06 -0.029802 0)
(-2.27654e-06 -0.029802 0)
(-2.14835e-06 -0.029802 0)
(-2.01258e-06 -0.029802 0)
(-1.86917e-06 -0.029802 0)
(-1.7182e-06 -0.0298019 0)
(-1.55985e-06 -0.0298019 0)
(-1.39442e-06 -0.0298019 0)
(-1.22237e-06 -0.0298019 0)
(-1.04429e-06 -0.0298019 0)
(-8.60921e-07 -0.0298019 0)
(-6.7313e-07 -0.0298018 0)
(-4.81908e-07 -0.0298018 0)
(-2.88373e-07 -0.0298018 0)
(-9.37349e-08 -0.0298018 0)
(1.00712e-07 -0.0298017 0)
(2.93619e-07 -0.0298017 0)
(4.83605e-07 -0.0298017 0)
(6.69288e-07 -0.0298016 0)
(8.49312e-07 -0.0298016 0)
(1.02238e-06 -0.0298015 0)
(1.18727e-06 -0.0298015 0)
(1.3429e-06 -0.0298014 0)
(1.48829e-06 -0.0298014 0)
(1.62266e-06 -0.0298013 0)
(1.74537e-06 -0.0298013 0)
(1.85599e-06 -0.0298012 0)
(1.9543e-06 -0.0298011 0)
(2.04024e-06 -0.0298011 0)
(2.11398e-06 -0.029801 0)
(2.17586e-06 -0.0298009 0)
(2.22639e-06 -0.0298009 0)
(2.26623e-06 -0.0298008 0)
(2.29618e-06 -0.0298007 0)
(2.31711e-06 -0.0298007 0)
(2.33003e-06 -0.0298006 0)
(2.33595e-06 -0.0298005 0)
)
;
    }
    procBoundary9to8
    {
        type            processor;
        value           uniform (-3.05476e-05 -0.029783 0);
    }
    procBoundary9to10
    {
        type            processor;
        value           uniform (5.09752e-07 -0.0298047 0);
    }
    procBoundary9to11
    {
        type            processor;
        value           nonuniform List<vector> 
75
(
(3.10449e-07 -0.000405971 0)
(9.19851e-07 0.0015986 0)
(1.75274e-06 -0.00484929 0)
(2.37081e-06 -0.0303632 0)
(5.76211e-06 -0.0418933 0)
(9.15681e-06 -0.0310725 0)
(1.23597e-05 -0.0292455 0)
(1.53557e-05 -0.0294295 0)
(1.81488e-05 -0.029752 0)
(2.07516e-05 -0.0298291 0)
(2.31739e-05 -0.0298196 0)
(2.54242e-05 -0.0298075 0)
(2.75101e-05 -0.0298046 0)
(2.94394e-05 -0.029805 0)
(3.12194e-05 -0.0298055 0)
(3.28573e-05 -0.0298056 0)
(3.43599e-05 -0.0298056 0)
(3.5734e-05 -0.0298056 0)
(3.69861e-05 -0.0298056 0)
(3.81224e-05 -0.0298056 0)
(3.9149e-05 -0.0298056 0)
(4.00717e-05 -0.0298056 0)
(4.08963e-05 -0.0298056 0)
(4.16281e-05 -0.0298056 0)
(4.22726e-05 -0.0298056 0)
(4.28348e-05 -0.0298056 0)
(4.33196e-05 -0.0298056 0)
(4.37319e-05 -0.0298056 0)
(4.40763e-05 -0.0298056 0)
(4.43571e-05 -0.0298056 0)
(4.45786e-05 -0.0298057 0)
(4.47449e-05 -0.0298057 0)
(4.486e-05 -0.0298057 0)
(4.49276e-05 -0.0298057 0)
(4.49512e-05 -0.0298057 0)
(4.49344e-05 -0.0298057 0)
(4.48804e-05 -0.0298057 0)
(4.47923e-05 -0.0298057 0)
(4.46731e-05 -0.0298057 0)
(4.45256e-05 -0.0298057 0)
(4.43525e-05 -0.0298057 0)
(4.41562e-05 -0.0298057 0)
(4.39392e-05 -0.0298057 0)
(4.37036e-05 -0.0298057 0)
(4.34515e-05 -0.0298057 0)
(4.3185e-05 -0.0298057 0)
(4.29058e-05 -0.0298057 0)
(4.26155e-05 -0.0298057 0)
(4.23159e-05 -0.0298057 0)
(4.20082e-05 -0.0298057 0)
(4.1694e-05 -0.0298057 0)
(4.13742e-05 -0.0298057 0)
(4.10502e-05 -0.0298057 0)
(4.07228e-05 -0.0298057 0)
(4.03931e-05 -0.0298057 0)
(4.00618e-05 -0.0298057 0)
(3.97296e-05 -0.0298057 0)
(3.93973e-05 -0.0298057 0)
(3.90654e-05 -0.0298057 0)
(3.87344e-05 -0.0298057 0)
(3.84047e-05 -0.0298056 0)
(3.80767e-05 -0.0298056 0)
(3.77508e-05 -0.0298056 0)
(3.74272e-05 -0.0298056 0)
(3.71061e-05 -0.0298056 0)
(3.67876e-05 -0.0298056 0)
(3.6472e-05 -0.0298056 0)
(3.61593e-05 -0.0298056 0)
(3.58495e-05 -0.0298056 0)
(3.55427e-05 -0.0298056 0)
(3.5239e-05 -0.0298056 0)
(3.49381e-05 -0.0298056 0)
(3.46403e-05 -0.0298056 0)
(3.43453e-05 -0.0298056 0)
(3.40531e-05 -0.0298055 0)
)
;
    }
}


// ************************************************************************* //
