/*--------------------------------*- C++ -*----------------------------------*\
| =========                 |                                                 |
| \\      /  F ield         | OpenFOAM: The Open Source CFD Toolbox           |
|  \\    /   O peration     | Version:  2.4.0                                 |
|   \\  /    A nd           | Web:      www.OpenFOAM.org                      |
|    \\/     M anipulation  |                                                 |
\*---------------------------------------------------------------------------*/
FoamFile
{
    version     2.0;
    format      ascii;
    class       volScalarField;
    location    "1.7";
    object      H;
}
// * * * * * * * * * * * * * * * * * * * * * * * * * * * * * * * * * * * * * //

dimensions      [0 2 -2 0 0 0 0];

internalField   nonuniform List<scalar> 
8000
(
-11983.4
-11490.1
-10997
-10504.1
-10011.7
-9519.73
-9028.52
-8538.22
-8048.99
-7561
-7074.37
-6589.25
-6105.72
-5623.9
-5143.89
-4665.79
-4189.78
-3716.08
-3245.01
-2777.01
-2312.65
-1852.64
-1397.84
-949.163
-507.606
-6.68305
-4.94777
-4.84229
-4.74528
-4.65102
-4.55934
-4.47004
-4.38293
-4.29783
-4.21454
-4.1329
-4.05272
-3.97386
-3.89616
-3.8195
-3.74377
-3.66886
-3.59468
-3.52117
-3.44826
-3.3759
-3.30407
-3.23273
-3.16187
-3.09148
-11982.6
-11487.9
-10993.2
-10498.8
-10004.8
-9511.26
-9018.43
-8526.47
-8035.55
-7545.85
-7057.53
-6570.78
-6085.76
-5602.67
-5121.71
-4643.12
-4167.19
-3694.25
-3224.71
-2759.05
-2297.82
-1841.65
-1391.22
-947.235
-510.482
-8.14038
-6.00321
-5.83614
-5.67462
-5.51776
-5.36559
-5.21809
-5.0752
-4.93683
-4.80288
-4.67322
-4.54771
-4.42619
-4.30849
-4.19445
-4.08389
-3.97665
-3.87255
-3.77143
-3.67313
-3.57749
-3.48437
-3.39364
-3.30517
-3.21884
-11981.9
-11485.7
-10989.7
-10493.9
-9998.55
-9503.7
-9009.55
-8516.29
-8024.1
-7533.18
-7043.72
-6555.92
-6070.01
-5586.21
-5104.77
-4625.95
-4150.05
-3677.4
-3208.38
-2743.41
-2282.99
-1827.65
-1377.96
-934.484
-498.046
-10.4458
-7.666
-7.37633
-7.09909
-6.83402
-6.58085
-6.33918
-6.10859
-5.88863
-5.67884
-5.47876
-5.28793
-5.10591
-4.93223
-4.76644
-4.60812
-4.45682
-4.31213
-4.17364
-4.04096
-3.91372
-3.79158
-3.67419
-3.56127
-3.45251
-11981.3
-11483.8
-10986.5
-10489.4
-9992.73
-9496.58
-9001.14
-8506.59
-8013.13
-7520.94
-7030.24
-6541.23
-6054.12
-5569.13
-5086.44
-4606.28
-4128.82
-3654.25
-3182.72
-2714.39
-2249.39
-1787.75
-1329.34
-874.253
-425.173
-13.9955
-10.0191
-9.35447
-8.8016
-8.32772
-7.91007
-7.53363
-7.18879
-6.86945
-6.57167
-6.29279
-6.03095
-5.78472
-5.55291
-5.3345
-5.12852
-4.93408
-4.75033
-4.57646
-4.41169
-4.25533
-4.10668
-3.96514
-3.83015
-3.70119
-11980.5
-11481.4
-10982.4
-10483.5
-9984.85
-9486.64
-8989.03
-8492.2
-7996.34
-7501.64
-7008.3
-6516.49
-6026.35
-5538.02
-5051.54
-4566.9
-4083.95
-3602.39
-3121.68
-2640.86
-2158.02
-1668.95
-1163.54
-619.2
-5.73214
-0.566471
-1.88861
-3.23256
-4.29556
-5.06665
-5.57602
-5.87357
-6.01159
-6.03559
-5.98145
-5.87587
-5.73803
-5.58139
-5.41516
-5.24552
-5.07649
-4.9106
-4.74932
-4.59342
-4.44321
-4.29872
-4.15978
-4.02612
-3.89746
-3.77348
-11979.4
-11478.1
-10976.8
-10475.5
-9974.2
-9473.18
-8972.55
-8472.48
-7973.14
-7474.71
-6977.3
-6481.03
-5985.93
-5491.96
-4998.96
-4506.63
-4014.45
-3521.71
-3027.49
-2530.8
-2030.95
-1527.98
-1023.33
-520.354
-5.22144
-4.24658
-4.02463
-4.1344
-4.23662
-4.32418
-4.39344
-4.44333
-4.47441
-4.48816
-4.48645
-4.47122
-4.44433
-4.40747
-4.36212
-4.30956
-4.25089
-4.18702
-4.11876
-4.04678
-3.97165
-3.89389
-3.81396
-3.73225
-3.64915
-3.56499
-11978.3
-11474.8
-10971.2
-10467.6
-9963.92
-9460.39
-8957.09
-8454.15
-7951.7
-7449.85
-6948.69
-6448.25
-5948.54
-5449.53
-4951.12
-4453.23
-3955.79
-3458.83
-2962.56
-2467.49
-1974.52
-1485.04
-1000.93
-524.512
-6.05926
-4.55379
-4.47784
-4.45203
-4.42679
-4.4012
-4.37451
-4.34611
-4.31557
-4.28255
-4.24683
-4.20827
-4.16681
-4.12241
-4.07511
-4.02497
-3.97208
-3.91655
-3.85851
-3.79813
-3.73557
-3.671
-3.60463
-3.53665
-3.46725
-3.39665
-11977.3
-11471.8
-10966.2
-10460.6
-9954.91
-9449.3
-8943.83
-8438.6
-7933.71
-7429.28
-6925.39
-6422.14
-5919.63
-5417.99
-4917.36
-4417.96
-3920.12
-3424.26
-2930.99
-2441.1
-1955.56
-1475.51
-1002.19
-536.893
-7.31438
-5.41774
-5.30779
-5.20616
-5.10726
-5.01089
-4.91685
-4.82495
-4.73499
-4.64678
-4.56014
-4.47491
-4.39093
-4.30803
-4.22611
-4.14502
-4.06466
-3.98495
-3.9058
-3.82716
-3.74897
-3.67121
-3.59385
-3.51688
-3.4403
-3.36413
-11976.3
-11468.8
-10961.3
-10453.6
-9945.94
-9438.29
-8930.73
-8423.39
-7916.37
-7409.82
-6903.88
-6398.73
-5894.57
-5391.65
-4890.27
-4390.8
-3893.7
-3399.53
-2908.92
-2422.66
-1941.59
-1466.61
-998.594
-538.213
-9.25139
-6.82631
-6.63658
-6.45048
-6.26791
-6.08944
-5.91548
-5.74635
-5.58224
-5.42325
-5.2694
-5.12067
-4.97695
-4.83813
-4.70404
-4.57451
-4.44933
-4.32831
-4.21123
-4.09789
-3.98807
-3.88158
-3.77822
-3.67782
-3.58019
-3.48519
-11975.4
-11466.1
-10956.8
-10447.4
-9937.99
-9428.64
-8919.43
-8410.46
-7901.89
-7393.85
-6886.54
-6380.16
-5874.97
-5371.24
-4869.31
-4369.55
-3872.42
-3378.43
-2888.2
-2402.45
-1922.01
-1447.89
-981.3
-523.64
-12.7893
-9.38305
-8.99918
-8.62574
-8.26541
-7.91979
-7.58966
-7.27528
-6.97653
-6.69307
-6.42441
-6.16996
-5.92907
-5.70106
-5.48524
-5.2809
-5.08737
-4.90396
-4.73001
-4.5649
-4.40801
-4.25877
-4.11664
-3.98111
-3.85168
-3.72793
-11974.6
-11463.6
-10952.7
-10441.6
-9930.6
-9419.6
-8908.75
-8398.14
-7887.92
-7378.24
-6869.28
-6361.22
-5854.27
-5348.65
-4844.6
-4342.36
-3842.2
-3344.44
-2849.45
-2357.66
-1869.73
-1386.76
-911.12
-448.294
-19.6787
-14.0266
-12.9141
-11.9602
-11.1311
-10.4018
-9.7534
-9.17165
-8.64573
-8.16733
-7.72999
-7.32861
-6.95905
-6.6179
-6.30229
-6.00976
-5.73814
-5.48552
-5.25017
-5.03054
-4.82521
-4.6329
-4.45244
-4.28275
-4.12288
-3.97193
-11973.5
-11460.4
-10947.2
-10433.9
-9920.42
-9406.91
-8893.43
-8380.09
-7867.01
-7354.32
-6842.16
-6330.62
-5819.78
-5309.66
-4800.24
-4291.37
-3782.79
-3274.05
-2764.3
-2251.95
-1733.87
-1204.03
-651.458
-57.4839
-7.28481
-7.00563
-7.61919
-7.96794
-8.11997
-8.12805
-8.03284
-7.86556
-7.64994
-7.40391
-7.14085
-6.87056
-6.60011
-6.33444
-6.07687
-5.82951
-5.59353
-5.36947
-5.15736
-4.95693
-4.76767
-4.58897
-4.42012
-4.26039
-4.10906
-3.96545
-11972.2
-11456.4
-10940.5
-10424.5
-9908.26
-9391.95
-8875.59
-8359.29
-7843.13
-7327.19
-6811.5
-6296.08
-5780.85
-5265.65
-4750.18
-4234.05
-3716.74
-3197.66
-2676.23
-2151.94
-1624.51
-1093.84
-559.957
-5.45815
-4.25888
-4.3047
-4.45795
-4.58403
-4.68222
-4.75339
-4.79942
-4.82268
-4.82582
-4.81147
-4.78216
-4.74025
-4.68784
-4.6268
-4.55873
-4.48503
-4.40684
-4.32517
-4.24081
-4.15443
-4.06661
-3.97778
-3.88832
-3.79855
-3.70873
-3.61906
-11970.9
-11452.8
-10934.7
-10416.5
-9898.35
-9380.24
-8862.25
-8344.44
-7826.9
-7309.68
-6792.84
-6276.39
-5760.32
-5244.59
-4729.09
-4213.66
-3698.1
-3182.1
-2665.23
-2146.91
-1626.24
-1101.92
-571.986
-5.80293
-4.33646
-4.33999
-4.35238
-4.36025
-4.36306
-4.3605
-4.35244
-4.3389
-4.31999
-4.2959
-4.26687
-4.23317
-4.19508
-4.15287
-4.10685
-4.05728
-4.00445
-3.94862
-3.89006
-3.82902
-3.76574
-3.70047
-3.63343
-3.56484
-3.49493
-3.42389
-11970
-11450
-10930.2
-10410.5
-9891.14
-9372.17
-8853.67
-8335.76
-7818.55
-7302.15
-6786.64
-6272.1
-5758.56
-5245.97
-4734.23
-4223.09
-3712.12
-3200.69
-2687.83
-2172.17
-1651.77
-1123.99
-585.091
-5.92817
-4.42975
-4.4694
-4.49654
-4.5096
-4.50969
-4.49842
-4.47752
-4.44869
-4.41344
-4.37302
-4.32845
-4.28046
-4.22961
-4.17626
-4.12067
-4.06304
-4.0035
-3.94217
-3.87915
-3.81457
-3.74854
-3.68118
-3.61264
-3.54305
-3.47255
-3.40129
-11969.3
-11448
-10927
-10406.4
-9886.61
-9367.62
-8849.63
-8332.8
-7817.29
-7303.23
-6790.73
-6279.84
-5770.53
-5262.65
-4755.9
-4249.78
-3743.52
-3236.03
-2725.79
-2210.87
-1688.74
-1155.67
-603.795
-6.40356
-5.2562
-5.31292
-5.49153
-5.56878
-5.56845
-5.51226
-5.41868
-5.30258
-5.17528
-5.04487
-4.91667
-4.79373
-4.67746
-4.56809
-4.46513
-4.3677
-4.27476
-4.18532
-4.09848
-4.01352
-3.92987
-3.84713
-3.76499
-3.68329
-3.60192
-3.52083
-11968.9
-11447.1
-10925.8
-10405.5
-9886.48
-9368.87
-8852.92
-8338.82
-7826.74
-7316.8
-6809.04
-6303.44
-5799.85
-5297.96
-4797.28
-4297.1
-3796.48
-3294.36
-2789.83
-2283.2
-1778.85
-1290.52
-845.836
-476.948
-21.7506
-15.7615
-14.5705
-13.4468
-12.338
-11.2717
-10.2744
-9.36455
-8.55236
-7.84068
-7.22658
-6.70289
-6.25981
-5.88628
-5.57106
-5.30358
-5.07437
-4.87529
-4.69965
-4.54208
-4.39841
-4.26547
-4.14087
-4.02285
-3.91012
-3.80172
-11969
-11447.4
-10926.7
-10407.4
-9889.82
-9374.35
-8861.17
-8350.48
-7842.43
-7337.09
-6834.46
-6334.43
-5836.78
-5341.16
-4847.11
-4354.17
-3862.07
-3371.1
-2882.66
-2399.83
-1927.38
-1470.44
-1031.06
-602.932
-12.1599
-9.27519
-9.27048
-9.25958
-9.17008
-9.0157
-8.81035
-8.56684
-8.29648
-8.00896
-7.7123
-7.41298
-7.11606
-6.82541
-6.54386
-6.27335
-6.01512
-5.76985
-5.53779
-5.3188
-5.11252
-4.91837
-4.73564
-4.56352
-4.40117
-4.24772
-11969.2
-11448
-10927.9
-10409.5
-9893.09
-9379.16
-8867.95
-8359.69
-7854.5
-7352.48
-6853.62
-6357.82
-5864.95
-5374.8
-4887.23
-4402.2
-3919.91
-3440.9
-2965.97
-2495.84
-2030.35
-1567.08
-1099.58
-615.508
-8.09366
-6.23257
-6.45372
-6.67539
-6.8395
-6.95059
-7.01378
-7.0344
-7.01769
-6.96869
-6.89215
-6.79246
-6.67366
-6.53936
-6.39284
-6.23701
-6.07443
-5.90733
-5.73759
-5.56685
-5.39644
-5.22745
-5.06077
-4.89707
-4.73685
-4.58047
-11969.3
-11448.3
-10928.4
-10410.3
-9894.51
-9381.42
-8871.37
-8364.6
-7861.3
-7361.56
-6865.44
-6372.93
-5884
-5398.6
-4916.72
-4438.37
-3963.52
-3492.05
-3023.4
-2556.23
-2087.82
-1613.3
-1124.28
-604.894
-6.88084
-6.22278
-5.71035
-5.94053
-6.11176
-6.22773
-6.29831
-6.33227
-6.33701
-6.3185
-6.28133
-6.22895
-6.16386
-6.08788
-6.00232
-5.90821
-5.80643
-5.69775
-5.58295
-5.46279
-5.33809
-5.20961
-5.07815
-4.94445
-4.80924
-4.67318
-3.02158
-2.95217
-2.88326
-2.81489
-2.74708
-2.67985
-2.61325
-2.54731
-2.48206
-2.41755
-2.3538
-2.29087
-2.22877
-2.16755
-2.10724
-2.04787
-1.98946
-1.93204
-1.87564
-1.82027
-1.76595
-1.7127
-1.66053
-1.60945
-1.55947
-1.51059
-1.46282
-1.41615
-1.3706
-1.32614
-1.28279
-1.24053
-1.19936
-1.15926
-1.12023
-1.08225
-1.04532
-1.00941
-0.974514
-0.940616
-0.907699
-0.875746
-0.84474
-0.814663
-0.785497
-0.757224
-0.729824
-0.703279
-0.67757
-0.652677
-3.13455
-3.05219
-2.97168
-2.89294
-2.8159
-2.7405
-2.66667
-2.59437
-2.52356
-2.45419
-2.38623
-2.31966
-2.25444
-2.19055
-2.12797
-2.06669
-2.00669
-1.94795
-1.89046
-1.8342
-1.77918
-1.72537
-1.67276
-1.62135
-1.57112
-1.52206
-1.47416
-1.42742
-1.38182
-1.33734
-1.29398
-1.25172
-1.21054
-1.17045
-1.13141
-1.09343
-1.05647
-1.02053
-0.985593
-0.951638
-0.918651
-0.886614
-0.85551
-0.825322
-0.796032
-0.767623
-0.740076
-0.713373
-0.687496
-0.662427
-3.34766
-3.24649
-3.14875
-3.05427
-2.96283
-2.87429
-2.78848
-2.70527
-2.62452
-2.54612
-2.46996
-2.39595
-2.32399
-2.25401
-2.18593
-2.11969
-2.05521
-1.99244
-1.93133
-1.87183
-1.81388
-1.75746
-1.70251
-1.649
-1.5969
-1.54616
-1.49677
-1.44868
-1.40188
-1.35632
-1.312
-1.26887
-1.22691
-1.18611
-1.14644
-1.10787
-1.07038
-1.03396
-0.998572
-0.964202
-0.930828
-0.898429
-0.866985
-0.836475
-0.806879
-0.778177
-0.750349
-0.723374
-0.697234
-0.67191
-3.5778
-3.45956
-3.34611
-3.2371
-3.13224
-3.03127
-2.93394
-2.84004
-2.74939
-2.6618
-2.57713
-2.49522
-2.41595
-2.33919
-2.26484
-2.1928
-2.12297
-2.05526
-1.9896
-1.92589
-1.86409
-1.8041
-1.74589
-1.68937
-1.63451
-1.58124
-1.52952
-1.4793
-1.43054
-1.38319
-1.33722
-1.29258
-1.24924
-1.20717
-1.16633
-1.12668
-1.08821
-1.05087
-1.01464
-0.979497
-0.945405
-0.912341
-0.880279
-0.849195
-0.819063
-0.789861
-0.761564
-0.73415
-0.707596
-0.681882
-3.65387
-3.53837
-3.4267
-3.31867
-3.21406
-3.11271
-3.01448
-2.91923
-2.82684
-2.73722
-2.65027
-2.56591
-2.48406
-2.40463
-2.32757
-2.25279
-2.18023
-2.10984
-2.04153
-1.97526
-1.91095
-1.84856
-1.78803
-1.7293
-1.67231
-1.61703
-1.56339
-1.51135
-1.46086
-1.41188
-1.36436
-1.31827
-1.27357
-1.23021
-1.18816
-1.14737
-1.10783
-1.06949
-1.03232
-0.996295
-0.961375
-0.927533
-0.894741
-0.862972
-0.832196
-0.802389
-0.773523
-0.745574
-0.718517
-0.692327
-3.48009
-3.39475
-3.30924
-3.2238
-3.13868
-3.05408
-2.9702
-2.88721
-2.80526
-2.72448
-2.64499
-2.56688
-2.49023
-2.41511
-2.34156
-2.26963
-2.19935
-2.13072
-2.06376
-1.99846
-1.93483
-1.87285
-1.8125
-1.75377
-1.69663
-1.64106
-1.58704
-1.53453
-1.4835
-1.43394
-1.3858
-1.33905
-1.29368
-1.24963
-1.20689
-1.16543
-1.12521
-1.0862
-1.04837
-1.01171
-0.976162
-0.941715
-0.908339
-0.876004
-0.844684
-0.814353
-0.784984
-0.756553
-0.729033
-0.702401
-3.32505
-3.25266
-3.17966
-3.10625
-3.03262
-2.95894
-2.88537
-2.81208
-2.73919
-2.66685
-2.59516
-2.52425
-2.4542
-2.38509
-2.31701
-2.25001
-2.18416
-2.11949
-2.05606
-1.99388
-1.93299
-1.8734
-1.81513
-1.75819
-1.70258
-1.64831
-1.59536
-1.54375
-1.49345
-1.44445
-1.39676
-1.35034
-1.30519
-1.26128
-1.2186
-1.17713
-1.13684
-1.09772
-1.05974
-1.02289
-0.98713
-0.952447
-0.918816
-0.886213
-0.854614
-0.823997
-0.794338
-0.765613
-0.7378
-0.710876
-3.28838
-3.21308
-3.13827
-3.06399
-2.99027
-2.91716
-2.84471
-2.77296
-2.70196
-2.63176
-2.56241
-2.49394
-2.4264
-2.35982
-2.29425
-2.22972
-2.16625
-2.10388
-2.04263
-1.98252
-1.92357
-1.86579
-1.8092
-1.75381
-1.69962
-1.64664
-1.59487
-1.54431
-1.49495
-1.4468
-1.39985
-1.35408
-1.30949
-1.26607
-1.2238
-1.18267
-1.14266
-1.10377
-1.06597
-1.02924
-0.993575
-0.958945
-0.925333
-0.892721
-0.861088
-0.830414
-0.800679
-0.771862
-0.743942
-0.7169
-3.39265
-3.30246
-3.21447
-3.12858
-3.04468
-2.96269
-2.88253
-2.80412
-2.7274
-2.65231
-2.57882
-2.50686
-2.43641
-2.36743
-2.2999
-2.23379
-2.16908
-2.10575
-2.04378
-1.98315
-1.92386
-1.86588
-1.8092
-1.75382
-1.69971
-1.64687
-1.59528
-1.54494
-1.49582
-1.44791
-1.40121
-1.35569
-1.31134
-1.26815
-1.2261
-1.18518
-1.14537
-1.10664
-1.06899
-1.0324
-0.996845
-0.96231
-0.928776
-0.896225
-0.864637
-0.833994
-0.804275
-0.775461
-0.747533
-0.72047
-3.60943
-3.49581
-3.38671
-3.28181
-3.18083
-3.08349
-2.98955
-2.8988
-2.81103
-2.72607
-2.64376
-2.56396
-2.48652
-2.41134
-2.33831
-2.26733
-2.19832
-2.1312
-2.0659
-2.00236
-1.94051
-1.8803
-1.82169
-1.76463
-1.70907
-1.65498
-1.60232
-1.55105
-1.50115
-1.45259
-1.40532
-1.35934
-1.3146
-1.27108
-1.22876
-1.18762
-1.14762
-1.10875
-1.07099
-1.0343
-0.998667
-0.964071
-0.930489
-0.897899
-0.86628
-0.83561
-0.805869
-0.777035
-0.749088
-0.722008
-3.82912
-3.69373
-3.56511
-3.44269
-3.32593
-3.21438
-3.10763
-3.00529
-2.90705
-2.81261
-2.7217
-2.6341
-2.5496
-2.468
-2.38914
-2.31288
-2.23908
-2.16762
-2.09838
-2.03128
-1.96621
-1.9031
-1.84187
-1.78245
-1.72477
-1.66878
-1.61442
-1.56164
-1.51038
-1.4606
-1.41227
-1.36533
-1.31975
-1.27549
-1.23251
-1.19079
-1.15029
-1.11098
-1.07283
-1.03581
-0.999889
-0.965044
-0.931247
-0.898472
-0.866695
-0.835891
-0.806036
-0.777107
-0.74908
-0.721933
-3.82891
-3.69883
-3.57466
-3.45592
-3.34214
-3.23294
-3.12797
-3.02692
-2.92951
-2.83551
-2.74471
-2.65692
-2.57199
-2.48975
-2.4101
-2.33291
-2.25808
-2.18552
-2.11514
-2.04687
-1.98062
-1.91634
-1.85395
-1.79341
-1.73465
-1.67762
-1.62227
-1.56855
-1.51641
-1.46581
-1.4167
-1.36905
-1.32281
-1.27795
-1.23442
-1.19219
-1.15124
-1.11151
-1.07299
-1.03563
-0.999414
-0.964306
-0.930276
-0.897298
-0.865344
-0.834387
-0.804401
-0.775361
-0.747242
-0.720019
-3.52975
-3.44094
-3.35278
-3.26539
-3.17888
-3.09334
-3.00887
-2.92555
-2.84344
-2.76262
-2.68315
-2.60507
-2.52843
-2.45328
-2.37963
-2.30753
-2.23699
-2.16803
-2.10065
-2.03487
-1.97067
-1.90807
-1.84704
-1.78758
-1.72968
-1.67331
-1.61846
-1.5651
-1.51322
-1.46278
-1.41377
-1.36615
-1.3199
-1.27499
-1.23139
-1.18907
-1.14801
-1.10817
-1.06954
-1.03207
-0.995742
-0.96053
-0.926405
-0.893341
-0.86131
-0.830286
-0.800245
-0.771159
-0.743006
-0.715759
-3.35192
-3.27921
-3.20596
-3.13232
-3.05847
-2.98456
-2.91075
-2.83717
-2.76396
-2.69123
-2.61911
-2.5477
-2.47708
-2.40735
-2.33859
-2.27087
-2.20424
-2.13876
-2.07447
-2.01142
-1.94963
-1.88914
-1.82996
-1.7721
-1.71558
-1.66041
-1.60658
-1.55409
-1.50294
-1.45312
-1.40461
-1.35742
-1.31151
-1.26688
-1.2235
-1.18137
-1.14044
-1.10072
-1.06216
-1.02476
-0.988487
-0.953316
-0.919224
-0.886188
-0.854185
-0.823189
-0.793176
-0.764123
-0.736006
-0.708801
-3.3294
-3.25702
-3.1843
-3.11136
-3.03833
-2.96534
-2.89251
-2.81995
-2.74776
-2.67605
-2.60493
-2.53446
-2.46475
-2.39586
-2.32788
-2.26085
-2.19485
-2.12992
-2.06611
-2.00345
-1.94199
-1.88176
-1.82277
-1.76505
-1.70862
-1.65348
-1.59964
-1.54711
-1.49588
-1.44596
-1.39733
-1.35
-1.30394
-1.25915
-1.21561
-1.17331
-1.13223
-1.09235
-1.05365
-1.01611
-0.979703
-0.944418
-0.910226
-0.877104
-0.845029
-0.813977
-0.783924
-0.754846
-0.72672
-0.69952
-3.44002
-3.3595
-3.27931
-3.19951
-3.12015
-3.04129
-2.963
-2.88535
-2.80841
-2.73224
-2.65691
-2.58248
-2.50903
-2.4366
-2.36524
-2.29503
-2.22599
-2.15817
-2.09161
-2.02635
-1.96241
-1.89981
-1.83859
-1.77875
-1.7203
-1.66325
-1.60762
-1.55339
-1.50056
-1.44914
-1.39911
-1.35046
-1.30318
-1.25725
-1.21265
-1.16938
-1.1274
-1.08669
-1.04724
-1.00902
-0.971999
-0.936159
-0.901472
-0.867912
-0.835452
-0.804066
-0.773727
-0.744407
-0.716081
-0.688722
-3.69692
-3.59521
-3.49617
-3.3995
-3.30495
-3.21235
-3.12154
-3.03242
-2.94492
-2.85898
-2.77456
-2.69164
-2.61023
-2.53031
-2.4519
-2.37501
-2.29966
-2.22586
-2.15364
-2.083
-2.01397
-1.94654
-1.88075
-1.81658
-1.75404
-1.69314
-1.63387
-1.57622
-1.52018
-1.46574
-1.41289
-1.36161
-1.31188
-1.26368
-1.21697
-1.17175
-1.12797
-1.08562
-1.04465
-1.00505
-0.966776
-0.929801
-0.894092
-0.859616
-0.826341
-0.794233
-0.763259
-0.733389
-0.704589
-0.676827
-4.10234
-3.96421
-3.83257
-3.70674
-3.58608
-3.47006
-3.35819
-3.25007
-3.14534
-3.04372
-2.94497
-2.8489
-2.75535
-2.66419
-2.57534
-2.48872
-2.40426
-2.32193
-2.24169
-2.16351
-2.08738
-2.01326
-1.94115
-1.87103
-1.80289
-1.73671
-1.67246
-1.61014
-1.54972
-1.49117
-1.43447
-1.3796
-1.32652
-1.2752
-1.2256
-1.1777
-1.13146
-1.08683
-1.04378
-1.00228
-0.962269
-0.923721
-0.886592
-0.850841
-0.816425
-0.783305
-0.751439
-0.720787
-0.69131
-0.662968
-4.42817
-4.28007
-4.13623
-3.99663
-3.86121
-3.72987
-3.6025
-3.47897
-3.35914
-3.24287
-3.13003
-3.02047
-2.91408
-2.81074
-2.71036
-2.61284
-2.5181
-2.42608
-2.33671
-2.24993
-2.16569
-2.08396
-2.00468
-1.92782
-1.85334
-1.78121
-1.71138
-1.64383
-1.57851
-1.51539
-1.45442
-1.39557
-1.33879
-1.28404
-1.23128
-1.18046
-1.13153
-1.08444
-1.03914
-0.995582
-0.953719
-0.913497
-0.874866
-0.837774
-0.802171
-0.768006
-0.73523
-0.703794
-0.673649
-0.644748
-4.53685
-4.40081
-4.26552
-4.1314
-3.9988
-3.868
-3.73926
-3.61276
-3.48867
-3.36711
-3.24819
-3.13199
-3.01857
-2.90797
-2.80021
-2.69531
-2.59327
-2.4941
-2.39779
-2.3043
-2.21364
-2.12576
-2.04065
-1.95827
-1.87859
-1.80156
-1.72715
-1.65532
-1.58602
-1.5192
-1.45481
-1.39281
-1.33313
-1.27573
-1.22054
-1.16752
-1.11659
-1.06771
-1.02081
-0.975825
-0.932702
-0.891377
-0.85179
-0.813881
-0.777589
-0.742855
-0.709621
-0.677831
-0.647427
-0.618356
-0.634103
-0.62133
-0.608714
-0.596256
-0.583955
-0.571813
-0.559829
-0.548003
-0.536335
-0.524825
-0.513473
-0.502279
-0.491243
-0.480364
-0.469642
-0.459078
-0.448669
-0.438417
-0.42832
-0.418379
-0.408592
-0.39896
-0.389481
-0.380155
-0.370981
-0.361958
-0.353086
-0.344364
-0.335792
-0.327367
-0.31909
-0.31096
-0.302975
-0.295134
-0.287437
-0.279883
-0.27247
-0.265197
-0.258064
-0.251068
-0.244209
-0.237486
-0.230897
-0.224442
-0.218118
-0.211925
-0.205861
-0.199925
-0.194116
-0.188431
-0.182871
-0.177433
-0.172115
-0.166917
-0.161837
-0.156874
-0.152026
-0.147291
-0.142668
-0.138156
-0.133752
-0.129456
-0.125266
-0.12118
-0.117197
-0.113315
-0.109533
-0.105849
-0.102261
-0.0987679
-0.0953682
-0.0920601
-0.0888421
-0.0857127
-0.0826702
-0.079713
-0.0768397
-0.0740485
-0.0713379
-0.0687065
-0.0661525
-0.0636746
-0.061271
-0.0589403
-0.056681
-0.0544916
-0.0523705
-0.0503162
-0.0483273
-0.0464023
-0.0445397
-0.0427381
-0.0409961
-0.0393122
-0.037685
-0.0361131
-0.0345952
-0.0331298
-0.0317158
-0.0303516
-0.0290361
-0.0277679
-0.0265457
-0.0253683
-0.0242345
-0.023143
-0.0220926
-0.0210822
-0.0201106
-0.0191766
-0.0182791
-0.017417
-0.0165893
-0.0157948
-0.0150325
-0.0143014
-0.0136006
-0.0129289
-0.0122855
-0.0116694
-0.0110796
-0.0105154
-0.00997578
-0.00945989
-0.00896691
-0.00849602
-0.00804641
-0.00761731
-0.00720797
-0.00681763
-0.00644558
-0.00609112
-0.00575357
-0.00543226
-0.00512655
-0.00483582
-0.00455946
-0.00429688
-0.00404751
-0.00381079
-0.0035862
-0.00337321
-0.00317132
-0.00298005
-0.00279892
-0.00262748
-0.0024653
-0.00231196
-0.00216703
-0.00203014
-0.0019009
-0.00177895
-0.00166394
-0.00155554
-0.0014534
-0.00135724
-0.00126673
-0.00118161
-0.00110159
-0.00102641
-0.000955819
-0.000889569
-0.000827431
-0.000769184
-0.000714616
-0.000663523
-0.000615714
-0.000571004
-0.000529218
-0.000490187
-0.000453752
-0.000419762
-0.000388073
-0.000358546
-0.000331053
-0.00030547
-0.000281679
-0.000259569
-0.000239034
-0.000219976
-0.0002023
-0.000185917
-0.000170742
-0.000156696
-0.000143705
-0.000131697
-0.000120605
-0.000110368
-0.000100926
-9.22238e-05
-8.42091e-05
-7.68331e-05
-7.00501e-05
-6.38171e-05
-5.80938e-05
-5.28425e-05
-4.80282e-05
-4.36178e-05
-3.95806e-05
-3.58881e-05
-3.25135e-05
-2.9432e-05
-2.66203e-05
-2.40571e-05
-2.17222e-05
-1.95972e-05
-1.76648e-05
-1.5909e-05
-1.43152e-05
-1.28696e-05
-1.15596e-05
-1.03735e-05
-9.30066e-06
-8.33107e-06
-7.4556e-06
-6.66586e-06
-5.95411e-06
-5.31327e-06
-4.73681e-06
-4.21877e-06
-3.75368e-06
-3.33653e-06
-2.96277e-06
-2.6282e-06
-2.32902e-06
-2.06176e-06
-1.82327e-06
-1.61066e-06
-1.42133e-06
-1.2529e-06
-1.10323e-06
-9.7038e-07
-8.5258e-07
-7.48243e-07
-6.55934e-07
-5.74357e-07
-5.02346e-07
-4.38853e-07
-3.82935e-07
-3.33746e-07
-2.90527e-07
-2.526e-07
-2.19355e-07
-1.90251e-07
-1.64804e-07
-1.42581e-07
-1.23198e-07
-1.06313e-07
-9.16242e-08
-7.88613e-08
-6.77867e-08
-5.81897e-08
-4.98841e-08
-4.27059e-08
-3.65103e-08
-3.11703e-08
-2.65738e-08
-2.26231e-08
-1.9232e-08
-1.63255e-08
-1.3838e-08
-1.17121e-08
-9.8979e-09
-8.3521e-09
-7.03697e-09
-5.92017e-09
-4.97283e-09
-4.17025e-09
-3.49177e-09
-2.91862e-09
-2.43593e-09
-2.02983e-09
-1.6893e-09
-1.40327e-09
-1.164e-09
-9.62933e-10
-7.94789e-10
-6.54736e-10
-5.39174e-10
-4.43799e-10
-3.65023e-10
-3.00839e-10
-2.46687e-10
-2.02658e-10
-1.66051e-10
-1.34223e-10
-1.08369e-10
-8.77423e-11
-7.19309e-11
-5.98365e-11
-4.93458e-11
-4.13399e-11
-3.40723e-11
-2.69911e-11
-2.0375e-11
-1.47243e-11
-1.03176e-11
-7.17534e-12
-5.19151e-12
-4.2443e-12
-0.643709
-0.630833
-0.618112
-0.605546
-0.593137
-0.580882
-0.568784
-0.556843
-0.545057
-0.533428
-0.521956
-0.51064
-0.49948
-0.488476
-0.477629
-0.466938
-0.456402
-0.446022
-0.435797
-0.425726
-0.41581
-0.406048
-0.396439
-0.386982
-0.377679
-0.368526
-0.359525
-0.350674
-0.341973
-0.333421
-0.325016
-0.316759
-0.308648
-0.300683
-0.292861
-0.285184
-0.277649
-0.270255
-0.263002
-0.255888
-0.248912
-0.242073
-0.23537
-0.228801
-0.222366
-0.216063
-0.209891
-0.203848
-0.197933
-0.192145
-0.186483
-0.180944
-0.175529
-0.170234
-0.165059
-0.160002
-0.155062
-0.150238
-0.145527
-0.140928
-0.136441
-0.132062
-0.127791
-0.123626
-0.119566
-0.115608
-0.111752
-0.107995
-0.104337
-0.100775
-0.0973083
-0.0939348
-0.0906531
-0.0874615
-0.0843585
-0.0813424
-0.0784117
-0.0755647
-0.0727999
-0.0701156
-0.0675104
-0.0649826
-0.0625307
-0.060153
-0.0578481
-0.0556145
-0.0534505
-0.0513546
-0.0493254
-0.0473614
-0.045461
-0.0436228
-0.0418453
-0.0401271
-0.0384668
-0.0368629
-0.035314
-0.0338187
-0.0323758
-0.0309838
-0.0296413
-0.0283472
-0.0271
-0.0258984
-0.0247414
-0.0236275
-0.0225555
-0.0215243
-0.0205327
-0.0195795
-0.0186635
-0.0177837
-0.0169389
-0.016128
-0.01535
-0.0146038
-0.0138884
-0.0132029
-0.0125461
-0.0119172
-0.0113153
-0.0107393
-0.0101885
-0.00966185
-0.0091586
-0.00867789
-0.0082189
-0.00778084
-0.00736294
-0.00696443
-0.00658458
-0.00622268
-0.00587804
-0.00554997
-0.00523783
-0.00494097
-0.00465877
-0.00439064
-0.00413599
-0.00389425
-0.00366489
-0.00344737
-0.00324118
-0.00304583
-0.00286083
-0.00268573
-0.00252007
-0.00236343
-0.00221538
-0.00207554
-0.00194351
-0.00181892
-0.00170142
-0.00159065
-0.0014863
-0.00138803
-0.00129555
-0.00120856
-0.00112679
-0.00104995
-0.000977798
-0.000910082
-0.000846566
-0.000787023
-0.000731238
-0.000679003
-0.000630122
-0.000584407
-0.000541678
-0.000501765
-0.000464504
-0.000429741
-0.000397328
-0.000367127
-0.000339002
-0.00031283
-0.000288489
-0.000265866
-0.000244854
-0.000225351
-0.000207261
-0.000190493
-0.00017496
-0.000160582
-0.000147281
-0.000134987
-0.00012363
-0.000113147
-0.000103477
-9.45635e-05
-8.63538e-05
-7.87978e-05
-7.18485e-05
-6.5462e-05
-5.95972e-05
-5.42155e-05
-4.92811e-05
-4.47603e-05
-4.06217e-05
-3.68359e-05
-3.33757e-05
-3.02156e-05
-2.7332e-05
-2.47028e-05
-2.23077e-05
-2.01275e-05
-1.81448e-05
-1.63431e-05
-1.47073e-05
-1.32235e-05
-1.18788e-05
-1.06611e-05
-9.5595e-06
-8.56381e-06
-7.66468e-06
-6.8535e-06
-6.12234e-06
-5.46394e-06
-4.87161e-06
-4.33925e-06
-3.86124e-06
-3.43246e-06
-3.04822e-06
-2.70424e-06
-2.39661e-06
-2.12177e-06
-1.87648e-06
-1.65779e-06
-1.46302e-06
-1.28974e-06
-1.13574e-06
-9.99031e-07
-8.77798e-07
-7.7041e-07
-6.75392e-07
-5.91414e-07
-5.17278e-07
-4.51906e-07
-3.94329e-07
-3.43677e-07
-2.9917e-07
-2.60109e-07
-2.2587e-07
-1.95894e-07
-1.69683e-07
-1.46793e-07
-1.26827e-07
-1.09435e-07
-9.43046e-08
-8.11585e-08
-6.97516e-08
-5.98671e-08
-5.13131e-08
-4.39206e-08
-3.75407e-08
-3.20421e-08
-2.73098e-08
-2.32427e-08
-1.97525e-08
-1.67616e-08
-1.42024e-08
-1.20158e-08
-1.01502e-08
-8.56092e-09
-7.20907e-09
-6.061e-09
-5.08749e-09
-4.26343e-09
-3.56708e-09
-2.97954e-09
-2.48486e-09
-2.06892e-09
-1.71972e-09
-1.42699e-09
-1.18212e-09
-9.77383e-10
-8.06384e-10
-6.64361e-10
-5.46623e-10
-4.49559e-10
-3.69298e-10
-3.03051e-10
-2.4819e-10
-2.02645e-10
-1.65002e-10
-1.33792e-10
-1.07424e-10
-8.61108e-11
-7.02063e-11
-5.92539e-11
-5.17557e-11
-4.54297e-11
-3.87691e-11
-3.15357e-11
-2.4292e-11
-1.78203e-11
-1.26242e-11
-8.85152e-12
-6.44539e-12
-5.29212e-12
-0.652997
-0.639988
-0.627134
-0.614436
-0.601894
-0.58951
-0.577282
-0.56521
-0.553296
-0.541539
-0.529938
-0.518495
-0.507208
-0.496078
-0.485105
-0.474288
-0.463627
-0.453122
-0.442773
-0.432579
-0.42254
-0.412655
-0.402924
-0.393346
-0.383922
-0.374649
-0.365529
-0.356559
-0.347739
-0.33907
-0.330549
-0.322176
-0.31395
-0.305871
-0.297937
-0.290147
-0.282501
-0.274997
-0.267635
-0.260414
-0.253331
-0.246387
-0.23958
-0.232908
-0.226371
-0.219968
-0.213697
-0.207556
-0.201545
-0.195662
-0.189907
-0.184276
-0.17877
-0.173386
-0.168123
-0.162981
-0.157956
-0.153048
-0.148256
-0.143577
-0.139011
-0.134555
-0.130209
-0.12597
-0.121837
-0.117808
-0.113883
-0.110058
-0.106334
-0.102707
-0.0991769
-0.0957416
-0.0923995
-0.0891491
-0.0859886
-0.0829166
-0.0799313
-0.0770312
-0.0742146
-0.07148
-0.0688258
-0.0662504
-0.0637521
-0.0613294
-0.0589808
-0.0567046
-0.0544994
-0.0523636
-0.0502956
-0.0482939
-0.0463571
-0.0444836
-0.0426719
-0.0409206
-0.0392282
-0.0375933
-0.0360144
-0.0344902
-0.0330193
-0.0316002
-0.0302317
-0.0289123
-0.0276408
-0.0264158
-0.0252361
-0.0241005
-0.0230075
-0.0219561
-0.0209451
-0.0199731
-0.0190392
-0.018142
-0.0172806
-0.0164537
-0.0156603
-0.0148994
-0.0141699
-0.0134708
-0.012801
-0.0121597
-0.0115458
-0.0109584
-0.0103966
-0.00985947
-0.0093462
-0.0088559
-0.00838774
-0.00794093
-0.00751465
-0.00710816
-0.00672069
-0.00635152
-0.00599995
-0.00566527
-0.00534683
-0.00504398
-0.00475607
-0.00448251
-0.0042227
-0.00397606
-0.00374203
-0.00352008
-0.00330968
-0.00311034
-0.00292155
-0.00274285
-0.00257379
-0.00241392
-0.00226283
-0.0021201
-0.00198533
-0.00185816
-0.00173821
-0.00162514
-0.00151861
-0.00141828
-0.00132386
-0.00123505
-0.00115155
-0.00107309
-0.000999407
-0.000930253
-0.000865384
-0.000804571
-0.000747591
-0.000694236
-0.000644303
-0.000597601
-0.000553947
-0.000513166
-0.000475094
-0.000439571
-0.000406448
-0.000375582
-0.000346837
-0.000320085
-0.000295203
-0.000272076
-0.000250594
-0.000230654
-0.000212156
-0.000195008
-0.000179123
-0.000164417
-0.000150812
-0.000138236
-0.000126617
-0.000115891
-0.000105996
-9.68751e-05
-8.84731e-05
-8.07393e-05
-7.36258e-05
-6.70877e-05
-6.10831e-05
-5.55727e-05
-5.05197e-05
-4.58898e-05
-4.16507e-05
-3.77728e-05
-3.42279e-05
-3.09902e-05
-2.80354e-05
-2.53411e-05
-2.28862e-05
-2.06515e-05
-1.86189e-05
-1.67718e-05
-1.50945e-05
-1.35729e-05
-1.21938e-05
-1.09448e-05
-9.81478e-06
-8.79328e-06
-7.87073e-06
-7.03833e-06
-6.28796e-06
-5.61219e-06
-5.00418e-06
-4.45765e-06
-3.96688e-06
-3.5266e-06
-3.13202e-06
-2.77874e-06
-2.46277e-06
-2.18045e-06
-1.92846e-06
-1.70378e-06
-1.50365e-06
-1.32559e-06
-1.16734e-06
-1.02683e-06
-9.02231e-07
-7.9185e-07
-6.94179e-07
-6.07851e-07
-5.31637e-07
-4.64431e-07
-4.05236e-07
-3.53159e-07
-3.07399e-07
-2.67239e-07
-2.32037e-07
-2.01218e-07
-1.74271e-07
-1.50738e-07
-1.30214e-07
-1.12336e-07
-9.67841e-08
-8.32731e-08
-7.15508e-08
-6.13941e-08
-5.26058e-08
-4.50122e-08
-3.84599e-08
-3.28141e-08
-2.79563e-08
-2.37824e-08
-2.02015e-08
-1.71337e-08
-1.45095e-08
-1.22681e-08
-1.03566e-08
-8.72885e-09
-7.34491e-09
-6.17025e-09
-5.17483e-09
-4.33275e-09
-3.62168e-09
-3.02223e-09
-2.51767e-09
-2.09362e-09
-1.73778e-09
-1.43989e-09
-1.19105e-09
-9.83376e-10
-8.10241e-10
-6.66637e-10
-5.47702e-10
-4.49711e-10
-3.68705e-10
-3.01866e-10
-2.46692e-10
-2.00947e-10
-1.63197e-10
-1.31978e-10
-1.05728e-10
-8.46756e-11
-6.91368e-11
-5.8572e-11
-5.14299e-11
-4.5116e-11
-3.84448e-11
-3.11812e-11
-2.39371e-11
-1.74975e-11
-1.23479e-11
-8.6203e-12
-6.24891e-12
-5.11489e-12
-0.662684
-0.64948
-0.636436
-0.623553
-0.61083
-0.598268
-0.585866
-0.573625
-0.561544
-0.549624
-0.537863
-0.526262
-0.514821
-0.50354
-0.492418
-0.481455
-0.47065
-0.460004
-0.449515
-0.439184
-0.42901
-0.418992
-0.40913
-0.399424
-0.389872
-0.380474
-0.37123
-0.362139
-0.353199
-0.344411
-0.335774
-0.327286
-0.318946
-0.310755
-0.30271
-0.294812
-0.287058
-0.279449
-0.271982
-0.264657
-0.257473
-0.250429
-0.243523
-0.236755
-0.230122
-0.223624
-0.21726
-0.211028
-0.204927
-0.198956
-0.193113
-0.187397
-0.181806
-0.17634
-0.170996
-0.165773
-0.16067
-0.155685
-0.150817
-0.146064