/*--------------------------------*- C++ -*----------------------------------*\
| =========                 |                                                 |
| \\      /  F ield         | OpenFOAM: The Open Source CFD Toolbox           |
|  \\    /   O peration     | Version:  2.4.0                                 |
|   \\  /    A nd           | Web:      www.OpenFOAM.org                      |
|    \\/     M anipulation  |                                                 |
\*---------------------------------------------------------------------------*/
FoamFile
{
    version     2.0;
    format      ascii;
    class       volScalarField;
    location    "1.7";
    object      p_rgh;
}
// * * * * * * * * * * * * * * * * * * * * * * * * * * * * * * * * * * * * * //

dimensions      [1 -1 -2 0 0 0 0];

internalField   nonuniform List<scalar> 
8000
(
27.1835
27.1826
27.1816
27.1806
27.1795
27.1784
27.1773
27.1762
27.1749
27.1737
27.1724
27.1711
27.1697
27.1683
27.1669
27.1654
27.1639
27.1622
27.16
27.1579
27.1596
27.172
27.1817
27.0906
26.7325
14.7576
-0.000234789
-0.00102849
-0.00111236
-0.00115423
-0.00115981
-0.00115684
-0.00115511
-0.00115473
-0.00115471
-0.00115466
-0.00115455
-0.00115442
-0.00115426
-0.00115409
-0.00115389
-0.00115367
-0.00115342
-0.00115316
-0.00115287
-0.00115256
-0.00115223
-0.00115188
-0.00115151
-0.00115111
28.5021
28.5013
28.5003
28.4994
28.4984
28.4974
28.4964
28.4953
28.4941
28.493
28.4917
28.4905
28.4892
28.4879
28.4866
28.4852
28.4838
28.4822
28.4802
28.4785
28.4812
28.4931
28.4943
28.384
28.0451
11.7989
-0.00143751
-0.00106679
-0.00117466
-0.00121657
-0.00121976
-0.00121607
-0.00121441
-0.0012142
-0.00121426
-0.00121427
-0.0012142
-0.00121412
-0.00121401
-0.00121389
-0.00121375
-0.00121359
-0.00121342
-0.00121323
-0.00121302
-0.00121279
-0.00121254
-0.00121228
-0.001212
-0.0012117
29.8141
29.8141
29.8139
29.8135
29.813
29.8122
29.8113
29.8102
29.8089
29.8074
29.8057
29.8039
29.8018
29.7996
29.7972
29.7946
29.7917
29.7884
29.7846
29.7813
29.7829
29.792
29.779
29.6338
29.2975
8.53002
-0.00166869
-0.00113566
-0.00125002
-0.00129253
-0.00129558
-0.00129212
-0.00129091
-0.00129118
-0.00129172
-0.00129217
-0.00129255
-0.00129289
-0.00129319
-0.00129346
-0.00129369
-0.00129388
-0.00129403
-0.00129413
-0.00129419
-0.0012942
-0.00129417
-0.00129409
-0.00129397
-0.00129379
31.1671
31.1665
31.1658
31.1649
31.164
31.163
31.1619
31.1606
31.1594
31.158
31.1565
31.1549
31.1533
31.1515
31.1497
31.1477
31.1457
31.1431
31.1402
31.1388
31.1451
31.1589
31.1292
30.9038
30.4855
4.95062
-0.00174965
-0.0012321
-0.00134367
-0.00138468
-0.00138707
-0.0013832
-0.00138148
-0.00138111
-0.00138091
-0.00138055
-0.00138007
-0.00137951
-0.0013789
-0.00137824
-0.00137753
-0.00137679
-0.00137602
-0.00137522
-0.0013744
-0.00137357
-0.00137271
-0.00137185
-0.00137097
-0.00137009
32.5738
32.571
32.5681
32.5656
32.5634
32.5615
32.5599
32.5585
32.5574
32.5565
32.556
32.5556
32.5556
32.5559
32.5564
32.5573
32.5583
32.5587
32.5587
32.5648
32.5945
32.6422
32.5411
31.8471
30.6523
1.30432
-0.00169723
-0.00128423
-0.00138722
-0.00142996
-0.00143396
-0.00143119
-0.00143058
-0.00143149
-0.00143271
-0.00143387
-0.00143497
-0.00143604
-0.00143708
-0.00143809
-0.00143905
-0.00143996
-0.00144081
-0.0014416
-0.00144232
-0.00144297
-0.00144354
-0.00144404
-0.00144446
-0.0014448
33.9002
33.8971
33.8939
33.891
33.8885
33.8862
33.8842
33.8824
33.8809
33.8797
33.8786
33.8779
33.8773
33.8771
33.8771
33.8774
33.8778
33.8778
33.8778
33.8828
33.9047
33.9343
33.8434
33.3346
28.2671
0.166224
-0.00176417
-0.0014528
-0.00153429
-0.00156861
-0.00157092
-0.00156736
-0.00156539
-0.00156455
-0.00156387
-0.00156305
-0.00156213
-0.00156114
-0.0015601
-0.00155901
-0.00155789
-0.00155673
-0.00155555
-0.00155434
-0.0015531
-0.00155185
-0.00155059
-0.00154931
-0.00154802
-0.00154672
35.1528
35.1515
35.1499
35.1483
35.1466
35.1449
35.1432
35.1414
35.1395
35.1376
35.1356
35.1336
35.1315
35.1293
35.127
35.1247
35.1221
35.1189
35.1155
35.1161
35.1295
35.1446
35.0529
34.6367
23.452
0.0154823
-0.00164547
-0.00157713
-0.00162778
-0.00164717
-0.00164794
-0.00164607
-0.0016454
-0.00164545
-0.00164559
-0.00164567
-0.00164568
-0.00164564
-0.00164556
-0.00164544
-0.00164526
-0.00164502
-0.00164473
-0.00164438
-0.00164397
-0.0016435
-0.00164296
-0.00164237
-0.00164171
-0.00164098
36.46
36.459
36.4577
36.4565
36.4552
36.4539
36.4525
36.4511
36.4496
36.4481
36.4465
36.4448
36.4432
36.4414
36.4396
36.4378
36.4357
36.4332
36.4307
36.4323
36.4447
36.4528
36.3529
35.9804
19.0366
-0.0005692
-0.00162363
-0.00171469
-0.00175848
-0.00176374
-0.00176029
-0.00175829
-0.00175769
-0.00175738
-0.00175696
-0.00175644
-0.00175586
-0.00175521
-0.00175452
-0.00175376
-0.00175296
-0.0017521
-0.00175118
-0.00175022
-0.0017492
-0.00174813
-0.00174702
-0.00174585
-0.00174463
-0.00174337
37.7676
37.7664
37.7651
37.7639
37.7627
37.7614
37.7602
37.759
37.7577
37.7565
37.7552
37.754
37.7527
37.7515
37.7502
37.749
37.7476
37.7458
37.7445
37.7481
37.761
37.7594
37.6337
37.2762
14.2433
-0.00211243
-0.0017168
-0.00183171
-0.00187546
-0.00187836
-0.00187423
-0.00187234
-0.00187192
-0.0018717
-0.00187133
-0.00187084
-0.00187027
-0.00186964
-0.00186892
-0.00186814
-0.00186728
-0.00186635
-0.00186534
-0.00186426
-0.0018631
-0.00186187
-0.00186057
-0.0018592
-0.00185775
-0.00185624
39.0567
39.0565
39.0561
39.0555
39.0548
39.054
39.053
39.0519
39.0506
39.0491
39.0475
39.0458
39.0439
39.0418
39.0395
39.0371
39.0342
39.0309
39.0283
39.0311
39.0412
39.0249
38.8648
38.5169
9.24187
-0.00241303
-0.00184861
-0.0019706
-0.00201398
-0.00201596
-0.00201147
-0.00200941
-0.00200879
-0.00200831
-0.00200765
-0.00200684
-0.00200592
-0.00200491
-0.00200381
-0.00200261
-0.00200132
-0.00199994
-0.00199846
-0.0019969
-0.00199524
-0.0019935
-0.00199167
-0.00198976
-0.00198776
-0.00198569
40.3833
40.3831
40.3828
40.3824
40.3819
40.3813
40.3806
40.3799
40.379
40.378
40.377
40.3758
40.3746
40.3732
40.3718
40.3702
40.3682
40.3657
40.3648
40.3713
40.3845
40.3537
40.1335
39.7407
4.45911
-0.00250947
-0.00197212
-0.00209323
-0.00213511
-0.00213715
-0.00213338
-0.00213199
-0.0021319
-0.00213185
-0.00213155
-0.00213104
-0.00213037
-0.00212955
-0.00212858
-0.00212747
-0.00212621
-0.0021248
-0.00212326
-0.00212159
-0.00211978
-0.00211784
-0.00211578
-0.0021136
-0.0021113
-0.00210887
41.7512
41.7501
41.7491
41.7483
41.7477
41.7473
41.747
41.7469
41.747
41.7473
41.7477
41.7483
41.7491
41.75
41.7512
41.7524
41.7529
41.7528
41.7588
41.7884
41.8361
41.7327
41.0269
39.8616
0.833127
-0.0026442
-0.00218084
-0.00229871
-0.0023424
-0.00234357
-0.00233808
-0.00233496
-0.00233325
-0.00233163
-0.00232977
-0.0023277
-0.00232548
-0.00232311
-0.0023206
-0.00231794
-0.00231514
-0.00231221
-0.00230913
-0.00230592
-0.00230258
-0.00229911
-0.00229551
-0.00229179
-0.00228795
-0.002284
43.0562
43.0562
43.0563
43.0565
43.0568
43.0571
43.0575
43.0579
43.0584
43.059
43.0596
43.0603
43.061
43.0618
43.0627
43.0635
43.0635
43.0631
43.0676
43.0909
43.1271
43.0386
42.4732
38.2855
0.0655795
-0.00259657
-0.00240058
-0.00246933
-0.00249574
-0.00249638
-0.00249287
-0.00249064
-0.00248911
-0.00248749
-0.00248557
-0.00248338
-0.00248095
-0.00247828
-0.00247539
-0.00247228
-0.00246895
-0.00246541
-0.00246167
-0.00245773
-0.00245359
-0.00244927
-0.00244477
-0.0024401
-0.00243526
-0.00243026
44.3283
44.3303
44.3324
44.3342
44.3359
44.3374
44.3387
44.3399
44.3409
44.3418
44.3425
44.3431
44.3434
44.3437
44.3438
44.3435
44.3423
44.3404
44.3432
44.364
44.3966
44.3052
43.7484
37.5332
0.00259715
-0.00265264
-0.00272718
-0.00276984
-0.00277539
-0.00277086
-0.00276686
-0.0027638
-0.0027607
-0.00275718
-0.00275324
-0.00274893
-0.00274426
-0.00273926
-0.00273393
-0.0027283
-0.00272237
-0.00271616
-0.00270968
-0.00270296
-0.00269599
-0.0026888
-0.0026814
-0.0026738
-0.00266601
-0.00265805
45.6872
45.6894
45.6918
45.6942
45.6967
45.6991
45.7015
45.704
45.7065
45.709
45.7115
45.7141
45.7167
45.7194
45.7221
45.7247
45.7266
45.728
45.7346
45.7614
45.8025
45.7131
45.1193
39.5106
-0.00264371
-0.00282568
-0.00298546
-0.0030263
-0.00302523
-0.00301898
-0.00301471
-0.00301096
-0.00300652
-0.00300118
-0.00299506
-0.00298826
-0.00298083
-0.00297284
-0.00296432
-0.00295531
-0.00294587
-0.00293603
-0.00292584
-0.00291532
-0.00290451
-0.00289344
-0.00288215
-0.00287065
-0.00285897
-0.00284714
47.0013
47.0053
47.0098
47.0143
47.0187
47.0231
47.0276
47.0322
47.0368
47.0414
47.046
47.0506
47.0553
47.0599
47.0645
47.0688
47.072
47.0742
47.0822
47.1144
47.1651
47.0586
46.3248
43.9944
0.120011
-0.00344075
-0.00342089
-0.00350476
-0.00352461
-0.00351501
-0.00350054
-0.00348607
-0.00347091
-0.0034545
-0.00343694
-0.00341848
-0.00339931
-0.00337961
-0.0033595
-0.00333909
-0.00331847
-0.00329773
-0.00327694
-0.00325614
-0.00323539
-0.00321472
-0.00319416
-0.00317375
-0.0031535
-0.00313343
48.2488
48.2568
48.2652
48.2726
48.2789
48.2845
48.2893
48.2934
48.2969
48.2996
48.3017
48.3031
48.3039
48.3041
48.3038
48.3029
48.3018
48.3
48.2972
48.2946
48.2961
48.3058
48.274
48.0906
5.871
0.00404501
-0.0045219
-0.00451145
-0.0044283
-0.00433137
-0.00424069
-0.00415825
-0.00408247
-0.00401221
-0.00394681
-0.0038858
-0.00382875
-0.00377527
-0.00372498
-0.00367759
-0.0036328
-0.00359036
-0.00355006
-0.0035117
-0.00347509
-0.00344008
-0.00340653
-0.00337431
-0.00334332
-0.00331344
49.6842
49.6933
49.703
49.7118
49.7199
49.7275
49.7346
49.7412
49.7473
49.753
49.7581
49.7626
49.7667
49.7701
49.773
49.7752
49.7766
49.7768
49.7759
49.7766
49.7858
49.8009
49.74
49.4255
17.2127
0.0162098
-0.00387965
-0.00394825
-0.00395161
-0.00393244
-0.0039096
-0.00388608
-0.00386175
-0.00383655
-0.00381064
-0.0037842
-0.00375738
-0.00373031
-0.00370307
-0.00367577
-0.00364848
-0.00362125
-0.00359414
-0.00356719
-0.00354045
-0.00351392
-0.00348765
-0.00346165
-0.00343593
-0.00341051
51.2683
51.2743
51.2811
51.2878
51.2944
51.3009
51.3075
51.3141
51.3207
51.3273
51.334
51.3406
51.3474
51.3542
51.3611
51.3681
51.3752
51.3817
51.3881
51.3992
51.4279
51.4696
51.3949
50.8907
31.9685
0.019858
-0.00360029
-0.00371658
-0.00374312
-0.00373372
-0.00372456
-0.00371471
-0.00370352
-0.00369093
-0.0036771
-0.00366216
-0.00364623
-0.00362942
-0.00361181
-0.0035935
-0.00357457
-0.0035551
-0.00353516
-0.00351482
-0.00349414
-0.00347318
-0.00345198
-0.0034306
-0.00340908
-0.00338746
52.7652
52.7725
52.7808
52.7891
52.7972
52.8054
52.8136
52.8218
52.83
52.8383
52.8465
52.8547
52.8628
52.8708
52.8788
52.8865
52.8938
52.8997
52.9043
52.9145
52.9498
53.0065
52.9009
52.137
47.6068
0.658373
-0.00101528
-0.00370303
-0.0038525
-0.00383719
-0.00382864
-0.00381839
-0.00380585
-0.00379106
-0.00377445
-0.00375634
-0.00373698
-0.00371656
-0.00369526
-0.00367325
-0.00365067
-0.00362763
-0.00360424
-0.00358059
-0.00355677
-0.00353282
-0.00350883
-0.00348483
-0.00346086
-0.00343698
-0.00115069
-0.00115026
-0.0011498
-0.00114932
-0.00114882
-0.0011483
-0.00114777
-0.00114721
-0.00114663
-0.00114604
-0.00114542
-0.00114479
-0.00114414
-0.00114347
-0.00114278
-0.00114208
-0.00114135
-0.00114062
-0.00113986
-0.00113909
-0.0011383
-0.00113749
-0.00113667
-0.00113583
-0.00113498
-0.00113411
-0.00113323
-0.00113233
-0.00113141
-0.00113049
-0.00112954
-0.00112858
-0.00112761
-0.00112662
-0.00112562
-0.0011246
-0.00112357
-0.00112253
-0.00112147
-0.0011204
-0.00111932
-0.00111822
-0.00111711
-0.00111599
-0.00111485
-0.0011137
-0.00111254
-0.00111137
-0.00111019
-0.001109
-0.00121139
-0.00121106
-0.00121071
-0.00121034
-0.00120996
-0.00120955
-0.00120913
-0.00120869
-0.00120823
-0.00120775
-0.00120725
-0.00120674
-0.0012062
-0.00120564
-0.00120506
-0.00120447
-0.00120385
-0.00120321
-0.00120255
-0.00120187
-0.00120117
-0.00120045
-0.00119971
-0.00119895
-0.00119816
-0.00119736
-0.00119653
-0.00119569
-0.00119482
-0.00119393
-0.00119302
-0.00119209
-0.00119114
-0.00119017
-0.00118918
-0.00118817
-0.00118714
-0.00118609
-0.00118502
-0.00118393
-0.00118283
-0.0011817
-0.00118055
-0.00117938
-0.0011782
-0.001177
-0.00117578
-0.00117454
-0.00117329
-0.00117202
-0.00129358
-0.00129331
-0.00129301
-0.00129266
-0.00129226
-0.00129182
-0.00129134
-0.00129082
-0.00129026
-0.00128967
-0.00128903
-0.00128836
-0.00128765
-0.0012869
-0.00128612
-0.00128531
-0.00128447
-0.00128359
-0.00128268
-0.00128175
-0.00128078
-0.00127979
-0.00127877
-0.00127773
-0.00127665
-0.00127556
-0.00127444
-0.00127329
-0.00127212
-0.00127093
-0.00126972
-0.00126848
-0.00126723
-0.00126595
-0.00126466
-0.00126334
-0.00126201
-0.00126065
-0.00125928
-0.00125789
-0.00125648
-0.00125505
-0.00125361
-0.00125215
-0.00125067
-0.00124917
-0.00124766
-0.00124614
-0.00124461
-0.00124306
-0.0013692
-0.0013683
-0.0013674
-0.00136649
-0.00136558
-0.00136466
-0.00136373
-0.0013628
-0.00136187
-0.00136092
-0.00135997
-0.00135901
-0.00135804
-0.00135706
-0.00135607
-0.00135507
-0.00135405
-0.00135302
-0.00135198
-0.00135092
-0.00134985
-0.00134876
-0.00134765
-0.00134653
-0.00134539
-0.00134423
-0.00134305
-0.00134185
-0.00134063
-0.00133939
-0.00133813
-0.00133685
-0.00133554
-0.00133422
-0.00133287
-0.00133151
-0.00133012
-0.00132871
-0.00132728
-0.00132582
-0.00132435
-0.00132285
-0.00132133
-0.00131979
-0.00131823
-0.00131665
-0.00131504
-0.00131342
-0.00131179
-0.00131013
-0.00144506
-0.00144524
-0.00144533
-0.00144535
-0.00144529
-0.00144516
-0.00144495
-0.00144466
-0.0014443
-0.00144386
-0.00144336
-0.00144279
-0.00144215
-0.00144145
-0.00144068
-0.00143986
-0.00143898
-0.00143804
-0.00143704
-0.00143599
-0.0014349
-0.00143375
-0.00143255
-0.00143131
-0.00143002
-0.00142869
-0.00142732
-0.00142591
-0.00142446
-0.00142298
-0.00142145
-0.00141989
-0.0014183
-0.00141668
-0.00141502
-0.00141333
-0.00141162
-0.00140987
-0.0014081
-0.0014063
-0.00140447
-0.00140262
-0.00140074
-0.00139884
-0.00139691
-0.00139496
-0.00139299
-0.001391
-0.001389
-0.00138697
-0.00154541
-0.00154409
-0.00154277
-0.00154143
-0.00154009
-0.00153874
-0.00153737
-0.001536
-0.00153462
-0.00153323
-0.00153182
-0.0015304
-0.00152897
-0.00152752
-0.00152606
-0.00152458
-0.00152309
-0.00152157
-0.00152004
-0.00151849
-0.00151691
-0.00151532
-0.0015137
-0.00151206
-0.0015104
-0.00150872
-0.00150701
-0.00150528
-0.00150352
-0.00150174
-0.00149994
-0.00149811
-0.00149625
-0.00149437
-0.00149246
-0.00149053
-0.00148858
-0.00148659
-0.00148459
-0.00148255
-0.00148049
-0.00147841
-0.00147631
-0.00147417
-0.00147202
-0.00146984
-0.00146764
-0.00146541
-0.00146318
-0.00146091
-0.0016402
-0.00163935
-0.00163844
-0.00163747
-0.00163644
-0.00163534
-0.00163419
-0.00163298
-0.00163171
-0.00163038
-0.001629
-0.00162757
-0.00162608
-0.00162454
-0.00162295
-0.00162131
-0.00161963
-0.00161789
-0.00161611
-0.00161428
-0.00161241
-0.0016105
-0.00160855
-0.00160655
-0.00160452
-0.00160244
-0.00160033
-0.00159818
-0.001596
-0.00159378
-0.00159152
-0.00158924
-0.00158692
-0.00158457
-0.00158219
-0.00157977
-0.00157733
-0.00157486
-0.00157236
-0.00156984
-0.00156728
-0.0015647
-0.0015621
-0.00155947
-0.00155682
-0.00155414
-0.00155144
-0.00154871
-0.00154599
-0.00154323
-0.00174205
-0.00174069
-0.00173928
-0.00173783
-0.00173632
-0.00173477
-0.00173318
-0.00173153
-0.00172984
-0.00172811
-0.00172633
-0.0017245
-0.00172263
-0.00172072
-0.00171876
-0.00171676
-0.00171471
-0.00171262
-0.00171049
-0.00170832
-0.0017061
-0.00170385
-0.00170155
-0.00169921
-0.00169683
-0.00169442
-0.00169196
-0.00168947
-0.00168694
-0.00168437
-0.00168177
-0.00167913
-0.00167645
-0.00167374
-0.001671
-0.00166822
-0.00166542
-0.00166257
-0.0016597
-0.0016568
-0.00165387
-0.0016509
-0.00164791
-0.00164489
-0.00164185
-0.00163877
-0.00163567
-0.00163255
-0.00162942
-0.00162626
-0.00185465
-0.001853
-0.00185127
-0.00184948
-0.00184763
-0.00184571
-0.00184372
-0.00184167
-0.00183956
-0.00183738
-0.00183515
-0.00183286
-0.0018305
-0.00182809
-0.00182563
-0.00182311
-0.00182053
-0.00181791
-0.00181523
-0.0018125
-0.00180972
-0.00180689
-0.00180402
-0.0018011
-0.00179813
-0.00179512
-0.00179206
-0.00178897
-0.00178583
-0.00178265
-0.00177943
-0.00177618
-0.00177289
-0.00176956
-0.00176619
-0.0017628
-0.00175936
-0.0017559
-0.0017524
-0.00174888
-0.00174532
-0.00174174
-0.00173812
-0.00173448
-0.00173082
-0.00172712
-0.00172341
-0.00171967
-0.00171593
-0.00171215
-0.00198353
-0.00198129
-0.00197897
-0.00197657
-0.0019741
-0.00197156
-0.00196894
-0.00196625
-0.0019635
-0.00196067
-0.00195777
-0.00195481
-0.00195179
-0.0019487
-0.00194555
-0.00194234
-0.00193907
-0.00193575
-0.00193236
-0.00192893
-0.00192544
-0.00192189
-0.0019183
-0.00191466
-0.00191097
-0.00190723
-0.00190345
-0.00189962
-0.00189576
-0.00189185
-0.0018879
-0.00188391
-0.00187988
-0.00187582
-0.00187172
-0.00186758
-0.00186342
-0.00185922
-0.00185499
-0.00185074
-0.00184645
-0.00184213
-0.00183779
-0.00183343
-0.00182904
-0.00182463
-0.00182019
-0.00181573
-0.00181128
-0.00180681
-0.00210634
-0.0021037
-0.00210094
-0.00209808
-0.00209512
-0.00209206
-0.0020889
-0.00208565
-0.00208231
-0.00207888
-0.00207536
-0.00207175
-0.00206807
-0.00206431
-0.00206047
-0.00205656
-0.00205257
-0.00204852
-0.0020444
-0.00204021
-0.00203596
-0.00203166
-0.00202729
-0.00202287
-0.00201839
-0.00201386
-0.00200928
-0.00200466
-0.00199998
-0.00199527
-0.00199051
-0.00198571
-0.00198087
-0.00197599
-0.00197107
-0.00196613
-0.00196115
-0.00195613
-0.00195109
-0.00194602
-0.00194092
-0.0019358
-0.00193065
-0.00192548
-0.00192029
-0.00191508
-0.00190985
-0.0019046
-0.00189937
-0.00189408
-0.00227992
-0.00227574
-0.00227145
-0.00226706
-0.00226256
-0.00225797
-0.00225328
-0.0022485
-0.00224363
-0.00223868
-0.00223364
-0.00222852
-0.00222333
-0.00221806
-0.00221272
-0.00220731
-0.00220184
-0.00219631
-0.00219072
-0.00218507
-0.00217937
-0.00217361
-0.00216781
-0.00216196
-0.00215606
-0.00215012
-0.00214415
-0.00213813
-0.00213208
-0.002126
-0.00211989
-0.00211374
-0.00210757
-0.00210138
-0.00209516
-0.00208891
-0.00208265
-0.00207637
-0.00207007
-0.00206376
-0.00205743
-0.00205109
-0.00204474
-0.00203838
-0.00203201
-0.00202563
-0.00201924
-0.00201285
-0.0020065
-0.00200014
-0.0024251
-0.0024198
-0.00241436
-0.00240878
-0.00240307
-0.00239724
-0.00239129
-0.00238523
-0.00237906
-0.00237279
-0.00236643
-0.00235998
-0.00235344
-0.00234682
-0.00234012
-0.00233336
-0.00232652
-0.00231963
-0.00231267
-0.00230566
-0.0022986
-0.00229149
-0.00228434
-0.00227715
-0.00226992
-0.00226265
-0.00225536
-0.00224804
-0.00224069
-0.00223331
-0.00222592
-0.00221851
-0.00221108
-0.00220364
-0.00219619
-0.00218873
-0.00218126
-0.00217379
-0.00216631
-0.00215883
-0.00215135
-0.00214386
-0.00213639
-0.00212891
-0.00212144
-0.00211397
-0.00210652
-0.00209908
-0.00209168
-0.00208425
-0.00264993
-0.00264166
-0.00263324
-0.0026247
-0.00261604
-0.00260726
-0.00259838
-0.00258941
-0.00258036
-0.00257123
-0.00256203
-0.00255276
-0.00254345
-0.00253408
-0.00252466
-0.00251521
-0.00250573
-0.00249622
-0.00248669
-0.00247714
-0.00246757
-0.00245799
-0.00244841
-0.00243883
-0.00242924
-0.00241966
-0.00241009
-0.00240052
-0.00239096
-0.00238142
-0.0023719
-0.00236239
-0.00235291
-0.00234344
-0.002334
-0.00232459
-0.0023152
-0.00230584
-0.00229651
-0.0022872
-0.00227794
-0.0022687
-0.0022595
-0.00225033
-0.00224119
-0.0022321
-0.00222303
-0.00221401
-0.00220508
-0.00219618
-0.00283518
-0.0028231
-0.00281093
-0.00279867
-0.00278635
-0.00277399
-0.00276158
-0.00274914
-0.00273669
-0.00272424
-0.00271178
-0.00269934
-0.00268691
-0.0026745
-0.00266212
-0.00264978
-0.00263748
-0.00262522
-0.002613
-0.00260084
-0.00258873
-0.00257668
-0.00256468
-0.00255274
-0.00254087
-0.00252906
-0.00251732
-0.00250564
-0.00249403
-0.00248249
-0.00247101
-0.00245961
-0.00244828
-0.00243702
-0.00242583
-0.00241471
-0.00240366
-0.00239268
-0.00238178
-0.00237094
-0.00236018
-0.00234949
-0.00233887
-0.00232832
-0.00231783
-0.00230742
-0.00229709
-0.00228682
-0.00227668
-0.00226654
-0.00311356
-0.00309388
-0.00307442
-0.00305517
-0.00303614
-0.00301733
-0.00299874
-0.00298038
-0.00296224
-0.00294431
-0.00292661
-0.00290911
-0.00289183
-0.00287476
-0.00285789
-0.00284122
-0.00282474
-0.00280846
-0.00279237
-0.00277646
-0.00276074
-0.00274519
-0.00272982
-0.00271462
-0.00269958
-0.00268471
-0.00267
-0.00265544
-0.00264104
-0.00262679
-0.00261269
-0.00259873
-0.00258491
-0.00257124
-0.0025577
-0.00254429
-0.00253102
-0.00251787
-0.00250485
-0.00249196
-0.00247919
-0.00246653
-0.002454
-0.00244158
-0.00242928
-0.00241709
-0.00240501
-0.00239304
-0.00238125
-0.00236956
-0.00328459
-0.00325669
-0.00322967
-0.00320345
-0.00317799
-0.00315322
-0.0031291
-0.00310559
-0.00308264
-0.00306023
-0.00303832
-0.00301688
-0.00299588
-0.0029753
-0.00295512
-0.00293532
-0.00291588
-0.00289678
-0.002878
-0.00285954
-0.00284138
-0.00282351
-0.00280591
-0.00278858
-0.0027715
-0.00275467
-0.00273808
-0.00272173
-0.00270559
-0.00268967
-0.00267396
-0.00265846
-0.00264315
-0.00262804
-0.00261311
-0.00259837
-0.0025838
-0.00256941
-0.00255518
-0.00254112
-0.00252723
-0.00251348
-0.0024999
-0.00248646
-0.00247317
-0.00246003
-0.00244703
-0.00243418
-0.00242153
-0.00240892
-0.00338539
-0.00336058
-0.00333608
-0.0033119
-0.00328803
-0.00326448
-0.00324125
-0.00321833
-0.00319571
-0.00317341
-0.0031514
-0.00312969
-0.00310827
-0.00308714
-0.0030663
-0.00304573
-0.00302544
-0.00300541
-0.00298564
-0.00296613
-0.00294688
-0.00292787
-0.0029091
-0.00289057
-0.00287228
-0.00285422
-0.00283639
-0.00281876
-0.00280138
-0.00278423
-0.0027673
-0.00275059
-0.00273408
-0.00271776
-0.00270164
-0.0026857
-0.00266995
-0.00265438
-0.00263899
-0.00262377
-0.00260872
-0.00259384
-0.00257913
-0.00256457
-0.00255018
-0.00253594
-0.00252186
-0.00250793
-0.00249424
-0.00248068
-0.00336577
-0.00334405
-0.00332233
-0.00330064
-0.00327899
-0.00325741
-0.00323591
-0.00321452
-0.00319325
-0.00317213
-0.00315116
-0.00313034
-0.00310968
-0.0030892
-0.00306889
-0.00304878
-0.00302885
-0.00300912
-0.00298959
-0.00297026
-0.00295113
-0.00293221
-0.0029135
-0.00289499
-0.00287668
-0.00285858
-0.00284067
-0.00282298
-0.00280546
-0.00278813
-0.00277098
-0.00275402
-0.00273725
-0.00272068
-0.00270429
-0.00268809
-0.00267208
-0.00265626
-0.00264062
-0.00262516
-0.00260987
-0.00259477
-0.00257983
-0.00256507
-0.00255047
-0.00253604
-0.00252177
-0.00250767
-0.0024938
-0.00247998
-0.0034132
-0.00338961
-0.00336618
-0.00334291
-0.00331984
-0.00329696
-0.0032743
-0.00325186
-0.00322965
-0.00320764
-0.00318588
-0.00316436
-0.00314308
-0.00312204
-0.00310125
-0.00308069
-0.00306037
-0.0030403
-0.00302045
-0.00300084
-0.00298147
-0.00296231
-0.00294339
-0.00292469
-0.0029062
-0.00288793
-0.00286987
-0.00285202
-0.00283438
-0.00281694
-0.0027997
-0.00278265
-0.00276579
-0.00274913
-0.00273265
-0.00271636
-0.00270024
-0.0026843
-0.00266854
-0.00265295
-0.00263753
-0.00262227
-0.00260717
-0.00259224
-0.00257746
-0.00256284
-0.00254837
-0.00253406
-0.00251998
-0.00250601
-0.0011081
-0.00110747
-0.00110681
-0.00110616
-0.00110549
-0.00110482
-0.00110414
-0.00110345
-0.00110276
-0.00110206
-0.00110134
-0.00110063
-0.0010999
-0.00109916
-0.00109842
-0.00109767
-0.00109691
-0.00109614
-0.00109536
-0.00109458
-0.00109379
-0.00109298
-0.00109217
-0.00109135
-0.00109053
-0.00108969
-0.00108885
-0.00108799
-0.00108713
-0.00108626
-0.00108538
-0.00108449
-0.00108359
-0.00108268
-0.00108176
-0.00108084
-0.0010799
-0.00107896
-0.001078
-0.00107704
-0.00107607
-0.00107508
-0.00107409
-0.00107309
-0.00107208
-0.00107106
-0.00107003
-0.00106899
-0.00106794
-0.00106688
-0.00106581
-0.00106473
-0.00106364
-0.00106254
-0.00106143
-0.00106031
-0.00105918
-0.00105804
-0.00105688
-0.00105572
-0.00105455
-0.00105337
-0.00105218
-0.00105097
-0.00104976
-0.00104854
-0.0010473
-0.00104606
-0.0010448
-0.00104354
-0.00104226
-0.00104097
-0.00103967
-0.00103836
-0.00103704
-0.00103571
-0.00103437
-0.00103302
-0.00103166
-0.00103028
-0.0010289
-0.0010275
-0.00102609
-0.00102467
-0.00102324
-0.0010218
-0.00102035
-0.00101889
-0.00101742
-0.00101593
-0.00101444
-0.00101293
-0.00101141
-0.00100988
-0.00100834
-0.00100679
-0.00100523
-0.00100365
-0.00100207
-0.00100047
-0.000998868
-0.00099725
-0.000995621
-0.000993981
-0.00099233
-0.000990667
-0.000988994
-0.00098731
-0.000985615
-0.000983908
-0.000982191
-0.000980463
-0.000978724
-0.000976974
-0.000975214
-0.000973442
-0.00097166
-0.000969867
-0.000968063
-0.000966249
-0.000964424
-0.000962588
-0.000960742
-0.000958886
-0.000957019
-0.000955142
-0.000953254
-0.000951356
-0.000949448
-0.00094753
-0.000945602
-0.000943664
-0.000941716
-0.000939758
-0.000937791
-0.000935813
-0.000933826
-0.00093183
-0.000929824
-0.000927809
-0.000925784
-0.000923751
-0.000921708
-0.000919656
-0.000917596
-0.000915527
-0.000913449
-0.000911362
-0.000909267
-0.000907164
-0.000905052
-0.000902933
-0.000900805
-0.00089867
-0.000896526
-0.000894376
-0.000892217
-0.000890052
-0.000887879
-0.000885699
-0.000883513
-0.000881319
-0.000879119
-0.000876913
-0.0008747
-0.000872481
-0.000870256
-0.000868025
-0.000865789
-0.000863547
-0.0008613
-0.000859047
-0.00085679
-0.000854528
-0.000852261
-0.00084999
-0.000847714
-0.000845435
-0.000843152
-0.000840865
-0.000838574
-0.00083628
-0.000833984
-0.000831684
-0.000829382
-0.000827077
-0.00082477
-0.000822461
-0.000820151
-0.000817838
-0.000815525
-0.00081321
-0.000810895
-0.000808579
-0.000806262
-0.000803946
-0.000801629
-0.000799313
-0.000796997
-0.000794683
-0.000792369
-0.000790057
-0.000787746
-0.000785437
-0.00078313
-0.000780826
-0.000778525
-0.000776226
-0.000773931
-0.000771639
-0.000769351
-0.000767067
-0.000764787
-0.000762512
-0.000760242
-0.000757977
-0.000755718
-0.000753465
-0.000751218
-0.000748977
-0.000746743
-0.000744516
-0.000742297
-0.000740085
-0.000737881
-0.000735686
-0.000733499
-0.000731321
-0.000729153
-0.000726994
-0.000724846
-0.000722708
-0.00072058
-0.000718464
-0.000716359
-0.000714265
-0.000712184
-0.000710116
-0.00070806
-0.000706017
-0.000703988
-0.000701973
-0.000699972
-0.000697986
-0.000696015
-0.000694059
-0.00069212
-0.000690196
-0.000688289
-0.0006864
-0.000684527
-0.000682673
-0.000680836
-0.000679019
-0.00067722
-0.000675441
-0.000673682
-0.000671943
-0.000670225
-0.000668528
-0.000666853
-0.0006652
-0.000663569
-0.000661962
-0.000660378
-0.000658817
-0.000657282
-0.00065577
-0.000654285
-0.000652825
-0.000651391
-0.000649984
-0.000648604
-0.000647252
-0.000645929
-0.000644634
-0.000643368
-0.000642132
-0.000640927
-0.000639752
-0.000638609
-0.000637497
-0.000636418
-0.000635372
-0.00063436
-0.000633381
-0.000632438
-0.000631529
-0.000630657
-0.000629821
-0.000629022
-0.00062826
-0.000627537
-0.000626853
-0.000626208
-0.000625603
-0.000625038
-0.000624514
-0.000624033
-0.000623604
-0.00117104
-0.00117035
-0.00116965
-0.00116896
-0.00116825
-0.00116754
-0.00116681
-0.00116608
-0.00116534
-0.00116459
-0.00116383
-0.00116307
-0.00116229
-0.0011615
-0.00116071
-0.0011599
-0.00115908
-0.00115826
-0.00115743
-0.00115658
-0.00115573
-0.00115486
-0.00115399
-0.00115311
-0.00115221
-0.00115131
-0.00115039
-0.00114947
-0.00114853
-0.00114759
-0.00114663
-0.00114567
-0.00114469
-0.0011437
-0.00114271
-0.0011417
-0.00114068
-0.00113965
-0.00113861
-0.00113756
-0.0011365
-0.00113542
-0.00113434
-0.00113324
-0.00113214
-0.00113102
-0.00112989
-0.00112875
-0.0011276
-0.00112644
-0.00112526
-0.00112408
-0.00112288
-0.00112167
-0.00112045
-0.00111922
-0.00111798
-0.00111672
-0.00111546
-0.00111418
-0.00111289
-0.00111159
-0.00111027
-0.00110895
-0.00110761
-0.00110626
-0.0011049
-0.00110353
-0.00110214
-0.00110074
-0.00109933
-0.00109791
-0.00109648
-0.00109503
-0.00109357
-0.0010921
-0.00109062
-0.00108913
-0.00108762
-0.0010861
-0.00108457
-0.00108303
-0.00108147
-0.0010799
-0.00107832
-0.00107673
-0.00107512
-0.00107351
-0.00107188
-0.00107024
-0.00106858
-0.00106691
-0.00106524
-0.00106355
-0.00106184
-0.00106013
-0.0010584
-0.00105666
-0.00105491
-0.00105315
-0.00105137
-0.00104958
-0.00104778
-0.00104597
-0.00104415
-0.00104231
-0.00104046
-0.0010386
-0.00103673
-0.00103485
-0.00103295
-0.00103104
-0.00102913
-0.0010272
-0.00102525
-0.0010233
-0.00102134
-0.00101936
-0.00101737
-0.00101537
-0.00101336
-0.00101134
-0.00100931
-0.00100727
-0.00100521
-0.00100315
-0.00100107
-0.000998985
-0.000996888
-0.000994781
-0.000992663
-0.000990534
-0.000988395
-0.000986246
-0.000984087
-0.000981918
-0.00097974
-0.000977551
-0.000975353
-0.000973145
-0.000970928
-0.000968701
-0.000966465
-0.000964221
-0.000961967
-0.000959704
-0.000957433
-0.000955152
-0.000952864
-0.000950567
-0.000948262
-0.000945949
-0.000943628
-0.000941299
-0.000938963
-0.000936619
-0.000934268
-0.000931909
-0.000929544
-0.000927172
-0.000924793
-0.000922407
-0.000920015
-0.000917617
-0.000915213
-0.000912803
-0.000910388
-0.000907967
-0.00090554
-0.000903109
-0.000900672
-0.000898231
-0.000895786
-0.000893335
-0.000890881
-0.000888423
-0.000885961
-0.000883496
-0.000881027
-0.000878555
-0.00087608
-0.000873602
-0.000871122
-0.00086864
-0.000866156
-0.00086367
-0.000861182
-0.000858693
-0.000856203
-0.000853712
-0.000851221
-0.000848729
-0.000846237
-0.000843745
-0.000841253
-0.000838762
-0.000836272
-0.000833784
-0.000831296
-0.00082881
-0.000826327
-0.000823845
-0.000821366
-0.00081889
-0.000816416
-0.000813946
-0.00081148
-0.000809018
-0.00080656
-0.000804106
-0.000801657
-0.000799213
-0.000796775
-0.000794342
-0.000791915
-0.000789495
-0.000787081
-0.000784674
-0.000782274
-0.000779882
-0.000777498
-0.000775122
-0.000772754
-0.000770396
-0.000768046
-0.000765706
-0.000763376
-0.000761057
-0.000758747
-0.000756449
-0.000754162
-0.000751887
-0.000749623
-0.000747372
-0.000745134
-0.000742908
-0.000740696
-0.000738498
-0.000736314
-0.000734145
-0.00073199
-0.000729851
-0.000727728
-0.00072562
-0.000723529
-0.000721455
-0.000719398
-0.000717359
-0.000715338
-0.000713336
-0.000711352
-0.000709387
-0.000707443
-0.000705518
-0.000703614
-0.000701731
-0.00069987
-0.00069803
-0.000696213
-0.000694418
-0.000692647
-0.000690899
-0.000689176
-0.000687477
-0.000685803
-0.000684155
-0.000682532
-0.000680936
-0.000679367
-0.000677826
-0.000676312
-0.000674827
-0.000673371
-0.000671945
-0.000670548
-0.000669182
-0.000667847
-0.000666543
-0.000665271
-0.000664033
-0.000662827
-0.000661655
-0.000660517
-0.000659415
-0.000658347
-0.000657316
-0.000656321
-0.000655364
-0.000654444
-0.000653563
-0.00065272