/*--------------------------------*- C++ -*----------------------------------*\
| =========                 |                                                 |
| \\      /  F ield         | OpenFOAM: The Open Source CFD Toolbox           |
|  \\    /   O peration     | Version:  2.4.0                                 |
|   \\  /    A nd           | Web:      www.OpenFOAM.org                      |
|    \\/     M anipulation  |                                                 |
\*---------------------------------------------------------------------------*/
FoamFile
{
    version     2.0;
    format      ascii;
    class       surfaceScalarField;
    location    "3.3";
    object      phi;
}
// * * * * * * * * * * * * * * * * * * * * * * * * * * * * * * * * * * * * * //

dimensions      [0 3 -1 0 0 0 0];

internalField   nonuniform List<scalar> 
220
(
4.6484e-18
-4.64829e-18
4.4395e-18
2.09096e-19
-2.07287e-18
6.51204e-18
-6.29934e-18
4.22601e-18
-6.29912e-18
1.437e-17
-1.90143e-17
1.37222e-17
8.63545e-19
-6.58542e-18
2.6829e-17
-1.94138e-17
1.70619e-17
-2.57075e-17
2.46209e-17
-4.36306e-17
2.34654e-17
2.02657e-18
-1.1463e-17
6.17677e-17
-3.31971e-17
3.8804e-17
-5.8899e-17
3.54346e-17
-7.90599e-17
3.36671e-17
3.80216e-18
-1.66974e-17
1.12143e-16
-4.7696e-17
6.98111e-17
-1.06589e-16
4.6819e-17
-1.25873e-16
4.43377e-17
6.29189e-18
-2.22994e-17
1.78792e-16
-6.29223e-17
1.10443e-16
-1.69506e-16
5.88286e-17
-1.84696e-16
5.55159e-17
9.61331e-18
-2.83008e-17
2.6262e-16
-7.89452e-17
1.61096e-16
-2.48445e-16
7.14649e-17
-2.56155e-16
6.72117e-17
1.38753e-17
-3.47091e-17
3.64552e-16
-9.57767e-17
2.22172e-16
-3.44216e-16
8.47944e-17
-3.40943e-16
7.94675e-17
1.92109e-17
-4.15636e-17
4.85595e-16
-1.13494e-16
2.94112e-16
-4.57705e-16
9.88142e-17
-4.39752e-16
9.22929e-17
2.57409e-17
-4.88704e-17
6.2677e-16
-1.32107e-16
3.77357e-16
-5.89807e-16
1.13601e-16
-5.53347e-16
1.05737e-16
3.36136e-17
-5.66744e-17
7.89192e-16
-1.51704e-16
4.72395e-16
-7.41505e-16
1.2915e-16
-6.82491e-16
1.19808e-16
4.29637e-17
-6.49819e-17
9.73992e-16
-1.72294e-16
5.79714e-16
-9.13794e-16
1.45546e-16
-8.28032e-16
1.34562e-16
5.39563e-17
-7.38436e-17
1.18241e-15
-1.93979e-16
6.99857e-16
-1.10777e-15
1.62788e-16
-9.90815e-16
1.5001e-16
6.67415e-17
-8.32667e-17
1.41569e-15
-2.16771e-16
8.33368e-16
-1.32453e-15
1.80968e-16
-1.17178e-15
1.66215e-16
8.15005e-17
-9.33065e-17
1.67522e-15
-2.40782e-16
9.8085e-16
-1.56531e-15
2.00077e-16
-1.37185e-15
1.83188e-16
9.83953e-17
-1.03972e-16
1.96239e-15
-2.6602e-16
1.1429e-15
-1.83133e-15
2.20193e-16
-1.59204e-15
2.00973e-16
1.17621e-16
-1.15313e-16
2.27868e-15
-2.92564e-16
1.32016e-15
-2.12389e-15
2.41337e-16
-1.83337e-15
2.19556e-16
1.39407e-16
-1.27336e-16
2.62558e-15
-3.20413e-16
1.51324e-15
-2.4443e-15
2.63734e-16
-2.0971e-15
2.39294e-16
1.63849e-16
-1.40335e-16
3.00521e-15
-3.49878e-16
1.72279e-15
-2.79418e-15
2.87935e-16
-2.38504e-15
2.59868e-16
1.91919e-16
-1.53783e-16
3.41887e-15
-3.818e-16
1.95081e-15
-3.17598e-15
3.14027e-16
-4.90349e-15
2.84676e-16
2.2127e-16
-1.69763e-16
3.8733e-15
-4.1841e-16
2.19945e-15
-6.53167e-15
3.46921e-16
-2.29478e-10
3.2086e-16
-2.29482e-10
-1.90971e-16
-2.29487e-10
-4.71212e-16
-2.29484e-10
-2.29477e-10
3.54089e-16
-2.29479e-10
3.18481e-16
-2.29482e-10
-1.9285e-16
-2.29486e-10
-4.69821e-16
-2.29484e-10
-2.29478e-10
3.56675e-16
-2.29479e-10
3.20122e-16
-2.29482e-10
-1.93039e-16
-2.29486e-10
-4.75344e-16
-2.29484e-10
-2.29478e-10
3.359e-16
-2.29479e-10
3.03678e-16
-2.29482e-10
-1.83689e-16
-2.29485e-10
-4.45564e-16
-2.29483e-10
-2.29479e-10
3.20356e-16
2.89477e-16
-1.74687e-16
-4.2398e-16
)
;

boundaryField
{
    BotWall
    {
        type            calculated;
        value           nonuniform List<scalar> 5(-7.2532e-23 -9.55644e-23 4.59004e-22 4.11173e-22 -1.53944e-22);
    }
    FreeStream
    {
        type            calculated;
        value           nonuniform 0();
    }
    FrontNBack
    {
        type            empty;
        value           nonuniform 0();
    }
    LeftSide
    {
        type            symmetryPlane;
        value           uniform 0;
    }
    RightSide
    {
        type            symmetryPlane;
        value           uniform 0;
    }
    procBoundary0to1
    {
        type            processor;
        value           nonuniform List<scalar> 5(-2.2948e-10 -2.29482e-10 -2.29485e-10 -2.29483e-10 -2.29479e-10);
    }
}


// ************************************************************************* //
