/*--------------------------------*- C++ -*----------------------------------*\
| =========                 |                                                 |
| \\      /  F ield         | OpenFOAM: The Open Source CFD Toolbox           |
|  \\    /   O peration     | Version:  2.4.0                                 |
|   \\  /    A nd           | Web:      www.OpenFOAM.org                      |
|    \\/     M anipulation  |                                                 |
\*---------------------------------------------------------------------------*/
FoamFile
{
    version     2.0;
    format      ascii;
    class       volScalarField;
    location    "3.3";
    object      T;
}
// * * * * * * * * * * * * * * * * * * * * * * * * * * * * * * * * * * * * * //

dimensions      [0 0 0 1 0 0 0];

internalField   nonuniform List<scalar> 
125
(
293.106
293.106
293.106
293.106
293.106
293.32
293.32
293.32
293.32
293.32
293.536
293.536
293.536
293.536
293.536
293.754
293.754
293.754
293.754
293.754
293.975
293.975
293.975
293.975
293.975
294.198
294.198
294.198
294.198
294.198
294.424
294.424
294.424
294.424
294.424
294.653
294.653
294.653
294.653
294.653
294.884
294.884
294.884
294.884
294.884
295.118
295.118
295.118
295.118
295.118
295.354
295.355
295.355
295.355
295.354
295.594
295.594
295.594
295.594
295.594
295.836
295.836
295.836
295.836
295.836
296.082
296.082
296.082
296.082
296.082
296.33
296.33
296.33
296.33
296.33
296.581
296.581
296.582
296.581
296.581
296.836
296.836
296.836
296.836
296.836
297.094
297.094
297.094
297.094
297.094
297.354
297.355
297.355
297.355
297.354
297.619
297.619
297.619
297.619
297.619
297.987
297.987
297.987
297.987
297.987
297.986
297.986
297.987
297.986
297.986
297.986
297.986
297.986
297.986
297.986
297.986
297.986
297.986
297.986
297.986
297.986
297.986
297.986
297.986
297.986
)
;

boundaryField
{
    BotWall
    {
        type            fixedValue;
        value           uniform 293;
    }
    FreeStream
    {
        type            fixedValue;
        value           nonuniform 0();
    }
    FrontNBack
    {
        type            empty;
    }
    LeftSide
    {
        type            symmetryPlane;
    }
    RightSide
    {
        type            symmetryPlane;
    }
    procBoundary0to1
    {
        type            processor;
        value           nonuniform List<scalar> 5(297.986 297.986 297.986 297.986 297.986);
    }
}


// ************************************************************************* //
