/*--------------------------------*- C++ -*----------------------------------*\
| =========                 |                                                 |
| \\      /  F ield         | OpenFOAM: The Open Source CFD Toolbox           |
|  \\    /   O peration     | Version:  2.4.0                                 |
|   \\  /    A nd           | Web:      www.OpenFOAM.org                      |
|    \\/     M anipulation  |                                                 |
\*---------------------------------------------------------------------------*/
FoamFile
{
    version     2.0;
    format      ascii;
    class       volScalarField;
    location    "1.3";
    object      p_rgh;
}
// * * * * * * * * * * * * * * * * * * * * * * * * * * * * * * * * * * * * * //

dimensions      [1 -1 -2 0 0 0 0];

internalField   nonuniform List<scalar> 
125
(
-2.39493e-05
-2.39459e-05
-2.39452e-05
-2.39459e-05
-2.39491e-05
-2.38128e-05
-2.38095e-05
-2.38087e-05
-2.38094e-05
-2.38126e-05
-2.37236e-05
-2.37202e-05
-2.37195e-05
-2.37202e-05
-2.37233e-05
-2.36431e-05
-2.36399e-05
-2.36391e-05
-2.36398e-05
-2.36429e-05
-2.35595e-05
-2.35563e-05
-2.35556e-05
-2.35562e-05
-2.35592e-05
-2.3473e-05
-2.34698e-05
-2.34691e-05
-2.34698e-05
-2.34727e-05
-2.33851e-05
-2.3382e-05
-2.33813e-05
-2.3382e-05
-2.33848e-05
-2.32964e-05
-2.32933e-05
-2.32926e-05
-2.32933e-05
-2.32961e-05
-2.32067e-05
-2.32037e-05
-2.32031e-05
-2.32037e-05
-2.32064e-05
-2.31161e-05
-2.31131e-05
-2.31125e-05
-2.31131e-05
-2.31158e-05
-2.30244e-05
-2.30216e-05
-2.30209e-05
-2.30215e-05
-2.30242e-05
-2.29318e-05
-2.29289e-05
-2.29283e-05
-2.29289e-05
-2.29315e-05
-2.28381e-05
-2.28353e-05
-2.28347e-05
-2.28352e-05
-2.28378e-05
-2.27433e-05
-2.27406e-05
-2.274e-05
-2.27406e-05
-2.27431e-05
-2.26476e-05
-2.26449e-05
-2.26443e-05
-2.26448e-05
-2.26473e-05
-2.25507e-05
-2.25481e-05
-2.25475e-05
-2.2548e-05
-2.25505e-05
-2.24528e-05
-2.24503e-05
-2.24497e-05
-2.24502e-05
-2.24525e-05
-2.23538e-05
-2.23513e-05
-2.23508e-05
-2.23512e-05
-2.23535e-05
-2.22537e-05
-2.22513e-05
-2.22507e-05
-2.22512e-05
-2.22534e-05
-2.21525e-05
-2.21501e-05
-2.21496e-05
-2.215e-05
-2.21522e-05
-2.20501e-05
-2.20478e-05
-2.20473e-05
-2.20477e-05
-2.20499e-05
-2.19467e-05
-2.19444e-05
-2.19439e-05
-2.19443e-05
-2.19464e-05
-2.1842e-05
-2.18398e-05
-2.18393e-05
-2.18397e-05
-2.18418e-05
-2.17362e-05
-2.17341e-05
-2.17335e-05
-2.1734e-05
-2.1736e-05
-2.16292e-05
-2.16271e-05
-2.16266e-05
-2.1627e-05
-2.1629e-05
)
;

boundaryField
{
    BotWall
    {
        type            fixedFluxPressure;
        gradient        nonuniform 0();
        value           nonuniform 0();
    }
    FreeStream
    {
        type            totalPressure;
        rho             rho;
        psi             none;
        gamma           1;
        p0              nonuniform 0();
        value           nonuniform 0();
    }
    FrontNBack
    {
        type            empty;
    }
    LeftSide
    {
        type            symmetryPlane;
    }
    RightSide
    {
        type            symmetryPlane;
    }
    procBoundary1to0
    {
        type            processor;
        value           nonuniform List<scalar> 5(-2.41412e-05 -2.41377e-05 -2.4137e-05 -2.41377e-05 -2.4141e-05);
    }
    procBoundary1to2
    {
        type            processor;
        value           nonuniform List<scalar> 5(-2.1521e-05 -2.1519e-05 -2.15185e-05 -2.15189e-05 -2.15208e-05);
    }
}


// ************************************************************************* //
