/*--------------------------------*- C++ -*----------------------------------*\
| =========                 |                                                 |
| \\      /  F ield         | OpenFOAM: The Open Source CFD Toolbox           |
|  \\    /   O peration     | Version:  2.4.0                                 |
|   \\  /    A nd           | Web:      www.OpenFOAM.org                      |
|    \\/     M anipulation  |                                                 |
\*---------------------------------------------------------------------------*/
FoamFile
{
    version     2.0;
    format      ascii;
    class       volScalarField;
    location    "0.6";
    object      H;
}
// * * * * * * * * * * * * * * * * * * * * * * * * * * * * * * * * * * * * * //

dimensions      [0 2 -2 0 0 0 0];

internalField   nonuniform List<scalar> 
500
(
-11653.9
-11653.9
-11653.9
-11653.9
-11653.9
-10496.8
-10496.9
-10496.9
-10496.9
-10496.8
-9331.76
-9331.8
-9331.8
-9331.8
-9331.76
-8161.26
-8161.31
-8161.31
-8161.31
-8161.26
-6987.02
-6987.07
-6987.06
-6987.07
-6987.01
-5809.36
-5809.4
-5809.4
-5809.4
-5809.36
-4626.95
-4626.98
-4626.98
-4626.98
-4626.95
-3436.65
-3436.66
-3436.66
-3436.66
-3436.65
-2233.6
-2233.58
-2233.58
-2233.58
-2233.6
-257.469
-257.42
-257.424
-257.422
-257.475
-201.988
-201.948
-201.952
-201.95
-201.993
-201.905
-201.867
-201.871
-201.869
-201.91
-201.264
-201.227
-201.231
-201.229
-201.269
-200.073
-200.038
-200.042
-200.04
-200.078
-198.347
-198.314
-198.317
-198.315
-198.351
-196.101
-196.07
-196.073
-196.071
-196.106
-193.357
-193.327
-193.33
-193.329
-193.361
-190.135
-190.108
-190.111
-190.11
-190.14
-186.464
-186.439
-186.441
-186.44
-186.468
-182.37
-182.347
-182.35
-182.348
-182.374
-177.885
-177.865
-177.867
-177.866
-177.889
-173.043
-173.024
-173.027
-173.025
-173.046
-167.878
-167.862
-167.864
-167.862
-167.881
-162.427
-162.413
-162.415
-162.414
-162.43
-156.729
-156.717
-156.719
-156.718
-156.732
-150.823
-150.813
-150.815
-150.814
-150.826
-144.748
-144.741
-144.742
-144.741
-144.751
-138.545
-138.539
-138.541
-138.54
-138.547
-132.253
-132.249
-132.251
-132.25
-132.255
-125.911
-125.909
-125.911
-125.91
-125.913
-119.558
-119.558
-119.559
-119.558
-119.56
-113.231
-113.232
-113.233
-113.232
-113.232
-106.964
-106.966
-106.967
-106.966
-106.965
-100.79
-100.794
-100.794
-100.794
-100.791
-94.7412
-94.7456
-94.7464
-94.7455
-94.7423
-88.8448
-88.8502
-88.8509
-88.85
-88.8458
-83.1266
-83.1327
-83.1333
-83.1325
-83.1275
-77.609
-77.6157
-77.6162
-77.6155
-77.6098
-72.3113
-72.3184
-72.3189
-72.3182
-72.3119
-67.2497
-67.2571
-67.2576
-67.2569
-67.2502
-62.4371
-62.4447
-62.4451
-62.4445
-62.4375
-57.8831
-57.8909
-57.8913
-57.8907
-57.8835
-53.5945
-53.6023
-53.6026
-53.602
-53.5948
-49.5747
-49.5824
-49.5826
-49.5821
-49.5749
-45.8242
-45.8317
-45.832
-45.8315
-45.8245
-42.3411
-42.3483
-42.3485
-42.3481
-42.3413
-39.1206
-39.1276
-39.1278
-39.1274
-39.1208
-36.156
-36.1626
-36.1628
-36.1624
-36.1561
-33.4384
-33.4446
-33.4447
-33.4444
-33.4385
-30.9572
-30.963
-30.9631
-30.9628
-30.9573
-28.7005
-28.7059
-28.706
-28.7057
-28.7006
-26.6553
-26.6602
-26.6603
-26.6601
-26.6553
-24.8075
-24.812
-24.8121
-24.8119
-24.8075
-23.1427
-23.1468
-23.1468
-23.1467
-23.1428
-21.6462
-21.6499
-21.6499
-21.6497
-21.6463
-20.3031
-20.3064
-20.3064
-20.3063
-20.3032
-19.0988
-19.1017
-19.1017
-19.1016
-19.0989
-18.0191
-18.0216
-18.0216
-18.0215
-18.0191
-17.0501
-17.0523
-17.0523
-17.0522
-17.0501
-16.1789
-16.1808
-16.1808
-16.1807
-16.1789
-15.3931
-15.3947
-15.3947
-15.3947
-15.3932
-14.6815
-14.6828
-14.6828
-14.6828
-14.6815
-14.0335
-14.0346
-14.0346
-14.0346
-14.0335
-13.4396
-13.4405
-13.4405
-13.4405
-13.4396
-12.8913
-12.8921
-12.8921
-12.8921
-12.8913
-12.381
-12.3816
-12.3816
-12.3816
-12.381
-11.902
-11.9025
-11.9025
-11.9025
-11.902
-11.4485
-11.4489
-11.4489
-11.4489
-11.4486
-11.0156
-11.016
-11.0159
-11.016
-11.0157
-10.5991
-10.5993
-10.5993
-10.5994
-10.5991
-10.1954
-10.1956
-10.1956
-10.1956
-10.1954
-9.80164
-9.80178
-9.80176
-9.80179
-9.80167
-9.41549
-9.41559
-9.41557
-9.4156
-9.41552
-9.0351
-9.03517
-9.03515
-9.03518
-9.03513
-8.65903
-8.65907
-8.65906
-8.65909
-8.65906
-8.28621
-8.28624
-8.28622
-8.28625
-8.28624
-7.91587
-7.91588
-7.91586
-7.91589
-7.91589
-7.54748
-7.54748
-7.54747
-7.5475
-7.5475
-7.18073
-7.18073
-7.18071
-7.18074
-7.18075
-6.81547
-6.81547
-6.81545
-6.81548
-6.81549
-6.45169
-6.45168
-6.45166
-6.45169
-6.45171
-6.08946
-6.08945
-6.08943
-6.08946
-6.08948
-5.72895
-5.72894
-5.72892
-5.72895
-5.72896
-5.37037
-5.37036
-5.37035
-5.37037
-5.37039
-5.014
-5.01399
-5.01398
-5.014
-5.01401
-4.66011
-4.6601
-4.66009
-4.66011
-4.66012
-4.30901
-4.309
-4.30899
-4.30901
-4.30902
-3.96101
-3.961
-3.961
-3.96101
-3.96102
-3.61644
-3.61643
-3.61643
-3.61644
-3.61645
-3.27561
-3.27561
-3.2756
-3.27561
-3.27562
-2.93885
-2.93884
-2.93884
-2.93885
-2.93886
-2.60646
-2.60645
-2.60645
-2.60646
-2.60647
-2.27876
-2.27876
-2.27876
-2.27876
-2.27877
-1.95608
-1.95608
-1.95607
-1.95608
-1.95608
-1.63872
-1.63872
-1.63872
-1.63872
-1.63873
-1.32702
-1.32702
-1.32702
-1.32702
-1.32703
-1.02131
-1.02131
-1.02131
-1.02131
-1.02131
-0.721942
-0.721941
-0.72194
-0.721942
-0.721944
-0.429279
-0.429278
-0.429278
-0.429279
-0.42928
-0.143707
-0.143707
-0.143707
-0.143707
-0.143708
)
;

boundaryField
{
    BotWall
    {
        type            zeroGradient;
    }
    FreeStream
    {
        type            zeroGradient;
    }
    FrontNBack
    {
        type            empty;
    }
    LeftSide
    {
        type            symmetryPlane;
    }
    RightSide
    {
        type            symmetryPlane;
    }
}


// ************************************************************************* //
