/*--------------------------------*- C++ -*----------------------------------*\
| =========                 |                                                 |
| \\      /  F ield         | OpenFOAM: The Open Source CFD Toolbox           |
|  \\    /   O peration     | Version:  2.4.0                                 |
|   \\  /    A nd           | Web:      www.OpenFOAM.org                      |
|    \\/     M anipulation  |                                                 |
\*---------------------------------------------------------------------------*/
FoamFile
{
    version     2.0;
    format      ascii;
    class       volScalarField;
    location    "0.6";
    object      p;
}
// * * * * * * * * * * * * * * * * * * * * * * * * * * * * * * * * * * * * * //

dimensions      [1 -1 -2 0 0 0 0];

internalField   nonuniform List<scalar> 
500
(
0.261029
0.261028
0.261024
0.261028
0.261028
0.230633
0.230635
0.230631
0.230634
0.230633
0.197069
0.197068
0.197064
0.197068
0.197068
0.165261
0.165264
0.16526
0.165264
0.165261
0.156716
0.156731
0.156727
0.15673
0.156714
0.205991
0.206034
0.206029
0.206033
0.205988
0.215549
0.215579
0.215573
0.215577
0.215543
-0.401048
-0.401202
-0.401195
-0.401198
-0.401039
-2.39656
-2.39715
-2.39709
-2.39712
-2.3965
-3.98156
-3.98263
-3.98253
-3.98258
-3.98144
-0.0184956
-0.0184955
-0.0184955
-0.0184955
-0.0184956
-0.0017145
-0.00171467
-0.00171469
-0.00171467
-0.00171451
-0.00541598
-0.00541579
-0.00541581
-0.00541579
-0.00541599
-0.00736501
-0.00736488
-0.0073649
-0.00736488
-0.00736501
-0.00807118
-0.00807113
-0.00807115
-0.00807113
-0.00807119
-0.00853508
-0.00853504
-0.00853506
-0.00853504
-0.00853508
-0.00906524
-0.00906519
-0.00906521
-0.00906519
-0.00906524
-0.00964878
-0.00964873
-0.00964875
-0.00964873
-0.00964879
-0.0102479
-0.0102479
-0.0102479
-0.0102479
-0.0102479
-0.0108513
-0.0108513
-0.0108513
-0.0108513
-0.0108513
-0.0114596
-0.0114595
-0.0114595
-0.0114595
-0.0114596
-0.0120743
-0.0120742
-0.0120742
-0.0120742
-0.0120743
-0.0126959
-0.0126958
-0.0126959
-0.0126958
-0.0126959
-0.0133246
-0.0133245
-0.0133245
-0.0133245
-0.0133246
-0.0139602
-0.0139602
-0.0139602
-0.0139602
-0.0139602
-0.014603
-0.014603
-0.014603
-0.014603
-0.014603
-0.015253
-0.0152529
-0.0152529
-0.0152529
-0.015253
-0.0159101
-0.0159101
-0.0159101
-0.0159101
-0.0159102
-0.0165747
-0.0165746
-0.0165747
-0.0165746
-0.0165747
-0.0172466
-0.0172466
-0.0172466
-0.0172466
-0.0172466
-0.0179261
-0.017926
-0.017926
-0.017926
-0.0179261
-0.0186131
-0.018613
-0.0186131
-0.018613
-0.0186131
-0.0193078
-0.0193077
-0.0193078
-0.0193077
-0.0193078
-0.0200102
-0.0200102
-0.0200102
-0.0200102
-0.0200102
-0.0207205
-0.0207205
-0.0207205
-0.0207205
-0.0207205
-0.0214387
-0.0214387
-0.0214387
-0.0214387
-0.0214387
-0.0221649
-0.0221649
-0.0221649
-0.0221649
-0.0221649
-0.0228993
-0.0228992
-0.0228992
-0.0228992
-0.0228993
-0.0236418
-0.0236417
-0.0236418
-0.0236417
-0.0236418
-0.0243926
-0.0243925
-0.0243926
-0.0243926
-0.0243926
-0.0251518
-0.0251517
-0.0251518
-0.0251517
-0.0251518
-0.0259194
-0.0259194
-0.0259194
-0.0259194
-0.0259194
-0.0266956
-0.0266956
-0.0266956
-0.0266956
-0.0266957
-0.0274805
-0.0274805
-0.0274805
-0.0274805
-0.0274805
-0.0282742
-0.0282741
-0.0282742
-0.0282741
-0.0282742
-0.0290767
-0.0290766
-0.0290767
-0.0290766
-0.0290767
-0.0298881
-0.0298881
-0.0298881
-0.0298881
-0.0298881
-0.0307086
-0.0307086
-0.0307086
-0.0307086
-0.0307086
-0.0315383
-0.0315383
-0.0315383
-0.0315383
-0.0315383
-0.0323772
-0.0323772
-0.0323772
-0.0323772
-0.0323772
-0.0332255
-0.0332255
-0.0332255
-0.0332255
-0.0332255
-0.0340833
-0.0340832
-0.0340832
-0.0340832
-0.0340833
-0.0349506
-0.0349505
-0.0349506
-0.0349505
-0.0349506
-0.0358276
-0.0358275
-0.0358276
-0.0358275
-0.0358276
-0.0367144
-0.0367143
-0.0367143
-0.0367143
-0.0367144
-0.037611
-0.037611
-0.037611
-0.037611
-0.037611
-0.0385177
-0.0385177
-0.0385177
-0.0385177
-0.0385177
-0.0394345
-0.0394345
-0.0394345
-0.0394345
-0.0394345
-0.0403616
-0.0403615
-0.0403616
-0.0403615
-0.0403616
-0.0412989
-0.0412989
-0.0412989
-0.0412989
-0.041299
-0.0422468
-0.0422468
-0.0422468
-0.0422468
-0.0422468
-0.0432052
-0.0432052
-0.0432052
-0.0432052
-0.0432052
-0.0441743
-0.0441743
-0.0441743
-0.0441743
-0.0441743
-0.0451542
-0.0451542
-0.0451542
-0.0451542
-0.0451542
-0.0461451
-0.0461451
-0.0461451
-0.0461451
-0.0461451
-0.047147
-0.047147
-0.047147
-0.047147
-0.047147
-0.0481601
-0.0481601
-0.0481601
-0.0481601
-0.0481601
-0.0491845
-0.0491845
-0.0491845
-0.0491845
-0.0491845
-0.0502204
-0.0502203
-0.0502204
-0.0502203
-0.0502204
-0.0512678
-0.0512677
-0.0512677
-0.0512677
-0.0512678
-0.0523268
-0.0523268
-0.0523268
-0.0523268
-0.0523268
-0.0533977
-0.0533977
-0.0533977
-0.0533977
-0.0533977
-0.0544806
-0.0544806
-0.0544806
-0.0544806
-0.0544806
-0.0555755
-0.0555755
-0.0555755
-0.0555755
-0.0555755
-0.0566827
-0.0566827
-0.0566827
-0.0566827
-0.0566827
-0.0578022
-0.0578022
-0.0578022
-0.0578022
-0.0578022
-0.0589342
-0.0589342
-0.0589342
-0.0589342
-0.0589342
-0.0600788
-0.0600788
-0.0600788
-0.0600788
-0.0600788
-0.0612362
-0.0612362
-0.0612362
-0.0612362
-0.0612362
-0.0624065
-0.0624065
-0.0624065
-0.0624065
-0.0624065
-0.0635899
-0.0635899
-0.0635899
-0.0635899
-0.0635899
-0.0647865
-0.0647865
-0.0647865
-0.0647865
-0.0647865
-0.0659964
-0.0659964
-0.0659964
-0.0659964
-0.0659964
-0.0672199
-0.0672198
-0.0672199
-0.0672198
-0.0672199
-0.0684569
-0.0684569
-0.0684569
-0.0684569
-0.0684569
-0.0697078
-0.0697078
-0.0697078
-0.0697078
-0.0697078
-0.0709727
-0.0709727
-0.0709727
-0.0709727
-0.0709727
-0.0722517
-0.0722517
-0.0722517
-0.0722517
-0.0722517
-0.0735449
-0.0735449
-0.0735449
-0.0735449
-0.0735449
-0.0748526
-0.0748526
-0.0748526
-0.0748526
-0.0748526
-0.0761748
-0.0761748
-0.0761748
-0.0761748
-0.0761748
-0.0775118
-0.0775118
-0.0775118
-0.0775118
-0.0775118
-0.0788638
-0.0788638
-0.0788638
-0.0788638
-0.0788638
-0.0802308
-0.0802308
-0.0802308
-0.0802308
-0.0802308
-0.0816131
-0.0816131
-0.0816131
-0.0816131
-0.0816131
-0.0830108
-0.0830108
-0.0830108
-0.0830108
-0.0830108
-0.0844241
-0.0844241
-0.0844241
-0.0844241
-0.0844241
-0.0858532
-0.0858532
-0.0858532
-0.0858532
-0.0858532
-0.0872982
-0.0872982
-0.0872982
-0.0872982
-0.0872982
-0.0887593
-0.0887593
-0.0887593
-0.0887593
-0.0887593
)
;

boundaryField
{
    BotWall
    {
        type            calculated;
        value           nonuniform List<scalar> 5(0.275849 0.275849 0.275845 0.275848 0.275849);
    }
    FreeStream
    {
        type            calculated;
        value           nonuniform List<scalar> 5(-0.0894939 -0.0894939 -0.0894939 -0.0894939 -0.0894939);
    }
    FrontNBack
    {
        type            empty;
    }
    LeftSide
    {
        type            symmetryPlane;
    }
    RightSide
    {
        type            symmetryPlane;
    }
}


// ************************************************************************* //
