/*--------------------------------*- C++ -*----------------------------------*\
| =========                 |                                                 |
| \\      /  F ield         | OpenFOAM: The Open Source CFD Toolbox           |
|  \\    /   O peration     | Version:  2.4.0                                 |
|   \\  /    A nd           | Web:      www.OpenFOAM.org                      |
|    \\/     M anipulation  |                                                 |
\*---------------------------------------------------------------------------*/
FoamFile
{
    version     2.0;
    format      ascii;
    class       volScalarField;
    location    "0.6";
    object      p_rgh;
}
// * * * * * * * * * * * * * * * * * * * * * * * * * * * * * * * * * * * * * //

dimensions      [1 -1 -2 0 0 0 0];

internalField   nonuniform List<scalar> 
500
(
0.275849
0.275849
0.275845
0.275848
0.275849
0.27526
0.275261
0.275257
0.275261
0.275259
0.271834
0.271833
0.271829
0.271833
0.271833
0.270501
0.270504
0.2705
0.270503
0.2705
0.29277
0.292785
0.292782
0.292785
0.292769
0.373205
0.373248
0.373242
0.373247
0.373202
0.414269
0.414299
0.414293
0.414297
0.414263
-0.17047
-0.170623
-0.170617
-0.17062
-0.170461
-2.13377
-2.13435
-2.1343
-2.13433
-2.1337
-3.95813
-3.95919
-3.9591
-3.95915
-3.95801
-0.0130577
-0.0130576
-0.0130576
-0.0130576
-0.0130577
0.00427504
0.00427488
0.00427485
0.00427487
0.00427503
0.00113136
0.00113156
0.00113153
0.00113155
0.00113135
-0.000253645
-0.000253518
-0.00025354
-0.000253522
-0.000253653
-0.000389504
-0.000389455
-0.000389477
-0.000389458
-0.000389511
-0.000276721
-0.000276683
-0.000276704
-0.000276686
-0.000276728
-0.000223767
-0.000223717
-0.000223739
-0.00022372
-0.000223775
-0.000217693
-0.000217637
-0.000217658
-0.00021764
-0.0002177
-0.000220632
-0.000220576
-0.000220598
-0.00022058
-0.000220639
-0.000221169
-0.000221115
-0.000221137
-0.000221118
-0.000221176
-0.00021984
-0.000219787
-0.000219809
-0.000219791
-0.000219847
-0.000218144
-0.000218093
-0.000218114
-0.000218096
-0.000218151
-0.000216528
-0.000216478
-0.000216499
-0.000216481
-0.000216535
-0.000214968
-0.000214918
-0.000214939
-0.000214921
-0.000214975
-0.000213404
-0.000213355
-0.000213376
-0.000213358
-0.000213411
-0.000211818
-0.00021177
-0.000211791
-0.000211773
-0.000211825
-0.000210212
-0.000210165
-0.000210186
-0.000210168
-0.000210219
-0.000208588
-0.000208541
-0.000208562
-0.000208544
-0.000208594
-0.000206945
-0.0002069
-0.00020692
-0.000206902
-0.000206952
-0.000205285
-0.00020524
-0.00020526
-0.000205242
-0.000205291
-0.000203605
-0.000203561
-0.000203582
-0.000203564
-0.000203611
-0.000201907
-0.000201864
-0.000201884
-0.000201867
-0.000201913
-0.00020019
-0.000200148
-0.000200168
-0.000200151
-0.000200196
-0.000198454
-0.000198413
-0.000198432
-0.000198415
-0.00019846
-0.000196699
-0.000196658
-0.000196678
-0.00019666
-0.000196704
-0.000194924
-0.000194884
-0.000194903
-0.000194886
-0.000194929
-0.000193129
-0.000193089
-0.000193109
-0.000193092
-0.000193134
-0.000191314
-0.000191275
-0.000191295
-0.000191278
-0.000191319
-0.000189479
-0.000189441
-0.00018946
-0.000189443
-0.000189484
-0.000187623
-0.000187586
-0.000187605
-0.000187588
-0.000187628
-0.000185747
-0.00018571
-0.000185729
-0.000185713
-0.000185752
-0.000183849
-0.000183814
-0.000183832
-0.000183816
-0.000183854
-0.000181931
-0.000181896
-0.000181914
-0.000181898
-0.000181936
-0.000179991
-0.000179957
-0.000179975
-0.000179959
-0.000179996
-0.000178029
-0.000177996
-0.000178014
-0.000177998
-0.000178034
-0.000176046
-0.000176013
-0.000176031
-0.000176016
-0.00017605
-0.00017404
-0.000174009
-0.000174026
-0.000174011
-0.000174045
-0.000172012
-0.000171981
-0.000171999
-0.000171983
-0.000172017
-0.000169962
-0.000169931
-0.000169949
-0.000169933
-0.000169966
-0.000167888
-0.000167859
-0.000167876
-0.000167861
-0.000167893
-0.000165792
-0.000165763
-0.000165779
-0.000165765
-0.000165796
-0.000163672
-0.000163644
-0.00016366
-0.000163645
-0.000163676
-0.000161528
-0.000161501
-0.000161517
-0.000161502
-0.000161532
-0.000159361
-0.000159334
-0.00015935
-0.000159336
-0.000159365
-0.000157169
-0.000157143
-0.000157158
-0.000157144
-0.000157173
-0.000154953
-0.000154927
-0.000154943
-0.000154929
-0.000154956
-0.000152712
-0.000152687
-0.000152702
-0.000152689
-0.000152715
-0.000150446
-0.000150422
-0.000150437
-0.000150423
-0.000150449
-0.000148155
-0.000148131
-0.000148146
-0.000148133
-0.000148158
-0.000145838
-0.000145815
-0.000145829
-0.000145817
-0.000145841
-0.000143496
-0.000143473
-0.000143487
-0.000143475
-0.000143499
-0.000141127
-0.000141105
-0.000141119
-0.000141106
-0.00014113
-0.000138732
-0.00013871
-0.000138724
-0.000138712
-0.000138735
-0.00013631
-0.000136289
-0.000136302
-0.000136291
-0.000136313
-0.000133861
-0.000133841
-0.000133854
-0.000133842
-0.000133864
-0.000131385
-0.000131365
-0.000131378
-0.000131367
-0.000131387
-0.000128881
-0.000128862
-0.000128874
-0.000128863
-0.000128884
-0.000126349
-0.000126331
-0.000126343
-0.000126332
-0.000126352
-0.000123789
-0.000123771
-0.000123783
-0.000123773
-0.000123792
-0.000121201
-0.000121183
-0.000121195
-0.000121185
-0.000121203
-0.000118583
-0.000118567
-0.000118578
-0.000118568
-0.000118585
-0.000115936
-0.000115921
-0.000115931
-0.000115922
-0.000115939
-0.00011326
-0.000113245
-0.000113255
-0.000113246
-0.000113262
-0.000110554
-0.00011054
-0.00011055
-0.000110541
-0.000110556
-0.000107818
-0.000107804
-0.000107814
-0.000107805
-0.00010782
-0.000105051
-0.000105038
-0.000105047
-0.000105039
-0.000105053
-0.000102254
-0.000102241
-0.00010225
-0.000102242
-0.000102256
-9.9425e-05
-9.94125e-05
-9.94211e-05
-9.94133e-05
-9.94267e-05
-9.65646e-05
-9.65527e-05
-9.65609e-05
-9.65535e-05
-9.65663e-05
-9.36724e-05
-9.3661e-05
-9.36689e-05
-9.36617e-05
-9.36739e-05
-9.07479e-05
-9.0737e-05
-9.07445e-05
-9.07377e-05
-9.07493e-05
-8.77907e-05
-8.77804e-05
-8.77876e-05
-8.77811e-05
-8.77921e-05
-8.48006e-05
-8.47908e-05
-8.47976e-05
-8.47915e-05
-8.48019e-05
-8.17771e-05
-8.17679e-05
-8.17743e-05
-8.17685e-05
-8.17783e-05
-7.87199e-05
-7.87112e-05
-7.87172e-05
-7.87118e-05
-7.8721e-05
-7.56286e-05
-7.56204e-05
-7.56261e-05
-7.5621e-05
-7.56296e-05
-7.25028e-05
-7.24952e-05
-7.25004e-05
-7.24957e-05
-7.25038e-05
-6.93422e-05
-6.93351e-05
-6.93399e-05
-6.93355e-05
-6.9343e-05
-6.61462e-05
-6.61397e-05
-6.61442e-05
-6.61401e-05
-6.6147e-05
-6.29147e-05
-6.29087e-05
-6.29127e-05
-6.2909e-05
-6.29154e-05
-5.96471e-05
-5.96416e-05
-5.96453e-05
-5.96419e-05
-5.96477e-05
-5.6343e-05
-5.63381e-05
-5.63413e-05
-5.63384e-05
-5.63435e-05
-5.30021e-05
-5.29977e-05
-5.30006e-05
-5.2998e-05
-5.30025e-05
-4.96239e-05
-4.96201e-05
-4.96225e-05
-4.96203e-05
-4.96243e-05
-4.6208e-05
-4.62048e-05
-4.62068e-05
-4.62049e-05
-4.62083e-05
-4.27541e-05
-4.27514e-05
-4.2753e-05
-4.27515e-05
-4.27543e-05
-3.92618e-05
-3.92597e-05
-3.92608e-05
-3.92597e-05
-3.92619e-05
-3.57304e-05
-3.57289e-05
-3.57296e-05
-3.57289e-05
-3.57304e-05
-3.2159e-05
-3.2158e-05
-3.21583e-05
-3.2158e-05
-3.21589e-05
-2.85427e-05
-2.85424e-05
-2.85422e-05
-2.85423e-05
-2.85425e-05
)
;

boundaryField
{
    BotWall
    {
        type            fixedFluxPressure;
        gradient        uniform 0;
        value           nonuniform List<scalar> 5(0.275849 0.275849 0.275845 0.275848 0.275849);
    }
    FreeStream
    {
        type            totalPressure;
        rho             rho;
        psi             none;
        gamma           1;
        p0              uniform 0;
        value           nonuniform List<scalar> 5(-2.67228e-05 -2.6723e-05 -2.67227e-05 -2.67229e-05 -2.67226e-05);
    }
    FrontNBack
    {
        type            empty;
    }
    LeftSide
    {
        type            symmetryPlane;
    }
    RightSide
    {
        type            symmetryPlane;
    }
}


// ************************************************************************* //
