/*--------------------------------*- C++ -*----------------------------------*\
| =========                 |                                                 |
| \\      /  F ield         | OpenFOAM: The Open Source CFD Toolbox           |
|  \\    /   O peration     | Version:  2.4.0                                 |
|   \\  /    A nd           | Web:      www.OpenFOAM.org                      |
|    \\/     M anipulation  |                                                 |
\*---------------------------------------------------------------------------*/
FoamFile
{
    version     2.0;
    format      ascii;
    class       surfaceScalarField;
    location    "0.6";
    object      phi;
}
// * * * * * * * * * * * * * * * * * * * * * * * * * * * * * * * * * * * * * //

dimensions      [0 3 -1 0 0 0 0];

internalField   nonuniform List<scalar> 
895
(
7.28568e-19
-7.29415e-19
3.37974e-19
3.90044e-19
-4.09659e-19
7.47372e-19
-7.97104e-19
3.86894e-19
-7.97394e-19
2.20699e-18
-2.93641e-18
1.02148e-18
1.57556e-18
-1.24022e-18
3.00907e-18
-2.41591e-18
1.56259e-18
-3.21331e-18
3.75406e-18
-6.69046e-18
1.73435e-18
3.59526e-18
-2.10552e-18
6.84894e-18
-4.10856e-18
3.56563e-18
-7.32186e-18
5.32667e-18
-1.20171e-17
2.45854e-18
6.46339e-18
-2.98763e-18
1.22951e-17
-5.83253e-18
6.41054e-18
-1.31544e-17
6.97964e-18
-1.89968e-17
3.2229e-18
1.02201e-17
-3.9156e-18
1.94336e-17
-7.64177e-18
1.01367e-17
-2.07962e-17
8.6546e-18
-2.76514e-17
4.00223e-18
1.48725e-17
-4.86435e-18
2.83002e-17
-9.47817e-18
1.47505e-17
-3.02743e-17
1.04636e-17
-3.8115e-17
4.83134e-18
2.05048e-17
-5.87e-18
3.90015e-17
-1.14551e-17
2.03356e-17
-4.17294e-17
1.23959e-17
-5.05109e-17
5.61979e-18
2.72809e-17
-6.84345e-18
5.14648e-17
-1.35673e-17
2.70595e-17
-5.52968e-17
1.45735e-17
-8.28203e-16
6.31164e-18
3.55387e-17
-7.71815e-18
6.54606e-17
-1.59416e-17
3.52696e-17
-9.06646e-16
1.83366e-17
-4.84197e-10
6.52104e-18
-4.84209e-10
-8.13216e-18
-4.84208e-10
-2.0016e-17
-4.84209e-10
-4.84195e-10
1.76227e-17
-4.84197e-10
8.08008e-18
-4.84209e-10
-9.83011e-18
-4.84208e-10
-1.93054e-17
-4.84209e-10
-4.84195e-10
1.10037e-17
-4.84197e-10
3.91553e-18
-4.84209e-10
-4.11535e-18
-4.84208e-10
-1.15489e-17
-4.84209e-10
-4.84195e-10
-3.07593e-18
-4.84197e-10
5.2953e-19
-4.84209e-10
6.16113e-19
-4.84208e-10
3.46245e-18
-4.84209e-10
-4.84195e-10
-9.492e-18
-4.84197e-10
-3.18475e-18
-4.84209e-10
5.5175e-18
-4.84208e-10
1.06646e-17
-4.84209e-10
-4.84195e-10
-1.36147e-17
-4.84197e-10
-6.02127e-18
-4.84209e-10
9.39082e-18
-4.84208e-10
1.54539e-17
-4.84209e-10
-4.84195e-10
-1.727e-17
-4.84197e-10
-8.02166e-18
-4.84209e-10
1.22816e-17
-4.84208e-10
1.96595e-17
-4.84209e-10
-4.84195e-10
-2.00842e-17
-4.84197e-10
-9.43905e-18
-4.84209e-10
1.44416e-17
-4.84208e-10
2.29037e-17
-4.84209e-10
-4.84195e-10
-2.15478e-17
-4.84197e-10
-1.033e-17
-4.84209e-10
1.59274e-17
-4.84208e-10
2.46764e-17
-4.84209e-10
-4.84195e-10
-2.1588e-17
-4.84197e-10
-1.06625e-17
-4.84209e-10
1.67096e-17
-4.84208e-10
2.49074e-17
-4.84209e-10
-4.84195e-10
-2.03051e-17
-4.84197e-10
-1.0424e-17
-4.84209e-10
1.67802e-17
-4.84208e-10
2.37009e-17
-4.84209e-10
-4.84195e-10
-1.77929e-17
-4.84197e-10
-9.63254e-18
-4.84209e-10
1.61635e-17
-4.84208e-10
2.11563e-17
-4.84209e-10
-4.84195e-10
-1.41241e-17
-4.84197e-10
-8.31873e-18
-4.84209e-10
1.48983e-17
-4.84208e-10
1.73531e-17
-4.84209e-10
-4.84195e-10
-9.37524e-18
-4.84197e-10
-6.51728e-18
-4.84209e-10
1.30288e-17
-4.84208e-10
1.2376e-17
-4.84209e-10
-4.84195e-10
-3.63723e-18
-4.84197e-10
-4.26637e-18
-4.84209e-10
1.06044e-17
-4.84208e-10
6.32523e-18
-4.84209e-10
-4.84195e-10
2.98613e-18
-4.84197e-10
-1.60855e-18
-4.84209e-10
7.67982e-18
-4.84208e-10
-6.85139e-19
-4.84209e-10
-4.84195e-10
1.03814e-17
-4.84197e-10
1.40938e-18
-4.84209e-10
4.31534e-18
-4.84208e-10
-8.53051e-18
-4.84209e-10
-4.84195e-10
1.84282e-17
-4.84197e-10
4.73708e-18
-4.84209e-10
5.75403e-19
-4.84208e-10
-1.70786e-17
-4.84209e-10
-4.84195e-10
2.70007e-17
-4.84197e-10
8.32157e-18
-4.84209e-10
-3.47233e-18
-4.84208e-10
-2.61913e-17
-4.84209e-10
-4.84195e-10
3.59699e-17
-4.84197e-10
1.21081e-17
-4.84209e-10
-7.75812e-18
-4.84208e-10
-3.57271e-17
-4.84208e-10
-4.84195e-10
4.52055e-17
-4.84197e-10
1.60411e-17
-4.84209e-10
-1.22114e-17
-4.84208e-10
-4.55433e-17
-4.84208e-10
-4.84195e-10
5.45781e-17
-4.84197e-10
2.00649e-17
-4.84209e-10
-1.67619e-17
-4.84208e-10
-5.54981e-17
-4.84208e-10
-4.84195e-10
6.39615e-17
-4.84197e-10
2.41249e-17
-4.84209e-10
-2.13408e-17
-4.84208e-10
-6.54534e-17
-4.84208e-10
-4.84196e-10
7.32345e-17
-4.84197e-10
2.81682e-17
-4.84209e-10
-2.5882e-17
-4.84208e-10
-7.52768e-17
-4.84208e-10
-4.84196e-10
8.2283e-17
-4.84197e-10
3.21448e-17
-4.84209e-10
-3.0323e-17
-4.84208e-10
-8.4844e-17
-4.84208e-10
-4.84196e-10
9.10018e-17
-4.84197e-10
3.60077e-17
-4.84209e-10
-3.46061e-17
-4.84208e-10
-9.40404e-17
-4.84208e-10
-4.84196e-10
9.92961e-17
-4.84197e-10
3.97145e-17
-4.84209e-10
-3.86792e-17
-4.84208e-10
-1.02763e-16
-4.84208e-10
-4.84196e-10
1.07083e-16
-4.84197e-10
4.32273e-17
-4.84209e-10
-4.24966e-17
-4.84208e-10
-1.10922e-16
-4.84208e-10
-4.84196e-10
1.14292e-16
-4.84197e-10
4.65134e-17
-4.84209e-10
-4.60195e-17
-4.84208e-10
-1.18442e-16
-4.84208e-10
-4.84196e-10
1.20866e-16
-4.84198e-10
4.95459e-17
-4.84209e-10
-4.92163e-17
-4.84207e-10
-1.25261e-16
-4.84208e-10
-4.84196e-10
1.26762e-16
-4.84198e-10
5.23036e-17
-4.84208e-10
-5.20634e-17
-4.84207e-10
-1.31336e-16
-4.84208e-10
-4.84196e-10
1.31953e-16
-4.84198e-10
5.47712e-17
-4.84208e-10
-5.45447e-17
-4.84207e-10
-1.36635e-16
-4.84208e-10
-4.84197e-10
1.36422e-16
-4.84198e-10
5.69392e-17
-4.84208e-10
-5.66515e-17
-4.84207e-10
-1.41144e-16
-4.84208e-10
-4.84197e-10
1.40167e-16
-4.84198e-10
5.8804e-17
-4.84208e-10
-5.83826e-17
-4.84207e-10
-1.44863e-16
-4.84208e-10
-4.84197e-10
1.432e-16
-4.84198e-10
6.03672e-17
-4.84208e-10
-5.97437e-17
-4.84207e-10
-1.47806e-16
-4.84208e-10
-4.84197e-10
1.45542e-16
-4.84198e-10
6.16354e-17
-4.84208e-10
-6.07465e-17
-4.84207e-10
-1.49997e-16
-4.84207e-10
-4.84197e-10
1.47224e-16
-4.84199e-10
6.26198e-17
-4.84208e-10
-6.14084e-17
-4.84207e-10
-1.51474e-16
-4.84207e-10
-4.84197e-10
1.48286e-16
-4.84199e-10
6.33352e-17
-4.84208e-10
-6.17513e-17
-4.84207e-10
-1.52282e-16
-4.84207e-10
-4.84197e-10
1.48776e-16
-4.84199e-10
6.37999e-17
-4.84208e-10
-6.18012e-17
-4.84206e-10
-1.52474e-16
-4.84207e-10
-4.84198e-10
1.48744e-16
-4.84199e-10
6.40344e-17
-4.84208e-10
-6.15867e-17
-4.84206e-10
-1.52109e-16
-4.84207e-10
-4.84198e-10
1.48248e-16
-4.84199e-10
6.40613e-17
-4.84208e-10
-6.11386e-17
-4.84206e-10
-1.51248e-16
-4.84207e-10
-4.84198e-10
1.47343e-16
-4.84199e-10
6.39042e-17
-4.84208e-10
-6.04884e-17
-4.84206e-10
-1.49955e-16
-4.84207e-10
-4.84198e-10
1.46088e-16
-4.84199e-10
6.3587e-17
-4.84207e-10
-5.96682e-17
-4.84206e-10
-1.48295e-16
-4.84207e-10
-4.84198e-10
1.44539e-16
-4.842e-10
6.31337e-17
-4.84207e-10
-5.87091e-17
-4.84206e-10
-1.46331e-16
-4.84207e-10
-4.84198e-10
1.42749e-16
-4.842e-10
6.25674e-17
-4.84207e-10
-5.7641e-17
-4.84206e-10
-1.4412e-16
-4.84207e-10
-4.84198e-10
1.40769e-16
-4.842e-10
6.19099e-17
-4.84207e-10
-5.64918e-17
-4.84206e-10
-1.4172e-16
-4.84207e-10
-4.84199e-10
1.38646e-16
-4.842e-10
6.11817e-17
-4.84207e-10
-5.52872e-17
-4.84205e-10
-1.39181e-16
-4.84206e-10
-4.84199e-10
1.36419e-16
-4.842e-10
6.04009e-17
-4.84207e-10
-5.40497e-17
-4.84205e-10
-1.36547e-16
-4.84206e-10
-4.84199e-10
1.34126e-16
-4.842e-10
5.95839e-17
-4.84207e-10
-5.27991e-17
-4.84205e-10
-1.33857e-16
-4.84206e-10
-4.84199e-10
1.31795e-16
-4.842e-10
5.87446e-17
-4.84207e-10
-5.15518e-17
-4.84205e-10
-1.31145e-16
-4.84206e-10
-4.84199e-10
1.29452e-16
-4.84201e-10
5.78945e-17
-4.84207e-10
-5.0321e-17
-4.84205e-10
-1.28436e-16
-4.84206e-10
-4.84199e-10
1.27115e-16
-4.84201e-10
5.70429e-17
-4.84207e-10
-4.91168e-17
-4.84205e-10
-1.25749e-16
-4.84206e-10
-4.84199e-10
1.24797e-16
-4.84201e-10
5.61968e-17
-4.84207e-10
-4.79465e-17
-4.84205e-10
-1.231e-16
-4.84206e-10
-4.842e-10
1.22507e-16
-4.84201e-10
5.5361e-17
-4.84207e-10
-4.68141e-17
-4.84205e-10
-1.20496e-16
-4.84206e-10
-4.842e-10
1.2025e-16
-4.84201e-10
5.45387e-17
-4.84207e-10
-4.57217e-17
-4.84205e-10
-1.17942e-16
-4.84206e-10
-4.842e-10
1.18025e-16
-4.84201e-10
5.3731e-17
-4.84206e-10
-4.46686e-17
-4.84204e-10
-1.15436e-16
-4.84206e-10
-4.842e-10
1.15829e-16
-4.84201e-10
5.29377e-17
-4.84206e-10
-4.36524e-17
-4.84204e-10
-1.12974e-16
-4.84206e-10
-4.842e-10
1.13657e-16
-4.84201e-10
5.21572e-17
-4.84206e-10
-4.2669e-17
-4.84204e-10
-1.10549e-16
-4.84206e-10
-4.842e-10
1.11499e-16
-4.84201e-10
5.1387e-17
-4.84206e-10
-4.17129e-17
-4.84204e-10
-1.0815e-16
-4.84206e-10
-4.842e-10
1.09346e-16
-4.84202e-10
5.06235e-17
-4.84206e-10
-4.07776e-17
-4.84204e-10
-1.05765e-16
-4.84205e-10
-4.842e-10
1.07186e-16
-4.84202e-10
4.98625e-17
-4.84206e-10
-3.98553e-17
-4.84204e-10
-1.0338e-16
-4.84205e-10
-4.842e-10
1.05005e-16
-4.84202e-10
4.90995e-17
-4.84206e-10
-3.89381e-17
-4.84204e-10
-1.0098e-16
-4.84205e-10
-4.84201e-10
1.02791e-16
-4.84202e-10
4.83294e-17
-4.84206e-10
-3.80172e-17
-4.84204e-10
-9.85491e-17
-4.84205e-10
-4.84201e-10
1.00529e-16
-4.84202e-10
4.75471e-17
-4.84206e-10
-3.70838e-17
-4.84204e-10
-9.60702e-17
-4.84205e-10
-4.84201e-10
9.82054e-17
-4.84202e-10
4.67472e-17
-4.84206e-10
-3.61287e-17
-4.84204e-10
-9.35272e-17
-4.84205e-10
-4.84201e-10
9.58063e-17
-4.84202e-10
4.59246e-17
-4.84206e-10
-3.5143e-17
-4.84204e-10
-9.09037e-17
-4.84205e-10
-4.84201e-10
9.33189e-17
-4.84202e-10
4.50744e-17
-4.84206e-10
-3.41181e-17
-4.84203e-10
-8.81844e-17
-4.84205e-10
-4.84201e-10
9.07315e-17
-4.84202e-10
4.4192e-17
-4.84206e-10
-3.30457e-17
-4.84203e-10
-8.5355e-17
-4.84205e-10
-4.84201e-10
8.8034e-17
-4.84202e-10
4.32733e-17
-4.84206e-10
-3.19185e-17
-4.84203e-10
-8.24033e-17
-4.84205e-10
-4.84201e-10
8.52189e-17
-4.84203e-10
4.23151e-17
-4.84206e-10
-3.07301e-17
-4.84203e-10
-7.93198e-17
-4.84205e-10
-4.84201e-10
8.22818e-17
-4.84203e-10
4.1315e-17
-4.84206e-10
-2.94757e-17
-4.84203e-10
-7.60984e-17
-4.84205e-10
-4.84201e-10
7.92223e-17
-4.84203e-10
4.02721e-17
-4.84206e-10
-2.81525e-17
-4.84203e-10
-7.27376e-17
-4.84205e-10
-4.84201e-10
7.60452e-17
-4.84203e-10
3.91866e-17
-4.84206e-10
-2.67599e-17
-4.84203e-10
-6.92417e-17
-4.84205e-10
-4.84201e-10
7.27611e-17
-4.84203e-10
3.80609e-17
-4.84206e-10
-2.53005e-17
-4.84203e-10
-6.56218e-17
-4.84205e-10
-4.84202e-10
6.93878e-17
-4.84203e-10
3.68992e-17
-4.84206e-10
-2.378e-17
-4.84203e-10
-6.18971e-17
-4.84205e-10
-4.84202e-10
6.59509e-17
-4.84203e-10
3.57083e-17
-4.84206e-10
-2.22083e-17
-4.84203e-10
-5.80955e-17
-4.84205e-10
-4.84202e-10
6.24844e-17
-4.84203e-10
3.44975e-17
-4.84205e-10
-2.0599e-17
-4.84203e-10
-5.42547e-17
-4.84205e-10
-4.84202e-10
5.9031e-17
-4.84203e-10
3.32786e-17
-4.84205e-10
-1.89706e-17
-4.84203e-10
-5.04224e-17
-4.84205e-10
-4.84202e-10
5.5642e-17
-4.84203e-10
3.20665e-17
-4.84205e-10
-1.73454e-17
-4.84203e-10
-4.66559e-17
-4.84205e-10
-4.84202e-10
5.23757e-17
-4.84203e-10
3.0878e-17
-4.84205e-10
-1.57497e-17
-4.84203e-10
-4.30206e-17
-4.84205e-10
-4.84202e-10
4.9296e-17
-4.84203e-10
2.97324e-17
-4.84205e-10
-1.42126e-17
-4.84203e-10
-3.95882e-17
-4.84205e-10
-4.84202e-10
4.64696e-17
-4.84203e-10
2.86501e-17
-4.84205e-10
-1.2765e-17
-4.84203e-10
-3.64334e-17
-4.84204e-10
-4.84202e-10
4.39619e-17
-4.84203e-10
2.76522e-17
-4.84205e-10
-1.14373e-17
-4.84203e-10
-3.36292e-17
-4.84204e-10
-4.84202e-10
4.18326e-17
-4.84203e-10
2.67587e-17
-4.84205e-10
-1.0258e-17
-4.84203e-10
-3.12416e-17
-4.84204e-10
-4.84202e-10
4.01299e-17
-4.84203e-10
2.59876e-17
-4.84205e-10
-9.25018e-18
-4.84202e-10
-2.93234e-17
-4.84204e-10
-4.84202e-10
3.8885e-17
-4.84203e-10
2.53531e-17
-4.84205e-10
-8.42937e-18
-4.84202e-10
-2.79072e-17
-4.84204e-10
-4.84202e-10
3.81058e-17
-4.84204e-10
2.48641e-17
-4.84205e-10
-7.80039e-18
-4.84202e-10
-2.69984e-17
-4.84204e-10
-4.84202e-10
3.77714e-17
-4.84204e-10
2.45224e-17
-4.84205e-10
-7.35496e-18
-4.84202e-10
-2.65693e-17
-4.84204e-10
-4.84202e-10
3.78298e-17
-4.84204e-10
2.43225e-17
-4.84205e-10
-7.07042e-18
-4.84202e-10
-2.65558e-17
-4.84204e-10
-4.84202e-10
3.82008e-17
-4.84204e-10
2.42515e-17
-4.84205e-10
-6.90917e-18
-4.84202e-10
-2.68598e-17
-4.84204e-10
-4.84202e-10
3.87546e-17
2.42779e-17
-6.81158e-18
-2.73298e-17
)
;

boundaryField
{
    BotWall
    {
        type            calculated;
        value           nonuniform List<scalar> 5(1.49723e-23 -3.3458e-23 -5.01786e-23 -3.32831e-23 4.46814e-23);
    }
    FreeStream
    {
        type            calculated;
        value           nonuniform List<scalar> 5(-4.84204e-10 -4.84205e-10 -4.84202e-10 -4.84204e-10 -4.84202e-10);
    }
    FrontNBack
    {
        type            empty;
        value           nonuniform 0();
    }
    LeftSide
    {
        type            symmetryPlane;
        value           uniform 0;
    }
    RightSide
    {
        type            symmetryPlane;
        value           uniform 0;
    }
}


// ************************************************************************* //
