/*--------------------------------*- C++ -*----------------------------------*\
| =========                 |                                                 |
| \\      /  F ield         | OpenFOAM: The Open Source CFD Toolbox           |
|  \\    /   O peration     | Version:  2.4.0                                 |
|   \\  /    A nd           | Web:      www.OpenFOAM.org                      |
|    \\/     M anipulation  |                                                 |
\*---------------------------------------------------------------------------*/
FoamFile
{
    version     2.0;
    format      ascii;
    class       volVectorField;
    location    "0.6";
    object      U;
}
// * * * * * * * * * * * * * * * * * * * * * * * * * * * * * * * * * * * * * //

dimensions      [0 1 -1 0 0 0 0];

internalField   nonuniform List<vector> 
500
(
(2.74868e-10 -1.55621e-09 0)
(2.56388e-10 -1.59323e-09 0)
(-1.08938e-11 -1.59287e-09 0)
(-2.86859e-10 -1.59328e-09 0)
(-2.94368e-10 -1.55642e-09 0)
(8.24276e-10 2.36892e-08 0)
(7.67591e-10 2.38021e-08 0)
(-3.28811e-11 2.38053e-08 0)
(-8.5949e-10 2.3802e-08 0)
(-8.83061e-10 2.36882e-08 0)
(1.38668e-09 -6.95561e-08 0)
(1.2901e-09 -6.97309e-08 0)
(-5.518e-11 -6.97187e-08 0)
(-1.44431e-09 -6.97306e-08 0)
(-1.48532e-09 -6.95573e-08 0)
(1.94764e-09 -1.29264e-07 0)
(1.80915e-09 -1.29045e-07 0)
(-7.7796e-11 -1.2902e-07 0)
(-2.02662e-09 -1.29043e-07 0)
(-2.08679e-09 -1.29264e-07 0)
(2.52708e-09 -1.91414e-07 0)
(2.34436e-09 -1.91569e-07 0)
(-1.00726e-10 -1.91528e-07 0)
(-2.62591e-09 -1.91568e-07 0)
(-2.70725e-09 -1.91416e-07 0)
(3.10508e-09 1.12544e-06 0)
(2.87573e-09 1.12658e-06 0)
(-1.2396e-10 1.12662e-06 0)
(-3.22222e-09 1.12657e-06 0)
(-3.32684e-09 1.1254e-06 0)
(3.71229e-09 4.48521e-06 0)
(3.43344e-09 4.48672e-06 0)
(-1.47663e-10 4.4867e-06 0)
(-3.84618e-09 4.48668e-06 0)
(-3.9765e-09 4.48506e-06 0)
(4.32424e-09 2.69898e-06 0)
(3.99052e-09 2.70018e-06 0)
(-1.72084e-10 2.70021e-06 0)
(-4.47169e-09 2.70014e-06 0)
(-4.63237e-09 2.69885e-06 0)
(4.93481e-09 -2.15088e-05 0)
(4.54753e-09 -2.1515e-05 0)
(-1.96064e-10 -2.15144e-05 0)
(-5.09676e-09 -2.15148e-05 0)
(-5.28699e-09 -2.15083e-05 0)
(5.6787e-09 -0.00016725 0)
(5.22526e-09 -0.000167291 0)
(-2.25062e-10 -0.000167287 0)
(-5.85947e-09 -0.000167289 0)
(-6.08686e-09 -0.000167245 0)
(5.98975e-09 -0.00202327 0)
(5.50748e-09 -0.00202329 0)
(-2.36961e-10 -0.00202329 0)
(-6.17524e-09 -0.00202329 0)
(-6.41955e-09 -0.00202327 0)
(3.35748e-09 -0.0045322 0)
(2.79852e-09 -0.00453229 0)
(2.58763e-11 -0.00453228 0)
(-2.97587e-09 -0.00453229 0)
(-3.55298e-09 -0.00453219 0)
(3.71444e-11 -0.00244461 0)
(-7.26219e-10 -0.00244473 0)
(2.52404e-10 -0.00244472 0)
(9.57058e-10 -0.00244473 0)
(-4.43725e-11 -0.0024446 0)
(-2.03224e-09 -0.00229113 0)
(-3.06999e-09 -0.00229119 0)
(4.50074e-10 -0.00229119 0)
(3.64533e-09 -0.00229119 0)
(2.17834e-09 -0.00229113 0)
(-3.36283e-09 -0.00236193 0)
(-4.74132e-09 -0.00236198 0)
(6.21493e-10 -0.00236197 0)
(5.60397e-09 -0.00236198 0)
(3.6312e-09 -0.00236193 0)
(-4.27488e-09 -0.00241827 0)
(-6.05346e-09 -0.00241833 0)
(7.6786e-10 -0.00241832 0)
(7.14961e-09 -0.00241833 0)
(4.6366e-09 -0.00241827 0)
(-4.80175e-09 -0.00242675 0)
(-7.03532e-09 -0.00242681 0)
(8.89603e-10 -0.0024268 0)
(8.31225e-09 -0.00242681 0)
(5.22855e-09 -0.00242674 0)
(-4.89825e-09 -0.00242331 0)
(-7.63637e-09 -0.00242338 0)
(9.87439e-10 -0.00242337 0)
(9.04303e-09 -0.00242337 0)
(5.3628e-09 -0.00242331 0)
(-4.56153e-09 -0.00242109 0)
(-7.84761e-09 -0.00242115 0)
(1.06243e-09 -0.00242115 0)
(9.33543e-09 -0.00242115 0)
(5.03787e-09 -0.00242108 0)
(-3.82115e-09 -0.00242074 0)
(-7.69193e-09 -0.00242081 0)
(1.1159e-09 -0.0024208 0)
(9.21538e-09 -0.0024208 0)
(4.28503e-09 -0.00242074 0)
(-2.71419e-09 -0.00242089 0)
(-7.19932e-09 -0.00242095 0)
(1.14938e-09 -0.00242095 0)
(8.71642e-09 -0.00242095 0)
(3.14332e-09 -0.00242088 0)
(-1.27756e-09 -0.00242098 0)
(-6.39935e-09 -0.00242104 0)
(1.16457e-09 -0.00242104 0)
(7.87199e-09 -0.00242104 0)
(1.65181e-09 -0.00242097 0)
(4.51028e-10 -0.00242099 0)
(-5.32216e-09 -0.00242106 0)
(1.16333e-09 -0.00242105 0)
(6.7165e-09 -0.00242105 0)
(-1.49418e-10 -0.00242099 0)
(2.43188e-09 -0.00242099 0)
(-3.99983e-09 -0.00242105 0)
(1.14764e-09 -0.00242104 0)
(5.2865e-09 -0.00242105 0)
(-2.2182e-09 -0.00242098 0)
(4.62352e-09 -0.00242098 0)
(-2.46625e-09 -0.00242105 0)
(1.11956e-09 -0.00242104 0)
(3.62059e-09 -0.00242104 0)
(-4.51045e-09 -0.00242098 0)
(6.98342e-09 -0.00242098 0)
(-7.56528e-10 -0.00242104 0)
(1.08122e-09 -0.00242104 0)
(1.75869e-09 -0.00242104 0)
(-6.98098e-09 -0.00242098 0)
(9.46871e-09 -0.00242098 0)
(1.09365e-09 -0.00242105 0)
(1.03475e-09 -0.00242104 0)
(-2.58658e-10 -0.00242104 0)
(-9.58424e-09 -0.00242098 0)
(1.20369e-08 -0.00242098 0)
(3.04854e-09 -0.00242105 0)
(9.82284e-10 -0.00242104 0)
(-2.39092e-09 -0.00242104 0)
(-1.22751e-08 -0.00242098 0)
(1.46465e-08 -0.00242098 0)
(5.07293e-09 -0.00242105 0)
(9.25885e-10 -0.00242104 0)
(-4.59818e-09 -0.00242104 0)
(-1.50094e-08 -0.00242098 0)
(1.72574e-08 -0.00242098 0)
(7.13259e-09 -0.00242105 0)
(8.67535e-10 -0.00242104 0)
(-6.84171e-09 -0.00242104 0)
(-1.77447e-08 -0.00242098 0)
(1.98321e-08 -0.00242098 0)
(9.19477e-09 -0.00242104 0)
(8.09098e-10 -0.00242104 0)
(-9.08458e-09 -0.00242104 0)
(-2.04409e-08 -0.00242098 0)
(2.23352e-08 -0.00242098 0)
(1.12287e-08 -0.00242104 0)
(7.52287e-10 -0.00242104 0)
(-1.12921e-08 -0.00242104 0)
(-2.30607e-08 -0.00242098 0)
(2.4735e-08 -0.00242098 0)
(1.3206e-08 -0.00242104 0)
(6.98642e-10 -0.00242104 0)
(-1.34325e-08 -0.00242104 0)
(-2.55702e-08 -0.00242098 0)
(2.70029e-08 -0.00242098 0)
(1.5101e-08 -0.00242104 0)
(6.49507e-10 -0.00242104 0)
(-1.54769e-08 -0.00242104 0)
(-2.79394e-08 -0.00242098 0)
(2.91145e-08 -0.00242099 0)
(1.6891e-08 -0.00242104 0)
(6.06013e-10 -0.00242104 0)
(-1.74001e-08 -0.00242104 0)
(-3.01422e-08 -0.00242098 0)
(3.10493e-08 -0.00242099 0)
(1.85568e-08 -0.00242104 0)
(5.69069e-10 -0.00242104 0)
(-1.91809e-08 -0.00242104 0)
(-3.2157e-08 -0.00242098 0)
(3.27912e-08 -0.00242099 0)
(2.00823e-08 -0.00242104 0)
(5.39354e-10 -0.00242104 0)
(-2.08016e-08 -0.00242104 0)
(-3.39668e-08 -0.00242098 0)
(3.43282e-08 -0.00242099 0)
(2.14552e-08 -0.00242104 0)
(5.17316e-10 -0.00242104 0)
(-2.22488e-08 -0.00242104 0)
(-3.5559e-08 -0.00242098 0)
(3.56526e-08 -0.00242099 0)
(2.26665e-08 -0.00242104 0)
(5.0318e-10 -0.00242104 0)
(-2.35131e-08 -0.00242104 0)
(-3.69257e-08 -0.00242098 0)
(3.6761e-08 -0.00242099 0)
(2.37108e-08 -0.00242104 0)
(4.96953e-10 -0.00242104 0)
(-2.4589e-08 -0.00242104 0)
(-3.80632e-08 -0.00242098 0)
(3.76536e-08 -0.00242099 0)
(2.45859e-08 -0.00242104 0)
(4.98444e-10 -0.00242104 0)
(-2.54748e-08 -0.00242104 0)
(-3.89721e-08 -0.00242098 0)
(3.83343e-08 -0.00242099 0)
(2.52928e-08 -0.00242104 0)
(5.07277e-10 -0.00242104 0)
(-2.61723e-08 -0.00242104 0)
(-3.96568e-08 -0.00242098 0)
(3.88104e-08 -0.00242099 0)
(2.58354e-08 -0.00242104 0)
(5.22921e-10 -0.00242104 0)
(-2.66865e-08 -0.00242104 0)
(-4.01249e-08 -0.00242098 0)
(3.90918e-08 -0.00242099 0)
(2.62199e-08 -0.00242104 0)
(5.44709e-10 -0.00242103 0)
(-2.70253e-08 -0.00242104 0)
(-4.03874e-08 -0.00242098 0)
(3.91909e-08 -0.00242099 0)
(2.64549e-08 -0.00242104 0)
(5.71867e-10 -0.00242103 0)
(-2.71991e-08 -0.00242104 0)
(-4.04575e-08 -0.00242099 0)
(3.91219e-08 -0.00242099 0)
(2.65508e-08 -0.00242104 0)
(6.03544e-10 -0.00242103 0)
(-2.72201e-08 -0.00242104 0)
(-4.03506e-08 -0.00242099 0)
(3.89005e-08 -0.00242099 0)
(2.65193e-08 -0.00242104 0)
(6.3884e-10 -0.00242103 0)
(-2.71022e-08 -0.00242104 0)
(-4.00836e-08 -0.00242099 0)
(3.85434e-08 -0.00242099 0)
(2.63733e-08 -0.00242104 0)
(6.76831e-10 -0.00242103 0)
(-2.68604e-08 -0.00242104 0)
(-3.96741e-08 -0.00242099 0)
(3.80676e-08 -0.00242099 0)
(2.61261e-08 -0.00242104 0)
(7.16599e-10 -0.00242103 0)
(-2.65103e-08 -0.00242104 0)
(-3.91405e-08 -0.00242099 0)
(3.74902e-08 -0.002421 0)
(2.57916e-08 -0.00242104 0)
(7.57254e-10 -0.00242103 0)
(-2.60676e-08 -0.00242104 0)
(-3.85011e-08 -0.00242099 0)
(3.6828e-08 -0.002421 0)
(2.53833e-08 -0.00242104 0)
(7.97955e-10 -0.00242103 0)
(-2.55481e-08 -0.00242103 0)
(-3.77737e-08 -0.00242099 0)
(3.6097e-08 -0.002421 0)
(2.49144e-08 -0.00242104 0)
(8.37929e-10 -0.00242103 0)
(-2.49668e-08 -0.00242103 0)
(-3.69755e-08 -0.00242099 0)
(3.53122e-08 -0.002421 0)
(2.43976e-08 -0.00242104 0)
(8.76487e-10 -0.00242103 0)
(-2.4338e-08 -0.00242103 0)
(-3.61225e-08 -0.00242099 0)
(3.44875e-08 -0.002421 0)
(2.38447e-08 -0.00242104 0)
(9.1303e-10 -0.00242103 0)
(-2.36751e-08 -0.00242103 0)
(-3.52293e-08 -0.00242099 0)
(3.36353e-08 -0.002421 0)
(2.32662e-08 -0.00242104 0)
(9.47059e-10 -0.00242103 0)
(-2.29899e-08 -0.00242103 0)
(-3.43092e-08 -0.00242099 0)
(3.27664e-08 -0.002421 0)
(2.26718e-08 -0.00242104 0)
(9.7818e-10 -0.00242103 0)
(-2.22932e-08 -0.00242103 0)
(-3.33736e-08 -0.00242099 0)
(3.189e-08 -0.002421 0)
(2.20697e-08 -0.00242104 0)
(1.0061e-09 -0.00242103 0)
(-2.15939e-08 -0.00242103 0)
(-3.24324e-08 -0.00242099 0)
(3.1014e-08 -0.002421 0)
(2.1467e-08 -0.00242104 0)
(1.03062e-09 -0.00242103 0)
(-2.08998e-08 -0.00242103 0)
(-3.14937e-08 -0.00242099 0)
(3.01446e-08 -0.002421 0)
(2.08694e-08 -0.00242103 0)
(1.05166e-09 -0.00242103 0)
(-2.02171e-08 -0.00242103 0)
(-3.05641e-08 -0.002421 0)
(2.92863e-08 -0.002421 0)
(2.02815e-08 -0.00242103 0)
(1.06918e-09 -0.00242103 0)
(-1.95505e-08 -0.00242103 0)
(-2.96485e-08 -0.002421 0)
(2.84427e-08 -0.002421 0)
(1.97067e-08 -0.00242103 0)
(1.08327e-09 -0.00242102 0)
(-1.89035e-08 -0.00242103 0)
(-2.87503e-08 -0.002421 0)
(2.76159e-08 -0.002421 0)
(1.91472e-08 -0.00242103 0)
(1.09405e-09 -0.00242102 0)
(-1.82784e-08 -0.00242103 0)
(-2.78719e-08 -0.002421 0)
(2.6807e-08 -0.002421 0)
(1.86046e-08 -0.00242103 0)
(1.10172e-09 -0.00242102 0)
(-1.76762e-08 -0.00242103 0)
(-2.70141e-08 -0.002421 0)
(2.60161e-08 -0.002421 0)
(1.80795e-08 -0.00242103 0)
(1.10651e-09 -0.00242102 0)
(-1.70974e-08 -0.00242103 0)
(-2.61773e-08 -0.002421 0)
(2.52428e-08 -0.00242101 0)
(1.75716e-08 -0.00242103 0)
(1.10869e-09 -0.00242102 0)
(-1.65413e-08 -0.00242103 0)
(-2.53605e-08 -0.002421 0)
(2.44858e-08 -0.00242101 0)
(1.70804e-08 -0.00242103 0)
(1.10858e-09 -0.00242102 0)
(-1.60068e-08 -0.00242103 0)
(-2.45625e-08 -0.002421 0)
(2.37433e-08 -0.00242101 0)
(1.66047e-08 -0.00242103 0)
(1.10648e-09 -0.00242102 0)
(-1.54921e-08 -0.00242103 0)
(-2.37814e-08 -0.002421 0)
(2.30135e-08 -0.00242101 0)
(1.6143e-08 -0.00242103 0)
(1.10276e-09 -0.00242102 0)
(-1.49953e-08 -0.00242103 0)
(-2.30148e-08 -0.002421 0)
(2.22939e-08 -0.00242101 0)
(1.56935e-08 -0.00242103 0)
(1.09773e-09 -0.00242102 0)
(-1.45139e-08 -0.00242103 0)
(-2.22602e-08 -0.002421 0)
(2.15821e-08 -0.00242101 0)
(1.52543e-08 -0.00242103 0)
(1.09176e-09 -0.00242102 0)
(-1.40454e-08 -0.00242103 0)
(-2.15149e-08 -0.002421 0)
(2.08756e-08 -0.00242101 0)
(1.48233e-08 -0.00242103 0)
(1.0852e-09 -0.00242102 0)
(-1.35872e-08 -0.00242103 0)
(-2.07762e-08 -0.002421 0)
(2.01719e-08 -0.00242101 0)
(1.43986e-08 -0.00242103 0)
(1.07837e-09 -0.00242102 0)
(-1.31364e-08 -0.00242103 0)
(-2.0041e-08 -0.002421 0)
(1.94683e-08 -0.00242101 0)
(1.3978e-08 -0.00242103 0)
(1.07163e-09 -0.00242102 0)
(-1.26906e-08 -0.00242103 0)
(-1.93069e-08 -0.002421 0)
(1.87626e-08 -0.00242101 0)
(1.35596e-08 -0.00242103 0)
(1.06528e-09 -0.00242102 0)
(-1.22471e-08 -0.00242103 0)
(-1.8571e-08 -0.002421 0)
(1.80526e-08 -0.00242101 0)
(1.31415e-08 -0.00242103 0)
(1.05965e-09 -0.00242102 0)
(-1.18035e-08 -0.00242103 0)
(-1.78309e-08 -0.002421 0)
(1.73362e-08 -0.00242101 0)
(1.2722e-08 -0.00242103 0)
(1.05501e-09 -0.00242102 0)
(-1.13575e-08 -0.00242103 0)
(-1.70845e-08 -0.002421 0)
(1.6612e-08 -0.00242101 0)
(1.22996e-08 -0.00242103 0)
(1.05165e-09 -0.00242102 0)
(-1.09072e-08 -0.00242103 0)
(-1.63299e-08 -0.00242101 0)
(1.58787e-08 -0.00242101 0)
(1.18731e-08 -0.00242103 0)
(1.04979e-09 -0.00242102 0)
(-1.04509e-08 -0.00242102 0)
(-1.55658e-08 -0.00242101 0)
(1.51357e-08 -0.00242101 0)
(1.14415e-08 -0.00242103 0)
(1.04962e-09 -0.00242102 0)
(-9.98725e-09 -0.00242102 0)
(-1.47914e-08 -0.00242101 0)
(1.4383e-08 -0.00242101 0)
(1.10044e-08 -0.00242103 0)
(1.0513e-09 -0.00242102 0)
(-9.51556e-09 -0.00242102 0)
(-1.40066e-08 -0.00242101 0)
(1.36214e-08 -0.00242101 0)
(1.05616e-08 -0.00242103 0)
(1.05491e-09 -0.00242102 0)
(-9.03556e-09 -0.00242102 0)
(-1.32121e-08 -0.00242101 0)
(1.28527e-08 -0.00242101 0)
(1.01136e-08 -0.00242103 0)
(1.06046e-09 -0.00242102 0)
(-8.54769e-09 -0.00242102 0)
(-1.24097e-08 -0.00242101 0)
(1.20797e-08 -0.00242101 0)
(9.66142e-09 -0.00242103 0)
(1.06788e-09 -0.00242102 0)
(-8.05318e-09 -0.00242102 0)
(-1.16024e-08 -0.00242101 0)
(1.13065e-08 -0.00242101 0)
(9.20684e-09 -0.00242103 0)
(1.07701e-09 -0.00242101 0)
(-7.55408e-09 -0.00242102 0)
(-1.07944e-08 -0.00242101 0)
(1.05383e-08 -0.00242101 0)
(8.75229e-09 -0.00242103 0)
(1.08759e-09 -0.00242101 0)
(-7.05339e-09 -0.00242102 0)
(-9.99128e-09 -0.00242101 0)
(9.78193e-09 -0.00242102 0)
(8.30095e-09 -0.00242103 0)
(1.09924e-09 -0.00242101 0)
(-6.55504e-09 -0.00242102 0)
(-9.20009e-09 -0.00242101 0)
(9.04519e-09 -0.00242102 0)
(7.85675e-09 -0.00242103 0)
(1.11149e-09 -0.00242101 0)
(-6.06391e-09 -0.00242102 0)
(-8.42921e-09 -0.00242101 0)
(8.33711e-09 -0.00242102 0)
(7.42431e-09 -0.00242103 0)
(1.12379e-09 -0.00242101 0)
(-5.58574e-09 -0.00242102 0)
(-7.68825e-09 -0.00242101 0)
(7.66756e-09 -0.00242102 0)
(7.00879e-09 -0.00242103 0)
(1.13552e-09 -0.00242101 0)
(-5.12696e-09 -0.00242102 0)
(-6.98769e-09 -0.00242101 0)
(7.04678e-09 -0.00242102 0)
(6.61576e-09 -0.00242103 0)
(1.14602e-09 -0.00242101 0)
(-4.69445e-09 -0.00242102 0)
(-6.33844e-09 -0.00242101 0)
(6.48487e-09 -0.00242102 0)
(6.25092e-09 -0.00242103 0)
(1.15466e-09 -0.00242101 0)
(-4.29523e-09 -0.00242102 0)
(-5.75128e-09 -0.00242101 0)
(5.99104e-09 -0.00242102 0)
(5.91977e-09 -0.00242103 0)
(1.16087e-09 -0.00242101 0)
(-3.93598e-09 -0.00242102 0)
(-5.23601e-09 -0.00242101 0)
(5.57284e-09 -0.00242102 0)
(5.62728e-09 -0.00242103 0)
(1.16421e-09 -0.00242101 0)
(-3.62255e-09 -0.00242102 0)
(-4.80064e-09 -0.00242101 0)
(5.2352e-09 -0.00242102 0)
(5.3774e-09 -0.00242103 0)
(1.16446e-09 -0.00242101 0)
(-3.35943e-09 -0.00242102 0)
(-4.45038e-09 -0.00242101 0)
(4.97957e-09 -0.00242102 0)
(5.1727e-09 -0.00242103 0)
(1.16166e-09 -0.00242101 0)
(-3.14915e-09 -0.00242102 0)
(-4.18671e-09 -0.00242101 0)
(4.80311e-09 -0.00242102 0)
(5.01388e-09 -0.00242103 0)
(1.15619e-09 -0.00242101 0)
(-2.99171e-09 -0.00242102 0)
(-4.00645e-09 -0.00242101 0)
(4.69803e-09 -0.00242102 0)
(4.89949e-09 -0.00242103 0)
(1.14882e-09 -0.00242101 0)
(-2.88424e-09 -0.00242102 0)
(-3.90115e-09 -0.00242101 0)
(4.65135e-09 -0.00242102 0)
(4.8258e-09 -0.00242103 0)
(1.14072e-09 -0.00242101 0)
(-2.82076e-09 -0.00242102 0)
(-3.85674e-09 -0.00242101 0)
(4.64508e-09 -0.00242102 0)
(4.78692e-09 -0.00242103 0)
(1.13345e-09 -0.00242101 0)
(-2.79234e-09 -0.00242102 0)
(-3.85377e-09 -0.00242101 0)
(4.65646e-09 -0.00242101 0)
(4.77454e-09 -0.00242102 0)
(1.12893e-09 -0.00242101 0)
(-2.78694e-09 -0.00242102 0)
(-3.86767e-09 -0.00242101 0)
)
;

boundaryField
{
    BotWall
    {
        type            fixedValue;
        value           uniform (0 0 0);
    }
    FreeStream
    {
        type            zeroGradient;
    }
    FrontNBack
    {
        type            empty;
    }
    LeftSide
    {
        type            symmetryPlane;
    }
    RightSide
    {
        type            symmetryPlane;
    }
}


// ************************************************************************* //
