/*--------------------------------*- C++ -*----------------------------------*\
| =========                 |                                                 |
| \\      /  F ield         | OpenFOAM: The Open Source CFD Toolbox           |
|  \\    /   O peration     | Version:  2.4.0                                 |
|   \\  /    A nd           | Web:      www.OpenFOAM.org                      |
|    \\/     M anipulation  |                                                 |
\*---------------------------------------------------------------------------*/
FoamFile
{
    version     2.0;
    format      ascii;
    class       volScalarField;
    location    "3.9";
    object      p;
}
// * * * * * * * * * * * * * * * * * * * * * * * * * * * * * * * * * * * * * //

dimensions      [1 -1 -2 0 0 0 0];

internalField   nonuniform List<scalar> 
125
(
-0.0577043
-0.0577036
-0.0577031
-0.0577026
-0.0577021
-0.0588391
-0.0588384
-0.0588378
-0.0588374
-0.0588369
-0.0599864
-0.0599858
-0.0599853
-0.0599849
-0.0599844
-0.0611466
-0.061146
-0.0611455
-0.0611452
-0.0611447
-0.0623198
-0.0623192
-0.0623187
-0.0623184
-0.0623179
-0.063506
-0.0635055
-0.063505
-0.0635047
-0.0635043
-0.0647055
-0.064705
-0.0647046
-0.0647042
-0.0647038
-0.0659184
-0.0659179
-0.0659175
-0.0659171
-0.0659168
-0.0671448
-0.0671443
-0.0671439
-0.0671436
-0.0671433
-0.0683848
-0.0683844
-0.068384
-0.0683838
-0.0683834
-0.0696388
-0.0696384
-0.069638
-0.0696377
-0.0696374
-0.0709067
-0.0709063
-0.070906
-0.0709057
-0.0709054
-0.0721887
-0.0721884
-0.0721881
-0.0721879
-0.0721876
-0.0734851
-0.0734848
-0.0734845
-0.0734843
-0.0734841
-0.0747959
-0.0747956
-0.0747954
-0.0747952
-0.074795
-0.0761214
-0.0761211
-0.0761209
-0.0761207
-0.0761205
-0.0774617
-0.0774614
-0.0774612
-0.077461
-0.0774609
-0.0788169
-0.0788167
-0.0788165
-0.0788163
-0.0788162
-0.0801872
-0.080187
-0.0801869
-0.0801867
-0.0801866
-0.0815728
-0.0815727
-0.0815725
-0.0815724
-0.0815723
-0.0829739
-0.0829738
-0.0829737
-0.0829736
-0.0829735
-0.0843906
-0.0843905
-0.0843905
-0.0843904
-0.0843903
-0.0858232
-0.0858231
-0.085823
-0.085823
-0.0858229
-0.0872717
-0.0872716
-0.0872716
-0.0872716
-0.0872715
-0.0887364
-0.0887364
-0.0887363
-0.0887363
-0.0887363
)
;

boundaryField
{
    BotWall
    {
        type            calculated;
        value           nonuniform 0();
    }
    FreeStream
    {
        type            calculated;
        value           nonuniform List<scalar> 5(-0.0894728 -0.0894728 -0.0894728 -0.0894728 -0.0894728);
    }
    FrontNBack
    {
        type            empty;
    }
    LeftSide
    {
        type            symmetryPlane;
    }
    RightSide
    {
        type            symmetryPlane;
    }
    procBoundary3to2
    {
        type            processor;
        value           nonuniform List<scalar> 5(-0.0565821 -0.0565814 -0.0565808 -0.0565804 -0.0565798);
    }
}


// ************************************************************************* //
