/*--------------------------------*- C++ -*----------------------------------*\
| =========                 |                                                 |
| \\      /  F ield         | OpenFOAM: The Open Source CFD Toolbox           |
|  \\    /   O peration     | Version:  2.4.0                                 |
|   \\  /    A nd           | Web:      www.OpenFOAM.org                      |
|    \\/     M anipulation  |                                                 |
\*---------------------------------------------------------------------------*/
FoamFile
{
    version     2.0;
    format      ascii;
    class       surfaceScalarField;
    location    "4.1";
    object      phi;
}
// * * * * * * * * * * * * * * * * * * * * * * * * * * * * * * * * * * * * * //

dimensions      [0 3 -1 0 0 0 0];

internalField   nonuniform List<scalar> 
220
(
1.17228e-15
-2.07688e-10
1.22063e-15
-2.07692e-10
-6.17188e-16
-2.07701e-10
-1.52659e-15
-2.07696e-10
-2.07687e-10
1.13088e-15
-2.07689e-10
1.17365e-15
-2.07692e-10
-5.90452e-16
-2.07699e-10
-1.46239e-15
-2.07695e-10
-2.07689e-10
1.09253e-15
-2.0769e-10
1.13264e-15
-2.07692e-10
-5.66692e-16
-2.07697e-10
-1.4056e-15
-2.07694e-10
-2.0769e-10
1.05471e-15
-2.07691e-10
1.09301e-15
-2.07692e-10
-5.43796e-16
-2.07696e-10
-1.35011e-15
-2.07694e-10
-2.07691e-10
1.01677e-15
-2.07692e-10
1.05339e-15
-2.07692e-10
-5.20967e-16
-2.07694e-10
-1.29458e-15
-2.07693e-10
-2.07693e-10
9.78965e-16
-2.07693e-10
1.0139e-15
-2.07692e-10
-4.98222e-16
-2.07692e-10
-1.23946e-15
-2.07692e-10
-2.07694e-10
9.41461e-16
-2.07694e-10
9.74778e-16
-2.07692e-10
-4.75686e-16
-2.07691e-10
-1.18506e-15
-2.07691e-10
-2.07695e-10
9.04284e-16
-2.07695e-10
9.36109e-16
-2.07692e-10
-4.53419e-16
-2.0769e-10
-1.13145e-15
-2.07691e-10
-2.07696e-10
8.67436e-16
-2.07696e-10
8.97913e-16
-2.07692e-10
-4.31436e-16
-2.07688e-10
-1.07861e-15
-2.0769e-10
-2.07697e-10
8.30934e-16
-2.07697e-10
8.60198e-16
-2.07692e-10
-4.09745e-16
-2.07687e-10
-1.02657e-15
-2.07689e-10
-2.07698e-10
7.94803e-16
-2.07698e-10
8.22982e-16
-2.07692e-10
-3.88356e-16
-2.07686e-10
-9.75342e-16
-2.07689e-10
-2.07699e-10
7.5907e-16
-2.07698e-10
7.86284e-16
-2.07692e-10
-3.67283e-16
-2.07685e-10
-9.24966e-16
-2.07688e-10
-2.077e-10
7.23758e-16
-2.07699e-10
7.50125e-16
-2.07692e-10
-3.4654e-16
-2.07684e-10
-8.75464e-16
-2.07688e-10
-2.07701e-10
6.88891e-16
-2.077e-10
7.14522e-16
-2.07692e-10
-3.26139e-16
-2.07683e-10
-8.26861e-16
-2.07687e-10
-2.07702e-10
6.54493e-16
-2.077e-10
6.79496e-16
-2.07692e-10
-3.06094e-16
-2.07682e-10
-7.7918e-16
-2.07687e-10
-2.07703e-10
6.20588e-16
-2.07701e-10
6.45065e-16
-2.07692e-10
-2.86417e-16
-2.07681e-10
-7.32447e-16
-2.07686e-10
-2.07703e-10
5.87198e-16
-2.07702e-10
6.11246e-16
-2.07692e-10
-2.67121e-16
-2.0768e-10
-6.86684e-16
-2.07686e-10
-2.07704e-10
5.54347e-16
-2.07702e-10
5.78057e-16
-2.07692e-10
-2.48218e-16
-2.07679e-10
-6.41914e-16
-2.07686e-10
-2.07705e-10
5.22058e-16
-2.07703e-10
5.45517e-16
-2.07692e-10
-2.2972e-16
-2.07678e-10
-5.98157e-16
-2.07685e-10
-2.07705e-10
4.90352e-16
-2.07703e-10
5.1364e-16
-2.07692e-10
-2.11638e-16
-2.07677e-10
-5.55436e-16
-2.07685e-10
-2.07706e-10
4.59252e-16
-2.07704e-10
4.82444e-16
-2.07692e-10
-1.93984e-16
-2.07677e-10
-5.13769e-16
-2.07684e-10
-2.07706e-10
4.28779e-16
-2.07704e-10
4.51945e-16
-2.07692e-10
-1.76767e-16
-2.07676e-10
-4.73176e-16
-2.07684e-10
-2.07707e-10
3.98954e-16
-2.07705e-10
4.22157e-16
-2.07692e-10
-1.6e-16
-2.07676e-10
-4.33675e-16
-2.07684e-10
-2.07707e-10
3.69798e-16
-2.07705e-10
3.93096e-16
-2.07692e-10
-1.43691e-16
-2.07675e-10
-3.95285e-16
-2.07684e-10
-2.07708e-10
3.4133e-16
3.64775e-16
-1.2785e-16
-3.5802e-16
)
;

boundaryField
{
    BotWall
    {
        type            calculated;
        value           nonuniform 0();
    }
    FreeStream
    {
        type            calculated;
        value           nonuniform 0();
    }
    FrontNBack
    {
        type            empty;
        value           nonuniform 0();
    }
    LeftSide
    {
        type            symmetryPlane;
        value           uniform 0;
    }
    RightSide
    {
        type            symmetryPlane;
        value           uniform 0;
    }
    procBoundary1to0
    {
        type            processor;
        value           nonuniform List<scalar> 5(2.07687e-10 2.07692e-10 2.07702e-10 2.07697e-10 2.07686e-10);
    }
    procBoundary1to2
    {
        type            processor;
        value           nonuniform List<scalar> 5(-2.07705e-10 -2.07692e-10 -2.07674e-10 -2.07683e-10 -2.07708e-10);
    }
}


// ************************************************************************* //
