/*--------------------------------*- C++ -*----------------------------------*\
| =========                 |                                                 |
| \\      /  F ield         | OpenFOAM: The Open Source CFD Toolbox           |
|  \\    /   O peration     | Version:  2.4.0                                 |
|   \\  /    A nd           | Web:      www.OpenFOAM.org                      |
|    \\/     M anipulation  |                                                 |
\*---------------------------------------------------------------------------*/
FoamFile
{
    version     2.0;
    format      ascii;
    class       volScalarField;
    location    "0.013";
    object      p;
}
// * * * * * * * * * * * * * * * * * * * * * * * * * * * * * * * * * * * * * //

dimensions      [1 -1 -2 0 0 0 0];

internalField   nonuniform List<scalar> 
125
(
-0.0719928
-0.0721047
-0.0722171
-0.07233
-0.0724434
-0.0725573
-0.0726718
-0.0727868
-0.0729024
-0.0730185
-0.0731351
-0.0732522
-0.0733699
-0.0734881
-0.0736069
-0.0737262
-0.0738461
-0.0739665
-0.0740874
-0.0742089
-0.0743309
-0.0744535
-0.0745767
-0.0747004
-0.0748246
-0.0749494
-0.0750748
-0.0752007
-0.0753273
-0.0754543
-0.075582
-0.0757102
-0.0758389
-0.0759683
-0.0760982
-0.0762287
-0.0763598
-0.0764914
-0.0766236
-0.0767564
-0.0768898
-0.0770238
-0.0771584
-0.0772935
-0.0774293
-0.0775656
-0.0777025
-0.0778401
-0.0779782
-0.0781169
-0.0782562
-0.0783961
-0.0785366
-0.0786778
-0.0788195
-0.0789618
-0.0791048
-0.0792483
-0.0793925
-0.0795373
-0.0796827
-0.0798287
-0.0799753
-0.0801226
-0.0802705
-0.080419
-0.0805681
-0.0807178
-0.0808682
-0.0810192
-0.0811708
-0.0813231
-0.081476
-0.0816295
-0.0817837
-0.0819385
-0.082094
-0.0822501
-0.0824068
-0.0825642
-0.0827222
-0.0828808
-0.0830402
-0.0832001
-0.0833607
-0.083522
-0.0836839
-0.0838465
-0.0840097
-0.0841736
-0.0843381
-0.0845033
-0.0846692
-0.0848357
-0.0850029
-0.0851708
-0.0853393
-0.0855085
-0.0856783
-0.0858488
-0.08602
-0.0861919
-0.0863644
-0.0865376
-0.0867115
-0.0868861
-0.0870613
-0.0872372
-0.0874138
-0.0875911
-0.087769
-0.0879477
-0.088127
-0.088307
-0.0884877
-0.0886691
-0.0888511
-0.0890339
-0.0892173
-0.0894014
-0.0895862
-0.0897717
-0.089958
-0.0901448
-0.0903316
)
;

boundaryField
{
    BotWall
    {
        type            calculated;
        value           nonuniform 0();
    }
    FreeStream
    {
        type            calculated;
        value           uniform -0.090425;
    }
    FrontNBack
    {
        type            empty;
    }
    LeftSide
    {
        type            symmetryPlane;
    }
    RightSide
    {
        type            symmetryPlane;
    }
    procBoundary0to1
    {
        type            processor;
        value           uniform -0.0718815;
    }
    procBoundary0to2
    {
        type            processor;
        value           nonuniform List<scalar> 
75
(
-0.0768782
-0.0770384
-0.0771993
-0.0773606
-0.0775225
-0.0776849
-0.0778478
-0.0780113
-0.0781753
-0.0783399
-0.078505
-0.0786706
-0.0788368
-0.0790035
-0.0791708
-0.0793387
-0.0795071
-0.079676
-0.0798455
-0.0800156
-0.0801863
-0.0803575
-0.0805293
-0.0807017
-0.0808746
-0.0810482
-0.0812223
-0.081397
-0.0815723
-0.0817482
-0.0819247
-0.0821018
-0.0822795
-0.0824578
-0.0826367
-0.0828162
-0.0829964
-0.0831771
-0.0833585
-0.0835405
-0.0837231
-0.0839064
-0.0840903
-0.0842748
-0.08446
-0.0846458
-0.0848323
-0.0850194
-0.0852071
-0.0853956
-0.0855847
-0.0857744
-0.0859648
-0.0861559
-0.0863477
-0.0865401
-0.0867333
-0.0869271
-0.0871216
-0.0873168
-0.0875127
-0.0877093
-0.0879066
-0.0881046
-0.0883033
-0.0885027
-0.0887029
-0.0889038
-0.0891054
-0.0893078
-0.0895109
-0.0897147
-0.0899193
-0.0901246
-0.0903299
)
;
    }
    procBoundary0to3
    {
        type            processor;
        value           nonuniform List<scalar> 
50
(
-0.0694815
-0.0696185
-0.0697558
-0.0698936
-0.0700318
-0.0701704
-0.0703095
-0.0704489
-0.0705888
-0.0707292
-0.0708699
-0.0710112
-0.0711528
-0.0712949
-0.0714374
-0.0715803
-0.0717238
-0.0718676
-0.0720119
-0.0721567
-0.0723019
-0.0724475
-0.0725936
-0.0727402
-0.0728872
-0.0730347
-0.0731827
-0.0733311
-0.07348
-0.0736293
-0.0737791
-0.0739294
-0.0740802
-0.0742315
-0.0743832
-0.0745354
-0.0746881
-0.0748413
-0.074995
-0.0751492
-0.0753039
-0.075459
-0.0756147
-0.0757709
-0.0759275
-0.0760847
-0.0762424
-0.0764005
-0.0765592
-0.0767184
)
;
    }
}


// ************************************************************************* //
