/*--------------------------------*- C++ -*----------------------------------*\
| =========                 |                                                 |
| \\      /  F ield         | OpenFOAM: The Open Source CFD Toolbox           |
|  \\    /   O peration     | Version:  2.4.0                                 |
|   \\  /    A nd           | Web:      www.OpenFOAM.org                      |
|    \\/     M anipulation  |                                                 |
\*---------------------------------------------------------------------------*/
FoamFile
{
    version     2.0;
    format      ascii;
    class       volScalarField;
    location    "4";
    object      alpha1;
}
// * * * * * * * * * * * * * * * * * * * * * * * * * * * * * * * * * * * * * //

dimensions      [0 0 0 0 0 0 0];

internalField   nonuniform List<scalar> 
8000
(
1
1
1
1
1
1
1
1
1
1
1
1
1
1
1
1
1
1
1
1
1
1
1
1
1
1
1
1
1
0.999999
0.999999
0.999999
0.999999
0.999999
0.999999
0.999999
0.999999
0.999999
0.999998
0.999998
0.999998
0.999999
0.999994
0.999997
0.999994
0.999988
0.978886
0.818662
0.767812
0.355939
1
1
1
1
1
1
1
1
1
1
1
1
1
1
1
1
1
1
1
1
1
1
1
1
1
1
1
1
1
1
1
0.999999
0.999999
0.999999
0.999999
0.999999
0.999998
0.999998
0.999998
0.999997
0.999998
0.999998
0.999974
0.972045
0.848274
0.767857
0.24003
0.0644313
0.0322379
0.00488654
1
1
1
1
1
1
1
1
1
1
1
1
1
1
1
1
1
1
1
1
1
1
1
1
1
1
1
1
1
1
0.999999
0.999999
0.999999
0.999999
0.999998
0.999997
0.999998
0.999998
0.999996
0.999942
0.945682
0.912533
0.645205
0.162399
0.0404761
0.0214243
0.00222348
0.000880266
0.000370107
0.000127147
1
1
1
1
1
1
1
1
1
1
1
1
1
1
1
1
1
1
1
1
1
1
1
1
1
1
1
1
1
0.999999
0.999999
0.999998
0.999997
0.999998
0.999996
0.99999
0.999867
0.919004
0.871229
0.484059
0.0819642
0.0421665
0.00479193
0.000957227
0.000415215
0.000234642
0.000168455
0.000102532
4.93525e-05
2.06421e-05
1
1
1
1
1
1
1
1
1
1
1
1
1
1
1
1
1
1
1
1
1
1
1
1
1
1
1
0.999999
0.999999
0.999999
0.999999
0.999993
0.999969
0.999746
0.884727
0.816501
0.302744
0.0624803
0.026962
0.0040862
0.000406192
0.000337411
0.000222715
0.00016119
9.548e-05
5.09812e-05
2.65643e-05
1.28402e-05
6.25793e-06
3.68878e-06
1
1
1
1
1
1
1
1
1
1
1
1
1
1
1
1
1
1
1
1
1
1
1
1
0.999999
0.999999
0.999999
0.999999
0.999999
0.999951
0.999707
0.862433
0.710551
0.142157
0.0373451
0.0157747
0.00155889
0.000191624
0.000103564
5.65289e-05
3.6612e-05
1.84743e-05
8.82769e-06
3.71453e-06
1.06499e-06
1.29086e-06
9.3906e-06
9.33445e-06
4.19948e-06
1.06854e-06
1
1
1
1
1
1
1
1
1
1
1
1
1
1
1
1
1
1
1
1
1
1
1
0.999999
0.999999
0.999999
0.999999
0.999882
0.956732
0.660207
0.1481
0.0148771
0.01823
0.00331975
0.000413025
0.0001139
8.85048e-05
5.28199e-05
2.18955e-05
7.54474e-06
2.64862e-06
1.55362e-06
1.08441e-06
5.64075e-07
2.39915e-07
2.06536e-07
2.0173e-07
9.0581e-07
3.86653e-06
2.04698e-06
1
1
1
1
1
1
1
1
1
1
1
1
1
1
1
1
1
1
1
1
1
1
0.999999
0.999998
0.999997
0.99989
0.982496
0.47781
0.0380371
0.00884692
0.00252499
0.00119091
0.000487203
0.000209807
7.02664e-05
1.81157e-05
4.1966e-06
1.5452e-06
1.89153e-06
1.27616e-06
2.85336e-07
3.74665e-07
1.05734e-06
1.06973e-06
6.48808e-07
2.02876e-07
1.96795e-07
9.49559e-07
1.51501e-06
6.51124e-07
1
1
1
1
1
1
1
1
1
1
1
1
1
1
1
1
1
1
1
1
1
0.999999
0.999998
0.999976
0.999666
0.522905
0.0268687
0.00327486
0.00055604
0.000163452
4.99093e-05
1.42942e-05
3.96749e-06
1.46598e-06
8.46028e-07
5.04035e-07
5.01631e-07
5.80382e-07
1.52725e-06
8.61286e-07
2.46517e-07
1.33918e-07
5.6743e-07
1.07914e-06
7.65474e-07
3.00207e-07
1.41458e-07
2.33823e-07
5.92749e-07
3.45403e-07
1
1
1
1
1
1
1
1
1
1
1
1
1
1
1
1
1
1
1
1
1
0.999999
0.999998
0.999504
0.286779
0.00274845
0.000219504
4.1023e-05
1.0779e-05
6.43848e-07
3.20477e-07
3.20996e-07
4.4932e-07
3.26719e-07
3.26821e-07
4.28798e-07
1.79304e-06
1.94821e-06
7.43813e-07
1.21192e-07
1.1315e-07
1.38069e-07
4.79263e-07
9.87769e-07
3.56091e-07
1.05638e-07
9.85674e-08
9.85702e-08
9.86205e-08
9.89219e-08
1
1
1
1
1
1
1
1
1
1
1
1
1
1
1
1
1
1
1
1
1
1
0.999999
0.998252
0.164754
0.0143369
0.00116834
0.000738402
9.06538e-06
1.45862e-06
3.62972e-07
5.39529e-07
8.44947e-07
3.26855e-07
3.41288e-07
1.15192e-06
1.78932e-06
1.06431e-06
1.14087e-07
1.14016e-07
1.27495e-07
6.33353e-07
1.03312e-06
8.92294e-07
1.33405e-07
9.87804e-08
9.86937e-08
1.00583e-07
1.009e-07
9.88343e-08
1
1
1
1
1
1
1
1
1
1
1
1
1
1
1
1
1
1
1
1
1
1
1
0.999999
0.999942
0.531382
0.0427645
0.0360079
0.000994391
0.000549779
1.40969e-05
5.9528e-06
2.14617e-06
5.43672e-07
3.40236e-07
6.19324e-07
1.67385e-06
9.77127e-07
1.82141e-07
1.20843e-07
1.32345e-07
4.53624e-07
1.01077e-06
1.01323e-06
4.1342e-07
1.16469e-07
1.13605e-07
2.54175e-07
1.31701e-07
9.88737e-08
1
1
1
1
1
1
1
1
1
1
1
1
1
1
1
1
1
1
1
1
1
1
1
1
0.999999
1
1
0.798172
0.0491592
0.0548912
0.00433571
0.00305664
0.00042286
0.000237869
1.30791e-05
6.92774e-06
1.97933e-06
1.42318e-06
1.51544e-06
2.65688e-06
6.09921e-07
1.81427e-07
1.34897e-07
1.34787e-07
1.46852e-07
7.64081e-07
1.44986e-06
1.29816e-06
1.83718e-07
9.9251e-08
1
1
1
1
1
1
1
1
1
1
1
1
1
1
1
1
1
1
1
1
1
1
1
1
1
0.999999
0.999995
0.999998
0.999838
1
0.855567
0.301033
0.041942
0.0610448
0.00729871
0.00592858
0.000838457
0.000443985
1.36399e-05
6.53944e-06
8.43899e-07
8.61395e-07
1.11299e-06
9.2794e-07
1.55079e-07
4.88833e-07
1.39622e-06
1.44957e-06
6.41755e-07
1.06454e-07
1
1
1
1
1
1
1
1
1
1
1
1
1
1
1
1
1
1
1
1
1
1
1
1
1
1
1
0.999999
0.999997
0.999998
0.999999
0.999984
0.991588
0.985945
0.797656
0.395264
0.0589719
0.0732176
0.00512279
0.00580717
0.000319175
0.000387779
2.66633e-05
3.66543e-06
1.09576e-06
6.67348e-07
5.28094e-07
5.28458e-07
5.42547e-07
7.87419e-07
1
1
1
1
1
1
1
1
1
1
1
1
1
1
1
1
1
1
1
1
1
1
1
1
1
1
1
1
1
0.999999
0.999998
0.999998
1
1
1
0.99999
0.978444
0.96981
0.793797
0.27423
0.0623917
0.0403817
0.00221216
0.00129335
0.000206902
5.54771e-05
1.57872e-05
6.34757e-06
3.81225e-06
3.16832e-06
1
1
1
1
1
1
1
1
1
1
1
1
1
1
1
1
1
1
1
1
1
1
1
1
1
1
1
1
1
1
1
0.999999
0.999999
0.999999
1
0.999999
1
1
0.999999
0.998183
0.968394
0.855848
0.3037
0.0857537
0.0335704
0.00428768
0.0017535
0.00032842
5.85699e-05
1.29542e-05
1
1
1
1
1
1
1
1
1
1
1
1
1
1
1
1
1
1
1
1
1
1
1
1
1
1
1
1
1
1
1
1
1
1
1
1
1
1
1
1
1
1
0.992601
0.970962
0.768085
0.253832
0.0868044
0.0218439
0.00382465
0.000496014
1
1
1
1
1
1
1
1
1
1
1
1
1
1
1
1
1
1
1
1
1
1
1
1
1
1
1
1
1
1
1
1
1
1
1
1
1
1
1
1
1
1
1
1
1
0.99041
0.912808
0.439279
0.127193
0.0356034
1
1
1
1
1
1
1
1
1
1
1
1
1
1
1
1
1
1
1
1
1
1
1
1
1
1
1
1
1
1
1
1
1
1
1
1
1
1
1
1
0.999999
0.999996
0.99999
0.999989
0.999999
0.987589
0.966768
0.948285
0.941485
0.648185
0.0805759
0.0149348
0.00575572
0.000695118
0.000124825
3.04581e-05
6.62936e-06
1.5147e-06
4.3229e-07
4.33104e-07
4.64745e-07
4.83542e-07
9.02726e-07
6.3404e-07
5.80619e-07
5.53923e-07
4.88098e-07
4.99172e-07
1.34761e-06
7.50609e-06
4.77012e-05
4.85619e-05
4.51153e-05
1.74337e-05
3.1142e-06
5.89924e-07
2.52354e-07
1.46594e-07
1.05596e-07
9.57393e-08
9.25919e-08
8.999e-08
8.3479e-08
7.97752e-08
7.77068e-08
7.54249e-08
7.31084e-08
7.06632e-08
6.79538e-08
6.49389e-08
6.16692e-08
5.64195e-08
5.33758e-08
5.01302e-08
4.67195e-08
4.32259e-08
3.97219e-08
3.62578e-08
3.28752e-08
2.962e-08
0.000978445
0.00027894
9.37173e-05
2.99915e-05
6.73865e-06
1.50007e-06
4.45005e-07
3.55884e-07
3.89107e-07
4.49871e-07
6.03551e-07
8.33565e-07
1.23521e-06
1.19522e-06
1.03003e-06
7.38837e-07
4.03865e-07
3.86716e-07
9.35707e-07
2.55686e-06
1.62535e-05
1.55699e-05
5.87288e-06
2.34123e-06
8.43088e-07
1.82148e-06
5.41498e-06
6.50278e-06
3.07005e-06
6.7147e-07
1.13253e-07
9.08725e-08
2.66567e-07
2.28001e-07
9.64557e-08
8.9464e-08
8.34654e-08
7.45604e-08
6.92109e-08
6.80243e-08
6.27959e-08
8.03152e-08
6.00596e-08
5.76491e-08
5.48866e-08
5.18227e-08
4.86164e-08
4.53065e-08
4.19136e-08
3.84648e-08
3.26072e-05
7.25855e-06
1.50408e-06
4.31303e-07
3.44636e-07
3.27954e-07
3.60483e-07
4.32439e-07
5.08768e-07
5.67983e-07
6.18457e-07
6.73274e-07
7.71197e-07
1.39542e-06
1.72127e-06
1.13919e-06
3.56952e-07
3.53515e-07
5.83402e-07
1.64776e-06
3.50384e-06
2.72947e-06
1.8259e-06
1.13062e-06
8.43947e-07
8.93615e-07
2.76202e-06
1.63553e-05
2.28428e-05
2.27676e-05
1.52122e-05
3.8804e-06
3.82612e-07
2.28777e-07
2.3412e-07
1.10335e-06
1.34801e-06
1.34884e-06
5.59835e-07
9.46323e-08
7.04847e-08
6.9457e-08
6.59496e-08
6.43816e-08
6.24101e-08
5.95294e-08
5.50697e-08
4.71679e-08
4.53685e-08
4.46404e-08
7.99094e-06
2.91481e-06
8.78478e-07
2.96967e-07
2.28549e-07
2.27482e-07
2.27389e-07
2.27837e-07
3.68536e-07
6.92149e-07
1.12041e-06
1.8948e-06
1.88884e-06
1.90048e-06
1.88802e-06
1.7916e-06
1.26484e-06
9.2047e-07
6.73779e-07
3.81777e-07
3.08788e-07
3.08768e-07
7.66423e-07
3.64519e-06
3.92343e-06
3.29309e-06
9.08987e-07
6.16203e-07
6.14938e-07
3.4232e-06
8.62146e-06
3.72108e-06
6.11464e-07
2.30478e-07
2.35992e-07
2.37302e-07
2.51041e-07
5.16843e-07
4.52048e-06
9.91429e-06
9.91107e-06
4.70065e-06
8.02455e-07
7.05857e-08
6.09992e-08
6.06669e-08
5.53661e-08
1.17607e-07
8.26526e-08
4.59182e-08
2.59708e-06
1.83105e-06
1.2145e-06
7.56106e-07
4.69911e-07
2.65033e-07
2.2939e-07
4.54142e-07
3.20823e-07
1.91144e-07
1.89821e-07
1.93434e-07
1.88279e-07
1.87408e-07
2.42687e-07
1.81159e-06
4.77479e-06
4.80381e-06
4.7729e-06
4.59198e-06
2.0616e-06
8.57141e-07
5.85929e-07
3.49283e-07
2.84084e-07
2.83531e-07
2.82803e-07
2.1336e-06
2.94267e-06
3.008e-06
1.03689e-06
7.60237e-07
8.85536e-07
5.62135e-06
6.76115e-06
6.42192e-06
2.02167e-06
5.45052e-07
7.09273e-07
5.77123e-06
1.14033e-05
1.10898e-05
4.79262e-06
6.18068e-07
2.36392e-06
3.08511e-06
2.90813e-06
1.04728e-06
1.89873e-07
2.10423e-07
1.83587e-07
1.78136e-07
1.7812e-07
2.10262e-07
1.1814e-06
1.47034e-06
1.48003e-06
9.04278e-07
2.0375e-07
1.89817e-07
1.89814e-07
4.23494e-07
5.70605e-07
2.42378e-07
1.80572e-07
1.80104e-07
1.80294e-07
2.02855e-07
5.63327e-07
3.97464e-06
5.26972e-06
5.26875e-06
5.26961e-06
5.26874e-06
3.64742e-06
6.34338e-07
2.81538e-07
2.80426e-07
2.80406e-07
2.80457e-07
2.80578e-07
3.73273e-06
7.86865e-06
2.72743e-06
2.32084e-06
6.61507e-06
9.16842e-06
3.74211e-06
8.59896e-07
5.10645e-06
1.14751e-05
9.3901e-06
3.02198e-06
6.34117e-07
6.33431e-07
9.75435e-07
1.0651e-05
8.87728e-06
2.90087e-06
3.42464e-07
4.56754e-07
1.80372e-07
1.78122e-07
1.78574e-07
2.66359e-07
1.29149e-06
1.47037e-06
1.31717e-06
4.12335e-07
1.90627e-07
1.91767e-07
1.29917e-06
1.34147e-06
5.56566e-07
1.81802e-07
1.81663e-07
3.62254e-07
2.9628e-06
3.47888e-06
1.52096e-06
1.40195e-06
3.39109e-06
5.26919e-06
4.14805e-06
1.13594e-06
2.82463e-07
2.80423e-07
2.80407e-07
2.80403e-07
2.80405e-07
2.661e-06
7.86832e-06
7.79938e-06
3.03329e-06
2.31524e-06
5.90352e-06
9.94951e-06
6.70414e-06
2.18451e-06
8.46028e-06
1.1403e-05
8.67384e-06
2.03414e-06
6.34748e-07
6.37678e-07
1.00291e-06
1.02687e-05
1.29237e-05
1.29505e-05
4.96315e-06
1.80944e-07
1.78661e-07
1.78641e-07
3.91669e-07
9.49256e-07
9.4401e-07
4.03247e-07
1.92957e-07
1.91243e-07
1.91191e-07
1.03683e-06
1.76742e-06
1.76589e-06
8.30242e-07
1.90557e-07
1.81889e-07
1.83135e-07
1.98164e-07
2.86563e-07
5.55894e-07
2.09033e-06
4.13128e-06
2.59578e-06
4.58552e-07
2.83067e-07
2.82769e-07
1.50937e-06
6.30482e-06
6.66283e-06
5.8675e-06
2.03966e-06
1.81592e-06
1.81939e-06
2.23024e-06
2.57849e-06
3.86109e-06
9.90075e-06
1.00819e-05
9.56562e-06
5.54871e-06
3.40271e-06
2.34033e-06
2.30985e-06
4.40727e-06
1.29665e-05
1.50569e-05
1.50295e-05
1.17626e-05
5.15028e-06
3.41942e-06
1.86887e-07
1.90348e-07
3.1138e-07
3.00734e-07
2.91672e-07
2.59646e-07
2.12392e-07
2.16685e-07
3.02868e-07
4.7345e-07
5.14541e-07
2.04276e-07
2.04554e-07
2.69005e-07
4.55085e-07
5.49966e-07
6.73143e-07
1.17593e-06
1.51676e-06
1.25274e-06
7.99317e-07
9.33894e-07
3.02166e-06
3.33881e-06
2.44591e-06
4.63867e-07
2.05049e-06
4.91334e-06
6.68647e-06
1.81787e-06
1.36276e-06
5.21532e-06
6.80083e-06
6.8025e-06
3.7605e-06
2.34759e-06
7.85476e-06
1.00742e-05
9.29621e-06
4.65213e-06
3.48347e-06
1.0126e-05
1.05833e-05
1.05424e-05
8.38706e-06
8.27707e-06
6.8971e-06
3.89598e-06
2.9095e-06
3.41454e-06
1.18685e-07
3.42527e-07
3.62539e-07
2.91818e-07
9.43262e-08
9.45388e-08
3.37207e-07
7.16087e-07
7.12616e-07
5.63595e-07
1.28726e-07
2.47979e-07
8.7954e-07
1.4776e-06
1.46835e-06
6.46678e-07
8.20738e-08
2.52657e-07
2.04473e-06
3.70469e-06
3.66928e-06
2.71954e-06
2.73531e-07
1.42773e-07
1.78946e-06
5.06585e-06
5.22147e-06
4.35932e-06
5.84716e-07
1.60883e-07
1.83441e-06
5.99005e-06
6.80287e-06
5.56692e-06
8.34724e-07
2.76235e-07
1.90785e-06
6.37211e-06
9.26659e-06
4.01889e-06
1.69693e-06
1.24943e-06
2.4359e-06
4.33008e-06
1.72943e-06
7.79513e-07
6.14246e-07
6.34767e-07
5.22013e-07
3.40281e-07
9.92855e-08
1.27807e-07
3.02551e-07
2.98463e-07
9.27882e-08
9.24546e-08
1.12589e-07
3.33868e-07
4.52283e-07
1.08498e-07
1.07789e-07
1.94428e-07
3.16072e-07
5.32822e-07
7.45454e-07
1.0264e-07
8.08257e-08
8.36285e-08
5.33775e-07
1.63309e-06
2.23778e-06
9.41595e-08
7.29952e-08
7.52852e-08
4.74327e-07
2.1048e-06
3.71979e-06
4.41751e-07
9.18301e-08
8.47652e-08
5.67135e-07
2.15685e-06
3.38242e-06
3.13784e-07
7.91013e-08
7.5662e-08
6.24688e-07
1.74805e-06
2.16119e-06
2.54034e-07
8.91389e-08
6.72768e-08
2.67732e-07
3.8546e-07
1.07346e-07
6.54958e-08
6.36771e-08
6.28966e-08
6.01833e-08
5.70151e-08
9.89542e-08
9.99182e-08
1.34248e-07
3.00424e-07
2.41669e-07
9.22498e-08
9.22492e-08
9.2357e-08
9.29444e-08
1.4178e-07
3.21878e-07
3.27618e-07
2.176e-07
8.15043e-08
8.14265e-08
8.13499e-08
8.06656e-08
7.95156e-08
7.98878e-08
1.15095e-07
2.45657e-07
1.80691e-07
7.295e-08
7.29548e-08
7.33114e-08
8.37498e-08
2.90348e-07
5.21938e-07
1.72759e-07
8.24516e-08
8.16778e-08
1.24029e-07
2.13145e-07
1.14378e-07
7.01758e-08
7.01671e-08
7.85708e-08
1.07677e-07
9.05417e-08
6.64414e-08
6.03035e-08
6.02753e-08
6.09089e-08
6.28386e-08
9.89523e-08
7.7861e-08
6.20059e-08
6.11834e-08
6.03877e-08
5.42122e-08
1.37791e-07
5.95924e-07
8.08107e-07
7.71673e-07
1.99993e-07
9.23289e-08
9.22513e-08
9.23789e-08
9.25642e-08
9.26901e-08
9.25679e-08
9.15135e-08
8.86635e-08
8.16157e-08
8.38584e-08
2.72347e-07
5.08144e-07
1.06067e-07
7.92322e-08
7.92561e-08
8.59038e-08
7.61751e-08
7.29423e-08
7.29441e-08
7.2958e-08
7.29937e-08
7.39325e-08
1.14102e-07
2.6154e-07
2.40931e-07
8.05803e-08
7.94783e-08
7.84482e-08
7.19901e-08
7.1765e-08
1.35639e-07
1.75586e-07
1.23399e-07
6.91567e-08
6.73909e-08
6.77437e-08
6.0603e-08
6.80474e-08
1.37135e-07
1.35748e-07
7.77817e-08
6.5195e-08
9.95311e-08
1.18144e-07
6.47559e-08
1.00229e-07
1.00961e-07
1.03171e-07
3.90544e-07
1.03906e-06
9.96342e-07
9.29319e-08
9.22251e-08
9.22363e-08
9.22888e-08
9.23978e-08
9.2242e-08
1.1449e-07
2.2474e-07
2.33164e-07
2.10664e-07
5.17786e-07
7.6609e-07
8.12011e-08
7.95163e-08
8.88578e-08
1.87113e-07
1.87842e-07
1.16836e-07
7.92921e-08
7.90394e-08
7.9197e-08
8.12031e-08
3.04388e-07
1.15198e-06
1.49839e-06
1.49774e-06
6.10904e-07
9.81156e-08
9.81584e-08
9.90933e-08
1.75332e-07
2.93079e-07
7.5802e-08
1.1913e-07
1.09562e-07
1.02873e-07
1.02277e-07
1.08002e-07
1.13306e-07
1.18019e-07
1.22025e-07
1.09499e-07
1.15906e-07
1.24702e-07
1.43966e-06
1.97866e-07
2.32752e-07
9.36048e-07
1.25223e-06
1.14775e-06
2.26039e-07
1.51761e-07
4.29108e-07
5.27617e-07
4.11929e-07
1.35934e-07
1.52878e-07
1.93298e-07
2.59133e-07
1.34694e-07
2.63374e-07
1.14748e-06
1.49781e-06
1.49699e-06
6.07177e-07
1.22314e-07
1.22106e-07
1.20803e-07
1.04541e-07
8.13886e-08
3.02974e-07
7.52775e-07
1.04065e-06
2.41419e-07
2.41316e-07
2.42847e-07
5.06612e-07
1.22283e-06
1.20657e-06
1.79934e-07
1.78649e-07
3.41036e-07
8.14078e-07
1.58591e-06
2.73286e-06
3.34119e-06
3.33295e-06
2.79965e-06
1.58802e-06
8.99155e-07
3.8528e-07
3.14486e-07
2.63842e-07
2.00541e-07
2.42643e-06
1.42741e-06
6.62995e-07
3.17427e-07
3.16259e-07
4.55488e-07
9.84573e-07
9.86271e-07
5.73709e-07
2.71482e-07
3.28233e-07
5.42407e-07
1.58222e-06
1.67584e-06
7.87559e-07
3.71298e-07
2.51431e-07
2.0655e-07
2.3133e-07
2.82342e-07
4.78246e-07
8.34681e-07
1.13043e-06
4.80269e-07
3.10286e-07
2.29526e-07
3.21957e-07
6.96695e-07
1.26131e-06
8.75886e-07
6.12331e-07
5.03259e-07
6.28993e-07
1.58349e-06
2.17708e-06
2.00515e-06
1.05262e-06
5.5538e-07
5.4318e-07
6.13453e-07
6.10667e-07
5.16489e-07
4.02863e-07
4.12777e-07
7.56793e-07
2.73779e-06
3.55519e-06
3.55878e-06
3.38056e-06
1.44234e-06
3.53569e-06
1.08357e-06
3.21667e-07
3.19218e-07
3.05095e-07
3.05181e-07
8.69333e-07
6.54246e-07
2.74137e-07
2.68742e-07
2.70867e-07
2.70969e-07
2.84261e-07
7.13208e-07
2.49694e-06
2.55577e-06
2.2403e-06
7.10224e-07
1.7788e-07
1.78171e-07
1.85885e-07
1.80015e-07
7.41727e-07
8.49671e-07
4.88801e-07
1.52158e-07
1.68694e-07
2.54881e-07
1.26102e-06
7.29439e-07
2.04629e-07
2.19971e-07
6.31144e-07
1.58783e-06
2.10049e-06
9.94944e-07
2.32905e-07
2.37709e-07
2.47088e-07
8.61878e-07
1.80625e-06
1.80366e-06
1.15733e-06
3.21096e-07
2.75547e-07
2.73927e-07
2.75469e-07
1.27991e-06
3.13985e-06
1.37623e-06
4.33428e-05
1.55695e-06
8.48374e-07
5.73835e-07
4.41264e-07
3.73562e-07
3.48066e-07
3.13269e-07
2.90268e-07
2.86265e-07
2.81313e-07
2.70679e-07
3.04002e-07
1.59228e-06
2.50757e-06
2.33711e-06
8.83271e-07
1.84751e-07
1.75657e-07
1.73854e-07
1.72629e-07
1.6998e-07
4.95924e-07
7.08629e-07
2.80705e-07
1.49931e-07
1.49447e-07
1.90259e-07
1.10041e-06
5.80485e-07
1.8844e-07
1.88604e-07
4.41165e-07
1.5685e-06
8.01393e-07
2.69714e-07
2.11091e-07
2.10461e-07
2.10599e-07
9.93274e-07
1.62451e-06
6.31175e-07
2.00624e-07
1.9028e-07
7.13894e-07
2.72733e-07
2.96729e-07
1.05377e-06
9.37927e-07
4.08517e-07
0.00344282
8.82752e-05
1.19202e-06
6.58177e-07
4.62324e-07
3.84619e-07
3.46794e-07
3.31874e-07
3.10034e-07
3.59943e-07
4.33718e-07
5.23177e-07
7.99944e-07
8.03509e-07
5.21075e-07
3.12431e-07
2.62413e-07
2.23119e-07
1.97866e-07
1.78962e-07
1.68576e-07
1.69213e-07
1.85718e-07
1.80741e-07
1.59741e-07
1.48879e-07
1.39274e-07
4.05742e-07
4.86195e-07
1.94915e-07
1.86243e-07
2.08634e-07
2.31138e-07
2.18865e-07
2.23273e-07
6.23223e-07
6.24242e-07
2.10296e-07
2.389e-07
1.02941e-06
1.80132e-06
7.86012e-07
2.01176e-07
1.73286e-07
7.10517e-07
2.67644e-07
2.97423e-07
8.67193e-07
4.61999e-07
2.76992e-07
0.0981278
0.00699528
0.000187474
1.41706e-06
7.53994e-07
3.20843e-07
1.03796e-06
5.11369e-07
4.5225e-07
4.20678e-07
3.95783e-07
3.64168e-07
3.22541e-07
2.67538e-07
2.29437e-07
1.98493e-07
1.68863e-07
1.43138e-07
1.21023e-07
1.03093e-07
9.0112e-08
8.20449e-08
7.80185e-08
7.67825e-08
7.89852e-08
8.61223e-08
9.82034e-08
1.13143e-07
1.20781e-07
1.25429e-07
1.2726e-07
1.26096e-07
1.2321e-07
1.20825e-07
1.22065e-07
1.28638e-07
1.39257e-07
1.53615e-07
1.68618e-07
1.07063e-06
1.78977e-06
1.80171e-06
9.31438e-07
1.54329e-07
1.4645e-07
1.71337e-07
1.85828e-07
2.60641e-07
9.18964e-07
9.72926e-07
2.76798e-08
2.57531e-08
2.38924e-08
2.21631e-08
2.05626e-08
1.90835e-08
1.77195e-08
1.64659e-08
1.53198e-08
1.4279e-08
1.33301e-08
1.23404e-08
1.16177e-08
1.10243e-08
1.0526e-08
1.011e-08
9.76482e-09
9.48127e-09
9.25124e-09
9.06675e-09
8.92044e-09
8.80597e-09
8.7179e-09
8.65137e-09
8.60201e-09
8.56593e-09
8.5398e-09
8.521e-09
8.50767e-09
8.49858e-09
8.49293e-09
8.49006e-09
8.4893e-09
8.48991e-09
8.49104e-09
8.49187e-09
8.49167e-09
8.4898e-09
8.48577e-09
8.4791e-09
8.46927e-09
8.45564e-09
8.43742e-09
8.41382e-09
8.38411e-09
8.34774e-09
8.30433e-09
8.25378e-09
8.19624e-09
8.13219e-09
8.06238e-09
7.98782e-09
7.90962e-09
7.82896e-09
7.74699e-09
7.6647e-09
7.58282e-09
7.50176e-09
7.42169e-09
7.34282e-09
7.26555e-09
7.19034e-09
7.11757e-09
7.04741e-09
6.97988e-09
6.91481e-09
6.85189e-09
6.79072e-09
6.73087e-09
6.67189e-09
6.61337e-09
6.55506e-09
6.49697e-09
6.43937e-09
6.3827e-09
6.32736e-09
6.27358e-09
6.22134e-09
6.17041e-09
6.12046e-09
6.07124e-09
6.02258e-09
5.97443e-09
5.92676e-09
5.8795e-09
5.83246e-09
5.78547e-09
5.73845e-09
5.69149e-09
5.6448e-09
5.59859e-09
5.55301e-09
5.50812e-09
5.46401e-09
5.42084e-09
5.37891e-09
5.33867e-09
5.30069e-09
5.2656e-09
5.23402e-09
5.20649e-09
5.18346e-09
5.16522e-09
5.15188e-09
5.14344e-09
5.13976e-09
5.14061e-09
5.14574e-09
5.15492e-09
5.16803e-09
5.18503e-09
5.206e-09
5.23113e-09
5.26068e-09
5.29492e-09
5.33417e-09
5.37871e-09
5.42889e-09
5.48503e-09
5.54755e-09
5.61688e-09
5.69356e-09
5.77823e-09
5.87167e-09
5.97484e-09
6.08892e-09
6.21529e-09
6.35536e-09
6.51032e-09
6.68079e-09
6.86639e-09
7.06549e-09
7.27527e-09
7.49217e-09
7.71272e-09
7.93436e-09
8.15614e-09
8.37886e-09
8.60497e-09
8.83874e-09
9.08724e-09
9.36149e-09
9.67614e-09
1.00451e-08
1.04737e-08
1.09554e-08
1.148e-08
1.20511e-08
1.26879e-08
1.33958e-08
1.4143e-08
1.48905e-08
1.56391e-08
1.64114e-08
1.7192e-08
1.7908e-08
1.84576e-08
1.87201e-08
1.85811e-08
1.79721e-08
1.6917e-08
1.55686e-08
1.42067e-08
1.31726e-08
1.27416e-08
1.29923e-08
1.37843e-08
1.49039e-08
1.62499e-08
1.78497e-08
1.97447e-08
2.19582e-08
2.44851e-08
2.72744e-08
3.01884e-08
3.29442e-08
3.50766e-08
3.59899e-08
3.51514e-08
3.23791e-08
2.80734e-08
2.63626e-08
2.53258e-08
2.27379e-08
1.89625e-08
1.5999e-08
1.4823e-08
1.50978e-08
1.58338e-08
1.66922e-08
1.76e-08
1.81697e-08
1.83596e-08
1.85801e-08
1.90277e-08
1.9289e-08
1.79164e-08
1.59552e-08
2.12461e-08
2.08357e-08
2.308e-08
2.47842e-08
2.05129e-08
1.94649e-08
1.74148e-08
1.5018e-08
2.1526e-08
2.30134e-08
2.73638e-08
3.04686e-08
3.2262e-08
3.25831e-08
3.44056e-08
3.22475e-08
4.15741e-08
3.6674e-08
3.00873e-08
5.89522e-08
3.08419e-08
2.44861e-08
1.84162e-08
1.28203e-08
1.29264e-08
1.28685e-08
1.28309e-08
1.28889e-08
1.31206e-08
1.33887e-08
1.38968e-08
1.45682e-08
1.4912e-08
1.65686e-08
1.98749e-08
1.6099e-08
2.84603e-08
2.88026e-08
2.64066e-08
2.45032e-08
2.31393e-08
1.94238e-08
2.9349e-08
3.16738e-08
2.02168e-08
6.28511e-08
4.43193e-08
3.71063e-08
2.92999e-08
2.13319e-08
1.93088e-08
1.84286e-08
1.69628e-08
1.47665e-08
1.28173e-08
1.19616e-08
1.24938e-08
1.39348e-08
1.34093e-08
1.82762e-08
2.14874e-08
2.17892e-08
2.34596e-08
2.54669e-08
3.77417e-08
9.15019e-08
5.04523e-08
4.08095e-08
3.21962e-08
3.12906e-08
3.50834e-08
3.76837e-08
3.75845e-08
4.1417e-08
4.52644e-08
6.07553e-08
1.20902e-07
1.0453e-07
8.321e-08
5.52847e-08
3.35387e-08
1.92129e-08
1.07757e-08
6.1356e-09
3.63218e-09
2.23713e-09
1.4062e-09
8.78957e-10
5.34039e-10
3.10245e-10
1.70178e-10
8.72501e-11
4.14648e-11
1.81215e-11
7.22494e-12
2.6061e-12
8.43017e-13
2.42235e-13
6.11896e-14
1.34331e-14
2.53032e-15
4.03128e-16
3.65083e-08
3.45027e-08
3.24702e-08
3.04448e-08
2.84554e-08
2.6523e-08
2.46612e-08
2.28776e-08
2.1176e-08
1.95594e-08
1.80269e-08
1.65426e-08
1.51761e-08
1.39359e-08
1.28217e-08
1.18323e-08
1.0965e-08
1.02153e-08
9.48674e-09
8.93494e-09
8.53063e-09
8.20977e-09
7.95705e-09
7.76066e-09
7.61059e-09
7.49816e-09
7.41599e-09
7.35795e-09
7.31912e-09
7.29567e-09
7.2846e-09
7.28351e-09
7.29029e-09
7.30301e-09
7.31987e-09
7.3393e-09
7.35999e-09
7.3809e-09
7.40125e-09
7.42043e-09
7.43795e-09
7.45335e-09
7.46619e-09
7.476e-09
7.48238e-09
7.48495e-09
7.48344e-09
7.47763e-09
7.46744e-09
7.45291e-09
7.43419e-09
7.4116e-09
7.38554e-09
7.35646e-09
7.32486e-09
7.29122e-09
7.25603e-09
7.21974e-09
7.1828e-09
7.14569e-09
7.1089e-09
7.07293e-09
7.03824e-09
7.00524e-09
6.97421e-09
6.94532e-09
6.91861e-09
6.894e-09
6.8713e-09
6.85023e-09
6.8305e-09
6.81178e-09
6.79383e-09
6.77649e-09
6.75969e-09
6.7434e-09
6.72766e-09
6.71257e-09
6.69826e-09
6.68494e-09
6.67291e-09
6.66254e-09
6.65426e-09
6.64847e-09
6.64558e-09
6.64586e-09
6.64954e-09
6.65674e-09
6.66753e-09
6.68191e-09
6.69981e-09
6.72112e-09
6.74568e-09
6.77338e-09
6.80416e-09
6.83804e-09
6.87513e-09
6.91565e-09
6.95981e-09
7.00785e-09
7.05999e-09
7.11639e-09
7.17716e-09
7.2424e-09
7.31218e-09
7.38665e-09
7.46599e-09
7.55052e-09
7.64065e-09
7.73689e-09
7.8398e-09
7.94997e-09
8.06797e-09
8.19435e-09
8.32962e-09
8.47429e-09
8.6289e-09
8.79413e-09
8.97078e-09
9.15995e-09
9.36304e-09
9.58186e-09
9.81872e-09
1.00765e-08
1.03584e-08
1.06681e-08
1.10092e-08
1.13848e-08
1.17974e-08
1.22482e-08
1.2738e-08
1.32672e-08
1.38374e-08
1.44533e-08
1.51232e-08
1.58605e-08
1.66826e-08
1.76077e-08
1.86473e-08
1.97939e-08
2.10084e-08
2.22206e-08
2.33555e-08
2.43857e-08
2.5364e-08
2.63783e-08
2.74427e-08
2.84657e-08
2.94115e-08
3.04799e-08
3.19675e-08
3.38985e-08
3.59669e-08
3.78738e-08
3.94856e-08
4.07047e-08
4.17804e-08
4.27852e-08
4.26644e-08
4.11514e-08
3.82897e-08
3.8243e-08
3.84908e-08
3.78166e-08
3.41601e-08
2.95249e-08
2.61245e-08
2.4855e-08
2.52062e-08
2.78407e-08
3.263e-08
3.79246e-08
4.33071e-08
4.94656e-08
5.63842e-08
6.38345e-08
7.1447e-08
7.86315e-08
8.5177e-08
9.22482e-08
1.25975e-07
6.67652e-08
5.28996e-08
5.80455e-08
6.76977e-08
6.78869e-08
6.07519e-08
4.72796e-08
3.36102e-08
2.69013e-08
2.57772e-08
2.91886e-08
3.0637e-08
3.20476e-08
3.36741e-08
3.43497e-08
3.70335e-08
6.91748e-08
2.33824e-08
3.63904e-08
3.48537e-08
3.77693e-08
4.27834e-08
4.38722e-08
4.32305e-08
1.03568e-07
4.97805e-08
4.8205e-08
4.35574e-08
3.99914e-08
3.80591e-08
3.65522e-08
5.2504e-08
4.41152e-08
9.25203e-08
5.45787e-08
5.27859e-08
6.7407e-08
6.48348e-08
6.20359e-08
6.22812e-08
9.30772e-08
9.31027e-08
8.00168e-08
6.06355e-08
4.20679e-08
2.85652e-08
2.16355e-08
1.87446e-08
1.98548e-08
2.10503e-08
2.22207e-08
2.49041e-08
2.55944e-08
3.14386e-08
3.56685e-08
3.83191e-08
4.21824e-08
3.25477e-08
1.00981e-07
6.80352e-08
6.27417e-08
5.27568e-08
5.58904e-08
5.37023e-08
5.92887e-08
7.0198e-08
1.06665e-07
8.89832e-08
7.42357e-08
5.2892e-08
4.00999e-08
3.29321e-08
3.38228e-08
3.25293e-08
2.87864e-08
2.43258e-08
2.39187e-08
2.42078e-08
2.31803e-08
3.23489e-08
3.69548e-08
4.21814e-08
5.08209e-08
6.42625e-08
1.02139e-07
1.391e-07
1.29376e-07
9.97246e-08
6.51222e-08
8.27707e-08
1.25682e-07
8.55214e-08
7.68687e-08
7.63592e-08
2.70339e-07
2.37679e-07
7.98949e-08
5.62826e-08
4.12698e-08
2.83975e-08
1.79222e-08
1.05504e-08
5.95684e-09
3.31569e-09
1.8527e-09
1.04133e-09
5.81226e-10
3.16678e-10
1.65604e-10
8.18872e-11
3.78274e-11
1.61615e-11
6.32959e-12
2.2533e-12
7.23031e-13
2.0732e-13
5.26476e-14
1.17305e-14
2.27059e-15
4.37874e-08
4.26343e-08
4.12525e-08
3.96681e-08
3.79106e-08
3.60256e-08
3.4064e-08
3.20712e-08
3.00819e-08
2.81207e-08
2.62032e-08
2.43314e-08
2.25174e-08
2.07708e-08
1.90995e-08
1.75108e-08
1.6013e-08
1.46166e-08
1.33049e-08
1.2123e-08
1.109e-08
1.01989e-08
9.43952e-09
8.80069e-09
8.25089e-09
7.76063e-09
7.44251e-09
7.20366e-09
7.0254e-09
6.89544e-09
6.8043e-09
6.74453e-09
6.7101e-09
6.69607e-09
6.69824e-09
6.71303e-09
6.73744e-09
6.76898e-09
6.80562e-09
6.8457e-09
6.88788e-09
6.93104e-09
6.97425e-09
7.01674e-09
7.05785e-09
7.09707e-09
7.134e-09
7.16836e-09
7.2e-09
7.22885e-09
7.255e-09
7.27859e-09
7.29987e-09
7.31914e-09
7.33672e-09
7.35297e-09
7.36823e-09
7.38288e-09
7.39726e-09
7.41172e-09
7.42658e-09
7.44214e-09
7.45864e-09
7.47627e-09
7.49516e-09
7.51538e-09
7.53692e-09
7.55973e-09
7.5837e-09
7.60873e-09
7.6347e-09
7.66152e-09
7.68915e-09
7.71761e-09
7.74703e-09
7.77756e-09
7.80947e-09
7.84309e-09
7.87884e-09
7.91717e-09
7.9586e-09
8.00366e-09
8.05287e-09
8.1067e-09
8.16552e-09
8.22962e-09
8.29918e-09
8.37426e-09
8.45483e-09
8.54077e-09
8.63192e-09
8.72807e-09
8.829e-09
8.93452e-09
9.04448e-09
9.15877e-09
9.27733e-09
9.40015e-09
9.52726e-09
9.65873e-09
9.79467e-09
9.93527e-09
1.00808e-08
1.02316e-08
1.03882e-08
1.05511e-08
1.07211e-08
1.08989e-08
1.10854e-08
1.12814e-08
1.14876e-08
1.1705e-08
1.19342e-08
1.21759e-08
1.24312e-08
1.2701e-08
1.29866e-08
1.32898e-08
1.36126e-08
1.3958e-08
1.43295e-08
1.47315e-08
1.51693e-08
1.56491e-08
1.61779e-08
1.67628e-08
1.74112e-08
1.81302e-08
1.89261e-08
1.98049e-08
2.07722e-08
2.18335e-08
2.29949e-08
2.42622e-08
2.56412e-08
2.71355e-08
2.87447e-08
3.04608e-08
3.22647e-08
3.41219e-08
3.5984e-08
3.77987e-08
3.95318e-08
4.11895e-08
4.28139e-08
4.44406e-08
4.60473e-08
4.75619e-08
4.89446e-08
5.02643e-08
5.17048e-08
5.71768e-08
5.8942e-08
6.07614e-08
6.54753e-08
7.55748e-08
6.80082e-08
5.10395e-08
4.82429e-08
5.10059e-08
1.95541e-07
2.63373e-07
2.19365e-07
6.89149e-08
6.58535e-08
6.16389e-08
5.74196e-08
6.41825e-08
1.47098e-07
1.76991e-07
8.8362e-08
5.74704e-08
6.98696e-08
7.08037e-08
7.15424e-08
7.92565e-08
9.13353e-08
1.04299e-07
1.16214e-07
1.2357e-07
1.23957e-07
1.46252e-07
3.71057e-07
5.56104e-07
1.67246e-07
1.59565e-07
1.61477e-07
1.47479e-07
1.58888e-07
2.08403e-07
2.6874e-07
8.44166e-08
5.72488e-08
4.89512e-08
4.89474e-08
4.78138e-08
4.71395e-08
5.24963e-08
8.10031e-08
5.3314e-08
4.46624e-08
1.56449e-07
8.01803e-08
6.85942e-08
5.76264e-08
8.3025e-08
8.41075e-08
8.43657e-08
1.12933e-07
1.70062e-07
2.02861e-07
1.8068e-07
1.36555e-07
9.5089e-08
8.04124e-08
7.48688e-08
6.40722e-08
1.26532e-07
1.31736e-07
9.73065e-08
8.8081e-08
1.09958e-07
1.06214e-07
9.13908e-08
8.35818e-08
8.65865e-08
2.2166e-07
3.0747e-07
3.06773e-07
1.06615e-07
5.42823e-08
3.72799e-08
3.09942e-08
2.92314e-08
2.98268e-08
3.01856e-08
7.03684e-08
5.69672e-08
5.45148e-08
6.2008e-08
6.31267e-08
6.39458e-08
1.0816e-07
2.73015e-07
2.73805e-07
1.5077e-07
7.28069e-08
7.5145e-08
7.30004e-08
7.13829e-08
2.51836e-07
3.02952e-07
2.75565e-07
7.9834e-08
5.35639e-08
5.79886e-08
1.14751e-07
7.7386e-08
6.37538e-08
4.91565e-08
4.28122e-08
4.15836e-08
4.72886e-08
8.62037e-08
9.99288e-08
7.96771e-08
7.87796e-08
1.57756e-07
5.42911e-07
5.18536e-07
2.12151e-07
1.25217e-07
8.67507e-08
7.01765e-08
7.38293e-08
2.67038e-07
2.72593e-07
1.33128e-07
3.85427e-08
3.75627e-08
2.90819e-08
1.9137e-08
1.12615e-08
6.11591e-09
3.15612e-09
1.59199e-09
8.00995e-10
4.05263e-10
2.04173e-10
1.00442e-10
4.73178e-11
2.10042e-11
8.67213e-12
3.2938e-12
1.13924e-12
3.55256e-13
9.88625e-14
2.4292e-14
5.21197e-15
9.65669e-16
4.5598e-08
4.47171e-08
4.44055e-08
4.39007e-08
4.32344e-08
4.24119e-08
4.1405e-08
4.01946e-08
3.87841e-08
3.71962e-08
3.54676e-08
3.36419e-08
3.17638e-08
2.98704e-08
2.79872e-08
2.61288e-08
2.43022e-08
2.25133e-08
2.0765e-08
1.90728e-08
1.74574e-08
1.59366e-08
1.45238e-08
1.32282e-08
1.205e-08
1.09845e-08
1.00642e-08
9.28253e-09
8.62869e-09
8.09022e-09
7.62769e-09
7.25351e-09
7.00243e-09
6.82155e-09
6.69462e-09
6.61057e-09
6.5608e-09
6.53839e-09
6.53773e-09
6.55424e-09
6.58417e-09
6.62445e-09
6.67251e-09
6.72625e-09
6.7839e-09
6.84403e-09
6.90549e-09
6.96742e-09
7.02918e-09
7.09036e-09
7.15075e-09
7.21031e-09
7.26914e-09
7.32743e-09
7.38544e-09
7.44346e-09
7.50179e-09
7.56068e-09
7.62035e-09
7.68096e-09
7.74259e-09
7.80529e-09
7.86902e-09
7.93372e-09
7.99931e-09
8.0657e-09
8.13281e-09
8.2006e-09
8.26908e-09
8.33832e-09
8.40845e-09
8.4797e-09
8.55234e-09
8.62674e-09
8.70334e-09
8.78262e-09
8.86509e-09
8.9513e-09