/*--------------------------------*- C++ -*----------------------------------*\
| =========                 |                                                 |
| \\      /  F ield         | OpenFOAM: The Open Source CFD Toolbox           |
|  \\    /   O peration     | Version:  2.4.0                                 |
|   \\  /    A nd           | Web:      www.OpenFOAM.org                      |
|    \\/     M anipulation  |                                                 |
\*---------------------------------------------------------------------------*/
FoamFile
{
    version     2.0;
    format      ascii;
    class       volScalarField;
    location    "4";
    object      H;
}
// * * * * * * * * * * * * * * * * * * * * * * * * * * * * * * * * * * * * * //

dimensions      [0 2 -2 0 0 0 0];

internalField   nonuniform List<scalar> 
8000
(
-11957
-11413.3
-10875.7
-10347.7
-9832.32
-9332.04
-8848.89
-8384.53
-7940.26
-7517.02
-7115.4
-6735.67
-6377.79
-6041.39
-5725.84
-5430.23
-5153.45
-4894.17
-4650.93
-4422.16
-4206.21
-4001.4
-3806.05
-3618.54
-3437.31
-3260.93
-3088.09
-2917.65
-2748.63
-2580.27
-2412
-2243.49
-2074.63
-1905.51
-1736.48
-1568.05
-1400.94
-1235.99
-1074.14
-916.343
-763.53
-616.428
-475.4
-341.614
-219.848
-104.44
-0.338936
-0.823286
-0.730876
-0.51918
-11968.5
-11447.9
-10933.8
-10429.9
-9939.11
-9463.85
-9006.01
-8567.03
-8147.89
-7749.18
-7371.1
-7013.49
-6675.86
-6357.43
-6057.15
-5773.73
-5505.71
-5251.48
-5009.36
-4777.59
-4554.42
-4338.14
-4127.13
-3919.86
-3714.98
-3511.3
-3307.85
-3103.87
-2898.86
-2692.54
-2484.9
-2276.19
-2066.9
-1857.74
-1649.62
-1443.61
-1240.9
-1042.7
-849.956
-663.464
-485.599
-317.27
-145.944
-0.505188
-0.00648808
-0.00243333
-0.0116548
-0.0278053
-0.0407645
-0.0432469
-11982.1
-11488.7
-11001.7
-10524.6
-10060.1
-9610.53
-9177.49
-8762.15
-8365.19
-7986.84
-7626.94
-7284.94
-6959.95
-6650.8
-6356.07
-6074.18
-5803.36
-5541.82
-5287.71
-5039.21
-4794.61
-4552.31
-4310.89
-4069.17
-3826.19
-3581.28
-3334.06
-3084.44
-2832.63
-2579.12
-2324.69
-2070.34
-1817.24
-1566.8
-1320.49
-1079.34
-844.786
-620.962
-401.615
-171.806
-0.641686
-0.00876756
-0.0037855
-0.0095559
-0.0131596
-0.0176173
-0.0204078
-0.0250569
-0.0298129
-0.0345665
-11996.7
-11532.2
-11073.3
-10623
-10183.7
-9757.4
-9345.44
-8948.7
-8567.57
-8201.97
-7851.41
-7515
-7191.52
-6879.49
-6577.2
-6282.83
-5994.45
-5710.15
-5428.07
-5146.49
-4863.9
-4579.03
-4290.92
-3998.95
-3702.88
-3402.82
-3099.29
-2793.14
-2485.58
-2178.1
-1872.37
-1570.17
-1272.87
-983.259
-709.003
-433.867
-139.211
-0.553233
-0.0105278
-0.00543793
-0.0129589
-0.0172523
-0.0205857
-0.025761
-0.0321358
-0.0390887
-0.0467231
-0.0550772
-0.0636583
-0.0721372
-12010.4
-11572.7
-11139.4
-10712.9
-10295.1
-9887.51
-9491.21
-9106.7
-8734.06
-8372.88
-8022.37
-7681.36
-7348.34
-7021.61
-6699.26
-6379.31
-6059.8
-5738.83
-5414.67
-5085.88
-4751.31
-4410.24
-4062.36
-3707.85
-3347.34
-2981.91
-2613.08
-2242.84
-1873.57
-1508.01
-1149.06
-803.206
-443.539
-59.4454
-0.242371
-0.0104101
-0.00628117
-0.0182556
-0.0298488
-0.0423823
-0.0577206
-0.0753892
-0.0919668
-0.106483
-0.118121
-0.127266
-0.134215
-0.139027
-0.142109
-0.143867
-12021.8
-11606.6
-11194.5
-10787.3
-10386.3
-9992.49
-9606.46
-9228.32
-8857.79
-8494.12
-8136.23
-7782.65
-7431.68
-7081.36
-6729.66
-6374.48
-6013.83
-5645.88
-5269.07
-4882.24
-4484.68
-4076.21
-3657.24
-3228.69
-2791.98
-2348.88
-1901.72
-1453.81
-1008.93
-556.278
-95.7468
-0.388968
-0.0121274
-0.00508464
-0.0313775
-0.0613171
-0.0890341
-0.118921
-0.143305
-0.161122
-0.172683
-0.179035
-0.181534
-0.18131
-0.179242
-0.175971
-0.171962
-0.167499
-0.1628
-0.158015
-12031.4
-11635.1
-11240.8
-10849.7
-10462.3
-10079.2
-9700.31
-9325.3
-8953.44
-8583.63
-8214.41
-7844.01
-7470.4
-7091.38
-6704.66
-6308.04
-5899.46
-5477.05
-5039.29
-4585.22
-4114.49
-3627.47
-3125.25
-2609.32
-2081
-1541.5
-994.527
-443.84
-1.60901
-0.0205687
-0.00795889
-0.0550396
-0.110008
-0.149823
-0.185741
-0.211769
-0.224556
-0.227112
-0.223117
-0.215417
-0.205836
-0.195454
-0.184902
-0.174536
-0.164554
-0.155067
-0.146133
-0.137785
-0.130031
-0.122865
-12040
-11660.3
-11281.9
-10905.1
-10529.8
-10155.9
-9782.76
-9409.48
-9034.87
-8657.39
-8275.21
-7886.21
-7488.05
-7078.19
-6654.04
-6213.02
-5752.72
-5271.05
-4766.45
-4238.1
-3686.11
-3111.71
-2516.88
-1902.58
-1265.09
-594.424
-1.96455
-0.0237989
-0.0999458
-0.184898
-0.256225
-0.302428
-0.317404
-0.312307
-0.295524
-0.273192
-0.249187
-0.225656
-0.203574
-0.183322
-0.164978
-0.14849
-0.133754
-0.120645
-0.109038
-0.0988142
-0.0898563
-0.0820545
-0.0753025
-0.0694997
-12046.7
-11680.4
-11314.5
-10948.6
-10582.2
-10214.5
-9844.3
-9470.33
-9090.88
-8703.97
-8307.3
-7898.26
-7473.95
-7031.24
-6566.84
-6077.46
-5560.03
-5011.89
-4431.27
-3817.67
-3172.36
-2498.52
-1800.39
-1080.65
-339.002
-1.58088
-1.23823
-0.867202
-0.725036
-0.632659
-0.544092
-0.457573
-0.378312
-0.310093
-0.253559
-0.207905
-0.171314
-0.141987
-0.118435
-0.099485
-0.0842351
-0.0719841
-0.0621826
-0.0543936
-0.0482632
-0.0434995
-0.0398579
-0.0371315
-0.0351456
-0.0337541
-12052.5
-11697.5
-11342.1
-10985.8
-10627.6
-10266.5
-9901.12
-9529.7
-9150.25
-8760.36
-8357.29
-7937.78
-7498.19
-7034.43
-6542.17
-6016.93
-5454.53
-4851.69
-4206.67
-3519.89
-2793.28
-2026.18
-1206.23
-304.394
-2.20653
-1.63971
-1.37911
-1.15636
-0.917185
-0.679943
-0.48105
-0.330854
-0.224084
-0.150846
-0.102448
-0.0739737
-0.0573671
-0.0475279
-0.0414519
-0.0374681
-0.0346854
-0.032639
-0.0310864
-0.0298964
-0.028992
-0.0283238
-0.0278559
-0.0275605
-0.0274148
-0.0273998
-12059.7
-11719.5
-11380
-11041
-10701.8
-10361.3
-10018.1
-9670.58
-9316.71
-8954.09
-8579.88
-8190.67
-7782.43
-7350.35
-6888.77
-6391.08
-5850.26
-5260.48
-4617.29
-3916.56
-3149.85
-2291.98
-1276.59
-4.40277
-1.38014
-1.53852
-1.22889
-0.997926
-0.718262
-0.467404
-0.285273
-0.174078
-0.112454
-0.0793934
-0.0613686
-0.0509587
-0.0444122
-0.0399014
-0.0365517
-0.0339376
-0.0318372
-0.0301215
-0.0287055
-0.0275288
-0.0265474
-0.025729
-0.0250486
-0.0244862
-0.0240258
-0.0236539
-12066.4
-11739.5
-11413.3
-11087.9
-10762.9
-10437.9
-10112.3
-9785.4
-9456.4
-9124.37
-8788.09
-8445.87
-8095.42
-7733.59
-7356.25
-6958.04
-6532.3
-6070.99
-5564.76
-5003.05
-4374.09
-3664.54
-2861.02
-1961.01
-1004.02
-4.6391
-0.306471
-0.596164
-0.405703
-0.311211
-0.226757
-0.163475
-0.118883
-0.0897051
-0.0714704
-0.0598305
-0.052101
-0.046549
-0.0422738
-0.0388105
-0.0359384
-0.0335399
-0.0315213
-0.0297993
-0.0283084
-0.0270012
-0.0258441
-0.0248122
-0.0238862
-0.0230515
-12054.2
-11701.3
-11345.8
-10987
-10624.9
-10259.9
-9893
-9525.22
-9157.93
-8792.42
-8429.82
-8070.88
-7715.73
-7363.7
-7013.04
-6660.76
-6302.42
-5932.07
-5542.21
-5123.96
-4667.5
-4162.8
-3600.9
-2976.47
-2292.36
-1563.95
-816.787
-2.96612
-0.178039
-0.293497
-0.229672
-0.186784
-0.146101
-0.116504
-0.0949019
-0.0795146
-0.0691759
-0.0621304
-0.0568376
-0.0521984
-0.047938
-0.0441655
-0.0409903
-0.038344
-0.0361121
-0.0341981
-0.0325374
-0.0310838
-0.0297988
-0.0286508
-12023.7
-11609
-11189.1
-10762.9
-10330.5
-9893.32
-9453.34
-9013.33
-8576.33
-8145.46
-7723.72
-7313.71
-6917.42
-6536.09
-6170.01
-5818.39
-5479.31
-5149.65
-4825.15
-4500.47
-4169.34
-3824.84
-3459.68
-3066.72
-2639.56
-2173.26
-1665.97
-1122.42
-577.434
-304.957
-1.07455
-0.0229422
-0.000986456
-0.0265661
-0.0408919
-0.0558594
-0.0644923
-0.0721178
-0.0771155
-0.0791579
-0.0787086
-0.07581
-0.0712235
-0.0656892
-0.0599946
-0.0547359
-0.0502345
-0.0465671
-0.0436532
-0.0413452
-11991.2
-11511.8
-11027.9
-10538.7
-10044.6
-9547.13
-9048.87
-8552.86
-8062.54
-7581.46
-7113.07
-6660.5
-6226.42
-5812.89
-5421.27
-5052.16
-4705.37
-4379.92
-4074.07
-3785.39
-3510.88
-3247.02
-2989.96
-2735.62
-2479.88
-2218.78
-1948.71
-1666.44
-1368.88
-1053.62
-715.694
-357.587
-1.15957
-0.0144064
-0.00729753
-0.00585297
-0.0164705
-0.0258061
-0.0309949
-0.0410524
-0.0472185
-0.0550594
-0.0619418
-0.0674427
-0.0708178
-0.0722828
-0.0722521
-0.0711387
-0.069288
-0.0669751
-11964.4
-11432.3
-10898.2
-10361.9
-9824.37
-9287.2
-8752.68
-8223.53
-7702.71
-7193.28
-6698.16
-6220.11
-5761.52
-5324.39
-4910.27
-4520.19
-4154.71
-3813.83
-3497.11
-3203.64
-2932.17
-2681.06
-2448.36
-2231.85
-2029.14
-1837.84
-1655.58
-1480.15
-1309.57
-1142.17
-976.68
-812.315
-648.661
-486.957
-324.805
-159.626
-0.534233
-0.00503862
-0.0018991
-5.31743e-05
-0.00697253
-0.0164985
-0.0235123
-0.0330271
-0.0422793
-0.0507902
-0.0574263
-0.0622041
-0.0654129
-0.0673903
-11947.4
-11382
-10816.4
-10251.3
-9688.13
-9128.57
-8574.77
-8029.05
-7493.8
-6971.4
-6464.1
-5973.99
-5502.95
-5052.61
-4624.36
-4219.3
-3838.25
-3481.73
-3149.92
-2842.71
-2559.67
-2300.04
-2062.79
-1846.71
-1650.39
-1472.3
-1310.74
-1163.93
-1030.05
-907.322
-794.104
-688.888
-590.359
-497.422
-409.186
-324.812
-243.718
-164.656
-84.1755
-0.280072
-0.00287392
-0.000696575
-2.43422e-05
-0.00401048
-0.00994326
-0.0160102
-0.0231834
-0.0302331
-0.0371718
-0.0433056
-11938.3
-11355.4
-10774.2
-10196.2
-9623.37
-9057.58
-8500.7
-7954.47
-7420.43
-6899.97
-6394.36
-5904.76
-5432.3
-4978.1
-4543.27
-4128.9
-3736.03
-3365.62
-3018.49
-2695.27
-2396.33
-2121.74
-1871.27
-1644.34
-1440.09
-1257.35
-1094.72
-950.628
-823.387
-711.269
-612.551
-525.573
-448.769
-380.711
-320.136
-265.962
-217.244
-173.169
-133.039
-96.6918
-63.5776
-32.1731
-0.10871
-0.00177116
-0.000697567
-2.52518e-05
-0.00385221
-0.00741731
-0.0107969
-0.0146926
-11921.3
-11305.9
-10697.6
-10100.5
-9517.68
-8950.71
-8400.21
-7866.05
-7347.69
-6844.45
-6355.71
-5881.04
-5420.39
-4974.06
-4542.77
-4127.55
-3729.67
-3350.39
-2991.08
-2654.2
-2340.68
-2051.36
-1786.84
-1547.31
-1332.55
-1141.78
-973.803
-827.09
-699.885
-590.302
-496.404
-416.285
-348.125
-290.238
-241.09
-199.317
-163.712
-133.209
-106.996
-84.402
-64.773
-47.655
-32.8304
-20.2797
-9.69276
-0.0328755
-0.000144404
-0.0104811
-0.0093582
-0.00841837
-11745.6
-10926.1
-10210
-9568.08
-8980.52
-8433.63
-7917.62
-7425.37
-6951.68
-6492.75
-6045.97
-5609.63
-5182.86
-4765.51
-4358.05
-3961.5
-3577.32
-3207.32
-2853.46
-2517.81
-2202.42
-1909.26
-1640.13
-1396.45
-1179.32
-989.324
-824.355
-682.467
-561.607
-459.593
-374.191
-303.206
-244.564
-196.357
-156.874
-124.616
-98.288
-76.7965
-59.2257
-44.8181
-32.9526
-23.1288
-14.9613
-8.18545
-2.66513
-0.00816097
-0.00451928
-0.00289033
-0.00211396
-0.0017971
-0.407273
-0.305105
-0.23796
-0.185568
-0.153866
-0.12936
-0.110376
-0.0962828
-0.0861951
-0.0791596
-0.0743574
-0.0711574
-0.0690893
-0.0678018
-0.0670365
-0.0666005
-0.0663471
-0.06616
-0.065939
-0.065593
-0.0650553
-0.0641458
-0.0627855
-0.0608368
-0.0582042
-0.0547691
-0.0504293
-0.0455794
-0.0407802
-0.0362251
-0.0319851
-0.0280827
-0.0245128
-0.021259
-0.0183023
-0.015626
-0.0132171
-0.0110657
-0.0091638
-0.00750336
-0.00607443
-0.004864
-0.0038556
-0.00302965
-0.00236449
-0.00183764
-0.00142694
-0.00111163
-0.000872975
-0.000694905
-0.0454097
-0.0480264
-0.0503179
-0.0520421
-0.0536611
-0.055304
-0.0570097
-0.0587403
-0.0604216
-0.0619765
-0.0633422
-0.0644783
-0.0653696
-0.0660207
-0.066452
-0.0666911
-0.0667682
-0.0667115
-0.0665424
-0.0662713
-0.0659065
-0.0653785
-0.0646428
-0.0636349
-0.0622482
-0.0603693
-0.057884
-0.0546917
-0.0507231
-0.0463434
-0.0420247
-0.0379769
-0.0341865
-0.0306445
-0.0273413
-0.0242667
-0.0214109
-0.0187657
-0.0163247
-0.0140833
-0.012039
-0.0101903
-0.0085359
-0.00707312
-0.00579713
-0.00470003
-0.00377082
-0.00299599
-0.00236084
-0.00185214
-0.03937
-0.044282
-0.0494158
-0.0549182
-0.0603152
-0.0652759
-0.0696062
-0.0732012
-0.0760307
-0.0781693
-0.0796834
-0.0806404
-0.0811091
-0.0811573
-0.0808475
-0.0802396
-0.0793889
-0.0783485
-0.0771667
-0.0758894
-0.0745563
-0.0731953
-0.0718302
-0.070468
-0.0690953
-0.0676716
-0.0661347
-0.0643996
-0.0623117
-0.0596947
-0.0563213
-0.0522767
-0.0479807
-0.0438524
-0.0399327
-0.0362452
-0.0327935
-0.0295695
-0.0265598
-0.023752
-0.0211351
-0.0186994
-0.016436
-0.0143388
-0.0124042
-0.0106312
-0.00902043
-0.0075733
-0.00629327
-0.00519258
-0.080188
-0.0874705
-0.0937418
-0.0986866
-0.10252
-0.105404
-0.107472
-0.108839
-0.109606
-0.109863
-0.109684
-0.109135
-0.10827
-0.107135
-0.105768
-0.1042
-0.102456
-0.100558
-0.0985227
-0.0963666
-0.0941045
-0.0917522
-0.0893283
-0.0868533
-0.084346
-0.0818313
-0.0793376
-0.0768974
-0.0745354
-0.0722668
-0.0700656
-0.067848
-0.0654679
-0.0627092
-0.0595186
-0.0559483
-0.0521153
-0.0481605
-0.0442177
-0.0403823
-0.0367097
-0.0332265
-0.0299455
-0.0268689
-0.0239912
-0.0213049
-0.0188029
-0.0164808
-0.0143427
-0.0124238
-0.144605
-0.14456
-0.143917
-0.14282
-0.141379
-0.139685
-0.137806
-0.135798
-0.133707
-0.131567
-0.129408
-0.127251
-0.125112
-0.123004
-0.120934
-0.118906
-0.116919
-0.114969
-0.113054
-0.111165
-0.109293
-0.107428
-0.105557
-0.103664
-0.101732
-0.0997399
-0.0976692
-0.0955041
-0.0932361
-0.090876
-0.0884554
-0.0860005
-0.0835003
-0.080889
-0.078161
-0.0752929
-0.0722473
-0.0689988
-0.0655433
-0.0619036
-0.0581049
-0.0541755
-0.0501596
-0.0461238
-0.0421402
-0.0382671
-0.0345468
-0.0310093
-0.0276854
-0.0246506
-0.153244
-0.148557
-0.144003
-0.13962
-0.135431
-0.131454
-0.127699
-0.124174
-0.120883
-0.117825
-0.114998
-0.112398
-0.110019
-0.107854
-0.105897
-0.104138
-0.102568
-0.101173
-0.0999422
-0.0988656
-0.0979295
-0.0971215
-0.0964281
-0.0958349
-0.0953239
-0.09487
-0.0944096
-0.0938179
-0.0930904
-0.0922169
-0.0911777
-0.0899646
-0.0885722
-0.0870013
-0.0852646
-0.0833747
-0.081336
-0.0791477
-0.0768085
-0.074311
-0.0716328
-0.0687382
-0.0655953
-0.0621919
-0.0585427
-0.0546905
-0.050704
-0.046651
-0.0426216
-0.0387802
-0.116277
-0.110249
-0.104758
-0.0997815
-0.0952916
-0.0912614
-0.0876625
-0.084467
-0.0816474
-0.0791782
-0.0770334
-0.0751897
-0.0736238
-0.0723153
-0.0712456
-0.070396
-0.0697486
-0.0692867
-0.0689936
-0.0688554
-0.0688613
-0.0690003
-0.0692589
-0.0696202
-0.0700454
-0.0704227
-0.0708055
-0.0713126
-0.0719058
-0.0725433
-0.0731805
-0.0737711
-0.0742745
-0.0746575
-0.0748951
-0.0749619
-0.074835
-0.074499
-0.0739503
-0.0731845
-0.0721802
-0.0709102
-0.0693412
-0.0674382
-0.0651672
-0.0625137
-0.0594943
-0.0561438
-0.0525413
-0.0488692
-0.064551
-0.0603655
-0.0568581
-0.0539508
-0.0515709
-0.0496509
-0.048131
-0.046959
-0.04609
-0.0454859
-0.0451149
-0.0449493
-0.0449652
-0.0451413
-0.0454584
-0.0458975
-0.0464404
-0.0470694
-0.0477687
-0.0485251
-0.0493303
-0.0501808
-0.0510815
-0.0520568
-0.0531711
-0.0545854
-0.0562004
-0.0579246
-0.0596744
-0.0613838
-0.0630005
-0.0644892
-0.0658225
-0.066982
-0.0679536
-0.0687265
-0.0692936
-0.0696427
-0.0697681
-0.0696553
-0.0692847
-0.0686281
-0.0676521
-0.0663224
-0.0646064
-0.0624774
-0.059937
-0.0570097
-0.0537693
-0.0503862
-0.0328374
-0.0322987
-0.0320628
-0.0320781
-0.0322908
-0.0326542
-0.0331394
-0.0337304
-0.0344199
-0.0352059
-0.0360887
-0.0370687
-0.0381448
-0.0393133
-0.0405676
-0.0418975
-0.0432894
-0.0447257
-0.0461841
-0.0476376
-0.049055
-0.0504009
-0.0516346
-0.0527108
-0.0536732
-0.0546062
-0.0555283
-0.0564326
-0.0573041
-0.0581224
-0.0588743
-0.0595398
-0.0600966
-0.0605278
-0.0608166
-0.0609477
-0.0609073
-0.0606753
-0.0602363
-0.0595739
-0.0586737
-0.0575249
-0.0561092
-0.0544289
-0.0524898
-0.0503114
-0.0479237
-0.0453719
-0.0427155
-0.0400119
-0.0274997
-0.0277006
-0.0279908
-0.02836
-0.0287988
-0.0292991
-0.0298532
-0.0304539
-0.0310944
-0.0317681
-0.0324688
-0.0331903
-0.0339265
-0.0346713
-0.0354185
-0.0361625
-0.0368976
-0.0376183
-0.0383185
-0.0389925
-0.0396346
-0.0402404
-0.0408046
-0.041333
-0.0418471
-0.0423125
-0.0427193
-0.0430623
-0.0433357
-0.043534
-0.0436502
-0.0436761
-0.0436039
-0.0434277
-0.0431414
-0.0427403
-0.0422186
-0.0415723
-0.0407986
-0.0398975
-0.0388714
-0.0377235
-0.0364581
-0.035085
-0.0336146
-0.0320607
-0.0304353
-0.0287512
-0.0270191
-0.0252439
-0.0233595
-0.0231329
-0.0229661
-0.0228521
-0.0227846
-0.0227583
-0.0227685
-0.0228108
-0.0228813
-0.0229765
-0.0230933
-0.0232285
-0.0233794
-0.0235434
-0.0237181
-0.023901
-0.0240901
-0.0242833
-0.0244789
-0.0246751
-0.0248704
-0.0250625
-0.0252645
-0.0254709
-0.0256447
-0.0257784
-0.0258682
-0.0259116
-0.0259065
-0.0258502
-0.0257399
-0.0255737
-0.0253498
-0.0250672
-0.0247254
-0.0243238
-0.0238621
-0.0233411
-0.022762
-0.0221264
-0.0214372
-0.0206973
-0.01991
-0.0190795
-0.01821
-0.0173062
-0.0163729
-0.0154149
-0.0144374
-0.0134459
-0.0222965
-0.0216117
-0.0209892
-0.0204224
-0.0199054
-0.0194335
-0.0190025
-0.0186086
-0.0182487
-0.01792
-0.0176202
-0.017347
-0.0170984
-0.0168726
-0.016668
-0.016483
-0.0163158
-0.0161646
-0.0160287
-0.0159076
-0.0158008
-0.0157083
-0.0156133
-0.0155108
-0.0153981
-0.0152732
-0.0151342
-0.0149795
-0.0148079
-0.0146177
-0.0144079
-0.0141774
-0.0139256
-0.0136522
-0.013357
-0.0130399
-0.012701
-0.012341
-0.0119606
-0.0115608
-0.0111429
-0.0107084
-0.010259
-0.00979676
-0.00932399
-0.00884324
-0.00835726
-0.00786915
-0.00738228
-0.00690032
-0.0276139
-0.0266684
-0.0257996
-0.0249963
-0.0242501
-0.0235546
-0.0229041
-0.0222936
-0.0217121
-0.0211515
-0.0206098
-0.0200859
-0.0195791
-0.0190887
-0.018614
-0.0181544
-0.0177102
-0.0172812
-0.0168664
-0.0164644
-0.016074
-0.0156937
-0.0153225
-0.0149591
-0.0146026
-0.0142521
-0.0139065
-0.0135653
-0.0132275
-0.0128927
-0.0125603
-0.0122297
-0.0119007
-0.0115729
-0.0112461
-0.0109202
-0.0105951
-0.0102708
-0.00994768
-0.00962582
-0.0093056
-0.00898743
-0.00867184
-0.00835946
-0.00805097
-0.00774716
-0.00744888
-0.00715701
-0.00687244
-0.00659604
-0.0394899
-0.0379587
-0.036656
-0.035515
-0.0344906
-0.0335526
-0.0326805
-0.0318616
-0.0310964
-0.0303841
-0.029718
-0.0290915
-0.0284987
-0.0279348
-0.0273956
-0.0268776
-0.0263781
-0.0258944
-0.025424
-0.0249657
-0.0245178
-0.0240793
-0.0236491
-0.0232265
-0.022811
-0.0224021
-0.0219995
-0.0216032
-0.0212129
-0.0208289
-0.0204509
-0.0200785
-0.0197115
-0.0193499
-0.018994
-0.0186438
-0.0182994
-0.017961
-0.0176286
-0.0173024
-0.0169826
-0.0166694
-0.0163631
-0.0160637
-0.0157714
-0.0154864
-0.0152091
-0.0149397
-0.0146787
-0.0144269
-0.0644135
-0.0617631
-0.059148
-0.0566511
-0.0543262
-0.052202
-0.0502871
-0.0485773
-0.0470583
-0.0457107
-0.0445139
-0.0434478
-0.0424951
-0.0416403
-0.0408709
-0.0401762
-0.039548
-0.0389788
-0.0384611
-0.0379885
-0.0375547
-0.0371541
-0.0367821
-0.0364336
-0.0361043
-0.0357908
-0.0354905
-0.0352016
-0.0349226
-0.0346521
-0.0343903
-0.0341357
-0.033887
-0.0336436
-0.0334047
-0.0331694
-0.032939
-0.0327132
-0.0324924
-0.0322768
-0.0320667
-0.031862
-0.0316629
-0.031471
-0.0312838
-0.031102
-0.0309259
-0.0307603
-0.0306048
-0.030459
-0.0684407
-0.0688086
-0.0686803
-0.0681948
-0.0674561
-0.0665423
-0.0655111
-0.0644042
-0.0632514
-0.0620739
-0.0608833
-0.0596832
-0.0584718
-0.0572398
-0.0559787
-0.0546773
-0.0533216
-0.0519307
-0.0505165
-0.0490992
-0.0477066
-0.0463719
-0.0451299
-0.0440113
-0.043041
-0.0422312
-0.0415808
-0.0410752
-0.0406887
-0.0403892
-0.0401446
-0.0399249
-0.0397058
-0.0394701
-0.0392061
-0.0389082
-0.0385752
-0.0382105
-0.0378188
-0.0374054
-0.036977
-0.0365424
-0.0361047
-0.0356682
-0.0352373
-0.034817
-0.03441
-0.0340226
-0.0336595
-0.0333243
-0.0484189
-0.0525272
-0.055738
-0.0581777
-0.0599652
-0.0612052
-0.0619859
-0.0623786
-0.0624421
-0.0622243
-0.0617624
-0.0610863
-0.0602192
-0.0591803
-0.0579864
-0.0566507
-0.0551909
-0.0536275
-0.0519888
-0.0503074
-0.0486221
-0.0469772
-0.045419
-0.0439902
-0.0427264
-0.0416515
-0.0407736
-0.0400836
-0.0395581
-0.0391598
-0.0388482
-0.0385818
-0.038323
-0.0380403
-0.0377099
-0.0373244
-0.0368846
-0.0363948
-0.0358619
-0.0352952
-0.0347036
-0.0340961
-0.0334816
-0.0328695
-0.0322697
-0.031691
-0.0311428
-0.0306355
-0.030178
-0.0297789
-0.0191803
-0.0238422
-0.0283302
-0.0324328
-0.036025
-0.0390438
-0.0414737
-0.0433332
-0.044661
-0.0455065
-0.0459232
-0.0459656
-0.0456877
-0.0451432
-0.0443829
-0.0434567
-0.0424141
-0.0413063
-0.040184
-0.0390962
-0.0380879
-0.0371969
-0.0364504
-0.0358622
-0.0354325
-0.0351488
-0.0349879
-0.03492
-0.0349123
-0.0349315
-0.0349489
-0.0349407
-0.0348893
-0.0347829
-0.0346137
-0.0343723
-0.0340494
-0.0336459
-0.033172
-0.0326392
-0.0320583
-0.0314412
-0.0308025
-0.030157
-0.0295213
-0.0289121
-0.0283474
-0.0278445
-0.0274182
-0.0270818
-0.00807163
-0.00899264
-0.0107173
-0.0127403
-0.0148965
-0.0170324
-0.0190172
-0.0207587
-0.0222048
-0.0233392
-0.0241727
-0.0247349
-0.0250669
-0.0252161
-0.0252312
-0.0251599
-0.0250446
-0.0249236
-0.024829
-0.0247853
-0.0248082
-0.0249049
-0.0250752
-0.0253124
-0.0256053
-0.0259398
-0.0263007
-0.0266737
-0.0270449
-0.0274026
-0.0277368
-0.028039
-0.0283025
-0.0285216
-0.0286917
-0.0288086
-0.0288689
-0.0288627
-0.0287754
-0.0286054
-0.0283556
-0.028033
-0.0276501
-0.0272229
-0.0267716
-0.0263186
-0.0258885
-0.0255051
-0.0251887
-0.0249575
-0.0018767
-0.0021114
-0.00256241
-0.00325454
-0.00400808
-0.00479015
-0.00556909
-0.00631017
-0.00698533
-0.00757465
-0.00806879
-0.00846796
-0.00877976
-0.00901664
-0.00919331
-0.00932541
-0.00942817
-0.00951554
-0.00959979
-0.00969136
-0.00979881
-0.00992909
-0.0100879
-0.0102797
-0.0105082
-0.0107763
-0.0110861
-0.0114391
-0.011836
-0.0122761
-0.0127575
-0.0132768
-0.0138299
-0.0144112
-0.0150147
-0.0156344
-0.0162646
-0.0169001
-0.0175367
-0.0181617
-0.0187616
-0.0193249
-0.0198417
-0.0203044
-0.020707
-0.0210453
-0.0213173
-0.0215236
-0.0216668
-0.021752
-0.00059466
-0.000529731
-0.000474976
-0.000428842
-0.00038996
-0.00035715
-0.00032941
-0.000305903
-0.00028594
-0.000268962
-0.000254523
-0.00024227
-0.000232094
-0.000223787
-0.000217088
-0.000211797
-0.000207752
-0.000204825
-0.000202906
-0.000201899
-0.000201717
-0.000202283
-0.00020352
-0.00020536
-0.000207736
-0.000210586
-0.000213849
-0.000217469
-0.000221392
-0.000225569
-0.000229953
-0.000234498
-0.000239164
-0.000243914
-0.000248711
-0.000253523
-0.000258322
-0.00026308
-0.000267774
-0.000272383
-0.000276887
-0.000281272
-0.000285522
-0.000289627
-0.000293577
-0.000297366
-0.000300988
-0.000304439
-0.000307718
-0.000310825
-0.000313762
-0.000316532
-0.000319138
-0.000321585
-0.000323882
-0.000326034
-0.00032805
-0.000329939
-0.000331711
-0.000333376
-0.000334944
-0.000336427
-0.000337836
-0.000339184
-0.000340482
-0.000341742
-0.000342977
-0.000344199
-0.00034542
-0.000346653
-0.000347909
-0.000349201
-0.000350541
-0.000351939
-0.000353408
-0.000354958
-0.000356599
-0.000358342
-0.000360197
-0.000362172
-0.000364277
-0.00036652
-0.000368909
-0.000371451
-0.000374152
-0.000377018
-0.000380056
-0.00038327
-0.000386664
-0.000390241
-0.000394006
-0.00039796
-0.000402106
-0.000406445
-0.000410976
-0.000415702
-0.000420621
-0.000425733
-0.000431035
-0.000436528
-0.000442208
-0.000448072
-0.000454119
-0.000460344
-0.000466745
-0.000473317
-0.000480056
-0.000486959
-0.000494021
-0.000501237
-0.000508603
-0.000516115
-0.000523768
-0.000531558
-0.000539479
-0.000547528
-0.000555701
-0.000563993
-0.0005724
-0.00058092
-0.000589547
-0.000598279
-0.000607113
-0.000616046
-0.000625075
-0.000634198
-0.000643413
-0.000652717
-0.000662109
-0.000671587
-0.000681151
-0.000690799
-0.00070053
-0.000710344
-0.00072024
-0.000730218
-0.000740277
-0.000750416
-0.000760637
-0.000770938
-0.00078132
-0.000791781
-0.000802322
-0.000812942
-0.00082364
-0.000834415
-0.000845266
-0.00085619
-0.000867187
-0.000878254
-0.000889389
-0.00090059
-0.000911852
-0.000923175
-0.000934553
-0.000945984
-0.000957464
-0.000968989
-0.000980555
-0.000992157
-0.00100379
-0.00101545
-0.00102712
-0.00103881
-0.00105049
-0.00106217
-0.00107383
-0.00108545
-0.00109704
-0.00110858
-0.00112005
-0.00113145
-0.00114275
-0.00115395
-0.00116502
-0.00117595
-0.00118671
-0.0011973
-0.00120767
-0.00121782
-0.00122772
-0.00123734
-0.00124665
-0.00125563
-0.00126425
-0.00127249
-0.00128031
-0.0012877
-0.00129462
-0.00130105
-0.00130695
-0.00131231
-0.0013171
-0.00132128
-0.00132484
-0.00132774
-0.00132996
-0.00133149
-0.0013323
-0.00133238
-0.00133171
-0.00133028
-0.00132809
-0.00132514
-0.00132142
-0.00131696
-0.00131177
-0.00130586
-0.00129927
-0.00129203
-0.00128418
-0.00127576
-0.00126683
-0.00125744
-0.00124764
-0.00123752
-0.00122712
-0.00121653
-0.0012058
-0.00119502
-0.00118439
-0.00117394
-0.00116373
-0.00115385
-0.00114438
-0.0011354
-0.00112697
-0.00111916
-0.001112
-0.00110555
-0.00109982
-0.00109483
-0.00109057
-0.00108704
-0.00108421
-0.00108207
-0.00108059
-0.00107976
-0.00107957
-0.00108004
-0.00108119
-0.00108308
-0.00108576
-0.00108933
-0.00109387
-0.00109953
-0.00110642
-0.00111472
-0.00112458
-0.0011362
-0.00114976
-0.00116547
-0.00118354
-0.00120415
-0.00122749
-0.00125373
-0.00128301
-0.0013154
-0.00135094
-0.00138953
-0.00143098
-0.00147488
-0.0015206
-0.00156721
-0.00161344
-0.00165766
-0.00169788
-0.00173182
-0.00175702
-0.00177097
-0.00177195
-0.00175891
-0.0017292
-0.00168185
-0.00161672
-0.00153475
-0.00143772
-0.00132839
-0.00121026
-0.00108742
-0.000964085
-0.000844218
-0.000731174
-0.000627433
-0.000534464
-0.000452821
-0.000382257
-0.000321994
-0.000270856
-0.000227501
-0.000190698
-0.000159335
-0.000132466
-0.000109328
-8.93135e-05
-7.19403e-05
-5.67898e-05
-4.33924e-05
-3.08388e-05
-1.60634e-05
-0.00155359
-0.00134182
-0.00115655
-0.000995378
-0.000855924
-0.000735884
-0.000633059
-0.000545388
-0.000470966
-0.000408064
-0.000355131
-0.000310793
-0.000273853
-0.000243256
-0.000218076
-0.000197508
-0.000180859
-0.000167542
-0.00015707
-0.000149096
-0.000143355
-0.000139438
-0.000137027
-0.000135874
-0.00013578
-0.000136583
-0.000138151
-0.000140371
-0.00014315
-0.000146405
-0.000150065
-0.00015407
-0.000158366
-0.000162906
-0.000167649
-0.00017256
-0.000177607
-0.000182762
-0.000188003
-0.00019331
-0.000198664
-0.000204053
-0.000209463
-0.000214885
-0.000220311
-0.000225737
-0.000231157
-0.00023657
-0.000241975
-0.000247371
-0.000252762
-0.000258148
-0.000263536
-0.000268927
-0.000274329
-0.000279747
-0.000285189
-0.00029066
-0.000296169
-0.000301725
-0.000307335
-0.000313008
-0.000318754
-0.000324581
-0.000330499
-0.000336518
-0.000342646
-0.000348893
-0.000355269
-0.000361782
-0.000368442
-0.000375259
-0.000382239
-0.000389394
-0.000396729
-0.000404255
-0.000411977
-0.000419905
-0.000428044
-0.000436403
-0.000444986
-0.000453799
-0.00046285
-0.000472142
-0.00048168
-0.000491468
-0.000501511
-0.000511811
-0.000522371
-0.000533195
-0.000544283
-0.000555638
-0.00056726
-0.000579151
-0.00059131
-0.000603738
-0.000616434
-0.000629397
-0.000642627
-0.000656121
-0.000669878
-0.000683896
-0.000698172
-0.000712704
-0.000727489
-0.000742524
-0.000757804
-0.000773328
-0.000789091
-0.000805089
-0.000821319
-0.000837776
-0.000854456
-0.000871355
-0.000888469
-0.000905793
-0.000923322
-0.000941053
-0.00095898
-0.000977099
-0.000995405
-0.00101389
-0.00103256
-0.0010514
-0.00107041
-0.00108958
-0.00110891
-0.0011284
-0.00114803
-0.00116781
-0.00118773
-0.00120778
-0.00122796
-0.00124827
-0.0012687
-0.00128924
-0.00130988
-0.00133064
-0.00135148
-0.00137242
-0.00139345
-0.00141455
-0.00143573
-0.00145698
-0.00147828
-0.00149963
-0.00152103
-0.00154247
-0.00156393
-0.0015854
-0.00160689
-0.00162837
-0.00164984
-0.00167129
-0.0016927
-0.00171406
-0.00173536
-0.00175659
-0.00177773
-0.00179876
-0.00181967
-0.00184043
-0.00186105
-0.00188148
-0.00190172
-0.00192173
-0.00194151
-0.00196103
-0.00198026
-0.00199919
-0.0020178
-0.00203605
-0.00205394
-0.00207143
-0.0020885
-0.00210513
-0.00212128
-0.00213694
-0.00215206
-0.00216663
-0.00218059
-0.00219392
-0.00220659
-0.00221856
-0.0022298
-0.00224028
-0.00224998
-0.00225885
-0.00226688
-0.00227402
-0.00228027
-0.00228559
-0.00228996
-0.00229337
-0.00229578
-0.00229719
-0.00229757
-0.00229692
-0.00229521
-0.00229245
-0.00228861
-0.00228371
-0.00227775
-0.00227074
-0.00226268
-0.00225361
-0.00224355
-0.00223251
-0.00222052
-0.00220763
-0.00219393
-0.00217961
-0.00216464
-0.00214906
-0.00213298
-0.00211645
-0.00209956
-0.00208241
-0.00206509
-0.00204769
-0.00203032
-0.00201308
-0.00199606
-0.00197935
-0.00196303
-0.00194719
-0.00193191
-0.00191726
-0.0019033
-0.00189008
-0.00187764
-0.00186601
-0.00185521
-0.00184526
-0.00183615
-0.0018279
-0.00182052
-0.001814
-0.00180839
-0.0018037
-0.0018
-0.00179735
-0.00179583
-0.00179554
-0.00179662
-0.0017992
-0.00180343
-0.00180949
-0.00181755
-0.00182781
-0.00184045
-0.0018557
-0.00187378
-0.0018949
-0.0019193
-0.00194719
-0.00197876
-0.00201418
-0.00205356
-0.00209692
-0.00214417
-0.00219501
-0.00224892
-0.00230502
-0.00236203
-0.00241816
-0.00247106
-0.00251781
-0.00255502
-0.00257979
-0.00258856
-0.00257617
-0.00253915
-0.00247497
-0.00238248
-0.00226222
-0.00211666
-0.00195024
-0.00176904
-0.0015802
-0.00139107
-0.00120836
-0.00103746
-0.000882103
-0.000744304
-0.000624562
-0.000522185
-0.000435685
-0.00036347
-0.000303558
-0.000253784
-0.000212185
-0.000177116
-0.000147268
-0.000121626
-9.94131e-05
-7.99996e-05
-6.27501e-05
-4.64784e-05
-2.65469e-05
-0.00452089
-0.00399974
-0.00352176
-0.00308608
-0.00269141
-0.00233613
-0.00201831
-0.00173575
-0.00148609
-0.00126685
-0.00107549
-0.000909506
-0.00076645
-0.000643965
-0.000539819
-0.00045192
-0.000378324
-0.000317244
-0.000267051
-0.000226271
-0.000193571
-0.000167741
-0.000147703
-0.000132509
-0.000121348
-0.000113535
-0.000108658
-0.000106067
-0.000105257
-0.000105848
-0.000107553
-0.000110154
-0.000113481
-0.000117404
-0.000121822
-0.000126655
-0.000131841
-0.00013733
-0.000143083
-0.000149071
-0.000155267
-0.000161654
-0.000168217
-0.000174943
-0.000181825
-0.000188856
-0.000196031
-0.000203348
-0.000210805
-0.000218404
-0.000226143
-0.000234026
-0.000242056
-0.000250235
-0.000258568
-0.00026706
-0.000275715
-0.00028454
-0.00029354
-0.000302722
-0.000312092
-0.000321657
-0.000331425
-0.000341403
-0.000351597
-0.000362016
-0.000372668
-0.00038356
-0.000394699
-0.000406095
-0.000417753
-0.000429683
-0.000441892
-0.000454388
-0.000467178
-0.000480269
-0.00049367
-0.000507386
-0.000521426
-0.000535795
-0.000550502
-0.000565551
-0.00058095
-0.000596705
-0.000612821
-0.000629305
-0.000646161
-0.000663395
-0.000681013
-0.000699017
-0.000717414
-0.000736208
-0.000755402
-0.000775001
-0.000795007
-0.000815426
-0.000836259
-0.00085751
-0.000879181
-0.000901275
-0.000923795
-0.000946742
-0.000970119
-0.000993927
-0.00101817
-0.00104284
-0.00106795
-0.0010935