/*--------------------------------*- C++ -*----------------------------------*\
| =========                 |                                                 |
| \\      /  F ield         | OpenFOAM: The Open Source CFD Toolbox           |
|  \\    /   O peration     | Version:  2.4.0                                 |
|   \\  /    A nd           | Web:      www.OpenFOAM.org                      |
|    \\/     M anipulation  |                                                 |
\*---------------------------------------------------------------------------*/
FoamFile
{
    version     2.0;
    format      ascii;
    class       volScalarField;
    location    "4";
    object      p;
}
// * * * * * * * * * * * * * * * * * * * * * * * * * * * * * * * * * * * * * //

dimensions      [1 -1 -2 0 0 0 0];

internalField   nonuniform List<scalar> 
8000
(
4.64035
4.64926
4.65966
4.6693
4.67823
4.68586
4.69301
4.69949
4.7053
4.71044
4.71492
4.71874
4.7219
4.72441
4.72626
4.72744
4.72795
4.72778
4.72692
4.72535
4.72305
4.72002
4.71623
4.71166
4.70629
4.70009
4.69303
4.68509
4.67622
4.6664
4.6556
4.64377
4.63087
4.61687
4.60171
4.58534
4.56764
4.54874
4.52905
4.50945
4.48729
4.45629
4.41754
4.37195
4.3289
4.04635
1.77467
0.669608
0.202169
-0.638375
3.34993
3.36495
3.38011
3.39339
3.4053
3.41591
3.42563
3.43436
3.44208
3.44881
3.45454
3.45929
3.46305
3.46582
3.46759
3.46835
3.4681
3.46683
3.46452
3.46114
3.45669
3.45114
3.44445
3.43661
3.42757
3.4173
3.40577
3.39292
3.37872
3.36309
3.346
3.32736
3.30711
3.28515
3.26167
3.23726
3.21226
3.1838
3.14677
3.11808
3.08284
3.00959
2.51037
0.0205999
-2.6222
-3.59042
-3.11866
0.456981
2.54245
3.32838
3.04321
3.05667
3.07222
3.08695
3.10068
3.11369
3.12613
3.13799
3.14928
3.16
3.17015
3.17974
3.18874
3.19717
3.20501
3.21224
3.21886
3.22484
3.23016
3.2348
3.23873
3.2419
3.2443
3.24586
3.24655
3.24631
3.2451
3.24283
3.23944
3.23481
3.22889
3.222
3.21526
3.20914
3.19956
3.17925
3.17322
3.15588
3.0044
2.20164
-0.499593
-2.51682
-6.1584
-4.48541
1.25474
2.94718
3.1806
3.25554
3.2936
3.27646
2.09471
2.1075
2.12084
2.13324
2.14504
2.15652
2.16775
2.17872
2.18942
2.19984
2.20999
2.21988
2.22952
2.23891
2.24807
2.25702
2.26576
2.27433
2.28273
2.29099
2.29915
2.30722
2.31523
2.32323
2.33126
2.33934
2.34742
2.35555
2.36432
2.37526
2.38891
2.39852
2.39086
2.40162
2.35957
2.00461
0.715171
-3.00804
-4.88052
-6.22416
-2.50605
-0.0830501
2.86088
3.11599
3.13563
3.14053
3.13806
3.12766
3.12631
3.12715
1.90833
1.91277
1.91933
1.92729
1.93646
1.94688
1.95858
1.97154
1.9858
2.00134
2.0182
2.03639
2.05595
2.0769
2.09929
2.12316
2.14857
2.17558
2.20425
2.23466
2.26688
2.30101
2.33713
2.37525
2.41549
2.45835
2.5051
2.55622
2.60534
2.64184
2.70224
2.61244
1.86217
-0.271728
-5.15499
-6.48032
-5.77011
-1.50894
1.30391
2.89148
3.01152
3.00578
2.99323
2.98235
2.97743
2.97763
2.97869
2.98074
2.98405
2.98829
0.964942
0.979725
0.996118
1.01143
1.02567
1.03919
1.05209
1.06439
1.07607
1.08712
1.09754
1.10731
1.11642
1.12485
1.13257
1.13955
1.14574
1.15112
1.1556
1.1592
1.16177
1.16331
1.16325
1.16097
1.15675
1.15872
1.18773
1.24427
1.13531
0.130474
-2.30065
-7.33972
-8.64332
-5.21632
0.198084
2.28684
2.77751
2.77561
2.75877
2.75534
2.75442
2.75434
2.75688
2.76015
2.76428
2.76779
2.77002
2.76926
2.76247
2.75603
-0.0762829
-0.0639643
-0.0519632
-0.0411628
-0.0309704
-0.0210657
-0.0114128
-0.00202388
0.00709048
0.0159475
0.0245506
0.032929
0.0410835
0.0490559
0.0568432
0.0645047
0.0720377
0.0795527
0.0870468
0.0945189
0.101264
0.106853
0.114228
0.139049
0.200958
0.231171
-0.14631
-1.86623
-6.35749
-8.56781
-4.04225
3.9323
3.47698
2.68641
2.36274
2.36873
2.36775
2.36701
2.36879
2.37204
2.37462
2.37494
2.37094
2.36204
2.3489
2.33215
2.31226
2.28965
2.2659
2.23726
0.322516
0.323318
0.328233
0.335626
0.344604
0.35505
0.367044
0.380638
0.395875
0.412785
0.431428
0.451853
0.474146
0.498364
0.524629
0.55303
0.583779
0.616888
0.651874
0.687412
0.725092
0.781368
0.893066
1.02695
0.777099
-0.791342
-5.10094
-5.88617
-0.364496
2.43711
2.68254
2.51929
2.45538
2.39535
2.34947
2.33049
2.32111
2.31114
2.29564
2.27397
2.24768
2.21768
2.1842
2.14772
2.10802
2.06607
2.02152
1.97484
1.92664
1.8763
-1.98946
-1.96805
-1.94937
-1.93574
-1.92612
-1.91988
-1.91693
-1.91732
-1.92107
-1.92821
-1.93872
-1.95263
-1.96994
-1.99067
-2.01475
-2.04225
-2.07339
-2.10925
-2.14987
-2.1876
-2.19789
-2.17664
-2.32216
-3.25946
-5.10498
-2.6989
0.931531
2.97483
2.97227
2.92284
2.90961
2.89882
2.88658
2.86904
2.8424
2.80724
2.76664
2.72267
2.67633
2.62647
2.57426
2.51971
2.46281
2.40464
2.34459
2.2834
2.22109
2.1576
2.09343
2.02828
-1.19732
-1.19358
-1.18855
-1.18489
-1.18335
-1.18392
-1.18653
-1.19122
-1.19799
-1.20689
-1.21791
-1.23107
-1.24632
-1.26363
-1.28294
-1.30469
-1.32996
-1.35842
-1.37887
-1.36186
-1.31666
-1.52484
-2.73169
-4.64493
0.453793
3.1579
3.28086
3.29334
3.302
3.30587
3.30103
3.28785
3.26725
3.241
3.21033
3.17637
3.14001
3.10219
3.06262
3.0227
2.98192
2.94034
2.89797
2.85503
2.81068
2.76561
2.71939
2.67201
2.62349
2.57387
-1.928
-1.9018
-1.87664
-1.85833
-1.8467
-1.84103
-1.84108
-1.84688
-1.85845
-1.87586
-1.89911
-1.92829
-1.96338
-2.00442
-2.05149
-2.10532
-2.16766
-2.23777
-2.29923
-2.3102
-2.29381
-2.67731
-4.52445
-7.15224
0.459958
3.20953
3.54989
3.58751
3.57275
3.57064
3.56607
3.56057
3.55357
3.545
3.53459
3.52278
3.51029
3.49636
3.48193
3.46655
3.45024
3.43302
3.41514
3.39622
3.37656
3.35599
3.33453
3.31224
3.28916
3.26532
-1.57739
-1.51643
-1.4577
-1.41371
-1.3837
-1.36586
-1.3596
-1.36489
-1.38181
-1.41042
-1.45081
-1.50311
-1.56751
-1.64423
-1.73353
-1.83575
-1.9514
-2.08119
-2.22547
-2.38181
-2.54308
-2.71188
-2.95958
-3.49175
-4.29686
-3.7993
2.83166
3.70198
3.60262
3.7033
3.75965
3.76591
3.76275
3.75844
3.75521
3.75171
3.74881
3.74501
3.74113
3.73659
3.73127
3.72522
3.7187
3.71148
3.70369
3.69559
3.68706
3.67821
3.669
3.65956
1.756
1.77211
1.78766
1.79948
1.80781
1.81317
1.81574
1.81554
1.8126
1.80693
1.79855
1.78745
1.77365
1.75712
1.73785
1.71579
1.69094
1.6633
1.63291
1.59938
1.56101
1.51516
1.46904
1.46798
1.58678
1.66523
0.379405
-7.28355
-1.97423
-2.50682
3.24406
3.59964
3.76956
3.83327
3.8557
3.86054
3.85853
3.85528
3.85394
3.85297
3.85026
3.84703
3.843
3.83854
3.83383
3.82892
3.82418
3.81889
3.81349
3.80792
5.93097
5.88662
5.84361
5.80983
5.78441
5.76605
5.75439
5.74943
5.75123
5.75987
5.77541
5.79797
5.82772
5.86485
5.90957
5.96217
6.02295
6.09226
6.17047
6.25796
6.35521
6.46311
6.58365
6.71722
6.85322
6.96349
7.06122
6.9077
6.12439
5.13024
-6.51862
-7.82259
1.7951
-0.431572
3.46203
3.74692
3.78881
3.85852
3.87742
3.8818
3.88108
3.87993
3.87916
3.8778
3.87576
3.87243
3.8686
3.8643
3.85922
3.85415
7.40452
7.35623
7.30547
7.26277
7.22821
7.20053
7.17923
7.16425
7.15561
7.15332
7.15739
7.16784
7.18472
7.20812
7.23812
7.27483
7.31839
7.36897
7.42675
7.49194
7.56478
7.64551
7.73434
7.83151
7.93816
8.05709
8.18844
8.30945
8.36321
8.41804
8.32082
8.1316
6.66573
5.1565
-3.82196
-6.0763
0.826566
-0.646496
3.61314
3.77485
3.82019
3.84165
3.81444
3.81198
3.81286
3.81318
3.81271
3.81169
3.81022
3.80833
8.85526
8.82172
8.78789
8.75921
8.73508
8.71462
8.6976
8.68402
8.6739
8.66723
8.66398
8.66413
8.66766
8.67453
8.68472
8.69818
8.71487
8.73474
8.75774
8.78378
8.81281
8.84472
8.87941
8.91677
8.95669
8.99901
9.04349
9.09007
9.13965
9.19602
9.26521
9.32831
9.34441
9.37786
9.31954
9.16374
6.8448
5.22096
-2.91944
-4.10976
1.87817
2.9613
3.56363
3.69548
3.76176
3.74756
3.74615
3.74652
3.74636
3.7456
8.59287
8.56971
8.5436
8.52041
8.50065
8.48378
8.46957
8.45796
8.44899
8.44264
8.43892
8.43781
8.4393
8.44339
8.45007
8.45931
8.47109
8.48539
8.50219
8.52144
8.54309
8.56712
8.59344
8.62201
8.65274
8.68554
8.72032
8.757
8.79548
8.83576
8.87797
8.9223
8.96924
9.02006
9.07497
9.1298
9.15372
9.1851
9.14014
8.76333
4.96718
-1.19811
-2.44609
0.545436
3.02403
3.63692
3.75355
3.74333
3.71868
3.71412
9.59738
9.5879
9.57964
9.57114
9.56169
9.55162
9.54144
9.53162
9.52253
9.51449
9.50778
9.50266
9.49936
9.49808
9.49901
9.50231
9.50812
9.51657
9.52777
9.54181
9.55877
9.57873
9.60174
9.62786
9.65711
9.68953
9.72513
9.76392
9.80591
9.85108
9.8994
9.95087
10.0054
10.063
10.1236
10.1881
10.2573
10.3305
10.396
10.4367
10.4803
10.5162
9.96117
7.14969
1.26457
1.26018
2.78373
3.58587
3.66592
3.71364
7.90909
7.94628
7.97606
7.99468
8.00559
8.0113
8.0131
8.01183
8.00822
8.00297
7.99666
7.98979
7.9828
7.97604
7.96984
7.96446
7.9601
7.95696
7.95516
7.95482
7.95603
7.95883
7.96326
7.96931
7.97697
7.98619
7.99692
8.00906
8.0225
8.0371
8.05272
8.06915
8.0862
8.1036
8.12107
8.13827
8.15484
8.17032
8.18458
8.19777
8.20961
8.21372
8.18763
8.17943
8.16771
6.8709
2.86468
1.11371
3.07007
4.01159
12.355
11.9313
11.5057
11.1397
10.8214
10.5361
10.2777
10.0436
9.83183
9.64046
9.46775
9.31225
9.17271
9.04809
8.93749
8.84017
8.75546
8.6828
8.62173
8.57183
8.53275
8.5042
8.48594
8.47777
8.47953
8.49111
8.51245
8.54354
8.58439
8.6351
8.69582
8.76679
8.84831
8.94081
9.0448
9.16097
9.29015
9.43337
9.59188
9.7673
9.96182
10.1785
10.4218
10.6831
10.9564
11.0525
12.6858
13.4821
13.1009
6.91058
1.06487
3.33639
3.6301
3.40736
3.40471
3.4067
3.4071
3.40793
3.40829
3.40807
3.40746
3.4066
3.40573
3.40441
3.40305
3.4016
3.40006
3.39842
3.39655
3.39463
3.39357
3.39289
3.3893
3.38701
3.38521
3.38437
3.38444
3.38522
3.38653
3.38812
3.38989
3.39178
3.39367
3.39544
3.39698
3.39826
3.39924
3.3999
3.40024
3.40027
3.40001
3.39948
3.39869
3.39765
3.39639
3.39489
3.39318
3.39127
3.38915
3.38684
3.3617
3.37658
3.38076
3.37778
3.37662
3.37746
3.37814
3.37871
3.37924
3.37983
3.38048
3.38124
3.38211
3.38308
3.38411
3.38533
3.38683
3.38826
3.38978
3.39144
3.39537
3.39649
3.39461
3.39587
3.39813
3.39953
3.4019
3.40487
3.40604
3.40924
3.41278
3.41615
3.41902
3.42134
3.42323
3.42469
3.4257
3.42627
3.42642
3.42617
3.42558
3.42469
3.42352
3.42213
3.42054
3.41877
3.41685
3.41479
3.41259
3.41024
3.26912
3.27011
3.2717
3.27343
3.27542
3.27784
3.28085
3.2846
3.28924
3.29478
3.30124
3.3086
3.31682
3.32582
3.33564
3.34554
3.35615
3.36704
3.37794
3.38896
3.40039
3.4106
3.42063
3.43039
3.43973
3.44822
3.45599
3.46312
3.47275
3.47781
3.48134
3.48379
3.4857
3.48756
3.48868
3.48885
3.48812
3.48627
3.48365
3.4806
3.47714
3.47329
3.46909
3.46468
3.46019
3.45568
3.45116
3.44668
3.44225
3.43788
3.12842
3.13035
3.13297
3.1364
3.14095
3.14686
3.15431
3.16341
3.17419
3.18664
3.20065
3.21606
3.23267
3.25029
3.26869
3.28765
3.30699
3.32648
3.3459
3.36499
3.38359
3.40142
3.41833
3.43422
3.44913
3.46231
3.4744
3.48492
3.49359
3.50043
3.50837
3.50983
3.5118
3.5117
3.50995
3.50689
3.5027
3.49764
3.4921
3.4873
3.48072
3.47225
3.46498
3.4578
3.45071
3.44379
3.43711
3.4307
3.42455
3.4187
2.99289
2.99759
3.00254
3.00802
3.01426
3.02146
3.02962
3.03882
3.04889
3.05998
3.07195
3.08472
3.09816
3.11214
3.12653
3.14122
3.15601
3.17069
3.18514
3.19938
3.21329
3.22673
3.2395
3.25152
3.2627
3.27297
3.28225
3.29043
3.29798
3.30417
3.30942
3.31403
3.31759
3.31994
3.32164
3.3214
3.3199
3.3174
3.31237
3.30617
3.30223
3.29532
3.28854
3.28342
3.27641
3.27101
3.26601
3.26186
3.25848
3.25573
2.74895
2.74093
2.73177
2.7218
2.71139
2.70086
2.69012
2.67956
2.66949
2.66007
2.6514
2.64359
2.63677
2.63077
2.62597
2.62227
2.61969
2.61828
2.618
2.61885
2.62083
2.62397
2.62821
2.6335
2.63975
2.64693
2.65478
2.66297
2.67183
2.68124
2.6908
2.70011
2.7115
2.71849
2.72768
2.7339
2.74326
2.74888
2.758
2.76241
2.77149
2.77669
2.78316
2.78946
2.79568
2.80199
2.8113
2.81868
2.82648
2.83667
2.20765
2.17689
2.14526
2.11296
2.08034
2.04775
2.01553
1.98372
1.95287
1.9233
1.89501
1.86836
1.84349
1.82022
1.79946
1.78101
1.76488
1.75134
1.74072
1.73186
1.7264
1.72281
1.7235
1.72543
1.73052
1.73775
1.74752
1.75993
1.77437
1.79064
1.80849
1.8287
1.84984
1.87093
1.89506
1.91761
1.94466
1.969
1.99743
2.02005
2.04696
2.07129
2.09695
2.12223
2.14698
2.17145
2.19604
2.22244
2.24841
2.27528
1.82526
1.77342
1.72115
1.6688
1.61683
1.56533
1.51461
1.46524
1.41737
1.37131
1.32733
1.28602
1.24702
1.21083
1.17777
1.14795
1.12157
1.09878
1.07968
1.06437
1.05293
1.04647
1.04225
1.0427
1.0469
1.05501
1.06676
1.082
1.10068
1.12192
1.14644
1.17372
1.20329
1.23505
1.26888
1.30441
1.34135
1.37951
1.41815
1.4575
1.49706
1.53706
1.57637
1.61514
1.65369
1.6932
1.73171
1.77057
1.81015
1.85157
1.9627
1.89676
1.8306
1.7646
1.69898
1.63403
1.57004
1.50729
1.44612
1.38693
1.32991
1.2754
1.22373
1.17514
1.12999
1.08853
1.051
1.01764
0.988803
0.964239
0.944676
0.929557
0.919226
0.913666
0.912182
0.916517
0.923356
0.935091
0.95146
0.968317
0.991311
1.01568
1.04592
1.0784
1.11383
1.15235
1.19025
1.23332
1.27641
1.32142
1.36794
1.41185
1.45956
1.50745
1.55585
1.60475
1.65431
1.70477
1.75657
1.80979
2.52322
2.47168
2.41945
2.36669
2.31377
2.26071
2.2078
2.15539
2.10374
2.05306
2.00398
1.95616
1.91018
1.86659
1.82509
1.78619
1.75036
1.7171
1.68702
1.66027
1.63696
1.61667
1.6005
1.5886
1.57968
1.57567
1.57582
1.57938
1.58724
1.59903
1.61359
1.63261
1.65535
1.68008
1.7083
1.73971
1.77279
1.80918
1.84901
1.8865
1.92838
1.97212
2.01673
2.06409
2.11062
2.15962
2.20992
2.26162
2.31485
2.36931
3.24079
3.21561
3.18998
3.16387
3.13746
3.11085
3.08416
3.05758
3.03131
3.00524
2.97984
2.9551
2.93125
2.90843
2.88681
2.86623
2.84723
2.8297
2.81373
2.7996
2.7875
2.77674
2.76912
2.76303
2.75913
2.75756
2.75906
2.7605
2.76593
2.7735
2.78331
2.79544
2.81004
2.82463
2.84251
2.86215
2.88352
2.90675
2.93122
2.95624
2.983
3.01087
3.03964
3.06922
3.09928
3.12988
3.16075
3.19158
3.22218
3.25262
3.64987
3.63996
3.62985
3.61968
3.60934
3.59899
3.58866
3.57842
3.56834
3.55848
3.54893
3.53977
3.53103
3.52292
3.51548
3.5088
3.5026
3.49723
3.49278
3.48932
3.48692
3.48541
3.48481
3.4851
3.4863
3.4884
3.49141
3.49545
3.50015
3.50587
3.51243
3.51976
3.52789
3.53668
3.54617
3.55626
3.56688
3.57796
3.58941
3.60118
3.6132
3.62538
3.63763
3.64987
3.66206
3.67409
3.68592
3.69737
3.70832
3.71899
3.80211
3.7962
3.79036
3.78443
3.77863
3.77295
3.76744
3.76213
3.75704
3.75223
3.74774
3.7436
3.73986
3.73654
3.73364
3.73115
3.72951
3.72803
3.72721
3.72686
3.72698
3.72756
3.72862
3.73013
3.7321
3.73451
3.73735
3.7406
3.7443
3.74831
3.75268
3.7574
3.76241
3.76769
3.7732
3.77891
3.78481
3.7908
3.79692
3.8031
3.80931
3.81552
3.82168
3.82778
3.83376
3.83959
3.84528
3.85072
3.85588
3.86082
3.84879
3.84326
3.83767
3.83208
3.8269
3.82155
3.81641
3.81154
3.807
3.80283
3.79908
3.79577
3.79292
3.79055
3.78865
3.78723
3.78628
3.78588
3.7855
3.78583
3.78654
3.78762
3.78904
3.79075
3.79279
3.79511
3.79768
3.8005
3.80355
3.80682
3.81046
3.81408
3.81784
3.82177
3.82585
3.83004
3.83433
3.83876
3.84312
3.84759
3.8521
3.85662
3.86112
3.86558
3.86999
3.87432
3.87854
3.88262
3.88654
3.89029
3.80644
3.80349
3.80072
3.79737
3.79439
3.79116
3.78799
3.78489
3.78173
3.77894
3.77629
3.774
3.77202
3.77039
3.76916
3.76835
3.76786
3.76784
3.76842
3.76921
3.77036
3.77187
3.77369
3.77578
3.77809
3.78061
3.78328
3.78609
3.78913
3.79174
3.79481
3.79797
3.80122
3.80488
3.80828
3.81172
3.81529
3.81888
3.82263
3.82647
3.83037
3.83435
3.83827
3.84192
3.84578
3.84964
3.85344
3.85715
3.86075
3.86422
3.74434
3.74279
3.74102
3.73911
3.73707
3.73489
3.73279
3.7307
3.72852
3.72679
3.7251
3.72364
3.7225
3.72172
3.72083
3.72073
3.72097
3.72159
3.72255
3.72387
3.72553
3.7275
3.72986
3.73196
3.73452
3.7372
3.73983
3.7425
3.74542
3.74783
3.75039
3.75296
3.7554
3.7579
3.76068
3.76308
3.76557
3.76809
3.77064
3.77321
3.7758
3.77839
3.78103
3.78363
3.7862
3.78879
3.7914
3.79391
3.79621
3.79845
3.71367
3.71391
3.71406
3.71408
3.71398
3.71376
3.71368
3.71312
3.71255
3.71191
3.71122
3.7105
3.70976
3.70905
3.70841
3.70787
3.70725
3.70696
3.70686
3.70696
3.70727
3.70778
3.70847
3.70937
3.71015
3.71118
3.71222
3.71322
3.71473
3.71544
3.71641
3.71729
3.71796
3.71878
3.71983
3.72007
3.72084
3.72158
3.72231
3.72303
3.72373
3.72438
3.72468
3.72524
3.72573
3.72612
3.72641
3.72657
3.72754
3.72649
3.70345
3.70006
3.70025
3.70057
3.70084
3.70111
3.70142
3.70175
3.70208
3.70238
3.70264
3.70283
3.70293
3.70297
3.70336
3.7031
3.70279
3.70246
3.7021
3.7017
3.70127
3.70084
3.7004
3.70008
3.69945
3.69903
3.69862
3.69819
3.69823
3.69755
3.69714
3.69671
3.69614
3.69624
3.69539
3.69492
3.69445
3.69395
3.69343
3.69288
3.69261
3.69151
3.69101
3.69029
3.68968
3.68878
3.68776
3.68681
3.68548
3.68391
3.74471
3.68452
3.68401
3.68403
3.68416
3.68434
3.68454
3.68474
3.68493
3.68508
3.68521
3.68528
3.68535
3.68527
3.68504
3.6848
3.68447
3.68406
3.68357
3.68302
3.68243
3.68178
3.6811
3.6804
3.67967
3.67894
3.67821
3.67747
3.67675
3.67586
3.6751
3.67431
3.67352
3.67272
3.67192
3.67123
3.6704
3.6697
3.66885
3.668
3.66755
3.6662
3.66538
3.66453
3.66366
3.66274
3.66177
3.66104
3.65979
3.65868
4.0375
3.69018
3.66626
3.66451
3.66466
3.66509
3.66526
3.66512
3.66521
3.66524
3.66521
3.66509
3.66489
3.6646
3.66422
3.66376
3.66322
3.66261
3.66194
3.66122
3.66045
3.65964
3.6588
3.65793
3.65703
3.65612
3.65518
3.65424
3.65328
3.65231
3.65133
3.65034
3.64934
3.64834
3.64732
3.6463
3.64527
3.64423
3.64318
3.64212
3.64124
3.64013
3.63882
3.63765
3.63646
3.63521
3.63393
3.63261
3.63124
3.62985
3.3849
3.38349
3.38201
3.38048
3.37888
3.37724
3.37554
3.3738
3.37202
3.37019
3.36832
3.36641
3.36446
3.36246
3.36043
3.35836
3.35624
3.35408
3.35188
3.34964
3.34735
3.34502
3.34265
3.34023
3.33778
3.33527
3.33273
3.33015
3.32753
3.32487
3.32218
3.31945
3.31668
3.31389
3.31106
3.30821
3.30533
3.30242
3.29949
3.29654
3.29357
3.29058
3.28757
3.28455
3.28152
3.27847
3.27542
3.27236
3.26929
3.26621
3.26313
3.26005
3.25696
3.25388
3.25079
3.24771
3.24463
3.24156
3.23849
3.23543
3.23238
3.22933
3.2263
3.22328
3.22028
3.21729
3.21431
3.21135
3.20841
3.2055
3.2026
3.19973
3.19688
3.19405
3.19126
3.18849
3.18576
3.18305
3.18038
3.17775
3.17515
3.17259
3.17007
3.16759
3.16516
3.16277
3.16043
3.15813
3.15589
3.1537
3.15156
3.14948
3.14745
3.14548
3.14358
3.14173
3.13995
3.13823
3.13658
3.135
3.13349
3.13205
3.13068
3.12939
3.12817
3.12703
3.12596
3.12498
3.12408
3.12326
3.12252
3.12186
3.12129
3.12081
3.12041
3.1201
3.11987
3.11974
3.11969
3.11973
3.11986
3.12008
3.12039
3.12079
3.12128
3.12186
3.12252
3.12328
3.12412
3.12505
3.12606
3.12716
3.12834
3.1296
3.13094
3.13237
3.13386
3.13544
3.13709
3.13881
3.1406
3.14245
3.14437
3.14635
3.14838
3.15048
3.15262
3.15482
3.15705
3.15934
3.16166
3.16401
3.1664
3.16881
3.17124
3.1737
3.17617
3.17865
3.18114
3.18363
3.18612
3.1886
3.19107
3.19353
3.19596
3.19838
3.20076
3.20311
3.20543
3.2077
3.20993
3.21211
3.21423
3.2163
3.2183
3.22025
3.22212
3.22392
3.22565
3.2273
3.22887
3.23036
3.23177
3.23309
3.23432
3.23547
3.23653
3.2375
3.23837
3.23916
3.23986
3.24047
3.24098
3.24142
3.24176
3.24201
3.24219
3.24228
3.24228
3.24221
3.24206
3.24183
3.24152
3.24114
3.24068
3.24016
3.23956
3.23889
3.23814
3.23732
3.23643
3.23546
3.2344
3.23327
3.23205
3.23073
3.22932
3.22782
3.22619
3.22446
3.2226
3.22061
3.21849
3.21623
3.21381
3.21124
3.2085
3.2056
3.20253
3.19928
3.19585
3.19224
3.18846
3.18449
3.18035
3.17603
3.17154
3.16687
3.16203
3.15703
3.15186
3.14653
3.14104
3.13539
3.12959
3.12365
3.11757
3.11136
3.10503
3.0986
3.09207
3.08546
3.07879
3.07208
3.06533
3.05858
3.05183
3.04512
3.03845
3.03185
3.02534
3.01894
3.01267
3.00656
3.0006
2.99484
2.98929
2.98395
2.97885
2.97399
2.96937
2.96506
2.96098
2.95712
2.95345
2.94991
2.94646
2.94303
2.93953
2.93586
2.9319
2.92755
2.9227
2.91728
2.91124
2.90454
2.8972
2.88921
2.88045
2.87099
2.86083
2.84994
2.83834
2.82598
2.81286
2.79892
2.78413
2.76841
2.75185
2.73392
3.40832
3.40694
3.4055
3.40399
3.40243
3.40081
3.39913
3.3974
3.39562
3.39379
3.39191
3.38997
3.38799
3.38596
3.38388
3.38175
3.37957
3.37733
3.37505
3.3727
3.3703
3.36785
3.36533
3.36275
3.36012
3.35742
3.35466
3.35184
3.34897
3.34604
3.34305
3.34001
3.33691
3.33377
3.33058
3.32735
3.32407
3.32076
3.31741
3.31403
3.31061
3.30717
3.30371
3.30022
3.29671
3.29319
3.28965
3.2861
3.28254
3.27897
3.2754
3.27183
3.26826
3.26469
3.26113
3.25757
3.25401
3.25047
3.24694
3.24343
3.23992
3.23644
3.23297
3.22952
3.2261
3.22269
3.21931
3.21596
3.21263
3.20933
3.20606
3.20282
3.19961
3.19644
3.1933
3.1902
3.18713
3.18411
3.18113
3.17819
3.17529
3.17244
3.16964
3.16689
3.16418
3.16153
3.15893
3.15638
3.15389
3.15146
3.14909
3.14678
3.14453
3.14234
3.14022
3.13817
3.13619
3.13428
3.13243
3.13067
3.12898
3.12736
3.12582
3.12437
3.12299
3.1217
3.12049
3.11936
3.11832
3.11737
3.11651
3.11574
3.11507
3.11448
3.11399
3.11359
3.11329
3.11308
3.11297
3.11296
3.11305
3.11323
3.11352
3.1139
3.11439
3.11497
3.11565
3.11643
3.11731
3.11829
3.11937
3.12055
3.12182
3.12319
3.12465
3.12621
3.12786
3.1296
3.13144
3.13336
3.13536
3.13745
3.13963
3.14188
3.14421
3.14662
3.1491
3.15165
3.15427
3.15695
3.1597
3.1625
3.16536
3.16827
3.17123
3.17423
3.17727
3.18036
3.18347
3.18661
3.18978
3.19297
3.19618
3.1994
3.20264
3.20587
3.20911
3.21234
3.21557
3.21878
3.22198
3.22516
3.22832
3.23145
3.23455
3.23761
3.24064
3.24362
3.24656
3.24945
3.2523
3.25507
3.2578
3.26047
3.26308
3.26562
3.26809
3.2705
3.27284
3.2751
3.27729
3.27941
3.28144
3.2834
3.28528
3.28708
3.28879
3.29042
3.29195
3.2934
3.29476
3.29603
3.2972
3.29828
3.29926
3.30014
3.3009
3.30156
3.30211
3.30254
3.30285
3.30305
3.30311
3.30304
3.30285
3.30249
3.30199
3.30133
3.30051
3.29953
3.29837
3.29703
3.29551
3.2938
3.2919
3.28981
3.28753
3.28505
3.28238
3.27951
3.27646
3.27321
3.26978
3.26617
3.26238
3.25842
3.25429
3.24999
3.24554
3.24093
3.23616
3.23124
3.22619
3.22099
3.21567
3.21022
3.20466
3.199
3.19323
3.18738
3.18146
3.17547
3.16944
3.16338
3.15729
3.1512
3.14511
3.13905
3.13303
3.12705
3.12115
3.11531
3.10957
3.10393
3.0984
3.093
3.08772
3.08258
3.07757
3.07269
3.06795
3.06334
3.05877
3.05426
3.04974
3.0452
3.04051
3.03563
3.03048
3.02494
3.0189
3.01227
3.00495
2.99692
2.98817
2.97871
2.96857
2.95778
2.94633
2.93424
2.92152
2.90818
2.89421
2.87961
2.86435
2.8484
2.83174
2.81427
2.79608
2.77646
3.43458
3.4323
3.42999
3.42766
3.42532
3.42296
3.42059
3.4182
3.4158
3.41338
3.41094
3.40849
3.40601
3.4035
3.40097
3.3984
3.3958
3.39316
3.39048
3.38776
3.38498
3.38215
3.37927
3.37632
3.37332
3.37026
3.36714
3.36394
3.36068
3.35736
3.35396
3.3505
3.34698
3.34339
3.33974
3.33603
3.33227
3.32845
3.32458
3.32066
3.31669
3.31269
3.30864
3.30457
3.30046
3.29632
3.29216
3.28797
3.28377
3.27956
3.27533
3.27109
3.26685
3.26261
3.25837
3.25413
3.2499
3.24568
3.24147
3.23727
3.23309
3.22893
3.22479
3.22068
3.21659
3.21253
3.2085
3.2045
3.20053
3.1966
3.19271
3.18886
3.18505
3.18128
3.17756
3.17389
3.17026
3.16668
3.16316
3.15969
3.15627
3.15291
3.14961
3.14637
3.14319
3.14007
3.13702
3.13403
3.13112
3.12827
3.12549
3.12279
3.12017
3.11762
3.11515
3.11276
3.11045
3.10823
3.10609
3.10404
3.10208
3.10021
3.09843
3.09675
3.09516
3.09368
3.09229
3.091
3.08982
3.08874
3.08777
3.08691
3.08615
3.08551
3.08498
3.08456
3.08426
3.08408
3.08401
3.08406
3.08423
3.08452
3.08493
3.08546
3.08612
3.08689
3.08779
3.08882
3.08997
3.09124
3.09263
3.09415
3.09579
3.09755
3.09943
3.10143
3.10355
3.10578
3.10814
3.1106
3.11319
3.11588
3.11868
3.12159
3.1246
3.12772
3.13093
3.13424
3.13765
3.14115
3.14474
3.14841
3.15217
3.156
3.15991
3.16389
3.16794
3.17205
3.17622
3.18045
3.18473
3.18908
3.19344
3.19784
3.20228
3.20676
3.21126
3.21578
3.22031
3.22487
3.2294
3.23396
3.23851
3.24305
3.24759
3.2521
3.2566
3.26108
3.26553
3.26994
3.27432
3.27866
3.28296
3.28727
3.29134
3.29548
3.29956
3.30358
3.30753
3.31142
3.31525
3.31897
3.32262
3.32619
3.32967
3.33305
3.33634
3.33952
3.3426
3.34556
3.3484
3.35116
3.35374
3.35622
3.35857
3.36078
3.36286
3.3648
3.36658
3.36822
3.3697
3.371
3.37214
3.37311
3.37391
3.37452
3.37494
3.37515
3.37517
3.37498
3.37459
3.37399
3.37317
3.37215
3.37092
3.36947
3.36782
3.36598
3.36391
3.36164
3.35918
3.35654
3.35371
3.35072
3.34755
3.34422
3.34073
3.33709
3.33331
3.3294
3.32536
3.3212
3.31692
3.31255
3.30807
3.30348
3.29884
3.29412
3.28934
3.28451
3.27963
3.27474
3.2698
3.26486
3.25992
3.25498
3.25006
3.24514
3.24025
3.23538
3.23054
3.22573
3.22095
3.21619
3.21144
3.20669
3.20193
3.19714
3.19234
3.18743
3.18237
3.17717
3.17175
3.16606
3.16002
3.15357
3.14664
3.13913
3.131
3.12217
3.11258
3.1022
3.09106
3.07917
3.06659
3.05338
3.03965
3.0253
3.01056
2.9954
2.97989
2.96405
2.9479
2.93146
2.91472
2.89766
2.88026
2.86244
2.84426
2.82497
3.41451
3.41167
3.40882
3.40596
3.40315
3.40037
3.39762
3.39491
3.39222
3.38956
3.38692
3.3843
3.3817
3.37911
3.37652
3.37393
3.37133
3.36872
3.36608
3.3634
3.36069
3.35792
3.3551
3.35222
3.34927
3.34626
3.34316
3.33999
3.33674
3.33341
3.33
3.3265
3.32293
3.31927
3.31553
3.31172
3.30782
3.30385
3.29981
3.2957
3.29152
3.28728
3.28298
3.27863
3.27423
3.26977
3.26528
3.26074
3.25616
3.25155
3.24691
3.24225
3.23756
3.23285
3.22813
3.2234
3.21866
3.21391
3.20916
3.20442
3.19968
3.19495
3.19024
3.18554
3.18086
3.1762
3.17156
3.16696
3.16238
3.15784
3.15334
3.14888
3.14445
3.14008
3.13575
3.13148
3.12725
3.12308
3.11898
3.11493
3.11094
3.10702
3.10317
3.09939
3.09568
3.09205
3.0885
3.08502
3.08163
3.07833
3.07511
3.07198
3.06894
3.06599
3.06314
3.06039
3.05775
3.0552
3.05276
3.05043
3.04821
3.0461
3.0441
3.04222
3.04046
3.03882
3.03731
3.03591
3.03465
3.03352
3.03251
3.03164
3.03091
3.03031
3.02985
3.02953
3.02936
3.02932
3.02944
3.0297
3.0301
3.03066
3.03137
3.03222
3.03323
3.0344
3.03572
3.03719
3.03882
3.0406
3.04254
3.04463
3.04688
3.04928
3.05184
3.05456
3.05743
3.06045
3.06362
3.06694
3.07041
3.07403
3.07779
3.0817
3.08574
3.08993
3.09425
3.0987
3.10329
3.108
3.11285
3.11781
3.12287
3.12809
3.13337
3.13876
3.14425
3.14983
3.15551
3.16132
3.16715
3.17302
3.17898
3.185
3.19108
3.19721
3.20339
3.20959
3.21583
3.22209
3.22838
3.23469
3.24102
3.24733
3.25359
3.25988
3.26617
3.27242
3.27866
3.28486
3.29104
3.29717
3.30325
3.30929
3.31527
3.32116
3.32699
3.33276
3.33847
3.34409
3.34971
3.35525
3.36102
3.36571
3.37084
3.37586
3.38075
3.38551
3.39013
3.39461
3.39894
3.40312
3.40714
3.411
3.4148
3.41824
3.42155
3.42469
3.42763
3.43037
3.43296
3.43535
3.43753
3.43952
3.44148
3.44293
3.44425
3.44536
3.44625
3.44693
3.44738
3.44761
3.44767
3.4474
3.44699
3.44636
3.44553
3.44449
3.44327
3.44185
3.44026
3.43856
3.43663
3.43449
3.43228
3.42993
3.42745
3.42486
3.42217
3.41937
3.41651
3.41354
3.41052
3.40745
3.40432
3.40116
3.39798
3.39478
3.39151
3.38829
3.38508
3.38187
3.37867
3.37553
3.37238
3.36923
3.36614
3.36304
3.35999
3.35689
3.35377
3.35064
3.34745
3.34417
3.34083
3.33726
3.33355
3.3296
3.32535
3.32089
3.31581
3.31028
3.30414
3.29731
3.2897
3.28124
3.27179
3.26136
3.24992
3.2375
3.22413
3.20985
3.19474
3.17889
3.16237
3.14524
3.12757
3.1096
3.09138
3.07299
3.05451
3.03602
3.01758
2.99923
2.98101
2.96293
2.94498
2.92711
2.90929
2.8909
3.25429
3.25349
3.25273
3.25202
3.25142
3.25092
3.25049
3.25012
3.2498
3.2495
3.24923
3.24897
3.2487
3.24843
3.24814
3.24782
3.24746
3.24706
3.2466
3.24606
3.24545
3.24475
3.24394
3.24303
3.24198
3.24081
3.2395
3.23804
3.23643
3.23467
3.23275
3.23068
3.22846
3.22609
3.22357
3.2209
3.2181
3.21517
3.2121
3.2089
3.20558
3.20214
3.19859
3.19494
3.19118
3.18732
3.18336
3.17933
3.1752
3.171
3.16672
3.16238
3.15797
3.1535
3.14897
3.14439
3.13977
3.1351
3.1304
3.12566
3.1209
3.11611
3.1113
3.10647
3.10164
3.09679
3.09195
3.0871
3.08227
3.07744
3.07263
3.06783
3.06306
3.05832
3.05361
3.04893
3.04429
3.0397
3.03516
3.03066
3.02623
3.02185
3.01754
3.0133
3.00913
3.00504
3.00103
2.9971
2.99326
2.98952
2.98587
2.98232
2.97888
2.97555
2.97233
2.96922
2.96624
2.96338
2.96066
2.95806
2.9556
2.95329
2.95111
2.94909
2.94721
2.94549
2.94393
2.94254
2.94131
2.94024
2.93936
2.93864
2.93811
2.93776
2.93759
2.93761
2.93781
2.93821
2.93881
2.9396
2.94059
2.94178
2.94317
2.94476
2.94655
2.94855
2.95075
2.95316
2.95577
2.95859
2.9616
2.96482
2.96824
2.97185
2.97566
2.97967
2.98387
2.98825
2.99282
2.99757
3.0025
3.0076
3.01287
3.0183
3.0239
3.02965
3.03556
3.04162
3.04783
3.05418
3.06068
3.0673
3.07406
3.08099
3.088
3.09518
3.10244
3.10983
3.11734
3.12495
3.13262
3.14042
3.14832
3.1563
3.16436
3.17249
3.1807
3.18894
3.1972
3.20552
3.21389
3.22228
3.23068
3.23908
3.24748
3.25588
3.26424
3.27257
3.28083
3.28903
3.29718
3.30532
3.31337
3.32135
3.32935
3.33708
3.34482
3.35247
3.36001
3.36743
3.3747
3.38191
3.38901
3.39594
3.4027
3.40928
3.4157
3.42199
3.42814
3.43412
3.43994
3.44557
3.451
3.45625
3.46132
3.46647
3.47078
3.47516
3.47936
3.48335
3.48707
3.49054
3.49378
3.49678
3.49958
3.50242
3.50467
3.50655
3.50835
3.50995
3.51134
3.5125
3.51345
3.51443
3.51492
3.51515
3.51529
3.51527
3.5151
3.51477
3.5143
3.51371
3.51301
3.5123
3.5114
3.51037
3.50935
3.50828
3.50717
3.50602
3.50487
3.50378
3.50259
3.50144
3.50032
3.49924
3.4982
3.4972
3.49659
3.49552
3.4947
3.49397
3.49331
3.49271
3.49216
3.49169
3.4912
3.49079
3.49032
3.49
3.4894
3.48877
3.48806
3.48709
3.48591
3.48438
3.48251
3.48012
3.47715
3.4736
3.46913
3.46382
3.45757
3.45043
3.44199
3.43214
3.42084
3.40803
3.3937
3.37929
3.3636
3.34672
3.32877
3.30988
3.29017
3.26977
3.24882
3.22746
3.20583
3.18408
3.16235
3.14075
3.1194
3.0984
3.0778
3.05765
3.03799
3.01886
2.99976
2.97998
2.84525
2.85112
2.85749
2.86407
2.87035
2.87737
2.88449
2.89162
2.89878
2.90595
2.91309
2.92016
2.92715
2.93402
2.94076
2.94733
2.95372
2.95992
2.96591
2.97168
2.9772
2.98248
2.98749
2.99222
2.99666
3.00081
3.00465
3.00818
3.01139
3.01427
3.01684
3.01908
3.021
3.0226
3.02389
3.02488
3.02557
3.02597
3.02609
3.02595
3.02556
3.02492
3.02405
3.02295
3.02163
3.0201
3.01837
3.01645
3.01434
3.01204
3.00958
3.00695
3.00416
3.00121
2.99813
2.9949
2.99155
2.98807
2.98447
2.98076
2.97695
2.97304
2.96903
2.96494
2.96077
2.95653
2.95222
2.94784
2.94342
2.93894
2.93442
2.92986
2.92527
2.92066
2.91603
2.91139
2.90674
2.90209
2.89745
2.89282
2.8882
2.88362
2.87906
2.87455
2.87008
2.86565
2.86129
2.85699
2.85276
2.84861
2.84454
2.84056
2.83668
2.8329
2.82923
2.82568
2.82225
2.81895
2.81579
2.81278
2.80991
2.8072
2.80466
2.80228
2.80009
2.79807
2.79625
2.79462
2.79319
2.79197
2.79097
2.79019
2.78963
2.7893
2.78921
2.78937
2.78976
2.79041
2.79132
2.79248
2.79391
2.7956
2.79757
2.79981
2.80232
2.80511
2.80818
2.81154
2.81517
2.81909
2.82329
2.82777
2.83254
2.83759
2.84292
2.84852
2.85441
2.86056
2.86699
2.87368
2.88064
2.88785
2.89532
2.90303
2.91099
2.91918
2.92761
2.93626
2.94513
2.95422
2.96351
2.97301
2.98272
2.99261
3.00269
3.01293
3.02336
3.03397
3.0448
3.05581
3.06663
3.07756
3.08847
3.0994
3.11033
3.12124