/*--------------------------------*- C++ -*----------------------------------*\
| =========                 |                                                 |
| \\      /  F ield         | OpenFOAM: The Open Source CFD Toolbox           |
|  \\    /   O peration     | Version:  2.4.0                                 |
|   \\  /    A nd           | Web:      www.OpenFOAM.org                      |
|    \\/     M anipulation  |                                                 |
\*---------------------------------------------------------------------------*/
FoamFile
{
    version     2.0;
    format      ascii;
    class       volScalarField;
    location    "4";
    object      p_rgh;
}
// * * * * * * * * * * * * * * * * * * * * * * * * * * * * * * * * * * * * * //

dimensions      [1 -1 -2 0 0 0 0];

internalField   nonuniform List<scalar> 
8000
(
86.3363
86.3452
86.3556
86.3653
86.3743
86.3819
86.389
86.3955
86.4013
86.4064
86.4109
86.4147
86.4178
86.4204
86.4222
86.4234
86.4239
86.4237
86.4229
86.4213
86.419
86.416
86.4122
86.4076
86.4022
86.396
86.389
86.381
86.3721
86.3623
86.3515
86.3397
86.3268
86.3128
86.2976
86.2812
86.2635
86.2446
86.2249
86.2052
86.1831
86.1522
86.113
86.0677
86.0244
85.7413
81.7743
67.7964
63.2435
29.3119
86.3962
86.4113
86.4264
86.4397
86.4516
86.4622
86.472
86.4807
86.4884
86.4951
86.5008
86.5056
86.5093
86.5121
86.5139
86.5146
86.5144
86.5131
86.5108
86.5074
86.503
86.4974
86.4907
86.4829
86.4739
86.4636
86.4521
86.4392
86.425
86.4094
86.3923
86.3736
86.3534
86.3314
86.3079
86.2835
86.2584
86.23
86.1929
86.1641
86.129
86.0558
85.5545
80.7838
68.0326
60.4966
17.8604
7.09469
6.55091
5.10302
87.4399
87.4533
87.4689
87.4836
87.4973
87.5103
87.5228
87.5346
87.5459
87.5566
87.5668
87.5764
87.5854
87.5938
87.6016
87.6089
87.6155
87.6215
87.6268
87.6314
87.6354
87.6385
87.6409
87.6425
87.6432
87.643
87.6417
87.6395
87.6361
87.6314
87.6255
87.6186
87.6118
87.6057
87.5961
87.5756
87.5697
87.5524
87.4007
86.5935
79.3887
74.6202
48.7907
10.3914
6.01214
6.12329
4.76308
4.72653
4.72224
4.68494
87.8417
87.8545
87.8678
87.8802
87.892
87.9035
87.9148
87.9257
87.9364
87.9468
87.957
87.9669
87.9765
87.9859
87.9951
88.004
88.0128
88.0213
88.0297
88.038
88.0461
88.0542
88.0622
88.0702
88.0783
88.0863
88.0944
88.1025
88.1113
88.1222
88.1358
88.1454
88.1376
88.1484
88.1062
87.7508
86.4509
75.9088
70.0077
36.0152
5.82601
4.893
4.68526
4.617
4.59093
4.58061
4.57256
4.55659
4.55076
4.54919
89.0057
89.0101
89.0167
89.0246
89.0338
89.0442
89.0559
89.0689
89.0831
89.0987
89.1155
89.1337
89.1533
89.1742
89.1966
89.2205
89.2459
89.2729
89.3016
89.332
89.3642
89.3984
89.4345
89.4726
89.5128
89.5557
89.6024
89.6535
89.7026
89.7391
89.7995
89.7092
88.9568
86.8038
72.0686
64.8994
21.604
5.28545
5.056
4.68414
4.48897
4.47734
4.45497
4.43882
4.42826
4.42466
4.42362
4.4245
4.42724
4.43126
89.4126
89.4274
89.4438
89.4591
89.4734
89.4869
89.4998
89.5121
89.5238
89.5348
89.5452
89.555
89.5641
89.5725
89.5803
89.5872
89.5934
89.5988
89.6033
89.6069
89.6095
89.611
89.6109
89.6086
89.6044
89.6064
89.6353
89.6919
89.5829
88.5739
86.1216
69.1421
54.6274
8.61393
4.91148
5.12399
4.37813
4.2573
4.23281
4.22528
4.22263
4.22097
4.22268
4.2255
4.2294
4.23293
4.23586
4.2351
4.22786
4.22115
89.7218
89.7341
89.7461
89.7569
89.7671
89.777
89.7866
89.796
89.8051
89.814
89.8226
89.831
89.8391
89.8471
89.8549
89.8625
89.8701
89.8776
89.8851
89.8926
89.8993
89.9049
89.9122
89.937
89.9989
90.0291
89.6517
87.9214
79.6196
51.2229
10.5239
6.7335
6.57427
4.46697
3.88661
3.86619
3.86296
3.85907
3.85812
3.8601
3.86224
3.86247
3.85843
3.84948
3.83631
3.81956
3.79967
3.77712
3.75364
3.72483
91.4709
91.4717
91.4766
91.484
91.493
91.5034
91.5154
91.529
91.5443
91.5612
91.5798
91.6002
91.6225
91.6468
91.673
91.7014
91.7322
91.7653
91.8003
91.8358
91.8735
91.9297
92.0414
92.1751
91.9252
90.3472
84.4784
38.4538
4.55486
4.73989
4.41863
4.1358
4.00882
3.92392
3.86553
3.84188
3.83124
3.82104
3.80557
3.78384
3.75747
3.72748
3.69405
3.65757
3.61783
3.57585
3.5313
3.48468
3.43654
3.38612
90.5093
90.5307
90.5494
90.563
90.5726
90.5789
90.5818
90.5814
90.5777
90.5705
90.56
90.5461
90.5288
90.5081
90.484
90.4565
90.4253
90.3895
90.3489
90.3111
90.3008
90.322
90.1764
89.2371
87.3633
46.4001
4.90781
4.80485
4.55498
4.46983
4.44628
4.43225
4.41906
4.4013
4.3746
4.33941
4.29881
4.25485
4.20859
4.15867
4.1064
4.05185
3.99499
3.93686
3.87679
3.81556
3.75323
3.68975
3.62561
3.56043
92.6518
92.6555
92.6605
92.6642
92.6657
92.6652
92.6625
92.6579
92.6511
92.6422
92.6312
92.618
92.6028
92.5855
92.5661
92.5444
92.5191
92.4907
92.4702
92.4872
92.5324
92.3242
91.1173
89.1584
28.4764
4.96606
4.85561
4.85162
4.85748
4.86043
4.85555
4.84237
4.82179
4.79552
4.76485
4.7309
4.69467
4.65686
4.61718
4.5772
4.53642
4.49484
4.4525
4.40962
4.36521
4.32011
4.27389
4.22651
4.17799
4.12837
93.2714
93.2976
93.3228
93.3411
93.3527
93.3584
93.3583
93.3526
93.341
93.3236
93.3003
93.2711
93.236
93.195
93.1479
93.0941
93.0318
92.9617
92.9002
92.8892
92.9056
92.5221
90.6749
87.8835
17.4616
6.12865
5.23614
5.2335
5.15045
5.14763
5.14296
5.13748
5.13051
5.12189
5.11148
5.09975
5.08731
5.07332
5.0588
5.04342
5.02712
5.00994
4.9921
4.97317
4.95343
4.93286
4.9114
4.88911
4.86603
4.84219
94.9724
95.0333
95.0921
95.1361
95.1661
95.1839
95.1902
95.1849
95.168
95.1394
95.099
95.0467
94.9823
94.9055
94.8162
94.714
94.5984
94.4686
94.3243
94.168
94.0067
93.8379
93.5902
93.0579
92.2474
48.2549
8.49139
8.72018
5.29627
5.35473
5.36022
5.3657
5.36218
5.35772
5.35447
5.35099
5.34819
5.34433
5.34037
5.33583
5.33051
5.32449
5.31802
5.3108
5.30296
5.29483
5.2863
5.27746
5.26824
5.2588
99.6561
99.6722
99.6878
99.6996
99.7079
99.7133
99.7159
99.7157
99.7127
99.7071
99.6987
99.6876
99.6738
99.6572
99.638
99.6159
99.5911
99.5634
99.533
99.4995
99.4611
99.4153
99.3692
99.3681
99.4868
99.5653
98.2795
71.1848
4.38033
4.39962
5.28309
5.51552
5.43187
5.47777
5.47855
5.4828
5.48032
5.47701
5.47568
5.47481
5.47192
5.46864
5.4646
5.46014
5.45543
5.45059
5.44591
5.44061
5.4351
5.42953
105.181
105.137
105.094
105.06
105.035
105.017
105.005
105
105.002
105.01
105.026
105.048
105.078
105.115
105.16
105.213
105.273
105.343
105.421
105.508
105.606
105.714
105.834
105.968
106.104
106.214
106.311
106.158
105.359
104.381
78.6343
23.2041
7.53287
7.17076
5.81839
5.96955
5.51461
5.54581
5.52271
5.52639
5.52512
5.52398
5.52323
5.52185
5.51973
5.51644
5.5127
5.5084
5.50324
5.49812
108.005
107.957
107.906
107.864
107.829
107.801
107.78
107.765
107.756
107.754
107.758
107.769
107.786
107.809
107.839
107.876
107.919
107.97
108.028
108.093
108.166
108.246
108.335
108.432
108.539
108.658
108.789
108.91
108.964
109.019
108.922
108.731
106.434
104.367
76.76
34.6952
8.32724
8.26358
5.78629
6.0157
5.51809
5.54634
5.48341
5.47867
5.4793
5.47958
5.47909
5.47807
5.4766
5.47474
110.806
110.773
110.739
110.71
110.686
110.666
110.649
110.635
110.625
110.618
110.615
110.615
110.619
110.626
110.636
110.649
110.666
110.686
110.709
110.735
110.764
110.796
110.831
110.868
110.908
110.95
110.995
111.041
111.091
111.147
111.216
111.279
111.296
111.329
111.271
111.114
106.635
104.145
78.3573
25.0739
9.82241
8.69876
5.47412
5.51384
5.4712
5.44182
5.43643
5.43585
5.43543
5.43461
111.894
111.871
111.845
111.822
111.802
111.785
111.771
111.759
111.75
111.744
111.74
111.739
111.741
111.745
111.752
111.761
111.773
111.787
111.804
111.823
111.845
111.869
111.895
111.924
111.954
111.987
112.022
112.058
112.097
112.137
112.179
112.224
112.271
112.321
112.376
112.431
112.455
112.487
112.442
111.88
105.058
87.4589
30.118
10.9683
8.14552
5.78357
5.64275
5.48775
5.43569
5.4265
114.249
114.24
114.231
114.223
114.214
114.203
114.193
114.183
114.174
114.166
114.16
114.155
114.151
114.15
114.151
114.154
114.16
114.168
114.18
114.194
114.211
114.231
114.254
114.28
114.309
114.341
114.377
114.416
114.458
114.503
114.551
114.603
114.657
114.715
114.775
114.84
114.909
114.982
115.048
115.089
115.132
115.168
113.852
108.813
82.0481
29.1176
13.4509
7.56744
5.79298
5.49812
113.911
113.948
113.978
113.997
114.008
114.014
114.015
114.014
114.01
114.005
113.999
113.992
113.985
113.978
113.972
113.967
113.962
113.959
113.957
113.957
113.958
113.961
113.965
113.972
113.979
113.988
113.999
114.011
114.025
114.039
114.055
114.071
114.088
114.106
114.123
114.14
114.157
114.173
114.187
114.2
114.212
114.216
114.19
114.182
114.17
111.873
99.7775
48.6628
18.0852
9.47891
119.708
119.284
118.858
118.492
118.174
117.889
117.63
117.396
117.184
116.993
116.82
116.665
116.525
116.401
116.29
116.193
116.108
116.035
115.974
115.924
115.885
115.857
115.838
115.83
115.832
115.844
115.865
115.896
115.937
115.988
116.048
116.119
116.201
116.293
116.397
116.514
116.643
116.786
116.944
117.12
117.314
117.531
117.773
118.034
118.309
117.095
116.53
115.375
114.276
77.1205
8.89175
5.88949
5.44573
4.8164
4.76793
4.76234
4.76082
4.76125
4.76152
4.76129
4.76068
4.75983
4.759
4.75765
4.75629
4.75483
4.75329
4.75165
4.74985
4.74843
4.75059
4.74998
4.74612
4.7416
4.73866
4.73761
4.73765
4.73843
4.73973
4.74132
4.74309
4.74498
4.74687
4.74863
4.75018
4.75146
4.75243
4.75309
4.75343
4.75347
4.75321
4.75268
4.75189
4.75085
4.74958
4.74809
4.74638
4.74446
4.74235
4.74003
4.81717
4.77492
4.76398
4.75578
4.75272
4.75314
4.75373
4.7543
4.75483
4.75542
4.75609
4.75687
4.75777
4.75874
4.75975
4.76095
4.76242
4.76385
4.76541
4.7672
4.77226
4.77332
4.77065
4.77162
4.77375
4.77524
4.7779
4.78096
4.78185
4.78486
4.78835
4.79172
4.7946
4.79692
4.7988
4.80025
4.80127
4.80184
4.80198
4.80173
4.80114
4.80025
4.79908
4.79769
4.7961
4.79433
4.79242
4.79035
4.78815
4.7858
4.66975
4.66863
4.66975
4.67139
4.67338
4.67579
4.67881
4.68256
4.6872
4.69275
4.69922
4.70658
4.71481
4.72386
4.7337
4.74356
4.7541
4.76499
4.77592
4.78702
4.79861
4.80875
4.81871
4.82841
4.83773
4.84622
4.85414
4.8624
4.87257
4.87763
4.88053
4.88204
4.88365
4.8855
4.88662
4.88686
4.88616
4.8843
4.88162
4.87853
4.87507
4.87122
4.86702
4.86261
4.85812
4.85361
4.84909
4.84461
4.84018
4.83581
4.54938
4.55089
4.55333
4.55672
4.56126
4.56717
4.57462
4.58372
4.59452
4.60699
4.62104
4.63652
4.65312
4.67074
4.68914
4.70809
4.72739
4.74685
4.76624
4.78532
4.80391
4.82174
4.83869
4.85482
4.86975
4.88288
4.89477
4.90527
4.91393
4.92101
4.92939
4.93043
4.93214
4.93201
4.93026
4.9272
4.92301
4.91797
4.91277
4.90843
4.90184
4.89293
4.88534
4.8781
4.87101
4.86409
4.85741
4.851
4.84485
4.839
4.43577
4.44041
4.4453
4.45074
4.45696
4.46414
4.4723
4.48151
4.49158
4.50265
4.51463
4.52739
4.54083
4.55481
4.56921
4.58404
4.59908
4.61376
4.62821
4.64243
4.65613
4.66946
4.68221
4.69421
4.70538
4.71565
4.72493
4.73328
4.74089
4.74708
4.75217
4.75676
4.76033
4.76308
4.76488
4.76461
4.76273
4.76011
4.75509
4.74932
4.74586
4.73893
4.73161
4.72614
4.71928
4.71394
4.70891
4.70461
4.70116
4.69841
4.21399
4.20597
4.19681
4.18684
4.17652
4.16601
4.15528
4.14466
4.13453
4.12511
4.11644
4.10865
4.10185
4.09581
4.09101
4.08731
4.08473
4.08332
4.08307
4.08422
4.08631
4.08945
4.0937
4.09898
4.1051
4.11201
4.11983
4.12802
4.13688
4.14629
4.15585
4.16546
4.17721
4.18375
4.19291
4.1995
4.20908
4.21423
4.2231
4.22788
4.23752
4.24253
4.24844
4.25454
4.26076
4.2671
4.27725
4.28448
4.29176
4.30173
3.69508
3.6643
3.63267
3.60037
3.56776
3.53525
3.50305
3.47123
3.4403
3.41071
3.38242
3.35586
3.331
3.30766
3.28687
3.26842
3.2523
3.23899
3.22841
3.21939
3.21391
3.2105
3.21136
3.21319
3.21801
3.22517
3.23494
3.24734
3.26179
3.27806
3.29611
3.31679
3.33793
3.35859
3.38266
3.40552
3.43293
3.45699
3.48502
3.50819
3.53536
3.55944
3.58452
3.60968
3.63443
3.65893
3.68434
3.71098
3.73694
3.76311
3.33503
3.2832
3.23092
3.17859
3.12668
3.07517
3.0244
2.97501
2.92715
2.88109
2.83718
2.79594
2.75694
2.72066
2.68754
2.65772
2.63135
2.60856
2.58947
2.57418
2.56287
2.5566
2.55224
2.5525
2.55669
2.56479
2.57666
2.59232
2.61104
2.6322
2.65638
2.68364
2.71321
2.74501
2.77887
2.81452
2.852
2.89017
2.92877
2.96775
3.00713
3.04703
3.08633
3.1253
3.16461
3.2043
3.24282
3.28138
3.32037
3.36164
3.49485
3.4289
3.36276
3.29676
3.23114
3.16617
3.10218
3.03944
2.97827
2.9191
2.86208
2.80755
2.75587
2.70729
2.66216
2.6207
2.58319
2.54987
2.52107
2.49648
2.47687
2.46177
2.45163
2.4461
2.44453
2.44869
2.45567
2.46766
2.48419
2.50061
2.52356
2.54828
2.57867
2.61114
2.6463
2.68469
2.72309
2.76636
2.80938
2.85397
2.90038
2.94489
2.99265
3.04054
3.08874
3.13763
3.18706
3.23725
3.28896
3.34223
4.07772
4.02621
3.97397
3.92121
3.86827
3.81521
3.76233
3.70995
3.6583
3.60761
3.55849
3.51068
3.46475
3.42122
3.37971
3.34074
3.30486
3.27161
3.2417
3.21511
3.19179
3.17142
3.15502
3.14311
3.13434
3.13063
3.1308
3.13427
3.14178
3.15354
3.16825
3.18766
3.21048
3.23508
3.26287
3.29423
3.32746
3.36426
3.40435
3.44137
3.48302
3.52673
3.57144
3.61898
3.66527
3.71418
3.76447
3.81617
3.86939
3.92383
4.81766
4.79249
4.76687
4.74076
4.71433
4.68772
4.66103
4.63447
4.60821
4.5821
4.55671
4.53198
4.50814
4.48534
4.46374
4.4431
4.4241
4.40657
4.39063
4.37661
4.36457
4.35361
4.34599
4.3399
4.33603
4.33462
4.33627
4.3374
4.3428
4.35037
4.36022
4.3725
4.38722
4.40152
4.41938
4.43901
4.46044
4.48377
4.50829
4.53312
4.55987
4.58774
4.61653
4.64612
4.67615
4.70675
4.73761
4.76845
4.79904
4.82949
5.24911
5.23919
5.22909
5.21894
5.20859
5.19822
5.1879
5.17766
5.16758
5.15772
5.14819
5.13902
5.13028
5.12216
5.11472
5.10804
5.10183
5.09646
5.09201
5.08856
5.08617
5.08465
5.08404
5.08433
5.08553
5.08763
5.09066
5.09472
5.09939
5.1051
5.11166
5.119
5.12713
5.13592
5.1454
5.15549
5.16611
5.1772
5.18865
5.20042
5.21243
5.22461
5.23686
5.2491
5.26129
5.27332
5.28515
5.2966
5.30756
5.31822
5.42372
5.41785
5.41203
5.4061
5.40024
5.39455
5.38904
5.38373
5.37865
5.37383
5.36934
5.3652
5.36146
5.35814
5.35524
5.35277
5.35115
5.34963
5.34881
5.34846
5.34858
5.34916
5.35022
5.35173
5.3537
5.35611
5.35895
5.36221
5.36592
5.36993
5.37429
5.379
5.38401
5.38929
5.3948
5.40052
5.40642
5.41241
5.41852
5.4247
5.43091
5.43712
5.44328
5.44939
5.45537
5.46119
5.46688
5.47232
5.47749
5.48242
5.49275
5.48723
5.48164
5.47608
5.47096
5.46561
5.46038
5.45551
5.45097
5.4468
5.44305
5.43974
5.4369
5.43453
5.43264
5.43121
5.43029
5.42992
5.42947
5.4298
5.43051
5.4316
5.43302
5.43472
5.43676
5.43908
5.44165
5.44447
5.44754
5.45089
5.45457
5.45818
5.46185
5.46574
5.46982
5.47401
5.47831
5.48275
5.48708
5.49156
5.49607
5.50059
5.50509
5.50955
5.51396
5.51829
5.52251
5.52659
5.53051
5.53426
5.47291
5.46984
5.46707
5.46379
5.46084
5.4576
5.45434
5.45123
5.4481
5.44532
5.44266
5.44034
5.43836
5.43673
5.43552
5.43469
5.43421
5.43428
5.43489
5.43568
5.43675
5.43821
5.44003
5.44211
5.44443
5.44695
5.44963
5.45249
5.45556
5.45809
5.46116
5.46432
5.46759
5.47133
5.47473
5.47806
5.48164
5.48524
5.48904
5.49295
5.49697
5.50101
5.50492
5.50853
5.51226
5.51605
5.51981
5.52351
5.5271
5.53057
5.43327
5.43162
5.42978
5.42783
5.42579
5.42363
5.42158
5.41949
5.41727
5.41551
5.41382
5.41239
5.41135
5.41059
5.40961
5.40946
5.40969
5.4103
5.41126
5.41259
5.41427
5.41627
5.41867
5.4207
5.42324
5.42591
5.42855
5.43126
5.43424
5.43661
5.43914
5.44171
5.44416
5.44675
5.44959
5.45198
5.45437
5.45684
5.45939
5.46196
5.46456
5.46714
5.46977
5.47237
5.47497
5.47776
5.48045
5.48296
5.48524
5.48729
5.42508
5.42508
5.42516
5.42517
5.42507
5.42485
5.42483
5.42424
5.42364
5.423
5.42231
5.42159
5.42085
5.42018
5.41973
5.41919
5.41854
5.41809
5.41794
5.41804
5.41835
5.41886
5.41961
5.42052
5.42126
5.42225
5.4233
5.42431
5.42592
5.42658
5.42749
5.42838
5.42909
5.43
5.4311
5.43123
5.43192
5.43267
5.4334
5.43417
5.43497
5.43563
5.43586
5.43633
5.43682
5.43721
5.4375
5.43776
5.43892
5.43769
5.44134
5.43365
5.43376
5.43405
5.43431
5.43458
5.43488
5.43521
5.43553
5.43584
5.43609
5.43628
5.43639
5.43656
5.43704
5.43676
5.43631
5.43591
5.43554
5.43514
5.43472
5.43428
5.43388
5.43358
5.4329
5.43247
5.43206
5.43164
5.43177
5.43104
5.43058
5.43015
5.42961
5.42983
5.4289
5.42838
5.42789
5.4274
5.42688
5.42641
5.4262
5.425
5.42446
5.42373
5.42318
5.42224
5.42122
5.42035
5.419
5.41738
5.8594
5.44951
5.43993
5.43989
5.44
5.44018
5.44037
5.44057
5.44076
5.44092
5.44105
5.44113
5.44123
5.44115
5.44089
5.44063
5.44029
5.43988
5.43939
5.43884
5.43824
5.43759
5.43692
5.43621
5.43548
5.43475
5.43401
5.43331
5.4326
5.43168
5.43091
5.43012
5.42934
5.42854
5.42773
5.42709
5.42626
5.42552
5.42466
5.4239
5.42353
5.42208
5.4212
5.42034
5.41953
5.41856
5.41759
5.41693
5.41563
5.41451
16.1754
6.20686
5.46422
5.44282
5.4429
5.44329
5.44353
5.44334
5.44342
5.44345
5.44341
5.44329
5.44308
5.44279
5.44241
5.44194
5.4414
5.44079
5.44012
5.43939
5.43862
5.43781
5.43697
5.4361
5.4352
5.43429
5.43336
5.43241
5.43145
5.43048
5.4295
5.42851
5.42752
5.42651
5.4255
5.42448
5.42345
5.42241
5.42136
5.42039
5.41959
5.41848
5.41708
5.41583
5.41463
5.41339
5.41211
5.41079
5.4095
5.40811
4.7381
4.73668
4.73521
4.73367
4.73208
4.73043
4.72874
4.727
4.72521
4.72338
4.72151
4.7196
4.71765
4.71566
4.71362
4.71155
4.70943
4.70728
4.70508
4.70283
4.70055
4.69822
4.69584
4.69343
4.69097
4.68847
4.68593
4.68334
4.68072
4.67806
4.67537
4.67264
4.66988
4.66708
4.66425
4.6614
4.65852
4.65561
4.65268
4.64973
4.64676
4.64377
4.64077
4.63775
4.63471
4.63167
4.62861
4.62555
4.62248
4.6194
4.61632
4.61324
4.61015
4.60707
4.60398
4.6009
4.59782
4.59475
4.59168
4.58862
4.58557
4.58253
4.57949
4.57647
4.57347
4.57048
4.5675
4.56455
4.56161
4.55869
4.55579
4.55292
4.55007
4.54725
4.54445
4.54168
4.53895
4.53624
4.53357
4.53094
4.52834
4.52578
4.52326
4.52078
4.51835
4.51596
4.51362
4.51132
4.50908
4.50689
4.50475
4.50267
4.50064
4.49868
4.49677
4.49492
4.49314
4.49142
4.48978
4.48819
4.48668
4.48524
4.48387
4.48258
4.48136
4.48022
4.47916
4.47817
4.47727
4.47645
4.47571
4.47505
4.47448
4.474
4.4736
4.47329
4.47306
4.47293
4.47288
4.47292
4.47305
4.47327
4.47358
4.47398
4.47447
4.47505
4.47572
4.47647
4.47731
4.47824
4.47925
4.48035
4.48153
4.48279
4.48413
4.48556
4.48706
4.48863
4.49028
4.492
4.49379
4.49564
4.49756
4.49954
4.50158
4.50367
4.50581
4.50801
4.51025
4.51253
4.51485
4.5172
4.51959
4.522
4.52444
4.52689
4.52936
4.53184
4.53433
4.53682
4.53931
4.54179
4.54426
4.54672
4.54916
4.55157
4.55395
4.5563
4.55862
4.56089
4.56312
4.5653
4.56742
4.56949
4.5715
4.57344
4.57531
4.57712
4.57884
4.58049
4.58207
4.58356
4.58496
4.58628
4.58752
4.58866
4.58972
4.59069
4.59157
4.59235
4.59305
4.59366
4.59418
4.59461
4.59495
4.59521
4.59538
4.59547
4.59547
4.5954
4.59525
4.59502
4.59471
4.59433
4.59388
4.59335
4.59275
4.59208
4.59133
4.59052
4.58962
4.58865
4.5876
4.58646
4.58524
4.58393
4.58252
4.58101
4.57938
4.57765
4.57579
4.57381
4.57168
4.56942
4.567
4.56443
4.5617
4.55879
4.55572
4.55247
4.54904
4.54543
4.54165
4.53768
4.53354
4.52922
4.52473
4.52006
4.51523
4.51022
4.50505
4.49972
4.49423
4.48859
4.48279
4.47684
4.47076
4.46455
4.45822
4.45179
4.44526
4.43865
4.43198
4.42527
4.41852
4.41177
4.40503
4.39831
4.39164
4.38505
4.37854
4.37214
4.36587
4.35976
4.3538
4.34804
4.34248
4.33715
4.33205
4.32719
4.32257
4.31825
4.31418
4.31032
4.30665
4.30311
4.29966
4.29623
4.29272
4.28905
4.28509
4.28074
4.27589
4.27047
4.26443
4.25773
4.25039
4.2424
4.23364
4.22418
4.21402
4.20314
4.19153
4.17918
4.16605
4.15211
4.13732
4.1216
4.10505
4.08711
4.78388
4.7825
4.78106
4.77956
4.77799
4.77637
4.77469
4.77296
4.77118
4.76935
4.76747
4.76553
4.76355
4.76152
4.75944
4.75731
4.75513
4.75289
4.7506
4.74826
4.74586
4.74341
4.74089
4.73831
4.73567
4.73298
4.73022
4.7274
4.72453
4.72159
4.71861
4.71557
4.71247
4.70933
4.70614
4.70291
4.69963
4.69632
4.69297
4.68959
4.68617
4.68273
4.67926
4.67578
4.67227
4.66874
4.66521
4.66166
4.6581
4.65453
4.65096
4.64739
4.64382
4.64025
4.63668
4.63312
4.62957
4.62603
4.6225
4.61899
4.61548
4.612
4.60853
4.60508
4.60165
4.59825
4.59487
4.59151
4.58819
4.58489
4.58161
4.57838
4.57517
4.572
4.56886
4.56576
4.56269
4.55967
4.55669
4.55375
4.55085
4.548
4.5452
4.54244
4.53974
4.53709
4.53449
4.53194
4.52945
4.52702
4.52465
4.52234
4.52009
4.5179
4.51578
4.51373
4.51175
4.50983
4.50799
4.50623
4.50453
4.50292
4.50138
4.49992
4.49855
4.49725
4.49605
4.49492
4.49388
4.49293
4.49207
4.4913
4.49062
4.49004
4.48955
4.48915
4.48885
4.48864
4.48853
4.48852
4.48861
4.48879
4.48908
4.48946
4.48995
4.49053
4.49121
4.49199
4.49287
4.49385
4.49493
4.49611
4.49738
4.49875
4.50021
4.50177
4.50342
4.50516
4.507
4.50892
4.51092
4.51301
4.51519
4.51744
4.51977
4.52218
4.52466
4.52721
4.52983
4.53251
4.53526
4.53806
4.54092
4.54383
4.54679
4.54979
4.55284
4.55592
4.55903
4.56218
4.56534
4.56854
4.57174
4.57497
4.5782
4.58143
4.58467
4.5879
4.59113
4.59434
4.59754
4.60072
4.60388
4.60701
4.61011
4.61318
4.6162
4.61919
4.62213
4.62502
4.62787
4.63064
4.63337
4.63603
4.63864
4.64118
4.64366
4.64606
4.6484
4.65066
4.65285
4.65497
4.65701
4.65896
4.66084
4.66264
4.66435
4.66599
4.66751
4.66896
4.67032
4.67159
4.67277
4.67384
4.67482
4.67571
4.67646
4.67712
4.67767
4.6781
4.67842
4.67861
4.67867
4.67861
4.67841
4.67805
4.67755
4.67689
4.67607
4.67509
4.67393
4.6726
4.67108
4.66937
4.66747
4.66537
4.66309
4.66061
4.65794
4.65507
4.65202
4.64877
4.64534
4.64173
4.63794
4.63398
4.62985
4.62556
4.6211
4.6165
4.61172
4.60681
4.60175
4.59656
4.59123
4.58579
4.58023
4.57457
4.5688
4.56294
4.55702
4.55103
4.545
4.53894
4.53285
4.52676
4.52067
4.51461
4.50859
4.50261
4.49671
4.49088
4.48513
4.47949
4.47397
4.46856
4.46329
4.45815
4.45313
4.44825
4.44352
4.4389
4.43434
4.42982
4.4253
4.42078
4.41609
4.41119
4.40604
4.4005
4.39447
4.38783
4.38051
4.37248
4.36373
4.35426
4.34412
4.33334
4.32189
4.3098
4.29708
4.28373
4.26977
4.25516
4.23991
4.22396
4.20729
4.18983
4.17163
4.15202
4.83251
4.83022
4.82792
4.82559
4.82325
4.82089
4.81852
4.81613
4.81373
4.81131
4.80887
4.80641
4.80393
4.80143
4.7989
4.79633
4.79373
4.79109
4.78841
4.78568
4.7829
4.78008
4.77719
4.77425
4.77125
4.76819
4.76506
4.76187
4.75861
4.75528
4.75189
4.74843
4.7449
4.74132
4.73767
4.73396
4.73019
4.72637
4.7225
4.71858
4.71462
4.71061
4.70657
4.70249
4.69838
4.69425
4.69008
4.6859
4.6817
4.67748
4.67326
4.66902
4.66478
4.66054
4.65629
4.65206
4.64782
4.6436
4.63939
4.6352
4.63102
4.62686
4.62272
4.6186
4.61451
4.61045
4.60642
4.60242
4.59846
4.59453
4.59064
4.58679
4.58298
4.57921
4.57549
4.57181
4.56819
4.56461
4.56108
4.55761
4.55419
4.55083
4.54753
4.54429
4.54111
4.53799
4.53494
4.53196
4.52904
4.52619
4.52342
4.52072
4.51809
4.51554
4.51307
4.51068
4.50838
4.50615
4.50401
4.50196
4.5
4.49813
4.49636
4.49468
4.49309
4.4916
4.49021
4.48893
4.48775
4.48667
4.4857
4.48483
4.48408
4.48344
4.48291
4.48249
4.48219
4.482
4.48193
4.48198
4.48215
4.48244
4.48285
4.48339
4.48404
4.48482
4.48572
4.48675
4.48789
4.48916
4.49056
4.49207
4.49371
4.49547
4.49735
4.49935
4.50147
4.50371
4.50606
4.50853
4.51111
4.51381
4.51661
4.51952
4.52253
4.52564
4.52886
4.53217
4.53558
4.53908
4.54267
4.54634
4.5501
4.55393
4.55784
4.56182
4.56587
4.56998
4.57415
4.57838
4.58267
4.58703
4.59138
4.59577
4.60021
4.60469
4.60919
4.61371
4.61825
4.62281
4.62733
4.63189
4.63644
4.64098
4.64552
4.65004
4.65454
4.65901
4.66346
4.66788
4.67225
4.6766
4.68092
4.68524
4.68928
4.69342
4.6975
4.70152
4.70547
4.70937
4.7132
4.7169
4.72055
4.72412
4.7276
4.73098
4.73427
4.73745
4.74053
4.74349
4.74633
4.7491
4.75167
4.75415
4.7565
4.75872
4.76079
4.76273
4.76452
4.76615
4.76764
4.76894
4.77008
4.77105
4.77184
4.77245
4.77287
4.77309
4.77311
4.77291
4.77252
4.77192
4.77111
4.77008
4.76885
4.7674
4.76576
4.76393
4.76186
4.75957
4.75711
4.75447
4.75164
4.74864
4.74547
4.74214
4.73866
4.73502
4.73124
4.72733
4.72329
4.71913
4.71486
4.7105
4.70602
4.70142
4.69677
4.69205
4.68727
4.68244
4.67758
4.67269
4.66775
4.6628
4.65785
4.65291
4.64799
4.64307
4.63818
4.63331
4.62847
4.62366
4.61888
4.61412
4.60937
4.60462
4.59986
4.59508
4.59031
4.5854
4.58031
4.57511
4.56968
4.56399
4.55795
4.55152
4.54459
4.53706
4.52893
4.5201
4.51051
4.50013
4.48898
4.47709
4.46451
4.45131
4.43757
4.42323
4.40848
4.39333
4.37781
4.36197
4.34583
4.32939
4.31265
4.29559
4.27819
4.26037
4.24218
4.22289
4.83481
4.83197
4.82911
4.82626
4.82344
4.82067
4.81792
4.8152
4.81252
4.80985
4.80721
4.80459
4.80199
4.7994
4.79681
4.79422
4.79162
4.78901
4.78637
4.7837
4.78098
4.77822
4.7754
4.77252
4.76957
4.76655
4.76345
4.76028
4.75703
4.7537
4.75029
4.7468
4.74322
4.73956
4.73583
4.73201
4.72811
4.72414
4.7201
4.71599
4.71181
4.70757
4.70328
4.69892
4.69452
4.69007
4.68557
4.68103
4.67646
4.67185
4.66721
4.66254
4.65785
4.65315
4.64842
4.64369
4.63895
4.6342
4.62946
4.62471
4.61997
4.61525
4.61053
4.60583
4.60115
4.59649
4.59185
4.58725
4.58267
4.57813
4.57363
4.56917
4.56475
4.56037
4.55604
4.55177
4.54754
4.54338
4.53927
4.53522
4.53123
4.52732
4.52346
4.51968
4.51598
4.51234
4.50879
4.50532
4.50193
4.49862
4.4954
4.49227
4.48923
4.48629
4.48344
4.48069
4.47804
4.47549
4.47305
4.47072
4.4685
4.46639
4.46439
4.46251
4.46075
4.45911
4.4576
4.45621
4.45494
4.45381
4.45281
4.45194
4.4512
4.4506
4.45015
4.44983
4.44965
4.44962
4.44973
4.44999
4.4504
4.45095
4.45166
4.45252
4.45353
4.45469
4.45601
4.45748
4.45911
4.46089
4.46283
4.46492
4.46717
4.46958
4.47214
4.47485
4.47772
4.48074
4.48391
4.48724
4.49071
4.49432
4.49809
4.50199
4.50604
4.51022
4.51455
4.519
4.52359
4.5283
4.53315
4.5381
4.54317
4.54839
4.55367
4.55905
4.56454
4.57013
4.57582
4.58165
4.58748
4.59332
4.59928
4.6053
4.61138
4.61751
4.62369
4.62989
4.63613
4.6424
4.6487
4.65506
4.6614
4.66771
4.67396
4.68019
4.68647
4.69273
4.69896
4.70517
4.71134
4.71747
4.72357
4.72963
4.73561
4.74149
4.7473
4.75307
4.75877
4.7644
4.77005
4.77566
4.78153
4.78607
4.79115
4.79616
4.80105
4.8058
4.81043
4.81491
4.81924
4.82342
4.82744
4.83131
4.83514
4.83856
4.84185
4.84499
4.84793
4.85067
4.85326
4.85565
4.85783
4.85985
4.86186
4.86329
4.86455
4.86566
4.86655
4.86722
4.86768
4.86794
4.868
4.86772
4.86729
4.86666
4.86583
4.86479
4.86357
4.86215
4.86059
4.85891
4.85699
4.85482
4.85258
4.85023
4.84775
4.84516
4.84246
4.83968
4.83682
4.83384
4.83082
4.82774
4.82462
4.82147
4.81832
4.81512
4.81183
4.80859
4.80538
4.80216
4.79899
4.79586
4.7927
4.78954
4.78644
4.78334
4.78031
4.77722
4.77407
4.77094
4.76775
4.76448
4.76115
4.75756
4.75385
4.7499
4.74568
4.74127
4.73616
4.73058
4.72444
4.71761
4.71
4.70155
4.6921
4.68166
4.67022
4.6578
4.64442
4.63014
4.61503
4.59918
4.58266
4.56553
4.54786
4.52989
4.51167
4.49328
4.47481
4.45632
4.43787
4.41952
4.4013
4.38322
4.36527
4.3474
4.32958
4.3112
4.69697
4.69616
4.69539
4.69468
4.69408
4.69358
4.69315
4.69278
4.69246
4.69217
4.69189
4.69163
4.69137
4.69109
4.6908
4.69048
4.69012
4.68972
4.68926
4.68873
4.68811
4.68741
4.68661
4.68569
4.68464
4.68347
4.68216
4.6807
4.67909
4.67733
4.67541
4.67334
4.67112
4.66875
4.66623
4.66356
4.66076
4.65783
4.65476
4.65156
4.64824
4.6448
4.64125
4.6376
4.63383
4.62998
4.62602
4.62198
4.61786
4.61366
4.60938
4.60504
4.60063
4.59616
4.59163
4.58705
4.58243
4.57776
4.57306
4.56832
4.56356
4.55877
4.55396
4.54913
4.5443
4.53945
4.53461
4.52976
4.52493
4.5201
4.51528
4.51049
4.50572
4.50098
4.49626
4.49159
4.48695
4.48236
4.47781
4.47332
4.46889
4.46451
4.4602
4.45596
4.45179
4.4477
4.44368
4.43976
4.43592
4.43217
4.42853
4.42498
4.42154
4.41821
4.41499
4.41188
4.4089
4.40604
4.40332
4.40072
4.39826
4.39594
4.39377
4.39175
4.38987
4.38815
4.38659
4.3852
4.38397
4.3829
4.38202
4.3813
4.38077
4.38042
4.38025
4.38027
4.38047
4.38088
4.38147
4.38226
4.38325
4.38444
4.38583
4.38742
4.38922
4.39121
4.39342
4.39582
4.39843
4.40125
4.40426
4.40748
4.4109
4.41451
4.41833
4.42233
4.42653
4.43091
4.43548
4.44023
4.44516
4.45026
4.45553
4.46097
4.46656
4.47232
4.47822
4.48428
4.49049
4.49685
4.50334
4.50997
4.51672
4.52367
4.53067
4.53784
4.5451
4.55251
4.56003
4.56765
4.5753
4.58308
4.59098
4.59896
4.60702
4.61517
4.62339
4.63163
4.63988
4.64819
4.65655
4.66494
4.67335
4.68175
4.69019
4.69867
4.70705
4.71537
4.72364
4.73181
4.73987
4.74799
4.75605
4.76403
4.77205
4.77975
4.78749
4.79514
4.80268
4.8101
4.81739
4.82469
4.83193
4.83886
4.84562
4.85213
4.85845
4.86468
4.87081
4.87679
4.8826
4.88823
4.89367
4.89892
4.90405
4.90928
4.9135
4.91783
4.92203
4.92602
4.92973
4.93321
4.93644
4.93945
4.94231
4.94527
4.94751
4.94929
4.95102
4.95262
4.954
4.95516
4.95615
4.95722
4.9577
4.95784
4.95795
4.95794
4.95776
4.95743
4.95697
4.95637
4.95572
4.95505
4.95416
4.95308
4.95202
4.95094
4.94983
4.94869
4.94754
4.94648
4.94529
4.94411
4.94299
4.94191
4.94086
4.93988
4.93939
4.93826
4.93738
4.93664
4.93597
4.93537
4.93485
4.93438
4.93389
4.93347
4.933
4.93276
4.93213
4.93145
4.93073
4.92976
4.92859
4.92706
4.92517
4.92278
4.91985
4.91635
4.91186
4.90651
4.90023
4.8931
4.88466
4.87481
4.86351
4.8507
4.83636
4.82195
4.80626
4.78938
4.77143
4.75253
4.73282
4.71243
4.69148
4.67012
4.64849
4.62674
4.60501
4.58341
4.56206
4.54106
4.52046
4.50031
4.48065
4.46152
4.44242
4.42264
4.31029
4.31619
4.32263
4.32922
4.33544
4.34241
4.34951
4.35665
4.36381
4.37097
4.37811
4.38519
4.39218
4.39905
4.40579
4.41236
4.41875
4.42495
4.43094
4.43671
4.44223
4.44751
4.45252
4.45725
4.46169
4.46584
4.46968
4.47321
4.47641
4.4793
4.48186
4.4841
4.48602
4.48763
4.48892
4.48991
4.4906
4.491
4.49112
4.49098
4.49058
4.48995
4.48907
4.48797
4.48666
4.48513
4.4834
4.48148
4.47936
4.47707
4.4746
4.47197
4.46918
4.46624
4.46315
4.45993
4.45657
4.45309
4.4495
4.44579
4.44198
4.43806
4.43406
4.42997
4.4258
4.42155
4.41724
4.41287
4.40844
4.40396
4.39944
4.39489
4.3903
4.38569
4.38106
4.37641
4.37176
4.36712
4.36247
4.35784
4.35323
4.34864
4.34409
4.33957
4.3351
4.33068
4.32632
4.32202
4.31779
4.31363
4.30956
4.30558
4.3017
4.29792
4.29426
4.2907
4.28728
4.28398
4.28082
4.2778
4.27494
4.27223
4.26968
4.26731
4.26511
4.2631
4.26127
4.25965
4.25822
4.257
4.256
4.25521
4.25466
4.25433
4.25424
4.25439
4.25479
4.25544
4.25634
4.25751
4.25894
4.26063
4.2626
4.26483
4.26735
4.27014
4.27321
4.27656
4.2802
4.28412
4.28832
4.2928
4.29757
4.30262
4.30794
4.31355
4.31943
4.32559
4.33202
4.33871
4.34567
4.35288
4.36034
4.36806
4.37602
4.38421
4.39263
4.40129
4.41016
4.41925
4.42854
4.43805
4.44775
4.45764
4.46771
4.47796
4.48839
4.499
4.50984
4.52087
4.53166
4.54258
4.5535
4.56444
4.57537
4.58627
4.59717
4.60806
4.61892
4.62977
4.6406
4.65139
4.66214
4.67289
4.68362
4.69433
4.70501
4.71565
4.72632
4.73697
4.74745
4.75783
4.76806
4.77812
4.7882
4.79821
4.8081
4.81788
4.82753
4.83705
4.84643
4.85569
4.86488
4.87397