/*--------------------------------*- C++ -*----------------------------------*\
| =========                 |                                                 |
| \\      /  F ield         | OpenFOAM: The Open Source CFD Toolbox           |
|  \\    /   O peration     | Version:  2.4.0                                 |
|   \\  /    A nd           | Web:      www.OpenFOAM.org                      |
|    \\/     M anipulation  |                                                 |
\*---------------------------------------------------------------------------*/
FoamFile
{
    version     2.0;
    format      ascii;
    class       surfaceScalarField;
    location    "4";
    object      phi;
}
// * * * * * * * * * * * * * * * * * * * * * * * * * * * * * * * * * * * * * //

dimensions      [0 3 -1 0 0 0 0];

internalField   nonuniform List<scalar> 
15580
(
6.8028e-14
-9.98523e-13
3.00869e-13
-2.9669e-12
6.99341e-13
-4.89076e-12
1.25136e-12
-6.76144e-12
1.9457e-12
-8.57765e-12
2.77171e-12
-1.03381e-11
3.71926e-12
-1.20419e-11
4.77859e-12
-1.3688e-11
5.94029e-12
-1.52754e-11
7.19518e-12
-1.68035e-11
8.53424e-12
-1.82714e-11
9.94861e-12
-1.96785e-11
1.14294e-11
-2.10242e-11
1.29679e-11
-2.23081e-11
1.45549e-11
-2.35295e-11
1.61816e-11
-2.46883e-11
1.78385e-11
-2.57841e-11
1.95163e-11
-2.68167e-11
2.12049e-11
-2.7786e-11
2.28944e-11
-2.86918e-11
2.4574e-11
-2.95344e-11
2.62328e-11
-3.03136e-11
2.78592e-11
-3.10297e-11
2.94411e-11
-3.1683e-11
3.09658e-11
-3.22737e-11
3.24201e-11
-3.28023e-11
3.37898e-11
-3.32693e-11
3.50603e-11
-3.36752e-11
3.62159e-11
-3.40206e-11
3.72404e-11
-3.43063e-11
3.81164e-11
-3.45332e-11
3.8826e-11
-3.47022e-11
3.93499e-11
-3.48141e-11
3.96683e-11
-3.48705e-11
3.97598e-11
-3.48721e-11
3.96027e-11
-3.48209e-11
3.91729e-11
-3.47174e-11
3.84466e-11
-3.45644e-11
3.73986e-11
-3.43639e-11
3.6013e-11
-3.4128e-11
3.42842e-11
-3.38704e-11
3.20775e-11
-3.34659e-11
2.92308e-11
-3.28959e-11
2.51756e-11
-3.21682e-11
2.08853e-11
-3.22101e-11
1.48102e-11
-3.11058e-11
-4.30952e-13
-2.78538e-11
-1.30875e-11
-2.2464e-11
-4.01555e-11
-8.40113e-12
-3.782e-11
-3.58896e-11
1.62395e-13
-1.16092e-12
5.89001e-13
-3.39351e-12
1.24953e-12
-5.55129e-12
2.1289e-12
-7.64082e-12
3.21281e-12
-9.66156e-12
4.48757e-12
-1.16129e-11
5.93995e-12
-1.34943e-11
7.55711e-12
-1.53051e-11
9.32649e-12
-1.70448e-11
1.12357e-11
-1.87127e-11
1.32726e-11
-2.03083e-11
1.5425e-11
-2.18309e-11
1.76805e-11
-2.32798e-11
2.00268e-11
-2.46544e-11
2.24514e-11
-2.59541e-11
2.49413e-11
-2.71782e-11
2.74834e-11
-2.83262e-11
3.0064e-11
-2.93973e-11
3.2669e-11
-3.03909e-11
3.52836e-11
-3.13065e-11
3.78926e-11
-3.21433e-11
4.04798e-11
-3.29008e-11
4.30282e-11
-3.35782e-11
4.55201e-11
-3.41749e-11
4.79367e-11
-3.46903e-11
5.02579e-11
-3.51236e-11
5.24629e-11
-3.54742e-11
5.45291e-11
-3.57413e-11
5.64327e-11
-3.59242e-11
5.81485e-11
-3.60221e-11
5.96495e-11
-3.60341e-11
6.09067e-11
-3.59594e-11
6.18898e-11
-3.57972e-11
6.25656e-11
-3.55463e-11
6.29003e-11
-3.52068e-11
6.28609e-11
-3.47815e-11
6.24252e-11
-3.42818e-11
6.15956e-11
-3.37348e-11
6.01358e-11
-3.29041e-11
5.81119e-11
-3.21041e-11
5.4789e-11
-3.07888e-11
5.1494e-11
-3.04104e-11
4.39821e-11
-2.89964e-11
2.56839e-11
-2.58786e-11
7.72737e-12
-1.43885e-11
-2.58249e-11
2.40061e-12
3.81844e-12
-5.74972e-11
-6.04859e-11
4.18404e-11
-8.09764e-11
1.20894e-11
-5.88748e-12
-1.12909e-10
1.08131e-13
-1.26905e-12
4.60636e-13
-3.74602e-12
1.05891e-12
-6.14956e-12
1.89172e-12
-8.47362e-12
2.94824e-12
-1.07181e-11
4.21796e-12
-1.28826e-11
5.69055e-12
-1.49669e-11
7.35578e-12
-1.69703e-11
9.2035e-12
-1.88925e-11
1.12236e-11
-2.07328e-11
1.34057e-11
-2.24905e-11
1.57397e-11
-2.41648e-11
1.82148e-11
-2.57549e-11
2.08204e-11
-2.726e-11
2.35452e-11
-2.86789e-11
2.63778e-11
-3.00108e-11
2.93061e-11
-3.12545e-11
3.23175e-11
-3.24087e-11
3.53989e-11
-3.34724e-11
3.85364e-11
-3.4444e-11
4.17153e-11
-3.53222e-11
4.49198e-11
-3.61053e-11
4.81335e-11
-3.67918e-11
5.13384e-11
-3.73798e-11
5.45156e-11
-3.78675e-11
5.76444e-11
-3.82525e-11
6.0703e-11
-3.85328e-11
6.36673e-11
-3.87056e-11
6.65118e-11
-3.87687e-11
6.92084e-11
-3.87187e-11
7.17271e-11
-3.85528e-11
7.40368e-11
-3.82691e-11
7.6113e-11
-3.78734e-11
7.79472e-11
-3.73805e-11
7.95782e-11
-3.68378e-11
8.06839e-11
-3.58872e-11
8.12665e-11
-3.48644e-11
8.06371e-11
-3.33352e-11
8.03118e-11
-3.31349e-11
7.0469e-11
-3.02189e-11
5.47165e-11
-2.98855e-11
2.63835e-11
-2.27333e-12
1.06865e-11
-1.33596e-11
-2.15725e-11
6.38041e-12
-6.57975e-11
2.98365e-11
-1.2944e-10
6.60427e-11
-2.66385e-10
7.94485e-11
-3.40064e-10
1.15519e-10
-5.08861e-10
1.80886e-10
1.90964e-10
-7.05712e-10
1.32328e-13
-1.40138e-12
4.86884e-13
-4.10057e-12
1.04782e-12
-6.7105e-12
1.81196e-12
-9.23777e-12
2.776e-12
-1.16821e-11
3.93647e-12
-1.40431e-11
5.2898e-12
-1.63202e-11
6.83228e-12
-1.85128e-11
8.55999e-12
-2.06202e-11
1.04689e-11
-2.26417e-11
1.25547e-11
-2.45763e-11
1.48129e-11
-2.64231e-11
1.7239e-11
-2.8181e-11
1.98282e-11
-2.98491e-11
2.25754e-11
-3.14261e-11
2.54756e-11
-3.2911e-11
2.85234e-11
-3.43023e-11
3.17136e-11
-3.55989e-11
3.50404e-11
-3.67992e-11
3.84985e-11
-3.7902e-11
4.20819e-11
-3.89056e-11
4.5785e-11
-3.98084e-11
4.96019e-11
-4.06087e-11
5.35269e-11
-4.13048e-11
5.7554e-11
-4.18946e-11
6.16775e-11
-4.2376e-11
6.5891e-11
-4.27464e-11
7.01882e-11
-4.30028e-11
7.45628e-11
-4.31433e-11
7.90186e-11
-4.31745e-11
8.35807e-11
-4.3115e-11
8.83411e-11
-4.30294e-11
9.27566e-11
-4.22889e-11
9.67517e-11
-4.13755e-11
9.95267e-11
-4.01578e-11
1.02908e-10
-4.0636e-11
8.77806e-11
-3.79061e-11
7.69949e-11
-3.5e-11
4.23573e-11
1.27803e-12
5.67623e-11
-4.46894e-11
8.05949e-11
-5.37181e-11
-2.12796e-12
8.04495e-11
-4.0539e-11
2.50514e-11
-8.97091e-11
5.55505e-11
-1.41482e-10
8.16093e-11
-1.46739e-10
7.13001e-11
-9.25728e-11
2.52819e-11
7.25407e-11
-4.95941e-11
4.01756e-10
-1.48329e-10
-2.86645e-10
8.79365e-10
1.21495e-14
-1.41353e-12
9.91052e-14
-4.18753e-12
2.88535e-13
-6.89993e-12
5.95945e-13
-9.54518e-12
1.03479e-12
-1.2121e-11
1.6169e-12
-1.46252e-11
2.3527e-12
-1.7056e-11
3.25144e-12
-1.94116e-11
4.32142e-12
-2.16902e-11
5.57017e-12
-2.38904e-11
7.00468e-12
-2.60108e-11
8.63156e-12
-2.80499e-11
1.04573e-11
-3.00067e-11
1.24882e-11
-3.18801e-11
1.47311e-11
-3.3669e-11
1.7193e-11
-3.53729e-11
1.98816e-11
-3.69909e-11
2.28054e-11
-3.85227e-11
2.59743e-11
-3.99681e-11
2.93993e-11
-4.1327e-11
3.30934e-11
-4.25997e-11
3.70718e-11
-4.37868e-11
4.13523e-11
-4.48893e-11
4.59556e-11
-4.59081e-11
5.09056e-11
-4.68446e-11
5.62312e-11
-4.77016e-11
6.19712e-11
-4.84864e-11
6.81881e-11
-4.92197e-11
7.49956e-11
-4.99508e-11
8.16917e-11
-4.98706e-11
8.81416e-11
-4.95649e-11
9.30796e-11
-4.88899e-11
9.76257e-11
-5.11245e-11
6.91582e-11
-4.74295e-11
5.461e-11
-3.08747e-11
1.37664e-11
-9.21444e-16
6.20901e-11
-8.62781e-11
4.92993e-11
-2.22093e-11
-8.11816e-12
5.86955e-11
-3.80717e-11
-1.47359e-11
7.51671e-12
-9.93065e-11
3.2307e-10
-2.35104e-10
7.35353e-10
-3.87232e-10
1.42542e-09
-6.34515e-10
2.37483e-09
-8.67802e-10
3.57626e-09
-1.13012e-09
5.00432e-09
-1.40279e-09
6.62787e-09
-1.67315e-09
8.41913e-09
-1.93958e-09
-2.19419e-09
1.03267e-08
1.33381e-13
-1.54691e-12
5.33024e-13
-4.58717e-12
1.19341e-12
-7.56032e-12
2.10753e-12
-1.04593e-11
3.27023e-12
-1.32837e-11
4.67801e-12
-1.6033e-11
6.3287e-12
-1.87067e-11
8.22118e-12
-2.1304e-11
1.03551e-11
-2.38242e-11
1.27308e-11
-2.62661e-11
1.53488e-11
-2.86288e-11
1.82101e-11
-3.09112e-11
2.13152e-11
-3.31118e-11
2.46648e-11
-3.52297e-11
2.82588e-11
-3.7263e-11
3.20967e-11
-3.92108e-11
3.61767e-11
-4.10709e-11
4.04963e-11
-4.28424e-11
4.50509e-11
-4.45227e-11
4.98352e-11
-4.61112e-11
5.48399e-11
-4.76044e-11
6.00556e-11
-4.90026e-11
6.54663e-11
-5.02999e-11
7.10572e-11
-5.14989e-11
7.68075e-11
-5.2595e-11
8.27118e-11
-5.36058e-11
8.87375e-11
-5.45121e-11
9.45351e-11
-5.50173e-11
9.98294e-11
-5.53523e-11
1.0221e-10
-5.90053e-11
6.8306e-11
-5.54461e-11
4.67813e-11
-3.56005e-11
-7.04543e-12
2.49003e-12
7.24514e-11
-1.26946e-10
9.29054e-11
-5.13288e-11
1.0495e-10
-1.20457e-11
3.00504e-10
-2.81832e-10
8.81646e-10
-6.03351e-10
1.86371e-09
-9.2337e-10
3.1297e-09
-1.28072e-09
4.76837e-09
-1.73798e-09
6.72246e-09
-2.1892e-09
8.96848e-09
-2.63324e-09
1.13866e-08
-3.05268e-09
1.39452e-08
-3.42637e-09
1.65623e-08
-3.74718e-09
1.91684e-08
-4.00894e-09
2.17082e-08
-4.21288e-09
2.41367e-08
-4.36807e-09
-4.48048e-09
2.64229e-08
1.44226e-13
-1.69113e-12
4.99841e-13
-4.94279e-12
1.04156e-12
-8.10203e-12
1.76936e-12
-1.11871e-11
2.68365e-12
-1.41979e-11
3.78533e-12
-1.71347e-11
5.07578e-12
-1.99971e-11
6.55687e-12
-2.27851e-11
8.23078e-12
-2.54981e-11
1.01002e-11
-2.81355e-11
1.21679e-11
-3.06966e-11
1.44374e-11
-3.31807e-11
1.69121e-11
-3.55865e-11
1.95961e-11
-3.79136e-11
2.2493e-11
-4.016e-11
2.56076e-11
-4.23254e-11
2.89437e-11
-4.4407e-11
3.25064e-11
-4.64051e-11
3.6299e-11
-4.83153e-11
4.03269e-11
-5.01391e-11
4.45912e-11
-5.18688e-11
4.90979e-11
-5.35093e-11
5.38479e-11
-5.50499e-11
5.88558e-11
-5.65068e-11
6.41148e-11
-5.78539e-11
6.87954e-11
-5.82864e-11
7.27028e-11
-5.85348e-11
6.13001e-11
-5.96731e-11
2.475e-11
-5.64664e-11
-4.94665e-11
1.48764e-11
1.5401e-12
-1.06484e-10
5.53007e-11
-8.93611e-11
2.11721e-10
-1.53931e-10
5.42116e-10
-4.57341e-10
1.43256e-09
-9.41773e-10
2.94571e-09
-1.5252e-09
4.86745e-09
-2.20357e-09
7.21166e-09
-2.94756e-09
9.90047e-09
-3.61218e-09
1.28117e-08
-4.19199e-09
1.57433e-08
-4.66952e-09
1.85943e-08
-5.04017e-09
2.12736e-08
-5.31263e-09
2.37227e-08
-5.50172e-09
2.59178e-08
-5.6215e-09
2.78548e-08
-5.6842e-09
2.95465e-08
-5.70062e-09
3.10137e-08
-5.68011e-09
3.22755e-08
-5.62981e-09
-5.55491e-09
3.33499e-08
-6.75541e-14
-1.62358e-12
-1.16953e-13
-4.89339e-12
-8.9554e-14
-8.12943e-12
2.56846e-14
-1.13023e-11
2.36645e-13
-1.44089e-11
5.48726e-13
-1.74468e-11
9.65454e-13
-2.04139e-11
1.48911e-12
-2.33088e-11
2.12134e-12
-2.61303e-11
2.86366e-12
-2.88778e-11
3.71802e-12
-3.15509e-11
4.68729e-12
-3.415e-11
5.77581e-12
-3.6675e-11
6.98983e-12
-3.91276e-11
8.33814e-12
-4.15083e-11
9.83248e-12
-4.38197e-11
1.14883e-11
-4.60628e-11
1.33252e-11
-4.8242e-11
1.53678e-11
-5.03578e-11
1.7646e-11
-5.24173e-11
2.01974e-11
-5.44201e-11
2.30665e-11
-5.63784e-11
2.63061e-11
-5.82895e-11
2.99634e-11
-6.01641e-11
3.40735e-11
-6.1964e-11
2.74406e-11
-6.661e-11
-1.53561e-11
-6.30009e-11
-9.14507e-11
1.61382e-11
1.33279e-11
-1.61245e-10
3.43619e-10
-3.15415e-10
9.82662e-10
-7.45527e-10
2.34793e-09
-1.45463e-09
4.34883e-09
-2.15484e-09
6.71827e-09
-2.82678e-09
9.36719e-09
-3.59069e-09
1.21514e-08
-4.30946e-09
1.48521e-08
-4.9042e-09
1.72439e-08
-5.33933e-09
1.92588e-08
-5.62717e-09
2.08662e-08
-5.79933e-09
2.20818e-08
-5.88517e-09
2.29499e-08
-5.9082e-09
2.35245e-08
-5.88725e-09
2.38595e-08
-5.83673e-09
2.40048e-08
-5.7668e-09
2.40047e-08
-5.68413e-09
2.38968e-08
-5.59268e-09
2.3711e-08
-5.49438e-09
2.34713e-08
-5.39003e-09
-5.27895e-09
2.31953e-08
2.83647e-13
-1.90723e-12
9.42958e-13
-5.5527e-12
1.88316e-12
-9.06964e-12
3.05654e-12
-1.24757e-11
4.41631e-12
-1.57687e-11
5.91648e-12
-1.89469e-11
7.51179e-12
-2.20092e-11
9.15754e-12
-2.49545e-11
1.08096e-11
-2.77823e-11
1.2424e-11
-3.04923e-11
1.39573e-11
-3.30842e-11
1.53658e-11
-3.55585e-11
1.66063e-11
-3.79155e-11
1.76348e-11
-4.01562e-11
1.84081e-11
-4.22815e-11
1.88813e-11
-4.42929e-11
1.90107e-11
-4.61923e-11
1.87503e-11
-4.79816e-11
1.80562e-11
-4.96637e-11
1.68803e-11
-5.12414e-11
1.51745e-11
-5.27144e-11
1.28732e-11
-5.40771e-11
9.91353e-12
-5.53298e-11
6.30321e-12
-5.65538e-11
-4.18595e-11
-5.82787e-11
-6.9069e-11
-5.9941e-11
-1.98417e-11
-1.12228e-10
3.85116e-10
-3.88819e-10
1.1663e-09
-9.42428e-10
2.68265e-09
-1.83177e-09
4.63353e-09
-2.6964e-09
6.70853e-09
-3.52963e-09
8.74931e-09
-4.19561e-09
1.05634e-08
-4.64088e-09
1.18904e-08
-4.91768e-09
1.26472e-08
-5.06628e-09
1.28715e-08
-5.1285e-09
1.26672e-08
-5.13499e-09
1.21481e-08
-5.10813e-09
1.14104e-08
-5.06163e-09
1.05294e-08
-5.00411e-09
9.56314e-09
-4.94198e-09
8.5553e-09
-4.87941e-09
7.53681e-09
-4.81824e-09
6.5289e-09
-4.75889e-09
5.5455e-09
-4.70072e-09
4.59487e-09
-4.64205e-09
3.68129e-09
-4.5808e-09
2.80602e-09
-4.51475e-09
-4.44194e-09
1.969e-09
7.51982e-15
-1.91475e-12
9.51633e-14
-5.64034e-12
2.57735e-13
-9.23221e-12
4.54468e-13
-1.26725e-11
6.41356e-13
-1.59556e-11
7.71497e-13
-1.90771e-11
7.95572e-13
-2.20333e-11
6.62262e-13
-2.48212e-11
3.18727e-13
-2.74388e-11
-2.89035e-13
-2.98845e-11
-1.21569e-12
-3.21576e-11
-2.51629e-12
-3.42579e-11
-4.24565e-12
-3.61862e-11
-6.45814e-12
-3.79437e-11
-9.20695e-12
-3.95327e-11
-1.25439e-11
-4.0956e-11
-1.65184e-11
-4.22178e-11
-2.11775e-11
-4.33224e-11
-2.65647e-11
-4.42765e-11
-3.27192e-11
-4.50868e-11
-3.96724e-11
-4.57613e-11
-4.74472e-11
-4.63023e-11
-5.6069e-11
-4.67081e-11
-1.31762e-10
-4.69886e-11
-1.5876e-10
-4.74305e-11
-1.69304e-10
-4.93973e-11
-1.69107e-10
-1.12425e-10
-9.90343e-11
-4.58892e-10
1.65609e-10
-1.20707e-09
6.18212e-10
-2.28437e-09
9.71767e-10
-3.04996e-09
9.69066e-10
-3.52693e-09
5.62795e-10
-3.78934e-09
-1.69159e-10
-3.90893e-09
-1.14787e-09
-3.93897e-09
-2.29709e-09
-3.91706e-09
-3.54624e-09
-3.87935e-09
-4.84273e-09
-3.83849e-09
-6.1517e-09
-3.79916e-09
-7.45366e-09
-3.75967e-09
-8.73913e-09
-3.71864e-09
-1.00058e-08
-3.67529e-09
-1.1255e-08
-3.63024e-09
-1.24895e-08
-3.58374e-09
-1.37127e-08
-3.53571e-09
-1.49277e-08
-3.48573e-09
-1.61363e-08
-3.43341e-09
-1.7339e-08
-3.37812e-09
-1.85347e-08
-3.31904e-09
-3.25538e-09
-1.97212e-08
2.93124e-13
-2.20787e-12
1.06835e-12
-6.41557e-12
2.22697e-12
-1.03908e-11
3.67351e-12
-1.4119e-11
5.31271e-12
-1.75948e-11
7.04928e-12
-2.08136e-11
8.7877e-12
-2.37717e-11
1.0432e-11
-2.64655e-11
1.18855e-11
-2.88923e-11
1.30508e-11
-3.10498e-11
1.38292e-11
-3.2936e-11
1.41211e-11
-3.45498e-11
1.38249e-11
-3.589e-11
1.28379e-11
-3.69566e-11
1.10546e-11
-3.77494e-11
8.36782e-12
-3.82693e-11
4.66694e-12
-3.85169e-11
-1.60844e-13
-3.84946e-11
-6.23442e-12
-3.8203e-11
-1.36757e-11
-3.76455e-11
-2.26103e-11
-3.68268e-11
-3.31412e-11
-3.57713e-11
-4.53429e-11
-3.45064e-11
-1.66829e-10
-3.29804e-11
-1.89585e-10
-3.07035e-11
-2.08594e-10
-3.03889e-11
-2.71001e-10
-5.00175e-11
-4.7913e-10
-2.50763e-10
-1.38737e-09
-2.98828e-10
-2.79754e-09
-8.74207e-10
-4.41062e-09
-1.43687e-09
-6.04117e-09
-1.89638e-09
-7.54651e-09
-2.284e-09
-8.95224e-09
-2.5032e-09
-1.02674e-08
-2.62377e-09
-1.14996e-08
-2.68486e-09
-1.26858e-08
-2.69314e-09
-1.38554e-08
-2.6689e-09
-1.50316e-08
-2.62302e-09
-1.62266e-08
-2.56461e-09
-1.74438e-08
-2.50153e-09
-1.86861e-08
-2.43294e-09
-1.99543e-08
-2.36203e-09
-2.12476e-08
-2.29047e-09
-2.2564e-08
-2.21934e-09
-2.39001e-08
-2.14961e-09
-2.52515e-08
-2.08201e-09
-2.6613e-08
-2.01657e-09
-2.79793e-08
-1.95275e-09
-1.88985e-09
-2.93448e-08
6.90802e-13
-2.89867e-12
2.50542e-12
-8.23018e-12
5.23823e-12
-1.31236e-11
8.71483e-12
-1.75956e-11
1.27715e-11
-2.16514e-11
1.72529e-11
-2.5295e-11
2.201e-11
-2.85288e-11
2.68984e-11
-3.1354e-11
3.17766e-11
-3.37705e-11
3.65038e-11
-3.5777e-11
4.09384e-11
-3.73705e-11
4.49359e-11
-3.85473e-11
4.83474e-11
-3.93016e-11
5.10176e-11
-3.96268e-11
5.27822e-11
-3.9514e-11
5.34666e-11
-3.89536e-11
5.28827e-11
-3.7933e-11
5.08274e-11
-3.64394e-11
4.70798e-11
-3.44553e-11
4.13993e-11
-3.19651e-11
3.35184e-11
-2.89458e-11
2.31216e-11
-2.53746e-11
9.82301e-12
-2.12077e-11
-6.74156e-12
-1.64158e-11
-3.41434e-11
-1.10463e-11
-1.24721e-10
-9.40772e-13
-1.74818e-10
-3.63622e-13
-4.06861e-10
-1.87197e-11
-7.03955e-10
-1.73444e-12
-1.26091e-09
-3.17248e-10
-2.48404e-09
-2.1375e-10
-3.80668e-09
-5.73741e-10
-5.28801e-09
-8.02668e-10
-6.86768e-09
-9.23525e-10
-8.31619e-09
-1.17526e-09
-9.68208e-09
-1.31897e-09
-1.08931e-08
-1.4821e-09
-1.20234e-08
-1.53866e-09
-1.31086e-08
-1.53777e-09
-1.41698e-08
-1.50338e-09
-1.52203e-08
-1.45104e-09
-1.62559e-08
-1.39739e-09
-1.72752e-08
-1.34266e-09
-1.8281e-08
-1.28475e-09
-1.92772e-08
-1.22314e-09
-2.02689e-08
-1.15789e-09
-2.12601e-08
-1.0908e-09
-2.22538e-08
-1.02287e-09
-2.32516e-08
-9.54934e-10
-8.87627e-10
-2.42538e-08
1.82412e-13
-3.08108e-12
6.60066e-13
-8.70783e-12
1.37914e-12
-1.38427e-11
2.29514e-12
-1.85116e-11
3.3665e-12
-2.27228e-11
4.55434e-12
-2.64828e-11
5.8223e-12
-2.97967e-11
7.13625e-12
-3.2668e-11
8.46417e-12
-3.50984e-11
9.77582e-12
-3.70886e-11
1.10427e-11
-3.86374e-11
1.22378e-11
-3.97424e-11
1.33355e-11
-4.03993e-11
1.43114e-11
-4.06026e-11
1.51424e-11
-4.0345e-11
1.58064e-11
-3.96177e-11
1.62831e-11
-3.84097e-11
1.65528e-11
-3.67091e-11
1.65982e-11
-3.45007e-11
1.64023e-11
-3.17691e-11
1.59513e-11
-2.84949e-11
1.52356e-11
-2.46589e-11
1.42628e-11
-2.0235e-11
1.30423e-11
-1.51953e-11
1.14953e-11
-9.49934e-12
1.4904e-11
-4.34944e-12
1.35425e-11
9.96619e-13
-6.90764e-11
5.83892e-12
-9.57238e-11
2.46306e-11
-4.05859e-10
-7.6207e-12
-6.42282e-10
2.26737e-11
-1.18502e-09
-3.10048e-11
-1.98612e-09
-1.56128e-12
-2.68732e-09
-2.22328e-10
-3.72914e-09
-1.33439e-10
-4.70956e-09
-3.38557e-10
-5.7219e-09
-4.69765e-10
-6.73439e-09
-5.26174e-10
-7.59774e-09
-6.74424e-10
-8.44513e-09
-6.5599e-10
-9.32824e-09
-5.67926e-10
-1.02512e-08
-4.74389e-10
-1.11641e-08
-4.29764e-10
-1.20329e-08
-4.15995e-10
-1.2839e-08
-4.17025e-10
-1.35804e-08
-4.16515e-10
-1.42644e-08
-4.06745e-10
-1.49011e-08
-3.862e-10
-1.55004e-08
-3.55683e-10
-3.17754e-10
-1.60702e-08
-5.03193e-13
-2.57789e-12
-1.8114e-12
-7.39962e-12
-3.7889e-12
-1.18652e-11
-6.33517e-12
-1.59653e-11
-9.35583e-12
-1.97021e-11
-1.27611e-11
-2.30775e-11
-1.64647e-11
-2.60932e-11
-2.0382e-11
-2.87506e-11
-2.44296e-11
-3.10508e-11
-2.85233e-11
-3.29949e-11
-3.25772e-11
-3.45836e-11
-3.65023e-11
-3.58173e-11
-4.02051e-11
-3.66964e-11
-4.35866e-11
-3.72212e-11
-4.65401e-11
-3.73915e-11
-4.89504e-11
-3.72073e-11
-5.06915e-11
-3.66686e-11
-5.16253e-11
-3.57752e-11
-5.15989e-11
-3.45271e-11
-5.04435e-11
-3.29245e-11
-4.79708e-11
-3.09677e-11
-4.39722e-11
-2.86575e-11
-3.82124e-11
-2.59947e-11
-3.04252e-11
-2.29825e-11
-2.02998e-11
-1.96247e-11
-8.72122e-12
-1.5928e-11
4.15848e-12
-1.18831e-11
1.71093e-11
-7.3546e-12
2.40406e-11
-4.27975e-12
1.69552e-11
-5.45352e-13
1.59484e-11
1.15436e-12
-1.97749e-11
4.54322e-12
-5.35785e-11
3.22409e-11
-2.71349e-10
-4.55777e-12
-4.29465e-10
2.46772e-11
-7.45614e-10
-2.24074e-11
-1.23742e-09
2.20438e-11
-1.55809e-09
-2.05506e-10
-2.12905e-09
-1.03469e-10
-2.55529e-09
-2.29751e-10
-3.01676e-09
-1.06452e-10
-3.40691e-09
-8.42384e-11
-3.80996e-09
-2.67096e-11
-4.31204e-09
8.608e-11
-4.96131e-09
2.32244e-10
-5.71248e-09
3.34661e-10
-6.51454e-09
3.95315e-10
-7.3269e-09
4.26161e-10
-8.11998e-09
4.37394e-10
4.36075e-10
-8.87381e-09
-4.71867e-13
-2.10602e-12
-1.82905e-12
-6.04245e-12
-3.97913e-12
-9.71514e-12
-6.81575e-12
-1.31287e-11
-1.02368e-11
-1.62811e-11
-1.41435e-11
-1.91708e-11
-1.84401e-11
-2.17967e-11
-2.30325e-11
-2.41581e-11
-2.78286e-11
-2.62548e-11
-3.27369e-11
-2.80866e-11
-3.76664e-11
-2.96541e-11
-4.25259e-11
-3.09578e-11
-4.72234e-11
-3.19989e-11
-5.16657e-11
-3.27789e-11
-5.57577e-11
-3.32995e-11
-5.94021e-11
-3.3563e-11
-6.24987e-11
-3.3572e-11
-6.49441e-11
-3.33298e-11
-6.66314e-11
-3.28399e-11
-6.74493e-11
-3.21066e-11
-6.72821e-11
-3.11348e-11
-6.60095e-11
-2.99301e-11
-6.35054e-11
-2.84988e-11
-5.96397e-11
-2.68482e-11
-5.4278e-11
-2.49864e-11
-4.7284e-11
-2.2922e-11
-3.85015e-11
-2.06655e-11
-2.76327e-11
-1.82234e-11
-1.63122e-11
-1.56003e-11
-4.05782e-12
-1.27997e-11
6.60585e-12
-9.67329e-12
1.50295e-11
-6.08028e-12
2.26824e-11
-3.51791e-12
1.8083e-11
-3.0593e-13
4.09707e-11
1.64666e-12
1.46659e-11
3.83953e-12
1.90985e-11
1.76112e-11
-1.84967e-10
-1.43993e-12
-3.05326e-10
1.689e-11
-4.98836e-10
-3.62411e-11
-6.24527e-10
1.92392e-11
-5.09259e-10
-1.99506e-10
-4.88431e-10
-4.75371e-11
-4.09625e-10
7.27404e-12
-3.46882e-10
1.695e-10
-3.86333e-10
3.74112e-10
-5.46592e-10
5.55573e-10
-8.2887e-10
7.08439e-10
-1.22873e-09
8.37253e-10
9.21442e-10
-1.7141e-09
-3.58008e-13
-1.74802e-12
-1.31201e-12
-5.08844e-12
-2.78227e-12
-8.24488e-12
-4.70847e-12
-1.12025e-11
-7.02971e-12
-1.39598e-11
-9.68474e-12
-1.65157e-11
-1.26121e-11
-1.88693e-11
-1.57501e-11
-2.10202e-11
-1.90369e-11
-2.29679e-11
-2.24107e-11
-2.47128e-11
-2.58098e-11
-2.6255e-11
-2.91723e-11
-2.75952e-11
-3.2437e-11
-2.87343e-11
-3.55426e-11
-2.96732e-11
-3.84286e-11
-3.04135e-11
-4.1035e-11
-3.09566e-11
-4.33028e-11
-3.13042e-11
-4.51741e-11
-3.14585e-11
-4.65925e-11
-3.14215e-11
-4.75035e-11
-3.11957e-11
-4.78547e-11
-3.07836e-11
-4.75968e-11
-3.0188e-11
-4.66838e-11
-2.94118e-11
-4.50739e-11
-2.8458e-11
-4.27302e-11
-2.73302e-11
-3.9621e-11
-2.60313e-11
-3.57212e-11
-2.45653e-11
-3.10094e-11
-2.29352e-11
-2.54653e-11
-2.11444e-11
-1.90698e-11
-1.91952e-11
-1.16561e-11
-1.7087e-11
-2.91874e-12
-1.48176e-11
5.95544e-12
-1.23921e-11
1.54394e-11
-9.78992e-12
2.40557e-11
-7.03648e-12
3.03913e-11
-3.89113e-12
3.6643e-11
-1.42044e-12
3.35015e-11
1.58209e-12
4.64418e-11
3.91276e-12
4.8219e-13
9.71808e-12
1.0487e-11
9.2344e-12
-1.8452e-10
-4.49981e-12
-2.54121e-10
2.20642e-11
-1.38871e-10
-1.07976e-10
2.95428e-11
1.08612e-12
3.6021e-10
4.34452e-11
8.04748e-10
1.11035e-10
1.29343e-09
2.19754e-10
1.74996e-09
3.80726e-10
5.30358e-10
2.14104e-09
-1.935e-13
-1.55452e-12
-8.17533e-13
-4.46441e-12
-1.85582e-12
-7.20659e-12
-3.26396e-12
-9.79437e-12
-4.99898e-12
-1.22248e-11
-7.01873e-12
-1.4496e-11
-9.2815e-12
-1.66066e-11
-1.17458e-11
-1.85559e-11
-1.43701e-11
-2.03437e-11
-1.71127e-11
-2.19702e-11
-1.99318e-11
-2.34359e-11
-2.27853e-11
-2.47417e-11
-2.56307e-11
-2.58888e-11
-2.84255e-11
-2.68785e-11
-3.11268e-11
-2.77122e-11
-3.36917e-11
-2.83916e-11
-3.60774e-11
-2.89185e-11
-3.82411e-11
-2.92948e-11
-4.01403e-11
-2.95223e-11
-4.17329e-11
-2.9603e-11
-4.29776e-11
-2.95389e-11
-4.38337e-11
-2.93319e-11
-4.42615e-11
-2.8984e-11
-4.42226e-11
-2.8497e-11
-4.36798e-11
-2.78729e-11
-4.25977e-11
-2.71134e-11
-4.09428e-11
-2.62203e-11
-3.8683e-11
-2.5195e-11
-3.57883e-11
-2.40391e-11
-3.22295e-11
-2.2754e-11
-2.79755e-11
-2.1341e-11
-2.29919e-11
-1.98011e-11
-1.72486e-11
-1.81354e-11
-1.06934e-11
-1.63451e-11
-3.30161e-12
-1.44283e-11
5.19014e-12
-1.23829e-11
1.39777e-11
-1.0208e-11
2.34368e-11
-7.87855e-12
3.26068e-11
-5.4215e-12
3.88687e-11
-3.37497e-12
4.94174e-11
-1.38236e-12
4.48738e-11
2.91729e-14
6.18738e-11
5.06408e-12
-4.77002e-11
1.59827e-12
-3.80907e-11
-8.52345e-12
6.29317e-12
-9.38659e-13
1.62005e-10
-4.46769e-11
3.638e-10
1.79587e-11
7.08968e-10
3.55574e-11
8.95476e-11
1.14978e-09
-1.23314e-13
-1.4312e-12
-3.85946e-13
-4.20178e-12
-7.76635e-13
-6.8159e-12
-1.33007e-12
-9.24093e-12
-2.07115e-12
-1.14837e-11
-3.01606e-12
-1.35511e-11
-4.17325e-12
-1.54494e-11
-5.54409e-12
-1.7185e-11
-7.12363e-12
-1.87641e-11
-8.90111e-12
-2.01927e-11
-1.08607e-11
-2.14763e-11
-1.29818e-11
-2.26206e-11
-1.52399e-11
-2.36307e-11
-1.76069e-11
-2.45115e-11
-2.00514e-11
-2.52676e-11
-2.25395e-11
-2.59036e-11
-2.50345e-11
-2.64235e-11
-2.74982e-11
-2.68311e-11
-2.98903e-11
-2.71302e-11
-3.21693e-11
-2.7324e-11
-3.42924e-11
-2.74158e-11
-3.62159e-11
-2.74084e-11
-3.78953e-11
-2.73045e-11
-3.92857e-11
-2.71067e-11
-4.03414e-11
-2.68172e-11
-4.10168e-11
-2.6438e-11
-4.12658e-11
-2.59712e-11
-4.10422e-11
-2.54185e-11
-4.02999e-11
-2.47814e-11
-3.89925e-11
-2.40615e-11
-3.70736e-11
-2.32599e-11
-3.44969e-11
-2.23779e-11
-3.12158e-11
-2.14165e-11
-2.71839e-11
-2.0377e-11
-2.23522e-11
-1.926e-11
-1.6668e-11
-1.8067e-11
-1.00781e-11
-1.67979e-11
-2.50131e-12
-1.54554e-11
6.11441e-12
-1.40372e-11
1.52839e-11
-1.25445e-11
2.48861e-11
-1.09845e-11
3.41091e-11
-9.19387e-12
4.44844e-11
-7.94799e-12
5.25595e-11
-6.51884e-12
4.91182e-11
-5.09537e-12
5.16818e-11
-3.50239e-12
1.30505e-11
-6.04553e-12
3.70671e-11
-6.05794e-12
8.21014e-11
-9.47694e-12
-2.65204e-11
1.98169e-10
5.82776e-13
-2.01398e-12
1.75348e-12
-5.37248e-12
3.18328e-12
-8.24571e-12
4.68942e-12
-1.07471e-11
6.13183e-12
-1.29262e-11
7.40531e-12
-1.48245e-11
8.43377e-12
-1.64778e-11
9.16542e-12
-1.79167e-11
9.5686e-12
-1.91673e-11
9.62822e-12
-2.02523e-11
9.34287e-12
-2.1191e-11
8.72231e-12
-2.20001e-11
7.78545e-12
-2.26938e-11
6.55859e-12
-2.32846e-11
5.07405e-12
-2.37831e-11
3.36888e-12
-2.41984e-11
1.4839e-12
-2.45385e-11
-5.37138e-13
-2.48101e-11
-2.64832e-12
-2.5019e-11
-4.80212e-12
-2.51702e-11
-6.94997e-12
-2.52679e-11
-9.04269e-12
-2.53157e-11
-1.10309e-11
-2.53164e-11
-1.28652e-11
-2.52723e-11
-1.4497e-11
-2.51854e-11
-1.58781e-11
-2.50569e-11
-1.69617e-11
-2.48876e-11
-1.77023e-11
-2.46779e-11
-1.80562e-11
-2.44275e-11
-1.79819e-11
-2.41358e-11
-1.74405e-11
-2.38013e-11
-1.63962e-11
-2.34222e-11
-1.48168e-11
-2.29958e-11
-1.26751e-11
-2.25187e-11
-9.94858e-12
-2.19865e-11
-6.62182e-12
-2.13938e-11
-2.68579e-12
-2.0734e-11
1.85767e-12
-1.99988e-11
6.99919e-12
-1.91788e-11
1.2716e-11
-1.82613e-11
1.89641e-11
-1.72326e-11
2.58443e-11
-1.60741e-11
3.26618e-11
-1.47655e-11
3.94222e-11
-1.32795e-11
4.60394e-11
-1.17115e-11
5.19914e-11
-1.02497e-11
5.46106e-11
-8.66805e-12
5.43118e-11
-5.75908e-12
4.94527e-11
-4.61788e-12
-5.66685e-12
2.85991e-11
1.7386e-11
3.14135e-11
4.25678e-11
5.12208e-11
5.76946e-11
6.22701e-11
6.51922e-11
6.66755e-11
6.69082e-11
6.60559e-11
6.42649e-11
6.16649e-11
5.83711e-11
5.44864e-11
5.01033e-11
4.53049e-11
4.01664e-11
3.47563e-11
2.91373e-11
2.3367e-11
1.74991e-11
1.15834e-11
5.66706e-12
-2.05276e-13
-5.99069e-12
-1.16476e-11
-1.71352e-11
-2.24131e-11
-2.74407e-11
-3.21764e-11
-3.65777e-11
-4.05999e-11
-4.41958e-11
-4.73145e-11
-4.9901e-11
-5.18948e-11
-5.32288e-11
-5.38276e-11
-5.36064e-11
-5.24676e-11
-5.03003e-11
-4.69744e-11
-4.23392e-11
-3.62198e-11
-2.86628e-11
-1.98539e-11
-9.04945e-12
3.56579e-12
1.74115e-11
2.4359e-11
-4.05047e-11
-2.66003e-11
-5.74741e-11
-1.71219e-12
-1.01272e-10
1.17472e-11
-9.79759e-11
-4.57249e-11
3.75208e-12
-1.25762e-10
1.70923e-10
-2.67054e-10
4.08351e-10
-4.80423e-10
6.79372e-10
-7.01741e-10
9.31151e-10
-9.07517e-10
1.13036e-09
-1.09005e-09
1.27475e-09
-1.24841e-09
1.38011e-09
-1.38348e-09
1.46644e-09
-1.49568e-09
1.54786e-09
-1.58622e-09
1.63681e-09
-1.65516e-09
1.74545e-09
-1.70186e-09
1.88443e-09
-1.7259e-09
2.06152e-09
-1.72681e-09
2.2621e-09
-1.70217e-09
2.49028e-09
-1.6577e-09
2.76277e-09
-1.60541e-09
3.09507e-09
-1.54259e-09
3.47427e-09
-1.43094e-09
3.93245e-09
-1.28562e-09
4.48768e-09
-1.07648e-09
5.14043e-09
-7.99881e-10
5.88069e-09
-4.68392e-10
6.67466e-09
-9.18539e-11
7.47273e-09
3.20866e-10
8.21747e-09
7.55416e-10
8.86276e-09
1.18435e-09
9.37525e-09
1.58607e-09
9.73567e-09
1.94468e-09
9.93923e-09
2.24966e-09
9.99332e-09
2.49669e-09
9.91436e-09
2.68647e-09
9.7241e-09
2.82369e-09
9.44583e-09
2.91565e-09
9.10139e-09
2.97071e-09
8.70899e-09
2.99736e-09
8.28211e-09
3.00321e-09
7.82951e-09
2.99444e-09
7.35602e-09
2.97554e-09
6.86384e-09
2.94935e-09
6.35397e-09
2.91736e-09
5.82733e-09
2.88019e-09
5.2855e-09
2.83805e-09
4.73097e-09
2.79124e-09
4.16689e-09
2.74072e-09
2.68904e-09
3.59585e-09
-1.78172e-10
3.86624e-11
-2.54881e-10
7.49968e-11
-3.11346e-10
6.82122e-11
-3.37721e-10
-1.93499e-11
-3.02146e-10
-1.61336e-10
-2.28497e-10
-3.40703e-10
-1.74068e-10
-5.34851e-10
-1.46682e-10
-7.29128e-10
-1.37772e-10
-9.16427e-10
-1.3538e-10
-1.09244e-09
-1.30006e-10
-1.25379e-09
-1.15623e-10
-1.39787e-09
-8.85935e-11
-1.52271e-09
-4.76832e-11
-1.62713e-09
8.1662e-12
-1.71101e-09
8.04832e-11
-1.77418e-09
1.70971e-10
-1.81639e-09
2.81984e-10
-1.83782e-09
4.18725e-10
-1.83891e-09
5.82458e-10
-1.82143e-09
7.66705e-10
-1.78966e-09
9.60453e-10
-1.73634e-09
1.18839e-09
-1.65887e-09
1.45463e-09
-1.55186e-09
1.79165e-09
-1.4135e-09
2.23162e-09
-1.23985e-09
2.79344e-09
-1.03021e-09
3.49404e-09
-7.92463e-10
4.33593e-09
-5.21019e-10
5.30431e-09
-2.1296e-10
6.35051e-09
1.38146e-10
7.40196e-09
5.34621e-10
8.38357e-09
9.63065e-10
9.24368e-09
1.38955e-09
9.94937e-09
1.79099e-09
1.04842e-08
2.15164e-09
1.08451e-08
2.46278e-09
1.10398e-08
2.72098e-09
1.10825e-08
2.92802e-09
1.09925e-08
3.08732e-09
1.07922e-08
3.20357e-09
1.05043e-08
3.28228e-09
1.01498e-08
3.33011e-09
9.7456e-09
3.35351e-09
9.30453e-09
3.35843e-09
8.83486e-09
3.34985e-09
8.34134e-09
3.33158e-09
7.82629e-09
3.30629e-09
7.29093e-09
3.27609e-09
3.24436e-09
6.73561e-09
-8.40005e-10
1.72955e-10
-8.92663e-10
1.27654e-10
-8.35227e-10
1.07761e-11
-7.0097e-10
-1.53607e-10
-5.09416e-10
-3.5289e-10
-2.84039e-10
-5.66081e-10
-3.78566e-11
-7.81033e-10
2.22031e-10
-9.89016e-10
4.89329e-10
-1.18372e-09
7.57776e-10
-1.36089e-09
1.02175e-09
-1.51777e-09
1.27644e-09
-1.65255e-09
1.51804e-09
-1.76431e-09
1.74392e-09
-1.85301e-09
1.95162e-09
-1.91871e-09
2.13988e-09
-1.96244e-09
2.30802e-09
-1.98452e-09
2.45595e-09
-1.98575e-09
2.58414e-09
-1.96711e-09
2.69276e-09
-1.93005e-09
2.77901e-09
-1.87591e-09
2.84858e-09
-1.80591e-09
2.90979e-09
-1.72009e-09
2.9794e-09
-1.62147e-09
3.07676e-09
-1.51086e-09
3.22097e-09
-1.38406e-09
3.43018e-09
-1.23942e-09
3.72128e-09
-1.08356e-09
4.12774e-09
-9.27483e-10
4.6652e-09
-7.5042e-10
5.35396e-09
-5.5061e-10
6.18819e-09
-2.99609e-10
7.14166e-09
9.59086e-12
8.18999e-09
3.41223e-10
9.27126e-09
7.0973e-10
1.03249e-08
1.09801e-09
1.12934e-08
1.49422e-09
1.21276e-08
1.88683e-09
1.27996e-08
2.25598e-09
1.33011e-08
2.58588e-09
1.3633e-08
2.87164e-09
1.37956e-08
3.11965e-09
1.37939e-08
3.33185e-09
1.36427e-08
3.50472e-09
1.33638e-08
3.63731e-09
1.29809e-08
3.73276e-09
1.25167e-08
3.79575e-09
1.19913e-08
3.83172e-09
1.14208e-08
3.84655e-09
3.84751e-09
1.08177e-08
1.51781e-09
-4.65492e-10
2.31996e-09
-6.74496e-10
3.23082e-09
-9.00077e-10
4.20704e-09
-1.12983e-09
5.20695e-09
-1.3528e-09
6.20238e-09
-1.56151e-09
7.17232e-09
-1.75097e-09
8.10117e-09
-1.91787e-09
8.97757e-09
-2.06012e-09
9.79329e-09
-2.17661e-09
1.05426e-08
-2.26708e-09
1.1222e-08
-2.33193e-09
1.18294e-08
-2.37174e-09
1.23636e-08
-2.38718e-09
1.28245e-08
-2.37962e-09
1.32132e-08
-2.35116e-09
1.35323e-08
-2.30364e-09
1.37845e-08
-2.23788e-09
1.39732e-08
-2.15583e-09
1.41008e-08
-2.05766e-09
1.41693e-08
-1.94443e-09
1.41807e-08
-1.81733e-09
1.414e-08
-1.67934e-09
1.40519e-08
-1.53341e-09
1.39217e-08
-1.38063e-09
1.37576e-08
-1.21999e-09
1.35699e-08
-1.05165e-09
1.33647e-08
-8.78415e-10
1.31401e-08
-7.02838e-10
1.29192e-08
-5.29519e-10
1.27259e-08
-3.57307e-10
1.26054e-08
-1.79132e-10
1.26023e-08
1.26594e-11
1.2735e-08
2.0855e-10
1.30155e-08
4.29238e-10
1.34366e-08
6.76896e-10
1.39719e-08
9.58919e-10
1.45848e-08
1.27389e-09
1.52328e-08
1.60804e-09
1.58774e-08
1.94124e-09