/*--------------------------------*- C++ -*----------------------------------*\
| =========                 |                                                 |
| \\      /  F ield         | OpenFOAM: The Open Source CFD Toolbox           |
|  \\    /   O peration     | Version:  2.4.0                                 |
|   \\  /    A nd           | Web:      www.OpenFOAM.org                      |
|    \\/     M anipulation  |                                                 |
\*---------------------------------------------------------------------------*/
FoamFile
{
    version     2.0;
    format      ascii;
    class       volVectorField;
    location    "4";
    object      U;
}
// * * * * * * * * * * * * * * * * * * * * * * * * * * * * * * * * * * * * * //

dimensions      [0 1 -1 0 0 0 0];

internalField   nonuniform List<vector> 
8000
(
(4.14855e-08 -9.51688e-05 0)
(1.1945e-06 -0.00028127 0)
(3.69363e-06 -0.00046299 0)
(7.50351e-06 -0.000640133 0)
(1.25118e-05 -0.000812523 0)
(1.8616e-05 -0.000980009 0)
(2.57307e-05 -0.00114246 0)
(3.37774e-05 -0.00129976 0)
(4.268e-05 -0.0014518 0)
(5.23645e-05 -0.0015985 0)
(6.27582e-05 -0.00173976 0)
(7.37897e-05 -0.00187552 0)
(8.53882e-05 -0.00200571 0)
(9.7483e-05 -0.0021303 0)
(0.000110003 -0.00224923 0)
(0.000122876 -0.00236249 0)
(0.000136029 -0.00247005 0)
(0.000149388 -0.00257192 0)
(0.000162873 -0.0026681 0)
(0.000176406 -0.00275861 0)
(0.000189904 -0.00284347 0)
(0.000203281 -0.00292272 0)
(0.000216445 -0.00299642 0)
(0.000229303 -0.00306462 0)
(0.000241755 -0.00312739 0)
(0.000253699 -0.00318482 0)
(0.000265023 -0.00323701 0)
(0.000275615 -0.00328405 0)
(0.00028535 -0.00332607 0)
(0.000294106 -0.0033632 0)
(0.000301741 -0.00339558 0)
(0.000308123 -0.00342338 0)
(0.000313093 -0.00344676 0)
(0.000316507 -0.00346594 0)
(0.000318186 -0.00348109 0)
(0.000317975 -0.00349247 0)
(0.000315665 -0.00350029 0)
(0.000311088 -0.00350486 0)
(0.000304036 -0.00350638 0)
(0.000294413 -0.0035053 0)
(0.000282027 -0.00350181 0)
(0.000266487 -0.00349651 0)
(0.000246635 -0.0034895 0)
(0.000220833 -0.00348332 0)
(0.000189888 -0.00349106 0)
(0.000146228 -0.0034141 0)
(6.36803e-05 -0.00326766 0)
(-6.04795e-05 -0.00316452 0)
(-0.000197716 -0.00308025 0)
(-0.000297281 -0.00301318 0)
(3.32727e-07 -0.00010744 0)
(2.59207e-06 -0.000316437 0)
(6.89855e-06 -0.000519485 0)
(1.30807e-05 -0.000716484 0)
(2.09687e-05 -0.000907341 0)
(3.04332e-05 -0.00109197 0)
(4.13681e-05 -0.00127028 0)
(5.36713e-05 -0.0014422 0)
(6.72423e-05 -0.00160766 0)
(8.19813e-05 -0.0017666 0)
(9.77904e-05 -0.00191894 0)
(0.000114572 -0.00206462 0)
(0.000132228 -0.00220359 0)
(0.00015066 -0.00233579 0)
(0.000169769 -0.00246118 0)
(0.000189453 -0.0025797 0)
(0.000209608 -0.00269132 0)
(0.000230126 -0.002796 0)
(0.000250898 -0.00289371 0)
(0.000271806 -0.00298441 0)
(0.000292732 -0.00306809 0)
(0.00031355 -0.00314472 0)
(0.000334127 -0.00321428 0)
(0.000354325 -0.00327678 0)
(0.000373998 -0.00333219 0)
(0.00039299 -0.00338052 0)
(0.000411139 -0.00342177 0)
(0.000428269 -0.00345595 0)
(0.000444198 -0.00348306 0)
(0.000458727 -0.00350313 0)
(0.000471651 -0.00351616 0)
(0.000482742 -0.00352221 0)
(0.000491768 -0.00352128 0)
(0.000498462 -0.00351344 0)
(0.000502568 -0.00349867 0)
(0.000503825 -0.00347708 0)
(0.000502044 -0.00344861 0)
(0.00049693 -0.00341351 0)
(0.000488045 -0.00337163 0)
(0.000474598 -0.0033235 0)
(0.000456247 -0.00327192 0)
(0.00043299 -0.00322327 0)
(0.000387722 -0.00312613 0)
(0.000284064 -0.00296462 0)
(0.000124562 -0.00280858 0)
(-3.54409e-05 -0.00263568 0)
(-0.000128114 -0.00245472 0)
(-0.000175375 -0.00157169 0)
(-0.000499916 -0.000285288 0)
(-0.000723595 -0.00269208 0)
(1.03085e-07 -0.000121883 0)
(1.85557e-06 -0.000358006 0)
(5.61029e-06 -0.000586518 0)
(1.13384e-05 -0.000807421 0)
(1.89195e-05 -0.00102071 0)
(2.82482e-05 -0.00122634 0)
(3.92387e-05 -0.0014243 0)
(5.18102e-05 -0.00161453 0)
(6.58823e-05 -0.00179699 0)
(8.13737e-05 -0.00197162 0)
(9.82033e-05 -0.00213837 0)
(0.000116289 -0.00229718 0)
(0.000135546 -0.00244797 0)
(0.000155891 -0.00259066 0)
(0.000177236 -0.00272519 0)
(0.000199489 -0.00285146 0)
(0.000222557 -0.0029694 0)
(0.000246341 -0.00307891 0)
(0.00027074 -0.0031799 0)
(0.000295644 -0.00327227 0)
(0.00032094 -0.00335592 0)
(0.000346505 -0.00343073 0)
(0.000372214 -0.00349661 0)
(0.000397924 -0.00355342 0)
(0.000423493 -0.00360104 0)
(0.000448758 -0.00363933 0)
(0.000473556 -0.00366816 0)
(0.000497695 -0.00368737 0)
(0.000520987 -0.0036968 0)
(0.000543203 -0.00369627 0)
(0.00056412 -0.00368561 0)
(0.000583477 -0.00366458 0)
(0.000601096 -0.00363299 0)
(0.000616845 -0.00359058 0)
(0.00063056 -0.00353727 0)
(0.000641838 -0.00347288 0)
(0.000649971 -0.0033979 0)
(0.000654322 -0.00331718 0)
(0.000652627 -0.0032432 0)
(0.000612913 -0.00308027 0)
(0.000500072 -0.00293794 0)
(0.000330301 -0.00269534 0)
(0.000171791 -0.00258903 0)
(1.81173e-05 -0.00220934 0)
(-0.00030916 -0.000845193 0)
(-0.000750721 0.000699603 0)
(-0.00125595 -0.00417923 0)
(-0.00293411 0.00542175 0)
(-0.0029554 0.00451153 0)
(-0.00471296 0.00147927 0)
(2.66872e-07 -0.000134397 0)
(2.11417e-06 -0.000394872 0)
(5.72559e-06 -0.000647066 0)
(1.10282e-05 -0.000890979 0)
(1.79534e-05 -0.00112659 0)
(2.64606e-05 -0.00135388 0)
(3.65233e-05 -0.00157279 0)
(4.81139e-05 -0.00178327 0)
(6.12025e-05 -0.00198527 0)
(7.57572e-05 -0.00217871 0)
(9.17445e-05 -0.00236353 0)
(0.00010913 -0.00253962 0)
(0.000127877 -0.00270689 0)
(0.000147947 -0.00286525 0)
(0.000169303 -0.00301456 0)
(0.000191903 -0.0031547 0)
(0.000215706 -0.00328555 0)
(0.000240669 -0.00340695 0)
(0.000266748 -0.00351875 0)
(0.000293899 -0.00362076 0)
(0.000322076 -0.00371281 0)
(0.000351233 -0.00379469 0)
(0.000381325 -0.00386618 0)
(0.000412304 -0.00392704 0)
(0.000444125 -0.00397702 0)
(0.00047674 -0.00401581 0)
(0.000510098 -0.00404312 0)
(0.000544139 -0.00405857 0)
(0.000578821 -0.00406181 0)
(0.000614166 -0.00405237 0)
(0.000650355 -0.00402989 0)
(0.000687379 -0.00399386 0)
(0.000724881 -0.00394439 0)
(0.00076159 -0.00388251 0)
(0.000794966 -0.00381758 0)
(0.000817252 -0.00377147 0)
(0.000772864 -0.00359465 0)
(0.000650759 -0.00339428 0)
(0.000496707 -0.00315814 0)
(0.000401959 -0.00305766 0)
(0.000445192 -0.00276236 0)
(0.000438987 0.000184547 0)
(8.50327e-05 -0.000142546 0)
(-0.000831899 0.00228442 0)
(-0.00140143 0.00710297 0)
(-0.000188855 0.0141564 0)
(-0.0014857 0.015446 0)
(-0.000460476 0.0247828 0)
(0.00164786 0.0311046 0)
(0.00470652 0.0311432 0)
(-5.20671e-08 -0.000143205 0)
(2.75023e-07 -0.00042131 0)
(1.3348e-06 -0.000691157 0)
(3.28736e-06 -0.000952735 0)
(6.24698e-06 -0.00120601 0)
(1.03089e-05 -0.00145093 0)
(1.55613e-05 -0.00168744 0)
(2.20818e-05 -0.00191547 0)
(2.9941e-05 -0.00213493 0)
(3.92012e-05 -0.00234573 0)
(4.99208e-05 -0.00254778 0)
(6.21531e-05 -0.00274098 0)
(7.59508e-05 -0.00292522 0)
(9.1364e-05 -0.0031004 0)
(0.000108446 -0.00326639 0)
(0.00012725 -0.00342309 0)
(0.000147836 -0.00357037 0)
(0.000170267 -0.00370814 0)
(0.000194618 -0.00383626 0)
(0.000220968 -0.00395462 0)
(0.000249417 -0.00406309 0)
(0.000280075 -0.00416157 0)
(0.000313074 -0.00424991 0)
(0.000348561 -0.00432801 0)
(0.000386712 -0.00439572 0)
(0.000427737 -0.00445295 0)
(0.000471946 -0.00449949 0)
(0.000519805 -0.00453514 0)
(0.000571556 -0.0045594 0)
(0.000627165 -0.00457227 0)
(0.000685652 -0.00457603 0)
(0.000741262 -0.00458175 0)
(0.000770662 -0.0046203 0)
(0.00067715 -0.00443261 0)
(0.000485381 -0.00418136 0)
(0.000312374 -0.00409007 0)
(0.000242533 -0.00403839 0)
(0.00037675 -0.00338945 0)
(0.000303426 5.45677e-05 0)
(2.44599e-05 -0.0035103 0)
(-0.00079793 -0.00495239 0)
(0.000653487 0.0129706 0)
(0.0042864 0.00784516 0)
(0.00834532 0.0112858 0)
(0.014473 0.0108703 0)
(0.0231704 0.00324279 0)
(0.0338545 -0.0123409 0)
(0.0462047 -0.0335802 0)
(0.0600267 -0.0589487 0)
(0.0748895 -0.0864362 0)
(1.89533e-07 -0.000140661 0)
(2.21803e-06 -0.000417851 0)
(6.39913e-06 -0.000690402 0)
(1.26948e-05 -0.000957813 0)
(2.10146e-05 -0.00121965 0)
(3.13054e-05 -0.00147555 0)
(4.35425e-05 -0.00172518 0)
(5.77172e-05 -0.00196827 0)
(7.38217e-05 -0.00220456 0)
(9.18607e-05 -0.00243383 0)
(0.000111832 -0.00265589 0)
(0.00013375 -0.00287059 0)
(0.000157611 -0.00307778 0)
(0.000183434 -0.00327737 0)
(0.000211204 -0.00346929 0)
(0.00024094 -0.00365348 0)
(0.000272608 -0.00382996 0)
(0.000306223 -0.00399872 0)
(0.000341718 -0.00415987 0)
(0.000379102 -0.0043135 0)
(0.000418259 -0.0044598 0)
(0.000459198 -0.004599 0)
(0.000501712 -0.00473142 0)
(0.00054574 -0.00485745 0)
(0.000590908 -0.00497754 0)
(0.000637327 -0.00509209 0)
(0.000686045 -0.00520163 0)
(0.000740109 -0.00530806 0)
(0.000796238 -0.00541842 0)
(0.000817369 -0.00555718 0)
(0.000692497 -0.00540811 0)
(0.000451254 -0.0051731 0)
(0.000228882 -0.005165 0)
(0.00012511 -0.00513924 0)
(0.000512912 -0.00292019 0)
(0.000880242 0.00029348 0)
(0.00111384 -0.00704836 0)
(0.00249238 -0.0012798 0)
(0.0116874 0.0134674 0)
(0.0205017 -0.000421104 0)
(0.0308387 -0.019284 0)
(0.0450787 -0.0496457 0)
(0.0623803 -0.091107 0)
(0.0811696 -0.136797 0)
(0.101214 -0.182391 0)
(0.122297 -0.226103 0)
(0.143163 -0.264793 0)
(0.163451 -0.297628 0)
(0.183493 -0.325696 0)
(0.202572 -0.349371 0)
(3.4574e-07 -0.000171425 0)
(2.24385e-06 -0.000503641 0)
(5.78268e-06 -0.00082575 0)
(1.08627e-05 -0.00113817 0)
(1.74366e-05 -0.00144124 0)
(2.55006e-05 -0.00173523 0)
(3.50651e-05 -0.00202036 0)
(4.61478e-05 -0.00229677 0)
(5.87616e-05 -0.00256453 0)
(7.29308e-05 -0.00282367 0)
(8.86711e-05 -0.00307417 0)
(0.000106016 -0.00331596 0)
(0.000124982 -0.00354891 0)
(0.000145612 -0.0037729 0)
(0.000167923 -0.00398766 0)
(0.000191965 -0.00419302 0)
(0.000217753 -0.00438858 0)
(0.000245346 -0.00457411 0)
(0.000274757 -0.00474902 0)
(0.00030605 -0.00491308 0)
(0.000339194 -0.0050654 0)
(0.000374169 -0.00520586 0)
(0.000410881 -0.00533304 0)
(0.000450043 -0.00544686 0)
(0.000493904 -0.00554468 0)
(0.000544324 -0.00562787 0)
(0.000586436 -0.0056978 0)
(0.000543789 -0.00576544 0)
(0.000333564 -0.00571134 0)
(1.15029e-05 -0.00566072 0)
(-0.000251653 -0.00554283 0)
(-4.3561e-05 -0.00324866 0)
(0.00108249 9.68711e-05 0)
(0.00189596 -0.0114883 0)
(0.00513986 -0.00855897 0)
(0.0184075 -0.00511166 0)
(0.0318907 -0.0596176 0)
(0.0474244 -0.122626 0)
(0.0675981 -0.194004 0)
(0.0908188 -0.267537 0)
(0.114601 -0.3357 0)
(0.137763 -0.394215 0)
(0.159842 -0.4421 0)
(0.180403 -0.479895 0)
(0.199037 -0.508544 0)
(0.215552 -0.529108 0)
(0.230074 -0.542732 0)
(0.242676 -0.550516 0)
(0.253495 -0.553392 0)
(0.262798 -0.552146 0)
(-3.47773e-07 -0.000159501 0)
(-8.4942e-07 -0.000474097 0)
(-9.68054e-07 -0.000783899 0)
(-4.35445e-07 -0.00108851 0)
(8.5029e-07 -0.00138761 0)
(2.93337e-06 -0.00168094 0)
(5.84453e-06 -0.00196826 0)
(9.60134e-06 -0.00224938 0)
(1.42234e-05 -0.00252412 0)
(1.97161e-05 -0.00279236 0)
(2.61008e-05 -0.00305394 0)
(3.33847e-05 -0.00330881 0)
(4.161e-05 -0.00355684 0)
(5.0799e-05 -0.00379807 0)
(6.10354e-05 -0.00403235 0)
(7.23679e-05 -0.00425982 0)
(8.49514e-05 -0.0044803 0)
(9.8878e-05 -0.00469409 0)
(0.000114369 -0.00490087 0)
(0.000131464 -0.00510124 0)
(0.000150331 -0.00529459 0)
(0.000171615 -0.00548187 0)
(0.000198544 -0.00566162 0)
(0.000235712 -0.00583585 0)
(0.000274469 -0.00600494 0)
(0.000245134 -0.00617989 0)
(5.09601e-05 -0.00603639 0)
(-0.000259705 -0.0058186 0)
(-0.00052627 -0.00547773 0)
(0.000520259 0.00107635 0)
(0.00394393 -0.0102419 0)
(0.0121507 -0.0161324 0)
(0.0255636 -0.0323082 0)
(0.0432632 -0.0931618 0)
(0.0639591 -0.179195 0)
(0.0871075 -0.28466 0)
(0.109386 -0.386243 0)
(0.129337 -0.469047 0)
(0.1467 -0.530648 0)
(0.161157 -0.573545 0)
(0.172488 -0.601372 0)
(0.180769 -0.617346 0)
(0.186411 -0.624249 0)
(0.189932 -0.624467 0)
(0.191764 -0.619897 0)
(0.192267 -0.611967 0)
(0.191762 -0.60172 0)
(0.190529 -0.589923 0)
(0.18879 -0.577095 0)
(0.186696 -0.563477 0)
(7.08487e-07 -0.000175439 0)
(4.39049e-06 -0.000519702 0)
(1.07738e-05 -0.000856986 0)
(1.93224e-05 -0.00118689 0)
(2.95614e-05 -0.00150907 0)
(4.10965e-05 -0.00182332 0)
(5.3569e-05 -0.00212947 0)
(6.66204e-05 -0.0024274 0)
(7.99008e-05 -0.00271707 0)
(9.30521e-05 -0.00299848 0)
(0.000105733 -0.0032717 0)
(0.000117583 -0.00353685 0)
(0.00012827 -0.00379408 0)
(0.000137428 -0.00404366 0)
(0.000144731 -0.00428584 0)
(0.000149806 -0.00452103 0)
(0.000152329 -0.00474957 0)
(0.000151845 -0.00497207 0)
(0.000147908 -0.00518898 0)
(0.000140183 -0.0054011 0)
(0.000129766 -0.0056088 0)
(0.00011955 -0.00581289 0)
(0.000106926 -0.00601419 0)
(5.55455e-05 -0.00621823 0)
(-0.000122511 -0.00643308 0)
(-0.000356391 -0.00672169 0)
(-0.00049659 -0.00643091 0)
(0.000179236 0.000716843 0)
(0.00400335 -0.0200615 0)
(0.0155631 -0.0570863 0)
(0.0297787 -0.14906 0)
(0.0456453 -0.268933 0)
(0.0628522 -0.380795 0)
(0.0783029 -0.468343 0)
(0.0905426 -0.528932 0)
(0.0989187 -0.565954 0)
(0.102927 -0.584554 0)
(0.102894 -0.590125 0)
(0.0997779 -0.587338 0)
(0.0945599 -0.579753 0)
(0.0879404 -0.569792 0)
(0.0804444 -0.559062 0)
(0.0724781 -0.548566 0)
(0.064339 -0.538806 0)
(0.0562096 -0.529928 0)
(0.0482188 -0.521855 0)
(0.0404639 -0.514328 0)
(0.0329949 -0.506983 0)
(0.0258449 -0.499433 0)
(0.0190011 -0.491341 0)
(-1.25249e-07 -0.000197867 0)
(2.86019e-07 -0.000578861 0)
(1.32402e-06 -0.000945124 0)
(2.82401e-06 -0.00129655 0)
(4.4473e-06 -0.00163302 0)
(5.81252e-06 -0.00195446 0)
(6.53196e-06 -0.00226078 0)
(6.19803e-06 -0.0025519 0)
(4.39915e-06 -0.00282775 0)
(7.00612e-07 -0.00308824 0)
(-5.32483e-06 -0.00333331 0)
(-1.41276e-05 -0.00356288 0)
(-2.61346e-05 -0.00377688 0)
(-4.17971e-05 -0.00397524 0)
(-6.1519e-05 -0.00415789 0)
(-8.57566e-05 -0.00432473 0)
(-0.000114956 -0.00447576 0)
(-0.000149707 -0.0046108 0)
(-0.000190103 -0.00472991 0)
(-0.000234628 -0.00483276 0)
(-0.000279614 -0.00491917 0)
(-0.000330638 -0.00498828 0)
(-0.000438132 -0.00504074 0)
(-0.000690534 -0.00508128 0)
(-0.00101167 -0.00516058 0)
(-0.00125864 -0.00539998 0)
(-0.00236631 -0.0150873 0)
(-0.000780466 -0.0680812 0)
(0.000203833 -0.181688 0)
(0.00310308 -0.29784 0)
(0.00691582 -0.38436 0)
(0.00829195 -0.43368 0)
(0.00660307 -0.455979 0)
(0.00200729 -0.460713 0)
(-0.0049812 -0.456441 0)
(-0.0136813 -0.449048 0)
(-0.0233899 -0.442461 0)
(-0.0335597 -0.437751 0)
(-0.0439788 -0.434696 0)
(-0.0544671 -0.432483 0)
(-0.0648198 -0.430416 0)
(-0.0750099 -0.428138 0)
(-0.0850734 -0.425494 0)
(-0.0949969 -0.422387 0)
(-0.10481 -0.41876 0)
(-0.114566 -0.414564 0)
(-0.124268 -0.409748 0)
(-0.133918 -0.404261 0)
(-0.143518 -0.398047 0)
(-0.153054 -0.391047 0)
(5.39056e-07 -0.000189664 0)
(4.76232e-06 -0.000555992 0)
(1.25225e-05 -0.00090805 0)
(2.31038e-05 -0.00124464 0)
(3.56483e-05 -0.00156476 0)
(4.9347e-05 -0.0018676 0)
(6.34426e-05 -0.00215251 0)
(7.71614e-05 -0.00241898 0)
(8.97525e-05 -0.00266665 0)
(0.000100416 -0.00289531 0)
(0.000108399 -0.00310487 0)
(0.000112868 -0.00329539 0)
(0.00011307 -0.00346708 0)
(0.000108131 -0.00362027 0)
(9.72996e-05 -0.00375546 0)
(7.96305e-05 -0.00387334 0)
(5.42305e-05 -0.00397474 0)
(1.98998e-05 -0.00406071 0)
(-2.38361e-05 -0.00413247 0)
(-7.51539e-05 -0.0041916 0)
(-0.000129622 -0.0042399 0)
(-0.000197244 -0.00427987 0)
(-0.000355452 -0.00431337 0)
(-0.000719185 -0.00433979 0)
(-0.00119792 -0.00434644 0)
(-0.0016147 -0.00450546 0)
(-0.00203691 -0.00845492 0)
(-0.00291577 -0.0375436 0)
(-0.0044947 -0.0550921 0)
(-0.017216 -0.164632 0)
(-0.028098 -0.227342 0)
(-0.0421394 -0.273364 0)
(-0.0545079 -0.302508 0)
(-0.066213 -0.320542 0)
(-0.0771206 -0.329801 0)
(-0.0872572 -0.332019 0)
(-0.0968225 -0.330397 0)
(-0.106143 -0.326335 0)
(-0.115513 -0.321005 0)
(-0.125 -0.314899 0)
(-0.134632 -0.308429 0)
(-0.144477 -0.301784 0)
(-0.15452 -0.295226 0)
(-0.164751 -0.288876 0)
(-0.175196 -0.28274 0)
(-0.185826 -0.276804 0)
(-0.196585 -0.271039 0)
(-0.207447 -0.265359 0)
(-0.21837 -0.259653 0)
(-0.229309 -0.253812 0)
(1.30692e-06 -0.000255256 0)
(1.11626e-05 -0.000731888 0)
(2.93359e-05 -0.00117465 0)
(5.44508e-05 -0.00158351 0)
(8.49267e-05 -0.00195841 0)
(0.000119398 -0.00229927 0)
(0.000156647 -0.00260593 0)
(0.000195515 -0.00287824 0)
(0.000234862 -0.00311597 0)
(0.000273567 -0.0033189 0)
(0.000310499 -0.00348673 0)
(0.000344521 -0.00361915 0)
(0.00037446 -0.00371576 0)
(0.000399108 -0.00377617 0)
(0.000417184 -0.00379986 0)
(0.000427347 -0.00378634 0)
(0.000428142 -0.00373489 0)
(0.000417993 -0.00364494 0)
(0.000395166 -0.00351547 0)
(0.000357876 -0.00334588 0)
(0.000304598 -0.003135 0)
(0.000234047 -0.00288267 0)
(0.000142664 -0.0025866 0)
(1.38784e-05 -0.00224066 0)
(-0.000171684 -0.00183415 0)
(-0.000466265 -0.00126307 0)
(-0.00100879 -0.00127437 0)
(-0.00208931 -0.00378341 0)
(-0.00314444 -0.0033769 0)
(-0.00868003 -0.0450386 0)
(-0.01268 -0.0458918 0)
(-0.0269713 -0.114176 0)
(-0.0365374 -0.150146 0)
(-0.048665 -0.179188 0)
(-0.0608104 -0.194539 0)
(-0.0723251 -0.204884 0)
(-0.0824969 -0.208266 0)
(-0.0917404 -0.207574 0)
(-0.100566 -0.203858 0)
(-0.109142 -0.19839 0)
(-0.117586 -0.192328 0)
(-0.125949 -0.185323 0)
(-0.134173 -0.177749 0)
(-0.142257 -0.169823 0)
(-0.150247 -0.161771 0)
(-0.158194 -0.153783 0)
(-0.16612 -0.146041 0)
(-0.174052 -0.138631 0)
(-0.182014 -0.131568 0)
(-0.190016 -0.124816 0)
(3.49679e-07 -0.00032071 0)
(2.94232e-06 -0.000908676 0)
(7.72333e-06 -0.00144477 0)
(1.43345e-05 -0.00193042 0)
(2.23711e-05 -0.00236675 0)
(3.14868e-05 -0.00275465 0)
(4.13815e-05 -0.00309474 0)
(5.17747e-05 -0.00338744 0)
(6.24049e-05 -0.00363293 0)
(7.30212e-05 -0.00383118 0)
(8.33919e-05 -0.00398191 0)
(9.32915e-05 -0.00408466 0)
(0.000102514 -0.00413868 0)
(0.000110854 -0.00414303 0)
(0.000118129 -0.00409648 0)
(0.000124149 -0.00399757 0)
(0.000128754 -0.00384451 0)
(0.000131773 -0.00363528 0)
(0.000133085 -0.0033674 0)
(0.000132542 -0.00303825 0)
(0.000129981 -0.00264451 0)
(0.000125003 -0.00218292 0)
(0.000117275 -0.00164921 0)
(0.000108473 -0.00103924 0)
(0.000105466 -0.000346299 0)
(0.000121683 0.000435923 0)
(8.97387e-05 0.000807159 0)
(-9.09049e-05 0.00114202 0)
(-0.00048627 0.0024166 0)
(-0.00190328 -0.000766678 0)
(-0.00310963 0.00123993 0)
(-0.00673646 -0.00457513 0)
(-0.012005 -0.00454367 0)
(-0.0198574 -0.033797 0)
(-0.0260356 -0.0292512 0)
(-0.0345101 -0.0679118 0)
(-0.0426684 -0.0851393 0)
(-0.0499315 -0.101775 0)
(-0.0571562 -0.104877 0)
(-0.0640848 -0.103613 0)
(-0.0709915 -0.0993294 0)
(-0.0783589 -0.095716 0)
(-0.0857644 -0.0924685 0)
(-0.092924 -0.0889455 0)
(-0.0996196 -0.0847615 0)
(-0.105806 -0.0797756 0)
(-0.11149 -0.0741536 0)
(-0.11674 -0.0680477 0)
(-0.121669 -0.0615675 0)
(-0.126341 -0.0549069 0)
(-9.99311e-07 -0.000289273 0)
(-8.07339e-06 -0.00082375 0)
(-2.11688e-05 -0.00131481 0)
(-3.94248e-05 -0.00176307 0)
(-6.18953e-05 -0.00216907 0)
(-8.77857e-05 -0.00253325 0)
(-0.000116393 -0.00285598 0)
(-0.000147044 -0.00313753 0)
(-0.000179071 -0.00337812 0)
(-0.000211806 -0.00357787 0)
(-0.000244571 -0.00373683 0)
(-0.000276669 -0.00385497 0)
(-0.000307373 -0.0039322 0)
(-0.000335917 -0.00396836 0)
(-0.000361477 -0.00396319 0)
(-0.000383175 -0.00391641 0)
(-0.000400043 -0.00382762 0)
(-0.000411034 -0.00369643 0)
(-0.000414983 -0.00352231 0)
(-0.000410616 -0.00330478 0)
(-0.00039651 -0.00304321 0)
(-0.000371088 -0.00273705 0)
(-0.000332479 -0.00238554 0)
(-0.000278571 -0.00198817 0)
(-0.000207306 -0.00154419 0)
(-0.000117897 -0.00105381 0)
(-1.38767e-05 -0.000517193 0)
(9.21837e-05 7.33071e-05 0)
(0.000170354 0.000779304 0)
(0.000173697 0.000776469 0)
(0.000137124 0.000965662 0)
(6.65254e-05 0.00125663 0)
(-0.000234589 0.00342092 0)
(-0.00121337 0.0003862 0)
(-0.00216471 0.00195055 0)
(-0.0045437 -0.00262045 0)
(-0.00716716 -0.000946989 0)
(-0.0118765 -0.0280052 0)
(-0.0151421 -0.022245 0)
(-0.0198144 -0.0420805 0)
(-0.0227868 -0.0133528 0)
(-0.0256202 -0.000794891 0)
(-0.0285304 0.00714704 0)
(-0.0322159 0.00636461 0)
(-0.0368536 0.00191361 0)
(-0.0425821 -0.00306429 0)
(-0.0488891 -0.00686946 0)
(-0.055396 -0.00899962 0)
(-0.0618555 -0.00952187 0)
(-0.0680866 -0.0087421 0)
(-7.08766e-07 -0.000231017 0)
(-7.82512e-06 -0.000663129 0)
(-2.17863e-05 -0.00106513 0)
(-4.18826e-05 -0.00143685 0)
(-6.71275e-05 -0.00177819 0)
(-9.66448e-05 -0.0020891 0)
(-0.00012965 -0.00236953 0)
(-0.000165392 -0.00261949 0)
(-0.000203129 -0.00283902 0)
(-0.000242129 -0.00302817 0)
(-0.000281662 -0.00318705 0)
(-0.000321002 -0.00331578 0)
(-0.000359415 -0.00341452 0)
(-0.000396163 -0.00348348 0)
(-0.000430492 -0.0035229 0)
(-0.000461636 -0.00353308 0)
(-0.000488803 -0.00351436 0)
(-0.000511182 -0.00346715 0)
(-0.000527931 -0.00339195 0)
(-0.000538179 -0.00328929 0)
(-0.000541016 -0.00315986 0)
(-0.000535504 -0.0030044 0)
(-0.000520656 -0.00282382 0)
(-0.000495468 -0.00261914 0)
(-0.000458859 -0.00239158 0)
(-0.000409594 -0.00214247 0)
(-0.000346195 -0.00187332 0)
(-0.000267949 -0.00158538 0)
(-0.000176456 -0.00127944 0)
(-7.94755e-05 -0.000955451 0)
(1.25675e-05 -0.000603062 0)
(9.25149e-05 -0.000173817 0)
(0.000150293 0.000384232 0)
(0.000174543 0.000378601 0)
(0.000222271 0.000574577 0)
(0.000264818 0.000683656 0)
(0.000139445 0.00165709 0)
(-0.000476361 -0.000193423 0)
(-0.00125311 0.000740707 0)
(-0.00354872 -0.00474138 0)
(-0.00450035 -0.00146193 0)
(-0.00517393 -0.0281966 0)
(-0.00490462 -0.0100184 0)
(-0.00330935 0.0064547 0)
(-0.00252505 0.0416371 0)
(-0.00278602 0.0672033 0)
(-0.00352408 0.0832413 0)
(-0.00525589 0.0916851 0)
(-0.00804063 0.0946255 0)
(-0.0116566 0.0937737 0)
(-6.92007e-07 -0.000187213 0)
(-5.76593e-06 -0.000540847 0)
(-1.54058e-05 -0.0008733 0)
(-2.90906e-05 -0.00118421 0)
(-4.62162e-05 -0.00147327 0)
(-6.62513e-05 -0.00174025 0)
(-8.87048e-05 -0.00198496 0)
(-0.000113089 -0.00220726 0)
(-0.000138912 -0.00240704 0)
(-0.000165678 -0.00258426 0)
(-0.000192893 -0.00273887 0)
(-0.000220063 -0.00287091 0)
(-0.000246694 -0.00298043 0)
(-0.000272297 -0.0030675 0)
(-0.000296384 -0.00313226 0)
(-0.000318473 -0.00317485 0)
(-0.000338086 -0.00319546 0)
(-0.000354757 -0.00319431 0)
(-0.000368027 -0.00317166 0)
(-0.000377451 -0.00312778 0)
(-0.000382601 -0.00306301 0)
(-0.00038307 -0.00297768 0)
(-0.000378475 -0.00287219 0)
(-0.000368462 -0.00274694 0)
(-0.000352716 -0.00260241 0)
(-0.00033096 -0.00243903 0)
(-0.000302973 -0.00225741 0)
(-0.000268595 -0.00205801 0)
(-0.00022768 -0.0018415 0)
(-0.00017995 -0.00160811 0)
(-0.000124565 -0.00135793 0)
(-6.0571e-05 -0.00109015 0)
(1.17454e-05 -0.000804923 0)
(8.71359e-05 -0.000504166 0)
(0.000160064 -0.00017036 0)
(0.000222546 0.00017868 0)
(0.000270498 0.00062713 0)
(0.000291045 0.000731955 0)
(0.000305355 0.000994526 0)
(0.000268532 0.00128745 0)
(2.55661e-05 0.00127989 0)
(-0.000421135 -0.000289606 0)
(-0.00120656 0.00152753 0)
(-0.00260719 -0.0122711 0)
(-0.00105241 -0.00190298 0)
(0.00133136 0.00987831 0)
(0.00502086 0.0224304 0)
(0.00862839 0.0481684 0)
(0.0122365 0.0710862 0)
(0.0156765 0.0887812 0)
(-1.73912e-07 -0.000167634 0)
(-3.33666e-06 -0.00048471 0)
(-9.93712e-06 -0.000783596 0)
(-1.97724e-05 -0.00106426 0)
(-3.24336e-05 -0.0013267 0)
(-4.7542e-05 -0.00157091 0)
(-6.47567e-05 -0.00179693 0)
(-8.37477e-05 -0.0020048 0)
(-0.000104185 -0.00219456 0)
(-0.000125736 -0.0023663 0)
(-0.000148067 -0.0025201 0)
(-0.000170842 -0.00265607 0)
(-0.000193722 -0.00277433 0)
(-0.000216369 -0.00287501 0)
(-0.000238439 -0.00295825 0)
(-0.000259589 -0.00302422 0)
(-0.000279478 -0.00307308 0)
(-0.00029776 -0.00310501 0)
(-0.000314097 -0.0031202 0)
(-0.000328146 -0.00311882 0)
(-0.000339579 -0.00310109 0)
(-0.000348061 -0.0030672 0)
(-0.000353276 -0.00301735 0)
(-0.000354905 -0.00295173 0)
(-0.000352653 -0.00287056 0)
(-0.00034622 -0.002774 0)
(-0.000335341 -0.00266226 0)
(-0.00031974 -0.0025355 0)
(-0.000299188 -0.00239389 0)
(-0.000273429 -0.00223755 0)
(-0.00024225 -0.00206668 0)
(-0.00020537 -0.00188137 0)
(-0.000162547 -0.00168192 0)
(-0.000113437 -0.00146827 0)
(-5.75186e-05 -0.00124036 0)
(5.70993e-06 -0.000997523 0)
(7.60634e-05 -0.000739414 0)
(0.000150339 -0.000465511 0)
(0.000224603 -0.00016215 0)
(0.000292391 0.000154625 0)
(0.00035409 0.000256311 0)
(0.000389521 0.000279797 0)
(0.000393644 0.000607367 0)
(0.000236881 4.80015e-05 0)
(-0.000283016 -0.000964752 0)
(-0.000373149 -0.000890224 0)
(0.000314897 -0.00517231 0)
(0.00165757 0.00126097 0)
(0.00414627 0.00688574 0)
(0.00782723 0.0175645 0)
(-4.25484e-07 -0.000136304 0)
(-1.79661e-06 -0.000397823 0)
(-4.33035e-06 -0.000647398 0)
(-8.07262e-06 -0.000884294 0)
(-1.32186e-05 -0.00110796 0)
(-1.99375e-05 -0.00131799 0)
(-2.83345e-05 -0.00151411 0)
(-3.84495e-05 -0.00169612 0)
(-5.02665e-05 -0.00186394 0)
(-6.3721e-05 -0.00201751 0)
(-7.87053e-05 -0.00215687 0)
(-9.50729e-05 -0.00228209 0)
(-0.000112643 -0.00239325 0)
(-0.000131202 -0.00249051 0)
(-0.000150514 -0.00257401 0)
(-0.000170314 -0.00264393 0)
(-0.000190321 -0.00270044 0)
(-0.000210235 -0.00274375 0)
(-0.00022974 -0.00277405 0)
(-0.000248508 -0.00279153 0)
(-0.000266203 -0.0027964 0)
(-0.000282477 -0.00278885 0)
(-0.000296979 -0.00276906 0)
(-0.000309348 -0.00273722 0)
(-0.000319224 -0.0026935 0)
(-0.000326239 -0.00263808 0)
(-0.000330029 -0.00257109 0)
(-0.000330223 -0.00249269 0)
(-0.000326453 -0.00240301 0)
(-0.000318345 -0.00230217 0)
(-0.000305534 -0.00219026 0)
(-0.000287642 -0.00206741 0)
(-0.000264306 -0.00193366 0)
(-0.000235151 -0.00178915 0)
(-0.00019981 -0.00163386 0)
(-0.000157859 -0.00146799 0)
(-0.000108801 -0.00129145 0)
(-5.20658e-05 -0.0011045 0)
(1.26065e-05 -0.000906634 0)
(8.43165e-05 -0.000697995 0)
(0.000160569 -0.000476913 0)
(0.000238117 -0.000246609 0)
(0.000320726 6.12769e-05 0)
(0.000388065 0.000124218 0)
(0.00041353 0.000189669 0)
(0.000400779 0.000335332 0)
(0.000328151 6.2107e-05 0)
(0.00017959 0.000107842 0)
(0.000271132 -0.000364397 0)
(0.000821704 -0.00231084 0)
(1.58591e-06 -0.00016545 0)
(8.80024e-06 -0.000464341 0)
(1.93787e-05 -0.000736248 0)
(3.14408e-05 -0.000983245 0)
(4.35067e-05 -0.0012072 0)
(5.45607e-05 -0.0014098 0)
(6.38964e-05 -0.00159261 0)
(7.10193e-05 -0.00175707 0)
(7.56051e-05 -0.0019045 0)
(7.7473e-05 -0.00203612 0)
(7.6562e-05 -0.00215305 0)
(7.29098e-05 -0.0022563 0)
(6.66351e-05 -0.0023468 0)
(5.79218e-05 -0.0024254 0)
(4.70071e-05 -0.00249289 0)
(3.41705e-05 -0.00254995 0)
(1.97257e-05 -0.00259723 0)
(4.01207e-06 -0.00263532 0)
(-1.26099e-05 -0.00266473 0)
(-2.97658e-05 -0.00268595 0)
(-4.70698e-05 -0.0026994 0)
(-6.41307e-05 -0.00270547 0)
(-8.05524e-05 -0.00270451 0)
(-9.59407e-05 -0.00269684 0)
(-0.000109901 -0.00268275 0)
(-0.000122048 -0.00266248 0)
(-0.000131998 -0.00263627 0)
(-0.000139385 -0.00260432 0)
(-0.000143847 -0.00256682 0)
(-0.000145047 -0.00252393 0)
(-0.000142657 -0.00247582 0)
(-0.000136384 -0.00242263 0)
(-0.000125946 -0.00236449 0)
(-0.000111114 -0.00230153 0)
(-9.16759e-05 -0.00223389 0)
(-6.74899e-05 -0.0021617 0)
(-3.84435e-05 -0.00208511 0)
(-4.52553e-06 -0.0020043 0)
(3.42436e-05 -0.00191947 0)
(7.77529e-05 -0.00183085 0)
(0.000125914 -0.00173862 0)
(0.000178248 -0.00164287 0)
(0.000233681 -0.00154359 0)
(0.000289612 -0.00144207 0)
(0.000344409 -0.0013362 0)
(0.000394508 -0.00127683 0)
(0.000426363 -0.00132867 0)
(0.000439445 -0.00128895 0)
(0.00043545 -0.00138005 0)
(0.000375882 -0.00158758 0)
(6.96175e-05 -0.000216397 0)
(0.00019927 -0.000581351 0)
(0.000301329 -0.000886571 0)
(0.000380146 -0.00114194 0)
(0.000439869 -0.00135558 0)
(0.000483445 -0.00153423 0)
(0.00051296 -0.00168348 0)
(0.000530181 -0.00180803 0)
(0.000536691 -0.00191184 0)
(0.000533898 -0.0019982 0)
(0.000523045 -0.00206989 0)
(0.000505234 -0.00212923 0)
(0.000481438 -0.00217817 0)
(0.000452528 -0.00221833 0)
(0.00041928 -0.00225107 0)
(0.000382395 -0.00227753 0)
(0.000342502 -0.00229866 0)
(0.000300176 -0.00231523 0)
(0.000255938 -0.00232788 0)
(0.00021027 -0.00233713 0)
(0.000163613 -0.00234339 0)
(0.000116381 -0.00234699 0)
(6.89604e-05 -0.00234815 0)
(2.17176e-05 -0.00234703 0)
(-2.49984e-05 -0.00234372 0)
(-7.08504e-05 -0.00233821 0)
(-0.000115511 -0.00233045 0)
(-0.000158654 -0.00232028 0)
(-0.000199959 -0.00230749 0)
(-0.000239097 -0.00229175 0)
(-0.000275734 -0.00227265 0)
(-0.00030952 -0.00224964 0)
(-0.000340093 -0.00222207 0)
(-0.000367057 -0.0021891 0)
(-0.000389997 -0.00214974 0)
(-0.000408447 -0.00210273 0)
(-0.000421904 -0.00204663 0)
(-0.000429797 -0.00197959 0)
(-0.000431498 -0.0018995 0)
(-0.000426276 -0.0018037 0)
(-0.000413307 -0.00168917 0)
(-0.000391571 -0.00155201 0)
(-0.000359886 -0.00138791 0)
(-0.000317122 -0.00119107 0)
(-0.000263101 -0.000955423 0)
(-0.00019752 -0.000671024 0)
(-0.000116371 -0.000333916 0)
(-1.6719e-05 0.000141437 0)
(8.48763e-05 0.000532624 0)
(0.000157439 0.000974044 0)
(-0.000326677 -0.00266255 0)
(-0.000379905 -0.00140918 0)
(-0.000569164 -0.00239815 0)
(-0.000840291 -0.00394147 0)
(-0.000723118 -0.00295253 0)
(0.000616244 -0.0172601 0)
(0.00229149 -0.040179 0)
(0.00441013 -0.065881 0)
(0.00651847 -0.0893834 0)
(0.0083247 -0.109274 0)
(0.00969178 -0.125638 0)
(0.0106683 -0.138926 0)
(0.0114036 -0.149471 0)
(0.0120452 -0.157535 0)
(0.0127064 -0.163234 0)
(0.0134789 -0.166541 0)
(0.0144536 -0.167385 0)
(0.0156715 -0.165564 0)
(0.0171316 -0.161411 0)
(0.0190262 -0.154497 0)
(0.0210395 -0.146648 0)
(0.023328 -0.138202 0)
(0.026059 -0.126802 0)
(0.029288 -0.110797 0)
(0.033462 -0.0862417 0)
(0.038365 -0.0531191 0)
(0.0439708 -0.013498 0)
(0.0502124 0.0304896 0)
(0.0566607 0.0760937 0)
(0.0629281 0.120598 0)
(0.0685787 0.161581 0)
(0.0732632 0.197249 0)
(0.0767735 0.226552 0)
(0.0790205 0.249172 0)
(0.0800213 0.265427 0)
(0.079879 0.276105 0)
(0.0787534 0.282267 0)
(0.0768313 0.285047 0)
(0.0742986 0.285486 0)
(0.0713189 0.284417 0)
(0.0680199 0.282406 0)
(0.0644893 0.279772 0)
(0.0607789 0.276629 0)
(0.056914 0.272976 0)
(0.0529046 0.268763 0)
(0.0487565 0.263957 0)
(0.0444788 0.258579 0)
(0.040088 0.252723 0)
(0.0356075 0.246573 0)
(0.0310636 0.240429 0)
(-0.00131811 -0.00217475 0)
(-0.00163918 0.00161805 0)
(-0.00205618 0.00356248 0)
(-0.00295357 -0.00595082 0)
(-0.00270852 -0.0179597 0)
(-0.00212677 -0.0352364 0)
(-0.00158088 -0.0540206 0)
(-0.00124559 -0.0726099 0)
(-0.00111971 -0.0904516 0)
(-0.00109533 -0.107234 0)
(-0.00107941 -0.12269 0)
(-0.00100733 -0.136554 0)
(-0.000843414 -0.14861 0)
(-0.000573232 -0.158768 0)
(-0.000186206 -0.166965 0)
(0.000324381 -0.173124 0)
(0.000967868 -0.177201 0)
(0.00176308 -0.179185 0)