/*--------------------------------*- C++ -*----------------------------------*\
| =========                 |                                                 |
| \\      /  F ield         | OpenFOAM: The Open Source CFD Toolbox           |
|  \\    /   O peration     | Version:  2.4.0                                 |
|   \\  /    A nd           | Web:      www.OpenFOAM.org                      |
|    \\/     M anipulation  |                                                 |
\*---------------------------------------------------------------------------*/
FoamFile
{
    version     2.0;
    format      ascii;
    class       volScalarField;
    location    "0.1";
    object      alpha1;
}
// * * * * * * * * * * * * * * * * * * * * * * * * * * * * * * * * * * * * * //

dimensions      [0 0 0 0 0 0 0];

internalField   nonuniform List<scalar> 
125
(
1
1
1
1
1
1
1
1
1
1
1
1
1
1
1
0.632822
0.632846
0.632851
0.632864
0.632811
5.64964e-132
9.09267e-128
5.74905e-129
3.74081e-130
3.27526e-134
8.96283e-138
1.53802e-133
6.04937e-134
1.18406e-137
8.69809e-142
4.43159e-145
8.00361e-141
4.92595e-139
4.63531e-143
2.599e-147
2.93857e-153
1.02045e-148
2.61375e-144
2.74714e-148
1.63816e-152
4.55011e-159
2.0386e-154
6.70653e-150
7.74476e-154
4.8452e-158
3.24604e-166
1.60543e-161
5.72552e-157
7.14363e-161
4.63837e-165
1.93736e-173
1.04961e-168
4.00448e-164
5.3392e-168
3.57055e-172
1.51821e-180
8.91938e-176
3.59811e-171
5.07915e-175
3.47745e-179
3.83037e-189
2.41745e-184
1.02154e-179
1.5149e-183
1.05671e-187
1.34245e-198
9.11173e-194
4.02598e-189
6.22854e-193
4.4101e-197
0
0
0
0
0
0
0
0
0
0
0
0
0
0
0
0
0
0
0
0
0
0
0
0
0
0
0
0
0
0
0
0
0
0
0
0
0
0
0
0
0
0
0
0
0
0
0
0
0
0
0
0
0
0
0
)
;

boundaryField
{
    BotWall
    {
        type            fixedValue;
        value           uniform 1;
    }
    FreeStream
    {
        type            inletOutlet;
        inletValue      nonuniform 0();
        value           nonuniform 0();
    }
    FrontNBack
    {
        type            empty;
    }
    LeftSide
    {
        type            symmetryPlane;
    }
    RightSide
    {
        type            symmetryPlane;
    }
    procBoundary0to1
    {
        type            processor;
        value           uniform 0;
    }
}


// ************************************************************************* //
