/*--------------------------------*- C++ -*----------------------------------*\
| =========                 |                                                 |
| \\      /  F ield         | OpenFOAM: The Open Source CFD Toolbox           |
|  \\    /   O peration     | Version:  2.4.0                                 |
|   \\  /    A nd           | Web:      www.OpenFOAM.org                      |
|    \\/     M anipulation  |                                                 |
\*---------------------------------------------------------------------------*/
FoamFile
{
    version     2.0;
    format      ascii;
    class       volScalarField;
    location    "0.1";
    object      p;
}
// * * * * * * * * * * * * * * * * * * * * * * * * * * * * * * * * * * * * * //

dimensions      [1 -1 -2 0 0 0 0];

internalField   nonuniform List<scalar> 
125
(
5.52491
5.52569
5.52573
5.52582
5.52483
-3.32802
-3.33007
-3.33006
-3.33005
-3.32803
-37.8307
-37.8348
-37.835
-37.8356
-37.8302
-83.0559
-83.0551
-83.0558
-83.0573
-83.0547
-0.0370748
-0.0370738
-0.0370738
-0.0370738
-0.0370748
0.00685501
0.00685401
0.006854
0.00685397
0.00685501
-8.34696e-05
-8.33128e-05
-8.33088e-05
-8.33181e-05
-8.34913e-05
-0.00409871
-0.00409852
-0.00409851
-0.00409852
-0.00409873
-0.00515261
-0.0051526
-0.0051526
-0.00515261
-0.00515263
-0.00546478
-0.00546482
-0.00546482
-0.00546483
-0.0054648
-0.00587913
-0.00587915
-0.00587915
-0.00587916
-0.00587915
-0.0064115
-0.0064115
-0.0064115
-0.00641151
-0.00641152
-0.00697675
-0.00697675
-0.00697675
-0.00697676
-0.00697677
-0.00754436
-0.00754437
-0.00754436
-0.00754437
-0.00754438
-0.00811393
-0.00811394
-0.00811394
-0.00811395
-0.00811396
-0.00868885
-0.00868886
-0.00868885
-0.00868886
-0.00868887
-0.00927034
-0.00927035
-0.00927034
-0.00927035
-0.00927036
-0.00985849
-0.0098585
-0.00985849
-0.0098585
-0.00985851
-0.0104532
-0.0104532
-0.0104532
-0.0104533
-0.0104533
-0.0110546
-0.0110546
-0.0110546
-0.0110546
-0.0110546
-0.0116627
-0.0116627
-0.0116627
-0.0116627
-0.0116627
-0.0122776
-0.0122776
-0.0122776
-0.0122776
-0.0122776
-0.0128993
-0.0128993
-0.0128993
-0.0128993
-0.0128993
-0.013528
-0.013528
-0.013528
-0.013528
-0.013528
-0.0141637
-0.0141637
-0.0141637
-0.0141637
-0.0141637
)
;

boundaryField
{
    BotWall
    {
        type            calculated;
        value           nonuniform List<scalar> 5(5.53973 5.54051 5.54055 5.54064 5.53965);
    }
    FreeStream
    {
        type            calculated;
        value           nonuniform 0();
    }
    FrontNBack
    {
        type            empty;
    }
    LeftSide
    {
        type            symmetryPlane;
    }
    RightSide
    {
        type            symmetryPlane;
    }
    procBoundary0to1
    {
        type            processor;
        value           nonuniform List<scalar> 5(-0.0148064 -0.0148064 -0.0148064 -0.0148064 -0.0148065);
    }
}


// ************************************************************************* //
