/*--------------------------------*- C++ -*----------------------------------*\
| =========                 |                                                 |
| \\      /  F ield         | OpenFOAM: The Open Source CFD Toolbox           |
|  \\    /   O peration     | Version:  2.4.0                                 |
|   \\  /    A nd           | Web:      www.OpenFOAM.org                      |
|    \\/     M anipulation  |                                                 |
\*---------------------------------------------------------------------------*/
FoamFile
{
    version     2.0;
    format      ascii;
    class       volScalarField;
    location    "0.1";
    object      p_rgh;
}
// * * * * * * * * * * * * * * * * * * * * * * * * * * * * * * * * * * * * * //

dimensions      [1 -1 -2 0 0 0 0];

internalField   nonuniform List<scalar> 
125
(
5.53973
5.54051
5.54055
5.54064
5.53965
-3.2834
-3.28545
-3.28544
-3.28543
-3.28341
-37.7559
-37.7601
-37.7603
-37.7608
-37.7555
-82.9887
-82.9879
-82.9885
-82.99
-82.9874
-0.0348212
-0.0348202
-0.0348202
-0.0348202
-0.0348212
0.0096247
0.00962369
0.00962369
0.00962366
0.00962469
0.00320808
0.00320824
0.00320824
0.00320823
0.00320806
-0.00027947
-0.000279278
-0.000279274
-0.000279281
-0.000279493
-0.000799794
-0.000799785
-0.000799781
-0.000799791
-0.000799816
-0.00057243
-0.000572471
-0.000572467
-0.000572477
-0.000572452
-0.000441225
-0.000441245
-0.000441242
-0.000441252
-0.000441247
-0.000421954
-0.000421958
-0.000421955
-0.000421965
-0.000421976
-0.00042941
-0.000429412
-0.000429409
-0.000429419
-0.000429432
-0.000433001
-0.000433005
-0.000433002
-0.000433012
-0.000433023
-0.000432258
-0.000432263
-0.00043226
-0.00043227
-0.00043228
-0.000430495
-0.0004305
-0.000430498
-0.000430508
-0.000430518
-0.000428873
-0.000428878
-0.000428875
-0.000428885
-0.000428896
-0.000427402
-0.000427406
-0.000427404
-0.000427414
-0.000427424
-0.000425951
-0.000425956
-0.000425954
-0.000425963
-0.000425974
-0.000424478
-0.000424483
-0.000424481
-0.000424491
-0.000424502
-0.000422983
-0.000422988
-0.000422985
-0.000422995
-0.000423006
-0.000421469
-0.000421474
-0.000421471
-0.000421481
-0.000421492
-0.000419938
-0.000419943
-0.00041994
-0.00041995
-0.000419961
-0.000418389
-0.000418395
-0.000418392
-0.000418402
-0.000418413
-0.000416823
-0.000416828
-0.000416826
-0.000416836
-0.000416846
)
;

boundaryField
{
    BotWall
    {
        type            fixedFluxPressure;
        gradient        uniform 0;
        value           nonuniform List<scalar> 5(5.53973 5.54051 5.54055 5.54064 5.53965);
    }
    FreeStream
    {
        type            totalPressure;
        rho             rho;
        psi             none;
        gamma           1;
        p0              nonuniform 0();
        value           nonuniform 0();
    }
    FrontNBack
    {
        type            empty;
    }
    LeftSide
    {
        type            symmetryPlane;
    }
    RightSide
    {
        type            symmetryPlane;
    }
    procBoundary0to1
    {
        type            processor;
        value           nonuniform List<scalar> 5(-0.000415239 -0.000415244 -0.000415242 -0.000415252 -0.000415262);
    }
}


// ************************************************************************* //
