/*--------------------------------*- C++ -*----------------------------------*\
| =========                 |                                                 |
| \\      /  F ield         | OpenFOAM: The Open Source CFD Toolbox           |
|  \\    /   O peration     | Version:  2.4.0                                 |
|   \\  /    A nd           | Web:      www.OpenFOAM.org                      |
|    \\/     M anipulation  |                                                 |
\*---------------------------------------------------------------------------*/
FoamFile
{
    version     2.0;
    format      ascii;
    class       volScalarField;
    location    "0.1";
    object      T;
}
// * * * * * * * * * * * * * * * * * * * * * * * * * * * * * * * * * * * * * //

dimensions      [0 0 0 1 0 0 0];

internalField   nonuniform List<scalar> 
125
(
293.663
293.663
293.663
293.663
293.663
294.998
294.998
294.998
294.998
294.998
296.351
296.351
296.351
296.352
296.351
297.964
297.964
297.964
297.964
297.964
297.964
297.964
297.964
297.964
297.964
297.964
297.964
297.964
297.964
297.964
297.964
297.964
297.964
297.964
297.964
297.964
297.964
297.964
297.964
297.964
297.964
297.964
297.964
297.964
297.964
297.965
297.965
297.965
297.965
297.965
297.965
297.965
297.965
297.965
297.965
297.965
297.965
297.965
297.965
297.965
297.965
297.965
297.965
297.965
297.965
297.966
297.966
297.966
297.966
297.966
297.966
297.966
297.966
297.966
297.966
297.966
297.966
297.966
297.966
297.966
297.967
297.967
297.967
297.967
297.967
297.967
297.967
297.967
297.967
297.967
297.968
297.968
297.968
297.968
297.968
297.968
297.968
297.968
297.968
297.968
297.969
297.969
297.969
297.969
297.969
297.969
297.969
297.969
297.969
297.969
297.97
297.97
297.97
297.97
297.97
297.971
297.971
297.971
297.971
297.971
297.971
297.971
297.971
297.971
297.971
)
;

boundaryField
{
    BotWall
    {
        type            fixedValue;
        value           uniform 293;
    }
    FreeStream
    {
        type            fixedValue;
        value           nonuniform 0();
    }
    FrontNBack
    {
        type            empty;
    }
    LeftSide
    {
        type            symmetryPlane;
    }
    RightSide
    {
        type            symmetryPlane;
    }
    procBoundary0to1
    {
        type            processor;
        value           nonuniform List<scalar> 5(297.972 297.972 297.972 297.972 297.972);
    }
}


// ************************************************************************* //
