/*--------------------------------*- C++ -*----------------------------------*\
| =========                 |                                                 |
| \\      /  F ield         | OpenFOAM: The Open Source CFD Toolbox           |
|  \\    /   O peration     | Version:  2.4.0                                 |
|   \\  /    A nd           | Web:      www.OpenFOAM.org                      |
|    \\/     M anipulation  |                                                 |
\*---------------------------------------------------------------------------*/
FoamFile
{
    version     2.0;
    format      ascii;
    class       volScalarField;
    location    "0.011";
    object      alpha1;
}
// * * * * * * * * * * * * * * * * * * * * * * * * * * * * * * * * * * * * * //

dimensions      [0 0 0 0 0 0 0];

internalField   nonuniform List<scalar> 
125
(
1
1
1
0.69204
2.8165e-123
3.37583e-129
4.80389e-135
6.89982e-141
9.06978e-147
1.05537e-152
1.0736e-158
9.53618e-165
7.3709e-171
4.94552e-177
2.86933e-183
1.42879e-189
6.03846e-196
2.13096e-202
6.12767e-209
1.38646e-215
2.33847e-222
2.67918e-229
1.72514e-236
3.51119e-244
0
0
0
0
0
0
0
0
0
0
0
0
0
0
0
0
0
0
0
0
0
0
0
0
0
0
0
0
0
0
0
0
0
0
0
0
0
0
0
0
0
0
0
0
0
0
0
0
0
0
0
0
0
0
0
0
0
0
0
0
0
0
0
0
0
0
0
0
0
0
0
0
0
0
0
0
0
0
0
0
0
0
0
0
0
0
0
0
0
0
0
0
0
0
0
0
0
0
0
0
0
)
;

boundaryField
{
    BotWall
    {
        type            fixedValue;
        value           uniform 1;
    }
    FreeStream
    {
        type            inletOutlet;
        inletValue      uniform 0;
        value           uniform 0;
    }
    FrontNBack
    {
        type            empty;
    }
    LeftSide
    {
        type            symmetryPlane;
    }
    RightSide
    {
        type            symmetryPlane;
    }
    procBoundary7to4
    {
        type            processor;
        value           nonuniform List<scalar> 
50
(
1
1
1
0.691451
1.27801e-120
2.25444e-126
3.97635e-132
6.41717e-138
9.074e-144
1.11055e-149
1.1757e-155
1.07858e-161
8.58169e-168
5.91424e-174
3.51639e-180
1.7907e-186
7.7237e-193
2.77609e-199
8.12145e-206
1.86779e-212
3.19924e-219
3.72073e-226
2.4311e-233
5.01854e-241
0
0
0
0
0
0
0
0
0
0
0
0
0
0
0
0
0
0
0
0
0
0
0
0
0
0
)
;
    }
    procBoundary7to5
    {
        type            processor;
        value           uniform 0;
    }
    procBoundary7to6
    {
        type            processor;
        value           uniform 0;
    }
    procBoundary7to8
    {
        type            processor;
        value           uniform 0;
    }
    procBoundary7to9
    {
        type            processor;
        value           nonuniform List<scalar> 
75
(
1
1
1
0.68216
2.14341e-121
1.36972e-127
8.60982e-134
5.36143e-140
3.08637e-146
1.53019e-152
6.49949e-159
2.42952e-165
7.53689e-172
1.93861e-178
4.18719e-185
8.03139e-192
1.57381e-198
3.60944e-205
8.91438e-212
1.94808e-218
3.2726e-225
3.75356e-232
2.4198e-239
4.92938e-247
0
0
0
0
0
0
0
0
0
0
0
0
0
0
0
0
0
0
0
0
0
0
0
0
0
0
0
0
0
0
0
0
0
0
0
0
0
0
0
0
0
0
0
0
0
0
0
0
0
0
0
)
;
    }
    procBoundary7to10
    {
        type            processor;
        value           uniform 0;
    }
}


// ************************************************************************* //
