/*--------------------------------*- C++ -*----------------------------------*\
| =========                 |                                                 |
| \\      /  F ield         | OpenFOAM: The Open Source CFD Toolbox           |
|  \\    /   O peration     | Version:  2.4.0                                 |
|   \\  /    A nd           | Web:      www.OpenFOAM.org                      |
|    \\/     M anipulation  |                                                 |
\*---------------------------------------------------------------------------*/
FoamFile
{
    version     2.0;
    format      ascii;
    class       volScalarField;
    location    "0.011";
    object      p_rgh;
}
// * * * * * * * * * * * * * * * * * * * * * * * * * * * * * * * * * * * * * //

dimensions      [1 -1 -2 0 0 0 0];

internalField   nonuniform List<scalar> 
125
(
0.0605692
-0.0369379
0.288486
-1.43755
-0.174702
0.0451246
0.0156069
-0.00585652
-0.00998192
-0.00888828
-0.00806665
-0.00790668
-0.00793779
-0.00795738
-0.00795145
-0.00793829
-0.00792557
-0.0079138
-0.00790225
-0.00789063
-0.00787894
-0.00786719
-0.0078554
-0.00784356
-0.00783166
-0.00488056
-0.00485778
-0.00483493
-0.00481199
-0.00478896
-0.00476586
-0.00474266
-0.00471939
-0.00469602
-0.00467257
-0.00464904
-0.00462541
-0.00460171
-0.00457791
-0.00455403
-0.00453005
-0.00450599
-0.00448185
-0.00445761
-0.00443328
-0.00440887
-0.00438436
-0.00435976
-0.00433508
-0.0043103
-0.00428543
-0.00426047
-0.00423542
-0.00421028
-0.00418504
-0.00415971
-0.00413429
-0.00410877
-0.00408316
-0.00405746
-0.00403166
-0.00400577
-0.00397978
-0.00395369
-0.00392751
-0.00390124
-0.00387486
-0.00384839
-0.00382183
-0.00379516
-0.0037684
-0.00374153
-0.00371457
-0.00368751
-0.00366035
-0.00363309
-0.00360573
-0.00357827
-0.00355071
-0.00352305
-0.00349528
-0.00346741
-0.00343945
-0.00341137
-0.0033832
-0.00335492
-0.00332653
-0.00329804
-0.00326945
-0.00324075
-0.00321195
-0.00318304
-0.00315402
-0.0031249
-0.00309567
-0.00306633
-0.00303689
-0.00300733
-0.00297767
-0.0029479
-0.00291801
-0.00288802
-0.00285792
-0.00282771
-0.00279738
-0.00276695
-0.0027364
-0.00270574
-0.00267496
-0.00264408
-0.00261308
-0.00258196
-0.00255073
-0.00251939
-0.00248793
-0.00245636
-0.00242466
-0.00239286
-0.00236093
-0.00232889
-0.00229673
-0.00226445
-0.00223205
-0.00219952
-0.00216685
)
;

boundaryField
{
    BotWall
    {
        type            fixedFluxPressure;
        gradient        uniform 0;
        value           uniform 0.0605692;
    }
    FreeStream
    {
        type            totalPressure;
        rho             rho;
        psi             none;
        gamma           1;
        p0              uniform 0;
        value           uniform -0.00215052;
    }
    FrontNBack
    {
        type            empty;
    }
    LeftSide
    {
        type            symmetryPlane;
    }
    RightSide
    {
        type            symmetryPlane;
    }
    procBoundary7to4
    {
        type            processor;
        value           nonuniform List<scalar> 
50
(
0.0606369
-0.0368201
0.288413
-1.4365
-0.174613
0.0451052
0.0156017
-0.00585403
-0.00997823
-0.00888508
-0.00806373
-0.00790379
-0.00793488
-0.00795445
-0.00794852
-0.00793536
-0.00792264
-0.00791085
-0.0078993
-0.00788768
-0.00787598
-0.00786423
-0.00785243
-0.0078406
-0.00782872
-0.00291952
-0.00288953
-0.00285943
-0.00282922
-0.00279889
-0.00276846
-0.00273792
-0.00270726
-0.00267649
-0.00264561
-0.00261461
-0.0025835
-0.00255228
-0.00252094
-0.00248949
-0.00245792
-0.00242623
-0.00239443
-0.00236251
-0.00233047
-0.00229832
-0.00226605
-0.00223368
-0.00220116
-0.00216834
)
;
    }
    procBoundary7to5
    {
        type            processor;
        value           nonuniform List<scalar> 
75
(
-0.00488225
-0.00485947
-0.00483661
-0.00481366
-0.00479063
-0.00476752
-0.00474432
-0.00472104
-0.00469767
-0.00467421
-0.00465067
-0.00462704
-0.00460333
-0.00457952
-0.00455563
-0.00453166
-0.00450759
-0.00448344
-0.0044592
-0.00443486
-0.00441044
-0.00438593
-0.00436133
-0.00433664
-0.00431186
-0.00428699
-0.00426202
-0.00423697
-0.00421182
-0.00418658
-0.00416125
-0.00413582
-0.0041103
-0.00408469
-0.00405898
-0.00403318
-0.00400728
-0.00398129
-0.0039552
-0.00392902
-0.00390274
-0.00387636
-0.00384989
-0.00382332
-0.00379665
-0.00376989
-0.00374303
-0.00371606
-0.003689
-0.00366184
-0.00363458
-0.00360722
-0.00357976
-0.00355219
-0.00352453
-0.00349677
-0.0034689
-0.00344093
-0.00341286
-0.00338468
-0.0033564
-0.00332802
-0.00329953
-0.00327094
-0.00324224
-0.00321344
-0.00318453
-0.00315551
-0.00312639
-0.00309716
-0.00306783
-0.00303838
-0.00300883
-0.00297917
-0.0029494
)
;
    }
    procBoundary7to6
    {
        type            processor;
        value           uniform -0.00781971;
    }
    procBoundary7to8
    {
        type            processor;
        value           uniform -0.00490325;
    }
    procBoundary7to9
    {
        type            processor;
        value           nonuniform List<scalar> 
75
(
0.059275
-0.0374483
0.284763
-1.4216
-0.173245
0.0447534
0.0154754
-0.0058581
-0.0099633
-0.00887789
-0.00806106
-0.00790178
-0.00793257
-0.00795199
-0.00794604
-0.0079329
-0.0079202
-0.00790843
-0.00789688
-0.00788527
-0.00787359
-0.00786184
-0.00785006
-0.00783823
-0.00782636
-0.003634
-0.00360664
-0.00357917
-0.00355161
-0.00352394
-0.00349618
-0.00346831
-0.00344034
-0.00341226
-0.00338409
-0.0033558
-0.00332742
-0.00329893
-0.00327034
-0.00324164
-0.00321283
-0.00318392
-0.00315491
-0.00312578
-0.00309655
-0.00306721
-0.00303777
-0.00300821
-0.00297855
-0.00294878
-0.0029189
-0.00288891
-0.00285881
-0.00282859
-0.00279827
-0.00276784
-0.00273729
-0.00270663
-0.00267586
-0.00264497
-0.00261397
-0.00258286
-0.00255164
-0.00252029
-0.00248884
-0.00245726
-0.00242558
-0.00239377
-0.00236185
-0.00232981
-0.00229765
-0.00226538
-0.002233
-0.00220047
-0.00216769
)
;
    }
    procBoundary7to10
    {
        type            processor;
        value           nonuniform List<scalar> 
50
(
-0.00488174
-0.00485896
-0.0048361
-0.00481315
-0.00479012
-0.00476701
-0.00474381
-0.00472052
-0.00469715
-0.0046737
-0.00465016
-0.00462653
-0.00460281
-0.00457901
-0.00455512
-0.00453114
-0.00450708
-0.00448292
-0.00445868
-0.00443435
-0.00440992
-0.00438541
-0.00436081
-0.00433612
-0.00431134
-0.00428646
-0.0042615
-0.00423644
-0.00421129
-0.00418605
-0.00416071
-0.00413529
-0.00410977
-0.00408415
-0.00405844
-0.00403264
-0.00400674
-0.00398075
-0.00395466
-0.00392847
-0.00390219
-0.00387581
-0.00384934
-0.00382277
-0.0037961
-0.00376933
-0.00374246
-0.0037155
-0.00368843
-0.00366127
)
;
    }
}


// ************************************************************************* //
