/*--------------------------------*- C++ -*----------------------------------*\
| =========                 |                                                 |
| \\      /  F ield         | OpenFOAM: The Open Source CFD Toolbox           |
|  \\    /   O peration     | Version:  2.4.0                                 |
|   \\  /    A nd           | Web:      www.OpenFOAM.org                      |
|    \\/     M anipulation  |                                                 |
\*---------------------------------------------------------------------------*/
FoamFile
{
    version     2.0;
    format      ascii;
    class       surfaceScalarField;
    location    "0.011";
    object      phi;
}
// * * * * * * * * * * * * * * * * * * * * * * * * * * * * * * * * * * * * * //

dimensions      [0 3 -1 0 0 0 0];

internalField   nonuniform List<scalar> 
123
(
1.84834e-16
8.01722e-16
1.80966e-15
-4.34763e-09
-4.34763e-09
-4.34763e-09
-4.34762e-09
-4.34761e-09
-4.34761e-09
-4.3476e-09
-4.34759e-09
-4.34758e-09
-4.34757e-09
-4.34756e-09
-4.34754e-09
-4.34753e-09
-4.34751e-09
-4.3475e-09
-4.34748e-09
-4.34746e-09
-4.34744e-09
-4.34742e-09
-4.3474e-09
-4.34738e-09
-4.34397e-09
-4.34397e-09
-4.34397e-09
-4.34398e-09
-4.34398e-09
-4.34398e-09
-4.34399e-09
-4.34399e-09
-4.34399e-09
-4.34399e-09
-4.34399e-09
-4.344e-09
-4.344e-09
-4.344e-09
-4.344e-09
-4.344e-09
-4.344e-09
-4.34401e-09
-4.34401e-09
-4.34401e-09
-4.34401e-09
-4.34401e-09
-4.34401e-09
-4.34401e-09
-4.34401e-09
-4.34401e-09
-4.34401e-09
-4.34401e-09
-4.34401e-09
-4.34401e-09
-4.34401e-09
-4.34401e-09
-4.34401e-09
-4.34401e-09
-4.34401e-09
-4.344e-09
-4.344e-09
-4.344e-09
-4.344e-09
-4.344e-09
-4.34399e-09
-4.34399e-09
-4.34399e-09
-4.34399e-09
-4.34398e-09
-4.34398e-09
-4.34398e-09
-4.34397e-09
-4.34397e-09
-4.34396e-09
-4.34396e-09
-4.34395e-09
-4.34395e-09
-4.34394e-09
-4.34394e-09
-4.34393e-09
-4.34393e-09
-4.34392e-09
-4.34391e-09
-4.34391e-09
-4.3439e-09
-4.34389e-09
-4.34388e-09
-4.34387e-09
-4.34387e-09
-4.34386e-09
-4.34385e-09
-4.34384e-09
-4.34383e-09
-4.34382e-09
-4.34381e-09
-4.3438e-09
-4.34379e-09
-4.34378e-09
-4.34376e-09
-4.34375e-09
-4.34374e-09
-4.34373e-09
-4.34372e-09
-4.3437e-09
-4.34369e-09
-4.34368e-09
-4.34366e-09
-4.34365e-09
-4.34363e-09
-4.34362e-09
-4.34361e-09
-4.34359e-09
-4.34358e-09
-4.34356e-09
-4.34355e-09
-4.34353e-09
-4.34351e-09
-4.3435e-09
-4.34348e-09
-4.34347e-09
-4.34345e-09
-4.34343e-09
-4.34342e-09
)
;

boundaryField
{
    BotWall
    {
        type            calculated;
        value           uniform 0;
    }
    FreeStream
    {
        type            calculated;
        value           uniform -4.3434e-09;
    }
    FrontNBack
    {
        type            empty;
        value           nonuniform 0();
    }
    LeftSide
    {
        type            symmetryPlane;
        value           nonuniform 0();
    }
    RightSide
    {
        type            symmetryPlane;
        value           nonuniform 0();
    }
    procBoundary7to4
    {
        type            processor;
        value           nonuniform List<scalar> 
50
(
-2.64482e-17
-8.00802e-17
-1.33285e-16
-2.10275e-16
-2.24131e-16
-2.4239e-16
-2.86063e-16
-3.31532e-16
-3.75848e-16
-4.18283e-16
-4.59177e-16
-4.98597e-16
-5.36466e-16
-5.72687e-16
-6.07184e-16
-6.39895e-16
-6.70771e-16
-6.99771e-16
-7.26864e-16
-7.52028e-16
-7.75251e-16
-7.96529e-16
-8.15865e-16
-8.33271e-16
-8.48768e-16
-8.55669e-15
-8.8549e-15
-9.14763e-15
-9.43393e-15
-9.71287e-15
-9.98354e-15
-1.02451e-14
-1.04967e-14
-1.07377e-14
-1.09673e-14
-1.1185e-14
-1.13903e-14
-1.15829e-14
-1.17625e-14
-1.1929e-14
-1.20824e-14
-1.22228e-14
-1.23505e-14
-1.24659e-14
-1.25694e-14
-1.26616e-14
-1.27432e-14
-1.28149e-14
-1.28778e-14
-1.2927e-14
)
;
    }
    procBoundary7to5
    {
        type            processor;
        value           nonuniform List<scalar> 
75
(
4.57567e-15
4.51412e-15
4.45211e-15
4.38957e-15
4.32639e-15
4.26248e-15
4.19774e-15
4.13205e-15
4.06531e-15
3.9974e-15
3.92821e-15
3.8576e-15
3.78545e-15
3.71164e-15
3.63602e-15
3.55846e-15
3.47883e-15
3.39698e-15
3.31277e-15
3.22606e-15
3.13669e-15
3.04453e-15
2.94942e-15
2.85122e-15
2.74979e-15
2.64497e-15
2.53664e-15
2.42463e-15
2.30883e-15
2.18909e-15
2.06528e-15
1.93728e-15
1.80496e-15
1.6682e-15
1.52689e-15
1.38093e-15
1.23019e-15
1.07458e-15
9.14014e-16
7.48387e-16
5.77616e-16
4.01617e-16
2.2031e-16
3.36156e-17
-1.5839e-16
-3.55865e-16
-5.58904e-16
-7.67555e-16
-9.81857e-16
-1.20185e-15
-1.42756e-15
-1.659e-15
-1.89618e-15
-2.13909e-15
-2.38772e-15
-2.64203e-15
-2.90196e-15
-3.16741e-15
-3.43828e-15
-3.71443e-15
-3.99567e-15
-4.28179e-15
-4.57252e-15
-4.86754e-15
-5.16651e-15
-5.46901e-15
-5.77456e-15
-6.08264e-15
-6.39267e-15
-6.704e-15
-7.01593e-15
-7.32771e-15
-7.63854e-15
-7.94758e-15
-8.25393e-15
)
;
    }
    procBoundary7to6
    {
        type            processor;
        value           uniform -4.34736e-09;
    }
    procBoundary7to8
    {
        type            processor;
        value           uniform 4.34396e-09;
    }
    procBoundary7to9
    {
        type            processor;
        value           nonuniform List<scalar> 
75
(
-1.58385e-16
-5.36809e-16
-8.74653e-16
-1.72272e-15
-1.84759e-15
-2.80102e-15
-4.16806e-15
-5.47499e-15
-6.6979e-15
-7.85865e-15
-8.9712e-15
-1.00376e-14
-1.10575e-14
-1.20311e-14
-1.29592e-14
-1.38424e-14
-1.46816e-14
-1.54775e-14
-1.6231e-14
-1.69428e-14
-1.76138e-14
-1.82449e-14
-1.88369e-14
-1.93908e-14
-1.99074e-14
-3.19609e-15
-3.20886e-15
-3.22036e-15
-3.23061e-15
-3.23965e-15
-3.2475e-15
-3.25419e-15
-3.25975e-15
-3.26422e-15
-3.26765e-15
-3.27007e-15
-3.27154e-15
-3.2721e-15
-3.27181e-15
-3.27073e-15
-3.26893e-15
-3.26646e-15
-3.26341e-15
-3.25983e-15
-3.25581e-15
-3.25143e-15
-3.24677e-15
-3.24191e-15
-3.23694e-15
-3.23195e-15
-3.22702e-15
-3.22224e-15
-3.2177e-15
-3.21348e-15
-3.20967e-15
-3.20635e-15
-3.20359e-15
-3.20146e-15
-3.20002e-15
-3.19935e-15
-3.19947e-15
-3.20044e-15
-3.20229e-15
-3.20504e-15
-3.20871e-15
-3.2133e-15
-3.2188e-15
-3.2252e-15
-3.23248e-15
-3.24061e-15
-3.24953e-15
-3.25916e-15
-3.26941e-15
-3.28046e-15
-3.28792e-15
)
;
    }
    procBoundary7to10
    {
        type            processor;
        value           nonuniform List<scalar> 
50
(
-1.25182e-15
-1.30265e-15
-1.35354e-15
-1.40446e-15
-1.45538e-15
-1.50629e-15
-1.55714e-15
-1.60793e-15
-1.6586e-15
-1.70914e-15
-1.7595e-15
-1.80966e-15
-1.85957e-15
-1.90921e-15
-1.95854e-15
-2.00751e-15
-2.05608e-15
-2.10423e-15
-2.15189e-15
-2.19905e-15
-2.24564e-15
-2.29163e-15
-2.33697e-15
-2.38163e-15
-2.42555e-15
-2.4687e-15
-2.51103e-15
-2.55251e-15
-2.59309e-15
-2.63273e-15
-2.67138e-15
-2.70903e-15
-2.74562e-15
-2.78113e-15
-2.81551e-15
-2.84875e-15
-2.88081e-15
-2.91166e-15
-2.94129e-15
-2.96966e-15
-2.99677e-15
-3.02259e-15
-3.04712e-15
-3.07034e-15
-3.09225e-15
-3.11284e-15
-3.13211e-15
-3.15006e-15
-3.16671e-15
-3.18204e-15
)
;
    }
}


// ************************************************************************* //
