/*--------------------------------*- C++ -*----------------------------------*\
| =========                 |                                                 |
| \\      /  F ield         | OpenFOAM: The Open Source CFD Toolbox           |
|  \\    /   O peration     | Version:  2.4.0                                 |
|   \\  /    A nd           | Web:      www.OpenFOAM.org                      |
|    \\/     M anipulation  |                                                 |
\*---------------------------------------------------------------------------*/
FoamFile
{
    version     2.0;
    format      ascii;
    class       volVectorField;
    location    "0.011";
    object      U;
}
// * * * * * * * * * * * * * * * * * * * * * * * * * * * * * * * * * * * * * //

dimensions      [0 1 -1 0 0 0 0];

internalField   nonuniform List<vector> 
125
(
(-2.26718e-07 0.000103296 0)
(-7.21653e-07 -0.000292882 0)
(-1.22796e-06 0.00120431 0)
(-1.94977e-06 -0.00356529 0)
(-2.26237e-06 -0.0220467 0)
(-3.58093e-06 -0.0306753 0)
(-5.06438e-06 -0.0226796 0)
(-6.5024e-06 -0.0213215 0)
(-7.87181e-06 -0.0214564 0)
(-9.16857e-06 -0.0216974 0)
(-1.03979e-05 -0.0217557 0)
(-1.15626e-05 -0.0217486 0)
(-1.26642e-05 -0.0217394 0)
(-1.37039e-05 -0.0217371 0)
(-1.46831e-05 -0.0217373 0)
(-1.56031e-05 -0.0217376 0)
(-1.64656e-05 -0.0217376 0)
(-1.72718e-05 -0.0217375 0)
(-1.80233e-05 -0.0217374 0)
(-1.87216e-05 -0.0217373 0)
(-1.93681e-05 -0.0217373 0)
(-1.99644e-05 -0.0217372 0)
(-2.0512e-05 -0.0217371 0)
(-2.10124e-05 -0.021737 0)
(-2.14671e-05 -0.0217369 0)
(-3.30972e-06 -0.0217198 0)
(-3.26977e-06 -0.0217198 0)
(-3.22991e-06 -0.0217199 0)
(-3.1901e-06 -0.0217199 0)
(-3.15029e-06 -0.0217199 0)
(-3.11045e-06 -0.0217199 0)
(-3.07053e-06 -0.0217199 0)
(-3.03048e-06 -0.0217199 0)
(-2.99025e-06 -0.0217199 0)
(-2.94979e-06 -0.02172 0)
(-2.90905e-06 -0.02172 0)
(-2.86797e-06 -0.02172 0)
(-2.82651e-06 -0.02172 0)
(-2.78461e-06 -0.02172 0)
(-2.74222e-06 -0.02172 0)
(-2.69928e-06 -0.02172 0)
(-2.65573e-06 -0.02172 0)
(-2.61152e-06 -0.02172 0)
(-2.56659e-06 -0.02172 0)
(-2.52089e-06 -0.02172 0)
(-2.47436e-06 -0.02172 0)
(-2.42695e-06 -0.02172 0)
(-2.3786e-06 -0.0217201 0)
(-2.32926e-06 -0.0217201 0)
(-2.27889e-06 -0.0217201 0)
(-2.22742e-06 -0.0217201 0)
(-2.17481e-06 -0.0217201 0)
(-2.12101e-06 -0.0217201 0)
(-2.06598e-06 -0.0217201 0)
(-2.00968e-06 -0.0217201 0)
(-1.95206e-06 -0.0217201 0)
(-1.89309e-06 -0.02172 0)
(-1.83273e-06 -0.02172 0)
(-1.77095e-06 -0.02172 0)
(-1.70772e-06 -0.02172 0)
(-1.64301e-06 -0.02172 0)
(-1.5768e-06 -0.02172 0)
(-1.50906e-06 -0.02172 0)
(-1.43979e-06 -0.02172 0)
(-1.36895e-06 -0.02172 0)
(-1.29654e-06 -0.02172 0)
(-1.22254e-06 -0.02172 0)
(-1.14696e-06 -0.02172 0)
(-1.06977e-06 -0.0217199 0)
(-9.90987e-07 -0.0217199 0)
(-9.10599e-07 -0.0217199 0)
(-8.2861e-07 -0.0217199 0)
(-7.45024e-07 -0.0217199 0)
(-6.5985e-07 -0.0217198 0)
(-5.73095e-07 -0.0217198 0)
(-4.84776e-07 -0.0217198 0)
(-3.94909e-07 -0.0217198 0)
(-3.03517e-07 -0.0217198 0)
(-2.10625e-07 -0.0217197 0)
(-1.16269e-07 -0.0217197 0)
(-2.04853e-08 -0.0217197 0)
(7.66769e-08 -0.0217196 0)
(1.75162e-07 -0.0217196 0)
(2.74905e-07 -0.0217196 0)
(3.75828e-07 -0.0217195 0)
(4.77843e-07 -0.0217195 0)
(5.80849e-07 -0.0217195 0)
(6.84727e-07 -0.0217194 0)
(7.89347e-07 -0.0217194 0)
(8.94561e-07 -0.0217194 0)
(1.0002e-06 -0.0217193 0)
(1.10609e-06 -0.0217193 0)
(1.21202e-06 -0.0217192 0)
(1.31778e-06 -0.0217192 0)
(1.42313e-06 -0.0217191 0)
(1.52783e-06 -0.0217191 0)
(1.6316e-06 -0.021719 0)
(1.73416e-06 -0.021719 0)
(1.83523e-06 -0.0217189 0)
(1.9345e-06 -0.0217189 0)
(2.03167e-06 -0.0217188 0)
(2.12644e-06 -0.0217187 0)
(2.21849e-06 -0.0217187 0)
(2.30753e-06 -0.0217186 0)
(2.39326e-06 -0.0217185 0)
(2.47542e-06 -0.0217185 0)
(2.55373e-06 -0.0217184 0)
(2.62797e-06 -0.0217183 0)
(2.69793e-06 -0.0217183 0)
(2.76342e-06 -0.0217182 0)
(2.82431e-06 -0.0217181 0)
(2.88047e-06 -0.0217181 0)
(2.93185e-06 -0.021718 0)
(2.9784e-06 -0.0217179 0)
(3.02015e-06 -0.0217178 0)
(3.05714e-06 -0.0217178 0)
(3.08946e-06 -0.0217177 0)
(3.11725e-06 -0.0217176 0)
(3.14068e-06 -0.0217175 0)
(3.15994e-06 -0.0217175 0)
(3.17528e-06 -0.0217174 0)
(3.18695e-06 -0.0217173 0)
(3.19524e-06 -0.0217172 0)
(3.20047e-06 -0.0217171 0)
(3.20297e-06 -0.021717 0)
)
;

boundaryField
{
    BotWall
    {
        type            fixedValue;
        value           uniform (0 0 0);
    }
    FreeStream
    {
        type            zeroGradient;
    }
    FrontNBack
    {
        type            empty;
    }
    LeftSide
    {
        type            symmetryPlane;
    }
    RightSide
    {
        type            symmetryPlane;
    }
    procBoundary7to4
    {
        type            processor;
        value           nonuniform List<vector> 
50
(
(2.79903e-07 0.000103252 0)
(8.88574e-07 -0.000292738 0)
(1.50908e-06 0.00120359 0)
(2.39437e-06 -0.00356422 0)
(2.74391e-06 -0.0220473 0)
(4.09746e-06 -0.0306696 0)
(5.67203e-06 -0.0226775 0)
(7.20454e-06 -0.0213197 0)
(8.66541e-06 -0.0214546 0)
(1.00489e-05 -0.0216954 0)
(1.13611e-05 -0.0217538 0)
(1.2605e-05 -0.0217467 0)
(1.37819e-05 -0.0217375 0)
(1.48929e-05 -0.0217352 0)
(1.59393e-05 -0.0217354 0)
(1.69224e-05 -0.0217357 0)
(1.78435e-05 -0.0217357 0)
(1.87042e-05 -0.0217356 0)
(1.95058e-05 -0.0217355 0)
(2.02499e-05 -0.0217355 0)
(2.0938e-05 -0.0217354 0)
(2.15715e-05 -0.0217353 0)
(2.21521e-05 -0.0217352 0)
(2.26814e-05 -0.0217351 0)
(2.3161e-05 -0.021735 0)
(4.78353e-06 -0.0217223 0)
(4.90023e-06 -0.0217224 0)
(5.01367e-06 -0.0217224 0)
(5.12347e-06 -0.0217225 0)
(5.22924e-06 -0.0217225 0)
(5.33065e-06 -0.0217225 0)
(5.42734e-06 -0.0217226 0)
(5.51902e-06 -0.0217226 0)
(5.60542e-06 -0.0217227 0)
(5.6863e-06 -0.0217227 0)
(5.76148e-06 -0.0217228 0)
(5.8308e-06 -0.0217228 0)
(5.89418e-06 -0.0217229 0)
(5.95158e-06 -0.0217229 0)
(6.00301e-06 -0.021723 0)
(6.04853e-06 -0.021723 0)
(6.08826e-06 -0.0217231 0)
(6.12237e-06 -0.0217231 0)
(6.15108e-06 -0.0217232 0)
(6.17464e-06 -0.0217233 0)
(6.19337e-06 -0.0217233 0)
(6.20758e-06 -0.0217234 0)
(6.21767e-06 -0.0217234 0)
(6.22408e-06 -0.0217235 0)
(6.22725e-06 -0.0217235 0)
)
;
    }
    procBoundary7to5
    {
        type            processor;
        value           nonuniform List<vector> 
75
(
(-1.48003e-06 -0.0217233 0)
(-1.4381e-06 -0.0217232 0)
(-1.39615e-06 -0.0217232 0)
(-1.35413e-06 -0.0217232 0)
(-1.31198e-06 -0.0217231 0)
(-1.26966e-06 -0.0217231 0)
(-1.22711e-06 -0.021723 0)
(-1.18427e-06 -0.021723 0)
(-1.14109e-06 -0.021723 0)
(-1.09751e-06 -0.0217229 0)
(-1.05347e-06 -0.0217229 0)
(-1.0089e-06 -0.0217229 0)
(-9.63758e-07 -0.0217228 0)
(-9.17968e-07 -0.0217228 0)
(-8.71471e-07 -0.0217228 0)
(-8.24204e-07 -0.0217227 0)
(-7.76102e-07 -0.0217227 0)
(-7.27103e-07 -0.0217227 0)
(-6.77141e-07 -0.0217227 0)
(-6.26154e-07 -0.0217226 0)
(-5.74078e-07 -0.0217226 0)
(-5.20852e-07 -0.0217226 0)
(-4.66414e-07 -0.0217225 0)
(-4.10702e-07 -0.0217225 0)
(-3.53661e-07 -0.0217225 0)
(-2.95228e-07 -0.0217225 0)
(-2.35353e-07 -0.0217224 0)
(-1.73978e-07 -0.0217224 0)
(-1.11056e-07 -0.0217224 0)
(-4.65351e-08 -0.0217223 0)
(1.96299e-08 -0.0217223 0)
(8.74833e-08 -0.0217223 0)
(1.57066e-07 -0.0217223 0)
(2.28418e-07 -0.0217223 0)
(3.01574e-07 -0.0217222 0)
(3.76567e-07 -0.0217222 0)
(4.53427e-07 -0.0217222 0)
(5.32182e-07 -0.0217222 0)
(6.12857e-07 -0.0217222 0)
(6.95474e-07 -0.0217221 0)
(7.80052e-07 -0.0217221 0)
(8.66608e-07 -0.0217221 0)
(9.55157e-07 -0.0217221 0)
(1.04571e-06 -0.0217221 0)
(1.13828e-06 -0.0217221 0)
(1.23287e-06 -0.0217221 0)
(1.32949e-06 -0.021722 0)
(1.42813e-06 -0.021722 0)
(1.52881e-06 -0.021722 0)
(1.63151e-06 -0.021722 0)
(1.73622e-06 -0.021722 0)
(1.84294e-06 -0.021722 0)
(1.95164e-06 -0.021722 0)
(2.06231e-06 -0.021722 0)
(2.1749e-06 -0.021722 0)
(2.28939e-06 -0.021722 0)
(2.40572e-06 -0.021722 0)
(2.52383e-06 -0.021722 0)
(2.64365e-06 -0.021722 0)
(2.7651e-06 -0.021722 0)
(2.88807e-06 -0.021722 0)
(3.01243e-06 -0.021722 0)
(3.13806e-06 -0.021722 0)
(3.2648e-06 -0.0217221 0)
(3.39245e-06 -0.0217221 0)
(3.52083e-06 -0.0217221 0)
(3.6497e-06 -0.0217221 0)
(3.77882e-06 -0.0217221 0)
(3.90792e-06 -0.0217221 0)
(4.03669e-06 -0.0217222 0)
(4.16482e-06 -0.0217222 0)
(4.29197e-06 -0.0217222 0)
(4.4178e-06 -0.0217222 0)
(4.54192e-06 -0.0217223 0)
(4.66396e-06 -0.0217223 0)
)
;
    }
    procBoundary7to6
    {
        type            processor;
        value           uniform (-2.18778e-05 -0.0217368 0);
    }
    procBoundary7to8
    {
        type            processor;
        value           uniform (-3.34982e-06 -0.0217198 0);
    }
    procBoundary7to9
    {
        type            processor;
        value           nonuniform List<vector> 
75
(
(-1.46293e-07 0.000102542 0)
(-4.62251e-07 -0.000290466 0)
(-7.83519e-07 0.00119219 0)
(-1.23576e-06 -0.00354741 0)
(-1.47948e-06 -0.0220573 0)
(-2.66727e-06 -0.0305799 0)
(-3.93432e-06 -0.0226443 0)
(-5.15879e-06 -0.0212918 0)
(-6.32746e-06 -0.0214257 0)
(-7.43837e-06 -0.0216652 0)
(-8.49502e-06 -0.0217233 0)
(-9.49948e-06 -0.0217164 0)
(-1.0453e-05 -0.0217074 0)
(-1.13569e-05 -0.0217052 0)
(-1.22121e-05 -0.0217055 0)
(-1.30199e-05 -0.021706 0)
(-1.37817e-05 -0.0217061 0)
(-1.44985e-05 -0.0217062 0)
(-1.51715e-05 -0.0217063 0)
(-1.58021e-05 -0.0217063 0)
(-1.63914e-05 -0.0217064 0)
(-1.69406e-05 -0.0217065 0)
(-1.74509e-05 -0.0217066 0)
(-1.79235e-05 -0.0217067 0)
(-1.83597e-05 -0.0217068 0)
(-2.30781e-06 -0.0217198 0)
(-2.39857e-06 -0.0217198 0)
(-2.48972e-06 -0.0217198 0)
(-2.58126e-06 -0.0217198 0)
(-2.67319e-06 -0.0217199 0)
(-2.76551e-06 -0.0217199 0)
(-2.85821e-06 -0.0217199 0)
(-2.95128e-06 -0.0217199 0)
(-3.04468e-06 -0.0217199 0)
(-3.13839e-06 -0.0217199 0)
(-3.23236e-06 -0.02172 0)
(-3.32655e-06 -0.02172 0)
(-3.42088e-06 -0.02172 0)
(-3.51528e-06 -0.02172 0)
(-3.60967e-06 -0.02172 0)
(-3.70392e-06 -0.02172 0)
(-3.79792e-06 -0.0217201 0)
(-3.89154e-06 -0.0217201 0)
(-3.98462e-06 -0.0217201 0)
(-4.07698e-06 -0.0217201 0)
(-4.16846e-06 -0.0217201 0)
(-4.25884e-06 -0.0217201 0)
(-4.34792e-06 -0.0217202 0)
(-4.43549e-06 -0.0217202 0)
(-4.5213e-06 -0.0217202 0)
(-4.60513e-06 -0.0217202 0)
(-4.68674e-06 -0.0217202 0)
(-4.76589e-06 -0.0217202 0)
(-4.84233e-06 -0.0217203 0)
(-4.91586e-06 -0.0217203 0)
(-4.98624e-06 -0.0217203 0)
(-5.05327e-06 -0.0217203 0)
(-5.11677e-06 -0.0217203 0)
(-5.17657e-06 -0.0217203 0)
(-5.23253e-06 -0.0217204 0)
(-5.28454e-06 -0.0217204 0)
(-5.33251e-06 -0.0217204 0)
(-5.37638e-06 -0.0217204 0)
(-5.41615e-06 -0.0217204 0)
(-5.45181e-06 -0.0217204 0)
(-5.48343e-06 -0.0217204 0)
(-5.51108e-06 -0.0217205 0)
(-5.53486e-06 -0.0217205 0)
(-5.55494e-06 -0.0217205 0)
(-5.57147e-06 -0.0217205 0)
(-5.58466e-06 -0.0217205 0)
(-5.59472e-06 -0.0217205 0)
(-5.6019e-06 -0.0217206 0)
(-5.6065e-06 -0.0217206 0)
(-5.6088e-06 -0.0217206 0)
)
;
    }
    procBoundary7to10
    {
        type            processor;
        value           nonuniform List<vector> 
50
(
(1.99334e-06 -0.0217192 0)
(1.9051e-06 -0.0217192 0)
(1.81727e-06 -0.0217192 0)
(1.72983e-06 -0.0217192 0)
(1.64277e-06 -0.0217192 0)
(1.55605e-06 -0.0217192 0)
(1.46966e-06 -0.0217192 0)
(1.38359e-06 -0.0217193 0)
(1.2978e-06 -0.0217193 0)
(1.21228e-06 -0.0217193 0)
(1.12701e-06 -0.0217193 0)
(1.04196e-06 -0.0217193 0)
(9.57113e-07 -0.0217193 0)
(8.72446e-07 -0.0217193 0)
(7.87936e-07 -0.0217193 0)
(7.03562e-07 -0.0217193 0)
(6.19302e-07 -0.0217193 0)
(5.35132e-07 -0.0217193 0)
(4.51032e-07 -0.0217194 0)
(3.66979e-07 -0.0217194 0)
(2.82952e-07 -0.0217194 0)
(1.9893e-07 -0.0217194 0)
(1.14893e-07 -0.0217194 0)
(3.08201e-08 -0.0217194 0)
(-5.33072e-08 -0.0217194 0)
(-1.37508e-07 -0.0217194 0)
(-2.218e-07 -0.0217195 0)
(-3.06201e-07 -0.0217195 0)
(-3.90728e-07 -0.0217195 0)
(-4.75396e-07 -0.0217195 0)
(-5.60219e-07 -0.0217195 0)
(-6.45213e-07 -0.0217195 0)
(-7.30391e-07 -0.0217195 0)
(-8.15765e-07 -0.0217195 0)
(-9.01348e-07 -0.0217196 0)
(-9.87151e-07 -0.0217196 0)
(-1.07319e-06 -0.0217196 0)
(-1.15946e-06 -0.0217196 0)
(-1.24599e-06 -0.0217196 0)
(-1.33278e-06 -0.0217196 0)
(-1.41985e-06 -0.0217196 0)
(-1.5072e-06 -0.0217197 0)
(-1.59484e-06 -0.0217197 0)
(-1.68278e-06 -0.0217197 0)
(-1.77104e-06 -0.0217197 0)
(-1.85963e-06 -0.0217197 0)
(-1.94855e-06 -0.0217197 0)
(-2.03782e-06 -0.0217198 0)
(-2.12745e-06 -0.0217198 0)
(-2.21744e-06 -0.0217198 0)
)
;
    }
}


// ************************************************************************* //
