/*--------------------------------*- C++ -*----------------------------------*\
| =========                 |                                                 |
| \\      /  F ield         | OpenFOAM: The Open Source CFD Toolbox           |
|  \\    /   O peration     | Version:  2.4.0                                 |
|   \\  /    A nd           | Web:      www.OpenFOAM.org                      |
|    \\/     M anipulation  |                                                 |
\*---------------------------------------------------------------------------*/
FoamFile
{
    version     2.0;
    format      ascii;
    class       volScalarField;
    location    "5";
    object      H;
}
// * * * * * * * * * * * * * * * * * * * * * * * * * * * * * * * * * * * * * //

dimensions      [0 2 -2 0 0 0 0];

internalField   nonuniform List<scalar> 
125
(
-14.1006
-14.0318
-13.7891
-13.8746
-14.1448
-14.143
-14.0742
-13.8372
-13.9208
-14.1849
-14.1823
-14.1136
-13.8822
-13.9639
-14.2221
-14.2184
-14.1499
-13.924
-14.0038
-14.256
-14.2511
-14.1828
-13.9623
-14.0402
-14.2867
-14.2803
-14.2122
-13.9971
-14.0732
-14.3138
-14.3058
-14.238
-14.0281
-14.1024
-14.3373
-14.3275
-14.2599
-14.0553
-14.1278
-14.3571
-14.3452
-14.2779
-14.0784
-14.1491
-14.3728
-14.3586
-14.2918
-14.0973
-14.1663
-14.3845
-14.3678
-14.3014
-14.1119
-14.1791
-14.3919
-14.3725
-14.3066
-14.1219
-14.1874
-14.3948
-14.3725
-14.3071
-14.1272
-14.191
-14.3931
-14.3677
-14.3028
-14.1276
-14.1898
-14.3867
-14.3578
-14.2936
-14.123
-14.1835
-14.3752
-14.3428
-14.2792
-14.1132
-14.172
-14.3587
-14.3224
-14.2594
-14.098
-14.1552
-14.3368
-14.2965
-14.2342
-14.0772
-14.1328
-14.3095
-14.2649
-14.2033
-14.0506
-14.1047
-14.2765
-14.2274
-14.1666
-14.0181
-14.0706
-14.2376
-14.1839
-14.1238
-13.9795
-14.0305
-14.1928
-14.1341
-14.0748
-13.9347
-13.9841
-14.1417
-14.0778
-14.0194
-13.8834
-13.9313
-14.0843
-14.015
-13.9575
-13.8254
-13.8719
-14.0204
-13.9455
-13.8888
-13.7607
-13.8057
-13.9497
)
;

boundaryField
{
    BotWall
    {
        type            zeroGradient;
    }
    FreeStream
    {
        type            zeroGradient;
    }
    FrontNBack
    {
        type            empty;
    }
    LeftSide
    {
        type            symmetryPlane;
    }
    RightSide
    {
        type            symmetryPlane;
    }
    procBoundary1to0
    {
        type            processor;
        value           nonuniform List<scalar> 5(-18.8454 -18.7541 -18.4286 -18.5432 -18.9054);
    }
    procBoundary1to2
    {
        type            processor;
        value           nonuniform List<scalar> 5(-13.868 -13.8122 -13.6879 -13.7315 -13.8712);
    }
}


// ************************************************************************* //
