/*--------------------------------*- C++ -*----------------------------------*\
| =========                 |                                                 |
| \\      /  F ield         | OpenFOAM: The Open Source CFD Toolbox           |
|  \\    /   O peration     | Version:  2.4.0                                 |
|   \\  /    A nd           | Web:      www.OpenFOAM.org                      |
|    \\/     M anipulation  |                                                 |
\*---------------------------------------------------------------------------*/
FoamFile
{
    version     2.0;
    format      ascii;
    class       volScalarField;
    location    "5";
    object      p;
}
// * * * * * * * * * * * * * * * * * * * * * * * * * * * * * * * * * * * * * //

dimensions      [1 -1 -2 0 0 0 0];

internalField   nonuniform List<scalar> 
125
(
-0.018063
-0.0180615
-0.0180566
-0.0180583
-0.0180638
-0.0139262
-0.0139273
-0.0139306
-0.0139294
-0.0139256
-0.0153077
-0.0153078
-0.0153083
-0.0153081
-0.0153077
-0.0163581
-0.016358
-0.0163577
-0.0163578
-0.0163582
-0.0170869
-0.0170869
-0.0170867
-0.0170868
-0.017087
-0.017742
-0.017742
-0.0177419
-0.0177419
-0.017742
-0.018416
-0.018416
-0.0184159
-0.018416
-0.018416
-0.0191104
-0.0191104
-0.0191104
-0.0191104
-0.0191104
-0.0198156
-0.0198156
-0.0198156
-0.0198156
-0.0198156
-0.0205282
-0.0205282
-0.0205282
-0.0205282
-0.0205283
-0.0212483
-0.0212483
-0.0212482
-0.0212483
-0.0212483
-0.0219763
-0.0219763
-0.0219762
-0.0219762
-0.0219763
-0.0227124
-0.0227124
-0.0227123
-0.0227123
-0.0227124
-0.0234567
-0.0234567
-0.0234567
-0.0234567
-0.0234567
-0.0242094
-0.0242094
-0.0242093
-0.0242093
-0.0242094
-0.0249705
-0.0249704
-0.0249704
-0.0249704
-0.0249705
-0.02574
-0.02574
-0.0257399
-0.02574
-0.02574
-0.0265181
-0.0265181
-0.0265181
-0.0265181
-0.0265181
-0.027305
-0.0273049
-0.0273049
-0.0273049
-0.027305
-0.0281006
-0.0281005
-0.0281005
-0.0281005
-0.0281006
-0.028905
-0.028905
-0.028905
-0.028905
-0.028905
-0.0297185
-0.0297185
-0.0297184
-0.0297184
-0.0297185
-0.030541
-0.030541
-0.030541
-0.030541
-0.030541
-0.0313727
-0.0313727
-0.0313727
-0.0313727
-0.0313727
-0.0322137
-0.0322137
-0.0322137
-0.0322137
-0.0322137
)
;

boundaryField
{
    BotWall
    {
        type            calculated;
        value           nonuniform 0();
    }
    FreeStream
    {
        type            calculated;
        value           nonuniform 0();
    }
    FrontNBack
    {
        type            empty;
    }
    LeftSide
    {
        type            symmetryPlane;
    }
    RightSide
    {
        type            symmetryPlane;
    }
    procBoundary1to0
    {
        type            processor;
        value           nonuniform List<scalar> 5(-7.17699 -7.2065 -7.31412 -7.27581 -7.15751);
    }
    procBoundary1to2
    {
        type            processor;
        value           nonuniform List<scalar> 5(-0.0330641 -0.0330641 -0.033064 -0.0330641 -0.0330641);
    }
}


// ************************************************************************* //
