/*--------------------------------*- C++ -*----------------------------------*\
| =========                 |                                                 |
| \\      /  F ield         | OpenFOAM: The Open Source CFD Toolbox           |
|  \\    /   O peration     | Version:  2.4.0                                 |
|   \\  /    A nd           | Web:      www.OpenFOAM.org                      |
|    \\/     M anipulation  |                                                 |
\*---------------------------------------------------------------------------*/
FoamFile
{
    version     2.0;
    format      ascii;
    class       volScalarField;
    location    "5";
    object      p_rgh;
}
// * * * * * * * * * * * * * * * * * * * * * * * * * * * * * * * * * * * * * //

dimensions      [1 -1 -2 0 0 0 0];

internalField   nonuniform List<scalar> 
125
(
-0.00367177
-0.00367034
-0.00366537
-0.00366713
-0.0036726
0.00111652
0.00111548
0.00111214
0.00111332
0.0011171
0.00039381
0.000393725
0.000393277
0.000393437
0.000393881
9.6314e-06
9.7396e-06
1.00016e-05
9.91042e-06
9.57853e-06
-4.5599e-05
-4.55456e-05
-4.53714e-05
-4.54315e-05
-4.5636e-05
-1.95404e-05
-1.95233e-05
-1.94538e-05
-1.94769e-05
-1.95589e-05
-4.82183e-06
-4.80771e-06
-4.76321e-06
-4.77757e-06
-4.83575e-06
-2.82609e-06
-2.80845e-06
-2.76105e-06
-2.77647e-06
-2.84035e-06
-3.86239e-06
-3.84361e-06
-3.7931e-06
-3.80967e-06
-3.87701e-06
-4.4428e-06
-4.42446e-06
-4.37399e-06
-4.39058e-06
-4.45724e-06
-4.51608e-06
-4.49832e-06
-4.44899e-06
-4.46521e-06
-4.53015e-06
-4.47006e-06
-4.45271e-06
-4.40452e-06
-4.42036e-06
-4.48375e-06
-4.4426e-06
-4.42559e-06
-4.3784e-06
-4.39392e-06
-4.45595e-06
-4.43533e-06
-4.41866e-06
-4.37242e-06
-4.38763e-06
-4.44835e-06
-4.43273e-06
-4.41639e-06
-4.37111e-06
-4.386e-06
-4.44542e-06
-4.42933e-06
-4.41333e-06
-4.36899e-06
-4.38357e-06
-4.4417e-06
-4.42508e-06
-4.40943e-06
-4.36603e-06
-4.38029e-06
-4.43713e-06
-4.42061e-06
-4.40529e-06
-4.36282e-06
-4.37678e-06
-4.43234e-06
-4.41612e-06
-4.40114e-06
-4.3596e-06
-4.37324e-06
-4.42755e-06
-4.41164e-06
-4.39699e-06
-4.35637e-06
-4.36969e-06
-4.42275e-06
-4.40712e-06
-4.3928e-06
-4.35309e-06
-4.3661e-06
-4.41793e-06
-4.40254e-06
-4.38855e-06
-4.34975e-06
-4.36245e-06
-4.41303e-06
-4.39791e-06
-4.38424e-06
-4.34633e-06
-4.35872e-06
-4.40805e-06
-4.39323e-06
-4.37988e-06
-4.34286e-06
-4.35494e-06
-4.40305e-06
-4.38848e-06
-4.37545e-06
-4.33931e-06
-4.35108e-06
-4.39794e-06
)
;

boundaryField
{
    BotWall
    {
        type            fixedFluxPressure;
        gradient        nonuniform 0();
        value           nonuniform 0();
    }
    FreeStream
    {
        type            totalPressure;
        rho             rho;
        psi             none;
        gamma           1;
        p0              nonuniform 0();
        value           nonuniform 0();
    }
    FrontNBack
    {
        type            empty;
    }
    LeftSide
    {
        type            symmetryPlane;
    }
    RightSide
    {
        type            symmetryPlane;
    }
    procBoundary1to0
    {
        type            processor;
        value           nonuniform List<scalar> 5(-6.76197 -6.78938 -6.88941 -6.8538 -6.74387);
    }
    procBoundary1to2
    {
        type            processor;
        value           nonuniform List<scalar> 5(-4.38366e-06 -4.37095e-06 -4.33569e-06 -4.34715e-06 -4.39281e-06);
    }
}


// ************************************************************************* //
