/*--------------------------------*- C++ -*----------------------------------*\
| =========                 |                                                 |
| \\      /  F ield         | OpenFOAM: The Open Source CFD Toolbox           |
|  \\    /   O peration     | Version:  2.4.0                                 |
|   \\  /    A nd           | Web:      www.OpenFOAM.org                      |
|    \\/     M anipulation  |                                                 |
\*---------------------------------------------------------------------------*/
FoamFile
{
    version     2.0;
    format      ascii;
    class       surfaceScalarField;
    location    "5";
    object      phi;
}
// * * * * * * * * * * * * * * * * * * * * * * * * * * * * * * * * * * * * * //

dimensions      [0 3 -1 0 0 0 0];

internalField   nonuniform List<scalar> 
220
(
3.01409e-15
-1.89115e-10
3.72677e-15
-1.89122e-10
-1.45905e-15
-1.89159e-10
-4.60464e-15
-1.89146e-10
-1.89109e-10
2.98697e-15
-1.89118e-10
3.74726e-15
-1.89123e-10
-1.45804e-15
-1.89154e-10
-4.60356e-15
-1.89143e-10
-1.89114e-10
2.90002e-15
-1.89121e-10
3.57871e-15
-1.89124e-10
-1.39022e-15
-1.89149e-10
-4.3872e-15
-1.8914e-10
-1.89118e-10
2.80903e-15
-1.89124e-10
3.44329e-15
-1.89124e-10
-1.33183e-15
-1.89144e-10
-4.20545e-15
-1.89137e-10
-1.89122e-10
2.72023e-15
-1.89127e-10
3.32717e-15
-1.89125e-10
-1.27989e-15
-1.8914e-10
-4.04487e-15
-1.89134e-10
-1.89126e-10
2.63308e-15
-1.89129e-10
3.215e-15
-1.89126e-10
-1.22966e-15
-1.89135e-10
-3.88922e-15
-1.89132e-10
-1.8913e-10
2.5463e-15
-1.89132e-10
3.10264e-15
-1.89126e-10
-1.17957e-15
-1.89131e-10
-3.73407e-15
-1.89129e-10
-1.89134e-10
2.4598e-15
-1.89134e-10
2.99062e-15
-1.89127e-10
-1.12969e-15
-1.89127e-10
-3.58014e-15
-1.89127e-10
-1.89137e-10
2.37371e-15
-1.89137e-10
2.87966e-15
-1.89127e-10
-1.08029e-15
-1.89123e-10
-3.42823e-15
-1.89124e-10
-1.89141e-10
2.28813e-15
-1.89139e-10
2.77e-15
-1.89128e-10
-1.03146e-15
-1.89119e-10
-3.27857e-15
-1.89122e-10
-1.89144e-10
2.2031e-15
-1.89141e-10
2.66168e-15
-1.89128e-10
-9.83251e-16
-1.89116e-10
-3.13118e-15
-1.8912e-10
-1.89147e-10
2.11869e-15
-1.89143e-10
2.5547e-15
-1.89129e-10
-9.35667e-16
-1.89112e-10
-2.9861e-15
-1.89118e-10
-1.8915e-10
2.03493e-15
-1.89145e-10
2.44913e-15
-1.89129e-10
-8.88738e-16
-1.89109e-10
-2.8434e-15
-1.89116e-10
-1.89153e-10
1.9519e-15
-1.89147e-10
2.34501e-15
-1.89129e-10
-8.4249e-16
-1.89106e-10
-2.70313e-15
-1.89114e-10
-1.89156e-10
1.86964e-15
-1.89149e-10
2.24238e-15
-1.8913e-10
-7.96954e-16
-1.89103e-10
-2.56537e-15
-1.89112e-10
-1.89158e-10
1.78822e-15
-1.89151e-10
2.14131e-15
-1.8913e-10
-7.52157e-16
-1.891e-10
-2.43017e-15
-1.89111e-10
-1.89161e-10
1.70768e-15
-1.89153e-10
2.04184e-15
-1.89131e-10
-7.08125e-16
-1.89097e-10
-2.29759e-15
-1.89109e-10
-1.89163e-10
1.62809e-15
-1.89154e-10
1.94402e-15
-1.89131e-10
-6.64886e-16
-1.89094e-10
-2.16769e-15
-1.89108e-10
-1.89165e-10
1.5495e-15
-1.89156e-10
1.8479e-15
-1.89131e-10
-6.22466e-16
-1.89092e-10
-2.04053e-15
-1.89106e-10
-1.89167e-10
1.47195e-15
-1.89157e-10
1.75351e-15
-1.89131e-10
-5.80888e-16
-1.8909e-10
-1.91615e-15
-1.89105e-10
-1.89169e-10
1.39551e-15
-1.89159e-10
1.6609e-15
-1.89132e-10
-5.40178e-16
-1.89087e-10
-1.7946e-15
-1.89104e-10
-1.89171e-10
1.32024e-15
-1.8916e-10
1.57012e-15
-1.89132e-10
-5.00358e-16
-1.89085e-10
-1.67593e-15
-1.89102e-10
-1.89173e-10
1.24617e-15
-1.89161e-10
1.48121e-15
-1.89132e-10
-4.61451e-16
-1.89083e-10
-1.56019e-15
-1.89101e-10
-1.89174e-10
1.17336e-15
-1.89163e-10
1.3942e-15
-1.89132e-10
-4.23478e-16
-1.89081e-10
-1.44741e-15
-1.891e-10
-1.89176e-10
1.10187e-15
1.30914e-15
-3.86461e-16
-1.33764e-15
)
;

boundaryField
{
    BotWall
    {
        type            calculated;
        value           nonuniform 0();
    }
    FreeStream
    {
        type            calculated;
        value           nonuniform 0();
    }
    FrontNBack
    {
        type            empty;
        value           nonuniform 0();
    }
    LeftSide
    {
        type            symmetryPlane;
        value           uniform 0;
    }
    RightSide
    {
        type            symmetryPlane;
        value           uniform 0;
    }
    procBoundary1to0
    {
        type            processor;
        value           nonuniform List<scalar> 5(1.89112e-10 1.89122e-10 1.89165e-10 1.89149e-10 1.89104e-10);
    }
    procBoundary1to2
    {
        type            processor;
        value           nonuniform List<scalar> 5(-1.89164e-10 -1.89133e-10 -1.8908e-10 -1.89099e-10 -1.89177e-10);
    }
}


// ************************************************************************* //
