/*--------------------------------*- C++ -*----------------------------------*\
| =========                 |                                                 |
| \\      /  F ield         | OpenFOAM: The Open Source CFD Toolbox           |
|  \\    /   O peration     | Version:  2.4.0                                 |
|   \\  /    A nd           | Web:      www.OpenFOAM.org                      |
|    \\/     M anipulation  |                                                 |
\*---------------------------------------------------------------------------*/
FoamFile
{
    version     2.0;
    format      ascii;
    class       volVectorField;
    location    "5";
    object      U;
}
// * * * * * * * * * * * * * * * * * * * * * * * * * * * * * * * * * * * * * //

dimensions      [0 1 -1 0 0 0 0];

internalField   nonuniform List<vector> 
125
(
(2.87755e-07 -0.000706348 0)
(1.37699e-06 -0.000706132 0)
(6.81403e-07 -0.000705509 0)
(-1.48728e-06 -0.000705727 0)
(-1.05599e-06 -0.000706472 0)
(2.85779e-07 -0.00163179 0)
(1.35112e-06 -0.00163146 0)
(6.67153e-07 -0.00163037 0)
(-1.4554e-06 -0.00163075 0)
(-1.0323e-06 -0.00163198 0)
(2.75637e-07 -0.000977365 0)
(1.29217e-06 -0.000977468 0)
(6.36782e-07 -0.000977809 0)
(-1.38635e-06 -0.000977687 0)
(-9.80413e-07 -0.00097731 0)
(2.65798e-07 -0.00090902 0)
(1.23469e-06 -0.000909068 0)
(6.07131e-07 -0.000909317 0)
(-1.31915e-06 -0.000909227 0)
(-9.30132e-07 -0.000908984 0)
(2.56525e-07 -0.000925402 0)
(1.18038e-06 -0.0009254 0)
(5.79143e-07 -0.000925516 0)
(-1.25578e-06 -0.000925474 0)
(-8.82904e-07 -0.000925391 0)
(2.47459e-07 -0.000943742 0)
(1.12819e-06 -0.000943723 0)
(5.52368e-07 -0.000943777 0)
(-1.19504e-06 -0.000943756 0)
(-8.37782e-07 -0.000943744 0)
(2.38406e-07 -0.000947312 0)
(1.0773e-06 -0.000947286 0)
(5.26401e-07 -0.000947317 0)
(-1.13601e-06 -0.000947305 0)
(-7.94044e-07 -0.00094732 0)
(2.2938e-07 -0.000946474 0)
(1.02762e-06 -0.000946441 0)
(5.0117e-07 -0.000946453 0)
(-1.07856e-06 -0.000946447 0)
(-7.51597e-07 -0.000946487 0)
(2.20415e-07 -0.000945756 0)
(9.79199e-07 -0.000945713 0)
(4.76689e-07 -0.000945704 0)
(-1.02275e-06 -0.000945706 0)
(-7.10482e-07 -0.000945774 0)
(2.11529e-07 -0.00094562 0)
(9.32065e-07 -0.000945568 0)
(4.52964e-07 -0.000945537 0)
(-9.68603e-07 -0.000945547 0)
(-6.70708e-07 -0.000945644 0)
(2.02728e-07 -0.000945668 0)
(8.86215e-07 -0.000945607 0)
(4.29988e-07 -0.000945554 0)
(-9.16107e-07 -0.000945572 0)
(-6.32262e-07 -0.000945696 0)
(1.94018e-07 -0.000945709 0)
(8.41638e-07 -0.000945639 0)
(4.0775e-07 -0.000945566 0)
(-8.65244e-07 -0.000945591 0)
(-5.95121e-07 -0.000945741 0)
(1.85409e-07 -0.000945725 0)
(7.98326e-07 -0.000945647 0)
(3.86239e-07 -0.000945555 0)
(-8.15997e-07 -0.000945587 0)
(-5.59267e-07 -0.000945762 0)
(1.76908e-07 -0.000945733 0)
(7.5627e-07 -0.000945648 0)
(3.65445e-07 -0.000945537 0)
(-7.68349e-07 -0.000945576 0)
(-5.2468e-07 -0.000945774 0)
(1.68522e-07 -0.000945742 0)
(7.15462e-07 -0.000945648 0)
(3.45356e-07 -0.00094552 0)
(-7.22283e-07 -0.000945566 0)
(-4.91342e-07 -0.000945786 0)
(1.60259e-07 -0.000945751 0)
(6.75892e-07 -0.00094565 0)
(3.25962e-07 -0.000945505 0)
(-6.77782e-07 -0.000945557 0)
(-4.59233e-07 -0.000945798 0)
(1.52126e-07 -0.000945759 0)
(6.37551e-07 -0.000945652 0)
(3.07251e-07 -0.000945491 0)
(-6.34828e-07 -0.000945549 0)
(-4.28334e-07 -0.00094581 0)
(1.44131e-07 -0.000945768 0)
(6.00428e-07 -0.000945653 0)
(2.89213e-07 -0.000945478 0)
(-5.934e-07 -0.000945541 0)
(-3.98624e-07 -0.000945821 0)
(1.36279e-07 -0.000945776 0)
(5.64512e-07 -0.000945655 0)
(2.71837e-07 -0.000945465 0)
(-5.5348e-07 -0.000945534 0)
(-3.70083e-07 -0.000945832 0)
(1.28577e-07 -0.000945783 0)
(5.29793e-07 -0.000945656 0)
(2.5511e-07 -0.000945453 0)
(-5.15047e-07 -0.000945527 0)
(-3.4269e-07 -0.000945842 0)
(1.21031e-07 -0.00094579 0)
(4.96257e-07 -0.000945658 0)
(2.39021e-07 -0.000945442 0)
(-4.78081e-07 -0.000945521 0)
(-3.16424e-07 -0.000945851 0)
(1.13647e-07 -0.000945797 0)
(4.63894e-07 -0.000945659 0)
(2.23558e-07 -0.000945431 0)
(-4.4256e-07 -0.000945515 0)
(-2.91265e-07 -0.00094586 0)
(1.0643e-07 -0.000945804 0)
(4.32689e-07 -0.00094566 0)
(2.0871e-07 -0.000945421 0)
(-4.08462e-07 -0.000945509 0)
(-2.6719e-07 -0.000945868 0)
(9.93847e-08 -0.00094581 0)
(4.0263e-07 -0.000945661 0)
(1.94464e-07 -0.000945412 0)
(-3.75764e-07 -0.000945504 0)
(-2.44178e-07 -0.000945875 0)
(9.25167e-08 -0.000945815 0)
(3.73703e-07 -0.000945662 0)
(1.80809e-07 -0.000945403 0)
(-3.44444e-07 -0.000945499 0)
(-2.22208e-07 -0.000945882 0)
)
;

boundaryField
{
    BotWall
    {
        type            fixedValue;
        value           nonuniform 0();
    }
    FreeStream
    {
        type            zeroGradient;
    }
    FrontNBack
    {
        type            empty;
    }
    LeftSide
    {
        type            symmetryPlane;
    }
    RightSide
    {
        type            symmetryPlane;
    }
    procBoundary1to0
    {
        type            processor;
        value           nonuniform List<vector> 5((2.8388e-07 -0.000235801 0) (1.3584e-06 -0.000236232 0) (6.71907e-07 -0.00023787 0) (-1.46618e-06 -0.000237289 0) (-1.04011e-06 -0.000235522 0));
    }
    procBoundary1to2
    {
        type            processor;
        value           nonuniform List<vector> 5((8.583e-08 -0.000945821 0) (3.45893e-07 -0.000945663 0) (1.67733e-07 -0.000945395 0) (-3.14479e-07 -0.000945494 0) (-2.01257e-07 -0.000945889 0));
    }
}


// ************************************************************************* //
