/*--------------------------------*- C++ -*----------------------------------*\
| =========                 |                                                 |
| \\      /  F ield         | OpenFOAM: The Open Source CFD Toolbox           |
|  \\    /   O peration     | Version:  2.4.0                                 |
|   \\  /    A nd           | Web:      www.OpenFOAM.org                      |
|    \\/     M anipulation  |                                                 |
\*---------------------------------------------------------------------------*/
FoamFile
{
    version     2.0;
    format      ascii;
    class       volScalarField;
    location    "0.012";
    object      p_rgh;
}
// * * * * * * * * * * * * * * * * * * * * * * * * * * * * * * * * * * * * * //

dimensions      [1 -1 -2 0 0 0 0];

internalField   nonuniform List<scalar> 
125
(
-0.00676892
-0.00675601
-0.00674305
-0.00673004
-0.00671698
-0.00670387
-0.00669072
-0.00667751
-0.00666426
-0.00665096
-0.00663761
-0.00662421
-0.00661077
-0.00659727
-0.00658372
-0.00657013
-0.00655648
-0.00654279
-0.00652904
-0.00651524
-0.00650139
-0.0064875
-0.00647355
-0.00645955
-0.00644549
-0.00643139
-0.00641723
-0.00640303
-0.00638877
-0.00637445
-0.00636009
-0.00634567
-0.0063312
-0.00631668
-0.0063021
-0.00628747
-0.00627279
-0.00625805
-0.00624325
-0.00622841
-0.00621351
-0.00619855
-0.00618354
-0.00616847
-0.00615335
-0.00613817
-0.00612294
-0.00610765
-0.0060923
-0.0060769
-0.00606144
-0.00604593
-0.00603036
-0.00601473
-0.00599904
-0.00598329
-0.00596749
-0.00595163
-0.00593571
-0.00591973
-0.0059037
-0.0058876
-0.00587145
-0.00585523
-0.00583896
-0.00582263
-0.00580623
-0.00578978
-0.00577327
-0.00575669
-0.00574005
-0.00572336
-0.0057066
-0.00568978
-0.0056729
-0.00565595
-0.00563895
-0.00562188
-0.00560475
-0.00558755
-0.00557029
-0.00555297
-0.00553559
-0.00551814
-0.00550063
-0.00548305
-0.00546541
-0.0054477
-0.00542993
-0.00541209
-0.00539419
-0.00537622
-0.00535818
-0.00534008
-0.00532191
-0.00530368
-0.00528538
-0.00526701
-0.00524857
-0.00523007
-0.00521149
-0.00519285
-0.00517414
-0.00515537
-0.00513652
-0.0051176
-0.00509862
-0.00507956
-0.00506043
-0.00504124
-0.00502197
-0.00500263
-0.00498322
-0.00496374
-0.00494419
-0.00492457
-0.00490487
-0.0048851
-0.00486526
-0.00484535
-0.00482536
-0.0048053
-0.00478516
-0.00476495
-0.00474467
)
;

boundaryField
{
    BotWall
    {
        type            fixedFluxPressure;
        gradient        nonuniform 0();
        value           nonuniform 0();
    }
    FreeStream
    {
        type            totalPressure;
        rho             rho;
        psi             none;
        gamma           1;
        p0              nonuniform 0();
        value           nonuniform 0();
    }
    FrontNBack
    {
        type            empty;
    }
    LeftSide
    {
        type            symmetryPlane;
    }
    RightSide
    {
        type            symmetryPlane;
    }
    procBoundary8to5
    {
        type            processor;
        value           nonuniform List<scalar> 
50
(
-0.00565804
-0.00564103
-0.00562394
-0.0056068
-0.0055896
-0.00557233
-0.005555
-0.0055376
-0.00552014
-0.00550262
-0.00548503
-0.00546738
-0.00544966
-0.00543188
-0.00541403
-0.00539612
-0.00537814
-0.0053601
-0.00534199
-0.00532381
-0.00530557
-0.00528726
-0.00526888
-0.00525044
-0.00523192
-0.00521334
-0.00519469
-0.00517598
-0.00515719
-0.00513833
-0.00511941
-0.00510042
-0.00508135
-0.00506222
-0.00504302
-0.00502374
-0.0050044
-0.00498498
-0.00496549
-0.00494594
-0.0049263
-0.0049066
-0.00488683
-0.00486698
-0.00484706
-0.00482707
-0.004807
-0.00478686
-0.00476664
-0.00474635
)
;
    }
    procBoundary8to6
    {
        type            processor;
        value           nonuniform List<scalar> 
75
(
-0.00677182
-0.00675889
-0.00674591
-0.00673289
-0.00671981
-0.00670669
-0.00669352
-0.00668031
-0.00666704
-0.00665373
-0.00664037
-0.00662695
-0.00661349
-0.00659998
-0.00658642
-0.00657282
-0.00655916
-0.00654545
-0.00653169
-0.00651788
-0.00650402
-0.00649011
-0.00647615
-0.00646214
-0.00644807
-0.00643396
-0.00641979
-0.00640557
-0.0063913
-0.00637697
-0.0063626
-0.00634817
-0.00633369
-0.00631915
-0.00630456
-0.00628992
-0.00627523
-0.00626048
-0.00624568
-0.00623082
-0.00621591
-0.00620094
-0.00618592
-0.00617084
-0.00615571
-0.00614052
-0.00612528
-0.00610998
-0.00609463
-0.00607921
-0.00606375
-0.00604822
-0.00603264
-0.006017
-0.00600131
-0.00598555
-0.00596974
-0.00595387
-0.00593794
-0.00592196
-0.00590591
-0.00588981
-0.00587365
-0.00585743
-0.00584115
-0.0058248
-0.0058084
-0.00579194
-0.00577542
-0.00575884
-0.0057422
-0.00572549
-0.00570872
-0.00569189
-0.005675
)
;
    }
    procBoundary8to7
    {
        type            processor;
        value           uniform -0.00472431;
    }
    procBoundary8to9
    {
        type            processor;
        value           uniform -0.00678179;
    }
    procBoundary8to10
    {
        type            processor;
        value           nonuniform List<scalar> 
75
(
-0.00606326
-0.00604774
-0.00603216
-0.00601652
-0.00600082
-0.00598506
-0.00596925
-0.00595338
-0.00593745
-0.00592146
-0.00590541
-0.00588931
-0.00587314
-0.00585692
-0.00584063
-0.00582429
-0.00580789
-0.00579142
-0.0057749
-0.00575831
-0.00574167
-0.00572496
-0.00570819
-0.00569136
-0.00567447
-0.00565752
-0.0056405
-0.00562343
-0.00560628
-0.00558908
-0.00557181
-0.00555448
-0.00553709
-0.00551963
-0.00550211
-0.00548452
-0.00546687
-0.00544916
-0.00543138
-0.00541353
-0.00539562
-0.00537764
-0.0053596
-0.00534149
-0.00532331
-0.00530507
-0.00528676
-0.00526838
-0.00524994
-0.00523143
-0.00521285
-0.0051942
-0.00517548
-0.0051567
-0.00513784
-0.00511892
-0.00509992
-0.00508086
-0.00506173
-0.00504252
-0.00502325
-0.00500391
-0.00498449
-0.004965
-0.00494544
-0.00492581
-0.00490611
-0.00488634
-0.00486649
-0.00484657
-0.00482657
-0.00480651
-0.00478637
-0.00476615
-0.00474586
)
;
    }
    procBoundary8to11
    {
        type            processor;
        value           nonuniform List<scalar> 
50
(
-0.00677025
-0.00675734
-0.00674439
-0.00673139
-0.00671834
-0.00670525
-0.00669211
-0.00667892
-0.00666567
-0.00665239
-0.00663905
-0.00662566
-0.00661223
-0.00659874
-0.0065852
-0.00657162
-0.00655798
-0.0065443
-0.00653056
-0.00651678
-0.00650294
-0.00648905
-0.00647511
-0.00646112
-0.00644708
-0.00643299
-0.00641884
-0.00640465
-0.0063904
-0.0063761
-0.00636174
-0.00634733
-0.00633287
-0.00631836
-0.00630379
-0.00628917
-0.0062745
-0.00625977
-0.00624499
-0.00623015
-0.00621526
-0.00620031
-0.00618531
-0.00617025
-0.00615514
-0.00613998
-0.00612475
-0.00610947
-0.00609413
-0.00607873
)
;
    }
}


// ************************************************************************* //
