/*--------------------------------*- C++ -*----------------------------------*\
| =========                 |                                                 |
| \\      /  F ield         | OpenFOAM: The Open Source CFD Toolbox           |
|  \\    /   O peration     | Version:  2.4.0                                 |
|   \\  /    A nd           | Web:      www.OpenFOAM.org                      |
|    \\/     M anipulation  |                                                 |
\*---------------------------------------------------------------------------*/
FoamFile
{
    version     2.0;
    format      ascii;
    class       volScalarField;
    location    "3.3";
    object      alpha1;
}
// * * * * * * * * * * * * * * * * * * * * * * * * * * * * * * * * * * * * * //

dimensions      [0 0 0 0 0 0 0];

internalField   nonuniform List<scalar> 
8000
(
1
1
1
1
0.999999
0.999999
1
1.00001
1.00001
1.00001
1.00001
1.00001
1.00001
1.00001
0.999999
0.999995
0.999994
0.999993
0.999993
0.999994
0.999997
1
1
0.999996
0.999997
1
0.999995
0.999995
0.999988
0.99999
0.99998
0.999999
0.991024
0.974926
0.948735
0.899671
0.814543
0.673851
0.466528
0.235293
0.0779102
0.0201466
0.00643897
0.00253543
0.00118253
0.000550358
0.000249411
0.00011388
5.42492e-05
2.74292e-05
1
1
1
0.999999
0.999998
0.999999
1.00001
1.00001
1.00001
1.00001
1.00001
1.00001
1.00001
1
0.999995
0.999995
0.999995
0.999996
0.999997
0.999998
0.999998
0.999999
0.999999
0.999999
0.999999
0.999999
0.999999
1
1
1
1
1
1
1
1
0.999374
0.980478
0.947231
0.857038
0.651701
0.333778
0.0977591
0.0245298
0.00960323
0.0048869
0.00252621
0.00125852
0.000617484
0.000307021
0.000159054
1
1
1
0.999999
0.999997
0.999999
1.00001
1.00001
1.00001
1.00001
1.00001
1
1
0.999998
0.999996
0.999996
0.999997
0.999998
0.999997
0.999999
0.999998
0.999997
0.999998
0.999998
0.999998
0.999999
0.999999
0.999999
0.999999
0.999999
1
1
1
1
1
1
1
0.999999
0.990637
0.931014
0.665733
0.220474
0.0454605
0.0166416
0.00862147
0.00454861
0.00230964
0.00115167
0.000577717
0.000299129
1
1
1
0.999998
0.999996
0.999998
1.00001
1.00001
1.00001
1.00001
1
0.999999
0.999998
0.999998
0.999998
0.999997
0.999997
0.999998
0.999997
0.999996
0.999997
0.999997
0.999997
0.999997
0.999998
0.999998
0.999998
0.999998
0.999999
0.999999
0.999999
0.999999
0.999999
0.999999
0.999999
0.999999
0.999999
0.999999
0.999986
0.971582
0.73901
0.261999
0.0509948
0.0180431
0.00923776
0.00482459
0.00242986
0.00120351
0.000599686
0.000308088
1
1
1
0.999998
0.999996
0.999995
0.999998
1
1
1
0.999998
0.999998
0.999997
0.999997
0.999998
0.999996
0.999996
0.999996
0.999996
0.999996
0.999996
0.999996
0.999996
0.999997
0.999997
0.999997
0.999998
0.999998
0.999998
0.999999
0.999999
0.999999
0.999999
0.999999
0.999999
0.999998
0.999998
0.999906
0.948894
0.753951
0.400003
0.103018
0.0227445
0.00864327
0.00409246
0.00195911
0.000922209
0.000433769
0.000208504
0.000104302
1
1
0.999999
0.999998
0.999996
0.999995
0.999995
0.999998
1
0.999999
0.999997
0.999997
0.999997
0.999996
0.999995
0.999996
0.999996
0.999996
0.999996
0.999995
0.999995
0.999995
0.999996
0.999996
0.999996
0.999997
0.999997
0.999997
0.999998
0.999998
0.999998
0.999999
0.999999
0.999998
0.999998
0.999941
0.980569
0.832212
0.576376
0.284564
0.0967187
0.0271405
0.00779875
0.0026495
0.0010369
0.00042765
0.000177029
7.47682e-05
3.40387e-05
1.55915e-05
1
1
0.999999
0.999998
0.999997
0.999996
0.999995
0.999996
0.999998
0.999998
0.999997
0.999996
0.999996
0.999995
0.999995
0.999995
0.999995
0.999995
0.999995
0.999995
0.999995
0.999995
0.999995
0.999995
0.999996
0.999996
0.999997
0.999997
0.999997
0.999998
0.999998
0.999998
0.999999
0.999966
0.997708
0.86028
0.601974
0.337275
0.148856
0.0532228
0.017231
0.00559039
0.00171552
0.000483804
0.000147349
4.85447e-05
1.58238e-05
7.02566e-06
4.44402e-06
3.53823e-06
1
1
0.999999
0.999998
0.999998
0.999998
0.999996
0.999996
0.999997
0.999998
0.999996
0.999996
0.999995
0.999995
0.999994
0.999994
0.999995
0.999995
0.999995
0.999995
0.999995
0.999995
0.999995
0.999995
0.999996
0.999996
0.999997
0.999997
0.999997
0.999997
0.999998
0.999983
0.999659
0.889994
0.601613
0.310898
0.127267
0.046638
0.0161693
0.00511027
0.00151537
0.000388343
6.96571e-05
1.03604e-05
3.67715e-06
2.31637e-06
1.98686e-06
1.94648e-06
1.76961e-06
1.64744e-06
1
1
0.999999
0.999998
0.999998
0.999998
0.999996
0.999996
0.999996
0.999998
0.999996
0.999995
0.999994
0.999994
0.999994
0.999994
0.999994
0.999994
0.999994
0.999994
0.999995
0.999995
0.999995
0.999995
0.999996
0.999996
0.999997
0.999997
0.999997
0.999995
0.999719
0.919733
0.6065
0.284911
0.0984105
0.0309975
0.00788537
0.00217091
0.000663637
0.000145978
2.10757e-05
4.8752e-06
2.45333e-06
1.89263e-06
1.55173e-06
1.38032e-06
1.27031e-06
1.37136e-06
1.19747e-06
1.27986e-06
1
1
0.999999
0.999997
0.999997
0.999998
0.999997
0.999996
0.999996
0.999997
0.999996
0.999995
0.999994
0.999994
0.999994
0.999994
0.999994
0.999994
0.999994
0.999995
0.999995
0.999995
0.999995
0.999995
0.999996
0.999997
0.999997
0.999995
0.9998
0.953492
0.626611
0.264887
0.074448
0.0155135
0.00230205
0.00070276
0.0002422
4.17799e-05
5.44128e-06
2.43068e-06
1.91367e-06
1.68618e-06
1.49214e-06
1.57909e-06
1.23856e-06
1.14322e-06
9.60054e-07
1.24275e-06
1.0862e-06
1.24045e-06
1
1
0.999999
0.999997
0.999997
0.999997
0.999997
0.999996
0.999995
0.999996
0.999996
0.999995
0.999994
0.999994
0.999994
0.999994
0.999994
0.999995
0.999995
0.999995
0.999995
0.999995
0.999995
0.999996
0.999996
0.999997
0.999879
0.989548
0.670547
0.250764
0.0511333
0.00583088
0.000843324
0.000285627
7.51515e-05
9.7968e-06
2.76421e-06
1.75081e-06
1.72369e-06
1.4001e-06
1.69917e-06
1.22997e-06
1.00018e-06
1.60267e-06
1.16594e-06
9.8421e-07
7.5312e-07
1.04082e-06
9.10375e-07
1.25204e-06
1
1
0.999999
0.999996
0.999996
0.999996
0.999998
0.999996
0.999995
0.999996
0.999996
0.999995
0.999995
0.999995
0.999994
0.999995
0.999995
0.999995
0.999995
0.999995
0.999996
0.999996
0.999996
0.999996
0.999967
0.999114
0.742435
0.241643
0.0330093
0.00242151
0.000409105
0.000116874
2.11847e-05
4.24849e-06
2.33428e-06
1.85642e-06
1.61919e-06
1.46023e-06
1.88073e-06
8.99213e-07
2.10228e-06
9.95436e-07
6.55585e-07
1.74028e-06
8.04349e-07
7.08523e-07
3.79535e-07
1.11339e-06
5.16364e-07
3.69804e-07
1
1
0.999999
0.999996
0.999995
0.999995
0.999998
0.999997
0.999995
0.999996
0.999996
0.999996
0.999996
0.999995
0.999995
0.999995
0.999996
0.999996
0.999996
0.999996
0.999996
0.999996
0.999996
0.999529
0.860787
0.310341
0.0318798
0.00170183
0.000271097
6.52228e-05
1.00795e-05
3.6261e-06
2.17557e-06
2.63764e-06
1.7142e-06
1.48887e-06
1.30747e-06
1.15983e-06
1.34771e-06
8.18789e-07
7.48537e-07
7.40116e-07
6.48457e-07
4.34322e-07
4.58756e-07
4.23043e-07
3.71504e-07
2.25829e-07
2.12231e-07
1.96415e-07
1
1
0.999998
0.999995
0.999993
0.999995
0.999999
0.999998
0.999996
0.999997
0.999997
0.999997
0.999996
0.999996
0.999996
0.999996
0.999996
0.999996
0.999996
0.999996
0.999996
0.999892
0.982069
0.450909
0.0424968
0.00182608
0.000227311
4.68066e-05
6.74728e-06
2.75034e-06
2.28846e-06
1.88266e-06
1.3461e-06
2.26392e-06
1.21869e-06
9.73294e-07
8.36002e-07
7.20727e-07
5.60335e-07
2.74208e-07
8.16892e-07
3.7987e-07
2.92805e-07
2.83144e-07
2.60255e-07
2.14769e-07
1.70949e-07
1.38164e-07
1.1467e-07
9.70227e-08
1
1
0.999998
0.999995
0.999992
0.999995
1
0.999998
0.999996
0.999997
0.999997
0.999997
0.999997
0.999997
0.999997
0.999997
0.999996
0.999996
0.999996
0.999996
0.999348
0.715527
0.0869392
0.00273967
0.000188571
2.87913e-05
5.59474e-06
2.32255e-06
1.63471e-06
1.44273e-06
1.23104e-06
1.01694e-06
7.90036e-07
4.95452e-07
4.71066e-07
4.33275e-07
3.73107e-07
3.12747e-07
2.60618e-07
2.17295e-07
1.11066e-07
1.01854e-07
9.18977e-08
7.64581e-08
6.13732e-08
5.03879e-08
4.28355e-08
3.71057e-08
3.22566e-08
2.79537e-08
1
1
0.999998
0.999994
0.999992
0.999995
1
0.999999
0.999997
0.999998
0.999998
0.999998
0.999998
0.999998
0.999997
0.999997
0.999996
0.999996
0.999992
0.997771
0.32823
0.0089194
0.00025909
1.8649e-05
3.85459e-06
2.33864e-06
1.65793e-06
1.0131e-06
7.82661e-07
6.12454e-07
4.89054e-07
3.9041e-07
3.10624e-07
2.41285e-07
1.85242e-07
1.43138e-07
1.12425e-07
8.97864e-08
7.2561e-08
5.90077e-08
4.80815e-08
3.91602e-08
3.18469e-08
2.58603e-08
2.0979e-08
1.7016e-08
1.381e-08
1.12221e-08
9.13451e-09
7.44952e-09
1
1
0.999997
0.999993
0.999992
0.999996
1
0.999999
0.999998
0.999998
0.999998
0.999998
0.999998
0.999998
0.999997
0.999997
0.999996
0.999975
0.91343
0.124643
0.00116886
3.14102e-05
3.23728e-06
1.50305e-06
1.16366e-06
9.04103e-07
5.24019e-07
3.42265e-07
2.47418e-07
1.83112e-07
1.36977e-07
1.03165e-07
7.80974e-08
5.93418e-08
4.5199e-08
3.44747e-08
2.63189e-08
2.01127e-08
1.53939e-08
1.18102e-08
9.09e-09
7.02415e-09
5.45216e-09
4.25201e-09
3.33172e-09
2.62246e-09
2.07293e-09
1.64497e-09
1.31015e-09
1.04722e-09
1
1
0.999997
0.999993
0.999993
0.999997
1
0.999999
0.999999
0.999999
0.999999
0.999998
0.999998
0.999998
0.999997
0.999996
0.999982
0.875317
0.0621753
0.000262151
4.37165e-06
1.37695e-06
7.43524e-07
4.73473e-07
3.23101e-07
2.08352e-07
1.13929e-07
7.4078e-08
5.03221e-08
3.49062e-08
2.4512e-08
1.73724e-08
1.24087e-08
8.9251e-09
6.46044e-09
4.70412e-09
3.44425e-09
2.53495e-09
1.8749e-09
1.39326e-09
1.0401e-09
7.80042e-10
5.87816e-10
4.45276e-10
3.39311e-10
2.60395e-10
2.01574e-10
1.57753e-10
1.25184e-10
1.01111e-10
1
0.999999
0.999997
0.999995
0.999995
0.999998
0.999999
0.999999
0.999999
0.999999
0.999999
0.999999
0.999998
0.999998
0.999997
0.999997
0.987513
0.100721
0.000173899
2.82273e-06
9.1013e-07
3.95437e-07
2.03343e-07
1.13992e-07
6.56262e-08
3.37977e-08
1.82226e-08
1.11331e-08
7.06609e-09
4.57183e-09
3.00056e-09
1.99284e-09
1.33757e-09
9.06596e-10
6.20283e-10
4.28351e-10
2.98618e-10
2.10256e-10
1.49655e-10
1.07838e-10
7.88402e-11
5.86645e-11
4.46172e-11
3.4871e-11
2.81811e-11
2.36971e-11
2.0838e-11
1.92077e-11
1.85403e-11
1.86637e-11
1
0.999999
0.999997
0.999996
0.999997
0.999999
0.999999
0.999999
0.999999
0.999999
0.999999
0.999999
0.999998
0.999998
0.999997
0.999823
0.494987
0.00103656
2.84064e-06
8.44797e-07
2.98029e-07
1.24552e-07
5.5912e-08
2.60338e-08
1.1816e-08
5.2356e-09
2.68323e-09
1.46714e-09
8.35423e-10
4.90009e-10
2.9443e-10
1.80783e-10
1.13363e-10
7.26636e-11
4.77192e-11
3.22284e-11
2.25035e-11
1.63525e-11
1.24554e-11
1.0008e-11
8.51606e-12
7.67401e-12
7.29319e-12
7.25888e-12
7.50391e-12
7.99269e-12
8.71155e-12
9.66203e-12
1.08603e-11
1.23353e-11
1.44594e-05
7.8193e-06
4.25522e-06
3.60663e-06
3.42907e-06
2.64899e-06
1.80452e-06
1.13189e-06
7.61211e-07
5.48432e-07
4.166e-07
3.28729e-07
2.67296e-07
2.22713e-07
1.89269e-07
1.6339e-07
1.42768e-07
1.25888e-07
1.11742e-07
9.9649e-08
8.91471e-08
7.9916e-08
7.17299e-08
6.4426e-08
5.7884e-08
5.20115e-08
4.67363e-08
4.19999e-08
3.77536e-08
3.39568e-08
3.05751e-08
2.75797e-08
2.49471e-08
2.26598e-08
2.07071e-08
1.90862e-08
1.78038e-08
1.68783e-08
1.63408e-08
1.62361e-08
1.66218e-08
1.75658e-08
1.91408e-08
2.14172e-08
2.44542e-08
2.82918e-08
3.29462e-08
3.84126e-08
4.4681e-08
5.17725e-08
8.73453e-05
5.03561e-05
2.92e-05
1.58024e-05
6.70314e-06
5.37379e-06
3.6514e-06
2.11619e-06
1.32451e-06
8.97077e-07
6.4882e-07
4.91821e-07
3.87005e-07
3.14129e-07
2.61651e-07
2.22591e-07
1.92568e-07
1.68767e-07
1.4935e-07
1.33101e-07
1.1921e-07
1.07128e-07
9.64793e-08
8.69996e-08
7.8501e-08
7.08454e-08
6.39278e-08
5.76663e-08
5.19946e-08
4.68578e-08
4.22089e-08
3.80072e-08
3.42164e-08
3.08044e-08
2.77423e-08
2.50041e-08
2.25669e-08
2.04106e-08
1.85182e-08
1.68761e-08
1.54749e-08
1.43098e-08
1.33815e-08
1.26969e-08
1.22698e-08
1.21209e-08
1.22775e-08
1.27724e-08
1.36422e-08
1.4927e-08
0.000163937
9.6069e-05
5.91222e-05
3.42578e-05
1.61678e-05
9.42979e-06
6.24051e-06
3.37928e-06
2.00858e-06
1.29693e-06
9.02615e-07
6.62991e-07
5.08469e-07
4.0437e-07
3.3158e-07
2.78883e-07
2.39413e-07
2.08847e-07
1.84408e-07
1.64291e-07
1.47304e-07
1.32657e-07
1.19813e-07
1.08407e-07
9.81822e-08
8.89568e-08
8.05957e-08
7.29976e-08
6.60811e-08
5.97818e-08
5.40446e-08
4.88223e-08
4.4073e-08
3.97592e-08
3.58466e-08
3.23043e-08
2.91031e-08
2.62167e-08
2.36206e-08
2.12923e-08
1.92114e-08
1.73591e-08
1.57184e-08
1.42742e-08
1.30126e-08
1.19222e-08
1.09931e-08
1.02181e-08
9.59272e-09
9.12283e-09
0.000167214
9.72465e-05
6.01935e-05
3.74869e-05
1.88959e-05
1.25441e-05
7.77398e-06
4.01097e-06
2.34284e-06
1.48598e-06
1.02052e-06
7.42872e-07
5.66641e-07
4.49548e-07
3.68589e-07
3.10488e-07
2.67241e-07
2.33886e-07
2.07271e-07
1.85366e-07
1.66843e-07
1.50827e-07
1.36731e-07
1.24157e-07
1.12832e-07
1.02562e-07
9.32079e-08
8.46661e-08
7.68543e-08
6.9708e-08
6.31725e-08
5.72001e-08
5.17483e-08
4.67782e-08
4.22537e-08
3.81416e-08
3.44101e-08
3.10297e-08
2.7973e-08
2.52139e-08
2.27288e-08
2.04953e-08
1.84932e-08
1.67038e-08
1.511e-08
1.36963e-08
1.24489e-08
1.13551e-08
1.04037e-08
9.58439e-09
5.54694e-05
3.18033e-05
1.88992e-05
1.28573e-05
1.15076e-05
9.24248e-06
6.23034e-06
3.23409e-06
1.94986e-06
1.26996e-06
8.9688e-07
6.70768e-07
5.25243e-07
4.27288e-07
3.58514e-07
3.08213e-07
2.69937e-07
2.39695e-07
2.14965e-07
1.94122e-07
1.76109e-07
1.60227e-07
1.4601e-07
1.33141e-07
1.21404e-07
1.10647e-07
1.00761e-07
9.1665e-08
8.32947e-08
7.55983e-08
6.85311e-08
6.20527e-08
5.61256e-08
5.07144e-08
4.57845e-08
4.13027e-08
3.72366e-08
3.35551e-08
3.02283e-08
2.72276e-08
2.4526e-08
2.20983e-08
1.99207e-08
1.79716e-08
1.6231e-08
1.46808e-08
1.33045e-08
1.20876e-08
1.10169e-08
1.00806e-08
9.13372e-06
5.94554e-06
4.75585e-06
4.06027e-06
4.59229e-06
4.33592e-06
3.31601e-06
1.91907e-06
1.26382e-06
8.94361e-07
6.71993e-07
5.3132e-07
4.37877e-07
3.72675e-07
3.24908e-07
2.88244e-07
2.58872e-07
2.34445e-07
2.13487e-07
1.95053e-07
1.78529e-07
1.63511e-07
1.4973e-07
1.37004e-07
1.25211e-07
1.14262e-07
1.04095e-07
9.46642e-08
8.59306e-08
7.78616e-08
7.04271e-08
6.35979e-08
5.73443e-08
5.16362e-08
4.64425e-08
4.17314e-08
3.74708e-08
3.36285e-08
3.01723e-08
2.70713e-08
2.42953e-08
2.18156e-08
1.96051e-08
1.76388e-08
1.58932e-08
1.43472e-08
1.29816e-08
1.17789e-08
1.0724e-08
9.80329e-09
2.97142e-06
2.60025e-06
2.16886e-06
1.84933e-06
1.55795e-06
1.44943e-06
1.2381e-06
9.07558e-07
6.96346e-07
5.60079e-07
4.68778e-07
4.04694e-07
3.57392e-07
3.20692e-07
2.90892e-07
2.65741e-07
2.43843e-07
2.24317e-07
2.06597e-07
1.90311e-07
1.7521e-07
1.61127e-07
1.47947e-07
1.35593e-07
1.24007e-07
1.13152e-07
1.02998e-07
9.35216e-08
8.4705e-08
7.65298e-08
6.8978e-08
6.20303e-08
5.5665e-08
4.98583e-08
4.45838e-08
3.98126e-08
3.55144e-08
3.16573e-08
2.82089e-08
2.51365e-08
2.24081e-08
1.99926e-08
1.78603e-08
1.59833e-08
1.43357e-08
1.28936e-08
1.16354e-08
1.05416e-08
9.59482e-09
8.77987e-09
1.39e-06
1.26014e-06
1.03794e-06
9.39808e-07
7.83595e-07
7.71752e-07
6.18012e-07
5.22239e-07
4.58393e-07
4.10387e-07
3.71644e-07
3.3913e-07
3.11079e-07
2.86328e-07
2.64095e-07
2.43854e-07
2.25249e-07
2.08028e-07
1.9201e-07
1.77055e-07
1.63057e-07
1.49929e-07
1.37602e-07
1.26024e-07
1.15151e-07
1.04949e-07
9.53923e-08
8.64594e-08
7.81332e-08
7.03988e-08
6.32422e-08
5.6649e-08
5.06034e-08
4.50874e-08
4.00803e-08
3.55587e-08
3.14966e-08
2.78658e-08
2.46365e-08
2.17781e-08
1.92595e-08
1.70501e-08
1.51204e-08
1.34422e-08
1.19889e-08
1.07363e-08
9.66202e-09
8.74609e-09
7.97064e-09
7.31999e-09
9.75002e-07
9.73713e-07
8.15451e-07
7.59804e-07
6.71482e-07
7.41141e-07
5.49735e-07
4.54455e-07
4.00192e-07
3.61136e-07
3.28552e-07
2.99986e-07
2.7458e-07
2.51772e-07
2.31106e-07
2.12235e-07
1.94914e-07
1.78969e-07
1.64263e-07
1.50679e-07
1.38114e-07
1.2647e-07
1.15662e-07
1.05614e-07
9.62605e-08
8.75466e-08
7.9427e-08
7.18652e-08
6.4832e-08
5.83043e-08
5.22636e-08
4.66944e-08
4.15827e-08
3.69145e-08
3.26747e-08
2.88467e-08
2.54114e-08
2.23478e-08
1.96327e-08
1.72414e-08
1.51484e-08
1.33279e-08
1.17544e-08
1.04033e-08
9.2511e-09
8.27625e-09
7.45882e-09
6.78088e-09
6.22648e-09
5.78164e-09
8.98061e-07
8.08974e-07
7.1748e-07
6.43566e-07
5.74237e-07
8.04112e-07
3.80447e-07
3.45089e-07
3.15955e-07
2.88947e-07
2.63122e-07
2.38959e-07
2.16925e-07
1.97074e-07
1.79192e-07
1.63008e-07
1.48296e-07
1.34896e-07
1.22689e-07
1.11573e-07
1.01453e-07
9.22321e-08
8.38187e-08
7.61256e-08
6.90738e-08
6.2594e-08
5.66265e-08
5.11216e-08
4.60385e-08
4.13451e-08
3.70159e-08
3.30316e-08
2.93768e-08
2.6039e-08
2.30069e-08
2.02694e-08
1.78145e-08
1.56291e-08
1.36983e-08
1.20063e-08
1.05358e-08
9.2692e-09
8.18852e-09
7.27621e-09
6.51539e-09
5.89024e-09
5.38623e-09
4.99023e-09
4.69062e-09
4.4773e-09
5.78951e-07
5.33564e-07
4.92205e-07
4.43784e-07
3.94882e-07
3.0202e-07
2.76444e-07
2.51656e-07
2.28019e-07
2.05584e-07
1.84652e-07
1.65583e-07
1.48527e-07
1.33382e-07
1.19905e-07
1.07841e-07
9.69883e-08
8.72055e-08
7.83931e-08
7.04708e-08
6.33633e-08
5.69945e-08
5.12875e-08
4.61676e-08
4.15643e-08
3.74136e-08
3.3659e-08
3.02516e-08
2.71505e-08
2.43219e-08
2.1739e-08
1.93807e-08
1.72311e-08
1.52777e-08
1.35111e-08
1.1923e-08
1.05058e-08
9.25202e-09
8.15359e-09
7.20179e-09
6.38733e-09
5.70046e-09
5.13123e-09
4.6698e-09
4.30666e-09
4.03289e-09
3.84034e-09
3.72172e-09
3.67072e-09
3.68199e-09
3.37896e-07
3.0686e-07
2.76086e-07
2.46786e-07
2.19959e-07
1.95858e-07
1.74308e-07
1.55032e-07
1.3779e-07
1.22397e-07
1.08694e-07
9.65222e-08
8.57147e-08
7.61059e-08
6.7547e-08
5.99147e-08
5.31111e-08
4.70571e-08
4.1685e-08
3.69327e-08
3.274e-08
2.90479e-08
2.57998e-08
2.29417e-08
2.04241e-08
1.82019e-08
1.62351e-08
1.44888e-08
1.29333e-08
1.15434e-08
1.02987e-08
9.18297e-09
8.1835e-09
7.2906e-09
6.49691e-09
5.79666e-09
5.18516e-09
4.65826e-09
4.21206e-09
3.84264e-09
3.54604e-09
3.31827e-09
3.15533e-09
3.05338e-09
3.00881e-09
3.01837e-09
3.07927e-09
3.1892e-09
3.3464e-09
3.54966e-09
1.7948e-07
1.62354e-07
1.45686e-07
1.29895e-07
1.15235e-07
1.01832e-07
8.97215e-08
7.88733e-08
6.92147e-08
6.06515e-08
5.3082e-08
4.64058e-08
4.05286e-08
3.53644e-08
3.08356e-08
2.68723e-08
2.34117e-08
2.03969e-08
1.77763e-08
1.55029e-08
1.35345e-08
1.18328e-08
1.03636e-08
9.09644e-09
8.00411e-09
7.06265e-09
6.25102e-09
5.55094e-09
4.94677e-09
4.42533e-09
3.97583e-09
3.58958e-09
3.25984e-09
2.98145e-09
2.75057e-09
2.56441e-09
2.4209e-09
2.31851e-09
2.25608e-09
2.2327e-09
2.24766e-09
2.3004e-09
2.39057e-09
2.51798e-09
2.68272e-09
2.88511e-09
3.12576e-09
3.40559e-09
3.72585e-09
4.08811e-09
8.29839e-08
7.13811e-08
6.15876e-08
5.32251e-08
4.60356e-08
3.98286e-08
3.4456e-08
2.97988e-08
2.57588e-08
2.22534e-08
1.92125e-08
1.65758e-08
1.42912e-08
1.23137e-08
1.06041e-08
9.12849e-09
7.85711e-09
6.76417e-09
5.82709e-09
5.02615e-09
4.34403e-09
3.76557e-09
3.27739e-09
2.86775e-09
2.52633e-09
2.24411e-09
2.0133e-09
1.82723e-09
1.68032e-09
1.56802e-09
1.4867e-09
1.43363e-09
1.40682e-09
1.40498e-09
1.42738e-09
1.47377e-09
1.54433e-09
1.63955e-09
1.7602e-09
1.90729e-09
2.08207e-09
2.28597e-09
2.52064e-09
2.78796e-09
3.09002e-09
3.42914e-09
3.80787e-09
4.22901e-09
4.69559e-09
5.21088e-09
2.41174e-08
2.0728e-08
1.77635e-08
1.51911e-08
1.29716e-08
1.10643e-08
9.43035e-09
8.03351e-09
6.84136e-09
5.82519e-09
4.95992e-09
4.2239e-09
3.59855e-09
3.06806e-09
2.619e-09
2.23997e-09
1.92133e-09
1.6549e-09
1.43375e-09
1.25199e-09
1.10465e-09
9.87523e-10
8.97081e-10
8.30393e-10
7.85057e-10
7.59147e-10
7.5117e-10
7.60033e-10
7.85013e-10
8.25735e-10
8.82155e-10
9.54536e-10
1.04344e-09
1.14972e-09
1.27449e-09
1.41913e-09
1.58524e-09
1.77467e-09
1.98947e-09
2.23189e-09
2.50441e-09
2.80973e-09
3.15078e-09
3.53073e-09
3.95298e-09
4.42118e-09
4.93922e-09
5.51121e-09
6.14151e-09
6.83468e-09
6.08742e-09
4.98419e-09
4.08883e-09
3.36085e-09
2.76811e-09
2.28497e-09
1.89091e-09
1.56942e-09
1.30719e-09
1.09348e-09
9.19656e-10
7.78742e-10
6.65159e-10
5.74442e-10
5.0303e-10
4.481e-10
4.07428e-10
3.79281e-10
3.6234e-10
3.55627e-10
3.58464e-10
3.70429e-10
3.91327e-10
4.21167e-10
4.60149e-10
5.08649e-10
5.67216e-10
6.36569e-10
7.17598e-10
8.11369e-10
9.19151e-10
1.04239e-09
1.18275e-09
1.34215e-09
1.52268e-09
1.72668e-09
1.95671e-09
2.21553e-09
2.50613e-09
2.83176e-09
3.19593e-09
3.60244e-09
4.05536e-09
4.55906e-09
5.1182e-09
5.7377e-09
6.42276e-09
7.17884e-09
8.01162e-09
8.92694e-09
8.40149e-10
6.76791e-10
5.47853e-10
4.46175e-10
3.66204e-10
3.03618e-10
2.5504e-10
2.17837e-10
1.8996e-10
1.69831e-10
1.56249e-10
1.48323e-10
1.45417e-10
1.47105e-10
1.53135e-10
1.63403e-10
1.7793e-10
1.96856e-10
2.2043e-10
2.49008e-10
2.83047e-10
3.23108e-10
3.69858e-10
4.24072e-10
4.86644e-10
5.58593e-10
6.41078e-10
7.35403e-10
8.4304e-10
9.65655e-10
1.1052e-09
1.26372e-09
1.44362e-09
1.64755e-09
1.87837e-09
2.13921e-09
2.43344e-09
2.7647e-09
3.13699e-09
3.5546e-09
4.02224e-09
4.54491e-09
5.12801e-09
5.77725e-09
6.49868e-09
7.29865e-09
8.18382e-09
9.16108e-09
1.02375e-08
1.14202e-08
8.35022e-11
7.08669e-11
6.21153e-11
5.64592e-11
5.33381e-11
5.23661e-11
5.32924e-11
5.59735e-11
6.03527e-11
6.64493e-11
7.43515e-11
8.42026e-11
9.62085e-11
1.10627e-10
1.27756e-10
1.47947e-10
1.71606e-10
1.99209e-10
2.31305e-10
2.68518e-10
3.11562e-10
3.61244e-10
4.18482e-10
4.84311e-10
5.59902e-10
6.46581e-10
7.45842e-10
8.59369e-10
9.8906e-10
1.13714e-09
1.30636e-09
1.49912e-09
1.71866e-09
1.96832e-09
2.25173e-09
2.57286e-09
2.93599e-09
3.34585e-09
3.80759e-09
4.32683e-09
4.90957e-09
5.56222e-09
6.2916e-09
7.1049e-09
8.00966e-09
9.01377e-09
1.01254e-08
1.13529e-08
1.27048e-08
1.41892e-08
1.94738e-11
2.09185e-11
2.29864e-11
2.56996e-11
2.91098e-11
3.32956e-11
3.83619e-11
4.44399e-11
5.1688e-11
6.03058e-11
7.05322e-11
8.26154e-11
9.68635e-11
1.13612e-10
1.33226e-10
1.56129e-10
1.82811e-10
2.13835e-10
2.49843e-10
2.91565e-10
3.39832e-10
3.95593e-10
4.59929e-10
5.34072e-10
6.1943e-10
7.17603e-10
8.30414e-10
9.59927e-10
1.10849e-09
1.2792e-09
1.47578e-09
1.70024e-09
1.95695e-09
2.2499e-09
2.5835e-09
2.96269e-09
3.3928e-09
3.87975e-09
4.42992e-09
5.05015e-09
5.7477e-09
6.53029e-09
7.40606e-09
8.38353e-09
9.47162e-09
1.06796e-08
1.20169e-08
1.34933e-08
1.51184e-08
1.69011e-08
1.41284e-11
1.62936e-11
1.8898e-11
2.20231e-11
2.5766e-11
3.02412e-11
3.55821e-11
4.19428e-11
4.95012e-11
5.85039e-11
6.92015e-11
8.18171e-11
9.66795e-11
1.14126e-10
1.34539e-10
1.58376e-10
1.86166e-10
2.18513e-10
2.56113e-10
2.99765e-10
3.5039e-10
4.09053e-10
4.76979e-10
5.55584e-10
6.46496e-10
7.5158e-10
8.72973e-10
1.01311e-09
1.17481e-09
1.36307e-09
1.58066e-09
1.82929e-09
2.11487e-09
2.44194e-09
2.81582e-09
3.24233e-09
3.72774e-09
4.27891e-09
4.90312e-09
5.60813e-09
6.40216e-09
7.29392e-09
8.29254e-09
9.40759e-09
1.0649e-08
1.20271e-08
1.35524e-08
1.52357e-08
1.70877e-08
1.91189e-08
5.98111e-08
6.48153e-08
7.04558e-08
7.69421e-08
8.44814e-08
9.31594e-08
1.02744e-07
1.12522e-07
1.21443e-07
1.28608e-07
1.3316e-07
1.80953e-07
2.09929e-07
2.27045e-07
2.39247e-07
2.73157e-07
3.19612e-07
3.6185e-07
3.88572e-07
3.9816e-07
3.97821e-07
7.74436e-07
1.99164e-07
3.79758e-07
3.8732e-07
3.94016e-07
3.97036e-07
8.07127e-07
2.50349e-07
4.4438e-07
4.41627e-07
5.72917e-07
5.47707e-07
5.17927e-07
6.33486e-07
6.42135e-07
6.25728e-07
6.29609e-07
5.75014e-07
5.48299e-07
6.19864e-07
1.40067e-06
5.0352e-07
7.24232e-07
1.36478e-06
4.10877e-07
6.16451e-07
5.812e-07
9.93714e-07
6.23109e-07
7.02002e-07
7.55308e-07
6.56899e-07
7.12861e-07
9.21061e-07
1.11381e-06
1.15811e-06
9.69649e-07
7.77914e-07
7.06324e-07
6.68747e-07
6.68645e-07
6.87373e-07
6.97436e-07
2.22755e-06
4.54137e-06
4.54636e-06
2.20978e-06
7.91913e-07
7.23913e-07
1.90732e-06
2.67666e-06
8.56412e-07
8.10304e-07
8.30191e-07
8.65954e-07
9.00889e-07
9.06071e-07
1.93303e-06
5.2241e-06
5.35211e-06
5.00323e-06
1.47194e-06
8.63589e-07
1.02255e-06
2.32161e-06
5.86572e-06
6.83824e-06
6.83439e-06
2.96002e-06
1.30045e-06
8.17202e-07
8.04957e-07
6.87894e-07
6.19477e-07
6.42779e-07
6.33906e-07
6.00455e-07
5.61188e-07
5.35021e-07
4.91047e-07
4.2867e-07
1.30508e-06
1.98855e-06
3.568e-07
3.78066e-07
4.16423e-07
4.14425e-07
4.03854e-07
3.97371e-07
3.40553e-07
2.63964e-07
2.53572e-07
2.35422e-07
2.14762e-07
1.93638e-07
1.71975e-07
1.53448e-07
1.37063e-07
1.20456e-07
1.04724e-07
9.01999e-08
7.68254e-08
6.44608e-08
5.32804e-08
4.33895e-08
3.483e-08
2.75943e-08
2.16258e-08
1.68213e-08
1.30391e-08
1.01133e-08
7.87022e-09
6.14777e-09
4.81156e-09
3.76261e-09
2.93318e-09
2.27628e-09
1.75697e-09
1.34788e-09
1.02727e-09
7.77641e-10
5.84769e-10
4.36946e-10
3.24556e-10
2.39762e-10
1.76244e-10
1.28972e-10
9.39933e-11
6.82419e-11
4.93665e-11
3.55842e-11
2.55557e-11
1.82829e-11
1.3026e-11
9.23987e-12
6.52344e-12
4.58279e-12
3.20282e-12
2.22647e-12
1.53937e-12
1.05853e-12
7.23952e-13
4.925e-13
3.33311e-13
2.24449e-13
1.50417e-13
1.00342e-13
6.66467e-14
4.40845e-14
2.9047e-14
1.90686e-14
1.24744e-14
8.13353e-15
5.28632e-15
3.42524e-15
2.21272e-15
1.42524e-15
9.1536e-16
5.86213e-16
3.74363e-16
2.38409e-16
1.51415e-16
9.59106e-17
6.05981e-17
3.81948e-17
2.402e-17
1.50745e-17
9.443e-18
5.90567e-18
3.68827e-18
2.30078e-18
1.43392e-18
8.9303e-19
5.55881e-19
3.45895e-19
2.15185e-19
1.33852e-19
8.32547e-20
5.1782e-20
3.22055e-20
2.00286e-20
1.24542e-20
7.74279e-21
4.81234e-21
2.98989e-21
1.85676e-21
1.15244e-21
7.14829e-22
4.43075e-22
2.74417e-22
1.69814e-22
1.04989e-22
6.48477e-23
4.00137e-23
2.46642e-23
1.51863e-23
9.34001e-24
5.73765e-24
3.52042e-24
2.15729e-24
1.32024e-24
8.06865e-25
4.92408e-25
3.00048e-25
1.82541e-25
1.10865e-25
6.7211e-26
4.06675e-26
2.4556e-26
1.47946e-26
8.8923e-27
5.33102e-27
3.18717e-27
1.89979e-27
1.12879e-27
6.68363e-28
3.94268e-28
2.31644e-28
1.3551e-28
7.89026e-29
4.57124e-29
2.63412e-29
1.50913e-29
8.59255e-30
4.85998e-30
2.72937e-30
1.52123e-30
8.41032e-31
4.60981e-31
2.5036e-31
1.3465e-31
7.16711e-32
3.77317e-32
1.96339e-32
1.00914e-32
5.11959e-33
2.56174e-33
1.26334e-33
6.13551e-34
2.93201e-34
1.37752e-34
6.35705e-35
2.87901e-35
1.27833e-35
5.55922e-36
2.36541e-36
9.83652e-37
3.99321e-37
1.58061e-37
6.09251e-38
2.28381e-38
8.31381e-39
2.93473e-39
1.00293e-39
3.31268e-40
1.05561e-40
3.23891e-41
9.54906e-42
2.69902e-42
7.29573e-43
1.88097e-43
4.61171e-44
1.07174e-44
2.35226e-45
4.85591e-46
9.385e-47
1.68919e-47
2.81418e-48
4.30875e-49
6.01181e-50
7.56621e-51
8.4822e-52
8.33651e-53
7.03521e-54
4.95548e-55
2.79663e-56
1.18539e-57
3.35381e-59
4.74846e-61
1.66741e-08
1.77939e-08
1.90562e-08
2.04666e-08
2.2032e-08
2.37628e-08
2.5675e-08
2.7793e-08
3.01513e-08
3.27932e-08
3.57629e-08
3.90896e-08
4.27667e-08
4.67552e-08
5.10744e-08
5.60626e-08
6.27318e-08
7.25144e-08
8.51045e-08
9.52885e-08
9.49133e-08
8.05295e-08
1.31672e-07
1.50082e-07
1.66818e-07
1.74485e-07
1.65466e-07
1.36277e-07
2.39921e-07
3.59515e-07
1.2611e-07
2.08173e-07
2.27363e-07
2.91284e-07
3.40267e-07
3.49819e-07
2.96865e-07
3.72384e-07
3.55332e-07
3.87829e-07
3.95183e-07
3.46207e-07
4.48994e-07
3.91313e-07
3.41916e-07
4.03895e-07
4.41393e-07
4.58967e-07
3.98483e-07
8.63622e-07
3.54276e-07
5.96366e-07
5.76378e-07
4.61052e-07
5.45776e-07
6.21688e-07
6.08751e-07
5.15748e-07
5.81651e-07
6.00272e-07
6.02734e-07
6.01021e-07
5.98413e-07
1.15991e-06
4.25616e-07
6.2605e-07
6.93555e-07
7.82529e-07
9.6114e-07
1.23895e-06
1.47291e-06
2.67257e-06
1.10042e-06
9.76696e-07
9.74828e-07
1.14416e-06
1.40711e-06
1.58105e-06
1.30726e-06
9.40632e-07
7.38459e-07
9.49428e-07
3.51472e-06
4.25336e-06
3.92773e-06
1.23117e-06
1.24077e-06
1.45218e-06
4.3135e-06
6.73908e-06
6.70937e-06
4.92307e-06
2.09816e-06
1.97187e-06
1.61515e-06
1.00569e-06
8.63352e-07
8.08591e-07
6.74663e-07
6.85423e-07
6.52177e-07
5.12017e-07
1.55664e-06
3.78335e-06
1.66413e-06
4.29508e-07
5.6736e-07
5.82328e-07
6.88658e-07
1.81125e-06
7.46523e-07
3.54328e-07
3.89289e-07
3.82411e-07
3.67495e-07
3.47963e-07
2.87336e-07
2.61172e-07
2.44785e-07
2.21844e-07
1.98099e-07
1.7633e-07
1.56444e-07
1.36351e-07
1.16796e-07
9.83204e-08
8.12892e-08
6.5997e-08
5.26671e-08
4.14202e-08
3.22463e-08
2.50156e-08
1.94686e-08
1.52587e-08
1.20317e-08
9.50877e-09
7.50643e-09
5.90858e-09
4.63239e-09
3.61324e-09
2.80073e-09
2.15578e-09
1.64735e-09
1.24988e-09
9.4188e-10
7.053e-10
5.25105e-10
3.88932e-10
2.86754e-10
2.10561e-10
1.54046e-10
1.12315e-10
8.16156e-11
5.91051e-11
4.26484e-11
3.06534e-11
2.19383e-11
1.56287e-11
1.1079e-11
7.81311e-12
5.48035e-12
3.82299e-12
2.6521e-12
1.82971e-12
1.2555e-12
8.56946e-13
5.81936e-13
3.93258e-13
2.64524e-13
1.77154e-13
1.18154e-13
7.84992e-14
5.19648e-14
3.42825e-14
2.25444e-14
1.478e-14
9.66119e-15
6.29723e-15
4.09315e-15
2.65323e-15
1.71519e-15
1.10582e-15
7.11065e-16
4.56043e-16
2.91748e-16
1.86192e-16
1.18556e-16
7.533e-17
4.77728e-17
3.02453e-17
1.91207e-17
1.20734e-17
7.61627e-18
4.8012e-18
3.02519e-18
1.90563e-18
1.20029e-18
7.56049e-19
4.76297e-19
3.00121e-19
1.89154e-19
1.19243e-19
7.51851e-20
4.74119e-20
2.98995e-20
1.8855e-20
1.18886e-20
7.49442e-21
4.72287e-21
2.97506e-21
1.87315e-21
1.17871e-21
7.4125e-22
4.65827e-22
2.92525e-22
1.83552e-22
1.15078e-22
7.2086e-23
4.5114e-23
2.82069e-23
1.76183e-23
1.0993e-23
6.85147e-24
4.26521e-24
2.65187e-24
1.64658e-24
1.02092e-24
6.32021e-25
3.90614e-25
2.4098e-25
1.48377e-25
9.1166e-26
5.58854e-26
3.41725e-26
2.08388e-26
1.26702e-26
7.67883e-27
4.63756e-27
2.7902e-27
1.67185e-27
9.97292e-28
5.92047e-28
3.49647e-28
2.05336e-28
1.1986e-28
6.95115e-29
4.00319e-29
2.28824e-29
1.29752e-29
7.29455e-30
4.06356e-30
2.24169e-30
1.22385e-30
6.60823e-31
3.52652e-31
1.85869e-31
9.66821e-32
4.95948e-32
2.50688e-32
1.24763e-32
6.10831e-33
2.93942e-33
1.38903e-33
6.43967e-34
2.92609e-34
1.30179e-34
5.66449e-35
2.40805e-35
9.98963e-36
4.03909e-36
1.58969e-36
6.08209e-37
2.25883e-37
8.1312e-38
2.8325e-38
9.53218e-39
3.09338e-39
9.66154e-40
2.89816e-40
8.33065e-41
2.289e-41
5.99595e-42
1.4929e-42
3.52169e-43
7.84213e-44
1.64175e-44
3.21637e-45
5.86557e-46
9.89677e-47
1.53397e-47
2.16576e-48
2.75705e-49
3.12508e-50
3.10424e-51
2.6467e-52
1.88285e-53
1.0728e-54
4.58938e-56
1.31011e-57
1.8711e-59
8.97762e-09
8.83997e-09
8.75079e-09
8.71382e-09
8.7325e-09
8.8104e-09
8.95128e-09
9.15891e-09
9.43701e-09
9.78931e-09
1.02194e-08
1.07308e-08
1.13271e-08
1.2012e-08
1.27897e-08
1.3666e-08
1.46494e-08
1.57518e-08
1.69912e-08
1.83925e-08
1.99844e-08
2.17868e-08
2.37896e-08
2.59379e-08
2.8198e-08
3.08925e-08
3.52727e-08
4.22465e-08
4.71124e-08
3.22865e-08
4.50989e-08
6.17996e-08
7.54235e-08
8.78479e-08
9.76112e-08
7.44843e-08
9.50321e-08
1.61912e-07
1.3365e-07
1.14113e-07
1.32076e-07
1.53957e-07
2.3776e-07
1.9577e-07
1.82661e-07
1.73363e-07
1.8596e-07
2.66942e-07
2.87475e-07
2.2412e-07
2.22393e-07
2.57023e-07
2.54977e-07
2.87364e-07
3.0055e-07