/*--------------------------------*- C++ -*----------------------------------*\
| =========                 |                                                 |
| \\      /  F ield         | OpenFOAM: The Open Source CFD Toolbox           |
|  \\    /   O peration     | Version:  2.4.0                                 |
|   \\  /    A nd           | Web:      www.OpenFOAM.org                      |
|    \\/     M anipulation  |                                                 |
\*---------------------------------------------------------------------------*/
FoamFile
{
    version     2.0;
    format      ascii;
    class       volScalarField;
    location    "0.1";
    object      alpha1;
}
// * * * * * * * * * * * * * * * * * * * * * * * * * * * * * * * * * * * * * //

dimensions      [0 0 0 0 0 0 0];

internalField   nonuniform List<scalar> 
8000
(
1
1
1
1
1
1
1
1
1
1
1
1
1
1
1
1
1
1
1
1
1
1
1
1
1
1
1
1
1
1
1
1
1
1
1
1
1
1
1
1
1
1
1
1
1
1
1
1
0.99999
0.995339
1
1
1
1
1
1
1
1
1
1
1
1
1
1
1
1
1
1
1
1
1
1
1
1
1
1
1
1
1
1
1
1
1
1
1
1
1
1
1
1
1
1
1
1
1
1
1
1
0.999991
0.995648
1
1
1
1
1
1
1
1
1
1
1
1
1
1
1
1
1
1
1
1
1
1
1
1
1
1
1
1
1
1
1
1
1
1
1
1
1
1
1
1
1
1
1
1
1
1
1
1
0.999992
0.996071
1
1
1
1
1
1
1
1
1
1
1
1
1
1
1
1
1
1
1
1
1
1
1
1
1
1
1
1
1
1
1
1
1
1
1
1
1
1
1
1
1
1
1
1
1
1
1
1
0.999994
0.996528
1
1
1
1
1
1
1
1
1
1
1
1
1
1
1
1
1
1
1
1
1
1
1
1
1
1
1
1
1
1
1
1
1
1
1
1
1
1
1
1
1
1
1
1
1
1
1
1
0.999995
0.997064
1
1
1
1
1
1
1
1
1
1
1
1
1
1
1
1
1
1
1
1
1
1
1
1
1
1
1
1
1
1
1
1
1
1
1
1
1
1
1
1
1
1
1
1
1
1
1
1
0.999997
0.997557
1
1
1
1
1
1
1
1
1
1
1
1
1
1
1
1
1
1
1
1
1
1
1
1
1
1
1
1
1
1
1
1
1
1
1
1
1
1
1
1
1
1
1
1
1
1
1
1
0.999998
0.998043
1
1
1
1
1
1
1
1
1
1
1
1
1
1
1
1
1
1
1
1
1
1
1
1
1
1
1
1
1
1
1
1
1
1
1
1
1
1
1
1
1
1
1
1
1
1
1
1
0.999999
0.998464
1
1
1
1
1
1
1
1
1
1
1
1
1
1
1
1
1
1
1
1
1
1
1
1
1
1
1
1
1
1
1
1
1
1
1
1
1
1
1
1
1
1
1
1
1
1
1
1
0.999999
0.998833
1
1
1
1
1
1
1
1
1
1
1
1
1
1
1
1
1
1
1
1
1
1
1
1
1
1
1
1
1
1
1
1
1
1
1
1
1
1
1
1
1
1
1
1
1
1
1
1
1
0.999134
1
1
1
1
1
1
1
1
1
1
1
1
1
1
1
1
1
1
1
1
1
1
1
1
1
1
1
1
1
1
1
1
1
1
1
1
1
1
1
1
1
1
1
1
1
1
1
1
1
0.999376
1
1
1
1
1
1
1
1
1
1
1
1
1
1
1
1
1
1
1
1
1
1
1
1
1
1
1
1
1
1
1
1
1
1
1
1
1
1
1
1
1
1
1
1
1
1
1
1
1
0.999561
1
1
1
1
1
1
1
1
1
1
1
1
1
1
1
1
1
1
1
1
1
1
1
1
1
1
1
1
1
1
1
1
1
1
1
1
1
1
1
1
1
1
1
1
1
1
1
1
1
0.9997
1
1
1
1
1
1
1
1
1
1
1
1
1
1
1
1
1
1
1
1
1
1
1
1
1
1
1
1
1
1
1
1
1
1
1
1
1
1
1
1
1
1
1
1
1
1
1
1
1
0.9998
1
1
1
1
1
1
1
1
1
1
1
1
1
1
1
1
1
1
1
1
1
1
1
1
1
1
1
1
1
1
1
1
1
1
1
1
1
1
1
1
1
1
1
1
1
1
1
1
1
0.99987
1
1
1
1
1
1
1
1
1
1
1
1
1
1
1
1
1
1
1
1
1
1
1
1
1
1
1
1
1
1
1
1
1
1
1
1
1
1
1
1
1
1
1
1
1
1
1
1
1
0.999917
1
1
1
1
1
1
1
1
1
1
1
1
1
1
1
1
1
1
1
1
1
1
1
1
1
1
1
1
1
1
1
1
1
1
1
1
1
1
1
1
1
1
1
1
1
1
1
1
1
0.999948
1
1
1
1
1
1
1
1
1
1
1
1
1
1
1
1
1
1
1
1
1
1
1
1
1
1
1
1
1
1
1
1
1
1
1
1
1
1
1
1
1
1
1
1
1
1
1
1
1
0.999963
1
1
1
1
1
1
1
1
1
1
1
1
1
1
1
1
1
1
1
1
1
1
1
1
1
1
1
1
1
1
1
1
1
1
1
1
1
1
1
1
1
1
1
1
1
1
1
1
1
0.999975
1
1
1
1
1
1
1
1
1
1
1
1
1
1
1
1
1
1
1
1
1
1
1
1
1
1
1
1
1
1
1
1
1
1
1
1
1
1
1
1
1
1
1
1
1
1
1
1
1
0.999981
9.3902e-07
7.25496e-13
6.51536e-19
5.46046e-23
3.24149e-26
2.02328e-29
1.26965e-32
7.84739e-36
4.71778e-39
2.73577e-42
1.52115e-45
8.07478e-49
4.0789e-52
1.9558e-55
8.8841e-59
3.81701e-62
1.54908e-65
5.93112e-69
2.13998e-72
7.26682e-76
2.31894e-79
6.94089e-83
1.94376e-86
5.07653e-90
1.23152e-93
2.76199e-97
5.69607e-101
1.07349e-104
1.83526e-108
2.81647e-112
3.81132e-116
4.42667e-120
4.27641e-124
3.33993e-128
2.03972e-132
8.61999e-137
1.87826e-141
1.4457e-146
7.2428e-153
1.47304e-158
2.37167e-164
4.06582e-170
7.6537e-176
1.37346e-181
1.81228e-187
1.47061e-193
5.67187e-200
1.03299e-206
3.81171e-214
5.25867e-225
8.02893e-07
5.90383e-13
9.74393e-19
3.04389e-22
2.09812e-25
1.49978e-28
1.0713e-31
7.5024e-35
5.0912e-38
3.32174e-41
2.07213e-44
1.23079e-47
6.93908e-51
3.70428e-54
1.86862e-57
8.8928e-61
3.9869e-64
1.68168e-67
6.66515e-71
2.47885e-74
8.63759e-78
2.81444e-81
8.55342e-85
2.41633e-88
6.31762e-92
1.52091e-95
3.35183e-99
6.71746e-103
1.21532e-106
1.96671e-110
2.80263e-114
3.4216e-118
3.45568e-122
2.79089e-126
1.74787e-130
7.64722e-135
1.70102e-139
1.23658e-144
3.89086e-151
7.35668e-157
1.09818e-162
1.76591e-168
3.19431e-174
5.60835e-180
7.33841e-186
5.90998e-192
2.2614e-198
4.08443e-205
1.49329e-212
1.80695e-223
6.37151e-07
4.03734e-13
2.56472e-18
1.60154e-21
1.27993e-24
1.05029e-27
8.55791e-31
6.80344e-34
5.22047e-37
3.83847e-40
2.69043e-43
1.79066e-46
1.1283e-49
6.71445e-53
3.76616e-56
1.98768e-59
9.8559e-63
4.58488e-66
1.9982e-69
8.14704e-73
3.10253e-76
1.10142e-79
3.63601e-83
1.11235e-86
3.13901e-90
8.12521e-94
1.91698e-97
4.09269e-101
7.84577e-105
1.33911e-108
2.00923e-112
2.58186e-116
2.73338e-120
2.29054e-124
1.46955e-128
6.65392e-133
1.52503e-137
1.04243e-142
1.93607e-149
3.39648e-155
4.70158e-161
7.08196e-167
1.23014e-172
2.10947e-178
2.73522e-184
2.18508e-190
8.29794e-197
1.48602e-203
5.38756e-211
6.92057e-222
4.9045e-07
2.45936e-13
9.49232e-18
7.8972e-21
7.33382e-24
6.92675e-27
6.4535e-30
5.83652e-33
5.07378e-36
4.21159e-39
3.32223e-42
2.48147e-45
1.75004e-48
1.16259e-51
7.26075e-55
4.25544e-58
2.33677e-61
1.20039e-64
5.75966e-68
2.57722e-71
1.07362e-74
4.15586e-78
1.49133e-81
4.94526e-85
1.50829e-88
4.20487e-92
1.06407e-95
2.42513e-99
4.93526e-103
8.89059e-107
1.40364e-110
1.89977e-114
2.11362e-118
1.84521e-122
1.21322e-126
5.67205e-131
1.35099e-135
8.64025e-141
8.84983e-148
1.43713e-153
1.84561e-159
2.6011e-165
4.33761e-171
7.25318e-177
9.31447e-183
7.37772e-189
2.78204e-195
4.93895e-202
1.77743e-209
3.50154e-220
4.0445e-07
1.68053e-13
3.62415e-17
3.63233e-20
3.93219e-23
4.28763e-26
4.57997e-29
4.72322e-32
4.66127e-35
4.3761e-38
3.89161e-41
3.26737e-44
2.58308e-47
1.91855e-50
1.33613e-53
8.70918e-57
5.30421e-60
3.01333e-63
1.59409e-66
7.83876e-70
3.57631e-73
1.51081e-76
5.89675e-80
2.12056e-83
6.99716e-87
2.10448e-90
5.72331e-94
1.39562e-97
3.0223e-101
5.75555e-105
9.55505e-109
1.36156e-112
1.59558e-116
1.45733e-120
9.84571e-125
4.7311e-129
1.17953e-133
7.01827e-139
3.67934e-146
5.5155e-152
6.57659e-158
8.66401e-164
1.38749e-169
2.25919e-175
2.87235e-181
2.25483e-187
8.44924e-194
1.48667e-200
5.31734e-208
2.50422e-218
4.12729e-07
2.03206e-13
1.30117e-16
1.55126e-19
1.96478e-22
2.48211e-25
3.04874e-28
3.59378e-31
4.03457e-34
4.29195e-37
4.31037e-40
4.07479e-43
3.61715e-46
3.00867e-49
2.34038e-52
1.69945e-55
1.14991e-58
7.23702e-62
4.2284e-65
2.28897e-68
1.14556e-71
5.28847e-75
2.24679e-78
8.7637e-82
3.1291e-85
1.01674e-88
2.97751e-92
7.78633e-96
1.79928e-99
3.63187e-103
6.34126e-107
9.49475e-111
1.17414e-114
1.12652e-118
7.86096e-123
3.85663e-127
1.01193e-131
5.56509e-137
1.3743e-144
1.89574e-150
2.10114e-156
2.58578e-162
3.98031e-168
6.30397e-174
7.93477e-180
6.17132e-186
2.30038e-192
4.01074e-199
1.4278e-206
2.20897e-216
5.62631e-07
4.39836e-13
4.30573e-16
6.12078e-19
9.11028e-22
1.33872e-24
1.896e-27
2.56013e-30
3.27588e-33
3.95611e-36
4.49513e-39
4.79343e-42
4.78652e-45
4.46676e-48
3.88814e-51
3.15112e-54
2.37331e-57
1.65795e-60
1.07206e-63
6.40223e-67
3.52239e-70
1.78064e-73
8.24768e-77
3.49105e-80
1.34766e-83
4.73251e-87
1.4953e-90
4.20288e-94
1.03931e-97
2.23145e-101
4.10618e-105
6.43886e-109
8.40938e-113
8.50558e-117
6.17478e-121
3.06989e-125
8.50406e-130
4.29427e-135
4.54057e-143
5.74313e-149
5.92559e-155
6.81079e-161
1.00943e-166
1.55421e-172
1.9375e-178
1.49264e-184
5.54263e-191
9.5733e-198
3.39827e-205
2.08731e-214
9.0344e-07
1.02964e-12
1.30268e-15
2.21824e-18
3.90469e-21
6.69518e-24
1.09543e-26
1.69744e-29
2.48042e-32
3.40748e-35
4.38963e-38
5.29125e-41
5.95602e-44
6.24884e-47
6.09941e-50
5.5286e-53
4.64464e-56
3.60928e-59
2.58864e-62
1.70945e-65
1.03657e-68
5.75405e-72
2.91396e-75
1.34136e-78
5.5956e-82
2.11761e-85
7.23345e-89
2.19006e-92
5.81115e-96
1.33218e-99
2.59499e-103
4.2508e-107
5.85256e-111
6.25902e-115
4.76469e-119
2.38801e-123
6.98004e-128
3.22919e-133
1.30013e-141
1.50205e-147
1.44549e-153
1.5525e-159
2.22154e-165
3.3263e-171
4.11127e-177
3.1371e-183
1.16272e-189
1.98893e-196
7.0557e-204
1.988e-212
1.50643e-06
2.28728e-12
3.57888e-15
7.32701e-18
1.49375e-20
2.92114e-23
5.42493e-26
9.51863e-29
1.57244e-31
2.43891e-34
3.54346e-37
4.81236e-40
6.09731e-43
7.1938e-46
7.88891e-49
8.0261e-52
7.56109e-55
6.5822e-58
5.28337e-61
3.90081e-64
2.64196e-67
1.63641e-70
9.23658e-74
4.73125e-77
2.1885e-80
9.08747e-84
3.36295e-87
1.09919e-90
3.13735e-94
7.70599e-98
1.5982e-101
2.74223e-105
3.95126e-109
4.47939e-113
3.60081e-117
1.82349e-121
5.58042e-126
2.40055e-131
3.13752e-140
3.29731e-146
2.96724e-152
2.98322e-158
4.13915e-164
6.03728e-170
7.41414e-176
5.60416e-182
2.07876e-188
3.52054e-195
1.25161e-202
1.87347e-210
2.41117e-06
4.64149e-12
8.85733e-15
2.05036e-17
4.6674e-20
1.0192e-22
2.11499e-25
4.14858e-28
7.66318e-31
1.32911e-33
2.15913e-36
3.27794e-39
4.64131e-42
6.11708e-45
7.48986e-48
8.50325e-51
8.9332e-54
8.66611e-57
7.74564e-60
6.36266e-63
4.79057e-66
3.29593e-69
2.06491e-72
1.17332e-75
6.01858e-79
2.77155e-82
1.1382e-85
4.13482e-89
1.31546e-92
3.61871e-96
8.46622e-100
1.64738e-103
2.58317e-107
3.11147e-111
2.65493e-115
1.37968e-119
4.33481e-124
1.82898e-129
6.12775e-139
5.83381e-145
4.92684e-151
4.6565e-157
6.30715e-163
8.99904e-169
1.10219e-174
8.25664e-181
3.07648e-187
5.15644e-194
1.8437e-201
1.73854e-208
3.59708e-06
8.52525e-12
1.85557e-14
4.60771e-17
1.13396e-19
2.69396e-22
6.10925e-25
1.31375e-27
2.66661e-30
5.09084e-33
9.11447e-36
1.52642e-38
2.38565e-41
3.47197e-44
4.69521e-47
5.8873e-50
6.82995e-53
7.31433e-56
7.21351e-59
6.53449e-62
5.42178e-65
4.1075e-68
2.83134e-71
1.76866e-74
9.9663e-78
5.03877e-81
2.27119e-84
9.05748e-88
3.16624e-91
9.59038e-95
2.48017e-98
5.37127e-102
9.48743e-106
1.31565e-109
1.34944e-113
9.20361e-118
3.26412e-122
1.49037e-127
9.08396e-138
7.8051e-144
6.22165e-150
5.58166e-156
7.46605e-162
1.05115e-167
1.29242e-173
9.60417e-180
3.61361e-186
5.99126e-193
2.16455e-200
1.58686e-206
4.95189e-06
1.41222e-11
3.17951e-14
8.05464e-17
2.05255e-19
5.10957e-22
1.22478e-24
2.80187e-27
6.07959e-30
1.2454e-32
2.39951e-35
4.33439e-38
7.31972e-41
1.15262e-43
1.68816e-46
2.29413e-49
2.88552e-52
3.35066e-55
3.58245e-58
3.51678e-61
3.16003e-64
2.59035e-67
1.92983e-70
1.30121e-73
7.9022e-77
4.29845e-80
2.08069e-83
8.89343e-87
3.32527e-90
1.07512e-93
2.96212e-97
6.82337e-101
1.2807e-104
1.88785e-108
2.06511e-112
1.51885e-116
6.05618e-121
5.1604e-126
9.09262e-137
7.03686e-143
5.35616e-149
4.67374e-155
6.31315e-161
8.93054e-167
1.11505e-172
8.23453e-179
3.15252e-185
5.16708e-192
1.90016e-199
1.42423e-204
6.30281e-06
2.1117e-11
4.4437e-14
1.07203e-16
2.66787e-19
6.60744e-22
1.59703e-24
3.72067e-27
8.28364e-30
1.75121e-32
3.49774e-35
6.57289e-38
1.1579e-40
1.90593e-43
2.92236e-46
4.16164e-49
5.48808e-52
6.68189e-55
7.4877e-58
7.69723e-61
7.23289e-64
6.18857e-67
4.80055e-70
3.35965e-73
2.10949e-76
1.18066e-79
5.84532e-83
2.53641e-86
9.53737e-90
3.06338e-93
8.24871e-97
1.81492e-100
3.14386e-104
4.04162e-108
3.45805e-112
1.49481e-116
6.25811e-122
5.01989e-129
4.62464e-136
3.24698e-142
2.45146e-148
2.25718e-154
3.2531e-160
4.81832e-166
6.24209e-172
4.596e-178
1.81111e-184
2.9321e-191
1.13094e-198
1.25672e-202
7.48513e-06
2.86774e-11
5.09162e-14
1.07397e-16
2.41967e-19
5.56412e-22
1.27114e-24
2.83516e-27
6.10008e-30
1.25496e-32
2.45176e-35
4.52315e-38
7.84203e-41
1.27225e-43
1.92369e-46
2.70056e-49
3.50647e-52
4.19468e-55
4.60439e-58
4.61743e-61
4.21033e-64
3.47227e-67
2.57437e-70
1.70391e-73
9.98482e-77
5.12839e-80
2.27994e-83
8.63282e-87
2.72422e-90
6.94691e-94
1.36493e-97
1.90009e-101
1.55026e-105
4.14087e-110
3.90433e-115
1.32025e-120
3.38122e-126
9.68387e-132
3.23672e-137
7.45609e-143
1.64206e-148
3.52451e-154
6.82767e-160
1.19293e-165
1.67736e-171
1.239e-177
5.11943e-184
8.17684e-191
5.62029e-198
1.08997e-200
8.41271e-06
3.58079e-11
4.88263e-14
8.14728e-17
1.50984e-19
2.94311e-22
5.81644e-25
1.13726e-27
2.16344e-30
3.95564e-33
6.88617e-36
1.13255e-38
1.74802e-41
2.51663e-44
3.36057e-47
4.13931e-50
4.67676e-53
4.8188e-56
4.49977e-59
3.7816e-62
2.83746e-65
1.88305e-68
1.09261e-71
5.46273e-75
2.30835e-78
8.02379e-82
2.2018e-85
4.4438e-89
5.65905e-93
4.22625e-97
2.06077e-101
6.28466e-106
1.26145e-110
1.87027e-115
2.45669e-120
2.5669e-125
2.01073e-130
1.3502e-135
8.12849e-141
3.85551e-146
1.72742e-151
5.43532e-157
1.17438e-162
1.40357e-168
9.49319e-175
2.55807e-181
2.08668e-188
4.64064e-194
2.07448e-196
9.28904e-199
9.09659e-06
4.18768e-11
4.15798e-14
4.94468e-17
6.66543e-20
9.72338e-23
1.46615e-25
2.20536e-28
3.22779e-31
4.51659e-34
5.96306e-37
7.34976e-40
8.38018e-43
8.7651e-46
8.34072e-49
7.15926e-52
5.49096e-55
3.72209e-58
2.20029e-61
1.115e-64
4.73163e-68
1.6245e-71
4.26345e-75
7.82231e-79
1.07002e-82
1.10119e-86
8.38119e-91
4.78967e-95
2.08336e-99
7.2656e-104
2.00006e-108
4.06836e-113
6.56803e-118
8.57996e-123
9.57592e-128
8.08831e-133
5.86798e-138
2.87675e-143
9.80578e-149
1.9228e-154
1.96916e-160
1.15439e-166
2.70934e-173
2.20772e-180
4.3024e-185
1.9309e-187
8.65927e-190
3.87972e-192
1.7368e-194
7.77574e-197
9.61962e-06
4.69404e-11
3.61985e-14
3.01085e-17
2.67148e-20
2.5227e-23
2.47846e-26
2.44671e-29
2.34664e-32
2.12923e-35
1.79195e-38
1.37782e-41
9.56048e-45
5.92388e-48
3.24885e-51
1.56787e-54
6.66778e-58
2.6102e-61
9.82737e-65
3.9443e-68
1.60163e-71
6.05681e-75
2.10383e-78
6.47994e-82
1.72247e-85
4.02999e-89
7.86716e-93
1.20918e-96
1.51916e-100
1.26085e-104
6.93321e-109
1.30018e-113
1.81895e-119
3.22551e-125
1.0583e-130
2.61154e-136
6.19113e-142
1.50509e-147
3.48275e-153
6.92057e-159
1.15124e-164
1.21271e-170
7.29021e-177
7.8727e-181
3.53176e-183
1.58615e-185
7.11626e-188
3.18906e-190
1.42765e-192
6.39066e-195
1.00951e-05
5.17205e-11
3.9208e-14
3.06449e-17
2.51131e-20
2.22647e-23
2.15561e-26
2.22823e-29
2.36626e-32
2.49158e-35
2.53535e-38
2.45035e-41
2.22244e-44
1.87461e-47
1.45943e-50
1.04136e-53
6.76584e-57
4.15795e-60
2.35391e-63
1.2183e-66
5.75183e-70
2.41749e-73
9.15836e-77
3.07898e-80
8.85485e-84
2.21869e-87
4.66974e-91
7.64087e-95
1.01488e-98
8.93581e-103
5.06188e-107
9.43535e-112
9.22114e-118
1.40297e-123
4.43427e-129
1.05581e-134
2.42369e-140
5.71307e-146
1.30328e-151
2.51381e-157
4.18369e-163
4.37463e-169
2.70491e-175
6.33029e-179
2.84519e-181
1.27867e-183
5.73932e-186
2.57259e-188
1.15171e-190
5.15476e-193
1.06404e-05
5.73784e-11
5.52383e-14
5.7185e-17
6.45909e-20
7.92011e-23
1.02341e-25
1.34337e-28
1.73811e-31
2.17049e-34
2.57877e-37
2.88516e-40
3.01541e-43
2.9241e-46
2.61464e-49
2.14274e-52
1.59947e-55
1.09118e-58
6.8587e-62
3.90228e-65
2.03229e-68
9.37501e-72
3.85586e-75
1.41552e-78
4.41779e-82
1.18421e-85
2.69105e-89
4.70623e-93
6.59396e-97
6.17936e-101
3.59983e-105
6.65997e-110
4.27796e-116
5.56304e-122
1.689e-127
3.88497e-133
8.64123e-139
1.97438e-144
4.44996e-150
8.3124e-156
1.38507e-161
1.43702e-167
9.52552e-174
4.9957e-177
2.24851e-179
1.01122e-181
4.54095e-184
2.03594e-186
9.11502e-189
4.07919e-191
1.1358e-05
6.52995e-11
8.89398e-14
1.29362e-16
1.98676e-19
3.15555e-22
5.05302e-25
7.97185e-28
1.21696e-30
1.77377e-33
2.44386e-36
3.15798e-39
3.80251e-42
4.24188e-45
4.3604e-48
4.10809e-51
3.52743e-54
2.74356e-57
1.9196e-60
1.20317e-63
6.90844e-67
3.5084e-70
1.56748e-73
6.28539e-77
2.13549e-80
6.12359e-84
1.50356e-87
2.82218e-91
4.16168e-95
4.16313e-99
2.4905e-103
4.56385e-108
1.79266e-114
1.98824e-120
5.78075e-126
1.28653e-131
2.77538e-137
6.14626e-143
1.37207e-148
2.47719e-154
4.13609e-160
4.25678e-166
3.34925e-172
3.86718e-175
1.74263e-177
7.84274e-180
3.52351e-182
1.58019e-184
7.07514e-187
3.16601e-189
1.34662e-228
9.70833e-231
6.73265e-233
4.48176e-235
2.86213e-237
1.75315e-239
1.02989e-241
5.80415e-244
3.13926e-246
1.62964e-248
8.12377e-251
3.88962e-253
1.79017e-255
7.92081e-258
3.37048e-260
1.38018e-262
5.44012e-265
2.06513e-267
7.55349e-270
2.66252e-272
9.05149e-275
2.96861e-277
9.39432e-280
2.87082e-282
8.47308e-285
2.41633e-287
6.66337e-290
1.77662e-292
4.58232e-295
1.14405e-297
2.7648e-300
6.47181e-303
1.46812e-305
3.22761e-308
6.87945e-311
1.42513e-313
0
0
0
0
0
0
0
0
0
0
0
0
0
0
0
0
0
0
0
0
0
0
0
0
0
0
0
0
0
0
0
0
0
0
0
0
0
0
0
0
0
0
0
0
0
0
0
0
0
0
0
0
0
0
0
0
0
0
0
0
0
0
0
0
0
0
0
0
0
0
0
0
0
0
0
0
0
0
0
0
0
0
0
0
0
0
0
0
0
0
0
0
0
0
0
0
0
0
0
0
0
0
0
0
0
0
0
0
0
0
0
0
0
0
0
0
0
0
0
0
0
0
0
0
0
0
0
0
0
0
0
0
0
0
0
0
0
0
0
0
0
0
0
0
0
0
0
0
0
0
0
0
0
0
0
0
0
0
0
0
0
0
0
0
0
0
0
0
0
0
0
0
0
0
0
0
0
0
0
0
0
0
0
0
0
0
0
0
0
0
0
0
0
0
0
0
0
0
0
0
0
0
0
0
0
0
0
0
0
0
0
0
0
0
0
0
0
0
0
0
0
0
0
0
0
0
0
0
0
0
0
0
0
0
0
0
0
0
0
0
0
0
0
0
0
0
0
0
0
0
0
0
0
0
0
0
0
0
0
0
0
0
0
0
1.41951e-226
1.02374e-228
7.09778e-231
4.72365e-233
3.01586e-235
1.84687e-237
1.08469e-239
6.11158e-242
3.30482e-244
1.71523e-246
8.54874e-249
4.09233e-251
1.88315e-253
8.33089e-256
3.54447e-258
1.45124e-260
5.71959e-263
2.17102e-265
7.94018e-268
2.79865e-270
9.51394e-273
3.12022e-275
9.87407e-278
3.01749e-280
8.90632e-283
2.54003e-285
7.00508e-288
1.86791e-290
4.81839e-293
1.20316e-295
2.90814e-298
6.80859e-301
1.54484e-303
3.39706e-306
7.24225e-309
1.49775e-311
2.8955e-314
0
0
0
0
0
0
0
0
0
0
0
0
0
0
0
0
0
0
0
0
0
0
0
0
0
0
0
0
0
0
0
0
0
0
0
0
0
0
0
0
0
0
0
0
0
0
0
0
0
0
0
0
0
0
0
0
0
0
0
0
0
0
0
0
0
0
0
0
0
0
0
0
0
0
0
0
0
0
0
0
0
0
0
0
0
0
0
0
0
0
0
0
0
0
0
0
0
0
0
0
0
0
0
0
0
0
0
0
0
0
0
0
0
0
0
0
0
0
0
0
0
0
0
0
0
0
0
0
0
0
0
0
0
0
0
0
0
0
0
0
0
0
0
0
0
0
0
0
0
0
0
0
0
0
0
0
0
0
0
0
0
0
0
0
0
0
0
0
0
0
0
0
0
0
0
0
0
0
0
0
0
0
0
0
0
0
0
0
0
0
0
0
0
0
0
0
0
0
0
0
0
0
0
0
0
0
0
0
0
0
0
0
0
0
0
0
0
0
0
0
0
0
0
0
0
0
0
0
0
0
0
0
0
0
0
0
0
0
0
0
0
0
0
0
0
0
0
0
0
0
0
0
0
0
0
0
0
0
0
0
0
0
0
1.47337e-224
1.06248e-226
7.36458e-229
4.90002e-231
3.12773e-233
1.91493e-235
1.1244e-237
6.33394e-240
3.42433e-242
1.7769e-244
8.85443e-247
4.2379e-249
1.94981e-251
8.62453e-254
3.66891e-256
1.50201e-258
5.91906e-261
2.24654e-263
8.2158e-266
2.89565e-268
9.84336e-271
3.22821e-273
1.02158e-275
3.12202e-278
9.21526e-281
2.62831e-283
7.24918e-286
1.93321e-288
4.98746e-291
1.24556e-293
3.01115e-296
7.0511e-299
1.6002e-301
3.51964e-304
7.50547e-307
1.55248e-309
3.11635e-312
4.54431e-315
0
0
0
0
0
0
0
0
0
0
0
0
0
0
0
0
0
0
0
0
0
0
0
0
0
0
0
0
0
0
0
0
0
0
0
0
0
0
0
0
0
0
0
0
0
0
0
0
0
0
0
0
0
0
0
0
0
0
0
0
0
0
0
0
0
0
0
0
0
0
0
0
0
0
0
0
0
0
0
0
0
0
0
0
0
0
0
0
0
0
0
0
0
0
0
0
0
0
0
0
0
0
0
0
0
0
0
0
0
0
0
0
0
0
0
0
0
0
0
0
0
0
0
0
0
0
0
0
0
0
0
0
0
0
0
0
0
0
0
0
0
0
0
0
0
0
0
0
0
0
0
0
0
0
0
0
0
0
0
0
0
0
0
0
0
0
0
0
0
0
0
0
0
0
0
0
0
0
0
0
0
0
0
0
0
0
0
0
0
0
0
0
0
0
0
0
0
0
0
0
0
0
0
0
0
0
0
0
0
0
0
0
0
0
0
0
0
0
0
0
0
0
0
0
0
0
0
0
0
0
0
0
0
0
0
0
0
0
0
0
0
0
0
0
0
0
0
0
0
0
0
0
0
0
0
0
0
0
0
0
0
0
1.505e-222
1.08506e-224
7.51932e-227
5.00182e-229
3.19197e-231
1.95382e-233
1.14698e-235
6.45976e-238
3.49165e-240
1.81148e-242
9.0251e-245
4.31885e-247
1.98675e-249
8.78665e-252
3.73739e-254
1.52987e-256
6.02828e-259
2.28781e-261
8.36622e-264
2.94853e-266
1.00229e-268
3.28706e-271
1.04022e-273
3.17906e-276
9.38413e-279
2.67666e-281
7.38324e-284
1.96919e-286
5.08095e-289
1.26911e-291
3.06861e-294
7.18708e-297
1.63142e-299
3.58916e-302
7.65572e-305
1.584e-307
3.17974e-310
6.19844e-313
0
0
0
0
0
0
0
0
0
0
0
0
0
0
0
0
0
0
0
0
0
0
0
0
0
0
0
0
0
0
0
0
0
0
0
0
0
0
0
0
0
0
0
0
0
0
0
0
0
0
0
0
0
0
0
0
0
0
0
0
0
0
0
0
0
0
0
0
0
0
0
0
0
0
0
0
0
0
0
0
0
0
0
0
0
0
0
0
0
0
0
0
0
0
0
0
0
0
0
0
0
0
0
0
0
0
0
0
0
0
0
0
0
0
0
0
0
0
0
0
0
0
0
0
0
0
0
0
0
0
0
0
0
0
0
0
0
0
0
0
0
0
0
0
0
0
0
0
0
0
0
0
0
0
0
0
0
0
0
0
0
0
0
0
0
0
0
0
0
0
0
0
0
0
0
0
0
0
0
0
0
0
0
0
0
0
0
0
0
0
0
0
0
0
0
0
0
0
0
0
0
0
0
0
0
0
0
0
0
0
0
0
0
0
0
0
0
0
0
0
0
0
0
0
0
0
0
0
0
0
0
0
0
0
0
0
0
0
0
0
0
0
0
0
0
0
0
0
0
0
0
0
0
0
0
0
0
0
0
0
0
0
1.5125e-220
1.09022e-222
7.55332e-225
5.0233e-227
3.20497e-229
1.96135e-231
1.15115e-233
6.48195e-236
3.50295e-238
1.81701e-240
9.05108e-243
4.33057e-245
1.99185e-247
8.80803e-250
3.74603e-252
1.53325e-254
6.04104e-257
2.29249e-259
8.38287e-262
2.95428e-264
1.00422e-266
3.29341e-269
1.04225e-271
3.18538e-274
9.40335e-277
2.68236e-279
7.3997e-282
1.97382e-284
5.09359e-287
1.27247e-289
3.07731e-292
7.20893e-295
1.63675e-297
3.60177e-300
7.68467e-303
1.59045e-305
3.19364e-308
6.22456e-311
1.17631e-313
0
0
0
0
0
0
0
0
0
0
0
0
0
0
0
0
0
0
0
0
0
0
0
0
0
0
0
0
0
0
0
0
0
0
0
0
0
0
0
0
0
0
0
0
0
0
0
0
0
0
0
0
0
0
0
0
0
0
0
0
0
0
0
0
0
0
0
0
0
0
0
0
0
0
0
0
0
0
0
0
0
0
0
0
0
0
0
0
0
0
0
0
0
0
0
0
0
0
0
0
0
0
0
0
0
0
0
0
0
0
0
0
0
0
0
0
0
0
0
0
0
0
0
0
0
0
0
0
0
0
0
0
0
0
0
0
0
0
0
0
0
0
0
0
0
0
0
0
0
0
0
0
0
0
0
0
0
0
0
0
0
0
0
0
0
0
0
0
0
0
0
0
0
0
0
0
0
0
0
0
0
0
0
0
0
0
0
0
0
0
0
0
0
0
0
0
0
0
0
0
0
0
0
0
0
0
0
0
0
0
0
0
0
0
0
0
0
0
0
0
0
0
0
0
0
0
0
0
0
0
0
0
0
0
0
0
0
0
0
0
0
0
0
0
0
0
0
0
0
0
0
0
0
0
0
0
0
0
0
0
0
1.49521e-218
1.07751e-220
7.46364e-223
4.96258e-225
3.16556e-227
1.93683e-229
1.13653e-231
6.39834e-234
3.45713e-236
1.79293e-238
8.92962e-241
4.27179e-243
1.96454e-245
8.68619e-248
3.6938e-250
1.51172e-252
5.95576e-255
2.25998e-257
8.26361e-260
2.91216e-262
9.89896e-265
3.24645e-267
1.02741e-269
3.14019e-272
9.27055e-275
2.6447e-277
7.29661e-280
1.94657e-282
5.02401e-285
1.2553e-287
3.03636e-290
7.1145e-293
1.61568e-295
3.55632e-298
7.58977e-301
1.57126e-303
3.15611e-306
6.15333e-309
1.16499e-311
2.02866e-314
0
0
0
0
0
0
0
0
0
0
0
0
0
0
0
0
0
0
0
0
0
0
0
0
0
0
0
0
0
0
0
0
0
0
0
0
0
0
0
0
0
0
0
0
0
0
0
0
0
0
0
0
0
0
0
0
0
0
0
0
0
0
0
0
0
0
0
0
0
0
0
0
0
0
0
0
0
0
0
0
0
0
0
0
0
0
0
0
0
0
0
0
0
0
0
0
0
0
0
0
0
0
0
0
0
0
0
0
0
0
0
0
0
0
0
0
0
0
0
0
0
0
0
0
0
0
0
0
0
0
0
0
0
0
0
0
0
0
0
0
0
0
0
0
0
0
0
0
0
0
0
0
0
0
0
0
0
0
0
0
0
0
0
0
0
0
0
0
0
0
0
0
0
0
0
0
0
0
0
0
0
0
0
0
0
0
0
0
0
0
0
0
0
0
0
0
0
0
0
0
0
0
0
0
0
0
0
0
0
0
0
0
0
0
0
0
0
0
0
0
0
0
0
0
0
0
0
0
0
0
0
0
0
0
0
0
0
0
0
0
0
0
0
0
0
0
0
0
0
0
0
0
0
0
0
0
0
0
0
0
1.45376e-216
1.04741e-218
7.25364e-221
4.82196e-223
3.07523e-225
1.88119e-227
1.10366e-229
6.21216e-232
3.35593e-234
1.74015e-236
8.66545e-239
4.14481e-241
1.9059e-243
8.42592e-246
3.58275e-248
1.46614e-250
5.77577e-253
2.19156e-255
8.01313e-258
2.82382e-260
9.59867e-263
3.14802e-265
9.96292e-268
3.04524e-270
8.99091e-273
2.56516e-275
7.07799e-278
1.8885e-280
4.87488e-283
1.21826e-285
2.94734e-288
6.9074e-291
1.56903e-293
3.45452e-296
7.37458e-299
1.52717e-301
3.06853e-304
5.98461e-307
1.13333e-309
2.0866e-312
2.45933e-315
0
0
0
0
0
0
0
0
0
0
0
0
0
0
0
0
0
0
0
0
0
0
0
0
0
0
0
0
0
0
0
0
0
0
0
0
0
0
0
0
0
0
0
0
0
0
0
0
0
0
0
0
0
0
0
0
0
0
0
0
0
0
0
0
0
0
0
0
0
0
0
0
0
0
0
0
0
0
0
0
0
0
0
0
0
0
0
0
0
0
0
0
0
0
0
0
0
0
0
0
0
0
0
0
0
0
0
0
0
0
0
0
0
0
0
0
0
0
0
0
0
0
0
0
0
0
0
0
0
0
0
0
0
0
0
0
0
0
0
0
0
0
0
0
0
0
0
0
0
0
0
0
0
0
0
0
0
0
0
0
0
0
0
0
0
0
0
0
0
0
0
0
0
0
0
0
0
0
0
0
0
0
0
0
0
0
0
0
0
0
0
0
0
0
0
0
0
0
0
0
0
0
0
0
0
0
0
0
0
0
0
0
0
0
0
0
0
0
0
0
0
0
0
0
0
0
0
0
0
0
0
0
0
0
0
0
0
0
0
0
0
0
0
0
0
0
0
0
0
0
0
0
0
0
0
0
0
0
0
1.38999e-214
1.00125e-216
6.93263e-219
4.60766e-221
2.93799e-223
1.7969e-225
1.05401e-227
5.93165e-230
3.20386e-232
1.66104e-234
8.27027e-237
3.95524e-239
1.81851e-241
8.03872e-244
3.41779e-246
1.39852e-248
5.50905e-251
2.09025e-253
7.64249e-256
2.69317e-258
9.15461e-261
3.00245e-263
9.50262e-266
2.90472e-268
8.57674e-271
2.44724e-273
6.75344e-276
1.80216e-278
4.65275e-281
1.16296e-283
2.81413e-286
6.59668e-289
1.49881e-291
3.30081e-294
7.04846e-297
1.46008e-299
2.93469e-302
5.72556e-305
1.08467e-307
1.99614e-310
3.57274e-313
0
0
0
0
0
0
0
0
0
0
0
0
0
0
0
0
0
0
0
0
0
0
0
0
0
0
0
0
0
0
0
0
0
0
0
0
0
0
0
0
0
0
0
0
0
0
0
0
0
0
0
0
0
0
0
0
0
0
0
0
0
0
0
0
0
0
0
0
0
0
0
0
0
0
0
0
0
0
0
0
0
0
0
0
0
0
0
0
0
0
0
0
0
0
0
0
0
0
0
0
0
0
0
0
0
0
0
0
0
0
0
0
0
0
0
0
0
0
0
0
0
0
0
0
0
0
0
0
0
0
0
0
0
0
0
0
0
0
0
0
0
0
0
0
0
0
0
0
0
0
0
0
0
0
0
0
0
0
0
0
0
0
0
0
0
0
0
0
0
0
0
0
0
0
0
0
0
0
0
0
0
0
0
0
0
0
0
0
0
0
0
0
0
0
0
0
0
0
0
0
0
0
0
0
0
0
0
0
0
0
0
0
0
0
0
0
0
0
0
0
0
0
0
0
0
0
0
0
0
0
0
0
0
0
0
0
0
0
0
0
0
0
0
0
0
0
0
0
0
0
0
0
0
0
0
0
0
0
0
1.30682e-212
9.41154e-215
6.51529e-217
4.32947e-219
2.76011e-221
1.68779e-223
9.89844e-226
5.56958e-228
3.00782e-230
1.55917e-232
7.762e-235
3.71169e-237
1.70634e-239
7.54212e-242
3.20637e-244
1.31192e-246
5.16761e-249
1.96063e-251
7.16838e-254
2.52608e-256
8.58674e-259
2.81629e-261
8.91385e-264
2.72493e-266
8.04659e-269
2.29622e-271
6.33748e-274
1.69141e-276
4.36755e-279
1.09188e-281
2.64268e-284
6.19621e-287
1.40817e-289
3.10205e-292
6.62596e-295
1.37299e-297
2.76055e-300
5.38771e-303
1.02105e-305
1.87979e-308
3.36246e-311
5.75397e-314
0
0
0
0
0
0
0
0
0
0
0
0
0
0
0
0
0
0
0
0
0
0
0
0
0
0
0
0
0
0
0
0
0
0
0
0
0
0
0
0
0
0
0
0
0
0
0
0
0
0
0
0
0
0
0
0
0
0
0
0
0
0
0
0
0
0
0
0
0
0
0
0
0
0
0
0
0
0
0
0
0
0
0
0
0
0
0
0
0
0
0
0
0
0
0
0
0
0
0
0
0
0
0
0
0
0
0
0
0
0
0
0
0
0
0
0
0
0
0
0
0
0
0
0
0
0
0
0
0
0
0
0
0
0
0
0
0
0
0
0
0
0
0
0
0
0
0
0
0
0
0
0
0
0
0
0
0
0
0
0
0
0
0
0
0
0
0
0
0
0
0
0
0
0
0
0
0
0
0
0
0
0
0
0
0
0
0
0
0
0
0
0
0
0
0
0
0
0
0
0
0
0
0
0
0
0
0
0
0
0
0
0
0
0
0
0
0
0
0
0
0
0
0
0
0
0
0
0
0
0
0
0
0
0
0
0
0
0
0
0
0
0
0
0
0
0
0
0
0
0
0
0
0
0
0
0
0
0
1.208e-210
8.69821e-213
6.0204e-215
3.9999e-217
2.54955e-219
1.55877e-221
9.14023e-224
5.14213e-226
2.77656e-228
1.43909e-230
7.16326e-233
3.42496e-235
1.57436e-237
6.95812e-240
2.95786e-242
1.21016e-244
4.76655e-247
1.8084e-249
6.6117e-252
2.32991e-254
7.92005e-257
2.59772e-259
8.22249e-262
2.51377e-264
7.42373e-267
2.11871e-269
5.84835e-272
1.56111e-274
4.03176e-277
1.00813e-279
2.4405e-282
5.7235e-285
1.30108e-287
2.86692e-290
6.12554e-293
1.2697e-295
2.55373e-298
4.98583e-301
9.45241e-304
1.74092e-306
3.11521e-309
5.41874e-312
7.85195e-315
0
0
0
0
0
0
0
0
0
0
0
0
0
0
0
0
0
0
0
0
0
0
0
0
0
0
0
0
0
0
0
0
0
0
0
0
0
0
0
0
0
0
0
0
0
0
0
0
0
0
0
0
0
0
0
0
0
0
0
0
0
0
0
0
0
0
0
0
0
0
0
0
0
0
0
0
0
0
0
0
0
0
0
0
0
0
0
0
0
0
0
0
0
0
0
0
0
0
0
0
0
0
0
0
0
0
0
0
0
0
0
0
0
0
0
0
0
0
0
0
0
0
0
0
0
0
0
0
0
0
0
0
0
0
0
0
0
0
0
0
0
0
0
0
0
0
0
0
0
0
0
0
0
0
0
0
0
0
0
0
0
0
0
0
0
0
0
0
0
0
0
0
0
0
0
0
0
0
0
0
0
0
0
0
0
0
0
0
0
0
0
0
0
0
0
0
0
0
0
0
0
0
0
0
0
0
0
0
0
0
0
0
0
0
0
0
0
0
0
0
0
0
0
0
0
0
0
0
0
0
0
0
0
0
0
0
0
0
0
0
0
0
0
0
0
0
0
0
0
0
0
0
0
0
0
0
0
1.09784e-208
7.90356e-211
5.46944e-213
3.63322e-215
2.31544e-217
1.4154e-219
8.2982e-222
4.6677e-224
2.52001e-226
1.30594e-228
6.4997e-231
3.10733e-233
1.42821e-235
6.31164e-238
2.68284e-240
1.09757e-242
4.3229e-245
1.64003e-247
5.99606e-250
2.11296e-252
7.18276e-255
2.35599e-257
7.45776e-260
2.28015e-262
6.73445e-265
1.92222e-267
5.30668e-270
1.41674e-272
3.65955e-275
9.15238e-278
2.21611e-280
5.1985e-283
1.18204e-285
2.60535e-288
5.56833e-291
1.15457e-293
2.32296e-296
4.53692e-299
8.6046e-302
1.58541e-304
2.83814e-307
4.93775e-310
8.36233e-313
0
0
0
0
0
0
0
0
0
0
0
0
0
0
0
0
0
0
0
0
0
0
0
0
0
0
0
0
0
0
0
0
0
0
0
0
0
0
0
0
0
0
0
0
0
0
0
0
0
0
0
0
0
0
0
0
0
0
0
0
0
0
0
0
0
0
0
0
0
0
0
0
0
0
0
0
0
0
0
0
0
0
0
0
0
0
0
0
0
0
0
0
0
0
0
0
0
0
0
0
0
0
0
0
0
0
0
0
0
0
0
0
0
0
0
0
0
0
0
0
0
0
0
0
0
0
0
0
0
0
0
0
0
0
0
0
0
0
0
0
0
0
0
0
0
0
0
0
0
0
0
0
0
0
0
0
0
0
0
0
0
0
0
0
0
0
0
0
0
0
0
0
0
0
0
0
0
0
0
0
0
0
0
0
0
0
0
0
0
0
0
0
0
0
0
0
0
0
0
0
0
0
0
0
0
0
0
0
0
0
0
0
0
0
0
0
0
0
0
0
0
0
0
0
0
0
0
0
0
0
0
0
0
0
0
0
0
0
0
0
0
0
0
0
0
0
0
0
0
0
0
0
0
0
0
0
0
9.8084e-207
7.05998e-209
4.88484e-211
3.24433e-213
2.06726e-215
1.26349e-217
7.40637e-220
4.16541e-222
2.24852e-224
1.16509e-226
5.79796e-229
2.77153e-231
1.27374e-233
5.62852e-236
2.39229e-238
9.78651e-241
3.85434e-243
1.46223e-245
5.34593e-248
1.88387e-250
6.40414e-253
2.10068e-255
6.64998e-258
2.03333e-260
6.00607e-263
1.71452e-265
4.73393e-268
1.26403e-270
3.26567e-273
8.16891e-276
1.97841e-278
4.64203e-281
1.05578e-283
2.32772e-286
4.97647e-289
1.03218e-291
2.07743e-294
4.05885e-297
7.70087e-300
1.41947e-302
2.54216e-305
4.42476e-308
7.48777e-311
1.23527e-313
0
0
0
0
0
0
0
0
0
0
0
0
0
0
0
0
0
0
0
0
0
0
0
0
0
0
0
0
0
0
0
0
0
0
0
0
0
0
0
0
0
0
0
0
0
0
0
0
0
0
0
0
0
0
0
0
0
0
0
0
0
0
0
0
0
0
0
0
0
0
0
0
0
0
0
0
0
0
0
0
0
0
0
0
0
0
0
0
0
0
0
0
0
0
0
0
0
0
0
0
0
0
0
0
0
0
0
0
0
0
0
0
0
0
0
0
0
0
0
0
0
0
0
0
0
0
0
0
0
0
0
0
0
0
0
0
0
0
0
0
0
0
0
0
0
0
0
0
0
0
0
0
0
0
0
0
0
0
0
0
0
0
0
0
0
0
0
0
0
0
0
0
0
0
0
0
0
0
0
0
0
0
0
0
0
0
0
0
0
0
0
0
0
0
0
0
0
0
0
0
0
0
0
0
0
0
0
0
0
0
0
0
0
0
0
0
0
0
0
0
0
0
0
0
0
0
0
0
0
0
0
0
0
0
0
0
0
0
0
0
0
0
0
0
0
0
0
0
0
0
0
0
0
0
0
0
8.6137e-205
6.19894e-207
4.28837e-209
2.8477e-211
1.81423e-213
1.10866e-215
6.49775e-218
3.65384e-220
1.97208e-222
1.02172e-224
5.08384e-227
2.42989e-229
1.11662e-231
4.93379e-234
2.09686e-236
8.5774e-239
3.37799e-241
1.28148e-243
4.68505e-246
1.65098e-248
5.61258e-251
1.84111e-253
5.82861e-256
1.78232e-258
5.26516e-261
1.50319e-263
4.15101e-266
1.10856e-268
2.8645e-271
7.16684e-274
1.7361e-276
4.07447e-279
9.26938e-282
2.04424e-284
4.37173e-287
9.07042e-290
1.8262e-292
3.56931e-295
6.77467e-298
1.24926e-300
2.23827e-303
3.89758e-306
6.59864e-309
1.08663e-311
1.61375e-314
0
0
0
0
0
0
0
0
0
0
0
0
0
0
0
0
0
0
0
0
0
0
0
0
0
0
0
0
0
0
0
0
0
0
0
0
0
0
0
0
0
0
0
0
0
0
0
0
0
0
0
0
0
0
0
0
0
0
0
0
0
0
0
0
0
0
0
0
0
0
0
0
0
0
0
0
0
0
0
0
0
0
0
0
0
0
0
0
0
0
0
0
0
0
0
0
0
0
0
0
0
0
0
0
0
0
0
0
0
0
0
0
0
0
0
0
0
0
0
0
0
0
0
0
0
0
0
0
0
0
0
0
0
0
0
0
0
0
0
0
0
0
0
0
0
0
0
0
0
0
0
0
0
0
0
0
0
0
0
0
0
0
0
0
0
0
0
0
0
0
0
0
0
0
0
0
0
0
0
0
0
0
0
0
0
0
0
0
0
0
0
0
0
0
0
0
0
0
0
0
0
0
0
0
0
0
0
0
0
0
0
0
0
0
0
0
0
0
0
0
0
0
0
0
0
0
0
0
0
0
0
0
0
0
0
0
0
0
0
0
0
0
0
0
0
0
0
0
0
0
0
0
0
0
0
7.43403e-203
5.34904e-205
3.69979e-207
2.45644e-209
1.56471e-211
9.56023e-214
5.60225e-216
3.1498e-218
1.69979e-220
8.80527e-223
4.38076e-225
2.0936e-227
9.61987e-230
4.25016e-232
1.80618e-234
7.38788e-237
2.90939e-239
1.10368e-241
4.03496e-244
1.4219e-246
4.8339e-249
1.58574e-251
5.02043e-254
1.53531e-256
4.53589e-259
1.29514e-261
3.57698e-264
9.55407e-267
2.4692e-269
6.17905e-272
1.49715e-274
3.51452e-277
7.9976e-280
1.76427e-282
3.77415e-285
7.83312e-288
1.57764e-290
3.08462e-293
5.85699e-296
1.08048e-298
1.93671e-301
3.37397e-304
5.71487e-307
9.41426e-310
1.5114e-312
0
0
0
0
0
0
0
0
0
0
0
0
0
0
0
0
0
0
0
0
0
0
0
0
0
0
0
0
0
0
0
0
0
0
0
0
0
0
0
0
0
0
0
0
0
0
0
0
0
0
0
0
0
0
0
0
0
0
0
0
0
0
0
0
0
0
0
0
0
0
0
0
0
0
0
0
0
0
0
0
0
0
0
0
0
0
0
0
0
0
0
0
0
0
0
0
0
0
0
0
0
0
0
0
0
0
0
0
0
0
0
0
0
0
0
0
0
0
0
0
0
0
0
0
0
0
0
0
0
0
0
0
0
0
0
0
0
0
0
0
0
0
0
0
0
0
0
0
0
0
0
0
0
0
0
0
0
0
0
0
0
0
0
0
0
0
0
0
0
0
0
0
0
0
0
0
0
0
0
0
0
0
0
0
0
0
0
0
0
0
0
0
0
0
0
0
0
0
0
0
0
0
0
0
0
0
0
0
0
0
0
0
0
0
0
0
0
0
0
0
0
0
0
0
0
0
0
0
0
0
0
0
0
0
0
0
0
0
0
0
0
0
0
0
0
0
0
0
0
0
0
0
0
0
0