/*--------------------------------*- C++ -*----------------------------------*\
| =========                 |                                                 |
| \\      /  F ield         | OpenFOAM: The Open Source CFD Toolbox           |
|  \\    /   O peration     | Version:  2.4.0                                 |
|   \\  /    A nd           | Web:      www.OpenFOAM.org                      |
|    \\/     M anipulation  |                                                 |
\*---------------------------------------------------------------------------*/
FoamFile
{
    version     2.0;
    format      ascii;
    class       volVectorField;
    location    "0.01";
    object      U;
}
// * * * * * * * * * * * * * * * * * * * * * * * * * * * * * * * * * * * * * //

dimensions      [0 1 -1 0 0 0 0];

internalField   nonuniform List<vector> 
125
(
(1.15964e-05 -0.0210266 0)
(1.14406e-05 -0.0210266 0)
(1.12857e-05 -0.0210266 0)
(1.11316e-05 -0.0210266 0)
(1.09783e-05 -0.0210266 0)
(1.0826e-05 -0.0210266 0)
(1.06745e-05 -0.0210266 0)
(1.05239e-05 -0.0210266 0)
(1.03741e-05 -0.0210265 0)
(1.02252e-05 -0.0210265 0)
(1.00773e-05 -0.0210265 0)
(9.93015e-06 -0.0210265 0)
(9.78394e-06 -0.0210265 0)
(9.63863e-06 -0.0210265 0)
(9.49421e-06 -0.0210265 0)
(9.35069e-06 -0.0210265 0)
(9.20808e-06 -0.0210265 0)
(9.06638e-06 -0.0210265 0)
(8.92559e-06 -0.0210265 0)
(8.78572e-06 -0.0210265 0)
(8.64676e-06 -0.0210265 0)
(8.50872e-06 -0.0210265 0)
(8.3716e-06 -0.0210264 0)
(8.23541e-06 -0.0210264 0)
(8.10014e-06 -0.0210264 0)
(7.9658e-06 -0.0210264 0)
(7.83238e-06 -0.0210264 0)
(7.6999e-06 -0.0210264 0)
(7.56834e-06 -0.0210264 0)
(7.43771e-06 -0.0210264 0)
(7.30802e-06 -0.0210264 0)
(7.17924e-06 -0.0210264 0)
(7.0514e-06 -0.0210264 0)
(6.92448e-06 -0.0210264 0)
(6.79849e-06 -0.0210264 0)
(6.67342e-06 -0.0210264 0)
(6.54928e-06 -0.0210264 0)
(6.42605e-06 -0.0210264 0)
(6.30374e-06 -0.0210264 0)
(6.18234e-06 -0.0210264 0)
(6.06185e-06 -0.0210264 0)
(5.94226e-06 -0.0210264 0)
(5.82358e-06 -0.0210264 0)
(5.7058e-06 -0.0210264 0)
(5.58891e-06 -0.0210263 0)
(5.4729e-06 -0.0210263 0)
(5.35778e-06 -0.0210263 0)
(5.24354e-06 -0.0210263 0)
(5.13016e-06 -0.0210263 0)
(5.01765e-06 -0.0210263 0)
(4.906e-06 -0.0210263 0)
(4.7952e-06 -0.0210263 0)
(4.68525e-06 -0.0210263 0)
(4.57613e-06 -0.0210263 0)
(4.46784e-06 -0.0210263 0)
(4.36036e-06 -0.0210263 0)
(4.25371e-06 -0.0210263 0)
(4.14785e-06 -0.0210263 0)
(4.04279e-06 -0.0210263 0)
(3.93851e-06 -0.0210263 0)
(3.83501e-06 -0.0210263 0)
(3.73227e-06 -0.0210263 0)
(3.63029e-06 -0.0210263 0)
(3.52905e-06 -0.0210263 0)
(3.42855e-06 -0.0210264 0)
(3.32877e-06 -0.0210264 0)
(3.22969e-06 -0.0210264 0)
(3.13132e-06 -0.0210264 0)
(3.03363e-06 -0.0210264 0)
(2.93661e-06 -0.0210264 0)
(2.84025e-06 -0.0210264 0)
(2.74454e-06 -0.0210264 0)
(2.64945e-06 -0.0210264 0)
(2.55498e-06 -0.0210264 0)
(2.46112e-06 -0.0210264 0)
(2.36783e-06 -0.0210264 0)
(2.27512e-06 -0.0210264 0)
(2.18295e-06 -0.0210264 0)
(2.09132e-06 -0.0210264 0)
(2.00021e-06 -0.0210264 0)
(1.90958e-06 -0.0210264 0)
(1.81943e-06 -0.0210264 0)
(1.72974e-06 -0.0210264 0)
(1.64048e-06 -0.0210264 0)
(1.55163e-06 -0.0210265 0)
(1.46316e-06 -0.0210265 0)
(1.37507e-06 -0.0210265 0)
(1.28731e-06 -0.0210265 0)
(1.19986e-06 -0.0210265 0)
(1.11271e-06 -0.0210265 0)
(1.02581e-06 -0.0210265 0)
(9.39153e-07 -0.0210265 0)
(8.52702e-07 -0.0210265 0)
(7.66431e-07 -0.0210265 0)
(6.80309e-07 -0.0210265 0)
(5.94309e-07 -0.0210266 0)
(5.08401e-07 -0.0210266 0)
(4.22556e-07 -0.0210266 0)
(3.36744e-07 -0.0210266 0)
(2.50936e-07 -0.0210266 0)
(1.65103e-07 -0.0210266 0)
(7.92173e-08 -0.0210266 0)
(-6.74989e-09 -0.0210266 0)
(-9.2825e-08 -0.0210267 0)
(-1.79034e-07 -0.0210267 0)
(-2.65401e-07 -0.0210267 0)
(-3.51949e-07 -0.0210267 0)
(-4.38699e-07 -0.0210267 0)
(-5.25672e-07 -0.0210267 0)
(-6.12884e-07 -0.0210267 0)
(-7.00352e-07 -0.0210267 0)
(-7.88088e-07 -0.0210268 0)
(-8.76103e-07 -0.0210268 0)
(-9.64407e-07 -0.0210268 0)
(-1.05301e-06 -0.0210268 0)
(-1.1419e-06 -0.0210268 0)
(-1.2311e-06 -0.0210268 0)
(-1.3206e-06 -0.0210269 0)
(-1.41041e-06 -0.0210269 0)
(-1.50051e-06 -0.0210269 0)
(-1.59092e-06 -0.0210269 0)
(-1.68162e-06 -0.0210269 0)
(-1.77262e-06 -0.0210269 0)
(-1.86392e-06 -0.021027 0)
(-1.95552e-06 -0.021027 0)
)
;

boundaryField
{
    BotWall
    {
        type            fixedValue;
        value           nonuniform 0();
    }
    FreeStream
    {
        type            zeroGradient;
    }
    FrontNBack
    {
        type            empty;
    }
    LeftSide
    {
        type            symmetryPlane;
    }
    RightSide
    {
        type            symmetryPlane;
    }
    procBoundary10to7
    {
        type            processor;
        value           nonuniform List<vector> 
50
(
(-3.50217e-06 -0.0210271 0)
(-3.46137e-06 -0.0210272 0)
(-3.42096e-06 -0.0210272 0)
(-3.38088e-06 -0.0210272 0)
(-3.34111e-06 -0.0210272 0)
(-3.30161e-06 -0.0210272 0)
(-3.26234e-06 -0.0210272 0)
(-3.22324e-06 -0.0210273 0)
(-3.18428e-06 -0.0210273 0)
(-3.14541e-06 -0.0210273 0)
(-3.10658e-06 -0.0210273 0)
(-3.06774e-06 -0.0210273 0)
(-3.02882e-06 -0.0210273 0)
(-2.98979e-06 -0.0210273 0)
(-2.95057e-06 -0.0210273 0)
(-2.9111e-06 -0.0210274 0)
(-2.87133e-06 -0.0210274 0)
(-2.83118e-06 -0.0210274 0)
(-2.7906e-06 -0.0210274 0)
(-2.74951e-06 -0.0210274 0)
(-2.70784e-06 -0.0210274 0)
(-2.66553e-06 -0.0210274 0)
(-2.6225e-06 -0.0210274 0)
(-2.57868e-06 -0.0210274 0)
(-2.53399e-06 -0.0210274 0)
(-2.48837e-06 -0.0210274 0)
(-2.44175e-06 -0.0210274 0)
(-2.39405e-06 -0.0210274 0)
(-2.3452e-06 -0.0210274 0)
(-2.29514e-06 -0.0210274 0)
(-2.24381e-06 -0.0210274 0)
(-2.19112e-06 -0.0210274 0)
(-2.13704e-06 -0.0210274 0)
(-2.08151e-06 -0.0210274 0)
(-2.02446e-06 -0.0210274 0)
(-1.96585e-06 -0.0210274 0)
(-1.90565e-06 -0.0210274 0)
(-1.8438e-06 -0.0210274 0)
(-1.78028e-06 -0.0210274 0)
(-1.71507e-06 -0.0210274 0)
(-1.64813e-06 -0.0210274 0)
(-1.57945e-06 -0.0210274 0)
(-1.50902e-06 -0.0210274 0)
(-1.43683e-06 -0.0210274 0)
(-1.36288e-06 -0.0210273 0)
(-1.28717e-06 -0.0210273 0)
(-1.20971e-06 -0.0210273 0)
(-1.1305e-06 -0.0210273 0)
(-1.04956e-06 -0.0210273 0)
(-9.66892e-07 -0.0210273 0)
)
;
    }
    procBoundary10to8
    {
        type            processor;
        value           nonuniform List<vector> 
75
(
(-9.04938e-06 -0.021024 0)
(-8.92923e-06 -0.021024 0)
(-8.81068e-06 -0.0210241 0)
(-8.69372e-06 -0.0210242 0)
(-8.57834e-06 -0.0210242 0)
(-8.46452e-06 -0.0210243 0)
(-8.35224e-06 -0.0210244 0)
(-8.2415e-06 -0.0210244 0)
(-8.13228e-06 -0.0210245 0)
(-8.02456e-06 -0.0210246 0)
(-7.91833e-06 -0.0210246 0)
(-7.81357e-06 -0.0210247 0)
(-7.71027e-06 -0.0210247 0)
(-7.60841e-06 -0.0210248 0)
(-7.50799e-06 -0.0210249 0)
(-7.40897e-06 -0.0210249 0)
(-7.31136e-06 -0.021025 0)
(-7.21513e-06 -0.021025 0)
(-7.12028e-06 -0.0210251 0)
(-7.02677e-06 -0.0210251 0)
(-6.93461e-06 -0.0210252 0)
(-6.84376e-06 -0.0210253 0)
(-6.75423e-06 -0.0210253 0)
(-6.66599e-06 -0.0210254 0)
(-6.57904e-06 -0.0210254 0)
(-6.49334e-06 -0.0210255 0)
(-6.40889e-06 -0.0210255 0)
(-6.32568e-06 -0.0210256 0)
(-6.24369e-06 -0.0210256 0)
(-6.1629e-06 -0.0210257 0)
(-6.0833e-06 -0.0210257 0)
(-6.00487e-06 -0.0210257 0)
(-5.9276e-06 -0.0210258 0)
(-5.85149e-06 -0.0210258 0)
(-5.7765e-06 -0.0210259 0)
(-5.70263e-06 -0.0210259 0)
(-5.62986e-06 -0.021026 0)
(-5.55818e-06 -0.021026 0)
(-5.48758e-06 -0.021026 0)
(-5.41804e-06 -0.0210261 0)
(-5.34954e-06 -0.0210261 0)
(-5.28208e-06 -0.0210262 0)
(-5.21564e-06 -0.0210262 0)
(-5.1502e-06 -0.0210262 0)
(-5.08576e-06 -0.0210263 0)
(-5.0223e-06 -0.0210263 0)
(-4.9598e-06 -0.0210264 0)
(-4.89825e-06 -0.0210264 0)
(-4.83765e-06 -0.0210264 0)
(-4.77797e-06 -0.0210265 0)
(-4.7192e-06 -0.0210265 0)
(-4.66133e-06 -0.0210265 0)
(-4.60434e-06 -0.0210266 0)
(-4.54822e-06 -0.0210266 0)
(-4.49296e-06 -0.0210266 0)
(-4.43855e-06 -0.0210267 0)
(-4.38496e-06 -0.0210267 0)
(-4.33219e-06 -0.0210267 0)
(-4.28022e-06 -0.0210267 0)
(-4.22903e-06 -0.0210268 0)
(-4.17861e-06 -0.0210268 0)
(-4.12895e-06 -0.0210268 0)
(-4.08002e-06 -0.0210268 0)
(-4.03181e-06 -0.0210269 0)
(-3.98431e-06 -0.0210269 0)
(-3.93748e-06 -0.0210269 0)
(-3.89133e-06 -0.0210269 0)
(-3.84581e-06 -0.021027 0)
(-3.80093e-06 -0.021027 0)
(-3.75664e-06 -0.021027 0)
(-3.71293e-06 -0.021027 0)
(-3.66978e-06 -0.0210271 0)
(-3.62715e-06 -0.0210271 0)
(-3.58503e-06 -0.0210271 0)
(-3.54338e-06 -0.0210271 0)
)
;
    }
    procBoundary10to9
    {
        type            processor;
        value           uniform (-2.04742e-06 -0.021027 0);
    }
    procBoundary10to11
    {
        type            processor;
        value           uniform (1.1753e-05 -0.0210266 0);
    }
}


// ************************************************************************* //
