/*--------------------------------*- C++ -*----------------------------------*\
| =========                 |                                                 |
| \\      /  F ield         | OpenFOAM: The Open Source CFD Toolbox           |
|  \\    /   O peration     | Version:  2.4.0                                 |
|   \\  /    A nd           | Web:      www.OpenFOAM.org                      |
|    \\/     M anipulation  |                                                 |
\*---------------------------------------------------------------------------*/
FoamFile
{
    version     2.0;
    format      ascii;
    class       volScalarField;
    location    "3.5";
    object      H;
}
// * * * * * * * * * * * * * * * * * * * * * * * * * * * * * * * * * * * * * //

dimensions      [0 2 -2 0 0 0 0];

internalField   nonuniform List<scalar> 
500
(
-11964.6
-11964.6
-11964.6
-11964.6
-11964.6
-11430.9
-11430.9
-11430.9
-11430.9
-11430.9
-10891.2
-10891.2
-10891.2
-10891.2
-10891.2
-10345.5
-10345.4
-10345.4
-10345.4
-10345.5
-9793.57
-9793.5
-9793.44
-9793.49
-9793.57
-9235.39
-9235.3
-9235.24
-9235.29
-9235.39
-8670.86
-8670.76
-8670.68
-8670.75
-8670.86
-8099.89
-8099.76
-8099.68
-8099.76
-8099.89
-7522.37
-7522.23
-7522.13
-7522.22
-7522.37
-6938.21
-6938.04
-6937.93
-6938.03
-6938.21
-6347.29
-6347.11
-6346.98
-6347.1
-6347.3
-5749.52
-5749.32
-5749.18
-5749.31
-5749.53
-5144.79
-5144.57
-5144.41
-5144.55
-5144.8
-4532.99
-4532.74
-4532.57
-4532.73
-4532.99
-3914
-3913.73
-3913.54
-3913.71
-3914.01
-3287.71
-3287.42
-3287.21
-3287.39
-3287.72
-2654
-2653.68
-2653.45
-2653.66
-2654.01
-2012.76
-2012.41
-2012.16
-2012.38
-2012.77
-1363.86
-1363.48
-1363.21
-1363.45
-1363.87
-707.178
-706.759
-706.464
-706.728
-707.19
-12.4214
-12.4016
-12.3877
-12.4001
-12.4219
-9.23607
-9.22137
-9.21111
-9.22027
-9.23647
-9.21887
-9.20448
-9.19445
-9.20342
-9.21927
-9.20023
-9.18614
-9.17633
-9.18511
-9.20061
-9.18008
-9.16629
-9.1567
-9.16529
-9.18045
-9.15838
-9.14489
-9.13551
-9.14391
-9.15873
-9.13506
-9.12186
-9.1127
-9.12092
-9.13539
-9.11007
-9.09716
-9.08821
-9.09625
-9.11039
-9.08336
-9.07074
-9.06199
-9.06986
-9.08367
-9.05487
-9.04253
-9.03399
-9.04167
-9.05516
-9.02453
-9.01247
-9.00414
-9.01164
-9.02481
-8.9923
-8.98051
-8.97238
-8.97971
-8.99256
-8.9581
-8.94659
-8.93865
-8.94581
-8.95835
-8.92188
-8.91064
-8.90289
-8.90989
-8.92212
-8.88358
-8.8726
-8.86505
-8.87188
-8.88381
-8.84313
-8.83242
-8.82506
-8.83172
-8.84335
-8.80048
-8.79003
-8.78285
-8.78935
-8.80068
-8.75555
-8.74536
-8.73836
-8.7447
-8.75575
-8.7083
-8.69835
-8.69154
-8.69772
-8.70848
-8.65864
-8.64895
-8.64232
-8.64834
-8.65882
-8.60653
-8.59708
-8.59062
-8.59649
-8.60669
-8.55189
-8.54269
-8.5364
-8.54212
-8.55205
-8.49467
-8.48571
-8.47959
-8.48516
-8.49482
-8.43479
-8.42607
-8.42012
-8.42554
-8.43493
-8.37221
-8.36372
-8.35793
-8.36321
-8.37234
-8.30685
-8.29858
-8.29296
-8.29809
-8.30697
-8.23865
-8.23061
-8.22515
-8.23014
-8.23876
-8.16755
-8.15974
-8.15443
-8.15929
-8.16766
-8.0935
-8.0859
-8.08075
-8.08547
-8.0936
-8.01643
-8.00905
-8.00405
-8.00863
-8.01652
-7.93628
-7.92912
-7.92427
-7.92871
-7.93637
-7.85301
-7.84605
-7.84135
-7.84566
-7.85309
-7.76654
-7.75979
-7.75524
-7.75942
-7.76662
-7.67684
-7.6703
-7.66588
-7.66994
-7.67691
-7.58385
-7.57751
-7.57323
-7.57717
-7.58392
-7.48753
-7.48138
-7.47724
-7.48105
-7.48759
-7.38782
-7.38186
-7.37786
-7.38155
-7.38787
-7.28468
-7.27892
-7.27505
-7.27862
-7.28473
-7.17808
-7.17251
-7.16876
-7.17222
-7.17813
-7.06798
-7.06259
-7.05897
-7.06231
-7.06802
-6.95434
-6.94913
-6.94564
-6.94887
-6.95438
-6.83713
-6.8321
-6.82873
-6.83185
-6.83717
-6.71634
-6.71148
-6.70823
-6.71124
-6.71637
-6.59193
-6.58725
-6.58412
-6.58702
-6.59196
-6.4639
-6.45938
-6.45637
-6.45916
-6.46392
-6.33223
-6.32788
-6.32498
-6.32767
-6.33225
-6.19691
-6.19272
-6.18994
-6.19253
-6.19693
-6.05795
-6.05393
-6.05125
-6.05374
-6.05796
-5.91535
-5.91149
-5.90891
-5.91131
-5.91536
-5.76913
-5.76542
-5.76295
-5.76525
-5.76914
-5.61929
-5.61574
-5.61338
-5.61558
-5.6193
-5.46588
-5.46247
-5.46022
-5.46232
-5.46589
-5.30892
-5.30566
-5.3035
-5.30552
-5.30893
-5.14845
-5.14534
-5.14328
-5.1452
-5.14846
-4.98452
-4.98155
-4.97959
-4.98143
-4.98453
-4.8172
-4.81437
-4.8125
-4.81425
-4.8172
-4.64653
-4.64384
-4.64206
-4.64373
-4.64653
-4.47261
-4.47005
-4.46837
-4.46995
-4.47261
-4.29551
-4.29309
-4.29149
-4.29298
-4.29551
-4.11532
-4.11303
-4.11152
-4.11294
-4.11532
-3.93216
-3.93
-3.92857
-3.92991
-3.93216
-3.74613
-3.7441
-3.74276
-3.74401
-3.74613
-3.55736
-3.55545
-3.55419
-3.55537
-3.55736
-3.36598
-3.3642
-3.36302
-3.36413
-3.36598
-3.17215
-3.17048
-3.16939
-3.17042
-3.17214
-2.97601
-2.97446
-2.97344
-2.9744
-2.976
-2.77773
-2.7763
-2.77536
-2.77624
-2.77773
-2.5775
-2.57618
-2.57532
-2.57613
-2.57749
-2.3755
-2.3743
-2.37351
-2.37425
-2.3755
-2.17194
-2.17085
-2.17014
-2.17081
-2.17194
-1.96704
-1.96606
-1.96542
-1.96602
-1.96703
-1.76101
-1.76014
-1.75957
-1.76011
-1.76101
-1.5541
-1.55334
-1.55284
-1.55331
-1.5541
-1.34656
-1.3459
-1.34547
-1.34588
-1.34656
-1.13865
-1.13809
-1.13773
-1.13807
-1.13864
-0.930631
-0.930181
-0.929887
-0.930165
-0.930629
-0.722799
-0.722451
-0.722223
-0.722438
-0.722797
-0.515442
-0.515194
-0.515032
-0.515185
-0.515441
-0.308865
-0.308717
-0.30862
-0.308712
-0.308864
-0.103381
-0.103332
-0.103299
-0.10333
-0.103381
)
;

boundaryField
{
    BotWall
    {
        type            zeroGradient;
    }
    FreeStream
    {
        type            zeroGradient;
    }
    FrontNBack
    {
        type            empty;
    }
    LeftSide
    {
        type            symmetryPlane;
    }
    RightSide
    {
        type            symmetryPlane;
    }
}


// ************************************************************************* //
