/*--------------------------------*- C++ -*----------------------------------*\
| =========                 |                                                 |
| \\      /  F ield         | OpenFOAM: The Open Source CFD Toolbox           |
|  \\    /   O peration     | Version:  2.4.0                                 |
|   \\  /    A nd           | Web:      www.OpenFOAM.org                      |
|    \\/     M anipulation  |                                                 |
\*---------------------------------------------------------------------------*/
FoamFile
{
    version     2.0;
    format      ascii;
    class       volScalarField;
    location    "3.5";
    object      p;
}
// * * * * * * * * * * * * * * * * * * * * * * * * * * * * * * * * * * * * * //

dimensions      [1 -1 -2 0 0 0 0];

internalField   nonuniform List<scalar> 
500
(
0.666279
0.666953
0.667508
0.666904
0.666308
0.636457
0.637133
0.637688
0.637084
0.636484
0.60632
0.606998
0.607554
0.606949
0.606347
0.575837
0.576519
0.577076
0.57647
0.575863
0.545026
0.545711
0.546272
0.545663
0.545052
0.513859
0.514548
0.515111
0.514501
0.513884
0.482353
0.483046
0.483612
0.483
0.482379
0.450471
0.451168
0.451736
0.451123
0.450496
0.418239
0.418941
0.419512
0.418896
0.418264
0.385713
0.386418
0.386993
0.386375
0.385737
0.353138
0.353849
0.354427
0.353806
0.353161
0.320375
0.321092
0.321673
0.32105
0.320398
0.285239
0.285958
0.286542
0.285917
0.285261
0.242111
0.242821
0.243402
0.242781
0.242133
0.193831
0.194528
0.195096
0.194488
0.193853
0.196661
0.19742
0.198003
0.197382
0.196683
0.391148
0.392228
0.392995
0.392212
0.391166
0.702034
0.703628
0.704815
0.703682
0.702033
-0.301882
-0.301207
-0.300306
-0.301182
-0.301865
-6.16564
-6.17189
-6.17574
-6.17231
-6.16535
-14.763
-14.7819
-14.796
-14.7834
-14.7624
-0.0163237
-0.0163229
-0.0163221
-0.0163215
-0.0163192
-0.0111958
-0.0111961
-0.0111959
-0.0111949
-0.0111913
-0.0126292
-0.0126291
-0.0126287
-0.0126278
-0.0126248
-0.0137269
-0.0137267
-0.0137262
-0.0137254
-0.0137226
-0.0144451
-0.0144449
-0.0144445
-0.0144436
-0.0144408
-0.0150677
-0.0150675
-0.0150671
-0.0150662
-0.0150635
-0.0157087
-0.0157086
-0.0157082
-0.0157073
-0.0157046
-0.0163722
-0.0163721
-0.0163716
-0.0163708
-0.0163681
-0.017047
-0.0170468
-0.0170464
-0.0170455
-0.017043
-0.0177288
-0.0177286
-0.0177282
-0.0177274
-0.0177249
-0.0184176
-0.0184175
-0.0184171
-0.0184162
-0.0184137
-0.019114
-0.0191138
-0.0191134
-0.0191126
-0.0191102
-0.0198181
-0.019818
-0.0198176
-0.0198167
-0.0198144
-0.0205302
-0.02053
-0.0205296
-0.0205287
-0.0205265
-0.0212501
-0.02125
-0.0212496
-0.0212487
-0.0212465
-0.0219782
-0.021978
-0.0219776
-0.0219768
-0.0219746
-0.0227143
-0.0227141
-0.0227137
-0.0227129
-0.0227108
-0.0234586
-0.0234585
-0.0234581
-0.0234573
-0.0234552
-0.0242113
-0.0242111
-0.0242107
-0.0242099
-0.0242079
-0.0249724
-0.0249722
-0.0249718
-0.024971
-0.024969
-0.0257419
-0.0257417
-0.0257414
-0.0257405
-0.0257386
-0.02652
-0.0265199
-0.0265195
-0.0265187
-0.0265168
-0.0273069
-0.0273067
-0.0273063
-0.0273055
-0.0273037
-0.0281025
-0.0281023
-0.0281019
-0.0281011
-0.0280994
-0.0289069
-0.0289068
-0.0289064
-0.0289056
-0.0289039
-0.0297204
-0.0297202
-0.0297199
-0.0297191
-0.0297174
-0.0305429
-0.0305428
-0.0305424
-0.0305416
-0.03054
-0.0313746
-0.0313745
-0.0313741
-0.0313734
-0.0313718
-0.0322156
-0.0322155
-0.0322151
-0.0322144
-0.0322128
-0.033066
-0.0330659
-0.0330655
-0.0330648
-0.0330633
-0.0339259
-0.0339257
-0.0339254
-0.0339246
-0.0339232
-0.0347953
-0.0347952
-0.0347948
-0.0347941
-0.0347927
-0.0356745
-0.0356743
-0.035674
-0.0356733
-0.0356719
-0.0365635
-0.0365633
-0.036563
-0.0365623
-0.036561
-0.0374624
-0.0374622
-0.0374619
-0.0374612
-0.0374599
-0.0383713
-0.0383711
-0.0383708
-0.0383701
-0.0383689
-0.0392904
-0.0392902
-0.0392899
-0.0392892
-0.039288
-0.0402197
-0.0402195
-0.0402192
-0.0402186
-0.0402174
-0.0411594
-0.0411592
-0.0411589
-0.0411583
-0.0411572
-0.0421096
-0.0421094
-0.0421091
-0.0421085
-0.0421074
-0.0430703
-0.0430702
-0.0430699
-0.0430693
-0.0430682
-0.0440418
-0.0440417
-0.0440414
-0.0440408
-0.0440398
-0.0450242
-0.0450241
-0.0450238
-0.0450232
-0.0450222
-0.0460175
-0.0460174
-0.0460171
-0.0460165
-0.0460156
-0.0470219
-0.0470218
-0.0470215
-0.0470209
-0.04702
-0.0480375
-0.0480374
-0.0480371
-0.0480365
-0.0480357
-0.0490644
-0.0490643
-0.049064
-0.0490635
-0.0490626
-0.0501028
-0.0501027
-0.0501024
-0.0501019
-0.0501011
-0.0511528
-0.0511527
-0.0511524
-0.0511519
-0.0511511
-0.0522145
-0.0522144
-0.0522141
-0.0522136
-0.0522129
-0.053288
-0.0532879
-0.0532877
-0.0532872
-0.0532865
-0.0543735
-0.0543734
-0.0543732
-0.0543727
-0.054372
-0.0554712
-0.0554711
-0.0554708
-0.0554704
-0.0554697
-0.0565811
-0.056581
-0.0565807
-0.0565803
-0.0565797
-0.0577033
-0.0577032
-0.057703
-0.0577026
-0.057702
-0.0588381
-0.058838
-0.0588378
-0.0588374
-0.0588368
-0.0599856
-0.0599855
-0.0599853
-0.0599849
-0.0599844
-0.0611459
-0.0611458
-0.0611456
-0.0611452
-0.0611447
-0.0623191
-0.062319
-0.0623188
-0.0623184
-0.0623179
-0.0635054
-0.0635053
-0.0635051
-0.0635048
-0.0635043
-0.0647049
-0.0647048
-0.0647046
-0.0647043
-0.0647039
-0.0659178
-0.0659178
-0.0659176
-0.0659173
-0.0659169
-0.0671443
-0.0671442
-0.0671441
-0.0671438
-0.0671434
-0.0683844
-0.0683844
-0.0683842
-0.0683839
-0.0683836
-0.0696384
-0.0696383
-0.0696382
-0.0696379
-0.0696376
-0.0709064
-0.0709063
-0.0709062
-0.070906
-0.0709056
-0.0721885
-0.0721885
-0.0721883
-0.0721881
-0.0721878
-0.0734849
-0.0734849
-0.0734848
-0.0734846
-0.0734843
-0.0747958
-0.0747958
-0.0747957
-0.0747955
-0.0747953
-0.0761214
-0.0761213
-0.0761212
-0.0761211
-0.0761208
-0.0774617
-0.0774617
-0.0774616
-0.0774614
-0.0774612
-0.078817
-0.0788169
-0.0788169
-0.0788167
-0.0788165
-0.0801874
-0.0801873
-0.0801873
-0.0801872
-0.080187
-0.0815731
-0.081573
-0.081573
-0.0815729
-0.0815727
-0.0829742
-0.0829742
-0.0829742
-0.0829741
-0.082974
-0.084391
-0.084391
-0.084391
-0.0843909
-0.0843908
-0.0858236
-0.0858236
-0.0858236
-0.0858235
-0.0858235
-0.0872722
-0.0872722
-0.0872722
-0.0872721
-0.0872721
-0.0887369
-0.0887369
-0.0887369
-0.0887369
-0.0887369
)
;

boundaryField
{
    BotWall
    {
        type            calculated;
        value           nonuniform List<scalar> 5(0.681099 0.681773 0.682328 0.681724 0.681128);
    }
    FreeStream
    {
        type            calculated;
        value           nonuniform List<scalar> 5(-0.0894734 -0.0894734 -0.0894734 -0.0894734 -0.0894734);
    }
    FrontNBack
    {
        type            empty;
    }
    LeftSide
    {
        type            symmetryPlane;
    }
    RightSide
    {
        type            symmetryPlane;
    }
}


// ************************************************************************* //
