/*--------------------------------*- C++ -*----------------------------------*\
| =========                 |                                                 |
| \\      /  F ield         | OpenFOAM: The Open Source CFD Toolbox           |
|  \\    /   O peration     | Version:  2.4.0                                 |
|   \\  /    A nd           | Web:      www.OpenFOAM.org                      |
|    \\/     M anipulation  |                                                 |
\*---------------------------------------------------------------------------*/
FoamFile
{
    version     2.0;
    format      ascii;
    class       volScalarField;
    location    "3.5";
    object      p_rgh;
}
// * * * * * * * * * * * * * * * * * * * * * * * * * * * * * * * * * * * * * //

dimensions      [1 -1 -2 0 0 0 0];

internalField   nonuniform List<scalar> 
500
(
0.681099
0.681773
0.682328
0.681724
0.681128
0.681083
0.681759
0.682314
0.68171
0.68111
0.681085
0.681763
0.682319
0.681714
0.681112
0.681076
0.681758
0.682316
0.68171
0.681103
0.68108
0.681766
0.682326
0.681718
0.681106
0.681072
0.681761
0.682324
0.681714
0.681098
0.681073
0.681766
0.682332
0.68172
0.681099
0.681049
0.681746
0.682315
0.681701
0.681074
0.681031
0.681732
0.682304
0.681688
0.681056
0.681078
0.681783
0.682358
0.68174
0.681102
0.681439
0.682151
0.682728
0.682108
0.681463
0.681981
0.682697
0.683279
0.682656
0.682004
0.68052
0.681239
0.681823
0.681199
0.680542
0.671444
0.672154
0.672735
0.672114
0.671466
0.657596
0.658292
0.65886
0.658252
0.657618
0.695241
0.696
0.696583
0.695963
0.695263
0.924932
0.926012
0.92678
0.925996
0.92495
1.27142
1.27301
1.2742
1.27306
1.27141
0.303494
0.304168
0.305069
0.304193
0.303511
-5.52387
-5.53011
-5.53397
-5.53054
-5.52358
-14.1563
-14.1742
-14.1876
-14.1757
-14.1557
-0.00446761
-0.00446676
-0.00446601
-0.00446544
-0.00446309
0.0012836
0.00128325
0.00128343
0.00128451
0.00128806
0.000480349
0.000480497
0.00048087
0.000481779
0.000484742
1.9945e-05
2.01725e-05
2.05937e-05
2.14587e-05
2.42734e-05
-5.38761e-05
-5.36918e-05
-5.32761e-05
-5.24075e-05
-4.9612e-05
-2.49324e-05
-2.47686e-05
-2.43604e-05
-2.34869e-05
-2.07317e-05
-7.18632e-06
-7.0215e-06
-6.61558e-06
-5.74231e-06
-3.0491e-06
-4.49206e-06
-4.32404e-06
-3.91868e-06
-3.04765e-06
-4.18216e-07
-5.64361e-06
-5.4751e-06
-5.07036e-06
-4.20198e-06
-1.63298e-06
-6.34374e-06
-6.17592e-06
-5.77212e-06
-4.90656e-06
-2.39612e-06
-6.44415e-06
-6.27702e-06
-5.87434e-06
-5.01191e-06
-2.55935e-06
-6.39337e-06
-6.2268e-06
-5.82535e-06
-4.96641e-06
-2.57118e-06
-6.36114e-06
-6.1951e-06
-5.79498e-06
-4.93991e-06
-2.60135e-06
-6.35282e-06
-6.18737e-06
-5.7887e-06
-4.93785e-06
-2.65524e-06
-6.35049e-06
-6.18568e-06
-5.78856e-06
-4.9423e-06
-2.7149e-06
-6.34742e-06
-6.18329e-06
-5.78786e-06
-4.94654e-06
-2.7736e-06
-6.34343e-06
-6.18002e-06
-5.78638e-06
-4.95037e-06
-2.83116e-06
-6.33922e-06
-6.17659e-06
-5.78486e-06
-4.9545e-06
-2.88829e-06
-6.33507e-06
-6.17326e-06
-5.78357e-06
-4.95921e-06
-2.94525e-06
-6.331e-06
-6.17005e-06
-5.78251e-06
-4.96451e-06
-3.00204e-06
-6.32696e-06
-6.16692e-06
-5.78167e-06
-4.97036e-06
-3.05865e-06
-6.32295e-06
-6.16387e-06
-5.78104e-06
-4.97675e-06
-3.11505e-06
-6.31897e-06
-6.1609e-06
-5.78061e-06
-4.98369e-06
-3.17125e-06
-6.31503e-06
-6.15802e-06
-5.7804e-06
-4.99118e-06
-3.22725e-06
-6.31113e-06
-6.15523e-06
-5.78041e-06
-4.99921e-06
-3.28305e-06
-6.30727e-06
-6.15253e-06
-5.78065e-06
-5.00778e-06
-3.33864e-06
-6.30344e-06
-6.14992e-06
-5.78111e-06
-5.0169e-06
-3.39404e-06
-6.29966e-06
-6.1474e-06
-5.78181e-06
-5.02656e-06
-3.44923e-06
-6.29592e-06
-6.14499e-06
-5.78274e-06
-5.03676e-06
-3.50423e-06
-6.29223e-06
-6.14267e-06
-5.78391e-06
-5.04749e-06
-3.55904e-06
-6.28858e-06
-6.14046e-06
-5.78533e-06
-5.05877e-06
-3.61364e-06
-6.28498e-06
-6.13835e-06
-5.78699e-06
-5.07058e-06
-3.66806e-06
-6.28144e-06
-6.13635e-06
-5.7889e-06
-5.08292e-06
-3.72229e-06
-6.27794e-06
-6.13446e-06
-5.79107e-06
-5.09579e-06
-3.77634e-06
-6.2745e-06
-6.13268e-06
-5.7935e-06
-5.10919e-06
-3.8302e-06
-6.27111e-06
-6.13102e-06
-5.79619e-06
-5.12311e-06
-3.88388e-06
-6.26777e-06
-6.12948e-06
-5.79915e-06
-5.13755e-06
-3.9374e-06
-6.2645e-06
-6.12805e-06
-5.80237e-06
-5.15251e-06
-3.99074e-06
-6.26128e-06
-6.12675e-06
-5.80586e-06
-5.16799e-06
-4.04392e-06
-6.25812e-06
-6.12557e-06
-5.80963e-06
-5.18397e-06
-4.09694e-06
-6.25503e-06
-6.12451e-06
-5.81368e-06
-5.20047e-06
-4.14981e-06
-6.252e-06
-6.12359e-06
-5.818e-06
-5.21747e-06
-4.20254e-06
-6.24903e-06
-6.12279e-06
-5.82261e-06
-5.23497e-06
-4.25512e-06
-6.24613e-06
-6.12212e-06
-5.8275e-06
-5.25297e-06
-4.30757e-06
-6.24329e-06
-6.12159e-06
-5.83268e-06
-5.27146e-06
-4.3599e-06
-6.24052e-06
-6.12119e-06
-5.83814e-06
-5.29045e-06
-4.41211e-06
-6.23782e-06
-6.12093e-06
-5.8439e-06
-5.30992e-06
-4.46422e-06
-6.23519e-06
-6.1208e-06
-5.84995e-06
-5.32987e-06
-4.51622e-06
-6.23263e-06
-6.12082e-06
-5.85629e-06
-5.3503e-06
-4.56813e-06
-6.23014e-06
-6.12097e-06
-5.86292e-06
-5.37121e-06
-4.61996e-06
-6.22773e-06
-6.12127e-06
-5.86985e-06
-5.39259e-06
-4.67173e-06
-6.22538e-06
-6.1217e-06
-5.87708e-06
-5.41444e-06
-4.72343e-06
-6.22311e-06
-6.12228e-06
-5.8846e-06
-5.43675e-06
-4.77509e-06
-6.22091e-06
-6.123e-06
-5.89241e-06
-5.45952e-06
-4.82671e-06
-6.21878e-06
-6.12387e-06
-5.90053e-06
-5.48275e-06
-4.87831e-06
-6.21672e-06
-6.12487e-06
-5.90894e-06
-5.50643e-06
-4.9299e-06
-6.21474e-06
-6.12602e-06
-5.91764e-06
-5.53056e-06
-4.9815e-06
-6.21282e-06
-6.12732e-06
-5.92664e-06
-5.55514e-06
-5.03311e-06
-6.21098e-06
-6.12875e-06
-5.93593e-06
-5.58016e-06
-5.08476e-06
-6.20921e-06
-6.13033e-06
-5.94552e-06
-5.60561e-06
-5.13646e-06
-6.20751e-06
-6.13205e-06
-5.95539e-06
-5.63151e-06
-5.18822e-06
-6.20587e-06
-6.1339e-06
-5.96555e-06
-5.65783e-06
-5.24007e-06
-6.20431e-06
-6.13589e-06
-5.976e-06
-5.68459e-06
-5.29203e-06
-6.2028e-06
-6.13802e-06
-5.98673e-06
-5.71177e-06
-5.34411e-06
-6.20136e-06
-6.14028e-06
-5.99773e-06
-5.73937e-06
-5.39633e-06
-6.19998e-06
-6.14267e-06
-6.00901e-06
-5.7674e-06
-5.44871e-06
-6.19866e-06
-6.14518e-06
-6.02057e-06
-5.79584e-06
-5.50128e-06
-6.19739e-06
-6.14782e-06
-6.03239e-06
-5.82469e-06
-5.55407e-06
-6.19618e-06
-6.15058e-06
-6.04447e-06
-5.85396e-06
-5.60708e-06
-6.19501e-06
-6.15345e-06
-6.0568e-06
-5.88363e-06
-5.66036e-06
-6.19389e-06
-6.15643e-06
-6.06939e-06
-5.91371e-06
-5.71393e-06
-6.19281e-06
-6.15952e-06
-6.08221e-06
-5.9442e-06
-5.76782e-06
-6.19176e-06
-6.1627e-06
-6.09528e-06
-5.97508e-06
-5.82205e-06
-6.19074e-06
-6.16598e-06
-6.10857e-06
-6.00635e-06
-5.87666e-06
-6.18975e-06
-6.16935e-06
-6.12208e-06
-6.03802e-06
-5.93169e-06
-6.18877e-06
-6.17279e-06
-6.1358e-06
-6.07009e-06
-5.98716e-06
-6.1878e-06
-6.17631e-06
-6.14974e-06
-6.10254e-06
-6.04311e-06
-6.18685e-06
-6.17989e-06
-6.16384e-06
-6.13537e-06
-6.0996e-06
-6.18603e-06
-6.18343e-06
-6.17788e-06
-6.1685e-06
-6.15684e-06
)
;

boundaryField
{
    BotWall
    {
        type            fixedFluxPressure;
        gradient        uniform 0;
        value           nonuniform List<scalar> 5(0.681099 0.681773 0.682328 0.681724 0.681128);
    }
    FreeStream
    {
        type            totalPressure;
        rho             rho;
        psi             none;
        gamma           1;
        p0              uniform 0;
        value           nonuniform List<scalar> 5(-6.1857e-06 -6.18516e-06 -6.18479e-06 -6.18512e-06 -6.18573e-06);
    }
    FrontNBack
    {
        type            empty;
    }
    LeftSide
    {
        type            symmetryPlane;
    }
    RightSide
    {
        type            symmetryPlane;
    }
}


// ************************************************************************* //
