/*--------------------------------*- C++ -*----------------------------------*\
| =========                 |                                                 |
| \\      /  F ield         | OpenFOAM: The Open Source CFD Toolbox           |
|  \\    /   O peration     | Version:  2.4.0                                 |
|   \\  /    A nd           | Web:      www.OpenFOAM.org                      |
|    \\/     M anipulation  |                                                 |
\*---------------------------------------------------------------------------*/
FoamFile
{
    version     2.0;
    format      ascii;
    class       surfaceScalarField;
    location    "3.5";
    object      phi;
}
// * * * * * * * * * * * * * * * * * * * * * * * * * * * * * * * * * * * * * //

dimensions      [0 3 -1 0 0 0 0];

internalField   nonuniform List<scalar> 
895
(
8.12826e-18
-8.12868e-18
5.54558e-18
2.58183e-18
-4.47234e-18
1.00167e-17
-8.68281e-18
4.20958e-18
-8.68403e-18
2.55491e-17
-3.36844e-17
1.74789e-17
1.06411e-17
-1.42466e-17
4.17308e-17
-2.71603e-17
1.71113e-17
-3.58474e-17
4.42897e-17
-7.7982e-17
3.03065e-17
2.4612e-17
-2.48541e-17
9.68793e-17
-4.69284e-17
3.91727e-17
-8.27789e-17
6.4382e-17
-1.42373e-16
4.40107e-17
4.49701e-17
-3.62922e-17
1.7717e-16
-6.80751e-17
7.09421e-17
-1.50857e-16
8.5891e-17
-2.28273e-16
5.86422e-17
7.22049e-17
-4.86291e-17
2.84428e-16
-9.07036e-17
1.13003e-16
-2.41564e-16
1.08908e-16
-3.37191e-16
7.42539e-17
1.06845e-16
-6.19172e-17
4.20586e-16
-1.14907e-16
1.65979e-16
-3.56474e-16
1.33505e-16
-4.70706e-16
9.08941e-17
1.49441e-16
-7.62029e-17
5.8767e-16
-1.40758e-16
2.30519e-16
-4.97235e-16
1.59783e-16
-6.30499e-16
1.08627e-16
2.00583e-16
-9.15479e-17
7.87832e-16
-1.68359e-16
3.07316e-16
-6.65597e-16
1.87821e-16
-8.18331e-16
1.27504e-16
2.60886e-16
-1.08002e-16
1.02333e-15
-1.97789e-16
3.97088e-16
-8.63388e-16
2.17735e-16
-1.03608e-15
1.47597e-16
3.3101e-16
-1.25637e-16
1.29655e-15
-2.29169e-16
5.00607e-16
-1.09256e-15
2.49611e-16
-1.2857e-15
1.68964e-16
4.11642e-16
-1.4451e-16
1.61001e-15
-2.62589e-16
6.18673e-16
-1.35515e-15
2.83578e-16
-1.56928e-15
1.91687e-16
5.03521e-16
-1.64701e-16
1.96639e-15
-2.98187e-16
7.52147e-16
-1.65334e-15
3.19739e-16
-1.88903e-15
2.15829e-16
6.07418e-16
-1.86275e-16
2.36848e-15
-3.36067e-16
9.01927e-16
-1.98941e-15
3.58237e-16
-2.24728e-15
2.41482e-16
7.24162e-16
-2.09324e-16
2.81928e-15
-3.76388e-16
1.06898e-15
-2.3658e-15
3.99168e-16
-2.64645e-15
2.68717e-16
8.54602e-16
-2.33919e-16
3.32191e-15
-4.19248e-16
1.2543e-15
-2.78505e-15
4.42632e-16
-3.08909e-15
2.97609e-16
9.99615e-16
-2.60138e-16
3.87965e-15
-4.64755e-16
1.45891e-15
-3.24981e-15
4.88709e-16
-3.57781e-15
3.28186e-16
1.16013e-15
-2.88021e-16
4.49585e-15
-5.12981e-16
1.68386e-15
-3.76279e-15
5.37899e-16
-4.11571e-15
3.6079e-16
1.33723e-15
-3.17886e-16
5.17452e-15
-5.64392e-16
1.93036e-15
-4.32718e-15
5.91611e-16
-4.70732e-15
3.95643e-16
1.5332e-15
-3.495e-16
5.91966e-15
-6.20231e-16
2.20109e-15
-4.94741e-15
6.52347e-16
-5.9949e-15
4.36228e-16
1.74932e-15
-3.86794e-16
6.74268e-15
-6.84289e-16
2.49859e-15
-5.17501e-15
7.15367e-16
-2.32927e-10
4.81125e-16
-2.32933e-10
-4.27464e-16
-2.32937e-10
-7.51892e-16
-2.32933e-10
-2.32926e-10
7.18797e-16
-2.32928e-10
4.80458e-16
-2.32932e-10
-4.27543e-16
-2.32936e-10
-7.52989e-16
-2.32933e-10
-2.32927e-10
7.14184e-16
-2.32928e-10
4.72426e-16
-2.32932e-10
-4.27023e-16
-2.32935e-10
-7.64471e-16
-2.32932e-10
-2.32927e-10
6.83868e-16
-2.32929e-10
4.56217e-16
-2.32932e-10
-4.11715e-16
-2.32934e-10
-7.30739e-16
-2.32932e-10
-2.32928e-10
6.59458e-16
-2.3293e-10
4.40484e-16
-2.32932e-10
-3.96711e-16
-2.32933e-10
-7.03404e-16
-2.32932e-10
-2.32929e-10
6.37821e-16
-2.3293e-10
4.25583e-16
-2.32932e-10
-3.83155e-16
-2.32932e-10
-6.79822e-16
-2.32932e-10
-2.32929e-10
6.16342e-16
-2.32931e-10
4.11181e-16
-2.32931e-10
-3.70136e-16
-2.32932e-10
-6.56534e-16
-2.32931e-10
-2.3293e-10
5.94646e-16
-2.32932e-10
3.96902e-16
-2.32931e-10
-3.57225e-16
-2.32931e-10
-6.33046e-16
-2.32931e-10
-2.32931e-10
5.73067e-16
-2.32932e-10
3.82692e-16
-2.32931e-10
-3.44374e-16
-2.3293e-10
-6.09704e-16
-2.32931e-10
-2.32931e-10
5.51761e-16
-2.32933e-10
3.68601e-16
-2.32931e-10
-3.31633e-16
-2.3293e-10
-5.86673e-16
-2.3293e-10
-2.32932e-10
5.30729e-16
-2.32933e-10
3.54664e-16
-2.32931e-10
-3.19037e-16
-2.32929e-10
-5.6396e-16
-2.3293e-10
-2.32933e-10
5.09956e-16
-2.32934e-10
3.4089e-16
-2.3293e-10
-3.06594e-16
-2.32928e-10
-5.41549e-16
-2.3293e-10
-2.32933e-10
4.89444e-16
-2.32934e-10
3.27285e-16
-2.3293e-10
-2.94308e-16
-2.32928e-10
-5.19444e-16
-2.3293e-10
-2.32934e-10
4.69204e-16
-2.32935e-10
3.13852e-16
-2.3293e-10
-2.82184e-16
-2.32927e-10
-4.97655e-16
-2.32929e-10
-2.32934e-10
4.49248e-16
-2.32935e-10
3.00598e-16
-2.3293e-10
-2.70227e-16
-2.32926e-10
-4.76193e-16
-2.32929e-10
-2.32935e-10
4.29586e-16
-2.32936e-10
2.87531e-16
-2.3293e-10
-2.58444e-16
-2.32926e-10
-4.5507e-16
-2.32929e-10
-2.32935e-10
4.10225e-16
-2.32936e-10
2.74655e-16
-2.3293e-10
-2.46838e-16
-2.32925e-10
-4.34292e-16
-2.32929e-10
-2.32935e-10
3.91175e-16
-2.32936e-10
2.61979e-16
-2.3293e-10
-2.35417e-16
-2.32925e-10
-4.13869e-16
-2.32929e-10
-2.32936e-10
3.72444e-16
-2.32937e-10
2.49507e-16
-2.32929e-10
-2.24184e-16
-2.32924e-10
-3.93808e-16
-2.32929e-10
-2.32936e-10
3.54041e-16
-2.32937e-10
2.37246e-16
-2.32929e-10
-2.13144e-16
-2.32924e-10
-3.74118e-16
-2.32928e-10
-2.32937e-10
3.35973e-16
-2.32937e-10
2.25201e-16
-2.32929e-10
-2.02303e-16
-2.32923e-10
-3.54806e-16
-2.32928e-10
-2.32937e-10
3.18249e-16
-2.32938e-10
2.13378e-16
-2.32929e-10
-1.91665e-16
-2.32923e-10
-3.35879e-16
-2.32928e-10
-2.32937e-10
3.00874e-16
-2.32938e-10
2.01782e-16
-2.32929e-10
-1.81234e-16
-2.32923e-10
-3.17344e-16
-2.32928e-10
-2.32938e-10
2.83858e-16
-2.32938e-10
1.90418e-16
-2.32929e-10
-1.71014e-16
-2.32922e-10
-2.99208e-16
-2.32928e-10
-2.32938e-10
2.67204e-16
-2.32939e-10
1.79291e-16
-2.32929e-10
-1.61009e-16
-2.32922e-10
-2.81476e-16
-2.32928e-10
-2.32938e-10
2.50922e-16
-2.32939e-10
1.68406e-16
-2.32929e-10
-1.51224e-16
-2.32922e-10
-2.64154e-16
-2.32928e-10
-2.32938e-10
2.35015e-16
-2.32939e-10
1.57766e-16
-2.32929e-10
-1.41661e-16
-2.32921e-10
-2.47247e-16
-2.32927e-10
-2.32939e-10
2.19489e-16
-2.32939e-10
1.47376e-16
-2.32929e-10
-1.32323e-16
-2.32921e-10
-2.30761e-16
-2.32927e-10
-2.32939e-10
2.04351e-16
-2.32939e-10
1.3724e-16
-2.32928e-10
-1.23216e-16
-2.32921e-10
-2.147e-16
-2.32927e-10
-2.32939e-10
1.89603e-16
-2.3294e-10
1.27361e-16
-2.32928e-10
-1.1434e-16
-2.32921e-10
-1.99068e-16
-2.32927e-10
-2.32939e-10
1.75251e-16
-2.3294e-10
1.17742e-16
-2.32928e-10
-1.05699e-16
-2.3292e-10
-1.83869e-16
-2.32927e-10
-2.3294e-10
1.61299e-16
-2.3294e-10
1.08387e-16
-2.32928e-10
-9.72956e-17
-2.3292e-10
-1.69106e-16
-2.32927e-10
-2.3294e-10
1.47749e-16
-2.3294e-10
9.92975e-17
-2.32928e-10
-8.91318e-17
-2.3292e-10
-1.54782e-16
-2.32927e-10
-2.3294e-10
1.34606e-16
-2.3294e-10
9.04764e-17
-2.32928e-10
-8.12097e-17
-2.3292e-10
-1.40899e-16
-2.32927e-10
-2.3294e-10
1.21871e-16
-2.3294e-10
8.19257e-17
-2.32928e-10
-7.35311e-17
-2.3292e-10
-1.27461e-16
-2.32927e-10
-2.3294e-10
1.09547e-16
-2.32941e-10
7.36472e-17
-2.32928e-10
-6.60976e-17
-2.3292e-10
-1.14467e-16
-2.32927e-10
-2.3294e-10
9.76354e-17
-2.32941e-10
6.56424e-17
-2.32928e-10
-5.89103e-17
-2.32919e-10
-1.0192e-16
-2.32927e-10
-2.3294e-10
8.61377e-17
-2.32941e-10
5.79125e-17
-2.32928e-10
-5.19703e-17
-2.32919e-10
-8.98195e-17
-2.32927e-10
-2.3294e-10
7.50546e-17
-2.32941e-10
5.04584e-17
-2.32928e-10
-4.52783e-17
-2.32919e-10
-7.81665e-17
-2.32927e-10
-2.32941e-10
6.43868e-17
-2.32941e-10
4.32806e-17
-2.32928e-10
-3.88348e-17
-2.32919e-10
-6.69605e-17
-2.32927e-10
-2.32941e-10
5.41339e-17
-2.32941e-10
3.63795e-17
-2.32928e-10
-3.264e-17
-2.32919e-10
-5.62007e-17
-2.32927e-10
-2.32941e-10
4.42957e-17
-2.32941e-10
2.9755e-17
-2.32928e-10
-2.66936e-17
-2.32919e-10
-4.58859e-17
-2.32927e-10
-2.32941e-10
3.48711e-17
-2.32941e-10
2.34067e-17
-2.32928e-10
-2.09953e-17
-2.32919e-10
-3.60145e-17
-2.32927e-10
-2.32941e-10
2.58588e-17
-2.32941e-10
1.73341e-17
-2.32928e-10
-1.55444e-17
-2.32919e-10
-2.65841e-17
-2.32927e-10
-2.32941e-10
1.72567e-17
-2.32941e-10
1.1536e-17
-2.32928e-10
-1.03397e-17
-2.32919e-10
-1.75915e-17
-2.32927e-10
-2.32941e-10
9.0625e-18
-2.32941e-10
6.01116e-18
-2.32928e-10
-5.37992e-18
-2.32919e-10
-9.03358e-18
-2.32927e-10
-2.32941e-10
1.27337e-18
-2.32941e-10
7.57971e-19
-2.32928e-10
-6.63376e-19
-2.32919e-10
-9.07122e-19
-2.32927e-10
-2.32941e-10
-6.11409e-18
-2.32941e-10
-4.22558e-18
-2.32928e-10
3.81198e-18
-2.32919e-10
6.79209e-18
-2.32927e-10
-2.32941e-10
-1.31038e-17
-2.32941e-10
-8.94183e-18
-2.32928e-10
8.04851e-18
-2.32919e-10
1.40687e-17
-2.32927e-10
-2.32941e-10
-1.97e-17
-2.32941e-10
-1.33935e-17
-2.32928e-10
1.20489e-17
-2.32919e-10
2.09281e-17
-2.32927e-10
-2.32941e-10
-2.59078e-17
-2.32941e-10
-1.75835e-17
-2.32928e-10
1.58163e-17
-2.32919e-10
2.73767e-17
-2.32927e-10
-2.32941e-10
-3.17326e-17
-2.32941e-10
-2.15154e-17
-2.32928e-10
1.9354e-17
-2.32919e-10
3.34209e-17
-2.32927e-10
-2.32941e-10
-3.71804e-17
-2.32941e-10
-2.51929e-17
-2.32928e-10
2.2666e-17
-2.32919e-10
3.90679e-17
-2.32927e-10
-2.32941e-10
-4.22577e-17
-2.32941e-10
-2.86202e-17
-2.32928e-10
2.57563e-17
-2.32919e-10
4.43255e-17
-2.32927e-10
-2.32941e-10
-4.69719e-17
-2.32941e-10
-3.18018e-17
-2.32928e-10
2.86296e-17
-2.32919e-10
4.92021e-17
-2.32927e-10
-2.32941e-10
-5.13307e-17
-2.32941e-10
-3.47428e-17
-2.32928e-10
3.12909e-17
-2.32919e-10
5.37067e-17
-2.32927e-10
-2.3294e-10
-5.53426e-17
-2.32941e-10
-3.74487e-17
-2.32928e-10
3.37455e-17
-2.32919e-10
5.78491e-17
-2.32927e-10
-2.3294e-10
-5.90167e-17
-2.32941e-10
-3.99252e-17
-2.32928e-10
3.59995e-17
-2.32919e-10
6.16398e-17
-2.32927e-10
-2.3294e-10
-6.23629e-17
-2.32941e-10
-4.21789e-17
-2.32928e-10
3.8059e-17
-2.32919e-10
6.50899e-17
-2.32927e-10
-2.3294e-10
-6.53917e-17
-2.32941e-10
-4.42165e-17
-2.32928e-10
3.9931e-17
-2.3292e-10
6.82115e-17
-2.32927e-10
-2.3294e-10
-6.81145e-17
-2.3294e-10
-4.60454e-17
-2.32928e-10
4.16227e-17
-2.3292e-10
7.10174e-17
-2.32927e-10
-2.3294e-10
-7.05435e-17
-2.3294e-10
-4.76737e-17
-2.32928e-10
4.31421e-17
-2.3292e-10
7.35212e-17
-2.32927e-10
-2.3294e-10
-7.26917e-17
-2.3294e-10
-4.91099e-17
-2.32928e-10
4.44974e-17
-2.3292e-10
7.57378e-17
-2.32927e-10
-2.3294e-10
-7.45733e-17
-2.3294e-10
-5.03632e-17
-2.32928e-10
4.56978e-17
-2.3292e-10
7.76826e-17
-2.32927e-10
-2.3294e-10
-7.62032e-17
-2.3294e-10
-5.14435e-17
-2.32928e-10
4.67529e-17
-2.3292e-10
7.93724e-17
-2.32927e-10
-2.3294e-10
-7.75976e-17
-2.3294e-10
-5.23615e-17
-2.32928e-10
4.76732e-17
-2.3292e-10
8.0825e-17
-2.32927e-10
-2.3294e-10
-7.87737e-17
-2.3294e-10
-5.31285e-17
-2.32928e-10
4.84695e-17
-2.3292e-10
8.20597e-17
-2.32927e-10
-2.3294e-10
-7.97501e-17
-2.3294e-10
-5.37568e-17
-2.32928e-10
4.91539e-17
-2.3292e-10
8.30967e-17
-2.32927e-10
-2.3294e-10
-8.05467e-17
-2.3294e-10
-5.42596e-17
-2.32928e-10
4.97391e-17
-2.3292e-10
8.39582e-17
-2.32927e-10
-2.3294e-10
-8.11849e-17
-2.3294e-10
-5.46511e-17
-2.32928e-10
5.02387e-17
-2.32921e-10
8.46676e-17
-2.32927e-10
-2.32939e-10
-8.16878e-17
-2.3294e-10
-5.49467e-17
-2.32928e-10
5.06673e-17
-2.32921e-10
8.52501e-17
-2.32927e-10
-2.32939e-10
-8.20801e-17
-2.3294e-10
-5.51628e-17
-2.32928e-10
5.10409e-17
-2.32921e-10
8.5733e-17
-2.32927e-10
-2.32939e-10
-8.23887e-17
-2.3294e-10
-5.53173e-17
-2.32928e-10
5.13762e-17
-2.32921e-10
8.61456e-17
-2.32927e-10
-2.32939e-10
-8.26424e-17
-2.32939e-10
-5.54296e-17
-2.32928e-10
5.16915e-17
-2.32921e-10
8.65195e-17
-2.32927e-10
-2.32939e-10
-8.28725e-17
-2.32939e-10
-5.55204e-17
-2.32929e-10
5.20066e-17
-2.32921e-10
8.68888e-17
-2.32927e-10
-2.32939e-10
-8.31125e-17
-2.32939e-10
-5.56123e-17
-2.32929e-10
5.23422e-17
-2.32921e-10
8.72899e-17
-2.32927e-10
-2.32939e-10
-8.33983e-17
-2.32939e-10
-5.57291e-17
-2.32929e-10
5.27208e-17
-2.32921e-10
8.7762e-17
-2.32927e-10
-2.32939e-10
-8.37711e-17
-2.32939e-10
-5.58984e-17
-2.32929e-10
5.31679e-17
-2.32921e-10
8.83496e-17
-2.32927e-10
-2.32939e-10
-8.42859e-17
-2.32939e-10
-5.61577e-17
-2.32929e-10
5.37189e-17
-2.32921e-10
8.91137e-17
-2.32927e-10
-2.32939e-10
-8.50481e-17
-5.65763e-17
5.44499e-17
9.01923e-17
)
;

boundaryField
{
    BotWall
    {
        type            calculated;
        value           nonuniform List<scalar> 5(3.38094e-22 5.55964e-22 -7.07045e-22 5.6113e-22 -2.33446e-21);
    }
    FreeStream
    {
        type            calculated;
        value           nonuniform List<scalar> 5(-2.32939e-10 -2.32929e-10 -2.32922e-10 -2.32928e-10 -2.32939e-10);
    }
    FrontNBack
    {
        type            empty;
        value           nonuniform 0();
    }
    LeftSide
    {
        type            symmetryPlane;
        value           uniform 0;
    }
    RightSide
    {
        type            symmetryPlane;
        value           uniform 0;
    }
}


// ************************************************************************* //
