/*--------------------------------*- C++ -*----------------------------------*\
| =========                 |                                                 |
| \\      /  F ield         | OpenFOAM: The Open Source CFD Toolbox           |
|  \\    /   O peration     | Version:  2.4.0                                 |
|   \\  /    A nd           | Web:      www.OpenFOAM.org                      |
|    \\/     M anipulation  |                                                 |
\*---------------------------------------------------------------------------*/
FoamFile
{
    version     2.0;
    format      ascii;
    class       volVectorField;
    location    "3.5";
    object      U;
}
// * * * * * * * * * * * * * * * * * * * * * * * * * * * * * * * * * * * * * //

dimensions      [0 1 -1 0 0 0 0];

internalField   nonuniform List<vector> 
500
(
(2.25127e-09 1.18977e-10 0)
(3.73959e-09 1.31328e-10 0)
(3.8936e-10 1.37483e-10 0)
(-3.74651e-09 1.33087e-10 0)
(-2.63162e-09 1.18208e-10 0)
(6.94933e-09 -4.10363e-10 0)
(1.157e-08 -3.05997e-10 0)
(1.16237e-09 -2.27737e-10 0)
(-1.15806e-08 -2.8933e-10 0)
(-8.07444e-09 -4.15907e-10 0)
(1.1875e-08 3.02946e-10 0)
(1.98049e-08 6.52303e-10 0)
(1.93534e-09 8.88611e-10 0)
(-1.98048e-08 7.00972e-10 0)
(-1.37301e-08 2.86692e-10 0)
(1.70393e-08 -1.30138e-09 0)
(2.84605e-08 -6.27846e-10 0)
(2.70813e-09 -1.40128e-10 0)
(-2.84513e-08 -5.30677e-10 0)
(-1.9626e-08 -1.33316e-09 0)
(2.24491e-08 1.1476e-10 0)
(3.75507e-08 1.32201e-09 0)
(3.48074e-09 2.15777e-09 0)
(-3.7547e-08 1.48484e-09 0)
(-2.57817e-08 6.16623e-11 0)
(2.81181e-08 -2.61432e-09 0)
(4.7096e-08 -8.18602e-10 0)
(4.25336e-09 4.70377e-10 0)
(-4.71124e-08 -5.73027e-10 0)
(-3.22114e-08 -2.69441e-09 0)
(3.40526e-08 -4.15809e-10 0)
(5.71099e-08 2.23863e-09 0)
(5.02625e-09 4.09017e-09 0)
(-5.71604e-08 2.58498e-09 0)
(-3.89212e-08 -5.28425e-10 0)
(4.02685e-08 -4.6149e-09 0)
(6.76157e-08 -1.06799e-09 0)
(5.79981e-09 1.46641e-09 0)
(-6.77136e-08 -6.02932e-10 0)
(-4.5927e-08 -4.76827e-09 0)
(4.67722e-08 -2.2587e-09 0)
(7.86276e-08 2.51544e-09 0)
(6.57434e-09 5.85659e-09 0)
(-7.87857e-08 3.11834e-09 0)
(-5.3235e-08 -2.45637e-09 0)
(5.35815e-08 -8.43673e-09 0)
(9.01715e-08 -2.41999e-09 0)
(7.35029e-09 1.86648e-09 0)
(-9.04033e-08 -1.66036e-09 0)
(-6.08644e-08 -8.68942e-09 0)
(6.07034e-08 -4.81802e-10 0)
(1.02263e-07 7.18947e-09 0)
(8.12795e-09 1.25687e-08 0)
(-1.02582e-07 8.12665e-09 0)
(-6.88233e-08 -7.94924e-10 0)
(6.81578e-08 9.73053e-09 0)
(1.1493e-07 1.9077e-08 0)
(8.90786e-09 2.5713e-08 0)
(-1.15353e-07 2.02129e-08 0)
(-7.71331e-08 9.35541e-09 0)
(7.59525e-08 3.17653e-08 0)
(1.28191e-07 4.32511e-08 0)
(9.69034e-09 5.13082e-08 0)
(-1.28732e-07 4.46089e-08 0)
(-8.5803e-08 3.12911e-08 0)
(8.41088e-08 -8.15078e-08 0)
(1.42076e-07 -6.81013e-08 0)
(1.0476e-08 -5.85166e-08 0)
(-1.42754e-07 -6.65093e-08 0)
(-9.48576e-08 -8.20424e-08 0)
(9.26328e-08 -5.31058e-07 0)
(1.56601e-07 -5.15693e-07 0)
(1.12651e-08 -5.04727e-07 0)
(-1.57433e-07 -5.1388e-07 0)
(-1.04303e-07 -5.31701e-07 0)
(1.01542e-07 -9.74254e-07 0)
(1.71789e-07 -9.56849e-07 0)
(1.20579e-08 -9.44611e-07 0)
(-1.72797e-07 -9.54825e-07 0)
(-1.1416e-07 -9.74946e-07 0)
(1.10855e-07 1.78433e-06 0)
(1.87669e-07 1.80894e-06 0)
(1.28547e-08 1.82477e-06 0)
(-1.88873e-07 1.81143e-06 0)
(-1.2445e-07 1.78356e-06 0)
(1.20665e-07 1.36903e-05 0)
(2.04381e-07 1.37339e-05 0)
(1.36604e-08 1.37618e-05 0)
(-2.05787e-07 1.37378e-05 0)
(-1.35252e-07 1.36886e-05 0)
(1.31105e-07 2.48082e-05 0)
(2.2213e-07 2.48787e-05 0)
(1.45418e-08 2.49299e-05 0)
(-2.23666e-07 2.48852e-05 0)
(-1.46692e-07 2.48058e-05 0)
(1.4224e-07 -4.84781e-05 0)
(2.41186e-07 -4.85076e-05 0)
(1.5384e-08 -4.85115e-05 0)
(-2.42992e-07 -4.8507e-05 0)
(-1.58932e-07 -4.84758e-05 0)
(1.5237e-07 -0.000356373 0)
(2.58683e-07 -0.000356549 0)
(1.61723e-08 -0.00035666 0)
(-2.6071e-07 -0.00035656 0)
(-1.70069e-07 -0.000356364 0)
(1.53883e-07 -0.000845528 0)
(2.61145e-07 -0.000845457 0)
(1.62679e-08 -0.000845426 0)
(-2.6313e-07 -0.000845454 0)
(-1.71636e-07 -0.000845524 0)
(1.50205e-07 -0.00195136 0)
(2.54358e-07 -0.00195124 0)
(1.46987e-08 -0.00195118 0)
(-2.59458e-07 -0.00195123 0)
(-1.69471e-07 -0.00195136 0)
(1.43123e-07 -0.00121114 0)
(2.43005e-07 -0.00121121 0)
(1.41049e-08 -0.00121124 0)
(-2.47473e-07 -0.00121121 0)
(-1.61137e-07 -0.00121114 0)
(1.36509e-07 -0.00112535 0)
(2.32186e-07 -0.00112538 0)
(1.35302e-08 -0.0011254 0)
(-2.36082e-07 -0.00112538 0)
(-1.53352e-07 -0.00112534 0)
(1.30366e-07 -0.00114117 0)
(2.21984e-07 -0.00114117 0)
(1.2905e-08 -0.00114118 0)
(-2.25589e-07 -0.00114117 0)
(-1.46273e-07 -0.00114116 0)
(1.24449e-07 -0.00116206 0)
(2.12138e-07 -0.00116206 0)
(1.22945e-08 -0.00116206 0)
(-2.15487e-07 -0.00116206 0)
(-1.39474e-07 -0.00116206 0)
(1.18658e-07 -0.00116645 0)
(2.02513e-07 -0.00116645 0)
(1.17031e-08 -0.00116645 0)
(-2.05613e-07 -0.00116645 0)
(-1.3283e-07 -0.00116644 0)
(1.1301e-07 -0.0011656 0)
(1.93118e-07 -0.00116559 0)
(1.11289e-08 -0.00116559 0)
(-1.95979e-07 -0.00116559 0)
(-1.26359e-07 -0.00116559 0)
(1.07523e-07 -0.00116477 0)
(1.83976e-07 -0.00116476 0)
(1.05715e-08 -0.00116476 0)
(-1.8661e-07 -0.00116476 0)
(-1.20082e-07 -0.00116476 0)
(1.02202e-07 -0.00116459 0)
(1.75089e-07 -0.00116458 0)
(1.00308e-08 -0.00116457 0)
(-1.77507e-07 -0.00116458 0)
(-1.14e-07 -0.00116459 0)
(9.704e-08 -0.00116463 0)
(1.66455e-07 -0.00116461 0)
(9.50658e-09 -0.0011646 0)
(-1.68668e-07 -0.00116461 0)
(-1.08109e-07 -0.00116463 0)
(9.20358e-08 -0.00116467 0)
(1.58068e-07 -0.00116465 0)
(8.99872e-09 -0.00116464 0)
(-1.60088e-07 -0.00116464 0)
(-1.02405e-07 -0.00116466 0)
(8.71872e-08 -0.00116468 0)
(1.49928e-07 -0.00116465 0)
(8.50697e-09 -0.00116464 0)
(-1.51766e-07 -0.00116465 0)
(-9.68868e-08 -0.00116467 0)
(8.24922e-08 -0.00116468 0)
(1.42032e-07 -0.00116465 0)
(8.03115e-09 -0.00116464 0)
(-1.43698e-07 -0.00116465 0)
(-9.15504e-08 -0.00116467 0)
(7.79492e-08 -0.00116468 0)
(1.34378e-07 -0.00116465 0)
(7.57107e-09 -0.00116463 0)
(-1.35882e-07 -0.00116465 0)
(-8.63939e-08 -0.00116467 0)
(7.35561e-08 -0.00116468 0)
(1.26964e-07 -0.00116465 0)
(7.12654e-09 -0.00116463 0)
(-1.28315e-07 -0.00116464 0)
(-8.14145e-08 -0.00116468 0)
(6.93109e-08 -0.00116468 0)
(1.19786e-07 -0.00116465 0)
(6.69737e-09 -0.00116463 0)
(-1.20996e-07 -0.00116464 0)
(-7.66094e-08 -0.00116468 0)
(6.52116e-08 -0.00116468 0)
(1.12844e-07 -0.00116465 0)
(6.28336e-09 -0.00116462 0)
(-1.13919e-07 -0.00116464 0)
(-7.1976e-08 -0.00116468 0)
(6.1256e-08 -0.00116468 0)
(1.06133e-07 -0.00116465 0)
(5.88432e-09 -0.00116462 0)
(-1.07083e-07 -0.00116464 0)
(-6.75112e-08 -0.00116468 0)
(5.74421e-08 -0.00116469 0)
(9.96506e-08 -0.00116465 0)
(5.50004e-09 -0.00116462 0)
(-1.00484e-07 -0.00116464 0)
(-6.32122e-08 -0.00116468 0)
(5.37675e-08 -0.00116469 0)
(9.33948e-08 -0.00116465 0)
(5.1303e-09 -0.00116462 0)
(-9.41194e-08 -0.00116464 0)
(-5.90761e-08 -0.00116469 0)
(5.02301e-08 -0.00116469 0)
(8.73621e-08 -0.00116465 0)
(4.77488e-09 -0.00116461 0)
(-8.79852e-08 -0.00116464 0)
(-5.50999e-08 -0.00116469 0)
(4.68275e-08 -0.00116469 0)
(8.15496e-08 -0.00116464 0)
(4.43355e-09 -0.00116461 0)
(-8.20781e-08 -0.00116464 0)
(-5.12806e-08 -0.00116469 0)
(4.35575e-08 -0.00116469 0)
(7.59539e-08 -0.00116464 0)
(4.10608e-09 -0.00116461 0)
(-7.63947e-08 -0.00116464 0)
(-4.76152e-08 -0.00116469 0)
(4.04177e-08 -0.00116469 0)
(7.05719e-08 -0.00116464 0)
(3.79222e-09 -0.00116461 0)
(-7.09314e-08 -0.00116464 0)
(-4.41006e-08 -0.00116469 0)
(3.74056e-08 -0.00116469 0)
(6.54002e-08 -0.00116464 0)
(3.49172e-09 -0.00116461 0)
(-6.56844e-08 -0.00116464 0)
(-4.07338e-08 -0.00116469 0)
(3.45189e-08 -0.0011647 0)
(6.04354e-08 -0.00116464 0)
(3.20431e-09 -0.00116461 0)
(-6.06501e-08 -0.00116464 0)
(-3.75116e-08 -0.00116469 0)
(3.1755e-08 -0.0011647 0)
(5.5674e-08 -0.00116464 0)
(2.92972e-09 -0.0011646 0)
(-5.58247e-08 -0.00116464 0)
(-3.44309e-08 -0.0011647 0)
(2.91116e-08 -0.0011647 0)
(5.11123e-08 -0.00116464 0)
(2.6677e-09 -0.0011646 0)
(-5.12043e-08 -0.00116464 0)
(-3.14886e-08 -0.0011647 0)
(2.65859e-08 -0.0011647 0)
(4.67467e-08 -0.00116464 0)
(2.41796e-09 -0.0011646 0)
(-4.67851e-08 -0.00116464 0)
(-2.86816e-08 -0.0011647 0)
(2.41756e-08 -0.0011647 0)
(4.25735e-08 -0.00116464 0)
(2.18023e-09 -0.0011646 0)
(-4.25629e-08 -0.00116464 0)
(-2.60066e-08 -0.0011647 0)
(2.1878e-08 -0.0011647 0)
(3.85889e-08 -0.00116464 0)
(1.95421e-09 -0.0011646 0)
(-3.85339e-08 -0.00116464 0)
(-2.34606e-08 -0.0011647 0)
(1.96906e-08 -0.0011647 0)
(3.47891e-08 -0.00116464 0)
(1.73963e-09 -0.0011646 0)
(-3.46939e-08 -0.00116463 0)
(-2.10403e-08 -0.0011647 0)
(1.76107e-08 -0.0011647 0)
(3.11701e-08 -0.00116464 0)
(1.53619e-09 -0.0011646 0)
(-3.10388e-08 -0.00116463 0)
(-1.87425e-08 -0.0011647 0)
(1.56357e-08 -0.0011647 0)
(2.7728e-08 -0.00116464 0)
(1.34361e-09 -0.0011646 0)
(-2.75645e-08 -0.00116463 0)
(-1.65642e-08 -0.0011647 0)
(1.3763e-08 -0.0011647 0)
(2.44587e-08 -0.00116464 0)
(1.16159e-09 -0.0011646 0)
(-2.42667e-08 -0.00116463 0)
(-1.4502e-08 -0.0011647 0)
(1.199e-08 -0.0011647 0)
(2.13584e-08 -0.00116464 0)
(9.89859e-10 -0.0011646 0)
(-2.11412e-08 -0.00116463 0)
(-1.25528e-08 -0.0011647 0)
(1.03139e-08 -0.0011647 0)
(1.84227e-08 -0.00116464 0)
(8.28111e-10 -0.0011646 0)
(-1.81837e-08 -0.00116463 0)
(-1.07135e-08 -0.0011647 0)
(8.73223e-09 -0.0011647 0)
(1.56477e-08 -0.00116464 0)
(6.76062e-10 -0.0011646 0)
(-1.53899e-08 -0.00116463 0)
(-8.98075e-09 -0.0011647 0)
(7.24221e-09 -0.0011647 0)
(1.30291e-08 -0.00116464 0)
(5.33425e-10 -0.0011646 0)
(-1.27554e-08 -0.00116463 0)
(-7.35148e-09 -0.0011647 0)
(5.84122e-09 -0.0011647 0)
(1.05629e-08 -0.00116464 0)
(3.99912e-10 -0.0011646 0)
(-1.0276e-08 -0.00116463 0)
(-5.8225e-09 -0.0011647 0)
(4.52658e-09 -0.0011647 0)
(8.24468e-09 -0.00116464 0)
(2.75242e-10 -0.00116459 0)
(-7.94716e-09 -0.00116463 0)
(-4.39064e-09 -0.0011647 0)
(3.29564e-09 -0.00116471 0)
(6.07032e-09 -0.00116464 0)
(1.59132e-10 -0.00116459 0)
(-5.7645e-09 -0.00116463 0)
(-3.05276e-09 -0.0011647 0)
(2.14573e-09 -0.00116471 0)
(4.03554e-09 -0.00116464 0)
(5.1303e-11 -0.00116459 0)
(-3.72361e-09 -0.00116463 0)
(-1.80573e-09 -0.0011647 0)
(1.07422e-09 -0.00116471 0)
(2.13608e-09 -0.00116464 0)
(-4.85199e-11 -0.00116459 0)
(-1.82003e-09 -0.00116463 0)
(-6.46397e-10 -0.0011647 0)
(7.84338e-11 -0.00116471 0)
(3.67647e-10 -0.00116464 0)
(-1.4061e-10 -0.00116459 0)
(-4.93001e-11 -0.00116463 0)
(4.28333e-10 -0.0011647 0)
(-8.44252e-10 -0.00116471 0)
(-1.27405e-09 -0.00116464 0)
(-2.25236e-10 -0.00116459 0)
(1.59305e-09 -0.00116463 0)
(1.42157e-09 -0.0011647 0)
(-1.69648e-09 -0.00116471 0)
(-2.79333e-09 -0.00116464 0)
(-3.02664e-10 -0.00116459 0)
(3.1115e-09 -0.00116463 0)
(2.33638e-09 -0.0011647 0)
(-2.48086e-09 -0.00116471 0)
(-4.19449e-09 -0.00116464 0)
(-3.73157e-10 -0.00116459 0)
(4.51054e-09 -0.00116463 0)
(3.17585e-09 -0.0011647 0)
(-3.20003e-09 -0.00116471 0)
(-5.48187e-09 -0.00116464 0)
(-4.36974e-10 -0.00116459 0)
(5.79467e-09 -0.00116463 0)
(3.94302e-09 -0.0011647 0)
(-3.85659e-09 -0.0011647 0)
(-6.65978e-09 -0.00116464 0)
(-4.94369e-10 -0.00116459 0)
(6.96838e-09 -0.00116463 0)
(4.64093e-09 -0.0011647 0)
(-4.45313e-09 -0.0011647 0)
(-7.73257e-09 -0.00116464 0)
(-5.45595e-10 -0.0011646 0)
(8.03618e-09 -0.00116463 0)
(5.27259e-09 -0.0011647 0)
(-4.99225e-09 -0.0011647 0)
(-8.70457e-09 -0.00116464 0)
(-5.90901e-10 -0.0011646 0)
(9.00258e-09 -0.00116463 0)
(5.84101e-09 -0.0011647 0)
(-5.47653e-09 -0.0011647 0)
(-9.58013e-09 -0.00116464 0)
(-6.30532e-10 -0.0011646 0)
(9.87208e-09 -0.00116463 0)
(6.34917e-09 -0.0011647 0)
(-5.90855e-09 -0.0011647 0)
(-1.03636e-08 -0.00116464 0)
(-6.6473e-10 -0.0011646 0)
(1.06492e-08 -0.00116463 0)
(6.80004e-09 -0.0011647 0)
(-6.29086e-09 -0.0011647 0)
(-1.10593e-08 -0.00116464 0)
(-6.93737e-10 -0.0011646 0)
(1.13385e-08 -0.00116463 0)
(7.19658e-09 -0.0011647 0)
(-6.62604e-09 -0.0011647 0)
(-1.16716e-08 -0.00116464 0)
(-7.17789e-10 -0.0011646 0)
(1.19444e-08 -0.00116463 0)
(7.54173e-09 -0.0011647 0)
(-6.91664e-09 -0.0011647 0)
(-1.22049e-08 -0.00116464 0)
(-7.37122e-10 -0.0011646 0)
(1.24715e-08 -0.00116463 0)
(7.83843e-09 -0.0011647 0)
(-7.16521e-09 -0.0011647 0)
(-1.26636e-08 -0.00116464 0)
(-7.51971e-10 -0.0011646 0)
(1.29243e-08 -0.00116463 0)
(8.0896e-09 -0.0011647 0)
(-7.37431e-09 -0.0011647 0)
(-1.3052e-08 -0.00116464 0)
(-7.62567e-10 -0.0011646 0)
(1.33074e-08 -0.00116463 0)
(8.29817e-09 -0.0011647 0)
(-7.5465e-09 -0.0011647 0)
(-1.33746e-08 -0.00116464 0)
(-7.69145e-10 -0.0011646 0)
(1.36254e-08 -0.00116463 0)
(8.46704e-09 -0.0011647 0)
(-7.68435e-09 -0.0011647 0)
(-1.36359e-08 -0.00116464 0)
(-7.71935e-10 -0.0011646 0)
(1.38828e-08 -0.00116463 0)
(8.59914e-09 -0.0011647 0)
(-7.79042e-09 -0.0011647 0)
(-1.38401e-08 -0.00116464 0)
(-7.7117e-10 -0.0011646 0)
(1.40842e-08 -0.00116463 0)
(8.69741e-09 -0.0011647 0)
(-7.8673e-09 -0.0011647 0)
(-1.3992e-08 -0.00116464 0)
(-7.67085e-10 -0.0011646 0)
(1.42343e-08 -0.00116463 0)
(8.76476e-09 -0.0011647 0)
(-7.9176e-09 -0.0011647 0)
(-1.40959e-08 -0.00116464 0)
(-7.59914e-10 -0.0011646 0)
(1.43378e-08 -0.00116464 0)
(8.80416e-09 -0.0011647 0)
(-7.94394e-09 -0.0011647 0)
(-1.41566e-08 -0.00116464 0)
(-7.49896e-10 -0.0011646 0)
(1.43994e-08 -0.00116464 0)
(8.81859e-09 -0.0011647 0)
(-7.94898e-09 -0.0011647 0)
(-1.41785e-08 -0.00116464 0)
(-7.37274e-10 -0.0011646 0)
(1.44238e-08 -0.00116464 0)
(8.81106e-09 -0.0011647 0)
(-7.93541e-09 -0.0011647 0)
(-1.41665e-08 -0.00116464 0)
(-7.22294e-10 -0.0011646 0)
(1.4416e-08 -0.00116464 0)
(8.78461e-09 -0.0011647 0)
(-7.90596e-09 -0.0011647 0)
(-1.41253e-08 -0.00116464 0)
(-7.05209e-10 -0.0011646 0)
(1.43808e-08 -0.00116464 0)
(8.74233e-09 -0.0011647 0)
(-7.86341e-09 -0.0011647 0)
(-1.40598e-08 -0.00116464 0)
(-6.8628e-10 -0.0011646 0)
(1.43233e-08 -0.00116464 0)
(8.6874e-09 -0.0011647 0)
(-7.81062e-09 -0.0011647 0)
(-1.3975e-08 -0.00116464 0)
(-6.65777e-10 -0.0011646 0)
(1.42485e-08 -0.00116464 0)
(8.62302e-09 -0.0011647 0)
(-7.75048e-09 -0.0011647 0)
(-1.38759e-08 -0.00116464 0)
(-6.43982e-10 -0.0011646 0)
(1.41619e-08 -0.00116464 0)
(8.55251e-09 -0.0011647 0)
(-7.68602e-09 -0.0011647 0)
(-1.37679e-08 -0.00116464 0)
(-6.21188e-10 -0.0011646 0)
(1.40687e-08 -0.00116464 0)
(8.47928e-09 -0.0011647 0)
(-7.6203e-09 -0.0011647 0)
(-1.36564e-08 -0.00116464 0)
(-5.97708e-10 -0.0011646 0)
(1.39745e-08 -0.00116464 0)
(8.40684e-09 -0.0011647 0)
(-7.55651e-09 -0.0011647 0)
(-1.35468e-08 -0.00116464 0)
(-5.73869e-10 -0.00116461 0)
(1.38849e-08 -0.00116464 0)
(8.33881e-09 -0.00116469 0)
(-7.49797e-09 -0.0011647 0)
(-1.34451e-08 -0.00116464 0)
(-5.50022e-10 -0.00116461 0)
(1.38061e-08 -0.00116464 0)
(8.27897e-09 -0.00116469 0)
(-7.44833e-09 -0.0011647 0)
(-1.33575e-08 -0.00116464 0)
(-5.26553e-10 -0.00116461 0)
(1.37443e-08 -0.00116464 0)
(8.23148e-09 -0.00116469 0)
(-7.41185e-09 -0.0011647 0)
(-1.32915e-08 -0.00116464 0)
(-5.03836e-10 -0.00116461 0)
(1.37075e-08 -0.00116464 0)
(8.20127e-09 -0.00116469 0)
(-7.39246e-09 -0.00116469 0)
(-1.32536e-08 -0.00116464 0)
(-4.81248e-10 -0.00116461 0)
(1.37044e-08 -0.00116464 0)
(8.19403e-09 -0.00116469 0)
)
;

boundaryField
{
    BotWall
    {
        type            fixedValue;
        value           uniform (0 0 0);
    }
    FreeStream
    {
        type            zeroGradient;
    }
    FrontNBack
    {
        type            empty;
    }
    LeftSide
    {
        type            symmetryPlane;
    }
    RightSide
    {
        type            symmetryPlane;
    }
}


// ************************************************************************* //
