/*--------------------------------*- C++ -*----------------------------------*\
| =========                 |                                                 |
| \\      /  F ield         | OpenFOAM: The Open Source CFD Toolbox           |
|  \\    /   O peration     | Version:  2.4.0                                 |
|   \\  /    A nd           | Web:      www.OpenFOAM.org                      |
|    \\/     M anipulation  |                                                 |
\*---------------------------------------------------------------------------*/
FoamFile
{
    version     2.0;
    format      ascii;
    class       volScalarField;
    location    "1.5";
    object      p_rgh;
}
// * * * * * * * * * * * * * * * * * * * * * * * * * * * * * * * * * * * * * //

dimensions      [1 -1 -2 0 0 0 0];

internalField   nonuniform List<scalar> 
8000
(
54.1541
54.1549
54.1556
54.1559
54.156
54.1559
54.1555
54.1548
54.1539
54.1527
54.1513
54.1496
54.1476
54.1454
54.1428
54.1398
54.1363
54.1329
54.1329
54.1389
54.1315
54.0294
53.7703
14.1906
0.471406
0.471655
0.471525
0.471474
0.471463
0.471457
0.471448
0.471436
0.471423
0.471409
0.471394
0.471379
0.471362
0.471346
0.471328
0.47131
0.471291
0.471272
0.471252
0.471232
0.471211
0.47119
0.471169
0.471147
0.471124
0.471102
55.5286
55.5285
55.5285
55.5285
55.5284
55.5284
55.5284
55.5284
55.5283
55.5283
55.5282
55.5282
55.5281
55.5281
55.5279
55.5272
55.5261
55.5281
55.5427
55.5676
55.5133
55.1345
54.483
3.72226
0.483248
0.483685
0.483552
0.483495
0.483478
0.483466
0.48345
0.483433
0.483415
0.483397
0.483378
0.483359
0.483339
0.483319
0.483298
0.483278
0.483256
0.483235
0.483213
0.48319
0.483168
0.483145
0.483122
0.483098
0.483074
0.48305
56.9124
56.9129
56.9136
56.9144
56.9153
56.9163
56.9174
56.9185
56.9197
56.921
56.9223
56.9237
56.9252
56.9268
56.9283
56.9291
56.9296
56.935
56.9589
56.9949
56.9061
56.3489
47.4446
0.59743
0.495693
0.495848
0.495735
0.495672
0.495637
0.495608
0.495578
0.495548
0.495518
0.495489
0.495461
0.495433
0.495406
0.495379
0.495352
0.495326
0.4953
0.495274
0.495248
0.495222
0.495196
0.49517
0.495144
0.495118
0.495092
0.495066
58.2073
58.2114
58.2157
58.2197
58.2232
58.2265
58.2295
58.2322
58.2347
58.2369
58.2387
58.2404
58.2417
58.2428
58.2434
58.243
58.242
58.2452
58.2644
58.2917
58.2021
57.7032
38.2739
0.510589
0.507862
0.507705
0.507632
0.507602
0.507578
0.507553
0.507528
0.507502
0.507477
0.507453
0.507428
0.507404
0.50738
0.507356
0.507332
0.507309
0.507285
0.507261
0.507237
0.507213
0.507189
0.507165
0.507141
0.507116
0.507091
0.507066
59.5952
59.6024
59.6101
59.6172
59.6236
59.6295
59.6349
59.6399
59.6444
59.6485
59.6521
59.6552
59.6579
59.6601
59.6617
59.6622
59.6619
59.6655
59.6846
59.7104
59.6196
59.1325
33.3911
0.51933
0.519734
0.519537
0.519497
0.519493
0.519489
0.519481
0.519471
0.519461
0.519449
0.519438
0.519425
0.519412
0.519398
0.519384
0.519369
0.519353
0.519337
0.51932
0.519303
0.519284
0.519266
0.519246
0.519226
0.519206
0.519185
0.519163
61.043
61.0531
61.0642
61.0743
61.0836
61.0922
61.1002
61.1077
61.1145
61.1208
61.1265
61.1315
61.1361
61.14
61.1432
61.1452
61.1463
61.1513
61.1709
61.1971
61.1087
60.6419
29.209
0.531211
0.531664
0.531413
0.53142
0.53143
0.531435
0.531437
0.531437
0.531436
0.531435
0.531432
0.531428
0.531423
0.531416
0.531409
0.531401
0.531391
0.531381
0.531369
0.531357
0.531344
0.531329
0.531314
0.531298
0.531281
0.531263
0.531245
62.5597
62.5748
62.5911
62.6058
62.619
62.6311
62.6422
62.6522
62.6611
62.669
62.6759
62.6816
62.6864
62.6901
62.6927
62.6935
62.6932
62.6959
62.7125
62.7353
62.647
62.1903
26.9998
0.570606
0.543811
0.543732
0.543726
0.543744
0.543764
0.543778
0.543789
0.543798
0.543804
0.543808
0.54381
0.543809
0.543807
0.543803
0.543797
0.543789
0.54378
0.54377
0.543759
0.543746
0.543732
0.543715
0.543696
0.543677
0.543657
0.543636
64.2369
64.2555
64.2754
64.2933
64.3094
64.3241
64.3375
64.3497
64.3606
64.3703
64.3788
64.3861
64.3923
64.3973
64.401
64.4032
64.4042
64.4075
64.4214
64.4391
64.3689
64.0159
21.5471
0.791735
0.556214
0.556278
0.55622
0.556205
0.556205
0.556204
0.556199
0.556193
0.556184
0.556174
0.556162
0.556148
0.556133
0.556121
0.556108
0.556093
0.556076
0.556059
0.556039
0.556019
0.555998
0.555977
0.555955
0.555932
0.555908
0.555883
66.1836
66.2109
66.2401
66.2659
66.2882
66.308
66.3253
66.3403
66.3529
66.363
66.3707
66.3759
66.3786
66.3784
66.375
66.368
66.3603
66.3586
66.364
66.3176
66.0487
65.4622
13.1151
0.680922
0.570047
0.569998
0.569885
0.569807
0.569747
0.569691
0.569636
0.569582
0.569532
0.569483
0.569436
0.56939
0.569346
0.569298
0.569251
0.569205
0.56916
0.569114
0.56907
0.569025
0.568981
0.568936
0.568892
0.568848
0.568804
0.56876
68.2545
68.2762
68.2979
68.3163
68.3319
68.3453
68.3568
68.3662
68.3738
68.3793
68.3829
68.3842
68.3833
68.3789
68.3719
68.3671
68.3813
68.4112
68.3294
67.7171
66.186
32.9344
1.54858
0.583059
0.582145
0.581891
0.581777
0.58172
0.581677
0.581634
0.58159
0.581547
0.581504
0.581463
0.581423
0.581384
0.581345
0.581307
0.581269
0.581231
0.581194
0.581157
0.58112
0.581083
0.581046
0.581009
0.580972
0.580935
0.580898
0.58086
71.5968
71.5641
71.533
71.5114
71.4996
71.4961
71.5011
71.5143
71.5361
71.5661
71.605
71.6515
71.707
71.775
71.8708
71.9983
72.0714
71.6688
69.9316
61.8022
15.5895
0.630584
0.594721
0.596334
0.595848
0.595583
0.595494
0.59544
0.595378
0.59531
0.595242
0.595176
0.59511
0.595045
0.594981
0.594917
0.594854
0.594791
0.594729
0.594668
0.594607
0.594546
0.594486
0.594426
0.594366
0.594307
0.594247
0.594188
0.594128
0.594069
73.8934
73.8174
73.7453
73.6917
73.6556
73.6345
73.628
73.636
73.6587
73.6952
73.7469
73.8187
73.9251
74.0629
74.1143
73.3747
70.7968
61.1678
22.3771
0.920315
1.00004
0.599025
0.608414
0.607289
0.606597
0.606447
0.606444
0.606424
0.606384
0.606337
0.606288
0.606242
0.606204
0.60617
0.606141
0.606115
0.606093
0.606075
0.60606
0.606048
0.606038
0.606025
0.606011
0.605993
0.605974
0.605952
0.605928
0.605903
0.605876
0.605847
71.5928
71.5612
71.5265
71.4936
71.4641
71.4357
71.4096
71.3829
71.359
71.3423
71.3545
71.3855
71.2632
70.0484
66.7449
50.2686
6.0873
1.74879
1.77684
0.626478
0.631459
0.62361
0.622674
0.622577
0.622492
0.622332
0.622349
0.622013
0.621921
0.62176
0.621645
0.621799
0.621382
0.62122
0.621112
0.621005
0.620898
0.621074
0.620619
0.62047
0.620359
0.620251
0.620148
0.62005
0.619955
0.619864
0.619776
0.619691
0.619902
0.619474
69.9134
69.9118
69.9038
69.8881
69.8649
69.8331
69.7926
69.7503
69.735
69.7647
69.6556
68.6296
65.7866
38.5052
1.17555
1.60758
0.724418
0.639241
0.647126
0.630588
0.630476
0.630946
0.631105
0.631058
0.631022
0.630979
0.631158
0.630965
0.630992
0.630989
0.631018
0.631263
0.631238
0.631134
0.631162
0.631167
0.631179
0.63137
0.631337
0.631238
0.631562
0.631141
0.631064
0.631052
0.631027
0.631012
0.630997
0.631029
0.630928
0.630904
70.399
70.3708
70.3346
70.2918
70.2396
70.1847
70.1484
70.1534
70.0572
69.274
67.0872
39.2197
1.7003
1.88792
0.61308
0.65497
0.651611
0.644656
0.644097
0.644318
0.644491
0.644499
0.644441
0.644681
0.644345
0.644333
0.644336
0.644349
0.644668
0.644358
0.644341
0.644356
0.644364
0.644369
0.644374
0.644386
0.644402
0.644351
0.644375
0.644353
0.644698
0.644275
0.644208
0.644208
0.644297
0.644139
0.64412
0.644096
0.64439
0.643981
70.7884
70.7471
70.6949
70.6418
70.6032
70.6162
70.653
70.3238
68.7006
61.7519
1.7671
0.97873
0.662719
0.679906
0.659294
0.656065
0.656627
0.656801
0.656725
0.656598
0.65645
0.656326
0.656219
0.65618
0.656054
0.656013
0.65599
0.655977
0.655976
0.655981
0.655992
0.656008
0.656028
0.656313
0.656012
0.656011
0.656029
0.656057
0.656345
0.656114
0.656133
0.656135
0.656477
0.656115
0.656056
0.656083
0.65601
0.65604
0.656028
0.655996
73.9387
73.833
73.727
73.6515
73.6274
73.6058
73.2508
71.9784
51.4348
1.01239
0.684806
0.684291
0.677879
0.675657
0.676021
0.67564
0.675117
0.674651
0.674198
0.673875
0.673294
0.672855
0.672572
0.672555
0.671971
0.671706
0.671472
0.671263
0.671077
0.670912
0.670766
0.670635
0.670519
0.670413
0.67032
0.670235
0.670156
0.670083
0.670014
0.670182
0.669905
0.669854
0.669808
0.669766
0.669727
0.669689
0.66968
0.669639
0.669607
0.669557
72.1486
71.9542
71.7568
71.6032
71.4076
70.7813
69.3436
49.6963
0.860254
0.685574
0.688363
0.686832
0.685079
0.684261
0.683076
0.681941
0.681119
0.680594
0.68027
0.680086
0.679994
0.679977
0.680012
0.680078
0.680158
0.680245
0.680335
0.680424
0.68062
0.680573
0.680644
0.680719
0.680791
0.680863
0.680934
0.681203
0.681049
0.681106
0.681175
0.68124
0.681452
0.681328
0.681377
0.681464
0.681358
0.681414
0.68147
0.681521
0.681573
0.681623
70.0398
70.0278
70.0161
70.0237
70.0164
69.5832
67.7662
50.9055
1.8523
2.39702
0.586615
0.657474
0.691789
0.689423
0.679958
0.680083
0.68265
0.683642
0.684208
0.684962
0.685637
0.686121
0.686487
0.686834
0.6872
0.687593
0.688005
0.688421
0.688834
0.689232
0.689611
0.689969
0.690307
0.69063
0.690939
0.691233
0.691509
0.691775
0.692026
0.692264
0.69249
0.692703
0.692907
0.693099
0.693282
0.693455
0.69362
0.693777
0.693926
0.694067
68.3564
68.6635
68.9879
69.3054
69.6533
70.08
70.3846
69.7405
67.1187
65.9151
6.85546
-3.33768
1.04545
0.856263
0.455763
0.521443
0.534967
0.600514
0.650618
0.667511
0.681772
0.69577
0.705401
0.709157
0.708551
0.707486
0.70735
0.707494
0.707537
0.707492
0.707439
0.707422
0.707447
0.707492
0.707541
0.707586
0.707626
0.707667
0.707715
0.707769
0.707829
0.707894
0.707963
0.708035
0.708111
0.708186
0.708264
0.708345
0.708427
0.708508
0.471079
0.471055
0.471032
0.471008
0.470983
0.470959
0.470934
0.470908
0.470883
0.470857
0.470831
0.470805
0.470778
0.470751
0.470724
0.470696
0.470669
0.470641
0.470612
0.470584
0.470555
0.470526
0.470497
0.470467
0.470437
0.470407
0.470377
0.470346
0.470315
0.470284
0.470253
0.470221
0.470189
0.470157
0.470125
0.470092
0.470059
0.470026
0.469992
0.469959
0.469925
0.469891
0.469856
0.469822
0.469787
0.469751
0.469716
0.46968
0.469645
0.469609
0.483026
0.483001
0.482976
0.482951
0.482925
0.4829
0.482873
0.482847
0.48282
0.482793
0.482766
0.482739
0.482711
0.482683
0.482655
0.482626
0.482597
0.482568
0.482538
0.482509
0.482479
0.482448
0.482418
0.482387
0.482356
0.482324
0.482292
0.48226
0.482228
0.482196
0.482163
0.482129
0.482096
0.482062
0.482028
0.481994
0.481959
0.481925
0.481889
0.481854
0.481818
0.481782
0.481746
0.48171
0.481673
0.481636
0.481598
0.48156
0.481523
0.481485
0.495039
0.495013
0.494986
0.494959
0.494932
0.494905
0.494877
0.494849
0.494821
0.494793
0.494765
0.494736
0.494707
0.494678
0.494648
0.494618
0.494588
0.494558
0.494527
0.494496
0.494465
0.494433
0.494401
0.494369
0.494336
0.494303
0.49427
0.494237
0.494203
0.494169
0.494134
0.494099
0.494064
0.494029
0.493993
0.493957
0.493921
0.493884
0.493847
0.49381
0.493772
0.493734
0.493696
0.493658
0.493619
0.49358
0.49354
0.4935
0.493461
0.49342
0.507041
0.507015
0.50699
0.506964
0.506937
0.50691
0.506883
0.506856
0.506828
0.5068
0.506772
0.506743
0.506714
0.506685
0.506655
0.506625
0.506594
0.506564
0.506532
0.506501
0.506469
0.506436
0.506404
0.506371
0.506337
0.506303
0.506269
0.506234
0.506199
0.506164
0.506128
0.506092
0.506056
0.506019
0.505982
0.505944
0.505906
0.505868
0.505829
0.50579
0.505751
0.505711
0.505671
0.50563
0.50559
0.505548
0.505507
0.505465
0.505423
0.505381
0.519141
0.519118
0.519095
0.519071
0.519046
0.519021
0.518995
0.518969
0.518942
0.518915
0.518887
0.518859
0.51883
0.5188
0.51877
0.518739
0.518708
0.518677
0.518644
0.518612
0.518579
0.518545
0.518511
0.518476
0.518441
0.518406
0.51837
0.518334
0.518297
0.51826
0.518222
0.518184
0.518145
0.518106
0.518067
0.518027
0.517987
0.517947
0.517906
0.517864
0.517822
0.51778
0.517738
0.517695
0.517652
0.517608
0.517564
0.517519
0.517475
0.51743
0.531225
0.531205
0.531184
0.531162
0.53114
0.531117
0.531093
0.531069
0.531043
0.531017
0.53099
0.530963
0.530934
0.530905
0.530875
0.530844
0.530812
0.53078
0.530747
0.530714
0.53068
0.530646
0.530611
0.530576
0.53054
0.530503
0.530466
0.530429
0.530391
0.530352
0.530313
0.530274
0.530234
0.530194
0.530153
0.530111
0.530069
0.530027
0.529984
0.529941
0.529898
0.529854
0.529809
0.529764
0.529719
0.529673
0.529626
0.52958
0.529533
0.529485
0.543613
0.54359
0.543565
0.543539
0.543513
0.543485
0.543457
0.543428
0.543398
0.543367
0.543336
0.543304
0.543272
0.543239
0.543206
0.543172
0.543138
0.543103
0.543067
0.543031
0.542994
0.542956
0.542919
0.54288
0.542842
0.542802
0.542763
0.542723
0.54268
0.542637
0.542593
0.542548
0.542504
0.542459
0.542413
0.542367
0.542321
0.542275
0.542228
0.542181
0.542133
0.542085
0.542037
0.541988
0.541939
0.541889
0.541839
0.541788
0.541737
0.541686
0.555857
0.55583
0.555803
0.555774
0.555745
0.555716
0.555685
0.555654
0.555622
0.555589
0.555556
0.555522
0.555488
0.555453
0.555417
0.555381
0.555344
0.555307
0.555269
0.55523
0.555191
0.555151
0.55511
0.555069
0.555026
0.554984
0.55494
0.554896
0.554853
0.55481
0.554766
0.554722
0.554677
0.554632
0.554585
0.554538
0.55449
0.554443
0.554395
0.554347
0.554299
0.554249
0.554199
0.554149
0.554097
0.554046
0.553993
0.55394
0.553888
0.553834
0.568715
0.568671
0.568627
0.568582
0.568537
0.568492
0.568447
0.568401
0.568356
0.56831
0.568263
0.568217
0.56817
0.568123
0.568076
0.568028
0.56798
0.567932
0.567883
0.567835
0.567785
0.567736
0.567686
0.567636
0.567586
0.567536
0.567485
0.567434
0.567382
0.567331
0.567279
0.567227
0.567174
0.567122
0.567069
0.567016
0.566963
0.566908
0.566852
0.566797
0.566741
0.566685
0.566627
0.566569
0.56651
0.566452
0.566393
0.566334
0.566276
0.566217
0.580822
0.580784
0.580746
0.580707
0.580668
0.580629
0.58059
0.58055
0.580509
0.580469
0.580427
0.580386
0.580344
0.580301
0.580259
0.580215
0.580171
0.580127
0.580083
0.580037
0.579992
0.579945
0.579899
0.579852
0.579804
0.579756
0.579707
0.579658
0.579608
0.579558
0.579507
0.579456
0.579404
0.579351
0.579298
0.579244
0.57919
0.579135
0.579079
0.579022
0.578965
0.578907
0.57885
0.578792
0.578735
0.578678
0.578622
0.578564
0.578506
0.578446
0.59401
0.593951
0.593892
0.593833
0.593774
0.593715
0.593657
0.593598
0.593539
0.59348
0.593421
0.593361
0.593302
0.593243
0.593184
0.593124
0.593065
0.593005
0.592945
0.592886
0.592826
0.592766
0.592706
0.592646
0.592585
0.592525
0.592464
0.592404
0.592343
0.592282
0.592221
0.592159
0.592098
0.592036
0.591974
0.591912
0.59185
0.591787
0.591725
0.591662
0.591599
0.591537
0.591474
0.591411
0.591348
0.591283
0.591217
0.591151
0.591084
0.591016
0.605817
0.605785
0.605752
0.605718
0.605683
0.605647
0.60561
0.605572
0.605533
0.605493
0.605453
0.605412
0.60537
0.605328
0.605285
0.605241
0.605197
0.605152
0.605106
0.60506
0.605013
0.604966
0.604918
0.60487
0.604821
0.604771
0.604719
0.604668
0.604616
0.604563
0.604509
0.604455
0.6044
0.604345
0.604287
0.60423
0.604172
0.604113
0.604053
0.603993
0.603932
0.603871
0.603809
0.603746
0.603682
0.603617
0.603551
0.603485
0.603419
0.603353
0.619355
0.619278
0.619207
0.619137
0.619067
0.618999
0.618932
0.61887
0.618809
0.619038
0.618634
0.618544
0.618486
0.618428
0.618372
0.618585
0.618216
0.61814
0.618084
0.618026
0.61797
0.617915
0.61786
0.617805
0.617986
0.617639
0.617555
0.617499
0.617441
0.617384
0.617326
0.617272
0.617219
0.617372
0.617045
0.616964
0.616906
0.616842
0.616781
0.61672
0.61666
0.616598
0.616534
0.616467
0.6164
0.616333
0.616265
0.616196
0.616128
0.616059
0.630865
0.631025
0.630964
0.630842
0.630847
0.630793
0.630747
0.630706
0.630698
0.630668
0.630845
0.630587
0.63055
0.630515
0.630477
0.63044
0.63068
0.630356
0.630309
0.630269
0.630229
0.630187
0.630418
0.63029
0.630227
0.630422
0.630077
0.630009
0.629957
0.630175
0.629826
0.629776
0.629757
0.629683
0.629626
0.629572
0.629518
0.629666
0.629306
0.629192
0.62913
0.629093
0.629057
0.629098
0.629001
0.629014
0.628787
0.628706
0.628642
0.628571
0.643886
0.643868
0.643949
0.643839
0.643765
0.643748
0.643725
0.643988
0.64355
0.643456
0.643432
0.643406
0.643377
0.643346
0.643617
0.643525
0.643419
0.643674
0.643489
0.6434
0.643585
0.6435
0.643396
0.643639
0.643178
0.643036
0.643003
0.643175
0.643062
0.642936
0.643053
0.642913
0.642793
0.642883
0.642669
0.642562
0.642579
0.642304
0.642227
0.642169
0.642104
0.642044
0.641983
0.641922
0.64186
0.641796
0.641732
0.641666
0.641601
0.641535
0.655999
0.65625
0.656213
0.656156
0.656436
0.65605
0.656034
0.656028
0.656016
0.656009
0.656
0.655997
0.656179
0.655915
0.655839
0.65583
0.655811
0.655792
0.655768
0.655742
0.655715
0.655684
0.655657
0.655631
0.655605
0.655577
0.655546
0.655513
0.655478
0.655444
0.65541
0.655374
0.655336
0.655297
0.655255
0.65521
0.655163
0.655114
0.655062
0.655009
0.654955
0.654898
0.65484
0.65478
0.654718
0.654655
0.654589
0.654522
0.654454
0.654384
0.669533
0.669504
0.669479
0.669456
0.669434
0.669413
0.669393
0.669375
0.669357
0.669339
0.669321
0.669303
0.669285
0.669266
0.669246
0.669227
0.669207
0.669188
0.669168
0.669148
0.669128
0.669106
0.669083
0.669059
0.669035
0.669009
0.668982
0.668955
0.668926
0.668896
0.668865
0.668833
0.668798
0.668761
0.668723
0.668682
0.66864
0.668595
0.668549
0.668499
0.668447
0.668394
0.66834
0.668283
0.668225
0.668165
0.668103
0.668039
0.667973
0.667906
0.681671
0.681717
0.681762
0.681804
0.681844
0.681882
0.681918
0.681952
0.681983
0.682012
0.682039
0.682064
0.682086
0.682105
0.682122
0.682137
0.682149
0.682159
0.682167
0.682172
0.682176
0.682177
0.682177
0.682174
0.682169
0.682161
0.682152
0.68214
0.682126
0.68211
0.682091
0.68207
0.682046
0.68202
0.681991
0.681959
0.681924
0.681885
0.681844
0.681802
0.681756
0.681705
0.681651
0.681592
0.68153
0.681463
0.681392
0.681319
0.681243
0.681162
0.694201
0.694329
0.694451
0.694567
0.694678
0.694785
0.694885
0.69498
0.695071
0.695156
0.695238
0.695317
0.695392
0.695461
0.695525
0.695588
0.695645
0.695697
0.695747
0.695794
0.695839
0.695879
0.695915
0.695948
0.695978
0.696005
0.696028
0.696047
0.696063
0.696076
0.696085
0.696091
0.696095
0.696097
0.696096
0.696093
0.696088
0.69608
0.69607
0.696058
0.696044
0.696029
0.696013
0.695996
0.695979
0.695963
0.695947
0.695929
0.695916
0.695895
0.708593
0.708672
0.708761
0.708834
0.709076
0.70912
0.709172
0.709282
0.709323
0.70943
0.709369
0.709655
0.709976
0.709928
0.71038
0.709972
0.70995
0.709874
0.709823
0.71014
0.710082
0.710041
0.710083
0.710127
0.710169
0.710208
0.710245
0.710279
0.710312
0.710341
0.710368
0.710392
0.710413
0.710439
0.710456
0.710468
0.71048
0.710495
0.71051
0.710512
0.710516
0.710521
0.710519
0.710869
0.710372
0.710245
0.710176
0.710938
0.710391
0.710128
0.469581
0.469562
0.469542
0.469522
0.469503
0.469483
0.469462
0.469442
0.469421
0.469401
0.46938
0.469359
0.469337
0.469316
0.469294
0.469272
0.46925
0.469228
0.469205
0.469182
0.469159
0.469136
0.469113
0.469089
0.469065
0.469041
0.469017
0.468992
0.468968
0.468943
0.468917
0.468892
0.468866
0.46884
0.468814
0.468788
0.468761
0.468734
0.468707
0.46868
0.468652
0.468624
0.468596
0.468568
0.468539
0.468511
0.468481
0.468452
0.468422
0.468392
0.468362
0.468332
0.468301
0.46827
0.468239
0.468207
0.468175
0.468143
0.468111
0.468078
0.468045
0.468011
0.467978
0.467944
0.46791
0.467875
0.46784
0.467805
0.46777
0.467734
0.467698
0.467662
0.467625
0.467588
0.46755
0.467513
0.467475
0.467436
0.467398
0.467359
0.467319
0.46728
0.46724
0.467199
0.467159
0.467117
0.467076
0.467034
0.466992
0.46695
0.466907
0.466863
0.46682
0.466776
0.466731
0.466687
0.466642
0.466596
0.46655
0.466504
0.466457
0.46641
0.466363
0.466315
0.466267
0.466218
0.466169
0.46612
0.46607
0.46602
0.465969
0.465918
0.465867
0.465815
0.465762
0.46571
0.465657
0.465603
0.465549
0.465495
0.46544
0.465384
0.465329
0.465273
0.465216
0.465159
0.465101
0.465044
0.464985
0.464926
0.464867
0.464807
0.464747
0.464687
0.464626
0.464564
0.464502
0.46444
0.464377
0.464314
0.46425
0.464186
0.464121
0.464056
0.46399
0.463924
0.463858
0.463791
0.463723
0.463655
0.463587
0.463518
0.463449
0.463379
0.463309
0.463238
0.463167
0.463095
0.463023
0.462951
0.462878
0.462804
0.46273
0.462656
0.462581
0.462506
0.46243
0.462354
0.462278
0.462201
0.462123
0.462045
0.461967
0.461888
0.461809
0.46173
0.46165
0.461569
0.461488
0.461407
0.461326
0.461244
0.461161
0.461078
0.460995
0.460912
0.460828
0.460744
0.460659
0.460574
0.460489
0.460403
0.460317
0.460231
0.460144
0.460057
0.45997
0.459883
0.459795
0.459707
0.459619
0.45953
0.459441
0.459352
0.459263
0.459174
0.459084
0.458994
0.458904
0.458814
0.458724
0.458633
0.458543
0.458452
0.458361
0.458271
0.45818
0.458089
0.457998
0.457907
0.457816
0.457725
0.457634
0.457543
0.457452
0.457362
0.457271
0.457181
0.45709
0.457
0.45691
0.45682
0.456731
0.456642
0.456553
0.456464
0.456376
0.456288
0.4562
0.456113
0.456026
0.455939
0.455853
0.455768
0.455683
0.455599
0.455515
0.455432
0.455349
0.455267
0.455186
0.455106
0.455026
0.454947
0.454869
0.454792
0.454715
0.45464
0.454565
0.454492
0.454419
0.454348
0.454277
0.454208
0.45414
0.454073
0.454008
0.453943
0.45388
0.453818
0.453758
0.453699
0.453642
0.453586
0.453531
0.453479
0.453427
0.453378
0.45333
0.453284
0.45324
0.453197
0.453157
0.453118
0.453082
0.453047
0.453014
0.452984
0.452955
0.452929
0.452905
0.452884
0.452864
0.452847
0.452833
0.452821
0.452811
0.452804
0.452799
0.452797
0.481456
0.481435
0.481415
0.481394
0.481373
0.481352
0.481331
0.481309
0.481288
0.481266
0.481244
0.481221
0.481199
0.481176
0.481153
0.48113
0.481106
0.481083
0.481059
0.481035
0.481011
0.480986
0.480962
0.480937
0.480911
0.480886
0.48086
0.480834
0.480808
0.480782
0.480755
0.480728
0.480701
0.480674
0.480646
0.480618
0.48059
0.480562
0.480533
0.480504
0.480475
0.480445
0.480415
0.480385
0.480355
0.480325
0.480294
0.480262
0.480231
0.480199
0.480167
0.480135
0.480102
0.480069
0.480036
0.480003
0.479969
0.479935
0.4799
0.479866
0.479831
0.479795
0.47976
0.479723
0.479687
0.47965
0.479613
0.479576
0.479538
0.4795
0.479462
0.479423
0.479384
0.479345
0.479305
0.479265
0.479225
0.479184
0.479143
0.479101
0.479059
0.479017
0.478974
0.478931
0.478888
0.478844
0.4788
0.478756
0.478711
0.478665
0.47862
0.478574
0.478527
0.47848
0.478433
0.478385
0.478337
0.478288
0.478239
0.47819
0.47814
0.47809
0.478039
0.477988
0.477937
0.477885
0.477833
0.47778
0.477727
0.477673
0.477619
0.477564
0.477509
0.477454
0.477398
0.477341
0.477285
0.477227
0.477169
0.477111
0.477053
0.476993
0.476934
0.476874
0.476813
0.476752
0.47669
0.476628
0.476566
0.476503
0.476439
0.476375
0.476311
0.476246
0.476181
0.476115
0.476048
0.475981
0.475914
0.475846
0.475777
0.475708
0.475639
0.475569
0.475499
0.475428
0.475356
0.475284
0.475212
0.475139
0.475066
0.474992
0.474917
0.474842
0.474767
0.474691
0.474614
0.474537
0.47446
0.474382
0.474303
0.474224
0.474145
0.474065
0.473984
0.473904
0.473822
0.47374
0.473658
0.473575
0.473492
0.473408
0.473324
0.473239
0.473154
0.473068
0.472982
0.472895
0.472808
0.472721
0.472633
0.472544
0.472456
0.472366
0.472277
0.472187
0.472096
0.472005
0.471914
0.471823
0.471731
0.471638
0.471546
0.471453
0.471359
0.471266
0.471171
0.471077
0.470982
0.470887
0.470792
0.470697
0.470601
0.470505
0.470409
0.470312
0.470215
0.470118
0.470021
0.469924
0.469827
0.469729
0.469631
0.469533
0.469435
0.469337
0.469239
0.469141
0.469043
0.468945
0.468846
0.468748
0.46865
0.468552
0.468454
0.468356
0.468258
0.46816
0.468062
0.467965
0.467868
0.467771
0.467674
0.467578
0.467482
0.467386
0.46729
0.467195
0.4671
0.467006
0.466912
0.466819
0.466726
0.466634
0.466542
0.466451
0.46636
0.46627
0.466181
0.466092
0.466005
0.465918
0.465831
0.465746
0.465662
0.465578
0.465496
0.465414
0.465334
0.465254
0.465176
0.465098
0.465022
0.464947
0.464874
0.464801
0.46473
0.464661
0.464593
0.464526
0.464461
0.464397
0.464335
0.464274
0.464215
0.464158
0.464103
0.464049
0.463998
0.463948
0.4639
0.463854
0.46381
0.463768
0.463729
0.463691
0.463656
0.463623
0.463592
0.463564
0.463538
0.463514
0.463493
0.463475
0.463459
0.463446
0.463435
0.463427
0.463422
0.46342
0.49339
0.493368
0.493347
0.493325
0.493303
0.49328
0.493258
0.493235
0.493212
0.493189
0.493166
0.493142
0.493119
0.493095
0.49307
0.493046
0.493021
0.492996
0.492971
0.492945
0.49292
0.492894
0.492868
0.492841
0.492815
0.492788
0.49276
0.492733
0.492705
0.492677
0.492649
0.49262
0.492592
0.492563
0.492533
0.492504
0.492474
0.492443
0.492413
0.492382
0.492351
0.49232
0.492288
0.492256
0.492224
0.492191
0.492159
0.492126
0.492092
0.492058
0.492024
0.49199
0.491955
0.49192
0.491885
0.491849
0.491813
0.491777
0.49174
0.491703
0.491666
0.491628
0.49159
0.491551
0.491513
0.491474
0.491434
0.491394
0.491354
0.491314
0.491273
0.491231
0.49119
0.491148
0.491105
0.491062
0.491019
0.490976
0.490932
0.490887
0.490843
0.490797
0.490752
0.490706
0.49066
0.490613
0.490566
0.490518
0.49047
0.490422
0.490373
0.490323
0.490274
0.490223
0.490173
0.490122
0.49007
0.490018
0.489966
0.489913
0.48986
0.489806
0.489752
0.489697
0.489642
0.489586
0.48953
0.489474
0.489417
0.489359
0.489301
0.489243
0.489184
0.489124
0.489064
0.489004
0.488943
0.488881
0.488819
0.488757
0.488694
0.48863
0.488566
0.488502
0.488437
0.488371
0.488305
0.488239
0.488171
0.488104
0.488036
0.487967
0.487898
0.487828
0.487758
0.487687
0.487615
0.487543
0.487471
0.487398
0.487324
0.48725
0.487176
0.4871
0.487025
0.486948
0.486871
0.486794
0.486716
0.486638
0.486559
0.486479
0.486399
0.486318
0.486237
0.486155
0.486073
0.48599
0.485907
0.485823
0.485738
0.485653
0.485567
0.485481
0.485395
0.485307
0.48522
0.485132
0.485043
0.484953
0.484864
0.484773
0.484682
0.484591
0.484499
0.484407
0.484314
0.484221
0.484127
0.484032
0.483937
0.483842
0.483746
0.48365
0.483554
0.483456
0.483359
0.483261
0.483162
0.483064
0.482964
0.482865
0.482765
0.482664
0.482563
0.482462
0.482361
0.482259
0.482157
0.482054
0.481951
0.481848
0.481745
0.481641
0.481537
0.481433
0.481328
0.481224
0.481119
0.481014
0.480908
0.480803
0.480697
0.480591
0.480486
0.48038
0.480274
0.480168
0.480061
0.479955
0.479849
0.479743
0.479637
0.479531
0.479425
0.479319
0.479213
0.479107
0.479002
0.478897
0.478792
0.478687
0.478582
0.478478
0.478374
0.47827
0.478167
0.478064
0.477962
0.47786
0.477758
0.477657
0.477557
0.477457
0.477358
0.477259
0.477161
0.477064
0.476968
0.476872
0.476777
0.476683
0.47659
0.476498
0.476406
0.476316
0.476227
0.476138
0.476051
0.475965
0.475881
0.475797
0.475715
0.475634
0.475554
0.475476
0.475399
0.475324
0.47525
0.475178
0.475107
0.475038
0.474971
0.474906
0.474842
0.47478
0.47472
0.474662
0.474606
0.474552
0.4745
0.474451
0.474403
0.474358
0.474315
0.474274
0.474236
0.4742
0.474167
0.474136
0.474108
0.474082
0.47406
0.47404
0.474022
0.474008
0.473996
0.473988
0.473982
0.47398
0.505348
0.505326
0.505303
0.50528
0.505257
0.505233
0.50521
0.505186
0.505162
0.505137
0.505113
0.505088
0.505063
0.505038
0.505012
0.504986
0.50496
0.504934
0.504907
0.50488
0.504853
0.504826
0.504798
0.50477
0.504742
0.504714
0.504685
0.504656
0.504627
0.504597
0.504567
0.504537
0.504507
0.504476
0.504445
0.504414
0.504382
0.50435
0.504318
0.504285
0.504252
0.504219
0.504186
0.504152
0.504118
0.504083
0.504049
0.504014
0.503978
0.503942
0.503906
0.50387
0.503833
0.503796
0.503758
0.50372
0.503682
0.503644
0.503605
0.503565
0.503526
0.503486
0.503445
0.503404
0.503363
0.503322
0.50328
0.503237
0.503195
0.503152
0.503108
0.503064
0.50302
0.502975
0.50293
0.502885
0.502839
0.502792
0.502745
0.502698
0.50265
0.502602
0.502554
0.502505
0.502455
0.502406
0.502355
0.502304
0.502253
0.502202
0.502149
0.502097
0.502044
0.50199
0.501936
0.501882
0.501827
0.501771
0.501715
0.501659
0.501602
0.501544
0.501486
0.501428
0.501369
0.501309
0.50125
0.501189
0.501128
0.501066
0.501004
0.500942
0.500879
0.500815
0.500751
0.500686
0.500621
0.500555
0.500489
0.500422
0.500354
0.500286
0.500218
0.500148
0.500079
0.500008
0.499938
0.499866
0.499794
0.499722
0.499648
0.499575
0.4995
0.499426
0.49935
0.499274
0.499197
0.49912
0.499042
0.498964
0.498885
0.498805
0.498725
0.498644
0.498563
0.498481
0.498398
0.498315
0.498231
0.498147
0.498062
0.497976
0.49789
0.497803
0.497716
0.497628
0.497539
0.49745
0.49736
0.49727
0.497179
0.497087
0.496995
0.496902
0.496809
0.496715
0.496621
0.496525
0.49643
0.496334
0.496237
0.496139
0.496041
0.495943
0.495844
0.495744
0.495644
0.495543
0.495442
0.49534
0.495238
0.495135
0.495032
0.494928
0.494824
0.494719
0.494614
0.494508
0.494402
0.494295
0.494188
0.49408
0.493972
0.493864
0.493755
0.493646
0.493536
0.493426
0.493316
0.493205
0.493094
0.492982
0.492871
0.492759
0.492646
0.492534
0.492421
0.492308
0.492194
0.492081
0.491967
0.491853
0.491739
0.491625
0.49151
0.491396
0.491281
0.491166
0.491052
0.490937
0.490822
0.490707
0.490593
0.490478
0.490363
0.490249
0.490134
0.49002
0.489906
0.489792
0.489679
0.489565
0.489452
0.489339
0.489227
0.489115
0.489003
0.488892
0.488781
0.488671
0.488561
0.488452
0.488343
0.488235
0.488128
0.488021
0.487916
0.48781
0.487706
0.487602
0.4875
0.487398
0.487297
0.487197
0.487099
0.487001
0.486904
0.486809
0.486715
0.486622
0.48653
0.48644
0.486351
0.486263
0.486177
0.486092
0.486009
0.485928
0.485848
0.48577
0.485693
0.485619
0.485546
0.485475
0.485406
0.485339
0.485274
0.485212
0.485151
0.485093
0.485037
0.484983
0.484931
0.484882
0.484836
0.484792
0.48475
0.484711
0.484675
0.484642
0.484611
0.484584
0.484559
0.484537
0.484519
0.484503
0.48449
0.484481
0.484475
0.484472
0.517396
0.517372
0.517348
0.517323
0.517299
0.517274
0.517249
0.517223
0.517198
0.517172
0.517146
0.51712
0.517093
0.517066
0.517039
0.517012
0.516984
0.516956
0.516928
0.516899
0.51687
0.516841
0.516812
0.516782
0.516752
0.516722
0.516691
0.51666
0.516629
0.516598
0.516566
0.516534
0.516501
0.516468
0.516435
0.516402
0.516368
0.516334
0.5163
0.516265
0.51623
0.516194
0.516159
0.516123
0.516086
0.516049
0.516012
0.515975
0.515937
0.515899
0.51586
0.515821
0.515782
0.515742
0.515702
0.515662
0.515621
0.515579
0.515538
0.515496
0.515453
0.515411
0.515367
0.515324
0.51528
0.515235
0.51519
0.515145
0.515099
0.515053
0.515007
0.51496
0.514912
0.514864
0.514816
0.514767
0.514718
0.514668
0.514618
0.514568
0.514517
0.514465
0.514413
0.514361
0.514308
0.514254
0.5142
0.514146
0.514091
0.514036
0.51398
0.513923
0.513867
0.513809
0.513751
0.513693
0.513634
0.513574
0.513514
0.513454
0.513393
0.513331
0.513269
0.513206
0.513143
0.513079
0.513015
0.51295
0.512884
0.512818
0.512751
0.512684
0.512616
0.512548
0.512479
0.51241
0.512339
0.512269
0.512197
0.512125