/*--------------------------------*- C++ -*----------------------------------*\
| =========                 |                                                 |
| \\      /  F ield         | OpenFOAM: The Open Source CFD Toolbox           |
|  \\    /   O peration     | Version:  2.4.0                                 |
|   \\  /    A nd           | Web:      www.OpenFOAM.org                      |
|    \\/     M anipulation  |                                                 |
\*---------------------------------------------------------------------------*/
FoamFile
{
    version     2.0;
    format      ascii;
    class       surfaceScalarField;
    location    "1.5";
    object      phi;
}
// * * * * * * * * * * * * * * * * * * * * * * * * * * * * * * * * * * * * * //

dimensions      [0 3 -1 0 0 0 0];

internalField   nonuniform List<scalar> 
15580
(
1.00342e-14
-1.66086e-12
3.51146e-14
-4.83792e-12
7.09038e-14
-7.87114e-12
1.13514e-13
-1.07612e-11
1.59254e-13
-1.35082e-11
2.04592e-13
-1.61122e-11
2.461e-13
-1.85732e-11
2.80428e-13
-2.08911e-11
3.04245e-13
-2.30658e-11
3.14223e-13
-2.5097e-11
3.06962e-13
-2.69847e-11
2.78995e-13
-2.87287e-11
2.26692e-13
-3.03286e-11
1.46269e-13
-3.17842e-11
3.36872e-14
-3.30953e-11
-1.15349e-13
-3.42614e-11
-3.05483e-13
-3.52822e-11
-5.41604e-13
-3.61572e-11
-8.28896e-13
-3.68861e-11
-1.17335e-12
-3.74678e-11
-1.58422e-12
-3.78996e-11
-2.07636e-12
-3.81796e-11
-5.7091e-12
-3.83184e-11
-3.51899e-11
-3.84137e-11
-3.58261e-11
-3.83981e-11
-3.67651e-11
-3.96715e-11
-3.78346e-11
-3.87256e-11
-3.89961e-11
-3.77485e-11
-4.0251e-11
-3.68671e-11
-4.15964e-11
-3.60207e-11
-4.30248e-11
-3.51992e-11
-4.45288e-11
-3.44025e-11
-4.61015e-11
-3.36315e-11
-4.77368e-11
-3.28878e-11
-4.94289e-11
-3.21726e-11
-5.11727e-11
-3.14866e-11
-5.29633e-11
-3.08305e-11
-5.47964e-11
-3.02042e-11
-5.6668e-11
-2.96074e-11
-5.85743e-11
-2.90394e-11
-6.05117e-11
-2.84994e-11
-6.2477e-11
-2.79862e-11
-6.44672e-11
-2.74987e-11
-6.64792e-11
-2.70355e-11
-6.85103e-11
-2.65956e-11
-7.0558e-11
-2.61777e-11
-7.26198e-11
-2.57804e-11
-7.46934e-11
-2.54029e-11
-7.67766e-11
-2.50438e-11
-2.47021e-11
-7.88673e-11
-2.1165e-16
-1.66065e-12
-1.17401e-15
-4.83695e-12
-2.98096e-15
-7.86933e-12
-5.70541e-15
-1.07584e-11
-9.60361e-15
-1.35043e-11
-1.50755e-14
-1.61068e-11
-2.26504e-14
-1.85657e-11
-3.29482e-14
-2.08808e-11
-4.66733e-14
-2.3052e-11
-6.457e-14
-2.50791e-11
-8.74251e-14
-2.69619e-11
-1.16015e-13
-2.87001e-11
-1.51119e-13
-3.02935e-11
-1.93453e-13
-3.17419e-11
-2.43692e-13
-3.30451e-11
-3.02391e-13
-3.42027e-11
-3.70022e-13
-3.52145e-11
-4.46908e-13
-3.60804e-11
-5.33306e-13
-3.67997e-11
-6.29095e-13
-3.7372e-11
-7.33062e-13
-3.77957e-11
-8.41703e-13
-3.8071e-11
-2.48139e-11
-3.82132e-11
-3.876e-11
-3.82606e-11
-3.83886e-11
-3.87695e-11
-3.88153e-11
-3.92447e-11
-3.94705e-11
-3.80704e-11
-4.02899e-11
-3.69291e-11
-4.12658e-11
-3.58912e-11
-4.23868e-11
-3.48996e-11
-4.36403e-11
-3.39458e-11
-4.50145e-11
-3.30283e-11
-4.64988e-11
-3.21472e-11
-4.80838e-11
-3.13028e-11
-4.97609e-11
-3.04955e-11
-5.15222e-11
-2.97253e-11
-5.33604e-11
-2.89923e-11
-5.52686e-11
-2.8296e-11
-5.72405e-11
-2.76355e-11
-5.92702e-11
-2.70098e-11
-6.13521e-11
-2.64175e-11
-6.34809e-11
-2.58574e-11
-6.56517e-11
-2.53279e-11
-6.78599e-11
-2.48274e-11
-7.01009e-11
-2.43546e-11
-7.23707e-11
-2.39078e-11
-7.46654e-11
-2.34857e-11
-7.69814e-11
-2.30869e-11
-7.9315e-11
-2.27101e-11
-2.23539e-11
-8.16633e-11
1.35775e-15
-1.66201e-12
1.11013e-14
-4.8467e-12
3.19271e-14
-7.89016e-12
6.49372e-14
-1.07915e-11
1.10965e-13
-1.35503e-11
1.70597e-13
-1.61664e-11
2.44263e-13
-1.86393e-11
3.32232e-13
-2.09688e-11
4.34719e-13
-2.31545e-11
5.51862e-13
-2.51963e-11
6.8385e-13
-2.70939e-11
8.3087e-13
-2.88471e-11
9.9327e-13
-3.04559e-11
1.17147e-12
-3.19201e-11
1.36618e-12
-3.32398e-11
1.57825e-12
-3.44148e-11
1.80893e-12
-3.54452e-11
2.05964e-12
-3.63311e-11
2.33223e-12
-3.70723e-11
2.62929e-12
-3.76691e-11
2.95627e-12
-3.81227e-11
3.3217e-12
-3.84365e-11
-3.80076e-11
-3.86317e-11
-3.75995e-11
-3.86687e-11
-3.6479e-11
-3.989e-11
-3.6799e-11
-3.89247e-11
-3.7397e-11
-3.74724e-11
-3.81613e-11
-3.61648e-11
-3.91081e-11
-3.49444e-11
-4.0232e-11
-3.37757e-11
-4.15214e-11
-3.26564e-11
-4.29638e-11
-3.15859e-11
-4.45474e-11
-3.05635e-11
-4.62615e-11
-2.95888e-11
-4.80955e-11
-2.86614e-11
-5.004e-11
-2.77809e-11
-5.20858e-11
-2.69466e-11
-5.42243e-11
-2.61575e-11
-5.64475e-11
-2.54123e-11
-5.87477e-11
-2.47096e-11
-6.11177e-11
-2.40476e-11
-6.35505e-11
-2.34246e-11
-6.60397e-11
-2.28387e-11
-6.85791e-11
-2.2288e-11
-7.11628e-11
-2.17708e-11
-7.37853e-11
-2.12853e-11
-7.64414e-11
-2.08297e-11
-7.91261e-11
-2.04022e-11
-8.18349e-11
-2.00013e-11
-1.96255e-11
-8.45633e-11
3.98942e-14
-1.70191e-12
1.52649e-13
-4.95945e-12
3.33411e-13
-8.07092e-12
5.78389e-13
-1.10364e-11
8.83905e-13
-1.38558e-11
1.24636e-12
-1.65289e-11
1.66223e-12
-1.90552e-11
2.12807e-12
-2.14346e-11
2.64048e-12
-2.36669e-11
3.1961e-12
-2.57519e-11
3.79163e-12
-2.76894e-11
4.42379e-12
-2.94793e-11
5.08936e-12
-3.11215e-11
5.78508e-12
-3.26158e-11
6.50775e-12
-3.39624e-11
7.25413e-12
-3.51612e-11
8.021e-12
-3.62121e-11
8.80508e-12
-3.71151e-11
9.60324e-12
-3.78705e-11
1.04123e-11
-3.84781e-11
1.12281e-11
-3.89385e-11
1.20428e-11
-3.92513e-11
-2.94071e-11
-3.94364e-11
-2.85767e-11
-3.94992e-11
-2.812e-11
-4.03467e-11
-2.84392e-11
-3.86055e-11
-2.90402e-11
-3.68714e-11
-2.98972e-11
-3.53077e-11
-3.10057e-11
-3.3836e-11
-3.23461e-11
-3.24353e-11
-3.39012e-11
-3.11014e-11
-3.56547e-11
-2.98323e-11
-3.75914e-11
-2.86269e-11
-3.96963e-11
-2.74839e-11
-4.19554e-11
-2.64023e-11
-4.43555e-11
-2.53808e-11
-4.68839e-11
-2.44181e-11
-4.9529e-11
-2.35124e-11
-5.22795e-11
-2.26618e-11
-5.51249e-11
-2.18642e-11
-5.80552e-11
-2.11173e-11
-6.10609e-11
-2.04188e-11
-6.41333e-11
-1.97663e-11
-6.72638e-11
-1.91575e-11
-7.04444e-11
-1.85902e-11
-7.36679e-11
-1.80619e-11
-7.6927e-11
-1.75706e-11
-8.02152e-11
-1.7114e-11
-8.35263e-11
-1.66902e-11
-1.62971e-11
-8.68547e-11
6.74559e-14
-1.76936e-12
2.62996e-13
-5.15499e-12
5.79505e-13
-8.38743e-12
1.0098e-12
-1.14667e-11
1.5468e-12
-1.43928e-11
2.18352e-12
-1.71656e-11
2.91306e-12
-1.97847e-11
3.72857e-12
-2.22502e-11
4.62332e-12
-2.45617e-11
5.59062e-12
-2.67192e-11
6.62386e-12
-2.87226e-11
7.7165e-12
-3.05719e-11
8.86204e-12
-3.2267e-11
1.0054e-11
-3.38078e-11
1.12861e-11
-3.51945e-11
1.25519e-11
-3.64269e-11
1.3845e-11
-3.75052e-11
1.51591e-11
-3.84293e-11
1.64878e-11
-3.91992e-11
1.78249e-11
-3.98151e-11
1.91637e-11
-4.02774e-11
2.04986e-11
-4.05863e-11
-2.25012e-11
-4.07674e-11
-2.11701e-11
-4.08303e-11
-2.0581e-11
-4.09358e-11
-2.04926e-11
-3.86938e-11
-2.07728e-11
-3.65913e-11
-2.14392e-11
-3.46413e-11
-2.24768e-11
-3.27984e-11
-2.3859e-11
-3.10531e-11
-2.55587e-11
-2.94016e-11
-2.75504e-11
-2.78407e-11
-2.98093e-11
-2.6368e-11
-3.2312e-11
-2.49812e-11
-3.50363e-11
-2.3678e-11
-3.7961e-11
-2.24561e-11
-4.10663e-11
-2.13128e-11
-4.43335e-11
-2.02452e-11
-4.77451e-11
-1.92502e-11
-5.12847e-11
-1.83246e-11
-5.49367e-11
-1.74653e-11
-5.86868e-11
-1.66687e-11
-6.25214e-11
-1.59317e-11
-6.64279e-11
-1.5251e-11
-7.03947e-11
-1.46234e-11
-7.44107e-11
-1.40459e-11
-7.84659e-11
-1.35154e-11
-8.25509e-11
-1.3029e-11
-8.66569e-11
-1.25841e-11
-1.2178e-11
-9.0776e-11
9.49374e-14
-1.8643e-12
3.71351e-13
-5.4314e-12
8.19853e-13
-8.83593e-12
1.4306e-12
-1.20775e-11
2.1937e-12
-1.51559e-11
3.09926e-12
-1.80711e-11
4.13741e-12
-2.08229e-11
5.29826e-12
-2.3411e-11
6.57203e-12
-2.58355e-11
7.94898e-12
-2.80961e-11
9.4195e-12
-3.01932e-11
1.09741e-11
-3.21265e-11
1.26034e-11
-3.38963e-11
1.42983e-11
-3.55027e-11
1.60498e-11
-3.6946e-11
1.7849e-11
-3.82262e-11
1.96875e-11
-3.93437e-11
2.15568e-11
-4.02986e-11
2.34489e-11
-4.10913e-11
2.5356e-11
-4.17222e-11
2.72704e-11
-4.21918e-11
2.91834e-11
-4.24992e-11
-1.42233e-11
-4.26761e-11
-1.23105e-11
-4.2743e-11
-9.87645e-12
-4.33699e-11
-8.1075e-12
-4.04628e-11
-7.36814e-12
-3.73307e-11
-7.48814e-12
-3.45213e-11
-8.34752e-12
-3.1939e-11
-9.85572e-12
-2.95449e-11
-1.19345e-11
-2.73228e-11
-1.45141e-11
-2.52612e-11
-1.75319e-11
-2.33502e-11
-2.09322e-11
-2.15809e-11
-2.46648e-11
-1.99454e-11
-2.8685e-11
-1.84359e-11
-3.29525e-11
-1.70453e-11
-3.7431e-11
-1.57667e-11
-4.20879e-11
-1.45932e-11
-4.68942e-11
-1.35184e-11
-5.18235e-11
-1.25359e-11
-5.68523e-11
-1.16399e-11
-6.19598e-11
-1.08242e-11
-6.71271e-11
-1.00837e-11
-7.23371e-11
-9.4134e-12
-7.75745e-11
-8.80845e-12
-8.28255e-11
-8.26439e-12
-8.80775e-11
-7.77695e-12
-9.33197e-11
-7.34202e-12
-6.95571e-12
-9.85419e-11
1.43774e-13
-2.00807e-12
5.57866e-13
-5.8455e-12
1.22513e-12
-9.50319e-12
2.1285e-12
-1.29808e-11
3.25105e-12
-1.62785e-11
4.57596e-12
-1.93961e-11
6.08659e-12
-2.23335e-11
7.76645e-12
-2.50909e-11
9.59929e-12
-2.76683e-11
1.15691e-11
-3.0066e-11
1.36603e-11
-3.22843e-11
1.58575e-11
-3.43236e-11
1.81456e-11
-3.61845e-11
2.05103e-11
-3.78674e-11
2.29374e-11
-3.93731e-11
2.54136e-11
-4.07023e-11
2.79258e-11
-4.18559e-11
3.04617e-11
-4.28345e-11
3.30094e-11
-4.36391e-11
3.55585e-11
-4.42713e-11
3.8102e-11
-4.47353e-11
4.06411e-11
-4.50374e-11
-1.33844e-12
-4.51954e-11
1.1681e-12
-4.52496e-11
3.96309e-12
-4.61649e-11
6.16298e-12
-4.26627e-11
7.15376e-12
-3.83215e-11
6.99673e-12
-3.43642e-11
5.839e-12
-3.07813e-11
3.79444e-12
-2.75004e-11
9.65857e-13
-2.44942e-11
-2.55092e-12
-2.17444e-11
-6.66694e-12
-1.92341e-11
-1.13005e-11
-1.69473e-11
-1.63774e-11
-1.48685e-11
-2.183e-11
-1.29832e-11
-2.75975e-11
-1.12779e-11
-3.36239e-11
-9.74033e-12
-3.98593e-11
-8.35771e-12
-4.62576e-11
-7.12013e-12
-5.27686e-11
-6.02489e-12
-5.93154e-11
-5.09313e-12
-6.59369e-11
-4.20267e-12
-7.26011e-11
-3.41958e-12
-7.92917e-11
-2.72281e-12
-8.59897e-11
-2.1104e-12
-9.26821e-11
-1.57208e-12
-9.93466e-11
-1.1124e-12
-1.05963e-10
-7.25502e-13
-4.0196e-13
-1.12517e-10
1.78731e-13
-2.1868e-12
6.89795e-13
-6.35656e-12
1.50961e-12
-1.0323e-11
2.61526e-12
-1.40865e-11
3.98354e-12
-1.76468e-11
5.59105e-12
-2.10036e-11
7.41427e-12
-2.41567e-11
9.42963e-12
-2.71062e-11
1.16134e-11
-2.98521e-11
1.3942e-11
-3.23946e-11
1.63917e-11
-3.4734e-11
1.89389e-11
-3.68708e-11
2.15598e-11
-3.88054e-11
2.42311e-11
-4.05387e-11
2.69292e-11
-4.20712e-11
2.96311e-11
-4.34043e-11
3.23137e-11
-4.45384e-11
3.49542e-11
-4.54751e-11
3.75308e-11
-4.62156e-11
4.00257e-11
-4.67661e-11
4.24281e-11
-4.71378e-11
4.47175e-11
-4.73264e-11
9.02525e-12
-4.74254e-11
1.1179e-11
-4.74033e-11
1.308e-11
-4.80658e-11
1.40074e-11
-4.35901e-11
1.31793e-11
-3.74935e-11
1.0833e-11
-3.20179e-11
7.21361e-12
-2.71619e-11
2.52919e-12
-2.28159e-11
-3.03875e-12
-1.89262e-11
-9.33356e-12
-1.54496e-11
-1.62223e-11
-1.23454e-11
-2.3594e-11
-9.57559e-12
-3.13687e-11
-7.09384e-12
-3.94938e-11
-4.85822e-12
-4.79597e-11
-2.81194e-12
-5.63903e-11
-1.30974e-12
-6.48744e-11
1.26372e-13
-7.33905e-11
1.39602e-12
-8.19189e-11
2.50353e-12
-9.04726e-11
3.46059e-12
-9.89552e-11
4.27991e-12
-1.07348e-10
4.97343e-12
-1.15624e-10
5.55253e-12
-1.23762e-10
6.0278e-12
-1.31743e-10
6.40907e-12
-1.39561e-10
6.7055e-12
-1.47212e-10
6.92555e-12
7.07699e-12
-1.54691e-10
2.61992e-13
-2.4488e-12
1.01802e-12
-7.11259e-12
2.22933e-12
-1.15343e-11
3.85384e-12
-1.5711e-11
5.85183e-12
-1.96448e-11
8.18504e-12
-2.33368e-11
1.08169e-11
-2.67886e-11
1.37113e-11
-3.00006e-11
1.68333e-11
-3.29741e-11
2.01468e-11
-3.57081e-11
2.36169e-11
-3.82041e-11
2.72059e-11
-4.04597e-11
3.08775e-11
-4.2477e-11
3.45906e-11
-4.42518e-11
3.83068e-11
-4.57874e-11
4.19793e-11
-4.70769e-11
4.55694e-11
-4.81284e-11
4.90289e-11
-4.89346e-11
5.23357e-11
-4.95224e-11
5.53007e-11
-4.97312e-11
5.79433e-11
-4.97803e-11
4.90951e-11
-4.96714e-11
2.78948e-11
-4.94065e-11
2.93078e-11
-4.88163e-11
2.75204e-11
-4.62784e-11
2.20108e-11
-3.80805e-11
1.50614e-11
-3.0544e-11
7.02267e-12
-2.39792e-11
-1.89913e-12
-1.82401e-11
-1.15045e-11
-1.32105e-11
-2.15918e-11
-8.83898e-12
-3.1882e-11
-5.15933e-12
-4.25168e-11
-1.71066e-12
-5.34871e-11
1.3947e-12
-6.45681e-11
3.98721e-12
-7.56251e-11
6.19876e-12
-8.65182e-11
8.08119e-12
-9.7501e-11
9.67308e-12
-1.08383e-10
1.10087e-11
-1.19104e-10
1.21169e-11
-1.29623e-10
1.30224e-11
-1.3991e-10
1.37473e-11
-1.49941e-10
1.43114e-11
-1.597e-10
1.47323e-11
-1.69174e-10
1.50264e-11
-1.78355e-10
1.52084e-11
-1.87237e-10
1.52914e-11
-1.95819e-10
1.52878e-11
-2.04102e-10
1.52082e-11
1.50624e-11
-2.12087e-10
2.38553e-13
-2.68735e-12
8.66234e-13
-7.74027e-12
1.83423e-12
-1.25023e-11
3.11385e-12
-1.69906e-11
4.68173e-12
-2.12126e-11
6.51556e-12
-2.51706e-11
8.59724e-12
-2.88703e-11
1.09057e-11
-3.23091e-11
1.34243e-11
-3.54926e-11
1.6128e-11
-3.84118e-11
1.89983e-11
-4.10744e-11
2.2001e-11
-4.34624e-11
2.51131e-11
-4.55892e-11
2.82852e-11
-4.74238e-11
3.14909e-11
-4.89932e-11
3.46702e-11
-5.02561e-11
3.78234e-11
-5.12816e-11
4.07907e-11
-5.19019e-11
4.32697e-11
-5.20014e-11
4.54859e-11
-5.21652e-11
1.85013e-11
-5.09543e-11
-3.87287e-12
-4.95734e-11
-2.46128e-11
-2.86666e-11
-4.02823e-11
-3.31468e-11
-5.91914e-11
-2.73694e-11
-7.83698e-11
-1.89021e-11
-9.75787e-11
-1.13351e-11
-1.16944e-10
-4.61394e-12
-1.35747e-10
5.62539e-13
-1.53936e-10
4.97928e-12
-1.71492e-10
8.71672e-12
-1.88477e-10
1.18259e-11
-2.04575e-10
1.43868e-11
-2.19654e-10
1.64742e-11
-2.33821e-10
1.81543e-11
-2.47108e-10
1.94854e-11
-2.59543e-10
2.05165e-11
-2.7116e-10
2.12899e-11
-2.81992e-10
2.18409e-11
-2.92075e-10
2.21992e-11
-3.01444e-10
2.2392e-11
-3.10138e-10
2.24415e-11
-3.18196e-10
2.2369e-11
-3.25656e-10
2.21924e-11
-3.32557e-10
2.19276e-11
-3.38938e-10
2.15887e-11
-3.44835e-10
2.11883e-11
-3.50283e-10
2.07358e-11
-3.55315e-10
2.02407e-11
1.97101e-11
-3.59963e-10
-3.68777e-13
-2.31857e-12
-1.3553e-12
-6.75375e-12
-2.83506e-12
-1.10226e-11
-4.69195e-12
-1.51337e-11
-6.81282e-12
-1.90918e-11
-9.10138e-12
-2.2882e-11
-1.14572e-11
-2.65145e-11
-1.3802e-11
-2.99644e-11
-1.6044e-11
-3.32506e-11
-1.81224e-11
-3.63334e-11
-1.99506e-11
-3.92462e-11
-2.14867e-11
-4.19263e-11
-2.26425e-11
-4.44334e-11
-2.33837e-11
-4.66826e-11
-2.35808e-11
-4.87961e-11
-2.34183e-11
-5.04186e-11
-2.3525e-11
-5.11749e-11
-2.35673e-11
-5.20811e-11
-4.36595e-11
-5.28179e-11
-7.98528e-11
-4.81148e-11
-1.75209e-10
4.40667e-11
-2.32528e-10
7.74529e-12
-2.64261e-10
3.06655e-12
-3.07289e-10
9.88075e-12
-3.45209e-10
1.05509e-11
-3.76262e-10
1.21512e-11
-4.01924e-10
1.43271e-11
-4.23163e-10
1.66248e-11
-4.4137e-10
1.87693e-11
-4.57019e-10
2.06285e-11
-4.70452e-10
2.21496e-11
-4.81939e-10
2.33129e-11
-4.91691e-10
2.41391e-11
-4.99884e-10
2.46669e-11
-5.06661e-10
2.49312e-11
-5.12169e-10
2.49933e-11
-5.1654e-10
2.48873e-11
-5.1989e-10
2.46397e-11
-5.22332e-10
2.42828e-11
-5.23971e-10
2.38386e-11
-5.24889e-10
2.33097e-11
-5.25173e-10
2.2726e-11
-5.24901e-10
2.2097e-11
-5.24151e-10
2.14421e-11
-5.22997e-10
2.07738e-11
-5.2151e-10
2.01024e-11
-5.19763e-10
1.94409e-11
-5.17822e-10
1.87952e-11
-5.1573e-10
1.81482e-11
1.75088e-11
-5.13529e-10
-8.79199e-13
-1.43937e-12
-3.15107e-12
-4.48187e-12
-6.5448e-12
-7.62883e-12
-1.08445e-11
-1.0834e-11
-1.5844e-11
-1.40923e-11
-2.13514e-11
-1.73746e-11
-2.71769e-11
-2.06889e-11
-3.31462e-11
-2.39951e-11
-3.90769e-11
-2.73199e-11
-4.48066e-11
-3.06036e-11
-5.01489e-11
-3.3904e-11
-5.49388e-11
-3.71364e-11
-5.89517e-11
-4.04206e-11
-6.28318e-11
-4.28025e-11
-6.68026e-11
-4.48253e-11
-7.09352e-11
-4.74299e-11
-1.07897e-10
-5.13142e-11
-1.56634e-10
-3.16769e-11
-2.06402e-10
-3.41081e-12
-2.38608e-10
-1.59087e-11
-6.47758e-10
4.53217e-10
-9.38307e-10
2.98294e-10
-1.13133e-09
1.96089e-10
-1.24627e-09
1.24822e-10
-1.31212e-09
7.6404e-11
-1.34463e-09
4.46572e-11
-1.35487e-09
2.45634e-11
-1.35038e-09
1.21349e-11
-1.33635e-09
4.74192e-12
-1.31634e-09
6.18316e-13
-1.29271e-09
-1.47882e-12
-1.26693e-09
-2.46758e-12
-1.23966e-09
-3.13045e-12
-1.21164e-09
-3.35296e-12
-1.1834e-09
-3.31284e-12
-1.15513e-09
-3.27665e-12
-1.12716e-09
-3.07827e-12
-1.09967e-09
-2.84873e-12
-1.07274e-09
-2.65216e-12
-1.0465e-09
-2.3992e-12
-1.02102e-09
-2.1687e-12
-9.96351e-10
-1.94438e-12
-9.72552e-10
-1.70248e-12
-9.49655e-10
-1.45524e-12
-9.27642e-10
-1.23831e-12
-9.06514e-10
-1.026e-12
-8.86272e-10
-8.00826e-13
-8.66926e-10
-5.51517e-13
-8.48458e-10
-3.19424e-13
-1.4382e-13
-8.30805e-10
-2.68627e-13
-1.17075e-12
-1.08496e-12
-3.66554e-12
-2.40828e-12
-6.30551e-12
-4.18223e-12
-9.06004e-12
-6.31641e-12
-1.19581e-11
-8.73744e-12
-1.49536e-11
-1.13173e-11
-1.8109e-11
-1.39667e-11
-2.13457e-11
-1.65081e-11
-2.47786e-11
-1.88257e-11
-2.8286e-11
-2.06614e-11
-3.20683e-11
-2.29364e-11
-3.48613e-11
-2.55373e-11
-3.78197e-11
-3.06271e-11
-4.2796e-11
-7.34149e-11
-4.20654e-11
-1.61538e-10
1.77751e-11
-1.47298e-10
-6.58218e-11
-2.33931e-10
5.4956e-11
-6.04509e-10
3.67167e-10
-9.06289e-10
2.85872e-10
-9.1963e-10
4.66557e-10
-1.09397e-09
4.72631e-10
-1.22892e-09
3.31043e-10
-1.32682e-09
2.22725e-10
-1.39282e-09
1.42396e-10
-1.43298e-09
8.48179e-11
-1.45315e-09
4.47342e-11
-1.45829e-09
1.72823e-11
-1.45139e-09
-2.15728e-12
-1.43756e-09
-1.32123e-11
-1.41825e-09
-2.07903e-11
-1.39507e-09
-2.56498e-11
-1.36934e-09
-2.88578e-11
-1.34214e-09
-3.05591e-11
-1.31421e-09
-3.12422e-11
-1.28582e-09
-3.16692e-11
-1.25749e-09
-3.14025e-11
-1.22945e-09
-3.08855e-11
-1.20172e-09
-3.03897e-11
-1.1747e-09
-2.94114e-11
-1.14877e-09
-2.80984e-11
-1.12373e-09
-2.69923e-11
-1.09969e-09
-2.57426e-11
-1.07677e-09
-2.43675e-11
-1.05489e-09
-2.31255e-11
-1.03402e-09
-2.18964e-11
-1.01421e-09
-2.06064e-11
-9.95428e-10
-1.93352e-11
-9.77591e-10
-1.81556e-11
-1.71207e-11
-9.60615e-10
8.66091e-14
-1.25736e-12
1.68915e-13
-3.74785e-12
1.20315e-13
-6.25691e-12
-1.67477e-13
-8.77225e-12
-7.78299e-13
-1.13473e-11
-1.80595e-12
-1.3926e-11
-3.30874e-12
-1.66062e-11
-5.36348e-12
-1.9291e-11
-7.99308e-12
-2.2149e-11
-1.14105e-11
-2.48686e-11
-1.57249e-11
-2.77539e-11
-2.10281e-11
-3.42032e-11
-6.43037e-11
-3.04141e-11
-1.6196e-10
2.30485e-11
-1.9003e-10
-1.42855e-11
-6.14548e-10
4.42293e-10
-8.7147e-10
1.911e-10
-1.02524e-09
2.08727e-10
-1.02806e-09
3.69982e-10
-1.21566e-09
4.73481e-10
-1.17998e-09
4.30868e-10
-1.07209e-09
3.64745e-10
-1.02945e-09
2.88403e-10
-1.02411e-09
2.17385e-10
-1.03824e-09
1.56523e-10
-1.06018e-09
1.06758e-10
-1.08299e-09
6.75525e-11
-1.10308e-09
3.73696e-11
-1.11974e-09
1.45059e-11
-1.13114e-09
-1.81536e-12
-1.13701e-09
-1.49193e-11
-1.13858e-09
-2.40854e-11
-1.13695e-09
-3.04847e-11
-1.13248e-09
-3.50289e-11
-1.12565e-09
-3.80679e-11
-1.11743e-09
-3.9895e-11
-1.10791e-09
-4.09215e-11
-1.09742e-09
-4.1372e-11
-1.08655e-09
-4.12579e-11
-1.07526e-09
-4.07106e-11
-1.06337e-09
-3.99842e-11
-1.05135e-09
-3.90133e-11
-1.03926e-09
-3.78284e-11
-1.02713e-09
-3.65003e-11
-1.0153e-09
-3.49565e-11
-1.00392e-09
-3.32756e-11
-9.92849e-10
-3.16773e-11
-9.82043e-10
-3.01411e-11
-9.71649e-10
-2.85496e-11
-2.68616e-11
-9.61908e-10
-2.07488e-13
-1.04987e-12
-8.85591e-13
-3.06974e-12
-2.15529e-12
-4.98721e-12
-4.13906e-12
-6.78848e-12
-7.00787e-12
-8.4785e-12
-1.0883e-11
-1.00509e-11
-1.59742e-11
-1.1515e-11
-2.24166e-11
-1.28486e-11
-3.05503e-11
-1.40153e-11
-4.01636e-11
-1.5303e-11
-7.6649e-11
-1.54839e-11
-1.897e-10
2.09081e-11
-2.17009e-10
-3.59277e-12
-6.04431e-10
4.1047e-10
-8.48071e-10
2.29354e-10
-7.05822e-10
3.00044e-10
-9.15856e-10
4.01135e-10
-1.0637e-09
3.56572e-10
-1.05923e-09
3.65515e-10
-9.46473e-10
3.6072e-10
-8.46645e-10
3.3104e-10
-7.74949e-10
2.93049e-10
-7.36821e-10
2.50275e-10
-7.25934e-10
2.06497e-10
-7.34344e-10
1.64933e-10
-7.5454e-10
1.26954e-10
-7.80702e-10
9.3714e-11
-8.08783e-10
6.54503e-11
-8.36323e-10
4.20464e-11
-8.61119e-10
2.29802e-11
-8.83698e-10
7.66008e-12
-9.0318e-10
-4.60331e-12
-9.20099e-10
-1.35661e-11
-9.34645e-10
-2.0483e-11
-9.47202e-10
-2.55101e-11
-9.57996e-10
-2.91011e-11
-9.67114e-10
-3.1804e-11
-9.75042e-10
-3.34441e-11
-9.8182e-10
-3.44795e-11
-9.87876e-10
-3.4655e-11
-9.93444e-10
-3.44159e-11
-9.98046e-10
-3.44111e-11
-1.0018e-09
-3.40744e-11
-1.00543e-09
-3.28721e-11
-1.00885e-09
-3.15369e-11
-1.01184e-09
-3.0281e-11
-1.01452e-09
-2.8996e-11
-1.01701e-09
-2.76596e-11
-1.01921e-09
-2.6341e-11
-2.48604e-11
-1.02122e-09
-2.88944e-13
-7.60924e-13
-1.30928e-12
-2.04941e-12
-3.12031e-12
-3.17618e-12
-5.7229e-12
-4.18589e-12
-9.12924e-12
-5.07216e-12
-1.33297e-11
-5.85042e-12
-1.83416e-11
-6.50312e-12
-2.41367e-11
-7.05347e-12
-3.11385e-11
-7.6478e-12
-1.46105e-10
-8.71726e-12
-1.45668e-10
-1.67649e-11
-4.48234e-10
3.23474e-10
-6.49805e-10
1.97978e-10
-5.12443e-10
2.73109e-10
-6.51368e-10
3.6828e-10
-6.66642e-10
3.15318e-10
-5.7235e-10
3.06842e-10
-5.20984e-10
3.05206e-10
-4.59006e-10
3.03538e-10
-3.9651e-10
2.98224e-10
-3.51857e-10
2.86387e-10
-3.27034e-10
2.68226e-10
-3.21824e-10
2.45065e-10
-3.34199e-10
2.18872e-10
-3.6041e-10
1.91145e-10
-3.97065e-10
1.63609e-10
-4.40729e-10
1.37378e-10
-4.88443e-10
1.13164e-10
-5.37796e-10
9.13996e-11
-5.87033e-10
7.22175e-11
-6.3494e-10
5.55672e-11
-6.80864e-10
4.13207e-11
-7.23696e-10
2.92658e-11
-7.63375e-10
1.91961e-11
-7.9986e-10
1.09747e-11
-8.33257e-10
4.29646e-12
-8.64117e-10
-9.43899e-13
-8.92282e-10
-5.27992e-12
-9.18013e-10
-8.74797e-12
-9.41308e-10
-1.13605e-11
-9.62522e-10
-1.3202e-11
-9.82361e-10
-1.45713e-11
-1.00095e-09
-1.5484e-11
-1.01793e-09
-1.58972e-11
-1.03342e-09
-1.60455e-11
-1.04749e-09
-1.62109e-11
-1.06042e-09
-1.60605e-11
-1.07238e-09
-1.57003e-11
-1.08351e-09
-1.52185e-11
-1.46734e-11
-1.09369e-09
-1.10741e-12
3.46489e-13
-4.06847e-12
9.11651e-13
-8.61908e-12
1.37443e-12
-1.4552e-11
1.74707e-12
-2.16421e-11
2.01791e-12
-2.96837e-11
2.19119e-12
-3.84056e-11
2.21873e-12
-5.097e-11
1.9745e-12
-1.61479e-10
9.32967e-13
-1.69643e-10
-5.53811e-13
-2.0314e-10
1.67326e-11
-6.31564e-11
1.83491e-10
-9.33364e-11
2.28158e-10
-2.45924e-11
2.04365e-10
1.35936e-10
2.07751e-10
2.37884e-10
2.1337e-10
3.18826e-10
2.25901e-10
3.8457e-10
2.39461e-10
4.37602e-10
2.50506e-10
4.78597e-10
2.57229e-10
5.06416e-10
2.58568e-10
5.20087e-10
2.54554e-10
5.19371e-10
2.45781e-10
5.05015e-10
2.33228e-10
4.78186e-10
2.17974e-10
4.40756e-10
2.01039e-10
3.94736e-10
1.83398e-10
3.42144e-10
1.65756e-10
2.84862e-10
1.48681e-10
2.24515e-10
1.32565e-10
1.62535e-10
1.17547e-10
1.00119e-10
1.03737e-10
3.81504e-11
9.1234e-11
-2.26831e-11
8.00296e-11
-8.17456e-11
7.00372e-11
-1.38652e-10
6.12033e-11
-1.93236e-10
5.36399e-11
-2.45541e-10
4.70247e-11
-2.95565e-10
4.12759e-11
-3.43244e-10
3.6319e-11
-3.8861e-10
3.21641e-11
-4.31896e-10
2.87142e-11
-4.73082e-10
2.57024e-11
-5.12024e-10
2.3045e-11
-5.4889e-10
2.08204e-11
-5.83868e-10
1.87666e-11
-6.16791e-10
1.68626e-11
-6.47897e-10
1.54054e-11
-6.77217e-10
1.41021e-11
1.29323e-11
-7.04823e-10
-1.77117e-12
2.11766e-12
-7.02766e-12
6.16814e-12
-1.57423e-11
1.00891e-11
-2.79225e-11
1.39273e-11
-4.36047e-11
1.77001e-11
-6.28568e-11
2.14433e-11
-9.19237e-11
2.51985e-11
-2.37049e-10
2.9702e-11
-2.63233e-10
2.71171e-11
-2.52308e-10
-1.14792e-11
-2.51421e-10
1.58455e-11
-1.2071e-10
5.27802e-11
6.23022e-11
4.51454e-11
2.32408e-10
3.42593e-11
2.74836e-10
1.65323e-10
1.8659e-10
3.01616e-10
3.9297e-11
3.73194e-10
-1.17983e-10
3.96741e-10
-2.56553e-10
3.89076e-10
-3.64974e-10
3.6565e-10
-4.41946e-10
3.3554e-10
-4.89852e-10
3.02461e-10
-5.13812e-10
2.69741e-10
-5.20455e-10
2.39871e-10
-5.1636e-10
2.13879e-10
-5.06926e-10
1.91605e-10
-4.95944e-10
1.72417e-10
-4.85849e-10
1.5566e-10
-4.78065e-10
1.40898e-10
-4.73279e-10
1.27779e-10
-4.7178e-10
1.16048e-10
-4.73552e-10
1.05509e-10
-4.78371e-10
9.6053e-11
-4.85894e-10
8.75532e-11
-4.95768e-10
7.99105e-11
-5.07647e-10
7.30827e-11
-5.20999e-10
6.69921e-11
-5.35517e-10
6.15422e-11
-5.50892e-10
5.66506e-11
-5.66834e-10
5.2261e-11
-5.82989e-10
4.8319e-11
-5.9907e-10
4.4796e-11
-6.14965e-10
4.1597e-11
-6.3052e-10
3.86002e-11
-6.45698e-10
3.59986e-11
-6.60615e-10
3.36833e-11
-6.75372e-10
3.16198e-11
-6.89732e-10
2.97655e-11
-7.03741e-10
2.81106e-11
2.66006e-11
-7.17409e-10
2.22613e-13
1.89504e-12
6.5407e-13
5.73668e-12
9.21963e-13
9.82122e-12
6.54997e-13
1.41942e-11
-5.06644e-13
1.88617e-11
-2.89077e-12
2.38275e-11
-7.52691e-12
2.91597e-11
-1.34738e-10
3.50894e-11
-1.72456e-10
6.37368e-11
-1.70169e-10
-1.5955e-11
-2.51197e-10
9.68738e-11
-2.13006e-10
1.4589e-11
-1.3954e-10
-2.83204e-11
-4.98117e-11
-5.54691e-11
-3.3786e-11
1.49297e-10
-3.56614e-12
2.71396e-10
4.31935e-11
3.26434e-10
6.55514e-11
3.74383e-10
9.51634e-11
3.59464e-10
1.69706e-10
2.91107e-10
2.21374e-10
2.83872e-10
2.32425e-10
2.9141e-10
2.01064e-10
3.01101e-10
1.31875e-10
3.0906e-10
4.103e-11
3.04724e-10
-5.62308e-11
2.88865e-10
-1.49088e-10
2.65275e-10
-2.31041e-10
2.37613e-10
-2.99398e-10
2.09255e-10
-3.55079e-10
1.8346e-10
-4.00946e-10
1.61914e-10
-4.39688e-10
1.44251e-10
-4.72608e-10
1.28973e-10
-5.00227e-10
1.15171e-10
-5.2301e-10
1.02694e-10
-5.41543e-10
9.16157e-11
-5.56465e-10
8.19138e-11
-5.68379e-10
7.34563e-11
-5.77815e-10
6.60866e-11
-5.85225e-10
5.96707e-11
-5.91009e-10
5.41033e-11
-5.95498e-10
4.92854e-11
-5.99031e-10
4.51298e-11
-6.02012e-10
4.15812e-11
-6.04579e-10
3.85656e-11
-6.06953e-10
3.60569e-11
-6.09291e-10
3.39581e-11
-6.11719e-10
3.21935e-11
-6.14322e-10
3.07138e-11
2.94629e-11
-6.17185e-10
3.08414e-12
1.11906e-11
2.37684e-11
4.06034e-11
6.15235e-11
8.64138e-11
1.15177e-10
1.42577e-10
1.4914e-10
1.17702e-10
1.63708e-10
1.81686e-10
8.54668e-11
1.25485e-11
7.92289e-11
3.05903e-10
2.35538e-10
3.4873e-10
7.82835e-10
1.07065e-09
1.26976e-09
1.39318e-09
1.44562e-09
1.44897e-09
1.40618e-09
1.36045e-09
1.36247e-09
1.35153e-09
1.30752e-09
1.23337e-09
1.1418e-09
1.04745e-09
9.61591e-10
8.86405e-10
8.2063e-10
7.60405e-10
7.02404e-10
6.45417e-10
5.89422e-10
5.34673e-10
4.81472e-10
4.30025e-10
3.80468e-10
3.3285e-10
2.8721e-10
2.43748e-10
2.02551e-10
1.63809e-10
1.27499e-10
9.35512e-11
-8.09636e-11
-2.4377e-11
-8.30637e-11
-2.40673e-11
-8.51658e-11
-2.37723e-11
-8.72685e-11
-2.3491e-11
-8.93702e-11
-2.32228e-11
-9.14694e-11
-2.29667e-11
-9.35649e-11
-2.27223e-11
-9.56553e-11
-2.24887e-11
-9.77396e-11
-2.22655e-11
-9.98166e-11
-2.20519e-11
-1.01885e-10
-2.18475e-11
-1.03945e-10
-2.16518e-11
-1.05994e-10
-2.14643e-11
-1.08032e-10
-2.12845e-11
-1.10058e-10
-2.11122e-11
-1.12072e-10
-2.09469e-11
-1.14072e-10
-2.07882e-11
-1.16058e-10
-2.06359e-11
-1.1803e-10
-2.04897e-11
-1.19986e-10
-2.03494e-11
-1.21926e-10
-2.02146e-11
-1.23849e-10
-2.00851e-11
-1.25756e-10
-1.99609e-11
-1.27645e-10
-1.98416e-11
-1.29516e-10
-1.97272e-11
-1.31368e-10
-1.96174e-11
-1.33201e-10
-1.95122e-11
-1.35015e-10
-1.94115e-11
-1.36809e-10
-1.93151e-11
-1.38583e-10
-1.92229e-11
-1.40337e-10
-1.9135e-11
-1.42069e-10
-1.90511e-11
-1.4378e-10
-1.89714e-11
-1.4547e-10
-1.88956e-11
-1.47138e-10
-1.88238e-11
-1.48784e-10
-1.87558e-11
-1.50407e-10
-1.86917e-11
-1.52008e-10
-1.86314e-11
-1.53586e-10
-1.85747e-11
-1.55141e-10
-1.85215e-11
-1.56672e-10
-1.84717e-11
-1.5818e-10
-1.8425e-11
-1.59664e-10
-1.83814e-11
-1.61124e-10
-1.83405e-11
-1.62561e-10
-1.83021e-11
-1.63973e-10
-1.82663e-11
-1.65361e-10
-1.82331e-11
-1.66724e-10
-1.82046e-11
-1.68063e-10
-1.81804e-11
-1.80925e-11
-1.69376e-10
-8.4023e-11
-2.20172e-11
-8.63915e-11
-2.16988e-11
-8.87661e-11
-2.13977e-11
-9.11442e-11
-2.11129e-11
-9.35236e-11
-2.08433e-11
-9.59022e-11
-2.05882e-11
-9.8278e-11
-2.03466e-11
-1.00649e-10
-2.01178e-11
-1.03013e-10
-1.9901e-11
-1.0537e-10
-1.96955e-11
-1.07716e-10
-1.95008e-11
-1.10052e-10
-1.93161e-11
-1.12375e-10
-1.9141e-11
-1.14685e-10
-1.8975e-11
-1.1698e-10
-1.88174e-11
-1.19259e-10
-1.8668e-11
-1.21521e-10
-1.85263e-11
-1.23765e-10
-1.83919e-11
-1.2599e-10
-1.82644e-11
-1.28196e-10
-1.81436e-11
-1.30381e-10
-1.80292e-11
-1.32545e-10
-1.79209e-11
-1.34688e-10
-1.78184e-11
-1.36808e-10
-1.77216e-11
-1.38905e-10
-1.76301e-11
-1.40978e-10
-1.7544e-11
-1.43028e-10
-1.74629e-11
-1.45052e-10
-1.73867e-11
-1.47052e-10
-1.73154e-11
-1.49026e-10
-1.72487e-11
-1.50975e-10
-1.71867e-11
-1.52897e-10
-1.71291e-11
-1.54792e-10
-1.70759e-11
-1.5666e-10
-1.70271e-11
-1.58502e-10
-1.69825e-11
-1.60315e-10
-1.69421e-11
-1.62101e-10
-1.69058e-11
-1.63859e-10
-1.68735e-11
-1.65589e-10
-1.6845e-11
-1.6729e-10
-1.68203e-11
-1.68963e-10
-1.67991e-11
-1.70607e-10
-1.67812e-11
-1.72221e-10
-1.67665e-11
-1.73807e-10
-1.67547e-11
-1.75364e-10
-1.67455e-11
-1.76891e-10
-1.6739e-11
-1.78389e-10
-1.67352e-11
-1.79858e-10
-1.67362e-11
-1.81296e-10
-1.67416e-11
-1.66809e-11
-1.82708e-10
-8.73074e-11
-1.92732e-11
-9.00632e-11
-1.8943e-11
-9.28272e-11
-1.86337e-11
-9.5596e-11
-1.8344e-11
-9.83666e-11
-1.80727e-11
-1.01136e-10
-1.78188e-11
-1.03902e-10
-1.75811e-11
-1.06661e-10
-1.73587e-11
-1.09411e-10
-1.71508e-11
-1.1215e-10
-1.69564e-11
-1.14876e-10
-1.67748e-11
-1.17587e-10
-1.66052e-11
-1.20281e-10
-1.64469e-11
-1.22957e-10
-1.62993e-11
-1.25612e-10
-1.61618e-11
-1.28247e-10
-1.60338e-11
-1.30858e-10
-1.59149e-11
-1.33445e-10
-1.58045e-11
-1.36008e-10
-1.57022e-11
-1.38544e-10
-1.56076e-11
-1.41052e-10
-1.55204e-11
-1.43533e-10
-1.54401e-11
-1.45985e-10
-1.53666e-11
-1.48407e-10
-1.52994e-11
-1.50799e-10
-1.52384e-11
-1.53159e-10
-1.51833e-11
-1.55488e-10
-1.51339e-11
-1.57785e-10
-1.50899e-11
-1.60049e-10
-1.50512e-11
-1.62281e-10
-1.50177e-11
-1.64478e-10
-1.49892e-11
-1.66642e-10
-1.49655e-11
-1.68771e-10
-1.49466e-11
-1.70866e-10
-1.49323e-11
-1.72926e-10
-1.49226e-11
-1.7495e-10
-1.49172e-11
-1.7694e-10
-1.49162e-11
-1.78894e-10
-1.49193e-11
-1.80813e-10
-1.49264e-11
-1.82696e-10
-1.49374e-11
-1.84543e-10
-1.4952e-11
-1.86354e-10
-1.497e-11
-1.88129e-10
-1.49912e-11
-1.89869e-10
-1.50152e-11
-1.91572e-10
-1.5042e-11
-1.9324e-10
-1.50713e-11
-1.94872e-10
-1.51032e-11
-1.96468e-10
-1.514e-11
-1.98029e-10
-1.5181e-11
-1.51581e-11
-1.99551e-10
-9.01949e-11
-1.5933e-11
-9.3542e-11
-1.5596e-11
-9.68913e-11
-1.52844e-11
-1.00238e-10
-1.49968e-11
-1.0358e-10
-1.47316e-11
-1.06911e-10
-1.44874e-11
-1.10229e-10
-1.42629e-11
-1.13531e-10
-1.40569e-11
-1.16813e-10
-1.38682e-11
-1.20074e-10
-1.36958e-11
-1.2331e-10
-1.35386e-11
-1.2652e-10
-1.33957e-11
-1.29701e-10
-1.32662e-11
-1.32851e-10
-1.31493e-11
-1.35968e-10
-1.30442e-11
-1.39052e-10
-1.29503e-11
-1.421e-10
-1.28668e-11
-1.45111e-10
-1.27932e-11
-1.48084e-10
-1.27289e-11
-1.51019e-10
-1.26733e-11
-1.53913e-10
-1.26261e-11
-1.56766e-10
-1.25867e-11
-1.59578e-10
-1.25547e-11
-1.62348e-10
-1.25298e-11
-1.65075e-10
-1.25116e-11
-1.67758e-10
-1.24998e-11
-1.70398e-10
-1.24942e-11
-1.72993e-10
-1.24944e-11
-1.75544e-10
-1.25003e-11
-1.7805e-10