/*--------------------------------*- C++ -*----------------------------------*\
| =========                 |                                                 |
| \\      /  F ield         | OpenFOAM: The Open Source CFD Toolbox           |
|  \\    /   O peration     | Version:  2.4.0                                 |
|   \\  /    A nd           | Web:      www.OpenFOAM.org                      |
|    \\/     M anipulation  |                                                 |
\*---------------------------------------------------------------------------*/
FoamFile
{
    version     2.0;
    format      ascii;
    class       volVectorField;
    location    "1.5";
    object      U;
}
// * * * * * * * * * * * * * * * * * * * * * * * * * * * * * * * * * * * * * //

dimensions      [0 1 -1 0 0 0 0];

internalField   nonuniform List<vector> 
8000
(
(2.00255e-08 -0.000165666 0)
(1.61101e-07 -0.000482755 0)
(4.07412e-07 -0.000785635 0)
(7.26604e-07 -0.00107434 0)
(1.08889e-06 -0.0013489 0)
(1.45866e-06 -0.00160929 0)
(1.81504e-06 -0.00185552 0)
(2.12235e-06 -0.00208758 0)
(2.3649e-06 -0.00230545 0)
(2.50277e-06 -0.00250912 0)
(2.52531e-06 -0.00269858 0)
(2.3856e-06 -0.00287381 0)
(2.07898e-06 -0.00303479 0)
(1.54863e-06 -0.00318151 0)
(7.96998e-07 -0.00331393 0)
(-2.55013e-07 -0.00343204 0)
(-1.61428e-06 -0.00353581 0)
(-3.37954e-06 -0.0036252 0)
(-5.37298e-06 -0.00370018 0)
(-7.25552e-06 -0.00376067 0)
(-8.85064e-06 -0.00380657 0)
(-1.45077e-05 -0.003838 0)
(-3.34233e-05 -0.00385589 0)
(-8.57683e-05 -0.00386597 0)
(-0.000229716 -0.00386487 0)
(-0.000508424 -0.00400551 0)
(-0.000290039 -0.003918 0)
(-0.000292817 -0.00382722 0)
(-0.000311553 -0.00374543 0)
(-0.000327332 -0.00366664 0)
(-0.000338941 -0.00358986 0)
(-0.000350272 -0.00351512 0)
(-0.000362391 -0.00344257 0)
(-0.000375215 -0.00337235 0)
(-0.000388551 -0.00330462 0)
(-0.000402312 -0.00323949 0)
(-0.000416459 -0.00317703 0)
(-0.000430961 -0.00311725 0)
(-0.000445788 -0.00306015 0)
(-0.000460906 -0.00300568 0)
(-0.000476287 -0.00295374 0)
(-0.000491904 -0.00290427 0)
(-0.000507732 -0.00285714 0)
(-0.000523746 -0.00281225 0)
(-0.000539924 -0.00276949 0)
(-0.000556244 -0.00272875 0)
(-0.000572687 -0.00268992 0)
(-0.000589233 -0.0026529 0)
(-0.000605864 -0.00261758 0)
(-0.000622563 -0.00258388 0)
(6.16011e-10 -0.000166429 0)
(-4.39192e-09 -0.00048472 0)
(-1.48686e-08 -0.000788492 0)
(-3.28593e-08 -0.0010778 0)
(-5.81823e-08 -0.00135265 0)
(-9.53865e-08 -0.00161307 0)
(-1.45633e-07 -0.00185905 0)
(-2.16779e-07 -0.00209057 0)
(-3.10219e-07 -0.00230763 0)
(-4.3665e-07 -0.00251021 0)
(-5.96507e-07 -0.00269828 0)
(-8.0298e-07 -0.00287184 0)
(-1.05304e-06 -0.00303083 0)
(-1.36066e-06 -0.00317524 0)
(-1.72191e-06 -0.00330502 0)
(-2.18007e-06 -0.00342013 0)
(-2.77315e-06 -0.00352051 0)
(-3.46345e-06 -0.00360611 0)
(-3.61205e-06 -0.00367686 0)
(-1.9879e-06 -0.00373263 0)
(-7.09086e-08 -0.00377322 0)
(-1.43274e-05 -0.00379876 0)
(-7.23011e-05 -0.00381063 0)
(-0.000163044 -0.00381576 0)
(-0.000319107 -0.0038148 0)
(-0.000508982 -0.00392752 0)
(-0.000305785 -0.00382596 0)
(-0.000304633 -0.00372219 0)
(-0.000320809 -0.00362809 0)
(-0.000334431 -0.00353776 0)
(-0.000344451 -0.00345037 0)
(-0.000354581 -0.00336588 0)
(-0.000365839 -0.00328438 0)
(-0.000378115 -0.00320597 0)
(-0.000391196 -0.00313075 0)
(-0.000404973 -0.00305878 0)
(-0.000419385 -0.0029901 0)
(-0.000434383 -0.00292469 0)
(-0.000449916 -0.0028625 0)
(-0.000465933 -0.00280345 0)
(-0.00048239 -0.00274742 0)
(-0.000499243 -0.00269431 0)
(-0.000516451 -0.00264397 0)
(-0.000533976 -0.00259628 0)
(-0.000551781 -0.00255108 0)
(-0.000569833 -0.00250826 0)
(-0.000588099 -0.00246768 0)
(-0.000606548 -0.0024292 0)
(-0.000625153 -0.00239272 0)
(-0.000643887 -0.00235812 0)
(-6.14898e-09 -0.000165528 0)
(3.15493e-08 -0.000482416 0)
(1.49376e-07 -0.000785124 0)
(3.62532e-07 -0.00107365 0)
(6.76493e-07 -0.00134796 0)
(1.09911e-06 -0.00160804 0)
(1.63048e-06 -0.00185384 0)
(2.27796e-06 -0.00208535 0)
(3.03773e-06 -0.00230254 0)
(3.9179e-06 -0.00250537 0)
(4.91145e-06 -0.00269384 0)
(6.02951e-06 -0.00286793 0)
(7.26439e-06 -0.00302761 0)
(8.63487e-06 -0.00317288 0)
(1.01261e-05 -0.00330373 0)
(1.1725e-05 -0.00342014 0)
(1.33499e-05 -0.00352213 0)
(1.51442e-05 -0.00360967 0)
(1.80222e-05 -0.00368278 0)
(2.37948e-05 -0.00374143 0)
(2.95784e-05 -0.00378563 0)
(1.18418e-05 -0.00381553 0)
(-7.40466e-05 -0.00383243 0)
(-0.000214676 -0.0038377 0)
(-0.000410783 -0.00393789 0)
(-0.00041012 -0.00391814 0)
(-0.000294992 -0.0037824 0)
(-0.000292206 -0.0036583 0)
(-0.000305175 -0.00354532 0)
(-0.000317013 -0.00343763 0)
(-0.000327085 -0.00333444 0)
(-0.000337774 -0.0032356 0)
(-0.000349767 -0.00314104 0)
(-0.000362965 -0.00305071 0)
(-0.000377188 -0.00296458 0)
(-0.000392326 -0.00288264 0)
(-0.000408306 -0.00280482 0)
(-0.00042506 -0.00273105 0)
(-0.000442523 -0.00266123 0)
(-0.000460631 -0.00259521 0)
(-0.000479326 -0.00253285 0)
(-0.000498551 -0.002474 0)
(-0.000518252 -0.00241849 0)
(-0.000538379 -0.00236615 0)
(-0.000558883 -0.00231682 0)
(-0.000579719 -0.00227034 0)
(-0.000600843 -0.00222655 0)
(-0.000622216 -0.0021853 0)
(-0.000643799 -0.00214645 0)
(-0.000665557 -0.00210985 0)
(6.81417e-08 -0.000167195 0)
(6.51609e-07 -0.000487393 0)
(1.8132e-06 -0.00079337 0)
(3.52002e-06 -0.0010851 0)
(5.73128e-06 -0.00136256 0)
(8.41033e-06 -0.00162569 0)
(1.15317e-05 -0.00187447 0)
(1.50642e-05 -0.00210886 0)
(1.89853e-05 -0.00232882 0)
(2.32623e-05 -0.00253434 0)
(2.78753e-05 -0.00272539 0)
(3.279e-05 -0.00290196 0)
(3.79915e-05 -0.00306404 0)
(4.34443e-05 -0.00321163 0)
(4.91329e-05 -0.00334473 0)
(5.49811e-05 -0.00346332 0)
(6.09245e-05 -0.00356744 0)
(6.7023e-05 -0.00365709 0)
(7.41154e-05 -0.00373228 0)
(8.36521e-05 -0.00379305 0)
(9.25999e-05 -0.00383947 0)
(8.08213e-05 -0.00387161 0)
(2.42746e-06 -0.00389153 0)
(-0.000147548 -0.00389755 0)
(-0.000451839 -0.00403753 0)
(-0.000217746 -0.00387574 0)
(-0.000215329 -0.00372051 0)
(-0.000230076 -0.00358114 0)
(-0.00024324 -0.00344938 0)
(-0.000253555 -0.00332321 0)
(-0.000264766 -0.00320247 0)
(-0.000277836 -0.00308711 0)
(-0.000292609 -0.0029771 0)
(-0.00030882 -0.0028724 0)
(-0.000326311 -0.00277296 0)
(-0.000344974 -0.00267873 0)
(-0.000364712 -0.00258962 0)
(-0.000385429 -0.00250551 0)
(-0.000407033 -0.00242625 0)
(-0.000429437 -0.00235167 0)
(-0.000452559 -0.00228159 0)
(-0.000476322 -0.00221579 0)
(-0.000500651 -0.00215408 0)
(-0.000525479 -0.00209626 0)
(-0.000550739 -0.00204211 0)
(-0.00057637 -0.00199145 0)
(-0.000602314 -0.00194407 0)
(-0.000628516 -0.0018998 0)
(-0.000654926 -0.00185844 0)
(-0.000681495 -0.00181983 0)
(1.06356e-07 -0.000173128 0)
(1.11155e-06 -0.000504411 0)
(3.13839e-06 -0.000820728 0)
(6.13246e-06 -0.0011221 0)
(1.00193e-05 -0.00140853 0)
(1.47278e-05 -0.00167999 0)
(2.0209e-05 -0.00193648 0)
(2.63999e-05 -0.00217798 0)
(3.32578e-05 -0.00240448 0)
(4.07149e-05 -0.00261595 0)
(4.87353e-05 -0.00281239 0)
(5.72453e-05 -0.00299379 0)
(6.62198e-05 -0.00316015 0)
(7.55781e-05 -0.00331143 0)
(8.53025e-05 -0.00344766 0)
(9.52633e-05 -0.0035688 0)
(0.000105409 -0.00367486 0)
(0.000115736 -0.00376583 0)
(0.000127091 -0.00384169 0)
(0.000140774 -0.00390244 0)
(0.000153666 -0.00394809 0)
(0.000146439 -0.00397867 0)
(7.14358e-05 -0.00399661 0)
(-9.1278e-05 -0.00400236 0)
(-0.000400483 -0.00403679 0)
(-0.000129807 -0.00383706 0)
(-0.000149679 -0.00364738 0)
(-0.000164526 -0.00347463 0)
(-0.000175804 -0.00331194 0)
(-0.000185323 -0.00315772 0)
(-0.000197188 -0.00301146 0)
(-0.000211847 -0.00287286 0)
(-0.000228905 -0.00274164 0)
(-0.000248017 -0.00261762 0)
(-0.000268975 -0.00250063 0)
(-0.000291611 -0.00239047 0)
(-0.000315768 -0.00228695 0)
(-0.000341294 -0.00218985 0)
(-0.000368044 -0.00209892 0)
(-0.00039588 -0.00201393 0)
(-0.000424676 -0.0019346 0)
(-0.000454312 -0.00186066 0)
(-0.000484677 -0.00179185 0)
(-0.000515666 -0.00172791 0)
(-0.000547182 -0.00166857 0)
(-0.000579134 -0.00161358 0)
(-0.000611439 -0.0015627 0)
(-0.000644017 -0.00151567 0)
(-0.000676798 -0.00147228 0)
(-0.000709714 -0.00143231 0)
(1.48324e-07 -0.00018076 0)
(1.5658e-06 -0.000526617 0)
(4.43517e-06 -0.000856792 0)
(8.68065e-06 -0.00117129 0)
(1.42018e-05 -0.00147009 0)
(2.08946e-05 -0.00175317 0)
(2.86943e-05 -0.00202051 0)
(3.75039e-05 -0.00227209 0)
(4.72692e-05 -0.0025079 0)
(5.78823e-05 -0.00272793 0)
(6.93022e-05 -0.00293217 0)
(8.14079e-05 -0.00312062 0)
(9.41795e-05 -0.00329328 0)
(0.000107479 -0.00345015 0)
(0.00012131 -0.00359126 0)
(0.000135473 -0.00371659 0)
(0.00014996 -0.00382617 0)
(0.000164679 -0.00392001 0)
(0.000180521 -0.00399813 0)
(0.000198603 -0.00406055 0)
(0.000215904 -0.00410731 0)
(0.000213838 -0.00413847 0)
(0.000145061 -0.00415684 0)
(-2.641e-05 -0.00416369 0)
(-0.0003033 -0.00415545 0)
(-1.66742e-05 -0.00391811 0)
(-5.6656e-05 -0.00368338 0)
(-5.73228e-05 -0.00346626 0)
(-6.29528e-05 -0.00326094 0)
(-7.18869e-05 -0.00306648 0)
(-8.60906e-05 -0.00288265 0)
(-0.000104821 -0.00270926 0)
(-0.000127353 -0.00254608 0)
(-0.000153143 -0.00239286 0)
(-0.000181771 -0.00224933 0)
(-0.000212866 -0.00211519 0)
(-0.000246093 -0.0019901 0)
(-0.000281145 -0.00187372 0)
(-0.000317748 -0.00176567 0)
(-0.000355657 -0.00166557 0)
(-0.000394649 -0.00157302 0)
(-0.000434526 -0.00148763 0)
(-0.000475111 -0.00140899 0)
(-0.000516246 -0.00133672 0)
(-0.000557787 -0.00127046 0)
(-0.000599606 -0.00120984 0)
(-0.000641585 -0.00115453 0)
(-0.000683621 -0.00110418 0)
(-0.000725619 -0.00105849 0)
(-0.000767495 -0.00101714 0)
(2.29967e-07 -0.00019226 0)
(2.36546e-06 -0.000559896 0)
(6.64986e-06 -0.000910617 0)
(1.29491e-05 -0.00124442 0)
(2.10963e-05 -0.00156131 0)
(3.09162e-05 -0.00186127 0)
(4.23003e-05 -0.00214427 0)
(5.50845e-05 -0.00241031 0)
(6.91801e-05 -0.00265939 0)
(8.44071e-05 -0.0028915 0)
(0.000100701 -0.00310667 0)
(0.000117861 -0.00330489 0)
(0.00013586 -0.00348621 0)
(0.000154472 -0.00365062 0)
(0.00017371 -0.00379818 0)
(0.000193275 -0.0039289 0)
(0.000213199 -0.00404283 0)
(0.000233262 -0.00413999 0)
(0.000254405 -0.00422043 0)
(0.000277554 -0.0042842 0)
(0.000299942 -0.00433141 0)
(0.000303313 -0.00436209 0)
(0.000242519 -0.00437888 0)
(7.20392e-05 -0.00438489 0)
(-0.000143395 -0.00451119 0)
(5.0859e-05 -0.00414862 0)
(6.43824e-05 -0.00375961 0)
(6.17192e-05 -0.00341425 0)
(5.30061e-05 -0.00310249 0)
(3.98128e-05 -0.0028177 0)
(2.03984e-05 -0.00255681 0)
(-5.0536e-06 -0.00231765 0)
(-3.5749e-05 -0.00209846 0)
(-7.09139e-05 -0.0018977 0)
(-0.000109901 -0.00171403 0)
(-0.000152147 -0.00154624 0)
(-0.000197142 -0.00139322 0)
(-0.000244422 -0.00125397 0)
(-0.000293567 -0.00112745 0)
(-0.000344198 -0.00101274 0)
(-0.000395905 -0.000908979 0)
(-0.000448191 -0.000815361 0)
(-0.000500933 -0.000731166 0)
(-0.000554121 -0.000655697 0)
(-0.000607555 -0.000588304 0)
(-0.000661148 -0.000528377 0)
(-0.000714748 -0.000475343 0)
(-0.00076819 -0.000428662 0)
(-0.000821339 -0.000387833 0)
(-0.000874051 -0.000352391 0)
(2.91726e-07 -0.000209546 0)
(2.93489e-06 -0.000609508 0)
(8.21021e-06 -0.000990345 0)
(1.59386e-05 -0.00135208 0)
(2.58917e-05 -0.00169474 0)
(3.78393e-05 -0.00201831 0)
(5.16181e-05 -0.0023228 0)
(6.70093e-05 -0.00260823 0)
(8.38656e-05 -0.00287464 0)
(0.000101947 -0.00312206 0)
(0.000121126 -0.00335055 0)
(0.000141138 -0.00356018 0)
(0.000161886 -0.00375102 0)
(0.000183072 -0.00392317 0)
(0.000204639 -0.00407673 0)
(0.000226214 -0.00421181 0)
(0.00024777 -0.00432856 0)
(0.000268976 -0.0044271 0)
(0.000290537 -0.00450755 0)
(0.000312947 -0.00457007 0)
(0.000333905 -0.00461507 0)
(0.000339303 -0.0046434 0)
(0.000293867 -0.00465952 0)
(0.000136643 -0.00466541 0)
(3.54213e-06 -0.004726 0)
(3.949e-05 -0.00442908 0)
(0.000117549 -0.00395164 0)
(0.000105468 -0.0035066 0)
(7.62135e-05 -0.00310165 0)
(4.06815e-05 -0.00272986 0)
(-7.06182e-07 -0.00238913 0)
(-4.82453e-05 -0.00207793 0)
(-0.000101142 -0.00179458 0)
(-0.000158372 -0.00153738 0)
(-0.000219142 -0.00130464 0)
(-0.000282933 -0.00109463 0)
(-0.000349461 -0.000905641 0)
(-0.000417188 -0.000736019 0)
(-0.000484966 -0.000584325 0)
(-0.000553033 -0.000449179 0)
(-0.000621272 -0.000329279 0)
(-0.000689657 -0.000223409 0)
(-0.000757836 -0.000130447 0)
(-0.000825386 -4.93268e-05 0)
(-0.000892127 2.09519e-05 0)
(-0.000957814 8.13256e-05 0)
(-0.00102231 0.00013267 0)
(-0.00108555 0.000175797 0)
(-0.00114744 0.00021146 0)
(-0.00120797 0.000240348 0)
(4.02328e-07 -0.000227559 0)
(4.32889e-06 -0.00066137 0)
(1.21358e-05 -0.00107376 0)
(2.35292e-05 -0.00146467 0)
(3.811e-05 -0.00183403 0)
(5.55093e-05 -0.00218178 0)
(7.54521e-05 -0.00250789 0)
(9.76177e-05 -0.00281233 0)
(0.000121767 -0.00309509 0)
(0.000147564 -0.00335616 0)
(0.00017479 -0.00359554 0)
(0.000203079 -0.00381328 0)
(0.000232226 -0.00400937 0)
(0.000261823 -0.0041839 0)
(0.00029164 -0.00433688 0)
(0.000321172 -0.00446846 0)
(0.000350281 -0.00457864 0)
(0.000378786 -0.00466755 0)
(0.000407624 -0.00473501 0)
(0.000435374 -0.00478144 0)
(0.000451972 -0.00480864 0)
(0.000433612 -0.00482323 0)
(0.000376886 -0.00482431 0)
(0.000251636 -0.00481455 0)
(0.000145423 -0.00487461 0)
(0.000143658 -0.00418701 0)
(0.000153611 -0.00344452 0)
(9.53803e-05 -0.0027969 0)
(2.33393e-05 -0.00223387 0)
(-5.26316e-05 -0.00173983 0)
(-0.000131723 -0.00130603 0)
(-0.000213239 -0.000925606 0)
(-0.000297125 -0.000592643 0)
(-0.000383687 -0.000301746 0)
(-0.000471996 -4.80307e-05 0)
(-0.000560719 0.000172722 0)
(-0.000648666 0.000364176 0)
(-0.000736267 0.000529551 0)
(-0.000823792 0.000671604 0)
(-0.000910282 0.000792775 0)
(-0.000995316 0.000895207 0)
(-0.0010786 0.000980795 0)
(-0.00115992 0.00105124 0)
(-0.00123911 0.00110805 0)
(-0.00131607 0.0011526 0)
(-0.0013907 0.00118617 0)
(-0.00146296 0.00120989 0)
(-0.00153282 0.00122482 0)
(-0.00160028 0.00123192 0)
(-0.00166535 0.00123207 0)
(4.72856e-07 -0.00026422 0)
(3.81869e-06 -0.000764081 0)
(1.01547e-05 -0.00123596 0)
(1.9172e-05 -0.00168034 0)
(3.06324e-05 -0.00209771 0)
(4.42641e-05 -0.00248837 0)
(5.99905e-05 -0.00285265 0)
(7.75582e-05 -0.00319066 0)
(9.69431e-05 -0.00350266 0)
(0.000117834 -0.00378849 0)
(0.000140232 -0.00404841 0)
(0.000163735 -0.00428194 0)
(0.000188327 -0.00448947 0)
(0.000213448 -0.00467008 0)
(0.000238957 -0.0048245 0)
(0.000264351 -0.00495112 0)
(0.000290475 -0.00505127 0)
(0.000318894 -0.00512227 0)
(0.000347517 -0.00516859 0)
(0.000352062 -0.00519286 0)
(0.000265988 -0.0051492 0)
(0.000122901 -0.00510522 0)
(-7.73573e-06 -0.00504081 0)
(-0.00023329 -0.00494666 0)
(-0.000689341 -0.00443681 0)
(-0.000555031 -0.003586 0)
(-0.000686812 -0.00281918 0)
(-0.00085102 -0.00214742 0)
(-0.00101116 -0.00155386 0)
(-0.00116052 -0.00103045 0)
(-0.00130335 -0.000571159 0)
(-0.00144149 -0.000170257 0)
(-0.00157385 0.000177768 0)
(-0.00169867 0.000478075 0)
(-0.00181575 0.000735447 0)
(-0.00192548 0.000954328 0)
(-0.00202827 0.0011388 0)
(-0.00212441 0.00129254 0)
(-0.00221413 0.00141899 0)
(-0.00229772 0.00152117 0)
(-0.00237546 0.00160178 0)
(-0.00244763 0.00166328 0)
(-0.00251457 0.00170786 0)
(-0.00257656 0.00173754 0)
(-0.00263393 0.00175414 0)
(-0.00268698 0.00175933 0)
(-0.00273602 0.0017546 0)
(-0.00278133 0.00174131 0)
(-0.00282319 0.00172066 0)
(-0.00286185 0.0016937 0)
(-6.4547e-07 -0.000269172 0)
(-6.03194e-06 -0.000778027 0)
(-1.59087e-05 -0.00125871 0)
(-2.94599e-05 -0.00171209 0)
(-4.55691e-05 -0.00213919 0)
(-6.34389e-05 -0.00254015 0)
(-8.21685e-05 -0.0029158 0)
(-0.00010117 -0.0032655 0)
(-0.000119641 -0.00359012 0)
(-0.000137088 -0.00388801 0)
(-0.000152827 -0.00416044 0)
(-0.000166434 -0.00440433 0)
(-0.000177466 -0.00462198 0)
(-0.000185312 -0.00480808 0)
(-0.000188957 -0.00496687 0)
(-0.000185508 -0.00508986 0)
(-0.000175343 -0.0051879 0)
(-0.000176844 -0.00525735 0)
(-0.000272441 -0.00528959 0)
(-0.000474455 -0.00517351 0)
(-0.000753352 -0.00492402 0)
(-0.00120282 -0.00480661 0)
(-0.00231467 -0.00247541 0)
(-0.00311791 -0.00167729 0)
(-0.0026442 -0.000832095 0)
(-0.00284223 -7.38953e-06 0)
(-0.00309797 0.000712094 0)
(-0.00330652 0.00131367 0)
(-0.00346626 0.00180046 0)
(-0.00359917 0.00218437 0)
(-0.00371396 0.00248082 0)
(-0.00381309 0.00270459 0)
(-0.00389775 0.00286885 0)
(-0.00396925 0.00298453 0)
(-0.00402886 0.00306084 0)
(-0.00407773 0.00310537 0)
(-0.00411699 0.00312418 0)
(-0.00414764 0.00312151 0)
(-0.00417061 0.00310156 0)
(-0.00418673 0.00306749 0)
(-0.00419679 0.00302143 0)
(-0.00420144 0.00296604 0)
(-0.00420133 0.00290318 0)
(-0.00419709 0.00283444 0)
(-0.00418933 0.00276118 0)
(-0.00417863 0.00268456 0)
(-0.00416556 0.00260561 0)
(-0.00415069 0.00252512 0)
(-0.00413447 0.00244312 0)
(-0.00411724 0.00236053 0)
(-1.73459e-06 -0.000188293 0)
(-1.41304e-05 -0.000563569 0)
(-3.67717e-05 -0.000936823 0)
(-6.7909e-05 -0.00130579 0)
(-0.000105525 -0.00167038 0)
(-0.000147967 -0.0020275 0)
(-0.000193645 -0.00237833 0)
(-0.000241199 -0.00271855 0)
(-0.00028911 -0.00305109 0)
(-0.000336166 -0.00336965 0)
(-0.000380897 -0.0036797 0)
(-0.000421969 -0.00397172 0)
(-0.000456941 -0.00425476 0)
(-0.000482409 -0.00451484 0)
(-0.000499814 -0.00477042 0)
(-0.000541468 -0.00501503 0)
(-0.000722438 -0.00520421 0)
(-0.00102481 -0.00507073 0)
(-0.00131421 -0.00501391 0)
(-0.00161904 -0.00452473 0)
(-0.00313488 0.00683563 0)
(-0.00439021 0.00670364 0)
(-0.012034 0.0046672 0)
(-0.00982641 0.00346801 0)
(-0.0101775 0.00266192 0)
(-0.0105973 0.00216422 0)
(-0.0108256 0.00188523 0)
(-0.0108497 0.0017436 0)
(-0.0107642 0.00168681 0)
(-0.0106202 0.00167903 0)
(-0.0104417 0.00169244 0)
(-0.010242 0.00170808 0)
(-0.0100283 0.00171458 0)
(-0.00980616 0.00171071 0)
(-0.00958033 0.00169744 0)
(-0.0093537 0.00166912 0)
(-0.00912835 0.00163711 0)
(-0.00890624 0.00159925 0)
(-0.0086883 0.00155438 0)
(-0.00847541 0.00150614 0)
(-0.00826845 0.00145578 0)
(-0.00806781 0.00139985 0)
(-0.00787389 0.00134303 0)
(-0.0076871 0.00128669 0)
(-0.00750746 0.00123178 0)
(-0.00733489 0.0011795 0)
(-0.0071694 0.00113073 0)
(-0.00701108 0.00108742 0)
(-0.00685988 0.00104699 0)
(-0.00671542 0.001006 0)
(-3.30587e-07 -0.000108763 0)
(-4.56096e-06 -0.000346281 0)
(-1.29623e-05 -0.000602183 0)
(-2.56195e-05 -0.000874098 0)
(-4.12201e-05 -0.00116109 0)
(-5.98858e-05 -0.00146043 0)
(-7.98176e-05 -0.00177248 0)
(-0.000101367 -0.00209363 0)
(-0.000122248 -0.00242632 0)
(-0.000142597 -0.00276492 0)
(-0.00015828 -0.00311486 0)
(-0.00016664 -0.00346695 0)
(-0.000169607 -0.00383453 0)
(-0.000213246 -0.00421689 0)
(-0.000441646 -0.00431835 0)
(-0.000815854 -0.00424298 0)
(-0.00115673 -0.00457758 0)
(-0.00148638 -0.00248922 0)
(-0.00295698 0.00204578 0)
(-0.00408948 0.00236128 0)
(-0.0116837 0.0724258 0)
(-0.00686695 0.0526518 0)
(-0.00899878 0.0347856 0)
(-0.0102202 0.0219297 0)
(-0.0109632 0.0130856 0)
(-0.0113618 0.00719954 0)
(-0.0115802 0.00340481 0)
(-0.0116696 0.00101235 0)
(-0.0116564 -0.000460152 0)
(-0.0115685 -0.00133338 0)
(-0.0114315 -0.00183215 0)
(-0.0112591 -0.00210493 0)
(-0.0110615 -0.00224945 0)
(-0.0108478 -0.00229293 0)
(-0.0106264 -0.0022741 0)
(-0.0104004 -0.00224303 0)
(-0.0101726 -0.00217409 0)
(-0.00994714 -0.00209381 0)
(-0.00972382 -0.002016 0)
(-0.00950393 -0.00191155 0)
(-0.00929206 -0.00178978 0)
(-0.00908795 -0.0016839 0)
(-0.00889155 -0.00157544 0)
(-0.00870371 -0.00146554 0)
(-0.00852448 -0.00136748 0)
(-0.00835352 -0.00127379 0)
(-0.00819093 -0.00117892 0)
(-0.00803632 -0.0010857 0)
(-0.00789023 -0.00100162 0)
(-0.00775124 -0.000929653 0)
(3.28791e-07 -0.000128106 0)
(1.22979e-06 -0.000390788 0)
(1.51885e-06 -0.000662763 0)
(3.9738e-07 -0.000941647 0)
(-3.03931e-06 -0.00123418 0)
(-9.41039e-06 -0.00153388 0)
(-1.97173e-05 -0.00185294 0)
(-3.41633e-05 -0.00217924 0)
(-5.22462e-05 -0.00253274 0)
(-6.95944e-05 -0.00289311 0)
(-8.75975e-05 -0.00329447 0)
(-0.000140791 -0.00371306 0)
(-0.000356391 -0.00377933 0)
(-0.000721799 -0.00380133 0)
(-0.00120116 -0.00367545 0)
(-0.00271905 0.00259042 0)
(-0.00465944 -0.00313154 0)
(-0.00870719 0.010337 0)
(-0.0105162 0.0559543 0)
(-0.00851261 0.0532602 0)
(-0.00956727 0.0499655 0)
(-0.00884659 0.0408954 0)
(-0.00838517 0.031011 0)
(-0.00818671 0.0221635 0)
(-0.00822389 0.0149293 0)
(-0.0083826 0.00932058 0)
(-0.00857305 0.00514005 0)
(-0.0087509 0.00209874 0)
(-0.00890071 -7.77441e-05 0)
(-0.00901316 -0.00159163 0)
(-0.0090816 -0.00263182 0)
(-0.00911003 -0.00333351 0)
(-0.0091083 -0.00380186 0)
(-0.00908244 -0.00409341 0)
(-0.00903626 -0.00425501 0)
(-0.00897521 -0.00434196 0)
(-0.00890322 -0.00435456 0)
(-0.0088229 -0.00432608 0)
(-0.00873719 -0.00427288 0)
(-0.00864774 -0.00417165 0)
(-0.00855519 -0.00404084 0)
(-0.00845955 -0.00390723 0)
(-0.00836235 -0.00375763 0)
(-0.00826519 -0.00359721 0)
(-0.00816922 -0.003436 0)
(-0.0080763 -0.00326939 0)
(-0.00798635 -0.00310312 0)
(-0.00789877 -0.00294107 0)
(-0.00781394 -0.00278222 0)
(-0.00773332 -0.0026269 0)
(-3.2144e-07 -0.000119384 0)
(-3.36326e-06 -0.000353004 0)
(-1.08438e-05 -0.000583018 0)
(-2.35512e-05 -0.000807363 0)
(-4.28981e-05 -0.00103005 0)
(-6.99269e-05 -0.00124637 0)
(-0.000104946 -0.0014635 0)
(-0.000145949 -0.00167297 0)
(-0.000193447 -0.0018875 0)
(-0.000276691 -0.00209931 0)
(-0.000485994 -0.00227912 0)
(-0.000853833 -0.00246587 0)
(-0.00138212 -0.0021574 0)
(-0.00295174 0.00415605 0)
(-0.00443539 0.00303706 0)
(-0.00830226 0.0586667 0)
(-0.00716629 0.0372175 0)
(-0.00802411 0.0382422 0)
(-0.00859411 0.0427794 0)
(-0.00790635 0.041404 0)
(-0.00715746 0.0373385 0)
(-0.00645229 0.0323458 0)
(-0.00599125 0.0269029 0)
(-0.00580213 0.0215393 0)
(-0.00580839 0.0166062 0)
(-0.00593739 0.0122621 0)
(-0.00613294 0.00859704 0)
(-0.0063573 0.00559079 0)
(-0.00658309 0.00318493 0)
(-0.00679431 0.00129543 0)
(-0.00698505 -0.000177346 0)
(-0.00715281 -0.00129852 0)
(-0.00729824 -0.00213281 0)
(-0.00742357 -0.00274861 0)
(-0.00753135 -0.00318071 0)
(-0.00762419 -0.00347373 0)
(-0.00770333 -0.00367482 0)
(-0.00777089 -0.00379089 0)
(-0.00782923 -0.00384602 0)
(-0.00788064 -0.00383723 0)
(-0.00792685 -0.00380023 0)
(-0.0079671 -0.00376324 0)
(-0.00800048 -0.00369391 0)
(-0.00802978 -0.00356777 0)
(-0.00805772 -0.00341777 0)
(-0.00808333 -0.00326335 0)
(-0.00810608 -0.00311205 0)
(-0.00812669 -0.00296249 0)
(-0.00814529 -0.00280973 0)
(-0.00816212 -0.00264471 0)
(-1.71895e-07 -9.562e-05 0)
(-5.00688e-06 -0.000268305 0)
(-1.62631e-05 -0.000421652 0)
(-3.41771e-05 -0.000557486 0)
(-5.86051e-05 -0.000672692 0)
(-8.6551e-05 -0.000770334 0)
(-0.0001139 -0.000844625 0)
(-0.000149062 -0.000901289 0)
(-0.000260602 -0.000936356 0)
(-0.000550223 -0.000944157 0)
(-0.000967956 -0.000765979 0)
(-0.00171115 0.00305389 0)
(-0.00381759 0.00357426 0)
(-0.00709373 0.0545119 0)
(-0.00440634 0.0409521 0)
(-0.00470429 0.0375175 0)
(-0.00476538 0.0342331 0)
(-0.00447321 0.0326631 0)
(-0.00395617 0.0316641 0)
(-0.00341098 0.0304747 0)
(-0.00295884 0.0285745 0)
(-0.00267503 0.025988 0)
(-0.00255688 0.0228903 0)
(-0.00259137 0.0195286 0)
(-0.0027532 0.0161371 0)
(-0.00301194 0.0128909 0)
(-0.00333968 0.00991613 0)
(-0.00371063 0.00728116 0)
(-0.00410292 0.00501405 0)
(-0.00450051 0.00310969 0)
(-0.00489141 0.00154165 0)
(-0.00526826 0.000275815 0)
(-0.00562466 -0.000725779 0)
(-0.00595434 -0.00150074 0)
(-0.0062585 -0.00207964 0)
(-0.00653848 -0.00250906 0)
(-0.006795 -0.00282929 0)
(-0.00703114 -0.00304125 0)
(-0.00724579 -0.00317364 0)
(-0.00744096 -0.00322598 0)
(-0.00761882 -0.00323403 0)
(-0.00778297 -0.00323898 0)
(-0.00793598 -0.00321077 0)
(-0.00807812 -0.00312042 0)
(-0.00820843 -0.003013 0)
(-0.00832615 -0.00291486 0)
(-0.00843388 -0.00280337 0)
(-0.00853313 -0.00268178 0)
(-0.00862532 -0.0025573 0)
(-0.00871047 -0.0024236 0)
(-2.10414e-06 -4.30213e-05 0)
(-1.79347e-05 -0.000121374 0)
(-4.81705e-05 -0.000193376 0)
(-9.04269e-05 -0.000259368 0)
(-0.000140794 -0.000320922 0)
(-0.000194424 -0.0003777 0)
(-0.000261478 -0.000433378 0)
(-0.00039007 -0.000491635 0)
(-0.000661449 -0.000567277 0)
(-0.00106315 -0.000668405 0)
(-0.0019517 -0.00118319 0)
(-0.00142294 0.0489156 0)
(-0.00044342 0.0336414 0)
(-0.000497728 0.0313367 0)
(0.000460079 0.0285088 0)
(0.0014908 0.0276709 0)
(0.00225324 0.0282964 0)
(0.00283899 0.0291835 0)
(0.00331227 0.0297786 0)
(0.00368831 0.0298722 0)
(0.00396655 0.0293715 0)
(0.00413453 0.0282903 0)
(0.00418626 0.0267172 0)
(0.00412412 0.0247852 0)
(0.00395674 0.0226109 0)
(0.00369568 0.0203154 0)
(0.0033578 0.0180097 0)
(0.00295941 0.0157698 0)
(0.00251625 0.0136526 0)
(0.00204263 0.0116933 0)
(0.00155068 0.00990561 0)
(0.00105093 0.00829453 0)
(0.000551658 0.00686098 0)
(5.92043e-05 0.00559945 0)
(-0.000421317 0.00450549 0)
(-0.000885807 0.00356422 0)
(-0.00133181 0.00277023 0)
(-0.00175943 0.00210531 0)
(-0.00216962 0.00155298 0)
(-0.0025598 0.00110571 0)
(-0.0029313 0.000753246 0)
(-0.00328642 0.000476558 0)
(-0.00362423 0.000256247 0)
(-0.00394462 8.41476e-05 0)
(-0.00424775 -5.10912e-05 0)
(-0.00453501 -0.000174174 0)
(-0.00480644 -0.000267299 0)
(-0.00506226 -0.000323043 0)
(-0.00530391 -0.000361283 0)
(-0.00553163 -0.000388757 0)
(-2.79877e-06 0.000104207 0)
(-2.97198e-05 0.000290795 0)
(-8.42647e-05 0.00045452 0)
(-0.000164785 0.000594259 0)
(-0.000269183 0.000708539 0)
(-0.000416296 0.000796367 0)
(-0.000659126 0.000853538 0)
(-0.00104731 0.000875641 0)
(-0.0015864 0.000794193 0)
(-0.00224472 -0.00418671 0)
(-0.00295166 0.0026576 0)
(-0.00215534 0.00651017 0)
(-6.89606e-05 0.0093288 0)
(0.00134769 0.0103984 0)
(0.00221757 0.0122549 0)
(0.00200195 0.0141318 0)
(0.000983336 0.0159839 0)
(-0.000321876 0.0178532 0)
(-0.00154166 0.0195307 0)
(-0.00254279 0.0208365 0)
(-0.00328511 0.0216696 0)
(-0.00377687 0.0220132 0)
(-0.00405243 0.0218976 0)
(-0.00416191 0.0213869 0)
(-0.00416144 0.0205653 0)
(-0.00409928 0.0195252 0)
(-0.00401204 0.0183476 0)
(-0.00392413 0.0170988 0)
(-0.00385068 0.015836 0)
(-0.00379954 0.0145973 0)
(-0.00377417 0.0134049 0)
(-0.00377552 0.0122775 0)
(-0.00380236 0.0112287 0)
(-0.00385236 0.0102618 0)
(-0.00392286 0.00937506 0)
(-0.00401049 0.00857132 0)
(-0.00411199 0.00785336 0)
(-0.00422429 0.00720335 0)
(-0.00434444 0.00661554 0)
(-0.00447043 0.00608554 0)
(-0.00459916 0.00561488 0)
(-0.00472841 0.00519707 0)
(-0.00485692 0.00481383 0)
(-0.00498261 0.00445851 0)
(-0.00510537 0.00414336 0)
(-0.00522591 0.00385035 0)
(-0.00534459 0.00357847 0)
(-0.00546105 0.00333888 0)
(-0.00557453 0.00311838 0)
(-0.00568524 0.0029132 0)
(6.40704e-08 0.000317969 0)
(3.23461e-06 0.000941128 0)
(6.59668e-06 0.00156193 0)
(9.2771e-06 0.00219007 0)
(1.45592e-05 0.00283087 0)
(8.47336e-06 0.00349206 0)
(-8.07704e-05 0.00418097 0)
(-0.000380959 0.00499932 0)
(-0.000917883 0.00704752 0)
(-0.00180007 0.000738281 0)
(-0.0017178 0.00883314 0)
(-0.000410219 0.00174604 0)
(-0.00267515 -0.00468265 0)
(-0.00108649 -0.0101174 0)
(-0.000690781 0.0270475 0)
(0.000449 0.0513836 0)
(4.80343e-05 0.0650185 0)
(0.00037615 0.0657303 0)
(0.000512875 0.0607562 0)
(0.00114169 0.0541106 0)
(0.00161922 0.0466224 0)
(0.00187864 0.0390252 0)
(0.00180434 0.032125 0)
(0.00138424 0.0264535 0)
(0.00071865 0.022077 0)
(-5.64916e-05 0.0186898 0)
(-0.000834848 0.0160194 0)
(-0.00154414 0.0138985 0)
(-0.00214649 0.012201 0)
(-0.00263862 0.0108183 0)
(-0.00304018 0.00966706 0)
(-0.00337552 0.00868869 0)
(-0.00366034 0.0078471 0)
(-0.00390117 0.00711599 0)
(-0.00410157 0.00647683 0)
(-0.00426561 0.00591659 0)
(-0.00439835 0.00542508 0)
(-0.00450462 0.00499117 0)
(-0.00458906 0.00460546 0)
(-0.00465563 0.00426059 0)
(-0.00470766 0.0039508 0)
(-0.00474808 0.00367336 0)
(-0.00477956 0.00342279 0)
(-0.00480509 0.00319454 0)
(-0.00482685 0.00299921 0)
(-0.00484626 0.00283323 0)
(-0.00486486 0.00269092 0)
(-0.00488374 0.00256849 0)
(-0.0049037 0.00246292 0)
(-0.00492543 0.00237097 0)
(6.38968e-06 2.96054e-05 0)
(4.91485e-05 0.00016085 0)
(0.000130702 0.000358783 0)
(0.000248358 0.000607023 0)
(0.000399698 0.00090173 0)
(0.000591296 0.00123865 0)
(0.000819265 0.00162948 0)
(0.00104548 0.00206995 0)
(0.00116177 0.0026053 0)
(0.00110986 0.00198053 0)
(0.00107961 0.00168137 0)
(0.00129192 0.00171038 0)
(0.00130544 0.00799588 0)
(0.000480127 0.00509714 0)
(0.000165717 0.00970301 0)
(0.00083629 0.00593212 0)
(0.00182855 0.0416903 0)
(0.00587531 0.0334757 0)
(0.00159316 -0.00826158 0)
(0.00620071 -0.00390993 0)
(0.0106135 0.00840428 0)
(0.0111414 0.0201451 0)
(0.0116808 0.031603 0)
(0.0107239 0.0390249 0)
(0.0107886 0.0415054 0)
(0.0110515 0.0410725 0)
(0.0110712 0.0386057 0)
(0.0109416 0.0345752 0)
(0.0106795 0.0300752 0)
(0.0101984 0.0261656 0)
(0.00951553 0.0231634 0)
(0.00875271 0.0207244 0)
(0.00802157 0.0184954 0)
(0.00737439 0.0163919 0)
(0.00681521 0.0144739 0)
(0.00631684 0.0127831 0)
(0.00584765 0.0113101 0)
(0.00538945 0.0100283 0)
(0.00493776 0.00891559 0)
(0.00449426 0.00795413 0)
(0.00406183 0.00712816 0)
(0.0036428 0.00642322 0)
(0.00323855 0.00582567 0)
(0.00284965 0.00532261 0)
(0.00247644 0.0049018 0)
(0.00211962 0.00455273 0)
(0.00178061 0.00426258 0)
(0.00146083 0.00402108 0)
(0.00116063 0.00382015 0)
(0.000879662 0.00365202 0)
(-0.000639315 -0.00255169 0)
(-0.000656104 -0.00252094 0)
(-0.000672916 -0.00249155 0)
(-0.000689739 -0.00246343 0)
(-0.000706559 -0.00243652 0)
(-0.000723365 -0.00241074 0)
(-0.000740146 -0.00238605 0)
(-0.000756892 -0.00236236 0)
(-0.000773594 -0.00233963 0)
(-0.000790241 -0.00231781 0)
(-0.000806826 -0.00229685 0)
(-0.00082334 -0.00227669 0)
(-0.000839777 -0.0022573 0)
(-0.000856128 -0.00223864 0)
(-0.000872387 -0.00222067 0)
(-0.000888548 -0.00220336 0)
(-0.000904605 -0.00218667 0)
(-0.000920552 -0.00217058 0)
(-0.000936383 -0.00215507 0)
(-0.000952094 -0.0021401 0)
(-0.000967679 -0.00212565 0)
(-0.000983135 -0.00211172 0)
(-0.000998456 -0.00209827 0)
(-0.00101364 -0.00208529 0)
(-0.00102868 -0.00207277 0)
(-0.00104357 -0.00206069 0)
(-0.00105831 -0.00204905 0)
(-0.0010729 -0.00203783 0)
(-0.00108734 -0.00202702 0)
(-0.00110161 -0.00201662 0)
(-0.00111572 -0.00200661 0)
(-0.00112967 -0.001997 0)
(-0.00114344 -0.00198779 0)
(-0.00115705 -0.00197895 0)
(-0.00117048 -0.0019705 0)
(-0.00118373 -0.00196242 0)
(-0.00119681 -0.00195471 0)
(-0.00120971 -0.00194736 0)
(-0.00122242 -0.00194036 0)
(-0.00123495 -0.00193371 0)
(-0.0012473 -0.00192738 0)
(-0.00125946 -0.00192137 0)
(-0.00127142 -0.00191564 0)
(-0.0012832 -0.00191019 0)
(-0.00129479 -0.00190499 0)
(-0.00130618 -0.00190003 0)
(-0.00131738 -0.00189534 0)
(-0.00132842 -0.00189112 0)