/*--------------------------------*- C++ -*----------------------------------*\
| =========                 |                                                 |
| \\      /  F ield         | OpenFOAM: The Open Source CFD Toolbox           |
|  \\    /   O peration     | Version:  2.4.0                                 |
|   \\  /    A nd           | Web:      www.OpenFOAM.org                      |
|    \\/     M anipulation  |                                                 |
\*---------------------------------------------------------------------------*/
FoamFile
{
    version     2.0;
    format      ascii;
    class       volScalarField;
    location    "0.001";
    object      H;
}
// * * * * * * * * * * * * * * * * * * * * * * * * * * * * * * * * * * * * * //

dimensions      [0 2 -2 0 0 0 0];

internalField   nonuniform List<scalar> 
1500
(
-9724.3
-9724.3
-9724.3
-9724.3
-9724.3
-1306.54
-1306.54
-1306.54
-1306.54
-1306.54
-1050.19
-1050.18
-1050.19
-1050.18
-1050.19
-1050.23
-1050.22
-1050.22
-1050.22
-1050.23
-1036.62
-1036.62
-1036.62
-1036.62
-1036.62
-1010.86
-1010.86
-1010.85
-1010.86
-1010.86
-974.599
-974.592
-974.587
-974.592
-974.599
-929.575
-929.567
-929.561
-929.567
-929.575
-877.573
-877.563
-877.556
-877.563
-877.573
-820.348
-820.337
-820.329
-820.337
-820.348
-759.582
-759.57
-759.562
-759.57
-759.582
-696.841
-696.828
-696.819
-696.828
-696.841
-633.541
-633.527
-633.518
-633.527
-633.541
-570.927
-570.913
-570.904
-570.913
-570.927
-510.06
-510.046
-510.037
-510.046
-510.06
-451.807
-451.793
-451.784
-451.793
-451.807
-396.848
-396.834
-396.825
-396.834
-396.848
-345.679
-345.666
-345.657
-345.666
-345.679
-298.63
-298.617
-298.609
-298.617
-298.63
-255.877
-255.865
-255.858
-255.865
-255.877
-217.466
-217.455
-217.448
-217.455
-217.466
-183.329
-183.319
-183.313
-183.319
-183.329
-153.311
-153.301
-153.295
-153.301
-153.311
-127.183
-127.174
-127.169
-127.174
-127.183
-104.669
-104.661
-104.657
-104.661
-104.669
-85.4587
-85.4522
-85.448
-85.4522
-85.4588
-69.2254
-69.2197
-69.2161
-69.2197
-69.2254
-55.6374
-55.6325
-55.6293
-55.6325
-55.6374
-44.3695
-44.3654
-44.3627
-44.3654
-44.3696
-35.1117
-35.1081
-35.1058
-35.1081
-35.1117
-27.5741
-27.5711
-27.5692
-27.5711
-27.5741
-21.4921
-21.4896
-21.488
-21.4896
-21.4921
-16.6278
-16.6257
-16.6244
-16.6257
-16.6278
-12.7711
-12.7694
-12.7684
-12.7694
-12.7711
-9.73943
-9.73808
-9.73722
-9.73808
-9.73943
-7.37622
-7.37514
-7.37445
-7.37514
-7.37622
-5.54917
-5.54831
-5.54776
-5.54831
-5.54918
-4.14793
-4.14725
-4.14681
-4.14725
-4.14793
-3.0816
-3.08107
-3.08072
-3.08107
-3.08161
-2.27623
-2.27581
-2.27554
-2.27581
-2.27623
-1.67234
-1.67201
-1.67181
-1.67202
-1.67234
-1.22264
-1.22239
-1.22223
-1.22239
-1.22264
-0.889935
-0.889741
-0.889618
-0.889742
-0.889936
-0.64528
-0.645131
-0.645037
-0.645132
-0.645281
-0.466374
-0.46626
-0.466188
-0.46626
-0.466374
-0.336204
-0.336117
-0.336062
-0.336117
-0.336204
-0.241911
-0.241845
-0.241803
-0.241845
-0.241911
-0.173861
-0.173811
-0.173779
-0.173811
-0.173862
-0.124898
-0.12486
-0.124836
-0.124861
-0.124899
-0.089747
-0.0897181
-0.0896998
-0.0897182
-0.0897471
-0.0645464
-0.0645245
-0.0645106
-0.0645246
-0.0645465
-0.0464903
-0.0464736
-0.0464631
-0.0464737
-0.0464904
-0.0335501
-0.0335374
-0.0335294
-0.0335374
-0.0335501
-0.024267
-0.0242573
-0.0242512
-0.0242574
-0.024267
-0.0175962
-0.0175888
-0.0175842
-0.0175888
-0.0175962
-0.0127916
-0.012786
-0.0127825
-0.0127861
-0.0127917
-0.0093219
-0.00931763
-0.00931492
-0.00931764
-0.00932192
-0.00680863
-0.00680537
-0.0068033
-0.00680538
-0.00680864
-0.00498254
-0.00498005
-0.00497848
-0.00498006
-0.00498255
-0.00365173
-0.00364984
-0.00364864
-0.00364984
-0.00365174
-0.00267916
-0.00267772
-0.0026768
-0.00267772
-0.00267917
-0.00196665
-0.00196555
-0.00196486
-0.00196555
-0.00196665
-0.00144363
-0.00144279
-0.00144227
-0.0014428
-0.00144363
-0.00105914
-0.00105851
-0.00105812
-0.00105851
-0.00105915
-0.000776254
-0.00077578
-0.00077548
-0.000775781
-0.000776257
-0.000568058
-0.000567701
-0.000567476
-0.000567702
-0.00056806
-0.000414879
-0.000414611
-0.000414443
-0.000414612
-0.00041488
-0.000302276
-0.000302076
-0.00030195
-0.000302077
-0.000302277
-0.000219617
-0.000219469
-0.000219375
-0.000219469
-0.000219618
-0.000159054
-0.000158945
-0.000158875
-0.000158945
-0.000159055
-0.000114786
-0.000114705
-0.000114654
-0.000114705
-0.000114786
-8.25171e-05
-8.24579e-05
-8.24207e-05
-8.24581e-05
-8.25174e-05
-5.90703e-05
-5.90273e-05
-5.90001e-05
-5.90274e-05
-5.90705e-05
-4.20938e-05
-4.20627e-05
-4.20431e-05
-4.20628e-05
-4.2094e-05
-2.985e-05
-2.98276e-05
-2.98135e-05
-2.98276e-05
-2.98501e-05
-2.10567e-05
-2.10407e-05
-2.10307e-05
-2.10408e-05
-2.10568e-05
-1.47703e-05
-1.4759e-05
-1.47519e-05
-1.4759e-05
-1.47704e-05
-1.02982e-05
-1.02903e-05
-1.02853e-05
-1.02903e-05
-1.02983e-05
-7.13346e-06
-7.12792e-06
-7.12445e-06
-7.12792e-06
-7.13347e-06
-4.90642e-06
-4.90263e-06
-4.90026e-06
-4.90264e-06
-4.90648e-06
-3.3488e-06
-3.34621e-06
-3.34458e-06
-3.34621e-06
-3.34879e-06
-2.2664e-06
-2.26466e-06
-2.26358e-06
-2.26466e-06
-2.26641e-06
-1.51951e-06
-1.51836e-06
-1.51763e-06
-1.51836e-06
-1.51953e-06
-1.00808e-06
-1.00734e-06
-1.00687e-06
-1.00734e-06
-1.00807e-06
-6.60787e-07
-6.60328e-07
-6.60036e-07
-6.60335e-07
-6.60804e-07
-4.2716e-07
-4.26855e-07
-4.26686e-07
-4.26856e-07
-4.27152e-07
-2.71577e-07
-2.71418e-07
-2.71296e-07
-2.71416e-07
-2.71589e-07
-1.69226e-07
-1.69126e-07
-1.6908e-07
-1.69111e-07
-1.69226e-07
-1.02744e-07
-1.02705e-07
-1.02676e-07
-1.02716e-07
-1.02756e-07
-6.03128e-08
-6.02683e-08
-6.02665e-08
-6.02766e-08
-6.0288e-08
-3.36988e-08
-3.37052e-08
-3.36976e-08
-3.36989e-08
-3.37108e-08
-1.74371e-08
-1.74457e-08
-1.74546e-08
-1.74355e-08
-1.74293e-08
-7.7954e-09
-7.81073e-09
-7.80894e-09
-7.82249e-09
-7.80596e-09
-2.35164e-09
-2.34602e-09
-2.36125e-09
-2.3572e-09
-2.34909e-09
5.30022e-10
5.04259e-10
5.02061e-10
5.2374e-10
5.35993e-10
1.8798e-09
1.87425e-09
1.86706e-09
1.85856e-09
1.88039e-09
2.32922e-09
2.33994e-09
2.31144e-09
2.33388e-09
2.33619e-09
2.34194e-09
2.30569e-09
2.33027e-09
2.32832e-09
2.3413e-09
2.10355e-09
2.10361e-09
2.09326e-09
2.08703e-09
2.09533e-09
1.79683e-09
1.79916e-09
1.78458e-09
1.79841e-09
1.80014e-09
1.40376e-09
1.39584e-09
1.40898e-09
1.40168e-09
1.3995e-09
1.09853e-09
1.09053e-09
1.09837e-09
1.09249e-09
1.09986e-09
8.73344e-10
8.74773e-10
8.66138e-10
8.76381e-10
8.65664e-10
6.61799e-10
6.63344e-10
6.60396e-10
6.5781e-10
6.72759e-10
4.85826e-10
4.70076e-10
4.54881e-10
4.65471e-10
4.67218e-10
3.4122e-10
3.68275e-10
3.77282e-10
3.79293e-10
3.62625e-10
2.79452e-10
2.53535e-10
2.59713e-10
2.54095e-10
2.6036e-10
1.72746e-10
1.76672e-10
1.65413e-10
1.71033e-10
1.77045e-10
1.41227e-10
1.48385e-10
1.55451e-10
1.55189e-10
1.4688e-10
7.79595e-11
7.35735e-11
7.2889e-11
6.56466e-11
6.96031e-11
4.43465e-11
4.86682e-11
4.60812e-11
6.10958e-11
6.74792e-11
5.76235e-11
5.67097e-11
6.07479e-11
6.64168e-11
5.05812e-11
4.85203e-11
4.73776e-11
4.70335e-11
3.27871e-11
3.61651e-11
4.90629e-11
4.52647e-11
4.61549e-11
4.50595e-11
5.39175e-11
2.27736e-11
2.61737e-11
2.24419e-11
2.28399e-11
2.31471e-11
1.03566e-12
1.24444e-12
8.64398e-13
8.65741e-13
1.0319e-12
-1.35755e-13
-2.14321e-13
-1.27457e-13
-7.81563e-14
-1.23245e-13
1.14554e-13
1.06265e-13
1.12266e-13
1.13545e-13
1.14023e-13
3.8322e-14
4.11416e-14
3.67491e-14
3.42862e-14
3.8044e-14
3.80749e-15
4.04753e-15
3.44841e-15
3.12975e-15
3.79478e-15
3.80295e-16
2.41802e-16
3.03982e-16
3.08922e-16
3.76038e-16
2.35884e-16
2.08783e-16
2.11693e-16
2.06408e-16
2.30377e-16
6.9725e-17
6.91463e-17
6.25502e-17
6.00212e-17
6.75827e-17
1.05865e-17
1.04922e-17
9.33857e-18
9.10412e-18
1.03708e-17
1.57555e-18
1.41289e-18
1.49043e-18
1.45322e-18
1.65279e-18
4.51693e-19
4.12568e-19
4.43019e-19
4.18261e-19
4.73525e-19
1.19905e-19
1.1502e-19
1.10018e-19
1.05514e-19
1.1942e-19
2.31116e-20
2.22317e-20
1.959e-20
1.97485e-20
2.23951e-20
4.27346e-21
3.99267e-21
3.7027e-21
3.74869e-21
4.3155e-21
9.61283e-22
8.91093e-22
9.13383e-22
8.68259e-22
1.01315e-21
2.19423e-22
2.05972e-22
2.09554e-22
1.95254e-22
2.25935e-22
4.4772e-23
4.23737e-23
4.00805e-23
3.88743e-23
4.419e-23
8.96661e-24
8.49177e-24
7.73569e-24
7.77166e-24
8.88175e-24
1.9072e-24
1.79641e-24
1.71329e-24
1.66956e-24
1.96487e-24
4.05735e-25
3.79369e-25
3.78379e-25
3.53984e-25
4.21923e-25
8.24241e-26
7.71371e-26
7.5989e-26
7.12025e-26
8.34528e-26
1.65797e-26
1.57101e-26
1.48657e-26
1.43087e-26
1.64629e-26
3.40845e-27
3.257e-27
3.06422e-27
2.95303e-27
3.43129e-27
7.00534e-28
6.65346e-28
6.443e-28
6.052e-28
7.18639e-28
1.40924e-28
1.32768e-28
1.30737e-28
1.21037e-28
1.44137e-28
2.80543e-29
2.65572e-29
2.5799e-29
2.41112e-29
2.82326e-29
5.60106e-30
5.36381e-30
5.12822e-30
4.83838e-30
5.5999e-30
1.11595e-30
1.0722e-30
1.03216e-30
9.65337e-31
1.1232e-30
2.20269e-31
2.10635e-31
2.06249e-31
1.90202e-31
2.22942e-31
4.31816e-32
4.12403e-32
4.05455e-32
3.73352e-32
4.35506e-32
8.43883e-33
8.10302e-33
7.90131e-33
7.3326e-33
8.4477e-33
1.64086e-33
1.58262e-33
1.53924e-33
1.43166e-33
1.63624e-33
3.16755e-34
3.0533e-34
2.99623e-34
2.76982e-34
3.15942e-34
6.08012e-35
5.85269e-35
5.79638e-35
5.3344e-35
6.06654e-35
1.16259e-35
1.12089e-35
1.1112e-35
1.02554e-35
1.15748e-35
2.21247e-36
2.13813e-36
2.11516e-36
1.96195e-36
2.19414e-36
4.18402e-37
4.04357e-37
4.01158e-37
3.72548e-37
4.13477e-37
7.86353e-38
7.5899e-38
7.58364e-38
7.03422e-38
7.75624e-38
1.47033e-38
1.41895e-38
1.42528e-38
1.32336e-38
1.44896e-38
2.73636e-39
2.64274e-39
2.65887e-39
2.47836e-39
2.69281e-39
5.06648e-40
4.89236e-40
4.92993e-40
4.61277e-40
4.97359e-40
9.32773e-41
8.99535e-41
9.10132e-41
8.53479e-41
9.13335e-41
1.70737e-41
1.64462e-41
1.67242e-41
1.57157e-41
1.66926e-41
3.10815e-42
2.99259e-42
3.05454e-42
2.87989e-42
3.03701e-42
5.6294e-43
5.4176e-43
5.54358e-43
5.24778e-43
5.49706e-43
1.01438e-43
9.75162e-44
1.00065e-43
9.50716e-44
9.89429e-44
1.81781e-44
1.74522e-44
1.79731e-44
1.71316e-44
1.77131e-44
3.23888e-45
3.10644e-45
3.21072e-45
3.07108e-45
3.15524e-45
5.73895e-46
5.50032e-46
5.70183e-46
5.47528e-46
5.59278e-46
1.01156e-46
9.68732e-47
1.00681e-46
9.70616e-47
9.86222e-47
1.77362e-47
1.69693e-47
1.76832e-47
1.71104e-47
1.72976e-47
3.09251e-48
2.95625e-48
3.0891e-48
2.99986e-48
3.01772e-48
5.36152e-49
5.12212e-49
5.36602e-49
5.23053e-49
5.23738e-49
9.24401e-50
8.82721e-50
9.26838e-50
9.0686e-50
9.04272e-50
1.58523e-50
1.51314e-50
1.59204e-50
1.56342e-50
1.55303e-50
2.70367e-51
2.57984e-51
2.71971e-51
2.6802e-51
2.65282e-51
4.58533e-52
4.37451e-52
4.62026e-52
4.56897e-52
4.50691e-52
7.73278e-53
7.37721e-53
7.80474e-53
7.74477e-53
7.6158e-53
1.29684e-53
1.23738e-53
1.31104e-53
1.30534e-53
1.28e-53
2.16291e-54
2.06424e-54
2.19006e-54
2.18759e-54
2.13955e-54
3.58727e-55
3.42485e-55
3.63798e-55
3.64523e-55
3.55654e-55
5.9161e-56
5.65105e-56
6.00913e-56
6.03946e-56
5.87926e-56
9.70188e-57
9.27305e-57
9.86978e-57
9.94895e-57
9.66514e-57
1.58212e-57
1.51331e-57
1.61196e-57
1.62951e-57
1.58005e-57
2.56555e-58
2.45601e-58
2.61785e-58
2.65359e-58
2.56852e-58
4.13682e-59
3.96383e-59
4.22735e-59
4.29633e-59
4.15178e-59
6.63268e-60
6.36172e-60
6.78761e-60
6.91586e-60
6.673e-60
1.05742e-60
1.01532e-60
1.08365e-60
1.10681e-60
1.06644e-60
1.67628e-61
1.61138e-61
1.72022e-61
1.76108e-61
1.69461e-61
2.64227e-62
2.54297e-62
2.71513e-62
2.78581e-62
2.67735e-62
4.14128e-63
3.99052e-63
4.26091e-63
4.38117e-63
4.20569e-63
6.45381e-64
6.22662e-64
6.64838e-64
6.85001e-64
6.56846e-64
1.00004e-64
9.66058e-65
1.0314e-64
1.06476e-64
1.01995e-64
1.54079e-65
1.49031e-65
1.59086e-65
1.64537e-65
1.5746e-65
2.3604e-66
2.28591e-66
2.43963e-66
2.52773e-66
2.41678e-66
3.59534e-67
3.48618e-67
3.71961e-67
3.8605e-67
3.68787e-67
5.44512e-68
5.28615e-68
5.63832e-68
5.86143e-68
5.59476e-68
8.19945e-69
7.96935e-69
8.49723e-69
8.84724e-69
8.43825e-69
1.22764e-69
1.19452e-69
1.27314e-69
1.32756e-69
1.26527e-69
1.82753e-70
1.78011e-70
1.89645e-70
1.98034e-70
1.88615e-70
2.70498e-71
2.6374e-71
2.80847e-71
2.93673e-71
2.7953e-71
3.98077e-72
3.88489e-72
4.13485e-72
4.32938e-72
4.11847e-72
5.82471e-73
5.6892e-73
6.05213e-73
6.34489e-73
6.03255e-73
8.47391e-74
8.28302e-74
8.80668e-74
9.24399e-74
8.78458e-74
1.22573e-74
1.19892e-74
1.274e-74
1.33885e-74
1.27174e-74
1.76282e-75
1.72524e-75
1.83223e-75
1.9277e-75
1.83033e-75
2.52071e-76
2.46813e-76
2.61963e-76
2.7592e-76
2.61889e-76
3.58375e-77
3.51028e-77
3.72348e-77
3.92612e-77
3.72531e-77
5.06586e-78
4.96332e-78
5.26146e-78
5.5537e-78
5.26822e-78
7.11984e-79
6.97679e-79
7.39113e-79
7.8098e-79
7.40667e-79
9.94919e-80
9.74974e-80
1.0322e-79
1.09179e-79
1.03524e-79
1.38231e-80
1.35452e-80
1.43306e-80
1.51732e-80
1.43853e-80
1.90953e-81
1.87081e-81
1.97793e-81
2.09633e-81
1.98726e-81
2.6227e-82
2.56879e-82
2.71398e-82
2.8793e-82
2.72931e-82
3.58157e-83
3.50658e-83
3.70212e-83
3.93151e-83
3.72661e-83
4.86294e-84
4.75878e-84
5.02048e-84
5.33681e-84
5.05867e-84
6.56487e-85
6.42044e-85
6.76849e-85
7.20203e-85
6.82689e-85
8.81162e-86
8.6118e-86
9.07175e-86
9.66229e-86
9.15954e-86
1.17595e-86
1.14837e-86
1.20877e-86
1.28872e-86
1.22177e-86
1.56034e-87
1.52243e-87
1.60124e-87
1.70882e-87
1.6202e-87
2.05851e-88
2.00657e-88
2.10875e-88
2.25265e-88
2.13608e-88
2.70015e-89
2.62929e-89
2.76094e-89
2.95223e-89
2.79982e-89
3.52146e-90
3.42525e-90
3.59379e-90
3.84655e-90
3.64846e-90
4.5662e-91
4.43627e-91
4.65065e-91
4.98261e-91
4.72668e-91
5.88688e-92
5.71236e-92
5.98335e-92
6.41667e-92
6.08793e-92
7.54589e-93
7.31288e-93
7.65327e-93
8.21546e-93
7.79561e-93
9.61679e-94
9.30761e-94
9.7325e-94
1.04574e-93
9.92424e-94
1.21855e-94
1.17779e-94
1.23049e-94
1.32339e-94
1.25606e-94
1.53513e-95
1.48175e-95
1.54673e-95
1.66505e-95
1.58049e-95
1.92279e-96
1.85338e-96
1.933e-96
2.08276e-96
1.97714e-96
2.39445e-97
2.30482e-97
2.4018e-97
2.59017e-97
2.45894e-97
2.96457e-98
2.84966e-98
2.96707e-98
3.20252e-98
3.04035e-98
3.64919e-99
3.50294e-99
3.64427e-99
3.93671e-99
3.73734e-99
4.46586e-100
4.28111e-100
4.45025e-100
4.81117e-100
4.56736e-100
5.43357e-101
5.20194e-101
5.40323e-101
5.84583e-101
5.54919e-101
6.57255e-102
6.28432e-102
6.52256e-102
7.06184e-102
6.70278e-102
7.90398e-103
7.54806e-103
7.82852e-103
8.48138e-103
8.04897e-103
9.44969e-104
9.01353e-104
9.34199e-104
1.01272e-103
9.60913e-104
1.12317e-104
1.07013e-104
1.1084e-104
1.20223e-104
1.14047e-104
1.32716e-105
1.26316e-105
1.30754e-105
1.41893e-105
1.34568e-105
1.55901e-106
1.48237e-106
1.5336e-106
1.66496e-106
1.57853e-106
1.8206e-107
1.72955e-107
1.7884e-107
1.94231e-107
1.84085e-107
2.11358e-108
2.00624e-108
2.07356e-108
2.25268e-108
2.13419e-108
2.43925e-109
2.31368e-109
2.39036e-109
2.59744e-109
2.45979e-109
2.79848e-110
2.65272e-110
2.73971e-110
2.97752e-110
2.81845e-110
3.19162e-111
3.02374e-111
3.12202e-111
3.39332e-111
3.21047e-111
3.61842e-112
3.42655e-112
3.53716e-112
3.8446e-112
3.63555e-112
4.07794e-113
3.86034e-113
3.98437e-113
4.33043e-113
4.09274e-113
4.56849e-114
4.32362e-114
4.46215e-114
4.8491e-114
4.58032e-114
5.08755e-115
4.81412e-115
4.96827e-115
5.39805e-115
5.09583e-115
5.63178e-116
5.32881e-116
5.49969e-116
5.97387e-116
5.63596e-116
6.19696e-117
5.86382e-117
6.05254e-117
6.57222e-117
6.1966e-117
6.77802e-118
6.41453e-118
6.62213e-118
7.18789e-118
6.7728e-118
7.3691e-119
6.97553e-119
7.20298e-119
7.81485e-119
7.35883e-119
7.9636e-120
7.54071e-120
7.78888e-120
8.44626e-120
7.94828e-120
8.55427e-121
8.10335e-121
8.37297e-121
9.0746e-121
8.53411e-121
9.13338e-122
8.65621e-122
8.94784e-122
9.69181e-122
9.10879e-122
9.69284e-123
9.19173e-123
9.50569e-123
1.02895e-122
9.66445e-123
1.02244e-123
9.70211e-124
1.00385e-123
1.08588e-123
1.01931e-123
1.07198e-124
1.01796e-124
1.05382e-124
1.13913e-124
1.06866e-124
1.11711e-125
1.06165e-125
1.09967e-125
1.18784e-125
1.11372e-125
1.15708e-126
1.10056e-126
1.14067e-126
1.23121e-126
1.15376e-126
1.19119e-127
1.13403e-127
1.17609e-127
1.26849e-127
1.18808e-127
1.21884e-128
1.16146e-128
1.20531e-128
1.29903e-128
1.21611e-128
1.23954e-129
1.18235e-129
1.2278e-129
1.32228e-129
1.23733e-129
1.2529e-130
1.19632e-130
1.24314e-130
1.3378e-130
1.25135e-130
1.25866e-131
1.2031e-131
1.25102e-131
1.34531e-131
1.25792e-131
1.25672e-132
1.20254e-132
1.25127e-132
1.34464e-132
1.2569e-132
1.2471e-133
1.19465e-133
1.24386e-133
1.33579e-133
1.2483e-133
1.22997e-134
1.17954e-134
1.22892e-134
1.31891e-134
1.23225e-134
1.20562e-135
1.15748e-135
1.20668e-135
1.29428e-135
1.20904e-135
1.1745e-136
1.12885e-136
1.17752e-136
1.26234e-136
1.17906e-136
1.13714e-137
1.09415e-137
1.14196e-137
1.22362e-137
1.14282e-137
1.09419e-138
1.05397e-138
1.10059e-138
1.1788e-138
1.10095e-138
1.04637e-139
1.00898e-139
1.05412e-139
1.12862e-139
1.05412e-139
9.94461e-141
9.5993e-141
1.0033e-140
1.07391e-140
1.00311e-140
9.39288e-142
9.07589e-142
9.48948e-142
1.01552e-141
9.48704e-142
8.81687e-143
8.52761e-143
8.91906e-143
9.54355e-143
8.91733e-143
8.22491e-144
7.9625e-144
8.33016e-144
8.91301e-144
8.33017e-144
7.62511e-145
7.38837e-145
7.73103e-145
8.2723e-145
7.7336e-145
7.02516e-146
6.81274e-146
7.12961e-146
7.62977e-146
7.13531e-146
6.43217e-147
6.24255e-147
6.53329e-147
6.99316e-147
6.54246e-147
5.85257e-148
5.68414e-148
5.94879e-148
6.36954e-148
5.96156e-148
5.29201e-149
5.14311e-149
5.38209e-149
5.76514e-149
5.39838e-149
4.75528e-150
4.62423e-150
4.83831e-150
5.1853e-150
4.85786e-150
4.24629e-151
4.13144e-151
4.32165e-151
4.63441e-151
4.3441e-151
3.76805e-152
3.66781e-152
3.83544e-152
4.11592e-152
3.86029e-152
3.32272e-153
3.23558e-153
3.38209e-153
3.63235e-153
3.4088e-153
2.91164e-154
2.83616e-154
2.96316e-154
3.18529e-154
2.99113e-154
2.53539e-155
2.47024e-155
2.5794e-155
2.77555e-155
2.60806e-155
2.19386e-156
2.13783e-156
2.23086e-156
2.40315e-156
2.25965e-156
1.88638e-157
1.83835e-157
1.91696e-157
2.06747e-157
1.94535e-157
1.61176e-158
1.57073e-158
1.63657e-158
1.76735e-158
1.66413e-158
1.36841e-159
1.33348e-159
1.38815e-159
1.50115e-159
1.41448e-159
1.15445e-160
1.12481e-160
1.1698e-160
1.26689e-160
1.19461e-160
9.67767e-162
9.42712e-162
9.79402e-162
1.06233e-161
1.00245e-161
8.06122e-163
7.85017e-163
8.14662e-163
8.85094e-163
8.35812e-163
6.67205e-164
6.49495e-164
6.73223e-164
7.32685e-164
6.92393e-164
5.48709e-165
5.33908e-165
5.52717e-165
6.02616e-165
5.69889e-165
4.48378e-166
4.3606e-166
4.50823e-166
4.92442e-166
4.66032e-166
3.64051e-167
3.53844e-167
3.65315e-167
3.99812e-167
3.78637e-167
2.9369e-168
2.85272e-168
2.94091e-168
3.22507e-168
3.05639e-168
2.35411e-169
2.28502e-169
2.35209e-169
2.58466e-169
2.45115e-169
1.87729e-170
1.82079e-170
1.87125e-170
2.06067e-170
1.95552e-170
1.70673e-171
1.65348e-171
1.69547e-171
1.87264e-171
1.77858e-171
)
;

boundaryField
{
    BotWall
    {
        type            zeroGradient;
    }
    FreeStream
    {
        type            zeroGradient;
    }
    FrontNBack
    {
        type            empty;
    }
    LeftSide
    {
        type            symmetryPlane;
    }
    RightSide
    {
        type            symmetryPlane;
    }
}


// ************************************************************************* //
