/*--------------------------------*- C++ -*----------------------------------*\
| =========                 |                                                 |
| \\      /  F ield         | OpenFOAM: The Open Source CFD Toolbox           |
|  \\    /   O peration     | Version:  2.4.0                                 |
|   \\  /    A nd           | Web:      www.OpenFOAM.org                      |
|    \\/     M anipulation  |                                                 |
\*---------------------------------------------------------------------------*/
FoamFile
{
    version     2.0;
    format      ascii;
    class       volScalarField;
    location    "0.001";
    object      p;
}
// * * * * * * * * * * * * * * * * * * * * * * * * * * * * * * * * * * * * * //

dimensions      [1 -1 -2 0 0 0 0];

internalField   nonuniform List<scalar> 
1500
(
5.75471
8.9764
7.2934
8.97688
5.75447
-0.789225
-0.789495
-0.788992
-0.789495
-0.789225
-0.252933
-0.2532
-0.252706
-0.2532
-0.252933
-0.177527
-0.177791
-0.177301
-0.177791
-0.177527
-0.197495
-0.197757
-0.197271
-0.197757
-0.197495
-0.210737
-0.210997
-0.210514
-0.210997
-0.210737
-0.212646
-0.212904
-0.212425
-0.212904
-0.212646
-0.21164
-0.211896
-0.211421
-0.211896
-0.21164
-0.210924
-0.211178
-0.210706
-0.211178
-0.210924
-0.210626
-0.210878
-0.21041
-0.210878
-0.210626
-0.210433
-0.210683
-0.210218
-0.210683
-0.210433
-0.210227
-0.210475
-0.210014
-0.210475
-0.210227
-0.210004
-0.21025
-0.209793
-0.21025
-0.210005
-0.209777
-0.210021
-0.209567
-0.210021
-0.209777
-0.20955
-0.209791
-0.209341
-0.209791
-0.20955
-0.209322
-0.209561
-0.209115
-0.209561
-0.209322
-0.209093
-0.209331
-0.208888
-0.209331
-0.209093
-0.208864
-0.209099
-0.20866
-0.209099
-0.208864
-0.208634
-0.208867
-0.208431
-0.208867
-0.208634
-0.208403
-0.208634
-0.208201
-0.208634
-0.208403
-0.208171
-0.2084
-0.207971
-0.2084
-0.208171
-0.207938
-0.208165
-0.207739
-0.208165
-0.207938
-0.207704
-0.207929
-0.207507
-0.20793
-0.207704
-0.207469
-0.207693
-0.207274
-0.207693
-0.20747
-0.207234
-0.207455
-0.20704
-0.207456
-0.207234
-0.206998
-0.207217
-0.206805
-0.207217
-0.206998
-0.206761
-0.206978
-0.206569
-0.206978
-0.206761
-0.206523
-0.206738
-0.206333
-0.206738
-0.206523
-0.206284
-0.206497
-0.206095
-0.206497
-0.206284
-0.206044
-0.206255
-0.205857
-0.206256
-0.206044
-0.205803
-0.206013
-0.205617
-0.206013
-0.205803
-0.205561
-0.205769
-0.205377
-0.20577
-0.205562
-0.205319
-0.205525
-0.205136
-0.205525
-0.205319
-0.205076
-0.20528
-0.204894
-0.20528
-0.205076
-0.204831
-0.205034
-0.204651
-0.205034
-0.204831
-0.204586
-0.204787
-0.204407
-0.204787
-0.204586
-0.20434
-0.204539
-0.204163
-0.204539
-0.20434
-0.204093
-0.20429
-0.203917
-0.20429
-0.204093
-0.203845
-0.20404
-0.203671
-0.20404
-0.203845
-0.203596
-0.203789
-0.203423
-0.203789
-0.203596
-0.203347
-0.203538
-0.203175
-0.203538
-0.203347
-0.203096
-0.203285
-0.202925
-0.203285
-0.203096
-0.202844
-0.203032
-0.202675
-0.203032
-0.202844
-0.202592
-0.202777
-0.202424
-0.202778
-0.202592
-0.202338
-0.202522
-0.202172
-0.202522
-0.202338
-0.202084
-0.202266
-0.201919
-0.202266
-0.202084
-0.201828
-0.202009
-0.201665
-0.202009
-0.201829
-0.201572
-0.201751
-0.20141
-0.201751
-0.201572
-0.201315
-0.201492
-0.201154
-0.201492
-0.201315
-0.201057
-0.201232
-0.200897
-0.201232
-0.201057
-0.200798
-0.200971
-0.200639
-0.200971
-0.200798
-0.200537
-0.200709
-0.20038
-0.200709
-0.200538
-0.200276
-0.200446
-0.20012
-0.200447
-0.200277
-0.200014
-0.200183
-0.19986
-0.200183
-0.200014
-0.199751
-0.199918
-0.199598
-0.199918
-0.199751
-0.199487
-0.199652
-0.199335
-0.199652
-0.199488
-0.199222
-0.199386
-0.199071
-0.199386
-0.199223
-0.198956
-0.199118
-0.198807
-0.199118
-0.198957
-0.19869
-0.198849
-0.198541
-0.19885
-0.19869
-0.198422
-0.19858
-0.198274
-0.19858
-0.198422
-0.198153
-0.198309
-0.198007
-0.198309
-0.198153
-0.197883
-0.198038
-0.197738
-0.198038
-0.197883
-0.197612
-0.197765
-0.197469
-0.197765
-0.197612
-0.19734
-0.197492
-0.197198
-0.197492
-0.19734
-0.197067
-0.197217
-0.196926
-0.197217
-0.197067
-0.196793
-0.196942
-0.196654
-0.196942
-0.196793
-0.196518
-0.196665
-0.19638
-0.196665
-0.196519
-0.196242
-0.196388
-0.196105
-0.196388
-0.196243
-0.195965
-0.196109
-0.195829
-0.196109
-0.195966
-0.195688
-0.19583
-0.195553
-0.19583
-0.195688
-0.195409
-0.195549
-0.195275
-0.195549
-0.195409
-0.195128
-0.195268
-0.194996
-0.195268
-0.195129
-0.194847
-0.194985
-0.194716
-0.194985
-0.194848
-0.194565
-0.194701
-0.194435
-0.194702
-0.194565
-0.194282
-0.194417
-0.194153
-0.194417
-0.194282
-0.193998
-0.194131
-0.19387
-0.194131
-0.193998
-0.193713
-0.193844
-0.193586
-0.193844
-0.193713
-0.193426
-0.193557
-0.193301
-0.193557
-0.193427
-0.193139
-0.193268
-0.193015
-0.193268
-0.193139
-0.192851
-0.192978
-0.192727
-0.192978
-0.192851
-0.192561
-0.192687
-0.192439
-0.192687
-0.192561
-0.192271
-0.192395
-0.192149
-0.192395
-0.192271
-0.191979
-0.192102
-0.191859
-0.192102
-0.191979
-0.191686
-0.191808
-0.191567
-0.191808
-0.191686
-0.191392
-0.191513
-0.191275
-0.191513
-0.191393
-0.191098
-0.191216
-0.190981
-0.191216
-0.191098
-0.190802
-0.190919
-0.190686
-0.190919
-0.190802
-0.190504
-0.19062
-0.19039
-0.190621
-0.190505
-0.190206
-0.190321
-0.190093
-0.190321
-0.190206
-0.189907
-0.19002
-0.189795
-0.19002
-0.189907
-0.189607
-0.189719
-0.189495
-0.189719
-0.189607
-0.189305
-0.189416
-0.189195
-0.189416
-0.189305
-0.189003
-0.189112
-0.188893
-0.189112
-0.189003
-0.188699
-0.188807
-0.188591
-0.188807
-0.188699
-0.188394
-0.188501
-0.188287
-0.188501
-0.188394
-0.188088
-0.188193
-0.187982
-0.188194
-0.188088
-0.187781
-0.187885
-0.187676
-0.187885
-0.187781
-0.187473
-0.187576
-0.187369
-0.187576
-0.187473
-0.187163
-0.187265
-0.18706
-0.187265
-0.187164
-0.186853
-0.186953
-0.186751
-0.186953
-0.186853
-0.186541
-0.18664
-0.18644
-0.18664
-0.186541
-0.186228
-0.186326
-0.186129
-0.186326
-0.186229
-0.185915
-0.186011
-0.185816
-0.186011
-0.185915
-0.185599
-0.185695
-0.185501
-0.185695
-0.1856
-0.185283
-0.185377
-0.185186
-0.185377
-0.185283
-0.184966
-0.185058
-0.18487
-0.185059
-0.184966
-0.184647
-0.184739
-0.184552
-0.184739
-0.184647
-0.184327
-0.184418
-0.184233
-0.184418
-0.184327
-0.184006
-0.184096
-0.183913
-0.184096
-0.184006
-0.183684
-0.183772
-0.183592
-0.183772
-0.183684
-0.183361
-0.183448
-0.18327
-0.183448
-0.183361
-0.183036
-0.183122
-0.182946
-0.183122
-0.183036
-0.18271
-0.182795
-0.182621
-0.182795
-0.182711
-0.182383
-0.182467
-0.182295
-0.182467
-0.182384
-0.182055
-0.182138
-0.181968
-0.182138
-0.182055
-0.181726
-0.181807
-0.181639
-0.181807
-0.181726
-0.181395
-0.181476
-0.18131
-0.181476
-0.181395
-0.181064
-0.181143
-0.180979
-0.181143
-0.181064
-0.180731
-0.180809
-0.180647
-0.180809
-0.180731
-0.180396
-0.180473
-0.180313
-0.180473
-0.180396
-0.180061
-0.180137
-0.179979
-0.180137
-0.180061
-0.179724
-0.179799
-0.179643
-0.179799
-0.179724
-0.179386
-0.17946
-0.179306
-0.17946
-0.179386
-0.179047
-0.17912
-0.178967
-0.17912
-0.179047
-0.178706
-0.178778
-0.178628
-0.178778
-0.178706
-0.178365
-0.178435
-0.178287
-0.178435
-0.178365
-0.178022
-0.178091
-0.177945
-0.178091
-0.178022
-0.177677
-0.177746
-0.177601
-0.177746
-0.177677
-0.177332
-0.1774
-0.177257
-0.1774
-0.177332
-0.176985
-0.177052
-0.176911
-0.177052
-0.176985
-0.176637
-0.176703
-0.176564
-0.176703
-0.176637
-0.176288
-0.176352
-0.176215
-0.176352
-0.176288
-0.175937
-0.176001
-0.175865
-0.176001
-0.175937
-0.175585
-0.175648
-0.175514
-0.175648
-0.175585
-0.175232
-0.175294
-0.175162
-0.175294
-0.175232
-0.174877
-0.174938
-0.174808
-0.174938
-0.174877
-0.174521
-0.174581
-0.174453
-0.174582
-0.174521
-0.174164
-0.174223
-0.174096
-0.174223
-0.174164
-0.173806
-0.173864
-0.173739
-0.173864
-0.173806
-0.173446
-0.173503
-0.17338
-0.173503
-0.173446
-0.173085
-0.173141
-0.173019
-0.173141
-0.173085
-0.172722
-0.172778
-0.172657
-0.172778
-0.172722
-0.172358
-0.172413
-0.172294
-0.172413
-0.172358
-0.171993
-0.172047
-0.17193
-0.172047
-0.171993
-0.171627
-0.17168
-0.171564
-0.17168
-0.171627
-0.171259
-0.171311
-0.171197
-0.171311
-0.171259
-0.17089
-0.170941
-0.170829
-0.170941
-0.17089
-0.170519
-0.17057
-0.170459
-0.17057
-0.170519
-0.170147
-0.170197
-0.170088
-0.170197
-0.170147
-0.169774
-0.169823
-0.169715
-0.169823
-0.169774
-0.169399
-0.169447
-0.169341
-0.169447
-0.169399
-0.169023
-0.16907
-0.168966
-0.16907
-0.169023
-0.168645
-0.168692
-0.168589
-0.168692
-0.168645
-0.168267
-0.168313
-0.168211
-0.168313
-0.168267
-0.167886
-0.167932
-0.167831
-0.167932
-0.167886
-0.167505
-0.167549
-0.16745
-0.167549
-0.167505
-0.167122
-0.167165
-0.167068
-0.167165
-0.167122
-0.166737
-0.16678
-0.166684
-0.16678
-0.166737
-0.166351
-0.166394
-0.166299
-0.166394
-0.166351
-0.165964
-0.166005
-0.165912
-0.166006
-0.165964
-0.165575
-0.165616
-0.165524
-0.165616
-0.165575
-0.165185
-0.165225
-0.165135
-0.165225
-0.165185
-0.164793
-0.164833
-0.164744
-0.164833
-0.164793
-0.1644
-0.164439
-0.164351
-0.164439
-0.1644
-0.164006
-0.164044
-0.163957
-0.164044
-0.164006
-0.16361
-0.163647
-0.163562
-0.163647
-0.16361
-0.163212
-0.163249
-0.163165
-0.163249
-0.163212
-0.162813
-0.16285
-0.162767
-0.16285
-0.162813
-0.162413
-0.162449
-0.162367
-0.162449
-0.162413
-0.162011
-0.162046
-0.161966
-0.162046
-0.162011
-0.161608
-0.161642
-0.161563
-0.161642
-0.161608
-0.161203
-0.161237
-0.161159
-0.161237
-0.161203
-0.160797
-0.16083
-0.160753
-0.16083
-0.160797
-0.160389
-0.160421
-0.160346
-0.160421
-0.160389
-0.15998
-0.160012
-0.159937
-0.160012
-0.15998
-0.159569
-0.1596
-0.159527
-0.1596
-0.159569
-0.159156
-0.159187
-0.159115
-0.159187
-0.159156
-0.158742
-0.158773
-0.158702
-0.158773
-0.158743
-0.158327
-0.158357
-0.158287
-0.158357
-0.158327
-0.15791
-0.157939
-0.157871
-0.157939
-0.15791
-0.157492
-0.15752
-0.157453
-0.15752
-0.157492
-0.157072
-0.1571
-0.157033
-0.1571
-0.157072
-0.15665
-0.156678
-0.156612
-0.156678
-0.15665
-0.156227
-0.156254
-0.15619
-0.156254
-0.156227
-0.155802
-0.155829
-0.155766
-0.155829
-0.155802
-0.155376
-0.155402
-0.15534
-0.155402
-0.155376
-0.154948
-0.154974
-0.154913
-0.154974
-0.154948
-0.154519
-0.154544
-0.154484
-0.154544
-0.154519
-0.154088
-0.154113
-0.154054
-0.154113
-0.154088
-0.153656
-0.15368
-0.153622
-0.15368
-0.153656
-0.153221
-0.153245
-0.153188
-0.153245
-0.153221
-0.152786
-0.152809
-0.152753
-0.152809
-0.152786
-0.152348
-0.152371
-0.152316
-0.152371
-0.152348
-0.151909
-0.151932
-0.151877
-0.151932
-0.151909
-0.151469
-0.151491
-0.151437
-0.151491
-0.151469
-0.151027
-0.151048
-0.150996
-0.151048
-0.151027
-0.150583
-0.150604
-0.150552
-0.150604
-0.150583
-0.150137
-0.150158
-0.150107
-0.150158
-0.150137
-0.14969
-0.14971
-0.149661
-0.14971
-0.14969
-0.149241
-0.149261
-0.149212
-0.149261
-0.149241
-0.148791
-0.14881
-0.148762
-0.14881
-0.148791
-0.148339
-0.148358
-0.148311
-0.148358
-0.148339
-0.147885
-0.147904
-0.147858
-0.147904
-0.147885
-0.14743
-0.147448
-0.147403
-0.147448
-0.14743
-0.146973
-0.146991
-0.146946
-0.146991
-0.146973
-0.146514
-0.146531
-0.146488
-0.146531
-0.146514
-0.146053
-0.146071
-0.146028
-0.146071
-0.146054
-0.145591
-0.145608
-0.145566
-0.145608
-0.145591
-0.145127
-0.145144
-0.145103
-0.145144
-0.145127
-0.144662
-0.144678
-0.144637
-0.144678
-0.144662
-0.144195
-0.14421
-0.144171
-0.14421
-0.144195
-0.143726
-0.143741
-0.143702
-0.143741
-0.143726
-0.143255
-0.14327
-0.143232
-0.14327
-0.143255
-0.142782
-0.142797
-0.14276
-0.142797
-0.142782
-0.142308
-0.142323
-0.142286
-0.142323
-0.142308
-0.141832
-0.141846
-0.14181
-0.141846
-0.141832
-0.141355
-0.141368
-0.141333
-0.141368
-0.141355
-0.140875
-0.140889
-0.140854
-0.140889
-0.140875
-0.140394
-0.140407
-0.140373
-0.140407
-0.140394
-0.139911
-0.139924
-0.13989
-0.139924
-0.139911
-0.139426
-0.139439
-0.139406
-0.139439
-0.139426
-0.138939
-0.138952
-0.13892
-0.138952
-0.138939
-0.138451
-0.138463
-0.138432
-0.138463
-0.138451
-0.137961
-0.137973
-0.137942
-0.137973
-0.137961
-0.137469
-0.137481
-0.137451
-0.137481
-0.137469
-0.136975
-0.136987
-0.136957
-0.136987
-0.136975
-0.13648
-0.136491
-0.136462
-0.136491
-0.13648
-0.135982
-0.135993
-0.135965
-0.135993
-0.135982
-0.135483
-0.135494
-0.135466
-0.135494
-0.135483
-0.134982
-0.134992
-0.134965
-0.134992
-0.134982
-0.134479
-0.134489
-0.134463
-0.134489
-0.134479
-0.133974
-0.133984
-0.133958
-0.133984
-0.133974
-0.133467
-0.133477
-0.133452
-0.133477
-0.133467
-0.132959
-0.132968
-0.132944
-0.132968
-0.132959
-0.132448
-0.132458
-0.132434
-0.132458
-0.132448
-0.131936
-0.131945
-0.131922
-0.131945
-0.131936
-0.131422
-0.131431
-0.131408
-0.131431
-0.131422
-0.130906
-0.130915
-0.130892
-0.130915
-0.130906
-0.130388
-0.130397
-0.130375
-0.130397
-0.130388
-0.129868
-0.129876
-0.129855
-0.129877
-0.129868
-0.129346
-0.129355
-0.129334
-0.129355
-0.129346
-0.128823
-0.128831
-0.12881
-0.128831
-0.128823
-0.128297
-0.128305
-0.128285
-0.128305
-0.128297
-0.127769
-0.127777
-0.127758
-0.127777
-0.127769
-0.12724
-0.127247
-0.127228
-0.127247
-0.12724
-0.126708
-0.126716
-0.126697
-0.126716
-0.126708
-0.126175
-0.126182
-0.126164
-0.126182
-0.126175
-0.12564
-0.125647
-0.125629
-0.125647
-0.12564
-0.125102
-0.125109
-0.125092
-0.125109
-0.125102
-0.124563
-0.12457
-0.124553
-0.12457
-0.124563
-0.124022
-0.124028
-0.124012
-0.124028
-0.124022
-0.123478
-0.123485
-0.123469
-0.123485
-0.123478
-0.122933
-0.122939
-0.122924
-0.122939
-0.122933
-0.122386
-0.122392
-0.122377
-0.122392
-0.122386
-0.121836
-0.121842
-0.121828
-0.121842
-0.121836
-0.121285
-0.121291
-0.121277
-0.121291
-0.121285
-0.120732
-0.120738
-0.120724
-0.120738
-0.120732
-0.120176
-0.120182
-0.120169
-0.120182
-0.120176
-0.119619
-0.119624
-0.119612
-0.119624
-0.119619
-0.119059
-0.119065
-0.119052
-0.119065
-0.119059
-0.118498
-0.118503
-0.118491
-0.118503
-0.118498
-0.117934
-0.117939
-0.117928
-0.117939
-0.117934
-0.117368
-0.117373
-0.117362
-0.117373
-0.117368
-0.1168
-0.116806
-0.116795
-0.116806
-0.1168
-0.116231
-0.116236
-0.116225
-0.116236
-0.116231
-0.115659
-0.115663
-0.115653
-0.115663
-0.115659
-0.115084
-0.115089
-0.11508
-0.115089
-0.115084
-0.114508
-0.114513
-0.114504
-0.114513
-0.114508
-0.11393
-0.113935
-0.113926
-0.113935
-0.11393
-0.113349
-0.113354
-0.113345
-0.113354
-0.113349
-0.112767
-0.112771
-0.112763
-0.112771
-0.112767
-0.112182
-0.112187
-0.112179
-0.112187
-0.112182
-0.111595
-0.1116
-0.111592
-0.1116
-0.111595
-0.111006
-0.11101
-0.111003
-0.11101
-0.111006
-0.110415
-0.110419
-0.110412
-0.110419
-0.110415
-0.109821
-0.109826
-0.109819
-0.109826
-0.109821
-0.109226
-0.10923
-0.109224
-0.10923
-0.109226
-0.108628
-0.108632
-0.108626
-0.108632
-0.108628
-0.108028
-0.108032
-0.108026
-0.108032
-0.108028
-0.107426
-0.10743
-0.107425
-0.10743
-0.107426
-0.106821
-0.106825
-0.10682
-0.106825
-0.106821
-0.106215
-0.106219
-0.106214
-0.106219
-0.106215
-0.105606
-0.10561
-0.105605
-0.10561
-0.105606
-0.104995
-0.104999
-0.104995
-0.104999
-0.104995
-0.104381
-0.104385
-0.104381
-0.104385
-0.104381
-0.103766
-0.103769
-0.103766
-0.103769
-0.103766
-0.103148
-0.103152
-0.103149
-0.103152
-0.103148
-0.102528
-0.102531
-0.102529
-0.102531
-0.102528
-0.101905
-0.101909
-0.101906
-0.101909
-0.101905
-0.101281
-0.101284
-0.101282
-0.101284
-0.101281
-0.100654
-0.100657
-0.100655
-0.100657
-0.100654
-0.100024
-0.100028
-0.100026
-0.100028
-0.100024
-0.0993925
-0.0993959
-0.0993948
-0.0993959
-0.0993925
-0.0987585
-0.0987619
-0.0987611
-0.0987619
-0.0987585
-0.0981222
-0.0981255
-0.098125
-0.0981255
-0.0981222
-0.0974835
-0.0974868
-0.0974866
-0.0974868
-0.0974835
-0.0968428
-0.096846
-0.0968462
-0.096846
-0.0968428
-0.0962
-0.0962032
-0.0962037
-0.0962032
-0.0962
-0.0955537
-0.0955568
-0.0955576
-0.0955568
-0.0955537
-0.0948986
-0.0949018
-0.094903
-0.0949018
-0.0948986
)
;

boundaryField
{
    BotWall
    {
        type            calculated;
        value           nonuniform List<scalar> 5(5.75966 8.98134 7.29835 8.98183 5.75941);
    }
    FreeStream
    {
        type            calculated;
        value           nonuniform List<scalar> 5(-0.0945685 -0.0945717 -0.0945731 -0.0945717 -0.0945684);
    }
    FrontNBack
    {
        type            empty;
    }
    LeftSide
    {
        type            symmetryPlane;
    }
    RightSide
    {
        type            symmetryPlane;
    }
}


// ************************************************************************* //
