/*--------------------------------*- C++ -*----------------------------------*\
| =========                 |                                                 |
| \\      /  F ield         | OpenFOAM: The Open Source CFD Toolbox           |
|  \\    /   O peration     | Version:  2.4.0                                 |
|   \\  /    A nd           | Web:      www.OpenFOAM.org                      |
|    \\/     M anipulation  |                                                 |
\*---------------------------------------------------------------------------*/
FoamFile
{
    version     2.0;
    format      ascii;
    class       volScalarField;
    location    "0.001";
    object      p_rgh;
}
// * * * * * * * * * * * * * * * * * * * * * * * * * * * * * * * * * * * * * //

dimensions      [1 -1 -2 0 0 0 0];

internalField   nonuniform List<scalar> 
1500
(
5.75966
8.98134
7.29835
8.98183
5.75941
-0.788269
-0.788539
-0.788036
-0.788539
-0.78827
-0.252522
-0.252789
-0.252296
-0.252789
-0.252522
-0.176951
-0.177215
-0.176726
-0.177215
-0.176951
-0.196754
-0.197016
-0.19653
-0.197016
-0.196754
-0.209828
-0.210088
-0.209606
-0.210088
-0.209828
-0.211571
-0.211829
-0.21135
-0.211829
-0.211571
-0.210397
-0.210653
-0.210178
-0.210653
-0.210397
-0.209512
-0.209766
-0.209295
-0.209766
-0.209513
-0.209046
-0.209297
-0.20883
-0.209298
-0.209046
-0.208683
-0.208933
-0.208468
-0.208933
-0.208683
-0.208307
-0.208554
-0.208094
-0.208555
-0.208307
-0.207913
-0.208159
-0.207702
-0.208159
-0.207914
-0.207515
-0.207758
-0.207305
-0.207758
-0.207515
-0.207115
-0.207356
-0.206906
-0.207357
-0.207115
-0.206715
-0.206954
-0.206507
-0.206954
-0.206715
-0.206313
-0.20655
-0.206107
-0.20655
-0.206313
-0.205909
-0.206145
-0.205705
-0.206145
-0.205909
-0.205504
-0.205738
-0.205302
-0.205738
-0.205505
-0.205098
-0.205329
-0.204897
-0.205329
-0.205098
-0.20469
-0.204919
-0.20449
-0.20492
-0.20469
-0.204281
-0.204508
-0.204082
-0.204508
-0.204281
-0.20387
-0.204095
-0.203673
-0.204095
-0.20387
-0.203457
-0.203681
-0.203262
-0.203681
-0.203457
-0.203043
-0.203265
-0.202849
-0.203265
-0.203044
-0.202628
-0.202847
-0.202435
-0.202847
-0.202628
-0.202211
-0.202428
-0.20202
-0.202429
-0.202211
-0.201792
-0.202008
-0.201602
-0.202008
-0.201792
-0.201372
-0.201586
-0.201184
-0.201586
-0.201372
-0.200951
-0.201162
-0.200763
-0.201162
-0.200951
-0.200527
-0.200737
-0.200342
-0.200737
-0.200527
-0.200103
-0.20031
-0.199918
-0.200311
-0.200103
-0.199676
-0.199882
-0.199493
-0.199882
-0.199676
-0.199248
-0.199452
-0.199067
-0.199453
-0.199248
-0.198819
-0.199021
-0.198639
-0.199021
-0.198819
-0.198388
-0.198588
-0.198209
-0.198588
-0.198388
-0.197955
-0.198154
-0.197778
-0.198154
-0.197955
-0.197521
-0.197717
-0.197345
-0.197718
-0.197521
-0.197085
-0.19728
-0.19691
-0.19728
-0.197085
-0.196647
-0.19684
-0.196474
-0.196841
-0.196648
-0.196208
-0.196399
-0.196036
-0.1964
-0.196208
-0.195768
-0.195957
-0.195597
-0.195957
-0.195768
-0.195325
-0.195513
-0.195156
-0.195513
-0.195325
-0.194881
-0.195067
-0.194713
-0.195067
-0.194881
-0.194436
-0.19462
-0.194269
-0.19462
-0.194436
-0.193988
-0.194171
-0.193823
-0.194171
-0.193989
-0.193539
-0.19372
-0.193376
-0.19372
-0.19354
-0.193089
-0.193268
-0.192926
-0.193268
-0.193089
-0.192637
-0.192814
-0.192475
-0.192814
-0.192637
-0.192183
-0.192358
-0.192023
-0.192358
-0.192183
-0.191727
-0.191901
-0.191569
-0.191901
-0.191727
-0.19127
-0.191442
-0.191113
-0.191442
-0.19127
-0.190811
-0.190981
-0.190655
-0.190981
-0.190811
-0.19035
-0.190519
-0.190196
-0.190519
-0.19035
-0.189888
-0.190055
-0.189735
-0.190055
-0.189888
-0.189424
-0.189589
-0.189272
-0.189589
-0.189424
-0.188958
-0.189121
-0.188807
-0.189122
-0.188958
-0.188491
-0.188652
-0.188341
-0.188652
-0.188491
-0.188021
-0.188181
-0.187873
-0.188182
-0.188022
-0.187551
-0.187709
-0.187403
-0.187709
-0.187551
-0.187078
-0.187234
-0.186932
-0.187235
-0.187078
-0.186603
-0.186758
-0.186459
-0.186759
-0.186604
-0.186127
-0.186281
-0.185984
-0.186281
-0.186127
-0.185649
-0.185801
-0.185507
-0.185801
-0.185649
-0.18517
-0.18532
-0.185029
-0.18532
-0.18517
-0.184688
-0.184837
-0.184548
-0.184837
-0.184688
-0.184205
-0.184352
-0.184066
-0.184352
-0.184205
-0.18372
-0.183865
-0.183583
-0.183865
-0.18372
-0.183233
-0.183377
-0.183097
-0.183377
-0.183233
-0.182745
-0.182887
-0.18261
-0.182887
-0.182745
-0.182254
-0.182395
-0.18212
-0.182395
-0.182254
-0.181762
-0.181901
-0.181629
-0.181901
-0.181762
-0.181268
-0.181406
-0.181136
-0.181406
-0.181268
-0.180772
-0.180908
-0.180642
-0.180908
-0.180772
-0.180274
-0.180409
-0.180145
-0.180409
-0.180274
-0.179775
-0.179908
-0.179647
-0.179908
-0.179775
-0.179273
-0.179405
-0.179147
-0.179405
-0.179274
-0.17877
-0.1789
-0.178645
-0.178901
-0.17877
-0.178265
-0.178394
-0.178141
-0.178394
-0.178265
-0.177758
-0.177885
-0.177635
-0.177886
-0.177758
-0.177249
-0.177375
-0.177127
-0.177375
-0.177249
-0.176739
-0.176863
-0.176618
-0.176863
-0.176739
-0.176226
-0.176349
-0.176106
-0.176349
-0.176226
-0.175712
-0.175833
-0.175593
-0.175833
-0.175712
-0.175195
-0.175315
-0.175078
-0.175316
-0.175195
-0.174677
-0.174796
-0.17456
-0.174796
-0.174677
-0.174157
-0.174274
-0.174041
-0.174274
-0.174157
-0.173635
-0.173751
-0.17352
-0.173751
-0.173635
-0.173111
-0.173225
-0.172997
-0.173225
-0.173111
-0.172585
-0.172698
-0.172472
-0.172698
-0.172585
-0.172057
-0.172169
-0.171946
-0.172169
-0.172057
-0.171527
-0.171638
-0.171417
-0.171638
-0.171527
-0.170995
-0.171104
-0.170886
-0.171105
-0.170995
-0.170461
-0.170569
-0.170353
-0.170569
-0.170462
-0.169926
-0.170032
-0.169819
-0.170032
-0.169926
-0.169388
-0.169493
-0.169282
-0.169493
-0.169388
-0.168848
-0.168952
-0.168743
-0.168952
-0.168848
-0.168307
-0.168409
-0.168203
-0.168409
-0.168307
-0.167763
-0.167864
-0.16766
-0.167865
-0.167763
-0.167217
-0.167318
-0.167115
-0.167318
-0.167217
-0.16667
-0.166769
-0.166569
-0.166769
-0.16667
-0.16612
-0.166218
-0.16602
-0.166218
-0.16612
-0.165568
-0.165665
-0.165469
-0.165665
-0.165568
-0.165014
-0.16511
-0.164916
-0.16511
-0.165015
-0.164459
-0.164553
-0.164362
-0.164553
-0.164459
-0.163901
-0.163994
-0.163805
-0.163994
-0.163901
-0.163341
-0.163432
-0.163246
-0.163432
-0.163341
-0.162779
-0.162869
-0.162685
-0.162869
-0.162779
-0.162215
-0.162304
-0.162122
-0.162304
-0.162215
-0.161649
-0.161737
-0.161556
-0.161737
-0.161649
-0.16108
-0.161167
-0.160989
-0.161167
-0.16108
-0.16051
-0.160596
-0.16042
-0.160596
-0.16051
-0.159938
-0.160022
-0.159848
-0.160022
-0.159938
-0.159363
-0.159447
-0.159275
-0.159447
-0.159363
-0.158786
-0.158869
-0.158699
-0.158869
-0.158786
-0.158208
-0.158289
-0.158121
-0.158289
-0.158208
-0.157627
-0.157707
-0.157541
-0.157707
-0.157627
-0.157044
-0.157123
-0.156959
-0.157123
-0.157044
-0.156458
-0.156536
-0.156375
-0.156537
-0.156458
-0.155871
-0.155948
-0.155788
-0.155948
-0.155871
-0.155282
-0.155357
-0.155199
-0.155357
-0.155282
-0.15469
-0.154765
-0.154609
-0.154765
-0.15469
-0.154096
-0.15417
-0.154016
-0.15417
-0.154096
-0.1535
-0.153573
-0.15342
-0.153573
-0.1535
-0.152902
-0.152973
-0.152823
-0.152973
-0.152902
-0.152301
-0.152372
-0.152223
-0.152372
-0.152301
-0.151698
-0.151768
-0.151622
-0.151768
-0.151698
-0.151093
-0.151162
-0.151017
-0.151162
-0.151094
-0.150486
-0.150554
-0.150411
-0.150554
-0.150486
-0.149877
-0.149944
-0.149803
-0.149944
-0.149877
-0.149265
-0.149331
-0.149192
-0.149331
-0.149265
-0.148651
-0.148716
-0.148579
-0.148716
-0.148651
-0.148035
-0.148099
-0.147963
-0.148099
-0.148035
-0.147417
-0.14748
-0.147346
-0.14748
-0.147417
-0.146796
-0.146858
-0.146726
-0.146858
-0.146796
-0.146173
-0.146234
-0.146104
-0.146234
-0.146173
-0.145548
-0.145608
-0.145479
-0.145608
-0.145548
-0.14492
-0.144979
-0.144852
-0.14498
-0.14492
-0.14429
-0.144349
-0.144223
-0.144349
-0.14429
-0.143658
-0.143716
-0.143592
-0.143716
-0.143658
-0.143023
-0.14308
-0.142958
-0.14308
-0.143024
-0.142387
-0.142442
-0.142322
-0.142442
-0.142387
-0.141747
-0.141802
-0.141683
-0.141802
-0.141747
-0.141106
-0.14116
-0.141043
-0.14116
-0.141106
-0.140462
-0.140515
-0.140399
-0.140515
-0.140462
-0.139815
-0.139868
-0.139754
-0.139868
-0.139815
-0.139167
-0.139218
-0.139106
-0.139218
-0.139167
-0.138516
-0.138566
-0.138455
-0.138566
-0.138516
-0.137862
-0.137912
-0.137803
-0.137912
-0.137862
-0.137206
-0.137255
-0.137147
-0.137255
-0.137206
-0.136548
-0.136596
-0.13649
-0.136596
-0.136548
-0.135887
-0.135935
-0.13583
-0.135935
-0.135887
-0.135224
-0.135271
-0.135167
-0.135271
-0.135224
-0.134558
-0.134604
-0.134502
-0.134604
-0.134558
-0.13389
-0.133935
-0.133835
-0.133935
-0.13389
-0.133219
-0.133264
-0.133165
-0.133264
-0.133219
-0.132546
-0.13259
-0.132493
-0.13259
-0.132546
-0.131871
-0.131914
-0.131818
-0.131914
-0.131871
-0.131193
-0.131235
-0.13114
-0.131235
-0.131193
-0.130512
-0.130554
-0.130461
-0.130554
-0.130512
-0.129829
-0.12987
-0.129778
-0.12987
-0.129829
-0.129144
-0.129184
-0.129093
-0.129184
-0.129144
-0.128456
-0.128495
-0.128406
-0.128495
-0.128456
-0.127765
-0.127804
-0.127716
-0.127804
-0.127765
-0.127072
-0.12711
-0.127024
-0.12711
-0.127072
-0.126376
-0.126414
-0.126329
-0.126414
-0.126376
-0.125678
-0.125715
-0.125631
-0.125715
-0.125678
-0.124977
-0.125013
-0.124931
-0.125014
-0.124977
-0.124274
-0.124309
-0.124228
-0.124309
-0.124274
-0.123568
-0.123603
-0.123523
-0.123603
-0.123568
-0.122859
-0.122894
-0.122815
-0.122894
-0.122859
-0.122148
-0.122182
-0.122104
-0.122182
-0.122148
-0.121434
-0.121467
-0.121391
-0.121467
-0.121434
-0.120718
-0.12075
-0.120675
-0.12075
-0.120718
-0.119999
-0.120031
-0.119956
-0.120031
-0.119999
-0.119277
-0.119308
-0.119235
-0.119308
-0.119277
-0.118552
-0.118583
-0.118511
-0.118583
-0.118552
-0.117825
-0.117856
-0.117785
-0.117856
-0.117825
-0.117096
-0.117125
-0.117056
-0.117125
-0.117096
-0.116363
-0.116392
-0.116324
-0.116392
-0.116363
-0.115628
-0.115657
-0.115589
-0.115657
-0.115628
-0.11489
-0.114918
-0.114852
-0.114918
-0.11489
-0.114149
-0.114177
-0.114112
-0.114177
-0.11415
-0.113406
-0.113433
-0.113369
-0.113433
-0.113406
-0.11266
-0.112687
-0.112624
-0.112687
-0.11266
-0.111911
-0.111937
-0.111875
-0.111937
-0.111911
-0.11116
-0.111185
-0.111124
-0.111185
-0.11116
-0.110405
-0.11043
-0.11037
-0.110431
-0.110405
-0.109648
-0.109673
-0.109614
-0.109673
-0.109648
-0.108888
-0.108913
-0.108854
-0.108913
-0.108888
-0.108126
-0.108149
-0.108092
-0.108149
-0.108126
-0.10736
-0.107383
-0.107327
-0.107383
-0.10736
-0.106592
-0.106615
-0.10656
-0.106615
-0.106592
-0.105821
-0.105843
-0.105789
-0.105843
-0.105821
-0.105047
-0.105069
-0.105015
-0.105069
-0.105047
-0.10427
-0.104291
-0.104239
-0.104291
-0.10427
-0.10349
-0.103511
-0.10346
-0.103511
-0.10349
-0.102708
-0.102728
-0.102678
-0.102728
-0.102708
-0.101922
-0.101942
-0.101893
-0.101942
-0.101922
-0.101134
-0.101154
-0.101105
-0.101154
-0.101134
-0.100343
-0.100362
-0.100314
-0.100362
-0.100343
-0.0995484
-0.0995674
-0.0995204
-0.0995674
-0.0995484
-0.0987513
-0.0987699
-0.0987237
-0.0987699
-0.0987513
-0.0979513
-0.0979695
-0.0979241
-0.0979695
-0.0979513
-0.0971483
-0.0971661
-0.0971216
-0.0971662
-0.0971483
-0.0963424
-0.0963598
-0.0963161
-0.0963599
-0.0963424
-0.0955335
-0.0955506
-0.0955077
-0.0955506
-0.0955335
-0.0947216
-0.0947383
-0.0946962
-0.0947383
-0.0947216
-0.0939067
-0.0939231
-0.0938818
-0.0939231
-0.0939067
-0.0930888
-0.0931049
-0.0930643
-0.0931049
-0.0930889
-0.0922679
-0.0922837
-0.0922439
-0.0922837
-0.092268
-0.091444
-0.0914594
-0.0914204
-0.0914594
-0.091444
-0.0906171
-0.0906321
-0.0905939
-0.0906322
-0.0906171
-0.0897871
-0.0898018
-0.0897643
-0.0898019
-0.0897871
-0.088954
-0.0889685
-0.0889317
-0.0889685
-0.0889541
-0.0881179
-0.088132
-0.088096
-0.0881321
-0.0881179
-0.0872787
-0.0872926
-0.0872572
-0.0872926
-0.0872787
-0.0864364
-0.08645
-0.0864153
-0.08645
-0.0864365
-0.085591
-0.0856043
-0.0855703
-0.0856043
-0.0855911
-0.0847425
-0.0847555
-0.0847222
-0.0847555
-0.0847426
-0.0838909
-0.0839036
-0.0838709
-0.0839036
-0.0838909
-0.0830361
-0.0830486
-0.0830166
-0.0830486
-0.0830362
-0.0821782
-0.0821904
-0.082159
-0.0821904
-0.0821783
-0.0813172
-0.081329
-0.0812983
-0.0813291
-0.0813172
-0.0804529
-0.0804646
-0.0804345
-0.0804646
-0.0804529
-0.0795855
-0.0795969
-0.0795674
-0.0795969
-0.0795855
-0.0787149
-0.078726
-0.0786972
-0.078726
-0.0787149
-0.0778411
-0.0778519
-0.0778237
-0.077852
-0.0778411
-0.076964
-0.0769747
-0.0769471
-0.0769747
-0.076964
-0.0760837
-0.0760942
-0.0760671
-0.0760942
-0.0760838
-0.0752002
-0.0752104
-0.075184
-0.0752104
-0.0752002
-0.0743135
-0.0743234
-0.0742976
-0.0743234
-0.0743135
-0.0734234
-0.0734332
-0.0734079
-0.0734332
-0.0734234
-0.0725301
-0.0725397
-0.0725149
-0.0725397
-0.0725301
-0.0716335
-0.0716428
-0.0716187
-0.0716429
-0.0716335
-0.0707336
-0.0707427
-0.0707191
-0.0707428
-0.0707336
-0.0698304
-0.0698393
-0.0698162
-0.0698393
-0.0698304
-0.0689239
-0.0689326
-0.06891
-0.0689326
-0.0689239
-0.068014
-0.0680225
-0.0680005
-0.0680225
-0.068014
-0.0671007
-0.0671091
-0.0670876
-0.0671091
-0.0671008
-0.0661842
-0.0661923
-0.0661713
-0.0661924
-0.0661842
-0.0652642
-0.0652722
-0.0652517
-0.0652722
-0.0652642
-0.0643408
-0.0643487
-0.0643287
-0.0643487
-0.0643408
-0.0634141
-0.0634218
-0.0634022
-0.0634218
-0.0634141
-0.0624839
-0.0624914
-0.0624724
-0.0624914
-0.0624839
-0.0615503
-0.0615577
-0.0615391
-0.0615577
-0.0615503
-0.0606133
-0.0606205
-0.0606024
-0.0606205
-0.0606133
-0.0596728
-0.0596799
-0.0596622
-0.0596799
-0.0596728
-0.0587289
-0.0587358
-0.0587186
-0.0587358
-0.0587289
-0.0577814
-0.0577882
-0.0577715
-0.0577882
-0.0577814
-0.0568305
-0.0568372
-0.0568209
-0.0568372
-0.0568305
-0.0558761
-0.0558826
-0.0558668
-0.0558826
-0.0558761
-0.0549182
-0.0549246
-0.0549092
-0.0549246
-0.0549182
-0.0539568
-0.053963
-0.053948
-0.053963
-0.0539568
-0.0529918
-0.0529979
-0.0529834
-0.0529979
-0.0529918
-0.0520232
-0.0520292
-0.0520151
-0.0520292
-0.0520232
-0.0510511
-0.051057
-0.0510433
-0.051057
-0.0510511
-0.0500754
-0.0500812
-0.0500679
-0.0500812
-0.0500754
-0.0490962
-0.0491018
-0.0490889
-0.0491018
-0.0490962
-0.0481133
-0.0481188
-0.0481063
-0.0481188
-0.0481133
-0.0471268
-0.0471322
-0.0471201
-0.0471322
-0.0471268
-0.0461366
-0.046142
-0.0461303
-0.046142
-0.0461366
-0.0451429
-0.0451481
-0.0451368
-0.0451481
-0.0451429
-0.0441454
-0.0441505
-0.0441396
-0.0441505
-0.0441454
-0.0431443
-0.0431493
-0.0431388
-0.0431493
-0.0431443
-0.0421395
-0.0421445
-0.0421343
-0.0421445
-0.0421395
-0.041131
-0.0411359
-0.0411261
-0.0411359
-0.041131
-0.0401188
-0.0401236
-0.0401142
-0.0401236
-0.0401188
-0.0391029
-0.0391076
-0.0390985
-0.0391076
-0.0391029
-0.0380832
-0.0380878
-0.0380791
-0.0380878
-0.0380832
-0.0370598
-0.0370643
-0.037056
-0.0370643
-0.0370598
-0.0360326
-0.036037
-0.036029
-0.036037
-0.0360326
-0.0350016
-0.035006
-0.0349983
-0.035006
-0.0350016
-0.0339668
-0.0339711
-0.0339638
-0.0339711
-0.0339668
-0.0329283
-0.0329325
-0.0329255
-0.0329325
-0.0329282
-0.0318858
-0.03189
-0.0318834
-0.03189
-0.0318858
-0.0308396
-0.0308437
-0.0308374
-0.0308437
-0.0308396
-0.0297895
-0.0297936
-0.0297876
-0.0297936
-0.0297895
-0.0287356
-0.0287395
-0.0287339
-0.0287395
-0.0287355
-0.0276777
-0.0276817
-0.0276764
-0.0276816
-0.0276777
-0.026616
-0.0266199
-0.0266149
-0.0266199
-0.026616
-0.0255503
-0.0255542
-0.0255495
-0.0255542
-0.0255503
-0.0244808
-0.0244846
-0.0244803
-0.0244845
-0.0244808
-0.0234073
-0.023411
-0.023407
-0.023411
-0.0234073
-0.0223298
-0.0223335
-0.0223298
-0.0223335
-0.0223298
-0.0212484
-0.021252
-0.0212487
-0.021252
-0.0212484
-0.020163
-0.0201666
-0.0201636
-0.0201666
-0.020163
-0.0190736
-0.0190771
-0.0190745
-0.0190771
-0.0190736
-0.0179802
-0.0179837
-0.0179813
-0.0179837
-0.0179802
-0.0168827
-0.0168862
-0.0168842
-0.0168862
-0.0168827
-0.0157813
-0.0157847
-0.015783
-0.0157847
-0.0157813
-0.0146757
-0.0146791
-0.0146777
-0.0146791
-0.0146757
-0.0135661
-0.0135695
-0.0135684
-0.0135695
-0.0135661
-0.0124525
-0.0124558
-0.012455
-0.0124558
-0.0124524
-0.0113346
-0.0113379
-0.0113375
-0.0113379
-0.0113346
-0.0102128
-0.010216
-0.0102159
-0.010216
-0.0102127
-0.00908702
-0.00909025
-0.00909042
-0.00909024
-0.009087
-0.00795745
-0.00796065
-0.00796113
-0.00796064
-0.00795744
-0.00682251
-0.00682567
-0.00682647
-0.00682566
-0.00682249
-0.00567705
-0.00568024
-0.00568139
-0.00568023
-0.00567703
)
;

boundaryField
{
    BotWall
    {
        type            fixedFluxPressure;
        gradient        uniform 0;
        value           nonuniform List<scalar> 5(5.75966 8.98134 7.29835 8.98183 5.75941);
    }
    FreeStream
    {
        type            totalPressure;
        rho             rho;
        psi             none;
        gamma           1;
        p0              uniform 0;
        value           nonuniform List<scalar> 5(-0.00510126 -0.00510451 -0.00510588 -0.0051045 -0.00510124);
    }
    FrontNBack
    {
        type            empty;
    }
    LeftSide
    {
        type            symmetryPlane;
    }
    RightSide
    {
        type            symmetryPlane;
    }
}


// ************************************************************************* //
