/*--------------------------------*- C++ -*----------------------------------*\
| =========                 |                                                 |
| \\      /  F ield         | OpenFOAM: The Open Source CFD Toolbox           |
|  \\    /   O peration     | Version:  2.4.0                                 |
|   \\  /    A nd           | Web:      www.OpenFOAM.org                      |
|    \\/     M anipulation  |                                                 |
\*---------------------------------------------------------------------------*/
FoamFile
{
    version     2.0;
    format      ascii;
    class       surfaceScalarField;
    location    "0.001";
    object      phi;
}
// * * * * * * * * * * * * * * * * * * * * * * * * * * * * * * * * * * * * * //

dimensions      [0 3 -1 0 0 0 0];

internalField   nonuniform List<scalar> 
2695
(
-9.43923e-15
-1.10271e-14
3.58643e-15
-2.94317e-14
-3.58738e-15
-5.78944e-15
9.44089e-15
-2.94351e-14
-1.10253e-14
-1.06559e-15
-6.69476e-09
-9.16191e-16
-6.69478e-09
9.20309e-16
-6.69474e-09
1.06852e-15
-6.69478e-09
-6.69476e-09
-2.76826e-15
-6.69476e-09
-2.63969e-15
-6.69478e-09
2.67487e-15
-6.69475e-09
2.79164e-15
-6.69478e-09
-6.69476e-09
-7.53506e-15
-6.69475e-09
-5.59385e-15
-6.69478e-09
5.67106e-15
-6.69476e-09
7.58645e-15
-6.69478e-09
-6.69475e-09
-1.1989e-14
-6.69474e-09
-8.13052e-15
-6.69479e-09
8.24649e-15
-6.69477e-09
1.20663e-14
-6.69479e-09
-6.69474e-09
-1.59499e-14
-6.69472e-09
-1.03477e-14
-6.69479e-09
1.04992e-14
-6.69479e-09
1.60509e-14
-6.69479e-09
-6.69472e-09
-1.94297e-14
-6.6947e-09
-1.23439e-14
-6.6948e-09
1.25278e-14
-6.69482e-09
1.95523e-14
-6.6948e-09
-6.6947e-09
-2.25108e-14
-6.69468e-09
-1.41714e-14
-6.69481e-09
1.43848e-14
-6.69485e-09
2.26531e-14
-6.69481e-09
-6.69468e-09
-2.52546e-14
-6.69465e-09
-1.58388e-14
-6.69482e-09
1.60787e-14
-6.69488e-09
2.54147e-14
-6.69482e-09
-6.69465e-09
-2.76907e-14
-6.69462e-09
-1.73386e-14
-6.69483e-09
1.76022e-14
-6.69492e-09
2.78669e-14
-6.69483e-09
-6.69462e-09
-2.98347e-14
-6.6946e-09
-1.86657e-14
-6.69484e-09
1.89504e-14
-6.69495e-09
3.00251e-14
-6.69484e-09
-6.69459e-09
-3.17001e-14
-6.69456e-09
-1.98221e-14
-6.69485e-09
2.01253e-14
-6.69499e-09
3.1903e-14
-6.69485e-09
-6.69456e-09
-3.33022e-14
-6.69453e-09
-2.0815e-14
-6.69486e-09
2.11343e-14
-6.69503e-09
3.3516e-14
-6.69486e-09
-6.69453e-09
-3.46581e-14
-6.6945e-09
-2.16544e-14
-6.69487e-09
2.19875e-14
-6.69508e-09
3.48815e-14
-6.69487e-09
-6.69449e-09
-3.57861e-14
-6.69446e-09
-2.23514e-14
-6.69489e-09
2.26962e-14
-6.69512e-09
3.60176e-14
-6.69489e-09
-6.69446e-09
-3.67049e-14
-6.69442e-09
-2.29177e-14
-6.6949e-09
2.32724e-14
-6.69517e-09
3.69434e-14
-6.6949e-09
-6.69442e-09
-3.74335e-14
-6.69439e-09
-2.33651e-14
-6.69492e-09
2.3728e-14
-6.69522e-09
3.76778e-14
-6.69491e-09
-6.69438e-09
-3.79907e-14
-6.69435e-09
-2.37054e-14
-6.69493e-09
2.40748e-14
-6.69526e-09
3.82398e-14
-6.69493e-09
-6.69434e-09
-3.83948e-14
-6.69431e-09
-2.39499e-14
-6.69494e-09
2.43246e-14
-6.69531e-09
3.86478e-14
-6.69494e-09
-6.69431e-09
-3.86633e-14
-6.69427e-09
-2.41097e-14
-6.69496e-09
2.44883e-14
-6.69536e-09
3.89193e-14
-6.69496e-09
-6.69427e-09
-3.88128e-14
-6.69423e-09
-2.41952e-14
-6.69497e-09
2.45766e-14
-6.69541e-09
3.90712e-14
-6.69497e-09
-6.69423e-09
-3.88588e-14
-6.69419e-09
-2.4216e-14
-6.69499e-09
2.45993e-14
-6.69546e-09
3.9119e-14
-6.69499e-09
-6.69419e-09
-3.88157e-14
-6.69415e-09
-2.41811e-14
-6.695e-09
2.45655e-14
-6.69551e-09
3.90771e-14
-6.695e-09
-6.69415e-09
-3.86964e-14
-6.69412e-09
-2.40986e-14
-6.69502e-09
2.44833e-14
-6.69556e-09
3.89585e-14
-6.69502e-09
-6.69411e-09
-3.85126e-14
-6.69408e-09
-2.39758e-14
-6.69503e-09
2.43603e-14
-6.6956e-09
3.87751e-14
-6.69503e-09
-6.69407e-09
-3.82747e-14
-6.69404e-09
-2.38192e-14
-6.69505e-09
2.42029e-14
-6.69565e-09
3.85372e-14
-6.69504e-09
-6.69403e-09
-3.79919e-14
-6.694e-09
-2.36345e-14
-6.69506e-09
2.40171e-14
-6.6957e-09
3.82541e-14
-6.69506e-09
-6.694e-09
-3.76721e-14
-6.69396e-09
-2.34267e-14
-6.69508e-09
2.38077e-14
-6.69575e-09
3.79338e-14
-6.69507e-09
-6.69396e-09
-3.73221e-14
-6.69393e-09
-2.32e-14
-6.69509e-09
2.35792e-14
-6.69579e-09
3.7583e-14
-6.69509e-09
-6.69392e-09
-3.69477e-14
-6.69389e-09
-2.29582e-14
-6.6951e-09
2.33352e-14
-6.69584e-09
3.72077e-14
-6.6951e-09
-6.69388e-09
-3.65538e-14
-6.69385e-09
-2.27041e-14
-6.69512e-09
2.30789e-14
-6.69589e-09
3.68128e-14
-6.69511e-09
-6.69385e-09
-3.61444e-14
-6.69382e-09
-2.24404e-14
-6.69513e-09
2.28127e-14
-6.69593e-09
3.64022e-14
-6.69513e-09
-6.69381e-09
-3.5723e-14
-6.69378e-09
-2.21692e-14
-6.69514e-09
2.25389e-14
-6.69598e-09
3.59796e-14
-6.69514e-09
-6.69377e-09
-3.52924e-14
-6.69374e-09
-2.18923e-14
-6.69516e-09
2.22592e-14
-6.69602e-09
3.55476e-14
-6.69515e-09
-6.69374e-09
-3.48547e-14
-6.69371e-09
-2.16109e-14
-6.69517e-09
2.1975e-14
-6.69606e-09
3.51085e-14
-6.69517e-09
-6.6937e-09
-3.44117e-14
-6.69368e-09
-2.13263e-14
-6.69518e-09
2.16875e-14
-6.69611e-09
3.4664e-14
-6.69518e-09
-6.69367e-09
-3.3965e-14
-6.69364e-09
-2.10394e-14
-6.6952e-09
2.13976e-14
-6.69615e-09
3.42158e-14
-6.69519e-09
-6.69363e-09
-3.35157e-14
-6.69361e-09
-2.07508e-14
-6.69521e-09
2.11061e-14
-6.69619e-09
3.37649e-14
-6.69521e-09
-6.6936e-09
-3.30646e-14
-6.69357e-09
-2.04612e-14
-6.69522e-09
2.08134e-14
-6.69623e-09
3.33122e-14
-6.69522e-09
-6.69357e-09
-3.26126e-14
-6.69354e-09
-2.0171e-14
-6.69524e-09
2.052e-14
-6.69627e-09
3.28584e-14
-6.69523e-09
-6.69353e-09
-3.216e-14
-6.69351e-09
-1.98805e-14
-6.69525e-09
2.02264e-14
-6.69631e-09
3.24042e-14
-6.69524e-09
-6.6935e-09
-3.17075e-14
-6.69348e-09
-1.959e-14
-6.69526e-09
1.99327e-14
-6.69635e-09
3.19499e-14
-6.69526e-09
-6.69347e-09
-3.12552e-14
-6.69345e-09
-1.92997e-14
-6.69527e-09
1.96392e-14
-6.69639e-09
3.14958e-14
-6.69527e-09
-6.69344e-09
-3.08036e-14
-6.69342e-09
-1.90098e-14
-6.69528e-09
1.93461e-14
-6.69643e-09
3.10424e-14
-6.69528e-09
-6.69341e-09
-3.03527e-14
-6.69339e-09
-1.87205e-14
-6.69529e-09
1.90535e-14
-6.69647e-09
3.05897e-14
-6.69529e-09
-6.69338e-09
-2.99028e-14
-6.69336e-09
-1.84317e-14
-6.69531e-09
1.87614e-14
-6.69651e-09
3.01378e-14
-6.6953e-09
-6.69335e-09
-2.94539e-14
-6.69333e-09
-1.81437e-14
-6.69532e-09
1.84701e-14
-6.69654e-09
2.96871e-14
-6.69531e-09
-6.69332e-09
-2.90062e-14
-6.6933e-09
-1.78564e-14
-6.69533e-09
1.81794e-14
-6.69658e-09
2.92375e-14
-6.69532e-09
-6.69329e-09
-2.85598e-14
-6.69327e-09
-1.75699e-14
-6.69534e-09
1.78896e-14
-6.69661e-09
2.87891e-14
-6.69534e-09
-6.69326e-09
-2.81148e-14
-6.69324e-09
-1.72843e-14
-6.69535e-09
1.76006e-14
-6.69665e-09
2.83421e-14
-6.69535e-09
-6.69323e-09
-2.76711e-14
-6.69321e-09
-1.69997e-14
-6.69536e-09
1.73125e-14
-6.69668e-09
2.78964e-14
-6.69536e-09
-6.6932e-09
-2.72289e-14
-6.69319e-09
-1.67159e-14
-6.69537e-09
1.70253e-14
-6.69672e-09
2.74522e-14
-6.69537e-09
-6.69318e-09
-2.67881e-14
-6.69316e-09
-1.64331e-14
-6.69538e-09
1.67391e-14
-6.69675e-09
2.70094e-14
-6.69538e-09
-6.69315e-09
-2.6349e-14
-6.69313e-09
-1.61513e-14
-6.69539e-09
1.64538e-14
-6.69678e-09
2.65682e-14
-6.69539e-09
-6.69312e-09
-2.59114e-14
-6.69311e-09
-1.58706e-14
-6.6954e-09
1.61696e-14
-6.69681e-09
2.61285e-14
-6.6954e-09
-6.6931e-09
-2.54755e-14
-6.69308e-09
-1.55909e-14
-6.69541e-09
1.58864e-14
-6.69685e-09
2.56904e-14
-6.69541e-09
-6.69307e-09
-2.50412e-14
-6.69306e-09
-1.53123e-14
-6.69542e-09
1.56042e-14
-6.69688e-09
2.5254e-14
-6.69542e-09
-6.69304e-09
-2.46087e-14
-6.69303e-09
-1.50348e-14
-6.69543e-09
1.53232e-14
-6.69691e-09
2.48193e-14
-6.69543e-09
-6.69302e-09
-2.41779e-14
-6.69301e-09
-1.47584e-14
-6.69544e-09
1.50432e-14
-6.69694e-09
2.43863e-14
-6.69544e-09
-6.693e-09
-2.37488e-14
-6.69298e-09
-1.44831e-14
-6.69545e-09
1.47644e-14
-6.69697e-09
2.3955e-14
-6.69544e-09
-6.69297e-09
-2.33216e-14
-6.69296e-09
-1.42091e-14
-6.69546e-09
1.44868e-14
-6.69699e-09
2.35256e-14
-6.69545e-09
-6.69295e-09
-2.28963e-14
-6.69294e-09
-1.39362e-14
-6.69547e-09
1.42103e-14
-6.69702e-09
2.3098e-14
-6.69546e-09
-6.69292e-09
-2.24728e-14
-6.69292e-09
-1.36646e-14
-6.69548e-09
1.3935e-14
-6.69705e-09
2.26723e-14
-6.69547e-09
-6.6929e-09
-2.20513e-14
-6.69289e-09
-1.33942e-14
-6.69549e-09
1.36609e-14
-6.69708e-09
2.22484e-14
-6.69548e-09
-6.69288e-09
-2.16317e-14
-6.69287e-09
-1.3125e-14
-6.69549e-09
1.33881e-14
-6.6971e-09
2.18265e-14
-6.69549e-09
-6.69286e-09
-2.12142e-14
-6.69285e-09
-1.28572e-14
-6.6955e-09
1.31166e-14
-6.69713e-09
2.14066e-14
-6.6955e-09
-6.69284e-09
-2.07986e-14
-6.69283e-09
-1.25906e-14
-6.69551e-09
1.28464e-14
-6.69716e-09
2.09886e-14
-6.6955e-09
-6.69282e-09
-2.03851e-14
-6.69281e-09
-1.23254e-14
-6.69552e-09
1.25774e-14
-6.69718e-09
2.05728e-14
-6.69551e-09
-6.69279e-09
-1.99737e-14
-6.69279e-09
-1.20615e-14
-6.69553e-09
1.23098e-14
-6.6972e-09
2.01589e-14
-6.69552e-09
-6.69277e-09
-1.95644e-14
-6.69277e-09
-1.1799e-14
-6.69553e-09
1.20436e-14
-6.69723e-09
1.97472e-14
-6.69553e-09
-6.69275e-09
-1.91573e-14
-6.69275e-09
-1.15379e-14
-6.69554e-09
1.17788e-14
-6.69725e-09
1.93376e-14
-6.69554e-09
-6.69274e-09
-1.87523e-14
-6.69273e-09
-1.12782e-14
-6.69555e-09
1.15153e-14
-6.69727e-09
1.89302e-14
-6.69554e-09
-6.69272e-09
-1.83496e-14
-6.69271e-09
-1.102e-14
-6.69556e-09
1.12533e-14
-6.6973e-09
1.8525e-14
-6.69555e-09
-6.6927e-09
-1.79491e-14
-6.6927e-09
-1.07632e-14
-6.69556e-09
1.09927e-14
-6.69732e-09
1.81221e-14
-6.69556e-09
-6.69268e-09
-1.7551e-14
-6.69268e-09
-1.05078e-14
-6.69557e-09
1.07336e-14
-6.69734e-09
1.77214e-14
-6.69556e-09
-6.69266e-09
-1.71551e-14
-6.69266e-09
-1.0254e-14
-6.69558e-09
1.04759e-14
-6.69736e-09
1.7323e-14
-6.69557e-09
-6.69265e-09
-1.67616e-14
-6.69264e-09
-1.00017e-14
-6.69558e-09
1.02198e-14
-6.69738e-09
1.69269e-14
-6.69558e-09
-6.69263e-09
-1.63704e-14
-6.69263e-09
-9.75089e-15
-6.69559e-09
9.9652e-15
-6.6974e-09
1.65332e-14
-6.69558e-09
-6.69261e-09
-1.59817e-14
-6.69261e-09
-9.50166e-15
-6.6956e-09
9.71215e-15
-6.69742e-09
1.61419e-14
-6.69559e-09
-6.6926e-09
-1.55954e-14
-6.6926e-09
-9.254e-15
-6.6956e-09
9.46065e-15
-6.69744e-09
1.5753e-14
-6.6956e-09
-6.69258e-09
-1.52116e-14
-6.69258e-09
-9.00794e-15
-6.69561e-09
9.21075e-15
-6.69746e-09
1.53665e-14
-6.6956e-09
-6.69256e-09
-1.48302e-14
-6.69257e-09
-8.76349e-15
-6.69562e-09
8.96245e-15
-6.69747e-09
1.49826e-14
-6.69561e-09
-6.69255e-09
-1.44514e-14
-6.69255e-09
-8.52067e-15
-6.69562e-09
8.71578e-15
-6.69749e-09
1.46011e-14
-6.69562e-09
-6.69253e-09
-1.40751e-14
-6.69254e-09
-8.2795e-15
-6.69563e-09
8.47075e-15
-6.69751e-09
1.42222e-14
-6.69562e-09
-6.69252e-09
-1.37015e-14
-6.69252e-09
-8.04001e-15
-6.69563e-09
8.22738e-15
-6.69752e-09
1.38459e-14
-6.69563e-09
-6.69251e-09
-1.33304e-14
-6.69251e-09
-7.80219e-15
-6.69564e-09
7.9857e-15
-6.69754e-09
1.34721e-14
-6.69563e-09
-6.69249e-09
-1.2962e-14
-6.6925e-09
-7.56609e-15
-6.69564e-09
7.74572e-15
-6.69756e-09
1.3101e-14
-6.69564e-09
-6.69248e-09
-1.25962e-14
-6.69248e-09
-7.33171e-15
-6.69565e-09
7.50746e-15
-6.69757e-09
1.27326e-14
-6.69564e-09
-6.69247e-09
-1.22331e-14
-6.69247e-09
-7.09907e-15
-6.69566e-09
7.27094e-15
-6.69758e-09
1.23668e-14
-6.69565e-09
-6.69245e-09
-1.18727e-14
-6.69246e-09
-6.86818e-15
-6.69566e-09
7.03618e-15
-6.6976e-09
1.20037e-14
-6.69565e-09
-6.69244e-09
-1.15151e-14
-6.69245e-09
-6.63908e-15
-6.69567e-09
6.80319e-15
-6.69761e-09
1.16434e-14
-6.69566e-09
-6.69243e-09
-1.11603e-14
-6.69244e-09
-6.41177e-15
-6.69567e-09
6.57199e-15
-6.69763e-09
1.12858e-14
-6.69566e-09
-6.69242e-09
-1.08082e-14
-6.69243e-09
-6.18626e-15
-6.69567e-09
6.34261e-15
-6.69764e-09
1.0931e-14
-6.69567e-09
-6.69241e-09
-1.0459e-14
-6.69242e-09
-5.96259e-15
-6.69568e-09
6.11505e-15
-6.69765e-09
1.0579e-14
-6.69567e-09
-6.6924e-09
-1.01126e-14
-6.69241e-09
-5.74075e-15
-6.69568e-09
5.88934e-15
-6.69766e-09
1.02299e-14
-6.69568e-09
-6.69239e-09
-9.76907e-15
-6.6924e-09
-5.52078e-15
-6.69569e-09
5.66548e-15
-6.69767e-09
9.88359e-15
-6.69568e-09
-6.69238e-09
-9.42844e-15
-6.69239e-09
-5.30268e-15
-6.69569e-09
5.44351e-15
-6.69768e-09
9.5402e-15
-6.69568e-09
-6.69237e-09
-9.09072e-15
-6.69238e-09
-5.08647e-15
-6.6957e-09
5.22343e-15
-6.69769e-09
9.19972e-15
-6.69569e-09
-6.69236e-09
-8.75595e-15
-6.69237e-09
-4.87217e-15
-6.6957e-09
5.00525e-15
-6.6977e-09
8.86218e-15
-6.69569e-09
-6.69235e-09
-8.42413e-15
-6.69236e-09
-4.65979e-15
-6.6957e-09
4.78901e-15
-6.69771e-09
8.52759e-15
-6.6957e-09
-6.69234e-09
-8.0953e-15
-6.69235e-09
-4.44935e-15
-6.69571e-09
4.57471e-15
-6.69772e-09
8.19598e-15
-6.6957e-09
-6.69233e-09
-7.76947e-15
-6.69235e-09
-4.24085e-15
-6.69571e-09
4.36236e-15
-6.69773e-09
7.86737e-15
-6.6957e-09
-6.69233e-09
-7.44667e-15
-6.69234e-09
-4.03433e-15
-6.69571e-09
4.15198e-15
-6.69774e-09
7.54179e-15
-6.69571e-09
-6.69232e-09
-7.12691e-15
-6.69233e-09
-3.82978e-15
-6.69572e-09
3.9436e-15
-6.69775e-09
7.21926e-15
-6.69571e-09
-6.69231e-09
-6.81022e-15
-6.69232e-09
-3.62722e-15
-6.69572e-09
3.73721e-15
-6.69775e-09
6.89979e-15
-6.69571e-09
-6.6923e-09
-6.49662e-15
-6.69232e-09
-3.42668e-15
-6.69572e-09
3.53284e-15
-6.69776e-09
6.5834e-15
-6.69572e-09
-6.6923e-09
-6.18613e-15
-6.69231e-09
-3.22815e-15
-6.69573e-09
3.3305e-15
-6.69777e-09
6.27013e-15
-6.69572e-09
-6.69229e-09
-5.87875e-15
-6.69231e-09
-3.03166e-15
-6.69573e-09
3.1302e-15
-6.69777e-09
5.95997e-15
-6.69572e-09
-6.69229e-09
-5.57453e-15
-6.6923e-09
-2.83722e-15
-6.69573e-09
2.93196e-15
-6.69778e-09
5.65297e-15
-6.69572e-09
-6.69228e-09
-5.27346e-15
-6.69229e-09
-2.64483e-15
-6.69573e-09
2.7358e-15
-6.69778e-09
5.34913e-15
-6.69573e-09
-6.69227e-09
-4.97558e-15
-6.69229e-09
-2.45452e-15
-6.69574e-09
2.54171e-15
-6.69779e-09
5.04847e-15
-6.69573e-09
-6.69227e-09
-4.68089e-15
-6.69229e-09
-2.26629e-15
-6.69574e-09
2.34973e-15
-6.69779e-09
4.75101e-15
-6.69573e-09
-6.69226e-09
-4.38941e-15
-6.69228e-09
-2.08016e-15
-6.69574e-09
2.15985e-15
-6.6978e-09
4.45676e-15
-6.69573e-09
-6.69226e-09
-4.10116e-15
-6.69228e-09
-1.89613e-15
-6.69574e-09
1.97209e-15
-6.6978e-09
4.16575e-15
-6.69574e-09
-6.69226e-09
-3.81616e-15
-6.69227e-09
-1.71423e-15
-6.69575e-09
1.78647e-15
-6.69781e-09
3.87799e-15
-6.69574e-09
-6.69225e-09
-3.53441e-15
-6.69227e-09
-1.53445e-15
-6.69575e-09
1.60299e-15
-6.69781e-09
3.59349e-15
-6.69574e-09
-6.69225e-09
-3.25594e-15
-6.69227e-09
-1.35681e-15
-6.69575e-09
1.42167e-15
-6.69781e-09
3.31227e-15
-6.69574e-09
-6.69225e-09
-2.98075e-15
-6.69226e-09
-1.18132e-15
-6.69575e-09
1.24251e-15
-6.69781e-09
3.03434e-15
-6.69574e-09
-6.69224e-09
-2.70887e-15
-6.69226e-09
-1.00799e-15
-6.69575e-09
1.06553e-15
-6.69782e-09
2.75972e-15
-6.69575e-09
-6.69224e-09
-2.4403e-15
-6.69226e-09
-8.36814e-16
-6.69576e-09
8.90726e-16
-6.69782e-09
2.48842e-15
-6.69575e-09
-6.69224e-09
-2.17505e-15
-6.69226e-09
-6.67804e-16
-6.69576e-09
7.18108e-16
-6.69782e-09
2.22046e-15
-6.69575e-09
-6.69224e-09
-1.91314e-15
-6.69225e-09
-5.0092e-16
-6.69576e-09
5.47672e-16
-6.69782e-09
1.95584e-15
-6.69575e-09
-6.69223e-09
-1.65458e-15
-6.69225e-09
-3.35235e-16
-6.69576e-09
3.78636e-16
-6.69782e-09
1.69457e-15
-6.69575e-09
-6.69223e-09
-1.39937e-15
-6.69225e-09
-1.71603e-16
-6.69576e-09
2.11512e-16
-6.69782e-09
1.43667e-15
-6.69575e-09
-6.69223e-09
-1.14753e-15
-6.69225e-09
-1.01758e-17
-6.69576e-09
4.64205e-17
-6.69782e-09
1.18215e-15
-6.69575e-09
-6.69223e-09
-8.99066e-16
-6.69225e-09
1.4761e-16
-6.69576e-09
-1.15123e-16
-6.69782e-09
9.31007e-16
-6.69576e-09
-6.69223e-09
-6.53985e-16
-6.69225e-09
3.03265e-16
-6.69576e-09
-2.74232e-16
-6.69782e-09
6.83263e-16
-6.69576e-09
-6.69223e-09
-4.12222e-16
-6.69225e-09
4.56831e-16
-6.69576e-09
-4.31244e-16
-6.69782e-09
4.38927e-16
-6.69576e-09
-6.69223e-09
-1.73196e-16
-6.69225e-09
6.08261e-16
-6.69577e-09
-5.86104e-16
-6.69782e-09
1.97258e-16
-6.69576e-09
-6.69223e-09
6.22804e-17
-6.69225e-09
7.57522e-16
-6.69577e-09
-7.38776e-16
-6.69782e-09
-4.09234e-17
-6.69576e-09
-6.69223e-09
2.93048e-16
-6.69225e-09
9.0459e-16
-6.69577e-09
-8.89233e-16
-6.69782e-09
-2.74358e-16
-6.69576e-09
-6.69223e-09
5.20435e-16
-6.69225e-09
1.04945e-15
-6.69577e-09
-1.03746e-15
-6.69781e-09
-5.04331e-16
-6.69576e-09
-6.69223e-09
7.44468e-16
-6.69225e-09
1.19208e-15
-6.69577e-09
-1.18343e-15
-6.69781e-09
-7.3094e-16
-6.69576e-09
-6.69223e-09
9.65111e-16
-6.69225e-09
1.33248e-15
-6.69577e-09
-1.32714e-15
-6.69781e-09
-9.54147e-16
-6.69576e-09
-6.69223e-09
1.18234e-15
-6.69225e-09
1.47063e-15
-6.69577e-09
-1.46858e-15
-6.69781e-09
-1.17393e-15
-6.69576e-09
-6.69223e-09
1.39614e-15
-6.69225e-09
1.60653e-15
-6.69577e-09
-1.60774e-15
-6.6978e-09
-1.39026e-15
-6.69576e-09
-6.69223e-09
1.6065e-15
-6.69225e-09
1.74018e-15
-6.69577e-09
-1.74461e-15
-6.6978e-09
-1.60314e-15
-6.69576e-09
-6.69223e-09
1.8134e-15
-6.69226e-09
1.87156e-15
-6.69577e-09
-1.8792e-15
-6.6978e-09
-1.81254e-15
-6.69576e-09
-6.69224e-09
2.01684e-15
-6.69226e-09
2.00068e-15
-6.69577e-09
-2.01148e-15
-6.69779e-09
-2.01847e-15
-6.69576e-09
-6.69224e-09
2.21682e-15
-6.69226e-09
2.12754e-15
-6.69577e-09
-2.14147e-15
-6.69779e-09
-2.22091e-15
-6.69576e-09
-6.69224e-09
2.41332e-15
-6.69226e-09
2.25212e-15
-6.69577e-09
-2.26915e-15
-6.69778e-09
-2.41986e-15
-6.69576e-09
-6.69224e-09
2.60635e-15
-6.69227e-09
2.37442e-15
-6.69577e-09
-2.39453e-15
-6.69778e-09
-2.61532e-15
-6.69576e-09
-6.69224e-09
2.7959e-15
-6.69227e-09
2.49445e-15
-6.69577e-09
-2.5176e-15
-6.69777e-09
-2.80728e-15
-6.69576e-09
-6.69225e-09
2.98198e-15
-6.69227e-09
2.61221e-15
-6.69577e-09
-2.63835e-15
-6.69777e-09
-2.99574e-15
-6.69576e-09
-6.69225e-09
3.16457e-15
-6.69227e-09
2.72768e-15
-6.69577e-09
-2.7568e-15
-6.69776e-09
-3.1807e-15
-6.69576e-09
-6.69225e-09
3.34368e-15
-6.69228e-09
2.84088e-15
-6.69577e-09
-2.87292e-15
-6.69776e-09
-3.36215e-15
-6.69576e-09
-6.69226e-09
3.51932e-15
-6.69228e-09
2.9518e-15
-6.69577e-09
-2.98674e-15
-6.69775e-09
-3.54011e-15
-6.69576e-09
-6.69226e-09
3.69147e-15
-6.69228e-09
3.06044e-15
-6.69577e-09
-3.09824e-15
-6.69774e-09
-3.71456e-15
-6.69576e-09
-6.69226e-09
3.86015e-15
-6.69229e-09
3.16681e-15
-6.69576e-09
-3.20742e-15
-6.69774e-09
-3.88551e-15
-6.69576e-09
-6.69227e-09
4.02536e-15
-6.69229e-09
3.2709e-15
-6.69576e-09
-3.3143e-15
-6.69773e-09
-4.05296e-15
-6.69576e-09
-6.69227e-09
4.1871e-15
-6.6923e-09
3.37272e-15
-6.69576e-09
-3.41885e-15
-6.69772e-09
-4.21692e-15
-6.69576e-09
-6.69228e-09
4.34537e-15
-6.6923e-09
3.47226e-15
-6.69576e-09
-3.5211e-15
-6.69772e-09
-4.37739e-15
-6.69575e-09
-6.69228e-09
4.50018e-15
-6.69231e-09
3.56954e-15
-6.69576e-09
-3.62104e-15
-6.69771e-09
-4.53437e-15
-6.69575e-09
-6.69228e-09
4.65154e-15
-6.69231e-09
3.66455e-15
-6.69576e-09
-3.71867e-15
-6.6977e-09
-4.68786e-15
-6.69575e-09
-6.69229e-09
4.79944e-15
-6.69232e-09
3.7573e-15
-6.69576e-09
-3.814e-15
-6.6977e-09
-4.83788e-15
-6.69575e-09
-6.69229e-09
4.9439e-15
-6.69232e-09
3.84779e-15
-6.69576e-09
-3.90702e-15
-6.69769e-09
-4.98443e-15
-6.69575e-09
-6.6923e-09
5.08493e-15
-6.69233e-09
3.93602e-15
-6.69576e-09
-3.99775e-15
-6.69768e-09
-5.12751e-15
-6.69575e-09
-6.6923e-09
5.22253e-15
-6.69233e-09
4.022e-15
-6.69576e-09
-4.08618e-15
-6.69767e-09
-5.26713e-15
-6.69575e-09
-6.69231e-09
5.3567e-15
-6.69234e-09
4.10574e-15
-6.69575e-09
-4.17232e-15
-6.69766e-09
-5.4033e-15
-6.69575e-09
-6.69232e-09
5.48747e-15
-6.69234e-09
4.18724e-15
-6.69575e-09
-4.25617e-15
-6.69765e-09
-5.53603e-15
-6.69575e-09
-6.69232e-09
5.61484e-15
-6.69235e-09
4.2665e-15
-6.69575e-09
-4.33774e-15
-6.69765e-09
-5.66533e-15
-6.69574e-09
-6.69233e-09
5.73881e-15
-6.69235e-09
4.34353e-15
-6.69575e-09
-4.41704e-15
-6.69764e-09
-5.79121e-15
-6.69574e-09
-6.69233e-09
5.8594e-15
-6.69236e-09
4.41833e-15
-6.69575e-09
-4.49407e-15
-6.69763e-09
-5.91367e-15
-6.69574e-09
-6.69234e-09
5.97663e-15
-6.69236e-09
4.49093e-15
-6.69575e-09
-4.56883e-15
-6.69762e-09
-6.03273e-15
-6.69574e-09
-6.69234e-09
6.0905e-15
-6.69237e-09
4.56131e-15
-6.69575e-09
-4.64134e-15
-6.69761e-09
-6.1484e-15
-6.69574e-09
-6.69235e-09
6.20103e-15
-6.69238e-09
4.62949e-15
-6.69574e-09
-4.7116e-15
-6.6976e-09
-6.26069e-15
-6.69574e-09
-6.69236e-09
6.30823e-15
-6.69238e-09
4.69548e-15
-6.69574e-09
-4.77962e-15
-6.69759e-09
-6.36962e-15
-6.69574e-09
-6.69236e-09
6.41211e-15
-6.69239e-09
4.75929e-15
-6.69574e-09
-4.8454e-15
-6.69758e-09
-6.4752e-15
-6.69573e-09
-6.69237e-09
6.5127e-15
-6.6924e-09
4.82092e-15
-6.69574e-09
-4.90896e-15
-6.69757e-09
-6.57744e-15
-6.69573e-09
-6.69238e-09
6.61e-15
-6.6924e-09
4.88038e-15
-6.69574e-09
-4.97029e-15
-6.69756e-09
-6.67636e-15
-6.69573e-09
-6.69238e-09
6.70403e-15
-6.69241e-09
4.93768e-15
-6.69574e-09
-5.02943e-15
-6.69755e-09
-6.77198e-15
-6.69573e-09
-6.69239e-09
6.79481e-15
-6.69242e-09
4.99284e-15
-6.69573e-09
-5.08636e-15
-6.69754e-09
-6.86431e-15
-6.69573e-09
-6.6924e-09
6.88235e-15
-6.69242e-09
5.04586e-15
-6.69573e-09
-5.1411e-15
-6.69753e-09
-6.95336e-15
-6.69573e-09
-6.6924e-09
6.96668e-15
-6.69243e-09
5.09676e-15
-6.69573e-09
-5.19367e-15
-6.69752e-09
-7.03916e-15
-6.69572e-09
-6.69241e-09
7.04781e-15
-6.69244e-09
5.14554e-15
-6.69573e-09
-5.24406e-15
-6.69751e-09
-7.12172e-15
-6.69572e-09
-6.69242e-09
7.12576e-15
-6.69244e-09
5.19222e-15
-6.69573e-09
-5.29231e-15
-6.6975e-09
-7.20106e-15
-6.69572e-09
-6.69242e-09
7.20056e-15
-6.69245e-09
5.23681e-15
-6.69572e-09
-5.3384e-15
-6.69749e-09
-7.27721e-15
-6.69572e-09
-6.69243e-09
7.27222e-15
-6.69246e-09
5.27932e-15
-6.69572e-09
-5.38237e-15
-6.69748e-09
-7.35018e-15
-6.69572e-09
-6.69244e-09
7.34076e-15
-6.69247e-09
5.31977e-15
-6.69572e-09
-5.42421e-15
-6.69747e-09
-7.41999e-15
-6.69571e-09
-6.69245e-09
7.40621e-15
-6.69247e-09
5.35817e-15
-6.69572e-09
-5.46395e-15
-6.69746e-09
-7.48666e-15
-6.69571e-09
-6.69245e-09
7.46858e-15
-6.69248e-09
5.39452e-15
-6.69572e-09
-5.50159e-15
-6.69745e-09
-7.55022e-15
-6.69571e-09
-6.69246e-09
7.52791e-15
-6.69249e-09
5.42886e-15
-6.69571e-09
-5.53716e-15
-6.69744e-09
-7.61069e-15
-6.69571e-09
-6.69247e-09
7.58421e-15
-6.6925e-09
5.46118e-15
-6.69571e-09
-5.57066e-15
-6.69742e-09
-7.66809e-15
-6.69571e-09
-6.69248e-09
7.63752e-15
-6.6925e-09
5.49151e-15
-6.69571e-09
-5.6021e-15
-6.69741e-09
-7.72245e-15
-6.6957e-09
-6.69248e-09
7.68785e-15
-6.69251e-09
5.51986e-15
-6.69571e-09
-5.63152e-15
-6.6974e-09
-7.7738e-15
-6.6957e-09
-6.69249e-09
7.73523e-15
-6.69252e-09
5.54625e-15
-6.69571e-09
-5.65891e-15
-6.69739e-09
-7.82215e-15
-6.6957e-09
-6.6925e-09
7.77969e-15
-6.69253e-09
5.57069e-15
-6.6957e-09
-5.68429e-15
-6.69738e-09
-7.86753e-15
-6.6957e-09
-6.69251e-09
7.82126e-15
-6.69253e-09
5.5932e-15
-6.6957e-09
-5.70769e-15
-6.69737e-09
-7.90997e-15
-6.69569e-09
-6.69252e-09
7.85995e-15
-6.69254e-09
5.6138e-15
-6.6957e-09
-5.72912e-15
-6.69736e-09
-7.94951e-15
-6.69569e-09
-6.69252e-09
7.89582e-15
-6.69255e-09
5.6325e-15
-6.6957e-09
-5.74859e-15
-6.69735e-09
-7.98615e-15
-6.69569e-09
-6.69253e-09
7.92887e-15
-6.69256e-09
5.64932e-15
-6.69569e-09
-5.76613e-15
-6.69733e-09
-8.01995e-15
-6.69569e-09
-6.69254e-09
7.95914e-15
-6.69257e-09
5.66429e-15
-6.69569e-09
-5.78175e-15
-6.69732e-09
-8.05092e-15
-6.69569e-09
-6.69255e-09
7.98667e-15
-6.69257e-09
5.67741e-15
-6.69569e-09
-5.79547e-15
-6.69731e-09
-8.07909e-15
-6.69568e-09
-6.69256e-09
8.01147e-15
-6.69258e-09
5.68871e-15
-6.69569e-09
-5.80731e-15
-6.6973e-09
-8.1045e-15
-6.69568e-09
-6.69256e-09
8.0336e-15
-6.69259e-09
5.69821e-15
-6.69569e-09
-5.81729e-15
-6.69729e-09
-8.12718e-15
-6.69568e-09
-6.69257e-09
8.05307e-15
-6.6926e-09
5.70593e-15
-6.69568e-09
-5.82542e-15
-6.69728e-09
-8.14716e-15
-6.69568e-09
-6.69258e-09
8.06992e-15
-6.69261e-09
5.71189e-15
-6.69568e-09
-5.83174e-15
-6.69727e-09
-8.16447e-15
-6.69567e-09
-6.69259e-09
8.08418e-15
-6.69261e-09
5.7161e-15
-6.69568e-09
-5.83625e-15
-6.69725e-09
-8.17915e-15
-6.69567e-09
-6.6926e-09
8.09589e-15
-6.69262e-09
5.71859e-15
-6.69568e-09
-5.83899e-15
-6.69724e-09
-8.19123e-15
-6.69567e-09
-6.69261e-09
8.10509e-15
-6.69263e-09
5.71939e-15
-6.69567e-09
-5.83996e-15
-6.69723e-09
-8.20074e-15
-6.69567e-09
-6.69261e-09
8.11181e-15
-6.69264e-09
5.71851e-15
-6.69567e-09
-5.83921e-15
-6.69722e-09
-8.20773e-15
-6.69566e-09
-6.69262e-09
8.11608e-15
-6.69265e-09
5.71597e-15
-6.69567e-09
-5.83674e-15
-6.69721e-09
-8.21222e-15
-6.69566e-09
-6.69263e-09
8.11795e-15
-6.69265e-09
5.71181e-15
-6.69567e-09
-5.83257e-15
-6.6972e-09
-8.21426e-15
-6.69566e-09
-6.69264e-09
8.11744e-15
-6.69266e-09
5.70604e-15
-6.69566e-09
-5.82675e-15
-6.69718e-09
-8.21388e-15
-6.69566e-09
-6.69265e-09
8.11461e-15
-6.69267e-09
5.69868e-15
-6.69566e-09
-5.81927e-15
-6.69717e-09
-8.21113e-15
-6.69566e-09
-6.69265e-09
8.10949e-15
-6.69268e-09
5.68976e-15
-6.69566e-09
-5.81018e-15
-6.69716e-09
-8.20603e-15
-6.69565e-09
-6.69266e-09
8.10211e-15
-6.69269e-09
5.67931e-15
-6.69566e-09
-5.7995e-15
-6.69715e-09
-8.19863e-15
-6.69565e-09
-6.69267e-09
8.09252e-15
-6.6927e-09
5.66734e-15
-6.69565e-09
-5.78725e-15
-6.69714e-09
-8.18898e-15
-6.69565e-09
-6.69268e-09
8.08077e-15
-6.6927e-09
5.65389e-15
-6.69565e-09
-5.77345e-15
-6.69713e-09
-8.1771e-15
-6.69565e-09
-6.69269e-09
8.06688e-15
-6.69271e-09
5.63898e-15
-6.69565e-09
-5.75814e-15
-6.69712e-09
-8.16305e-15
-6.69564e-09
-6.6927e-09
8.05091e-15
-6.69272e-09
5.62264e-15
-6.69565e-09
-5.74133e-15
-6.6971e-09
-8.14686e-15
-6.69564e-09
-6.6927e-09
8.0329e-15
-6.69273e-09
5.60488e-15
-6.69564e-09
-5.72306e-15
-6.69709e-09
-8.12859e-15
-6.69564e-09
-6.69271e-09
8.01288e-15
-6.69274e-09
5.58575e-15
-6.69564e-09
-5.70336e-15
-6.69708e-09
-8.10826e-15
-6.69564e-09
-6.69272e-09
7.99091e-15
-6.69274e-09
5.56527e-15
-6.69564e-09
-5.68224e-15
-6.69707e-09
-8.08594e-15
-6.69563e-09
-6.69273e-09
7.96703e-15
-6.69275e-09
5.54346e-15
-6.69564e-09
-5.65974e-15
-6.69706e-09
-8.06165e-15
-6.69563e-09
-6.69274e-09
7.94129e-15
-6.69276e-09
5.52035e-15
-6.69564e-09
-5.63589e-15
-6.69705e-09
-8.03546e-15
-6.69563e-09
-6.69274e-09
7.91373e-15
-6.69277e-09
5.49597e-15
-6.69563e-09
-5.61072e-15
-6.69704e-09
-8.0074e-15
-6.69563e-09
-6.69275e-09
7.8844e-15
-6.69278e-09
5.47035e-15
-6.69563e-09
-5.58426e-15
-6.69703e-09
-7.97752e-15
-6.69562e-09
-6.69276e-09
7.85334e-15
-6.69278e-09
5.44353e-15
-6.69563e-09
-5.55653e-15
-6.69702e-09
-7.94587e-15
-6.69562e-09
-6.69277e-09
7.82061e-15
-6.69279e-09
5.41552e-15
-6.69563e-09
-5.52756e-15
-6.697e-09
-7.9125e-15
-6.69562e-09
-6.69278e-09
7.78626e-15
-6.6928e-09
5.38636e-15
-6.69562e-09
-5.4974e-15
-6.69699e-09
-7.87746e-15
-6.69562e-09
-6.69278e-09
7.75032e-15
-6.69281e-09
5.35608e-15
-6.69562e-09
-5.46606e-15
-6.69698e-09
-7.84079e-15
-6.69561e-09
-6.69279e-09
7.71287e-15
-6.69281e-09
5.32471e-15
-6.69562e-09
-5.43358e-15
-6.69697e-09
-7.80256e-15
-6.69561e-09
-6.6928e-09
7.67393e-15
-6.69282e-09
5.29228e-15
-6.69562e-09
-5.4e-15
-6.69696e-09
-7.7628e-15
-6.69561e-09
-6.69281e-09
7.63357e-15
-6.69283e-09
5.25883e-15
-6.69561e-09
-5.36534e-15
-6.69695e-09
-7.72158e-15
-6.69561e-09
-6.69281e-09
7.59184e-15
-6.69284e-09
5.22438e-15
-6.69561e-09
-5.32963e-15
-6.69694e-09
-7.67894e-15
-6.69561e-09
-6.69282e-09
7.54879e-15
-6.69284e-09
5.18897e-15
-6.69561e-09
-5.29292e-15
-6.69693e-09
-7.63495e-15
-6.6956e-09
-6.69283e-09
7.50447e-15
-6.69285e-09
5.15263e-15
-6.69561e-09
-5.25524e-15
-6.69692e-09
-7.58964e-15
-6.6956e-09
-6.69284e-09
7.45895e-15
-6.69286e-09
5.1154e-15
-6.6956e-09
-5.21661e-15
-6.69691e-09
-7.54308e-15
-6.6956e-09
-6.69285e-09
7.41226e-15
-6.69287e-09
5.0773e-15
-6.6956e-09
-5.17708e-15
-6.6969e-09
-7.49532e-15
-6.6956e-09
-6.69285e-09
7.36448e-15
-6.69287e-09
5.03838e-15
-6.6956e-09
-5.13668e-15
-6.69689e-09
-7.44643e-15
-6.69559e-09
-6.69286e-09
7.31564e-15
-6.69288e-09
4.99866e-15
-6.6956e-09
-5.09544e-15
-6.69688e-09
-7.39644e-15
-6.69559e-09
-6.69287e-09
7.26582e-15
-6.69289e-09
4.95819e-15
-6.69559e-09
-5.05341e-15
-6.69687e-09
-7.34544e-15
-6.69559e-09
-6.69287e-09
7.21507e-15
-6.6929e-09
4.91699e-15
-6.69559e-09
-5.01061e-15
-6.69686e-09
-7.29346e-15
-6.69559e-09
-6.69288e-09
7.16345e-15
-6.6929e-09
4.8751e-15
-6.69559e-09
-4.96709e-15
-6.69685e-09
-7.24057e-15
-6.69558e-09
-6.69289e-09
7.11101e-15
-6.69291e-09
4.83256e-15
-6.69559e-09
-4.92288e-15
-6.69684e-09
-7.18684e-15
-6.69558e-09
-6.6929e-09
7.05781e-15
-6.69292e-09
4.7894e-15
-6.69559e-09
-4.87801e-15
-6.69683e-09
-7.13231e-15
-6.69558e-09
-6.6929e-09
7.00392e-15
-6.69292e-09
4.74567e-15
-6.69558e-09
-4.83254e-15
-6.69682e-09
-7.07706e-15
-6.69558e-09
-6.69291e-09
6.94939e-15
-6.69293e-09
4.7014e-15
-6.69558e-09
-4.7865e-15
-6.69681e-09
-7.02114e-15
-6.69558e-09
-6.69292e-09
6.89429e-15
-6.69294e-09
4.65662e-15
-6.69558e-09
-4.73992e-15
-6.6968e-09
-6.96461e-15
-6.69557e-09
-6.69292e-09
6.83868e-15
-6.69295e-09
4.61138e-15
-6.69558e-09
-4.69285e-15
-6.69679e-09
-6.90755e-15
-6.69557e-09
-6.69293e-09
6.78262e-15
-6.69295e-09
4.56571e-15
-6.69557e-09
-4.64532e-15
-6.69678e-09
-6.85001e-15
-6.69557e-09
-6.69294e-09
6.72617e-15
-6.69296e-09
4.51965e-15
-6.69557e-09
-4.59738e-15
-6.69677e-09
-6.79205e-15
-6.69557e-09
-6.69295e-09
6.66941e-15
-6.69297e-09
4.47324e-15
-6.69557e-09
-4.54907e-15
-6.69676e-09
-6.73376e-15
-6.69556e-09
-6.69295e-09
6.61239e-15
-6.69297e-09
4.42653e-15
-6.69557e-09
-4.50043e-15
-6.69676e-09
-6.67518e-15
-6.69556e-09
-6.69296e-09
6.55518e-15
-6.69298e-09
4.37954e-15
-6.69557e-09
-4.45151e-15
-6.69675e-09
-6.6164e-15
-6.69556e-09
-6.69297e-09
6.49785e-15
-6.69299e-09
4.33234e-15
-6.69556e-09
-4.40234e-15
-6.69674e-09
-6.55747e-15
-6.69556e-09
-6.69297e-09
6.44047e-15
-6.69299e-09
4.28495e-15
-6.69556e-09
-4.35298e-15
-6.69673e-09
-6.49848e-15
-6.69556e-09
-6.69298e-09
6.38312e-15
-6.693e-09
4.23743e-15
-6.69556e-09
-4.30347e-15
-6.69672e-09
-6.4395e-15
-6.69555e-09
-6.69298e-09
6.32587e-15
-6.693e-09
4.18982e-15
-6.69556e-09
-4.25386e-15
-6.69671e-09
-6.38061e-15
-6.69555e-09
-6.69299e-09
6.2688e-15
-6.69301e-09
4.14217e-15
-6.69555e-09
-4.20421e-15
-6.6967e-09
-6.32189e-15
-6.69555e-09
-6.693e-09
6.21201e-15
-6.69302e-09
4.09454e-15
-6.69555e-09
-4.15457e-15
-6.6967e-09
-6.26343e-15
-6.69555e-09
-6.693e-09
6.15558e-15
-6.69302e-09
4.04698e-15
-6.69555e-09
-4.10501e-15
-6.69669e-09
-6.20533e-15
-6.69555e-09
-6.69301e-09
6.09962e-15
-6.69303e-09
3.99957e-15
-6.69555e-09
-4.05559e-15
-6.69668e-09
-6.1477e-15
-6.69554e-09
-6.69302e-09
6.04426e-15
-6.69304e-09
3.95238e-15
-6.69555e-09
-4.0064e-15
-6.69667e-09
-6.09066e-15
-6.69554e-09
-6.69302e-09
5.98962e-15
-6.69304e-09
3.9055e-15
-6.69554e-09
-3.95753e-15