/*--------------------------------*- C++ -*----------------------------------*\
| =========                 |                                                 |
| \\      /  F ield         | OpenFOAM: The Open Source CFD Toolbox           |
|  \\    /   O peration     | Version:  2.4.0                                 |
|   \\  /    A nd           | Web:      www.OpenFOAM.org                      |
|    \\/     M anipulation  |                                                 |
\*---------------------------------------------------------------------------*/
FoamFile
{
    version     2.0;
    format      ascii;
    class       volVectorField;
    location    "0.001";
    object      U;
}
// * * * * * * * * * * * * * * * * * * * * * * * * * * * * * * * * * * * * * //

dimensions      [0 1 -1 0 0 0 0];

internalField   nonuniform List<vector> 
1500
(
(-4.1499e-06 -0.000108405 0)
(-3.758e-06 -0.000108414 0)
(-4.22521e-10 -0.000108421 0)
(3.75845e-06 -0.000108414 0)
(4.15077e-06 -0.000108405 0)
(-3.73496e-07 -0.0043105 0)
(-1.96557e-06 -0.0043106 0)
(2.3067e-09 -0.00431047 0)
(1.96992e-06 -0.0043106 0)
(3.75538e-07 -0.0043105 0)
(-4.76039e-07 -0.04198 0)
(-5.60967e-06 -0.0419801 0)
(2.03764e-08 -0.0419799 0)
(5.64522e-06 -0.0419801 0)
(4.91197e-07 -0.04198 0)
(-4.39193e-06 -0.0379124 0)
(-1.198e-05 -0.0379126 0)
(4.45303e-08 -0.0379125 0)
(1.20578e-05 -0.0379126 0)
(4.42518e-06 -0.0379124 0)
(-8.48269e-06 -0.034047 0)
(-1.74203e-05 -0.0340472 0)
(6.66226e-08 -0.0340471 0)
(1.75368e-05 -0.0340472 0)
(8.5325e-06 -0.034047 0)
(-1.21728e-05 -0.0331561 0)
(-2.21333e-05 -0.0331564 0)
(8.67104e-08 -0.0331564 0)
(2.2285e-05 -0.0331564 0)
(1.22377e-05 -0.0331561 0)
(-1.52814e-05 -0.0333074 0)
(-2.63374e-05 -0.0333078 0)
(1.04872e-07 -0.0333078 0)
(2.65209e-05 -0.0333078 0)
(1.536e-05 -0.0333074 0)
(-1.78787e-05 -0.033454 0)
(-3.01494e-05 -0.0334546 0)
(1.21175e-07 -0.0334547 0)
(3.03616e-05 -0.0334545 0)
(1.79697e-05 -0.033454 0)
(-2.00825e-05 -0.0334856 0)
(-3.35918e-05 -0.0334863 0)
(1.35691e-07 -0.0334866 0)
(3.38296e-05 -0.0334863 0)
(2.01845e-05 -0.0334856 0)
(-2.19754e-05 -0.0334794 0)
(-3.66525e-05 -0.0334803 0)
(1.48497e-07 -0.0334807 0)
(3.69129e-05 -0.0334803 0)
(2.20872e-05 -0.0334794 0)
(-2.36039e-05 -0.0334737 0)
(-3.9325e-05 -0.0334748 0)
(1.59682e-07 -0.0334753 0)
(3.96053e-05 -0.0334748 0)
(2.37245e-05 -0.0334737 0)
(-2.49951e-05 -0.0334724 0)
(-4.16178e-05 -0.0334737 0)
(1.69342e-07 -0.0334744 0)
(4.19154e-05 -0.0334737 0)
(2.51233e-05 -0.0334724 0)
(-2.61685e-05 -0.0334725 0)
(-4.35501e-05 -0.033474 0)
(1.77577e-07 -0.0334748 0)
(4.38625e-05 -0.033474 0)
(2.63032e-05 -0.0334725 0)
(-2.71412e-05 -0.0334725 0)
(-4.51464e-05 -0.0334743 0)
(1.84492e-07 -0.0334753 0)
(4.54713e-05 -0.0334743 0)
(2.72815e-05 -0.0334725 0)
(-2.79299e-05 -0.0334724 0)
(-4.64337e-05 -0.0334744 0)
(1.90194e-07 -0.0334755 0)
(4.67692e-05 -0.0334744 0)
(2.80751e-05 -0.0334724 0)
(-2.85513e-05 -0.0334722 0)
(-4.74396e-05 -0.0334745 0)
(1.94791e-07 -0.0334757 0)
(4.77837e-05 -0.0334745 0)
(2.87005e-05 -0.0334722 0)
(-2.90218e-05 -0.033472 0)
(-4.81917e-05 -0.0334745 0)
(1.98389e-07 -0.033476 0)
(4.85426e-05 -0.0334745 0)
(2.91742e-05 -0.033472 0)
(-2.93573e-05 -0.0334718 0)
(-4.87168e-05 -0.0334746 0)
(2.01092e-07 -0.0334762 0)
(4.90731e-05 -0.0334746 0)
(2.95124e-05 -0.0334718 0)
(-2.95732e-05 -0.0334716 0)
(-4.90408e-05 -0.0334747 0)
(2.03001e-07 -0.0334764 0)
(4.94011e-05 -0.0334747 0)
(2.97304e-05 -0.0334716 0)
(-2.96843e-05 -0.0334714 0)
(-4.91885e-05 -0.0334748 0)
(2.04212e-07 -0.0334767 0)
(4.95516e-05 -0.0334748 0)
(2.9843e-05 -0.0334714 0)
(-2.97041e-05 -0.0334713 0)
(-4.91828e-05 -0.0334748 0)
(2.04813e-07 -0.0334769 0)
(4.95476e-05 -0.0334748 0)
(2.9864e-05 -0.0334712 0)
(-2.96454e-05 -0.0334711 0)
(-4.90452e-05 -0.0334749 0)
(2.04888e-07 -0.0334772 0)
(4.94108e-05 -0.0334749 0)
(2.9806e-05 -0.033471 0)
(-2.95197e-05 -0.0334709 0)
(-4.87951e-05 -0.033475 0)
(2.04512e-07 -0.0334774 0)
(4.91609e-05 -0.033475 0)
(2.96808e-05 -0.0334708 0)
(-2.93375e-05 -0.0334707 0)
(-4.84503e-05 -0.0334751 0)
(2.03753e-07 -0.0334777 0)
(4.88154e-05 -0.033475 0)
(2.94988e-05 -0.0334707 0)
(-2.91082e-05 -0.0334705 0)
(-4.80264e-05 -0.0334751 0)
(2.02672e-07 -0.0334779 0)
(4.83904e-05 -0.0334751 0)
(2.92694e-05 -0.0334705 0)
(-2.884e-05 -0.0334703 0)
(-4.75374e-05 -0.0334752 0)
(2.01324e-07 -0.0334781 0)
(4.78997e-05 -0.0334752 0)
(2.90009e-05 -0.0334703 0)
(-2.85401e-05 -0.0334701 0)
(-4.69952e-05 -0.0334753 0)
(1.99754e-07 -0.0334784 0)
(4.73556e-05 -0.0334753 0)
(2.87006e-05 -0.0334701 0)
(-2.82147e-05 -0.0334699 0)
(-4.64105e-05 -0.0334753 0)
(1.98004e-07 -0.0334786 0)
(4.67685e-05 -0.0334753 0)
(2.83745e-05 -0.0334699 0)
(-2.78691e-05 -0.0334697 0)
(-4.57922e-05 -0.0334754 0)
(1.96107e-07 -0.0334789 0)
(4.61475e-05 -0.0334754 0)
(2.80282e-05 -0.0334697 0)
(-2.75077e-05 -0.0334695 0)
(-4.51477e-05 -0.0334755 0)
(1.94094e-07 -0.0334791 0)
(4.55002e-05 -0.0334755 0)
(2.7666e-05 -0.0334695 0)
(-2.71343e-05 -0.0334694 0)
(-4.44833e-05 -0.0334756 0)
(1.91988e-07 -0.0334793 0)
(4.48328e-05 -0.0334755 0)
(2.72917e-05 -0.0334693 0)
(-2.67521e-05 -0.0334692 0)
(-4.38044e-05 -0.0334756 0)
(1.89811e-07 -0.0334795 0)
(4.41508e-05 -0.0334756 0)
(2.69085e-05 -0.0334691 0)
(-2.63636e-05 -0.033469 0)
(-4.31153e-05 -0.0334757 0)
(1.87578e-07 -0.0334798 0)
(4.34584e-05 -0.0334757 0)
(2.6519e-05 -0.033469 0)
(-2.59708e-05 -0.0334688 0)
(-4.24193e-05 -0.0334758 0)
(1.85303e-07 -0.03348 0)
(4.27591e-05 -0.0334757 0)
(2.61251e-05 -0.0334688 0)
(-2.55755e-05 -0.0334686 0)
(-4.17194e-05 -0.0334758 0)
(1.82997e-07 -0.0334802 0)
(4.20557e-05 -0.0334758 0)
(2.57286e-05 -0.0334686 0)
(-2.51789e-05 -0.0334685 0)
(-4.10178e-05 -0.0334759 0)
(1.80669e-07 -0.0334804 0)
(4.13506e-05 -0.0334759 0)
(2.53309e-05 -0.0334684 0)
(-2.47822e-05 -0.0334683 0)
(-4.03163e-05 -0.033476 0)
(1.78325e-07 -0.0334806 0)
(4.06456e-05 -0.0334759 0)
(2.4933e-05 -0.0334683 0)
(-2.43861e-05 -0.0334681 0)
(-3.96163e-05 -0.033476 0)
(1.75973e-07 -0.0334809 0)
(3.99419e-05 -0.033476 0)
(2.45357e-05 -0.0334681 0)
(-2.39913e-05 -0.033468 0)
(-3.89188e-05 -0.0334761 0)
(1.73614e-07 -0.0334811 0)
(3.92409e-05 -0.0334761 0)
(2.41396e-05 -0.0334679 0)
(-2.35984e-05 -0.0334678 0)
(-3.82247e-05 -0.0334761 0)
(1.71254e-07 -0.0334813 0)
(3.85432e-05 -0.0334761 0)
(2.37454e-05 -0.0334678 0)
(-2.32076e-05 -0.0334676 0)
(-3.75348e-05 -0.0334762 0)
(1.68894e-07 -0.0334815 0)
(3.78495e-05 -0.0334762 0)
(2.33534e-05 -0.0334676 0)
(-2.28193e-05 -0.0334675 0)
(-3.68493e-05 -0.0334763 0)
(1.66536e-07 -0.0334817 0)
(3.71604e-05 -0.0334762 0)
(2.29638e-05 -0.0334674 0)
(-2.24338e-05 -0.0334673 0)
(-3.61688e-05 -0.0334763 0)
(1.64183e-07 -0.0334819 0)
(3.64763e-05 -0.0334763 0)
(2.25769e-05 -0.0334673 0)
(-2.20511e-05 -0.0334672 0)
(-3.54935e-05 -0.0334764 0)
(1.61835e-07 -0.0334821 0)
(3.57973e-05 -0.0334764 0)
(2.21928e-05 -0.0334671 0)
(-2.16714e-05 -0.033467 0)
(-3.48237e-05 -0.0334764 0)
(1.59492e-07 -0.0334822 0)
(3.51237e-05 -0.0334764 0)
(2.18118e-05 -0.033467 0)
(-2.12948e-05 -0.0334669 0)
(-3.41594e-05 -0.0334765 0)
(1.57157e-07 -0.0334824 0)
(3.44557e-05 -0.0334765 0)
(2.14338e-05 -0.0334668 0)
(-2.09213e-05 -0.0334667 0)
(-3.35008e-05 -0.0334766 0)
(1.54829e-07 -0.0334826 0)
(3.37934e-05 -0.0334765 0)
(2.1059e-05 -0.0334667 0)
(-2.05511e-05 -0.0334666 0)
(-3.2848e-05 -0.0334766 0)
(1.5251e-07 -0.0334828 0)
(3.31369e-05 -0.0334766 0)
(2.06874e-05 -0.0334665 0)
(-2.01841e-05 -0.0334664 0)
(-3.2201e-05 -0.0334767 0)
(1.50198e-07 -0.033483 0)
(3.24862e-05 -0.0334766 0)
(2.0319e-05 -0.0334664 0)
(-1.98204e-05 -0.0334663 0)
(-3.15599e-05 -0.0334767 0)
(1.47895e-07 -0.0334832 0)
(3.18414e-05 -0.0334767 0)
(1.99538e-05 -0.0334662 0)
(-1.946e-05 -0.0334661 0)
(-3.09247e-05 -0.0334768 0)
(1.456e-07 -0.0334833 0)
(3.12025e-05 -0.0334768 0)
(1.9592e-05 -0.0334661 0)
(-1.91028e-05 -0.033466 0)
(-3.02955e-05 -0.0334768 0)
(1.43315e-07 -0.0334835 0)
(3.05695e-05 -0.0334768 0)
(1.92334e-05 -0.0334659 0)
(-1.8749e-05 -0.0334659 0)
(-2.96722e-05 -0.0334769 0)
(1.41039e-07 -0.0334837 0)
(2.99425e-05 -0.0334769 0)
(1.88781e-05 -0.0334658 0)
(-1.83985e-05 -0.0334657 0)
(-2.90549e-05 -0.0334769 0)
(1.38772e-07 -0.0334838 0)
(2.93215e-05 -0.0334769 0)
(1.85261e-05 -0.0334657 0)
(-1.80513e-05 -0.0334656 0)
(-2.84436e-05 -0.033477 0)
(1.36514e-07 -0.033484 0)
(2.87064e-05 -0.033477 0)
(1.81775e-05 -0.0334655 0)
(-1.77075e-05 -0.0334655 0)
(-2.78383e-05 -0.033477 0)
(1.34267e-07 -0.0334842 0)
(2.80973e-05 -0.033477 0)
(1.78321e-05 -0.0334654 0)
(-1.7367e-05 -0.0334653 0)
(-2.72389e-05 -0.0334771 0)
(1.32029e-07 -0.0334843 0)
(2.74942e-05 -0.0334771 0)
(1.74901e-05 -0.0334653 0)
(-1.70298e-05 -0.0334652 0)
(-2.66455e-05 -0.0334771 0)
(1.29801e-07 -0.0334845 0)
(2.68971e-05 -0.0334771 0)
(1.71514e-05 -0.0334652 0)
(-1.66959e-05 -0.0334651 0)
(-2.60581e-05 -0.0334772 0)
(1.27583e-07 -0.0334846 0)
(2.6306e-05 -0.0334772 0)
(1.6816e-05 -0.033465 0)
(-1.63653e-05 -0.033465 0)
(-2.54767e-05 -0.0334772 0)
(1.25376e-07 -0.0334848 0)
(2.57208e-05 -0.0334772 0)
(1.64839e-05 -0.0334649 0)
(-1.60381e-05 -0.0334649 0)
(-2.49012e-05 -0.0334773 0)
(1.23179e-07 -0.0334849 0)
(2.51416e-05 -0.0334772 0)
(1.61552e-05 -0.0334648 0)
(-1.57142e-05 -0.0334647 0)
(-2.43318e-05 -0.0334773 0)
(1.20992e-07 -0.033485 0)
(2.45684e-05 -0.0334773 0)
(1.58297e-05 -0.0334647 0)
(-1.53936e-05 -0.0334646 0)
(-2.37682e-05 -0.0334774 0)
(1.18816e-07 -0.0334852 0)
(2.40012e-05 -0.0334773 0)
(1.55076e-05 -0.0334646 0)
(-1.50763e-05 -0.0334645 0)
(-2.32107e-05 -0.0334774 0)
(1.16651e-07 -0.0334853 0)
(2.34399e-05 -0.0334774 0)
(1.51887e-05 -0.0334645 0)
(-1.47623e-05 -0.0334644 0)
(-2.26591e-05 -0.0334775 0)
(1.14497e-07 -0.0334855 0)
(2.28846e-05 -0.0334774 0)
(1.48732e-05 -0.0334643 0)
(-1.44516e-05 -0.0334643 0)
(-2.21135e-05 -0.0334775 0)
(1.12355e-07 -0.0334856 0)
(2.23353e-05 -0.0334775 0)
(1.4561e-05 -0.0334642 0)
(-1.41443e-05 -0.0334642 0)
(-2.15738e-05 -0.0334775 0)
(1.10223e-07 -0.0334857 0)
(2.17919e-05 -0.0334775 0)
(1.4252e-05 -0.0334641 0)
(-1.38402e-05 -0.0334641 0)
(-2.104e-05 -0.0334776 0)
(1.08103e-07 -0.0334858 0)
(2.12544e-05 -0.0334775 0)
(1.39464e-05 -0.033464 0)
(-1.35394e-05 -0.033464 0)
(-2.05122e-05 -0.0334776 0)
(1.05994e-07 -0.033486 0)
(2.07229e-05 -0.0334776 0)
(1.3644e-05 -0.0334639 0)
(-1.32419e-05 -0.0334639 0)
(-1.99903e-05 -0.0334777 0)
(1.03897e-07 -0.0334861 0)
(2.01973e-05 -0.0334776 0)
(1.33449e-05 -0.0334638 0)
(-1.29477e-05 -0.0334638 0)
(-1.94743e-05 -0.0334777 0)
(1.01812e-07 -0.0334862 0)
(1.96776e-05 -0.0334777 0)
(1.30491e-05 -0.0334637 0)
(-1.26568e-05 -0.0334637 0)
(-1.89642e-05 -0.0334777 0)
(9.97383e-08 -0.0334863 0)
(1.91639e-05 -0.0334777 0)
(1.27566e-05 -0.0334636 0)
(-1.23691e-05 -0.0334636 0)
(-1.846e-05 -0.0334778 0)
(9.76771e-08 -0.0334864 0)
(1.8656e-05 -0.0334777 0)
(1.24673e-05 -0.0334635 0)
(-1.20847e-05 -0.0334635 0)
(-1.79617e-05 -0.0334778 0)
(9.56282e-08 -0.0334865 0)
(1.8154e-05 -0.0334778 0)
(1.21813e-05 -0.0334634 0)
(-1.18035e-05 -0.0334634 0)
(-1.74692e-05 -0.0334778 0)
(9.35915e-08 -0.0334866 0)
(1.76579e-05 -0.0334778 0)
(1.18985e-05 -0.0334634 0)
(-1.15256e-05 -0.0334633 0)
(-1.69826e-05 -0.0334779 0)
(9.15674e-08 -0.0334868 0)
(1.71677e-05 -0.0334778 0)
(1.1619e-05 -0.0334633 0)
(-1.12509e-05 -0.0334633 0)
(-1.65019e-05 -0.0334779 0)
(8.95559e-08 -0.0334869 0)
(1.66833e-05 -0.0334779 0)
(1.13427e-05 -0.0334632 0)
(-1.09795e-05 -0.0334632 0)
(-1.6027e-05 -0.0334779 0)
(8.75572e-08 -0.033487 0)
(1.62048e-05 -0.0334779 0)
(1.10697e-05 -0.0334631 0)
(-1.07113e-05 -0.0334631 0)
(-1.55579e-05 -0.033478 0)
(8.55715e-08 -0.0334871 0)
(1.57321e-05 -0.0334779 0)
(1.07998e-05 -0.033463 0)
(-1.04463e-05 -0.033463 0)
(-1.50946e-05 -0.033478 0)
(8.35987e-08 -0.0334871 0)
(1.52652e-05 -0.033478 0)
(1.05332e-05 -0.0334629 0)
(-1.01845e-05 -0.0334629 0)
(-1.46371e-05 -0.033478 0)
(8.16392e-08 -0.0334872 0)
(1.48042e-05 -0.033478 0)
(1.02698e-05 -0.0334629 0)
(-9.92591e-06 -0.0334629 0)
(-1.41854e-05 -0.0334781 0)
(7.9693e-08 -0.0334873 0)
(1.43489e-05 -0.033478 0)
(1.00096e-05 -0.0334628 0)
(-9.67051e-06 -0.0334628 0)
(-1.37394e-05 -0.0334781 0)
(7.77602e-08 -0.0334874 0)
(1.38994e-05 -0.0334781 0)
(9.7526e-06 -0.0334627 0)
(-9.4183e-06 -0.0334627 0)
(-1.32992e-05 -0.0334781 0)
(7.5841e-08 -0.0334875 0)
(1.34556e-05 -0.0334781 0)
(9.49877e-06 -0.0334626 0)
(-9.16926e-06 -0.0334627 0)
(-1.28647e-05 -0.0334782 0)
(7.39356e-08 -0.0334876 0)
(1.30176e-05 -0.0334781 0)
(9.24811e-06 -0.0334626 0)
(-8.92338e-06 -0.0334626 0)
(-1.2436e-05 -0.0334782 0)
(7.2044e-08 -0.0334877 0)
(1.25854e-05 -0.0334781 0)
(9.00062e-06 -0.0334625 0)
(-8.68065e-06 -0.0334625 0)
(-1.20129e-05 -0.0334782 0)
(7.01665e-08 -0.0334877 0)
(1.21588e-05 -0.0334782 0)
(8.75628e-06 -0.0334624 0)
(-8.44106e-06 -0.0334625 0)
(-1.15955e-05 -0.0334782 0)
(6.83031e-08 -0.0334878 0)
(1.17379e-05 -0.0334782 0)
(8.51508e-06 -0.0334624 0)
(-8.20461e-06 -0.0334624 0)
(-1.11838e-05 -0.0334783 0)
(6.64539e-08 -0.0334879 0)
(1.13228e-05 -0.0334782 0)
(8.27702e-06 -0.0334623 0)
(-7.97127e-06 -0.0334623 0)
(-1.07777e-05 -0.0334783 0)
(6.46191e-08 -0.033488 0)
(1.09132e-05 -0.0334783 0)
(8.04208e-06 -0.0334622 0)
(-7.74104e-06 -0.0334623 0)
(-1.03773e-05 -0.0334783 0)
(6.27989e-08 -0.033488 0)
(1.05094e-05 -0.0334783 0)
(7.81025e-06 -0.0334622 0)
(-7.51391e-06 -0.0334622 0)
(-9.98242e-06 -0.0334783 0)
(6.09933e-08 -0.0334881 0)
(1.01111e-05 -0.0334783 0)
(7.58152e-06 -0.0334621 0)
(-7.28987e-06 -0.0334622 0)
(-9.59316e-06 -0.0334784 0)
(5.92025e-08 -0.0334882 0)
(9.71844e-06 -0.0334783 0)
(7.35587e-06 -0.0334621 0)
(-7.0689e-06 -0.0334621 0)
(-9.20946e-06 -0.0334784 0)
(5.74266e-08 -0.0334882 0)
(9.33137e-06 -0.0334783 0)
(7.13331e-06 -0.033462 0)
(-6.85098e-06 -0.0334621 0)
(-8.8313e-06 -0.0334784 0)
(5.56658e-08 -0.0334883 0)
(8.94987e-06 -0.0334784 0)
(6.91381e-06 -0.033462 0)
(-6.63612e-06 -0.033462 0)
(-8.45867e-06 -0.0334784 0)
(5.39201e-08 -0.0334883 0)
(8.57391e-06 -0.0334784 0)
(6.69737e-06 -0.0334619 0)
(-6.42429e-06 -0.033462 0)
(-8.09154e-06 -0.0334784 0)
(5.21897e-08 -0.0334884 0)
(8.20347e-06 -0.0334784 0)
(6.48396e-06 -0.0334619 0)
(-6.21549e-06 -0.0334619 0)
(-7.7299e-06 -0.0334785 0)
(5.04748e-08 -0.0334884 0)
(7.83853e-06 -0.0334784 0)
(6.27359e-06 -0.0334618 0)
(-6.00969e-06 -0.0334619 0)
(-7.3737e-06 -0.0334785 0)
(4.87754e-08 -0.0334885 0)
(7.47908e-06 -0.0334785 0)
(6.06622e-06 -0.0334618 0)
(-5.80689e-06 -0.0334618 0)
(-7.02295e-06 -0.0334785 0)
(4.70916e-08 -0.0334885 0)
(7.12507e-06 -0.0334785 0)
(5.86186e-06 -0.0334617 0)
(-5.60708e-06 -0.0334618 0)
(-6.6776e-06 -0.0334785 0)
(4.54236e-08 -0.0334886 0)
(6.7765e-06 -0.0334785 0)
(5.66049e-06 -0.0334617 0)
(-5.41023e-06 -0.0334617 0)
(-6.33764e-06 -0.0334785 0)
(4.37716e-08 -0.0334886 0)
(6.43335e-06 -0.0334785 0)
(5.4621e-06 -0.0334617 0)
(-5.21633e-06 -0.0334617 0)
(-6.00305e-06 -0.0334786 0)
(4.21355e-08 -0.0334887 0)
(6.09557e-06 -0.0334785 0)
(5.26666e-06 -0.0334616 0)
(-5.02537e-06 -0.0334617 0)
(-5.67379e-06 -0.0334786 0)
(4.05156e-08 -0.0334887 0)
(5.76316e-06 -0.0334785 0)
(5.07417e-06 -0.0334616 0)
(-4.83734e-06 -0.0334616 0)
(-5.34984e-06 -0.0334786 0)
(3.89119e-08 -0.0334888 0)
(5.43609e-06 -0.0334786 0)
(4.88461e-06 -0.0334615 0)
(-4.65221e-06 -0.0334616 0)
(-5.03119e-06 -0.0334786 0)
(3.73246e-08 -0.0334888 0)
(5.11432e-06 -0.0334786 0)
(4.69797e-06 -0.0334615 0)
(-4.46998e-06 -0.0334616 0)
(-4.71779e-06 -0.0334786 0)
(3.57538e-08 -0.0334888 0)
(4.79785e-06 -0.0334786 0)
(4.51423e-06 -0.0334615 0)
(-4.29063e-06 -0.0334615 0)
(-4.40964e-06 -0.0334786 0)
(3.41995e-08 -0.0334889 0)
(4.48663e-06 -0.0334786 0)
(4.33338e-06 -0.0334614 0)
(-4.11415e-06 -0.0334615 0)
(-4.10668e-06 -0.0334787 0)
(3.2662e-08 -0.0334889 0)
(4.18065e-06 -0.0334786 0)
(4.1554e-06 -0.0334614 0)
(-3.94051e-06 -0.0334615 0)
(-3.80892e-06 -0.0334787 0)
(3.11412e-08 -0.0334889 0)
(3.87988e-06 -0.0334786 0)
(3.98028e-06 -0.0334614 0)
(-3.7697e-06 -0.0334615 0)
(-3.5163e-06 -0.0334787 0)
(2.96374e-08 -0.0334889 0)
(3.58428e-06 -0.0334786 0)
(3.808e-06 -0.0334614 0)
(-3.60171e-06 -0.0334614 0)
(-3.22881e-06 -0.0334787 0)
(2.81505e-08 -0.033489 0)
(3.29384e-06 -0.0334787 0)
(3.63854e-06 -0.0334613 0)
(-3.43651e-06 -0.0334614 0)
(-2.94642e-06 -0.0334787 0)
(2.66808e-08 -0.033489 0)
(3.00853e-06 -0.0334787 0)
(3.47189e-06 -0.0334613 0)
(-3.2741e-06 -0.0334614 0)
(-2.6691e-06 -0.0334787 0)
(2.52282e-08 -0.033489 0)
(2.72831e-06 -0.0334787 0)
(3.30804e-06 -0.0334613 0)
(-3.11446e-06 -0.0334614 0)
(-2.39682e-06 -0.0334787 0)
(2.3793e-08 -0.033489 0)
(2.45315e-06 -0.0334787 0)
(3.14696e-06 -0.0334613 0)
(-2.95756e-06 -0.0334614 0)
(-2.12955e-06 -0.0334787 0)
(2.23752e-08 -0.033489 0)
(2.18304e-06 -0.0334787 0)
(2.98864e-06 -0.0334613 0)
(-2.8034e-06 -0.0334613 0)
(-1.86727e-06 -0.0334787 0)
(2.09749e-08 -0.0334891 0)
(1.91793e-06 -0.0334787 0)
(2.83306e-06 -0.0334612 0)
(-2.65195e-06 -0.0334613 0)
(-1.60993e-06 -0.0334788 0)
(1.95921e-08 -0.0334891 0)
(1.65781e-06 -0.0334787 0)
(2.6802e-06 -0.0334612 0)
(-2.5032e-06 -0.0334613 0)
(-1.35751e-06 -0.0334788 0)
(1.82271e-08 -0.0334891 0)
(1.40263e-06 -0.0334787 0)
(2.53006e-06 -0.0334612 0)
(-2.35712e-06 -0.0334613 0)
(-1.10999e-06 -0.0334788 0)
(1.68798e-08 -0.0334891 0)
(1.15237e-06 -0.0334787 0)
(2.3826e-06 -0.0334612 0)
(-2.21371e-06 -0.0334613 0)
(-8.67317e-07 -0.0334788 0)
(1.55503e-08 -0.0334891 0)
(9.07001e-07 -0.0334787 0)
(2.23782e-06 -0.0334612 0)
(-2.07294e-06 -0.0334613 0)
(-6.29476e-07 -0.0334788 0)
(1.42388e-08 -0.0334891 0)
(6.66486e-07 -0.0334787 0)
(2.09569e-06 -0.0334612 0)
(-1.9348e-06 -0.0334613 0)
(-3.9643e-07 -0.0334788 0)
(1.29453e-08 -0.0334891 0)
(4.30796e-07 -0.0334788 0)
(1.9562e-06 -0.0334612 0)
(-1.79926e-06 -0.0334613 0)
(-1.68147e-07 -0.0334788 0)
(1.16699e-08 -0.0334891 0)
(1.99899e-07 -0.0334788 0)
(1.81933e-06 -0.0334612 0)
(-1.66632e-06 -0.0334612 0)
(5.54046e-08 -0.0334788 0)
(1.04127e-08 -0.0334891 0)
(-2.62376e-08 -0.0334788 0)
(1.68506e-06 -0.0334611 0)
(-1.53594e-06 -0.0334612 0)
(2.74259e-07 -0.0334788 0)
(9.17372e-09 -0.0334891 0)
(-2.47646e-07 -0.0334788 0)
(1.55337e-06 -0.0334611 0)
(-1.40811e-06 -0.0334612 0)
(4.88449e-07 -0.0334788 0)
(7.95307e-09 -0.0334891 0)
(-4.64359e-07 -0.0334788 0)
(1.42424e-06 -0.0334611 0)
(-1.28282e-06 -0.0334612 0)
(6.98007e-07 -0.0334788 0)
(6.7508e-09 -0.0334891 0)
(-6.7641e-07 -0.0334788 0)
(1.29766e-06 -0.0334611 0)
(-1.16004e-06 -0.0334612 0)
(9.02968e-07 -0.0334788 0)
(5.56699e-09 -0.0334891 0)
(-8.83833e-07 -0.0334788 0)
(1.1736e-06 -0.0334611 0)
(-1.03975e-06 -0.0334612 0)
(1.10337e-06 -0.0334788 0)
(4.4017e-09 -0.0334891 0)
(-1.08666e-06 -0.0334788 0)
(1.05205e-06 -0.0334611 0)
(-9.21938e-07 -0.0334612 0)
(1.29923e-06 -0.0334788 0)
(3.255e-09 -0.0334891 0)
(-1.28493e-06 -0.0334788 0)
(9.32987e-07 -0.0334611 0)
(-8.06579e-07 -0.0334612 0)
(1.49061e-06 -0.0334788 0)
(2.12694e-09 -0.0334891 0)
(-1.47867e-06 -0.0334788 0)
(8.16392e-07 -0.0334611 0)
(-6.93655e-07 -0.0334612 0)
(1.67752e-06 -0.0334788 0)
(1.01759e-09 -0.0334891 0)
(-1.66792e-06 -0.0334788 0)
(7.02245e-07 -0.0334611 0)
(-5.83146e-07 -0.0334612 0)
(1.86001e-06 -0.0334788 0)
(-7.30032e-11 -0.033489 0)
(-1.85271e-06 -0.0334788 0)
(5.90526e-07 -0.0334611 0)
(-4.75032e-07 -0.0334613 0)
(2.03811e-06 -0.0334788 0)
(-1.14479e-09 -0.033489 0)
(-2.03308e-06 -0.0334788 0)
(4.81216e-07 -0.0334611 0)
(-3.69293e-07 -0.0334613 0)
(2.21186e-06 -0.0334788 0)
(-2.19771e-09 -0.033489 0)
(-2.20906e-06 -0.0334788 0)
(3.74295e-07 -0.0334612 0)
(-2.65908e-07 -0.0334613 0)
(2.38129e-06 -0.0334788 0)
(-3.23172e-09 -0.033489 0)
(-2.3807e-06 -0.0334788 0)
(2.69743e-07 -0.0334612 0)
(-1.64857e-07 -0.0334613 0)
(2.54644e-06 -0.0334788 0)
(-4.24679e-09 -0.033489 0)
(-2.54802e-06 -0.0334788 0)
(1.67538e-07 -0.0334612 0)
(-6.61196e-08 -0.0334613 0)
(2.70734e-06 -0.0334788 0)
(-5.24286e-09 -0.033489 0)
(-2.71106e-06 -0.0334788 0)
(6.7662e-08 -0.0334612 0)
(3.03254e-08 -0.0334613 0)
(2.86403e-06 -0.0334788 0)
(-6.2199e-09 -0.0334889 0)
(-2.86986e-06 -0.0334788 0)
(-2.99071e-08 -0.0334612 0)
(1.24499e-07 -0.0334613 0)
(3.01656e-06 -0.0334788 0)
(-7.17787e-09 -0.0334889 0)
(-3.02445e-06 -0.0334788 0)
(-1.2519e-07 -0.0334612 0)
(2.16421e-07 -0.0334613 0)
(3.16495e-06 -0.0334788 0)
(-8.11674e-09 -0.0334889 0)
(-3.17488e-06 -0.0334788 0)
(-2.18206e-07 -0.0334612 0)
(3.06114e-07 -0.0334613 0)
(3.30925e-06 -0.0334788 0)
(-9.03649e-09 -0.0334889 0)
(-3.32117e-06 -0.0334788 0)
(-3.08978e-07 -0.0334612 0)
(3.93599e-07 -0.0334613 0)
(3.44948e-06 -0.0334788 0)
(-9.93707e-09 -0.0334888 0)
(-3.46337e-06 -0.0334788 0)
(-3.97526e-07 -0.0334612 0)
(4.78897e-07 -0.0334614 0)
(3.5857e-06 -0.0334788 0)
(-1.08185e-08 -0.0334888 0)
(-3.60152e-06 -0.0334788 0)
(-4.83872e-07 -0.0334613 0)
(5.62029e-07 -0.0334614 0)
(3.71793e-06 -0.0334788 0)
(-1.16807e-08 -0.0334888 0)
(-3.73565e-06 -0.0334788 0)
(-5.68036e-07 -0.0334613 0)
(6.43017e-07 -0.0334614 0)
(3.84622e-06 -0.0334788 0)
(-1.25237e-08 -0.0334888 0)
(-3.8658e-06 -0.0334788 0)
(-6.5004e-07 -0.0334613 0)
(7.21884e-07 -0.0334614 0)
(3.97061e-06 -0.0334788 0)
(-1.33474e-08 -0.0334887 0)
(-3.99201e-06 -0.0334788 0)
(-7.29907e-07 -0.0334613 0)
(7.9865e-07 -0.0334614 0)
(4.09112e-06 -0.0334788 0)
(-1.4152e-08 -0.0334887 0)
(-4.11432e-06 -0.0334788 0)
(-8.07657e-07 -0.0334613 0)
(8.73338e-07 -0.0334615 0)
(4.20781e-06 -0.0334788 0)
(-1.49372e-08 -0.0334887 0)
(-4.23276e-06 -0.0334788 0)
(-8.83312e-07 -0.0334613 0)
(9.4597e-07 -0.0334615 0)
(4.32071e-06 -0.0334788 0)
(-1.57033e-08 -0.0334886 0)
(-4.34738e-06 -0.0334788 0)
(-9.56894e-07 -0.0334614 0)
(1.01657e-06 -0.0334615 0)
(4.42987e-06 -0.0334788 0)
(-1.645e-08 -0.0334886 0)
(-4.45822e-06 -0.0334788 0)
(-1.02843e-06 -0.0334614 0)
(1.08515e-06 -0.0334615 0)
(4.53531e-06 -0.0334788 0)
(-1.71775e-08 -0.0334886 0)
(-4.56531e-06 -0.0334788 0)
(-1.09793e-06 -0.0334614 0)
(1.15175e-06 -0.0334615 0)
(4.63708e-06 -0.0334788 0)
(-1.78858e-08 -0.0334885 0)
(-4.66869e-06 -0.0334788 0)
(-1.16543e-06 -0.0334614 0)
(1.21638e-06 -0.0334616 0)
(4.73522e-06 -0.0334788 0)
(-1.85748e-08 -0.0334885 0)
(-4.76841e-06 -0.0334788 0)
(-1.23094e-06 -0.0334615 0)
(1.27907e-06 -0.0334616 0)
(4.82978e-06 -0.0334788 0)
(-1.92446e-08 -0.0334885 0)
(-4.8645e-06 -0.0334788 0)
(-1.29449e-06 -0.0334615 0)
(1.33983e-06 -0.0334616 0)
(4.92078e-06 -0.0334788 0)
(-1.98952e-08 -0.0334884 0)
(-4.957e-06 -0.0334788 0)
(-1.3561e-06 -0.0334615 0)
(1.3987e-06 -0.0334616 0)
(5.00828e-06 -0.0334788 0)
(-2.05266e-08 -0.0334884 0)
(-5.04596e-06 -0.0334787 0)
(-1.4158e-06 -0.0334615 0)
(1.45569e-06 -0.0334617 0)
(5.0923e-06 -0.0334788 0)
(-2.11389e-08 -0.0334883 0)
(-5.13141e-06 -0.0334787 0)
(-1.4736e-06 -0.0334616 0)
(1.51082e-06 -0.0334617 0)
(5.1729e-06 -0.0334788 0)
(-2.1732e-08 -0.0334883 0)
(-5.2134e-06 -0.0334787 0)
(-1.52953e-06 -0.0334616 0)
(1.56413e-06 -0.0334617 0)
(5.25012e-06 -0.0334788 0)
(-2.2306e-08 -0.0334883 0)
(-5.29196e-06 -0.0334787 0)
(-1.58361e-06 -0.0334616 0)
(1.61563e-06 -0.0334617 0)
(5.32398e-06 -0.0334788 0)
(-2.2861e-08 -0.0334882 0)
(-5.36715e-06 -0.0334787 0)
(-1.63587e-06 -0.0334616 0)
(1.66535e-06 -0.0334618 0)
(5.39455e-06 -0.0334788 0)
(-2.33969e-08 -0.0334882 0)
(-5.43899e-06 -0.0334787 0)
(-1.68632e-06 -0.0334617 0)
(1.7133e-06 -0.0334618 0)
(5.46184e-06 -0.0334787 0)
(-2.39138e-08 -0.0334881 0)
(-5.50752e-06 -0.0334787 0)
(-1.735e-06 -0.0334617 0)
(1.75952e-06 -0.0334618 0)
(5.52592e-06 -0.0334787 0)
(-2.44118e-08 -0.0334881 0)
(-5.5728e-06 -0.0334787 0)
(-1.78192e-06 -0.0334617 0)
(1.80402e-06 -0.0334619 0)
(5.58682e-06 -0.0334787 0)
(-2.48909e-08 -0.033488 0)
(-5.63487e-06 -0.0334787 0)
(-1.82711e-06 -0.0334618 0)
(1.84684e-06 -0.0334619 0)
(5.64458e-06 -0.0334787 0)
(-2.53512e-08 -0.033488 0)
(-5.69375e-06 -0.0334787 0)
(-1.87059e-06 -0.0334618 0)
(1.88798e-06 -0.0334619 0)
(5.69924e-06 -0.0334787 0)
(-2.57927e-08 -0.0334879 0)
(-5.7495e-06 -0.0334787 0)
(-1.91238e-06 -0.0334618 0)
(1.92749e-06 -0.033462 0)
(5.75085e-06 -0.0334787 0)
(-2.62155e-08 -0.0334879 0)
(-5.80216e-06 -0.0334787 0)
(-1.95251e-06 -0.0334619 0)
(1.96537e-06 -0.033462 0)
(5.79944e-06 -0.0334787 0)
(-2.66196e-08 -0.0334878 0)
(-5.85177e-06 -0.0334787 0)
(-1.99101e-06 -0.0334619 0)
(2.00166e-06 -0.033462 0)
(5.84506e-06 -0.0334787 0)
(-2.70051e-08 -0.0334878 0)
(-5.89837e-06 -0.0334786 0)
(-2.02789e-06 -0.0334619 0)
(2.03637e-06 -0.0334621 0)
(5.88776e-06 -0.0334787 0)
(-2.73722e-08 -0.0334877 0)
(-5.94201e-06 -0.0334786 0)
(-2.06317e-06 -0.033462 0)
(2.06954e-06 -0.0334621 0)
(5.92757e-06 -0.0334787 0)
(-2.77208e-08 -0.0334877 0)
(-5.98272e-06 -0.0334786 0)
(-2.09689e-06 -0.033462 0)
(2.10118e-06 -0.0334621 0)
(5.96453e-06 -0.0334787 0)
(-2.80511e-08 -0.0334876 0)
(-6.02055e-06 -0.0334786 0)
(-2.12906e-06 -0.033462 0)
(2.13132e-06 -0.0334622 0)
(5.99869e-06 -0.0334786 0)
(-2.83631e-08 -0.0334876 0)
(-6.05554e-06 -0.0334786 0)
(-2.15972e-06 -0.0334621 0)
(2.15998e-06 -0.0334622 0)
(6.0301e-06 -0.0334786 0)
(-2.8657e-08 -0.0334875 0)
(-6.08773e-06 -0.0334786 0)
(-2.18888e-06 -0.0334621 0)
(2.18719e-06 -0.0334622 0)
(6.05878e-06 -0.0334786 0)
(-2.89328e-08 -0.0334875 0)
(-6.11717e-06 -0.0334786 0)
(-2.21656e-06 -0.0334621 0)
(2.21297e-06 -0.0334623 0)
(6.0848e-06 -0.0334786 0)
(-2.91907e-08 -0.0334874 0)
(-6.1439e-06 -0.0334786 0)
(-2.2428e-06 -0.0334622 0)
(2.23735e-06 -0.0334623 0)
(6.10818e-06 -0.0334786 0)
(-2.94307e-08 -0.0334874 0)
(-6.16796e-06 -0.0334786 0)
(-2.26761e-06 -0.0334622 0)
(2.26034e-06 -0.0334623 0)
(6.12897e-06 -0.0334786 0)
(-2.96529e-08 -0.0334873 0)
(-6.18939e-06 -0.0334786 0)
(-2.29102e-06 -0.0334623 0)
(2.28197e-06 -0.0334624 0)
(6.14722e-06 -0.0334786 0)
(-2.98575e-08 -0.0334873 0)
(-6.20824e-06 -0.0334786 0)
(-2.31305e-06 -0.0334623 0)
(2.30228e-06 -0.0334624 0)
(6.16296e-06 -0.0334786 0)
(-3.00446e-08 -0.0334872 0)
(-6.22456e-06 -0.0334785 0)
(-2.33374e-06 -0.0334623 0)
(2.32127e-06 -0.0334625 0)
(6.17625e-06 -0.0334786 0)
(-3.02143e-08 -0.0334872 0)
(-6.23837e-06 -0.0334785 0)
(-2.35309e-06 -0.0334624 0)
(2.33898e-06 -0.0334625 0)
(6.18712e-06 -0.0334786 0)
(-3.03667e-08 -0.0334871 0)
(-6.24973e-06 -0.0334785 0)
(-2.37114e-06 -0.0334624 0)
(2.35543e-06 -0.0334625 0)
(6.19561e-06 -0.0334785 0)
(-3.0502e-08 -0.033487 0)
(-6.25868e-06 -0.0334785 0)
(-2.38791e-06 -0.0334624 0)
(2.37064e-06 -0.0334626 0)
(6.20177e-06 -0.0334785 0)
(-3.06203e-08 -0.033487 0)
(-6.26527e-06 -0.0334785 0)
(-2.40342e-06 -0.0334625 0)
(2.38464e-06 -0.0334626 0)
(6.20565e-06 -0.0334785 0)
(-3.07217e-08 -0.0334869 0)
(-6.26952e-06 -0.0334785 0)
(-2.4177e-06 -0.0334625 0)
(2.39745e-06 -0.0334627 0)
(6.20728e-06 -0.0334785 0)
(-3.08065e-08 -0.0334869 0)
(-6.2715e-06 -0.0334785 0)
(-2.43077e-06 -0.0334626 0)
(2.40909e-06 -0.0334627 0)
(6.2067e-06 -0.0334785 0)
(-3.08746e-08 -0.0334868 0)
(-6.27124e-06 -0.0334785 0)
(-2.44266e-06 -0.0334626 0)
(2.4196e-06 -0.0334627 0)
(6.20397e-06 -0.0334785 0)
(-3.09264e-08 -0.0334868 0)
(-6.26878e-06 -0.0334785 0)
(-2.45339e-06 -0.0334626 0)
(2.42899e-06 -0.0334628 0)
(6.19912e-06 -0.0334785 0)
(-3.09619e-08 -0.0334867 0)
(-6.26417e-06 -0.0334784 0)
(-2.46298e-06 -0.0334627 0)
(2.43729e-06 -0.0334628 0)
(6.1922e-06 -0.0334785 0)
(-3.09813e-08 -0.0334866 0)
(-6.25746e-06 -0.0334784 0)
(-2.47146e-06 -0.0334627 0)
(2.44452e-06 -0.0334629 0)
(6.18325e-06 -0.0334785 0)
(-3.09848e-08 -0.0334866 0)
(-6.24867e-06 -0.0334784 0)
(-2.47886e-06 -0.0334628 0)
(2.4507e-06 -0.0334629 0)
(6.17231e-06 -0.0334784 0)
(-3.09726e-08 -0.0334865 0)
(-6.23787e-06 -0.0334784 0)
(-2.48519e-06 -0.0334628 0)
(2.45587e-06 -0.0334629 0)
(6.15942e-06 -0.0334784 0)
(-3.09448e-08 -0.0334865 0)
(-6.22508e-06 -0.0334784 0)
(-2.49049e-06 -0.0334628 0)
(2.46004e-06 -0.033463 0)
(6.14464e-06 -0.0334784 0)
(-3.09016e-08 -0.0334864 0)
(-6.21036e-06 -0.0334784 0)
(-2.49477e-06 -0.0334629 0)
(2.46324e-06 -0.033463 0)
(6.12799e-06 -0.0334784 0)
(-3.08433e-08 -0.0334864 0)
(-6.19375e-06 -0.0334784 0)
(-2.49806e-06 -0.0334629 0)
(2.4655e-06 -0.0334631 0)
(6.10953e-06 -0.0334784 0)
(-3.07699e-08 -0.0334863 0)
(-6.17528e-06 -0.0334784 0)
(-2.50038e-06 -0.033463 0)
(2.46683e-06 -0.0334631 0)
(6.08929e-06 -0.0334784 0)
(-3.06818e-08 -0.0334862 0)
(-6.15501e-06 -0.0334784 0)
(-2.50176e-06 -0.033463 0)
(2.46726e-06 -0.0334631 0)
(6.06733e-06 -0.0334784 0)
(-3.0579e-08 -0.0334862 0)
(-6.13298e-06 -0.0334783 0)
(-2.50223e-06 -0.033463 0)
(2.46681e-06 -0.0334632 0)
(6.04368e-06 -0.0334784 0)
(-3.04619e-08 -0.0334861 0)
(-6.10923e-06 -0.0334783 0)
(-2.5018e-06 -0.0334631 0)
(2.46552e-06 -0.0334632 0)
(6.01838e-06 -0.0334784 0)
(-3.03307e-08 -0.0334861 0)
(-6.0838e-06 -0.0334783 0)
(-2.5005e-06 -0.0334631 0)
(2.4634e-06 -0.0334633 0)
(5.99148e-06 -0.0334783 0)
(-3.01854e-08 -0.033486 0)
(-6.05673e-06 -0.0334783 0)
(-2.49836e-06 -0.0334632 0)
(2.46047e-06 -0.0334633 0)
(5.96302e-06 -0.0334783 0)
(-3.00265e-08 -0.033486 0)
(-6.02807e-06 -0.0334783 0)
(-2.49539e-06 -0.0334632 0)
(2.45677e-06 -0.0334633 0)
(5.93305e-06 -0.0334783 0)
(-2.98541e-08 -0.0334859 0)
(-5.99786e-06 -0.0334783 0)
(-2.49163e-06 -0.0334633 0)
(2.45231e-06 -0.0334634 0)
(5.90159e-06 -0.0334783 0)
(-2.96684e-08 -0.0334858 0)
(-5.96615e-06 -0.0334783 0)
(-2.4871e-06 -0.0334633 0)
(2.44712e-06 -0.0334634 0)
(5.86871e-06 -0.0334783 0)
(-2.94696e-08 -0.0334858 0)
(-5.93298e-06 -0.0334783 0)
(-2.48181e-06 -0.0334633 0)
(2.44122e-06 -0.0334635 0)
(5.83444e-06 -0.0334783 0)
(-2.92582e-08 -0.0334857 0)
(-5.89838e-06 -0.0334782 0)
(-2.4758e-06 -0.0334634 0)
(2.43464e-06 -0.0334635 0)
(5.79882e-06 -0.0334783 0)
(-2.90341e-08 -0.0334857 0)
(-5.8624e-06 -0.0334782 0)
(-2.46909e-06 -0.0334634 0)
(2.4274e-06 -0.0334635 0)
(5.76189e-06 -0.0334783 0)
(-2.87978e-08 -0.0334856 0)
(-5.82509e-06 -0.0334782 0)
(-2.4617e-06 -0.0334635 0)
(2.41952e-06 -0.0334636 0)
(5.7237e-06 -0.0334782 0)
(-2.85495e-08 -0.0334856 0)
(-5.78649e-06 -0.0334782 0)
(-2.45366e-06 -0.0334635 0)
(2.41102e-06 -0.0334636 0)
(5.68428e-06 -0.0334782 0)
(-2.82894e-08 -0.0334855 0)
(-5.74664e-06 -0.0334782 0)
(-2.44499e-06 -0.0334635 0)
(2.40194e-06 -0.0334637 0)
(5.64369e-06 -0.0334782 0)
(-2.80179e-08 -0.0334854 0)
(-5.70557e-06 -0.0334782 0)
(-2.43571e-06 -0.0334636 0)
(2.3923e-06 -0.0334637 0)
(5.60196e-06 -0.0334782 0)
(-2.77352e-08 -0.0334854 0)