/*--------------------------------*- C++ -*----------------------------------*\
| =========                 |                                                 |
| \\      /  F ield         | OpenFOAM: The Open Source CFD Toolbox           |
|  \\    /   O peration     | Version:  2.4.0                                 |
|   \\  /    A nd           | Web:      www.OpenFOAM.org                      |
|    \\/     M anipulation  |                                                 |
\*---------------------------------------------------------------------------*/
FoamFile
{
    version     2.0;
    format      ascii;
    class       volScalarField;
    location    "0.01";
    object      H;
}
// * * * * * * * * * * * * * * * * * * * * * * * * * * * * * * * * * * * * * //

dimensions      [0 2 -2 0 0 0 0];

internalField   nonuniform List<scalar> 
125
(
-10633.7
-7432.31
-4210.11
-107.703
-80.5889
-80.7908
-80.8912
-80.8916
-80.7937
-80.5993
-80.3105
-79.9297
-79.4592
-78.902
-78.2607
-77.5383
-76.7382
-75.8635
-74.9177
-73.9043
-72.827
-71.6895
-70.4955
-69.249
-67.9538
-66.6138
-65.2329
-63.8152
-62.3645
-60.8848
-59.3798
-57.8536
-56.3097
-54.752
-53.184
-51.6092
-50.0311
-48.453
-46.8781
-45.3095
-43.7501
-42.2027
-40.67
-39.1546
-37.6587
-36.1846
-34.7344
-33.3099
-31.9129
-30.5451
-1.56668e-07
-1.28756e-07
-1.0566e-07
-8.65916e-08
-7.08592e-08
-5.78979e-08
-4.72265e-08
-3.8485e-08
-3.13021e-08
-2.54163e-08
-2.06181e-08
-1.66975e-08
-1.34916e-08
-1.08959e-08
-8.77146e-09
-7.06734e-09
-5.66842e-09
-4.54082e-09
-3.64457e-09
-2.90679e-09
-2.3275e-09
-1.81795e-09
-1.47979e-09
-1.18916e-09
-8.89233e-10
-7.49932e-10
-5.67347e-10
-4.65875e-10
-3.64243e-10
-2.62003e-10
-2.61435e-10
-1.49754e-10
-1.58013e-10
-1.13879e-10
-4.98248e-11
-5.60319e-11
-4.9134e-11
-5.34135e-11
-4.94128e-11
-5.00134e-11
-4.95409e-11
-2.21234e-11
6.80695e-13
1.42899e-12
1.75208e-13
-6.26595e-14
-2.13681e-14
4.73987e-16
1.40104e-15
1.89663e-16
-5.56502e-17
-1.97353e-17
3.47195e-19
1.20262e-18
1.54818e-19
-4.6141e-20
-1.52144e-20
4.26955e-22
8.8806e-22
9.73112e-23
-3.40871e-23
-9.55395e-24
5.23959e-25
5.51988e-25
4.26301e-26
-2.2061e-26
-4.74473e-27
4.97887e-28
2.83608e-28
9.33315e-30
-1.20575e-29
-1.77329e-30
3.47209e-31
1.13439e-31
-1.24403e-32
)
;

boundaryField
{
    BotWall
    {
        type            zeroGradient;
    }
    FreeStream
    {
        type            zeroGradient;
    }
    FrontNBack
    {
        type            empty;
    }
    LeftSide
    {
        type            symmetryPlane;
    }
    RightSide
    {
        type            symmetryPlane;
    }
    procBoundary2to0
    {
        type            processor;
        value           nonuniform List<scalar> 
75
(
-1.51383e-07
-1.24432e-07
-1.02111e-07
-8.36969e-08
-6.84966e-08
-5.59763e-08
-4.56561e-08
-3.72126e-08
-3.02736e-08
-2.4583e-08
-1.99433e-08
-1.61505e-08
-1.3058e-08
-1.0539e-08
-8.49122e-09
-6.83547e-09
-5.48911e-09
-4.39884e-09
-3.51949e-09
-2.83086e-09
-2.2239e-09
-1.81589e-09
-1.39922e-09
-1.14152e-09
-8.82552e-10
-6.91006e-10
-5.70596e-10
-4.64347e-10
-3.61273e-10
-2.57961e-10
-2.25685e-10
-1.52371e-10
-1.58558e-10
-1.00666e-10
-4.99124e-11
-5.77988e-11
-4.98322e-11
-5.48616e-11
-4.75839e-11
-5.14241e-11
-4.9674e-11
-1.57871e-11
1.60184e-12
1.22042e-12
1.02088e-13
-6.2446e-14
-1.72118e-14
1.10701e-15
1.24939e-15
1.28569e-16
-5.58223e-17
-1.61755e-17
8.74981e-19
1.0732e-18
1.06015e-19
-4.57952e-20
-1.24439e-20
7.95925e-22
7.89299e-22
6.43235e-23
-3.33051e-23
-7.75343e-24
7.1342e-25
4.85392e-25
2.51387e-26
-2.08938e-26
-3.76227e-27
5.54996e-28
2.43558e-28
2.21048e-30
-1.09797e-29
-1.33069e-30
3.4531e-31
9.3874e-32
-1.34985e-32
)
;
    }
    procBoundary2to1
    {
        type            processor;
        value           uniform -29.2072;
    }
    procBoundary2to3
    {
        type            processor;
        value           uniform -1.90399e-07;
    }
    procBoundary2to4
    {
        type            processor;
        value           nonuniform List<scalar> 
75
(
-10630.5
-7422.54
-4193.88
-105.677
-79.0469
-79.2268
-79.3096
-79.2966
-79.1894
-78.9898
-78.6998
-78.3216
-77.8575
-77.3102
-76.6822
-75.9766
-75.1963
-74.3443
-73.4241
-72.4389
-71.3921
-70.2874
-69.1283
-67.9185
-66.6616
-65.3615
-64.0218
-62.6463
-61.2387
-59.8029
-58.3424
-56.8609
-55.3621
-53.8494
-52.3263
-50.7962
-49.2623
-47.7279
-46.1961
-44.6697
-43.1517
-41.6447
-40.1512
-38.6739
-37.2148
-35.7763
-34.3602
-32.9685
-31.6029
-30.2649
-6.12019e-24
-2.4468e-24
8.07742e-26
2.34392e-25
3.3588e-26
-1.21842e-26
-4.2252e-27
2.20885e-28
3.14448e-28
3.08342e-29
-1.53819e-29
-4.04898e-30
3.45651e-31
2.79114e-31
1.79708e-32
-1.2807e-32
-2.5779e-33
3.46004e-34
1.73343e-34
3.18827e-36
-8.19554e-36
-1.0956e-36
2.68879e-37
7.94443e-38
-1.13786e-38
)
;
    }
    procBoundary2to5
    {
        type            processor;
        value           nonuniform List<scalar> 
50
(
-1.57038e-07
-1.29067e-07
-1.05914e-07
-8.67982e-08
-7.10304e-08
-5.8039e-08
-4.73485e-08
-3.85699e-08
-3.13785e-08
-2.5483e-08
-2.06667e-08
-1.67366e-08
-1.35272e-08
-1.09178e-08
-8.79963e-09
-7.08424e-09
-5.68217e-09
-4.55127e-09
-3.65644e-09
-2.91655e-09
-2.32486e-09
-1.8245e-09
-1.48704e-09
-1.19171e-09
-8.89978e-10
-7.55636e-10
-5.67467e-10
-4.65856e-10
-3.63856e-10
-2.62805e-10
-2.62028e-10
-1.53348e-10
-1.53197e-10
-1.15422e-10
-5.34542e-11
-5.2904e-11
-4.95895e-11
-5.52378e-11
-5.44438e-11
-4.52365e-11
-4.9502e-11
-2.2412e-11
7.84677e-13
1.42487e-12
1.69911e-13
-6.42289e-14
-2.16306e-14
5.02004e-16
1.44054e-15
2.32976e-16
)
;
    }
}


// ************************************************************************* //
