/*--------------------------------*- C++ -*----------------------------------*\
| =========                 |                                                 |
| \\      /  F ield         | OpenFOAM: The Open Source CFD Toolbox           |
|  \\    /   O peration     | Version:  2.4.0                                 |
|   \\  /    A nd           | Web:      www.OpenFOAM.org                      |
|    \\/     M anipulation  |                                                 |
\*---------------------------------------------------------------------------*/
FoamFile
{
    version     2.0;
    format      ascii;
    class       volScalarField;
    location    "0.01";
    object      p_rgh;
}
// * * * * * * * * * * * * * * * * * * * * * * * * * * * * * * * * * * * * * //

dimensions      [1 -1 -2 0 0 0 0];

internalField   nonuniform List<scalar> 
125
(
0.0515093
-0.0288851
0.220017
-1.09176
-0.141681
0.0358542
0.0117016
-0.00670629
-0.0103271
-0.00941659
-0.00870667
-0.00856223
-0.00858463
-0.00859836
-0.00859024
-0.00857578
-0.00856165
-0.0085483
-0.00853515
-0.00852193
-0.00850863
-0.00849527
-0.00848186
-0.00846841
-0.00845491
-0.00844136
-0.00842776
-0.00841411
-0.0084004
-0.00838665
-0.00837285
-0.008359
-0.0083451
-0.00833115
-0.00831714
-0.00830309
-0.00828898
-0.00827482
-0.00826061
-0.00824635
-0.00823204
-0.00821767
-0.00820325
-0.00818878
-0.00817425
-0.00815968
-0.00814504
-0.00813036
-0.00811561
-0.00810079
-0.00443196
-0.00440372
-0.00437538
-0.00434693
-0.00431839
-0.00428973
-0.00426097
-0.00423211
-0.00420314
-0.00417407
-0.00414488
-0.00411559
-0.00408619
-0.00405669
-0.00402707
-0.00399735
-0.00396751
-0.00393757
-0.00390752
-0.00387735
-0.00384708
-0.00381669
-0.0037862
-0.00375559
-0.00372486
-0.00369403
-0.00366308
-0.00363201
-0.00360084
-0.00356955
-0.00353814
-0.00350662
-0.00347498
-0.00344322
-0.00341135
-0.00337936
-0.00334726
-0.00331503
-0.00328269
-0.00325023
-0.00321765
-0.00318495
-0.00315212
-0.00311918
-0.00308612
-0.00305294
-0.00301963
-0.0029862
-0.00295265
-0.00291897
-0.00288517
-0.00285125
-0.0028172
-0.00278303
-0.00274873
-0.00271431
-0.00267975
-0.00264508
-0.00261027
-0.00257534
-0.00254027
-0.00250508
-0.00246976
-0.00243431
-0.00239873
-0.00236302
-0.00232718
-0.0022912
-0.0022551
-0.00221886
-0.00218249
-0.00214599
-0.00210936
-0.00207258
-0.00203547
)
;

boundaryField
{
    BotWall
    {
        type            fixedFluxPressure;
        gradient        uniform 0;
        value           uniform 0.0515093;
    }
    FreeStream
    {
        type            totalPressure;
        rho             rho;
        psi             none;
        gamma           1;
        p0              uniform 0;
        value           uniform -0.00201681;
    }
    FrontNBack
    {
        type            empty;
    }
    LeftSide
    {
        type            symmetryPlane;
    }
    RightSide
    {
        type            symmetryPlane;
    }
    procBoundary2to0
    {
        type            processor;
        value           nonuniform List<scalar> 
75
(
-0.0044343
-0.004406
-0.00437761
-0.00434911
-0.00432051
-0.0042918
-0.00426298
-0.00423406
-0.00420503
-0.0041759
-0.00414666
-0.00411732
-0.00408786
-0.0040583
-0.00402863
-0.00399885
-0.00396896
-0.00393896
-0.00390885
-0.00387863
-0.0038483
-0.00381786
-0.00378731
-0.00375664
-0.00372586
-0.00369497
-0.00366397
-0.00363285
-0.00360161
-0.00357027
-0.0035388
-0.00350723
-0.00347553
-0.00344372
-0.00341179
-0.00337975
-0.00334759
-0.00331531
-0.00328291
-0.00325039
-0.00321775
-0.003185
-0.00315212
-0.00311912
-0.003086
-0.00305276
-0.00301939
-0.00298591
-0.0029523
-0.00291856
-0.00288471
-0.00285073
-0.00281662
-0.00278239
-0.00274803
-0.00271354
-0.00267893
-0.0026442
-0.00260933
-0.00257433
-0.00253921
-0.00250396
-0.00246858
-0.00243306
-0.00239742
-0.00236165
-0.00232574
-0.0022897
-0.00225353
-0.00221723
-0.00218079
-0.00214422
-0.00210752
-0.00207067
-0.0020336
)
;
    }
    procBoundary2to1
    {
        type            processor;
        value           uniform -0.00808592;
    }
    procBoundary2to3
    {
        type            processor;
        value           uniform -0.0044601;
    }
    procBoundary2to4
    {
        type            processor;
        value           nonuniform List<scalar> 
75
(
0.0532177
-0.0283073
0.225093
-1.10922
-0.143599
0.0363613
0.0119128
-0.00667337
-0.0103254
-0.00940474
-0.00868826
-0.00854283
-0.00856571
-0.00857978
-0.00857179
-0.0085574
-0.00854334
-0.00853008
-0.00851701
-0.00850387
-0.00849065
-0.00847738
-0.00846406
-0.00845069
-0.00843726
-0.0084238
-0.00841028
-0.00839671
-0.00838309
-0.00836941
-0.00835569
-0.00834192
-0.0083281
-0.00831422
-0.0083003
-0.00828632
-0.00827229
-0.00825821
-0.00824408
-0.00822989
-0.00821566
-0.00820137
-0.00818702
-0.00817263
-0.00815818
-0.00814367
-0.00812912
-0.00811451
-0.00809984
-0.00808512
-0.00288466
-0.00285076
-0.00281673
-0.00278257
-0.00274829
-0.00271388
-0.00267935
-0.00264469
-0.00260991
-0.00257499
-0.00253995
-0.00250478
-0.00246948
-0.00243404
-0.00239848
-0.00236279
-0.00232697
-0.00229101
-0.00225493
-0.00221871
-0.00218236
-0.00214588
-0.00210927
-0.00207251
-0.00203541
)
;
    }
    procBoundary2to5
    {
        type            processor;
        value           nonuniform List<scalar> 
50
(
-0.00443058
-0.00440236
-0.00437404
-0.00434561
-0.00431708
-0.00428844
-0.0042597
-0.00423085
-0.00420189
-0.00417283
-0.00414367
-0.00411439
-0.00408501
-0.00405552
-0.00402592
-0.00399621
-0.00396639
-0.00393647
-0.00390643
-0.00387628
-0.00384603
-0.00381566
-0.00378518
-0.00375458
-0.00372388
-0.00369306
-0.00366213
-0.00363108
-0.00359992
-0.00356865
-0.00353726
-0.00350576
-0.00347414
-0.0034424
-0.00341055
-0.00337857
-0.00334649
-0.00331428
-0.00328196
-0.00324951
-0.00321695
-0.00318427
-0.00315147
-0.00311854
-0.0030855
-0.00305233
-0.00301905
-0.00298564
-0.0029521
-0.00291844
)
;
    }
}


// ************************************************************************* //
