/*--------------------------------*- C++ -*----------------------------------*\
| =========                 |                                                 |
| \\      /  F ield         | OpenFOAM: The Open Source CFD Toolbox           |
|  \\    /   O peration     | Version:  2.4.0                                 |
|   \\  /    A nd           | Web:      www.OpenFOAM.org                      |
|    \\/     M anipulation  |                                                 |
\*---------------------------------------------------------------------------*/
FoamFile
{
    version     2.0;
    format      ascii;
    class       volScalarField;
    location    "0.001";
    object      alpha1;
}
// * * * * * * * * * * * * * * * * * * * * * * * * * * * * * * * * * * * * * //

dimensions      [0 0 0 0 0 0 0];

internalField   nonuniform List<scalar> 
125
(
1
0.0485968
1.35478e-42
7.96746e-49
3.31378e-55
1.21104e-61
4.36196e-68
1.55938e-74
5.16288e-81
1.47459e-87
3.61239e-94
7.78918e-101
1.38968e-107
2.03111e-114
2.39698e-121
2.23443e-128
1.5912e-135
8.22358e-143
2.84014e-150
5.63301e-158
4.42186e-166
3.73695e-177
1.82524e-185
1.95458e-193
0
0
0
0
0
0
0
0
0
0
0
0
0
0
0
0
0
0
0
0
0
0
0
0
0
0
0
0
0
0
0
0
0
0
0
0
0
0
0
0
0
0
0
0
0
0
0
0
0
0
0
0
0
0
0
0
0
0
0
0
0
0
0
0
0
0
0
0
0
0
0
0
0
0
0
0
0
0
0
0
0
0
0
0
0
0
0
0
0
0
0
0
0
0
0
0
0
0
0
0
0
)
;

boundaryField
{
    BotWall
    {
        type            fixedValue;
        value           uniform 1;
    }
    FreeStream
    {
        type            inletOutlet;
        inletValue      uniform 0;
        value           uniform 0;
    }
    FrontNBack
    {
        type            empty;
    }
    LeftSide
    {
        type            symmetryPlane;
    }
    RightSide
    {
        type            symmetryPlane;
    }
    procBoundary9to6
    {
        type            processor;
        value           uniform 0;
    }
    procBoundary9to7
    {
        type            processor;
        value           nonuniform List<scalar> 
75
(
1
0.0485967
3.98073e-47
4.07014e-53
4.68254e-59
5.35995e-65
5.90795e-71
5.81568e-77
4.93367e-83
3.58243e-89
2.23349e-95
1.20082e-101
5.58219e-108
2.24373e-114
7.77395e-121
2.30659e-127
5.79858e-134
1.21559e-140
2.07621e-147
2.79105e-154
2.79816e-161
1.90755e-168
7.31719e-176
8.88208e-184
0
0
0
0
0
0
0
0
0
0
0
0
0
0
0
0
0
0
0
0
0
0
0
0
0
0
0
0
0
0
0
0
0
0
0
0
0
0
0
0
0
0
0
0
0
0
0
0
0
0
0
)
;
    }
    procBoundary9to8
    {
        type            processor;
        value           uniform 0;
    }
    procBoundary9to10
    {
        type            processor;
        value           uniform 0;
    }
    procBoundary9to11
    {
        type            processor;
        value           nonuniform List<scalar> 
75
(
1
0.0485965
2.26506e-45
4.09292e-53
1.95692e-59
8.06651e-66
3.15372e-72
1.19012e-78
4.08016e-85
1.19096e-91
2.9554e-98
6.41834e-105
1.15133e-111
1.69768e-118
2.04759e-125
2.01718e-132
1.64472e-139
1.1628e-146
7.66313e-154
4.71673e-161
2.33141e-168
7.05873e-176
7.43582e-184
1.32183e-197
0
0
0
0
0
0
0
0
0
0
0
0
0
0
0
0
0
0
0
0
0
0
0
0
0
0
0
0
0
0
0
0
0
0
0
0
0
0
0
0
0
0
0
0
0
0
0
0
0
0
0
)
;
    }
}


// ************************************************************************* //
