/*--------------------------------*- C++ -*----------------------------------*\
| =========                 |                                                 |
| \\      /  F ield         | OpenFOAM: The Open Source CFD Toolbox           |
|  \\    /   O peration     | Version:  2.4.0                                 |
|   \\  /    A nd           | Web:      www.OpenFOAM.org                      |
|    \\/     M anipulation  |                                                 |
\*---------------------------------------------------------------------------*/
FoamFile
{
    version     2.0;
    format      ascii;
    class       volScalarField;
    location    "0.001";
    object      H;
}
// * * * * * * * * * * * * * * * * * * * * * * * * * * * * * * * * * * * * * //

dimensions      [0 2 -2 0 0 0 0];

internalField   nonuniform List<scalar> 
125
(
-9724.3
-1306.53
-1050.18
-1050.22
-1036.62
-1010.86
-974.59
-929.565
-877.561
-820.335
-759.568
-696.825
-633.524
-570.91
-510.043
-451.79
-396.832
-345.663
-298.615
-255.863
-217.453
-183.317
-153.299
-127.173
-104.66
-85.4509
-69.2186
-55.6315
-44.3645
-35.1074
-27.5705
-21.4891
-16.6253
-12.7691
-9.73782
-7.37492
-5.54814
-4.14711
-3.08096
-2.27573
-1.67195
-1.22234
-0.889703
-0.645102
-0.466238
-0.3361
-0.241832
-0.173801
-0.124853
-0.0897123
-0.0645201
-0.0464703
-0.0335348
-0.0242554
-0.0175873
-0.0127849
-0.00931676
-0.0068047
-0.00497955
-0.00364945
-0.00267742
-0.00196533
-0.00144262
-0.00105838
-0.000775681
-0.000567627
-0.000414556
-0.000302035
-0.000219438
-0.000158922
-0.000114688
-8.24454e-05
-5.90182e-05
-4.20562e-05
-2.98231e-05
2.04492e-123
-1.55604e-123
2.7106e-124
4.44754e-125
2.16654e-126
9.81988e-128
2.3138e-128
3.23275e-129
2.62266e-130
2.07901e-131
2.38433e-132
2.71519e-133
2.56405e-134
2.32829e-135
2.31519e-136
2.34896e-137
2.25698e-138
2.11121e-139
2.00547e-140
1.91737e-141
1.80288e-142
1.6699e-143
1.54162e-144
1.41963e-145
1.2964e-146
1.17253e-147
1.05309e-148
9.40128e-150
8.33255e-151
7.32723e-152
6.39521e-153
5.54216e-154
4.76804e-155
4.07136e-156
3.45053e-157
2.90279e-158
2.42395e-159
2.00902e-160
1.65268e-161
1.3494e-162
1.09355e-163
8.79586e-165
7.02184e-166
5.5636e-167
4.37513e-168
3.41471e-169
2.6451e-170
2.03355e-171
1.55316e-172
1.33044e-173
)
;

boundaryField
{
    BotWall
    {
        type            zeroGradient;
    }
    FreeStream
    {
        type            zeroGradient;
    }
    FrontNBack
    {
        type            empty;
    }
    LeftSide
    {
        type            symmetryPlane;
    }
    RightSide
    {
        type            symmetryPlane;
    }
    procBoundary9to6
    {
        type            processor;
        value           nonuniform List<scalar> 
50
(
-85.455
-69.222
-55.6343
-44.3668
-35.1092
-27.572
-21.4902
-16.6262
-12.7697
-9.73826
-7.37523
-5.54835
-4.14725
-3.08104
-2.27577
-1.67197
-1.22234
-0.889699
-0.645094
-0.466229
-0.336092
-0.241825
-0.173797
-0.12485
-0.0897109
-0.0645199
-0.0464709
-0.0335361
-0.024257
-0.017589
-0.0127866
-0.00931839
-0.00680619
-0.00498085
-0.00365058
-0.00267837
-0.00196611
-0.00144326
-0.00105889
-0.000776083
-0.000567941
-0.000414798
-0.000302221
-0.000219579
-0.000159028
-0.000114767
-8.25039e-05
-5.9061e-05
-4.20873e-05
-2.98454e-05
)
;
    }
    procBoundary9to7
    {
        type            processor;
        value           nonuniform List<scalar> 
75
(
-9724.3
-1306.54
-1050.19
-1050.22
-1036.62
-1010.86
-974.596
-929.572
-877.569
-820.344
-759.577
-696.836
-633.535
-570.921
-510.054
-451.801
-396.842
-345.673
-298.624
-255.872
-217.461
-183.324
-153.306
-127.178
-104.665
3.03704e-121
3.21894e-122
3.3891e-123
3.54444e-124
3.68202e-125
3.79911e-126
3.89327e-127
3.96246e-128
4.00513e-129
4.02025e-130
4.00735e-131
3.96655e-132
3.89855e-133
3.80465e-134
3.68667e-135
3.54688e-136
3.38798e-137
3.21296e-138
3.02504e-139
2.82753e-140
2.62379e-141
2.41707e-142
2.21046e-143
2.0068e-144
1.80866e-145
1.61822e-146
1.43731e-147
1.26735e-148
1.10939e-149
9.64104e-151
8.31815e-152
7.12532e-153
6.06001e-154
5.11748e-155
4.29116e-156
3.57318e-157
2.95479e-158
2.42674e-159
1.97962e-160
1.60416e-161
1.29139e-162
1.03292e-163
8.20968e-165
6.4847e-166
5.09117e-167
3.97347e-168
3.08326e-169
2.37906e-170
1.82763e-171
1.58527e-172
)
;
    }
    procBoundary9to8
    {
        type            processor;
        value           uniform -2.10378e-05;
    }
    procBoundary9to10
    {
        type            processor;
        value           uniform 4.56155e-121;
    }
    procBoundary9to11
    {
        type            processor;
        value           nonuniform List<scalar> 
75
(
-9724.3
-1306.54
-1050.19
-1050.23
-1036.62
-1010.86
-974.596
-929.572
-877.569
-820.344
-759.577
-696.835
-633.535
-570.921
-510.054
-451.801
-396.842
-345.674
-298.625
-255.872
-217.461
-183.325
-153.307
-127.179
-104.666
-85.456
-69.223
-55.6353
-44.3678
-35.1101
-27.5728
-21.491
-16.6269
-12.7704
-9.73886
-7.37576
-5.54881
-4.14764
-3.08138
-2.27605
-1.6722
-1.22253
-0.889854
-0.645218
-0.466326
-0.336168
-0.241884
-0.173841
-0.124883
-0.0897352
-0.0645375
-0.0464835
-0.033545
-0.0242631
-0.0175932
-0.0127894
-0.00932019
-0.00680733
-0.00498155
-0.00365098
-0.00267859
-0.00196621
-0.0014433
-0.00105889
-0.000776067
-0.000567917
-0.000414773
-0.000302197
-0.000219558
-0.000159011
-0.000114754
-8.24935e-05
-5.90531e-05
-4.20814e-05
-2.9841e-05
)
;
    }
}


// ************************************************************************* //
