/*--------------------------------*- C++ -*----------------------------------*\
| =========                 |                                                 |
| \\      /  F ield         | OpenFOAM: The Open Source CFD Toolbox           |
|  \\    /   O peration     | Version:  2.4.0                                 |
|   \\  /    A nd           | Web:      www.OpenFOAM.org                      |
|    \\/     M anipulation  |                                                 |
\*---------------------------------------------------------------------------*/
FoamFile
{
    version     2.0;
    format      ascii;
    class       volScalarField;
    location    "0.015";
    object      H;
}
// * * * * * * * * * * * * * * * * * * * * * * * * * * * * * * * * * * * * * //

dimensions      [0 2 -2 0 0 0 0];

internalField   nonuniform List<scalar> 
125
(
-84.8286
-83.3693
-81.8395
-80.245
-78.5916
-76.885
-75.131
-73.3353
-71.5035
-69.6412
-67.7538
-65.8467
-63.925
-61.9938
-60.058
-58.1222
-56.191
-54.2686
-52.3591
-50.4664
-48.5941
-46.7456
-44.924
-43.1324
-41.3733
-39.6493
-37.9624
-36.3148
-34.708
-33.1436
-31.623
-30.147
-28.7166
-27.3324
-25.9948
-24.7041
-23.4604
-22.2636
-21.1134
-20.0095
-18.9514
-17.9383
-16.9695
-16.0442
-15.1615
-14.3202
-13.5194
-12.7578
-12.0342
-11.3474
-10.6961
-10.079
-9.49487
-8.94228
-8.41994
-7.92653
-7.46076
-7.02133
-6.60698
-6.21648
-5.8486
-5.50218
-5.17608
-4.86918
-4.58044
-4.30882
-4.05336
-3.8131
-3.58716
-3.37469
-3.17487
-2.98694
-2.81018
-2.6439
-2.48746
-2.34024
-2.20167
-2.07123
-1.9484
-1.83273
-1.72375
-1.62108
-1.52431
-1.4331
-1.3471
-1.26602
-1.18955
-1.11742
-1.04939
-0.985209
-0.924668
-0.867556
-0.813682
-0.762867
-0.714941
-0.669747
-0.627136
-0.586971
-0.549118
-0.513457
-0.479869
-0.448246
-0.418483
-0.390483
-0.364152
-0.339403
-0.316151
-0.294316
-0.273825
-0.254603
-0.236583
-0.2197
-0.203892
-0.189098
-0.175264
-0.162334
-0.150258
-0.138987
-0.128475
-0.118677
-0.109551
-0.101058
-0.0931576
-0.0858153
-0.0789964
)
;

boundaryField
{
    BotWall
    {
        type            zeroGradient;
    }
    FreeStream
    {
        type            zeroGradient;
    }
    FrontNBack
    {
        type            empty;
    }
    LeftSide
    {
        type            symmetryPlane;
    }
    RightSide
    {
        type            symmetryPlane;
    }
    procBoundary6to3
    {
        type            processor;
        value           nonuniform List<scalar> 
50
(
-2.3367
-2.19838
-2.06816
-1.94554
-1.83006
-1.72127
-1.61877
-1.52216
-1.4311
-1.34524
-1.26428
-1.18793
-1.11591
-1.04798
-0.983899
-0.923446
-0.866417
-0.812619
-0.761875
-0.714015
-0.668882
-0.626329
-0.586217
-0.548415
-0.512799
-0.479255
-0.447672
-0.417948
-0.389983
-0.363686
-0.338967
-0.315744
-0.293938
-0.273472
-0.254275
-0.236278
-0.219416
-0.203628
-0.188853
-0.175037
-0.162124
-0.150064
-0.138808
-0.12831
-0.118525
-0.109412
-0.10093
-0.0930412
-0.0857094
-0.0789003
)
;
    }
    procBoundary6to4
    {
        type            processor;
        value           nonuniform List<scalar> 
75
(
-84.8264
-83.3677
-81.8384
-80.2442
-78.5909
-76.8843
-75.1302
-73.3343
-71.5022
-69.6395
-67.7517
-65.844
-63.9217
-61.9899
-60.0534
-58.1169
-56.1849
-54.2618
-52.3516
-50.4581
-48.5851
-46.7359
-44.9137
-43.1214
-41.3617
-39.6371
-37.9497
-36.3016
-34.6944
-33.1297
-31.6086
-30.1324
-28.7018
-27.3174
-25.9797
-24.6889
-23.4452
-22.2484
-21.0983
-19.9945
-18.9365
-17.9236
-16.9551
-16.0301
-15.1476
-14.3067
-13.5061
-12.7449
-12.0217
-11.3353
-10.6844
-10.0677
-9.48397
-8.93179
-8.40986
-7.91687
-7.45151
-7.01248
-6.59853
-6.20842
-5.84092
-5.49487
-5.16912
-4.86257
-4.57416
-4.30286
-4.0477
-3.80773
-3.58207
-3.36985
-3.17028
-2.98258
-2.80604
-2.63996
-2.4837
)
;
    }
    procBoundary6to5
    {
        type            processor;
        value           uniform -0.0726693;
    }
    procBoundary6to7
    {
        type            processor;
        value           uniform -86.2081;
    }
    procBoundary6to8
    {
        type            processor;
        value           nonuniform List<scalar> 
75
(
-10.5757
-9.96235
-9.38221
-8.83389
-8.316
-7.82718
-7.36607
-6.93135
-6.52171
-6.13587
-5.77261
-5.43071
-5.10901
-4.80639
-4.52177
-4.25412
-4.00245
-3.76581
-3.54331
-3.33409
-3.13734
-2.9523
-2.77824
-2.61448
-2.46039
-2.31535
-2.17881
-2.05024
-1.92914
-1.81505
-1.70753
-1.60619
-1.51064
-1.42054
-1.33556
-1.2554
-1.17977
-1.1084
-1.04106
-0.977516
-0.917545
-0.860951
-0.807549
-0.757161
-0.709624
-0.664785
-0.622498
-0.582628
-0.545047
-0.509635
-0.476277
-0.444866
-0.4153
-0.387482
-0.361321
-0.336731
-0.313628
-0.291934
-0.271574
-0.252477
-0.234575
-0.217804
-0.202101
-0.187409
-0.17367
-0.160832
-0.148843
-0.137655
-0.127222
-0.1175
-0.108446
-0.100021
-0.092186
-0.0849059
-0.0781462
)
;
    }
    procBoundary6to9
    {
        type            processor;
        value           nonuniform List<scalar> 
50
(
-86.2222
-84.7104
-83.1265
-81.4765
-79.7666
-78.0027
-76.1909
-74.3372
-72.4473
-70.5272
-68.5824
-66.6186
-64.641
-62.655
-60.6656
-58.6776
-56.6956
-54.7242
-52.7675
-50.8294
-48.9136
-47.0237
-45.1629
-43.3341
-41.54
-39.7832
-38.0657
-36.3895
-34.7564
-33.1678
-31.625
-30.1289
-28.6803
-27.2798
-25.9278
-24.6244
-23.3697
-22.1634
-21.0053
-19.8948
-18.8313
-17.8142
-16.8425
-15.9154
-15.0316
-14.1903
-13.3901
-12.6298
-11.9082
-11.2238
)
;
    }
}


// ************************************************************************* //
