/*--------------------------------*- C++ -*----------------------------------*\
| =========                 |                                                 |
| \\      /  F ield         | OpenFOAM: The Open Source CFD Toolbox           |
|  \\    /   O peration     | Version:  2.4.0                                 |
|   \\  /    A nd           | Web:      www.OpenFOAM.org                      |
|    \\/     M anipulation  |                                                 |
\*---------------------------------------------------------------------------*/
FoamFile
{
    version     2.0;
    format      ascii;
    class       volScalarField;
    location    "3.9";
    object      H;
}
// * * * * * * * * * * * * * * * * * * * * * * * * * * * * * * * * * * * * * //

dimensions      [0 2 -2 0 0 0 0];

internalField   nonuniform List<scalar> 
500
(
-11978.1
-11978.1
-11978.1
-11978.1
-11978.1
-11471.4
-11471.4
-11471.4
-11471.4
-11471.4
-10959.1
-10959.1
-10959
-10959
-10959.1
-10441
-10440.9
-10440.9
-10440.9
-10441
-9917.1
-9916.99
-9916.92
-9916.99
-9917.1
-9387.25
-9387.12
-9387.03
-9387.11
-9387.25
-8851.38
-8851.23
-8851.12
-8851.22
-8851.38
-8309.42
-8309.24
-8309.12
-8309.23
-8309.42
-7761.27
-7761.06
-7760.92
-7761.05
-7761.27
-7206.83
-7206.59
-7206.44
-7206.58
-7206.83
-6646.02
-6645.75
-6645.58
-6645.74
-6646.02
-6078.73
-6078.44
-6078.24
-6078.42
-6078.73
-5504.88
-5504.55
-5504.34
-5504.53
-5504.88
-4924.35
-4923.99
-4923.76
-4923.97
-4924.35
-4337.06
-4336.66
-4336.4
-4336.64
-4337.06
-3742.88
-3742.44
-3742.17
-3742.43
-3742.88
-3141.72
-3141.25
-3140.94
-3141.23
-3141.73
-2533.48
-2532.95
-2532.63
-2532.93
-2533.48
-1918.03
-1917.46
-1917.1
-1917.43
-1918.03
-1295.26
-1294.64
-1294.25
-1294.62
-1295.27
-665.073
-664.394
-663.972
-664.368
-665.075
-11.3331
-11.303
-11.2844
-11.3019
-11.3332
-8.42034
-8.39802
-8.38425
-8.39718
-8.42042
-8.39041
-8.36858
-8.35512
-8.36777
-8.39048
-8.35922
-8.33789
-8.32472
-8.33709
-8.35928
-8.32674
-8.30589
-8.29302
-8.30512
-8.32679
-8.29292
-8.27256
-8.25997
-8.2718
-8.29296
-8.25773
-8.23784
-8.22554
-8.2371
-8.25776
-8.22112
-8.20169
-8.18968
-8.20097
-8.22114
-8.18304
-8.16409
-8.15235
-8.16338
-8.18306
-8.14347
-8.12497
-8.11351
-8.12428
-8.14348
-8.10235
-8.0843
-8.07311
-8.08363
-8.10235
-8.05964
-8.04203
-8.03111
-8.04138
-8.05963
-8.0153
-7.99813
-7.98748
-7.99749
-8.01528
-7.96928
-7.95254
-7.94215
-7.95192
-7.96925
-7.92154
-7.90523
-7.89509
-7.90462
-7.92151
-7.87203
-7.85614
-7.84626
-7.85554
-7.87199
-7.82071
-7.80523
-7.7956
-7.80465
-7.82066
-7.76752
-7.75245
-7.74307
-7.75189
-7.76747
-7.71244
-7.69777
-7.68863
-7.69722
-7.71238
-7.6554
-7.64113
-7.63223
-7.64059
-7.65533
-7.59637
-7.58248
-7.57383
-7.58196
-7.59629
-7.53529
-7.52179
-7.51337
-7.52128
-7.53521
-7.47212
-7.459
-7.45081
-7.45851
-7.47204
-7.40683
-7.39408
-7.38611
-7.39359
-7.40674
-7.33935
-7.32697
-7.31923
-7.3265
-7.33926
-7.26965
-7.25763
-7.25011
-7.25717
-7.26956
-7.19769
-7.18602
-7.17871
-7.18557
-7.19759
-7.12341
-7.11209
-7.105
-7.11165
-7.12331
-7.04679
-7.0358
-7.02892
-7.03538
-7.04668
-6.96777
-6.95712
-6.95044
-6.95671
-6.96766
-6.88631
-6.87599
-6.86952
-6.87559
-6.8862
-6.80239
-6.79239
-6.78612
-6.792
-6.80227
-6.71595
-6.70627
-6.70019
-6.70589
-6.71583
-6.62696
-6.61759
-6.61171
-6.61723
-6.62684
-6.53539
-6.52633
-6.52064
-6.52598
-6.53527
-6.44121
-6.43245
-6.42694
-6.43211
-6.44108
-6.34438
-6.33592
-6.33059
-6.33558
-6.34425
-6.24488
-6.23671
-6.23156
-6.23638
-6.24475
-6.14268
-6.13479
-6.12982
-6.13448
-6.14255
-6.03776
-6.03015
-6.02535
-6.02984
-6.03763
-5.93009
-5.92276
-5.91813
-5.92246
-5.92996
-5.81967
-5.8126
-5.80814
-5.81231
-5.81953
-5.70646
-5.69966
-5.69536
-5.69938
-5.70633
-5.59048
-5.58393
-5.5798
-5.58366
-5.59034
-5.4717
-5.4654
-5.46143
-5.46514
-5.47156
-5.35012
-5.34407
-5.34025
-5.34382
-5.34999
-5.22575
-5.21995
-5.21628
-5.2197
-5.22562
-5.09859
-5.09302
-5.0895
-5.09279
-5.09846
-4.96865
-4.96332
-4.95994
-4.96309
-4.96852
-4.83595
-4.83084
-4.82761
-4.83063
-4.83582
-4.7005
-4.69562
-4.69253
-4.69541
-4.70037
-4.56234
-4.55768
-4.55472
-4.55748
-4.56221
-4.42149
-4.41704
-4.41422
-4.41685
-4.42136
-4.27799
-4.27375
-4.27107
-4.27357
-4.27787
-4.13188
-4.12786
-4.1253
-4.12768
-4.13177
-3.98322
-3.9794
-3.97697
-3.97923
-3.98311
-3.83207
-3.82844
-3.82614
-3.82828
-3.83195
-3.67847
-3.67504
-3.67286
-3.67489
-3.67837
-3.52252
-3.51928
-3.51722
-3.51913
-3.52241
-3.36428
-3.36122
-3.35928
-3.36109
-3.36418
-3.20384
-3.20097
-3.19914
-3.20084
-3.20374
-3.0413
-3.03861
-3.03689
-3.03848
-3.0412
-2.87675
-2.87424
-2.87263
-2.87412
-2.87666
-2.71031
-2.70797
-2.70648
-2.70786
-2.71023
-2.5421
-2.53993
-2.53854
-2.53983
-2.54202
-2.37224
-2.37024
-2.36896
-2.37014
-2.37217
-2.20087
-2.19903
-2.19786
-2.19894
-2.2008
-2.02814
-2.02646
-2.02539
-2.02638
-2.02808
-1.85419
-1.85267
-1.8517
-1.8526
-1.85414
-1.6792
-1.67783
-1.67696
-1.67777
-1.67915
-1.50333
-1.50212
-1.50134
-1.50206
-1.50328
-1.32677
-1.3257
-1.32502
-1.32565
-1.32672
-1.14969
-1.14878
-1.14819
-1.14873
-1.14966
-0.972316
-0.971544
-0.971052
-0.971507
-0.972285
-0.794837
-0.794209
-0.793809
-0.794179
-0.794811
-0.617473
-0.616988
-0.616678
-0.616964
-0.617453
-0.440449
-0.440104
-0.439884
-0.440088
-0.440435
-0.263998
-0.263792
-0.26366
-0.263782
-0.263989
-0.0883591
-0.0882901
-0.088246
-0.0882868
-0.0883563
)
;

boundaryField
{
    BotWall
    {
        type            zeroGradient;
    }
    FreeStream
    {
        type            zeroGradient;
    }
    FrontNBack
    {
        type            empty;
    }
    LeftSide
    {
        type            symmetryPlane;
    }
    RightSide
    {
        type            symmetryPlane;
    }
}


// ************************************************************************* //
