/*--------------------------------*- C++ -*----------------------------------*\
| =========                 |                                                 |
| \\      /  F ield         | OpenFOAM: The Open Source CFD Toolbox           |
|  \\    /   O peration     | Version:  2.4.0                                 |
|   \\  /    A nd           | Web:      www.OpenFOAM.org                      |
|    \\/     M anipulation  |                                                 |
\*---------------------------------------------------------------------------*/
FoamFile
{
    version     2.0;
    format      ascii;
    class       volScalarField;
    location    "3.9";
    object      p;
}
// * * * * * * * * * * * * * * * * * * * * * * * * * * * * * * * * * * * * * //

dimensions      [1 -1 -2 0 0 0 0];

internalField   nonuniform List<scalar> 
500
(
0.70425
0.705436
0.706481
0.705502
0.704426
0.674447
0.675638
0.676686
0.675704
0.674622
0.644302
0.645496
0.646545
0.645562
0.644476
0.613828
0.615027
0.616079
0.615093
0.614002
0.583004
0.584209
0.585264
0.584275
0.583178
0.551847
0.553056
0.554116
0.553124
0.55202
0.520332
0.521547
0.52261
0.521615
0.520505
0.488473
0.489693
0.49076
0.489762
0.488645
0.456236
0.457461
0.458533
0.457531
0.456407
0.423642
0.424873
0.42595
0.424945
0.423813
0.390749
0.391986
0.393068
0.392059
0.390919
0.357793
0.359037
0.360125
0.359112
0.357962
0.324651
0.325902
0.326997
0.325979
0.324818
0.28921
0.290465
0.291565
0.290544
0.289376
0.245985
0.247224
0.248322
0.247305
0.246149
0.197495
0.198707
0.199789
0.198789
0.197658
0.19803
0.199321
0.200425
0.199406
0.198203
0.385036
0.386821
0.388191
0.386963
0.385233
0.691068
0.693777
0.695707
0.693949
0.691232
-0.263871
-0.262368
-0.260824
-0.262091
-0.263875
-5.95514
-5.96466
-5.97005
-5.96499
-5.95536
-14.4338
-14.4653
-14.4855
-14.4665
-14.4338
-0.0166586
-0.0166531
-0.0166509
-0.0166498
-0.0166481
-0.0119226
-0.0119188
-0.0119174
-0.0119157
-0.0119123
-0.0133045
-0.0133001
-0.0132985
-0.013297
-0.0132943
-0.0143784
-0.014374
-0.0143723
-0.0143708
-0.0143683
-0.0150993
-0.0150951
-0.0150933
-0.0150919
-0.0150894
-0.0157312
-0.0157271
-0.0157254
-0.0157239
-0.0157214
-0.0163807
-0.0163767
-0.016375
-0.0163735
-0.0163711
-0.0170516
-0.0170477
-0.017046
-0.0170446
-0.0170422
-0.0177337
-0.0177299
-0.0177282
-0.0177268
-0.0177244
-0.018423
-0.0184193
-0.0184176
-0.0184161
-0.0184139
-0.0191194
-0.0191158
-0.0191141
-0.0191126
-0.0191104
-0.0198235
-0.0198199
-0.0198182
-0.0198168
-0.0198146
-0.0205354
-0.0205319
-0.0205302
-0.0205288
-0.0205267
-0.0212553
-0.0212519
-0.0212502
-0.0212488
-0.0212467
-0.0219832
-0.0219799
-0.0219782
-0.0219768
-0.0219748
-0.0227192
-0.022716
-0.0227143
-0.0227129
-0.022711
-0.0234635
-0.0234603
-0.0234587
-0.0234573
-0.0234554
-0.0242161
-0.024213
-0.0242113
-0.02421
-0.0242081
-0.024977
-0.024974
-0.0249724
-0.024971
-0.0249692
-0.0257465
-0.0257436
-0.0257419
-0.0257406
-0.0257388
-0.0265245
-0.0265217
-0.0265201
-0.0265187
-0.026517
-0.0273113
-0.0273085
-0.0273069
-0.0273056
-0.0273039
-0.0281068
-0.0281041
-0.0281025
-0.0281012
-0.0280995
-0.0289112
-0.0289085
-0.028907
-0.0289057
-0.028904
-0.0297245
-0.029722
-0.0297204
-0.0297191
-0.0297175
-0.030547
-0.0305445
-0.0305429
-0.0305417
-0.0305401
-0.0313786
-0.0313762
-0.0313747
-0.0313734
-0.0313719
-0.0322195
-0.0322171
-0.0322156
-0.0322144
-0.0322129
-0.0330698
-0.0330675
-0.033066
-0.0330648
-0.0330633
-0.0339296
-0.0339273
-0.0339259
-0.0339246
-0.0339233
-0.0347989
-0.0347968
-0.0347953
-0.0347941
-0.0347928
-0.035678
-0.0356759
-0.0356745
-0.0356733
-0.035672
-0.0365669
-0.0365648
-0.0365635
-0.0365623
-0.036561
-0.0374657
-0.0374637
-0.0374623
-0.0374612
-0.0374599
-0.0383745
-0.0383726
-0.0383713
-0.0383701
-0.0383689
-0.0392935
-0.0392916
-0.0392903
-0.0392892
-0.039288
-0.0402228
-0.0402209
-0.0402196
-0.0402185
-0.0402174
-0.0411624
-0.0411606
-0.0411593
-0.0411582
-0.0411571
-0.0421125
-0.0421108
-0.0421095
-0.0421084
-0.0421074
-0.0430732
-0.0430715
-0.0430703
-0.0430692
-0.0430682
-0.0440446
-0.044043
-0.0440418
-0.0440407
-0.0440397
-0.0450268
-0.0450253
-0.0450241
-0.0450231
-0.0450221
-0.04602
-0.0460186
-0.0460174
-0.0460164
-0.0460155
-0.0470244
-0.0470229
-0.0470218
-0.0470208
-0.0470199
-0.0480399
-0.0480385
-0.0480374
-0.0480364
-0.0480356
-0.0490667
-0.0490654
-0.0490643
-0.0490634
-0.0490625
-0.050105
-0.0501037
-0.0501027
-0.0501018
-0.050101
-0.0511549
-0.0511537
-0.0511527
-0.0511518
-0.051151
-0.0522165
-0.0522153
-0.0522143
-0.0522135
-0.0522127
-0.05329
-0.0532888
-0.0532879
-0.053287
-0.0532863
-0.0543754
-0.0543743
-0.0543734
-0.0543726
-0.0543719
-0.055473
-0.0554719
-0.055471
-0.0554702
-0.0554695
-0.0565828
-0.0565818
-0.0565809
-0.0565801
-0.0565795
-0.057705
-0.057704
-0.0577031
-0.0577024
-0.0577018
-0.0588397
-0.0588387
-0.0588379
-0.0588372
-0.0588366
-0.059987
-0.0599861
-0.0599854
-0.0599847
-0.0599841
-0.0611472
-0.0611464
-0.0611456
-0.061145
-0.0611444
-0.0623203
-0.0623195
-0.0623188
-0.0623182
-0.0623177
-0.0635065
-0.0635058
-0.0635051
-0.0635045
-0.063504
-0.064706
-0.0647053
-0.0647046
-0.064704
-0.0647036
-0.0659188
-0.0659182
-0.0659175
-0.065917
-0.0659165
-0.0671452
-0.0671446
-0.067144
-0.0671435
-0.067143
-0.0683853
-0.0683847
-0.0683841
-0.0683836
-0.0683832
-0.0696391
-0.0696386
-0.0696381
-0.0696376
-0.0696372
-0.070907
-0.0709065
-0.070906
-0.0709056
-0.0709053
-0.0721891
-0.0721886
-0.0721881
-0.0721877
-0.0721874
-0.0734854
-0.073485
-0.0734846
-0.0734842
-0.0734839
-0.0747962
-0.0747958
-0.0747954
-0.0747951
-0.0747948
-0.0761217
-0.0761213
-0.0761209
-0.0761206
-0.0761204
-0.0774619
-0.0774616
-0.0774612
-0.077461
-0.0774608
-0.0788171
-0.0788168
-0.0788165
-0.0788163
-0.0788161
-0.0801874
-0.0801871
-0.0801869
-0.0801867
-0.0801865
-0.081573
-0.0815728
-0.0815726
-0.0815724
-0.0815722
-0.082974
-0.0829739
-0.0829737
-0.0829735
-0.0829734
-0.0843907
-0.0843906
-0.0843905
-0.0843903
-0.0843903
-0.0858232
-0.0858231
-0.085823
-0.085823
-0.0858229
-0.0872717
-0.0872717
-0.0872716
-0.0872716
-0.0872715
-0.0887364
-0.0887364
-0.0887363
-0.0887363
-0.0887363
)
;

boundaryField
{
    BotWall
    {
        type            calculated;
        value           nonuniform List<scalar> 5(0.71907 0.720256 0.721301 0.720322 0.719246);
    }
    FreeStream
    {
        type            calculated;
        value           nonuniform List<scalar> 5(-0.0894728 -0.0894728 -0.0894728 -0.0894728 -0.0894728);
    }
    FrontNBack
    {
        type            empty;
    }
    LeftSide
    {
        type            symmetryPlane;
    }
    RightSide
    {
        type            symmetryPlane;
    }
}


// ************************************************************************* //
