/*--------------------------------*- C++ -*----------------------------------*\
| =========                 |                                                 |
| \\      /  F ield         | OpenFOAM: The Open Source CFD Toolbox           |
|  \\    /   O peration     | Version:  2.4.0                                 |
|   \\  /    A nd           | Web:      www.OpenFOAM.org                      |
|    \\/     M anipulation  |                                                 |
\*---------------------------------------------------------------------------*/
FoamFile
{
    version     2.0;
    format      ascii;
    class       volScalarField;
    location    "3.9";
    object      p_rgh;
}
// * * * * * * * * * * * * * * * * * * * * * * * * * * * * * * * * * * * * * //

dimensions      [1 -1 -2 0 0 0 0];

internalField   nonuniform List<scalar> 
500
(
0.71907
0.720256
0.721301
0.720322
0.719246
0.719073
0.720264
0.721313
0.72033
0.719248
0.719067
0.720261
0.72131
0.720327
0.719241
0.719068
0.720267
0.721319
0.720333
0.719241
0.719059
0.720263
0.721319
0.72033
0.719233
0.719061
0.72027
0.721329
0.720337
0.719234
0.719053
0.720267
0.72133
0.720335
0.719225
0.719051
0.720271
0.721339
0.72034
0.719223
0.719028
0.720253
0.721325
0.720323
0.719199
0.719007
0.720238
0.721315
0.72031
0.719178
0.719051
0.720287
0.72137
0.720361
0.719221
0.719399
0.720642
0.721731
0.720717
0.719568
0.719932
0.721184
0.722278
0.721261
0.7201
0.718543
0.719798
0.720898
0.719877
0.718709
0.70975
0.710988
0.712087
0.711069
0.709913
0.696076
0.697287
0.698369
0.697369
0.696238
0.731814
0.733105
0.73421
0.73319
0.731987
0.954417
0.956202
0.957572
0.956344
0.954614
1.29644
1.29915
1.30108
1.29932
1.29661
0.3779
0.379404
0.380948
0.37968
0.377897
-5.27656
-5.28609
-5.29148
-5.28642
-5.27678
-13.7608
-13.7904
-13.8095
-13.7916
-13.7608
-0.00417919
-0.00417369
-0.0041715
-0.00417047
-0.00416871
0.00118697
0.00119074
0.00119216
0.0011939
0.00119731
0.000442367
0.000446683
0.000448357
0.000449861
0.000452564
1.28347e-05
1.71771e-05
1.89159e-05
2.03572e-05
2.28814e-05
-5.65335e-05
-5.23289e-05
-5.05988e-05
-4.91532e-05
-4.66401e-05
-2.95986e-05
-2.551e-05
-2.37921e-05
-2.23402e-05
-1.98556e-05
-1.29315e-05
-8.93279e-06
-7.22077e-06
-5.76969e-06
-3.3383e-06
-1.02996e-05
-6.38606e-06
-4.67803e-06
-3.23078e-06
-8.55819e-07
-1.12747e-05
-7.44779e-06
-5.74437e-06
-4.30159e-06
-1.97986e-06
-1.1836e-05
-8.09585e-06
-6.398e-06
-4.96003e-06
-2.6895e-06
-1.1838e-05
-8.18365e-06
-6.49217e-06
-5.05948e-06
-2.8394e-06
-1.16985e-05
-8.12854e-06
-6.4441e-06
-5.01728e-06
-2.8471e-06
-1.15762e-05
-8.08951e-06
-6.4128e-06
-4.99243e-06
-2.87148e-06
-1.14764e-05
-8.07192e-06
-6.40362e-06
-4.99027e-06
-2.91785e-06
-1.13825e-05
-8.05909e-06
-6.39986e-06
-4.9941e-06
-2.9695e-06
-1.12882e-05
-8.04469e-06
-6.39522e-06
-4.99762e-06
-3.02012e-06
-1.11932e-05
-8.02855e-06
-6.38951e-06
-5.00062e-06
-3.06953e-06
-1.10982e-05
-8.01134e-06
-6.38339e-06
-5.00377e-06
-3.11838e-06
-1.10036e-05
-7.99329e-06
-6.37711e-06
-5.0073e-06
-3.16694e-06
-1.09092e-05
-7.97444e-06
-6.37067e-06
-5.01123e-06
-3.2152e-06
-1.08152e-05
-7.95474e-06
-6.36404e-06
-5.0155e-06
-3.26314e-06
-1.07213e-05
-7.93419e-06
-6.35721e-06
-5.02011e-06
-3.31074e-06
-1.06278e-05
-7.91281e-06
-6.35018e-06
-5.02504e-06
-3.35801e-06
-1.05345e-05
-7.89058e-06
-6.34294e-06
-5.03029e-06
-3.40494e-06
-1.04414e-05
-7.86752e-06
-6.3355e-06
-5.03586e-06
-3.45154e-06
-1.03487e-05
-7.84363e-06
-6.32785e-06
-5.04172e-06
-3.4978e-06
-1.02561e-05
-7.81892e-06
-6.31998e-06
-5.04788e-06
-3.54373e-06
-1.01638e-05
-7.79339e-06
-6.3119e-06
-5.05433e-06
-3.58932e-06
-1.00718e-05
-7.76705e-06
-6.3036e-06
-5.06104e-06
-3.63458e-06
-9.98003e-06
-7.7399e-06
-6.29507e-06
-5.06803e-06
-3.6795e-06
-9.88849e-06
-7.71195e-06
-6.28633e-06
-5.07527e-06
-3.7241e-06
-9.79717e-06
-7.6832e-06
-6.27735e-06
-5.08276e-06
-3.76836e-06
-9.70609e-06
-7.65366e-06
-6.26815e-06
-5.09048e-06
-3.81229e-06
-9.61523e-06
-7.62334e-06
-6.25871e-06
-5.09843e-06
-3.85589e-06
-9.52459e-06
-7.59225e-06
-6.24903e-06
-5.10661e-06
-3.89916e-06
-9.43416e-06
-7.56038e-06
-6.23912e-06
-5.11499e-06
-3.94212e-06
-9.34393e-06
-7.52775e-06
-6.22896e-06
-5.12358e-06
-3.98475e-06
-9.25389e-06
-7.49436e-06
-6.21856e-06
-5.13235e-06
-4.02706e-06
-9.16404e-06
-7.46023e-06
-6.20792e-06
-5.14131e-06
-4.06906e-06
-9.07437e-06
-7.42535e-06
-6.19702e-06
-5.15044e-06
-4.11075e-06
-8.98487e-06
-7.38974e-06
-6.18587e-06
-5.15974e-06
-4.15212e-06
-8.89552e-06
-7.35339e-06
-6.17447e-06
-5.16919e-06
-4.1932e-06
-8.80631e-06
-7.31633e-06
-6.16281e-06
-5.17878e-06
-4.23398e-06
-8.71724e-06
-7.27855e-06
-6.15088e-06
-5.18852e-06
-4.27446e-06
-8.62829e-06
-7.24006e-06
-6.1387e-06
-5.19839e-06
-4.31465e-06
-8.53944e-06
-7.20087e-06
-6.12625e-06
-5.20837e-06
-4.35456e-06
-8.45069e-06
-7.16098e-06
-6.11353e-06
-5.21848e-06
-4.3942e-06
-8.36202e-06
-7.1204e-06
-6.10055e-06
-5.22868e-06
-4.43356e-06
-8.27341e-06
-7.07914e-06
-6.08729e-06
-5.23899e-06
-4.47267e-06
-8.18484e-06
-7.0372e-06
-6.07376e-06
-5.24939e-06
-4.51152e-06
-8.09631e-06
-6.99459e-06
-6.05996e-06
-5.25988e-06
-4.55012e-06
-8.00778e-06
-6.95131e-06
-6.04588e-06
-5.27044e-06
-4.58849e-06
-7.91925e-06
-6.90737e-06
-6.03152e-06
-5.28108e-06
-4.62663e-06
-7.83069e-06
-6.86277e-06
-6.01688e-06
-5.29179e-06
-4.66455e-06
-7.74207e-06
-6.81752e-06
-6.00196e-06
-5.30256e-06
-4.70226e-06
-7.65339e-06
-6.77162e-06
-5.98676e-06
-5.31339e-06
-4.73979e-06
-7.56461e-06
-6.72507e-06
-5.97127e-06
-5.32427e-06
-4.77712e-06
-7.4757e-06
-6.67789e-06
-5.95551e-06
-5.3352e-06
-4.81429e-06
-7.38665e-06
-6.63006e-06
-5.93945e-06
-5.34618e-06
-4.8513e-06
-7.29743e-06
-6.5816e-06
-5.92311e-06
-5.35721e-06
-4.88818e-06
-7.20801e-06
-6.53251e-06
-5.90649e-06
-5.36828e-06
-4.92492e-06
-7.11835e-06
-6.48278e-06
-5.88958e-06
-5.37939e-06
-4.96156e-06
-7.02843e-06
-6.43242e-06
-5.87239e-06
-5.39054e-06
-4.99811e-06
-6.93822e-06
-6.38144e-06
-5.85491e-06
-5.40174e-06
-5.03458e-06
-6.84767e-06
-6.32982e-06
-5.83715e-06
-5.41297e-06
-5.07101e-06
-6.75675e-06
-6.27758e-06
-5.81911e-06
-5.42425e-06
-5.1074e-06
-6.66543e-06
-6.2247e-06
-5.80078e-06
-5.43558e-06
-5.14379e-06
-6.57366e-06
-6.1712e-06
-5.78217e-06
-5.44695e-06
-5.18019e-06
-6.4814e-06
-6.11706e-06
-5.76329e-06
-5.45838e-06
-5.21664e-06
-6.3886e-06
-6.06228e-06
-5.74413e-06
-5.46986e-06
-5.25315e-06
-6.29522e-06
-6.00687e-06
-5.7247e-06
-5.4814e-06
-5.28977e-06
-6.20121e-06
-5.95082e-06
-5.70499e-06
-5.49301e-06
-5.32651e-06
-6.10651e-06
-5.89413e-06
-5.68502e-06
-5.50469e-06
-5.36341e-06
-6.01107e-06
-5.83679e-06
-5.66478e-06
-5.51646e-06
-5.40051e-06
-5.91483e-06
-5.7788e-06
-5.6443e-06
-5.52832e-06
-5.43783e-06
-5.81768e-06
-5.72016e-06
-5.62358e-06
-5.54029e-06
-5.47541e-06
-5.71966e-06
-5.66085e-06
-5.60257e-06
-5.55235e-06
-5.51334e-06
-5.62086e-06
-5.60075e-06
-5.581e-06
-5.56446e-06
-5.5519e-06
)
;

boundaryField
{
    BotWall
    {
        type            fixedFluxPressure;
        gradient        uniform 0;
        value           nonuniform List<scalar> 5(0.71907 0.720256 0.721301 0.720322 0.719246);
    }
    FreeStream
    {
        type            totalPressure;
        rho             rho;
        psi             none;
        gamma           1;
        p0              uniform 0;
        value           nonuniform List<scalar> 5(-5.57133e-06 -5.57044e-06 -5.56992e-06 -5.57049e-06 -5.57147e-06);
    }
    FrontNBack
    {
        type            empty;
    }
    LeftSide
    {
        type            symmetryPlane;
    }
    RightSide
    {
        type            symmetryPlane;
    }
}


// ************************************************************************* //
