/*--------------------------------*- C++ -*----------------------------------*\
| =========                 |                                                 |
| \\      /  F ield         | OpenFOAM: The Open Source CFD Toolbox           |
|  \\    /   O peration     | Version:  2.4.0                                 |
|   \\  /    A nd           | Web:      www.OpenFOAM.org                      |
|    \\/     M anipulation  |                                                 |
\*---------------------------------------------------------------------------*/
FoamFile
{
    version     2.0;
    format      ascii;
    class       surfaceScalarField;
    location    "3.9";
    object      phi;
}
// * * * * * * * * * * * * * * * * * * * * * * * * * * * * * * * * * * * * * //

dimensions      [0 3 -1 0 0 0 0];

internalField   nonuniform List<scalar> 
895
(
1.12974e-17
-1.13147e-17
6.44966e-18
4.84862e-18
-6.34476e-18
1.28064e-17
-1.12507e-17
4.91152e-18
-1.11762e-17
3.58001e-17
-4.71184e-17
2.07625e-17
1.98919e-17
-2.03473e-17
5.39189e-17
-3.55774e-17
2.01488e-17
-4.67428e-17
6.24354e-17
-1.09558e-16
3.65103e-17
4.58234e-17
-3.56656e-17
1.26099e-16
-6.19778e-17
4.64688e-17
-1.08709e-16
9.11759e-17
-2.00739e-16
5.36259e-17
8.33805e-17
-5.22733e-17
2.32003e-16
-9.05321e-17
8.47357e-17
-1.9923e-16
1.221e-16
-3.22844e-16
7.21667e-17
1.33321e-16
-7.02606e-17
3.74436e-16
-1.21386e-16
1.3587e-16
-3.20605e-16
1.5534e-16
-4.7819e-16
9.22166e-17
1.96452e-16
-8.96905e-17
5.56349e-16
-1.54644e-16
2.00832e-16
-4.75237e-16
1.91052e-16
-6.69248e-16
1.13875e-16
2.73637e-16
-1.10641e-16
7.80872e-16
-1.90435e-16
2.80634e-16
-6.6566e-16
2.2937e-16
-8.98623e-16
1.37231e-16
3.65784e-16
-1.33191e-16
1.0513e-15
-2.28889e-16
3.76341e-16
-8.94537e-16
2.7046e-16
-1.16909e-15
1.62389e-16
4.73864e-16
-1.57437e-16
1.37113e-15
-2.70171e-16
4.89083e-16
-1.1647e-15
3.14464e-16
-1.48356e-15
1.89444e-16
5.98891e-16
-1.83468e-16
1.74405e-15
-3.1443e-16
6.20053e-16
-1.47912e-15
3.61564e-16
-1.84513e-15
2.18513e-16
7.41949e-16
-2.11395e-16
2.17396e-15
-3.61853e-16
7.70519e-16
-1.84096e-15
4.11917e-16
-2.25705e-15
2.497e-16
9.04174e-16
-2.41317e-16
2.66499e-15
-4.12606e-16
9.41816e-16
-2.25355e-15
4.65732e-16
-2.72279e-15
2.83139e-16
1.08677e-15
-2.73358e-16
3.22149e-15
-4.66898e-16
1.13536e-15
-2.72044e-15
5.23191e-16
-3.24599e-15
3.18947e-16
1.29102e-15
-3.07627e-16
3.84807e-15
-5.24917e-16
1.35266e-15
-3.24535e-15
5.8452e-16
-3.83051e-15
3.57267e-16
1.51828e-15
-3.44263e-16
4.54961e-15
-5.86906e-16
1.59531e-15
-3.83225e-15
6.49904e-16
-4.48042e-15
3.98236e-16
1.76996e-15
-3.83389e-16
5.33124e-15
-6.53043e-16
1.86497e-15
-4.48528e-15
7.19485e-16
-5.19991e-15
4.41963e-16
2.04748e-15
-4.2513e-16
6.19833e-15
-7.23533e-16
2.16338e-15
-5.20881e-15
7.93379e-16
-5.99329e-15
4.88603e-16
2.35226e-15
-4.69703e-16
7.15665e-15
-7.98429e-16
2.49211e-15
-6.00723e-15
8.72302e-16
-6.8656e-15
5.38778e-16
2.68579e-15
-5.16864e-16
8.21229e-15
-8.7835e-16
2.8536e-15
-6.88558e-15
9.58624e-16
-7.82423e-15
5.91576e-16
3.05284e-15
-5.67103e-16
9.37097e-15
-9.65799e-16
3.25229e-15
-7.85138e-15
1.05757e-15
-8.98727e-15
6.54873e-16
3.45554e-15
-6.2746e-16
1.06533e-14
-1.06597e-15
3.6908e-15
-1.14558e-14
1.16134e-15
-2.2105e-10
7.21636e-16
-2.21059e-10
-6.90467e-16
-2.21064e-10
-1.17207e-15
-2.21059e-10
-2.21053e-10
1.16435e-15
-2.21052e-10
7.22927e-16
-2.21058e-10
-6.91881e-16
-2.21063e-10
-1.17274e-15
-2.21059e-10
-2.21054e-10
1.14662e-15
-2.21053e-10
7.13803e-16
-2.21058e-10
-6.77153e-16
-2.21061e-10
-1.14427e-15
-2.21058e-10
-2.21055e-10
1.10384e-15
-2.21054e-10
6.92637e-16
-2.21058e-10
-6.48963e-16
-2.2106e-10
-1.09153e-15
-2.21058e-10
-2.21056e-10
1.06556e-15
-2.21055e-10
6.69765e-16
-2.21057e-10
-6.25022e-16
-2.21059e-10
-1.05032e-15
-2.21057e-10
-2.21057e-10
1.02978e-15
-2.21056e-10
6.47242e-16
-2.21057e-10
-6.03278e-16
-2.21057e-10
-1.01389e-15
-2.21057e-10
-2.21058e-10
9.94503e-16
-2.21057e-10
6.25404e-16
-2.21056e-10
-5.82146e-16
-2.21056e-10
-9.7793e-16
-2.21057e-10
-2.21059e-10
9.59179e-16
-2.21058e-10
6.03784e-16
-2.21056e-10
-5.61162e-16
-2.21055e-10
-9.41871e-16
-2.21056e-10
-2.2106e-10
9.24106e-16
-2.21059e-10
5.82295e-16
-2.21056e-10
-5.40307e-16
-2.21054e-10
-9.06084e-16
-2.21056e-10
-2.21061e-10
8.89463e-16
-2.2106e-10
5.60998e-16
-2.21055e-10
-5.19644e-16
-2.21053e-10
-8.70759e-16
-2.21055e-10
-2.21062e-10
8.55267e-16
-2.21061e-10
5.39935e-16
-2.21055e-10
-4.99215e-16
-2.21052e-10
-8.35916e-16
-2.21055e-10
-2.21063e-10
8.2151e-16
-2.21061e-10
5.19121e-16
-2.21055e-10
-4.79032e-16
-2.21051e-10
-8.01544e-16
-2.21055e-10
-2.21063e-10
7.88199e-16
-2.21062e-10
4.98564e-16
-2.21054e-10
-4.59103e-16
-2.2105e-10
-7.6765e-16
-2.21055e-10
-2.21064e-10
7.55349e-16
-2.21063e-10
4.7827e-16
-2.21054e-10
-4.39435e-16
-2.21049e-10
-7.3425e-16
-2.21054e-10
-2.21065e-10
7.22977e-16
-2.21064e-10
4.58251e-16
-2.21054e-10
-4.20038e-16
-2.21048e-10
-7.0136e-16
-2.21054e-10
-2.21066e-10
6.91097e-16
-2.21064e-10
4.38515e-16
-2.21054e-10
-4.0092e-16
-2.21047e-10
-6.68993e-16
-2.21054e-10
-2.21066e-10
6.59724e-16
-2.21065e-10
4.19073e-16
-2.21053e-10
-3.82093e-16
-2.21046e-10
-6.37165e-16
-2.21053e-10
-2.21067e-10
6.28869e-16
-2.21066e-10
3.99933e-16
-2.21053e-10
-3.63563e-16
-2.21046e-10
-6.05888e-16
-2.21053e-10
-2.21068e-10
5.98547e-16
-2.21066e-10
3.81104e-16
-2.21053e-10
-3.45341e-16
-2.21045e-10
-5.75174e-16
-2.21053e-10
-2.21068e-10
5.68769e-16
-2.21067e-10
3.62594e-16
-2.21053e-10
-3.27433e-16
-2.21044e-10
-5.45036e-16
-2.21053e-10
-2.21069e-10
5.39548e-16
-2.21067e-10
3.44413e-16
-2.21053e-10
-3.0985e-16
-2.21044e-10
-5.15485e-16
-2.21053e-10
-2.21069e-10
5.10895e-16
-2.21068e-10
3.26568e-16
-2.21052e-10
-2.92598e-16
-2.21043e-10
-4.86534e-16
-2.21052e-10
-2.2107e-10
4.82822e-16
-2.21068e-10
3.09068e-16
-2.21052e-10
-2.75684e-16
-2.21042e-10
-4.58192e-16
-2.21052e-10
-2.2107e-10
4.55339e-16
-2.21069e-10
2.91918e-16
-2.21052e-10
-2.59118e-16
-2.21042e-10
-4.30471e-16
-2.21052e-10
-2.21071e-10
4.28457e-16
-2.21069e-10
2.75127e-16
-2.21052e-10
-2.42904e-16
-2.21041e-10
-4.03379e-16
-2.21052e-10
-2.21071e-10
4.02183e-16
-2.2107e-10
2.58701e-16
-2.21052e-10
-2.2705e-16
-2.21041e-10
-3.76925e-16
-2.21052e-10
-2.21071e-10
3.76529e-16
-2.2107e-10
2.42647e-16
-2.21052e-10
-2.11563e-16
-2.2104e-10
-3.51119e-16
-2.21052e-10
-2.21072e-10
3.51502e-16
-2.2107e-10
2.26971e-16
-2.21052e-10
-1.96448e-16
-2.2104e-10
-3.25969e-16
-2.21051e-10
-2.21072e-10
3.2711e-16
-2.21071e-10
2.11678e-16
-2.21051e-10
-1.81712e-16
-2.2104e-10
-3.01481e-16
-2.21051e-10
-2.21072e-10
3.03359e-16
-2.21071e-10
1.96774e-16
-2.21051e-10
-1.67359e-16
-2.21039e-10
-2.77663e-16
-2.21051e-10
-2.21073e-10
2.80258e-16
-2.21071e-10
1.82263e-16
-2.21051e-10
-1.53394e-16
-2.21039e-10
-2.5452e-16
-2.21051e-10
-2.21073e-10
2.57811e-16
-2.21072e-10
1.6815e-16
-2.21051e-10
-1.39822e-16
-2.21039e-10
-2.32059e-16
-2.21051e-10
-2.21073e-10
2.36025e-16
-2.21072e-10
1.54439e-16
-2.21051e-10
-1.26648e-16
-2.21038e-10
-2.10284e-16
-2.21051e-10
-2.21073e-10
2.14903e-16
-2.21072e-10
1.41133e-16
-2.21051e-10
-1.13874e-16
-2.21038e-10
-1.89199e-16
-2.21051e-10
-2.21074e-10
1.9445e-16
-2.21072e-10
1.28236e-16
-2.21051e-10
-1.01505e-16
-2.21038e-10
-1.68809e-16
-2.21051e-10
-2.21074e-10
1.74669e-16
-2.21072e-10
1.15751e-16
-2.21051e-10
-8.95436e-17
-2.21038e-10
-1.49115e-16
-2.21051e-10
-2.21074e-10
1.55562e-16
-2.21072e-10
1.03679e-16
-2.21051e-10
-7.79918e-17
-2.21037e-10
-1.30119e-16
-2.21051e-10
-2.21074e-10
1.37132e-16
-2.21073e-10
9.20228e-17
-2.21051e-10
-6.68519e-17
-2.21037e-10
-1.11825e-16
-2.21051e-10
-2.21074e-10
1.19379e-16
-2.21073e-10
8.07834e-17
-2.21051e-10
-5.61256e-17
-2.21037e-10
-9.42306e-17
-2.21051e-10
-2.21074e-10
1.02304e-16
-2.21073e-10
6.99617e-17
-2.21051e-10
-4.58139e-17
-2.21037e-10
-7.73374e-17
-2.21051e-10
-2.21074e-10
8.59068e-17
-2.21073e-10
5.95579e-17
-2.21051e-10
-3.59175e-17
-2.21037e-10
-6.11443e-17
-2.21051e-10
-2.21074e-10
7.0186e-17
-2.21073e-10
4.95721e-17
-2.21051e-10
-2.64365e-17
-2.21037e-10
-4.56496e-17
-2.2105e-10
-2.21074e-10
5.51397e-17
-2.21073e-10
4.00035e-17
-2.21051e-10
-1.73706e-17
-2.21037e-10
-3.08509e-17
-2.2105e-10
-2.21074e-10
4.07652e-17
-2.21073e-10
3.0851e-17
-2.21051e-10
-8.719e-18
-2.21037e-10
-1.67448e-17
-2.2105e-10
-2.21074e-10
2.70579e-17
-2.21073e-10
2.21129e-17
-2.21051e-10
-4.80148e-19
-2.21037e-10
-3.32385e-18
-2.2105e-10
-2.21074e-10
1.40134e-17
-2.21073e-10
1.37869e-17
-2.21051e-10
7.34786e-18
-2.21037e-10
9.41344e-18
-2.2105e-10
-2.21074e-10
1.62778e-18
-2.21073e-10
5.87043e-18
-2.21051e-10
1.47675e-17
-2.21037e-10
2.14719e-17
-2.2105e-10
-2.21074e-10
-1.01047e-17
-2.21073e-10
-1.63997e-18
-2.21051e-10
2.17819e-17
-2.21037e-10
3.28577e-17
-2.2105e-10
-2.21074e-10
-2.11909e-17
-2.21073e-10
-8.74817e-18
-2.21051e-10
2.83945e-17
-2.21037e-10
4.35782e-17
-2.2105e-10
-2.21074e-10
-3.16366e-17
-2.21073e-10
-1.54586e-17
-2.21051e-10
3.46097e-17
-2.21037e-10
5.36405e-17
-2.21051e-10
-2.21074e-10
-4.14524e-17
-2.21073e-10
-2.17764e-17
-2.21051e-10
4.04321e-17
-2.21037e-10
6.30556e-17
-2.21051e-10
-2.21074e-10
-5.06485e-17
-2.21073e-10
-2.77071e-17
-2.21051e-10
4.58672e-17
-2.21037e-10
7.18337e-17
-2.21051e-10
-2.21074e-10
-5.92356e-17
-2.21073e-10
-3.32571e-17
-2.21051e-10
5.09211e-17
-2.21037e-10
7.99859e-17
-2.21051e-10
-2.21074e-10
-6.72253e-17
-2.21073e-10
-3.84332e-17
-2.21051e-10
5.56004e-17
-2.21037e-10
8.75242e-17
-2.21051e-10
-2.21074e-10
-7.46301e-17
-2.21073e-10
-4.32432e-17
-2.21051e-10
5.99126e-17
-2.21037e-10
9.44618e-17
-2.21051e-10
-2.21074e-10
-8.14638e-17
-2.21073e-10
-4.76953e-17
-2.21051e-10
6.38655e-17
-2.21037e-10
1.00813e-16
-2.21051e-10
-2.21074e-10
-8.77412e-17
-2.21073e-10
-5.17987e-17
-2.21051e-10
6.74682e-17
-2.21038e-10
1.06593e-16
-2.21051e-10
-2.21074e-10
-9.34783e-17
-2.21073e-10
-5.5563e-17
-2.21051e-10
7.073e-17
-2.21038e-10
1.11818e-16
-2.21051e-10
-2.21074e-10
-9.86923e-17
-2.21072e-10
-5.89989e-17
-2.21051e-10
7.36614e-17
-2.21038e-10
1.16505e-16
-2.21051e-10
-2.21073e-10
-1.03402e-16
-2.21072e-10
-6.21179e-17
-2.21051e-10
7.62735e-17
-2.21038e-10
1.20675e-16
-2.21051e-10
-2.21073e-10
-1.07627e-16
-2.21072e-10
-6.49322e-17
-2.21051e-10
7.85783e-17
-2.21038e-10
1.24346e-16
-2.21051e-10
-2.21073e-10
-1.11389e-16
-2.21072e-10
-6.74553e-17
-2.21051e-10
8.0589e-17
-2.21038e-10
1.27542e-16
-2.21051e-10
-2.21073e-10
-1.14711e-16
-2.21072e-10
-6.97012e-17
-2.21051e-10
8.23193e-17
-2.21038e-10
1.30284e-16
-2.21051e-10
-2.21073e-10
-1.17617e-16
-2.21072e-10
-7.16855e-17
-2.21051e-10
8.37844e-17
-2.21039e-10
1.32598e-16
-2.21051e-10
-2.21073e-10
-1.20134e-16
-2.21072e-10
-7.34245e-17
-2.21051e-10
8.50004e-17
-2.21039e-10
1.34511e-16
-2.21051e-10
-2.21073e-10
-1.2229e-16
-2.21072e-10
-7.4936e-17
-2.21051e-10
8.59847e-17
-2.21039e-10
1.36052e-16
-2.21051e-10
-2.21073e-10
-1.24116e-16
-2.21072e-10
-7.62391e-17
-2.21051e-10
8.67559e-17
-2.21039e-10
1.3725e-16
-2.21051e-10
-2.21072e-10
-1.25645e-16
-2.21071e-10
-7.73542e-17
-2.21051e-10
8.73341e-17
-2.21039e-10
1.3814e-16
-2.21051e-10
-2.21072e-10
-1.26911e-16
-2.21071e-10
-7.83034e-17
-2.21051e-10
8.7741e-17
-2.21039e-10
1.38755e-16
-2.21051e-10
-2.21072e-10
-1.27954e-16
-2.21071e-10
-7.91104e-17
-2.21051e-10
8.79998e-17
-2.21039e-10
1.39135e-16
-2.21051e-10
-2.21072e-10
-1.28813e-16
-2.21071e-10
-7.9801e-17
-2.21052e-10
8.81356e-17
-2.2104e-10
1.39321e-16
-2.21051e-10
-2.21072e-10
-1.29533e-16
-2.21071e-10
-8.04026e-17
-2.21052e-10
8.81754e-17
-2.2104e-10
1.39356e-16
-2.21051e-10
-2.21072e-10
-1.30161e-16
-2.21071e-10
-8.09454e-17
-2.21052e-10
8.81487e-17
-2.2104e-10
1.39289e-16
-2.21052e-10
-2.21072e-10
-1.3075e-16
-2.21071e-10
-8.14615e-17
-2.21052e-10
8.80868e-17
-2.2104e-10
1.3917e-16
-2.21052e-10
-2.21071e-10
-1.31355e-16
-2.2107e-10
-8.19857e-17
-2.21052e-10
8.80237e-17
-2.2104e-10
1.39056e-16
-2.21052e-10
-2.21071e-10
-1.32036e-16
-2.2107e-10
-8.25549e-17
-2.21052e-10
8.79954e-17
-2.21041e-10
1.39005e-16
-2.21052e-10
-2.21071e-10
-1.3286e-16
-2.2107e-10
-8.32119e-17
-2.21052e-10
8.80433e-17
-2.21041e-10
1.39086e-16
-2.21052e-10
-2.21071e-10
-1.33919e-16
-2.2107e-10
-8.40131e-17
-2.21052e-10
8.82255e-17
-2.21041e-10
1.39391e-16
-2.21052e-10
-2.21071e-10
-1.35361e-16
-8.50218e-17
8.86948e-17
1.40157e-16
)
;

boundaryField
{
    BotWall
    {
        type            calculated;
        value           nonuniform List<scalar> 5(3.60711e-21 8.35843e-23 4.40858e-21 -3.97237e-22 -3.71589e-21);
    }
    FreeStream
    {
        type            calculated;
        value           nonuniform List<scalar> 5(-2.2107e-10 -2.21052e-10 -2.21041e-10 -2.21052e-10 -2.21071e-10);
    }
    FrontNBack
    {
        type            empty;
        value           nonuniform 0();
    }
    LeftSide
    {
        type            symmetryPlane;
        value           uniform 0;
    }
    RightSide
    {
        type            symmetryPlane;
        value           uniform 0;
    }
}


// ************************************************************************* //
