/*--------------------------------*- C++ -*----------------------------------*\
| =========                 |                                                 |
| \\      /  F ield         | OpenFOAM: The Open Source CFD Toolbox           |
|  \\    /   O peration     | Version:  2.4.0                                 |
|   \\  /    A nd           | Web:      www.OpenFOAM.org                      |
|    \\/     M anipulation  |                                                 |
\*---------------------------------------------------------------------------*/
FoamFile
{
    version     2.0;
    format      ascii;
    class       volVectorField;
    location    "3.9";
    object      U;
}
// * * * * * * * * * * * * * * * * * * * * * * * * * * * * * * * * * * * * * //

dimensions      [0 1 -1 0 0 0 0];

internalField   nonuniform List<vector> 
500
(
(3.50798e-09 -1.06573e-10 0)
(4.83736e-09 -9.54272e-11 0)
(2.07694e-11 -8.91515e-11 0)
(-4.80596e-09 -9.4986e-11 0)
(-3.49276e-09 -1.06876e-10 0)
(1.08544e-08 1.32303e-10 0)
(1.5123e-08 3.07977e-10 0)
(8.44513e-11 3.9175e-10 0)
(-1.49979e-08 3.08272e-10 0)
(-1.08e-08 1.33624e-10 0)
(1.85859e-08 -7.90033e-10 0)
(2.61003e-08 -2.92023e-10 0)
(1.74273e-10 -3.16445e-11 0)
(-2.58521e-08 -2.90144e-10 0)
(-1.84887e-08 -7.8711e-10 0)
(2.66928e-08 -1.43646e-10 0)
(3.777e-08 9.18805e-10 0)
(2.91125e-10 1.46259e-09 0)
(-3.7404e-08 9.23358e-10 0)
(-2.65853e-08 -1.38108e-10 0)
(3.51774e-08 -2.05213e-09 0)
(5.01436e-08 -2.74359e-10 0)
(4.34405e-10 6.69911e-10 0)
(-4.96888e-08 -2.65331e-10 0)
(-3.51148e-08 -2.04237e-09 0)
(4.40577e-08 -9.88052e-10 0)
(6.32502e-08 1.80531e-09 0)
(6.05082e-10 3.27485e-09 0)
(-6.27236e-08 1.82174e-09 0)
(-4.40843e-08 -9.75527e-10 0)
(5.3359e-08 -3.96707e-09 0)
(7.71264e-08 -1.18432e-11 0)
(8.04399e-10 2.12139e-09 0)
(-7.65347e-08 1.56077e-11 0)
(-5.351e-08 -3.95013e-09 0)
(6.30965e-08 -2.43464e-09 0)
(9.1799e-08 3.05233e-09 0)
(1.03342e-09 5.99589e-09 0)
(-9.11461e-08 3.09489e-09 0)
(-6.34055e-08 -2.41501e-09 0)
(7.32952e-08 -6.824e-09 0)
(1.07305e-07 3.37676e-10 0)
(1.29333e-09 4.25416e-09 0)
(-1.06594e-07 4.00795e-10 0)
(-7.37952e-08 -6.80435e-09 0)
(8.39691e-08 -5.47157e-09 0)
(1.23672e-07 3.81198e-09 0)
(1.58529e-09 8.87218e-09 0)
(-1.22905e-07 3.90111e-09 0)
(-8.46956e-08 -5.44481e-09 0)
(9.51446e-08 -1.17986e-08 0)
(1.4094e-07 -2.56675e-10 0)
(1.91041e-09 6.14023e-09 0)
(-1.4012e-07 -1.34192e-10 0)
(-9.61346e-08 -1.17838e-08 0)
(1.06837e-07 -5.37135e-09 0)
(1.59136e-07 8.96646e-09 0)
(2.26999e-09 1.69118e-08 0)
(-1.5827e-07 9.12973e-09 0)
(-1.0813e-07 -5.34453e-09 0)
(1.19076e-07 4.42564e-09 0)
(1.78307e-07 2.17571e-08 0)
(2.66528e-09 3.14757e-08 0)
(-1.77398e-07 2.19718e-08 0)
(-1.20712e-07 4.44785e-09 0)
(1.31881e-07 2.48289e-08 0)
(1.98484e-07 4.57509e-08 0)
(3.09771e-09 5.74667e-08 0)
(-1.97537e-07 4.60273e-08 0)
(-1.33902e-07 2.4809e-08 0)
(1.45279e-07 -8.51792e-08 0)
(2.19714e-07 -6.07337e-08 0)
(3.56865e-09 -4.6854e-08 0)
(-2.18737e-07 -6.03905e-08 0)
(-1.47731e-07 -8.51459e-08 0)
(1.5929e-07 -5.28929e-07 0)
(2.42029e-07 -5.01222e-07 0)
(4.07958e-09 -4.85376e-07 0)
(-2.41025e-07 -5.00829e-07 0)
(-1.62218e-07 -5.2911e-07 0)
(1.7393e-07 -9.78406e-07 0)
(2.65459e-07 -9.47212e-07 0)
(4.63163e-09 -9.29576e-07 0)
(-2.64448e-07 -9.46782e-07 0)
(-1.77396e-07 -9.7828e-07 0)
(1.89232e-07 1.69124e-06 0)
(2.90049e-07 1.73326e-06 0)
(5.22663e-09 1.75602e-06 0)
(-2.8905e-07 1.73392e-06 0)
(-1.93298e-07 1.69178e-06 0)
(2.05355e-07 1.33723e-05 0)
(3.16034e-07 1.34441e-05 0)
(5.96872e-09 1.34842e-05 0)
(-3.14921e-07 1.34457e-05 0)
(-2.10043e-07 1.33724e-05 0)
(2.22512e-07 2.47679e-05 0)
(3.43611e-07 2.48885e-05 0)
(6.66338e-09 2.49628e-05 0)
(-3.42489e-07 2.48921e-05 0)
(-2.2788e-07 2.47669e-05 0)
(2.41022e-07 -4.70856e-05 0)
(3.7373e-07 -4.71164e-05 0)
(7.362e-09 -4.71219e-05 0)
(-3.72535e-07 -4.71177e-05 0)
(-2.47012e-07 -4.70917e-05 0)
(2.57757e-07 -0.000343177 0)
(4.01026e-07 -0.000343437 0)
(7.99828e-09 -0.000343587 0)
(-3.99702e-07 -0.000343447 0)
(-2.64255e-07 -0.000343187 0)
(2.6015e-07 -0.000800825 0)
(4.04721e-07 -0.000800728 0)
(8.08234e-09 -0.000800685 0)
(-4.03162e-07 -0.000800726 0)
(-2.66497e-07 -0.000800836 0)
(2.52449e-07 -0.00184743 0)
(3.93435e-07 -0.00184726 0)
(8.45665e-09 -0.00184716 0)
(-3.8902e-07 -0.00184725 0)
(-2.56297e-07 -0.00184745 0)
(2.41508e-07 -0.00114993 0)
(3.7718e-07 -0.00115001 0)
(8.95649e-09 -0.00115004 0)
(-3.69901e-07 -0.00115002 0)
(-2.42977e-07 -0.00114994 0)
(2.3056e-07 -0.00106839 0)
(3.60745e-07 -0.00106843 0)
(8.8532e-09 -0.00106845 0)
(-3.52848e-07 -0.00106843 0)
(-2.31295e-07 -0.0010684 0)
(2.20006e-07 -0.00108309 0)
(3.44813e-07 -0.0010831 0)
(8.56171e-09 -0.00108311 0)
(-3.3699e-07 -0.0010831 0)
(-2.20511e-07 -0.0010831 0)
(2.09837e-07 -0.0011028 0)
(3.29434e-07 -0.0011028 0)
(8.28471e-09 -0.0011028 0)
(-3.2167e-07 -0.0011028 0)
(-2.10114e-07 -0.00110281 0)
(1.99934e-07 -0.00110697 0)
(3.14439e-07 -0.00110696 0)
(8.02143e-09 -0.00110696 0)
(-3.06712e-07 -0.00110696 0)
(-1.99977e-07 -0.00110698 0)
(1.90297e-07 -0.00110618 0)
(2.99817e-07 -0.00110617 0)
(7.76446e-09 -0.00110616 0)
(-2.92131e-07 -0.00110617 0)
(-1.90116e-07 -0.00110619 0)
(1.80944e-07 -0.0011054 0)
(2.85589e-07 -0.00110538 0)
(7.51314e-09 -0.00110537 0)
(-2.77948e-07 -0.00110538 0)
(-1.80552e-07 -0.00110541 0)
(1.71877e-07 -0.00110523 0)
(2.71759e-07 -0.00110521 0)
(7.26773e-09 -0.00110519 0)
(-2.64169e-07 -0.00110521 0)
(-1.71285e-07 -0.00110524 0)
(1.6309e-07 -0.00110527 0)
(2.58323e-07 -0.00110524 0)
(7.02828e-09 -0.00110522 0)
(-2.50787e-07 -0.00110524 0)
(-1.62311e-07 -0.00110528 0)
(1.54579e-07 -0.0011053 0)
(2.45276e-07 -0.00110527 0)
(6.79475e-09 -0.00110525 0)
(-2.378e-07 -0.00110527 0)
(-1.53624e-07 -0.00110532 0)
(1.4634e-07 -0.00110532 0)
(2.32615e-07 -0.00110527 0)
(6.5671e-09 -0.00110525 0)
(-2.25201e-07 -0.00110527 0)
(-1.45219e-07 -0.00110533 0)
(1.3837e-07 -0.00110532 0)
(2.20335e-07 -0.00110527 0)
(6.34527e-09 -0.00110524 0)
(-2.12988e-07 -0.00110527 0)
(-1.37094e-07 -0.00110533 0)
(1.30664e-07 -0.00110532 0)
(2.08434e-07 -0.00110527 0)
(6.1292e-09 -0.00110524 0)
(-2.01158e-07 -0.00110527 0)
(-1.29244e-07 -0.00110533 0)
(1.23219e-07 -0.00110532 0)
(1.96907e-07 -0.00110527 0)
(5.91882e-09 -0.00110523 0)
(-1.89705e-07 -0.00110527 0)
(-1.21665e-07 -0.00110533 0)
(1.16031e-07 -0.00110533 0)
(1.85751e-07 -0.00110527 0)
(5.71407e-09 -0.00110523 0)
(-1.78626e-07 -0.00110527 0)
(-1.14352e-07 -0.00110534 0)
(1.09096e-07 -0.00110533 0)
(1.74961e-07 -0.00110527 0)
(5.51488e-09 -0.00110523 0)
(-1.67916e-07 -0.00110527 0)
(-1.07302e-07 -0.00110534 0)
(1.0241e-07 -0.00110533 0)
(1.64533e-07 -0.00110526 0)
(5.32117e-09 -0.00110522 0)
(-1.57571e-07 -0.00110526 0)
(-1.0051e-07 -0.00110534 0)
(9.59688e-08 -0.00110534 0)
(1.54462e-07 -0.00110526 0)
(5.13289e-09 -0.00110522 0)
(-1.47586e-07 -0.00110526 0)
(-9.39715e-08 -0.00110534 0)
(8.97685e-08 -0.00110534 0)
(1.44744e-07 -0.00110526 0)
(4.94994e-09 -0.00110522 0)
(-1.37957e-07 -0.00110526 0)
(-8.76826e-08 -0.00110535 0)
(8.38048e-08 -0.00110534 0)
(1.35375e-07 -0.00110526 0)
(4.77225e-09 -0.00110521 0)
(-1.28678e-07 -0.00110526 0)
(-8.16384e-08 -0.00110535 0)
(7.80734e-08 -0.00110534 0)
(1.26348e-07 -0.00110526 0)
(4.59973e-09 -0.00110521 0)
(-1.19744e-07 -0.00110526 0)
(-7.58345e-08 -0.00110535 0)
(7.257e-08 -0.00110534 0)
(1.1766e-07 -0.00110526 0)
(4.4323e-09 -0.00110521 0)
(-1.11151e-07 -0.00110526 0)
(-7.02663e-08 -0.00110535 0)
(6.72903e-08 -0.00110535 0)
(1.09304e-07 -0.00110526 0)
(4.26986e-09 -0.00110521 0)
(-1.02893e-07 -0.00110526 0)
(-6.49291e-08 -0.00110536 0)
(6.22299e-08 -0.00110535 0)
(1.01276e-07 -0.00110526 0)
(4.11232e-09 -0.0011052 0)
(-9.49647e-08 -0.00110526 0)
(-5.98183e-08 -0.00110536 0)
(5.73844e-08 -0.00110535 0)
(9.35713e-08 -0.00110526 0)
(3.95958e-09 -0.0011052 0)
(-8.73604e-08 -0.00110526 0)
(-5.49291e-08 -0.00110536 0)
(5.27493e-08 -0.00110535 0)
(8.61829e-08 -0.00110526 0)
(3.81154e-09 -0.0011052 0)
(-8.00747e-08 -0.00110526 0)
(-5.0257e-08 -0.00110536 0)
(4.83201e-08 -0.00110535 0)
(7.9106e-08 -0.00110526 0)
(3.66809e-09 -0.0011052 0)
(-7.31017e-08 -0.00110526 0)
(-4.5797e-08 -0.00110536 0)
(4.40923e-08 -0.00110536 0)
(7.23346e-08 -0.00110526 0)
(3.52913e-09 -0.0011052 0)
(-6.64358e-08 -0.00110526 0)
(-4.15444e-08 -0.00110536 0)
(4.00614e-08 -0.00110536 0)
(6.58631e-08 -0.00110526 0)
(3.39454e-09 -0.00110519 0)
(-6.0071e-08 -0.00110526 0)
(-3.74944e-08 -0.00110537 0)
(3.62227e-08 -0.00110536 0)
(5.96855e-08 -0.00110526 0)
(3.26422e-09 -0.00110519 0)
(-5.40014e-08 -0.00110525 0)
(-3.36422e-08 -0.00110537 0)
(3.25716e-08 -0.00110536 0)
(5.37959e-08 -0.00110526 0)
(3.13805e-09 -0.00110519 0)
(-4.82208e-08 -0.00110525 0)
(-2.9983e-08 -0.00110537 0)
(2.91037e-08 -0.00110536 0)
(4.81881e-08 -0.00110525 0)
(3.01593e-09 -0.00110519 0)
(-4.27231e-08 -0.00110525 0)
(-2.65119e-08 -0.00110537 0)
(2.58141e-08 -0.00110536 0)
(4.28561e-08 -0.00110525 0)
(2.89772e-09 -0.00110519 0)
(-3.75021e-08 -0.00110525 0)
(-2.3224e-08 -0.00110537 0)
(2.26984e-08 -0.00110536 0)
(3.77936e-08 -0.00110525 0)
(2.78333e-09 -0.00110519 0)
(-3.25514e-08 -0.00110525 0)
(-2.01145e-08 -0.00110537 0)
(1.97518e-08 -0.00110536 0)
(3.29943e-08 -0.00110525 0)
(2.67264e-09 -0.00110519 0)
(-2.78647e-08 -0.00110525 0)
(-1.71785e-08 -0.00110537 0)
(1.69697e-08 -0.00110536 0)
(2.84518e-08 -0.00110525 0)
(2.56553e-09 -0.00110519 0)
(-2.34355e-08 -0.00110525 0)
(-1.44112e-08 -0.00110537 0)
(1.43474e-08 -0.00110536 0)
(2.41597e-08 -0.00110525 0)
(2.46191e-09 -0.00110519 0)
(-1.92573e-08 -0.00110525 0)
(-1.18076e-08 -0.00110537 0)
(1.18803e-08 -0.00110536 0)
(2.01116e-08 -0.00110525 0)
(2.36164e-09 -0.00110518 0)
(-1.53236e-08 -0.00110525 0)
(-9.363e-09 -0.00110537 0)
(9.56374e-09 -0.00110536 0)
(1.63009e-08 -0.00110525 0)
(2.26464e-09 -0.00110518 0)
(-1.16278e-08 -0.00110525 0)
(-7.07245e-09 -0.00110537 0)
(7.39305e-09 -0.00110537 0)
(1.27209e-08 -0.00110525 0)
(2.17079e-09 -0.00110518 0)
(-8.1631e-09 -0.00110525 0)
(-4.93111e-09 -0.00110537 0)
(5.3636e-09 -0.00110537 0)
(9.36514e-09 -0.00110525 0)
(2.07998e-09 -0.00110518 0)
(-4.92292e-09 -0.00110525 0)
(-2.93416e-09 -0.00110537 0)
(3.47076e-09 -0.00110537 0)
(6.22686e-09 -0.00110525 0)
(1.99212e-09 -0.00110518 0)
(-1.90049e-09 -0.00110525 0)
(-1.07678e-09 -0.00110537 0)
(1.7099e-09 -0.00110537 0)
(3.29936e-09 -0.00110525 0)
(1.90711e-09 -0.00110518 0)
(9.10982e-10 -0.00110525 0)
(6.45846e-10 -0.00110537 0)
(7.6411e-11 -0.00110537 0)
(5.75908e-10 -0.00110525 0)
(1.82484e-09 -0.00110518 0)
(3.5183e-09 -0.00110525 0)
(2.2385e-09 -0.00110537 0)
(-1.4343e-09 -0.00110537 0)
(-1.95027e-09 -0.00110525 0)
(1.74522e-09 -0.00110518 0)
(5.92831e-09 -0.00110525 0)
(3.70595e-09 -0.00110537 0)
(-2.82682e-09 -0.00110537 0)
(-4.28597e-09 -0.00110525 0)
(1.66816e-09 -0.00110518 0)
(8.14787e-09 -0.00110525 0)
(5.05295e-09 -0.00110537 0)
(-4.1057e-09 -0.00110537 0)
(-6.43801e-09 -0.00110525 0)
(1.59357e-09 -0.00110518 0)
(1.01839e-08 -0.00110525 0)
(6.28423e-09 -0.00110537 0)
(-5.2755e-09 -0.00110537 0)
(-8.41323e-09 -0.00110525 0)
(1.52134e-09 -0.00110518 0)
(1.20432e-08 -0.00110525 0)
(7.40449e-09 -0.00110537 0)
(-6.34075e-09 -0.00110537 0)
(-1.02185e-08 -0.00110525 0)
(1.45141e-09 -0.00110518 0)
(1.37328e-08 -0.00110525 0)
(8.41842e-09 -0.00110537 0)
(-7.30595e-09 -0.00110536 0)
(-1.18607e-08 -0.00110525 0)
(1.38367e-09 -0.00110519 0)
(1.52597e-08 -0.00110525 0)
(9.33068e-09 -0.00110537 0)
(-8.1756e-09 -0.00110536 0)
(-1.33467e-08 -0.00110525 0)
(1.31804e-09 -0.00110519 0)
(1.66307e-08 -0.00110525 0)
(1.01459e-08 -0.00110537 0)
(-8.95418e-09 -0.00110536 0)
(-1.46835e-08 -0.00110525 0)
(1.25443e-09 -0.00110519 0)
(1.78528e-08 -0.00110525 0)
(1.08687e-08 -0.00110537 0)
(-9.64616e-09 -0.00110536 0)
(-1.58779e-08 -0.00110525 0)
(1.19277e-09 -0.00110519 0)
(1.89331e-08 -0.00110525 0)
(1.15038e-08 -0.00110537 0)
(-1.0256e-08 -0.00110536 0)
(-1.6937e-08 -0.00110525 0)
(1.13297e-09 -0.00110519 0)
(1.98785e-08 -0.00110525 0)
(1.20555e-08 -0.00110537 0)
(-1.07881e-08 -0.00110536 0)
(-1.78677e-08 -0.00110525 0)
(1.07495e-09 -0.00110519 0)
(2.06961e-08 -0.00110525 0)
(1.25287e-08 -0.00110537 0)
(-1.1247e-08 -0.00110536 0)
(-1.8677e-08 -0.00110525 0)
(1.01863e-09 -0.00110519 0)
(2.13929e-08 -0.00110525 0)
(1.29277e-08 -0.00110537 0)
(-1.1637e-08 -0.00110536 0)
(-1.9372e-08 -0.00110525 0)
(9.63927e-10 -0.00110519 0)
(2.1976e-08 -0.00110525 0)
(1.32572e-08 -0.00110537 0)
(-1.19626e-08 -0.00110536 0)
(-1.99597e-08 -0.00110526 0)
(9.10758e-10 -0.00110519 0)
(2.24526e-08 -0.00110525 0)
(1.35218e-08 -0.00110537 0)
(-1.22282e-08 -0.00110536 0)
(-2.04472e-08 -0.00110526 0)
(8.59046e-10 -0.00110519 0)
(2.28296e-08 -0.00110525 0)
(1.37258e-08 -0.00110537 0)
(-1.24383e-08 -0.00110536 0)
(-2.08417e-08 -0.00110526 0)
(8.08709e-10 -0.00110519 0)
(2.31145e-08 -0.00110525 0)
(1.3874e-08 -0.00110536 0)
(-1.25974e-08 -0.00110536 0)
(-2.11504e-08 -0.00110526 0)
(7.59667e-10 -0.00110519 0)
(2.33144e-08 -0.00110526 0)
(1.39709e-08 -0.00110536 0)
(-1.271e-08 -0.00110536 0)
(-2.13806e-08 -0.00110526 0)
(7.11838e-10 -0.00110519 0)
(2.34366e-08 -0.00110526 0)
(1.40211e-08 -0.00110536 0)
(-1.27805e-08 -0.00110536 0)
(-2.15397e-08 -0.00110526 0)
(6.65139e-10 -0.00110519 0)
(2.34885e-08 -0.00110526 0)
(1.40293e-08 -0.00110536 0)
(-1.28136e-08 -0.00110536 0)
(-2.16352e-08 -0.00110526 0)
(6.19486e-10 -0.00110519 0)
(2.34776e-08 -0.00110526 0)
(1.4e-08 -0.00110536 0)
(-1.2814e-08 -0.00110536 0)
(-2.16746e-08 -0.00110526 0)
(5.74791e-10 -0.0011052 0)
(2.34116e-08 -0.00110526 0)
(1.39382e-08 -0.00110536 0)
(-1.27863e-08 -0.00110536 0)
(-2.16656e-08 -0.00110526 0)
(5.30967e-10 -0.0011052 0)
(2.32982e-08 -0.00110526 0)
(1.38485e-08 -0.00110536 0)
(-1.27354e-08 -0.00110536 0)
(-2.16161e-08 -0.00110526 0)
(4.8792e-10 -0.0011052 0)
(2.31452e-08 -0.00110526 0)
(1.3736e-08 -0.00110536 0)
(-1.26662e-08 -0.00110536 0)
(-2.15342e-08 -0.00110526 0)
(4.45556e-10 -0.0011052 0)
(2.29607e-08 -0.00110526 0)
(1.36055e-08 -0.00110536 0)
(-1.25836e-08 -0.00110535 0)
(-2.14281e-08 -0.00110526 0)
(4.03773e-10 -0.0011052 0)
(2.2753e-08 -0.00110526 0)
(1.34623e-08 -0.00110536 0)
(-1.2493e-08 -0.00110535 0)
(-2.13062e-08 -0.00110526 0)
(3.62465e-10 -0.0011052 0)
(2.25305e-08 -0.00110526 0)
(1.33116e-08 -0.00110536 0)
(-1.23997e-08 -0.00110535 0)
(-2.11774e-08 -0.00110526 0)
(3.21519e-10 -0.0011052 0)
(2.2302e-08 -0.00110526 0)
(1.31589e-08 -0.00110536 0)
(-1.23092e-08 -0.00110535 0)
(-2.10507e-08 -0.00110526 0)
(2.80814e-10 -0.0011052 0)
(2.20764e-08 -0.00110526 0)
(1.30097e-08 -0.00110536 0)
(-1.22272e-08 -0.00110535 0)
(-2.09353e-08 -0.00110526 0)
(2.40219e-10 -0.0011052 0)
(2.18632e-08 -0.00110526 0)
(1.28701e-08 -0.00110536 0)
(-1.21601e-08 -0.00110535 0)
(-2.08417e-08 -0.00110526 0)
(1.99577e-10 -0.0011052 0)
(2.16725e-08 -0.00110526 0)
(1.27464e-08 -0.00110536 0)
(-1.21153e-08 -0.00110535 0)
(-2.07815e-08 -0.00110526 0)
(1.58929e-10 -0.0011052 0)
(2.15165e-08 -0.00110526 0)
(1.26462e-08 -0.00110535 0)
(-1.20971e-08 -0.00110535 0)
(-2.07609e-08 -0.00110526 0)
(1.23845e-10 -0.0011052 0)
(2.14127e-08 -0.00110526 0)
(1.25799e-08 -0.00110535 0)
)
;

boundaryField
{
    BotWall
    {
        type            fixedValue;
        value           uniform (0 0 0);
    }
    FreeStream
    {
        type            zeroGradient;
    }
    FrontNBack
    {
        type            empty;
    }
    LeftSide
    {
        type            symmetryPlane;
    }
    RightSide
    {
        type            symmetryPlane;
    }
}


// ************************************************************************* //
