/*--------------------------------*- C++ -*----------------------------------*\
| =========                 |                                                 |
| \\      /  F ield         | OpenFOAM: The Open Source CFD Toolbox           |
|  \\    /   O peration     | Version:  2.4.0                                 |
|   \\  /    A nd           | Web:      www.OpenFOAM.org                      |
|    \\/     M anipulation  |                                                 |
\*---------------------------------------------------------------------------*/
FoamFile
{
    version     2.0;
    format      ascii;
    class       volVectorField;
    location    "3.2";
    object      U;
}
// * * * * * * * * * * * * * * * * * * * * * * * * * * * * * * * * * * * * * //

dimensions      [0 1 -1 0 0 0 0];

internalField   nonuniform List<vector> 
8000
(
(9.57997e-07 -0.000308242 0)
(5.70422e-06 -0.000905178 0)
(1.43783e-05 -0.00148006 0)
(2.65485e-05 -0.00203055 0)
(4.21837e-05 -0.00255592 0)
(6.11231e-05 -0.00305666 0)
(8.34041e-05 -0.0035332 0)
(0.000108831 -0.0039861 0)
(0.000137451 -0.00441556 0)
(0.000169052 -0.0048224 0)
(0.000203722 -0.00520678 0)
(0.00024109 -0.00557011 0)
(0.000281747 -0.00591239 0)
(0.000324501 -0.00623575 0)
(0.000370768 -0.00654019 0)
(0.000418907 -0.00682933 0)
(0.000470058 -0.00710216 0)
(0.000531986 -0.00736679 0)
(0.000585526 -0.00761687 0)
(0.000592347 -0.00786901 0)
(0.000544978 -0.00810374 0)
(0.000506342 -0.00833132 0)
(0.000506145 -0.00848414 0)
(0.000501244 -0.00853902 0)
(0.000493441 -0.00858511 0)
(0.000480345 -0.00864324 0)
(0.000457651 -0.00870067 0)
(0.000428242 -0.00875688 0)
(0.000387853 -0.00881011 0)
(0.000336208 -0.00886199 0)
(0.000270448 -0.00891055 0)
(0.000192542 -0.0089544 0)
(0.000105147 -0.00900602 0)
(1.16363e-05 -0.00910055 0)
(-9.04458e-05 -0.00928429 0)
(-0.000201262 -0.00961193 0)
(-0.000319149 -0.0101449 0)
(-0.000437522 -0.0108943 0)
(-0.00053061 -0.0117335 0)
(-0.000625026 -0.0124375 0)
(-0.000780515 -0.0128938 0)
(-0.000927882 -0.0134172 0)
(-0.00104179 -0.0139785 0)
(-0.00113781 -0.0145451 0)
(-0.00123337 -0.0151282 0)
(-0.00133692 -0.0157355 0)
(-0.00144989 -0.0163699 0)
(-0.00157205 -0.0170278 0)
(-0.00170342 -0.0177085 0)
(-0.00184392 -0.0184122 0)
(1.48758e-07 -0.000349385 0)
(1.34125e-06 -0.00101397 0)
(3.90173e-06 -0.00164624 0)
(7.53109e-06 -0.00224814 0)
(1.2187e-05 -0.00282042 0)
(1.78191e-05 -0.00336346 0)
(2.43457e-05 -0.00387759 0)
(3.17044e-05 -0.00436328 0)
(3.98183e-05 -0.00482086 0)
(4.85426e-05 -0.0052508 0)
(5.78145e-05 -0.00565336 0)
(6.74301e-05 -0.00602888 0)
(7.72316e-05 -0.00637751 0)
(8.71148e-05 -0.00669942 0)
(9.65566e-05 -0.00699464 0)
(0.000105445 -0.00726317 0)
(0.000113357 -0.007505 0)
(0.000119887 -0.00771976 0)
(0.00012838 -0.00790816 0)
(0.000130046 -0.00806786 0)
(0.000104784 -0.00819647 0)
(4.1093e-05 -0.00828879 0)
(-1.67076e-05 -0.00834163 0)
(-4.18416e-05 -0.00834418 0)
(-5.90198e-05 -0.00835726 0)
(-7.11482e-05 -0.00839723 0)
(-8.07653e-05 -0.00843732 0)
(-9.04686e-05 -0.00846265 0)
(-0.000101223 -0.0084781 0)
(-0.000113904 -0.0084901 0)
(-0.000127946 -0.00850571 0)
(-0.000142193 -0.00852913 0)
(-0.00015595 -0.00856654 0)
(-0.000170339 -0.0086233 0)
(-0.000188589 -0.00870846 0)
(-0.000215959 -0.00883174 0)
(-0.000259122 -0.00900576 0)
(-0.000324282 -0.0092482 0)
(-0.000414736 -0.00959357 0)
(-0.000533816 -0.0100869 0)
(-0.000686366 -0.010752 0)
(-0.000815393 -0.0117937 0)
(-0.000907033 -0.012846 0)
(-0.000992145 -0.0135232 0)
(-0.00104034 -0.0139417 0)
(-0.0010922 -0.014429 0)
(-0.00116351 -0.0149385 0)
(-0.00126087 -0.0154487 0)
(-0.00138254 -0.0159723 0)
(-0.00152527 -0.016523 0)
(-4.58088e-07 -0.000331689 0)
(-4.18017e-06 -0.000965379 0)
(-1.12982e-05 -0.00156966 0)
(-2.14856e-05 -0.00214644 0)
(-3.42933e-05 -0.00269707 0)
(-4.93394e-05 -0.00322185 0)
(-6.62939e-05 -0.00372086 0)
(-8.48322e-05 -0.00419416 0)
(-0.000104676 -0.00464172 0)
(-0.000125524 -0.00506371 0)
(-0.00014714 -0.00546012 0)
(-0.000169234 -0.00583112 0)
(-0.000191595 -0.00617665 0)
(-0.00021394 -0.00649678 0)
(-0.000236067 -0.00679136 0)
(-0.000257672 -0.00706038 0)
(-0.000278579 -0.0073037 0)
(-0.000298412 -0.00752112 0)
(-0.000317101 -0.00771266 0)
(-0.000334186 -0.00787817 0)
(-0.000349116 -0.00801734 0)
(-0.00036093 -0.00812799 0)
(-0.000367869 -0.00820868 0)
(-0.000372452 -0.00825955 0)
(-0.000382646 -0.00832209 0)
(-0.000403894 -0.00840014 0)
(-0.000423824 -0.00846481 0)
(-0.000433282 -0.00850234 0)
(-0.000437221 -0.00851641 0)
(-0.000438253 -0.00850896 0)
(-0.000436836 -0.00853568 0)
(-0.000431288 -0.00859324 0)
(-0.000423269 -0.00864966 0)
(-0.000416251 -0.00869629 0)
(-0.000412467 -0.00874279 0)
(-0.000412923 -0.00879384 0)
(-0.000418469 -0.0088519 0)
(-0.000431087 -0.00892057 0)
(-0.000454176 -0.00900691 0)
(-0.00049174 -0.00913112 0)
(-0.000549025 -0.00935048 0)
(-0.000634796 -0.00991181 0)
(-0.00075509 -0.0118559 0)
(-0.00080308 -0.0147949 0)
(-0.000848889 -0.014587 0)
(-0.000994098 -0.0142279 0)
(-0.00116251 -0.014239 0)
(-0.00132135 -0.0142845 0)
(-0.00148003 -0.014396 0)
(-0.00164568 -0.0145818 0)
(-5.70742e-07 -0.000298521 0)
(-5.05248e-06 -0.000874513 0)
(-1.36918e-05 -0.00142838 0)
(-2.60219e-05 -0.00196077 0)
(-4.15646e-05 -0.00247241 0)
(-5.99181e-05 -0.00296332 0)
(-8.07025e-05 -0.00343349 0)
(-0.000103586 -0.00388284 0)
(-0.000128198 -0.00431131 0)
(-0.000154213 -0.0047189 0)
(-0.000181269 -0.00510566 0)
(-0.000209045 -0.00547166 0)
(-0.000237185 -0.00581699 0)
(-0.000265364 -0.00614172 0)
(-0.000293227 -0.006446 0)
(-0.00032043 -0.00672991 0)
(-0.000346617 -0.0069936 0)
(-0.000371419 -0.00723721 0)
(-0.000394469 -0.00746102 0)
(-0.000415367 -0.00766519 0)
(-0.000433699 -0.00785006 0)
(-0.000448924 -0.00801586 0)
(-0.00046063 -0.00816312 0)
(-0.000468501 -0.00829213 0)
(-0.000472916 -0.00840351 0)
(-0.000474724 -0.00849642 0)
(-0.000474063 -0.00856824 0)
(-0.000470995 -0.00861692 0)
(-0.000464479 -0.00864392 0)
(-0.000454216 -0.0086466 0)
(-0.000447581 -0.00867513 0)
(-0.0004524 -0.0087198 0)
(-0.000460063 -0.00874824 0)
(-0.000462436 -0.00874898 0)
(-0.00046292 -0.00873236 0)
(-0.000461517 -0.00876297 0)
(-0.000457603 -0.00881463 0)
(-0.00045367 -0.00886354 0)
(-0.000451686 -0.00891787 0)
(-0.000452288 -0.00898332 0)
(-0.000457383 -0.00907074 0)
(-0.000473499 -0.00920118 0)
(-0.000528828 -0.00944524 0)
(-0.000704391 -0.00995151 0)
(-0.000973161 -0.010486 0)
(-0.00118185 -0.0108003 0)
(-0.00135765 -0.0112568 0)
(-0.00152464 -0.0116511 0)
(-0.00169806 -0.0120507 0)
(-0.00187105 -0.0124592 0)
(-3.39616e-07 -0.000272112 0)
(-3.97437e-06 -0.000799505 0)
(-1.13499e-05 -0.00130929 0)
(-2.21599e-05 -0.00180189 0)
(-3.60348e-05 -0.00227775 0)
(-5.26299e-05 -0.00273686 0)
(-7.16452e-05 -0.00317918 0)
(-9.27916e-05 -0.00360462 0)
(-0.000115783 -0.00401309 0)
(-0.000140331 -0.00440452 0)
(-0.000166161 -0.00477895 0)
(-0.000192991 -0.0051364 0)
(-0.000220556 -0.00547692 0)
(-0.000248583 -0.00580053 0)
(-0.000276819 -0.00610732 0)
(-0.000304999 -0.00639733 0)
(-0.000332877 -0.0066707 0)
(-0.000360195 -0.00692748 0)
(-0.000386724 -0.0071679 0)
(-0.000412212 -0.00739198 0)
(-0.000436448 -0.00760007 0)
(-0.000459189 -0.00779213 0)
(-0.000480252 -0.00796866 0)
(-0.000499408 -0.00812954 0)
(-0.000516501 -0.00827542 0)
(-0.000531276 -0.00840602 0)
(-0.000543503 -0.00852208 0)
(-0.000552747 -0.00862308 0)
(-0.000558724 -0.00871013 0)
(-0.000561295 -0.00878245 0)
(-0.000561047 -0.0088417 0)
(-0.000558767 -0.0088857 0)
(-0.000554433 -0.00891214 0)
(-0.000547252 -0.00891687 0)
(-0.000538709 -0.00890412 0)
(-0.000543143 -0.00893089 0)
(-0.00055404 -0.00896735 0)
(-0.000556391 -0.00898501 0)
(-0.000554428 -0.00903107 0)
(-0.000550164 -0.0090797 0)
(-0.000546309 -0.00912397 0)
(-0.000545242 -0.0091602 0)
(-0.000549722 -0.00919148 0)
(-0.000568089 -0.00923494 0)
(-0.000614644 -0.00931701 0)
(-0.000680783 -0.00940522 0)
(-0.000754335 -0.00950018 0)
(-0.000840822 -0.00960523 0)
(-0.000942402 -0.0097615 0)
(-0.00105858 -0.0100112 0)
(-4.50732e-07 -0.000246041 0)
(-3.68086e-06 -0.000725534 0)
(-9.91197e-06 -0.00119172 0)
(-1.88445e-05 -0.00164466 0)
(-3.02056e-05 -0.00208449 0)
(-4.37572e-05 -0.00251105 0)
(-5.92924e-05 -0.00292423 0)
(-7.66073e-05 -0.00332385 0)
(-9.54942e-05 -0.00370978 0)
(-0.000115739 -0.00408187 0)
(-0.000137135 -0.00444007 0)
(-0.000159471 -0.00478435 0)
(-0.000182544 -0.00511465 0)
(-0.000206144 -0.00543097 0)
(-0.000230077 -0.00573327 0)
(-0.000254132 -0.00602159 0)
(-0.000278125 -0.00629593 0)
(-0.000301849 -0.00655635 0)
(-0.00032513 -0.00680288 0)
(-0.000347765 -0.00703561 0)
(-0.000369597 -0.00725461 0)
(-0.000390426 -0.00746001 0)
(-0.000410111 -0.00765188 0)
(-0.000428462 -0.0078304 0)
(-0.000445356 -0.00799568 0)
(-0.000460607 -0.00814792 0)
(-0.00047411 -0.00828727 0)
(-0.00048568 -0.00841397 0)
(-0.000495228 -0.00852826 0)
(-0.000502579 -0.00863037 0)
(-0.000507653 -0.00872064 0)
(-0.00051023 -0.00879923 0)
(-0.000510086 -0.0088665 0)
(-0.000506962 -0.00892259 0)
(-0.000500922 -0.00896817 0)
(-0.000492597 -0.00900314 0)
(-0.000482518 -0.0090267 0)
(-0.000470182 -0.00903382 0)
(-0.00045887 -0.00906689 0)
(-0.000455071 -0.00909972 0)
(-0.000452476 -0.00914219 0)
(-0.000445054 -0.00917315 0)
(-0.000436404 -0.00919722 0)
(-0.000427439 -0.00922037 0)
(-0.000418028 -0.00925272 0)
(-0.000413323 -0.00929391 0)
(-0.000413778 -0.00933769 0)
(-0.000416695 -0.00938941 0)
(-0.000422463 -0.00946211 0)
(-0.000433535 -0.00957206 0)
(-5.90578e-08 -0.000232353 0)
(-1.6231e-06 -0.000685648 0)
(-5.07092e-06 -0.00112718 0)
(-1.03496e-05 -0.00155708 0)
(-1.73259e-05 -0.00197546 0)
(-2.58591e-05 -0.00238229 0)
(-3.58181e-05 -0.00277753 0)
(-4.70752e-05 -0.00316111 0)
(-5.94903e-05 -0.00353297 0)
(-7.29218e-05 -0.00389309 0)
(-8.72193e-05 -0.00424142 0)
(-0.000102234 -0.00457797 0)
(-0.000117811 -0.00490273 0)
(-0.000133799 -0.00521568 0)
(-0.000150039 -0.00551683 0)
(-0.00016638 -0.00580619 0)
(-0.000182663 -0.00608378 0)
(-0.000198736 -0.0063496 0)
(-0.000214447 -0.0066037 0)
(-0.000229644 -0.00684609 0)
(-0.000244181 -0.00707684 0)
(-0.000257911 -0.00729595 0)
(-0.000270697 -0.00750353 0)
(-0.000282397 -0.00769958 0)
(-0.000292887 -0.00788423 0)
(-0.00030203 -0.00805749 0)
(-0.000309717 -0.00821951 0)
(-0.000315819 -0.00837031 0)
(-0.000320246 -0.00851007 0)
(-0.000322874 -0.00863879 0)
(-0.000323636 -0.00875673 0)
(-0.000322417 -0.00886384 0)
(-0.000319169 -0.00896045 0)
(-0.000313785 -0.0090465 0)
(-0.000306225 -0.00912241 0)
(-0.000296362 -0.00918801 0)
(-0.000284143 -0.00924379 0)
(-0.000269513 -0.0092894 0)
(-0.000252922 -0.00932555 0)
(-0.000235333 -0.00935152 0)
(-0.000220462 -0.00938615 0)
(-0.000208942 -0.00940885 0)
(-0.000197466 -0.00942143 0)
(-0.000184279 -0.00942711 0)
(-0.000167118 -0.00943396 0)
(-0.000150601 -0.00944708 0)
(-0.000140523 -0.00946555 0)
(-0.000132215 -0.00949109 0)
(-0.000124188 -0.00953147 0)
(-0.000116941 -0.0096001 0)
(-3.40966e-07 -0.00022046 0)
(-2.5275e-06 -0.000651031 0)
(-6.66508e-06 -0.0010711 0)
(-1.25641e-05 -0.00148079 0)
(-2.00637e-05 -0.00188026 0)
(-2.90311e-05 -0.00226952 0)
(-3.93546e-05 -0.00264861 0)
(-5.092e-05 -0.0030175 0)
(-6.36119e-05 -0.00337622 0)
(-7.73101e-05 -0.00372475 0)
(-9.18993e-05 -0.00406313 0)
(-0.000107257 -0.00439135 0)
(-0.000123271 -0.00470942 0)
(-0.000139817 -0.00501736 0)
(-0.000156786 -0.00531516 0)
(-0.000174055 -0.00560284 0)
(-0.000191519 -0.0058804 0)
(-0.000209056 -0.00614784 0)
(-0.000226568 -0.00640518 0)
(-0.000243935 -0.00665243 0)
(-0.000261071 -0.00688958 0)
(-0.000277856 -0.00711668 0)
(-0.000294215 -0.00733371 0)
(-0.000310033 -0.00754073 0)
(-0.00032525 -0.00773771 0)
(-0.000339751 -0.00792475 0)
(-0.000353494 -0.00810181 0)
(-0.000366365 -0.00826904 0)
(-0.000378341 -0.00842636 0)
(-0.000389305 -0.00857402 0)
(-0.000399255 -0.00871188 0)
(-0.000408068 -0.00884031 0)
(-0.000415764 -0.00895911 0)
(-0.000422222 -0.0090688 0)
(-0.000427444 -0.00916904 0)
(-0.000431159 -0.0092606 0)
(-0.00043307 -0.0093429 0)
(-0.000433421 -0.00941746 0)
(-0.000435679 -0.00948449 0)
(-0.00045158 -0.00951901 0)
(-0.000469019 -0.0095467 0)
(-0.000472708 -0.00957019 0)
(-0.000471106 -0.00958582 0)
(-0.000468317 -0.00959138 0)
(-0.000463863 -0.00959019 0)
(-0.000459411 -0.0095915 0)
(-0.000456894 -0.00959813 0)
(-0.000455412 -0.00961601 0)
(-0.000453435 -0.0096544 0)
(-0.000449433 -0.00973471 0)
(-2.9227e-09 -0.000207282 0)
(-8.35409e-07 -0.000613384 0)
(-2.74678e-06 -0.00101082 0)
(-5.73426e-06 -0.00139959 0)
(-9.73143e-06 -0.00177971 0)
(-1.46617e-05 -0.00215115 0)
(-2.04572e-05 -0.00251389 0)
(-2.70441e-05 -0.00286789 0)
(-3.4349e-05 -0.00321312 0)
(-4.22878e-05 -0.00354956 0)
(-5.07834e-05 -0.0038772 0)
(-5.97448e-05 -0.00419601 0)
(-6.90936e-05 -0.00450597 0)
(-7.87332e-05 -0.00480707 0)
(-8.85871e-05 -0.00509927 0)
(-9.85545e-05 -0.00538257 0)
(-0.000108564 -0.00565691 0)
(-0.000118512 -0.00592227 0)
(-0.000128337 -0.0061786 0)
(-0.000137935 -0.00642589 0)
(-0.000147258 -0.00666404 0)
(-0.000156203 -0.00689309 0)
(-0.000164743 -0.00711289 0)
(-0.000172776 -0.00732351 0)
(-0.000180302 -0.00752477 0)
(-0.000187227 -0.00771679 0)
(-0.000193582 -0.00789933 0)
(-0.00019928 -0.00807263 0)
(-0.000204394 -0.00823634 0)
(-0.000208847 -0.00839091 0)
(-0.000212762 -0.00853582 0)
(-0.000216091 -0.00867186 0)
(-0.000218974 -0.00879819 0)
(-0.00022123 -0.00891613 0)
(-0.000222681 -0.00902435 0)
(-0.000223522 -0.00912545 0)
(-0.00022741 -0.00921882 0)
(-0.000247291 -0.0092912 0)
(-0.000278149 -0.00934684 0)
(-0.000299198 -0.00937301 0)
(-0.000309902 -0.00939628 0)
(-0.000320839 -0.00942713 0)
(-0.000335643 -0.00946835 0)
(-0.000354444 -0.00950757 0)
(-0.000373879 -0.00952297 0)
(-0.000393445 -0.00952399 0)
(-0.000411403 -0.00952295 0)
(-0.000428471 -0.00954045 0)
(-0.000440506 -0.0096052 0)
(-0.000435764 -0.00977526 0)
(-1.35264e-07 -0.000205781 0)
(-8.85864e-07 -0.000608035 0)
(-2.28296e-06 -0.00100109 0)
(-4.25973e-06 -0.0013852 0)
(-6.76815e-06 -0.00176055 0)
(-9.76169e-06 -0.00212733 0)
(-1.31979e-05 -0.00248566 0)
(-1.70219e-05 -0.00283567 0)
(-2.11807e-05 -0.00317744 0)
(-2.56045e-05 -0.00351108 0)
(-3.02354e-05 -0.00383662 0)
(-3.49918e-05 -0.00415415 0)
(-3.98143e-05 -0.00446368 0)
(-4.46097e-05 -0.00476527 0)
(-4.93214e-05 -0.00505889 0)
(-5.38449e-05 -0.0053446 0)
(-5.81314e-05 -0.00562229 0)
(-6.20659e-05 -0.00589201 0)
(-6.56143e-05 -0.00615359 0)
(-6.86516e-05 -0.00640709 0)
(-7.1168e-05 -0.00665223 0)
(-7.30306e-05 -0.00688912 0)
(-7.4265e-05 -0.00711733 0)
(-7.47337e-05 -0.00733702 0)
(-7.45103e-05 -0.00754759 0)
(-7.34584e-05 -0.00774933 0)
(-7.17121e-05 -0.00794135 0)
(-6.91473e-05 -0.00812422 0)
(-6.59785e-05 -0.00829662 0)
(-6.2125e-05 -0.0084596 0)
(-5.78484e-05 -0.00861118 0)
(-5.29051e-05 -0.00875313 0)
(-4.71233e-05 -0.00888253 0)
(-4.06371e-05 -0.00900287 0)
(-3.83374e-05 -0.00911171 0)
(-5.77276e-05 -0.00920507 0)
(-9.93306e-05 -0.00925688 0)
(-0.00013313 -0.00928411 0)
(-0.000150181 -0.00928947 0)
(-0.000167958 -0.00928713 0)
(-0.000192105 -0.0092656 0)
(-0.00022938 -0.00921339 0)
(-0.000307448 -0.00912361 0)
(-0.000472786 -0.00904849 0)
(-0.000673569 -0.00912654 0)
(-0.000795066 -0.00915014 0)
(-0.000861882 -0.00912448 0)
(-0.000896223 -0.00923619 0)
(-0.000861576 -0.0096323 0)
(-0.000745063 -0.0103505 0)
(5.20845e-09 -0.000199711 0)
(-3.02243e-07 -0.000590942 0)
(-1.00374e-06 -0.000974053 0)
(-2.08675e-06 -0.00134924 0)
(-3.50238e-06 -0.00171667 0)
(-5.19943e-06 -0.0020765 0)
(-7.12486e-06 -0.00242885 0)
(-9.22636e-06 -0.00277385 0)
(-1.14479e-05 -0.00311158 0)
(-1.3728e-05 -0.00344216 0)
(-1.60079e-05 -0.00376562 0)
(-1.82151e-05 -0.00408208 0)
(-2.02927e-05 -0.00439153 0)
(-2.21547e-05 -0.00469408 0)
(-2.37513e-05 -0.00498964 0)
(-2.49793e-05 -0.00527833 0)
(-2.58046e-05 -0.00555996 0)
(-2.61034e-05 -0.00583466 0)
(-2.58692e-05 -0.00610209 0)
(-2.49552e-05 -0.00636243 0)
(-2.33997e-05 -0.0066151 0)
(-2.10327e-05 -0.0068604 0)
(-1.79576e-05 -0.00709737 0)
(-1.39829e-05 -0.00732653 0)
(-9.29881e-06 -0.00754641 0)
(-3.70268e-06 -0.00775791 0)
(2.49701e-06 -0.00795879 0)
(9.47438e-06 -0.00815066 0)
(1.68339e-05 -0.0083301 0)
(2.4988e-05 -0.00849984 0)
(3.41156e-05 -0.00865474 0)
(4.43206e-05 -0.00880012 0)
(4.92826e-05 -0.00893067 0)
(2.61275e-05 -0.00904974 0)
(-3.2544e-05 -0.00909245 0)
(-8.58193e-05 -0.0091164 0)
(-0.000113619 -0.00908396 0)
(-0.000144432 -0.00902298 0)
(-0.000196854 -0.00891855 0)
(-0.000310024 -0.00875939 0)
(-0.000568212 -0.00848023 0)
(-0.000952103 -0.00820714 0)
(-0.00117703 -0.00726325 0)
(-0.00108977 -0.00483886 0)
(-0.000987959 -0.00662515 0)
(-0.00109211 -0.00766697 0)
(-0.00111727 -0.00805736 0)
(-0.00100269 -0.00956437 0)
(-0.000848111 -0.0113569 0)
(-0.0006616 -0.0130124 0)
(-4.64165e-08 -0.000199984 0)
(-2.32277e-07 -0.00059146 0)
(-5.31295e-07 -0.000974703 0)
(-8.98796e-07 -0.00135005 0)
(-1.30475e-06 -0.00171779 0)
(-1.70786e-06 -0.00207818 0)
(-2.07993e-06 -0.00243144 0)
(-2.3667e-06 -0.00277774 0)
(-2.54026e-06 -0.00311727 0)
(-2.52823e-06 -0.0034502 0)
(-2.30818e-06 -0.00377663 0)
(-1.78442e-06 -0.00409672 0)
(-9.46946e-07 -0.00441053 0)
(3.30405e-07 -0.0047182 0)
(2.03439e-06 -0.00501969 0)
(4.32823e-06 -0.00531515 0)
(7.15878e-06 -0.00560434 0)
(1.07329e-05 -0.0058875 0)
(1.49355e-05 -0.00616405 0)
(2.00198e-05 -0.00643437 0)
(2.57796e-05 -0.00669738 0)
(3.25134e-05 -0.00695372 0)
(3.98925e-05 -0.00720154 0)
(4.82466e-05 -0.00744202 0)
(5.70797e-05 -0.0076721 0)
(6.66944e-05 -0.00789398 0)
(7.64573e-05 -0.0081027 0)
(8.69865e-05 -0.00830222 0)
(9.84193e-05 -0.00848467 0)
(0.000111112 -0.00865784 0)
(0.000116806 -0.00881243 0)
(8.59539e-05 -0.00895883 0)
(4.72244e-06 -0.00899463 0)
(-7.34348e-05 -0.00901272 0)
(-0.000125756 -0.00891227 0)
(-0.000221763 -0.00873253 0)
(-0.000383911 -0.00856107 0)
(-0.000547199 -0.00827427 0)
(-0.00079282 -0.00744222 0)
(-0.00128507 -0.00605697 0)
(-0.00169455 -0.000235576 0)
(-0.00162631 -0.00466948 0)
(-0.00172899 -0.00859332 0)
(-0.00173156 -0.00632183 0)
(-0.00163254 -0.00717628 0)
(-0.00151279 -0.0089676 0)
(-0.00132288 -0.0105581 0)
(-0.00110484 -0.0121771 0)
(-0.000872347 -0.0138483 0)
(-0.000630516 -0.0155347 0)
(-1.43494e-10 -0.000198248 0)
(-1.17887e-07 -0.000586965 0)
(-3.48506e-07 -0.00096814 0)
(-6.56798e-07 -0.00134207 0)
(-9.99852e-07 -0.00170906 0)
(-1.32438e-06 -0.00206933 0)
(-1.59633e-06 -0.00242312 0)
(-1.76019e-06 -0.00277063 0)
(-1.79176e-06 -0.00311206 0)
(-1.62421e-06 -0.0034476 0)
(-1.24378e-06 -0.0037774 0)
(-5.60165e-07 -0.00410166 0)
(4.25952e-07 -0.00442042 0)
(1.8374e-06 -0.00473394 0)
(3.64997e-06 -0.00504201 0)
(6.02689e-06 -0.00534502 0)
(8.9057e-06 -0.00564234 0)
(1.24914e-05 -0.00593457 0)
(1.66635e-05 -0.00622039 0)
(2.16584e-05 -0.00650079 0)
(2.72748e-05 -0.00677332 0)
(3.37473e-05 -0.00703973 0)
(4.07517e-05 -0.0072958 0)
(4.84197e-05 -0.00754467 0)
(5.63299e-05 -0.00777938 0)
(6.48857e-05 -0.00800544 0)
(7.4726e-05 -0.00821172 0)
(8.60232e-05 -0.00840876 0)
(8.9628e-05 -0.00858265 0)
(4.955e-05 -0.00875158 0)
(-5.23101e-05 -0.00877747 0)
(-0.000155148 -0.00878797 0)
(-0.000253733 -0.00860716 0)
(-0.000496562 -0.00828479 0)
(-0.00088993 -0.00798871 0)
(-0.00100924 -0.00593243 0)
(-0.00124069 -0.00529069 0)
(-0.00186366 -0.00644212 0)
(-0.00313548 0.00622723 0)
(-0.00303893 -0.00209769 0)
(-0.00268358 -0.00256473 0)
(-0.00279965 -0.00399389 0)
(-0.00284407 -0.00601395 0)
(-0.00271401 -0.00783604 0)
(-0.00248671 -0.00966204 0)
(-0.00221072 -0.0115302 0)
(-0.00190375 -0.013434 0)
(-0.00157483 -0.0153611 0)
(-0.0012272 -0.0172891 0)
(-0.00086622 -0.019198 0)
(-5.17942e-08 -0.000197581 0)
(-3.86308e-07 -0.000585413 0)
(-9.30783e-07 -0.000966201 0)
(-1.63042e-06 -0.00134025 0)
(-2.39714e-06 -0.00170782 0)
(-3.22426e-06 -0.00206913 0)
(-4.04443e-06 -0.00242436 0)
(-4.89701e-06 -0.0027737 0)
(-5.70969e-06 -0.00311732 0)
(-6.54716e-06 -0.00345547 0)
(-7.31549e-06 -0.00378825 0)
(-8.08817e-06 -0.00411603 0)
(-8.73861e-06 -0.00443876 0)
(-9.32944e-06 -0.00475695 0)
(-9.69923e-06 -0.00507021 0)
(-9.87514e-06 -0.00537931 0)
(-9.6737e-06 -0.00568316 0)
(-9.05725e-06 -0.00598297 0)
(-7.85278e-06 -0.00627642 0)
(-5.9329e-06 -0.00656551 0)
(-3.21749e-06 -0.00684588 0)
(4.68922e-07 -0.00712089 0)
(5.06993e-06 -0.00738302 0)
(1.13057e-05 -0.00763784 0)
(2.0164e-05 -0.007873 0)
(3.24575e-05 -0.00809867 0)
(3.76919e-05 -0.00829874 0)
(-5.88285e-06 -0.00849989 0)
(-0.000131928 -0.00854245 0)
(-0.000274425 -0.00857298 0)
(-0.000413002 -0.00836513 0)
(-0.000623955 -0.00810129 0)
(-0.00084295 -0.00702071 0)
(-0.000933512 0.00143353 0)
(-0.00138683 -0.00772324 0)
(-0.00250421 -0.00275873 0)
(-0.0028518 0.0119107 0)
(-0.00316671 0.0055317 0)
(-0.00292353 0.00272023 0)
(-0.00275241 -0.000349034 0)
(-0.00259754 -0.00328945 0)
(-0.00235178 -0.0060583 0)
(-0.002053 -0.00872746 0)
(-0.00171324 -0.0112979 0)
(-0.00133816 -0.0137768 0)
(-0.000935992 -0.016138 0)
(-0.000513075 -0.0183907 0)
(-7.98133e-05 -0.0205548 0)
(0.000359919 -0.0226383 0)
(0.000800073 -0.024634 0)
(9.56171e-09 -0.000193603 0)
(4.72627e-07 -0.000575767 0)
(1.52007e-06 -0.000952641 0)
(3.09858e-06 -0.00132387 0)
(5.1486e-06 -0.00168935 0)
(7.51952e-06 -0.00204878 0)
(1.01553e-05 -0.00240233 0)
(1.28741e-05 -0.00274973 0)
(1.56397e-05 -0.00309147 0)
(1.82576e-05 -0.00342731 0)
(2.07205e-05 -0.00375806 0)
(2.28468e-05 -0.0040835 0)
(2.46647e-05 -0.0044047 0)
(2.60413e-05 -0.00472139 0)
(2.70395e-05 -0.00503484 0)
(2.7624e-05 -0.00534465 0)
(2.78853e-05 -0.00565199 0)
(2.79517e-05 -0.00595648 0)
(2.78943e-05 -0.00625847 0)
(2.80391e-05 -0.00655797 0)
(2.83756e-05 -0.00685324 0)
(2.99984e-05 -0.00714546 0)
(3.40877e-05 -0.00742827 0)
(4.33169e-05 -0.00770634 0)
(4.89874e-05 -0.00796891 0)
(1.16307e-05 -0.00824028 0)
(-0.000134837 -0.00827644 0)
(-0.000318061 -0.00830047 0)
(-0.000501064 -0.00806066 0)
(-0.000774681 -0.00773151 0)
(-0.000757478 -0.00470007 0)
(-0.000777971 -0.00345392 0)
(-0.00158005 -0.00748019 0)
(-0.00211839 0.0121639 0)
(-0.00229177 0.00934609 0)
(-0.00251006 0.00603827 0)
(-0.0021723 0.00334001 0)
(-0.0015928 0.00045501 0)
(-0.00103933 -0.00251968 0)
(-0.000502893 -0.00548335 0)
(1.50044e-05 -0.00838711 0)
(0.000521243 -0.011192 0)
(0.00101688 -0.0139827 0)
(0.00150325 -0.0167555 0)
(0.00198439 -0.0193995 0)
(0.0024515 -0.0218877 0)
(0.00290675 -0.0241904 0)
(0.00335263 -0.0263455 0)
(0.00377904 -0.0283535 0)
(0.00418633 -0.0302223 0)
(3.19586e-07 -0.000205208 0)
(2.67759e-06 -0.000607963 0)
(6.93558e-06 -0.00100271 0)
(1.27132e-05 -0.00138889 0)
(1.95704e-05 -0.00176644 0)
(2.71343e-05 -0.00213495 0)
(3.50623e-05 -0.0024948 0)
(4.30438e-05 -0.00284565 0)
(5.07667e-05 -0.00318841 0)
(5.79338e-05 -0.00352261 0)
(6.42482e-05 -0.00384982 0)
(6.94038e-05 -0.00416929 0)
(7.31146e-05 -0.00448346 0)
(7.50476e-05 -0.00479103 0)
(7.49334e-05 -0.00509551 0)
(7.24097e-05 -0.00539476 0)
(6.72217e-05 -0.00569357 0)
(5.89232e-05 -0.00598862 0)
(4.71446e-05 -0.00628604 0)
(3.17264e-05 -0.00658094 0)
(1.41522e-05 -0.00688025 0)
(-1.53822e-06 -0.0071777 0)
(-1.90553e-05 -0.00748263 0)
(-8.09005e-05 -0.00779642 0)
(-0.000307236 -0.00791504 0)
(-0.000585557 -0.00804206 0)
(-0.000793828 -0.00784008 0)
(-0.00107401 -0.00733989 0)
(-0.000988483 -0.00166125 0)
(-0.000893718 -0.00900716 0)
(-0.00102672 -0.00666239 0)
(-0.00124897 0.0117815 0)
(-0.00154263 0.00687136 0)
(-0.00102049 0.00388664 0)
(-0.000308185 0.00101119 0)
(0.000423835 -0.00190396 0)
(0.00115478 -0.00482938 0)
(0.00186578 -0.00774312 0)
(0.00254713 -0.0106013 0)
(0.00319585 -0.0133405 0)
(0.00381913 -0.0160181 0)
(0.00441337 -0.0185841 0)
(0.00497445 -0.0210357 0)
(0.00549509 -0.0233649 0)
(0.00597203 -0.02555 0)
(0.00640483 -0.0276471 0)
(0.00678856 -0.0295803 0)
(0.0071334 -0.031352 0)
(0.00744146 -0.0329721 0)
(0.00771409 -0.0344508 0)
(1.13809e-07 -0.000225188 0)
(1.51533e-07 -0.000659173 0)
(-2.07504e-07 -0.00107729 0)
(-1.19368e-06 -0.00147989 0)
(-2.91746e-06 -0.00186754 0)
(-5.56781e-06 -0.00224044 0)
(-9.2171e-06 -0.00259928 0)
(-1.40818e-05 -0.00294405 0)
(-2.02358e-05 -0.0032756 0)
(-2.79513e-05 -0.00359364 0)
(-3.73309e-05 -0.00389925 0)
(-4.87284e-05 -0.00419177 0)
(-6.23052e-05 -0.00447278 0)
(-7.85148e-05 -0.00474097 0)
(-9.76202e-05 -0.00499884 0)
(-0.00012024 -0.00524403 0)
(-0.000146897 -0.00548065 0)
(-0.000178224 -0.00570455 0)
(-0.000213699 -0.00592244 0)
(-0.000250993 -0.00612696 0)
(-0.00029182 -0.00633029 0)
(-0.000363859 -0.00652405 0)
(-0.000554796 -0.0066924 0)
(-0.000808434 -0.00685525 0)
(-0.00104273 -0.00677026 0)
(-0.00131629 -0.00656303 0)
(-0.00138952 -0.00203498 0)
(-0.00139843 -0.00949324 0)
(-0.000734937 -0.00605337 0)
(-0.000988467 0.000455143 0)
(-0.00111032 -0.00187546 0)
(-0.000434564 -0.00347031 0)
(0.000475529 -0.00538324 0)
(0.00130086 -0.00753051 0)
(0.00209649 -0.00978347 0)
(0.00286556 -0.0121515 0)
(0.00358671 -0.0145368 0)
(0.00426645 -0.0168929 0)
(0.00490177 -0.0192018 0)
(0.00549166 -0.0213951 0)
(0.00603448 -0.0235188 0)
(0.00653488 -0.025583 0)
(0.00697608 -0.0274712 0)
(0.00736169 -0.0291108 0)
(0.00770814 -0.030601 0)
(0.00800989 -0.0320012 0)
(0.00826504 -0.0332995 0)
(0.00847837 -0.0344919 0)
(0.00865542 -0.0355854 0)
(0.00879926 -0.0365871 0)
(-4.58446e-07 -0.000203038 0)
(-3.18541e-06 -0.000596725 0)
(-8.20138e-06 -0.000978157 0)
(-1.53874e-05 -0.00134712 0)
(-2.44764e-05 -0.00170403 0)
(-3.55531e-05 -0.00204828 0)
(-4.83906e-05 -0.00238061 0)
(-6.32254e-05 -0.00269983 0)
(-7.97988e-05 -0.0030072 0)
(-9.84904e-05 -0.00330064 0)
(-0.000119014 -0.0035822 0)
(-0.000141908 -0.00384857 0)
(-0.000166868 -0.00410305 0)
(-0.000194628 -0.00434047 0)
(-0.000224961 -0.00456617 0)
(-0.000258853 -0.00477226 0)
(-0.000295592 -0.00496704 0)
(-0.000334341 -0.00513849 0)
(-0.000372625 -0.00529968 0)
(-0.000421466 -0.0054356 0)
(-0.000530817 -0.00557294 0)
(-0.000742755 -0.00562335 0)
(-0.000986671 -0.00560666 0)
(-0.001172 -0.00552276 0)
(-0.00138798 -0.00231275 0)
(-0.00163558 -0.00778357 0)
(-0.000857594 -0.0068806 0)
(-0.00109872 -0.0060752 0)
(-0.00100914 -0.00767551 0)
(-0.000541647 -0.00906965 0)
(7.93591e-05 -0.0106969 0)
(0.000732147 -0.0125043 0)
(0.00138566 -0.0144489 0)
(0.00202367 -0.0165366 0)
(0.00263356 -0.0185879 0)
(0.0032119 -0.0205822 0)
(0.00375252 -0.0224948 0)
(0.00425154 -0.0243075 0)
(0.00470688 -0.0260099 0)
(0.00511828 -0.0275974 0)
(0.00548613 -0.0290675 0)
(0.00580983 -0.0304285 0)
(0.00609308 -0.0316658 0)
(0.00633988 -0.0327804 0)
(0.00655666 -0.0337931 0)
(0.00674545 -0.0347287 0)
(0.00690706 -0.0355945 0)
(0.00704281 -0.0363945 0)
(0.00715467 -0.0371307 0)
(0.00724447 -0.0378058 0)
(2.57838e-07 -0.000195702 0)
(8.56348e-07 -0.000574261 0)
(1.2628e-06 -0.000939942 0)
(1.13562e-06 -0.00129232 0)
(1.38807e-07 -0.00163167 0)
(-1.96206e-06 -0.00195717 0)
(-5.46526e-06 -0.00226945 0)
(-1.05868e-05 -0.00256705 0)
(-1.76085e-05 -0.00285111 0)
(-2.67451e-05 -0.0031192 0)
(-3.82359e-05 -0.00337322 0)
(-5.2321e-05 -0.00360945 0)
(-6.92335e-05 -0.003831 0)
(-8.93805e-05 -0.0040324 0)
(-0.000112779 -0.00421861 0)
(-0.000138554 -0.00438175 0)
(-0.000163569 -0.00452913 0)
(-0.000190288 -0.00465036 0)
(-0.000249745 -0.00476051 0)
(-0.000422948 -0.00485225 0)
(-0.000646789 -0.00494375 0)
(-0.000824908 -0.00491697 0)
(-0.0010653 -0.0036705 0)
(-0.00143025 -0.00367793 0)
(-0.000138478 -0.00499449 0)
(-0.000400672 -0.00593461 0)
(-0.000111443 -0.00865263 0)
(0.000267714 -0.0110159 0)
(0.000695625 -0.0132894 0)
(0.00114186 -0.0154542 0)
(0.00159255 -0.0175035 0)
(0.00203614 -0.0194414 0)
(0.0024635 -0.0212637 0)
(0.00286701 -0.0229741 0)
(0.00324158 -0.0245748 0)
(0.00358487 -0.0260693 0)
(0.00389657 -0.0274628 0)
(0.00417722 -0.0287605 0)
(0.00442795 -0.029967 0)
(0.00465022 -0.0310873 0)
(0.0048456 -0.0321283 0)
(0.00501583 -0.0330932 0)
(0.00516298 -0.0339855 0)
(0.00528934 -0.0348096 0)
(0.00539684 -0.0355681 0)
(0.00548688 -0.0362632 0)
(0.00556049 -0.0368978 0)
(0.0056185 -0.0374757 0)
(0.00566166 -0.0380004 0)
(0.00569081 -0.038475 0)
(-1.7273e-07 -0.000205422 0)
(-1.40919e-06 -0.000596114 0)
(-4.14585e-06 -0.000967022 0)
(-8.30568e-06 -0.00131849 0)
(-1.43022e-05 -0.00165073 0)
(-2.18928e-05 -0.00196399 0)
(-3.17557e-05 -0.00225833 0)
(-4.33653e-05 -0.00253391 0)
(-5.77121e-05 -0.0027906 0)
(-7.38741e-05 -0.00302853 0)
(-9.32265e-05 -0.00324735 0)
(-0.000114503 -0.00344718 0)
(-0.000139571 -0.00362737 0)
(-0.000166549 -0.00378815 0)
(-0.000195408 -0.00392808 0)
(-0.000220471 -0.00404763 0)
(-0.000248922 -0.00414485 0)
(-0.000329231 -0.0042252 0)
(-0.000553532 -0.004286 0)
(-0.00084079 -0.00434448 0)
(-0.000995492 -0.00443732 0)
(-0.00118611 -0.00279854 0)
(-0.000380815 -0.00615695 0)
(-0.00034308 -0.00784435 0)
(-9.9991e-05 -0.0104093 0)
(0.000248431 -0.0126247 0)
(0.000609197 -0.0146771 0)
(0.000949725 -0.0165979 0)
(0.0012656 -0.0184119 0)
(0.00155932 -0.0201339 0)
(0.00183291 -0.02177 0)
(0.00208695 -0.0233224 0)
(0.00232171 -0.0247921 0)
(0.00253751 -0.0261787 0)
(0.00273481 -0.0274821 0)
(0.00291414 -0.0287026 0)
(0.00307599 -0.029841 0)
(0.00322087 -0.0308987 0)
(0.00334927 -0.0318778 0)
(0.00346166 -0.0327809 0)
(0.00355851 -0.0336108 0)
(0.00364028 -0.034371 0)
(0.00370747 -0.0350651 0)
(0.00376063 -0.0356968 0)
(0.00380034 -0.0362703 0)
(0.00382726 -0.0367892 0)
(0.00384208 -0.0372574 0)
(0.00384553 -0.0376785 0)
(0.00383834 -0.038056 0)
(0.00382123 -0.0383931 0)
(-0.00199287 -0.0191393 0)
(-0.00214902 -0.0198901 0)
(-0.00231091 -0.0206643 0)
(-0.00247707 -0.0214609 0)
(-0.00264604 -0.0222787 0)
(-0.0028164 -0.0231157 0)
(-0.00298672 -0.0239692 0)
(-0.00315566 -0.0248363 0)
(-0.00332198 -0.0257135 0)
(-0.00348457 -0.0265969 0)
(-0.00364246 -0.0274824 0)
(-0.00379481 -0.0283659 0)
(-0.00394095 -0.0292432 0)
(-0.00408033 -0.0301101 0)
(-0.00421251 -0.0309624 0)
(-0.00433719 -0.0317961 0)
(-0.00445419 -0.0326074 0)
(-0.00456342 -0.0333929 0)
(-0.00466488 -0.0341493 0)
(-0.00475865 -0.0348738 0)
(-0.0048449 -0.0355638 0)
(-0.00492385 -0.0362174 0)
(-0.00499577 -0.0368329 0)
(-0.00506096 -0.0374088 0)
(-0.00511979 -0.0379444 0)
(-0.00517263 -0.038439 0)
(-0.00521989 -0.0388924 0)
(-0.00526197 -0.0393048 0)
(-0.00529933 -0.0396765 0)
(-0.0053324 -0.0400083 0)
(-0.00536164 -0.0403012 0)
(-0.0053875 -0.0405562 0)
(-0.00541046 -0.0407747 0)
(-0.00543097 -0.0409583 0)
(-0.0054495 -0.0411087 0)