/*--------------------------------*- C++ -*----------------------------------*\
| =========                 |                                                 |
| \\      /  F ield         | OpenFOAM: The Open Source CFD Toolbox           |
|  \\    /   O peration     | Version:  2.4.0                                 |
|   \\  /    A nd           | Web:      www.OpenFOAM.org                      |
|    \\/     M anipulation  |                                                 |
\*---------------------------------------------------------------------------*/
FoamFile
{
    version     2.0;
    format      ascii;
    class       surfaceScalarField;
    location    "4.4";
    object      phi;
}
// * * * * * * * * * * * * * * * * * * * * * * * * * * * * * * * * * * * * * //

dimensions      [0 3 -1 0 0 0 0];

internalField   nonuniform List<scalar> 
220
(
4.81644e-16
-1.9238e-10
3.61192e-16
-1.92441e-10
-2.42339e-16
-1.92527e-10
-4.87865e-16
-1.92482e-10
-1.92369e-10
5.30991e-16
-1.9238e-10
4.05917e-16
-1.92441e-10
-2.68621e-16
-1.92526e-10
-5.45681e-16
-1.92482e-10
-1.92369e-10
5.80058e-16
-1.92381e-10
4.50751e-16
-1.92441e-10
-2.94712e-16
-1.92526e-10
-6.03301e-16
-1.92481e-10
-1.9237e-10
6.28674e-16
-1.92382e-10
4.95518e-16
-1.92441e-10
-3.20523e-16
-1.92525e-10
-6.60514e-16
-1.92481e-10
-1.9237e-10
6.76686e-16
-1.92382e-10
5.40058e-16
-1.92441e-10
-3.45977e-16
-1.92524e-10
-7.17131e-16
-1.92481e-10
-1.92371e-10
7.23954e-16
-1.92383e-10
5.84223e-16
-1.92441e-10
-3.71003e-16
-1.92523e-10
-7.72982e-16
-1.9248e-10
-1.92372e-10
7.70361e-16
-1.92384e-10
6.27879e-16
-1.92441e-10
-3.95537e-16
-1.92522e-10
-8.27915e-16
-1.9248e-10
-1.92373e-10
8.15802e-16
-1.92385e-10
6.70909e-16
-1.9244e-10
-4.19528e-16
-1.92521e-10
-8.818e-16
-1.92479e-10
-1.92374e-10
8.60195e-16
-1.92385e-10
7.13207e-16
-1.9244e-10
-4.4293e-16
-1.9252e-10
-9.34525e-16
-1.92479e-10
-1.92375e-10
9.03469e-16
-1.92386e-10
7.54681e-16
-1.9244e-10
-4.65708e-16
-1.92518e-10
-9.85997e-16
-1.92478e-10
-1.92376e-10
9.45571e-16
-1.92387e-10
7.95251e-16
-1.9244e-10
-4.87832e-16
-1.92517e-10
-1.03614e-15
-1.92478e-10
-1.92377e-10
9.86458e-16
-1.92388e-10
8.34845e-16
-1.9244e-10
-5.09279e-16
-1.92516e-10
-1.08489e-15
-1.92477e-10
-1.92378e-10
1.0261e-15
-1.92389e-10
8.734e-16
-1.9244e-10
-5.30033e-16
-1.92514e-10
-1.13218e-15
-1.92477e-10
-1.92379e-10
1.06446e-15
-1.9239e-10
9.10853e-16
-1.9244e-10
-5.50079e-16
-1.92513e-10
-1.17799e-15
-1.92476e-10
-1.9238e-10
1.10152e-15
-1.92392e-10
9.47144e-16
-1.92439e-10
-5.69406e-16
-1.92511e-10
-1.22225e-15
-1.92475e-10
-1.92381e-10
1.13726e-15
-1.92393e-10
9.82207e-16
-1.92439e-10
-5.87999e-16
-1.9251e-10
-1.26492e-15
-1.92475e-10
-1.92383e-10
1.17163e-15
-1.92394e-10
1.01597e-15
-1.92439e-10
-6.05844e-16
-1.92508e-10
-1.30594e-15
-1.92474e-10
-1.92384e-10
1.20458e-15
-1.92395e-10
1.04833e-15
-1.92439e-10
-6.22917e-16
-1.92507e-10
-1.34523e-15
-1.92473e-10
-1.92385e-10
1.23605e-15
-1.92396e-10
1.07919e-15
-1.92439e-10
-6.39189e-16
-1.92505e-10
-1.3827e-15
-1.92473e-10
-1.92387e-10
1.26593e-15
-1.92398e-10
1.10841e-15
-1.92439e-10
-6.54614e-16
-1.92503e-10
-1.41821e-15
-1.92472e-10
-1.92388e-10
1.29408e-15
-1.92399e-10
1.13581e-15
-1.92438e-10
-6.6913e-16
-1.92501e-10
-1.45157e-15
-1.92471e-10
-1.92389e-10
1.32033e-15
-1.924e-10
1.16116e-15
-1.92438e-10
-6.82648e-16
-1.92499e-10
-1.48254e-15
-1.9247e-10
-1.92391e-10
1.34446e-15
-1.92401e-10
1.18421e-15
-1.92438e-10
-6.95076e-16
-1.92498e-10
-1.51085e-15
-1.92469e-10
-1.92392e-10
1.36635e-15
-1.92403e-10
1.20484e-15
-1.92438e-10
-7.06397e-16
-1.92496e-10
-1.53641e-15
-1.92469e-10
-1.92394e-10
1.38571e-15
1.2229e-15
-7.16521e-16
-1.55907e-15
)
;

boundaryField
{
    BotWall
    {
        type            calculated;
        value           nonuniform 0();
    }
    FreeStream
    {
        type            calculated;
        value           nonuniform List<scalar> 5(-1.92404e-10 -1.92438e-10 -1.92494e-10 -1.92468e-10 -1.92396e-10);
    }
    FrontNBack
    {
        type            empty;
        value           nonuniform 0();
    }
    LeftSide
    {
        type            symmetryPlane;
        value           uniform 0;
    }
    RightSide
    {
        type            symmetryPlane;
        value           uniform 0;
    }
    procBoundary3to2
    {
        type            processor;
        value           nonuniform List<scalar> 5(1.92379e-10 1.92442e-10 1.92528e-10 1.92482e-10 1.92368e-10);
    }
}


// ************************************************************************* //
