/*--------------------------------*- C++ -*----------------------------------*\
| =========                 |                                                 |
| \\      /  F ield         | OpenFOAM: The Open Source CFD Toolbox           |
|  \\    /   O peration     | Version:  2.4.0                                 |
|   \\  /    A nd           | Web:      www.OpenFOAM.org                      |
|    \\/     M anipulation  |                                                 |
\*---------------------------------------------------------------------------*/
FoamFile
{
    version     2.0;
    format      ascii;
    class       volVectorField;
    location    "4.4";
    object      U;
}
// * * * * * * * * * * * * * * * * * * * * * * * * * * * * * * * * * * * * * //

dimensions      [0 1 -1 0 0 0 0];

internalField   nonuniform List<vector> 
125
(
(4.80421e-08 -0.000961898 0)
(1.04781e-07 -0.000962207 0)
(1.04253e-08 -0.000962637 0)
(-8.7543e-08 -0.000962411 0)
(-6.78741e-08 -0.000961842 0)
(5.18682e-08 -0.000961901 0)
(1.14745e-07 -0.000962207 0)
(1.32138e-08 -0.000962633 0)
(-9.77238e-08 -0.000962409 0)
(-7.41042e-08 -0.000961845 0)
(5.55307e-08 -0.000961904 0)
(1.24463e-07 -0.000962206 0)
(1.59858e-08 -0.00096263 0)
(-1.07656e-07 -0.000962408 0)
(-8.01397e-08 -0.000961848 0)
(5.90207e-08 -0.000961907 0)
(1.33899e-07 -0.000962206 0)
(1.87269e-08 -0.000962626 0)
(-1.17304e-07 -0.000962406 0)
(-8.59614e-08 -0.000961851 0)
(6.23319e-08 -0.00096191 0)
(1.43024e-07 -0.000962205 0)
(2.14241e-08 -0.000962622 0)
(-1.26635e-07 -0.000962404 0)
(-9.15536e-08 -0.000961854 0)
(6.54599e-08 -0.000961913 0)
(1.51811e-07 -0.000962204 0)
(2.4066e-08 -0.000962617 0)
(-1.35624e-07 -0.000962402 0)
(-9.69037e-08 -0.000961858 0)
(6.84024e-08 -0.000961917 0)
(1.6024e-07 -0.000962203 0)
(2.66421e-08 -0.000962612 0)
(-1.44248e-07 -0.0009624 0)
(-1.02002e-07 -0.000961862 0)
(7.11592e-08 -0.000961921 0)
(1.68294e-07 -0.000962203 0)
(2.91436e-08 -0.000962607 0)
(-1.5249e-07 -0.000962398 0)
(-1.06844e-07 -0.000961866 0)
(7.37316e-08 -0.000961925 0)
(1.75962e-07 -0.000962202 0)
(3.15626e-08 -0.000962601 0)
(-1.60337e-07 -0.000962396 0)
(-1.11423e-07 -0.000961871 0)
(7.6123e-08 -0.00096193 0)
(1.83234e-07 -0.000962201 0)
(3.38923e-08 -0.000962595 0)
(-1.67781e-07 -0.000962393 0)
(-1.15741e-07 -0.000961875 0)
(7.83377e-08 -0.000961934 0)
(1.90107e-07 -0.000962201 0)
(3.61269e-08 -0.000962589 0)
(-1.74814e-07 -0.000962391 0)
(-1.19797e-07 -0.000961881 0)
(8.03816e-08 -0.000961939 0)
(1.96578e-07 -0.0009622 0)
(3.82611e-08 -0.000962582 0)
(-1.81435e-07 -0.000962388 0)
(-1.23594e-07 -0.000961886 0)
(8.2261e-08 -0.000961944 0)
(2.02647e-07 -0.000962199 0)
(4.02903e-08 -0.000962576 0)
(-1.87642e-07 -0.000962385 0)
(-1.27137e-07 -0.000961891 0)
(8.39832e-08 -0.000961949 0)
(2.08314e-07 -0.000962198 0)
(4.22102e-08 -0.000962568 0)
(-1.93435e-07 -0.000962382 0)
(-1.3043e-07 -0.000961897 0)
(8.55551e-08 -0.000961955 0)
(2.1358e-07 -0.000962197 0)
(4.40167e-08 -0.000962561 0)
(-1.98815e-07 -0.000962378 0)
(-1.33477e-07 -0.000961903 0)
(8.69839e-08 -0.00096196 0)
(2.18446e-07 -0.000962197 0)
(4.57051e-08 -0.000962553 0)
(-2.03782e-07 -0.000962375 0)
(-1.36284e-07 -0.000961909 0)
(8.82758e-08 -0.000961966 0)
(2.22912e-07 -0.000962196 0)
(4.72707e-08 -0.000962545 0)
(-2.08335e-07 -0.000962372 0)
(-1.38852e-07 -0.000961916 0)
(8.94361e-08 -0.000961972 0)
(2.26973e-07 -0.000962195 0)
(4.87077e-08 -0.000962537 0)
(-2.12472e-07 -0.000962368 0)
(-1.41185e-07 -0.000961922 0)
(9.04686e-08 -0.000961978 0)
(2.30623e-07 -0.000962194 0)
(5.00093e-08 -0.000962528 0)
(-2.16185e-07 -0.000962364 0)
(-1.4328e-07 -0.000961929 0)
(9.1375e-08 -0.000961984 0)
(2.33849e-07 -0.000962194 0)
(5.11675e-08 -0.00096252 0)
(-2.19463e-07 -0.000962361 0)
(-1.45134e-07 -0.000961936 0)
(9.21545e-08 -0.000961991 0)
(2.36635e-07 -0.000962193 0)
(5.21722e-08 -0.000962511 0)
(-2.22289e-07 -0.000962357 0)
(-1.46737e-07 -0.000961943 0)
(9.28036e-08 -0.000961997 0)
(2.38954e-07 -0.000962192 0)
(5.30115e-08 -0.000962502 0)
(-2.24639e-07 -0.000962353 0)
(-1.48077e-07 -0.000961951 0)
(9.33183e-08 -0.000962004 0)
(2.40782e-07 -0.000962191 0)
(5.36726e-08 -0.000962492 0)
(-2.26489e-07 -0.000962349 0)
(-1.49139e-07 -0.000961959 0)
(9.3697e-08 -0.000962012 0)
(2.42097e-07 -0.00096219 0)
(5.41424e-08 -0.000962482 0)
(-2.2782e-07 -0.000962344 0)
(-1.49912e-07 -0.000961967 0)
(9.39302e-08 -0.000962018 0)
(2.42858e-07 -0.00096219 0)
(5.44036e-08 -0.000962474 0)
(-2.28593e-07 -0.000962341 0)
(-1.50372e-07 -0.000961974 0)
)
;

boundaryField
{
    BotWall
    {
        type            fixedValue;
        value           nonuniform 0();
    }
    FreeStream
    {
        type            zeroGradient;
    }
    FrontNBack
    {
        type            empty;
    }
    LeftSide
    {
        type            symmetryPlane;
    }
    RightSide
    {
        type            symmetryPlane;
    }
    procBoundary3to2
    {
        type            processor;
        value           nonuniform List<vector> 5((4.40631e-08 -0.000961896 0) (9.46126e-08 -0.000962208 0) (7.63598e-09 -0.000962639 0) (-7.71549e-08 -0.000962412 0) (-6.1472e-08 -0.00096184 0));
    }
}


// ************************************************************************* //
