/*--------------------------------*- C++ -*----------------------------------*\
| =========                 |                                                 |
| \\      /  F ield         | OpenFOAM: The Open Source CFD Toolbox           |
|  \\    /   O peration     | Version:  2.4.0                                 |
|   \\  /    A nd           | Web:      www.OpenFOAM.org                      |
|    \\/     M anipulation  |                                                 |
\*---------------------------------------------------------------------------*/
FoamFile
{
    version     2.0;
    format      ascii;
    class       volScalarField;
    location    "1.4";
    object      alpha1;
}
// * * * * * * * * * * * * * * * * * * * * * * * * * * * * * * * * * * * * * //

dimensions      [0 0 0 0 0 0 0];

internalField   nonuniform List<scalar> 
8000
(
1
1
1
1
1
1
1
1
0.999998
0.995641
0.997775
0.492642
0.052977
0.0145091
0.00447149
0.00111227
0.000199744
2.49228e-05
3.96563e-05
3.14965e-05
1.90235e-05
9.06487e-06
3.90246e-06
1.24334e-06
7.80235e-07
5.65355e-07
4.58034e-07
4.19788e-07
4.1219e-07
4.04946e-07
4.89018e-07
5.17468e-07
5.3445e-07
5.60934e-07
5.89755e-07
6.11391e-07
6.23991e-07
6.35014e-07
6.2482e-07
6.995e-07
5.92386e-07
5.56254e-07
8.80499e-07
5.13726e-07
6.42653e-07
6.38827e-07
6.34299e-07
6.29804e-07
6.26031e-07
6.23556e-07
1
1
1
1
1
1
1
1
0.999999
1
1
0.99996
0.999826
0.998186
0.999996
0.723282
0.219984
0.0410997
0.0138106
0.00905557
0.00516513
0.00237796
0.000888872
0.00023645
6.41192e-05
2.88884e-05
1.70343e-05
1.0347e-05
5.96806e-06
2.94698e-06
1.0853e-06
8.14971e-07
6.65302e-07
5.68804e-07
5.28099e-07
5.22583e-07
5.2174e-07
5.21477e-07
5.21284e-07
5.21314e-07
5.20622e-07
5.23673e-07
5.45002e-07
5.83258e-07
6.5983e-07
7.53698e-07
8.57901e-07
9.53905e-07
9.5998e-07
1.16353e-06
1
1
1
1
1
1
1
1
1
1
0.999999
0.999998
0.999998
0.999999
1
1
1
0.999746
0.999726
0.943168
0.715947
0.499878
0.246045
0.0840685
0.0247322
0.0109004
0.00682809
0.00417139
0.00220403
0.00109455
0.00064507
0.000438734
0.000303417
0.000190896
0.000110903
6.56221e-05
4.52351e-05
3.12224e-05
1.73721e-05
7.11995e-06
1.85585e-06
5.35649e-07
7.891e-07
9.90664e-06
1.7586e-05
1.77024e-05
9.66043e-06
1.71259e-06
9.66301e-07
1.00179e-06
1
1
1
1
1
1
1
1
1
1
1
1
1
1
1
1
1
1
1
1
1
1
0.999982
0.999851
0.99851
0.991906
0.814312
0.512932
0.203423
0.0580291
0.0220317
0.0151748
0.010339
0.00566474
0.00264887
0.00127138
0.000733231
0.000421889
0.000215876
0.000102041
5.31758e-05
4.00106e-05
3.31879e-05
2.01435e-05
7.86054e-06
1.55052e-06
1.02833e-06
1.02521e-06
1.13437e-06
7.09018e-06
1
1
1
1
1
1
1
1
1
1
1
1
1
1
1
1
1
1
1
1
1
1
1
1
1
1
0.999996
0.999944
0.999733
0.997114
0.984936
0.854571
0.495705
0.14997
0.0325091
0.0287238
0.0182217
0.00902894
0.00402323
0.00180474
0.000979214
0.000607164
0.000343408
0.000169085
9.61416e-05
6.23275e-05
3.58697e-05
1.61106e-05
4.64824e-06
3.24609e-06
1
1
1
1
1
1
1
1
1
1
1
1
1
1
1
1
1
1
1
1
1
1
1
1
1
1
0.999999
0.999999
0.999999
1
1
0.999997
0.999916
0.99963
0.97174
0.938768
0.667144
0.282225
0.0744893
0.0401308
0.0234778
0.010769
0.0038745
0.00155273
0.000753654
0.000354365
0.000138234
4.12745e-05
6.55656e-06
3.24373e-06
1
1
1
1
1
1
1
1
1
1
1
1
1
1
1
1
1
1
1
1
1
1
1
1
0.999999
0.999999
0.999999
0.999999
0.999998
0.999998
0.999998
0.999998
0.999999
1
1
0.999999
0.999971
0.999851
0.956842
0.950548
0.754333
0.330366
0.0831755
0.039839
0.0173054
0.00618851
0.00193098
0.0006024
0.000192013
6.44429e-05
1
1
1
1
1
1
1
1
1
1
1
1
1
1
1
1
1
1
1
1
1
1
1
0.999999
0.999999
0.999999
0.999999
0.999998
0.999998
0.999997
0.999997
0.999997
0.999997
0.999997
0.999998
0.999998
0.999998
1
1
1
0.99999
0.999857
0.95245
0.916679
0.509656
0.115656
0.0420249
0.0139977
0.00392425
0.00116632
1
1
1
1
1
1
1
1
1
1
1
1
1
1
1
1
1
1
1
1
1
1
0.999999
0.999999
0.999999
0.999999
0.999999
0.999998
0.999998
0.999998
0.999997
0.999997
0.999997
0.999997
0.999997
0.999997
0.999997
0.999998
0.999999
0.999999
1
1
1
1
0.999976
0.973084
0.868571
0.361962
0.10538
0.0413494
1
1
1
1
1
1
1
1
1
1
1
1
1
1
1
1
1
1
1
1
0.999999
0.999999
0.999999
0.999999
0.999999
0.999999
0.999998
0.999998
0.999998
0.999998
0.999997
0.999997
0.999997
0.999997
0.999997
0.999998
0.999998
0.999998
0.999999
0.999999
0.999999
1
1
1
1
1
1
1.00001
0.933782
0.619265
1
1
1
1
1
1
1
1
1
1
1
1
1
1
1
1
1
1
1
1
0.999999
0.999999
0.999999
0.999999
0.999999
0.999999
0.999998
0.999998
0.999998
0.999998
0.999998
0.999998
0.999998
0.999998
0.999998
0.999998
0.999999
0.999999
0.999999
0.999999
0.999999
0.999999
0.999999
0.999998
0.999998
0.999996
0.999994
0.999996
1
1
1
1
1
1
1
1
1
1
1
1
1
1
1
1
1
1
1
1
1
1
1
0.999999
0.999999
0.999999
0.999999
0.999999
0.999999
0.999998
0.999998
0.999998
0.999998
0.999998
0.999998
0.999998
0.999998
0.999999
0.999999
0.999999
0.999999
0.999999
0.999999
0.999998
0.999998
0.999997
0.999994
0.999989
0.999974
0.999968
0.99998
0.999996
1
1
1
1
1
1
1
1
1
1
1
1
1
1
1
1
1
1
1
1
1
1
1
0.999999
0.999999
0.999999
0.999999
0.999999
0.999999
0.999999
0.999999
0.999998
0.999998
0.999998
0.999998
0.999999
0.999999
0.999999
0.999999
0.999999
0.999999
0.999998
0.999998
0.999996
0.999992
0.999981
0.999933
0.999753
0.999887
0.999979
1
1
1
1
1
1
1
1
1
1
1
1
1
1
1
1
1
1
1
1
1
1
1
1
1
1
1
0.999999
0.999999
0.999999
0.999999
0.999999
0.999999
0.999999
0.999999
0.999999
0.999999
0.999999
0.999999
0.999999
0.999999
0.999999
0.999998
0.999996
0.999991
0.999976
0.999783
0.999586
0.999811
0.999972
1
1
1
1
1
1
1
1
1
1
1
1
1
1
1
1
1
1
1
1
1
1
1
1
1
1
1
1
1
1
1
0.999999
0.999999
0.999999
0.999999
0.999999
0.999999
0.999999
0.999999
0.999999
0.999999
0.999999
0.999998
0.999996
0.999988
0.999958
0.999685
0.999591
0.999849
0.999893
1
1
1
1
1
1
1
1
1
1
1
1
1
1
1
1
1
1
1
1
1
1
1
1
1
1
1
1
1
1
1
1
1
1
1
1
0.999999
0.999999
0.999999
0.999999
0.999999
0.999999
0.999998
0.999994
0.999983
0.999935
0.9997
0.999695
0.994769
0.622764
1
1
1
1
1
1
1
1
1
1
1
1
1
1
1
1
1
1
1
1
1
1
1
1
1
1
1
1
1
1
1
1
1
1
1
1
1
1
1
1
1
0.999999
0.999997
0.99999
0.999976
0.999918
0.999861
0.994831
0.501619
0.0305421
1
1
1
1
1
1
1
1
1
1
1
1
1
1
1
1
1
1
1
1
1
1
1
1
1
1
1
1
1
1
1
1
1
1
1
1
1
1
1
1
1
0.999999
0.999998
0.999994
0.999982
0.999975
1
0.815341
0.21422
0.016058
1
1
1
1
1
1
1
1
1
1
1
1
1
1
1
1
1
1
1
1
1
1
1
1
1
1
1
1
1
1
1
1
1
1
1
1
1
1
1
1
0.999999
0.999998
0.999997
0.999993
0.999983
0.999999
1.00017
0.186134
0.00151688
0.000234787
1
1
1
1
1
1
1
1
1
1
1
1
1
1
1
1
1
1
1
1
1
1
1
1
1
1
1
1
1
1
1
1
1
1
1
1
1
1
0.999999
0.999998
0.999996
0.999994
0.999992
0.999993
0.999995
0.999998
0.999999
0.999985
0.875908
-2.99881e-05
6.26784e-07
6.33289e-07
6.42735e-07
6.55475e-07
6.70785e-07
6.87983e-07
7.06684e-07
7.26834e-07
7.4853e-07
7.71795e-07
7.96617e-07
8.23093e-07
8.51411e-07
8.80261e-07
9.1693e-07
9.60696e-07
9.9474e-07
1.02329e-06
1.04535e-06
1.04236e-06
1.04949e-06
1.10293e-06
1.1624e-06
1.35237e-06
1.37618e-06
1.36042e-06
1.32219e-06
1.41977e-06
1.49432e-06
1.48272e-06
1.43267e-06
1.52496e-06
1.57299e-06
1.5583e-06
1.53902e-06
1.61556e-06
1.61996e-06
1.53218e-06
1.58671e-06
1.665e-06
1.54036e-06
1.4275e-06
1.45384e-06
1.35611e-06
1.25226e-06
1.16607e-06
1.02857e-06
9.01809e-07
7.56983e-07
6.19948e-07
1.21561e-06
1.20444e-06
1.17453e-06
1.13868e-06
1.08513e-06
1.01838e-06
1.03895e-06
1.07887e-06
1.15786e-06
1.32065e-06
1.61708e-06
1.99321e-06
2.1972e-06
1.96782e-06
2.20555e-06
3.75919e-06
5.24773e-06
5.30025e-06
5.34156e-06
5.92382e-06
6.72849e-06
4.80851e-06
1.84441e-06
1.36083e-06
4.11061e-06
5.08204e-06
2.33632e-06
3.1988e-06
5.43843e-06
5.43708e-06
1.82133e-06
3.29371e-06
5.65714e-06
5.65722e-06
2.0153e-06
3.62081e-06
7.57229e-06
3.4646e-06
4.68281e-06
7.38215e-06
6.36592e-06
4.51748e-06
6.30753e-06
6.29949e-06
5.51767e-06
6.11354e-06
6.67168e-06
6.41759e-06
5.93471e-06
4.77814e-06
1.10578e-06
1.19269e-06
1.27718e-06
1.33556e-06
1.35782e-06
1.53494e-06
1.04659e-06
1.0467e-06
1.04703e-06
6.62674e-06
0.000112774
7.87697e-05
2.56937e-05
2.9289e-06
1.19875e-06
1.19423e-06
1.1942e-06
1.1942e-06
2.31744e-06
2.52139e-05
4.45188e-05
4.45443e-05
3.30739e-05
8.10615e-06
7.49211e-07
6.47734e-07
6.6977e-07
7.04487e-07
7.28935e-07
7.37015e-07
7.34333e-07
7.23788e-07
7.17113e-07
7.17012e-07
7.17041e-07
3.1429e-06
7.77653e-06
6.39058e-06
3.48824e-06
1.83195e-06
1.70357e-06
3.21812e-06
8.03188e-06
8.06221e-06
5.52761e-06
8.54942e-07
1.03986e-06
7.5532e-06
2.93559e-05
3.06487e-05
6.31724e-05
0.000210884
0.000216721
0.00021661
0.000111327
2.01148e-05
1.22956e-06
1.89147e-06
1.59989e-05
0.000100746
0.000121015
0.000120952
8.4415e-05
1.8621e-05
1.4622e-06
1.19547e-06
1.19421e-06
1.19424e-06
1.32597e-06
1.27341e-06
1.22744e-06
1.0852e-06
9.86921e-07
8.79228e-07
7.40587e-07
6.58804e-07
6.46766e-07
6.60325e-07
6.78937e-07
6.79821e-07
7.7829e-07
6.46822e-07
6.43715e-07
1.12771e-06
4.0312e-06
1.78288e-05
0.000105411
0.000387978
0.000417962
0.000417155
0.000352254
0.000115401
1.17287e-05
5.35501e-07
4.84759e-07
4.95757e-07
4.91248e-07
4.8832e-07
4.89599e-07
5.72416e-07
3.43461e-06
3.29711e-06
2.93081e-06
2.59636e-06
2.38576e-06
2.1401e-06
2.16553e-06
2.63973e-06
2.37314e-06
2.24285e-06
2.38907e-06
2.20299e-06
1.83106e-06
1.51426e-06
1.48407e-06
1.60426e-06
1.8016e-06
1.8346e-06
1.77115e-06
1.02966e-06
1.30155e-06
6.03253e-07
5.34761e-07
4.9177e-07
4.6839e-07
4.63324e-07
5.02386e-07
5.45566e-07
5.32656e-07
1.16913e-06
7.75996e-07
7.62413e-07
6.45605e-07
5.30084e-07
4.69768e-07
4.63885e-07
4.92883e-07
5.40208e-07
5.86371e-07
5.97534e-07
5.91656e-07
5.77097e-07
5.49295e-07
5.15232e-07
4.84446e-07
4.69975e-07
3.22832e-07
6.36452e-07
5.71266e-07
4.77603e-06
3.23962e-06
3.47522e-06
2.28166e-06
2.25544e-06
2.13004e-06
2.10465e-06
2.05814e-06
1.98516e-06
1.924e-06
1.84652e-06
1.76149e-06
1.67091e-06
1.57364e-06
1.46838e-06
1.34313e-06
1.21159e-06
1.07998e-06
9.49226e-07
8.14032e-07
6.82663e-07
5.464e-07
4.27192e-07
3.19407e-07
2.2731e-07
1.53132e-07
9.71056e-08
5.76462e-08
3.188e-08
1.63153e-08
7.53278e-09
3.58516e-09
1.92907e-09
1.78746e-09
2.78978e-09
4.7484e-09
7.41765e-09
1.0441e-08
1.35166e-08
1.64254e-08
1.89714e-08
2.0957e-08
2.24684e-08
2.37465e-08
2.52005e-08
2.73428e-08
3.0684e-08
3.55589e-08
4.18016e-08
5.00531e-08
6.20224e-08
2.10078e-05
4.2027e-06
2.29151e-06
2.33742e-06
2.13002e-06
2.9806e-06
2.62065e-06
2.51861e-06
2.46694e-06
2.41683e-06
2.3528e-06
2.26213e-06
2.13936e-06
1.98681e-06
1.81044e-06
1.61501e-06
1.4027e-06
1.17671e-06
9.45218e-07
7.21418e-07
5.20017e-07
3.52373e-07
2.23684e-07
1.32811e-07
7.34057e-08
3.75154e-08
1.761e-08
7.54576e-09
2.94469e-09
1.08387e-09
5.08265e-10
6.41578e-10
1.27628e-09
2.25936e-09
3.40593e-09
4.49993e-09
5.47804e-09
6.39488e-09
7.36212e-09
8.49876e-09
9.94904e-09
1.19843e-08
1.511e-08
2.00468e-08
2.74765e-08
3.76022e-08
4.97403e-08
6.16337e-08
6.45433e-08
9.00321e-08
0.000385239
0.000130228
3.81428e-05
6.82285e-06
2.27031e-06
2.50431e-06
4.2319e-06
2.634e-06
2.89054e-06
2.86783e-06
2.80061e-06
2.69559e-06
2.54963e-06
2.36904e-06
2.15885e-06
1.91875e-06
1.64769e-06
1.35327e-06
1.05419e-06
7.74475e-07
5.34985e-07
3.46654e-07
2.10477e-07
1.20452e-07
6.45704e-08
3.22972e-08
1.50847e-08
6.58447e-09
2.68764e-09
1.03966e-09
3.77611e-10
1.28959e-10
4.13314e-11
1.23686e-11
3.45469e-12
9.09117e-13
2.29486e-13
5.7946e-14
1.59255e-14
5.38073e-15
2.81292e-15
4.48416e-15
1.71833e-14
7.22048e-14
2.78268e-13
9.64312e-13
3.00003e-12
8.37945e-12
2.10136e-11
4.73098e-11
0.0121593
0.00313165
0.000661351
0.000109361
1.02669e-05
4.28476e-06
4.26466e-06
4.08166e-06
3.96483e-06
3.8347e-06
3.68996e-06
3.52771e-06
3.34129e-06
3.12689e-06
2.8823e-06
2.60548e-06
2.29637e-06
1.96016e-06
1.60926e-06
1.2624e-06
9.40404e-07
6.61285e-07
4.37549e-07
2.71425e-07
1.57247e-07
8.48271e-08
4.25039e-08
1.98109e-08
8.62862e-09
3.50234e-09
1.32344e-09
4.67288e-10
1.54913e-10
4.86788e-11
1.42283e-11
3.88103e-12
9.89887e-13
2.36816e-13
5.34721e-14
1.15761e-14
2.4866e-15
5.65322e-16
1.46975e-16
4.511e-17
1.5667e-17
5.74504e-18
2.11595e-18
7.59616e-19
2.59008e-19
8.11944e-20
0.26822
0.0987726
0.026389
0.00490088
0.000726573
9.17957e-05
7.85141e-06
5.93874e-06
5.49181e-06
5.05413e-06
4.68249e-06
4.32777e-06
3.96858e-06
3.59519e-06
3.20907e-06
2.81542e-06
2.42047e-06
2.03143e-06
1.6569e-06
1.30676e-06
9.91178e-07
7.18988e-07
4.95867e-07
3.23071e-07
1.97755e-07
1.13085e-07
5.9788e-08
2.91913e-08
1.33213e-08
5.70035e-09
2.31027e-09
8.75759e-10
3.09278e-10
1.01699e-10
3.11353e-11
8.91034e-12
2.38622e-12
5.99016e-13
1.41178e-13
3.14206e-14
6.67923e-15
1.39027e-15
2.94972e-16
6.73241e-17
1.72615e-17
4.94576e-18
1.50944e-18
4.67445e-19
1.42168e-19
3.9577e-20
0.931019
0.705197
0.337727
0.0909144
0.014818
0.00140439
5.90097e-05
5.97031e-06
7.36809e-06
5.04777e-06
4.98616e-06
4.45703e-06
3.91484e-06
3.37692e-06
2.84988e-06
2.34875e-06
1.88813e-06
1.4786e-06
1.12616e-06
8.32607e-07
5.96166e-07
4.12323e-07
2.74648e-07
1.75632e-07
1.07463e-07
6.26922e-08
3.47466e-08
1.82292e-08
9.01843e-09
4.17967e-09
1.81218e-09
7.41654e-10
2.86239e-10
1.03791e-10
3.524e-11
1.1187e-11
3.31475e-12
9.20163e-13
2.38854e-13
5.82728e-14
1.34803e-14
3.00231e-15
6.35809e-16
1.28919e-16
2.53764e-17
4.95961e-18
9.8637e-19
2.03683e-19
4.43816e-20
1.03696e-20
1
0.998318
0.837381
0.333794
0.0478767
0.00276099
5.54512e-05
7.35158e-06
6.34857e-06
5.27601e-06
4.49773e-06
3.83771e-06
3.21445e-06
2.6239e-06
2.08411e-06
1.61055e-06
1.21067e-06
8.84858e-07
6.28374e-07
4.33235e-07
2.89758e-07
1.87833e-07
1.17902e-07
7.1585e-08
4.19895e-08
2.37601e-08
1.29481e-08
6.78176e-09
3.40605e-09
1.63563e-09
7.47755e-10
3.25834e-10
1.35115e-10
5.32333e-11
1.98345e-11
6.99351e-12
2.3337e-12
7.45048e-13
2.26804e-13
6.51751e-14
1.76484e-14
4.49823e-15
1.07835e-15
2.43005e-16
5.14668e-17
1.02485e-17
1.92183e-18
3.40778e-19
5.7765e-20
9.82316e-21
0.999994
0.999992
0.914655
0.403213
0.0537623
0.00233164
2.42574e-05
1.02508e-05
5.69585e-06
4.21128e-06
3.44639e-06
2.82954e-06
2.26897e-06
1.76982e-06
1.34344e-06
9.92943e-07
7.14572e-07
5.00563e-07
3.41164e-07
2.26124e-07
1.45676e-07
9.11376e-08
5.53057e-08
3.25065e-08
1.84719e-08
1.01265e-08
5.34272e-09
2.70561e-09
1.31146e-09
6.06168e-10
2.66807e-10
1.11937e-10
4.45776e-11
1.68697e-11
6.03667e-12
2.04667e-12
6.58921e-13
2.01424e-13
5.83788e-14
1.60006e-14
4.13956e-15
1.01078e-15
2.3282e-16
5.05647e-17
1.03526e-17
1.99787e-18
3.6337e-19
6.22876e-20
1.00731e-20
1.57632e-21
0.999969
0.906475
0.4431
0.0969764
0.00861377
0.000239072
6.92534e-06
5.30318e-06
3.1431e-06
2.49041e-06
2.01658e-06
1.57118e-06
1.1826e-06
8.65105e-07
6.16339e-07
4.2767e-07
2.88908e-07
1.89932e-07
1.21399e-07
7.54094e-08
4.55434e-08
2.66825e-08
1.51351e-08
8.29526e-09
4.38333e-09
2.22798e-09
1.08685e-09
5.07743e-10
2.26719e-10
9.65977e-11
3.92156e-11
1.5152e-11
5.56685e-12
1.9436e-12
6.44581e-13
2.03012e-13
6.07175e-14
1.7246e-14
4.65292e-15
1.19275e-15
2.90618e-16
6.73325e-17
1.4841e-17
3.11359e-18
6.22088e-19
1.18434e-19
2.14972e-20
3.72253e-21
6.16034e-22
1.00142e-22
0.800664
0.289771
0.0394189
0.00303325
7.91611e-05
5.46317e-06
3.57504e-06
2.02567e-06
1.59157e-06
1.11738e-06
7.80937e-07
5.39022e-07
3.64152e-07
2.39743e-07
1.53559e-07
9.56151e-08
5.78213e-08
3.39067e-08
1.92383e-08
1.05327e-08
5.54685e-09
2.80095e-09
1.35204e-09
6.22144e-10
2.72263e-10
1.13103e-10
4.45409e-11
1.66114e-11
5.86382e-12
1.95892e-12
6.1945e-13
1.85524e-13
5.26745e-14
1.4197e-14
3.63718e-15
8.87126e-16
2.06412e-16
4.5891e-17
9.76164e-18
1.98957e-18
3.89555e-19
7.34737e-20
1.33577e-20
2.34058e-21
3.96578e-22
6.49889e-23
1.03333e-23
1.59387e-24
2.39628e-25
3.61647e-26
0.160491
0.0211085
0.000449205
1.15313e-05
4.38365e-06
1.88894e-06
9.6042e-07
5.71133e-07
3.54751e-07
2.23749e-07
1.40249e-07
8.65065e-08
5.23473e-08
3.10556e-08
1.80545e-08
1.02832e-08
5.74163e-09
3.14818e-09
1.69974e-09
9.06244e-10
4.77945e-10
2.49121e-10
1.27806e-10
6.40744e-11
3.11033e-11
1.44734e-11
6.39311e-12
2.65636e-12
1.0298e-12
3.69794e-13
1.22213e-13
3.69602e-14
1.01756e-14
2.53846e-15
5.71358e-16
1.15583e-16
2.09406e-17
3.38677e-18
4.87538e-19
6.23045e-20
7.05316e-21
7.06397e-22
6.26243e-23
4.94089e-24
3.53246e-25
2.40719e-26
1.75097e-27
1.57738e-28
1.83164e-29
2.55113e-30
0.00159599
0.000300731
1.02467e-05
2.22942e-06
1.08418e-06
6.71159e-07
4.16323e-07
2.72309e-07
1.85376e-07
1.29496e-07
9.18179e-08
6.56107e-08
4.70013e-08
3.358e-08
2.37985e-08
1.66449e-08
1.14368e-08
7.69053e-09
5.04482e-09
3.21901e-09
1.99217e-09
1.19191e-09
6.86703e-10
3.792e-10
1.99607e-10
9.95545e-11
4.67444e-11
2.05273e-11
8.37622e-12
3.15619e-12
1.0917e-12
3.44729e-13
9.88681e-14
2.56328e-14
5.98142e-15
1.25122e-15
2.33756e-16
3.88658e-17
5.73205e-18
7.47504e-19
8.59314e-20
8.68206e-21
7.68694e-22
5.94722e-23
4.01012e-24
2.35091e-25
1.19624e-26
5.3047e-28
2.06045e-29
7.06851e-31
0.000411243
1.11468e-05
5.24119e-07
4.92454e-07
4.58895e-07
4.39627e-07
4.13132e-07
3.78811e-07
3.38533e-07
2.94989e-07
2.50813e-07
2.07967e-07
1.68092e-07
1.32328e-07
1.01354e-07
7.54457e-08
5.45229e-08
3.8221e-08
2.59721e-08
1.70971e-08
1.08941e-08
6.70979e-09
3.98537e-09
2.27471e-09
1.24155e-09
6.44101e-10
3.15428e-10
1.44754e-10
6.17945e-11
2.43659e-11
8.81533e-12
2.90847e-12
8.70226e-13
2.34933e-13
5.69613e-14
1.23508e-14
2.38547e-15
4.08871e-16
6.19676e-17
8.27537e-18
9.70401e-19
9.95614e-20
8.90428e-21
6.91536e-22
4.6458e-23
2.6888e-24
1.33554e-25
5.71047e-27
2.1153e-28
6.85213e-30
2.48535e-06
1.10385e-06
1.08786e-06
1.18914e-06
1.25916e-06
1.26925e-06
1.22565e-06
1.14727e-06
1.04646e-06
9.33377e-07
8.16422e-07
6.981e-07
5.83001e-07
4.74888e-07
3.76602e-07
2.90153e-07
2.16732e-07
1.56678e-07
1.09479e-07
7.38946e-08
4.81691e-08
3.03226e-08
1.8424e-08
1.07875e-08
6.06677e-09
3.26013e-09
1.66255e-09
7.98208e-10
3.57752e-10
1.48447e-10
5.65843e-11
1.96733e-11
6.19943e-12
1.76067e-12
4.48374e-13
1.01923e-13
2.0594e-14
3.6838e-15
5.81096e-16
8.05269e-17
9.76665e-18
1.03241e-18
9.46956e-20
7.50038e-21
5.10339e-22
2.96466e-23
1.46003e-24
6.0776e-26
2.14158e-27
6.40823e-29
3.24076e-06
7.34683e-06
3.82711e-06
3.6664e-06
3.46906e-06
3.27418e-06
3.0779e-06
2.87633e-06
2.65295e-06
2.41458e-06
2.18766e-06
1.95222e-06
1.70545e-06
1.456e-06
1.21241e-06
9.81707e-07
7.70248e-07
5.83625e-07
4.25903e-07
2.98821e-07
2.01462e-07
1.3058e-07
8.14586e-08
4.89488e-08
2.83185e-08
1.57294e-08
8.34231e-09
4.19166e-09
1.97685e-09
8.66697e-10
3.49993e-10
1.29098e-10
4.31772e-11
1.30114e-11
3.51329e-12
8.45925e-13
1.80841e-13
3.41836e-14
5.6909e-15
8.31242e-16
1.06134e-16
1.17975e-17
1.13654e-18
9.44341e-20
6.73157e-21
4.09099e-22
2.10367e-23
9.08511e-25
3.27922e-26
9.84948e-28
5.11109e-07
4.64797e-07
4.27365e-07
3.91331e-07
3.56757e-07
3.21944e-07
2.8766e-07
2.53981e-07
2.1981e-07
1.83177e-07
1.44231e-07
1.09981e-07
8.72975e-08
7.71657e-08
7.21698e-08
6.77702e-08
6.30289e-08
5.88118e-08
5.52665e-08
5.19159e-08
4.86791e-08
4.55444e-08
4.25026e-08
3.95741e-08
3.67879e-08
3.4182e-08
3.17705e-08
2.95388e-08
2.74741e-08
2.55558e-08
2.37612e-08
2.20697e-08
2.04647e-08
1.89287e-08
1.74605e-08
1.60489e-08
1.46893e-08
1.3392e-08
1.21709e-08
1.10286e-08
9.9578e-09
8.95634e-09
8.02465e-09
7.16331e-09
6.37351e-09
5.65607e-09
5.01049e-09
4.43385e-09
3.91932e-09
3.45849e-09
3.04367e-09
2.66929e-09
2.33037e-09
2.02319e-09
1.74657e-09
1.50102e-09
1.28605e-09
1.09919e-09
9.36228e-10
7.94104e-10
6.71035e-10
5.66912e-10
4.79414e-10
4.0416e-10
3.3907e-10
2.84446e-10
2.3869e-10
1.99824e-10
1.65241e-10
1.34708e-10
1.08207e-10
8.51312e-11
6.57517e-11
4.90863e-11
3.54952e-11
2.45055e-11
1.65625e-11
1.0676e-11
6.87098e-12
4.35394e-12
2.6715e-12
1.56704e-12
8.71543e-13
4.5702e-13
2.2503e-13
1.03729e-13
4.46645e-14
1.7938e-14
6.71263e-15
2.33905e-15
7.58631e-16
2.28953e-16
6.42827e-17
1.6788e-17
4.07736e-18
9.20787e-19
1.93309e-19
3.77199e-20
6.83955e-21
1.15222e-21
1.80309e-22
2.62058e-23
3.53683e-24
4.43171e-25
5.16226e-26
5.60666e-27
5.65887e-28
5.30398e-29
4.61661e-30
3.72971e-31
2.79661e-32
1.94616e-33
1.25691e-34
7.53354e-36
4.19036e-37
2.16295e-38
1.03602e-39
4.60465e-41
1.8989e-42
7.2652e-44
2.57863e-45
8.48928e-47
2.59193e-48
7.33781e-50
1.92576e-51
4.68399e-53
1.05555e-54
2.20312e-56
4.25718e-58
7.61265e-60
1.2591e-61
1.92507e-63
2.71905e-65
3.54539e-67
4.26425e-69
4.72682e-71
4.82411e-73
4.52819e-75
3.90454e-77
3.09423e-79
2.2469e-81
1.49237e-83
9.05222e-86
5.02123e-88
2.54318e-90
1.17605e-92
4.96218e-95
1.89442e-97
6.51908e-100
2.01336e-102
5.55636e-105
1.36441e-107
2.98654e-110
5.74937e-113
9.74197e-116
1.45789e-118
1.92369e-121
2.1771e-124
2.06017e-127
1.59442e-130
9.80073e-134
4.58849e-137
1.53393e-140
3.45639e-144
4.58896e-148
2.63158e-152
3.77349e-157
3.63935e-163
8.2707e-208
3.46834e-212
6.49312e-217
4.407e-222
6.50829e-229
2.22043e-242
5.38418e-244
1.28426e-245
3.01304e-247
6.95244e-249
1.57781e-250
3.52152e-252
7.72935e-254
1.66827e-255
3.54045e-257
7.38772e-259
1.51566e-260
3.05714e-262
6.06205e-264
1.18168e-265
2.26428e-267
4.26476e-269
7.89538e-271
1.43667e-272
2.5694e-274
4.51637e-276
7.80182e-278
1.32446e-279
2.20954e-281
3.6222e-283
5.83509e-285
9.23661e-287
1.43666e-288
2.19562e-290
3.29693e-292
4.86396e-294
7.05012e-296
1.00398e-297
1.40461e-299
1.93062e-301
2.60692e-303
3.45816e-305
4.50632e-307
5.76851e-309
7.2538e-311
8.96204e-313
1.08418e-314
0
0
0
0
0
0
0
0
0
0
0
0
0
0
0
0
0
0
0
0
0
0
0
0
0
0
0
0
0
0
0
0
0
0
0
0
0
0
0
0
0
0
0
0
0
0
0
0
0
0
0
0
0
0
0
0
0
0
0
0
0
0
0
0
0
0
0
0
0
0
0
0
0
0
0
0
0
0
0
0
0
0
0
0
0
3.74236e-06
2.96423e-06
2.46091e-06
2.30354e-06
2.2951e-06
2.29241e-06
2.3002e-06
2.34555e-06
2.42956e-06
2.50714e-06
2.18328e-06
1.51923e-06
7.43325e-07
3.26454e-07
2.4352e-07
2.43533e-07
2.33934e-07
1.95239e-07
1.80982e-07
1.74219e-07
1.67791e-07
1.6129e-07
1.54124e-07
1.46662e-07
1.37957e-07
1.28789e-07
1.2069e-07
1.13414e-07
1.06837e-07
1.00917e-07
9.56251e-08
9.09529e-08
8.69141e-08
8.33564e-08
8.04133e-08
7.79432e-08
7.474e-08
7.0297e-08
6.47144e-08
5.94435e-08
5.46186e-08
4.99841e-08
4.54419e-08
4.09604e-08
3.6552e-08
3.22578e-08
2.8159e-08
2.44449e-08
2.13757e-08
1.89445e-08
1.6937e-08
1.51607e-08
1.35425e-08
1.20631e-08
1.07224e-08
9.52644e-09
8.47932e-09
7.58081e-09
6.80679e-09
6.12086e-09
5.45907e-09
4.80166e-09
4.23634e-09
3.72632e-09
3.23832e-09
2.8104e-09
2.4513e-09
2.16107e-09
1.90343e-09
1.67401e-09
1.46454e-09
1.2672e-09
1.08301e-09
8.97268e-10
7.21668e-10
5.51876e-10
4.06443e-10
2.74056e-10
1.8276e-10
1.23293e-10
8.21016e-11
5.26672e-11
3.20922e-11
1.8418e-11
9.89987e-12
4.96416e-12
2.31591e-12
1.00348e-12
4.03446e-13
1.50443e-13
5.20268e-14
1.66876e-14
4.96536e-15
1.37081e-15
3.51186e-16
8.34982e-17
1.84255e-17
3.77368e-18
7.17298e-19
1.26531e-19
2.07122e-20
3.14596e-21
4.43348e-22
5.7958e-23
7.03555e-24
7.9612e-25
8.36737e-26
8.16131e-27
7.38795e-28
6.20393e-29
4.83246e-30
3.49156e-31
2.34e-32
1.45464e-33
8.38759e-35
4.48591e-36
2.22528e-37
1.02383e-38
4.36871e-40
1.72875e-41
6.34347e-43
2.15816e-44
6.8068e-46
1.98988e-47
5.3907e-49
1.35298e-50
3.14512e-52
6.76928e-54
1.34846e-55
2.48508e-57
4.23478e-59
6.66919e-61
9.70056e-63
1.30227e-64
1.61232e-66
1.83939e-68
1.93175e-70
1.86563e-72
1.65497e-74
1.34802e-76
1.00594e-78
6.86513e-81
4.27731e-83
2.43267e-85
1.26059e-87
5.96244e-90
2.57389e-92
1.00732e-94
3.56344e-97
1.13181e-99
3.2138e-102
8.12293e-105
1.82643e-107
3.61277e-110
6.26797e-113
9.53463e-116
1.28531e-118
1.49701e-121
1.46647e-124
1.17949e-127
7.57852e-131
3.74459e-134
1.34481e-137
3.31665e-141
5.02482e-145
3.71408e-149
8.25967e-154
3.47763e-159
8.66887e-205
4.08767e-209
9.57957e-214
8.39525e-219
4.57911e-225
1.46273e-231
3.7388e-242
9.05792e-244
2.15811e-245
5.0562e-247
1.16492e-248
2.63911e-250
5.87891e-252
1.28758e-253
2.77236e-255
5.86842e-257
1.22114e-258
2.49787e-260
5.02225e-262
9.92529e-264
1.92785e-265
3.6802e-267
6.90431e-269
1.27297e-270
2.30648e-272
4.10687e-274
7.18556e-276
1.23535e-277
2.08684e-279
3.46368e-281
5.64864e-283
9.05089e-285
1.42484e-286
2.20373e-288
3.34851e-290
4.99827e-292
7.32943e-294
1.05587e-295
1.49417e-297
2.0771e-299
2.83636e-301
3.80459e-303
5.01266e-305
6.48708e-307
8.24614e-309
1.02961e-310
1.26269e-312
1.53149e-314
0
0
0
0
0
0
0
0
0
0
0
0
0
0
0
0
0
0
0
0
0
0
0
0
0
0
0
0
0
0
0
0
0
0
0
0
0
0
0
0
0
0
0
0
0
0
0
0
0
0
0
0
0
0
0
0
0
0
0
0
0
0
0
0
0
0
0
0
0
0
0
0
0
0
0
0
0
0
0
0
0
0
0
0
3.06256e-05
2.69193e-05
8.97143e-06
1.2214e-06
6.20544e-07
2.55895e-06
2.88171e-06
2.50345e-06
3.99815e-06
1.86058e-05
3.42469e-05
2.9707e-05
1.92215e-05
5.82873e-06
4.9506e-07
2.76127e-07
1.42126e-06
1.32367e-06
4.11827e-07
3.52496e-07
3.66829e-07
3.9273e-07
4.1572e-07
4.29721e-07
5.90791e-07
6.03226e-07
5.04934e-07
5.15505e-07
5.11065e-07
5.06761e-07
5.03776e-07
5.01276e-07
5.00401e-07
5.03936e-07
5.15992e-07
5.33176e-07
5.49136e-07
5.63605e-07
4.61717e-07
3.42016e-07
2.86339e-07
2.58238e-07
2.40014e-07
2.25512e-07
2.12062e-07
1.97826e-07
1.80832e-07
1.50428e-07
1.15423e-07
8.76604e-08
7.26636e-08
6.37407e-08
5.69189e-08
5.08283e-08
4.52825e-08
4.03998e-08
3.62627e-08
3.30747e-08
3.1184e-08
3.10156e-08
3.17894e-08
2.98283e-08
2.65644e-08
2.51315e-08
2.27673e-08
1.94629e-08
1.59832e-08
1.3277e-08
1.13284e-08
1.04043e-08
9.84214e-09
9.34254e-09
8.8914e-09
8.29759e-09
7.67257e-09
6.96153e-09
6.42072e-09
4.97434e-09
3.26454e-09
2.2052e-09
1.56609e-09
1.10362e-09
7.47189e-10
4.78002e-10
2.86294e-10
1.59569e-10
8.24248e-11
3.93578e-11
1.73495e-11
7.05742e-12
2.64959e-12
9.1855e-13
2.94233e-13
8.71417e-14
2.38759e-14
6.05489e-15
1.42178e-15
3.0922e-16
6.2301e-17
1.16299e-17
2.01162e-18
3.22425e-19
4.78888e-20
6.58986e-21
8.41352e-22
1.001e-22
1.10474e-23
1.13032e-24
1.07218e-25
9.42632e-27
7.68086e-28
5.80057e-29
4.06005e-30
2.6339e-31
1.58373e-32
8.82637e-34
4.55932e-35
2.18287e-36
9.68622e-38
3.98342e-39
1.51811e-40
5.36108e-42
1.75409e-43
5.3166e-45
1.49251e-46
3.87974e-48
9.33633e-50
2.07923e-51
4.28375e-53
8.16139e-55
1.43721e-56
2.3381e-58
3.51183e-60
4.86681e-62
6.21828e-64
7.31902e-66
7.92847e-68
7.8965e-70
7.22259e-72
6.06071e-74
4.65846e-76
3.27437e-78
2.10095e-80
1.22881e-82
6.53792e-85
3.16613e-87
1.39403e-89
5.57759e-92
2.03287e-94
6.65587e-97
1.94956e-99
5.08568e-102
1.17762e-104
2.40075e-107
4.28346e-110
6.65578e-113
9.13937e-116
1.08977e-118
1.11149e-121
9.36354e-125
6.35268e-128
3.35732e-131
1.31845e-134
3.63576e-138
6.4156e-142
6.12083e-146
2.24201e-150
2.3972e-155
1.04642e-201
5.80756e-206
1.75346e-210
2.01135e-215
4.63964e-221
6.46694e-227
2.59933e-240
6.39939e-242
1.5491e-243
3.68667e-245
8.62661e-247
1.98449e-248
4.48815e-250
9.97775e-252
2.1803e-253
4.683e-255
9.88619e-257
2.05126e-258
4.1828e-260
8.38226e-262
1.6507e-263
3.19427e-265
6.07371e-267
1.1348e-268
2.08332e-270
3.75805e-272
6.66025e-274
1.15968e-275
1.98378e-277
3.33382e-279
5.50421e-281
8.92758e-283
1.42249e-284
2.22655e-286
3.42345e-288
5.1703e-290
7.67013e-292
1.11775e-293
1.59988e-295
2.24929e-297
3.10605e-299
4.21274e-301
5.6116e-303
7.34148e-305
9.43328e-307
1.19048e-308
1.47547e-310
1.79592e-312
2.17114e-314
0
0
0
0
0
0
0
0
0
0
0
0
0
0
0
0
0
0
0
0
0
0
0
0
0
0
0
0
0
0
0
0
0
0
0
0
0
0
0
0
0
0
0
0
0
0
0
0
0
0
0
0
0
0
0
0
0
0
0
0
0
0
0
0
0
0
0
0
0
0
0
0
0
0
0
0
0
0
0
0
0
0
0
6.40369e-07
6.74844e-07
6.43817e-07
6.22192e-07
6.00215e-07
3.95822e-06
3.02641e-05
3.85934e-05
3.86116e-05
3.85907e-05
3.48487e-05
1.12456e-05
9.72871e-07
4.76169e-07
4.73145e-07
3.99959e-07
1.2786e-06
2.27247e-06
1.90084e-06
6.06823e-07
3.72727e-07
4.06672e-07
4.2211e-07
4.40513e-07
4.64246e-07
4.77604e-07
4.84254e-07
4.87599e-07
4.89183e-07
4.89183e-07
4.89283e-07
1.53366e-06
1.96059e-05
0.000126832
0.000151357
0.000151254
0.000151355
0.000124438
3.33006e-05
2.08103e-06
2.95147e-07
3.10515e-07
3.27223e-07
3.38525e-07
3.51288e-07
3.65462e-07
9.98155e-07
1.91241e-06
1.88198e-06
1.03989e-06
3.0189e-07
3.99188e-07
5.10606e-07
6.44763e-07
7.35726e-07
7.49721e-07
6.61454e-07
5.18648e-07
9.38818e-07
2.59706e-06
2.61325e-06
1.87186e-06
4.48973e-07
4.76908e-07
5.99e-07
6.7291e-07
6.57427e-07
6.0796e-07
5.45173e-07
4.75685e-07
4.07331e-07
3.46321e-07
3.0345e-07
2.74584e-07
2.536e-07
2.17656e-07
1.73142e-07
1.28032e-07
7.18014e-08
3.23741e-08
1.99334e-08
1.41533e-08
1.03802e-08
7.37951e-09
4.96924e-09
3.12801e-09
1.82497e-09
9.81491e-10
4.85107e-10
2.20076e-10
9.16401e-11
3.50497e-11
1.23259e-11
3.99016e-12
1.19032e-12
3.27538e-13
8.32011e-14
1.95231e-14
4.23387e-15
8.48909e-16
1.57413e-16
2.70004e-17
4.28461e-18
6.29099e-19
8.54749e-20
1.07478e-20
1.25086e-21
1.34758e-22
1.34388e-23
1.24059e-24
1.06012e-25
8.38613e-27
6.14148e-28
4.16408e-29
2.61415e-30
1.51961e-31
8.17992e-33
4.07754e-34
1.88231e-35
8.04697e-37
3.18578e-38
1.16796e-39
3.96499e-41
1.2463e-42
3.62675e-44
9.76924e-46
2.4354e-47
5.61756e-49
1.1986e-50
2.36487e-52
4.31309e-54
7.26828e-56
1.13116e-57
1.62489e-59
2.15307e-61
2.62981e-63
2.95855e-65
3.06293e-67
2.91521e-69
2.54801e-71
2.04266e-73
1.4999e-75
1.00724e-77
6.17551e-80
3.45025e-82
1.75283e-84
8.07787e-87
3.36783e-89
1.26641e-91
4.28015e-94
1.29507e-96
3.4924e-99
8.35372e-102
1.76127e-104
3.24999e-107
5.20851e-110
7.26894e-113
8.76958e-116
9.35768e-119
8.30295e-122
5.98661e-125
3.40791e-128
1.47237e-131
4.57954e-135
9.48577e-139
1.15316e-142
6.514e-147
1.15993e-151
1.55615e-198
1.027e-202
3.93819e-207
6.60925e-212
4.50572e-217
1.35024e-222
1.84485e-238
4.61517e-240
1.13495e-241
2.74336e-243
6.51867e-245
1.52244e-246
3.49503e-248
7.88511e-250
1.74823e-251
3.80928e-253
8.15654e-255
1.71625e-256
3.54844e-258
7.20907e-260
1.43901e-261
2.82206e-263
5.43718e-265
1.02919e-266
1.91391e-268
3.49664e-270
6.27527e-272
1.10629e-273
1.91585e-275
3.25897e-277
5.44561e-279
8.93805e-281
1.441e-282
2.28193e-284
3.54926e-286
5.42171e-288
8.13436e-290
1.19876e-291
1.73496e-293
2.46613e-295
3.44274e-297
4.71994e-299
6.35456e-301
8.40167e-303
1.09093e-304
1.39114e-306
1.74204e-308
2.14212e-310
2.58656e-312
3.10561e-314
0
0
0
0
0
0
0
0
0
0
0
0
0
0
0
0
0
0
0
0
0
0
0
0
0
0
0
0
0
0
0
0
0
0
0
0
0
0
0
0
0
0
0
0
0
0
0
0
0
0
0
0
0
0
0
0
0
0
0
0
0
0
0
0
0
0
0
0
0
0
0
0
0
0
0
0
0
0
0
0
0
0
9.45892e-06
9.44549e-06
7.66796e-06
2.40011e-06
4.52227e-07
5.11451e-07
5.0275e-07
4.78457e-07
4.6647e-07
4.80436e-07
5.30098e-07
6.12201e-07
7.34696e-07
2.7494e-06
8.43971e-06
8.4975e-06
4.9306e-06
2.283e-06
2.41891e-06
6.36904e-06
3.83657e-06
1.01216e-06
7.45526e-07
6.20076e-07
2.41915e-06
2.78826e-06
1.01742e-06
8.67785e-07
9.94522e-07
1.08471e-06
1.25776e-06
1.72281e-06
1.82804e-06
1.68995e-06
1.34041e-06
9.74153e-07
7.41942e-07
6.47151e-07
6.12577e-07