/*--------------------------------*- C++ -*----------------------------------*\
| =========                 |                                                 |
| \\      /  F ield         | OpenFOAM: The Open Source CFD Toolbox           |
|  \\    /   O peration     | Version:  2.4.0                                 |
|   \\  /    A nd           | Web:      www.OpenFOAM.org                      |
|    \\/     M anipulation  |                                                 |
\*---------------------------------------------------------------------------*/
FoamFile
{
    version     2.0;
    format      ascii;
    class       volScalarField;
    location    "1.4";
    object      p_rgh;
}
// * * * * * * * * * * * * * * * * * * * * * * * * * * * * * * * * * * * * * //

dimensions      [1 -1 -2 0 0 0 0];

internalField   nonuniform List<scalar> 
8000
(
71.0281
71.2005
71.3877
71.5741
71.7473
71.9111
72.0472
72.2731
72.964
73.2143
70.5359
24.8488
-4.11446
-1.19832
-0.000876591
-0.120841
-0.169453
-0.157444
-0.136236
-0.119586
-0.103862
-0.0936004
-0.0882059
-0.0865358
-0.0865335
-0.0859148
-0.0849624
-0.084121
-0.0834215
-0.082765
-0.0821134
-0.0814394
-0.0807698
-0.080119
-0.0794952
-0.0789014
-0.0783317
-0.0777821
-0.07725
-0.0766947
-0.0761916
-0.0756893
-0.0750326
-0.0747602
-0.0743585
-0.0739148
-0.0734809
-0.0730549
-0.0726393
-0.0722333
77.634
77.7438
77.8729
78.0038
78.1373
78.274
78.4158
78.5602
78.6735
78.6849
78.6077
78.1081
77.6527
77.285
79.1858
50.9919
10.0388
-0.814724
0.202519
0.49155
0.291737
0.0200231
-0.117543
-0.126923
-0.109881
-0.105366
-0.0938266
-0.077404
-0.06957
-0.0713121
-0.0755577
-0.077098
-0.0764414
-0.075434
-0.0749058
-0.0746608
-0.0743811
-0.0740462
-0.0736994
-0.0733495
-0.0729975
-0.0726556
-0.0723339
-0.0720301
-0.0717459
-0.0714705
-0.0711987
-0.0709533
-0.0707162
-0.0704833
81.6193
81.6472
81.6821
81.7181
81.7547
81.793
81.8332
81.8765
81.9215
81.97
82.0276
82.1036
82.1863
82.2479
82.3211
82.343
82.3895
82.4065
82.2635
69.7366
52.2194
34.6573
12.2827
0.0284599
-0.236897
0.495826
0.494817
0.322508
0.138492
-0.00293908
-0.0518841
-0.0486425
-0.0336891
-0.0391104
-0.056708
-0.0674896
-0.0703947
-0.071444
-0.0730483
-0.0741549
-0.0743251
-0.0737448
-0.07372
-0.0734743
-0.0706031
-0.0704272
-0.0726216
-0.0732234
-0.0732143
-0.0731942
83.5437
83.5808
83.6197
83.6563
83.6912
83.7256
83.7592
83.7923
83.8242
83.8556
83.8856
83.9155
83.9436
83.9702
83.9937
84.0251
84.0625
84.1027
84.1665
84.2071
84.2606
84.3351
84.319
84.0909
83.6031
82.5622
62.5911
37.1024
9.56384
0.715085
1.91962
2.06737
1.63628
0.690996
0.0761312
-0.0072757
0.0101201
-0.003772
-0.0338912
-0.0513825
-0.0551806
-0.0553186
-0.0558824
-0.0584669
-0.0600657
-0.0602727
-0.0600879
-0.0599816
-0.0598979
-0.059231
87.5622
87.573
87.5878
87.6045
87.6231
87.6435
87.666
87.6905
87.717
87.7455
87.7758
87.8082
87.8424
87.8785
87.9162
87.9559
87.9969
88.0397
88.0844
88.1356
88.1957
88.2793
88.3986
88.5535
88.7169
88.9354
89.0796
89.0019
88.4058
86.9201
83.9383
66.7259
35.6096
5.94594
3.63418
3.4143
2.88035
1.16386
0.256655
0.046348
0.0355931
0.0150702
-0.0246745
-0.0497647
-0.0564472
-0.0591768
-0.0616696
-0.0633106
-0.0640403
-0.0636669
90.4292
90.4134
90.3986
90.3885
90.3831
90.3817
90.3842
90.3907
90.4009
90.4151
90.433
90.4549
90.4805
90.5101
90.5435
90.581
90.6223
90.6679
90.7173
90.7711
90.8288
90.8913
90.9579
91.0295
91.1042
91.1846
91.2762
91.3813
91.4877
91.5849
91.7283
91.7756
91.6079
91.1388
84.4338
77.7464
52.3095
17.9836
3.61996
3.63128
3.33084
1.49395
0.300946
0.0762692
0.0302787
-0.0158883
-0.0464508
-0.0573369
-0.0600355
-0.0599316
92.6566
92.6383
92.6196
92.6044
92.5925
92.5835
92.5772
92.5735
92.5725
92.5741
92.5783
92.5852
92.5945
92.6064
92.6208
92.6378
92.6571
92.6791
92.7033
92.7302
92.7594
92.7911
92.825
92.8613
92.8993
92.9396
92.9811
93.0248
93.0699
93.1181
93.1702
93.2282
93.2737
93.3143
93.3729
93.4604
93.4097
92.9216
85.29
83.9562
61.5893
23.491
5.01283
3.75002
2.39672
0.671371
0.112556
-0.00105066
-0.0397769
-0.0523611
94.5763
94.5557
94.5343
94.5158
94.5001
94.4866
94.4752
94.4659
94.4587
94.4536
94.4505
94.4495
94.4504
94.4533
94.4581
94.4649
94.4734
94.4837
94.4958
94.5096
94.525
94.5419
94.5604
94.5802
94.6015
94.624
94.6477
94.6724
94.6983
94.7249
94.7524
94.7805
94.8097
94.8403
94.8747
94.9096
94.9323
94.9576
94.9825
95.0553
95.0462
94.7177
86.3648
80.2635
40.7265
7.70302
3.38783
1.37745
0.295134
0.0610141
96.0079
95.9833
95.957
95.9338
95.9138
95.8962
95.881
95.8681
95.8575
95.8492
95.8432
95.8394
95.8379
95.8387
95.8417
95.8469
95.8543
95.8639
95.8757
95.8897
95.9058
95.9241
95.9445
95.9671
95.9918
96.0185
96.0474
96.0783
96.1113
96.1464
96.1834
96.2225
96.2635
96.3065
96.3512
96.3979
96.4465
96.4981
96.5531
96.6076
96.6487
96.6842
96.7232
96.8162
96.8
91.3423
77.1984
29.5858
8.171
3.4462
97.3714
97.3436
97.3148
97.2895
97.2676
97.2482
97.2313
97.2167
97.2045
97.1947
97.1873
97.1821
97.1794
97.1789
97.1808
97.185
97.1915
97.2003
97.2115
97.225
97.2409
97.2592
97.2799
97.303
97.3285
97.3565
97.3871
97.4202
97.4559
97.4943
97.5354
97.5793
97.6261
97.6758
97.7285
97.7843
97.8433
97.9056
97.9714
98.0406
98.1141
98.1922
98.274
98.3514
98.4229
98.5205
98.6746
98.6469
88.4194
56.7608
97.8621
97.8418
97.8196
97.7997
97.7822
97.7665
97.7525
97.7402
97.7296
97.7207
97.7135
97.7079
97.704
97.7018
97.7012
97.7022
97.7049
97.7092
97.7151
97.7227
97.7318
97.7426
97.7551
97.7691
97.7848
97.8021
97.8211
97.8417
97.8639
97.8878
97.9134
97.9407
97.9697
98.0004
98.0328
98.067
98.103
98.1408
98.1805
98.222
98.2656
98.3109
98.3585
98.4083
98.4608
98.5145
98.5639
98.615
98.6535
98.5357
98.5427
98.5295
98.5159
98.5038
98.493
98.4831
98.4741
98.466
98.4589
98.4526
98.4472
98.4427
98.4391
98.4364
98.4346
98.4336
98.4335
98.4343
98.4359
98.4384
98.4417
98.4458
98.4506
98.4563
98.4627
98.4699
98.4778
98.4863
98.4956
98.5055
98.5161
98.5272
98.5389
98.5511
98.5638
98.577
98.5905
98.6044
98.6186
98.6331
98.6478
98.6624
98.677
98.6917
98.706
98.7199
98.7341
98.7497
98.7598
98.7822
98.5871
98.5801
98.5719
98.5643
98.5576
98.5515
98.5461
98.5413
98.5371
98.5335
98.5306
98.5283
98.5267
98.5257
98.5254
98.5257
98.5266
98.5282
98.5304
98.5333
98.5368
98.5409
98.5457
98.551
98.557
98.5636
98.5709
98.5787
98.5871
98.5961
98.6057
98.6159
98.6266
98.6379
98.6497
98.6621
98.675
98.6884
98.7023
98.7167
98.7315
98.7467
98.7624
98.7783
98.7943
98.8101
98.8225
98.9101
98.8779
98.908
99.1786
99.1761
99.1744
99.1729
99.1716
99.1701
99.1687
99.1673
99.1659
99.1645
99.1631
99.1617
99.1604
99.1591
99.1577
99.1564
99.1551
99.1539
99.1526
99.1513
99.15
99.1487
99.1474
99.146
99.1446
99.1431
99.1416
99.14
99.1383
99.1365
99.1346
99.1325
99.1303
99.1279
99.1253
99.1225
99.1195
99.1162
99.1126
99.1087
99.1045
99.0999
99.0949
99.0893
99.0828
99.0751
99.0512
99.1297
99.0312
99.0825
98.9173
98.9187
98.9188
98.9184
98.9181
98.9178
98.9176
98.9175
98.9174
98.9173
98.9173
98.9173
98.9174
98.9175
98.9177
98.9179
98.9181
98.9184
98.9187
98.9191
98.9195
98.9199
98.9203
98.9208
98.9212
98.9217
98.9222
98.9227
98.9232
98.9236
98.924
98.9244
98.9247
98.9249
98.925
98.9249
98.9248
98.9244
98.9239
98.9231
98.922
98.9206
98.9186
98.9158
98.9127
98.9103
98.8889
98.91
98.8319
98.6152
99.879
99.8811
99.8853
99.8897
99.8938
99.8974
99.9006
99.9035
99.906
99.9082
99.91
99.9114
99.9125
99.9133
99.9138
99.9139
99.9136
99.9131
99.9123
99.9111
99.9096
99.9078
99.9058
99.9034
99.9007
99.8976
99.8943
99.8906
99.8866
99.8822
99.8775
99.8724
99.867
99.8611
99.8548
99.8481
99.8409
99.8333
99.8252
99.8165
99.8074
99.7975
99.7869
99.7764
99.7695
99.7638
99.7131
99.5616
98.7868
62.0349
99.1603
99.1703
99.1785
99.185
99.1909
99.1963
99.2011
99.2055
99.2093
99.2125
99.2152
99.2173
99.219
99.2201
99.2208
99.2211
99.221
99.2205
99.2198
99.2188
99.2175
99.2161
99.2146
99.2131
99.2115
99.2101
99.2087
99.2076
99.2068
99.2063
99.2063
99.2068
99.208
99.2099
99.2127
99.2165
99.2215
99.2276
99.2353
99.2444
99.2552
99.2677
99.2836
99.3058
99.3328
99.3274
99.2111
98.5271
49.1099
2.44126
100.831
100.855
100.883
100.907
100.925
100.94
100.951
100.96
100.966
100.97
100.973
100.974
100.974
100.973
100.971
100.968
100.965
100.962
100.959
100.955
100.951
100.948
100.944
100.941
100.937
100.934
100.931
100.928
100.926
100.923
100.921
100.918
100.915
100.912
100.909
100.905
100.9
100.895
100.888
100.879
100.869
100.856
100.841
100.825
100.803
100.749
100.639
81.77
21.3575
1.47442
99.4383
99.5114
99.5775
99.627
99.6639
99.6918
99.7121
99.7257
99.7332
99.7354
99.7329
99.726
99.7154
99.7012
99.6839
99.6636
99.6406
99.615
99.5869
99.5564
99.5235
99.4884
99.4509
99.411
99.3687
99.3238
99.2762
99.2257
99.1722
99.1153
99.0548
98.9903
98.9215
98.8478
98.7687
98.6837
98.5919
98.4925
98.3846
98.2667
98.1391
98.0021
97.8507
97.658
97.3801
97.1475
97.759
16.1343
0.0366699
-0.012055
105.915
105.494
105.075
104.717
104.407
104.13
103.88
103.653
103.449
103.263
103.096
102.944
102.807
102.683
102.572
102.473
102.385
102.307
102.24
102.183
102.136
102.099
102.071
102.054
102.046
102.048
102.061
102.085
102.121
102.169
102.23
102.306
102.397
102.504
102.631
102.778
102.948
103.144
103.37
103.63
103.927
104.269
104.66
105.11
105.64
106.301
107.078
107.822
91.1184
-0.0237248
-0.0718358
-0.0714458
-0.0710623
-0.0706843
-0.0703104
-0.0699387
-0.0695674
-0.0691944
-0.0688167
-0.0684306
-0.0680311
-0.0676196
-0.0672078
-0.0668093
-0.0664261
-0.0660558
-0.0657032
-0.0653684
-0.0650516
-0.0647508
-0.0644547
-0.0641601
-0.0638669
-0.0635453
-0.0632458
-0.0629623
-0.0626726
-0.0623909
-0.0620983
-0.0618201
-0.0615426
-0.061273
-0.0609989
-0.0607293
-0.0604603
-0.0601942
-0.0599386
-0.0596843
-0.0594415
-0.0591955
-0.0589861
-0.0587639
-0.0585499
-0.0583504
-0.0581388
-0.0579365
-0.057744
-0.0575407
-0.0573449
-0.0571474
-0.0702724
-0.0701041
-0.0699344
-0.0697521
-0.0695222
-0.0692671
-0.0690367
-0.0688162
-0.0686004
-0.0683575
-0.0680622
-0.0677882
-0.0675391
-0.0672652
-0.0670294
-0.0666076
-0.066194
-0.065923
-0.0656702
-0.0652607
-0.0647185
-0.0651713
-0.0650209
-0.0646324
-0.0651005
-0.0643517
-0.0644587
-0.064661
-0.0632341
-0.0631517
-0.0616389
-0.0621902
-0.0608023
-0.0608272
-0.059381
-0.0601102
-0.0579694
-0.058454
-0.0590552
-0.0576519
-0.0580787
-0.0571553
-0.0575404
-0.05735
-0.0571797
-0.057127
-0.0565824
-0.0564707
-0.0562877
-0.0561891
-0.0732218
-0.0733158
-0.0735049
-0.0734975
-0.0736043
-0.0737346
-0.0740878
-0.0742866
-0.0744858
-0.0741493
-0.0226595
-0.0428176
-0.0527759
-0.0549271
-0.0551237
-0.0551461
-0.0551407
-0.0551029
-0.0549623
-0.0528687
-0.0508754
-0.0506749
-0.0574373
-0.0595277
-0.0600093
-0.0598736
-0.0597567
-0.059639
-0.0595131
-0.0593742
-0.0592294
-0.0590863
-0.0589317
-0.0587604
-0.0585953
-0.0580921
-0.0563394
-0.056715
-0.0570303
-0.0567882
-0.0565371
-0.0564746
-0.0567867
-0.0566243
-0.0579619
-0.056035
-0.0560199
-0.0555224
-0.0535218
-0.0526138
-0.0537157
-0.0386935
-0.0329773
-0.0342001
-0.0455173
-0.0543009
-0.0560849
-0.0562337
-0.0616746
-0.0537476
-0.0425639
-0.0429343
-0.049279
-0.0553736
-0.0569739
-0.0570567
-0.0571288
-0.0572183
-0.057285
-0.0574167
-0.0575525
-0.0577391
-0.0578465
-0.0579752
-0.0581168
-0.0582192
-0.0582966
-0.0583755
-0.0584447
-0.0585101
-0.0585216
-0.0585926
-0.0586881
-0.0587963
-0.0586506
-0.0569132
-0.0466217
-0.0156665
0.00726887
0.000929068
-0.0126665
-0.0377298
-0.0480593
-0.0494047
-0.0495793
-0.0497774
-0.0499672
-0.0501192
-0.0502401
-0.0503432
-0.0634969
-0.0633472
-0.0632716
-0.0629902
-0.0627715
-0.0626038
-0.0624706
-0.0622592
-0.0622214
-0.0620752
-0.0619106
-0.061685
-0.0614957
-0.0613245
-0.0611163
-0.0609476
-0.060741
-0.0605471
-0.0604236
-0.0603245
-0.0601679
-0.0600605
-0.0599138
-0.059758
-0.0595984
-0.0594406
-0.0592861
-0.059126
-0.058965
-0.0584602
-0.0585201
-0.0583477
-0.0581759
-0.057984
-0.0577763
-0.0575634
-0.0573344
-0.057101
-0.0569084
-0.0563693
-0.0559451
-0.0556215
-0.0553523
-0.0550945
-0.054828
-0.054545
-0.0542064
-0.0539765
-0.0537024
-0.0531101
-0.0599268
-0.0598723
-0.0600229
-0.059933
-0.0598131
-0.0596925
-0.0595861
-0.0594967
-0.0594119
-0.0593284
-0.0592296
-0.0591155
-0.0589825
-0.0588487
-0.0587271
-0.058619
-0.0585183
-0.0584265
-0.0583449
-0.0582731
-0.0582105
-0.0581554
-0.0581074
-0.0580654
-0.0580298
-0.0580006
-0.0579783
-0.0579639
-0.0579589
-0.0579646
-0.0579804
-0.0580085
-0.05805
-0.0581065
-0.0581809
-0.058278
-0.0584025
-0.0585436
-0.0586554
-0.0587051
-0.0586753
-0.0586366
-0.0586125
-0.0586075
-0.0586248
-0.0586687
-0.0587429
-0.0588492
-0.0589879
-0.0591648
-0.0561726
-0.0573427
-0.0573011
-0.0572777
-0.0571813
-0.0569276
-0.0570814
-0.0570616
-0.0570077
-0.0569526
-0.056898
-0.0568439
-0.0567903
-0.0567372
-0.0566845
-0.056632
-0.0565795
-0.0565265
-0.0564728
-0.0564175
-0.0563594
-0.0562975
-0.0562317
-0.0561618
-0.0560883
-0.056012
-0.0559333
-0.0558528
-0.0557708
-0.0556873
-0.0556024
-0.055516
-0.0554278
-0.0553379
-0.0552463
-0.0551528
-0.0550575
-0.0549603
-0.0548613
-0.0547604
-0.054657
-0.0545509
-0.0544419
-0.0543299
-0.0542146
-0.054096
-0.0539739
-0.0538485
-0.0537203
-0.0535824
-0.00696126
-0.0385699
-0.0507015
-0.0541706
-0.0544776
-0.0545196
-0.0543405
-0.0551915
-0.0552108
-0.0551595
-0.0551355
-0.0550959
-0.0550576
-0.055021
-0.0549864
-0.0549541
-0.0549243
-0.0548962
-0.0548684
-0.0548386
-0.0548052
-0.0547673
-0.0547249
-0.0546786
-0.0546295
-0.0545786
-0.0545265
-0.054474
-0.0544214
-0.0543689
-0.0543166
-0.0542644
-0.0542124
-0.0541604
-0.0541083
-0.054056
-0.0540033
-0.0539502
-0.0538962
-0.0538414
-0.0537855
-0.0537287
-0.0536709
-0.0536123
-0.0535527
-0.0534922
-0.0534306
-0.0533677
-0.0533038
-0.0532394
1.07826
0.256652
0.0195131
-0.0419519
-0.052809
-0.0531119
-0.0530846
-0.0530852
-0.0530757
-0.0530641
-0.0530536
-0.0530423
-0.053031
-0.0530204
-0.0530108
-0.0530027
-0.0529961
-0.0529906
-0.0529852
-0.0529782
-0.0529677
-0.052952
-0.0529302
-0.0529019
-0.0528678
-0.0528289
-0.0527861
-0.0527405
-0.0526928
-0.0526436
-0.0525932
-0.0525417
-0.0524892
-0.0524356
-0.0523808
-0.0523249
-0.0522679
-0.0522096
-0.0521501
-0.0520894
-0.0520274
-0.0519641
-0.0518994
-0.0518334
-0.051766
-0.0516972
-0.051627
-0.0515555
-0.0514829
-0.0514079
24.3997
9.19583
2.55793
0.456234
0.0244777
-0.0428211
-0.0514232
-0.0515785
-0.0515931
-0.051614
-0.0516299
-0.0516419
-0.0516533
-0.0516646
-0.0516756
-0.0516862
-0.0516959
-0.0517041
-0.0517102
-0.0517131
-0.0517119
-0.0517058
-0.0516942
-0.0516771
-0.0516547
-0.0516277
-0.051597
-0.0515636
-0.0515281
-0.0514913
-0.0514535
-0.0514151
-0.051376
-0.0513364
-0.0512962
-0.0512554
-0.051214
-0.051172
-0.0511294
-0.0510863
-0.0510425
-0.0509981
-0.0509532
-0.0509076
-0.0508614
-0.0508147
-0.0507673
-0.0507194
-0.0506711
-0.0506223
90.5938
68.2544
32.6585
8.75078
1.37238
0.0831951
-0.044968
-0.0500979
-0.0499301
-0.0501212
-0.0501032
-0.0501356
-0.0501688
-0.0502004
-0.0502301
-0.0502568
-0.0502793
-0.0502965
-0.0503081
-0.0503137
-0.0503136
-0.0503081
-0.0502979
-0.0502835
-0.0502658
-0.0502453
-0.0502228
-0.0501988
-0.0501736
-0.0501477
-0.0501211
-0.050094
-0.0500665
-0.0500386
-0.0500102
-0.0499814
-0.0499521
-0.0499224
-0.0498922
-0.0498616
-0.0498306
-0.0497991
-0.0497672
-0.0497349
-0.0497021
-0.0496689
-0.0496354
-0.0496015
-0.0495675
-0.0495327
98.7528
98.1251
81.8173
32.2423
4.54881
0.215484
-0.0437769
-0.0485196
-0.0486042
-0.0486924
-0.0487639
-0.0488274
-0.0488868
-0.0489417
-0.0489904
-0.0490318
-0.0490652
-0.0490908
-0.0491089
-0.0491205
-0.0491264
-0.0491277
-0.0491253
-0.04912
-0.0491124
-0.0491032
-0.0490927
-0.0490812
-0.0490689
-0.049056
-0.0490425
-0.0490285
-0.049014
-0.0489989
-0.0489835
-0.0489675
-0.0489511
-0.0489342
-0.0489169
-0.0488992
-0.0488811
-0.0488626
-0.0488437
-0.0488244
-0.0488048
-0.0487848
-0.0487645
-0.0487439
-0.0487231
-0.048702
98.9218
98.87
90.0532
39.3217
5.16679
0.177883
-0.0455287
-0.0469768
-0.0474106
-0.0475501
-0.0476269
-0.0476912
-0.0477499
-0.0478017
-0.0478458
-0.0478818
-0.0479103
-0.047932
-0.0479479
-0.047959
-0.0479663
-0.0479706
-0.0479727
-0.0479732
-0.0479724
-0.0479707
-0.0479684
-0.0479655
-0.0479622
-0.0479586
-0.0479546
-0.0479503
-0.0479457
-0.0479407
-0.0479354
-0.0479298
-0.0479239
-0.0479177
-0.0479112
-0.0479045
-0.0478974
-0.0478901
-0.0478824
-0.0478745
-0.0478664
-0.047858
-0.0478493
-0.0478404
-0.0478314
-0.047822
98.9496
89.6568
44.0219
9.62435
0.807648
-0.0232188
-0.0460785
-0.0462472
-0.0464708
-0.0465447
-0.0466011
-0.046656
-0.0467049
-0.0467462
-0.0467803
-0.046808
-0.0468305
-0.0468487
-0.0468635
-0.0468758
-0.0468863
-0.0468954
-0.0469035
-0.0469109
-0.0469177
-0.0469243
-0.0469305
-0.0469365
-0.0469422
-0.0469477
-0.0469529
-0.0469579
-0.0469626
-0.0469671
-0.0469713
-0.0469753
-0.046979
-0.0469825
-0.0469857
-0.0469887
-0.0469915
-0.0469939
-0.0469962
-0.0469982
-0.0469999
-0.0470014
-0.0470027
-0.0470037
-0.0470045
-0.0470051
78.9282
28.462
3.82768
0.256993
-0.0376916
-0.0450807
-0.0453013
-0.0454916
-0.0455512
-0.0456103
-0.0456549
-0.0456909
-0.045721
-0.0457464
-0.0457681
-0.0457872
-0.0458044
-0.0458203
-0.0458354
-0.0458501
-0.0458645
-0.0458787
-0.045893
-0.0459073
-0.0459216
-0.0459359
-0.0459501
-0.0459644
-0.0459786
-0.0459928
-0.0460069
-0.0460209
-0.0460348
-0.0460486
-0.0460623
-0.0460759
-0.0460893
-0.0461026
-0.0461157
-0.0461287
-0.0461414
-0.046154
-0.0461664
-0.0461785
-0.0461905
-0.0462022
-0.0462138
-0.0462251
-0.0462361
-0.046247
15.8888
2.01242
-0.0112466
-0.0433132
-0.0438681
-0.0442799
-0.0444286
-0.0444776
-0.0445074
-0.0445325
-0.0445555
-0.0445769
-0.0445974
-0.0446175
-0.0446378
-0.0446583
-0.0446794
-0.0447009
-0.0447231
-0.0447458
-0.0447689
-0.0447926
-0.0448166
-0.0448409
-0.0448656
-0.0448905
-0.0449156
-0.0449409
-0.0449663
-0.0449918
-0.0450174
-0.0450429
-0.0450685
-0.045094
-0.0451194
-0.0451447
-0.0451698
-0.0451949
-0.0452197
-0.0452443
-0.0452687
-0.0452929
-0.0453168
-0.0453404
-0.0453637
-0.0453867
-0.0454094
-0.0454319
-0.0454538
-0.0454755
0.0638783
-0.00289187
-0.0416211
-0.0429464
-0.0430311
-0.0430822
-0.0431352
-0.0431794
-0.0432185
-0.0432555
-0.0432924
-0.0433296
-0.0433674
-0.0434059
-0.0434451
-0.0434849
-0.0435254
-0.0435663
-0.0436077
-0.0436496
-0.0436917
-0.0437341
-0.0437767
-0.0438195
-0.0438623
-0.0439052
-0.043948
-0.0439907
-0.0440333
-0.0440756
-0.0441178
-0.0441597
-0.0442013
-0.0442426
-0.0442835
-0.0443239
-0.044364
-0.0444037
-0.0444428
-0.0444815
-0.0445197
-0.0445574
-0.0445945
-0.0446311
-0.0446671
-0.0447026
-0.0447375
-0.0447719
-0.0448055
-0.0448388
-0.00750082
-0.0400478
-0.0409868
-0.0410964
-0.0411684
-0.0412251
-0.0412851
-0.0413526
-0.0414249
-0.0415004
-0.0415782
-0.0416576
-0.0417381
-0.0418192
-0.0419007
-0.041982
-0.0420631
-0.0421437
-0.0422238
-0.0423031
-0.0423817
-0.0424596
-0.0425366
-0.0426128
-0.042688
-0.0427623
-0.0428356
-0.0429078
-0.0429789
-0.043049
-0.0431178
-0.0431855
-0.0432521
-0.0433174
-0.0433816
-0.0434445
-0.0435063
-0.0435668
-0.0436262
-0.0436844
-0.0437414
-0.0437972
-0.0438519
-0.0439054
-0.0439578
-0.0440091
-0.0440593
-0.0441085
-0.0441563
-0.0442032
-0.0374338
-0.0379236
-0.0381722
-0.0384222
-0.0386252
-0.0388483
-0.03908
-0.0393069
-0.0395249
-0.0397338
-0.0399335
-0.0401248
-0.0403078
-0.0404825
-0.0406492
-0.040808
-0.0409593
-0.0411035
-0.0412409
-0.0413721
-0.0414976
-0.0416178
-0.0417334
-0.0418448
-0.0419522
-0.0420561
-0.0421568
-0.0422543
-0.042349
-0.042441
-0.0425303
-0.0426171
-0.0427015
-0.0427836
-0.0428635
-0.0429413
-0.0430171
-0.0430909
-0.0431628
-0.0432329
-0.0433012
-0.0433678
-0.0434328
-0.0434961
-0.0435579
-0.0436182
-0.043677
-0.0437345
-0.0437902
-0.043845
-0.0348497
-0.0352432
-0.0377333
-0.0379999
-0.0382306
-0.0384525
-0.0386695
-0.0388819
-0.0390904
-0.0392932
-0.0394876
-0.0396777
-0.0398636
-0.0400441
-0.0402184
-0.0403861
-0.0405468
-0.0407001
-0.040846
-0.0409846
-0.0411162
-0.0412416
-0.0413613
-0.0414763
-0.0415872
-0.0416945
-0.0417987
-0.0419001
-0.0419989
-0.0420953
-0.0421894
-0.0422812
-0.0423709
-0.0424585
-0.042544
-0.0426275
-0.0427091
-0.0427887
-0.0428665
-0.0429424
-0.0430165
-0.043089
-0.0431597
-0.0432288
-0.0432962
-0.0433621
-0.0434264
-0.0434893
-0.0435505
-0.0436105
-0.0569939
-0.0568781
-0.056759
-0.0566406
-0.0565217
-0.0564038
-0.0562861
-0.0561692
-0.0560527
-0.0559338
-0.055812
-0.0556897
-0.0555629
-0.055434
-0.0553063
-0.0551806
-0.055057
-0.0549353
-0.0548153
-0.054697
-0.0545805
-0.0544659
-0.0543531
-0.054242
-0.0541327
-0.0540251
-0.0539192
-0.053815
-0.0537126
-0.053612
-0.0535134
-0.0534167
-0.053322
-0.0532296
-0.0531394
-0.0530515
-0.0529658
-0.052882
-0.0527997
-0.0527189
-0.0526394
-0.0525611
-0.0524841
-0.0524084
-0.052334
-0.0522608
-0.052189
-0.0521185
-0.0520493
-0.0519814
-0.0519148
-0.0518494
-0.0517854
-0.0517225
-0.0516608
-0.0516003
-0.0515409
-0.0514826
-0.0514255
-0.0513696
-0.0513147
-0.0512609
-0.0512082
-0.0511566
-0.0511059
-0.0510562
-0.0510074
-0.0509594
-0.0509122
-0.0508656
-0.0508195
-0.0507738
-0.0507283
-0.0506829
-0.0506374
-0.0505918
-0.0505458
-0.0504995
-0.0504526
-0.0504053
-0.0503575
-0.0503092
-0.0502605
-0.0502114
-0.0501619
-0.050112
-0.0500618
-0.0500112
-0.0499603
-0.0499091
-0.0498576
-0.0498058
-0.0497538
-0.0497014
-0.0496488
-0.0495959
-0.0495428
-0.0494894
-0.0494357
-0.0493818
-0.0493276
-0.0492732
-0.0492185
-0.0491635
-0.0491083
-0.0490529
-0.0489972
-0.0489413
-0.0488852
-0.0488288
-0.0487722
-0.0487154
-0.0486584
-0.0486012
-0.0485438
-0.0484862
-0.0484285
-0.0483705
-0.0483125
-0.0482543
-0.0481959
-0.0481374
-0.0480788
-0.0480201
-0.0479614
-0.0479025
-0.0478436
-0.0477846
-0.0477255
-0.0476665
-0.0476074
-0.0475482
-0.0474891
-0.04743
-0.0473709
-0.0473118
-0.0472527
-0.0471937
-0.0471347
-0.0470758
-0.047017
-0.0469582
-0.0468995
-0.0468409
-0.0467824
-0.046724
-0.0466657
-0.0466075
-0.0465494
-0.0464915
-0.0464337
-0.046376
-0.0463185
-0.0462611
-0.0462039
-0.0461468
-0.0460899
-0.0460331
-0.0459765
-0.0459201
-0.0458638
-0.0458077
-0.0457518
-0.0456961
-0.0456406
-0.0455853
-0.0455301
-0.0454751
-0.0454204
-0.0453658
-0.0453114
-0.0452573
-0.0452033
-0.0451496
-0.045096
-0.0450427
-0.0449896
-0.0449367
-0.044884
-0.0448316
-0.0447793
-0.0447273
-0.0446756
-0.044624
-0.0445727
-0.0445216
-0.0444708
-0.0444202
-0.0443698
-0.0443197
-0.0442698
-0.0442202
-0.0441708
-0.0441216
-0.0440727
-0.0440241
-0.0439757
-0.0439276
-0.0438798
-0.0438322
-0.0437848
-0.0437378
-0.043691
-0.0436445
-0.0435982
-0.0435523
-0.0435066
-0.0434612
-0.043416
-0.0433712
-0.0433267
-0.0432824
-0.0432384
-0.0431948
-0.0431514
-0.0431083
-0.0430656
-0.0430231
-0.042981
-0.0429391
-0.0428976
-0.0428564
-0.0428156
-0.042775
-0.0427348
-0.0426949
-0.0426554
-0.0426162
-0.0425773
-0.0425388
-0.0425007
-0.0424629
-0.0424254
-0.0423884
-0.0423516
-0.0423153
-0.0422793
-0.0422437
-0.0422085
-0.0421737
-0.0421393
-0.0421053
-0.0420717
-0.0420384
-0.0420056
-0.0419733
-0.0419413
-0.0419098
-0.0418787
-0.041848
-0.0418178
-0.041788
-0.0417587
-0.0417298
-0.0417014
-0.0416735
-0.0416461
-0.0416191
-0.0415927
-0.0415667
-0.0415413
-0.0415163
-0.0414919
-0.041468
-0.0414446
-0.0414218
-0.0413995
-0.0413778
-0.0413566
-0.0413361
-0.041316
-0.0412966
-0.0412778
-0.0412596
-0.041242
-0.041225
-0.0412086
-0.0411929
-0.0411778
-0.0411634
-0.0411496
-0.0411366
-0.0411242
-0.0411125
-0.0411016
-0.0410913
-0.0410818
-0.041073
-0.041065
-0.0410577
-0.0410513
-0.0410456
-0.0410407
-0.0410366
-0.0410334
-0.041031
-0.0410294
-0.0410288
-0.041029
-0.0410301
-0.0560698
-0.0560083
-0.0559456
-0.055833
-0.0556955
-0.0555578
-0.0554235
-0.0552963
-0.0551279
-0.0549493
-0.0549246
-0.0549141
-0.0548963
-0.0548108
-0.0546791
-0.0545425
-0.0544115
-0.0542904
-0.0541704
-0.0540545
-0.0539443
-0.0538404
-0.0537426
-0.053651
-0.0535659
-0.0534876
-0.0534155
-0.0533501
-0.053292
-0.0532413
-0.0531982
-0.0531636
-0.0531383
-0.0531234
-0.0531164
-0.0531009
-0.0530349
-0.0529359
-0.0528207
-0.0526962
-0.0525648
-0.0524292
-0.0522914
-0.0521532
-0.0520159
-0.0518802
-0.051747
-0.0516167
-0.0514898
-0.0513666
-0.0512476
-0.0511334
-0.0510246
-0.0509217
-0.0508247
-0.0507338
-0.0506487
-0.0505691
-0.0504946
-0.0504246
-0.0503586
-0.0502965
-0.0502377
-0.0501823
-0.0501302
-0.0500816
-0.0500362
-0.0499939
-0.0499548
-0.0499191
-0.0498869
-0.0498584
-0.0498338
-0.0498134
-0.0497974
-0.0497855
-0.0497767
-0.0497696
-0.0497629
-0.049756
-0.0497486
-0.0497406
-0.0497319
-0.0497223
-0.0497117
-0.0497001
-0.0496873
-0.0496732
-0.0496577
-0.0496407
-0.0496223
-0.0496022
-0.0495806
-0.0495574
-0.0495325
-0.0495059
-0.0494777
-0.0494478
-0.0494163
-0.0493832
-0.0493485
-0.0493123
-0.0492746
-0.0492353
-0.0491947
-0.0491527
-0.0491095
-0.0490649
-0.0490192
-0.0489723
-0.0489244
-0.0488754
-0.0488255
-0.0487746
-0.048723
-0.0486705
-0.0486173
-0.0485635
-0.048509
-0.0484539
-0.0483983
-0.0483423
-0.0482858
-0.0482289
-0.0481717
-0.0481142
-0.0480564
-0.0479984
-0.0479402
-0.0478818
-0.0478233
-0.0477646
-0.0477059
-0.0476471
-0.0475882
-0.0475294
-0.0474705
-0.0474117
-0.0473529
-0.0472941
-0.0472354
-0.0471768
-0.0471182
-0.0470598
-0.0470015
-0.0469433
-0.0468852
-0.0468273
-0.0467695
-0.0467118
-0.0466543
-0.046597
-0.0465398
-0.0464828
-0.046426
-0.0463694
-0.0463129
-0.0462567
-0.0462006
-0.0461447
-0.046089
-0.0460336
-0.0459783
-0.0459232
-0.0458683
-0.0458136
-0.0457592
-0.0457049
-0.0456509
-0.0455971
-0.0455435
-0.0454901
-0.0454369
-0.0453839
-0.0453312
-0.0452787
-0.0452264
-0.0451743
-0.0451225
-0.0450709
-0.0450195
-0.0449683
-0.0449174
-0.0448667
-0.0448162
-0.0447659
-0.0447159
-0.0446662
-0.0446166
-0.0445673
-0.0445183
-0.0444695
-0.0444209
-0.0443726
-0.0443245
-0.0442767
-0.0442291
-0.0441818
-0.0441347
-0.0440879
-0.0440414
-0.0439951
-0.0439491
-0.0439033
-0.0438578
-0.0438126
-0.0437676
-0.0437229
-0.0436785
-0.0436344
-0.0435906
-0.043547
-0.0435037
-0.0434607
-0.0434181
-0.0433757
-0.0433336
-0.0432918
-0.0432503
-0.0432091
-0.0431682
-0.0431277
-0.0430874
-0.0430475
-0.0430079
-0.0429686
-0.0429297
-0.0428911
-0.0428528
-0.0428149
-0.0427773
-0.0427401
-0.0427032
-0.0426667
-0.0426305
-0.0425947
-0.0425593
-0.0425242
-0.0424896
-0.0424553
-0.0424214
-0.0423878
-0.0423547
-0.042322
-0.0422897
-0.0422578
-0.0422263
-0.0421953
-0.0421646
-0.0421344
-0.0421046
-0.0420753
-0.0420464
-0.042018
-0.0419901
-0.0419626
-0.0419356
-0.041909
-0.041883
-0.0418574
-0.0418323
-0.0418078
-0.0417837
-0.0417602
-0.0417372
-0.0417147
-0.0416928
-0.0416714
-0.0416505
-0.0416303
-0.0416106
-0.0415915
-0.041573
-0.041555
-0.0415377
-0.041521
-0.0415049
-0.0414895
-0.0414747
-0.0414605
-0.041447
-0.0414342
-0.0414221
-0.0414106
-0.0413999
-0.0413898
-0.0413805
-0.041372
-0.0413641
-0.0413571
-0.0413508
-0.0413453
-0.0413406
-0.0413367
-0.0413336
-0.0413313
-0.0413299
-0.0413294
-0.0413298
-0.0413309
-0.0526794
-0.0530535
-0.0545692
-0.055205
-0.0547159
-0.0561952
-0.0560877
-0.0561316
-0.0564705
-0.0553511
-0.0411746
-0.04563
-0.0471094
-0.0482697
-0.0487225
-0.0485674
-0.0491446
-0.0492387
-0.0498215
-0.0498012
-0.0498051
-0.0498061
-0.0497944
-0.0497826
-0.0497534
-0.0497302
-0.0497956
-0.0497856
-0.049772
-0.0497606
-0.0497493
-0.0497391
-0.0497287
-0.0497121
-0.0497001
-0.0497108
-0.0496324
-0.0495765
-0.0495619
-0.0495794
-0.0495612
-0.0495203
-0.0494759
-0.0494321
-0.0493912
-0.0493547
-0.0493238
-0.0493009
-0.0492886
-0.0492867
-0.0492964
-0.0493205
-0.0493552
-0.0493827
-0.0493954
-0.0493768
-0.0493574
-0.0493472
-0.0493479
-0.0493588
-0.0493798
-0.0494055
-0.0494406
-0.0494864
-0.0495457
-0.0496187
-0.0497061
-0.0498094
-0.0499299
-0.0500635
-0.0502134
-0.0503844
-0.0505805
-0.0507952
-0.0510235
-0.051151
-0.0512364
-0.0512495
-0.0512407
-0.0512159
-0.0511795
-0.0511358
-0.0510877
-0.0510373
-0.0509855
-0.050933
-0.0508801
-0.0508267
-0.0507729
-0.0507184
-0.0506631
-0.050607
-0.0505498
-0.0504915
-0.0504321
-0.0503715
-0.0503098
-0.0502469
-0.0501829
-0.050118
-0.0500521
-0.0499853
-0.0499178
-0.0498496
-0.0497809
-0.0497117
-0.0496421
-0.0495723
-0.0495022
-0.0494321
-0.0493618
-0.0492917
-0.0492216
-0.0491516
-0.0490818
-0.0490123
-0.048943
-0.048874
-0.0488054
-0.0487371
-0.0486691
-0.0486016
-0.0485345
-0.0484677
-0.0484014
-0.0483355
-0.04827
-0.048205
-0.0481404
-0.0480761
-0.0480123
-0.0479489
-0.047886
-0.0478234
-0.0477611
-0.0476993
-0.0476379
-0.0475768
-0.047516
-0.0474556
-0.0473956
-0.0473359
-0.0472765
-0.0472174
-0.0471586
-0.0471002
-0.047042
-0.0469841
-0.0469266
-0.0468693
-0.0468122
-0.0467555
-0.046699
-0.0466427
-0.0465867
-0.046531
-0.0464755
-0.0464203
-0.0463652
-0.0463105
-0.046256
-0.0462017
-0.0461476
-0.0460938
-0.0460401
-0.0459868
-0.0459336
-0.0458807
-0.045828
-0.0457755
-0.0457232
-0.0456712
-0.0456194
-0.0455678
-0.0455164
-0.0454652
-0.0454143
-0.0453636
-0.0453131
-0.0452628
-0.0452127
-0.0451629
-0.0451133
-0.0450639
-0.0450148
-0.0449659
-0.0449172
-0.0448687
-0.0448205
-0.0447725
-0.0447247
-0.0446772
-0.0446299
-0.0445828
-0.044536
-0.0444894
-0.0444431
-0.044397
-0.0443512
-0.0443056
-0.0442602
-0.0442151
-0.0441703
-0.0441257
-0.0440814
-0.0440373
-0.0439935
-0.04395
-0.0439067
-0.0438637
-0.0438209
-0.0437785
-0.0437363
-0.0436944
-0.0436527
-0.0436114
-0.0435703
-0.0435295
-0.0434891
-0.0434489
-0.043409
-0.0433694
-0.0433301
-0.0432912
-0.0432525
-0.0432142
-0.0431761
-0.0431384
-0.043101
-0.043064
-0.0430272
-0.0429909
-0.0429548
-0.0429191
-0.0428837
-0.0428487
-0.0428141
-0.0427798
-0.0427459
-0.0427123
-0.0426791
-0.0426463
-0.0426139
-0.0425819
-0.0425503
-0.042519
-0.0424882
-0.0424578
-0.0424278
-0.0423982
-0.042369
-0.0423403
-0.042312
-0.0422841
-0.0422567
-0.0422298
-0.0422033
-0.0421773
-0.0421518
-0.0421267
-0.0421021
-0.042078
-0.0420545
-0.0420314
-0.0420088
-0.0419868
-0.0419653
-0.0419443
-0.0419239
-0.0419041
-0.0418848
-0.041866
-0.0418479
-0.0418303
-0.0418133
-0.041797
-0.0417812
-0.0417661
-0.0417516
-0.0417378
-0.0417246
-0.041712
-0.0417002
-0.041689
-0.0416785
-0.0416687
-0.0416597
-0.0416513
-0.0416437
-0.0416369
-0.0416308
-0.0416255
-0.0416209
-0.0416172
-0.0416143
-0.0416122
-0.0416109
-0.0416105
-0.041611
-0.0416123
-0.0503672
-0.050398
-0.0504431
-0.0504443
-0.0504381
-0.0501883
-0.0479683
-0.047198
-0.0471099
-0.0471742
-0.0475945
-0.0496319
-0.0504585
-0.0504508
-0.050415
-0.0503296
-0.0503196
-0.0493563
-0.0496192
-0.049598
-0.0494739