/*--------------------------------*- C++ -*----------------------------------*\
| =========                 |                                                 |
| \\      /  F ield         | OpenFOAM: The Open Source CFD Toolbox           |
|  \\    /   O peration     | Version:  2.4.0                                 |
|   \\  /    A nd           | Web:      www.OpenFOAM.org                      |
|    \\/     M anipulation  |                                                 |
\*---------------------------------------------------------------------------*/
FoamFile
{
    version     2.0;
    format      ascii;
    class       volScalarField;
    location    "0.006";
    object      H;
}
// * * * * * * * * * * * * * * * * * * * * * * * * * * * * * * * * * * * * * //

dimensions      [0 2 -2 0 0 0 0];

internalField   nonuniform List<scalar> 
125
(
-50.8087
-49.248
-47.6915
-46.1417
-44.6007
-43.071
-41.5546
-40.0537
-38.5702
-37.1061
-35.6633
-34.2433
-32.8479
-31.4786
-30.1367
-28.8235
-27.5401
-26.2876
-25.067
-23.8789
-22.7242
-21.6033
-20.5168
-19.4649
-18.448
-17.4662
-16.5194
-15.6078
-14.731
-13.889
-13.0813
-12.3076
-11.5673
-10.8601
-10.1853
-9.54217
-8.93012
-8.34836
-7.79611
-7.27255
-6.77684
-6.30809
-5.86541
-5.44788
-5.05459
-4.68461
-4.33699
-4.0108
-3.70511
-3.41901
-3.15157
-2.9019
-2.66912
-2.45235
-2.25075
-2.0635
-1.88979
-1.72885
-1.57992
-1.44228
-1.31524
-1.19811
-1.09027
-0.991097
-0.900004
-0.816436
-0.739865
-0.669789
-0.605733
-0.54725
-0.493918
-0.44534
-0.401144
-0.36098
-0.324523
-0.291467
-0.261529
-0.234445
-0.209969
-0.187875
-0.167951
-0.150004
-0.133854
-0.119337
-0.1063
-0.094605
-0.0841234
-0.0747389
-0.0663446
-0.0588433
-0.0521462
-0.0461727
-0.0408495
-0.03611
-0.031894
-0.028147
-0.0248198
-0.0218678
-0.019251
-0.0169333
-0.0148822
-0.0130687
-0.0114665
-0.0100522
-0.00880475
-0.00770547
-0.00673753
-0.00588597
-0.00513743
-0.00447999
-0.00390309
-0.00339728
-0.00295419
-0.00256641
-0.00222732
-0.0019311
-0.00167255
-0.00144712
-0.00125073
-0.00107983
-0.000931257
-0.000802221
-0.000690274
-0.000593256
-0.000509269
)
;

boundaryField
{
    BotWall
    {
        type            zeroGradient;
    }
    FreeStream
    {
        type            zeroGradient;
    }
    FrontNBack
    {
        type            empty;
    }
    LeftSide
    {
        type            symmetryPlane;
    }
    RightSide
    {
        type            symmetryPlane;
    }
    procBoundary6to3
    {
        type            processor;
        value           nonuniform List<scalar> 
50
(
-0.291454
-0.261513
-0.234427
-0.20995
-0.187856
-0.167932
-0.149986
-0.133837
-0.119321
-0.106286
-0.0945916
-0.0841114
-0.0747282
-0.0663352
-0.0588351
-0.0521392
-0.0461668
-0.0408445
-0.0361059
-0.0318906
-0.0281443
-0.0248177
-0.0218662
-0.0192499
-0.0169325
-0.0148818
-0.0130685
-0.0114665
-0.0100523
-0.00880504
-0.00770584
-0.00673797
-0.00588645
-0.00513793
-0.0044805
-0.00390359
-0.00339776
-0.00295466
-0.00256685
-0.00222774
-0.00193148
-0.00167291
-0.00144744
-0.00125103
-0.0010801
-0.000931493
-0.000802432
-0.000690462
-0.000593423
-0.000509417
)
;
    }
    procBoundary6to4
    {
        type            processor;
        value           nonuniform List<scalar> 
75
(
-50.8764
-49.3142
-47.7561
-46.2045
-44.6618
-43.1302
-41.6119
-40.109
-38.6236
-37.1575
-35.7127
-34.2907
-32.8933
-31.522
-30.1781
-28.8629
-27.5776
-26.3232
-25.1006
-23.9108
-22.7542
-21.6316
-20.5434
-19.4899
-18.4714
-17.4881
-16.5399
-15.6269
-14.7488
-13.9054
-13.0965
-12.3216
-11.5803
-10.8721
-10.1963
-9.55226
-8.93934
-8.35678
-7.80378
-7.27953
-6.78316
-6.31381
-5.87057
-5.45253
-5.05876
-4.68833
-4.34031
-4.01376
-3.70774
-3.42133
-3.15362
-2.9037
-2.67069
-2.45372
-2.25195
-2.06453
-1.89068
-1.72961
-1.58057
-1.44283
-1.3157
-1.1985
-1.09059
-0.991359
-0.900216
-0.816606
-0.739999
-0.669892
-0.60581
-0.547305
-0.493955
-0.445362
-0.401153
-0.36098
-0.324514
)
;
    }
    procBoundary6to5
    {
        type            processor;
        value           uniform -0.000436646;
    }
    procBoundary6to7
    {
        type            processor;
        value           uniform -52.3708;
    }
    procBoundary6to8
    {
        type            processor;
        value           nonuniform List<scalar> 
75
(
-3.13624
-2.88554
-2.65199
-2.43471
-2.23281
-2.04544
-1.87178
-1.71103
-1.56242
-1.42519
-1.29865
-1.18209
-1.07487
-0.976356
-0.885955
-0.803098
-0.727248
-0.657894
-0.594557
-0.536783
-0.484144
-0.43624
-0.392696
-0.353158
-0.3173
-0.284814
-0.255417
-0.228843
-0.204847
-0.183202
-0.163699
-0.146143
-0.130356
-0.116174
-0.103447
-0.0920359
-0.0818152
-0.0726693
-0.0644926
-0.0571892
-0.0506717
-0.0448608
-0.0396844
-0.0350771
-0.03098
-0.0273397
-0.0241078
-0.0212411
-0.0187002
-0.01645
-0.0144589
-0.0126984
-0.0111431
-0.00977017
-0.00855921
-0.00749197
-0.00655216
-0.00572523
-0.00499823
-0.00435961
-0.0037991
-0.00330757
-0.00287689
-0.00249987
-0.00217012
-0.00188197
-0.00163041
-0.001411
-0.00121981
-0.00105339
-0.000908661
-0.000782934
-0.000673826
-0.000579244
-0.000497343
)
;
    }
    procBoundary6to9
    {
        type            processor;
        value           nonuniform List<scalar> 
50
(
-51.8311
-50.2334
-48.6394
-47.0517
-45.4727
-43.9048
-42.3503
-40.8115
-39.2905
-37.7893
-36.3098
-34.8539
-33.4233
-32.0195
-30.644
-29.2981
-27.9831
-26.7
-25.4498
-24.2333
-23.0513
-21.9043
-20.7929
-19.7173
-18.6779
-17.6747
-16.7079
-15.7773
-14.8827
-14.024
-13.2007
-12.4125
-11.6589
-10.9393
-10.253
-9.59944
-8.9778
-8.38732
-7.82717
-7.29649
-6.79438
-6.31992
-5.87218
-5.4502
-5.05302
-4.67966
-4.32914
-4.00051
-3.69278
-3.40501
)
;
    }
}


// ************************************************************************* //
