/*--------------------------------*- C++ -*----------------------------------*\
| =========                 |                                                 |
| \\      /  F ield         | OpenFOAM: The Open Source CFD Toolbox           |
|  \\    /   O peration     | Version:  2.4.0                                 |
|   \\  /    A nd           | Web:      www.OpenFOAM.org                      |
|    \\/     M anipulation  |                                                 |
\*---------------------------------------------------------------------------*/
FoamFile
{
    version     2.0;
    format      ascii;
    class       volScalarField;
    location    "0.006";
    object      p;
}
// * * * * * * * * * * * * * * * * * * * * * * * * * * * * * * * * * * * * * //

dimensions      [1 -1 -2 0 0 0 0];

internalField   nonuniform List<scalar> 
125
(
-0.0234172
-0.0235653
-0.0237139
-0.0238631
-0.0240128
-0.024163
-0.0243139
-0.0244652
-0.0246172
-0.0247696
-0.0249227
-0.0250763
-0.0252305
-0.0253852
-0.0255406
-0.0256965
-0.0258529
-0.02601
-0.0261676
-0.0263258
-0.0264846
-0.026644
-0.026804
-0.0269645
-0.0271257
-0.0272874
-0.0274498
-0.0276127
-0.0277762
-0.0279404
-0.0281051
-0.0282705
-0.0284364
-0.028603
-0.0287702
-0.028938
-0.0291065
-0.0292755
-0.0294452
-0.0296155
-0.0297864
-0.029958
-0.0301301
-0.030303
-0.0304764
-0.0306505
-0.0308253
-0.0310007
-0.0311767
-0.0313534
-0.0315307
-0.0317087
-0.0318873
-0.0320666
-0.0322466
-0.0324272
-0.0326085
-0.0327905
-0.0329731
-0.0331564
-0.0333404
-0.0335251
-0.0337104
-0.0338964
-0.0340831
-0.0342705
-0.0344586
-0.0346474
-0.0348369
-0.035027
-0.0352179
-0.0354095
-0.0356018
-0.0357948
-0.0359885
-0.0361829
-0.036378
-0.0365739
-0.0367704
-0.0369677
-0.0371658
-0.0373645
-0.037564
-0.0377642
-0.0379652
-0.0381669
-0.0383693
-0.0385725
-0.0387765
-0.0389812
-0.0391866
-0.0393928
-0.0395998
-0.0398075
-0.040016
-0.0402253
-0.0404353
-0.0406461
-0.0408577
-0.04107
-0.0412832
-0.0414971
-0.0417118
-0.0419273
-0.0421436
-0.0423607
-0.0425786
-0.0427973
-0.0430168
-0.0432371
-0.0434583
-0.0436802
-0.043903
-0.0441265
-0.0443509
-0.0445762
-0.0448022
-0.0450291
-0.0452569
-0.0454854
-0.0457148
-0.0459451
-0.0461762
-0.0464081
-0.0466409
)
;

boundaryField
{
    BotWall
    {
        type            calculated;
        value           nonuniform 0();
    }
    FreeStream
    {
        type            calculated;
        value           nonuniform 0();
    }
    FrontNBack
    {
        type            empty;
    }
    LeftSide
    {
        type            symmetryPlane;
    }
    RightSide
    {
        type            symmetryPlane;
    }
    procBoundary6to3
    {
        type            processor;
        value           nonuniform List<scalar> 
50
(
-0.0361814
-0.0363766
-0.0365724
-0.036769
-0.0369663
-0.0371643
-0.0373631
-0.0375626
-0.0377628
-0.0379638
-0.0381655
-0.038368
-0.0385711
-0.0387751
-0.0389798
-0.0391852
-0.0393914
-0.0395984
-0.0398061
-0.0400146
-0.0402239
-0.0404339
-0.0406447
-0.0408563
-0.0410687
-0.0412818
-0.0414957
-0.0417105
-0.041926
-0.0421423
-0.0423594
-0.0425773
-0.042796
-0.0430155
-0.0432358
-0.0434569
-0.0436789
-0.0439016
-0.0441252
-0.0443496
-0.0445748
-0.0448009
-0.0450278
-0.0452555
-0.0454841
-0.0457135
-0.0459437
-0.0461748
-0.0464068
-0.0466396
)
;
    }
    procBoundary6to4
    {
        type            processor;
        value           nonuniform List<scalar> 
75
(
-0.0234105
-0.0235587
-0.0237074
-0.0238566
-0.0240065
-0.0241568
-0.0243077
-0.0244592
-0.0246112
-0.0247638
-0.024917
-0.0250707
-0.025225
-0.0253798
-0.0255352
-0.0256912
-0.0258478
-0.0260049
-0.0261626
-0.0263209
-0.0264798
-0.0266393
-0.0267993
-0.02696
-0.0271212
-0.027283
-0.0274454
-0.0276084
-0.0277721
-0.0279363
-0.0281011
-0.0282665
-0.0284326
-0.0285992
-0.0287665
-0.0289344
-0.0291029
-0.029272
-0.0294417
-0.0296121
-0.0297831
-0.0299547
-0.030127
-0.0302999
-0.0304734
-0.0306476
-0.0308224
-0.0309978
-0.0311739
-0.0313506
-0.031528
-0.0317061
-0.0318848
-0.0320641
-0.0322442
-0.0324248
-0.0326062
-0.0327882
-0.0329709
-0.0331543
-0.0333383
-0.033523
-0.0337084
-0.0338945
-0.0340812
-0.0342687
-0.0344568
-0.0346456
-0.0348352
-0.0350254
-0.0352163
-0.0354079
-0.0356003
-0.0357933
-0.035987
)
;
    }
    procBoundary6to5
    {
        type            processor;
        value           uniform -0.0468746;
    }
    procBoundary6to7
    {
        type            processor;
        value           uniform -0.0232696;
    }
    procBoundary6to8
    {
        type            processor;
        value           nonuniform List<scalar> 
75
(
-0.0315186
-0.0316967
-0.0318754
-0.0320547
-0.0322348
-0.0324155
-0.0325968
-0.0327788
-0.0329615
-0.0331449
-0.0333289
-0.0335137
-0.0336991
-0.0338852
-0.0340719
-0.0342594
-0.0344475
-0.0346364
-0.0348259
-0.0350161
-0.0352071
-0.0353987
-0.0355911
-0.0357841
-0.0359779
-0.0361723
-0.0363675
-0.0365635
-0.0367601
-0.0369574
-0.0371555
-0.0373543
-0.0375539
-0.0377542
-0.0379552
-0.0381569
-0.0383594
-0.0385627
-0.0387667
-0.0389714
-0.0391769
-0.0393832
-0.0395902
-0.039798
-0.0400065
-0.0402158
-0.0404259
-0.0406368
-0.0408484
-0.0410608
-0.041274
-0.041488
-0.0417027
-0.0419183
-0.0421346
-0.0423518
-0.0425697
-0.0427885
-0.043008
-0.0432284
-0.0434496
-0.0436715
-0.0438943
-0.044118
-0.0443424
-0.0445677
-0.0447938
-0.0450207
-0.0452485
-0.0454771
-0.0457066
-0.0459369
-0.046168
-0.0464
-0.0466329
)
;
    }
    procBoundary6to9
    {
        type            processor;
        value           nonuniform List<scalar> 
50
(
-0.0233978
-0.023546
-0.0236948
-0.0238441
-0.023994
-0.0241444
-0.0242954
-0.0244469
-0.024599
-0.0247517
-0.0249049
-0.0250587
-0.025213
-0.0253679
-0.0255234
-0.0256795
-0.0258361
-0.0259933
-0.0261511
-0.0263095
-0.0264684
-0.0266279
-0.026788
-0.0269488
-0.0271101
-0.0272719
-0.0274344
-0.0275975
-0.0277612
-0.0279255
-0.0280904
-0.0282559
-0.028422
-0.0285887
-0.028756
-0.028924
-0.0290926
-0.0292618
-0.0294316
-0.029602
-0.0297731
-0.0299448
-0.0301171
-0.03029
-0.0304636
-0.0306379
-0.0308127
-0.0309882
-0.0311644
-0.0313412
)
;
    }
}


// ************************************************************************* //
