/*--------------------------------*- C++ -*----------------------------------*\
| =========                 |                                                 |
| \\      /  F ield         | OpenFOAM: The Open Source CFD Toolbox           |
|  \\    /   O peration     | Version:  2.4.0                                 |
|   \\  /    A nd           | Web:      www.OpenFOAM.org                      |
|    \\/     M anipulation  |                                                 |
\*---------------------------------------------------------------------------*/
FoamFile
{
    version     2.0;
    format      ascii;
    class       volVectorField;
    location    "0.006";
    object      U;
}
// * * * * * * * * * * * * * * * * * * * * * * * * * * * * * * * * * * * * * //

dimensions      [0 1 -1 0 0 0 0];

internalField   nonuniform List<vector> 
125
(
(-5.92061e-05 -0.0298489 0)
(-5.96202e-05 -0.0298486 0)
(-5.99218e-05 -0.0298483 0)
(-6.01184e-05 -0.029848 0)
(-6.02176e-05 -0.0298477 0)
(-6.02265e-05 -0.0298474 0)
(-6.01519e-05 -0.0298471 0)
(-6.00006e-05 -0.0298468 0)
(-5.97791e-05 -0.0298466 0)
(-5.94934e-05 -0.0298463 0)
(-5.91496e-05 -0.029846 0)
(-5.87533e-05 -0.0298457 0)
(-5.831e-05 -0.0298454 0)
(-5.78246e-05 -0.0298451 0)
(-5.73023e-05 -0.0298448 0)
(-5.67475e-05 -0.0298445 0)
(-5.61646e-05 -0.0298442 0)
(-5.55577e-05 -0.029844 0)
(-5.49307e-05 -0.0298437 0)
(-5.42872e-05 -0.0298434 0)
(-5.36304e-05 -0.0298431 0)
(-5.29635e-05 -0.0298428 0)
(-5.22893e-05 -0.0298426 0)
(-5.16105e-05 -0.0298423 0)
(-5.09294e-05 -0.029842 0)
(-5.02481e-05 -0.0298417 0)
(-4.95688e-05 -0.0298415 0)
(-4.88931e-05 -0.0298412 0)
(-4.82225e-05 -0.029841 0)
(-4.75585e-05 -0.0298407 0)
(-4.69023e-05 -0.0298404 0)
(-4.62549e-05 -0.0298402 0)
(-4.56172e-05 -0.0298399 0)
(-4.49899e-05 -0.0298397 0)
(-4.43737e-05 -0.0298394 0)
(-4.3769e-05 -0.0298392 0)
(-4.31761e-05 -0.029839 0)
(-4.25953e-05 -0.0298387 0)
(-4.20267e-05 -0.0298385 0)
(-4.14705e-05 -0.0298383 0)
(-4.09266e-05 -0.029838 0)
(-4.03949e-05 -0.0298378 0)
(-3.98753e-05 -0.0298376 0)
(-3.93675e-05 -0.0298373 0)
(-3.88713e-05 -0.0298371 0)
(-3.83863e-05 -0.0298369 0)
(-3.79124e-05 -0.0298367 0)
(-3.7449e-05 -0.0298364 0)
(-3.69959e-05 -0.0298362 0)
(-3.65526e-05 -0.029836 0)
(-3.61187e-05 -0.0298358 0)
(-3.56937e-05 -0.0298356 0)
(-3.52774e-05 -0.0298354 0)
(-3.48692e-05 -0.0298352 0)
(-3.44687e-05 -0.0298349 0)
(-3.40755e-05 -0.0298347 0)
(-3.36893e-05 -0.0298345 0)
(-3.33096e-05 -0.0298343 0)
(-3.2936e-05 -0.0298341 0)
(-3.25682e-05 -0.0298339 0)
(-3.22059e-05 -0.0298337 0)
(-3.18486e-05 -0.0298335 0)
(-3.14961e-05 -0.0298333 0)
(-3.11481e-05 -0.0298331 0)
(-3.08044e-05 -0.0298329 0)
(-3.04646e-05 -0.0298327 0)
(-3.01285e-05 -0.0298325 0)
(-2.97958e-05 -0.0298324 0)
(-2.94665e-05 -0.0298322 0)
(-2.91403e-05 -0.029832 0)
(-2.88169e-05 -0.0298318 0)
(-2.84964e-05 -0.0298316 0)
(-2.81785e-05 -0.0298314 0)
(-2.7863e-05 -0.0298312 0)
(-2.755e-05 -0.029831 0)
(-2.72392e-05 -0.0298309 0)
(-2.69306e-05 -0.0298307 0)
(-2.66242e-05 -0.0298305 0)
(-2.63198e-05 -0.0298303 0)
(-2.60175e-05 -0.0298301 0)
(-2.5717e-05 -0.02983 0)
(-2.54186e-05 -0.0298298 0)
(-2.5122e-05 -0.0298296 0)
(-2.48273e-05 -0.0298294 0)
(-2.45344e-05 -0.0298293 0)
(-2.42435e-05 -0.0298291 0)
(-2.39543e-05 -0.0298289 0)
(-2.36671e-05 -0.0298288 0)
(-2.33817e-05 -0.0298286 0)
(-2.30981e-05 -0.0298284 0)
(-2.28165e-05 -0.0298283 0)
(-2.25367e-05 -0.0298281 0)
(-2.22589e-05 -0.0298279 0)
(-2.1983e-05 -0.0298278 0)
(-2.17091e-05 -0.0298276 0)
(-2.14372e-05 -0.0298274 0)
(-2.11672e-05 -0.0298273 0)
(-2.08994e-05 -0.0298271 0)
(-2.06335e-05 -0.029827 0)
(-2.03698e-05 -0.0298268 0)
(-2.01081e-05 -0.0298266 0)
(-1.98486e-05 -0.0298265 0)
(-1.95913e-05 -0.0298263 0)
(-1.93362e-05 -0.0298262 0)
(-1.90832e-05 -0.029826 0)
(-1.88325e-05 -0.0298259 0)
(-1.85841e-05 -0.0298257 0)
(-1.83379e-05 -0.0298256 0)
(-1.80941e-05 -0.0298254 0)
(-1.78526e-05 -0.0298253 0)
(-1.76134e-05 -0.0298251 0)
(-1.73765e-05 -0.029825 0)
(-1.71421e-05 -0.0298248 0)
(-1.691e-05 -0.0298247 0)
(-1.66803e-05 -0.0298246 0)
(-1.64531e-05 -0.0298244 0)
(-1.62283e-05 -0.0298243 0)
(-1.60059e-05 -0.0298241 0)
(-1.57859e-05 -0.029824 0)
(-1.55684e-05 -0.0298239 0)
(-1.53533e-05 -0.0298237 0)
(-1.51407e-05 -0.0298236 0)
(-1.49305e-05 -0.0298234 0)
(-1.47228e-05 -0.0298233 0)
(-1.45175e-05 -0.0298232 0)
)
;

boundaryField
{
    BotWall
    {
        type            fixedValue;
        value           nonuniform 0();
    }
    FreeStream
    {
        type            zeroGradient;
    }
    FrontNBack
    {
        type            empty;
    }
    LeftSide
    {
        type            symmetryPlane;
    }
    RightSide
    {
        type            symmetryPlane;
    }
    procBoundary6to3
    {
        type            processor;
        value           nonuniform List<vector> 
50
(
(3.20566e-05 -0.0298279 0)
(3.17854e-05 -0.0298277 0)
(3.15172e-05 -0.0298276 0)
(3.1252e-05 -0.0298274 0)
(3.09896e-05 -0.0298273 0)
(3.07298e-05 -0.0298271 0)
(3.04727e-05 -0.029827 0)
(3.02181e-05 -0.0298268 0)
(2.9966e-05 -0.0298267 0)
(2.97162e-05 -0.0298265 0)
(2.94687e-05 -0.0298264 0)
(2.92235e-05 -0.0298262 0)
(2.89805e-05 -0.0298261 0)
(2.87396e-05 -0.0298259 0)
(2.85009e-05 -0.0298258 0)
(2.82642e-05 -0.0298257 0)
(2.80295e-05 -0.0298255 0)
(2.77967e-05 -0.0298254 0)
(2.75659e-05 -0.0298252 0)
(2.73371e-05 -0.0298251 0)
(2.711e-05 -0.029825 0)
(2.68849e-05 -0.0298248 0)
(2.66615e-05 -0.0298247 0)
(2.64399e-05 -0.0298246 0)
(2.622e-05 -0.0298244 0)
(2.60019e-05 -0.0298243 0)
(2.57854e-05 -0.0298242 0)
(2.55706e-05 -0.029824 0)
(2.53574e-05 -0.0298239 0)
(2.51459e-05 -0.0298238 0)
(2.49359e-05 -0.0298236 0)
(2.47274e-05 -0.0298235 0)
(2.45205e-05 -0.0298234 0)
(2.4315e-05 -0.0298233 0)
(2.41111e-05 -0.0298231 0)
(2.39086e-05 -0.029823 0)
(2.37074e-05 -0.0298229 0)
(2.35077e-05 -0.0298228 0)
(2.33093e-05 -0.0298226 0)
(2.31123e-05 -0.0298225 0)
(2.29166e-05 -0.0298224 0)
(2.27221e-05 -0.0298223 0)
(2.2529e-05 -0.0298222 0)
(2.2337e-05 -0.029822 0)
(2.21462e-05 -0.0298219 0)
(2.19567e-05 -0.0298218 0)
(2.17682e-05 -0.0298217 0)
(2.1581e-05 -0.0298216 0)
(2.13948e-05 -0.0298215 0)
(2.12097e-05 -0.0298213 0)
)
;
    }
    procBoundary6to4
    {
        type            processor;
        value           nonuniform List<vector> 
75
(
(6.62248e-05 -0.0298439 0)
(6.66717e-05 -0.0298437 0)
(6.69918e-05 -0.0298434 0)
(6.71937e-05 -0.0298431 0)
(6.72859e-05 -0.0298428 0)
(6.72763e-05 -0.0298426 0)
(6.71729e-05 -0.0298423 0)
(6.69833e-05 -0.029842 0)
(6.67149e-05 -0.0298418 0)
(6.63746e-05 -0.0298415 0)
(6.59693e-05 -0.0298412 0)
(6.55055e-05 -0.0298409 0)
(6.49892e-05 -0.0298407 0)
(6.44265e-05 -0.0298404 0)
(6.38229e-05 -0.0298401 0)
(6.31838e-05 -0.0298399 0)
(6.2514e-05 -0.0298396 0)
(6.18184e-05 -0.0298393 0)
(6.11014e-05 -0.0298391 0)
(6.03669e-05 -0.0298388 0)
(5.9619e-05 -0.0298386 0)
(5.88612e-05 -0.0298383 0)
(5.80967e-05 -0.0298381 0)
(5.73285e-05 -0.0298378 0)
(5.65594e-05 -0.0298376 0)
(5.5792e-05 -0.0298374 0)
(5.50284e-05 -0.0298371 0)
(5.42706e-05 -0.0298369 0)
(5.35205e-05 -0.0298366 0)
(5.27797e-05 -0.0298364 0)
(5.20495e-05 -0.0298362 0)
(5.13312e-05 -0.029836 0)
(5.06257e-05 -0.0298357 0)
(4.99338e-05 -0.0298355 0)
(4.92563e-05 -0.0298353 0)
(4.85937e-05 -0.0298351 0)
(4.79464e-05 -0.0298349 0)
(4.73147e-05 -0.0298347 0)
(4.66986e-05 -0.0298345 0)
(4.60984e-05 -0.0298343 0)
(4.55139e-05 -0.0298341 0)
(4.4945e-05 -0.0298339 0)
(4.43915e-05 -0.0298337 0)
(4.38532e-05 -0.0298335 0)
(4.33298e-05 -0.0298333 0)
(4.28208e-05 -0.0298331 0)
(4.2326e-05 -0.0298329 0)
(4.18448e-05 -0.0298327 0)
(4.13768e-05 -0.0298325 0)
(4.09216e-05 -0.0298323 0)
(4.04786e-05 -0.0298321 0)
(4.00473e-05 -0.0298319 0)
(3.96272e-05 -0.0298318 0)
(3.92179e-05 -0.0298316 0)
(3.88188e-05 -0.0298314 0)
(3.84294e-05 -0.0298312 0)
(3.80492e-05 -0.029831 0)
(3.76779e-05 -0.0298309 0)
(3.73148e-05 -0.0298307 0)
(3.69596e-05 -0.0298305 0)
(3.66118e-05 -0.0298303 0)
(3.6271e-05 -0.0298302 0)
(3.59369e-05 -0.02983 0)
(3.56091e-05 -0.0298298 0)
(3.52872e-05 -0.0298297 0)
(3.49708e-05 -0.0298295 0)
(3.46598e-05 -0.0298293 0)
(3.43538e-05 -0.0298292 0)
(3.40525e-05 -0.029829 0)
(3.37556e-05 -0.0298288 0)
(3.3463e-05 -0.0298287 0)
(3.31744e-05 -0.0298285 0)
(3.28897e-05 -0.0298284 0)
(3.26086e-05 -0.0298282 0)
(3.23309e-05 -0.029828 0)
)
;
    }
    procBoundary6to5
    {
        type            processor;
        value           uniform (-1.43146e-05 -0.029823 0);
    }
    procBoundary6to7
    {
        type            processor;
        value           uniform (-5.86716e-05 -0.0298491 0);
    }
    procBoundary6to8
    {
        type            processor;
        value           nonuniform List<vector> 
75
(
(-3.05476e-05 -0.029783 0)
(-3.01955e-05 -0.0297832 0)
(-2.98484e-05 -0.0297835 0)
(-2.95064e-05 -0.0297837 0)
(-2.91691e-05 -0.0297839 0)
(-2.88365e-05 -0.0297841 0)
(-2.85084e-05 -0.0297843 0)
(-2.81846e-05 -0.0297845 0)
(-2.7865e-05 -0.0297847 0)
(-2.75495e-05 -0.0297849 0)
(-2.72378e-05 -0.0297851 0)
(-2.69299e-05 -0.0297853 0)
(-2.66256e-05 -0.0297855 0)
(-2.63248e-05 -0.0297857 0)
(-2.60274e-05 -0.0297859 0)
(-2.57332e-05 -0.029786 0)
(-2.54421e-05 -0.0297862 0)
(-2.51542e-05 -0.0297864 0)
(-2.48692e-05 -0.0297866 0)
(-2.4587e-05 -0.0297868 0)
(-2.43077e-05 -0.029787 0)
(-2.40311e-05 -0.0297872 0)
(-2.37572e-05 -0.0297874 0)
(-2.34859e-05 -0.0297875 0)
(-2.32172e-05 -0.0297877 0)
(-2.29509e-05 -0.0297879 0)
(-2.26872e-05 -0.0297881 0)
(-2.24259e-05 -0.0297883 0)
(-2.21669e-05 -0.0297884 0)
(-2.19104e-05 -0.0297886 0)
(-2.16562e-05 -0.0297888 0)
(-2.14044e-05 -0.029789 0)
(-2.11549e-05 -0.0297891 0)
(-2.09076e-05 -0.0297893 0)
(-2.06627e-05 -0.0297895 0)
(-2.04201e-05 -0.0297896 0)
(-2.01797e-05 -0.0297898 0)
(-1.99416e-05 -0.02979 0)
(-1.97057e-05 -0.0297901 0)
(-1.94721e-05 -0.0297903 0)
(-1.92407e-05 -0.0297905 0)
(-1.90116e-05 -0.0297906 0)
(-1.87848e-05 -0.0297908 0)
(-1.85602e-05 -0.0297909 0)
(-1.83378e-05 -0.0297911 0)
(-1.81177e-05 -0.0297913 0)
(-1.78998e-05 -0.0297914 0)
(-1.76841e-05 -0.0297916 0)
(-1.74707e-05 -0.0297917 0)
(-1.72596e-05 -0.0297919 0)
(-1.70506e-05 -0.029792 0)
(-1.68439e-05 -0.0297922 0)
(-1.66395e-05 -0.0297923 0)
(-1.64372e-05 -0.0297925 0)
(-1.62372e-05 -0.0297926 0)
(-1.60394e-05 -0.0297927 0)
(-1.58438e-05 -0.0297929 0)
(-1.56504e-05 -0.029793 0)
(-1.54592e-05 -0.0297932 0)
(-1.52702e-05 -0.0297933 0)
(-1.50833e-05 -0.0297934 0)
(-1.48986e-05 -0.0297936 0)
(-1.47161e-05 -0.0297937 0)
(-1.45357e-05 -0.0297938 0)
(-1.43575e-05 -0.029794 0)
(-1.41814e-05 -0.0297941 0)
(-1.40073e-05 -0.0297942 0)
(-1.38354e-05 -0.0297944 0)
(-1.36655e-05 -0.0297945 0)
(-1.34977e-05 -0.0297946 0)
(-1.3332e-05 -0.0297947 0)
(-1.31683e-05 -0.0297949 0)
(-1.30066e-05 -0.029795 0)
(-1.28468e-05 -0.0297951 0)
(-1.26891e-05 -0.0297952 0)
)
;
    }
    procBoundary6to9
    {
        type            processor;
        value           nonuniform List<vector> 
50
(
(-4.5129e-05 -0.0297706 0)
(-4.55574e-05 -0.0297709 0)
(-4.59039e-05 -0.0297712 0)
(-4.61735e-05 -0.0297714 0)
(-4.63713e-05 -0.0297717 0)
(-4.65022e-05 -0.029772 0)
(-4.65708e-05 -0.0297722 0)
(-4.65817e-05 -0.0297725 0)
(-4.65392e-05 -0.0297728 0)
(-4.64474e-05 -0.029773 0)
(-4.63105e-05 -0.0297733 0)
(-4.61321e-05 -0.0297736 0)
(-4.5916e-05 -0.0297738 0)
(-4.56657e-05 -0.0297741 0)
(-4.53844e-05 -0.0297744 0)
(-4.50753e-05 -0.0297747 0)
(-4.47415e-05 -0.0297749 0)
(-4.43856e-05 -0.0297752 0)
(-4.40104e-05 -0.0297755 0)
(-4.36183e-05 -0.0297757 0)
(-4.32116e-05 -0.029776 0)
(-4.27926e-05 -0.0297762 0)
(-4.23632e-05 -0.0297765 0)
(-4.19253e-05 -0.0297768 0)
(-4.14806e-05 -0.029777 0)
(-4.10308e-05 -0.0297773 0)
(-4.05772e-05 -0.0297775 0)
(-4.01212e-05 -0.0297778 0)
(-3.9664e-05 -0.029778 0)
(-3.92066e-05 -0.0297783 0)
(-3.87501e-05 -0.0297785 0)
(-3.82954e-05 -0.0297788 0)
(-3.78431e-05 -0.029779 0)
(-3.73939e-05 -0.0297792 0)
(-3.69485e-05 -0.0297795 0)
(-3.65073e-05 -0.0297797 0)
(-3.60708e-05 -0.0297799 0)
(-3.56392e-05 -0.0297802 0)
(-3.5213e-05 -0.0297804 0)
(-3.47923e-05 -0.0297806 0)
(-3.43772e-05 -0.0297809 0)
(-3.3968e-05 -0.0297811 0)
(-3.35647e-05 -0.0297813 0)
(-3.31672e-05 -0.0297815 0)
(-3.27757e-05 -0.0297817 0)
(-3.23901e-05 -0.029782 0)
(-3.20103e-05 -0.0297822 0)
(-3.16363e-05 -0.0297824 0)
(-3.12679e-05 -0.0297826 0)
(-3.09051e-05 -0.0297828 0)
)
;
    }
}


// ************************************************************************* //
