/*--------------------------------*- C++ -*----------------------------------*\
| =========                 |                                                 |
| \\      /  F ield         | OpenFOAM: The Open Source CFD Toolbox           |
|  \\    /   O peration     | Version:  2.4.0                                 |
|   \\  /    A nd           | Web:      www.OpenFOAM.org                      |
|    \\/     M anipulation  |                                                 |
\*---------------------------------------------------------------------------*/
FoamFile
{
    version     2.0;
    format      ascii;
    class       volScalarField;
    location    "0.7";
    object      p;
}
// * * * * * * * * * * * * * * * * * * * * * * * * * * * * * * * * * * * * * //

dimensions      [1 -1 -2 0 0 0 0];

internalField   nonuniform List<scalar> 
125
(
-0.0144309
-0.0144309
-0.0144309
-0.0144309
-0.0144309
-0.0150824
-0.0150824
-0.0150824
-0.0150824
-0.0150824
-0.0157411
-0.0157411
-0.0157411
-0.0157411
-0.0157411
-0.0164072
-0.0164072
-0.0164072
-0.0164072
-0.0164072
-0.0170808
-0.0170808
-0.0170808
-0.0170808
-0.0170808
-0.0177618
-0.0177618
-0.0177618
-0.0177618
-0.0177618
-0.0184505
-0.0184505
-0.0184505
-0.0184505
-0.0184505
-0.0191468
-0.0191468
-0.0191468
-0.0191468
-0.0191468
-0.0198509
-0.0198509
-0.0198509
-0.0198509
-0.0198509
-0.0205629
-0.0205629
-0.0205629
-0.0205629
-0.0205629
-0.0212828
-0.0212828
-0.0212828
-0.0212828
-0.0212828
-0.0220107
-0.0220107
-0.0220107
-0.0220107
-0.0220107
-0.0227468
-0.0227468
-0.0227468
-0.0227468
-0.0227468
-0.0234911
-0.0234911
-0.0234911
-0.0234911
-0.0234911
-0.0242437
-0.0242437
-0.0242437
-0.0242437
-0.0242437
-0.0250047
-0.0250047
-0.0250047
-0.0250047
-0.0250047
-0.0257741
-0.0257741
-0.0257741
-0.0257741
-0.0257741
-0.0265522
-0.0265522
-0.0265522
-0.0265522
-0.0265522
-0.0273389
-0.0273389
-0.0273389
-0.0273389
-0.0273389
-0.0281344
-0.0281344
-0.0281344
-0.0281344
-0.0281345
-0.0289388
-0.0289388
-0.0289388
-0.0289388
-0.0289389
-0.0297522
-0.0297522
-0.0297522
-0.0297522
-0.0297522
-0.0305747
-0.0305747
-0.0305747
-0.0305747
-0.0305747
-0.0314063
-0.0314063
-0.0314063
-0.0314063
-0.0314063
-0.0322472
-0.0322472
-0.0322472
-0.0322472
-0.0322472
)
;

boundaryField
{
    BotWall
    {
        type            calculated;
        value           nonuniform 0();
    }
    FreeStream
    {
        type            calculated;
        value           nonuniform 0();
    }
    FrontNBack
    {
        type            empty;
    }
    LeftSide
    {
        type            symmetryPlane;
    }
    RightSide
    {
        type            symmetryPlane;
    }
    procBoundary1to0
    {
        type            processor;
        value           nonuniform List<scalar> 5(-0.0137866 -0.0137866 -0.0137866 -0.0137866 -0.0137866);
    }
    procBoundary1to2
    {
        type            processor;
        value           nonuniform List<scalar> 5(-0.0330975 -0.0330975 -0.0330975 -0.0330975 -0.0330975);
    }
}


// ************************************************************************* //
