/*--------------------------------*- C++ -*----------------------------------*\
| =========                 |                                                 |
| \\      /  F ield         | OpenFOAM: The Open Source CFD Toolbox           |
|  \\    /   O peration     | Version:  2.4.0                                 |
|   \\  /    A nd           | Web:      www.OpenFOAM.org                      |
|    \\/     M anipulation  |                                                 |
\*---------------------------------------------------------------------------*/
FoamFile
{
    version     2.0;
    format      ascii;
    class       volScalarField;
    location    "0.7";
    object      p_rgh;
}
// * * * * * * * * * * * * * * * * * * * * * * * * * * * * * * * * * * * * * //

dimensions      [1 -1 -2 0 0 0 0];

internalField   nonuniform List<scalar> 
125
(
-3.97167e-05
-3.97162e-05
-3.97164e-05
-3.97164e-05
-3.97213e-05
-3.965e-05
-3.96495e-05
-3.96497e-05
-3.96497e-05
-3.96545e-05
-3.95819e-05
-3.95814e-05
-3.95816e-05
-3.95816e-05
-3.95862e-05
-3.95131e-05
-3.95126e-05
-3.95128e-05
-3.95128e-05
-3.95173e-05
-3.94436e-05
-3.94432e-05
-3.94433e-05
-3.94433e-05
-3.94477e-05
-3.93734e-05
-3.93729e-05
-3.93731e-05
-3.93731e-05
-3.93774e-05
-3.93024e-05
-3.93019e-05
-3.93021e-05
-3.93022e-05
-3.93063e-05
-3.92306e-05
-3.92302e-05
-3.92304e-05
-3.92304e-05
-3.92344e-05
-3.9158e-05
-3.91576e-05
-3.91578e-05
-3.91579e-05
-3.91618e-05
-3.90847e-05
-3.90843e-05
-3.90845e-05
-3.90845e-05
-3.90884e-05
-3.90105e-05
-3.90101e-05
-3.90103e-05
-3.90104e-05
-3.90141e-05
-3.89356e-05
-3.89352e-05
-3.89354e-05
-3.89354e-05
-3.89391e-05
-3.88598e-05
-3.88594e-05
-3.88596e-05
-3.88597e-05
-3.88633e-05
-3.87832e-05
-3.87829e-05
-3.8783e-05
-3.87831e-05
-3.87866e-05
-3.87058e-05
-3.87054e-05
-3.87056e-05
-3.87057e-05
-3.87091e-05
-3.86275e-05
-3.86272e-05
-3.86273e-05
-3.86274e-05
-3.86308e-05
-3.85484e-05
-3.8548e-05
-3.85482e-05
-3.85483e-05
-3.85516e-05
-3.84684e-05
-3.84681e-05
-3.84682e-05
-3.84683e-05
-3.84716e-05
-3.83875e-05
-3.83872e-05
-3.83873e-05
-3.83874e-05
-3.83906e-05
-3.83058e-05
-3.83054e-05
-3.83056e-05
-3.83056e-05
-3.83088e-05
-3.82231e-05
-3.82228e-05
-3.8223e-05
-3.8223e-05
-3.82261e-05
-3.81396e-05
-3.81393e-05
-3.81394e-05
-3.81394e-05
-3.81425e-05
-3.80551e-05
-3.80548e-05
-3.8055e-05
-3.8055e-05
-3.8058e-05
-3.79698e-05
-3.79694e-05
-3.79696e-05
-3.79696e-05
-3.79723e-05
-3.78834e-05
-3.78831e-05
-3.78833e-05
-3.78833e-05
-3.78857e-05
)
;

boundaryField
{
    BotWall
    {
        type            fixedFluxPressure;
        gradient        nonuniform 0();
        value           nonuniform 0();
    }
    FreeStream
    {
        type            totalPressure;
        rho             rho;
        psi             none;
        gamma           1;
        p0              nonuniform 0();
        value           nonuniform 0();
    }
    FrontNBack
    {
        type            empty;
    }
    LeftSide
    {
        type            symmetryPlane;
    }
    RightSide
    {
        type            symmetryPlane;
    }
    procBoundary1to0
    {
        type            processor;
        value           nonuniform List<scalar> 5(-3.97801e-05 -3.97796e-05 -3.97798e-05 -3.97797e-05 -3.97847e-05);
    }
    procBoundary1to2
    {
        type            processor;
        value           nonuniform List<scalar> 5(-3.77961e-05 -3.77958e-05 -3.7796e-05 -3.77959e-05 -3.77981e-05);
    }
}


// ************************************************************************* //
