/*--------------------------------*- C++ -*----------------------------------*\
| =========                 |                                                 |
| \\      /  F ield         | OpenFOAM: The Open Source CFD Toolbox           |
|  \\    /   O peration     | Version:  2.4.0                                 |
|   \\  /    A nd           | Web:      www.OpenFOAM.org                      |
|    \\/     M anipulation  |                                                 |
\*---------------------------------------------------------------------------*/
FoamFile
{
    version     2.0;
    format      ascii;
    class       volScalarField;
    location    "4";
    object      alpha1;
}
// * * * * * * * * * * * * * * * * * * * * * * * * * * * * * * * * * * * * * //

dimensions      [0 0 0 0 0 0 0];

internalField   nonuniform List<scalar> 
8000
(
1
1
1
0.999999
0.999999
0.999999
0.999999
1
1
1
1
1
0.999999
0.999999
1
0.999999
0.999999
0.999998
0.999996
0.999886
0.998851
0.998224
0.99819
0.996952
1.00037
1.00114
0.997863
0.840852
0.392491
0.130872
0.124507
0.113792
0.0823871
0.0575452
0.0479519
0.0406983
0.0260328
0.0130677
0.00714129
0.00365232
0.001865
0.0035428
0.00796793
0.00871229
0.00750248
0.00241723
0.000907143
0.000310073
4.87563e-05
7.75992e-06
1
1
0.999999
0.999999
0.999998
0.999998
0.999999
0.999999
0.999999
0.999999
0.999999
0.999999
0.999999
0.999999
0.999998
0.999998
0.999998
0.999998
0.999999
0.999999
1
1
1
1
1
1
1
0.999998
0.999956
0.999496
0.866462
0.665752
0.576298
0.520739
0.447448
0.338181
0.244988
0.193219
0.147168
0.0923689
0.0449357
0.0153566
0.00943637
0.00871064
0.00572466
0.00332378
0.00209905
0.00103156
0.0004235
0.00014448
1
1
0.999999
0.999998
0.999998
0.999998
0.999998
0.999998
0.999998
0.999998
0.999998
0.999998
0.999998
0.999998
0.999998
0.999998
0.999998
0.999999
0.999999
0.999999
0.999999
0.999999
0.999999
0.999999
1
1
1
1
0.999999
0.999999
1
0.999998
0.999988
0.982646
0.948452
0.927279
0.912114
0.851764
0.705518
0.503579
0.340846
0.204161
0.0977097
0.0438408
0.0227668
0.0177034
0.0119928
0.00333232
0.00439632
0.00956921
1
1
0.999999
0.999998
0.999997
0.999997
0.999997
0.999997
0.999998
0.999997
0.999997
0.999997
0.999997
0.999997
0.999997
0.999998
0.999998
0.999999
0.999999
0.999999
0.999999
0.999999
0.999999
0.999998
0.999999
0.999999
0.999999
0.999999
0.999999
1
1
0.999999
0.999999
0.993287
0.980202
0.991057
0.991057
0.991057
0.985848
0.966179
0.942899
0.8795
0.47778
0.0899243
0.038241
0.0542316
0.0619787
0.0285566
0.0188997
0.0142193
1
1
0.999999
0.999998
0.999997
0.999997
0.999997
0.999997
0.999997
0.999999
0.999996
0.999996
0.999996
0.999996
0.999997
0.999998
0.999998
0.999998
0.999999
0.999999
1
0.999999
0.999999
1
0.999999
0.999999
0.999999
0.999999
0.999999
0.999999
1
1
0.954435
0.865188
0.872268
0.960154
0.990995
0.991057
0.991056
0.936983
0.710833
0.88019
0.880196
0.727638
0.159196
0.0537512
0.0537545
0.153983
0.244492
0.264277
1
1
0.999999
0.999998
0.999998
0.999997
0.999997
0.999997
0.999998
0.999996
0.999996
0.999996
0.999996
0.999996
0.999996
0.999997
0.999998
0.999998
0.999999
0.999999
0.999998
0.999998
0.999998
0.999998
0.999998
0.999999
0.999997
0.999999
0.999999
0.999996
0.987435
0.892015
0.923361
0.861941
0.578147
0.604634
0.828766
0.859459
0.847333
0.754953
0.52864
0.426621
0.455784
0.364374
0.201712
0.123683
0.10596
0.0930852
0.0740143
0.0514183
1
1
0.999999
0.999998
0.999997
0.999998
0.999997
0.999997
0.999996
0.999996
0.999995
0.999996
0.999996
0.999996
0.999997
0.999997
0.999997
0.999997
0.999998
0.999999
0.999996
0.999996
0.999994
0.999992
0.999979
0.999989
0.864059
0.934992
0.949851
0.80729
0.513095
0.46396
0.792784
0.687322
0.52116
0.392932
0.320361
0.196035
0.11939
0.134681
0.132242
0.0937871
0.0513822
0.0278791
0.0170638
0.0116804
0.00865069
0.00630416
0.00438072
0.00305873
1
1
0.999998
0.999997
0.999997
0.999997
0.999997
0.999998
0.999996
0.999996
0.999995
0.999996
0.999995
0.999995
0.999997
0.999997
0.999958
0.999835
0.999882
0.905508
0.748916
0.727336
0.712263
0.652602
0.543654
0.55055
0.51073
0.431426
0.289206
0.28162
0.251403
0.212668
0.135258
0.0828193
0.054701
0.0367655
0.024808
0.0181124
0.0137893
0.00903658
0.00484504
0.00266559
0.00143105
0.000652038
0.000260377
0.000137573
9.94619e-05
6.92681e-05
5.143e-05
6.12496e-05
1
1
0.999998
0.999997
0.999997
0.999997
0.999998
0.999997
0.999996
0.999996
0.999993
0.999993
0.999988
0.999853
0.999824
0.960064
0.42672
0.15515
0.213968
0.143623
0.143646
0.105269
0.0855529
0.0639807
0.0517593
0.038264
0.0251096
0.0191817
0.0138022
0.0101514
0.00636315
0.00412968
0.00293998
0.00200638
0.00120365
0.000650632
0.00035628
0.000214577
0.000140829
9.66565e-05
6.58396e-05
4.06751e-05
2.23684e-05
1.33675e-05
9.2599e-06
4.99061e-06
1.57785e-06
1.11836e-06
2.2617e-06
1.63975e-05
1
1
0.999998
0.999997
0.999996
0.999997
0.999997
0.999997
0.999997
0.999991
0.999912
0.999904
0.678836
0.0366267
0.0323223
0.012142
0.0110116
0.0117385
0.00686197
0.00264665
0.00157526
0.000633726
0.000413009
0.000122499
5.90719e-05
3.56963e-05
2.4611e-05
1.70056e-05
1.14373e-05
7.57432e-06
4.96997e-06
3.18171e-06
1.98915e-06
1.03225e-06
5.08768e-07
4.48069e-07
4.08946e-07
3.56663e-07
3.11528e-07
2.81375e-07
2.61339e-07
2.47922e-07
2.4441e-07
2.56334e-07
3.21051e-07
3.42849e-07
4.77834e-07
8.53293e-07
2.55922e-06
9.81074e-06
1
0.999999
0.999998
0.999996
0.999996
0.999996
0.999998
0.999997
0.999997
0.999859
0.350614
0.0412105
0.0412125
0.00107229
0.000846702
0.000720365
0.000232564
0.000131425
7.48172e-05
2.50114e-05
6.00101e-06
2.63594e-06
7.27971e-07
2.54225e-07
2.37397e-07
2.34776e-07
2.32331e-07
2.30064e-07
2.02833e-07
2.01937e-07
2.0194e-07
2.02819e-07
2.07857e-07
2.3356e-07
4.12403e-07
6.08863e-07
6.09158e-07
2.78734e-07
2.20759e-07
2.37831e-07
2.67109e-07
2.58426e-07
2.54029e-07
5.22486e-07
2.07521e-06
2.33643e-06
2.19685e-06
7.05572e-06
3.17722e-05
9.17529e-05
1
1
0.999998
0.999996
0.999995
0.999996
0.999996
0.999999
0.999997
0.999991
0.999961
0.999603
1
0.495338
0.0193177
0.0872622
0.00674839
0.0158163
9.59905e-05
5.43281e-05
4.0899e-05
0.000140866
5.77745e-05
1.77653e-05
5.08533e-06
2.11633e-06
1.32072e-06
2.78481e-07
2.05432e-07
2.05299e-07
2.07154e-07
2.61718e-07
9.58111e-07
1.08034e-06
6.29055e-07
1.8837e-07
1.73207e-07
1.75419e-07
8.69694e-07
4.21136e-06
6.22808e-06
1.16641e-06
2.55919e-07
8.24908e-07
5.70777e-06
2.87382e-05
7.17475e-05
9.19538e-05
9.20141e-05
9.19549e-05
1
1
0.999998
0.999996
0.999995
0.999996
0.999996
0.999997
0.999998
0.999998
0.999994
0.999997
0.999996
0.999993
0.99994
1
0.972692
0.967117
0.737535
0.426518
0.110156
0.0238747
0.0185555
0.010432
0.00291823
0.000533395
0.000311523
0.000104194
2.25175e-05
5.27224e-06
1.73955e-06
1.01194e-06
1.08902e-06
9.83549e-07
2.03974e-07
1.89007e-07
2.57796e-07
2.30344e-06
6.48568e-06
6.87303e-06
6.15869e-06
1.00156e-06
2.60685e-07
7.99778e-07
6.91844e-06
3.76225e-05
8.32618e-05
9.20142e-05
3.03738e-05
9.82732e-06
1
1
0.999998
0.999996
0.999995
0.999995
0.999996
0.999996
0.999999
0.999999
0.999998
0.999998
0.999998
0.999998
0.999996
0.999996
1
1
0.999999
0.999986
0.999911
0.999536
0.97928
0.702491
0.339681
0.10447
0.0313782
0.0209052
0.0104228
0.00278845
0.000730439
0.000237903
5.24522e-05
1.2143e-05
2.9612e-06
1.00278e-06
6.59374e-07
6.04374e-07
9.29352e-07
2.01215e-06
3.4362e-06
4.08132e-06
4.05751e-06
2.0534e-06
2.48749e-06
8.63891e-06
3.51082e-05
7.05977e-05
3.33793e-05
3.54164e-06
1
1
0.999997
0.999995
0.999995
0.999996
0.999997
0.999998
0.999998
0.999999
0.999999
0.999999
0.999999
0.999999
0.999998
0.999998
0.999998
0.999998
0.999998
0.999997
0.999995
0.999995
0.999999
0.999994
0.99995
0.999826
0.976549
0.908471
0.564545
0.200595
0.0533723
0.0335265
0.0121512
0.00430795
0.00154044
0.000526531
0.000176675
6.24903e-05
2.09783e-05
6.86174e-06
3.96347e-06
3.48964e-06
2.98629e-06
2.98274e-06
4.5057e-06
3.27706e-06
2.96955e-06
7.83965e-06
1.89501e-05
1.89e-05
1
0.999999
0.999997
0.999996
0.999996
0.999998
0.999998
0.999999
0.999999
0.999999
0.999999
0.999999
0.999999
0.999999
0.999999
0.999998
0.999998
0.999998
0.999998
0.999998
0.999998
0.999998
0.999998
0.999996
0.999996
0.999998
0.999999
0.999999
0.999977
0.999901
0.945072
0.876473
0.379133
0.0859584
0.0467539
0.0164262
0.00571628
0.0020879
0.00076468
0.000263581
8.78353e-05
3.16879e-05
1.30879e-05
6.77587e-06
4.51499e-06
2.90555e-06
1.37142e-06
3.32051e-07
1.00557e-06
2.48292e-06
1
0.999999
0.999997
0.999996
0.999997
0.999998
0.999999
0.999999
0.999999
0.999999
0.999999
0.999999
0.999999
0.999999
0.999999
0.999999
0.999999
0.999999
0.999999
0.999999
0.999999
0.999999
0.999998
0.999998
0.999999
0.999997
0.999998
0.999998
0.999999
1
1
0.999999
0.999974
0.972998
0.86595
0.409098
0.146261
0.0681953
0.0150357
0.00162138
0.000224126
3.6826e-05
1.35645e-05
6.75978e-06
3.89186e-06
2.24663e-06
1.13238e-06
3.24112e-07
2.35e-07
2.34384e-07
1
0.999999
0.999997
0.999997
0.999998
0.999998
0.999999
0.999999
0.999999
0.999999
0.999999
0.999999
0.999999
0.999999
0.999999
0.999999
0.999999
0.999999
1
0.999999
0.999999
0.999998
0.999999
0.999998
0.999999
0.999997
0.999996
0.999996
0.999996
0.999994
0.999991
0.999995
0.999997
0.999997
0.999997
0.999972
0.970552
0.929944
0.502223
0.0744142
0.00372205
9.50345e-05
1.30015e-05
3.2312e-06
1.21096e-06
6.64802e-07
3.50964e-07
2.43277e-07
2.39954e-07
2.32645e-07
1
0.999999
0.999997
0.999997
0.999998
0.999999
0.999999
0.999999
0.999999
0.999999
0.999999
0.999999
0.999999
0.999999
0.999999
0.999999
0.999999
0.999999
0.999999
0.999999
0.999998
0.999993
1
1.00001
1.00003
1
1
0.999998
0.999995
0.999986
0.999962
0.9999
0.947121
0.867856
0.86092
0.567715
0.147736
0.0379129
0.0107773
0.00292401
0.000706419
0.000161358
3.43384e-05
7.61142e-06
2.12483e-06
6.80995e-07
4.82021e-07
3.0907e-07
3.06949e-07
2.67378e-07
1
0.999999
0.999998
0.999998
0.999998
0.999999
0.999999
0.999999
0.999999
0.999999
0.999999
0.999999
1
0.999999
0.999998
0.999999
0.999997
0.999998
0.999999
0.999955
0.99826
0.999369
0.998335
0.999207
1.00252
0.989296
0.925922
0.861114
0.795914
0.718994
0.610252
0.44861
0.230579
0.0826803
0.030843
0.0137834
0.00658255
0.00284
0.00112617
0.000418889
0.000149515
5.25546e-05
1.86362e-05
7.05277e-06
2.90351e-06
1.3829e-06
6.22741e-07
4.48249e-07
2.69547e-07
2.50077e-07
7.76729e-06
1.08615e-05
3.1563e-05
4.07554e-05
3.15201e-05
1.79467e-05
1.42878e-06
1.81895e-07
2.83841e-07
1.31598e-06
1.87567e-06
2.17195e-07
5.04555e-08
3.03578e-08
1.82177e-08
1.25933e-08
7.37614e-09
3.74135e-09
1.88058e-09
1.03662e-09
5.76264e-10
3.1763e-10
1.73805e-10
9.52688e-11
5.26886e-11
2.95466e-11
1.68524e-11
9.7904e-12
5.7909e-12
3.47966e-12
2.11648e-12
1.29763e-12
7.98805e-13
4.92276e-13
3.03232e-13
1.86657e-13
1.14913e-13
7.08554e-14
4.38283e-14
2.72381e-14
1.70288e-14
1.072e-14
6.79974e-15
4.34717e-15
2.80088e-15
1.81771e-15
1.18727e-15
7.79938e-16
5.15199e-16
3.42337e-16
0.000101264
7.07273e-05
0.000175591
0.00076581
0.00153723
0.000324671
2.56881e-05
6.19561e-06
1.95914e-06
3.49231e-06
8.34299e-06
8.27125e-06
2.35085e-06
7.1998e-08
6.43158e-08
5.69661e-08
3.55714e-08
1.69962e-08
7.65617e-09
4.20183e-09
2.32795e-09
1.28135e-09
7.04664e-10
3.87472e-10
2.13701e-10
1.18477e-10
6.60697e-11
3.70286e-11
2.08232e-11
1.17302e-11
6.60737e-12
3.71268e-12
2.07457e-12
1.14882e-12
6.28484e-13
3.38868e-13
1.79829e-13
9.38811e-14
4.823e-14
2.44101e-14
1.22011e-14
6.05341e-15
3.01064e-15
1.52638e-15
8.06169e-16
4.50585e-16
2.65253e-16
1.60423e-16
9.83198e-17
6.14814e-17
0.00622157
0.00302326
0.00181238
0.00138871
0.00267697
0.000959491
0.000421571
0.000124959
2.24864e-05
4.24227e-06
3.99416e-06
4.31123e-06
1.43499e-05
1.88229e-05
1.27687e-06
1.26183e-07
8.68568e-08
7.35736e-08
5.10314e-08
3.08028e-08
1.78632e-08
1.06946e-08
6.39422e-09
3.6782e-09
2.0512e-09
1.13003e-09
6.20488e-10
3.39409e-10
1.84353e-10
9.93043e-11
5.3087e-11
2.81845e-11
1.48509e-11
7.75091e-12
3.99677e-12
2.03143e-12
1.01594e-12
4.99367e-13
2.41106e-13
1.14365e-13
5.3385e-14
2.46695e-14
1.14661e-14
5.54808e-15
2.94523e-15
1.77923e-15
1.19201e-15
7.75212e-16
4.77143e-16
2.83297e-16
0.0109385
0.00558617
0.00349646
0.00412299
0.00303217
0.00136952
0.000519872
0.00019744
7.38878e-05
2.29842e-05
5.27221e-06
4.28278e-06
1.72635e-05
7.50224e-05
0.000100681
1.88226e-05
3.92047e-06
4.9699e-07
1.25822e-07
9.41561e-08
7.66646e-08
6.01602e-08
3.27667e-08
1.63712e-08
9.42751e-09
5.70239e-09
3.43431e-09
2.08101e-09
1.26631e-09
7.70487e-10
4.67537e-10
2.83237e-10
1.71625e-10
1.04012e-10
6.28923e-11
3.78009e-11
2.24988e-11
1.32204e-11
7.65267e-12
4.35715e-12
2.43722e-12
1.3377e-12
7.19313e-13
3.78117e-13
1.93721e-13
9.6349e-14
4.63058e-14
2.14831e-14
9.62813e-15
4.19124e-15
0.259634
0.254898
0.285348
0.285346
0.219183
0.0953548
0.0262712
0.00511625
0.000713492
8.20588e-05
1.52016e-05
1.7273e-05
2.62879e-05
7.10509e-05
0.000397033
0.000398852
0.000198699
5.73286e-05
0.000226536
6.92629e-05
6.28432e-06
2.50079e-07
1.48542e-07
9.43528e-08
4.87946e-08
2.41277e-08
1.36669e-08
8.36271e-09
5.30506e-09
3.45256e-09
2.2683e-09
1.49742e-09
9.95985e-10
6.69337e-10
4.54263e-10
3.10415e-10
2.12769e-10
1.45751e-10
9.9463e-11
6.74445e-11
4.53637e-11
3.02349e-11
1.99561e-11
1.30342e-11
8.41357e-12
5.35694e-12
3.35585e-12
2.06258e-12
1.24012e-12
7.27212e-13
0.0369152
0.0299035
0.020143
0.0138522
0.00785986
0.0033685
0.00144496
0.000718839
0.000594301
0.000800663
0.00181652
0.00117971
0.00046614
0.00039014
0.000356506
0.000323114
0.000324265
0.000440997
0.0002841
4.15674e-05
3.49192e-06
1.8147e-07
1.45137e-07
1.0777e-07
6.15904e-08
3.36327e-08
2.01356e-08
1.32155e-08
8.96571e-09
6.2643e-09
4.44658e-09
3.19526e-09
2.33048e-09
1.73028e-09
1.30936e-09
1.01031e-09
7.95118e-10
6.37781e-10
5.19762e-10
4.27693e-10
3.52354e-10
2.88023e-10
2.31748e-10
1.82479e-10
1.40158e-10
1.04959e-10
7.68011e-11
5.51586e-11
3.91169e-11
2.75595e-11
0.00200408
0.00145115
0.00166616
0.00100067
0.000475022
0.000475771
0.000996116
0.00175568
0.00181632
0.00181652
0.00181655
0.0013917
0.00034897
0.000181803
0.000188837
0.000485721
0.000540537
0.000437772
9.2799e-05
9.381e-06
6.28853e-07
1.13473e-07
1.17469e-07
8.90467e-08
5.4675e-08
3.32844e-08
2.2616e-08
1.60943e-08
1.18115e-08
8.91166e-09
6.85241e-09
5.35646e-09
4.25586e-09
3.43543e-09
2.81907e-09
2.36053e-09
2.03015e-09
1.80285e-09
1.65202e-09
1.54921e-09
1.46717e-09
1.38371e-09
1.28471e-09
1.16554e-09
1.03025e-09
8.88688e-10
7.5248e-10
6.3108e-10
5.2936e-10
4.47256e-10
0.00019365
0.000167284
5.95934e-05
0.000116251
0.000336685
0.000902465
0.00178944
0.00181633
0.0018163
0.00161133
0.00111261
0.000669864
0.000221125
8.15814e-05
0.000156114
0.000391296
0.000540222
0.000104702
1.14113e-05
7.07899e-07
9.71278e-08
1.11696e-07
9.52025e-08
6.49353e-08
4.45173e-08
3.18811e-08
2.4201e-08
1.88071e-08
1.49789e-08
1.21858e-08
1.00784e-08
8.45048e-09
7.16215e-09
6.12242e-09
5.28785e-09
4.65048e-09
4.21532e-09
3.97837e-09
3.91568e-09
3.98471e-09
4.13037e-09
4.29013e-09
4.39946e-09
4.40097e-09
4.25735e-09
3.96519e-09
3.56298e-09
3.12574e-09
2.74307e-09
2.48742e-09
6.67451e-05
5.10998e-05
5.10996e-05
0.000250093
0.000674101
0.000989407
0.00122884
0.000876054
0.000710843
0.000482948
0.000296688
0.000144027
6.0793e-05
4.36447e-05
0.000150709
0.00029197
7.78863e-05
4.2791e-06
3.93705e-07
7.96753e-08
9.56654e-08
1.29037e-07
5.8945e-08
4.84161e-08
4.00305e-08
3.28228e-08
2.71579e-08
2.27954e-08
1.95952e-08
1.72866e-08
1.54497e-08
1.36915e-08
1.19518e-08
1.04235e-08
9.17884e-09
8.27928e-09
7.74138e-09
7.54394e-09
7.65919e-09
8.05872e-09
8.70153e-09
9.53939e-09
1.05246e-08
1.16026e-08
1.2687e-08
1.36193e-08
1.4132e-08
1.38603e-08
1.24848e-08
1.02561e-08
3.25287e-05
8.27636e-05
0.000191463
0.000414496
0.000607149
0.0003155
0.000185213
0.000108565
7.61841e-05
4.74452e-05
2.18788e-05
8.79314e-06
1.26754e-05
4.43209e-05
9.44309e-05
2.80568e-05
1.45259e-06
7.57677e-08
7.8276e-08
7.76775e-08
7.97266e-08
1.27605e-07
4.65891e-08
4.61019e-08
4.21617e-08
3.78397e-08
3.39871e-08
3.08922e-08
2.80681e-08
3.06518e-08
2.60488e-08
2.25694e-08
2.09939e-08
1.84152e-08
1.58903e-08
1.42572e-08
1.34174e-08
1.31292e-08
1.33947e-08
1.41704e-08
1.53381e-08
1.67604e-08
1.83607e-08
2.01967e-08
2.25098e-08
2.57003e-08
3.01092e-08
3.58009e-08
4.53002e-08
6.25073e-08
0.000175002
0.000191488
0.00019188
0.000118437
7.16302e-05
1.37162e-05
4.24153e-06
2.6824e-06
2.15154e-06
1.3812e-06
6.51176e-07
9.42189e-07
5.43368e-06
1.46831e-05
6.97563e-06
3.7551e-07
7.06562e-08
7.33717e-08
7.41614e-08
7.46615e-08
9.08357e-08
8.58533e-08
4.89489e-08
4.90974e-08
4.77055e-08
4.68089e-08
4.80349e-08
5.15314e-08
9.90988e-08
3.30797e-08
4.97444e-08
3.96284e-08
4.12328e-08
3.02217e-08
2.56953e-08
2.34868e-08
2.18819e-08
2.09787e-08
2.1102e-08
2.24423e-08
2.4904e-08
2.80157e-08
3.10656e-08
3.36587e-08
3.62866e-08
3.99396e-08
4.58869e-08
5.92127e-08
8.99771e-08
2.01626e-07
5.03184e-05
3.76688e-05
1.96963e-05
3.17247e-06
7.03058e-07
1.11784e-07
8.69883e-08
8.78419e-08
9.20837e-08
9.69792e-08
3.57751e-07
6.51138e-07
4.33382e-07
4.69079e-07
1.14893e-07
7.14674e-08
6.85392e-08
6.99891e-08
7.11148e-08
7.23876e-08
7.50109e-08
7.60677e-08
6.95809e-08
7.21213e-08
7.48358e-08
6.82405e-08
7.37787e-08
6.63847e-08
7.87959e-08
7.90975e-08
1.1879e-07
2.73304e-07
7.89376e-08
3.90679e-08
3.81046e-08
3.65758e-08
3.49053e-08
3.36225e-08
3.32935e-08
3.49467e-08
3.97056e-08
5.7031e-08
6.80392e-08
7.59159e-08
7.10611e-08
7.61758e-08
5.40754e-08
6.39826e-08
2.51036e-07
4.18023e-07
2.12399e-06
9.25911e-07
2.58998e-07
8.89831e-08
8.68383e-08
8.40449e-08
8.33057e-08
8.52698e-08
8.78197e-08
3.06378e-07
7.40185e-07
7.63495e-07
4.10077e-07
9.17931e-08
8.00953e-08
6.82548e-08
6.54895e-08
6.5881e-08
6.70927e-08
6.90724e-08
7.23028e-08
7.74206e-08
8.52043e-08
1.02631e-07
1.45861e-07
3.81419e-07
1.44452e-07
7.13296e-08
9.35807e-08
1.1262e-07
2.27331e-07
6.66897e-07
4.1209e-07
4.77606e-08
5.29191e-08
5.17472e-08
5.19334e-08
5.22399e-08
5.28691e-08
5.59796e-08
1.13591e-07
6.79466e-08
1.1314e-07
1.63274e-07
3.63337e-07
7.64585e-08
7.10009e-08
1.18923e-07
5.11823e-07
6.51031e-07
2.21134e-07
1.61944e-07
1.55679e-07
1.42495e-07
1.60837e-07
1.7906e-07
9.32744e-08
9.58194e-08
9.84073e-08
1.35871e-07
3.1235e-07
7.66301e-07
8.89298e-07
8.30331e-07
2.77063e-07
1.30641e-07
9.12901e-08
9.90274e-08
8.31309e-08
6.89343e-08
7.52662e-08
7.79409e-08
9.02466e-08
1.24584e-07
2.0359e-07
3.83972e-07
3.4553e-07
1.37617e-07
1.03414e-07
1.40855e-07
2.87672e-07
7.38794e-07
7.20727e-07
1.43004e-07
8.63744e-08
7.36154e-08
7.2005e-08
7.23271e-08
7.47726e-08
8.10886e-08
9.65529e-08
9.20279e-08
1.42087e-07
2.54866e-07
4.00202e-07
2.40305e-07
9.69866e-08
1.19395e-07
5.22893e-07
7.12087e-07
1.16803e-05
3.75254e-06
5.40257e-07
1.44698e-07
1.49572e-07
4.10848e-07
4.54463e-07
2.71467e-07
1.50883e-07
1.15882e-07
1.61701e-07
2.2687e-07
3.85448e-07
4.77888e-07
6.32826e-07
9.0857e-07
5.07893e-07
1.82333e-07
1.72912e-07
2.67813e-07
1.27567e-07
9.93881e-08
9.353e-08
1.03099e-07
1.30735e-07
2.19846e-07
3.56798e-07
2.46936e-07
2.26128e-07
1.47306e-07
1.49922e-07
4.03617e-07
6.45712e-07
5.47357e-07
3.42202e-07
1.55033e-07
1.29086e-07
1.10104e-07
9.87227e-08
9.37844e-08
9.11841e-08
9.00976e-08
1.84391e-07
1.84817e-07
3.23175e-07
4.82665e-07
1.17635e-07
1.43814e-07
2.32271e-07
3.99251e-07
9.40833e-06
9.85542e-06
6.58001e-06
1.58555e-06
2.52148e-07
1.91919e-07
1.9025e-07
1.89749e-07
5.00475e-07
8.24345e-07
8.22534e-07
3.81893e-07
2.25413e-07
2.24974e-07
2.53204e-07
1.21027e-06
9.58448e-07
4.90381e-07
1.88295e-07
1.42059e-07
1.41449e-07
4.84512e-07
5.21769e-07
2.32368e-07
1.2773e-07
1.26305e-07
1.2615e-07
3.14183e-07
4.56676e-07
4.55871e-07
2.0974e-07
2.01924e-07
2.0259e-07
4.14615e-07
5.64105e-07
5.6379e-07
3.06665e-07
1.12556e-07
1.21641e-07
1.7436e-07
3.72037e-07
2.35745e-07
1.3989e-07
1.40119e-07
1.59902e-07
1.74146e-07
3.14856e-07
3.98917e-07
3.33439e-07
1.95404e-07
8.03855e-07
2.86321e-06
6.4277e-06
4.95357e-06
3.13883e-06
1.17159e-06
2.06201e-07
1.89001e-07
1.89815e-07
2.07196e-07
2.76422e-07
2.49943e-07
2.70974e-07
6.73617e-07
2.0007e-06
2.54404e-06
1.17055e-06
2.66471e-07
1.42602e-07
1.41396e-07
1.41391e-07
2.62485e-07
1.05684e-06
1.09467e-06
8.40009e-07
1.98423e-07
1.25255e-07
1.2511e-07
1.25825e-07
4.13255e-07
7.37449e-07
7.36577e-07
3.91629e-07
1.70093e-07
1.68771e-07
1.68687e-07
1.6867e-07
3.65296e-07
7.26931e-07
7.29556e-07
5.09293e-07
1.51324e-07
1.38256e-07
1.38256e-07
3.69151e-07
5.43452e-07
5.32568e-07
4.23684e-07
1.82628e-07
1.08649e-07
2.32771e-07
2.34073e-07
7.09969e-07
2.87676e-06
1.60187e-06
3.9047e-07
1.90234e-07
1.88908e-07
1.88898e-07
1.8963e-07
1.90716e-07
1.90236e-07
1.90901e-07
2.13306e-07
1.53868e-06
2.57438e-06
2.58756e-06
1.95364e-06
5.59576e-07
1.4404e-07
1.41418e-07
1.4173e-07
1.63277e-07
2.3385e-07
3.11835e-07
1.17758e-06
2.56496e-06
2.30245e-06
6.73629e-07
1.85801e-07
1.84359e-07
1.82211e-07
1.80878e-07
6.57405e-07
7.73832e-07
7.81138e-07
3.83549e-07
1.74923e-07
1.57192e-07
1.53471e-07
1.54346e-07
2.99544e-07
8.91468e-07
9.05126e-07
8.66379e-07
3.66255e-07
1.00014e-07
6.98956e-08
6.91211e-08
1.19206e-07
2.36857e-07
2.35335e-07
2.35471e-07
3.68991e-07
2.66924e-07
2.05185e-07
1.95651e-07
1.97232e-07
1.91654e-07
1.89646e-07
1.89507e-07
1.89627e-07
7.58142e-07
2.32847e-06
2.36232e-06
2.14032e-06
9.39702e-07
3.19311e-07
1.66702e-07
1.59961e-07
1.80036e-07
1.98619e-07
1.98109e-07
2.01887e-07
2.02097e-07
2.21907e-07
1.0855e-06
4.74994e-06
5.00975e-06
5.01036e-06
3.70409e-06
1.00976e-06
1.26793e-07
8.39558e-08
8.83258e-08
1.24715e-07
4.94934e-07
9.3115e-07
9.30125e-07
7.08243e-07
1.93393e-07
7.09206e-08
8.42643e-08
3.52628e-07
8.95771e-07
8.94095e-07
7.23893e-07
1.83363e-07
6.82022e-08
6.85138e-08
2.42524e-07
2.86384e-07
3.44793e-07
3.87084e-07
4.62335e-07
5.11608e-07
6.51087e-07
5.02216e-07
4.80643e-07
4.24053e-07
6.41612e-07
1.13184e-06
1.17381e-06
8.08482e-07
4.25353e-07
4.53047e-07
6.14286e-07
6.79954e-07
7.34624e-07
2.32606e-06
2.93033e-06
1.54144e-06
1.65938e-06
3.43749e-06
5.01114e-06
5.00971e-06
5.01014e-06
5.00972e-06
3.88907e-06
1.42567e-06
4.72571e-07
1.11747e-07
7.6867e-08
8.225e-08
8.24916e-08
8.26065e-08
2.24619e-07
9.07536e-07
9.30059e-07
8.29043e-07
2.49417e-07
6.98925e-08
6.79739e-08
7.13357e-08
8.56599e-07
6.6211e-07
2.72355e-07
6.94824e-08
6.71972e-08
6.72154e-08
2.28975e-16
1.8859e-16
1.55459e-16
1.28264e-16
1.0593e-16
8.75794e-17
7.24934e-17
6.0086e-17
4.98784e-17
4.14795e-17
3.45706e-17
2.88917e-17
2.42321e-17
2.04219e-17
1.73253e-17
1.48362e-17
1.28738e-17
1.13803e-17
1.03191e-17
9.67353e-18
9.44727e-18
9.66454e-18
1.03718e-17
1.16398e-17
1.35665e-17
1.6281e-17
1.99477e-17
2.47718e-17
3.10052e-17
3.89535e-17
4.89833e-17
6.15306e-17
7.71095e-17
9.6322e-17
1.19867e-16
1.48551e-16
1.83297e-16
2.25155e-16
2.75311e-16
3.35095e-16
4.05988e-16
4.89627e-16
5.87811e-16
7.02498e-16
8.35807e-16
9.90013e-16
1.16754e-15
1.37094e-15
1.6029e-15
1.86621e-15
2.16372e-15
2.49834e-15
2.87301e-15
3.29066e-15
3.75414e-15
4.26624e-15
4.82958e-15
5.44663e-15
6.11961e-15
6.85047e-15
7.64085e-15
8.49202e-15
9.40483e-15
1.03797e-14
1.14166e-14
1.25148e-14
1.36734e-14
1.48906e-14
1.61642e-14
1.74915e-14
1.88689e-14
2.02927e-14
2.17583e-14
2.32609e-14
2.47948e-14
2.63543e-14
2.7933e-14
2.95243e-14
3.11212e-14
3.27166e-14
3.43032e-14
3.58734e-14
3.74198e-14
3.89349e-14
4.04113e-14
4.18417e-14
4.32191e-14
4.45368e-14
4.57882e-14
4.69674e-14
4.80686e-14
4.90867e-14
5.00172e-14
5.08557e-14
5.15989e-14
5.22439e-14
5.27883e-14
5.32305e-14
5.35695e-14
5.3805e-14
5.39374e-14
5.39677e-14
5.38974e-14
5.3729e-14
5.34652e-14
5.31096e-14
5.26662e-14
5.21396e-14
5.15346e-14
5.08569e-14
5.01121e-14
4.93063e-14
4.84459e-14
4.75374e-14
4.65873e-14
4.56025e-14
4.45893e-14
4.35545e-14
4.25042e-14
4.14445e-14
4.03814e-14
3.93201e-14
3.82657e-14
3.72228e-14
3.61954e-14
3.51872e-14
3.42011e-14
3.32398e-14
3.23051e-14
3.13986e-14
3.05213e-14
2.96738e-14
2.88562e-14
2.80684e-14
2.73098e-14
2.65799e-14
2.58776e-14
2.52021e-14
2.45522e-14
2.39271e-14
2.33258e-14
2.27475e-14
2.21915e-14
2.16575e-14
2.11451e-14
2.06543e-14
2.01854e-14
1.97388e-14
1.9315e-14
1.89147e-14
1.85388e-14
1.8188e-14
1.78632e-14
1.75652e-14
1.72943e-14
1.70511e-14
1.68354e-14
1.6647e-14
1.64851e-14
1.63485e-14
1.62355e-14
1.61439e-14
1.6071e-14
1.60136e-14
1.59678e-14
1.59298e-14
1.58949e-14
1.58584e-14
1.58155e-14
1.57611e-14
1.56903e-14
1.55985e-14
1.54812e-14
1.53345e-14
1.51549e-14
1.49399e-14
1.46874e-14
1.43965e-14
1.40667e-14
1.3699e-14
1.32947e-14
1.28563e-14
1.23868e-14
1.18902e-14
1.13706e-14
1.08329e-14
1.0282e-14
9.72288e-15
9.1607e-15
8.60026e-15
8.04613e-15
7.50247e-15
6.97294e-15
6.46068e-15
5.96828e-15
5.49774e-15
5.05049e-15
4.62748e-15
4.22914e-15
3.85553e-15
3.50634e-15
3.18099e-15
2.87867e-15
2.59847e-15
2.33933e-15
2.1002e-15
1.87997e-15
1.67759e-15
1.49202e-15
1.32228e-15
1.16744e-15
1.02662e-15
8.98964e-16
7.83681e-16
6.79996e-16
5.87157e-16
5.04432e-16
4.311e-16
3.66449e-16
3.09781e-16
2.60409e-16
2.1766e-16
1.80882e-16
1.49447e-16
1.22757e-16
1.00246e-16
8.13871e-17
6.56932e-17
5.27198e-17
4.20658e-17
3.33735e-17
2.63271e-17
2.06508e-17
1.61067e-17
1.24909e-17
9.63125e-18
7.38296e-18
5.62582e-18
4.26064e-18
3.20634e-18
2.39707e-18
1.77975e-18
1.31191e-18
9.59732e-19
6.96506e-19
5.01232e-19
3.57513e-19
2.52624e-19
1.76753e-19
1.2239e-19
8.38258e-20
5.67579e-20
3.79708e-20
2.50842e-20
1.63542e-20
1.05166e-20
6.66619e-21
4.16264e-21
2.55902e-21
1.54777e-21
9.20398e-22
5.37746e-22
3.08457e-22
1.73581e-22
9.57531e-23
5.17355e-23
2.73547e-23
1.41411e-23
7.14039e-24
3.51805e-24
1.68946e-24
7.8987e-25
3.59073e-25
1.58508e-25
6.78487e-26
2.8118e-26
1.12632e-26
4.35301e-27
1.62004e-27
5.79349e-28
1.9862e-28
6.51112e-29
2.03518e-29
6.04625e-30
1.70125e-30
4.51559e-31
1.12551e-31
2.62069e-32
5.6662e-33
1.12957e-33
2.05888e-34
3.39654e-35
5.00826e-36
6.49669e-37
7.26173e-38
6.79886e-39
5.11776e-40
2.90303e-41
1.10264e-42
2.10237e-44
4.00101e-17
3.33432e-17
2.81574e-17
2.40961e-17
2.08849e-17
1.83155e-17
1.62328e-17
1.45217e-17
1.30975e-17
1.18975e-17
1.08745e-17
9.99275e-18
9.22438e-18
8.54735e-18
7.94409e-18
7.40059e-18
6.90584e-18
6.45137e-18
6.03085e-18
5.63971e-18
5.27482e-18
4.93415e-18
4.61652e-18
4.32149e-18
4.04924e-18
3.80051e-18
3.57664e-18
3.37958e-18
3.21201e-18
3.07738e-18
2.98006e-18
2.92551e-18
2.9205e-18
2.97341e-18
3.09457e-18
3.29669e-18
3.59529e-18
4.00925e-18
4.56129e-18
5.27856e-18
6.1932e-18
7.34292e-18
8.77151e-18
1.05294e-17
1.26743e-17
1.52714e-17
1.8394e-17
2.21237e-17
2.65505e-17
3.17735e-17
3.78999e-17
4.50458e-17
5.33351e-17
6.28992e-17
7.38763e-17
8.64102e-17
1.00649e-16
1.16745e-16
1.34849e-16
1.55115e-16
1.77692e-16
2.02724e-16
2.30349e-16
2.60695e-16
2.93878e-16
3.29997e-16
3.69138e-16
4.11363e-16
4.56715e-16
5.05212e-16
5.56844e-16
6.11575e-16
6.6934e-16
7.30044e-16
7.93559e-16
8.59728e-16
9.28363e-16
9.99243e-16
1.07212e-15
1.14672e-15
1.22273e-15
1.29984e-15
1.37769e-15
1.45591e-15
1.53412e-15
1.61194e-15
1.68896e-15
1.76477e-15
1.83898e-15
1.91118e-15
1.98099e-15
2.04803e-15
2.11196e-15
2.17242e-15
2.22913e-15
2.28179e-15
2.33017e-15
2.37405e-15
2.41326e-15
2.44768e-15
2.47721e-15
2.50181e-15
2.52147e-15
2.53622e-15
2.54615e-15
2.55137e-15
2.55204e-15
2.54834e-15
2.5405e-15
2.52878e-15
2.51343e-15
2.49475e-15
2.47306e-15
2.44866e-15
2.42189e-15
2.39307e-15
2.36252e-15
2.33055e-15
2.29745e-15
2.26352e-15
2.22901e-15
2.19417e-15
2.1592e-15
2.12429e-15
2.08961e-15
2.05529e-15
2.02143e-15
1.98814e-15
1.95545e-15
1.92343e-15
1.89209e-15
1.86144e-15
1.83149e-15
1.80223e-15
1.77366e-15
1.74576e-15
1.71854e-15
1.69199e-15
1.66614e-15
1.64099e-15
1.61659e-15
1.59298e-15
1.57021e-15
1.54835e-15
1.52748e-15
1.50766e-15
1.48899e-15
1.47154e-15
1.45537e-15
1.44055e-15
1.42713e-15
1.41512e-15
1.40453e-15
1.39532e-15
1.38745e-15
1.38081e-15
1.37527e-15
1.37067e-15
1.36681e-15
1.36344e-15
1.3603e-15
1.35709e-15
1.3535e-15
1.34919e-15
1.34382e-15
1.33705e-15
1.32855e-15
1.318e-15
1.30512e-15
1.28966e-15
1.27141e-15
1.25023e-15
1.226e-15
1.1987e-15
1.16835e-15
1.13505e-15
1.09893e-15
1.06022e-15
1.01917e-15
9.76107e-16
9.31364e-16
8.85319e-16
8.38367e-16
7.90907e-16
7.43335e-16
6.96036e-16
6.4937e-16
6.03672e-16
5.59235e-16
5.16318e-16
4.75133e-16
4.35848e-16
3.9859e-16
3.6344e-16
3.30444e-16
2.99611e-16
2.70919e-16
2.44324e-16
2.19757e-16
1.97137e-16
1.76372e-16
1.57362e-16
1.40003e-16
1.24192e-16
1.09826e-16
9.68071e-17
8.5039e-17
7.44317e-17
6.48992e-17
5.63605e-17
4.87391e-17
4.19623e-17
3.59616e-17
3.06715e-17
2.60299e-17
2.19779e-17
1.84591e-17
1.54203e-17
1.28111e-17
1.05841e-17
8.69472e-18
7.1019e-18
5.76756e-18
4.65691e-18
3.73843e-18
2.98377e-18
2.36775e-18
1.86812e-18
1.46549e-18
1.14309e-18
8.8655e-19
6.83675e-19
5.24221e-19
3.99652e-19
3.02918e-19
2.28247e-19
1.70948e-19
1.27243e-19
9.41086e-20
6.9142e-20
5.04489e-20
3.65445e-20
2.62723e-20
1.87376e-20
1.32523e-20
9.29043e-21
6.45283e-21
4.43838e-21
3.02165e-21
2.0351e-21
1.35527e-21
8.91928e-22
5.79778e-22
3.72032e-22
2.35527e-22
1.47024e-22
9.04408e-23
5.47906e-23
3.26694e-23
1.91596e-23
1.10447e-23
6.2537e-24
3.47556e-24
1.89448e-24
1.01201e-24
5.29365e-25
2.70906e-25
1.35512e-25
6.61931e-26
3.15409e-26
1.46449e-26
6.61829e-27
2.90742e-27
1.23992e-27
5.126e-28
2.05114e-28
7.93082e-29
2.9578e-29
1.06193e-29
3.66252e-30
1.2106e-30
3.8251e-31
1.15205e-31
3.2969e-32
8.9333e-33
2.28271e-33
5.47585e-34
1.22674e-34
2.55118e-35
4.89045e-36
8.56902e-37
1.35857e-37
1.92471e-38
2.39824e-39
2.57429e-40
2.31404e-41
1.672e-42
9.10216e-44
3.31732e-45
6.06812e-47
1.67857e-16
1.33265e-16
1.07084e-16
8.73112e-17
7.23474e-17
6.09541e-17
5.21974e-17
4.53879e-17
4.00234e-17
3.5741e-17
3.22779e-17
2.94413e-17
2.70865e-17
2.51023e-17
2.34013e-17
2.19139e-17
2.05857e-17
1.93746e-17
1.825e-17
1.71907e-17
1.61832e-17
1.52198e-17
1.42966e-17
1.3412e-17
1.25663e-17
1.17613e-17
1.09984e-17
1.02788e-17
9.60367e-18
8.97422e-18
8.39122e-18
7.85496e-18
7.36491e-18
6.91965e-18
6.51675e-18
6.15293e-18
5.82426e-18
5.52639e-18
5.25491e-18
5.00562e-18
4.77487e-18
4.55968e-18
4.35794e-18
4.16839e-18
3.99061e-18
3.82497e-18
3.67252e-18
3.53487e-18
3.41411e-18
3.31268e-18
3.23336e-18
3.17925e-18
3.15371e-18
3.16048e-18
3.20364e-18
3.28776e-18
3.41789e-18
3.59973e-18
3.83963e-18
4.14466e-18
4.52265e-18
4.98216e-18
5.53247e-18
6.18348e-18
6.94567e-18
7.82996e-18
8.84759e-18
1.001e-17
1.13286e-17
1.28148e-17