/*--------------------------------*- C++ -*----------------------------------*\
| =========                 |                                                 |
| \\      /  F ield         | OpenFOAM: The Open Source CFD Toolbox           |
|  \\    /   O peration     | Version:  2.4.0                                 |
|   \\  /    A nd           | Web:      www.OpenFOAM.org                      |
|    \\/     M anipulation  |                                                 |
\*---------------------------------------------------------------------------*/
FoamFile
{
    version     2.0;
    format      ascii;
    class       volScalarField;
    location    "4";
    object      H;
}
// * * * * * * * * * * * * * * * * * * * * * * * * * * * * * * * * * * * * * //

dimensions      [0 2 -2 0 0 0 0];

internalField   nonuniform List<scalar> 
8000
(
-11986.4
-11499.3
-11012.5
-10526.4
-10041.6
-9558.56
-9077.53
-8598.56
-8121.47
-7645.91
-7171.49
-6697.84
-6224.72
-5752.1
-5280.19
-4809.44
-4340.4
-3873.57
-3408.82
-2944.46
-2478.84
-2007.5
-1531.06
-1043.3
-519.581
-24.5926
-0.108112
-0.0099044
-0.00629574
-0.0019458
-0.246581
-0.449637
-0.590964
-0.675792
-0.735159
-0.769196
-0.772041
-0.752162
-0.741674
-0.743537
-0.762052
-0.82874
-0.910475
-0.944024
-0.944337
-0.884231
-0.840365
-0.795123
-0.741653
-0.679077
-11979.7
-11478.4
-10975.7
-10472.2
-9969.59
-9469.74
-8974.49
-8485.43
-8003.71
-7530.06
-7064.83
-6608.05
-6159.59
-5719.14
-5286.38
-4860.96
-4442.52
-4030.82
-3625.72
-3227.26
-2835.82
-2452.11
-2077.11
-1712
-1358.73
-1023.48
-713.817
-428.192
-163.257
-0.524083
-0.0061312
-0.00260665
-0.000895858
-0.0133828
-0.0247807
-0.0358463
-0.044896
-0.055109
-0.0729878
-0.106451
-0.157541
-0.214185
-0.275946
-0.340332
-0.391497
-0.43427
-0.473963
-0.506074
-0.534757
-0.56003
-11955.2
-11404.7
-10852.7
-10299.9
-9748.59
-9201.36
-8661.09
-8130.43
-7611.64
-7106.44
-6615.99
-6140.97
-5681.64
-5237.9
-4809.48
-4395.98
-3997
-3612.25
-3241.58
-2885.07
-2543.09
-2216.35
-1905.92
-1613.22
-1339.99
-1088.27
-859.996
-656.799
-479.86
-329.604
-204.363
-102.418
-30.2163
-0.0926945
-0.0319775
-0.000100031
-2.05703e-06
-4.32194e-05
-0.0114432
-0.0216174
-0.0310544
-0.0406953
-0.053099
-0.0702231
-0.0916598
-0.119407
-0.153045
-0.185093
-0.236758
-0.301783
-11920.6
-11301.6
-10682.9
-10065.6
-9451.86
-8844.17
-8245.35
-7658.13
-7085.02
-6528.2
-5989.5
-5470.33
-4971.8
-4494.71
-4039.7
-3607.34
-3198.12
-2812.61
-2451.4
-2115.11
-1804.35
-1519.69
-1261.55
-1030.24
-825.732
-647.444
-494.509
-365.765
-259.722
-174.615
-108.5
-59.2616
-24.1822
-0.0736563
-0.000226059
-6.86313e-07
-2.70009e-09
-1.59392e-07
-4.6727e-05
-0.0139348
-0.0268979
-0.0371397
-0.0438225
-0.0488094
-0.0558974
-0.0674879
-0.0821863
-0.102548
-0.132868
-0.171667
-11911
-11274.4
-10641.8
-10015.8
-9398.56
-8792.15
-8198.39
-7618.84
-7054.9
-6507.76
-5978.46
-5467.91
-4976.89
-4506.11
-4056.24
-3627.92
-3221.83
-2838.67
-2479.13
-2143.91
-1833.62
-1548.7
-1289.39
-1055.62
-847.046
-663.1
-503.124
-366.454
-252.257
-159.466
-86.9244
-34.6328
-0.123028
-0.000448132
-0.000234706
-8.81039e-07
-3.91057e-09
-2.41673e-09
-1.90665e-07
-6.23233e-05
-0.0220721
-0.0413043
-0.0525426
-0.0586095
-0.0609606
-0.0630157
-0.0670663
-0.0724308
-0.0750405
-0.0776943
-11903.5
-11252.3
-10605.9
-9967.54
-9339.76
-8724.71
-8124.14
-7539.51
-6972.06
-6422.85
-5892.79
-5382.67
-4893.18
-4424.89
-3978.29
-3553.8
-3151.77
-2772.58
-2416.58
-2084.15
-1775.76
-1491.98
-1233.45
-1000.42
-793.05
-610.206
-450.013
-314.596
-197.128
-92.4204
-0.284164
-0.00215267
-0.0152981
-0.019029
-0.0154005
-0.00790171
-3.42325e-05
-1.75006e-05
-5.31527e-05
-0.0150101
-0.0301947
-0.0447475
-0.0554795
-0.0621325
-0.0661779
-0.0686558
-0.0701127
-0.0705834
-0.0706582
-0.0713603
-11869.5
-11149.6
-10433.2
-9722.91
-9021.33
-8331.23
-7655.43
-6996.72
-6357.87
-5741.57
-5150.4
-4586.85
-4053.25
-3551.74
-3084.13
-2651.91
-2256.43
-1899.71
-1581.1
-1298.69
-1044.29
-814.047
-604.236
-415.406
-244.405
-110.79
-0.381517
-0.00750793
-0.00397828
-0.00214445
-0.0302424
-0.0524985
-0.0645448
-0.0684046
-0.0693823
-0.0695806
-0.0697355
-0.0694772
-0.0690574
-0.0697998
-0.0701592
-0.0696209
-0.0678051
-0.06529
-0.0631661
-0.0619854
-0.0619865
-0.0631508
-0.0658469
-0.070943
-11823.5
-11010
-10196.5
-9384.68
-8577.69
-7779.42
-6994.06
-6225.85
-5478.96
-4757.45
-4065.3
-3406.35
-2784.49
-2203.92
-1668.5
-1178.94
-722.801
-306.123
-88.8313
-0.323763
-0.0254306
-0.0193425
-0.014556
-0.0106014
-0.00706437
-0.00330036
-0.0355723
-0.0534359
-0.0635619
-0.0697244
-0.0727541
-0.0747033
-0.0752689
-0.0746008
-0.0731245
-0.0709299
-0.0680878
-0.0651359
-0.062287
-0.0590085
-0.0554374
-0.0526831
-0.0508091
-0.049786
-0.0497679
-0.0508035
-0.0528589
-0.0560496
-0.0606682
-0.0670355
-11821
-11002.4
-10182.2
-9359.48
-8533.29
-7702.53
-6865.5
-6020.71
-5169.63
-4315.55
-3466.17
-2628.28
-1805.78
-1002.01
-360.45
-1.16937
-0.0308229
-0.0231965
-0.00544881
-0.0371113
-0.0596903
-0.0725342
-0.0786368
-0.0798502
-0.0788682
-0.0765054
-0.0734118
-0.071133
-0.0685649
-0.0660754
-0.0629109
-0.0599995
-0.0574057
-0.0547898
-0.0521711
-0.0497516
-0.0476302
-0.0457749
-0.0441636
-0.0428085
-0.0417497
-0.041053
-0.0408064
-0.0411257
-0.0421482
-0.04403
-0.0469451
-0.0510817
-0.0565491
-0.0633947
-11795.3
-10925
-10049.6
-9162.35
-8255.59
-7321.97
-6356.28
-5356.55
-4324.38
-3261.86
-2163.36
-1131.93
-4.52727
-0.339021
-0.0925655
-0.110036
-0.116426
-0.121221
-0.120349
-0.118541
-0.119603
-0.119993
-0.120515
-0.118597
-0.115003
-0.109814
-0.103858
-0.0977073
-0.0916985
-0.0860614
-0.0809117
-0.0762598
-0.0720631
-0.0682454
-0.0647133
-0.0613856
-0.0582125
-0.0551793
-0.0523034
-0.049623
-0.0471856
-0.0450451
-0.0432991
-0.0421549
-0.0418692
-0.0427167
-0.0449278
-0.0485888
-0.0535889
-0.0596272
-11730.6
-10727.2
-9707.36
-8657.52
-7564.53
-6418.32
-5214.52
-3956.18
-2662.8
-1370.44
-8.62998
-0.652293
-0.901016
-0.653629
-0.543486
-0.460125
-0.390486
-0.33664
-0.292305
-0.257336
-0.228594
-0.202954
-0.178405
-0.15518
-0.133499
-0.114038
-0.0978875
-0.084969
-0.0748453
-0.0669863
-0.0609451
-0.0563322
-0.0527881
-0.0500021
-0.0477128
-0.0457102
-0.0438441
-0.0420476
-0.0403729
-0.0390365
-0.0383388
-0.0385284
-0.0396907
-0.041663
-0.0442212
-0.0471879
-0.0502912
-0.0535096
-0.056853
-0.0601993
-11820.3
-11000.1
-10175.6
-9340.45
-8486.04
-7602.11
-6677.55
-5701.63
-4665.86
-3565.34
-2405.94
-1256.33
-737.693
-3.75128
-0.75307
-0.484171
-0.415758
-0.374851
-0.277894
-0.23972
-0.206253
-0.175005
-0.146504
-0.121214
-0.0986339
-0.0797222
-0.0651637
-0.0545187
-0.0470192
-0.0418656
-0.0384352
-0.0362678
-0.0350405
-0.0345475
-0.0346562
-0.0352528
-0.0362076
-0.0373704
-0.038609
-0.0398271
-0.0410163
-0.0422342
-0.0435316
-0.0449058
-0.0463185
-0.0477177
-0.0490371
-0.0502031
-0.0511628
-0.0518587
-11891.9
-11217.4
-10547.6
-9883.44
-9224.27
-8567.86
-7910.57
-7247.31
-6571.92
-5877.94
-5159.59
-4421.67
-3658.23
-2858.08
-1994.89
-1113.07
-4.59139
-0.0695737
-0.045964
-0.0445691
-0.0636755
-0.0219512
-0.045662
-0.0505109
-0.0501309
-0.0487859
-0.0470875
-0.0441877
-0.0410198
-0.0381554
-0.0360826
-0.0348875
-0.0343973
-0.0344093
-0.034774
-0.0353971
-0.0361796
-0.0370404
-0.0379176
-0.0387497
-0.0394999
-0.0401499
-0.0406951
-0.0411223
-0.0414146
-0.0415574
-0.0415269
-0.0412915
-0.040844
-0.0402226
-11938.5
-11357.4
-10781.5
-10213
-9653.33
-9103
-8561.94
-8029.4
-7504.01
-6983.9
-6466.61
-5949.04
-5427.23
-4896.21
-4350.34
-3784.36
-3195.25
-2583.14
-1947.09
-1292.17
-639.845
-70.3149
-0.33297
-0.0247311
-0.019523
-0.00873175
-0.0143342
-0.0180381
-0.0218149
-0.0245512
-0.0272051
-0.0293584
-0.03106
-0.032158
-0.0328399
-0.0333631
-0.0338668
-0.0344435
-0.0351127
-0.0358329
-0.0365327
-0.0371342
-0.0375678
-0.0377786
-0.0377301
-0.0374016
-0.0367938
-0.0359196
-0.03479
-0.0334783
-11948.7
-11387
-10828.4
-10274.8
-9728.38
-9190.97
-8664.12
-8149.02
-7646.52
-7157.11
-6680.84
-6217.34
-5765.77
-5324.76
-4892.66
-4467.54
-4046.34
-3625.62
-3201.59
-2770.77
-2331.01
-1881.65
-1420.55
-951.109
-477.687
-81.8124
-0.314801
-0.0106577
-0.00615992
-0.000658097
-0.00526389
-0.0107392
-0.0152051
-0.0186818
-0.0216164
-0.0242454
-0.0265813
-0.0285732
-0.0302214
-0.0315504
-0.0326363
-0.0335246
-0.0342321
-0.0347533
-0.0350694
-0.035154
-0.0349851
-0.034549
-0.0338411
-0.0328598
-11934.8
-11344.7
-10756
-10170.6
-9590.72
-9018.8
-8457.3
-7908.55
-7374.65
-6857.36
-6358.07
-5877.75
-5416.94
-4975.79
-4554.14
-4151.56
-3767.41
-3400.85
-3050.83
-2716.12
-2395.42
-2087.46
-1790.92
-1504.56
-1227.39
-959.003
-703.27
-459.333
-218.502
-9.48825
-0.040066
-0.00381271
-0.00229906
-0.00629226
-0.009693
-0.0128573
-0.0157178
-0.0185057
-0.0212598
-0.0238565
-0.026136
-0.028033
-0.0295536
-0.0307367
-0.0316222
-0.032242
-0.0326188
-0.0327676
-0.0326978
-0.0324143
-11923.2
-11310.5
-10700.1
-10094.4
-9495.61
-8906.36
-8329.17
-7766.45
-7220.36
-6692.73
-6185.07
-5698.51
-5233.87
-4791.63
-4371.99
-3974.92
-3600.2
-3247.42
-2916.05
-2605.43
-2314.81
-2043.36
-1790.15
-1554.21
-1334.52
-1129.96
-939.398
-762.011
-597.225
-444.76
-303.641
-174.151
-60.5696
-0.224851
-0.00962712
-0.00654626
-0.0177891
-0.0269162
-0.028788
-0.0292815
-0.0326957
-0.037223
-0.0424475
-0.0473972
-0.0504729
-0.0508174
-0.0486949
-0.0450723
-0.0411851
-0.0384521
-11937.9
-11354.7
-10774.6
-10199.6
-9632.04
-9073.82
-8526.82
-7992.65
-7472.68
-6968.05
-6479.7
-6008.4
-5554.79
-5119.36
-4702.52
-4304.56
-3925.7
-3566.06
-3225.7
-2904.56
-2602.45
-2319.04
-2053.98
-1807.02
-1578.02
-1366.79
-1172.52
-993.983
-830.307
-680.855
-545.256
-423.174
-313.409
-214.787
-123.66
-39.7374
-0.150491
-0.106082
-0.0961353
-0.0987692
-0.0998071
-0.116176
-0.140542
-0.163987
-0.179687
-0.184435
-0.179303
-0.167199
-0.150899
-0.132065
-11951.9
-11396.7
-10844
-10295.1
-9751.44
-9213.87
-8683.27
-8160.39
-7645.94
-7140.61
-6645.17
-6160.48
-5687.46
-5227.18
-4780.69
-4349.07
-3933.38
-3534.86
-3154.88
-2794.36
-2453.01
-2129.15
-1821.61
-1531.98
-1265.65
-1030.09
-825.794
-641.783
-468.888
-302.698
-145.221
-21.1642
-0.0860873
-0.00490382
-0.0026573
-0.00126311
-0.0466492
-0.108361
-0.163336
-0.211291
-0.259404
-0.305051
-0.341504
-0.361816
-0.362372
-0.345284
-0.315946
-0.280328
-0.243435
-0.208662
-11950
-11389.9
-10829.4
-10268
-9705.59
-9141.93
-8577.2
-8011.89
-7446.95
-6883.82
-6324.45
-5771.22
-5226.9
-4694.67
-4177.6
-3677.47
-3194.9
-2733.91
-2305.25
-1921.06
-1576.19
-1232.21
-871.84
-513.432
-149.83
-0.4819
-0.0206529
-0.0151319
-0.0113573
-0.0078931
-0.00449131
-0.00205187
-0.224753
-0.415109
-0.552187
-0.64584
-0.712884
-0.753199
-0.773593
-0.778351
-0.768124
-0.742311
-0.701343
-0.647026
-0.582618
-0.51261
-0.442101
-0.375902
-0.317568
-0.26873
-0.606486
-0.524325
-0.435771
-0.347578
-0.267825
-0.201761
-0.149293
-0.108709
-0.0778781
-0.0547881
-0.0377243
-0.0253266
-0.0165098
-0.0104131
-0.006344
-0.00373255
-0.00212241
-0.00116724
-0.000621137
-0.000319914
-0.000159569
-7.71934e-05
-3.63118e-05
-1.66578e-05
-7.49054e-06
-3.33672e-06
-1.50532e-06
-7.16995e-07
-3.83013e-07
-2.41047e-07
-1.77966e-07
-1.46596e-07
-1.27937e-07
-1.14606e-07
-1.03823e-07
-9.45548e-08
-8.63986e-08
-7.91677e-08
-7.27459e-08
-6.70415e-08
-6.19736e-08
-5.74696e-08
-5.34639e-08
-4.98983e-08
-4.67208e-08
-4.38854e-08
-4.13515e-08
-3.90831e-08
-3.70484e-08
-3.52198e-08
-0.57262
-0.572787
-0.562489
-0.543905
-0.514984
-0.461982
-0.407041
-0.349072
-0.288098
-0.227281
-0.170577
-0.121531
-0.0822594
-0.0530427
-0.0327115
-0.0193666
-0.0110398
-0.00607091
-0.00322435
-0.00165564
-0.000823442
-0.000398692
-0.000189275
-8.7976e-05
-3.99833e-05
-1.77508e-05
-7.7001e-06
-3.27521e-06
-1.38141e-06
-5.94027e-07
-2.75253e-07
-1.48277e-07
-9.70145e-08
-7.45961e-08
-6.28795e-08
-5.51661e-08
-4.91082e-08
-4.39236e-08
-3.93556e-08
-3.5308e-08
-3.17273e-08
-2.85691e-08
-2.57906e-08
-2.33508e-08
-2.12106e-08
-1.93338e-08
-1.76873e-08
-1.62412e-08
-1.49686e-08
-1.38457e-08
-0.348375
-0.387204
-0.424511
-0.45459
-0.481045
-0.473863
-0.460361
-0.435549
-0.40019
-0.354685
-0.30154
-0.245163
-0.190489
-0.141594
-0.100897
-0.0691188
-0.0455604
-0.0289105
-0.0176666
-0.0103982
-0.00589362
-0.00321363
-0.00168365
-0.000847473
-0.000409776
-0.000190288
-8.48373e-05
-3.62966e-05
-1.48926e-05
-5.85646e-06
-2.2086e-06
-8.03774e-07
-2.89835e-07
-1.12344e-07
-5.47995e-08
-3.70178e-08
-3.11024e-08
-2.81375e-08
-2.56536e-08
-2.31709e-08
-2.07221e-08
-1.84119e-08
-1.63118e-08
-1.44512e-08
-1.28296e-08
-1.143e-08
-1.02277e-08
-9.19914e-09
-8.31778e-09
-7.55862e-09
-0.214663
-0.252322
-0.290601
-0.330448
-0.355693
-0.369759
-0.38026
-0.386078
-0.383939
-0.371379
-0.347044
-0.311699
-0.268683
-0.222873
-0.178192
-0.137302
-0.10237
-0.073601
-0.0508414
-0.0336913
-0.0214035
-0.0130282
-0.00759373
-0.0042358
-0.00225997
-0.00115293
-0.000562281
-0.000262108
-0.000116744
-4.9634e-05
-2.00925e-05
-7.70002e-06
-2.75669e-06
-8.92571e-07
-2.37544e-07
-3.10277e-08
2.05938e-08
2.43525e-08
1.65642e-08
8.24385e-09
1.98167e-09
-2.13884e-09
-4.60999e-09
-5.93718e-09
-6.51315e-09
-6.61623e-09
-6.43562e-09
-6.09229e-09
-5.66767e-09
-5.21462e-09
-0.0809806
-0.0845329
-0.0902187
-0.092663
-0.101753
-0.121904
-0.151342
-0.179346
-0.209951
-0.24412
-0.273188
-0.289224
-0.288978
-0.274635
-0.251793
-0.221583
-0.187515
-0.152228
-0.118768
-0.0883378
-0.0629331
-0.0427782
-0.0276227
-0.0169071
-0.00980097
-0.00538146
-0.00280079
-0.0013832
-0.000648964
-0.000289503
-0.000122789
-4.94068e-05
-1.87252e-05
-6.55171e-06
-1.99174e-06
-4.03889e-07
8.69347e-08
1.99564e-07
1.94794e-07
1.61258e-07
1.26318e-07
9.68755e-08
7.35989e-08
5.55765e-08
4.17092e-08
3.10583e-08
2.28884e-08
1.66357e-08
1.18681e-08
8.25267e-09
-0.0746996
-0.0828816
-0.0963827
-0.116695
-0.141384
-0.167413
-0.196033
-0.225134
-0.251723
-0.273031
-0.289327
-0.291208
-0.282751
-0.269097
-0.248345
-0.221524
-0.191202
-0.159711
-0.127619
-0.0974611
-0.0712119
-0.0494868
-0.0326186
-0.0203693
-0.0120488
-0.00675458
-0.00359229
-0.00181461
-0.000871602
-0.00039834
-0.000173114
-7.1289e-05
-2.75202e-05
-9.65274e-06
-2.76423e-06
-2.98274e-07
4.7969e-07
6.53588e-07
6.31078e-07
5.56535e-07
4.77022e-07
4.05662e-07
3.44623e-07
2.92987e-07
2.49259e-07
2.12058e-07
1.80265e-07
1.52992e-07
1.2954e-07
1.09354e-07
-0.0790473
-0.0911697
-0.108453
-0.127991
-0.14983
-0.173732
-0.198239
-0.220911
-0.238004
-0.249932
-0.255728
-0.253373
-0.241949
-0.227988
-0.209002
-0.18656
-0.160734
-0.133555
-0.106156
-0.0810493
-0.0591181
-0.0410069
-0.0269991
-0.0168663
-0.0100006
-0.00563252
-0.0030163
-0.00153732
-0.000746194
-0.000344842
-0.000151348
-6.25753e-05
-2.38101e-05
-7.73538e-06
-1.45835e-06
7.93492e-07
1.47787e-06
1.5907e-06
1.51531e-06
1.39072e-06
1.26333e-06
1.1463e-06
1.04178e-06
9.48677e-07
8.65293e-07
7.90029e-07
7.21575e-07
6.58896e-07
6.01185e-07
5.47817e-07
-0.0757928
-0.0866578
-0.0995607
-0.114449
-0.13066
-0.147738
-0.164694
-0.17835
-0.188968
-0.195188
-0.196577
-0.192503
-0.182952
-0.170333
-0.15458
-0.136018
-0.115295
-0.0935483
-0.0733745
-0.0553998
-0.0400411
-0.0275618
-0.0180322
-0.0112123
-0.00663049
-0.00373248
-0.0020018
-0.00102338
-0.000498514
-0.000230803
-0.000100766
-4.05673e-05
-1.40315e-05
-2.94477e-06
1.38492e-06
2.90123e-06
3.30869e-06
3.30923e-06
3.17748e-06
3.01443e-06
2.85394e-06
2.70535e-06
2.56968e-06
2.44551e-06
2.33098e-06
2.22433e-06
2.12409e-06
2.02905e-06
1.93822e-06
1.85079e-06
-0.0715839
-0.0808061
-0.0907491
-0.100936
-0.111125
-0.120387
-0.128453
-0.134067
-0.137689
-0.138221
-0.135718
-0.130123
-0.121852
-0.111388
-0.0988859
-0.0847637
-0.0699456
-0.0557377
-0.0430665
-0.0320607
-0.0228566
-0.0155446
-0.0100714
-0.00621687
-0.00365852
-0.00205382
-0.0011001
-0.000561733
-0.0002725
-0.00012437
-5.19786e-05
-1.82265e-05
-3.25441e-06
3.00959e-06
5.42114e-06
6.21119e-06
6.35784e-06
6.27e-06
6.10993e-06
5.93783e-06
5.77369e-06
5.62255e-06
5.48431e-06
5.35734e-06
5.23975e-06
5.12975e-06
5.02575e-06
4.92637e-06
4.83036e-06
4.73664e-06
-0.0662848
-0.0731179
-0.079761
-0.0856746
-0.0905138
-0.0937047
-0.0958906
-0.0967145
-0.0959264
-0.0933556
-0.0890745
-0.0832277
-0.0759845
-0.0675723
-0.0582494
-0.0485856
-0.0392446
-0.0307547
-0.0233232
-0.0170349
-0.0119385
-0.00800916
-0.00513775
-0.00315048
-0.00184652
-0.00103389
-0.000551962
-0.000279494
-0.000132417
-5.65395e-05
-1.91219e-05
-1.51413e-06
6.34749e-06
9.62642e-06
1.08486e-05
1.11945e-05
1.11914e-05
1.10642e-05
1.09037e-05
1.07439e-05
1.05961e-05
1.04627e-05
1.03432e-05
1.0236e-05
1.01395e-05
1.0052e-05
9.97212e-06
9.89833e-06
9.82935e-06
9.76388e-06
-0.0633414
-0.0660081
-0.0680821
-0.0693841
-0.0699216
-0.0696375
-0.0686157
-0.0667188
-0.0638979
-0.0601667
-0.0556293
-0.0504106
-0.0446516
-0.0385466
-0.0323624
-0.0264081
-0.020937
-0.0161026
-0.0119829
-0.00860401
-0.00594728
-0.00395049
-0.00251835
-0.00153876
-0.000899559
-0.000501305
-0.000264124
-0.000128959
-5.51933e-05
-1.66358e-05
2.6445e-06
1.18297e-05
1.5954e-05
1.76505e-05
1.82362e-05
1.83416e-05
1.82558e-05
1.81053e-05
1.79424e-05
1.77872e-05
1.76462e-05
1.7521e-05
1.74109e-05
1.73148e-05
1.72314e-05
1.71595e-05
1.7098e-05
1.70455e-05
1.70008e-05
1.69628e-05
-0.0522109
-0.0522015
-0.051786
-0.0509301
-0.0496635
-0.0479584
-0.0457999
-0.0431691
-0.0400977
-0.0366538
-0.0329277
-0.029018
-0.0250337
-0.0211005
-0.017351
-0.0139022
-0.0108374
-0.00820484
-0.00602099
-0.00427423
-0.00292944
-0.00193445
-0.00122779
-0.000746387
-0.000431901
-0.00023486
-0.000116418
-4.80985e-05
-1.02916e-05
9.75286e-06
1.98957e-05
2.47482e-05
2.68917e-05
2.77082e-05
2.79065e-05
2.78348e-05
2.7657e-05
2.74468e-05
2.72353e-05
2.70345e-05
2.68485e-05
2.66779e-05
2.65223e-05
2.63809e-05
2.62528e-05
2.61371e-05
2.60326e-05
2.59384e-05
2.58535e-05
2.57765e-05
-0.0393948
-0.0383564
-0.0370891
-0.0355876
-0.0338488
-0.0318738
-0.0296731
-0.0272725
-0.0247163
-0.0220602
-0.0193658
-0.0166964
-0.0141152
-0.0116829
-0.00945269
-0.00746475
-0.00574393
-0.00429908
-0.00312383
-0.00219885
-0.00149536
-0.000979019
-0.000613732
-0.000364883
-0.000201757
-9.892e-05
-3.6611e-05
-3.64961e-07
1.98318e-05
3.05565e-05
3.59198e-05
3.83725e-05
3.93105e-05
3.94954e-05
3.93255e-05
3.89992e-05
3.86115e-05
3.82052e-05
3.77981e-05
3.73965e-05
3.70018e-05
3.66135e-05
3.623e-05
3.58497e-05
3.54708e-05
3.5091e-05
3.47085e-05
3.43209e-05
3.39256e-05
3.35198e-05
-0.0320328
-0.0304491
-0.0287361
-0.0269058
-0.0249718
-0.0229511
-0.0208663
-0.0187459
-0.0166227
-0.0145321
-0.0125099
-0.0105903
-0.00880383
-0.00717639
-0.00572698
-0.00446683
-0.00339886
-0.00251788
-0.00181153
-0.00126183
-0.000847188
-0.000544459
-0.000330823
-0.000185282
-8.96849e-05
-2.92275e-05
7.51167e-06
2.88875e-05
4.07091e-05
4.68214e-05
4.96525e-05
5.06677e-05
5.07121e-05
5.02532e-05
4.9539e-05
4.86938e-05
4.77769e-05
4.6814e-05
4.58143e-05
4.47783e-05
4.37029e-05
4.25823e-05
4.14097e-05
4.01768e-05
3.88746e-05
3.74926e-05
3.60202e-05
3.44453e-05
3.27552e-05
3.09356e-05
-0.0316237
-0.0301535
-0.0284762
-0.0266209
-0.0246202
-0.0225111
-0.0203343
-0.0181334
-0.0159528
-0.0138355
-0.0118206
-0.00994117
-0.00822295
-0.00668362
-0.00533279
-0.00417229
-0.00319697
-0.00239585
-0.0017533
-0.00125051
-0.000867048
-0.000582207
-0.000376239
-0.000231274
-0.00013193
-6.55825e-05
-2.2338e-05
5.22038e-06
2.24226e-05
3.29478e-05
3.92395e-05
4.28642e-05
4.47943e-05
4.56194e-05
4.56915e-05
4.52199e-05
4.43297e-05
4.30965e-05
4.1567e-05
3.97705e-05
3.77229e-05
3.54372e-05
3.29171e-05
3.0156e-05
2.7144e-05
2.38651e-05
2.02963e-05
1.64065e-05
1.21531e-05
7.47937e-06
-0.0319224
-0.0312192
-0.0303089
-0.0291996
-0.0279034
-0.026435
-0.0248135
-0.0230632
-0.021213
-0.0192957
-0.0173477
-0.0154071
-0.0135122
-0.0116986
-0.0099977
-0.00843476
-0.00702716
-0.00578446
-0.00470843
-0.00379402
-0.00303062
-0.00240373
-0.00189652
-0.00149144
-0.00117139
-0.000920578
-0.000725115
-0.000573211
-0.000455182
-0.000363281
-0.00029145
-0.00023504
-0.000190526
-0.00015525
-0.00012722
-0.000104942
-8.72846e-05
-7.33932e-05
-6.26114e-05
-5.44318e-05
-4.84586e-05
-4.43803e-05
-4.19525e-05
-4.09826e-05
-4.13188e-05
-4.28419e-05
-4.54569e-05
-4.90854e-05
-5.36563e-05
-5.90869e-05
-0.0364713
-0.0349422
-0.0336736
-0.0325409
-0.0314631
-0.030386
-0.0292742
-0.0281052
-0.0268666
-0.025554
-0.0241699
-0.0227219
-0.0212225
-0.019688
-0.0181373
-0.0165908
-0.0150696
-0.0135941
-0.0121826
-0.0108507
-0.00961037
-0.00846992
-0.00743377
-0.00650252
-0.0056736
-0.004942
-0.00430102
-0.00374283
-0.00325908
-0.0028414
-0.00248171
-0.00217247
-0.00190682
-0.00167868
-0.00148275
-0.0013144
-0.00116966
-0.00104515
-0.000937977
-0.000845714
-0.000766302
-0.000698008
-0.000639372
-0.000589159
-0.000546332
-0.000510011
-0.000479458
-0.000454055
-0.000433323
-0.000417031
-0.113445
-0.0965261
-0.0819508
-0.0698923
-0.0603617
-0.0530454
-0.0473631
-0.0428814
-0.0392778
-0.0363128
-0.0338094
-0.0316378
-0.0297035
-0.0279389
-0.0262966
-0.0247436
-0.0232582
-0.0218274
-0.0204444
-0.0191073
-0.0178169
-0.0165757
-0.0153873
-0.0142551
-0.0131823
-0.0121714
-0.0112236
-0.0103393
-0.00951798
-0.00875856
-0.00805905
-0.00741682
-0.00682882
-0.00629177
-0.0058022
-0.00535665
-0.00495167
-0.00458398
-0.00425045
-0.0039481
-0.00367416
-0.00342605
-0.0032014
-0.00299804
-0.00281403
-0.00264762
-0.00249723
-0.00236153
-0.00223965
-0.00213279
-0.177786
-0.15121
-0.128593
-0.109311
-0.0926525
-0.0784266
-0.0667259
-0.0574289
-0.0503928
-0.0452231
-0.0413129
-0.0382557
-0.0357829
-0.0337158
-0.031934
-0.0303555
-0.0289236
-0.0276002
-0.0263588
-0.0251817
-0.0240575
-0.0229786
-0.0219406
-0.0209411
-0.0199786
-0.0190528
-0.0181638
-0.0173119
-0.0164966
-0.015718
-0.0149759
-0.0142699
-0.0135999
-0.0129651
-0.0123648
-0.0117978
-0.0112631
-0.0107593
-0.0102853
-0.00983956
-0.00942091
-0.00902805
-0.00865969
-0.00831456
-0.0079914
-0.00768895
-0.00740605
-0.00714169
-0.00689556
-0.00667167
-0.230031
-0.199533
-0.174899
-0.154457
-0.137006
-0.121663
-0.107764
-0.0951361
-0.0838122
-0.0737389
-0.0650771
-0.0577861
-0.0518137
-0.047169
-0.0439648
-0.0415683
-0.0396084
-0.0379186
-0.0364152
-0.0350524
-0.0338003
-0.0326393
-0.0315558
-0.0305396
-0.0295821
-0.028677
-0.0278196
-0.0270059
-0.0262323
-0.0254964
-0.0247961
-0.0241294
-0.0234944
-0.0228897
-0.0223139
-0.0217659
-0.0212445
-0.0207487
-0.0202774
-0.0198298
-0.0194049
-0.0190019
-0.01862
-0.0182584
-0.0179163
-0.0175929
-0.0172875
-0.0169993
-0.0167283
-0.016479
-3.36432e-08
-3.2775e-08
-3.19928e-08
-3.12586e-08
-3.05613e-08
-2.98971e-08
-2.92635e-08
-2.8659e-08
-2.80819e-08
-2.7531e-08
-2.70048e-08
-2.65024e-08
-2.60224e-08
-2.5564e-08
-2.5126e-08
-2.47076e-08
-2.43081e-08
-2.39265e-08
-2.35622e-08
-2.32145e-08
-2.28827e-08
-2.25665e-08
-2.2265e-08
-2.1978e-08
-2.1705e-08
-2.14455e-08
-2.11993e-08
-2.0966e-08
-2.07454e-08
-2.05373e-08
-2.03413e-08
-2.01574e-08
-1.99855e-08
-1.98254e-08
-1.9677e-08
-1.95403e-08
-1.94152e-08
-1.93017e-08
-1.91999e-08
-1.91097e-08
-1.90312e-08
-1.89644e-08
-1.89093e-08
-1.88661e-08
-1.88347e-08
-1.88152e-08
-1.88076e-08
-1.88119e-08
-1.88283e-08
-1.88567e-08
-1.8897e-08
-1.89493e-08
-1.90135e-08
-1.90896e-08
-1.91773e-08
-1.92766e-08
-1.93873e-08
-1.95092e-08
-1.96421e-08
-1.97856e-08
-1.99394e-08
-2.01033e-08
-2.02767e-08
-2.04592e-08
-2.06504e-08
-2.08497e-08
-2.10565e-08
-2.12703e-08
-2.14905e-08
-2.17163e-08
-2.1947e-08
-2.2182e-08
-2.24204e-08
-2.26615e-08
-2.29044e-08
-2.31484e-08
-2.33926e-08
-2.36362e-08
-2.38782e-08
-2.41179e-08
-2.43544e-08
-2.45868e-08
-2.48143e-08
-2.5036e-08
-2.52512e-08
-2.5459e-08
-2.56587e-08
-2.58496e-08
-2.60309e-08
-2.6202e-08
-2.63621e-08
-2.65107e-08
-2.66473e-08
-2.67712e-08
-2.6882e-08
-2.69793e-08
-2.70626e-08
-2.71316e-08
-2.71859e-08
-2.72254e-08
-2.72497e-08
-2.72587e-08
-2.72523e-08
-2.72303e-08
-2.71928e-08
-2.71397e-08
-2.7071e-08
-2.69868e-08
-2.68873e-08
-2.67726e-08
-2.66429e-08
-2.64984e-08
-2.63393e-08
-2.61661e-08
-2.59789e-08
-2.57783e-08
-2.55644e-08
-2.53379e-08
-2.50991e-08
-2.48484e-08
-2.45864e-08
-2.43135e-08
-2.40303e-08
-2.37374e-08
-2.34352e-08
-2.31243e-08
-2.28053e-08
-2.24786e-08
-2.21451e-08
-2.1805e-08
-2.14592e-08
-2.1108e-08
-2.07521e-08
-2.0392e-08
-2.00282e-08
-1.96613e-08
-1.92919e-08
-1.89202e-08
-1.85471e-08
-1.81727e-08
-1.77977e-08
-1.74224e-08
-1.70473e-08
-1.66727e-08
-1.62991e-08
-1.59268e-08
-1.55561e-08
-1.51874e-08
-1.48209e-08
-1.44571e-08
-1.4096e-08
-1.37381e-08
-1.33835e-08
-1.30325e-08
-1.26853e-08
-1.2342e-08
-1.20029e-08
-1.16682e-08
-1.13379e-08
-1.10122e-08
-1.06912e-08
-1.03752e-08
-1.0064e-08
-9.758e-09
-9.45707e-09
-9.16134e-09
-8.87083e-09
-8.58565e-09
-8.3058e-09
-8.0313e-09
-7.76221e-09
-7.49851e-09
-7.24026e-09
-6.9874e-09
-6.74e-09
-6.49806e-09
-6.26157e-09
-6.03052e-09
-5.80494e-09
-5.58484e-09
-5.37019e-09
-5.16101e-09
-4.95734e-09
-4.75913e-09
-4.56644e-09
-4.37926e-09
-4.19755e-09
-4.02132e-09
-3.85059e-09
-3.68528e-09
-3.52544e-09
-3.37101e-09
-3.22192e-09
-3.07817e-09
-2.93969e-09
-2.80641e-09
-2.67826e-09
-2.55518e-09
-2.43711e-09
-2.32393e-09
-2.21556e-09
-2.11193e-09
-2.01292e-09
-1.91844e-09
-1.82837e-09
-1.74256e-09
-1.66093e-09
-1.58332e-09
-1.50965e-09
-1.4398e-09
-1.37358e-09
-1.31088e-09
-1.25152e-09
-1.19538e-09
-1.14232e-09
-1.09217e-09
-1.04483e-09
-1.00015e-09
-9.57968e-10
-9.18151e-10
-8.80588e-10
-8.45148e-10
-8.11673e-10
-7.80072e-10
-7.50217e-10
-7.22009e-10
-6.9534e-10
-6.70097e-10
-6.46176e-10
-6.2352e-10
-6.02059e-10
-5.81645e-10
-5.62291e-10
-5.43899e-10
-5.26415e-10
-5.0977e-10
-4.93905e-10
-4.78788e-10
-4.64359e-10
-4.50564e-10
-4.37376e-10
-4.24758e-10
-4.12653e-10
-4.01049e-10
-3.89929e-10
-3.79222e-10
-3.68942e-10
-3.59046e-10
-3.49484e-10
-3.40273e-10
-3.3136e-10
-3.2275e-10
-3.14427e-10
-3.06346e-10
-2.98524e-10
-2.90933e-10
-2.83528e-10
-2.76352e-10
-2.6934e-10
-2.62507e-10
-2.55837e-10
-2.49289e-10
-2.42874e-10
-2.36572e-10
-2.30378e-10
-2.24278e-10
-2.18238e-10
-2.12284e-10
-2.06396e-10
-2.0056e-10
-1.94788e-10
-1.89081e-10
-1.8344e-10
-1.77836e-10
-1.72309e-10
-1.66885e-10
-1.61551e-10
-1.56284e-10
-1.51159e-10
-1.46171e-10
-1.41291e-10
-1.36557e-10
-1.31997e-10
-1.27597e-10
-1.2332e-10
-1.19182e-10
-1.1521e-10
-1.11393e-10
-1.07695e-10
-1.04049e-10
-1.00479e-10
-9.694e-11
-9.3378e-11
-8.97235e-11
-8.59029e-11
-8.19127e-11
-7.7764e-11
-7.34434e-11
-6.89201e-11
-6.41697e-11
-1.28981e-08
-1.2378e-08
-1.1915e-08
-1.14848e-08
-1.10795e-08
-1.0696e-08
-1.03325e-08
-9.98757e-09
-9.66005e-09
-9.34887e-09
-9.05306e-09
-8.7717e-09
-8.50398e-09
-8.24913e-09
-8.00639e-09
-7.77513e-09
-7.55468e-09
-7.34451e-09
-7.14405e-09
-6.95283e-09
-6.77034e-09
-6.59612e-09
-6.42976e-09
-6.27092e-09
-6.11921e-09
-5.9743e-09
-5.83583e-09
-5.70355e-09
-5.57722e-09
-5.45652e-09
-5.34126e-09
-5.23123e-09
-5.12619e-09
-5.02601e-09
-4.93051e-09
-4.83954e-09
-4.75296e-09
-4.67063e-09
-4.59249e-09
-4.51837e-09
-4.44826e-09
-4.38199e-09
-4.31955e-09
-4.26086e-09
-4.2058e-09
-4.15439e-09
-4.10652e-09
-4.06212e-09
-4.0212e-09
-3.98368e-09
-3.94946e-09
-3.91853e-09
-3.89087e-09
-3.86637e-09
-3.84495e-09
-3.82659e-09
-3.81123e-09
-3.7988e-09
-3.7892e-09
-3.78234e-09
-3.7781e-09
-3.77645e-09
-3.7773e-09
-3.78053e-09
-3.78604e-09
-3.7937e-09
-3.80339e-09
-3.815e-09
-3.82839e-09
-3.84343e-09
-3.85999e-09
-3.87794e-09
-3.8971e-09
-3.91734e-09
-3.93856e-09
-3.96058e-09
-3.98328e-09
-4.00649e-09
-4.03009e-09
-4.05391e-09
-4.07781e-09
-4.10166e-09
-4.12531e-09
-4.14863e-09
-4.1715e-09
-4.19379e-09
-4.21537e-09
-4.23611e-09
-4.25591e-09
-4.27467e-09
-4.29229e-09
-4.30869e-09
-4.32373e-09
-4.33736e-09
-4.34949e-09
-4.36007e-09
-4.36903e-09
-4.3763e-09
-4.38185e-09
-4.38562e-09
-4.38757e-09
-4.38769e-09
-4.38593e-09
-4.38226e-09
-4.37671e-09
-4.36923e-09
-4.35982e-09
-4.34849e-09
-4.33524e-09
-4.32008e-09
-4.30303e-09
-4.28408e-09
-4.26329e-09
-4.24065e-09
-4.2162e-09
-4.18998e-09
-4.16202e-09
-4.13234e-09
-4.10101e-09
-4.06804e-09
-4.03349e-09
-3.99738e-09
-3.95979e-09
-3.92074e-09
-3.88028e-09
-3.83848e-09
-3.79541e-09
-3.7511e-09
-3.70562e-09
-3.65901e-09
-3.61134e-09
-3.56265e-09
-3.51301e-09
-3.46246e-09
-3.41104e-09
-3.35884e-09
-3.30592e-09
-3.25233e-09
-3.19812e-09
-3.14335e-09
-3.08808e-09
-3.03233e-09
-2.97617e-09
-2.91966e-09
-2.86286e-09
-2.80583e-09
-2.74861e-09
-2.69126e-09
-2.63382e-09
-2.57632e-09
-2.51882e-09
-2.4614e-09
-2.40411e-09
-2.34697e-09
-2.29005e-09
-2.23338e-09
-2.17699e-09
-2.12094e-09
-2.06526e-09
-2.01002e-09
-1.95526e-09
-1.901e-09
-1.84729e-09
-1.79415e-09
-1.7416e-09
-1.68966e-09
-1.63842e-09
-1.58789e-09
-1.5381e-09
-1.48906e-09
-1.4408e-09
-1.39335e-09
-1.3467e-09
-1.30088e-09
-1.25593e-09
-1.21188e-09
-1.16874e-09
-1.12652e-09
-1.08524e-09
-1.04492e-09
-1.00557e-09
-9.67181e-10
-9.29766e-10
-8.93331e-10
-8.57917e-10
-8.23526e-10
-7.90171e-10
-7.57854e-10
-7.26577e-10
-6.96326e-10
-6.67113e-10
-6.38933e-10
-6.11769e-10
-5.85615e-10
-5.60455e-10
-5.36264e-10
-5.13021e-10
-4.90738e-10
-4.69407e-10
-4.49004e-10
-4.29513e-10
-4.10907e-10
-3.93157e-10
-3.76242e-10
-3.60137e-10
-3.44817e-10
-3.30254e-10
-3.1642e-10
-3.03291e-10
-2.9084e-10
-2.79033e-10
-2.67849e-10
-2.57261e-10
-2.47227e-10
-2.37738e-10
-2.28758e-10
-2.20262e-10
-2.12227e-10
-2.04616e-10
-1.97421e-10
-1.90606e-10
-1.84154e-10
-1.78046e-10
-1.72252e-10
-1.6676e-10
-1.61551e-10
-1.56608e-10
-1.51903e-10
-1.47437e-10
-1.43195e-10
-1.39156e-10
-1.35302e-10
-1.31605e-10
-1.28083e-10
-1.24739e-10
-1.21559e-10
-1.18534e-10
-1.15653e-10
-1.12903e-10
-1.10283e-10
-1.07788e-10
-1.05414e-10
-1.03152e-10
-1.00999e-10
-9.89477e-11
-9.69921e-11
-9.51244e-11
-9.33337e-11
-9.16232e-11
-8.99925e-11
-8.84329e-11
-8.694e-11
-8.55099e-11
-8.41384e-11
-8.28203e-11
-8.15506e-11
-8.03245e-11
-7.91369e-11
-7.79818e-11
-7.68518e-11
-7.57356e-11
-7.46353e-11
-7.35501e-11
-7.24715e-11
-7.13949e-11
-7.03142e-11
-6.92245e-11
-6.81213e-11
-6.70017e-11
-6.58639e-11
-6.47081e-11
-6.35365e-11
-6.23539e-11
-6.11679e-11
-5.99882e-11
-5.88266e-11
-5.76953e-11
-5.66041e-11
-5.55765e-11
-5.46344e-11
-5.37903e-11
-5.30531e-11
-5.2427e-11
-5.19115e-11
-5.14966e-11
-5.11827e-11
-5.09527e-11
-5.07905e-11
-5.06835e-11
-5.06165e-11
-5.05763e-11
-5.05522e-11
-5.0537e-11
-5.0526e-11
-5.05165e-11
-5.05069e-11
-5.04968e-11
-5.04861e-11
-5.0475e-11
-5.04641e-11
-6.93436e-09
-6.59188e-09
-6.29033e-09
-6.0127e-09
-5.75287e-09
-5.50815e-09