/*--------------------------------*- C++ -*----------------------------------*\
| =========                 |                                                 |
| \\      /  F ield         | OpenFOAM: The Open Source CFD Toolbox           |
|  \\    /   O peration     | Version:  2.4.0                                 |
|   \\  /    A nd           | Web:      www.OpenFOAM.org                      |
|    \\/     M anipulation  |                                                 |
\*---------------------------------------------------------------------------*/
FoamFile
{
    version     2.0;
    format      ascii;
    class       volScalarField;
    location    "4";
    object      p;
}
// * * * * * * * * * * * * * * * * * * * * * * * * * * * * * * * * * * * * * //

dimensions      [1 -1 -2 0 0 0 0];

internalField   nonuniform List<scalar> 
8000
(
10.7354
10.6959
10.663
10.6427
10.6329
10.6322
10.6406
10.6578
10.684
10.7188
10.7623
10.8141
10.8746
10.9427
11.0197
11.1041
11.1975
11.2986
11.4113
11.5392
11.6189
11.6509
11.7365
12.1896
12.6823
13.4177
10.2097
-0.558617
-2.02458
4.46176
5.16437
5.76437
3.35992
3.91519
4.07455
3.82248
2.90674
2.89276
3.107
3.36035
4.00791
3.46275
3.23656
3.62227
2.93681
2.88406
2.89322
2.91139
2.92695
2.93597
10.556
10.5108
10.461
10.4189
10.3858
10.3601
10.3416
10.33
10.3252
10.3272
10.336
10.3515
10.3737
10.4028
10.4386
10.4815
10.5313
10.5884
10.6529
10.7255
10.8062
10.8964
10.9997
11.1251
11.241
11.3133
11.429
11.4291
11.1501
9.92493
2.08107
2.51481
4.17433
4.46842
3.60333
3.20541
4.50611
4.91643
3.94825
2.34696
1.99743
2.77965
3.16021
3.1591
2.95989
2.97329
2.99977
3.01046
3.05623
3.10971
12.8621
12.8038
12.7468
12.6996
12.6605
12.6278
12.6011
12.5805
12.5659
12.5572
12.5543
12.5573
12.5661
12.5805
12.6006
12.6263
12.6577
12.6946
12.7371
12.7851
12.8388
12.8981
12.9632
13.0336
13.1098
13.1937
13.2868
13.3747
13.414
13.4595
13.4919
13.5312
13.5482
11.2513
11.2036
11.9009
11.3711
7.46619
4.61165
3.9309
4.26031
4.23481
3.35526
2.88791
2.92564
2.99095
3.04175
4.34271
3.85842
4.56232
10.7737
10.7597
10.7419
10.7241
10.7072
10.6911
10.6753
10.6601
10.6454
10.631
10.617
10.6034
10.5898
10.5762
10.5625
10.5485
10.5339
10.5187
10.5025
10.485
10.4659
10.4449
10.4215
10.3953
10.3657
10.3321
10.2938
10.2502
10.2019
10.1527
10.1035
10.0245
9.85868
9.51229
15.0268
11.566
11.8273
11.854
11.1624
9.87893
8.31796
5.96188
3.52365
3.23965
7.32461
4.77608
5.47747
0.450973
1.50232
2.1017
10.7785
10.7777
10.7774
10.7781
10.7799
10.7829
10.7871
10.7925
10.7993
10.8084
10.8167
10.8279
10.8405
10.8547
10.8705
10.8878
10.9068
10.9274
10.9496
10.9737
11.0001
11.0284
11.059
11.0923
11.1283
11.1696
11.2088
11.2188
11.202
11.1599
11.1056
10.9959
10.2598
38.6638
35.1562
20.6566
22.4845
23.0866
22.9592
20.792
121.716
67.6348
68.9975
14.0537
12.0196
24.7535
24.9588
-10.9176
-8.4906
-4.51365
10.7999
10.7626
10.7268
10.6987
10.6776
10.6624
10.6531
10.6494
10.6519
10.6584
10.6715
10.6901
10.7143
10.7438
10.7789
10.8196
10.8659
10.9175
10.9759
11.049
11.1427
11.2624
11.3968
11.5429
11.6463
11.7743
11.973
12.2654
12.4259
12.2267
10.8695
12.9789
14.92
12.4306
76.1182
63.3859
14.9096
28.3795
22.1938
11.1767
9.2599
14.7041
13.8366
6.51524
2.3989
1.65749
1.48285
1.4117
1.35172
1.58965
8.36169
8.35192
8.34078
8.33134
8.324
8.31852
8.3146
8.31219
8.31112
8.31127
8.31252
8.31469
8.31804
8.32337
8.33352
8.35451
8.37516
8.35545
8.32173
8.16844
8.0015
7.90726
7.92417
7.90616
7.92324
7.35887
43.6182
34.7314
39.493
17.375
52.0878
76.5683
72.1086
21.0391
-6.50906
-5.98883
-4.98094
-1.86197
9.21408
7.33215
7.67148
1.44457
1.50183
2.08546
2.17133
2.22076
2.32036
2.38587
2.4027
2.42807
6.9689
6.935
6.9038
6.88508
6.87917
6.88501
6.90262
6.93182
6.97239
7.02485
7.09075
7.17341
7.274
7.37075
7.45243
7.339
6.90266
6.61297
6.87067
-1.66337
1.14599
2.53798
2.78854
-1.474
3.23386
4.03727
2.1152
-2.30385
1.78742
2.60577
2.31098
-0.192964
0.3771
1.67113
2.02495
2.18695
2.42443
2.46004
2.36834
2.38244
2.52919
2.57285
2.55038
2.53451
2.54251
2.54684
2.54619
2.54502
2.5439
2.53682
4.89024
4.87854
4.88042
4.8975
4.9282
4.97112
5.02833
5.10024
5.19125
5.28403
5.32633
5.29643
4.80576
3.7285
3.44958
-3.27434
-5.94764
6.25881
-1.71519
0.95617
0.989505
0.866281
1.06315
1.76268
1.92337
1.91846
2.18211
2.38707
2.38599
2.3001
2.27905
2.39799
2.53986
2.57458
2.53881
2.50931
2.49175
2.47309
2.46014
2.46479
2.47643
2.48123
2.48177
2.48212
2.48304
2.48436
2.48615
2.48763
2.48795
2.48663
-4.36684
-4.29668
-4.23675
-4.20165
-4.19033
-4.20073
-4.22609
-4.24672
-4.25867
-4.41757
-5.2517
-6.92296
-12.364
-2.7942
-1.68646
2.27436
2.51842
2.60767
2.11874
2.24885
2.34242
2.3953
2.41684
2.41759
2.41578
2.43802
2.45333
2.4521
2.44706
2.4501
2.45661
2.4578
2.45564
2.4531
2.45047
2.44812
2.44665
2.44601
2.44565
2.44539
2.4454
2.4457
2.44622
2.44699
2.44789
2.44872
2.44923
2.44936
2.44894
2.44752
-6.3615
-6.32056
-6.29886
-6.31382
-6.36179
-6.42763
-6.50771
-6.71193
-7.39065
-8.56331
-6.55738
-1.26903
-0.568685
2.19896
2.27174
2.37927
2.37131
2.35662
2.36441
2.37349
2.37521
2.37525
2.37458
2.3749
2.37517
2.37504
2.37388
2.37127
2.36676
2.36049
2.35288
2.34446
2.336
2.32813
2.32125
2.31563
2.31117
2.30798
2.30592
2.3046
2.30378
2.30332
2.30318
2.30329
2.30382
2.30468
2.30591
2.30621
2.30538
2.30361
-2.98687
-2.94482
-2.90483
-2.87402
-2.85148
-2.83668
-2.82743
-2.81928
-2.81462
-2.84045
-2.99352
-3.42984
-4.14687
-8.82862
0.591078
-8.1536
1.67297
1.20042
2.01583
2.13932
2.25301
2.30693
2.30232
2.33826
2.35316
2.3497
2.34466
2.3413
2.33923
2.33657
2.33293
2.32846
2.32338
2.31839
2.31364
2.30979
2.30666
2.30438
2.30271
2.30202
2.30345
2.30257
2.30537
2.30796
2.31094
2.31392
2.31766
2.3224
2.32692
2.33041
3.492
3.5299
3.58514
3.64964
3.72183
3.8014
3.88992
3.98914
4.10385
4.23381
4.34801
4.35868
4.34035
3.99996
3.45276
3.00916
-1.08781
-0.653188
-5.40928
-9.11761
-4.99177
1.65245
2.16201
2.64802
2.43547
2.49043
2.53149
2.56663
2.60167
2.61284
2.6077
2.6046
2.60435
2.60449
2.60463
2.60488
2.60485
2.6041
2.60281
2.60117
2.59841
2.59545
2.59229
2.58789
2.58302
2.57753
2.57983
2.57905
2.55367
2.54823
2.33737
2.38891
2.43653
2.47776
2.51591
2.55169
2.58616
2.61896
2.65027
2.68
2.70821
2.7345
2.75997
2.78896
2.81955
2.87206
2.8518
2.8555
2.74216
2.47626
1.97594
1.50264
-1.63279
-4.08967
-5.51928
-4.42354
1.37593
2.65597
2.97341
2.59951
2.66291
2.75039
2.7873
2.79537
2.7951
2.79546
2.79615
2.79621
2.79499
2.79217
2.78809
2.78304
2.77646
2.76975
2.76071
2.75068
2.73968
2.74612
2.71706
2.70669
8.41455
8.40225
8.39617
8.39686
8.40243
8.41174
8.42571
8.44369
8.46561
8.4913
8.5206
8.55333
8.58946
8.62938
8.67342
8.72142
8.77353
8.83167
8.90706
9.00347
9.1093
9.21583
9.33405
9.28941
8.99987
8.47233
4.0899
-1.95167
-3.21209
-2.94368
1.67754
2.95702
3.16987
2.74254
2.78821
2.82539
2.8299
2.83076
2.83063
2.8304
2.8299
2.82847
2.826
2.8222
2.81793
2.81178
2.80472
2.79624
2.78762
2.77812
8.75394
8.71814
8.67729
8.64409
8.61765
8.59837
8.58549
8.57876
8.57822
8.58382
8.59548
8.61324
8.63703
8.66689
8.70279
8.74477
8.79285
8.84711
8.90777
8.97535
9.04997
9.13296
9.22689
9.33267
9.4314
9.51326
9.60694
9.67443
9.6357
9.3241
3.04234
-1.21026
-2.8455
0.809536
2.56318
3.10697
2.90068
2.92812
2.88207
2.84858
2.84122
2.83915
2.83867
2.83889
2.83893
2.83819
2.8364
2.83381
2.82924
2.82375
11.2775
11.2467
11.2222
11.2086
11.2026
11.2048
11.2143
11.2308
11.254
11.2835
11.3189
11.3595
11.4049
11.4542
11.5066
11.5613
11.6173
11.6735
11.7288
11.7818
11.8313
11.8763
11.9152
11.9475
11.9733
11.9947
12.0154
12.0331
12.0246
12.0072
12.0026
12.0303
11.8792
7.94706
1.9354
-0.150681
1.73143
3.27565
3.44529
2.99522
2.93909
2.93428
2.93428
2.93517
2.93621
2.93695
2.937
2.93604
2.93383
2.93002
7.87587
7.85002
7.80251
7.74938
7.69476
7.64046
7.58681
7.53508
7.48702
7.4448
7.41052
7.38632
7.37464
7.37757
7.39725
7.43564
7.494
7.57297
7.6725
7.78911
7.91998
8.05761
8.19457
8.32079
8.41862
8.48167
8.52719
8.58263
8.66476
8.77214
8.88027
8.98607
9.0775
9.25105
9.45197
9.04133
7.59217
6.42178
3.90466
3.17317
2.94656
2.92298
2.92003
2.92039
2.92091
2.9211
2.92058
2.91904
2.91623
2.91209
17.8122
17.7269
17.6238
17.4877
17.3109
17.0899
16.8226
16.5078
16.1431
15.7265
15.2563
14.7313
14.1511
13.5166
12.8307
12.0985
11.329
10.5335
9.72955
8.94848
8.22913
7.61945
7.16466
6.87521
6.76589
6.85897
7.08477
7.40542
7.79945
8.23322
8.60344
8.62008
5.90222
4.89435
3.85557
-0.767752
-0.242747
2.5377
3.52326
3.12961
2.92352
2.89892
2.89214
2.88767
2.88406
2.88015
2.87546
2.86992
2.8636
2.85664
18.9381
19.0297
19.209
19.4802
19.8514
20.3233
20.8949
21.5664
22.3368
23.2042
24.1664
25.2191
26.3551
27.5676
28.8429
30.1754
31.54
32.8349
34.0518
35.1669
36.6675
38.0231
37.9376
35.7815
33.9583
29.798
24.4963
20.0625
14.4269
9.29046
5.0719
1.7348
-0.539227
0.671949
3.48708
4.20023
3.65656
3.21161
3.1047
3.07872
3.06235
3.05087
3.0419
3.03391
3.02646
3.01938
3.01249
3.00572
2.99905
2.99251
2.93826
2.93713
2.9394
2.94233
2.94193
2.94043
2.93753
2.93678
2.93528
2.93364
2.93241
2.93032
2.92866
2.92676
2.92465
2.92233
2.91981
2.9171
2.91421
2.91112
2.90784
2.90437
2.90069
2.89681
2.89273
2.88845
2.88396
2.87926
2.87436
2.86926
2.86395
2.85844
2.85272
2.84681
2.84069
2.83438
2.82788
2.82118
2.81429
2.80721
2.79995
2.7925
2.78487
2.77707
2.76909
2.76095
2.75264
2.74415
2.73549
2.72669
3.12606
3.13889
3.11344
3.097
3.47526
2.90411
2.91664
2.92249
2.92656
2.92684
2.92936
2.92945
2.9293
2.92869
2.92734
2.9256
2.92354
2.92118
2.91853
2.91559
2.91237
2.9089
2.90517
2.9012
2.89699
2.89255
2.88789
2.883
2.8779
2.87259
2.86708
2.86136
2.85544
2.84933
2.84302
2.83653
2.82986
2.823
2.81597
2.80877
2.80139
2.79386
2.78616
2.77831
2.77031
2.76216
2.75387
2.74543
2.73685
2.72815
3.03222
3.14318
3.30865
3.51478
3.53482
2.85519
2.88144
2.89377
2.89852
2.90079
2.90203
2.90189
2.90307
2.9045
2.89917
2.8979
2.89575
2.89328
2.89056
2.88763
2.88446
2.88105
2.8774
2.87351
2.86938
2.86502
2.86043
2.85562
2.85058
2.84532
2.83984
2.83415
2.82825
2.82214
2.81584
2.80934
2.80264
2.79577
2.78871
2.78147
2.77407
2.7665
2.75877
2.75089
2.74287
2.73474
2.72641
2.71794
2.70934
2.70063
2.30115
2.55415
2.68698
2.9697
3.07272
2.993
2.93278
2.90229
2.89137
2.88868
2.88687
2.88434
2.8729
2.87147
2.87932
2.84706
2.84593
2.84283
2.83816
2.83322
2.82836
2.8236
2.81877
2.81384
2.80878
2.80359
2.79825
2.79277
2.78713
2.78134
2.7754
2.7693
2.76304
2.75663
2.75007
2.74335
2.73648
2.72947
2.72231
2.71501
2.70756
2.69999
2.69229
2.68446
2.6765
2.66841
2.66026
2.652
2.64365
2.6352
-2.80231
4.19355
31.7048
20.8205
11.1578
5.72905
3.47608
2.90254
2.83662
2.85209
2.87351
2.87708
2.87439
2.86344
2.85819
2.85241
2.75799
2.81131
2.80948
2.74616
2.74737
2.74509
2.74094
2.73646
2.73187
2.72712
2.72216
2.71699
2.71163
2.70606
2.70031
2.69438
2.68826
2.68197
2.6755
2.66887
2.66209
2.65514
2.64805
2.64081
2.63344
2.62593
2.6183
2.61054
2.60267
2.59469
2.58661
2.57843
2.57016
2.56181
2.07832
2.23308
2.49933
2.78246
2.67971
2.45871
2.36877
2.3388
2.40597
2.30082
2.80432
2.52738
2.54223
2.54927
2.55084
2.56949
2.57271
2.63401
2.56693
2.57311
2.57797
2.5806
2.58205
2.58283
2.583
2.58258
2.58159
2.58007
2.57808
2.57563
2.57276
2.5695
2.56588
2.56191
2.55763
2.55304
2.54816
2.54302
2.53763
2.532
2.52614
2.52008
2.51382
2.50738
2.50076
2.49398
2.48705
2.47999
2.4728
2.46549
2.5131
2.59746
2.62029
2.53284
2.60319
2.5907
2.41467
2.36852
2.3935
2.42539
2.44039
2.43319
2.42937
2.50685
2.50092
2.49799
2.52788
2.47613
2.47531
2.47625
2.47737
2.47807
2.47843
2.47846
2.47812
2.4774
2.4763
2.47484
2.47302
2.47087
2.46839
2.4656
2.46251
2.45913
2.45549
2.45158
2.44742
2.44302
2.4384
2.43356
2.42852
2.42328
2.41785
2.41225
2.40648
2.40056
2.39449
2.38829
2.38198
2.37554
2.53786
2.52947
2.55473
2.52491
2.49314
2.46993
2.46509
2.47629
2.47616
2.46265
2.46309
2.46869
2.4759
2.54822
2.51002
2.51142
2.58385
2.38774
2.39226
2.39395
2.39464
2.39504
2.39518
2.39497
2.39439
2.39345
2.39216
2.39055
2.38863
2.3864
2.3839
2.38113
2.3781
2.37484
2.37134
2.36762
2.3637
2.35957
2.35526
2.35077
2.3461
2.34128
2.33629
2.33117
2.32591
2.32051
2.315
2.30937
2.30365
2.29783
2.4876
2.48753
2.48627
2.47785
2.46725
2.46479
2.57422
2.40197
2.4006
2.40189
2.40444
2.40795
2.42069
2.42749
2.38169
2.44594
2.34315
2.345
2.3447
2.34365
2.34263
2.34157
2.34028
2.3388
2.33707
2.33511
2.33292
2.33051
2.32788
2.32505
2.32202
2.3188
2.3154
2.31182
2.30809
2.30419
2.30014
2.29595
2.29162
2.28716
2.28257
2.27786
2.27305
2.26812
2.2631
2.25798
2.25277
2.24748
2.24213
2.23669
2.44412
2.4379
2.42809
2.4149
2.50053
2.36229
2.37005
2.37358
2.3718
2.36808
2.36457
2.36655
2.36084
2.35502
2.37522
2.34021
2.33771
2.33472
2.33157
2.32844
2.32526
2.32201
2.3186
2.31511
2.31152
2.30782
2.30402
2.30011
2.29611
2.29201
2.28781
2.28352
2.27914
2.27467
2.27012
2.26548
2.26076
2.25597
2.2511
2.24616
2.24115
2.23607
2.23094
2.22574
2.22049
2.21518
2.20983
2.20443
2.19901
2.19354
2.30225
2.30992
2.31049
2.31246
2.31582
2.31871
2.32007
2.31929
2.31833
2.31767
2.31752
2.31713
2.31643
2.31967
2.31486
2.31332
2.31188
2.31021
2.30829
2.30609
2.30361
2.30087
2.29788
2.29467
2.29126
2.28766
2.28389
2.27995
2.27589
2.27164
2.26729
2.26283
2.25825
2.25357
2.24879
2.24392
2.23897
2.23394
2.22884
2.22366
2.21842
2.21312
2.20777
2.20236
2.1969
2.1914
2.18586
2.18029
2.17469
2.16911
2.33368
2.33648
2.33912
2.34125
2.34281
2.34385
2.34479
2.34554
2.34602
2.34614
2.34588
2.34532
2.34419
2.34272
2.34085
2.33866
2.33614
2.33331
2.33018
2.32677
2.3231
2.3192
2.31509
2.31078
2.30629
2.30164
2.29684
2.29191
2.28685
2.28167
2.27639
2.27109
2.26553
2.25999
2.25436
2.24867
2.24292
2.2371
2.23123
2.2253
2.21933
2.21331
2.20726
2.20117
2.19505
2.18889
2.18272
2.17651
2.17032
2.16416
2.54238
2.53613
2.52961
2.52291
2.51608
2.50911
2.502
2.49476
2.48739
2.47993
2.47239
2.46479
2.45694
2.44923
2.44149
2.43372
2.42593
2.41813
2.41032
2.4025
2.39468
2.38685
2.37902
2.37118
2.36335
2.35564
2.34769
2.33988
2.33205
2.32423
2.31642
2.30884
2.30092
2.29313
2.28534
2.27757
2.2698
2.26203
2.25427
2.24651
2.23877
2.23102
2.22327
2.21553
2.2079
2.20003
2.19231
2.18458
2.17707
2.16944
2.69571
2.68412
2.6722
2.66012
2.64795
2.63578
2.62367
2.61165
2.59975
2.58796
2.57628
2.56472
2.55332
2.54193
2.53065
2.51948
2.50839
2.49738
2.48644
2.47558
2.46478
2.45404
2.44336
2.43274
2.42218
2.41175
2.40127
2.39085
2.3805
2.37015
2.35985
2.34981
2.33957
2.32937
2.3192
2.30905
2.29891
2.2888
2.2787
2.26861
2.25853
2.24846
2.2384
2.22834
2.21835
2.20823
2.19825
2.1882
2.17817
2.16823
2.76465
2.75387
2.74246
2.73053
2.7182
2.70557
2.693
2.68032
2.66779
2.65534
2.64293
2.63063
2.61839
2.60621
2.59405
2.58204
2.56971
2.55756
2.54538
2.53318
2.52088
2.50863
2.49634
2.48404
2.47171
2.45937
2.44708
2.43466
2.42229
2.40994
2.39754
2.38512
2.3728
2.36031
2.34786
2.33539
2.3229
2.31039
2.29785
2.28529
2.2727
2.26008
2.24743
2.23475
2.22203
2.20935
2.19639
2.18355
2.17065
2.15775
2.81723
2.80972
2.79904
2.78905
2.77839
2.76711
2.75524
2.7429
2.73022
2.71743
2.7043
2.69104
2.67771
2.66431
2.65085
2.63763
2.62405
2.6105
2.59704
2.58357
2.57006
2.55652
2.54296
2.52921
2.51554
2.50182
2.48803
2.47418
2.46033
2.44636
2.43232
2.41823
2.40406
2.38982
2.37559
2.36123
2.3468
2.33232
2.31776
2.30311
2.28852
2.27371
2.2589
2.24403
2.22909
2.21409
2.19903
2.18395
2.16875
2.15353
2.92461
2.91767
2.91078
2.89963
2.88765
2.87462
2.86086
2.84658
2.8318
2.81662
2.80119
2.78557
2.76981
2.75393
2.73797
2.72223
2.70552
2.68945
2.67333
2.65715
2.64096
2.62475
2.60853
2.59235
2.57605
2.5599
2.54378
2.52765
2.51153
2.49539
2.47941
2.4633
2.44716
2.43104
2.41488
2.39871
2.38251
2.36627
2.35
2.3337
2.31724
2.30086
2.28443
2.26796
2.25143
2.23487
2.21825
2.20154
2.18483
2.16808
2.90666
2.90011
2.89274
2.88574
2.8763
2.86677
2.85701
2.84703
2.83675
2.8262
2.81543
2.80443
2.79321
2.78176
2.77007
2.75808
2.74569
2.73263
2.71958
2.70623
2.69255
2.67854
2.66421
2.64956
2.63462
2.61938
2.60454
2.5887
2.57278
2.55672
2.54043
2.52398
2.50739
2.49067
2.47389
2.45695
2.43991
2.4228
2.4056
2.38834
2.37102
2.35365
2.33624
2.31879
2.30127
2.28375
2.2662
2.24864
2.23105
2.21345
2.84918
2.84137
2.83336
2.82536
2.81745
2.81026
2.80401
2.79887
2.79494
2.7921
2.78983
2.78799
2.78651
2.78512
2.7834
2.781
2.77807
2.77448
2.77013
2.76486
2.7586
2.75133
2.74302
2.7337
2.72341
2.71221
2.70018
2.68743
2.67391
2.65945
2.64427
2.62853
2.61233
2.59571
2.57864
2.56118
2.54337
2.52528
2.50688
2.48813
2.46926
2.45028
2.43108
2.41177
2.39237
2.37287
2.35321
2.33359
2.31395
2.29431
2.98614
2.97999
2.97415
2.96869
2.96367
2.95917
2.95532
2.95189
2.94915
2.94707
2.94588
2.94556
2.94593
2.94658
2.94776
2.94902
2.95007
2.95073
2.95081
2.95016
2.94872
2.94553
2.94115
2.93577
2.92908
2.92074
2.91093
2.89972
2.887
2.87301
2.85798
2.84196
2.82493
2.80694
2.78805
2.76837
2.74798
2.72694
2.70528
2.68299
2.66027
2.63719
2.61379
2.59012
2.56641
2.54221
2.51782
2.49345
2.46904
2.44462
2.7199
2.71514
2.7103
2.7054
2.70043
2.69539
2.69027
2.68509
2.67984
2.67451
2.66911
2.66364
2.6581
2.65249
2.64681
2.64105
2.63522
2.62932
2.62335
2.6173
2.61118
2.60499
2.59873
2.5924
2.58599
2.57951
2.57296
2.56633
2.55964
2.55287
2.54604
2.53913
2.53215
2.5251
2.51799
2.5108
2.50354
2.49622
2.48883
2.48137
2.47385
2.46626
2.4586
2.45088
2.4431
2.43525
2.42735
2.41938
2.41135
2.40326
2.39511
2.38691
2.37865
2.37034
2.36197
2.35355
2.34508
2.33656
2.32799
2.31937
2.31071
2.302
2.29325
2.28446
2.27564
2.26677
2.25787
2.24893
2.23996
2.23096
2.22194
2.21289
2.20381
2.19471
2.18559
2.17645
2.1673
2.15813
2.14895
2.13976
2.13056
2.12136
2.11216
2.10295
2.09375
2.08455
2.07536
2.06618
2.05701
2.04786
2.03872
2.0296
2.0205
2.01142
2.00237
1.99335
1.98436
1.97541
1.96648
1.9576
1.94876
1.93996
1.9312
1.92249
1.91383
1.90522
1.89666
1.88816
1.87971
1.87133
1.863
1.85473
1.84653
1.8384
1.83033
1.82232
1.81439
1.80653
1.79874
1.79102
1.78338
1.77581
1.76831
1.76089
1.75354
1.74628
1.73908
1.73197
1.72493
1.71797
1.71108
1.70427
1.69753
1.69087
1.68428
1.67776
1.67132
1.66494
1.65864
1.6524
1.64623
1.64013
1.63408
1.6281
1.62218
1.61631
1.6105
1.60474
1.59903
1.59337
1.58776
1.58218
1.57665
1.57115
1.56569
1.56026
1.55485
1.54947
1.54411
1.53878
1.53345
1.52814
1.52284
1.51754
1.51224
1.50695
1.50165
1.49634
1.49101
1.48568
1.48032
1.47495
1.46955
1.46412
1.45866
1.45316
1.44763
1.44205
1.43643
1.43076
1.42505
1.41928
1.41345
1.40756
1.40161
1.3956
1.38952
1.38337
1.37714
1.37085
1.36447
1.35802
1.35149
1.34487
1.33817
1.33139
1.32452
1.31756
1.31051
1.30338
1.29615
1.28883
1.28141
1.27391
1.26631
1.25862
1.25083
1.24296
1.23499
1.22692
1.21877
1.21053
1.20219
1.19377
1.18526
1.17667
1.16799
1.15923
1.15039
1.14147
1.13247
1.1234
1.11426
1.10505
1.09577
1.08643
1.07703
1.06757
1.05806
1.04849
1.03888
1.02922
1.01952
1.00978
1
0.990197
0.980365
0.97051
0.960635
0.950745
0.940844
0.930936
0.921026
0.911117
0.901214
0.891322
0.881445
0.871588
0.861755
0.851951
0.842182
0.832451
0.822764
0.813126
0.803542
0.794017
0.784557
0.775165
0.765849
0.756613
0.747462
0.738401
0.729437
0.720574
0.711818
0.703173
0.694645
0.68624
0.677961
0.669815
0.661804
0.653935
0.64621
0.638633
0.631207
0.623936
0.616821
0.609864
0.603066
0.596427
0.589948
0.583627
0.577461
0.571447
0.565581
0.559857
0.554267
0.548802
0.543453
0.53821
0.533061
0.527987
0.522961
0.517975
0.513055
0.508212
0.503296
0.498018
0.492461
0.48771
2.72141
2.71667
2.71188
2.70702
2.7021
2.69713
2.69209
2.68698
2.68182
2.6766
2.67131
2.66596
2.66055
2.65507
2.64954
2.64394
2.63828
2.63256
2.62677
2.62093
2.61502
2.60904
2.60301
2.59691
2.59075
2.58453
2.57825
2.57191
2.5655
2.55904
2.55251
2.54592
2.53927
2.53257
2.5258
2.51897
2.51208
2.50514
2.49814
2.49107
2.48396
2.47678
2.46955
2.46226
2.45492
2.44752
2.44007
2.43257
2.42501
2.4174
2.40974
2.40203
2.39427
2.38646
2.3786
2.3707
2.36275
2.35475
2.34671
2.33863
2.33051
2.32234
2.31414
2.30589
2.29761
2.28929
2.28094
2.27255
2.26413
2.25568
2.2472
2.2387
2.23016
2.2216
2.21302
2.20441
2.19579
2.18714
2.17848
2.1698
2.1611
2.1524
2.14368
2.13495
2.12622
2.11748
2.10873
2.09999
2.09124
2.0825
2.07376
2.06502
2.05629
2.04757
2.03886
2.03016
2.02148
2.01281
2.00416
1.99553
1.98692
1.97833
1.96977
1.96123
1.95272
1.94424
1.9358
1.92738
1.919
1.91066
1.90235
1.89408
1.88585
1.87767
1.86952
1.86142
1.85337
1.84536
1.8374
1.82949
1.82162
1.81381
1.80605
1.79834
1.79068
1.78308
1.77553
1.76803
1.76059
1.7532
1.74587
1.7386
1.73137
1.72421
1.7171
1.71004
1.70304
1.69609
1.68919
1.68235
1.67556
1.66882
1.66213
1.65549
1.6489
1.64235
1.63585
1.6294
1.62299
1.61662
1.61029
1.60401
1.59775
1.59154
1.58536
1.57921
1.57309
1.567
1.56094
1.5549
1.54888
1.54288
1.5369
1.53094
1.52499
1.51905
1.51312
1.5072
1.50128
1.49536
1.48945
1.48353
1.4776
1.47167
1.46573
1.45978
1.45381
1.44783
1.44182
1.4358
1.42976
1.42369
1.4176
1.41148
1.40533
1.39915
1.39294
1.3867
1.38042
1.3741
1.36774
1.36135
1.35492
1.34844
1.34193
1.33537
1.32877
1.32212
1.31544
1.3087
1.30192
1.2951
1.28823
1.28132
1.27437
1.26737
1.26032
1.25324
1.24611
1.23894
1.23173
1.22448
1.21719
1.20987
1.20251
1.19511
1.18767
1.18021
1.17271
1.16518
1.15763
1.15004
1.14243
1.1348
1.12714
1.11947
1.11178
1.10407
1.09634
1.08861
1.08086
1.07311
1.06535
1.05758
1.04982
1.04205
1.03429
1.02653
1.01877
1.01102
1.00328
0.995552
0.987834
0.980129
0.972437
0.96476
0.957099
0.949455
0.941827
0.934218
0.926627
0.919054
0.911499
0.903964
0.896447
0.888948
0.881469
0.874007
0.866564
0.859138
0.851729
0.844338
0.836963
0.829605
0.822263
0.814936
0.807624
0.800327
0.793045
0.785776
0.77852
0.771278
0.764049
0.756833
0.749632
0.742445
0.735274
0.728117
0.720975
0.713848
0.706735
0.699636
0.69255
0.685477
0.678417
0.671369
0.664333
0.657306
0.650285
0.643271
0.636268
0.629274
0.622254
0.615159
0.608037
0.601103
0.59444
0.587338
0.578559
0.568727
2.6939
2.68916
2.68437
2.67951
2.67461
2.66964
2.66462
2.65955
2.65442
2.64923
2.64399
2.63869
2.63333
2.62792
2.62246
2.61694
2.61136
2.60573
2.60004
2.5943
2.58851
2.58266
2.57675
2.57079
2.56478
2.55872
2.5526
2.54643
2.5402
2.53393
2.5276
2.52122
2.51479
2.50831
2.50177
2.49519
2.48856
2.48188
2.47515
2.46837
2.46154
2.45467
2.44775
2.44079
2.43377
2.42672
2.41961
2.41247
2.40528
2.39805
2.39077
2.38346
2.3761
2.3687
2.36127
2.35379
2.34628
2.33873
2.33114
2.32352
2.31587
2.30818
2.30045
2.2927
2.28491
2.2771
2.26925
2.26138
2.25348
2.24555
2.23759
2.22962
2.22162
2.21359
2.20555
2.19748
2.1894
2.1813
2.17318
2.16504
2.1569
2.14874
2.14056
2.13238
2.12419
2.11598
2.10778
2.09956
2.09134
2.08312
2.0749
2.06667
2.05845
2.05023
2.04201
2.0338
2.02559
2.0174
2.00921
2.00103
1.99286
1.9847
1.97656
1.96843
1.96032
1.95223
1.94415
1.9361
1.92807
1.92006
1.91207
1.90411
1.89617
1.88826
1.88038
1.87252
1.8647
1.85691
1.84914
1.84142
1.83372
1.82606
1.81843
1.81084
1.80329
1.79577
1.78829
1.78085
1.77344
1.76608
1.75875
1.75147
1.74422
1.73701
1.72985
1.72272
1.71563
1.70858
1.70158
1.69461
1.68768
1.68079
1.67394
1.66713
1.66036
1.65362
1.64692
1.64026
1.63363
1.62704
1.62048
1.61396
1.60747
1.60101
1.59458
1.58818
1.58181
1.57547
1.56915
1.56286
1.55659
1.55035
1.54412
1.53792
1.53174
1.52557
1.51942
1.51329
1.50717
1.50106
1.49496
1.48888
1.4828
1.47672
1.47066
1.46459
1.45853
1.45247
1.44641
1.44035
1.43429
1.42822
1.42215
1.41608
1.41
1.40391
1.39782
1.39172
1.38561
1.37949
1.37336
1.36722
1.36108
1.35492
1.34875
1.34257
1.33638
1.33018
1.32396
1.31774
1.31151
1.30527
1.29902
1.29276
1.28649
1.28022
1.27394
1.26766
1.26137
1.25508
1.24879
1.2425
1.23621
1.22991
1.22363
1.21734
1.21106
1.20478
1.19852
1.19226
1.18601
1.17976
1.17354
1.16732
1.16112
1.15493
1.14875
1.1426
1.13646
1.13034
1.12425
1.11817
1.11211
1.10608
1.10007
1.09409
1.08812
1.08219
1.07627
1.07038
1.06452
1.05868
1.05285
1.04705
1.04127
1.03551
1.02977
1.02403
1.01831
1.0126
1.00689
1.00118
0.995477
0.989765
0.984042
0.978305
0.97255
0.966771
0.960964
0.955124
0.949246
0.943324
0.937353
0.931328
0.925245
0.919097
0.912879
0.906588
0.900217
0.893762
0.887218
0.880581
0.873847
0.867014
0.860079
0.853041
0.845898
0.838649
0.831293
0.82383
0.816258
0.80858
0.800794
0.792904
0.784911
0.77682
0.768637
0.760363
0.752002
0.743562
0.735062
0.726515
0.71788
0.709077
0.700166
0.691526
0.683432
0.674852
0.66348
0.649527
2.62861
2.62397
2.61928
2.61454
2.60975
2.60492
2.60003
2.5951
2.59012
2.58508
2.58001
2.57488
2.5697
2.56448
2.55921
2.55389
2.54852
2.54311
2.53765
2.53214
2.52659
2.52099
2.51534
2.50965
2.50391
2.49813
2.49231
2.48644
2.48053
2.47458
2.46858
2.46254
2.45646
2.45034
2.44417
2.43797
2.43172
2.42543
2.41911
2.41274
2.40634
2.39989
2.39341
2.38689
2.38033
2.37374
2.36711
2.36044
2.35374
2.347
2.34023
2.33342
2.32658
2.31971
2.31281
2.30587
2.29891
2.29191
2.28488
2.27783
2.27075
2.26364
2.2565
2.24933
2.24214
2.23493
2.22769
2.22043
2.21315
2.20584
2.19851
2.19117
2.1838
2.17641
2.16901
2.16159
2.15415
2.1467
2.13924
2.13176
2.12426
2.11676
2.10925
2.10172
2.09419
2.08664
2.07909
2.07154
2.06398
2.05641
2.04884
2.04127
2.0337
2.02613
2.01855
2.01098
2.00341
1.99585
1.98829
1.98073
1.97319
1.96564
1.95811
1.95059
1.94307
1.93557
1.92808
1.92061
1.91314
1.90569
1.89826
1.89084
1.88344
1.87606
1.8687
1.86136
1.85404
1.84673
1.83946
1.8322
1.82497
1.81776
1.81058
1.80342
1.79629
1.78918
1.7821
1.77505
1.76803
1.76104
1.75407
1.74713
1.74023
1.73335
1.7265
1.71968
1.71289
1.70614
1.69941
1.69271
1.68605
1.67941
1.67281
1.66623
1.65969
1.65318
1.64669
1.64024
1.63381
1.62742
1.62105
1.61471
1.6084
1.60212
1.59586
1.58963
1.58342
1.57724
1.57109
1.56496
1.55885
1.55277
1.5467
1.54066
1.53464
1.52864
1.52266
1.5167
1.51076
1.50483
1.49892
1.49303
1.48715
1.48129
1.47544
1.4696
1.46378
1.45797
1.45217
1.44638
1.4406
1.43483
1.42907
1.42333
1.41759
1.41186
1.40613
1.40042
1.39472
1.38902
1.38334
1.37766
1.372
1.36634
1.36069
1.35506
1.34943
1.34382
1.33822
1.33263
1.32706
1.3215
1.31595
1.31043
1.30491
1.29942
1.29395
1.28849
1.28306
1.27765
1.27226
1.2669
1.26157
1.25626
1.25098
1.24573
1.24051
1.23532
1.23016
1.22504
1.21995
1.21489
1.20988
1.20489
1.19995
1.19504
1.19017
1.18533
1.18054
1.17578
1.17106
1.16638
1.16174
1.15714
1.15257
1.14804
1.14355
1.13908
1.13466
1.13026
1.12589
1.12155
1.11723
1.11294
1.10866
1.1044
1.10016
1.09592
1.09168
1.08744
1.08319
1.07893
1.07465
1.07035
1.06601
1.06164
1.05721
1.05274
1.04819
1.04358
1.03889
1.03411
1.02923
1.02424
1.01914
1.01392
1.00856
1.00306
0.997406
0.991596
0.98562
0.979469
0.973137
0.966618
0.959907
0.952999
0.945892
0.938583
0.93107
0.923353
0.915431
0.907305
0.898977
0.890451
0.881729
0.87282
0.863731
0.854471
0.845045
0.835469
0.825772
0.815977
0.806044
0.795877
0.78554
0.775506
0.766167
0.75632
0.743043
0.726288
2.55534
2.55077
2.54615
2.54149
2.53679
2.53204
2.52725
2.52242
2.51754
2.51262
2.50766
2.50266
2.49762
2.49254
2.48741
2.48225
2.47704
2.47179
2.46651
2.46118
2.45582
2.45042
2.44498
2.4395
2.43399
2.42843
2.42284
2.41721
2.41154
2.40583
2.40009
2.39431
2.3885
2.38265
2.37677
2.37085
2.3649
2.35892
2.3529
2.34685
2.34077
2.33466
2.32851
2.32234
2.31614
2.3099
2.30364
2.29735
2.29103
2.28469
2.27832
2.27192
2.26549
2.25904
2.25257
2.24607
2.23956
2.23301
2.22645
2.21986
2.21326
2.20663
2.19998
2.19332
2.18663
2.17993
2.17321
2.16648
2.15973
2.15296
2.14618
2.13938
2.13257
2.12575
2.11892
2.11207
2.10522
2.09835
2.09147
2.08459
2.0777
2.0708
2.06389
2.05698
2.05006
2.04314
2.03622
2.02929
2.02236
2.01542
2.00849
2.00156
1.99462
1.98769
1.98076
1.97384
1.96691
1.95999
1.95308
1.94617
1.93927
1.93237
1.92549
1.91861
1.91174
1.90488
1.89804
1.8912
1.88438
1.87757
1.87077
1.86399
1.85722
1.85047
1.84373
1.83702
1.83032
1.82363
1.81697
1.81033
1.8037
1.7971
1.79052
1.78396
1.77742
1.7709
1.76441
1.75794
1.75149
1.74506
1.73866
1.73229
1.72594
1.71961
1.71331
1.70703
1.70078
1.69455
1.68836
1.68218
1.67603
1.66991
1.66382
1.65775
1.6517
1.64569
1.6397
1.63373
1.6278
1.62188
1.616
1.61014
1.6043
1.59849
1.59271
1.58695
1.58122
1.5755
1.56982
1.56415
1.55851
1.5529
1.5473
1.54173
1.53618
1.53065
1.52515
1.51966
1.5142
1.50875
1.50333
1.49793
1.49255
1.48719
1.48184
1.47652
1.47122
1.46593
1.46066
1.45542
1.45019
1.44498
1.43978
1.43461
1.42945
1.42431
1.41919
1.41409
1.40901
1.40395
1.39891
1.39389
1.38889
1.38391
1.37896
1.37403
1.36912
1.36423
1.35937
1.35454
1.34973
1.34495
1.34019
1.33547
1.33077
1.32611
1.32148
1.31688
1.31231
1.30778
1.30329
1.29883
1.29441
1.29003
1.28569
1.28139
1.27713
1.27292
1.26874
1.26461
1.26053
1.25649
1.25249
1.24854
1.24464
1.24078
1.23696
1.23319
1.22947
1.22579
1.22215
1.21856
1.215
1.21149
1.20802
1.20458
1.20118
1.19781
1.19447
1.19116
1.18788
1.18462
1.18138
1.17815
1.17493
1.17172
1.16851
1.1653
1.16207
1.15884
1.15558
1.15229
1.14897
1.1456
1.14218
1.1387
1.13515
1.13153
1.12781
1.124
1.12008
1.11604
1.11188
1.10757
1.1031
1.09848
1.09368
1.08869
1.08351
1.07812
1.0725
1.06666
1.06059
1.05426
1.04768
1.04084
1.03373
1.02635
1.0187
1.01077
1.00257
0.994087
0.985335
0.976313
0.967028
0.957487
0.9477
0.937677
0.927426
0.916967
0.906335
0.89556
0.884605
0.873378
0.861943
0.85079
0.84034
0.82938
0.814866
0.79669
2.45974
2.45566
2.45153
2.44735
2.44313
2.43886
2.43454
2.43018
2.42577
2.42132
2.41682
2.41228
2.4077
2.40307
2.39841
2.3937
2.38895
2.38416
2.37934
2.37447
2.36956
2.36462
2.35964
2.35463
2.34957
2.34449
2.33936
2.33421
2.32901
2.32379
2.31853
2.31324
2.30792
2.30257
2.29718
2.29177
2.28632
2.28085
2.27535
2.26982
2.26426
2.25868
2.25307
2.24743
2.24177
2.23608
2.23037
2.22463
2.21887
2.21309
2.20728
2.20146
2.1956
2.18973
2.18384
2.17792
2.17199
2.16604
2.16006
2.15407
2.14806
2.14204
2.13599
2.12994
2.12386
2.11777
2.11167
2.10555
2.09942
2.09328
2.08713
2.08096
2.07479
2.0686
2.06241
2.05621
2.05
2.04378
2.03755
2.03132
2.02508
2.01884
2.0126
2.00635
2.00009
1.99384
1.98758
1.98133
1.97507
1.96881
1.96256
1.9563
1.95005
1.9438
1.93756
1.93132
1.92508
1.91885
1.91263
1.90641
1.9002
1.894
1.88781
1.88163
1.87546
1.8693
1.86315
1.85701
1.85089
1.84478
1.83868
1.8326
1.82653
1.82048
1.81445
1.80843
1.80243
1.79644
1.79048
1.78453
1.77861
1.7727
1.76682
1.76095
1.75511
1.74928
1.74348
1.7377
1.73195
1.72621
1.7205
1.71482
1.70916
1.70352
1.6979
1.69231
1.68675
1.68121
1.67569
1.6702
1.66473
1.65929
1.65387
1.64848
1.64312
1.63778
1.63246
1.62717
1.6219
1.61666
1.61145
1.60625
1.60109
1.59594
1.59082
1.58573
1.58066
1.57561