/*--------------------------------*- C++ -*----------------------------------*\
| =========                 |                                                 |
| \\      /  F ield         | OpenFOAM: The Open Source CFD Toolbox           |
|  \\    /   O peration     | Version:  2.4.0                                 |
|   \\  /    A nd           | Web:      www.OpenFOAM.org                      |
|    \\/     M anipulation  |                                                 |
\*---------------------------------------------------------------------------*/
FoamFile
{
    version     2.0;
    format      ascii;
    class       volScalarField;
    location    "4";
    object      p_rgh;
}
// * * * * * * * * * * * * * * * * * * * * * * * * * * * * * * * * * * * * * //

dimensions      [1 -1 -2 0 0 0 0];

internalField   nonuniform List<scalar> 
8000
(
38.4175
38.378
38.3451
38.3247
38.315
38.3143
38.3227
38.3399
38.3661
38.4009
38.4444
38.4962
38.5567
38.6248
38.7018
38.7861
38.8796
38.9807
39.0932
39.2182
39.2697
39.2847
39.3694
39.7888
40.3744
41.1308
37.8336
22.7909
9.11896
8.4831
9.01243
9.32072
6.06131
5.9403
5.83849
5.38895
4.07396
3.70703
3.75994
3.9183
4.51721
4.01771
3.912
4.31797
3.59957
3.40839
3.37644
3.37835
3.38679
3.3947
39.5885
39.5432
39.4934
39.4513
39.4182
39.3926
39.374
39.3624
39.3576
39.3596
39.3684
39.3839
39.4061
39.4352
39.471
39.5139
39.5637
39.6208
39.6853
39.7579
39.8387
39.9288
40.0322
40.1576
40.2734
40.3458
40.4614
40.4615
40.1813
38.943
27.3008
22.004
21.1094
19.8172
16.8595
13.3419
11.9818
10.914
8.631
5.46512
3.76131
3.69899
3.91052
3.88868
3.60423
3.54908
3.54059
3.5208
3.54921
3.59472
43.2449
43.1866
43.1296
43.0823
43.0432
43.0106
42.9838
42.9632
42.9486
42.9399
42.9371
42.9401
42.9488
42.9632
42.9833
43.009
43.0404
43.0774
43.1199
43.1679
43.2216
43.2809
43.346
43.4164
43.4926
43.5765
43.6696
43.7575
43.7967
43.8423
43.8746
43.9139
43.9306
41.1156
40.0461
40.1108
39.1279
33.4198
26.1955
19.4809
14.9479
10.8383
6.77803
4.70111
4.10915
4.02317
3.90334
4.94553
4.49304
5.3515
42.5068
42.4929
42.475
42.4572
42.4403
42.4241
42.4084
42.3932
42.3785
42.3641
42.3501
42.3364
42.3228
42.3092
42.2955
42.2815
42.267
42.2518
42.2356
42.2181
42.199
42.178
42.1546
42.1284
42.0988
42.0652
42.0269
41.9833
41.935
41.8858
41.8366
41.7576
41.5918
41.0359
46.1421
43.0201
43.2813
43.308
42.4539
40.5566
38.2691
33.9345
18.9596
6.57158
9.04363
6.99414
7.93729
1.86777
2.61775
3.07107
43.862
43.8612
43.8609
43.8616
43.8633
43.8663
43.8705
43.8759
43.8827
43.8918
43.9001
43.9112
43.9239
43.938
43.9538
43.9713
43.9903
44.0109
44.0331
44.0572
44.0836
44.1119
44.1424
44.1757
44.2118
44.253
44.2922
44.3023
44.2855
44.2433
44.1891
44.0794
41.8608
67.3611
64.0839
52.4437
55.275
55.8791
55.7517
51.8252
145.392
96.8202
98.1831
38.2758
17.7471
27.0503
27.2557
-5.35965
0.0120654
4.63272
45.2337
45.1965
45.1606
45.1324
45.1113
45.0962
45.0869
45.0831
45.0857
45.0921
45.1052
45.1238
45.148
45.1775
45.2126
45.2533
45.2997
45.3513
45.4097
45.4828
45.5765
45.6961
45.8305
45.9766
46.0801
46.2081
46.4067
46.6992
46.8597
46.6604
44.8778
43.756
46.7585
42.1893
96.2666
84.4312
43.5449
58.0541
51.4578
37.3124
27.7318
29.7214
29.8414
19.4246
9.79994
6.41619
5.64137
5.13424
4.42845
3.90121
44.1459
44.1361
44.1249
44.1154
44.1081
44.1026
44.0987
44.0963
44.0952
44.0953
44.0965
44.0987
44.1021
44.1074
44.1176
44.1386
44.1592
44.1395
44.1059
43.9526
43.7856
43.6913
43.7082
43.6901
43.7067
43.1427
74.6184
68.2278
73.5124
46.3775
70.7371
93.4884
100.601
45.8197
12.424
8.43173
6.88574
5.6295
14.0083
12.6645
12.918
5.3378
3.90276
3.65929
3.36455
3.22453
3.21751
3.20045
3.14959
3.12843
44.1034
44.0695
44.0383
44.0195
44.0136
44.0194
44.037
44.0663
44.1068
44.1592
44.2251
44.3078
44.4083
44.5051
44.5868
44.4734
44.0357
43.7415
44.0009
32.0204
29.1111
29.715
29.4151
22.9737
23.7029
24.7581
21.3819
14.0667
12.9642
13.5055
12.1072
8.18865
5.93174
5.31073
4.63769
4.14469
3.94549
3.73659
3.48701
3.32753
3.32122
3.28528
3.21773
3.17341
3.1671
3.16696
3.16491
3.16263
3.16087
3.15415
43.3751
43.3634
43.3652
43.3823
43.4129
43.4559
43.5131
43.585
43.676
43.7688
43.811
43.781
43.2902
42.2078
41.9278
33.6991
10.8401
12.7683
7.0204
7.02939
7.0636
5.4879
4.93856
4.82164
4.51978
4.00411
3.7699
3.7505
3.54582
3.32176
3.15734
3.19175
3.28859
3.28797
3.22182
3.17139
3.14269
3.11866
3.10292
3.1059
3.11637
3.12022
3.12007
3.12008
3.12084
3.122
3.12366
3.12512
3.12549
3.12471
35.4684
35.5385
35.5984
35.6334
35.6447
35.6344
35.609
35.5884
35.5764
35.4173
34.5801
32.9085
14.8895
-0.699515
0.239601
3.40985
3.60962
3.72735
3.04738
3.01236
3.06395
3.07994
3.09284
3.08221
3.07791
3.09924
3.11412
3.11258
3.10733
3.11022
3.11662
3.11774
3.11553
3.11296
3.11031
3.10796
3.10648
3.10584
3.10548
3.10522
3.10523
3.10553
3.10605
3.10682
3.10772
3.10855
3.10907
3.10921
3.10887
3.10772
34.8241
34.865
34.8866
34.8716
34.8236
34.7578
34.6778
34.4735
33.7948
32.6166
8.32587
1.08232
1.78275
2.92457
2.98822
3.09064
3.06291
3.04413
3.04962
3.05669
3.05764
3.05754
3.05679
3.05709
3.05737
3.05724
3.05607
3.05346
3.04896
3.04269
3.03507
3.02666
3.0182
3.01033
3.00345
2.99784
2.99338
2.99018
2.98812
2.9868
2.98598
2.98552
2.98538
2.98549
2.98609
2.98696
2.98819
2.98869
2.98886
2.98951
39.549
39.5911
39.631
39.6617
39.6842
39.6991
39.7083
39.7166
39.7212
39.6951
39.5408
39.0895
38.389
12.5966
2.10372
-3.79874
2.65982
2.56659
2.7244
2.84615
2.95927
3.01738
3.00929
3.04356
3.05792
3.05435
3.04927
3.04587
3.04379
3.04113
3.03749
3.03302
3.02797
3.02299
3.01822
3.01436
3.01122
3.00894
3.0073
3.00675
3.00827
3.00718
3.00994
3.01255
3.01574
3.01968
3.02521
3.0308
3.03532
3.03881
47.3783
47.4161
47.4713
47.5357
47.6079
47.6875
47.776
47.8753
47.99
48.12
48.234
48.2448
48.2265
47.8859
47.3364
46.8954
41.6199
41.8138
27.1492
10.0175
0.489417
3.40979
3.68978
3.82518
3.28834
3.24037
3.27186
3.29805
3.32956
3.33999
3.3347
3.33157
3.33131
3.33146
3.33156
3.33181
3.33178
3.33112
3.33001
3.32839
3.3256
3.32241
3.31922
3.31485
3.31024
3.30608
3.31035
3.30994
3.2819
3.27557
47.574
47.6255
47.673
47.7142
47.7523
47.7881
47.8226
47.8554
47.8868
47.9166
47.9448
47.971
47.9965
48.0255
48.056
48.1085
48.0884
48.0921
47.9787
47.7123
47.2086
46.7186
42.682
27.9116
10.3415
0.973354
3.52115
4.33527
4.18639
3.47285
3.44469
3.51026
3.53892
3.5452
3.54452
3.54479
3.54546
3.54552
3.54432
3.54155
3.53753
3.53251
3.52593
3.51913
3.51011
3.50035
3.49053
3.49855
3.46784
3.45614
55.0015
54.9892
54.983
54.9836
54.9892
54.9985
55.0125
55.0306
55.0525
55.0782
55.1075
55.1402
55.1764
55.2163
55.2603
55.3083
55.3604
55.4185
55.4939
55.5903
55.696
55.8026
55.921
55.8761
55.5845
55.0513
49.6025
40.4418
23.4243
7.01828
4.89446
5.2647
4.49824
3.71157
3.63044
3.62116
3.60965
3.60528
3.60325
3.60237
3.60173
3.60028
3.59779
3.594
3.58979
3.58359
3.57651
3.56825
3.56014
3.55064
56.6912
56.6554
56.6144
56.5812
56.5548
56.5356
56.5227
56.516
56.5155
56.5211
56.5327
56.5505
56.5743
56.6041
56.64
56.682
56.7301
56.7843
56.845
56.9126
56.9872
57.0702
57.1641
57.2698
57.3685
57.4505
57.5442
57.6117
57.5719
57.2567
48.3902
40.9036
15.8221
5.65592
5.56134
4.67538
3.96418
3.82057
3.71214
3.65503
3.63938
3.63467
3.63331
3.63323
3.63316
3.63235
3.63049
3.62785
3.62331
3.61788
60.5652
60.5343
60.5097
60.496
60.4901
60.4923
60.5019
60.5184
60.5416
60.5711
60.6065
60.6471
60.6924
60.7417
60.7942
60.8489
60.9049
60.9611
61.0164
61.0694
61.1189
61.1639
61.2027
61.2351
61.2609
61.2823
61.3029
61.3206
61.3121
61.2948
61.2902
61.3179
61.1656
55.9259
44.7255
20.4952
9.63729
7.39755
4.99048
3.8902
3.76634
3.75245
3.75132
3.75188
3.75279
3.75345
3.75344
3.75245
3.75023
3.74642
58.5139
58.488
58.4404
58.3872
58.3326
58.2784
58.2247
58.173
58.125
58.0828
58.0485
58.0243
58.0126
58.0155
58.0352
58.0736
58.1319
58.2109
58.3105
58.427
58.5579
58.6955
58.8325
58.9587
59.0566
59.1195
59.165
59.2204
59.3025
59.4098
59.5178
59.6238
59.7154
59.8889
60.0898
59.6779
56.7637
53.571
29.7537
7.7177
3.97068
3.76647
3.75943
3.7593
3.75972
3.75988
3.75936
3.75781
3.755
3.75086
69.8006
69.7152
69.612
69.476
69.2991
69.0782
68.8109
68.4961
68.1314
67.7148
67.2446
66.7196
66.1394
65.5049
64.819
64.0868
63.3173
62.5218
61.7178
60.9368
60.2173
59.6074
59.153
58.8642
58.7559
58.8473
59.0731
59.3937
59.7875
60.2208
60.5899
60.6033
55.187
50.1265
48.7331
29.1191
8.17171
5.33721
4.9354
4.14023
3.82076
3.76829
3.75502
3.74918
3.74529
3.74131
3.73661
3.73105
3.72474
3.71778
72.2768
72.3683
72.5476
72.8188
73.19
73.6619
74.2335
74.905
75.6754
76.5428
77.5051
78.5578
79.6937
80.9062
82.1815
83.5141
84.8785
86.1735
87.3904
88.5032
89.9149
91.3287
91.1889
89.0786
87.4289
82.5752
73.9492
66.1159
57.0602
47.8889
37.9663
26.1502
12.4393
5.89245
5.98844
5.80674
4.88534
4.24407
4.04727
3.98418
3.95368
3.93712
3.92637
3.91777
3.9101
3.90294
3.89601
3.88923
3.88255
3.87601
3.39699
3.39594
3.39878
3.40195
3.4013
3.39944
3.39609
3.3953
3.39381
3.39219
3.39098
3.38885
3.38718
3.38528
3.38317
3.38085
3.37833
3.37562
3.37273
3.36964
3.36636
3.36289
3.35921
3.35533
3.35125
3.34697
3.34248
3.33778
3.33288
3.32778
3.32247
3.31696
3.31124
3.30533
3.29921
3.2929
3.2864
3.2797
3.27281
3.26573
3.25846
3.25102
3.24339
3.23559
3.22761
3.21947
3.21116
3.20267
3.194
3.18521
3.60984
3.62179
3.59934
3.59975
4.00004
3.39426
3.39826
3.40355
3.4075
3.40783
3.41048
3.41057
3.41025
3.40958
3.40823
3.40648
3.40442
3.40207
3.39942
3.39648
3.39326
3.38978
3.38606
3.38208
3.37788
3.37344
3.36877
3.36389
3.35879
3.35348
3.34796
3.34225
3.33633
3.33021
3.32391
3.31742
3.31074
3.30389
3.29686
3.28965
3.28228
3.27475
3.26705
3.2592
3.2512
3.24305
3.23476
3.22632
3.21774
3.20904
3.72137
3.73676
3.86605
4.05952
4.11805
3.38711
3.39729
3.40076
3.40245
3.40417
3.4054
3.40527
3.40675
3.40832
3.40246
3.40116
3.39901
3.39653
3.39382
3.39088
3.38771
3.38431
3.38066
3.37677
3.37264
3.36828
3.36369
3.35887
3.35383
3.34857
3.34309
3.3374
3.3315
3.3254
3.31909
3.31259
3.3059
3.29902
3.29196
3.28472
3.27732
3.26975
3.26202
3.25414
3.24613
3.23799
3.22966
3.22119
3.21259
3.20388
3.16813
3.2541
3.32172
3.62399
3.69297
3.56136
3.47462
3.43407
3.4193
3.41502
3.41265
3.41009
3.39906
3.39943
3.40808
3.37326
3.37167
3.36847
3.36378
3.35884
3.35399
3.34922
3.34439
3.33946
3.3344
3.32921
3.32387
3.31839
3.31275
3.30696
3.30102
3.29492
3.28866
3.28225
3.27569
3.26897
3.2621
3.25509
3.24793
3.24063
3.23318
3.22561
3.21791
3.21008
3.20212
3.19403
3.18588
3.17762
3.16927
3.16082
6.19301
13.0348
41.5367
30.6523
18.837
9.37945
4.87882
3.61699
3.40782
3.40275
3.42199
3.42563
3.42323
3.41374
3.4191
3.41337
3.31244
3.36117
3.36484
3.2964
3.29556
3.29309
3.28893
3.28445
3.27986
3.2751
3.27014
3.26498
3.25961
3.25405
3.2483
3.24236
3.23624
3.22995
3.22349
3.21686
3.21007
3.20313
3.19604
3.1888
3.18142
3.17392
3.16628
3.15853
3.15066
3.14268
3.1346
3.12642
3.11815
3.1098
3.89875
3.81607
3.7518
3.8219
3.51623
3.14314
2.98805
2.9335
2.99645
2.89829
3.43619
3.13768
3.12837
3.13284
3.13327
3.15078
3.15404
3.2193
3.1469
3.14487
3.14844
3.15096
3.15241
3.15318
3.15336
3.15293
3.15194
3.15043
3.14843
3.14598
3.14312
3.13986
3.13623
3.13227
3.12798
3.12339
3.11852
3.11337
3.10798
3.10235
3.0965
3.09044
3.08418
3.07773
3.07111
3.06434
3.0574
3.05034
3.04316
3.03584
3.17634
3.24125
3.27164
3.16077
3.21263
3.20017
3.04245
3.02303
3.05014
3.08203
3.09704
3.07489
3.03437
3.10597
3.10029
3.1078
3.13963
3.08425
3.07129
3.0693
3.07011
3.07079
3.07116
3.07119
3.07085
3.07012
3.06902
3.06756
3.06574
3.06359
3.06111
3.05832
3.05523
3.05185
3.04821
3.0443
3.04014
3.03574
3.03112
3.02628
3.02124
3.016
3.01057
3.00497
2.99921
2.99328
2.98721
2.98101
2.9747
2.96826
3.16002
3.15066
3.172
3.14424
3.12053
3.11798
3.14553
3.15771
3.15758
3.13658
3.11881
3.10824
3.09907
3.16629
3.13081
3.1408
3.21867
3.00665
3.00776
3.00906
3.00973
3.01013
3.01027
3.01006
3.00948
3.00854
3.00725
3.00564
3.00371
3.00149
2.99899
2.99622
2.99319
2.98992
2.98643
2.98271
2.97878
2.97466
2.97035
2.96585
2.96119
2.95636
2.95138
2.94626
2.94099
2.9356
2.93008
2.92446
2.91874
2.91291
3.12758
3.12692
3.12566
3.12477
3.13022
3.13969
3.25818
3.07258
3.06496
3.05762
3.05313
3.05085
3.06044
3.0666
3.02485
3.09444
2.98355
2.98262
2.98217
2.98111
2.98009
2.97902
2.97774
2.97625
2.97453
2.97257
2.97038
2.96796
2.96533
2.9625
2.95947
2.95625
2.95285
2.94928
2.94554
2.94164
2.9376
2.9334
2.92907
2.92461
2.92002
2.91532
2.9105
2.90558
2.90055
2.89543
2.89022
2.88493
2.87958
2.87415
3.10521
3.10097
3.09541
3.09096
3.18413
3.03447
3.03713
3.03765
3.0346
3.02976
3.02524
3.02672
3.02116
3.01658
3.03874
3.00113
2.99759
2.99455
2.9914
2.98826
2.98508
2.98184
2.97842
2.97493
2.97134
2.96764
2.96384
2.95994
2.95593
2.95183
2.94763
2.94334
2.93896
2.93449
2.92994
2.9253
2.92058
2.91579
2.91092
2.90598
2.90097
2.89589
2.89076
2.88556
2.88031
2.875
2.86965
2.86426
2.85883
2.85336
2.99152
2.99986
3.00045
2.99944
3.00091
3.00146
3.00243
3.00159
3.0006
2.99991
2.99974
2.99936
2.99884
3.00245
2.99733
2.99552
2.99407
2.9924
2.99048
2.98828
2.9858
2.98306
2.98007
2.97686
2.97345
2.96985
2.96608
2.96214
2.95808
2.95383
2.94948
2.94501
2.94044
2.93576
2.93098
2.92611
2.92116
2.91613
2.91102
2.90585
2.90061
2.89531
2.88996
2.88455
2.87909
2.87359
2.86805
2.86248
2.85689
2.85131
3.04033
3.04261
3.0445
3.04594
3.04739
3.04841
3.04935
3.0501
3.05058
3.0507
3.05045
3.04991
3.04877
3.0473
3.04541
3.04321
3.0407
3.03787
3.03474
3.03132
3.02766
3.02376
3.01965
3.01534
3.01085
3.0062
3.0014
2.99646
2.9914
2.98623
2.98095
2.97566
2.97009
2.96454
2.95892
2.95323
2.94747
2.94165
2.93578
2.92986
2.92389
2.91787
2.91182
2.90573
2.8996
2.89345
2.88727
2.88107
2.87489
2.86873
3.2694
3.2631
3.25654
3.24983
3.243
3.23603
3.22893
3.22168
3.21432
3.20686
3.19934
3.19174
3.18387
3.17615
3.16841
3.16064
3.15286
3.14506
3.13724
3.12943
3.1216
3.11377
3.10594
3.09811
3.09028
3.08258
3.07462
3.0668
3.05897
3.05116
3.04335
3.03579
3.02786
3.02005
3.01227
3.00449
2.99672
2.98896
2.98119
2.97344
2.96569
2.95794
2.9502
2.94246
2.93483
2.92696
2.91924
2.9115
2.90401
2.89639
3.44501
3.43341
3.4215
3.40941
3.39724
3.38508
3.37296
3.36094
3.34904
3.33725
3.32558
3.31404
3.30265
3.29125
3.27995
3.26877
3.25768
3.24667
3.23573
3.22487
3.21407
3.20333
3.19265
3.18203
3.17147
3.16106
3.15057
3.14015
3.12979
3.11944
3.10915
3.09913
3.08889
3.07866
3.06849
3.05834
3.0482
3.03809
3.02799
3.0179
3.00782
2.99775
2.98769
2.97764
2.96766
2.95752
2.94754
2.93749
2.92748
2.91755
3.53684
3.5257
3.51414
3.50219
3.48986
3.47724
3.46467
3.45199
3.43945
3.427
3.4146
3.40229
3.39007
3.37788
3.36574
3.35374
3.34139
3.32922
3.31704
3.30484
3.29254
3.28028
3.268
3.2557
3.24337
3.23103
3.21875
3.20633
3.19395
3.1816
3.1692
3.15679
3.14449
3.13199
3.11953
3.10705
3.09456
3.08205
3.06951
3.05695
3.04436
3.03174
3.01909
3.00641
2.9937
2.98102
2.96805
2.95522
2.94232
2.92942
3.6117
3.60421
3.59337
3.58314
3.57243
3.56114
3.54927
3.53693
3.52426
3.51149
3.49836
3.48508
3.47174
3.45834
3.44489
3.43171
3.41812
3.40454
3.39107
3.3776
3.36409
3.35057
3.33701
3.32324
3.30957
3.29585
3.28206
3.26821
3.25438
3.2404
3.22635
3.21226
3.19809
3.18386
3.16964
3.15527
3.14083
3.12634
3.11179
3.09714
3.08256
3.06774
3.05293
3.03806
3.02312
3.00812
2.99307
2.97799
2.96278
2.94756
3.74104
3.73419
3.72748
3.71626
3.70419
3.69106
3.67726
3.66297
3.6482
3.63302
3.61759
3.60197
3.58621
3.57035
3.55446
3.53874
3.52196
3.50585
3.48972
3.47355
3.45736
3.44115
3.42497
3.40879
3.39248
3.3763
3.36017
3.34405
3.32792
3.3118
3.29584
3.27972
3.26357
3.24743
3.23128
3.21511
3.1989
3.18267
3.16642
3.15012
3.13366
3.11725
3.10083
3.08435
3.06783
3.05128
3.03466
3.01795
3.00123
2.98447
3.74543
3.73888
3.73153
3.72464
3.71514
3.70554
3.69578
3.6858
3.67551
3.66497
3.65419
3.6432
3.63197
3.62052
3.6089
3.59696
3.58457
3.57148
3.55836
3.54499
3.53131
3.51731
3.50297
3.48833
3.47339
3.4582
3.44342
3.42757
3.41156
3.39548
3.3792
3.36275
3.34615
3.32945
3.31268
3.29574
3.27868
3.26156
3.24437
3.22711
3.20978
3.19242
3.17504
3.15759
3.14007
3.12252
3.10496
3.0874
3.06981
3.05221
3.71031
3.7025
3.6945
3.6865
3.67859
3.67139
3.66514
3.66
3.65607
3.65323
3.65096
3.64912
3.64767
3.64636
3.64465
3.64223
3.63924
3.63562
3.63126
3.62599
3.61974
3.61247
3.60416
3.59484
3.58454
3.57334
3.56136
3.54879
3.53528
3.52082
3.50558
3.48971
3.47346
3.45684
3.43977
3.4223
3.40451
3.38645
3.36805
3.34928
3.33039
3.3114
3.29221
3.27291
3.25354
3.23404
3.21437
3.19472
3.17508
3.15544
3.86964
3.8635
3.85766
3.85219
3.84718
3.84269
3.83884
3.8354
3.83267
3.83058
3.8294
3.82911
3.82948
3.83011
3.83127
3.83254
3.83359
3.83426
3.83433
3.83377
3.83237
3.8291
3.82473
3.81944
3.81283
3.80449
3.79468
3.78347
3.7707
3.75657
3.74149
3.72546
3.70842
3.69043
3.67155
3.65186
3.63148
3.61048
3.58882
3.56652
3.54377
3.52068
3.49728
3.47361
3.44995
3.42573
3.40132
3.37694
3.35253
3.32811
3.17842
3.17366
3.16882
3.16392
3.15895
3.15391
3.14879
3.14361
3.13835
3.13303
3.12763
3.12216
3.11662
3.11101
3.10533
3.09957
3.09374
3.08784
3.08187
3.07582
3.0697
3.06351
3.05725
3.05092
3.04451
3.03803
3.03148
3.02485
3.01816
3.01139
3.00456
2.99765
2.99067
2.98362
2.97651
2.96932
2.96206
2.95474
2.94735
2.93989
2.93237
2.92478
2.91712
2.9094
2.90162
2.89377
2.88586
2.8779
2.86987
2.86178
2.85363
2.84543
2.83717
2.82886
2.82049
2.81207
2.8036
2.79508
2.78651
2.77789
2.76923
2.76052
2.75177
2.74298
2.73415
2.72529
2.71639
2.70745
2.69848
2.68948
2.68046
2.6714
2.66233
2.65323
2.64411
2.63497
2.62581
2.61665
2.60747
2.59828
2.58908
2.57988
2.57068
2.56147
2.55227
2.54307
2.53388
2.5247
2.51553
2.50638
2.49724
2.48812
2.47902
2.46994
2.46089
2.45187
2.44288
2.43393
2.425
2.41612
2.40728
2.39848
2.38972
2.38101
2.37235
2.36374
2.35518
2.34668
2.33823
2.32985
2.32152
2.31325
2.30505
2.29692
2.28885
2.28084
2.27291
2.26505
2.25726
2.24954
2.2419
2.23433
2.22683
2.21941
2.21206
2.2048
2.1976
2.19049
2.18345
2.17649
2.1696
2.16279
2.15605
2.14939
2.1428
2.13628
2.12984
2.12346
2.11716
2.11092
2.10475
2.09865
2.0926
2.08662
2.0807
2.07483
2.06902
2.06326
2.05755
2.05189
2.04628
2.0407
2.03517
2.02967
2.02421
2.01878
2.01337
2.00799
2.00263
1.9973
1.99197
1.98666
1.98136
1.97606
1.97076
1.96547
1.96017
1.95486
1.94953
1.9442
1.93884
1.93347
1.92807
1.92264
1.91718
1.91168
1.90615
1.90057
1.89495
1.88928
1.88357
1.87779
1.87197
1.86608
1.86013
1.85412
1.84804
1.84189
1.83566
1.82937
1.82299
1.81654
1.81001
1.80339
1.79669
1.78991
1.78304
1.77608
1.76903
1.7619
1.75467
1.74735
1.73993
1.73243
1.72483
1.71714
1.70935
1.70148
1.6935
1.68544
1.67729
1.66905
1.66071
1.65229
1.64378
1.63519
1.62651
1.61775
1.60891
1.59999
1.59099
1.58192
1.57278
1.56357
1.55429
1.54495
1.53555
1.52609
1.51658
1.50701
1.4974
1.48774
1.47804
1.4683
1.45852
1.44872
1.43888
1.42903
1.41915
1.40926
1.39936
1.38946
1.37955
1.36964
1.35973
1.34984
1.33996
1.33011
1.32027
1.31047
1.3007
1.29097
1.28128
1.27165
1.26206
1.25254
1.24308
1.23368
1.22437
1.21513
1.20598
1.19692
1.18796
1.17909
1.17034
1.16169
1.15316
1.14476
1.13648
1.12833
1.12032
1.11245
1.10473
1.09715
1.08973
1.08246
1.07534
1.06838
1.06159
1.05495
1.04847
1.04215
1.03598
1.02997
1.0241
1.01838
1.01279
1.00732
1.00197
0.996729
0.991581
0.986507
0.981481
0.976494
0.971575
0.966731
0.961815
0.956537
0.950981
0.946229
3.2023
3.19756
3.19276
3.18791
3.18299
3.17801
3.17297
3.16787
3.16271
3.15748
3.15219
3.14685
3.14143
3.13596
3.13043
3.12483
3.11917
3.11344
3.10766
3.10181
3.0959
3.08993
3.0839
3.0778
3.07164
3.06542
3.05914
3.05279
3.04639
3.03992
3.0334
3.02681
3.02016
3.01345
3.00668
2.99986
2.99297
2.98603
2.97902
2.97196
2.96484
2.95767
2.95044
2.94315
2.93581
2.92841
2.92096
2.91345
2.90589
2.89829
2.89063
2.88291
2.87515
2.86735
2.85949
2.85158
2.84363
2.83564
2.8276
2.81952
2.81139
2.80323
2.79502
2.78678
2.7785
2.77018
2.76183
2.75344
2.74502
2.73657
2.72809
2.71958
2.71105
2.70249
2.6939
2.6853
2.67667
2.66803
2.65936
2.65068
2.64199
2.63328
2.62456
2.61584
2.6071
2.59836
2.58962
2.58087
2.57213
2.56338
2.55464
2.54591
2.53718
2.52846
2.51974
2.51105
2.50236
2.49369
2.48504
2.47641
2.4678
2.45921
2.45065
2.44212
2.43361
2.42513
2.41668
2.40827
2.39989
2.39154
2.38323
2.37497
2.36674
2.35855
2.35041
2.34231
2.33425
2.32624
2.31828
2.31037
2.30251
2.2947
2.28693
2.27923
2.27157
2.26396
2.25641
2.24892
2.24148
2.23409
2.22676
2.21948
2.21226
2.20509
2.19798
2.19092
2.18392
2.17697
2.17008
2.16323
2.15644
2.1497
2.14301
2.13637
2.12978
2.12324
2.11674
2.11029
2.10388
2.09751
2.09118
2.08489
2.07864
2.07243
2.06624
2.0601
2.05398
2.04789
2.04182
2.03578
2.02977
2.02377
2.01779
2.01183
2.00588
1.99994
1.99401
1.98809
1.98217
1.97625
1.97033
1.96441
1.95849
1.95256
1.94661
1.94066
1.93469
1.92871
1.92271
1.91669
1.91065
1.90458
1.89849
1.89237
1.88622
1.88004
1.87383
1.86758
1.8613
1.85498
1.84863
1.84224
1.8358
1.82933
1.82281
1.81626
1.80966
1.80301
1.79632
1.78959
1.78281
1.77599
1.76912
1.76221
1.75525
1.74825
1.74121
1.73412
1.727
1.71983
1.71262
1.70537
1.69808
1.69076
1.68339
1.67599
1.66856
1.6611
1.6536
1.64607
1.63851
1.63093
1.62332
1.61569
1.60803
1.60036
1.59266
1.58495
1.57723
1.56949
1.56175
1.55399
1.54623
1.53847
1.5307
1.52294
1.51517
1.50741
1.49966
1.49191
1.48417
1.47644
1.46872
1.46101
1.45332
1.44565
1.43799
1.43034
1.42271
1.4151
1.40751
1.39994
1.39239
1.38485
1.37733
1.36983
1.36235
1.35489
1.34745
1.34002
1.33262
1.32522
1.31785
1.31049
1.30315
1.29582
1.28851
1.28121
1.27393
1.26666
1.25941
1.25216
1.24494
1.23772
1.23052
1.22333
1.21616
1.209
1.20186
1.19473
1.18762
1.18052
1.17344
1.16636
1.1593
1.15226
1.14522
1.13819
1.13117
1.12416
1.11715
1.11016
1.10314
1.09605
1.08892
1.08199
1.07533
1.06822
1.05945
1.04961
3.19715
3.19241
3.18762
3.18277
3.17786
3.1729
3.16788
3.1628
3.15767
3.15248
3.14724
3.14194
3.13659
3.13118
3.12571
3.12019
3.11461
3.10898
3.10329
3.09755
3.09176
3.08591
3.08
3.07405
3.06803
3.06197
3.05585
3.04968
3.04346
3.03718
3.03085
3.02447
3.01804
3.01156
3.00503
2.99845
2.99181
2.98513
2.9784
2.97162
2.9648
2.95792
2.951
2.94404
2.93703
2.92997
2.92287
2.91572
2.90853
2.9013
2.89402
2.88671
2.87935
2.87196
2.86452
2.85705
2.84953
2.84198
2.8344
2.82678
2.81912
2.81143
2.80371
2.79595
2.78817
2.78035
2.7725
2.76463
2.75673
2.7488
2.74085
2.73287
2.72487
2.71684
2.7088
2.70074
2.69265
2.68455
2.67643
2.6683
2.66015
2.65199
2.64382
2.63563
2.62744
2.61924
2.61103
2.60281
2.5946
2.58637
2.57815
2.56993
2.5617
2.55348
2.54527
2.53705
2.52885
2.52065
2.51246
2.50428
2.49611
2.48795
2.47981
2.47168
2.46357
2.45548
2.44741
2.43935
2.43132
2.42331
2.41532
2.40736
2.39942
2.39151
2.38363
2.37578
2.36795
2.36016
2.3524
2.34467
2.33697
2.32931
2.32168
2.31409
2.30654
2.29902
2.29154
2.2841
2.2767
2.26933
2.26201
2.25472
2.24747
2.24027
2.2331
2.22597
2.21888
2.21184
2.20483
2.19786
2.19093
2.18405
2.1772
2.17038
2.16361
2.15687
2.15018
2.14351
2.13689
2.13029
2.12374
2.11721
2.11072
2.10426
2.09783
2.09143
2.08506
2.07872
2.0724
2.06611
2.05984
2.0536
2.04738
2.04118
2.03499
2.02883
2.02268
2.01654
2.01042
2.00432
1.99822
1.99213
1.98605
1.97998
1.97391
1.96784
1.96178
1.95572
1.94966
1.9436
1.93754
1.93148
1.92541
1.91933
1.91325
1.90717
1.90107
1.89497
1.88886
1.88274
1.87662
1.87048
1.86433
1.85817
1.852
1.84582
1.83963
1.83343
1.82722
1.82099
1.81476
1.80852
1.80227
1.79601
1.78975
1.78347
1.7772
1.77091
1.76463
1.75834
1.75204
1.74575
1.73946
1.73317
1.72688
1.72059
1.71431
1.70804
1.70177
1.69551
1.68926
1.68302
1.67679
1.67057
1.66437
1.65818
1.65201
1.64585
1.63972
1.6336
1.6275
1.62142
1.61537
1.60933
1.60333
1.59734
1.59138
1.58544
1.57953
1.57364
1.56777
1.56193
1.55611
1.55031
1.54453
1.53876
1.53302
1.52729
1.52156
1.51585
1.51014
1.50444
1.49873
1.49302
1.48729
1.48156
1.4758
1.47002
1.46422
1.45838
1.4525
1.44658
1.44061
1.43458
1.4285
1.42235
1.41613
1.40984
1.40347
1.39701
1.39047
1.38383
1.3771
1.37027
1.36333
1.35629
1.34915
1.3419
1.33455
1.32708
1.31951
1.31183
1.30405
1.29616
1.28816
1.28007
1.27189
1.26362
1.25526
1.24681
1.23832
1.22977
1.22113
1.21233
1.20342
1.19478
1.18669
1.1781
1.16673
1.15278
3.15423
3.14959
3.1449
3.14016
3.13537
3.13054
3.12565
3.12072
3.11574
3.1107
3.10563
3.1005
3.09532
3.0901
3.08483
3.07951
3.07414
3.06873
3.06327
3.05776
3.05221
3.04661
3.04096
3.03527
3.02953
3.02375
3.01793
3.01206
3.00615
3.0002
2.9942
2.98816
2.98208
2.97596
2.96979
2.96359
2.95734
2.95105
2.94473
2.93836
2.93196
2.92551
2.91903
2.91251
2.90595
2.89936
2.89273
2.88606
2.87936
2.87262
2.86585
2.85904
2.8522
2.84533
2.83843
2.83149
2.82453
2.81753
2.8105
2.80345
2.79637
2.78925
2.78212
2.77495
2.76776
2.76055
2.75331
2.74605
2.73877
2.73146
2.72413
2.71679
2.70942
2.70203
2.69463
2.68721
2.67977
2.67232
2.66486
2.65738
2.64988
2.64238
2.63486
2.62734
2.61981
2.61226
2.60471
2.59716
2.5896
2.58203
2.57446
2.56689
2.55932
2.55175
2.54417
2.5366
2.52903
2.52147
2.51391
2.50635
2.49881
2.49126
2.48373
2.47621
2.46869
2.46119
2.4537
2.44622
2.43876
2.43131
2.42388
2.41646
2.40906
2.40168
2.39432
2.38698
2.37966
2.37235
2.36508
2.35782
2.35059
2.34338
2.3362
2.32904
2.32191
2.3148
2.30772
2.30067
2.29365
2.28666
2.27969
2.27275
2.26585
2.25897
2.25212
2.2453
2.23851
2.23176
2.22503
2.21833
2.21167
2.20503
2.19843
2.19185
2.18531
2.1788
2.17231
2.16586
2.15943
2.15304
2.14667
2.14033
2.13402
2.12774
2.12148
2.11525
2.10904
2.10286
2.09671
2.09058
2.08447
2.07839
2.07232
2.06628
2.06026
2.05426
2.04828
2.04232
2.03638
2.03045
2.02454
2.01865
2.01277
2.00691
2.00106
1.99522
1.9894
1.98359
1.97779
1.972
1.96622
1.96045
1.95469
1.94895
1.94321
1.93748
1.93175
1.92604
1.92034
1.91464
1.90896
1.90328
1.89762
1.89196
1.88631
1.88068
1.87505
1.86944
1.86384
1.85825
1.85268
1.84712
1.84157
1.83605
1.83053
1.82504
1.81957
1.81411
1.80868
1.80327
1.79788
1.79252
1.78719
1.78188
1.7766
1.77135
1.76613
1.76094
1.75578
1.75066
1.74557
1.74051
1.73549
1.73051
1.72557
1.72066
1.71579
1.71095
1.70616
1.7014
1.69668
1.692
1.68736
1.68276
1.67819
1.67366
1.66916
1.6647
1.66028
1.65588
1.65151
1.64717
1.64285
1.63856
1.63428
1.63002
1.62578
1.62154
1.6173
1.61306
1.60881
1.60455
1.60027
1.59597
1.59163
1.58726
1.58283
1.57836
1.57381
1.5692
1.56451
1.55973
1.55485
1.54986
1.54476
1.53954
1.53418
1.52868
1.52303
1.51722
1.51124
1.50509
1.49876
1.49224
1.48553
1.47862
1.47151
1.4642
1.45669
1.44897
1.44105
1.43292
1.4246
1.41607
1.40735
1.39844
1.38935
1.38009
1.37066
1.36109
1.35139
1.3416
1.33166
1.3215
1.31116
1.30113
1.29179
1.28194
1.26866
1.25191
3.10332
3.09876
3.09414
3.08948
3.08477
3.08003
3.07524
3.0704
3.06553
3.06061
3.05565
3.05065
3.04561
3.04052
3.0354
3.03023
3.02503
3.01978
3.0145
3.00917
3.00381
2.99841
2.99297
2.98749
2.98197
2.97642
2.97082
2.96519
2.95952
2.95382
2.94808
2.9423
2.93649
2.93064
2.92476
2.91884
2.91289
2.90691
2.90089
2.89484
2.88876
2.88265
2.8765
2.87033
2.86412
2.85789
2.85163
2.84534
2.83902
2.83267
2.8263
2.8199
2.81348
2.80703
2.80056
2.79406
2.78754
2.781
2.77444
2.76785
2.76124
2.75462
2.74797
2.7413
2.73462
2.72792
2.7212
2.71446
2.70771
2.70095
2.69416
2.68737
2.68056
2.67374
2.6669
2.66006
2.6532
2.64634
2.63946
2.63258
2.62568
2.61878
2.61188
2.60497
2.59805
2.59113
2.5842
2.57727
2.57034
2.56341
2.55648
2.54954
2.54261
2.53568
2.52875
2.52182
2.5149
2.50798
2.50107
2.49416
2.48726
2.48036
2.47347
2.4666
2.45973
2.45287
2.44602
2.43919
2.43236
2.42555
2.41876
2.41197
2.40521
2.39846
2.39172
2.385
2.3783
2.37162
2.36496
2.35831
2.35169
2.34509
2.33851
2.33194
2.32541
2.31889
2.31239
2.30592
2.29948
2.29305
2.28665
2.28027
2.27392
2.2676
2.26129
2.25502
2.24877
2.24254
2.23634
2.23017
2.22402
2.2179
2.2118
2.20573
2.19969
2.19367
2.18768
2.18172
2.17578
2.16987
2.16399
2.15813
2.15229
2.14648
2.1407
2.13494
2.1292
2.12349
2.1178
2.11214
2.1065
2.10088
2.09529
2.08972
2.08417
2.07864
2.07313
2.06765
2.06218
2.05674
2.05132
2.04592
2.04054
2.03517
2.02983
2.02451
2.0192
2.01392
2.00865
2.0034
1.99817
1.99296
1.98777
1.98259
1.97744
1.9723
1.96718
1.96208
1.957
1.95194
1.9469
1.94188
1.93688
1.9319
1.92695
1.92201
1.9171
1.91222
1.90736
1.90252
1.89771
1.89293
1.88818
1.88346
1.87876
1.8741
1.86947
1.86487
1.8603
1.85577
1.85128
1.84682
1.8424
1.83802
1.83368
1.82938
1.82512
1.8209
1.81673
1.8126
1.80852
1.80447
1.80048
1.79653
1.79262
1.78876
1.78495
1.78118
1.77746
1.77378
1.77014
1.76654
1.76299
1.75948
1.756
1.75257
1.74917
1.7458
1.74246
1.73915
1.73587
1.7326
1.72936
1.72613
1.72292
1.71971
1.7165
1.71328
1.71006
1.70682
1.70356
1.70028
1.69695
1.69359
1.69017
1.68669
1.68314
1.67951
1.6758
1.67199
1.66807
1.66403
1.65986
1.65555
1.65109
1.64647
1.64167
1.63668
1.63149
1.6261
1.62049
1.61465
1.60857
1.60225
1.59567
1.58883
1.58172
1.57434
1.56669
1.55876
1.55055
1.54207
1.53332
1.5243
1.51501
1.50547
1.49569
1.48566
1.47541
1.46495
1.45432
1.44355
1.43259
1.42136
1.40993
1.39878
1.38833
1.37737
1.36285
1.34468
3.03009
3.02601
3.02188
3.01771
3.01348
3.00921
3.00489
3.00053
2.99612
2.99167
2.98717
2.98263
2.97805
2.97343
2.96876
2.96405
2.9593
2.95452
2.94969
2.94482
2.93992
2.93498
2.93
2.92498
2.91993
2.91484
2.90972
2.90456
2.89937
2.89414
2.88888
2.88359
2.87827
2.87292
2.86754
2.86212
2.85668
2.8512
2.8457
2.84017
2.83462
2.82903
2.82342
2.81779
2.81212
2.80644
2.80072
2.79499
2.78923
2.78344
2.77764
2.77181
2.76596
2.76009
2.75419
2.74828
2.74234
2.73639
2.73042
2.72443
2.71842
2.71239
2.70635
2.70029
2.69421
2.68813
2.68202
2.67591
2.66978
2.66364
2.65748
2.65132
2.64514
2.63896
2.63276
2.62656
2.62035
2.61413
2.60791
2.60167
2.59544
2.5892
2.58295
2.5767
2.57045
2.56419
2.55794
2.55168
2.54542
2.53917
2.53291
2.52666
2.5204
2.51416
2.50791
2.50167
2.49543
2.48921
2.48298
2.47677
2.47056
2.46436
2.45817
2.45198
2.44581
2.43965
2.4335
2.42737
2.42124
2.41513
2.40904
2.40295
2.39689
2.39084
2.3848
2.37878
2.37278
2.3668
2.36083
2.35489
2.34896
2.34306
2.33717
2.3313
2.32546
2.31964
2.31384
2.30806
2.3023
2.29657
2.29086
2.28517
2.27951
2.27387
2.26826
2.26267
2.2571
2.25156
2.24604
2.24055
2.23508
2.22964
2.22423
2.21884
2.21347
2.20813
2.20281
2.19752
2.19226
2.18702
2.1818
2.17661
2.17144
2.1663
2.16118
2.15608
2.15101
2.14596
2.14094
2.13594
2.13096
2.12601
2.12108
2.11617
2.11128
2.10642
2.10158
2.09676
2.09197
2.08719
2.08244
2.07772
2.07301
2.06833
2.06366
2.05902
2.05441
2.04981
2.04524
2.04069
2.03616
2.03165
2.02717
2.02271
2.01827
2.01385
2.00946
2.00509
2.00075
1.99643