/*--------------------------------*- C++ -*----------------------------------*\
| =========                 |                                                 |
| \\      /  F ield         | OpenFOAM: The Open Source CFD Toolbox           |
|  \\    /   O peration     | Version:  2.4.0                                 |
|   \\  /    A nd           | Web:      www.OpenFOAM.org                      |
|    \\/     M anipulation  |                                                 |
\*---------------------------------------------------------------------------*/
FoamFile
{
    version     2.0;
    format      ascii;
    class       surfaceScalarField;
    location    "4";
    object      phi;
}
// * * * * * * * * * * * * * * * * * * * * * * * * * * * * * * * * * * * * * //

dimensions      [0 3 -1 0 0 0 0];

internalField   nonuniform List<scalar> 
15580
(
-5.48653e-13
-1.74322e-12
-1.81283e-12
-5.00233e-12
-3.57574e-12
-7.96703e-12
-5.70042e-12
-1.06113e-11
-8.05335e-12
-1.29421e-11
-1.05071e-11
-1.49628e-11
-1.2941e-11
-1.66763e-11
-1.52416e-11
-1.80851e-11
-1.73017e-11
-1.91928e-11
-1.90183e-11
-2.0003e-11
-2.02922e-11
-2.05206e-11
-2.10243e-11
-2.07498e-11
-2.11157e-11
-2.06965e-11
-2.04621e-11
-2.03645e-11
-1.89577e-11
-1.97594e-11
-1.64769e-11
-1.88837e-11
-1.2885e-11
-1.7742e-11
-8.02891e-12
-1.63349e-11
-1.79358e-12
-1.4666e-11
6.15475e-12
-1.27295e-11
1.62981e-11
-1.05216e-11
2.74547e-11
-8.0305e-12
4.08218e-11
-5.29285e-12
5.39573e-11
-2.01559e-12
6.92812e-11
1.67037e-12
1.06513e-10
4.1137e-12
9.8546e-11
7.27211e-12
1.04766e-10
8.75098e-12
1.07978e-10
1.66819e-11
7.41885e-11
1.02448e-11
2.1822e-11
-8.39322e-12
-5.45731e-13
1.10396e-11
-7.6203e-12
-6.02425e-13
-5.97963e-11
-7.68207e-12
-1.75774e-10
-8.08787e-13
-2.66684e-10
4.67635e-12
-3.07391e-10
-1.41848e-11
-4.02098e-10
-3.87731e-11
-6.44179e-10
-6.05427e-11
-8.63468e-10
-9.85996e-11
-8.76353e-10
-2.0359e-10
-8.60777e-10
-1.23059e-10
-7.83588e-10
-1.10088e-10
-6.26395e-10
-1.12203e-10
-6.4673e-10
-1.2276e-10
-7.72609e-10
-1.48106e-10
-1.06365e-09
-1.89105e-10
-1.47778e-09
-2.37567e-10
-1.97301e-09
-2.88069e-10
-3.89416e-10
-2.48075e-09
-3.91521e-13
-1.3517e-12
-1.63509e-12
-3.75876e-12
-3.67005e-12
-5.93207e-12
-6.37665e-12
-7.90468e-12
-9.63966e-12
-9.67907e-12
-1.3347e-11
-1.12555e-11
-1.73889e-11
-1.26343e-11
-2.16584e-11
-1.38157e-11
-2.60507e-11
-1.48005e-11
-3.04635e-11
-1.55902e-11
-3.47968e-11
-1.61872e-11
-3.89517e-11
-1.6595e-11
-4.28303e-11
-1.68179e-11
-4.63339e-11
-1.68609e-11
-4.93635e-11
-1.67298e-11
-5.18159e-11
-1.64313e-11
-5.35861e-11
-1.59718e-11
-5.45614e-11
-1.53596e-11
-5.46261e-11
-1.46013e-11
-5.36487e-11
-1.37069e-11
-5.14884e-11
-1.26819e-11
-4.79825e-11
-1.15364e-11
-4.30061e-11
-1.02692e-11
-3.61233e-11
-8.89836e-12
-2.70257e-11
-7.42728e-12
-1.70314e-11
-5.88064e-12
-5.52022e-12
-4.23902e-12
5.38225e-12
-2.326e-12
1.77453e-11
-1.385e-12
1.5649e-11
-4.41826e-13
6.85974e-12
2.66018e-13
1.62237e-11
1.63286e-12
1.14714e-11
4.13707e-12
4.80356e-13
3.30902e-12
-1.68357e-12
1.35514e-12
1.15941e-12
1.83337e-12
-1.86569e-11
5.63144e-12
-6.22053e-11
4.77533e-12
-1.26362e-10
3.6144e-12
-2.22893e-10
-2.06892e-12
-4.17112e-10
-9.37151e-12
-5.20806e-10
-1.9365e-11
-6.05391e-10
-2.55035e-11
-6.95139e-10
-2.24545e-11
-7.77799e-10
-4.00997e-11
-8.65891e-10
-6.00146e-11
-9.68719e-10
-8.62771e-11
-1.06418e-09
-1.42104e-10
-1.17688e-09
-1.75368e-10
2.20485e-11
-1.58835e-09
-6.58389e-13
-6.93314e-13
-2.34357e-12
-2.07358e-12
-4.89093e-12
-3.38471e-12
-8.19983e-12
-4.59578e-12
-1.21748e-11
-5.7041e-12
-1.67244e-11
-6.70585e-12
-2.17607e-11
-7.5981e-12
-2.71981e-11
-8.37826e-12
-3.29539e-11
-9.04479e-12
-3.89471e-11
-9.59694e-12
-4.50994e-11
-1.00349e-11
-5.13345e-11
-1.03599e-11
-5.75786e-11
-1.05738e-11
-6.376e-11
-1.06794e-11
-6.98096e-11
-1.06802e-11
-7.56606e-11
-1.05803e-11
-8.12478e-11
-1.03846e-11
-8.65092e-11
-1.00982e-11
-9.13833e-11
-9.72723e-12
-9.58123e-11
-9.27787e-12
-9.97372e-11
-8.75707e-12
-1.03102e-10
-8.17199e-12
-1.0584e-10
-7.53052e-12
-1.07898e-10
-6.84076e-12
-1.09214e-10
-6.11147e-12
-1.09743e-10
-5.35111e-12
-1.09412e-10
-4.57018e-12
-1.07963e-10
-3.77467e-12
-1.06376e-10
-2.97231e-12
-1.04656e-10
-2.16155e-12
-1.0322e-10
-1.22413e-12
-1.01496e-10
-3.54463e-13
-9.91964e-11
2.94504e-13
-9.85412e-11
4.30487e-13
-9.66401e-11
-5.46049e-13
-9.54836e-11
6.74628e-13
-9.13387e-11
1.48652e-12
-8.70409e-11
4.76585e-13
-8.24062e-11
-1.02021e-12
-8.27752e-11
-1.69992e-12
-8.90879e-11
-3.05882e-12
-1.03323e-10
-5.12997e-12
-1.20033e-10
-8.79368e-12
-1.27923e-10
-1.45642e-11
-1.332e-10
-3.48226e-11
-1.50834e-10
-4.23811e-11
-2.22045e-10
-1.50662e-11
-3.47449e-10
-1.66997e-11
-5.39823e-10
1.7006e-11
9.45401e-11
-6.12314e-10
-7.44749e-14
-6.18839e-13
-4.02493e-13
-1.74556e-12
-1.00522e-12
-2.78198e-12
-1.86125e-12
-3.73975e-12
-2.94526e-12
-4.6201e-12
-4.22872e-12
-5.42239e-12
-5.68099e-12
-6.14583e-12
-7.26994e-12
-6.7893e-12
-8.96274e-12
-7.352e-12
-1.07264e-11
-7.83328e-12
-1.25284e-11
-8.23293e-12
-1.43371e-11
-8.55116e-12
-1.61225e-11
-8.78845e-12
-1.78563e-11
-8.94558e-12
-1.95131e-11
-9.0234e-12
-2.10706e-11
-9.02288e-12
-2.25101e-11
-8.94512e-12
-2.38173e-11
-8.79101e-12
-2.4983e-11
-8.56153e-12
-2.60038e-11
-8.25707e-12
-2.68828e-11
-7.87808e-12
-2.76311e-11
-7.42366e-12
-2.82689e-11
-6.89266e-12
-2.88282e-11
-6.28155e-12
-2.93513e-11
-5.58832e-12
-2.98954e-11
-4.80702e-12
-3.05311e-11
-3.93444e-12
-3.13447e-11
-2.96109e-12
-3.24375e-11
-1.87952e-12
-3.39136e-11
-6.85466e-13
-3.5769e-11
6.31291e-13
-3.81783e-11
2.0548e-12
-4.16427e-11
3.65251e-12
-4.85235e-11
5.52482e-12
-5.54869e-11
6.41197e-12
-5.6394e-11
1.58168e-12
-5.27836e-11
-2.12387e-12
-4.77663e-11
-4.54075e-12
-4.25122e-11
-6.2754e-12
-3.79889e-11
-6.22327e-12
-3.28254e-11
-8.22225e-12
-2.65087e-11
-1.14467e-11
-3.0231e-11
-5.07138e-12
-2.90113e-11
-1.57838e-11
-3.33301e-11
-3.05037e-11
-3.47087e-11
-4.10026e-11
-2.152e-11
-2.82549e-11
-4.92593e-11
1.10396e-11
-6.99918e-11
3.77385e-11
1.24553e-10
-1.00005e-10
-9.95041e-15
-6.08888e-13
-4.12733e-14
-1.71424e-12
-8.88715e-14
-2.73438e-12
-1.45083e-13
-3.68353e-12
-2.01e-13
-4.56418e-12
-2.45466e-13
-5.37792e-12
-2.64923e-13
-6.12638e-12
-2.43366e-13
-6.81086e-12
-1.62711e-13
-7.43265e-12
-3.12665e-15
-7.99287e-12
2.56471e-13
-8.49253e-12
6.37907e-13
-8.93259e-12
1.16343e-12
-9.31398e-12
1.85538e-12
-9.63753e-12
2.73598e-12
-9.904e-12
3.82705e-12
-1.0114e-11
5.14986e-12
-1.02679e-11
6.72541e-12
-1.03666e-11
8.57367e-12
-1.04098e-11
1.07176e-11
-1.0401e-11
1.31823e-11
-1.03428e-11
1.59954e-11
-1.02368e-11
1.91828e-11
-1.00801e-11
2.27641e-11
-9.86282e-12
2.67506e-11
-9.57485e-12
3.11588e-11
-9.21517e-12
3.60682e-11
-8.84387e-12
4.10311e-11
-7.92395e-12
4.55119e-11
-6.36036e-12
4.86685e-11
-3.84208e-12
5.0124e-11
-8.39148e-13
5.05798e-11
1.62779e-12
4.58715e-11
5.48539e-12
4.10413e-11
1.03455e-11
3.30469e-11
1.44063e-11
2.5761e-11
8.86763e-12
2.55087e-11
-1.87166e-12
3.26042e-11
-1.16362e-11
3.57285e-11
-9.39974e-12
3.38741e-11
-4.37033e-12
1.66018e-11
9.05012e-12
1.18071e-11
-6.65204e-12
3.11837e-11
-2.4448e-11
3.47243e-11
-1.93244e-11
2.36822e-11
-1.94616e-11
1.18611e-13
-1.7439e-11
-3.16118e-12
-2.49751e-11
4.7111e-11
-3.92325e-11
1.31485e-10
-4.66355e-11
-6.00639e-11
3.16102e-10
-4.2521e-13
-1.83679e-13
-1.52182e-12
-6.17621e-13
-3.17542e-12
-1.08079e-12
-5.30697e-12
-1.55198e-12
-7.84556e-12
-2.02559e-12
-1.07274e-11
-2.49613e-12
-1.38952e-11
-2.9585e-12
-1.72982e-11
-3.40791e-12
-2.0891e-11
-3.83981e-12
-2.46342e-11
-4.24971e-12
-2.84935e-11
-4.63322e-12
-3.24402e-11
-4.9859e-12
-3.6451e-11
-5.30314e-12
-4.05081e-11
-5.58048e-12
-4.45993e-11
-5.81282e-12
-4.87149e-11
-5.99835e-12
-5.28465e-11
-6.13632e-12
-5.69916e-11
-6.22149e-12
-6.11615e-11
-6.2398e-12
-6.52385e-11
-6.32408e-12
-6.90069e-11
-6.57429e-12
-7.20219e-11
-7.22183e-12
-7.41632e-11
-7.93878e-12
-7.49473e-11
-9.07874e-12
-7.53261e-11
-9.19603e-12
-7.53046e-11
-9.2367e-12
-7.44641e-11
-1.00674e-11
-7.06654e-11
-1.18091e-11
-6.5202e-11
-1.19103e-11
-6.1026e-11
-8.5492e-12
-6.56935e-11
-3.03204e-12
-6.31365e-11
-9.76141e-13
-4.40272e-11
-1.36239e-11
-2.22094e-11
-1.14722e-11
-6.90129e-12
-9.01829e-13
3.54849e-12
-1.58214e-12
2.67266e-11
-2.50505e-11
7.7109e-11
-6.20189e-11
1.0618e-10
-3.84718e-11
1.44051e-10
-4.22416e-11
2.09412e-10
-5.63105e-11
2.40247e-10
-3.74867e-11
2.62204e-10
-4.64052e-11
2.87698e-10
-4.4819e-11
3.14528e-10
-4.62908e-11
3.45526e-10
-4.84379e-11
3.75085e-10
-5.45334e-11
4.00106e-10
-6.42534e-11
4.25828e-10
-7.23578e-11
-5.79228e-11
4.23687e-10
-7.13008e-14
-1.12378e-13
-3.24175e-13
-3.64746e-13
-7.41953e-13
-6.63016e-13
-1.27875e-12
-1.01518e-12
-1.88445e-12
-1.41989e-12
-2.50621e-12
-1.87436e-12
-3.08994e-12
-2.37476e-12
-3.5818e-12
-2.91605e-12
-3.92959e-12
-3.49202e-12
-4.08369e-12
-4.09561e-12
-3.99784e-12
-4.71907e-12
-3.62967e-12
-5.35407e-12
-2.93395e-12
-5.99887e-12
-1.86098e-12
-6.65344e-12
-3.69539e-13
-7.30426e-12
1.67627e-12
-8.04416e-12
4.58971e-12
-9.04976e-12
7.53638e-12
-9.16816e-12
1.08327e-11
-9.53614e-12
1.22763e-11
-7.89961e-12
1.19929e-11
-6.79844e-12
1.06808e-11
-6.4604e-12
1.0373e-11
-8.40536e-12
8.62079e-12
-8.42469e-12
9.43452e-12
-1.28315e-11
6.04612e-12
-7.41006e-12
-1.4892e-11
2.79906e-12
-1.80188e-11
-8.85405e-12
-2.00426e-11
-9.97895e-12
-2.72195e-11
-1.41483e-12
-3.72532e-11
7.00171e-12
-4.75175e-11
9.28817e-12
-3.04013e-12
-5.81013e-11
5.68945e-11
-7.14069e-11
1.14952e-10
-5.89589e-11
1.67459e-10
-5.40893e-11
1.9783e-10
-5.54217e-11
1.86068e-10
-5.02565e-11
1.60797e-10
-1.32016e-11
1.47931e-10
-2.93748e-11
2.08185e-10
-1.16565e-10
2.81173e-10
-1.10475e-10
3.37766e-10
-1.02997e-10
3.76402e-10
-8.34551e-11
3.85058e-10
-5.4947e-11
3.69583e-10
-3.29633e-11
3.44098e-10
-2.9048e-11
2.81229e-10
-1.38472e-12
1.22082e-10
8.67901e-11
1.74555e-10
-1.10396e-10
-3.92247e-13
2.79869e-13
-1.43391e-12
6.76922e-13
-2.9557e-12
8.58772e-13
-4.77403e-12
8.03144e-13
-6.7091e-12
5.15178e-13
-8.58671e-12
3.25218e-15
-1.02248e-11
-7.36654e-13
-1.1451e-11
-1.68989e-12
-1.20878e-11
-2.85518e-12
-1.19577e-11
-4.2257e-12
-1.08731e-11
-5.80365e-12
-8.63456e-12
-7.59266e-12
-4.86006e-12
-9.77337e-12
1.59191e-13
-1.16727e-11
6.64439e-12
-1.37895e-11
1.34539e-11
-1.51977e-11
1.58575e-11
-1.71127e-11
1.5483e-11
-3.10421e-11
1.56716e-11
-2.54373e-11
2.97892e-11
-2.92102e-11
3.80106e-11
-1.54879e-11
3.7385e-11
-6.18072e-12
4.81894e-11
-1.94648e-11
5.34983e-11
-1.39041e-11
3.96425e-11
9.29079e-13
4.93998e-11
-1.72123e-11
8.85297e-11
-3.63309e-11
1.096e-10
-2.99242e-11
1.21297e-10
-2.16761e-11
1.49118e-10
-2.92361e-11
2.5045e-10
-9.43305e-11
3.53368e-10
-9.36294e-11
4.02048e-10
-1.06781e-10
4.63234e-10
-1.32592e-10
5.33763e-10
-1.29488e-10
5.81346e-10
-1.01673e-10
5.98187e-10
-7.22626e-11
6.25286e-10
-7.73555e-11
6.9667e-10
-8.45856e-11
7.32299e-10
-6.50033e-11
6.72671e-10
-5.69371e-11
6.50109e-10
-8.79132e-11
6.47913e-10
-1.00802e-10
6.67244e-10
-1.02785e-10
6.92865e-10
-8.05685e-11
6.93056e-10
-3.31548e-11
6.3154e-10
3.24684e-11
4.89905e-10
1.4025e-10
2.90619e-10
2.86076e-10
4.65093e-10
8.01446e-14
-3.51481e-13
6.3135e-13
-9.25233e-13
1.25067e-12
-1.43376e-12
1.3673e-12
-1.68109e-12
1.05047e-12
-1.46393e-12
2.98021e-13
-5.76948e-13
-8.83733e-13
1.19909e-12
-2.51269e-12
4.10948e-12
-4.60028e-12
8.42755e-12
-7.17326e-12
1.44555e-11
-1.02537e-11
2.07196e-11
-1.20678e-11
2.72413e-11
-1.41143e-11
3.09175e-11
-1.50394e-11
2.10847e-11
-2.15755e-11
8.9977e-12
-2.50791e-11
-7.33836e-13
-3.29296e-11
1.76176e-11
-3.57928e-11
9.26221e-12
-2.27827e-11
-3.37146e-11
1.75092e-11
-4.01788e-11
-2.27459e-11
-7.02053e-11
1.45386e-11
-4.7746e-11
-2.864e-11
-7.46687e-11
7.45785e-12
-5.95107e-11
-2.90621e-11
-8.29344e-12
-5.02882e-11
3.17049e-11
-5.72106e-11
3.9655e-11
-4.4281e-11
1.10883e-10
-1.01152e-10
2.51128e-10
-1.61922e-10
4.17618e-10
-1.95726e-10
5.46804e-10
-2.23517e-10
7.1751e-10
-2.64335e-10
8.69527e-10
-2.58798e-10
9.79063e-10
-2.42128e-10
1.07664e-09
-2.27066e-10
1.18829e-09
-2.13322e-10
1.32051e-09
-2.04483e-10
1.43853e-09
-1.95371e-10
1.55364e-09
-1.99705e-10
1.69321e-09
-2.04572e-10
1.83116e-09
-1.94886e-10
1.92849e-09
-1.85245e-10
1.99986e-09
-1.72173e-10
2.03739e-09
-1.40311e-10
2.02924e-09
-7.24223e-11
1.95558e-09
4.05065e-11
1.79436e-09
1.93687e-10
1.53721e-09
3.97408e-10
1.1852e-09
6.38088e-10
8.85528e-10
7.64761e-10
9.24126e-13
-2.92776e-13
3.14595e-12
-9.71154e-13
6.27622e-12
-1.76297e-12
1.00094e-11
-2.68268e-12
1.40443e-11
-3.73693e-12
1.80983e-11
-4.93773e-12
2.18805e-11
-6.29482e-12
2.51018e-11
-7.82163e-12
2.74474e-11
-9.51889e-12
2.85998e-11
-1.1406e-11
2.33191e-11
-1.88606e-11
9.90025e-12
-1.38095e-11
-1.02701e-10
2.18141e-11
-1.15509e-10
-9.20297e-12
-2.68498e-10
1.27801e-10
-3.14894e-10
1.34663e-11
-2.97267e-10
-5.34198e-11
-3.38067e-10
1.80171e-11
-4.78619e-10
1.58061e-10
-6.59393e-10
1.58029e-10
-7.25752e-10
8.08966e-11
-7.29315e-10
-2.50766e-11
-5.46057e-10
-1.758e-10
-2.72984e-10
-3.02135e-10
1.23635e-10
-4.46906e-10
6.40023e-10
-5.73599e-10
1.29452e-09
-6.98781e-10
1.98509e-09
-7.91718e-10
2.70672e-09
-8.83555e-10
3.45222e-09
-9.41225e-10
4.18547e-09
-9.56768e-10
4.85708e-09
-9.35946e-10
5.47263e-09
-8.74347e-10
6.01489e-09
-7.84382e-10
6.47106e-09
-6.83234e-10
6.84088e-09
-5.83142e-10
7.12438e-09
-4.87986e-10
7.32606e-09
-3.97053e-10
7.43163e-09
-3.05276e-10
7.43171e-09
-2.04646e-10
7.32894e-09
-9.2124e-11
7.1097e-09
3.39948e-11
6.7467e-09
1.90827e-10
6.24747e-09
3.58924e-10
5.62959e-09
5.45457e-10
4.91567e-09
7.54427e-10
4.12196e-09
9.87392e-10
3.28683e-09
1.23254e-09
2.46435e-09
1.46057e-09
1.65302e-09
1.69686e-09
7.04738e-13
-9.97514e-13
2.25895e-12
-2.52537e-12
4.10327e-12
-3.60729e-12
5.67598e-12
-4.25539e-12
6.40251e-12
-4.46346e-12
5.68745e-12
-4.22268e-12
2.90689e-12
-3.51426e-12
-2.58603e-12
-2.32871e-12
-1.1457e-11
-6.47894e-13
-4.30388e-11
1.53212e-12
-1.46108e-10
7.99092e-12
-2.17564e-10
5.67368e-11
-1.89115e-10
-7.89091e-12
-2.25172e-10
2.68539e-11
-1.0729e-10
9.91967e-12
-1.0233e-10
8.50553e-12
-2.14628e-10
5.88782e-11
-2.18049e-10
2.14387e-11
-2.0564e-10
1.45652e-10
-2.21027e-10
1.73415e-10
-3.51468e-10
2.11338e-10
-3.34714e-10
-4.18308e-11
-2.77516e-10
-2.32998e-10
-1.59783e-10
-4.19868e-10
8.07578e-11
-6.87447e-10
5.07929e-10
-1.00077e-09
1.08345e-09
-1.27431e-09
1.76845e-09
-1.47672e-09
2.49402e-09
-1.60912e-09
3.22788e-09
-1.67509e-09
3.92945e-09
-1.65834e-09
4.54261e-09
-1.54911e-09
5.03515e-09
-1.36688e-09
5.38932e-09
-1.13856e-09
5.59714e-09
-8.91053e-10
5.65605e-09
-6.42045e-10
5.56815e-09
-4.00086e-10
5.33912e-09
-1.6803e-10
4.97355e-09
6.02973e-11
4.47112e-09
2.97783e-10
3.84737e-09
5.31627e-10
3.11319e-09
7.68173e-10
2.29816e-09
1.00586e-09
1.4203e-09
1.23679e-09
5.11188e-10
1.45457e-09
-3.86363e-10
1.65198e-09
-1.22551e-09
1.82654e-09
-1.98136e-09
1.98838e-09
-2.64772e-09
2.12694e-09
2.21621e-09
-3.21092e-09
4.82449e-13
-1.47996e-12
1.70962e-12
-3.75254e-12
3.53394e-12
-5.43161e-12
5.84558e-12
-6.56703e-12
8.53885e-12
-7.15673e-12
1.15078e-11
-7.19167e-12
1.46522e-11
-6.65865e-12
1.78667e-11
-5.54314e-12
2.10398e-11
-3.82099e-12
2.40377e-11
-1.46588e-12
2.51913e-11
1.69548e-12
2.54531e-11
2.77488e-12
1.28009e-11
4.72953e-12
-1.02261e-11
3.66957e-12
-9.29708e-12
8.33666e-12
2.40843e-12
-4.40623e-12
-5.24688e-11
1.13755e-10
-2.95631e-11
-1.46699e-12
-3.2703e-12
1.1936e-10
1.56375e-10
1.37694e-11
-4.11971e-11
4.0891e-10
-3.46234e-11
-4.84045e-11
-1.72737e-10
-9.48844e-11
-5.09631e-10
-8.29739e-11
-9.99436e-10
-1.97643e-10
-1.56683e-09
-4.33375e-10
-2.1966e-09
-6.44542e-10
-2.77967e-09
-8.93643e-10
-3.25407e-09
-1.13471e-09
-3.55407e-09
-1.3751e-09
-3.68485e-09
-1.52756e-09
-3.74195e-09
-1.492e-09
-3.81224e-09
-1.29659e-09
-3.93913e-09
-1.01167e-09
-4.14902e-09
-6.81164e-10
-4.45716e-09
-3.33905e-10
-4.87546e-09
1.82144e-11
-5.34369e-09
3.00202e-10
-5.85282e-09
5.69424e-10
-6.37093e-09
8.15896e-10
-6.88371e-09
1.04441e-09
-7.37967e-09
1.26413e-09
-7.85136e-09
1.47755e-09
-8.29032e-09
1.67575e-09
-8.68881e-09
1.85306e-09
-9.03315e-09
1.99632e-09
-9.30736e-09
2.10075e-09
-9.5052e-09
2.18623e-09
-9.65122e-09
2.27296e-09
2.37968e-09
-9.81469e-09
9.99593e-14
-1.57992e-12
8.65988e-13
-4.51857e-12
2.53416e-12
-7.09978e-12
5.24162e-12
-9.27449e-12
9.14051e-12
-1.10556e-11
1.43947e-11
-1.24459e-11
2.11837e-11
-1.34476e-11
2.97083e-11
-1.40677e-11
4.01988e-11
-1.43115e-11
5.29236e-11
-1.41907e-11
6.83316e-11
-1.37125e-11
8.40015e-11
-1.28951e-11
1.00491e-10
-1.17602e-11
1.13358e-10
-1.01157e-11
1.22045e-10
-8.31612e-12
1.22695e-10
-5.06238e-12
1.30419e-10
-3.12242e-12
1.27214e-10
9.35238e-14
2.43929e-10
1.81183e-12
2.52023e-10
5.20076e-12
6.45782e-10
1.49579e-11
5.31287e-10
6.60688e-11
4.39814e-10
-3.41129e-12
2.3663e-10
1.2021e-10
-1.21987e-10
1.60975e-10
-7.1252e-10
1.57158e-10
-1.27204e-09
-8.50175e-11
-1.99963e-09
-1.66057e-10
-2.90687e-09
-2.27478e-10
-3.89668e-09
-3.85286e-10
-4.8724e-09
-5.5184e-10
-5.70949e-09
-6.54908e-10
-6.32139e-09
-6.847e-10
-6.7633e-09
-5.69751e-10
-7.04443e-09
-4.00035e-10
-7.23588e-09
-1.42461e-10
-7.38687e-09
1.69203e-10
-7.57885e-09
4.92188e-10
-7.80848e-09
7.99054e-10
-8.06699e-09
1.0744e-09
-8.34227e-09
1.31969e-09
-8.61462e-09
1.53648e-09
-8.86371e-09
1.72664e-09
-9.08006e-09
1.89209e-09
-9.26031e-09
2.03331e-09
-9.40544e-09
2.14145e-09
-9.516e-09
2.21132e-09
-9.58497e-09
2.25519e-09
-9.63471e-09
2.32271e-09
2.41929e-09
-9.67432e-09
6.23102e-13
-2.20302e-12
2.0933e-12
-5.98877e-12
4.26664e-12
-9.27312e-12
7.14126e-12
-1.21491e-11
1.07323e-11
-1.46467e-11
1.50566e-11
-1.67701e-11
2.01324e-11
-1.85235e-11
2.59776e-11
-1.99129e-11
3.26103e-11
-2.09443e-11
4.0045e-11
-2.16253e-11
4.82946e-11
-2.19621e-11
5.73591e-11
-2.19596e-11
6.72213e-11
-2.16223e-11
7.8051e-11
-2.09455e-11
8.96572e-11
-1.99224e-11
1.03146e-10
-1.85514e-11
1.16847e-10
-1.68236e-11
1.31702e-10
-1.4762e-11
1.45559e-10
-1.21634e-11
1.57932e-10
-8.84589e-12
1.65973e-10
-4.84047e-12
1.7082e-10
-8.89308e-13
1.5536e-10
4.04833e-12
2.67142e-10
8.00031e-12
4.127e-10
1.52498e-11
5.40653e-10
2.91791e-11
4.37322e-10
1.8313e-11
2.73053e-10
-1.78724e-12
-4.79707e-11
9.35449e-11
-5.47768e-10
1.14512e-10
-1.0974e-09
-2.20999e-12
-1.59343e-09
-1.58877e-10
-2.1878e-09
-9.03315e-11
-2.6707e-09
-8.68498e-11
-2.97469e-09
-9.60441e-11
-3.07969e-09
-3.74574e-11
-3.02204e-09
1.11547e-10
-2.84766e-09
3.17813e-10
-2.63504e-09
5.86436e-10
-2.46499e-09
9.04349e-10
-2.36684e-09
1.22155e-09
-2.34091e-09
1.51054e-09
-2.37771e-09
1.76344e-09
-2.46531e-09
1.9797e-09
-2.59205e-09
2.16005e-09
-2.75415e-09
2.30355e-09
-2.95107e-09
2.40823e-09
-3.16992e-09
2.47404e-09
-3.37874e-09
2.53153e-09
2.59323e-09
-3.55268e-09
-2.985e-13
-1.90452e-12
-8.62135e-13
-5.42513e-12
-1.55293e-12
-8.58232e-12
-2.30586e-12
-1.13962e-11
-3.04487e-12
-1.39077e-11
-3.7018e-12
-1.61132e-11
-4.2149e-12
-1.80104e-11
-4.52654e-12
-1.96012e-11
-4.58244e-12
-2.08884e-11
-4.33137e-12
-2.18764e-11
-3.72447e-12
-2.25689e-11
-2.71585e-12
-2.29682e-11
-1.26183e-12
-2.30763e-11
6.86188e-13
-2.28935e-11
3.18427e-12
-2.24204e-11
6.28919e-12
-2.16563e-11
1.00659e-11
-2.06003e-11
1.45546e-11
-1.92506e-11
1.99942e-11
-1.7603e-11
2.67968e-11
-1.56485e-11
3.53418e-11
-1.33855e-11
4.52671e-11
-1.08146e-11
5.71644e-11
-7.92991e-12
6.90492e-11
-4.57949e-12
7.87503e-11
-9.74104e-13
8.24267e-11
2.42582e-12
8.71338e-11
6.11772e-12
7.53329e-11
9.77682e-12
1.52941e-10
1.58504e-11
2.46999e-10
2.04506e-11
2.27899e-10
1.68904e-11
7.30086e-11
-3.98694e-12
-6.84917e-11
5.11688e-11
-1.8854e-10
3.3198e-11
-2.71159e-10
-1.34251e-11
-3.03813e-10
-4.80278e-12
-1.92206e-10
-6.01336e-14
9.29968e-11
3.26102e-11
5.44006e-10
1.35426e-10
1.12891e-09
3.19441e-10
1.80077e-09
5.4969e-10
2.48648e-09
8.24837e-10
3.12168e-09
1.12824e-09
3.66421e-09
1.43717e-09
4.09829e-09
1.72597e-09
4.41733e-09
1.9845e-09
4.61471e-09
2.21085e-09
4.68645e-09
2.4023e-09
4.66325e-09
2.55473e-09
2.6734e-09
4.58309e-09
-3.39568e-13
-1.56496e-12
-1.41741e-12
-4.34729e-12
-3.18827e-12
-6.81146e-12
-5.53646e-12
-9.04799e-12
-8.33782e-12
-1.11063e-11
-1.14788e-11
-1.29722e-11
-1.48536e-11
-1.46355e-11
-1.83615e-11
-1.60934e-11
-2.1906e-11
-1.73439e-11
-2.53929e-11
-1.83895e-11
-2.87299e-11
-1.9232e-11
-3.18252e-11
-1.9873e-11
-3.45873e-11
-2.03142e-11
-3.69234e-11
-2.05573e-11
-3.87397e-11
-2.06042e-11
-3.99391e-11
-2.04569e-11
-4.04216e-11
-2.01178e-11
-4.00826e-11
-1.95895e-11
-3.88109e-11
-1.88748e-11
-3.64822e-11
-1.79772e-11
-3.29672e-11
-1.69005e-11
-2.81317e-11
-1.56501e-11
-2.18297e-11
-1.42319e-11
-1.37604e-11
-1.26488e-11
-3.8284e-12
-1.09061e-11
7.60742e-12
-9.01e-12
2.05807e-11
-6.9385e-12
3.48396e-11
-4.56579e-12
5.00839e-11
-2.41375e-12
6.09539e-11
-3.92176e-13
7.56756e-11
1.27061e-12
6.78664e-11
3.74053e-12
1.11504e-10
7.50974e-12
1.36657e-10
8.04428e-12
1.33872e-10
-1.06398e-11
1.18694e-10
1.03753e-11
1.19683e-10
-1.04929e-12
1.67649e-10
-1.53556e-11
3.03182e-10
-1.06348e-13
6.11049e-10
1.1574e-11
1.11455e-09
4.61881e-11
1.8276e-09
1.11788e-10
2.73048e-09
2.25357e-10
3.77218e-09
3.95465e-10
4.89087e-09
6.07283e-10
6.02845e-09
8.46928e-10
7.13402e-09
1.10528e-09
8.16194e-09
1.37438e-09
9.07313e-09
1.64355e-09
1.90165e-09
9.84487e-09
-5.14853e-13
-1.0501e-12
-1.74131e-12
-3.12083e-12
-3.56748e-12
-4.9853e-12
-5.92704e-12
-6.68843e-12
-8.71608e-12
-8.31728e-12
-1.18351e-11
-9.85321e-12
-1.5194e-11
-1.12767e-11
-1.87098e-11
-1.25775e-11
-2.23039e-11
-1.37498e-11
-2.5899e-11
-1.47944e-11
-2.94184e-11
-1.57125e-11
-3.27865e-11
-1.6505e-11
-3.59279e-11
-1.71728e-11
-3.87682e-11
-1.7717e-11
-4.12335e-11
-1.81389e-11
-4.32502e-11
-1.84403e-11
-4.47446e-11
-1.86234e-11
-4.56434e-11
-1.86907e-11
-4.58733e-11
-1.86449e-11
-4.53615e-11
-1.8489e-11
-4.40359e-11
-1.8226e-11
-4.1827e-11
-1.7859e-11
-3.86684e-11
-1.73905e-11
-3.44927e-11
-1.68244e-11
-2.9236e-11
-1.61628e-11
-2.28354e-11
-1.54107e-11
-1.51979e-11
-1.4576e-11
-6.0946e-12
-1.36691e-11
4.18801e-12
-1.26964e-11
1.54604e-11
-1.16646e-11
2.7198e-11
-1.05143e-11
4.01723e-11
-9.29829e-12
5.34406e-11
-8.4637e-12
6.40383e-11
-7.88879e-12
5.92049e-11
-6.01109e-12
7.68767e-11
-7.36374e-12
8.44276e-11
-8.60018e-12
8.05665e-11
-1.14945e-11
8.32023e-11
-2.74223e-12
9.27517e-11
2.02471e-12
1.43845e-10
-4.90522e-12
2.80048e-10
-2.44147e-11
6.17818e-10
-1.12413e-10
1.26055e-09
-2.47269e-10
2.21534e-09
-3.47507e-10
3.43871e-09
-3.76436e-10
4.86963e-09
-3.25651e-10
6.44483e-09
-2.00824e-10
8.10619e-09
-1.78105e-11
2.28162e-10
9.77968e-09
1.20064e-13
-1.17017e-12
-1.38273e-13
-2.86249e-12
-8.81729e-13
-4.24184e-12
-1.98517e-12
-5.58499e-12
-3.35409e-12
-6.94836e-12
-4.91996e-12
-8.28734e-12
-6.62783e-12
-9.56879e-12
-8.4264e-12
-1.07789e-11
-1.02635e-11
-1.19127e-11
-1.20864e-11
-1.29715e-11
-1.38431e-11
-1.39558e-11
-1.54827e-11
-1.48654e-11
-1.69556e-11
-1.56999e-11
-1.82137e-11
-1.64589e-11
-1.92093e-11
-1.71433e-11
-1.98954e-11
-1.77542e-11
-2.02259e-11
-1.82929e-11
-2.01535e-11
-1.8763e-11
-1.96304e-11
-1.91681e-11
-1.86111e-11
-1.95083e-11
-1.70396e-11
-1.97975e-11
-1.48837e-11
-2.00149e-11
-1.20696e-11
-2.02047e-11
-8.50473e-12
-2.03892e-11
-4.18111e-12
-2.04865e-11
9.08588e-13
-2.05004e-11
6.83174e-12
-2.04991e-11
1.37913e-11
-2.06286e-11
2.20263e-11
-2.09314e-11
3.17622e-11
-2.14005e-11
4.26179e-11
-2.137e-11
5.43589e-11
-2.10393e-11
6.5813e-11
-2.02825e-11
7.70889e-11
-1.95304e-11
9.13373e-11
-2.06716e-11
9.88936e-11
-1.84916e-11
1.02969e-10
-1.62563e-11
9.55412e-11
-4.06631e-12
9.30983e-11
-2.99264e-13
1.34268e-10
-3.91447e-11
1.71682e-10
-4.23191e-11
2.3356e-10
-8.62935e-11
3.92428e-10
-2.7128e-10
7.57301e-10
-6.12143e-10
1.35223e-09
-9.42437e-10
2.1498e-09
-1.17401e-09
3.11739e-09
-1.29324e-09
4.23099e-09
-1.31443e-09
5.46969e-09
-1.25651e-09
-1.13279e-09
6.83065e-09
-4.2913e-13
-7.41035e-13
-1.16549e-12
-2.12613e-12
-1.88849e-12
-3.51884e-12
-2.52166e-12
-4.95182e-12
-3.07644e-12
-6.39358e-12
-3.54586e-12
-7.81792e-12
-3.90289e-12
-9.21176e-12
-4.11129e-12
-1.05705e-11
-4.13098e-12
-1.1893e-11
-3.92481e-12
-1.31777e-11
-3.45949e-12
-1.44212e-11
-2.70511e-12
-1.56197e-11
-1.63612e-12
-1.67688e-11
-2.30657e-13
-1.78644e-11
1.52637e-12
-1.89003e-11
3.64784e-12
-1.98757e-11
6.14448e-12
-2.07895e-11
9.0199e-12
-2.16385e-11
1.2268e-11
-2.24161e-11
1.59572e-11
-2.31975e-11
2.0295e-11
-2.41353e-11
2.55371e-11
-2.5257e-11
3.20886e-11
-2.67563e-11
4.00717e-11
-2.83723e-11
4.88772e-11
-2.9292e-11
5.83038e-11
-2.99304e-11
6.73656e-11
-2.97353e-11
7.61036e-11
-2.9848e-11
8.48887e-11
-3.09091e-11
9.40717e-11
-3.30272e-11
1.05223e-10
-3.80402e-11
1.10084e-10
-3.79345e-11
1.20265e-10
-3.24221e-11
1.27995e-10
-2.73641e-11
1.14993e-10
-7.72566e-12
1.29078e-10
-3.25946e-11
1.99708e-10
-8.68862e-11
2.71218e-10
-7.55765e-11
3.422e-10
-7.12813e-11
4.085e-10
-1.05445e-10
5.69721e-10
-2.0354e-10
8.53175e-10
-3.69748e-10
1.23204e-09
-6.50148e-10
1.61367e-09
-9.93771e-10
1.94589e-09
-1.27466e-09
2.21887e-09
-1.44698e-09
2.45055e-09
-1.52492e-09
2.67287e-09
-1.53675e-09
2.92246e-09
-1.50611e-09
-1.4472e-09
3.23687e-09
-1.07415e-13
-3.58337e-14
3.73076e-13
1.06682e-12
1.96052e-12
3.04114e-12
4.33697e-12
5.88538e-12
7.72198e-12
9.87256e-12
1.23557e-11
1.51847e-11
1.83807e-11
2.19673e-11
2.59689e-11
3.05472e-11
3.5995e-11
4.22931e-11
4.88517e-11
5.52648e-11
6.11984e-11
6.77558e-11
7.58481e-11
8.8452e-11
9.99198e-11
1.07764e-10
1.18769e-10
1.19926e-10
1.13532e-10
1.12418e-10
1.32017e-10
1.92021e-10
3.0021e-10
4.1484e-10
5.03942e-10
5.62238e-10
6.06832e-10
7.25712e-10
9.11147e-10
1.14452e-09
1.40924e-09
1.67973e-09
1.85754e-09
1.84888e-09
1.66018e-09
1.34821e-09
9.72933e-10
5.82543e-10
2.12005e-10
-1.13617e-10
-3.01788e-09
-4.08388e-10
-3.58713e-09
-3.49771e-10
-4.24466e-09
-2.07206e-10
-4.97822e-09
-9.6985e-11
-5.77642e-09
-5.50151e-11
-6.58293e-09
-1.17675e-10
-7.39837e-09
-1.90427e-10
-8.21294e-09
-2.49401e-10
-9.01209e-09
-3.02358e-10
-9.79167e-09
-3.504e-10
-1.05529e-08
-3.94816e-10
-1.12954e-08
-4.38734e-10
-1.20216e-08
-4.78451e-10
-1.27354e-08
-5.12545e-10
-1.34404e-08
-5.41878e-10
-1.41395e-08
-5.68055e-10
-1.48336e-08
-5.93284e-10
-1.55231e-08
-6.18385e-10
-1.62082e-08
-6.43219e-10
-1.68894e-08
-6.67466e-10
-1.75673e-08
-6.90948e-10
-1.82427e-08
-7.13681e-10
-1.8916e-08
-7.35803e-10
-1.95879e-08
-7.57504e-10
-2.02586e-08
-7.78951e-10
-2.09285e-08
-8.00281e-10
-2.15979e-08
-8.21608e-10
-2.22669e-08
-8.43023e-10
-2.29355e-08
-8.64601e-10
-2.3604e-08
-8.864e-10
-2.42722e-08
-9.08462e-10
-2.49402e-08
-9.30816e-10
-2.56079e-08
-9.53479e-10
-2.62752e-08
-9.76461e-10
-2.69421e-08
-9.99766e-10
-2.76086e-08
-1.0234e-09
-2.82744e-08
-1.04735e-09
-2.89396e-08
-1.07162e-09
-2.96039e-08
-1.09619e-09
-3.02672e-08
-1.12103e-09
-3.09294e-08
-1.1461e-09
-3.15903e-08
-1.17135e-09
-3.22497e-08
-1.19673e-09
-3.29077e-08
-1.22221e-09
-3.35639e-08
-1.24775e-09
-3.42184e-08
-1.27335e-09
-3.48709e-08
-1.29898e-09
-3.55214e-08
-1.32462e-09
-3.61698e-08
-1.35027e-09
-1.37589e-09
-3.68159e-08
-1.94358e-09
-5.31517e-11
-2.22243e-09
-7.0926e-11
-2.47061e-09
4.0977e-11
-2.66115e-09
9.35566e-11
-2.87606e-09
1.59894e-10
-3.14428e-09
1.50546e-10
-3.49218e-09
1.57465e-10
-3.90859e-09
1.67017e-10
-4.41178e-09
2.00828e-10
-5.03949e-09
2.77308e-10
-5.77445e-09
3.40151e-10
-6.57979e-09
3.666e-10
-7.41896e-09
3.60718e-10
-8.25991e-09
3.2841e-10
-9.07665e-09
2.74862e-10
-9.85596e-09
2.11253e-10
-1.0605e-08
1.55724e-10
-1.13352e-08
1.11862e-10
-1.20551e-08
7.66443e-11
-1.27689e-08
4.63552e-11
-1.34778e-08
1.80004e-11
-1.4182e-08
-9.51846e-12
-1.48819e-08
-3.59462e-11
-1.55776e-08
-6.17606e-11
-1.62697e-08
-8.68396e-11
-1.69587e-08
-1.11297e-10
-1.7645e-08
-1.35304e-10
-1.8329e-08
-1.59039e-10
-1.90109e-08
-1.82657e-10
-1.96911e-08
-2.06288e-10
-2.03695e-08
-2.30033e-10
-2.10463e-08
-2.53971e-10
-2.17216e-08
-2.78161e-10
-2.23955e-08
-3.02646e-10
-2.30678e-08
-3.27457e-10
-2.37385e-08
-3.52616e-10
-2.44078e-08
-3.7814e-10
-2.50753e-08
-4.0404e-10
-2.57412e-08
-4.30316e-10
-2.64053e-08
-4.56957e-10
-2.70675e-08
-4.83937e-10
-2.77276e-08
-5.11216e-10
-2.83856e-08
-5.38748e-10
-2.90413e-08
-5.66485e-10
-2.96947e-08
-5.94387e-10
-3.03456e-08
-6.22423e-10
-3.0994e-08
-6.50555e-10
-3.16399e-08
-6.78754e-10
-3.22832e-08
-7.07e-10
-7.35235e-10
-3.29238e-08
-8.21569e-10
1.56103e-10
-1.15282e-09
2.60324e-10
-1.3826e-09
2.70761e-10
-1.62868e-09
3.3963e-10
-1.73496e-09
2.66174e-10
-1.82601e-09
2.41595e-10
-1.92241e-09
2.53865e-10
-2.05649e-09
3.01106e-10
-2.2558e-09
4.00133e-10
-2.5453e-09
5.66807e-10
-2.96683e-09
7.61683e-10
-3.53895e-09
9.38724e-10
-4.24032e-09
1.06208e-09
-5.02319e-09
1.11128e-09
-5.83491e-09
1.08658e-09
-6.64627e-09
1.02261e-09
-7.42607e-09
9.35528e-10
-8.17175e-09
8.57546e-10
-8.88526e-09
7.90149e-10
-9.57172e-09
7.32816e-10
-1.02388e-08
6.85073e-10
-1.08967e-08
6.48424e-10
-1.15501e-08
6.17376e-10
-1.22007e-08
5.8885e-10
-1.28492e-08
5.61672e-10
-1.34959e-08
5.3545e-10
-1.41412e-08
5.09996e-10
-1.47854e-08
4.85129e-10
-1.54287e-08
4.60642e-10
-1.60713e-08
4.36334e-10
-1.67134e-08
4.1202e-10
-1.73549e-08
3.8755e-10
-1.79959e-08
3.62808e-10
-1.86362e-08
3.37704e-10
-1.92758e-08
3.12178e-10
-1.99146e-08
2.86188e-10
-2.05525e-08
2.59706e-10
-2.11892e-08
2.32715e-10
-2.18248e-08
2.05205e-10
-2.24589e-08
1.77177e-10
-2.30915e-08
1.48646e-10
-2.37223e-08
1.1964e-10
-2.43513e-08
9.01992e-11
-2.49781e-08
6.0365e-11
-2.56027e-08
3.01346e-11
-2.62234e-08
-1.66525e-12
-2.68433e-08
-3.07177e-11
-2.74609e-08
-6.11442e-11
-2.8076e-08
-9.18589e-11
-1.22804e-10
-2.86884e-08
-9.38777e-11
1.49976e-10
-7.5452e-11
2.41899e-10
-6.25122e-10
8.20431e-10
-5.74071e-10
2.88579e-10
-5.76925e-10
2.69028e-10
-5.95899e-10
2.60569e-10
-6.09468e-10
2.67434e-10
-5.96989e-10
2.88628e-10
-5.28438e-10
3.31583e-10
-4.23867e-10
4.62236e-10
-4.56681e-10
7.94496e-10
-6.90332e-10
1.17238e-09
-1.1175e-09
1.48925e-09
-1.70433e-09
1.6981e-09
-2.40437e-09
1.78663e-09
-3.17702e-09
1.79525e-09
-3.96328e-09
1.72179e-09
-4.73031e-09
1.62457e-09
-5.53814e-09
1.59799e-09
-6.33391e-09
1.52858e-09
-7.09122e-09
1.44239e-09
-7.80145e-09
1.35865e-09
-8.47941e-09
1.29533e-09
-9.13684e-09
1.24628e-09
-9.78086e-09
1.20569e-09
-1.04155e-08
1.17005e-09
-1.10428e-08
1.13732e-09
-1.16641e-08
1.10641e-09
-1.22802e-08
1.07675e-09
-1.28918e-08
1.04797e-09
-1.34996e-08
1.01981e-09
-1.41041e-08
9.92018e-10
-1.47056e-08
9.64362e-10
-1.53046e-08
9.36656e-10
-1.59011e-08
9.08747e-10
-1.64955e-08
8.80519e-10