/*--------------------------------*- C++ -*----------------------------------*\
| =========                 |                                                 |
| \\      /  F ield         | OpenFOAM: The Open Source CFD Toolbox           |
|  \\    /   O peration     | Version:  2.4.0                                 |
|   \\  /    A nd           | Web:      www.OpenFOAM.org                      |
|    \\/     M anipulation  |                                                 |
\*---------------------------------------------------------------------------*/
FoamFile
{
    version     2.0;
    format      ascii;
    class       volVectorField;
    location    "4";
    object      U;
}
// * * * * * * * * * * * * * * * * * * * * * * * * * * * * * * * * * * * * * //

dimensions      [0 1 -1 0 0 0 0];

internalField   nonuniform List<vector> 
8000
(
(-1.34716e-06 -0.00021124 0)
(-8.51851e-06 -0.000591466 0)
(-2.06779e-05 -0.000930676 0)
(-3.64705e-05 -0.00123023 0)
(-5.46968e-05 -0.00149104 0)
(-7.41421e-05 -0.00171371 0)
(-9.39727e-05 -0.00189884 0)
(-0.000113081 -0.00204704 0)
(-0.000130777 -0.00215898 0)
(-0.000146055 -0.00223531 0)
(-0.000158215 -0.00227672 0)
(-0.000166485 -0.00228373 0)
(-0.000169859 -0.00225694 0)
(-0.000168039 -0.00219654 0)
(-0.000159305 -0.00210296 0)
(-0.000144075 -0.00197588 0)
(-0.000119508 -0.00181554 0)
(-8.67846e-05 -0.0016211 0)
(-4.18669e-05 -0.00139262 0)
(1.40981e-05 -0.00112844 0)
(8.62031e-05 -0.00082717 0)
(0.000171574 -0.000484929 0)
(0.000267673 -0.000100835 0)
(0.000371412 0.000332532 0)
(0.000505408 0.000878619 0)
(0.000704116 0.00152975 0)
(0.000822437 0.00151765 0)
(0.000838387 0.00177944 0)
(0.000855361 0.0022643 0)
(0.000762991 0.00143643 0)
(0.000395899 -0.000615327 0)
(0.00011978 0.000824855 0)
(-2.93659e-05 -3.08176e-05 0)
(-0.00026573 -0.00119496 0)
(-0.000914548 -0.000934759 0)
(-0.00169116 -0.000599608 0)
(-0.00226964 -0.00274147 0)
(-0.00283005 -0.00664407 0)
(-0.00403693 -0.011477 0)
(-0.00596866 -0.0185953 0)
(-0.00740979 -0.0302387 0)
(-0.00710664 -0.0211758 0)
(-0.00645004 -0.0177406 0)
(-0.00565883 -0.0166111 0)
(-0.00514954 -0.0181562 0)
(-0.00535128 -0.0200494 0)
(-0.00683485 -0.0234243 0)
(-0.00963182 -0.0292676 0)
(-0.0133121 -0.0405494 0)
(-0.0184686 -0.0582597 0)
(-3.62975e-07 -0.000151979 0)
(-6.74799e-06 -0.000430631 0)
(-1.98204e-05 -0.000684274 0)
(-3.89364e-05 -0.000913548 0)
(-6.30503e-05 -0.00111891 0)
(-9.11648e-05 -0.00130042 0)
(-0.000122382 -0.00145805 0)
(-0.00015584 -0.00159172 0)
(-0.000190692 -0.00170145 0)
(-0.000226117 -0.00178731 0)
(-0.0002613 -0.0018496 0)
(-0.000295447 -0.00188865 0)
(-0.000327784 -0.00190502 0)
(-0.000357498 -0.00189927 0)
(-0.000383853 -0.0018721 0)
(-0.000405959 -0.00182429 0)
(-0.000423109 -0.00175655 0)
(-0.000434269 -0.00166991 0)
(-0.000438737 -0.00156501 0)
(-0.000435289 -0.00144312 0)
(-0.00042313 -0.00130481 0)
(-0.000400808 -0.00115131 0)
(-0.000367203 -0.000982738 0)
(-0.000319858 -0.00079734 0)
(-0.000256993 -0.000598957 0)
(-0.000178284 -0.000390621 0)
(-8.89716e-05 -0.000177135 0)
(5.80434e-06 6.18264e-05 0)
(9.92758e-05 0.000393951 0)
(0.000132285 0.000289513 0)
(0.000102701 0.000114532 0)
(9.58301e-05 0.000441912 0)
(0.000103567 0.000449645 0)
(5.12716e-05 0.000297865 0)
(5.84656e-06 0.000190779 0)
(7.10588e-06 0.00023572 0)
(-4.64608e-05 0.000273003 0)
(-0.00028774 -8.36065e-06 0)
(-0.000712236 -0.000371064 0)
(-0.00134426 -0.00125863 0)
(-0.0023164 -0.00280778 0)
(-0.0036491 -0.00374751 0)
(-0.00477435 -0.00445466 0)
(-0.00534014 -0.00440568 0)
(-0.00586386 -0.00640049 0)
(-0.00651409 -0.00956437 0)
(-0.00731279 -0.0140413 0)
(-0.00813369 -0.0218792 0)
(-0.00891387 -0.0268659 0)
(-0.0102397 -0.00308546 0)
(-1.38921e-06 -0.000106258 0)
(-1.04705e-05 -0.000303164 0)
(-2.73056e-05 -0.000484272 0)
(-5.08962e-05 -0.000649566 0)
(-8.02464e-05 -0.000799109 0)
(-0.000114536 -0.000932899 0)
(-0.000153054 -0.00105104 0)
(-0.000195116 -0.00115363 0)
(-0.000240053 -0.00124084 0)
(-0.000287207 -0.00131286 0)
(-0.000335945 -0.00136993 0)
(-0.000385644 -0.00141235 0)
(-0.000435707 -0.00144048 0)
(-0.00048555 -0.00145473 0)
(-0.000534609 -0.00145557 0)
(-0.000582345 -0.00144355 0)
(-0.000628222 -0.00141926 0)
(-0.000671744 -0.00138331 0)
(-0.0007124 -0.00133639 0)
(-0.000749737 -0.0012792 0)
(-0.000783262 -0.00121247 0)
(-0.000812537 -0.00113696 0)
(-0.000837069 -0.00105345 0)
(-0.000856396 -0.000962737 0)
(-0.000870029 -0.000865683 0)
(-0.000877445 -0.000763207 0)
(-0.000877973 -0.000655974 0)
(-0.000871178 -0.00054441 0)
(-0.000858064 -0.000428548 0)
(-0.000843302 -0.000308907 0)
(-0.000831874 -0.00017703 0)
(-0.000818716 1.868e-05 0)
(-0.000802601 0.000184632 0)
(-0.000790867 0.000218185 0)
(-0.000781986 0.000207879 0)
(-0.000769749 0.00041716 0)
(-0.000747414 0.00072042 0)
(-0.000713201 0.000819012 0)
(-0.000676867 0.000840624 0)
(-0.000657543 0.000797472 0)
(-0.000681627 0.000633048 0)
(-0.000748559 0.000294482 0)
(-0.000874968 -0.000124379 0)
(-0.000999517 -0.000815468 0)
(-0.00106414 -0.0023074 0)
(-0.00115437 -0.00304142 0)
(-0.00131302 -0.00180435 0)
(-0.00204283 -0.00314989 0)
(-0.00373339 -0.00247831 0)
(-0.0046557 0.00247701 0)
(7.59938e-08 -4.38047e-05 0)
(-1.4449e-06 -0.000128399 0)
(-5.1279e-06 -0.00020935 0)
(-1.09812e-05 -0.000286154 0)
(-1.87925e-05 -0.000358194 0)
(-2.83267e-05 -0.000424701 0)
(-3.93318e-05 -0.000484985 0)
(-5.15632e-05 -0.000538427 0)
(-6.47545e-05 -0.000584556 0)
(-7.86469e-05 -0.000623027 0)
(-9.29725e-05 -0.000653644 0)
(-0.000107478 -0.000676334 0)
(-0.000121912 -0.000691139 0)
(-0.000136043 -0.000698195 0)
(-0.000149652 -0.000697721 0)
(-0.000162552 -0.000690008 0)
(-0.00017457 -0.000675433 0)
(-0.000185582 -0.000654424 0)
(-0.000195484 -0.000627495 0)
(-0.000204233 -0.000595202 0)
(-0.000211814 -0.000558198 0)
(-0.000218296 -0.000517159 0)
(-0.000223784 -0.000472886 0)
(-0.000228504 -0.000426166 0)
(-0.000232724 -0.000377981 0)
(-0.000236873 -0.000329227 0)
(-0.000241432 -0.000281104 0)
(-0.000247091 -0.000234626 0)
(-0.000254545 -0.000191378 0)
(-0.000264487 -0.000152647 0)
(-0.000277151 -0.00012053 0)
(-0.000293272 -9.62938e-05 0)
(-0.000317332 -8.36669e-05 0)
(-0.000360808 -8.14563e-05 0)
(-0.000418745 -0.000159349 0)
(-0.000453805 -0.000370257 0)
(-0.000444025 -0.000543764 0)
(-0.000405821 -0.000794049 0)
(-0.000361079 -0.00104186 0)
(-0.000318875 -0.00123579 0)
(-0.000279799 -0.00142182 0)
(-0.000244004 -0.00158971 0)
(-0.000224956 -0.00133088 0)
(-0.000232562 -0.00211323 0)
(-0.000245481 -0.00449574 0)
(-0.000266343 -0.00546089 0)
(-0.000240599 -0.00372446 0)
(-0.000261167 1.34397e-05 0)
(-0.000460422 0.0060917 0)
(-0.000650669 0.0187511 0)
(-1.41787e-08 -7.63128e-05 0)
(-1.75987e-07 -0.000215201 0)
(-4.99976e-07 -0.00034145 0)
(-9.27048e-07 -0.000456103 0)
(-1.39576e-06 -0.000560033 0)
(-1.82242e-06 -0.000653879 0)
(-2.10716e-06 -0.000738173 0)
(-2.13357e-06 -0.000813306 0)
(-1.7623e-06 -0.00087959 0)
(-8.42545e-07 -0.000937239 0)
(7.91069e-07 -0.000986412 0)
(3.3115e-06 -0.00102721 0)
(6.89383e-06 -0.0010597 0)
(1.17205e-05 -0.00108389 0)
(1.79649e-05 -0.00109974 0)
(2.58108e-05 -0.00110714 0)
(3.54213e-05 -0.00110594 0)
(4.69763e-05 -0.00109588 0)
(6.06231e-05 -0.00107666 0)
(7.65497e-05 -0.0010478 0)
(9.49246e-05 -0.00100875 0)
(0.000115991 -0.000958675 0)
(0.00013993 -0.000896507 0)
(0.000166965 -0.000820738 0)
(0.000197217 -0.000729834 0)
(0.000231016 -0.000621857 0)
(0.000268411 -0.000495135 0)
(0.000308622 -0.000347057 0)
(0.000347817 -0.000174071 0)
(0.000379962 2.66863e-05 0)
(0.000400126 0.00025415 0)
(0.000405341 0.000516957 0)
(0.000390143 0.000815168 0)
(0.000353847 0.00120009 0)
(0.000293015 0.00137833 0)
(0.000229015 0.000882693 0)
(0.000198631 0.000232785 0)
(0.000232204 -0.000316009 0)
(0.000279231 -0.000196064 0)
(0.000280923 0.000109044 0)
(0.000197414 0.000530109 0)
(0.000115232 -0.000217873 0)
(0.000166724 -0.000666068 0)
(0.000246504 -0.000853916 0)
(0.000257192 -0.000968721 0)
(6.91441e-05 -0.000874509 0)
(-0.000142325 7.67362e-06 0)
(0.000139609 0.0011328 0)
(0.000660008 0.00177423 0)
(0.00153449 0.00262615 0)
(-8.6298e-07 -4.11033e-05 0)
(-6.80265e-06 -0.000121409 0)
(-1.77591e-05 -0.000199487 0)
(-3.30227e-05 -0.000274913 0)
(-5.18543e-05 -0.000347318 0)
(-7.36651e-05 -0.000416391 0)
(-9.79727e-05 -0.000481924 0)
(-0.000124351 -0.000543793 0)
(-0.000152419 -0.000601945 0)
(-0.000181836 -0.000656381 0)
(-0.00021231 -0.00070715 0)
(-0.000243584 -0.000754342 0)
(-0.000275458 -0.000798082 0)
(-0.000307759 -0.000838532 0)
(-0.000340377 -0.00087589 0)
(-0.000373209 -0.000910384 0)
(-0.000406216 -0.000942256 0)
(-0.000439378 -0.00097178 0)
(-0.000472751 -0.00099932 0)
(-0.000506035 -0.00102567 0)
(-0.000537947 -0.00105214 0)
(-0.0005658 -0.00108013 0)
(-0.000586448 -0.00111022 0)
(-0.000598375 -0.00114166 0)
(-0.000602985 -0.00117458 0)
(-0.000603777 -0.00120853 0)
(-0.000601832 -0.0012477 0)
(-0.000582171 -0.0013186 0)
(-0.000540995 -0.00120086 0)
(-0.000506492 -0.000847337 0)
(-0.000513064 -0.00035837 0)
(-0.00051838 7.94302e-05 0)
(-0.000436174 3.58775e-06 0)
(-0.000281141 0.000620072 0)
(-0.000133512 0.00148879 0)
(-1.66238e-05 0.00105066 0)
(0.000129843 -0.000571014 0)
(0.000404527 -0.00199647 0)
(0.000716398 -0.00150778 0)
(0.000999733 -0.00105375 0)
(0.00139191 -0.000531957 0)
(0.00181984 -0.00134609 0)
(0.00204285 -0.00290214 0)
(0.00219563 -0.00302182 0)
(0.00238713 -0.0032703 0)
(0.00264063 -0.00400986 0)
(0.00290264 -0.0058389 0)
(0.00311815 -0.00827451 0)
(0.00331243 -0.0106977 0)
(0.00342915 -0.0131568 0)
(-1.23253e-08 -1.77963e-06 0)
(-1.29496e-06 -1.10346e-05 0)
(-3.99543e-06 -2.53275e-05 0)
(-7.88944e-06 -4.39443e-05 0)
(-1.25615e-05 -6.61354e-05 0)
(-1.75823e-05 -9.11013e-05 0)
(-2.25126e-05 -0.000118037 0)
(-2.69221e-05 -0.000146104 0)
(-3.03824e-05 -0.000174443 0)
(-3.24862e-05 -0.000202163 0)
(-3.28498e-05 -0.000228337 0)
(-3.11231e-05 -0.000252001 0)
(-2.69759e-05 -0.000272105 0)
(-2.00617e-05 -0.00028753 0)
(-9.90835e-06 -0.000297012 0)
(4.35056e-06 -0.000299437 0)
(2.37964e-05 -0.000294158 0)
(4.87683e-05 -0.000281468 0)
(7.52864e-05 -0.000258928 0)
(9.45534e-05 -0.000226654 0)
(9.90192e-05 -0.000235999 0)
(9.16026e-05 -0.000324863 0)
(8.40981e-05 -0.000524646 0)
(7.9482e-05 -0.000665018 0)
(7.88839e-05 -0.000863132 0)
(6.18129e-05 -0.000705388 0)
(-3.17843e-05 -0.000454388 0)
(-0.000127573 -0.000982109 0)
(-0.000157144 -0.00107776 0)
(-0.000195369 -0.000676644 0)
(-0.000289822 -9.0627e-05 0)
(-0.000368772 -0.000208202 0)
(-0.000194192 -0.00255164 0)
(0.000168571 -0.0028292 0)
(0.000660946 -0.00222994 0)
(0.00115213 -0.00245408 0)
(0.00150751 -0.00460523 0)
(0.00158109 -0.00781197 0)
(0.00137385 -0.00654 0)
(0.00121475 -0.00723253 0)
(0.00140981 -0.00856611 0)
(0.00189813 -0.00708759 0)
(0.00245463 -0.00694473 0)
(0.00286374 -0.00620558 0)
(0.00310011 -0.0058031 0)
(0.00309224 -0.00536884 0)
(0.00295685 -0.00500781 0)
(0.00261052 -0.00466355 0)
(0.00174502 -0.00329203 0)
(0.000169046 0.000728148 0)
(-6.52966e-07 -1.76559e-05 0)
(-6.45246e-06 -5.76119e-05 0)
(-1.68153e-05 -0.000103225 0)
(-3.0486e-05 -0.000155231 0)
(-4.58642e-05 -0.000214108 0)
(-6.14826e-05 -0.0002801 0)
(-7.5893e-05 -0.000353245 0)
(-8.77098e-05 -0.000433388 0)
(-9.55157e-05 -0.00052015 0)
(-9.79404e-05 -0.00061296 0)
(-9.34895e-05 -0.000711044 0)
(-8.05197e-05 -0.000813613 0)
(-5.69263e-05 -0.000920343 0)
(-2.04554e-05 -0.00103221 0)
(2.87044e-05 -0.00115159 0)
(8.18546e-05 -0.00127913 0)
(0.000117413 -0.00145377 0)
(0.000124463 -0.00175123 0)
(0.000126346 -0.00164558 0)
(0.000177451 -0.00152967 0)
(0.000262659 -0.00116988 0)
(0.00031036 -0.000963264 0)
(0.000352079 -0.00116373 0)
(0.000394392 -0.00110008 0)
(0.000363861 -0.00107877 0)
(0.000360695 -0.000665192 0)
(0.000538126 -3.00098e-05 0)
(0.000761035 -0.00053823 0)
(0.000893169 -0.00054079 0)
(0.00107547 0.000153256 0)
(0.00158084 0.0004696 0)
(0.00235653 -0.000368198 0)
(0.00304657 -0.00644859 0)
(0.00346157 -0.00938042 0)
(0.00394303 -0.0088274 0)
(0.00448012 -0.00758761 0)
(0.0049063 -0.00618806 0)
(0.0048957 -0.0040324 0)
(0.00517632 0.000671475 0)
(0.00577684 -0.0011928 0)
(0.00570568 -0.0106544 0)
(0.00522 -0.0125417 0)
(0.00519525 -0.0126345 0)
(0.00519762 -0.0100714 0)
(0.00544785 -0.00572105 0)
(0.00564342 -0.0015735 0)
(0.00554176 1.09444e-05 0)
(0.00485013 0.00485812 0)
(0.00345618 0.0188563 0)
(0.0010874 0.0333515 0)
(-1.18175e-06 8.49968e-05 0)
(-5.13627e-06 0.000209982 0)
(-9.72451e-06 0.000292057 0)
(-1.31586e-05 0.000333097 0)
(-1.37036e-05 0.000334578 0)
(-9.74994e-06 0.000297931 0)
(4.09957e-07 0.000224043 0)
(1.87255e-05 0.000113981 0)
(4.75669e-05 -3.18736e-05 0)
(8.90006e-05 -0.000212416 0)
(0.00014299 -0.000427944 0)
(0.000201326 -0.000679599 0)
(0.000238513 -0.000982903 0)
(0.000210703 -0.001394 0)
(0.000121375 -0.00162973 0)
(4.6534e-05 -0.00183779 0)
(4.97097e-05 -0.00217842 0)
(0.000108677 -0.00344241 0)
(-7.23082e-05 -0.00328116 0)
(-0.000288939 -0.00350292 0)
(-0.000455583 -0.0021037 0)
(-0.000493971 -0.00116477 0)
(-0.000506376 -0.00194248 0)
(-0.000524535 -0.00144281 0)
(-0.000302234 -0.000472608 0)
(-6.09674e-06 -0.00254385 0)
(0.000282769 -0.00497864 0)
(0.000665939 -0.00522351 0)
(0.00133338 -0.00498312 0)
(0.00238005 -0.00706395 0)
(0.00351093 -0.0140962 0)
(0.0056798 -0.0149231 0)
(0.00706057 -0.0164066 0)
(0.00704496 -0.0176262 0)
(0.00773265 -0.0163681 0)
(0.00896486 -0.012929 0)
(0.0101833 -0.00967638 0)
(0.0102911 -0.0114772 0)
(0.0114558 -0.0119202 0)
(0.0148599 -0.00856963 0)
(0.0144846 -0.00704261 0)
(0.0143094 -0.00765177 0)
(0.0154287 -0.00965326 0)
(0.0162122 -0.0108053 0)
(0.0164793 -0.00951629 0)
(0.0161601 -0.00459701 0)
(0.0152715 0.00494919 0)
(0.0136397 0.0198457 0)
(0.0111865 0.0391643 0)
(0.00761929 0.06053 0)
(2.04905e-06 1.59855e-05 0)
(1.46231e-05 2.76834e-06 0)
(3.61895e-05 -5.56832e-05 0)
(6.41994e-05 -0.0001599 0)
(9.58689e-05 -0.000311318 0)
(0.000128632 -0.000511792 0)
(0.000160286 -0.000764283 0)
(0.00018967 -0.00107192 0)
(0.000217138 -0.0014396 0)
(0.000239395 -0.00187384 0)
(0.000223318 -0.00238469 0)
(0.000105279 -0.00223618 0)
(-0.00017629 -0.0020739 0)
(-0.00068805 -0.0024913 0)
(-0.00172579 -0.00254596 0)
(-0.00229302 -0.00373251 0)
(-0.00246757 -0.00401161 0)
(-0.00266699 -0.00128726 0)
(-0.00310532 0.00337814 0)
(-0.00431203 0.000390212 0)
(-0.00614035 0.00279878 0)
(-0.00573779 -0.00140551 0)
(-0.00486132 0.00124238 0)
(-0.00497629 -0.00334227 0)
(-0.00106893 -0.00643147 0)
(0.00456833 -0.00796952 0)
(0.00715591 -0.00639285 0)
(0.0113235 -0.0146554 0)
(0.0179113 -0.0242161 0)
(0.0266985 -0.0289802 0)
(0.0309589 -0.0363681 0)
(0.0353386 -0.0388679 0)
(0.0413491 -0.0370054 0)
(0.0461197 -0.0335875 0)
(0.0499708 -0.0305343 0)
(0.053345 -0.0285407 0)
(0.0561262 -0.0277489 0)
(0.0580717 -0.0281602 0)
(0.0592092 -0.0291432 0)
(0.0596308 -0.0295809 0)
(0.0592719 -0.0288337 0)
(0.0580247 -0.0266718 0)
(0.0557178 -0.0223718 0)
(0.0522658 -0.01481 0)
(0.0477699 -0.00284079 0)
(0.0424052 0.0143601 0)
(0.0362902 0.0368627 0)
(0.0297091 0.0635826 0)
(0.0230761 0.0924312 0)
(0.0167071 0.120116 0)
(1.56821e-06 -7.12054e-05 0)
(1.12447e-05 -0.000192369 0)
(2.54666e-05 -0.00029268 0)
(4.00635e-05 -0.000372836 0)
(5.02553e-05 -0.000432714 0)
(5.20922e-05 -0.000472767 0)
(4.24609e-05 -0.000492005 0)
(1.55148e-05 -0.000491009 0)
(-5.62621e-05 -0.000467826 0)
(-0.000211798 -0.000423815 0)
(-0.000527934 -0.000322995 0)
(-0.00127891 0.00417582 0)
(-0.00197169 0.00172109 0)
(-0.00176128 0.0020746 0)
(-0.00292869 0.0132438 0)
(0.00283845 0.000741258 0)
(-0.00308219 0.00122396 0)
(-0.00276766 -0.00046013 0)
(-0.00137742 0.0309143 0)
(-0.00122501 0.0287726 0)
(-0.00201864 0.0174973 0)
(-0.00351669 -0.00645017 0)
(-0.00231464 -0.032245 0)
(-0.00176959 -0.060779 0)
(-0.000636179 -0.0880211 0)
(0.00208183 -0.112219 0)
(0.00622497 -0.132629 0)
(0.0113136 -0.149069 0)
(0.0169048 -0.160477 0)
(0.0228031 -0.165125 0)
(0.0286047 -0.162836 0)
(0.0339511 -0.154892 0)
(0.038471 -0.142642 0)
(0.0419353 -0.12737 0)
(0.0442226 -0.110398 0)
(0.0453015 -0.0927018 0)
(0.0451935 -0.0747205 0)
(0.0439623 -0.0563684 0)
(0.0416122 -0.0369928 0)
(0.0380711 -0.0158733 0)
(0.0335255 0.00703455 0)
(0.0280405 0.0312654 0)
(0.0218146 0.0561138 0)
(0.0149373 0.0810522 0)
(0.00769741 0.105549 0)
(0.000498113 0.129562 0)
(-0.00637594 0.153195 0)
(-0.0128683 0.175626 0)
(-0.0188315 0.19366 0)
(-0.023814 0.205117 0)
(1.02634e-06 -0.000124323 0)
(7.69271e-06 -0.000306669 0)
(1.98916e-05 -0.000422585 0)
(3.66258e-05 -0.000471763 0)
(5.68639e-05 -0.000453104 0)
(7.97156e-05 -0.000364494 0)
(0.000104291 -0.000203161 0)
(0.000130118 3.43017e-05 0)
(0.000156773 0.000352307 0)
(0.000183194 0.000757711 0)
(0.000203738 0.00125973 0)
(0.000207143 0.00190996 0)
(0.000149582 0.00150002 0)
(5.4938e-05 0.00134936 0)
(-8.30095e-05 0.00154734 0)
(-6.38683e-05 0.00244675 0)
(-9.62925e-05 0.0122326 0)
(-0.000456438 0.00403223 0)
(-0.000409419 0.0127187 0)
(0.000782428 0.00209769 0)
(0.00384617 0.0523997 0)
(-0.00469827 -0.00790394 0)
(0.000478942 -0.0252363 0)
(-0.00059214 -0.0230047 0)
(-0.00812551 -0.0496685 0)
(-0.0108272 -0.0924066 0)
(-0.0154045 -0.128006 0)
(-0.0195609 -0.152889 0)
(-0.0241745 -0.168715 0)
(-0.0277176 -0.17701 0)
(-0.0292032 -0.175177 0)
(-0.0298455 -0.160708 0)
(-0.0302738 -0.136155 0)
(-0.0309265 -0.105507 0)
(-0.0321796 -0.0726956 0)
(-0.0342161 -0.0402596 0)
(-0.03715 -0.00937407 0)
(-0.0407916 0.0196355 0)
(-0.0448012 0.0467622 0)
(-0.0489236 0.0719051 0)
(-0.0529975 0.0954719 0)
(-0.0570344 0.118559 0)
(-0.0609377 0.141428 0)
(-0.0645478 0.163014 0)
(-0.0680112 0.182565 0)
(-0.071138 0.198708 0)
(-0.073511 0.21096 0)
(-0.0752618 0.221111 0)
(-0.0766498 0.230135 0)
(-0.0778319 0.237994 0)
(-5.12863e-07 -0.000152791 0)
(2.38675e-06 -0.000415627 0)
(1.17307e-05 -0.000635459 0)
(2.88773e-05 -0.000813241 0)
(5.4972e-05 -0.000949674 0)
(9.12507e-05 -0.00104503 0)
(0.000138999 -0.00109944 0)
(0.000199793 -0.0011137 0)
(0.000275528 -0.00108829 0)
(0.000368715 -0.00102474 0)
(0.000480875 -0.000923744 0)
(0.000610041 -0.000787366 0)
(0.000743616 -0.000620941 0)
(0.000860427 -0.000415678 0)
(0.000943284 -9.29884e-05 0)
(0.000981883 0.000184084 0)
(0.000984618 0.000867338 0)
(0.00103803 0.000932501 0)
(0.00139091 0.00120119 0)
(0.00198511 0.00153067 0)
(0.00289396 0.00283912 0)
(0.0048948 0.00742665 0)
(0.00458359 0.00351491 0)
(0.00328059 0.0150534 0)
(0.00152275 0.0217507 0)
(-0.00292428 0.0209047 0)
(-0.010224 -0.0135666 0)
(-0.0110142 -0.0349277 0)
(-0.0172723 -0.0478385 0)
(-0.0308022 -0.082552 0)
(-0.0361135 -0.117819 0)
(-0.0421893 -0.127215 0)
(-0.048283 -0.113399 0)
(-0.0527286 -0.0875347 0)
(-0.0554328 -0.0549353 0)
(-0.0571891 -0.0194237 0)
(-0.0584379 0.0154117 0)
(-0.0597709 0.047374 0)
(-0.0614759 0.0753035 0)
(-0.0634637 0.0997771 0)
(-0.065627 0.122093 0)
(-0.0678508 0.143098 0)
(-0.0699743 0.162804 0)
(-0.0718197 0.180536 0)
(-0.0734578 0.195737 0)
(-0.0748334 0.206896 0)
(-0.0757842 0.214148 0)
(-0.0763929 0.220332 0)
(-0.0768646 0.229258 0)
(-0.0772643 0.241744 0)
(1.65742e-06 -0.00018931 0)
(9.57947e-06 -0.000526957 0)
(2.39907e-05 -0.000823332 0)
(4.41748e-05 -0.00108061 0)
(7.00365e-05 -0.00130063 0)
(0.00010167 -0.00148366 0)
(0.00013924 -0.00163003 0)
(0.000182873 -0.00174035 0)
(0.00023277 -0.00181522 0)
(0.000288994 -0.00185553 0)
(0.00035174 -0.00186206 0)
(0.000420935 -0.00183579 0)
(0.000496669 -0.00177713 0)
(0.000578949 -0.00168605 0)
(0.000669168 -0.00156089 0)
(0.000768491 -0.001401 0)
(0.00087864 -0.00120522 0)
(0.000995564 -0.00098222 0)
(0.00111284 -0.000703771 0)
(0.00121877 -0.000321647 0)
(0.00129706 0.000242679 0)
(0.00131196 0.000899498 0)
(0.00132049 0.00120658 0)
(0.00164393 0.00186061 0)
(0.00247387 0.00260435 0)
(0.0035838 0.00368534 0)
(0.00430051 0.00243934 0)
(0.00331758 0.00118519 0)
(0.00154155 0.0103094 0)
(-0.00157353 0.0138348 0)
(-0.00689909 -0.000124112 0)
(-0.010601 -0.0248774 0)
(-0.015221 -0.0193646 0)
(-0.0219748 -0.0217601 0)
(-0.0231514 -0.0234193 0)
(-0.0243013 -0.00758893 0)
(-0.0245526 0.0198583 0)
(-0.0235262 0.0526623 0)
(-0.0218823 0.0860716 0)
(-0.0202924 0.116805 0)
(-0.0191977 0.143321 0)
(-0.0187128 0.16541 0)
(-0.0187908 0.183629 0)
(-0.0192969 0.198871 0)
(-0.0201208 0.211725 0)
(-0.0213439 0.221947 0)
(-0.0229765 0.228435 0)
(-0.024562 0.231485 0)
(-0.0260699 0.23579 0)
(-0.0277162 0.243247 0)
(-8.53683e-07 -0.000228494 0)
(-4.39432e-06 -0.000636965 0)
(-9.4224e-06 -0.000997617 0)
(-1.53628e-05 -0.0013156 0)
(-2.15084e-05 -0.00159509 0)
(-2.72087e-05 -0.00183669 0)
(-3.20142e-05 -0.00204088 0)
(-3.54222e-05 -0.00220828 0)
(-3.69961e-05 -0.00233948 0)
(-3.6318e-05 -0.00243508 0)
(-3.29788e-05 -0.00249562 0)
(-2.66117e-05 -0.00252137 0)
(-1.6854e-05 -0.0025126 0)
(-3.34705e-06 -0.00246919 0)
(1.43314e-05 -0.00239119 0)
(3.66117e-05 -0.00227818 0)
(6.39519e-05 -0.00213011 0)
(9.6733e-05 -0.00194615 0)
(0.00013602 -0.00172577 0)
(0.000184275 -0.00146695 0)
(0.000244737 -0.00116915 0)
(0.000320384 -0.000830796 0)
(0.00040964 -0.000457281 0)
(0.000507665 -1.94317e-05 0)
(0.000596445 0.000524198 0)
(0.000646042 0.00109076 0)
(0.000657819 0.00140857 0)
(0.000674831 0.00179846 0)
(0.00086466 0.00254107 0)
(0.00138522 0.00298926 0)
(0.00195485 0.00230191 0)
(0.00158948 0.000340848 0)
(0.000429866 0.00504744 0)
(-0.00114902 0.00435824 0)
(-0.00204034 -0.000982851 0)
(-0.00248171 -0.00087969 0)
(-0.00263314 -6.23322e-06 0)
(-0.000882637 0.0066371 0)
(0.00226757 0.0275598 0)
(0.00657307 0.0600063 0)
(0.011744 0.0971056 0)
(0.017228 0.133239 0)
(0.0225656 0.165846 0)
(0.0273476 0.194196 0)
(0.0312782 0.217698 0)
(0.0342827 0.23656 0)
(0.0363518 0.251397 0)
(0.0373946 0.261884 0)
(0.037524 0.268885 0)
(0.0370803 0.27325 0)
(-1.75654e-07 -0.000166284 0)
(-5.88025e-06 -0.000468758 0)
(-1.7198e-05 -0.000739631 0)
(-3.38417e-05 -0.000984546 0)
(-5.47076e-05 -0.00120749 0)
(-7.86846e-05 -0.00140713 0)
(-0.000104968 -0.00158252 0)
(-0.000132691 -0.00173344 0)
(-0.000161091 -0.00185985 0)
(-0.000189402 -0.001962 0)
(-0.000216884 -0.00204012 0)
(-0.000242793 -0.00209438 0)
(-0.000266411 -0.00212493 0)
(-0.000286985 -0.00213189 0)
(-0.000303792 -0.00211541 0)
(-0.000316044 -0.00207565 0)
(-0.000322985 -0.00201275 0)
(-0.000323767 -0.00192693 0)
(-0.000317572 -0.00181836 0)
(-0.000303407 -0.00168735 0)
(-0.000280351 -0.00153426 0)
(-0.00024721 -0.00135972 0)
(-0.000202915 -0.00116439 0)
(-0.000145752 -0.000948711 0)
(-7.40969e-05 -0.000713185 0)
(1.19095e-05 -0.00045804 0)
(0.00011107 -0.000183351 0)
(0.000220791 0.000127159 0)
(0.000341825 0.000522722 0)
(0.000450927 0.000774958 0)
(0.000540437 0.000885482 0)
(0.000592027 0.00103468 0)
(0.000668862 0.0015154 0)
(0.000917126 0.00142093 0)
(0.00114726 -0.000459764 0)
(0.00108641 0.000950147 0)
(0.000924775 0.000153223 0)
(0.00108033 -0.00148147 0)
(0.0016723 0.00015099 0)
(0.00309386 0.00277378 0)
(0.00630161 0.010618 0)
(0.0114348 0.0285295 0)
(0.0180782 0.056345 0)
(0.0259478 0.0897039 0)
(0.0346479 0.124172 0)
(0.0437271 0.157268 0)
(0.052768 0.187973 0)
(0.0613787 0.215693 0)
(0.0691609 0.239766 0)
(0.0759975 0.259853 0)
(-1.115e-06 -0.000132635 0)
(-7.99788e-06 -0.000379705 0)
(-2.00187e-05 -0.000601426 0)
(-3.69883e-05 -0.000803519 0)
(-5.78232e-05 -0.000991921 0)
(-8.16222e-05 -0.00116512 0)
(-0.000107724 -0.00132204 0)
(-0.000135374 -0.00146231 0)
(-0.000163969 -0.00158564 0)
(-0.000192879 -0.00169222 0)
(-0.000221487 -0.00178223 0)
(-0.000249188 -0.00185583 0)
(-0.000275373 -0.00191323 0)
(-0.000299447 -0.00195462 0)
(-0.000320815 -0.00198027 0)
(-0.000338889 -0.00199044 0)
(-0.000353079 -0.00198545 0)
(-0.000362798 -0.00196562 0)
(-0.000367457 -0.00193133 0)
(-0.000366475 -0.00188297 0)
(-0.000359267 -0.00182097 0)
(-0.000345271 -0.00174578 0)
(-0.00032394 -0.00165794 0)
(-0.000294755 -0.001558 0)
(-0.000257197 -0.00144659 0)
(-0.000210711 -0.00132445 0)
(-0.000154565 -0.00119217 0)
(-8.78352e-05 -0.00105046 0)
(-1.02472e-05 -0.000899679 0)
(7.65359e-05 -0.00074116 0)
(0.000170181 -0.000573058 0)
(0.000271787 -0.000371148 0)
(0.000380884 -0.000157216 0)
(0.000467242 -0.000121862 0)
(0.000501793 -0.000167012 0)
(0.000533119 -0.000174094 0)
(0.000626851 -0.000441228 0)
(0.000688146 -0.000786124 0)
(0.00066686 3.38838e-06 0)
(0.00066128 0.000712041 0)
(0.000799952 -7.1301e-05 0)
(0.00140285 -0.00352164 0)
(0.0031706 -0.0074126 0)
(0.00698135 -0.00595254 0)
(0.013407 0.00232091 0)
(0.0222176 0.0172348 0)
(0.0329386 0.0381321 0)
(0.0450814 0.0640672 0)
(0.0581323 0.0935828 0)
(0.0715485 0.12466 0)
(1.41153e-06 -0.000110835 0)
(6.45877e-07 -0.000294083 0)
(-3.38787e-06 -0.000445307 0)
(-1.087e-05 -0.000583912 0)
(-2.09195e-05 -0.000721301 0)
(-3.27707e-05 -0.000855247 0)
(-4.59898e-05 -0.000982893 0)
(-6.01171e-05 -0.00110258 0)
(-7.47685e-05 -0.00121337 0)
(-8.95168e-05 -0.00131524 0)
(-0.000103939 -0.00140821 0)
(-0.000117626 -0.00149228 0)
(-0.000130171 -0.0015674 0)
(-0.000141189 -0.00163356 0)
(-0.000150292 -0.00169077 0)
(-0.0001571 -0.00173909 0)
(-0.000161251 -0.00177866 0)
(-0.000162352 -0.00180964 0)
(-0.000160029 -0.00183228 0)
(-0.000153937 -0.00184684 0)
(-0.000143606 -0.00185363 0)
(-0.000128827 -0.00185295 0)
(-0.000108986 -0.00184495 0)
(-8.35455e-05 -0.00182991 0)
(-5.23495e-05 -0.00180789 0)
(-1.50844e-05 -0.00177927 0)
(2.87427e-05 -0.00174469 0)
(8.00371e-05 -0.00170528 0)
(0.000140689 -0.00166183 0)
(0.000212575 -0.00161485 0)
(0.000295654 -0.00156409 0)
(0.000386693 -0.00150907 0)
(0.000479823 -0.00145239 0)
(0.000574982 -0.00140807 0)
(0.000679243 -0.0013512 0)
(0.000768317 -0.0012578 0)
(0.000809742 -0.00116578 0)
(0.000798986 -0.00105879 0)
(0.000772275 -0.00102197 0)
(0.000792423 -0.00114619 0)
(0.00101972 -0.0012763 0)
(0.00155064 -0.00206736 0)
(0.00271646 -0.0169467 0)
(0.0042635 -0.0460131 0)
(0.00809493 -0.0745092 0)
(0.0137281 -0.0951449 0)
(0.0208192 -0.105678 0)
(0.0291478 -0.106269 0)
(0.0385445 -0.0978511 0)
(0.0489528 -0.08101 0)
(-2.19142e-06 -8.43455e-05 0)
(-5.9634e-06 -0.000220738 0)
(-1.21986e-05 -0.000346111 0)
(-1.77591e-05 -0.000477367 0)
(-2.24651e-05 -0.000614448 0)
(-2.66935e-05 -0.000750677 0)
(-3.00031e-05 -0.000882294 0)
(-3.23621e-05 -0.00100822 0)
(-3.33538e-05 -0.00112841 0)
(-3.26802e-05 -0.00124319 0)
(-3.00747e-05 -0.00135268 0)
(-2.52608e-05 -0.00145682 0)
(-1.8045e-05 -0.00155561 0)
(-8.21679e-06 -0.001649 0)
(4.36672e-06 -0.00173708 0)
(1.97888e-05 -0.00182001 0)
(3.82064e-05 -0.00189777 0)
(5.95538e-05 -0.0019706 0)
(8.37814e-05 -0.00203878 0)
(0.000111262 -0.00210179 0)
(0.000142521 -0.00216284 0)
(0.000180755 -0.00221634 0)
(0.000227604 -0.00226633 0)
(0.000285454 -0.00231565 0)
(0.000354651 -0.00235097 0)
(0.000429946 -0.00237545 0)
(0.000503995 -0.00239364 0)
(0.000574438 -0.00244312 0)
(0.000644232 -0.00253327 0)
(0.000717182 -0.00266002 0)
(0.000797219 -0.00283093 0)
(0.000866328 -0.00277073 0)
(0.000929237 -0.00256669 0)
(0.000983819 -0.00246356 0)
(0.000978228 -0.00242885 0)
(0.000981999 -0.00242269 0)
(0.00115183 -0.00229792 0)
(0.0017081 -0.000931308 0)
(0.00242373 -0.000273845 0)
(0.00306479 -0.0043747 0)
(0.00379834 -0.00733391 0)
(0.0053946 -0.0161703 0)
(0.00833927 -0.0409834 0)
(0.0117606 -0.082084 0)
(0.0145423 -0.120461 0)
(0.0168085 -0.146395 0)
(0.0187172 -0.159769 0)
(0.0204452 -0.163387 0)
(0.0222519 -0.160118 0)
(0.0244357 -0.15201 0)
(-1.27824e-06 -6.5708e-05 0)
(-1.18193e-06 -0.000208221 0)
(4.69629e-07 -0.000360429 0)
(5.23039e-06 -0.000512973 0)
(1.18179e-05 -0.000660107 0)
(1.95744e-05 -0.000803358 0)
(2.90724e-05 -0.000943901 0)
(4.03453e-05 -0.00108191 0)
(5.38808e-05 -0.00121718 0)
(6.97278e-05 -0.00134909 0)
(8.83706e-05 -0.00147686 0)
(0.000109539 -0.00159982 0)
(0.000133599 -0.00171708 0)
(0.000160955 -0.00182782 0)
(0.000190652 -0.00193105 0)
(0.000225683 -0.00202608 0)
(0.000266289 -0.0021124 0)
(0.00030993 -0.00219055 0)
(0.000367736 -0.00225951 0)
(0.000405717 -0.00231954 0)
(0.000476458 -0.00240857 0)
(0.000560492 -0.00256617 0)
(0.000545168 -0.00279605 0)
(0.00061351 -0.00313362 0)
(0.000751442 -0.00348638 0)
(0.000878352 -0.00350445 0)
(0.000942135 -0.003382 0)
(0.000902957 -0.00334763 0)
(0.000911694 -0.0034991 0)
(0.00090012 -0.00386764 0)
(0.000946017 -0.00441606 0)
(0.00123106 -0.00459268 0)
(0.00178746 -0.0041899 0)
(0.00267213 -0.00333167 0)
(0.00370694 -0.00129342 0)
(0.00441112 -0.00400056 0)
(0.00472177 -0.0108159 0)
(0.00522347 -0.0123164 0)
(0.00645266 -0.0133751 0)
(0.00809926 -0.0195157 0)
(0.0101932 -0.0327115 0)
(0.012585 -0.055401 0)
(0.0145392 -0.084256 0)
(0.0152554 -0.110192 0)
(0.0143844 -0.127367 0)
(0.0122379 -0.135707 0)
(0.00935534 -0.137845 0)
(0.00619753 -0.136553 0)
(0.00309419 -0.133683 0)
(0.000264505 -0.130073 0)
(-0.0223283 -0.0672414 0)
(-0.02645 -0.0610977 0)
(-0.0314033 -0.0483741 0)
(-0.0365958 -0.037189 0)
(-0.0427301 -0.0325841 0)
(-0.0494733 -0.0462414 0)
(-0.0558705 -0.0599673 0)
(-0.0625834 -0.0687163 0)
(-0.0689621 -0.0740212 0)
(-0.0752659 -0.0777112 0)
(-0.0814008 -0.0808543 0)
(-0.087409 -0.0839087 0)
(-0.0932962 -0.086647 0)
(-0.0990491 -0.0890276 0)
(-0.104719 -0.0911921 0)
(-0.110331 -0.0932868 0)
(-0.115903 -0.0954056 0)
(-0.121436 -0.0975531 0)
(-0.126933 -0.0996992 0)
(-0.132397 -0.101818 0)
(-0.137833 -0.103901 0)
(-0.143244 -0.105953 0)
(-0.148638 -0.107986 0)
(-0.154018 -0.110012 0)
(-0.159388 -0.11204 0)
(-0.16475 -0.11408 0)
(-0.170107 -0.116137 0)
(-0.17546 -0.118217 0)
(-0.18081 -0.120323 0)
(-0.186159 -0.122458 0)
(-0.191505 -0.124623 0)
(-0.19685 -0.12682 0)
(-0.202193 -0.129048 0)
(-0.207533 -0.131306 0)
(-0.212871 -0.133596 0)
(-0.218204 -0.135915 0)
(-0.223534 -0.138263 0)
(-0.228858 -0.140639 0)
(-0.234176 -0.143039 0)
(-0.239487 -0.145461 0)
(-0.244789 -0.147899 0)
(-0.250081 -0.150348 0)
(-0.255363 -0.152803 0)
(-0.260633 -0.155261 0)
(-0.26589 -0.157721 0)
(-0.271133 -0.160181 0)
(-0.27636 -0.16264 0)
(-0.281574 -0.165096 0)
(-0.286776 -0.167546 0)
(-0.291953 -0.169987 0)
(-0.0143207 -0.0126219 0)
(-0.0165608 -0.0136456 0)
(-0.0191562 0.00604769 0)
(-0.0209556 0.0152471 0)
(-0.0220169 0.021081 0)
(-0.0232945 0.0211779 0)
(-0.0263421 0.0210539 0)
(-0.030249 0.0185318 0)
(-0.0332017 0.0134632 0)
(-0.03765 0.00770617 0)
(-0.0431591 0.00180536 0)
(-0.0492692 -0.00390762 0)
(-0.0558861 -0.00896752 0)
(-0.0627714 -0.0133154 0)