/*--------------------------------*- C++ -*----------------------------------*\
| =========                 |                                                 |
| \\      /  F ield         | OpenFOAM: The Open Source CFD Toolbox           |
|  \\    /   O peration     | Version:  2.4.0                                 |
|   \\  /    A nd           | Web:      www.OpenFOAM.org                      |
|    \\/     M anipulation  |                                                 |
\*---------------------------------------------------------------------------*/
FoamFile
{
    version     2.0;
    format      ascii;
    class       volScalarField;
    location    "0.013";
    object      p;
}
// * * * * * * * * * * * * * * * * * * * * * * * * * * * * * * * * * * * * * //

dimensions      [1 -1 -2 0 0 0 0];

internalField   nonuniform List<scalar> 
125
(
-0.0514745
-0.0515659
-0.0516574
-0.0517492
-0.0518413
-0.0519336
-0.0520263
-0.0521191
-0.0522123
-0.0523057
-0.0523994
-0.0524934
-0.0525876
-0.0526821
-0.0527769
-0.052872
-0.0529673
-0.053063
-0.0531589
-0.053255
-0.0533515
-0.0534482
-0.0535453
-0.0536426
-0.0537402
-0.0538381
-0.0539362
-0.0540347
-0.0541334
-0.0542324
-0.0543317
-0.0544313
-0.0545312
-0.0546314
-0.0547319
-0.0548326
-0.0549337
-0.0550351
-0.0551367
-0.0552386
-0.0553409
-0.0554434
-0.0555463
-0.0556494
-0.0557528
-0.0558566
-0.0559606
-0.056065
-0.0561696
-0.0562746
-0.0563798
-0.0564854
-0.0565913
-0.0566975
-0.056804
-0.0569108
-0.0570179
-0.0571253
-0.0572331
-0.0573411
-0.0574495
-0.0575582
-0.0576672
-0.0577765
-0.0578862
-0.0579962
-0.0581064
-0.0582171
-0.058328
-0.0584393
-0.0585509
-0.0586628
-0.058775
-0.0588876
-0.0590005
-0.0591137
-0.0592273
-0.0593412
-0.0594554
-0.05957
-0.0596849
-0.0598002
-0.0599158
-0.0600317
-0.060148
-0.0602646
-0.0603816
-0.0604989
-0.0606165
-0.0607345
-0.0608529
-0.0609716
-0.0610906
-0.06121
-0.0613298
-0.0614499
-0.0615704
-0.0616912
-0.0618124
-0.0619339
-0.0620558
-0.0621781
-0.0623007
-0.0624237
-0.0625471
-0.0626708
-0.0627949
-0.0629194
-0.0630443
-0.0631695
-0.0632951
-0.063421
-0.0635474
-0.0636741
-0.0638012
-0.0639287
-0.0640566
-0.0641849
-0.0643135
-0.0644425
-0.064572
-0.0647018
-0.064832
-0.0649625
-0.0650935
)
;

boundaryField
{
    BotWall
    {
        type            calculated;
        value           nonuniform 0();
    }
    FreeStream
    {
        type            calculated;
        value           nonuniform 0();
    }
    FrontNBack
    {
        type            empty;
    }
    LeftSide
    {
        type            symmetryPlane;
    }
    RightSide
    {
        type            symmetryPlane;
    }
    procBoundary6to3
    {
        type            processor;
        value           nonuniform List<scalar> 
50
(
-0.06029
-0.0603999
-0.06051
-0.0606204
-0.0607312
-0.0608423
-0.0609537
-0.0610654
-0.0611775
-0.0612898
-0.0614025
-0.0615155
-0.0616289
-0.0617426
-0.0618565
-0.0619709
-0.0620855
-0.0622005
-0.0623158
-0.0624315
-0.0625475
-0.0626638
-0.0627805
-0.0628975
-0.0630148
-0.0631325
-0.0632505
-0.0633689
-0.0634876
-0.0636066
-0.063726
-0.0638458
-0.0639659
-0.0640864
-0.0642072
-0.0643283
-0.0644498
-0.0645717
-0.064694
-0.0648165
-0.0649395
-0.0650628
-0.0651865
-0.0653105
-0.0654349
-0.0655597
-0.0656849
-0.0658104
-0.0659363
-0.0660625
)
;
    }
    procBoundary6to4
    {
        type            processor;
        value           nonuniform List<scalar> 
75
(
-0.052867
-0.0529561
-0.0530455
-0.0531351
-0.053225
-0.0533151
-0.0534054
-0.053496
-0.0535869
-0.053678
-0.0537694
-0.053861
-0.0539529
-0.054045
-0.0541374
-0.05423
-0.0543229
-0.0544161
-0.0545095
-0.0546032
-0.0546971
-0.0547914
-0.0548858
-0.0549805
-0.0550755
-0.0551708
-0.0552663
-0.0553621
-0.0554582
-0.0555545
-0.0556511
-0.0557479
-0.0558451
-0.0559425
-0.0560402
-0.0561381
-0.0562363
-0.0563348
-0.0564336
-0.0565326
-0.056632
-0.0567316
-0.0568315
-0.0569316
-0.0570321
-0.0571328
-0.0572338
-0.0573351
-0.0574367
-0.0575385
-0.0576407
-0.0577431
-0.0578458
-0.0579488
-0.0580522
-0.0581557
-0.0582596
-0.0583638
-0.0584683
-0.0585731
-0.0586781
-0.0587835
-0.0588891
-0.0589951
-0.0591014
-0.0592079
-0.0593148
-0.0594219
-0.0595294
-0.0596372
-0.0597453
-0.0598536
-0.0599623
-0.0600713
-0.0601805
)
;
    }
    procBoundary6to5
    {
        type            processor;
        value           uniform -0.0652248;
    }
    procBoundary6to7
    {
        type            processor;
        value           uniform -0.0513834;
    }
    procBoundary6to8
    {
        type            processor;
        value           nonuniform List<scalar> 
75
(
-0.062386
-0.0624601
-0.0625345
-0.0626092
-0.0626842
-0.0627596
-0.0628353
-0.0629114
-0.0629878
-0.0630646
-0.0631417
-0.0632192
-0.0632971
-0.0633753
-0.0634538
-0.0635327
-0.063612
-0.0636916
-0.0637716
-0.063852
-0.0639327
-0.0640138
-0.0640953
-0.0641771
-0.0642594
-0.0643419
-0.0644249
-0.0645082
-0.064592
-0.0646761
-0.0647605
-0.0648454
-0.0649306
-0.0650163
-0.0651023
-0.0651887
-0.0652755
-0.0653627
-0.0654502
-0.0655382
-0.0656266
-0.0657153
-0.0658045
-0.0658941
-0.065984
-0.0660744
-0.0661652
-0.0662564
-0.0663479
-0.0664399
-0.0665324
-0.0666252
-0.0667184
-0.0668121
-0.0669061
-0.0670006
-0.0670955
-0.0671909
-0.0672866
-0.0673828
-0.0674794
-0.0675764
-0.0676739
-0.0677718
-0.0678701
-0.0679689
-0.068068
-0.0681677
-0.0682678
-0.0683683
-0.0684692
-0.0685706
-0.0686725
-0.0687748
-0.0688775
)
;
    }
    procBoundary6to9
    {
        type            processor;
        value           nonuniform List<scalar> 
50
(
-0.0590793
-0.0591383
-0.0591975
-0.0592569
-0.0593167
-0.0593767
-0.059437
-0.0594976
-0.0595585
-0.0596197
-0.0596811
-0.0597428
-0.0598048
-0.0598671
-0.0599297
-0.0599926
-0.0600558
-0.0601192
-0.060183
-0.060247
-0.0603114
-0.060376
-0.060441
-0.0605062
-0.0605718
-0.0606376
-0.0607038
-0.0607702
-0.060837
-0.0609041
-0.0609715
-0.0610392
-0.0611072
-0.0611755
-0.0612441
-0.0613131
-0.0613824
-0.061452
-0.0615219
-0.0615921
-0.0616627
-0.0617335
-0.0618048
-0.0618763
-0.0619482
-0.0620204
-0.0620929
-0.0621657
-0.0622389
-0.0623123
)
;
    }
}


// ************************************************************************* //
