/*--------------------------------*- C++ -*----------------------------------*\
| =========                 |                                                 |
| \\      /  F ield         | OpenFOAM: The Open Source CFD Toolbox           |
|  \\    /   O peration     | Version:  2.4.0                                 |
|   \\  /    A nd           | Web:      www.OpenFOAM.org                      |
|    \\/     M anipulation  |                                                 |
\*---------------------------------------------------------------------------*/
FoamFile
{
    version     2.0;
    format      ascii;
    class       volScalarField;
    location    "0.013";
    object      p_rgh;
}
// * * * * * * * * * * * * * * * * * * * * * * * * * * * * * * * * * * * * * //

dimensions      [1 -1 -2 0 0 0 0];

internalField   nonuniform List<scalar> 
125
(
-0.0471046
-0.0470161
-0.0469272
-0.0468378
-0.0467481
-0.0466579
-0.0465673
-0.0464763
-0.046385
-0.0462932
-0.046201
-0.0461083
-0.0460153
-0.0459219
-0.045828
-0.0457338
-0.0456391
-0.045544
-0.0454484
-0.0453525
-0.0452561
-0.0451592
-0.045062
-0.0449643
-0.0448662
-0.0447677
-0.0446687
-0.0445692
-0.0444694
-0.0443691
-0.0442683
-0.0441671
-0.0440654
-0.0439633
-0.0438608
-0.0437578
-0.0436543
-0.0435504
-0.043446
-0.0433411
-0.0432358
-0.04313
-0.0430238
-0.0429171
-0.0428099
-0.0427022
-0.0425941
-0.0424854
-0.0423763
-0.0422668
-0.0421567
-0.0420461
-0.0419351
-0.0418236
-0.0417116
-0.041599
-0.041486
-0.0413725
-0.0412585
-0.041144
-0.041029
-0.0409135
-0.0407975
-0.0406809
-0.0405639
-0.0404463
-0.0403283
-0.0402097
-0.0400906
-0.0399709
-0.0398508
-0.0397301
-0.0396089
-0.0394872
-0.0393649
-0.0392421
-0.0391187
-0.0389949
-0.0388704
-0.0387455
-0.03862
-0.0384939
-0.0383673
-0.0382402
-0.0381125
-0.0379842
-0.0378554
-0.037726
-0.0375961
-0.0374656
-0.0373345
-0.0372029
-0.0370707
-0.0369379
-0.0368045
-0.0366706
-0.0365361
-0.036401
-0.0362653
-0.0361291
-0.0359922
-0.0358548
-0.0357168
-0.0355782
-0.035439
-0.0352991
-0.0351587
-0.0350177
-0.0348761
-0.0347339
-0.034591
-0.0344476
-0.0343035
-0.0341588
-0.0340135
-0.0338676
-0.0337211
-0.0335739
-0.0334261
-0.0332777
-0.0331286
-0.0329789
-0.0328286
-0.0326776
-0.0325259
)
;

boundaryField
{
    BotWall
    {
        type            fixedFluxPressure;
        gradient        nonuniform 0();
        value           nonuniform 0();
    }
    FreeStream
    {
        type            totalPressure;
        rho             rho;
        psi             none;
        gamma           1;
        p0              nonuniform 0();
        value           nonuniform 0();
    }
    FrontNBack
    {
        type            empty;
    }
    LeftSide
    {
        type            symmetryPlane;
    }
    RightSide
    {
        type            symmetryPlane;
    }
    procBoundary6to3
    {
        type            processor;
        value           nonuniform List<scalar> 
50
(
-0.0404184
-0.0402913
-0.0401636
-0.0400354
-0.0399067
-0.0397773
-0.0396474
-0.039517
-0.0393859
-0.0392543
-0.0391221
-0.0389894
-0.038856
-0.0387221
-0.0385876
-0.0384525
-0.0383168
-0.0381806
-0.0380437
-0.0379063
-0.0377682
-0.0376295
-0.0374903
-0.0373504
-0.03721
-0.0370689
-0.0369272
-0.0367849
-0.036642
-0.0364985
-0.0363544
-0.0362096
-0.0360642
-0.0359182
-0.0357715
-0.0356243
-0.0354764
-0.0353278
-0.0351786
-0.0350288
-0.0348784
-0.0347273
-0.0345755
-0.0344231
-0.0342701
-0.0341164
-0.033962
-0.033807
-0.0336513
-0.033495
)
;
    }
    procBoundary6to4
    {
        type            processor;
        value           nonuniform List<scalar> 
75
(
-0.0484971
-0.0484064
-0.0483153
-0.0482237
-0.0481317
-0.0480393
-0.0479465
-0.0478532
-0.0477596
-0.0476655
-0.0475709
-0.047476
-0.0473806
-0.0472848
-0.0471885
-0.0470918
-0.0469947
-0.0468971
-0.0467991
-0.0467006
-0.0466017
-0.0465024
-0.0464025
-0.0463023
-0.0462016
-0.0461004
-0.0459988
-0.0458967
-0.0457941
-0.0456911
-0.0455876
-0.0454837
-0.0453793
-0.0452744
-0.045169
-0.0450632
-0.0449569
-0.0448501
-0.0447429
-0.0446351
-0.0445269
-0.0444182
-0.044309
-0.0441993
-0.0440891
-0.0439784
-0.0438672
-0.0437555
-0.0436434
-0.0435307
-0.0434175
-0.0433038
-0.0431896
-0.043075
-0.0429597
-0.042844
-0.0427278
-0.042611
-0.0424937
-0.0423759
-0.0422576
-0.0421388
-0.0420194
-0.0418995
-0.0417791
-0.0416581
-0.0415366
-0.0414146
-0.041292
-0.0411689
-0.0410452
-0.040921
-0.0407962
-0.0406708
-0.0405449
)
;
    }
    procBoundary6to5
    {
        type            processor;
        value           uniform -0.0323736;
    }
    procBoundary6to7
    {
        type            processor;
        value           uniform -0.0471927;
    }
    procBoundary6to8
    {
        type            processor;
        value           nonuniform List<scalar> 
75
(
-0.0481629
-0.0480208
-0.0478783
-0.0477353
-0.0475918
-0.0474478
-0.0473035
-0.0471586
-0.0470133
-0.0468675
-0.0467212
-0.0465745
-0.0464273
-0.0462797
-0.0461315
-0.0459829
-0.0458338
-0.0456843
-0.0455342
-0.0453837
-0.0452327
-0.0450812
-0.0449292
-0.0447767
-0.0446237
-0.0444703
-0.0443163
-0.0441619
-0.044007
-0.0438515
-0.0436956
-0.0435391
-0.0433822
-0.0432247
-0.0430668
-0.0429083
-0.0427493
-0.0425898
-0.0424298
-0.0422693
-0.0421082
-0.0419466
-0.0417846
-0.0416219
-0.0414588
-0.0412951
-0.0411309
-0.0409662
-0.0408009
-0.0406351
-0.0404688
-0.0403019
-0.0401345
-0.0399665
-0.039798
-0.0396289
-0.0394593
-0.0392892
-0.0391184
-0.0389472
-0.0387753
-0.0386029
-0.03843
-0.0382565
-0.0380824
-0.0379077
-0.0377325
-0.0375567
-0.0373803
-0.0372034
-0.0370259
-0.0368478
-0.0366691
-0.0364898
-0.0363099
)
;
    }
    procBoundary6to9
    {
        type            processor;
        value           nonuniform List<scalar> 
50
(
-0.0547095
-0.0545885
-0.0544672
-0.0543455
-0.0542235
-0.054101
-0.0539781
-0.0538548
-0.0537312
-0.0536071
-0.0534827
-0.0533578
-0.0532326
-0.0531069
-0.0529808
-0.0528544
-0.0527275
-0.0526002
-0.0524725
-0.0523445
-0.0522159
-0.052087
-0.0519577
-0.051828
-0.0516978
-0.0515672
-0.0514362
-0.0513048
-0.051173
-0.0510407
-0.050908
-0.0507749
-0.0506414
-0.0505074
-0.050373
-0.0502382
-0.0501029
-0.0499673
-0.0498311
-0.0496946
-0.0495576
-0.0494201
-0.0492823
-0.0491439
-0.0490052
-0.048866
-0.0487263
-0.0485862
-0.0484456
-0.0483045
)
;
    }
}


// ************************************************************************* //
