/*--------------------------------*- C++ -*----------------------------------*\
| =========                 |                                                 |
| \\      /  F ield         | OpenFOAM: The Open Source CFD Toolbox           |
|  \\    /   O peration     | Version:  2.4.0                                 |
|   \\  /    A nd           | Web:      www.OpenFOAM.org                      |
|    \\/     M anipulation  |                                                 |
\*---------------------------------------------------------------------------*/
FoamFile
{
    version     2.0;
    format      ascii;
    class       volVectorField;
    location    "0.013";
    object      U;
}
// * * * * * * * * * * * * * * * * * * * * * * * * * * * * * * * * * * * * * //

dimensions      [0 1 -1 0 0 0 0];

internalField   nonuniform List<vector> 
125
(
(-0.000189736 -0.014679 0)
(-0.000187188 -0.0146781 0)
(-0.000183817 -0.0146772 0)
(-0.000179808 -0.0146763 0)
(-0.000175337 -0.0146755 0)
(-0.000170566 -0.0146746 0)
(-0.000165639 -0.0146738 0)
(-0.000160682 -0.014673 0)
(-0.000155798 -0.0146722 0)
(-0.000151073 -0.0146714 0)
(-0.00014657 -0.0146707 0)
(-0.000142337 -0.01467 0)
(-0.000138405 -0.0146693 0)
(-0.000134789 -0.0146686 0)
(-0.000131494 -0.0146679 0)
(-0.000128514 -0.0146672 0)
(-0.000125836 -0.0146666 0)
(-0.000123442 -0.0146659 0)
(-0.000121308 -0.0146653 0)
(-0.000119412 -0.0146646 0)
(-0.000117725 -0.014664 0)
(-0.000116224 -0.0146634 0)
(-0.000114883 -0.0146628 0)
(-0.000113679 -0.0146622 0)
(-0.000112591 -0.0146616 0)
(-0.000111598 -0.014661 0)
(-0.000110685 -0.0146604 0)
(-0.000109837 -0.0146598 0)
(-0.000109039 -0.0146592 0)
(-0.000108282 -0.0146586 0)
(-0.000107557 -0.014658 0)
(-0.000106856 -0.0146574 0)
(-0.000106174 -0.0146569 0)
(-0.000105505 -0.0146563 0)
(-0.000104845 -0.0146557 0)
(-0.000104192 -0.0146551 0)
(-0.000103544 -0.0146545 0)
(-0.000102898 -0.014654 0)
(-0.000102254 -0.0146534 0)
(-0.000101611 -0.0146528 0)
(-0.000100969 -0.0146522 0)
(-0.000100326 -0.0146516 0)
(-9.96826e-05 -0.0146511 0)
(-9.90391e-05 -0.0146505 0)
(-9.83954e-05 -0.0146499 0)
(-9.77513e-05 -0.0146494 0)
(-9.71072e-05 -0.0146488 0)
(-9.64631e-05 -0.0146482 0)
(-9.58192e-05 -0.0146477 0)
(-9.51756e-05 -0.0146471 0)
(-9.45326e-05 -0.0146465 0)
(-9.38903e-05 -0.014646 0)
(-9.32489e-05 -0.0146454 0)
(-9.26085e-05 -0.0146449 0)
(-9.19693e-05 -0.0146443 0)
(-9.13314e-05 -0.0146438 0)
(-9.0695e-05 -0.0146432 0)
(-9.00601e-05 -0.0146427 0)
(-8.9427e-05 -0.0146421 0)
(-8.87957e-05 -0.0146416 0)
(-8.81662e-05 -0.014641 0)
(-8.75388e-05 -0.0146405 0)
(-8.69134e-05 -0.0146399 0)
(-8.62902e-05 -0.0146394 0)
(-8.56692e-05 -0.0146389 0)
(-8.50505e-05 -0.0146383 0)
(-8.44341e-05 -0.0146378 0)
(-8.38201e-05 -0.0146372 0)
(-8.32085e-05 -0.0146367 0)
(-8.25994e-05 -0.0146362 0)
(-8.19927e-05 -0.0146357 0)
(-8.13886e-05 -0.0146351 0)
(-8.07871e-05 -0.0146346 0)
(-8.01881e-05 -0.0146341 0)
(-7.95917e-05 -0.0146336 0)
(-7.89979e-05 -0.014633 0)
(-7.84067e-05 -0.0146325 0)
(-7.78181e-05 -0.014632 0)
(-7.72321e-05 -0.0146315 0)
(-7.66488e-05 -0.014631 0)
(-7.6068e-05 -0.0146305 0)
(-7.54899e-05 -0.0146299 0)
(-7.49144e-05 -0.0146294 0)
(-7.43416e-05 -0.0146289 0)
(-7.37713e-05 -0.0146284 0)
(-7.32036e-05 -0.0146279 0)
(-7.26386e-05 -0.0146274 0)
(-7.20762e-05 -0.0146269 0)
(-7.15163e-05 -0.0146264 0)
(-7.0959e-05 -0.0146259 0)
(-7.04043e-05 -0.0146254 0)
(-6.98522e-05 -0.0146249 0)
(-6.93026e-05 -0.0146245 0)
(-6.87556e-05 -0.014624 0)
(-6.82111e-05 -0.0146235 0)
(-6.76691e-05 -0.014623 0)
(-6.71297e-05 -0.0146225 0)
(-6.65927e-05 -0.014622 0)
(-6.60582e-05 -0.0146216 0)
(-6.55262e-05 -0.0146211 0)
(-6.49967e-05 -0.0146206 0)
(-6.44697e-05 -0.0146201 0)
(-6.39451e-05 -0.0146196 0)
(-6.34229e-05 -0.0146192 0)
(-6.29031e-05 -0.0146187 0)
(-6.23858e-05 -0.0146182 0)
(-6.18709e-05 -0.0146178 0)
(-6.13583e-05 -0.0146173 0)
(-6.08482e-05 -0.0146169 0)
(-6.03404e-05 -0.0146164 0)
(-5.98349e-05 -0.0146159 0)
(-5.93319e-05 -0.0146155 0)
(-5.88311e-05 -0.014615 0)
(-5.83327e-05 -0.0146146 0)
(-5.78366e-05 -0.0146141 0)
(-5.73428e-05 -0.0146137 0)
(-5.68513e-05 -0.0146132 0)
(-5.63621e-05 -0.0146128 0)
(-5.58752e-05 -0.0146123 0)
(-5.53905e-05 -0.0146119 0)
(-5.4908e-05 -0.0146115 0)
(-5.44279e-05 -0.014611 0)
(-5.39499e-05 -0.0146106 0)
(-5.34741e-05 -0.0146102 0)
(-5.30006e-05 -0.0146097 0)
)
;

boundaryField
{
    BotWall
    {
        type            fixedValue;
        value           nonuniform 0();
    }
    FreeStream
    {
        type            zeroGradient;
    }
    FrontNBack
    {
        type            empty;
    }
    LeftSide
    {
        type            symmetryPlane;
    }
    RightSide
    {
        type            symmetryPlane;
    }
    procBoundary6to3
    {
        type            processor;
        value           nonuniform List<vector> 
50
(
(0.000112538 -0.0146142 0)
(0.000111822 -0.0146136 0)
(0.000111109 -0.0146131 0)
(0.000110398 -0.0146125 0)
(0.000109689 -0.014612 0)
(0.000108983 -0.0146115 0)
(0.000108279 -0.0146109 0)
(0.000107577 -0.0146104 0)
(0.000106877 -0.0146099 0)
(0.00010618 -0.0146093 0)
(0.000105485 -0.0146088 0)
(0.000104792 -0.0146083 0)
(0.000104102 -0.0146077 0)
(0.000103413 -0.0146072 0)
(0.000102726 -0.0146067 0)
(0.000102042 -0.0146062 0)
(0.00010136 -0.0146057 0)
(0.000100679 -0.0146051 0)
(0.000100001 -0.0146046 0)
(9.93247e-05 -0.0146041 0)
(9.86503e-05 -0.0146036 0)
(9.79778e-05 -0.0146031 0)
(9.73073e-05 -0.0146026 0)
(9.66386e-05 -0.0146021 0)
(9.59718e-05 -0.0146016 0)
(9.53069e-05 -0.0146011 0)
(9.46438e-05 -0.0146006 0)
(9.39825e-05 -0.0146001 0)
(9.3323e-05 -0.0145996 0)
(9.26653e-05 -0.0145991 0)
(9.20093e-05 -0.0145986 0)
(9.13552e-05 -0.0145981 0)
(9.07027e-05 -0.0145977 0)
(9.0052e-05 -0.0145972 0)
(8.9403e-05 -0.0145967 0)
(8.87558e-05 -0.0145962 0)
(8.81102e-05 -0.0145957 0)
(8.74663e-05 -0.0145953 0)
(8.68241e-05 -0.0145948 0)
(8.61836e-05 -0.0145943 0)
(8.55447e-05 -0.0145939 0)
(8.49075e-05 -0.0145934 0)
(8.42719e-05 -0.0145929 0)
(8.3638e-05 -0.0145925 0)
(8.30057e-05 -0.014592 0)
(8.23751e-05 -0.0145916 0)
(8.1746e-05 -0.0145911 0)
(8.11186e-05 -0.0145907 0)
(8.04928e-05 -0.0145902 0)
(7.98686e-05 -0.0145898 0)
)
;
    }
    procBoundary6to4
    {
        type            processor;
        value           nonuniform List<vector> 
75
(
(0.000257413 -0.0146634 0)
(0.000253634 -0.0146625 0)
(0.000248783 -0.0146615 0)
(0.000243114 -0.0146605 0)
(0.000236867 -0.0146596 0)
(0.00023026 -0.0146586 0)
(0.000223487 -0.0146577 0)
(0.000216715 -0.0146569 0)
(0.00021008 -0.014656 0)
(0.000203693 -0.0146552 0)
(0.000197636 -0.0146544 0)
(0.000191968 -0.0146536 0)
(0.000186725 -0.0146528 0)
(0.000181926 -0.0146521 0)
(0.000177571 -0.0146513 0)
(0.00017365 -0.0146506 0)
(0.000170143 -0.0146499 0)
(0.000167021 -0.0146492 0)
(0.000164253 -0.0146485 0)
(0.000161803 -0.0146478 0)
(0.000159636 -0.0146472 0)
(0.000157716 -0.0146465 0)
(0.00015601 -0.0146459 0)
(0.000154486 -0.0146452 0)
(0.000153116 -0.0146446 0)
(0.000151873 -0.0146439 0)
(0.000150735 -0.0146433 0)
(0.000149682 -0.0146426 0)
(0.000148697 -0.014642 0)
(0.000147765 -0.0146414 0)
(0.000146876 -0.0146407 0)
(0.00014602 -0.0146401 0)
(0.000145188 -0.0146395 0)
(0.000144374 -0.0146389 0)
(0.000143574 -0.0146382 0)
(0.000142783 -0.0146376 0)
(0.000141999 -0.014637 0)
(0.00014122 -0.0146364 0)
(0.000140443 -0.0146358 0)
(0.000139669 -0.0146351 0)
(0.000138895 -0.0146345 0)
(0.000138122 -0.0146339 0)
(0.00013735 -0.0146333 0)
(0.000136577 -0.0146327 0)
(0.000135805 -0.0146321 0)
(0.000135033 -0.0146315 0)
(0.000134261 -0.0146309 0)
(0.00013349 -0.0146303 0)
(0.000132719 -0.0146297 0)
(0.000131948 -0.0146291 0)
(0.000131179 -0.0146285 0)
(0.00013041 -0.0146279 0)
(0.000129643 -0.0146273 0)
(0.000128877 -0.0146267 0)
(0.000128113 -0.0146261 0)
(0.00012735 -0.0146255 0)
(0.000126588 -0.0146249 0)
(0.000125829 -0.0146244 0)
(0.000125071 -0.0146238 0)
(0.000124316 -0.0146232 0)
(0.000123562 -0.0146226 0)
(0.000122811 -0.014622 0)
(0.000122062 -0.0146215 0)
(0.000121315 -0.0146209 0)
(0.00012057 -0.0146203 0)
(0.000119828 -0.0146198 0)
(0.000119088 -0.0146192 0)
(0.000118351 -0.0146186 0)
(0.000117615 -0.0146181 0)
(0.000116883 -0.0146175 0)
(0.000116152 -0.0146169 0)
(0.000115425 -0.0146164 0)
(0.000114699 -0.0146158 0)
(0.000113976 -0.0146153 0)
(0.000113256 -0.0146147 0)
)
;
    }
    procBoundary6to5
    {
        type            processor;
        value           uniform (-5.25292e-05 -0.0146093 0);
    }
    procBoundary6to7
    {
        type            processor;
        value           uniform (-0.000191271 -0.01468 0);
    }
    procBoundary6to8
    {
        type            processor;
        value           nonuniform List<vector> 
75
(
(-6.25901e-05 -0.0144472 0)
(-6.21817e-05 -0.0144477 0)
(-6.17733e-05 -0.0144482 0)
(-6.13648e-05 -0.0144487 0)
(-6.09565e-05 -0.0144491 0)
(-6.05485e-05 -0.0144496 0)
(-6.01409e-05 -0.0144501 0)
(-5.97338e-05 -0.0144505 0)
(-5.93274e-05 -0.014451 0)
(-5.89218e-05 -0.0144515 0)
(-5.8517e-05 -0.0144519 0)
(-5.81131e-05 -0.0144524 0)
(-5.77103e-05 -0.0144528 0)
(-5.73086e-05 -0.0144533 0)
(-5.69081e-05 -0.0144537 0)
(-5.65089e-05 -0.0144542 0)
(-5.6111e-05 -0.0144546 0)
(-5.57144e-05 -0.0144551 0)
(-5.53193e-05 -0.0144555 0)
(-5.49257e-05 -0.014456 0)
(-5.45336e-05 -0.0144564 0)
(-5.4143e-05 -0.0144569 0)
(-5.37541e-05 -0.0144573 0)
(-5.33668e-05 -0.0144578 0)
(-5.29812e-05 -0.0144582 0)
(-5.25972e-05 -0.0144586 0)
(-5.2215e-05 -0.0144591 0)
(-5.18345e-05 -0.0144595 0)
(-5.14557e-05 -0.0144599 0)
(-5.10787e-05 -0.0144604 0)
(-5.07035e-05 -0.0144608 0)
(-5.033e-05 -0.0144612 0)
(-4.99584e-05 -0.0144616 0)
(-4.95886e-05 -0.0144621 0)
(-4.92205e-05 -0.0144625 0)
(-4.88543e-05 -0.0144629 0)
(-4.84899e-05 -0.0144633 0)
(-4.81273e-05 -0.0144637 0)
(-4.77665e-05 -0.0144642 0)
(-4.74075e-05 -0.0144646 0)
(-4.70503e-05 -0.014465 0)
(-4.66949e-05 -0.0144654 0)
(-4.63413e-05 -0.0144658 0)
(-4.59895e-05 -0.0144662 0)
(-4.56395e-05 -0.0144666 0)
(-4.52913e-05 -0.014467 0)
(-4.49448e-05 -0.0144674 0)
(-4.46001e-05 -0.0144678 0)
(-4.42571e-05 -0.0144682 0)
(-4.39159e-05 -0.0144686 0)
(-4.35765e-05 -0.014469 0)
(-4.32387e-05 -0.0144694 0)
(-4.29027e-05 -0.0144698 0)
(-4.25684e-05 -0.0144702 0)
(-4.22359e-05 -0.0144706 0)
(-4.1905e-05 -0.014471 0)
(-4.15758e-05 -0.0144713 0)
(-4.12483e-05 -0.0144717 0)
(-4.09225e-05 -0.0144721 0)
(-4.05983e-05 -0.0144725 0)
(-4.02757e-05 -0.0144728 0)
(-3.99548e-05 -0.0144732 0)
(-3.96355e-05 -0.0144736 0)
(-3.93179e-05 -0.014474 0)
(-3.90018e-05 -0.0144743 0)
(-3.86873e-05 -0.0144747 0)
(-3.83744e-05 -0.0144751 0)
(-3.8063e-05 -0.0144754 0)
(-3.77532e-05 -0.0144758 0)
(-3.7445e-05 -0.0144762 0)
(-3.71382e-05 -0.0144765 0)
(-3.6833e-05 -0.0144769 0)
(-3.65293e-05 -0.0144772 0)
(-3.62271e-05 -0.0144776 0)
(-3.59263e-05 -0.0144779 0)
)
;
    }
    procBoundary6to9
    {
        type            processor;
        value           nonuniform List<vector> 
50
(
(-0.000113623 -0.0144198 0)
(-0.000112887 -0.0144206 0)
(-0.000111609 -0.0144214 0)
(-0.000109892 -0.0144221 0)
(-0.000107838 -0.0144228 0)
(-0.00010554 -0.0144235 0)
(-0.000103084 -0.0144242 0)
(-0.000100546 -0.0144249 0)
(-9.79915e-05 -0.0144256 0)
(-9.54754e-05 -0.0144262 0)
(-9.30414e-05 -0.0144268 0)
(-9.07227e-05 -0.0144274 0)
(-8.85432e-05 -0.014428 0)
(-8.65181e-05 -0.0144286 0)
(-8.46555e-05 -0.0144292 0)
(-8.29569e-05 -0.0144297 0)
(-8.1419e-05 -0.0144303 0)
(-8.00348e-05 -0.0144308 0)
(-7.87942e-05 -0.0144314 0)
(-7.76853e-05 -0.0144319 0)
(-7.6695e-05 -0.0144324 0)
(-7.58101e-05 -0.0144329 0)
(-7.50171e-05 -0.0144335 0)
(-7.43032e-05 -0.014434 0)
(-7.36565e-05 -0.0144345 0)
(-7.30659e-05 -0.014435 0)
(-7.25216e-05 -0.0144355 0)
(-7.20149e-05 -0.014436 0)
(-7.15381e-05 -0.0144365 0)
(-7.10848e-05 -0.014437 0)
(-7.06496e-05 -0.0144375 0)
(-7.0228e-05 -0.014438 0)
(-6.98163e-05 -0.0144385 0)
(-6.94115e-05 -0.014439 0)
(-6.90113e-05 -0.0144395 0)
(-6.8614e-05 -0.01444 0)
(-6.82181e-05 -0.0144405 0)
(-6.78226e-05 -0.014441 0)
(-6.74268e-05 -0.0144415 0)
(-6.70303e-05 -0.0144419 0)
(-6.66326e-05 -0.0144424 0)
(-6.62336e-05 -0.0144429 0)
(-6.58332e-05 -0.0144434 0)
(-6.54315e-05 -0.0144439 0)
(-6.50285e-05 -0.0144444 0)
(-6.46242e-05 -0.0144449 0)
(-6.42189e-05 -0.0144453 0)
(-6.38127e-05 -0.0144458 0)
(-6.34057e-05 -0.0144463 0)
(-6.29981e-05 -0.0144468 0)
)
;
    }
}


// ************************************************************************* //
