/*--------------------------------*- C++ -*----------------------------------*\
| =========                 |                                                 |
| \\      /  F ield         | OpenFOAM: The Open Source CFD Toolbox           |
|  \\    /   O peration     | Version:  2.4.0                                 |
|   \\  /    A nd           | Web:      www.OpenFOAM.org                      |
|    \\/     M anipulation  |                                                 |
\*---------------------------------------------------------------------------*/
FoamFile
{
    version     2.0;
    format      ascii;
    class       volVectorField;
    location    "0.1";
    object      U;
}
// * * * * * * * * * * * * * * * * * * * * * * * * * * * * * * * * * * * * * //

dimensions      [0 1 -1 0 0 0 0];

internalField   nonuniform List<vector> 
125
(
(2.29484e-08 -0.00711245 0)
(-2.75212e-07 -0.00711243 0)
(-2.97222e-07 -0.00711254 0)
(-1.36455e-07 -0.00711255 0)
(-1.62138e-07 -0.00711256 0)
(2.02292e-08 -0.00711244 0)
(-2.82156e-07 -0.00711242 0)
(-3.0403e-07 -0.00711255 0)
(-1.3967e-07 -0.00711255 0)
(-1.62901e-07 -0.00711256 0)
(1.74734e-08 -0.00711244 0)
(-2.88989e-07 -0.00711242 0)
(-3.10725e-07 -0.00711255 0)
(-1.4288e-07 -0.00711255 0)
(-1.63612e-07 -0.00711256 0)
(1.46872e-08 -0.00711244 0)
(-2.95697e-07 -0.00711242 0)
(-3.17295e-07 -0.00711255 0)
(-1.46078e-07 -0.00711255 0)
(-1.64274e-07 -0.00711257 0)
(1.1877e-08 -0.00711243 0)
(-3.0227e-07 -0.00711241 0)
(-3.23729e-07 -0.00711255 0)
(-1.4926e-07 -0.00711256 0)
(-1.64885e-07 -0.00711257 0)
(9.04879e-09 -0.00711243 0)
(-3.08694e-07 -0.00711241 0)
(-3.30014e-07 -0.00711255 0)
(-1.5242e-07 -0.00711256 0)
(-1.65447e-07 -0.00711258 0)
(6.20852e-09 -0.00711243 0)
(-3.14958e-07 -0.0071124 0)
(-3.36141e-07 -0.00711255 0)
(-1.55553e-07 -0.00711256 0)
(-1.65959e-07 -0.00711258 0)
(3.36201e-09 -0.00711242 0)
(-3.21052e-07 -0.0071124 0)
(-3.42098e-07 -0.00711256 0)
(-1.58654e-07 -0.00711256 0)
(-1.66423e-07 -0.00711258 0)
(5.1492e-10 -0.00711242 0)
(-3.26964e-07 -0.00711239 0)
(-3.47875e-07 -0.00711256 0)
(-1.61718e-07 -0.00711256 0)
(-1.66839e-07 -0.00711259 0)
(-2.32725e-09 -0.00711241 0)
(-3.32685e-07 -0.00711239 0)
(-3.53462e-07 -0.00711256 0)
(-1.64738e-07 -0.00711257 0)
(-1.67206e-07 -0.00711259 0)
(-5.15914e-09 -0.00711241 0)
(-3.38206e-07 -0.00711238 0)
(-3.58851e-07 -0.00711256 0)
(-1.67711e-07 -0.00711257 0)
(-1.67526e-07 -0.0071126 0)
(-7.97558e-09 -0.0071124 0)
(-3.43517e-07 -0.00711238 0)
(-3.64033e-07 -0.00711257 0)
(-1.70631e-07 -0.00711257 0)
(-1.67799e-07 -0.0071126 0)
(-1.07715e-08 -0.0071124 0)
(-3.48611e-07 -0.00711238 0)
(-3.68999e-07 -0.00711257 0)
(-1.73493e-07 -0.00711258 0)
(-1.68024e-07 -0.00711261 0)
(-1.35421e-08 -0.00711239 0)
(-3.53481e-07 -0.00711237 0)
(-3.73743e-07 -0.00711257 0)
(-1.76293e-07 -0.00711258 0)
(-1.68203e-07 -0.00711261 0)
(-1.62826e-08 -0.00711239 0)
(-3.58119e-07 -0.00711237 0)
(-3.78257e-07 -0.00711257 0)
(-1.79026e-07 -0.00711258 0)
(-1.68337e-07 -0.00711262 0)
(-1.89885e-08 -0.00711238 0)
(-3.62521e-07 -0.00711236 0)
(-3.82537e-07 -0.00711258 0)
(-1.81687e-07 -0.00711258 0)
(-1.68425e-07 -0.00711262 0)
(-2.16554e-08 -0.00711238 0)
(-3.6668e-07 -0.00711236 0)
(-3.86576e-07 -0.00711258 0)
(-1.84273e-07 -0.00711259 0)
(-1.68469e-07 -0.00711263 0)
(-2.4279e-08 -0.00711237 0)
(-3.70595e-07 -0.00711235 0)
(-3.9037e-07 -0.00711258 0)
(-1.8678e-07 -0.00711259 0)
(-1.68469e-07 -0.00711263 0)
(-2.68552e-08 -0.00711237 0)
(-3.7426e-07 -0.00711234 0)
(-3.93917e-07 -0.00711258 0)
(-1.89204e-07 -0.00711259 0)
(-1.68428e-07 -0.00711264 0)
(-2.93801e-08 -0.00711236 0)
(-3.77674e-07 -0.00711234 0)
(-3.97214e-07 -0.00711259 0)
(-1.91542e-07 -0.0071126 0)
(-1.68345e-07 -0.00711264 0)
(-3.18499e-08 -0.00711236 0)
(-3.80835e-07 -0.00711233 0)
(-4.00258e-07 -0.00711259 0)
(-1.93793e-07 -0.0071126 0)
(-1.68224e-07 -0.00711265 0)
(-3.42609e-08 -0.00711235 0)
(-3.83742e-07 -0.00711233 0)
(-4.0305e-07 -0.00711259 0)
(-1.95952e-07 -0.0071126 0)
(-1.68066e-07 -0.00711265 0)
(-3.66095e-08 -0.00711234 0)
(-3.86398e-07 -0.00711232 0)
(-4.05589e-07 -0.00711259 0)
(-1.98018e-07 -0.00711261 0)
(-1.67871e-07 -0.00711266 0)
(-3.88924e-08 -0.00711234 0)
(-3.88801e-07 -0.00711232 0)
(-4.07877e-07 -0.0071126 0)
(-1.99988e-07 -0.00711261 0)
(-1.67642e-07 -0.00711266 0)
(-4.11065e-08 -0.00711233 0)
(-3.90955e-07 -0.00711231 0)
(-4.09916e-07 -0.0071126 0)
(-2.01861e-07 -0.00711261 0)
(-1.67381e-07 -0.00711267 0)
)
;

boundaryField
{
    BotWall
    {
        type            fixedValue;
        value           nonuniform 0();
    }
    FreeStream
    {
        type            zeroGradient;
    }
    FrontNBack
    {
        type            empty;
    }
    LeftSide
    {
        type            symmetryPlane;
    }
    RightSide
    {
        type            symmetryPlane;
    }
    procBoundary2to1
    {
        type            processor;
        value           nonuniform List<vector> 5((2.56243e-08 -0.00711245 0) (-2.6817e-07 -0.00711243 0) (-2.90313e-07 -0.00711254 0) (-1.33239e-07 -0.00711255 0) (-1.61323e-07 -0.00711255 0));
    }
    procBoundary2to3
    {
        type            processor;
        value           nonuniform List<vector> 5((-4.32486e-08 -0.00711232 0) (-3.92863e-07 -0.00711231 0) (-4.11709e-07 -0.0071126 0) (-2.03639e-07 -0.00711262 0) (-1.67093e-07 -0.00711267 0));
    }
}


// ************************************************************************* //
