/*--------------------------------*- C++ -*----------------------------------*\
| =========                 |                                                 |
| \\      /  F ield         | OpenFOAM: The Open Source CFD Toolbox           |
|  \\    /   O peration     | Version:  2.4.0                                 |
|   \\  /    A nd           | Web:      www.OpenFOAM.org                      |
|    \\/     M anipulation  |                                                 |
\*---------------------------------------------------------------------------*/
FoamFile
{
    version     2.0;
    format      ascii;
    class       volScalarField;
    location    "2.9";
    object      p;
}
// * * * * * * * * * * * * * * * * * * * * * * * * * * * * * * * * * * * * * //

dimensions      [1 -1 -2 0 0 0 0];

internalField   nonuniform List<scalar> 
125
(
-0.0144236
-0.0144248
-0.0144252
-0.0144256
-0.0144264
-0.0150533
-0.0150545
-0.0150549
-0.0150553
-0.0150561
-0.0157098
-0.015711
-0.0157114
-0.0157118
-0.0157125
-0.0163777
-0.0163789
-0.0163793
-0.0163796
-0.0163804
-0.0170521
-0.0170533
-0.0170537
-0.017054
-0.0170548
-0.0177333
-0.0177344
-0.0177348
-0.0177352
-0.0177359
-0.0184219
-0.018423
-0.0184234
-0.0184238
-0.0184245
-0.0191183
-0.0191193
-0.0191197
-0.0191201
-0.0191208
-0.0198224
-0.0198235
-0.0198239
-0.0198242
-0.0198249
-0.0205344
-0.0205354
-0.0205358
-0.0205362
-0.0205369
-0.0212544
-0.0212554
-0.0212558
-0.0212561
-0.0212568
-0.0219823
-0.0219833
-0.0219837
-0.0219841
-0.0219847
-0.0227185
-0.0227194
-0.0227198
-0.0227202
-0.0227208
-0.0234628
-0.0234637
-0.0234641
-0.0234645
-0.0234651
-0.0242154
-0.0242163
-0.0242167
-0.0242171
-0.0242176
-0.0249764
-0.0249773
-0.0249777
-0.024978
-0.0249786
-0.0257459
-0.0257468
-0.0257472
-0.0257475
-0.0257481
-0.026524
-0.0265249
-0.0265253
-0.0265256
-0.0265262
-0.0273108
-0.0273116
-0.027312
-0.0273124
-0.0273129
-0.0281064
-0.0281072
-0.0281076
-0.0281079
-0.0281084
-0.0289108
-0.0289116
-0.028912
-0.0289123
-0.0289128
-0.0297242
-0.029725
-0.0297254
-0.0297257
-0.0297262
-0.0305467
-0.0305475
-0.0305478
-0.0305482
-0.0305487
-0.0313784
-0.0313791
-0.0313795
-0.0313798
-0.0313803
-0.0322194
-0.03222
-0.0322204
-0.0322207
-0.0322212
)
;

boundaryField
{
    BotWall
    {
        type            calculated;
        value           nonuniform 0();
    }
    FreeStream
    {
        type            calculated;
        value           nonuniform 0();
    }
    FrontNBack
    {
        type            empty;
    }
    LeftSide
    {
        type            symmetryPlane;
    }
    RightSide
    {
        type            symmetryPlane;
    }
    procBoundary1to0
    {
        type            processor;
        value           nonuniform List<scalar> 5(-0.0138232 -0.0138245 -0.0138249 -0.0138253 -0.0138261);
    }
    procBoundary1to2
    {
        type            processor;
        value           nonuniform List<scalar> 5(-0.0330697 -0.0330704 -0.0330707 -0.033071 -0.0330715);
    }
}


// ************************************************************************* //
