/*--------------------------------*- C++ -*----------------------------------*\
| =========                 |                                                 |
| \\      /  F ield         | OpenFOAM: The Open Source CFD Toolbox           |
|  \\    /   O peration     | Version:  2.4.0                                 |
|   \\  /    A nd           | Web:      www.OpenFOAM.org                      |
|    \\/     M anipulation  |                                                 |
\*---------------------------------------------------------------------------*/
FoamFile
{
    version     2.0;
    format      ascii;
    class       volScalarField;
    location    "2.9";
    object      p_rgh;
}
// * * * * * * * * * * * * * * * * * * * * * * * * * * * * * * * * * * * * * //

dimensions      [1 -1 -2 0 0 0 0];

internalField   nonuniform List<scalar> 
125
(
-3.2362e-05
-3.36284e-05
-3.4038e-05
-3.4404e-05
-3.52021e-05
-1.05571e-05
-1.1792e-05
-1.22034e-05
-1.25682e-05
-1.33539e-05
-8.2205e-06
-9.42525e-06
-9.83643e-06
-1.02011e-05
-1.09741e-05
-9.94543e-06
-1.11235e-05
-1.15346e-05
-1.18988e-05
-1.2656e-05
-1.07788e-05
-1.19313e-05
-1.23424e-05
-1.2706e-05
-1.34463e-05
-1.08378e-05
-1.19647e-05
-1.23757e-05
-1.27384e-05
-1.34623e-05
-1.07369e-05
-1.18384e-05
-1.22491e-05
-1.26108e-05
-1.33186e-05
-1.06715e-05
-1.17476e-05
-1.21578e-05
-1.25184e-05
-1.32105e-05
-1.06361e-05
-1.16873e-05
-1.20968e-05
-1.24561e-05
-1.31327e-05
-1.06063e-05
-1.16327e-05
-1.20414e-05
-1.23993e-05
-1.30605e-05
-1.05742e-05
-1.15763e-05
-1.19839e-05
-1.23403e-05
-1.29863e-05
-1.05402e-05
-1.15182e-05
-1.19245e-05
-1.22792e-05
-1.29103e-05
-1.05052e-05
-1.14594e-05
-1.18643e-05
-1.22171e-05
-1.28334e-05
-1.04695e-05
-1.14002e-05
-1.18034e-05
-1.21543e-05
-1.27561e-05
-1.0433e-05
-1.13406e-05
-1.1742e-05
-1.20907e-05
-1.26782e-05
-1.03958e-05
-1.12806e-05
-1.16798e-05
-1.20264e-05
-1.25997e-05
-1.03577e-05
-1.122e-05
-1.1617e-05
-1.19612e-05
-1.25205e-05
-1.03189e-05
-1.1159e-05
-1.15536e-05
-1.18952e-05
-1.24408e-05
-1.02793e-05
-1.10975e-05
-1.14894e-05
-1.18283e-05
-1.23604e-05
-1.02388e-05
-1.10354e-05
-1.14245e-05
-1.17606e-05
-1.22795e-05
-1.01975e-05
-1.09729e-05
-1.1359e-05
-1.16921e-05
-1.21978e-05
-1.01554e-05
-1.09098e-05
-1.12927e-05
-1.16228e-05
-1.21155e-05
-1.01124e-05
-1.08461e-05
-1.12257e-05
-1.15525e-05
-1.20326e-05
-1.00687e-05
-1.0782e-05
-1.11581e-05
-1.14815e-05
-1.19493e-05
-1.00241e-05
-1.07174e-05
-1.10897e-05
-1.14097e-05
-1.18652e-05
)
;

boundaryField
{
    BotWall
    {
        type            fixedFluxPressure;
        gradient        nonuniform 0();
        value           nonuniform 0();
    }
    FreeStream
    {
        type            totalPressure;
        rho             rho;
        psi             none;
        gamma           1;
        p0              nonuniform 0();
        value           nonuniform 0();
    }
    FrontNBack
    {
        type            empty;
    }
    LeftSide
    {
        type            symmetryPlane;
    }
    RightSide
    {
        type            symmetryPlane;
    }
    procBoundary1to0
    {
        type            processor;
        value           nonuniform List<scalar> 5(-7.64126e-05 -7.76917e-05 -7.80929e-05 -7.84646e-05 -7.92967e-05);
    }
    procBoundary1to2
    {
        type            processor;
        value           nonuniform List<scalar> 5(-9.97868e-06 -1.06522e-05 -1.10208e-05 -1.13371e-05 -1.17806e-05);
    }
}


// ************************************************************************* //
