/*--------------------------------*- C++ -*----------------------------------*\
| =========                 |                                                 |
| \\      /  F ield         | OpenFOAM: The Open Source CFD Toolbox           |
|  \\    /   O peration     | Version:  2.4.0                                 |
|   \\  /    A nd           | Web:      www.OpenFOAM.org                      |
|    \\/     M anipulation  |                                                 |
\*---------------------------------------------------------------------------*/
FoamFile
{
    version     2.0;
    format      ascii;
    class       volScalarField;
    location    "0.016";
    object      H;
}
// * * * * * * * * * * * * * * * * * * * * * * * * * * * * * * * * * * * * * //

dimensions      [0 2 -2 0 0 0 0];

internalField   nonuniform List<scalar> 
125
(
-10970.6
-8445.65
-5906.89
-3351.22
-86.6871
-65.0435
-65.5538
-65.9874
-66.3448
-66.6267
-66.8338
-66.9672
-67.0278
-67.017
-66.936
-66.7862
-66.5693
-66.2868
-65.9405
-65.5324
-65.0643
-64.5383
-63.9566
-63.3212
-62.6346
-61.8989
-61.1167
-60.2903
-59.4222
-58.5149
-57.571
-56.593
-55.5834
-54.5448
-53.4798
-52.391
-51.2809
-50.152
-49.0067
-47.8477
-46.6772
-45.4976
-44.3114
-43.1206
-41.9276
-40.7344
-39.5431
-38.3557
-37.1741
-36.0002
-34.8356
-33.682
-32.541
-31.414
-30.3025
-29.2077
-28.1308
-27.073
-26.0352
-25.0183
-24.0232
-23.0506
-22.1011
-21.1753
-20.2737
-19.3967
-18.5445
-17.7174
-16.9155
-16.139
-15.3878
-14.6618
-13.961
-13.2853
-12.6342
-12.0077
-11.4053
-10.8267
-10.2715
-9.73917
-9.22933
-8.74144
-8.27497
-7.82936
-7.40405
-6.99844
-6.61193
-6.24392
-5.89379
-5.56092
-5.24469
-4.94449
-4.65968
-4.38966
-4.13383
-3.89159
-3.66234
-3.44552
-3.24057
-3.04692
-7.4094e-09
-6.07146e-09
-4.96595e-09
-4.083e-09
-3.3082e-09
-2.69575e-09
-2.20865e-09
-1.80807e-09
-1.41716e-09
-1.18728e-09
-9.73694e-10
-7.72219e-10
-6.25044e-10
-4.67618e-10
-3.8071e-10
-3.63544e-10
-2.55329e-10
-1.96969e-10
-1.54492e-10
-1.54875e-10
-7.2492e-11
-5.13076e-11
-4.94869e-11
-5.28493e-11
-5.31392e-11
)
;

boundaryField
{
    BotWall
    {
        type            zeroGradient;
    }
    FreeStream
    {
        type            zeroGradient;
    }
    FrontNBack
    {
        type            empty;
    }
    LeftSide
    {
        type            symmetryPlane;
    }
    RightSide
    {
        type            symmetryPlane;
    }
    procBoundary4to1
    {
        type            processor;
        value           nonuniform List<scalar> 
50
(
-35.1348
-33.9575
-32.7936
-31.6446
-30.5119
-29.3969
-28.3008
-27.2246
-26.1694
-25.1361
-24.1254
-23.1382
-22.1751
-21.2366
-20.3231
-19.435
-18.5727
-17.7362
-16.9258
-16.1415
-15.3832
-14.6509
-13.9445
-13.2637
-12.6082
-11.9779
-11.3722
-10.7908
-10.2332
-9.69908
-9.18778
-8.69881
-8.23161
-7.78558
-7.36013
-6.95464
-6.56849
-6.20105
-5.85166
-5.51969
-5.2045
-4.90544
-4.62188
-4.35318
-4.09873
-3.85792
-3.63014
-3.4148
-3.21133
-3.01916
)
;
    }
    procBoundary4to2
    {
        type            processor;
        value           nonuniform List<scalar> 
75
(
-10972.2
-8450.59
-5915.1
-3362.66
-88.0676
-66.0968
-66.6236
-67.0712
-67.4402
-67.7312
-67.9451
-68.0829
-68.1457
-68.1348
-68.0515
-67.8974
-67.674
-67.3831
-67.0265
-66.6062
-66.1242
-65.5826
-64.9837
-64.3298
-63.6231
-62.8662
-62.0616
-61.2116
-60.319
-59.3864
-58.4162
-57.4113
-56.3743
-55.3079
-54.2146
-53.0972
-51.9583
-50.8005
-49.6264
-48.4386
-47.2395
-46.0315
-44.8171
-43.5987
-42.3784
-41.1584
-39.941
-38.728
-37.5216
-36.3235
-7.39749e-09
-6.05581e-09
-4.94873e-09
-4.07001e-09
-3.30123e-09
-2.6867e-09
-2.19956e-09
-1.80571e-09
-1.41017e-09
-1.19155e-09
-9.61141e-10
-7.77009e-10
-6.21615e-10
-4.6333e-10
-3.80721e-10
-3.61836e-10
-2.6002e-10
-1.91371e-10
-1.57467e-10
-1.52728e-10
-7.17521e-11
-4.86714e-11
-5.49678e-11
-4.8006e-11
-5.86241e-11
)
;
    }
    procBoundary4to3
    {
        type            processor;
        value           uniform -2.8641;
    }
    procBoundary4to5
    {
        type            processor;
        value           uniform -9.02557e-09;
    }
    procBoundary4to6
    {
        type            processor;
        value           nonuniform List<scalar> 
75
(
-61.9177
-61.1346
-60.3075
-59.4387
-58.5307
-57.5862
-56.6076
-55.5975
-54.5585
-53.493
-52.4038
-51.2933
-50.1641
-49.0186
-47.8593
-46.6886
-45.5089
-44.3224
-43.1315
-41.9383
-40.745
-39.5537
-38.3662
-37.1846
-36.0105
-34.8459
-33.6923
-32.5512
-31.4243
-30.3127
-29.2179
-28.141
-27.0831
-26.0453
-25.0283
-24.0332
-23.0605
-22.111
-21.1852
-20.2835
-19.4063
-18.5541
-17.7269
-16.9249
-16.1482
-15.3969
-14.6708
-13.9699
-13.2939
-12.6428
-12.0161
-11.4135
-10.8347
-10.2793
-9.74686
-9.23684
-8.74876
-8.2821
-7.8363
-7.4108
-7.00499
-6.6183
-6.2501
-5.89978
-5.56673
-5.25031
-4.94992
-4.66494
-4.39475
-4.13875
-3.89634
-3.66694
-3.44996
-3.24485
-3.05106
)
;
    }
    procBoundary4to7
    {
        type            processor;
        value           nonuniform List<scalar> 
50
(
-10970.5
-8445.38
-5906.45
-3350.6
-86.6134
-64.9897
-65.5039
-65.9414
-66.3027
-66.5884
-66.7995
-66.9367
-67.0012
-66.9942
-66.917
-66.7711
-66.5579
-66.2792
-65.9367
-65.5322
-65.0678
-64.5454
-63.9671
-63.3353
-62.652
-7.20022e-09
-5.89935e-09
-4.81998e-09
-3.95349e-09
-3.20973e-09
-2.63954e-09
-2.12658e-09
-1.74201e-09
-1.39444e-09
-1.15074e-09
-9.10748e-10
-7.79392e-10
-5.91216e-10
-4.689e-10
-3.6102e-10
-3.51496e-10
-2.60187e-10
-1.74216e-10
-1.55801e-10
-1.5632e-10
-6.45244e-11
-4.92839e-11
-5.56128e-11
-4.80854e-11
-5.86388e-11
)
;
    }
}


// ************************************************************************* //
