/*--------------------------------*- C++ -*----------------------------------*\
| =========                 |                                                 |
| \\      /  F ield         | OpenFOAM: The Open Source CFD Toolbox           |
|  \\    /   O peration     | Version:  2.4.0                                 |
|   \\  /    A nd           | Web:      www.OpenFOAM.org                      |
|    \\/     M anipulation  |                                                 |
\*---------------------------------------------------------------------------*/
FoamFile
{
    version     2.0;
    format      ascii;
    class       volScalarField;
    location    "0.016";
    object      p;
}
// * * * * * * * * * * * * * * * * * * * * * * * * * * * * * * * * * * * * * //

dimensions      [1 -1 -2 0 0 0 0];

internalField   nonuniform List<scalar> 
125
(
0.0308991
0.0436913
-0.0264889
0.155955
-0.860661
-0.109026
0.0293979
0.0102892
-0.00436183
-0.00739262
-0.00684872
-0.00646015
-0.0065196
-0.00671265
-0.00689969
-0.00706997
-0.0072358
-0.00740253
-0.00757055
-0.00773938
-0.00790882
-0.00807886
-0.00824951
-0.0084208
-0.00859271
-0.00876526
-0.00893845
-0.00911227
-0.00928674
-0.00946184
-0.00963759
-0.00981399
-0.00999104
-0.0101687
-0.0103471
-0.0105261
-0.0107058
-0.0108861
-0.0110671
-0.0112488
-0.0114311
-0.0116141
-0.0117978
-0.0119821
-0.0121671
-0.0123529
-0.0125393
-0.0127263
-0.0129141
-0.0131026
-0.0132917
-0.0134816
-0.0136721
-0.0138634
-0.0140553
-0.014248
-0.0144414
-0.0146355
-0.0148303
-0.0150258
-0.015222
-0.015419
-0.0156167
-0.0158151
-0.0160142
-0.0162141
-0.0164147
-0.0166161
-0.0168182
-0.017021
-0.0172246
-0.0174289
-0.017634
-0.0178399
-0.0180465
-0.0182538
-0.0184619
-0.0186708
-0.0188805
-0.0190909
-0.0193021
-0.0195141
-0.0197269
-0.0199404
-0.0201548
-0.0203699
-0.0205858
-0.0208025
-0.02102
-0.0212384
-0.0214575
-0.0216774
-0.0218981
-0.0221197
-0.022342
-0.0225652
-0.0227892
-0.023014
-0.0232397
-0.0234662
-0.0796159
-0.0800499
-0.0804855
-0.0809227
-0.0813615
-0.0818019
-0.082244
-0.0826876
-0.0831329
-0.0835799
-0.0840285
-0.0844787
-0.0849306
-0.0853842
-0.0858394
-0.0862963
-0.0867549
-0.0872152
-0.0876772
-0.0881408
-0.0886062
-0.0890733
-0.0895421
-0.0900127
-0.0904848
)
;

boundaryField
{
    BotWall
    {
        type            calculated;
        value           uniform 0.0358425;
    }
    FreeStream
    {
        type            calculated;
        value           uniform -0.0907212;
    }
    FrontNBack
    {
        type            empty;
    }
    LeftSide
    {
        type            symmetryPlane;
    }
    RightSide
    {
        type            symmetryPlane;
    }
    procBoundary4to1
    {
        type            processor;
        value           nonuniform List<scalar> 
50
(
-0.0132748
-0.0134648
-0.0136554
-0.0138468
-0.0140388
-0.0142316
-0.0144251
-0.0146192
-0.0148141
-0.0150098
-0.0152061
-0.0154032
-0.0156009
-0.0157994
-0.0159987
-0.0161987
-0.0163994
-0.0166008
-0.016803
-0.0170059
-0.0172096
-0.0174141
-0.0176192
-0.0178252
-0.0180319
-0.0182393
-0.0184475
-0.0186565
-0.0188663
-0.0190768
-0.0192881
-0.0195002
-0.019713
-0.0199267
-0.0201411
-0.0203563
-0.0205723
-0.0207891
-0.0210067
-0.0212251
-0.0214443
-0.0216644
-0.0218852
-0.0221068
-0.0223293
-0.0225525
-0.0227766
-0.0230015
-0.0232273
-0.0234538
)
;
    }
    procBoundary4to2
    {
        type            processor;
        value           nonuniform List<scalar> 
75
(
0.029796
0.0425159
-0.0270467
0.152642
-0.849957
-0.107817
0.0291239
0.0101944
-0.0043482
-0.00735997
-0.00682243
-0.00643808
-0.00649834
-0.00669127
-0.00687828
-0.00704867
-0.00721463
-0.0073815
-0.00754964
-0.0077186
-0.00788817
-0.00805833
-0.00822912
-0.00840053
-0.00857257
-0.00874525
-0.00891856
-0.00909251
-0.0092671
-0.00944234
-0.00961821
-0.00979474
-0.00997191
-0.0101497
-0.0103282
-0.0105073
-0.0106871
-0.0108676
-0.0110487
-0.0112305
-0.011413
-0.0115961
-0.0117799
-0.0119644
-0.0121495
-0.0123353
-0.0125219
-0.0127091
-0.012897
-0.0130855
-0.0796148
-0.0800488
-0.0804845
-0.0809217
-0.0813606
-0.081801
-0.0822431
-0.0826868
-0.0831322
-0.0835792
-0.0840278
-0.0844781
-0.08493
-0.0853836
-0.0858389
-0.0862958
-0.0867545
-0.0872148
-0.0876768
-0.0881405
-0.088606
-0.0890731
-0.089542
-0.0900125
-0.0904848
)
;
    }
    procBoundary4to3
    {
        type            processor;
        value           uniform -0.0236935;
    }
    procBoundary4to5
    {
        type            processor;
        value           uniform -0.0791835;
    }
    procBoundary4to6
    {
        type            processor;
        value           nonuniform List<scalar> 
75
(
-0.00877381
-0.00894697
-0.00912077
-0.00929521
-0.00947029
-0.00964601
-0.00982238
-0.0099994
-0.0101771
-0.0103554
-0.0105344
-0.010714
-0.0108943
-0.0110753
-0.0112569
-0.0114392
-0.0116222
-0.0118059
-0.0119902
-0.0121752
-0.0123609
-0.0125473
-0.0127343
-0.0129221
-0.0131105
-0.0132996
-0.0134895
-0.01368
-0.0138712
-0.0140631
-0.0142558
-0.0144491
-0.0146432
-0.014838
-0.0150335
-0.0152297
-0.0154266
-0.0156243
-0.0158227
-0.0160218
-0.0162216
-0.0164222
-0.0166235
-0.0168256
-0.0170284
-0.017232
-0.0174363
-0.0176414
-0.0178472
-0.0180537
-0.0182611
-0.0184692
-0.018678
-0.0188877
-0.0190981
-0.0193093
-0.0195212
-0.019734
-0.0199475
-0.0201618
-0.0203769
-0.0205928
-0.0208095
-0.021027
-0.0212452
-0.0214643
-0.0216842
-0.0219049
-0.0221264
-0.0223488
-0.0225719
-0.0227959
-0.0230207
-0.0232463
-0.0234728
)
;
    }
    procBoundary4to7
    {
        type            processor;
        value           nonuniform List<scalar> 
50
(
0.030831
0.0436257
-0.0265877
0.156006
-0.861308
-0.109099
0.0294054
0.010287
-0.00436994
-0.00740176
-0.00685753
-0.00646873
-0.00652815
-0.00672121
-0.00690826
-0.00707855
-0.00724438
-0.00741111
-0.00757912
-0.00774796
-0.0079174
-0.00808744
-0.00825809
-0.00842937
-0.00860128
-0.0796154
-0.0800494
-0.0804849
-0.0809221
-0.0813609
-0.0818013
-0.0822433
-0.0826869
-0.0831322
-0.0835791
-0.0840277
-0.0844779
-0.0849298
-0.0853833
-0.0858385
-0.0862954
-0.0867539
-0.0872142
-0.0876761
-0.0881397
-0.0886051
-0.0890721
-0.0895409
-0.0900114
-0.0904837
)
;
    }
}


// ************************************************************************* //
