/*--------------------------------*- C++ -*----------------------------------*\
| =========                 |                                                 |
| \\      /  F ield         | OpenFOAM: The Open Source CFD Toolbox           |
|  \\    /   O peration     | Version:  2.4.0                                 |
|   \\  /    A nd           | Web:      www.OpenFOAM.org                      |
|    \\/     M anipulation  |                                                 |
\*---------------------------------------------------------------------------*/
FoamFile
{
    version     2.0;
    format      ascii;
    class       surfaceScalarField;
    location    "0.016";
    object      phi;
}
// * * * * * * * * * * * * * * * * * * * * * * * * * * * * * * * * * * * * * //

dimensions      [0 3 -1 0 0 0 0];

internalField   nonuniform List<scalar> 
123
(
9.21984e-17
4.12697e-16
9.93838e-16
1.8241e-15
-3.31797e-09
-3.31796e-09
-3.31796e-09
-3.31796e-09
-3.31796e-09
-3.31795e-09
-3.31795e-09
-3.31794e-09
-3.31794e-09
-3.31793e-09
-3.31792e-09
-3.31791e-09
-3.31791e-09
-3.3179e-09
-3.31789e-09
-3.31788e-09
-3.31787e-09
-3.31786e-09
-3.31785e-09
-3.31784e-09
-3.31782e-09
-3.31781e-09
-3.3178e-09
-3.31779e-09
-3.31778e-09
-3.31776e-09
-3.31775e-09
-3.31774e-09
-3.31772e-09
-3.31771e-09
-3.3177e-09
-3.31768e-09
-3.31767e-09
-3.31765e-09
-3.31764e-09
-3.31763e-09
-3.31761e-09
-3.3176e-09
-3.31758e-09
-3.31757e-09
-3.31756e-09
-3.31754e-09
-3.31753e-09
-3.31752e-09
-3.3175e-09
-3.31749e-09
-3.31747e-09
-3.31746e-09
-3.31745e-09
-3.31743e-09
-3.31742e-09
-3.31741e-09
-3.3174e-09
-3.31738e-09
-3.31737e-09
-3.31736e-09
-3.31735e-09
-3.31733e-09
-3.31732e-09
-3.31731e-09
-3.3173e-09
-3.31729e-09
-3.31728e-09
-3.31727e-09
-3.31726e-09
-3.31724e-09
-3.31723e-09
-3.31722e-09
-3.31721e-09
-3.3172e-09
-3.31719e-09
-3.31718e-09
-3.31717e-09
-3.31717e-09
-3.31716e-09
-3.31715e-09
-3.31714e-09
-3.31713e-09
-3.31712e-09
-3.31711e-09
-3.3171e-09
-3.31709e-09
-3.31709e-09
-3.31708e-09
-3.31707e-09
-3.31706e-09
-3.31705e-09
-3.31705e-09
-3.31704e-09
-3.31703e-09
-3.31702e-09
-3.31702e-09
-3.31701e-09
-3.317e-09
-3.317e-09
-3.31648e-09
-3.31649e-09
-3.3165e-09
-3.31651e-09
-3.31652e-09
-3.31653e-09
-3.31654e-09
-3.31655e-09
-3.31656e-09
-3.31657e-09
-3.31658e-09
-3.31659e-09
-3.31661e-09
-3.31662e-09
-3.31663e-09
-3.31664e-09
-3.31665e-09
-3.31666e-09
-3.31668e-09
-3.31669e-09
-3.3167e-09
-3.31671e-09
-3.31673e-09
-3.31674e-09
)
;

boundaryField
{
    BotWall
    {
        type            calculated;
        value           uniform -3.32844e-22;
    }
    FreeStream
    {
        type            calculated;
        value           uniform -3.31675e-09;
    }
    FrontNBack
    {
        type            empty;
        value           nonuniform 0();
    }
    LeftSide
    {
        type            symmetryPlane;
        value           nonuniform 0();
    }
    RightSide
    {
        type            symmetryPlane;
        value           nonuniform 0();
    }
    procBoundary4to1
    {
        type            processor;
        value           nonuniform List<scalar> 
50
(
-1.43857e-14
-1.4267e-14
-1.41403e-14
-1.40065e-14
-1.38662e-14
-1.37202e-14
-1.3569e-14
-1.34134e-14
-1.3254e-14
-1.30914e-14
-1.29262e-14
-1.2759e-14
-1.25903e-14
-1.24205e-14
-1.22503e-14
-1.20801e-14
-1.19102e-14
-1.17412e-14
-1.15733e-14
-1.14069e-14
-1.12424e-14
-1.108e-14
-1.092e-14
-1.07627e-14
-1.06082e-14
-1.04567e-14
-1.03084e-14
-1.01635e-14
-1.00221e-14
-9.88416e-15
-9.74989e-15
-9.6193e-15
-9.49244e-15
-9.36933e-15
-9.24997e-15
-9.13435e-15
-9.02246e-15
-8.91425e-15
-8.80969e-15
-8.70871e-15
-8.61126e-15
-8.51726e-15
-8.42664e-15
-8.3393e-15
-8.25517e-15
-8.17416e-15
-8.09616e-15
-8.02108e-15
-7.94882e-15
-7.87928e-15
)
;
    }
    procBoundary4to2
    {
        type            processor;
        value           nonuniform List<scalar> 
75
(
-1.06773e-16
-3.6426e-16
-6.5587e-16
-9.36923e-16
-1.69734e-15
-1.85139e-15
-2.24898e-15
-3.02291e-15
-3.7849e-15
-4.50437e-15
-5.19094e-15
-5.85446e-15
-6.4962e-15
-7.11528e-15
-7.71098e-15
-8.28297e-15
-8.83101e-15
-9.35494e-15
-9.8546e-15
-1.03299e-14
-1.07808e-14
-1.12072e-14
-1.16092e-14
-1.19869e-14
-1.23404e-14
-1.26699e-14
-1.29756e-14
-1.32578e-14
-1.35167e-14
-1.37527e-14
-1.39663e-14
-1.41577e-14
-1.43276e-14
-1.44763e-14
-1.46045e-14
-1.47126e-14
-1.48013e-14
-1.48712e-14
-1.4923e-14
-1.49573e-14
-1.49747e-14
-1.49761e-14
-1.4962e-14
-1.49334e-14
-1.48908e-14
-1.48351e-14
-1.4767e-14
-1.46872e-14
-1.45966e-14
-1.44958e-14
-9.99405e-16
-9.70595e-16
-9.41929e-16
-9.13538e-16
-8.85563e-16
-8.58148e-16
-8.3144e-16
-8.05588e-16
-7.80739e-16
-7.57033e-16
-7.34606e-16
-7.13583e-16
-6.94077e-16
-6.76186e-16
-6.59992e-16
-6.45558e-16
-6.32928e-16
-6.22124e-16
-6.13148e-16
-6.05978e-16
-6.00576e-16
-5.96891e-16
-5.94855e-16
-5.94326e-16
-5.95342e-16
)
;
    }
    procBoundary4to3
    {
        type            processor;
        value           uniform -3.31699e-09;
    }
    procBoundary4to5
    {
        type            processor;
        value           uniform 3.31647e-09;
    }
    procBoundary4to6
    {
        type            processor;
        value           nonuniform List<scalar> 
75
(
8.84025e-16
9.02701e-16
9.19546e-16
9.3458e-16
9.47828e-16
9.59322e-16
9.69097e-16
9.77196e-16
9.83665e-16
9.88557e-16
9.91928e-16
9.93839e-16
9.94356e-16
9.93546e-16
9.91482e-16
9.88239e-16
9.83894e-16
9.78526e-16
9.72218e-16
9.65051e-16
9.5711e-16
9.4848e-16
9.39244e-16
9.29488e-16
9.19296e-16
9.08752e-16
8.97937e-16
8.86934e-16
8.75823e-16
8.6468e-16
8.53582e-16
8.426e-16
8.31804e-16
8.21262e-16
8.11036e-16
8.01186e-16
7.9177e-16
7.82839e-16
7.74444e-16
7.6663e-16
7.59437e-16
7.52905e-16
7.47065e-16
7.41948e-16
7.37579e-16
7.33981e-16
7.3117e-16
7.29163e-16
7.27969e-16
7.27596e-16
7.28047e-16
7.29324e-16
7.31422e-16
7.34336e-16
7.38058e-16
7.42577e-16
7.47879e-16
7.53949e-16
7.60768e-16
7.68319e-16
7.76578e-16
7.85524e-16
7.95132e-16
8.05377e-16
8.16233e-16
8.27673e-16
8.39669e-16
8.52193e-16
8.65215e-16
8.78708e-16
8.92643e-16
9.0699e-16
9.21722e-16
9.36812e-16
9.5223e-16
)
;
    }
    procBoundary4to7
    {
        type            processor;
        value           nonuniform List<scalar> 
50
(
1.45746e-17
4.37616e-17
7.47287e-17
1.06657e-16
1.60454e-16
1.7758e-16
2.0564e-16
2.52038e-16
2.99801e-16
3.46606e-16
3.91809e-16
4.35652e-16
4.78183e-16
5.19336e-16
5.59025e-16
5.97178e-16
6.33732e-16
6.68634e-16
7.01836e-16
7.33298e-16
7.62983e-16
7.90865e-16
8.16922e-16
8.41138e-16
8.63506e-16
9.97966e-15
1.01814e-14
1.03807e-14
1.0577e-14
1.07698e-14
1.09586e-14
1.11427e-14
1.13218e-14
1.14952e-14
1.16624e-14
1.18231e-14
1.19767e-14
1.2123e-14
1.22615e-14
1.23921e-14
1.25145e-14
1.26287e-14
1.27347e-14
1.28325e-14
1.29222e-14
1.30042e-14
1.30785e-14
1.31457e-14
1.32064e-14
1.3256e-14
)
;
    }
}


// ************************************************************************* //
