/*--------------------------------*- C++ -*----------------------------------*\
| =========                 |                                                 |
| \\      /  F ield         | OpenFOAM: The Open Source CFD Toolbox           |
|  \\    /   O peration     | Version:  2.4.0                                 |
|   \\  /    A nd           | Web:      www.OpenFOAM.org                      |
|    \\/     M anipulation  |                                                 |
\*---------------------------------------------------------------------------*/
FoamFile
{
    version     2.0;
    format      ascii;
    class       volScalarField;
    location    "0.4";
    object      H;
}
// * * * * * * * * * * * * * * * * * * * * * * * * * * * * * * * * * * * * * //

dimensions      [0 2 -2 0 0 0 0];

internalField   nonuniform List<scalar> 
125
(
-36.2176
-36.2173
-36.2172
-36.2169
-36.2174
-35.0632
-35.063
-35.0629
-35.0626
-35.0631
-33.901
-33.9008
-33.9007
-33.9004
-33.9008
-32.7338
-32.7336
-32.7335
-32.7332
-32.7336
-31.5643
-31.5641
-31.564
-31.5638
-31.5641
-30.3954
-30.3952
-30.3951
-30.3949
-30.3951
-29.2296
-29.2294
-29.2294
-29.2292
-29.2294
-28.0697
-28.0695
-28.0695
-28.0693
-28.0694
-26.9181
-26.918
-26.9179
-26.9177
-26.9178
-25.7773
-25.7773
-25.7772
-25.777
-25.7771
-24.6498
-24.6497
-24.6497
-24.6495
-24.6495
-23.5376
-23.5375
-23.5375
-23.5373
-23.5373
-22.4429
-22.4429
-22.4428
-22.4427
-22.4426
-21.3677
-21.3676
-21.3676
-21.3675
-21.3674
-20.3137
-20.3137
-20.3137
-20.3135
-20.3135
-19.2827
-19.2827
-19.2827
-19.2826
-19.2825
-18.2762
-18.2762
-18.2762
-18.276
-18.2759
-17.2954
-17.2955
-17.2955
-17.2953
-17.2952
-16.3417
-16.3417
-16.3417
-16.3416
-16.3414
-15.4159
-15.416
-15.416
-15.4158
-15.4157
-14.519
-14.519
-14.5191
-14.5189
-14.5188
-13.6516
-13.6517
-13.6517
-13.6515
-13.6514
-12.8142
-12.8143
-12.8143
-12.8142
-12.814
-12.0072
-12.0073
-12.0073
-12.0072
-12.007
-11.2308
-11.2308
-11.2309
-11.2308
-11.2306
)
;

boundaryField
{
    BotWall
    {
        type            zeroGradient;
    }
    FreeStream
    {
        type            zeroGradient;
    }
    FrontNBack
    {
        type            empty;
    }
    LeftSide
    {
        type            symmetryPlane;
    }
    RightSide
    {
        type            symmetryPlane;
    }
    procBoundary2to1
    {
        type            processor;
        value           nonuniform List<scalar> 5(-37.3577 -37.3574 -37.3572 -37.3569 -37.3575);
    }
    procBoundary2to3
    {
        type            processor;
        value           nonuniform List<scalar> 5(-10.4855 -10.4856 -10.4856 -10.4855 -10.4853);
    }
}


// ************************************************************************* //
