/*--------------------------------*- C++ -*----------------------------------*\
| =========                 |                                                 |
| \\      /  F ield         | OpenFOAM: The Open Source CFD Toolbox           |
|  \\    /   O peration     | Version:  2.4.0                                 |
|   \\  /    A nd           | Web:      www.OpenFOAM.org                      |
|    \\/     M anipulation  |                                                 |
\*---------------------------------------------------------------------------*/
FoamFile
{
    version     2.0;
    format      ascii;
    class       surfaceScalarField;
    location    "0.014";
    object      phi;
}
// * * * * * * * * * * * * * * * * * * * * * * * * * * * * * * * * * * * * * //

dimensions      [0 3 -1 0 0 0 0];

internalField   nonuniform List<scalar> 
124
(
-1.10656e-18
-7.40933e-18
-1.22599e-17
-3.51265e-16
-3.147e-09
-3.147e-09
-3.147e-09
-3.147e-09
-3.147e-09
-3.147e-09
-3.147e-09
-3.147e-09
-3.147e-09
-3.147e-09
-3.147e-09
-3.147e-09
-3.147e-09
-3.147e-09
-3.147e-09
-3.147e-09
-3.147e-09
-3.147e-09
-3.147e-09
-3.147e-09
-3.147e-09
-3.14699e-09
-3.14699e-09
-3.14699e-09
-3.14699e-09
-3.14699e-09
-3.14699e-09
-3.14699e-09
-3.14699e-09
-3.14699e-09
-3.14699e-09
-3.14699e-09
-3.14699e-09
-3.14699e-09
-3.14698e-09
-3.14698e-09
-3.14698e-09
-3.14698e-09
-3.14698e-09
-3.14698e-09
-3.14698e-09
-3.14698e-09
-3.14698e-09
-3.14698e-09
-3.14698e-09
-3.14698e-09
-3.14697e-09
-3.14697e-09
-3.14697e-09
-3.14697e-09
-3.14697e-09
-3.14697e-09
-3.14697e-09
-3.14697e-09
-3.14697e-09
-3.14696e-09
-3.14696e-09
-3.14696e-09
-3.14696e-09
-3.14696e-09
-3.14696e-09
-3.14696e-09
-3.14696e-09
-3.14696e-09
-3.14695e-09
-3.14695e-09
-3.14695e-09
-3.14695e-09
-3.14695e-09
-3.14695e-09
-3.14695e-09
-3.14695e-09
-3.14694e-09
-3.14694e-09
-3.14694e-09
-3.14694e-09
-3.14694e-09
-3.14694e-09
-3.14694e-09
-3.14693e-09
-3.14693e-09
-3.14693e-09
-3.14693e-09
-3.14693e-09
-3.14693e-09
-3.14693e-09
-3.14692e-09
-3.14692e-09
-3.14692e-09
-3.14692e-09
-3.14692e-09
-3.14692e-09
-3.14692e-09
-3.14691e-09
-3.14691e-09
-3.14691e-09
-3.14691e-09
-3.14691e-09
-3.14691e-09
-3.14691e-09
-3.1469e-09
-3.1469e-09
-3.1469e-09
-3.1469e-09
-3.1469e-09
-3.1469e-09
-3.1469e-09
-3.14689e-09
-3.14689e-09
-3.14689e-09
-3.14689e-09
-3.14689e-09
-3.14689e-09
-3.14689e-09
-3.14689e-09
-3.14688e-09
-3.14688e-09
-3.14688e-09
-3.14688e-09
-3.14688e-09
)
;

boundaryField
{
    BotWall
    {
        type            calculated;
        value           uniform 1.63787e-22;
    }
    FreeStream
    {
        type            calculated;
        value           nonuniform 0();
    }
    FrontNBack
    {
        type            empty;
        value           nonuniform 0();
    }
    LeftSide
    {
        type            symmetryPlane;
        value           nonuniform 0();
    }
    RightSide
    {
        type            symmetryPlane;
        value           uniform 0;
    }
    procBoundary11to8
    {
        type            processor;
        value           nonuniform List<scalar> 
50
(
-1.34421e-15
-1.35471e-15
-1.36457e-15
-1.37377e-15
-1.38231e-15
-1.3902e-15
-1.39744e-15
-1.40404e-15
-1.40999e-15
-1.41531e-15
-1.41999e-15
-1.42405e-15
-1.42748e-15
-1.4303e-15
-1.4325e-15
-1.43409e-15
-1.43507e-15
-1.43545e-15
-1.43523e-15
-1.43441e-15
-1.433e-15
-1.43099e-15
-1.42839e-15
-1.4252e-15
-1.42142e-15
-1.41705e-15
-1.41209e-15
-1.40654e-15
-1.4004e-15
-1.39368e-15
-1.38637e-15
-1.37848e-15
-1.37e-15
-1.36094e-15
-1.3513e-15
-1.34107e-15
-1.33026e-15
-1.31887e-15
-1.3069e-15
-1.29436e-15
-1.28123e-15
-1.26754e-15
-1.25327e-15
-1.23843e-15
-1.22302e-15
-1.20704e-15
-1.1905e-15
-1.1734e-15
-1.15573e-15
-1.1375e-15
)
;
    }
    procBoundary11to9
    {
        type            processor;
        value           nonuniform List<scalar> 
75
(
1.10569e-18
6.30277e-18
4.85053e-18
5.57667e-17
-1.68314e-16
-1.53594e-16
1.88378e-17
-7.4652e-17
-1.65757e-16
-2.28292e-16
-2.77887e-16
-3.24764e-16
-3.69988e-16
-4.12766e-16
-4.52708e-16
-4.89795e-16
-5.24094e-16
-5.55676e-16
-5.84608e-16
-6.10975e-16
-6.34875e-16
-6.56422e-16
-6.75744e-16
-6.92981e-16
-7.08285e-16
-7.21818e-16
-7.33751e-16
-7.4426e-16
-7.53527e-16
-7.61737e-16
-7.69074e-16
-7.75719e-16
-7.81853e-16
-7.87648e-16
-7.9327e-16
-7.98875e-16
-8.0461e-16
-8.10607e-16
-8.16988e-16
-8.23858e-16
-8.31308e-16
-8.39415e-16
-8.48238e-16
-8.57822e-16
-8.68196e-16
-8.79374e-16
-8.91356e-16
-9.0413e-16
-9.17668e-16
-9.31935e-16
-9.46884e-16
-9.62459e-16
-9.78597e-16
-9.95229e-16
-1.01228e-15
-1.02968e-15
-1.04734e-15
-1.06519e-15
-1.08314e-15
-1.10113e-15
-1.11906e-15
-1.13688e-15
-1.15452e-15
-1.1719e-15
-1.18896e-15
-1.20567e-15
-1.22195e-15
-1.23778e-15
-1.25311e-15
-1.26791e-15
-1.28214e-15
-1.29579e-15
-1.30884e-15
-1.32126e-15
-1.33306e-15
)
;
    }
    procBoundary11to10
    {
        type            processor;
        value           uniform -3.14688e-09;
    }
}


// ************************************************************************* //
