/*--------------------------------*- C++ -*----------------------------------*\
| =========                 |                                                 |
| \\      /  F ield         | OpenFOAM: The Open Source CFD Toolbox           |
|  \\    /   O peration     | Version:  2.4.0                                 |
|   \\  /    A nd           | Web:      www.OpenFOAM.org                      |
|    \\/     M anipulation  |                                                 |
\*---------------------------------------------------------------------------*/
FoamFile
{
    version     2.0;
    format      ascii;
    class       volScalarField;
    location    "2.3";
    object      H;
}
// * * * * * * * * * * * * * * * * * * * * * * * * * * * * * * * * * * * * * //

dimensions      [0 2 -2 0 0 0 0];

internalField   nonuniform List<scalar> 
125
(
-39.3277
-39.3212
-39.3145
-39.3185
-39.3284
-38.6982
-38.6921
-38.6857
-38.6895
-38.6989
-38.0381
-38.0323
-38.0262
-38.0298
-38.0387
-37.3484
-37.3429
-37.3372
-37.3405
-37.3489
-36.6304
-36.6252
-36.6198
-36.623
-36.6309
-35.8854
-35.8805
-35.8754
-35.8784
-35.8859
-35.1148
-35.1103
-35.1055
-35.1083
-35.1153
-34.3202
-34.3159
-34.3114
-34.314
-34.3206
-33.5029
-33.499
-33.4948
-33.4972
-33.5033
-32.6648
-32.6612
-32.6573
-32.6595
-32.6651
-31.8074
-31.8041
-31.8005
-31.8025
-31.8077
-30.9325
-30.9295
-30.9261
-30.928
-30.9328
-30.0419
-30.0392
-30.0361
-30.0378
-30.0422
-29.1374
-29.135
-29.1322
-29.1337
-29.1377
-28.221
-28.2188
-28.2162
-28.2176
-28.2212
-27.2944
-27.2924
-27.2902
-27.2914
-27.2946
-26.3596
-26.3579
-26.3559
-26.3569
-26.3598
-25.4186
-25.4171
-25.4153
-25.4162
-25.4187
-24.4732
-24.4719
-24.4703
-24.4711
-24.4733
-23.5253
-23.5243
-23.5229
-23.5236
-23.5254
-22.5769
-22.5761
-22.5749
-22.5754
-22.577
-21.6298
-21.6291
-21.6281
-21.6285
-21.6298
-20.6857
-20.6853
-20.6845
-20.6848
-20.6858
-19.7466
-19.7463
-19.7456
-19.7458
-19.7466
-18.814
-18.8138
-18.8134
-18.8135
-18.814
)
;

boundaryField
{
    BotWall
    {
        type            zeroGradient;
    }
    FreeStream
    {
        type            zeroGradient;
    }
    FrontNBack
    {
        type            empty;
    }
    LeftSide
    {
        type            symmetryPlane;
    }
    RightSide
    {
        type            symmetryPlane;
    }
    procBoundary2to1
    {
        type            processor;
        value           nonuniform List<scalar> 5(-39.9212 -39.9144 -39.9074 -39.9115 -39.9219);
    }
    procBoundary2to3
    {
        type            processor;
        value           nonuniform List<scalar> 5(-17.8899 -17.8899 -17.8895 -17.8896 -17.8899);
    }
}


// ************************************************************************* //
