/*--------------------------------*- C++ -*----------------------------------*\
| =========                 |                                                 |
| \\      /  F ield         | OpenFOAM: The Open Source CFD Toolbox           |
|  \\    /   O peration     | Version:  2.4.0                                 |
|   \\  /    A nd           | Web:      www.OpenFOAM.org                      |
|    \\/     M anipulation  |                                                 |
\*---------------------------------------------------------------------------*/
FoamFile
{
    version     2.0;
    format      ascii;
    class       volScalarField;
    location    "2.3";
    object      p_rgh;
}
// * * * * * * * * * * * * * * * * * * * * * * * * * * * * * * * * * * * * * //

dimensions      [1 -1 -2 0 0 0 0];

internalField   nonuniform List<scalar> 
125
(
-1.09405e-05
-1.09383e-05
-1.09369e-05
-1.09381e-05
-1.09406e-05
-1.09012e-05
-1.0899e-05
-1.08977e-05
-1.08988e-05
-1.09012e-05
-1.08614e-05
-1.08593e-05
-1.0858e-05
-1.08591e-05
-1.08614e-05
-1.08212e-05
-1.08191e-05
-1.08179e-05
-1.08189e-05
-1.08212e-05
-1.07805e-05
-1.07785e-05
-1.07773e-05
-1.07783e-05
-1.07805e-05
-1.07394e-05
-1.07374e-05
-1.07362e-05
-1.07372e-05
-1.07394e-05
-1.06978e-05
-1.06959e-05
-1.06948e-05
-1.06957e-05
-1.06978e-05
-1.06558e-05
-1.06539e-05
-1.06528e-05
-1.06537e-05
-1.06558e-05
-1.06133e-05
-1.06115e-05
-1.06104e-05
-1.06113e-05
-1.06133e-05
-1.05703e-05
-1.05686e-05
-1.05675e-05
-1.05684e-05
-1.05703e-05
-1.05269e-05
-1.05252e-05
-1.05241e-05
-1.0525e-05
-1.05269e-05
-1.0483e-05
-1.04813e-05
-1.04803e-05
-1.04811e-05
-1.0483e-05
-1.04386e-05
-1.04369e-05
-1.0436e-05
-1.04367e-05
-1.04386e-05
-1.03937e-05
-1.03921e-05
-1.03911e-05
-1.03919e-05
-1.03937e-05
-1.03483e-05
-1.03467e-05
-1.03458e-05
-1.03465e-05
-1.03483e-05
-1.03023e-05
-1.03009e-05
-1.03e-05
-1.03007e-05
-1.03024e-05
-1.02559e-05
-1.02545e-05
-1.02536e-05
-1.02543e-05
-1.02559e-05
-1.0209e-05
-1.02076e-05
-1.02068e-05
-1.02074e-05
-1.0209e-05
-1.01615e-05
-1.01602e-05
-1.01594e-05
-1.016e-05
-1.01616e-05
-1.01136e-05
-1.01123e-05
-1.01115e-05
-1.01121e-05
-1.01136e-05
-1.00651e-05
-1.00638e-05
-1.00631e-05
-1.00637e-05
-1.00651e-05
-1.0016e-05
-1.00148e-05
-1.00141e-05
-1.00147e-05
-1.0016e-05
-9.96642e-06
-9.96527e-06
-9.96455e-06
-9.96511e-06
-9.96643e-06
-9.91627e-06
-9.91517e-06
-9.91447e-06
-9.91501e-06
-9.91628e-06
-9.86557e-06
-9.86451e-06
-9.86384e-06
-9.86436e-06
-9.86556e-06
)
;

boundaryField
{
    BotWall
    {
        type            fixedFluxPressure;
        gradient        nonuniform 0();
        value           nonuniform 0();
    }
    FreeStream
    {
        type            totalPressure;
        rho             rho;
        psi             none;
        gamma           1;
        p0              nonuniform 0();
        value           nonuniform 0();
    }
    FrontNBack
    {
        type            empty;
    }
    LeftSide
    {
        type            symmetryPlane;
    }
    RightSide
    {
        type            symmetryPlane;
    }
    procBoundary2to1
    {
        type            processor;
        value           nonuniform List<scalar> 5(-1.09794e-05 -1.09771e-05 -1.09757e-05 -1.09769e-05 -1.09795e-05);
    }
    procBoundary2to3
    {
        type            processor;
        value           nonuniform List<scalar> 5(-9.8143e-06 -9.81329e-06 -9.81264e-06 -9.81313e-06 -9.81429e-06);
    }
}


// ************************************************************************* //
