/*--------------------------------*- C++ -*----------------------------------*\
| =========                 |                                                 |
| \\      /  F ield         | OpenFOAM: The Open Source CFD Toolbox           |
|  \\    /   O peration     | Version:  2.4.0                                 |
|   \\  /    A nd           | Web:      www.OpenFOAM.org                      |
|    \\/     M anipulation  |                                                 |
\*---------------------------------------------------------------------------*/
FoamFile
{
    version     2.0;
    format      ascii;
    class       surfaceScalarField;
    location    "2.3";
    object      phi;
}
// * * * * * * * * * * * * * * * * * * * * * * * * * * * * * * * * * * * * * //

dimensions      [0 3 -1 0 0 0 0];

internalField   nonuniform List<scalar> 
220
(
-6.30566e-17
-2.70861e-10
-2.16317e-17
-2.70864e-10
4.05166e-17
-2.70864e-10
4.36436e-17
-2.70863e-10
-2.70861e-10
-6.43253e-17
-2.70861e-10
-2.2387e-17
-2.70864e-10
4.13082e-17
-2.70865e-10
4.49183e-17
-2.70863e-10
-2.70861e-10
-6.53221e-17
-2.70861e-10
-2.29819e-17
-2.70864e-10
4.19377e-17
-2.70865e-10
4.59376e-17
-2.70863e-10
-2.70861e-10
-6.60474e-17
-2.70861e-10
-2.34178e-17
-2.70864e-10
4.24053e-17
-2.70865e-10
4.67039e-17
-2.70863e-10
-2.70861e-10
-6.65024e-17
-2.70861e-10
-2.36967e-17
-2.70864e-10
4.27114e-17
-2.70865e-10
4.722e-17
-2.70863e-10
-2.70861e-10
-6.66894e-17
-2.70861e-10
-2.38214e-17
-2.70864e-10
4.28571e-17
-2.70865e-10
4.74897e-17
-2.70863e-10
-2.70861e-10
-6.66113e-17
-2.70861e-10
-2.37949e-17
-2.70864e-10
4.28439e-17
-2.70865e-10
4.75177e-17
-2.70863e-10
-2.70861e-10
-6.62721e-17
-2.70861e-10
-2.3621e-17
-2.70864e-10
4.2674e-17
-2.70865e-10
4.73093e-17
-2.70863e-10
-2.70861e-10
-6.56766e-17
-2.70861e-10
-2.3304e-17
-2.70864e-10
4.23499e-17
-2.70865e-10
4.68707e-17
-2.70863e-10
-2.70861e-10
-6.48306e-17
-2.7086e-10
-2.28485e-17
-2.70864e-10
4.18748e-17
-2.70865e-10
4.62088e-17
-2.70863e-10
-2.70861e-10
-6.37404e-17
-2.7086e-10
-2.22597e-17
-2.70864e-10
4.12524e-17
-2.70865e-10
4.53314e-17
-2.70863e-10
-2.70861e-10
-6.24137e-17
-2.7086e-10
-2.15433e-17
-2.70864e-10
4.04867e-17
-2.70865e-10
4.42467e-17
-2.70863e-10
-2.70861e-10
-6.08585e-17
-2.7086e-10
-2.07054e-17
-2.70864e-10
3.95824e-17
-2.70865e-10
4.29638e-17
-2.70863e-10
-2.70861e-10
-5.90838e-17
-2.7086e-10
-1.97524e-17
-2.70864e-10
3.85446e-17
-2.70865e-10
4.14922e-17
-2.70863e-10
-2.70861e-10
-5.70993e-17
-2.7086e-10
-1.86911e-17
-2.70864e-10
3.73789e-17
-2.70865e-10
3.98421e-17
-2.70863e-10
-2.70861e-10
-5.49154e-17
-2.7086e-10
-1.75286e-17
-2.70864e-10
3.60912e-17
-2.70865e-10
3.8024e-17
-2.70863e-10
-2.70861e-10
-5.2543e-17
-2.7086e-10
-1.62722e-17
-2.70864e-10
3.46879e-17
-2.70865e-10
3.6049e-17
-2.70863e-10
-2.70861e-10
-4.99936e-17
-2.7086e-10
-1.49295e-17
-2.70864e-10
3.31757e-17
-2.70865e-10
3.39284e-17
-2.70863e-10
-2.70861e-10
-4.72794e-17
-2.7086e-10
-1.3508e-17
-2.70864e-10
3.15616e-17
-2.70866e-10
3.16739e-17
-2.70863e-10
-2.70861e-10
-4.44127e-17
-2.7086e-10
-1.20156e-17
-2.70864e-10
2.98529e-17
-2.70866e-10
2.92973e-17
-2.70863e-10
-2.70861e-10
-4.14064e-17
-2.7086e-10
-1.04602e-17
-2.70864e-10
2.80571e-17
-2.70866e-10
2.68105e-17
-2.70863e-10
-2.70861e-10
-3.82736e-17
-2.7086e-10
-8.84938e-18
-2.70864e-10
2.61823e-17
-2.70866e-10
2.42252e-17
-2.70863e-10
-2.70861e-10
-3.50277e-17
-2.7086e-10
-7.19105e-18
-2.70864e-10
2.42365e-17
-2.70866e-10
2.15538e-17
-2.70863e-10
-2.7086e-10
-3.16822e-17
-2.7086e-10
-5.49277e-18
-2.70864e-10
2.22276e-17
-2.70866e-10
1.88087e-17
-2.70863e-10
-2.7086e-10
-2.82508e-17
-3.76186e-18
2.0164e-17
1.60009e-17
)
;

boundaryField
{
    BotWall
    {
        type            calculated;
        value           nonuniform 0();
    }
    FreeStream
    {
        type            calculated;
        value           nonuniform 0();
    }
    FrontNBack
    {
        type            empty;
        value           nonuniform 0();
    }
    LeftSide
    {
        type            symmetryPlane;
        value           uniform 0;
    }
    RightSide
    {
        type            symmetryPlane;
        value           uniform 0;
    }
    procBoundary2to1
    {
        type            processor;
        value           nonuniform List<scalar> 5(2.70861e-10 2.70864e-10 2.70864e-10 2.70863e-10 2.70861e-10);
    }
    procBoundary2to3
    {
        type            processor;
        value           nonuniform List<scalar> 5(-2.7086e-10 -2.70864e-10 -2.70866e-10 -2.70863e-10 -2.7086e-10);
    }
}


// ************************************************************************* //
