/*--------------------------------*- C++ -*----------------------------------*\
| =========                 |                                                 |
| \\      /  F ield         | OpenFOAM: The Open Source CFD Toolbox           |
|  \\    /   O peration     | Version:  2.4.0                                 |
|   \\  /    A nd           | Web:      www.OpenFOAM.org                      |
|    \\/     M anipulation  |                                                 |
\*---------------------------------------------------------------------------*/
FoamFile
{
    version     2.0;
    format      ascii;
    class       volVectorField;
    location    "2.3";
    object      U;
}
// * * * * * * * * * * * * * * * * * * * * * * * * * * * * * * * * * * * * * //

dimensions      [0 1 -1 0 0 0 0];

internalField   nonuniform List<vector> 
125
(
(-1.22583e-08 -0.00135431 0)
(-1.41084e-08 -0.00135432 0)
(5.06703e-09 -0.00135432 0)
(1.18811e-08 -0.00135432 0)
(6.35619e-09 -0.00135431 0)
(-1.23269e-08 -0.00135431 0)
(-1.42738e-08 -0.00135432 0)
(5.01958e-09 -0.00135432 0)
(1.20691e-08 -0.00135432 0)
(6.49432e-09 -0.00135431 0)
(-1.23489e-08 -0.0013543 0)
(-1.4366e-08 -0.00135432 0)
(4.9705e-09 -0.00135432 0)
(1.21873e-08 -0.00135432 0)
(6.58832e-09 -0.00135431 0)
(-1.23258e-08 -0.0013543 0)
(-1.43877e-08 -0.00135432 0)
(4.91946e-09 -0.00135432 0)
(1.22383e-08 -0.00135432 0)
(6.64009e-09 -0.00135431 0)
(-1.22592e-08 -0.0013543 0)
(-1.43415e-08 -0.00135432 0)
(4.86611e-09 -0.00135432 0)
(1.22248e-08 -0.00135432 0)
(6.65156e-09 -0.00135431 0)
(-1.21508e-08 -0.0013543 0)
(-1.42303e-08 -0.00135432 0)
(4.81015e-09 -0.00135432 0)
(1.21499e-08 -0.00135432 0)
(6.62474e-09 -0.00135431 0)
(-1.20021e-08 -0.0013543 0)
(-1.4057e-08 -0.00135432 0)
(4.75129e-09 -0.00135432 0)
(1.20164e-08 -0.00135432 0)
(6.56168e-09 -0.00135431 0)
(-1.18152e-08 -0.0013543 0)
(-1.3825e-08 -0.00135432 0)
(4.68927e-09 -0.00135432 0)
(1.18277e-08 -0.00135432 0)
(6.4645e-09 -0.00135431 0)
(-1.15918e-08 -0.0013543 0)
(-1.35372e-08 -0.00135432 0)
(4.62382e-09 -0.00135432 0)
(1.15867e-08 -0.00135432 0)
(6.33535e-09 -0.00135431 0)
(-1.13339e-08 -0.0013543 0)
(-1.31972e-08 -0.00135432 0)
(4.55476e-09 -0.00135433 0)
(1.1297e-08 -0.00135432 0)
(6.17641e-09 -0.0013543 0)
(-1.10436e-08 -0.0013543 0)
(-1.28084e-08 -0.00135432 0)
(4.48187e-09 -0.00135433 0)
(1.09619e-08 -0.00135432 0)
(5.98988e-09 -0.0013543 0)
(-1.0723e-08 -0.0013543 0)
(-1.23743e-08 -0.00135432 0)
(4.40502e-09 -0.00135433 0)
(1.05847e-08 -0.00135432 0)
(5.77799e-09 -0.0013543 0)
(-1.03742e-08 -0.0013543 0)
(-1.18984e-08 -0.00135432 0)
(4.32408e-09 -0.00135433 0)
(1.0169e-08 -0.00135432 0)
(5.54297e-09 -0.0013543 0)
(-9.99946e-09 -0.0013543 0)
(-1.13844e-08 -0.00135432 0)
(4.23896e-09 -0.00135433 0)
(9.71823e-09 -0.00135432 0)
(5.28702e-09 -0.0013543 0)
(-9.60094e-09 -0.0013543 0)
(-1.08359e-08 -0.00135432 0)
(4.14963e-09 -0.00135433 0)
(9.23592e-09 -0.00135432 0)
(5.01235e-09 -0.0013543 0)
(-9.1809e-09 -0.0013543 0)
(-1.02566e-08 -0.00135432 0)
(4.05606e-09 -0.00135433 0)
(8.72554e-09 -0.00135432 0)
(4.72115e-09 -0.0013543 0)
(-8.74161e-09 -0.0013543 0)
(-9.65003e-09 -0.00135432 0)
(3.95829e-09 -0.00135433 0)
(8.19055e-09 -0.00135432 0)
(4.41554e-09 -0.0013543 0)
(-8.28533e-09 -0.0013543 0)
(-9.01991e-09 -0.00135432 0)
(3.85639e-09 -0.00135433 0)
(7.63434e-09 -0.00135432 0)
(4.09762e-09 -0.0013543 0)
(-7.81431e-09 -0.0013543 0)
(-8.36978e-09 -0.00135432 0)
(3.75048e-09 -0.00135433 0)
(7.06027e-09 -0.00135432 0)
(3.76944e-09 -0.0013543 0)
(-7.3308e-09 -0.0013543 0)
(-7.70313e-09 -0.00135432 0)
(3.64071e-09 -0.00135433 0)
(6.4716e-09 -0.00135432 0)
(3.43297e-09 -0.0013543 0)
(-6.83702e-09 -0.0013543 0)
(-7.02339e-09 -0.00135432 0)
(3.5273e-09 -0.00135433 0)
(5.87151e-09 -0.00135432 0)
(3.0901e-09 -0.0013543 0)
(-6.33515e-09 -0.0013543 0)
(-6.33391e-09 -0.00135432 0)
(3.41047e-09 -0.00135433 0)
(5.26306e-09 -0.00135432 0)
(2.74266e-09 -0.0013543 0)
(-5.82735e-09 -0.0013543 0)
(-5.63792e-09 -0.00135432 0)
(3.29053e-09 -0.00135433 0)
(4.64929e-09 -0.00135432 0)
(2.39246e-09 -0.0013543 0)
(-5.31571e-09 -0.0013543 0)
(-4.93853e-09 -0.00135432 0)
(3.16778e-09 -0.00135433 0)
(4.033e-09 -0.00135432 0)
(2.04112e-09 -0.0013543 0)
(-4.80229e-09 -0.0013543 0)
(-4.23873e-09 -0.00135432 0)
(3.04262e-09 -0.00135433 0)
(3.4169e-09 -0.00135432 0)
(1.69024e-09 -0.0013543 0)
)
;

boundaryField
{
    BotWall
    {
        type            fixedValue;
        value           nonuniform 0();
    }
    FreeStream
    {
        type            zeroGradient;
    }
    FrontNBack
    {
        type            empty;
    }
    LeftSide
    {
        type            symmetryPlane;
    }
    RightSide
    {
        type            symmetryPlane;
    }
    procBoundary2to1
    {
        type            processor;
        value           nonuniform List<vector> 5((-1.21419e-08 -0.00135431 0) (-1.38675e-08 -0.00135432 0) (5.1132e-09 -0.00135432 0) (1.16208e-08 -0.00135432 0) (6.17217e-09 -0.00135431 0));
    }
    procBoundary2to3
    {
        type            processor;
        value           nonuniform List<vector> 5((-4.28907e-09 -0.0013543 0) (-3.54138e-09 -0.00135432 0) (2.91543e-09 -0.00135433 0) (2.80346e-09 -0.00135432 0) (1.34118e-09 -0.0013543 0));
    }
}


// ************************************************************************* //
