/*--------------------------------*- C++ -*----------------------------------*\
| =========                 |                                                 |
| \\      /  F ield         | OpenFOAM: The Open Source CFD Toolbox           |
|  \\    /   O peration     | Version:  2.4.0                                 |
|   \\  /    A nd           | Web:      www.OpenFOAM.org                      |
|    \\/     M anipulation  |                                                 |
\*---------------------------------------------------------------------------*/
FoamFile
{
    version     2.0;
    format      ascii;
    class       volScalarField;
    location    "4.8";
    object      H;
}
// * * * * * * * * * * * * * * * * * * * * * * * * * * * * * * * * * * * * * //

dimensions      [0 2 -2 0 0 0 0];

internalField   nonuniform List<scalar> 
8000
(
-11241
-9276.01
-7351.19
-5502.66
-3762.39
-2116.01
-49.2555
-2.75098
-3.37898
-2.926
-2.99334
-2.83865
-2.80631
-2.81402
-2.81631
-2.80944
-2.79086
-2.75846
-2.71122
-2.64978
-2.57596
-2.49183
-2.399
-2.29883
-2.19264
-2.08178
-1.96774
-1.85211
-1.73656
-1.62263
-1.51168
-1.4048
-1.30279
-1.2062
-1.11537
-1.03054
-0.951798
-0.879153
-0.812497
-0.751625
-0.696245
-0.645979
-0.600378
-0.559189
-0.522137
-0.488595
-0.457947
-0.429613
-0.403061
-0.377826
-11474
-9965.61
-8467.16
-6983.8
-5520.42
-4078.32
-2648.98
-1343.56
-9.77281
-5.7089
-3.60173
-0.704227
-1.3485
-1.45209
-1.74668
-1.9536
-2.14159
-2.28144
-2.3725
-2.43077
-2.46735
-2.48702
-2.49224
-2.48457
-2.46545
-2.4364
-2.39903
-2.355
-2.30601
-2.25328
-2.19744
-2.13867
-2.07707
-2.01291
-1.94676
-1.87931
-1.81128
-1.74329
-1.67588
-1.60953
-1.54463
-1.48152
-1.42043
-1.36153
-1.30488
-1.25039
-1.19789
-1.14708
-1.09752
-1.0487
-11710.9
-10681.7
-9675.3
-8699.39
-7755.86
-6840.93
-5943.28
-5039.4
-4095.2
-3071.65
-1930.69
-697.112
-373.965
-4.20227
-1.25397
-1.52649
-1.90045
-2.29358
-0.396246
-0.178353
-0.417939
-0.654561
-0.889637
-1.10571
-1.29457
-1.45316
-1.58253
-1.68127
-1.75857
-1.82069
-1.87022
-1.90827
-1.93544
-1.95229
-1.9599
-1.95949
-1.95213
-1.93878
-1.92027
-1.89736
-1.8707
-1.84092
-1.80855
-1.77404
-1.73773
-1.69991
-1.66076
-1.62037
-1.57876
-1.53585
-11881.2
-11191
-10519.2
-9871.63
-9250.26
-8654.04
-8079.99
-7523.82
-6980.63
-6445.47
-5913.92
-5382.33
-4846.41
-4295.6
-3716.6
-3096.13
-2419.63
-1678.35
-889.778
-228.635
-2.5869
-0.524658
-0.308963
-0.111946
-0.107331
-0.0784892
-0.204133
-0.316525
-0.452806
-0.608515
-0.768415
-0.917674
-1.0406
-1.14083
-1.22831
-1.3078
-1.38113
-1.44594
-1.50083
-1.54565
-1.58119
-1.60848
-1.62839
-1.6416
-1.64875
-1.6504
-1.64701
-1.63895
-1.62648
-1.60982
-11977.9
-11476.5
-10982.6
-10498.8
-10026.5
-9565.77
-9115.97
-8675.81
-8243.75
-7818.07
-7397.04
-6978.91
-6561.9
-6144.26
-5724.32
-5300.56
-4871.53
-4435.75
-3991.42
-3535.74
-3063.24
-2565.02
-2031.21
-1454.72
-844.792
-279.961
-2.46753
-0.0910965
-0.0459009
-0.0383118
-0.0325034
-0.136727
-0.226546
-0.327841
-0.443772
-0.565901
-0.67126
-0.760534
-0.84334
-0.921692
-0.995907
-1.06484
-1.12727
-1.18318
-1.2328
-1.27614
-1.3132
-1.34402
-1.36871
-1.38739
-12009.8
-11569.9
-11131.1
-10694.1
-10259.5
-9827.9
-9399.85
-8975.85
-8556.45
-8142.16
-7733.49
-7330.82
-6934.47
-6544.54
-6160.93
-5783.32
-5411.12
-5043.49
-4679.43
-4317.79
-3957.39
-3596.94
-3235.27
-2871.41
-2504.65
-2134.25
-1758.98
-1376.28
-984.018
-593.326
-243.334
-2.08934
-0.0486873
-0.0236105
-0.0172836
-0.00216614
-0.0983583
-0.190114
-0.283209
-0.370313
-0.444078
-0.510519
-0.57765
-0.646204
-0.715129
-0.782465
-0.846692
-0.906705
-0.961696
-1.01104
-12009.7
-11568.6
-11126.1
-10682.3
-10237.4
-9792.27
-9348.13
-8906.39
-8468.71
-8036.82
-7612.46
-7197.28
-6792.76
-6400.13
-6020.3
-5653.83
-5300.98
-4961.66
-4635.53
-4321.94
-4019.96
-3728.43
-3446.05
-3171.36
-2903.16
-2639.69
-2379.26
-2120.42
-1861.93
-1602.77
-1342.16
-1079.53
-813.666
-542.735
-264.024
-1.95572
-0.0345634
-0.014373
-0.00931558
-0.00155622
-0.0513968
-0.110988
-0.176978
-0.242348
-0.302406
-0.362219
-0.423092
-0.485038
-0.546881
-0.607262
-11996.5
-11528.6
-11058.8
-10586.7
-10112.7
-9637.83
-9163.62
-8691.99
-8225.13
-7765.38
-7315.06
-6876.45
-6451.59
-6042.28
-5649.94
-5275.66
-4920.1
-4583.55
-4265.9
-3966.71
-3685.21
-3420.39
-3171
-2935.61
-2712.69
-2500.66
-2298.01
-2103.33
-1915.24
-1732.34
-1553.1
-1376.9
-1203.21
-1030.93
-859.623
-689.252
-519.311
-348.195
-171.806
-7.92016
-0.072267
-0.0072799
-0.00461455
-0.030539
-0.0662124
-0.106989
-0.149449
-0.191528
-0.235451
-0.282162
-11980.1
-11479.6
-10977.5
-10473.5
-9968.24
-9462.95
-8959.34
-8459.55
-7965.97
-7481.15
-7007.65
-6547.9
-6104.14
-5678.32
-5272.01
-4886.42
-4522.34
-4180.14
-3859.83
-3561.07
-3283.2
-3025.31
-2786.3
-2564.9
-2359.73
-2169.37
-1992.37
-1827.27
-1672.67
-1527.22
-1389.61
-1258.54
-1132.68
-1011.44
-894.588
-781.39
-671.376
-564.225
-459.795
-358.352
-260.925
-168.068
-79.9531
-0.60121
-0.0111373
-0.0022476
-0.000448138
-0.0364859
-0.0691603
-0.0995274
-11964.9
-11434.2
-10902.5
-10369.9
-9837.33
-9306.2
-8778.48
-8256.46
-7742.67
-7239.7
-6750.14
-6276.42
-5820.7
-5384.86
-4970.4
-4578.4
-4209.55
-3864.15
-3542.12
-3243.05
-2966.25
-2710.81
-2475.63
-2259.47
-2061.03
-1878.93
-1711.82
-1558.36
-1417.23
-1287.21
-1167.12
-1055.89
-952.505
-856.073
-765.784
-680.922
-600.87
-525.101
-453.178
-384.728
-319.366
-256.867
-197.661
-142.1
-90.7114
-43.2873
-0.302415
-0.0103381
-0.00753457
-0.0216184
-11955.7
-11407.1
-10858.6
-10311.1
-9765.77
-9224.32
-8688.75
-8161.31
-7644.34
-7140.2
-6651.17
-6179.33
-5726.52
-5294.25
-4883.71
-4495.7
-4130.7
-3788.81
-3469.84
-3173.32
-2898.56
-2644.66
-2410.6
-2195.25
-1997.42
-1815.9
-1649.46
-1496.92
-1357.13
-1229
-1111.48
-1003.63
-904.542
-813.407
-729.478
-652.077
-580.593
-514.475
-453.228
-396.404
-343.589
-294.386
-248.385
-205.131
-164.077
-124.598
-86.4902
-51.5464
-22.9278
-0.168062
-11956.7
-11410.5
-10865.9
-10324.3
-9787.18
-9256.31
-8733.59
-8220.98
-7720.4
-7233.75
-6762.74
-6308.92
-5873.6
-5457.81
-5062.32
-4687.61
-4333.89
-4001.13
-3689.04
-3397.17
-3124.88
-2871.41
-2635.9
-2417.42
-2215.01
-2027.68
-1854.45
-1694.36
-1546.48
-1409.92
-1283.82
-1167.37
-1059.83
-960.484
-868.668
-783.762
-705.19
-632.409
-564.912
-502.226
-443.904
-389.527
-338.696
-291.029
-246.139
-203.615
-162.961
-123.523
-84.5032
-46.0714
-11967.2
-11442.3
-10920
-10401.9
-9889.7
-9385.17
-8889.98
-8405.71
-7933.89
-7475.87
-7032.84
-6605.81
-6195.59
-5802.77
-5427.74
-5070.68
-4731.6
-4410.33
-4106.56
-3819.86
-3549.7
-3295.47
-3056.51
-2832.11
-2621.58
-2424.18
-2239.2
-2065.95
-1903.74
-1751.94
-1609.91
-1477.07
-1352.83
-1236.67
-1128.07
-1026.53
-931.594
-842.8
-759.719
-681.933
-609.039
-540.651
-476.401
-415.942
-358.959
-305.181
-254.39
-206.42
-161.113
-118.229
-11984
-11492.9
-11004.9
-10521.8
-10045.2
-9576.6
-9117.48
-8669.02
-8232.3
-7808.19
-7397.43
-7000.58
-6618.04
-6250.06
-5896.74
-5558.07
-5233.91
-4924.03
-4628.14
-4345.87
-4076.8
-3820.5
-3576.5
-3344.32
-3123.51
-2913.59
-2714.13
-2524.68
-2344.83
-2174.19
-2012.37
-1859
-1713.72
-1576.2
-1446.09
-1323.05
-1206.74
-1096.84
-992.986
-894.844
-802.054
-714.252
-631.069
-552.134
-477.088
-405.603
-337.415
-272.362
-210.43
-151.768
-12003.3
-11550.8
-11101.3
-10656.5
-10217.6
-9786.19
-9363.18
-8949.52
-8545.97
-8153.09
-7771.33
-7400.96
-7042.18
-6695.03
-6359.49
-6035.45
-5722.74
-5421.15
-5130.42
-4850.26
-4580.39
-4320.51
-4070.34
-3829.58
-3597.97
-3375.27
-3161.23
-2955.65
-2758.33
-2569.09
-2387.74
-2214.12
-2048.06
-1889.38
-1737.89
-1593.41
-1455.7
-1324.52
-1199.6
-1080.62
-967.24
-859.065
-755.673
-656.613
-561.427
-469.691
-381.085
-295.484
-213.07
-134.354
-12019.9
-11600.6
-11183.8
-10770.9
-10363.1
-9961.48
-9566.83
-9179.86
-8801.1
-8430.96
-8069.72
-7717.58
-7374.62
-7040.86
-6716.25
-6400.69
-6094.05
-5796.15
-5506.82
-5225.86
-4953.1
-4688.34
-4431.44
-4182.25
-3940.65
-3706.54
-3479.84
-3260.51
-3048.51
-2843.8
-2646.37
-2456.18
-2273.22
-2097.44
-1928.75
-1767.06
-1612.2
-1463.99
-1322.16
-1186.39
-1056.29
-931.404
-811.213
-695.13
-582.518
-472.719
-365.092
-259.11
-154.551
-51.7101
-12028.7
-11626.6
-11226.4
-10829
-10435.6
-10047.1
-9664.24
-9287.82
-8918.39
-8556.43
-8202.27
-7856.14
-7518.14
-7188.3
-6866.59
-6552.88
-6247.04
-5948.9
-5658.27
-5374.99
-5098.88
-4829.8
-4567.65
-4312.33
-4063.79
-3822.03
-3587.04
-3358.88
-3137.6
-2923.28
-2715.99
-2515.83
-2322.84
-2137.07
-1958.51
-1787.09
-1622.7
-1465.12
-1314.06
-1169.14
-1029.88
-895.732
-766.071
-640.251
-517.647
-398.214
-282.172
-170.511
-65.0341
-0.470984
-12021.7
-11605.7
-11191.4
-10780.5
-10374.3
-9974.22
-9581.44
-9196.84
-8821.09
-8454.59
-8097.54
-7749.93
-7411.65
-7082.45
-6762.03
-6450.05
-6146.16
-5850.02
-5561.3
-5279.74
-5005.09
-4737.18
-4475.86
-4221.07
-3972.77
-3731
-3495.82
-3267.34
-3045.67
-2830.96
-2623.37
-2423.04
-2230.09
-2044.63
-1866.67
-1696.18
-1533.01
-1376.9
-1227.48
-1084.24
-946.509
-813.513
-684.313
-557.779
-432.448
-306.185
-175.545
-35.044
-0.265833
-0.300591
-11981.9
-11487.8
-11000.6
-10525
-10064
-9619.61
-9192.67
-8783.16
-8390.47
-8013.71
-7651.79
-7303.54
-6967.83
-6643.59
-6329.83
-6025.69
-5730.4
-5443.31
-5163.88
-4891.7
-4626.42
-4367.81
-4115.72
-3870.09
-3630.91
-3398.24
-3172.19
-2952.89
-2740.51
-2535.22
-2337.23
-2146.78
-1964.09
-1789.31
-1622.51
-1463.64
-1312.52
-1168.83
-1032.04
-901.454
-776.183
-655.137
-537.055
-420.498
-304.11
-187.35
-66.5371
-0.539487
-0.501667
-0.388204
-11774.4
-11012.4
-10355.9
-9776.69
-9256.08
-8780.98
-8342.05
-7932.44
-7547.01
-7181.83
-6833.86
-6500.71
-6180.49
-5871.69
-5573.1
-5283.77
-5002.93
-4729.99
-4464.5
-4206.12
-3954.65
-3709.94
-3471.96
-3240.73
-3016.36
-2798.96
-2588.7
-2385.74
-2190.16
-2001.9
-1820.87
-1649.06
-1486.64
-1333.77
-1190.47
-1056.66
-932.151
-816.659
-709.79
-611.073
-519.98
-435.951
-358.419
-286.83
-220.653
-159.376
-102.481
-49.4324
-0.308378
-0.297907
-0.353517
-0.329829
-0.306541
-0.283833
-0.261945
-0.241025
-0.221166
-0.202435
-0.184886
-0.168164
-0.151898
-0.136052
-0.120765
-0.106237
-0.0926705
-0.0802233
-0.068998
-0.0590365
-0.0503262
-0.0428102
-0.0364022
-0.0310026
-0.0265071
-0.0228097
-0.0198059
-0.0173946
-0.01548
-0.0139735
-0.0127956
-0.011877
-0.0111583
-0.0105906
-0.0101343
-0.00975788
-0.00943733
-0.00915439
-0.00889566
-0.00865161
-0.00841568
-0.00818362
-0.00795287
-0.00772212
-0.00749092
-0.00725942
-0.00702818
-0.00679794
-0.00656957
-0.00634396
-0.006122
-0.00590447
-1.00005
-0.95093
-0.900724
-0.848868
-0.794899
-0.73852
-0.679649
-0.618469
-0.555458
-0.49187
-0.430649
-0.373253
-0.320489
-0.272836
-0.230499
-0.193459
-0.161522
-0.134367
-0.111584
-0.0925853
-0.076639
-0.0632587
-0.0521008
-0.0428935
-0.0353968
-0.0293829
-0.0246314
-0.0209323
-0.0180909
-0.0159326
-0.0143066
-0.0130876
-0.0121739
-0.0114854
-0.0109594
-0.0105482
-0.0102155
-0.0099348
-0.00968652
-0.00945693
-0.00923659
-0.00901925
-0.00880105
-0.00857985
-0.00835472
-0.00812554
-0.00789281
-0.00765732
-0.0074201
-0.00718224
-1.49147
-1.44541
-1.39738
-1.34707
-1.29419
-1.23844
-1.17961
-1.11757
-1.0523
-0.983941
-0.912766
-0.839171
-0.763671
-0.686921
-0.60974
-0.533116
-0.458186
-0.387043
-0.321916
-0.263596
-0.212763
-0.169555
-0.133682
-0.104549
-0.0813737
-0.0632904
-0.0494318
-0.0389856
-0.0312278
-0.0255364
-0.021362
-0.0183066
-0.0160785
-0.0144612
-0.0132918
-0.0124473
-0.0118349
-0.0113845
-0.0110442
-0.010776
-0.0105524
-0.0103543
-0.0101683
-0.00998568
-0.0098006
-0.00960966
-0.00941101
-0.00920392
-0.00898847
-0.00876528
-1.58908
-1.56429
-1.53545
-1.50249
-1.46532
-1.42379
-1.3778
-1.32723
-1.27201
-1.21218
-1.14785
-1.07928
-1.00686
-0.931197
-0.853048
-0.773375
-0.693298
-0.614058
-0.53692
-0.463074
-0.393572
-0.329288
-0.271763
-0.221778
-0.179028
-0.14304
-0.113229
-0.0889365
-0.0694738
-0.0541557
-0.0423625
-0.0334697
-0.026894
-0.0221205
-0.0187151
-0.0163243
-0.01467
-0.0135391
-0.0127723
-0.0122507
-0.0118888
-0.01163
-0.0114359
-0.0112801
-0.0111446
-0.0110166
-0.0108878
-0.0107524
-0.0106071
-0.0104498
-1.40019
-1.40719
-1.40849
-1.40411
-1.39411
-1.37847
-1.3572
-1.33027
-1.29768
-1.25953
-1.21573
-1.16652
-1.11218
-1.05304
-0.989622
-0.922554
-0.852631
-0.780771
-0.707992
-0.635373
-0.564008
-0.494969
-0.429253
-0.367699
-0.310944
-0.259425
-0.21339
-0.173563
-0.139972
-0.112047
-0.0891691
-0.0707019
-0.0560163
-0.044513
-0.0356401
-0.0289037
-0.023873
-0.0201808
-0.0175205
-0.0156439
-0.0143517
-0.0134833
-0.0129135
-0.0125479
-0.0123173
-0.0121721
-0.0120773
-0.0120093
-0.0119519
-0.011894
-1.05434
-1.09136
-1.12199
-1.14623
-1.16406
-1.17551
-1.18059
-1.17934
-1.17182
-1.15797
-1.13788
-1.11163
-1.07947
-1.04161
-0.998376
-0.950192
-0.897606
-0.841277
-0.781968
-0.72053
-0.657883
-0.594978
-0.532769
-0.472171
-0.414029
-0.359089
-0.307977
-0.261184
-0.219019
-0.181601
-0.148893
-0.120866
-0.0976113
-0.0785593
-0.0631483
-0.0508417
-0.0411417
-0.033598
-0.0278128
-0.0234404
-0.0201867
-0.0178062
-0.0160974
-0.0148978
-0.0140782
-0.0135373
-0.0131966
-0.0129961
-0.0128903
-0.0128462
-0.664981
-0.71902
-0.768591
-0.813156
-0.852353
-0.88592
-0.913688
-0.935518
-0.95129
-0.960891
-0.964315
-0.961577
-0.952729
-0.937881
-0.917219
-0.891018
-0.859634
-0.823512
-0.783187
-0.739275
-0.692462
-0.643494
-0.593148
-0.542216
-0.491477
-0.441675
-0.39349
-0.347525
-0.30428
-0.264145
-0.227401
-0.194214
-0.164642
-0.138618
-0.11598
-0.0965059
-0.0799295
-0.0659641
-0.0545468
-0.045291
-0.037851
-0.0319227
-0.0272425
-0.0235849
-0.0207585
-0.0186033
-0.0169859
-0.0157965
-0.0149442
-0.014355
-0.330922
-0.380804
-0.430999
-0.480559
-0.528367
-0.573389
-0.614838
-0.65208
-0.684654
-0.712247
-0.734608
-0.751564
-0.763007
-0.768911
-0.769321
-0.764355
-0.754201
-0.739119
-0.719436
-0.695549
-0.667913
-0.637037
-0.603474
-0.567807
-0.530634
-0.492553
-0.454147
-0.415968
-0.378521
-0.342255
-0.307554
-0.274728
-0.244012
-0.215565
-0.189476
-0.165771
-0.144425
-0.125369
-0.108504
-0.0936951
-0.0807813
-0.0695926
-0.0599565
-0.0517045
-0.0446765
-0.0387237
-0.0337099
-0.0295568
-0.0261685
-0.0234229
-0.130705
-0.164763
-0.201682
-0.240832
-0.281462
-0.322706
-0.363562
-0.403012
-0.440198
-0.47444
-0.505251
-0.532265
-0.555219
-0.573938
-0.588321
-0.59834
-0.604026
-0.605473
-0.602828
-0.596292
-0.586112
-0.572581
-0.556027
-0.536812
-0.515319
-0.491949
-0.467106
-0.441194
-0.414605
-0.387709
-0.360851
-0.334342
-0.308454
-0.283419
-0.259428
-0.236629
-0.215132
-0.195007
-0.176296
-0.159006
-0.143121
-0.128605
-0.115404
-0.103455
-0.0926862
-0.0830219
-0.0743859
-0.0667028
-0.059897
-0.053893
-0.036793
-0.0574069
-0.07853
-0.10113
-0.127254
-0.15601
-0.186389
-0.217636
-0.248988
-0.279698
-0.309128
-0.336778
-0.362252
-0.385244
-0.405514
-0.422897
-0.437287
-0.44864
-0.456953
-0.462273
-0.464686
-0.464312
-0.461305
-0.455846
-0.448138
-0.438402
-0.426873
-0.413794
-0.39941
-0.383967
-0.367704
-0.350851
-0.333623
-0.31622
-0.298823
-0.281593
-0.264671
-0.248175
-0.232206
-0.21684
-0.202141
-0.188151
-0.174901
-0.162407
-0.150677
-0.139711
-0.129503
-0.120047
-0.11134
-0.103387
-0.00693448
-0.0153927
-0.0276585
-0.0428169
-0.0571001
-0.0718094
-0.0891505
-0.108334
-0.128638
-0.149644
-0.170939
-0.192102
-0.21276
-0.232569
-0.251261
-0.2686
-0.284415
-0.298542
-0.310893
-0.321402
-0.330039
-0.336808
-0.341737
-0.344882
-0.346311
-0.346116
-0.344403
-0.341285
-0.336887
-0.331338
-0.324769
-0.317314
-0.309104
-0.300266
-0.290924
-0.281193
-0.271182
-0.260992
-0.250712
-0.240425
-0.230203
-0.22011
-0.2102
-0.200521
-0.191114
-0.182018
-0.173266
-0.164899
-0.156965
-0.149542
-13.722
-0.106592
-0.0612678
-0.0608203
-0.0658136
-0.0668676
-0.0710887
-0.0795766
-0.0889665
-0.0989516
-0.109508
-0.120565
-0.131965
-0.143519
-0.155082
-0.166482
-0.177547
-0.188124
-0.198094
-0.207347
-0.2158
-0.22339
-0.230071
-0.235819
-0.24062
-0.244482
-0.247422
-0.249466
-0.250646
-0.251008
-0.250601
-0.249477
-0.247691
-0.245303
-0.242371
-0.238955
-0.235114
-0.230904
-0.226381
-0.221596
-0.216597
-0.211431
-0.206141
-0.200766
-0.195345
-0.189916
-0.184516
-0.179189
-0.17399
-0.169001
-77.7388
-39.0204
-0.246689
-0.23167
-0.217417
-0.180637
-0.155745
-0.149035
-0.14428
-0.140477
-0.137643
-0.135837
-0.135039
-0.13519
-0.136187
-0.137903
-0.140202
-0.142948
-0.146012
-0.149274
-0.152632
-0.155996
-0.159289
-0.162455
-0.165431
-0.168185
-0.170689
-0.172914
-0.174844
-0.176469
-0.177783
-0.178787
-0.179494
-0.179882
-0.179966
-0.179775
-0.179326
-0.178631
-0.177708
-0.176572
-0.175242
-0.173732
-0.172063
-0.170247
-0.168304
-0.166254
-0.164117
-0.161915
-0.159679
-0.157452
-96.6388
-45.2843
-0.282324
-0.274401
-0.259201
-0.212025
-0.188321
-0.181327
-0.17499
-0.169064
-0.163552
-0.158513
-0.153994
-0.150014
-0.146564
-0.143617
-0.141131
-0.139061
-0.137356
-0.135967
-0.13485
-0.133961
-0.133263
-0.132728
-0.13232
-0.132017
-0.131804
-0.13166
-0.131573
-0.131527
-0.131516
-0.131529
-0.131567
-0.131597
-0.131612
-0.131614
-0.131602
-0.131579
-0.131538
-0.131472
-0.131378
-0.131251
-0.131088
-0.130887
-0.130641
-0.130354
-0.130028
-0.129664
-0.129264
-0.128832
-59.9562
-0.385423
-0.374274
-0.346999
-0.280612
-0.247309
-0.234431
-0.223251
-0.212835
-0.203169
-0.194241
-0.186013
-0.178439
-0.171469
-0.165047
-0.159118
-0.15363
-0.148534
-0.143791
-0.139367
-0.135233
-0.131369
-0.127755
-0.124381
-0.121234
-0.118307
-0.115593
-0.113088
-0.110786
-0.108683
-0.106776
-0.105061
-0.103543
-0.102213
-0.101077
-0.100122
-0.0993352
-0.0987022
-0.0982056
-0.0978281
-0.0975607
-0.0973933
-0.0973168
-0.0973214
-0.0973947
-0.0975295
-0.0977172
-0.0979504
-0.098217
-0.098506
-0.361386
-0.349312
-0.32461
-0.267265
-0.242483
-0.233555
-0.225359
-0.217138
-0.208904
-0.200704
-0.192565
-0.184517
-0.176593
-0.168827
-0.161254
-0.153908
-0.146817
-0.140011
-0.133513
-0.127343
-0.121516
-0.116043
-0.110931
-0.106182
-0.101794
-0.0977631
-0.0940799
-0.0907344
-0.0877141
-0.0850045
-0.0825895
-0.0804532
-0.078579
-0.0769509
-0.0755528
-0.0743693
-0.0733874
-0.0725942
-0.0719866
-0.0715596
-0.0713001
-0.0711963
-0.0712365
-0.0714094
-0.0717029
-0.0721039
-0.072598
-0.0731691
-0.073798
-0.0744656
-0.448482
-0.358779
-0.313592
-0.29309
-0.276178
-0.26035
-0.245359
-0.231085
-0.217433
-0.204335
-0.19177
-0.179722
-0.168191
-0.157192
-0.146746
-0.13688
-0.127617
-0.118978
-0.110977
-0.103619
-0.0969037
-0.0908203
-0.0853519
-0.0804752
-0.0761613
-0.0723773
-0.0690875
-0.0662551
-0.0638413
-0.0618096
-0.0601234
-0.058748
-0.0576508
-0.0568017
-0.0561731
-0.0557401
-0.0554803
-0.055374
-0.0554036
-0.0555541
-0.055812
-0.0561658
-0.0566054
-0.0571221
-0.0577085
-0.0583584
-0.0590671
-0.0598312
-0.0606499
-0.0615175
-0.263245
-0.249516
-0.249103
-0.246025
-0.239865
-0.23138
-0.221191
-0.20981
-0.197672
-0.185139
-0.172516
-0.160056
-0.147963
-0.136399
-0.125486
-0.115313
-0.105935
-0.0973808
-0.0896574
-0.0827508
-0.0766324
-0.0712619
-0.0665906
-0.0625642
-0.0591258
-0.0562179
-0.0537838
-0.0517693
-0.0501235
-0.0487996
-0.0477549
-0.0469512
-0.0463548
-0.045936
-0.045669
-0.0455317
-0.0455051
-0.0455731
-0.0457223
-0.045941
-0.0462195
-0.0465499
-0.0469251
-0.0473397
-0.0477886
-0.0482678
-0.0487738
-0.0493038
-0.0498551
-0.0504254
-0.358286
-0.337011
-0.315781
-0.294945
-0.274691
-0.255143
-0.236383
-0.218478
-0.201489
-0.185454
-0.170399
-0.156338
-0.143275
-0.131204
-0.12011
-0.109972
-0.10076
-0.0924386
-0.0849648
-0.078292
-0.0723694
-0.0671435
-0.0625594
-0.0585616
-0.0550953
-0.0521071
-0.0495459
-0.0473633
-0.0455143
-0.0439572
-0.0426543
-0.0415713
-0.0406778
-0.0399468
-0.0393548
-0.0388813
-0.0385086
-0.0382215
-0.0380071
-0.0378542
-0.0377539
-0.0376982
-0.0376808
-0.037696
-0.0377397
-0.0378081
-0.0378983
-0.0380079
-0.038135
-0.0382779
-0.222646
-0.218526
-0.213456
-0.207627
-0.201214
-0.194351
-0.187143
-0.17967
-0.171991
-0.164166
-0.156257
-0.148325
-0.140427
-0.132623
-0.124969
-0.117515
-0.110305
-0.103382
-0.0967785
-0.0905222
-0.0846337
-0.0791281
-0.0740136
-0.0692925
-0.0649621
-0.0610147
-0.0574386
-0.0542203
-0.0513467
-0.0487931
-0.0465343
-0.0445455
-0.0428024
-0.0412812
-0.0399593
-0.0388152
-0.0378287
-0.036981
-0.0362552
-0.0356354
-0.0351077
-0.0346595
-0.0342797
-0.0339586
-0.0336876
-0.0334595
-0.0332678
-0.0331073
-0.0329734
-0.0328621
-0.00571812
-0.00559583
-0.00547874
-0.00536546
-0.00525518
-0.00514739
-0.00504182
-0.00493833
-0.00483685
-0.00473733
-0.0046398
-0.00454426
-0.00445072
-0.00435922
-0.00426977
-0.0041824
-0.00409711
-0.00401392
-0.00393285
-0.0038539
-0.00377708
-0.00370239
-0.00362983
-0.0035594
-0.00349109
-0.00342491
-0.00336085
-0.00329889
-0.00323904
-0.00318127
-0.00312558
-0.00307196
-0.0030204
-0.00297087
-0.00292338
-0.0028779
-0.00283441
-0.00279292
-0.00275339
-0.00271583
-0.0026802
-0.0026465
-0.00261472
-0.00258483
-0.00255682
-0.00253069
-0.00250641
-0.00248398
-0.00246337
-0.00244458
-0.0024276
-0.0024124
-0.00239899
-0.00238735
-0.00237747
-0.00236933
-0.00236294
-0.00235828
-0.00235534
-0.00235411
-0.00235459
-0.00235678
-0.00236065
-0.00236622
-0.00237347
-0.0023824
-0.00239301
-0.00240529
-0.00241924
-0.00243487
-0.00245216
-0.00247111
-0.00249174
-0.00251403
-0.00253799
-0.00256362
-0.00259092
-0.0026199
-0.00265056
-0.00268289
-0.00271692
-0.00275263
-0.00279004
-0.00282916
-0.00286998
-0.00291251
-0.00295677
-0.00300275
-0.00305047
-0.00309994
-0.00315116
-0.00320414
-0.0032589
-0.00331544
-0.00337377
-0.00343391
-0.00349586
-0.00355964
-0.00362526
-0.00369272
-0.00376205
-0.00383325
-0.00390634
-0.00398133
-0.00405824
-0.00413707
-0.00421784
-0.00430057
-0.00438526
-0.00447194
-0.00456061
-0.00465129
-0.004744
-0.00483875
-0.00493555
-0.00503441
-0.00513536
-0.00523839
-0.00534354
-0.0054508
-0.00556019
-0.00567173
-0.00578543
-0.00590129
-0.00601933
-0.00613956
-0.00626199
-0.00638663
-0.00651348
-0.00664256
-0.00677387
-0.00690742
-0.0070432
-0.00718124
-0.00732152
-0.00746405
-0.00760883
-0.00775587
-0.00790514
-0.00805667
-0.00821042
-0.00836641
-0.00852462
-0.00868504
-0.00884765
-0.00901245
-0.0091794
-0.0093485
-0.00951972
-0.00969304
-0.00986842
-0.0100458
-0.0102252
-0.0104066
-0.0105899
-0.0107751
-0.0109621
-0.0111508
-0.0113413
-0.0115334
-0.0117271
-0.0119223
-0.012119
-0.0123169
-0.0125161
-0.0127165
-0.0129179
-0.0131201
-0.0133232
-0.0135269
-0.0137311
-0.0139357
-0.0141405
-0.0143452
-0.0145497
-0.0147538
-0.0149573
-0.0151599
-0.0153613
-0.0155613
-0.0157596
-0.0159558
-0.0161495
-0.0163404
-0.0165281
-0.0167121
-0.0168919
-0.0170669
-0.0172366
-0.0174004
-0.0175574
-0.017707
-0.0178483
-0.0179804
-0.0181021
-0.0182125
-0.0183103
-0.018394
-0.0184622
-0.0185132
-0.0185453
-0.0185566
-0.0185449
-0.0185081
-0.0184438
-0.0183497
-0.0182233
-0.0180621
-0.0178639
-0.0176262
-0.0173472
-0.0170253
-0.0166591
-0.0162481
-0.0157921
-0.015292
-0.0147493
-0.0141662
-0.0135461
-0.0128931
-0.0122119
-0.0115081
-0.0107878
-0.0100575
-0.0093239
-0.00859388
-0.00787408
-0.00717085
-0.00649008
-0.00583703
-0.00521624
-0.00463139
-0.00408531
-0.00357992
-0.00311628
-0.00269462
-0.00231441
-0.00197448
-0.00167311
-0.00140812
-0.00117704
-0.000977154
-0.000805644
-0.000659656
-0.000536379
-0.000433101
-0.00034726
-0.000276472
-0.000218557
-0.000171545
-0.000133685
-0.000103434
-7.94539e-05
-6.05947e-05
-4.588e-05
-3.44897e-05
-2.57425e-05
-1.9078e-05
-1.40402e-05
-1.02618e-05
-7.4499e-06
-5.37333e-06
-3.85134e-06
-2.74404e-06
-1.94421e-06
-1.37046e-06
-9.61598e-07
-6.72037e-07
-4.68139e-07
-3.25301e-07
-2.25685e-07
-1.56474e-07
-1.08524e-07
-7.53694e-08
-5.24637e-08
-3.6635e-08
-2.56848e-08
-1.80925e-08
-1.28052e-08
-9.11274e-09
-6.51958e-09
-4.68841e-09
-3.38726e-09
-2.4599e-09
-1.79239e-09
-1.31098e-09
-9.60794e-10
-7.08597e-10
-5.2264e-10
-3.85661e-10
-2.86296e-10
-2.12104e-10
-1.5777e-10
-1.20583e-10
-9.02671e-11
-7.02637e-11
-5.81561e-11
-5.22466e-11
-5.04548e-11
-4.95618e-11
-0.00697587
-0.0068377
-0.00670324
-0.00657139
-0.00644147
-0.00631313
-0.00618615
-0.00606047
-0.00593607
-0.005813
-0.0056913
-0.00557106
-0.00545233
-0.0053352
-0.00521973
-0.005106
-0.00499405
-0.00488395
-0.00477574
-0.00466946
-0.00456516
-0.00446285
-0.00436258
-0.00426435
-0.00416819
-0.00407412
-0.00398213
-0.00389224
-0.00380445
-0.00371876
-0.00363517
-0.00355368
-0.00347428
-0.00339695
-0.0033217
-0.0032485
-0.00317735
-0.00310823
-0.00304113
-0.00297602
-0.00291289
-0.00285173
-0.00279252
-0.00273523
-0.00267984
-0.00262634
-0.0025747
-0.00252491
-0.00247693
-0.00243076
-0.00238637
-0.00234374
-0.00230284
-0.00226365
-0.00222617
-0.00219035
-0.00215618
-0.00212365
-0.00209272
-0.00206339
-0.00203563
-0.00200942
-0.00198474
-0.00196157
-0.0019399
-0.0019197
-0.00190096
-0.00188367
-0.00186781
-0.00185335
-0.00184029
-0.00182861
-0.00181829
-0.00180933
-0.0018017
-0.0017954
-0.00179042
-0.00178673
-0.00178434
-0.00178322
-0.00178337
-0.00178478
-0.00178744
-0.00179134
-0.00179647
-0.00180283
-0.0018104
-0.00181918
-0.00182916
-0.00184034
-0.0018527
-0.00186626
-0.00188099
-0.0018969
-0.00191397
-0.00193222
-0.00195163
-0.0019722
-0.00199393
-0.00201682
-0.00204087
-0.00206607
-0.00209243
-0.00211994
-0.00214861
-0.00217843
-0.00220941
-0.00224156
-0.00227487
-0.00230935
-0.00234499
-0.00238182
-0.00241982
-0.00245901
-0.0024994
-0.00254098
-0.00258377
-0.00262778
-0.00267301
-0.00271948
-0.00276719
-0.00281616
-0.0028664
-0.00291791
-0.00297072
-0.00302484
-0.00308028
-0.00313706
-0.00319519
-0.0032547
-0.00331559
-0.00337789
-0.00344162
-0.0035068
-0.00357344
-0.00364158
-0.00371123
-0.00378242
-0.00385518
-0.00392952
-0.00400547
-0.00408307
-0.00416234
-0.0042433
-0.00432599
-0.00441044
-0.00449668
-0.00458473
-0.00467464
-0.00476643
-0.00486013
-0.00495579
-0.00505342
-0.00515307
-0.00525477
-0.00535855
-0.00546445
-0.00557249
-0.00568272
-0.00579515
-0.00590982
-0.00602676
-0.006146
-0.00626755
-0.00639145
-0.0065177
-0.00664633
-0.00677734
-0.00691075
-0.00704654
-0.00718473
-0.0073253
-0.00746823
-0.00761349
-0.00776104
-0.00791084
-0.00806283
-0.00821694
-0.00837307
-0.00853112
-0.00869097
-0.00885248
-0.00901547
-0.00917975
-0.00934511
-0.00951129
-0.009678
-0.00984492
-0.0100117
-0.0101779
-0.010343
-0.0105066
-0.0106681
-0.0108268
-0.010982
-0.0111328
-0.0112785
-0.011418
-0.0115503
-0.0116742
-0.0117884
-0.0118915
-0.0119821
-0.0120585
-0.0121192
-0.0121623
-0.012186
-0.0121884
-0.0121678
-0.0121221
-0.0120497
-0.0119489
-0.0118181
-0.0116563
-0.0114623
-0.0112356
-0.0109761
-0.0106841
-0.0103603
-0.0100061
-0.00962349
-0.00921481
-0.00878306
-0.00833163
-0.00786435
-0.00738533
-0.00689893
-0.00640959
-0.00592179
-0.00543988
-0.00496801
-0.00451003
-0.00406941
-0.00364916
-0.00325176
-0.00287919
-0.00253285
-0.00221362
-0.00192185
-0.00165739
-0.00141968
-0.00120778
-0.00102045
-0.000856191
-0.000713348
-0.00059014
-0.000484738
-0.000395303
-0.000320036
-0.00025721
-0.000205199
-0.000162495
-0.00012772
-9.9637e-05
-7.71454e-05
-5.92817e-05
-4.52116e-05
-3.42219e-05
-2.57097e-05
-1.91714e-05
-1.4191e-05
-1.04286e-05
-7.60965e-06
-5.51462e-06
-3.97003e-06
-2.84014e-06
-2.01987e-06
-1.42872e-06
-1.00566e-06
-7.04865e-07
-4.92301e-07
-3.42904e-07
-2.38399e-07
-1.65589e-07
-1.15019e-07
-7.99694e-08
-5.57031e-08
-3.89031e-08
-2.72616e-08
-1.91761e-08
-1.35445e-08
-9.60798e-09
-6.84262e-09
-4.8957e-09
-3.51294e-09
-2.53007e-09
-1.82741e-09
-1.32204e-09
-9.57894e-10
-6.96097e-10
-5.05977e-10
-3.6765e-10
-2.67714e-10
-1.94888e-10
-1.41936e-10
-1.04103e-10
-7.58071e-11
-5.84224e-11
-5.26521e-11
-5.1563e-11
-0.00856758
-0.00843169
-0.00829646
-0.00816123
-0.00802562
-0.00788945
-0.0077527
-0.00761541
-0.00747768
-0.00733965
-0.00720148
-0.00706333
-0.00692538
-0.0067878
-0.00665074
-0.00651437
-0.00637882
-0.00624426
-0.0061108
-0.00597856
-0.00584767
-0.00571822
-0.0055903
-0.005464
-0.00533939
-0.00521655
-0.00509555
-0.00497642
-0.00485922
-0.004744
-0.00463078
-0.00451961
-0.00441049
-0.00430346
-0.00419853
-0.00409571
-0.003995
-0.00389642
-0.00379997
-0.00370563
-0.00361342
-0.00352331
-0.00343531
-0.00334939
-0.00326555
-0.00318377
-0.00310404
-0.00302634
-0.00295064
-0.00287693
-0.00280518
-0.00273538
-0.0026675
-0.00260152
-0.00253741
-0.00247514
-0.0024147
-0.00235605
-0.00229917
-0.00224403
-0.0021906
-0.00213886
-0.00208879
-0.00204034
-0.00199351
-0.00194825
-0.00190455
-0.00186237
-0.0018217
-0.0017825
-0.00174475
-0.00170842
-0.0016735
-0.00163995
-0.00160775
-0.00157689
-0.00154733
-0.00151905
-0.00149204
-0.00146627
-0.00144172
-0.00141837
-0.0013962
-0.0013752
-0.00135534
-0.0013366
-0.00131898
-0.00130245
-0.001287
-0.00127261
-0.00125926
-0.00124694
-0.00123564
-0.00122534
-0.00121603
-0.00120769
-0.00120032
-0.0011939
-0.00118841
-0.00118385
-0.00118021
-0.00117748
-0.00117564
-0.00117468
-0.0011746
-0.00117539
-0.00117703
-0.00117953
-0.00118287
-0.00118704
-0.00119204
-0.00119786
-0.0012045
-0.00121195
-0.00122021
-0.00122927
-0.00123913
-0.00124978
-0.00126123
-0.00127347
-0.0012865
-0.00130032
-0.00131493
-0.00133034
-0.00134653
-0.00136352
-0.00138132
-0.00139991
-0.00141931
-0.00143952
-0.00146056
-0.00148242
-0.00150512
-0.00152866
-0.00155305
-0.00157831
-0.00160445
-0.00163147
-0.0016594
-0.00168825
-0.00171803
-0.00174875
-0.00178045
-0.00181312
-0.0018468
-0.00188151
-0.00191726
-0.00195408
-0.00199198
-0.002031
-0.00207116
-0.00211248
-0.00215499
-0.00219872
-0.00224369
-0.00228993
-0.00233747
-0.00238633
-0.00243656
-0.00248817
-0.0025412
-0.00259567
-0.00265162
-0.00270906
-0.00276804
-0.00282857
-0.00289068
-0.00295439
-0.00301973
-0.00308672
-0.00315536
-0.00322568
-0.00329769
-0.00337138
-0.00344676
-0.00352382
-0.00360256
-0.00368294
-0.00376494
-0.00384853
-0.00393366
-0.00402026
-0.00410826
-0.00419758
-0.0042881
-0.00437971
-0.00447226
-0.00456559
-0.0046595
-0.00475379
-0.0048482
-0.00494247
-0.00503628
-0.00512929
-0.00522112
-0.00531135
-0.00539951
-0.00548509
-0.00556754
-0.00564626
-0.0057206
-0.00578988
-0.00585336
-0.00591027
-0.00595979
-0.00600111
-0.00603335
-0.00605565
-0.00606714
-0.00606699
-0.00605436
-0.00602849
-0.00598868
-0.00593434
-0.00586495
-0.00578017
-0.00567978
-0.00556375
-0.00543223
-0.00528558
-0.00512436
-0.00494936
-0.00476157
-0.00456219
-0.0043526
-0.00413436
-0.00390916
-0.00367883
-0.00344523
-0.00321032
-0.00297601
-0.00274419