/*--------------------------------*- C++ -*----------------------------------*\
| =========                 |                                                 |
| \\      /  F ield         | OpenFOAM: The Open Source CFD Toolbox           |
|  \\    /   O peration     | Version:  2.4.0                                 |
|   \\  /    A nd           | Web:      www.OpenFOAM.org                      |
|    \\/     M anipulation  |                                                 |
\*---------------------------------------------------------------------------*/
FoamFile
{
    version     2.0;
    format      ascii;
    class       volScalarField;
    location    "4.8";
    object      p;
}
// * * * * * * * * * * * * * * * * * * * * * * * * * * * * * * * * * * * * * //

dimensions      [1 -1 -2 0 0 0 0];

internalField   nonuniform List<scalar> 
8000
(
-15.4725
-15.4536
-15.4653
-15.6219
-16.2943
-17.4364
-11.9571
-0.445212
-0.442192
-1.50494
-1.40928
-1.30626
-1.28072
-1.27782
-1.27654
-1.27371
-1.27329
-1.27341
-1.27376
-1.27413
-1.27443
-1.27493
-1.27561
-1.27636
-1.27709
-1.27777
-1.2784
-1.27899
-1.27953
-1.28003
-1.28051
-1.28095
-1.28138
-1.2818
-1.28219
-1.28256
-1.2829
-1.28322
-1.28352
-1.28379
-1.28404
-1.28427
-1.28448
-1.28467
-1.28484
-1.285
-1.28514
-1.28526
-1.28537
-1.28547
-0.0452777
0.00765343
0.0995527
0.237688
0.45379
0.669216
0.195934
-2.00238
-15.9048
-10.0683
-14.6162
-3.12507
-3.80159
-1.6007
-1.53702
-1.52286
-1.49426
-1.43473
-1.36235
-1.32683
-1.32036
-1.31207
-1.3026
-1.29613
-1.2935
-1.29472
-1.29779
-1.29989
-1.30072
-1.3011
-1.30149
-1.30204
-1.30271
-1.30339
-1.30402
-1.3046
-1.30515
-1.30569
-1.30621
-1.30671
-1.30717
-1.3076
-1.30799
-1.30836
-1.30869
-1.309
-1.30928
-1.30954
-1.30977
-1.30998
-1.43402
-1.37186
-1.2916
-1.19165
-1.06886
-0.939854
-0.859146
-0.820097
-0.956185
-1.31876
-1.50812
-0.665636
-0.695805
-11.2076
-11.279
-6.83633
-7.77691
-8.077
-5.4791
-2.40754
-1.48662
-1.34568
-1.35871
-1.37729
-1.37139
-1.36129
-1.36117
-1.36093
-1.34475
-1.32475
-1.31676
-1.32158
-1.32991
-1.33459
-1.33557
-1.33541
-1.33568
-1.33603
-1.33619
-1.33629
-1.33639
-1.33649
-1.33661
-1.33672
-1.33682
-1.33693
-1.33698
-1.33709
-1.33716
-1.33723
-2.37475
-2.30546
-2.23631
-2.1794
-2.13358
-2.09782
-2.07171
-2.05213
-2.02539
-1.97709
-1.90316
-1.88256
-1.83593
-1.89607
-1.96241
-2.02354
-2.00358
-1.66592
-0.805854
-0.554907
-7.94796
-8.81598
-7.6724
-8.1651
-8.94778
-6.95763
-2.80201
-1.2199
-1.00051
-1.01328
-1.12814
-1.30311
-1.4263
-1.40781
-1.35808
-1.34071
-1.34784
-1.35745
-1.36268
-1.36514
-1.36612
-1.36648
-1.36658
-1.36654
-1.3665
-1.36647
-1.36652
-1.36655
-1.36658
-1.36659
0.315488
0.33521
0.358965
0.381432
0.401832
0.420416
0.437294
0.45241
0.466067
0.478566
0.489676
0.498188
0.504336
0.513791
0.528862
0.562836
0.633966
0.753139
0.900458
1.05608
1.19696
1.33692
1.53738
1.73459
1.75685
1.57053
-0.796245
-6.65744
-8.09928
-8.12452
-8.67444
-4.27251
-0.687174
0.0852214
-0.0820908
-0.798337
-1.46072
-1.47948
-1.40437
-1.37804
-1.3849
-1.39352
-1.39539
-1.39499
-1.39513
-1.39573
-1.39623
-1.39649
-1.39666
-1.39679
1.01592
1.0182
1.02006
1.02294
1.0274
1.03348
1.04108
1.0502
1.06079
1.07292
1.0865
1.10158
1.11796
1.13587
1.15531
1.17668
1.19984
1.22471
1.25009
1.27613
1.30523
1.34287
1.39915
1.48382
1.58769
1.69589
1.81929
1.95522
2.07974
2.06639
1.55883
-1.91236
-2.74135
-7.94857
-8.92632
-8.12025
-1.30349
-0.100587
0.0617882
-0.809946
-1.44303
-1.4657
-1.40786
-1.40474
-1.42005
-1.42826
-1.42999
-1.43013
-1.43002
-1.42993
3.02207
3.00426
2.98817
2.97661
2.96898
2.96473
2.96372
2.96595
2.97143
2.98018
2.99218
3.00749
3.02608
3.04804
3.07337
3.10215
3.13431
3.1699
3.20872
3.25075
3.29568
3.34368
3.39436
3.44796
3.50363
3.56173
3.62325
3.69397
3.77288
3.85211
3.93876
4.0369
4.18808
4.25866
4.02955
3.0069
-0.86628
-6.95208
-7.68803
-7.3246
-1.9987
-0.26544
0.112864
-1.05289
-1.45962
-1.46878
-1.45514
-1.45478
-1.45693
-1.4583
3.19888
3.17835
3.15643
3.13779
3.12256
3.11022
3.10057
3.09359
3.08927
3.08762
3.08863
3.09229
3.0986
3.10758
3.11921
3.13356
3.15058
3.17036
3.19287
3.21821
3.24633
3.2774
3.31131
3.34825
3.388
3.43079
3.47624
3.52474
3.57581
3.62997
3.68691
3.74905
3.81817
3.89533
3.95852
4.00897
4.08497
4.14717
4.05631
3.6168
-1.30979
-4.17637
-7.02504
-5.98696
-2.25504
-0.769937
-1.05404
-1.4211
-1.47747
-1.4862
3.62662
3.60849
3.58982
3.57391
3.56057
3.54937
3.54016
3.53294
3.52773
3.52452
3.52329
3.52404
3.52674
3.53138
3.53793
3.54637
3.55667
3.5688
3.58273
3.59841
3.6158
3.63486
3.65553
3.67777
3.7015
3.72669
3.75323
3.7811
3.81015
3.84039
3.87153
3.90361
3.93631
3.9697
4.0037
4.03984
4.08009
4.12144
4.14185
4.15668
4.1722
4.21103
4.12188
1.91492
-1.16488
-6.18853
-4.56358
-2.3422
-1.50449
-1.44034
3.50883
3.48796
3.46591
3.44652
3.42965
3.4148
3.40181
3.39069
3.38144
3.37406
3.36854
3.36487
3.36303
3.36303
3.36485
3.36847
3.37389
3.38109
3.39007
3.40081
3.41331
3.42755
3.44351
3.46119
3.48058
3.50166
3.52442
3.54886
3.57494
3.60263
3.63195
3.66286
3.69535
3.72939
3.76495
3.80199
3.84045
3.88037
3.92193
3.96569
4.01198
4.05774
4.10022
4.13754
4.23849
4.30539
2.55359
-2.1232
-3.69068
-2.53652
3.0393
3.01862
2.9963
2.97635
2.95874
2.943
2.92893
2.91653
2.9058
2.89674
2.88933
2.88355
2.8794
2.87687
2.87594
2.8766
2.87886
2.88269
2.8881
2.89506
2.90359
2.91366
2.92528
2.93844
2.95314
2.96937
2.98711
3.00638
3.02716
3.04948
3.07332
3.0987
3.1256
3.15407
3.18409
3.2157
3.24891
3.28387
3.32026
3.35851
3.39852
3.44089
3.48604
3.53313
3.57488
3.60307
3.65891
3.72425
3.53275
0.829337
2.56734
2.54873
2.52946
2.51249
2.4975
2.48404
2.47196
2.46127
2.45198
2.44407
2.43755
2.43239
2.42859
2.42615
2.42505
2.42529
2.42687
2.42978
2.43402
2.43959
2.44648
2.45471
2.46427
2.47517
2.48741
2.50099
2.51594
2.53226
2.54996
2.56906
2.58959
2.61156
2.63498
2.6599
2.68632
2.7143
2.74384
2.77501
2.80781
2.84231
2.87848
2.91648
2.95622
2.99803
3.04184
3.0867
3.13136
3.17319
3.2308
3.26474
1.33861
1.32775
1.31528
1.30378
1.29347
1.2841
1.27558
1.26789
1.26105
1.25506
1.2499
1.24558
1.2421
1.23945
1.23763
1.23663
1.23645
1.23709
1.23854
1.2408
1.24387
1.24774
1.25241
1.25786
1.26409
1.2711
1.27888
1.28742
1.29671
1.30673
1.31749
1.32896
1.34114
1.35399
1.36752
1.3817
1.39651
1.41192
1.42793
1.44449
1.46159
1.47919
1.49726
1.51577
1.53468
1.55405
1.57394
1.61586
1.61985
1.6335
0.706859
0.700341
0.694408
0.689444
0.685067
0.681095
0.677516
0.674347
0.671597
0.669267
0.667357
0.665869
0.664802
0.664155
0.663928
0.664119
0.664728
0.665753
0.66719
0.669039
0.671295
0.673956
0.677018
0.680477
0.684328
0.688568
0.693191
0.698192
0.703566
0.709308
0.715411
0.721871
0.728679
0.73583
0.743317
0.751135
0.759276
0.767734
0.776501
0.785571
0.794937
0.804593
0.814533
0.824751
0.835205
0.845811
0.856605
0.868872
0.88988
0.873298
-0.930669
-0.930011
-0.930678
-0.931783
-0.932863
-0.933859
-0.934801
-0.935703
-0.936565
-0.937385
-0.938158
-0.938884
-0.939561
-0.940188
-0.940765
-0.941291
-0.941766
-0.94219
-0.942566
-0.942893
-0.943175
-0.943414
-0.943615
-0.94378
-0.943916
-0.944029
-0.944126
-0.944215
-0.944306
-0.94441
-0.944539
-0.944707
-0.94493
-0.945224
-0.945608
-0.946105
-0.946736
-0.947528
-0.948509
-0.949711
-0.951163
-0.952901
-0.954973
-0.957487
-0.960575
-0.964052
-0.9665
-0.965584
-0.946438
-0.988397
-1.35992
-1.35737
-1.35293
-1.34836
-1.34423
-1.34053
-1.33721
-1.33423
-1.3316
-1.32932
-1.32737
-1.32576
-1.32446
-1.32347
-1.32278
-1.32239
-1.32228
-1.32246
-1.3229
-1.32361
-1.32458
-1.32581
-1.3273
-1.32906
-1.33107
-1.33335
-1.33591
-1.33875
-1.34189
-1.34532
-1.34908
-1.35317
-1.35761
-1.36242
-1.36763
-1.37325
-1.37931
-1.38584
-1.39286
-1.40039
-1.40846
-1.41712
-1.42653
-1.43681
-1.44725
-1.45475
-1.45678
-1.47257
-1.57975
-1.84116
-3.27301
-3.26329
-3.25499
-3.24818
-3.24212
-3.23654
-3.23147
-3.22694
-3.22297
-3.21955
-3.21668
-3.21433
-3.21249
-3.21113
-3.21024
-3.20979
-3.20975
-3.21009
-3.21078
-3.21179
-3.21309
-3.21464
-3.21641
-3.21835
-3.22044
-3.22264
-3.22489
-3.22717
-3.22942
-3.2316
-3.23366
-3.23555
-3.23721
-3.23857
-3.23958
-3.24016
-3.24023
-3.23971
-3.23849
-3.23648
-3.23358
-3.22977
-3.22493
-3.2181
-3.20654
-3.18925
-3.18529
-3.25794
-3.43178
-3.27101
-3.15666
-3.13409
-3.10818
-3.08668
-3.07021
-3.05772
-3.04839
-3.04177
-3.0375
-3.03525
-3.03474
-3.0357
-3.03787
-3.04105
-3.04503
-3.04966
-3.05477
-3.06023
-3.06591
-3.07171
-3.07754
-3.08331
-3.08895
-3.09442
-3.09967
-3.10467
-3.10939
-3.11385
-3.11803
-3.12196
-3.12568
-3.12923
-3.13268
-3.13612
-3.13964
-3.14338
-3.14748
-3.15213
-3.15752
-3.16398
-3.17201
-3.182
-3.19252
-3.19848
-3.19966
-3.24317
-3.47288
-3.91401
-2.74084
-1.8356
-5.54091
-5.47464
-5.41467
-5.36988
-5.33654
-5.31143
-5.29309
-5.28071
-5.27358
-5.27103
-5.2725
-5.27749
-5.28557
-5.29637
-5.3096
-5.32498
-5.3423
-5.36137
-5.38205
-5.40422
-5.42778
-5.45266
-5.47883
-5.50627
-5.53498
-5.565
-5.59638
-5.62918
-5.66354
-5.69956
-5.73743
-5.77733
-5.81952
-5.86426
-5.91192
-5.96284
-6.01753
-6.07649
-6.1405
-6.2103
-6.28642
-6.36782
-6.45367
-6.55612
-6.72724
-7.02281
-7.15393
-5.6295
-2.42034
-1.79836
-0.919592
-1.32863
-1.73761
-2.08825
-2.39274
-2.66576
-2.91353
-3.1388
-3.34376
-3.53046
-3.70075
-3.8562
-3.9981
-4.12755
-4.24546
-4.35261
-4.44962
-4.53702
-4.61523
-4.68457
-4.74529
-4.79756
-4.84146
-4.87703
-4.9042
-4.92287
-4.93281
-4.93376
-4.92532
-4.90702
-4.87827
-4.83834
-4.78635
-4.72125
-4.64177
-4.54643
-4.43343
-4.30066
-4.14557
-3.96518
-3.75586
-3.51378
-3.23459
-2.91218
-2.53149
-2.06378
-1.50814
-1.05743
-2.40397
-1.88764
-1.28555
-1.28562
-1.28568
-1.28573
-1.28577
-1.2858
-1.28582
-1.28585
-1.28587
-1.28588
-1.28589
-1.28589
-1.28589
-1.2859
-1.2859
-1.28591
-1.28592
-1.28593
-1.28595
-1.28597
-1.286
-1.28604
-1.28608
-1.28613
-1.28619
-1.28625
-1.28632
-1.2864
-1.28649
-1.28659
-1.28669
-1.28681
-1.28693
-1.28706
-1.28721
-1.28736
-1.28752
-1.28769
-1.28787
-1.28806
-1.28826
-1.28847
-1.28868
-1.28893
-1.28918
-1.28944
-1.28971
-1.29
-1.2903
-1.29062
-1.31016
-1.31033
-1.31048
-1.31061
-1.31073
-1.31084
-1.31094
-1.31103
-1.31111
-1.31119
-1.31126
-1.31134
-1.31142
-1.3115
-1.31158
-1.31166
-1.31175
-1.31184
-1.31194
-1.31204
-1.31214
-1.31225
-1.31236
-1.31248
-1.3126
-1.31273
-1.31286
-1.313
-1.31315
-1.3133
-1.31346
-1.31362
-1.31379
-1.31397
-1.31415
-1.31434
-1.31453
-1.31474
-1.31494
-1.31516
-1.31538
-1.31561
-1.31584
-1.31609
-1.31632
-1.3166
-1.31686
-1.31714
-1.3174
-1.31772
-1.33728
-1.33733
-1.33738
-1.33744
-1.33748
-1.33753
-1.33759
-1.33764
-1.33769
-1.33775
-1.33781
-1.33789
-1.33796
-1.33805
-1.33814
-1.33825
-1.33836
-1.33847
-1.3386
-1.33873
-1.33888
-1.33903
-1.33918
-1.33935
-1.33952
-1.3397
-1.33989
-1.34008
-1.34028
-1.34049
-1.3407
-1.34092
-1.34114
-1.34138
-1.34161
-1.34185
-1.3421
-1.34235
-1.34261
-1.34287
-1.34313
-1.3434
-1.34368
-1.34395
-1.34424
-1.34452
-1.34481
-1.34509
-1.34541
-1.34571
-1.36662
-1.3666
-1.36663
-1.36663
-1.36663
-1.36664
-1.36665
-1.36666
-1.36668
-1.3667
-1.36674
-1.36679
-1.36685
-1.36692
-1.36701
-1.36711
-1.36721
-1.36734
-1.36747
-1.36761
-1.36777
-1.36793
-1.36811
-1.36829
-1.36849
-1.3687
-1.36891
-1.36913
-1.36936
-1.3696
-1.36984
-1.37009
-1.37035
-1.37061
-1.37088
-1.37115
-1.37143
-1.37171
-1.372
-1.37229
-1.37258
-1.37288
-1.37318
-1.37348
-1.37378
-1.37409
-1.37439
-1.37471
-1.37502
-1.37533
-1.39691
-1.39701
-1.3971
-1.39717
-1.3972
-1.3973
-1.39736
-1.39741
-1.39747
-1.39628
-1.39689
-1.39699
-1.39706
-1.39713
-1.39722
-1.39732
-1.39743
-1.39754
-1.39767
-1.39781
-1.39796
-1.39812
-1.39829
-1.39848
-1.39867
-1.39887
-1.39908
-1.3993
-1.39953
-1.39977
-1.40002
-1.40027
-1.40053
-1.4008
-1.40108
-1.40136
-1.40164
-1.40193
-1.40223
-1.40253
-1.40284
-1.40315
-1.40346
-1.40377
-1.40409
-1.40441
-1.40473
-1.40506
-1.40538
-1.40571
-1.42989
-1.42987
-1.42984
-1.42981
-1.42978
-1.42975
-1.42971
-1.42967
-1.42962
-1.42928
-1.42948
-1.42946
-1.42945
-1.42945
-1.42946
-1.42949
-1.42953
-1.42958
-1.42965
-1.42973
-1.42983
-1.42994
-1.43006
-1.4302
-1.43035
-1.43052
-1.4307
-1.43089
-1.43109
-1.43131
-1.43153
-1.43176
-1.43201
-1.43226
-1.43252
-1.43279
-1.43306
-1.43334
-1.43363
-1.43392
-1.43421
-1.43451
-1.43482
-1.43512
-1.43543
-1.43574
-1.43606
-1.43637
-1.43669
-1.437
-1.45893
-1.45918
-1.4593
-1.45941
-1.45954
-1.45933
-1.45946
-1.45963
-1.45887
-1.4593
-1.45946
-1.45958
-1.45968
-1.4598
-1.45997
-1.46009
-1.46023
-1.46037
-1.46053
-1.46069
-1.46085
-1.46103
-1.46122
-1.46142
-1.46162
-1.46184
-1.46206
-1.46229
-1.46253
-1.46278
-1.46303
-1.46329
-1.46355
-1.46383
-1.4641
-1.46438
-1.46466
-1.46495
-1.46524
-1.46553
-1.46582
-1.46611
-1.46641
-1.4667
-1.46699
-1.46729
-1.46758
-1.46788
-1.46817
-1.46846
-1.48784
-1.48808
-1.48843
-1.4888
-1.48904
-1.48917
-1.4893
-1.4894
-1.48952
-1.48964
-1.48975
-1.48985
-1.48996
-1.49007
-1.49019
-1.49032
-1.49046
-1.49062
-1.49078
-1.49095
-1.49114
-1.49134
-1.49154
-1.49177
-1.492
-1.49224
-1.49249
-1.49276
-1.49303
-1.49331
-1.49359
-1.49388
-1.49418
-1.49448
-1.49479
-1.4951
-1.49541
-1.49572
-1.49603
-1.49634
-1.49666
-1.49697
-1.49728
-1.49758
-1.49789
-1.49819
-1.49849
-1.49878
-1.49908
-1.49936
-1.45032
-1.47868
-1.50579
-1.51669
-1.51904
-1.51951
-1.51967
-1.5197
-1.51969
-1.51968
-1.51968
-1.51968
-1.51968
-1.5197
-1.51973
-1.51977
-1.51983
-1.5199
-1.51999
-1.5201
-1.52023
-1.52038
-1.52054
-1.52072
-1.52092
-1.52114
-1.52137
-1.52162
-1.52189
-1.52216
-1.52245
-1.52275
-1.52306
-1.52338
-1.5237
-1.52403
-1.52437
-1.52471
-1.52505
-1.5254
-1.52574
-1.52609
-1.52643
-1.52677
-1.52711
-1.52745
-1.52778
-1.52811
-1.52844
-1.52875
-1.6621
-1.41576
-1.46375
-1.513
-1.53516
-1.54259
-1.54484
-1.54546
-1.5456
-1.5456
-1.54559
-1.54559
-1.54559
-1.5456
-1.54562
-1.54566
-1.5457
-1.54576
-1.54584
-1.54594
-1.54605
-1.54618
-1.54633
-1.5465
-1.54669
-1.5469
-1.54713
-1.54738
-1.54764
-1.54793
-1.54823
-1.54854
-1.54887
-1.54921
-1.54957
-1.54993
-1.5503
-1.55069
-1.55107
-1.55147
-1.55187
-1.55227
-1.55267
-1.55307
-1.55347
-1.55387
-1.55427
-1.55466
-1.55505
-1.5554
-0.573265
-0.932694
-1.03532
-1.3213
-1.51182
-1.56029
-1.56845
-1.57012
-1.57063
-1.57077
-1.57073
-1.57053
-1.57048
-1.57102
-1.57096
-1.57071
-1.57051
-1.57088
-1.57088
-1.57088
-1.5709
-1.57093
-1.57095
-1.57096
-1.57111
-1.57122
-1.57135
-1.5715
-1.57168
-1.57187
-1.57209
-1.57233
-1.57258
-1.57286
-1.57315
-1.57346
-1.57379
-1.57413
-1.57449
-1.57486
-1.57524
-1.57563
-1.57603
-1.57644
-1.57685
-1.57727
-1.57769
-1.57812
-1.57854
-1.57896
3.07551
1.85984
0.754176
-0.783763
-1.47136
-1.58202
-1.5933
-1.59494
-1.59525
-1.59526
-1.59519
-1.59512
-1.59508
-1.59503
-1.59498
-1.5949
-1.59501
-1.59495
-1.5949
-1.59485
-1.5948
-1.59476
-1.59474
-1.59473
-1.59472
-1.5947
-1.5948
-1.59474
-1.59495
-1.59505
-1.59518
-1.59532
-1.59548
-1.59567
-1.59587
-1.59608
-1.59632
-1.59657
-1.59685
-1.59714
-1.59744
-1.59776
-1.5981
-1.59845
-1.59881
-1.59918
-1.59957
-1.59996
-1.60036
-1.60076
1.65322
1.58963
0.971194
-0.621887
-1.4933
-1.60918
-1.61777
-1.61872
-1.61894
-1.61897
-1.61897
-1.61895
-1.61893
-1.6189
-1.61886
-1.61882
-1.61877
-1.61871
-1.61866
-1.61861
-1.61856
-1.61845
-1.61814
-1.61735
-1.61772
-1.6177
-1.61772
-1.6177
-1.61781
-1.61782
-1.6178
-1.61778
-1.61769
-1.61743
-1.61894
-1.61906
-1.6192
-1.61934
-1.61951
-1.6197
-1.61991
-1.62012
-1.62014
-1.62053
-1.62082
-1.62113
-1.62145
-1.62178
-1.62213
-1.62209
0.894324
0.830022
0.41703
-0.830503
-1.55992
-1.64043
-1.64356
-1.64363
-1.64271
-1.64272
-1.64308
-1.64326
-1.64325
-1.64322
-1.64318
-1.64315
-1.64311
-1.64308
-1.64305
-1.64302
-1.643
-1.64294
-1.64271
-1.64212
-1.64229
-1.64234
-1.64237
-1.64242
-1.64248
-1.64255
-1.64263
-1.64282
-1.64288
-1.64225
-1.64243
-1.64275
-1.643
-1.64322
-1.64344
-1.64366
-1.6439
-1.64414
-1.6444
-1.64413
-1.64476
-1.64507
-1.64537
-1.64569
-1.646
-1.64623
-1.10736
-1.34282
-1.41395
-1.55241
-1.65169
-1.6673
-1.66786
-1.66779
-1.66767
-1.66757
-1.66754
-1.66753
-1.66752
-1.66749
-1.66745
-1.66742
-1.66739
-1.66736
-1.66734
-1.66733
-1.66732
-1.66732
-1.66732
-1.66734
-1.66737
-1.66741
-1.66746
-1.66752
-1.66759
-1.66768
-1.66773
-1.66786
-1.66656
-1.66732
-1.66755
-1.66769
-1.66787
-1.66803
-1.66819
-1.66841
-1.6686
-1.6688
-1.669
-1.66919
-1.66941
-1.66984
-1.67008
-1.67026
-1.67052
-1.67066
-1.66614
-1.59734
-1.73649
-1.69781
-1.69295
-1.69267
-1.69271
-1.69268
-1.69263
-1.69258
-1.69255
-1.69252
-1.69249
-1.69248
-1.69247
-1.69246
-1.69247
-1.69248
-1.6925
-1.69254
-1.69258
-1.69263
-1.69269
-1.69277
-1.69285
-1.69295
-1.69305
-1.69316
-1.69329
-1.69343
-1.69357
-1.69372
-1.69388
-1.69404
-1.69421
-1.69433
-1.69434
-1.69468
-1.69487
-1.69507
-1.69526
-1.69545
-1.69564
-1.69584
-1.69604
-1.69623
-1.69644
-1.69663
-1.69682
-1.69698
-2.46386
-1.89931
-1.72077
-1.71493
-1.71642
-1.71657
-1.71654
-1.71653
-1.71652
-1.71651
-1.71651
-1.71651
-1.71652
-1.71654
-1.71656
-1.71659
-1.71663
-1.71668
-1.71673
-1.7168
-1.71687
-1.71695
-1.71704
-1.71714
-1.71724
-1.71735
-1.71746
-1.71747
-1.71772
-1.71787
-1.71803
-1.71818
-1.71834
-1.71851
-1.71868
-1.71886
-1.71903
-1.71922
-1.7194
-1.71959
-1.71977
-1.71997
-1.72016
-1.72035
-1.72054
-1.72073
-1.72092
-1.72111
-1.72129
-1.72147
-1.76383
-1.74417
-1.73983
-1.73965
-1.73968
-1.73974
-1.73976
-1.73977
-1.73978
-1.7398
-1.73982
-1.73985
-1.73988
-1.73991
-1.73995
-1.74
-1.74005
-1.7401
-1.74017
-1.74023
-1.7403
-1.74038
-1.74047
-1.74056
-1.74065
-1.74075
-1.74086
-1.74097
-1.74109
-1.74121
-1.74133
-1.74146
-1.7416
-1.74173
-1.74187
-1.74202
-1.74216
-1.74231
-1.74246
-1.74261
-1.74276
-1.74291
-1.74306
-1.74321
-1.74336
-1.74351
-1.74365
-1.74379
-1.74394
-1.74407
-1.76381
-1.76286
-1.76313
-1.76321
-1.76319
-1.76317
-1.76317
-1.76317
-1.76317
-1.76318
-1.76318
-1.7632
-1.76321
-1.76322
-1.76324
-1.76326
-1.76329
-1.76331
-1.76334
-1.76337
-1.76341
-1.76345
-1.76349
-1.76354
-1.76358
-1.76363
-1.76369
-1.76375
-1.76381
-1.76387
-1.76394
-1.76401
-1.76402
-1.76417
-1.76426
-1.76434
-1.76442
-1.7645
-1.76453
-1.76468
-1.76479
-1.76488
-1.76491
-1.76506
-1.76517
-1.76525
-1.76534
-1.76543
-1.76551
-1.76559
-1.78473
-1.78519
-1.78522
-1.78534
-1.78539
-1.78544
-1.78548
-1.78553
-1.78557
-1.7856
-1.78553
-1.78556
-1.78577
-1.7858
-1.78584
-1.78585
-1.78591
-1.78595
-1.78599
-1.78602
-1.78608
-1.78614
-1.78619
-1.78625
-1.7863
-1.78635
-1.78641
-1.78647
-1.78652
-1.78658
-1.78664
-1.7867
-1.78677
-1.78683
-1.7869
-1.78696
-1.78703
-1.7871
-1.78716
-1.78723
-1.7873
-1.78736
-1.78743
-1.7875
-1.78757
-1.78763
-1.7877
-1.78776
-1.78783
-1.78789
-1.29087
-1.29105
-1.29123
-1.29141
-1.29161
-1.29181
-1.29201
-1.29223
-1.29245
-1.29267
-1.29291
-1.29315
-1.2934
-1.29366
-1.29393
-1.2942
-1.29448
-1.29478
-1.29508
-1.29539
-1.29571
-1.29604
-1.29638
-1.29673
-1.29708
-1.29745
-1.29784
-1.29823
-1.29863
-1.29904
-1.29947
-1.2999
-1.30035
-1.30081
-1.30128
-1.30177
-1.30227
-1.30278
-1.3033
-1.30383
-1.30438
-1.30494
-1.30552
-1.30611
-1.30671
-1.30733
-1.30796
-1.3086
-1.30926
-1.30993
-1.31062
-1.31132
-1.31203
-1.31276
-1.31351
-1.31427
-1.31504
-1.31583
-1.31663
-1.31745
-1.31828
-1.31913
-1.31999
-1.32086
-1.32175
-1.32266
-1.32358
-1.32451
-1.32545
-1.32642
-1.32739
-1.32838
-1.32938
-1.33039
-1.33142
-1.33246
-1.33352
-1.33458
-1.33566
-1.33675
-1.33785
-1.33897
-1.34009
-1.34123
-1.34237
-1.34353
-1.34469
-1.34587
-1.34705
-1.34824
-1.34944
-1.35065
-1.35187
-1.35309
-1.35433
-1.35556
-1.35681
-1.35806
-1.35931
-1.36057
-1.36183
-1.3631
-1.36438
-1.36565
-1.36693
-1.36821
-1.3695
-1.37078
-1.37207
-1.37336
-1.37465
-1.37594
-1.37723
-1.37852
-1.37981
-1.38111
-1.3824
-1.38369
-1.38498
-1.38626
-1.38755
-1.38884
-1.39012
-1.3914
-1.39268
-1.39396
-1.39524
-1.39651
-1.39778
-1.39906
-1.40032
-1.40159
-1.40286
-1.40412
-1.40538
-1.40664
-1.4079
-1.40915
-1.41041
-1.41166
-1.41291
-1.41416
-1.4154
-1.41665
-1.41789
-1.41914
-1.42038
-1.42162
-1.42285
-1.42409
-1.42533
-1.42656
-1.42779
-1.42902
-1.43025
-1.43147
-1.43269
-1.43391
-1.43513
-1.43634
-1.43754
-1.43875
-1.43995
-1.44114
-1.44232
-1.4435
-1.44468
-1.44584
-1.447
-1.44814
-1.44928
-1.45041
-1.45152
-1.45262
-1.45371
-1.45479
-1.45585
-1.4569
-1.45793
-1.45894
-1.45993
-1.46091
-1.46187
-1.46281
-1.46373
-1.46463
-1.46551
-1.46636
-1.4672
-1.46802
-1.46881
-1.46959
-1.47034
-1.47107
-1.47178
-1.47247
-1.47315
-1.4738
-1.47444
-1.47505
-1.47566
-1.47625
-1.47682
-1.47738
-1.47793
-1.47847
-1.479
-1.47952
-1.48004
-1.48055
-1.48106
-1.48157
-1.48208
-1.48259
-1.4831
-1.48361
-1.48413
-1.48465
-1.48519
-1.48572
-1.48627
-1.48682
-1.48738
-1.48796
-1.48854
-1.48913
-1.48973
-1.49034
-1.49097
-1.4916
-1.49224
-1.49289
-1.49355
-1.49422
-1.49489
-1.49558
-1.49627
-1.49696
-1.49766
-1.49837
-1.49908
-1.49979
-1.50051
-1.50122
-1.50194
-1.50266
-1.50338
-1.5041
-1.50482
-1.50554
-1.50626
-1.50697
-1.50768
-1.50839
-1.5091
-1.5098
-1.5105
-1.5112
-1.51189
-1.51257
-1.51325
-1.51393
-1.51459
-1.51526
-1.51591
-1.51656
-1.5172
-1.51783
-1.51845
-1.51907
-1.51968
-1.52028
-1.52087
-1.52145
-1.52202
-1.52258
-1.52313
-1.52367
-1.52421
-1.52473
-1.52524
-1.52574
-1.52623
-1.52671
-1.52718
-1.52764
-1.52809
-1.52853
-1.52895
-1.52937
-1.52978
-1.53017
-1.53056
-1.53093
-1.5313
-1.53165
-1.53199
-1.53232
-1.53268
-1.53306
-1.31795
-1.31812
-1.31828
-1.31845
-1.31862
-1.3188
-1.31899
-1.31917
-1.31937
-1.31956
-1.31977
-1.31998
-1.32019
-1.32041
-1.32064
-1.32087
-1.32111
-1.32135
-1.3216
-1.32186
-1.32212
-1.3224
-1.32266
-1.32297
-1.32327
-1.32357
-1.32388
-1.3242
-1.32453
-1.32487
-1.32521
-1.32557
-1.32593
-1.3263
-1.32668
-1.32708
-1.32748
-1.32789
-1.32832
-1.32875
-1.32919
-1.32965
-1.33011
-1.33059
-1.33108
-1.33158
-1.33209
-1.33261
-1.33315
-1.33369
-1.33425
-1.33482
-1.33541
-1.336
-1.33661
-1.33723
-1.33787
-1.33851
-1.33917
-1.33985
-1.34053
-1.34123
-1.34195
-1.34267
-1.34341
-1.34417
-1.34493
-1.34571
-1.34651
-1.34731
-1.34814
-1.34897
-1.34982
-1.35068
-1.35155
-1.35244
-1.35334
-1.35426
-1.35519
-1.35613
-1.35708
-1.35805
-1.35903
-1.36002
-1.36102
-1.36204
-1.36307
-1.36411
-1.36516
-1.36623
-1.3673
-1.36839
-1.36949
-1.3706
-1.37172
-1.37285
-1.37399
-1.37513
-1.37629
-1.37746
-1.37864
-1.37982
-1.38102
-1.38222
-1.38343
-1.38465
-1.38588
-1.38711
-1.38835
-1.38959
-1.39085
-1.39211
-1.39337
-1.39464
-1.39592
-1.3972
-1.39848
-1.39977
-1.40106
-1.40236
-1.40367
-1.40497
-1.40628
-1.40759
-1.40891
-1.41023
-1.41155
-1.41288
-1.4142
-1.41553
-1.41686
-1.4182
-1.41953
-1.42087
-1.42221
-1.42355
-1.4249
-1.42624
-1.42759
-1.42893
-1.43028
-1.43163
-1.43298
-1.43433
-1.43568
-1.43704
-1.43839
-1.43974
-1.44109
-1.44245
-1.4438
-1.44515
-1.44651
-1.44786
-1.44921
-1.45056
-1.4519
-1.45325
-1.45459
-1.45592
-1.45726
-1.45859
-1.45992
-1.46124
-1.46255
-1.46386
-1.46516
-1.46645
-1.46774
-1.46901
-1.47028
-1.47153
-1.47277
-1.474
-1.47522
-1.47642
-1.47761
-1.47878
-1.47993
-1.48106
-1.48218
-1.48328
-1.48435
-1.48541
-1.48644
-1.48745
-1.48844
-1.4894
-1.49034
-1.49126
-1.49215
-1.49302
-1.49386
-1.49467
-1.49546
-1.49623
-1.49697
-1.49768
-1.49838
-1.49905
-1.49969
-1.50032
-1.50093
-1.50151
-1.50208
-1.50263
-1.50316
-1.50368
-1.50418
-1.50468
-1.50516
-1.50563
-1.5061
-1.50656
-1.50701
-1.50746
-1.50791
-1.50836
-1.50882
-1.50927
-1.50972
-1.51018
-1.51065
-1.51112
-1.5116
-1.51208
-1.51257
-1.51307
-1.51358
-1.5141
-1.51463
-1.51517
-1.51571
-1.51627
-1.51683
-1.5174
-1.51799
-1.51858
-1.51917
-1.51978
-1.52039
-1.521
-1.52163
-1.52225
-1.52289
-1.52352
-1.52416
-1.5248
-1.52544
-1.52609
-1.52674
-1.52738
-1.52803
-1.52868
-1.52933
-1.52997
-1.53062
-1.53126
-1.5319
-1.53254
-1.53318
-1.53381
-1.53444
-1.53506
-1.53569
-1.5363
-1.53691
-1.53752
-1.53812
-1.53872
-1.53931
-1.5399
-1.54048
-1.54105
-1.54161
-1.54217
-1.54272
-1.54327
-1.5438
-1.54433
-1.54485
-1.54537
-1.54587
-1.54637
-1.54686
-1.54734
-1.54781
-1.54827
-1.54872
-1.54917
-1.54961
-1.55003
-1.55045
-1.55087
-1.55127
-1.55166
-1.55204
-1.55241
-1.55281
-1.55321
-1.34595
-1.34611
-1.34628
-1.34645
-1.3466
-1.34681
-1.34699
-1.34718
-1.34736
-1.34756
-1.34775
-1.34795
-1.34815
-1.34835
-1.34856
-1.34874
-1.34897
-1.3492
-1.3494
-1.34965
-1.34989
-1.35011
-1.35039
-1.35064
-1.35089
-1.35115
-1.3514
-1.35168
-1.35197
-1.35224
-1.35256
-1.35286
-1.35316
-1.35347
-1.35379
-1.35412
-1.35445
-1.35479
-1.35514
-1.35549
-1.35585
-1.35623
-1.3566
-1.35699
-1.35739
-1.35779
-1.35821
-1.35863
-1.35906
-1.3595
-1.35995
-1.36041
-1.36088
-1.36136
-1.36185
-1.36235
-1.36286
-1.36338
-1.36391
-1.36445
-1.365
-1.36557
-1.36614
-1.36673
-1.36732
-1.36793
-1.36855
-1.36918
-1.36982
-1.37048
-1.37114
-1.37182
-1.37251
-1.37321
-1.37392
-1.37465
-1.37539
-1.37614
-1.3769
-1.37767
-1.37846
-1.37926
-1.38007
-1.38089
-1.38173
-1.38258
-1.38344
-1.38431
-1.38519
-1.38609
-1.387
-1.38792
-1.38885
-1.3898
-1.39076
-1.39172
-1.3927
-1.3937
-1.3947
-1.39571
-1.39674
-1.39778
-1.39883
-1.39988
-1.40095
-1.40203
-1.40312
-1.40423
-1.40534
-1.40646
-1.40759
-1.40873
-1.40988
-1.41104
-1.41221
-1.41339
-1.41458
-1.41577
-1.41698
-1.41819
-1.41941
-1.42064
-1.42188
-1.42313
-1.42438
-1.42564
-1.42691
-1.42818
-1.42947
-1.43076
-1.43205
-1.43336
-1.43467
-1.43598
-1.4373
-1.43863
-1.43997
-1.44131
-1.44265
-1.444
-1.44536
-1.44672
-1.44809
-1.44946
-1.45083
-1.45221
-1.4536
-1.45499
-1.45638
-1.45778
-1.45917
-1.46058
-1.46198
-1.46339
-1.4648
-1.46621
-1.46762
-1.46903
-1.47045
-1.47186
-1.47327
-1.47469
-1.4761
-1.4775
-1.47891
-1.48031
-1.48171
-1.4831
-1.48448
-1.48586
-1.48723
-1.4886
-1.48995
-1.49129
-1.49263
-1.49395
-1.49526
-1.49655
-1.49783
-1.49909
-1.50034
-1.50157
-1.50278
-1.50397
-1.50514
-1.50629
-1.50741
-1.50852
-1.5096
-1.51065
-1.51168
-1.51269
-1.51367
-1.51462
-1.51554
-1.51644
-1.51732
-1.51816
-1.51898
-1.51977
-1.52054
-1.52128
-1.52199
-1.52269
-1.52335
-1.524
-1.52462
-1.52522
-1.52581
-1.52637
-1.52692
-1.52745
-1.52796
-1.52847
-1.52896
-1.52944
-1.52992
-1.53038
-1.53085
-1.5313
-1.53176
-1.53221
-1.53266
-1.53311
-1.53357
-1.53402
-1.53448
-1.53495
-1.53542
-1.5359
-1.53638
-1.53687
-1.53736
-1.53787
-1.53838
-1.5389
-1.53943
-1.53996
-1.54051
-1.54106
-1.54161
-1.54218
-1.54275
-1.54332
-1.5439
-1.54449
-1.54508
-1.54567
-1.54627
-1.54687
-1.54747
-1.54807
-1.54868
-1.54928
-1.54989
-1.5505
-1.55111
-1.55172
-1.55232
-1.55293
-1.55353
-1.55414
-1.55474
-1.55534
-1.55594
-1.55653
-1.55712
-1.55771
-1.55829
-1.55887
-1.55945
-1.56002
-1.56059
-1.56115
-1.56171
-1.56226
-1.56281
-1.56335
-1.56388
-1.56441
-1.56494
-1.56545
-1.56597
-1.56647
-1.56697
-1.56746
-1.56795
-1.56842
-1.56889
-1.56936
-1.56981
-1.57026
-1.57071
-1.57114
-1.57157
-1.57199
-1.5724
-1.57281
-1.57322
-1.57362
-1.37558
-1.37575
-1.37593
-1.37611
-1.37629
-1.37647
-1.37665
-1.37684
-1.37702
-1.37721
-1.3774
-1.3776
-1.3778
-1.37796
-1.37816
-1.37837
-1.37854
-1.3788
-1.37902
-1.37923
-1.37941
-1.37967
-1.3799
-1.38012
-1.38032
-1.38056
-1.38081
-1.38102
-1.38131
-1.38157
-1.38182
-1.38208
-1.38234
-1.3826
-1.38287
-1.38315
-1.38343
-1.38371
-1.384
-1.38429
-1.38459
-1.3849
-1.38521
-1.38552
-1.38584
-1.38617
-1.3865
-1.38684
-1.38719
-1.38754
-1.3879
-1.38826
-1.38863
-1.38901
-1.3894
-1.38979
-1.39019
-1.3906
-1.39102
-1.39144
-1.39187
-1.39231
-1.39276
-1.39322
-1.39368
-1.39416
-1.39464
-1.39513
-1.39563
-1.39614
-1.39666
-1.39719
-1.39773
-1.39827
-1.39883
-1.3994
-1.39997
-1.40056
-1.40116
-1.40176
-1.40238
-1.40301
-1.40365
-1.4043
-1.40496
-1.40563
-1.40631
-1.407
-1.4077
-1.40842
-1.40914
-1.40988
-1.41063
-1.41138
-1.41215
-1.41294
-1.41373
-1.41453
-1.41535
-1.41618
-1.41701
-1.41786
-1.41872
-1.4196
-1.42048
-1.42138
-1.42228
-1.4232
-1.42413
-1.42507
-1.42603
-1.42699
-1.42796
-1.42895
-1.42995
-1.43096
-1.43198
-1.43301
-1.43405
-1.4351
-1.43616
-1.43724
-1.43832
-1.43942
-1.44053
-1.44164
-1.44277
-1.44391
-1.44505
-1.44621
-1.44738
-1.44856
-1.44975
-1.45095
-1.45215
-1.45337
-1.4546
-1.45583
-1.45708
-1.45834
-1.4596
-1.46087
-1.46215
-1.46345
-1.46474
-1.46605
-1.46737
-1.46869
-1.47002
-1.47136
-1.47271
-1.47406
-1.47542
-1.47679
-1.47816
-1.47954
-1.48093
-1.48232
-1.48371
-1.48511
-1.48652
-1.48792
-1.48933
-1.49074
-1.49216
-1.49357
-1.49499
-1.4964
-1.49782
-1.49923
-1.50064
-1.50205
-1.50345
-1.50485
-1.50624
-1.50763
-1.50901
-1.51038
-1.51174
-1.51309
-1.51443
-1.51576
-1.51708
-1.51838
-1.51966
-1.52093
-1.52219
-1.52342
-1.52463
-1.52583
-1.527
-1.52816
-1.52929
-1.5304
-1.53148
-1.53254
-1.53358
-1.53459
-1.53558
-1.53654
-1.53748
-1.53839
-1.53928
-1.54014
-1.54098
-1.54179
-1.54258
-1.54335
-1.54409
-1.54481
-1.54552
-1.5462
-1.54686
-1.5475
-1.54813
-1.54874
-1.54934
-1.54993
-1.5505
-1.55106
-1.55162
-1.55216
-1.5527
-1.55323
-1.55376
-1.55428
-1.5548
-1.55532
-1.55584
-1.55636
-1.55688
-1.55741
-1.55793
-1.55846
-1.55899
-1.55953
-1.56007
-1.56061
-1.56116
-1.56171
-1.56226
-1.56282
-1.56339
-1.56396
-1.56453
-1.5651
-1.56568
-1.56626
-1.56684
-1.56743
-1.56802
-1.56861
-1.5692
-1.56979
-1.57038
-1.57097
-1.57157
-1.57216
-1.57275
-1.57334
-1.57394
-1.57453
-1.57511
-1.5757
-1.57629
-1.57687
-1.57745
-1.57803
-1.57861
-1.57918
-1.57975
-1.58031
-1.58088
-1.58144
-1.58199
-1.58255
-1.58309
-1.58364
-1.58418
-1.58471
-1.58524
-1.58577
-1.58629
-1.5868
-1.58731
-1.58781
-1.58831
-1.58881
-1.58929
-1.58977
-1.59025
-1.59072
-1.59118
-1.59164
-1.59209
-1.59254
-1.59298
-1.59343
-1.59386
-1.59423
-1.40596
-1.40614
-1.40632
-1.4065
-1.40669
-1.40687
-1.40706
-1.40725
-1.40744
-1.40763
-1.40783
-1.40802
-1.40822
-1.40842
-1.40862
-1.40878
-1.40903
-1.40923
-1.40944
-1.40962
-1.40984
-1.41005
-1.41023
-1.41045
-1.41068
-1.41086
-1.41108
-1.41132
-1.4115
-1.41174
-1.41198
-1.41218
-1.41243
-1.41267
-1.41288
-1.41318
-1.41344
-1.41369
-1.41394
-1.4142
-1.41445
-1.41471
-1.41498
-1.41525
-1.41552
-1.41579
-1.41607
-1.41635
-1.41664
-1.41692
-1.4172
-1.41752
-1.41782
-1.41813
-1.41844
-1.41875
-1.41907
-1.4194
-1.41972
-1.42006
-1.4204
-1.42074
-1.42109
-1.42144
-1.42181
-1.42217
-1.42254
-1.42292
-1.42331
-1.4237
-1.42409
-1.4245
-1.42491
-1.42532
-1.42575
-1.42618
-1.42662
-1.42706
-1.42752
-1.42798
-1.42845
-1.42892
-1.42941
-1.4299
-1.4304
-1.43091
-1.43143
-1.43195
-1.43249
-1.43303
-1.43358
-1.43415
-1.43472
-1.4353
-1.43589
-1.43649
-1.43709
-1.43771
-1.43834
-1.43898
-1.43963
-1.44029
-1.44096
-1.44164
-1.44233
-1.44303
-1.44374
-1.44446
-1.44519