/*--------------------------------*- C++ -*----------------------------------*\
| =========                 |                                                 |
| \\      /  F ield         | OpenFOAM: The Open Source CFD Toolbox           |
|  \\    /   O peration     | Version:  2.4.0                                 |
|   \\  /    A nd           | Web:      www.OpenFOAM.org                      |
|    \\/     M anipulation  |                                                 |
\*---------------------------------------------------------------------------*/
FoamFile
{
    version     2.0;
    format      ascii;
    class       volVectorField;
    location    "4.8";
    object      U;
}
// * * * * * * * * * * * * * * * * * * * * * * * * * * * * * * * * * * * * * //

dimensions      [0 1 -1 0 0 0 0];

internalField   nonuniform List<vector> 
8000
(
(3.03484e-06 3.69329e-05 0)
(9.73897e-06 0.000163018 0)
(1.51936e-05 0.000350747 0)
(1.27698e-05 0.000596137 0)
(-2.6827e-05 0.000920634 0)
(-0.000141928 0.00131648 0)
(-0.000406038 0.00223574 0)
(-0.00143532 0.00293539 0)
(-0.00222834 0.000160099 0)
(-0.00252443 0.00323564 0)
(-0.00159249 -0.00905121 0)
(-0.00355474 -0.00399645 0)
(-0.00391239 -0.0226223 0)
(-0.00188037 0.0201892 0)
(-4.83034e-05 0.0545999 0)
(0.000167457 0.0855903 0)
(0.00226103 0.0990691 0)
(0.00382715 0.0997283 0)
(0.00487486 0.0935158 0)
(0.00600172 0.0861574 0)
(0.00729983 0.0793052 0)
(0.00847393 0.072555 0)
(0.00932086 0.0659722 0)
(0.00975656 0.0599173 0)
(0.00982282 0.0546888 0)
(0.00961095 0.0504303 0)
(0.00921136 0.0470121 0)
(0.00870225 0.0441547 0)
(0.00814699 0.0416634 0)
(0.00759517 0.0394467 0)
(0.00707521 0.0374499 0)
(0.00658679 0.0356256 0)
(0.00610774 0.0339317 0)
(0.0056134 0.0323325 0)
(0.00509043 0.0308011 0)
(0.00453655 0.0293183 0)
(0.00395448 0.0278691 0)
(0.00334789 0.02644 0)
(0.00271997 0.0250181 0)
(0.00207316 0.0235917 0)
(0.00140932 0.0221505 0)
(0.000729834 0.0206867 0)
(3.5694e-05 0.0191948 0)
(-0.00067253 0.0176715 0)
(-0.00139461 0.0161154 0)
(-0.00213058 0.0145274 0)
(-0.00288059 0.0129096 0)
(-0.00364486 0.0112654 0)
(-0.00442361 0.00959906 0)
(-0.00521724 0.00791503 0)
(-1.51156e-06 -9.81608e-05 0)
(1.60458e-06 -0.000207892 0)
(1.51646e-05 -0.000230967 0)
(4.2825e-05 -0.000171324 0)
(9.15349e-05 -2.37527e-05 0)
(0.000165538 0.000207712 0)
(0.00025148 0.000538738 0)
(0.000234391 0.000392443 0)
(-2.14459e-05 5.54999e-05 0)
(-0.000441727 -0.000145231 0)
(-0.00060483 8.87056e-05 0)
(-0.000843029 0.00718502 0)
(-0.00183876 0.00218464 0)
(-0.0021826 0.00727846 0)
(-0.00129277 0.00134901 0)
(0.000494389 0.0222907 0)
(0.00174607 0.026507 0)
(0.00511893 0.046186 0)
(0.00774889 0.034425 0)
(0.00398644 -0.000588234 0)
(0.0111687 0.00288381 0)
(0.0164346 0.017311 0)
(0.0175926 0.0305271 0)
(0.0193524 0.0414645 0)
(0.0204359 0.0491618 0)
(0.0209741 0.0536179 0)
(0.0221764 0.0558177 0)
(0.0236305 0.0563645 0)
(0.0248556 0.0551567 0)
(0.0258883 0.0527017 0)
(0.0267159 0.0501195 0)
(0.0271807 0.0481961 0)
(0.0272726 0.046955 0)
(0.0270904 0.0459933 0)
(0.0267354 0.045015 0)
(0.0262796 0.0439314 0)
(0.0257465 0.0427256 0)
(0.0251304 0.0414078 0)
(0.024423 0.0399975 0)
(0.0236233 0.0385114 0)
(0.0227386 0.0369613 0)
(0.0217803 0.0353571 0)
(0.0207607 0.0337107 0)
(0.0196899 0.0320313 0)
(0.0185763 0.0303245 0)
(0.0174267 0.0286 0)
(0.0162462 0.0268595 0)
(0.0150398 0.0250988 0)
(0.0138125 0.0233279 0)
(0.0125676 0.0215544 0)
(6.69105e-07 -6.6649e-05 0)
(7.04054e-06 -0.000197304 0)
(2.27423e-05 -0.000324508 0)
(5.00027e-05 -0.00044828 0)
(9.14602e-05 -0.000569346 0)
(0.000149505 -0.000689682 0)
(0.000223678 -0.000811464 0)
(0.000307608 -0.000937549 0)
(0.000386289 -0.00106089 0)
(0.000443947 -0.00110192 0)
(0.0004779 -0.00100134 0)
(0.000532836 -0.000487122 0)
(0.000611345 -0.000613589 0)
(0.000727447 -0.000649962 0)
(0.00094286 -0.000725535 0)
(0.00175641 -0.000650225 0)
(0.00363019 -0.000497902 0)
(0.00615253 4.70794e-05 0)
(0.00896144 0.0026579 0)
(0.0104796 0.00776599 0)
(0.0100362 0.00735594 0)
(0.00973805 0.0139652 0)
(0.0100018 0.0209982 0)
(0.010761 0.0290442 0)
(0.0119436 0.0376816 0)
(0.012324 0.03723 0)
(0.0126544 0.0186756 0)
(0.0163664 0.00584394 0)
(0.0201516 0.00588749 0)
(0.0214988 0.0122633 0)
(0.0217119 0.0220974 0)
(0.0218058 0.0323934 0)
(0.02311 0.037757 0)
(0.0247938 0.0394733 0)
(0.0260821 0.0397263 0)
(0.0270523 0.0401166 0)
(0.027927 0.0409485 0)
(0.0286743 0.0420307 0)
(0.0291903 0.0431189 0)
(0.0294903 0.0440044 0)
(0.0296223 0.044585 0)
(0.0296034 0.044833 0)
(0.0294283 0.0447884 0)
(0.029095 0.0444871 0)
(0.0286112 0.0439479 0)
(0.0279882 0.0432333 0)
(0.0272384 0.0423587 0)
(0.0263739 0.0413329 0)
(0.0254062 0.0401802 0)
(0.0243481 0.0389236 0)
(1.46554e-06 -0.00016013 0)
(1.21741e-05 -0.000456977 0)
(3.24207e-05 -0.000731025 0)
(6.09863e-05 -0.000982963 0)
(9.66988e-05 -0.00121339 0)
(0.000138152 -0.00142325 0)
(0.000184371 -0.00161318 0)
(0.000233833 -0.00178412 0)
(0.000286299 -0.00193595 0)
(0.000342676 -0.00206849 0)
(0.000407008 -0.00218031 0)
(0.000482565 -0.00227276 0)
(0.000566811 -0.0023612 0)
(0.000650139 -0.00243976 0)
(0.000729143 -0.00245917 0)
(0.00080333 -0.00239347 0)
(0.000874387 -0.00221192 0)
(0.000950959 -0.00184314 0)
(0.00106348 -0.00120477 0)
(0.00118067 -0.00053698 0)
(0.00130984 -5.61161e-05 0)
(0.00172513 0.000499835 0)
(0.00265647 0.00109492 0)
(0.00400494 0.00181149 0)
(0.00570604 0.00288045 0)
(0.00767207 0.00479827 0)
(0.00927925 0.00561927 0)
(0.00979287 0.0035008 0)
(0.00973498 0.0122236 0)
(0.00947279 0.0233064 0)
(0.0093506 0.0310894 0)
(0.0094297 0.02874 0)
(0.0108453 0.0183391 0)
(0.0132844 0.0111289 0)
(0.0150333 0.0107376 0)
(0.0150255 0.0186146 0)
(0.015333 0.0252397 0)
(0.0167456 0.029071 0)
(0.0179834 0.0313768 0)
(0.0190152 0.0331498 0)
(0.0201018 0.0353121 0)
(0.0212769 0.0377528 0)
(0.0224092 0.0401269 0)
(0.0234131 0.0422821 0)
(0.0242537 0.0441683 0)
(0.024899 0.0457649 0)
(0.0253316 0.0470498 0)
(0.025551 0.0480106 0)
(0.0255698 0.0486294 0)
(0.0254016 0.0489714 0)
(2.07824e-08 -0.000202518 0)
(2.44668e-06 -0.000575592 0)
(7.89596e-06 -0.000917552 0)
(1.63242e-05 -0.00122911 0)
(2.74467e-05 -0.00151089 0)
(4.09807e-05 -0.00176329 0)
(5.66292e-05 -0.00198673 0)
(7.41071e-05 -0.0021813 0)
(9.3104e-05 -0.00234725 0)
(0.000113375 -0.00248437 0)
(0.000134649 -0.00259299 0)
(0.000156633 -0.00267289 0)
(0.00017871 -0.00272472 0)
(0.000200405 -0.00274749 0)
(0.000221948 -0.0027411 0)
(0.00024488 -0.00270385 0)
(0.000272353 -0.00263667 0)
(0.000309833 -0.0025386 0)
(0.000363774 -0.00241467 0)
(0.000438037 -0.00227206 0)
(0.000529798 -0.0021238 0)
(0.000636787 -0.00192547 0)
(0.000758445 -0.00165021 0)
(0.00089416 -0.00126428 0)
(0.00103143 -0.00073856 0)
(0.00114576 -8.97891e-05 0)
(0.00122032 0.000449148 0)
(0.00130749 0.000941937 0)
(0.0016329 0.00168264 0)
(0.00239453 0.00260046 0)
(0.00358258 0.0034846 0)
(0.0051331 0.00444806 0)
(0.00653665 0.00180928 0)
(0.00707808 0.00823419 0)
(0.00697067 0.0193137 0)
(0.00666769 0.0240792 0)
(0.00704683 0.0197321 0)
(0.00851029 0.0135174 0)
(0.0103787 0.0112283 0)
(0.0108659 0.0133628 0)
(0.011208 0.0165507 0)
(0.0125725 0.0171103 0)
(0.0141388 0.0180069 0)
(0.0154137 0.0210808 0)
(0.0166493 0.0255552 0)
(0.0179431 0.0301343 0)
(0.0191952 0.0344882 0)
(0.0203292 0.0385575 0)
(0.0212949 0.0422105 0)
(0.022065 0.0454217 0)
(1.76822e-07 -0.000202885 0)
(5.13918e-07 -0.000580163 0)
(1.07083e-06 -0.000929319 0)
(1.94643e-06 -0.00125069 0)
(3.3261e-06 -0.00154455 0)
(5.43296e-06 -0.00181116 0)
(8.44953e-06 -0.00205071 0)
(1.25983e-05 -0.00226342 0)
(1.80508e-05 -0.00244944 0)
(2.5052e-05 -0.00260888 0)
(3.37735e-05 -0.00274187 0)
(4.44903e-05 -0.00284842 0)
(5.73601e-05 -0.00292864 0)
(7.26927e-05 -0.00298242 0)
(9.06691e-05 -0.00300982 0)
(0.000111705 -0.00301069 0)
(0.000136022 -0.00298527 0)
(0.00016409 -0.00293352 0)
(0.000195978 -0.00285624 0)
(0.00023189 -0.00275364 0)
(0.000271456 -0.00262703 0)
(0.000315242 -0.00247571 0)
(0.000364528 -0.00230137 0)
(0.000422448 -0.00210344 0)
(0.000492122 -0.00188597 0)
(0.000576486 -0.0016486 0)
(0.000675611 -0.00139871 0)
(0.000788966 -0.00112747 0)
(0.000918078 -0.000801131 0)
(0.00105803 -0.000379851 0)
(0.0011741 1.57931e-05 0)
(0.00122923 0.000462057 0)
(0.00125248 0.000782798 0)
(0.00142129 0.00148982 0)
(0.00190926 0.00247685 0)
(0.00279122 0.00361393 0)
(0.00405787 0.00247136 0)
(0.00504764 0.000783236 0)
(0.00524914 0.0111287 0)
(0.00500319 0.0168773 0)
(0.00495264 0.0134675 0)
(0.00596782 0.00526232 0)
(0.00728754 0.00423996 0)
(0.00728462 0.00822233 0)
(0.00759788 0.0114492 0)
(0.00848787 0.0138075 0)
(0.00958277 0.0169 0)
(0.0107462 0.0212477 0)
(0.0120059 0.0264602 0)
(0.0132924 0.0318849 0)
(-5.00311e-07 -0.000199035 0)
(-3.51002e-06 -0.000571369 0)
(-8.85011e-06 -0.000918377 0)
(-1.60617e-05 -0.00124039 0)
(-2.46905e-05 -0.00153774 0)
(-3.43382e-05 -0.00181071 0)
(-4.46604e-05 -0.00205961 0)
(-5.53026e-05 -0.00228468 0)
(-6.59454e-05 -0.00248621 0)
(-7.62385e-05 -0.00266439 0)
(-8.58807e-05 -0.00281947 0)
(-9.45186e-05 -0.00295158 0)
(-0.000101866 -0.00306094 0)
(-0.000107555 -0.00314764 0)
(-0.000111311 -0.00321189 0)
(-0.00011274 -0.00325369 0)
(-0.000111585 -0.00327329 0)
(-0.000107426 -0.00327059 0)
(-0.000100051 -0.00324587 0)
(-8.9028e-05 -0.00319889 0)
(-7.42288e-05 -0.00313 0)
(-5.51979e-05 -0.00303868 0)
(-3.18784e-05 -0.00292548 0)
(-3.77217e-06 -0.0027896 0)
(2.90337e-05 -0.0026321 0)
(6.69767e-05 -0.00245186 0)
(0.000109755 -0.00225061 0)
(0.000158075 -0.00202626 0)
(0.000212369 -0.00178127 0)
(0.000274286 -0.00151246 0)
(0.000343588 -0.00122477 0)
(0.000421304 -0.000911046 0)
(0.000508712 -0.000573109 0)
(0.000608675 -0.000186902 0)
(0.000710089 0.000271001 0)
(0.000766815 0.00072903 0)
(0.000794855 0.000958601 0)
(0.00082171 0.00132081 0)
(0.00100352 0.00221077 0)
(0.00154932 0.00290936 0)
(0.00239504 0.00297356 0)
(0.00302526 0.00103249 0)
(0.00303845 0.00800038 0)
(0.00268078 0.0117102 0)
(0.00271534 0.0101436 0)
(0.00347033 0.00673061 0)
(0.00424893 0.00681316 0)
(0.00476119 0.0081186 0)
(0.00556761 0.0104965 0)
(0.0065827 0.0141642 0)
(-2.67681e-07 -0.000167538 0)
(-3.23785e-06 -0.000484989 0)
(-9.13135e-06 -0.000784642 0)
(-1.76563e-05 -0.00106632 0)
(-2.83804e-05 -0.00132989 0)
(-4.09095e-05 -0.00157525 0)
(-5.48934e-05 -0.00180233 0)
(-6.9986e-05 -0.00201108 0)
(-8.58624e-05 -0.00220147 0)
(-0.000102185 -0.00237352 0)
(-0.000118645 -0.00252721 0)
(-0.000134911 -0.00266258 0)
(-0.000150688 -0.00277967 0)
(-0.000165644 -0.00287851 0)
(-0.000179499 -0.00295919 0)
(-0.000191915 -0.00302176 0)
(-0.000202623 -0.00306632 0)
(-0.000211273 -0.00309296 0)
(-0.000217608 -0.00310179 0)
(-0.000221258 -0.00309291 0)
(-0.000221976 -0.00306649 0)
(-0.00021936 -0.0030226 0)
(-0.000213174 -0.00296146 0)
(-0.000202971 -0.00288316 0)
(-0.000188537 -0.00278795 0)
(-0.000169372 -0.0026759 0)
(-0.000145305 -0.00254736 0)
(-0.00011577 -0.00240234 0)
(-8.06277e-05 -0.00224135 0)
(-3.92382e-05 -0.00206437 0)
(8.52874e-06 -0.00187227 0)
(6.34211e-05 -0.00166486 0)
(0.000125905 -0.00144346 0)
(0.000197369 -0.00120773 0)
(0.00027805 -0.000960019 0)
(0.000368178 -0.000699466 0)
(0.000465129 -0.000426962 0)
(0.000570159 -0.000125299 0)
(0.000682836 0.000249918 0)
(0.000772856 0.000495713 0)
(0.000859869 0.000663858 0)
(0.000935716 0.00079306 0)
(0.00108491 0.00131435 0)
(0.00147717 0.00190245 0)
(0.00211369 0.000806398 0)
(0.00263868 0.000270889 0)
(0.00274707 0.00392093 0)
(0.00280129 0.00439648 0)
(0.0031069 0.00404008 0)
(0.00361605 0.00385201 0)
(-3.27285e-07 -0.000155241 0)
(-3.02464e-06 -0.000449839 0)
(-8.25329e-06 -0.000728681 0)
(-1.57646e-05 -0.000991871 0)
(-2.52354e-05 -0.00123949 0)
(-3.63795e-05 -0.00147163 0)
(-4.89301e-05 -0.00168834 0)
(-6.26231e-05 -0.0018897 0)
(-7.71922e-05 -0.00207576 0)
(-9.23697e-05 -0.0022466 0)
(-0.000107888 -0.00240228 0)
(-0.000123479 -0.00254289 0)
(-0.000138876 -0.00266849 0)
(-0.000153813 -0.00277917 0)
(-0.000168024 -0.00287502 0)
(-0.000181245 -0.00295613 0)
(-0.000193212 -0.00302261 0)
(-0.000203663 -0.00307457 0)
(-0.000212341 -0.00311212 0)
(-0.000218983 -0.00313539 0)
(-0.00022334 -0.00314452 0)
(-0.00022515 -0.00313966 0)
(-0.000224172 -0.00312096 0)
(-0.000220146 -0.00308861 0)
(-0.000212843 -0.00304279 0)
(-0.000202003 -0.00298369 0)
(-0.000187412 -0.00291154 0)
(-0.000168809 -0.00282658 0)
(-0.000146003 -0.00272905 0)
(-0.000118729 -0.00261924 0)
(-8.68352e-05 -0.00249742 0)
(-5.0056e-05 -0.00236394 0)
(-8.29622e-06 -0.0022191 0)
(3.87004e-05 -0.00206333 0)
(9.09576e-05 -0.00189703 0)
(0.000148767 -0.00172067 0)
(0.000212313 -0.00153467 0)
(0.000282189 -0.00133922 0)
(0.000358306 -0.00113502 0)
(0.000439019 -0.000922731 0)
(0.000522073 -0.000701125 0)
(0.000607753 -0.00045656 0)
(0.000695099 -0.000206871 0)
(0.000773973 8.91409e-05 0)
(0.000819477 0.000167854 0)
(0.000832676 0.000423576 0)
(0.000880893 0.000611846 0)
(0.00112572 5.30339e-05 0)
(0.00139697 -0.000206259 0)
(0.0016001 -6.65234e-05 0)
(-3.38171e-07 -0.000132155 0)
(-3.35445e-06 -0.000385137 0)
(-9.29644e-06 -0.000626689 0)
(-1.79274e-05 -0.00085672 0)
(-2.89235e-05 -0.00107518 0)
(-4.20025e-05 -0.00128202 0)
(-5.6909e-05 -0.00147724 0)
(-7.3394e-05 -0.0016608 0)
(-9.12075e-05 -0.00183269 0)
(-0.000110101 -0.00199291 0)
(-0.000129826 -0.00214148 0)
(-0.000150138 -0.0022784 0)
(-0.000170793 -0.00240369 0)
(-0.00019155 -0.0025174 0)
(-0.000212168 -0.00261956 0)
(-0.000232411 -0.0027102 0)
(-0.000252042 -0.00278939 0)
(-0.000270833 -0.00285717 0)
(-0.00028855 -0.0029136 0)
(-0.00030497 -0.00295875 0)
(-0.000319867 -0.0029927 0)
(-0.000333024 -0.0030155 0)
(-0.000344223 -0.00302724 0)
(-0.000353255 -0.00302799 0)
(-0.000359909 -0.00301785 0)
(-0.000363988 -0.00299689 0)
(-0.00036529 -0.00296522 0)
(-0.000363631 -0.00292289 0)
(-0.000358821 -0.00287005 0)
(-0.000350687 -0.00280674 0)
(-0.000339058 -0.00273311 0)
(-0.000323774 -0.00264919 0)
(-0.000304683 -0.00255517 0)
(-0.000281643 -0.00245102 0)
(-0.000254524 -0.002337 0)
(-0.000223203 -0.00221297 0)
(-0.000187584 -0.0020793 0)
(-0.000147553 -0.00193575 0)
(-0.000103039 -0.00178281 0)
(-5.3899e-05 -0.00162008 0)
(-1.6986e-08 -0.00144809 0)
(5.88862e-05 -0.00126596 0)
(0.000122666 -0.00107463 0)
(0.000191284 -0.000872836 0)
(0.000265281 -0.000659841 0)
(0.000348502 -0.000425298 0)
(0.000419357 -0.000360488 0)
(0.000456143 -0.000341936 0)
(0.000478844 -0.000396058 0)
(0.000512396 -0.000537399 0)
(-2.89881e-07 -0.000114622 0)
(-3.21664e-06 -0.000334567 0)
(-9.09433e-06 -0.000545253 0)
(-1.77319e-05 -0.000746724 0)
(-2.88348e-05 -0.000939018 0)
(-4.21456e-05 -0.00112218 0)
(-5.74365e-05 -0.00129624 0)
(-7.4487e-05 -0.00146123 0)
(-9.30782e-05 -0.00161718 0)
(-0.000112992 -0.00176411 0)
(-0.000134013 -0.00190205 0)
(-0.000155928 -0.00203103 0)
(-0.000178527 -0.00215107 0)
(-0.000201599 -0.0022622 0)
(-0.000224939 -0.00236447 0)
(-0.000248341 -0.00245791 0)
(-0.000271603 -0.00254255 0)
(-0.000294522 -0.00261844 0)
(-0.000316901 -0.00268563 0)
(-0.000338538 -0.00274417 0)
(-0.000359241 -0.0027941 0)
(-0.000378811 -0.00283549 0)
(-0.000397057 -0.00286839 0)
(-0.000413783 -0.00289287 0)
(-0.000428801 -0.002909 0)
(-0.000441916 -0.00291684 0)
(-0.000452943 -0.00291648 0)
(-0.000461687 -0.00290798 0)
(-0.000467966 -0.00289144 0)
(-0.000471583 -0.00286695 0)
(-0.000472359 -0.0028346 0)
(-0.000470094 -0.00279448 0)
(-0.000464611 -0.00274674 0)
(-0.000455707 -0.00269144 0)
(-0.000443205 -0.00262878 0)
(-0.000426895 -0.00255881 0)
(-0.0004066 -0.00248179 0)
(-0.000382103 -0.00239774 0)
(-0.000353219 -0.00230703 0)
(-0.000319727 -0.00220962 0)
(-0.000281438 -0.00210604 0)
(-0.000238082 -0.00199614 0)
(-0.000189429 -0.00188073 0)
(-0.000135107 -0.00175943 0)
(-7.51913e-05 -0.00163347 0)
(-1.02099e-05 -0.00150212 0)
(5.91327e-05 -0.00136779 0)
(0.000133182 -0.0012198 0)
(0.000200886 -0.00118472 0)
(0.000245738 -0.0011543 0)
(-3.54789e-07 -9.1398e-05 0)
(-3.09484e-06 -0.00026882 0)
(-8.40905e-06 -0.000440691 0)
(-1.60898e-05 -0.000606869 0)
(-2.5887e-05 -0.00076723 0)
(-3.75939e-05 -0.00092166 0)
(-5.10295e-05 -0.00107006 0)
(-6.60186e-05 -0.00121235 0)
(-8.23865e-05 -0.00134845 0)
(-9.99605e-05 -0.00147829 0)
(-0.00011857 -0.00160183 0)
(-0.000138045 -0.00171903 0)
(-0.000158221 -0.00182985 0)
(-0.000178931 -0.00193428 0)
(-0.000200013 -0.0020323 0)
(-0.000221304 -0.00212392 0)
(-0.000242643 -0.00220912 0)
(-0.000263871 -0.00228794 0)
(-0.000284829 -0.00236037 0)
(-0.00030536 -0.00242646 0)
(-0.000325306 -0.00248623 0)
(-0.000344511 -0.00253973 0)
(-0.000362818 -0.002587 0)
(-0.000380071 -0.00262808 0)
(-0.000396115 -0.00266305 0)
(-0.000410793 -0.00269196 0)
(-0.000423949 -0.00271489 0)
(-0.000435426 -0.00273191 0)
(-0.000445068 -0.0027431 0)
(-0.000452713 -0.00274857 0)
(-0.000458207 -0.0027484 0)
(-0.000461384 -0.0027427 0)
(-0.00046209 -0.00273159 0)
(-0.000460153 -0.00271518 0)
(-0.00045542 -0.00269361 0)
(-0.000447713 -0.00266703 0)
(-0.000436879 -0.00263557 0)
(-0.000422732 -0.00259941 0)
(-0.000405121 -0.00255873 0)
(-0.000383851 -0.0025137 0)
(-0.00035878 -0.00246454 0)
(-0.000329687 -0.00241145 0)
(-0.000296462 -0.0023547 0)
(-0.000258834 -0.00229447 0)
(-0.0002167 -0.00223117 0)
(-0.000169874 -0.00216487 0)
(-0.000118156 -0.0020961 0)
(-6.20416e-05 -0.00202472 0)
(-1.21011e-06 -0.00195167 0)
(6.34248e-05 -0.00187467 0)
(-7.63955e-08 -8.00679e-05 0)
(-1.51263e-06 -0.000235768 0)
(-4.56904e-06 -0.000386984 0)
(-9.1912e-06 -0.000533692 0)
(-1.52343e-05 -0.000675864 0)
(-2.25647e-05 -0.000813462 0)
(-3.10636e-05 -0.000946449 0)
(-4.06172e-05 -0.00107479 0)
(-5.11118e-05 -0.00119843 0)
(-6.24341e-05 -0.00131736 0)
(-7.44715e-05 -0.00143153 0)
(-8.71122e-05 -0.00154094 0)
(-0.000100245 -0.00164556 0)
(-0.00011376 -0.00174539 0)
(-0.000127548 -0.00184042 0)
(-0.000141501 -0.00193065 0)
(-0.000155509 -0.00201609 0)
(-0.000169466 -0.00209677 0)
(-0.000183265 -0.0021727 0)
(-0.000196801 -0.00224391 0)
(-0.000209967 -0.00231045 0)
(-0.00022266 -0.00237235 0)
(-0.000234773 -0.00242967 0)
(-0.000246204 -0.00248247 0)
(-0.000256849 -0.00253083 0)
(-0.000266604 -0.0025748 0)
(-0.000275367 -0.00261449 0)
(-0.000283036 -0.00264997 0)
(-0.000289507 -0.00268137 0)
(-0.00029468 -0.00270877 0)
(-0.000298452 -0.00273232 0)
(-0.000300723 -0.00275213 0)
(-0.000301392 -0.00276835 0)
(-0.000300358 -0.00278112 0)
(-0.000297522 -0.00279063 0)
(-0.000292784 -0.00279704 0)
(-0.000286047 -0.00280055 0)
(-0.000277212 -0.00280136 0)
(-0.000266185 -0.0027997 0)
(-0.000252868 -0.00279579 0)
(-0.000237171 -0.00278992 0)
(-0.000219 -0.00278234 0)
(-0.00019827 -0.00277337 0)
(-0.000174892 -0.00276332 0)
(-0.000148787 -0.00275256 0)
(-0.000119869 -0.00274145 0)
(-8.80611e-05 -0.0027304 0)
(-5.32613e-05 -0.00271988 0)
(-1.5458e-05 -0.00271059 0)
(2.522e-05 -0.00270288 0)
(-2.16121e-07 -6.86703e-05 0)
(-1.27821e-06 -0.000203629 0)
(-3.16257e-06 -0.000336002 0)
(-5.75923e-06 -0.000465624 0)
(-8.99274e-06 -0.000592357 0)
(-1.28089e-05 -0.000716068 0)
(-1.71598e-05 -0.00083664 0)
(-2.19956e-05 -0.000953963 0)
(-2.72651e-05 -0.00106794 0)
(-3.29158e-05 -0.00117849 0)
(-3.88947e-05 -0.00128554 0)
(-4.51487e-05 -0.00138902 0)
(-5.16243e-05 -0.0014889 0)
(-5.82677e-05 -0.00158512 0)
(-6.50254e-05 -0.00167766 0)
(-7.18435e-05 -0.0017665 0)
(-7.86688e-05 -0.00185162 0)
(-8.54477e-05 -0.00193302 0)
(-9.21276e-05 -0.0020107 0)
(-9.86558e-05 -0.00208468 0)
(-0.000104981 -0.00215497 0)
(-0.000111051 -0.0022216 0)
(-0.000116816 -0.0022846 0)
(-0.000122227 -0.00234402 0)
(-0.000127236 -0.0023999 0)
(-0.000131795 -0.0024523 0)
(-0.000135858 -0.00250128 0)
(-0.000139383 -0.0025469 0)
(-0.000142325 -0.00258925 0)
(-0.000144646 -0.00262841 0)
(-0.000146306 -0.00266446 0)
(-0.00014727 -0.00269751 0)
(-0.000147505 -0.00272765 0)
(-0.00014698 -0.00275499 0)
(-0.000145668 -0.00277966 0)
(-0.000143547 -0.00280177 0)
(-0.000140595 -0.00282145 0)
(-0.000136799 -0.00283884 0)
(-0.000132147 -0.00285408 0)
(-0.000126633 -0.00286733 0)
(-0.000120259 -0.00287873 0)
(-0.000113029 -0.00288845 0)
(-0.000104957 -0.00289666 0)
(-9.60612e-05 -0.00290353 0)
(-8.63728e-05 -0.00290925 0)
(-7.59312e-05 -0.00291399 0)
(-6.4796e-05 -0.00291795 0)
(-5.30028e-05 -0.00292131 0)
(-4.04921e-05 -0.00292445 0)
(-2.70665e-05 -0.00292745 0)
(1.6028e-07 -7.01384e-05 0)
(4.35327e-07 -0.000207078 0)
(6.74252e-07 -0.000340677 0)
(8.03473e-07 -0.000470943 0)
(8.22619e-07 -0.000597879 0)
(7.47419e-07 -0.000721475 0)
(5.92288e-07 -0.000841719 0)
(3.6908e-07 -0.000958593 0)
(8.90142e-08 -0.00107208 0)
(-2.36694e-07 -0.00118216 0)
(-5.96469e-07 -0.00128881 0)
(-9.78569e-07 -0.00139203 0)
(-1.37086e-06 -0.00149181 0)
(-1.76099e-06 -0.00158813 0)
(-2.13611e-06 -0.00168099 0)
(-2.48315e-06 -0.0017704 0)
(-2.78852e-06 -0.00185635 0)
(-3.03849e-06 -0.00193887 0)
(-3.21886e-06 -0.00201795 0)
(-3.31545e-06 -0.00209362 0)
(-3.3137e-06 -0.00216591 0)
(-3.19931e-06 -0.00223483 0)
(-2.95778e-06 -0.00230041 0)
(-2.5752e-06 -0.0023627 0)
(-2.03764e-06 -0.00242173 0)
(-1.3322e-06 -0.00247754 0)
(-4.46205e-07 -0.00253018 0)
(6.31459e-07 -0.00257971 0)
(1.91141e-06 -0.00262617 0)
(3.40204e-06 -0.00266964 0)
(5.11094e-06 -0.00271016 0)
(7.04273e-06 -0.00274782 0)
(9.20084e-06 -0.00278268 0)
(1.15848e-05 -0.00281482 0)
(1.41926e-05 -0.00284432 0)
(1.70171e-05 -0.00287127 0)
(2.00493e-05 -0.00289575 0)
(2.32738e-05 -0.00291787 0)
(2.66728e-05 -0.00293772 0)
(3.02202e-05 -0.0029554 0)
(3.38873e-05 -0.00297103 0)
(3.76354e-05 -0.00298474 0)
(4.14226e-05 -0.00299664 0)
(4.51909e-05 -0.00300687 0)
(4.88732e-05 -0.00301558 0)
(5.23837e-05 -0.00302292 0)
(5.56988e-05 -0.00302906 0)
(5.89462e-05 -0.00303412 0)
(6.22354e-05 -0.00303831 0)
(6.4173e-05 -0.00304199 0)
(-1.49432e-07 -6.676e-05 0)
(-1.03193e-08 -0.000198271 0)
(6.53776e-07 -0.000327549 0)
(1.90264e-06 -0.000454408 0)
(3.68606e-06 -0.000578687 0)
(5.9406e-06 -0.00070024 0)
(8.60853e-06 -0.000818941 0)
(1.16374e-05 -0.000934676 0)
(1.49775e-05 -0.00104735 0)
(1.85809e-05 -0.00115688 0)
(2.2402e-05 -0.00126321 0)
(2.63981e-05 -0.00136627 0)
(3.0529e-05 -0.00146602 0)
(3.47578e-05 -0.00156245 0)
(3.90502e-05 -0.00165551 0)
(4.33752e-05 -0.0017452 0)
(4.77046e-05 -0.00183152 0)
(5.20132e-05 -0.00191447 0)
(5.62785e-05 -0.00199406 0)
(6.04809e-05 -0.0020703 0)
(6.4603e-05 -0.00214321 0)
(6.86301e-05 -0.00221282 0)
(7.25494e-05 -0.00227917 0)
(7.63503e-05 -0.00234227 0)
(8.00237e-05 -0.00240218 0)
(8.35621e-05 -0.00245892 0)
(8.69593e-05 -0.00251254 0)
(9.02098e-05 -0.00256308 0)
(9.33091e-05 -0.00261059 0)
(9.62531e-05 -0.0026551 0)
(9.90375e-05 -0.00269667 0)
(0.000101658 -0.00273533 0)
(0.000104111 -0.00277112 0)
(0.00010639 -0.00280408 0)
(0.000108489 -0.00283426 0)
(0.000110402 -0.00286168 0)
(0.000112118 -0.00288637 0)
(0.000113627 -0.00290835 0)
(0.000114916 -0.00292764 0)
(0.00011597 -0.00294425 0)
(0.000116771 -0.00295817 0)
(0.000117299 -0.00296939 0)
(0.000117523 -0.00297789 0)
(0.000117397 -0.00298362 0)
(0.000116884 -0.00298652 0)
(0.000116094 -0.0029865 0)
(0.000115442 -0.00298342 0)
(0.000114934 -0.00297715 0)
(0.000110956 -0.00296779 0)
(9.12122e-05 -0.00295587 0)
(3.86362e-07 -7.9127e-05 0)
(2.02327e-06 -0.000232644 0)
(4.81463e-06 -0.000381434 0)
(8.55648e-06 -0.000525497 0)
(1.31181e-05 -0.000664842 0)
(1.83977e-05 -0.000799483 0)
(2.42951e-05 -0.000929441 0)
(3.07035e-05 -0.00105474 0)
(3.75135e-05 -0.00117542 0)
(4.46158e-05 -0.00129152 0)
(5.19041e-05 -0.00140309 0)
(5.92761e-05 -0.00151019 0)
(6.66343e-05 -0.00161287 0)
(7.38872e-05 -0.0017112 0)
(8.09489e-05 -0.00180527 0)
(8.77404e-05 -0.00189513 0)
(9.41886e-05 -0.00198088 0)
(0.000100227 -0.00206258 0)
(0.000105795 -0.00214033 0)
(0.000110839 -0.00221421 0)
(0.000115309 -0.00228429 0)
(0.000119163 -0.00235067 0)
(0.000122362 -0.00241342 0)
(0.000124872 -0.00247262 0)
(0.000126663 -0.00252835 0)
(0.000127709 -0.0025807 0)
(0.000127987 -0.00262973 0)
(0.000127479 -0.00267551 0)
(0.000126168 -0.00271812 0)
(0.000124039 -0.00275762 0)
(0.00012108 -0.00279408 0)
(0.000117285 -0.00282756 0)
(0.000112644 -0.00285811 0)
(0.000107155 -0.00288578 0)
(0.000100817 -0.00291064 0)
(9.36337e-05 -0.00293273 0)
(8.56102e-05 -0.0029521 0)
(7.67612e-05 -0.00296878 0)
(6.71038e-05 -0.00298283 0)
(5.6668e-05 -0.00299429 0)
(4.54882e-05 -0.00300318 0)
(3.36109e-05 -0.00300956 0)
(2.1084e-05 -0.00301345 0)
(8.00295e-06 -0.0030149 0)
(-5.38649e-06 -0.00301388 0)
(-1.85863e-05 -0.00301041 0)
(-3.16034e-05 -0.00300448 0)
(-4.76694e-05 -0.00299683 0)
(-7.58272e-05 -0.00298913 0)
(-0.000109401 -0.00297595 0)
(5.23359e-08 -7.94798e-05 0)
(3.28847e-06 -0.000235727 0)
(9.90903e-06 -0.000388406 0)
(1.95146e-05 -0.000536793 0)
(3.14019e-05 -0.000680349 0)
(4.49535e-05 -0.000818679 0)
(5.96634e-05 -0.000951505 0)
(7.51025e-05 -0.00107864 0)
(9.09004e-05 -0.00119999 0)
(0.000106737 -0.00131551 0)
(0.00012234 -0.00142522 0)
(0.000137479 -0.00152917 0)
(0.000151964 -0.00162746 0)
(0.000165638 -0.00172019 0)
(0.000178375 -0.00180749 0)
(0.000190078 -0.00188953 0)
(0.000200673 -0.00196644 0)
(0.000210107 -0.00203839 0)
(0.000218348 -0.00210554 0)
(0.000225378 -0.00216805 0)
(0.000231196 -0.00222608 0)
(0.00023581 -0.00227978 0)
(0.000239242 -0.0023293 0)
(0.000241521 -0.00237478 0)
(0.000242682 -0.00241636 0)
(0.000242767 -0.00245416 0)
(0.000241824 -0.00248831 0)
(0.000239898 -0.00251893 0)
(0.000237043 -0.00254613 0)
(0.000233306 -0.00257001 0)
(0.000228742 -0.00259068 0)
(0.000223392 -0.00260825 0)
(0.000217309 -0.00262283 0)
(0.000210525 -0.00263453 0)
(0.000203084 -0.00264346 0)
(0.000195005 -0.00264977 0)
(0.000186319 -0.0026536 0)
(0.000177029 -0.00265513 0)
(0.000167152 -0.00265455 0)
(0.000156666 -0.00265211 0)
(0.000145556 -0.00264808 0)
(0.000133744 -0.00264282 0)
(0.000121234 -0.0026367 0)
(0.000108273 -0.00263022 0)
(9.55983e-05 -0.00262392 0)
(8.25146e-05 -0.00261868 0)
(6.0821e-05 -0.00261599 0)
(9.05744e-06 -0.00261701 0)
(-4.87497e-05 -0.00262222 0)
(-8.41649e-05 -0.00263579 0)
(2.1077e-06 -0.000140716 0)
(1.3612e-05 -0.000392966 0)
(3.25408e-05 -0.000621249 0)
(5.66657e-05 -0.000827828 0)
(8.40669e-05 -0.00101473 0)
(0.000113353 -0.0011838 0)
(0.000143483 -0.0013367 0)
(0.000173639 -0.00147498 0)
(0.000203173 -0.00160005 0)
(0.000231585 -0.00171319 0)
(0.000258492 -0.00181559 0)
(0.000283619 -0.00190832 0)
(0.000306768 -0.00199235 0)
(0.000327812 -0.00206856 0)
(0.000346676 -0.00213774 0)
(0.000363333 -0.00220063 0)
(0.000377787 -0.00225786 0)
(0.000390074 -0.00231003 0)
(0.000400245 -0.00235766 0)
(0.000408375 -0.00240121 0)
(0.000414542 -0.00244111 0)
(0.000418838 -0.00247771 0)
(0.000421353 -0.00251134 0)
(0.000422181 -0.00254228 0)
(0.000421407 -0.00257077 0)
(0.000419117 -0.002597 0)
(0.000415375 -0.00262114 0)
(0.000410247 -0.00264332 0)
(0.00040376 -0.00266364 0)
(0.000395942 -0.00268214 0)
(0.000386766 -0.00269888 0)
(0.000376202 -0.00271384 0)
(0.000364138 -0.002727 0)
(0.000350459 -0.00273828 0)
(0.000334931 -0.00274761 0)
(0.000317314 -0.00275486 0)
(0.000297198 -0.00275988 0)
(0.000274156 -0.00276251 0)
(0.000247522 -0.00276255 0)
(0.000216587 -0.00275978 0)
(0.000180315 -0.00275398 0)
(0.000137703 -0.00274489 0)
(8.74935e-05 -0.0027323 0)
(2.81522e-05 -0.00271596 0)
(-4.47818e-05 -0.0026957 0)
(-0.000141877 -0.00267144 0)
(-0.000266611 -0.0026429 0)
(-0.000387393 -0.0026044 0)
(-0.000464471 -0.00258972 0)
(-0.000642927 -0.00269934 0)
(6.98002e-05 -0.000215629 0)
(0.000201262 -0.000578245 0)
(0.000307075 -0.000880584 0)
(0.000391514 -0.00113275 0)
(0.000458564 -0.00134307 0)
(0.000511013 -0.0015184 0)
(0.000550801 -0.00166449 0)
(0.000579542 -0.00178612 0)
(0.000598653 -0.00188735 0)
(0.000609376 -0.00197153 0)
(0.000612779 -0.00204151 0)
(0.000609783 -0.00209964 0)
(0.000601181 -0.00214791 0)
(0.000587657 -0.00218798 0)
(0.000569802 -0.00222122 0)
(0.000548127 -0.00224877 0)
(0.000523074 -0.0022716 0)
(0.000495026 -0.00229047 0)
(0.000464316 -0.00230601 0)
(0.000431235 -0.00231872 0)
(0.000396041 -0.002329 0)
(0.000358958 -0.00233712 0)
(0.000320193 -0.00234327 0)
(0.00027993 -0.00234755 0)
(0.000238347 -0.00234995 0)
(0.000195607 -0.00235039 0)
(0.000151881 -0.00234868 0)
(0.000107331 -0.00234452 0)
(6.21438e-05 -0.00233751 0)
(1.6504e-05 -0.00232712 0)
(-2.93617e-05 -0.00231264 0)
(-7.52194e-05 -0.00229323 0)
(-0.000120769 -0.00226779 0)
(-0.000165695 -0.00223505 0)
(-0.000209582 -0.00219335 0)
(-0.000251986 -0.00214083 0)
(-0.00029232 -0.00207504 0)
(-0.000329951 -0.00199328 0)
(-0.000364043 -0.00189195 0)
(-0.000393684 -0.00176715 0)
(-0.000417675 -0.00161364 0)
(-0.000434714 -0.00142583 0)
(-0.000443148 -0.00119607 0)
(-0.000441203 -0.000916398 0)
(-0.000426307 -0.000575707 0)
(-0.000394404 -0.000162351 0)
(-0.000339415 0.000340843 0)
(-0.000261481 0.000950639 0)
(-0.000191786 0.00167544 0)
(-0.000153069 0.0029403 0)
(-0.00602631 0.00621746 0)
(-0.00685148 0.00451012 0)
(-0.00769262 0.00279606 0)
(-0.00854996 0.00107386 0)
(-0.00942403 -0.000657993 0)
(-0.0103155 -0.00239939 0)
(-0.0112245 -0.0041487 0)
(-0.0121521 -0.0059045 0)
(-0.0130975 -0.00766506 0)
(-0.0140595 -0.00942772 0)
(-0.0150383 -0.0111899 0)
(-0.0160335 -0.0129492 0)
(-0.017044 -0.014703 0)
(-0.0180681 -0.0164487 0)
(-0.0191038 -0.0181828 0)
(-0.0201488 -0.0199012 0)
(-0.0212007 -0.0215995 0)
(-0.0222569 -0.0232726 0)
(-0.0233148 -0.0249151 0)
(-0.0243721 -0.026522 0)
(-0.0254267 -0.0280883 0)
(-0.0264767 -0.0296097 0)
(-0.0275206 -0.0310828 0)
(-0.0285575 -0.0325053 0)
(-0.029587 -0.0338764 0)
(-0.0306094 -0.0351967 0)
(-0.0316254 -0.0364688 0)
(-0.0326361 -0.0376965 0)
(-0.0336434 -0.0388854 0)
(-0.0346495 -0.0400426 0)
(-0.0356569 -0.0411759 0)
(-0.0366685 -0.0422946 0)
(-0.0376874 -0.0434085 0)
(-0.0387168 -0.0445276 0)
(-0.0397599 -0.0456622 0)
(-0.0408199 -0.0468222 0)
(-0.0419001 -0.048017 0)
(-0.0430031 -0.0492551 0)
(-0.0441317 -0.0505443 0)
(-0.045288 -0.051891 0)
(-0.046474 -0.0533001 0)
(-0.0476914 -0.0547752 0)
(-0.0489406 -0.0563187 0)
(-0.0502227 -0.057932 0)
(-0.051538 -0.0596132 0)
(-0.0528857 -0.0613601 0)
(-0.0542656 -0.0631708 0)
(-0.0556768 -0.065041 0)
(-0.0571191 -0.0669658 0)
(-0.0585898 -0.0689388 0)
(0.0113084 0.0197834 0)
(0.0100374 0.0180201 0)
(0.0087564 0.0162704 0)
(0.00746675 0.014537 0)
(0.00616907 0.0128216 0)
(0.00486361 0.0111269 0)
(0.00355092 0.00945125 0)