/*--------------------------------*- C++ -*----------------------------------*\
| =========                 |                                                 |
| \\      /  F ield         | OpenFOAM: The Open Source CFD Toolbox           |
|  \\    /   O peration     | Version:  2.4.0                                 |
|   \\  /    A nd           | Web:      www.OpenFOAM.org                      |
|    \\/     M anipulation  |                                                 |
\*---------------------------------------------------------------------------*/
FoamFile
{
    version     2.0;
    format      ascii;
    class       volScalarField;
    location    "1.4";
    object      p;
}
// * * * * * * * * * * * * * * * * * * * * * * * * * * * * * * * * * * * * * //

dimensions      [1 -1 -2 0 0 0 0];

internalField   nonuniform List<scalar> 
8000
(
-0.851484
-0.855516
-0.859657
-0.863251
-0.866363
-0.869103
-0.8715
-0.873558
-0.87527
-0.87664
-0.877659
-0.87833
-0.878629
-0.878534
-0.878036
-0.877353
-0.877007
-0.876684
-0.870686
-0.84515
-0.80848
-0.904958
-1.48605
-2.32503
-0.988582
-0.94279
-0.942403
-0.942493
-0.942531
-0.942532
-0.942526
-0.942522
-0.942519
-0.942517
-0.942514
-0.942511
-0.942507
-0.942504
-0.9425
-0.942496
-0.942492
-0.942488
-0.942484
-0.942479
-0.942474
-0.942469
-0.942464
-0.942459
-0.942453
-0.942447
-0.934289
-0.936979
-0.939942
-0.942732
-0.945364
-0.947903
-0.950366
-0.952758
-0.955075
-0.957324
-0.9595
-0.961613
-0.963645
-0.965599
-0.96748
-0.96948
-0.971909
-0.974271
-0.972117
-0.957169
-0.943128
-1.04258
-1.46067
-1.87743
-0.969889
-0.966158
-0.965946
-0.966007
-0.966031
-0.966029
-0.966023
-0.966017
-0.966013
-0.966009
-0.966004
-0.966
-0.965995
-0.96599
-0.965985
-0.96598
-0.965975
-0.965969
-0.965963
-0.965958
-0.965952
-0.965945
-0.965939
-0.965932
-0.965926
-0.965919
-1.0289
-1.02846
-1.02834
-1.02869
-1.02947
-1.03068
-1.03227
-1.03427
-1.03667
-1.03947
-1.04268
-1.04631
-1.05036
-1.05484
-1.0598
-1.06541
-1.07186
-1.07838
-1.08106
-1.07576
-1.08314
-1.20129
-1.53013
-1.61556
-0.990224
-0.989423
-0.98949
-0.98953
-0.989535
-0.98953
-0.989526
-0.989522
-0.989519
-0.989516
-0.989512
-0.989508
-0.989504
-0.9895
-0.989495
-0.989491
-0.989485
-0.98948
-0.989474
-0.989469
-0.989462
-0.989456
-0.98945
-0.989443
-0.989436
-0.989428
-0.996055
-0.997903
-0.999984
-1.00195
-1.00379
-1.00555
-1.00724
-1.00886
-1.0104
-1.01187
-1.01326
-1.01456
-1.01574
-1.01681
-1.01792
-1.01958
-1.02171
-1.01977
-1.00083
-0.96679
-1.03438
-1.53182
-2.38639
-1.28933
-1.01352
-1.01295
-1.01306
-1.0131
-1.0131
-1.01309
-1.01309
-1.01308
-1.01308
-1.01307
-1.01307
-1.01306
-1.01305
-1.01305
-1.01304
-1.01304
-1.01303
-1.01302
-1.01301
-1.01301
-1.013
-1.01299
-1.01298
-1.01297
-1.01297
-1.01296
-0.923436
-0.92752
-0.931592
-0.935032
-0.937946
-0.940441
-0.942557
-0.944286
-0.945637
-0.946598
-0.947179
-0.947356
-0.94712
-0.946458
-0.945576
-0.944893
-0.944065
-0.938051
-0.915421
-0.885702
-0.976128
-1.47368
-2.16411
-1.05171
-1.03695
-1.03659
-1.03667
-1.03671
-1.03671
-1.0367
-1.03669
-1.03669
-1.03669
-1.03668
-1.03668
-1.03667
-1.03666
-1.03666
-1.03665
-1.03664
-1.03664
-1.03663
-1.03662
-1.03661
-1.03661
-1.0366
-1.03659
-1.03658
-1.03657
-1.03656
-1.10926
-1.10823
-1.10753
-1.10736
-1.10765
-1.10837
-1.10952
-1.1111
-1.11313
-1.11559
-1.11852
-1.1219
-1.12576
-1.1301
-1.13511
-1.14099
-1.14729
-1.15057
-1.14529
-1.1445
-1.23585
-1.55359
-1.79918
-1.06149
-1.06024
-1.06025
-1.06029
-1.0603
-1.0603
-1.06029
-1.06028
-1.06028
-1.06027
-1.06027
-1.06026
-1.06026
-1.06025
-1.06024
-1.06024
-1.06023
-1.06022
-1.06021
-1.0602
-1.0602
-1.06019
-1.06018
-1.06017
-1.06016
-1.06015
-1.06013
-1.09454
-1.09348
-1.09254
-1.09184
-1.09136
-1.09107
-1.09098
-1.09107
-1.09137
-1.09187
-1.09257
-1.09347
-1.09457
-1.09595
-1.09787
-1.10031
-1.10119
-1.09429
-1.07981
-1.11131
-1.34711
-1.76888
-1.32637
-1.08449
-1.08391
-1.08403
-1.08407
-1.08407
-1.08406
-1.08406
-1.08405
-1.08405
-1.08404
-1.08404
-1.08403
-1.08403
-1.08402
-1.08401
-1.084
-1.08399
-1.08399
-1.08398
-1.08397
-1.08396
-1.08395
-1.08393
-1.08392
-1.08391
-1.0839
-1.08389
-0.953619
-0.952725
-0.951249
-0.949573
-0.94782
-0.946005
-0.944116
-0.942162
-0.940139
-0.938057
-0.935895
-0.933642
-0.931285
-0.929027
-0.927327
-0.925927
-0.919738
-0.896322
-0.862835
-0.948639
-1.46698
-2.25307
-1.11478
-1.10791
-1.10764
-1.10772
-1.10775
-1.10774
-1.10774
-1.10773
-1.10772
-1.10772
-1.10771
-1.1077
-1.1077
-1.10769
-1.10768
-1.10767
-1.10766
-1.10765
-1.10764
-1.10763
-1.10762
-1.10761
-1.10759
-1.10758
-1.10757
-1.10755
-1.10754
-1.10752
-1.16419
-1.15483
-1.14541
-1.1374
-1.13063
-1.12488
-1.12008
-1.11624
-1.11338
-1.1115
-1.11061
-1.11069
-1.11178
-1.11398
-1.1176
-1.1223
-1.12489
-1.1188
-1.11234
-1.18762
-1.50381
-1.83107
-1.13251
-1.13159
-1.13172
-1.13176
-1.13175
-1.13174
-1.13174
-1.13173
-1.13173
-1.13172
-1.13171
-1.1317
-1.1317
-1.13169
-1.13168
-1.13167
-1.13165
-1.13164
-1.13163
-1.13162
-1.1316
-1.13159
-1.13157
-1.13156
-1.13154
-1.13152
-1.1315
-1.13148
-0.878587
-0.865888
-0.85215
-0.839864
-0.82905
-0.819392
-0.810804
-0.80327
-0.796831
-0.791479
-0.787255
-0.784151
-0.782287
-0.781841
-0.782986
-0.784418
-0.781831
-0.773509
-0.792562
-0.949877
-1.27965
-1.312
-1.15586
-1.15534
-1.15552
-1.15551
-1.1555
-1.1555
-1.15549
-1.15549
-1.15548
-1.15548
-1.15547
-1.15546
-1.15545
-1.15544
-1.15543
-1.15542
-1.15541
-1.15539
-1.15538
-1.15537
-1.15535
-1.15533
-1.15532
-1.1553
-1.15528
-1.15526
-1.15524
-1.15522
-0.641115
-0.62407
-0.606025
-0.590015
-0.575876
-0.563191
-0.551817
-0.541764
-0.533044
-0.525675
-0.519646
-0.515014
-0.512028
-0.511317
-0.512596
-0.510271
-0.490575
-0.462234
-0.570126
-1.15212
-2.31848
-1.18172
-1.17976
-1.17984
-1.17988
-1.17988
-1.17987
-1.17987
-1.17986
-1.17985
-1.17984
-1.17983
-1.17982
-1.17981
-1.1798
-1.17978
-1.17977
-1.17975
-1.17973
-1.17971
-1.17969
-1.17967
-1.17965
-1.17963
-1.1796
-1.17958
-1.17955
-1.17952
-1.1795
-1.17947
-0.0761139
-0.0657846
-0.0537921
-0.040931
-0.026818
-0.0113147
0.00576031
0.0243178
0.0445785
0.0664419
0.0902129
0.115486
0.142186
0.170263
0.205473
0.26011
0.329571
0.291599
-0.161802
-1.21269
-1.52535
-1.20659
-1.20375
-1.20378
-1.20382
-1.20383
-1.20384
-1.20384
-1.20383
-1.20383
-1.20382
-1.20381
-1.2038
-1.20379
-1.20377
-1.20376
-1.20374
-1.20372
-1.2037
-1.20368
-1.20366
-1.20364
-1.20361
-1.20358
-1.20356
-1.20353
-1.2035
-1.20347
-1.20343
-1.2034
0.823095
0.817913
0.816458
0.819521
0.82687
0.83799
0.853188
0.872147
0.895402
0.922415
0.953427
0.986646
1.02357
1.074
1.16757
1.29629
1.20071
0.0440749
-2.5478
-1.59351
-1.26157
-1.23146
-1.22829
-1.22881
-1.22903
-1.22903
-1.22898
-1.22894
-1.2289
-1.22887
-1.22883
-1.22879
-1.22875
-1.22872
-1.22868
-1.22863
-1.22859
-1.22855
-1.22851
-1.22847
-1.22843
-1.22838
-1.22834
-1.22829
-1.22824
-1.2282
-1.22815
-1.2281
-1.22804
-1.22799
-0.171515
-0.168477
-0.167467
-0.169067
-0.172967
-0.179066
-0.187285
-0.197814
-0.210952
-0.227845
-0.248472
-0.266086
-0.258638
-0.219648
-0.312913
-1.12107
-3.22352
-3.85826
-2.31288
-1.25465
-1.25149
-1.25322
-1.25338
-1.25337
-1.25333
-1.2533
-1.25327
-1.25324
-1.25321
-1.25318
-1.25313
-1.25309
-1.25272
-1.25303
-1.25299
-1.25287
-1.25289
-1.25283
-1.25245
-1.25282
-1.25281
-1.25275
-1.25269
-1.25263
-1.25257
-1.2525
-1.25243
-1.25208
-1.25231
-1.25226
-0.077932
-0.102734
-0.128317
-0.147023
-0.157688
-0.161311
-0.157888
-0.148728
-0.132878
-0.104679
-0.0436142
0.0539134
0.0423222
-0.594416
-2.67291
-6.07637
-4.3545
-1.33959
-1.25848
-1.28048
-1.27805
-1.27813
-1.27828
-1.27828
-1.27823
-1.27819
-1.27815
-1.27811
-1.27808
-1.27805
-1.278
-1.27761
-1.27807
-1.27813
-1.27807
-1.27801
-1.27794
-1.27762
-1.27779
-1.27772
-1.27759
-1.27782
-1.27777
-1.27769
-1.27736
-1.27752
-1.27743
-1.27734
-1.27725
-1.27716
1.19008
1.14177
1.10282
1.07951
1.0694
1.06986
1.07975
1.10479
1.17282
1.31777
1.40729
0.755798
-1.80757
-7.60377
-5.60768
-1.38735
-1.24757
-1.3107
-1.30361
-1.30468
-1.30505
-1.30498
-1.30484
-1.30471
-1.30461
-1.3045
-1.3044
-1.3043
-1.30421
-1.30411
-1.30401
-1.30391
-1.30381
-1.30371
-1.30342
-1.30352
-1.30343
-1.30332
-1.30302
-1.30312
-1.30303
-1.30292
-1.3028
-1.30269
-1.30257
-1.30224
-1.30233
-1.30223
-1.30211
-1.30199
-5.44051
-5.47852
-5.53281
-5.59349
-5.65983
-5.7297
-5.78687
-5.79747
-5.80989
-6.2442
-7.95542
-11.9747
-7.21011
-1.34927
-1.17522
-1.33741
-1.33033
-1.33268
-1.33294
-1.33273
-1.33257
-1.33246
-1.33236
-1.33223
-1.33207
-1.33191
-1.33174
-1.33156
-1.33137
-1.33118
-1.33099
-1.3308
-1.3306
-1.3304
-1.3302
-1.33001
-1.32981
-1.32961
-1.32942
-1.32922
-1.32903
-1.32883
-1.32864
-1.32845
-1.32826
-1.32806
-1.32787
-1.32768
-1.32728
-1.3273
-4.27247
-4.40324
-4.54246
-4.67169
-4.78381
-4.85779
-4.90866
-5.17024
-6.25168
-8.04298
-5.1685
-1.79317
-1.37784
-1.35936
-1.35775
-1.36038
-1.36025
-1.35984
-1.35971
-1.35963
-1.35914
-1.35945
-1.35926
-1.35902
-1.3588
-1.35854
-1.3583
-1.35802
-1.35774
-1.35746
-1.35718
-1.3569
-1.35663
-1.35635
-1.35607
-1.3558
-1.35552
-1.35526
-1.35499
-1.35472
-1.35436
-1.35421
-1.35397
-1.35372
-1.35346
-1.35311
-1.35298
-1.35277
-1.35253
-1.35228
-8.04196
-8.18355
-8.34464
-8.48226
-8.5507
-8.59848
-9.17119
-11.4974
-14.2838
-4.42133
-1.41115
-1.38778
-1.38558
-1.38698
-1.38679
-1.38652
-1.38636
-1.386
-1.38589
-1.38586
-1.38562
-1.38516
-1.38498
-1.38467
-1.38437
-1.38407
-1.38377
-1.38348
-1.38319
-1.3829
-1.38261
-1.38231
-1.38202
-1.38173
-1.38143
-1.38113
-1.38084
-1.38054
-1.38024
-1.37994
-1.37964
-1.37934
-1.37904
-1.37873
-1.37833
-1.37815
-1.37787
-1.37758
-1.37714
-1.37702
-12.0855
-12.0684
-12.0732
-12.0999
-12.1159
-12.1426
-12.5191
-14.0834
-16.2708
-7.36172
-4.21636
-1.52157
-1.45296
-1.42146
-1.42344
-1.41863
-1.41509
-1.41492
-1.41514
-1.41493
-1.41462
-1.41442
-1.41421
-1.41393
-1.41355
-1.41309
-1.4126
-1.41209
-1.41155
-1.41101
-1.41046
-1.40993
-1.40939
-1.40886
-1.40834
-1.40782
-1.40731
-1.40681
-1.40632
-1.40585
-1.40538
-1.40492
-1.40448
-1.40405
-1.40362
-1.40321
-1.40281
-1.40242
-1.40204
-1.40166
-0.942441
-0.942435
-0.942429
-0.942422
-0.942416
-0.942409
-0.942402
-0.942395
-0.942387
-0.94238
-0.942372
-0.942364
-0.942356
-0.942348
-0.942339
-0.942331
-0.942322
-0.942313
-0.942304
-0.942295
-0.942286
-0.942276
-0.942266
-0.942256
-0.942246
-0.942236
-0.942226
-0.942215
-0.942205
-0.942194
-0.942183
-0.942172
-0.942161
-0.942149
-0.942138
-0.942126
-0.942114
-0.942102
-0.94209
-0.942078
-0.942066
-0.942053
-0.94204
-0.942028
-0.942015
-0.942002
-0.941988
-0.941975
-0.941962
-0.941948
-0.965912
-0.965904
-0.965897
-0.965889
-0.965881
-0.965873
-0.965865
-0.965857
-0.965848
-0.965839
-0.96583
-0.965821
-0.965812
-0.965803
-0.965793
-0.965783
-0.965773
-0.965763
-0.965753
-0.965742
-0.965731
-0.965721
-0.965709
-0.965698
-0.965687
-0.965675
-0.965664
-0.965652
-0.96564
-0.965627
-0.965615
-0.965602
-0.96559
-0.965577
-0.965564
-0.965551
-0.965537
-0.965524
-0.96551
-0.965496
-0.965483
-0.965468
-0.965454
-0.96544
-0.965425
-0.965411
-0.965396
-0.965381
-0.965366
-0.965351
-0.989421
-0.989413
-0.989405
-0.989397
-0.989388
-0.989379
-0.98937
-0.989361
-0.989352
-0.989342
-0.989332
-0.989322
-0.989312
-0.989301
-0.989291
-0.98928
-0.989269
-0.989257
-0.989246
-0.989234
-0.989222
-0.98921
-0.989197
-0.989185
-0.989172
-0.989159
-0.989146
-0.989132
-0.989119
-0.989105
-0.989091
-0.989077
-0.989063
-0.989048
-0.989033
-0.989018
-0.989003
-0.988988
-0.988973
-0.988957
-0.988942
-0.988926
-0.98891
-0.988893
-0.988877
-0.98886
-0.988844
-0.988827
-0.98881
-0.988793
-1.01295
-1.01294
-1.01293
-1.01292
-1.01291
-1.0129
-1.01289
-1.01288
-1.01287
-1.01285
-1.01284
-1.01283
-1.01282
-1.01281
-1.01279
-1.01278
-1.01277
-1.01276
-1.01274
-1.01273
-1.01271
-1.0127
-1.01269
-1.01267
-1.01266
-1.01264
-1.01263
-1.01261
-1.0126
-1.01258
-1.01257
-1.01255
-1.01253
-1.01252
-1.0125
-1.01248
-1.01247
-1.01245
-1.01243
-1.01241
-1.0124
-1.01238
-1.01236
-1.01234
-1.01232
-1.01231
-1.01229
-1.01227
-1.01225
-1.01223
-1.03655
-1.03654
-1.03653
-1.03652
-1.03651
-1.03649
-1.03648
-1.03647
-1.03646
-1.03645
-1.03643
-1.03642
-1.03641
-1.03639
-1.03638
-1.03636
-1.03635
-1.03633
-1.03632
-1.0363
-1.03629
-1.03627
-1.03626
-1.03624
-1.03622
-1.0362
-1.03619
-1.03617
-1.03615
-1.03613
-1.03612
-1.0361
-1.03608
-1.03606
-1.03604
-1.03602
-1.036
-1.03598
-1.03596
-1.03594
-1.03592
-1.0359
-1.03588
-1.03586
-1.03584
-1.03582
-1.0358
-1.03577
-1.03575
-1.03573
-1.06012
-1.06011
-1.0601
-1.06009
-1.06007
-1.06006
-1.06005
-1.06003
-1.06002
-1.06001
-1.05999
-1.05998
-1.05996
-1.05994
-1.05993
-1.05991
-1.0599
-1.05988
-1.05986
-1.05984
-1.05983
-1.05981
-1.05979
-1.05977
-1.05975
-1.05973
-1.05971
-1.0597
-1.05968
-1.05965
-1.05963
-1.05961
-1.05959
-1.05957
-1.05955
-1.05953
-1.05951
-1.05948
-1.05946
-1.05944
-1.05942
-1.05939
-1.05937
-1.05935
-1.05932
-1.0593
-1.05927
-1.05925
-1.05922
-1.0592
-1.08387
-1.08386
-1.08384
-1.08383
-1.08381
-1.0838
-1.08378
-1.08377
-1.08375
-1.08373
-1.08371
-1.0837
-1.08368
-1.08366
-1.08364
-1.08362
-1.0836
-1.08358
-1.08356
-1.08354
-1.08352
-1.0835
-1.08347
-1.08345
-1.08343
-1.08341
-1.08338
-1.08336
-1.08334
-1.08331
-1.08329
-1.08326
-1.08324
-1.08321
-1.08319
-1.08316
-1.08314
-1.08311
-1.08308
-1.08306
-1.08303
-1.083
-1.08297
-1.08295
-1.08292
-1.08289
-1.08286
-1.08283
-1.0828
-1.08278
-1.10751
-1.10749
-1.10748
-1.10746
-1.10744
-1.10743
-1.10741
-1.10739
-1.10737
-1.10735
-1.10733
-1.10731
-1.10729
-1.10727
-1.10725
-1.10723
-1.10721
-1.10718
-1.10716
-1.10714
-1.10711
-1.10709
-1.10707
-1.10704
-1.10702
-1.10699
-1.10696
-1.10694
-1.10691
-1.10688
-1.10686
-1.10683
-1.1068
-1.10677
-1.10675
-1.10672
-1.10669
-1.10666
-1.10663
-1.1066
-1.10657
-1.10654
-1.10651
-1.10647
-1.10644
-1.10641
-1.10638
-1.10635
-1.10632
-1.10628
-1.13147
-1.13145
-1.13143
-1.1314
-1.13138
-1.13136
-1.13134
-1.13131
-1.13129
-1.13127
-1.13124
-1.13122
-1.13119
-1.13116
-1.13114
-1.13111
-1.13108
-1.13105
-1.13102
-1.13099
-1.13096
-1.13093
-1.1309
-1.13087
-1.13084
-1.13081
-1.13078
-1.13074
-1.13071
-1.13068
-1.13064
-1.13061
-1.13057
-1.13054
-1.1305
-1.13047
-1.13043
-1.1304
-1.13036
-1.13032
-1.13029
-1.13025
-1.13021
-1.13017
-1.13014
-1.1301
-1.13006
-1.13002
-1.12998
-1.12994
-1.1552
-1.15518
-1.15516
-1.15513
-1.15511
-1.15508
-1.15506
-1.15503
-1.15501
-1.15498
-1.15495
-1.15492
-1.1549
-1.15487
-1.15484
-1.1548
-1.15477
-1.15474
-1.15471
-1.15468
-1.15464
-1.15461
-1.15458
-1.15454
-1.15451
-1.15447
-1.15443
-1.1544
-1.15436
-1.15432
-1.15428
-1.15425
-1.15421
-1.15417
-1.15413
-1.15409
-1.15405
-1.15401
-1.15397
-1.15392
-1.15388
-1.15384
-1.1538
-1.15376
-1.15371
-1.15367
-1.15363
-1.15358
-1.15354
-1.1535
-1.17944
-1.17941
-1.17938
-1.17934
-1.17931
-1.17928
-1.17924
-1.17921
-1.17917
-1.17913
-1.17909
-1.17906
-1.17902
-1.17898
-1.17894
-1.17889
-1.17885
-1.17881
-1.17877
-1.17872
-1.17868
-1.17863
-1.17859
-1.17854
-1.1785
-1.17845
-1.1784
-1.17836
-1.17831
-1.17826
-1.17821
-1.17816
-1.17811
-1.17806
-1.17801
-1.17796
-1.17791
-1.17786
-1.17781
-1.17776
-1.17771
-1.17766
-1.1776
-1.17755
-1.1775
-1.17745
-1.17739
-1.17734
-1.17729
-1.17723
-1.20337
-1.20333
-1.2033
-1.20326
-1.20322
-1.20318
-1.20314
-1.2031
-1.20306
-1.20302
-1.20298
-1.20293
-1.20289
-1.20284
-1.20279
-1.20275
-1.2027
-1.20265
-1.2026
-1.20255
-1.2025
-1.20245
-1.2024
-1.20235
-1.20229
-1.20224
-1.20219
-1.20213
-1.20208
-1.20202
-1.20197
-1.20191
-1.20185
-1.2018
-1.20174
-1.20168
-1.20162
-1.20156
-1.20151
-1.20145
-1.20139
-1.20133
-1.20127
-1.20121
-1.20115
-1.20109
-1.20103
-1.20097
-1.20091
-1.20085
-1.22794
-1.22788
-1.22783
-1.22777
-1.22772
-1.22766
-1.2276
-1.22754
-1.22748
-1.22742
-1.22736
-1.22729
-1.22723
-1.22717
-1.2271
-1.22704
-1.22697
-1.2269
-1.22684
-1.22677
-1.2267
-1.22663
-1.22656
-1.22649
-1.22642
-1.22635
-1.22628
-1.22621
-1.22614
-1.22607
-1.22599
-1.22592
-1.22585
-1.22578
-1.22571
-1.22563
-1.22556
-1.22549
-1.22541
-1.22534
-1.22527
-1.2252
-1.22512
-1.22505
-1.22498
-1.2249
-1.22483
-1.22475
-1.22468
-1.22461
-1.2522
-1.25184
-1.25207
-1.25208
-1.252
-1.25194
-1.25187
-1.25179
-1.25171
-1.25163
-1.25155
-1.25146
-1.25138
-1.25102
-1.25121
-1.25115
-1.25109
-1.25098
-1.25093
-1.25085
-1.25076
-1.25068
-1.2506
-1.2505
-1.25042
-1.25034
-1.25025
-1.25017
-1.25008
-1.24999
-1.24987
-1.24982
-1.24973
-1.24965
-1.24956
-1.24947
-1.24938
-1.2493
-1.24919
-1.24913
-1.24904
-1.24896
-1.24887
-1.24878
-1.2487
-1.24861
-1.24853
-1.24844
-1.24835
-1.24827
-1.27681
-1.277
-1.27695
-1.27686
-1.2765
-1.27666
-1.27656
-1.27646
-1.27609
-1.27626
-1.27615
-1.27605
-1.27594
-1.27581
-1.27551
-1.2754
-1.27533
-1.27495
-1.27514
-1.27508
-1.27497
-1.27488
-1.27477
-1.27462
-1.27455
-1.27445
-1.27434
-1.27423
-1.27412
-1.274
-1.27357
-1.27378
-1.27367
-1.27357
-1.27346
-1.27336
-1.27326
-1.27316
-1.27279
-1.27299
-1.2729
-1.27281
-1.2727
-1.2726
-1.2725
-1.2724
-1.27229
-1.27212
-1.27208
-1.27198
-1.30186
-1.30174
-1.30162
-1.30149
-1.30137
-1.30109
-1.30111
-1.30099
-1.30086
-1.30054
-1.30042
-1.3003
-1.29994
-1.30004
-1.29994
-1.29981
-1.29943
-1.29956
-1.29947
-1.29934
-1.29899
-1.2991
-1.29899
-1.29884
-1.29843
-1.29857
-1.29846
-1.29832
-1.29793
-1.2978
-1.29777
-1.29727
-1.29763
-1.29749
-1.29725
-1.29718
-1.29704
-1.29661
-1.29686
-1.29673
-1.29648
-1.29642
-1.29603
-1.29624
-1.29613
-1.29599
-1.29585
-1.29571
-1.29535
-1.29548
-1.32711
-1.32691
-1.32651
-1.32653
-1.32634
-1.32615
-1.32597
-1.32578
-1.32559
-1.3254
-1.32521
-1.3248
-1.32487
-1.32472
-1.32453
-1.32412
-1.3242
-1.32406
-1.32388
-1.32346
-1.32329
-1.32317
-1.32274
-1.32285
-1.32273
-1.32255
-1.32238
-1.32195
-1.32179
-1.32172
-1.32132
-1.3215
-1.32143
-1.32125
-1.32108
-1.32091
-1.32057
-1.32064
-1.32056
-1.32038
-1.32022
-1.31988
-1.31995
-1.31987
-1.31971
-1.31955
-1.31938
-1.31922
-1.31906
-1.31891
-1.35183
-1.35159
-1.35141
-1.35096
-1.351
-1.35083
-1.35059
-1.35035
-1.34992
-1.34996
-1.34977
-1.34955
-1.34931
-1.34909
-1.34886
-1.34864
-1.34842
-1.34803
-1.34805
-1.34792
-1.34771
-1.34732
-1.34735
-1.34721
-1.347
-1.34681
-1.3466
-1.3464
-1.3462
-1.346
-1.3458
-1.34561
-1.34541
-1.34522
-1.34503
-1.34484
-1.34466
-1.34447
-1.34429
-1.34411
-1.34393
-1.34376
-1.34358
-1.34341
-1.34324
-1.34307
-1.3429
-1.34274
-1.34257
-1.34241
-1.37676
-1.37647
-1.37604
-1.37579
-1.37554
-1.37514
-1.37503
-1.37477
-1.37449
-1.37422
-1.37395
-1.37368
-1.37341
-1.37315
-1.37289
-1.37263
-1.37237
-1.37211
-1.37186
-1.37161
-1.37136
-1.37112
-1.37088
-1.37064
-1.3704
-1.37017
-1.36993
-1.3697
-1.36948
-1.36925
-1.36903
-1.36881
-1.36859
-1.36838
-1.36817
-1.36796
-1.36775
-1.36755
-1.36735
-1.36715
-1.36696
-1.36676
-1.36657
-1.36638
-1.3662
-1.36601
-1.36583
-1.36565
-1.36548
-1.36531
-1.4013
-1.40094
-1.40059
-1.40024
-1.3999
-1.39957
-1.39925
-1.39893
-1.39861
-1.3983
-1.39799
-1.39768
-1.39738
-1.39709
-1.3968
-1.39651
-1.39622
-1.39594
-1.39567
-1.39539
-1.39512
-1.39485
-1.39459
-1.39432
-1.39406
-1.3938
-1.39354
-1.39328
-1.39302
-1.39277
-1.39251
-1.39226
-1.392
-1.39176
-1.39151
-1.39127
-1.39103
-1.39079
-1.39056
-1.39033
-1.3901
-1.38988
-1.38966
-1.38944
-1.38923
-1.38902
-1.38881
-1.3886
-1.3884
-1.3882
-0.941938
-0.941931
-0.941924
-0.941917
-0.94191
-0.941902
-0.941895
-0.941887
-0.94188
-0.941872
-0.941864
-0.941856
-0.941848
-0.94184
-0.941832
-0.941824
-0.941816
-0.941807
-0.941799
-0.94179
-0.941782
-0.941773
-0.941764
-0.941755
-0.941746
-0.941737
-0.941728
-0.941718
-0.941709
-0.9417
-0.94169
-0.94168
-0.941671
-0.941661
-0.941651
-0.941641
-0.94163
-0.94162
-0.94161
-0.941599
-0.941589
-0.941578
-0.941567
-0.941557
-0.941546
-0.941535
-0.941524
-0.941512
-0.941501
-0.941489
-0.941478
-0.941466
-0.941454
-0.941443
-0.941431
-0.941419
-0.941406
-0.941394
-0.941382
-0.941369
-0.941357
-0.941344
-0.941331
-0.941318
-0.941305
-0.941292
-0.941279
-0.941265
-0.941252
-0.941238
-0.941225
-0.941211
-0.941197
-0.941183
-0.941169
-0.941155
-0.94114
-0.941126
-0.941111
-0.941096
-0.941082
-0.941067
-0.941052
-0.941037
-0.941021
-0.941006
-0.940991
-0.940975
-0.940959
-0.940944
-0.940928
-0.940912
-0.940896
-0.940879
-0.940863
-0.940846
-0.94083
-0.940813
-0.940796
-0.940779
-0.940762
-0.940745
-0.940728
-0.940711
-0.940693
-0.940676
-0.940658
-0.94064
-0.940622
-0.940604
-0.940586
-0.940568
-0.94055
-0.940531
-0.940513
-0.940494
-0.940475
-0.940456
-0.940437
-0.940418
-0.940399
-0.94038
-0.94036
-0.940341
-0.940321
-0.940302
-0.940282
-0.940262
-0.940242
-0.940222
-0.940202
-0.940181
-0.940161
-0.94014
-0.94012
-0.940099
-0.940078
-0.940058
-0.940037
-0.940016
-0.939994
-0.939973
-0.939952
-0.93993
-0.939909
-0.939887
-0.939866
-0.939844
-0.939822
-0.9398
-0.939778
-0.939756
-0.939734
-0.939712
-0.93969
-0.939667
-0.939645
-0.939622
-0.9396
-0.939577
-0.939554
-0.939532
-0.939509
-0.939486
-0.939463
-0.93944
-0.939417
-0.939394
-0.93937
-0.939347
-0.939324
-0.939301
-0.939277
-0.939254
-0.93923
-0.939207
-0.939183
-0.93916
-0.939136
-0.939112
-0.939089
-0.939065
-0.939041
-0.939018
-0.938994
-0.93897
-0.938946
-0.938922
-0.938899
-0.938875
-0.938851
-0.938827
-0.938803
-0.938779
-0.938755
-0.938732
-0.938708
-0.938684
-0.93866
-0.938636
-0.938613
-0.938589
-0.938565
-0.938541
-0.938518
-0.938494
-0.93847
-0.938447
-0.938423
-0.9384
-0.938376
-0.938353
-0.93833
-0.938306
-0.938283
-0.93826
-0.938237
-0.938214
-0.938191
-0.938168
-0.938145
-0.938122
-0.9381
-0.938077
-0.938055
-0.938033
-0.93801
-0.937988
-0.937966
-0.937944
-0.937923
-0.937901
-0.937879
-0.937858
-0.937837
-0.937816
-0.937795
-0.937774
-0.937753
-0.937733
-0.937712
-0.937692
-0.937672
-0.937652
-0.937633
-0.937613
-0.937594
-0.937575
-0.937556
-0.937537
-0.937519
-0.9375
-0.937482
-0.937465
-0.937447
-0.93743
-0.937413
-0.937396
-0.937379
-0.937363
-0.937347
-0.937331
-0.937315
-0.9373
-0.937285
-0.93727
-0.937256
-0.937241
-0.937228
-0.937214
-0.937201
-0.937188
-0.937175
-0.937163
-0.937151
-0.93714
-0.937129
-0.937118
-0.937108
-0.937098
-0.937088
-0.937079
-0.93707
-0.937061
-0.937053
-0.937046
-0.937038
-0.937032
-0.937025
-0.937019
-0.937014
-0.937009
-0.937004
-0.937
-0.936997
-0.936994
-0.936991
-0.936989
-0.936988
-0.936987
-0.965339
-0.965331
-0.965323
-0.965315
-0.965307
-0.965299
-0.96529
-0.965282
-0.965273
-0.965265
-0.965256
-0.965247
-0.965238
-0.965229
-0.96522
-0.965211
-0.965202
-0.965193
-0.965183
-0.965173
-0.965164
-0.965154
-0.965144
-0.965134
-0.965124
-0.965114
-0.965104
-0.965093
-0.965083
-0.965072
-0.965062
-0.965051
-0.96504
-0.965029
-0.965018
-0.965007
-0.964996
-0.964984
-0.964973
-0.964961
-0.964949
-0.964938
-0.964926
-0.964914
-0.964902
-0.964889
-0.964877
-0.964865
-0.964852
-0.964839
-0.964826
-0.964814
-0.964801
-0.964787
-0.964774
-0.964761
-0.964747
-0.964734
-0.96472
-0.964706
-0.964692
-0.964678
-0.964664
-0.96465
-0.964635
-0.964621
-0.964606
-0.964592
-0.964577
-0.964562
-0.964547
-0.964531
-0.964516
-0.964501
-0.964485
-0.964469
-0.964454
-0.964438
-0.964422
-0.964406
-0.964389
-0.964373
-0.964356
-0.96434
-0.964323
-0.964306
-0.964289
-0.964272
-0.964255
-0.964237
-0.96422
-0.964202
-0.964185
-0.964167
-0.964149
-0.964131
-0.964113
-0.964095
-0.964076
-0.964058
-0.964039
-0.96402
-0.964001
-0.963982
-0.963963
-0.963944
-0.963925
-0.963905
-0.963886
-0.963866
-0.963846
-0.963826
-0.963806
-0.963786
-0.963766
-0.963745
-0.963725
-0.963704
-0.963684
-0.963663
-0.963642
-0.963621
-0.9636
-0.963579
-0.963557
-0.963536
-0.963514
-0.963493
-0.963471
-0.963449
-0.963427
-0.963405
-0.963383
-0.96336
-0.963338
-0.963316
-0.963293
-0.96327
-0.963248
-0.963225
-0.963202
-0.963179
-0.963156
-0.963133
-0.963109
-0.963086
-0.963062
-0.963039
-0.963015
-0.962992
-0.962968
-0.962944
-0.96292
-0.962896
-0.962872
-0.962848
-0.962823
-0.962799
-0.962775
-0.96275
-0.962726
-0.962701
-0.962677
-0.962652
-0.962627
-0.962602
-0.962578
-0.962553
-0.962528
-0.962503
-0.962478
-0.962453
-0.962427
-0.962402
-0.962377
-0.962352
-0.962326
-0.962301
-0.962276
-0.96225
-0.962225
-0.9622
-0.962174
-0.962149
-0.962123
-0.962098
-0.962072
-0.962047
-0.962021
-0.961996
-0.96197
-0.961945
-0.961919
-0.961894
-0.961868
-0.961843
-0.961817
-0.961792
-0.961766
-0.961741
-0.961715
-0.96169
-0.961665
-0.961639
-0.961614
-0.961589
-0.961564
-0.961539
-0.961514
-0.961489
-0.961464
-0.961439
-0.961414
-0.961389
-0.961364
-0.96134
-0.961315
-0.961291
-0.961266
-0.961242
-0.961218
-0.961194
-0.96117
-0.961146
-0.961122
-0.961099
-0.961075
-0.961052
-0.961028
-0.961005
-0.960982
-0.960959
-0.960936
-0.960914
-0.960891
-0.960869
-0.960847
-0.960825
-0.960803
-0.960781
-0.96076
-0.960738
-0.960717
-0.960696
-0.960676
-0.960655
-0.960635
-0.960615
-0.960595
-0.960575
-0.960555
-0.960536
-0.960517
-0.960498
-0.96048
-0.960462
-0.960444
-0.960426
-0.960408
-0.960391
-0.960374
-0.960357
-0.960341
-0.960325
-0.960309
-0.960294
-0.960279
-0.960264
-0.960249
-0.960235
-0.960221
-0.960208
-0.960195
-0.960182
-0.960169
-0.960157
-0.960146
-0.960134
-0.960123
-0.960113
-0.960103
-0.960093
-0.960084
-0.960075
-0.960067
-0.960059
-0.960051
-0.960044
-0.960037
-0.960031
-0.960026
-0.96002
-0.960016
-0.960012
-0.960008
-0.960005
-0.960002
-0.96
-0.959999
-0.959998
-0.98878
-0.988771
-0.988762
-0.988753
-0.988744
-0.988735
-0.988725
-0.988716
-0.988706
-0.988696
-0.988687
-0.988677
-0.988667
-0.988656
-0.988646
-0.988636
-0.988625
-0.988615
-0.988604
-0.988593
-0.988583
-0.988572
-0.98856
-0.988549
-0.988538
-0.988526
-0.988515
-0.988503
-0.988491
-0.98848
-0.988468
-0.988455
-0.988443
-0.988431
-0.988418
-0.988406
-0.988393
-0.98838
-0.988367
-0.988354
-0.988341
-0.988328
-0.988314
-0.988301
-0.988287
-0.988274
-0.98826
-0.988246
-0.988232
-0.988217
-0.988203
-0.988188
-0.988174
-0.988159
-0.988144
-0.988129
-0.988114
-0.988099
-0.988084
-0.988068
-0.988053
-0.988037
-0.988021
-0.988005
-0.987989
-0.987973
-0.987956
-0.98794
-0.987923
-0.987907
-0.98789
-0.987873
-0.987856
-0.987838
-0.987821
-0.987804
-0.987786
-0.987768
-0.98775
-0.987732
-0.987714
-0.987696
-0.987678
-0.987659
-0.987641
-0.987622
-0.987603
-0.987584
-0.987565
-0.987546
-0.987526
-0.987507
-0.987487
-0.987467
-0.987448
-0.987428
-0.987407
-0.987387
-0.987367
-0.987346
-0.987326
-0.987305
-0.987284
-0.987263
-0.987242
-0.987221
-0.9872
-0.987178
-0.987157
-0.987135
-0.987113
-0.987091
-0.987069
-0.987047
-0.987025
-0.987002
-0.98698
-0.986957
-0.986934
-0.986912
-0.986889
-0.986866
-0.986842
-0.986819
-0.986796
-0.986772
-0.986749
-0.986725
-0.986701
-0.986677
-0.986653
-0.986629
-0.986605
-0.986581
-0.986556
-0.986532
-0.986507
-0.986482
-0.986458
-0.986433
-0.986408
-0.986383
-0.986357
-0.986332
-0.986307
-0.986282
-0.986256
-0.98623
-0.986205
-0.986179
-0.986153
-0.986127
-0.986101
-0.986075
-0.986049
-0.986023
-0.985997
-0.985971
-0.985944
-0.985918
-0.985891
-0.985865
-0.985838
-0.985812
-0.985785
-0.985758
-0.985731
-0.985705
-0.985678
-0.985651
-0.985624
-0.985597
-0.98557
-0.985543
-0.985516
-0.985488
-0.985461
-0.985434
-0.985407
-0.98538
-0.985352
-0.985325
-0.985298
-0.985271
-0.985243
-0.985216
-0.985189
-0.985161
-0.985134
-0.985107
-0.985079
-0.985052
-0.985025
-0.984998
-0.98497
-0.984943
-0.984916
-0.984889
-0.984862
-0.984835
-0.984808
-0.98478
-0.984754
-0.984727
-0.9847
-0.984673
-0.984646
-0.984619
-0.984593
-0.984566
-0.98454
-0.984513
-0.984487
-0.984461
-0.984434
-0.984408
-0.984382
-0.984356
-0.98433
-0.984305
-0.984279
-0.984254
-0.984228
-0.984203
-0.984178
-0.984153
-0.984128
-0.984103
-0.984078
-0.984054
-0.984029
-0.984005
-0.983981
-0.983957
-0.983934
-0.98391
-0.983887
-0.983863
-0.98384
-0.983817
-0.983795
-0.983772
-0.98375
-0.983728
-0.983706
-0.983685
-0.983663
-0.983642
-0.983621
-0.9836
-0.98358
-0.983559
-0.98354
-0.98352
-0.9835
-0.983481
-0.983462
-0.983443
-0.983425
-0.983407
-0.983389
-0.983372
-0.983355
-0.983338
-0.983321
-0.983305
-0.983289
-0.983274
-0.983258
-0.983243
-0.983229
-0.983215
-0.983201
-0.983188
-0.983175
-0.983162
-0.98315
-0.983138
-0.983127
-0.983116
-0.983105
-0.983095
-0.983085
-0.983076
-0.983067
-0.983059
-0.983051
-0.983044
-0.983037
-0.983031
-0.983025
-0.98302
-0.983015
-0.983011
-0.983007
-0.983004
-0.983001
-0.982999
-0.982997
-0.982996
-1.01221
-1.0122
-1.01219
-1.01218
-1.01217
-1.01216
-1.01215
-1.01214
-1.01213
-1.01212
-1.01211
-1.0121
-1.01209
-1.01208
-1.01206
-1.01205
-1.01204
-1.01203
-1.01202
-1.012
-1.01199
-1.01198
-1.01197
-1.01196
-1.01194
-1.01193
-1.01192
-1.0119
-1.01189
-1.01188
-1.01186
-1.01185
-1.01184
-1.01182
-1.01181
-1.0118
-1.01178
-1.01177
-1.01175
-1.01174
-1.01172
-1.01171
-1.01169
-1.01168
-1.01166
-1.01165
-1.01163
-1.01162
-1.0116
-1.01159
-1.01157
-1.01155
-1.01154
-1.01152
-1.0115
-1.01149
-1.01147
-1.01145
-1.01144
-1.01142
-1.0114
-1.01139
-1.01137
-1.01135
-1.01133
-1.01131
-1.0113
-1.01128
-1.01126
-1.01124
-1.01122
-1.0112
-1.01119
-1.01117
-1.01115
-1.01113
-1.01111
-1.01109
-1.01107
-1.01105
-1.01103
-1.01101
-1.01099
-1.01097
-1.01095
-1.01093
-1.01091
-1.01089
-1.01087
-1.01084
-1.01082
-1.0108
-1.01078
-1.01076
-1.01074
-1.01072
-1.01069
-1.01067
-1.01065
-1.01063
-1.0106
-1.01058
-1.01056
-1.01054
-1.01051
-1.01049
-1.01047
-1.01044
-1.01042
-1.01039
-1.01037
-1.01035
-1.01032
-1.0103
-1.01027
-1.01025
-1.01023
-1.0102
-1.01018
-1.01015
-1.01013
-1.0101
-1.01008
-1.01005
-1.01003
-1.01
-1.00997
-1.00995
-1.00992
-1.0099
-1.00987
-1.00984
-1.00982
-1.00979
-1.00977
-1.00974
-1.00971
-1.00969
-1.00966
-1.00963
-1.0096
-1.00958
-1.00955
-1.00952
-1.0095
-1.00947
-1.00944
-1.00941
-1.00938
-1.00936
-1.00933
-1.0093
-1.00927
-1.00925
-1.00922
-1.00919
-1.00916
-1.00913
-1.0091
-1.00908
-1.00905
-1.00902
-1.00899
-1.00896
-1.00893
-1.0089
-1.00888
-1.00885
-1.00882
-1.00879
-1.00876
-1.00873
-1.0087
-1.00867
-1.00864
-1.00861
-1.00859
-1.00856
-1.00853
-1.0085
-1.00847
-1.00844
-1.00841
-1.00838
-1.00835
-1.00832
-1.00829
-1.00826
-1.00824
-1.00821
-1.00818
-1.00815
-1.00812
-1.00809
-1.00806
-1.00803
-1.008
-1.00797
-1.00795
-1.00792
-1.00789
-1.00786
-1.00783
-1.0078
-1.00777
-1.00774
-1.00772
-1.00769
-1.00766
-1.00763
-1.0076
-1.00758
-1.00755
-1.00752
-1.00749
-1.00746
-1.00744
-1.00741
-1.00738
-1.00735
-1.00733
-1.0073
-1.00727
-1.00725
-1.00722
-1.00719
-1.00717
-1.00714
-1.00712
-1.00709
-1.00706
-1.00704
-1.00701
-1.00699
-1.00696
-1.00694