/*--------------------------------*- C++ -*----------------------------------*\
| =========                 |                                                 |
| \\      /  F ield         | OpenFOAM: The Open Source CFD Toolbox           |
|  \\    /   O peration     | Version:  2.4.0                                 |
|   \\  /    A nd           | Web:      www.OpenFOAM.org                      |
|    \\/     M anipulation  |                                                 |
\*---------------------------------------------------------------------------*/
FoamFile
{
    version     2.0;
    format      ascii;
    class       volScalarField;
    location    "0.2";
    object      alpha1;
}
// * * * * * * * * * * * * * * * * * * * * * * * * * * * * * * * * * * * * * //

dimensions      [0 0 0 0 0 0 0];

internalField   nonuniform List<scalar> 
125
(
1
1
1
1
1
1
1
1
1
1
1
1
1
1
1
1
1
1
1
1
1
1
1
1
1
0.21171
0.211724
0.211727
0.211734
0.211704
7.15104e-185
1.18544e-180
7.30056e-179
6.99078e-183
4.4234e-187
1.55379e-192
5.06298e-188
1.06673e-183
1.14355e-187
8.0013e-192
7.81793e-198
3.13978e-193
7.45363e-189
8.79641e-193
6.62599e-197
1.70825e-204
7.31805e-200
1.71442e-195
2.18871e-199
1.73998e-203
3.07719e-211
1.38741e-206
3.19535e-202
4.36146e-206
3.61098e-210
7.15982e-218
3.35165e-213
7.56837e-209
1.09369e-212
9.3385e-217
5.26256e-226
2.53443e-221
5.60388e-217
8.50425e-221
7.43235e-225
5.30626e-235
2.62579e-230
5.69906e-226
9.01772e-230
8.02029e-234
0
0
0
0
0
0
0
0
0
0
0
0
0
0
0
0
0
0
0
0
0
0
0
0
0
0
0
0
0
0
0
0
0
0
0
0
0
0
0
0
0
0
0
0
0
0
0
0
0
0
0
0
0
0
0
)
;

boundaryField
{
    BotWall
    {
        type            fixedValue;
        value           uniform 1;
    }
    FreeStream
    {
        type            inletOutlet;
        inletValue      nonuniform 0();
        value           nonuniform 0();
    }
    FrontNBack
    {
        type            empty;
    }
    LeftSide
    {
        type            symmetryPlane;
    }
    RightSide
    {
        type            symmetryPlane;
    }
    procBoundary0to1
    {
        type            processor;
        value           uniform 0;
    }
}


// ************************************************************************* //
