/*--------------------------------*- C++ -*----------------------------------*\
| =========                 |                                                 |
| \\      /  F ield         | OpenFOAM: The Open Source CFD Toolbox           |
|  \\    /   O peration     | Version:  2.4.0                                 |
|   \\  /    A nd           | Web:      www.OpenFOAM.org                      |
|    \\/     M anipulation  |                                                 |
\*---------------------------------------------------------------------------*/
FoamFile
{
    version     2.0;
    format      ascii;
    class       volScalarField;
    location    "0.2";
    object      H;
}
// * * * * * * * * * * * * * * * * * * * * * * * * * * * * * * * * * * * * * //

dimensions      [0 2 -2 0 0 0 0];

internalField   nonuniform List<scalar> 
125
(
-11252.9
-11252.9
-11252.9
-11252.9
-11252.9
-9286.49
-9286.48
-9286.48
-9286.47
-9286.49
-7294.09
-7294.07
-7294.07
-7294.06
-7294.1
-5272.64
-5272.62
-5272.61
-5272.6
-5272.65
-3219.05
-3219.03
-3219.02
-3219.01
-3219.06
-155.323
-155.313
-155.311
-155.307
-155.327
-118.462
-118.455
-118.453
-118.45
-118.465
-120
-119.993
-119.991
-119.988
-120.003
-121.298
-121.29
-121.289
-121.285
-121.3
-122.351
-122.344
-122.342
-122.339
-122.354
-123.158
-123.151
-123.149
-123.146
-123.161
-123.717
-123.71
-123.708
-123.705
-123.72
-124.027
-124.02
-124.019
-124.015
-124.03
-124.089
-124.082
-124.081
-124.077
-124.091
-123.903
-123.897
-123.895
-123.892
-123.906
-123.473
-123.467
-123.465
-123.462
-123.476
-122.802
-122.796
-122.794
-122.791
-122.804
-121.894
-121.888
-121.886
-121.883
-121.896
-120.755
-120.749
-120.747
-120.744
-120.756
-119.391
-119.385
-119.384
-119.381
-119.392
-117.81
-117.805
-117.803
-117.8
-117.812
-116.021
-116.016
-116.015
-116.012
-116.023
-114.034
-114.029
-114.028
-114.025
-114.035
-111.858
-111.854
-111.853
-111.85
-111.86
-109.506
-109.502
-109.501
-109.499
-109.507
)
;

boundaryField
{
    BotWall
    {
        type            zeroGradient;
    }
    FreeStream
    {
        type            zeroGradient;
    }
    FrontNBack
    {
        type            empty;
    }
    LeftSide
    {
        type            symmetryPlane;
    }
    RightSide
    {
        type            symmetryPlane;
    }
    procBoundary0to1
    {
        type            processor;
        value           nonuniform List<scalar> 5(-106.985 -106.981 -106.98 -106.978 -106.986);
    }
}


// ************************************************************************* //
