/*--------------------------------*- C++ -*----------------------------------*\
| =========                 |                                                 |
| \\      /  F ield         | OpenFOAM: The Open Source CFD Toolbox           |
|  \\    /   O peration     | Version:  2.4.0                                 |
|   \\  /    A nd           | Web:      www.OpenFOAM.org                      |
|    \\/     M anipulation  |                                                 |
\*---------------------------------------------------------------------------*/
FoamFile
{
    version     2.0;
    format      ascii;
    class       volScalarField;
    location    "0.2";
    object      T;
}
// * * * * * * * * * * * * * * * * * * * * * * * * * * * * * * * * * * * * * //

dimensions      [0 0 0 1 0 0 0];

internalField   nonuniform List<scalar> 
125
(
293.399
293.399
293.399
293.399
293.399
294.203
294.203
294.203
294.203
294.203
295.018
295.018
295.018
295.018
295.018
295.844
295.844
295.844
295.844
295.844
296.684
296.684
296.684
296.684
296.684
297.936
297.936
297.936
297.936
297.936
297.935
297.935
297.935
297.935
297.935
297.934
297.934
297.934
297.934
297.934
297.933
297.933
297.933
297.933
297.933
297.933
297.933
297.933
297.933
297.933
297.932
297.932
297.932
297.932
297.932
297.932
297.932
297.932
297.932
297.932
297.932
297.932
297.932
297.932
297.932
297.932
297.932
297.932
297.932
297.932
297.932
297.932
297.932
297.932
297.932
297.932
297.932
297.932
297.932
297.932
297.932
297.932
297.932
297.932
297.932
297.933
297.933
297.933
297.933
297.933
297.934
297.934
297.934
297.934
297.934
297.934
297.934
297.934
297.934
297.934
297.935
297.935
297.935
297.935
297.935
297.936
297.936
297.936
297.936
297.936
297.937
297.937
297.937
297.937
297.937
297.939
297.939
297.939
297.939
297.939
297.94
297.94
297.94
297.94
297.94
)
;

boundaryField
{
    BotWall
    {
        type            fixedValue;
        value           uniform 293;
    }
    FreeStream
    {
        type            fixedValue;
        value           nonuniform 0();
    }
    FrontNBack
    {
        type            empty;
    }
    LeftSide
    {
        type            symmetryPlane;
    }
    RightSide
    {
        type            symmetryPlane;
    }
    procBoundary0to1
    {
        type            processor;
        value           nonuniform List<scalar> 5(297.941 297.941 297.941 297.941 297.941);
    }
}


// ************************************************************************* //
