/*--------------------------------*- C++ -*----------------------------------*\
| =========                 |                                                 |
| \\      /  F ield         | OpenFOAM: The Open Source CFD Toolbox           |
|  \\    /   O peration     | Version:  2.4.0                                 |
|   \\  /    A nd           | Web:      www.OpenFOAM.org                      |
|    \\/     M anipulation  |                                                 |
\*---------------------------------------------------------------------------*/
FoamFile
{
    version     2.0;
    format      ascii;
    class       volVectorField;
    location    "0.2";
    object      U;
}
// * * * * * * * * * * * * * * * * * * * * * * * * * * * * * * * * * * * * * //

dimensions      [0 1 -1 0 0 0 0];

internalField   nonuniform List<vector> 
125
(
(3.6973e-10 -5.89066e-08 0)
(4.27895e-10 -5.85129e-08 0)
(1.97939e-10 -5.85163e-08 0)
(-5.35061e-10 -5.85275e-08 0)
(-6.74108e-10 -5.88978e-08 0)
(1.11902e-09 4.04462e-06 0)
(1.29354e-09 4.04687e-06 0)
(5.94879e-10 4.04691e-06 0)
(-1.61663e-09 4.04699e-06 0)
(-2.03486e-09 4.04456e-06 0)
(1.90152e-09 2.05951e-05 0)
(2.1934e-09 2.05992e-05 0)
(9.97757e-10 2.05995e-05 0)
(-2.73696e-09 2.06e-05 0)
(-3.43944e-09 2.05947e-05 0)
(2.69949e-09 1.89303e-05 0)
(3.11013e-09 1.89293e-05 0)
(1.41053e-09 1.89297e-05 0)
(-3.88226e-09 1.89305e-05 0)
(-4.87773e-09 1.89297e-05 0)
(3.42602e-09 -8.97057e-05 0)
(3.95801e-09 -8.97261e-05 0)
(1.82937e-09 -8.97268e-05 0)
(-4.96136e-09 -8.97288e-05 0)
(-6.25367e-09 -8.97043e-05 0)
(4.08918e-09 -0.000707587 0)
(4.76769e-09 -0.000707639 0)
(2.33597e-09 -0.000707645 0)
(-6.05281e-09 -0.000707661 0)
(-7.705e-09 -0.000707575 0)
(4.46696e-09 -0.00339626 0)
(5.18965e-09 -0.00339623 0)
(2.49326e-09 -0.00339623 0)
(-6.56947e-09 -0.00339623 0)
(-8.33475e-09 -0.00339626 0)
(4.87069e-09 -0.00778125 0)
(1.70154e-09 -0.00778122 0)
(-5.26753e-09 -0.00778122 0)
(-1.69138e-08 -0.00778122 0)
(-1.4814e-08 -0.00778125 0)
(2.50154e-09 -0.00441887 0)
(-4.53806e-09 -0.00441897 0)
(-1.30592e-08 -0.00441897 0)
(-2.40612e-08 -0.00441898 0)
(-1.80448e-08 -0.00441886 0)
(1.12325e-09 -0.00412809 0)
(-9.71314e-09 -0.0041281 0)
(-2.06637e-08 -0.0041281 0)
(-3.19344e-08 -0.00412811 0)
(-2.21158e-08 -0.00412808 0)
(1.96241e-10 -0.00422776 0)
(-1.43582e-08 -0.00422775 0)
(-2.80714e-08 -0.00422775 0)
(-3.99988e-08 -0.00422776 0)
(-2.64967e-08 -0.00422776 0)
(-7.38271e-10 -0.00431896 0)
(-1.89334e-08 -0.00431896 0)
(-3.5288e-08 -0.00431896 0)
(-4.77849e-08 -0.00431897 0)
(-3.07141e-08 -0.00431896 0)
(-1.74302e-09 -0.0043343 0)
(-2.35016e-08 -0.00433431 0)
(-4.23155e-08 -0.00433431 0)
(-5.52234e-08 -0.00433432 0)
(-3.46965e-08 -0.0043343 0)
(-2.73516e-09 -0.00432935 0)
(-2.79788e-08 -0.00432936 0)
(-4.91515e-08 -0.00432937 0)
(-6.23944e-08 -0.00432937 0)
(-3.85253e-08 -0.00432935 0)
(-3.67435e-09 -0.00432579 0)
(-3.2323e-08 -0.0043258 0)
(-5.57928e-08 -0.0043258 0)
(-6.93363e-08 -0.00432581 0)
(-4.22407e-08 -0.00432579 0)
(-4.56041e-09 -0.00432517 0)
(-3.65328e-08 -0.00432518 0)
(-6.22369e-08 -0.00432519 0)
(-7.60477e-08 -0.00432519 0)
(-4.58424e-08 -0.00432518 0)
(-5.40041e-09 -0.00432538 0)
(-4.0614e-08 -0.00432539 0)
(-6.84816e-08 -0.00432539 0)
(-8.252e-08 -0.0043254 0)
(-4.93229e-08 -0.00432538 0)
(-6.19746e-09 -0.00432552 0)
(-4.45686e-08 -0.00432553 0)
(-7.45248e-08 -0.00432553 0)
(-8.87488e-08 -0.00432554 0)
(-5.26785e-08 -0.00432553 0)
(-6.95216e-09 -0.00432555 0)
(-4.8396e-08 -0.00432556 0)
(-8.03649e-08 -0.00432556 0)
(-9.47323e-08 -0.00432557 0)
(-5.59082e-08 -0.00432555 0)
(-7.66505e-09 -0.00432554 0)
(-5.20956e-08 -0.00432555 0)
(-8.60006e-08 -0.00432555 0)
(-1.0047e-07 -0.00432556 0)
(-5.9011e-08 -0.00432555 0)
(-8.33715e-09 -0.00432553 0)
(-5.56676e-08 -0.00432554 0)
(-9.14306e-08 -0.00432554 0)
(-1.05959e-07 -0.00432555 0)
(-6.19858e-08 -0.00432554 0)
(-8.96985e-09 -0.00432553 0)
(-5.91122e-08 -0.00432554 0)
(-9.66542e-08 -0.00432554 0)
(-1.112e-07 -0.00432555 0)
(-6.48311e-08 -0.00432554 0)
(-9.56482e-09 -0.00432553 0)
(-6.24304e-08 -0.00432554 0)
(-1.01671e-07 -0.00432554 0)
(-1.1619e-07 -0.00432555 0)
(-6.7545e-08 -0.00432554 0)
(-1.01239e-08 -0.00432553 0)
(-6.56229e-08 -0.00432554 0)
(-1.0648e-07 -0.00432554 0)
(-1.20929e-07 -0.00432555 0)
(-7.01264e-08 -0.00432555 0)
(-1.06492e-08 -0.00432553 0)
(-6.86911e-08 -0.00432554 0)
(-1.11082e-07 -0.00432554 0)
(-1.25415e-07 -0.00432555 0)
(-7.25727e-08 -0.00432555 0)
)
;

boundaryField
{
    BotWall
    {
        type            fixedValue;
        value           uniform (0 0 0);
    }
    FreeStream
    {
        type            zeroGradient;
    }
    FrontNBack
    {
        type            empty;
    }
    LeftSide
    {
        type            symmetryPlane;
    }
    RightSide
    {
        type            symmetryPlane;
    }
    procBoundary0to1
    {
        type            processor;
        value           nonuniform List<vector> 5((-1.11429e-08 -0.00432553 0) (-7.16365e-08 -0.00432554 0) (-1.15478e-07 -0.00432554 0) (-1.2965e-07 -0.00432556 0) (-7.48829e-08 -0.00432555 0));
    }
}


// ************************************************************************* //
