/*--------------------------------*- C++ -*----------------------------------*\
| =========                 |                                                 |
| \\      /  F ield         | OpenFOAM: The Open Source CFD Toolbox           |
|  \\    /   O peration     | Version:  2.4.0                                 |
|   \\  /    A nd           | Web:      www.OpenFOAM.org                      |
|    \\/     M anipulation  |                                                 |
\*---------------------------------------------------------------------------*/
FoamFile
{
    version     2.0;
    format      ascii;
    class       surfaceScalarField;
    location    "0.005";
    object      phi;
}
// * * * * * * * * * * * * * * * * * * * * * * * * * * * * * * * * * * * * * //

dimensions      [0 3 -1 0 0 0 0];

internalField   nonuniform List<scalar> 
123
(
-4.4513e-16
-3.71314e-15
-5.58546e-09
-5.58547e-09
-5.58548e-09
-5.58549e-09
-5.58551e-09
-5.58554e-09
-5.58557e-09
-5.5856e-09
-5.58564e-09
-5.58569e-09
-5.58573e-09
-5.58578e-09
-5.58584e-09
-5.58589e-09
-5.58595e-09
-5.58601e-09
-5.58607e-09
-5.58614e-09
-5.5862e-09
-5.58627e-09
-5.58634e-09
-5.58641e-09
-5.58647e-09
-5.58654e-09
-5.58662e-09
-5.58669e-09
-5.58676e-09
-5.58683e-09
-5.5869e-09
-5.58697e-09
-5.58704e-09
-5.58711e-09
-5.58718e-09
-5.58725e-09
-5.58732e-09
-5.58739e-09
-5.58745e-09
-5.58752e-09
-5.58758e-09
-5.58765e-09
-5.58771e-09
-5.58778e-09
-5.58784e-09
-5.5879e-09
-5.58796e-09
-5.58802e-09
-5.58808e-09
-5.58814e-09
-5.5882e-09
-5.58825e-09
-5.58831e-09
-5.58836e-09
-5.58842e-09
-5.58847e-09
-5.58853e-09
-5.58858e-09
-5.58863e-09
-5.58868e-09
-5.58873e-09
-5.58878e-09
-5.58883e-09
-5.58888e-09
-5.58893e-09
-5.58898e-09
-5.58903e-09
-5.58908e-09
-5.58913e-09
-5.58917e-09
-5.58922e-09
-5.58927e-09
-5.58931e-09
-5.58936e-09
-5.59405e-09
-5.59405e-09
-5.59406e-09
-5.59406e-09
-5.59406e-09
-5.59407e-09
-5.59407e-09
-5.59407e-09
-5.59408e-09
-5.59408e-09
-5.59409e-09
-5.59409e-09
-5.59409e-09
-5.5941e-09
-5.5941e-09
-5.59411e-09
-5.59411e-09
-5.59411e-09
-5.59412e-09
-5.59412e-09
-5.59413e-09
-5.59413e-09
-5.59414e-09
-5.59414e-09
-5.59415e-09
-5.59415e-09
-5.59415e-09
-5.59416e-09
-5.59416e-09
-5.59417e-09
-5.59417e-09
-5.59418e-09
-5.59418e-09
-5.59419e-09
-5.59419e-09
-5.59419e-09
-5.5942e-09
-5.5942e-09
-5.59421e-09
-5.59421e-09
-5.59421e-09
-5.59422e-09
-5.59422e-09
-5.59423e-09
-5.59423e-09
-5.59423e-09
-5.59424e-09
-5.59424e-09
-5.59425e-09
)
;

boundaryField
{
    BotWall
    {
        type            calculated;
        value           uniform -5.96018e-21;
    }
    FreeStream
    {
        type            calculated;
        value           uniform -5.59425e-09;
    }
    FrontNBack
    {
        type            empty;
        value           nonuniform 0();
    }
    LeftSide
    {
        type            symmetryPlane;
        value           nonuniform 0();
    }
    RightSide
    {
        type            symmetryPlane;
        value           uniform 0;
    }
    procBoundary9to6
    {
        type            processor;
        value           nonuniform List<scalar> 
50
(
7.31746e-14
7.35515e-14
7.3769e-14
7.38386e-14
7.37715e-14
7.35791e-14
7.32722e-14
7.28619e-14
7.23585e-14
7.17724e-14
7.11133e-14
7.03908e-14
6.96139e-14
6.87912e-14
6.79308e-14
6.70404e-14
6.61272e-14
6.51977e-14
6.42581e-14
6.33141e-14
6.23706e-14
6.14323e-14
6.05033e-14
5.95872e-14
5.86871e-14
5.78058e-14
5.69455e-14
5.61081e-14
5.5295e-14
5.45074e-14
5.37462e-14
5.30117e-14
5.23043e-14
5.16239e-14
5.09702e-14
5.0343e-14
4.97414e-14
4.91648e-14
4.86124e-14
4.80831e-14
4.75758e-14
4.70896e-14
4.66231e-14
4.61753e-14
4.57449e-14
4.53308e-14
4.49317e-14
4.45466e-14
4.41742e-14
4.38135e-14
)
;
    }
    procBoundary9to7
    {
        type            processor;
        value           nonuniform List<scalar> 
75
(
4.67582e-16
1.24894e-15
3.40851e-15
4.79573e-15
9.97067e-15
1.60239e-14
2.17585e-14
2.70828e-14
3.20479e-14
3.66925e-14
4.10258e-14
4.50509e-14
4.87723e-14
5.21963e-14
5.533e-14
5.8181e-14
6.07576e-14
6.30685e-14
6.51228e-14
6.69302e-14
6.85008e-14
6.98449e-14
7.09732e-14
7.18968e-14
7.26268e-14
3.11777e-15
3.20058e-15
3.28337e-15
3.36594e-15
3.44813e-15
3.52973e-15
3.61051e-15
3.69022e-15
3.76858e-15
3.84531e-15
3.92006e-15
3.99251e-15
4.06226e-15
4.12894e-15
4.19212e-15
4.25139e-15
4.30631e-15
4.35646e-15
4.40139e-15
4.44071e-15
4.47404e-15
4.50103e-15
4.52142e-15
4.53496e-15
4.54155e-15
4.54113e-15
4.53375e-15
4.51961e-15
4.499e-15
4.47235e-15
4.44021e-15
4.40326e-15
4.36227e-15
4.31812e-15
4.27178e-15
4.22424e-15
4.17656e-15
4.12977e-15
4.08488e-15
4.04284e-15
4.00451e-15
3.97064e-15
3.94183e-15
3.91854e-15
3.90106e-15
3.88951e-15
3.88378e-15
3.88362e-15
3.88892e-15
3.89201e-15
)
;
    }
    procBoundary9to8
    {
        type            processor;
        value           uniform -5.58941e-09;
    }
    procBoundary9to10
    {
        type            processor;
        value           uniform 5.59405e-09;
    }
    procBoundary9to11
    {
        type            processor;
        value           nonuniform List<scalar> 
75
(
-2.24487e-17
-1.57309e-16
1.19466e-16
-8.84131e-18
-6.89405e-16
-8.6801e-16
-1.05305e-15
-1.28181e-15
-1.51367e-15
-1.72775e-15
-1.92273e-15
-2.10032e-15
-2.26121e-15
-2.40545e-15
-2.53304e-15
-2.64412e-15
-2.73891e-15
-2.81771e-15
-2.88087e-15
-2.92881e-15
-2.96197e-15
-2.98089e-15
-2.9861e-15
-2.97821e-15
-2.95784e-15
-2.92564e-15
-2.8823e-15
-2.8285e-15
-2.76495e-15
-2.69238e-15
-2.6115e-15
-2.52303e-15
-2.42771e-15
-2.32623e-15
-2.2193e-15
-2.1076e-15
-1.99179e-15
-1.87253e-15
-1.75041e-15
-1.62604e-15
-1.49998e-15
-1.37276e-15
-1.24488e-15
-1.11679e-15
-9.88939e-16
-8.61716e-16
-7.35481e-16
-6.10562e-16
-4.87249e-16
-3.658e-16
-2.4644e-16
-1.2936e-16
-1.47226e-17
9.73468e-17
2.06739e-16
3.13377e-16
4.17206e-16
5.18197e-16
6.16339e-16
7.11642e-16
8.04132e-16
8.93849e-16
9.80847e-16
1.06519e-15
1.14696e-15
1.22622e-15
1.30308e-15
1.37761e-15
1.44992e-15
1.5201e-15
1.58825e-15
1.65447e-15
1.71885e-15
1.78149e-15
1.84247e-15
)
;
    }
}


// ************************************************************************* //
