/*--------------------------------*- C++ -*----------------------------------*\
| =========                 |                                                 |
| \\      /  F ield         | OpenFOAM: The Open Source CFD Toolbox           |
|  \\    /   O peration     | Version:  2.4.0                                 |
|   \\  /    A nd           | Web:      www.OpenFOAM.org                      |
|    \\/     M anipulation  |                                                 |
\*---------------------------------------------------------------------------*/
FoamFile
{
    version     2.0;
    format      ascii;
    class       volScalarField;
    location    "0.005";
    object      H;
}
// * * * * * * * * * * * * * * * * * * * * * * * * * * * * * * * * * * * * * //

dimensions      [0 2 -2 0 0 0 0];

internalField   nonuniform List<scalar> 
125
(
-10097.9
-5818.12
-165.982
-124.021
-123.584
-122.951
-122.125
-121.115
-119.925
-118.562
-117.036
-115.352
-113.521
-111.55
-109.45
-107.23
-104.898
-102.467
-99.9443
-97.3413
-94.6679
-91.9341
-89.1497
-86.3246
-83.4684
-1.38908e-09
-1.07221e-09
-7.7642e-10
-5.74648e-10
-4.64233e-10
-3.31379e-10
-2.51805e-10
-1.63452e-10
-1.49862e-10
-9.75052e-11
-4.42702e-11
-6.1795e-11
-5.04748e-11
-5.08373e-11
-4.69754e-11
-3.69262e-11
-1.21802e-12
1.69838e-13
-7.00264e-14
-1.20153e-14
-1.58656e-16
-1.12777e-16
-4.07456e-17
-2.77304e-18
-1.24846e-19
-8.85649e-20
-1.43821e-20
-8.30141e-22
-1.4948e-22
-3.94122e-23
-4.14753e-24
-3.50952e-25
-8.42335e-26
-1.45659e-26
-1.40121e-27
-1.68532e-28
-3.34811e-29
-4.9063e-30
-5.48215e-31
-7.37237e-32
-1.16527e-32
-1.61578e-33
-2.06253e-34
-2.7806e-35
-3.87614e-36
-5.2765e-37
-7.02952e-38
-9.3023e-39
-1.2389e-39
-1.65814e-40
-2.18513e-41
-2.83792e-42
-3.71087e-43
-4.85856e-44
-6.24564e-45
-7.95482e-46
-1.02021e-46
-1.30257e-47
-1.63413e-48
-2.03643e-49
-2.54683e-50
-3.16586e-51
-3.87963e-52
-4.7216e-53
-5.74388e-54
-6.94722e-55
-8.31116e-56
-9.86952e-57
-1.16817e-57
-1.37517e-58
-1.60496e-59
-1.85947e-60
-2.14399e-61
-2.45876e-62
-2.79951e-63
-3.16563e-64
-3.56013e-65
-3.98201e-66
-4.42549e-67
-4.88698e-68
-5.36614e-69
-5.85988e-70
-6.36096e-71
-6.86319e-72
-7.36301e-73
-7.85538e-74
-8.33229e-75
-8.78631e-76
-9.21216e-77
-9.60423e-78
-9.95534e-79
-1.0259e-79
-1.05108e-80
-1.07066e-81
-1.08424e-82
-1.09148e-83
-1.09228e-84
-1.08669e-85
-1.08006e-86
-1.34882e-87
)
;

boundaryField
{
    BotWall
    {
        type            zeroGradient;
    }
    FreeStream
    {
        type            zeroGradient;
    }
    FrontNBack
    {
        type            empty;
    }
    LeftSide
    {
        type            symmetryPlane;
    }
    RightSide
    {
        type            symmetryPlane;
    }
    procBoundary7to4
    {
        type            processor;
        value           nonuniform List<scalar> 
50
(
-10098.4
-5819.47
-166.238
-124.218
-123.786
-123.156
-122.334
-121.325
-120.136
-118.775
-117.247
-115.563
-113.73
-111.757
-109.653
-107.429
-105.093
-102.656
-100.129
-97.5201
-94.8405
-92.1003
-89.3092
-86.4772
-83.6139
-1.65428e-71
-1.43911e-72
1.26874e-74
-3.79054e-76
-1.68713e-75
-1.66727e-76
-3.99175e-78
-7.23536e-79
-2.04965e-79
-1.91406e-80
-1.0385e-81
-1.48393e-82
-2.43123e-83
-2.22097e-84
-1.71751e-85
-2.18504e-86
-2.75882e-87
-2.52909e-88
-2.30189e-89
-2.67748e-90
-2.94319e-91
-2.73728e-92
-2.64837e-93
-2.87733e-94
-3.75059e-95
)
;
    }
    procBoundary7to5
    {
        type            processor;
        value           nonuniform List<scalar> 
75
(
-1.44638e-09
-1.08017e-09
-8.06759e-10
-5.87649e-10
-4.59784e-10
-3.647e-10
-2.49691e-10
-1.72844e-10
-1.46067e-10
-1.09914e-10
-4.60763e-11
-5.99733e-11
-4.51459e-11
-5.05117e-11
-5.17225e-11
-4.42821e-11
3.12016e-12
7.26213e-13
-6.15676e-14
-1.36169e-14
3.32577e-16
2.26654e-17
-3.31043e-17
-3.54224e-18
-1.33154e-19
-7.12075e-20
-1.55685e-20
-1.46217e-21
-1.93393e-22
-4.21627e-23
-5.96829e-24
-7.30472e-25
-1.20093e-25
-1.82391e-26
-2.31295e-27
-3.4e-28
-5.32667e-29
-6.99158e-30
-9.03979e-31
-1.36904e-31
-1.97539e-32
-2.49794e-33
-3.30236e-34
-4.78386e-35
-6.52249e-36
-8.27136e-37
-1.08874e-37
-1.49163e-38
-1.96771e-39
-2.505e-40
-3.23659e-41
-4.24543e-42
-5.4763e-43
-6.9292e-44
-8.76828e-45
-1.11565e-45
-1.41041e-46
-1.75997e-47
-2.1843e-48
-2.71513e-49
-3.36222e-50
-4.12106e-51
-5.01919e-52
-6.10744e-53
-7.40091e-54
-8.89117e-55
-1.06159e-55
-1.2639e-56
-1.49718e-57
-1.75999e-58
-2.05644e-59
-2.39247e-60
-2.76742e-61
-3.17599e-62
-3.51392e-63
)
;
    }
    procBoundary7to6
    {
        type            processor;
        value           uniform -80.5897;
    }
    procBoundary7to8
    {
        type            processor;
        value           uniform -1.8848e-09;
    }
    procBoundary7to9
    {
        type            processor;
        value           nonuniform List<scalar> 
75
(
-10105.5
-5841
-170.395
-127.391
-127
-126.397
-125.59
-124.583
-123.384
-122.001
-120.441
-118.714
-116.829
-114.795
-112.622
-110.321
-107.903
-105.377
-102.755
-100.047
-97.2644
-94.4182
-91.5187
-88.5765
-85.602
-3.46928e-56
-2.38297e-58
3.45891e-58
-1.15902e-59
-6.8224e-60
-1.32505e-61
5.54987e-62
-2.68195e-63
-1.28629e-63
-3.60082e-65
7.46281e-66
-6.45167e-67
-2.23992e-67
-8.31787e-69
6.81065e-70
-1.40182e-70
-3.56988e-71
-1.74158e-72
-4.1912e-75
-2.8022e-74
-5.33928e-75
-3.26593e-76
-1.79369e-77
-5.14889e-78
-7.53952e-79
-5.25128e-80
-5.11314e-81
-9.37887e-82
-8.55962e-83
-5.03768e-84
-1.51221e-84
-2.12481e-85
7.99318e-87
9.10384e-88
-7.48669e-88
-5.54981e-89
1.46307e-89
4.00299e-91
-4.05047e-91
-5.23571e-93
8.14382e-93
-1.56366e-94
-1.66661e-94
6.10579e-96
2.87368e-96
-1.89393e-97
-4.74135e-98
4.11878e-99
6.36678e-100
-1.52791e-100
)
;
    }
    procBoundary7to10
    {
        type            processor;
        value           nonuniform List<scalar> 
50
(
-1.39997e-09
-1.09529e-09
-7.75466e-10
-5.84981e-10
-4.59078e-10
-3.40182e-10
-2.58214e-10
-1.64193e-10
-1.47497e-10
-1.01127e-10
-4.49971e-11
-6.08806e-11
-4.68636e-11
-5.68895e-11
-4.30333e-11
-4.02624e-11
-1.16762e-12
2.44337e-13
-6.94537e-14
-1.39523e-14
-2.18918e-16
-7.2522e-17
-4.0067e-17
-3.83453e-18
-1.91261e-19
-7.85488e-20
-1.49967e-20
-1.32466e-21
-1.94468e-22
-4.05479e-23
-4.88974e-24
-5.64593e-25
-1.10218e-25
-1.71e-26
-1.85145e-27
-2.53816e-28
-4.52991e-29
-6.35329e-30
-7.52498e-31
-1.04646e-31
-1.59115e-32
-2.16582e-33
-2.79444e-34
-3.76384e-35
-5.13901e-36
-6.88424e-37
-9.12668e-38
-1.19442e-38
-1.55059e-39
-1.95869e-40
)
;
    }
}


// ************************************************************************* //
