/*--------------------------------*- C++ -*----------------------------------*\
| =========                 |                                                 |
| \\      /  F ield         | OpenFOAM: The Open Source CFD Toolbox           |
|  \\    /   O peration     | Version:  2.4.0                                 |
|   \\  /    A nd           | Web:      www.OpenFOAM.org                      |
|    \\/     M anipulation  |                                                 |
\*---------------------------------------------------------------------------*/
FoamFile
{
    version     2.0;
    format      ascii;
    class       surfaceScalarField;
    location    "0.005";
    object      phi;
}
// * * * * * * * * * * * * * * * * * * * * * * * * * * * * * * * * * * * * * //

dimensions      [0 3 -1 0 0 0 0];

internalField   nonuniform List<scalar> 
123
(
5.31683e-16
1.9644e-15
-5.60498e-09
-5.60497e-09
-5.60496e-09
-5.60494e-09
-5.60492e-09
-5.60489e-09
-5.60485e-09
-5.60481e-09
-5.60477e-09
-5.60472e-09
-5.60467e-09
-5.60461e-09
-5.60455e-09
-5.60449e-09
-5.60442e-09
-5.60435e-09
-5.60428e-09
-5.60421e-09
-5.60414e-09
-5.60406e-09
-5.60398e-09
-5.60391e-09
-5.59309e-09
-5.59311e-09
-5.59312e-09
-5.59313e-09
-5.59314e-09
-5.59316e-09
-5.59317e-09
-5.59318e-09
-5.59319e-09
-5.59321e-09
-5.59322e-09
-5.59323e-09
-5.59324e-09
-5.59325e-09
-5.59326e-09
-5.59327e-09
-5.59328e-09
-5.59329e-09
-5.5933e-09
-5.59331e-09
-5.59332e-09
-5.59333e-09
-5.59334e-09
-5.59335e-09
-5.59336e-09
-5.59337e-09
-5.59338e-09
-5.59339e-09
-5.59339e-09
-5.5934e-09
-5.59341e-09
-5.59342e-09
-5.59342e-09
-5.59343e-09
-5.59344e-09
-5.59345e-09
-5.59345e-09
-5.59346e-09
-5.59346e-09
-5.59347e-09
-5.59348e-09
-5.59348e-09
-5.59349e-09
-5.59349e-09
-5.5935e-09
-5.5935e-09
-5.59351e-09
-5.59351e-09
-5.59351e-09
-5.59352e-09
-5.59352e-09
-5.59353e-09
-5.59353e-09
-5.59353e-09
-5.59353e-09
-5.59354e-09
-5.59354e-09
-5.59354e-09
-5.59354e-09
-5.59355e-09
-5.59355e-09
-5.59355e-09
-5.59355e-09
-5.59355e-09
-5.59355e-09
-5.59355e-09
-5.59355e-09
-5.59355e-09
-5.59355e-09
-5.59355e-09
-5.59355e-09
-5.59355e-09
-5.59355e-09
-5.59355e-09
-5.59355e-09
-5.59354e-09
-5.59354e-09
-5.59354e-09
-5.59353e-09
-5.59353e-09
-5.59352e-09
-5.59352e-09
-5.59351e-09
-5.5935e-09
-5.59349e-09
-5.59348e-09
-5.59347e-09
-5.59346e-09
-5.59345e-09
-5.59344e-09
-5.59343e-09
-5.59341e-09
-5.5934e-09
-5.59338e-09
-5.59337e-09
-5.59335e-09
-5.59334e-09
-5.59332e-09
-5.59331e-09
)
;

boundaryField
{
    BotWall
    {
        type            calculated;
        value           uniform 1.75468e-20;
    }
    FreeStream
    {
        type            calculated;
        value           uniform -5.59329e-09;
    }
    FrontNBack
    {
        type            empty;
        value           nonuniform 0();
    }
    LeftSide
    {
        type            symmetryPlane;
        value           nonuniform 0();
    }
    RightSide
    {
        type            symmetryPlane;
        value           nonuniform 0();
    }
    procBoundary7to4
    {
        type            processor;
        value           nonuniform List<scalar> 
50
(
-6.41222e-17
-1.83768e-16
-3.82167e-16
-5.25156e-16
-9.79762e-16
-1.47381e-15
-1.95047e-15
-2.40097e-15
-2.8231e-15
-3.2177e-15
-3.58514e-15
-3.92548e-15
-4.23881e-15
-4.52533e-15
-4.78538e-15
-5.0194e-15
-5.22791e-15
-5.41154e-15
-5.57101e-15
-5.70709e-15
-5.82067e-15
-5.91267e-15
-5.98407e-15
-6.03593e-15
-6.06931e-15
1.84519e-15
1.31196e-15
7.32097e-16
1.06545e-16
-5.5998e-16
-1.26523e-15
-2.00443e-15
-2.77096e-15
-3.55706e-15
-4.35398e-15
-5.15218e-15
-5.94159e-15
-6.71197e-15
-7.45323e-15
-8.15578e-15
-8.81093e-15
-9.41116e-15
-9.95041e-15
-1.04243e-14
-1.08303e-14
-1.11677e-14
-1.14376e-14
-1.16427e-14
-1.17879e-14
-1.18671e-14
)
;
    }
    procBoundary7to5
    {
        type            processor;
        value           nonuniform List<scalar> 
75
(
1.34641e-14
1.33142e-14
1.31653e-14
1.30172e-14
1.28701e-14
1.27237e-14
1.25782e-14
1.24335e-14
1.22896e-14
1.21464e-14
1.2004e-14
1.18624e-14
1.17215e-14
1.15813e-14
1.14417e-14
1.13029e-14
1.11648e-14
1.10273e-14
1.08904e-14
1.07542e-14
1.06186e-14
1.04837e-14
1.03493e-14
1.02155e-14
1.00822e-14
9.94954e-15
9.81738e-15
9.68575e-15
9.55462e-15
9.42399e-15
9.29386e-15
9.16422e-15
9.03505e-15
8.90637e-15
8.77816e-15
8.65044e-15
8.52322e-15
8.39651e-15
8.27035e-15
8.14475e-15
8.01977e-15
7.89545e-15
7.77185e-15
7.64902e-15
7.52705e-15
7.40601e-15
7.28596e-15
7.16699e-15
7.04917e-15
6.93254e-15
6.81715e-15
6.70297e-15
6.58997e-15
6.47803e-15
6.36693e-15
6.25638e-15
6.14593e-15
6.03499e-15
5.9228e-15
5.80836e-15
5.69045e-15
5.56757e-15
5.43794e-15
5.29947e-15
5.14974e-15
4.98604e-15
4.80535e-15
4.60438e-15
4.37964e-15
4.1275e-15
3.84425e-15
3.52628e-15
3.17018e-15
2.77287e-15
2.33182e-15
)
;
    }
    procBoundary7to6
    {
        type            processor;
        value           uniform -5.60383e-09;
    }
    procBoundary7to8
    {
        type            processor;
        value           uniform 5.59308e-09;
    }
    procBoundary7to9
    {
        type            processor;
        value           nonuniform List<scalar> 
75
(
-4.67582e-16
-1.24894e-15
-3.40851e-15
-4.79573e-15
-9.97067e-15
-1.60239e-14
-2.17585e-14
-2.70828e-14
-3.20479e-14
-3.66925e-14
-4.10258e-14
-4.50509e-14
-4.87723e-14
-5.21963e-14
-5.533e-14
-5.8181e-14
-6.07576e-14
-6.30685e-14
-6.51228e-14
-6.69302e-14
-6.85008e-14
-6.98449e-14
-7.09732e-14
-7.18968e-14
-7.26268e-14
-3.11777e-15
-3.20058e-15
-3.28337e-15
-3.36594e-15
-3.44813e-15
-3.52973e-15
-3.61051e-15
-3.69022e-15
-3.76858e-15
-3.84531e-15
-3.92006e-15
-3.99251e-15
-4.06226e-15
-4.12894e-15
-4.19212e-15
-4.25139e-15
-4.30631e-15
-4.35646e-15
-4.40139e-15
-4.44071e-15
-4.47404e-15
-4.50103e-15
-4.52142e-15
-4.53496e-15
-4.54155e-15
-4.54113e-15
-4.53375e-15
-4.51961e-15
-4.499e-15
-4.47235e-15
-4.44021e-15
-4.40326e-15
-4.36227e-15
-4.31812e-15
-4.27178e-15
-4.22424e-15
-4.17656e-15
-4.12977e-15
-4.08488e-15
-4.04284e-15
-4.00451e-15
-3.97064e-15
-3.94183e-15
-3.91854e-15
-3.90106e-15
-3.88951e-15
-3.88378e-15
-3.88362e-15
-3.88892e-15
-3.89201e-15
)
;
    }
    procBoundary7to10
    {
        type            processor;
        value           nonuniform List<scalar> 
50
(
3.04292e-16
2.43605e-16
1.82862e-16
1.22066e-16
6.1221e-17
3.2779e-19
-6.05548e-17
-1.21485e-16
-1.82476e-16
-2.43537e-16
-3.04679e-16
-3.65919e-16
-4.27274e-16
-4.88763e-16
-5.50409e-16
-6.12238e-16
-6.74275e-16
-7.36549e-16
-7.99093e-16
-8.61937e-16
-9.25117e-16
-9.88668e-16
-1.05263e-15
-1.11703e-15
-1.18191e-15
-1.24732e-15
-1.31328e-15
-1.37983e-15
-1.44702e-15
-1.51487e-15
-1.58342e-15
-1.6527e-15
-1.72274e-15
-1.79356e-15
-1.86519e-15
-1.93764e-15
-2.01093e-15
-2.08507e-15
-2.16006e-15
-2.2359e-15
-2.31258e-15
-2.39008e-15
-2.46838e-15
-2.54745e-15
-2.62725e-15
-2.70773e-15
-2.78883e-15
-2.87047e-15
-2.95259e-15
-3.03505e-15
)
;
    }
}


// ************************************************************************* //
