/*--------------------------------*- C++ -*----------------------------------*\
| =========                 |                                                 |
| \\      /  F ield         | OpenFOAM: The Open Source CFD Toolbox           |
|  \\    /   O peration     | Version:  2.4.0                                 |
|   \\  /    A nd           | Web:      www.OpenFOAM.org                      |
|    \\/     M anipulation  |                                                 |
\*---------------------------------------------------------------------------*/
FoamFile
{
    version     2.0;
    format      ascii;
    class       volScalarField;
    location    "2.2";
    object      p;
}
// * * * * * * * * * * * * * * * * * * * * * * * * * * * * * * * * * * * * * //

dimensions      [1 -1 -2 0 0 0 0];

internalField   nonuniform List<scalar> 
8000
(
0.25567
0.250321
0.245471
0.241645
0.238526
0.235895
0.233678
0.23184
0.230354
0.229192
0.228334
0.227762
0.22747
0.227452
0.227723
0.228308
0.229222
0.230282
0.230996
0.231574
0.237188
0.26124
0.298515
0.218067
-0.319286
-1.16128
-0.0432377
-0.0118239
-0.0114861
-0.0115676
-0.0116018
-0.0116042
-0.0116009
-0.0115993
-0.0115989
-0.0115988
-0.0115986
-0.0115983
-0.0115981
-0.0115978
-0.0115976
-0.0115974
-0.0115972
-0.011597
-0.0115968
-0.0115967
-0.0115965
-0.0115964
-0.0115962
-0.0115961
0.0438516
0.0394708
0.0346058
0.0303592
0.0268012
0.0238099
0.0213243
0.0193246
0.0178047
0.0167552
0.0161728
0.0160501
0.0163891
0.0171871
0.0184609
0.0202283
0.0224962
0.025083
0.0275658
0.030225
0.0377763
0.0614791
0.0939303
0.0163748
-0.45283
-1.12263
-0.0402543
-0.03501
-0.0347653
-0.0348325
-0.0348607
-0.0348616
-0.0348577
-0.0348554
-0.0348541
-0.0348531
-0.034852
-0.034851
-0.03485
-0.034849
-0.0348481
-0.0348472
-0.0348464
-0.0348456
-0.0348449
-0.0348441
-0.0348435
-0.0348428
-0.0348422
-0.0348416
0.0357173
0.034381
0.032976
0.0315982
0.0301986
0.0287467
0.0272404
0.0256801
0.0240682
0.022401
0.0206793
0.0188968
0.0170539
0.0151425
0.0131709
0.0111427
0.00904921
0.00670409
0.00371993
0.000392332
0.00105742
0.0155667
0.0355148
-0.0494643
-0.4866
-1.07026
-0.0598005
-0.0580625
-0.0579928
-0.0580402
-0.058057
-0.0580562
-0.0580531
-0.0580513
-0.0580501
-0.0580491
-0.0580481
-0.0580472
-0.0580462
-0.0580453
-0.0580445
-0.0580437
-0.0580429
-0.0580422
-0.0580415
-0.0580408
-0.0580402
-0.0580396
-0.058039
-0.0580385
-0.0781585
-0.0791124
-0.0802441
-0.0813544
-0.0824227
-0.0834662
-0.0844885
-0.085491
-0.0864691
-0.0874249
-0.0883545
-0.0892625
-0.0901446
-0.0910071
-0.0918375
-0.0926344
-0.0934068
-0.0943273
-0.0956861
-0.0970322
-0.0943435
-0.0800638
-0.0664461
-0.155743
-0.534576
-0.908456
-0.081809
-0.0811422
-0.081245
-0.0812867
-0.0812893
-0.0812847
-0.0812822
-0.0812812
-0.0812804
-0.0812796
-0.0812787
-0.0812778
-0.081277
-0.0812762
-0.0812754
-0.0812746
-0.0812739
-0.0812731
-0.0812724
-0.0812717
-0.081271
-0.0812704
-0.0812697
-0.0812691
-0.134583
-0.134865
-0.135211
-0.135633
-0.136143
-0.136748
-0.137444
-0.138231
-0.139106
-0.140071
-0.141121
-0.142259
-0.143479
-0.144785
-0.146163
-0.147609
-0.149135
-0.150896
-0.153106
-0.155204
-0.153459
-0.142117
-0.136025
-0.229827
-0.563216
-0.780675
-0.104922
-0.104308
-0.104427
-0.104469
-0.104471
-0.104467
-0.104465
-0.104465
-0.104465
-0.104464
-0.104464
-0.104464
-0.104464
-0.104464
-0.104463
-0.104463
-0.104463
-0.104463
-0.104463
-0.104462
-0.104462
-0.104462
-0.104462
-0.104462
-0.207672
-0.207357
-0.207138
-0.207118
-0.207288
-0.207636
-0.208153
-0.208841
-0.209697
-0.210727
-0.211925
-0.213301
-0.21485
-0.216584
-0.21849
-0.220582
-0.222883
-0.225565
-0.228746
-0.231595
-0.230397
-0.221961
-0.228518
-0.344738
-0.64376
-0.606689
-0.128146
-0.127535
-0.12766
-0.127702
-0.127703
-0.127699
-0.127697
-0.127696
-0.127696
-0.127696
-0.127695
-0.127695
-0.127694
-0.127694
-0.127693
-0.127693
-0.127692
-0.127692
-0.127691
-0.127691
-0.12769
-0.12769
-0.127689
-0.127689
-0.243715
-0.243301
-0.242999
-0.242913
-0.243025
-0.243321
-0.243791
-0.244439
-0.24526
-0.246261
-0.247436
-0.248796
-0.250334
-0.252064
-0.25397
-0.256071
-0.25841
-0.261178
-0.264398
-0.266801
-0.264252
-0.256024
-0.274768
-0.423948
-0.714105
-0.431532
-0.151279
-0.150704
-0.15083
-0.150872
-0.150874
-0.150871
-0.15087
-0.15087
-0.150871
-0.150872
-0.150872
-0.150873
-0.150873
-0.150873
-0.150874
-0.150874
-0.150874
-0.150875
-0.150875
-0.150875
-0.150875
-0.150876
-0.150876
-0.150876
-0.220141
-0.221364
-0.222629
-0.223718
-0.224642
-0.225434
-0.226104
-0.226651
-0.227073
-0.227369
-0.227536
-0.227573
-0.227475
-0.227228
-0.2268
-0.226191
-0.225626
-0.225742
-0.226362
-0.22143
-0.194634
-0.150792
-0.244878
-0.893326
-1.93709
-0.27027
-0.174518
-0.173972
-0.174099
-0.174145
-0.174145
-0.174138
-0.174134
-0.174131
-0.174129
-0.174127
-0.174125
-0.174123
-0.174122
-0.17412
-0.174118
-0.174117
-0.174115
-0.174114
-0.174113
-0.174111
-0.17411
-0.174109
-0.174108
-0.174107
-0.231725
-0.233616
-0.235543
-0.237175
-0.23854
-0.239689
-0.240641
-0.241396
-0.241954
-0.242314
-0.242479
-0.242444
-0.24221
-0.241762
-0.241078
-0.240158
-0.239209
-0.238747
-0.238532
-0.233245
-0.209514
-0.173978
-0.261348
-0.809196
-1.62816
-0.20485
-0.197475
-0.197192
-0.19727
-0.197301
-0.197302
-0.197298
-0.197296
-0.197295
-0.197294
-0.197293
-0.197293
-0.197292
-0.197292
-0.197291
-0.197291
-0.19729
-0.19729
-0.19729
-0.197289
-0.197289
-0.197289
-0.197289
-0.197289
-0.197289
-0.31699
-0.317378
-0.317876
-0.318407
-0.318961
-0.319546
-0.320167
-0.320824
-0.321521
-0.322258
-0.323039
-0.323866
-0.324744
-0.325667
-0.326622
-0.327623
-0.328857
-0.33077
-0.333097
-0.331212
-0.313959
-0.288649
-0.373474
-0.849107
-1.49697
-0.221731
-0.220449
-0.220453
-0.220497
-0.220509
-0.220507
-0.220504
-0.220502
-0.220501
-0.2205
-0.220499
-0.220499
-0.220498
-0.220497
-0.220497
-0.220496
-0.220495
-0.220495
-0.220495
-0.220494
-0.220494
-0.220494
-0.220494
-0.220494
-0.220493
-0.363393
-0.362991
-0.362601
-0.362309
-0.362112
-0.361997
-0.361961
-0.362004
-0.362126
-0.362327
-0.36261
-0.362976
-0.363427
-0.363959
-0.364558
-0.365237
-0.36617
-0.367769
-0.369789
-0.367921
-0.35181
-0.328301
-0.408379
-0.853494
-1.43743
-0.244228
-0.243518
-0.243634
-0.243676
-0.243678
-0.243674
-0.243673
-0.243672
-0.243672
-0.243672
-0.243672
-0.243672
-0.243673
-0.243673
-0.243673
-0.243673
-0.243674
-0.243674
-0.243675
-0.243675
-0.243676
-0.243676
-0.243677
-0.243678
-0.243678
-0.395996
-0.395404
-0.394749
-0.394151
-0.393612
-0.393117
-0.392662
-0.392246
-0.391869
-0.391532
-0.391235
-0.390978
-0.390763
-0.390583
-0.390423
-0.390295
-0.390367
-0.391046
-0.392062
-0.389139
-0.372121
-0.34821
-0.426965
-0.862154
-1.42297
-0.267324
-0.266661
-0.266792
-0.266834
-0.266835
-0.266832
-0.266831
-0.266831
-0.266832
-0.266833
-0.266834
-0.266835
-0.266836
-0.266837
-0.266838
-0.266839
-0.26684
-0.266842
-0.266843
-0.266845
-0.266846
-0.266848
-0.266849
-0.266851
-0.266853
-0.439718
-0.438479
-0.437167
-0.435984
-0.434913
-0.433927
-0.433016
-0.432185
-0.431435
-0.430771
-0.430193
-0.42971
-0.42932
-0.429028
-0.428815
-0.428705
-0.428869
-0.429746
-0.43106
-0.428404
-0.411166
-0.386575
-0.467867
-0.919483
-1.49676
-0.290491
-0.289822
-0.289961
-0.290003
-0.290004
-0.290001
-0.29
-0.290002
-0.290003
-0.290005
-0.290007
-0.290009
-0.290011
-0.290013
-0.290015
-0.290017
-0.29002
-0.290022
-0.290025
-0.290027
-0.29003
-0.290033
-0.290036
-0.290039
-0.290041
-0.451475
-0.450678
-0.44974
-0.448722
-0.447609
-0.446392
-0.445066
-0.443635
-0.442095
-0.440444
-0.438676
-0.436791
-0.434776
-0.432625
-0.430303
-0.42782
-0.425351
-0.423383
-0.421653
-0.415323
-0.392267
-0.359057
-0.439404
-0.935826
-1.62948
-0.313567
-0.312904
-0.313047
-0.313089
-0.313092
-0.31309
-0.313092
-0.313096
-0.3131
-0.313104
-0.313109
-0.313114
-0.313119
-0.313124
-0.313129
-0.313134
-0.31314
-0.313146
-0.313151
-0.313157
-0.313163
-0.313168
-0.313174
-0.31318
-0.313186
-0.454498
-0.453559
-0.452276
-0.450834
-0.449267
-0.447572
-0.44574
-0.44378
-0.441687
-0.439469
-0.437116
-0.434634
-0.432005
-0.429223
-0.426233
-0.423044
-0.419833
-0.417203
-0.41487
-0.406942
-0.377976
-0.333936
-0.425347
-1.04138
-2.0029
-0.338595
-0.336179
-0.336111
-0.33617
-0.336195
-0.336203
-0.336209
-0.336218
-0.336228
-0.336239
-0.336249
-0.33626
-0.336271
-0.336282
-0.336292
-0.336303
-0.336313
-0.336324
-0.336334
-0.336344
-0.336354
-0.336363
-0.336372
-0.336381
-0.33639
-0.580164
-0.575013
-0.569531
-0.564628
-0.560259
-0.556284
-0.55267
-0.549407
-0.546503
-0.543954
-0.541773
-0.539952
-0.538529
-0.537478
-0.536882
-0.536687
-0.536962
-0.538035
-0.539859
-0.542031
-0.540306
-0.532988
-0.547199
-0.656068
-0.827816
-0.462316
-0.359235
-0.358865
-0.359044
-0.359105
-0.359147
-0.359187
-0.359224
-0.359257
-0.359288
-0.359317
-0.359343
-0.359368
-0.359391
-0.359412
-0.359432
-0.35945
-0.359468
-0.359484
-0.3595
-0.359515
-0.359529
-0.359543
-0.359555
-0.359568
-0.60216
-0.596984
-0.591634
-0.586912
-0.582743
-0.578985
-0.575618
-0.572631
-0.570048
-0.567853
-0.566073
-0.564685
-0.563723
-0.563157
-0.563022
-0.563268
-0.563951
-0.565101
-0.567014
-0.569289
-0.569521
-0.562019
-0.55011
-0.605796
-0.858377
-0.96313
-0.3832
-0.382517
-0.382667
-0.382695
-0.382699
-0.382703
-0.382711
-0.382721
-0.382731
-0.382741
-0.382752
-0.382763
-0.382773
-0.382784
-0.382795
-0.382806
-0.382816
-0.382827
-0.382837
-0.382847
-0.382857
-0.382867
-0.382876
-0.382886
-0.406023
-0.404334
-0.401914
-0.399141
-0.396111
-0.392808
-0.38922
-0.385336
-0.381162
-0.376683
-0.371904
-0.366801
-0.361384
-0.355618
-0.349511
-0.342998
-0.336116
-0.328982
-0.322099
-0.315151
-0.303601
-0.275927
-0.235652
-0.30593
-0.765389
-1.46108
-0.407348
-0.405954
-0.406007
-0.406047
-0.406056
-0.406058
-0.406062
-0.406066
-0.406072
-0.406077
-0.406083
-0.406089
-0.406095
-0.406101
-0.406108
-0.406114
-0.406121
-0.406128
-0.406134
-0.406141
-0.406148
-0.406154
-0.406161
-0.406168
-0.532709
-0.528565
-0.524263
-0.520253
-0.516425
-0.512674
-0.508991
-0.50537
-0.501828
-0.498348
-0.494946
-0.491601
-0.488332
-0.48511
-0.48195
-0.478777
-0.475629
-0.472732
-0.470941
-0.470057
-0.462798
-0.428568
-0.368464
-0.476046
-1.26709
-2.61454
-0.528841
-0.429632
-0.429305
-0.429413
-0.429443
-0.429445
-0.429447
-0.429451
-0.429456
-0.429461
-0.429466
-0.429472
-0.429477
-0.429482
-0.429487
-0.429492
-0.429497
-0.429502
-0.429507
-0.429512
-0.429517
-0.429522
-0.429526
-0.429531
-0.39968
-0.395605
-0.390836
-0.386171
-0.381629
-0.377147
-0.372674
-0.368231
-0.363799
-0.359406
-0.355029
-0.350704
-0.346398
-0.342165
-0.33796
-0.33384
-0.329748
-0.325774
-0.32201
-0.3189
-0.315897
-0.309862
-0.289617
-0.266907
-0.320877
-0.660529
-1.22627
-0.455489
-0.452658
-0.452645
-0.452699
-0.452713
-0.45272
-0.452729
-0.452738
-0.452746
-0.452754
-0.452762
-0.452769
-0.452776
-0.452782
-0.452789
-0.452794
-0.4528
-0.452805
-0.452811
-0.452816
-0.45282
-0.452825
-0.45283
-0.0115959
-0.0115958
-0.0115957
-0.0115956
-0.0115955
-0.0115954
-0.0115953
-0.0115952
-0.0115952
-0.0115951
-0.011595
-0.011595
-0.0115949
-0.0115949
-0.0115948
-0.0115948
-0.0115948
-0.0115947
-0.0115947
-0.0115947
-0.0115947
-0.0115947
-0.0115947
-0.0115947
-0.0115947
-0.0115947
-0.0115947
-0.0115947
-0.0115947
-0.0115947
-0.0115947
-0.0115947
-0.0115948
-0.0115948
-0.0115948
-0.0115949
-0.0115949
-0.0115949
-0.011595
-0.011595
-0.0115951
-0.0115951
-0.0115952
-0.0115952
-0.0115953
-0.0115953
-0.0115954
-0.0115954
-0.0115955
-0.0115955
-0.034841
-0.0348405
-0.0348399
-0.0348395
-0.034839
-0.0348385
-0.0348381
-0.0348377
-0.0348373
-0.0348369
-0.0348365
-0.0348362
-0.0348358
-0.0348355
-0.0348352
-0.0348349
-0.0348346
-0.0348343
-0.0348341
-0.0348338
-0.0348336
-0.0348333
-0.0348331
-0.0348329
-0.0348327
-0.0348325
-0.0348323
-0.0348321
-0.0348319
-0.0348318
-0.0348316
-0.0348314
-0.0348313
-0.0348311
-0.034831
-0.0348308
-0.0348307
-0.0348306
-0.0348305
-0.0348303
-0.0348302
-0.0348301
-0.03483
-0.0348299
-0.0348298
-0.0348297
-0.0348296
-0.0348295
-0.0348294
-0.0348294
-0.058038
-0.0580375
-0.058037
-0.0580366
-0.0580361
-0.0580357
-0.0580353
-0.058035
-0.0580346
-0.0580343
-0.058034
-0.0580337
-0.0580334
-0.0580331
-0.0580328
-0.0580326
-0.0580324
-0.0580321
-0.0580319
-0.0580317
-0.0580315
-0.0580313
-0.0580312
-0.058031
-0.0580309
-0.0580307
-0.0580306
-0.0580304
-0.0580303
-0.0580302
-0.0580301
-0.05803
-0.0580299
-0.0580298
-0.0580297
-0.0580296
-0.0580296
-0.0580295
-0.0580294
-0.0580294
-0.0580293
-0.0580292
-0.0580292
-0.0580291
-0.0580291
-0.0580291
-0.058029
-0.058029
-0.058029
-0.0580289
-0.0812685
-0.0812679
-0.0812674
-0.0812668
-0.0812663
-0.0812658
-0.0812653
-0.0812648
-0.0812643
-0.0812639
-0.0812634
-0.081263
-0.0812626
-0.0812622
-0.0812618
-0.0812614
-0.0812611
-0.0812607
-0.0812604
-0.0812601
-0.0812598
-0.0812595
-0.0812592
-0.0812589
-0.0812586
-0.0812584
-0.0812581
-0.0812579
-0.0812577
-0.0812575
-0.0812573
-0.0812571
-0.0812569
-0.0812567
-0.0812565
-0.0812563
-0.0812562
-0.081256
-0.0812559
-0.0812557
-0.0812556
-0.0812555
-0.0812553
-0.0812552
-0.0812551
-0.081255
-0.0812549
-0.0812548
-0.0812547
-0.0812546
-0.104461
-0.104461
-0.104461
-0.104461
-0.104461
-0.104461
-0.10446
-0.10446
-0.10446
-0.10446
-0.10446
-0.10446
-0.10446
-0.104459
-0.104459
-0.104459
-0.104459
-0.104459
-0.104459
-0.104459
-0.104459
-0.104459
-0.104458
-0.104458
-0.104458
-0.104458
-0.104458
-0.104458
-0.104458
-0.104458
-0.104458
-0.104458
-0.104458
-0.104458
-0.104458
-0.104458
-0.104458
-0.104458
-0.104458
-0.104458
-0.104458
-0.104458
-0.104458
-0.104458
-0.104458
-0.104458
-0.104458
-0.104458
-0.104458
-0.104458
-0.127688
-0.127688
-0.127687
-0.127687
-0.127686
-0.127686
-0.127686
-0.127685
-0.127685
-0.127684
-0.127684
-0.127684
-0.127683
-0.127683
-0.127683
-0.127682
-0.127682
-0.127682
-0.127682
-0.127681
-0.127681
-0.127681
-0.127681
-0.12768
-0.12768
-0.12768
-0.12768
-0.12768
-0.12768
-0.127679
-0.127679
-0.127679
-0.127679
-0.127679
-0.127679
-0.127679
-0.127679
-0.127679
-0.127679
-0.127678
-0.127678
-0.127678
-0.127678
-0.127678
-0.127678
-0.127678
-0.127678
-0.127678
-0.127678
-0.127678
-0.150876
-0.150876
-0.150876
-0.150877
-0.150877
-0.150877
-0.150877
-0.150877
-0.150877
-0.150877
-0.150877
-0.150877
-0.150878
-0.150878
-0.150878
-0.150878
-0.150878
-0.150878
-0.150878
-0.150878
-0.150878
-0.150879
-0.150879
-0.150879
-0.150879
-0.150879
-0.150879
-0.150879
-0.15088
-0.15088
-0.15088
-0.15088
-0.15088
-0.15088
-0.15088
-0.150881
-0.150881
-0.150881
-0.150881
-0.150881
-0.150881
-0.150882
-0.150882
-0.150882
-0.150882
-0.150882
-0.150882
-0.150883
-0.150883
-0.150883
-0.174106
-0.174105
-0.174105
-0.174104
-0.174103
-0.174103
-0.174102
-0.174101
-0.174101
-0.1741
-0.1741
-0.1741
-0.174099
-0.174099
-0.174099
-0.174098
-0.174098
-0.174098
-0.174098
-0.174097
-0.174097
-0.174097
-0.174097
-0.174097
-0.174097
-0.174097
-0.174097
-0.174097
-0.174097
-0.174097
-0.174097
-0.174097
-0.174097
-0.174097
-0.174098
-0.174098
-0.174098
-0.174098
-0.174098
-0.174098
-0.174098
-0.174099
-0.174099
-0.174099
-0.174099
-0.174099
-0.174099
-0.1741
-0.1741
-0.1741
-0.197289
-0.197289
-0.197289
-0.197289
-0.197289
-0.197289
-0.197289
-0.197289
-0.197289
-0.19729
-0.19729
-0.19729
-0.19729
-0.197291
-0.197291
-0.197291
-0.197292
-0.197292
-0.197292
-0.197293
-0.197293
-0.197294
-0.197294
-0.197295
-0.197295
-0.197295
-0.197296
-0.197296
-0.197297
-0.197297
-0.197298
-0.197298
-0.197299
-0.197299
-0.1973
-0.1973
-0.197301
-0.197301
-0.197302
-0.197302
-0.197303
-0.197303
-0.197304
-0.197304
-0.197305
-0.197305
-0.197306
-0.197306
-0.197307
-0.197307
-0.220493
-0.220493
-0.220494
-0.220494
-0.220494
-0.220494
-0.220494
-0.220495
-0.220495
-0.220495
-0.220496
-0.220496
-0.220496
-0.220497
-0.220497
-0.220498
-0.220498
-0.220499
-0.2205
-0.2205
-0.220501
-0.220501
-0.220502
-0.220503
-0.220503
-0.220504
-0.220505
-0.220505
-0.220506
-0.220507
-0.220508
-0.220508
-0.220509
-0.22051
-0.22051
-0.220511
-0.220512
-0.220513
-0.220513
-0.220514
-0.220515
-0.220516
-0.220516
-0.220517
-0.220518
-0.220518
-0.220519
-0.22052
-0.220521
-0.220521
-0.243679
-0.24368
-0.243681
-0.243682
-0.243682
-0.243683
-0.243684
-0.243685
-0.243686
-0.243687
-0.243689
-0.24369
-0.243691
-0.243692
-0.243693
-0.243694
-0.243695
-0.243697
-0.243698
-0.243699
-0.2437
-0.243701
-0.243703
-0.243704
-0.243705
-0.243706
-0.243707
-0.243709
-0.24371
-0.243711
-0.243712
-0.243714
-0.243715
-0.243716
-0.243717
-0.243718
-0.24372
-0.243721
-0.243722
-0.243723
-0.243724
-0.243725
-0.243726
-0.243728
-0.243729
-0.24373
-0.243731
-0.243732
-0.243733
-0.243734
-0.266855
-0.266856
-0.266858
-0.26686
-0.266862
-0.266864
-0.266866
-0.266868
-0.26687
-0.266872
-0.266874
-0.266876
-0.266878
-0.26688
-0.266882
-0.266884
-0.266887
-0.266889
-0.266891
-0.266893
-0.266895
-0.266897
-0.266899
-0.266901
-0.266903
-0.266905
-0.266907
-0.266909
-0.266911
-0.266913
-0.266915
-0.266917
-0.266919
-0.26692
-0.266922
-0.266924
-0.266926
-0.266928
-0.266929
-0.266931
-0.266933
-0.266935
-0.266936
-0.266938
-0.266939
-0.266941
-0.266942
-0.266944
-0.266945
-0.266947
-0.290044
-0.290047
-0.29005
-0.290053
-0.290056
-0.290059
-0.290063
-0.290066
-0.290069
-0.290072
-0.290075
-0.290078
-0.290081
-0.290084
-0.290087
-0.29009
-0.290093
-0.290096
-0.290099
-0.290101
-0.290104
-0.290107
-0.29011
-0.290113
-0.290115
-0.290118
-0.290121
-0.290123
-0.290126
-0.290129
-0.290131
-0.290133
-0.290136
-0.290138
-0.290141
-0.290143
-0.290145
-0.290147
-0.29015
-0.290152
-0.290154
-0.290156
-0.290158
-0.29016
-0.290162
-0.290164
-0.290166
-0.290167
-0.290169
-0.290171
-0.313191
-0.313197
-0.313203
-0.313208
-0.313214
-0.31322
-0.313225
-0.31323
-0.313236
-0.313241
-0.313246
-0.313251
-0.313256
-0.313261
-0.313266
-0.313271
-0.313276
-0.313281
-0.313285
-0.31329
-0.313294
-0.313298
-0.313303
-0.313307
-0.313311
-0.313315
-0.313319
-0.313323
-0.313326
-0.31333
-0.313334
-0.313337
-0.313341
-0.313344
-0.313347
-0.313351
-0.313354
-0.313357
-0.31336
-0.313363
-0.313366
-0.313369
-0.313371
-0.313374
-0.313377
-0.313379
-0.313382
-0.313384
-0.313386
-0.313389
-0.336399
-0.336407
-0.336416
-0.336424
-0.336431
-0.336439
-0.336446
-0.336454
-0.336461
-0.336467
-0.336474
-0.33648
-0.336487
-0.336493
-0.336499
-0.336505
-0.33651
-0.336516
-0.336521
-0.336526
-0.336531
-0.336536
-0.336541
-0.336546
-0.33655
-0.336555
-0.336559
-0.336563
-0.336568
-0.336572
-0.336575
-0.336579
-0.336583
-0.336587
-0.33659
-0.336594
-0.336597
-0.3366
-0.336603
-0.336606
-0.336609
-0.336612
-0.336615
-0.336618
-0.336621
-0.336623
-0.336626
-0.336628
-0.336631
-0.336633
-0.359579
-0.359591
-0.359602
-0.359612
-0.359622
-0.359632
-0.359641
-0.35965
-0.359659
-0.359667
-0.359676
-0.359684
-0.359691
-0.359699
-0.359706
-0.359713
-0.35972
-0.359727
-0.359733
-0.359739
-0.359745
-0.359751
-0.359757
-0.359763
-0.359768
-0.359774
-0.359779
-0.359784
-0.359789
-0.359793
-0.359798
-0.359803
-0.359807
-0.359811
-0.359815
-0.359819
-0.359823
-0.359827
-0.359831
-0.359835
-0.359838
-0.359841
-0.359845
-0.359848
-0.359851
-0.359854
-0.359857
-0.35986
-0.359863
-0.359865
-0.382895
-0.382903
-0.382912
-0.38292
-0.382929
-0.382936
-0.382944
-0.382952
-0.382959
-0.382966
-0.382973
-0.38298
-0.382986
-0.382993
-0.382999
-0.383005
-0.383011
-0.383017
-0.383022
-0.383028
-0.383033
-0.383038
-0.383043
-0.383048
-0.383053
-0.383057
-0.383062
-0.383066
-0.38307
-0.383075
-0.383079
-0.383082
-0.383086
-0.38309
-0.383094
-0.383097
-0.3831
-0.383104
-0.383107
-0.38311
-0.383113
-0.383116
-0.383119
-0.383121
-0.383124
-0.383127
-0.383129
-0.383131
-0.383134
-0.383136
-0.406174
-0.406181
-0.406188
-0.406194
-0.4062
-0.406207
-0.406213
-0.406219
-0.406225
-0.406231
-0.406237
-0.406243
-0.406249
-0.406254
-0.40626
-0.406265
-0.406271
-0.406276
-0.406281
-0.406286
-0.406291
-0.406295
-0.4063
-0.406305
-0.406309
-0.406313
-0.406318
-0.406322
-0.406326
-0.40633
-0.406334
-0.406338
-0.406341
-0.406345
-0.406348
-0.406352
-0.406355
-0.406358
-0.406361
-0.406364
-0.406367
-0.40637
-0.406373
-0.406376
-0.406378
-0.406381
-0.406383
-0.406385
-0.406388
-0.40639
-0.429536
-0.429541
-0.429545
-0.42955
-0.429554
-0.429559
-0.429563
-0.429567
-0.429572
-0.429576
-0.42958
-0.429584
-0.429588
-0.429592
-0.429596
-0.4296
-0.429603
-0.429607
-0.42961
-0.429614
-0.429617
-0.429621
-0.429624
-0.429627
-0.42963
-0.429633
-0.429636
-0.429639
-0.429642
-0.429645
-0.429648
-0.42965
-0.429653
-0.429655
-0.429658
-0.42966
-0.429662
-0.429664
-0.429667
-0.429669
-0.429671
-0.429673
-0.429674
-0.429676
-0.429678
-0.42968
-0.429681
-0.429683
-0.429684
-0.429685
-0.452834
-0.452838
-0.452842
-0.452847
-0.45285
-0.452854
-0.452858
-0.452862
-0.452865
-0.452869
-0.452873
-0.452876
-0.452879
-0.452883
-0.452886
-0.452889
-0.452892
-0.452895
-0.452898
-0.452901
-0.452904
-0.452907
-0.45291
-0.452912
-0.452915
-0.452918
-0.45292
-0.452923
-0.452925
-0.452927
-0.45293
-0.452932
-0.452934
-0.452936
-0.452938
-0.45294
-0.452942
-0.452944
-0.452946
-0.452947
-0.452949
-0.452951
-0.452952
-0.452954
-0.452955
-0.452956
-0.452958
-0.452959
-0.45296
-0.452961
-0.0115955
-0.0115954
-0.0115955
-0.0115955
-0.0115955
-0.0115956
-0.0115956
-0.0115956
-0.0115956
-0.0115957
-0.0115957
-0.0115957
-0.0115958
-0.0115958
-0.0115958
-0.0115959
-0.0115959
-0.011596
-0.011596
-0.011596
-0.0115961
-0.0115961
-0.0115962
-0.0115962
-0.0115963
-0.0115963
-0.0115964
-0.0115964
-0.0115965
-0.0115965
-0.0115966
-0.0115966
-0.0115967
-0.0115967
-0.0115968
-0.0115968
-0.0115969
-0.0115969
-0.011597
-0.011597
-0.0115971
-0.0115972
-0.0115972
-0.0115973
-0.0115973
-0.0115974
-0.0115975
-0.0115975
-0.0115976
-0.0115977
-0.0115977
-0.0115978
-0.0115978
-0.0115979
-0.011598
-0.011598
-0.0115981
-0.0115982
-0.0115982
-0.0115983
-0.0115984
-0.0115984
-0.0115985
-0.0115986
-0.0115986
-0.0115987
-0.0115988
-0.0115989
-0.0115989
-0.011599
-0.0115991
-0.0115991
-0.0115992
-0.0115993
-0.0115993
-0.0115994
-0.0115995
-0.0115995
-0.0115996
-0.0115997
-0.0115997
-0.0115998
-0.0115999
-0.0115999
-0.0116
-0.0116001
-0.0116001
-0.0116002
-0.0116003
-0.0116003
-0.0116004
-0.0116005
-0.0116005
-0.0116006
-0.0116006
-0.0116007
-0.0116008
-0.0116008
-0.0116009
-0.0116009
-0.011601
-0.011601
-0.0116011
-0.0116012
-0.0116012
-0.0116013
-0.0116013
-0.0116014
-0.0116014
-0.0116015
-0.0116015
-0.0116016
-0.0116016
-0.0116017
-0.0116017
-0.0116017
-0.0116018
-0.0116018
-0.0116019
-0.0116019
-0.0116019
-0.011602
-0.011602
-0.011602
-0.0116021
-0.0116021
-0.0116021
-0.0116021
-0.0116022
-0.0116022
-0.0116022
-0.0116022
-0.0116023
-0.0116023
-0.0116023
-0.0116023
-0.0116023
-0.0116023
-0.0116023
-0.0116023
-0.0116024
-0.0116024
-0.0116024
-0.0116024
-0.0116024
-0.0116024
-0.0116024
-0.0116023
-0.0116023
-0.0116023
-0.0116023
-0.0116023
-0.0116023
-0.0116023
-0.0116023
-0.0116022
-0.0116022
-0.0116022
-0.0116022
-0.0116021
-0.0116021
-0.0116021
-0.0116021
-0.011602
-0.011602
-0.011602
-0.0116019
-0.0116019
-0.0116018
-0.0116018
-0.0116017
-0.0116017
-0.0116016
-0.0116016
-0.0116015
-0.0116015
-0.0116014
-0.0116014
-0.0116013
-0.0116013
-0.0116012
-0.0116011
-0.0116011
-0.011601
-0.0116009
-0.0116009
-0.0116008
-0.0116007
-0.0116006
-0.0116006
-0.0116005
-0.0116004
-0.0116003
-0.0116002
-0.0116001
-0.0116001
-0.0116
-0.0115999
-0.0115998
-0.0115997
-0.0115996
-0.0115995
-0.0115994
-0.0115993
-0.0115992
-0.0115991
-0.011599
-0.0115989
-0.0115988
-0.0115987
-0.0115986
-0.0115985
-0.0115984
-0.0115983
-0.0115982
-0.0115981
-0.011598
-0.0115978
-0.0115977
-0.0115976
-0.0115975
-0.0115974
-0.0115973
-0.0115972
-0.011597
-0.0115969
-0.0115968
-0.0115967
-0.0115966
-0.0115964
-0.0115963
-0.0115962
-0.0115961
-0.011596
-0.0115958
-0.0115957
-0.0115956
-0.0115955
-0.0115953
-0.0115952
-0.0115951
-0.011595
-0.0115948
-0.0115947
-0.0115946
-0.0115945
-0.0115943
-0.0115942
-0.0115941
-0.011594
-0.0115938
-0.0115937
-0.0115936
-0.0115935
-0.0115933
-0.0115932
-0.0115931
-0.011593
-0.0115928
-0.0115927
-0.0115926
-0.0115925
-0.0115923
-0.0115922
-0.0115921
-0.011592
-0.0115919
-0.0115917
-0.0115916
-0.0115915
-0.0115914
-0.0115913
-0.0115912
-0.011591
-0.0115909
-0.0115908
-0.0115907
-0.0115906
-0.0115905
-0.0115904
-0.0115903
-0.0115902
-0.01159
-0.0115899
-0.0115898
-0.0115897
-0.0115896
-0.0115895
-0.0115894
-0.0115893
-0.0115892
-0.0115891
-0.011589
-0.0115889
-0.0115888
-0.0115887
-0.0115886
-0.0115885
-0.0115884
-0.0115883
-0.0348294
-0.0348294
-0.0348293
-0.0348292
-0.0348292
-0.0348291
-0.034829
-0.034829
-0.0348289
-0.0348288
-0.0348288
-0.0348287
-0.0348286
-0.0348285
-0.0348285
-0.0348284
-0.0348283
-0.0348283
-0.0348282
-0.0348281
-0.034828
-0.034828
-0.0348279
-0.0348278
-0.0348277
-0.0348277
-0.0348276
-0.0348275
-0.0348274
-0.0348274
-0.0348273
-0.0348272
-0.0348271
-0.0348271
-0.034827
-0.0348269
-0.0348268
-0.0348267
-0.0348267
-0.0348266
-0.0348265
-0.0348264
-0.0348263
-0.0348262
-0.0348262
-0.0348261
-0.034826
-0.0348259
-0.0348258
-0.0348257
-0.0348256
-0.0348255
-0.0348255
-0.0348254
-0.0348253
-0.0348252
-0.0348251
-0.034825
-0.0348249
-0.0348248
-0.0348247
-0.0348246
-0.0348245
-0.0348244
-0.0348243
-0.0348242
-0.0348241
-0.034824
-0.0348239
-0.0348238
-0.0348237
-0.0348236
-0.0348235
-0.0348234
-0.0348233
-0.0348232
-0.0348231
-0.034823
-0.0348229
-0.0348228
-0.0348227
-0.0348226
-0.0348224
-0.0348223
-0.0348222
-0.0348221
-0.034822
-0.0348219
-0.0348217
-0.0348216
-0.0348215
-0.0348214
-0.0348213
-0.0348211
-0.034821
-0.0348209
-0.0348208
-0.0348206
-0.0348205
-0.0348204
-0.0348202
-0.0348201
-0.03482
-0.0348198
-0.0348197
-0.0348196
-0.0348194
-0.0348193
-0.0348192
-0.034819
-0.0348189
-0.0348187
-0.0348186
-0.0348184
-0.0348183
-0.0348181
-0.034818
-0.0348178
-0.0348177
-0.0348175
-0.0348174
-0.0348172
-0.0348171
-0.0348169
-0.0348167
-0.0348166
-0.0348164
-0.0348162
-0.0348161
-0.0348159
-0.0348157
-0.0348156
-0.0348154
-0.0348152
-0.034815
-0.0348149
-0.0348147
-0.0348145
-0.0348143
-0.0348141
-0.0348139
-0.0348138
-0.0348136
-0.0348134
-0.0348132
-0.034813
-0.0348128
-0.0348126
-0.0348124
-0.0348122
-0.034812
-0.0348118
-0.0348116
-0.0348114
-0.0348112
-0.0348109
-0.0348107
-0.0348105
-0.0348103
-0.0348101
-0.0348099
-0.0348096
-0.0348094
-0.0348092
-0.0348089
-0.0348087
-0.0348085
-0.0348082
-0.034808
-0.0348078
-0.0348075
-0.0348073
-0.034807
-0.0348068
-0.0348065
-0.0348063
-0.034806
-0.0348058
-0.0348055
-0.0348053
-0.034805
-0.0348047
-0.0348045
-0.0348042
-0.0348039
-0.0348037
-0.0348034
-0.0348031
-0.0348028
-0.0348025
-0.0348023
-0.034802
-0.0348017
-0.0348014
-0.0348011
-0.0348008
-0.0348005
-0.0348002
-0.0347999
-0.0347996
-0.0347993
-0.034799
-0.0347987
-0.0347984
-0.0347981
-0.0347977
-0.0347974
-0.0347971
-0.0347968
-0.0347965
-0.0347961
-0.0347958
-0.0347955
-0.0347952
-0.0347948
-0.0347945
-0.0347941
-0.0347938
-0.0347935
-0.0347931
-0.0347928
-0.0347924
-0.0347921
-0.0347917
-0.0347914
-0.034791
-0.0347907
-0.0347903
-0.03479
-0.0347896
-0.0347893
-0.0347889
-0.0347885
-0.0347882
-0.0347878
-0.0347875
-0.0347871
-0.0347867
-0.0347864
-0.034786
-0.0347856
-0.0347852
-0.0347849
-0.0347845
-0.0347841
-0.0347838
-0.0347834
-0.034783
-0.0347826
-0.0347823
-0.0347819
-0.0347815
-0.0347811
-0.0347808
-0.0347804
-0.03478
-0.0347796
-0.0347793
-0.0347789
-0.0347785
-0.0347782
-0.0347778
-0.0347774
-0.034777
-0.0347767
-0.0347763
-0.0347759
-0.0347756
-0.0347752
-0.0347748
-0.0347745
-0.0347741
-0.0347738
-0.0347734
-0.0347731
-0.0347727
-0.0347723
-0.034772
-0.0347716
-0.0347713
-0.034771
-0.0347706
-0.0347703
-0.0347699
-0.0347696
-0.0347693
-0.0347689
-0.0347686
-0.0347683
-0.034768
-0.0347677
-0.0347673
-0.034767
-0.0347667
-0.0347664
-0.0347661
-0.0347658
-0.0347655
-0.0347652
-0.0347649
-0.0580288
-0.0580287
-0.0580287
-0.0580286
-0.0580286
-0.0580286
-0.0580285
-0.0580285
-0.0580285
-0.0580284
-0.0580284
-0.0580283
-0.0580283
-0.0580283
-0.0580283
-0.0580282
-0.0580282
-0.0580282
-0.0580281
-0.0580281
-0.0580281
-0.0580281
-0.058028
-0.058028
-0.058028
-0.058028
-0.0580279
-0.0580279
-0.0580279
-0.0580279
-0.0580279
-0.0580278
-0.0580278
-0.0580278
-0.0580278
-0.0580278
-0.0580277
-0.0580277
-0.0580277
-0.0580277
-0.0580277
-0.0580277
-0.0580277
-0.0580276
-0.0580276
-0.0580276
-0.0580276
-0.0580276
-0.0580276
-0.0580276
-0.0580275
-0.0580275
-0.0580275
-0.0580275
-0.0580275
-0.0580275
-0.0580275
-0.0580274
-0.0580274
-0.0580274
-0.0580274
-0.0580274
-0.0580274
-0.0580273
-0.0580273
-0.0580273
-0.0580273
-0.0580273
-0.0580272
-0.0580272
-0.0580272
-0.0580272
-0.0580271
-0.0580271
-0.0580271
-0.058027
-0.058027
-0.058027
-0.058027
-0.0580269
-0.0580269
-0.0580268
-0.0580268
-0.0580268
-0.0580267
-0.0580267
-0.0580266
-0.0580266
-0.0580265
-0.0580265
-0.0580264
-0.0580264
-0.0580263
-0.0580263
-0.0580262
-0.0580261
-0.0580261
-0.058026
-0.0580259
-0.0580259
-0.0580258
-0.0580257
-0.0580256
-0.0580256
-0.0580255
-0.0580254
-0.0580253
-0.0580252
-0.0580251
-0.058025
-0.0580249
-0.0580248
-0.0580247
-0.0580246
-0.0580245
-0.0580243
-0.0580242
-0.0580241
-0.058024
-0.0580238
-0.0580237
-0.0580236
-0.0580234
-0.0580233
-0.0580231
-0.058023
-0.0580228
-0.0580227
-0.0580225
-0.0580223
-0.0580222
-0.058022
-0.0580218
-0.0580216
-0.0580214
-0.0580212
-0.058021
-0.0580208
-0.0580206
-0.0580204
-0.0580202
-0.05802
-0.0580198
-0.0580195
-0.0580193
-0.0580191
-0.0580188
-0.0580186
-0.0580183
-0.0580181
-0.0580178
-0.0580176
-0.0580173
-0.058017
-0.0580168
-0.0580165
-0.0580162
-0.0580159
-0.0580156
-0.0580153
-0.058015
-0.0580147
-0.0580144
-0.058014
-0.0580137
-0.0580134
-0.0580131
-0.0580127
-0.0580124
-0.058012
-0.0580117
-0.0580113
-0.0580109
-0.0580106
-0.0580102
-0.0580098
-0.0580094
-0.058009
-0.0580087
-0.0580083
-0.0580079
-0.0580074
-0.058007
-0.0580066
-0.0580062
-0.0580058
-0.0580053
-0.0580049
-0.0580045
-0.058004
-0.0580036
-0.0580031
-0.0580026
-0.0580022
-0.0580017
-0.0580012
-0.0580008
-0.0580003
-0.0579998
-0.0579993
-0.0579988
-0.0579983
-0.0579978
-0.0579973
-0.0579968
-0.0579963
-0.0579957
-0.0579952
-0.0579947
-0.0579942
-0.0579936
-0.0579931
-0.0579925
-0.057992
-0.0579914
-0.0579909
-0.0579903
-0.0579898
-0.0579892
-0.0579886
-0.0579881
-0.0579875
-0.0579869
-0.0579863
-0.0579857
-0.0579852
-0.0579846
-0.057984
-0.0579834
-0.0579828
-0.0579822
-0.0579816
-0.057981
-0.0579804
-0.0579798