/*--------------------------------*- C++ -*----------------------------------*\
| =========                 |                                                 |
| \\      /  F ield         | OpenFOAM: The Open Source CFD Toolbox           |
|  \\    /   O peration     | Version:  2.4.0                                 |
|   \\  /    A nd           | Web:      www.OpenFOAM.org                      |
|    \\/     M anipulation  |                                                 |
\*---------------------------------------------------------------------------*/
FoamFile
{
    version     2.0;
    format      ascii;
    class       volScalarField;
    location    "2.2";
    object      p_rgh;
}
// * * * * * * * * * * * * * * * * * * * * * * * * * * * * * * * * * * * * * //

dimensions      [1 -1 -2 0 0 0 0];

internalField   nonuniform List<scalar> 
8000
(
0.930844
0.925494
0.920644
0.916818
0.913699
0.911068
0.908851
0.907013
0.905528
0.904365
0.903507
0.902936
0.902644
0.902625
0.902896
0.903481
0.904396
0.905455
0.906169
0.906747
0.912361
0.936412
0.973683
0.893233
0.355887
-0.518809
-0.0189189
-0.000640465
-0.000302712
-0.00038423
-0.000418408
-0.000420781
-0.000417485
-0.000415905
-0.000415525
-0.000415365
-0.00041515
-0.000414902
-0.000414658
-0.000414428
-0.000414211
-0.000414004
-0.000413807
-0.000413619
-0.000413441
-0.000413272
-0.000413111
-0.000412958
-0.000412814
-0.000412677
2.06937
2.06499
2.06013
2.05588
2.05232
2.04933
2.04684
2.04484
2.04332
2.04227
2.04169
2.04157
2.04191
2.04271
2.04398
2.04575
2.04802
2.0506
2.05309
2.05574
2.06329
2.08699
2.11944
2.04187
1.57268
0.590127
-0.0013092
-0.00145982
-0.00121511
-0.00128231
-0.00131046
-0.00131142
-0.00130754
-0.00130518
-0.0013039
-0.00130286
-0.0013018
-0.00130076
-0.00129976
-0.0012988
-0.00129789
-0.00129702
-0.0012962
-0.00129541
-0.00129465
-0.00129394
-0.00129325
-0.0012926
-0.00129197
-0.00129138
3.41158
3.41025
3.40884
3.40746
3.40606
3.40461
3.40311
3.40155
3.39993
3.39827
3.39655
3.39476
3.39292
3.39101
3.38904
3.38701
3.38492
3.38257
3.37959
3.37626
3.37692
3.39142
3.41136
3.32636
2.88924
1.49931
-0.00198697
-0.00214552
-0.00207577
-0.00212318
-0.00214004
-0.00213924
-0.00213613
-0.00213427
-0.00213312
-0.00213212
-0.00213113
-0.00213015
-0.00212922
-0.00212833
-0.00212749
-0.00212669
-0.00212592
-0.00212519
-0.0021245
-0.00212384
-0.00212321
-0.00212261
-0.00212204
-0.0021215
4.64805
4.6471
4.64597
4.64486
4.64379
4.64275
4.64172
4.64072
4.63974
4.63879
4.63786
4.63695
4.63607
4.63521
4.63438
4.63358
4.63281
4.63189
4.63053
4.62918
4.63186
4.64613
4.65973
4.5704
4.19152
1.92527
-0.00340414
-0.00285834
-0.00296122
-0.00300287
-0.0030055
-0.00300093
-0.00299842
-0.00299737
-0.00299659
-0.00299576
-0.00299489
-0.00299403
-0.00299319
-0.00299238
-0.00299159
-0.00299081
-0.00299006
-0.00298932
-0.00298861
-0.00298791
-0.00298724
-0.00298658
-0.00298594
-0.00298532
5.94198
5.94169
5.94135
5.94093
5.94042
5.93981
5.93912
5.93833
5.93745
5.93649
5.93544
5.9343
5.93308
5.93177
5.9304
5.92895
5.92742
5.92566
5.92345
5.92135
5.92309
5.93442
5.94048
5.84662
5.51311
2.05916
-0.00425153
-0.003657
-0.00377651
-0.00381842
-0.00382021
-0.00381598
-0.00381427
-0.00381403
-0.003814
-0.00381386
-0.00381367
-0.00381346
-0.00381326
-0.00381305
-0.00381285
-0.00381265
-0.00381244
-0.00381224
-0.00381204
-0.00381184
-0.00381164
-0.00381144
-0.00381124
-0.00381105
7.21923
7.21955
7.21977
7.21979
7.21962
7.21927
7.21875
7.21806
7.21721
7.21618
7.21498
7.2136
7.21206
7.21032
7.20842
7.20632
7.20402
7.20134
7.19816
7.1953
7.19649
7.20491
7.19831
7.08199
6.78251
1.71982
-0.00512664
-0.00451724
-0.00464247
-0.00468481
-0.00468607
-0.00468146
-0.00467951
-0.00467902
-0.00467872
-0.0046783
-0.0046778
-0.0046773
-0.00467678
-0.00467627
-0.00467575
-0.00467523
-0.00467471
-0.0046742
-0.00467368
-0.00467318
-0.00467267
-0.00467218
-0.00467169
-0.00467121
8.53354
8.53395
8.53425
8.53434
8.53423
8.53393
8.53346
8.53281
8.53199
8.53099
8.52982
8.52846
8.52692
8.52519
8.52328
8.52118
8.51884
8.51607
8.51285
8.51044
8.51298
8.52118
8.50238
8.35304
8.06177
1.11629
-0.00589499
-0.00532002
-0.00544614
-0.00548799
-0.00548984
-0.00548637
-0.00548556
-0.00548615
-0.00548688
-0.00548747
-0.00548796
-0.00548841
-0.00548883
-0.00548922
-0.00548957
-0.0054899
-0.0054902
-0.00549048
-0.00549073
-0.00549097
-0.00549118
-0.00549138
-0.00549157
-0.00549174
9.90746
9.90623
9.90497
9.90388
9.90296
9.90216
9.90149
9.90095
9.90053
9.90023
9.90006
9.90003
9.90012
9.90037
9.9008
9.90141
9.90197
9.90186
9.90123
9.90616
9.93294
9.97674
9.88259
9.23405
8.18075
0.300314
-0.00676678
-0.0062208
-0.00634812
-0.00639398
-0.00639387
-0.00638683
-0.00638268
-0.00638031
-0.0063783
-0.00637628
-0.0063743
-0.00637241
-0.00637062
-0.00636892
-0.0063673
-0.00636577
-0.00636432
-0.00636295
-0.00636165
-0.00636042
-0.00635926
-0.00635817
-0.00635714
-0.00635617
11.2462
11.2443
11.2424
11.2408
11.2394
11.2383
11.2373
11.2365
11.236
11.2356
11.2355
11.2355
11.2357
11.2362
11.2369
11.2378
11.2387
11.2392
11.2394
11.2447
11.2684
11.3039
11.2165
10.6687
8.91846
0.0237426
-0.00735683
-0.00707372
-0.00715206
-0.00718305
-0.00718403
-0.0071801
-0.00717796
-0.00717701
-0.00717631
-0.00717561
-0.00717493
-0.0071743
-0.00717374
-0.00717323
-0.00717278
-0.00717238
-0.00717203
-0.00717173
-0.00717147
-0.00717126
-0.00717108
-0.00717095
-0.00717086
-0.0071708
12.5113
12.5109
12.5104
12.5099
12.5093
12.5087
12.5081
12.5075
12.5068
12.506
12.5053
12.5044
12.5035
12.5026
12.5017
12.5007
12.4994
12.4975
12.4952
12.4971
12.5143
12.5395
12.4547
11.9792
8.79704
-0.00560935
-0.00796409
-0.00796838
-0.00801232
-0.0080242
-0.00802213
-0.00801924
-0.00801765
-0.00801665
-0.00801575
-0.00801487
-0.00801404
-0.00801327
-0.00801257
-0.00801194
-0.00801137
-0.00801086
-0.00801041
-0.00801003
-0.0080097
-0.00800943
-0.00800921
-0.00800905
-0.00800894
-0.00800887
13.8152
13.8156
13.816
13.8163
13.8165
13.8166
13.8167
13.8166
13.8165
13.8163
13.816
13.8157
13.8152
13.8147
13.8141
13.8134
13.8125
13.8109
13.8088
13.8107
13.8268
13.8502
13.7701
13.3251
8.9782
-0.00900193
-0.00866647
-0.00878213
-0.00882472
-0.00882699
-0.00882284
-0.0088211
-0.00882089
-0.00882095
-0.00882098
-0.008821
-0.00882107
-0.0088212
-0.00882139
-0.00882163
-0.00882192
-0.00882227
-0.00882267
-0.00882313
-0.00882363
-0.00882418
-0.00882478
-0.00882542
-0.0088261
-0.00882683
15.133
15.1336
15.1342
15.1348
15.1354
15.1359
15.1363
15.1367
15.1371
15.1375
15.1378
15.138
15.1382
15.1384
15.1386
15.1387
15.1386
15.1379
15.1369
15.1398
15.1568
15.1807
15.1018
14.6668
9.44478
-0.0100313
-0.00944213
-0.00957338
-0.00961578
-0.00961717
-0.00961332
-0.00961234
-0.00961292
-0.00961377
-0.0096146
-0.00961545
-0.00961637
-0.00961738
-0.00961846
-0.00961962
-0.00962084
-0.00962214
-0.0096235
-0.00962493
-0.00962641
-0.00962795
-0.00962955
-0.00963119
-0.00963289
-0.00963463
16.4396
16.4409
16.4422
16.4433
16.4444
16.4454
16.4463
16.4471
16.4479
16.4486
16.4491
16.4496
16.45
16.4503
16.4505
16.4506
16.4505
16.4496
16.4483
16.4509
16.4681
16.4926
16.4113
15.9598
10.3592
-0.0108752
-0.0102357
-0.010376
-0.0104178
-0.0104189
-0.0104155
-0.0104153
-0.0104167
-0.0104184
-0.0104201
-0.0104218
-0.0104237
-0.0104257
-0.0104278
-0.01043
-0.0104323
-0.0104347
-0.0104372
-0.0104397
-0.0104424
-0.0104451
-0.0104478
-0.0104507
-0.0104535
-0.0104564
17.7782
17.779
17.7799
17.781
17.7821
17.7833
17.7846
17.786
17.7876
17.7892
17.791
17.7929
17.7949
17.7971
17.7994
17.8019
17.8043
17.8063
17.808
17.8143
17.8373
17.8705
17.7901
17.2939
12.2268
-0.011589
-0.0109418
-0.011095
-0.0111372
-0.0111397
-0.0111383
-0.0111403
-0.0111441
-0.0111483
-0.0111526
-0.0111571
-0.0111619
-0.0111668
-0.011172
-0.0111772
-0.0111826
-0.0111881
-0.0111937
-0.0111994
-0.0112051
-0.0112108
-0.0112166
-0.0112224
-0.0112281
-0.0112339
19.1255
19.1265
19.1277
19.1292
19.1308
19.1325
19.1343
19.1362
19.1383
19.1406
19.1429
19.1454
19.148
19.1508
19.1538
19.157
19.1602
19.1628
19.1651
19.1731
19.202
19.2459
19.1544
18.5386
15.4188
-0.000430749
-0.0117946
-0.0117904
-0.0118513
-0.0118762
-0.011884
-0.0118908
-0.0118997
-0.0119097
-0.0119201
-0.0119307
-0.0119414
-0.0119522
-0.011963
-0.0119737
-0.0119843
-0.0119948
-0.0120051
-0.0120153
-0.0120252
-0.012035
-0.0120445
-0.0120538
-0.0120629
-0.0120717
20.3502
20.3554
20.3608
20.3657
20.3701
20.3741
20.3777
20.381
20.3839
20.3864
20.3886
20.3904
20.3918
20.3929
20.3935
20.3937
20.3934
20.3923
20.3905
20.3883
20.39
20.3972
20.3829
20.2743
20.1035
1.29454
-0.0118683
-0.0121658
-0.0123584
-0.0124192
-0.0124617
-0.0125012
-0.0125381
-0.012572
-0.0126031
-0.0126316
-0.012658
-0.0126825
-0.0127052
-0.0127264
-0.0127463
-0.0127649
-0.0127825
-0.0127991
-0.0128147
-0.0128296
-0.0128437
-0.0128572
-0.01287
-0.0128823
21.6786
21.6837
21.6891
21.6938
21.698
21.7017
21.7051
21.7081
21.7107
21.7129
21.7146
21.716
21.717
21.7176
21.7177
21.7174
21.7168
21.7156
21.7137
21.7114
21.7111
21.7186
21.7303
21.6748
21.4224
6.66919
-0.0132204
-0.0134332
-0.0136141
-0.0136431
-0.0136463
-0.0136507
-0.0136587
-0.0136683
-0.0136785
-0.0136889
-0.0136995
-0.0137103
-0.0137212
-0.0137321
-0.0137429
-0.0137537
-0.0137643
-0.0137747
-0.013785
-0.0137951
-0.013805
-0.0138147
-0.0138242
-0.0138334
23.225
23.2267
23.2292
23.2319
23.235
23.2383
23.2418
23.2457
23.2499
23.2544
23.2592
23.2643
23.2697
23.2754
23.2816
23.2881
23.2949
23.3021
23.309
23.3159
23.3274
23.355
23.3951
23.325
22.8657
14.4336
-0.00794213
-0.0144164
-0.0145844
-0.0146272
-0.0146372
-0.0146392
-0.0146425
-0.0146473
-0.0146527
-0.0146583
-0.014664
-0.01467
-0.0146761
-0.0146824
-0.0146888
-0.0146953
-0.0147019
-0.0147085
-0.0147152
-0.0147219
-0.0147286
-0.0147354
-0.0147421
-0.0147488
24.4487
24.4528
24.4571
24.4612
24.465
24.4687
24.4724
24.476
24.4796
24.4831
24.4865
24.4898
24.4931
24.4963
24.4995
24.5026
24.5058
24.5087
24.5105
24.5113
24.5186
24.5527
24.6127
24.5052
23.7143
22.3177
0.949833
-0.0152883
-0.0155013
-0.0156238
-0.0156563
-0.0156594
-0.0156611
-0.0156652
-0.0156703
-0.0156755
-0.0156806
-0.0156857
-0.0156908
-0.0156959
-0.015701
-0.0157061
-0.0157111
-0.0157161
-0.0157211
-0.015726
-0.0157309
-0.0157358
-0.0157406
-0.0157454
25.9321
25.9362
25.9409
25.9456
25.9501
25.9546
25.9591
25.9635
25.968
25.9724
25.9767
25.9811
25.9854
25.9896
25.9938
25.9979
26.002
26.006
26.0097
26.0128
26.0158
26.0218
26.0419
26.0646
26.0108
25.6715
12.5765
0.0168558
-0.0164357
-0.0164782
-0.0165448
-0.0165597
-0.0165676
-0.0165763
-0.0165852
-0.0165938
-0.0166018
-0.0166094
-0.0166165
-0.0166233
-0.0166298
-0.0166359
-0.0166418
-0.0166474
-0.0166528
-0.016658
-0.016663
-0.0166678
-0.0166725
-0.016677
-0.000412548
-0.000412427
-0.000412312
-0.000412205
-0.000412104
-0.00041201
-0.000411922
-0.000411841
-0.000411765
-0.000411695
-0.000411631
-0.000411573
-0.00041152
-0.000411472
-0.000411429
-0.000411391
-0.000411358
-0.00041133
-0.000411306
-0.000411287
-0.000411271
-0.00041126
-0.000411253
-0.00041125
-0.000411251
-0.000411255
-0.000411263
-0.000411274
-0.000411288
-0.000411305
-0.000411326
-0.000411349
-0.000411375
-0.000411404
-0.000411436
-0.000411469
-0.000411506
-0.000411544
-0.000411584
-0.000411627
-0.000411671
-0.000411717
-0.000411765
-0.000411814
-0.000411864
-0.000411916
-0.00041197
-0.000412028
-0.000412084
-0.000412102
-0.00129081
-0.00129027
-0.00128975
-0.00128925
-0.00128878
-0.00128832
-0.00128789
-0.00128747
-0.00128707
-0.00128669
-0.00128632
-0.00128597
-0.00128563
-0.00128531
-0.001285
-0.0012847
-0.00128442
-0.00128414
-0.00128388
-0.00128362
-0.00128338
-0.00128314
-0.00128292
-0.0012827
-0.00128249
-0.00128229
-0.00128209
-0.00128191
-0.00128173
-0.00128156
-0.00128139
-0.00128123
-0.00128107
-0.00128092
-0.00128078
-0.00128064
-0.00128051
-0.00128038
-0.00128026
-0.00128014
-0.00128003
-0.00127991
-0.00127981
-0.00127971
-0.00127961
-0.00127951
-0.00127942
-0.00127933
-0.00127924
-0.00127919
-0.00212098
-0.00212049
-0.00212002
-0.00211957
-0.00211914
-0.00211874
-0.00211835
-0.00211798
-0.00211763
-0.00211729
-0.00211698
-0.00211667
-0.00211638
-0.00211611
-0.00211585
-0.0021156
-0.00211536
-0.00211514
-0.00211493
-0.00211472
-0.00211453
-0.00211435
-0.00211418
-0.00211401
-0.00211386
-0.00211371
-0.00211357
-0.00211344
-0.00211332
-0.0021132
-0.00211309
-0.00211299
-0.00211289
-0.0021128
-0.00211271
-0.00211263
-0.00211256
-0.00211249
-0.00211242
-0.00211236
-0.0021123
-0.00211225
-0.0021122
-0.00211215
-0.0021121
-0.00211206
-0.00211202
-0.00211199
-0.00211196
-0.0021119
-0.00298472
-0.00298413
-0.00298357
-0.00298302
-0.00298248
-0.00298197
-0.00298147
-0.00298098
-0.00298051
-0.00298006
-0.00297962
-0.0029792
-0.00297878
-0.00297839
-0.002978
-0.00297763
-0.00297728
-0.00297693
-0.0029766
-0.00297628
-0.00297597
-0.00297567
-0.00297539
-0.00297511
-0.00297485
-0.00297459
-0.00297435
-0.00297411
-0.00297388
-0.00297367
-0.00297346
-0.00297326
-0.00297307
-0.00297288
-0.00297271
-0.00297254
-0.00297238
-0.00297222
-0.00297207
-0.00297193
-0.0029718
-0.00297167
-0.00297155
-0.00297143
-0.00297132
-0.00297121
-0.00297111
-0.00297101
-0.00297092
-0.00297085
-0.00381086
-0.00381067
-0.00381049
-0.00381031
-0.00381014
-0.00380997
-0.0038098
-0.00380964
-0.00380949
-0.00380933
-0.00380919
-0.00380905
-0.00380891
-0.00380878
-0.00380865
-0.00380853
-0.00380842
-0.00380831
-0.0038082
-0.0038081
-0.00380801
-0.00380792
-0.00380784
-0.00380776
-0.00380768
-0.00380761
-0.00380755
-0.00380749
-0.00380743
-0.00380738
-0.00380733
-0.00380729
-0.00380725
-0.00380721
-0.00380718
-0.00380715
-0.00380712
-0.0038071
-0.00380708
-0.00380706
-0.00380705
-0.00380704
-0.00380703
-0.00380702
-0.00380701
-0.00380701
-0.003807
-0.003807
-0.003807
-0.00380698
-0.00467074
-0.00467028
-0.00466982
-0.00466938
-0.00466895
-0.00466853
-0.00466813
-0.00466773
-0.00466735
-0.00466698
-0.00466662
-0.00466627
-0.00466594
-0.00466562
-0.00466531
-0.00466501
-0.00466472
-0.00466445
-0.00466419
-0.00466394
-0.0046637
-0.00466347
-0.00466326
-0.00466306
-0.00466286
-0.00466268
-0.00466251
-0.00466234
-0.00466219
-0.00466205
-0.00466192
-0.00466179
-0.00466168
-0.00466157
-0.00466147
-0.00466138
-0.0046613
-0.00466122
-0.00466115
-0.00466109
-0.00466103
-0.00466098
-0.00466094
-0.0046609
-0.00466086
-0.00466083
-0.00466081
-0.00466079
-0.00466077
-0.00466077
-0.0054919
-0.00549205
-0.00549219
-0.00549233
-0.00549245
-0.00549258
-0.0054927
-0.00549281
-0.00549293
-0.00549304
-0.00549315
-0.00549326
-0.00549337
-0.00549348
-0.00549359
-0.0054937
-0.00549382
-0.00549393
-0.00549405
-0.00549417
-0.00549429
-0.00549442
-0.00549454
-0.00549467
-0.0054948
-0.00549494
-0.00549507
-0.00549521
-0.00549535
-0.0054955
-0.00549564
-0.00549579
-0.00549594
-0.00549609
-0.00549625
-0.0054964
-0.00549656
-0.00549671
-0.00549687
-0.00549703
-0.00549719
-0.00549735
-0.00549751
-0.00549767
-0.00549783
-0.00549799
-0.00549815
-0.0054983
-0.00549846
-0.00549859
-0.00635527
-0.00635441
-0.00635362
-0.00635287
-0.00635217
-0.00635153
-0.00635092
-0.00635036
-0.00634985
-0.00634937
-0.00634894
-0.00634854
-0.00634817
-0.00634784
-0.00634754
-0.00634728
-0.00634704
-0.00634683
-0.00634665
-0.00634649
-0.00634636
-0.00634626
-0.00634617
-0.00634611
-0.00634607
-0.00634604
-0.00634604
-0.00634605
-0.00634608
-0.00634613
-0.00634619
-0.00634626
-0.00634635
-0.00634644
-0.00634655
-0.00634667
-0.0063468
-0.00634694
-0.00634709
-0.00634725
-0.00634741
-0.00634758
-0.00634775
-0.00634793
-0.00634812
-0.00634831
-0.0063485
-0.00634869
-0.00634889
-0.00634909
-0.00717078
-0.00717078
-0.00717083
-0.00717089
-0.00717099
-0.00717112
-0.00717127
-0.00717144
-0.00717164
-0.00717186
-0.00717211
-0.00717237
-0.00717265
-0.00717295
-0.00717327
-0.0071736
-0.00717395
-0.00717431
-0.00717468
-0.00717507
-0.00717547
-0.00717589
-0.00717631
-0.00717674
-0.00717718
-0.00717763
-0.00717808
-0.00717854
-0.00717901
-0.00717949
-0.00717997
-0.00718045
-0.00718094
-0.00718142
-0.00718192
-0.00718241
-0.0071829
-0.0071834
-0.00718389
-0.00718439
-0.00718488
-0.00718538
-0.00718587
-0.00718636
-0.00718684
-0.00718732
-0.0071878
-0.00718828
-0.00718874
-0.00718919
-0.00800886
-0.00800889
-0.00800897
-0.00800909
-0.00800925
-0.00800945
-0.00800969
-0.00800997
-0.00801028
-0.00801062
-0.008011
-0.00801141
-0.00801184
-0.0080123
-0.00801279
-0.0080133
-0.00801383
-0.00801439
-0.00801496
-0.00801556
-0.00801617
-0.00801679
-0.00801744
-0.00801809
-0.00801876
-0.00801944
-0.00802013
-0.00802083
-0.00802154
-0.00802225
-0.00802297
-0.00802369
-0.00802442
-0.00802516
-0.00802589
-0.00802663
-0.00802736
-0.0080281
-0.00802884
-0.00802957
-0.0080303
-0.00803103
-0.00803175
-0.00803247
-0.00803319
-0.00803389
-0.00803459
-0.00803529
-0.00803597
-0.00803665
-0.0088276
-0.00882841
-0.00882925
-0.00883013
-0.00883104
-0.00883198
-0.00883295
-0.00883395
-0.00883498
-0.00883603
-0.0088371
-0.0088382
-0.00883931
-0.00884044
-0.00884159
-0.00884275
-0.00884392
-0.00884511
-0.0088463
-0.00884751
-0.00884872
-0.00884994
-0.00885116
-0.00885238
-0.00885361
-0.00885484
-0.00885607
-0.0088573
-0.00885853
-0.00885975
-0.00886097
-0.00886219
-0.0088634
-0.0088646
-0.0088658
-0.00886698
-0.00886816
-0.00886933
-0.00887049
-0.00887164
-0.00887278
-0.0088739
-0.00887501
-0.00887611
-0.00887719
-0.00887826
-0.00887932
-0.00888036
-0.00888137
-0.00888238
-0.00963641
-0.00963823
-0.00964009
-0.00964197
-0.00964389
-0.00964584
-0.00964781
-0.0096498
-0.00965182
-0.00965384
-0.00965589
-0.00965794
-0.00966001
-0.00966208
-0.00966415
-0.00966623
-0.00966831
-0.00967039
-0.00967247
-0.00967454
-0.00967661
-0.00967867
-0.00968071
-0.00968275
-0.00968478
-0.00968679
-0.00968879
-0.00969077
-0.00969274
-0.00969469
-0.00969661
-0.00969852
-0.00970041
-0.00970228
-0.00970412
-0.00970594
-0.00970774
-0.00970951
-0.00971126
-0.00971298
-0.00971467
-0.00971634
-0.00971798
-0.0097196
-0.00972118
-0.00972274
-0.00972427
-0.00972577
-0.00972723
-0.00972866
-0.0104594
-0.0104624
-0.0104654
-0.0104684
-0.0104714
-0.0104745
-0.0104775
-0.0104806
-0.0104837
-0.0104867
-0.0104898
-0.0104928
-0.0104958
-0.0104989
-0.0105018
-0.0105048
-0.0105078
-0.0105107
-0.0105136
-0.0105165
-0.0105193
-0.0105222
-0.010525
-0.0105277
-0.0105304
-0.0105331
-0.0105358
-0.0105384
-0.010541
-0.0105435
-0.010546
-0.0105485
-0.0105509
-0.0105533
-0.0105556
-0.0105579
-0.0105602
-0.0105624
-0.0105646
-0.0105668
-0.0105689
-0.0105709
-0.010573
-0.010575
-0.0105769
-0.0105788
-0.0105807
-0.0105825
-0.0105843
-0.010586
-0.0112396
-0.0112454
-0.011251
-0.0112567
-0.0112623
-0.0112678
-0.0112733
-0.0112787
-0.011284
-0.0112893
-0.0112945
-0.0112996
-0.0113047
-0.0113096
-0.0113145
-0.0113193
-0.0113241
-0.0113287
-0.0113333
-0.0113378
-0.0113422
-0.0113465
-0.0113508
-0.0113549
-0.011359
-0.011363
-0.011367
-0.0113708
-0.0113746
-0.0113783
-0.0113819
-0.0113854
-0.0113889
-0.0113923
-0.0113956
-0.0113989
-0.011402
-0.0114051
-0.0114081
-0.0114111
-0.011414
-0.0114168
-0.0114196
-0.0114222
-0.0114249
-0.0114274
-0.0114299
-0.0114323
-0.0114347
-0.0114369
-0.0120804
-0.0120888
-0.012097
-0.012105
-0.0121128
-0.0121204
-0.0121277
-0.0121349
-0.0121419
-0.0121487
-0.0121553
-0.0121618
-0.0121681
-0.0121742
-0.0121801
-0.0121859
-0.0121916
-0.0121971
-0.0122024
-0.0122076
-0.0122127
-0.0122177
-0.0122225
-0.0122272
-0.0122318
-0.0122362
-0.0122406
-0.0122448
-0.0122489
-0.012253
-0.0122569
-0.0122607
-0.0122644
-0.012268
-0.0122716
-0.012275
-0.0122784
-0.0122816
-0.0122848
-0.0122879
-0.0122909
-0.0122938
-0.0122967
-0.0122994
-0.0123021
-0.0123048
-0.0123073
-0.0123098
-0.0123122
-0.0123145
-0.0128941
-0.0129054
-0.0129162
-0.0129267
-0.0129367
-0.0129464
-0.0129558
-0.0129648
-0.0129736
-0.0129821
-0.0129903
-0.0129982
-0.0130059
-0.0130134
-0.0130206
-0.0130277
-0.0130345
-0.0130412
-0.0130476
-0.0130539
-0.01306
-0.0130659
-0.0130717
-0.0130773
-0.0130828
-0.0130881
-0.0130933
-0.0130983
-0.0131032
-0.013108
-0.0131127
-0.0131172
-0.0131216
-0.0131259
-0.01313
-0.0131341
-0.013138
-0.0131418
-0.0131455
-0.0131492
-0.0131527
-0.0131561
-0.0131594
-0.0131626
-0.0131657
-0.0131688
-0.0131717
-0.0131745
-0.0131773
-0.0131799
-0.0138424
-0.0138512
-0.0138598
-0.0138682
-0.0138763
-0.0138843
-0.013892
-0.0138995
-0.0139068
-0.013914
-0.0139209
-0.0139276
-0.0139342
-0.0139406
-0.0139468
-0.0139529
-0.0139588
-0.0139645
-0.0139701
-0.0139755
-0.0139808
-0.0139859
-0.0139909
-0.0139958
-0.0140005
-0.0140052
-0.0140096
-0.014014
-0.0140182
-0.0140224
-0.0140264
-0.0140303
-0.0140341
-0.0140377
-0.0140413
-0.0140448
-0.0140482
-0.0140514
-0.0140546
-0.0140577
-0.0140607
-0.0140636
-0.0140664
-0.0140691
-0.0140718
-0.0140743
-0.0140768
-0.0140792
-0.0140815
-0.0140838
-0.0147554
-0.014762
-0.0147686
-0.014775
-0.0147814
-0.0147878
-0.014794
-0.0148002
-0.0148063
-0.0148123
-0.0148182
-0.014824
-0.0148297
-0.0148353
-0.0148408
-0.0148462
-0.0148515
-0.0148567
-0.0148618
-0.0148668
-0.0148716
-0.0148764
-0.0148811
-0.0148857
-0.0148901
-0.0148945
-0.0148988
-0.0149029
-0.014907
-0.014911
-0.0149148
-0.0149186
-0.0149223
-0.0149258
-0.0149293
-0.0149327
-0.014936
-0.0149392
-0.0149423
-0.0149453
-0.0149483
-0.0149511
-0.0149539
-0.0149565
-0.0149591
-0.0149616
-0.014964
-0.0149664
-0.0149686
-0.0149707
-0.0157501
-0.0157548
-0.0157594
-0.015764
-0.0157685
-0.015773
-0.0157773
-0.0157817
-0.0157859
-0.0157901
-0.0157942
-0.0157983
-0.0158023
-0.0158062
-0.01581
-0.0158138
-0.0158175
-0.0158211
-0.0158247
-0.0158282
-0.0158316
-0.0158349
-0.0158382
-0.0158414
-0.0158445
-0.0158476
-0.0158506
-0.0158535
-0.0158563
-0.0158591
-0.0158618
-0.0158644
-0.015867
-0.0158694
-0.0158719
-0.0158742
-0.0158765
-0.0158787
-0.0158808
-0.0158829
-0.0158848
-0.0158868
-0.0158886
-0.0158904
-0.0158921
-0.0158938
-0.0158954
-0.0158969
-0.0158983
-0.0158997
-0.0166814
-0.0166857
-0.0166899
-0.0166939
-0.0166979
-0.0167018
-0.0167056
-0.0167093
-0.0167129
-0.0167164
-0.0167199
-0.0167234
-0.0167267
-0.01673
-0.0167333
-0.0167364
-0.0167395
-0.0167426
-0.0167456
-0.0167485
-0.0167514
-0.0167542
-0.016757
-0.0167597
-0.0167624
-0.016765
-0.0167675
-0.01677
-0.0167724
-0.0167747
-0.016777
-0.0167793
-0.0167814
-0.0167835
-0.0167856
-0.0167876
-0.0167895
-0.0167913
-0.0167931
-0.0167949
-0.0167965
-0.0167981
-0.0167997
-0.0168011
-0.0168025
-0.0168039
-0.0168051
-0.0168063
-0.0168075
-0.0168085
-0.000412051
-0.000412045
-0.000412067
-0.000412095
-0.000412124
-0.000412152
-0.000412181
-0.000412211
-0.000412242
-0.000412274
-0.000412307
-0.000412341
-0.000412376
-0.000412412
-0.000412448
-0.000412486
-0.000412524
-0.000412563
-0.000412603
-0.000412644
-0.000412686
-0.000412729
-0.000412773
-0.000412818
-0.000412863
-0.000412909
-0.000412957
-0.000413005
-0.000413054
-0.000413103
-0.000413154
-0.000413205
-0.000413258
-0.000413311
-0.000413364
-0.000413419
-0.000413474
-0.00041353
-0.000413587
-0.000413644
-0.000413702
-0.000413761
-0.00041382
-0.00041388
-0.00041394
-0.000414001
-0.000414063
-0.000414125
-0.000414188
-0.000414251
-0.000414315
-0.000414379
-0.000414444
-0.000414509
-0.000414574
-0.00041464
-0.000414706
-0.000414772
-0.000414839
-0.000414906
-0.000414974
-0.000415041
-0.000415109
-0.000415177
-0.000415245
-0.000415313
-0.000415382
-0.00041545
-0.000415519
-0.000415587
-0.000415656
-0.000415725
-0.000415793
-0.000415862
-0.00041593
-0.000415998
-0.000416067
-0.000416135
-0.000416202
-0.00041627
-0.000416337
-0.000416405
-0.000416471
-0.000416538
-0.000416604
-0.00041667
-0.000416735
-0.0004168
-0.000416865
-0.000416929
-0.000416992
-0.000417055
-0.000417118
-0.000417179
-0.000417241
-0.000417301
-0.000417361
-0.00041742
-0.000417479
-0.000417536
-0.000417593
-0.00041765
-0.000417705
-0.000417759
-0.000417813
-0.000417865
-0.000417917
-0.000417968
-0.000418018
-0.000418066
-0.000418114
-0.000418161
-0.000418206
-0.000418251
-0.000418294
-0.000418336
-0.000418377
-0.000418417
-0.000418456
-0.000418493
-0.000418529
-0.000418564
-0.000418597
-0.000418629
-0.00041866
-0.000418689
-0.000418717
-0.000418744
-0.000418769
-0.000418792
-0.000418815
-0.000418835
-0.000418854
-0.000418872
-0.000418888
-0.000418903
-0.000418915
-0.000418927
-0.000418936
-0.000418945
-0.000418951
-0.000418956
-0.000418959
-0.00041896
-0.00041896
-0.000418958
-0.000418955
-0.00041895
-0.000418942
-0.000418934
-0.000418923
-0.000418911
-0.000418897
-0.000418881
-0.000418864
-0.000418844
-0.000418823
-0.000418801
-0.000418776
-0.00041875
-0.000418722
-0.000418692
-0.00041866
-0.000418627
-0.000418591
-0.000418554
-0.000418516
-0.000418475
-0.000418433
-0.000418389
-0.000418343
-0.000418295
-0.000418246
-0.000418195
-0.000418142
-0.000418088
-0.000418032
-0.000417974
-0.000417914
-0.000417853
-0.00041779
-0.000417726
-0.000417659
-0.000417592
-0.000417522
-0.000417451
-0.000417378
-0.000417304
-0.000417229
-0.000417151
-0.000417073
-0.000416992
-0.000416911
-0.000416827
-0.000416743
-0.000416656
-0.000416569
-0.00041648
-0.00041639
-0.000416298
-0.000416205
-0.000416111
-0.000416015
-0.000415919
-0.00041582
-0.000415721
-0.000415621
-0.000415519
-0.000415416
-0.000415313
-0.000415208
-0.000415101
-0.000414994
-0.000414886
-0.000414777
-0.000414667
-0.000414556
-0.000414444
-0.000414331
-0.000414218
-0.000414103
-0.000413988
-0.000413872
-0.000413755
-0.000413638
-0.00041352
-0.000413401
-0.000413281
-0.000413161
-0.000413041
-0.00041292
-0.000412798
-0.000412676
-0.000412553
-0.00041243
-0.000412307
-0.000412183
-0.000412059
-0.000411935
-0.00041181
-0.000411686
-0.000411561
-0.000411436
-0.00041131
-0.000411185
-0.00041106
-0.000410934
-0.000410809
-0.000410683
-0.000410558
-0.000410433
-0.000410308
-0.000410183
-0.000410058
-0.000409933
-0.000409809
-0.000409685
-0.000409561
-0.000409438
-0.000409314
-0.000409192
-0.00040907
-0.000408948
-0.000408826
-0.000408706
-0.000408585
-0.000408466
-0.000408347
-0.000408228
-0.00040811
-0.000407993
-0.000407876
-0.00040776
-0.000407645
-0.000407531
-0.000407417
-0.000407304
-0.000407192
-0.00040708
-0.00040697
-0.00040686
-0.000406751
-0.000406643
-0.000406536
-0.000406429
-0.000406323
-0.000406218
-0.000406114
-0.00040601
-0.000405908
-0.000405806
-0.000405704
-0.000405603
-0.000405503
-0.000405403
-0.000405303
-0.000405204
-0.000405105
-0.000405006
-0.00040491
-0.00127919
-0.00127916
-0.0012791
-0.00127903
-0.00127896
-0.0012789
-0.00127883
-0.00127876
-0.00127869
-0.00127863
-0.00127856
-0.00127849
-0.00127842
-0.00127835
-0.00127828
-0.00127821
-0.00127813
-0.00127806
-0.00127799
-0.00127792
-0.00127784
-0.00127777
-0.0012777
-0.00127762
-0.00127755
-0.00127747
-0.0012774
-0.00127732
-0.00127724
-0.00127717
-0.00127709
-0.00127701
-0.00127693
-0.00127685
-0.00127677
-0.00127669
-0.00127661
-0.00127653
-0.00127645
-0.00127637
-0.00127629
-0.0012762
-0.00127612
-0.00127604
-0.00127595
-0.00127587
-0.00127578
-0.0012757
-0.00127561
-0.00127552
-0.00127543
-0.00127535
-0.00127526
-0.00127517
-0.00127508
-0.00127499
-0.00127489
-0.0012748
-0.00127471
-0.00127461
-0.00127452
-0.00127442
-0.00127433
-0.00127423
-0.00127413
-0.00127404
-0.00127394
-0.00127384
-0.00127374
-0.00127364
-0.00127353
-0.00127343
-0.00127333
-0.00127322
-0.00127312
-0.00127301
-0.0012729
-0.0012728
-0.00127269
-0.00127258
-0.00127247
-0.00127236
-0.00127224
-0.00127213
-0.00127202
-0.0012719
-0.00127178
-0.00127167
-0.00127155
-0.00127143
-0.00127131
-0.00127119
-0.00127107
-0.00127094
-0.00127082
-0.00127069
-0.00127057
-0.00127044
-0.00127031
-0.00127018
-0.00127005
-0.00126992
-0.00126978
-0.00126965
-0.00126951
-0.00126938
-0.00126924
-0.0012691
-0.00126896
-0.00126882
-0.00126868
-0.00126853
-0.00126839
-0.00126824
-0.00126809
-0.00126794
-0.00126779
-0.00126764
-0.00126749
-0.00126733
-0.00126718
-0.00126702
-0.00126686
-0.0012667
-0.00126654
-0.00126638
-0.00126621
-0.00126605
-0.00126588
-0.00126571
-0.00126554
-0.00126537
-0.00126519
-0.00126502
-0.00126484
-0.00126466
-0.00126448
-0.0012643
-0.00126412
-0.00126393
-0.00126375
-0.00126356
-0.00126337
-0.00126318
-0.00126299
-0.00126279
-0.0012626
-0.0012624
-0.0012622
-0.001262
-0.00126179
-0.00126159
-0.00126138
-0.00126117
-0.00126096
-0.00126075
-0.00126053
-0.00126032
-0.0012601
-0.00125988
-0.00125966
-0.00125943
-0.00125921
-0.00125898
-0.00125875
-0.00125852
-0.00125828
-0.00125805
-0.00125781
-0.00125757
-0.00125733
-0.00125708
-0.00125684
-0.00125659
-0.00125634
-0.00125609
-0.00125583
-0.00125558
-0.00125532
-0.00125506
-0.0012548
-0.00125453
-0.00125427
-0.001254
-0.00125373
-0.00125345
-0.00125318
-0.0012529
-0.00125262
-0.00125234
-0.00125205
-0.00125177
-0.00125148
-0.00125119
-0.0012509
-0.0012506
-0.00125031
-0.00125001
-0.00124971
-0.00124941
-0.0012491
-0.00124879
-0.00124848
-0.00124817
-0.00124786
-0.00124754
-0.00124723
-0.00124691
-0.00124659
-0.00124626
-0.00124594
-0.00124561
-0.00124528
-0.00124495
-0.00124462
-0.00124428
-0.00124395
-0.00124361
-0.00124327
-0.00124293
-0.00124259
-0.00124224
-0.00124189
-0.00124155
-0.0012412
-0.00124084
-0.00124049
-0.00124014
-0.00123978
-0.00123942
-0.00123907
-0.00123871
-0.00123835
-0.00123798
-0.00123762
-0.00123726
-0.00123689
-0.00123652
-0.00123616
-0.00123579
-0.00123542
-0.00123505
-0.00123468
-0.00123431
-0.00123393
-0.00123356
-0.00123319
-0.00123282
-0.00123244
-0.00123207
-0.00123169
-0.00123132
-0.00123095
-0.00123057
-0.0012302
-0.00122982
-0.00122945
-0.00122907
-0.0012287
-0.00122833
-0.00122796
-0.00122759
-0.00122721
-0.00122684
-0.00122648
-0.00122611
-0.00122574
-0.00122537
-0.00122501
-0.00122465
-0.00122428
-0.00122392
-0.00122356
-0.00122321
-0.00122285
-0.0012225
-0.00122215
-0.0012218
-0.00122145
-0.0012211
-0.00122076
-0.00122042
-0.00122008
-0.00121974
-0.00121941
-0.00121907
-0.00121875
-0.00121842
-0.00121809
-0.00121777
-0.00121745
-0.00121714
-0.00121682
-0.00121651
-0.0012162
-0.0012159
-0.00121559
-0.00121529
-0.00121499
-0.0012147
-0.00211179
-0.00211173
-0.00211168
-0.00211164
-0.0021116
-0.00211157
-0.00211153
-0.00211149
-0.00211145
-0.00211142
-0.00211138
-0.00211135
-0.00211132
-0.00211128
-0.00211125
-0.00211122
-0.00211119
-0.00211116
-0.00211114
-0.00211111
-0.00211108
-0.00211106
-0.00211103
-0.00211101
-0.00211098
-0.00211096
-0.00211094
-0.00211092
-0.0021109
-0.00211087
-0.00211086
-0.00211084
-0.00211082
-0.0021108
-0.00211078
-0.00211076
-0.00211075
-0.00211073
-0.00211072
-0.0021107