/*--------------------------------*- C++ -*----------------------------------*\
| =========                 |                                                 |
| \\      /  F ield         | OpenFOAM: The Open Source CFD Toolbox           |
|  \\    /   O peration     | Version:  2.4.0                                 |
|   \\  /    A nd           | Web:      www.OpenFOAM.org                      |
|    \\/     M anipulation  |                                                 |
\*---------------------------------------------------------------------------*/
FoamFile
{
    version     2.0;
    format      ascii;
    class       volVectorField;
    location    "2.2";
    object      U;
}
// * * * * * * * * * * * * * * * * * * * * * * * * * * * * * * * * * * * * * //

dimensions      [0 1 -1 0 0 0 0];

internalField   nonuniform List<vector> 
8000
(
(-1.68802e-07 -0.000187478 0)
(-1.075e-06 -0.000546602 0)
(-2.6609e-06 -0.000890087 0)
(-4.80834e-06 -0.0012181 0)
(-7.41755e-06 -0.00153079 0)
(-1.04176e-05 -0.00182827 0)
(-1.37481e-05 -0.00211064 0)
(-1.73586e-05 -0.00237799 0)
(-2.11976e-05 -0.0026304 0)
(-2.52235e-05 -0.00286791 0)
(-2.93898e-05 -0.00309057 0)
(-3.36614e-05 -0.0032984 0)
(-3.79934e-05 -0.00349143 0)
(-4.23549e-05 -0.00366967 0)
(-4.66984e-05 -0.0038331 0)
(-5.09933e-05 -0.00398171 0)
(-5.51831e-05 -0.00411547 0)
(-5.92422e-05 -0.00423433 0)
(-6.31406e-05 -0.00433825 0)
(-6.69161e-05 -0.00442714 0)
(-7.03883e-05 -0.00450096 0)
(-7.26299e-05 -0.00455954 0)
(-7.1806e-05 -0.00460255 0)
(-7.04174e-05 -0.00462951 0)
(-9.1667e-05 -0.00464116 0)
(-0.000175191 -0.00464283 0)
(-0.000301944 -0.00464311 0)
(-0.000432784 -0.004643 0)
(-0.000538906 -0.00474884 0)
(-0.000384665 -0.00487235 0)
(-0.000374501 -0.00501052 0)
(-0.000382906 -0.00515901 0)
(-0.000389298 -0.00530823 0)
(-0.000391995 -0.00544898 0)
(-0.000393881 -0.00557473 0)
(-0.000395944 -0.00568161 0)
(-0.00039821 -0.00576791 0)
(-0.000400574 -0.00583363 0)
(-0.000402997 -0.0058799 0)
(-0.000405479 -0.00590866 0)
(-0.000408021 -0.00592218 0)
(-0.000410623 -0.0059229 0)
(-0.00041328 -0.00591315 0)
(-0.000415991 -0.00589507 0)
(-0.000418751 -0.00587054 0)
(-0.000421559 -0.00584113 0)
(-0.00042441 -0.00580816 0)
(-0.000427304 -0.00577267 0)
(-0.000430237 -0.00573549 0)
(-0.000433207 -0.00569725 0)
(-3.8074e-08 -0.000177797 0)
(-6.51492e-07 -0.000520168 0)
(-1.9107e-06 -0.00084919 0)
(-3.77108e-06 -0.00116475 0)
(-6.15171e-06 -0.00146676 0)
(-8.98402e-06 -0.00175515 0)
(-1.22078e-05 -0.00202985 0)
(-1.57719e-05 -0.00229081 0)
(-1.96239e-05 -0.00253801 0)
(-2.37195e-05 -0.0027714 0)
(-2.80091e-05 -0.00299097 0)
(-3.24535e-05 -0.00319671 0)
(-3.70035e-05 -0.00338861 0)
(-4.16234e-05 -0.00356668 0)
(-4.62611e-05 -0.00373093 0)
(-5.08816e-05 -0.00388136 0)
(-5.54244e-05 -0.00401802 0)
(-5.9861e-05 -0.00414092 0)
(-6.41543e-05 -0.00425012 0)
(-6.83294e-05 -0.00434567 0)
(-7.21964e-05 -0.00442762 0)
(-7.49251e-05 -0.00449605 0)
(-7.49836e-05 -0.00455106 0)
(-7.5088e-05 -0.00459281 0)
(-9.52542e-05 -0.00462144 0)
(-0.000171464 -0.00463788 0)
(-0.000292577 -0.0046405 0)
(-0.000457612 -0.00464105 0)
(-0.00049927 -0.0047151 0)
(-0.000374486 -0.00483224 0)
(-0.000364464 -0.00497103 0)
(-0.000371395 -0.00511972 0)
(-0.000376495 -0.00526801 0)
(-0.000378511 -0.00540737 0)
(-0.000379949 -0.00553159 0)
(-0.000381701 -0.00563684 0)
(-0.000383804 -0.00572147 0)
(-0.000386162 -0.00578548 0)
(-0.000388732 -0.00583007 0)
(-0.000391497 -0.00585717 0)
(-0.000394438 -0.00586911 0)
(-0.000397536 -0.00586832 0)
(-0.00040077 -0.00585713 0)
(-0.000404119 -0.00583769 0)
(-0.000407567 -0.00581188 0)
(-0.000411097 -0.00578127 0)
(-0.000414699 -0.00574715 0)
(-0.00041836 -0.00571059 0)
(-0.000422073 -0.00567239 0)
(-0.00042583 -0.0056332 0)
(-2.99802e-08 -0.000177687 0)
(-2.15483e-07 -0.000519391 0)
(-5.79373e-07 -0.000847417 0)
(-1.11582e-06 -0.00116175 0)
(-1.8191e-06 -0.00146239 0)
(-2.68654e-06 -0.00174932 0)
(-3.71217e-06 -0.00202254 0)
(-4.89208e-06 -0.00228204 0)
(-6.21664e-06 -0.00252782 0)
(-7.68096e-06 -0.00275986 0)
(-9.27286e-06 -0.00297819 0)
(-1.09883e-05 -0.00318278 0)
(-1.28132e-05 -0.00337366 0)
(-1.4746e-05 -0.00355082 0)
(-1.67707e-05 -0.00371428 0)
(-1.88888e-05 -0.00386404 0)
(-2.10806e-05 -0.00400012 0)
(-2.33598e-05 -0.00412254 0)
(-2.57348e-05 -0.00423131 0)
(-2.82744e-05 -0.00432647 0)
(-3.0848e-05 -0.00440803 0)
(-3.276e-05 -0.00447603 0)
(-3.2747e-05 -0.0045305 0)
(-3.37073e-05 -0.00457153 0)
(-5.35623e-05 -0.00459921 0)
(-0.0001275 -0.00461491 0)
(-0.000250855 -0.00461693 0)
(-0.000479491 -0.00462261 0)
(-0.000399039 -0.00470365 0)
(-0.000330354 -0.00482443 0)
(-0.000324271 -0.00496552 0)
(-0.000328984 -0.0051148 0)
(-0.000331658 -0.00526194 0)
(-0.000332707 -0.00539883 0)
(-0.000333929 -0.00551968 0)
(-0.000335887 -0.00562113 0)
(-0.000338555 -0.00570186 0)
(-0.000341822 -0.00576212 0)
(-0.0003456 -0.0058033 0)
(-0.000349812 -0.00582741 0)
(-0.000354382 -0.00583683 0)
(-0.000359234 -0.00583398 0)
(-0.000364299 -0.00582117 0)
(-0.000369521 -0.00580049 0)
(-0.000374849 -0.00577375 0)
(-0.000380246 -0.00574249 0)
(-0.000385679 -0.00570795 0)
(-0.000391127 -0.00567113 0)
(-0.000396572 -0.00563281 0)
(-0.000402002 -0.00559359 0)
(-5.43905e-09 -0.0001759 0)
(-1.2435e-07 -0.000514266 0)
(-3.87836e-07 -0.000839168 0)
(-8.00197e-07 -0.00115058 0)
(-1.3575e-06 -0.00144847 0)
(-2.05933e-06 -0.00173283 0)
(-2.90292e-06 -0.00200363 0)
(-3.89052e-06 -0.00226085 0)
(-5.0186e-06 -0.00250449 0)
(-6.29098e-06 -0.00273453 0)
(-7.70278e-06 -0.00295095 0)
(-9.26015e-06 -0.00315375 0)
(-1.09564e-05 -0.00334292 0)
(-1.28011e-05 -0.00351845 0)
(-1.47848e-05 -0.00368033 0)
(-1.69205e-05 -0.00382857 0)
(-1.91938e-05 -0.00396315 0)
(-2.16303e-05 -0.00408407 0)
(-2.42369e-05 -0.00419133 0)
(-2.70785e-05 -0.00428493 0)
(-3.00044e-05 -0.00436486 0)
(-3.24076e-05 -0.00443112 0)
(-3.33658e-05 -0.00448371 0)
(-3.63093e-05 -0.00452267 0)
(-5.63173e-05 -0.00454808 0)
(-0.000125079 -0.00456232 0)
(-0.000252137 -0.00456314 0)
(-0.000544091 -0.00461764 0)
(-0.000328027 -0.00471455 0)
(-0.000314999 -0.00484025 0)
(-0.000321795 -0.00498063 0)
(-0.000326926 -0.00512461 0)
(-0.000327853 -0.0052629 0)
(-0.000328305 -0.00538865 0)
(-0.000329573 -0.00549736 0)
(-0.000331727 -0.00558671 0)
(-0.000334615 -0.00565612 0)
(-0.000338132 -0.00570632 0)
(-0.000342199 -0.00573892 0)
(-0.000346733 -0.00575601 0)
(-0.000351649 -0.00575987 0)
(-0.000356865 -0.0057528 0)
(-0.000362308 -0.00573692 0)
(-0.000367915 -0.00571412 0)
(-0.000373634 -0.00568604 0)
(-0.000379426 -0.00565404 0)
(-0.000385257 -0.00561921 0)
(-0.000391103 -0.00558243 0)
(-0.000396946 -0.0055444 0)
(-0.000402773 -0.00550562 0)
(-4.78167e-09 -0.000175837 0)
(-3.52033e-08 -0.000513869 0)
(-1.06086e-07 -0.000838249 0)
(-2.27096e-07 -0.00114896 0)
(-4.08125e-07 -0.001446 0)
(-6.62292e-07 -0.00172934 0)
(-9.98503e-07 -0.00199899 0)
(-1.43049e-06 -0.00225493 0)
(-1.9651e-06 -0.00249715 0)
(-2.61708e-06 -0.00272566 0)
(-3.39087e-06 -0.00294043 0)
(-4.30297e-06 -0.00314148 0)
(-5.35465e-06 -0.00332879 0)
(-6.56517e-06 -0.00350236 0)
(-7.93114e-06 -0.0036622 0)
(-9.47486e-06 -0.0038083 0)
(-1.11859e-05 -0.00394067 0)
(-1.30985e-05 -0.0040593 0)
(-1.52173e-05 -0.00416421 0)
(-1.7603e-05 -0.0042554 0)
(-2.009e-05 -0.00433287 0)
(-2.21463e-05 -0.00439664 0)
(-2.31105e-05 -0.00444671 0)
(-2.67428e-05 -0.00448316 0)
(-4.58005e-05 -0.00450611 0)
(-0.000108904 -0.00451851 0)
(-0.000241444 -0.00451929 0)
(-0.000531724 -0.00458578 0)
(-0.000307568 -0.0046929 0)
(-0.000303088 -0.00482262 0)
(-0.000314423 -0.00496357 0)
(-0.000322434 -0.00510572 0)
(-0.000325735 -0.00524052 0)
(-0.000328313 -0.00536165 0)
(-0.000331357 -0.00546515 0)
(-0.000334872 -0.00554913 0)
(-0.000338719 -0.00561338 0)
(-0.000342841 -0.00565887 0)
(-0.000347216 -0.00568734 0)
(-0.000351822 -0.00570093 0)
(-0.00035663 -0.00570195 0)
(-0.000361608 -0.00569263 0)
(-0.000366729 -0.00567504 0)
(-0.000371967 -0.005651 0)
(-0.000377299 -0.00562206 0)
(-0.000382706 -0.00558951 0)
(-0.000388173 -0.00555439 0)
(-0.000393686 -0.00551752 0)
(-0.000399236 -0.00547953 0)
(-0.000404813 -0.00544091 0)
(1.07342e-08 -0.000175678 0)
(7.72458e-08 -0.000513279 0)
(1.82704e-07 -0.000837108 0)
(3.05164e-07 -0.00114714 0)
(4.23361e-07 -0.00144338 0)
(5.14012e-07 -0.00172579 0)
(5.60458e-07 -0.00199437 0)
(5.399e-07 -0.00224911 0)
(4.38186e-07 -0.00249 0)
(2.30836e-07 -0.00271704 0)
(-9.4111e-08 -0.00293022 0)
(-5.64351e-07 -0.00312953 0)
(-1.1896e-06 -0.00331498 0)
(-2.00275e-06 -0.00348656 0)
(-3.01056e-06 -0.00364428 0)
(-4.25282e-06 -0.00378814 0)
(-5.73281e-06 -0.00391815 0)
(-7.50911e-06 -0.00403431 0)
(-9.6019e-06 -0.00413664 0)
(-1.20845e-05 -0.00422517 0)
(-1.47749e-05 -0.00429989 0)
(-1.72215e-05 -0.00436085 0)
(-1.92392e-05 -0.00440807 0)
(-2.57294e-05 -0.00444166 0)
(-4.79867e-05 -0.00446187 0)
(-0.000106726 -0.00447223 0)
(-0.00024868 -0.00447267 0)
(-0.000534816 -0.00454354 0)
(-0.000307237 -0.00465342 0)
(-0.000305911 -0.00478457 0)
(-0.000319929 -0.00492589 0)
(-0.000330134 -0.00506757 0)
(-0.000335349 -0.00520126 0)
(-0.000339631 -0.0053208 0)
(-0.000344139 -0.00542236 0)
(-0.000348857 -0.00550419 0)
(-0.000353645 -0.0055662 0)
(-0.000358467 -0.00560944 0)
(-0.00036333 -0.00563571 0)
(-0.00036824 -0.00564721 0)
(-0.000373201 -0.00564625 0)
(-0.000378213 -0.00563509 0)
(-0.000383272 -0.00561581 0)
(-0.000388377 -0.00559022 0)
(-0.000393527 -0.00555986 0)
(-0.000398717 -0.00552602 0)
(-0.000403945 -0.00548971 0)
(-0.00040921 -0.00545175 0)
(-0.000414508 -0.00541277 0)
(-0.000419838 -0.00537324 0)
(1.50588e-08 -0.000176755 0)
(9.95302e-08 -0.000516019 0)
(2.35456e-07 -0.000841057 0)
(3.99601e-07 -0.00115188 0)
(5.71687e-07 -0.00144852 0)
(7.29147e-07 -0.00173096 0)
(8.58034e-07 -0.00199922 0)
(9.36643e-07 -0.0022533 0)
(9.54634e-07 -0.0024932 0)
(8.88663e-07 -0.00271891 0)
(7.31777e-07 -0.00293041 0)
(4.5723e-07 -0.00312769 0)
(6.16844e-08 -0.00331074 0)
(-4.87243e-07 -0.00347951 0)
(-1.18814e-06 -0.003634 0)
(-2.08114e-06 -0.00377414 0)
(-3.16014e-06 -0.00389992 0)
(-4.48838e-06 -0.00401126 0)
(-6.0743e-06 -0.00410815 0)
(-7.97545e-06 -0.00419047 0)
(-9.92723e-06 -0.0042582 0)
(-1.1466e-05 -0.00431113 0)
(-1.28757e-05 -0.0043491 0)
(-2.06399e-05 -0.00437207 0)
(-4.61231e-05 -0.00438177 0)
(-9.87788e-05 -0.00438562 0)
(-0.000247261 -0.00437862 0)
(-0.000505132 -0.00444765 0)
(-0.000286216 -0.00455733 0)
(-0.000287085 -0.0046888 0)
(-0.000302002 -0.00483118 0)
(-0.000312759 -0.00497444 0)
(-0.000318615 -0.00510996 0)
(-0.00032356 -0.0052314 0)
(-0.0003287 -0.00533482 0)
(-0.000334006 -0.00541842 0)
(-0.000339344 -0.00548205 0)
(-0.000344685 -0.00552676 0)
(-0.00035004 -0.00555433 0)
(-0.000355422 -0.00556699 0)
(-0.000360839 -0.00556705 0)
(-0.000366294 -0.0055568 0)
(-0.000371788 -0.00553831 0)
(-0.000377324 -0.00551343 0)
(-0.000382901 -0.0054837 0)
(-0.000388519 -0.00545041 0)
(-0.000394177 -0.0054146 0)
(-0.000399873 -0.00537709 0)
(-0.000405607 -0.00533852 0)
(-0.000411377 -0.00529936 0)
(-2.18427e-08 -0.000176743 0)
(-2.04095e-07 -0.000515853 0)
(-5.58708e-07 -0.000840618 0)
(-1.07286e-06 -0.00115107 0)
(-1.72908e-06 -0.00144722 0)
(-2.51559e-06 -0.00172909 0)
(-3.42028e-06 -0.00199669 0)
(-4.4353e-06 -0.00225004 0)
(-5.54853e-06 -0.00248913 0)
(-6.75315e-06 -0.00271396 0)
(-8.03534e-06 -0.00292454 0)
(-9.38881e-06 -0.00312085 0)
(-1.07965e-05 -0.00330287 0)
(-1.22517e-05 -0.0034706 0)
(-1.373e-05 -0.00362401 0)
(-1.52209e-05 -0.00376307 0)
(-1.66973e-05 -0.00388775 0)
(-1.81927e-05 -0.00399802 0)
(-1.9749e-05 -0.00409382 0)
(-2.12481e-05 -0.00417514 0)
(-2.15654e-05 -0.00424188 0)
(-1.85583e-05 -0.00429395 0)
(-1.48907e-05 -0.00433117 0)
(-3.87993e-05 -0.00435363 0)
(-0.00013714 -0.00436249 0)
(-0.000285883 -0.00436331 0)
(-0.00046966 -0.00435647 0)
(-0.000657046 -0.00442074 0)
(-0.000419661 -0.00453178 0)
(-0.000406689 -0.0046641 0)
(-0.000415782 -0.00480654 0)
(-0.000420903 -0.00494914 0)
(-0.000420759 -0.00508347 0)
(-0.000419736 -0.0052033 0)
(-0.000419196 -0.00530479 0)
(-0.00041915 -0.0053862 0)
(-0.000419453 -0.00544749 0)
(-0.000420061 -0.00548975 0)
(-0.000420973 -0.00551486 0)
(-0.000422192 -0.00552506 0)
(-0.000423709 -0.00552271 0)
(-0.000425516 -0.00551012 0)
(-0.000427597 -0.00548937 0)
(-0.000429941 -0.00546232 0)
(-0.000432533 -0.00543053 0)
(-0.00043536 -0.00539528 0)
(-0.00043841 -0.00535762 0)
(-0.00044167 -0.00531835 0)
(-0.000445129 -0.00527811 0)
(-0.000448775 -0.00523739 0)
(-3.65053e-08 -0.00017435 0)
(-3.22712e-07 -0.000509223 0)
(-8.71783e-07 -0.000830242 0)
(-1.65739e-06 -0.00113738 0)
(-2.65132e-06 -0.00143063 0)
(-3.82771e-06 -0.00170996 0)
(-5.16934e-06 -0.00197537 0)
(-6.65458e-06 -0.00222684 0)
(-8.26989e-06 -0.00246438 0)
(-9.99318e-06 -0.00268797 0)
(-1.18136e-05 -0.00289762 0)
(-1.37073e-05 -0.00309334 0)
(-1.5666e-05 -0.00327513 0)
(-1.76617e-05 -0.00344301 0)
(-1.96868e-05 -0.00359698 0)
(-2.17049e-05 -0.00373709 0)
(-2.37163e-05 -0.00386333 0)
(-2.57147e-05 -0.00397577 0)
(-2.7768e-05 -0.00407441 0)
(-2.97118e-05 -0.00415935 0)
(-3.06332e-05 -0.00423059 0)
(-2.87471e-05 -0.00428828 0)
(-2.68701e-05 -0.00433248 0)
(-4.8551e-05 -0.00436341 0)
(-0.000134079 -0.00438111 0)
(-0.000265688 -0.00438377 0)
(-0.000440108 -0.00438457 0)
(-0.000493932 -0.00444884 0)
(-0.000352081 -0.00456221 0)
(-0.000341745 -0.00469582 0)
(-0.000348716 -0.00483788 0)
(-0.000353432 -0.00497856 0)
(-0.000354901 -0.00510988 0)
(-0.000355949 -0.00522594 0)
(-0.000357518 -0.00532314 0)
(-0.000359628 -0.00539996 0)
(-0.000362164 -0.0054565 0)
(-0.000365072 -0.005494 0)
(-0.000368322 -0.0055144 0)
(-0.000371889 -0.00552003 0)
(-0.00037574 -0.0055133 0)
(-0.000379845 -0.00549651 0)
(-0.000384175 -0.0054718 0)
(-0.000388705 -0.00544099 0)
(-0.000393413 -0.00540565 0)
(-0.00039828 -0.00536706 0)
(-0.000403291 -0.00532624 0)
(-0.000408432 -0.005284 0)
(-0.000413693 -0.00524096 0)
(-0.000419065 -0.00519759 0)
(1.79422e-10 -0.000173024 0)
(-4.1395e-08 -0.000505432 0)
(-1.41967e-07 -0.000824163 0)
(-3.04857e-07 -0.00112918 0)
(-5.30033e-07 -0.00142046 0)
(-8.1634e-07 -0.00169798 0)
(-1.16347e-06 -0.00196171 0)
(-1.56984e-06 -0.00221164 0)
(-2.03522e-06 -0.00244775 0)
(-2.55741e-06 -0.00267003 0)
(-3.13697e-06 -0.00287847 0)
(-3.77141e-06 -0.00307307 0)
(-4.46314e-06 -0.00325382 0)
(-5.20928e-06 -0.00342072 0)
(-6.01395e-06 -0.00357377 0)
(-6.87199e-06 -0.00371298 0)
(-7.79742e-06 -0.00383835 0)
(-8.81825e-06 -0.00394989 0)
(-1.00079e-05 -0.00404763 0)
(-1.12579e-05 -0.00413155 0)
(-1.18045e-05 -0.00420169 0)
(-1.0221e-05 -0.00425807 0)
(-9.32874e-06 -0.00430076 0)
(-2.88523e-05 -0.00432975 0)
(-0.000107384 -0.00434614 0)
(-0.000236924 -0.00434825 0)
(-0.000504473 -0.00435872 0)
(-0.00036212 -0.00442824 0)
(-0.000314648 -0.00453807 0)
(-0.000311594 -0.00466784 0)
(-0.000315713 -0.00480557 0)
(-0.000317242 -0.00494113 0)
(-0.000317708 -0.00506663 0)
(-0.00031868 -0.0051765 0)
(-0.00032054 -0.00526753 0)
(-0.000323216 -0.0053385 0)
(-0.000326593 -0.0053897 0)
(-0.000330584 -0.00542251 0)
(-0.000335107 -0.00543891 0)
(-0.00034008 -0.00544122 0)
(-0.000345423 -0.00543179 0)
(-0.000351067 -0.00541287 0)
(-0.00035695 -0.00538648 0)
(-0.000363022 -0.0053544 0)
(-0.000369242 -0.00531809 0)
(-0.000375578 -0.00527877 0)
(-0.000382005 -0.0052374 0)
(-0.000388506 -0.00519474 0)
(-0.000395066 -0.00515138 0)
(-0.000401676 -0.00510775 0)
(7.9211e-09 -0.000173654 0)
(7.21321e-08 -0.000507063 0)
(1.91672e-07 -0.000826573 0)
(3.58307e-07 -0.00113218 0)
(5.61352e-07 -0.00142389 0)
(7.92886e-07 -0.0017017 0)
(1.04469e-06 -0.00196561 0)
(1.31072e-06 -0.0022156 0)
(1.58331e-06 -0.00245168 0)
(1.85727e-06 -0.00267385 0)
(2.12477e-06 -0.00288209 0)
(2.38116e-06 -0.0030764 0)
(2.61776e-06 -0.00325678 0)
(2.83038e-06 -0.00342322 0)
(3.01019e-06 -0.00357572 0)
(3.15496e-06 -0.00371427 0)
(3.24885e-06 -0.00383885 0)
(3.25844e-06 -0.00394947 0)
(3.1164e-06 -0.00404612 0)
(2.91613e-06 -0.00412879 0)
(3.37315e-06 -0.00419746 0)
(5.81336e-06 -0.00425213 0)
(7.53173e-06 -0.0042928 0)
(-9.52434e-06 -0.00431945 0)
(-8.46037e-05 -0.00433362 0)
(-0.000216313 -0.00433503 0)
(-0.000521213 -0.00437951 0)
(-0.000291512 -0.00446837 0)
(-0.000280992 -0.00458364 0)
(-0.000287835 -0.0047126 0)
(-0.000292229 -0.00484472 0)
(-0.000292418 -0.00497112 0)
(-0.000292356 -0.00508514 0)
(-0.000293281 -0.00518245 0)
(-0.00029521 -0.00526085 0)
(-0.000297975 -0.00531983 0)
(-0.00030147 -0.00536014 0)
(-0.000305616 -0.00538339 0)
(-0.000310333 -0.00539165 0)
(-0.000315537 -0.00538717 0)
(-0.000321148 -0.00537219 0)
(-0.000327093 -0.00534882 0)
(-0.00033331 -0.00531889 0)
(-0.000339747 -0.00528401 0)
(-0.000346363 -0.0052455 0)
(-0.000353123 -0.00520444 0)
(-0.000360001 -0.00516168 0)
(-0.000366977 -0.0051179 0)
(-0.000374035 -0.00507361 0)
(-0.000381164 -0.00502919 0)
(6.83524e-09 -0.00017391 0)
(8.76082e-08 -0.000507811 0)
(2.54134e-07 -0.000827782 0)
(5.02443e-07 -0.00113382 0)
(8.25008e-07 -0.0014259 0)
(1.21527e-06 -0.00170403 0)
(1.66757e-06 -0.0019682 0)
(2.17582e-06 -0.00221839 0)
(2.73475e-06 -0.0024546 0)
(3.3378e-06 -0.00267682 0)
(3.97986e-06 -0.00288504 0)
(4.65367e-06 -0.00307926 0)
(5.35422e-06 -0.00325946 0)
(6.07349e-06 -0.00342564 0)
(6.80791e-06 -0.00357779 0)
(7.54997e-06 -0.00371589 0)
(8.29158e-06 -0.00383995 0)
(8.99254e-06 -0.00394994 0)
(9.59827e-06 -0.00404587 0)
(1.01943e-05 -0.00412771 0)
(1.15057e-05 -0.00419547 0)
(1.48136e-05 -0.00424912 0)
(1.7387e-05 -0.00428866 0)
(1.70215e-06 -0.00431408 0)
(-7.20645e-05 -0.00432717 0)
(-0.00020626 -0.00432849 0)
(-0.00051418 -0.00437442 0)
(-0.000274114 -0.00446242 0)
(-0.000270161 -0.00457395 0)
(-0.00027963 -0.00469741 0)
(-0.000285354 -0.00482288 0)
(-0.000286546 -0.00494187 0)
(-0.000287368 -0.00504806 0)
(-0.000288947 -0.00513746 0)
(-0.000291239 -0.00520818 0)
(-0.000294077 -0.00525995 0)
(-0.000297391 -0.00529369 0)
(-0.000301147 -0.00531109 0)
(-0.000305312 -0.00531423 0)
(-0.000309847 -0.00530535 0)
(-0.000314715 -0.00528665 0)
(-0.000319879 -0.00526013 0)
(-0.000325309 -0.00522757 0)
(-0.000330976 -0.00519048 0)
(-0.000336858 -0.00515013 0)
(-0.000342935 -0.00510751 0)
(-0.000349189 -0.00506343 0)
(-0.000355607 -0.00501851 0)
(-0.000362177 -0.00497322 0)
(-0.000368888 -0.00492792 0)
(2.13471e-08 -0.000174817 0)
(1.9798e-07 -0.000510415 0)
(5.48198e-07 -0.000831972 0)
(1.06247e-06 -0.00113949 0)
(1.72997e-06 -0.00143296 0)
(2.54211e-06 -0.00171239 0)
(3.49396e-06 -0.00197777 0)
(4.5785e-06 -0.0022291 0)
(5.79249e-06 -0.00246637 0)
(7.12829e-06 -0.00268957 0)
(8.58379e-06 -0.0028987 0)
(1.01502e-05 -0.00309375 0)
(1.18261e-05 -0.00327471 0)
(1.36008e-05 -0.00344157 0)
(1.54749e-05 -0.00359431 0)
(1.7436e-05 -0.00373292 0)
(1.94806e-05 -0.00385739 0)
(2.15586e-05 -0.00396769 0)
(2.3618e-05 -0.00406382 0)
(2.5732e-05 -0.00414575 0)
(2.86576e-05 -0.00421347 0)
(3.37129e-05 -0.00426695 0)
(3.81201e-05 -0.00430614 0)
(2.36478e-05 -0.00433103 0)
(-5.08375e-05 -0.00434345 0)
(-0.000187426 -0.00434482 0)
(-0.000495274 -0.00439419 0)
(-0.00025031 -0.00448329 0)
(-0.000249625 -0.00459397 0)
(-0.000260089 -0.00471498 0)
(-0.000266436 -0.00483681 0)
(-0.000268331 -0.00495132 0)
(-0.000269913 -0.00505252 0)
(-0.000272181 -0.00513665 0)
(-0.000275021 -0.005202 0)
(-0.000278252 -0.00524846 0)
(-0.000281809 -0.00527704 0)
(-0.000285678 -0.00528949 0)
(-0.000289848 -0.00528793 0)
(-0.000294307 -0.00527462 0)
(-0.000299041 -0.00525172 0)
(-0.000304038 -0.00522126 0)
(-0.000309286 -0.00518498 0)
(-0.000314774 -0.00514438 0)
(-0.000320491 -0.00510069 0)
(-0.000326426 -0.00505491 0)
(-0.00033257 -0.00500782 0)
(-0.000338913 -0.00496004 0)
(-0.000345448 -0.00491201 0)
(-0.000352164 -0.00486409 0)
(1.06121e-08 -0.000176223 0)
(1.04591e-07 -0.000514458 0)
(3.15855e-07 -0.000838519 0)
(6.55025e-07 -0.00114844 0)
(1.13322e-06 -0.00144424 0)
(1.76022e-06 -0.00172593 0)
(2.54754e-06 -0.00199351 0)
(3.50215e-06 -0.00224697 0)
(4.63645e-06 -0.00248632 0)
(5.95533e-06 -0.00271155 0)
(7.47355e-06 -0.00292266 0)
(9.19433e-06 -0.00311962 0)
(1.11366e-05 -0.00330242 0)
(1.33021e-05 -0.00347104 0)
(1.5718e-05 -0.00362545 0)
(1.83862e-05 -0.00376562 0)
(2.13381e-05 -0.00389152 0)
(2.45374e-05 -0.00400308 0)
(2.79714e-05 -0.00410028 0)
(3.17358e-05 -0.00418302 0)
(3.67378e-05 -0.00425127 0)
(4.45214e-05 -0.00430489 0)
(5.2403e-05 -0.00434375 0)
(3.9793e-05 -0.0043677 0)
(-3.68265e-05 -0.00437849 0)
(-0.000173388 -0.00437888 0)
(-0.000474476 -0.00439239 0)
(-0.000229577 -0.00446573 0)
(-0.000228843 -0.00456021 0)
(-0.000238284 -0.00466758 0)
(-0.000243551 -0.00477879 0)
(-0.000244407 -0.00488533 0)
(-0.000244854 -0.0049805 0)
(-0.000245832 -0.00505994 0)
(-0.000247235 -0.00512152 0)
(-0.000248919 -0.00516478 0)
(-0.000250863 -0.00519053 0)
(-0.0002531 -0.00520036 0)
(-0.00025566 -0.00519631 0)
(-0.00025857 -0.00518059 0)
(-0.000261847 -0.00515536 0)
(-0.000265501 -0.00512261 0)
(-0.00026954 -0.00508411 0)
(-0.000273963 -0.00504136 0)
(-0.000278767 -0.00499559 0)
(-0.000283944 -0.00494781 0)
(-0.000289483 -0.0048988 0)
(-0.000295372 -0.00484918 0)
(-0.000301597 -0.00479941 0)
(-0.000308142 -0.00474983 0)
(-5.12975e-09 -0.000175905 0)
(8.53515e-08 -0.000514088 0)
(3.33547e-07 -0.000838608 0)
(7.60291e-07 -0.00114943 0)
(1.38425e-06 -0.0014465 0)
(2.21142e-06 -0.0017298 0)
(3.25968e-06 -0.00199928 0)
(4.53062e-06 -0.00225494 0)
(6.04364e-06 -0.00249677 0)
(7.79475e-06 -0.00272477 0)
(9.80756e-06 -0.00293894 0)
(1.20726e-05 -0.00313929 0)
(1.4621e-05 -0.00332582 0)
(1.7438e-05 -0.00349858 0)
(2.05683e-05 -0.00365756 0)
(2.3993e-05 -0.00380281 0)
(2.77694e-05 -0.00393436 0)
(3.18255e-05 -0.00405227 0)
(3.61687e-05 -0.00415659 0)
(4.08695e-05 -0.00424742 0)
(4.70685e-05 -0.00432482 0)
(5.6719e-05 -0.00438889 0)
(6.69944e-05 -0.00443978 0)
(5.15086e-05 -0.004477 0)
(-3.86339e-05 -0.0045005 0)
(-0.000186677 -0.00450625 0)
(-0.00043447 -0.0045049 0)
(-0.000331802 -0.00455543 0)
(-0.000255631 -0.00463609 0)
(-0.000248805 -0.00473695 0)
(-0.000252997 -0.00484433 0)
(-0.00025501 -0.00494868 0)
(-0.00025549 -0.00504227 0)
(-0.000255991 -0.00511993 0)
(-0.000256826 -0.005179 0)
(-0.000257868 -0.0052188 0)
(-0.000259023 -0.00524009 0)
(-0.000260294 -0.00524455 0)
(-0.000261722 -0.00523435 0)
(-0.000263366 -0.00521187 0)
(-0.000265282 -0.00517943 0)
(-0.000267523 -0.00513918 0)
(-0.000270132 -0.00509304 0)
(-0.000273143 -0.00504261 0)
(-0.000276581 -0.00498923 0)
(-0.000280458 -0.00493399 0)
(-0.00028478 -0.00487773 0)
(-0.000289544 -0.00482111 0)
(-0.000294744 -0.00476462 0)
(-0.000300366 -0.00470863 0)
(8.4509e-08 -0.000177739 0)
(8.26315e-07 -0.000519646 0)
(2.28424e-06 -0.000847903 0)
(4.40678e-06 -0.00116245 0)
(7.1276e-06 -0.00146322 0)
(1.0397e-05 -0.00175019 0)
(1.41712e-05 -0.00202332 0)
(1.84194e-05 -0.00228257 0)
(2.30986e-05 -0.00252793 0)
(2.81847e-05 -0.00275939 0)
(3.36317e-05 -0.00297694 0)
(3.94225e-05 -0.00318059 0)
(4.55007e-05 -0.00337032 0)
(5.18637e-05 -0.00354618 0)
(5.84284e-05 -0.00370817 0)
(6.52195e-05 -0.00385633 0)
(7.21273e-05 -0.00399069 0)
(7.91503e-05 -0.00411131 0)
(8.62147e-05 -0.00421821 0)
(9.31743e-05 -0.0043115 0)
(0.000100383 -0.00439121 0)
(0.000108103 -0.00445755 0)
(0.000115205 -0.00451071 0)
(0.000118705 -0.00455066 0)
(0.000111835 -0.00457563 0)
(9.25399e-05 -0.0045815 0)
(-1.51227e-05 -0.00459171 0)
(-0.000128699 -0.00460313 0)
(-2.75303e-06 -0.00464387 0)
(-2.05527e-05 -0.00471086 0)
(-2.48429e-05 -0.0047921 0)
(-2.92895e-05 -0.0048779 0)
(-3.40977e-05 -0.00495964 0)
(-3.99036e-05 -0.00503081 0)
(-4.6395e-05 -0.00508723 0)
(-5.32889e-05 -0.00512679 0)
(-6.0417e-05 -0.00514905 0)
(-6.77015e-05 -0.00515479 0)
(-7.51168e-05 -0.00514556 0)
(-8.26675e-05 -0.00512339 0)
(-9.03768e-05 -0.00509042 0)
(-9.82763e-05 -0.00504881 0)
(-0.000106399 -0.00500054 0)
(-0.000114774 -0.00494734 0)
(-0.000123424 -0.00489071 0)
(-0.000132366 -0.00483188 0)
(-0.00014161 -0.00477181 0)
(-0.000151157 -0.00471129 0)
(-0.000161005 -0.00465089 0)
(-0.000171148 -0.00459105 0)
(9.91882e-08 -0.00018581 0)
(8.67334e-07 -0.000542217 0)
(2.35929e-06 -0.000883509 0)
(4.53131e-06 -0.00120978 0)
(7.31764e-06 -0.00152113 0)
(1.06835e-05 -0.00181764 0)
(1.45779e-05 -0.00209938 0)
(1.89834e-05 -0.00236638 0)
(2.38432e-05 -0.00261868 0)
(2.91492e-05 -0.0028563 0)
(3.48341e-05 -0.00307926 0)
(4.09007e-05 -0.00328755 0)
(4.72664e-05 -0.00348117 0)
(5.39469e-05 -0.0036601 0)
(6.08385e-05 -0.00382433 0)
(6.79729e-05 -0.00397381 0)
(7.52183e-05 -0.00410851 0)
(8.26249e-05 -0.00422836 0)
(8.99962e-05 -0.00433332 0)
(9.74041e-05 -0.00442326 0)
(0.000104652 -0.00449812 0)
(0.00011234 -0.0045578 0)
(0.0001208 -0.0046022 0)
(0.000128188 -0.00463133 0)
(0.000125073 -0.00464491 0)
(8.12397e-05 -0.00464461 0)
(-6.05921e-05 -0.00464213 0)
(-0.000295918 -0.00463325 0)
(-8.51741e-05 -0.00465751 0)
(-9.76212e-05 -0.0047029 0)
(-0.000103837 -0.00476485 0)
(-0.000105975 -0.0048347 0)
(-0.000105447 -0.00490375 0)
(-0.000105366 -0.00496507 0)
(-0.0001061 -0.00501397 0)
(-0.000107441 -0.0050478 0)
(-0.000109247 -0.0050656 0)
(-0.000111487 -0.00506767 0)
(-0.000114172 -0.00505522 0)
(-0.000117318 -0.00503 0)
(-0.000120941 -0.00499398 0)
(-0.000125059 -0.00494924 0)
(-0.000129686 -0.0048977 0)
(-0.000134831 -0.00484112 0)
(-0.000140501 -0.00478102 0)
(-0.000146695 -0.00471867 0)
(-0.000153408 -0.00465508 0)
(-0.000160633 -0.00459107 0)
(-0.000168355 -0.00452725 0)
(-0.000176559 -0.0044641 0)
(-2.17975e-08 -0.000187314 0)
(1.16287e-07 -0.000547219 0)
(5.32729e-07 -0.000892378 0)
(1.27367e-06 -0.00122278 0)
(2.3571e-06 -0.0015384 0)
(3.80403e-06 -0.00183926 0)
(5.62238e-06 -0.00212537 0)
(7.83247e-06 -0.00239671 0)
(1.04352e-05 -0.00265327 0)
(1.34525e-05 -0.00289506 0)
(1.68777e-05 -0.00312204 0)
(2.0739e-05 -0.00333421 0)
(2.50215e-05 -0.00353153 0)
(2.97651e-05 -0.00371398 0)
(3.4945e-05 -0.00388151 0)
(4.06215e-05 -0.00403409 0)
(4.67579e-05 -0.00417166 0)
(5.34385e-05 -0.00429418 0)
(6.05727e-05 -0.00440157 0)
(6.8233e-05 -0.00449378 0)
(7.64318e-05 -0.00457071 0)
(8.61499e-05 -0.00463228 0)
(9.87401e-05 -0.00467833 0)
(0.000111763 -0.00470856 0)
(0.00010592 -0.00472286 0)
(3.78694e-05 -0.00472308 0)
(-9.82072e-05 -0.00472159 0)
(-0.000320523 -0.00470586 0)
(-0.000159194 -0.00473253 0)
(-0.000126041 -0.00477201 0)
(-0.000121232 -0.00482731 0)
(-0.000119126 -0.00489056 0)
(-0.000114969 -0.0049533 0)
(-0.00011072 -0.0050083 0)
(-0.000107214 -0.00505054 0)
(-0.000104424 -0.0050772 0)
(-0.000102192 -0.00508726 0)
(-0.000100453 -0.00508105 0)
(-9.92208e-05 -0.00505981 0)
(-9.85342e-05 -0.00502538 0)
(-9.8442e-05 -0.00497984 0)
(-9.89924e-05 -0.00492536 0)
(-0.000100229 -0.00486398 0)
(-0.000102186 -0.00479756 0)
(-0.000104888 -0.00472769 0)
(-0.000108352 -0.00465571 0)
(-0.000112581 -0.00458273 0)
(-0.000117571 -0.00450961 0)
(-0.000123311 -0.004437 0)
(-0.000129782 -0.00436541 0)
(8.76971e-08 -0.000188804 0)
(6.86537e-07 -0.000552069 0)
(1.85711e-06 -0.00090097 0)
(3.58799e-06 -0.00123549 0)
(5.85739e-06 -0.0015556 0)
(8.67576e-06 -0.00186129 0)
(1.2032e-05 -0.00215257 0)
(1.59502e-05 -0.0024294 0)
(2.04141e-05 -0.0026918 0)
(2.54585e-05 -0.00293975 0)
(3.10601e-05 -0.00317327 0)
(3.72681e-05 -0.00339235 0)
(4.40498e-05 -0.00359702 0)
(5.14724e-05 -0.00378728 0)
(5.94909e-05 -0.00396317 0)
(6.81982e-05 -0.0041247 0)
(7.75359e-05 -0.00427192 0)
(8.76214e-05 -0.00440485 0)
(9.83174e-05 -0.00452356 0)
(0.000109678 -0.00462808 0)
(0.000121705 -0.00471851 0)
(0.000135913 -0.00479488 0)
(0.000154854 -0.0048574 0)
(0.000175735 -0.00490619 0)
(0.000164089 -0.00494126 0)
(5.86042e-05 -0.00496143 0)
(-0.000109267 -0.00496628 0)
(-0.000248421 -0.00497375 0)
(-0.000293581 -0.0049431 0)
(-0.00012954 -0.0049399 0)
(-0.000120106 -0.00495834 0)
(-0.000118822 -0.00499297 0)
(-0.00011521 -0.0050348 0)
(-0.000110188 -0.00507534 0)
(-0.000106039 -0.0051079 0)
(-0.000102978 -0.005128 0)
(-0.000100673 -0.00513317 0)
(-9.88996e-05 -0.00512264 0)
(-9.75912e-05 -0.00509691 0)
(-9.67627e-05 -0.00505732 0)
(-9.64603e-05 -0.00500574 0)
(-9.67423e-05 -0.00494426 0)
(-9.76685e-05 -0.00487498 0)
(-9.92929e-05 -0.0047999 0)
(-0.000101659 -0.00472079 0)
(-0.0001048 -0.00463916 0)
(-0.000108732 -0.00455629 0)
(-0.000113464 -0.00447318 0)
(-0.00011899 -0.00439063 0)
(-0.0001253 -0.00430925 0)
(3.30869e-08 -0.000194141 0)
(5.505e-07 -0.000567597 0)
(1.676e-06 -0.000926266 0)
(3.40972e-06 -0.00127018 0)
(5.74633e-06 -0.00159936 0)
(8.65849e-06 -0.00191385 0)
(1.21617e-05 -0.00221368 0)
(1.62251e-05 -0.00249887 0)
(2.0878e-05 -0.00276947 0)
(2.60771e-05 -0.00302549 0)
(3.18673e-05 -0.00326696 0)
(3.81882e-05 -0.00349388 0)
(4.51052e-05 -0.0037063 0)
(5.25344e-05 -0.00390423 0)
(6.05676e-05 -0.00408768 0)
(6.90902e-05 -0.00425668 0)
(7.82262e-05 -0.00441124 0)
(8.78258e-05 -0.00455137 0)
(9.8045e-05 -0.0046771 0)
(0.000108653 -0.00478841 0)
(0.000119855 -0.00488535 0)
(0.00013138 -0.00496789 0)
(0.000144247 -0.00503617 0)
(0.000158921 -0.00509028 0)
(0.000174028 -0.00512992 0)
(0.000175768 -0.00515266 0)
(0.000127352 -0.00515446 0)
(4.35855e-06 -0.00516035 0)
(-0.000136075 -0.00515174 0)
(-5.14356e-05 -0.00509977 0)
(-5.85556e-06 -0.00507153 0)
(-2.304e-06 -0.00506766 0)
(1.79676e-06 -0.00507957 0)
(6.15397e-06 -0.00509797 0)
(9.73994e-06 -0.00511446 0)
(1.23417e-05 -0.00512273 0)
(1.41453e-05 -0.00511877 0)
(1.52921e-05 -0.00510058 0)
(1.58272e-05 -0.00506776 0)
(1.57383e-05 -0.00502107 0)
(1.49869e-05 -0.00496201 0)
(1.3524e-05 -0.00489253 0)
(1.12992e-05 -0.0048147 0)
(8.2673e-06 -0.00473059 0)
(4.39254e-06 -0.00464208 0)
(-3.49542e-07 -0.00455083 0)
(-5.97153e-06 -0.00445825 0)
(-1.24748e-05 -0.00436547 0)
(-1.98508e-05 -0.0042734 0)
(-2.80828e-05 -0.00418274 0)
(-0.000436213 -0.00565844 0)
(-0.000439251 -0.00561939 0)
(-0.000442321 -0.00558038 0)
(-0.00044542 -0.00554159 0)
(-0.000448546 -0.00550313 0)
(-0.000451698 -0.0054651 0)
(-0.000454874 -0.00542754 0)
(-0.000458071 -0.00539048 0)
(-0.000461288 -0.00535395 0)
(-0.000464523 -0.00531794 0)
(-0.000467775 -0.00528246 0)
(-0.000471041 -0.0052475 0)
(-0.00047432 -0.00521305 0)
(-0.000477609 -0.00517908 0)
(-0.000480908 -0.0051456 0)
(-0.000484215 -0.00511259 0)
(-0.000487527 -0.00508003 0)
(-0.000490844 -0.0050479 0)
(-0.000494164 -0.00501619 0)
(-0.000497485 -0.00498488 0)
(-0.000500805 -0.00495396 0)
(-0.000504124 -0.00492341 0)