/*--------------------------------*- C++ -*----------------------------------*\
| =========                 |                                                 |
| \\      /  F ield         | OpenFOAM: The Open Source CFD Toolbox           |
|  \\    /   O peration     | Version:  2.4.0                                 |
|   \\  /    A nd           | Web:      www.OpenFOAM.org                      |
|    \\/     M anipulation  |                                                 |
\*---------------------------------------------------------------------------*/
FoamFile
{
    version     2.0;
    format      ascii;
    class       volScalarField;
    location    "0.007";
    object      p;
}
// * * * * * * * * * * * * * * * * * * * * * * * * * * * * * * * * * * * * * //

dimensions      [1 -1 -2 0 0 0 0];

internalField   nonuniform List<scalar> 
125
(
-0.0354937
-0.0356927
-0.0358925
-0.036093
-0.0362943
-0.0364963
-0.036699
-0.0369025
-0.0371067
-0.0373117
-0.0375174
-0.0377239
-0.0379312
-0.0381392
-0.038348
-0.0385576
-0.0387679
-0.038979
-0.0391909
-0.0394036
-0.039617
-0.0398312
-0.0400463
-0.0402621
-0.0404787
-0.0406961
-0.0409143
-0.0411333
-0.0413531
-0.0415737
-0.0417952
-0.0420174
-0.0422405
-0.0424644
-0.0426891
-0.0429147
-0.043141
-0.0433683
-0.0435963
-0.0438252
-0.0440549
-0.0442855
-0.0445169
-0.0447492
-0.0449823
-0.0452163
-0.0454512
-0.0456869
-0.0459235
-0.0461609
-0.0463993
-0.0466385
-0.0468786
-0.0471196
-0.0473614
-0.0476042
-0.0478478
-0.0480924
-0.0483378
-0.0485842
-0.0488314
-0.0490796
-0.0493287
-0.0495787
-0.0498296
-0.0500814
-0.0503342
-0.0505879
-0.0508425
-0.0510981
-0.0513546
-0.0516121
-0.0518705
-0.0521298
-0.0523902
-0.0526514
-0.0529137
-0.0531769
-0.053441
-0.0537062
-0.0539723
-0.0542394
-0.0545075
-0.0547765
-0.0550466
-0.0553177
-0.0555897
-0.0558628
-0.0561368
-0.0564119
-0.056688
-0.0569651
-0.0572432
-0.0575223
-0.0578025
-0.0580837
-0.0583659
-0.0586492
-0.0589335
-0.0592189
-0.0595053
-0.0597928
-0.0600813
-0.0603709
-0.0606616
-0.0609533
-0.0612461
-0.06154
-0.061835
-0.062131
-0.0624282
-0.0627264
-0.0630258
-0.0633262
-0.0636277
-0.0639304
-0.0642342
-0.064539
-0.0648451
-0.0651522
-0.0654605
-0.0657699
-0.0660804
-0.0663921
-0.0667049
)
;

boundaryField
{
    BotWall
    {
        type            calculated;
        value           nonuniform 0();
    }
    FreeStream
    {
        type            calculated;
        value           nonuniform 0();
    }
    FrontNBack
    {
        type            empty;
    }
    LeftSide
    {
        type            symmetryPlane;
    }
    RightSide
    {
        type            symmetryPlane;
    }
    procBoundary3to0
    {
        type            processor;
        value           nonuniform List<scalar> 
50
(
-0.0526505
-0.0529127
-0.0531759
-0.05344
-0.0537052
-0.0539713
-0.0542383
-0.0545064
-0.0547755
-0.0550455
-0.0553166
-0.0555886
-0.0558616
-0.0561357
-0.0564108
-0.0566868
-0.0569639
-0.057242
-0.0575211
-0.0578013
-0.0580825
-0.0583647
-0.058648
-0.0589323
-0.0592176
-0.0595041
-0.0597915
-0.06008
-0.0603696
-0.0606603
-0.060952
-0.0612448
-0.0615386
-0.0618336
-0.0621296
-0.0624268
-0.062725
-0.0630243
-0.0633247
-0.0636263
-0.0639289
-0.0642327
-0.0645375
-0.0648435
-0.0651507
-0.0654589
-0.0657683
-0.0660788
-0.0663905
-0.0667033
)
;
    }
    procBoundary3to1
    {
        type            processor;
        value           nonuniform List<scalar> 
75
(
-0.0354929
-0.035692
-0.0358918
-0.0360923
-0.0362935
-0.0364955
-0.0366982
-0.0369017
-0.0371059
-0.0373109
-0.0375167
-0.0377232
-0.0379304
-0.0381384
-0.0383472
-0.0385568
-0.0387671
-0.0389782
-0.0391901
-0.0394027
-0.0396162
-0.0398304
-0.0400454
-0.0402612
-0.0404779
-0.0406953
-0.0409135
-0.0411325
-0.0413523
-0.0415729
-0.0417943
-0.0420166
-0.0422397
-0.0424636
-0.0426883
-0.0429138
-0.0431402
-0.0433674
-0.0435954
-0.0438243
-0.0440541
-0.0442846
-0.0445161
-0.0447483
-0.0449815
-0.0452155
-0.0454503
-0.045686
-0.0459226
-0.0461601
-0.0463984
-0.0466376
-0.0468777
-0.0471187
-0.0473605
-0.0476033
-0.0478469
-0.0480915
-0.0483369
-0.0485833
-0.0488305
-0.0490787
-0.0493278
-0.0495778
-0.0498287
-0.0500805
-0.0503333
-0.050587
-0.0508416
-0.0510972
-0.0513537
-0.0516112
-0.0518696
-0.0521289
-0.0523892
)
;
    }
    procBoundary3to2
    {
        type            processor;
        value           uniform -0.0670189;
    }
    procBoundary3to4
    {
        type            processor;
        value           uniform -0.0352954;
    }
    procBoundary3to5
    {
        type            processor;
        value           nonuniform List<scalar> 
75
(
-0.0464008
-0.04664
-0.0468801
-0.0471211
-0.0473629
-0.0476057
-0.0478493
-0.0480938
-0.0483393
-0.0485856
-0.0488328
-0.049081
-0.0493301
-0.0495801
-0.049831
-0.0500828
-0.0503356
-0.0505893
-0.0508439
-0.0510995
-0.051356
-0.0516134
-0.0518718
-0.0521312
-0.0523915
-0.0526527
-0.052915
-0.0531782
-0.0534423
-0.0537075
-0.0539736
-0.0542407
-0.0545087
-0.0547778
-0.0550479
-0.0553189
-0.055591
-0.055864
-0.0561381
-0.0564131
-0.0566892
-0.0569663
-0.0572444
-0.0575236
-0.0578037
-0.0580849
-0.0583672
-0.0586504
-0.0589348
-0.0592201
-0.0595065
-0.059794
-0.0600826
-0.0603721
-0.0606628
-0.0609545
-0.0612473
-0.0615412
-0.0618362
-0.0621322
-0.0624294
-0.0627276
-0.063027
-0.0633274
-0.0636289
-0.0639316
-0.0642354
-0.0645403
-0.0648463
-0.0651534
-0.0654617
-0.0657711
-0.0660816
-0.0663933
-0.0667061
)
;
    }
    procBoundary3to6
    {
        type            processor;
        value           nonuniform List<scalar> 
50
(
-0.0354954
-0.0356944
-0.0358942
-0.0360947
-0.036296
-0.0364979
-0.0367007
-0.0369042
-0.0371084
-0.0373134
-0.0375191
-0.0377256
-0.0379328
-0.0381409
-0.0383496
-0.0385592
-0.0387695
-0.0389806
-0.0391925
-0.0394052
-0.0396186
-0.0398328
-0.0400479
-0.0402637
-0.0404803
-0.0406977
-0.0409159
-0.0411349
-0.0413547
-0.0415753
-0.0417968
-0.042019
-0.0422421
-0.042466
-0.0426907
-0.0429163
-0.0431426
-0.0433698
-0.0435979
-0.0438268
-0.0440565
-0.0442871
-0.0445185
-0.0447508
-0.0449839
-0.0452179
-0.0454528
-0.0456885
-0.0459251
-0.0461625
)
;
    }
}


// ************************************************************************* //
