/*--------------------------------*- C++ -*----------------------------------*\
| =========                 |                                                 |
| \\      /  F ield         | OpenFOAM: The Open Source CFD Toolbox           |
|  \\    /   O peration     | Version:  2.4.0                                 |
|   \\  /    A nd           | Web:      www.OpenFOAM.org                      |
|    \\/     M anipulation  |                                                 |
\*---------------------------------------------------------------------------*/
FoamFile
{
    version     2.0;
    format      ascii;
    class       volVectorField;
    location    "0.007";
    object      U;
}
// * * * * * * * * * * * * * * * * * * * * * * * * * * * * * * * * * * * * * //

dimensions      [0 1 -1 0 0 0 0];

internalField   nonuniform List<vector> 
125
(
(2.97376e-05 -0.0314636 0)
(2.94929e-05 -0.0314634 0)
(2.92509e-05 -0.0314633 0)
(2.90115e-05 -0.0314631 0)
(2.87746e-05 -0.031463 0)
(2.85401e-05 -0.0314628 0)
(2.83081e-05 -0.0314627 0)
(2.80783e-05 -0.0314626 0)
(2.78507e-05 -0.0314624 0)
(2.76252e-05 -0.0314623 0)
(2.74018e-05 -0.0314622 0)
(2.71805e-05 -0.031462 0)
(2.69611e-05 -0.0314619 0)
(2.67436e-05 -0.0314617 0)
(2.65279e-05 -0.0314616 0)
(2.6314e-05 -0.0314615 0)
(2.61019e-05 -0.0314614 0)
(2.58915e-05 -0.0314612 0)
(2.56828e-05 -0.0314611 0)
(2.54757e-05 -0.031461 0)
(2.52701e-05 -0.0314608 0)
(2.50662e-05 -0.0314607 0)
(2.48638e-05 -0.0314606 0)
(2.46628e-05 -0.0314605 0)
(2.44633e-05 -0.0314603 0)
(2.42652e-05 -0.0314602 0)
(2.40686e-05 -0.0314601 0)
(2.38733e-05 -0.03146 0)
(2.36793e-05 -0.0314598 0)
(2.34866e-05 -0.0314597 0)
(2.32953e-05 -0.0314596 0)
(2.31051e-05 -0.0314595 0)
(2.29163e-05 -0.0314594 0)
(2.27286e-05 -0.0314592 0)
(2.25421e-05 -0.0314591 0)
(2.23568e-05 -0.031459 0)
(2.21726e-05 -0.0314589 0)
(2.19896e-05 -0.0314588 0)
(2.18076e-05 -0.0314586 0)
(2.16267e-05 -0.0314585 0)
(2.14468e-05 -0.0314584 0)
(2.1268e-05 -0.0314583 0)
(2.10902e-05 -0.0314582 0)
(2.09134e-05 -0.0314581 0)
(2.07375e-05 -0.031458 0)
(2.05626e-05 -0.0314579 0)
(2.03886e-05 -0.0314578 0)
(2.02155e-05 -0.0314576 0)
(2.00433e-05 -0.0314575 0)
(1.9872e-05 -0.0314574 0)
(1.97015e-05 -0.0314573 0)
(1.95319e-05 -0.0314572 0)
(1.93631e-05 -0.0314571 0)
(1.9195e-05 -0.031457 0)
(1.90278e-05 -0.0314569 0)
(1.88613e-05 -0.0314568 0)
(1.86956e-05 -0.0314567 0)
(1.85307e-05 -0.0314566 0)
(1.83664e-05 -0.0314565 0)
(1.82029e-05 -0.0314564 0)
(1.804e-05 -0.0314563 0)
(1.78779e-05 -0.0314562 0)
(1.77164e-05 -0.0314561 0)
(1.75556e-05 -0.031456 0)
(1.73954e-05 -0.0314559 0)
(1.72359e-05 -0.0314558 0)
(1.7077e-05 -0.0314557 0)
(1.69187e-05 -0.0314556 0)
(1.6761e-05 -0.0314555 0)
(1.6604e-05 -0.0314554 0)
(1.64475e-05 -0.0314553 0)
(1.62916e-05 -0.0314552 0)
(1.61363e-05 -0.0314551 0)
(1.59816e-05 -0.031455 0)
(1.58274e-05 -0.0314549 0)
(1.56739e-05 -0.0314548 0)
(1.55208e-05 -0.0314547 0)
(1.53683e-05 -0.0314546 0)
(1.52164e-05 -0.0314546 0)
(1.5065e-05 -0.0314545 0)
(1.49142e-05 -0.0314544 0)
(1.47639e-05 -0.0314543 0)
(1.46142e-05 -0.0314542 0)
(1.4465e-05 -0.0314541 0)
(1.43163e-05 -0.031454 0)
(1.41681e-05 -0.0314539 0)
(1.40205e-05 -0.0314538 0)
(1.38735e-05 -0.0314538 0)
(1.3727e-05 -0.0314537 0)
(1.3581e-05 -0.0314536 0)
(1.34356e-05 -0.0314535 0)
(1.32907e-05 -0.0314534 0)
(1.31464e-05 -0.0314533 0)
(1.30026e-05 -0.0314533 0)
(1.28594e-05 -0.0314532 0)
(1.27168e-05 -0.0314531 0)
(1.25747e-05 -0.031453 0)
(1.24332e-05 -0.0314529 0)
(1.22923e-05 -0.0314528 0)
(1.2152e-05 -0.0314528 0)
(1.20123e-05 -0.0314527 0)
(1.18733e-05 -0.0314526 0)
(1.17348e-05 -0.0314525 0)
(1.1597e-05 -0.0314524 0)
(1.14598e-05 -0.0314524 0)
(1.13233e-05 -0.0314523 0)
(1.11875e-05 -0.0314522 0)
(1.10524e-05 -0.0314521 0)
(1.09179e-05 -0.0314521 0)
(1.07842e-05 -0.031452 0)
(1.06512e-05 -0.0314519 0)
(1.0519e-05 -0.0314518 0)
(1.03875e-05 -0.0314518 0)
(1.02568e-05 -0.0314517 0)
(1.01269e-05 -0.0314516 0)
(9.99781e-06 -0.0314515 0)
(9.86956e-06 -0.0314515 0)
(9.74215e-06 -0.0314514 0)
(9.61561e-06 -0.0314513 0)
(9.48993e-06 -0.0314513 0)
(9.36513e-06 -0.0314512 0)
(9.24121e-06 -0.0314511 0)
(9.11818e-06 -0.031451 0)
(8.99603e-06 -0.031451 0)
(8.87476e-06 -0.0314509 0)
)
;

boundaryField
{
    BotWall
    {
        type            fixedValue;
        value           nonuniform 0();
    }
    FreeStream
    {
        type            zeroGradient;
    }
    FrontNBack
    {
        type            empty;
    }
    LeftSide
    {
        type            symmetryPlane;
    }
    RightSide
    {
        type            symmetryPlane;
    }
    procBoundary3to0
    {
        type            processor;
        value           nonuniform List<vector> 
50
(
(1.17876e-05 -0.0314226 0)
(1.17199e-05 -0.0314227 0)
(1.16524e-05 -0.0314228 0)
(1.15851e-05 -0.0314229 0)
(1.1518e-05 -0.031423 0)
(1.14511e-05 -0.0314232 0)
(1.13844e-05 -0.0314233 0)
(1.13179e-05 -0.0314234 0)
(1.12516e-05 -0.0314235 0)
(1.11854e-05 -0.0314236 0)
(1.11194e-05 -0.0314237 0)
(1.10536e-05 -0.0314238 0)
(1.0988e-05 -0.031424 0)
(1.09225e-05 -0.0314241 0)
(1.08572e-05 -0.0314242 0)
(1.0792e-05 -0.0314243 0)
(1.07271e-05 -0.0314244 0)
(1.06622e-05 -0.0314245 0)
(1.05976e-05 -0.0314246 0)
(1.05331e-05 -0.0314247 0)
(1.04689e-05 -0.0314248 0)
(1.04048e-05 -0.031425 0)
(1.03409e-05 -0.0314251 0)
(1.02772e-05 -0.0314252 0)
(1.02137e-05 -0.0314253 0)
(1.01505e-05 -0.0314254 0)
(1.00875e-05 -0.0314255 0)
(1.00247e-05 -0.0314256 0)
(9.96224e-06 -0.0314257 0)
(9.90004e-06 -0.0314258 0)
(9.83814e-06 -0.0314259 0)
(9.77656e-06 -0.031426 0)
(9.71531e-06 -0.0314261 0)
(9.65442e-06 -0.0314262 0)
(9.59391e-06 -0.0314263 0)
(9.53379e-06 -0.0314264 0)
(9.47408e-06 -0.0314265 0)
(9.41482e-06 -0.0314266 0)
(9.35601e-06 -0.0314267 0)
(9.29769e-06 -0.0314268 0)
(9.23987e-06 -0.0314269 0)
(9.18257e-06 -0.031427 0)
(9.12582e-06 -0.0314271 0)
(9.06962e-06 -0.0314272 0)
(9.014e-06 -0.0314273 0)
(8.95897e-06 -0.0314274 0)
(8.90454e-06 -0.0314275 0)
(8.85071e-06 -0.0314276 0)
(8.79748e-06 -0.0314277 0)
(8.74486e-06 -0.0314278 0)
)
;
    }
    procBoundary3to1
    {
        type            processor;
        value           nonuniform List<vector> 
75
(
(1.88364e-05 -0.0314121 0)
(1.86944e-05 -0.0314123 0)
(1.85547e-05 -0.0314125 0)
(1.84171e-05 -0.0314126 0)
(1.82817e-05 -0.0314128 0)
(1.81483e-05 -0.0314129 0)
(1.80168e-05 -0.0314131 0)
(1.78873e-05 -0.0314132 0)
(1.77596e-05 -0.0314134 0)
(1.76337e-05 -0.0314136 0)
(1.75095e-05 -0.0314137 0)
(1.7387e-05 -0.0314139 0)
(1.72661e-05 -0.031414 0)
(1.71468e-05 -0.0314142 0)
(1.70291e-05 -0.0314143 0)
(1.6913e-05 -0.0314145 0)
(1.67982e-05 -0.0314146 0)
(1.6685e-05 -0.0314148 0)
(1.65732e-05 -0.0314149 0)
(1.64627e-05 -0.0314151 0)
(1.63536e-05 -0.0314152 0)
(1.62459e-05 -0.0314154 0)
(1.61394e-05 -0.0314155 0)
(1.60343e-05 -0.0314157 0)
(1.59303e-05 -0.0314158 0)
(1.58277e-05 -0.031416 0)
(1.57262e-05 -0.0314161 0)
(1.56259e-05 -0.0314162 0)
(1.55268e-05 -0.0314164 0)
(1.54288e-05 -0.0314165 0)
(1.53319e-05 -0.0314167 0)
(1.52361e-05 -0.0314168 0)
(1.51414e-05 -0.031417 0)
(1.50478e-05 -0.0314171 0)
(1.49552e-05 -0.0314172 0)
(1.48636e-05 -0.0314174 0)
(1.4773e-05 -0.0314175 0)
(1.46833e-05 -0.0314177 0)
(1.45946e-05 -0.0314178 0)
(1.45069e-05 -0.0314179 0)
(1.442e-05 -0.0314181 0)
(1.4334e-05 -0.0314182 0)
(1.42489e-05 -0.0314183 0)
(1.41646e-05 -0.0314185 0)
(1.40812e-05 -0.0314186 0)
(1.39985e-05 -0.0314187 0)
(1.39166e-05 -0.0314189 0)
(1.38355e-05 -0.031419 0)
(1.37551e-05 -0.0314192 0)
(1.36754e-05 -0.0314193 0)
(1.35964e-05 -0.0314194 0)
(1.35181e-05 -0.0314195 0)
(1.34404e-05 -0.0314197 0)
(1.33634e-05 -0.0314198 0)
(1.32869e-05 -0.0314199 0)
(1.32111e-05 -0.0314201 0)
(1.31358e-05 -0.0314202 0)
(1.3061e-05 -0.0314203 0)
(1.29868e-05 -0.0314205 0)
(1.29131e-05 -0.0314206 0)
(1.28398e-05 -0.0314207 0)
(1.27671e-05 -0.0314208 0)
(1.26947e-05 -0.031421 0)
(1.26228e-05 -0.0314211 0)
(1.25514e-05 -0.0314212 0)
(1.24803e-05 -0.0314213 0)
(1.24096e-05 -0.0314215 0)
(1.23392e-05 -0.0314216 0)
(1.22692e-05 -0.0314217 0)
(1.21995e-05 -0.0314218 0)
(1.21302e-05 -0.031422 0)
(1.20611e-05 -0.0314221 0)
(1.19923e-05 -0.0314222 0)
(1.19238e-05 -0.0314223 0)
(1.18556e-05 -0.0314224 0)
)
;
    }
    procBoundary3to2
    {
        type            processor;
        value           uniform (8.75435e-06 -0.0314508 0);
    }
    procBoundary3to4
    {
        type            processor;
        value           uniform (2.99852e-05 -0.0314637 0);
    }
    procBoundary3to5
    {
        type            processor;
        value           nonuniform List<vector> 
75
(
(-1.33448e-05 -0.031459 0)
(-1.31666e-05 -0.0314589 0)
(-1.29905e-05 -0.0314588 0)
(-1.28164e-05 -0.0314587 0)
(-1.26444e-05 -0.0314586 0)
(-1.24745e-05 -0.0314584 0)
(-1.23065e-05 -0.0314583 0)
(-1.21405e-05 -0.0314582 0)
(-1.19766e-05 -0.0314581 0)
(-1.18145e-05 -0.031458 0)
(-1.16544e-05 -0.0314578 0)
(-1.14963e-05 -0.0314577 0)
(-1.134e-05 -0.0314576 0)
(-1.11856e-05 -0.0314575 0)
(-1.1033e-05 -0.0314574 0)
(-1.08822e-05 -0.0314573 0)
(-1.07333e-05 -0.0314572 0)
(-1.05861e-05 -0.031457 0)
(-1.04407e-05 -0.0314569 0)
(-1.02971e-05 -0.0314568 0)
(-1.01551e-05 -0.0314567 0)
(-1.00148e-05 -0.0314566 0)
(-9.87613e-06 -0.0314565 0)
(-9.73911e-06 -0.0314564 0)
(-9.60369e-06 -0.0314563 0)
(-9.46984e-06 -0.0314562 0)
(-9.33754e-06 -0.0314561 0)
(-9.20677e-06 -0.031456 0)
(-9.07749e-06 -0.0314559 0)
(-8.94968e-06 -0.0314558 0)
(-8.82332e-06 -0.0314557 0)
(-8.69837e-06 -0.0314556 0)
(-8.57482e-06 -0.0314555 0)
(-8.45264e-06 -0.0314554 0)
(-8.33181e-06 -0.0314553 0)
(-8.21229e-06 -0.0314552 0)
(-8.09407e-06 -0.0314551 0)
(-7.97711e-06 -0.031455 0)
(-7.86141e-06 -0.0314549 0)
(-7.74692e-06 -0.0314548 0)
(-7.63364e-06 -0.0314547 0)
(-7.52153e-06 -0.0314546 0)
(-7.41057e-06 -0.0314545 0)
(-7.30075e-06 -0.0314544 0)
(-7.19204e-06 -0.0314543 0)
(-7.08442e-06 -0.0314542 0)
(-6.97787e-06 -0.0314541 0)
(-6.87236e-06 -0.031454 0)
(-6.76788e-06 -0.0314539 0)
(-6.66442e-06 -0.0314538 0)
(-6.56194e-06 -0.0314538 0)
(-6.46044e-06 -0.0314537 0)
(-6.35989e-06 -0.0314536 0)
(-6.26028e-06 -0.0314535 0)
(-6.16159e-06 -0.0314534 0)
(-6.06381e-06 -0.0314533 0)
(-5.96691e-06 -0.0314532 0)
(-5.87089e-06 -0.0314532 0)
(-5.77573e-06 -0.0314531 0)
(-5.68141e-06 -0.031453 0)
(-5.58793e-06 -0.0314529 0)
(-5.49526e-06 -0.0314528 0)
(-5.40339e-06 -0.0314527 0)
(-5.31232e-06 -0.0314527 0)
(-5.22202e-06 -0.0314526 0)
(-5.13249e-06 -0.0314525 0)
(-5.0437e-06 -0.0314524 0)
(-4.95564e-06 -0.0314524 0)
(-4.86831e-06 -0.0314523 0)
(-4.78166e-06 -0.0314522 0)
(-4.6957e-06 -0.0314521 0)
(-4.61039e-06 -0.0314521 0)
(-4.52571e-06 -0.031452 0)
(-4.44162e-06 -0.0314519 0)
(-4.35811e-06 -0.0314518 0)
)
;
    }
    procBoundary3to6
    {
        type            processor;
        value           nonuniform List<vector> 
50
(
(-2.4967e-05 -0.0314663 0)
(-2.46825e-05 -0.0314661 0)
(-2.44003e-05 -0.0314659 0)
(-2.41205e-05 -0.0314658 0)
(-2.38428e-05 -0.0314656 0)
(-2.35674e-05 -0.0314655 0)
(-2.32941e-05 -0.0314653 0)
(-2.3023e-05 -0.0314651 0)
(-2.27539e-05 -0.031465 0)
(-2.2487e-05 -0.0314648 0)
(-2.22221e-05 -0.0314647 0)
(-2.19593e-05 -0.0314645 0)
(-2.16986e-05 -0.0314643 0)
(-2.14399e-05 -0.0314642 0)
(-2.11833e-05 -0.031464 0)
(-2.09287e-05 -0.0314639 0)
(-2.06762e-05 -0.0314637 0)
(-2.04257e-05 -0.0314636 0)
(-2.01772e-05 -0.0314634 0)
(-1.99308e-05 -0.0314633 0)
(-1.96865e-05 -0.0314631 0)
(-1.94442e-05 -0.031463 0)
(-1.9204e-05 -0.0314628 0)
(-1.89659e-05 -0.0314627 0)
(-1.87298e-05 -0.0314625 0)
(-1.84959e-05 -0.0314624 0)
(-1.82641e-05 -0.0314623 0)
(-1.80343e-05 -0.0314621 0)
(-1.78068e-05 -0.031462 0)
(-1.75813e-05 -0.0314618 0)
(-1.7358e-05 -0.0314617 0)
(-1.71368e-05 -0.0314615 0)
(-1.69177e-05 -0.0314614 0)
(-1.67009e-05 -0.0314613 0)
(-1.64862e-05 -0.0314611 0)
(-1.62736e-05 -0.031461 0)
(-1.60632e-05 -0.0314609 0)
(-1.5855e-05 -0.0314607 0)
(-1.5649e-05 -0.0314606 0)
(-1.54451e-05 -0.0314605 0)
(-1.52434e-05 -0.0314603 0)
(-1.50438e-05 -0.0314602 0)
(-1.48465e-05 -0.0314601 0)
(-1.46513e-05 -0.0314599 0)
(-1.44582e-05 -0.0314598 0)
(-1.42673e-05 -0.0314597 0)
(-1.40786e-05 -0.0314596 0)
(-1.38919e-05 -0.0314594 0)
(-1.37075e-05 -0.0314593 0)
(-1.35251e-05 -0.0314592 0)
)
;
    }
}


// ************************************************************************* //
