/*--------------------------------*- C++ -*----------------------------------*\
| =========                 |                                                 |
| \\      /  F ield         | OpenFOAM: The Open Source CFD Toolbox           |
|  \\    /   O peration     | Version:  2.4.0                                 |
|   \\  /    A nd           | Web:      www.OpenFOAM.org                      |
|    \\/     M anipulation  |                                                 |
\*---------------------------------------------------------------------------*/
FoamFile
{
    version     2.0;
    format      ascii;
    class       volScalarField;
    location    "0.016";
    object      p_rgh;
}
// * * * * * * * * * * * * * * * * * * * * * * * * * * * * * * * * * * * * * //

dimensions      [1 -1 -2 0 0 0 0];

internalField   nonuniform List<scalar> 
125
(
-0.0042044
-0.00419721
-0.00418998
-0.00418273
-0.00417545
-0.00416815
-0.00416081
-0.00415345
-0.00414607
-0.00413865
-0.00413121
-0.00412374
-0.00411624
-0.00410871
-0.00410116
-0.00409357
-0.00408596
-0.00407832
-0.00407065
-0.00406296
-0.00405523
-0.00404748
-0.0040397
-0.00403188
-0.00402404
-0.00401617
-0.00400827
-0.00400034
-0.00399239
-0.0039844
-0.00397638
-0.00396833
-0.00396025
-0.00395215
-0.00394401
-0.00393584
-0.00392764
-0.00391941
-0.00391115
-0.00390286
-0.00389454
-0.00388619
-0.0038778
-0.00386939
-0.00386094
-0.00385246
-0.00384395
-0.00383541
-0.00382684
-0.00381823
-0.0038096
-0.00380093
-0.00379222
-0.00378349
-0.00377472
-0.00376592
-0.00375709
-0.00374823
-0.00373933
-0.0037304
-0.00372143
-0.00371244
-0.0037034
-0.00369434
-0.00368524
-0.00367611
-0.00366694
-0.00365774
-0.00364851
-0.00363924
-0.00362993
-0.00362059
-0.00361122
-0.00360181
-0.00359237
-0.00358289
-0.00357338
-0.00356383
-0.00355424
-0.00354462
-0.00353496
-0.00352527
-0.00351554
-0.00350578
-0.00349598
-0.00348614
-0.00347627
-0.00346636
-0.00345641
-0.00344642
-0.0034364
-0.00342634
-0.00341625
-0.00340611
-0.00339594
-0.00338573
-0.00337548
-0.0033652
-0.00335487
-0.00334451
-0.00333411
-0.00332367
-0.00331319
-0.00330267
-0.00329212
-0.00328152
-0.00327089
-0.00326021
-0.0032495
-0.00323874
-0.00322795
-0.00321711
-0.00320624
-0.00319532
-0.00318437
-0.00317337
-0.00316233
-0.00315126
-0.00314014
-0.00312897
-0.00311777
-0.00310653
-0.00309524
-0.00308391
-0.00307254
)
;

boundaryField
{
    BotWall
    {
        type            fixedFluxPressure;
        gradient        nonuniform 0();
        value           nonuniform 0();
    }
    FreeStream
    {
        type            totalPressure;
        rho             rho;
        psi             none;
        gamma           1;
        p0              nonuniform 0();
        value           nonuniform 0();
    }
    FrontNBack
    {
        type            empty;
    }
    LeftSide
    {
        type            symmetryPlane;
    }
    RightSide
    {
        type            symmetryPlane;
    }
    procBoundary1to0
    {
        type            processor;
        value           uniform -0.00306112;
    }
    procBoundary1to2
    {
        type            processor;
        value           uniform -0.00421156;
    }
    procBoundary1to3
    {
        type            processor;
        value           nonuniform List<scalar> 
75
(
-0.00382182
-0.00381306
-0.00380426
-0.00379543
-0.00378657
-0.00377768
-0.00376876
-0.0037598
-0.00375081
-0.00374179
-0.00373274
-0.00372365
-0.00371453
-0.00370537
-0.00369619
-0.00368697
-0.00367771
-0.00366842
-0.0036591
-0.00364975
-0.00364036
-0.00363093
-0.00362147
-0.00361198
-0.00360245
-0.00359289
-0.00358329
-0.00357366
-0.00356399
-0.00355429
-0.00354455
-0.00353477
-0.00352496
-0.00351512
-0.00350524
-0.00349532
-0.00348536
-0.00347537
-0.00346535
-0.00345528
-0.00344518
-0.00343505
-0.00342487
-0.00341466
-0.00340441
-0.00339413
-0.0033838
-0.00337344
-0.00336304
-0.00335261
-0.00334213
-0.00333162
-0.00332106
-0.00331047
-0.00329984
-0.00328918
-0.00327847
-0.00326772
-0.00325694
-0.00324611
-0.00323525
-0.00322434
-0.0032134
-0.00320241
-0.00319139
-0.00318032
-0.00316922
-0.00315807
-0.00314689
-0.00313566
-0.00312439
-0.00311308
-0.00310173
-0.00309033
-0.0030789
)
;
    }
    procBoundary1to4
    {
        type            processor;
        value           nonuniform List<scalar> 
50
(
-0.00422133
-0.00421403
-0.00420671
-0.00419936
-0.00419198
-0.00418457
-0.00417714
-0.00416968
-0.0041622
-0.00415468
-0.00414714
-0.00413957
-0.00413198
-0.00412435
-0.0041167
-0.00410902
-0.00410132
-0.00409358
-0.00408582
-0.00407802
-0.0040702
-0.00406235
-0.00405448
-0.00404657
-0.00403863
-0.00403067
-0.00402268
-0.00401465
-0.0040066
-0.00399852
-0.00399041
-0.00398227
-0.0039741
-0.0039659
-0.00395767
-0.00394941
-0.00394112
-0.0039328
-0.00392445
-0.00391607
-0.00390766
-0.00389922
-0.00389074
-0.00388224
-0.0038737
-0.00386514
-0.00385654
-0.00384791
-0.00383925
-0.00383055
)
;
    }
}


// ************************************************************************* //
