/*--------------------------------*- C++ -*----------------------------------*\
| =========                 |                                                 |
| \\      /  F ield         | OpenFOAM: The Open Source CFD Toolbox           |
|  \\    /   O peration     | Version:  2.4.0                                 |
|   \\  /    A nd           | Web:      www.OpenFOAM.org                      |
|    \\/     M anipulation  |                                                 |
\*---------------------------------------------------------------------------*/
FoamFile
{
    version     2.0;
    format      ascii;
    class       surfaceScalarField;
    location    "0.016";
    object      phi;
}
// * * * * * * * * * * * * * * * * * * * * * * * * * * * * * * * * * * * * * //

dimensions      [0 3 -1 0 0 0 0];

internalField   nonuniform List<scalar> 
124
(
-3.31445e-09
-3.31446e-09
-3.31447e-09
-3.31449e-09
-3.3145e-09
-3.31452e-09
-3.31453e-09
-3.31454e-09
-3.31456e-09
-3.31457e-09
-3.31458e-09
-3.31459e-09
-3.31461e-09
-3.31462e-09
-3.31463e-09
-3.31464e-09
-3.31466e-09
-3.31467e-09
-3.31468e-09
-3.31469e-09
-3.3147e-09
-3.31471e-09
-3.31472e-09
-3.31473e-09
-3.31474e-09
-3.31476e-09
-3.31477e-09
-3.31478e-09
-3.31479e-09
-3.3148e-09
-3.31481e-09
-3.31481e-09
-3.31482e-09
-3.31483e-09
-3.31484e-09
-3.31485e-09
-3.31486e-09
-3.31487e-09
-3.31488e-09
-3.31489e-09
-3.3149e-09
-3.3149e-09
-3.31491e-09
-3.31492e-09
-3.31493e-09
-3.31494e-09
-3.31495e-09
-3.31495e-09
-3.31496e-09
-3.31497e-09
-3.31498e-09
-3.31499e-09
-3.31499e-09
-3.315e-09
-3.31501e-09
-3.31502e-09
-3.31502e-09
-3.31503e-09
-3.31504e-09
-3.31505e-09
-3.31505e-09
-3.31506e-09
-3.31507e-09
-3.31507e-09
-3.31508e-09
-3.31509e-09
-3.3151e-09
-3.3151e-09
-3.31511e-09
-3.31512e-09
-3.31512e-09
-3.31513e-09
-3.31514e-09
-3.31514e-09
-3.31515e-09
-3.31516e-09
-3.31516e-09
-3.31517e-09
-3.31518e-09
-3.31518e-09
-3.31519e-09
-3.3152e-09
-3.3152e-09
-3.31521e-09
-3.31522e-09
-3.31522e-09
-3.31523e-09
-3.31524e-09
-3.31524e-09
-3.31525e-09
-3.31526e-09
-3.31526e-09
-3.31527e-09
-3.31527e-09
-3.31528e-09
-3.31529e-09
-3.31529e-09
-3.3153e-09
-3.31531e-09
-3.31531e-09
-3.31532e-09
-3.31533e-09
-3.31533e-09
-3.31534e-09
-3.31534e-09
-3.31535e-09
-3.31536e-09
-3.31536e-09
-3.31537e-09
-3.31537e-09
-3.31538e-09
-3.31539e-09
-3.31539e-09
-3.3154e-09
-3.31541e-09
-3.31541e-09
-3.31542e-09
-3.31542e-09
-3.31543e-09
-3.31544e-09
-3.31544e-09
-3.31545e-09
-3.31545e-09
-3.31546e-09
)
;

boundaryField
{
    BotWall
    {
        type            calculated;
        value           nonuniform 0();
    }
    FreeStream
    {
        type            calculated;
        value           nonuniform 0();
    }
    FrontNBack
    {
        type            empty;
        value           nonuniform 0();
    }
    LeftSide
    {
        type            symmetryPlane;
        value           uniform 0;
    }
    RightSide
    {
        type            symmetryPlane;
        value           nonuniform 0();
    }
    procBoundary1to0
    {
        type            processor;
        value           uniform -3.31547e-09;
    }
    procBoundary1to2
    {
        type            processor;
        value           uniform 3.31443e-09;
    }
    procBoundary1to3
    {
        type            processor;
        value           nonuniform List<scalar> 
75
(
7.81237e-15
7.74798e-15
7.68602e-15
7.62639e-15
7.56901e-15
7.51377e-15
7.46058e-15
7.40937e-15
7.36004e-15
7.31251e-15
7.26671e-15
7.22255e-15
7.17998e-15
7.13891e-15
7.09929e-15
7.06105e-15
7.02412e-15
6.98846e-15
6.95402e-15
6.92073e-15
6.88855e-15
6.85744e-15
6.82735e-15
6.79825e-15
6.77008e-15
6.74283e-15
6.71644e-15
6.6909e-15
6.66616e-15
6.6422e-15
6.61899e-15
6.5965e-15
6.57471e-15
6.55359e-15
6.53312e-15
6.51327e-15
6.49403e-15
6.47536e-15
6.45726e-15
6.43969e-15
6.42264e-15
6.40609e-15
6.39002e-15
6.37441e-15
6.35924e-15
6.34449e-15
6.33014e-15
6.31617e-15
6.30257e-15
6.28931e-15
6.27638e-15
6.26375e-15
6.2514e-15
6.23931e-15
6.22747e-15
6.21585e-15
6.20442e-15
6.19318e-15
6.18208e-15
6.17112e-15
6.16026e-15
6.14949e-15
6.13876e-15
6.12807e-15
6.11737e-15
6.10665e-15
6.09587e-15
6.085e-15
6.07401e-15
6.06287e-15
6.05154e-15
6.03999e-15
6.02818e-15
6.01608e-15
6.00364e-15
)
;
    }
    procBoundary1to4
    {
        type            processor;
        value           nonuniform List<scalar> 
50
(
1.43857e-14
1.4267e-14
1.41403e-14
1.40065e-14
1.38662e-14
1.37202e-14
1.3569e-14
1.34134e-14
1.3254e-14
1.30914e-14
1.29262e-14
1.2759e-14
1.25903e-14
1.24205e-14
1.22503e-14
1.20801e-14
1.19102e-14
1.17412e-14
1.15733e-14
1.14069e-14
1.12424e-14
1.108e-14
1.092e-14
1.07627e-14
1.06082e-14
1.04567e-14
1.03084e-14
1.01635e-14
1.00221e-14
9.88416e-15
9.74989e-15
9.6193e-15
9.49244e-15
9.36933e-15
9.24997e-15
9.13435e-15
9.02246e-15
8.91425e-15
8.80969e-15
8.70871e-15
8.61126e-15
8.51726e-15
8.42664e-15
8.3393e-15
8.25517e-15
8.17416e-15
8.09616e-15
8.02108e-15
7.94882e-15
7.87928e-15
)
;
    }
}


// ************************************************************************* //
