/*--------------------------------*- C++ -*----------------------------------*\
| =========                 |                                                 |
| \\      /  F ield         | OpenFOAM: The Open Source CFD Toolbox           |
|  \\    /   O peration     | Version:  2.4.0                                 |
|   \\  /    A nd           | Web:      www.OpenFOAM.org                      |
|    \\/     M anipulation  |                                                 |
\*---------------------------------------------------------------------------*/
FoamFile
{
    version     2.0;
    format      ascii;
    class       volVectorField;
    location    "4.3";
    object      U;
}
// * * * * * * * * * * * * * * * * * * * * * * * * * * * * * * * * * * * * * //

dimensions      [0 1 -1 0 0 0 0];

internalField   nonuniform List<vector> 
125
(
(7.60294e-08 -0.00104999 0)
(2.08158e-07 -0.00104983 0)
(6.52436e-08 -0.00104962 0)
(-1.91462e-07 -0.00104973 0)
(-1.15977e-07 -0.00105003 0)
(7.02732e-08 -0.00104999 0)
(1.91642e-07 -0.00104983 0)
(6.00397e-08 -0.00104962 0)
(-1.73943e-07 -0.00104973 0)
(-1.04477e-07 -0.00105003 0)
(6.47321e-08 -0.00105 0)
(1.75833e-07 -0.00104983 0)
(5.50829e-08 -0.00104962 0)
(-1.57235e-07 -0.00104973 0)
(-9.35457e-08 -0.00105004 0)
(5.94044e-08 -0.00105 0)
(1.60718e-07 -0.00104983 0)
(5.03669e-08 -0.00104961 0)
(-1.41319e-07 -0.00104973 0)
(-8.31676e-08 -0.00105004 0)
(5.42876e-08 -0.00105 0)
(1.46283e-07 -0.00104983 0)
(4.58855e-08 -0.00104961 0)
(-1.2618e-07 -0.00104973 0)
(-7.33288e-08 -0.00105004 0)
(4.93797e-08 -0.00105 0)
(1.32514e-07 -0.00104983 0)
(4.16323e-08 -0.0010496 0)
(-1.11798e-07 -0.00104972 0)
(-6.40152e-08 -0.00105004 0)
(4.46782e-08 -0.00105001 0)
(1.19397e-07 -0.00104983 0)
(3.76009e-08 -0.0010496 0)
(-9.8157e-08 -0.00104972 0)
(-5.52124e-08 -0.00105005 0)
(4.01803e-08 -0.00105001 0)
(1.06919e-07 -0.00104983 0)
(3.37852e-08 -0.0010496 0)
(-8.52374e-08 -0.00104972 0)
(-4.69064e-08 -0.00105005 0)
(3.58834e-08 -0.00105001 0)
(9.50656e-08 -0.00104983 0)
(3.01788e-08 -0.0010496 0)
(-7.30215e-08 -0.00104972 0)
(-3.90827e-08 -0.00105005 0)
(3.17845e-08 -0.00105001 0)
(8.38213e-08 -0.00104983 0)
(2.67755e-08 -0.00104959 0)
(-6.14909e-08 -0.00104972 0)
(-3.17274e-08 -0.00105005 0)
(2.78806e-08 -0.00105001 0)
(7.31721e-08 -0.00104983 0)
(2.35691e-08 -0.00104959 0)
(-5.06273e-08 -0.00104972 0)
(-2.48261e-08 -0.00105005 0)
(2.41684e-08 -0.00105002 0)
(6.31032e-08 -0.00104983 0)
(2.05536e-08 -0.00104959 0)
(-4.0412e-08 -0.00104972 0)
(-1.83648e-08 -0.00105005 0)
(2.06445e-08 -0.00105002 0)
(5.35997e-08 -0.00104983 0)
(1.77227e-08 -0.00104959 0)
(-3.08264e-08 -0.00104972 0)
(-1.23293e-08 -0.00105005 0)
(1.73056e-08 -0.00105002 0)
(4.46468e-08 -0.00104983 0)
(1.50704e-08 -0.00104959 0)
(-2.18519e-08 -0.00104972 0)
(-6.70558e-09 -0.00105005 0)
(1.41478e-08 -0.00105002 0)
(3.62294e-08 -0.00104983 0)
(1.25907e-08 -0.00104959 0)
(-1.34696e-08 -0.00104972 0)
(-1.47971e-09 -0.00105005 0)
(1.11676e-08 -0.00105002 0)
(2.83322e-08 -0.00104983 0)
(1.02776e-08 -0.00104959 0)
(-5.66092e-09 -0.00104972 0)
(3.36227e-09 -0.00105005 0)
(8.36089e-09 -0.00105002 0)
(2.094e-08 -0.00104983 0)
(8.12516e-09 -0.00104959 0)
(1.5931e-09 -0.00104972 0)
(7.83422e-09 -0.00105005 0)
(5.72378e-09 -0.00105002 0)
(1.40374e-08 -0.00104983 0)
(6.12759e-09 -0.00104959 0)
(8.31127e-09 -0.00104972 0)
(1.19499e-08 -0.00105005 0)
(3.2521e-09 -0.00105002 0)
(7.60916e-09 -0.00104983 0)
(4.27907e-09 -0.00104959 0)
(1.45125e-08 -0.00104972 0)
(1.57231e-08 -0.00105005 0)
(9.41605e-10 -0.00105002 0)
(1.63966e-09 -0.00104983 0)
(2.57383e-09 -0.00104959 0)
(2.02155e-08 -0.00104972 0)
(1.91673e-08 -0.00105005 0)
(-1.21207e-09 -0.00105002 0)
(-3.88662e-09 -0.00104983 0)
(1.00619e-09 -0.00104959 0)
(2.54394e-08 -0.00104972 0)
(2.22962e-08 -0.00105005 0)
(-3.2134e-09 -0.00105002 0)
(-8.98528e-09 -0.00104983 0)
(-4.29474e-10 -0.00104959 0)
(3.02028e-08 -0.00104972 0)
(2.51231e-08 -0.00105005 0)
(-5.06697e-09 -0.00105002 0)
(-1.3672e-08 -0.00104983 0)
(-1.73874e-09 -0.00104959 0)
(3.45248e-08 -0.00104972 0)
(2.76616e-08 -0.00105005 0)
(-6.77746e-09 -0.00105002 0)
(-1.79624e-08 -0.00104983 0)
(-2.92713e-09 -0.00104959 0)
(3.84241e-08 -0.00104972 0)
(2.99247e-08 -0.00105005 0)
(-8.34965e-09 -0.00105002 0)
(-2.18724e-08 -0.00104983 0)
(-4.0001e-09 -0.00104959 0)
(4.19196e-08 -0.00104972 0)
(3.19259e-08 -0.00105005 0)
)
;

boundaryField
{
    BotWall
    {
        type            fixedValue;
        value           nonuniform 0();
    }
    FreeStream
    {
        type            zeroGradient;
    }
    FrontNBack
    {
        type            empty;
    }
    LeftSide
    {
        type            symmetryPlane;
    }
    RightSide
    {
        type            symmetryPlane;
    }
    procBoundary2to1
    {
        type            processor;
        value           nonuniform List<vector> 5((8.20025e-08 -0.00104999 0) (2.25394e-07 -0.00104983 0) (7.07011e-08 -0.00104963 0) (-2.09809e-07 -0.00104973 0) (-1.28058e-07 -0.00105002 0));
    }
    procBoundary2to3
    {
        type            processor;
        value           nonuniform List<vector> 5((-9.78844e-09 -0.00105002 0) (-2.54177e-08 -0.00104983 0) (-4.96307e-09 -0.00104959 0) (4.50301e-08 -0.00104972 0) (3.36783e-08 -0.00105005 0));
    }
}


// ************************************************************************* //
