/*--------------------------------*- C++ -*----------------------------------*\
| =========                 |                                                 |
| \\      /  F ield         | OpenFOAM: The Open Source CFD Toolbox           |
|  \\    /   O peration     | Version:  2.4.0                                 |
|   \\  /    A nd           | Web:      www.OpenFOAM.org                      |
|    \\/     M anipulation  |                                                 |
\*---------------------------------------------------------------------------*/
FoamFile
{
    version     2.0;
    format      ascii;
    class       volScalarField;
    location    "3.1";
    object      H;
}
// * * * * * * * * * * * * * * * * * * * * * * * * * * * * * * * * * * * * * //

dimensions      [0 2 -2 0 0 0 0];

internalField   nonuniform List<scalar> 
500
(
-11950.6
-11950.5
-11950.5
-11950.5
-11950.6
-11388.5
-11388.5
-11388.5
-11388.5
-11388.5
-10820.2
-10820.2
-10820.1
-10820.2
-10820.2
-10245.4
-10245.4
-10245.4
-10245.4
-10245.4
-9664.17
-9664.13
-9664.09
-9664.13
-9664.17
-9076.3
-9076.24
-9076.2
-9076.24
-9076.3
-8481.7
-8481.64
-8481.59
-8481.64
-8481.7
-7880.28
-7880.2
-7880.15
-7880.2
-7880.28
-7271.92
-7271.83
-7271.76
-7271.83
-7271.92
-6656.5
-6656.39
-6656.32
-6656.39
-6656.5
-6033.9
-6033.79
-6033.71
-6033.79
-6033.9
-5404.02
-5403.89
-5403.8
-5403.89
-5404.02
-4766.72
-4766.58
-4766.48
-4766.58
-4766.72
-4121.88
-4121.72
-4121.61
-4121.72
-4121.88
-3469.37
-3469.2
-3469.08
-3469.2
-3469.37
-2809.07
-2808.88
-2808.75
-2808.88
-2809.07
-2140.83
-2140.63
-2140.48
-2140.63
-2140.83
-1464.53
-1464.3
-1464.15
-1464.3
-1464.53
-780.017
-779.771
-779.603
-779.773
-780.017
-15.0359
-15.0219
-15.0124
-15.022
-15.036
-11.2028
-11.1923
-11.1853
-11.1924
-11.2028
-11.2207
-11.2104
-11.2035
-11.2105
-11.2207
-11.2365
-11.2264
-11.2196
-11.2265
-11.2365
-11.2502
-11.2403
-11.2337
-11.2404
-11.2502
-11.2617
-11.2521
-11.2455
-11.2521
-11.2618
-11.271
-11.2615
-11.2551
-11.2616
-11.271
-11.2778
-11.2685
-11.2623
-11.2686
-11.2778
-11.2821
-11.273
-11.2669
-11.2731
-11.2822
-11.2839
-11.275
-11.269
-11.275
-11.2839
-11.283
-11.2742
-11.2684
-11.2743
-11.283
-11.2793
-11.2707
-11.265
-11.2708
-11.2793
-11.2726
-11.2643
-11.2587
-11.2643
-11.2727
-11.263
-11.2548
-11.2494
-11.2549
-11.2631
-11.2503
-11.2423
-11.2369
-11.2424
-11.2504
-11.2344
-11.2266
-11.2213
-11.2266
-11.2344
-11.2152
-11.2075
-11.2024
-11.2076
-11.2152
-11.1925
-11.185
-11.18
-11.1851
-11.1926
-11.1664
-11.159
-11.1541
-11.1591
-11.1664
-11.1365
-11.1294
-11.1246
-11.1294
-11.1366
-11.103
-11.0959
-11.0913
-11.096
-11.103
-11.0655
-11.0587
-11.0541
-11.0587
-11.0656
-11.0241
-11.0174
-11.013
-11.0175
-11.0242
-10.9786
-10.9721
-10.9678
-10.9722
-10.9787
-10.929
-10.9226
-10.9184
-10.9226
-10.929
-10.875
-10.8688
-10.8647
-10.8688
-10.875
-10.8166
-10.8106
-10.8066
-10.8106
-10.8167
-10.7538
-10.7479
-10.744
-10.7479
-10.7538
-10.6863
-10.6805
-10.6767
-10.6806
-10.6863
-10.6141
-10.6085
-10.6048
-10.6085
-10.6141
-10.5371
-10.5316
-10.528
-10.5316
-10.5371
-10.4551
-10.4498
-10.4463
-10.4498
-10.4551
-10.3682
-10.363
-10.3596
-10.363
-10.3682
-10.2761
-10.271
-10.2677
-10.2711
-10.2761
-10.1788
-10.1739
-10.1707
-10.174
-10.1789
-10.0763
-10.0715
-10.0684
-10.0716
-10.0763
-9.96838
-9.96374
-9.96071
-9.96377
-9.9684
-9.85502
-9.85052
-9.84758
-9.85055
-9.85505
-9.73615
-9.73178
-9.72893
-9.73181
-9.73617
-9.61169
-9.60746
-9.60469
-9.60748
-9.61172
-9.48159
-9.47748
-9.4748
-9.47751
-9.48161
-9.34578
-9.3418
-9.3392
-9.34182
-9.3458
-9.20421
-9.20036
-9.19785
-9.20038
-9.20423
-9.05685
-9.05312
-9.05069
-9.05314
-9.05687
-8.90365
-8.90005
-8.8977
-8.90007
-8.90368
-8.7446
-8.74112
-8.73885
-8.74114
-8.74462
-8.57967
-8.5763
-8.57412
-8.57632
-8.57969
-8.40885
-8.4056
-8.40349
-8.40562
-8.40887
-8.23213
-8.22901
-8.22697
-8.22902
-8.23215
-8.04954
-8.04653
-8.04457
-8.04655
-8.04956
-7.86109
-7.85819
-7.85631
-7.85821
-7.86111
-7.66681
-7.66402
-7.66222
-7.66404
-7.66683
-7.46674
-7.46407
-7.46233
-7.46408
-7.46676
-7.26094
-7.25838
-7.25672
-7.25839
-7.26096
-7.04948
-7.04702
-7.04543
-7.04703
-7.04949
-6.83243
-6.83008
-6.82856
-6.83009
-6.83244
-6.60988
-6.60764
-6.60619
-6.60765
-6.6099
-6.38196
-6.37982
-6.37844
-6.37983
-6.38197
-6.14877
-6.14674
-6.14542
-6.14675
-6.14878
-5.91046
-5.90853
-5.90728
-5.90854
-5.91047
-5.66718
-5.66534
-5.66416
-5.66535
-5.66719
-5.41909
-5.41736
-5.41624
-5.41737
-5.4191
-5.16638
-5.16475
-5.1637
-5.16476
-5.1664
-4.90926
-4.90773
-4.90674
-4.90774
-4.90927
-4.64794
-4.6465
-4.64558
-4.64651
-4.64796
-4.38266
-4.38132
-4.38045
-4.38133
-4.38267
-4.11367
-4.11242
-4.11162
-4.11243
-4.11368
-3.84125
-3.84009
-3.83934
-3.8401
-3.84126
-3.56567
-3.56461
-3.56392
-3.56461
-3.56568
-3.28726
-3.28628
-3.28565
-3.28629
-3.28726
-3.00633
-3.00544
-3.00487
-3.00544
-3.00633
-2.72322
-2.72242
-2.72191
-2.72243
-2.72323
-2.43831
-2.4376
-2.43714
-2.4376
-2.43831
-2.15197
-2.15134
-2.15094
-2.15135
-2.15197
-1.86459
-1.86405
-1.86371
-1.86405
-1.86459
-1.57659
-1.57614
-1.57585
-1.57614
-1.5766
-1.28841
-1.28805
-1.28781
-1.28805
-1.28842
-1.0005
-1.00021
-1.00003
-1.00021
-1.0005
-0.713305
-0.713103
-0.712973
-0.713104
-0.713307
-0.427322
-0.427201
-0.427123
-0.427202
-0.427323
-0.143041
-0.143
-0.142974
-0.143
-0.143041
)
;

boundaryField
{
    BotWall
    {
        type            zeroGradient;
    }
    FreeStream
    {
        type            zeroGradient;
    }
    FrontNBack
    {
        type            empty;
    }
    LeftSide
    {
        type            symmetryPlane;
    }
    RightSide
    {
        type            symmetryPlane;
    }
}


// ************************************************************************* //
