/*--------------------------------*- C++ -*----------------------------------*\
| =========                 |                                                 |
| \\      /  F ield         | OpenFOAM: The Open Source CFD Toolbox           |
|  \\    /   O peration     | Version:  2.4.0                                 |
|   \\  /    A nd           | Web:      www.OpenFOAM.org                      |
|    \\/     M anipulation  |                                                 |
\*---------------------------------------------------------------------------*/
FoamFile
{
    version     2.0;
    format      ascii;
    class       volScalarField;
    location    "3.1";
    object      p;
}
// * * * * * * * * * * * * * * * * * * * * * * * * * * * * * * * * * * * * * //

dimensions      [1 -1 -2 0 0 0 0];

internalField   nonuniform List<scalar> 
500
(
0.625618
0.625943
0.626234
0.625956
0.62562
0.595824
0.596152
0.596447
0.596166
0.595825
0.565678
0.566007
0.5663
0.56602
0.565679
0.535211
0.535542
0.535837
0.535555
0.535211
0.504386
0.504719
0.505016
0.504732
0.504386
0.473232
0.473568
0.473866
0.47358
0.473232
0.4417
0.442039
0.442338
0.442051
0.441701
0.40983
0.410171
0.410471
0.410183
0.40983
0.377663
0.378006
0.378309
0.378019
0.377663
0.345445
0.345792
0.346096
0.345804
0.345446
0.313002
0.313351
0.313658
0.313364
0.313002
0.278201
0.278551
0.278858
0.278563
0.278201
0.235728
0.236071
0.236377
0.236083
0.235728
0.18901
0.189349
0.189647
0.189361
0.189011
0.193254
0.193644
0.193952
0.193656
0.193255
0.380919
0.381512
0.381921
0.381523
0.380919
0.662772
0.663605
0.664234
0.663611
0.662771
-0.368666
-0.368568
-0.368122
-0.36856
-0.368666
-6.0298
-6.03369
-6.03587
-6.03366
-6.02979
-13.9455
-13.9557
-13.9632
-13.9556
-13.9455
-0.0160727
-0.0160721
-0.0160719
-0.0160721
-0.0160727
-0.0104494
-0.0104499
-0.01045
-0.0104499
-0.0104494
-0.0119613
-0.0119613
-0.0119614
-0.0119613
-0.0119613
-0.0130911
-0.013091
-0.013091
-0.013091
-0.0130911
-0.0138064
-0.0138064
-0.0138063
-0.0138064
-0.0138064
-0.0144187
-0.0144187
-0.0144187
-0.0144187
-0.0144187
-0.015051
-0.015051
-0.015051
-0.015051
-0.015051
-0.015707
-0.015707
-0.015707
-0.015707
-0.015707
-0.0163745
-0.0163745
-0.0163745
-0.0163745
-0.0163745
-0.0170488
-0.0170488
-0.0170488
-0.0170488
-0.0170488
-0.0177301
-0.0177301
-0.0177301
-0.0177301
-0.0177301
-0.0184187
-0.0184187
-0.0184187
-0.0184187
-0.0184187
-0.0191151
-0.0191151
-0.0191151
-0.0191151
-0.0191151
-0.0198193
-0.0198193
-0.0198193
-0.0198193
-0.0198193
-0.0205313
-0.0205313
-0.0205313
-0.0205313
-0.0205313
-0.0212513
-0.0212513
-0.0212513
-0.0212513
-0.0212513
-0.0219793
-0.0219793
-0.0219793
-0.0219793
-0.0219793
-0.0227154
-0.0227154
-0.0227154
-0.0227154
-0.0227154
-0.0234598
-0.0234598
-0.0234598
-0.0234598
-0.0234598
-0.0242124
-0.0242124
-0.0242124
-0.0242124
-0.0242124
-0.0249735
-0.0249735
-0.0249735
-0.0249735
-0.0249735
-0.025743
-0.025743
-0.025743
-0.025743
-0.025743
-0.0265212
-0.0265212
-0.0265212
-0.0265212
-0.0265212
-0.027308
-0.027308
-0.027308
-0.027308
-0.027308
-0.0281036
-0.0281036
-0.0281036
-0.0281036
-0.0281036
-0.028908
-0.028908
-0.028908
-0.028908
-0.028908
-0.0297215
-0.0297215
-0.0297215
-0.0297215
-0.0297215
-0.030544
-0.030544
-0.030544
-0.030544
-0.030544
-0.0313757
-0.0313757
-0.0313757
-0.0313757
-0.0313757
-0.0322167
-0.0322167
-0.0322167
-0.0322167
-0.0322167
-0.0330671
-0.0330671
-0.0330671
-0.0330671
-0.0330671
-0.033927
-0.033927
-0.0339269
-0.033927
-0.033927
-0.0347964
-0.0347964
-0.0347964
-0.0347964
-0.0347964
-0.0356756
-0.0356756
-0.0356756
-0.0356756
-0.0356756
-0.0365645
-0.0365645
-0.0365645
-0.0365645
-0.0365645
-0.0374634
-0.0374634
-0.0374634
-0.0374634
-0.0374634
-0.0383723
-0.0383723
-0.0383723
-0.0383723
-0.0383723
-0.0392914
-0.0392914
-0.0392914
-0.0392914
-0.0392914
-0.0402207
-0.0402207
-0.0402207
-0.0402207
-0.0402207
-0.0411604
-0.0411604
-0.0411604
-0.0411604
-0.0411604
-0.0421106
-0.0421106
-0.0421106
-0.0421106
-0.0421106
-0.0430714
-0.0430714
-0.0430714
-0.0430714
-0.0430714
-0.0440429
-0.0440429
-0.0440429
-0.0440429
-0.0440429
-0.0450252
-0.0450252
-0.0450252
-0.0450252
-0.0450252
-0.0460185
-0.0460185
-0.0460185
-0.0460185
-0.0460185
-0.0470229
-0.0470229
-0.0470229
-0.0470229
-0.0470229
-0.0480385
-0.0480385
-0.0480385
-0.0480385
-0.0480385
-0.0490654
-0.0490654
-0.0490654
-0.0490654
-0.0490654
-0.0501038
-0.0501038
-0.0501038
-0.0501038
-0.0501038
-0.0511538
-0.0511538
-0.0511538
-0.0511538
-0.0511538
-0.0522155
-0.0522155
-0.0522155
-0.0522155
-0.0522155
-0.053289
-0.053289
-0.053289
-0.053289
-0.053289
-0.0543745
-0.0543745
-0.0543745
-0.0543745
-0.0543745
-0.0554721
-0.0554721
-0.0554721
-0.0554721
-0.0554721
-0.056582
-0.056582
-0.056582
-0.056582
-0.056582
-0.0577043
-0.0577043
-0.0577043
-0.0577043
-0.0577043
-0.0588391
-0.0588391
-0.0588391
-0.0588391
-0.0588391
-0.0599865
-0.0599865
-0.0599865
-0.0599865
-0.0599865
-0.0611468
-0.0611468
-0.0611468
-0.0611468
-0.0611468
-0.06232
-0.06232
-0.06232
-0.06232
-0.06232
-0.0635063
-0.0635063
-0.0635063
-0.0635063
-0.0635063
-0.0647058
-0.0647058
-0.0647058
-0.0647058
-0.0647058
-0.0659187
-0.0659187
-0.0659187
-0.0659187
-0.0659187
-0.0671452
-0.0671452
-0.0671452
-0.0671452
-0.0671452
-0.0683853
-0.0683853
-0.0683853
-0.0683853
-0.0683853
-0.0696393
-0.0696393
-0.0696393
-0.0696393
-0.0696393
-0.0709072
-0.0709072
-0.0709072
-0.0709072
-0.0709072
-0.0721893
-0.0721893
-0.0721893
-0.0721893
-0.0721893
-0.0734858
-0.0734858
-0.0734858
-0.0734858
-0.0734858
-0.0747967
-0.0747967
-0.0747967
-0.0747967
-0.0747967
-0.0761222
-0.0761222
-0.0761222
-0.0761222
-0.0761222
-0.0774625
-0.0774625
-0.0774625
-0.0774625
-0.0774625
-0.0788177
-0.0788177
-0.0788177
-0.0788177
-0.0788177
-0.0801881
-0.0801881
-0.0801881
-0.0801881
-0.0801881
-0.0815738
-0.0815738
-0.0815738
-0.0815738
-0.0815738
-0.082975
-0.082975
-0.082975
-0.082975
-0.082975
-0.0843917
-0.0843917
-0.0843917
-0.0843917
-0.0843917
-0.0858243
-0.0858243
-0.0858243
-0.0858243
-0.0858243
-0.0872729
-0.0872729
-0.0872729
-0.0872729
-0.0872729
-0.0887376
-0.0887376
-0.0887376
-0.0887376
-0.0887376
)
;

boundaryField
{
    BotWall
    {
        type            calculated;
        value           nonuniform List<scalar> 5(0.640438 0.640763 0.641054 0.640777 0.64044);
    }
    FreeStream
    {
        type            calculated;
        value           nonuniform List<scalar> 5(-0.0894741 -0.0894741 -0.0894741 -0.0894741 -0.0894741);
    }
    FrontNBack
    {
        type            empty;
    }
    LeftSide
    {
        type            symmetryPlane;
    }
    RightSide
    {
        type            symmetryPlane;
    }
}


// ************************************************************************* //
