/*--------------------------------*- C++ -*----------------------------------*\
| =========                 |                                                 |
| \\      /  F ield         | OpenFOAM: The Open Source CFD Toolbox           |
|  \\    /   O peration     | Version:  2.4.0                                 |
|   \\  /    A nd           | Web:      www.OpenFOAM.org                      |
|    \\/     M anipulation  |                                                 |
\*---------------------------------------------------------------------------*/
FoamFile
{
    version     2.0;
    format      ascii;
    class       volScalarField;
    location    "3.1";
    object      p_rgh;
}
// * * * * * * * * * * * * * * * * * * * * * * * * * * * * * * * * * * * * * //

dimensions      [1 -1 -2 0 0 0 0];

internalField   nonuniform List<scalar> 
500
(
0.640438
0.640763
0.641054
0.640777
0.64044
0.64045
0.640779
0.641073
0.640792
0.640451
0.640443
0.640772
0.641065
0.640785
0.640443
0.64045
0.640782
0.641077
0.640794
0.640451
0.640441
0.640774
0.641071
0.640787
0.640441
0.640446
0.640781
0.641079
0.640794
0.640446
0.640421
0.640759
0.641058
0.640771
0.640421
0.640408
0.640749
0.64105
0.640762
0.640409
0.640455
0.640798
0.641101
0.640811
0.640455
0.64081
0.641157
0.641461
0.641169
0.640811
0.641303
0.641653
0.641959
0.641665
0.641304
0.639806
0.640156
0.640464
0.640169
0.639807
0.631009
0.631352
0.631658
0.631365
0.63101
0.618343
0.618681
0.61898
0.618694
0.618344
0.657019
0.657408
0.657716
0.657421
0.657019
0.879499
0.880092
0.880501
0.880103
0.879499
1.19656
1.19739
1.19802
1.1974
1.19656
0.200716
0.200813
0.201259
0.200821
0.200716
-5.42442
-5.42832
-5.4305
-5.42829
-5.42442
-13.4514
-13.4611
-13.4683
-13.461
-13.4514
-0.00483294
-0.00483242
-0.0048322
-0.00483242
-0.00483294
0.00140666
0.00140625
0.0014061
0.00140625
0.00140666
0.00051803
0.000518033
0.000518014
0.000518034
0.00051803
1.85043e-05
1.85625e-05
1.8574e-05
1.85624e-05
1.85042e-05
-5.95365e-05
-5.95211e-05
-5.95132e-05
-5.95212e-05
-5.95365e-05
-2.75261e-05
-2.7528e-05
-2.75247e-05
-2.75281e-05
-2.75261e-05
-8.30979e-06
-8.30928e-06
-8.30703e-06
-8.30932e-06
-8.30982e-06
-5.46953e-06
-5.46548e-06
-5.46312e-06
-5.46551e-06
-5.46956e-06
-6.74116e-06
-6.73642e-06
-6.73394e-06
-6.73645e-06
-6.74119e-06
-7.49741e-06
-7.49307e-06
-7.4906e-06
-7.49311e-06
-7.49744e-06
-7.60144e-06
-7.59742e-06
-7.59501e-06
-7.59745e-06
-7.60147e-06
-7.54385e-06
-7.53995e-06
-7.5376e-06
-7.53998e-06
-7.54387e-06
-7.5073e-06
-7.50346e-06
-7.50116e-06
-7.50349e-06
-7.50732e-06
-7.49666e-06
-7.49289e-06
-7.49065e-06
-7.49292e-06
-7.49668e-06
-7.49231e-06
-7.48863e-06
-7.48643e-06
-7.48865e-06
-7.49232e-06
-7.48702e-06
-7.48342e-06
-7.48128e-06
-7.48345e-06
-7.48704e-06
-7.48063e-06
-7.47711e-06
-7.47501e-06
-7.47713e-06
-7.48064e-06
-7.47391e-06
-7.47048e-06
-7.46843e-06
-7.47049e-06
-7.47392e-06
-7.46715e-06
-7.4638e-06
-7.4618e-06
-7.46382e-06
-7.46717e-06
-7.46036e-06
-7.45709e-06
-7.45513e-06
-7.4571e-06
-7.46037e-06
-7.45351e-06
-7.45031e-06
-7.4484e-06
-7.45033e-06
-7.45352e-06
-7.44657e-06
-7.44345e-06
-7.44159e-06
-7.44347e-06
-7.44658e-06
-7.43956e-06
-7.43652e-06
-7.4347e-06
-7.43653e-06
-7.43957e-06
-7.43247e-06
-7.4295e-06
-7.42773e-06
-7.42951e-06
-7.43248e-06
-7.4253e-06
-7.4224e-06
-7.42068e-06
-7.42241e-06
-7.42531e-06
-7.41805e-06
-7.41523e-06
-7.41354e-06
-7.41524e-06
-7.41805e-06
-7.41072e-06
-7.40797e-06
-7.40633e-06
-7.40798e-06
-7.41072e-06
-7.40331e-06
-7.40063e-06
-7.39903e-06
-7.40063e-06
-7.40331e-06
-7.39582e-06
-7.3932e-06
-7.39165e-06
-7.39321e-06
-7.39581e-06
-7.38824e-06
-7.38569e-06
-7.38418e-06
-7.3857e-06
-7.38824e-06
-7.38058e-06
-7.3781e-06
-7.37662e-06
-7.3781e-06
-7.38057e-06
-7.37283e-06
-7.37042e-06
-7.36898e-06
-7.37042e-06
-7.37282e-06
-7.365e-06
-7.36265e-06
-7.36125e-06
-7.36265e-06
-7.36499e-06
-7.35707e-06
-7.35479e-06
-7.35343e-06
-7.35479e-06
-7.35707e-06
-7.34907e-06
-7.34685e-06
-7.34553e-06
-7.34684e-06
-7.34906e-06
-7.34097e-06
-7.33881e-06
-7.33753e-06
-7.33881e-06
-7.34096e-06
-7.33278e-06
-7.33068e-06
-7.32944e-06
-7.33068e-06
-7.33277e-06
-7.3245e-06
-7.32247e-06
-7.32126e-06
-7.32246e-06
-7.32449e-06
-7.31613e-06
-7.31416e-06
-7.31298e-06
-7.31415e-06
-7.31612e-06
-7.30767e-06
-7.30575e-06
-7.30462e-06
-7.30575e-06
-7.30766e-06
-7.29912e-06
-7.29725e-06
-7.29615e-06
-7.29725e-06
-7.2991e-06
-7.29046e-06
-7.28866e-06
-7.28759e-06
-7.28865e-06
-7.29045e-06
-7.28172e-06
-7.27997e-06
-7.27893e-06
-7.27996e-06
-7.2817e-06
-7.27287e-06
-7.27118e-06
-7.27018e-06
-7.27117e-06
-7.27286e-06
-7.26393e-06
-7.26229e-06
-7.26132e-06
-7.26228e-06
-7.26392e-06
-7.25489e-06
-7.2533e-06
-7.25237e-06
-7.2533e-06
-7.25488e-06
-7.24575e-06
-7.24421e-06
-7.24331e-06
-7.24421e-06
-7.24574e-06
-7.23651e-06
-7.23502e-06
-7.23415e-06
-7.23502e-06
-7.23649e-06
-7.22716e-06
-7.22573e-06
-7.22489e-06
-7.22572e-06
-7.22715e-06
-7.21771e-06
-7.21633e-06
-7.21552e-06
-7.21633e-06
-7.2177e-06
-7.20816e-06
-7.20683e-06
-7.20605e-06
-7.20682e-06
-7.20815e-06
-7.1985e-06
-7.19722e-06
-7.19647e-06
-7.19721e-06
-7.19849e-06
-7.18874e-06
-7.1875e-06
-7.18678e-06
-7.1875e-06
-7.18872e-06
-7.17887e-06
-7.17768e-06
-7.17698e-06
-7.17767e-06
-7.17885e-06
-7.16888e-06
-7.16774e-06
-7.16708e-06
-7.16774e-06
-7.16887e-06
-7.15879e-06
-7.1577e-06
-7.15706e-06
-7.15769e-06
-7.15878e-06
-7.14859e-06
-7.14754e-06
-7.14693e-06
-7.14754e-06
-7.14858e-06
-7.13827e-06
-7.13727e-06
-7.13669e-06
-7.13726e-06
-7.13826e-06
-7.12784e-06
-7.12688e-06
-7.12633e-06
-7.12688e-06
-7.12783e-06
-7.1173e-06
-7.11638e-06
-7.11586e-06
-7.11638e-06
-7.11728e-06
-7.10663e-06
-7.10577e-06
-7.10526e-06
-7.10576e-06
-7.10662e-06
-7.09585e-06
-7.09503e-06
-7.09455e-06
-7.09503e-06
-7.09584e-06
-7.08496e-06
-7.08417e-06
-7.08373e-06
-7.08417e-06
-7.08494e-06
-7.07394e-06
-7.0732e-06
-7.07278e-06
-7.07319e-06
-7.07393e-06
-7.0628e-06
-7.0621e-06
-7.0617e-06
-7.0621e-06
-7.06278e-06
-7.05153e-06
-7.05088e-06
-7.05051e-06
-7.05088e-06
-7.05152e-06
-7.04014e-06
-7.03953e-06
-7.03919e-06
-7.03953e-06
-7.04013e-06
-7.02863e-06
-7.02806e-06
-7.02774e-06
-7.02806e-06
-7.02862e-06
-7.01699e-06
-7.01646e-06
-7.01616e-06
-7.01646e-06
-7.01698e-06
-7.00522e-06
-7.00473e-06
-7.00446e-06
-7.00473e-06
-7.00521e-06
-6.99331e-06
-6.99287e-06
-6.99263e-06
-6.99287e-06
-6.99331e-06
-6.98128e-06
-6.98089e-06
-6.98066e-06
-6.98088e-06
-6.98128e-06
-6.96912e-06
-6.96876e-06
-6.96857e-06
-6.96876e-06
-6.96911e-06
-6.95682e-06
-6.95651e-06
-6.95633e-06
-6.9565e-06
-6.95681e-06
-6.94438e-06
-6.94411e-06
-6.94396e-06
-6.94411e-06
-6.94438e-06
-6.93181e-06
-6.93158e-06
-6.93146e-06
-6.93158e-06
-6.93181e-06
-6.91909e-06
-6.91891e-06
-6.91882e-06
-6.91891e-06
-6.91909e-06
-6.90623e-06
-6.90611e-06
-6.90605e-06
-6.90611e-06
-6.90623e-06
-6.89324e-06
-6.89315e-06
-6.89312e-06
-6.89315e-06
-6.89324e-06
-6.88019e-06
-6.88003e-06
-6.87994e-06
-6.88003e-06
-6.88019e-06
)
;

boundaryField
{
    BotWall
    {
        type            fixedFluxPressure;
        gradient        uniform 0;
        value           nonuniform List<scalar> 5(0.640438 0.640763 0.641054 0.640777 0.64044);
    }
    FreeStream
    {
        type            totalPressure;
        rho             rho;
        psi             none;
        gamma           1;
        p0              uniform 0;
        value           nonuniform List<scalar> 5(-6.87368e-06 -6.8734e-06 -6.87324e-06 -6.87341e-06 -6.87368e-06);
    }
    FrontNBack
    {
        type            empty;
    }
    LeftSide
    {
        type            symmetryPlane;
    }
    RightSide
    {
        type            symmetryPlane;
    }
}


// ************************************************************************* //
