/*--------------------------------*- C++ -*----------------------------------*\
| =========                 |                                                 |
| \\      /  F ield         | OpenFOAM: The Open Source CFD Toolbox           |
|  \\    /   O peration     | Version:  2.4.0                                 |
|   \\  /    A nd           | Web:      www.OpenFOAM.org                      |
|    \\/     M anipulation  |                                                 |
\*---------------------------------------------------------------------------*/
FoamFile
{
    version     2.0;
    format      ascii;
    class       surfaceScalarField;
    location    "3.1";
    object      phi;
}
// * * * * * * * * * * * * * * * * * * * * * * * * * * * * * * * * * * * * * //

dimensions      [0 3 -1 0 0 0 0];

internalField   nonuniform List<scalar> 
895
(
5.10408e-18
-5.10381e-18
3.02718e-18
2.0776e-18
-3.18801e-18
6.21586e-18
-5.0642e-18
1.87679e-18
-5.0637e-18
1.59281e-17
-2.10273e-17
9.52811e-18
8.48542e-18
-1.00034e-17
2.57584e-17
-1.58169e-17
7.69892e-18
-2.08742e-17
2.74854e-17
-4.85072e-17
1.65093e-17
1.94704e-17
-1.72998e-17
5.95795e-17
-2.7307e-17
1.77155e-17
-4.81746e-17
3.97868e-17
-8.82879e-17
2.39618e-17
3.53049e-17
-2.50688e-17
1.08623e-16
-3.95447e-17
3.2201e-17
-8.77126e-17
5.28815e-17
-1.41163e-16
3.19165e-17
5.62798e-17
-3.33408e-17
1.73893e-16
-5.25773e-17
5.14474e-17
-1.40283e-16
6.68015e-17
-2.07958e-16
4.03947e-17
8.26966e-17
-4.21366e-17
2.56438e-16
-6.64367e-17
7.57575e-17
-2.06713e-16
8.16073e-17
-2.89558e-16
4.94329e-17
1.14881e-16
-5.14924e-17
3.57377e-16
-8.1184e-17
1.05459e-16
-2.87891e-16
9.73293e-17
-3.86881e-16
5.90529e-17
1.53168e-16
-6.14298e-17
4.77873e-16
-9.68496e-17
1.40889e-16
-3.84734e-16
1.14038e-16
-5.00912e-16
6.92963e-17
1.97919e-16
-7.19899e-17
6.19172e-16
-1.13504e-16
1.82412e-16
-4.98232e-16
1.31766e-16
-6.32671e-16
8.01867e-17
2.49508e-16
-8.31962e-17
7.82567e-16
-1.31181e-16
2.30406e-16
-6.29407e-16
1.50593e-16
-7.83257e-16
9.17713e-17
3.08338e-16
-9.50956e-17
9.69446e-16
-1.49958e-16
2.85277e-16
-7.7936e-16
1.70557e-16
-9.53808e-16
1.04077e-16
3.74827e-16
-1.07714e-16
1.18125e-15
-1.69876e-16
3.47447e-16
-9.49231e-16
1.91748e-16
-1.14555e-15
1.17156e-16
4.49427e-16
-1.21105e-16
1.41952e-15
-1.91024e-16
4.17374e-16
-1.14025e-15
2.14196e-16
-1.35974e-15
1.31039e-16
5.32591e-16
-1.35296e-16
1.68586e-15
-2.13431e-16
4.95514e-16
-1.35368e-15
2.3796e-16
-1.5977e-15
1.45772e-16
6.24785e-16
-1.50335e-16
1.98198e-15
-2.37157e-16
5.82342e-16
-1.59083e-15
2.63078e-16
-1.86077e-15
1.61366e-16
7.26503e-16
-1.66231e-16
2.30958e-15
-2.62241e-16
6.78356e-16
-1.85307e-15
2.89896e-16
-2.15066e-15
1.77975e-16
8.38428e-16
-1.83132e-16
2.67069e-15
-2.89035e-16
7.84262e-16
-2.1421e-15
3.19203e-16
-2.46987e-15
1.95678e-16
9.61955e-16
-2.012e-16
3.06757e-15
-3.18325e-16
9.01389e-16
-2.46043e-15
3.52101e-16
-3.66508e-15
2.16439e-16
1.09762e-15
-2.22223e-16
3.50623e-15
-3.51168e-16
1.03033e-15
-3.65162e-15
3.87282e-16
-2.45545e-10
2.40998e-16
-2.45549e-10
-2.47116e-16
-2.45552e-10
-3.86198e-16
-2.45549e-10
-2.45545e-10
3.89622e-16
-2.45546e-10
2.40108e-16
-2.45549e-10
-2.46233e-16
-2.45551e-10
-3.8865e-16
-2.45549e-10
-2.45546e-10
3.91268e-16
-2.45546e-10
2.38284e-16
-2.45549e-10
-2.44269e-16
-2.45551e-10
-3.90357e-16
-2.45549e-10
-2.45546e-10
3.72015e-16
-2.45546e-10
2.29998e-16
-2.45549e-10
-2.35768e-16
-2.4555e-10
-3.71215e-16
-2.45548e-10
-2.45546e-10
3.58135e-16
-2.45547e-10
2.21745e-16
-2.45548e-10
-2.27311e-16
-2.4555e-10
-3.57425e-16
-2.45548e-10
-2.45547e-10
3.46573e-16
-2.45547e-10
2.1415e-16
-2.45548e-10
-2.1952e-16
-2.45549e-10
-3.45945e-16
-2.45548e-10
-2.45547e-10
3.34951e-16
-2.45547e-10
2.0693e-16
-2.45548e-10
-2.12108e-16
-2.45549e-10
-3.34401e-16
-2.45548e-10
-2.45547e-10
3.2303e-16
-2.45548e-10
1.99775e-16
-2.45548e-10
-2.04763e-16
-2.45549e-10
-3.22555e-16
-2.45548e-10
-2.45548e-10
3.11149e-16
-2.45548e-10
1.92632e-16
-2.45548e-10
-1.97432e-16
-2.45548e-10
-3.10747e-16
-2.45548e-10
-2.45548e-10
2.99446e-16
-2.45548e-10
1.85539e-16
-2.45548e-10
-1.90153e-16
-2.45548e-10
-2.99113e-16
-2.45548e-10
-2.45548e-10
2.87909e-16
-2.45549e-10
1.78523e-16
-2.45548e-10
-1.82954e-16
-2.45547e-10
-2.87643e-16
-2.45548e-10
-2.45549e-10
2.7652e-16
-2.45549e-10
1.71591e-16
-2.45548e-10
-1.75843e-16
-2.45547e-10
-2.76317e-16
-2.45548e-10
-2.45549e-10
2.65275e-16
-2.45549e-10
1.64745e-16
-2.45547e-10
-1.6882e-16
-2.45547e-10
-2.65134e-16
-2.45547e-10
-2.45549e-10
2.54182e-16
-2.45549e-10
1.57985e-16
-2.45547e-10
-1.61887e-16
-2.45546e-10
-2.54099e-16
-2.45547e-10
-2.45549e-10
2.43248e-16
-2.4555e-10
1.51316e-16
-2.45547e-10
-1.55047e-16
-2.45546e-10
-2.43221e-16
-2.45547e-10
-2.4555e-10
2.32478e-16
-2.4555e-10
1.4474e-16
-2.45547e-10
-1.48305e-16
-2.45546e-10
-2.32504e-16
-2.45547e-10
-2.4555e-10
2.21877e-16
-2.4555e-10
1.3826e-16
-2.45547e-10
-1.41662e-16
-2.45546e-10
-2.21954e-16
-2.45547e-10
-2.4555e-10
2.11449e-16
-2.4555e-10
1.31881e-16
-2.45547e-10
-1.35123e-16
-2.45545e-10
-2.11574e-16
-2.45547e-10
-2.4555e-10
2.01199e-16
-2.4555e-10
1.25603e-16
-2.45547e-10
-1.28691e-16
-2.45545e-10
-2.0137e-16
-2.45547e-10
-2.4555e-10
1.91131e-16
-2.45551e-10
1.19431e-16
-2.45547e-10
-1.22368e-16
-2.45545e-10
-1.91346e-16
-2.45547e-10
-2.45551e-10
1.81249e-16
-2.45551e-10
1.13367e-16
-2.45547e-10
-1.16157e-16
-2.45545e-10
-1.81506e-16
-2.45547e-10
-2.45551e-10
1.71557e-16
-2.45551e-10
1.07414e-16
-2.45547e-10
-1.10061e-16
-2.45544e-10
-1.71854e-16
-2.45547e-10
-2.45551e-10
1.62059e-16
-2.45551e-10
1.01574e-16
-2.45547e-10
-1.04084e-16
-2.45544e-10
-1.62394e-16
-2.45547e-10
-2.45551e-10
1.52759e-16
-2.45551e-10
9.58505e-17
-2.45547e-10
-9.82262e-17
-2.45544e-10
-1.5313e-16
-2.45547e-10
-2.45551e-10
1.4366e-16
-2.45551e-10
9.02449e-17
-2.45547e-10
-9.24915e-17
-2.45544e-10
-1.44065e-16
-2.45547e-10
-2.45551e-10
1.34766e-16
-2.45552e-10
8.47597e-17
-2.45547e-10
-8.68818e-17
-2.45544e-10
-1.35204e-16
-2.45547e-10
-2.45552e-10
1.26079e-16
-2.45552e-10
7.93972e-17
-2.45546e-10
-8.13994e-17
-2.45543e-10
-1.26548e-16
-2.45547e-10
-2.45552e-10
1.17603e-16
-2.45552e-10
7.41594e-17
-2.45546e-10
-7.60463e-17
-2.45543e-10
-1.18101e-16
-2.45546e-10
-2.45552e-10
1.0934e-16
-2.45552e-10
6.90481e-17
-2.45546e-10
-7.08244e-17
-2.45543e-10
-1.09866e-16
-2.45546e-10
-2.45552e-10
1.01293e-16
-2.45552e-10
6.40653e-17
-2.45546e-10
-6.57355e-17
-2.45543e-10
-1.01845e-16
-2.45546e-10
-2.45552e-10
9.34643e-17
-2.45552e-10
5.92126e-17
-2.45546e-10
-6.07812e-17
-2.45543e-10
-9.40411e-17
-2.45546e-10
-2.45552e-10
8.58556e-17
-2.45552e-10
5.44915e-17
-2.45546e-10
-5.5963e-17
-2.45543e-10
-8.64555e-17
-2.45546e-10
-2.45552e-10
7.8469e-17
-2.45552e-10
4.99035e-17
-2.45546e-10
-5.12822e-17
-2.45543e-10
-7.90904e-17
-2.45546e-10
-2.45552e-10
7.1306e-17
-2.45552e-10
4.54498e-17
-2.45546e-10
-4.67399e-17
-2.45543e-10
-7.19476e-17
-2.45546e-10
-2.45552e-10
6.43681e-17
-2.45552e-10
4.11316e-17
-2.45546e-10
-4.23374e-17
-2.45542e-10
-6.50283e-17
-2.45546e-10
-2.45552e-10
5.76565e-17
-2.45553e-10
3.69499e-17
-2.45546e-10
-3.80752e-17
-2.45542e-10
-5.83338e-17
-2.45546e-10
-2.45552e-10
5.11722e-17
-2.45553e-10
3.29056e-17
-2.45546e-10
-3.39543e-17
-2.45542e-10
-5.18649e-17
-2.45546e-10
-2.45553e-10
4.49157e-17
-2.45553e-10
2.89993e-17
-2.45546e-10
-2.99752e-17
-2.45542e-10
-4.56224e-17
-2.45546e-10
-2.45553e-10
3.88876e-17
-2.45553e-10
2.52317e-17
-2.45546e-10
-2.61382e-17
-2.45542e-10
-3.96066e-17
-2.45546e-10
-2.45553e-10
3.30881e-17
-2.45553e-10
2.16031e-17
-2.45546e-10
-2.24435e-17
-2.45542e-10
-3.38178e-17
-2.45546e-10
-2.45553e-10
2.75171e-17
-2.45553e-10
1.81139e-17
-2.45546e-10
-1.88913e-17
-2.45542e-10
-2.82558e-17
-2.45546e-10
-2.45553e-10
2.21744e-17
-2.45553e-10
1.4764e-17
-2.45546e-10
-1.54813e-17
-2.45542e-10
-2.29203e-17
-2.45546e-10
-2.45553e-10
1.70594e-17
-2.45553e-10
1.15534e-17
-2.45546e-10
-1.22134e-17
-2.45542e-10
-1.78107e-17
-2.45546e-10
-2.45553e-10
1.21712e-17
-2.45553e-10
8.48191e-18
-2.45546e-10
-9.087e-18
-2.45542e-10
-1.29262e-17
-2.45546e-10
-2.45553e-10
7.50874e-18
-2.45553e-10
5.54909e-18
-2.45546e-10
-6.10156e-18
-2.45542e-10
-8.26557e-18
-2.45546e-10
-2.45553e-10
3.07071e-18
-2.45553e-10
2.75436e-18
-2.45546e-10
-3.25626e-18
-2.45542e-10
-3.82746e-18
-2.45546e-10
-2.45553e-10
-1.14454e-18
-2.45553e-10
9.69469e-20
-2.45546e-10
-5.50127e-19
-2.45542e-10
3.89806e-19
-2.45546e-10
-2.45553e-10
-5.13894e-18
-2.45553e-10
-2.42409e-18
-2.45546e-10
2.01799e-18
-2.45542e-10
4.38817e-18
-2.45546e-10
-2.45553e-10
-8.91469e-18
-2.45553e-10
-4.80989e-18
-2.45546e-10
4.44942e-18
-2.45542e-10
8.16986e-18
-2.45546e-10
-2.45553e-10
-1.24743e-17
-2.45553e-10
-7.06178e-18
-2.45546e-10
6.74567e-18
-2.45542e-10
1.17374e-17
-2.45546e-10
-2.45553e-10
-1.58205e-17
-2.45553e-10
-9.18128e-18
-2.45546e-10
8.90845e-18
-2.45542e-10
1.50935e-17
-2.45546e-10
-2.45553e-10
-1.89565e-17
-2.45553e-10
-1.11701e-17
-2.45546e-10
1.09396e-17
-2.45542e-10
1.82414e-17
-2.45546e-10
-2.45553e-10
-2.18856e-17
-2.45553e-10
-1.30302e-17
-2.45546e-10
1.28413e-17
-2.45542e-10
2.11843e-17
-2.45546e-10
-2.45553e-10
-2.46116e-17
-2.45553e-10
-1.47637e-17
-2.45546e-10
1.46157e-17
-2.45542e-10
2.39261e-17
-2.45546e-10
-2.45553e-10
-2.71385e-17
-2.45553e-10
-1.6373e-17
-2.45546e-10
1.62653e-17
-2.45542e-10
2.64707e-17
-2.45546e-10
-2.45553e-10
-2.94707e-17
-2.45553e-10
-1.78607e-17
-2.45546e-10
1.77929e-17
-2.45542e-10
2.88225e-17
-2.45546e-10
-2.45553e-10
-3.16131e-17
-2.45553e-10
-1.92296e-17
-2.45546e-10
1.92012e-17
-2.45542e-10
3.09862e-17
-2.45546e-10
-2.45553e-10
-3.35707e-17
-2.45553e-10
-2.04827e-17
-2.45546e-10
2.04935e-17
-2.45542e-10
3.29667e-17
-2.45546e-10
-2.45553e-10
-3.53491e-17
-2.45552e-10
-2.16235e-17
-2.45546e-10
2.1673e-17
-2.45542e-10
3.47696e-17
-2.45546e-10
-2.45553e-10
-3.69541e-17
-2.45552e-10
-2.26554e-17
-2.45546e-10
2.27434e-17
-2.45542e-10
3.64006e-17
-2.45546e-10
-2.45552e-10
-3.83921e-17
-2.45552e-10
-2.35824e-17
-2.45546e-10
2.37086e-17
-2.45542e-10
3.78659e-17
-2.45546e-10
-2.45552e-10
-3.96699e-17
-2.45552e-10
-2.44086e-17
-2.45546e-10
2.45726e-17
-2.45543e-10
3.91721e-17
-2.45546e-10
-2.45552e-10
-4.07947e-17
-2.45552e-10
-2.51385e-17
-2.45546e-10
2.53398e-17
-2.45543e-10
4.03264e-17
-2.45546e-10
-2.45552e-10
-4.17742e-17
-2.45552e-10
-2.57767e-17
-2.45546e-10
2.60149e-17
-2.45543e-10
4.13362e-17
-2.45546e-10
-2.45552e-10
-4.26167e-17
-2.45552e-10
-2.63285e-17
-2.45546e-10
2.6603e-17
-2.45543e-10
4.22096e-17
-2.45546e-10
-2.45552e-10
-4.33311e-17
-2.45552e-10
-2.67993e-17
-2.45546e-10
2.71094e-17
-2.45543e-10
4.29553e-17
-2.45546e-10
-2.45552e-10
-4.39266e-17
-2.45552e-10
-2.71948e-17
-2.45546e-10
2.75398e-17
-2.45543e-10
4.35823e-17
-2.45546e-10
-2.45552e-10
-4.44134e-17
-2.45552e-10
-2.75215e-17
-2.45546e-10
2.79003e-17
-2.45543e-10
4.41006e-17
-2.45546e-10
-2.45552e-10
-4.48022e-17
-2.45552e-10
-2.77858e-17
-2.45546e-10
2.81975e-17
-2.45543e-10
4.45205e-17
-2.45546e-10
-2.45552e-10
-4.51044e-17
-2.45552e-10
-2.7995e-17
-2.45546e-10
2.84382e-17
-2.45543e-10
4.48532e-17
-2.45546e-10
-2.45552e-10
-4.53322e-17
-2.45552e-10
-2.81567e-17
-2.45546e-10
2.86301e-17
-2.45543e-10
4.51108e-17
-2.45546e-10
-2.45552e-10
-4.54988e-17
-2.45552e-10
-2.82789e-17
-2.45546e-10
2.8781e-17
-2.45543e-10
4.5306e-17
-2.45546e-10
-2.45552e-10
-4.56183e-17
-2.45552e-10
-2.83705e-17
-2.45546e-10
2.88996e-17
-2.45543e-10
4.54525e-17
-2.45546e-10
-2.45552e-10
-4.57056e-17
-2.45552e-10
-2.84408e-17
-2.45546e-10
2.8995e-17
-2.45543e-10
4.55653e-17
-2.45547e-10
-2.45552e-10
-4.5777e-17
-2.45552e-10
-2.84997e-17
-2.45546e-10
2.90771e-17
-2.45543e-10
4.566e-17
-2.45547e-10
-2.45552e-10
-4.58499e-17
-2.45552e-10
-2.85582e-17
-2.45546e-10
2.91566e-17
-2.45543e-10
4.57538e-17
-2.45547e-10
-2.45552e-10
-4.59427e-17
-2.45552e-10
-2.86275e-17
-2.45546e-10
2.92448e-17
-2.45543e-10
4.58649e-17
-2.45547e-10
-2.45552e-10
-4.60752e-17
-2.45552e-10
-2.87199e-17
-2.45547e-10
2.93538e-17
-2.45543e-10
4.60126e-17
-2.45547e-10
-2.45552e-10
-4.62699e-17
-2.45552e-10
-2.88491e-17
-2.45547e-10
2.94973e-17
-2.45543e-10
4.62192e-17
-2.45547e-10
-2.45552e-10
-4.65572e-17
-2.45552e-10
-2.9034e-17
-2.45547e-10
2.96942e-17
-2.45544e-10
4.65146e-17
-2.45547e-10
-2.45552e-10
-4.69953e-17
-2.93088e-17
2.99793e-17
4.6956e-17
)
;

boundaryField
{
    BotWall
    {
        type            calculated;
        value           nonuniform List<scalar> 5(-2.07975e-22 -3.58524e-22 -5.70865e-22 -4.53606e-22 -3.77213e-22);
    }
    FreeStream
    {
        type            calculated;
        value           nonuniform List<scalar> 5(-2.45552e-10 -2.45547e-10 -2.45544e-10 -2.45547e-10 -2.45552e-10);
    }
    FrontNBack
    {
        type            empty;
        value           nonuniform 0();
    }
    LeftSide
    {
        type            symmetryPlane;
        value           uniform 0;
    }
    RightSide
    {
        type            symmetryPlane;
        value           uniform 0;
    }
}


// ************************************************************************* //
