/*--------------------------------*- C++ -*----------------------------------*\
| =========                 |                                                 |
| \\      /  F ield         | OpenFOAM: The Open Source CFD Toolbox           |
|  \\    /   O peration     | Version:  2.4.0                                 |
|   \\  /    A nd           | Web:      www.OpenFOAM.org                      |
|    \\/     M anipulation  |                                                 |
\*---------------------------------------------------------------------------*/
FoamFile
{
    version     2.0;
    format      ascii;
    class       volVectorField;
    location    "3.1";
    object      U;
}
// * * * * * * * * * * * * * * * * * * * * * * * * * * * * * * * * * * * * * //

dimensions      [0 1 -1 0 0 0 0];

internalField   nonuniform List<vector> 
500
(
(1.44753e-09 -1.89122e-10 0)
(2.30271e-09 -1.86665e-10 0)
(-5.14678e-11 -1.83143e-10 0)
(-2.31486e-09 -1.86875e-10 0)
(-1.40947e-09 -1.89084e-10 0)
(4.44016e-09 4.21375e-10 0)
(7.08845e-09 5.06552e-10 0)
(-1.51599e-10 5.49851e-10 0)
(-7.1247e-09 5.04486e-10 0)
(-4.32857e-09 4.218e-10 0)
(7.55303e-09 -9.80356e-10 0)
(1.20896e-08 -7.74256e-10 0)
(-2.49747e-10 -6.42647e-10 0)
(-1.21503e-08 -7.80149e-10 0)
(-7.37027e-09 -9.79241e-10 0)
(1.07886e-08 8.09679e-10 0)
(1.73121e-08 1.29099e-09 0)
(-3.45785e-10 1.56107e-09 0)
(-1.73977e-08 1.2793e-09 0)
(-1.05372e-08 8.11886e-10 0)
(1.41553e-08 -2.0089e-09 0)
(2.2768e-08 -1.25978e-09 0)
(-4.39592e-10 -7.95699e-10 0)
(-2.28786e-08 -1.27917e-09 0)
(-1.38376e-08 -2.00535e-09 0)
(1.76545e-08 1.03658e-09 0)
(2.84623e-08 2.27114e-09 0)
(-5.31112e-10 2.98443e-09 0)
(-2.85977e-08 2.24214e-09 0)
(-1.72726e-08 1.04184e-09 0)
(2.12972e-08 -3.55061e-09 0)
(3.44098e-08 -1.88303e-09 0)
(-6.20303e-10 -8.57075e-10 0)
(-3.45702e-08 -1.92348e-09 0)
(-2.08534e-08 -3.54342e-09 0)
(2.50834e-08 2.24734e-10 0)
(4.06147e-08 2.61082e-09 0)
(-7.07096e-10 4.01127e-09 0)
(-4.07999e-08 2.55698e-09 0)
(-2.458e-08 2.34231e-10 0)
(2.9026e-08 -6.57261e-09 0)
(4.70939e-08 -3.56314e-09 0)
(-7.91428e-10 -1.71533e-09 0)
(-4.7304e-08 -3.63215e-09 0)
(-2.84654e-08 -6.56062e-09 0)
(3.31248e-08 3.346e-09 0)
(5.38517e-08 7.34166e-09 0)
(-8.73243e-10 9.70855e-09 0)
(-5.40866e-08 7.25551e-09 0)
(-3.25094e-08 3.36083e-09 0)
(3.73941e-08 1.16397e-08 0)
(6.09069e-08 1.64955e-08 0)
(-9.52509e-10 1.94712e-08 0)
(-6.11666e-08 1.63904e-08 0)
(-3.67263e-08 1.16575e-08 0)
(4.18339e-08 3.40254e-08 0)
(6.82645e-08 4.015e-08 0)
(-1.02914e-09 4.38191e-08 0)
(-6.85489e-08 4.0024e-08 0)
(-4.11161e-08 3.40465e-08 0)
(4.64595e-08 -8.00593e-08 0)
(7.59446e-08 -7.29935e-08 0)
(-1.1031e-09 -6.85799e-08 0)
(-7.62537e-08 -7.31416e-08 0)
(-4.56942e-08 -8.00347e-08 0)
(5.12691e-08 -5.03863e-07 0)
(8.39502e-08 -4.9565e-07 0)
(-1.17429e-09 -4.9058e-07 0)
(-8.42839e-08 -4.95819e-07 0)
(-5.04587e-08 -5.03834e-07 0)
(5.62765e-08 -8.87622e-07 0)
(9.22983e-08 -8.7819e-07 0)
(-1.24264e-09 -8.72508e-07 0)
(-9.26563e-08 -8.78381e-07 0)
(-5.54236e-08 -8.87588e-07 0)
(6.14902e-08 1.84981e-06 0)
(1.01003e-07 1.86415e-06 0)
(-1.30805e-09 1.87171e-06 0)
(-1.01385e-07 1.86392e-06 0)
(-6.05973e-08 1.84985e-06 0)
(6.69719e-08 1.32131e-05 0)
(1.10151e-07 1.32387e-05 0)
(-1.37076e-09 1.32527e-05 0)
(-1.10558e-07 1.32383e-05 0)
(-6.60416e-08 1.32131e-05 0)
(7.27833e-08 2.24058e-05 0)
(1.19836e-07 2.24434e-05 0)
(-1.44059e-09 2.24693e-05 0)
(-1.20278e-07 2.24429e-05 0)
(-7.18197e-08 2.24058e-05 0)
(7.89109e-08 -4.77721e-05 0)
(1.30165e-07 -4.77975e-05 0)
(-1.49269e-09 -4.78013e-05 0)
(-1.30622e-07 -4.77976e-05 0)
(-7.79108e-08 -4.7772e-05 0)
(8.47046e-08 -0.000358787 0)
(1.40092e-07 -0.000358909 0)
(-1.54442e-09 -0.00035898 0)
(-1.40564e-07 -0.000358908 0)
(-8.3667e-08 -0.000358787 0)
(8.57411e-08 -0.000897035 0)
(1.41735e-07 -0.00089698 0)
(-1.55098e-09 -0.00089696 0)
(-1.42209e-07 -0.00089698 0)
(-8.46995e-08 -0.000897035 0)
(8.42828e-08 -0.00207214 0)
(1.39006e-07 -0.00207205 0)
(-1.48808e-09 -0.00207201 0)
(-1.39476e-07 -0.00207205 0)
(-8.33014e-08 -0.00207214 0)
(8.00245e-08 -0.00127491 0)
(1.32506e-07 -0.00127497 0)
(-1.41585e-09 -0.00127498 0)
(-1.32968e-07 -0.00127497 0)
(-7.91081e-08 -0.00127491 0)
(7.6194e-08 -0.00118486 0)
(1.26474e-07 -0.00118489 0)
(-1.34569e-09 -0.0011849 0)
(-1.26926e-07 -0.00118489 0)
(-7.53399e-08 -0.00118486 0)
(7.27379e-08 -0.00120262 0)
(1.20913e-07 -0.00120263 0)
(-1.27819e-09 -0.00120264 0)
(-1.21356e-07 -0.00120263 0)
(-7.1943e-08 -0.00120262 0)
(6.94143e-08 -0.00122507 0)
(1.15556e-07 -0.00122507 0)
(-1.21305e-09 -0.00122507 0)
(-1.1599e-07 -0.00122507 0)
(-6.86759e-08 -0.00122507 0)
(6.61428e-08 -0.00122969 0)
(1.103e-07 -0.00122969 0)
(-1.14998e-09 -0.00122969 0)
(-1.10725e-07 -0.00122969 0)
(-6.54584e-08 -0.00122969 0)
(6.29458e-08 -0.00122874 0)
(1.05162e-07 -0.00122874 0)
(-1.08894e-09 -0.00122875 0)
(-1.05577e-07 -0.00122874 0)
(-6.2313e-08 -0.00122874 0)
(5.98425e-08 -0.00122785 0)
(1.00164e-07 -0.00122785 0)
(-1.02992e-09 -0.00122785 0)
(-1.0057e-07 -0.00122785 0)
(-5.9259e-08 -0.00122785 0)
(5.68349e-08 -0.00122766 0)
(9.53082e-08 -0.00122766 0)
(-9.72923e-10 -0.00122766 0)
(-9.57041e-08 -0.00122766 0)
(-5.62983e-08 -0.00122766 0)
(5.39197e-08 -0.0012277 0)
(9.05914e-08 -0.0012277 0)
(-9.17925e-10 -0.0012277 0)
(-9.09775e-08 -0.0012277 0)
(-5.34278e-08 -0.0012277 0)
(5.10945e-08 -0.00122774 0)
(8.60112e-08 -0.00122773 0)
(-8.64911e-10 -0.00122773 0)
(-8.63874e-08 -0.00122773 0)
(-5.06451e-08 -0.00122774 0)
(4.83581e-08 -0.00122775 0)
(8.15662e-08 -0.00122774 0)
(-8.1386e-10 -0.00122774 0)
(-8.19325e-08 -0.00122774 0)
(-4.79491e-08 -0.00122775 0)
(4.57095e-08 -0.00122775 0)
(7.72554e-08 -0.00122774 0)
(-7.64752e-10 -0.00122773 0)
(-7.76119e-08 -0.00122774 0)
(-4.5339e-08 -0.00122775 0)
(4.31478e-08 -0.00122775 0)
(7.30773e-08 -0.00122774 0)
(-7.17564e-10 -0.00122773 0)
(-7.34241e-08 -0.00122774 0)
(-4.28138e-08 -0.00122775 0)
(4.06717e-08 -0.00122775 0)
(6.90308e-08 -0.00122774 0)
(-6.72272e-10 -0.00122773 0)
(-6.93679e-08 -0.00122774 0)
(-4.03723e-08 -0.00122775 0)
(3.82801e-08 -0.00122775 0)
(6.51143e-08 -0.00122774 0)
(-6.2885e-10 -0.00122773 0)
(-6.54419e-08 -0.00122774 0)
(-3.80134e-08 -0.00122775 0)
(3.59717e-08 -0.00122775 0)
(6.13263e-08 -0.00122773 0)
(-5.87271e-10 -0.00122773 0)
(-6.16446e-08 -0.00122774 0)
(-3.57359e-08 -0.00122775 0)
(3.37452e-08 -0.00122775 0)
(5.76654e-08 -0.00122773 0)
(-5.47507e-10 -0.00122772 0)
(-5.79746e-08 -0.00122773 0)
(-3.35387e-08 -0.00122775 0)
(3.15994e-08 -0.00122775 0)
(5.41299e-08 -0.00122773 0)
(-5.09527e-10 -0.00122772 0)
(-5.44301e-08 -0.00122773 0)
(-3.14206e-08 -0.00122775 0)
(2.95331e-08 -0.00122775 0)
(5.07182e-08 -0.00122773 0)
(-4.73297e-10 -0.00122772 0)
(-5.10097e-08 -0.00122773 0)
(-2.93803e-08 -0.00122775 0)
(2.75448e-08 -0.00122776 0)
(4.74287e-08 -0.00122773 0)
(-4.38784e-10 -0.00122772 0)
(-4.77116e-08 -0.00122773 0)
(-2.74166e-08 -0.00122776 0)
(2.56333e-08 -0.00122776 0)
(4.42595e-08 -0.00122773 0)
(-4.05952e-10 -0.00122772 0)
(-4.45342e-08 -0.00122773 0)
(-2.55282e-08 -0.00122776 0)
(2.37972e-08 -0.00122776 0)
(4.12089e-08 -0.00122773 0)
(-3.74763e-10 -0.00122772 0)
(-4.14756e-08 -0.00122773 0)
(-2.37137e-08 -0.00122776 0)
(2.20352e-08 -0.00122776 0)
(3.82751e-08 -0.00122773 0)
(-3.45176e-10 -0.00122772 0)
(-3.85341e-08 -0.00122773 0)
(-2.1972e-08 -0.00122776 0)
(2.03458e-08 -0.00122776 0)
(3.54563e-08 -0.00122773 0)
(-3.17151e-10 -0.00122772 0)
(-3.57078e-08 -0.00122773 0)
(-2.03015e-08 -0.00122776 0)
(1.87276e-08 -0.00122776 0)
(3.27505e-08 -0.00122773 0)
(-2.90644e-10 -0.00122772 0)
(-3.29948e-08 -0.00122773 0)
(-1.87011e-08 -0.00122776 0)
(1.71792e-08 -0.00122776 0)
(3.01558e-08 -0.00122773 0)
(-2.65611e-10 -0.00122772 0)
(-3.03932e-08 -0.00122773 0)
(-1.71693e-08 -0.00122776 0)
(1.56992e-08 -0.00122776 0)
(2.76703e-08 -0.00122773 0)
(-2.42005e-10 -0.00122772 0)
(-2.7901e-08 -0.00122773 0)
(-1.57047e-08 -0.00122776 0)
(1.42862e-08 -0.00122776 0)
(2.52918e-08 -0.00122773 0)
(-2.19778e-10 -0.00122771 0)
(-2.55161e-08 -0.00122773 0)
(-1.43059e-08 -0.00122776 0)
(1.29386e-08 -0.00122776 0)
(2.30185e-08 -0.00122773 0)
(-1.98882e-10 -0.00122771 0)
(-2.32366e-08 -0.00122773 0)
(-1.29714e-08 -0.00122776 0)
(1.1655e-08 -0.00122776 0)
(2.08482e-08 -0.00122773 0)
(-1.79265e-10 -0.00122771 0)
(-2.10603e-08 -0.00122773 0)
(-1.17e-08 -0.00122776 0)
(1.04339e-08 -0.00122776 0)
(1.87787e-08 -0.00122773 0)
(-1.60878e-10 -0.00122771 0)
(-1.89851e-08 -0.00122773 0)
(-1.04901e-08 -0.00122776 0)
(9.27378e-09 -0.00122776 0)
(1.68081e-08 -0.00122773 0)
(-1.43669e-10 -0.00122771 0)
(-1.70089e-08 -0.00122773 0)
(-9.34017e-09 -0.00122776 0)
(8.1732e-09 -0.00122776 0)
(1.4934e-08 -0.00122773 0)
(-1.27584e-10 -0.00122771 0)
(-1.51294e-08 -0.00122773 0)
(-8.24889e-09 -0.00122776 0)
(7.13063e-09 -0.00122776 0)
(1.31544e-08 -0.00122773 0)
(-1.12571e-10 -0.00122771 0)
(-1.33445e-08 -0.00122773 0)
(-7.21472e-09 -0.00122776 0)
(6.14454e-09 -0.00122776 0)
(1.1467e-08 -0.00122773 0)
(-9.8578e-11 -0.00122771 0)
(-1.1652e-08 -0.00122773 0)
(-6.2362e-09 -0.00122776 0)
(5.21343e-09 -0.00122776 0)
(9.86962e-09 -0.00122773 0)
(-8.55508e-11 -0.00122771 0)
(-1.00495e-08 -0.00122773 0)
(-5.31184e-09 -0.00122776 0)
(4.33576e-09 -0.00122776 0)
(8.35996e-09 -0.00122773 0)
(-7.34374e-11 -0.00122771 0)
(-8.53493e-09 -0.00122773 0)
(-4.44014e-09 -0.00122776 0)
(3.51003e-09 -0.00122776 0)
(6.93577e-09 -0.00122773 0)
(-6.21857e-11 -0.00122771 0)
(-7.10584e-09 -0.00122773 0)
(-3.61961e-09 -0.00122776 0)
(2.73469e-09 -0.00122776 0)
(5.59477e-09 -0.00122773 0)
(-5.17442e-11 -0.00122771 0)
(-5.75998e-09 -0.00122773 0)
(-2.84876e-09 -0.00122776 0)
(2.00822e-09 -0.00122776 0)
(4.33466e-09 -0.00122773 0)
(-4.20629e-11 -0.00122771 0)
(-4.49502e-09 -0.00122773 0)
(-2.1261e-09 -0.00122776 0)
(1.32911e-09 -0.00122776 0)
(3.15313e-09 -0.00122773 0)
(-3.30925e-11 -0.00122771 0)
(-3.30862e-09 -0.00122773 0)
(-1.45011e-09 -0.00122776 0)
(6.95813e-10 -0.00122776 0)
(2.04785e-09 -0.00122773 0)
(-2.47853e-11 -0.00122771 0)
(-2.19844e-09 -0.00122773 0)
(-8.19315e-10 -0.00122776 0)
(1.06821e-10 -0.00122776 0)
(1.01648e-09 -0.00122773 0)
(-1.70953e-11 -0.00122771 0)
(-1.16213e-09 -0.00122773 0)
(-2.3221e-10 -0.00122776 0)
(-4.39389e-10 -0.00122776 0)
(5.66903e-11 -0.00122773 0)
(-9.97809e-12 -0.00122771 0)
(-1.97325e-10 -0.00122773 0)
(3.12694e-10 -0.00122776 0)
(-9.44332e-10 -0.00122776 0)
(-8.33887e-10 -0.00122773 0)
(-3.39137e-12 -0.00122771 0)
(6.98348e-10 -0.00122773 0)
(8.16887e-10 -0.00122776 0)
(-1.40952e-09 -0.00122776 0)
(-1.65761e-09 -0.00122773 0)
(2.70514e-12 -0.00122771 0)
(1.52726e-09 -0.00122773 0)
(1.28185e-09 -0.00122776 0)
(-1.83647e-09 -0.00122776 0)
(-2.41684e-09 -0.00122773 0)
(8.3495e-12 -0.00122771 0)
(2.29179e-09 -0.00122773 0)
(1.70907e-09 -0.00122776 0)
(-2.22666e-09 -0.00122776 0)
(-3.11396e-09 -0.00122773 0)
(1.35775e-11 -0.00122771 0)
(2.99432e-09 -0.00122773 0)
(2.10002e-09 -0.00122776 0)
(-2.58162e-09 -0.00122776 0)
(-3.75135e-09 -0.00122773 0)
(1.84224e-11 -0.00122771 0)
(3.63722e-09 -0.00122773 0)
(2.45616e-09 -0.00122776 0)
(-2.90282e-09 -0.00122776 0)
(-4.33137e-09 -0.00122773 0)
(2.29151e-11 -0.00122771 0)
(4.22289e-09 -0.00122773 0)
(2.77897e-09 -0.00122776 0)
(-3.19175e-09 -0.00122776 0)
(-4.85643e-09 -0.00122773 0)
(2.70842e-11 -0.00122771 0)
(4.7537e-09 -0.00122773 0)
(3.06989e-09 -0.00122776 0)
(-3.44989e-09 -0.00122776 0)
(-5.3289e-09 -0.00122773 0)
(3.09557e-11 -0.00122771 0)
(5.23203e-09 -0.00122773 0)
(3.33039e-09 -0.00122776 0)
(-3.67873e-09 -0.00122776 0)
(-5.75118e-09 -0.00122773 0)
(3.45529e-11 -0.00122771 0)
(5.66028e-09 -0.00122773 0)
(3.56191e-09 -0.00122776 0)
(-3.87973e-09 -0.00122776 0)
(-6.12566e-09 -0.00122773 0)
(3.78972e-11 -0.00122771 0)
(6.04082e-09 -0.00122773 0)
(3.7659e-09 -0.00122776 0)
(-4.05436e-09 -0.00122776 0)
(-6.45473e-09 -0.00122773 0)
(4.10072e-11 -0.00122771 0)
(6.37604e-09 -0.00122773 0)
(3.94378e-09 -0.00122776 0)
(-4.20408e-09 -0.00122776 0)
(-6.74081e-09 -0.00122773 0)
(4.38996e-11 -0.00122771 0)
(6.66833e-09 -0.00122773 0)
(4.097e-09 -0.00122776 0)
(-4.33036e-09 -0.00122776 0)
(-6.98629e-09 -0.00122773 0)
(4.65889e-11 -0.00122771 0)
(6.92006e-09 -0.00122773 0)
(4.22698e-09 -0.00122776 0)
(-4.43465e-09 -0.00122776 0)
(-7.19358e-09 -0.00122773 0)
(4.90873e-11 -0.00122771 0)
(7.13362e-09 -0.00122773 0)
(4.33516e-09 -0.00122776 0)
(-4.51842e-09 -0.00122776 0)
(-7.3651e-09 -0.00122773 0)
(5.14056e-11 -0.00122771 0)
(7.31142e-09 -0.00122773 0)
(4.42296e-09 -0.00122776 0)
(-4.58313e-09 -0.00122776 0)
(-7.50328e-09 -0.00122773 0)
(5.35527e-11 -0.00122771 0)
(7.45584e-09 -0.00122773 0)
(4.49181e-09 -0.00122776 0)
(-4.63024e-09 -0.00122776 0)
(-7.61054e-09 -0.00122773 0)
(5.55358e-11 -0.00122771 0)
(7.5693e-09 -0.00122773 0)
(4.54314e-09 -0.00122776 0)
(-4.66121e-09 -0.00122776 0)
(-7.68934e-09 -0.00122773 0)
(5.73611e-11 -0.00122771 0)
(7.65421e-09 -0.00122773 0)
(4.57839e-09 -0.00122776 0)
(-4.67751e-09 -0.00122776 0)
(-7.74214e-09 -0.00122773 0)
(5.90334e-11 -0.00122771 0)
(7.71301e-09 -0.00122773 0)
(4.59899e-09 -0.00122776 0)
(-4.68064e-09 -0.00122776 0)
(-7.77142e-09 -0.00122773 0)
(6.05569e-11 -0.00122771 0)
(7.74814e-09 -0.00122773 0)
(4.6064e-09 -0.00122776 0)
(-4.67209e-09 -0.00122776 0)
(-7.77967e-09 -0.00122773 0)
(6.1935e-11 -0.00122771 0)
(7.76206e-09 -0.00122773 0)
(4.60208e-09 -0.00122776 0)
(-4.65335e-09 -0.00122776 0)
(-7.76943e-09 -0.00122773 0)
(6.31706e-11 -0.00122771 0)
(7.75728e-09 -0.00122773 0)
(4.58749e-09 -0.00122776 0)
(-4.62597e-09 -0.00122776 0)
(-7.74324e-09 -0.00122773 0)
(6.42666e-11 -0.00122771 0)
(7.73631e-09 -0.00122773 0)
(4.56414e-09 -0.00122776 0)
(-4.59147e-09 -0.00122776 0)
(-7.7037e-09 -0.00122773 0)
(6.5226e-11 -0.00122771 0)
(7.7017e-09 -0.00122773 0)
(4.53353e-09 -0.00122776 0)
(-4.55145e-09 -0.00122776 0)
(-7.65343e-09 -0.00122773 0)
(6.60523e-11 -0.00122772 0)
(7.65606e-09 -0.00122773 0)
(4.49721e-09 -0.00122776 0)
(-4.5075e-09 -0.00122776 0)
(-7.59512e-09 -0.00122773 0)
(6.67495e-11 -0.00122772 0)
(7.60203e-09 -0.00122773 0)
(4.45675e-09 -0.00122776 0)
(-4.46126e-09 -0.00122776 0)
(-7.53149e-09 -0.00122773 0)
(6.7323e-11 -0.00122772 0)
(7.5423e-09 -0.00122773 0)
(4.41375e-09 -0.00122776 0)
(-4.41441e-09 -0.00122776 0)
(-7.46535e-09 -0.00122773 0)
(6.77794e-11 -0.00122772 0)
(7.47966e-09 -0.00122773 0)
(4.36986e-09 -0.00122776 0)
(-4.3687e-09 -0.00122776 0)
(-7.39955e-09 -0.00122773 0)
(6.81271e-11 -0.00122772 0)
(7.41693e-09 -0.00122773 0)
(4.32678e-09 -0.00122776 0)
(-4.32588e-09 -0.00122776 0)
(-7.33703e-09 -0.00122773 0)
(6.83764e-11 -0.00122772 0)
(7.35702e-09 -0.00122773 0)
(4.28625e-09 -0.00122776 0)
(-4.28781e-09 -0.00122776 0)
(-7.28082e-09 -0.00122773 0)
(6.85403e-11 -0.00122772 0)
(7.30293e-09 -0.00122773 0)
(4.25009e-09 -0.00122776 0)
(-4.25653e-09 -0.00122776 0)
(-7.23426e-09 -0.00122773 0)
(6.86355e-11 -0.00122772 0)
(7.25799e-09 -0.00122773 0)
(4.22028e-09 -0.00122776 0)
(-4.23442e-09 -0.00122776 0)
(-7.20121e-09 -0.00122773 0)
(6.86847e-11 -0.00122772 0)
(7.22603e-09 -0.00122773 0)
(4.19918e-09 -0.00122776 0)
(-4.22374e-09 -0.00122776 0)
(-7.18536e-09 -0.00122773 0)
(6.87117e-11 -0.00122772 0)
(7.21073e-09 -0.00122773 0)
(4.18901e-09 -0.00122776 0)
)
;

boundaryField
{
    BotWall
    {
        type            fixedValue;
        value           uniform (0 0 0);
    }
    FreeStream
    {
        type            zeroGradient;
    }
    FrontNBack
    {
        type            empty;
    }
    LeftSide
    {
        type            symmetryPlane;
    }
    RightSide
    {
        type            symmetryPlane;
    }
}


// ************************************************************************* //
