/*--------------------------------*- C++ -*----------------------------------*\
| =========                 |                                                 |
| \\      /  F ield         | OpenFOAM: The Open Source CFD Toolbox           |
|  \\    /   O peration     | Version:  2.4.0                                 |
|   \\  /    A nd           | Web:      www.OpenFOAM.org                      |
|    \\/     M anipulation  |                                                 |
\*---------------------------------------------------------------------------*/
FoamFile
{
    version     2.0;
    format      ascii;
    class       surfaceScalarField;
    location    "0.014";
    object      phi;
}
// * * * * * * * * * * * * * * * * * * * * * * * * * * * * * * * * * * * * * //

dimensions      [0 3 -1 0 0 0 0];

internalField   nonuniform List<scalar> 
124
(
-3.1461e-09
-3.14611e-09
-3.14611e-09
-3.14612e-09
-3.14613e-09
-3.14613e-09
-3.14614e-09
-3.14615e-09
-3.14615e-09
-3.14616e-09
-3.14617e-09
-3.14617e-09
-3.14618e-09
-3.14619e-09
-3.14619e-09
-3.1462e-09
-3.14621e-09
-3.14621e-09
-3.14622e-09
-3.14623e-09
-3.14623e-09
-3.14624e-09
-3.14625e-09
-3.14625e-09
-3.14626e-09
-3.14627e-09
-3.14627e-09
-3.14628e-09
-3.14628e-09
-3.14629e-09
-3.1463e-09
-3.1463e-09
-3.14631e-09
-3.14632e-09
-3.14632e-09
-3.14633e-09
-3.14633e-09
-3.14634e-09
-3.14635e-09
-3.14635e-09
-3.14636e-09
-3.14636e-09
-3.14637e-09
-3.14637e-09
-3.14638e-09
-3.14638e-09
-3.14639e-09
-3.1464e-09
-3.1464e-09
-3.14641e-09
-3.14641e-09
-3.14642e-09
-3.14642e-09
-3.14643e-09
-3.14643e-09
-3.14643e-09
-3.14644e-09
-3.14644e-09
-3.14645e-09
-3.14645e-09
-3.14645e-09
-3.14646e-09
-3.14646e-09
-3.14646e-09
-3.14647e-09
-3.14647e-09
-3.14647e-09
-3.14648e-09
-3.14648e-09
-3.14648e-09
-3.14648e-09
-3.14649e-09
-3.14649e-09
-3.14649e-09
-3.14649e-09
-3.14649e-09
-3.14649e-09
-3.14649e-09
-3.14649e-09
-3.14649e-09
-3.14649e-09
-3.14649e-09
-3.14649e-09
-3.14649e-09
-3.14649e-09
-3.14649e-09
-3.14649e-09
-3.14649e-09
-3.14649e-09
-3.14649e-09
-3.14648e-09
-3.14648e-09
-3.14648e-09
-3.14648e-09
-3.14647e-09
-3.14647e-09
-3.14647e-09
-3.14646e-09
-3.14646e-09
-3.14646e-09
-3.14645e-09
-3.14645e-09
-3.14644e-09
-3.14644e-09
-3.14643e-09
-3.14643e-09
-3.14642e-09
-3.14641e-09
-3.14641e-09
-3.1464e-09
-3.14639e-09
-3.14639e-09
-3.14638e-09
-3.14637e-09
-3.14636e-09
-3.14635e-09
-3.14634e-09
-3.14633e-09
-3.14632e-09
-3.14631e-09
-3.1463e-09
-3.14629e-09
-3.14628e-09
-3.14627e-09
)
;

boundaryField
{
    BotWall
    {
        type            calculated;
        value           nonuniform 0();
    }
    FreeStream
    {
        type            calculated;
        value           uniform -3.14626e-09;
    }
    FrontNBack
    {
        type            empty;
        value           nonuniform 0();
    }
    LeftSide
    {
        type            symmetryPlane;
        value           uniform 0;
    }
    RightSide
    {
        type            symmetryPlane;
        value           nonuniform 0();
    }
    procBoundary0to1
    {
        type            processor;
        value           uniform 3.14609e-09;
    }
    procBoundary0to2
    {
        type            processor;
        value           nonuniform List<scalar> 
75
(
4.96989e-15
4.86875e-15
4.76347e-15
4.65396e-15
4.54016e-15
4.42201e-15
4.29946e-15
4.17246e-15
4.04099e-15
3.90502e-15
3.76454e-15
3.61954e-15
3.47006e-15
3.3161e-15
3.15772e-15
2.99496e-15
2.82792e-15
2.65666e-15
2.48131e-15
2.30199e-15
2.11884e-15
1.93202e-15
1.74173e-15
1.54815e-15
1.35152e-15
1.15207e-15
9.50066e-16
7.45772e-16
5.3948e-16
3.31491e-16
1.22111e-16
-8.83481e-17
-2.9958e-16
-5.11286e-16
-7.2319e-16
-9.35045e-16
-1.14665e-15
-1.35785e-15
-1.5686e-15
-1.7789e-15
-1.98891e-15
-2.19891e-15
-2.40931e-15
-2.62073e-15
-2.83395e-15
-3.04991e-15
-3.26978e-15
-3.49483e-15
-3.7265e-15
-3.96626e-15
-4.21561e-15
-4.47594e-15
-4.74844e-15
-5.03401e-15
-5.3331e-15
-5.64562e-15
-5.97084e-15
-6.30731e-15
-6.65285e-15
-7.00454e-15
-7.35878e-15
-7.71148e-15
-8.05815e-15
-8.39418e-15
-8.71506e-15
-9.01662e-15
-9.29522e-15
-9.54802e-15
-9.77297e-15
-9.96897e-15
-1.01357e-14
-1.02738e-14
-1.03842e-14
-1.04689e-14
-1.05258e-14
)
;
    }
    procBoundary0to3
    {
        type            processor;
        value           nonuniform List<scalar> 
50
(
6.87223e-15
6.85967e-15
6.84705e-15
6.83433e-15
6.82147e-15
6.80845e-15
6.7952e-15
6.78171e-15
6.76791e-15
6.75376e-15
6.73922e-15
6.72424e-15
6.70875e-15
6.6927e-15
6.67603e-15
6.65869e-15
6.6406e-15
6.62171e-15
6.60193e-15
6.5812e-15
6.55945e-15
6.53659e-15
6.51255e-15
6.48724e-15
6.46058e-15
6.43248e-15
6.40286e-15
6.37161e-15
6.33865e-15
6.30387e-15
6.26719e-15
6.22849e-15
6.18769e-15
6.14466e-15
6.09931e-15
6.05153e-15
6.00122e-15
5.94826e-15
5.89254e-15
5.83396e-15
5.77241e-15
5.70777e-15
5.63995e-15
5.56882e-15
5.49429e-15
5.41625e-15
5.33459e-15
5.24922e-15
5.16004e-15
5.06696e-15
)
;
    }
}


// ************************************************************************* //
