/*--------------------------------*- C++ -*----------------------------------*\
| =========                 |                                                 |
| \\      /  F ield         | OpenFOAM: The Open Source CFD Toolbox           |
|  \\    /   O peration     | Version:  2.4.0                                 |
|   \\  /    A nd           | Web:      www.OpenFOAM.org                      |
|    \\/     M anipulation  |                                                 |
\*---------------------------------------------------------------------------*/
FoamFile
{
    version     2.0;
    format      ascii;
    class       surfaceScalarField;
    location    "0.01";
    object      phi;
}
// * * * * * * * * * * * * * * * * * * * * * * * * * * * * * * * * * * * * * //

dimensions      [0 3 -1 0 0 0 0];

internalField   nonuniform List<scalar> 
123
(
1.90722e-16
8.31301e-16
1.85819e-15
-4.20954e-09
-4.20954e-09
-4.20954e-09
-4.20953e-09
-4.20952e-09
-4.20951e-09
-4.2095e-09
-4.20949e-09
-4.20948e-09
-4.20946e-09
-4.20945e-09
-4.20943e-09
-4.20941e-09
-4.20939e-09
-4.20937e-09
-4.20935e-09
-4.20932e-09
-4.2093e-09
-4.20928e-09
-4.20925e-09
-4.20922e-09
-4.20543e-09
-4.20543e-09
-4.20544e-09
-4.20544e-09
-4.20544e-09
-4.20545e-09
-4.20545e-09
-4.20545e-09
-4.20546e-09
-4.20546e-09
-4.20546e-09
-4.20546e-09
-4.20547e-09
-4.20547e-09
-4.20547e-09
-4.20547e-09
-4.20547e-09
-4.20548e-09
-4.20548e-09
-4.20548e-09
-4.20548e-09
-4.20548e-09
-4.20548e-09
-4.20548e-09
-4.20548e-09
-4.20549e-09
-4.20549e-09
-4.20549e-09
-4.20549e-09
-4.20549e-09
-4.20549e-09
-4.20549e-09
-4.20549e-09
-4.20549e-09
-4.20548e-09
-4.20548e-09
-4.20548e-09
-4.20548e-09
-4.20548e-09
-4.20548e-09
-4.20548e-09
-4.20547e-09
-4.20547e-09
-4.20547e-09
-4.20547e-09
-4.20546e-09
-4.20546e-09
-4.20546e-09
-4.20546e-09
-4.20545e-09
-4.20545e-09
-4.20544e-09
-4.20544e-09
-4.20543e-09
-4.20543e-09
-4.20542e-09
-4.20542e-09
-4.20541e-09
-4.20541e-09
-4.2054e-09
-4.20539e-09
-4.20539e-09
-4.20538e-09
-4.20537e-09
-4.20537e-09
-4.20536e-09
-4.20535e-09
-4.20534e-09
-4.20533e-09
-4.20532e-09
-4.20531e-09
-4.2053e-09
-4.20529e-09
-4.20528e-09
-4.20527e-09
-4.20526e-09
-4.20525e-09
-4.20524e-09
-4.20522e-09
-4.20521e-09
-4.2052e-09
-4.20518e-09
-4.20517e-09
-4.20516e-09
-4.20514e-09
-4.20513e-09
-4.20511e-09
-4.2051e-09
-4.20508e-09
-4.20507e-09
-4.20505e-09
-4.20503e-09
-4.20502e-09
-4.205e-09
-4.20498e-09
-4.20497e-09
-4.20495e-09
-4.20493e-09
-4.20492e-09
)
;

boundaryField
{
    BotWall
    {
        type            calculated;
        value           uniform 0;
    }
    FreeStream
    {
        type            calculated;
        value           uniform -4.2049e-09;
    }
    FrontNBack
    {
        type            empty;
        value           nonuniform 0();
    }
    LeftSide
    {
        type            symmetryPlane;
        value           nonuniform 0();
    }
    RightSide
    {
        type            symmetryPlane;
        value           nonuniform 0();
    }
    procBoundary7to4
    {
        type            processor;
        value           nonuniform List<scalar> 
50
(
-2.70587e-17
-8.23375e-17
-1.36563e-16
-2.25043e-16
-2.5613e-16
-3.28829e-16
-4.30578e-16
-5.32947e-16
-6.31839e-16
-7.26194e-16
-8.16342e-16
-9.02313e-16
-9.83961e-16
-1.06113e-15
-1.13368e-15
-1.20152e-15
-1.26458e-15
-1.32279e-15
-1.37612e-15
-1.42457e-15
-1.46814e-15
-1.50685e-15
-1.54076e-15
-1.56993e-15
-1.59444e-15
-7.89122e-15
-8.25239e-15
-8.6134e-15
-8.97289e-15
-9.32939e-15
-9.68135e-15
-1.00271e-14
-1.03651e-14
-1.06936e-14
-1.1011e-14
-1.13158e-14
-1.16064e-14
-1.18815e-14
-1.214e-14
-1.2381e-14
-1.26035e-14
-1.28071e-14
-1.29916e-14
-1.31568e-14
-1.33031e-14
-1.3431e-14
-1.3541e-14
-1.36342e-14
-1.3712e-14
-1.37703e-14
)
;
    }
    procBoundary7to5
    {
        type            processor;
        value           nonuniform List<scalar> 
75
(
4.81864e-15
4.75801e-15
4.6975e-15
4.63704e-15
4.57656e-15
4.51598e-15
4.45521e-15
4.39416e-15
4.33273e-15
4.27082e-15
4.20831e-15
4.14509e-15
4.08105e-15
4.01604e-15
3.94994e-15
3.8826e-15
3.81388e-15
3.74361e-15
3.67165e-15
3.59783e-15
3.52197e-15
3.4439e-15
3.36344e-15
3.28041e-15
3.19463e-15
3.10589e-15
3.01402e-15
2.91882e-15
2.8201e-15
2.71768e-15
2.61137e-15
2.50099e-15
2.38635e-15
2.2673e-15
2.14366e-15
2.01528e-15
1.88201e-15
1.74371e-15
1.60024e-15
1.4515e-15
1.29738e-15
1.13777e-15
9.726e-16
8.01787e-16
6.25268e-16
4.42985e-16
2.54885e-16
6.09198e-17
-1.38842e-16
-3.44483e-16
-5.56085e-16
-7.73681e-16
-9.97309e-16
-1.22701e-15
-1.46285e-15
-1.70487e-15
-1.95315e-15
-2.20777e-15
-2.46881e-15
-2.73637e-15
-3.01052e-15
-3.29137e-15
-3.57899e-15
-3.87343e-15
-4.17474e-15
-4.48291e-15
-4.79789e-15
-5.11957e-15
-5.44776e-15
-5.78219e-15
-6.12251e-15
-6.46822e-15
-6.81874e-15
-7.17334e-15
-7.53117e-15
)
;
    }
    procBoundary7to6
    {
        type            processor;
        value           uniform -4.2092e-09;
    }
    procBoundary7to8
    {
        type            processor;
        value           uniform 4.20543e-09;
    }
    procBoundary7to9
    {
        type            processor;
        value           nonuniform List<scalar> 
75
(
-1.63663e-16
-5.58241e-16
-8.90322e-16
-1.87962e-15
-2.17212e-15
-3.40401e-15
-5.1468e-15
-6.82476e-15
-8.39873e-15
-9.89253e-15
-1.13229e-14
-1.26921e-14
-1.39995e-14
-1.52447e-14
-1.64282e-14
-1.75506e-14
-1.86127e-14
-1.96151e-14
-2.05585e-14
-2.1444e-14
-2.22725e-14
-2.30449e-14
-2.37623e-14
-2.44261e-14
-2.50372e-14
-3.35423e-15
-3.37362e-15
-3.39153e-15
-3.40798e-15
-3.42299e-15
-3.43657e-15
-3.44876e-15
-3.45957e-15
-3.46904e-15
-3.47721e-15
-3.48409e-15
-3.48974e-15
-3.4942e-15
-3.49749e-15
-3.49967e-15
-3.50079e-15
-3.5009e-15
-3.50004e-15
-3.49829e-15
-3.4957e-15
-3.49233e-15
-3.48827e-15
-3.48359e-15
-3.47837e-15
-3.4727e-15
-3.46667e-15
-3.46039e-15
-3.45396e-15
-3.44749e-15
-3.44109e-15
-3.43489e-15
-3.42899e-15
-3.42352e-15
-3.4186e-15
-3.41433e-15
-3.41083e-15
-3.40821e-15
-3.40654e-15
-3.40592e-15
-3.40642e-15
-3.40808e-15
-3.41095e-15
-3.41504e-15
-3.42038e-15
-3.42694e-15
-3.43469e-15
-3.44354e-15
-3.4534e-15
-3.46444e-15
-3.47252e-15
)
;
    }
    procBoundary7to10
    {
        type            processor;
        value           nonuniform List<scalar> 
50
(
-1.07867e-15
-1.13235e-15
-1.18624e-15
-1.24034e-15
-1.29461e-15
-1.34905e-15
-1.40363e-15
-1.45833e-15
-1.51311e-15
-1.56797e-15
-1.62286e-15
-1.67776e-15
-1.73264e-15
-1.78745e-15
-1.84218e-15
-1.89677e-15
-1.95118e-15
-2.00539e-15
-2.05933e-15
-2.11297e-15
-2.16627e-15
-2.21916e-15
-2.27161e-15
-2.32356e-15
-2.37496e-15
-2.42575e-15
-2.47588e-15
-2.5253e-15
-2.57395e-15
-2.62178e-15
-2.66874e-15
-2.71476e-15
-2.7598e-15
-2.8038e-15
-2.84671e-15
-2.88849e-15
-2.92909e-15
-2.96846e-15
-3.00656e-15
-3.04335e-15
-3.07881e-15
-3.11288e-15
-3.14555e-15
-3.17679e-15
-3.20658e-15
-3.23491e-15
-3.26175e-15
-3.28711e-15
-3.31098e-15
-3.33335e-15
)
;
    }
}


// ************************************************************************* //
