/*--------------------------------*- C++ -*----------------------------------*\
| =========                 |                                                 |
| \\      /  F ield         | OpenFOAM: The Open Source CFD Toolbox           |
|  \\    /   O peration     | Version:  2.4.0                                 |
|   \\  /    A nd           | Web:      www.OpenFOAM.org                      |
|    \\/     M anipulation  |                                                 |
\*---------------------------------------------------------------------------*/
FoamFile
{
    version     2.0;
    format      ascii;
    class       surfaceScalarField;
    location    "1.3";
    object      phi;
}
// * * * * * * * * * * * * * * * * * * * * * * * * * * * * * * * * * * * * * //

dimensions      [0 3 -1 0 0 0 0];

internalField   nonuniform List<scalar> 
15580
(
-2.58142e-13
3.82957e-13
-1.11382e-12
1.2152e-12
-2.71407e-12
2.19122e-12
-5.27748e-12
3.40422e-12
-8.9813e-12
4.80832e-12
-1.40785e-11
6.50723e-12
-2.07397e-11
8.40196e-12
-2.9261e-11
1.06598e-11
-3.98182e-11
1.31005e-11
-5.87603e-11
1.60244e-11
-1.61154e-10
2.19554e-11
-1.80272e-10
1.96803e-11
-1.53001e-10
-3.84142e-11
-1.85316e-10
3.10465e-12
-3.7605e-11
-2.16459e-10
-5.31589e-11
-1.23691e-10
-1.79861e-11
-1.60335e-10
-2.35199e-11
-9.85575e-11
-8.22715e-13
-8.52723e-11
-6.23446e-11
2.13932e-11
-2.31076e-10
1.4457e-10
-4.63322e-10
2.1802e-10
-7.03236e-10
2.33955e-10
-9.16936e-10
2.14296e-10
-1.09077e-09
1.80978e-10
-1.22205e-09
1.43601e-10
-1.31438e-09
1.08683e-10
-1.37588e-09
8.08233e-11
-1.4158e-09
6.11514e-11
-1.44164e-09
4.81318e-11
-1.45806e-09
3.91456e-11
-1.46797e-09
3.23535e-11
-1.47346e-09
2.70169e-11
-1.47505e-09
2.27697e-11
-1.4742e-09
1.93798e-11
-1.47177e-09
1.65409e-11
-1.46854e-09
1.4153e-11
-1.46498e-09
1.20527e-11
-1.46141e-09
1.01388e-11
-1.45805e-09
8.32706e-12
-1.45496e-09
6.52222e-12
-1.45214e-09
4.65916e-12
-1.4495e-09
2.67385e-12
-1.44687e-09
4.78942e-13
-1.44448e-09
-1.56471e-12
-1.44192e-09
-3.83556e-12
-1.43912e-09
-6.16494e-12
-1.43609e-09
-8.4285e-12
-1.43278e-09
-1.06182e-11
-1.27582e-11
-1.42931e-09
1.25532e-12
-8.72362e-13
4.39969e-12
-1.92916e-12
9.04191e-12
-2.45101e-12
1.49186e-11
-2.47247e-12
2.17771e-11
-2.05015e-12
2.93907e-11
-1.10638e-12
3.75306e-11
2.62061e-13
4.59914e-11
2.19899e-12
5.45418e-11
4.55008e-12
6.30081e-11
7.55808e-12
6.69716e-11
1.0027e-11
5.46675e-11
1.30637e-11
-8.48211e-11
1.63138e-11
-1.27739e-10
4.51184e-11
-3.3389e-10
-1.17683e-11
-5.07174e-10
4.95932e-11
-6.34491e-10
-3.30173e-11
-8.73363e-10
1.40314e-10
-7.78005e-10
-1.8063e-10
-8.67557e-10
1.10945e-10
-9.43981e-10
2.20994e-10
-9.72399e-10
2.46438e-10
-1.00868e-09
2.70233e-10
-1.0627e-09
2.68317e-10
-1.07715e-09
1.95429e-10
-1.08555e-09
1.52002e-10
-1.13824e-09
1.6137e-10
-1.22204e-09
1.6463e-10
-1.31767e-09
1.56776e-10
-1.40529e-09
1.35755e-10
-1.47279e-09
1.0665e-10
-1.51748e-09
7.70423e-11
-1.54065e-09
5.01858e-11
-1.5461e-09
2.82201e-11
-1.53965e-09
1.29239e-11
-1.52697e-09
3.86035e-12
-1.51139e-09
-1.42412e-12
-1.49543e-09
-3.90566e-12
-1.48142e-09
-3.8672e-12
-1.47286e-09
-2.3333e-13
-1.47144e-09
5.09493e-12
-1.47841e-09
1.16358e-11
-1.49453e-09
1.87931e-11
-1.51508e-09
2.10249e-11
-1.52899e-09
1.23418e-11
-1.53203e-09
-7.87624e-13
-1.52833e-09
-9.86935e-12
-1.51917e-09
-1.75851e-11
-1.50636e-09
-2.34294e-11
-2.76698e-11
-1.49145e-09
5.8175e-13
-1.45411e-12
2.64094e-12
-3.98835e-12
6.32048e-12
-6.13056e-12
1.17138e-11
-7.86577e-12
1.88739e-11
-9.21031e-12
2.79224e-11
-1.01548e-11
3.89115e-11
-1.07271e-11
5.20155e-11
-1.0905e-11
6.73014e-11
-1.07358e-11
8.50348e-11
-1.01753e-11
1.04357e-10
-9.29523e-12
1.25416e-10
-7.99543e-12
1.43153e-10
-6.23605e-12
1.50588e-10
-6.1537e-12
1.49831e-10
-5.22742e-12
1.45078e-10
-6.99359e-12
1.16162e-10
-7.56314e-12
2.51644e-10
4.4647e-12
8.06642e-11
-1.08501e-11
1.24289e-10
6.73208e-11
3.48763e-10
-3.48021e-12
4.33167e-10
1.62034e-10
3.42216e-10
3.61184e-10
4.1261e-10
1.97923e-10
6.9957e-10
-9.15299e-11
7.97244e-10
5.43275e-11
8.21703e-10
1.3691e-10
7.88992e-10
1.97341e-10
7.32956e-10
2.12811e-10
6.54165e-10
2.14546e-10
6.24567e-10
1.36248e-10
6.05644e-10
9.59653e-11
5.59526e-10
9.6304e-11
4.84613e-10
1.03133e-10
3.96088e-10
1.01449e-10
3.13379e-10
8.6569e-11
2.46008e-10
6.59467e-11
2.02083e-10
4.002e-11
1.88567e-10
9.6481e-12
1.7507e-10
1.32635e-11
1.31433e-10
4.87321e-11
6.43819e-11
7.86872e-11
-1.56067e-11
9.87818e-11
-9.51759e-11
1.00594e-10
-1.52878e-10
7.0044e-11
-2.01124e-10
4.74582e-11
-2.37775e-10
2.6782e-11
-2.63369e-10
8.00836e-12
-2.82036e-10
-4.76194e-12
-1.12733e-11
-2.98433e-10
5.40552e-15
-1.45952e-12
2.10654e-13
-4.1936e-12
7.78994e-13
-6.6989e-12
1.86468e-12
-8.95145e-12
3.59951e-12
-1.09451e-11
6.12404e-12
-1.26794e-11
9.54918e-12
-1.41522e-11
1.40136e-11
-1.53695e-11
1.9611e-11
-1.63331e-11
2.64909e-11
-1.70553e-11
3.47369e-11
-1.75412e-11
4.45494e-11
-1.78079e-11
5.61738e-11
-1.78604e-11
6.77311e-11
-1.7711e-11
7.98797e-11
-1.7376e-11
8.96089e-11
-1.66333e-11
9.73614e-11
-1.53263e-11
1.11688e-10
-1.40131e-11
1.12659e-10
-1.18355e-11
1.32661e-10
-1.05415e-11
1.31727e-10
-8.5055e-12
2.96766e-10
-6.11062e-12
6.5886e-10
-1.80843e-12
8.23617e-10
3.29698e-11
7.31633e-10
3.45537e-13
7.34706e-10
5.12541e-11
7.49373e-10
1.22243e-10
7.58708e-10
1.88006e-10
7.40249e-10
2.31271e-10
9.15817e-10
3.89787e-11
1.07332e-09
-2.12566e-11
1.11198e-09
5.73069e-11
1.06393e-09
1.44351e-10
9.70057e-10
1.97008e-10
8.80802e-10
1.90704e-10
8.26433e-10
1.40938e-10
7.93436e-10
9.89436e-11
7.87076e-10
4.63801e-11
8.40064e-10
-4.33399e-11
9.0373e-10
-5.04018e-11
9.59342e-10
-6.87985e-12
9.7637e-10
6.16589e-11
1.04848e-09
2.66715e-11
1.11019e-09
3.8885e-11
1.14896e-09
3.12731e-11
1.1711e-09
2.53147e-11
1.18193e-09
1.59532e-11
1.18442e-09
5.52178e-12
1.18187e-09
-2.21118e-12
-6.98349e-12
1.17758e-09
3.34083e-13
-1.79361e-12
1.22087e-12
-5.08039e-12
2.61274e-12
-8.09076e-12
4.49709e-12
-1.08358e-11
6.86541e-12
-1.33135e-11
9.71021e-12
-1.55241e-11
1.30242e-11
-1.74662e-11
1.67969e-11
-1.91422e-11
2.10144e-11
-2.05506e-11
2.56551e-11
-2.1696e-11
3.06909e-11
-2.2577e-11
3.60831e-11
-2.32002e-11
4.17858e-11
-2.35631e-11
4.77485e-11
-2.36737e-11
5.39001e-11
-2.35277e-11
6.03963e-11
-2.31294e-11
6.75396e-11
-2.24696e-11
7.50875e-11
-2.1561e-11
8.36492e-11
-2.03972e-11
9.20303e-11
-1.89225e-11
1.00592e-10
-1.70665e-11
1.09121e-10
-1.46429e-11
1.1863e-10
-1.13303e-11
1.31019e-10
-8.13051e-12
1.33088e-10
-3.71192e-12
1.53351e-10
-2.21474e-13
2.70434e-10
4.27783e-12
4.47015e-10
1.11401e-11
6.5804e-10
2.01474e-11
6.56581e-10
4.04371e-11
6.38286e-10
-2.9609e-12
5.96924e-10
9.86688e-11
5.76618e-10
1.64657e-10
6.17859e-10
1.55767e-10
7.36917e-10
7.16464e-11
8.35627e-10
4.22271e-11
8.72547e-10
6.20232e-11
8.44911e-10
7.40168e-11
8.39927e-10
-3.83564e-11
8.32966e-10
-4.344e-11
8.68944e-10
-4.28584e-11
9.46058e-10
-1.5455e-11
9.70244e-10
2.48508e-12
1.00874e-09
3.92407e-13
1.04162e-09
-1.61429e-12
1.06765e-09
-7.08847e-13
1.0873e-09
-3.70394e-12
1.10264e-09
-9.81565e-12
1.11904e-09
-1.86056e-11
-2.88884e-11
1.14094e-09
1.29206e-13
-1.92282e-12
5.56316e-13
-5.5075e-12
1.2904e-12
-8.82485e-12
2.32745e-12
-1.18729e-11
3.66864e-12
-1.46546e-11
5.31668e-12
-1.71722e-11
7.27863e-12
-1.94282e-11
9.56042e-12
-2.1424e-11
1.2172e-11
-2.31622e-11
1.51193e-11
-2.46434e-11
1.84126e-11
-2.58702e-11
2.20548e-11
-2.68424e-11
2.60544e-11
-2.75627e-11
3.04104e-11
-2.80297e-11
3.51288e-11
-2.82461e-11
4.02088e-11
-2.82094e-11
4.56617e-11
-2.79224e-11
5.14817e-11
-2.73811e-11
5.76746e-11
-2.659e-11
6.42938e-11
-2.55417e-11
7.14682e-11
-2.42409e-11
7.9503e-11
-2.26776e-11
8.90353e-11
-2.08626e-11
9.96981e-11
-1.87933e-11
1.12498e-10
-1.65118e-11
1.26147e-10
-1.38699e-11
1.40737e-10
-1.08322e-11
1.54518e-10
-7.43292e-12
1.62831e-10
-3.66799e-12
1.71071e-10
3.3906e-14
1.62742e-10
4.48951e-12
2.5204e-10
9.08738e-12
4.01865e-10
1.47268e-11
5.26274e-10
3.13584e-11
5.98535e-10
-6.15145e-13
6.06683e-10
3.40797e-11
5.50587e-10
1.18119e-10
4.80244e-10
1.4436e-10
3.93102e-10
4.87855e-11
3.86556e-10
-3.68941e-11
2.8784e-10
5.58572e-11
1.96157e-10
7.62281e-11
1.24585e-10
7.40574e-11
8.05139e-11
4.44632e-11
5.87487e-11
2.0151e-11
3.43067e-11
2.37332e-11
2.52742e-11
5.32856e-12
2.93465e-11
-1.3888e-11
4.11414e-11
-3.04005e-11
-4.59274e-11
5.81804e-11
-6.43136e-14
-1.8585e-12
-2.54536e-13
-5.31728e-12
-5.44588e-13
-8.5348e-12
-8.96942e-13
-1.15205e-11
-1.27486e-12
-1.42767e-11
-1.64175e-12
-1.68053e-11
-1.96156e-12
-1.91084e-11
-2.19809e-12
-2.11874e-11
-2.31556e-12
-2.30447e-11
-2.27777e-12
-2.46811e-11
-2.04867e-12
-2.60993e-11
-1.59167e-12
-2.72994e-11
-8.69801e-13
-2.82846e-11
1.54516e-13
-2.9054e-11
1.52e-12
-2.96116e-11
3.26577e-12
-2.99551e-11
5.43308e-12
-3.00897e-11
8.06275e-12
-3.00108e-11
1.11983e-11
-2.97256e-11
1.48826e-11
-2.9226e-11
1.91645e-11
-2.85227e-11
2.40896e-11
-2.76027e-11
2.97091e-11
-2.64822e-11
3.60568e-11
-2.5141e-11
4.31504e-11
-2.36055e-11
5.11225e-11
-2.1842e-11
6.01781e-11
-1.98878e-11
7.04382e-11
-1.76929e-11
8.20857e-11
-1.53155e-11
9.47934e-11
-1.26747e-11
1.09085e-10
-9.80943e-12
1.24099e-10
-6.63173e-12
1.34956e-10
-3.20169e-12
1.36694e-10
-1.43038e-13
1.31467e-10
3.91441e-12
1.57427e-10
7.89977e-12
2.6044e-10
1.50166e-11
3.82208e-10
2.25896e-11
4.09111e-10
2.18829e-11
3.78674e-10
-6.45763e-12
3.53269e-10
8.12628e-11
3.37271e-10
9.22262e-11
3.76333e-10
3.49956e-11
4.07187e-10
1.36089e-11
3.84341e-10
4.29976e-11
3.62945e-10
4.51292e-11
3.43123e-10
2.515e-11
3.23757e-10
5.47853e-12
3.10104e-10
-1.67475e-11
-3.51119e-11
2.99288e-10
-1.95871e-13
-1.66263e-12
-6.91468e-13
-4.82168e-12
-1.4277e-12
-7.79856e-12
-2.36214e-12
-1.05861e-11
-3.4538e-12
-1.31851e-11
-4.66267e-12
-1.55964e-11
-5.95005e-12
-1.7821e-11
-7.27772e-12
-1.98598e-11
-8.6087e-12
-2.17137e-11
-9.90591e-12
-2.33839e-11
-1.11336e-11
-2.48716e-11
-1.22553e-11
-2.61778e-11
-1.3236e-11
-2.73039e-11
-1.40389e-11
-2.82511e-11
-1.46295e-11
-2.9021e-11
-1.49699e-11
-2.96147e-11
-1.50257e-11
-3.0034e-11
-1.47566e-11
-3.02799e-11
-1.41277e-11
-3.03544e-11
-1.30953e-11
-3.02584e-11
-1.16237e-11
-2.99944e-11
-9.66409e-12
-2.95623e-11
-7.18064e-12
-2.89656e-11
-4.11849e-12
-2.82032e-11
-4.43939e-13
-2.728e-11
3.9067e-12
-2.61926e-11
8.96782e-12
-2.49489e-11
1.48166e-11
-2.35418e-11
2.14857e-11
-2.19846e-11
2.90751e-11
-2.02641e-11
3.76682e-11
-1.84025e-11
4.74096e-11
-1.63731e-11
5.84163e-11
-1.42085e-11
7.01332e-11
-1.18594e-11
8.34052e-11
-9.36064e-12
9.76024e-11
-6.49594e-12
1.12721e-10
-3.80391e-12
1.1434e-10
-1.23391e-12
1.34705e-10
1.06535e-12
1.23923e-10
4.1952e-12
1.9853e-10
6.60628e-12
2.73755e-10
1.70012e-11
3.09003e-10
-2.52464e-13
3.11554e-10
1.10583e-11
3.05965e-10
4.85859e-11
3.24138e-10
2.69568e-11
3.35164e-10
1.41236e-11
3.2692e-10
1.37229e-11
3.2605e-10
-1.5877e-11
-3.32016e-11
3.24139e-10
-1.3832e-13
-1.52431e-12
-5.64311e-13
-4.39569e-12
-1.25776e-12
-7.10511e-12
-2.18353e-12
-9.66029e-12
-3.30677e-12
-1.20618e-11
-4.5928e-12
-1.43104e-11
-6.00716e-12
-1.64066e-11
-7.51556e-12
-1.83514e-11
-9.0839e-12
-2.01454e-11
-1.06783e-11
-2.17896e-11
-1.2265e-11
-2.32849e-11
-1.38104e-11
-2.46323e-11
-1.52813e-11
-2.5833e-11
-1.66444e-11
-2.6888e-11
-1.78667e-11
-2.77987e-11
-1.89152e-11
-2.85662e-11
-1.97572e-11
-2.9192e-11
-2.03596e-11
-2.96774e-11
-2.06902e-11
-3.00239e-11
-2.07156e-11
-3.02331e-11
-2.04036e-11
-3.03063e-11
-1.97204e-11
-3.02455e-11
-1.86342e-11
-3.00518e-11
-1.71097e-11
-2.97277e-11
-1.51159e-11
-2.92739e-11
-1.26151e-11
-2.86933e-11
-9.57768e-12
-2.79864e-11
-5.96276e-12
-2.71567e-11
-1.74353e-12
-2.62038e-11
3.12482e-12
-2.51325e-11
8.66373e-12
-2.39414e-11
1.49269e-11
-2.26363e-11
2.19335e-11
-2.1215e-11
2.97586e-11
-1.96845e-11
3.84398e-11
-1.80418e-11
4.82379e-11
-1.62941e-11
5.88696e-11
-1.44357e-11
7.01109e-11
-1.24751e-11
8.15415e-11
-1.03719e-11
9.38309e-11
-8.15067e-12
1.04645e-10
-5.66281e-12
1.13389e-10
-3.76103e-12
1.1397e-10
-1.07752e-12
1.23354e-10
1.63916e-12
1.64876e-10
7.06413e-12
1.93755e-10
-1.92221e-12
2.12868e-10
-4.98939e-12
2.22376e-10
4.21506e-12
2.31195e-10
-2.46964e-11
8.70426e-12
1.8929e-10
-2.34647e-13
-1.28966e-12
-8.61731e-13
-3.7686e-12
-1.83144e-12
-6.13541e-12
-3.10753e-12
-8.3842e-12
-4.65448e-12
-1.05149e-11
-6.43743e-12
-1.25274e-11
-8.42209e-12
-1.4422e-11
-1.05748e-11
-1.61987e-11
-1.28623e-11
-1.78579e-11
-1.52519e-11
-1.93999e-11
-1.77114e-11
-2.08254e-11
-2.02089e-11
-2.21348e-11
-2.2713e-11
-2.33289e-11
-2.51927e-11
-2.44083e-11
-2.76173e-11
-2.53741e-11
-2.99565e-11
-2.6227e-11
-3.21803e-11
-2.69682e-11
-3.42593e-11
-2.75985e-11
-3.61639e-11
-2.81193e-11
-3.78654e-11
-2.85315e-11
-3.93349e-11
-2.88368e-11
-4.05443e-11
-2.9036e-11
-4.14651e-11
-2.91311e-11
-4.207e-11
-2.91227e-11
-4.23308e-11
-2.90132e-11
-4.22211e-11
-2.8803e-11
-4.17127e-11
-2.84948e-11
-4.07804e-11
-2.80889e-11
-3.93958e-11
-2.75884e-11
-3.75352e-11
-2.69931e-11
-3.51699e-11
-2.63067e-11
-3.2278e-11
-2.55283e-11
-2.88304e-11
-2.46625e-11
-2.48074e-11
-2.37075e-11
-2.01801e-11
-2.26691e-11
-1.493e-11
-2.15442e-11
-9.02576e-12
-2.03399e-11
-2.44941e-12
-1.90515e-11
4.86653e-12
-1.76879e-11
1.29564e-11
-1.62406e-11
2.20127e-11
-1.4719e-11
3.13598e-11
-1.31076e-11
4.17027e-11
-1.14202e-11
5.30052e-11
-9.74631e-12
6.18974e-11
-8.59574e-12
6.67955e-11
-7.01343e-12
6.69149e-11
-5.15673e-12
7.8734e-11
-7.60405e-12
6.62772e-11
-1.22396e-11
-1.18198e-11
8.68011e-11
-2.19426e-13
-1.07023e-12
-8.69555e-13
-3.11847e-12
-1.92278e-12
-5.08219e-12
-3.34252e-12
-6.96446e-12
-5.09324e-12
-8.76416e-12
-7.14029e-12
-1.04804e-11
-9.4499e-12
-1.21124e-11
-1.1989e-11
-1.36595e-11
-1.47255e-11
-1.51214e-11
-1.76277e-11
-1.64977e-11
-2.06648e-11
-1.77883e-11
-2.38066e-11
-1.89931e-11
-2.70233e-11
-2.01121e-11
-3.02858e-11
-2.11458e-11
-3.35656e-11
-2.20944e-11
-3.68342e-11
-2.29584e-11
-4.0064e-11
-2.37383e-11
-4.32275e-11
-2.4435e-11
-4.62975e-11
-2.50492e-11
-4.9247e-11
-2.5582e-11
-5.20495e-11
-2.60344e-11
-5.4678e-11
-2.64075e-11
-5.71063e-11
-2.67028e-11
-5.93075e-11
-2.69215e-11
-6.12553e-11
-2.70653e-11
-6.29223e-11
-2.7136e-11
-6.42822e-11
-2.7135e-11
-6.53064e-11
-2.70646e-11
-6.59682e-11
-2.69267e-11
-6.62376e-11
-2.67236e-11
-6.60868e-11
-2.64575e-11
-6.5484e-11
-2.61311e-11
-6.43996e-11
-2.57469e-11
-6.27993e-11
-2.53078e-11
-6.06514e-11
-2.48171e-11
-5.79181e-11
-2.42775e-11
-5.45646e-11
-2.36933e-11
-5.05488e-11
-2.30673e-11
-4.5832e-11
-2.24047e-11
-4.03643e-11
-2.17083e-11
-3.40984e-11
-2.09849e-11
-2.69693e-11
-2.02366e-11
-1.89157e-11
-1.94739e-11
-9.96571e-12
-1.86963e-11
-6.57389e-13
-1.7904e-11
9.48429e-12
-1.71544e-11
2.1076e-11
-1.67515e-11
2.68004e-11
-1.62461e-11
3.06692e-11
-1.62331e-11
-1.71329e-11
3.59824e-11
-2.05593e-13
-8.64639e-13
-7.67013e-13
-2.55705e-12
-1.64843e-12
-4.20077e-12
-2.82369e-12
-5.7892e-12
-4.2669e-12
-7.32095e-12
-5.95253e-12
-8.79476e-12
-7.85534e-12
-1.02096e-11
-9.95049e-12
-1.15644e-11
-1.22135e-11
-1.28584e-11
-1.46201e-11
-1.40911e-11
-1.71465e-11
-1.52618e-11
-1.97693e-11
-1.63702e-11
-2.24653e-11
-1.74161e-11
-2.52118e-11
-1.83993e-11
-2.79863e-11
-1.93199e-11
-3.07666e-11
-2.0178e-11
-3.3531e-11
-2.09739e-11
-3.6258e-11
-2.1708e-11
-3.89264e-11
-2.23808e-11
-4.15155e-11
-2.2993e-11
-4.40045e-11
-2.35453e-11
-4.63733e-11
-2.40387e-11
-4.86019e-11
-2.44742e-11
-5.06706e-11
-2.48528e-11
-5.25599e-11
-2.5176e-11
-5.42508e-11
-2.54451e-11
-5.57242e-11
-2.56616e-11
-5.69617e-11
-2.58272e-11
-5.79448e-11
-2.59437e-11
-5.86555e-11
-2.60129e-11
-5.90759e-11
-2.60371e-11
-5.91888e-11
-2.60182e-11
-5.89768e-11
-2.59589e-11
-5.84233e-11
-2.58613e-11
-5.75119e-11
-2.57285e-11
-5.62268e-11
-2.55627e-11
-5.45526e-11
-2.53675e-11
-5.24746e-11
-2.51453e-11
-4.99791e-11
-2.49002e-11
-4.70529e-11
-2.46345e-11
-4.36847e-11
-2.43531e-11
-3.98632e-11
-2.40581e-11
-3.55818e-11
-2.37553e-11
-3.08317e-11
-2.34463e-11
-2.55977e-11
-2.3138e-11
-1.99205e-11
-2.28316e-11
-1.4138e-11
-2.2534e-11
-8.09132e-12
-2.22926e-11
-2.20661e-12
-2.21315e-11
-2.17779e-11
6.06255e-14
-1.09338e-13
-7.553e-13
-4.47223e-13
-2.21917e-12
-1.00469e-12
-3.6433e-12
-1.76371e-12
-5.03018e-12
-2.70649e-12
-6.37817e-12
-3.8154e-12
-7.68586e-12
-5.07295e-12
-8.952e-12
-6.46187e-12
-1.01755e-11
-7.96505e-12
-1.13553e-11
-9.56557e-12
-1.24906e-11
-1.12467e-11
-1.35807e-11
-1.29919e-11
-1.4625e-11
-1.4785e-11
-1.56231e-11
-1.66097e-11
-1.65746e-11
-1.84502e-11
-1.74794e-11
-2.0291e-11
-1.83373e-11
-2.21166e-11
-1.91483e-11
-2.3912e-11
-1.99126e-11
-2.56624e-11
-2.06304e-11
-2.73533e-11
-2.13021e-11
-2.89704e-11
-2.19282e-11
-3.05001e-11
-2.25091e-11
-3.19287e-11
-2.30456e-11
-3.32432e-11
-2.35383e-11
-3.44309e-11
-2.39883e-11
-3.54796e-11
-2.43964e-11
-3.63775e-11
-2.47637e-11
-3.71132e-11
-2.50914e-11
-3.76761e-11
-2.53808e-11
-3.80559e-11
-2.56331e-11
-3.8243e-11
-2.585e-11
-3.82283e-11
-2.60329e-11
-3.80036e-11
-2.61835e-11
-3.75613e-11
-2.63036e-11
-3.68946e-11
-2.63952e-11
-3.59972e-11
-2.646e-11
-3.48644e-11
-2.65003e-11
-3.34915e-11
-2.65182e-11
-3.18755e-11
-2.65161e-11
-3.00138e-11
-2.64962e-11
-2.79056e-11
-2.64613e-11
-2.55501e-11
-2.64136e-11
-2.29492e-11
-2.63562e-11
-2.0104e-11
-2.62915e-11
-1.70189e-11
-2.62231e-11
-1.36975e-11
-2.6153e-11
-1.01465e-11
-2.6085e-11
-6.41405e-12
-2.60251e-11
-2.56945e-12
-2.59761e-11
-2.60343e-11
1.68899e-12
-6.38309e-14
-6.91468e-13
-2.20371e-13
-2.06263e-12
-4.55164e-13
-3.40851e-12
-7.63345e-13
-4.72199e-12
-1.13935e-12
-6.00216e-12
-1.57702e-12
-7.24819e-12
-2.06973e-12
-8.45929e-12
-2.6104e-12
-9.63479e-12
-3.19161e-12
-1.07741e-11
-3.80563e-12
-1.18766e-11
-4.44447e-12
-1.29418e-11
-5.09994e-12
-1.39695e-11
-5.7637e-12
-1.49594e-11
-6.42726e-12
-1.59111e-11
-7.08207e-12
-1.68246e-11
-7.71953e-12
-1.76998e-11
-8.33104e-12
-1.85368e-11
-8.90802e-12
-1.93356e-11
-9.44195e-12
-2.00965e-11
-9.92442e-12
-2.08197e-11
-1.03471e-11
-2.15055e-11
-1.07019e-11
-2.21543e-11
-1.09809e-11
-2.27666e-11
-1.11763e-11
-2.33429e-11
-1.12808e-11
-2.38839e-11
-1.12871e-11
-2.43901e-11
-1.11885e-11
-2.48623e-11
-1.09785e-11
-2.53014e-11
-1.06511e-11
-2.57081e-11
-1.02008e-11
-2.60834e-11
-9.62256e-12
-2.64283e-11
-8.91176e-12
-2.67437e-11
-8.06452e-12
-2.70308e-11
-7.07754e-12
-2.72906e-11
-5.94824e-12
-2.75245e-11
-4.67473e-12
-2.77335e-11
-3.25598e-12
-2.79191e-11
-1.69171e-12
-2.80825e-11
1.73518e-14
-2.82252e-11
1.86967e-12
-2.83486e-11
3.8625e-12
-2.84541e-11
5.99233e-12
-2.85434e-11
8.25414e-12
-2.8618e-11
1.06422e-11
-2.86796e-11
1.3149e-11
-2.87298e-11
1.57664e-11
-2.87704e-11
1.84845e-11
-2.88031e-11
2.12853e-11
-2.88258e-11
2.41766e-11
-2.88674e-11
-2.89086e-11
2.70509e-11
1.22783e-14
-7.03746e-13
9.25564e-15
-2.05961e-12
-2.00701e-14
-3.37919e-12
-7.27169e-14
-4.66935e-12
-1.45798e-13
-5.92908e-12
-2.36442e-13
-7.15754e-12
-3.41765e-13
-8.35397e-12
-4.5886e-13
-9.5177e-12
-5.84789e-13
-1.06481e-11
-7.16576e-13
-1.17448e-11
-8.51203e-13
-1.28072e-11
-9.85599e-13
-1.38351e-11
-1.11665e-12
-1.48283e-11
-1.24119e-12
-1.57865e-11
-1.35601e-12
-1.67097e-11
-1.45787e-12
-1.75979e-11
-1.54347e-12
-1.84512e-11
-1.60953e-12
-1.92696e-11
-1.65273e-12
-2.00533e-11
-1.66977e-12
-2.08026e-11
-1.65736e-12
-2.15179e-11
-1.61225e-12
-2.21994e-11
-1.53125e-12
-2.28476e-11
-1.41125e-12
-2.34629e-11
-1.24925e-12
-2.40459e-11
-1.04236e-12
-2.4597e-11
-7.87841e-13
-2.51169e-11
-4.83155e-13
-2.56061e-11
-1.25964e-13
-2.60653e-11
2.8583e-13
-2.64952e-11
7.54041e-13
-2.68965e-11
1.28018e-12
-2.72698e-11
1.86539e-12
-2.7616e-11
2.51043e-12
-2.79357e-11
3.21565e-12
-2.82297e-11
3.9809e-12
-2.84988e-11
4.80548e-12
-2.87437e-11
5.68813e-12
-2.89652e-11
6.62696e-12
-2.9164e-11
7.61933e-12
-2.93409e-11
8.66193e-12
-2.94967e-11
9.75051e-12
-2.9632e-11
1.088e-11
-2.97475e-11
1.20442e-11
-2.98438e-11
1.32359e-11
-2.99215e-11
1.44465e-11
-2.9981e-11
1.56637e-11
-3.00204e-11
1.68778e-11
-3.00399e-11
1.80594e-11
-3.0049e-11
-3.0031e-11
1.91818e-11
-2.77508e-15
-7.00971e-13
4.19162e-14
-2.1043e-12
1.47518e-13
-3.48479e-12
3.0825e-13
-4.83008e-12
5.18439e-13
-6.13927e-12
7.72496e-13
-7.4116e-12
1.06496e-12
-8.64644e-12
1.39057e-12
-9.8433e-12
1.74428e-12
-1.10018e-11
2.12134e-12
-1.21218e-11
2.51729e-12
-1.32032e-11
2.92798e-12
-1.42458e-11
3.34962e-12
-1.52499e-11
3.77876e-12
-1.62157e-11
4.21232e-12
-1.71433e-11
4.64754e-12
-1.80332e-11
5.08205e-12
-1.88857e-11
5.51378e-12
-1.97013e-11
5.941e-12
-2.04805e-11
6.3623e-12
-2.12239e-11
6.77653e-12
-2.19321e-11
7.18283e-12
-2.26057e-11
7.58056e-12
-2.32453e-11
7.9693e-12
-2.38516e-11
8.34881e-12
-2.44254e-11
8.71903e-12
-2.49672e-11
9.08001e-12
-2.54778e-11
9.43189e-12
-2.5958e-11
9.77491e-12
-2.64083e-11
1.01093e-11
-2.68296e-11
1.04354e-11
-2.72226e-11
1.07534e-11
-2.75878e-11
1.10635e-11
-2.79261e-11
1.1366e-11
-2.82381e-11
1.16608e-11
-2.85245e-11
1.1948e-11
-2.8786e-11
1.22275e-11
-2.90232e-11
1.2499e-11
-2.92366e-11
1.27621e-11
-2.94271e-11
1.30163e-11
-2.95951e-11
1.32609e-11
-2.97413e-11
1.34951e-11
-2.98663e-11
1.37182e-11
-2.99706e-11
1.3929e-11
-3.00547e-11
1.41268e-11
-3.01193e-11
1.43105e-11
-3.01647e-11
1.44892e-11
-3.01991e-11
1.46547e-11
-3.02054e-11
1.47943e-11
-3.01886e-11
-3.01537e-11
1.3987e-11
1.13157e-13
-8.14127e-13
3.68105e-13
-2.35925e-12
7.32071e-13
-3.84875e-12
1.1962e-12
-5.29421e-12
1.74977e-12
-6.69283e-12
2.38087e-12
-8.04271e-12
3.077e-12
-9.34256e-12
3.82533e-12
-1.05916e-11
4.6131e-12
-1.17896e-11
5.42778e-12
-1.29365e-11
6.25731e-12
-1.40327e-11
7.09022e-12
-1.50787e-11
7.91572e-12
-1.60754e-11
8.72377e-12
-1.70237e-11
9.50512e-12
-1.79247e-11
1.02514e-11
-1.87794e-11
1.09549e-11
-1.95892e-11
1.16088e-11
-2.03552e-11
1.22071e-11
-2.10788e-11
1.27445e-11
-2.17613e-11
1.32163e-11
-2.24039e-11
1.36185e-11
-2.30079e-11
1.39477e-11
-2.35745e-11
1.4201e-11
-2.41049e-11
1.43759e-11
-2.46003e-11
1.44705e-11
-2.50618e-11
1.44831e-11
-2.54904e-11
1.44123e-11
-2.58872e-11
1.4257e-11
-2.6253e-11
1.40163e-11
-2.65889e-11
1.36894e-11
-2.68957e-11
1.32757e-11
-2.71741e-11
1.27746e-11
-2.7425e-11
1.21856e-11
-2.76491e-11
1.15082e-11
-2.78471e-11
1.07419e-11
-2.80197e-11
9.88636e-12
-2.81676e-11
8.94122e-12
-2.82915e-11
7.90615e-12
-2.8392e-11
6.78111e-12
-2.84701e-11
5.5661e-12
-2.85263e-11
4.26163e-12
-2.85618e-11
2.86843e-12
-2.85774e-11
1.3881e-12
-2.85744e-11
-1.77183e-13
-2.8554e-11
-1.82352e-12
-2.85184e-11
-3.56072e-12
-2.84619e-11
-5.36688e-12
-2.83993e-11
-1.00532e-11
-2.83619e-11
-2.83653e-11
-1.52829e-11
1.96793e-13
-1.01092e-12
8.30289e-13
-2.99274e-12
1.85644e-12
-4.8749e-12
3.18981e-12
-6.62759e-12
4.7554e-12
-8.25843e-12
6.48745e-12
-9.77475e-12
8.32847e-12
-1.11836e-11
1.02285e-11
-1.24917e-11
1.21444e-11
-1.37055e-11
1.40391e-11
-1.48313e-11
1.58814e-11
-1.5875e-11
1.76449e-11
-1.68422e-11
1.93077e-11
-1.77383e-11
2.08521e-11
-1.85681e-11
2.22637e-11
-1.93363e-11
2.35316e-11
-2.00473e-11
2.46477e-11
-2.07052e-11
2.56061e-11
-2.13137e-11
2.64035e-11
-2.18762e-11
2.70383e-11
-2.23961e-11
2.75106e-11
-2.28762e-11
2.7822e-11
-2.33193e-11
2.79753e-11
-2.37278e-11
2.79744e-11
-2.4104e-11
2.7824e-11
-2.44499e-11
2.75295e-11
-2.47674e-11
2.70971e-11
-2.5058e-11
2.65333e-11
-2.53233e-11
2.58447e-11
-2.55645e-11
2.50385e-11
-2.57827e-11
2.41218e-11
-2.5979e-11
2.31016e-11
-2.61539e-11
2.19851e-11
-2.63085e-11
2.0779e-11
-2.6443e-11
1.949e-11
-2.65581e-11
1.81242e-11
-2.6654e-11
1.66878e-11
-2.67312e-11
1.51859e-11
-2.67896e-11
1.36238e-11
-2.683e-11
1.20058e-11
-2.6852e-11
1.03361e-11
-2.68567e-11
8.618e-12
-2.68437e-11
6.85516e-12
-2.68145e-11
5.0499e-12
-2.67691e-11
3.20476e-12
-2.67089e-11
1.31931e-12
-2.6633e-11
-5.93339e-13
-2.65492e-11
-3.43306e-12
-2.64665e-11
-1.04947e-11
-2.63607e-11
-2.61063e-11
-1.27537e-11
8.3752e-13
-1.84844e-12
2.73952e-12
-4.89474e-12
5.34085e-12
-7.47623e-12
8.42062e-12
-9.70736e-12
1.18004e-11
-1.16382e-11
1.53363e-11
-1.33107e-11
1.89136e-11
-1.47608e-11
2.24413e-11
-1.60194e-11
2.58489e-11
-1.71131e-11
2.90821e-11
-1.80645e-11
3.21002e-11
-1.88931e-11
3.48737e-11
-1.96157e-11
3.73823e-11
-2.02468e-11
3.9613e-11
-2.07988e-11
4.1559e-11
-2.12823e-11
4.32183e-11
-2.17065e-11
4.45925e-11
-2.20794e-11
4.56865e-11
-2.24077e-11
4.65075e-11
-2.26972e-11
4.70644e-11
-2.2953e-11
4.73672e-11
-2.3179e-11
4.74268e-11
-2.33789e-11
4.72546e-11
-2.35556e-11
4.68618e-11
-2.37112e-11
4.62596e-11
-2.38477e-11
4.54583e-11
-2.39661e-11
4.44675e-11
-2.40672e-11
4.32956e-11
-2.41513e-11
4.1949e-11
-2.42179e-11
4.04325e-11
-2.42662e-11
3.87481e-11
-2.42945e-11
3.6895e-11
-2.43008e-11
3.48683e-11
-2.42818e-11
3.26592e-11
-2.42339e-11
3.02529e-11
-2.41518e-11
2.76288e-11
-2.40299e-11
2.47577e-11
-2.38601e-11
2.16022e-11
-2.36341e-11
1.81121e-11
-2.33399e-11
1.42253e-11
-2.29653e-11
9.86157e-12
-2.24929e-11
4.92315e-12
-2.19052e-11
-7.14343e-13
-2.1177e-11
-7.19982e-12
-2.02836e-11
-1.47197e-11
-1.9189e-11
-2.34929e-11
-1.78597e-11
-3.40816e-11
-1.62405e-11
-5.18688e-11
-1.42732e-11
-6.62843e-11
-1.19452e-11
-1.16091e-11
-8.07815e-11
1.75516e-11
3.20568e-11
4.39806e-11
5.36732e-11
6.1435e-11
6.75243e-11
7.21635e-11
7.55441e-11
7.7831e-11
7.91666e-11
7.96735e-11
7.94577e-11
7.86109e-11
7.72121e-11
7.53298e-11
7.30232e-11
7.03438e-11
6.73361e-11
6.40388e-11
6.04859e-11
5.67069e-11
5.2728e-11
4.85724e-11
4.42612e-11
3.98135e-11
3.52474e-11
3.05802e-11
2.58288e-11
2.10109e-11
1.61447e-11
1.12501e-11
6.34931e-12
1.46751e-12
-3.36636e-12
-8.11816e-12
-1.27481e-11
-1.72082e-11
-2.14423e-11
-2.53821e-11
-2.89474e-11
-3.20403e-11
-3.45455e-11
-3.63226e-11
-3.72064e-11
-3.69939e-11
-3.54532e-11
-3.22944e-11
-2.71967e-11
-2.27441e-11
-2.8372e-11
-1.42564e-09
-1.4867e-11
-1.42166e-09
-1.69865e-11
-1.41756e-09
-1.88028e-11
-1.4133e-09
-2.05339e-11
-1.40881e-09
-2.22734e-11
-1.40365e-09
-2.44058e-11
-1.39754e-09
-2.67156e-11
-1.3903e-09
-2.89937e-11
-1.38249e-09
-3.08328e-11
-1.37396e-09
-3.27371e-11
-1.36404e-09
-3.52306e-11
-1.35257e-09
-3.78868e-11
-1.33939e-09
-4.07047e-11
-1.32495e-09
-4.28988e-11
-1.30961e-09
-4.46992e-11
-1.29334e-09
-4.64626e-11
-1.27574e-09
-4.83166e-11
-1.25681e-09
-5.03721e-11
-1.23664e-09
-5.23691e-11
-1.21524e-09
-5.42068e-11
-1.19283e-09
-5.58731e-11
-1.16973e-09
-5.73246e-11
-1.14611e-09
-5.85415e-11
-1.12194e-09
-5.95459e-11
-1.09735e-09
-6.03495e-11
-1.07262e-09
-6.09559e-11
-1.04763e-09
-6.14126e-11
-1.02247e-09
-6.17193e-11
-9.97396e-10
-6.18948e-11
-9.72629e-10
-6.19558e-11
-9.48276e-10
-6.18911e-11
-9.24038e-10
-6.17782e-11
-9.00324e-10
-6.15783e-11
-8.77229e-10
-6.13449e-11
-8.54623e-10
-6.10739e-11
-8.32565e-10
-6.07491e-11
-8.11212e-10
-6.03741e-11
-7.90495e-10
-5.99741e-11
-7.70463e-10
-5.95333e-11
-7.51172e-10
-5.90485e-11
-7.32507e-10
-5.85409e-11
-7.14523e-10
-5.80047e-11
-6.97264e-10
-5.74537e-11
-6.80735e-10
-5.68891e-11
-6.64906e-10
-5.6311e-11
-6.49779e-10
-5.57133e-11
-6.35319e-10
-5.50994e-11
-6.21477e-10
-5.44657e-11
-6.08213e-10
-5.38071e-11
-5.31285e-11
-5.95486e-10
-1.47553e-09
-3.07909e-11
-1.4594e-09
-3.3115e-11
-1.44258e-09
-3.5625e-11
-1.42633e-09
-3.6784e-11
-1.41064e-09
-3.79536e-11
-1.39565e-09
-3.93973e-11
-1.37955e-09
-4.28201e-11
-1.36223e-09
-4.63096e-11
-1.34443e-09
-4.8633e-11
-1.32623e-09
-5.09445e-11
-1.30837e-09
-5.30837e-11
-1.28754e-09
-5.87222e-11
-1.26527e-09
-6.29733e-11
-1.24158e-09
-6.65897e-11
-1.2191e-09
-6.71784e-11
-1.19707e-09
-6.84942e-11
-1.17303e-09
-7.23549e-11
-1.14654e-09
-7.68568e-11
-1.11859e-09
-8.03266e-11
-1.08849e-09
-8.43041e-11
-1.05743e-09
-8.69339e-11
-1.02621e-09
-8.85402e-11
-9.95315e-10
-8.94396e-11
-9.64897e-10
-8.99635e-11
-9.34694e-10
-9.05528e-11
-9.04796e-10
-9.08542e-11
-8.75323e-10
-9.08854e-11
-8.46399e-10
-9.06433e-11
-8.18147e-10
-9.01469e-11
-7.90675e-10
-8.94276e-11
-7.64045e-10
-8.85211e-11
-7.38361e-10
-8.7462e-11
-7.13656e-10
-8.62831e-11
-6.8999e-10
-8.50115e-11
-6.67392e-10
-8.36714e-11
-6.45858e-10
-8.22827e-11
-6.25371e-10
-8.08613e-11
-6.05924e-10
-7.94211e-11
-5.87485e-10
-7.79724e-11
-5.70011e-10
-7.65229e-11
-5.53473e-10
-7.50783e-11
-5.37836e-10
-7.36425e-11
-5.23072e-10
-7.22179e-11
-5.09154e-10
-7.08063e-11
-4.96056e-10
-6.94095e-11
-4.8374e-10
-6.80288e-11
-4.72174e-10
-6.66652e-11
-4.61323e-10
-6.53168e-11
-4.51155e-10
-6.39759e-11
-6.25962e-11
-4.41687e-10
-3.18158e-10
-1.10657e-11
-3.46095e-10
-5.17749e-12
-3.85201e-10
3.48093e-12
-4.385e-10
1.65145e-11
-5.09512e-10
3.30586e-11
-6.01363e-10
5.24541e-11
-7.16395e-10
7.2211e-11
-8.37338e-10
7.46338e-11
-9.26955e-10
4.09844e-11
-9.7812e-10
2.20057e-13
-9.99634e-10
-3.15698e-11
-1.00543e-09
-5.29221e-11
-9.99113e-10
-6.92942e-11
-9.84135e-10
-8.15677e-11
-9.59469e-10
-9.18444e-11
-9.30299e-10
-9.76644e-11
-8.96723e-10
-1.0593e-10
-8.66912e-10
-1.06668e-10
-8.33629e-10
-1.1361e-10
-8.00735e-10
-1.17198e-10
-7.67188e-10
-1.20481e-10
-7.38697e-10
-1.17031e-10
-7.14322e-10
-1.13816e-10
-6.90286e-10
-1.13999e-10
-6.66347e-10
-1.14492e-10
-6.42079e-10
-1.15122e-10
-6.17006e-10
-1.15959e-10
-5.91843e-10
-1.15806e-10
-5.67102e-10
-1.14888e-10
-5.43124e-10
-1.13405e-10
-5.20129e-10
-1.11516e-10
-4.9825e-10
-1.09342e-10
-4.77558e-10
-1.06975e-10
-4.58079e-10
-1.0449e-10
-4.3981e-10
-1.01941e-10
-4.22724e-10
-9.93684e-11
-4.06781e-10
-9.68042e-11
-3.91933e-10
-9.42697e-11
-3.78125e-10
-9.17801e-11
-3.65302e-10
-8.93455e-11
-3.53409e-10
-8.69716e-11
-3.4239e-10
-8.46613e-11
-3.32193e-10
-8.24153e-11
-3.22766e-10
-8.02328e-11
-3.14064e-10
-7.81124e-11
-3.0604e-10
-7.60528e-11
-2.98653e-10
-7.40518e-11
-2.91865e-10
-7.21047e-11
-2.85642e-10
-7.01993e-11
-6.83569e-11
-2.79881e-10
1.17045e-09
-3.93561e-12
1.16231e-09
2.9629e-12
1.153e-09
1.27909e-11
1.14541e-09
2.40986e-11
1.13582e-09
4.26504e-11
1.12224e-09
6.60383e-11
1.10332e-09
9.1127e-11
1.02744e-09
1.50517e-10
1.00441e-09
6.40112e-11
9.78282e-10
2.63502e-11
9.48048e-10
-1.33485e-12
9.19297e-10
-2.41719e-11
8.91382e-10
-4.1379e-11
8.64264e-10
-5.44492e-11
8.37294e-10
-6.48749e-11
8.13255e-10
-7.36254e-11
7.88355e-10
-8.103e-11
7.73588e-10
-9.19011e-11
7.50484e-10
-9.0506e-11
7.2309e-10
-8.98039e-11
6.88601e-10
-8.59915e-11
6.57689e-10
-8.61191e-11
6.26954e-10
-8.30805e-11
5.96914e-10
-8.3959e-11
5.6143e-10
-7.90077e-11
5.30749e-10
-8.44407e-11
5.00438e-10
-8.56478e-11
4.70404e-10
-8.57729e-11
4.40597e-10
-8.50802e-11
4.11101e-10
-8.3909e-11
3.82039e-10
-8.24541e-11
3.53534e-10
-8.08369e-11
3.257e-10
-7.91413e-11
2.98636e-10
-7.74261e-11
2.72426e-10
-7.57305e-11
2.47137e-10
-7.40797e-11
2.22821e-10