/*--------------------------------*- C++ -*----------------------------------*\
| =========                 |                                                 |
| \\      /  F ield         | OpenFOAM: The Open Source CFD Toolbox           |
|  \\    /   O peration     | Version:  2.4.0                                 |
|   \\  /    A nd           | Web:      www.OpenFOAM.org                      |
|    \\/     M anipulation  |                                                 |
\*---------------------------------------------------------------------------*/
FoamFile
{
    version     2.0;
    format      ascii;
    class       volScalarField;
    location    "4.9";
    object      p_rgh;
}
// * * * * * * * * * * * * * * * * * * * * * * * * * * * * * * * * * * * * * //

dimensions      [1 -1 -2 0 0 0 0];

internalField   nonuniform List<scalar> 
8000
(
53.1987
53.188
53.1787
53.1671
53.1565
53.1458
53.135
53.1241
53.1132
53.1023
53.0913
53.0803
53.0686
53.0562
53.046
53.0495
53.073
53.038
52.6584
51.762
31.0135
0.981806
-0.116609
-0.129444
-0.129796
-0.129926
-0.12996
-0.129963
-0.129959
-0.129954
-0.129946
-0.129937
-0.129926
-0.129914
-0.129903
-0.129891
-0.12988
-0.129868
-0.129857
-0.129847
-0.129836
-0.129827
-0.129818
-0.129809
-0.129802
-0.129796
-0.12979
-0.129786
-0.129783
-0.129782
54.5528
54.5416
54.5309
54.5184
54.5074
54.4964
54.4855
54.4745
54.4636
54.4528
54.442
54.4306
54.4185
54.4091
54.4147
54.4407
54.3975
53.9749
53.0287
27.4529
0.38003
-0.126612
-0.130171
-0.130399
-0.130489
-0.130504
-0.130499
-0.13049
-0.13048
-0.130469
-0.130455
-0.130439
-0.130422
-0.130404
-0.130386
-0.130367
-0.130348
-0.13033
-0.130312
-0.130295
-0.130278
-0.130262
-0.130248
-0.130234
-0.130223
-0.130213
-0.130204
-0.130198
-0.130194
-0.130193
55.9358
55.9255
55.9152
55.9038
55.8935
55.8831
55.8726
55.862
55.8513
55.8405
55.829
55.8167
55.8064
55.8086
55.8296
55.7965
55.4405
54.6022
27.6007
0.180085
-0.130059
-0.130972
-0.131188
-0.131265
-0.131271
-0.13126
-0.131246
-0.131232
-0.131216
-0.131197
-0.131176
-0.131153
-0.131129
-0.131103
-0.131076
-0.131049
-0.131022
-0.130995
-0.130969
-0.130943
-0.130918
-0.130894
-0.130872
-0.130852
-0.130835
-0.130819
-0.130807
-0.130798
-0.130792
-0.130791
57.2258
57.2168
57.2074
57.1965
57.1864
57.1761
57.1654
57.1545
57.1432
57.1312
57.1182
57.1056
57.1015
57.1149
57.1048
56.8708
56.1909
32.0628
0.151083
-0.132193
-0.13222
-0.132422
-0.132493
-0.132494
-0.132477
-0.132458
-0.132438
-0.132416
-0.132391
-0.132364
-0.132335
-0.132304
-0.132272
-0.132239
-0.132206
-0.132172
-0.132139
-0.132106
-0.132074
-0.132043
-0.132014
-0.131988
-0.131964
-0.131943
-0.131926
-0.131912
-0.131904
-0.1319
-0.131902
-0.13191
58.7263
58.7164
58.707
58.6967
58.688
58.6797
58.6717
58.6641
58.6566
58.6485
58.6405
58.6407
58.6649
58.6937
58.5313
57.7716
43.7767
0.416053
-0.134032
-0.133719
-0.133931
-0.134
-0.133994
-0.133971
-0.133949
-0.133925
-0.1339
-0.133872
-0.133842
-0.133811
-0.133779
-0.133746
-0.133713
-0.13368
-0.133648
-0.133617
-0.133587
-0.13356
-0.133534
-0.133512
-0.133494
-0.13348
-0.13347
-0.133466
-0.133467
-0.133475
-0.133489
-0.133511
-0.133541
-0.133579
60.0684
60.0616
60.0556
60.0484
60.0429
60.0379
60.0333
60.0286
60.0223
60.0148
60.02
60.076
60.1728
59.9507
58.4341
55.8758
3.66363
-0.136304
-0.135811
-0.136118
-0.1362
-0.13618
-0.136142
-0.136107
-0.136072
-0.136037
-0.136001
-0.135964
-0.135927
-0.13589
-0.135854
-0.13582
-0.135787
-0.135756
-0.135728
-0.135703
-0.135681
-0.135665
-0.135653
-0.135647
-0.135647
-0.135654
-0.135669
-0.135693
-0.135725
-0.135768
-0.135821
-0.135885
-0.135961
-0.136049
61.2641
61.261
61.2585
61.2537
61.25
61.2457
61.2413
61.2362
61.2302
61.2244
61.2252
61.2412
61.2439
61.073
60.5188
25.4709
-0.133271
-0.137975
-0.13818
-0.138248
-0.138236
-0.138207
-0.138179
-0.138152
-0.138124
-0.138096
-0.138068
-0.138042
-0.138017
-0.137994
-0.137974
-0.137957
-0.137944
-0.137936
-0.137934
-0.137938
-0.137947
-0.137954
-0.137995
-0.138033
-0.13808
-0.138139
-0.138209
-0.138292
-0.138387
-0.138496
-0.13862
-0.138758
-0.138911
-0.13908
62.6857
62.6827
62.6808
62.6775
62.6758
62.674
62.6725
62.6697
62.666
62.672
62.7157
62.7866
62.6121
61.4742
58.911
0.594125
-0.141526
-0.140722
-0.140946
-0.140987
-0.140953
-0.140912
-0.140875
-0.140843
-0.140812
-0.140783
-0.140757
-0.140735
-0.140717
-0.140704
-0.140698
-0.140699
-0.140708
-0.140725
-0.140752
-0.14079
-0.14084
-0.140902
-0.140976
-0.141065
-0.141167
-0.141285
-0.141417
-0.141566
-0.141732
-0.141914
-0.142113
-0.14233
-0.142564
-0.142816
63.9866
63.9879
63.9909
63.992
63.9944
63.9962
63.9981
63.999
63.9994
64.0059
64.0335
64.0688
63.9424
63.2874
33.7076
-0.144189
-0.143311
-0.143626
-0.14366
-0.143619
-0.143579
-0.143546
-0.143517
-0.143492
-0.143472
-0.143457
-0.143447
-0.143444
-0.143449
-0.143463
-0.143487
-0.143522
-0.143569
-0.143628
-0.143701
-0.143788
-0.143889
-0.144007
-0.14414
-0.144289
-0.144455
-0.144639
-0.144839
-0.145058
-0.145293
-0.145547
-0.145818
-0.146107
-0.146414
-0.146738
65.1073
65.1187
65.1312
65.1405
65.1493
65.1564
65.1623
65.1661
65.1686
65.1742
65.1916
65.2076
65.1055
64.6754
16.1715
-0.147428
-0.145878
-0.146343
-0.146305
-0.146268
-0.146236
-0.146212
-0.146191
-0.146174
-0.146174
-0.146176
-0.146187
-0.146208
-0.146241
-0.146286
-0.146344
-0.146416
-0.146502
-0.146604
-0.146721
-0.146854
-0.147004
-0.147171
-0.147355
-0.147555
-0.147773
-0.148008
-0.14826
-0.148528
-0.148814
-0.149116
-0.149434
-0.149768
-0.150118
-0.150483
66.7244
66.7458
66.7683
66.7884
66.8057
66.8206
66.8334
66.8435
66.8516
66.8616
66.8826
66.9035
66.8119
66.3975
12.484
-0.149821
-0.148308
-0.148852
-0.148749
-0.148713
-0.148691
-0.148676
-0.148666
-0.148663
-0.148672
-0.148691
-0.148722
-0.148765
-0.148822
-0.148894
-0.14898
-0.149081
-0.149199
-0.149333
-0.149482
-0.149649
-0.149831
-0.15003
-0.150245
-0.150476
-0.150723
-0.150986
-0.151264
-0.151557
-0.151865
-0.152187
-0.152523
-0.152872
-0.153233
-0.153607
68.3368
68.3686
68.4017
68.4315
68.4576
68.4814
68.5028
68.521
68.5367
68.5539
68.5826
68.6124
68.5267
68.0923
12.4483
-0.151132
-0.15031
-0.15062
-0.150537
-0.150495
-0.150469
-0.150454
-0.150451
-0.150458
-0.150479
-0.150513
-0.150562
-0.150626
-0.150705
-0.150799
-0.15091
-0.151037
-0.15118
-0.151339
-0.151514
-0.151705
-0.151911
-0.152132
-0.152368
-0.152619
-0.152883
-0.153162
-0.153453
-0.153757
-0.154074
-0.154402
-0.154741
-0.15509
-0.155449
-0.155817
70.7467
70.7996
70.8552
70.904
70.9444
70.979
71.0072
71.0282
71.0423
71.0554
71.0827
71.1132
70.9838
70.333
20.9057
-0.119682
-0.152536
-0.152579
-0.152559
-0.152512
-0.152469
-0.152434
-0.15241
-0.152397
-0.152395
-0.152407
-0.152434
-0.152476
-0.152534
-0.15261
-0.152703
-0.152813
-0.15294
-0.153084
-0.153244
-0.153422
-0.153615
-0.153825
-0.154049
-0.154289
-0.154543
-0.15481
-0.15509
-0.155382
-0.155685
-0.155999
-0.156322
-0.156654
-0.156994
-0.157342
73.02
73.0661
73.1156
73.1684
73.2249
73.2868
73.3537
73.4264
73.5123
73.6195
73.7315
73.7321
73.409
72.2633
22.6385
0.297168
-0.150138
-0.150308
-0.150387
-0.150414
-0.150435
-0.150462
-0.150506
-0.150568
-0.150647
-0.150741
-0.150861
-0.150996
-0.15115
-0.151322
-0.151512
-0.151719
-0.151942
-0.152182
-0.152438
-0.15271
-0.152996
-0.153295
-0.153607
-0.15393
-0.154263
-0.154606
-0.154958
-0.155317
-0.155683
-0.156055
-0.156431
-0.156811
-0.157194
-0.157579
78.7559
78.7761
78.8222
78.8954
78.9925
79.1142
79.2683
79.4716
79.7364
79.9293
79.6049
77.2316
74.3676
32.5151
-0.125404
-0.149619
-0.149154
-0.149497
-0.149655
-0.149745
-0.149842
-0.149957
-0.150087
-0.150232
-0.150389
-0.150552
-0.150761
-0.150966
-0.151187
-0.151423
-0.151672
-0.151939
-0.152215
-0.152498
-0.152818
-0.153139
-0.153469
-0.15381
-0.154161
-0.154519
-0.154885
-0.155258
-0.155636
-0.156018
-0.156403
-0.156791
-0.15718
-0.157569
-0.157957
-0.158343
74.0322
74.1185
74.2168
74.3313
74.4797
74.684
74.8625
74.6185
72.2253
67.3465
65.755
19.1773
-0.130969
0.453385
-0.147779
-0.141325
-0.142565
-0.143054
-0.143172
-0.14327
-0.143441
-0.143673
-0.14385
-0.144219
-0.144587
-0.144932
-0.145427
-0.145859
-0.14631
-0.146795
-0.147298
-0.147808
-0.148255
-0.148836
-0.149424
-0.149987
-0.150553
-0.151121
-0.15169
-0.152258
-0.152823
-0.153384
-0.15394
-0.154489
-0.15503
-0.155562
-0.156083
-0.156594
-0.157094
-0.157581
71.7718
71.8384
71.9534
72.1618
72.2524
71.1516
66.9066
64.0291
21.5753
0.317507
0.637278
-0.131251
-0.13379
-0.151101
-0.157902
-0.157328
-0.157037
-0.157114
-0.157304
-0.15745
-0.157532
-0.157784
-0.157939
-0.15809
-0.158148
-0.158384
-0.158496
-0.158608
-0.158722
-0.158837
-0.158944
-0.158984
-0.158543
-0.159826
-0.15997
-0.160114
-0.160269
-0.160436
-0.160611
-0.160776
-0.160946
-0.161119
-0.161296
-0.161477
-0.161659
-0.161843
-0.162028
-0.162213
-0.162397
-0.16258
66.46
66.6323
66.86
65.6539
59.1205
48.2223
-2.78781
0.0579657
0.532703
-0.141523
-0.125774
-0.148828
-0.149632
-0.149916
-0.149966
-0.150141
-0.150358
-0.150557
-0.150728
-0.150798
-0.151019
-0.151093
-0.151466
-0.151713
-0.152184
-0.152568
-0.152974
-0.153402
-0.15387
-0.154279
-0.154647
-0.155132
-0.15568
-0.15629
-0.156595
-0.157375
-0.157071
-0.158122
-0.158603
-0.159003
-0.159384
-0.15975
-0.160099
-0.160434
-0.160753
-0.161058
-0.161349
-0.161626
-0.161889
-0.162138
71.3116
70.8992
69.8689
67.6387
42.8336
-0.200803
-0.17665
-0.175124
-0.171976
-0.176842
-0.17948
-0.180512
-0.181427
-0.182475
-0.183496
-0.184419
-0.185162
-0.185911
-0.186625
-0.187231
-0.187933
-0.188184
-0.188562
-0.188793
-0.188798
-0.188575
-0.188131
-0.187532
-0.186746
-0.18587
-0.185037
-0.184425
-0.183698
-0.182869
-0.18222
-0.181258
-0.180423
-0.17964
-0.178907
-0.178271
-0.177663
-0.177026
-0.176427
-0.17579
-0.175172
-0.174577
-0.174004
-0.173454
-0.172927
-0.172424
67.4011
67.5368
66.794
62.6952
56.1202
-1.81344
-0.175815
-0.246187
-0.209372
-0.193703
-0.189453
-0.18192
-0.181263
-0.181996
-0.182803
-0.183805
-0.185122
-0.186691
-0.188275
-0.189442
-0.190445
-0.191345
-0.192049
-0.192516
-0.19275
-0.192786
-0.192669
-0.192445
-0.19209
-0.1916
-0.191025
-0.189869
-0.189522
-0.188705
-0.187916
-0.187476
-0.186655
-0.185908
-0.184962
-0.183834
-0.181498
-0.180711
-0.180376
-0.179739
-0.17901
-0.178212
-0.177426
-0.176648
-0.175881
-0.175136
-0.129782
-0.129785
-0.12979
-0.129796
-0.129805
-0.129817
-0.129831
-0.129851
-0.129872
-0.129897
-0.129928
-0.129963
-0.130001
-0.130045
-0.130093
-0.130147
-0.130207
-0.130272
-0.130344
-0.130422
-0.130506
-0.130598
-0.130696
-0.130802
-0.130914
-0.131035
-0.131162
-0.131298
-0.131441
-0.131592
-0.131751
-0.131918
-0.132093
-0.132276
-0.132466
-0.132665
-0.132872
-0.133086
-0.133309
-0.133539
-0.133777
-0.134023
-0.134276
-0.134537
-0.134806
-0.135081
-0.135364
-0.135653
-0.135949
-0.13625
-0.130195
-0.1302
-0.130208
-0.13022
-0.130235
-0.130254
-0.130278
-0.130306
-0.130339
-0.130377
-0.13042
-0.130469
-0.130524
-0.130584
-0.130651
-0.130724
-0.130804
-0.130891
-0.130985
-0.131087
-0.131196
-0.131314
-0.131439
-0.131572
-0.131714
-0.131865
-0.132025
-0.132193
-0.13237
-0.132557
-0.132753
-0.132958
-0.133172
-0.133395
-0.133627
-0.133868
-0.134119
-0.134378
-0.134646
-0.134923
-0.135209
-0.135503
-0.135805
-0.136116
-0.136435
-0.136762
-0.137096
-0.137439
-0.137789
-0.138145
-0.130794
-0.130801
-0.130813
-0.130831
-0.130854
-0.130883
-0.130918
-0.130959
-0.131008
-0.131064
-0.131127
-0.131198
-0.131277
-0.131365
-0.131461
-0.131566
-0.13168
-0.131804
-0.131937
-0.13208
-0.132233
-0.132395
-0.132568
-0.132751
-0.132944
-0.133148
-0.133362
-0.133587
-0.133822
-0.134068
-0.134324
-0.13459
-0.134867
-0.135155
-0.135453
-0.135761
-0.136079
-0.136407
-0.136745
-0.137093
-0.13745
-0.137816
-0.138191
-0.138574
-0.138966
-0.139366
-0.139773
-0.140188
-0.14061
-0.141038
-0.131924
-0.131946
-0.131975
-0.132011
-0.132056
-0.132109
-0.132171
-0.132242
-0.132322
-0.132413
-0.132513
-0.132624
-0.132746
-0.132879
-0.133023
-0.133178
-0.133345
-0.133523
-0.133714
-0.133917
-0.134132
-0.13436
-0.1346
-0.134852
-0.135117
-0.135394
-0.135684
-0.135987
-0.136301
-0.136628
-0.136967
-0.137318
-0.137681
-0.138055
-0.13844
-0.138836
-0.139243
-0.139661
-0.140088
-0.140525
-0.140972
-0.141427
-0.141891
-0.142363
-0.142842
-0.143329
-0.143822
-0.144321
-0.144827
-0.145336
-0.133627
-0.133683
-0.13375
-0.133827
-0.133915
-0.134015
-0.134127
-0.134251
-0.134388
-0.134537
-0.1347
-0.134877
-0.135068
-0.135272
-0.135491
-0.135724
-0.135972
-0.136234
-0.13651
-0.136802
-0.137108
-0.137428
-0.137763
-0.138112
-0.138475
-0.138852
-0.139243
-0.139647
-0.140065
-0.140495
-0.140938
-0.141393
-0.141859
-0.142337
-0.142826
-0.143325
-0.143833
-0.144351
-0.144878
-0.145413
-0.145956
-0.146506
-0.147062
-0.147624
-0.148192
-0.148764
-0.14934
-0.149919
-0.150501
-0.151085
-0.13615
-0.136264
-0.136392
-0.136534
-0.136691
-0.136863
-0.13705
-0.137253
-0.137472
-0.137706
-0.137957
-0.138225
-0.138508
-0.138808
-0.139125
-0.139458
-0.139807
-0.140172
-0.140553
-0.140949
-0.141361
-0.141788
-0.14223
-0.142686
-0.143156
-0.14364
-0.144136
-0.144645
-0.145166
-0.145699
-0.146242
-0.146795
-0.147359
-0.147931
-0.148511
-0.149099
-0.149694
-0.150295
-0.150902
-0.151513
-0.152129
-0.152748
-0.15337
-0.153995
-0.15462
-0.155246
-0.155873
-0.156498
-0.157123
-0.157746
-0.139265
-0.139466
-0.139684
-0.139919
-0.140171
-0.14044
-0.140726
-0.14103
-0.141351
-0.14169
-0.142046
-0.142418
-0.142808
-0.143214
-0.143636
-0.144075
-0.144529
-0.144998
-0.145481
-0.145979
-0.14649
-0.147015
-0.147552
-0.1481
-0.14866
-0.149231
-0.149811
-0.1504
-0.150998
-0.151604
-0.152216
-0.152834
-0.153458
-0.154087
-0.154719
-0.155355
-0.155993
-0.156633
-0.157274
-0.157915
-0.158556
-0.159196
-0.159835
-0.160471
-0.161105
-0.161735
-0.162362
-0.162984
-0.163601
-0.164214
-0.143085
-0.143373
-0.143678
-0.144002
-0.144343
-0.144701
-0.145077
-0.14547
-0.145879
-0.146305
-0.146747
-0.147204
-0.147676
-0.148163
-0.148663
-0.149177
-0.149703
-0.150241
-0.150791
-0.151351
-0.15192
-0.152499
-0.153086
-0.15368
-0.154281
-0.154888
-0.1555
-0.156116
-0.156736
-0.157359
-0.157983
-0.158609
-0.159235
-0.159862
-0.160487
-0.161112
-0.161734
-0.162354
-0.162971
-0.163584
-0.164193
-0.164798
-0.165398
-0.165993
-0.166583
-0.167166
-0.167744
-0.168315
-0.168879
-0.169437
-0.147079
-0.147437
-0.147811
-0.148202
-0.148609
-0.149031
-0.149468
-0.14992
-0.150385
-0.150863
-0.151354
-0.151857
-0.152371
-0.152896
-0.15343
-0.153973
-0.154523
-0.155082
-0.155646
-0.156216
-0.156791
-0.15737
-0.157952
-0.158537
-0.159123
-0.15971
-0.160297
-0.160883
-0.161469
-0.162052
-0.162633
-0.163212
-0.163786
-0.164357
-0.164924
-0.165486
-0.166043
-0.166595
-0.167141
-0.167682
-0.168216
-0.168744
-0.169266
-0.169781
-0.17029
-0.170791
-0.171286
-0.171773
-0.172253
-0.172726
-0.150863
-0.151256
-0.151664
-0.152085
-0.152518
-0.152963
-0.15342
-0.153887
-0.154363
-0.154849
-0.155342
-0.155843
-0.156351
-0.156864
-0.157382
-0.157904
-0.15843
-0.158957
-0.159487
-0.160017
-0.160547
-0.161076
-0.161604
-0.16213
-0.162653
-0.163173
-0.163689
-0.164201
-0.164708
-0.165211
-0.165708
-0.166199
-0.166684
-0.167164
-0.167637
-0.168103
-0.168564
-0.169017
-0.169464
-0.169904
-0.170338
-0.170764
-0.171184
-0.171597
-0.172002
-0.172401
-0.172792
-0.173176
-0.173553
-0.173923
-0.153993
-0.15439
-0.154796
-0.155213
-0.155638
-0.15607
-0.156511
-0.156957
-0.157409
-0.157866
-0.158326
-0.15879
-0.159256
-0.159723
-0.16019
-0.160658
-0.161124
-0.161588
-0.16205
-0.162509
-0.162964
-0.163415
-0.163861
-0.164301
-0.164736
-0.165165
-0.165588
-0.166004
-0.166413
-0.166815
-0.167211
-0.167599
-0.167981
-0.168355
-0.168723
-0.169084
-0.169437
-0.169784
-0.170124
-0.170457
-0.170783
-0.171103
-0.171416
-0.171722
-0.172021
-0.172314
-0.1726
-0.172879
-0.173151
-0.173417
-0.156193
-0.156577
-0.156967
-0.157363
-0.157764
-0.158169
-0.158578
-0.158988
-0.159401
-0.159814
-0.160227
-0.160639
-0.161049
-0.161457
-0.161861
-0.162262
-0.162658
-0.163049
-0.163435
-0.163814
-0.164187
-0.164552
-0.164911
-0.165262
-0.165605
-0.16594
-0.166268
-0.166588
-0.1669
-0.167205
-0.167501
-0.167791
-0.168073
-0.168347
-0.168615
-0.168876
-0.169131
-0.169379
-0.16962
-0.169855
-0.170085
-0.170308
-0.170525
-0.170737
-0.170942
-0.171142
-0.171337
-0.171526
-0.171709
-0.171887
-0.157695
-0.158053
-0.158416
-0.158781
-0.159149
-0.159519
-0.159888
-0.160258
-0.160625
-0.160991
-0.161354
-0.161712
-0.162066
-0.162415
-0.162758
-0.163094
-0.163424
-0.163745
-0.164059
-0.164365
-0.164662
-0.164951
-0.165231
-0.165502
-0.165764
-0.166017
-0.166262
-0.166499
-0.166727
-0.166947
-0.16716
-0.167365
-0.167563
-0.167754
-0.167939
-0.168117
-0.16829
-0.168456
-0.168618
-0.168774
-0.168925
-0.169072
-0.169214
-0.169351
-0.169485
-0.169614
-0.16974
-0.169862
-0.16998
-0.170096
-0.157965
-0.15835
-0.158735
-0.159117
-0.159497
-0.159873
-0.160244
-0.16061
-0.16097
-0.161323
-0.161669
-0.162006
-0.162335
-0.162655
-0.162965
-0.163265
-0.163554
-0.163833
-0.164102
-0.164359
-0.164606
-0.164842
-0.165067
-0.165282
-0.165487
-0.165681
-0.165866
-0.166041
-0.166208
-0.166366
-0.166517
-0.16666
-0.166795
-0.166924
-0.167047
-0.167165
-0.167277
-0.167384
-0.167487
-0.167585
-0.16768
-0.167772
-0.16786
-0.167946
-0.168029
-0.16811
-0.16819
-0.168267
-0.168344
-0.168419
-0.158727
-0.159107
-0.159483
-0.159853
-0.160216
-0.160573
-0.160922
-0.161263
-0.161595
-0.161916
-0.162228
-0.162529
-0.16282
-0.163098
-0.163365
-0.16362
-0.163864
-0.164095
-0.164313
-0.16452
-0.164715
-0.164898
-0.16507
-0.165231
-0.165381
-0.165521
-0.165651
-0.165771
-0.165883
-0.165987
-0.166083
-0.166173
-0.166255
-0.166332
-0.166404
-0.166471
-0.166534
-0.166593
-0.166649
-0.166703
-0.166754
-0.166804
-0.166852
-0.166899
-0.166946
-0.166993
-0.16704
-0.167087
-0.167135
-0.167184
-0.158056
-0.158517
-0.158965
-0.159398
-0.159817
-0.160222
-0.160611
-0.160985
-0.161343
-0.161686
-0.162013
-0.162324
-0.16262
-0.1629
-0.163164
-0.163412
-0.163646
-0.163864
-0.164068
-0.164257
-0.164433
-0.164594
-0.164743
-0.16488
-0.165004
-0.165117
-0.16522
-0.165312
-0.165395
-0.16547
-0.165537
-0.165597
-0.16565
-0.165697
-0.16574
-0.165778
-0.165812
-0.165843
-0.165872
-0.165899
-0.165924
-0.165949
-0.165973
-0.165998
-0.166023
-0.166049
-0.166076
-0.166105
-0.166136
-0.166169
-0.162761
-0.16294
-0.163115
-0.163286
-0.163454
-0.163617
-0.163774
-0.163926
-0.164072
-0.164212
-0.164346
-0.164472
-0.164592
-0.164704
-0.164809
-0.164907
-0.164997
-0.16508
-0.165155
-0.165224
-0.165285
-0.165339
-0.165387
-0.165428
-0.165463
-0.165492
-0.165516
-0.165535
-0.165549
-0.165559
-0.165566
-0.165569
-0.16557
-0.165568
-0.165565
-0.165561
-0.165555
-0.16555
-0.165545
-0.165541
-0.165537
-0.165535
-0.165535
-0.165537
-0.165542
-0.165549
-0.16556
-0.165573
-0.165591
-0.165613
-0.162374
-0.162596
-0.162806
-0.163004
-0.163189
-0.163363
-0.163526
-0.163678
-0.163819
-0.16395
-0.164071
-0.164184
-0.164287
-0.164381
-0.164467
-0.164546
-0.164616
-0.16468
-0.164736
-0.164786
-0.164829
-0.164867
-0.164899
-0.164926
-0.164948
-0.164965
-0.164979
-0.164989
-0.164995
-0.164999
-0.164999
-0.164998
-0.164995
-0.164991
-0.164986
-0.16498
-0.164974
-0.164968
-0.164963
-0.164959
-0.164956
-0.164954
-0.164955
-0.164957
-0.164963
-0.164971
-0.164982
-0.164996
-0.165014
-0.165035
-0.171943
-0.171486
-0.171052
-0.170639
-0.170249
-0.169879
-0.16953
-0.169199
-0.168888
-0.168594
-0.168316
-0.168055
-0.16781
-0.167579
-0.167361
-0.167157
-0.166966
-0.166786
-0.166617
-0.16646
-0.166312
-0.166174
-0.166045
-0.165925
-0.165813
-0.165709
-0.165613
-0.165523
-0.16544
-0.165364
-0.165294
-0.16523
-0.165172
-0.165119
-0.165072
-0.16503
-0.164992
-0.16496
-0.164933
-0.16491
-0.164892
-0.164878
-0.164869
-0.164865
-0.164865
-0.164869
-0.164878
-0.164891
-0.164907
-0.164929
-0.174413
-0.173717
-0.17305
-0.172414
-0.171808
-0.171234
-0.170691
-0.170179
-0.169697
-0.169244
-0.168819
-0.168421
-0.168049
-0.167702
-0.167379
-0.167078
-0.166799
-0.166541
-0.166303
-0.166084
-0.165882
-0.165697
-0.165529
-0.165375
-0.165236
-0.16511
-0.164998
-0.164897
-0.164808
-0.16473
-0.164661
-0.164603
-0.164553
-0.164512
-0.164478
-0.164452
-0.164433
-0.16442
-0.164414
-0.164413
-0.164418
-0.164427
-0.164442
-0.164461
-0.164484
-0.164511
-0.164542
-0.164576
-0.164614
-0.164655
-0.13648
-0.136636
-0.13679
-0.136947
-0.137106
-0.137266
-0.137429
-0.137593
-0.137758
-0.137925
-0.138094
-0.138264
-0.138435
-0.138608
-0.138782
-0.138958
-0.139135
-0.139313
-0.139493
-0.139673
-0.139855
-0.140037
-0.140221
-0.140406
-0.140591
-0.140777
-0.140964
-0.141151
-0.141339
-0.141528
-0.141716
-0.141905
-0.142095
-0.142284
-0.142474
-0.142664
-0.142853
-0.143042
-0.143232
-0.14342
-0.143609
-0.143797
-0.143984
-0.144171
-0.144357
-0.144542
-0.144727
-0.14491
-0.145092
-0.145273
-0.145453
-0.145632
-0.145809
-0.145985
-0.146159
-0.146332
-0.146503
-0.146672
-0.14684
-0.147005
-0.147169
-0.14733
-0.147489
-0.147646
-0.147801
-0.147954
-0.148104
-0.148252
-0.148397
-0.14854
-0.148681
-0.148819
-0.148954
-0.149086
-0.149216
-0.149343
-0.149468
-0.149589
-0.149708
-0.149824
-0.149938
-0.150048
-0.150156
-0.150261
-0.150364
-0.150463
-0.15056
-0.150654
-0.150746
-0.150835
-0.150921
-0.151005
-0.151086
-0.151165
-0.151242
-0.151316
-0.151388
-0.151458
-0.151525
-0.151591
-0.151655
-0.151717
-0.151777
-0.151836
-0.151893
-0.151948
-0.152003
-0.152055
-0.152107
-0.152158
-0.152208
-0.152257
-0.152306
-0.152353
-0.152401
-0.152448
-0.152495
-0.152542
-0.152589
-0.152636
-0.152683
-0.152731
-0.152779
-0.152828
-0.152877
-0.152927
-0.152978
-0.15303
-0.153083
-0.153136
-0.153191
-0.153247
-0.153304
-0.153362
-0.153422
-0.153482
-0.153545
-0.153608
-0.153674
-0.15374
-0.153809
-0.153879
-0.15395
-0.154024
-0.154098
-0.154175
-0.154254
-0.154334
-0.154406
-0.154498
-0.154582
-0.154654
-0.154774
-0.154874
-0.154975
-0.155081
-0.155191
-0.155304
-0.155422
-0.155544
-0.155671
-0.155802
-0.155939
-0.15608
-0.156226
-0.156378
-0.156534
-0.156696
-0.156862
-0.157034
-0.157211
-0.157392
-0.157579
-0.15777
-0.157966
-0.158167
-0.158373
-0.158583
-0.158798
-0.159018
-0.159242
-0.15947
-0.159703
-0.159941
-0.160182
-0.160429
-0.160679
-0.160934
-0.161193
-0.161457
-0.161725
-0.161998
-0.162275
-0.162557
-0.162843
-0.163133
-0.163428
-0.163728
-0.164032
-0.164341
-0.164655
-0.164973
-0.165296
-0.165624
-0.165956
-0.166293
-0.166635
-0.166982
-0.167333
-0.16769
-0.168051
-0.168417
-0.168787
-0.169163
-0.169543
-0.169928
-0.170318
-0.170712
-0.171111
-0.171515
-0.171924
-0.172337
-0.172755
-0.173177
-0.173604
-0.174036
-0.174472
-0.174912
-0.175357
-0.175806
-0.17626
-0.176718
-0.17718
-0.177646
-0.178117
-0.178591
-0.17907
-0.179552
-0.180039
-0.180529
-0.181024
-0.181522
-0.182024
-0.18253
-0.183039
-0.183552
-0.184069
-0.184589
-0.185113
-0.185641
-0.186171
-0.186706
-0.187243
-0.187784
-0.188328
-0.188876
-0.189427
-0.189981
-0.190538
-0.191098
-0.191662
-0.192229
-0.192799
-0.193371
-0.193948
-0.194527
-0.195109
-0.195694
-0.196282
-0.196874
-0.197468
-0.198066
-0.198666
-0.19927
-0.199876
-0.200486
-0.201099
-0.201714
-0.202333
-0.202956
-0.203581
-0.20421
-0.204842
-0.205477
-0.206115
-0.206757
-0.207403
-0.208052
-0.208704
-0.209361
-0.21002
-0.210684
-0.211352
-0.212024
-0.2127
-0.213379
-0.214063
-0.214754
-0.215456
-0.216148
-0.138417
-0.138603
-0.138789
-0.138978
-0.139169
-0.139362
-0.139557
-0.139754
-0.139954
-0.140155
-0.140358
-0.140563
-0.14077
-0.140978
-0.141188
-0.1414
-0.141613
-0.141828
-0.142045
-0.142262
-0.142481
-0.142702
-0.142923
-0.143146
-0.143369
-0.143593
-0.143819
-0.144045
-0.144272
-0.144499
-0.144727
-0.144955
-0.145184
-0.145412
-0.145641
-0.14587
-0.146099
-0.146328
-0.146557
-0.146785
-0.147013
-0.14724
-0.147466
-0.147692
-0.147917
-0.148141
-0.148363
-0.148585
-0.148805
-0.149024
-0.149242
-0.149458
-0.149672
-0.149884
-0.150094
-0.150303
-0.150509
-0.150713
-0.150915
-0.151114
-0.151311
-0.151505
-0.151697
-0.151885
-0.152071
-0.152254
-0.152434
-0.152611
-0.152785
-0.152955
-0.153123
-0.153287
-0.153447
-0.153604
-0.153757
-0.153907
-0.154054
-0.154196
-0.154335
-0.15447
-0.154602
-0.15473
-0.154853
-0.154974
-0.15509
-0.155203
-0.155311
-0.155416
-0.155518
-0.155615
-0.155709
-0.155799
-0.155885
-0.155968
-0.156047
-0.156123
-0.156195
-0.156264
-0.15633
-0.156392
-0.156451
-0.156507
-0.156561
-0.156611
-0.156658
-0.156703
-0.156745
-0.156784
-0.156822
-0.156856
-0.156889
-0.15692
-0.156949
-0.156975
-0.157001
-0.157024
-0.157046
-0.157067
-0.157086
-0.157104
-0.157121
-0.157137
-0.157153
-0.157167
-0.157182
-0.157196
-0.157209
-0.157223
-0.157236
-0.157249
-0.157263
-0.157277
-0.15729
-0.157305
-0.15732
-0.157335
-0.157351
-0.157369
-0.157387
-0.157406
-0.157427
-0.157449
-0.157471
-0.157499
-0.157487
-0.157547
-0.15758
-0.157618
-0.157658
-0.157702
-0.15775
-0.157803
-0.15786
-0.157922
-0.157989
-0.158061
-0.158139
-0.158223
-0.158312
-0.158406
-0.158507
-0.158614
-0.158726
-0.158844
-0.158968
-0.159098
-0.159233
-0.159374
-0.15952
-0.159672
-0.159829
-0.159991
-0.160159
-0.160331
-0.160509
-0.160691
-0.160878
-0.161071
-0.161267
-0.161469
-0.161675
-0.161886
-0.162102
-0.162322
-0.162547
-0.162776
-0.16301
-0.163249
-0.163492
-0.16374
-0.163992
-0.164249
-0.164511
-0.164777
-0.165048
-0.165324
-0.165604
-0.165889
-0.166179
-0.166473
-0.166773
-0.167077
-0.167385
-0.167699
-0.168017
-0.168341
-0.168668
-0.169001
-0.169339
-0.169681
-0.170028
-0.17038
-0.170736
-0.171098
-0.171464
-0.171835
-0.17221
-0.17259
-0.172975
-0.173364
-0.173759
-0.174157
-0.17456
-0.174968
-0.17538
-0.175796
-0.176217
-0.176643
-0.177072
-0.177506
-0.177944
-0.178386
-0.178833
-0.179283
-0.179738
-0.180196
-0.180659
-0.181125
-0.181596
-0.18207
-0.182548
-0.18303
-0.183515
-0.184004
-0.184497
-0.184994
-0.185494
-0.185997
-0.186504
-0.187014
-0.187528
-0.188045
-0.188566
-0.18909
-0.189617
-0.190147
-0.19068
-0.191217
-0.191757
-0.192299
-0.192845
-0.193394
-0.193946
-0.194501
-0.19506
-0.195621
-0.196185
-0.196752
-0.197322
-0.197895
-0.198471
-0.19905
-0.199632
-0.200216
-0.200804
-0.201395
-0.201988
-0.202585
-0.203185
-0.203787
-0.204393
-0.205002
-0.205614
-0.206229
-0.206848
-0.207469
-0.208094
-0.208723
-0.209355
-0.20999
-0.210629
-0.211271
-0.211917
-0.212567
-0.213221
-0.213879
-0.21454
-0.215209
-0.215887
-0.216557
-0.141366
-0.141593
-0.141821
-0.142052
-0.142285
-0.142521
-0.142759
-0.143
-0.143242
-0.143487
-0.143734
-0.143983
-0.144233
-0.144486
-0.14474
-0.144996
-0.145254
-0.145513
-0.145774
-0.146036
-0.1463
-0.146564
-0.14683
-0.147097
-0.147365
-0.147634
-0.147903
-0.148173
-0.148444
-0.148715
-0.148986
-0.149257
-0.149529
-0.149801
-0.150072
-0.150343
-0.150614
-0.150884
-0.151154
-0.151423
-0.151691
-0.151958
-0.152224
-0.152489
-0.152752
-0.153014
-0.153274
-0.153533
-0.153789
-0.154044
-0.154296
-0.154547
-0.154794
-0.15504
-0.155282
-0.155522
-0.155759
-0.155993
-0.156224
-0.156452
-0.156676
-0.156897
-0.157114
-0.157328
-0.157538
-0.157743
-0.157945
-0.158143
-0.158337
-0.158526
-0.158711
-0.158892
-0.159068
-0.15924
-0.159407
-0.159569
-0.159726
-0.159879
-0.160027
-0.160169
-0.160307
-0.16044
-0.160568
-0.16069
-0.160808
-0.16092
-0.161028
-0.16113
-0.161227
-0.161319
-0.161406
-0.161488
-0.161565
-0.161637
-0.161704
-0.161766
-0.161824
-0.161876
-0.161924
-0.161967
-0.162006
-0.16204
-0.162069
-0.162094
-0.162115
-0.162132
-0.162144
-0.162153
-0.162157
-0.162158
-0.162155
-0.162149
-0.16214
-0.162127
-0.162112
-0.162093
-0.162072
-0.162049
-0.162022
-0.161994
-0.161963
-0.16193
-0.161896
-0.161859
-0.161821
-0.161781
-0.16174
-0.161698
-0.161655
-0.161611
-0.161567
-0.161522
-0.161477
-0.161431
-0.161387
-0.161342
-0.161283
-0.161251
-0.161208
-0.161184
-0.161149
-0.161098
-0.161095
-0.161067
-0.161047
-0.16103
-0.161018
-0.161011
-0.161009
-0.161013
-0.161023
-0.16104
-0.161062
-0.161092
-0.161128
-0.16117
-0.161219
-0.161275
-0.161338
-0.161407
-0.161483
-0.161566
-0.161654
-0.161749
-0.16185
-0.161958
-0.162071
-0.162189
-0.162314
-0.162444
-0.162579
-0.16272
-0.162866
-0.163018
-0.163174
-0.163336
-0.163502
-0.163674
-0.163851
-0.164032
-0.164219
-0.16441
-0.164606
-0.164807
-0.165013
-0.165224
-0.165439
-0.16566
-0.165885
-0.166115
-0.16635
-0.166589
-0.166833
-0.167083
-0.167337
-0.167596
-0.167859
-0.168128
-0.168402
-0.16868
-0.168963
-0.169251
-0.169544
-0.169842
-0.170145
-0.170452
-0.170765
-0.171082
-0.171404
-0.171731
-0.172063
-0.172399
-0.172741
-0.173087
-0.173437
-0.173793
-0.174153
-0.174518
-0.174887
-0.175261
-0.17564
-0.176023
-0.17641
-0.176802
-0.177199
-0.177599
-0.178004
-0.178414
-0.178828
-0.179245
-0.179668
-0.180094
-0.180524
-0.180959
-0.181397
-0.181839
-0.182286
-0.182736
-0.18319
-0.183648
-0.18411
-0.184575
-0.185044
-0.185517
-0.185993
-0.186473
-0.186956
-0.187443
-0.187933
-0.188426
-0.188923
-0.189424
-0.189927
-0.190434
-0.190943
-0.191456
-0.191973
-0.192492
-0.193014
-0.193539
-0.194067
-0.194599
-0.195133
-0.19567
-0.19621
-0.196752
-0.197298
-0.197846
-0.198398
-0.198952
-0.199509
-0.200068
-0.200631
-0.201196
-0.201764
-0.202335
-0.202908
-0.203485
-0.204064
-0.204646
-0.205231
-0.205819
-0.206409
-0.207003
-0.2076
-0.208199
-0.208802
-0.209408
-0.210017
-0.21063
-0.211246
-0.211865
-0.212487
-0.213114
-0.213743
-0.214376
-0.215013
-0.215657
-0.216311
-0.216955
-0.145728
-0.146001
-0.146278
-0.146558
-0.14684
-0.147124
-0.147411
-0.147699
-0.14799
-0.148282
-0.148577
-0.148873
-0.14917
-0.14947
-0.149771
-0.150073
-0.150377
-0.150681
-0.150987
-0.151294
-0.151602
-0.15191
-0.15222
-0.152529
-0.152839
-0.15315
-0.15346
-0.153771
-0.154082
-0.154392
-0.154702
-0.155012
-0.15532
-0.155629
-0.155936
-0.156242
-0.156548
-0.156851
-0.157154
-0.157455
-0.157754
-0.158051
-0.158347
-0.15864
-0.158931
-0.15922
-0.159506
-0.159789
-0.160069
-0.160347
-0.160621
-0.160892
-0.16116
-0.161424
-0.161684
-0.161941
-0.162194
-0.162442
-0.162687
-0.162927
-0.163162
-0.163393
-0.163619
-0.163841
-0.164057
-0.164269
-0.164475
-0.164676
-0.164871
-0.165061
-0.165245
-0.165424
-0.165597
-0.165764
-0.165925
-0.16608
-0.166229
-0.166371
-0.166508
-0.166638
-0.166762
-0.166879
-0.166991
-0.167095
-0.167193
-0.167285
-0.16737
-0.167449
-0.167521
-0.167587
-0.167646
-0.167699
-0.167745
-0.167784
-0.167818
-0.167844
-0.167865
-0.167878
-0.167886
-0.167888
-0.167884
-0.167874
-0.167859
-0.167837