/*--------------------------------*- C++ -*----------------------------------*\
| =========                 |                                                 |
| \\      /  F ield         | OpenFOAM: The Open Source CFD Toolbox           |
|  \\    /   O peration     | Version:  2.4.0                                 |
|   \\  /    A nd           | Web:      www.OpenFOAM.org                      |
|    \\/     M anipulation  |                                                 |
\*---------------------------------------------------------------------------*/
FoamFile
{
    version     2.0;
    format      ascii;
    class       surfaceScalarField;
    location    "0.007";
    object      phi;
}
// * * * * * * * * * * * * * * * * * * * * * * * * * * * * * * * * * * * * * //

dimensions      [0 3 -1 0 0 0 0];

internalField   nonuniform List<scalar> 
124
(
-6.2918e-09
-6.29177e-09
-6.29175e-09
-6.29172e-09
-6.2917e-09
-6.29168e-09
-6.29165e-09
-6.29163e-09
-6.2916e-09
-6.29158e-09
-6.29156e-09
-6.29153e-09
-6.29151e-09
-6.29149e-09
-6.29147e-09
-6.29144e-09
-6.29142e-09
-6.2914e-09
-6.29138e-09
-6.29135e-09
-6.29133e-09
-6.29131e-09
-6.29129e-09
-6.29127e-09
-6.29125e-09
-6.29122e-09
-6.2912e-09
-6.29118e-09
-6.29116e-09
-6.29114e-09
-6.29112e-09
-6.2911e-09
-6.29108e-09
-6.29106e-09
-6.29104e-09
-6.29102e-09
-6.291e-09
-6.29098e-09
-6.29096e-09
-6.29094e-09
-6.29092e-09
-6.29091e-09
-6.29089e-09
-6.29087e-09
-6.29085e-09
-6.29083e-09
-6.29081e-09
-6.29079e-09
-6.29078e-09
-6.29076e-09
-6.29074e-09
-6.29072e-09
-6.29071e-09
-6.29069e-09
-6.29067e-09
-6.29066e-09
-6.29064e-09
-6.29062e-09
-6.29061e-09
-6.29059e-09
-6.29057e-09
-6.29056e-09
-6.29054e-09
-6.29053e-09
-6.29051e-09
-6.29049e-09
-6.29048e-09
-6.29046e-09
-6.29045e-09
-6.29043e-09
-6.29042e-09
-6.2904e-09
-6.29039e-09
-6.29038e-09
-6.29036e-09
-6.29035e-09
-6.29033e-09
-6.29032e-09
-6.29031e-09
-6.29029e-09
-6.29028e-09
-6.29027e-09
-6.29025e-09
-6.29024e-09
-6.29023e-09
-6.29021e-09
-6.2902e-09
-6.29019e-09
-6.29018e-09
-6.29016e-09
-6.29015e-09
-6.29014e-09
-6.29013e-09
-6.29012e-09
-6.29011e-09
-6.29009e-09
-6.29008e-09
-6.29007e-09
-6.29006e-09
-6.29005e-09
-6.29004e-09
-6.29003e-09
-6.29002e-09
-6.29001e-09
-6.29e-09
-6.28999e-09
-6.28999e-09
-6.28998e-09
-6.28997e-09
-6.28996e-09
-6.28996e-09
-6.28995e-09
-6.28994e-09
-6.28994e-09
-6.28993e-09
-6.28993e-09
-6.28992e-09
-6.28992e-09
-6.28992e-09
-6.28991e-09
-6.28991e-09
-6.28991e-09
-6.28991e-09
-6.28991e-09
)
;

boundaryField
{
    BotWall
    {
        type            calculated;
        value           nonuniform 0();
    }
    FreeStream
    {
        type            calculated;
        value           nonuniform 0();
    }
    FrontNBack
    {
        type            empty;
        value           nonuniform 0();
    }
    LeftSide
    {
        type            symmetryPlane;
        value           nonuniform 0();
    }
    RightSide
    {
        type            symmetryPlane;
        value           nonuniform 0();
    }
    procBoundary5to2
    {
        type            processor;
        value           nonuniform List<scalar> 
50
(
-4.69238e-15
-4.67072e-15
-4.64922e-15
-4.6279e-15
-4.60678e-15
-4.58587e-15
-4.56519e-15
-4.54473e-15
-4.5245e-15
-4.5045e-15
-4.48469e-15
-4.46506e-15
-4.44557e-15
-4.42618e-15
-4.40684e-15
-4.38749e-15
-4.36804e-15
-4.34841e-15
-4.32851e-15
-4.30823e-15
-4.28744e-15
-4.26602e-15
-4.24383e-15
-4.22072e-15
-4.19654e-15
-4.17113e-15
-4.14432e-15
-4.11597e-15
-4.08589e-15
-4.05396e-15
-4.02001e-15
-3.98392e-15
-3.94558e-15
-3.90487e-15
-3.86174e-15
-3.81614e-15
-3.76804e-15
-3.71746e-15
-3.66446e-15
-3.60913e-15
-3.55158e-15
-3.49199e-15
-3.43057e-15
-3.36755e-15
-3.30323e-15
-3.23792e-15
-3.17196e-15
-3.10573e-15
-3.03961e-15
-2.97403e-15
)
;
    }
    procBoundary5to3
    {
        type            processor;
        value           nonuniform List<scalar> 
75
(
-5.05298e-15
-5.07839e-15
-5.1029e-15
-5.12652e-15
-5.14923e-15
-5.17102e-15
-5.19187e-15
-5.21179e-15
-5.23076e-15
-5.24877e-15
-5.26583e-15
-5.28193e-15
-5.29706e-15
-5.31123e-15
-5.32442e-15
-5.33665e-15
-5.34791e-15
-5.3582e-15
-5.36752e-15
-5.37589e-15
-5.3833e-15
-5.38975e-15
-5.39526e-15
-5.39982e-15
-5.40344e-15
-5.40614e-15
-5.40792e-15
-5.40879e-15
-5.40876e-15
-5.40785e-15
-5.40606e-15
-5.4034e-15
-5.39988e-15
-5.39553e-15
-5.39034e-15
-5.38434e-15
-5.37754e-15
-5.36994e-15
-5.36158e-15
-5.35246e-15
-5.3426e-15
-5.33201e-15
-5.32072e-15
-5.30874e-15
-5.29608e-15
-5.28278e-15
-5.26883e-15
-5.25428e-15
-5.23913e-15
-5.22342e-15
-5.20714e-15
-5.19033e-15
-5.17301e-15
-5.15519e-15
-5.13691e-15
-5.11819e-15
-5.09905e-15
-5.07952e-15
-5.05962e-15
-5.03938e-15
-5.01883e-15
-4.99799e-15
-4.97689e-15
-4.95555e-15
-4.93402e-15
-4.91231e-15
-4.89046e-15
-4.86849e-15
-4.84645e-15
-4.82435e-15
-4.80222e-15
-4.78012e-15
-4.75806e-15
-4.73607e-15
-4.71416e-15
)
;
    }
    procBoundary5to4
    {
        type            processor;
        value           uniform -6.28991e-09;
    }
    procBoundary5to6
    {
        type            processor;
        value           uniform 6.29182e-09;
    }
    procBoundary5to7
    {
        type            processor;
        value           nonuniform List<scalar> 
75
(
-1.23955e-14
-1.22707e-14
-1.21464e-14
-1.20228e-14
-1.18997e-14
-1.17773e-14
-1.16554e-14
-1.15341e-14
-1.14133e-14
-1.12931e-14
-1.11735e-14
-1.10543e-14
-1.09357e-14
-1.08176e-14
-1.07e-14
-1.05829e-14
-1.04663e-14
-1.03501e-14
-1.02344e-14
-1.0119e-14
-1.0004e-14
-9.88935e-15
-9.77499e-15
-9.66086e-15
-9.5469e-15
-9.43303e-15
-9.31917e-15
-9.2052e-15
-9.09102e-15
-8.97649e-15
-8.86145e-15
-8.74572e-15
-8.62909e-15
-8.51133e-15
-8.39218e-15
-8.27133e-15
-8.14847e-15
-8.02321e-15
-7.89518e-15
-7.76392e-15
-7.62896e-15
-7.48979e-15
-7.34586e-15
-7.19658e-15
-7.04134e-15
-6.87949e-15
-6.71036e-15
-6.53326e-15
-6.34749e-15
-6.15233e-15
-5.94711e-15
-5.73112e-15
-5.50371e-15
-5.26426e-15
-5.0122e-15
-4.74704e-15
-4.46833e-15
-4.17577e-15
-3.86912e-15
-3.5483e-15
-3.21335e-15
-2.86445e-15
-2.50194e-15
-2.12633e-15
-1.73831e-15
-1.33871e-15
-9.28534e-16
-5.08928e-16
-8.11125e-17
3.5148e-16
7.88483e-16
1.22852e-15
1.66958e-15
2.10961e-15
2.54654e-15
)
;
    }
    procBoundary5to8
    {
        type            processor;
        value           nonuniform List<scalar> 
50
(
-1.97894e-14
-1.96125e-14
-1.9437e-14
-1.92629e-14
-1.90901e-14
-1.89188e-14
-1.87488e-14
-1.85801e-14
-1.84128e-14
-1.82469e-14
-1.80822e-14
-1.79189e-14
-1.77569e-14
-1.75962e-14
-1.74367e-14
-1.72785e-14
-1.71216e-14
-1.69659e-14
-1.68114e-14
-1.66581e-14
-1.65059e-14
-1.6355e-14
-1.62051e-14
-1.60564e-14
-1.59088e-14
-1.57623e-14
-1.56169e-14
-1.54725e-14
-1.53291e-14
-1.51867e-14
-1.50453e-14
-1.49049e-14
-1.47654e-14
-1.46269e-14
-1.44892e-14
-1.43525e-14
-1.42166e-14
-1.40815e-14
-1.39473e-14
-1.38139e-14
-1.36813e-14
-1.35495e-14
-1.34184e-14
-1.32881e-14
-1.31585e-14
-1.30296e-14
-1.29015e-14
-1.2774e-14
-1.26472e-14
-1.2521e-14
)
;
    }
}


// ************************************************************************* //
