/*--------------------------------*- C++ -*----------------------------------*\
| =========                 |                                                 |
| \\      /  F ield         | OpenFOAM: The Open Source CFD Toolbox           |
|  \\    /   O peration     | Version:  2.4.0                                 |
|   \\  /    A nd           | Web:      www.OpenFOAM.org                      |
|    \\/     M anipulation  |                                                 |
\*---------------------------------------------------------------------------*/
FoamFile
{
    version     2.0;
    format      ascii;
    class       volVectorField;
    location    "0.007";
    object      U;
}
// * * * * * * * * * * * * * * * * * * * * * * * * * * * * * * * * * * * * * //

dimensions      [0 1 -1 0 0 0 0];

internalField   nonuniform List<vector> 
125
(
(-1.33448e-05 -0.031459 0)
(-1.31666e-05 -0.0314589 0)
(-1.29905e-05 -0.0314588 0)
(-1.28164e-05 -0.0314587 0)
(-1.26444e-05 -0.0314586 0)
(-1.24745e-05 -0.0314584 0)
(-1.23065e-05 -0.0314583 0)
(-1.21405e-05 -0.0314582 0)
(-1.19766e-05 -0.0314581 0)
(-1.18145e-05 -0.031458 0)
(-1.16544e-05 -0.0314578 0)
(-1.14963e-05 -0.0314577 0)
(-1.134e-05 -0.0314576 0)
(-1.11856e-05 -0.0314575 0)
(-1.1033e-05 -0.0314574 0)
(-1.08822e-05 -0.0314573 0)
(-1.07333e-05 -0.0314572 0)
(-1.05861e-05 -0.031457 0)
(-1.04407e-05 -0.0314569 0)
(-1.02971e-05 -0.0314568 0)
(-1.01551e-05 -0.0314567 0)
(-1.00148e-05 -0.0314566 0)
(-9.87613e-06 -0.0314565 0)
(-9.73911e-06 -0.0314564 0)
(-9.60369e-06 -0.0314563 0)
(-9.46984e-06 -0.0314562 0)
(-9.33754e-06 -0.0314561 0)
(-9.20677e-06 -0.031456 0)
(-9.07749e-06 -0.0314559 0)
(-8.94968e-06 -0.0314558 0)
(-8.82332e-06 -0.0314557 0)
(-8.69837e-06 -0.0314556 0)
(-8.57482e-06 -0.0314555 0)
(-8.45264e-06 -0.0314554 0)
(-8.33181e-06 -0.0314553 0)
(-8.21229e-06 -0.0314552 0)
(-8.09407e-06 -0.0314551 0)
(-7.97711e-06 -0.031455 0)
(-7.86141e-06 -0.0314549 0)
(-7.74692e-06 -0.0314548 0)
(-7.63364e-06 -0.0314547 0)
(-7.52153e-06 -0.0314546 0)
(-7.41057e-06 -0.0314545 0)
(-7.30075e-06 -0.0314544 0)
(-7.19204e-06 -0.0314543 0)
(-7.08442e-06 -0.0314542 0)
(-6.97787e-06 -0.0314541 0)
(-6.87236e-06 -0.031454 0)
(-6.76788e-06 -0.0314539 0)
(-6.66442e-06 -0.0314538 0)
(-6.56194e-06 -0.0314538 0)
(-6.46044e-06 -0.0314537 0)
(-6.35989e-06 -0.0314536 0)
(-6.26028e-06 -0.0314535 0)
(-6.16159e-06 -0.0314534 0)
(-6.06381e-06 -0.0314533 0)
(-5.96691e-06 -0.0314532 0)
(-5.87089e-06 -0.0314532 0)
(-5.77573e-06 -0.0314531 0)
(-5.68141e-06 -0.031453 0)
(-5.58793e-06 -0.0314529 0)
(-5.49526e-06 -0.0314528 0)
(-5.40339e-06 -0.0314527 0)
(-5.31232e-06 -0.0314527 0)
(-5.22202e-06 -0.0314526 0)
(-5.13249e-06 -0.0314525 0)
(-5.0437e-06 -0.0314524 0)
(-4.95564e-06 -0.0314524 0)
(-4.86831e-06 -0.0314523 0)
(-4.78166e-06 -0.0314522 0)
(-4.6957e-06 -0.0314521 0)
(-4.61039e-06 -0.0314521 0)
(-4.52571e-06 -0.031452 0)
(-4.44162e-06 -0.0314519 0)
(-4.35811e-06 -0.0314518 0)
(-4.27511e-06 -0.0314518 0)
(-4.1926e-06 -0.0314517 0)
(-4.11051e-06 -0.0314516 0)
(-4.0288e-06 -0.0314516 0)
(-3.94739e-06 -0.0314515 0)
(-3.8662e-06 -0.0314514 0)
(-3.78516e-06 -0.0314514 0)
(-3.70416e-06 -0.0314513 0)
(-3.62309e-06 -0.0314512 0)
(-3.54182e-06 -0.0314512 0)
(-3.46022e-06 -0.0314511 0)
(-3.37814e-06 -0.031451 0)
(-3.2954e-06 -0.031451 0)
(-3.21182e-06 -0.0314509 0)
(-3.12721e-06 -0.0314508 0)
(-3.04134e-06 -0.0314508 0)
(-2.95399e-06 -0.0314507 0)
(-2.86491e-06 -0.0314507 0)
(-2.77384e-06 -0.0314506 0)
(-2.68051e-06 -0.0314506 0)
(-2.58464e-06 -0.0314505 0)
(-2.48593e-06 -0.0314504 0)
(-2.3841e-06 -0.0314504 0)
(-2.27884e-06 -0.0314503 0)
(-2.16986e-06 -0.0314503 0)
(-2.05687e-06 -0.0314502 0)
(-1.93959e-06 -0.0314502 0)
(-1.81776e-06 -0.0314501 0)
(-1.69115e-06 -0.0314501 0)
(-1.55955e-06 -0.03145 0)
(-1.42276e-06 -0.03145 0)
(-1.28067e-06 -0.03145 0)
(-1.13318e-06 -0.0314499 0)
(-9.8025e-07 -0.0314499 0)
(-8.21902e-07 -0.0314498 0)
(-6.58219e-07 -0.0314498 0)
(-4.89352e-07 -0.0314498 0)
(-3.15523e-07 -0.0314497 0)
(-1.37027e-07 -0.0314497 0)
(4.57663e-08 -0.0314497 0)
(2.3241e-07 -0.0314496 0)
(4.22383e-07 -0.0314496 0)
(6.15095e-07 -0.0314496 0)
(8.09887e-07 -0.0314496 0)
(1.00604e-06 -0.0314496 0)
(1.20277e-06 -0.0314496 0)
(1.39927e-06 -0.0314495 0)
(1.59468e-06 -0.0314495 0)
(1.78811e-06 -0.0314495 0)
(1.97868e-06 -0.0314495 0)
)
;

boundaryField
{
    BotWall
    {
        type            fixedValue;
        value           nonuniform 0();
    }
    FreeStream
    {
        type            zeroGradient;
    }
    FrontNBack
    {
        type            empty;
    }
    LeftSide
    {
        type            symmetryPlane;
    }
    RightSide
    {
        type            symmetryPlane;
    }
    procBoundary5to2
    {
        type            processor;
        value           nonuniform List<vector> 
50
(
(8.75435e-06 -0.0314508 0)
(8.63477e-06 -0.0314508 0)
(8.51599e-06 -0.0314507 0)
(8.39797e-06 -0.0314506 0)
(8.28066e-06 -0.0314506 0)
(8.16399e-06 -0.0314505 0)
(8.04787e-06 -0.0314504 0)
(7.93221e-06 -0.0314504 0)
(7.81689e-06 -0.0314503 0)
(7.70177e-06 -0.0314502 0)
(7.58669e-06 -0.0314502 0)
(7.47148e-06 -0.0314501 0)
(7.35594e-06 -0.0314501 0)
(7.23984e-06 -0.03145 0)
(7.12293e-06 -0.0314499 0)
(7.00494e-06 -0.0314499 0)
(6.88556e-06 -0.0314498 0)
(6.76448e-06 -0.0314498 0)
(6.64134e-06 -0.0314497 0)
(6.51579e-06 -0.0314496 0)
(6.38743e-06 -0.0314496 0)
(6.25587e-06 -0.0314495 0)
(6.12068e-06 -0.0314495 0)
(5.98146e-06 -0.0314494 0)
(5.83778e-06 -0.0314494 0)
(5.68923e-06 -0.0314493 0)
(5.53539e-06 -0.0314492 0)
(5.37588e-06 -0.0314492 0)
(5.21033e-06 -0.0314491 0)
(5.03843e-06 -0.0314491 0)
(4.85988e-06 -0.031449 0)
(4.67445e-06 -0.031449 0)
(4.48197e-06 -0.0314489 0)
(4.28235e-06 -0.0314489 0)
(4.07557e-06 -0.0314489 0)
(3.86167e-06 -0.0314488 0)
(3.64084e-06 -0.0314488 0)
(3.41331e-06 -0.0314487 0)
(3.17945e-06 -0.0314487 0)
(2.93973e-06 -0.0314487 0)
(2.69471e-06 -0.0314486 0)
(2.44508e-06 -0.0314486 0)
(2.1916e-06 -0.0314486 0)
(1.93515e-06 -0.0314486 0)
(1.6767e-06 -0.0314485 0)
(1.41728e-06 -0.0314485 0)
(1.15801e-06 -0.0314485 0)
(9.00039e-07 -0.0314485 0)
(6.44571e-07 -0.0314485 0)
(3.92825e-07 -0.0314484 0)
)
;
    }
    procBoundary5to3
    {
        type            processor;
        value           nonuniform List<vector> 
75
(
(1.97015e-05 -0.0314573 0)
(1.95319e-05 -0.0314572 0)
(1.93631e-05 -0.0314571 0)
(1.9195e-05 -0.031457 0)
(1.90278e-05 -0.0314569 0)
(1.88613e-05 -0.0314568 0)
(1.86956e-05 -0.0314567 0)
(1.85307e-05 -0.0314566 0)
(1.83664e-05 -0.0314565 0)
(1.82029e-05 -0.0314564 0)
(1.804e-05 -0.0314563 0)
(1.78779e-05 -0.0314562 0)
(1.77164e-05 -0.0314561 0)
(1.75556e-05 -0.031456 0)
(1.73954e-05 -0.0314559 0)
(1.72359e-05 -0.0314558 0)
(1.7077e-05 -0.0314557 0)
(1.69187e-05 -0.0314556 0)
(1.6761e-05 -0.0314555 0)
(1.6604e-05 -0.0314554 0)
(1.64475e-05 -0.0314553 0)
(1.62916e-05 -0.0314552 0)
(1.61363e-05 -0.0314551 0)
(1.59816e-05 -0.031455 0)
(1.58274e-05 -0.0314549 0)
(1.56739e-05 -0.0314548 0)
(1.55208e-05 -0.0314547 0)
(1.53683e-05 -0.0314546 0)
(1.52164e-05 -0.0314546 0)
(1.5065e-05 -0.0314545 0)
(1.49142e-05 -0.0314544 0)
(1.47639e-05 -0.0314543 0)
(1.46142e-05 -0.0314542 0)
(1.4465e-05 -0.0314541 0)
(1.43163e-05 -0.031454 0)
(1.41681e-05 -0.0314539 0)
(1.40205e-05 -0.0314538 0)
(1.38735e-05 -0.0314538 0)
(1.3727e-05 -0.0314537 0)
(1.3581e-05 -0.0314536 0)
(1.34356e-05 -0.0314535 0)
(1.32907e-05 -0.0314534 0)
(1.31464e-05 -0.0314533 0)
(1.30026e-05 -0.0314533 0)
(1.28594e-05 -0.0314532 0)
(1.27168e-05 -0.0314531 0)
(1.25747e-05 -0.031453 0)
(1.24332e-05 -0.0314529 0)
(1.22923e-05 -0.0314528 0)
(1.2152e-05 -0.0314528 0)
(1.20123e-05 -0.0314527 0)
(1.18733e-05 -0.0314526 0)
(1.17348e-05 -0.0314525 0)
(1.1597e-05 -0.0314524 0)
(1.14598e-05 -0.0314524 0)
(1.13233e-05 -0.0314523 0)
(1.11875e-05 -0.0314522 0)
(1.10524e-05 -0.0314521 0)
(1.09179e-05 -0.0314521 0)
(1.07842e-05 -0.031452 0)
(1.06512e-05 -0.0314519 0)
(1.0519e-05 -0.0314518 0)
(1.03875e-05 -0.0314518 0)
(1.02568e-05 -0.0314517 0)
(1.01269e-05 -0.0314516 0)
(9.99781e-06 -0.0314515 0)
(9.86956e-06 -0.0314515 0)
(9.74215e-06 -0.0314514 0)
(9.61561e-06 -0.0314513 0)
(9.48993e-06 -0.0314513 0)
(9.36513e-06 -0.0314512 0)
(9.24121e-06 -0.0314511 0)
(9.11818e-06 -0.031451 0)
(8.99603e-06 -0.031451 0)
(8.87476e-06 -0.0314509 0)
)
;
    }
    procBoundary5to4
    {
        type            processor;
        value           uniform (2.16549e-06 -0.0314495 0);
    }
    procBoundary5to6
    {
        type            processor;
        value           uniform (-1.35251e-05 -0.0314592 0);
    }
    procBoundary5to7
    {
        type            processor;
        value           nonuniform List<vector> 
75
(
(-6.41303e-06 -0.0314368 0)
(-6.33647e-06 -0.0314368 0)
(-6.26073e-06 -0.0314369 0)
(-6.1858e-06 -0.0314369 0)
(-6.11168e-06 -0.031437 0)
(-6.03837e-06 -0.031437 0)
(-5.96585e-06 -0.0314371 0)
(-5.89412e-06 -0.0314371 0)
(-5.82317e-06 -0.0314372 0)
(-5.75299e-06 -0.0314372 0)
(-5.68358e-06 -0.0314373 0)
(-5.61493e-06 -0.0314373 0)
(-5.54703e-06 -0.0314374 0)
(-5.47987e-06 -0.0314374 0)
(-5.41344e-06 -0.0314375 0)
(-5.34774e-06 -0.0314375 0)
(-5.28275e-06 -0.0314376 0)
(-5.21845e-06 -0.0314376 0)
(-5.15483e-06 -0.0314377 0)
(-5.09188e-06 -0.0314377 0)
(-5.02957e-06 -0.0314377 0)
(-4.96789e-06 -0.0314378 0)
(-4.9068e-06 -0.0314378 0)
(-4.84627e-06 -0.0314379 0)
(-4.78628e-06 -0.0314379 0)
(-4.72679e-06 -0.0314379 0)
(-4.66774e-06 -0.031438 0)
(-4.60909e-06 -0.031438 0)
(-4.55078e-06 -0.031438 0)
(-4.49274e-06 -0.0314381 0)
(-4.43491e-06 -0.0314381 0)
(-4.3772e-06 -0.0314381 0)
(-4.31952e-06 -0.0314382 0)
(-4.26176e-06 -0.0314382 0)
(-4.20382e-06 -0.0314382 0)
(-4.14557e-06 -0.0314383 0)
(-4.08686e-06 -0.0314383 0)
(-4.02756e-06 -0.0314383 0)
(-3.9675e-06 -0.0314383 0)
(-3.9065e-06 -0.0314384 0)
(-3.84438e-06 -0.0314384 0)
(-3.78094e-06 -0.0314384 0)
(-3.71597e-06 -0.0314384 0)
(-3.64924e-06 -0.0314385 0)
(-3.58052e-06 -0.0314385 0)
(-3.50957e-06 -0.0314385 0)
(-3.43616e-06 -0.0314385 0)
(-3.36003e-06 -0.0314385 0)
(-3.28093e-06 -0.0314385 0)
(-3.19862e-06 -0.0314385 0)
(-3.11286e-06 -0.0314386 0)
(-3.02342e-06 -0.0314386 0)
(-2.93008e-06 -0.0314386 0)
(-2.83266e-06 -0.0314386 0)
(-2.73098e-06 -0.0314386 0)
(-2.6249e-06 -0.0314386 0)
(-2.51431e-06 -0.0314386 0)
(-2.39915e-06 -0.0314386 0)
(-2.27938e-06 -0.0314386 0)
(-2.15503e-06 -0.0314386 0)
(-2.02617e-06 -0.0314386 0)
(-1.89294e-06 -0.0314386 0)
(-1.75552e-06 -0.0314386 0)
(-1.61416e-06 -0.0314386 0)
(-1.46917e-06 -0.0314386 0)
(-1.32091e-06 -0.0314386 0)
(-1.16983e-06 -0.0314385 0)
(-1.01641e-06 -0.0314385 0)
(-8.61183e-07 -0.0314385 0)
(-7.04749e-07 -0.0314385 0)
(-5.47741e-07 -0.0314385 0)
(-3.90829e-07 -0.0314384 0)
(-2.34713e-07 -0.0314384 0)
(-8.01066e-08 -0.0314384 0)
(7.22587e-08 -0.0314384 0)
)
;
    }
    procBoundary5to8
    {
        type            processor;
        value           nonuniform List<vector> 
50
(
(-1.15624e-05 -0.0314326 0)
(-1.14273e-05 -0.0314327 0)
(-1.12938e-05 -0.0314328 0)
(-1.11618e-05 -0.0314329 0)
(-1.10315e-05 -0.031433 0)
(-1.09027e-05 -0.0314331 0)
(-1.07754e-05 -0.0314333 0)
(-1.06496e-05 -0.0314334 0)
(-1.05254e-05 -0.0314335 0)
(-1.04026e-05 -0.0314335 0)
(-1.02813e-05 -0.0314336 0)
(-1.01614e-05 -0.0314337 0)
(-1.0043e-05 -0.0314338 0)
(-9.92593e-06 -0.0314339 0)
(-9.81026e-06 -0.031434 0)
(-9.69596e-06 -0.0314341 0)
(-9.58299e-06 -0.0314342 0)
(-9.47135e-06 -0.0314343 0)
(-9.361e-06 -0.0314344 0)
(-9.25194e-06 -0.0314345 0)
(-9.14415e-06 -0.0314346 0)
(-9.03759e-06 -0.0314347 0)
(-8.93227e-06 -0.0314347 0)
(-8.82814e-06 -0.0314348 0)
(-8.72521e-06 -0.0314349 0)
(-8.62344e-06 -0.031435 0)
(-8.52283e-06 -0.0314351 0)
(-8.42334e-06 -0.0314352 0)
(-8.32498e-06 -0.0314352 0)
(-8.22771e-06 -0.0314353 0)
(-8.13152e-06 -0.0314354 0)
(-8.0364e-06 -0.0314355 0)
(-7.94233e-06 -0.0314355 0)
(-7.8493e-06 -0.0314356 0)
(-7.75728e-06 -0.0314357 0)
(-7.66627e-06 -0.0314358 0)
(-7.57624e-06 -0.0314358 0)
(-7.4872e-06 -0.0314359 0)
(-7.39911e-06 -0.031436 0)
(-7.31198e-06 -0.031436 0)
(-7.22579e-06 -0.0314361 0)
(-7.14052e-06 -0.0314362 0)
(-7.05616e-06 -0.0314363 0)
(-6.97271e-06 -0.0314363 0)
(-6.89015e-06 -0.0314364 0)
(-6.80848e-06 -0.0314364 0)
(-6.72768e-06 -0.0314365 0)
(-6.64774e-06 -0.0314366 0)
(-6.56866e-06 -0.0314366 0)
(-6.49043e-06 -0.0314367 0)
)
;
    }
}


// ************************************************************************* //
