/*--------------------------------*- C++ -*----------------------------------*\
| =========                 |                                                 |
| \\      /  F ield         | OpenFOAM: The Open Source CFD Toolbox           |
|  \\    /   O peration     | Version:  2.4.0                                 |
|   \\  /    A nd           | Web:      www.OpenFOAM.org                      |
|    \\/     M anipulation  |                                                 |
\*---------------------------------------------------------------------------*/
FoamFile
{
    version     2.0;
    format      ascii;
    class       volScalarField;
    location    "5";
    object      alpha1;
}
// * * * * * * * * * * * * * * * * * * * * * * * * * * * * * * * * * * * * * //

dimensions      [0 0 0 0 0 0 0];

internalField   nonuniform List<scalar> 
8000
(
1
0.999998
0.999994
0.999996
0.999999
1
1
1
1
1
1
1
1
1
0.999999
0.999998
0.999996
0.999975
0.483309
0.00238136
6.80286e-06
2.38836e-06
1.4993e-06
1.14154e-06
9.76353e-07
8.89164e-07
8.40291e-07
8.10669e-07
7.91531e-07
7.78296e-07
7.68566e-07
7.61251e-07
7.55501e-07
7.50282e-07
7.44398e-07
7.36546e-07
7.25445e-07
7.09981e-07
6.8937e-07
6.63279e-07
6.31895e-07
5.95901e-07
5.56387e-07
5.14711e-07
4.72311e-07
4.30521e-07
3.90378e-07
3.52497e-07
3.17091e-07
2.84283e-07
1
0.999998
0.999996
0.999998
1
1
1
1
1
1
1
1
1
0.999999
0.999998
0.999997
0.999997
0.737785
0.0076043
6.29863e-06
2.15845e-06
1.24377e-06
9.53575e-07
8.17255e-07
7.42819e-07
6.99362e-07
6.72544e-07
6.54743e-07
6.41207e-07
6.29599e-07
6.18885e-07
6.08657e-07
5.98764e-07
5.89073e-07
5.79358e-07
5.69276e-07
5.58395e-07
5.46253e-07
5.32425e-07
5.16594e-07
4.98595e-07
4.78461e-07
4.56415e-07
4.3285e-07
4.08271e-07
3.83205e-07
3.58121e-07
3.33403e-07
3.09445e-07
2.86825e-07
1
0.999998
0.999997
0.999999
1
1
1
1
1
1
1
1
1
0.999999
0.999997
0.999996
0.993538
0.0562024
1.01713e-05
1.97962e-06
1.04241e-06
7.9492e-07
6.83502e-07
6.22756e-07
5.86029e-07
5.63105e-07
5.47521e-07
5.34921e-07
5.22851e-07
5.10357e-07
4.97221e-07
4.83631e-07
4.69896e-07
4.56291e-07
4.43003e-07
4.30109e-07
4.1759e-07
4.05351e-07
3.9326e-07
3.81182e-07
3.69005e-07
3.56659e-07
3.44124e-07
3.31431e-07
3.1865e-07
3.05882e-07
2.93201e-07
2.80389e-07
2.66336e-07
2.49414e-07
1
0.999998
0.999997
0.999999
1
1
1
1
1
1
1
1
0.999999
0.999998
0.999995
0.999988
0.380112
9.24849e-05
1.85179e-06
9.30586e-07
6.83336e-07
5.8221e-07
5.2696e-07
4.94096e-07
4.73696e-07
4.60239e-07
4.49784e-07
4.39718e-07
4.28776e-07
4.16656e-07
4.03585e-07
3.89996e-07
3.76345e-07
3.63013e-07
3.5027e-07
3.38273e-07
3.27085e-07
3.16699e-07
3.07064e-07
2.98108e-07
2.89748e-07
2.81907e-07
2.74497e-07
2.67452e-07
2.60706e-07
2.54242e-07
2.4805e-07
2.42182e-07
2.36607e-07
2.31107e-07
1
0.999998
0.999997
0.999999
1
1
1
1
1
1
1
1
0.999999
0.999996
1
0.923174
0.00458868
1.42172e-06
7.78283e-07
5.59069e-07
4.75989e-07
4.31327e-07
4.04567e-07
3.88057e-07
3.77527e-07
3.70171e-07
3.63951e-07
3.57582e-07
3.50511e-07
3.42681e-07
3.34289e-07
3.25629e-07
3.16991e-07
3.08619e-07
3.0069e-07
2.93318e-07
2.86564e-07
2.80486e-07
2.74926e-07
2.69931e-07
2.6539e-07
2.61491e-07
2.57786e-07
2.5454e-07
2.51281e-07
2.48471e-07
2.45516e-07
2.43022e-07
2.40136e-07
2.37518e-07
1
0.999998
0.999997
0.999999
1
1
1
1
1
1
1
0.999999
0.999998
0.999993
1
0.467038
3.65945e-06
7.19806e-07
4.74565e-07
3.84772e-07
3.43553e-07
3.20268e-07
3.07011e-07
3.0014e-07
2.96905e-07
2.95869e-07
2.95904e-07
2.96405e-07
2.97092e-07
2.97877e-07
2.98786e-07
2.99906e-07
3.01335e-07
3.03143e-07
3.05368e-07
3.08019e-07
3.10877e-07
3.17729e-07
3.19524e-07
3.22375e-07
3.21818e-07
3.29228e-07
3.28545e-07
3.32891e-07
3.29207e-07
3.31779e-07
3.27247e-07
3.29457e-07
3.23033e-07
3.18362e-07
1
0.999998
0.999997
0.999999
1
1
1
1
1
1
1
0.999999
0.999997
0.999993
1
0.286133
6.67869e-07
4.33774e-07
2.98989e-07
2.53932e-07
2.37419e-07
2.33838e-07
2.38617e-07
2.50214e-07
2.63952e-07
2.7956e-07
2.95568e-07
3.11814e-07
3.28466e-07
3.45743e-07
3.63433e-07
3.82324e-07
4.02654e-07
4.21889e-07
4.39848e-07
4.54684e-07
4.49714e-07
5.56513e-07
5.2638e-07
5.2761e-07
4.77123e-07
5.50777e-07
5.10637e-07
5.33567e-07
4.83039e-07
4.96829e-07
4.56634e-07
4.74554e-07
4.3394e-07
4.05302e-07
1
0.999998
0.999997
0.999999
1
1
1
1
1
1
1
0.999999
0.999997
0.999999
1
0.32792
2.63662e-06
3.04547e-07
1.76918e-07
1.63754e-07
1.7992e-07
2.0997e-07
2.46053e-07
2.93911e-07
3.42709e-07
3.91822e-07
4.39311e-07
4.84736e-07
5.28528e-07
5.71101e-07
5.97985e-07
6.35294e-07
7.12269e-07
7.13728e-07
7.25749e-07
6.99933e-07
4.50294e-07
1.4705e-06
7.80829e-07
8.07586e-07
5.32823e-07
1.15731e-06
7.21701e-07
9.57226e-07
4.4842e-07
7.5613e-07
3.72372e-07
6.55287e-07
3.1925e-07
3.02075e-07
1
0.999998
0.999997
0.999999
1
1
1
1
1
1
1
0.999999
0.999997
0.999999
1
0.59115
0.000308663
1.48145e-06
2.91393e-07
2.0583e-07
2.61345e-07
3.43715e-07
4.26313e-07
5.21756e-07
6.08323e-07
6.92935e-07
7.71032e-07
8.42119e-07
9.07542e-07
9.56447e-07
8.75784e-07
7.71588e-07
2.02597e-06
1.01023e-06
1.03733e-06
9.99168e-07
9.31525e-07
8.43998e-07
1.00056e-06
8.2835e-07
7.60668e-07
6.09688e-07
5.24705e-07
4.1763e-07
3.68391e-07
2.91784e-07
2.68961e-07
2.16181e-07
2.06409e-07
1.96228e-07
1
0.999998
0.999998
1
1
1
1
1
1
1
1
0.999998
0.999997
0.999998
1
1.00003
0.066494
0.000655079
2.00088e-06
5.82477e-07
5.68534e-07
6.95695e-07
8.16821e-07
9.69752e-07
1.03498e-06
1.13096e-06
1.21252e-06
1.29526e-06
1.37686e-06
1.32029e-06
1.06448e-06
2.29709e-06
1.25338e-06
1.25256e-06
1.1641e-06
1.02588e-06
8.65602e-07
7.09546e-07
5.66494e-07
4.66105e-07
3.82258e-07
3.15046e-07
2.61361e-07
2.17823e-07
1.81908e-07
1.51923e-07
1.26729e-07
1.05512e-07
8.76613e-08
7.2692e-08
1
0.999998
0.999998
1
1
1
1
1
1
1
0.999999
0.999998
0.999998
0.999998
0.999999
1
0.482524
0.0164654
4.39622e-05
1.39125e-06
9.95422e-07
1.10588e-06
1.25516e-06
1.50033e-06
1.3703e-06
1.54748e-06
1.68833e-06
1.85771e-06
1.89863e-06
1.32767e-06
2.77562e-06
1.33745e-06
1.31468e-06
1.05794e-06
8.51745e-07
6.34449e-07
4.47173e-07
3.19609e-07
2.37041e-07
1.82931e-07
1.45707e-07
1.18459e-07
9.72805e-08
8.0029e-08
6.55424e-08
5.31352e-08
4.24522e-08
3.33417e-08
2.57395e-08
1.95772e-08
1
0.999998
0.999999
1
1
1
1
1
1
1
0.999999
0.999998
0.999998
0.999998
0.999998
0.999922
0.469355
0.0219391
6.61744e-05
1.56702e-06
1.34497e-06
1.5913e-06
1.83046e-06
2.13421e-06
1.73753e-06
1.89104e-06
2.9266e-06
3.586e-06
3.00966e-06
1.67162e-06
1.28112e-06
1.05322e-06
7.42915e-07
4.34283e-07
2.90027e-07
1.97977e-07
1.55584e-07
1.33662e-07
1.16461e-07
1.00653e-07
8.58469e-08
7.21902e-08
5.98857e-08
4.90473e-08
3.95905e-08
3.1374e-08
2.43336e-08
1.84593e-08
1.37026e-08
9.95044e-09
1
0.999998
0.999999
1
1
1
1
1
0.999999
0.999999
0.999998
0.999998
0.999996
0.999902
0.864497
0.166891
0.00092813
0.000549457
1.83734e-06
1.66439e-06
2.02389e-06
1.48253e-06
1.60928e-06
4.61809e-06
6.08083e-06
1.21524e-06
1.11414e-06
3.58719e-06
4.16494e-06
3.39806e-06
6.33827e-07
3.91631e-07
2.67581e-07
2.07199e-07
1.78179e-07
1.61453e-07
1.48185e-07
1.33824e-07
1.1639e-07
9.87695e-08
8.31296e-08
7.00772e-08
5.92441e-08
5.00166e-08
4.17567e-08
3.41655e-08
2.7297e-08
2.13053e-08
1.6232e-08
1.20209e-08
1
0.999997
0.999999
1
1
1
1
0.999999
0.999999
0.999998
0.999894
0.99987
0.810376
0.081601
0.0161293
0.000979445
3.36762e-06
3.36583e-06
6.17688e-06
1.81298e-06
1.0352e-06
1.0504e-06
5.68388e-06
1.63157e-05
1.15926e-05
2.75087e-06
4.25604e-07
3.4743e-07
2.85797e-07
2.58359e-07
2.49459e-07
2.4338e-07
2.34005e-07
2.21543e-07
2.10883e-07
2.04823e-07
2.10815e-07
1.79374e-07
1.47759e-07
1.21112e-07
1.01928e-07
8.87758e-08
7.85138e-08
6.94522e-08
6.02456e-08
5.07482e-08
4.16463e-08
3.35913e-08
2.6511e-08
2.03154e-08
1
0.999997
0.999999
1
1
1
1
0.999907
0.999665
0.99982
0.19526
0.0432163
0.00738326
0.000101169
6.90251e-05
8.4407e-06
3.82107e-06
2.69636e-06
6.17352e-06
1.40936e-06
1.47061e-06
1.10749e-05
2.91893e-05
2.37103e-05
7.14992e-06
5.9615e-07
4.13316e-07
4.23339e-07
4.34525e-07
4.41988e-07
4.3698e-07
4.12638e-07
3.52199e-07
2.52311e-07
7.41755e-07
1.58399e-06
7.68528e-07
2.74931e-07
2.43829e-07
1.94929e-07
1.66268e-07
1.49883e-07
1.38009e-07
1.30181e-07
1.16701e-07
9.96062e-08
8.03886e-08
6.74574e-08
5.66387e-08
4.54282e-08
1
0.999997
0.999999
0.999993
0.999999
0.999851
0.99969
0.206965
0.0189632
0.0195011
0.000243743
0.000158919
1.0852e-05
3.88061e-06
1.38951e-06
6.47322e-07
5.84705e-07
1.00813e-06
3.83131e-06
1.85122e-05
4.99587e-05
5.5075e-05
4.21165e-05
4.52723e-06
7.3945e-07
4.26212e-07
4.10086e-07
4.10388e-07
6.0818e-07
3.65441e-06
7.8908e-06
2.20102e-06
3.33311e-07
3.3602e-07
2.57824e-06
9.16184e-06
1.42796e-05
1.512e-06
5.12908e-07
3.61904e-07
3.44686e-07
3.35795e-07
3.27507e-07
3.65837e-07
3.48976e-07
2.98737e-07
1.54774e-07
1.30496e-07
1.3339e-07
1.11449e-07
1
0.999998
0.999995
1.00001
0.998913
0.0744522
0.00400198
0.00138461
0.000159926
6.95299e-05
9.1608e-07
6.98715e-07
3.91984e-06
1.13473e-05
1.72419e-05
1.13388e-06
5.18606e-07
5.07977e-07
5.48703e-07
3.73254e-06
1.95452e-05
5.51365e-05
6.60603e-05
6.60682e-05
4.01441e-05
5.83318e-06
7.77833e-07
4.44946e-07
4.80581e-07
4.81677e-06
2.08117e-05
2.65888e-05
6.5396e-06
1.03374e-06
2.10244e-06
1.26037e-05
3.38305e-05
3.58331e-05
2.64077e-05
6.88558e-06
5.16379e-06
4.25599e-06
2.81229e-06
2.01065e-06
5.44279e-06
9.15412e-06
2.23278e-06
8.78973e-07
3.79916e-07
3.42617e-07
1
0.999998
0.999998
0.969091
0.0118966
4.53041e-05
1.73001e-05
6.6456e-06
1.50885e-06
7.38481e-07
7.17941e-07
6.98151e-07
5.0498e-06
1.73673e-05
1.7563e-05
7.44052e-06
5.06311e-07
5.0631e-07
5.07146e-07
4.09066e-06
2.82994e-05
6.53343e-05
6.60678e-05
4.13651e-05
5.57695e-06
1.46471e-06
8.17439e-07
4.94867e-06
2.25013e-05
3.39232e-05
3.39389e-05
2.65458e-05
3.65717e-06
1.06009e-06
2.2298e-06
1.62809e-05
3.58332e-05
3.5836e-05
3.5833e-05
3.58363e-05
2.62594e-05
1.37063e-05
2.39688e-05
2.01991e-05
1.06101e-05
2.82856e-05
2.82884e-05
2.7461e-05
1.38285e-05
1.04637e-05
1
0.999999
0.999997
0.999695
0.0818628
0.0121586
2.44041e-05
1.30967e-05
1.54649e-06
8.63519e-07
6.98098e-07
6.79552e-07
9.53374e-07
3.0382e-06
5.85016e-06
8.20628e-06
4.68422e-06
1.01718e-06
4.08924e-06
5.22932e-06
5.99899e-06
7.04833e-06
8.60233e-06
8.47285e-06
1.17736e-05
1.17737e-05
1.1682e-05
5.13696e-06
4.40361e-06
4.40392e-06
1.41275e-05
8.83436e-06
2.85504e-06
1.09491e-06
4.59957e-06
3.3177e-06
1.54686e-06
1.32874e-06
1.32847e-06
1.39035e-06
1.47534e-06
1.46405e-06
1.53133e-06
3.41555e-06
8.68415e-06
1.49499e-05
2.24661e-05
5.20179e-05
5.96255e-05
5.961e-05
1
1
0.999999
0.999997
0.99989
1.00003
0.204983
0.0299287
0.00731408
0.00307133
0.000855925
0.000354502
3.33989e-05
9.54056e-06
6.30965e-06
7.5099e-06
6.67132e-06
8.82846e-06
1.03561e-05
1.04265e-05
9.76831e-06
8.77585e-06
8.13785e-06
7.31888e-06
7.32086e-06
7.32092e-06
7.67778e-06
7.45367e-06
6.62514e-06
5.44481e-06
5.67635e-06
5.80159e-06
5.64049e-06
7.13674e-06
7.06118e-06
5.01907e-06
2.88347e-06
1.33857e-06
1.32849e-06
1.32852e-06
3.79786e-06
4.76682e-06
4.75312e-06
1.7046e-06
1.23948e-06
1.23926e-06
1.55795e-06
2.38473e-06
2.12926e-06
2.12959e-06
2.54592e-07
2.29247e-07
2.0812e-07
1.96877e-07
1.68659e-07
3.55144e-07
1.76505e-07
1.70154e-07
1.63532e-07
2.876e-07
1.64007e-07
1.6334e-07
1.62822e-07
1.6256e-07
1.62586e-07
1.62944e-07
1.63656e-07
1.64645e-07
1.64652e-07
2.00888e-07
1.61871e-07
1.63055e-07
1.6478e-07
1.65742e-07
1.58971e-07
2.52293e-07
1.54809e-07
1.54808e-07
3.06626e-07
1.56431e-07
1.62869e-07
1.66059e-07
1.56631e-07
3.11209e-07
1.56733e-07
1.61172e-07
1.36927e-07
3.08619e-07
1.5752e-07
1.55366e-07
1.52606e-07
1.49451e-07
1.47334e-07
1.45253e-07
1.45975e-07
1.43639e-07
1.34912e-07
1.76749e-07
1.66623e-07
1.62193e-07
2.66357e-07
2.54837e-07
1.95797e-07
4.43953e-07
2.11307e-07
1.86679e-07
1.73496e-07
1.68546e-07
1.6839e-07
1.66304e-07
1.64019e-07
1.63077e-07
1.63088e-07
1.63e-07
1.62696e-07
1.62501e-07
1.62589e-07
1.61855e-07
2.24085e-07
1.6157e-07
1.61612e-07
1.62853e-07
1.62556e-07
1.6114e-07
1.58944e-07
1.55187e-07
1.54076e-07
1.96363e-07
1.52259e-07
1.52261e-07
2.19597e-07
1.55361e-07
1.56561e-07
1.54077e-07
1.53399e-07
2.59693e-07
1.36769e-07
1.35968e-07
1.84598e-07
1.33002e-07
1.32639e-07
1.32679e-07
1.48889e-07
1.45182e-07
2.75679e-07
1.38976e-07
1.34006e-07
1.35685e-07
2.13837e-07
1.37654e-07
2.2491e-07
3.72001e-07
1.9558e-07
1.94853e-07
1.93355e-07
1.85785e-07
1.7831e-07
1.68556e-07
3.38303e-07
1.70762e-07
1.65716e-07
1.63083e-07
2.64809e-07
1.63559e-07
1.63223e-07
1.62503e-07
2.54475e-07
1.61855e-07
1.61339e-07
1.61206e-07
1.60498e-07
2.25531e-07
1.55152e-07
1.5474e-07
1.54037e-07
1.53506e-07
1.59626e-07
1.51991e-07
1.51911e-07
1.72997e-07
1.53996e-07
1.5497e-07
1.54959e-07
1.54143e-07
1.53399e-07
1.52252e-07
1.6524e-07
1.36172e-07
1.36108e-07
1.36304e-07
1.32668e-07
2.22724e-07
1.44416e-07
1.65108e-07
1.28512e-07
1.28225e-07
1.28124e-07
1.28196e-07
2.3782e-07
1.36895e-07
2.24811e-07
2.14666e-07
2.12732e-07
2.06835e-07
2.0171e-07
1.98046e-07
1.96201e-07
1.95906e-07
1.9593e-07
2.45181e-07
1.66114e-07
1.77966e-07
1.7803e-07
2.53773e-07
1.6373e-07
1.69848e-07
1.69882e-07
2.34536e-07
1.61754e-07
1.63965e-07
1.62776e-07
1.59668e-07
1.59051e-07
1.58085e-07
1.57029e-07
1.561e-07
1.55357e-07
1.54797e-07
1.54383e-07
1.53996e-07
1.5386e-07
1.53749e-07
1.53678e-07
1.53622e-07
1.53375e-07
1.52378e-07
1.49978e-07
1.46631e-07
1.44413e-07
1.44109e-07
1.4367e-07
1.43526e-07
1.43903e-07
1.45061e-07
1.55449e-07
1.28418e-07
1.28158e-07
2.07412e-07
1.36563e-07
1.36075e-07
2.35001e-07
2.32435e-07
2.29725e-07
2.26897e-07
2.24159e-07
2.21897e-07
2.20506e-07
2.20211e-07
2.19797e-07
2.16574e-07
2.10984e-07
2.10235e-07
2.11146e-07
2.09633e-07
2.0302e-07
2.00329e-07
2.00397e-07
1.99711e-07
1.9411e-07
1.89885e-07
1.86887e-07
1.84287e-07
1.81699e-07
1.79308e-07
1.77072e-07
1.74935e-07
1.72879e-07
1.70906e-07
1.69021e-07
1.67229e-07
1.65535e-07
1.63938e-07
1.62436e-07
1.61025e-07
1.59697e-07
1.58444e-07
1.57251e-07
1.56098e-07
1.54954e-07
1.53813e-07
1.52717e-07
1.51715e-07
1.50714e-07
1.49567e-07
1.4842e-07
1.47471e-07
1.4657e-07
1.45636e-07
1.45554e-07
1.45219e-07
3.14996e-07
3.11786e-07
3.08193e-07
3.04116e-07
2.99594e-07
2.94805e-07
2.89846e-07
2.84795e-07
2.79751e-07
2.74909e-07
2.70018e-07
2.65022e-07
2.60038e-07
2.55287e-07
2.50715e-07
2.46199e-07
2.41719e-07
2.37391e-07
2.33252e-07
2.29255e-07
2.25352e-07
2.2154e-07
2.17835e-07
2.14252e-07
2.10797e-07
2.07472e-07
2.04274e-07
2.01199e-07
1.9824e-07
1.95389e-07
1.9264e-07
1.89985e-07
1.87416e-07
1.84924e-07
1.82502e-07
1.80143e-07
1.7784e-07
1.7559e-07
1.73389e-07
1.71235e-07
1.69127e-07
1.67061e-07
1.65032e-07
1.63043e-07
1.61124e-07
1.59262e-07
1.5743e-07
1.556e-07
1.53802e-07
1.52053e-07
3.88741e-07
3.78307e-07
3.69346e-07
3.59686e-07
3.48892e-07
3.37304e-07
3.25423e-07
3.13649e-07
3.02229e-07
2.91288e-07
2.80876e-07
2.71004e-07
2.61666e-07
2.5285e-07
2.4454e-07
2.3672e-07
2.29373e-07
2.22484e-07
2.16036e-07
2.10012e-07
2.04396e-07
1.99169e-07
1.94316e-07
1.8982e-07
1.85664e-07
1.81834e-07
1.78313e-07
1.75089e-07
1.72147e-07
1.69474e-07
1.67058e-07
1.64886e-07
1.62942e-07
1.61208e-07
1.5966e-07
1.58274e-07
1.57021e-07
1.55877e-07
1.54819e-07
1.53826e-07
1.5288e-07
1.51963e-07
1.51055e-07
1.50135e-07
1.49188e-07
1.48202e-07
1.47175e-07
1.46113e-07
1.45023e-07
1.43915e-07
2.91211e-07
2.84663e-07
2.7886e-07
2.71112e-07
2.60594e-07
2.47873e-07
2.34029e-07
2.20042e-07
2.06565e-07
1.93938e-07
1.82285e-07
1.71608e-07
1.61857e-07
1.52959e-07
1.44839e-07
1.37431e-07
1.3067e-07
1.24502e-07
1.18876e-07
1.13747e-07
1.09075e-07
1.04822e-07
1.00956e-07
9.74434e-08
9.42576e-08
9.13721e-08
8.87631e-08
8.64086e-08
8.42882e-08
8.23834e-08
8.06772e-08
7.91539e-08
7.78021e-08
7.66133e-08
7.5586e-08
7.47218e-08
7.40272e-08
7.351e-08
7.31809e-08
7.30444e-08
7.31014e-08
7.33488e-08
7.37798e-08
7.43811e-08
7.51331e-08
7.60094e-08
7.69751e-08
7.79926e-08
7.90292e-08
8.00614e-08
1.8357e-07
1.69027e-07
1.53753e-07
1.38738e-07
1.24637e-07
1.11781e-07
1.00277e-07
9.00963e-08
8.11431e-08
7.32967e-08
6.64332e-08
6.0436e-08
5.51992e-08
5.06285e-08
4.66411e-08
4.31644e-08
4.01351e-08
3.74985e-08
3.52068e-08
3.32187e-08
3.14986e-08
3.00155e-08
2.87427e-08
2.76569e-08
2.6738e-08
2.59685e-08
2.53329e-08
2.48173e-08
2.44085e-08
2.40946e-08
2.38658e-08
2.3701e-08
2.36103e-08
2.35739e-08
2.36282e-08
2.37346e-08
2.39054e-08
2.40959e-08
2.43733e-08
2.46585e-08
2.49567e-08
2.52865e-08
2.57168e-08
2.62258e-08
2.68125e-08
2.75275e-08
2.8358e-08
2.93101e-08
3.03953e-08
3.15922e-08
6.01928e-08
4.98187e-08
4.12672e-08
3.42668e-08
2.85731e-08
2.39688e-08
2.02644e-08
1.72967e-08
1.4928e-08
1.30442e-08
1.15525e-08
1.03783e-08
9.4622e-09
8.75711e-09
8.22611e-09
7.84016e-09
7.57639e-09
7.4168e-09
7.34734e-09
7.3571e-09
7.43769e-09
7.58265e-09
7.78709e-09
8.04739e-09
8.36082e-09
8.72525e-09
9.13835e-09
9.59659e-09
1.00905e-08
1.06124e-08
1.11681e-08
1.16382e-08
1.22406e-08
1.26667e-08
1.36897e-08
1.44281e-08
1.56448e-08
1.62326e-08
1.81439e-08
1.89899e-08
1.96263e-08
2.00884e-08
2.17406e-08
2.29929e-08
2.37737e-08
2.56936e-08
2.67273e-08
2.75698e-08
2.91081e-08
3.0365e-08
1.46961e-08
1.09486e-08
8.16249e-09
6.15612e-09
4.75681e-09
3.81566e-09
3.21136e-09
2.84661e-09
2.64897e-09
2.56694e-09
2.56528e-09
2.62099e-09
2.7199e-09
2.8535e-09
3.01727e-09
3.20908e-09
3.42759e-09
3.67263e-09
3.94422e-09
4.24386e-09
4.57328e-09
4.93444e-09
5.32952e-09
5.76113e-09
6.23157e-09
6.74273e-09
7.29385e-09
7.87885e-09
8.46737e-09
9.05031e-09
9.67631e-09
9.88375e-09
1.06827e-08
9.31487e-09
1.33987e-08
1.1144e-08
1.8041e-08
1.19629e-08
2.77491e-08
2.15885e-08
1.97607e-08
1.51972e-08
2.81956e-08
2.86654e-08
2.14205e-08
5.20373e-08
3.15835e-08
2.86484e-08
4.68371e-08
5.0736e-08
7.07862e-09
4.96797e-09
3.48883e-09
2.50356e-09
1.88434e-09
1.52614e-09
1.34619e-09
1.28133e-09
1.2879e-09
1.33718e-09
1.41172e-09
1.50249e-09
1.606e-09
1.72157e-09
1.85075e-09
1.99483e-09
2.15412e-09
2.32988e-09
2.52062e-09
2.73017e-09
2.96073e-09
3.21446e-09
3.49347e-09
3.80089e-09
4.13803e-09
4.50635e-09
4.90279e-09
5.31475e-09
5.69124e-09
6.0412e-09
6.4641e-09
7.03018e-09
7.58273e-09
8.24829e-09
8.48932e-09
9.45221e-09
9.84094e-09
1.12259e-08
1.16247e-08
1.29108e-08
1.37176e-08
1.44705e-08
9.64353e-09
3.17739e-08
2.09904e-08
1.24914e-08
4.79869e-08
2.93056e-08
1.69767e-08
7.05305e-08
8.62197e-09
5.9997e-09
4.07848e-09
2.73972e-09
1.84654e-09
1.27948e-09
9.41895e-10
7.58863e-10
6.74857e-10
6.50835e-10
6.61402e-10
6.91554e-10
7.3352e-10
7.8394e-10
8.41613e-10
9.0601e-10
9.77093e-10
1.05584e-09
1.14304e-09
1.2396e-09
1.3469e-09
1.46642e-09
1.59942e-09
1.74811e-09
1.91278e-09
2.09756e-09
2.29947e-09
2.50726e-09
2.72435e-09
2.93075e-09
3.13737e-09
3.37312e-09
3.65526e-09
3.98565e-09
4.35924e-09
4.77472e-09
5.23457e-09
5.74165e-09
6.29802e-09
6.90526e-09
7.56012e-09
8.25039e-09
8.99341e-09
9.18186e-09
1.03503e-08
1.16978e-08
1.25773e-08
1.43027e-08
1.61536e-08
1.74144e-08
1.51068e-08
1.08981e-08
7.61994e-09
5.20481e-09
3.47606e-09
2.27287e-09
1.45862e-09
9.29706e-10
6.05099e-10
4.20561e-10
3.26941e-10
2.88314e-10
2.80544e-10
2.88893e-10
3.05445e-10
3.26584e-10
3.51003e-10
3.78464e-10
4.09169e-10
4.43536e-10
4.82126e-10
5.25596e-10
5.74523e-10
6.2921e-10
6.89961e-10
7.57882e-10
8.34033e-10
9.19671e-10
1.01623e-09
1.12379e-09
1.24345e-09
1.37678e-09
1.52577e-09
1.69845e-09
1.88536e-09
2.08856e-09
2.31328e-09
2.56328e-09
2.84383e-09
3.16056e-09
3.52013e-09
3.93349e-09
4.41391e-09
4.97433e-09
5.62146e-09
6.35128e-09
7.1533e-09
8.02154e-09
8.9645e-09
1.00077e-08
3.55781e-08
2.73365e-08
2.03202e-08
1.46931e-08
1.0398e-08
7.19734e-09
4.80336e-09
3.05724e-09
1.84294e-09
1.05055e-09
5.74537e-10
3.1502e-10
1.901e-10
1.39231e-10
1.23997e-10
1.23852e-10
1.29607e-10
1.37865e-10
1.47631e-10
1.58738e-10
1.71264e-10
1.85359e-10
2.01209e-10
2.19041e-10
2.39133e-10
2.61828e-10
2.87516e-10
3.16555e-10
3.49195e-10
3.8573e-10
4.26816e-10
4.73091e-10
5.2536e-10
5.84629e-10
6.51588e-10
7.2668e-10
8.11345e-10
9.07206e-10
1.01895e-09
1.14884e-09
1.2961e-09
1.47247e-09
1.68482e-09
1.9363e-09
2.22455e-09
2.54391e-09
2.88779e-09
3.25133e-09
3.63546e-09
4.0534e-09
8.83375e-08
7.21683e-08
5.89954e-08
4.43281e-08
3.30798e-08
2.45156e-08
1.76449e-08
1.20708e-08
7.74642e-09
4.60452e-09
2.51929e-09
1.25846e-09
5.8153e-10
2.64112e-10
1.3591e-10
9.24045e-11
8.12336e-11
8.07899e-11
8.36883e-11
8.78515e-11
9.28306e-11
9.85946e-11
1.05205e-10
1.12745e-10
1.21307e-10
1.30989e-10
1.41902e-10
1.54166e-10
1.67921e-10
1.83332e-10
2.00596e-10
2.1995e-10
2.41648e-10
2.65925e-10
2.9302e-10
3.23298e-10
3.57254e-10
3.95341e-10
4.38174e-10
4.87057e-10
5.43072e-10
6.08565e-10
6.86392e-10
7.8194e-10
8.87957e-10
1.00396e-09
1.1318e-09
1.27481e-09
1.43733e-09
1.62246e-09
2.21984e-07
1.70461e-07
1.85071e-07
1.31477e-07
1.01687e-07
7.82323e-08
6.09828e-08
4.53368e-08
3.15738e-08
2.02319e-08
1.18946e-08
6.27797e-09
2.94396e-09
1.23139e-09
4.762e-10
1.91405e-10
9.99503e-11
7.54435e-11
7.07264e-11
7.12391e-11
7.3256e-11
7.60168e-11
7.94386e-11
8.35697e-11
8.84806e-11
9.42465e-11
1.00946e-10
1.0866e-10
1.17474e-10
1.27479e-10
1.38771e-10
1.51458e-10
1.65659e-10
1.81511e-10
1.99177e-10
2.18845e-10
2.4072e-10
2.65008e-10
2.91945e-10
3.21848e-10
3.54929e-10
3.91623e-10
4.32387e-10
4.77535e-10
5.27841e-10
5.85227e-10
6.50455e-10
7.20526e-10
7.98103e-10
8.86216e-10
6.29838e-06
2.30704e-06
7.53036e-07
3.53912e-07
3.02603e-07
2.00687e-07
1.69918e-07
1.39585e-07
1.07628e-07
7.52781e-08
4.86398e-08
2.80206e-08
1.41482e-08
6.22051e-09
2.39063e-09
8.24522e-10
2.80765e-10
1.19829e-10
7.90398e-11
7.0236e-11
6.88939e-11
6.93408e-11
7.0525e-11
7.2343e-11
7.48548e-11
7.81436e-11
8.22959e-11
8.73996e-11
9.35446e-11
1.00825e-10
1.09338e-10
1.19189e-10
1.30492e-10
1.4337e-10
1.57954e-10
1.74383e-10
1.9281e-10
2.13431e-10
2.36443e-10
2.61978e-10
2.9023e-10
3.21435e-10
3.55846e-10
3.93542e-10
4.34841e-10
4.80085e-10
5.30004e-10
5.85232e-10
6.43652e-10
7.07172e-10
5.23065e-05
5.20669e-05
3.63285e-05
1.1557e-05
1.55493e-06
4.03726e-07
3.37072e-07
3.1485e-07
2.83323e-07
2.16823e-07
1.58056e-07
1.02008e-07
5.696e-08
2.72895e-08
1.12174e-08
3.98286e-09
1.25119e-09
3.79118e-10
1.41747e-10
8.57293e-11
7.35679e-11
7.05918e-11
6.95162e-11
6.91197e-11
6.93095e-11
7.01656e-11
7.17878e-11
7.42761e-11
7.77298e-11
8.22501e-11
8.79423e-11
9.49181e-11
1.03299e-10
1.1322e-10
1.24831e-10
1.38279e-10
1.53705e-10
1.71306e-10
1.91284e-10
2.13767e-10
2.39025e-10
2.67296e-10
2.98996e-10
3.34185e-10
3.73144e-10
4.1655e-10
4.63572e-10
5.14934e-10
5.71019e-10
6.32157e-10
1.18529e-05
0.000101477
0.000145193
0.000118803
3.53099e-05
3.18038e-06
3.37925e-07
3.70562e-07
4.80559e-07
3.82148e-07
3.2348e-07
2.4549e-07
1.58887e-07
8.66075e-08
3.98116e-08
1.55291e-08
5.19306e-09
1.52782e-09
4.32895e-10
1.54248e-10
9.23188e-11
7.89699e-11
7.49928e-11
7.27665e-11
7.11324e-11
7.0037e-11
6.95802e-11
6.98724e-11
7.10199e-11
7.31266e-11
7.62981e-11
8.06439e-11
8.62807e-11
9.33398e-11
1.01968e-10
1.12327e-10
1.24551e-10
1.38841e-10
1.55409e-10
1.74405e-10
1.96089e-10
2.20715e-10
2.48554e-10
2.79893e-10
3.15039e-10
3.54315e-10
3.98075e-10
4.46677e-10
5.00513e-10
5.60015e-10
1.70278e-07
1.68098e-07
1.58333e-07
1.5211e-07
1.50435e-07
1.49661e-07
1.49062e-07
1.46517e-07
1.42463e-07
2.2113e-07
1.8867e-07
1.31362e-07
1.30813e-07
1.26589e-07
1.19538e-07
2.46087e-07
4.76282e-07
1.88436e-07
9.99622e-08
2.35895e-07
1.33091e-07
9.74969e-08
9.70049e-08
9.59619e-08
9.51701e-08
9.35268e-08
8.93263e-08
2.83284e-07
1.63132e-07
7.06836e-08
1.90402e-07
1.26313e-07
6.69933e-08
6.80111e-08
7.01153e-08
7.17357e-08
7.23528e-08
7.17396e-08
9.69377e-08
2.9737e-07
2.62691e-07
1.07425e-07
5.04743e-08
2.14733e-07
4.85208e-07
1.95174e-07
5.02485e-08
4.90772e-08
5.08814e-08
5.32403e-08
5.58746e-08
5.83954e-08
5.91284e-08
5.89901e-08
5.84098e-08
5.72009e-08
5.65213e-08
5.52346e-08
5.42249e-08
5.42735e-08
5.48897e-08
5.49428e-08
5.42769e-08
5.27742e-08
5.04617e-08
4.8015e-08
8.81199e-08
1.40397e-06
6.99345e-06
7.30636e-06
6.61673e-06
2.17481e-06
2.02154e-07
2.742e-08
2.886e-08
2.99219e-08
3.06699e-08
3.12437e-08
3.15672e-08
3.17257e-08
5.28148e-08
2.62895e-07
1.40732e-07
3.89215e-08
3.99857e-08
4.31169e-08
4.59671e-08
4.82693e-08
5.03627e-08
5.13565e-08
5.15087e-08
5.13545e-08
4.99507e-08
4.97072e-08
6.23601e-08
4.60964e-07
4.38163e-06
2.63743e-06
5.98567e-07
6.4917e-08
5.90998e-08
5.90394e-08
5.89807e-08
5.8611e-08
5.81399e-08
5.84023e-08
9.3837e-08
1.00513e-06
1.84371e-06
8.205e-07
1.21541e-07
3.54633e-08
3.48363e-08
3.41884e-08
3.36777e-08
3.33848e-08
3.33161e-08
3.34671e-08
3.3828e-08
3.43814e-08
3.5103e-08
3.59674e-08
3.69491e-08
3.8017e-08
3.91447e-08
4.03247e-08
4.15376e-08
4.27542e-08
4.39553e-08
4.51332e-08
4.62797e-08
4.73856e-08
4.84425e-08
4.94438e-08
5.03853e-08
5.12643e-08
5.20783e-08
5.28254e-08
5.35041e-08
5.41135e-08
5.46529e-08
5.51221e-08
5.55212e-08
5.58509e-08
5.61119e-08
5.63055e-08
5.64333e-08
5.64969e-08
5.64986e-08
5.64405e-08
5.63253e-08
5.61556e-08
5.59341e-08
5.56639e-08
5.53479e-08
5.49892e-08
5.45908e-08
5.41558e-08
5.36875e-08
5.31887e-08
5.26626e-08
5.21122e-08
5.15275e-08
5.09513e-08
5.02557e-08
4.98911e-08
4.94891e-08
4.90514e-08
4.85684e-08
4.80575e-08
4.78087e-08
4.74636e-08
4.69395e-08
4.65577e-08
4.62308e-08
4.25353e-08
5.73748e-08
4.49728e-08
4.45447e-08
4.37395e-08
4.29047e-08
4.20995e-08
4.13502e-08
4.06451e-08
3.99573e-08
3.92684e-08
3.85769e-08
3.71826e-08
3.80574e-08
3.74223e-08
3.67844e-08
3.59059e-08
3.52739e-08
3.50596e-08
3.48987e-08
3.45344e-08
3.39946e-08
3.33957e-08
3.28116e-08
3.2266e-08
3.17608e-08
3.12936e-08
3.08626e-08
3.0467e-08
3.01062e-08
2.97796e-08
2.94864e-08
2.92251e-08
2.89939e-08
2.87899e-08
2.86093e-08
2.84474e-08
2.83e-08
2.81641e-08
2.80392e-08
2.79271e-08
2.78311e-08
2.77546e-08
2.77006e-08
2.76717e-08
2.767e-08
2.7697e-08
2.77499e-08
2.78205e-08
2.78966e-08
2.79674e-08
2.80272e-08
2.80673e-08
2.80527e-08
2.78968e-08
2.74863e-08
2.67933e-08
2.69091e-08
2.70145e-08
2.70198e-08
2.69197e-08
2.67241e-08
2.64681e-08
2.62102e-08
2.5999e-08
2.58397e-08
2.56908e-08
2.54853e-08
2.51531e-08
2.46369e-08
2.396e-08
2.32356e-08
2.25772e-08
2.20276e-08
2.15664e-08
2.11532e-08
2.07561e-08
2.03574e-08
1.99487e-08
1.95254e-08
1.90841e-08
1.86226e-08
1.81394e-08
1.76339e-08
1.71068e-08
1.65594e-08
1.59939e-08
1.54127e-08
1.48187e-08
1.4215e-08
1.36049e-08
1.2992e-08
1.23798e-08
1.1772e-08
1.11723e-08
1.05843e-08
1.00115e-08
9.45722e-09
8.92453e-09
8.41635e-09
7.93533e-09
7.48394e-09
7.06443e-09
6.6789e-09
6.32933e-09
6.01762e-09
5.74564e-09
5.51533e-09
5.32868e-09
5.18789e-09
5.0954e-09
5.05401e-09
5.06695e-09
5.13802e-09
5.27172e-09
5.47353e-09
5.7509e-09
6.11249e-09
6.56817e-09
7.12942e-09
7.80777e-09
8.61493e-09
9.56206e-09
1.06585e-08
1.19052e-08
1.41564e-07
1.40838e-07
1.39776e-07
1.46083e-07
1.49154e-07
1.47587e-07
1.88666e-07
1.43282e-07
1.42435e-07
2.20749e-07
1.39862e-07
1.36954e-07
1.46309e-07
1.55947e-07
1.55602e-07
3.35784e-07
4.79114e-07
4.7712e-07
2.70759e-07
1.81762e-07
1.13268e-07
1.11894e-07
1.54635e-07
1.76072e-07
1.14848e-07
1.17479e-07
1.13163e-07
2.89461e-07
4.21271e-07
4.19566e-07
1.88638e-07
9.49583e-08
9.41611e-08
9.45316e-08
1.20058e-07
5.2952e-07
5.27239e-07
1.79138e-07
1.00513e-07
1.01786e-07
1.02032e-07
8.52705e-08
7.04019e-08
5.32122e-07
7.5094e-07
7.02486e-07
2.26172e-07
5.02605e-08
5.4975e-08
5.8468e-08
6.10196e-08
6.2651e-08
6.36196e-08
6.32928e-08
8.17746e-08
7.20766e-07
1.0794e-06
1.08594e-06
5.24393e-07
8.57929e-08
5.53329e-08
5.62533e-08
5.5231e-08
7.7666e-08
5.39174e-07
3.82325e-06
5.81294e-06
5.80538e-06
5.5022e-06
2.41221e-06
7.51587e-07
1.7263e-07
3.71801e-08
3.60305e-08
3.60283e-08
3.68064e-08
3.75074e-08
3.80963e-08
3.83137e-08
3.78003e-08
1.00474e-07
7.85684e-07
4.5024e-07
9.45622e-08
4.05776e-08
4.33726e-08
4.56828e-08
4.73225e-08
4.86304e-08
4.96487e-08
5.04109e-08
5.07962e-08
5.01208e-08
4.97094e-08
4.97384e-08
3.45214e-07
4.27561e-06
7.21252e-06
5.47837e-06
1.55075e-06
1.35414e-07
5.87013e-08
5.81856e-08
5.81994e-08
5.81285e-08
5.81272e-08
8.09693e-08
1.44313e-06
1.44822e-05
8.69442e-06
2.06453e-06
1.47598e-07
3.22806e-08
3.15981e-08
3.07762e-08
2.9972e-08
2.92975e-08
2.87836e-08
2.84452e-08
2.82902e-08
2.83182e-08
2.85219e-08
2.88878e-08
2.9398e-08
3.00321e-08
3.07703e-08
3.1592e-08
3.24772e-08
3.34078e-08
3.43687e-08
3.53465e-08
3.63302e-08
3.73105e-08
3.82797e-08
3.92319e-08
4.01619e-08
4.10656e-08
4.19392e-08
4.27796e-08
4.35839e-08
4.43494e-08
4.50738e-08
4.57548e-08
4.63906e-08
4.69794e-08
4.75199e-08
4.80109e-08
4.84517e-08
4.88418e-08
4.9181e-08
4.94697e-08
4.97082e-08
4.98975e-08
5.00384e-08
5.01323e-08
5.01807e-08
5.01851e-08
5.01475e-08
5.00698e-08
4.99539e-08
4.9802e-08
4.96163e-08
4.93979e-08
4.91519e-08
4.88706e-08
4.85905e-08
4.83094e-08
4.80251e-08
4.7735e-08
4.74378e-08
4.71591e-08
4.68888e-08
4.66098e-08
4.63412e-08
4.60871e-08
4.55735e-08
4.62228e-08
4.59475e-08
4.56302e-08
4.52708e-08
4.48738e-08
4.44486e-08
4.40038e-08
4.35438e-08
4.30695e-08
4.25819e-08
4.20836e-08
4.1522e-08
4.10887e-08
4.06531e-08
4.02146e-08
3.97414e-08
3.92842e-08
3.88827e-08
3.85125e-08
3.81397e-08
3.77549e-08
3.73646e-08
3.69761e-08
3.65935e-08
3.62186e-08
3.58522e-08
3.54952e-08
3.51485e-08
3.48129e-08
3.44896e-08
3.41791e-08
3.3882e-08
3.3598e-08
3.33269e-08
3.30693e-08
3.28281e-08
3.26086e-08
3.24159e-08
3.22445e-08
3.20647e-08
3.17182e-08
3.17351e-08
3.16031e-08
3.20194e-08
3.22211e-08
3.22945e-08
3.22849e-08
3.223e-08
3.21808e-08
3.21897e-08
3.2269e-08
3.23056e-08
3.22455e-08
3.08672e-08
2.75623e-08
4.13201e-08
3.9531e-08
3.7206e-08
3.61028e-08
3.52439e-08
3.44952e-08
3.40787e-08
3.41409e-08
3.48481e-08
3.55974e-08
3.58624e-08
3.54195e-08
3.39825e-08
3.15538e-08
3.02573e-08
3.1179e-08
3.23221e-08
3.28496e-08
3.25347e-08
3.1569e-08
3.02422e-08
2.87781e-08
2.73221e-08
2.59665e-08
2.47627e-08
2.37269e-08
2.28483e-08
2.2101e-08
2.1454e-08
2.08762e-08
2.03396e-08
1.98201e-08
1.92995e-08
1.8765e-08
1.82092e-08
1.76294e-08
1.70263e-08
1.64024e-08
1.57619e-08
1.51096e-08
1.44505e-08
1.37897e-08
1.31323e-08
1.24831e-08
1.18466e-08
1.12273e-08
1.06289e-08
1.00549e-08
9.50864e-09
8.99278e-09
8.50981e-09
8.06188e-09
7.65092e-09
7.27861e-09
6.94654e-09
6.65618e-09
6.40902e-09
6.2066e-09
6.05064e-09
5.9431e-09
5.88639e-09
5.88349e-09
5.93815e-09
6.05524e-09
6.24184e-09
6.50697e-09
6.86177e-09
7.31916e-09