/*--------------------------------*- C++ -*----------------------------------*\
| =========                 |                                                 |
| \\      /  F ield         | OpenFOAM: The Open Source CFD Toolbox           |
|  \\    /   O peration     | Version:  2.4.0                                 |
|   \\  /    A nd           | Web:      www.OpenFOAM.org                      |
|    \\/     M anipulation  |                                                 |
\*---------------------------------------------------------------------------*/
FoamFile
{
    version     2.0;
    format      ascii;
    class       volScalarField;
    location    "5";
    object      H;
}
// * * * * * * * * * * * * * * * * * * * * * * * * * * * * * * * * * * * * * //

dimensions      [0 2 -2 0 0 0 0];

internalField   nonuniform List<scalar> 
8000
(
-11939.1
-11355.6
-10767.4
-10171.5
-9565.74
-8948.08
-8316.99
-7671.37
-7010.56
-6334.35
-5642.99
-4937.26
-4218.87
-3491.04
-2759.49
-2033.32
-1324.72
-646.527
-1.10447
-0.974328
-1.08156
-1.21162
-1.33162
-1.44177
-1.54117
-1.62868
-1.70319
-1.76378
-1.80978
-1.84095
-1.85767
-1.86064
-1.85085
-1.8295
-1.79798
-1.75773
-1.7102
-1.65682
-1.5989
-1.53766
-1.47419
-1.40944
-1.34423
-1.27925
-1.21508
-1.15222
-1.09105
-1.03188
-0.974955
-0.920473
-11928.2
-11322.7
-10711.4
-10091.3
-9459.59
-8814.3
-8153.86
-7477.35
-6784.39
-6075.05
-5349.71
-4608.87
-3853.18
-3084.04
-2305.19
-1525.86
-766.148
-0.982099
-0.94044
-1.05762
-1.25183
-1.43225
-1.59762
-1.74627
-1.87662
-1.98737
-2.07764
-2.14694
-2.19557
-2.22448
-2.23498
-2.22871
-2.20751
-2.17336
-2.12827
-2.07419
-2.01298
-1.94631
-1.87572
-1.80254
-1.72792
-1.65284
-1.5781
-1.50439
-1.43223
-1.36207
-1.29425
-1.22901
-1.16657
-1.10707
-11914.5
-11281.5
-10642.3
-9993.57
-9332.58
-8657.19
-7965.97
-7258.32
-6534.45
-5795.4
-5042.83
-4278.39
-3502.21
-2709.37
-1883.28
-989.201
-1.05595
-0.0114045
-0.43951
-0.886416
-1.288
-1.63736
-1.93316
-2.17731
-2.37351
-2.52617
-2.63978
-2.7186
-2.76651
-2.78713
-2.784
-2.76049
-2.7198
-2.66501
-2.59897
-2.52429
-2.44333
-2.35812
-2.27042
-2.1817
-2.09316
-2.00576
-1.92027
-1.83727
-1.75719
-1.68034
-1.60694
-1.53712
-1.47096
-1.40848
-11898.5
-11233.4
-10562.2
-9881.52
-9188.59
-8481.36
-7758.48
-7019.31
-6264.03
-5493.74
-4710.67
-3918.65
-3123.71
-2334.82
-1564.33
-827.944
-1.68006
-1.4532
-1.71528
-1.95714
-2.18911
-2.40807
-2.60935
-2.78903
-2.94422
-3.07303
-3.17451
-3.24865
-3.29627
-3.31896
-3.31891
-3.29875
-3.26132
-3.20955
-3.14627
-3.07415
-2.99557
-2.91263
-2.82714
-2.74056
-2.65414
-2.56885
-2.48545
-2.40452
-2.32646
-2.25158
-2.18004
-2.11196
-2.04736
-1.98624
-11881.4
-11182.4
-10477.7
-9764.47
-9040.25
-8303.32
-7552.49
-6786.9
-6005.73
-5207.9
-4391.92
-3556.11
-2699.48
-1823.05
-930.904
-1.03915
-1.02717
-1.38167
-1.77508
-2.14167
-2.48033
-2.78893
-3.06539
-3.30799
-3.51572
-3.68838
-3.82658
-3.93172
-4.00587
-4.05164
-4.07206
-4.07032
-4.04971
-4.01338
-3.96433
-3.90527
-3.83862
-3.76647
-3.6906
-3.61251
-3.53341
-3.45428
-3.37581
-3.29853
-3.22282
-3.14905
-3.07745
-3.00817
-2.94129
-2.87684
-11865.5
-11134.9
-10399.8
-9657.78
-8907.07
-8146.58
-7376.04
-6596.03
-5807.97
-5014
-4216.71
-3418.65
-2621.57
-1825.55
-1028.17
-1.83247
-1.68392
-2.18768
-2.64315
-3.06641
-3.4559
-3.80854
-4.12183
-4.3942
-4.62503
-4.81462
-4.96412
-5.0755
-5.15141
-5.19504
-5.20997
-5.19988
-5.16847
-5.11925
-5.05544
-4.97994
-4.89528
-4.80341
-4.70602
-4.60471
-4.50079
-4.3954
-4.28955
-4.18408
-4.07967
-3.97684
-3.87602
-3.77757
-3.68176
-3.5888
-11852.2
-11095.6
-10336.4
-9573.05
-8804.58
-8030.58
-7251.44
-6468.5
-5684.22
-4902.02
-4125.92
-3359.39
-2603.52
-1854.42
-1100.57
-2.97107
-2.73826
-3.37054
-3.92879
-4.43793
-4.89757
-5.30513
-5.65853
-5.95656
-6.19882
-6.38606
-6.52006
-6.60358
-6.64024
-6.63426
-6.59031
-6.51316
-6.40756
-6.27802
-6.12888
-5.96418
-5.78763
-5.60273
-5.41261
-5.21993
-5.02691
-4.83547
-4.64712
-4.46315
-4.28452
-4.11201
-3.94615
-3.78733
-3.63576
-3.49155
-11838.5
-11055.1
-10270.6
-9483.9
-8694.13
-7900.68
-7103.59
-6304.02
-5504.85
-4711.14
-3930.03
-3169.31
-2434.06
-1721.43
-1014.68
-2.56716
-2.47999
-3.24663
-3.93296
-4.5574
-5.11738
-5.60956
-6.03111
-6.38001
-6.65527
-6.85723
-6.9877
-7.04994
-7.04864
-6.98968
-6.87983
-6.72645
-6.53707
-6.31912
-6.07966
-5.82519
-5.5615
-5.29373
-5.02573
-4.76125
-4.50303
-4.25331
-4.01352
-3.78492
-3.56811
-3.36355
-3.17123
-2.99109
-2.82275
-2.66582
-11833.9
-11042.5
-10252.8
-9465.21
-8679.44
-7895
-7111.3
-6328.11
-5546.19
-4767.85
-3997.23
-3239.05
-2495.02
-1756.99
-998.379
-1.70525
-1.6299
-2.26407
-2.84527
-3.37549
-3.84971
-4.26299
-4.61208
-4.89525
-5.11202
-5.26317
-5.35076
-5.37824
-5.35039
-5.27308
-5.15313
-4.99781
-4.81446
-4.60974
-4.39052
-4.16256
-3.93093
-3.69989
-3.47287
-3.25251
-3.04079
-2.8391
-2.64829
-2.46883
-2.30086
-2.14425
-1.99871
-1.86379
-1.73896
-1.62363
-11832.3
-11038.2
-10247.5
-9461.49
-8680.84
-7905.74
-7136.2
-6372.29
-5614.25
-4862.29
-4115.8
-3371.44
-2619.75
-1840.41
-1008.95
-215.796
-1.9922
-1.69151
-1.8223
-2.06711
-2.34935
-2.61874
-2.84854
-3.02975
-3.16227
-3.24906
-3.29364
-3.2996
-3.27073
-3.21124
-3.12572
-3.01901
-2.8956
-2.7603
-2.61723
-2.47013
-2.32218
-2.17596
-2.03351
-1.89634
-1.76551
-1.64167
-1.52516
-1.4161
-1.31438
-1.21977
-1.13197
-1.0506
-0.975265
-0.90556
-11826.8
-11021.9
-10221.4
-9427.21
-8640.37
-7861.61
-7091.44
-6330.28
-5578.44
-4835.99
-4102.99
-3380.51
-2673.21
-1991.91
-1350.92
-751.403
-1.4961
-1.51983
-1.49268
-1.66252
-1.81005
-1.93393
-2.03394
-2.11012
-2.16268
-2.19211
-2.19911
-2.18489
-2.15113
-2.10016
-2.03474
-1.95756
-1.87173
-1.78002
-1.68502
-1.58892
-1.49355
-1.4003
-1.31019
-1.2239
-1.1418
-1.06407
-0.990742
-0.921735
-0.856888
-0.796005
-0.738878
-0.685301
-0.635079
-0.588029
-11814.7
-10983.9
-10153.6
-9324.57
-8498.24
-7676.31
-6861.13
-6055.74
-5263.76
-4489.21
-3736.38
-3009.97
-2314.8
-1655.92
-1040.79
-435.199
-0.756124
-0.855664
-0.904298
-1.07619
-1.22626
-1.35222
-1.45344
-1.52994
-1.58235
-1.61198
-1.62083
-1.61132
-1.58617
-1.54827
-1.50052
-1.44556
-1.38575
-1.32308
-1.25914
-1.1951
-1.13179
-1.06974
-1.00929
-0.950597
-0.893742
-0.838744
-0.785602
-0.734314
-0.684884
-0.637329
-0.591682
-0.54798
-0.506269
-0.466593
-11773.8
-10857.6
-9932.75
-8997.65
-8053.71
-7104.84
-6157.47
-5220.35
-4303.75
-3417.8
-2570.76
-1775.03
-1025.99
-292.138
-0.344636
-0.012322
-0.16619
-0.361813
-0.539006
-0.704248
-0.850336
-0.975551
-1.07927
-1.16173
-1.22368
-1.26657
-1.29259
-1.30385
-1.30255
-1.29091
-1.27084
-1.24404
-1.2118
-1.17522
-1.13518
-1.09236
-1.04734
-1.0006
-0.952567
-0.903617
-0.854114
-0.804403
-0.754816
-0.705672
-0.657272
-0.609902
-0.563822
-0.519271
-0.476458
-0.435563
-11703.3
-10643.6
-9567.94
-8471.41
-7354.67
-6223.24
-5088.14
-3965.74
-2883.24
-1866.34
-837.744
-131.323
-0.165532
-0.0143882
-0.223045
-0.393903
-0.573935
-0.741398
-0.890776
-1.02067
-1.13033
-1.21959
-1.28926
-1.34078
-1.37552
-1.39571
-1.40373
-1.40147
-1.3907
-1.37304
-1.34992
-1.32257
-1.29146
-1.25648
-1.21779
-1.17571
-1.1307
-1.08323
-1.03375
-0.982673
-0.930404
-0.877333
-0.823838
-0.770279
-0.717013
-0.664387
-0.612737
-0.562387
-0.513644
-0.466791
-11583.6
-10279.3
-8947.79
-7581.63
-6183.93
-4769.96
-3349.04
-1892.93
-455.629
-85.527
-0.309138
-0.0119939
-0.251248
-0.448687
-0.650659
-0.842021
-1.01569
-1.16741
-1.30036
-1.41411
-1.50898
-1.58595
-1.64637
-1.69104
-1.72206
-1.74153
-1.7505
-1.74955
-1.73947
-1.72102
-1.69502
-1.66233
-1.62425
-1.58247
-1.53726
-1.48881
-1.43778
-1.38486
-1.33014
-1.27347
-1.21477
-1.15407
-1.09148
-1.0272
-0.961592
-0.895149
-0.828428
-0.761992
-0.696402
-0.632235
-11356.5
-9587.8
-7770.88
-5895.64
-3961.36
-1996.85
-410.626
-1.37344
-0.063896
-0.0596968
-0.446063
-0.769975
-1.03916
-1.25095
-1.41934
-1.57025
-1.70775
-1.83064
-1.93888
-2.03267
-2.11259
-2.17813
-2.23157
-2.27333
-2.30627
-2.32907
-2.34121
-2.34248
-2.33313
-2.31389
-2.28583
-2.24998
-2.20821
-2.16182
-2.11322
-2.06482
-2.01827
-1.97206
-1.92524
-1.87434
-1.81773
-1.75392
-1.68231
-1.6028
-1.51603
-1.42371
-1.32766
-1.2291
-1.12897
-1.02842
-11047.2
-8657.62
-6196.99
-3567
-435.087
-3.24783
-0.484789
-0.590347
-0.858879
-1.11698
-1.36394
-1.59256
-1.80501
-2.00115
-2.18153
-2.34924
-2.50731
-2.65497
-2.79144
-2.91601
-3.02877
-3.13075
-3.22084
-3.30101
-3.3714
-3.43087
-3.48111
-3.51942
-3.54508
-3.55871
-3.56222
-3.55657
-3.54193
-3.52164
-3.49525
-3.46399
-3.4296
-3.39477
-3.35641
-3.30824
-3.24737
-3.16898
-3.06923
-2.95009
-2.81088
-2.65475
-2.48882
-2.31631
-2.13736
-1.95413
-10767.5
-7724.47
-4234.13
-4.60572
-0.171564
-1.34352
-2.27655
-2.884
-3.1857
-3.27331
-3.2924
-3.32237
-3.39203
-3.50837
-3.66344
-3.84597
-4.04466
-4.24938
-4.45166
-4.64619
-4.83058
-5.00212
-5.15615
-5.29529
-5.42257
-5.54479
-5.65987
-5.76789
-5.87012
-5.96551
-6.05513
-6.14295
-6.22934
-6.31679
-6.40094
-6.48022
-6.53955
-6.56216
-6.54397
-6.48147
-6.37674
-6.23259
-6.05667
-5.83881
-5.58547
-5.3053
-4.99431
-4.65762
-4.30019
-3.93263
-10867.2
-8151.52
-5445.68
-2669.26
-18.2408
-2.05437
-4.59769
-7.2267
-8.23218
-8.24339
-7.89731
-7.48251
-7.11775
-6.84889
-6.6854
-6.61758
-6.62671
-6.69413
-6.80286
-6.94078
-7.10253
-7.28518
-7.48619
-7.70048
-7.92978
-8.17322
-8.43191
-8.70227
-8.98572
-9.28127
-9.58639
-9.88814
-10.1875
-10.48
-10.7564
-11.0023
-11.2207
-11.4141
-11.5604
-11.6402
-11.6427
-11.5629
-11.3994
-11.1474
-10.8068
-10.3802
-9.87014
-9.28479
-8.62424
-7.90311
-11174.4
-9061.43
-6950.44
-4878.19
-2954.39
-1656.86
-6.14498
-339.305
-257.121
-167.57
-114.222
-83.7464
-64.1786
-50.9729
-41.7889
-35.5215
-31.4481
-28.755
-26.8814
-25.3868
-24.16
-23.1378
-22.2796
-21.5626
-20.979
-20.5214
-20.1793
-19.9444
-19.8082
-19.7591
-19.7817
-19.8583
-19.9756
-20.1215
-20.2773
-20.4226
-20.5343
-20.5885
-20.5704
-20.4688
-20.2778
-19.9715
-19.5283
-18.932
-18.1775
-17.2648
-16.2026
-15.0212
-13.761
-12.4672
-0.868574
-0.819362
-0.772908
-0.729253
-0.688416
-0.650397
-0.61517
-0.582703
-0.552943
-0.525824
-0.501262
-0.479168
-0.459437
-0.441952
-0.426592
-0.413225
-0.401714
-0.391918
-0.383694
-0.376897
-0.371381
-0.367002
-0.363617
-0.361089
-0.359283
-0.358071
-0.357322
-0.356911
-0.356703
-0.35658
-0.356438
-0.356176
-0.355698
-0.354919
-0.353754
-0.35213
-0.349978
-0.34724
-0.343862
-0.339805
-0.335034
-0.329525
-0.323267
-0.316259
-0.308515
-0.30007
-0.290984
-0.281355
-0.271338
-0.261185
-1.05061
-0.997246
-0.947018
-0.899941
-0.85599
-0.815154
-0.77739
-0.742644
-0.710847
-0.681923
-0.655782
-0.632328
-0.611454
-0.593045
-0.57698
-0.563127
-0.551352
-0.541514
-0.533473
-0.527078
-0.522179
-0.518609
-0.51618
-0.514727
-0.514087
-0.514104
-0.514625
-0.515506
-0.516617
-0.517819
-0.518976
-0.519953
-0.520624
-0.520869
-0.520575
-0.519638
-0.517959
-0.515457
-0.512057
-0.507696
-0.502329
-0.495918
-0.488444
-0.479903
-0.470309
-0.459691
-0.448111
-0.435662
-0.422487
-0.408815
-1.34967
-1.29449
-1.24286
-1.19472
-1.14999
-1.10855
-1.0703
-1.03513
-1.00292
-0.973552
-0.946906
-0.922857
-0.90128
-0.882039
-0.864998
-0.849997
-0.836893
-0.825538
-0.815794
-0.807517
-0.800564
-0.794808
-0.790139
-0.786425
-0.783528
-0.78131
-0.779636
-0.778366
-0.777364
-0.776493
-0.775614
-0.774591
-0.77329
-0.771576
-0.76932
-0.766396
-0.762687
-0.75808
-0.752472
-0.745773
-0.7379
-0.728788
-0.718379
-0.706638
-0.693536
-0.679069
-0.663251
-0.646126
-0.627789
-0.608405
-1.92853
-1.87414
-1.82296
-1.77487
-1.72974
-1.68744
-1.64783
-1.61077
-1.57613
-1.54376
-1.51353
-1.4853
-1.45893
-1.43431
-1.41131
-1.38985
-1.36982
-1.35111
-1.33361
-1.31724
-1.3019
-1.28748
-1.27391
-1.26108
-1.24893
-1.23735
-1.22628
-1.21562
-1.20529
-1.19521
-1.1853
-1.17548
-1.16564
-1.1557
-1.14557
-1.13515
-1.12433
-1.11301
-1.10108
-1.08843
-1.07495
-1.06054
-1.04508
-1.02849
-1.01068
-0.991564
-0.97109
-0.949203
-0.925869
-0.901113
-2.81483
-2.75525
-2.69804
-2.64315
-2.59049
-2.53999
-2.49155
-2.44509
-2.4005
-2.3577
-2.31659
-2.27708
-2.23908
-2.20252
-2.1673
-2.13336
-2.1006
-2.06897
-2.03839
-2.00879
-1.98012
-1.9523
-1.92527
-1.89899
-1.87339
-1.84841
-1.824
-1.80011
-1.77669
-1.75368
-1.73104
-1.70872
-1.68666
-1.66482
-1.64315
-1.6216
-1.60012
-1.57866
-1.55716
-1.53557
-1.51383
-1.49186
-1.4696
-1.44696
-1.42385
-1.40017
-1.37581
-1.35063
-1.32453
-1.29737
-3.49886
-3.41203
-3.32841
-3.24801
-3.17086
-3.09692
-3.02615
-2.9585
-2.89389
-2.83223
-2.77342
-2.71737
-2.66396
-2.6131
-2.56468
-2.51858
-2.47471
-2.43295
-2.39321
-2.35537
-2.31935
-2.28503
-2.25233
-2.22114
-2.19137
-2.16292
-2.1357
-2.10962
-2.08457
-2.06047
-2.03722
-2.01472
-1.9929
-1.97164
-1.95088
-1.9305
-1.91044
-1.89061
-1.87093
-1.85132
-1.83172
-1.81206
-1.79228
-1.77232
-1.75212
-1.73165
-1.71086
-1.6897
-1.66815
-1.64621
-3.35469
-3.22509
-3.10262
-2.98708
-2.87823
-2.77581
-2.67956
-2.58918
-2.5044
-2.42494
-2.35051
-2.28086
-2.21573
-2.15488
-2.09808
-2.0451
-1.99575
-1.94984
-1.90719
-1.86762
-1.83099
-1.79716
-1.76597
-1.73732
-1.71107
-1.68711
-1.66534
-1.64565
-1.62793
-1.61209
-1.59802
-1.58563
-1.5748
-1.56544
-1.55743
-1.55065
-1.54499
-1.54031
-1.53649
-1.5334
-1.53089
-1.52883
-1.52708
-1.5255
-1.52396
-1.52236
-1.52057
-1.51851
-1.51609
-1.51323
-2.51978
-2.38405
-2.25804
-2.14114
-2.03276
-1.93231
-1.83924
-1.75301
-1.67314
-1.59914
-1.5306
-1.46712
-1.40832
-1.35387
-1.30345
-1.25679
-1.21362
-1.17371
-1.13683
-1.10278
-1.07139
-1.04248
-1.0159
-0.991527
-0.969222
-0.948877
-0.930391
-0.913677
-0.898655
-0.885259
-0.873432
-0.863126
-0.854303
-0.846931
-0.840984
-0.836445
-0.833296
-0.831521
-0.831103
-0.832022
-0.834249
-0.837747
-0.842465
-0.848338
-0.855283
-0.863199
-0.871961
-0.881419
-0.891387
-0.90163
-1.51719
-1.41902
-1.32853
-1.24513
-1.16828
-1.09744
-1.03215
-0.971961
-0.91646
-0.865275
-0.818063
-0.774511
-0.734335
-0.697273
-0.663088
-0.631562
-0.602497
-0.575712
-0.551039
-0.528326
-0.507434
-0.488233
-0.470606
-0.454446
-0.439653
-0.426137
-0.413817
-0.402618
-0.392473
-0.383322
-0.375115
-0.367805
-0.361356
-0.355739
-0.35093
-0.346917
-0.343693
-0.341259
-0.339624
-0.338804
-0.338819
-0.339694
-0.341455
-0.344128
-0.347733
-0.352285
-0.357786
-0.364226
-0.37158
-0.379812
-0.841086
-0.781461
-0.726324
-0.675338
-0.628192
-0.584602
-0.544305
-0.507063
-0.472655
-0.44088
-0.411552
-0.384497
-0.359556
-0.336581
-0.31543
-0.295976
-0.278096
-0.261677
-0.246612
-0.232801
-0.220152
-0.208578
-0.197998
-0.188338
-0.179527
-0.171503
-0.164206
-0.157582
-0.151582
-0.14616
-0.141276
-0.136893
-0.132979
-0.129504
-0.126446
-0.123784
-0.121502
-0.11959
-0.118041
-0.116853
-0.11603
-0.11558
-0.115514
-0.115848
-0.116601
-0.117792
-0.119443
-0.121575
-0.124207
-0.127364
-0.543982
-0.502783
-0.464292
-0.428378
-0.39492
-0.363805
-0.334921
-0.308161
-0.28342
-0.260592
-0.239573
-0.220258
-0.202544
-0.186328
-0.171509
-0.15799
-0.145679
-0.134483
-0.124317
-0.115097
-0.106744
-0.0991836
-0.0923475
-0.0861714
-0.0805966
-0.0755692
-0.0710401
-0.0669646
-0.063302
-0.0600155
-0.0570718
-0.0544409
-0.0520958
-0.0500122
-0.0481688
-0.0465465
-0.0451285
-0.0439003
-0.0428499
-0.0419669
-0.0412435
-0.0406739
-0.0402543
-0.0399833
-0.0398613
-0.039891
-0.0400765
-0.0404238
-0.0409403
-0.0416353
-0.428989
-0.393486
-0.360101
-0.328835
-0.299673
-0.272584
-0.247523
-0.224428
-0.203225
-0.18383
-0.16615
-0.150085
-0.135527
-0.122367
-0.110483
-0.0998129
-0.0902576
-0.0817188
-0.0741016
-0.0673161
-0.0612775
-0.0559076
-0.0511351
-0.0468956
-0.0431316
-0.0397919
-0.0368312
-0.0342085
-0.0318877
-0.0298362
-0.0280252
-0.0264292
-0.0250258
-0.023795
-0.0227194
-0.0217835
-0.0209737
-0.020278
-0.0196857
-0.0191874
-0.018775
-0.0184412
-0.0181798
-0.0179854
-0.0178535
-0.0177805
-0.0177634
-0.0178001
-0.0178894
-0.0180308
-0.396734
-0.360088
-0.325708
-0.293643
-0.263912
-0.236503
-0.211376
-0.188464
-0.167682
-0.148925
-0.132076
-0.117006
-0.103583
-0.0916721
-0.0811375
-0.0718489
-0.0636806
-0.0565142
-0.0502393
-0.0447542
-0.0399659
-0.0357905
-0.0321522
-0.0289828
-0.0262201
-0.0238216
-0.0217464
-0.0199521
-0.0184019
-0.017064
-0.0159107
-0.0149185
-0.0140673
-0.0133398
-0.0127217
-0.0122002
-0.0117646
-0.0114053
-0.011114
-0.0108838
-0.0107081
-0.0105816
-0.0104994
-0.010457
-0.0104505
-0.0104764
-0.0105316
-0.0106129
-0.0107179
-0.0108439
-0.422083
-0.379741
-0.339945
-0.302833
-0.268492
-0.236964
-0.208241
-0.18227
-0.158961
-0.138187
-0.119796
-0.103619
-0.0894731
-0.0771697
-0.0665218
-0.0573472
-0.0494729
-0.0427373
-0.0369921
-0.0321031
-0.0279507
-0.024429
-0.0214457
-0.0189206
-0.0167848
-0.0149795
-0.0134547
-0.012168
-0.0110838
-0.010172
-0.00940725
-0.00876845
-0.00823751
-0.00779995
-0.0074464
-0.0071652
-0.00694672
-0.00678294
-0.00666713
-0.00659364
-0.00655773
-0.00655533
-0.00658298
-0.00663767
-0.00671674
-0.0068178
-0.0069387
-0.00707742
-0.00723205
-0.00740072
-0.570065
-0.510437
-0.453842
-0.400698
-0.351331
-0.305967
-0.264723
-0.227616
-0.194567
-0.165421
-0.139954
-0.117897
-0.0989518
-0.0828038
-0.0691368
-0.0576436
-0.0480339
-0.0400395
-0.0334181
-0.027954
-0.0234588
-0.0197696
-0.0167477
-0.0142759
-0.0122561
-0.0106072
-0.00926203
-0.00816582
-0.0072738
-0.00654961
-0.0059638
-0.00549255
-0.00511665
-0.00482058
-0.00459183
-0.00442028
-0.00429777
-0.00421767
-0.00417467
-0.00416455
-0.00418338
-0.00422783
-0.00429515
-0.00438307
-0.00448963
-0.00461318
-0.0047523
-0.0049057
-0.00507223
-0.00525075
-0.928746
-0.831265
-0.737263
-0.647911
-0.5642
-0.486885
-0.416472
-0.353211
-0.297119
-0.248007
-0.205522
-0.169186
-0.138441
-0.112686
-0.0913119
-0.0737238
-0.0593631
-0.0477194
-0.0383368
-0.0308168
-0.0248172
-0.0200488
-0.0162703
-0.0132834
-0.0109264
-0.00906898
-0.00760673
-0.0064568
-0.00555373
-0.00484606
-0.00429347
-0.00386446
-0.00353447
-0.00328434
-0.00309916
-0.00296731
-0.0028797
-0.00282925
-0.0028104
-0.00281882
-0.0028511
-0.00290462
-0.00297736
-0.00306784
-0.00317369
-0.00329366
-0.00342669
-0.00357192
-0.00372862
-0.00389617
-1.76915
-1.58505
-1.4049
-1.23177
-1.06823
-0.916332
-0.777565
-0.652855
-0.542547
-0.446462
-0.363978
-0.294145
-0.235789
-0.187614
-0.148294
-0.116536
-0.0911335
-0.0709915
-0.0551468
-0.0427699
-0.0331609
-0.0257398
-0.0200332
-0.0156599
-0.0123172
-0.00976698
-0.00782374
-0.00634431
-0.00521886
-0.00436366
-0.00371517
-0.00322532
-0.00285784
-0.00258536
-0.00238727
-0.00224803
-0.00215587
-0.0021019
-0.00207936
-0.00208311
-0.00210925
-0.00215477
-0.00221743
-0.00229554
-0.00238787
-0.00249364
-0.00261128
-0.00273978
-0.00287855
-0.00302713
-3.5563
-3.17782
-2.80668
-2.45031
-2.11499
-1.80379
-1.51963
-1.26483
-1.0403
-0.845829
-0.680157
-0.541241
-0.426493
-0.333027
-0.257884
-0.198198
-0.151317
-0.114869
-0.0867962
-0.0653548
-0.0491006
-0.0368589
-0.0276899
-0.0208534
-0.0157737
-0.0120088
-0.0092228
-0.00716268
-0.00563965
-0.00451367
-0.00368145
-0.00306716
-0.00261526
-0.00228516
-0.00204716
-0.00187956
-0.00176643
-0.00169605
-0.00165977
-0.00165116
-0.00166545
-0.00169908
-0.00174939
-0.00181439
-0.00189264
-0.00198315
-0.00208514
-0.00219723
-0.00231888
-0.00244964
-7.14079
-6.36165
-5.58555
-4.83933
-4.13828
-3.49218
-2.90682
-2.39079
-1.94221
-1.55829
-1.23521
-0.967847
-0.750124
-0.575475
-0.437335
-0.32949
-0.246307
-0.182858
-0.134954
-0.099123
-0.0725462
-0.0529792
-0.0386651
-0.0282491
-0.0207013
-0.0152482
-0.0113157
-0.0084816
-0.00643851
-0.00496402
-0.00389835
-0.00312724
-0.00256928
-0.00216656
-0.0018779
-0.00167398
-0.00153384
-0.00144245
-0.00138898
-0.00136554
-0.0013664
-0.00138737
-0.00142543
-0.00147822
-0.00154385
-0.00162097
-0.00170856
-0.00180583
-0.00191224
-0.00202732
-11.1769
-9.92589
-8.70538
-7.52812
-6.41231
-5.38391
-4.45288
-3.62771
-2.91295
-2.307
-1.80343
-1.39254
-1.0629
-0.80256
-0.599911
-0.444289
-0.326273
-0.23781
-0.172208
-0.124036
-0.0889751
-0.0636577
-0.0454986
-0.0325463
-0.0233478
-0.0168344
-0.0122295
-0.00897419
-0.00666998
-0.00503495
-0.00387093
-0.00303933
-0.0024435
-0.00201622
-0.00171065
-0.00149412
-0.00134371
-0.00124324
-0.00118118
-0.00114925
-0.00114147
-0.00115343
-0.00118189
-0.00122445
-0.00127933
-0.00134518
-0.00142102
-0.00150608
-0.00159982
-0.0017018
-0.253627
-0.247492
-0.241262
-0.234955
-0.228596
-0.222205
-0.215803
-0.209412
-0.20305
-0.196736
-0.190488
-0.184324
-0.178259
-0.172309
-0.166485
-0.160801
-0.155266
-0.149887
-0.144672
-0.139628
-0.134756
-0.13006
-0.125541
-0.1212
-0.117033
-0.113041
-0.109218
-0.105562
-0.102067
-0.0987285
-0.0955408
-0.0924974
-0.0895921
-0.0868184
-0.0841695
-0.0816386
-0.0792192
-0.0769045
-0.0746883
-0.0725642
-0.0705261
-0.0685682
-0.0666849
-0.0648714
-0.0631225
-0.0614334
-0.0598001
-0.0582188
-0.0566856
-0.0551974
-0.053751
-0.0523438
-0.0509733
-0.0496373
-0.0483339
-0.0470613
-0.045818
-0.0446026
-0.0434142
-0.0422515
-0.0411138
-0.0400004
-0.0389105
-0.0378437
-0.0367995
-0.0357778
-0.0347784
-0.0338022
-0.0328492
-0.0319176
-0.031007
-0.0301164
-0.0292464
-0.0283964
-0.0275658
-0.0267541
-0.0259612
-0.0251869
-0.024431
-0.0236935
-0.0229745
-0.022274
-0.021592
-0.0209287
-0.0202842
-0.0196585
-0.0190519
-0.0184645
-0.0178964
-0.0173477
-0.0168186
-0.0163093
-0.0158199
-0.0153506
-0.0149015
-0.014473
-0.0140655
-0.0136784
-0.0133121
-0.0129668
-0.0126425
-0.0123388
-0.0120556
-0.0117927
-0.0115499
-0.011327
-0.0111235
-0.0109395
-0.0107744
-0.0106278
-0.0104995
-0.010389
-0.0102956
-0.0102186
-0.0101573
-0.0101108
-0.0100784
-0.010059
-0.010052
-0.0100561
-0.0100707
-0.0100947
-0.0101272
-0.0101673
-0.0102141
-0.0102667
-0.0103244
-0.0103864
-0.0104518
-0.0105199
-0.0105901
-0.0106615
-0.0107337
-0.0108057
-0.0108772
-0.0109473
-0.0110156
-0.0110814
-0.0111442
-0.0112034
-0.0112585
-0.0113091
-0.0113546
-0.0113947
-0.011429
-0.0114571
-0.0114788
-0.0114937
-0.0115017
-0.0115025
-0.0114961
-0.0114824
-0.0114614
-0.011433
-0.0113974
-0.0113545
-0.0113046
-0.0112479
-0.0111845
-0.0111147
-0.0110388
-0.010957
-0.0108697
-0.0107772
-0.0106799
-0.0105781
-0.0104722
-0.0103627
-0.0102498
-0.010134
-0.0100157
-0.00989517
-0.00977288
-0.00964916
-0.00952436
-0.00939883
-0.00927289
-0.00914685
-0.00902101
-0.00889565
-0.00877102
-0.00864737
-0.00852491
-0.00840386
-0.0082844
-0.00816669
-0.0080509
-0.00793715
-0.00782555
-0.0077162
-0.0076092
-0.00750459
-0.00740245
-0.0073028
-0.00720567
-0.00711108
-0.00701902
-0.00692949
-0.00684247
-0.00675794
-0.00667584
-0.00659615
-0.0065188
-0.00644375
-0.00637091
-0.00630023
-0.00623163
-0.00616502
-0.00610032
-0.00603745
-0.0059763
-0.00591679
-0.00585881
-0.00580226
-0.00574703
-0.00569301
-0.0056401
-0.00558817
-0.0055371
-0.00548679
-0.0054371
-0.0053879
-0.00533907
-0.00529048
-0.00524199
-0.00519346
-0.00514475
-0.00509572
-0.00504623
-0.00499612
-0.00494526
-0.00489348
-0.00484065
-0.0047866
-0.00473119
-0.00467427
-0.0046157
-0.00455533
-0.00449302
-0.00442864
-0.00436207
-0.0042932
-0.00422192
-0.00414815
-0.00407181
-0.00399286
-0.00391126
-0.00382701
-0.00374012
-0.00365065
-0.00355867
-0.0034643
-0.00336768
-0.003269
-0.00316847
-0.00306637
-0.00296298
-0.00285863
-0.00275369
-0.00264856
-0.00254367
-0.00243946
-0.00233641
-0.002235
-0.00213573
-0.0020391
-0.00194562
-0.0018558
-0.00177013
-0.0016891
-0.00161322
-0.00154295
-0.0014788
-0.00142124
-0.00137078
-0.00132795
-0.0012933
-0.00126745
-0.00125108
-0.00124495
-0.00124997
-0.00126715
-0.00129774
-0.00134316
-0.00140515
-0.00148579
-0.00158756
-0.00171347
-0.00186717
-0.00205303
-0.00227651
-0.00254553
-0.00286884
-0.0032563
-0.00371847
-0.00426184
-0.00487836
-0.005501
-0.00582622
-0.00452993
-0.398206
-0.38969
-0.380881
-0.371796
-0.362448
-0.352857
-0.343039
-0.333015
-0.322809
-0.312443
-0.301944
-0.291341
-0.280664
-0.269946
-0.259221
-0.248529
-0.237909
-0.227404
-0.21707
-0.206982
-0.19723
-0.187838
-0.178824
-0.170206
-0.161995
-0.1542
-0.146824
-0.139866
-0.133321
-0.127182
-0.121437
-0.116073
-0.111075
-0.106425
-0.102105
-0.098095
-0.0943741
-0.090922
-0.0877192
-0.0847454
-0.0819815
-0.0794087
-0.0770097
-0.0747685
-0.0726688
-0.0706963
-0.0688377
-0.0670814
-0.0654161
-0.0638317
-0.0623192
-0.0608706
-0.0594786
-0.0581369
-0.0568398
-0.0555827
-0.0543606
-0.0531698
-0.0520068
-0.0508691
-0.0497545
-0.0486607
-0.0475861
-0.0465293
-0.0454895
-0.0444665
-0.0434576
-0.0424627
-0.0414815
-0.0405127
-0.0395572
-0.0386141
-0.0376828
-0.036763
-0.0358548
-0.0349581
-0.034073
-0.0331998
-0.0323387
-0.0314898
-0.0306537
-0.0298308
-0.0290212
-0.0282256
-0.0274443
-0.0266778
-0.0259264
-0.0251905
-0.0244705
-0.0237668
-0.0230797
-0.0224096
-0.0217568
-0.0211217
-0.0205047
-0.0199063
-0.0193277
-0.0187686
-0.0182287
-0.0177086
-0.0172087
-0.0167289
-0.0162689
-0.0158286
-0.0154078
-0.0150062
-0.0146239
-0.0142612
-0.0139191
-0.0135953
-0.0132913
-0.0130076
-0.0127435
-0.0124981
-0.012271
-0.0120614
-0.0118686
-0.0116917
-0.01153
-0.0113827
-0.0112489
-0.0111279
-0.0110187
-0.0109208
-0.0108333
-0.0107556
-0.010687
-0.010627
-0.010575
-0.0105306
-0.0104931
-0.0104622
-0.0104374
-0.0104183
-0.0104044
-0.0103953
-0.0103907
-0.0103899
-0.0103926
-0.0103983
-0.0104065
-0.0104166
-0.0104283
-0.0104409
-0.0104541
-0.0104672
-0.0104798
-0.0104914
-0.0105016
-0.0105099
-0.010516
-0.0105194
-0.0105199
-0.0105171
-0.0105108
-0.0105007
-0.0104867
-0.0104685
-0.0104462
-0.0104196
-0.0103887
-0.0103536
-0.0103142
-0.0102706
-0.010223
-0.0101715
-0.0101161
-0.0100572
-0.00999493
-0.00992946
-0.00986103
-0.0097899
-0.00971631
-0.00964052
-0.00956278
-0.00948335
-0.0094025
-0.00932047
-0.00923752
-0.00915391
-0.00906986
-0.00898561
-0.00890138
-0.0088174
-0.00873385
-0.00865093
-0.00856883
-0.0084877
-0.0084077
-0.00832898
-0.00825167
-0.00817589
-0.00810173
-0.00802931
-0.00795868
-0.00788994
-0.00782313
-0.0077583
-0.00769549
-0.00763472
-0.007576
-0.00751935
-0.00746475
-0.00741218
-0.00736163
-0.00731305
-0.0072664
-0.00722163
-0.00717866
-0.00713744
-0.00709788
-0.00705988
-0.00702335
-0.00698819
-0.00695427
-0.00692148
-0.00688967
-0.00685872
-0.00682846
-0.00679875
-0.00676942
-0.00674029
-0.00671119
-0.00668194
-0.00665233
-0.00662217
-0.00659126
-0.00655938
-0.00652632
-0.00649186
-0.00645578
-0.00641786
-0.00637787
-0.00633558
-0.00629078
-0.00624323
-0.00619273
-0.00613905
-0.006082
-0.00602137
-0.00595699
-0.00588867
-0.00581626
-0.00573962
-0.00565863
-0.00557318
-0.0054832
-0.00538864
-0.00528949
-0.00518576
-0.00507749
-0.00496478
-0.00484776
-0.00472658
-0.00460147
-0.00447269
-0.00434054
-0.00420536
-0.00406755
-0.00392755
-0.00378584
-0.00364294
-0.0034994
-0.0033558
-0.00321274
-0.00307086
-0.00293077
-0.00279312
-0.00265854
-0.00252766
-0.00240107
-0.00227936
-0.00216308
-0.00205276
-0.00194889
-0.00185192
-0.00176228
-0.00168038
-0.00160659
-0.00154129
-0.00148482
-0.00143757
-0.00139994
-0.00137234
-0.00135526
-0.00134926
-0.00135498
-0.00137317
-0.00140473
-0.00145075
-0.00151248
-0.00159146
-0.0016895
-0.0018087
-0.0019515
-0.00212117
-0.00231809
-0.00252768
-0.00265556
-0.00216113
-0.59294
-0.581117
-0.568978
-0.556539
-0.54381
-0.53081
-0.517556
-0.50406
-0.490343
-0.476422
-0.462319
-0.448052
-0.433645
-0.419117
-0.404493
-0.389791
-0.375033
-0.360232
-0.345393
-0.330501
-0.315527
-0.30053
-0.28557
-0.270715
-0.256034
-0.241602
-0.227493
-0.213785
-0.200558
-0.187897
-0.175898
-0.164684
-0.154356
-0.14489
-0.136252
-0.128397
-0.121276
-0.114833
-0.109012
-0.103756
-0.0990114
-0.0947236
-0.0908437
-0.0873239
-0.0841216
-0.081199
-0.0785224
-0.0760614
-0.0737897
-0.071685
-0.0697259
-0.0678951
-0.0661777
-0.0645612
-0.0630341
-0.061586
-0.0602081
-0.0588928
-0.0576335
-0.0564229
-0.0552559
-0.0541271
-0.0530336
-0.0519718
-0.0509379
-0.0499272
-0.0489369
-0.0479661
-0.0470124
-0.0460738
-0.0451485
-0.0442352
-0.0433327
-0.0424399
-0.041556
-0.0406806
-0.0398134
-0.0389538
-0.0381018
-0.0372574
-0.0364211
-0.0355928
-0.0347724
-0.0339603
-0.033157
-0.0323629
-0.0315784
-0.0308039
-0.0300398
-0.0292866
-0.0285449
-0.0278151
-0.0270978
-0.0263935
-0.0257031
-0.0250275
-0.0243659
-0.0237194
-0.023088
-0.0224726
-0.0218738
-0.0212912
-0.0207247
-0.0201742
-0.0196396
-0.0191208
-0.0186176
-0.0181306
-0.0176634
-0.0172149
-0.0167815
-0.0163662
-0.0159709
-0.0155946
-0.0152362
-0.0148949
-0.0145701
-0.0142609
-0.0139665
-0.0136862
-0.0134192
-0.0131648
-0.0129223
-0.0126914
-0.0124713
-0.0122617
-0.0120623
-0.0118727
-0.0116928
-0.0115223
-0.0113611
-0.0112091
-0.0110662
-0.0109323
-0.0108072
-0.0106909
-0.0105832
-0.010484
-0.010393
-0.01031
-0.0102347
-0.0101668
-0.010106
-0.0100519
-0.0100041
-0.00996207
-0.00992544
-0.00989371
-0.00986639
-0.00984301
-0.00982307
-0.00980609
-0.0097916
-0.00977914
-0.00976828
-0.00975861
-0.00974973
-0.00974131
-0.00973301
-0.00972455
-0.00971567
-0.00970616
-0.00969584
-0.00968456
-0.00967221
-0.00965872
-0.00964404
-0.00962815
-0.00961107
-0.00959284
-0.00957353
-0.00955323
-0.00953203
-0.00951007
-0.00948748
-0.00946443
-0.00944106
-0.00941756
-0.00939411
-0.00937087
-0.00934805
-0.00932583
-0.00930439
-0.00928392
-0.0092646
-0.0092466
-0.00923009
-0.00921524
-0.0092022
-0.00919111
-0.00918211
-0.00917531
-0.00917084
-0.00916879
-0.00916924
-0.00917227
-0.00917794
-0.00918628
-0.00919733
-0.00921109
-0.00922756
-0.00924671
-0.00926851
-0.00929289
-0.00931978
-0.00934907
-0.00938066
-0.0094144
-0.00945015
-0.00948771
-0.0095269
-0.00956749
-0.00960925
-0.00965191
-0.0096952
-0.0097388
-0.00978242
-0.00982569
-0.00986827
-0.00990978
-0.00994982
-0.00998799
-0.0100239
-0.010057
-0.010087
-0.0101133
-0.0101355
-0.0101532
-0.0101659
-0.010173
-0.0101742
-0.0101689
-0.0101568
-0.0101373
-0.0101102
-0.0100749
-0.0100311
-0.00997839
-0.00991655
-0.00984527
-0.00976428
-0.0096734
-0.00957247
-0.00946139
-0.00934009
-0.0092086
-0.00906696
-0.00891529
-0.00875376
-0.00858262
-0.00840217
-0.00821277
-0.00801486
-0.00780896
-0.00759563
-0.0073755
-0.00714927
-0.00691768
-0.00668153
-0.00644169
-0.00619904
-0.00595452
-0.00570908
-0.00546369
-0.00521931
-0.00497694
-0.00473751
-0.00450197
-0.00427121
-0.00404609
-0.00382741
-0.00361592
-0.0034123
-0.00321717
-0.00303106
-0.00285447
-0.00268779
-0.00253135
-0.00238545
-0.00225028
-0.00212601
-0.00201276
-0.0019106
-0.0018196
-0.00173978
-0.00167118
-0.00161383
-0.00156778
-0.00153313
-0.00150999
-0.00149853
-0.00149899
-0.00151167
-0.00153697