/*--------------------------------*- C++ -*----------------------------------*\
| =========                 |                                                 |
| \\      /  F ield         | OpenFOAM: The Open Source CFD Toolbox           |
|  \\    /   O peration     | Version:  2.4.0                                 |
|   \\  /    A nd           | Web:      www.OpenFOAM.org                      |
|    \\/     M anipulation  |                                                 |
\*---------------------------------------------------------------------------*/
FoamFile
{
    version     2.0;
    format      ascii;
    class       volScalarField;
    location    "5";
    object      p;
}
// * * * * * * * * * * * * * * * * * * * * * * * * * * * * * * * * * * * * * //

dimensions      [1 -1 -2 0 0 0 0];

internalField   nonuniform List<scalar> 
8000
(
-0.145559
-0.150706
-0.154523
-0.161677
-0.168399
-0.175655
-0.183486
-0.191891
-0.200837
-0.210475
-0.221072
-0.232938
-0.24414
-0.246625
-0.234138
-0.257661
-0.521882
-1.16811
-0.996728
0.139278
0.150059
0.15027
0.15025
0.150316
0.150402
0.150479
0.150543
0.150598
0.150642
0.150677
0.150702
0.150716
0.15072
0.150714
0.150698
0.150672
0.150635
0.150588
0.150531
0.150464
0.150388
0.150302
0.150206
0.1501
0.149985
0.14986
0.149726
0.149582
0.149429
0.149266
-0.0587608
-0.0669611
-0.0742751
-0.0831595
-0.0904102
-0.0973257
-0.103966
-0.110295
-0.11634
-0.122375
-0.128936
-0.135322
-0.134771
-0.113687
-0.0897469
-0.232505
-0.883909
-1.70265
0.0853786
0.115978
0.116784
0.116587
0.116657
0.116742
0.116811
0.116864
0.116904
0.116931
0.116946
0.116949
0.116939
0.116917
0.116882
0.116836
0.116777
0.116706
0.116623
0.116527
0.116419
0.116298
0.116165
0.11602
0.115862
0.115691
0.115507
0.115311
0.115102
0.11488
0.114645
0.114397
-0.0579892
-0.0653865
-0.0720207
-0.0794758
-0.0852623
-0.0905562
-0.0954182
-0.0997207
-0.103921
-0.109111
-0.115267
-0.112697
-0.0732035
0.00149034
-0.13913
-1.22471
-3.14162
-0.140307
0.0836181
0.0850941
0.0846502
0.0847667
0.0848589
0.0849251
0.0849708
0.0850007
0.0850152
0.0850144
0.0849984
0.0849676
0.0849222
0.0848626
0.0847889
0.0847011
0.0845993
0.0844835
0.0843536
0.0842096
0.0840515
0.083879
0.0836921
0.0834908
0.0832749
0.0830442
0.0827986
0.082538
0.0822622
0.081971
0.081664
0.081349
-0.333455
-0.336031
-0.338352
-0.342538
-0.345883
-0.349425
-0.353248
-0.357258
-0.361814
-0.367181
-0.372138
-0.370693
-0.355966
-0.358797
-0.530616
-1.03254
-1.04696
0.0540467
0.056137
0.0555479
0.0556251
0.0556377
0.0556295
0.0556092
0.0555789
0.0555373
0.0554839
0.0554183
0.0553405
0.0552504
0.0551479
0.0550329
0.0549052
0.0547645
0.0546109
0.0544439
0.0542635
0.0540695
0.0538615
0.0536396
0.0534033
0.0531524
0.0528869
0.0526064
0.0523106
0.0519995
0.0516725
0.0513296
0.0509703
0.0505944
-0.278606
-0.280483
-0.280946
-0.282944
-0.283571
-0.283975
-0.284206
-0.284497
-0.285774
-0.287988
-0.283426
-0.249815
-0.189221
-0.306642
-1.21268
-2.74756
0.00140867
0.0275226
0.0281882
0.0279144
0.0279284
0.0279361
0.0279254
0.0278982
0.027857
0.0278024
0.0277342
0.0276522
0.0275565
0.0274472
0.0273241
0.0271873
0.0270368
0.0268724
0.0266941
0.0265019
0.0262956
0.0260752
0.0258407
0.0255919
0.0253288
0.0250511
0.0247588
0.0244517
0.0241297
0.0237926
0.0234403
0.0230725
0.0226892
0.02229
-0.489662
-0.485056
-0.478771
-0.475044
-0.47054
-0.466378
-0.462509
-0.459191
-0.456931
-0.455371
-0.449054
-0.425236
-0.393544
-0.494543
-1.04239
-1.55573
0.000846028
0.00295106
0.00203381
0.00227884
0.00228331
0.00227999
0.00226368
0.00223221
0.0021842
0.00211972
0.0020393
0.00194334
0.00183215
0.00170599
0.00156516
0.00140991
0.00124044
0.00105696
0.000859597
0.000648304
0.000423015
0.000185248
-6.54566e-05
-0.000328919
-0.000605435
-0.000895214
-0.00119787
-0.00151315
-0.00184189
-0.00218364
-0.00253893
-0.00290742
-0.00329019
-0.00368626
-0.644159
-0.628908
-0.611586
-0.598594
-0.586384
-0.576015
-0.567031
-0.559868
-0.554912
-0.5517
-0.545425
-0.526247
-0.506801
-0.611071
-1.07808
-1.0844
-0.0219727
-0.0192765
-0.0207727
-0.0202276
-0.0204606
-0.0204646
-0.0205406
-0.0206237
-0.0207225
-0.0208358
-0.020964
-0.0211071
-0.0212649
-0.021437
-0.0216231
-0.0218226
-0.0220355
-0.0222616
-0.0224994
-0.0227502
-0.0230115
-0.0232693
-0.0235666
-0.0238627
-0.0241565
-0.0244838
-0.0248245
-0.0251599
-0.0255169
-0.0258794
-0.0262543
-0.0266382
-0.0270374
-0.0274459
-0.504235
-0.481659
-0.456156
-0.435028
-0.414673
-0.396103
-0.378628
-0.362862
-0.349287
-0.337474
-0.321813
-0.28973
-0.25229
-0.356283
-0.910568
-1.16139
-0.0430519
-0.0401021
-0.0420013
-0.0411339
-0.0415712
-0.0415473
-0.0416297
-0.0417404
-0.0418739
-0.0420296
-0.0422077
-0.0424074
-0.0426275
-0.0428667
-0.0431245
-0.0433986
-0.0436797
-0.043984
-0.0442983
-0.0446243
-0.0448493
-0.0447086
-0.0454195
-0.04581
-0.0460636
-0.0462162
-0.0468445
-0.0472358
-0.0476622
-0.0480935
-0.0485355
-0.0489796
-0.0494453
-0.0499114
-0.0329313
-0.00335037
0.0295045
0.0571312
0.0826325
0.105318
0.126017
0.144166
0.159072
0.171241
0.189137
0.234244
0.298227
0.166286
-0.693838
-1.89193
-0.0593927
-0.054916
-0.0565638
-0.0560905
-0.0565993
-0.0569493
-0.0573503
-0.0577901
-0.0582571
-0.0587437
-0.0592453
-0.0597581
-0.0602744
-0.0607806
-0.0613062
-0.0617938
-0.06171
-0.0627575
-0.0632999
-0.063842
-0.0643841
-0.0648934
-0.065431
-0.0660415
-0.0665875
-0.0671324
-0.0676793
-0.068229
-0.0687803
-0.0693329
-0.0698878
-0.0704432
-0.0710023
-0.071564
0.58573
0.620862
0.659091
0.692254
0.723117
0.751268
0.777204
0.800656
0.820836
0.837365
0.852438
0.874003
0.906307
0.891849
0.719283
0.376695
-0.0671575
-0.0598296
-0.0619108
-0.0644025
-0.0665646
-0.0686022
-0.0704131
-0.0720749
-0.0736058
-0.0750205
-0.0763322
-0.0775504
-0.0786536
-0.0797209
-0.0806096
-0.0809616
-0.0823776
-0.0832376
-0.0840599
-0.0848494
-0.0856095
-0.086343
-0.0870541
-0.0877469
-0.088424
-0.0890872
-0.0897384
-0.0903792
-0.0910112
-0.0916355
-0.0922531
-0.0928649
-0.0934716
-0.0940738
1.97845
2.00937
2.04213
2.07162
2.09771
2.12142
2.14292
2.16222
2.17906
2.1928
2.204
2.21963
2.25562
2.29779
2.17872
1.53323
-0.658279
-0.130807
-0.102847
-0.10296
-0.103246
-0.103562
-0.10392
-0.104264
-0.104647
-0.105069
-0.105496
-0.105875
-0.106331
-0.106561
-0.106352
-0.107552
-0.10804
-0.108535
-0.109037
-0.109544
-0.110057
-0.110574
-0.111097
-0.111624
-0.112155
-0.11269
-0.113229
-0.113771
-0.114315
-0.114862
-0.115411
-0.115961
-0.116513
-0.117066
3.40992
3.4189
3.42828
3.43927
3.45155
3.46576
3.48134
3.49783
3.5148
3.53301
3.55749
3.59921
3.65511
3.61554
3.00782
1.43571
-0.106742
-0.248411
-0.139798
-0.135184
-0.136134
-0.136004
-0.135885
-0.135723
-0.135711
-0.135799
-0.135871
-0.135621
-0.136024
-0.136168
-0.136319
-0.136491
-0.136686
-0.1369
-0.137133
-0.137384
-0.137652
-0.137937
-0.138237
-0.138552
-0.13888
-0.139221
-0.139574
-0.139938
-0.140312
-0.140696
-0.141088
-0.141489
-0.141898
-0.142313
5.4706
5.42226
5.38071
5.3632
5.36874
5.39637
5.44626
5.52168
5.62426
5.74976
5.87165
5.90966
4.996
2.2139
-1.92223
-0.909762
-0.174956
-0.147253
-0.158502
-0.157601
-0.157768
-0.157746
-0.157829
-0.15747
-0.156744
-0.158501
-0.158431
-0.159598
-0.159329
-0.159764
-0.159839
-0.159936
-0.160062
-0.160214
-0.160391
-0.16059
-0.160811
-0.161055
-0.161318
-0.161602
-0.161904
-0.162223
-0.162558
-0.162909
-0.163274
-0.163651
-0.164041
-0.164441
-0.16485
-0.165268
5.22758
5.23885
5.27518
5.33963
5.43044
5.55579
5.73882
5.99156
6.13282
5.53939
2.75277
0.82519
-7.43204
-3.95183
-0.859226
-0.175266
-0.189279
-0.187961
-0.189111
-0.190142
-0.189581
-0.189515
-0.189559
-0.18441
-0.186706
-0.186706
-0.186661
-0.186721
-0.18682
-0.186949
-0.187098
-0.187263
-0.187435
-0.187619
-0.187816
-0.188028
-0.188246
-0.188477
-0.188712
-0.188954
-0.189207
-0.189469
-0.189739
-0.190019
-0.190306
-0.190601
-0.190904
-0.191213
-0.191528
-0.191849
-5.58284
-5.3874
-5.17345
-4.93874
-4.66051
-4.51359
-5.1731
-8.44859
-11.9751
-12.8273
-9.12069
-4.07209
-0.409781
-0.21928
-0.206721
-0.209427
-0.210454
-0.209863
-0.210019
-0.210527
-0.210905
-0.212128
-0.20397
-0.206961
-0.207222
-0.207463
-0.207791
-0.208146
-0.208495
-0.208834
-0.20917
-0.209494
-0.209782
-0.210044
-0.210348
-0.210345
-0.211033
-0.211404
-0.211714
-0.21203
-0.212355
-0.21269
-0.213032
-0.213382
-0.213738
-0.214098
-0.214459
-0.214822
-0.215187
-0.215554
-8.96667
-8.8074
-8.5175
-8.30237
-9.53862
-14.7554
-19.0113
-13.6282
-1.00313
-0.460991
-0.253675
-0.23709
-0.23665
-0.23608
-0.236219
-0.236307
-0.236342
-0.236525
-0.236592
-0.236676
-0.236507
-0.233908
-0.240251
-0.240153
-0.240028
-0.240112
-0.240241
-0.240398
-0.240592
-0.240798
-0.238992
-0.241996
-0.241557
-0.241807
-0.242323
-0.242206
-0.240001
-0.245633
-0.245738
-0.245934
-0.246124
-0.246299
-0.24646
-0.24662
-0.246793
-0.246964
-0.247124
-0.247248
-0.247358
-0.247463
-11.0628
-10.8571
-11.9618
-18.4882
-29.2028
-8.60495
-1.06895
-0.348385
-0.245482
-0.238942
-0.246416
-0.247632
-0.250059
-0.250756
-0.248275
-0.255681
-0.256115
-0.256613
-0.257176
-0.257738
-0.258289
-0.258749
-0.25411
-0.254987
-0.256236
-0.256991
-0.257571
-0.25802
-0.258632
-0.259342
-0.259509
-0.257186
-0.267001
-0.264702
-0.265651
-0.266075
-0.266157
-0.265566
-0.270589
-0.270975
-0.271275
-0.271581
-0.27159
-0.271534
-0.272364
-0.270896
-0.274106
-0.274189
-0.274308
-0.274458
-5.27356
-6.64769
-11.3192
-17.4353
-0.94687
-0.270449
-0.2627
-0.264938
-0.2663
-0.267285
-0.268218
-0.26932
-0.270824
-0.271752
-0.27266
-0.278024
-0.278614
-0.27923
-0.279858
-0.280525
-0.281142
-0.280012
-0.279647
-0.291103
-0.291438
-0.291403
-0.291386
-0.293399
-0.29362
-0.293699
-0.293888
-0.29807
-0.298669
-0.297866
-0.298904
-0.299253
-0.299279
-0.299611
-0.300013
-0.300504
-0.301214
-0.295724
-0.295866
-0.298181
-0.293885
-0.30269
-0.302983
-0.303743
-0.304088
-0.304282
-11.9031
-12.3843
-14.4492
-17.8219
-7.65954
-1.49273
-0.354525
-0.297836
-0.271079
-0.274795
-0.27317
-0.27415
-0.275705
-0.278143
-0.280608
-0.282229
-0.286287
-0.286784
-0.290898
-0.293675
-0.296399
-0.299015
-0.30168
-0.304075
-0.306846
-0.308943
-0.310946
-0.312551
-0.313863
-0.315501
-0.313239
-0.316882
-0.318138
-0.318452
-0.319772
-0.321322
-0.321997
-0.322791
-0.323536
-0.32419
-0.324788
-0.325335
-0.325873
-0.326462
-0.326947
-0.327381
-0.327779
-0.327986
-0.326473
-0.326604
-10.9364
-10.5205
-10.1102
-10.5491
-13.05
-14.0724
-15.1125
-5.61212
-1.20789
-0.428216
-0.418788
-0.44495
-0.459713
-0.458441
-0.442054
-0.382375
-0.328771
-0.322058
-0.32286
-0.316539
-0.310835
-0.308138
-0.306953
-0.307848
-0.311569
-0.316548
-0.320224
-0.322343
-0.32371
-0.324897
-0.326092
-0.327285
-0.328457
-0.329506
-0.330467
-0.331596
-0.332536
-0.333448
-0.334343
-0.335287
-0.33651
-0.337222
-0.338243
-0.338563
-0.338878
-0.339459
-0.340233
-0.340739
-0.341307
-0.341962
0.149094
0.148914
0.148724
0.14853
0.148335
0.14821
0.147895
0.147664
0.147425
0.147236
0.146916
0.146649
0.146375
0.146092
0.145801
0.145502
0.145195
0.14488
0.144558
0.144242
0.143886
0.143538
0.143182
0.142817
0.142446
0.142108
0.141713
0.141311
0.140965
0.140463
0.140015
0.139552
0.139076
0.138653
0.138061
0.137519
0.136968
0.136461
0.135772
0.135125
0.134446
0.133731
0.132979
0.132186
0.13135
0.13047
0.129544
0.128564
0.127527
0.126435
0.114135
0.113865
0.113604
0.113426
0.112992
0.112662
0.112319
0.111961
0.111588
0.111201
0.110798
0.110381
0.109948
0.109499
0.109035
0.108555
0.108057
0.107544
0.107041
0.106464
0.105897
0.105312
0.104707
0.104081
0.103433
0.102765
0.102071
0.101371
0.100629
0.0998645
0.0991011
0.0982543
0.097407
0.0965307
0.0956211
0.0947282
0.0936905
0.0926728
0.091615
0.0904917
0.0893463
0.088154
0.0869114
0.0856191
0.0843357
0.0828669
0.0814084
0.0798886
0.0783461
0.0766697
0.0810217
0.0807371
0.0802817
0.0798938
0.0794887
0.0790653
0.0786284
0.0781746
0.0777816
0.077203
0.0766905
0.0761575
0.0756521
0.0750289
0.0744336
0.0738172
0.0732224
0.0725166
0.0718323
0.0711241
0.0703915
0.0696642
0.0688488
0.0680406
0.0672061
0.0663443
0.0654555
0.0645366
0.063587
0.0626132
0.0615926
0.0605453
0.0594631
0.0583444
0.0571879
0.0559917
0.0547587
0.0534744
0.0521486
0.0507755
0.0493546
0.0479227
0.0463589
0.0447766
0.0431372
0.0414376
0.0396763
0.0378518
0.0360137
0.0340517
0.0502019
0.049793
0.0493664
0.0489223
0.0484601
0.0479795
0.04748
0.0469611
0.0464227
0.0458864
0.0452754
0.0446701
0.0440494
0.0434421
0.042737
0.0420477
0.0413389
0.0406366
0.0398488
0.0390694
0.0382663
0.0374383
0.0365852
0.0357065
0.0348016
0.0338699
0.0329108
0.0319238
0.0309081
0.0298629
0.0287875
0.027681
0.0265424
0.0253708
0.0241651
0.022924
0.0216463
0.020331
0.0189765
0.0175809
0.0161429
0.0146608
0.0131326
0.0115568
0.00993516
0.00826724
0.0065364
0.00478605
0.00294102
0.00103775
0.0218746
0.0214423
0.0209932
0.0205273
0.0200442
0.0195439
0.0190259
0.0184901
0.0179362
0.0173639
0.0167737
0.0161645
0.0155365
0.0148892
0.0142229
0.0135374
0.0128322
0.0121072
0.011362
0.0105973
0.00981229
0.00900696
0.00818111
0.00733459
0.00646723
0.00557884
0.00466921
0.00373812
0.00278532
0.00181055
0.000813514
-0.000206122
-0.00124871
-0.00231466
-0.00340439
-0.0045184
-0.00565723
-0.00682148
-0.00801181
-0.00922894
-0.0104737
-0.0117469
-0.0130497
-0.014383
-0.015748
-0.017146
-0.0185784
-0.0200463
-0.0215515
-0.0230964
-0.00409603
-0.00451989
-0.00495795
-0.00541035
-0.00587719
-0.00635857
-0.0068546
-0.00736537
-0.00789096
-0.00843142
-0.00898682
-0.00955716
-0.0101424
-0.0107426
-0.0113577
-0.0119876
-0.0126324
-0.0132918
-0.0139659
-0.0146546
-0.0153578
-0.0160752
-0.016807
-0.0175528
-0.0183127
-0.0190864
-0.019874
-0.0206752
-0.02149
-0.0223182
-0.0231599
-0.0240149
-0.0248832
-0.0257647
-0.0266595
-0.0275675
-0.0284887
-0.0294232
-0.0303711
-0.0313324
-0.0323073
-0.033296
-0.0342985
-0.0353153
-0.0363464
-0.0373924
-0.0384535
-0.0395301
-0.0406225
-0.0417317
-0.0278652
-0.0282959
-0.0287383
-0.0291923
-0.0296579
-0.0301351
-0.0306238
-0.0311238
-0.0316352
-0.0321578
-0.0326915
-0.0332361
-0.0337914
-0.0343572
-0.0349333
-0.0355195
-0.0361154
-0.0367208
-0.0373354
-0.037959
-0.0385911
-0.0392314
-0.0398797
-0.0405356
-0.0411988
-0.0418689
-0.0425456
-0.0432285
-0.0439174
-0.0446118
-0.0453115
-0.0460162
-0.0467256
-0.0474393
-0.048157
-0.0488786
-0.0496037
-0.0503321
-0.0510635
-0.0517977
-0.0525345
-0.0532737
-0.0540152
-0.0547587
-0.0555041
-0.0562512
-0.0570001
-0.0577505
-0.0585022
-0.0592556
-0.0503853
-0.0508681
-0.0513593
-0.051859
-0.0523667
-0.052882
-0.0534047
-0.0539345
-0.0544714
-0.055015
-0.0555651
-0.0561214
-0.0566836
-0.0572514
-0.0578244
-0.0584023
-0.0589848
-0.0595715
-0.060162
-0.0607559
-0.0613529
-0.0619526
-0.0625545
-0.0631583
-0.0637637
-0.0643701
-0.0649773
-0.0655848
-0.0661923
-0.0667994
-0.0674057
-0.0680109
-0.0686145
-0.0692162
-0.0698158
-0.0704127
-0.0710067
-0.0715974
-0.0721846
-0.0727678
-0.0733467
-0.0739211
-0.0744905
-0.0750547
-0.0756133
-0.0761661
-0.0767126
-0.0772526
-0.0777856
-0.0783117
-0.0721283
-0.0726948
-0.0732633
-0.073834
-0.0744066
-0.0749812
-0.0755576
-0.0761357
-0.0767152
-0.077296
-0.0778779
-0.0784605
-0.0790438
-0.0796274
-0.0802111
-0.0807946
-0.0813777
-0.08196
-0.0825412
-0.0831212
-0.0836995
-0.0842759
-0.0848501
-0.0854218
-0.0859907
-0.0865566
-0.0871191
-0.0876779
-0.0882329
-0.0887836
-0.0893299
-0.0898715
-0.0904081
-0.0909395
-0.0914654
-0.0919856
-0.0924998
-0.0930078
-0.0935094
-0.0940042
-0.0944922
-0.0949731
-0.0954465
-0.0959124
-0.0963704
-0.0968202
-0.0972618
-0.0976947
-0.0981187
-0.0985343
-0.0946722
-0.0952671
-0.0958588
-0.0964476
-0.0970337
-0.0976173
-0.0981983
-0.0987768
-0.0993529
-0.0999264
-0.100497
-0.101066
-0.101631
-0.102194
-0.102754
-0.10331
-0.103863
-0.104413
-0.104959
-0.105501
-0.106039
-0.106572
-0.107101
-0.107625
-0.108145
-0.108659
-0.109168
-0.109672
-0.11017
-0.110662
-0.111149
-0.111629
-0.112103
-0.11257
-0.113032
-0.113486
-0.113934
-0.114375
-0.114809
-0.115236
-0.115655
-0.116068
-0.116473
-0.11687
-0.11726
-0.117643
-0.118017
-0.118384
-0.118742
-0.119093
-0.117619
-0.118172
-0.118725
-0.119278
-0.11983
-0.12038
-0.12093
-0.121477
-0.122023
-0.122566
-0.123107
-0.123645
-0.124179
-0.12471
-0.125238
-0.125761
-0.12628
-0.126795
-0.127305
-0.12781
-0.12831
-0.128804
-0.129293
-0.129777
-0.130254
-0.130726
-0.131191
-0.13165
-0.132103
-0.132548
-0.132988
-0.13342
-0.133846
-0.134265
-0.134677
-0.135081
-0.135479
-0.13587
-0.136251
-0.13663
-0.136999
-0.13736
-0.137716
-0.138064
-0.138404
-0.138727
-0.139061
-0.139379
-0.139698
-0.140001
-0.142734
-0.143161
-0.143593
-0.14403
-0.14447
-0.144913
-0.145359
-0.145807
-0.146257
-0.146707
-0.147158
-0.14761
-0.148061
-0.148511
-0.148959
-0.149407
-0.149852
-0.150295
-0.150735
-0.151172
-0.151606
-0.152036
-0.152462
-0.152884
-0.153302
-0.153715
-0.154124
-0.154527
-0.154926
-0.155319
-0.155707
-0.15609
-0.156467
-0.156839
-0.157205
-0.157565
-0.157919
-0.158268
-0.158611
-0.158948
-0.159279
-0.159605
-0.159924
-0.160231
-0.16054
-0.16084
-0.161126
-0.161419
-0.161701
-0.161961
-0.165694
-0.166126
-0.166563
-0.167006
-0.167452
-0.167901
-0.168353
-0.168806
-0.169259
-0.169714
-0.170167
-0.17062
-0.171072
-0.171521
-0.171969
-0.172413
-0.172854
-0.173292
-0.173727
-0.174157
-0.174583
-0.175004
-0.175421
-0.175833
-0.176239
-0.176641
-0.177037
-0.177428
-0.177814
-0.178194
-0.178569
-0.178938
-0.179301
-0.179659
-0.180012
-0.180358
-0.1807
-0.181035
-0.181365
-0.18169
-0.18201
-0.182324
-0.182633
-0.182936
-0.183235
-0.183529
-0.183817
-0.184101
-0.184381
-0.184656
-0.192175
-0.192506
-0.192842
-0.193182
-0.193525
-0.193872
-0.194222
-0.194574
-0.194928
-0.195283
-0.19564
-0.195998
-0.196357
-0.196715
-0.197074
-0.197433
-0.19779
-0.198147
-0.198503
-0.198858
-0.199211
-0.199563
-0.199912
-0.20026
-0.200605
-0.200948
-0.201289
-0.201627
-0.201962
-0.202295
-0.202625
-0.202952
-0.203276
-0.203597
-0.203915
-0.20423
-0.204542
-0.204851
-0.205157
-0.20546
-0.205759
-0.206056
-0.20635
-0.206641
-0.206928
-0.207213
-0.207495
-0.207774
-0.208051
-0.208325
-0.215923
-0.216293
-0.216664
-0.217035
-0.217406
-0.217776
-0.218146
-0.218514
-0.218882
-0.219248
-0.219612
-0.219975
-0.220335
-0.220694
-0.221051
-0.221405
-0.221758
-0.222108
-0.222456
-0.222802
-0.223145
-0.223486
-0.223825
-0.224162
-0.224497
-0.224829
-0.225159
-0.225487
-0.225813
-0.226137
-0.226459
-0.226779
-0.227096
-0.227412
-0.227726
-0.228038
-0.228348
-0.228655
-0.228962
-0.229266
-0.229568
-0.229869
-0.230168
-0.230465
-0.230761
-0.231055
-0.231347
-0.231638
-0.231927
-0.232216
-0.24756
-0.247653
-0.247744
-0.247834
-0.247924
-0.248016
-0.248109
-0.248204
-0.248303
-0.248405
-0.248512
-0.248623
-0.248739
-0.248861
-0.248989
-0.249122
-0.249262
-0.249408
-0.24956
-0.249718
-0.249882
-0.250053
-0.25023
-0.250413
-0.250602
-0.250796
-0.250996
-0.251202
-0.251413
-0.25163
-0.251851
-0.252077
-0.252308
-0.252543
-0.252782
-0.253025
-0.253273
-0.253523
-0.253777
-0.254035
-0.254295
-0.254559
-0.254825
-0.255094
-0.255365
-0.255638
-0.255914
-0.256191
-0.256471
-0.256752
-0.274577
-0.274661
-0.274718
-0.274766
-0.274794
-0.274812
-0.274823
-0.27483
-0.274835
-0.27484
-0.274845
-0.274853
-0.274865
-0.274882
-0.274906
-0.274937
-0.274975
-0.275023
-0.275079
-0.275144
-0.275219
-0.275304
-0.275399
-0.275504
-0.275619
-0.275744
-0.275879
-0.276024
-0.276178
-0.276341
-0.276513
-0.276694
-0.276884
-0.277081
-0.277287
-0.2775
-0.27772
-0.277948
-0.278182
-0.278422
-0.278668
-0.27892
-0.279178
-0.27944
-0.279708
-0.27998
-0.280256
-0.280537
-0.280821
-0.28111
-0.304408
-0.304429
-0.304428
-0.304489
-0.304494
-0.304443
-0.30434
-0.304208
-0.304055
-0.303886
-0.303706
-0.30352
-0.303333
-0.303147
-0.302968
-0.302796
-0.302635
-0.302487
-0.302352
-0.302234
-0.302131
-0.302046
-0.301978
-0.301929
-0.301897
-0.301884
-0.301889
-0.301912
-0.301952
-0.30201
-0.302084
-0.302174
-0.30228
-0.3024
-0.302535
-0.302684
-0.302846
-0.303021
-0.303207
-0.303405
-0.303614
-0.303832
-0.304061
-0.304299
-0.304546
-0.3048
-0.305063
-0.305333
-0.305609
-0.305892
-0.329015
-0.329158
-0.329232
-0.329002
-0.328904
-0.328806
-0.328683
-0.328527
-0.328346
-0.32815
-0.327944
-0.327733
-0.327522
-0.327315
-0.327116
-0.326926
-0.326749
-0.326587
-0.326441
-0.326313
-0.326203
-0.326113
-0.326043
-0.325993
-0.325963
-0.325954
-0.325965
-0.325996
-0.326047
-0.326116
-0.326203
-0.326308
-0.326429
-0.326567
-0.32672
-0.326888
-0.327069
-0.327264
-0.327472
-0.327691
-0.327921
-0.328162
-0.328412
-0.328672
-0.328941
-0.329218
-0.329502
-0.329794
-0.330093
-0.330399
-0.343747
-0.345019
-0.324807
-0.338775
-0.339653
-0.339944
-0.340427
-0.341032
-0.341581
-0.342117
-0.342564
-0.342978
-0.343363
-0.343722
-0.344059
-0.344378
-0.344681
-0.344972
-0.345253
-0.345527
-0.345795
-0.346059
-0.346322
-0.346585
-0.346849
-0.347114
-0.347383
-0.347655
-0.347931
-0.348211
-0.348496
-0.348787
-0.349082
-0.349382
-0.349687
-0.349997
-0.350312
-0.350632
-0.350956
-0.351285
-0.351618
-0.351954
-0.352295
-0.352639
-0.352987
-0.353338
-0.353693
-0.35405
-0.354409
-0.354771
0.125538
0.124881
0.124209
0.123529
0.12283
0.122109
0.121365
0.120597
0.119808
0.119054
0.118182
0.11731
0.116411
0.115489
0.114542
0.113564
0.112749
0.111458
0.110451
0.109343
0.108122
0.106951
0.105746
0.10451
0.10324
0.101937
0.100603
0.0993843
0.0978836
0.0965104
0.0950342
0.0934767
0.0919323
0.0903542
0.0887438
0.0871024
0.0854288
0.0837243
0.0819879
0.0803547
0.0785354
0.0766944
0.0748867
0.0729044
0.0712127
0.0690768
0.0671267
0.0651622
0.0631798
0.0611799
0.0591633
0.0571321
0.0550881
0.0530321
0.0509658
0.0488916
0.0468112
0.0447263
0.0426346
0.0405374
0.0384371
0.036336
0.0342343
0.0321329
0.0300332
0.0279389
0.0258483
0.0237992
0.0218492
0.0199959
0.0173765
0.0151565
0.0129959
0.0108987
0.00881809
0.00673624
0.00465795
0.0025858
0.000518739
-0.00154372
-0.003602
-0.00553812
-0.00765856
-0.00970651
-0.0117495
-0.0137914
-0.0158305
-0.0178692
-0.0199082
-0.0219486
-0.0239912
-0.026037
-0.0280864
-0.0301411
-0.0322037
-0.0342885
-0.0343368
-0.0373798
-0.0394822
-0.0415555
-0.0436502
-0.0457532
-0.0478604
-0.0499745
-0.0520963
-0.0542262
-0.05637
-0.0584859
-0.0602785
-0.0629008
-0.0651002
-0.0672735
-0.0694686
-0.0716794
-0.073905
-0.0761464
-0.0784039
-0.0806774
-0.0829672
-0.0852733
-0.087596
-0.0899353
-0.0922915
-0.0946647
-0.0970549
-0.0994624
-0.101887
-0.104329
-0.106789
-0.109267
-0.111763
-0.114277
-0.11681
-0.119361
-0.121931
-0.12452
-0.127129
-0.129758
-0.132406
-0.135075
-0.137764
-0.140474
-0.143205
-0.145958
-0.148731
-0.151527
-0.154344
-0.157182
-0.160043
-0.162926
-0.165831
-0.168758
-0.171707
-0.174679
-0.177672
-0.180687
-0.183724
-0.186783
-0.189863
-0.192964
-0.196085
-0.199228
-0.20239
-0.205572
-0.208774
-0.211995
-0.215235
-0.218493
-0.221768
-0.225061
-0.22837
-0.231696
-0.235038
-0.238395
-0.241767
-0.245152
-0.248549
-0.251964
-0.25539
-0.258827
-0.262277
-0.265737
-0.269208
-0.272688
-0.276179
-0.279678
-0.283187
-0.286703
-0.290227
-0.293758
-0.297296
-0.30084
-0.30439
-0.307945
-0.311506
-0.315072
-0.318641
-0.322215
-0.325792
-0.329373
-0.332956
-0.336543
-0.340131
-0.343722
-0.347314
-0.350908
-0.354504
-0.3581
-0.361698
-0.365296
-0.368895
-0.372495
-0.376095
-0.379696
-0.383297
-0.386898
-0.3905
-0.394103
-0.397706
-0.40131
-0.404915
-0.408521
-0.412129
-0.415739
-0.419351
-0.422966
-0.426583
-0.430205
-0.43383
-0.437461
-0.441097
-0.444739
-0.448388
-0.452045
-0.45571
-0.459386
-0.463072
-0.46677
-0.47048
-0.474205
-0.477944
-0.481701
-0.485475
-0.489267
-0.493081
-0.496916
-0.500775
-0.504658
-0.508568
-0.512506
-0.516473
-0.520472
-0.524502
-0.528568
-0.532668
-0.536807
-0.540984
-0.545202
-0.549461
-0.553764
-0.558111
-0.562505
-0.566946
-0.571435
-0.575973
-0.580562
-0.585202
-0.589894
-0.594638
-0.599435
-0.604285
-0.609189
-0.614146
-0.619156
-0.62422
-0.629336
-0.634504
-0.639724
-0.644994
-0.650315
-0.655685
-0.661102
-0.666567
-0.672077
-0.677631
-0.68323
-0.688871
-0.694554
-0.700277
-0.706039
-0.711835
-0.717671
-0.723548
-0.729467
-0.735427
-0.741427
-0.747468
-0.753551
-0.759675
-0.765889
0.0753505
0.074416
0.0734578
0.0724752
0.0714685
0.0704379
0.0694165
0.0683362
0.0672331
0.0661701
0.0649481
0.0637735
0.062566
0.0613429
0.0600989
0.0588347
0.0576652
0.0563502
0.0550055
0.0536477
0.0522746
0.0508805
0.0494343
0.048015
0.0465136
0.0450354
0.043547
0.0420404
0.0406201
0.0390738
0.0375089
0.0359337
0.0343483
0.0327523
0.0311482
0.0295918
0.0279649
0.0261057
0.0244529
0.0227967
0.021134
0.0194733
0.0178136
0.0161475
0.0146359
0.0129096
0.0112026
0.00950432
0.00781276
0.00612661
0.00444395
0.00276555
0.0010888
-0.00058469
-0.00224782
-0.00388906
-0.00528503
-0.00693083
-0.00859061
-0.0102206
-0.0118297
-0.0134317
-0.0150243
-0.016604
-0.0181205
-0.0195551
-0.0209883
-0.0225007
-0.0242719
-0.0258729
-0.0274304
-0.0289297
-0.0303782
-0.0318096
-0.0332297
-0.034637
-0.0360303
-0.0374104
-0.0387782
-0.0401333
-0.041474
-0.0424267
-0.0439514
-0.0452919
-0.0466059
-0.0479149
-0.0492215
-0.0505276
-0.0518359
-0.0531482
-0.0544668
-0.0557937
-0.0571303
-0.058479
-0.0598438
-0.0612266
-0.0626278
-0.062451
-0.0648828
-0.0663837
-0.0678836
-0.0694113
-0.0709697
-0.0725556
-0.0741696
-0.0758122
-0.0774883
-0.0792559
-0.0751606
-0.0798337
-0.0818058
-0.0835716
-0.0854067
-0.0872745
-0.089165
-0.091086
-0.0930378
-0.0950182
-0.0970268
-0.0990633
-0.101128
-0.103219
-0.105337
-0.107482
-0.109653
-0.111851
-0.114074
-0.116322
-0.118596
-0.120895
-0.123219
-0.125567
-0.12794
-0.130337
-0.132759
-0.135204
-0.137673
-0.140166
-0.142683
-0.145223
-0.147787
-0.150375
-0.152986
-0.155621
-0.15828
-0.160962
-0.163668
-0.166398
-0.169152
-0.171929
-0.174731
-0.177556
-0.180405
-0.183278
-0.186174
-0.189095
-0.192038
-0.195006
-0.197996
-0.20101
-0.204046
-0.207105
-0.210187
-0.213291
-0.216416
-0.219563
-0.222731
-0.22592
-0.229128
-0.232357
-0.235605
-0.238872
-0.242157
-0.24546
-0.24878
-0.252117
-0.25547
-0.258839
-0.262223
-0.26562
-0.269032
-0.272457
-0.275894
-0.279344
-0.282804
-0.286276
-0.289757
-0.293248
-0.296748
-0.300257
-0.303773
-0.307296
-0.310827
-0.314363
-0.317905
-0.321452
-0.325004
-0.32856
-0.332119
-0.335682
-0.339248
-0.342816
-0.346386
-0.349957
-0.35353
-0.357103
-0.360678
-0.364252
-0.367826
-0.3714
-0.374974
-0.378547
-0.382119
-0.38569
-0.389261
-0.39283
-0.396397
-0.399964
-0.40353
-0.407094
-0.410658
-0.414221
-0.417784
-0.421346
-0.424908
-0.428472
-0.432036
-0.435601
-0.439168
-0.442738
-0.446311
-0.449889
-0.453471
-0.457059
-0.460653
-0.464255
-0.467865
-0.471485
-0.475116
-0.478759
-0.482415
-0.486086
-0.489773
-0.493478
-0.497202
-0.500946
-0.504713
-0.508503
-0.512319
-0.516161
-0.520033
-0.523935
-0.52787
-0.531839
-0.535844
-0.539886
-0.543968
-0.548092
-0.552258
-0.556469
-0.560727
-0.565033
-0.569388
-0.573794
-0.578254
-0.582767
-0.587335
-0.59196
-0.596642
-0.601382
-0.606181
-0.611039
-0.615958
-0.620937
-0.625976
-0.631075
-0.636235
-0.641454
-0.646733
-0.652071
-0.657466
-0.662919
-0.668427
-0.673991
-0.679608
-0.685278
-0.690998
-0.696768
-0.702586
-0.708451
-0.71436
-0.720314
-0.726312
-0.73235
-0.738428
-0.744547
-0.750707
-0.756914
-0.763153
-0.769495
0.032486
0.0313627
0.0302173
0.0292469
0.0278858
0.0266914
0.0254413
0.0240131
0.0227039
0.0213675
0.020003
0.0186105
0.0171901
0.0157425
0.0142672
0.0127651
0.0112362
0.009682
0.00812034
0.00661641
0.00493958
0.00329242
0.00163109
-5.4836e-05
-0.00175002
-0.00345443
-0.00516292
-0.00689256
-0.00862878
-0.0103693
-0.012035
-0.0137869
-0.0155488
-0.0172207
-0.0189871
-0.02073
-0.022203
-0.0239596
-0.0257264
-0.0274676
-0.0291901
-0.0309117
-0.0325812
-0.034054
-0.0359001
-0.0375602
-0.0391711
-0.0407682
-0.0423779
-0.0438951
-0.045139
-0.0468929
-0.0484035
-0.0498677
-0.0512904
-0.0526957
-0.0540421
-0.0553398
-0.0565768
-0.057768
-0.0591094
-0.0603366
-0.0613804
-0.0630989
-0.0640872
-0.0647265
-0.0670977
-0.0681754
-0.0691559
-0.0700275
-0.0709171
-0.0717779
-0.0725442
-0.0733481
-0.0741179
-0.074842
-0.0755368
-0.0761972
-0.0768277
-0.0774238
-0.0780104
-0.0785429
-0.0790571
-0.0799633
-0.0804854
-0.0809741
-0.0814426
-0.0819041
-0.0823643
-0.0828236
-0.0832856
-0.0837569
-0.0842331
-0.0847328
-0.085261
-0.0857466
-0.0853865
-0.0860026
-0.0870181
-0.0877512
-0.0884922
-0.0892673
-0.0900972
-0.090985
-0.0919333
-0.0929448
-0.0940189
-0.0952491
-0.0965473
-0.0856811
-0.0938914
-0.0954314
-0.0968243
-0.0982522
-0.0997343
-0.10126
-0.102827
-0.104436
-0.10609
-0.107786
-0.109526
-0.111309
-0.113134
-0.115001
-0.11691
-0.11886
-0.120851
-0.122882
-0.124952
-0.127062
-0.129209
-0.131394
-0.133616
-0.135874
-0.138167
-0.140495
-0.142856
-0.14525
-0.147676
-0.150133
-0.152622
-0.15514
-0.157687
-0.160264
-0.162868
-0.165501
-0.168161
-0.170847
-0.173561
-0.1763
-0.179065
-0.181856
-0.184671
-0.187512
-0.190377
-0.193267
-0.19618
-0.199118
-0.202079
-0.205064
-0.208071
-0.211101
-0.214154
-0.21723
-0.220327
-0.223446
-0.226586
-0.229747
-0.232928
-0.23613
-0.239351
-0.242592
-0.245851
-0.249129
-0.252425
-0.255738
-0.259068
-0.262415
-0.265777
-0.269154
-0.272546
-0.275952
-0.279371
-0.282803
-0.286247
-0.289703
-0.293169
-0.296646
-0.300133
-0.303629
-0.307134
-0.310646
-0.314165
-0.317692
-0.321224
-0.324762
-0.328305
-0.331852
-0.335403
-0.338958
-0.342515
-0.346075
-0.349637
-0.3532
-0.356764
-0.360328
-0.363893
-0.367457
-0.371021
-0.374584
-0.378145
-0.381705
-0.385263
-0.38882
-0.392374
-0.395925
-0.399475
-0.403021
-0.406562
-0.410106
-0.413645
-0.417182
-0.420717
-0.424249
-0.42778
-0.431309
-0.434837
-0.438364
-0.441892
-0.44542
-0.448948
-0.452479
-0.456011
-0.459547
-0.463087
-0.466632
-0.470184
-0.473742
-0.47731
-0.480886
-0.484475
-0.488076
-0.49169
-0.495318
-0.498965
-0.502622
-0.506324
-0.510032
-0.513766
-0.517525
-0.521312
-0.52513
-0.528979
-0.532862
-0.536779
-0.540736
-0.544732
-0.54877
-0.552852
-0.556979
-0.561154
-0.565379
-0.569654
-0.573983
-0.578365
-0.582804
-0.587301
-0.591856
-0.596472
-0.601149
-0.605888
-0.610691
-0.615558
-0.62049
-0.625487
-0.630551
-0.63568
-0.640875
-0.646137
-0.651463
-0.656855
-0.66231
-0.66783
-0.673412
-0.679055
-0.684758
-0.69052
-0.69634
-0.702215
-0.708145
-0.714127
-0.720159
-0.72624
-0.732367
-0.73854
-0.744756
-0.751013
-0.757312
-0.76364
-0.770094
-0.000387259
-0.00153103
-0.00263874
-0.00377074
-0.00490136
-0.00610869
-0.00731666
-0.00855236