/*--------------------------------*- C++ -*----------------------------------*\
| =========                 |                                                 |
| \\      /  F ield         | OpenFOAM: The Open Source CFD Toolbox           |
|  \\    /   O peration     | Version:  2.4.0                                 |
|   \\  /    A nd           | Web:      www.OpenFOAM.org                      |
|    \\/     M anipulation  |                                                 |
\*---------------------------------------------------------------------------*/
FoamFile
{
    version     2.0;
    format      ascii;
    class       surfaceScalarField;
    location    "5";
    object      phi;
}
// * * * * * * * * * * * * * * * * * * * * * * * * * * * * * * * * * * * * * //

dimensions      [0 3 -1 0 0 0 0];

internalField   nonuniform List<scalar> 
15580
(
-3.07237e-14
-1.2959e-12
-1.40102e-13
-3.74129e-12
-3.39455e-13
-6.04366e-12
-6.3703e-13
-8.20438e-12
-1.0407e-12
-1.02233e-11
-1.55814e-12
-1.21e-11
-2.19705e-12
-1.38348e-11
-2.96534e-12
-1.54274e-11
-3.87127e-12
-1.68776e-11
-4.92364e-12
-1.81851e-11
-6.13199e-12
-1.93494e-11
-7.50681e-12
-2.03699e-11
-9.05986e-12
-2.12457e-11
-1.08045e-11
-2.19756e-11
-1.27541e-11
-2.25598e-11
-1.49188e-11
-2.30022e-11
-1.73031e-11
-2.3313e-11
-2.94129e-11
-2.34888e-11
-7.03972e-11
-2.37602e-11
-7.43112e-11
-2.28386e-11
-1.03058e-10
4.42502e-12
-1.39211e-10
4.70379e-11
-1.44981e-10
6.81544e-11
-1.30261e-10
7.60447e-11
-1.03417e-10
7.73336e-11
-6.9917e-11
7.61026e-11
-3.29753e-11
7.44992e-11
5.63987e-12
7.34701e-11
4.50019e-11
7.33077e-11
8.46494e-11
7.39864e-11
1.24368e-10
7.53551e-11
1.64086e-10
7.72238e-11
2.03809e-10
7.94191e-11
2.43583e-10
8.17938e-11
2.83467e-10
8.42376e-11
3.2351e-10
8.66681e-11
3.63745e-10
8.90281e-11
4.04181e-10
9.1278e-11
4.44811e-10
9.33912e-11
4.85611e-10
9.53518e-11
5.26546e-10
9.71502e-11
5.67571e-10
9.87803e-11
6.08637e-10
1.00238e-10
6.49692e-10
1.0152e-10
6.90682e-10
1.0262e-10
7.31558e-10
1.03531e-10
7.72277e-10
1.04245e-10
8.12803e-10
1.0475e-10
8.53107e-10
1.05033e-10
1.05079e-10
8.93177e-10
-7.17722e-14
-1.22412e-12
-2.79893e-13
-3.53316e-12
-6.19066e-13
-5.70449e-12
-1.08508e-12
-7.73837e-12
-1.67426e-12
-9.63408e-12
-2.38328e-12
-1.1391e-11
-3.2091e-12
-1.30089e-11
-4.14893e-12
-1.44875e-11
-5.20012e-12
-1.58264e-11
-6.36015e-12
-1.70251e-11
-7.6265e-12
-1.80831e-11
-8.99611e-12
-1.90003e-11
-1.0465e-11
-1.97768e-11
-1.20291e-11
-2.04114e-11
-1.36944e-11
-2.08946e-11
-1.54889e-11
-2.12077e-11
-1.87728e-11
-2.13652e-11
-7.18049e-11
-2.17641e-11
-7.40106e-11
-2.15546e-11
-9.5721e-11
-1.12822e-12
-1.24397e-10
3.31006e-11
-1.25106e-10
4.77471e-11
-1.08239e-10
5.12876e-11
-8.18398e-11
4.96455e-11
-5.09947e-11
4.64885e-11
-1.85438e-11
4.36517e-11
1.41075e-11
4.18478e-11
4.63825e-11
4.11951e-11
7.81488e-11
4.15414e-11
1.09492e-10
4.26429e-11
1.40597e-10
4.42505e-11
1.71671e-10
4.61497e-11
2.02918e-10
4.81726e-11
2.34511e-10
5.02006e-11
2.66596e-10
5.21529e-11
2.99277e-10
5.39867e-11
3.32627e-10
5.56777e-11
3.66685e-10
5.72207e-11
4.01457e-10
5.86189e-11
4.3693e-10
5.98789e-11
4.73068e-10
6.10123e-11
5.09825e-10
6.20228e-11
5.47146e-10
6.2918e-11
5.84969e-10
6.36965e-11
6.23233e-10
6.43561e-11
6.61871e-10
6.48928e-11
7.00821e-10
6.52946e-11
7.40021e-10
6.55499e-11
7.7941e-10
6.56447e-11
6.55631e-11
8.18926e-10
-7.06347e-14
-1.15349e-12
-2.63998e-13
-3.3398e-12
-5.69357e-13
-5.39913e-12
-9.79917e-13
-7.32781e-12
-1.48936e-12
-9.12464e-12
-2.09164e-12
-1.07887e-11
-2.78087e-12
-1.23197e-11
-3.55124e-12
-1.37172e-11
-4.39686e-12
-1.49808e-11
-5.3116e-12
-1.61104e-11
-6.28907e-12
-1.71056e-11
-7.32335e-12
-1.7966e-11
-8.40975e-12
-1.86904e-11
-9.54151e-12
-1.92797e-11
-1.06893e-11
-1.97468e-11
-1.17663e-11
-2.01307e-11
-8.64826e-11
-2.05172e-11
-8.78506e-11
-2.04537e-11
-1.0094e-10
-8.46523e-12
-1.23736e-10
2.16681e-11
-1.24087e-10
3.34515e-11
-1.1155e-10
3.52097e-11
-9.27008e-11
3.24386e-11
-7.17423e-11
2.86869e-11
-5.08813e-11
2.56275e-11
-3.10551e-11
2.38256e-11
-1.24778e-11
2.32705e-11
5.00899e-12
2.37083e-11
2.17347e-11
2.48157e-11
3.80729e-11
2.63047e-11
5.4387e-11
2.79365e-11
7.09983e-11
2.95383e-11
8.81722e-11
3.09988e-11
1.06118e-10
3.22545e-11
1.24992e-10
3.3279e-11
1.44907e-10
3.40721e-11
1.65934e-10
3.465e-11
1.88119e-10
3.50357e-11
2.11481e-10
3.52568e-11
2.36021e-10
3.5339e-11
2.61729e-10
3.53047e-11
2.88579e-10
3.51723e-11
3.16545e-10
3.49525e-11
3.45586e-10
3.4655e-11
3.75661e-10
3.42817e-11
4.06722e-10
3.38321e-11
4.38715e-10
3.33008e-11
4.71584e-10
3.26815e-11
5.05263e-10
3.19653e-11
3.11482e-11
5.39678e-10
-9.64341e-15
-1.14385e-12
-5.76189e-14
-3.29183e-12
-1.51726e-13
-5.30502e-12
-2.94274e-13
-7.18526e-12
-4.87544e-13
-8.93137e-12
-7.33845e-13
-1.05424e-11
-1.03559e-12
-1.20179e-11
-1.3954e-12
-1.33574e-11
-1.81618e-12
-1.456e-11
-2.30124e-12
-1.56253e-11
-2.85403e-12
-1.65528e-11
-3.47755e-12
-1.73425e-11
-4.17471e-12
-1.79933e-11
-4.95687e-12
-1.84975e-11
-5.86366e-12
-1.88401e-11
-1.15277e-11
-1.90266e-11
-5.88773e-11
-1.93357e-11
-6.0903e-11
-1.8428e-11
-7.76941e-11
8.32581e-12
-8.03601e-11
2.43341e-11
-7.56528e-11
2.87442e-11
-6.80082e-11
2.75651e-11
-6.0446e-11
2.48764e-11
-5.43864e-11
2.26273e-11
-5.02454e-11
2.14865e-11
-4.78732e-11
2.14533e-11
-4.68469e-11
2.22442e-11
-4.66503e-11
2.35117e-11
-4.67741e-11
2.49396e-11
-4.67543e-11
2.62849e-11
-4.62065e-11
2.73887e-11
-4.48073e-11
2.81391e-11
-4.23132e-11
2.85046e-11
-3.85314e-11
2.84726e-11
-3.33272e-11
2.80748e-11
-2.65972e-11
2.73422e-11
-1.82714e-11
2.63242e-11
-8.30621e-12
2.50705e-11
3.32808e-12
2.36226e-11
1.66639e-11
2.20032e-11
3.1701e-11
2.02675e-11
4.84505e-11
1.84228e-11
6.68931e-11
1.65099e-11
8.70246e-11
1.45234e-11
1.08829e-10
1.2477e-11
1.32272e-10
1.03894e-11
1.57307e-10
8.26556e-12
1.83916e-10
6.07296e-12
2.1202e-10
3.86131e-12
1.58247e-12
2.41586e-10
-2.05734e-14
-1.12327e-12
-6.64119e-14
-3.24599e-12
-1.30743e-13
-5.24069e-12
-2.11518e-13
-7.10449e-12
-3.07267e-13
-8.83562e-12
-4.1704e-13
-1.04327e-11
-5.40294e-13
-1.18947e-11
-6.76765e-13
-1.32209e-11
-8.26345e-13
-1.44104e-11
-9.88979e-13
-1.54627e-11
-1.165e-12
-1.63768e-11
-1.35542e-12
-1.71521e-11
-1.56095e-12
-1.77877e-11
-1.77222e-12
-1.82863e-11
-1.96131e-12
-1.86632e-11
-6.96274e-11
-1.8982e-11
-7.00048e-11
-1.89584e-11
-8.27363e-11
-5.69653e-12
-8.96494e-11
1.52389e-11
-8.83204e-11
2.30052e-11
-8.43686e-11
2.47924e-11
-8.1237e-11
2.44335e-11
-8.03686e-11
2.4008e-11
-8.20257e-11
2.42844e-11
-8.58476e-11
2.53085e-11
-9.12069e-11
2.68126e-11
-9.74227e-11
2.846e-11
-1.03846e-10
2.99351e-11
-1.09919e-10
3.10127e-11
-1.15178e-10
3.15441e-11
-1.19246e-10
3.14565e-11
-1.21841e-10
3.0734e-11
-1.22737e-10
2.94007e-11
-1.21771e-10
2.75059e-11
-1.1881e-10
2.51139e-11
-1.13762e-10
2.22951e-11
-1.06554e-10
1.91162e-11
-9.71177e-11
1.56338e-11
-8.53989e-11
1.19037e-11
-7.13684e-11
7.97266e-12
-5.49942e-11
3.8933e-12
-3.63209e-11
-2.5044e-13
-1.53315e-11
-4.47952e-12
7.95387e-12
-8.7619e-12
3.35038e-11
-1.30729e-11
6.12794e-11
-1.73862e-11
9.12252e-11
-2.16803e-11
1.2324e-10
-2.59416e-11
1.57262e-10
-3.01609e-11
-3.43268e-11
1.93171e-10
4.72835e-14
-1.17056e-12
1.83995e-13
-3.3827e-12
4.04855e-13
-5.46155e-12
7.0423e-13
-7.40386e-12
1.07593e-12
-9.20732e-12
1.51327e-12
-1.087e-11
2.00917e-12
-1.23906e-11
2.55629e-12
-1.3768e-11
3.14703e-12
-1.50012e-11
3.77375e-12
-1.60894e-11
4.42888e-12
-1.7032e-11
5.10552e-12
-1.78287e-11
5.79674e-12
-1.84789e-11
6.49216e-12
-1.89817e-11
7.16513e-12
-1.93362e-11
-5.36268e-11
-1.95714e-11
-5.29097e-11
-1.96754e-11
-6.32876e-11
4.68141e-12
-6.45692e-11
1.65205e-11
-6.23812e-11
2.08172e-11
-6.00287e-11
2.24399e-11
-5.89993e-11
2.34041e-11
-5.97165e-11
2.47251e-11
-6.19566e-11
2.65245e-11
-6.5185e-11
2.85369e-11
-6.87689e-11
3.03965e-11
-7.20805e-11
3.17716e-11
-7.45619e-11
3.24165e-11
-7.57282e-11
3.2179e-11
-7.51753e-11
3.09911e-11
-7.25671e-11
2.88483e-11
-6.76268e-11
2.57937e-11
-6.01175e-11
2.18915e-11
-4.9843e-11
1.72313e-11
-3.66255e-11
1.18964e-11
-2.0336e-11
6.00562e-12
-8.95986e-13
-3.23827e-13
2.19154e-11
-7.17765e-12
4.80628e-11
-1.42437e-11
7.76056e-11
-2.15701e-11
1.10432e-10
-2.89335e-11
1.46383e-10
-3.62013e-11
1.85351e-10
-4.34471e-11
2.27248e-10
-5.0659e-11
2.71914e-10
-5.77391e-11
3.19187e-10
-6.46596e-11
3.68882e-10
-7.13744e-11
4.20809e-10
-7.78691e-11
4.74782e-10
-8.41341e-11
-9.01415e-11
5.30597e-10
1.55324e-13
-1.32588e-12
5.92806e-13
-3.82018e-12
1.28636e-12
-6.1551e-12
2.21148e-12
-8.32899e-12
3.34413e-12
-1.034e-11
4.6603e-12
-1.21862e-11
6.13586e-12
-1.38662e-11
7.74648e-12
-1.53786e-11
9.46749e-12
-1.67222e-11
1.12738e-11
-1.78957e-11
1.31396e-11
-1.88978e-11
1.50387e-11
-1.97277e-11
1.69429e-11
-2.03832e-11
1.88218e-11
-2.08606e-11
2.0646e-11
-2.11605e-11
-3.99286e-11
-2.13096e-11
-3.82286e-11
-2.13754e-11
-3.35712e-11
2.39991e-14
-2.73059e-11
1.02551e-11
-2.04874e-11
1.39987e-11
-1.35929e-11
1.55454e-11
-6.69099e-12
1.65022e-11
3.93067e-13
1.76411e-11
7.98143e-12
1.89362e-11
1.64622e-11
2.00562e-11
2.62403e-11
2.06183e-11
3.77087e-11
2.03033e-11
5.12337e-11
1.88915e-11
6.71524e-11
1.62603e-11
8.57858e-11
1.23578e-11
1.07433e-10
7.20125e-12
1.32265e-10
9.61541e-13
1.603e-10
-6.14339e-12
1.91769e-10
-1.42378e-11
2.26784e-10
-2.31182e-11
2.65508e-10
-3.27193e-11
3.07743e-10
-4.25581e-11
3.53152e-10
-5.25866e-11
4.01923e-10
-6.30151e-11
4.53961e-10
-7.36077e-11
5.08965e-10
-8.39376e-11
5.66732e-10
-9.3968e-11
6.27134e-10
-1.03849e-10
6.89871e-10
-1.13396e-10
7.54734e-10
-1.22602e-10
8.21446e-10
-1.31371e-10
8.89758e-10
-1.39687e-10
9.59405e-10
-1.47516e-10
1.03013e-09
-1.54858e-10
-1.61686e-10
1.10167e-09
2.19149e-13
-1.54503e-12
8.46167e-13
-4.4472e-12
1.85354e-12
-7.16248e-12
3.21568e-12
-9.69113e-12
4.90717e-12
-1.20315e-11
6.90249e-12
-1.41815e-11
9.17625e-12
-1.61399e-11
1.17033e-11
-1.79057e-11
1.44591e-11
-1.9478e-11
1.74194e-11
-2.0856e-11
2.05608e-11
-2.20392e-11
2.38608e-11
-2.30277e-11
2.72966e-11
-2.3819e-11
3.08428e-11
-2.44067e-11
3.44569e-11
-2.47746e-11
-2.31989e-11
-2.49247e-11
-1.95033e-11
-2.50711e-11
-6.61717e-12
-1.28621e-11
6.92981e-12
-3.29185e-12
2.08114e-11
1.17085e-13
3.62132e-11
1.43591e-13
5.33761e-11
-6.60676e-13
7.25877e-11
-1.57055e-12
9.39729e-11
-2.44906e-12
1.17679e-10
-3.65032e-12
1.43856e-10
-5.55777e-12
1.72646e-10
-8.48753e-12
2.04197e-10
-1.26594e-11
2.38654e-10
-1.81964e-11
2.76145e-10
-2.5133e-11
3.16887e-10
-3.35415e-11
3.6066e-10
-4.28106e-11
4.07443e-10
-5.29264e-11
4.57278e-10
-6.40733e-11
5.09904e-10
-7.57438e-11
5.65012e-10
-8.78279e-11
6.22145e-10
-9.96908e-11
6.80958e-10
-1.11399e-10
7.41361e-10
-1.23418e-10
8.02981e-10
-1.35228e-10
8.65587e-10
-1.46544e-10
9.29113e-10
-1.57494e-10
9.93279e-10
-1.68015e-10
1.05794e-09
-1.7806e-10
1.12292e-09
-1.87577e-10
1.18805e-09
-1.96508e-10
1.25318e-09
-2.04811e-10
1.31813e-09
-2.12467e-10
1.38275e-09
-2.19479e-10
-2.25834e-10
1.4469e-09
2.87192e-13
-1.83222e-12
1.1233e-12
-5.28331e-12
2.47664e-12
-8.51582e-12
4.31181e-12
-1.15263e-11
6.59403e-12
-1.43137e-11
9.2894e-12
-1.68769e-11
1.23649e-11
-1.92155e-11
1.57887e-11
-2.13294e-11
1.95295e-11
-2.32189e-11
2.35575e-11
-2.48839e-11
2.78433e-11
-2.6325e-11
3.23579e-11
-2.75423e-11
3.70752e-11
-2.85363e-11
4.19802e-11
-2.93118e-11
4.70842e-11
-2.98787e-11
-1.93242e-11
-3.0273e-11
-1.41138e-11
-3.02814e-11
1.90367e-13
-2.71663e-11
1.72481e-11
-2.03496e-11
3.36248e-11
-1.62596e-11
5.16615e-11
-1.78931e-11
7.24548e-11
-2.1454e-11
9.65323e-11
-2.5648e-11
1.23977e-10
-2.98934e-11
1.54573e-10
-3.42471e-11
1.88014e-10
-3.89987e-11
2.24007e-10
-4.44802e-11
2.6231e-10
-5.09623e-11
3.02661e-10
-5.85475e-11
3.4513e-10
-6.76022e-11
3.89221e-10
-7.76317e-11
4.3455e-10
-8.81405e-11
4.81089e-10
-9.94647e-11
5.28513e-10
-1.11498e-10
5.76629e-10
-1.23859e-10
6.25076e-10
-1.36276e-10
6.73997e-10
-1.48612e-10
7.2333e-10
-1.60732e-10
7.72679e-10
-1.72768e-10
8.21684e-10
-1.84232e-10
8.70419e-10
-1.95279e-10
9.18732e-10
-2.05807e-10
9.66534e-10
-2.15817e-10
1.01374e-09
-2.25264e-10
1.06028e-09
-2.34119e-10
1.10613e-09
-2.42354e-10
1.15127e-09
-2.49957e-10
1.19572e-09
-2.56916e-10
1.23948e-09
-2.63237e-10
-2.68919e-10
1.28256e-09
3.48214e-13
-2.18044e-12
1.32525e-12
-6.26035e-12
2.87507e-12
-1.00656e-11
4.94819e-12
-1.35994e-11
7.49579e-12
-1.68613e-11
1.04705e-11
-1.98515e-11
1.38255e-11
-2.25705e-11
1.75144e-11
-2.50183e-11
2.14902e-11
-2.71947e-11
2.57053e-11
-2.9099e-11
3.01108e-11
-3.07304e-11
3.46567e-11
-3.20882e-11
3.92929e-11
-3.31725e-11
4.39637e-11
-3.39826e-11
4.85971e-11
-3.45121e-11
5.07483e-11
-3.47583e-11
4.359e-11
-3.46611e-11
5.10221e-11
-3.45983e-11
6.37116e-11
-3.30391e-11
7.53163e-11
-2.78643e-11
8.55641e-11
-2.81408e-11
9.62871e-11
-3.21769e-11
1.08373e-10
-3.77342e-11
1.22272e-10
-4.37923e-11
1.3801e-10
-4.99845e-11
1.5528e-10
-5.62694e-11
1.73767e-10
-6.29673e-11
1.93273e-10
-7.04679e-11
2.13997e-10
-7.92714e-11
2.35501e-10
-8.91069e-11
2.57168e-10
-9.92981e-11
2.79327e-10
-1.10299e-10
3.01911e-10
-1.22049e-10
3.24724e-10
-1.34311e-10
3.47725e-10
-1.46859e-10
3.70963e-10
-1.59514e-10
3.94489e-10
-1.72138e-10
4.18377e-10
-1.84619e-10
4.42439e-10
-1.96831e-10
4.669e-10
-2.08693e-10
4.91723e-10
-2.20102e-10
5.16939e-10
-2.31024e-10
5.42537e-10
-2.41414e-10
5.68514e-10
-2.51241e-10
5.94872e-10
-2.60477e-10
6.21622e-10
-2.69103e-10
6.4877e-10
-2.77105e-10
6.76327e-10
-2.84474e-10
7.04292e-10
-2.91202e-10
-2.97288e-10
7.32661e-10
2.88614e-13
-2.46905e-12
1.13511e-12
-7.10684e-12
2.51266e-12
-1.14432e-11
4.39085e-12
-1.54776e-11
6.7414e-12
-1.92118e-11
9.53756e-12
-2.26477e-11
1.27535e-11
-2.57864e-11
1.63635e-11
-2.86284e-11
2.03416e-11
-3.11728e-11
2.46604e-11
-3.34178e-11
2.92911e-11
-3.53611e-11
3.42035e-11
-3.70007e-11
3.93769e-11
-3.83459e-11
4.48115e-11
-3.94172e-11
5.01466e-11
-3.98472e-11
5.54409e-11
-4.00585e-11
8.91632e-12
-3.9858e-11
1.37135e-11
-3.93955e-11
1.90942e-11
-3.84198e-11
2.17895e-11
-3.05597e-11
2.13517e-11
-2.7703e-11
1.90509e-11
-2.98762e-11
1.55663e-11
-3.42496e-11
1.13408e-11
-3.95667e-11
6.94397e-12
-4.55877e-11
2.08159e-12
-5.1407e-11
-3.19415e-12
-5.76916e-11
-9.06332e-12
-6.45987e-11
-1.39899e-11
-7.43448e-11
-1.90095e-11
-8.40873e-11
-2.32498e-11
-9.50578e-11
-2.66423e-11
-1.06907e-10
-2.90415e-11
-1.1965e-10
-3.03127e-11
-1.3304e-10
-3.02837e-11
-1.46888e-10
-2.87977e-11
-1.61e-10
-2.57343e-11
-1.75201e-10
-2.10162e-11
-1.89338e-10
-1.45772e-11
-2.0327e-10
-6.38714e-12
-2.16883e-10
3.59231e-12
-2.30082e-10
1.53556e-11
-2.42787e-10
2.88754e-11
-2.54934e-10
4.41066e-11
-2.66472e-10
6.09909e-11
-2.77362e-10
7.9461e-11
-2.87573e-10
9.94422e-11
-2.97087e-10
1.20856e-10
-3.05887e-10
1.4362e-10
-3.13966e-10
-3.2132e-10
1.67653e-10
7.7342e-14
-2.54639e-12
2.93068e-13
-7.32257e-12
6.69094e-13
-1.18192e-11
1.24507e-12
-1.60536e-11
2.05933e-12
-2.00261e-11
3.14677e-12
-2.37351e-11
4.53721e-12
-2.71769e-11
6.25376e-12
-3.03449e-11
8.31237e-12
-3.32314e-11
1.07259e-11
-3.58314e-11
1.35247e-11
-3.81599e-11
1.67323e-11
-4.02083e-11
2.00046e-11
-4.16182e-11
2.31129e-11
-4.25255e-11
2.69211e-11
-4.45257e-11
-8.90929e-13
-4.26699e-11
-2.44178e-11
-4.18754e-11
-7.31656e-11
9.35229e-12
-1.17407e-10
5.82202e-12
-1.63352e-10
1.53849e-11
-2.0937e-10
1.83148e-11
-2.5638e-10
1.7134e-11
-3.04518e-10
1.38887e-11
-3.53953e-10
9.86834e-12
-4.03201e-10
3.66031e-12
-4.49979e-10
-4.62937e-12
-4.93481e-10
-1.41901e-11
-5.33027e-10
-2.50524e-11
-5.69978e-10
-3.7394e-11
-6.03319e-10
-5.07457e-11
-6.32904e-10
-6.54736e-11
-6.58239e-10
-8.15716e-11
-6.79333e-10
-9.85556e-11
-6.96174e-10
-1.16199e-10
-7.08823e-10
-1.34239e-10
-7.17401e-10
-1.52422e-10
-7.22079e-10
-1.70523e-10
-7.23066e-10
-1.88351e-10
-7.20578e-10
-2.05758e-10
-7.14837e-10
-2.22624e-10
-7.06064e-10
-2.38856e-10
-6.94467e-10
-2.54383e-10
-6.80247e-10
-2.69155e-10
-6.63583e-10
-2.83135e-10
-6.44644e-10
-2.96301e-10
-6.23578e-10
-3.08639e-10
-6.00522e-10
-3.20143e-10
-5.75599e-10
-3.3081e-10
-5.48921e-10
-3.40645e-10
-3.4965e-10
-5.20591e-10
-6.3765e-13
-1.90874e-12
-2.24198e-12
-5.71824e-12
-4.48194e-12
-9.57925e-12
-7.02596e-12
-1.35096e-11
-9.56204e-12
-1.749e-11
-1.17926e-11
-2.15046e-11
-1.3424e-11
-2.55454e-11
-1.41363e-11
-2.96327e-11
-1.36034e-11
-3.37643e-11
-1.15446e-11
-3.78901e-11
-9.53723e-12
-4.01673e-11
-7.33792e-12
-4.24076e-11
-6.21543e-12
-4.44216e-11
-4.43431e-11
-4.36813e-11
-9.84658e-11
-1.14378e-11
-9.79378e-11
-4.33548e-11
-1.13008e-10
-2.6805e-11
-1.93105e-10
8.9449e-11
-2.93463e-10
1.0618e-10
-3.87971e-10
1.09893e-10
-4.78385e-10
1.08729e-10
-5.67593e-10
1.06341e-10
-6.56786e-10
1.03082e-10
-7.45584e-10
9.8666e-11
-8.30583e-10
8.86595e-11
-9.0763e-10
7.24176e-11
-9.75905e-10
5.40846e-11
-1.03457e-09
3.36126e-11
-1.08451e-09
1.25441e-11
-1.12796e-09
-7.29877e-12
-1.16539e-09
-2.80408e-11
-1.19722e-09
-4.97437e-11
-1.22386e-09
-7.19134e-11
-1.24579e-09
-9.42669e-11
-1.26345e-09
-1.16575e-10
-1.27721e-09
-1.3867e-10
-1.28729e-09
-1.60435e-10
-1.2939e-09
-1.81745e-10
-1.2972e-09
-2.02458e-10
-1.29733e-09
-2.2249e-10
-1.29441e-09
-2.41777e-10
-1.28852e-09
-2.60271e-10
-1.27974e-09
-2.77936e-10
-1.26813e-09
-2.94751e-10
-1.25373e-09
-3.10696e-10
-1.23662e-09
-3.25749e-10
-1.21687e-09
-3.39893e-10
-1.19456e-09
-3.53124e-10
-1.16976e-09
-3.65442e-10
-3.76851e-10
-1.14256e-09
-3.19148e-13
-1.5896e-12
-5.14311e-13
-5.52308e-12
-7.77053e-14
-1.00159e-11
1.37518e-12
-1.49625e-11
4.23832e-12
-2.03532e-11
8.94295e-12
-2.62092e-11
1.59109e-11
-3.25133e-11
2.57311e-11
-3.94529e-11
3.64704e-11
-4.45036e-11
4.98295e-11
-5.12492e-11
3.05235e-11
-6.44798e-11
-8.37637e-12
-5.39175e-11
-6.47255e-11
2.44552e-12
-2.7216e-11
-8.12889e-11
-2.72717e-10
2.34063e-10
-4.97275e-10
1.81203e-10
-7.02508e-10
1.78428e-10
-8.58894e-10
2.45835e-10
-1.00235e-09
2.4964e-10
-1.13346e-09
2.41003e-10
-1.25868e-09
2.33948e-10
-1.37985e-09
2.27509e-10
-1.49633e-09
2.19558e-10
-1.60611e-09
2.08454e-10
-1.70485e-09
1.87394e-10
-1.794e-09
1.61574e-10
-1.87201e-09
1.32089e-10
-1.94052e-09
1.02125e-10
-2.00082e-09
7.28378e-11
-2.05261e-09
4.44914e-11
-2.09752e-09
1.68711e-11
-2.13632e-09
-1.09384e-11
-2.16948e-09
-3.87521e-11
-2.19843e-09
-6.53243e-11
-2.22426e-09
-9.07442e-11
-2.24752e-09
-1.15403e-10
-2.26737e-09
-1.40588e-10
-2.28269e-09
-1.66428e-10
-2.29316e-09
-1.91984e-10
-2.29893e-09
-2.16726e-10
-2.3001e-09
-2.40606e-10
-2.29676e-09
-2.6361e-10
-2.28897e-09
-2.85723e-10
-2.27682e-09
-3.06903e-10
-2.26037e-09
-3.2714e-10
-2.23973e-09
-3.46397e-10
-2.21502e-09
-3.64596e-10
-2.18645e-09
-3.81696e-10
-2.15418e-09
-3.9771e-10
-4.12631e-10
-2.1184e-09
1.97933e-12
-3.56892e-12
7.4597e-12
-1.10034e-11
1.62647e-11
-1.88208e-11
2.84187e-11
-2.71164e-11
4.40076e-11
-3.59421e-11
6.01073e-11
-4.23089e-11
7.76996e-11
-5.01057e-11
5.80226e-11
-5.72841e-11
1.31811e-11
-1.34598e-10
-1.06888e-10
7.83473e-12
-2.16742e-11
-1.54259e-10
-2.45958e-10
1.70317e-10
-3.26081e-10
8.2568e-11
-5.71462e-10
1.64092e-10
-6.99933e-10
3.62535e-10
-9.18771e-10
4.00041e-10
-1.13085e-09
3.90505e-10
-1.26942e-09
3.8441e-10
-1.3913e-09
3.71514e-10
-1.50749e-09
3.57191e-10
-1.62266e-09
3.49125e-10
-1.74223e-09
3.47074e-10
-1.85323e-09
3.30562e-10
-1.94717e-09
3.02394e-10
-2.029e-09
2.69222e-10
-2.09895e-09
2.31526e-10
-2.16122e-09
1.94361e-10
-2.21869e-09
1.59587e-10
-2.27334e-09
1.27494e-10
-2.32714e-09
9.82906e-11
-2.38139e-09
7.11243e-11
-2.43435e-09
4.20183e-11
-2.48478e-09
1.16805e-11
-2.53421e-09
-1.58995e-11
-2.58504e-09
-3.99097e-11
-2.63876e-09
-6.1683e-11
-2.69323e-09
-8.61252e-11
-2.74185e-09
-1.17801e-10
-2.78172e-09
-1.52117e-10
-2.81355e-09
-1.84898e-10
-2.83823e-09
-2.15925e-10
-2.85612e-09
-2.45715e-10
-2.86759e-09
-2.74259e-10
-2.87314e-09
-3.0135e-10
-2.87324e-09
-3.2704e-10
-2.86776e-09
-3.51874e-10
-2.85629e-09
-3.76066e-10
-2.83865e-09
-3.99345e-10
-2.8151e-09
-4.21251e-10
-4.41693e-10
-2.78604e-09
1.0364e-12
-4.60532e-12
3.88345e-12
-1.38505e-11
8.1718e-12
-2.31092e-11
1.33008e-11
-3.22454e-11
1.8611e-11
-4.12523e-11
-1.66995e-11
-6.827e-11
-1.88561e-10
7.40816e-12
-2.48084e-10
-1.90578e-11
-3.86995e-10
4.15541e-12
-6.42493e-10
2.63192e-10
-1.10631e-09
3.09555e-10
-1.32674e-09
3.90755e-10
-1.66233e-09
4.18154e-10
-1.92716e-09
4.28926e-10
-2.01814e-09
4.53506e-10
-2.07508e-09
4.56982e-10
-2.13153e-09
4.46957e-10
-2.17743e-09
4.30312e-10
-2.21694e-09
4.11029e-10
-2.25296e-09
3.93203e-10
-2.28374e-09
3.79904e-10
-2.30593e-09
3.69263e-10
-2.33161e-09
3.56249e-10
-2.3632e-09
3.33986e-10
-2.39673e-09
3.02749e-10
-2.43607e-09
2.70863e-10
-2.47991e-09
2.382e-10
-2.52906e-09
2.08735e-10
-2.58477e-09
1.83205e-10
-2.64826e-09
1.61784e-10
-2.72162e-09
1.44478e-10
-2.80023e-09
1.2063e-10
-2.87876e-09
9.02087e-11
-2.95258e-09
5.79237e-11
-3.02227e-09
2.97832e-11
-3.0894e-09
5.44378e-12
-3.15822e-09
-1.73026e-11
-3.22722e-09
-4.88028e-11
-3.28637e-09
-9.29703e-11
-3.33811e-09
-1.3315e-10
-3.37919e-09
-1.74853e-10
-3.41173e-09
-2.1317e-10
-3.43569e-09
-2.50296e-10
-3.45367e-09
-2.83376e-10
-3.46989e-09
-3.10821e-10
-3.48404e-09
-3.37719e-10
-3.49158e-09
-3.68527e-10
-3.48993e-09
-4.00996e-10
-3.47891e-09
-4.32272e-10
-4.61479e-10
-3.45912e-09
-1.62606e-12
-2.97926e-12
-7.06756e-12
-8.409e-12
-1.66144e-11
-1.35623e-11
-3.22936e-11
-1.9025e-11
-4.56076e-10
-2.72424e-11
-4.82807e-10
-6.22022e-11
-5.74524e-10
9.84643e-11
-7.67459e-10
1.73877e-10
-1.03038e-09
2.67078e-10
-1.24797e-09
4.80782e-10
-1.4997e-09
5.61281e-10
-1.65985e-09
5.50908e-10
-1.76939e-09
5.27692e-10
-1.84055e-09
5.00089e-10
-1.86521e-09
4.78169e-10
-1.8648e-09
4.56571e-10
-1.85374e-09
4.35897e-10
-1.83957e-09
4.16134e-10
-1.8254e-09
3.96867e-10
-1.81009e-09
3.7789e-10
-1.79042e-09
3.60231e-10
-1.76653e-09
3.45378e-10
-1.74575e-09
3.3547e-10
-1.73858e-09
3.26812e-10
-1.75078e-09
3.14948e-10
-1.77736e-09
2.97452e-10
-1.81452e-09
2.75353e-10
-1.85993e-09
2.54144e-10
-1.91091e-09
2.34186e-10
-1.96411e-09
2.14983e-10
-2.01803e-09
1.984e-10
-2.07377e-09
1.7637e-10
-2.12796e-09
1.44401e-10
-2.17996e-09
1.09927e-10
-2.22458e-09
7.43968e-11
-2.26029e-09
4.11547e-11
-2.28868e-09
1.10909e-11
-2.318e-09
-1.94867e-11
-2.35773e-09
-5.32431e-11
-2.402e-09
-8.88774e-11
-2.45062e-09
-1.26234e-10
-2.49595e-09
-1.6784e-10
-2.54936e-09
-1.96882e-10
-2.59926e-09
-2.33479e-10
-2.64808e-09
-2.61999e-10
-2.70846e-09
-2.7734e-10
-2.76976e-09
-3.07228e-10
-2.8228e-09
-3.47958e-10
-2.86933e-09
-3.85743e-10
-4.23341e-10
-2.90746e-09
-4.48425e-12
1.50498e-12
-1.71068e-11
4.21352e-12
-3.8139e-11
6.83974e-12
-3.81401e-10
9.78892e-12
-4.18114e-10
9.12858e-12
-4.86307e-10
5.99028e-12
-5.11697e-10
1.23854e-10
-5.5811e-10
2.2029e-10
-6.04624e-10
3.13592e-10
-5.84887e-10
4.61045e-10
-6.21405e-10
5.97798e-10
-7.57526e-10
6.8703e-10
-9.65663e-10
7.35829e-10
-1.212e-09
7.46429e-10
-1.45734e-09
7.23503e-10
-1.6792e-09
6.78429e-10
-1.86893e-09
6.25634e-10
-2.02477e-09
5.71974e-10
-2.15395e-09
5.26042e-10
-2.25883e-09
4.8277e-10
-2.33784e-09
4.39239e-10
-2.38762e-09
3.95163e-10
-2.39833e-09
3.46173e-10
-2.39051e-09
3.18993e-10
-2.36527e-09
2.89715e-10
-2.3326e-09
2.64778e-10
-2.29017e-09
2.32922e-10
-2.24491e-09
2.08885e-10
-2.1967e-09
1.85972e-10
-2.13549e-09
1.53783e-10
-2.05349e-09
1.16398e-10
-1.97382e-09
9.67005e-11
-1.89984e-09
7.04157e-11
-1.82993e-09
4.0018e-11
-1.76406e-09
8.53024e-12
-1.70078e-09
-2.2132e-11
-1.63954e-09
-5.01484e-11
-1.57683e-09
-8.21892e-11
-1.51842e-09
-1.1166e-10
-1.47672e-09
-1.3057e-10
-1.45344e-09
-1.4952e-10
-1.45678e-09
-1.64502e-10
-1.45957e-09
-1.94093e-10
-1.48112e-09
-2.11926e-10
-1.51207e-09
-2.31049e-10
-1.53036e-09
-2.59046e-10
-1.55102e-09
-2.86574e-10
-1.58676e-09
-3.12217e-10
-1.63606e-09
-3.36444e-10
-3.70436e-10
-1.68896e-09
-1.12194e-12
2.62691e-12
-5.00813e-12
8.09971e-12
-1.20403e-11
1.38719e-11
-1.38849e-10
2.01358e-11
-2.97587e-10
4.31877e-11
-2.84595e-10
-1.15562e-11
-2.29661e-10
6.89199e-11
-8.93318e-11
7.99612e-11
1.36471e-10
8.779e-11
3.51774e-10
2.45741e-10
6.00903e-10
3.48669e-10
8.40338e-10
4.47594e-10
1.06965e-09
5.06519e-10
1.262e-09
5.54072e-10
1.3943e-09
5.91206e-10
1.4582e-09
6.14527e-10
1.56858e-09
5.15255e-10
1.7661e-09
3.74453e-10
1.95069e-09
3.41456e-10
2.08083e-09
3.52633e-10
2.15516e-09
3.64907e-10
2.17992e-09
3.70401e-10
2.15492e-09
3.71169e-10
2.10619e-09
3.67731e-10
2.04174e-09
3.54163e-10
1.97549e-09
3.31025e-10
1.90445e-09
3.03962e-10
1.84082e-09
2.72517e-10
1.79132e-09
2.35472e-10
1.7514e-09
1.93698e-10
1.71459e-09
1.53214e-10
1.69239e-09
1.18901e-10
1.6735e-09
8.93057e-11
1.65292e-09
6.05967e-11
1.62549e-09
3.59578e-11
1.5887e-09
1.46583e-11
1.5444e-09
-5.84282e-12
1.49388e-09
-3.16691e-11
1.4377e-09
-5.54806e-11
1.38064e-09
-7.35102e-11
1.31886e-09
-8.77423e-11
1.25515e-09
-1.00795e-10
1.17982e-09
-1.18758e-10
1.10461e-09
-1.3672e-10
1.02962e-09
-1.56057e-10
9.51486e-10
-1.80913e-10
8.763e-10
-2.11388e-10
8.09051e-10
-2.44968e-10
7.49517e-10
-2.7691e-10
-3.04052e-10
6.83133e-10
2.88548e-12
1.10866e-11
2.429e-11
4.23838e-11
3.18517e-11
4.81036e-12
-2.77718e-11
6.39219e-11
5.87272e-11
2.66826e-10
5.0356e-10
8.64257e-10
1.24012e-09
1.59648e-09
1.93181e-09
2.25019e-09
2.65864e-09
3.07858e-09
3.41456e-09
3.68246e-09
3.88782e-09
4.03646e-09
4.13305e-09
4.18769e-09
4.22289e-09
4.25362e-09
4.31656e-09
4.38223e-09
4.4282e-09
4.44607e-09
4.43422e-09
4.40114e-09
4.36223e-09
4.3308e-09
4.31164e-09
4.2757e-09
4.22645e-09
4.17839e-09
4.13671e-09
4.0929e-09
4.01683e-09
3.86955e-09
3.62074e-09
3.38266e-09
3.18268e-09
3.00556e-09
2.83585e-09
2.68143e-09
2.55292e-09
2.44467e-09
9.33006e-10
1.04875e-10
9.72599e-10
1.04408e-10
1.01196e-09
1.03677e-10
1.05115e-09
1.02647e-10
1.09001e-09
1.01534e-10
1.12869e-09
1.00073e-10
1.16728e-09
9.8286e-11
1.20584e-09
9.6189e-11
1.24449e-09
9.37694e-11
1.28332e-09
9.10294e-11
1.32247e-09
8.79596e-11
1.36206e-09
8.45736e-11
1.40224e-09
8.08772e-11
1.44314e-09
7.68766e-11
1.48493e-09
7.25814e-11
1.52779e-09
6.79991e-11
1.5719e-09
6.3142e-11
1.61744e-09
5.80234e-11
1.66464e-09
5.2649e-11
1.71369e-09
4.70372e-11
1.76484e-09
4.11822e-11
1.81836e-09
3.51169e-11
1.87452e-09
2.88213e-11
1.93363e-09
2.23403e-11
1.99597e-09
1.57099e-11
2.06188e-09
8.90667e-12
2.13176e-09
1.93075e-12
2.20571e-09
-4.85523e-12
2.28426e-09
-1.18165e-11
2.36802e-09
-1.88507e-11
2.45746e-09
-2.58268e-11
2.55299e-09
-3.26708e-11
2.65512e-09
-3.93443e-11
2.76429e-09
-4.57288e-11
2.88111e-09
-5.18072e-11
3.00609e-09
-5.74112e-11
3.13961e-09
-6.23322e-11
3.28214e-09
-6.65184e-11
3.43426e-09
-6.99309e-11
3.59637e-09
-7.23417e-11
3.76885e-09
-7.36402e-11
3.95205e-09
-7.36887e-11
4.14619e-09
-7.23322e-11
4.35146e-09
-6.94281e-11
4.56798e-09
-6.48198e-11
4.79579e-09
-5.83843e-11
5.03481e-09
-5.00014e-11
5.28481e-09
-3.95752e-11
5.54547e-09
-2.7057e-11
-1.251e-11
5.81621e-09
8.58545e-10
6.52556e-11
8.98218e-10
6.47354e-11
9.37748e-10
6.41466e-11
9.77099e-10
6.32966e-11
1.01649e-09
6.21402e-11
1.05582e-09
6.07412e-11
1.09506e-09
5.90466e-11
1.13419e-09
5.70585e-11
1.17319e-09
5.47713e-11
1.21206e-09
5.21578e-11
1.25081e-09
4.92142e-11
1.28944e-09
4.59474e-11
1.32796e-09
4.2356e-11
1.3664e-09
3.84313e-11
1.40481e-09
3.41705e-11
1.44324e-09
2.95769e-11
1.48174e-09
2.46417e-11
1.52035e-09
1.94062e-11
1.55918e-09
1.38261e-11
1.59831e-09
7.90192e-12
1.63785e-09
1.6419e-12
1.67776e-09
-4.78855e-12
1.71822e-09
-1.16414e-11
1.75938e-09
-1.88235e-11
1.80142e-09
-2.63252e-11
1.84447e-09
-3.41431e-11
1.88867e-09
-4.22755e-11
1.93453e-09
-5.07117e-11
1.98218e-09
-5.94703e-11
2.03187e-09
-6.85364e-11
2.08393e-09
-7.78865e-11
2.13874e-09
-8.74798e-11
2.19667e-09
-9.72795e-11
2.25819e-09
-1.07246e-10
2.32371e-09
-1.17324e-10
2.39374e-09
-1.27447e-10
2.4689e-09
-1.37486e-10
2.54977e-09
-1.47389e-10
2.6369e-09
-1.5706e-10
2.73094e-09
-1.6638e-10
2.8325e-09
-1.75207e-10
2.94222e-09
-1.83402e-10
3.06071e-09
-1.90824e-10
3.1886e-09
-1.97321e-10
3.32651e-09
-2.02731e-10
3.47502e-09
-2.06889e-10
3.63466e-09
-2.09647e-10
3.80595e-09
-2.10867e-10
3.98929e-09
-2.10392e-10
-2.08244e-10
4.18502e-09
5.74738e-10
3.01956e-11
6.10363e-10
2.91107e-11
6.46638e-10
2.78716e-11
6.83445e-10
2.64896e-11
7.2065e-10
2.4935e-11
7.58207e-10
2.31842e-11
7.96012e-10
2.12417e-11
8.33957e-10
1.91135e-11
8.71941e-10
1.67872e-11
9.0987e-10
1.42287e-11
9.4765e-10
1.1434e-11
9.85198e-10
8.39916e-12
1.02241e-09
5.14319e-12
1.0592e-09
1.63754e-12
1.0955e-09
-2.12364e-12
1.13122e-09
-6.14028e-12
1.16626e-09
-1.0398e-11
1.20058e-09
-1.49137e-11
1.23409e-09
-1.96907e-11
1.26673e-09
-2.47347e-11
1.29842e-09
-3.00451e-11
1.32925e-09
-3.56205e-11
1.35908e-09
-4.14739e-11
1.38786e-09
-4.76053e-11
1.41556e-09
-5.40186e-11
1.44213e-09
-6.07212e-11
1.46758e-09
-6.77208e-11
1.4919e-09
-7.50282e-11
1.51508e-09
-8.26534e-11
1.53715e-09
-9.06065e-11
1.55816e-09
-9.88965e-11
1.57821e-09
-1.07528e-10
1.59743e-09
-1.16502e-10
1.616e-09
-1.25816e-10
1.63414e-09
-1.35462e-10
1.65211e-09
-1.45423e-10
1.6703e-09
-1.55678e-10
1.68911e-09
-1.66196e-10
1.70899e-09
-1.76937e-10
1.73045e-09
-1.87844e-10
1.75409e-09
-1.98843e-10
1.78054e-09
-2.09849e-10
1.8105e-09
-2.2079e-10
1.84474e-09
-2.3156e-10
1.88403e-09
-2.42025e-10
1.92923e-09
-2.5208e-10
1.98115e-09
-2.6157e-10
2.04064e-09
-2.70359e-10
2.10857e-09
-2.78316e-10
-2.85309e-10
2.18563e-09
2.72527e-10
-7.46192e-13
3.04764e-10
-3.12584e-12
3.38192e-10
-5.55696e-12
3.72727e-10
-8.04486e-12
4.08253e-10
-1.05913e-11
4.44636e-10
-1.3199e-11
4.81747e-10
-1.58686e-11
5.19465e-10
-1.86046e-11
5.57656e-10
-2.14038e-11
5.9617e-10
-2.42857e-11
6.34884e-10
-2.72797e-11
6.7363e-10
-3.0347e-11
7.12234e-10
-3.34611e-11
7.50538e-10
-3.66662e-11
7.88403e-10
-3.9989e-11
8.25661e-10
-4.33984e-11
8.62128e-10
-4.6865e-11
8.97643e-10
-5.04282e-11
9.32065e-10
-5.41129e-11
9.65225e-10
-5.78953e-11
9.96954e-10
-6.17732e-11
1.0271e-09
-6.57643e-11
1.05549e-09
-6.98672e-11
1.08197e-09
-7.40882e-11
1.10639e-09
-7.84344e-11
1.12858e-09
-8.29119e-11
1.14839e-09
-8.75284e-11
1.16565e-09
-9.22923e-11
1.18021e-09
-9.7213e-11
1.19191e-09
-1.02301e-10
1.20058e-09
-1.07568e-10
1.20607e-09
-1.13025e-10
1.20826e-09
-1.18685e-10
1.207e-09
-1.24561e-10
1.20221e-09
-1.30667e-10
1.1938e-09
-1.37014e-10
1.18174e-09
-1.43616e-10
1.16602e-09
-1.50482e-10
1.1467e-09
-1.57618e-10
1.12388e-09
-1.65025e-10
1.09774e-09
-1.727e-10
1.06853e-09
-1.80636e-10
1.03655e-09
-1.88814e-10
1.0022e-09
-1.97208e-10
9.6596e-10
-2.05783e-10
9.28381e-10
-2.14501e-10
8.90125e-10
-2.23314e-10
8.5194e-10
-2.32174e-10
8.14663e-10