/*--------------------------------*- C++ -*----------------------------------*\
| =========                 |                                                 |
| \\      /  F ield         | OpenFOAM: The Open Source CFD Toolbox           |
|  \\    /   O peration     | Version:  2.4.0                                 |
|   \\  /    A nd           | Web:      www.OpenFOAM.org                      |
|    \\/     M anipulation  |                                                 |
\*---------------------------------------------------------------------------*/
FoamFile
{
    version     2.0;
    format      ascii;
    class       volVectorField;
    location    "5";
    object      U;
}
// * * * * * * * * * * * * * * * * * * * * * * * * * * * * * * * * * * * * * //

dimensions      [0 1 -1 0 0 0 0];

internalField   nonuniform List<vector> 
8000
(
(-2.43036e-08 -0.000131415 0)
(-5.31155e-07 -0.000380419 0)
(-1.732e-06 -0.000615616 0)
(-3.69995e-06 -0.000836982 0)
(-6.49027e-06 -0.00104449 0)
(-1.01601e-05 -0.00123811 0)
(-1.47703e-05 -0.00141785 0)
(-2.03827e-05 -0.00158373 0)
(-2.70598e-05 -0.00173574 0)
(-3.48696e-05 -0.00187388 0)
(-4.38991e-05 -0.00199812 0)
(-5.42764e-05 -0.00210846 0)
(-6.60973e-05 -0.00220489 0)
(-7.90664e-05 -0.00228738 0)
(-9.21301e-05 -0.00235585 0)
(-0.000105224 -0.00241019 0)
(-0.000128834 -0.00245072 0)
(-0.000190333 -0.00247936 0)
(-0.00030742 -0.00250563 0)
(-0.000484675 -0.00251677 0)
(-0.000897771 -0.00203459 0)
(-0.00113751 0.00400561 0)
(-0.00116946 0.00734359 0)
(-0.00112007 0.00885418 0)
(-0.000949986 0.00936567 0)
(-0.000703153 0.00942423 0)
(-0.000416539 0.00933631 0)
(-0.000111492 0.00925157 0)
(0.000201742 0.00923008 0)
(0.000518346 0.00928565 0)
(0.000836026 0.00941103 0)
(0.00115381 0.00959148 0)
(0.00147151 0.00981112 0)
(0.00178939 0.0100557 0)
(0.00210791 0.0103135 0)
(0.00242754 0.010575 0)
(0.00274861 0.0108327 0)
(0.00307129 0.011081 0)
(0.00339558 0.0113158 0)
(0.00372136 0.0115341 0)
(0.00404838 0.0117342 0)
(0.00437632 0.0119149 0)
(0.00470479 0.0120751 0)
(0.00503337 0.0122144 0)
(0.00536165 0.0123322 0)
(0.00568921 0.0124278 0)
(0.00601568 0.0125004 0)
(0.00634072 0.0125494 0)
(0.00666408 0.0125738 0)
(0.0069856 0.0125723 0)
(-1.15141e-07 -0.000127199 0)
(-1.18012e-06 -0.000367014 0)
(-3.34017e-06 -0.00059231 0)
(-6.56258e-06 -0.000803104 0)
(-1.07928e-05 -0.000999381 0)
(-1.59938e-05 -0.00118112 0)
(-2.21393e-05 -0.00134831 0)
(-2.92055e-05 -0.00150095 0)
(-3.71685e-05 -0.00163897 0)
(-4.60156e-05 -0.00176232 0)
(-5.57699e-05 -0.00187091 0)
(-6.64766e-05 -0.00196464 0)
(-7.79088e-05 -0.0020434 0)
(-8.89498e-05 -0.00210693 0)
(-9.79521e-05 -0.0021548 0)
(-0.00010996 -0.00218692 0)
(-0.000151648 -0.00220642 0)
(-0.00027154 -0.00222385 0)
(-0.000465375 -0.0022303 0)
(-0.000787833 -0.00206675 0)
(-0.00118644 0.00288881 0)
(-0.000984257 0.00538525 0)
(-0.000946376 0.0062775 0)
(-0.000771373 0.00634553 0)
(-0.000537878 0.0060912 0)
(-0.000279898 0.00578597 0)
(-1.72704e-05 0.00555279 0)
(0.00024304 0.00543137 0)
(0.00049912 0.00542016 0)
(0.000751227 0.0055003 0)
(0.00100061 0.00564803 0)
(0.0012489 0.0058407 0)
(0.00149781 0.00605928 0)
(0.00174885 0.0062891 0)
(0.00200332 0.00651969 0)
(0.00226222 0.00674412 0)
(0.00252625 0.00695816 0)
(0.00279584 0.00715947 0)
(0.00307117 0.00734691 0)
(0.0033522 0.0075201 0)
(0.00363873 0.00767905 0)
(0.00393042 0.00782386 0)
(0.00422685 0.00795456 0)
(0.00452755 0.00807095 0)
(0.00483203 0.00817254 0)
(0.00513976 0.00825856 0)
(0.00545025 0.00832791 0)
(0.00576297 0.00837921 0)
(0.00607744 0.00841084 0)
(0.00639317 0.00842095 0)
(-1.30869e-07 -0.000117291 0)
(-1.14262e-06 -0.000339118 0)
(-3.1167e-06 -0.000548084 0)
(-5.98892e-06 -0.000744064 0)
(-9.68451e-06 -0.000926926 0)
(-1.41451e-05 -0.00109657 0)
(-1.93212e-05 -0.00125296 0)
(-2.51604e-05 -0.00139604 0)
(-3.1623e-05 -0.00152579 0)
(-3.87274e-05 -0.00164218 0)
(-4.65773e-05 -0.00174521 0)
(-5.49755e-05 -0.00183487 0)
(-6.21412e-05 -0.00191118 0)
(-6.42214e-05 -0.00197415 0)
(-6.48277e-05 -0.00202373 0)
(-0.000109956 -0.00206043 0)
(-0.000288164 -0.00208576 0)
(-0.000557251 -0.00210843 0)
(-0.000806485 -0.00209464 0)
(-0.00133477 0.00182127 0)
(-0.000909665 0.00369196 0)
(-0.000957802 0.00416609 0)
(-0.000825378 0.00397988 0)
(-0.000661095 0.00358106 0)
(-0.000489139 0.00320295 0)
(-0.000325071 0.00294025 0)
(-0.000171611 0.00281217 0)
(-2.79876e-05 0.00280254 0)
(0.000108111 0.00288256 0)
(0.000239615 0.00302221 0)
(0.000369542 0.00319547 0)
(0.000500664 0.00338205 0)
(0.00063534 0.00356754 0)
(0.000775464 0.0037426 0)
(0.000922487 0.00390202 0)
(0.00107747 0.00404363 0)
(0.00124113 0.00416729 0)
(0.00141392 0.00427413 0)
(0.00159609 0.00436589 0)
(0.00178772 0.00444445 0)
(0.00198874 0.0045115 0)
(0.00219903 0.00456841 0)
(0.00241837 0.00461605 0)
(0.00264648 0.00465485 0)
(0.00288304 0.00468475 0)
(0.00312768 0.00470531 0)
(0.00338002 0.0047157 0)
(0.00363959 0.00471486 0)
(0.00390592 0.00470153 0)
(0.0041784 0.00467437 0)
(1.57472e-08 -0.000114475 0)
(-1.92511e-07 -0.000330419 0)
(-7.46189e-07 -0.000533304 0)
(-1.68437e-06 -0.000723051 0)
(-3.02319e-06 -0.000899552 0)
(-4.77699e-06 -0.00106273 0)
(-6.96257e-06 -0.00121255 0)
(-9.5988e-06 -0.00134897 0)
(-1.2718e-05 -0.00147196 0)
(-1.63812e-05 -0.00158149 0)
(-2.06358e-05 -0.00167754 0)
(-2.52551e-05 -0.00176007 0)
(-2.93725e-05 -0.001829 0)
(-3.24778e-05 -0.00188413 0)
(-4.15657e-05 -0.00192578 0)
(-7.60395e-05 -0.00195661 0)
(-0.000171853 -0.00199101 0)
(-0.000381171 -0.00199131 0)
(-0.000966602 0.000390687 0)
(-0.000524776 0.00245984 0)
(-0.000648489 0.00303233 0)
(-0.00057977 0.00289588 0)
(-0.00051301 0.00252354 0)
(-0.000455266 0.00216932 0)
(-0.000414428 0.00193434 0)
(-0.000389221 0.00183577 0)
(-0.000376675 0.00185178 0)
(-0.000372839 0.00194767 0)
(-0.000373524 0.00208878 0)
(-0.000374793 0.00224621 0)
(-0.000373224 0.00239852 0)
(-0.000365991 0.00253159 0)
(-0.000350845 0.00263743 0)
(-0.00032606 0.00271274 0)
(-0.000290347 0.00275754 0)
(-0.000242767 0.00277393 0)
(-0.000182657 0.00276515 0)
(-0.000109572 0.00273491 0)
(-2.32192e-05 0.00268682 0)
(7.66288e-05 0.00262421 0)
(0.000190111 0.00254984 0)
(0.000317265 0.00246592 0)
(0.000458053 0.00237408 0)
(0.000612392 0.00227542 0)
(0.000780187 0.00217056 0)
(0.000961241 0.00205974 0)
(0.00115524 0.00194288 0)
(0.00136191 0.00181966 0)
(0.00158088 0.00168962 0)
(0.00181171 0.00155218 0)
(-5.47452e-08 -0.000113246 0)
(-3.13885e-07 -0.000326402 0)
(-7.52056e-07 -0.000526177 0)
(-1.33681e-06 -0.000712489 0)
(-2.04669e-06 -0.000885214 0)
(-2.8691e-06 -0.00104425 0)
(-3.79349e-06 -0.00118953 0)
(-4.82234e-06 -0.00132098 0)
(-6.0072e-06 -0.00143851 0)
(-7.46778e-06 -0.00154203 0)
(-9.08552e-06 -0.00163144 0)
(-9.4862e-06 -0.00170665 0)
(-5.67209e-06 -0.00176749 0)
(-7.51326e-07 -0.00181366 0)
(-3.27909e-05 -0.00184529 0)
(-0.000178243 -0.00186403 0)
(-0.000410877 -0.00187709 0)
(-0.000855229 -0.00170529 0)
(-0.000928308 0.00123814 0)
(-0.000658849 0.00242471 0)
(-0.000684872 0.00270608 0)
(-0.000658289 0.00260969 0)
(-0.000642578 0.00244729 0)
(-0.000645043 0.00235401 0)
(-0.000667688 0.00236224 0)
(-0.000705771 0.00245494 0)
(-0.000753473 0.00259804 0)
(-0.000805258 0.00275689 0)
(-0.000856274 0.00290307 0)
(-0.000902426 0.00301643 0)
(-0.000940383 0.00308501 0)
(-0.000967536 0.00310335 0)
(-0.000981878 0.00307084 0)
(-0.00098188 0.00299018 0)
(-0.000966387 0.00286601 0)
(-0.000934526 0.00270392 0)
(-0.000885629 0.00250971 0)
(-0.000819152 0.0022888 0)
(-0.000734624 0.00204613 0)
(-0.00063167 0.00178605 0)
(-0.000510047 0.00151244 0)
(-0.000369838 0.00122835 0)
(-0.000211158 0.000935935 0)
(-3.40167e-05 0.000636979 0)
(0.00016141 0.000333024 0)
(0.000374826 2.52461e-05 0)
(0.000605839 -0.000285306 0)
(0.000853853 -0.000598011 0)
(0.0011182 -0.00091256 0)
(0.00139815 -0.00122846 0)
(7.64423e-08 -0.000111976 0)
(7.78574e-07 -0.000323638 0)
(2.19416e-06 -0.000522803 0)
(4.28256e-06 -0.000709251 0)
(6.98113e-06 -0.000882751 0)
(1.02334e-05 -0.00104312 0)
(1.39863e-05 -0.00119025 0)
(1.81776e-05 -0.00132404 0)
(2.27112e-05 -0.00144442 0)
(2.74618e-05 -0.00155134 0)
(3.24989e-05 -0.00164477 0)
(3.86802e-05 -0.00172474 0)
(4.76083e-05 -0.00179127 0)
(5.5356e-05 -0.00184441 0)
(4.17449e-05 -0.00188442 0)
(-5.88453e-05 -0.00191574 0)
(-0.00030706 -0.00192497 0)
(-0.000947757 0.000565356 0)
(-0.000324442 0.00178868 0)
(-0.000563123 0.00216648 0)
(-0.000486183 0.0022501 0)
(-0.000471884 0.00227363 0)
(-0.000470485 0.00234943 0)
(-0.000484016 0.0024969 0)
(-0.000507274 0.00269285 0)
(-0.000535782 0.00290078 0)
(-0.000564538 0.00308612 0)
(-0.000588762 0.00322213 0)
(-0.000604242 0.00329117 0)
(-0.000607431 0.00328393 0)
(-0.000595395 0.00319785 0)
(-0.000565711 0.00303515 0)
(-0.000516357 0.00280118 0)
(-0.000445609 0.00250323 0)
(-0.000351984 0.00214932 0)
(-0.000234207 0.00174721 0)
(-9.14252e-05 0.00130693 0)
(7.74372e-05 0.000833547 0)
(0.00027322 0.000331507 0)
(0.000496092 -0.000196341 0)
(0.000745785 -0.0007367 0)
(0.00102111 -0.00128127 0)
(0.00132105 -0.00183305 0)
(0.00164478 -0.00239022 0)
(0.00199134 -0.00294733 0)
(0.00235944 -0.00350087 0)
(0.00274768 -0.00404743 0)
(0.00315455 -0.00458517 0)
(0.00357854 -0.00511302 0)
(0.00401812 -0.00562838 0)
(2.60901e-07 -0.000122556 0)
(2.54614e-06 -0.000353512 0)
(7.03492e-06 -0.000570099 0)
(1.35434e-05 -0.000772101 0)
(2.18274e-05 -0.000959285 0)
(3.16758e-05 -0.00113145 0)
(4.28958e-05 -0.00128845 0)
(5.5292e-05 -0.00143015 0)
(6.86362e-05 -0.00155643 0)
(8.26854e-05 -0.00166717 0)
(9.73709e-05 -0.00176228 0)
(0.000113279 -0.00184169 0)
(0.000131414 -0.00190525 0)
(0.000147517 -0.00195271 0)
(0.00014463 -0.00198409 0)
(6.7962e-05 -0.00200316 0)
(-0.000212092 -0.00201066 0)
(-0.000781148 0.000384935 0)
(8.62583e-06 0.00156406 0)
(-0.000304055 0.0020434 0)
(-9.5892e-05 0.00228019 0)
(-9.05897e-05 0.0024498 0)
(-2.54392e-05 0.00263925 0)
(3.19819e-05 0.00285233 0)
(9.57062e-05 0.00305953 0)
(0.000167865 0.00322395 0)
(0.000252037 0.00331383 0)
(0.000351275 0.00330673 0)
(0.000468397 0.00318984 0)
(0.000606036 0.00295856 0)
(0.000766705 0.00261489 0)
(0.000952279 0.0021654 0)
(0.00116344 0.00161692 0)
(0.00140121 0.000979317 0)
(0.00166705 0.000261728 0)
(0.00196206 -0.000530134 0)
(0.00228627 -0.00136358 0)
(0.00263685 -0.00223407 0)
(0.00301378 -0.00314672 0)
(0.00341727 -0.00408367 0)
(0.00384601 -0.00501165 0)
(0.00429747 -0.0059219 0)
(0.00477059 -0.00682299 0)
(0.00526357 -0.00770625 0)
(0.00577455 -0.00856519 0)
(0.00630133 -0.00939432 0)
(0.006842 -0.0101903 0)
(0.00739433 -0.0109507 0)
(0.00795624 -0.0116748 0)
(0.00852586 -0.0123594 0)
(3.62131e-07 -0.000142686 0)
(3.59863e-06 -0.00041063 0)
(1.00705e-05 -0.000661033 0)
(1.95803e-05 -0.000893807 0)
(3.18525e-05 -0.00110881 0)
(4.66576e-05 -0.00130587 0)
(6.37901e-05 -0.00148485 0)
(8.30476e-05 -0.00164561 0)
(0.000104192 -0.00178801 0)
(0.000126969 -0.00191193 0)
(0.000151327 -0.0020172 0)
(0.000178039 -0.00210372 0)
(0.000208499 -0.0021712 0)
(0.000238436 -0.00221916 0)
(0.00024612 -0.00224751 0)
(0.000173891 -0.0022594 0)
(-8.31125e-05 -0.00226451 0)
(-0.000507261 -0.000394194 0)
(0.000271521 0.000443011 0)
(-7.54214e-05 0.000721122 0)
(0.000312487 0.000786755 0)
(0.000332385 0.00081157 0)
(0.000497732 0.000850528 0)
(0.000661942 0.000896091 0)
(0.000842454 0.00091269 0)
(0.00104121 0.000861079 0)
(0.00126062 0.000709151 0)
(0.00150169 0.000435478 0)
(0.00176537 2.91668e-05 0)
(0.0020529 -0.000514313 0)
(0.00236585 -0.00119856 0)
(0.00270413 -0.00198616 0)
(0.0030663 -0.00287584 0)
(0.00345324 -0.00386877 0)
(0.00386349 -0.00493151 0)
(0.00429429 -0.00605429 0)
(0.00474589 -0.00718082 0)
(0.0052097 -0.00830738 0)
(0.00568538 -0.0094716 0)
(0.00617473 -0.0106401 0)
(0.00667323 -0.0117739 0)
(0.00717768 -0.0128715 0)
(0.00768812 -0.0139378 0)
(0.00820391 -0.0149634 0)
(0.008723 -0.0159431 0)
(0.00924393 -0.0168687 0)
(0.0097652 -0.017736 0)
(0.010286 -0.0185421 0)
(0.0108039 -0.0192869 0)
(0.0113199 -0.0199692 0)
(4.40108e-07 -0.000165969 0)
(4.74671e-06 -0.000478262 0)
(1.34151e-05 -0.000770911 0)
(2.62086e-05 -0.00104387 0)
(4.27545e-05 -0.00129694 0)
(6.27404e-05 -0.0015299 0)
(8.58975e-05 -0.00174262 0)
(0.000111966 -0.00193504 0)
(0.000140637 -0.00210712 0)
(0.000171558 -0.00225883 0)
(0.000204657 -0.00239021 0)
(0.000241141 -0.00250129 0)
(0.000283585 -0.00259191 0)
(0.00032714 -0.00266194 0)
(0.000336892 -0.0027107 0)
(0.000229146 -0.00274213 0)
(-2.5941e-05 -0.00275099 0)
(-0.000459149 -0.00212129 0)
(0.000330469 -0.00105071 0)
(5.93695e-05 -0.000698713 0)
(0.000386822 -0.000756838 0)
(0.000485876 -0.000924825 0)
(0.000667065 -0.00112532 0)
(0.000874788 -0.00133887 0)
(0.00110841 -0.00158962 0)
(0.00136513 -0.00191319 0)
(0.00164332 -0.00234162 0)
(0.00194088 -0.00289616 0)
(0.00225594 -0.00358769 0)
(0.00258752 -0.00443685 0)
(0.00293382 -0.00542003 0)
(0.0032939 -0.00648025 0)
(0.00366094 -0.00762033 0)
(0.00403562 -0.00884505 0)
(0.00441988 -0.0101162 0)
(0.00480614 -0.0114034 0)
(0.0051956 -0.0126658 0)
(0.00558943 -0.0139043 0)
(0.00598432 -0.0151455 0)
(0.0063779 -0.0163402 0)
(0.00676916 -0.017482 0)
(0.00715761 -0.0185752 0)
(0.00754219 -0.0196183 0)
(0.0079224 -0.0206047 0)
(0.00829739 -0.0215311 0)
(0.00866704 -0.0223927 0)
(0.00903095 -0.0231874 0)
(0.00938934 -0.0239135 0)
(0.00974213 -0.0245722 0)
(0.0100895 -0.0251625 0)
(5.88467e-07 -0.000201654 0)
(5.69573e-06 -0.000580194 0)
(1.57128e-05 -0.000934023 0)
(3.02746e-05 -0.00126314 0)
(4.8869e-05 -0.00156753 0)
(7.10568e-05 -0.00184718 0)
(9.6472e-05 -0.00210214 0)
(0.000124761 -0.00233249 0)
(0.000155482 -0.00253827 0)
(0.000188297 -0.00271954 0)
(0.000222723 -0.00287638 0)
(0.000258902 -0.0030089 0)
(0.000297425 -0.00311734 0)
(0.000335295 -0.00320184 0)
(0.00036923 -0.0032619 0)
(0.000392184 -0.00329555 0)
(0.000403887 -0.00329889 0)
(0.000368464 -0.00330153 0)
(0.00037994 -0.00306089 0)
(0.000590655 -0.00264188 0)
(0.00064664 -0.00291254 0)
(0.000723835 -0.00346768 0)
(0.000814321 -0.00410746 0)
(0.000918815 -0.00474568 0)
(0.00103785 -0.00536859 0)
(0.0011704 -0.0059957 0)
(0.00131393 -0.00666411 0)
(0.00146619 -0.00740258 0)
(0.00162744 -0.00824475 0)
(0.00179669 -0.00919664 0)
(0.00197032 -0.0102079 0)
(0.00214559 -0.0112642 0)
(0.00232403 -0.0123849 0)
(0.00250631 -0.0135647 0)
(0.00268955 -0.0147629 0)
(0.00287439 -0.015965 0)
(0.00306133 -0.0171587 0)
(0.00325091 -0.0183327 0)
(0.00344275 -0.0194864 0)
(0.00363674 -0.0205916 0)
(0.00383375 -0.0216507 0)
(0.00403387 -0.0226594 0)
(0.00423712 -0.023615 0)
(0.00444339 -0.0245146 0)
(0.00465271 -0.0253564 0)
(0.00486511 -0.0261392 0)
(0.00508067 -0.0268623 0)
(0.00529948 -0.0275254 0)
(0.00552156 -0.0281285 0)
(0.0057469 -0.0286715 0)
(4.3133e-07 -0.000233064 0)
(4.77987e-06 -0.000669751 0)
(1.35741e-05 -0.00107696 0)
(2.66255e-05 -0.00145458 0)
(4.3603e-05 -0.00180257 0)
(6.42493e-05 -0.00212098 0)
(8.83518e-05 -0.00240982 0)
(0.000115713 -0.00266906 0)
(0.000146124 -0.00289859 0)
(0.000179324 -0.00309822 0)
(0.000215015 -0.00326771 0)
(0.000253126 -0.00340677 0)
(0.000294574 -0.00351516 0)
(0.000341006 -0.00359248 0)
(0.000387946 -0.00363853 0)
(0.00040835 -0.00365412 0)
(0.000341878 -0.00364712 0)
(0.000146328 -0.00362673 0)
(2.14856e-06 -0.0035543 0)
(9.83744e-05 -0.002806 0)
(0.000205058 -0.00256286 0)
(0.00016301 -0.00280876 0)
(0.000139535 -0.00327874 0)
(0.000108182 -0.00384494 0)
(7.3933e-05 -0.00446358 0)
(3.70609e-05 -0.00508807 0)
(-3.72971e-06 -0.0057565 0)
(-4.89756e-05 -0.00649298 0)
(-9.28501e-05 -0.00744021 0)
(-0.000132888 -0.00842671 0)
(-0.000170248 -0.00947591 0)
(-0.000200854 -0.0106109 0)
(-0.000224781 -0.0118364 0)
(-0.000239703 -0.0131134 0)
(-0.000245028 -0.0144259 0)
(-0.000239286 -0.0157561 0)
(-0.000221362 -0.0170893 0)
(-0.000190406 -0.0184116 0)
(-0.000145917 -0.0197112 0)
(-8.75082e-05 -0.0209783 0)
(-1.48481e-05 -0.0222048 0)
(7.2146e-05 -0.0233842 0)
(0.000173338 -0.0245113 0)
(0.000288431 -0.0255816 0)
(0.000417011 -0.0265917 0)
(0.000558566 -0.0275388 0)
(0.000712523 -0.0284207 0)
(0.000878261 -0.0292359 0)
(0.00105514 -0.0299833 0)
(0.00124249 -0.0306621 0)
(1.76298e-07 -0.000261808 0)
(1.20863e-06 -0.000753175 0)
(3.47832e-06 -0.00121321 0)
(7.21601e-06 -0.00164249 0)
(1.27061e-05 -0.00204139 0)
(2.02508e-05 -0.00241023 0)
(3.01128e-05 -0.00274924 0)
(4.24962e-05 -0.00305855 0)
(5.75395e-05 -0.00333812 0)
(7.5292e-05 -0.00358776 0)
(9.59648e-05 -0.0038071 0)
(0.000120536 -0.00399579 0)
(0.000150752 -0.00415381 0)
(0.000184777 -0.0042841 0)
(0.00019747 -0.00439848 0)
(0.000114442 -0.00435882 0)
(-3.92861e-05 -0.00430981 0)
(-0.000195941 -0.004229 0)
(-0.000611704 -0.004142 0)
(-0.00191206 -0.00343656 0)
(-0.00121329 -0.00316991 0)
(-0.00188339 -0.00336221 0)
(-0.00224931 -0.00377488 0)
(-0.00263695 -0.00426819 0)
(-0.00303051 -0.00488025 0)
(-0.00341786 -0.00540104 0)
(-0.00378093 -0.0059793 0)
(-0.00411296 -0.00666643 0)
(-0.0044178 -0.00759737 0)
(-0.00469995 -0.00861442 0)
(-0.00495262 -0.00975474 0)
(-0.00517299 -0.0109943 0)
(-0.00535861 -0.0123223 0)
(-0.0055104 -0.0137255 0)
(-0.00562826 -0.0151841 0)
(-0.00571289 -0.0166762 0)
(-0.00576554 -0.0181825 0)
(-0.00578778 -0.0196854 0)
(-0.00578133 -0.0211695 0)
(-0.00574799 -0.0226216 0)
(-0.00568951 -0.0240308 0)
(-0.00560763 -0.0253876 0)
(-0.00550399 -0.0266846 0)
(-0.00538012 -0.0279161 0)
(-0.0052374 -0.0290778 0)
(-0.0050771 -0.0301666 0)
(-0.00490036 -0.0311807 0)
(-0.00470821 -0.0321188 0)
(-0.0045016 -0.0329804 0)
(-0.00428137 -0.0337654 0)
(-1.16837e-06 -0.000242311 0)
(-1.03706e-05 -0.000704017 0)
(-2.6011e-05 -0.00114372 0)
(-4.57002e-05 -0.00156163 0)
(-6.66549e-05 -0.00195745 0)
(-8.63586e-05 -0.00233058 0)
(-0.000102428 -0.00268007 0)
(-0.000112411 -0.00300452 0)
(-0.000113618 -0.00330189 0)
(-0.000103163 -0.00356981 0)
(-7.8948e-05 -0.00380809 0)
(-4.56798e-05 -0.00402398 0)
(-4.29784e-05 -0.00422801 0)
(-0.000209773 -0.00428225 0)
(-0.000490964 -0.00421874 0)
(-0.000721719 -0.00420684 0)
(-0.000850706 -0.00406262 0)
(-0.00130273 0.00482613 0)
(-0.00171893 0.00536855 0)
(-0.00302163 0.00669923 0)
(-0.00345658 0.00706095 0)
(-0.004165 0.00700894 0)
(-0.0048956 0.00674983 0)
(-0.00562461 0.00640989 0)
(-0.00630888 0.00567272 0)
(-0.00695832 0.00458853 0)
(-0.00755797 0.0033066 0)
(-0.00806321 0.00184182 0)
(-0.00849054 0.000273146 0)
(-0.00885945 -0.0013077 0)
(-0.00918366 -0.00309289 0)
(-0.00946266 -0.00505236 0)
(-0.00969465 -0.00710573 0)
(-0.00988773 -0.00921861 0)
(-0.0100453 -0.0113583 0)
(-0.0101704 -0.013495 0)
(-0.0102653 -0.0156033 0)
(-0.0103317 -0.0176629 0)
(-0.0103711 -0.0196588 0)
(-0.0103846 -0.02158 0)
(-0.0103732 -0.023419 0)
(-0.0103378 -0.0251706 0)
(-0.010279 -0.0268319 0)
(-0.0101973 -0.0284015 0)
(-0.0100932 -0.0298788 0)
(-0.00996703 -0.0312642 0)
(-0.00981942 -0.032558 0)
(-0.009651 -0.033761 0)
(-0.00946239 -0.0348743 0)
(-0.00925422 -0.0358988 0)
(-1.44422e-06 -0.00012494 0)
(-4.27996e-06 -0.000417941 0)
(-3.96887e-06 -0.000750345 0)
(2.73948e-06 -0.00111843 0)
(1.90248e-05 -0.00151872 0)
(4.80193e-05 -0.00194808 0)
(9.46906e-05 -0.00240394 0)
(0.000165774 -0.00288689 0)
(0.000266303 -0.00340666 0)
(0.000364955 -0.00396673 0)
(0.000332543 -0.00459092 0)
(8.6322e-05 -0.00450637 0)
(-0.000196304 -0.00437494 0)
(-0.000412039 -0.00425714 0)
(-0.000731611 -0.000796725 0)
(-0.00210489 -0.00287473 0)
(-0.0063592 -0.00120465 0)
(-0.00729793 0.0160433 0)
(-0.00719979 0.0154307 0)
(-0.00846948 0.0147684 0)
(-0.00956068 0.0141784 0)
(-0.0105656 0.0137813 0)
(-0.0115519 0.0134577 0)
(-0.0124406 0.012913 0)
(-0.0132346 0.01158 0)
(-0.0140012 0.0095995 0)
(-0.0146932 0.00723663 0)
(-0.0152756 0.00468608 0)
(-0.015784 0.00214246 0)
(-0.0162289 -0.000267462 0)
(-0.0166147 -0.00269531 0)
(-0.0169474 -0.00511834 0)
(-0.0172327 -0.00752661 0)
(-0.0174788 -0.00990358 0)
(-0.0176966 -0.0122406 0)
(-0.0178936 -0.0145296 0)
(-0.0180675 -0.0167829 0)
(-0.0182092 -0.0189928 0)
(-0.0183127 -0.0211436 0)
(-0.0183776 -0.0232307 0)
(-0.0184052 -0.0252493 0)
(-0.0183964 -0.0271949 0)
(-0.0183517 -0.0290639 0)
(-0.0182719 -0.0308532 0)
(-0.0181573 -0.0325598 0)
(-0.0180087 -0.0341794 0)
(-0.017827 -0.0357079 0)
(-0.0176135 -0.0371438 0)
(-0.0173698 -0.0384867 0)
(-0.0170972 -0.0397361 0)
(3.58326e-06 -0.000224444 0)
(3.17552e-05 -0.000733021 0)
(8.76138e-05 -0.00129874 0)
(0.00017186 -0.00191928 0)
(0.000288536 -0.00259243 0)
(0.000437608 -0.0033205 0)
(0.000584037 -0.0041204 0)
(0.000578858 -0.0050241 0)
(0.00025979 -0.00607885 0)
(-0.000229137 -0.0061655 0)
(-0.000608862 -0.00718046 0)
(-0.000780229 -0.00586498 0)
(-0.00183251 -9.17838e-05 0)
(-0.00360565 -0.006834 0)
(-0.00662293 0.0469543 0)
(-0.00592947 0.0364266 0)
(-0.00824257 0.0363476 0)
(-0.00970253 0.0360741 0)
(-0.0106668 0.0350873 0)
(-0.0115736 0.0339288 0)
(-0.012525 0.0331031 0)
(-0.0135212 0.0325658 0)
(-0.0144275 0.0310622 0)
(-0.0151898 0.0290349 0)
(-0.0159038 0.0264251 0)
(-0.016542 0.0231567 0)
(-0.017066 0.0196107 0)
(-0.0175294 0.0161152 0)
(-0.0179707 0.0127263 0)
(-0.0184027 0.00945337 0)
(-0.0188367 0.00628485 0)
(-0.0192652 0.00311545 0)
(-0.0196765 4.62443e-05 0)
(-0.0200733 -0.00285279 0)
(-0.0204738 -0.00556296 0)
(-0.0208946 -0.00813814 0)
(-0.0213349 -0.0108737 0)
(-0.0217516 -0.0138573 0)
(-0.0221099 -0.0168146 0)
(-0.0223958 -0.0196713 0)
(-0.0226213 -0.0224268 0)
(-0.0227908 -0.0250828 0)
(-0.0229074 -0.0276394 0)
(-0.0229746 -0.0300901 0)
(-0.0229968 -0.0324363 0)
(-0.0229759 -0.0346748 0)
(-0.0229086 -0.0367937 0)
(-0.0227919 -0.0387872 0)
(-0.0226266 -0.0406571 0)
(-0.0224155 -0.042403 0)
(4.52902e-07 -0.000478469 0)
(1.54976e-05 -0.00145214 0)
(5.32609e-05 -0.00244629 0)
(0.000121111 -0.00346762 0)
(0.000171643 -0.00454261 0)
(-2.8688e-05 -0.00571753 0)
(-0.000637672 -0.00577045 0)
(-0.00139762 -0.00659411 0)
(-0.00242679 -0.0129927 0)
(-0.00399141 -0.000919464 0)
(-0.00488654 -0.0134587 0)
(-0.0150884 0.0323273 0)
(-0.00914064 0.0237425 0)
(-0.0152042 0.0305449 0)
(-0.0161243 0.0383668 0)
(-0.0163209 0.0406562 0)
(-0.0168399 0.0409913 0)
(-0.0172445 0.0400636 0)
(-0.0175906 0.0385815 0)
(-0.0179059 0.0371814 0)
(-0.018159 0.0364102 0)
(-0.0183575 0.0358375 0)
(-0.0185319 0.0342332 0)
(-0.0187552 0.0310799 0)
(-0.0190451 0.0267037 0)
(-0.0193283 0.0224782 0)
(-0.0196536 0.0186355 0)
(-0.0200195 0.0152176 0)
(-0.0204383 0.0122346 0)
(-0.0209246 0.00971487 0)
(-0.0214684 0.0075846 0)
(-0.022078 0.00501121 0)
(-0.0227167 0.00210177 0)
(-0.0233292 -0.000567694 0)
(-0.0239096 -0.00274924 0)
(-0.0244633 -0.00463728 0)
(-0.0249855 -0.00668355 0)
(-0.0255394 -0.00994612 0)
(-0.0260793 -0.0141894 0)
(-0.0265161 -0.0178617 0)
(-0.0268881 -0.021316 0)
(-0.0271796 -0.0246132 0)
(-0.0274013 -0.0277796 0)
(-0.0275651 -0.030751 0)
(-0.0276998 -0.0334997 0)
(-0.0278262 -0.036168 0)
(-0.0279182 -0.0389067 0)
(-0.0279438 -0.0415649 0)
(-0.0278924 -0.0440616 0)
(-0.0277687 -0.0463888 0)
(6.04708e-06 -0.000454291 0)
(1.08977e-05 -0.00133102 0)
(-2.12267e-06 -0.00218679 0)
(-0.000310141 -0.00303987 0)
(-0.00137924 -0.00390036 0)
(-0.00296798 -0.00546081 0)
(-0.0046582 0.00131026 0)
(-0.00424599 0.00202496 0)
(-0.0103054 0.00757905 0)
(-0.00912901 0.0626224 0)
(-0.0114131 0.0580489 0)
(-0.0130716 0.0619212 0)
(-0.0135541 0.0578087 0)
(-0.0145409 0.0553857 0)
(-0.0148775 0.0534371 0)
(-0.0149585 0.0514385 0)
(-0.0148912 0.0491155 0)
(-0.0147778 0.0466964 0)
(-0.0146661 0.0442191 0)
(-0.014551 0.0418304 0)
(-0.0144002 0.0398542 0)
(-0.0142201 0.0385232 0)
(-0.0140373 0.0374861 0)
(-0.0139295 0.0362911 0)
(-0.0139297 0.034683 0)
(-0.0140669 0.032498 0)
(-0.0143428 0.0297726 0)
(-0.0146774 0.0272571 0)
(-0.0150663 0.0251031 0)
(-0.0155094 0.0232826 0)
(-0.0159503 0.0217633 0)
(-0.0163572 0.0194993 0)
(-0.0167861 0.016223 0)
(-0.0172442 0.0125192 0)
(-0.0176367 0.00899058 0)
(-0.0179601 0.00584953 0)
(-0.0182023 0.00316215 0)
(-0.0184227 4.47671e-05 0)
(-0.0186825 -0.00394972 0)
(-0.0190224 -0.00837883 0)
(-0.0194113 -0.0132599 0)
(-0.0197842 -0.0179418 0)
(-0.0201799 -0.0218166 0)
(-0.0205856 -0.0257201 0)
(-0.0209882 -0.028672 0)
(-0.0214245 -0.030846 0)
(-0.0219102 -0.0341805 0)
(-0.0223832 -0.038373 0)
(-0.0227862 -0.0421148 0)
(-0.0231289 -0.0456191 0)
(1.65497e-05 -0.000105916 0)
(-1.86617e-05 -0.000308054 0)
(-0.000314057 -0.000504716 0)
(-0.00112378 -0.000705034 0)
(-0.00227414 -0.00103642 0)
(-0.00472102 -0.00563192 0)
(-0.00569123 0.0262708 0)
(-0.00347195 0.0351289 0)
(-0.00488144 0.042068 0)
(-0.00467315 0.0500742 0)
(-0.00456951 0.0516227 0)
(-0.00533824 0.0499693 0)
(-0.00686137 0.0469612 0)
(-0.00873874 0.0439489 0)
(-0.0106566 0.0413369 0)
(-0.0125502 0.0391214 0)
(-0.0142645 0.0373354 0)
(-0.015642 0.0357789 0)
(-0.0167527 0.0345126 0)
(-0.0177307 0.033212 0)
(-0.0184911 0.0318083 0)
(-0.0189411 0.0303883 0)
(-0.0191568 0.0290274 0)
(-0.0191885 0.0284135 0)
(-0.019067 0.0274546 0)
(-0.0188166 0.0262247 0)
(-0.0185111 0.0243764 0)
(-0.0181557 0.0227971 0)
(-0.0177757 0.0211945 0)
(-0.0173352 0.0190849 0)
(-0.0167606 0.0168703 0)
(-0.0161314 0.0150318 0)
(-0.0155128 0.0122248 0)
(-0.0149091 0.00896328 0)
(-0.0143718 0.00547077 0)
(-0.0138387 0.00206067 0)
(-0.0133529 -0.000989044 0)
(-0.0128608 -0.00412773 0)
(-0.0123567 -0.00712756 0)
(-0.0119558 -0.00968165 0)
(-0.0116944 -0.0122664 0)
(-0.0116074 -0.0150207 0)
(-0.0116381 -0.018028 0)
(-0.0117455 -0.0206734 0)
(-0.0119707 -0.0230998 0)
(-0.0121673 -0.0253325 0)
(-0.0123168 -0.0280967 0)
(-0.0125335 -0.031381 0)
(-0.0128708 -0.0347722 0)
(-0.0132901 -0.0391873 0)
(1.01226e-05 0.000372067 0)
(8.94491e-06 0.00110501 0)
(-9.80638e-05 0.00184323 0)
(-0.000443372 0.0026173 0)
(-0.00104313 0.00425811 0)
(-0.00265718 8.57926e-05 0)
(-0.00336658 0.00715394 0)
(0.000420025 0.0120687 0)
(-0.00187195 0.0175579 0)
(0.00295243 0.0437198 0)
(0.00347381 0.0711483 0)
(0.00573851 0.0911437 0)
(0.00771693 0.104136 0)
(0.00942441 0.109258 0)
(0.0107333 0.107101 0)
(0.0113892 0.0991646 0)
(0.0119748 0.0890977 0)
(0.0132858 0.0797017 0)
(0.0149385 0.07154 0)
(0.016212 0.0637834 0)
(0.0170371 0.0560509 0)
(0.0174256 0.0483923 0)
(0.0174144 0.0408249 0)
(0.0170833 0.035222 0)
(0.0166099 0.0304168 0)
(0.0160704 0.0263067 0)
(0.0155231 0.022344 0)
(0.0149762 0.0188123 0)
(0.0145014 0.0154238 0)
(0.0141376 0.0114085 0)
(0.0138503 0.00717888 0)
(0.013625 0.00441528 0)
(0.0134596 0.0016806 0)
(0.013309 -0.00114474 0)
(0.0131289 -0.00383929 0)
(0.0128776 -0.00664575 0)
(0.0125458 -0.00936513 0)
(0.0121643 -0.0123855 0)
(0.0117395 -0.0150777 0)
(0.0112837 -0.0167621 0)
(0.01081 -0.0180092 0)
(0.0103063 -0.0188975 0)
(0.00975699 -0.0209571 0)
(0.0091438 -0.0224618 0)
(0.00853116 -0.024087 0)
(0.00792692 -0.0265774 0)
(0.00728296 -0.0292597 0)
(0.00672377 -0.0315829 0)
(0.00624632 -0.0334716 0)
(0.00575394 -0.0355803 0)
(4.75601e-06 0.000158099 0)
(5.05671e-05 0.000524675 0)
(0.000153686 0.000947442 0)
(0.000274527 0.00143882 0)
(0.000292659 0.00201663 0)
(0.000172606 0.00152659 0)
(1.68706e-05 0.00127825 0)
(-0.000122305 0.000683928 0)
(0.000481777 0.0107813 0)
(0.00107523 0.00753658 0)
(0.00268281 0.0144902 0)
(0.00526229 0.0120336 0)
(0.00842201 0.0172933 0)
(0.0112546 0.0270165 0)
(0.0126555 0.0375082 0)
(0.0213566 0.0464154 0)
(0.018314 0.0183978 0)
(0.0200371 -0.0133601 0)
(0.0267591 -0.00727443 0)
(0.0295505 0.00720444 0)
(0.0300323 0.0186177 0)
(0.0317008 0.0279222 0)
(0.0330933 0.0357785 0)
(0.0332982 0.040779 0)
(0.0331645 0.0423094 0)
(0.0335894 0.041501 0)
(0.0343716 0.0397065 0)
(0.0349865 0.0367996 0)
(0.03535 0.0325773 0)
(0.0355592 0.0277205 0)
(0.0355797 0.0232976 0)
(0.0353673 0.0196991 0)
(0.0350202 0.0165919 0)
(0.0347544 0.0136798 0)
(0.0345951 0.0112612 0)
(0.0343907 0.00987486 0)
(0.0340079 0.00844088 0)
(0.0336158 0.00641686 0)
(0.0332686 0.0043625 0)
(0.0329474 0.00260424 0)
(0.0325135 0.00103391 0)
(0.0316763 -0.00052566 0)
(0.0300794 -0.00223375 0)
(0.0280206 -0.00416294 0)
(0.0261991 -0.00635329 0)
(0.0247001 -0.00899094 0)
(0.0233149 -0.0121376 0)
(0.0220377 -0.0164572 0)
(0.0209401 -0.020946 0)
(0.020052 -0.0243242 0)
(0.00730518 0.0125439 0)
(0.00762287 0.012487 0)
(0.00793871 0.0124016 0)
(0.00825279 0.0122877 0)
(0.00856519 0.0121566 0)
(0.00887513 0.0119975 0)
(0.00918378 0.0118093 0)
(0.0094924 0.0115909 0)
(0.00980121 0.0113427 0)
(0.0101108 0.0110652 0)
(0.0104223 0.0107589 0)
(0.0107371 0.0104241 0)
(0.0110559 0.0100623 0)
(0.0113799 0.00967481 0)
(0.0117104 0.00926296 0)
(0.0120486 0.00882828 0)
(0.0123961 0.00837234 0)
(0.0127543 0.00789674 0)
(0.0131249 0.00740309 0)
(0.0135094 0.00689337 0)
(0.0139097 0.00636946 0)
(0.0143279 0.00583317 0)
(0.0147661 0.00528677 0)
(0.0152266 0.00473301 0)
(0.015712 0.00417461 0)
(0.0162242 0.00361589 0)
(0.0167664 0.00305863 0)
(0.0173415 0.00250729 0)
(0.0179504 0.00197112 0)
(0.0185983 0.00145783 0)
(0.0192905 0.000973213 0)
(0.0200293 0.000520796 0)
(0.0208195 0.000109938 0)
(0.0216634 -0.000249677 0)
(0.0225659 -0.000546902 0)
(0.0235324 -0.000769252 0)
(0.0245662 -0.000901697 0)
(0.0256692 -0.000931245 0)
(0.0268461 -0.000848202 0)
(0.0281028 -0.000637727 0)
(0.0294404 -0.0002874 0)
(0.0308625 0.00021574 0)
(0.0323713 0.000884096 0)
(0.0339687 0.00173117 0)
(0.0356557 0.00277015 0)
(0.0374328 0.00401328 0)
(0.0393007 0.00546758 0)
(0.0412574 0.00714151 0)
(0.0433009 0.00903917 0)
(0.0454303 0.0111599 0)
(0.00670986 0.00840646 0)
(0.00702703 0.00836794 0)
(0.00734426 0.00831206 0)
(0.00765968 0.00822906 0)
(0.00797434 0.00812477 0)
(0.0082895 0.00798928 0)
(0.00860384 0.00781995 0)
(0.00891735 0.00761722 0)
(0.00922987 0.00738023 0)
(0.00954137 0.00710758 0)
(0.00985182 0.00679894 0)
(0.0101613 0.00645498 0)
(0.0104698 0.00607581 0)
(0.0107777 0.00566168 0)
(0.011085 0.00521273 0)
(0.0113922 0.00472927 0)
(0.0116998 0.00421167 0)
(0.0120083 0.00366264 0)
(0.0123178 0.0030813 0)
(0.0126294 0.00246663 0)
(0.012944 0.00181959 0)
(0.0132616 0.00114119 0)
(0.0135828 0.000431937 0)
(0.013909 -0.000306957 0)
(0.0142415 -0.00107445 0)
(0.0145814 -0.00186879 0)
(0.0149301 -0.00269081 0)
(0.0152899 -0.00353874 0)
(0.0156633 -0.00441098 0)
(0.0160523 -0.00530982 0)
(0.0164585 -0.0062254 0)
(0.0168852 -0.00715044 0)
(0.0173354 -0.00808077 0)
(0.0178123 -0.00900847 0)
(0.0183197 -0.00993003 0)
(0.0188607 -0.0108313 0)
(0.0194401 -0.0116941 0)
(0.0200634 -0.0125129 0)