/*--------------------------------*- C++ -*----------------------------------*\
| =========                 |                                                 |
| \\      /  F ield         | OpenFOAM: The Open Source CFD Toolbox           |
|  \\    /   O peration     | Version:  2.4.0                                 |
|   \\  /    A nd           | Web:      www.OpenFOAM.org                      |
|    \\/     M anipulation  |                                                 |
\*---------------------------------------------------------------------------*/
FoamFile
{
    version     2.0;
    format      ascii;
    class       volScalarField;
    location    "0.001";
    object      p_rgh;
}
// * * * * * * * * * * * * * * * * * * * * * * * * * * * * * * * * * * * * * //

dimensions      [1 -1 -2 0 0 0 0];

internalField   nonuniform List<scalar> 
125
(
4.68051
-0.788318
-0.252572
-0.177001
-0.196804
-0.209879
-0.211621
-0.210448
-0.209564
-0.209097
-0.208735
-0.208359
-0.207966
-0.207568
-0.207168
-0.206768
-0.206366
-0.205963
-0.205559
-0.205153
-0.204745
-0.204336
-0.203925
-0.203513
-0.2031
-0.202684
-0.202268
-0.201849
-0.20143
-0.201008
-0.200586
-0.200161
-0.199735
-0.199308
-0.198878
-0.198448
-0.198015
-0.197582
-0.197146
-0.196709
-0.19627
-0.19583
-0.195388
-0.194944
-0.194499
-0.194052
-0.193604
-0.193153
-0.192701
-0.192247
-0.0795837
-0.0787128
-0.0778388
-0.0769616
-0.0760812
-0.0751976
-0.0743108
-0.0734207
-0.0725273
-0.0716307
-0.0707308
-0.0698275
-0.0689209
-0.068011
-0.0670978
-0.0661812
-0.0652612
-0.0643378
-0.0634111
-0.0624809
-0.0615473
-0.0606103
-0.0596698
-0.0587259
-0.0577785
-0.0568276
-0.0558733
-0.0549154
-0.053954
-0.052989
-0.0520206
-0.0510485
-0.0500729
-0.0490937
-0.0481109
-0.0471244
-0.0461344
-0.0451407
-0.0441434
-0.0431423
-0.0421376
-0.0411293
-0.0401172
-0.0391013
-0.0380818
-0.0370585
-0.0360314
-0.0350006
-0.0339659
-0.0329275
-0.0318852
-0.0308391
-0.0297892
-0.0287354
-0.0276777
-0.0266162
-0.0255507
-0.0244813
-0.023408
-0.0223307
-0.0212495
-0.0201643
-0.0190751
-0.0179818
-0.0168846
-0.0157834
-0.014678
-0.0135687
-0.0124552
-0.0113376
-0.010216
-0.00909044
-0.0079611
-0.0068264
-0.00568135
)
;

boundaryField
{
    BotWall
    {
        type            fixedFluxPressure;
        gradient        uniform 0;
        value           uniform 4.68051;
    }
    FreeStream
    {
        type            totalPressure;
        rho             rho;
        psi             none;
        gamma           1;
        p0              uniform 0;
        value           uniform -0.00510585;
    }
    FrontNBack
    {
        type            empty;
    }
    LeftSide
    {
        type            symmetryPlane;
    }
    RightSide
    {
        type            symmetryPlane;
    }
    procBoundary2to0
    {
        type            processor;
        value           nonuniform List<scalar> 
75
(
-0.0795768
-0.0787061
-0.0778323
-0.0769552
-0.0760749
-0.0751914
-0.0743046
-0.0734146
-0.0725213
-0.0716247
-0.0707248
-0.0698216
-0.0689151
-0.0680053
-0.0670921
-0.0661755
-0.0652556
-0.0643323
-0.0634056
-0.0624754
-0.0615419
-0.0606049
-0.0596645
-0.0587206
-0.0577733
-0.0568225
-0.0558681
-0.0549103
-0.0539489
-0.052984
-0.0520156
-0.0510436
-0.050068
-0.0490888
-0.0481061
-0.0471197
-0.0461297
-0.045136
-0.0441387
-0.0431377
-0.0421331
-0.0411247
-0.0401126
-0.0390969
-0.0380773
-0.0370541
-0.036027
-0.0349962
-0.0339616
-0.0329232
-0.031881
-0.0308349
-0.029785
-0.0287312
-0.0276736
-0.026612
-0.0255466
-0.0244772
-0.0234039
-0.0223266
-0.0212454
-0.0201603
-0.0190711
-0.0179779
-0.0168807
-0.0157794
-0.0146742
-0.0135648
-0.0124513
-0.0113338
-0.0102121
-0.00908665
-0.00795733
-0.00682266
-0.00567763
)
;
    }
    procBoundary2to1
    {
        type            processor;
        value           uniform -0.191791;
    }
    procBoundary2to3
    {
        type            processor;
        value           uniform -0.0804514;
    }
    procBoundary2to4
    {
        type            processor;
        value           nonuniform List<scalar> 
75
(
6.68232
-0.788466
-0.252718
-0.177145
-0.196946
-0.21002
-0.211761
-0.210587
-0.209701
-0.209233
-0.208869
-0.208492
-0.208098
-0.207698
-0.207297
-0.206896
-0.206493
-0.206088
-0.205682
-0.205275
-0.204866
-0.204455
-0.204043
-0.20363
-0.203215
-0.202798
-0.20238
-0.20196
-0.201539
-0.201116
-0.200692
-0.200266
-0.199839
-0.19941
-0.198979
-0.198547
-0.198113
-0.197678
-0.197241
-0.196803
-0.196363
-0.195921
-0.195477
-0.195032
-0.194586
-0.194137
-0.193687
-0.193236
-0.192782
-0.192328
-0.0318858
-0.0308395
-0.0297893
-0.0287352
-0.0276773
-0.0266155
-0.0255498
-0.0244801
-0.0234066
-0.0223291
-0.0212476
-0.0201621
-0.0190727
-0.0179793
-0.0168818
-0.0157803
-0.0146747
-0.0135651
-0.0124514
-0.0113336
-0.0102117
-0.0090859
-0.0079563
-0.00682136
-0.00567607
)
;
    }
    procBoundary2to5
    {
        type            processor;
        value           nonuniform List<scalar> 
50
(
-0.0795938
-0.0787229
-0.0778488
-0.0769715
-0.076091
-0.0752072
-0.0743202
-0.0734299
-0.0725363
-0.0716395
-0.0707393
-0.0698359
-0.0689291
-0.068019
-0.0671056
-0.0661888
-0.0652686
-0.064345
-0.0634181
-0.0624877
-0.061554
-0.0606168
-0.0596761
-0.058732
-0.0577844
-0.0568333
-0.0558788
-0.0549207
-0.0539591
-0.052994
-0.0520253
-0.0510531
-0.0500772
-0.0490978
-0.0481148
-0.0471282
-0.046138
-0.0451441
-0.0441465
-0.0431453
-0.0421404
-0.0411319
-0.0401196
-0.0391036
-0.0380838
-0.0370603
-0.036033
-0.035002
-0.0339671
-0.0329284
)
;
    }
}


// ************************************************************************* //
