/*--------------------------------*- C++ -*----------------------------------*\
| =========                 |                                                 |
| \\      /  F ield         | OpenFOAM: The Open Source CFD Toolbox           |
|  \\    /   O peration     | Version:  2.4.0                                 |
|   \\  /    A nd           | Web:      www.OpenFOAM.org                      |
|    \\/     M anipulation  |                                                 |
\*---------------------------------------------------------------------------*/
FoamFile
{
    version     2.0;
    format      ascii;
    class       surfaceScalarField;
    location    "0.001";
    object      phi;
}
// * * * * * * * * * * * * * * * * * * * * * * * * * * * * * * * * * * * * * //

dimensions      [0 3 -1 0 0 0 0];

internalField   nonuniform List<scalar> 
123
(
-1.99997e-14
-6.69476e-09
-6.69476e-09
-6.69476e-09
-6.69477e-09
-6.69477e-09
-6.69477e-09
-6.69477e-09
-6.69477e-09
-6.69477e-09
-6.69477e-09
-6.69477e-09
-6.69477e-09
-6.69478e-09
-6.69478e-09
-6.69478e-09
-6.69478e-09
-6.69478e-09
-6.69478e-09
-6.69478e-09
-6.69478e-09
-6.69478e-09
-6.69478e-09
-6.69478e-09
-6.69478e-09
-6.69478e-09
-6.69478e-09
-6.69478e-09
-6.69478e-09
-6.69478e-09
-6.69478e-09
-6.69478e-09
-6.69478e-09
-6.69478e-09
-6.69478e-09
-6.69477e-09
-6.69477e-09
-6.69477e-09
-6.69477e-09
-6.69477e-09
-6.69477e-09
-6.69477e-09
-6.69476e-09
-6.69476e-09
-6.69476e-09
-6.69476e-09
-6.69476e-09
-6.69475e-09
-6.69475e-09
-6.69633e-09
-6.69633e-09
-6.69633e-09
-6.69633e-09
-6.69633e-09
-6.69633e-09
-6.69634e-09
-6.69634e-09
-6.69634e-09
-6.69634e-09
-6.69634e-09
-6.69634e-09
-6.69634e-09
-6.69635e-09
-6.69635e-09
-6.69635e-09
-6.69635e-09
-6.69635e-09
-6.69635e-09
-6.69635e-09
-6.69635e-09
-6.69635e-09
-6.69635e-09
-6.69635e-09
-6.69635e-09
-6.69635e-09
-6.69636e-09
-6.69636e-09
-6.69636e-09
-6.69636e-09
-6.69636e-09
-6.69636e-09
-6.69636e-09
-6.69636e-09
-6.69636e-09
-6.69636e-09
-6.69636e-09
-6.69636e-09
-6.69636e-09
-6.69636e-09
-6.69636e-09
-6.69635e-09
-6.69635e-09
-6.69635e-09
-6.69635e-09
-6.69635e-09
-6.69635e-09
-6.69635e-09
-6.69635e-09
-6.69635e-09
-6.69635e-09
-6.69635e-09
-6.69635e-09
-6.69635e-09
-6.69635e-09
-6.69634e-09
-6.69634e-09
-6.69634e-09
-6.69634e-09
-6.69634e-09
-6.69634e-09
-6.69634e-09
-6.69633e-09
-6.69633e-09
-6.69633e-09
-6.69633e-09
-6.69633e-09
-6.69633e-09
-6.69632e-09
-6.69632e-09
-6.69632e-09
-6.69632e-09
-6.69632e-09
-6.69631e-09
)
;

boundaryField
{
    BotWall
    {
        type            calculated;
        value           uniform 1.58581e-16;
    }
    FreeStream
    {
        type            calculated;
        value           uniform -6.69631e-09;
    }
    FrontNBack
    {
        type            empty;
        value           nonuniform 0();
    }
    LeftSide
    {
        type            symmetryPlane;
        value           uniform 0;
    }
    RightSide
    {
        type            symmetryPlane;
        value           nonuniform 0();
    }
    procBoundary2to0
    {
        type            processor;
        value           nonuniform List<scalar> 
75
(
2.24494e-15
2.154e-15
2.06494e-15
1.97778e-15
1.89264e-15
1.80957e-15
1.72861e-15
1.64981e-15
1.57319e-15
1.49877e-15
1.42657e-15
1.35658e-15
1.28879e-15
1.22318e-15
1.15971e-15
1.09831e-15
1.03892e-15
9.81435e-16
9.25734e-16
8.7168e-16
8.19107e-16
7.67832e-16
7.17644e-16
6.68316e-16
6.19601e-16
5.71234e-16
5.22941e-16
4.74437e-16
4.25434e-16
3.75645e-16
3.24788e-16
2.72596e-16
2.18817e-16
1.63225e-16
1.05624e-16
4.58525e-17
-1.61287e-17
-7.99571e-17
-1.46053e-16
-2.14506e-16
-2.85213e-16
-3.58005e-16
-4.32646e-16
-5.08834e-16
-5.86201e-16
-6.64319e-16
-7.42721e-16
-8.20949e-16
-8.98379e-16
-9.74558e-16
-1.0488e-15
-1.12064e-15
-1.18956e-15
-1.25516e-15
-1.31714e-15
-1.37527e-15
-1.42942e-15
-1.47957e-15
-1.52578e-15
-1.56815e-15
-1.60689e-15
-1.64226e-15
-1.67456e-15
-1.7041e-15
-1.73122e-15
-1.7562e-15
-1.77931e-15
-1.80075e-15
-1.82066e-15
-1.83911e-15
-1.85609e-15
-1.87157e-15
-1.88545e-15
-1.89767e-15
-1.91793e-15
)
;
    }
    procBoundary2to1
    {
        type            processor;
        value           uniform -6.69475e-09;
    }
    procBoundary2to3
    {
        type            processor;
        value           uniform 6.69632e-09;
    }
    procBoundary2to4
    {
        type            processor;
        value           nonuniform List<scalar> 
75
(
-5.30398e-15
-2.7445e-17
1.56267e-15
1.47639e-15
1.33081e-15
1.18296e-15
1.08835e-15
1.06487e-15
1.08742e-15
1.12308e-15
1.15079e-15
1.16145e-15
1.15265e-15
1.12474e-15
1.07908e-15
1.01734e-15
9.41303e-16
8.52781e-16
7.53583e-16
6.45479e-16
5.30097e-16
4.09102e-16
2.84119e-16
1.56361e-16
2.72179e-17
-1.02417e-16
-2.31191e-16
-3.58207e-16
-4.82564e-16
-6.03515e-16
-7.20694e-16
-8.33627e-16
-9.41929e-16
-1.0453e-15
-1.1435e-15
-1.23637e-15
-1.3238e-15
-1.40573e-15
-1.48216e-15
-1.5531e-15
-1.61863e-15
-1.67884e-15
-1.73385e-15
-1.78381e-15
-1.8289e-15
-1.86929e-15
-1.90516e-15
-1.93674e-15
-1.96418e-15
-1.98774e-15
2.12814e-16
2.2799e-16
2.39036e-16
2.45558e-16
2.4722e-16
2.43815e-16
2.35292e-16
2.21866e-16
2.03825e-16
1.81486e-16
1.55235e-16
1.25534e-16
9.28929e-17
5.78626e-17
2.1032e-17
-1.70649e-17
-5.58988e-17
-9.44433e-17
-1.31729e-16
-1.66656e-16
-1.98045e-16
-2.24749e-16
-2.45793e-16
-2.60538e-16
-2.76078e-16
)
;
    }
    procBoundary2to5
    {
        type            processor;
        value           nonuniform List<scalar> 
50
(
-2.07067e-16
-1.89812e-16
-1.73638e-16
-1.58612e-16
-1.44742e-16
-1.32057e-16
-1.20589e-16
-1.10372e-16
-1.01434e-16
-9.38001e-17
-8.74895e-17
-8.25129e-17
-7.88714e-17
-7.65545e-17
-7.55379e-17
-7.57817e-17
-7.72286e-17
-7.98021e-17
-8.34054e-17
-8.79203e-17
-9.32068e-17
-9.91026e-17
-1.05425e-16
-1.1197e-16
-1.18516e-16
-1.24827e-16
-1.30654e-16
-1.3574e-16
-1.39824e-16
-1.42647e-16
-1.43958e-16
-1.43518e-16
-1.41107e-16
-1.36532e-16
-1.29633e-16
-1.20287e-16
-1.08421e-16
-9.4013e-17
-7.71019e-17
-5.77913e-17
-3.62555e-17
-1.26882e-17
1.27047e-17
3.94109e-17
6.6876e-17
9.45444e-17
1.21763e-16
1.47896e-16
1.72181e-16
1.94053e-16
)
;
    }
}


// ************************************************************************* //
