/*--------------------------------*- C++ -*----------------------------------*\
| =========                 |                                                 |
| \\      /  F ield         | OpenFOAM: The Open Source CFD Toolbox           |
|  \\    /   O peration     | Version:  2.4.0                                 |
|   \\  /    A nd           | Web:      www.OpenFOAM.org                      |
|    \\/     M anipulation  |                                                 |
\*---------------------------------------------------------------------------*/
FoamFile
{
    version     2.0;
    format      ascii;
    class       volScalarField;
    location    "0.001";
    object      T;
}
// * * * * * * * * * * * * * * * * * * * * * * * * * * * * * * * * * * * * * //

dimensions      [0 0 0 1 0 0 0];

internalField   nonuniform List<scalar> 
125
(
294.024
297.43
297.423
297.423
297.43
297.444
297.464
297.489
297.518
297.549
297.582
297.617
297.652
297.686
297.72
297.752
297.782
297.81
297.836
297.859
297.88
297.899
297.916
297.93
297.942
297.953
297.962
297.969
297.976
297.981
297.985
297.988
297.991
297.993
297.995
297.996
297.997
297.998
297.998
297.999
297.999
297.999
298
298
298
298
298
298
298
298
298
298
298
298
298
298
298
298
298
298
298
298
298
298
298
298
298
298
298
298
298
298
298
298
298
298
298
298
298
298
298
298
298
298
298
298
298
298
298
298
298
298
298
298
298
298
298
298
298
298
298
298
298
298
298
298
298
298
298
298
298
298
298
298
298
298
298
298
298
298
298
298
298
298
298
)
;

boundaryField
{
    BotWall
    {
        type            fixedValue;
        value           uniform 293;
    }
    FreeStream
    {
        type            fixedValue;
        value           uniform 298;
    }
    FrontNBack
    {
        type            empty;
    }
    LeftSide
    {
        type            symmetryPlane;
    }
    RightSide
    {
        type            symmetryPlane;
    }
    procBoundary2to0
    {
        type            processor;
        value           uniform 298;
    }
    procBoundary2to1
    {
        type            processor;
        value           uniform 298;
    }
    procBoundary2to3
    {
        type            processor;
        value           uniform 298;
    }
    procBoundary2to4
    {
        type            processor;
        value           nonuniform List<scalar> 
75
(
294.024
297.43
297.423
297.423
297.43
297.444
297.464
297.489
297.518
297.549
297.582
297.617
297.652
297.686
297.72
297.752
297.782
297.81
297.836
297.859
297.88
297.899
297.916
297.93
297.942
297.953
297.962
297.969
297.976
297.981
297.985
297.988
297.991
297.993
297.995
297.996
297.997
297.998
297.998
297.999
297.999
297.999
298
298
298
298
298
298
298
298
298
298
298
298
298
298
298
298
298
298
298
298
298
298
298
298
298
298
298
298
298
298
298
298
298
)
;
    }
    procBoundary2to5
    {
        type            processor;
        value           uniform 298;
    }
}


// ************************************************************************* //
