/*--------------------------------*- C++ -*----------------------------------*\
| =========                 |                                                 |
| \\      /  F ield         | OpenFOAM: The Open Source CFD Toolbox           |
|  \\    /   O peration     | Version:  2.4.0                                 |
|   \\  /    A nd           | Web:      www.OpenFOAM.org                      |
|    \\/     M anipulation  |                                                 |
\*---------------------------------------------------------------------------*/
FoamFile
{
    version     2.0;
    format      ascii;
    class       volScalarField;
    location    "1.2";
    object      H;
}
// * * * * * * * * * * * * * * * * * * * * * * * * * * * * * * * * * * * * * //

dimensions      [0 2 -2 0 0 0 0];

internalField   nonuniform List<scalar> 
500
(
-11779.6
-11779.6
-11779.6
-11779.6
-11779.6
-10873.9
-10873.9
-10873.9
-10873.9
-10873.9
-9957.8
-9957.8
-9957.8
-9957.8
-9957.8
-9031.22
-9031.22
-9031.22
-9031.22
-9031.22
-8093.88
-8093.87
-8093.87
-8093.87
-8093.88
-7145.51
-7145.5
-7145.5
-7145.5
-7145.51
-6185.87
-6185.86
-6185.85
-6185.86
-6185.87
-5214.67
-5214.65
-5214.65
-5214.65
-5214.67
-4231.63
-4231.62
-4231.61
-4231.62
-4231.63
-3236.47
-3236.45
-3236.45
-3236.45
-3236.47
-2228.89
-2228.87
-2228.87
-2228.87
-2228.89
-1208.59
-1208.57
-1208.56
-1208.57
-1208.59
-25.0139
-25.0125
-25.0121
-25.0125
-25.014
-18.7128
-18.7117
-18.7114
-18.7118
-18.7129
-18.8974
-18.8963
-18.896
-18.8963
-18.8974
-19.076
-19.075
-19.0747
-19.075
-19.0761
-19.2484
-19.2474
-19.2471
-19.2474
-19.2485
-19.4144
-19.4134
-19.4131
-19.4134
-19.4145
-19.5737
-19.5727
-19.5724
-19.5727
-19.5737
-19.726
-19.725
-19.7247
-19.725
-19.726
-19.8711
-19.8701
-19.8698
-19.8701
-19.8711
-20.0087
-20.0077
-20.0074
-20.0077
-20.0087
-20.1385
-20.1376
-20.1373
-20.1376
-20.1386
-20.2604
-20.2595
-20.2592
-20.2595
-20.2605
-20.374
-20.3731
-20.3728
-20.3731
-20.3741
-20.4791
-20.4782
-20.4779
-20.4782
-20.4791
-20.5754
-20.5746
-20.5743
-20.5746
-20.5755
-20.6627
-20.6619
-20.6616
-20.6619
-20.6628
-20.7407
-20.7399
-20.7396
-20.7399
-20.7408
-20.8092
-20.8084
-20.8081
-20.8084
-20.8092
-20.8679
-20.8671
-20.8668
-20.8671
-20.868
-20.9166
-20.9158
-20.9156
-20.9158
-20.9167
-20.9551
-20.9543
-20.954
-20.9543
-20.9551
-20.983
-20.9823
-20.982
-20.9823
-20.9831
-21.0003
-20.9996
-20.9993
-20.9996
-21.0004
-21.0067
-21.006
-21.0057
-21.006
-21.0067
-21.0019
-21.0012
-21.0009
-21.0012
-21.002
-20.9858
-20.9851
-20.9849
-20.9851
-20.9859
-20.9582
-20.9575
-20.9573
-20.9575
-20.9583
-20.9189
-20.9182
-20.918
-20.9182
-20.9189
-20.8677
-20.8671
-20.8668
-20.8671
-20.8678
-20.8045
-20.8039
-20.8036
-20.8039
-20.8045
-20.7291
-20.7285
-20.7282
-20.7285
-20.7291
-20.6414
-20.6408
-20.6405
-20.6408
-20.6414
-20.5412
-20.5406
-20.5404
-20.5406
-20.5413
-20.4285
-20.4279
-20.4277
-20.4279
-20.4285
-20.3032
-20.3026
-20.3024
-20.3026
-20.3032
-20.1651
-20.1645
-20.1643
-20.1646
-20.1651
-20.0142
-20.0137
-20.0135
-20.0137
-20.0143
-19.8506
-19.85
-19.8498
-19.8501
-19.8506
-19.674
-19.6735
-19.6733
-19.6735
-19.6741
-19.4846
-19.4841
-19.4839
-19.4842
-19.4847
-19.2824
-19.2819
-19.2817
-19.2819
-19.2824
-19.0673
-19.0669
-19.0667
-19.0669
-19.0674
-18.8395
-18.839
-18.8389
-18.8391
-18.8395
-18.599
-18.5985
-18.5983
-18.5985
-18.599
-18.3458
-18.3454
-18.3452
-18.3454
-18.3458
-18.0802
-18.0798
-18.0796
-18.0798
-18.0802
-17.8022
-17.8018
-17.8016
-17.8018
-17.8022
-17.512
-17.5116
-17.5114
-17.5116
-17.512
-17.2097
-17.2094
-17.2092
-17.2094
-17.2097
-16.8957
-16.8953
-16.8952
-16.8953
-16.8957
-16.57
-16.5697
-16.5695
-16.5697
-16.57
-16.233
-16.2327
-16.2326
-16.2327
-16.233
-15.8849
-15.8846
-15.8845
-15.8846
-15.885
-15.5261
-15.5258
-15.5257
-15.5258
-15.5261
-15.1568
-15.1565
-15.1563
-15.1565
-15.1568
-14.7773
-14.777
-14.7769
-14.777
-14.7773
-14.3881
-14.3878
-14.3877
-14.3878
-14.3881
-13.9894
-13.9892
-13.9891
-13.9892
-13.9895
-13.5818
-13.5816
-13.5815
-13.5816
-13.5819
-13.1657
-13.1654
-13.1653
-13.1654
-13.1657
-12.7414
-12.7411
-12.741
-12.7411
-12.7414
-12.3094
-12.3092
-12.3091
-12.3092
-12.3094
-11.8703
-11.8701
-11.87
-11.8701
-11.8703
-11.4244
-11.4243
-11.4242
-11.4243
-11.4245
-10.9725
-10.9723
-10.9722
-10.9723
-10.9725
-10.5148
-10.5147
-10.5146
-10.5147
-10.5148
-10.0521
-10.0519
-10.0519
-10.0519
-10.0521
-9.58484
-9.58469
-9.58462
-9.58469
-9.58485
-9.11361
-9.11346
-9.1134
-9.11347
-9.11362
-8.63899
-8.63885
-8.63879
-8.63886
-8.639
-8.16157
-8.16144
-8.16138
-8.16145
-8.16158
-7.68195
-7.68183
-7.68178
-7.68184
-7.68196
-7.20074
-7.20063
-7.20059
-7.20064
-7.20075
-6.71856
-6.71846
-6.71841
-6.71846
-6.71857
-6.23602
-6.23592
-6.23588
-6.23593
-6.23603
-5.75374
-5.75366
-5.75362
-5.75366
-5.75375
-5.27236
-5.27228
-5.27225
-5.27229
-5.27237
-4.7925
-4.79243
-4.7924
-4.79243
-4.79251
-4.31479
-4.31473
-4.3147
-4.31473
-4.3148
-3.83987
-3.83982
-3.83979
-3.83982
-3.83988
-3.36837
-3.36832
-3.3683
-3.36832
-3.36837
-2.90091
-2.90087
-2.90085
-2.90087
-2.90092
-2.43813
-2.4381
-2.43808
-2.4381
-2.43814
-1.98066
-1.98063
-1.98062
-1.98064
-1.98066
-1.52912
-1.5291
-1.52909
-1.5291
-1.52913
-1.08414
-1.08413
-1.08412
-1.08413
-1.08414
-0.646344
-0.646335
-0.646331
-0.646335
-0.646345
-0.216347
-0.216344
-0.216343
-0.216344
-0.216347
)
;

boundaryField
{
    BotWall
    {
        type            zeroGradient;
    }
    FreeStream
    {
        type            zeroGradient;
    }
    FrontNBack
    {
        type            empty;
    }
    LeftSide
    {
        type            symmetryPlane;
    }
    RightSide
    {
        type            symmetryPlane;
    }
}


// ************************************************************************* //
