/*--------------------------------*- C++ -*----------------------------------*\
| =========                 |                                                 |
| \\      /  F ield         | OpenFOAM: The Open Source CFD Toolbox           |
|  \\    /   O peration     | Version:  2.4.0                                 |
|   \\  /    A nd           | Web:      www.OpenFOAM.org                      |
|    \\/     M anipulation  |                                                 |
\*---------------------------------------------------------------------------*/
FoamFile
{
    version     2.0;
    format      ascii;
    class       volScalarField;
    location    "1.2";
    object      p;
}
// * * * * * * * * * * * * * * * * * * * * * * * * * * * * * * * * * * * * * //

dimensions      [1 -1 -2 0 0 0 0];

internalField   nonuniform List<scalar> 
500
(
0.379999
0.38001
0.380005
0.38001
0.379999
0.350248
0.35026
0.350255
0.35026
0.350248
0.320708
0.32072
0.320715
0.32072
0.320708
0.290972
0.290984
0.290979
0.290984
0.290972
0.25765
0.25766
0.257655
0.257659
0.25765
0.212178
0.212182
0.212177
0.212182
0.212178
0.161024
0.161035
0.16103
0.161035
0.161023
0.194596
0.194662
0.194658
0.194662
0.194596
0.523675
0.523829
0.523829
0.523829
0.523674
0.983714
0.983751
0.983762
0.98375
0.983712
-0.735764
-0.736432
-0.73643
-0.736433
-0.735766
-9.88052
-9.88189
-9.88199
-9.88189
-9.8805
-22.2461
-22.246
-22.2463
-22.246
-22.2461
-0.0156415
-0.0156412
-0.0156412
-0.0156412
-0.0156415
-0.00518984
-0.00519017
-0.00519018
-0.00519017
-0.00518984
-0.00735675
-0.00735671
-0.00735671
-0.00735671
-0.00735675
-0.00882023
-0.00882017
-0.00882017
-0.00882017
-0.00882023
-0.00954452
-0.00954451
-0.00954452
-0.00954451
-0.00954452
-0.0100836
-0.0100836
-0.0100836
-0.0100836
-0.0100836
-0.0106527
-0.0106527
-0.0106527
-0.0106527
-0.0106527
-0.0112574
-0.0112574
-0.0112574
-0.0112574
-0.0112574
-0.0118761
-0.0118761
-0.0118761
-0.0118761
-0.0118761
-0.0125006
-0.0125006
-0.0125006
-0.0125006
-0.0125006
-0.013131
-0.013131
-0.013131
-0.013131
-0.013131
-0.0137681
-0.0137681
-0.0137681
-0.0137681
-0.0137681
-0.0144124
-0.0144124
-0.0144124
-0.0144124
-0.0144124
-0.0150639
-0.0150639
-0.0150639
-0.0150639
-0.0150639
-0.0157227
-0.0157227
-0.0157227
-0.0157227
-0.0157227
-0.0163889
-0.0163889
-0.0163889
-0.0163889
-0.0163889
-0.0170624
-0.0170624
-0.0170624
-0.0170624
-0.0170624
-0.0177435
-0.0177435
-0.0177435
-0.0177435
-0.0177435
-0.0184322
-0.0184322
-0.0184322
-0.0184322
-0.0184322
-0.0191286
-0.0191286
-0.0191286
-0.0191286
-0.0191286
-0.0198327
-0.0198327
-0.0198327
-0.0198327
-0.0198327
-0.0205447
-0.0205447
-0.0205447
-0.0205447
-0.0205447
-0.0212647
-0.0212647
-0.0212647
-0.0212647
-0.0212647
-0.0219927
-0.0219927
-0.0219927
-0.0219927
-0.0219927
-0.0227288
-0.0227288
-0.0227288
-0.0227288
-0.0227288
-0.0234731
-0.0234731
-0.0234731
-0.0234731
-0.0234731
-0.0242257
-0.0242257
-0.0242257
-0.0242257
-0.0242257
-0.0249868
-0.0249868
-0.0249868
-0.0249868
-0.0249868
-0.0257563
-0.0257563
-0.0257563
-0.0257563
-0.0257563
-0.0265344
-0.0265344
-0.0265344
-0.0265344
-0.0265344
-0.0273212
-0.0273212
-0.0273212
-0.0273212
-0.0273212
-0.0281167
-0.0281167
-0.0281167
-0.0281167
-0.0281167
-0.0289212
-0.0289212
-0.0289212
-0.0289212
-0.0289212
-0.0297346
-0.0297346
-0.0297346
-0.0297346
-0.0297346
-0.0305571
-0.0305571
-0.0305571
-0.0305571
-0.0305571
-0.0313888
-0.0313888
-0.0313888
-0.0313888
-0.0313888
-0.0322297
-0.0322297
-0.0322297
-0.0322297
-0.0322297
-0.0330801
-0.0330801
-0.0330801
-0.0330801
-0.0330801
-0.0339399
-0.0339399
-0.0339399
-0.0339399
-0.0339399
-0.0348093
-0.0348093
-0.0348093
-0.0348093
-0.0348093
-0.0356885
-0.0356885
-0.0356885
-0.0356885
-0.0356885
-0.0365774
-0.0365774
-0.0365774
-0.0365774
-0.0365774
-0.0374763
-0.0374763
-0.0374763
-0.0374763
-0.0374763
-0.0383852
-0.0383852
-0.0383852
-0.0383852
-0.0383852
-0.0393042
-0.0393042
-0.0393042
-0.0393042
-0.0393042
-0.0402335
-0.0402335
-0.0402335
-0.0402335
-0.0402335
-0.0411731
-0.0411731
-0.0411731
-0.0411731
-0.0411731
-0.0421233
-0.0421233
-0.0421233
-0.0421233
-0.0421233
-0.043084
-0.043084
-0.043084
-0.043084
-0.043084
-0.0440555
-0.0440555
-0.0440555
-0.0440555
-0.0440555
-0.0450378
-0.0450378
-0.0450378
-0.0450378
-0.0450378
-0.046031
-0.046031
-0.046031
-0.046031
-0.046031
-0.0470354
-0.0470354
-0.0470354
-0.0470354
-0.0470354
-0.0480509
-0.0480509
-0.0480509
-0.0480509
-0.0480509
-0.0490778
-0.0490778
-0.0490778
-0.0490778
-0.0490778
-0.0501162
-0.0501162
-0.0501162
-0.0501162
-0.0501162
-0.0511661
-0.0511661
-0.0511661
-0.0511661
-0.0511661
-0.0522278
-0.0522278
-0.0522278
-0.0522278
-0.0522278
-0.0533013
-0.0533013
-0.0533013
-0.0533013
-0.0533013
-0.0543867
-0.0543867
-0.0543867
-0.0543867
-0.0543867
-0.0554843
-0.0554843
-0.0554843
-0.0554843
-0.0554843
-0.0565942
-0.0565942
-0.0565942
-0.0565942
-0.0565942
-0.0577164
-0.0577164
-0.0577164
-0.0577164
-0.0577164
-0.0588511
-0.0588511
-0.0588511
-0.0588511
-0.0588511
-0.0599985
-0.0599986
-0.0599986
-0.0599986
-0.0599985
-0.0611588
-0.0611588
-0.0611588
-0.0611588
-0.0611588
-0.0623319
-0.0623319
-0.0623319
-0.0623319
-0.0623319
-0.0635182
-0.0635182
-0.0635182
-0.0635182
-0.0635182
-0.0647177
-0.0647177
-0.0647177
-0.0647177
-0.0647177
-0.0659305
-0.0659305
-0.0659305
-0.0659305
-0.0659305
-0.0671569
-0.0671569
-0.0671569
-0.0671569
-0.0671569
-0.068397
-0.068397
-0.068397
-0.068397
-0.068397
-0.069651
-0.069651
-0.069651
-0.069651
-0.069651
-0.0709189
-0.0709189
-0.0709189
-0.0709189
-0.0709189
-0.0722009
-0.0722009
-0.0722009
-0.0722009
-0.0722009
-0.0734973
-0.0734973
-0.0734973
-0.0734973
-0.0734973
-0.0748082
-0.0748082
-0.0748082
-0.0748082
-0.0748082
-0.0761336
-0.0761336
-0.0761336
-0.0761336
-0.0761336
-0.0774739
-0.0774739
-0.0774739
-0.0774739
-0.0774739
-0.0788291
-0.0788291
-0.0788291
-0.0788291
-0.0788291
-0.0801995
-0.0801995
-0.0801995
-0.0801995
-0.0801995
-0.0815851
-0.0815851
-0.0815851
-0.0815851
-0.0815851
-0.0829862
-0.0829862
-0.0829862
-0.0829862
-0.0829862
-0.0844029
-0.0844029
-0.0844029
-0.0844029
-0.0844029
-0.0858354
-0.0858354
-0.0858354
-0.0858354
-0.0858354
-0.087284
-0.087284
-0.087284
-0.087284
-0.087284
-0.0887487
-0.0887487
-0.0887487
-0.0887487
-0.0887487
)
;

boundaryField
{
    BotWall
    {
        type            calculated;
        value           nonuniform List<scalar> 5(0.394819 0.39483 0.394825 0.39483 0.394819);
    }
    FreeStream
    {
        type            calculated;
        value           nonuniform List<scalar> 5(-0.0894851 -0.0894851 -0.0894851 -0.0894851 -0.0894851);
    }
    FrontNBack
    {
        type            empty;
    }
    LeftSide
    {
        type            symmetryPlane;
    }
    RightSide
    {
        type            symmetryPlane;
    }
}


// ************************************************************************* //
