/*--------------------------------*- C++ -*----------------------------------*\
| =========                 |                                                 |
| \\      /  F ield         | OpenFOAM: The Open Source CFD Toolbox           |
|  \\    /   O peration     | Version:  2.4.0                                 |
|   \\  /    A nd           | Web:      www.OpenFOAM.org                      |
|    \\/     M anipulation  |                                                 |
\*---------------------------------------------------------------------------*/
FoamFile
{
    version     2.0;
    format      ascii;
    class       volScalarField;
    location    "1.2";
    object      p_rgh;
}
// * * * * * * * * * * * * * * * * * * * * * * * * * * * * * * * * * * * * * //

dimensions      [1 -1 -2 0 0 0 0];

internalField   nonuniform List<scalar> 
500
(
0.394819
0.39483
0.394825
0.39483
0.394819
0.394874
0.394886
0.394881
0.394886
0.394874
0.395473
0.395485
0.39548
0.395485
0.395473
0.396212
0.396224
0.396219
0.396224
0.396211
0.393705
0.393714
0.39371
0.393714
0.393704
0.379392
0.379395
0.379391
0.379395
0.379391
0.359744
0.359755
0.35975
0.359755
0.359744
0.425175
0.42524
0.425236
0.42524
0.425174
0.786467
0.786621
0.786621
0.786621
0.786465
1.27908
1.27912
1.27913
1.27911
1.27908
-0.407463
-0.408131
-0.408128
-0.408131
-0.407464
-9.51892
-9.52029
-9.52038
-9.52029
-9.5189
-21.9732
-21.9731
-21.9734
-21.9731
-21.9732
-0.00853015
-0.00852982
-0.00852981
-0.00852982
-0.00853015
0.00249183
0.00249151
0.0024915
0.00249151
0.00249184
0.000901603
0.000901645
0.000901642
0.000901646
0.000901603
2.12418e-05
2.13016e-05
2.12998e-05
2.13019e-05
2.12417e-05
-0.000113428
-0.000113425
-0.000113427
-0.000113425
-0.000113428
-5.62903e-05
-5.6304e-05
-5.63062e-05
-5.63037e-05
-5.62904e-05
-2.258e-05
-2.25875e-05
-2.25898e-05
-2.25872e-05
-2.258e-05
-1.77033e-05
-1.77057e-05
-1.7708e-05
-1.77054e-05
-1.77033e-05
-1.99491e-05
-1.99507e-05
-1.9953e-05
-1.99504e-05
-1.99491e-05
-2.12519e-05
-2.12542e-05
-2.12564e-05
-2.12538e-05
-2.12519e-05
-2.1411e-05
-2.14135e-05
-2.14157e-05
-2.14131e-05
-2.1411e-05
-2.12914e-05
-2.1294e-05
-2.12962e-05
-2.12936e-05
-2.12914e-05
-2.12101e-05
-2.12127e-05
-2.12148e-05
-2.12123e-05
-2.12101e-05
-2.11739e-05
-2.11764e-05
-2.11785e-05
-2.1176e-05
-2.11739e-05
-2.11482e-05
-2.11506e-05
-2.11528e-05
-2.11503e-05
-2.11482e-05
-2.11206e-05
-2.1123e-05
-2.11251e-05
-2.11227e-05
-2.11205e-05
-2.10908e-05
-2.10932e-05
-2.10953e-05
-2.10929e-05
-2.10908e-05
-2.10603e-05
-2.10627e-05
-2.10648e-05
-2.10624e-05
-2.10603e-05
-2.10295e-05
-2.10319e-05
-2.10339e-05
-2.10315e-05
-2.10295e-05
-2.09984e-05
-2.10008e-05
-2.10028e-05
-2.10004e-05
-2.09984e-05
-2.0967e-05
-2.09693e-05
-2.09714e-05
-2.0969e-05
-2.0967e-05
-2.09353e-05
-2.09375e-05
-2.09395e-05
-2.09372e-05
-2.09352e-05
-2.09031e-05
-2.09054e-05
-2.09073e-05
-2.09051e-05
-2.09031e-05
-2.08706e-05
-2.08729e-05
-2.08748e-05
-2.08725e-05
-2.08706e-05
-2.08378e-05
-2.084e-05
-2.08419e-05
-2.08396e-05
-2.08377e-05
-2.08046e-05
-2.08067e-05
-2.08086e-05
-2.08064e-05
-2.08045e-05
-2.0771e-05
-2.07731e-05
-2.07749e-05
-2.07727e-05
-2.07709e-05
-2.0737e-05
-2.07391e-05
-2.07408e-05
-2.07387e-05
-2.07369e-05
-2.07026e-05
-2.07047e-05
-2.07064e-05
-2.07043e-05
-2.07025e-05
-2.06679e-05
-2.06699e-05
-2.06716e-05
-2.06696e-05
-2.06678e-05
-2.06327e-05
-2.06347e-05
-2.06364e-05
-2.06344e-05
-2.06326e-05
-2.05972e-05
-2.05991e-05
-2.06008e-05
-2.05988e-05
-2.05971e-05
-2.05613e-05
-2.05632e-05
-2.05648e-05
-2.05629e-05
-2.05612e-05
-2.05249e-05
-2.05268e-05
-2.05284e-05
-2.05265e-05
-2.05248e-05
-2.04882e-05
-2.049e-05
-2.04915e-05
-2.04897e-05
-2.04881e-05
-2.04511e-05
-2.04528e-05
-2.04543e-05
-2.04525e-05
-2.04509e-05
-2.04135e-05
-2.04152e-05
-2.04167e-05
-2.04149e-05
-2.04134e-05
-2.03755e-05
-2.03772e-05
-2.03786e-05
-2.03769e-05
-2.03754e-05
-2.03371e-05
-2.03387e-05
-2.03401e-05
-2.03385e-05
-2.0337e-05
-2.02983e-05
-2.02998e-05
-2.03012e-05
-2.02996e-05
-2.02982e-05
-2.0259e-05
-2.02605e-05
-2.02618e-05
-2.02603e-05
-2.02589e-05
-2.02193e-05
-2.02208e-05
-2.02221e-05
-2.02205e-05
-2.02192e-05
-2.01791e-05
-2.01806e-05
-2.01818e-05
-2.01803e-05
-2.0179e-05
-2.01385e-05
-2.01399e-05
-2.01412e-05
-2.01397e-05
-2.01384e-05
-2.00975e-05
-2.00989e-05
-2.01e-05
-2.00986e-05
-2.00974e-05
-2.0056e-05
-2.00573e-05
-2.00584e-05
-2.00571e-05
-2.00559e-05
-2.0014e-05
-2.00153e-05
-2.00164e-05
-2.00151e-05
-2.00139e-05
-1.99716e-05
-1.99728e-05
-1.99739e-05
-1.99726e-05
-1.99715e-05
-1.99287e-05
-1.99299e-05
-1.99309e-05
-1.99297e-05
-1.99286e-05
-1.98853e-05
-1.98865e-05
-1.98874e-05
-1.98863e-05
-1.98852e-05
-1.98414e-05
-1.98426e-05
-1.98435e-05
-1.98424e-05
-1.98413e-05
-1.97971e-05
-1.97982e-05
-1.97991e-05
-1.9798e-05
-1.9797e-05
-1.97523e-05
-1.97533e-05
-1.97542e-05
-1.97531e-05
-1.97522e-05
-1.97069e-05
-1.97079e-05
-1.97088e-05
-1.97077e-05
-1.97068e-05
-1.96611e-05
-1.9662e-05
-1.96628e-05
-1.96619e-05
-1.9661e-05
-1.96147e-05
-1.96156e-05
-1.96164e-05
-1.96155e-05
-1.96146e-05
-1.95679e-05
-1.95687e-05
-1.95695e-05
-1.95686e-05
-1.95678e-05
-1.95205e-05
-1.95213e-05
-1.9522e-05
-1.95212e-05
-1.95204e-05
-1.94726e-05
-1.94734e-05
-1.94741e-05
-1.94732e-05
-1.94725e-05
-1.94241e-05
-1.94249e-05
-1.94256e-05
-1.94248e-05
-1.94241e-05
-1.93752e-05
-1.93759e-05
-1.93765e-05
-1.93758e-05
-1.93751e-05
-1.93257e-05
-1.93264e-05
-1.93269e-05
-1.93262e-05
-1.93256e-05
-1.92756e-05
-1.92763e-05
-1.92768e-05
-1.92761e-05
-1.92755e-05
-1.9225e-05
-1.92256e-05
-1.92261e-05
-1.92255e-05
-1.92249e-05
-1.91738e-05
-1.91744e-05
-1.91749e-05
-1.91743e-05
-1.91737e-05
-1.9122e-05
-1.91226e-05
-1.91231e-05
-1.91225e-05
-1.9122e-05
-1.90697e-05
-1.90703e-05
-1.90707e-05
-1.90702e-05
-1.90696e-05
-1.90168e-05
-1.90173e-05
-1.90178e-05
-1.90172e-05
-1.90168e-05
-1.89633e-05
-1.89638e-05
-1.89642e-05
-1.89637e-05
-1.89633e-05
-1.89093e-05
-1.89097e-05
-1.89101e-05
-1.89096e-05
-1.89092e-05
-1.88546e-05
-1.8855e-05
-1.88554e-05
-1.88549e-05
-1.88545e-05
-1.87993e-05
-1.87997e-05
-1.88e-05
-1.87996e-05
-1.87992e-05
-1.87434e-05
-1.87438e-05
-1.87441e-05
-1.87437e-05
-1.87434e-05
-1.86869e-05
-1.86872e-05
-1.86875e-05
-1.86872e-05
-1.86868e-05
-1.86298e-05
-1.86301e-05
-1.86303e-05
-1.863e-05
-1.86297e-05
-1.8572e-05
-1.85723e-05
-1.85725e-05
-1.85722e-05
-1.85719e-05
-1.85136e-05
-1.85139e-05
-1.85141e-05
-1.85138e-05
-1.85135e-05
-1.84545e-05
-1.84548e-05
-1.8455e-05
-1.84547e-05
-1.84545e-05
-1.83948e-05
-1.8395e-05
-1.83952e-05
-1.8395e-05
-1.83948e-05
-1.83344e-05
-1.83346e-05
-1.83348e-05
-1.83346e-05
-1.83344e-05
-1.82734e-05
-1.82736e-05
-1.82737e-05
-1.82735e-05
-1.82734e-05
-1.82117e-05
-1.82119e-05
-1.8212e-05
-1.82118e-05
-1.82117e-05
-1.81493e-05
-1.81494e-05
-1.81495e-05
-1.81494e-05
-1.81493e-05
-1.80862e-05
-1.80863e-05
-1.80864e-05
-1.80863e-05
-1.80862e-05
-1.80224e-05
-1.80225e-05
-1.80226e-05
-1.80225e-05
-1.80224e-05
-1.79579e-05
-1.7958e-05
-1.7958e-05
-1.7958e-05
-1.79579e-05
-1.78927e-05
-1.78927e-05
-1.78928e-05
-1.78927e-05
-1.78926e-05
)
;

boundaryField
{
    BotWall
    {
        type            fixedFluxPressure;
        gradient        uniform 0;
        value           nonuniform List<scalar> 5(0.394819 0.39483 0.394825 0.39483 0.394819);
    }
    FreeStream
    {
        type            totalPressure;
        rho             rho;
        psi             none;
        gamma           1;
        p0              uniform 0;
        value           nonuniform List<scalar> 5(-1.78598e-05 -1.78599e-05 -1.786e-05 -1.78599e-05 -1.78598e-05);
    }
    FrontNBack
    {
        type            empty;
    }
    LeftSide
    {
        type            symmetryPlane;
    }
    RightSide
    {
        type            symmetryPlane;
    }
}


// ************************************************************************* //
