/*--------------------------------*- C++ -*----------------------------------*\
| =========                 |                                                 |
| \\      /  F ield         | OpenFOAM: The Open Source CFD Toolbox           |
|  \\    /   O peration     | Version:  2.4.0                                 |
|   \\  /    A nd           | Web:      www.OpenFOAM.org                      |
|    \\/     M anipulation  |                                                 |
\*---------------------------------------------------------------------------*/
FoamFile
{
    version     2.0;
    format      ascii;
    class       surfaceScalarField;
    location    "1.2";
    object      phi;
}
// * * * * * * * * * * * * * * * * * * * * * * * * * * * * * * * * * * * * * //

dimensions      [0 3 -1 0 0 0 0];

internalField   nonuniform List<scalar> 
895
(
7.95962e-19
-7.96228e-19
4.48318e-19
3.47546e-19
-4.68931e-19
9.17352e-19
-8.21871e-19
3.53098e-19
-8.2242e-19
2.43702e-18
-3.24069e-18
1.36434e-18
1.40786e-18
-1.42734e-18
3.6916e-18
-2.51592e-18
1.42787e-18
-3.34833e-18
4.13685e-18
-7.38629e-18
2.30999e-18
3.22103e-18
-2.41704e-18
8.39991e-18
-4.27122e-18
3.26759e-18
-7.62955e-18
5.91135e-18
-1.33072e-17
3.29434e-18
5.82364e-18
-3.44739e-18
1.51223e-17
-6.10464e-18
5.91021e-18
-1.37439e-17
7.74347e-18
-2.10606e-17
4.30857e-18
9.24401e-18
-4.50969e-18
2.39214e-17
-7.99743e-18
9.38364e-18
-2.17507e-17
9.66022e-18
-3.07306e-17
5.36604e-18
1.3524e-17
-5.61696e-18
3.4886e-17
-9.97705e-18
1.37302e-17
-3.17363e-17
1.16276e-17
-4.23678e-17
6.45659e-18
1.86817e-17
-6.75922e-18
4.80847e-17
-1.20098e-17
1.89683e-17
-4.37538e-17
1.36637e-17
-5.60403e-17
7.60371e-18
2.47296e-17
-7.95998e-18
6.36331e-17
-1.41135e-17
2.5111e-17
-5.78738e-17
1.57738e-17
-7.18219e-17
8.80381e-18
3.16892e-17
-9.21565e-18
8.16397e-17
-1.6294e-17
3.21804e-17
-7.41728e-17
1.81672e-17
-8.99953e-17
1.00582e-17
3.97904e-17
-1.05279e-17
1.02216e-16
-1.87607e-17
4.04067e-17
-9.29369e-17
2.09621e-17
-1.10961e-16
1.12161e-17
4.95317e-17
-1.17473e-17
1.25174e-16
-2.16337e-17
5.02894e-17
-1.14572e-16
2.35807e-17
-1.94906e-16
1.23351e-17
6.07772e-17
-1.2928e-17
1.50437e-16
-2.43428e-17
6.17037e-17
-2.01242e-16
2.38074e-17
-3.95811e-10
1.38118e-17
-3.95811e-10
-1.44593e-17
-3.95812e-10
-2.46826e-17
-3.95811e-10
-3.95811e-10
2.53346e-17
-3.95811e-10
1.4017e-17
-3.95811e-10
-1.46968e-17
-3.95812e-10
-2.6199e-17
-3.95811e-10
-3.95811e-10
3.06258e-17
-3.95811e-10
1.32656e-17
-3.95811e-10
-1.36924e-17
-3.95812e-10
-3.14296e-17
-3.95811e-10
-3.95811e-10
2.24169e-17
-3.95811e-10
1.28305e-17
-3.95811e-10
-1.29887e-17
-3.95811e-10
-2.31312e-17
-3.95811e-10
-3.95811e-10
1.93623e-17
-3.95811e-10
1.13523e-17
-3.95811e-10
-1.12458e-17
-3.95811e-10
-1.99913e-17
-3.95811e-10
-3.95811e-10
1.80754e-17
-3.95811e-10
9.94161e-18
-3.95811e-10
-9.57565e-18
-3.95811e-10
-1.86215e-17
-3.95811e-10
-3.95811e-10
1.64104e-17
-3.95811e-10
8.79308e-18
-3.95811e-10
-8.17359e-18
-3.95811e-10
-1.68733e-17
-3.95811e-10
-3.95811e-10
1.43481e-17
-3.95811e-10
7.71442e-18
-3.95811e-10
-6.84734e-18
-3.95811e-10
-1.47268e-17
-3.95811e-10
-3.95811e-10
1.22864e-17
-3.95811e-10
6.63108e-18
-3.95811e-10
-5.52245e-18
-3.95811e-10
-1.25803e-17
-3.95811e-10
-3.95811e-10
1.03495e-17
-3.95811e-10
5.56148e-18
-3.95811e-10
-4.21758e-18
-3.95811e-10
-1.0558e-17
-3.95811e-10
-3.95811e-10
8.50963e-18
-3.95811e-10
4.52775e-18
-3.95811e-10
-2.95507e-18
-3.95811e-10
-8.63257e-18
-3.95811e-10
-3.95811e-10
6.7366e-18
-3.95811e-10
3.53507e-18
-3.95811e-10
-1.74033e-18
-3.95811e-10
-6.77377e-18
-3.95811e-10
-3.95811e-10
5.02491e-18
-3.95811e-10
2.58191e-18
-3.95811e-10
-5.72036e-19
-3.95811e-10
-4.97629e-18
-3.95811e-10
-3.95811e-10
3.37814e-18
-3.95811e-10
1.66717e-18
-3.95811e-10
5.50716e-19
-3.95811e-10
-3.24384e-18
-3.95811e-10
-3.95811e-10
1.79905e-18
-3.95811e-10
7.91014e-19
-3.95811e-10
1.62757e-18
-3.95811e-10
-1.57933e-18
-3.95811e-10
-3.95811e-10
2.88654e-19
-3.95811e-10
-4.60319e-20
-3.95811e-10
2.65782e-18
-3.95811e-10
1.61021e-20
-3.95811e-10
-3.95811e-10
-1.15269e-18
-3.95811e-10
-8.43562e-19
-3.95811e-10
3.64088e-18
-3.95811e-10
1.54193e-18
-3.95811e-10
-3.95811e-10
-2.52462e-18
-3.95811e-10
-1.60131e-18
-3.95811e-10
4.57634e-18
-3.95811e-10
2.99766e-18
-3.95811e-10
-3.95811e-10
-3.82681e-18
-3.95811e-10
-2.3191e-18
-3.95811e-10
5.46385e-18
-3.95811e-10
4.38281e-18
-3.95811e-10
-3.95811e-10
-5.05898e-18
-3.95811e-10
-2.9968e-18
-3.95811e-10
6.30315e-18
-3.95811e-10
5.69696e-18
-3.95811e-10
-3.95811e-10
-6.22099e-18
-3.95811e-10
-3.63436e-18
-3.95811e-10
7.09406e-18
-3.95811e-10
6.93981e-18
-3.95811e-10
-3.95811e-10
-7.31278e-18
-3.95811e-10
-4.23175e-18
-3.95811e-10
7.83643e-18
-3.95811e-10
8.11118e-18
-3.95811e-10
-3.95811e-10
-8.33442e-18
-3.95811e-10
-4.78905e-18
-3.95811e-10
8.53024e-18
-3.95811e-10
9.21099e-18
-3.95811e-10
-3.95811e-10
-9.2861e-18
-3.95811e-10
-5.30637e-18
-3.95811e-10
9.17551e-18
-3.95811e-10
1.02393e-17
-3.95811e-10
-3.95811e-10
-1.01681e-17
-3.95811e-10
-5.78391e-18
-3.95811e-10
9.77236e-18
-3.95811e-10
1.11962e-17
-3.95811e-10
-3.95811e-10
-1.09808e-17
-3.95811e-10
-6.2219e-18
-3.95811e-10
1.0321e-17
-3.95811e-10
1.2082e-17
-3.95811e-10
-3.95811e-10
-1.17247e-17
-3.95811e-10
-6.62067e-18
-3.95811e-10
1.08216e-17
-3.95812e-10
1.2897e-17
-3.95811e-10
-3.95811e-10
-1.24005e-17
-3.95811e-10
-6.98059e-18
-3.95811e-10
1.12746e-17
-3.95812e-10
1.36417e-17
-3.95811e-10
-3.95811e-10
-1.30088e-17
-3.95811e-10
-7.30211e-18
-3.95811e-10
1.16803e-17
-3.95812e-10
1.43168e-17
-3.95811e-10
-3.95811e-10
-1.35505e-17
-3.95811e-10
-7.58572e-18
-3.95811e-10
1.20394e-17
-3.95812e-10
1.4923e-17
-3.95811e-10
-3.95811e-10
-1.40265e-17
-3.95811e-10
-7.83199e-18
-3.95811e-10
1.23524e-17
-3.95812e-10
1.5461e-17
-3.95811e-10
-3.95811e-10
-1.44379e-17
-3.95811e-10
-8.04156e-18
-3.95811e-10
1.26198e-17
-3.95812e-10
1.59318e-17
-3.95811e-10
-3.95811e-10
-1.47858e-17
-3.95811e-10
-8.2151e-18
-3.95811e-10
1.28426e-17
-3.95812e-10
1.63364e-17
-3.95811e-10
-3.95811e-10
-1.50715e-17
-3.95811e-10
-8.35336e-18
-3.95811e-10
1.30214e-17
-3.95812e-10
1.66761e-17
-3.95811e-10
-3.95811e-10
-1.52963e-17
-3.95811e-10
-8.45715e-18
-3.95811e-10
1.31571e-17
-3.95812e-10
1.6952e-17
-3.95811e-10
-3.95811e-10
-1.54616e-17
-3.95811e-10
-8.52732e-18
-3.95811e-10
1.32508e-17
-3.95812e-10
1.71655e-17
-3.95811e-10
-3.95811e-10
-1.55691e-17
-3.95811e-10
-8.56478e-18
-3.95811e-10
1.33034e-17
-3.95812e-10
1.7318e-17
-3.95811e-10
-3.95811e-10
-1.56203e-17
-3.95811e-10
-8.57052e-18
-3.95811e-10
1.3316e-17
-3.95812e-10
1.74112e-17
-3.95811e-10
-3.95811e-10
-1.5617e-17
-3.95811e-10
-8.54553e-18
-3.95811e-10
1.32898e-17
-3.95812e-10
1.74468e-17
-3.95811e-10
-3.95811e-10
-1.5561e-17
-3.95811e-10
-8.49088e-18
-3.95811e-10
1.32261e-17
-3.95812e-10
1.74263e-17
-3.95811e-10
-3.95811e-10
-1.54541e-17
-3.95811e-10
-8.40769e-18
-3.95811e-10
1.31261e-17
-3.95812e-10
1.73518e-17
-3.95811e-10
-3.95811e-10
-1.52984e-17
-3.95811e-10
-8.2971e-18
-3.95811e-10
1.29911e-17
-3.95812e-10
1.7225e-17
-3.95811e-10
-3.95811e-10
-1.50958e-17
-3.95811e-10
-8.16031e-18
-3.95811e-10
1.28227e-17
-3.95812e-10
1.70481e-17
-3.95811e-10
-3.95811e-10
-1.48485e-17
-3.95811e-10
-7.99855e-18
-3.95811e-10
1.26222e-17
-3.95812e-10
1.68232e-17
-3.95811e-10
-3.95811e-10
-1.45586e-17
-3.95811e-10
-7.81309e-18
-3.95811e-10
1.23912e-17
-3.95812e-10
1.65523e-17
-3.95811e-10
-3.95811e-10
-1.42284e-17
-3.95811e-10
-7.60522e-18
-3.95811e-10
1.21312e-17
-3.95812e-10
1.62377e-17
-3.95811e-10
-3.9581e-10
-1.38602e-17
-3.95811e-10
-7.37628e-18
-3.95811e-10
1.18438e-17
-3.95812e-10
1.58817e-17
-3.95811e-10
-3.9581e-10
-1.34562e-17
-3.95811e-10
-7.12761e-18
-3.95811e-10
1.15308e-17
-3.95812e-10
1.54866e-17
-3.95811e-10
-3.9581e-10
-1.30188e-17
-3.95811e-10
-6.86059e-18
-3.95811e-10
1.11937e-17
-3.95812e-10
1.50549e-17
-3.95811e-10
-3.9581e-10
-1.25504e-17
-3.95811e-10
-6.57661e-18
-3.95811e-10
1.08343e-17
-3.95812e-10
1.4589e-17
-3.95811e-10
-3.9581e-10
-1.20535e-17
-3.9581e-10
-6.27707e-18
-3.95811e-10
1.04543e-17
-3.95812e-10
1.40913e-17
-3.95811e-10
-3.9581e-10
-1.15305e-17
-3.9581e-10
-5.96341e-18
-3.95812e-10
1.00556e-17
-3.95812e-10
1.35645e-17
-3.95811e-10
-3.9581e-10
-1.09839e-17
-3.9581e-10
-5.63704e-18
-3.95812e-10
9.63987e-18
-3.95812e-10
1.3011e-17
-3.95811e-10
-3.9581e-10
-1.04162e-17
-3.9581e-10
-5.2994e-18
-3.95812e-10
9.20893e-18
-3.95812e-10
1.24334e-17
-3.95811e-10
-3.9581e-10
-9.82984e-18
-3.9581e-10
-4.95192e-18
-3.95812e-10
8.76462e-18
-3.95812e-10
1.18343e-17
-3.95811e-10
-3.9581e-10
-9.2273e-18
-3.9581e-10
-4.59602e-18
-3.95812e-10
8.30874e-18
-3.95812e-10
1.12163e-17
-3.95811e-10
-3.9581e-10
-8.61109e-18
-3.9581e-10
-4.23313e-18
-3.95812e-10
7.84313e-18
-3.95812e-10
1.0582e-17
-3.95811e-10
-3.9581e-10
-7.98366e-18
-3.9581e-10
-3.86465e-18
-3.95812e-10
7.3696e-18
-3.95812e-10
9.93407e-18
-3.95811e-10
-3.9581e-10
-7.34746e-18
-3.9581e-10
-3.49199e-18
-3.95812e-10
6.88997e-18
-3.95812e-10
9.27498e-18
-3.95811e-10
-3.9581e-10
-6.70491e-18
-3.9581e-10
-3.11651e-18
-3.95812e-10
6.40602e-18
-3.95812e-10
8.60734e-18
-3.95811e-10
-3.9581e-10
-6.05839e-18
-3.9581e-10
-2.73958e-18
-3.95812e-10
5.91954e-18
-3.95812e-10
7.9337e-18
-3.95811e-10
-3.9581e-10
-5.41024e-18
-3.9581e-10
-2.36253e-18
-3.95812e-10
5.4323e-18
-3.95812e-10
7.25657e-18
-3.95811e-10
-3.9581e-10
-4.76278e-18
-3.9581e-10
-1.98664e-18
-3.95812e-10
4.94601e-18
-3.95812e-10
6.57845e-18
-3.95811e-10
-3.9581e-10
-4.11824e-18
-3.9581e-10
-1.6132e-18
-3.95812e-10
4.46238e-18
-3.95812e-10
5.90177e-18
-3.95811e-10
-3.9581e-10
-3.47883e-18
-3.9581e-10
-1.24343e-18
-3.95812e-10
3.98307e-18
-3.95812e-10
5.22893e-18
-3.95811e-10
-3.9581e-10
-2.84669e-18
-3.9581e-10
-8.7853e-19
-3.95812e-10
3.50971e-18
-3.95812e-10
4.56226e-18
-3.95811e-10
-3.9581e-10
-2.22387e-18
-3.9581e-10
-5.19651e-19
-3.95812e-10
3.04387e-18
-3.95812e-10
3.90406e-18
-3.95811e-10
-3.9581e-10
-1.61238e-18
-3.9581e-10
-1.679e-19
-3.95812e-10
2.58709e-18
-3.95812e-10
3.25653e-18
-3.95811e-10
-3.9581e-10
-1.01414e-18
-3.9581e-10
1.75663e-19
-3.95812e-10
2.14084e-18
-3.95812e-10
2.62185e-18
-3.95811e-10
-3.9581e-10
-4.31e-19
-3.9581e-10
5.10024e-19
-3.95812e-10
1.70655e-18
-3.95812e-10
2.00208e-18
-3.95811e-10
-3.9581e-10
1.35285e-19
-3.9581e-10
8.34226e-19
-3.95812e-10
1.28558e-18
-3.95812e-10
1.39924e-18
-3.95811e-10
-3.9581e-10
6.83035e-19
-3.9581e-10
1.14736e-18
-3.95812e-10
8.79233e-19
-3.95812e-10
8.15244e-19
-3.95811e-10
-3.9581e-10
1.21067e-18
-3.9581e-10
1.44858e-18
-3.95812e-10
4.88748e-19
-3.95812e-10
2.51947e-19
-3.95811e-10
-3.9581e-10
1.71668e-18
-3.9581e-10
1.73709e-18
-3.95812e-10
1.15295e-19
-3.95812e-10
-2.88895e-19
-3.95811e-10
-3.9581e-10
2.19967e-18
-3.9581e-10
2.01215e-18
-3.95812e-10
-2.40028e-19
-3.95812e-10
-8.0561e-19
-3.95811e-10
-3.9581e-10
2.65833e-18
-3.9581e-10
2.27309e-18
-3.95812e-10
-5.76191e-19
-3.95812e-10
-1.29661e-18
-3.95811e-10
-3.9581e-10
3.09144e-18
-3.9581e-10
2.51929e-18
-3.95812e-10
-8.9224e-19
-3.95812e-10
-1.76041e-18
-3.95811e-10
-3.9581e-10
3.49789e-18
-3.9581e-10
2.7502e-18
-3.95812e-10
-1.18729e-18
-3.95812e-10
-2.1956e-18
-3.95811e-10
-3.9581e-10
3.87665e-18
-3.9581e-10
2.96532e-18
-3.95812e-10
-1.46055e-18
-3.95812e-10
-2.60086e-18
-3.95811e-10
-3.9581e-10
4.22679e-18
-3.9581e-10
3.16422e-18
-3.95812e-10
-1.71128e-18
-3.95812e-10
-2.97497e-18
-3.95811e-10
-3.9581e-10
4.54747e-18
-3.9581e-10
3.34653e-18
-3.95812e-10
-1.93884e-18
-3.95812e-10
-3.3168e-18
-3.95811e-10
-3.9581e-10
4.83795e-18
-3.9581e-10
3.51193e-18
-3.95812e-10
-2.14266e-18
-3.95812e-10
-3.62528e-18
-3.95811e-10
-3.9581e-10
5.09757e-18
-3.9581e-10
3.66016e-18
-3.95812e-10
-2.32223e-18
-3.95812e-10
-3.89945e-18
-3.95811e-10
-3.9581e-10
5.32572e-18
-3.9581e-10
3.79102e-18
-3.95812e-10
-2.47713e-18
-3.95812e-10
-4.13838e-18
-3.95811e-10
-3.9581e-10
5.52182e-18
-3.9581e-10
3.90429e-18
-3.95812e-10
-2.60692e-18
-3.95812e-10
-4.3412e-18
-3.95811e-10
-3.9581e-10
5.68561e-18
-3.9581e-10
3.99997e-18
-3.95812e-10
-2.71144e-18
-3.95812e-10
-4.50728e-18
-3.95811e-10
-3.9581e-10
5.81773e-18
-3.9581e-10
4.07879e-18
-3.95812e-10
-2.79125e-18
-3.95812e-10
-4.63683e-18
-3.95811e-10
-3.9581e-10
5.93035e-18
4.14741e-18
-2.85425e-18
-4.74018e-18
)
;

boundaryField
{
    BotWall
    {
        type            calculated;
        value           nonuniform List<scalar> 5(2.22869e-22 -2.02519e-22 -4.03444e-22 -1.36203e-22 4.33715e-22);
    }
    FreeStream
    {
        type            calculated;
        value           nonuniform List<scalar> 5(-3.9581e-10 -3.95812e-10 -3.95812e-10 -3.95811e-10 -3.9581e-10);
    }
    FrontNBack
    {
        type            empty;
        value           nonuniform 0();
    }
    LeftSide
    {
        type            symmetryPlane;
        value           uniform 0;
    }
    RightSide
    {
        type            symmetryPlane;
        value           uniform 0;
    }
}


// ************************************************************************* //
