/*--------------------------------*- C++ -*----------------------------------*\
| =========                 |                                                 |
| \\      /  F ield         | OpenFOAM: The Open Source CFD Toolbox           |
|  \\    /   O peration     | Version:  2.4.0                                 |
|   \\  /    A nd           | Web:      www.OpenFOAM.org                      |
|    \\/     M anipulation  |                                                 |
\*---------------------------------------------------------------------------*/
FoamFile
{
    version     2.0;
    format      ascii;
    class       volVectorField;
    location    "1.2";
    object      U;
}
// * * * * * * * * * * * * * * * * * * * * * * * * * * * * * * * * * * * * * //

dimensions      [0 1 -1 0 0 0 0];

internalField   nonuniform List<vector> 
500
(
(2.55581e-10 -2.50847e-12 0)
(3.26842e-10 8.4312e-12 0)
(-2.20797e-12 8.91308e-12 0)
(-3.37442e-10 8.44415e-12 0)
(-2.63891e-10 -2.51788e-12 0)
(7.73538e-10 -4.60531e-09 0)
(9.86861e-10 -4.61996e-09 0)
(-6.66573e-12 -4.61394e-09 0)
(-1.01885e-09 -4.61992e-09 0)
(-7.98616e-10 -4.6056e-09 0)
(1.29873e-09 8.39208e-09 0)
(1.65446e-09 8.47997e-09 0)
(-1.11809e-11 8.49692e-09 0)
(-1.70829e-09 8.48014e-09 0)
(-1.34098e-09 8.3913e-09 0)
(1.83663e-09 2.2915e-08 0)
(2.33493e-09 2.29424e-08 0)
(-1.58032e-11 2.29777e-08 0)
(-2.41125e-09 2.29426e-08 0)
(-1.89658e-09 2.29133e-08 0)
(2.38082e-09 5.67552e-08 0)
(3.02173e-09 5.69481e-08 0)
(-2.05328e-11 5.70068e-08 0)
(-3.1209e-09 5.69486e-08 0)
(-2.45874e-09 5.67524e-08 0)
(2.93971e-09 -1.20321e-07 0)
(3.72339e-09 -1.20381e-07 0)
(-2.53343e-11 -1.20292e-07 0)
(-3.84575e-09 -1.2038e-07 0)
(-3.03587e-09 -1.20325e-07 0)
(3.50342e-09 -7.47265e-07 0)
(4.42998e-09 -7.47238e-07 0)
(-3.02151e-11 -7.47122e-07 0)
(-4.57592e-09 -7.47237e-07 0)
(-3.61813e-09 -7.4727e-07 0)
(4.08281e-09 -1.28145e-06 0)
(5.15217e-09 -1.28111e-06 0)
(-3.51605e-11 -1.28096e-06 0)
(-5.32207e-09 -1.28111e-06 0)
(-4.21641e-09 -1.28146e-06 0)
(4.67752e-09 2.94273e-06 0)
(5.88949e-09 2.94587e-06 0)
(-4.01398e-11 2.9461e-06 0)
(-6.08378e-09 2.94587e-06 0)
(-4.83043e-09 2.94271e-06 0)
(5.31933e-09 1.99613e-05 0)
(6.67429e-09 1.99672e-05 0)
(-4.52015e-11 1.99677e-05 0)
(-6.89357e-09 1.99672e-05 0)
(-5.49206e-09 1.99612e-05 0)
(5.98479e-09 3.21844e-05 0)
(7.48128e-09 3.21841e-05 0)
(-5.05143e-11 3.21851e-05 0)
(-7.72655e-09 3.21841e-05 0)
(-6.17813e-09 3.21843e-05 0)
(6.55359e-09 -7.33274e-05 0)
(8.20191e-09 -7.33577e-05 0)
(-5.59116e-11 -7.33579e-05 0)
(-8.47435e-09 -7.33577e-05 0)
(-6.76866e-09 -7.33273e-05 0)
(6.77623e-09 -0.000557671 0)
(8.57808e-09 -0.000557709 0)
(-6.12415e-11 -0.000557712 0)
(-8.87796e-09 -0.000557709 0)
(-7.01338e-09 -0.00055767 0)
(7.08011e-09 -0.00145337 0)
(8.90655e-09 -0.00145334 0)
(-6.21823e-11 -0.00145334 0)
(-9.21109e-09 -0.00145334 0)
(-7.32097e-09 -0.00145337 0)
(7.71745e-09 -0.00335844 0)
(9.27507e-09 -0.0033584 0)
(-5.88786e-12 -0.0033584 0)
(-9.52954e-09 -0.0033584 0)
(-7.96286e-09 -0.00335844 0)
(6.44039e-09 -0.0020523 0)
(7.69095e-09 -0.00205236 0)
(5.15388e-11 -0.00205236 0)
(-7.88951e-09 -0.00205236 0)
(-6.68566e-09 -0.0020523 0)
(5.63712e-09 -0.00190834 0)
(6.59738e-09 -0.00190835 0)
(1.0597e-10 -0.00190835 0)
(-6.74168e-09 -0.00190835 0)
(-5.88096e-09 -0.00190834 0)
(5.12513e-09 -0.00193832 0)
(5.81112e-09 -0.00193831 0)
(1.57762e-10 -0.00193831 0)
(-5.9031e-09 -0.00193831 0)
(-5.36688e-09 -0.00193832 0)
(4.63934e-09 -0.00197488 0)
(5.06612e-09 -0.00197488 0)
(2.0692e-10 -0.00197488 0)
(-5.10754e-09 -0.00197488 0)
(-4.8782e-09 -0.00197488 0)
(4.12084e-09 -0.00198226 0)
(4.3023e-09 -0.00198226 0)
(2.5351e-10 -0.00198226 0)
(-4.29479e-09 -0.00198226 0)
(-4.35593e-09 -0.00198226 0)
(3.60676e-09 -0.00198067 0)
(3.5565e-09 -0.00198068 0)
(2.97562e-10 -0.00198068 0)
(-3.50168e-09 -0.00198068 0)
(-3.83722e-09 -0.00198067 0)
(3.11997e-09 -0.00197922 0)
(2.85145e-09 -0.00197923 0)
(3.39104e-10 -0.00197923 0)
(-2.75097e-09 -0.00197923 0)
(-3.345e-09 -0.00197922 0)
(2.66193e-09 -0.00197892 0)
(2.18848e-09 -0.00197892 0)
(3.78165e-10 -0.00197892 0)
(-2.044e-09 -0.00197892 0)
(-2.8808e-09 -0.00197892 0)
(2.22902e-09 -0.00197899 0)
(1.56372e-09 -0.00197899 0)
(4.14777e-10 -0.00197899 0)
(-1.37694e-09 -0.00197899 0)
(-2.44103e-09 -0.00197899 0)
(1.81928e-09 -0.00197905 0)
(9.75016e-10 -0.00197905 0)
(4.48975e-10 -0.00197905 0)
(-7.47627e-10 -0.00197905 0)
(-2.02379e-09 -0.00197905 0)
(1.43224e-09 -0.00197906 0)
(4.21623e-10 -0.00197906 0)
(4.80797e-10 -0.00197906 0)
(-1.55339e-10 -0.00197906 0)
(-1.62866e-09 -0.00197906 0)
(1.06763e-09 -0.00197906 0)
(-9.6949e-11 -0.00197906 0)
(5.10281e-10 -0.00197906 0)
(4.00407e-10 -0.00197906 0)
(-1.25542e-09 -0.00197906 0)
(7.25085e-10 -0.00197905 0)
(-5.81342e-10 -0.00197906 0)
(5.37468e-10 -0.00197906 0)
(9.20248e-10 -0.00197906 0)
(-9.03744e-10 -0.00197905 0)
(4.04113e-10 -0.00197905 0)
(-1.03231e-09 -0.00197906 0)
(5.624e-10 -0.00197906 0)
(1.40493e-09 -0.00197906 0)
(-5.73201e-10 -0.00197905 0)
(1.04205e-10 -0.00197905 0)
(-1.45064e-09 -0.00197906 0)
(5.85123e-10 -0.00197906 0)
(1.85524e-09 -0.00197906 0)
(-2.63326e-10 -0.00197905 0)
(-1.75153e-10 -0.00197905 0)
(-1.83714e-09 -0.00197906 0)
(6.05682e-10 -0.00197906 0)
(2.27199e-09 -0.00197906 0)
(2.63484e-11 -0.00197905 0)
(-4.34481e-10 -0.00197905 0)
(-2.19262e-09 -0.00197906 0)
(6.24125e-10 -0.00197906 0)
(2.65598e-09 -0.00197906 0)
(2.96296e-10 -0.00197905 0)
(-6.74311e-10 -0.00197905 0)
(-2.51792e-09 -0.00197906 0)
(6.40503e-10 -0.00197906 0)
(3.00806e-09 -0.00197906 0)
(5.47001e-10 -0.00197905 0)
(-8.95184e-10 -0.00197905 0)
(-2.81389e-09 -0.00197906 0)
(6.54866e-10 -0.00197906 0)
(3.3291e-09 -0.00197906 0)
(7.78961e-10 -0.00197905 0)
(-1.09765e-09 -0.00197905 0)
(-3.08141e-09 -0.00197906 0)
(6.67267e-10 -0.00197906 0)
(3.61996e-09 -0.00197906 0)
(9.92681e-10 -0.00197905 0)
(-1.28227e-09 -0.00197905 0)
(-3.32136e-09 -0.00197906 0)
(6.77762e-10 -0.00197906 0)
(3.88155e-09 -0.00197906 0)
(1.18868e-09 -0.00197905 0)
(-1.4496e-09 -0.00197905 0)
(-3.53464e-09 -0.00197906 0)
(6.86405e-10 -0.00197906 0)
(4.11478e-09 -0.00197906 0)
(1.36748e-09 -0.00197905 0)
(-1.60023e-09 -0.00197905 0)
(-3.72216e-09 -0.00197906 0)
(6.93255e-10 -0.00197906 0)
(4.32057e-09 -0.00197906 0)
(1.52961e-09 -0.00197905 0)
(-1.73473e-09 -0.00197905 0)
(-3.88485e-09 -0.00197906 0)
(6.98369e-10 -0.00197906 0)
(4.49988e-09 -0.00197906 0)
(1.67561e-09 -0.00197905 0)
(-1.85368e-09 -0.00197905 0)
(-4.02364e-09 -0.00197906 0)
(7.01808e-10 -0.00197906 0)
(4.65364e-09 -0.00197906 0)
(1.80603e-09 -0.00197905 0)
(-1.95767e-09 -0.00197905 0)
(-4.13947e-09 -0.00197906 0)
(7.03632e-10 -0.00197906 0)
(4.78283e-09 -0.00197906 0)
(1.92142e-09 -0.00197905 0)
(-2.04729e-09 -0.00197905 0)
(-4.23328e-09 -0.00197906 0)
(7.03904e-10 -0.00197906 0)
(4.88841e-09 -0.00197906 0)
(2.02233e-09 -0.00197905 0)
(-2.12313e-09 -0.00197905 0)
(-4.30604e-09 -0.00197906 0)
(7.02686e-10 -0.00197906 0)
(4.97136e-09 -0.00197906 0)
(2.10933e-09 -0.00197905 0)
(-2.1858e-09 -0.00197905 0)
(-4.35869e-09 -0.00197906 0)
(7.00042e-10 -0.00197906 0)
(5.03268e-09 -0.00197906 0)
(2.18297e-09 -0.00197905 0)
(-2.23588e-09 -0.00197905 0)
(-4.39219e-09 -0.00197906 0)
(6.96036e-10 -0.00197906 0)
(5.07334e-09 -0.00197906 0)
(2.24383e-09 -0.00197905 0)
(-2.27397e-09 -0.00197905 0)
(-4.4075e-09 -0.00197906 0)
(6.90735e-10 -0.00197906 0)
(5.09435e-09 -0.00197906 0)
(2.29245e-09 -0.00197905 0)
(-2.30065e-09 -0.00197905 0)
(-4.40558e-09 -0.00197906 0)
(6.84203e-10 -0.00197906 0)
(5.09669e-09 -0.00197906 0)
(2.32942e-09 -0.00197905 0)
(-2.31653e-09 -0.00197905 0)
(-4.38739e-09 -0.00197906 0)
(6.76507e-10 -0.00197906 0)
(5.08135e-09 -0.00197906 0)
(2.3553e-09 -0.00197905 0)
(-2.3222e-09 -0.00197905 0)
(-4.35387e-09 -0.00197906 0)
(6.67713e-10 -0.00197906 0)
(5.04933e-09 -0.00197906 0)
(2.37065e-09 -0.00197905 0)
(-2.31822e-09 -0.00197905 0)
(-4.30596e-09 -0.00197906 0)
(6.57889e-10 -0.00197906 0)
(5.00161e-09 -0.00197906 0)
(2.37603e-09 -0.00197905 0)
(-2.30519e-09 -0.00197905 0)
(-4.24462e-09 -0.00197906 0)
(6.47101e-10 -0.00197906 0)
(4.93917e-09 -0.00197906 0)
(2.372e-09 -0.00197905 0)
(-2.28368e-09 -0.00197905 0)
(-4.17076e-09 -0.00197906 0)
(6.35416e-10 -0.00197906 0)
(4.86299e-09 -0.00197906 0)
(2.35912e-09 -0.00197905 0)
(-2.25425e-09 -0.00197905 0)
(-4.0853e-09 -0.00197906 0)
(6.22901e-10 -0.00197906 0)
(4.77403e-09 -0.00197906 0)
(2.33793e-09 -0.00197905 0)
(-2.21746e-09 -0.00197905 0)
(-3.98916e-09 -0.00197906 0)
(6.09623e-10 -0.00197906 0)
(4.67325e-09 -0.00197906 0)
(2.30899e-09 -0.00197905 0)
(-2.17387e-09 -0.00197905 0)
(-3.88322e-09 -0.00197906 0)
(5.95647e-10 -0.00197906 0)
(4.5616e-09 -0.00197906 0)
(2.27283e-09 -0.00197905 0)
(-2.12402e-09 -0.00197905 0)
(-3.76837e-09 -0.00197906 0)
(5.81042e-10 -0.00197906 0)
(4.44e-09 -0.00197906 0)
(2.22999e-09 -0.00197905 0)
(-2.06843e-09 -0.00197905 0)
(-3.64546e-09 -0.00197906 0)
(5.6587e-10 -0.00197906 0)
(4.30937e-09 -0.00197906 0)
(2.18098e-09 -0.00197905 0)
(-2.00764e-09 -0.00197905 0)
(-3.51536e-09 -0.00197906 0)
(5.50198e-10 -0.00197906 0)
(4.17061e-09 -0.00197906 0)
(2.12632e-09 -0.00197905 0)
(-1.94216e-09 -0.00197905 0)
(-3.37888e-09 -0.00197906 0)
(5.34089e-10 -0.00197906 0)
(4.02461e-09 -0.00197906 0)
(2.06653e-09 -0.00197905 0)
(-1.87247e-09 -0.00197905 0)
(-3.23684e-09 -0.00197906 0)
(5.17606e-10 -0.00197906 0)
(3.87223e-09 -0.00197906 0)
(2.00208e-09 -0.00197905 0)
(-1.79908e-09 -0.00197905 0)
(-3.09001e-09 -0.00197906 0)
(5.00811e-10 -0.00197906 0)
(3.71432e-09 -0.00197906 0)
(1.93348e-09 -0.00197905 0)
(-1.72246e-09 -0.00197905 0)
(-2.93918e-09 -0.00197906 0)
(4.83766e-10 -0.00197906 0)
(3.5517e-09 -0.00197906 0)
(1.86119e-09 -0.00197905 0)
(-1.64306e-09 -0.00197905 0)
(-2.78508e-09 -0.00197906 0)
(4.6653e-10 -0.00197906 0)
(3.38517e-09 -0.00197906 0)
(1.78567e-09 -0.00197905 0)
(-1.56133e-09 -0.00197905 0)
(-2.62844e-09 -0.00197906 0)
(4.49161e-10 -0.00197906 0)
(3.21551e-09 -0.00197906 0)
(1.70739e-09 -0.00197905 0)
(-1.4777e-09 -0.00197905 0)
(-2.46994e-09 -0.00197906 0)
(4.31716e-10 -0.00197906 0)
(3.04348e-09 -0.00197906 0)
(1.62676e-09 -0.00197905 0)
(-1.39259e-09 -0.00197905 0)
(-2.31026e-09 -0.00197906 0)
(4.14252e-10 -0.00197906 0)
(2.86979e-09 -0.00197906 0)
(1.54422e-09 -0.00197905 0)
(-1.3064e-09 -0.00197905 0)
(-2.15003e-09 -0.00197906 0)
(3.96821e-10 -0.00197906 0)
(2.69516e-09 -0.00197906 0)
(1.46017e-09 -0.00197905 0)
(-1.21951e-09 -0.00197905 0)
(-1.98988e-09 -0.00197906 0)
(3.79476e-10 -0.00197906 0)
(2.52026e-09 -0.00197906 0)
(1.37501e-09 -0.00197905 0)
(-1.1323e-09 -0.00197905 0)
(-1.83039e-09 -0.00197906 0)
(3.62266e-10 -0.00197906 0)
(2.34573e-09 -0.00197906 0)
(1.28911e-09 -0.00197905 0)
(-1.04511e-09 -0.00197905 0)
(-1.67212e-09 -0.00197906 0)
(3.45241e-10 -0.00197906 0)
(2.17219e-09 -0.00197906 0)
(1.20285e-09 -0.00197905 0)
(-9.58274e-10 -0.00197905 0)
(-1.5156e-09 -0.00197906 0)
(3.28447e-10 -0.00197906 0)
(2.00023e-09 -0.00197906 0)
(1.11657e-09 -0.00197905 0)
(-8.72117e-10 -0.00197905 0)
(-1.36133e-09 -0.00197906 0)
(3.11928e-10 -0.00197906 0)
(1.83041e-09 -0.00197906 0)
(1.0306e-09 -0.00197905 0)
(-7.86935e-10 -0.00197905 0)
(-1.20977e-09 -0.00197906 0)
(2.95726e-10 -0.00197906 0)
(1.66325e-09 -0.00197906 0)
(9.45257e-10 -0.00197905 0)
(-7.03013e-10 -0.00197905 0)
(-1.06137e-09 -0.00197906 0)
(2.79881e-10 -0.00197906 0)
(1.49924e-09 -0.00197906 0)
(8.60848e-10 -0.00197905 0)
(-6.20615e-10 -0.00197905 0)
(-9.16537e-10 -0.00197906 0)
(2.6443e-10 -0.00197906 0)
(1.33886e-09 -0.00197906 0)
(7.77654e-10 -0.00197905 0)
(-5.3999e-10 -0.00197905 0)
(-7.75652e-10 -0.00197906 0)
(2.4941e-10 -0.00197906 0)
(1.18254e-09 -0.00197906 0)
(6.95944e-10 -0.00197905 0)
(-4.6137e-10 -0.00197905 0)
(-6.39063e-10 -0.00197906 0)
(2.34853e-10 -0.00197906 0)
(1.03067e-09 -0.00197906 0)
(6.15968e-10 -0.00197905 0)
(-3.84967e-10 -0.00197905 0)
(-5.07088e-10 -0.00197906 0)
(2.2079e-10 -0.00197906 0)
(8.83634e-10 -0.00197906 0)
(5.37963e-10 -0.00197905 0)
(-3.1098e-10 -0.00197905 0)
(-3.80016e-10 -0.00197906 0)
(2.07248e-10 -0.00197906 0)
(7.41761e-10 -0.00197906 0)
(4.62147e-10 -0.00197905 0)
(-2.39586e-10 -0.00197905 0)
(-2.58105e-10 -0.00197906 0)
(1.94253e-10 -0.00197906 0)
(6.05362e-10 -0.00197906 0)
(3.88725e-10 -0.00197905 0)
(-1.70951e-10 -0.00197905 0)
(-1.41585e-10 -0.00197906 0)
(1.81829e-10 -0.00197906 0)
(4.74711e-10 -0.00197906 0)
(3.17882e-10 -0.00197905 0)
(-1.05222e-10 -0.00197905 0)
(-3.06548e-11 -0.00197906 0)
(1.69996e-10 -0.00197906 0)
(3.50055e-10 -0.00197906 0)
(2.49792e-10 -0.00197905 0)
(-4.25285e-11 -0.00197905 0)
(7.45134e-11 -0.00197906 0)
(1.58772e-10 -0.00197906 0)
(2.31608e-10 -0.00197906 0)
(1.8461e-10 -0.00197905 0)
(1.70121e-11 -0.00197905 0)
(1.73776e-10 -0.00197906 0)
(1.48173e-10 -0.00197906 0)
(1.19555e-10 -0.00197906 0)
(1.22479e-10 -0.00197905 0)
(7.32991e-11 -0.00197905 0)
(2.67019e-10 -0.00197906 0)
(1.38211e-10 -0.00197906 0)
(1.40521e-11 -0.00197906 0)
(6.35251e-11 -0.00197905 0)
(1.26246e-10 -0.00197905 0)
(3.54151e-10 -0.00197906 0)
(1.28896e-10 -0.00197906 0)
(-8.47746e-11 -0.00197906 0)
(7.86217e-12 -0.00197905 0)
(1.7578e-10 -0.00197905 0)
(4.3511e-10 -0.00197906 0)
(1.20238e-10 -0.00197906 0)
(-1.76826e-10 -0.00197906 0)
(-4.44099e-11 -0.00197905 0)
(2.21842e-10 -0.00197905 0)
(5.09858e-10 -0.00197906 0)
(1.1224e-10 -0.00197906 0)
(-2.62029e-10 -0.00197906 0)
(-9.3204e-11 -0.00197905 0)
(2.64384e-10 -0.00197905 0)
(5.7838e-10 -0.00197906 0)
(1.04907e-10 -0.00197906 0)
(-3.40338e-10 -0.00197906 0)
(-1.38445e-10 -0.00197905 0)
(3.03371e-10 -0.00197905 0)
(6.40686e-10 -0.00197906 0)
(9.82374e-11 -0.00197906 0)
(-4.11732e-10 -0.00197906 0)
(-1.8007e-10 -0.00197905 0)
(3.3878e-10 -0.00197905 0)
(6.96807e-10 -0.00197906 0)
(9.22307e-11 -0.00197906 0)
(-4.76214e-10 -0.00197906 0)
(-2.18025e-10 -0.00197905 0)
(3.70595e-10 -0.00197905 0)
(7.46795e-10 -0.00197906 0)
(8.68822e-11 -0.00197906 0)
(-5.33812e-10 -0.00197906 0)
(-2.52267e-10 -0.00197905 0)
(3.98812e-10 -0.00197905 0)
(7.90724e-10 -0.00197906 0)
(8.21853e-11 -0.00197906 0)
(-5.84572e-10 -0.00197906 0)
(-2.82763e-10 -0.00197905 0)
(4.23435e-10 -0.00197905 0)
(8.28683e-10 -0.00197906 0)
(7.8131e-11 -0.00197906 0)
(-6.28564e-10 -0.00197906 0)
(-3.09486e-10 -0.00197905 0)
(4.44473e-10 -0.00197905 0)
(8.60782e-10 -0.00197906 0)
(7.47083e-11 -0.00197906 0)
(-6.65876e-10 -0.00197906 0)
(-3.32415e-10 -0.00197905 0)
(4.61943e-10 -0.00197905 0)
(8.87143e-10 -0.00197906 0)
(7.19041e-11 -0.00197906 0)
(-6.96612e-10 -0.00197906 0)
(-3.51537e-10 -0.00197905 0)
(4.75866e-10 -0.00197905 0)
(9.07905e-10 -0.00197906 0)
(6.97027e-11 -0.00197906 0)
(-7.20894e-10 -0.00197906 0)
(-3.66841e-10 -0.00197905 0)
(4.86286e-10 -0.00197905 0)
(9.23253e-10 -0.00197906 0)
(6.80863e-11 -0.00197906 0)
(-7.38891e-10 -0.00197906 0)
(-3.78339e-10 -0.00197905 0)
(4.93283e-10 -0.00197905 0)
(9.33443e-10 -0.00197906 0)
(6.70348e-11 -0.00197906 0)
(-7.50838e-10 -0.00197906 0)
(-3.86073e-10 -0.00197905 0)
(4.9693e-10 -0.00197905 0)
(9.38723e-10 -0.00197906 0)
(6.65243e-11 -0.00197906 0)
(-7.56973e-10 -0.00197906 0)
(-3.90079e-10 -0.00197905 0)
)
;

boundaryField
{
    BotWall
    {
        type            fixedValue;
        value           uniform (0 0 0);
    }
    FreeStream
    {
        type            zeroGradient;
    }
    FrontNBack
    {
        type            empty;
    }
    LeftSide
    {
        type            symmetryPlane;
    }
    RightSide
    {
        type            symmetryPlane;
    }
}


// ************************************************************************* //
