/*--------------------------------*- C++ -*----------------------------------*\
| =========                 |                                                 |
| \\      /  F ield         | OpenFOAM: The Open Source CFD Toolbox           |
|  \\    /   O peration     | Version:  2.4.0                                 |
|   \\  /    A nd           | Web:      www.OpenFOAM.org                      |
|    \\/     M anipulation  |                                                 |
\*---------------------------------------------------------------------------*/
FoamFile
{
    version     2.0;
    format      ascii;
    class       volScalarField;
    location    "4.8";
    object      alpha1;
}
// * * * * * * * * * * * * * * * * * * * * * * * * * * * * * * * * * * * * * //

dimensions      [0 0 0 0 0 0 0];

internalField   nonuniform List<scalar> 
8000
(
1
1
1
1
0.999999
0.999998
0.999995
0.999992
0.99999
0.999982
0.999913
0.425841
4.2982e-09
1.74407e-09
3.60264e-11
9.78311e-12
3.56338e-12
1.26046e-12
4.64988e-13
1.82854e-13
7.60575e-14
3.30539e-14
1.48236e-14
6.76454e-15
3.08502e-15
1.37372e-15
5.8013e-16
2.2404e-16
7.54077e-17
2.06977e-17
4.27308e-18
6.61308e-19
7.68843e-20
6.68722e-21
4.31985e-22
2.05681e-23
7.17899e-25
2.19681e-26
3.85167e-27
2.84092e-27
2.24876e-27
1.77189e-27
1.38874e-27
1.08296e-27
8.40461e-28
6.49296e-28
4.99432e-28
3.82556e-28
2.91849e-28
2.21773e-28
1
1
1
1
0.999999
0.999997
0.999994
0.99999
0.999988
0.999987
0.998765
0.0811488
5.7384e-08
2.96597e-09
5.7796e-11
1.67642e-11
6.79335e-12
2.6414e-12
1.06297e-12
4.53842e-13
2.04101e-13
9.57358e-14
4.64209e-14
2.30243e-14
1.1506e-14
5.66911e-15
2.6758e-15
1.16558e-15
4.4523e-16
1.38288e-16
3.14629e-17
5.25884e-18
6.51272e-19
5.97293e-20
4.036e-21
1.99723e-22
7.17313e-24
1.92993e-25
1.2533e-26
7.81195e-27
6.37447e-27
5.18884e-27
4.19781e-27
3.37622e-27
2.70041e-27
2.14858e-27
1.70104e-27
1.34039e-27
1.05146e-27
8.21245e-28
1
1
1
1
0.999999
0.999996
0.999992
0.999989
0.999988
0.999943
0.689493
0.000209761
3.45213e-07
2.80228e-09
5.89001e-11
1.977e-11
8.8858e-12
3.86104e-12
1.74078e-12
8.30305e-13
4.1419e-13
2.14419e-13
1.14715e-13
6.30234e-14
3.51417e-14
1.95079e-14
1.04897e-14
5.26543e-15
2.33992e-15
8.45314e-16
2.1538e-16
3.92294e-17
5.20317e-18
5.04884e-19
3.57614e-20
1.84182e-21
6.8393e-23
1.81328e-24
5.24405e-26
1.83561e-26
1.53397e-26
1.29583e-26
1.08716e-26
9.06028e-27
7.50308e-27
6.17636e-27
5.05545e-27
4.11582e-27
3.33382e-27
2.68733e-27
1
1
1
1
0.999998
0.999994
0.99999
0.999987
0.999988
0.970476
0.0235081
8.84094e-07
5.17633e-07
2.40736e-09
5.38081e-11
2.10055e-11
1.03291e-11
5.07389e-12
2.62999e-12
1.44278e-12
8.16474e-13
4.7282e-13
2.81732e-13
1.72862e-13
1.08518e-13
6.8628e-14
4.2656e-14
2.51639e-14
1.33684e-14
5.82108e-15
1.68464e-15
3.35185e-16
4.75028e-17
4.85497e-18
3.58425e-19
1.90926e-20
7.28995e-22
1.95911e-23
3.93073e-25
4.15677e-26
3.34918e-26
2.94309e-26
2.56814e-26
2.22457e-26
1.9135e-26
1.63494e-26
1.38809e-26
1.17144e-26
9.82998e-27
8.20437e-27
1
1
1
0.999999
0.999996
0.999991
0.999988
0.999987
0.98933
0.0663747
3.78771e-06
1.00985e-06
2.46608e-07
8.33281e-10
3.36299e-11
1.75534e-11
9.84853e-12
5.90386e-12
3.82348e-12
2.62942e-12
1.80094e-12
1.19285e-12
7.9675e-13
5.47602e-13
3.89095e-13
2.83302e-13
2.07186e-13
1.47711e-13
9.80783e-14
5.53064e-14
1.85942e-14
4.04421e-15
6.08604e-16
6.49344e-17
4.94631e-18
2.6963e-19
1.04757e-20
2.84841e-22
5.25149e-24
1.33548e-25
7.17826e-26
6.57765e-26
6.00307e-26
5.43407e-26
4.88062e-26
4.35061e-26
3.84992e-26
3.38356e-26
2.95452e-26
2.5642e-26
1
1
1
0.999999
0.999995
0.99999
0.999988
0.99996
0.51121
0.00305751
0.0052673
0.000132728
5.71142e-07
4.11622e-09
2.04955e-10
7.73968e-11
6.33864e-11
4.66406e-11
3.02101e-11
1.70733e-11
9.2162e-12
5.19974e-12
3.18061e-12
2.13999e-12
1.58498e-12
1.27458e-12
1.08615e-12
9.55557e-13
8.48886e-13
7.50125e-13
3.04075e-13
7.17553e-14
1.12817e-14
1.23449e-15
9.53588e-17
5.23344e-18
2.03805e-19
5.53894e-21
1.00529e-22
1.22975e-24
1.37952e-25
1.2842e-25
1.24126e-25
1.1891e-25
1.13007e-25
1.06623e-25
9.96713e-26
9.24322e-26
8.50768e-26
7.77544e-26
1
1
1
0.999999
0.999996
0.999991
0.999991
0.999994
0.999843
0.999006
0.256627
0.0385384
0.00307093
0.00441552
0.00103723
7.94684e-05
1.46396e-06
1.36547e-06
1.83277e-06
8.5612e-07
3.81429e-07
1.38127e-07
4.02436e-08
9.4308e-09
2.04806e-09
4.79572e-10
2.76923e-10
2.94536e-10
2.47771e-10
9.75568e-11
2.29523e-11
4.16618e-12
5.54676e-13
5.43167e-14
3.8933e-15
2.0323e-16
7.65816e-18
2.03838e-19
3.64996e-21
3.9673e-23
4.20358e-25
2.05026e-25
2.23277e-25
2.36873e-25
2.46807e-25
2.71284e-25
2.85156e-25
2.95297e-25
3.01676e-25
3.04471e-25
1
1
1
0.999999
0.999996
0.999991
0.999995
0.999994
0.999997
1
1
1
0.998452
0.991936
0.581047
0.235758
0.0880918
0.0282009
0.0124602
0.00736777
0.00418786
0.00205262
0.00082174
0.000321782
0.000187126
0.000133998
9.78419e-05
6.84862e-05
4.57071e-05
2.92332e-05
1.85514e-05
1.23095e-05
8.29367e-06
5.50265e-06
3.31671e-06
1.28527e-06
8.43068e-07
5.71879e-07
3.81012e-07
2.3985e-07
1.38423e-07
7.18656e-08
3.05087e-08
1.05763e-08
3.05121e-09
3.9072e-10
2.31782e-25
3.63864e-25
5.21563e-25
6.78448e-25
1
1
1
0.999999
0.999996
0.999994
0.999994
0.999995
0.999996
0.999998
0.999998
0.999999
1
1
1
1
1
0.999375
0.999905
0.8417
0.621372
0.371864
0.153572
0.0470644
0.0212801
0.0150062
0.010358
0.00607008
0.00305331
0.00161739
0.00104421
0.000775345
0.000598095
0.000452138
0.000310555
0.000183382
9.83689e-05
5.1386e-05
2.76647e-05
1.59822e-05
1.00862e-05
7.59173e-06
7.72148e-06
7.06164e-06
3.87674e-06
1.12557e-06
2.07023e-07
1.73663e-07
1.32874e-07
9.7218e-08
1
1
1
0.999998
0.999996
0.999995
0.999995
0.999996
0.999997
0.999998
0.999998
0.999999
0.999998
0.999998
0.999997
0.999996
0.999996
0.999998
1
1
1
1
1
0.99957
1.00005
0.884539
0.684942
0.449413
0.202956
0.0682573
0.0397287
0.0266118
0.0167748
0.0096163
0.00539904
0.00308387
0.00178855
0.00108574
0.000728437
0.000571671
0.000517595
0.00042396
0.000265424
0.000128556
5.00177e-05
1.80569e-05
1.88613e-05
7.99505e-05
8.34327e-05
3.45896e-05
1
1
1
0.999999
0.999997
0.999996
0.999996
0.999997
0.999997
0.999998
0.999998
0.999997
0.999997
0.999995
0.99999
0.999986
0.999989
0.999991
0.999992
0.999989
0.999976
0.999957
0.999991
0.999998
1
1
1
0.99999
0.999913
0.973668
0.955826
0.780372
0.496547
0.213054
0.0769653
0.0555254
0.0415446
0.0295822
0.0194888
0.0123836
0.0080707
0.00554925
0.00405316
0.00362985
0.00315271
0.0021858
0.00125973
0.000678112
0.000341784
0.000160867
1
1
1
0.999999
0.999998
0.999997
0.999997
0.999998
0.999998
0.999997
0.999997
0.999996
0.999993
0.999988
0.999979
0.999974
0.999987
0.999991
0.999975
0.999844
0.999648
0.999889
0.999988
0.999993
0.999996
0.999996
0.999996
0.999996
1
1
1
1
0.999993
0.989764
0.962214
0.873031
0.444136
0.200739
0.150029
0.115951
0.089248
0.0693122
0.0532663
0.0390857
0.0269668
0.0181976
0.0123466
0.00842827
0.00551218
0.00338804
1
1
1
0.999999
0.999999
0.999998
0.999998
0.999998
0.999998
0.999996
0.999996
0.999994
0.99999
0.999981
0.999958
0.999974
0.999995
0.999986
0.999867
0.999508
0.999193
0.999909
0.999992
0.999995
0.999995
0.999991
0.999987
0.999987
0.999996
0.999998
0.999999
1
1
1
1
1
1
0.981022
0.814293
0.607676
0.497065
0.417641
0.342092
0.280023
0.228221
0.17711
0.11865
0.0813362
0.0560603
0.0377813
1
1
1
1
0.999999
0.999999
0.999998
0.999998
0.999997
0.999996
0.999995
0.999992
0.999987
0.999975
0.999958
0.99997
0.999995
0.999978
0.999775
0.999339
0.999189
0.999752
0.999991
0.999996
0.999999
0.999989
0.999972
0.999968
0.999995
0.999997
0.999998
0.999999
0.999999
0.999999
1
1
1
1
1
0.999982
0.960893
0.903794
0.849985
0.78383
0.701358
0.606695
0.499102
0.379728
0.267728
0.179916
1
1
1
1
0.999999
0.999999
0.999998
0.999998
0.999997
0.999996
0.999995
0.999993
0.999988
0.999978
0.999958
0.999972
0.999995
0.999982
0.999811
0.999364
0.999189
0.999603
0.999969
0.999995
0.999997
0.999976
0.999962
0.999966
0.999993
0.999995
0.999997
0.999998
0.999998
0.999999
0.999999
0.999999
0.999999
0.999999
1
1
1
1
0.999994
0.990312
0.973249
0.950318
0.908367
0.835207
0.717975
0.554872
1
1
1
0.999999
0.999999
0.999999
0.999998
0.999998
0.999998
0.999997
0.999996
0.999994
0.999991
0.999986
0.999976
0.999966
0.999988
0.999992
0.999978
0.999774
0.999388
0.999401
0.999795
0.999975
0.999995
0.999985
0.999964
0.999964
0.999976
0.999992
0.999995
0.999996
0.999997
0.999998
0.999998
0.999998
0.999998
0.999998
0.999998
0.999998
0.999998
0.999998
0.999999
1
1
0.999997
0.985909
0.961391
0.923953
0.854486
1
1
1
0.999999
0.999999
0.999999
0.999998
0.999998
0.999998
0.999997
0.999996
0.999995
0.999994
0.999991
0.999987
0.999983
0.999983
0.999989
0.999995
0.999986
0.999883
0.99964
0.999633
0.999829
0.999962
0.999981
0.999988
0.999979
0.999968
0.999979
0.99999
0.999993
0.999995
0.999996
0.999997
0.999997
0.999996
0.999994
0.999993
0.999995
0.999996
0.999994
0.999996
0.999996
0.999986
0.999997
0.969631
0.926622
0.859752
0.757195
1
1
0.999999
0.999999
0.999998
0.999998
0.999998
0.999998
0.999998
0.999997
0.999997
0.999996
0.999996
0.999995
0.999994
0.999992
0.99999
0.99999
0.999992
0.999994
0.999993
0.999989
0.999944
0.999829
0.999857
0.999937
0.999975
0.99999
0.999991
0.999987
0.999984
0.999987
0.999991
0.999993
0.999994
0.999996
0.999994
0.999986
0.999951
0.999976
0.999994
0.999994
0.999993
0.999995
0.999995
0.977777
0.902014
0.762339
0.576638
0.390488
1
1
0.999999
0.999998
0.999998
0.999998
0.999998
0.999998
0.999997
0.999997
0.999997
0.999997
0.999997
0.999996
0.999996
0.999995
0.999995
0.999995
0.999995
0.999995
0.999996
0.999996
0.999996
0.999994
0.999993
0.999976
0.999964
0.999964
0.999983
0.999996
0.999996
0.999995
0.999995
0.999994
0.999997
0.999995
0.999994
0.999963
0.999709
0.999759
0.999945
0.999996
0.999996
0.999991
0.956775
0.824444
0.560742
0.278334
0.132836
0.0699791
1
1
0.999999
0.999998
0.999998
0.999998
0.999998
0.999997
0.999997
0.999997
0.999997
0.999997
0.999997
0.999997
0.999997
0.999997
0.999997
0.999996
0.999996
0.999997
0.999997
0.999997
0.999997
0.999997
0.999997
0.999997
0.999997
0.999996
0.999995
0.999995
0.999995
0.999996
0.999997
0.999997
0.999997
0.999997
0.999996
0.999974
0.999747
0.999611
0.999611
0.999996
0.971189
0.85923
0.42549
0.0949298
0.0380998
0.0254279
0.0164974
0.00935256
1.67869e-28
1.26576e-28
9.507e-29
7.11259e-29
5.29998e-29
3.93321e-29
2.90674e-29
2.13901e-29
1.56722e-29
1.14322e-29
8.30201e-30
6.00176e-30
4.31924e-30
3.09437e-30
2.20692e-30
1.56703e-30
1.10785e-30
7.79929e-31
5.46847e-31
3.81945e-31
2.65804e-31
1.8436e-31
1.2748e-31
8.79052e-32
6.0466e-32
4.14995e-32
2.8425e-32
1.94335e-32
1.32626e-32
9.03526e-33
6.14427e-33
4.17033e-33
2.82468e-33
1.90884e-33
1.28662e-33
8.64706e-34
5.79247e-34
3.86606e-34
2.56989e-34
1.70076e-34
1.12024e-34
7.34147e-35
4.78569e-35
3.10227e-35
1.99927e-35
1.28053e-35
8.14906e-36
5.15082e-36
3.2325e-36
2.01332e-36
6.38737e-28
4.94736e-28
3.81626e-28
2.93162e-28
2.24264e-28
1.70827e-28
1.29554e-28
9.78134e-29
7.35098e-29
5.49851e-29
4.09311e-29
3.03203e-29
2.23489e-29
1.63909e-29
1.19608e-29
8.68423e-30
6.27378e-30
4.51009e-30
3.22659e-30
2.29761e-30
1.62883e-30
1.14989e-30
8.08647e-31
5.66689e-31
3.95902e-31
2.75844e-31
1.91754e-31
1.33041e-31
9.21558e-32
6.37476e-32
4.40442e-32
3.0398e-32
2.09579e-32
1.44335e-32
9.92769e-33
6.81801e-33
4.67344e-33
3.19584e-33
2.17911e-33
1.4808e-33
1.00235e-33
6.75578e-34
4.53225e-34
3.02564e-34
2.00948e-34
1.32741e-34
8.71892e-35
5.69281e-35
3.69355e-35
2.38028e-35
2.15613e-27
1.72213e-27
1.36938e-27
1.0841e-27
8.54442e-28
6.70406e-28
5.23588e-28
4.06988e-28
3.14813e-28
2.42291e-28
1.85513e-28
1.41288e-28
1.07023e-28
8.06199e-29
6.03902e-29
4.498e-29
3.33104e-29
2.45268e-29
1.7956e-29
1.30711e-29
9.46227e-30
6.81301e-30
4.88035e-30
3.47915e-30
2.46935e-30
1.74574e-30
1.22995e-30
8.64054e-31
6.05591e-31
4.23683e-31
2.96047e-31
2.06709e-31
1.44293e-31
1.00736e-31
7.03541e-32
4.91575e-32
3.43572e-32
2.40105e-32
1.67676e-32
1.16921e-32
8.13394e-33
5.64097e-33
3.89743e-33
2.68156e-33
1.8368e-33
1.25235e-33
8.49749e-34
5.73685e-34
3.85281e-34
2.57333e-34
6.81254e-27
5.62902e-27
4.62893e-27
3.78867e-27
3.08646e-27
2.50256e-27
2.01938e-27
1.62146e-27
1.29532e-27
1.02933e-27
8.13514e-28
6.39331e-28
4.99533e-28
3.87983e-28
2.99506e-28
2.29767e-28
1.75147e-28
1.3265e-28
9.98061e-29
7.45973e-29
5.53842e-29
4.08458e-29
2.99249e-29
2.17821e-29
1.57556e-29
1.13285e-29
8.09976e-30
5.76153e-30
4.0795e-30
2.87712e-30
2.02265e-30
1.41866e-30
9.93772e-31
6.9606e-31
4.88076e-31
3.43014e-31
2.41835e-31
1.71132e-31
1.21541e-31
8.65743e-32
6.17699e-32
4.40746e-32
3.14e-32
2.23057e-32
1.57862e-32
1.11289e-32
7.81412e-33
5.46366e-33
3.80352e-33
2.63568e-33
2.21266e-26
1.89891e-26
1.62115e-26
1.37703e-26
1.16387e-26
9.78844e-27
8.19121e-27
6.81964e-27
5.64791e-27
4.6521e-27
3.81029e-27
3.10262e-27
2.51117e-27
2.01986e-27
1.61431e-27
1.28174e-27
1.01087e-27
7.91779e-28
6.1582e-28
4.75526e-28
3.64496e-28
2.77292e-28
2.09334e-28
1.56797e-28
1.16516e-28
8.58915e-29
6.28075e-29
4.55582e-29
3.27818e-29
2.34018e-29
1.65768e-29
1.1656e-29
8.14093e-30
5.65382e-30
3.91074e-30
2.70038e-30
1.86699e-30
1.297e-30
9.08586e-31
6.43636e-31
4.61626e-31
3.34955e-31
2.45239e-31
1.80235e-31
1.32088e-31
9.65229e-32
7.03255e-32
5.10834e-32
3.69913e-32
2.67014e-32
7.05901e-26
6.36836e-26
5.71097e-26
5.09209e-26
4.51501e-26
3.98138e-26
3.49163e-26
3.04524e-26
2.64099e-26
2.27724e-26
1.95198e-26
1.66302e-26
1.40802e-26
1.18454e-26
9.90061e-27
8.22053e-27
6.7798e-27
5.55353e-27
4.51761e-27
3.64906e-27
2.9263e-27
2.32941e-27
1.84022e-27
1.44239e-27
1.12141e-27
8.64522e-28
6.60623e-28
5.00159e-28
3.74982e-28
2.78214e-28
2.04113e-28
1.47933e-28
1.05796e-28
7.456e-29
5.17076e-29
3.52365e-29
2.35683e-29
1.54678e-29
9.97551e-30
6.35297e-30
4.0412e-30
2.63065e-30
1.83971e-30
1.41208e-30
1.08217e-30
8.28072e-31
6.32691e-31
4.827e-31
3.67736e-31
2.79755e-31
3.03936e-25
3.00379e-25
2.94142e-25
2.8558e-25
2.75051e-25
2.62904e-25
2.49474e-25
2.35075e-25
2.20002e-25
2.04528e-25
1.88903e-25
1.73357e-25
1.58093e-25
1.4329e-25
1.291e-25
1.15646e-25
1.0302e-25
9.12838e-26
8.04738e-26
7.05998e-26
6.16506e-26
5.35981e-26
4.64005e-26
4.00069e-26
3.43602e-26
2.94002e-26
2.50654e-26
2.12951e-26
1.80309e-26
1.52171e-26
1.28016e-26
1.07364e-26
8.97752e-27
7.48506e-27
6.22318e-27
5.15991e-27
4.26694e-27
3.51939e-27
2.89548e-27
2.37635e-27
1.94564e-27
1.58931e-27
1.2953e-27
1.0534e-27
8.54981e-28
6.92601e-28
5.60005e-28
4.51958e-28
3.64099e-28
2.92798e-28
8.10378e-25
9.03657e-25
9.54626e-25
9.6042e-25
9.15494e-25
8.27064e-25
9.64894e-25
1.03815e-24
1.11066e-24
1.16936e-24
1.21511e-24
1.2481e-24
1.2689e-24
1.27827e-24
1.27712e-24
1.26644e-24
1.24729e-24
1.22071e-24
1.18772e-24
1.14932e-24
1.10646e-24
1.06003e-24
1.01087e-24
9.59737e-25
9.07337e-25
8.54299e-25
8.0119e-25
7.48513e-25
6.96706e-25
6.46149e-25
5.97162e-25
5.5001e-25
5.04903e-25
4.62e-25
4.21414e-25
3.83215e-25
3.47436e-25
3.14073e-25
2.83099e-25
2.5446e-25
2.28087e-25
2.03893e-25
1.8178e-25
1.61641e-25
1.43362e-25
1.26828e-25
1.1192e-25
9.85211e-26
8.65151e-26
7.57899e-26
6.44531e-08
4.85602e-08
3.8246e-08
2.83081e-08
2.09812e-08
1.45625e-08
7.3266e-09
1.34413e-09
1.5695e-24
1.52732e-24
1.26207e-24
8.84421e-25
1.37129e-24
1.82671e-24
2.08132e-24
2.42467e-24
2.7549e-24
3.09447e-24
3.44392e-24
3.79888e-24
4.15483e-24
4.5074e-24
4.85248e-24
5.18631e-24
5.5055e-24
5.80704e-24
6.08828e-24
6.34692e-24
6.58103e-24
6.78895e-24
6.96938e-24
7.1213e-24
7.24403e-24
7.33719e-24
7.40071e-24
7.43479e-24
7.43995e-24
7.4169e-24
7.36663e-24
7.29028e-24
7.18921e-24
7.06495e-24
6.91916e-24
6.75367e-24
6.5704e-24
6.37136e-24
6.15858e-24
5.93414e-24
5.70015e-24
5.45868e-24
6.31628e-06
4.52357e-07
1.06791e-07
7.4324e-08
4.6681e-08
3.14782e-08
2.11344e-08
1.30203e-08
1.23079e-08
1.19041e-08
1.13938e-08
1.03327e-08
8.55476e-09
6.22291e-09
3.80613e-09
1.90574e-09
7.78653e-10
1.49423e-10
8.43813e-24
8.00175e-24
7.314e-24
6.43005e-24
5.64871e-24
7.16875e-24
8.30296e-24
9.68571e-24
1.1234e-23
1.29665e-23
1.48904e-23
1.70101e-23
1.93279e-23
2.18434e-23
2.45539e-23
2.74547e-23
3.0539e-23
3.37978e-23
3.72206e-23
4.07946e-23
4.45057e-23
4.83375e-23
5.22722e-23
5.62898e-23
6.03688e-23
6.44864e-23
6.86184e-23
7.27394e-23
7.68236e-23
8.08445e-23
8.47755e-23
8.85903e-23
7.49576e-05
3.7265e-05
2.00207e-05
1.10491e-05
6.04862e-06
3.25006e-06
1.7218e-06
9.00021e-07
2.93394e-07
1.90132e-07
1.19496e-07
7.31116e-08
6.49311e-08
5.70356e-08
4.56454e-08
3.37965e-08
3.70539e-08
1.70164e-07
2.51613e-06
2.48137e-06
5.89323e-07
1.97808e-07
5.42411e-08
1.27e-08
2.41764e-09
3.23245e-10
1.52049e-11
1.17619e-23
1.43884e-23
1.75242e-23
2.1238e-23
2.56104e-23
3.07286e-23
3.66901e-23
4.36016e-23
5.15802e-23
6.07523e-23
7.12536e-23
8.32285e-23
9.68289e-23
1.12213e-22
1.29545e-22
1.48993e-22
1.70728e-22
1.94921e-22
2.21744e-22
2.51369e-22
2.83962e-22
3.19686e-22
3.58699e-22
0.00199485
0.0011677
0.000703068
0.000437168
0.000269234
0.000157375
8.67859e-05
4.51912e-05
2.17331e-05
9.35359e-06
3.46865e-06
1.1111e-06
2.33352e-07
1.97132e-07
1.58898e-07
1.90348e-07
1.27709e-06
1.50291e-05
3.77892e-05
1.77017e-05
3.89475e-06
2.8819e-07
1.16589e-07
5.76815e-08
2.99315e-08
1.39755e-08
5.72919e-09
2.10811e-09
7.07896e-10
2.15329e-10
5.64236e-11
1.12463e-11
1.30617e-12
3.32293e-14
3.93492e-23
4.86964e-23
5.99699e-23
7.35046e-23
8.96803e-23
1.08925e-22
1.31719e-22
1.58596e-22
1.90152e-22
2.27045e-22
2.70003e-22
3.19831e-22
3.77414e-22
4.43728e-22
5.19844e-22
6.0694e-22
0.0243296
0.0143376
0.00779124
0.0040574
0.00212216
0.00115344
0.000660347
0.000384001
0.000222797
0.000132672
8.57292e-05
5.99578e-05
3.81242e-05
9.9833e-06
1.53579e-05
4.56448e-05
5.84951e-05
5.86381e-05
3.94119e-05
1.44646e-05
3.28548e-06
2.96563e-07
1.38482e-07
8.72163e-08
5.61192e-08
3.31745e-08
1.76138e-08
8.56752e-09
3.90252e-09
1.68794e-09
6.96234e-10
2.7256e-10
1.00148e-10
3.39175e-11
1.02083e-11
2.5498e-12
4.76963e-13
5.80937e-14
3.7196e-15
7.38258e-17
1.17221e-22
1.45102e-22
1.78752e-22
2.19174e-22
2.67508e-22
3.2505e-22
3.93254e-22
4.73749e-22
5.68327e-22
6.78938e-22
0.115598
0.0712553
0.042528
0.0243589
0.0138617
0.0083944
0.00385213
0.00158064
0.000655502
0.000294708
0.000154369
9.98356e-05
7.63301e-05
6.05892e-05
5.57403e-05
5.16173e-05
4.39633e-05
3.25012e-05
1.75854e-05
6.24692e-06
1.56227e-06
1.73774e-07
1.2182e-07
9.13337e-08
6.30467e-08
3.92558e-08
2.25091e-08
1.21755e-08
6.33306e-09
3.21015e-09
1.59693e-09
7.80544e-10
3.73991e-10
1.74923e-10
7.92472e-11
3.43273e-11
1.39675e-11
5.213e-12
1.72589e-12
4.85571e-13
1.10572e-13
1.93218e-14
2.43672e-15
2.0538e-16
1.03871e-17
2.62368e-19
2.39876e-21
4.12443e-22
5.01669e-22
6.07193e-22
0.361465
0.188628
0.0882555
0.0415532
0.0196385
0.00907987
0.00410594
0.00184106
0.000879879
0.00036927
0.000148707
6.42629e-05
3.415e-05
2.55099e-05
2.24569e-05
1.86706e-05
1.31016e-05
7.50304e-06
3.44083e-06
1.19472e-06
2.95129e-07
1.72642e-07
1.18751e-07
8.34406e-08
5.61907e-08
3.59687e-08
2.21357e-08
1.32946e-08
7.89668e-09
4.68153e-09
2.7818e-09
1.65758e-09
9.89486e-10
5.90581e-10
3.5094e-10
2.06082e-10
1.18402e-10
6.58101e-11
3.49909e-11
1.76173e-11
8.32507e-12
3.66217e-12
1.48755e-12
5.53467e-13
1.87171e-13
5.71154e-14
1.56176e-14
3.80021e-15
8.16915e-16
1.53911e-16
0.705323
0.443248
0.201651
0.0835918
0.0353698
0.0140861
0.00462734
0.00121939
0.000311892
0.000196775
0.000114944
5.38426e-05
2.15875e-05
6.9928e-06
1.7901e-06
1.44974e-06
1.0491e-06
6.36995e-07
4.03689e-07
2.75136e-07
2.10426e-07
1.46594e-07
1.03662e-07
7.37377e-08
5.1835e-08
3.58914e-08
2.46176e-08
1.68594e-08
1.1602e-08
8.04699e-09
5.62606e-09
3.96017e-09
2.80266e-09
1.99124e-09
1.41695e-09
1.00608e-09
7.09193e-10
4.93422e-10
3.36837e-10
2.24386e-10
1.45176e-10
9.08686e-11
5.48487e-11
3.18442e-11
1.77459e-11
9.47594e-12
4.84166e-12
2.36434e-12
1.10244e-12
4.9046e-13
0.593011
0.355017
0.152828
0.0568808
0.0196109
0.00590717
0.00137492
0.000263632
7.0218e-05
7.03304e-05
6.28486e-05
4.10493e-05
2.13089e-05
8.40613e-06
1.41313e-06
8.90391e-07
6.08638e-07
4.43444e-07
3.22123e-07
2.44954e-07
1.86406e-07
1.39485e-07
1.05098e-07
7.97819e-08
6.07306e-08
4.62866e-08
3.53699e-08
2.71534e-08
2.09674e-08
1.62843e-08
1.27088e-08
9.95595e-09
7.8225e-09
6.16106e-09
4.86145e-09
3.83946e-09
3.03032e-09
2.38473e-09
1.86589e-09
1.4469e-09
1.10834e-09
8.36075e-10
6.19373e-10
4.49557e-10
3.19105e-10
2.21198e-10
1.49582e-10
9.86116e-11
6.33488e-11
3.96472e-11
0.238643
0.130171
0.0608969
0.0234443
0.00718202
0.00171096
0.00026428
2.58766e-05
3.75738e-06
1.12462e-05
3.60449e-05
2.23845e-05
1.2103e-05
6.47987e-06
2.45301e-06
6.33945e-07
6.21965e-07
5.31895e-07
4.47362e-07
3.60847e-07
2.7868e-07
2.11454e-07
1.61387e-07
1.25158e-07
9.8696e-08
7.89096e-08
6.37626e-08
5.19454e-08
4.25903e-08
3.50981e-08
2.90413e-08
2.41087e-08
2.00672e-08
1.67354e-08
1.39687e-08
1.16551e-08
9.71286e-09
8.08369e-09
6.7224e-09
5.58869e-09
4.64405e-09
3.853e-09
3.18545e-09
2.61792e-09
2.13332e-09
1.71966e-09
1.36845e-09
1.07324e-09
8.28552e-10
6.29134e-10
0.0381369
0.0199055
0.00927396
0.00356464
0.00102309
0.000192126
2.06875e-05
1.59956e-06
1.74242e-06
1.88179e-06
1.9148e-06
8.0647e-06
1.54963e-05
1.54969e-05
1.13519e-05
3.70084e-06
6.26408e-07
5.86922e-07
5.4747e-07
4.82833e-07
4.11466e-07
3.47658e-07
2.81987e-07
2.30394e-07
1.91016e-07
1.59645e-07
1.33948e-07
1.12694e-07
9.50728e-08
8.04546e-08
6.83156e-08
5.82164e-08
4.97937e-08
4.27673e-08
3.69433e-08
3.21901e-08
2.83852e-08
2.53663e-08
2.29133e-08
2.07698e-08
1.86863e-08
1.64661e-08
1.40097e-08
9.91472e-09
8.62809e-09
7.30624e-09
6.11247e-09
5.14265e-09
4.36517e-09
3.71521e-09
0.00481484
0.00220641
0.000832413
0.000233272
4.3311e-05
3.97054e-06
1.68572e-06
1.58584e-06
1.40488e-06
1.33922e-06
1.33621e-06
1.32417e-06
1.32659e-06
1.22281e-06
1.16802e-06
4.90719e-06
1.19627e-05
1.19691e-05
1.11961e-05
4.69887e-06
9.35923e-07
3.50661e-07
3.77212e-07
3.43215e-07
2.79214e-07
2.37404e-07
2.03465e-07
1.61638e-07
1.35083e-07
1.149e-07
1.04719e-07
9.76693e-08
8.93072e-08
8.09889e-08
6.73795e-08
5.87436e-08
5.43872e-08
5.20491e-08
5.06331e-08
4.962e-08
4.88872e-08
4.88717e-08
2.95244e-08
1.05161e-07
6.28229e-08
5.92201e-08
4.887e-08
3.48873e-08
2.21012e-08
1.61974e-08
1.24388e-36
9.84184e-37
7.76641e-37
6.11212e-37
4.79696e-37
3.75417e-37
2.92961e-37
2.27941e-37
1.76818e-37
1.36737e-37
1.05409e-37
8.0996e-38
6.20319e-38
4.73476e-38
3.60146e-38
2.72974e-38
2.06153e-38
1.55113e-38
1.16267e-38
8.68108e-39
6.45589e-39
4.78143e-39
3.5264e-39
2.58956e-39
1.89316e-39
1.37771e-39
9.97883e-40
7.19264e-40
5.1585e-40
3.68063e-40
2.61231e-40
1.84408e-40
1.29462e-40
9.03826e-41
6.27476e-41
4.33207e-41
2.97461e-41
2.03183e-41
1.38103e-41
9.34463e-42
6.29808e-42
4.23104e-42
2.83563e-42
1.89778e-42
1.26977e-42
8.50378e-43
5.70753e-43
3.84374e-43
2.60002e-43
1.76784e-43
1.20867e-43
8.30845e-44
5.73892e-44
3.97926e-44
2.76613e-44
1.92488e-44
1.33892e-44
9.29643e-45
6.43538e-45
4.43727e-45
3.04535e-45
2.07936e-45
1.41205e-45
9.53443e-46
6.40007e-46
4.27001e-46
2.83093e-46
1.86459e-46
1.21979e-46
7.9234e-47
5.10912e-47
3.26932e-47
2.07545e-47
1.3067e-47
8.15668e-48
5.04663e-48
3.09413e-48
1.87957e-48
1.13123e-48
6.74644e-49
3.98845e-49
2.33906e-49
1.3623e-49
7.89211e-50
4.55773e-50
2.63103e-50
1.52299e-50
8.86913e-51
5.21096e-51
3.09476e-51
1.85866e-51
1.12749e-51
6.88966e-52
4.22543e-52
2.59088e-52
1.5829e-52
9.6117e-53
5.79211e-53
3.46232e-53
2.05413e-53
1.21049e-53
7.09303e-54
4.13831e-54
2.40794e-54
1.40003e-54
8.15197e-55
4.76552e-55
2.80435e-55
1.66557e-55
1.00066e-55
6.09107e-56
3.75914e-56
2.35165e-56
1.48985e-56
9.54668e-57
6.17965e-57
4.0367e-57
2.65875e-57
1.76445e-57
1.17918e-57
7.93402e-58
5.376e-58
3.66916e-58
2.52316e-58
1.74894e-58
1.22253e-58
8.62073e-59
6.13198e-59
4.39705e-59
3.17453e-59
2.3034e-59
1.67612e-59
1.22052e-59
8.87716e-60
6.44071e-60
4.65909e-60
3.36138e-60
2.42143e-60
1.74456e-60
1.25874e-60
9.10096e-61
6.59394e-61
4.78733e-61
3.48373e-61
2.54133e-61
1.85684e-61
1.35617e-61
9.88136e-62
7.18123e-62
5.21675e-62
3.7989e-62
2.77572e-62
2.03071e-62
1.48215e-62
1.07628e-62
7.7732e-63
5.5948e-63
4.02182e-63
2.88999e-63
2.07551e-63
1.48868e-63
1.0657e-63
7.6117e-64
5.42329e-64
3.85381e-64
2.73056e-64
1.92854e-64
1.35745e-64
9.52099e-65
6.65343e-65
4.63263e-65
3.21341e-65
2.22023e-65
1.52912e-65
1.04922e-65
7.17167e-66
4.88271e-66
3.31094e-66
2.23562e-66
1.50425e-66
1.01096e-66
6.74787e-67
4.46967e-67
2.9593e-67
1.95199e-67
1.2696e-67
8.21769e-68
5.31684e-68
3.43525e-68
2.19304e-68
1.40105e-68
8.92048e-69
5.64496e-69
3.53212e-69
2.21049e-69
1.38059e-69
8.55572e-70
5.29578e-70
3.23875e-70
1.97237e-70
1.19093e-70
7.12852e-71
4.24108e-71
2.50316e-71
1.47832e-71
8.60656e-72
5.01651e-72
2.90148e-72
1.65309e-72
9.39624e-73
5.30098e-73
2.97397e-73
1.65655e-73
9.15736e-74
5.02288e-74
2.73836e-74
1.47721e-74
7.93897e-75
4.22569e-75
2.22249e-75
1.16428e-75
6.02402e-76
3.08587e-76
1.5627e-76
7.87399e-77
3.95347e-77
1.97064e-77
9.63393e-78
4.63816e-78
2.21163e-78
1.05021e-78
4.97734e-79
2.32415e-79
1.07387e-79
4.90609e-80
2.20797e-80
9.93006e-81
4.40066e-81
1.93408e-81
8.33004e-82
3.54558e-82
1.48368e-82
6.13616e-83
2.51592e-83
1.0168e-83
4.13481e-84
1.62664e-84
6.31533e-85
2.41935e-85
9.33634e-86
3.48469e-86
1.3007e-86
4.76386e-87
1.67324e-87
5.91742e-88
2.02552e-88
6.9406e-89
2.29128e-89
7.38432e-90
2.38228e-90
7.54117e-91
2.39728e-91
7.23024e-92
2.10183e-92
5.91404e-93
1.63814e-93
4.44675e-94
1.15505e-94
2.91305e-95
7.06709e-96
1.7826e-96
4.10498e-97
9.40927e-98
2.06353e-98
4.4331e-99
9.28779e-100
1.82932e-100
3.3371e-101
6.41453e-102
1.16033e-102
1.89276e-103
2.99211e-104
4.46445e-105
6.56199e-106
8.70091e-107
1.18719e-107
1.46614e-108
1.59663e-109
1.68294e-110
1.617e-111
1.39999e-112
1.07966e-113
7.51875e-115
4.82411e-116
2.54558e-117
1.10981e-118
3.77745e-120
1.00866e-121
1.75781e-123
1.43534e-125
1.52285e-35
1.22368e-35
9.8091e-36
7.84352e-36
6.25589e-36
4.97665e-36
3.94846e-36
3.12416e-36
2.46505e-36
1.93944e-36
1.52145e-36
1.18997e-36
9.2787e-37
7.21232e-37
5.58818e-37
4.31559e-37
3.32164e-37
2.54783e-37
1.94742e-37
1.48314e-37
1.12537e-37
8.5066e-38
6.40499e-38
4.80319e-38
3.58703e-38
2.66731e-38
1.9746e-38
1.45506e-38
1.06708e-38
7.78667e-39
5.65268e-39
4.08148e-39
2.93055e-39
2.09201e-39
1.48448e-39
1.04691e-39
7.33676e-40
5.10875e-40
3.53442e-40
2.42951e-40
1.65944e-40
1.12649e-40
7.60263e-41
5.10367e-41
3.41026e-41
2.27034e-41
1.50777e-41
1.00046e-41
6.64501e-42
4.42724e-42
2.96514e-42
2.00025e-42
1.36111e-42
9.34987e-43
6.48279e-43
4.53225e-43
3.18922e-43
2.25368e-43
1.59551e-43
1.12916e-43
7.97374e-44
5.61051e-44
3.92971e-44
2.73857e-44
1.89849e-44
1.30895e-44
8.97346e-45
6.11518e-45
4.14138e-45
2.78633e-45
1.86176e-45
1.23499e-45
8.1299e-46
5.30909e-46
3.4379e-46
2.20662e-46
1.40328e-46
8.83837e-47
5.51115e-47
3.40093e-47
2.07639e-47
1.25397e-47
7.4906e-48
4.42703e-48
2.59046e-48
1.50276e-48
8.6615e-49
4.97604e-49
2.86179e-49
1.65632e-49
9.70177e-50
5.77929e-50
3.51057e-50
2.17335e-50
1.36635e-50
8.67435e-51
5.52491e-51
3.50723e-51
2.20874e-51
1.37969e-51
8.5468e-52
5.25016e-52
3.198e-52
1.93179e-52
1.15753e-52
6.88344e-53
4.06586e-53
2.38859e-53
1.39825e-53
8.1766e-54
4.79135e-54
2.82349e-54
1.67948e-54
1.01189e-54
6.19311e-55
3.85774e-55
2.44708e-55
1.57871e-55
1.03204e-55
6.78796e-56
4.45973e-56
2.92911e-56
1.92494e-56
1.26711e-56
8.3643e-57
5.54346e-57
3.69276e-57
2.47489e-57
1.67002e-57
1.1352e-57
7.77589e-58
5.36875e-58
3.7379e-58
2.6267e-58
1.86634e-58
1.34481e-58
9.78619e-59
7.12525e-59
5.19035e-59
3.78242e-59
2.75726e-59
2.01037e-59
1.46593e-59
1.0689e-59
7.7926e-60
5.67923e-60
4.13711e-60
3.01197e-60
2.19125e-60
1.5928e-60
1.1566e-60
8.38826e-61
6.07503e-61
4.39274e-61
3.17081e-61
2.28455e-61
1.64276e-61
1.17881e-61
8.44053e-62
6.03e-62
4.29801e-62
3.05639e-62
2.16829e-62
1.53439e-62
1.08289e-62
7.62013e-63
5.34569e-63
3.73824e-63
2.60594e-63
1.81068e-63
1.25414e-63
8.65811e-64
5.95765e-64
4.08492e-64
2.79048e-64
1.89895e-64
1.28729e-64
8.69275e-65
5.84672e-65
3.91736e-65
2.61392e-65
1.7369e-65
1.14901e-65
7.56738e-66
4.95978e-66
3.23645e-66
2.10257e-66
1.35966e-66
8.74945e-67
5.60327e-67
3.57092e-67
2.26387e-67
1.42772e-67
8.9558e-68
5.5877e-68
3.46734e-68
2.1395e-68
1.31261e-68
8.00462e-69
4.85186e-69
2.92275e-69
1.74983e-69
1.04114e-69
6.15604e-70
3.61709e-70
2.11134e-70
1.22427e-70
7.04851e-71
4.03e-71
2.28827e-71
1.29014e-71
7.22115e-72
4.01185e-72
2.21184e-72
1.21011e-72
6.56771e-73
3.53582e-73
1.88827e-73
9.99985e-74
5.25183e-74
2.73444e-74
1.41143e-74
7.2201e-75
3.66026e-75
1.83858e-75
9.14871e-76
4.50861e-76
2.20037e-76
1.06349e-76
5.09016e-77
2.412e-77
1.13121e-77
5.25122e-78
2.41249e-78
1.09698e-78
4.9384e-79
2.20158e-79
9.72602e-80
4.26164e-80
1.85519e-80
8.036e-81
3.46774e-81
1.49013e-81
6.36448e-82
2.69527e-82
1.12861e-82
4.67141e-83
1.909e-83
7.69695e-84
3.06273e-84
1.20026e-84
4.6195e-85
1.74252e-85
6.43212e-86
2.33511e-86
8.29597e-87
2.8917e-87
9.84788e-88
3.28891e-88
1.08151e-88
3.4869e-89
1.09944e-89
3.37476e-90
1.00816e-90
2.93101e-91
8.29845e-92
2.28648e-92
6.12152e-93
1.59013e-93
4.00822e-94
9.81839e-95
2.32834e-95
5.34908e-96
1.19006e-96
2.56233e-97
5.32324e-98
1.06202e-98
2.03901e-99
3.77891e-100
6.73222e-101
1.14804e-101
1.87253e-102
2.91406e-103
4.31848e-104
6.06704e-105
8.04095e-106
9.91204e-107
1.12688e-107
1.18328e-108
1.14088e-109
1.00289e-110
7.97293e-112
5.68049e-113
3.54914e-114
1.89665e-115
8.43609e-117
2.99678e-118
7.90022e-120
1.36276e-121
1.16197e-123
1.70876e-34
1.39546e-34
1.13711e-34
9.2453e-35
7.49983e-35
6.06977e-35
4.90071e-35
3.9472e-35
3.17129e-35
2.54142e-35
2.03135e-35
1.61932e-35
1.28734e-35
1.02056e-35
8.06755e-36
6.35873e-36
4.99683e-36
3.91455e-36
3.05701e-36
2.37961e-36
1.84615e-36
1.42738e-36
1.09972e-36
8.44188e-37
6.45595e-37
4.91796e-37
3.73121e-37
2.81891e-37
2.12033e-37
1.58756e-37
1.18297e-37
8.77062e-38
6.46845e-38
4.74432e-38
3.4597e-38
2.50771e-38
1.80624e-38
1.29245e-38
9.18491e-39
6.48101e-39
4.53946e-39
3.15539e-39
2.17616e-39
1.48881e-39
1.0103e-39
6.80031e-40
4.54109e-40
3.00989e-40
1.98188e-40
1.2982e-40
8.47666e-41
5.53249e-41
3.62193e-41
2.38796e-41
1.59212e-41
1.07724e-41
7.41211e-42
5.18694e-42
3.68463e-42
2.64787e-42
1.91653e-42
1.39055e-42
1.00705e-42
7.26184e-43
5.21322e-43
3.72518e-43
2.64901e-43
1.87421e-43
1.31899e-43
9.23078e-44
6.42215e-44
4.44048e-44