/*--------------------------------*- C++ -*----------------------------------*\
| =========                 |                                                 |
| \\      /  F ield         | OpenFOAM: The Open Source CFD Toolbox           |
|  \\    /   O peration     | Version:  2.4.0                                 |
|   \\  /    A nd           | Web:      www.OpenFOAM.org                      |
|    \\/     M anipulation  |                                                 |
\*---------------------------------------------------------------------------*/
FoamFile
{
    version     2.0;
    format      ascii;
    class       volScalarField;
    location    "4.8";
    object      H;
}
// * * * * * * * * * * * * * * * * * * * * * * * * * * * * * * * * * * * * * //

dimensions      [0 2 -2 0 0 0 0];

internalField   nonuniform List<scalar> 
8000
(
-11691.3
-10613.9
-9536.6
-8460.22
-7386.23
-6316.77
-5254.61
-4203.18
-3166.56
-2149.46
-1156.96
-12.0847
-8.4013
-7.16294
-5.65088
-4.08966
-2.74211
-1.72534
-1.03006
-0.58852
-0.323815
-0.172374
-0.0890809
-0.0448177
-0.0220091
-0.0105801
-0.00499659
-0.00232953
-0.00107936
-0.000501465
-0.000236242
-0.000114266
-5.73885e-05
-3.01358e-05
-1.65509e-05
-9.45064e-06
-5.55748e-06
-3.33228e-06
-2.02009e-06
-1.23027e-06
-7.49409e-07
-4.55242e-07
-2.75246e-07
-1.65419e-07
-9.87297e-08
-5.84795e-08
-3.43599e-08
-2.00185e-08
-1.15616e-08
-6.61974e-09
-11689.6
-10608.2
-9524.79
-8439.35
-7352.32
-6264.51
-5176.44
-4086.65
-2987.95
-1859.13
-642.3
-23.9045
-15.0414
-11.1193
-7.84209
-5.32615
-3.50596
-2.24474
-1.39962
-0.849572
-0.501586
-0.287807
-0.160456
-0.0869591
-0.0458741
-0.023612
-0.0119003
-0.00590274
-0.00290195
-0.00142734
-0.000710522
-0.000362496
-0.000191666
-0.000105719
-6.08294e-05
-3.62917e-05
-2.22433e-05
-1.38717e-05
-8.73173e-06
-5.51464e-06
-3.48013e-06
-2.18852e-06
-1.36901e-06
-8.50809e-07
-5.24868e-07
-3.21205e-07
-1.94895e-07
-1.17198e-07
-6.9823e-08
-4.12036e-08
-11672.9
-10555.4
-9428.67
-8288.27
-7130.96
-5955.55
-4764.24
-3564.58
-2371.28
-1206.46
-9.05258
-6.41765
-5.45294
-4.50728
-3.61627
-2.8185
-2.13081
-1.55816
-1.09907
-0.746474
-0.487928
-0.307138
-0.186485
-0.10948
-0.0623433
-0.0345761
-0.0187744
-0.0100482
-0.0053468
-0.00285871
-0.00155397
-0.0008685
-0.000503005
-0.000302583
-0.000188379
-0.000120463
-7.84303e-05
-5.15795e-05
-3.40529e-05
-2.24712e-05
-1.47787e-05
-9.66867e-06
-6.2845e-06
-4.05479e-06
-2.59517e-06
-1.64672e-06
-1.03543e-06
-6.44894e-07
-3.97709e-07
-2.42781e-07
-11629.3
-10425.9
-9216.49
-7998.99
-6771.07
-5527.32
-4253.5
-2920.77
-1496.52
-9.12021
-7.64989
-5.27211
-4.32209
-3.55679
-2.92725
-2.38189
-1.89188
-1.45284
-1.07311
-0.761244
-0.519115
-0.341089
-0.216621
-0.133476
-0.0801542
-0.0471679
-0.027385
-0.015819
-0.00918321
-0.00541578
-0.00327669
-0.00204677
-0.00132143
-0.000878248
-0.000596543
-0.000410796
-0.000284775
-0.000197671
-0.000136887
-9.435e-05
-6.46349e-05
-4.39695e-05
-2.96846e-05
-1.98788e-05
-1.31986e-05
-8.68447e-06
-5.66017e-06
-3.65254e-06
-2.33273e-06
-1.47397e-06
-11564.4
-10229.5
-8885.18
-7530.04
-6165.49
-4792.59
-3399.69
-1904.16
-11.554
-1.06401
-3.1386
-4.99843
-5.67773
-5.42222
-4.63273
-3.66011
-2.73105
-1.95379
-1.35575
-0.921505
-0.618091
-0.409736
-0.268426
-0.173827
-0.111463
-0.0710348
-0.0452542
-0.0290412
-0.0189355
-0.0126413
-0.00867573
-0.00611392
-0.00440037
-0.00321051
-0.00235713
-0.00173122
-0.0012668
-0.000921262
-0.000665018
-0.000476251
-0.000338326
-0.000238413
-0.000166647
-0.000115521
-7.93915e-05
-5.40682e-05
-3.64702e-05
-2.43517e-05
-1.60878e-05
-1.05112e-05
-11517.4
-10093.7
-8673.92
-7261.61
-5861.74
-4479.27
-3112.74
-1741.33
-16.0031
-2.3685
-4.08489
-4.2687
-4.51826
-4.5489
-4.30585
-3.84722
-3.27327
-2.67558
-2.11351
-1.61461
-1.19181
-0.851408
-0.590581
-0.39989
-0.266296
-0.176096
-0.117009
-0.0791742
-0.05531
-0.0403747
-0.030696
-0.0239291
-0.0188506
-0.0148427
-0.0116015
-0.00897077
-0.00685469
-0.00517735
-0.003869
-0.0028639
-0.002102
-0.0015309
-0.00110678
-0.000794239
-0.000565513
-0.000399257
-0.000279284
-0.000193413
-0.000132512
-8.9762e-05
-11575.3
-10277.2
-9004.93
-7763.06
-6551.38
-5365.81
-4192.75
-2993.6
-1704.55
-549.631
-13.5033
-3.62869
-0.391559
-0.105985
-1.11844
-1.48596
-1.58408
-1.53829
-1.42841
-1.2982
-1.15773
-1.01539
-0.878415
-0.752659
-0.641511
-0.545937
-0.464477
-0.394097
-0.331994
-0.276227
-0.22729
-0.185094
-0.14922
-0.119127
-0.094216
-0.0738682
-0.0574678
-0.0444157
-0.0341453
-0.0261389
-0.0199404
-0.0151628
-0.0114891
-0.00866664
-0.00649954
-0.0048381
-0.00356898
-0.00260582
-0.00188101
-0.00134121
-11679.4
-10589
-9526.07
-8499.43
-7511.6
-6560.38
-5640.53
-4744.99
-3866.43
-2999.05
-2137.35
-1237.37
-161.118
-2.29979
-1.18302
-1.85232
-2.34347
-0.195766
-0.0456441
-0.14825
-0.24377
-0.316023
-0.360678
-0.382459
-0.387342
-0.383062
-0.373168
-0.359897
-0.344598
-0.328253
-0.311615
-0.295126
-0.278801
-0.262444
-0.245898
-0.229143
-0.212292
-0.195488
-0.178847
-0.162434
-0.146267
-0.130356
-0.114735
-0.0994873
-0.0847536
-0.0707136
-0.0576963
-0.046205
-0.0362972
-0.0279696
-11767.1
-10850.5
-9958.36
-9101.12
-8285.07
-7512.73
-6783.62
-6095.02
-5442.63
-4821.19
-4224.88
-3647.7
-3083.97
-2530.22
-1981.37
-1429.78
-853.775
-194.392
-35.76
-0.952559
-0.551331
-0.493054
-0.399363
-0.0559766
-0.0468006
-0.0698726
-0.0892044
-0.110116
-0.129305
-0.145873
-0.159389
-0.170394
-0.179448
-0.186494
-0.191274
-0.193775
-0.194287
-0.193104
-0.190426
-0.186375
-0.181049
-0.174572
-0.16711
-0.15884
-0.149914
-0.140435
-0.130443
-0.119981
-0.109147
-0.0981063
-11840.1
-11066.9
-10311.6
-9582.22
-8883.6
-8218.22
-7586.53
-6987.61
-6419.66
-5880.4
-5367.46
-4878.54
-4411.57
-3964.81
-3536.8
-3126.43
-2732.63
-2354.04
-1988.88
-1632.64
-1279.09
-920.264
-539.739
-115.406
-40.2236
-0.510073
-0.0883449
-0.0220855
-0.0149357
-0.033172
-0.0452419
-0.0581394
-0.0723385
-0.0857779
-0.0970943
-0.106361
-0.114299
-0.121635
-0.128462
-0.134615
-0.139837
-0.14366
-0.14592
-0.146887
-0.146685
-0.145315
-0.142726
-0.139063
-0.134118
-0.128129
-11885.8
-11200.5
-10523.9
-9861
-9215.34
-8589.58
-7985.43
-7403.99
-6845.92
-6311.7
-5801.66
-5316.08
-4855.15
-4418.93
-4007.26
-3619.75
-3255.71
-2914.11
-2593.64
-2292.73
-2009.63
-1742.39
-1488.76
-1245.9
-1011.17
-781.273
-553.722
-327.883
-121.362
-0.941969
-0.0566508
-0.0244142
-0.00672317
-0.0179446
-0.0250129
-0.0327301
-0.0417588
-0.0507522
-0.058626
-0.0654203
-0.0717332
-0.0779961
-0.0845209
-0.0919741
-0.0990728
-0.104712
-0.109168
-0.11258
-0.1147
-0.115625
-11904.9
-11255.2
-10607.5
-9964.16
-9327.49
-8700.23
-8085.2
-7485.3
-6903.48
-6342.62
-5805.44
-5294.38
-4811.46
-4358.14
-3935.31
-3543.2
-3181.4
-2848.94
-2544.35
-2265.78
-2011.12
-1778.15
-1564.63
-1368.3
-1187.02
-1018.84
-862.018
-715.187
-577.51
-448.686
-328.427
-215.603
-106.888
-0.683297
-0.0322447
-0.0157043
-0.00724913
-0.0230929
-0.0255518
-0.0282156
-0.0321914
-0.0372189
-0.0430482
-0.0492542
-0.0554158
-0.0612093
-0.066643
-0.0717115
-0.0762372
-0.0802523
-11906.6
-11259.3
-10611
-9962.53
-9315.75
-8673.41
-8039.04
-7416.68
-6810.66
-6225.31
-5664.76
-5132.62
-4631.86
-4164.63
-3732.19
-3334.93
-2972.43
-2643.54
-2346.52
-2079.18
-1839.11
-1623.88
-1430.94
-1257.78
-1102.09
-961.752
-834.878
-719.801
-615.082
-519.499
-432.046
-351.936
-278.642
-211.942
-151.899
-97.9088
-48.5273
-0.313967
-0.0166164
-0.00655098
-0.0156557
-0.0179826
-0.0199684
-0.0222159
-0.0249661
-0.0281699
-0.0320206
-0.0367383
-0.0420918
-0.0476608
-11904.3
-11252.1
-10598.5
-9944.15
-9290.68
-8640.98
-7998.74
-7368.31
-6754.35
-6161.57
-5594.37
-5056.66
-4551.56
-4081.33
-3647.28
-3249.79
-2888.38
-2561.83
-2268.31
-2005.54
-1771.05
-1562.32
-1376.76
-1211.78
-1065.02
-934.305
-817.678
-713.408
-619.968
-536.019
-460.394
-392.066
-330.129
-273.76
-222.199
-174.722
-130.669
-89.5986
-51.5014
-16.6944
-0.116191
-0.00940693
-0.00330831
-0.000106042
-0.00839654
-0.0112695
-0.013488
-0.0159353
-0.0188025
-0.0222172
-11903.1
-11249.1
-10594.6
-9940.48
-9288.7
-8642.09
-8004.26
-7379.33
-6771.69
-6185.69
-5625.43
-5094.46
-4595.63
-4130.97
-3701.61
-3307.87
-2949.22
-2624.5
-2331.94
-2069.36
-1834.4
-1624.65
-1437.65
-1270.94
-1122.24
-989.44
-870.662
-764.23
-668.672
-582.704
-505.22
-435.268
-372.041
-314.857
-263.153
-216.476
-174.474
-136.894
-103.555
-74.3391
-49.1513
-27.8217
-10.1056
-0.0700641
-0.00595008
-0.00208949
-0.00641716
-0.00919115
-0.011415
-0.0135129
-11907.9
-11264
-10620.9
-9979.99
-9343.44
-8713.97
-8094.85
-7489.68
-6902.23
-6336.13
-5794.78
-5281.07
-4797.32
-4345.14
-3925.44
-3538.39
-3183.52
-2859.79
-2565.68
-2299.3
-2058.56
-1841.29
-1645.36
-1468.65
-1309.11
-1164.88
-1034.31
-915.904
-808.401
-710.697
-621.854
-541.074
-467.69
-401.136
-340.935
-286.679
-238.018
-194.643
-156.277
-122.661
-93.548
-68.6824
-47.7954
-30.5907
-16.7191
-5.81164
-0.0348199
-0.0218528
-0.016061
-0.0141109
-11916.1
-11289.1
-10664.8
-10045.4
-9433.02
-8830.43
-8240.42
-7665.94
-7109.87
-6574.94
-6063.59
-5577.84
-5119.21
-4688.7
-4286.77
-3913.34
-3567.84
-3249.28
-2956.34
-2687.45
-2440.85
-2214.7
-2007.18
-1816.56
-1641.18
-1479.52
-1330.24
-1192.15
-1064.24
-945.682
-835.787
-733.999
-639.874
-553.065
-473.295
-400.345
-334.033
-274.201
-220.703
-173.383
-132.053
-96.4519
-66.196
-40.7426
-19.4516
-2.63171
-0.0171029
-0.00521997
-0.00634252
-0.0086005
-11930.7
-11333.7
-10741.6
-10157.2
-9582.89
-9021.2
-8474.36
-7944.49
-7433.52
-6943.09
-6474.57
-6028.96
-5606.9
-5208.65
-4834.1
-4482.81
-4154.01
-3846.71
-3559.7
-3291.63
-3041.08
-2806.6
-2586.73
-2380.11
-2185.47
-2001.69
-1827.79
-1662.91
-1506.38
-1357.67
-1216.4
-1082.33
-955.329
-835.384
-722.56
-616.991
-518.862
-428.391
-345.807
-271.313
-205.006
-146.724
-96.0185
-52.9232
-19.5128
-0.154181
-0.0559202
-0.0203321
-0.0114709
-0.0110078
-11948.6
-11388
-10833.7
-10289.1
-9756.96
-9239.42
-8738.34
-8255.16
-7790.94
-7346.44
-6922.08
-6517.98
-6133.97
-5769.62
-5424.27
-5097.06
-4786.97
-4492.88
-4213.58
-3947.83
-3694.38
-3452.05
-3219.7
-2996.3
-2780.94
-2572.84
-2371.38
-2176.09
-1986.67
-1802.97
-1625
-1452.93
-1287.04
-1127.75
-975.562
-831.076
-694.932
-567.797
-450.319
-343.124
-246.778
-161.397
-86.5222
-27.7446
-0.243724
-0.0770699
-0.0351158
-0.0302696
-0.0329074
-0.036429
-11968.8
-11448.8
-10935.9
-10433.5
-9944.24
-9470.21
-9012.75
-8572.69
-8150.46
-7746.1
-7359.32
-6989.58
-6636.13
-6298.06
-5974.3
-5663.74
-5365.2
-5077.49
-4799.46
-4529.99
-4268.05
-4012.68
-3763.07
-3518.51
-3278.45
-3042.46
-2810.31
-2581.9
-2357.33
-2136.82
-1920.81
-1709.86
-1504.68
-1306.11
-1115.09
-932.659
-759.883
-597.828
-447.484
-310.075
-187.604
-81.9691
-0.766339
-0.00873758
-0.0186352
-0.0372463
-0.0590694
-0.077216
-0.0908591
-0.0999802
-3.75965e-09
-2.11767e-09
-1.18428e-09
-6.5859e-10
-3.6533e-10
-2.05653e-10
-1.17403e-10
-6.94927e-11
-4.50122e-11
-3.02953e-11
-2.30772e-11
-1.95857e-11
-1.76412e-11
-1.65783e-11
-1.6145e-11
-1.59547e-11
-1.58737e-11
-1.58546e-11
-1.58624e-11
-1.58823e-11
-1.5908e-11
-1.59367e-11
-1.59668e-11
-1.59979e-11
-1.60296e-11
-1.60618e-11
-1.60945e-11
-1.61275e-11
-1.61607e-11
-1.61941e-11
-1.62274e-11
-1.62606e-11
-1.62935e-11
-1.63259e-11
-1.63577e-11
-1.63888e-11
-1.6419e-11
-1.64484e-11
-1.64769e-11
-1.65045e-11
-1.65314e-11
-1.65577e-11
-1.65834e-11
-1.66087e-11
-1.66335e-11
-1.66578e-11
-1.66814e-11
-1.67042e-11
-1.67261e-11
-1.67467e-11
-2.40806e-08
-1.3935e-08
-7.98808e-09
-4.53814e-09
-2.55332e-09
-1.42406e-09
-7.91145e-10
-4.39638e-10
-2.44388e-10
-1.3741e-10
-8.00276e-11
-5.12206e-11
-3.38472e-11
-2.50654e-11
-2.0558e-11
-1.83211e-11
-1.69785e-11
-1.64241e-11
-1.61838e-11
-1.60759e-11
-1.6035e-11
-1.60268e-11
-1.60327e-11
-1.60451e-11
-1.60607e-11
-1.6078e-11
-1.60963e-11
-1.61153e-11
-1.61348e-11
-1.61547e-11
-1.61749e-11
-1.61953e-11
-1.62157e-11
-1.6236e-11
-1.62559e-11
-1.62754e-11
-1.62942e-11
-1.63121e-11
-1.63292e-11
-1.63454e-11
-1.63606e-11
-1.6375e-11
-1.63888e-11
-1.64019e-11
-1.64146e-11
-1.64267e-11
-1.64382e-11
-1.6449e-11
-1.64588e-11
-1.64672e-11
-1.46677e-07
-8.76832e-08
-5.18669e-08
-3.03588e-08
-1.75822e-08
-1.00803e-08
-5.72246e-09
-3.21808e-09
-1.7948e-09
-9.92676e-10
-5.49263e-10
-3.02328e-10
-1.68942e-10
-9.81166e-11
-5.92158e-11
-4.07286e-11
-2.82335e-11
-2.22234e-11
-1.94339e-11
-1.78902e-11
-1.71456e-11
-1.68343e-11
-1.66999e-11
-1.66419e-11
-1.66239e-11
-1.66248e-11
-1.66339e-11
-1.6647e-11
-1.66621e-11
-1.66782e-11
-1.66952e-11
-1.67126e-11
-1.67304e-11
-1.67484e-11
-1.67665e-11
-1.67843e-11
-1.68019e-11
-1.68189e-11
-1.68351e-11
-1.68506e-11
-1.68651e-11
-1.68787e-11
-1.68915e-11
-1.69035e-11
-1.69149e-11
-1.69258e-11
-1.6936e-11
-1.69455e-11
-1.6954e-11
-1.69613e-11
-9.21211e-07
-5.69374e-07
-3.4799e-07
-2.10313e-07
-1.25695e-07
-7.43006e-08
-4.34423e-08
-2.51283e-08
-1.43851e-08
-8.15245e-09
-4.57572e-09
-2.548e-09
-1.40724e-09
-7.72531e-10
-4.23205e-10
-2.34485e-10
-1.31684e-10
-7.65764e-11
-5.01491e-11
-3.33728e-11
-2.50635e-11
-2.10764e-11
-1.91635e-11
-1.80702e-11
-1.75762e-11
-1.73666e-11
-1.72783e-11
-1.72433e-11
-1.72329e-11
-1.72356e-11
-1.72441e-11
-1.72553e-11
-1.72679e-11
-1.72812e-11
-1.72949e-11
-1.73088e-11
-1.73228e-11
-1.73365e-11
-1.73498e-11
-1.73626e-11
-1.73746e-11
-1.73859e-11
-1.73964e-11
-1.74062e-11
-1.74153e-11
-1.74238e-11
-1.74317e-11
-1.7439e-11
-1.74455e-11
-1.74508e-11
-6.7897e-06
-4.33509e-06
-2.73556e-06
-1.70607e-06
-1.05166e-06
-6.40843e-07
-3.86092e-07
-2.3003e-07
-1.35552e-07
-7.90221e-08
-4.55817e-08
-2.60246e-08
-1.47066e-08
-8.23075e-09
-4.56337e-09
-2.50952e-09
-1.36975e-09
-7.44418e-10
-4.04402e-10
-2.22916e-10
-1.24889e-10
-7.26322e-11
-4.84939e-11
-3.25572e-11
-2.48174e-11
-2.11631e-11
-1.94001e-11
-1.85432e-11
-1.80525e-11
-1.78503e-11
-1.77668e-11
-1.77326e-11
-1.77198e-11
-1.77169e-11
-1.77189e-11
-1.77234e-11
-1.7729e-11
-1.77349e-11
-1.7741e-11
-1.7747e-11
-1.77526e-11
-1.77578e-11
-1.77625e-11
-1.77667e-11
-1.77703e-11
-1.77735e-11
-1.77762e-11
-1.77784e-11
-1.778e-11
-1.77808e-11
-6.00889e-05
-3.97404e-05
-2.59628e-05
-1.67555e-05
-1.06833e-05
-6.73102e-06
-4.1916e-06
-2.58051e-06
-1.57094e-06
-9.45887e-07
-5.63426e-07
-3.32074e-07
-1.93691e-07
-1.11824e-07
-6.39097e-08
-3.61657e-08
-2.02658e-08
-1.12492e-08
-6.19021e-09
-3.37714e-09
-1.83009e-09
-9.85803e-10
-5.2902e-10
-2.8527e-10
-1.56791e-10
-9.04298e-11
-5.47459e-11
-3.95201e-11
-2.79601e-11
-2.25044e-11
-2.00475e-11
-1.89075e-11
-1.83402e-11
-1.80559e-11
-1.78991e-11
-1.78276e-11
-1.77902e-11
-1.77662e-11
-1.77475e-11
-1.7731e-11
-1.77154e-11
-1.77001e-11
-1.76847e-11
-1.76692e-11
-1.76537e-11
-1.76383e-11
-1.76231e-11
-1.76081e-11
-1.75932e-11
-1.75783e-11
-0.000944067
-0.000655819
-0.000449601
-0.000304238
-0.000203272
-0.000134147
-8.74736e-05
-5.63784e-05
-3.59271e-05
-2.26433e-05
-1.41186e-05
-8.71147e-06
-5.32032e-06
-3.21672e-06
-1.92572e-06
-1.14168e-06
-6.7039e-07
-3.89949e-07
-2.24726e-07
-1.28338e-07
-7.26513e-08
-4.07724e-08
-2.2691e-08
-1.25313e-08
-6.86564e-09
-3.73657e-09
-2.02364e-09
-1.0891e-09
-5.81497e-10
-3.14387e-10
-1.70423e-10
-9.74498e-11
-5.78448e-11
-4.1188e-11
-2.80191e-11
-2.15847e-11
-1.8689e-11
-1.73611e-11
-1.67199e-11
-1.64069e-11
-1.624e-11
-1.61549e-11
-1.61064e-11
-1.6073e-11
-1.60465e-11
-1.60235e-11
-1.60028e-11
-1.59836e-11
-1.59657e-11
-1.59487e-11
-0.0211511
-0.0157103
-0.011474
-0.00824942
-0.0058447
-0.00408387
-0.0028155
-0.00191561
-0.00128649
-0.000853281
-0.000559181
-0.000362194
-0.000231944
-0.000146886
-9.20046e-05
-5.70068e-05
-3.49439e-05
-2.11923e-05
-1.27175e-05
-7.55325e-06
-4.4411e-06
-2.58589e-06
-1.49153e-06
-8.52479e-07
-4.82916e-07
-2.71179e-07
-1.50964e-07
-8.33124e-08
-4.55733e-08
-2.47092e-08
-1.32789e-08
-7.06929e-09
-3.73224e-09
-1.95365e-09
-1.01511e-09
-5.26724e-10
-2.72518e-10
-1.47027e-10
-7.79161e-11
-4.86246e-11
-2.97483e-11
-2.08057e-11
-1.68515e-11
-1.50948e-11
-1.42998e-11
-1.39298e-11
-1.37538e-11
-1.36802e-11
-1.36482e-11
-1.36319e-11
-0.0870425
-0.0761271
-0.0655298
-0.0554191
-0.0459562
-0.0372859
-0.0295258
-0.0227561
-0.0170375
-0.0125298
-0.0090585
-0.00644311
-0.0045121
-0.00311286
-0.00211645
-0.00141839
-0.000936915
-0.000609918
-0.000391357
-0.000247668
-0.000154688
-9.54171e-05
-5.81649e-05
-3.50589e-05
-2.09034e-05
-1.23318e-05
-7.19884e-06
-4.15836e-06
-2.37663e-06
-1.34374e-06
-7.51461e-07
-4.15592e-07
-2.27262e-07
-1.22868e-07
-6.56763e-08
-3.47089e-08
-1.81346e-08
-9.37451e-09
-4.7964e-09
-2.43092e-09
-1.21779e-09
-6.08265e-10
-3.05445e-10
-1.57004e-10
-7.88116e-11
-4.72604e-11
-2.75128e-11
-1.83281e-11
-1.43867e-11
-1.27116e-11
-0.121403
-0.11408
-0.106267
-0.0980848
-0.0896507
-0.0810856
-0.0725121
-0.0640564
-0.0558489
-0.0480199
-0.0406764
-0.0339041
-0.0277672
-0.0223089
-0.0175503
-0.0134903
-0.0101051
-0.00735018
-0.00520335
-0.00361767
-0.00247307
-0.00166406
-0.00110309
-0.000720803
-0.000464423
-0.000295041
-0.000184765
-0.000114067
-6.94234e-05
-4.16541e-05
-2.46381e-05
-1.43666e-05
-8.25857e-06
-4.68053e-06
-2.61567e-06
-1.44165e-06
-7.83885e-07
-4.20636e-07
-2.22847e-07
-1.16618e-07
-6.03089e-08
-3.08354e-08
-1.56031e-08
-7.81416e-09
-3.88129e-09
-1.91258e-09
-9.35801e-10
-4.60768e-10
-2.25365e-10
-1.12227e-10
-0.11546
-0.114235
-0.111998
-0.108835
-0.104864
-0.100209
-0.0949872
-0.0893094
-0.0832723
-0.0769654
-0.070471
-0.0638696
-0.0572428
-0.0506753
-0.0442555
-0.0380754
-0.0322287
-0.0268092
-0.0219042
-0.0175724
-0.0138402
-0.0106962
-0.00810389
-0.00601195
-0.00435972
-0.00308237
-0.00211489
-0.00142407
-0.000941227
-0.000610627
-0.000388859
-0.000243095
-0.000149199
-8.99165e-05
-5.32345e-05
-3.09816e-05
-1.77366e-05
-9.99572e-06
-5.54961e-06
-3.03778e-06
-1.64075e-06
-8.75131e-07
-4.61319e-07
-2.40539e-07
-1.24159e-07
-6.34991e-08
-3.22032e-08
-1.62145e-08
-8.12488e-09
-4.05367e-09
-0.0839468
-0.0873587
-0.0902718
-0.092403
-0.0935653
-0.0937192
-0.0929159
-0.0912314
-0.0887513
-0.0855672
-0.0817707
-0.077449
-0.0726844
-0.0675557
-0.0621439
-0.0565284
-0.0508145
-0.0451263
-0.0395667
-0.0342231
-0.0291911
-0.0245271
-0.0202752
-0.0164699
-0.0131319
-0.0102654
-0.0078591
-0.00588871
-0.00431516
-0.00309003
-0.00216043
-0.00147321
-0.000978238
-0.000630569
-0.000397653
-0.000246484
-0.00015029
-9.02104e-05
-5.3345e-05
-3.11005e-05
-1.78911e-05
-1.01652e-05
-5.70963e-06
-3.17316e-06
-1.74636e-06
-9.52534e-07
-5.15348e-07
-2.76826e-07
-1.47843e-07
-7.86937e-08
-0.0529752
-0.0574997
-0.0611656
-0.0644085
-0.0676221
-0.0707702
-0.0735827
-0.0757755
-0.077189
-0.0777508
-0.0774431
-0.0762876
-0.0743348
-0.071651
-0.0683744
-0.0645946
-0.0603689
-0.0558264
-0.051044
-0.046125
-0.0411665
-0.0362526
-0.0314686
-0.026898
-0.0226176
-0.0186919
-0.0151692
-0.0120792
-0.00943145
-0.00721663
-0.00540864
-0.00396882
-0.00285048
-0.00200349
-0.00137847
-0.000928865
-0.000613248
-0.000396813
-0.000251671
-0.000156377
-9.53566e-05
-5.76212e-05
-3.453e-05
-2.05343e-05
-1.21247e-05
-7.11159e-06
-4.14517e-06
-2.4022e-06
-1.3851e-06
-7.95494e-07
-0.0262239
-0.0307017
-0.0353494
-0.0397707
-0.0437963
-0.047671
-0.0505408
-0.0535011
-0.0567578
-0.0599122
-0.0625878
-0.0645323
-0.0656042
-0.0657576
-0.0650274
-0.0634659
-0.0611614
-0.0582137
-0.0547237
-0.0508019
-0.0465601
-0.0421108
-0.0375671
-0.0330381
-0.028626
-0.0244225
-0.0205049
-0.0169338
-0.0137501
-0.0109746
-0.00860848
-0.0066358
-0.00502713
-0.00374361
-0.00274125
-0.00197464
-0.00140003
-0.000977576
-0.00067267
-0.000456455
-0.00030573
-0.00020236
-0.000132485
-8.5855e-05
-5.50976e-05
-3.50238e-05
-2.2052e-05
-1.37682e-05
-8.57353e-06
-5.31957e-06
-0.0157428
-0.0184036
-0.021703
-0.0253591
-0.0288237
-0.0318779
-0.0348224
-0.0380167
-0.0415402
-0.045086
-0.0485501
-0.0517209
-0.0543733
-0.0563237
-0.057449
-0.0576997
-0.0570871
-0.0556646
-0.0535147
-0.0507408
-0.0474611
-0.0438013
-0.0398872
-0.0358394
-0.0317702
-0.0277808
-0.0239588
-0.0203767
-0.0170892
-0.0141332
-0.0115278
-0.00927526
-0.00736407
-0.00577155
-0.00446742
-0.00341698
-0.00258407
-0.00193331
-0.00143186
-0.00105044
-0.000763781
-0.000550733
-0.000394011
-0.000279802
-0.000197296
-0.000138175
-9.61374e-05
-6.64707e-05
-4.56835e-05
-3.12096e-05
-0.014111
-0.0151575
-0.0170169
-0.0196599
-0.0226111
-0.0251788
-0.0272375
-0.0296614
-0.0327984
-0.0362772
-0.0396545
-0.0428544
-0.0457901
-0.048318
-0.0502855
-0.0515717
-0.0521047
-0.0518703
-0.050898
-0.049253
-0.0470262
-0.0443233
-0.0412564
-0.0379368
-0.0344707
-0.0309562
-0.0274807
-0.0241194
-0.0209338
-0.017971
-0.0152639
-0.0128312
-0.0106794
-0.008804
-0.00719224
-0.00582502
-0.00467929
-0.00372996
-0.00295157
-0.00231951
-0.00181086
-0.00140491
-0.00108343
-0.000830682
-0.000633331
-0.000480243
-0.000362248
-0.000271885
-0.000203153
-0.000151294
-0.0107499
-0.0128426
-0.0151507
-0.0177189
-0.019985
-0.0216941
-0.023605
-0.0262153
-0.0291301
-0.0320727
-0.0349207
-0.0376551
-0.0402471
-0.0426301
-0.0447064
-0.0463688
-0.0475195
-0.0480982
-0.0480808
-0.0474771
-0.0463256
-0.0446858
-0.0426312
-0.0402424
-0.0376021
-0.0347913
-0.0318859
-0.0289554
-0.0260609
-0.0232541
-0.0205774
-0.0180629
-0.0157334
-0.0136029
-0.0116776
-0.00995665
-0.00843421
-0.00710014
-0.00594145
-0.00494337
-0.00409023
-0.00336626
-0.00275609
-0.00224517
-0.00182002
-0.0014684
-0.00117935
-0.000943297
-0.000752001
-0.000598702
-0.0128216
-0.0153394
-0.0180916
-0.0205256
-0.0221927
-0.0238541
-0.0261285
-0.0286865
-0.0311045
-0.0332885
-0.0352333
-0.0369329
-0.0384993
-0.0400177
-0.0414846
-0.0428266
-0.0439633
-0.0448174
-0.0453279
-0.0454539
-0.0451775
-0.0445025
-0.0434511
-0.0420592
-0.0403723
-0.038441
-0.0363184
-0.0340567
-0.0317059
-0.0293124
-0.0269178
-0.0245583
-0.0222648
-0.0200626
-0.0179715
-0.0160062
-0.0141765
-0.0124882
-0.0109432
-0.00954043
-0.0082762
-0.00714482
-0.00613913
-0.0052509
-0.00447129
-0.00379122
-0.00320168
-0.00269417
-0.00226127
-0.00189762
-0.0397619
-0.0425877
-0.0446716
-0.0463048
-0.0483123
-0.0509914
-0.0537968
-0.05614
-0.0577274
-0.0584707
-0.0583982
-0.0576109
-0.0562423
-0.0544691
-0.0525676
-0.0508502
-0.0495202
-0.0484975
-0.0476884
-0.0469982
-0.0463373
-0.0456298
-0.0448177
-0.0438626
-0.0427436
-0.041455
-0.040003
-0.0384025
-0.0366743
-0.0348424
-0.0329325
-0.0309702
-0.0289805
-0.0269866
-0.0250097
-0.0230687
-0.0211801
-0.0193577
-0.017613
-0.0159551
-0.0143908
-0.0129248
-0.01156
-0.0102973
-0.00913637
-0.00807554
-0.00711239
-0.00624443
-0.00547051
-0.00479399
-0.106028
-0.110563
-0.114646
-0.118693
-0.122426
-0.125317
-0.127005
-0.127355
-0.126401
-0.124234
-0.120966
-0.116722
-0.111632
-0.105834
-0.0994717
-0.0927022
-0.0857293
-0.0789583
-0.0727691
-0.0674502
-0.0629272
-0.059096
-0.0558403
-0.0530439
-0.0505982
-0.048408
-0.0463941
-0.0444945
-0.0426633
-0.0408681
-0.0390875
-0.0373091
-0.0355274
-0.0337417
-0.0319553
-0.0301736
-0.028404
-0.0266541
-0.0249323
-0.0232466
-0.0216047
-0.0200138
-0.0184801
-0.0170094
-0.0156064
-0.0142751
-0.0130192
-0.0118431
-0.0107542
-0.00976978
-1.67645e-11
-1.67857e-11
-1.68087e-11
-1.68318e-11
-1.68548e-11
-1.68775e-11
-1.69001e-11
-1.69224e-11
-1.69446e-11
-1.69665e-11
-1.69883e-11
-1.70099e-11
-1.70312e-11
-1.70524e-11
-1.70734e-11
-1.70942e-11
-1.71149e-11
-1.71353e-11
-1.71556e-11
-1.71757e-11
-1.71957e-11
-1.72154e-11
-1.7235e-11
-1.72544e-11
-1.72737e-11
-1.72927e-11
-1.73116e-11
-1.73303e-11
-1.73488e-11
-1.73671e-11
-1.73853e-11
-1.74032e-11
-1.74209e-11
-1.74384e-11
-1.74557e-11
-1.74727e-11
-1.74896e-11
-1.75062e-11
-1.75226e-11
-1.75387e-11
-1.75546e-11
-1.75703e-11
-1.75858e-11
-1.7601e-11
-1.7616e-11
-1.76307e-11
-1.76453e-11
-1.76596e-11
-1.76737e-11
-1.76876e-11
-1.77013e-11
-1.77148e-11
-1.77281e-11
-1.77412e-11
-1.77541e-11
-1.77667e-11
-1.77793e-11
-1.77916e-11
-1.78037e-11
-1.78156e-11
-1.78273e-11
-1.78388e-11
-1.78502e-11
-1.78613e-11
-1.78722e-11
-1.78829e-11
-1.78935e-11
-1.79038e-11
-1.79139e-11
-1.79238e-11
-1.79336e-11
-1.79431e-11
-1.79524e-11
-1.79616e-11
-1.79706e-11
-1.79794e-11
-1.79881e-11
-1.79967e-11
-1.80051e-11
-1.80134e-11
-1.80216e-11
-1.80296e-11
-1.80376e-11
-1.80454e-11
-1.80532e-11
-1.80608e-11
-1.80683e-11
-1.80757e-11
-1.8083e-11
-1.80902e-11
-1.80973e-11
-1.81043e-11
-1.81111e-11
-1.81178e-11
-1.81243e-11
-1.81308e-11
-1.8137e-11
-1.81431e-11
-1.81489e-11
-1.81546e-11
-1.81601e-11
-1.81654e-11
-1.81705e-11
-1.81753e-11
-1.818e-11
-1.81846e-11
-1.81889e-11
-1.81932e-11
-1.81973e-11
-1.82013e-11
-1.82052e-11
-1.82091e-11
-1.82129e-11
-1.82166e-11
-1.82202e-11
-1.82238e-11
-1.82272e-11
-1.82306e-11
-1.82339e-11
-1.82371e-11
-1.82401e-11
-1.82431e-11
-1.8246e-11
-1.82488e-11
-1.82515e-11
-1.82541e-11
-1.82565e-11
-1.82589e-11
-1.82611e-11
-1.82633e-11
-1.82654e-11
-1.82676e-11
-1.82697e-11
-1.8272e-11
-1.82743e-11
-1.82767e-11
-1.82791e-11
-1.82815e-11
-1.82839e-11
-1.82862e-11
-1.82885e-11
-1.82906e-11
-1.82927e-11
-1.82948e-11
-1.82968e-11
-1.82988e-11
-1.83008e-11
-1.83027e-11
-1.83047e-11
-1.83067e-11
-1.83086e-11
-1.83104e-11
-1.83122e-11
-1.8314e-11
-1.83158e-11
-1.83177e-11
-1.83196e-11
-1.83215e-11
-1.83233e-11
-1.83251e-11
-1.83269e-11
-1.83286e-11
-1.83304e-11
-1.83321e-11
-1.83338e-11
-1.83355e-11
-1.83373e-11
-1.8339e-11
-1.83407e-11
-1.83424e-11
-1.83442e-11
-1.83459e-11
-1.83476e-11
-1.83493e-11
-1.8351e-11
-1.83527e-11
-1.83543e-11
-1.8356e-11
-1.83577e-11
-1.83594e-11
-1.8361e-11
-1.83627e-11
-1.83644e-11
-1.8366e-11
-1.83677e-11
-1.83693e-11
-1.8371e-11
-1.83727e-11
-1.83743e-11
-1.83759e-11
-1.83775e-11
-1.83791e-11
-1.83807e-11
-1.83823e-11
-1.83839e-11
-1.83854e-11
-1.8387e-11
-1.83885e-11
-1.83901e-11
-1.83916e-11
-1.83932e-11
-1.83947e-11
-1.83963e-11
-1.83978e-11
-1.83993e-11
-1.84007e-11
-1.84022e-11
-1.84036e-11
-1.84051e-11
-1.84065e-11
-1.84079e-11
-1.84094e-11
-1.84108e-11
-1.84122e-11
-1.84137e-11
-1.84151e-11
-1.84164e-11
-1.84178e-11
-1.84191e-11
-1.84204e-11
-1.84217e-11
-1.8423e-11
-1.84243e-11
-1.84255e-11
-1.84268e-11
-1.8428e-11
-1.84292e-11
-1.84304e-11
-1.84317e-11
-1.84329e-11
-1.84341e-11
-1.84352e-11
-1.84363e-11
-1.84374e-11
-1.84386e-11
-1.84397e-11
-1.84409e-11
-1.84419e-11
-1.8443e-11
-1.84441e-11
-1.84453e-11
-1.84464e-11
-1.84475e-11
-1.84487e-11
-1.84498e-11
-1.84509e-11
-1.84519e-11
-1.8453e-11
-1.84541e-11
-1.84552e-11
-1.84561e-11
-1.84571e-11
-1.84582e-11
-1.84592e-11
-1.84603e-11
-1.84613e-11
-1.84623e-11
-1.84632e-11
-1.84642e-11
-1.84653e-11
-1.84661e-11
-1.84671e-11
-1.84679e-11
-1.84687e-11
-1.84696e-11
-1.84704e-11
-1.84712e-11
-1.84719e-11
-1.84728e-11
-1.84735e-11
-1.84743e-11
-1.84749e-11
-1.84756e-11
-1.84762e-11
-1.84769e-11
-1.84775e-11
-1.84782e-11
-1.84787e-11
-1.84794e-11
-1.84799e-11
-1.84803e-11
-1.84807e-11
-1.84811e-11
-1.84817e-11
-1.8482e-11
-1.84825e-11
-1.84827e-11
-1.84829e-11
-1.84832e-11
-1.84834e-11
-1.84835e-11
-1.84836e-11
-1.84838e-11
-1.8484e-11
-1.84841e-11
-1.84842e-11
-1.84842e-11
-1.84842e-11
-1.84842e-11
-1.84843e-11
-1.64734e-11
-1.64887e-11
-1.65064e-11
-1.65245e-11
-1.65425e-11
-1.65602e-11
-1.65778e-11
-1.65952e-11
-1.66124e-11
-1.66293e-11
-1.66461e-11
-1.66627e-11
-1.66791e-11
-1.66953e-11
-1.67113e-11
-1.67272e-11
-1.67428e-11
-1.67583e-11
-1.67736e-11
-1.67886e-11
-1.68036e-11
-1.68183e-11
-1.68328e-11
-1.68472e-11
-1.68614e-11
-1.68754e-11
-1.68893e-11
-1.69029e-11
-1.69164e-11
-1.69298e-11
-1.69429e-11
-1.69559e-11
-1.69687e-11
-1.69814e-11
-1.69939e-11
-1.70062e-11
-1.70184e-11
-1.70304e-11
-1.70422e-11
-1.70539e-11
-1.70655e-11
-1.70769e-11
-1.70881e-11
-1.70992e-11
-1.71102e-11
-1.7121e-11
-1.71317e-11
-1.71422e-11
-1.71526e-11
-1.71629e-11
-1.7173e-11
-1.7183e-11
-1.71929e-11
-1.72026e-11
-1.72123e-11
-1.72218e-11
-1.72312e-11
-1.72404e-11
-1.72496e-11
-1.72586e-11
-1.72676e-11
-1.72764e-11
-1.72852e-11
-1.72938e-11
-1.73024e-11
-1.73108e-11
-1.73192e-11
-1.73274e-11
-1.73356e-11
-1.73437e-11
-1.73517e-11
-1.73596e-11
-1.73675e-11
-1.73753e-11
-1.7383e-11
-1.73906e-11
-1.73982e-11
-1.74057e-11
-1.74132e-11
-1.74205e-11
-1.74279e-11
-1.74351e-11
-1.74423e-11
-1.74494e-11
-1.74565e-11
-1.74635e-11
-1.74705e-11
-1.74774e-11
-1.74842e-11
-1.7491e-11
-1.74977e-11
-1.75044e-11
-1.7511e-11
-1.75176e-11
-1.75241e-11
-1.75305e-11
-1.7537e-11
-1.75433e-11
-1.75497e-11
-1.7556e-11
-1.75622e-11
-1.75684e-11
-1.75746e-11
-1.75808e-11
-1.75869e-11
-1.75931e-11
-1.75992e-11
-1.76053e-11
-1.76114e-11
-1.76175e-11
-1.76235e-11
-1.76296e-11
-1.76357e-11
-1.76418e-11
-1.76478e-11
-1.76539e-11
-1.766e-11
-1.7666e-11
-1.76721e-11
-1.76781e-11
-1.76842e-11
-1.76902e-11
-1.76963e-11
-1.77023e-11
-1.77083e-11
-1.77144e-11
-1.77204e-11
-1.77265e-11
-1.77325e-11
-1.77386e-11
-1.77448e-11
-1.77509e-11
-1.77571e-11
-1.77633e-11
-1.77696e-11
-1.77758e-11
-1.77821e-11
-1.77884e-11
-1.77948e-11
-1.78012e-11
-1.78077e-11
-1.78142e-11
-1.78209e-11
-1.78275e-11
-1.78343e-11
-1.78411e-11
-1.78481e-11
-1.7855e-11
-1.78621e-11
-1.78691e-11
-1.78763e-11
-1.78834e-11
-1.78905e-11
-1.78976e-11
-1.79045e-11
-1.79113e-11
-1.79179e-11
-1.79242e-11
-1.79304e-11
-1.79367e-11
-1.79431e-11
-1.795e-11
-1.79572e-11
-1.79648e-11
-1.79725e-11
-1.798e-11
-1.79872e-11
-1.79942e-11
-1.80013e-11
-1.80083e-11
-1.80156e-11
-1.8023e-11
-1.80309e-11
-1.80386e-11
-1.80462e-11
-1.80534e-11
-1.80604e-11
-1.80675e-11
-1.80744e-11
-1.80817e-11
-1.80891e-11
-1.80966e-11
-1.81036e-11
-1.81111e-11
-1.81177e-11
-1.81245e-11
-1.81318e-11
-1.81395e-11
-1.81469e-11
-1.81542e-11
-1.81622e-11
-1.81702e-11
-1.8178e-11
-1.81855e-11
-1.8193e-11
-1.82009e-11
-1.82087e-11
-1.82169e-11
-1.82247e-11
-1.82324e-11
-1.82399e-11
-1.82473e-11
-1.82546e-11
-1.82617e-11
-1.82694e-11
-1.82765e-11
-1.82844e-11
-1.82917e-11
-1.82987e-11
-1.8306e-11
-1.83134e-11
-1.83208e-11
-1.83281e-11
-1.83353e-11
-1.83429e-11
-1.83502e-11
-1.83572e-11
-1.83648e-11
-1.83719e-11
-1.83793e-11
-1.83865e-11
-1.83941e-11
-1.84013e-11
-1.84083e-11
-1.84153e-11
-1.84223e-11
-1.84293e-11
-1.84361e-11
-1.84428e-11
-1.84494e-11
-1.84561e-11
-1.84629e-11
-1.847e-11
-1.84769e-11
-1.84837e-11
-1.84904e-11
-1.84973e-11
-1.85041e-11
-1.8511e-11
-1.85181e-11
-1.8525e-11
-1.8532e-11
-1.8539e-11
-1.85461e-11
-1.85533e-11
-1.85604e-11
-1.85676e-11
-1.85749e-11
-1.85822e-11
-1.85897e-11
-1.85972e-11
-1.86047e-11
-1.86123e-11
-1.86198e-11
-1.86275e-11
-1.86352e-11
-1.86429e-11
-1.86506e-11
-1.86585e-11
-1.86664e-11
-1.86743e-11
-1.86822e-11
-1.86901e-11
-1.8698e-11