/*--------------------------------*- C++ -*----------------------------------*\
| =========                 |                                                 |
| \\      /  F ield         | OpenFOAM: The Open Source CFD Toolbox           |
|  \\    /   O peration     | Version:  2.4.0                                 |
|   \\  /    A nd           | Web:      www.OpenFOAM.org                      |
|    \\/     M anipulation  |                                                 |
\*---------------------------------------------------------------------------*/
FoamFile
{
    version     2.0;
    format      ascii;
    class       surfaceScalarField;
    location    "4.8";
    object      phi;
}
// * * * * * * * * * * * * * * * * * * * * * * * * * * * * * * * * * * * * * //

dimensions      [0 3 -1 0 0 0 0];

internalField   nonuniform List<scalar> 
15580
(
-2.32182e-13
-7.64106e-13
-7.8472e-13
-2.15905e-12
-1.58252e-12
-3.39955e-12
-2.58462e-12
-4.47635e-12
-3.7525e-12
-5.39179e-12
-5.04841e-12
-6.14776e-12
-6.43556e-12
-6.7463e-12
-7.87767e-12
-7.18606e-12
-9.34852e-12
-7.45833e-12
-1.08395e-11
-7.5516e-12
-1.82742e-11
-7.49944e-12
-8.48273e-11
-7.75199e-12
-8.63179e-11
-7.76716e-12
-6.74475e-10
-6.68464e-10
-1.49968e-09
-1.16972e-09
-2.43269e-09
-1.48953e-09
-3.39993e-09
-1.67902e-09
-4.36549e-09
-1.78602e-09
-5.31538e-09
-1.84527e-09
-6.24581e-09
-1.8787e-09
-7.15651e-09
-1.89883e-09
-8.04793e-09
-1.9122e-09
-8.92037e-09
-1.92196e-09
-9.77391e-09
-1.92952e-09
-1.06085e-08
-1.93544e-09
-1.14242e-08
-1.93993e-09
-1.22211e-08
-1.94306e-09
-1.2999e-08
-1.9449e-09
-1.37583e-08
-1.94547e-09
-1.4499e-08
-1.94482e-09
-1.52213e-08
-1.94299e-09
-1.59254e-08
-1.94004e-09
-1.66115e-08
-1.93602e-09
-1.72798e-08
-1.93096e-09
-1.79306e-08
-1.92491e-09
-1.85642e-08
-1.91792e-09
-1.91807e-08
-1.91003e-09
-1.97805e-08
-1.90129e-09
-2.03638e-08
-1.89172e-09
-2.0931e-08
-1.88136e-09
-2.14823e-08
-1.87026e-09
-2.20179e-08
-1.85843e-09
-2.25383e-08
-1.84592e-09
-2.30437e-08
-1.83276e-09
-2.35344e-08
-1.81899e-09
-2.40107e-08
-1.80462e-09
-2.44728e-08
-1.78971e-09
-2.49212e-08
-1.77428e-09
-2.53561e-08
-1.75837e-09
-1.74201e-09
-2.57778e-08
-2.06013e-13
-5.58093e-13
-8.2164e-13
-1.54343e-12
-1.81396e-12
-2.40723e-12
-3.13447e-12
-3.15585e-12
-4.7339e-12
-3.79236e-12
-6.56214e-12
-4.31952e-12
-8.56962e-12
-4.73882e-12
-1.06997e-11
-5.05594e-12
-1.28674e-11
-5.29067e-12
-1.49372e-11
-5.48182e-12
-1.00387e-10
-5.63432e-12
-1.31318e-10
-5.59464e-12
-4.45364e-11
-9.45491e-11
-1.95917e-10
-5.17083e-10
-5.68643e-10
-7.96997e-10
-1.07145e-09
-9.86723e-10
-1.64078e-09
-1.10969e-09
-2.24057e-09
-1.18622e-09
-2.85314e-09
-1.2327e-09
-3.47064e-09
-1.26121e-09
-4.08964e-09
-1.27983e-09
-4.70845e-09
-1.29339e-09
-5.32596e-09
-1.30445e-09
-5.94128e-09
-1.3142e-09
-6.55363e-09
-1.32309e-09
-7.16232e-09
-1.33124e-09
-7.76671e-09
-1.33867e-09
-8.36626e-09
-1.34535e-09
-8.96046e-09
-1.35126e-09
-9.54888e-09
-1.3564e-09
-1.01311e-08
-1.36076e-09
-1.07068e-08
-1.36434e-09
-1.12757e-08
-1.36716e-09
-1.18374e-08
-1.36922e-09
-1.23918e-08
-1.37054e-09
-1.29386e-08
-1.37112e-09
-1.34776e-08
-1.37099e-09
-1.40087e-08
-1.37017e-09
-1.45318e-08
-1.36866e-09
-1.50467e-08
-1.36649e-09
-1.55532e-08
-1.36367e-09
-1.60514e-08
-1.36023e-09
-1.65412e-08
-1.35617e-09
-1.70224e-08
-1.35153e-09
-1.74951e-08
-1.34631e-09
-1.79592e-08
-1.34055e-09
-1.84146e-08
-1.33425e-09
-1.88615e-08
-1.32746e-09
-1.92997e-08
-1.32017e-09
-1.31242e-09
-1.97293e-08
-5.02865e-13
-5.52283e-14
-1.95405e-12
-9.22405e-14
-4.27469e-12
-8.65876e-14
-7.37196e-12
-5.85756e-14
-1.11594e-11
-4.89562e-15
-1.55399e-11
6.10022e-14
-2.04214e-11
1.42626e-13
-2.56936e-11
2.16216e-13
-3.12802e-11
2.95958e-13
-4.10162e-11
4.10814e-13
-1.25021e-10
4.52377e-14
-1.30966e-10
3.51234e-13
-1.0763e-10
-1.17886e-10
-2.87335e-10
-3.37378e-10
-5.87041e-10
-4.97291e-10
-9.68882e-10
-6.04883e-10
-1.40413e-09
-6.74438e-10
-1.87135e-09
-7.19008e-10
-2.35543e-09
-7.48616e-10
-2.84669e-09
-7.69955e-10
-3.33944e-09
-7.8707e-10
-3.83071e-09
-8.02122e-10
-4.31909e-09
-8.16071e-10
-4.80405e-09
-8.29248e-10
-5.28541e-09
-8.41734e-10
-5.7631e-09
-8.53546e-10
-6.23708e-09
-8.6469e-10
-6.70726e-09
-8.75168e-10
-7.17355e-09
-8.84974e-10
-7.63586e-09
-8.94096e-10
-8.0941e-09
-9.0252e-10
-8.5482e-09
-9.1024e-10
-8.99811e-09
-9.17253e-10
-9.44377e-09
-9.23561e-10
-9.88513e-09
-9.2917e-10
-1.03222e-08
-9.34088e-10
-1.07548e-08
-9.38327e-10
-1.11831e-08
-9.41901e-10
-1.16069e-08
-9.44826e-10
-1.20263e-08
-9.47121e-10
-1.24412e-08
-9.48803e-10
-1.28515e-08
-9.49893e-10
-1.32573e-08
-9.5041e-10
-1.36584e-08
-9.50373e-10
-1.40549e-08
-9.49803e-10
-1.44468e-08
-9.48717e-10
-1.48339e-08
-9.47135e-10
-1.52163e-08
-9.45074e-10
-1.55939e-08
-9.42552e-10
-9.39585e-10
-1.59667e-08
-6.89423e-13
6.34194e-13
-2.4971e-12
1.71544e-12
-5.25094e-12
2.66725e-12
-8.82066e-12
3.51114e-12
-1.30748e-11
4.24925e-12
-1.78808e-11
4.86703e-12
-2.31232e-11
5.38502e-12
-2.86974e-11
5.79037e-12
-3.52518e-11
6.00145e-12
-1.50517e-10
5.32786e-12
-1.56087e-10
5.61574e-12
-1.45753e-10
-9.98286e-12
-1.74697e-10
-8.89416e-11
-3.58707e-10
-1.53368e-10
-6.48648e-10
-2.0735e-10
-1.00282e-09
-2.50713e-10
-1.39273e-09
-2.84527e-10
-1.80009e-09
-3.1165e-10
-2.21415e-09
-3.34555e-10
-2.62916e-09
-3.5494e-10
-3.04221e-09
-3.74028e-10
-3.4519e-09
-3.92428e-10
-3.85819e-09
-4.09784e-10
-4.26162e-09
-4.25815e-10
-4.66275e-09
-4.40606e-10
-5.06187e-09
-4.54422e-10
-5.45903e-09
-4.67532e-10
-5.85406e-09
-4.80136e-10
-6.24671e-09
-4.92321e-10
-6.63673e-09
-5.04077e-10
-7.02391e-09
-5.15345e-10
-7.40809e-09
-5.26062e-10
-7.78915e-09
-5.36188e-10
-8.16702e-09
-5.45695e-10
-8.54162e-09
-5.54567e-10
-8.91292e-09
-5.62793e-10
-9.28087e-09
-5.70369e-10
-9.64547e-09
-5.77301e-10
-1.00067e-08
-5.83599e-10
-1.03645e-08
-5.89275e-10
-1.0719e-08
-5.94347e-10
-1.10701e-08
-5.98832e-10
-1.14177e-08
-6.02748e-10
-1.1762e-08
-6.06115e-10
-1.21028e-08
-6.08949e-10
-1.24403e-08
-6.1127e-10
-1.27743e-08
-6.13093e-10
-1.3105e-08
-6.14435e-10
-1.34322e-08
-6.15313e-10
-6.15741e-10
-1.3756e-08
-8.51799e-13
1.48599e-12
-3.52037e-12
4.38401e-12
-7.98517e-12
7.13205e-12
-1.4212e-11
9.73796e-12
-2.21689e-11
1.22061e-11
-3.18947e-11
1.45929e-11
-4.33758e-11
1.68661e-11
-5.75085e-11
1.90497e-11
-2.13296e-10
1.91833e-11
-2.28184e-10
2.02164e-11
-2.40558e-10
1.79898e-11
-2.11174e-10
-3.93674e-11
-2.47634e-10
-5.24811e-11
-4.25756e-10
2.47536e-11
-7.77921e-10
1.44815e-10
-1.21988e-09
1.91244e-10
-1.67003e-09
1.65623e-10
-2.09315e-09
1.11469e-10
-2.47587e-09
4.81642e-11
-2.81624e-09
-1.45623e-11
-3.12086e-09
-6.94121e-11
-3.39849e-09
-1.14797e-10
-3.65981e-09
-1.48464e-10
-3.91331e-09
-1.72317e-10
-4.164e-09
-1.89917e-10
-4.41431e-09
-2.04113e-10
-4.66525e-09
-2.1659e-10
-4.91723e-09
-2.28154e-10
-5.17042e-09
-2.39135e-10
-5.42487e-09
-2.49625e-10
-5.6806e-09
-2.59611e-10
-5.93765e-09
-2.6901e-10
-6.1961e-09
-2.77739e-10
-6.45606e-09
-2.85733e-10
-6.71767e-09
-2.92962e-10
-6.98102e-09
-2.99438e-10
-7.24618e-09
-3.05213e-10
-7.51312e-09
-3.10359e-10
-7.78177e-09
-3.14947e-10
-8.052e-09
-3.19044e-10
-8.32365e-09
-3.22705e-10
-8.59651e-09
-3.25972e-10
-8.87038e-09
-3.28878e-10
-9.14505e-09
-3.31445e-10
-9.42031e-09
-3.3369e-10
-9.69595e-09
-3.35626e-10
-9.97178e-09
-3.37259e-10
-1.02476e-08
-3.38596e-10
-1.05233e-08
-3.39638e-10
-3.40389e-10
-1.07986e-08
-1.96457e-13
1.68245e-12
-4.55956e-13
4.64351e-12
-7.65235e-13
7.44133e-12
-1.28235e-12
1.02551e-11
-2.17663e-12
1.31004e-11
-3.64355e-12
1.60598e-11
-5.88518e-12
1.91077e-11
-1.14398e-11
2.23664e-11
-1.26768e-10
3.10246e-11
-1.33419e-10
2.62884e-11
3.46991e-12
-1.18899e-10
-1.79259e-10
1.43362e-10
-1.51332e-10
-8.04089e-11
-2.403e-10
1.13722e-10
-3.35156e-10
2.39671e-10
-4.67923e-10
3.24012e-10
-6.51691e-10
3.49391e-10
-8.36197e-10
2.95975e-10
-9.83599e-10
1.95566e-10
-1.17372e-09
1.75561e-10
-1.42893e-09
1.85798e-10
-1.74664e-09
2.02909e-10
-2.10344e-09
2.08336e-10
-2.47197e-09
1.96217e-10
-2.83176e-09
1.69869e-10
-3.16927e-09
1.33398e-10
-3.47695e-09
9.10868e-11
-3.75443e-09
4.93338e-11
-4.00779e-09
1.42174e-11
-4.2428e-09
-1.46126e-11
-4.46352e-09
-3.88887e-11
-4.67356e-09
-5.89725e-11
-4.87551e-09
-7.57926e-11
-5.07199e-09
-8.92542e-11
-5.2656e-09
-9.93466e-11
-5.45863e-09
-1.06414e-10
-5.65283e-09
-1.11005e-10
-5.84949e-09
-1.137e-10
-6.04944e-09
-1.14999e-10
-6.25318e-09
-1.15306e-10
-6.46094e-09
-1.14946e-10
-6.67274e-09
-1.14169e-10
-6.88846e-09
-1.13156e-10
-7.10788e-09
-1.12027e-10
-7.33072e-09
-1.1085e-10
-7.55669e-09
-1.09662e-10
-7.78547e-09
-1.08477e-10
-8.01677e-09
-1.07296e-10
-8.25029e-09
-1.06115e-10
-1.0492e-10
-8.48576e-09
2.81187e-12
-1.12942e-12
1.02147e-11
-2.75934e-12
2.15885e-11
-3.93243e-12
3.65684e-11
-4.72487e-12
5.482e-11
-5.15113e-12
7.60719e-11
-5.19214e-12
1.00049e-10
-4.86907e-12
1.26569e-10
-4.15435e-12
1.49457e-10
-4.54177e-12
1.08129e-10
-4.77863e-12
-5.4044e-11
-6.13257e-12
9.55681e-11
-8.76339e-12
-9.26007e-11
1.07662e-10
2.24159e-11
-1.32296e-12
6.50344e-11
1.97052e-10
1.39766e-10
2.4928e-10
1.28925e-10
3.60232e-10
3.70929e-10
5.39709e-11
5.85826e-10
-1.93317e-11
6.8996e-10
7.14274e-11
7.0719e-10
1.68568e-10
6.56276e-10
2.53823e-10
5.65274e-10
2.99338e-10
4.47385e-10
3.14106e-10
3.51115e-10
2.6614e-10
3.00565e-10
1.83948e-10
2.31752e-10
1.599e-10
1.29281e-10
1.51805e-10
-3.95676e-12
1.47455e-10
-1.58065e-10
1.39496e-10
-3.22174e-10
1.25221e-10
-4.86788e-10
1.05641e-10
-6.55788e-10
9.32078e-11
-8.35458e-10
9.04152e-11
-1.03005e-09
9.52463e-11
-1.24058e-09
1.04111e-10
-1.46508e-09
1.13499e-10
-1.70063e-09
1.21853e-10
-1.94439e-09
1.28763e-10
-2.19378e-09
1.34083e-10
-2.44667e-09
1.37939e-10
-2.70131e-09
1.40471e-10
-2.95629e-09
1.41825e-10
-3.21043e-09
1.4211e-10
-3.46276e-09
1.41484e-10
-3.71259e-09
1.40173e-10
-3.95965e-09
1.38582e-10
-4.2041e-09
1.37153e-10
-4.44654e-09
1.36327e-10
1.36405e-10
-4.68787e-09
1.47247e-12
-2.60189e-12
5.95033e-12
-7.2372e-12
1.33165e-11
-1.12987e-11
2.33937e-11
-1.48021e-11
3.6025e-11
-1.77824e-11
5.10867e-11
-2.02538e-11
6.84662e-11
-2.22486e-11
8.80738e-11
-2.3762e-11
1.08358e-10
-2.48263e-11
1.28941e-10
-2.53611e-11
1.48093e-10
-2.52831e-11
1.63657e-10
-2.43024e-11
1.89552e-10
-2.34947e-11
1.81914e-10
-2.20371e-11
3.91946e-10
-2.16332e-11
6.55962e-10
-2.04554e-11
1.03149e-09
-1.82934e-11
1.03959e-09
4.57567e-11
1.01372e-09
6.5271e-12
1.03168e-09
5.34666e-11
1.07566e-09
1.24592e-10
1.13209e-09
1.97389e-10
1.1537e-09
2.77728e-10
1.30617e-09
1.61632e-10
1.60832e-09
-3.60112e-11
1.7911e-09
1.17074e-12
1.88077e-09
7.0232e-11
1.89751e-09
1.35064e-10
1.87041e-09
1.74557e-10
1.82905e-09
1.80853e-10
1.80576e-09
1.4851e-10
1.80372e-09
1.07684e-10
1.78108e-09
1.15848e-10
1.72413e-09
1.47362e-10
1.63646e-09
1.82916e-10
1.53257e-09
2.08e-10
1.42898e-09
2.17096e-10
1.32937e-09
2.21462e-10
1.22856e-09
2.29571e-10
1.11531e-09
2.4733e-10
9.79405e-10
2.73845e-10
8.14033e-10
3.05843e-10
6.19945e-10
3.35913e-10
4.03908e-10
3.58147e-10
1.7296e-10
3.72432e-10
-6.81404e-11
3.81273e-10
-3.18816e-10
3.89258e-10
-5.78549e-10
3.96886e-10
-8.48165e-10
4.05943e-10
4.12867e-10
-1.12463e-09
3.13721e-13
-2.91561e-12
1.26724e-12
-8.19072e-12
2.90832e-12
-1.29397e-11
5.29491e-12
-1.71886e-11
8.46569e-12
-2.09532e-11
1.24576e-11
-2.42457e-11
1.72874e-11
-2.70784e-11
2.29847e-11
-2.94592e-11
2.95554e-11
-3.1397e-11
3.70883e-11
-3.28941e-11
4.5759e-11
-3.39538e-11
5.6026e-11
-3.45694e-11
6.72954e-11
-3.47642e-11
7.98354e-11
-3.45771e-11
9.20695e-11
-3.38673e-11
1.0398e-10
-3.23627e-11
1.15164e-10
-2.94896e-11
1.47466e-10
-2.65097e-11
1.67998e-10
-2.25439e-11
2.31328e-10
-1.97613e-11
3.6791e-10
-1.62955e-11
5.75097e-10
-1.21436e-11
8.58853e-10
-6.85875e-12
9.90663e-10
2.97781e-11
9.55983e-10
-1.35494e-12
9.24179e-10
3.29746e-11
8.93426e-10
1.00985e-10
8.79772e-10
1.48719e-10
8.76594e-10
1.77735e-10
9.56271e-10
1.01176e-10
1.11496e-09
-1.01798e-11
1.20995e-09
1.26929e-11
1.25223e-09
7.35746e-11
1.26605e-09
1.33538e-10
1.29656e-09
1.52407e-10
1.37653e-09
1.28024e-10
1.50368e-09
8.99495e-11
1.64525e-09
7.9889e-11
1.78929e-09
8.55352e-11
1.93422e-09
1.02403e-10
2.07317e-09
1.34888e-10
2.20449e-09
1.74523e-10
2.32988e-09
2.10529e-10
2.45515e-09
2.32874e-10
2.57534e-09
2.52243e-10
2.65295e-09
3.03663e-10
2.65285e-09
3.89354e-10
2.58009e-09
4.69654e-10
2.44578e-09
5.40245e-10
5.87473e-10
2.27118e-09
-1.03383e-13
-2.81223e-12
-2.85381e-13
-8.00872e-12
-4.50907e-13
-1.27742e-11
-5.28063e-13
-1.71115e-11
-4.53478e-13
-2.10278e-11
-1.70764e-13
-2.45284e-11
3.70402e-13
-2.76196e-11
1.21671e-12
-3.03055e-11
2.41175e-12
-3.25921e-11
4.00017e-12
-3.44825e-11
6.02864e-12
-3.59823e-11
8.55276e-12
-3.70935e-11
1.16104e-11
-3.78218e-11
1.5202e-11
-3.81687e-11
1.94714e-11
-3.81367e-11
2.48326e-11
-3.77239e-11
3.22861e-11
-3.69431e-11
4.1595e-11
-3.58185e-11
5.34656e-11
-3.44145e-11
6.63079e-11
-3.26039e-11
8.03449e-11
-3.03333e-11
9.55228e-11
-2.73234e-11
1.11964e-10
-2.32901e-11
1.35112e-10
-1.93606e-11
1.45999e-10
-1.43348e-11
1.83521e-10
-1.01424e-11
2.88714e-10
-4.96561e-12
4.34703e-10
2.60336e-12
6.03134e-10
9.26403e-12
6.84406e-10
1.99042e-11
6.82675e-10
-8.44888e-12
6.59614e-10
3.57534e-11
6.51365e-10
8.18237e-11
6.86758e-10
9.81457e-11
7.8712e-10
5.20448e-11
9.15713e-10
-5.68406e-13
9.8598e-10
1.96817e-11
1.03172e-09
3.41467e-11
1.09511e-09
2.21464e-11
1.1822e-09
1.53155e-11
1.29751e-09
1.95777e-11
1.4592e-09
1.283e-11
1.67382e-09
-4.09064e-12
1.90392e-09
2.77547e-12
2.12176e-09
3.44074e-11
2.36139e-09
6.40332e-11
2.59918e-09
1.51559e-10
2.8036e-09
2.65235e-10
3.01201e-09
3.31836e-10
3.76641e-10
3.22284e-09
-3.91224e-13
-2.421e-12
-1.47769e-12
-6.92225e-12
-3.15759e-12
-1.10943e-11
-5.32476e-12
-1.49443e-11
-7.87787e-12
-1.84747e-11
-1.0719e-11
-2.16873e-11
-1.37541e-11
-2.45844e-11
-1.68917e-11
-2.71679e-11
-2.00436e-11
-2.94402e-11
-2.31227e-11
-3.14033e-11
-2.60453e-11
-3.30598e-11
-2.87271e-11
-3.44117e-11
-3.10873e-11
-3.54617e-11
-3.30442e-11
-3.62118e-11
-3.45161e-11
-3.66648e-11
-3.54171e-11
-3.68229e-11
-3.5669e-11
-3.66912e-11
-3.52157e-11
-3.62719e-11
-3.40584e-11
-3.55718e-11
-3.20699e-11
-3.45924e-11
-2.90615e-11
-3.33417e-11
-2.4555e-11
-3.18299e-11
-1.7774e-11
-3.00711e-11
-9.05796e-12
-2.80767e-11
2.49554e-12
-2.58883e-11
1.57315e-11
-2.33785e-11
3.12643e-11
-2.04988e-11
5.04976e-11
-1.74337e-11
6.81005e-11
-1.41438e-11
8.78215e-11
-1.1218e-11
8.62121e-11
-7.51441e-12
1.25393e-10
-3.66568e-12
2.05347e-10
1.82699e-12
2.94883e-10
8.61007e-12
3.40552e-10
6.37576e-12
3.49951e-10
-9.96743e-12
3.46971e-10
2.26614e-11
3.66575e-10
1.45424e-11
3.9296e-10
-4.23852e-12
4.22852e-10
-1.45764e-11
4.68419e-10
-2.59889e-11
5.14209e-10
-3.29601e-11
5.38336e-10
-2.82173e-11
5.44577e-10
-3.46551e-12
5.62697e-10
1.62874e-11
6.09884e-10
1.68453e-11
7.43508e-10
1.79355e-11
9.84214e-10
2.45287e-11
1.2779e-09
3.81498e-11
5.9865e-11
1.59468e-09
-5.30565e-13
-1.89044e-12
-1.97892e-12
-5.47389e-12
-4.22744e-12
-8.84578e-12
-7.17314e-12
-1.19986e-11
-1.07164e-11
-1.49314e-11
-1.47603e-11
-1.76434e-11
-1.92107e-11
-2.01341e-11
-2.39752e-11
-2.24034e-11
-2.89637e-11
-2.44517e-11
-3.40876e-11
-2.62794e-11
-3.92599e-11
-2.78875e-11
-4.43946e-11
-2.9277e-11
-4.94068e-11
-3.04495e-11
-5.42121e-11
-3.14064e-11
-5.87268e-11
-3.21501e-11
-6.28674e-11
-3.26823e-11
-6.65522e-11
-3.30063e-11
-6.97012e-11
-3.31229e-11
-7.22369e-11
-3.30361e-11
-7.40817e-11
-3.27475e-11
-7.51689e-11
-3.22546e-11
-7.53948e-11
-3.16039e-11
-7.46943e-11
-3.07717e-11
-7.3006e-11
-2.97649e-11
-7.03005e-11
-2.85939e-11
-6.64199e-11
-2.7259e-11
-6.11452e-11
-2.57734e-11
-5.4438e-11
-2.41409e-11
-4.62011e-11
-2.23807e-11
-3.69433e-11
-2.04758e-11
-2.60637e-11
-1.8394e-11
-1.36292e-11
-1.60982e-11
1.48558e-12
-1.37548e-11
1.33816e-11
-1.17073e-11
2.91078e-11
-9.73739e-12
2.60876e-11
-7.11858e-12
5.11887e-11
-2.48081e-12
7.1976e-11
-6.24489e-12
8.03457e-11
-1.26083e-11
7.8877e-11
-1.31077e-11
6.92032e-11
-1.63151e-11
5.34188e-11
-1.71757e-11
4.17716e-11
-1.65701e-11
5.42694e-11
-1.59633e-11
8.48359e-11
-1.42791e-11
1.13448e-10
-1.17666e-11
1.41248e-10
-9.86422e-12
1.73906e-10
-8.12934e-12
2.16069e-10
-4.01379e-12
1.74364e-12
2.74191e-10
-4.25239e-13
-1.4652e-12
-1.6464e-12
-4.25273e-12
-3.59499e-12
-6.89719e-12
-6.19599e-12
-9.39763e-12
-9.37469e-12
-1.17527e-11
-1.30567e-11
-1.39614e-11
-1.71682e-11
-1.60226e-11
-2.16356e-11
-1.7936e-11
-2.63861e-11
-1.97011e-11
-3.13475e-11
-2.1318e-11
-3.64483e-11
-2.27867e-11
-4.16174e-11
-2.41079e-11
-4.67848e-11
-2.52821e-11
-5.18809e-11
-2.63104e-11
-5.68372e-11
-2.71938e-11
-6.15854e-11
-2.79341e-11
-6.60591e-11
-2.85326e-11
-7.01913e-11
-2.89907e-11
-7.39165e-11
-2.93109e-11
-7.71686e-11
-2.94953e-11
-7.98739e-11
-2.95493e-11
-8.19951e-11
-2.94828e-11
-8.34736e-11
-2.92931e-11
-8.42567e-11
-2.89818e-11
-8.42985e-11
-2.85521e-11
-8.35498e-11
-2.80077e-11
-8.1971e-11
-2.73523e-11
-7.95208e-11
-2.65911e-11
-7.61743e-11
-2.57271e-11
-7.18855e-11
-2.47646e-11
-6.65718e-11
-2.37078e-11
-6.01094e-11
-2.25605e-11
-5.25337e-11
-2.13305e-11
-4.4225e-11
-2.00161e-11
-3.53732e-11
-1.85892e-11
-2.54457e-11
-1.70469e-11
-1.18449e-11
-1.61027e-11
-6.7801e-12
-1.51442e-11
-5.9328e-12
-1.36248e-11
-5.02329e-12
-1.40673e-11
-6.09421e-12
-1.52441e-11
-7.4795e-12
-1.57904e-11
-8.37944e-12
-1.56702e-11
-9.31219e-12
-1.50306e-11
-9.44232e-12
-1.41489e-11
-7.41213e-12
-1.37968e-11
-3.3594e-12
-1.39169e-11
2.02259e-12
-1.35113e-11
1.00779e-11
-1.20691e-11
-1.01862e-11
2.20078e-11
-4.05427e-13
-1.05977e-12
-1.56564e-12
-3.09252e-12
-3.42052e-12
-5.04231e-12
-5.90843e-12
-6.90972e-12
-8.96845e-12
-8.69271e-12
-1.25403e-11
-1.03895e-11
-1.65646e-11
-1.19984e-11
-2.09823e-11
-1.35182e-11
-2.57355e-11
-1.49479e-11
-3.07668e-11
-1.62867e-11
-3.60196e-11
-1.75339e-11
-4.14381e-11
-1.86894e-11
-4.69671e-11
-1.97531e-11
-5.25522e-11
-2.07253e-11
-5.81395e-11
-2.16064e-11
-6.36766e-11
-2.23971e-11
-6.91105e-11
-2.30986e-11
-7.43888e-11
-2.37124e-11
-7.94599e-11
-2.42398e-11
-8.42723e-11
-2.46829e-11
-8.87794e-11
-2.50422e-11
-9.29429e-11
-2.53192e-11
-9.67284e-11
-2.55076e-11
-1.001e-10
-2.56107e-11
-1.0302e-10
-2.56313e-11
-1.05456e-10
-2.55716e-11
-1.07374e-10
-2.5435e-11
-1.0874e-10
-2.52247e-11
-1.09524e-10
-2.49431e-11
-1.09696e-10
-2.45926e-11
-1.09228e-10
-2.41761e-11
-1.08092e-10
-2.36965e-11
-1.06266e-10
-2.31564e-11
-1.03723e-10
-2.25587e-11
-1.00406e-10
-2.19061e-11
-9.62511e-11
-2.12022e-11
-9.1905e-11
-2.04488e-11
-8.74407e-11
-1.96085e-11
-8.20921e-11
-1.89734e-11
-7.89947e-11
-1.83955e-11
-7.76062e-11
-1.80227e-11
-7.63097e-11
-1.71929e-11
-7.53212e-11
-1.66938e-11
-7.35489e-11
-1.68039e-11
-7.08567e-11
-1.68411e-11
-6.8e-11
-1.66535e-11
-6.53071e-11
-1.66099e-11
-6.21931e-11
-1.66253e-11
-5.77474e-11
-1.65149e-11
-1.61434e-11
-5.17902e-11
-3.81931e-13
-6.77842e-13
-1.4406e-12
-2.03386e-12
-3.11252e-12
-3.37038e-12
-5.34663e-12
-4.67562e-12
-8.09356e-12
-5.94578e-12
-1.13055e-11
-7.17749e-12
-1.49363e-11
-8.36767e-12
-1.89409e-11
-9.51364e-12
-2.32758e-11
-1.0613e-11
-2.78986e-11
-1.16638e-11
-3.27683e-11
-1.26643e-11
-3.78446e-11
-1.3613e-11
-4.30888e-11
-1.45089e-11
-4.84628e-11
-1.53513e-11
-5.39298e-11
-1.61395e-11
-5.94537e-11
-1.68732e-11
-6.50001e-11
-1.75522e-11
-7.05341e-11
-1.81784e-11
-7.60219e-11
-1.87519e-11
-8.14308e-11
-1.92741e-11
-8.67218e-11
-1.97512e-11
-9.18792e-11
-2.01618e-11
-9.68744e-11
-2.05125e-11
-1.01677e-10
-2.08085e-11
-1.06256e-10
-2.10521e-11
-1.10583e-10
-2.12449e-11
-1.14629e-10
-2.13889e-11
-1.18366e-10
-2.14875e-11
-1.21766e-10
-2.15431e-11
-1.24799e-10
-2.1559e-11
-1.27438e-10
-2.15379e-11
-1.29651e-10
-2.14831e-11
-1.31409e-10
-2.13981e-11
-1.32682e-10
-2.12866e-11
-1.33435e-10
-2.11525e-11
-1.33637e-10
-2.09998e-11
-1.33253e-10
-2.08328e-11
-1.32206e-10
-2.06563e-11
-1.30704e-10
-2.04746e-11
-1.28811e-10
-2.02893e-11
-1.26765e-10
-2.00684e-11
-1.24046e-10
-1.99252e-11
-1.21281e-10
-1.9863e-11
-1.19024e-10
-1.99242e-11
-1.16061e-10
-1.98757e-11
-1.12351e-10
-2.03885e-11
-1.08132e-10
-2.08288e-11
-1.03489e-10
-2.12681e-11
-9.83418e-11
-2.16622e-11
-2.20077e-11
-9.24775e-11
-1.52393e-13
-5.25449e-13
-6.30224e-13
-1.55603e-12
-1.42451e-12
-2.57609e-12
-2.51195e-12
-3.58818e-12
-3.8692e-12
-4.58853e-12
-5.47296e-12
-5.57373e-12
-7.29997e-12
-6.54065e-12
-9.32714e-12
-7.48647e-12
-1.15316e-11
-8.4086e-12
-1.38906e-11
-9.30473e-12
-1.63821e-11
-1.01728e-11
-1.89841e-11
-1.1011e-11
-2.16752e-11
-1.18179e-11
-2.44345e-11
-1.2592e-11
-2.72416e-11
-1.33323e-11
-3.00764e-11
-1.40384e-11
-3.29202e-11
-1.47084e-11
-3.57557e-11
-1.53429e-11
-3.8566e-11
-1.59417e-11
-4.13349e-11
-1.65052e-11
-4.40545e-11
-1.70315e-11
-4.67024e-11
-1.75139e-11
-4.92549e-11
-1.796e-11
-5.16896e-11
-1.83738e-11
-5.39864e-11
-1.87554e-11
-5.61265e-11
-1.91047e-11
-5.80906e-11
-1.94248e-11
-5.98596e-11
-1.97185e-11
-6.14161e-11
-1.99866e-11
-6.27432e-11
-2.02319e-11
-6.38235e-11
-2.04575e-11
-6.46399e-11
-2.06666e-11
-6.51755e-11
-2.08625e-11
-6.54129e-11
-2.10491e-11
-6.53351e-11
-2.12304e-11
-6.49242e-11
-2.14107e-11
-6.4162e-11
-2.1595e-11
-6.303e-11
-2.17884e-11
-6.15082e-11
-2.19964e-11
-5.95726e-11
-2.22249e-11
-5.71614e-11
-2.24796e-11
-5.43197e-11
-2.27668e-11
-5.10894e-11
-2.30933e-11
-4.75597e-11
-2.34539e-11
-4.35123e-11
-2.39279e-11
-3.96439e-11
-2.44522e-11
-3.57938e-11
-2.51055e-11
-3.12712e-11
-2.57906e-11
-2.64429e-11
-2.64906e-11
-2.71618e-11
-2.12888e-11
-4.86568e-14
-4.76792e-13
-1.43473e-13
-1.46121e-12
-2.65107e-13
-2.45445e-12
-4.09372e-13
-3.44392e-12
-5.71661e-13
-4.42624e-12
-7.46991e-13
-5.3984e-12
-9.30054e-13
-6.35759e-12
-1.11529e-12
-7.30124e-12
-1.29691e-12
-8.22697e-12
-1.469e-12
-9.13265e-12
-1.62549e-12
-1.00163e-11
-1.76032e-12
-1.08762e-11
-1.86737e-12
-1.17108e-11
-1.94063e-12
-1.25187e-11
-1.97414e-12
-1.32988e-11
-1.96253e-12
-1.405e-11
-1.89962e-12
-1.47713e-11
-1.78047e-12
-1.5462e-11
-1.60035e-12
-1.61218e-11
-1.35494e-12
-1.67507e-11
-1.039e-12
-1.73474e-11
-6.38135e-13
-1.79148e-11
-1.42842e-13
-1.84553e-11
4.42688e-13
-1.89594e-11
1.11825e-12
-1.94309e-11
1.88675e-12
-1.98732e-11
2.74943e-12
-2.02875e-11
3.70536e-12
-2.06745e-11
4.75463e-12
-2.10359e-11
5.89648e-12
-2.13737e-11
7.1284e-12
-2.16895e-11
8.44728e-12
-2.19855e-11
9.84876e-12
-2.2264e-11
1.13274e-11
-2.25277e-11
1.28763e-11
-2.27793e-11
1.44875e-11
-2.3022e-11
1.61514e-11
-2.32588e-11
1.78567e-11
-2.34936e-11
1.95917e-11
-2.37314e-11
2.13428e-11
-2.39759e-11
2.30941e-11
-2.4231e-11
2.48267e-11
-2.44994e-11
2.65198e-11
-2.47863e-11
2.81634e-11
-2.50976e-11
2.96756e-11
-2.544e-11
3.08518e-11
-2.5823e-11
3.1815e-11
-2.62693e-11
3.28166e-11
-2.67922e-11
3.37717e-11
-2.74457e-11
-2.82675e-11
3.48774e-11
1.9119e-13
-6.67983e-13
6.9481e-13
-1.96483e-12
1.47584e-12
-3.23549e-12
2.51692e-12
-4.48499e-12
3.80214e-12
-5.71146e-12
5.31707e-12
-6.91333e-12
7.04859e-12
-8.08911e-12
8.98474e-12
-9.23738e-12
1.11146e-11
-1.03568e-11
1.3428e-11
-1.14461e-11
1.59157e-11
-1.2504e-11
1.8569e-11
-1.35295e-11
2.13797e-11
-1.45215e-11
2.434e-11
-1.5479e-11
2.74424e-11
-1.64012e-11
3.06797e-11
-1.72873e-11
3.40449e-11
-1.81365e-11
3.7531e-11
-1.89482e-11
4.11309e-11
-1.97217e-11
4.4837e-11
-2.04568e-11
4.86428e-11
-2.11532e-11
5.25387e-11
-2.18107e-11
5.65112e-11
-2.24278e-11
6.05558e-11
-2.30039e-11
6.46606e-11
-2.35357e-11
6.88158e-11
-2.40285e-11
7.30089e-11
-2.44806e-11
7.72269e-11
-2.48924e-11
8.14547e-11
-2.52637e-11
8.56756e-11
-2.55946e-11
8.98716e-11
-2.58855e-11
9.40229e-11
-2.61368e-11
9.81077e-11
-2.63488e-11
1.02102e-10
-2.65216e-11
1.05978e-10
-2.66557e-11
1.09708e-10
-2.67516e-11
1.13258e-10
-2.68096e-11
1.16595e-10
-2.68302e-11
1.19676e-10
-2.68123e-11
1.2247e-10
-2.67705e-11
1.24929e-10
-2.66892e-11
1.27001e-10
-2.65719e-11
1.28553e-10
-2.63387e-11
1.29548e-10
-2.60921e-11
1.2952e-10
-2.57833e-11
1.27324e-10
-2.5493e-11
1.26458e-10
-2.54037e-11
1.24964e-10
-2.5298e-11
1.23049e-10
-2.55309e-11
-2.63033e-11
1.21085e-10
2.08027e-13
-8.76009e-13
8.45429e-13
-2.60223e-12
1.90124e-12
-4.2913e-12
3.3532e-12
-5.93695e-12
5.18016e-12
-7.53842e-12
7.36216e-12
-9.09533e-12
9.88028e-12
-1.06072e-11
1.27165e-11
-1.20736e-11
1.58538e-11
-1.34941e-11
1.92756e-11
-1.48679e-11
2.2966e-11
-1.61945e-11
2.69098e-11
-1.74733e-11
3.1092e-11
-1.87037e-11
3.54979e-11
-1.98849e-11
4.01129e-11
-2.10163e-11
4.49228e-11
-2.20972e-11
4.99132e-11
-2.31268e-11
5.50695e-11
-2.41045e-11
6.0377e-11
-2.50293e-11
6.58207e-11
-2.59004e-11
7.13846e-11
-2.67171e-11
7.70525e-11
-2.74786e-11
8.28084e-11
-2.81837e-11
8.86359e-11
-2.88314e-11
9.45213e-11
-2.94212e-11
1.00445e-10
-2.99517e-11
1.06387e-10
-3.04226e-11
1.12325e-10
-3.08308e-11
1.18238e-10
-3.1177e-11
1.24102e-10
-3.14588e-11
1.29892e-10
-3.16749e-11
1.35578e-10
-3.1823e-11
1.41131e-10
-3.19017e-11
1.46517e-10
-3.1908e-11
1.51702e-10
-3.18403e-11
1.56646e-10
-3.16953e-11
1.61306e-10
-3.14706e-11
1.65638e-10
-3.11617e-11
1.69593e-10
-3.07676e-11
1.73115e-10
-3.02918e-11
1.76086e-10
-2.9661e-11
1.78447e-10
-2.89322e-11
1.79995e-10
-2.81715e-11
1.79734e-10
-2.66387e-11
1.76455e-10
-2.53824e-11
1.73983e-10
-2.30207e-11
1.63468e-10
-1.48892e-11
1.62179e-10
-2.40085e-11
1.69196e-10
-3.25481e-11
-3.07576e-11
1.7365e-10
2.65661e-13
1.01126e-12
2.20872e-12
3.84099e-12
5.89089e-12
8.34152e-12
1.11763e-11
1.43789e-11
1.79332e-11
2.18232e-11
2.60332e-11
3.05475e-11
3.53508e-11
4.04275e-11
4.57624e-11
5.13404e-11
5.71461e-11
6.31644e-11
6.93802e-11
7.57782e-11
8.2343e-11
8.90589e-11
9.59105e-11
1.02882e-10
1.09957e-10
1.17118e-10
1.24348e-10
1.3163e-10
1.38945e-10
1.46274e-10
1.53597e-10
1.60895e-10
1.68146e-10
1.75328e-10
1.8242e-10
1.89396e-10
1.96234e-10
2.02912e-10
2.09368e-10
2.15554e-10
2.21586e-10
2.25695e-10
2.21045e-10
2.22514e-10
1.93974e-10
1.99222e-10
2.03269e-10
1.92001e-10
1.7937e-10
1.74498e-10
-2.61866e-08
-1.72524e-09
-2.65828e-08
-1.70808e-09
-2.69667e-08
-1.69056e-09
-2.73385e-08
-1.6727e-09
-2.76987e-08
-1.65455e-09
-2.80474e-08
-1.63611e-09
-2.83849e-08
-1.61741e-09
-2.87115e-08
-1.59847e-09
-2.90275e-08
-1.57932e-09
-2.93332e-08
-1.55998e-09
-2.96287e-08
-1.54046e-09
-2.99144e-08
-1.52079e-09
-3.01906e-08
-1.501e-09
-3.04574e-08
-1.48109e-09
-3.07152e-08
-1.46109e-09
-3.09642e-08
-1.44102e-09
-3.12046e-08
-1.4209e-09
-3.14366e-08
-1.40073e-09
-3.16605e-08
-1.38054e-09
-3.18765e-08
-1.36034e-09
-3.20848e-08
-1.34013e-09
-3.22857e-08
-1.31992e-09
-3.24792e-08
-1.29973e-09
-3.26656e-08
-1.27956e-09
-3.28452e-08
-1.25943e-09
-3.30181e-08
-1.23935e-09
-3.31845e-08
-1.21934e-09
-3.33446e-08
-1.19942e-09
-3.34988e-08
-1.1796e-09
-3.36471e-08
-1.1599e-09
-3.37898e-08
-1.14033e-09
-3.39271e-08
-1.12092e-09
-3.40592e-08
-1.10165e-09
-3.41864e-08
-1.08255e-09
-3.43088e-08
-1.0636e-09
-3.44265e-08
-1.04481e-09
-3.45399e-08
-1.02618e-09
-3.46489e-08
-1.0077e-09
-3.47539e-08
-9.8938e-10
-3.48549e-08
-9.71214e-10
-3.4952e-08
-9.53202e-10
-3.50453e-08
-9.35342e-10
-3.51351e-08
-9.17629e-10
-3.52213e-08
-9.00056e-10
-3.5304e-08
-8.82626e-10
-3.53834e-08
-8.65349e-10
-3.54596e-08
-8.4825e-10
-3.55326e-08
-8.31358e-10
-3.56026e-08
-8.14702e-10
-7.98416e-10
-3.56694e-08
-2.01503e-08
-1.30423e-09
-2.05627e-08
-1.29561e-09
-2.09667e-08
-1.28659e-09
-2.13622e-08
-1.27718e-09
-2.17494e-08
-1.26741e-09
-2.21282e-08
-1.25728e-09
-2.24988e-08
-1.24682e-09
-2.28612e-08
-1.23605e-09
-2.32155e-08
-1.22498e-09
-2.35619e-08
-1.21362e-09
-2.39004e-08
-1.202e-09
-2.4231e-08
-1.19013e-09
-2.4554e-08
-1.17803e-09
-2.48694e-08
-1.1657e-09
-2.51773e-08
-1.15317e-09
-2.54779e-08
-1.14046e-09
-2.57712e-08
-1.12757e-09
-2.60574e-08
-1.11453e-09
-2.63366e-08
-1.10135e-09
-2.66089e-08
-1.08804e-09
-2.68744e-08
-1.07462e-09
-2.71332e-08
-1.06111e-09
-2.73854e-08
-1.0475e-09
-2.76312e-08
-1.03381e-09
-2.78706e-08
-1.02005e-09
-2.81037e-08
-1.00621e-09
-2.83307e-08
-9.9232e-10
-2.85518e-08
-9.78373e-10
-2.8767e-08
-9.64384e-10
-2.89765e-08
-9.50362e-10
-2.91805e-08
-9.36321e-10
-2.93792e-08
-9.22275e-10
-2.95726e-08
-9.08235e-10
-2.97609e-08
-8.9421e-10
-2.99443e-08
-8.80209e-10
-3.01229e-08
-8.66237e-10
-3.02968e-08
-8.52299e-10
-3.04661e-08
-8.38401e-10
-3.06309e-08
-8.2455e-10
-3.07914e-08
-8.10754e-10
-3.09476e-08
-7.9702e-10
-3.10995e-08
-7.83353e-10
-3.12474e-08
-7.69754e-10
-3.13913e-08
-7.5622e-10
-3.15311e-08
-7.42753e-10
-3.16671e-08
-7.2936e-10
-3.17993e-08
-7.16058e-10
-3.19278e-08
-7.02867e-10
-3.20527e-08
-6.89812e-10
-6.76846e-10
-3.21743e-08
-1.63348e-08
-9.3619e-10
-1.6698e-08
-9.32384e-10
-1.70564e-08
-9.28181e-10
-1.741e-08
-9.23598e-10
-1.77587e-08
-9.18651e-10
-1.81027e-08
-9.13354e-10
-1.84418e-08
-9.07722e-10
-1.87761e-08
-9.01771e-10
-1.91055e-08
-8.95515e-10
-1.94302e-08
-8.88969e-10
-1.975e-08
-8.82147e-10
-2.00651e-08
-8.75062e-10
-2.03754e-08
-8.67728e-10
-2.06809e-08
-8.60156e-10
-2.09818e-08
-8.5236e-10
-2.12779e-08
-8.44351e-10
-2.15693e-08
-8.36141e-10
-2.18561e-08
-8.27744e-10
-2.21382e-08
-8.19173e-10
-2.24158e-08
-8.10442e-10
-2.26889e-08
-8.01563e-10
-2.29575e-08
-7.9255e-10
-2.32215e-08
-7.83414e-10
-2.34812e-08
-7.74165e-10
-2.37364e-08
-7.64812e-10
-2.39873e-08
-7.55359e-10
-2.42338e-08
-7.45814e-10
-2.4476e-08
-7.36179e-10
-2.47139e-08
-7.26461e-10
-2.49476e-08
-7.16666e-10
-2.51771e-08
-7.06804e-10
-2.54025e-08
-6.96884e-10
-2.56238e-08
-6.86919e-10
-2.58411e-08
-6.76921e-10
-2.60544e-08
-6.66899e-10
-2.62638e-08
-6.56862e-10
-2.64693e-08
-6.46814e-10
-2.66709e-08
-6.36759e-10
-2.68688e-08
-6.267e-10
-2.70629e-08
-6.16642e-10
-2.72533e-08
-6.06589e-10
-2.74401e-08
-5.96545e-10
-2.76234e-08
-5.86511e-10
-2.78031e-08
-5.76489e-10
-2.79794e-08
-5.66474e-10
-2.81523e-08
-5.56471e-10
-2.83218e-08
-5.46493e-10
-2.84881e-08
-5.36565e-10
-2.86512e-08
-5.26718e-10
-5.17068e-10
-2.8811e-08
-1.40765e-08
-6.15736e-10
-1.43936e-08
-6.15312e-10
-1.47073e-08
-6.14485e-10
-1.50176e-08
-6.1327e-10
-1.53246e-08
-6.11681e-10
-1.56282e-08
-6.09734e-10
-1.59285e-08
-6.07444e-10
-1.62254e-08
-6.04825e-10
-1.6519e-08
-6.01891e-10
-1.68093e-08
-5.98658e-10
-1.70964e-08
-5.9514e-10
-1.73801e-08
-5.91349e-10
-1.76605e-08
-5.87299e-10
-1.79376e-08
-5.83005e-10
-1.82115e-08
-5.78477e-10
-1.84822e-08
-5.73729e-10
-1.87495e-08
-5.68772e-10
-1.90136e-08
-5.63617e-10
-1.92745e-08
-5.58276e-10
-1.95322e-08
-5.52761e-10
-1.97867e-08
-5.47083e-10
-2.0038e-08
-5.41253e-10
-2.02861e-08
-5.35284e-10
-2.05311e-08
-5.29188e-10
-2.07729e-08
-5.22974e-10
-2.10117e-08
-5.16653e-10
-2.12472e-08