/*--------------------------------*- C++ -*----------------------------------*\
| =========                 |                                                 |
| \\      /  F ield         | OpenFOAM: The Open Source CFD Toolbox           |
|  \\    /   O peration     | Version:  2.4.0                                 |
|   \\  /    A nd           | Web:      www.OpenFOAM.org                      |
|    \\/     M anipulation  |                                                 |
\*---------------------------------------------------------------------------*/
FoamFile
{
    version     2.0;
    format      ascii;
    class       volScalarField;
    location    "2.1";
    object      H;
}
// * * * * * * * * * * * * * * * * * * * * * * * * * * * * * * * * * * * * * //

dimensions      [0 2 -2 0 0 0 0];

internalField   nonuniform List<scalar> 
125
(
-20.8703
-20.8684
-20.8667
-20.8678
-20.8704
-20.7187
-20.7168
-20.7152
-20.7163
-20.7188
-20.5533
-20.5515
-20.5499
-20.551
-20.5534
-20.3741
-20.3723
-20.3708
-20.3718
-20.3742
-20.1809
-20.1792
-20.1777
-20.1787
-20.181
-19.9737
-19.9721
-19.9706
-19.9716
-19.9739
-19.7526
-19.7509
-19.7495
-19.7505
-19.7527
-19.5174
-19.5158
-19.5145
-19.5154
-19.5175
-19.2682
-19.2667
-19.2654
-19.2663
-19.2683
-19.0051
-19.0036
-19.0023
-19.0032
-19.0052
-18.728
-18.7266
-18.7253
-18.7262
-18.7281
-18.4371
-18.4357
-18.4345
-18.4354
-18.4372
-18.1325
-18.1312
-18.13
-18.1308
-18.1326
-17.8143
-17.813
-17.8119
-17.8126
-17.8144
-17.4827
-17.4814
-17.4803
-17.481
-17.4827
-17.1377
-17.1365
-17.1355
-17.1362
-17.1378
-16.7797
-16.7785
-16.7775
-16.7782
-16.7798
-16.4089
-16.4077
-16.4067
-16.4074
-16.4089
-16.0254
-16.0243
-16.0234
-16.024
-16.0254
-15.6296
-15.6285
-15.6277
-15.6283
-15.6297
-15.2218
-15.2208
-15.2199
-15.2205
-15.2218
-14.8023
-14.8013
-14.8005
-14.801
-14.8023
-14.3714
-14.3705
-14.3697
-14.3702
-14.3714
-13.9295
-13.9286
-13.9279
-13.9284
-13.9296
-13.4771
-13.4762
-13.4755
-13.476
-13.4771
)
;

boundaryField
{
    BotWall
    {
        type            zeroGradient;
    }
    FreeStream
    {
        type            zeroGradient;
    }
    FrontNBack
    {
        type            empty;
    }
    LeftSide
    {
        type            symmetryPlane;
    }
    RightSide
    {
        type            symmetryPlane;
    }
    procBoundary2to1
    {
        type            processor;
        value           nonuniform List<scalar> 5(-21.0064 -21.0045 -21.0028 -21.0039 -21.0066);
    }
    procBoundary2to3
    {
        type            processor;
        value           nonuniform List<scalar> 5(-13.0135 -13.0127 -13.0121 -13.0125 -13.0136);
    }
}


// ************************************************************************* //
