/*--------------------------------*- C++ -*----------------------------------*\
| =========                 |                                                 |
| \\      /  F ield         | OpenFOAM: The Open Source CFD Toolbox           |
|  \\    /   O peration     | Version:  2.4.0                                 |
|   \\  /    A nd           | Web:      www.OpenFOAM.org                      |
|    \\/     M anipulation  |                                                 |
\*---------------------------------------------------------------------------*/
FoamFile
{
    version     2.0;
    format      ascii;
    class       volScalarField;
    location    "2.1";
    object      p_rgh;
}
// * * * * * * * * * * * * * * * * * * * * * * * * * * * * * * * * * * * * * //

dimensions      [1 -1 -2 0 0 0 0];

internalField   nonuniform List<scalar> 
125
(
-1.08571e-05
-1.08565e-05
-1.08561e-05
-1.08564e-05
-1.08576e-05
-1.08401e-05
-1.08395e-05
-1.08392e-05
-1.08394e-05
-1.08406e-05
-1.0823e-05
-1.08224e-05
-1.0822e-05
-1.08223e-05
-1.08234e-05
-1.08057e-05
-1.08051e-05
-1.08047e-05
-1.0805e-05
-1.08061e-05
-1.07881e-05
-1.07876e-05
-1.07873e-05
-1.07875e-05
-1.07885e-05
-1.07704e-05
-1.07699e-05
-1.07696e-05
-1.07698e-05
-1.07708e-05
-1.07525e-05
-1.07521e-05
-1.07517e-05
-1.0752e-05
-1.07529e-05
-1.07345e-05
-1.0734e-05
-1.07337e-05
-1.07339e-05
-1.07348e-05
-1.07162e-05
-1.07157e-05
-1.07154e-05
-1.07156e-05
-1.07165e-05
-1.06977e-05
-1.06972e-05
-1.06969e-05
-1.06972e-05
-1.0698e-05
-1.0679e-05
-1.06786e-05
-1.06783e-05
-1.06785e-05
-1.06793e-05
-1.06601e-05
-1.06597e-05
-1.06594e-05
-1.06596e-05
-1.06604e-05
-1.0641e-05
-1.06406e-05
-1.06403e-05
-1.06405e-05
-1.06413e-05
-1.06217e-05
-1.06213e-05
-1.06211e-05
-1.06213e-05
-1.0622e-05
-1.06022e-05
-1.06018e-05
-1.06016e-05
-1.06018e-05
-1.06025e-05
-1.05825e-05
-1.05821e-05
-1.05819e-05
-1.05821e-05
-1.05827e-05
-1.05626e-05
-1.05622e-05
-1.05619e-05
-1.05621e-05
-1.05628e-05
-1.05424e-05
-1.0542e-05
-1.05418e-05
-1.0542e-05
-1.05426e-05
-1.0522e-05
-1.05217e-05
-1.05214e-05
-1.05216e-05
-1.05222e-05
-1.05014e-05
-1.05011e-05
-1.05009e-05
-1.0501e-05
-1.05016e-05
-1.04806e-05
-1.04803e-05
-1.04801e-05
-1.04802e-05
-1.04808e-05
-1.04595e-05
-1.04592e-05
-1.0459e-05
-1.04592e-05
-1.04597e-05
-1.04383e-05
-1.0438e-05
-1.04378e-05
-1.04379e-05
-1.04384e-05
-1.04167e-05
-1.04165e-05
-1.04163e-05
-1.04164e-05
-1.04169e-05
-1.0395e-05
-1.03948e-05
-1.03946e-05
-1.03947e-05
-1.03951e-05
)
;

boundaryField
{
    BotWall
    {
        type            fixedFluxPressure;
        gradient        nonuniform 0();
        value           nonuniform 0();
    }
    FreeStream
    {
        type            totalPressure;
        rho             rho;
        psi             none;
        gamma           1;
        p0              nonuniform 0();
        value           nonuniform 0();
    }
    FrontNBack
    {
        type            empty;
    }
    LeftSide
    {
        type            symmetryPlane;
    }
    RightSide
    {
        type            symmetryPlane;
    }
    procBoundary2to1
    {
        type            processor;
        value           nonuniform List<scalar> 5(-1.08738e-05 -1.08732e-05 -1.08728e-05 -1.08731e-05 -1.08744e-05);
    }
    procBoundary2to3
    {
        type            processor;
        value           nonuniform List<scalar> 5(-1.0373e-05 -1.03728e-05 -1.03726e-05 -1.03727e-05 -1.03731e-05);
    }
}


// ************************************************************************* //
