/*--------------------------------*- C++ -*----------------------------------*\
| =========                 |                                                 |
| \\      /  F ield         | OpenFOAM: The Open Source CFD Toolbox           |
|  \\    /   O peration     | Version:  2.4.0                                 |
|   \\  /    A nd           | Web:      www.OpenFOAM.org                      |
|    \\/     M anipulation  |                                                 |
\*---------------------------------------------------------------------------*/
FoamFile
{
    version     2.0;
    format      ascii;
    class       volScalarField;
    location    "5";
    object      H;
}
// * * * * * * * * * * * * * * * * * * * * * * * * * * * * * * * * * * * * * //

dimensions      [0 2 -2 0 0 0 0];

internalField   nonuniform List<scalar> 
125
(
-13.868
-13.8122
-13.6879
-13.7315
-13.8712
-13.7824
-13.7276
-13.6071
-13.6492
-13.7846
-13.6895
-13.6357
-13.5189
-13.5597
-13.6907
-13.5892
-13.5363
-13.4232
-13.4627
-13.5895
-13.4813
-13.4295
-13.3199
-13.358
-13.4808
-13.3656
-13.3148
-13.2088
-13.2456
-13.3643
-13.2421
-13.1924
-13.0898
-13.1253
-13.24
-13.1105
-13.0619
-12.9627
-12.9969
-13.1077
-12.9708
-12.9232
-12.8274
-12.8604
-12.9673
-12.8227
-12.7763
-12.6838
-12.7155
-12.8187
-12.6663
-12.6209
-12.5316
-12.5621
-12.6616
-12.5013
-12.4571
-12.3709
-12.4002
-12.4961
-12.3276
-12.2846
-12.2015
-12.2297
-12.322
-12.1452
-12.1033
-12.0233
-12.0503
-12.1391
-11.954
-11.9133
-11.8363
-11.8622
-11.9475
-11.7539
-11.7144
-11.6402
-11.6651
-11.7471
-11.5449
-11.5065
-11.4352
-11.459
-11.5377
-11.3268
-11.2896
-11.2211
-11.2438
-11.3193
-11.0996
-11.0636
-10.9979
-11.0196
-11.0919
-10.8634
-10.8286
-10.7656
-10.7863
-10.8555
-10.6181
-10.5845
-10.5242
-10.5439
-10.61
-10.3637
-10.3313
-10.2736
-10.2924
-10.3555
-10.1003
-10.0691
-10.0139
-10.0318
-10.092
-9.82783
-9.79783
-9.74518
-9.76211
-9.81952
-9.54642
-9.51762
-9.46743
-9.48348
-9.5381
)
;

boundaryField
{
    BotWall
    {
        type            zeroGradient;
    }
    FreeStream
    {
        type            zeroGradient;
    }
    FrontNBack
    {
        type            empty;
    }
    LeftSide
    {
        type            symmetryPlane;
    }
    RightSide
    {
        type            symmetryPlane;
    }
    procBoundary2to1
    {
        type            processor;
        value           nonuniform List<scalar> 5(-13.9455 -13.8888 -13.7607 -13.8057 -13.9497);
    }
    procBoundary2to3
    {
        type            processor;
        value           nonuniform List<scalar> 5(-9.25539 -9.22779 -9.18001 -9.1952 -9.24709);
    }
}


// ************************************************************************* //
