/*--------------------------------*- C++ -*----------------------------------*\
| =========                 |                                                 |
| \\      /  F ield         | OpenFOAM: The Open Source CFD Toolbox           |
|  \\    /   O peration     | Version:  2.4.0                                 |
|   \\  /    A nd           | Web:      www.OpenFOAM.org                      |
|    \\/     M anipulation  |                                                 |
\*---------------------------------------------------------------------------*/
FoamFile
{
    version     2.0;
    format      ascii;
    class       volScalarField;
    location    "5";
    object      p;
}
// * * * * * * * * * * * * * * * * * * * * * * * * * * * * * * * * * * * * * //

dimensions      [1 -1 -2 0 0 0 0];

internalField   nonuniform List<scalar> 
125
(
-0.0330641
-0.0330641
-0.033064
-0.0330641
-0.0330641
-0.033924
-0.0339239
-0.0339239
-0.0339239
-0.033924
-0.0347934
-0.0347934
-0.0347934
-0.0347934
-0.0347934
-0.0356726
-0.0356726
-0.0356725
-0.0356725
-0.0356726
-0.0365616
-0.0365615
-0.0365615
-0.0365615
-0.0365616
-0.0374604
-0.0374604
-0.0374604
-0.0374604
-0.0374605
-0.0383694
-0.0383694
-0.0383693
-0.0383693
-0.0383694
-0.0392884
-0.0392884
-0.0392884
-0.0392884
-0.0392884
-0.0402178
-0.0402177
-0.0402177
-0.0402177
-0.0402178
-0.0411574
-0.0411574
-0.0411574
-0.0411574
-0.0411575
-0.0421076
-0.0421076
-0.0421076
-0.0421076
-0.0421076
-0.0430684
-0.0430684
-0.0430684
-0.0430684
-0.0430684
-0.0440399
-0.0440399
-0.0440399
-0.0440399
-0.0440399
-0.0450222
-0.0450222
-0.0450222
-0.0450222
-0.0450223
-0.0460156
-0.0460155
-0.0460155
-0.0460155
-0.0460156
-0.0470199
-0.0470199
-0.0470199
-0.0470199
-0.0470199
-0.0480355
-0.0480355
-0.0480355
-0.0480355
-0.0480355
-0.0490625
-0.0490625
-0.0490624
-0.0490624
-0.0490625
-0.0501009
-0.0501009
-0.0501008
-0.0501008
-0.0501009
-0.0511508
-0.0511508
-0.0511508
-0.0511508
-0.0511508
-0.0522125
-0.0522125
-0.0522125
-0.0522125
-0.0522125
-0.0532861
-0.0532861
-0.053286
-0.053286
-0.0532861
-0.0543716
-0.0543716
-0.0543716
-0.0543716
-0.0543716
-0.0554692
-0.0554692
-0.0554692
-0.0554692
-0.0554692
-0.0565791
-0.0565791
-0.0565791
-0.0565791
-0.0565791
)
;

boundaryField
{
    BotWall
    {
        type            calculated;
        value           nonuniform 0();
    }
    FreeStream
    {
        type            calculated;
        value           nonuniform 0();
    }
    FrontNBack
    {
        type            empty;
    }
    LeftSide
    {
        type            symmetryPlane;
    }
    RightSide
    {
        type            symmetryPlane;
    }
    procBoundary2to1
    {
        type            processor;
        value           nonuniform List<scalar> 5(-0.0322137 -0.0322137 -0.0322137 -0.0322137 -0.0322137);
    }
    procBoundary2to3
    {
        type            processor;
        value           nonuniform List<scalar> 5(-0.0577014 -0.0577014 -0.0577013 -0.0577014 -0.0577014);
    }
}


// ************************************************************************* //
