/*--------------------------------*- C++ -*----------------------------------*\
| =========                 |                                                 |
| \\      /  F ield         | OpenFOAM: The Open Source CFD Toolbox           |
|  \\    /   O peration     | Version:  2.4.0                                 |
|   \\  /    A nd           | Web:      www.OpenFOAM.org                      |
|    \\/     M anipulation  |                                                 |
\*---------------------------------------------------------------------------*/
FoamFile
{
    version     2.0;
    format      ascii;
    class       volScalarField;
    location    "5";
    object      p_rgh;
}
// * * * * * * * * * * * * * * * * * * * * * * * * * * * * * * * * * * * * * //

dimensions      [1 -1 -2 0 0 0 0];

internalField   nonuniform List<scalar> 
125
(
-4.38366e-06
-4.37095e-06
-4.33569e-06
-4.34715e-06
-4.39281e-06
-4.3788e-06
-4.36642e-06
-4.33203e-06
-4.34318e-06
-4.38762e-06
-4.37388e-06
-4.36182e-06
-4.32829e-06
-4.33914e-06
-4.3824e-06
-4.3689e-06
-4.35716e-06
-4.32447e-06
-4.33504e-06
-4.37716e-06
-4.36386e-06
-4.35244e-06
-4.32059e-06
-4.33089e-06
-4.37189e-06
-4.35879e-06
-4.34768e-06
-4.31665e-06
-4.32669e-06
-4.36659e-06
-4.35366e-06
-4.34287e-06
-4.31266e-06
-4.32243e-06
-4.36125e-06
-4.34849e-06
-4.33801e-06
-4.30861e-06
-4.31812e-06
-4.35587e-06
-4.34328e-06
-4.3331e-06
-4.3045e-06
-4.31376e-06
-4.35045e-06
-4.33802e-06
-4.32814e-06
-4.30033e-06
-4.30934e-06
-4.34498e-06
-4.33271e-06
-4.32313e-06
-4.29611e-06
-4.30487e-06
-4.33948e-06
-4.32735e-06
-4.31807e-06
-4.29183e-06
-4.30034e-06
-4.33392e-06
-4.32195e-06
-4.31296e-06
-4.28749e-06
-4.29575e-06
-4.32833e-06
-4.3165e-06
-4.3078e-06
-4.2831e-06
-4.29111e-06
-4.32268e-06
-4.31099e-06
-4.30258e-06
-4.27864e-06
-4.2864e-06
-4.31699e-06
-4.30544e-06
-4.29731e-06
-4.27412e-06
-4.28164e-06
-4.31125e-06
-4.29984e-06
-4.29199e-06
-4.26954e-06
-4.27682e-06
-4.30547e-06
-4.29418e-06
-4.28661e-06
-4.2649e-06
-4.27194e-06
-4.29963e-06
-4.28848e-06
-4.28117e-06
-4.2602e-06
-4.267e-06
-4.29374e-06
-4.28271e-06
-4.27568e-06
-4.25543e-06
-4.262e-06
-4.28781e-06
-4.2769e-06
-4.27014e-06
-4.25061e-06
-4.25693e-06
-4.28182e-06
-4.27103e-06
-4.26453e-06
-4.24571e-06
-4.25181e-06
-4.27578e-06
-4.2651e-06
-4.25886e-06
-4.24075e-06
-4.24661e-06
-4.26967e-06
-4.25912e-06
-4.25314e-06
-4.23572e-06
-4.24136e-06
-4.26351e-06
-4.25308e-06
-4.24736e-06
-4.23064e-06
-4.23605e-06
-4.25729e-06
)
;

boundaryField
{
    BotWall
    {
        type            fixedFluxPressure;
        gradient        nonuniform 0();
        value           nonuniform 0();
    }
    FreeStream
    {
        type            totalPressure;
        rho             rho;
        psi             none;
        gamma           1;
        p0              nonuniform 0();
        value           nonuniform 0();
    }
    FrontNBack
    {
        type            empty;
    }
    LeftSide
    {
        type            symmetryPlane;
    }
    RightSide
    {
        type            symmetryPlane;
    }
    procBoundary2to1
    {
        type            processor;
        value           nonuniform List<scalar> 5(-4.38848e-06 -4.37545e-06 -4.33931e-06 -4.35108e-06 -4.39794e-06);
    }
    procBoundary2to3
    {
        type            processor;
        value           nonuniform List<scalar> 5(-4.247e-06 -4.24153e-06 -4.2255e-06 -4.23068e-06 -4.25102e-06);
    }
}


// ************************************************************************* //
