/*--------------------------------*- C++ -*----------------------------------*\
| =========                 |                                                 |
| \\      /  F ield         | OpenFOAM: The Open Source CFD Toolbox           |
|  \\    /   O peration     | Version:  2.4.0                                 |
|   \\  /    A nd           | Web:      www.OpenFOAM.org                      |
|    \\/     M anipulation  |                                                 |
\*---------------------------------------------------------------------------*/
FoamFile
{
    version     2.0;
    format      ascii;
    class       surfaceScalarField;
    location    "5";
    object      phi;
}
// * * * * * * * * * * * * * * * * * * * * * * * * * * * * * * * * * * * * * //

dimensions      [0 3 -1 0 0 0 0];

internalField   nonuniform List<scalar> 
220
(
1.03174e-15
-1.89165e-10
1.22606e-15
-1.89133e-10
-3.50419e-16
-1.89078e-10
-1.23091e-15
-1.89098e-10
-1.89178e-10
9.6302e-16
-1.89166e-10
1.14499e-15
-1.89133e-10
-3.15372e-16
-1.89077e-10
-1.12726e-15
-1.89098e-10
-1.89179e-10
8.95756e-16
-1.89166e-10
1.06597e-15
-1.89133e-10
-2.81336e-16
-1.89075e-10
-1.02672e-15
-1.89097e-10
-1.8918e-10
8.29994e-16
-1.89167e-10
9.89032e-16
-1.89133e-10
-2.48326e-16
-1.89074e-10
-9.29304e-16
-1.89096e-10
-1.89181e-10
7.65778e-16
-1.89168e-10
9.14202e-16
-1.89133e-10
-2.16356e-16
-1.89073e-10
-8.35045e-16
-1.89096e-10
-1.89182e-10
7.03149e-16
-1.89169e-10
8.41508e-16
-1.89134e-10
-1.85441e-16
-1.89072e-10
-7.43963e-16
-1.89095e-10
-1.89183e-10
6.42147e-16
-1.89169e-10
7.70976e-16
-1.89134e-10
-1.55592e-16
-1.89071e-10
-6.56073e-16
-1.89094e-10
-1.89184e-10
5.82811e-16
-1.8917e-10
7.0263e-16
-1.89134e-10
-1.26819e-16
-1.8907e-10
-5.71391e-16
-1.89094e-10
-1.89184e-10
5.25177e-16
-1.89171e-10
6.3649e-16
-1.89134e-10
-9.91323e-17
-1.89069e-10
-4.89926e-16
-1.89094e-10
-1.89185e-10
4.69279e-16
-1.89171e-10
5.72574e-16
-1.89134e-10
-7.25393e-17
-1.89069e-10
-4.11685e-16
-1.89093e-10
-1.89185e-10
4.1515e-16
-1.89171e-10
5.10901e-16
-1.89134e-10
-4.70461e-17
-1.89068e-10
-3.36671e-16
-1.89093e-10
-1.89185e-10
3.62819e-16
-1.89172e-10
4.51482e-16
-1.89134e-10
-2.26574e-17
-1.89068e-10
-2.64885e-16
-1.89093e-10
-1.89186e-10
3.12312e-16
-1.89172e-10
3.94331e-16
-1.89134e-10
6.23667e-19
-1.89067e-10
-1.96322e-16
-1.89093e-10
-1.89186e-10
2.63654e-16
-1.89172e-10
3.39454e-16
-1.89134e-10
2.27958e-17
-1.89067e-10
-1.30973e-16
-1.89092e-10
-1.89186e-10
2.16867e-16
-1.89173e-10
2.86859e-16
-1.89134e-10
4.38593e-17
-1.89067e-10
-6.88273e-17
-1.89092e-10
-1.89186e-10
1.7197e-16
-1.89173e-10
2.36548e-16
-1.89134e-10
6.38164e-17
-1.89067e-10
-9.86808e-18
-1.89092e-10
-1.89186e-10
1.28976e-16
-1.89173e-10
1.88521e-16
-1.89135e-10
8.26709e-17
-1.89067e-10
4.59261e-17
-1.89092e-10
-1.89186e-10
8.7899e-17
-1.89173e-10
1.42775e-16
-1.89135e-10
1.00429e-16
-1.89067e-10
9.8579e-17
-1.89092e-10
-1.89186e-10
4.87472e-17
-1.89173e-10
9.93041e-17
-1.89135e-10
1.17097e-16
-1.89067e-10
1.4812e-16
-1.89092e-10
-1.89186e-10
1.15256e-17
-1.89173e-10
5.80983e-17
-1.89135e-10
1.32687e-16
-1.89067e-10
1.94581e-16
-1.89092e-10
-1.89186e-10
-2.37645e-17
-1.89173e-10
1.91444e-17
-1.89135e-10
1.47209e-16
-1.89067e-10
2.38003e-16
-1.89092e-10
-1.89185e-10
-5.71257e-17
-1.89173e-10
-1.75748e-17
-1.89135e-10
1.60678e-16
-1.89067e-10
2.78427e-16
-1.89092e-10
-1.89185e-10
-8.85647e-17
-1.89173e-10
-5.20798e-17
-1.89135e-10
1.73111e-16
-1.89067e-10
3.15901e-16
-1.89093e-10
-1.89185e-10
-1.18093e-16
-1.89173e-10
-8.43947e-17
-1.89135e-10
1.84524e-16
-1.89067e-10
3.50481e-16
-1.89093e-10
-1.89184e-10
-1.45725e-16
-1.14548e-16
1.9494e-16
3.82224e-16
)
;

boundaryField
{
    BotWall
    {
        type            calculated;
        value           nonuniform 0();
    }
    FreeStream
    {
        type            calculated;
        value           nonuniform 0();
    }
    FrontNBack
    {
        type            empty;
        value           nonuniform 0();
    }
    LeftSide
    {
        type            symmetryPlane;
        value           uniform 0;
    }
    RightSide
    {
        type            symmetryPlane;
        value           uniform 0;
    }
    procBoundary2to1
    {
        type            processor;
        value           nonuniform List<scalar> 5(1.89164e-10 1.89133e-10 1.8908e-10 1.89099e-10 1.89177e-10);
    }
    procBoundary2to3
    {
        type            processor;
        value           nonuniform List<scalar> 5(-1.89173e-10 -1.89135e-10 -1.89068e-10 -1.89093e-10 -1.89184e-10);
    }
}


// ************************************************************************* //
