/*--------------------------------*- C++ -*----------------------------------*\
| =========                 |                                                 |
| \\      /  F ield         | OpenFOAM: The Open Source CFD Toolbox           |
|  \\    /   O peration     | Version:  2.4.0                                 |
|   \\  /    A nd           | Web:      www.OpenFOAM.org                      |
|    \\/     M anipulation  |                                                 |
\*---------------------------------------------------------------------------*/
FoamFile
{
    version     2.0;
    format      ascii;
    class       volVectorField;
    location    "5";
    object      U;
}
// * * * * * * * * * * * * * * * * * * * * * * * * * * * * * * * * * * * * * //

dimensions      [0 1 -1 0 0 0 0];

internalField   nonuniform List<vector> 
125
(
(8.583e-08 -0.000945821 0)
(3.45893e-07 -0.000945663 0)
(1.67733e-07 -0.000945395 0)
(-3.14479e-07 -0.000945494 0)
(-2.01257e-07 -0.000945889 0)
(7.9329e-08 -0.000945826 0)
(3.19186e-07 -0.000945664 0)
(1.55223e-07 -0.000945387 0)
(-2.85845e-07 -0.00094549 0)
(-1.81303e-07 -0.000945895 0)
(7.30171e-08 -0.00094583 0)
(2.93567e-07 -0.000945665 0)
(1.43266e-07 -0.00094538 0)
(-2.58516e-07 -0.000945486 0)
(-1.62324e-07 -0.0009459 0)
(6.68979e-08 -0.000945835 0)
(2.69019e-07 -0.000945666 0)
(1.31852e-07 -0.000945374 0)
(-2.32468e-07 -0.000945482 0)
(-1.44298e-07 -0.000945905 0)
(6.09744e-08 -0.000945839 0)
(2.45526e-07 -0.000945667 0)
(1.20967e-07 -0.000945368 0)
(-2.07675e-07 -0.000945479 0)
(-1.272e-07 -0.000945909 0)
(5.52492e-08 -0.000945842 0)
(2.23071e-07 -0.000945667 0)
(1.10599e-07 -0.000945362 0)
(-1.84112e-07 -0.000945476 0)
(-1.1101e-07 -0.000945913 0)
(4.97247e-08 -0.000945846 0)
(2.01638e-07 -0.000945668 0)
(1.00737e-07 -0.000945357 0)
(-1.61751e-07 -0.000945473 0)
(-9.5703e-08 -0.000945917 0)
(4.44028e-08 -0.000945849 0)
(1.81208e-07 -0.000945669 0)
(9.13666e-08 -0.000945353 0)
(-1.40567e-07 -0.000945471 0)
(-8.1257e-08 -0.00094592 0)
(3.9285e-08 -0.000945851 0)
(1.61764e-07 -0.000945669 0)
(8.24765e-08 -0.000945349 0)
(-1.20531e-07 -0.000945469 0)
(-6.76486e-08 -0.000945922 0)
(3.43726e-08 -0.000945854 0)
(1.43287e-07 -0.00094567 0)
(7.40541e-08 -0.000945346 0)
(-1.01618e-07 -0.000945467 0)
(-5.48549e-08 -0.000945925 0)
(2.96662e-08 -0.000945856 0)
(1.25758e-07 -0.00094567 0)
(6.60869e-08 -0.000945343 0)
(-8.37989e-08 -0.000945466 0)
(-4.28526e-08 -0.000945926 0)
(2.51665e-08 -0.000945858 0)
(1.09157e-07 -0.000945671 0)
(5.85627e-08 -0.00094534 0)
(-6.70458e-08 -0.000945464 0)
(-3.16184e-08 -0.000945928 0)
(2.08734e-08 -0.00094586 0)
(9.34649e-08 -0.000945671 0)
(5.14689e-08 -0.000945338 0)
(-5.13303e-08 -0.000945463 0)
(-2.11292e-08 -0.000945929 0)
(1.67865e-08 -0.000945861 0)
(7.86613e-08 -0.000945672 0)
(4.47931e-08 -0.000945336 0)
(-3.66238e-08 -0.000945462 0)
(-1.13618e-08 -0.00094593 0)
(1.29051e-08 -0.000945862 0)
(6.47255e-08 -0.000945672 0)
(3.85231e-08 -0.000945335 0)
(-2.28974e-08 -0.000945462 0)
(-2.29269e-09 -0.00094593 0)
(9.22812e-09 -0.000945863 0)
(5.16363e-08 -0.000945672 0)
(3.26464e-08 -0.000945334 0)
(-1.01219e-08 -0.000945461 0)
(6.10124e-09 -0.000945931 0)
(5.75402e-09 -0.000945864 0)
(3.93723e-08 -0.000945673 0)
(2.71507e-08 -0.000945333 0)
(1.73216e-09 -0.000945461 0)
(1.38433e-08 -0.000945931 0)
(2.4809e-09 -0.000945865 0)
(2.79114e-08 -0.000945673 0)
(2.20237e-08 -0.000945333 0)
(1.26944e-08 -0.000945461 0)
(2.09568e-08 -0.00094593 0)
(-5.93511e-10 -0.000945865 0)
(1.72314e-08 -0.000945673 0)
(1.72531e-08 -0.000945333 0)
(2.27949e-08 -0.000945461 0)
(2.74649e-08 -0.00094593 0)
(-3.47189e-09 -0.000945865 0)
(7.30954e-09 -0.000945673 0)
(1.28266e-08 -0.000945333 0)
(3.20636e-08 -0.000945461 0)
(3.3391e-08 -0.000945929 0)
(-6.15728e-09 -0.000945865 0)
(-1.87728e-09 -0.000945674 0)
(8.73211e-09 -0.000945333 0)
(4.0531e-08 -0.000945462 0)
(3.87582e-08 -0.000945928 0)
(-8.6531e-09 -0.000945865 0)
(-1.03526e-08 -0.000945674 0)
(4.95731e-09 -0.000945334 0)
(4.82276e-08 -0.000945462 0)
(4.35898e-08 -0.000945926 0)
(-1.09632e-08 -0.000945865 0)
(-1.81403e-08 -0.000945674 0)
(1.49004e-09 -0.000945335 0)
(5.51841e-08 -0.000945463 0)
(4.79089e-08 -0.000945925 0)
(-1.30917e-08 -0.000945864 0)
(-2.52647e-08 -0.000945674 0)
(-1.68183e-09 -0.000945336 0)
(6.14316e-08 -0.000945463 0)
(5.17389e-08 -0.000945923 0)
(-1.50432e-08 -0.000945863 0)
(-3.17504e-08 -0.000945674 0)
(-4.57045e-09 -0.000945338 0)
(6.70012e-08 -0.000945464 0)
(5.51029e-08 -0.000945921 0)
)
;

boundaryField
{
    BotWall
    {
        type            fixedValue;
        value           nonuniform 0();
    }
    FreeStream
    {
        type            zeroGradient;
    }
    FrontNBack
    {
        type            empty;
    }
    LeftSide
    {
        type            symmetryPlane;
    }
    RightSide
    {
        type            symmetryPlane;
    }
    procBoundary2to1
    {
        type            processor;
        value           nonuniform List<vector> 5((9.25167e-08 -0.000945815 0) (3.73703e-07 -0.000945662 0) (1.80809e-07 -0.000945403 0) (-3.44444e-07 -0.000945499 0) (-2.22208e-07 -0.000945882 0));
    }
    procBoundary2to3
    {
        type            processor;
        value           nonuniform List<vector> 5((-1.68225e-08 -0.000945862 0) (-3.76227e-08 -0.000945674 0) (-7.18792e-09 -0.000945339 0) (7.19243e-08 -0.000945465 0) (5.80241e-08 -0.000945919 0));
    }
}


// ************************************************************************* //
