/*--------------------------------*- C++ -*----------------------------------*\
| =========                 |                                                 |
| \\      /  F ield         | OpenFOAM: The Open Source CFD Toolbox           |
|  \\    /   O peration     | Version:  2.4.0                                 |
|   \\  /    A nd           | Web:      www.OpenFOAM.org                      |
|    \\/     M anipulation  |                                                 |
\*---------------------------------------------------------------------------*/
FoamFile
{
    version     2.0;
    format      ascii;
    class       volScalarField;
    location    "2.1";
    object      alpha1;
}
// * * * * * * * * * * * * * * * * * * * * * * * * * * * * * * * * * * * * * //

dimensions      [0 0 0 0 0 0 0];

internalField   nonuniform List<scalar> 
8000
(
1
1
1
1
1
1
1
1
0.999999
0.999999
0.999999
0.999998
0.999998
0.99997
0.998768
0.970943
0.639957
0.0443228
0.0118733
0.000156718
2.60616e-05
9.92918e-06
1.11004e-07
8.68362e-08
5.72246e-08
2.29532e-08
9.5106e-09
2.04716e-09
1.96238e-10
5.03109e-11
2.80401e-11
1.72575e-11
1.09452e-11
7.0888e-12
4.67056e-12
3.11928e-12
2.10466e-12
1.43065e-12
9.77434e-13
6.69773e-13
4.59462e-13
3.15035e-13
2.15614e-13
1.47137e-13
1.00024e-13
6.76857e-14
4.55645e-14
3.04975e-14
2.02869e-14
1.34063e-14
1
1
1
1
1
0.999999
0.999999
0.999999
0.999999
0.999998
0.999999
0.999051
0.998274
0.860947
0.155824
0.0267292
0.00659166
8.5529e-05
4.59184e-05
3.40193e-07
1.72771e-07
1.34283e-07
1.07885e-07
6.10922e-08
2.46837e-08
6.91537e-09
2.14996e-09
3.96911e-10
3.86884e-11
1.15537e-11
6.14081e-12
3.50475e-12
2.06845e-12
1.25679e-12
7.84251e-13
5.01033e-13
3.26531e-13
2.16271e-13
1.45046e-13
9.81687e-14
6.68469e-14
4.56761e-14
3.12487e-14
2.13652e-14
1.45763e-14
9.91088e-15
6.70889e-15
4.51747e-15
3.02372e-15
2.01067e-15
1
1
1
1
0.999999
0.999998
0.999997
0.999999
0.999778
0.998085
0.982347
0.263118
0.0293713
0.0160852
0.000198066
0.000122586
1.3451e-05
2.12682e-07
2.59412e-07
2.52584e-07
1.24898e-07
9.2422e-08
6.07216e-08
2.99656e-08
9.81046e-09
2.25828e-09
5.68251e-10
9.32214e-11
9.73925e-12
3.31958e-12
1.70285e-12
9.23253e-13
5.18407e-13
3.00686e-13
1.79771e-13
1.10453e-13
6.94859e-14
4.4587e-14
2.90721e-14
1.91946e-14
1.27923e-14
8.58194e-15
5.78186e-15
3.90438e-15
2.63875e-15
1.78322e-15
1.20479e-15
8.14683e-16
5.5307e-16
3.79409e-16
1
1
1
1
0.999998
0.999994
0.999962
0.99887
0.595424
0.0290216
0.0270092
0.000193425
0.000113848
3.82002e-05
2.1462e-07
1.98312e-07
1.20641e-07
1.2938e-07
1.19101e-07
9.24583e-08
5.26009e-08
3.38689e-08
1.87733e-08
8.08591e-09
2.38091e-09
5.0882e-10
1.10885e-10
1.68515e-11
2.13872e-12
8.33725e-13
4.23318e-13
2.25239e-13
1.24243e-13
7.08951e-14
4.1747e-14
2.52909e-14
1.57116e-14
9.98057e-15
6.4713e-15
4.28283e-15
2.90137e-15
2.02602e-15
1.47641e-15
1.14244e-15
9.56156e-16
8.75627e-16
8.75522e-16
9.41519e-16
1.06698e-15
1.25098e-15
1
1
1
0.999998
0.999994
0.999922
0.777554
0.0291863
0.0123499
0.000308864
0.00027498
2.38295e-06
2.45593e-07
2.37533e-07
2.1281e-07
1.64326e-07
1.09531e-07
8.28622e-08
6.15676e-08
4.27456e-08
2.56194e-08
1.45053e-08
7.02935e-09
2.7698e-09
7.8515e-10
1.58269e-10
3.10439e-11
4.48112e-12
6.36592e-13
2.59679e-13
1.28786e-13
6.71893e-14
3.67506e-14
2.11749e-14
1.29823e-14
8.61514e-15
6.327e-15
5.23496e-15
4.88289e-15
5.03404e-15
5.5699e-15
6.43962e-15
7.63436e-15
9.17439e-15
1.1103e-14
1.34844e-14
1.64043e-14
1.99718e-14
2.43231e-14
2.96267e-14
1
1
0.999999
0.999996
0.999977
0.754337
0.000754227
0.000487707
0.00015782
2.43077e-06
7.64749e-07
2.9691e-07
2.71089e-07
2.694e-07
2.32916e-07
1.69226e-07
1.25815e-07
8.79769e-08
5.74538e-08
3.62882e-08
2.10544e-08
1.10667e-08
4.7808e-09
1.62377e-09
4.2646e-10
7.76354e-11
1.31048e-11
1.83105e-12
3.11394e-13
1.30061e-13
6.40352e-14
3.49758e-14
2.20665e-14
1.67936e-14
1.54903e-14
1.65468e-14
1.92731e-14
2.34185e-14
2.89628e-14
3.60244e-14
4.48224e-14
5.56639e-14
6.89447e-14
8.51598e-14
1.04919e-13
1.28969e-13
1.5822e-13
1.93784e-13
2.37014e-13
2.89556e-13
1
1
0.999999
0.999994
0.999783
0.291129
1.60989e-06
3.07552e-06
1.7099e-06
1.22997e-06
7.6168e-07
4.54041e-07
3.56508e-07
3.05554e-07
2.61186e-07
2.07932e-07
1.66118e-07
1.30482e-07
9.90752e-08
7.25623e-08
5.06805e-08
3.33585e-08
2.02655e-08
1.11053e-08
5.3466e-09
2.18307e-09
7.28151e-10
1.90732e-10
3.7871e-11
5.56671e-12
6.31206e-13
8.64017e-14
3.77243e-14
3.72179e-14
4.84599e-14
6.67425e-14
9.24784e-14
1.26716e-13
1.70977e-13
2.27212e-13
2.97817e-13
3.85696e-13
4.94355e-13
6.28017e-13
7.91773e-13
9.91754e-13
1.23534e-12
1.53142e-12
1.89069e-12
2.32599e-12
1
1
0.999998
0.999994
0.999427
0.110626
1.59439e-06
2.18284e-06
1.51103e-06
1.01203e-06
8.95428e-07
6.27616e-07
4.51573e-07
3.41956e-07
2.74649e-07
2.22933e-07
1.83051e-07
1.48764e-07
1.17366e-07
8.9255e-08
6.5043e-08
4.51659e-08
2.97134e-08
1.85002e-08
1.10331e-08
6.504e-09
3.9465e-09
2.49335e-09
1.57844e-09
9.38876e-10
4.91033e-10
2.16504e-10
7.66054e-11
2.05917e-11
4.1213e-12
6.33712e-13
1.50483e-13
1.50287e-13
2.19695e-13
3.22736e-13
4.63401e-13
6.49678e-13
8.93121e-13
1.20811e-12
1.61099e-12
2.12141e-12
2.76306e-12
3.56449e-12
4.56023e-12
5.79193e-12
1
1
0.999998
0.999994
0.99815
0.0218825
1.59129e-06
1.59033e-06
1.25384e-06
9.20895e-07
7.87459e-07
5.80954e-07
4.30262e-07
3.2889e-07
2.6986e-07
2.26992e-07
1.91574e-07
1.59495e-07
1.29654e-07
1.02507e-07
7.86118e-08
5.83676e-08
4.193e-08
2.91886e-08
1.97695e-08
1.30771e-08
8.41986e-09
5.19428e-09
2.99125e-09
1.55844e-09
7.25683e-10
2.96095e-10
1.01664e-10
2.7934e-11
5.92256e-12
1.13698e-12
5.86476e-13
8.12924e-13
1.24537e-12
1.84992e-12
2.64837e-12
3.68459e-12
5.00822e-12
6.67396e-12
8.74662e-12
1.13011e-11
1.44251e-11
1.82214e-11
2.28111e-11
2.83375e-11
1
1
0.999998
1
0.954592
6.04585e-05
2.18223e-06
1.70685e-06
1.52321e-06
8.43422e-07
5.19983e-07
3.28242e-07
2.30175e-07
1.75464e-07
1.41e-07
1.15521e-07
9.51266e-08
7.81274e-08
6.37784e-08
5.1723e-08
4.17104e-08
3.35138e-08
2.68958e-08
2.16066e-08
1.73971e-08
1.4036e-08
1.13288e-08
9.12779e-09
7.32627e-09
5.84326e-09
4.61339e-09
3.58333e-09
2.71983e-09
2.00381e-09
1.42359e-09
9.69832e-10
6.31624e-10
3.92931e-10
2.32259e-10
1.30007e-10
6.9082e-11
3.54896e-11
1.86559e-11
1.14147e-11
9.36425e-12
1.00805e-11
1.24202e-11
1.59725e-11
2.0712e-11
2.68199e-11
1
1
0.999996
1
0.723455
0.000798155
0.00070019
1.96351e-05
5.75751e-06
5.18588e-07
3.82742e-07
3.22943e-07
3.14355e-07
2.56915e-07
2.20297e-07
1.90955e-07
1.62298e-07
1.32577e-07
1.05112e-07
1.00122e-07
1.00164e-07
9.34129e-08
8.19412e-08
6.70242e-08
5.05413e-08
3.48612e-08
2.01793e-08
1.14954e-08
7.63772e-09
5.48251e-09
4.2783e-09
3.9816e-09
4.82949e-09
7.67236e-09
1.49004e-08
2.81781e-08
4.04005e-08
4.09047e-08
6.87023e-09
3.40699e-09
4.0383e-09
1.79056e-09
2.70452e-10
5.65464e-11
4.09384e-11
4.61539e-11
5.47855e-11
6.55017e-11
7.83551e-11
9.37141e-11
1
1
0.999997
0.999998
0.999998
0.753287
0.0738431
0.0391136
0.00437276
0.00382943
0.000181918
0.000177082
3.70576e-06
4.5097e-07
3.31865e-07
2.78757e-07
2.62788e-07
4.60584e-07
1.97117e-05
4.09894e-05
4.31074e-05
4.10818e-05
3.45787e-05
2.2569e-05
9.33777e-06
1.73182e-06
2.84819e-07
1.98032e-07
1.25596e-07
7.41427e-08
4.63401e-08
3.14073e-08
2.36551e-08
2.94617e-08
6.36091e-08
2.32759e-07
4.84017e-07
5.69615e-07
1.08322e-06
4.94569e-06
7.48624e-06
6.21739e-06
2.45364e-06
8.10757e-07
2.26839e-06
4.91226e-06
5.0393e-06
3.55523e-06
1.17597e-06
3.67943e-07
1
1
0.999998
0.999998
0.999997
1.00001
1.00007
1.00001
0.995632
0.979147
0.617712
0.522253
0.435416
0.367672
0.302866
0.229796
0.14706
0.0719575
0.0310656
0.0177242
0.0131486
0.00958956
0.00608798
0.00327454
0.00150041
0.000593735
0.000210856
4.26634e-05
8.72092e-05
0.000167138
0.000201129
0.00019351
0.00017984
0.000158827
0.000165397
0.000224285
0.000199349
8.49092e-05
6.40235e-05
0.000246049
0.000623254
0.000301686
5.69126e-05
6.2507e-06
4.12569e-05
0.00026506
0.000297386
0.000266176
8.20429e-05
6.10436e-06
1
1
0.999999
0.999999
0.999997
0.999999
0.999999
1
1
0.999999
1
0.999992
1
1
0.999991
0.999967
0.999976
1.00014
0.999298
0.963496
0.839624
0.739281
0.655728
0.571733
0.484808
0.387149
0.254352
0.125867
0.0547239
0.0328009
0.0277314
0.0229869
0.0161845
0.00988481
0.0057836
0.004183
0.00394327
0.0030731
0.00156456
0.00175247
0.00292493
0.00133499
0.000340444
0.000298201
0.000634732
0.00017743
3.12869e-05
1.18205e-05
9.60323e-06
1.19931e-05
1
1
1
0.999999
0.999998
0.999999
0.999999
1
1
1
0.999999
0.999999
0.999999
0.999999
0.999999
1
1
1
1
1
1
1
0.999998
1
1
1.00001
0.999928
0.999661
0.987111
0.939127
0.762934
0.610748
0.511945
0.364087
0.176012
0.0697026
0.0430331
0.0388082
0.0329054
0.0173828
0.0120156
0.0161538
0.0131862
0.00441534
0.00179661
0.000766426
0.00034236
0.000178218
0.000113074
6.18557e-05
1
1
1
0.999999
0.999999
0.999999
0.999999
1
1
0.999999
0.999999
0.999999
0.999998
0.999998
0.999998
0.999999
0.999999
0.999999
0.999999
0.999999
0.999999
0.999999
0.999999
0.999999
0.999999
0.999999
1
1
1
1
1
0.999998
1.00001
0.99999
1.00052
0.976328
0.934609
0.805079
0.537833
0.258093
0.155565
0.062367
0.188753
0.169046
0.0791291
0.0301075
0.0116582
0.00482845
0.00214098
0.000973228
1
1
1
1
0.999999
0.999999
1
1
1
0.999999
0.999999
0.999998
0.999998
0.999998
0.999998
0.999998
0.999998
0.999998
0.999998
0.999998
0.999998
0.999999
0.999998
0.999998
0.999998
0.999998
0.999998
0.999998
0.999998
0.999998
0.999998
0.999997
0.999996
0.999992
0.999996
1
1
1
1
1.00004
0.991078
0.744708
0.245663
0.151266
0.119413
0.0799668
0.0484593
0.0280159
0.0142147
0.00676312
1
1
1
1
1
1
1
1
1
0.999999
0.999999
0.999998
0.999998
0.999998
0.999998
0.999998
0.999998
0.999998
0.999998
0.999998
0.999998
0.999998
0.999998
0.999998
0.999998
0.999998
0.999998
0.999998
0.999997
0.999997
0.999995
0.999987
0.999974
0.999958
0.999951
0.999983
0.999992
0.999996
0.999997
0.999995
1
0.999999
0.999976
0.973016
0.886005
0.636716
0.347765
0.296612
0.2462
0.154942
1
1
1
1
1
1
1
1
1
0.999999
0.999999
0.999999
0.999998
0.999998
0.999998
0.999998
0.999998
0.999998
0.999998
0.999998
0.999998
0.999998
0.999998
0.999998
0.999998
0.999998
0.999998
0.999997
0.999997
0.999996
0.999991
0.999949
0.999916
0.999916
0.999945
0.999993
0.999997
0.999996
0.999986
0.999947
0.999902
0.999973
0.999997
1
1
1
0.999984
0.981945
0.948695
0.893367
1
1
1
1
1
1
1
1
1
1
0.999999
0.999999
0.999999
0.999999
0.999999
0.999998
0.999998
0.999998
0.999999
0.999999
0.999999
0.999999
0.999999
0.999999
0.999999
0.999999
0.999998
0.999998
0.999997
0.999996
0.999995
0.999971
0.999932
0.999916
0.99998
0.999996
0.999997
0.999996
0.999967
0.999894
0.999873
0.999878
0.999972
0.999993
0.999996
0.999997
0.999999
1
1
1
8.79815e-15
5.73229e-15
3.70672e-15
2.37824e-15
1.5136e-15
9.55308e-16
5.97782e-16
3.70768e-16
2.27886e-16
1.38767e-16
8.37001e-17
5.0001e-17
2.95845e-17
1.73451e-17
1.00907e-17
5.84556e-18
3.40029e-18
2.02294e-18
1.2763e-18
9.03446e-19
7.5679e-19
7.54853e-19
8.56288e-19
1.04471e-18
1.32021e-18
1.69509e-18
2.19231e-18
2.84579e-18
3.70223e-18
4.82431e-18
6.29534e-18
8.22562e-18
1.07611e-17
1.40947e-17
1.84815e-17
2.42588e-17
3.18722e-17
4.19106e-17
5.51513e-17
7.26209e-17
9.56733e-17
1.26093e-16
1.66232e-16
2.1918e-16
2.89002e-16
3.81026e-16
5.02234e-16
6.61754e-16
8.71498e-16
1.14696e-15
1.32766e-15
8.7021e-16
5.66046e-16
3.65387e-16
2.34132e-16
1.49071e-16
9.4521e-17
5.99758e-17
3.84585e-17
2.53858e-17
1.77846e-17
1.37583e-17
1.21267e-17
1.21864e-17
1.35541e-17
1.6067e-17
1.97226e-17
2.46454e-17
3.10737e-17
3.93615e-17
4.99921e-17
6.36041e-17
8.10293e-17
1.03344e-16
1.31939e-16
1.68607e-16
2.15659e-16
2.76074e-16
3.53694e-16
4.53465e-16
5.81762e-16
7.4679e-16
9.59109e-16
1.23229e-15
1.58378e-15
2.03595e-15
2.61746e-15
3.36501e-15
4.32544e-15
5.55849e-15
7.14021e-15
9.16718e-15
1.17619e-14
1.50794e-14
1.93157e-14
2.47176e-14
3.15955e-14
4.03379e-14
5.14292e-14
6.54703e-14
2.66152e-16
1.9461e-16
1.52194e-16
1.30549e-16
1.24294e-16
1.30161e-16
1.46433e-16
1.72568e-16
2.08976e-16
2.56901e-16
3.18396e-16
3.96364e-16
4.94668e-16
6.18309e-16
7.73673e-16
9.68864e-16
1.21413e-15
1.52242e-15
1.91007e-15
2.39768e-15
3.01123e-15
3.78349e-15
4.75574e-15
5.98001e-15
7.5218e-15
9.46355e-15
1.19089e-14
1.49883e-14
1.88653e-14
2.37451e-14
2.98851e-14
3.76073e-14
4.73142e-14
5.9508e-14
7.48145e-14
9.40114e-14
1.18063e-13
1.48164e-13
1.85785e-13
2.32741e-13
2.91255e-13
3.64053e-13
4.54458e-13
5.6652e-13
7.05149e-13
8.76287e-13
1.0871e-12
1.34619e-12
1.66385e-12
2.05233e-12
1.49725e-15
1.81368e-15
2.21225e-15
2.70928e-15
3.32601e-15
4.08948e-15
5.03364e-15
6.20091e-15
7.6441e-15
9.42881e-15
1.16365e-14
1.43682e-14
1.77491e-14
2.19346e-14
2.7117e-14
3.35344e-14
4.14816e-14
5.13232e-14
6.35097e-14
7.85976e-14
9.7273e-14
1.20382e-13
1.48966e-13
1.84306e-13
2.27975e-13
2.81901e-13
3.48449e-13
4.30507e-13
5.31607e-13
6.56051e-13
8.09074e-13
9.97038e-13
1.22765e-12
1.51023e-12
1.85602e-12
2.27855e-12
2.79402e-12
3.4218e-12
4.18497e-12
5.11089e-12
6.23191e-12
7.58617e-12
9.2184e-12
1.1181e-11
1.35351e-11
1.63519e-11
1.9714e-11
2.37169e-11
2.84708e-11
3.41017e-11
3.60899e-14
4.39666e-14
5.35681e-14
6.5275e-14
7.95522e-14
9.69679e-14
1.18216e-13
1.44142e-13
1.75779e-13
2.14385e-13
2.61492e-13
3.18964e-13
3.89069e-13
4.74564e-13
5.78792e-13
7.0581e-13
8.60531e-13
1.0489e-12
1.2781e-12
1.55678e-12
1.8954e-12
2.30649e-12
2.80513e-12
3.40939e-12
4.14088e-12
5.02544e-12
6.09384e-12
7.38272e-12
8.93559e-12
1.0804e-11
1.30489e-11
1.57421e-11
1.89683e-11
2.28264e-11
2.74325e-11
3.29214e-11
3.94498e-11
4.71985e-11
5.63753e-11
6.72183e-11
7.99984e-11
9.50231e-11
1.1264e-10
1.33242e-10
1.57269e-10
1.85214e-10
2.17632e-10
2.55135e-10
2.98404e-10
3.48188e-10
3.53415e-13
4.31027e-13
5.25355e-13
6.39999e-13
7.79333e-13
9.48665e-13
1.15443e-12
1.40443e-12
1.70811e-12
2.0769e-12
2.52458e-12
3.0678e-12
3.72662e-12
4.52515e-12
5.49236e-12
6.66295e-12
8.07843e-12
9.78836e-12
1.18517e-11
1.43386e-11
1.73321e-11
2.09303e-11
2.52489e-11
3.04239e-11
3.66147e-11
4.40075e-11
5.28197e-11
6.33037e-11
7.57524e-11
9.05043e-11
1.07949e-10
1.28536e-10
1.52778e-10
1.8126e-10
2.14649e-10
2.53698e-10
2.99255e-10
3.52272e-10
4.13809e-10
4.85039e-10
5.67256e-10
6.61873e-10
7.70434e-10
8.94608e-10
1.03621e-09
1.19718e-09
1.37965e-09
1.58589e-09
1.81835e-09
2.07971e-09
2.85276e-12
3.48953e-12
4.25851e-12
5.18633e-12
6.30485e-12
7.65216e-12
9.27378e-12
1.1224e-11
1.35676e-11
1.63815e-11
1.97571e-11
2.38031e-11
2.86478e-11
3.44427e-11
4.13666e-11
4.96296e-11
5.94777e-11
7.11989e-11
8.51287e-11
1.01657e-10
1.21236e-10
1.44387e-10
1.71712e-10
2.03902e-10
2.41747e-10
2.86149e-10
3.38135e-10
3.98869e-10
4.69668e-10
5.52015e-10
6.47579e-10
7.58226e-10
8.86039e-10
1.03333e-09
1.20267e-09
1.39687e-09
1.61902e-09
1.87249e-09
2.16093e-09
2.48822e-09
2.85851e-09
3.27618e-09
3.7458e-09
4.27211e-09
4.86003e-09
5.51467e-09
6.24126e-09
7.04521e-09
7.93196e-09
8.90694e-09
7.30991e-12
9.1749e-12
1.146e-11
1.42532e-11
1.76601e-11
2.18073e-11
2.68464e-11
3.29581e-11
4.03584e-11
4.9304e-11
6.01004e-11
7.31098e-11
8.87613e-11
1.07562e-10
1.3011e-10
1.57108e-10
1.8938e-10
2.27886e-10
2.73746e-10
3.28255e-10
3.92908e-10
4.6942e-10
5.59753e-10
6.66138e-10
7.91106e-10
9.37508e-10
1.10855e-09
1.30781e-09
1.53928e-09
1.80739e-09
2.11701e-09
2.4735e-09
2.88268e-09
3.35088e-09
3.88489e-09
4.49193e-09
5.17963e-09
5.95594e-09
6.82912e-09
7.80761e-09
8.89998e-09
1.01149e-08
1.14611e-08
1.29472e-08
1.45822e-08
1.6375e-08
1.83347e-08
2.04706e-08
2.27922e-08
2.53083e-08
3.49695e-11
4.29068e-11
5.23855e-11
6.36845e-11
7.71335e-11
9.31214e-11
1.12107e-10
1.34631e-10
1.61329e-10
1.92949e-10
2.30371e-10
2.74624e-10
3.26915e-10
3.88655e-10
4.61488e-10
5.47327e-10
6.48387e-10
7.67226e-10
9.06779e-10
1.0704e-09
1.26191e-09
1.4856e-09
1.74631e-09
2.04945e-09
2.40102e-09
2.80766e-09
3.27673e-09
3.81627e-09
4.43513e-09
5.14296e-09
5.95022e-09
6.86814e-09
7.9087e-09
9.08445e-09
1.04084e-08
1.18937e-08
1.35537e-08
1.5402e-08
1.74522e-08
1.97181e-08
2.22143e-08
2.4956e-08
2.79591e-08
3.12396e-08
3.48128e-08
3.86927e-08
4.2891e-08
4.74169e-08
5.22766e-08
5.7473e-08
3.46073e-11
4.44431e-11
5.67403e-11
7.19905e-11
9.07286e-11
1.13654e-10
1.41496e-10
1.75092e-10
2.15577e-10
2.64294e-10
3.22794e-10
3.92833e-10
4.76541e-10
5.76847e-10
6.97299e-10
8.39597e-10
1.00857e-09
1.2079e-09
1.44283e-09
1.71975e-09
2.04556e-09
2.42828e-09
2.8767e-09
3.40094e-09
4.01282e-09
4.72288e-09
5.54453e-09
6.49322e-09
7.58498e-09
8.83722e-09
1.02688e-08
1.19001e-08
1.3753e-08
1.58505e-08
1.82164e-08
2.08747e-08
2.38485e-08
2.71597e-08
3.08279e-08
3.48708e-08
3.93038e-08
4.41411e-08
4.9396e-08
5.50819e-08
6.12124e-08
6.78002e-08
7.48571e-08
8.23919e-08
9.04098e-08
9.89125e-08
1.12233e-10
1.34614e-10
1.61181e-10
1.92428e-10
2.28954e-10
2.71443e-10
3.20913e-10
3.78689e-10
4.46247e-10
5.25445e-10
6.18104e-10
7.26734e-10
8.5446e-10
1.00482e-09
1.18192e-09
1.38982e-09
1.63413e-09
1.92081e-09
2.25687e-09
2.65095e-09
3.11277e-09
3.65383e-09
4.28564e-09
5.02246e-09
5.88092e-09
6.87867e-09
8.03576e-09
9.3749e-09
1.09191e-08
1.26944e-08
1.47275e-08
1.70515e-08
1.97005e-08
2.27099e-08
2.61049e-08
2.99191e-08
3.42016e-08
3.8993e-08
4.43314e-08
5.02486e-08
5.67644e-08
6.38894e-08
7.16164e-08
7.99191e-08
8.87517e-08
9.80545e-08
1.07766e-07
1.17843e-07
1.2828e-07
1.39111e-07
1.06693e-06
1.42163e-06
1.13487e-06
8.33645e-07
5.26059e-07
3.17548e-07
1.84416e-07
9.84154e-08
5.04621e-08
2.39536e-08
1.13336e-08
5.46362e-09
2.68119e-09
1.55674e-09
1.25293e-09
1.32567e-09
1.57054e-09
1.90831e-09
2.3159e-09
2.79225e-09
3.34463e-09
3.98412e-09
4.72437e-09
5.58155e-09
6.57512e-09
7.72693e-09
9.06108e-09
1.06048e-08
1.23885e-08
1.44482e-08
1.68264e-08
1.95605e-08
2.2695e-08
2.62709e-08
3.03349e-08
3.49419e-08
4.01506e-08
4.60294e-08
5.27001e-08
6.01944e-08
6.84906e-08
7.7672e-08
8.78121e-08
9.87652e-08
1.10335e-07
1.22297e-07
1.3436e-07
1.46214e-07
1.57637e-07
1.68646e-07
1.68977e-06
2.11643e-05
8.79483e-05
9.16959e-05
6.84522e-05
1.70667e-05
4.43946e-06
1.81551e-05
2.05498e-05
1.4154e-05
2.65276e-06
2.37583e-07
4.0178e-07
4.82213e-07
4.16731e-07
3.33316e-07
2.29455e-07
1.6526e-07
1.20774e-07
9.04004e-08
6.86031e-08
5.20133e-08
3.92542e-08
2.99438e-08
2.38791e-08
2.05429e-08
1.89835e-08
1.81132e-08
1.72079e-08
1.61942e-08
1.55035e-08
1.56327e-08
1.6847e-08
1.91445e-08
2.23838e-08
2.64219e-08
3.11804e-08
3.66494e-08
4.28758e-08
4.99113e-08
5.77955e-08
6.65915e-08
7.6372e-08
8.7166e-08
9.89659e-08
1.11692e-07
1.2515e-07
1.38834e-07
1.5188e-07
1.63298e-07
1.95246e-05
2.72712e-05
4.40027e-05
9.16628e-05
7.9755e-05
2.51629e-05
1.33863e-05
8.6365e-06
4.15777e-06
1.28292e-06
5.35778e-07
3.97426e-07
3.40307e-07
2.96419e-07
2.70162e-07
2.21671e-07
4.80775e-07
4.39408e-07
3.81407e-07
3.20014e-07
2.5696e-07
2.03091e-07
1.65338e-07
1.36051e-07
1.14175e-07
9.12456e-08
7.29948e-08
5.82593e-08
4.65561e-08
1.00318e-07
1.27695e-07
1.26745e-07
9.53063e-08
9.66569e-08
1.02603e-07
1.03861e-07
9.81593e-08
8.76817e-08
7.85148e-08
7.30501e-08
7.07686e-08
7.15859e-08
7.16961e-08
7.53036e-08
8.38778e-08
9.69365e-08
1.13216e-07
1.30939e-07
1.48067e-07
1.63719e-07
2.28046e-05
2.09625e-05
2.09638e-05
2.46387e-05
8.97614e-05
0.000284516
0.000299092
0.000298536
0.000164928
3.52722e-05
3.86695e-06
2.61924e-06
3.61987e-06
1.06886e-05
1.12624e-05
4.53087e-06
5.83731e-07
3.06468e-07
3.03101e-07
3.06986e-07
3.17158e-07
7.1433e-07
9.28436e-07
9.23056e-07
3.483e-07
2.64152e-07
3.61684e-07
3.59586e-06
1.39776e-05
6.53151e-06
9.80658e-07
1.84146e-07
2.55779e-07
2.41024e-07
2.05006e-07
1.90957e-07
1.9078e-07
1.96039e-07
2.00618e-07
2.13291e-07
6.38939e-07
4.72984e-07
3.80694e-07
2.83638e-07
2.07321e-07
1.54151e-07
1.23697e-07
1.12636e-07
1.154e-07
1.25868e-07
0.000423692
0.000165145
5.30017e-05
3.22022e-05
3.2265e-05
3.23279e-05
3.64566e-05
7.15459e-05
0.000397809
0.00115856
0.00119378
0.00119332
0.00115113
0.000502794
7.97816e-05
3.28485e-06
3.28254e-07
3.21362e-07
3.31305e-07
3.63057e-07
4.18174e-07
5.12137e-07
5.68877e-07
5.436e-07
4.46015e-07
3.66292e-07
3.63172e-07
1.60918e-06
2.41592e-05
3.98923e-05
3.99717e-05
2.08917e-05
3.40587e-06
2.37461e-07
2.12705e-07
2.04004e-07
2.06156e-07
2.12201e-07
2.27755e-07
2.75928e-07
3.8038e-07
8.19061e-07
9.831e-07
6.90454e-07
4.45927e-07
3.24833e-07
2.39137e-07
1.97463e-07
2.1091e-07
3.11303e-07
0.00372086
0.00229738
0.00130336
0.000650123
0.000397251
0.000294918
0.000182109
9.65808e-05
4.44543e-05
2.61293e-05
1.85179e-05
1.21026e-05
7.35116e-06
6.90813e-06
5.99982e-06
7.27775e-06
1.05211e-05
1.47599e-05
2.01475e-05
2.01554e-05
1.63241e-05
9.49827e-06
9.86745e-06
1.48744e-05
2.3894e-05
1.97234e-05
1.66991e-05
1.77452e-05
1.74073e-05
1.32983e-05
7.44596e-06
2.33653e-06
2.69238e-06
7.7522e-06
4.25072e-05
0.000162004
0.000183928
0.000171206
7.30331e-05
1.33425e-05
9.35877e-07
6.48248e-07
6.45938e-07
6.47398e-07
1.41487e-06
1.3401e-06
1.20344e-06
1.21475e-06
1.18421e-06
1.08945e-06
0.0910048
0.0536603
0.0321856
0.0184463
0.00898906
0.00362685
0.00113836
0.000332827
0.000111445
3.87713e-05
2.27752e-05
3.01858e-05
6.50829e-05
6.17712e-05
1.8576e-05
1.25053e-05
1.21165e-05
1.23783e-05
1.07133e-05
9.83081e-06
1.01554e-05
1.32962e-05
1.82483e-05
3.74454e-05
4.10462e-05
4.10828e-05
4.10468e-05
2.9214e-05
9.77963e-06
1.86297e-06
6.95358e-07
7.21281e-07
6.71233e-07
1.27089e-06
5.58213e-06
8.31991e-05
0.000184465
0.000122859
3.30143e-05
4.64082e-06
6.5343e-07
6.46312e-07
6.46017e-07
6.46722e-07
1.69599e-06
7.89708e-06
5.12762e-05
0.000250341
0.000434968
0.000433235
0.747894
0.537214
0.385797
0.280977
0.186576
0.105849
0.0478077
0.0155241
0.00362792
0.000827921
0.00020635
4.51993e-05
3.9936e-05
5.78419e-05
0.000106435
0.000120856
0.000120836
8.57665e-05
4.06365e-05
1.31619e-05
3.67743e-06
2.06262e-06
2.88316e-06
5.35544e-06
3.76158e-06
4.39483e-06
1.88751e-05
1.32879e-05
5.05524e-06
8.81711e-07
6.77925e-07
6.74684e-07
6.62792e-07
6.51417e-07
6.40253e-07
6.29759e-07
6.22892e-07
6.21281e-07
6.20746e-07
1.4224e-06
7.18773e-06
7.84357e-06
7.4706e-06
2.76073e-06
6.17647e-07
5.88106e-07
6.527e-07
6.6744e-07
7.18205e-07
9.2625e-07
0.999991
0.98928
0.959471
0.908352
0.802918
0.636924
0.441186
0.238699
0.0745664
0.0159195
0.00344392
0.000738886
0.000117077
1.45665e-05
2.36885e-06
2.41859e-06
3.00057e-06
2.86785e-06
4.01087e-06
3.20131e-06
2.00092e-06
1.53681e-06
1.26657e-06
1.06582e-06
9.50843e-07
8.66006e-07
7.90526e-07
7.48729e-07
7.18833e-07
7.0114e-07
6.83795e-07
6.66109e-07
6.50498e-07
6.361e-07
6.42484e-07
6.36993e-07
6.26745e-07
6.41387e-07
6.37461e-07
6.34091e-07
6.34731e-07
6.52605e-07
7.29342e-07
6.92198e-07
5.89179e-07
5.88005e-07
5.88795e-07
5.88214e-07
5.88187e-07
2.7489e-06
1.5082e-15
1.76182e-15
2.05878e-15
2.40651e-15
2.8137e-15
3.29046e-15
3.84862e-15
4.50195e-15
5.26652e-15
6.16097e-15
7.207e-15
8.4298e-15
9.85856e-15
1.15271e-14
1.34745e-14
1.57461e-14
1.83939e-14
2.14782e-14
2.50683e-14
2.92438e-14
3.40963e-14
3.97311e-14
4.62687e-14
5.38474e-14
6.26255e-14
7.27842e-14
8.45305e-14
9.81014e-14
1.13767e-13
1.31837e-13
1.52663e-13
1.76647e-13
2.04248e-13
2.3599e-13
2.72468e-13
3.14361e-13
3.62444e-13
4.17597e-13
4.80822e-13
5.5326e-13
6.36203e-13
7.31122e-13
8.39682e-13
9.63769e-13
1.10552e-12
1.26734e-12
1.45194e-12
1.66239e-12
1.90212e-12
2.17499e-12
2.48531e-12
2.83791e-12
3.23817e-12
3.6921e-12
4.20635e-12
4.78833e-12
5.44624e-12
6.18914e-12
7.02704e-12
7.97097e-12
9.03305e-12
1.02266e-11
1.15662e-11
1.30677e-11
1.47485e-11
1.66274e-11
1.87249e-11
2.10631e-11
2.36657e-11
2.65583e-11
2.97682e-11
3.33244e-11
3.72579e-11
4.16014e-11
4.63892e-11
5.16574e-11
5.74436e-11
6.37872e-11
7.07287e-11
7.831e-11
8.65745e-11
9.55665e-11
1.05331e-10
1.15915e-10
1.27366e-10
1.39732e-10
1.53063e-10
1.67409e-10
1.82821e-10
1.99354e-10
2.17063e-10
2.36006e-10
2.56245e-10
2.77845e-10
3.00878e-10
3.25423e-10
3.51569e-10
3.79416e-10
4.0908e-10
4.40695e-10
4.74419e-10
5.10435e-10
5.48958e-10
5.90236e-10
6.34556e-10
6.82243e-10
7.33658e-10
7.89198e-10
8.4929e-10
9.14377e-10
9.84911e-10
1.06134e-09
1.14409e-09
1.23355e-09
1.33008e-09
1.43397e-09
1.54548e-09
1.66479e-09
1.79205e-09
1.92737e-09
2.07081e-09
2.22243e-09
2.38227e-09
2.55033e-09
2.72665e-09
2.91124e-09
3.10412e-09
3.3053e-09
3.51477e-09
3.73251e-09
3.95844e-09
4.19245e-09
4.43435e-09
4.68389e-09
4.94078e-09
5.20467e-09
5.47522e-09
5.75215e-09
6.03518e-09
6.32417e-09
6.61899e-09
6.91958e-09
7.22588e-09
7.53776e-09
7.85501e-09
8.17731e-09
8.50423e-09
8.83524e-09
9.16977e-09
9.50723e-09
9.8471e-09
1.01889e-08
1.05317e-08
1.08739e-08
1.12134e-08
1.15489e-08
1.18793e-08
1.2204e-08
1.25159e-08
1.28123e-08
1.30929e-08
1.33575e-08
1.3606e-08
1.38388e-08
1.40564e-08
1.42593e-08
1.44484e-08
1.46244e-08
1.4788e-08
1.49394e-08
1.50786e-08
1.52048e-08
1.53169e-08
1.54136e-08
1.54932e-08
1.55544e-08
1.55956e-08
1.56152e-08
1.56111e-08
1.55814e-08
1.55237e-08
1.54355e-08
1.53149e-08
1.51601e-08
1.49709e-08
1.47485e-08
1.44959e-08
1.42176e-08
1.39183e-08
1.36025e-08
1.32731e-08
1.2931e-08
1.25748e-08
1.22025e-08
1.18151e-08
1.14177e-08
1.10163e-08
1.0614e-08
1.02107e-08
9.80394e-09
9.39081e-09
8.96916e-09
8.53959e-09
8.10577e-09
7.67116e-09
7.23689e-09
6.80291e-09
6.36945e-09
5.93803e-09
5.51173e-09
5.09355e-09
4.68488e-09
4.2864e-09
3.89988e-09
3.5273e-09
3.17051e-09
2.83192e-09
2.51404e-09
2.21866e-09
1.94662e-09
1.69771e-09
1.47092e-09
1.26501e-09
1.07895e-09
9.12044e-10
7.63755e-10
6.33562e-10
5.20618e-10
4.23698e-10
3.41323e-10
2.71926e-10
2.14052e-10
1.66309e-10
1.27403e-10
9.61431e-11
7.14148e-11
5.21764e-11
3.74626e-11
2.64116e-11
1.82687e-11
1.23875e-11
8.22766e-12
5.34882e-12
3.4011e-12
2.11377e-12
1.28304e-12
7.60066e-13
4.39141e-13
2.47309e-13
1.35688e-13
7.25092e-14
3.77406e-14
1.91451e-14
9.47971e-15
4.59598e-15
2.19378e-15
1.04057e-15
4.97713e-16
2.44952e-16
1.26931e-16
7.05051e-17
4.21539e-17
2.68321e-17
1.78422e-17
1.21684e-17
8.39758e-18
5.8152e-18
4.02124e-18
2.76976e-18
1.89794e-18
1.29313e-18
8.758e-19
5.89514e-19
3.94307e-19
2.62016e-19
1.72924e-19
1.13317e-19
7.37081e-20
4.75786e-20
3.04705e-20
1.93566e-20
1.21945e-20
7.61728e-21
4.71705e-21
2.89571e-21
1.7623e-21
1.06346e-21
6.36546e-22
3.78107e-22
2.23031e-22
1.30756e-22
7.62819e-23
4.43557e-23
2.57621e-23
1.4988e-23
8.76565e-24
5.17418e-24
3.08893e-24
1.83088e-24
9.19084e-25
8.3205e-14
9.51904e-14
1.08901e-13
1.24582e-13
1.42511e-13
1.63001e-13
1.86411e-13
2.13146e-13
2.43662e-13
2.78478e-13
3.1818e-13
3.63426e-13
4.14961e-13
4.73624e-13
5.40356e-13
6.16218e-13
7.024e-13
8.00238e-13
9.11229e-13
1.03705e-12
1.17958e-12
1.34091e-12
1.5234e-12
1.72967e-12
1.96264e-12
2.22559e-12
2.52216e-12
2.85641e-12
3.23289e-12
3.65665e-12
4.13333e-12
4.66922e-12
5.27131e-12
5.94741e-12
6.70622e-12
7.55745e-12
8.51187e-12
9.58153e-12
1.07798e-11
1.21216e-11
1.36235e-11
1.53038e-11
1.71829e-11
1.92834e-11
2.16304e-11
2.42513e-11
2.71766e-11
3.04396e-11
3.40771e-11
3.81292e-11
4.26398e-11
4.76568e-11
5.32321e-11
5.94222e-11
6.62881e-11
7.38959e-11
8.23165e-11
9.16262e-11
1.01907e-10
1.13246e-10
1.25736e-10
1.39477e-10
1.54573e-10
1.71137e-10
1.89284e-10
2.09137e-10
2.30827e-10
2.54487e-10
2.80258e-10
3.08285e-10
3.38718e-10
3.71712e-10
4.07427e-10
4.46025e-10
4.87671e-10
5.32535e-10
5.80788e-10
6.32602e-10
6.88152e-10
7.47615e-10
8.11166e-10
8.78985e-10
9.51251e-10
1.02815e-09
1.10986e-09
1.19657e-09
1.28848e-09
1.38579e-09
1.48871e-09
1.59746e-09
1.71229e-09
1.83345e-09
1.96124e-09
2.09597e-09
2.238e-09
2.38774e-09
2.54564e-09
2.71222e-09
2.88807e-09
3.07385e-09
3.27031e-09
3.47828e-09
3.69867e-09
3.93249e-09
4.1808e-09
4.44474e-09
4.72548e-09
5.02417e-09
5.34195e-09
5.67989e-09
6.03894e-09
6.4199e-09
6.82342e-09
7.24993e-09
7.69968e-09
8.17274e-09
8.66898e-09
9.18815e-09
9.72985e-09
1.02936e-08
1.08789e-08
1.1485e-08
1.21114e-08
1.27574e-08
1.34224e-08
1.41056e-08
1.48066e-08
1.55246e-08
1.62591e-08
1.70096e-08
1.77753e-08
1.85555e-08
1.93496e-08
2.01565e-08
2.09753e-08
2.1805e-08
2.26449e-08
2.34939e-08
2.43516e-08
2.52174e-08
2.60907e-08
2.69711e-08
2.78577e-08
2.87495e-08
2.96449e-08
3.0542e-08
3.14387e-08
3.23323e-08
3.32205e-08
3.41008e-08
3.49713e-08
3.58305e-08
3.66762e-08
3.75056e-08
3.83152e-08
3.91026e-08
3.98679e-08
4.06126e-08
4.13289e-08
4.20081e-08
4.26523e-08
4.32642e-08
4.38467e-08
4.4403e-08
4.49373e-08
4.54541e-08
4.59577e-08
4.64511e-08
4.69341e-08
4.74028e-08
4.785e-08
4.82674e-08
4.86472e-08
4.89844e-08
4.92761e-08
4.9521e-08
4.97171e-08
4.98611e-08
4.99475e-08
4.99686e-08
4.9914e-08
4.97701e-08
4.95197e-08
4.91475e-08
4.86526e-08
4.8055e-08
4.73873e-08
4.66829e-08
4.59689e-08
4.52608e-08
4.45548e-08
4.38183e-08
4.29962e-08
4.20477e-08
4.0986e-08
3.98948e-08
3.88375e-08
3.78221e-08
3.68228e-08
3.58028e-08
3.47192e-08
3.35395e-08
3.22781e-08
3.09893e-08
2.96978e-08
2.83927e-08
2.70604e-08
2.56887e-08
2.42749e-08
2.28479e-08
2.14298e-08
2.00107e-08
1.8584e-08
1.71601e-08
1.57568e-08
1.43778e-08
1.30386e-08
1.17569e-08
1.05448e-08
9.41088e-09
8.357e-09
7.37986e-09
6.47385e-09
5.63414e-09
4.85995e-09
4.15231e-09
3.51505e-09
2.94935e-09
2.45367e-09
2.0231e-09
1.65158e-09
1.33359e-09
1.06376e-09
8.3712e-10
6.49239e-10
4.95831e-10
3.7263e-10
2.75294e-10
1.99749e-10
1.42223e-10
9.92845e-11
6.78958e-11
4.54455e-11
2.97496e-11
1.90322e-11
1.18895e-11
7.24753e-12
4.30807e-12
2.49554e-12
1.40785e-12
7.73133e-13
4.13132e-13
2.14801e-13
1.08704e-13
5.36121e-14
2.5831e-14
1.22136e-14
5.71321e-15
2.67878e-15
1.28402e-15
6.44991e-16
3.47416e-16
2.02785e-16
1.27326e-16
8.43368e-17
5.77007e-17
4.01232e-17
2.80636e-17
1.96279e-17
1.3686e-17
9.49992e-18
6.56015e-18
4.50525e-18
3.0764e-18
2.08831e-18
1.40885e-18
9.44332e-19
6.28698e-19
4.1562e-19
2.72753e-19
1.77649e-19
1.14807e-19
7.36019e-20
4.67998e-20
2.95113e-20
1.84551e-20
1.14467e-20
7.04355e-21
4.30167e-21
2.60899e-21
1.57268e-21
9.43223e-22
5.63693e-22
3.36364e-22
2.00947e-22
1.20599e-22
7.30053e-23
4.47503e-23
2.76065e-23
1.53708e-23
2.52607e-12
2.8352e-12
3.18148e-12
3.56922e-12
4.00316e-12
4.4886e-12
5.03135e-12
5.63788e-12
6.3153e-12
7.07148e-12
7.91509e-12
8.85566e-12
9.90371e-12
1.10708e-11
1.23695e-11
1.38139e-11
1.54193e-11
1.72022e-11
1.91812e-11
2.13762e-11
2.38092e-11
2.65042e-11
2.94874e-11
3.27875e-11
3.64357e-11
4.04662e-11
4.49163e-11
4.98267e-11
5.52418e-11
6.12103e-11
6.77852e-11
7.50245e-11
8.29917e-11
9.17563e-11
1.01394e-10
1.11988e-10
1.2363e-10