/*--------------------------------*- C++ -*----------------------------------*\
| =========                 |                                                 |
| \\      /  F ield         | OpenFOAM: The Open Source CFD Toolbox           |
|  \\    /   O peration     | Version:  2.4.0                                 |
|   \\  /    A nd           | Web:      www.OpenFOAM.org                      |
|    \\/     M anipulation  |                                                 |
\*---------------------------------------------------------------------------*/
FoamFile
{
    version     2.0;
    format      ascii;
    class       volScalarField;
    location    "2.1";
    object      p_rgh;
}
// * * * * * * * * * * * * * * * * * * * * * * * * * * * * * * * * * * * * * //

dimensions      [1 -1 -2 0 0 0 0];

internalField   nonuniform List<scalar> 
8000
(
57.6895
57.663
57.649
57.653
57.6755
57.7132
57.7678
57.8372
57.927
58.0403
58.1917
58.3638
58.4274
57.4018
53.8824
47.668
26.2119
-0.814969
-0.0410901
-0.0127172
0.00629216
0.00521336
0.00152577
0.0019082
0.00231818
0.00247294
0.0025256
0.00255984
0.00259347
0.00262532
0.00265434
0.00268077
0.0027051
0.00272761
0.00274844
0.00276766
0.00278534
0.00280154
0.00281631
0.00282971
0.00284181
0.00285267
0.00286235
0.00287092
0.00287844
0.00288496
0.00289054
0.00289523
0.00289909
0.00290215
57.6459
57.6429
57.6541
57.683
57.7301
57.7934
57.8823
58.0211
58.2285
58.342
57.6521
54.3487
51.1611
35.6291
0.918744
-0.850237
0.447662
-0.00165264
0.0100821
0.00498218
0.00417864
0.00412869
0.00421005
0.00419297
0.00412787
0.00405376
0.00399024
0.0039363
0.00388883
0.00384648
0.00380872
0.00377516
0.00374537
0.0037189
0.00369533
0.00367428
0.0036554
0.00363838
0.00362295
0.00360888
0.00359595
0.00358399
0.00357285
0.0035624
0.00355251
0.00354308
0.00353404
0.00352529
0.00351679
0.00350846
53.5832
53.6312
53.6752
53.7106
53.7493
53.8453
54.0039
53.8562
51.9396
46.8521
41.8582
5.03377
-1.09379
0.495478
0.0147999
0.011552
0.00806765
0.00515703
0.00550216
0.00584113
0.00585461
0.00580999
0.00574604
0.00567983
0.00561849
0.00555952
0.00550138
0.00544423
0.00538872
0.00533529
0.00528413
0.00523527
0.00518864
0.00514411
0.00510151
0.00506068
0.00502142
0.00498356
0.00494696
0.00491146
0.00487694
0.00484329
0.00481042
0.00477825
0.00474671
0.00471572
0.00468525
0.00465524
0.00462565
0.00459644
51.8668
51.7935
51.7033
51.6404
51.6278
51.4163
50.0316
46.4853
22.572
-0.640428
0.123441
-0.00359147
0.0111618
0.0112252
0.00307654
0.00279087
0.00277901
0.00310787
0.00334259
0.00350948
0.00363667
0.00375019
0.0038531
0.0039444
0.0040243
0.00409358
0.00415336
0.00420491
0.00424938
0.00428773
0.00432085
0.0043495
0.00437432
0.00439587
0.00441458
0.00443082
0.00444489
0.00445704
0.00446745
0.00447628
0.00448366
0.00448969
0.00449445
0.00449802
0.00450046
0.00450181
0.00450213
0.00450144
0.0044998
0.00449722
53.7295
53.631
53.557
53.4667
52.8935
50.9697
36.2121
-0.555275
0.638783
0.0132057
0.0306588
0.0111412
0.00951764
0.00899195
0.00900792
0.00878655
0.00850664
0.00823028
0.00799325
0.00779633
0.00762849
0.00748373
0.00735832
0.00724937
0.00715423
0.00707051
0.00699625
0.0069298
0.00686972
0.00681484
0.00676414
0.0067168
0.00667211
0.00662951
0.00658851
0.00654874
0.00650986
0.00647164
0.00643385
0.00639633
0.00635896
0.00632163
0.00628427
0.00624681
0.00620923
0.00617149
0.00613358
0.00609549
0.00605721
0.00601876
58.7923
58.8058
58.8236
58.3758
56.4118
39.3658
0.0424737
0.0547546
0.0496737
0.0103907
0.00880727
0.00834826
0.00832104
0.00816753
0.00791952
0.00767627
0.00746875
0.00729237
0.00714139
0.00701166
0.00689991
0.00680368
0.00672082
0.00664934
0.00658741
0.00653349
0.00648632
0.00644482
0.00640805
0.0063752
0.00634557
0.00631859
0.00629376
0.00627064
0.00624887
0.00622815
0.00620822
0.00618885
0.00616988
0.00615113
0.00613248
0.00611381
0.00609502
0.00607604
0.0060568
0.00603724
0.00601731
0.00599697
0.0059762
0.00595497
60.7205
60.7232
60.6771
60.2617
59.1528
15.4651
0.0104213
0.0121279
0.0109205
0.0106187
0.0106211
0.0106311
0.0105268
0.0103875
0.010249
0.0101178
0.00999448
0.00987801
0.0097684
0.00966569
0.0095695
0.00947924
0.00939419
0.00931368
0.00923701
0.00916353
0.00909259
0.00902367
0.00895639
0.00889042
0.00882546
0.00876128
0.00869766
0.00863444
0.00857146
0.00850864
0.00844586
0.00838305
0.00832018
0.0082572
0.00819411
0.00813089
0.00806757
0.00800414
0.00794063
0.00787706
0.00781346
0.00774987
0.00768631
0.00762282
62.4997
62.5074
62.4166
61.8835
60.8768
6.01872
0.00542852
0.00918849
0.00823874
0.00811997
0.00807833
0.00803908
0.00800133
0.00796986
0.00794619
0.00792916
0.00791837
0.00791309
0.00791251
0.00791578
0.00792196
0.0079301
0.00793933
0.00794885
0.00795796
0.00796606
0.00797263
0.0079773
0.00797983
0.00798009
0.00797798
0.00797346
0.00796651
0.00795717
0.00794548
0.00793148
0.00791523
0.00789682
0.00787631
0.00785378
0.0078293
0.00780296
0.00777482
0.00774496
0.00771346
0.0076804
0.00764585
0.00760989
0.0075726
0.00753406
64.3652
64.4201
64.2116
62.9719
60.9516
1.20237
0.0097104
0.0126625
0.0120563
0.0119051
0.0119574
0.0120061
0.0120215
0.0120125
0.0119899
0.0119619
0.011936
0.0119169
0.0119047
0.0118964
0.0118877
0.0118754
0.0118569
0.0118306
0.0117959
0.0117523
0.0117
0.0116394
0.0115712
0.0114959
0.0114144
0.0113272
0.0112348
0.0111377
0.0110362
0.0109309
0.010822
0.01071
0.0105954
0.0104787
0.0103604
0.0102411
0.0101213
0.0100014
0.0098816
0.00976245
0.00964429
0.00952749
0.00941227
0.00929881
64.7831
64.919
64.404
61.4287
54.0755
-0.00216142
0.00568845
0.00620769
0.00586677
0.00547469
0.00505678
0.00464172
0.00428343
0.00400655
0.00382763
0.00377358
0.00386924
0.00411413
0.00448108
0.0049324
0.0054317
0.005959
0.00649922
0.00703618
0.00755409
0.00803879
0.00847899
0.00886804
0.00920427
0.00948961
0.00972837
0.00992549
0.0100852
0.0102106
0.0103048
0.0103706
0.0104111
0.0104295
0.010429
0.0104124
0.0103823
0.0103411
0.0102902
0.0102303
0.0101629
0.0100884
0.010008
0.00992241
0.00983196
0.00973713
65.1802
65.394
65.066
62.6368
40.649
-0.232328
-0.170468
-0.00872424
0.0313256
0.022873
0.020717
0.0206539
0.0208269
0.0206892
0.0203562
0.0198482
0.0191573
0.0183471
0.0176034
0.0172633
0.0170895
0.0169429
0.0167699
0.0165669
0.0163268
0.016067
0.0158213
0.0156068
0.0154219
0.0152595
0.0151222
0.0150332
0.0149888
0.0149386
0.0148561
0.0147358
0.0145781
0.014369
0.0140717
0.0136658
0.0132007
0.0127743
0.0123993
0.0120477
0.0116643
0.0112457
0.0108216
0.0104433
0.0101508
0.00990732
54.2075
54.6079
55.0702
54.7876
51.5748
29.4723
-6.6799
-3.57942
0.151489
0.176815
-0.0613932
-0.0954863
-0.132347
-0.137584
-0.133217
-0.117241
-0.0766225
-0.0186483
0.0126897
0.013272
0.01262
0.0165959
0.0192216
0.01972
0.0197232
0.0201957
0.0205679
0.0201922
0.0192428
0.0185237
0.0183413
0.0184573
0.0182548
0.0177933
0.0172545
0.0165949
0.0155962
0.0144153
0.0135502
0.0138993
0.0147968
0.014528
0.0131195
0.0132715
0.012938
0.0136703
0.0138103
0.013922
0.0136481
0.0137141
65.6212
65.7141
65.8217
65.929
65.9982
65.9324
65.518
65.0492
65.9318
59.628
34.2336
26.1927
24.1228
21.1567
17.7949
12.1355
5.2231
0.585724
0.421978
0.919692
0.939438
0.725318
0.427806
0.188635
0.0469897
-0.00320713
0.0140839
0.0336361
0.0343511
0.0285759
0.0479908
0.0786916
0.0963058
0.0965596
0.0867422
0.0794248
0.0623391
0.0542895
0.0579097
0.033888
0.223872
0.0553428
0.0295893
0.0493452
0.0340649
0.0457616
0.0652869
0.0438703
0.0275115
0.0210111
71.325
71.307
71.2926
71.2947
71.3099
71.3495
71.4117
71.5119
71.5451
71.5852
71.5171
71.461
71.5484
71.7222
72.1258
72.6714
73.3123
74.8723
74.8116
64.843
52.5146
46.7779
41.7814
36.1195
30.2865
23.3074
12.8311
3.38322
1.17201
2.14441
2.57541
2.46206
1.76468
1.08943
0.656091
0.496713
0.433056
0.298733
0.35968
0.305882
0.596284
0.00997886
0.0701967
0.103419
0.176491
0.00249149
-0.00415817
-0.00464937
-0.00419974
-0.00612199
74.2975
74.2727
74.2422
74.2158
74.1956
74.1798
74.1693
74.1633
74.16
74.16
74.1707
74.2038
74.2623
74.3523
74.4713
74.6299
74.8253
75.043
75.2523
75.4501
75.6116
75.8099
76.0584
76.3784
76.7634
77.2504
77.6866
77.876
74.5481
63.9578
49.022
40.2114
33.267
20.4736
6.23062
3.52588
5.24691
5.09396
4.04506
1.58459
1.81529
2.02308
1.24982
0.234433
0.127077
0.0595699
0.0202703
0.006549
-1.39499e-05
-0.00657772
81.6444
81.6231
81.6174
81.6283
81.6531
81.69
81.7397
81.8023
81.8778
81.9662
82.068
82.1835
82.3131
82.4568
82.6146
82.7864
82.9714
83.168
83.3767
83.6006
83.8438
84.112
84.4109
84.7442
85.1135
85.5204
85.9503
86.3826
86.8176
87.2478
87.671
88.2
88.8117
89.4796
89.8044
82.6703
72.8588
59.6184
38.4161
18.0343
15.3203
49.6644
41.135
31.2217
5.09306
1.96175
0.755366
0.296789
0.112429
0.0287072
79.1218
79.1311
79.1308
79.1246
79.1152
79.1034
79.0888
79.0718
79.052
79.0296
79.0045
78.9766
78.946
78.9125
78.8757
78.8355
78.7915
78.7434
78.6907
78.633
78.5699
78.5014
78.4269
78.3463
78.2588
78.1646
78.0624
77.9527
77.8363
77.7214
77.614
77.526
77.4575
77.3939
77.3144
77.2277
77.1592
77.1604
77.2912
76.8167
70.7946
44.8144
10.7974
8.94065
8.47879
5.34702
2.33214
1.1952
0.707726
0.422408
84.3664
84.3406
84.3177
84.2986
84.2815
84.2656
84.251
84.2376
84.2253
84.2139
84.2035
84.1937
84.1846
84.1757
84.1671
84.1583
84.1492
84.1394
84.1287
84.1168
84.1033
84.0877
84.0698
84.0489
84.0246
83.996
83.9627
83.9234
83.8776
83.8239
83.7616
83.6883
83.6032
83.5076
83.3968
83.2669
83.1379
83.0037
82.836
82.5884
82.4167
82.4012
82.4424
76.4545
64.5241
43.052
23.7933
21.3595
18.1922
10.2699
85.0963
85.0474
84.9933
84.9447
84.9019
84.864
84.8302
84.8007
84.7755
84.7545
84.7378
84.7255
84.7175
84.7141
84.7151
84.7209
84.7313
84.7467
84.7671
84.7927
84.8236
84.8601
84.9023
84.9505
85.0049
85.0658
85.1333
85.2079
85.2898
85.3794
85.4765
85.5794
85.6959
85.8197
85.9439
86.0905
86.2462
86.4104
86.5866
86.7759
87.0006
87.1838
87.3766
87.5517
87.7134
87.95
88.2176
84.7364
79.4185
72.192
87.0075
86.9592
86.9086
86.8636
86.8236
86.7875
86.7548
86.7256
86.6997
86.6771
86.6578
86.6417
86.6288
86.619
86.6124
86.6087
86.6081
86.6104
86.6157
86.6239
86.6351
86.6492
86.6663
86.6863
86.7093
86.7354
86.7645
86.7968
86.8324
86.8713
86.9137
86.958
87.0097
87.0702
87.1093
87.1735
87.2419
87.3144
87.3911
87.4707
87.5715
87.6677
87.7815
87.9022
88.0354
88.1722
88.3038
88.4272
88.5286
88.624
0.00290447
0.00290608
0.00290703
0.00290735
0.00290707
0.00290623
0.00290486
0.00290298
0.00290063
0.00289782
0.00289458
0.00289094
0.0028869
0.0028825
0.00287775
0.00287266
0.00286725
0.00286154
0.00285554
0.00284926
0.00284271
0.00283592
0.00282888
0.00282161
0.00281412
0.00280641
0.0027985
0.00279039
0.0027821
0.00277362
0.00276498
0.00275616
0.00274718
0.00273805
0.00272876
0.00271934
0.00270977
0.00270007
0.00269024
0.00268029
0.00267022
0.00266003
0.00264972
0.00263931
0.0026288
0.00261817
0.00260746
0.00259674
0.00258601
0.00257496
0.00350025
0.00349213
0.00348404
0.00347597
0.00346787
0.00345972
0.0034515
0.00344319
0.00343476
0.00342621
0.00341753
0.00340869
0.00339969
0.00339053
0.00338119
0.00337168
0.00336198
0.00335209
0.00334201
0.00333174
0.00332127
0.00331061
0.00329976
0.00328871
0.00327747
0.00326603
0.00325441
0.00324259
0.00323059
0.00321841
0.00320604
0.0031935
0.00318078
0.00316789
0.00315482
0.00314159
0.0031282
0.00311465
0.00310095
0.00308709
0.00307308
0.00305893
0.00304463
0.0030302
0.00301564
0.00300093
0.00298611
0.00297126
0.00295641
0.00294119
0.00456759
0.00453907
0.00451084
0.0044829
0.00445522
0.00442777
0.00440056
0.00437356
0.00434676
0.00432015
0.00429372
0.00426746
0.00424136
0.00421541
0.0041896
0.00416394
0.00413841
0.004113
0.00408772
0.00406256
0.0040375
0.00401256
0.00398772
0.00396298
0.00393834
0.0039138
0.00388935
0.00386499
0.00384071
0.00381652
0.00379241
0.00376838
0.00374443
0.00372056
0.00369676
0.00367303
0.00364938
0.00362579
0.00360228
0.00357883
0.00355544
0.00353212
0.00350887
0.00348567
0.00346253
0.00343944
0.00341642
0.00339357
0.00337095
0.00334816
0.00449375
0.00448941
0.00448422
0.00447822
0.00447143
0.00446387
0.00445557
0.00444656
0.00443685
0.00442646
0.00441543
0.00440376
0.00439148
0.00437862
0.00436518
0.0043512
0.00433667
0.00432164
0.00430611
0.00429009
0.00427361
0.00425669
0.00423933
0.00422155
0.00420337
0.0041848
0.00416586
0.00414656
0.0041269
0.00410692
0.00408661
0.00406598
0.00404506
0.00402385
0.00400236
0.0039806
0.00395859
0.00393633
0.00391384
0.00389111
0.00386817
0.00384501
0.00382165
0.00379811
0.00377436
0.00375043
0.00372635
0.00370226
0.00367818
0.0036535
0.00598013
0.00594135
0.00590243
0.00586337
0.0058242
0.00578493
0.00574558
0.00570616
0.00566669
0.00562719
0.00558768
0.00554815
0.00550864
0.00546915
0.0054297
0.00539029
0.00535094
0.00531166
0.00527246
0.00523334
0.00519431
0.00515538
0.00511656
0.00507785
0.00503926
0.00500079
0.00496245
0.00492423
0.00488616
0.00484821
0.00481041
0.00477275
0.00473524
0.00469786
0.00466064
0.00462356
0.00458663
0.00454984
0.00451321
0.00447672
0.00444037
0.00440418
0.00436813
0.00433222
0.00429646
0.00426081
0.00422532
0.00419014
0.00415535
0.00412041
0.00593325
0.00591103
0.00588831
0.00586508
0.00584132
0.00581705
0.00579227
0.00576697
0.00574117
0.00571487
0.00568808
0.00566081
0.00563308
0.00560489
0.00557626
0.00554719
0.00551771
0.00548783
0.00545755
0.0054269
0.00539589
0.00536452
0.00533282
0.0053008
0.00526847
0.00523584
0.00520293
0.00516974
0.0051363
0.00510261
0.00506869
0.00503455
0.00500019
0.00496563
0.00493088
0.00489595
0.00486085
0.00482558
0.00479016
0.0047546
0.00471889
0.00468306
0.00464711
0.00461104
0.00457485
0.00453854
0.00450217
0.00446591
0.00442982
0.00439304
0.00755943
0.00749618
0.00743308
0.00737017
0.00730749
0.00724505
0.00718287
0.00712098
0.0070594
0.00699814
0.00693722
0.00687665
0.00681644
0.00675659
0.00669712
0.00663803
0.00657933
0.00652101
0.00646308
0.00640554
0.00634838
0.00629161
0.00623523
0.00617923
0.00612361
0.00606837
0.0060135
0.005959
0.00590486
0.00585108
0.00579766
0.00574458
0.00569186
0.00563946
0.00558741
0.00553568
0.00548427
0.00543318
0.0053824
0.00533192
0.00528174
0.00523186
0.00518226
0.00513293
0.00508388
0.00503507
0.00498654
0.0049385
0.00489105
0.00484341
0.00749434
0.00745352
0.00741166
0.00736884
0.00732512
0.00728058
0.00723527
0.00718925
0.00714258
0.00709531
0.0070475
0.00699919
0.00695042
0.00690125
0.0068517
0.00680181
0.00675163
0.00670118
0.00665049
0.0065996
0.00654852
0.0064973
0.00644594
0.00639448
0.00634293
0.00629132
0.00623967
0.00618799
0.0061363
0.00608461
0.00603295
0.00598132
0.00592973
0.0058782
0.00582674
0.00577536
0.00572406
0.00567286
0.00562175
0.00557075
0.00551985
0.00546907
0.00541841
0.00536786
0.00531743
0.00526708
0.0052169
0.00516712
0.00511777
0.00506775
0.00918723
0.0090776
0.00897001
0.00886451
0.00876116
0.00865995
0.00856086
0.00846384
0.00836884
0.00827579
0.00818463
0.00809526
0.00800761
0.00792157
0.00783707
0.00775401
0.00767232
0.00759192
0.00751274
0.0074347
0.00735776
0.00728186
0.00720694
0.00713297
0.00705989
0.00698767
0.00691627
0.00684567
0.00677583
0.00670671
0.00663831
0.00657058
0.00650351
0.00643708
0.00637126
0.00630604
0.00624139
0.0061773
0.00611375
0.00605071
0.00598818
0.00592614
0.00586457
0.00580346
0.00574277
0.00568247
0.00562262
0.00556345
0.00550507
0.00544651
0.00963871
0.00953727
0.00943363
0.00932854
0.00922258
0.00911629
0.00901001
0.00890402
0.0087986
0.00869399
0.00859039
0.00848795
0.00838673
0.00828682
0.00818825
0.00809106
0.00799525
0.00790084
0.00780783
0.00771619
0.00762592
0.00753699
0.00744941
0.00736314
0.00727818
0.0071945
0.00711209
0.00703094
0.00695101
0.00687229
0.00679476
0.0067184
0.00664318
0.00656909
0.00649609
0.00642416
0.00635327
0.00628339
0.0062145
0.00614657
0.00607955
0.00601342
0.00594815
0.0058837
0.00582002
0.00575705
0.00569486
0.00563369
0.00557352
0.00551284
0.00967971
0.00945401
0.00922758
0.00901883
0.00884207
0.00870893
0.0085978
0.00849789
0.00840516
0.00832396
0.00825692
0.00819896
0.00814586
0.00809524
0.00804551
0.00799564
0.00794479
0.00789242
0.00783825
0.0077822
0.0077243
0.00766466
0.00760345
0.00754084
0.00747702
0.0074122
0.00734656
0.00728027
0.00721351
0.00714641
0.00707911
0.00701172
0.00694434
0.00687707
0.00680997
0.00674313
0.0066766
0.00661043
0.00654466
0.00647934
0.00641447
0.00635009
0.0062862
0.00622279
0.00615984
0.00609733
0.00603529
0.00597392
0.00591337
0.00585317
0.0134271
0.0133105
0.013052
0.012807
0.0126397
0.0124402
0.0122411
0.0120003
0.0117386
0.0114913
0.0112245
0.0109461
0.0106651
0.0103842
0.0101069
0.00983437
0.00956818
0.00930982
0.00906036
0.00882061
0.00859102
0.00837186
0.00816323
0.00796508
0.00777726
0.0075995
0.0074315
0.00727286
0.00712321
0.00698212
0.00684919
0.00672398
0.00660605
0.00649498
0.00639031
0.00629162
0.00619849
0.00611056
0.00602743
0.00594875
0.00587417
0.00580336
0.00573603
0.00567189
0.00561063
0.00555198
0.00549581
0.00544211
0.00539056
0.00533899
0.0225018
0.0140748
0.0190726
0.0212814
0.00827555
0.00505398
0.0107892
0.00502041
0.00663424
0.00344492
0.00303627
0.0032085
0.00341365
0.00366709
0.00386864
0.00408593
0.00428861
0.004476
0.00464899
0.00480763
0.00495199
0.00508265
0.00520035
0.00530553
0.00539894
0.00548102
0.00555245
0.00561432
0.00566833
0.00571414
0.00575347
0.00578575
0.00581123
0.00583043
0.00584409
0.005853
0.00585778
0.00585897
0.00585704
0.00585247
0.00584565
0.00583693
0.00582669
0.00581526
0.00580284
0.00578958
0.00577558
0.00576089
0.00574575
0.00573162
-0.00687728
-0.00715091
-0.00662063
0.0198267
0.0124694
0.00947505
0.00953006
0.00938537
0.00845136
0.00756999
0.00712729
0.0067427
0.0064915
0.00625465
0.00601755
0.0058231
0.00563581
0.00546944
0.00530096
0.0051664
0.00503912
0.00492059
0.00481
0.00470542
0.00460474
0.00450935
0.00442163
0.00434087
0.00427445
0.0042328
0.00419923
0.00417597
0.00415516
0.00414172
0.00413177
0.00412602
0.00412097
0.00411774
0.00411644
0.00411632
0.00411647
0.00411728
0.00411917
0.00412139
0.00412412
0.0041285
0.00413445
0.00414183
0.00415017
0.0041575
-0.00988854
-0.00899524
-0.0084249
-0.00807628
-0.002172
0.0158022
0.0272577
0.0244174
0.01149
0.00710706
0.0093289
0.00973263
0.0100014
0.0108038
0.0108117
0.00817868
0.00748804
0.00717228
0.00689137
0.00661205
0.00633936
0.00609304
0.00594931
0.00569109
0.00541763
0.00521487
0.00492957
0.00487847
0.0103244
0.00600334
0.00560397
0.00549484
0.00530288
0.00512617
0.00495034
0.0047948
0.00466195
0.00453967
0.00446936
0.00441575
0.00449541
0.00436299
0.00430558
0.0042825
0.00427469
0.00428454
0.00431337
0.00436517
0.00443387
0.00453152
-0.00860221
-0.0226667
-0.025053
-0.0235281
-0.0232577
-0.0230104
-0.0235638
-0.0197171
0.0107677
0.0894371
0.136533
0.121765
0.0979727
0.0342887
-0.0024261
-0.00919117
-0.00921384
-0.00900184
-0.00885687
-0.00870585
-0.00850704
-0.00830648
-0.00812692
-0.00797918
-0.00783095
-0.00766081
-0.00752642
-0.00758221
-0.00592897
0.00311875
0.00299897
0.00118581
-8.22378e-05
-3.24818e-05
-8.59655e-05
-0.000214458
-0.00039469
-0.000404514
-0.000521089
-0.000723092
-0.00100486
-0.00134387
-0.0016384
-0.00226063
-0.00280477
-0.00341982
-0.00411809
-0.00490199
-0.00580685
-0.00681176
0.291646
0.19247
0.101096
0.0511436
0.0351371
0.0223615
0.00306329
-0.00636995
-0.00472726
-0.00230754
-0.0023092
-0.00223599
-0.00241594
-0.00241805
-0.00234521
-0.00263488
-0.00262973
-0.00225055
-0.00130966
-0.00105518
-0.00277851
-0.00209993
-0.00195769
-0.00283521
0.00127838
-0.000590139
-0.000435952
6.80611e-05
0.000321388
0.000331035
0.000199073
0.00166236
0.00178071
0.00182887
0.00567324
0.0174864
0.0319979
0.0237315
0.0134772
0.0076994
0.00632859
0.00621684
0.00613955
0.00600307
0.00597371
0.00574393
0.00549786
0.00529528
0.00507386
0.00472763
5.96135
3.74152
2.40512
1.43848
0.705954
0.282175
0.0826598
0.0125852
-0.0114103
-0.0184347
-0.0124428
-0.0151717
0.00174863
0.000405954
-0.00219719
-0.0013767
-0.000956743
-0.000639135
-0.000907928
-0.000478329
-0.000429445
-6.30806e-05
0.000623039
0.00255757
0.00338974
0.00363104
0.00358344
0.00219109
0.000363373
-0.000443953
-0.000671147
-0.000868383
-0.00112045
-0.00136638
-0.0008353
0.00647561
0.0655882
0.0283873
0.0184271
0.0149074
0.0141223
0.0138711
0.0136413
0.0133775
0.0132105
0.014033
0.0198397
0.0413487
0.0632776
0.0657638
57.9467
40.9187
29.9688
22.5197
15.2258
8.65933
3.97546
1.35904
0.328307
0.0709066
0.0144141
0.00100421
0.00340914
-0.00344492
0.00150498
0.0109299
0.0106993
0.0072017
0.00318437
0.000769843
-1.19424e-05
0.000550099
0.000311846
0.00105397
0.00103988
0.000999374
0.00781584
0.00479672
0.00350532
0.00325832
0.00338106
0.00355141
0.00374004
0.00394497
0.00415478
0.00440879
0.00470183
0.00507756
0.00536697
0.00549527
0.00611381
0.00670931
0.00656994
0.00620417
0.00605421
0.00603531
0.00596568
0.00589317
0.00581307
0.00565447
88.6458
86.7421
83.0227
77.37
67.2679
53.0553
37.0209
20.2436
6.31054
1.32604
0.280646
0.0573285
0.00667951
-0.00106931
-0.000613447
-0.000689734
-0.000566894
-0.000481816
-0.000128716
-0.000319885
-0.000494849
-0.000424083
-0.000332898
-0.000236687
-0.00014822
-5.98536e-05
2.78854e-05
0.000122563
0.000212188
0.000290463
0.000356706
0.000413556
0.000459066
0.000493426
0.000513882
0.000526059
0.000543882
0.000553556
0.000570473
0.000571189
0.000545568
0.000498218
0.00045756
0.000366425
0.000231892
0.000101089
-5.58785e-05
-0.000240833
-0.000460836
0.000450211
0.00256541
0.00255799
0.00255024
0.00254243
0.00253459
0.00252673
0.00251883
0.00251088
0.00250289
0.00249486
0.00248678
0.00247865
0.00247049
0.00246228
0.00245403
0.00244573
0.00243739
0.00242901
0.00242059
0.00241212
0.00240361
0.00239506
0.00238647
0.00237783
0.00236915
0.00236043
0.00235167
0.00234286
0.00233401
0.00232513
0.0023162
0.00230723
0.00229821
0.00228916
0.00228007
0.00227093
0.00226176
0.00225255
0.0022433
0.002234
0.00222467
0.00221531
0.0022059
0.00219645
0.00218697
0.00217745
0.0021679
0.0021583
0.00214867
0.00213901
0.00212931
0.00211958
0.00210981
0.00210001
0.00209018
0.00208031
0.00207041
0.00206048
0.00205052
0.00204053
0.00203052
0.00202047
0.00201039
0.00200029
0.00199016
0.00198001
0.00196983
0.00195963
0.00194941
0.00193916
0.00192889
0.0019186
0.0019083
0.00189797
0.00188763
0.00187728
0.00186691
0.00185652
0.00184613
0.00183572
0.0018253
0.00181488
0.00180445
0.00179401
0.00178358
0.00177314
0.00176269
0.00175226
0.00174182
0.00173139
0.00172096
0.00171055
0.00170014
0.00168975
0.00167937
0.00166901
0.00165867
0.00164835
0.00163805
0.00162778
0.00161754
0.00160732
0.00159715
0.001587
0.0015769
0.00156684
0.00155682
0.00154685
0.00153693
0.00152706
0.00151725
0.0015075
0.00149781
0.00148819
0.00147864
0.00146916
0.00145976
0.00145044
0.00144121
0.00143206
0.00142301
0.00141405
0.00140519
0.00139644
0.0013878
0.00137927
0.00137085
0.00136256
0.0013544
0.00134636
0.00133847
0.00133071
0.00132309
0.00131563
0.00130832
0.00130117
0.00129419
0.00128738
0.00128074
0.00127428
0.00126801
0.00126193
0.00125604
0.00125036
0.00124489
0.00123962
0.00123458
0.00122976
0.00122516
0.0012208
0.00121668
0.00121281
0.00120918
0.00120581
0.0012027
0.00119984
0.00119724
0.00119491
0.00119289
0.00119115
0.0011897
0.00118854
0.00118768
0.00118712
0.00118686
0.0011869
0.00118725
0.00118792
0.00118889
0.00119018
0.00119178
0.0011937
0.00119594
0.0011985
0.00120138
0.00120458
0.00120811
0.00121195
0.00121612
0.00122062
0.00122545
0.00123059
0.00123607
0.00124186
0.00124798
0.00125441
0.00126115
0.0012682
0.00127554
0.00128317
0.00129109
0.00129928
0.00130775
0.00131648
0.00132545
0.00133466
0.00134409
0.00135372
0.00136354
0.00137354
0.0013837
0.001394
0.00140443
0.00141498
0.00142561
0.00143632
0.00144709
0.0014579
0.00146873
0.00147956
0.00149038
0.00150117
0.0015119
0.00152257
0.00153315
0.00154363
0.00155399
0.00156422
0.00157429
0.00158419
0.00159391
0.00160343
0.00161274
0.00162183
0.00163069
0.0016393
0.00164766
0.00165576
0.00166359
0.00167114
0.00167842
0.0016854
0.0016921
0.0016985
0.00170461
0.00171042
0.00171594
0.00172116
0.00172609
0.00173072
0.00173507
0.00173912
0.0017429
0.00174639
0.00174961
0.00175257
0.00175526
0.00175769
0.00175987
0.0017618
0.0017635
0.00176497
0.00176622
0.00176725
0.00176807
0.00176869
0.00176913
0.00176937
0.00176945
0.00176935
0.0017691
0.00176869
0.00176814
0.00176746
0.00176664
0.00176571
0.00176467
0.00176353
0.00176229
0.00176096
0.00175956
0.00175808
0.00175653
0.00175494
0.00175329
0.0017516
0.00174987
0.00174812
0.00174634
0.00174455
0.00174276
0.00174097
0.00173918
0.00173741
0.00173566
0.00173394
0.00173226
0.00173061
0.00172902
0.00172749
0.00172602
0.00172463
0.00172332
0.00172211
0.00172099
0.00171999
0.0017191
0.00171836
0.00171776
0.00171733
0.0029283
0.00291836
0.00290798
0.00289754
0.0028871
0.00287664
0.00286612
0.00285556
0.00284494
0.00283428
0.00282356
0.0028128
0.00280198
0.00279112
0.0027802
0.00276923
0.00275821
0.00274714
0.00273602
0.00272485
0.00271363
0.00270235
0.00269103
0.00267965
0.00266823
0.00265675
0.00264522
0.00263363
0.002622
0.00261032
0.00259858
0.0025868
0.00257496
0.00256308
0.00255114
0.00253915
0.00252712
0.00251503
0.00250289
0.00249071
0.00247847
0.00246619
0.00245386
0.00244147
0.00242905
0.00241657
0.00240405
0.00239148
0.00237886
0.0023662
0.00235349
0.00234074
0.00232794
0.0023151
0.00230222
0.00228929
0.00227632
0.00226331
0.00225026
0.00223717
0.00222404
0.00221088
0.00219767
0.00218443
0.00217116
0.00215785
0.0021445
0.00213113
0.00211772
0.00210428
0.00209082
0.00207733
0.0020638
0.00205026
0.00203669
0.0020231
0.00200949
0.00199586
0.00198221
0.00196854
0.00195486
0.00194117
0.00192747
0.00191376
0.00190004
0.00188631
0.00187259
0.00185886
0.00184514
0.00183142
0.0018177
0.001804
0.0017903
0.00177662
0.00176296
0.00174931
0.00173569
0.00172209
0.00170852
0.00169499
0.00168148
0.00166802
0.00165459
0.00164121
0.00162788
0.0016146
0.00160138
0.00158821
0.00157511
0.00156208
0.00154912
0.00153623
0.00152343
0.00151071
0.00149808
0.00148555
0.00147312
0.00146079
0.00144857
0.00143646
0.00142448
0.00141262
0.00140089
0.0013893
0.00137786
0.00136656
0.00135541
0.00134443
0.00133361
0.00132296
0.0013125
0.00130222
0.00129213
0.00128223
0.00127255
0.00126307
0.00125381
0.00124477
0.00123596
0.00122739
0.00121906
0.00121098
0.00120315
0.00119559
0.0011883
0.00118128
0.00117454
0.00116809
0.00116193
0.00115608
0.00115053
0.00114529
0.00114038
0.00113579
0.00113153
0.00112763
0.00112409
0.00112093
0.00111797
0.00111538
0.00111317
0.00111134
0.00110988
0.0011088
0.0011081
0.00110779
0.00110787
0.00110835
0.00110922
0.00111049
0.00111215
0.00111421
0.00111667
0.00111952
0.00112277
0.00112643
0.00113049
0.00113497
0.00113987
0.00114522
0.00115101
0.00115726
0.00116398
0.00117117
0.00117883
0.00118695
0.0011955
0.00120449
0.0012139
0.00122375
0.00123403
0.00124475
0.00125591
0.00126749
0.00127944
0.00129175
0.00130436
0.00131725
0.00133041
0.00134383
0.0013575
0.00137138
0.00138545
0.00139966
0.00141397
0.00142836
0.00144282
0.00145732
0.00147184
0.00148633
0.00150077
0.00151513
0.00152938
0.00154349
0.00155745
0.00157122
0.00158478
0.00159811
0.00161117
0.00162395
0.00163643
0.00164859
0.0016604
0.00167186
0.00168295
0.00169365
0.00170396
0.00171387
0.00172337
0.00173246
0.00174112
0.00174936
0.00175718
0.00176457
0.00177154
0.00177809
0.00178423
0.00178995
0.00179526
0.00180018
0.0018047
0.00180883
0.00181259
0.00181598
0.00181901
0.00182169
0.00182403
0.00182604
0.00182774
0.00182912
0.00183022
0.00183102
0.00183156
0.00183183
0.00183186
0.00183165
0.0018312
0.00183055
0.00182968
0.00182863
0.00182739
0.00182598
0.00182441
0.00182268
0.00182082
0.00181883
0.00181671
0.00181449
0.00181216
0.00180974
0.00180724
0.00180466
0.00180202
0.00179932
0.00179658
0.00179379
0.00179097
0.00178813
0.00178528
0.00178241
0.00177954
0.00177668
0.00177384
0.00177101
0.00176821
0.00176545
0.00176273
0.00176006
0.00175745
0.0017549
0.00175242
0.00175002
0.00174772
0.00174551
0.00174341
0.00174142
0.00173956
0.00173785
0.00173629
0.00173492
0.00332953
0.00331529
0.00330043
0.00328551
0.0032706
0.00325568
0.00324073
0.00322573
0.00321069
0.0031956
0.00318048
0.00316532
0.00315011
0.00313487
0.00311958
0.00310426
0.00308889
0.00307348
0.00305803
0.00304254
0.00302701
0.00301144
0.00299582
0.00298017
0.00296447
0.00294873
0.00293295
0.00291713
0.00290127
0.00288536
0.00286942
0.00285343
0.0028374
0.00282133
0.00280522
0.00278907
0.00277288
0.00275665
0.00274038
0.00272406
0.00270771
0.00269132
0.00267489
0.00265841
0.0026419
0.00262535
0.00260876
0.00259214
0.00257547
0.00255877
0.00254203
0.00252526
0.00250844
0.00249159
0.00247471
0.00245779
0.00244084
0.00242385
0.00240684
0.00238978
0.0023727
0.00235559
0.00233844
0.00232127
0.00230407
0.00228684
0.00226958
0.0022523
0.00223499
0.00221766
0.00220031
0.00218293
0.00216554
0.00214812
0.00213069
0.00211324
0.00209578
0.0020783
0.00206082
0.00204332
0.00202581
0.0020083
0.00199079
0.00197327
0.00195575
0.00193823
0.00192071
0.0019032
0.0018857
0.00186821
0.00185073
0.00183327
0.00181583
0.00179841
0.00178101
0.00176365
0.00174631
0.001729
0.00171174
0.00169451
0.00167733
0.00166019
0.00164311
0.00162608
0.00160912
0.00159221
0.00157538
0.00155862
0.00154194
0.00152534
0.00150883
0.00149241
0.0014761
0.00145988
0.00144378
0.00142779
0.00141193
0.00139619
0.00138059
0.00136513
0.00134981
0.00133465
0.00131964
0.00130481
0.00129014
0.00127566
0.00126136
0.00124725
0.00123335
0.00121965
0.00120618
0.00119292
0.0011799
0.00116712
0.00115459
0.00114231
0.0011303
0.00111856
0.00110711
0.00109595
0.00108509
0.00107455
0.00106432
0.00105442
0.00104486
0.00103565
0.0010268
0.00101832
0.00101022
0.00100252
0.000995212
0.000988324
0.000981862
0.000975839
0.000970267
0.000965156
0.000960496
0.000956298
0.000952746
0.000949831
0.000947454
0.00094562
0.000944344
0.000943648
0.000943545
0.000944026
0.000945091
0.000946739
0.000948928
0.000951633
0.000954818
0.000958449
0.000962511
0.000967011
0.000971954
0.000977353
0.00098323
0.000989604
0.000996506
0.00100399
0.0010121
0.00102091
0.00103048
0.00104078
0.0010518
0.00106345
0.00107566
0.00108847
0.00110187
0.0011159
0.00113063
0.00114611
0.00116225
0.00117898
0.00119627
0.00121396
0.00123194
0.00125019
0.00126873
0.0012876
0.00130684
0.00132634
0.00134604
0.0013658
0.00138556
0.0014053
0.00142506
0.00144486
0.00146464
0.00148431
0.00150381
0.00152307
0.0015421