/*--------------------------------*- C++ -*----------------------------------*\
| =========                 |                                                 |
| \\      /  F ield         | OpenFOAM: The Open Source CFD Toolbox           |
|  \\    /   O peration     | Version:  2.4.0                                 |
|   \\  /    A nd           | Web:      www.OpenFOAM.org                      |
|    \\/     M anipulation  |                                                 |
\*---------------------------------------------------------------------------*/
FoamFile
{
    version     2.0;
    format      ascii;
    class       volScalarField;
    location    "4.3";
    object      p_rgh;
}
// * * * * * * * * * * * * * * * * * * * * * * * * * * * * * * * * * * * * * //

dimensions      [1 -1 -2 0 0 0 0];

internalField   nonuniform List<scalar> 
125
(
-5.18409e-06
-5.17886e-06
-5.16886e-06
-5.1735e-06
-5.18622e-06
-5.1784e-06
-5.17338e-06
-5.1638e-06
-5.16824e-06
-5.18042e-06
-5.17265e-06
-5.16785e-06
-5.15868e-06
-5.16293e-06
-5.17457e-06
-5.16684e-06
-5.16226e-06
-5.15349e-06
-5.15755e-06
-5.16866e-06
-5.16098e-06
-5.15661e-06
-5.14824e-06
-5.15211e-06
-5.16269e-06
-5.15505e-06
-5.15089e-06
-5.14292e-06
-5.1466e-06
-5.15666e-06
-5.14907e-06
-5.14511e-06
-5.13754e-06
-5.14103e-06
-5.15058e-06
-5.14302e-06
-5.13927e-06
-5.13209e-06
-5.1354e-06
-5.14443e-06
-5.13691e-06
-5.13336e-06
-5.12658e-06
-5.1297e-06
-5.13822e-06
-5.13074e-06
-5.12739e-06
-5.121e-06
-5.12393e-06
-5.13195e-06
-5.1245e-06
-5.12135e-06
-5.11535e-06
-5.1181e-06
-5.12562e-06
-5.1182e-06
-5.11525e-06
-5.10963e-06
-5.1122e-06
-5.11922e-06
-5.11184e-06
-5.10908e-06
-5.10384e-06
-5.10623e-06
-5.11275e-06
-5.1054e-06
-5.10284e-06
-5.09798e-06
-5.10019e-06
-5.10622e-06
-5.0989e-06
-5.09653e-06
-5.09205e-06
-5.09408e-06
-5.09962e-06
-5.09233e-06
-5.09015e-06
-5.08606e-06
-5.08791e-06
-5.09295e-06
-5.08569e-06
-5.0837e-06
-5.07999e-06
-5.08166e-06
-5.08622e-06
-5.07898e-06
-5.07719e-06
-5.07385e-06
-5.07534e-06
-5.07941e-06
-5.0722e-06
-5.07059e-06
-5.06764e-06
-5.06895e-06
-5.07253e-06
-5.06534e-06
-5.06393e-06
-5.06135e-06
-5.06249e-06
-5.06558e-06
-5.05841e-06
-5.05719e-06
-5.055e-06
-5.05595e-06
-5.05855e-06
-5.05139e-06
-5.05038e-06
-5.0486e-06
-5.04935e-06
-5.05142e-06
-5.04426e-06
-5.0435e-06
-5.04217e-06
-5.04271e-06
-5.04417e-06
-5.03712e-06
-5.03654e-06
-5.03556e-06
-5.03593e-06
-5.03694e-06
-5.03038e-06
-5.02942e-06
-5.02814e-06
-5.02875e-06
-5.03031e-06
)
;

boundaryField
{
    BotWall
    {
        type            fixedFluxPressure;
        gradient        nonuniform 0();
        value           nonuniform 0();
    }
    FreeStream
    {
        type            totalPressure;
        rho             rho;
        psi             none;
        gamma           1;
        p0              uniform 0;
        value           nonuniform List<scalar> 5(-5.02732e-06 -5.0258e-06 -5.02389e-06 -5.02491e-06 -5.02745e-06);
    }
    FrontNBack
    {
        type            empty;
    }
    LeftSide
    {
        type            symmetryPlane;
    }
    RightSide
    {
        type            symmetryPlane;
    }
    procBoundary3to2
    {
        type            processor;
        value           nonuniform List<scalar> 5(-5.18972e-06 -5.18427e-06 -5.17386e-06 -5.17869e-06 -5.19197e-06);
    }
}


// ************************************************************************* //
