/*--------------------------------*- C++ -*----------------------------------*\
| =========                 |                                                 |
| \\      /  F ield         | OpenFOAM: The Open Source CFD Toolbox           |
|  \\    /   O peration     | Version:  2.4.0                                 |
|   \\  /    A nd           | Web:      www.OpenFOAM.org                      |
|    \\/     M anipulation  |                                                 |
\*---------------------------------------------------------------------------*/
FoamFile
{
    version     2.0;
    format      ascii;
    class       volScalarField;
    location    "0.011";
    object      H;
}
// * * * * * * * * * * * * * * * * * * * * * * * * * * * * * * * * * * * * * //

dimensions      [0 2 -2 0 0 0 0];

internalField   nonuniform List<scalar> 
125
(
-0.181049
-0.165665
-0.151513
-0.138502
-0.126546
-0.115563
-0.105481
-0.096229
-0.0877437
-0.079965
-0.0728376
-0.0663101
-0.0603349
-0.054868
-0.0498686
-0.0452989
-0.0411242
-0.0373123
-0.0338334
-0.0306601
-0.0277671
-0.0251312
-0.0227307
-0.020546
-0.0185587
-0.0167522
-0.0151109
-0.0136207
-0.0122686
-0.0110425
-0.00993149
-0.00892541
-0.008015
-0.00719175
-0.00644786
-0.00577619
-0.00517019
-0.00462385
-0.00413171
-0.00368874
-0.00329037
-0.0029324
-0.00261101
-0.00232272
-0.00206434
-0.00183299
-0.00162602
-0.00144103
-0.00127586
-0.00112851
-0.000997194
-0.000880278
-0.000776287
-0.000683885
-0.000601864
-0.000529133
-0.000464707
-0.000407696
-0.000357301
-0.000312801
-0.00027355
-0.000238965
-0.000208526
-0.000181765
-0.000158263
-0.000137648
-0.000119584
-0.000103774
-8.99524e-05
-7.78833e-05
-6.73566e-05
-5.81858e-05
-5.02056e-05
-4.32696e-05
-3.72484e-05
-3.20274e-05
-2.75059e-05
-2.35947e-05
-2.02155e-05
-1.72997e-05
-1.47866e-05
-1.26233e-05
-1.07634e-05
-9.16639e-06
-7.79676e-06
-6.62363e-06
-5.62004e-06
-4.76258e-06
-4.03092e-06
-3.40736e-06
-2.87664e-06
-2.42551e-06
-2.04252e-06
-1.7178e-06
-1.44285e-06
-1.21033e-06
-1.01398e-06
-8.48352e-07
-7.08868e-07
-5.91507e-07
-4.92957e-07
-4.10249e-07
-3.4096e-07
-2.83006e-07
-2.34568e-07
-1.94158e-07
-1.60501e-07
-1.32478e-07
-1.09225e-07
-8.98922e-08
-7.38893e-08
-6.0648e-08
-4.97154e-08
-4.06929e-08
-3.32452e-08
-2.71443e-08
-2.2112e-08
-1.79899e-08
-1.46242e-08
-1.18563e-08
-9.60299e-09
-7.77348e-09
-6.27442e-09
-5.04202e-09
-4.08433e-09
)
;

boundaryField
{
    BotWall
    {
        type            zeroGradient;
    }
    FreeStream
    {
        type            zeroGradient;
    }
    FrontNBack
    {
        type            empty;
    }
    LeftSide
    {
        type            symmetryPlane;
    }
    RightSide
    {
        type            symmetryPlane;
    }
    procBoundary10to7
    {
        type            processor;
        value           nonuniform List<scalar> 
50
(
-3.16667e-05
-2.71933e-05
-2.33242e-05
-1.99818e-05
-1.7098e-05
-1.46128e-05
-1.24738e-05
-1.0635e-05
-9.05625e-06
-7.70241e-06
-6.54293e-06
-5.55113e-06
-4.70382e-06
-3.98088e-06
-3.36482e-06
-2.84053e-06
-2.3949e-06
-2.01661e-06
-1.69592e-06
-1.42437e-06
-1.19479e-06
-1.00088e-06
-8.37371e-07
-6.99638e-07
-5.83814e-07
-4.86485e-07
-4.04852e-07
-3.36496e-07
-2.79272e-07
-2.31459e-07
-1.91598e-07
-1.58363e-07
-1.30716e-07
-1.07779e-07
-8.86905e-08
-7.29034e-08
-5.98339e-08
-4.90538e-08
-4.01427e-08
-3.28143e-08
-2.677e-08
-2.18205e-08
-1.77451e-08
-1.44284e-08
-1.17035e-08
-9.471e-09
-7.66779e-09
-6.17944e-09
-4.99581e-09
-4.00185e-09
)
;
    }
    procBoundary10to8
    {
        type            processor;
        value           nonuniform List<scalar> 
75
(
-0.180019
-0.164718
-0.150643
-0.137703
-0.125813
-0.114892
-0.104866
-0.0956663
-0.0872291
-0.0794948
-0.0724082
-0.0659182
-0.0599774
-0.0545421
-0.0495715
-0.0450283
-0.0408778
-0.037088
-0.0336293
-0.0304744
-0.0275983
-0.0249777
-0.0225912
-0.0204192
-0.0184435
-0.0166475
-0.0150159
-0.0135345
-0.0121903
-0.0109715
-0.00986712
-0.00886705
-0.00796211
-0.00714384
-0.00640448
-0.00573692
-0.00513466
-0.00459173
-0.00410268
-0.00366252
-0.0032667
-0.00291105
-0.00259176
-0.00230538
-0.00204874
-0.00181895
-0.00161341
-0.00142971
-0.00126571
-0.00111941
-0.000989047
-0.000872991
-0.000769776
-0.000678073
-0.000596682
-0.000524518
-0.0004606
-0.000404046
-0.000354061
-0.000309929
-0.000271006
-0.000236715
-0.000206537
-0.00018001
-0.000156716
-0.000136285
-0.000118386
-0.000102721
-8.90287e-05
-7.70734e-05
-6.66472e-05
-5.7565e-05
-4.96627e-05
-4.27952e-05
-3.68339e-05
)
;
    }
    procBoundary10to9
    {
        type            processor;
        value           uniform -3.25162e-09;
    }
    procBoundary10to11
    {
        type            processor;
        value           uniform -0.197767;
    }
}


// ************************************************************************* //
