/*--------------------------------*- C++ -*----------------------------------*\
| =========                 |                                                 |
| \\      /  F ield         | OpenFOAM: The Open Source CFD Toolbox           |
|  \\    /   O peration     | Version:  2.4.0                                 |
|   \\  /    A nd           | Web:      www.OpenFOAM.org                      |
|    \\/     M anipulation  |                                                 |
\*---------------------------------------------------------------------------*/
FoamFile
{
    version     2.0;
    format      ascii;
    class       volVectorField;
    location    "2.6";
    object      U;
}
// * * * * * * * * * * * * * * * * * * * * * * * * * * * * * * * * * * * * * //

dimensions      [0 1 -1 0 0 0 0];

internalField   nonuniform List<vector> 
125
(
(1.26498e-08 -0.00127815 0)
(3.55522e-08 -0.00127816 0)
(9.98531e-09 -0.00127817 0)
(-3.85016e-08 -0.00127817 0)
(-2.49713e-08 -0.00127815 0)
(1.07681e-08 -0.0012767 0)
(3.18656e-08 -0.00127671 0)
(9.5158e-09 -0.00127672 0)
(-3.47092e-08 -0.00127672 0)
(-2.24758e-08 -0.0012767 0)
(8.94842e-09 -0.00127562 0)
(2.8296e-08 -0.00127563 0)
(9.06326e-09 -0.00127564 0)
(-3.10401e-08 -0.00127564 0)
(-2.00685e-08 -0.00127562 0)
(7.1931e-09 -0.00127543 0)
(2.48477e-08 -0.00127544 0)
(8.62801e-09 -0.00127545 0)
(-2.74984e-08 -0.00127544 0)
(-1.77518e-08 -0.00127543 0)
(5.50018e-09 -0.00127549 0)
(2.15193e-08 -0.0012755 0)
(8.20997e-09 -0.00127551 0)
(-2.40826e-08 -0.0012755 0)
(-1.55233e-08 -0.00127549 0)
(3.86947e-09 -0.00127554 0)
(1.83115e-08 -0.00127554 0)
(7.80897e-09 -0.00127555 0)
(-2.07929e-08 -0.00127555 0)
(-1.33822e-08 -0.00127554 0)
(2.30196e-09 -0.00127555 0)
(1.52256e-08 -0.00127555 0)
(7.42483e-09 -0.00127556 0)
(-1.76306e-08 -0.00127555 0)
(-1.1329e-08 -0.00127554 0)
(7.98818e-10 -0.00127554 0)
(1.22633e-08 -0.00127555 0)
(7.05736e-09 -0.00127556 0)
(-1.4597e-08 -0.00127555 0)
(-9.36413e-09 -0.00127554 0)
(-6.39026e-10 -0.00127554 0)
(9.42611e-09 -0.00127555 0)
(6.70636e-09 -0.00127555 0)
(-1.16932e-08 -0.00127555 0)
(-7.48806e-09 -0.00127554 0)
(-2.01078e-09 -0.00127554 0)
(6.71514e-09 -0.00127555 0)
(6.37161e-09 -0.00127555 0)
(-8.92018e-09 -0.00127555 0)
(-5.70093e-09 -0.00127554 0)
(-3.31576e-09 -0.00127554 0)
(4.13139e-09 -0.00127555 0)
(6.05287e-09 -0.00127555 0)
(-6.27861e-09 -0.00127555 0)
(-4.00279e-09 -0.00127554 0)
(-4.55335e-09 -0.00127554 0)
(1.67571e-09 -0.00127555 0)
(5.74988e-09 -0.00127555 0)
(-3.76904e-09 -0.00127555 0)
(-2.3936e-09 -0.00127554 0)
(-5.72305e-09 -0.00127554 0)
(-6.51258e-10 -0.00127555 0)
(5.46234e-09 -0.00127555 0)
(-1.39183e-09 -0.00127555 0)
(-8.73218e-10 -0.00127554 0)
(-6.82443e-09 -0.00127554 0)
(-2.84902e-09 -0.00127555 0)
(5.18997e-09 -0.00127555 0)
(8.52837e-10 -0.00127555 0)
(5.58629e-10 -0.00127554 0)
(-7.85718e-09 -0.00127554 0)
(-4.91731e-09 -0.00127555 0)
(4.93243e-09 -0.00127555 0)
(2.96496e-09 -0.00127555 0)
(1.90232e-09 -0.00127554 0)
(-8.8211e-09 -0.00127554 0)
(-6.85604e-09 -0.00127555 0)
(4.68937e-09 -0.00127555 0)
(4.94476e-09 -0.00127555 0)
(3.15837e-09 -0.00127554 0)
(-9.71611e-09 -0.00127554 0)
(-8.66535e-09 -0.00127555 0)
(4.46045e-09 -0.00127555 0)
(6.79266e-09 -0.00127555 0)
(4.32741e-09 -0.00127554 0)
(-1.05422e-08 -0.00127554 0)
(-1.03456e-08 -0.00127555 0)
(4.24527e-09 -0.00127555 0)
(8.50929e-09 -0.00127555 0)
(5.41019e-09 -0.00127554 0)
(-1.12996e-08 -0.00127554 0)
(-1.18973e-08 -0.00127555 0)
(4.04343e-09 -0.00127555 0)
(1.00955e-08 -0.00127555 0)
(6.40761e-09 -0.00127554 0)
(-1.19886e-08 -0.00127554 0)
(-1.33213e-08 -0.00127555 0)
(3.85451e-09 -0.00127555 0)
(1.15524e-08 -0.00127555 0)
(7.3207e-09 -0.00127554 0)
(-1.26094e-08 -0.00127554 0)
(-1.46186e-08 -0.00127555 0)
(3.67807e-09 -0.00127555 0)
(1.28812e-08 -0.00127555 0)
(8.15061e-09 -0.00127554 0)
(-1.31628e-08 -0.00127554 0)
(-1.57905e-08 -0.00127555 0)
(3.51365e-09 -0.00127556 0)
(1.40834e-08 -0.00127555 0)
(8.89863e-09 -0.00127554 0)
(-1.36492e-08 -0.00127554 0)
(-1.68384e-08 -0.00127555 0)
(3.36079e-09 -0.00127556 0)
(1.5161e-08 -0.00127555 0)
(9.56623e-09 -0.00127554 0)
(-1.40696e-08 -0.00127554 0)
(-1.77641e-08 -0.00127555 0)
(3.219e-09 -0.00127556 0)
(1.61159e-08 -0.00127555 0)
(1.0155e-08 -0.00127554 0)
(-1.44249e-08 -0.00127554 0)
(-1.85696e-08 -0.00127555 0)
(3.08777e-09 -0.00127556 0)
(1.69502e-08 -0.00127555 0)
(1.06667e-08 -0.00127554 0)
)
;

boundaryField
{
    BotWall
    {
        type            fixedValue;
        value           nonuniform 0();
    }
    FreeStream
    {
        type            zeroGradient;
    }
    FrontNBack
    {
        type            empty;
    }
    LeftSide
    {
        type            symmetryPlane;
    }
    RightSide
    {
        type            symmetryPlane;
    }
    procBoundary1to0
    {
        type            processor;
        value           nonuniform List<vector> 5((1.45722e-08 -0.00127345 0) (3.93319e-08 -0.00127346 0) (1.04711e-08 -0.00127347 0) (-4.23933e-08 -0.00127346 0) (-2.75331e-08 -0.00127345 0));
    }
    procBoundary1to2
    {
        type            processor;
        value           nonuniform List<vector> 5((-1.47161e-08 -0.00127554 0) (-1.92571e-08 -0.00127555 0) (2.9666e-09 -0.00127556 0) (1.76664e-08 -0.00127555 0) (1.1103e-08 -0.00127554 0));
    }
}


// ************************************************************************* //
