/*--------------------------------*- C++ -*----------------------------------*\
| =========                 |                                                 |
| \\      /  F ield         | OpenFOAM: The Open Source CFD Toolbox           |
|  \\    /   O peration     | Version:  2.4.0                                 |
|   \\  /    A nd           | Web:      www.OpenFOAM.org                      |
|    \\/     M anipulation  |                                                 |
\*---------------------------------------------------------------------------*/
FoamFile
{
    version     2.0;
    format      ascii;
    class       volScalarField;
    location    "0.8";
    object      H;
}
// * * * * * * * * * * * * * * * * * * * * * * * * * * * * * * * * * * * * * //

dimensions      [0 2 -2 0 0 0 0];

internalField   nonuniform List<scalar> 
125
(
-14.1752
-14.1752
-14.1752
-14.1751
-14.1751
-13.418
-13.418
-13.4181
-13.418
-13.418
-12.6732
-12.6732
-12.6732
-12.6731
-12.6731
-11.9414
-11.9414
-11.9414
-11.9414
-11.9413
-11.2235
-11.2235
-11.2236
-11.2235
-11.2235
-10.5203
-10.5203
-10.5204
-10.5203
-10.5203
-9.83235
-9.83237
-9.8324
-9.83236
-9.83232
-9.16015
-9.16018
-9.16021
-9.16017
-9.16013
-8.50417
-8.50419
-8.50422
-8.50419
-8.50414
-7.86471
-7.86473
-7.86477
-7.86473
-7.86468
-7.24201
-7.24204
-7.24207
-7.24204
-7.24199
-6.63622
-6.63625
-6.63628
-6.63625
-6.6362
-6.04738
-6.04741
-6.04744
-6.04741
-6.04736
-5.47543
-5.47546
-5.47549
-5.47546
-5.47541
-4.92025
-4.92028
-4.9203
-4.92028
-4.92023
-4.38161
-4.38163
-4.38166
-4.38163
-4.38159
-3.85921
-3.85923
-3.85925
-3.85923
-3.85919
-3.35266
-3.35269
-3.3527
-3.35269
-3.35265
-2.86154
-2.86156
-2.86158
-2.86156
-2.86153
-2.38532
-2.38534
-2.38535
-2.38534
-2.38531
-1.92344
-1.92346
-1.92347
-1.92346
-1.92344
-1.47529
-1.4753
-1.47531
-1.47531
-1.47529
-1.04021
-1.04022
-1.04023
-1.04022
-1.04021
-0.61752
-0.617525
-0.617529
-0.617525
-0.617517
-0.206502
-0.206504
-0.206505
-0.206504
-0.206501
)
;

boundaryField
{
    BotWall
    {
        type            zeroGradient;
    }
    FreeStream
    {
        type            zeroGradient;
    }
    FrontNBack
    {
        type            empty;
    }
    LeftSide
    {
        type            symmetryPlane;
    }
    RightSide
    {
        type            symmetryPlane;
    }
    procBoundary3to2
    {
        type            processor;
        value           nonuniform List<scalar> 5(-14.9434 -14.9433 -14.9433 -14.9433 -14.9433);
    }
}


// ************************************************************************* //
