/*--------------------------------*- C++ -*----------------------------------*\
| =========                 |                                                 |
| \\      /  F ield         | OpenFOAM: The Open Source CFD Toolbox           |
|  \\    /   O peration     | Version:  2.4.0                                 |
|   \\  /    A nd           | Web:      www.OpenFOAM.org                      |
|    \\/     M anipulation  |                                                 |
\*---------------------------------------------------------------------------*/
FoamFile
{
    version     2.0;
    format      ascii;
    class       volScalarField;
    location    "0.8";
    object      p;
}
// * * * * * * * * * * * * * * * * * * * * * * * * * * * * * * * * * * * * * //

dimensions      [1 -1 -2 0 0 0 0];

internalField   nonuniform List<scalar> 
125
(
-0.0577252
-0.0577252
-0.0577252
-0.0577252
-0.0577252
-0.0588599
-0.0588599
-0.0588599
-0.0588599
-0.0588599
-0.0600073
-0.0600073
-0.0600073
-0.0600073
-0.0600073
-0.0611674
-0.0611674
-0.0611674
-0.0611674
-0.0611674
-0.0623405
-0.0623405
-0.0623405
-0.0623405
-0.0623405
-0.0635267
-0.0635267
-0.0635267
-0.0635267
-0.0635267
-0.0647261
-0.0647261
-0.0647261
-0.0647261
-0.0647261
-0.0659389
-0.0659389
-0.0659389
-0.0659389
-0.0659389
-0.0671653
-0.0671653
-0.0671653
-0.0671653
-0.0671653
-0.0684053
-0.0684053
-0.0684053
-0.0684053
-0.0684053
-0.0696592
-0.0696592
-0.0696592
-0.0696592
-0.0696592
-0.070927
-0.070927
-0.070927
-0.070927
-0.070927
-0.072209
-0.072209
-0.072209
-0.072209
-0.072209
-0.0735053
-0.0735053
-0.0735053
-0.0735053
-0.0735053
-0.0748161
-0.0748161
-0.0748161
-0.0748161
-0.0748161
-0.0761415
-0.0761415
-0.0761415
-0.0761415
-0.0761415
-0.0774817
-0.0774817
-0.0774817
-0.0774817
-0.0774817
-0.0788368
-0.0788368
-0.0788368
-0.0788368
-0.0788368
-0.0802071
-0.0802071
-0.0802071
-0.0802071
-0.0802071
-0.0815926
-0.0815926
-0.0815926
-0.0815926
-0.0815926
-0.0829937
-0.0829937
-0.0829937
-0.0829937
-0.0829937
-0.0844103
-0.0844103
-0.0844103
-0.0844103
-0.0844103
-0.0858428
-0.0858428
-0.0858428
-0.0858428
-0.0858428
-0.0872912
-0.0872912
-0.0872912
-0.0872912
-0.0872912
-0.0887558
-0.0887558
-0.0887558
-0.0887558
-0.0887558
)
;

boundaryField
{
    BotWall
    {
        type            calculated;
        value           nonuniform 0();
    }
    FreeStream
    {
        type            calculated;
        value           nonuniform List<scalar> 5(-0.0894922 -0.0894922 -0.0894922 -0.0894922 -0.0894922);
    }
    FrontNBack
    {
        type            empty;
    }
    LeftSide
    {
        type            symmetryPlane;
    }
    RightSide
    {
        type            symmetryPlane;
    }
    procBoundary3to2
    {
        type            processor;
        value           nonuniform List<scalar> 5(-0.0566031 -0.0566031 -0.0566031 -0.0566031 -0.0566031);
    }
}


// ************************************************************************* //
