/*--------------------------------*- C++ -*----------------------------------*\
| =========                 |                                                 |
| \\      /  F ield         | OpenFOAM: The Open Source CFD Toolbox           |
|  \\    /   O peration     | Version:  2.4.0                                 |
|   \\  /    A nd           | Web:      www.OpenFOAM.org                      |
|    \\/     M anipulation  |                                                 |
\*---------------------------------------------------------------------------*/
FoamFile
{
    version     2.0;
    format      ascii;
    class       volScalarField;
    location    "2";
    object      H;
}
// * * * * * * * * * * * * * * * * * * * * * * * * * * * * * * * * * * * * * //

dimensions      [0 2 -2 0 0 0 0];

internalField   nonuniform List<scalar> 
125
(
-49.1963
-49.1926
-49.1888
-49.1908
-49.1971
-47.7117
-47.7085
-47.7051
-47.7069
-47.7124
-46.203
-46.2004
-46.1974
-46.1989
-46.2037
-44.6746
-44.6724
-44.6699
-44.6712
-44.6753
-43.1308
-43.1291
-43.127
-43.128
-43.1314
-41.5759
-41.5746
-41.5729
-41.5736
-41.5764
-40.0142
-40.0133
-40.012
-40.0125
-40.0146
-38.45
-38.4495
-38.4486
-38.4489
-38.4504
-36.8876
-36.8875
-36.8869
-36.887
-36.888
-35.3312
-35.3314
-35.3311
-35.331
-35.3315
-33.7848
-33.7853
-33.7853
-33.7851
-33.785
-32.2523
-32.2532
-32.2534
-32.253
-32.2525
-30.7376
-30.7387
-30.7392
-30.7387
-30.7378
-29.2442
-29.2456
-29.2463
-29.2456
-29.2444
-27.7756
-27.7772
-27.7782
-27.7774
-27.7758
-26.335
-26.3368
-26.3379
-26.337
-26.3351
-24.9254
-24.9273
-24.9286
-24.9276
-24.9254
-23.5494
-23.5515
-23.5529
-23.5518
-23.5494
-22.2095
-22.2117
-22.2133
-22.2121
-22.2096
-20.908
-20.9103
-20.9119
-20.9108
-20.9081
-19.6468
-19.6491
-19.6508
-19.6496
-19.6468
-18.4274
-18.4298
-18.4316
-18.4303
-18.4274
-17.2513
-17.2537
-17.2555
-17.2542
-17.2513
-16.1194
-16.1218
-16.1236
-16.1223
-16.1193
-15.0325
-15.0349
-15.0367
-15.0354
-15.0324
)
;

boundaryField
{
    BotWall
    {
        type            zeroGradient;
    }
    FreeStream
    {
        type            zeroGradient;
    }
    FrontNBack
    {
        type            empty;
    }
    LeftSide
    {
        type            symmetryPlane;
    }
    RightSide
    {
        type            symmetryPlane;
    }
    procBoundary2to1
    {
        type            processor;
        value           nonuniform List<scalar> 5(-50.6483 -50.6441 -50.6398 -50.6421 -50.6492);
    }
    procBoundary2to3
    {
        type            processor;
        value           nonuniform List<scalar> 5(-13.9938 -13.9961 -13.9979 -13.9967 -13.9937);
    }
}


// ************************************************************************* //
