/*--------------------------------*- C++ -*----------------------------------*\
| =========                 |                                                 |
| \\      /  F ield         | OpenFOAM: The Open Source CFD Toolbox           |
|  \\    /   O peration     | Version:  2.4.0                                 |
|   \\  /    A nd           | Web:      www.OpenFOAM.org                      |
|    \\/     M anipulation  |                                                 |
\*---------------------------------------------------------------------------*/
FoamFile
{
    version     2.0;
    format      ascii;
    class       volScalarField;
    location    "2";
    object      p;
}
// * * * * * * * * * * * * * * * * * * * * * * * * * * * * * * * * * * * * * //

dimensions      [1 -1 -2 0 0 0 0];

internalField   nonuniform List<scalar> 
125
(
-0.033078
-0.033078
-0.033078
-0.033078
-0.033078
-0.0339377
-0.0339377
-0.0339377
-0.0339377
-0.0339377
-0.034807
-0.034807
-0.034807
-0.034807
-0.034807
-0.0356861
-0.0356861
-0.0356861
-0.0356861
-0.0356861
-0.0365749
-0.0365749
-0.0365749
-0.0365749
-0.0365749
-0.0374737
-0.0374737
-0.0374737
-0.0374737
-0.0374737
-0.0383824
-0.0383824
-0.0383824
-0.0383824
-0.0383824
-0.0393014
-0.0393014
-0.0393014
-0.0393014
-0.0393014
-0.0402305
-0.0402305
-0.0402305
-0.0402305
-0.0402305
-0.0411701
-0.0411701
-0.0411701
-0.0411701
-0.0411701
-0.0421201
-0.0421201
-0.0421201
-0.0421201
-0.0421201
-0.0430807
-0.0430807
-0.0430807
-0.0430807
-0.0430807
-0.0440521
-0.0440521
-0.0440521
-0.0440521
-0.0440521
-0.0450343
-0.0450343
-0.0450343
-0.0450343
-0.0450343
-0.0460274
-0.0460274
-0.0460274
-0.0460274
-0.0460274
-0.0470317
-0.0470317
-0.0470317
-0.0470317
-0.0470317
-0.0480471
-0.0480471
-0.0480471
-0.0480471
-0.0480471
-0.0490739
-0.0490739
-0.0490739
-0.0490739
-0.0490739
-0.0501121
-0.0501121
-0.0501121
-0.0501121
-0.0501121
-0.0511619
-0.0511619
-0.0511619
-0.0511619
-0.0511619
-0.0522235
-0.0522235
-0.0522235
-0.0522235
-0.0522235
-0.0532968
-0.0532968
-0.0532968
-0.0532968
-0.0532968
-0.0543822
-0.0543822
-0.0543822
-0.0543822
-0.0543822
-0.0554796
-0.0554796
-0.0554796
-0.0554796
-0.0554796
-0.0565894
-0.0565894
-0.0565893
-0.0565894
-0.0565894
)
;

boundaryField
{
    BotWall
    {
        type            calculated;
        value           nonuniform 0();
    }
    FreeStream
    {
        type            calculated;
        value           nonuniform 0();
    }
    FrontNBack
    {
        type            empty;
    }
    LeftSide
    {
        type            symmetryPlane;
    }
    RightSide
    {
        type            symmetryPlane;
    }
    procBoundary2to1
    {
        type            processor;
        value           nonuniform List<scalar> 5(-0.0322277 -0.0322277 -0.0322277 -0.0322277 -0.0322277);
    }
    procBoundary2to3
    {
        type            processor;
        value           nonuniform List<scalar> 5(-0.0577114 -0.0577114 -0.0577114 -0.0577114 -0.0577114);
    }
}


// ************************************************************************* //
