/*--------------------------------*- C++ -*----------------------------------*\
| =========                 |                                                 |
| \\      /  F ield         | OpenFOAM: The Open Source CFD Toolbox           |
|  \\    /   O peration     | Version:  2.4.0                                 |
|   \\  /    A nd           | Web:      www.OpenFOAM.org                      |
|    \\/     M anipulation  |                                                 |
\*---------------------------------------------------------------------------*/
FoamFile
{
    version     2.0;
    format      ascii;
    class       volScalarField;
    location    "2";
    object      p_rgh;
}
// * * * * * * * * * * * * * * * * * * * * * * * * * * * * * * * * * * * * * //

dimensions      [1 -1 -2 0 0 0 0];

internalField   nonuniform List<scalar> 
125
(
-1.82775e-05
-1.82732e-05
-1.8271e-05
-1.82729e-05
-1.82773e-05
-1.81394e-05
-1.81353e-05
-1.81331e-05
-1.8135e-05
-1.81393e-05
-1.79998e-05
-1.79958e-05
-1.79937e-05
-1.79955e-05
-1.79996e-05
-1.78587e-05
-1.78547e-05
-1.78527e-05
-1.78544e-05
-1.78585e-05
-1.77159e-05
-1.77121e-05
-1.77101e-05
-1.77118e-05
-1.77158e-05
-1.75716e-05
-1.75679e-05
-1.75659e-05
-1.75676e-05
-1.75714e-05
-1.74257e-05
-1.74221e-05
-1.74202e-05
-1.74218e-05
-1.74255e-05
-1.72782e-05
-1.72746e-05
-1.72728e-05
-1.72743e-05
-1.7278e-05
-1.7129e-05
-1.71256e-05
-1.71238e-05
-1.71253e-05
-1.71289e-05
-1.69782e-05
-1.69748e-05
-1.69731e-05
-1.69746e-05
-1.69781e-05
-1.68257e-05
-1.68224e-05
-1.68208e-05
-1.68222e-05
-1.68256e-05
-1.66715e-05
-1.66684e-05
-1.66667e-05
-1.66681e-05
-1.66714e-05
-1.65156e-05
-1.65126e-05
-1.6511e-05
-1.65123e-05
-1.65155e-05
-1.6358e-05
-1.6355e-05
-1.63535e-05
-1.63548e-05
-1.63579e-05
-1.61986e-05
-1.61957e-05
-1.61943e-05
-1.61955e-05
-1.61985e-05
-1.60375e-05
-1.60347e-05
-1.60333e-05
-1.60344e-05
-1.60374e-05
-1.58746e-05
-1.58719e-05
-1.58705e-05
-1.58716e-05
-1.58745e-05
-1.57098e-05
-1.57072e-05
-1.57059e-05
-1.5707e-05
-1.57098e-05
-1.55433e-05
-1.55407e-05
-1.55394e-05
-1.55405e-05
-1.55432e-05
-1.53748e-05
-1.53724e-05
-1.53711e-05
-1.53722e-05
-1.53748e-05
-1.52046e-05
-1.52022e-05
-1.5201e-05
-1.5202e-05
-1.52045e-05
-1.50324e-05
-1.50301e-05
-1.50289e-05
-1.50299e-05
-1.50323e-05
-1.48583e-05
-1.48561e-05
-1.4855e-05
-1.48559e-05
-1.48582e-05
-1.46823e-05
-1.46802e-05
-1.4679e-05
-1.46799e-05
-1.46822e-05
-1.45043e-05
-1.45023e-05
-1.45012e-05
-1.4502e-05
-1.45042e-05
)
;

boundaryField
{
    BotWall
    {
        type            fixedFluxPressure;
        gradient        nonuniform 0();
        value           nonuniform 0();
    }
    FreeStream
    {
        type            totalPressure;
        rho             rho;
        psi             none;
        gamma           1;
        p0              nonuniform 0();
        value           nonuniform 0();
    }
    FrontNBack
    {
        type            empty;
    }
    LeftSide
    {
        type            symmetryPlane;
    }
    RightSide
    {
        type            symmetryPlane;
    }
    procBoundary2to1
    {
        type            processor;
        value           nonuniform List<scalar> 5(-1.8414e-05 -1.84097e-05 -1.84074e-05 -1.84094e-05 -1.84139e-05);
    }
    procBoundary2to3
    {
        type            processor;
        value           nonuniform List<scalar> 5(-1.43243e-05 -1.43224e-05 -1.43213e-05 -1.43221e-05 -1.43242e-05);
    }
}


// ************************************************************************* //
