/*--------------------------------*- C++ -*----------------------------------*\
| =========                 |                                                 |
| \\      /  F ield         | OpenFOAM: The Open Source CFD Toolbox           |
|  \\    /   O peration     | Version:  2.4.0                                 |
|   \\  /    A nd           | Web:      www.OpenFOAM.org                      |
|    \\/     M anipulation  |                                                 |
\*---------------------------------------------------------------------------*/
FoamFile
{
    version     2.0;
    format      ascii;
    class       surfaceScalarField;
    location    "2";
    object      phi;
}
// * * * * * * * * * * * * * * * * * * * * * * * * * * * * * * * * * * * * * //

dimensions      [0 3 -1 0 0 0 0];

internalField   nonuniform List<scalar> 
220
(
-5.27349e-17
-2.8457e-10
1.27353e-18
-2.84575e-10
3.89357e-17
-2.84577e-10
1.83638e-17
-2.84575e-10
-2.8457e-10
-5.05307e-17
-2.84569e-10
2.9362e-18
-2.84575e-10
3.78876e-17
-2.84577e-10
1.60967e-17
-2.84575e-10
-2.8457e-10
-4.80715e-17
-2.84569e-10
4.69228e-18
-2.84575e-10
3.66738e-17
-2.84577e-10
1.36475e-17
-2.84574e-10
-2.8457e-10
-4.53784e-17
-2.84569e-10
6.52535e-18
-2.84575e-10
3.53051e-17
-2.84577e-10
1.10398e-17
-2.84574e-10
-2.8457e-10
-4.24736e-17
-2.84569e-10
8.41855e-18
-2.84575e-10
3.3793e-17
-2.84577e-10
8.29739e-18
-2.84574e-10
-2.8457e-10
-3.93804e-17
-2.84569e-10
1.03547e-17
-2.84575e-10
3.21495e-17
-2.84577e-10
5.44491e-18
-2.84574e-10
-2.8457e-10
-3.61228e-17
-2.84569e-10
1.23164e-17
-2.84575e-10
3.03873e-17
-2.84577e-10
2.50735e-18
-2.84574e-10
-2.8457e-10
-3.27254e-17
-2.84569e-10
1.42863e-17
-2.84575e-10
2.85196e-17
-2.84577e-10
-4.90087e-19
-2.84574e-10
-2.8457e-10
-2.92133e-17
-2.84569e-10
1.62471e-17
-2.84575e-10
2.65598e-17
-2.84577e-10
-3.52229e-18
-2.84574e-10
-2.8457e-10
-2.56117e-17
-2.84569e-10
1.8182e-17
-2.84575e-10
2.45217e-17
-2.84577e-10
-6.56444e-18
-2.84574e-10
-2.8457e-10
-2.19459e-17
-2.84569e-10
2.00746e-17
-2.84575e-10
2.24191e-17
-2.84577e-10
-9.5923e-18
-2.84574e-10
-2.8457e-10
-1.82405e-17
-2.84569e-10
2.19091e-17
-2.84576e-10
2.02658e-17
-2.84577e-10
-1.25824e-17
-2.84574e-10
-2.8457e-10
-1.45202e-17
-2.84569e-10
2.36706e-17
-2.84576e-10
1.80755e-17
-2.84577e-10
-1.55125e-17
-2.84574e-10
-2.8457e-10
-1.08082e-17
-2.84569e-10
2.53453e-17
-2.84576e-10
1.58616e-17
-2.84577e-10
-1.83613e-17
-2.84574e-10
-2.8457e-10
-7.12734e-18
-2.84569e-10
2.69205e-17
-2.84576e-10
1.36372e-17
-2.84577e-10
-2.11095e-17
-2.84574e-10
-2.8457e-10
-3.49876e-18
-2.84569e-10
2.83846e-17
-2.84576e-10
1.14146e-17
-2.84577e-10
-2.37393e-17
-2.84574e-10
-2.8457e-10
5.76854e-20
-2.84569e-10
2.97279e-17
-2.84576e-10
9.20578e-18
-2.84577e-10
-2.62348e-17
-2.84574e-10
-2.8457e-10
3.52384e-18
-2.84569e-10
3.0942e-17
-2.84576e-10
7.02165e-18
-2.84577e-10
-2.85826e-17
-2.84574e-10
-2.8457e-10
6.88343e-18
-2.84569e-10
3.20203e-17
-2.84576e-10
4.87239e-18
-2.84577e-10
-3.07713e-17
-2.84574e-10
-2.8457e-10
1.01222e-17
-2.84569e-10
3.29578e-17
-2.84576e-10
2.76712e-18
-2.84577e-10
-3.27922e-17
-2.84574e-10
-2.8457e-10
1.32281e-17
-2.84569e-10
3.37516e-17
-2.84576e-10
7.13949e-19
-2.84577e-10
-3.46392e-17
-2.84574e-10
-2.8457e-10
1.61913e-17
-2.84569e-10
3.44006e-17
-2.84576e-10
-1.27987e-18
-2.84577e-10
-3.63096e-17
-2.84574e-10
-2.8457e-10
1.90045e-17
-2.84569e-10
3.49054e-17
-2.84576e-10
-3.2076e-18
-2.84577e-10
-3.78018e-17
-2.84574e-10
-2.8457e-10
2.16627e-17
-2.84569e-10
3.52691e-17
-2.84576e-10
-5.06624e-18
-2.84577e-10
-3.91153e-17
-2.84574e-10
-2.8457e-10
2.41631e-17
3.54966e-17
-6.85096e-18
-4.02574e-17
)
;

boundaryField
{
    BotWall
    {
        type            calculated;
        value           nonuniform 0();
    }
    FreeStream
    {
        type            calculated;
        value           nonuniform 0();
    }
    FrontNBack
    {
        type            empty;
        value           nonuniform 0();
    }
    LeftSide
    {
        type            symmetryPlane;
        value           uniform 0;
    }
    RightSide
    {
        type            symmetryPlane;
        value           uniform 0;
    }
    procBoundary2to1
    {
        type            processor;
        value           nonuniform List<scalar> 5(2.8457e-10 2.84575e-10 2.84577e-10 2.84575e-10 2.8457e-10);
    }
    procBoundary2to3
    {
        type            processor;
        value           nonuniform List<scalar> 5(-2.84569e-10 -2.84576e-10 -2.84577e-10 -2.84574e-10 -2.8457e-10);
    }
}


// ************************************************************************* //
