/*--------------------------------*- C++ -*----------------------------------*\
| =========                 |                                                 |
| \\      /  F ield         | OpenFOAM: The Open Source CFD Toolbox           |
|  \\    /   O peration     | Version:  2.4.0                                 |
|   \\  /    A nd           | Web:      www.OpenFOAM.org                      |
|    \\/     M anipulation  |                                                 |
\*---------------------------------------------------------------------------*/
FoamFile
{
    version     2.0;
    format      ascii;
    class       volScalarField;
    location    "2";
    object      T;
}
// * * * * * * * * * * * * * * * * * * * * * * * * * * * * * * * * * * * * * //

dimensions      [0 0 0 1 0 0 0];

internalField   nonuniform List<scalar> 
125
(
297.973
297.973
297.973
297.973
297.973
297.974
297.974
297.974
297.974
297.974
297.975
297.975
297.975
297.975
297.975
297.975
297.975
297.975
297.975
297.975
297.976
297.976
297.976
297.976
297.976
297.977
297.977
297.977
297.977
297.977
297.978
297.978
297.978
297.978
297.978
297.979
297.979
297.979
297.979
297.979
297.98
297.98
297.98
297.98
297.98
297.981
297.981
297.981
297.981
297.981
297.981
297.981
297.981
297.981
297.981
297.982
297.982
297.982
297.982
297.982
297.983
297.983
297.983
297.983
297.983
297.984
297.984
297.984
297.984
297.984
297.985
297.985
297.985
297.985
297.985
297.986
297.986
297.986
297.986
297.986
297.986
297.986
297.986
297.986
297.986
297.987
297.987
297.987
297.987
297.987
297.988
297.988
297.988
297.988
297.988
297.989
297.989
297.989
297.989
297.989
297.989
297.989
297.989
297.989
297.989
297.99
297.99
297.99
297.99
297.99
297.991
297.991
297.991
297.991
297.991
297.991
297.991
297.991
297.991
297.991
297.992
297.992
297.992
297.992
297.992
)
;

boundaryField
{
    BotWall
    {
        type            fixedValue;
        value           nonuniform 0();
    }
    FreeStream
    {
        type            fixedValue;
        value           nonuniform 0();
    }
    FrontNBack
    {
        type            empty;
    }
    LeftSide
    {
        type            symmetryPlane;
    }
    RightSide
    {
        type            symmetryPlane;
    }
    procBoundary2to1
    {
        type            processor;
        value           nonuniform List<scalar> 5(297.972 297.972 297.972 297.972 297.972);
    }
    procBoundary2to3
    {
        type            processor;
        value           nonuniform List<scalar> 5(297.992 297.992 297.992 297.992 297.992);
    }
}


// ************************************************************************* //
