/*--------------------------------*- C++ -*----------------------------------*\
| =========                 |                                                 |
| \\      /  F ield         | OpenFOAM: The Open Source CFD Toolbox           |
|  \\    /   O peration     | Version:  2.4.0                                 |
|   \\  /    A nd           | Web:      www.OpenFOAM.org                      |
|    \\/     M anipulation  |                                                 |
\*---------------------------------------------------------------------------*/
FoamFile
{
    version     2.0;
    format      ascii;
    class       volVectorField;
    location    "2";
    object      U;
}
// * * * * * * * * * * * * * * * * * * * * * * * * * * * * * * * * * * * * * //

dimensions      [0 1 -1 0 0 0 0];

internalField   nonuniform List<vector> 
125
(
(-1.25977e-08 -0.00142285 0)
(-9.42634e-09 -0.00142287 0)
(9.97436e-09 -0.00142289 0)
(6.30916e-09 -0.00142287 0)
(1.3254e-09 -0.00142285 0)
(-1.21256e-08 -0.00142285 0)
(-8.74256e-09 -0.00142288 0)
(9.9727e-09 -0.00142289 0)
(5.69729e-09 -0.00142287 0)
(9.14408e-10 -0.00142285 0)
(-1.16151e-08 -0.00142285 0)
(-8.0158e-09 -0.00142288 0)
(9.95116e-09 -0.00142289 0)
(5.04907e-09 -0.00142287 0)
(4.86799e-10 -0.00142285 0)
(-1.10704e-08 -0.00142285 0)
(-7.25324e-09 -0.00142288 0)
(9.90928e-09 -0.00142289 0)
(4.37142e-09 -0.00142287 0)
(4.72765e-11 -0.00142285 0)
(-1.04961e-08 -0.00142285 0)
(-6.46204e-09 -0.00142288 0)
(9.84668e-09 -0.00142289 0)
(3.67114e-09 -0.00142287 0)
(-3.99598e-10 -0.00142285 0)
(-9.89673e-09 -0.00142285 0)
(-5.64927e-09 -0.00142288 0)
(9.76311e-09 -0.00142289 0)
(2.95495e-09 -0.00142287 0)
(-8.49381e-10 -0.00142285 0)
(-9.27667e-09 -0.00142285 0)
(-4.82192e-09 -0.00142288 0)
(9.65846e-09 -0.00142289 0)
(2.2294e-09 -0.00142287 0)
(-1.29779e-09 -0.00142285 0)
(-8.64037e-09 -0.00142285 0)
(-3.98676e-09 -0.00142288 0)
(9.53272e-09 -0.00142289 0)
(1.50084e-09 -0.00142287 0)
(-1.74072e-09 -0.00142285 0)
(-7.99217e-09 -0.00142285 0)
(-3.15036e-09 -0.00142288 0)
(9.38605e-09 -0.00142289 0)
(7.75372e-10 -0.00142287 0)
(-2.17431e-09 -0.00142285 0)
(-7.33628e-09 -0.00142285 0)
(-2.31902e-09 -0.00142288 0)
(9.21872e-09 -0.00142289 0)
(5.88043e-11 -0.00142287 0)
(-2.59494e-09 -0.00142285 0)
(-6.67678e-09 -0.00142285 0)
(-1.49871e-09 -0.00142288 0)
(9.03115e-09 -0.00142289 0)
(-6.4341e-10 -0.00142287 0)
(-2.99928e-09 -0.00142285 0)
(-6.01757e-09 -0.00142285 0)
(-6.95016e-10 -0.00142288 0)
(8.8239e-09 -0.00142289 0)
(-1.3262e-09 -0.00142287 0)
(-3.38431e-09 -0.00142285 0)
(-5.36236e-09 -0.00142285 0)
(8.68667e-11 -0.00142288 0)
(8.59765e-09 -0.00142289 0)
(-1.98494e-09 -0.00142287 0)
(-3.74735e-09 -0.00142285 0)
(-4.71461e-09 -0.00142285 0)
(8.42207e-10 -0.00142288 0)
(8.35324e-09 -0.00142289 0)
(-2.61544e-09 -0.00142287 0)
(-4.08606e-09 -0.00142285 0)
(-4.07755e-09 -0.00142285 0)
(1.56676e-09 -0.00142288 0)
(8.09162e-09 -0.00142289 0)
(-3.21404e-09 -0.00142287 0)
(-4.39849e-09 -0.00142285 0)
(-3.45413e-09 -0.00142285 0)
(2.25679e-09 -0.00142288 0)
(7.81389e-09 -0.00142289 0)
(-3.77756e-09 -0.00142287 0)
(-4.68307e-09 -0.00142285 0)
(-2.84702e-09 -0.00142285 0)
(2.90912e-09 -0.00142288 0)
(7.52124e-09 -0.00142289 0)
(-4.30341e-09 -0.00142287 0)
(-4.93863e-09 -0.00142285 0)
(-2.25857e-09 -0.00142285 0)
(3.52112e-09 -0.00142288 0)
(7.215e-09 -0.00142289 0)
(-4.78953e-09 -0.00142287 0)
(-5.16439e-09 -0.00142285 0)
(-1.69082e-09 -0.00142285 0)
(4.09075e-09 -0.00142288 0)
(6.89657e-09 -0.00142289 0)
(-5.23443e-09 -0.00142287 0)
(-5.35998e-09 -0.00142285 0)
(-1.14547e-09 -0.00142285 0)
(4.61651e-09 -0.00142288 0)
(6.56747e-09 -0.00142289 0)
(-5.63719e-09 -0.00142287 0)
(-5.52544e-09 -0.00142285 0)
(-6.23917e-10 -0.00142285 0)
(5.09754e-09 -0.00142288 0)
(6.22928e-09 -0.00142289 0)
(-5.99748e-09 -0.00142287 0)
(-5.6612e-09 -0.00142285 0)
(-1.27203e-10 -0.00142285 0)
(5.5335e-09 -0.00142288 0)
(5.88365e-09 -0.00142289 0)
(-6.31551e-09 -0.00142287 0)
(-5.76806e-09 -0.00142285 0)
(3.43948e-10 -0.00142285 0)
(5.92463e-09 -0.00142288 0)
(5.53229e-09 -0.00142289 0)
(-6.59178e-09 -0.00142287 0)
(-5.84693e-09 -0.00142285 0)
(7.89131e-10 -0.00142285 0)
(6.27172e-09 -0.00142288 0)
(5.17692e-09 -0.00142289 0)
(-6.82758e-09 -0.00142287 0)
(-5.89933e-09 -0.00142285 0)
(1.20823e-09 -0.00142285 0)
(6.57606e-09 -0.00142288 0)
(4.81931e-09 -0.00142289 0)
(-7.02455e-09 -0.00142287 0)
(-5.92693e-09 -0.00142285 0)
)
;

boundaryField
{
    BotWall
    {
        type            fixedValue;
        value           nonuniform 0();
    }
    FreeStream
    {
        type            zeroGradient;
    }
    FrontNBack
    {
        type            empty;
    }
    LeftSide
    {
        type            symmetryPlane;
    }
    RightSide
    {
        type            symmetryPlane;
    }
    procBoundary2to1
    {
        type            processor;
        value           nonuniform List<vector> 5((-1.30268e-08 -0.00142285 0) (-1.006e-08 -0.00142287 0) (9.95673e-09 -0.00142289 0) (6.87781e-09 -0.00142287 0) (1.71509e-09 -0.00142285 0));
    }
    procBoundary2to3
    {
        type            processor;
        value           nonuniform List<vector> 5((1.60146e-09 -0.00142285 0) (6.8394e-09 -0.00142288 0) (4.46124e-09 -0.00142289 0) (-7.18508e-09 -0.00142287 0) (-5.93201e-09 -0.00142285 0));
    }
}


// ************************************************************************* //
