/*--------------------------------*- C++ -*----------------------------------*\
| =========                 |                                                 |
| \\      /  F ield         | OpenFOAM: The Open Source CFD Toolbox           |
|  \\    /   O peration     | Version:  2.4.0                                 |
|   \\  /    A nd           | Web:      www.OpenFOAM.org                      |
|    \\/     M anipulation  |                                                 |
\*---------------------------------------------------------------------------*/
FoamFile
{
    version     2.0;
    format      ascii;
    class       volScalarField;
    location    "0.005";
    object      H;
}
// * * * * * * * * * * * * * * * * * * * * * * * * * * * * * * * * * * * * * //

dimensions      [0 2 -2 0 0 0 0];

internalField   nonuniform List<scalar> 
125
(
-10102.1
-5830.72
-168.388
-125.857
-125.443
-124.824
-124.007
-122.996
-121.8
-120.424
-118.878
-117.169
-115.307
-113.301
-111.16
-108.895
-106.515
-104.031
-101.453
-98.7922
-96.0586
-93.2629
-90.4152
-87.5258
-84.6046
-81.6614
-78.7056
-75.7463
-72.7923
-69.8519
-66.9332
-64.0434
-61.1898
-58.3789
-55.6166
-52.9087
-50.2601
-47.6754
-45.1586
-42.7133
-40.3425
-38.0488
-35.8342
-33.7004
-31.6487
-29.6796
-27.7937
-25.991
-24.271
-22.6331
-21.0763
-19.5994
-18.2008
-16.8789
-15.6317
-14.457
-13.3527
-12.3163
-11.3454
-10.4373
-9.58961
-8.79949
-8.06431
-7.38138
-6.74803
-6.1616
-5.61948
-5.11912
-4.65801
-4.23372
-3.84389
-3.48625
-3.15862
-2.8589
-2.58509
-2.33528
-2.10769
-1.90058
-1.71236
-1.5415
-1.38659
-1.24629
-1.11936
-1.00465
-0.901086
-0.807672
-0.72349
-0.647694
-0.579504
-0.518205
-0.46314
-0.413711
-0.369369
-0.329616
-0.293997
-0.2621
-0.233551
-0.208011
-0.185173
-0.164761
-0.146526
-0.130241
-0.115705
-0.102734
-0.0911656
-0.0808517
-0.0716604
-0.0634731
-0.0561834
-0.049696
-0.0439255
-0.0387954
-0.0342372
-0.0301894
-0.0265973
-0.0234115
-0.0205882
-0.0180879
-0.0158754
-0.0139192
-0.012191
-0.0106657
-0.00932079
-0.008136
-0.00709338
)
;

boundaryField
{
    BotWall
    {
        type            zeroGradient;
    }
    FreeStream
    {
        type            zeroGradient;
    }
    FrontNBack
    {
        type            empty;
    }
    LeftSide
    {
        type            symmetryPlane;
    }
    RightSide
    {
        type            symmetryPlane;
    }
    procBoundary11to8
    {
        type            processor;
        value           nonuniform List<scalar> 
50
(
-2.30701
-2.08138
-1.87619
-1.68983
-1.52076
-1.36755
-1.22888
-1.10348
-0.990217
-0.888002
-0.795845
-0.712829
-0.638109
-0.570909
-0.510517
-0.456281
-0.407606
-0.363948
-0.324812
-0.28975
-0.258353
-0.230251
-0.205111
-0.18263
-0.162535
-0.144579
-0.128542
-0.114224
-0.101446
-0.0900458
-0.0798796
-0.0708175
-0.0627429
-0.0555513
-0.0491494
-0.043453
-0.0383873
-0.0338848
-0.0298853
-0.0263349
-0.0231852
-0.020393
-0.0179196
-0.0157303
-0.0137941
-0.0120832
-0.0105728
-0.00924068
-0.00806696
-0.0070339
)
;
    }
    procBoundary11to9
    {
        type            processor;
        value           nonuniform List<scalar> 
75
(
-10105.5
-5841
-170.395
-127.391
-127
-126.397
-125.59
-124.583
-123.384
-122.001
-120.441
-118.714
-116.829
-114.795
-112.622
-110.321
-107.903
-105.377
-102.755
-100.047
-97.2644
-94.4182
-91.5187
-88.5765
-85.602
-82.6051
-79.5955
-76.5827
-73.5757
-70.583
-67.6128
-64.6729
-61.7704
-58.912
-56.1041
-53.3522
-50.6615
-48.0366
-45.4817
-43.0004
-40.5956
-38.2701
-36.0258
-33.8644
-31.7871
-29.7946
-27.8872
-26.0649
-24.3272
-22.6733
-21.1023
-19.6128
-18.2032
-16.8716
-15.616
-14.4343
-13.3241
-12.2828
-11.308
-10.397
-9.54701
-8.75536
-8.01928
-7.336
-6.70276
-6.11687
-5.57563
-5.07644
-4.61673
-4.19403
-3.80594
-3.45015
-3.12444
-2.82667
-2.55484
)
;
    }
    procBoundary11to10
    {
        type            processor;
        value           uniform -0.00617689;
    }
}


// ************************************************************************* //
