/*--------------------------------*- C++ -*----------------------------------*\
| =========                 |                                                 |
| \\      /  F ield         | OpenFOAM: The Open Source CFD Toolbox           |
|  \\    /   O peration     | Version:  2.4.0                                 |
|   \\  /    A nd           | Web:      www.OpenFOAM.org                      |
|    \\/     M anipulation  |                                                 |
\*---------------------------------------------------------------------------*/
FoamFile
{
    version     2.0;
    format      ascii;
    class       surfaceScalarField;
    location    "0.005";
    object      phi;
}
// * * * * * * * * * * * * * * * * * * * * * * * * * * * * * * * * * * * * * //

dimensions      [0 3 -1 0 0 0 0];

internalField   nonuniform List<scalar> 
124
(
-2.2445e-17
-4.28526e-16
-5.59422e-09
-5.59422e-09
-5.59422e-09
-5.59423e-09
-5.59423e-09
-5.59423e-09
-5.59423e-09
-5.59423e-09
-5.59423e-09
-5.59424e-09
-5.59424e-09
-5.59424e-09
-5.59424e-09
-5.59425e-09
-5.59425e-09
-5.59425e-09
-5.59425e-09
-5.59426e-09
-5.59426e-09
-5.59426e-09
-5.59427e-09
-5.59427e-09
-5.59427e-09
-5.59427e-09
-5.59428e-09
-5.59428e-09
-5.59428e-09
-5.59429e-09
-5.59429e-09
-5.59429e-09
-5.59429e-09
-5.5943e-09
-5.5943e-09
-5.5943e-09
-5.5943e-09
-5.5943e-09
-5.59431e-09
-5.59431e-09
-5.59431e-09
-5.59431e-09
-5.59431e-09
-5.59431e-09
-5.59431e-09
-5.59431e-09
-5.59431e-09
-5.59432e-09
-5.59432e-09
-5.59432e-09
-5.59432e-09
-5.59432e-09
-5.59432e-09
-5.59432e-09
-5.59432e-09
-5.59432e-09
-5.59432e-09
-5.59432e-09
-5.59431e-09
-5.59431e-09
-5.59431e-09
-5.59431e-09
-5.59431e-09
-5.59431e-09
-5.59431e-09
-5.59431e-09
-5.59431e-09
-5.5943e-09
-5.5943e-09
-5.5943e-09
-5.5943e-09
-5.5943e-09
-5.5943e-09
-5.5943e-09
-5.59429e-09
-5.59429e-09
-5.59429e-09
-5.59429e-09
-5.59429e-09
-5.59428e-09
-5.59428e-09
-5.59428e-09
-5.59428e-09
-5.59427e-09
-5.59427e-09
-5.59427e-09
-5.59427e-09
-5.59426e-09
-5.59426e-09
-5.59426e-09
-5.59426e-09
-5.59425e-09
-5.59425e-09
-5.59425e-09
-5.59425e-09
-5.59424e-09
-5.59424e-09
-5.59424e-09
-5.59423e-09
-5.59423e-09
-5.59423e-09
-5.59423e-09
-5.59422e-09
-5.59422e-09
-5.59422e-09
-5.59421e-09
-5.59421e-09
-5.59421e-09
-5.5942e-09
-5.5942e-09
-5.5942e-09
-5.59419e-09
-5.59419e-09
-5.59419e-09
-5.59418e-09
-5.59418e-09
-5.59418e-09
-5.59417e-09
-5.59417e-09
-5.59417e-09
-5.59416e-09
-5.59416e-09
-5.59416e-09
-5.59415e-09
)
;

boundaryField
{
    BotWall
    {
        type            calculated;
        value           uniform 0;
    }
    FreeStream
    {
        type            calculated;
        value           nonuniform 0();
    }
    FrontNBack
    {
        type            empty;
        value           nonuniform 0();
    }
    LeftSide
    {
        type            symmetryPlane;
        value           nonuniform 0();
    }
    RightSide
    {
        type            symmetryPlane;
        value           uniform 0;
    }
    procBoundary11to8
    {
        type            processor;
        value           nonuniform List<scalar> 
50
(
-1.90188e-15
-1.9598e-15
-2.0163e-15
-2.07143e-15
-2.12527e-15
-2.17786e-15
-2.22926e-15
-2.27951e-15
-2.32865e-15
-2.37671e-15
-2.42371e-15
-2.46968e-15
-2.51464e-15
-2.55859e-15
-2.60154e-15
-2.6435e-15
-2.68446e-15
-2.72442e-15
-2.76337e-15
-2.8013e-15
-2.8382e-15
-2.87406e-15
-2.90885e-15
-2.94257e-15
-2.97518e-15
-3.00668e-15
-3.03704e-15
-3.06623e-15
-3.09425e-15
-3.12106e-15
-3.14665e-15
-3.171e-15
-3.19409e-15
-3.21589e-15
-3.2364e-15
-3.25558e-15
-3.27344e-15
-3.28994e-15
-3.30509e-15
-3.31885e-15
-3.33124e-15
-3.34222e-15
-3.35179e-15
-3.35996e-15
-3.3667e-15
-3.37201e-15
-3.37589e-15
-3.37832e-15
-3.37931e-15
-3.37886e-15
)
;
    }
    procBoundary11to9
    {
        type            processor;
        value           nonuniform List<scalar> 
75
(
2.24487e-17
1.57309e-16
-1.19466e-16
8.84131e-18
6.89405e-16
8.6801e-16
1.05305e-15
1.28181e-15
1.51367e-15
1.72775e-15
1.92273e-15
2.10032e-15
2.26121e-15
2.40545e-15
2.53304e-15
2.64412e-15
2.73891e-15
2.81771e-15
2.88087e-15
2.92881e-15
2.96197e-15
2.98089e-15
2.9861e-15
2.97821e-15
2.95784e-15
2.92564e-15
2.8823e-15
2.8285e-15
2.76495e-15
2.69238e-15
2.6115e-15
2.52303e-15
2.42771e-15
2.32623e-15
2.2193e-15
2.1076e-15
1.99179e-15
1.87253e-15
1.75041e-15
1.62604e-15
1.49998e-15
1.37276e-15
1.24488e-15
1.11679e-15
9.88939e-16
8.61716e-16
7.35481e-16
6.10562e-16
4.87249e-16
3.658e-16
2.4644e-16
1.2936e-16
1.47226e-17
-9.73468e-17
-2.06739e-16
-3.13377e-16
-4.17206e-16
-5.18197e-16
-6.16339e-16
-7.11642e-16
-8.04132e-16
-8.93849e-16
-9.80847e-16
-1.06519e-15
-1.14696e-15
-1.22622e-15
-1.30308e-15
-1.37761e-15
-1.44992e-15
-1.5201e-15
-1.58825e-15
-1.65447e-15
-1.71885e-15
-1.78149e-15
-1.84247e-15
)
;
    }
    procBoundary11to10
    {
        type            processor;
        value           uniform -5.59415e-09;
    }
}


// ************************************************************************* //
