/*--------------------------------*- C++ -*----------------------------------*\
| =========                 |                                                 |
| \\      /  F ield         | OpenFOAM: The Open Source CFD Toolbox           |
|  \\    /   O peration     | Version:  2.4.0                                 |
|   \\  /    A nd           | Web:      www.OpenFOAM.org                      |
|    \\/     M anipulation  |                                                 |
\*---------------------------------------------------------------------------*/
FoamFile
{
    version     2.0;
    format      ascii;
    class       volScalarField;
    location    "4.6";
    object      H;
}
// * * * * * * * * * * * * * * * * * * * * * * * * * * * * * * * * * * * * * //

dimensions      [0 2 -2 0 0 0 0];

internalField   nonuniform List<scalar> 
125
(
-11.2445
-11.2087
-11.1442
-11.1717
-11.2461
-11.1584
-11.1233
-11.0609
-11.0874
-11.1595
-11.067
-11.0326
-10.9721
-10.9978
-11.0676
-10.9701
-10.9364
-10.8779
-10.9027
-10.9702
-10.8676
-10.8346
-10.778
-10.802
-10.8673
-10.7594
-10.7271
-10.6724
-10.6956
-10.7587
-10.6454
-10.6139
-10.561
-10.5834
-10.6444
-10.5256
-10.4948
-10.4437
-10.4653
-10.5242
-10.3997
-10.3697
-10.3204
-10.3412
-10.398
-10.2678
-10.2385
-10.1909
-10.211
-10.2658
-10.1297
-10.1011
-10.0553
-10.0746
-10.1274
-9.9854
-9.95756
-9.91333
-9.93198
-9.98285
-9.83477
-9.80768
-9.76507
-9.78301
-9.83198
-9.67776
-9.65143
-9.61041
-9.62765
-9.67475
-9.51432
-9.48874
-9.44927
-9.46583
-9.51112
-9.3444
-9.31957
-9.28162
-9.29752
-9.34101
-9.16795
-9.14387
-9.10742
-9.12266
-9.16441
-8.98494
-8.96162
-8.92663
-8.94123
-8.98126
-8.79536
-8.77279
-8.73923
-8.7532
-8.79156
-8.59918
-8.57737
-8.54521
-8.55857
-8.59529
-8.39641
-8.37535
-8.34456
-8.35732
-8.39244
-8.18705
-8.16675
-8.13731
-8.14948
-8.18302
-7.97114
-7.9516
-7.92347
-7.93507
-7.96707
-7.74871
-7.72991
-7.70307
-7.71412
-7.74461
-7.5198
-7.50176
-7.47618
-7.48667
-7.5157
)
;

boundaryField
{
    BotWall
    {
        type            zeroGradient;
    }
    FreeStream
    {
        type            zeroGradient;
    }
    FrontNBack
    {
        type            empty;
    }
    LeftSide
    {
        type            symmetryPlane;
    }
    RightSide
    {
        type            symmetryPlane;
    }
    procBoundary2to1
    {
        type            processor;
        value           nonuniform List<scalar> 5(-11.3246 -11.2882 -11.2216 -11.2499 -11.3267);
    }
    procBoundary2to3
    {
        type            processor;
        value           nonuniform List<scalar> 5(-7.28394 -7.26665 -7.24231 -7.25227 -7.27985);
    }
}


// ************************************************************************* //
