/*--------------------------------*- C++ -*----------------------------------*\
| =========                 |                                                 |
| \\      /  F ield         | OpenFOAM: The Open Source CFD Toolbox           |
|  \\    /   O peration     | Version:  2.4.0                                 |
|   \\  /    A nd           | Web:      www.OpenFOAM.org                      |
|    \\/     M anipulation  |                                                 |
\*---------------------------------------------------------------------------*/
FoamFile
{
    version     2.0;
    format      ascii;
    class       volScalarField;
    location    "4.6";
    object      p_rgh;
}
// * * * * * * * * * * * * * * * * * * * * * * * * * * * * * * * * * * * * * //

dimensions      [1 -1 -2 0 0 0 0];

internalField   nonuniform List<scalar> 
125
(
-4.42297e-06
-4.1152e-06
-4.46976e-06
-4.61608e-06
-4.7049e-06
-4.4219e-06
-4.12608e-06
-4.46882e-06
-4.61341e-06
-4.7008e-06
-4.421e-06
-4.13674e-06
-4.4679e-06
-4.61077e-06
-4.69666e-06
-4.42025e-06
-4.1472e-06
-4.46704e-06
-4.60815e-06
-4.6925e-06
-4.41964e-06
-4.15748e-06
-4.46625e-06
-4.60555e-06
-4.68833e-06
-4.41915e-06
-4.1676e-06
-4.46555e-06
-4.60296e-06
-4.68416e-06
-4.41879e-06
-4.17755e-06
-4.46493e-06
-4.60038e-06
-4.67998e-06
-4.41855e-06
-4.18734e-06
-4.4644e-06
-4.59782e-06
-4.6758e-06
-4.41843e-06
-4.19697e-06
-4.46395e-06
-4.59527e-06
-4.67163e-06
-4.41843e-06
-4.20644e-06
-4.46358e-06
-4.59273e-06
-4.66747e-06
-4.41855e-06
-4.21576e-06
-4.4633e-06
-4.5902e-06
-4.66331e-06
-4.41879e-06
-4.22492e-06
-4.4631e-06
-4.58769e-06
-4.65916e-06
-4.41914e-06
-4.23394e-06
-4.46298e-06
-4.58519e-06
-4.65501e-06
-4.41961e-06
-4.2428e-06
-4.46295e-06
-4.58271e-06
-4.65087e-06
-4.42019e-06
-4.25151e-06
-4.46299e-06
-4.58024e-06
-4.64673e-06
-4.4209e-06
-4.26008e-06
-4.46311e-06
-4.57779e-06
-4.6426e-06
-4.42171e-06
-4.2685e-06
-4.4633e-06
-4.57536e-06
-4.63847e-06
-4.42264e-06
-4.27678e-06
-4.46357e-06
-4.57294e-06
-4.63435e-06
-4.42369e-06
-4.28492e-06
-4.46391e-06
-4.57054e-06
-4.63024e-06
-4.42485e-06
-4.29292e-06
-4.46433e-06
-4.56816e-06
-4.62613e-06
-4.42612e-06
-4.30078e-06
-4.46481e-06
-4.5658e-06
-4.62202e-06
-4.4275e-06
-4.30852e-06
-4.46537e-06
-4.56345e-06
-4.61792e-06
-4.42899e-06
-4.31612e-06
-4.46597e-06
-4.56112e-06
-4.61381e-06
-4.43063e-06
-4.32356e-06
-4.46664e-06
-4.55882e-06
-4.60982e-06
-4.4323e-06
-4.33097e-06
-4.46736e-06
-4.55652e-06
-4.60579e-06
)
;

boundaryField
{
    BotWall
    {
        type            fixedFluxPressure;
        gradient        nonuniform 0();
        value           nonuniform 0();
    }
    FreeStream
    {
        type            totalPressure;
        rho             rho;
        psi             none;
        gamma           1;
        p0              nonuniform 0();
        value           nonuniform 0();
    }
    FrontNBack
    {
        type            empty;
    }
    LeftSide
    {
        type            symmetryPlane;
    }
    RightSide
    {
        type            symmetryPlane;
    }
    procBoundary2to1
    {
        type            processor;
        value           nonuniform List<scalar> 5(-4.42431e-06 -4.10406e-06 -4.47075e-06 -4.61878e-06 -4.7089e-06);
    }
    procBoundary2to3
    {
        type            processor;
        value           nonuniform List<scalar> 5(-4.43407e-06 -4.33829e-06 -4.46812e-06 -4.55425e-06 -4.60183e-06);
    }
}


// ************************************************************************* //
