/*--------------------------------*- C++ -*----------------------------------*\
| =========                 |                                                 |
| \\      /  F ield         | OpenFOAM: The Open Source CFD Toolbox           |
|  \\    /   O peration     | Version:  2.4.0                                 |
|   \\  /    A nd           | Web:      www.OpenFOAM.org                      |
|    \\/     M anipulation  |                                                 |
\*---------------------------------------------------------------------------*/
FoamFile
{
    version     2.0;
    format      ascii;
    class       surfaceScalarField;
    location    "4.6";
    object      phi;
}
// * * * * * * * * * * * * * * * * * * * * * * * * * * * * * * * * * * * * * //

dimensions      [0 3 -1 0 0 0 0];

internalField   nonuniform List<scalar> 
220
(
8.49793e-16
-1.98755e-10
9.41102e-16
-1.98723e-10
-3.21439e-16
-1.98676e-10
-9.66769e-16
-1.98697e-10
-1.98765e-10
7.94905e-16
-1.98756e-10
8.80097e-16
-1.98723e-10
-2.92348e-16
-1.98675e-10
-8.87905e-16
-1.98696e-10
-1.98766e-10
7.41235e-16
-1.98756e-10
8.20667e-16
-1.98723e-10
-2.64076e-16
-1.98674e-10
-8.11399e-16
-1.98695e-10
-1.98767e-10
6.8881e-16
-1.98757e-10
7.62832e-16
-1.98723e-10
-2.36635e-16
-1.98673e-10
-7.37265e-16
-1.98695e-10
-1.98768e-10
6.37658e-16
-1.98758e-10
7.06606e-16
-1.98723e-10
-2.10033e-16
-1.98672e-10
-6.65515e-16
-1.98694e-10
-1.98768e-10
5.87802e-16
-1.98758e-10
6.52007e-16
-1.98723e-10
-1.8428e-16
-1.98671e-10
-5.96161e-16
-1.98694e-10
-1.98769e-10
5.39268e-16
-1.98759e-10
5.99046e-16
-1.98723e-10
-1.59382e-16
-1.9867e-10
-5.2921e-16
-1.98694e-10
-1.98769e-10
4.92076e-16
-1.98759e-10
5.47737e-16
-1.98724e-10
-1.35346e-16
-1.9867e-10
-4.64669e-16
-1.98693e-10
-1.9877e-10
4.46249e-16
-1.9876e-10
4.98088e-16
-1.98724e-10
-1.12177e-16
-1.98669e-10
-4.02539e-16
-1.98693e-10
-1.9877e-10
4.01805e-16
-1.9876e-10
4.50109e-16
-1.98724e-10
-8.98811e-17
-1.98669e-10
-3.42823e-16
-1.98693e-10
-1.98771e-10
3.58763e-16
-1.9876e-10
4.03807e-16
-1.98724e-10
-6.84609e-17
-1.98668e-10
-2.85518e-16
-1.98693e-10
-1.98771e-10
3.17137e-16
-1.98761e-10
3.59186e-16
-1.98724e-10
-4.79188e-17
-1.98668e-10
-2.30621e-16
-1.98692e-10
-1.98771e-10
2.76943e-16
-1.98761e-10
3.1625e-16
-1.98724e-10
-2.82565e-17
-1.98667e-10
-1.78124e-16
-1.98692e-10
-1.98771e-10
2.38193e-16
-1.98761e-10
2.75001e-16
-1.98724e-10
-9.47389e-18
-1.98667e-10
-1.28019e-16
-1.98692e-10
-1.98771e-10
2.00898e-16
-1.98762e-10
2.35437e-16
-1.98724e-10
8.42987e-18
-1.98667e-10
-8.02934e-17
-1.98692e-10
-1.98771e-10
1.65065e-16
-1.98762e-10
1.97557e-16
-1.98724e-10
2.54571e-17
-1.98667e-10
-3.49321e-17
-1.98692e-10
-1.98771e-10
1.30701e-16
-1.98762e-10
1.61357e-16
-1.98724e-10
4.16112e-17
-1.98667e-10
8.08249e-18
-1.98692e-10
-1.98771e-10
9.78113e-17
-1.98762e-10
1.26829e-16
-1.98724e-10
5.68971e-17
-1.98667e-10
4.87715e-17
-1.98692e-10
-1.98771e-10
6.63967e-17
-1.98762e-10
9.3967e-17
-1.98724e-10
7.13211e-17
-1.98667e-10
8.71578e-17
-1.98692e-10
-1.98771e-10
3.64573e-17
-1.98762e-10
6.27591e-17
-1.98724e-10
8.48906e-17
-1.98667e-10
1.23268e-16
-1.98692e-10
-1.98771e-10
7.99026e-18
-1.98762e-10
3.31929e-17
-1.98724e-10
9.76146e-17
-1.98667e-10
1.57132e-16
-1.98692e-10
-1.98771e-10
-1.90093e-17
-1.98762e-10
5.25348e-18
-1.98724e-10
1.09504e-16
-1.98667e-10
1.88782e-16
-1.98692e-10
-1.98771e-10
-4.45487e-17
-1.98762e-10
-2.10777e-17
-1.98724e-10
1.20571e-16
-1.98667e-10
2.18255e-16
-1.98692e-10
-1.98771e-10
-6.86361e-17
-1.98762e-10
-4.58201e-17
-1.98724e-10
1.30829e-16
-1.98667e-10
2.45591e-16
-1.98692e-10
-1.9877e-10
-9.12815e-17
-6.89985e-17
1.40294e-16
2.70832e-16
)
;

boundaryField
{
    BotWall
    {
        type            calculated;
        value           nonuniform 0();
    }
    FreeStream
    {
        type            calculated;
        value           nonuniform 0();
    }
    FrontNBack
    {
        type            empty;
        value           nonuniform 0();
    }
    LeftSide
    {
        type            symmetryPlane;
        value           uniform 0;
    }
    RightSide
    {
        type            symmetryPlane;
        value           uniform 0;
    }
    procBoundary2to1
    {
        type            processor;
        value           nonuniform List<scalar> 5(1.98754e-10 1.98723e-10 1.98678e-10 1.98697e-10 1.98764e-10);
    }
    procBoundary2to3
    {
        type            processor;
        value           nonuniform List<scalar> 5(-1.98762e-10 -1.98724e-10 -1.98667e-10 -1.98692e-10 -1.9877e-10);
    }
}


// ************************************************************************* //
