/*--------------------------------*- C++ -*----------------------------------*\
| =========                 |                                                 |
| \\      /  F ield         | OpenFOAM: The Open Source CFD Toolbox           |
|  \\    /   O peration     | Version:  2.4.0                                 |
|   \\  /    A nd           | Web:      www.OpenFOAM.org                      |
|    \\/     M anipulation  |                                                 |
\*---------------------------------------------------------------------------*/
FoamFile
{
    version     2.0;
    format      ascii;
    class       volScalarField;
    location    "3.5";
    object      alpha1;
}
// * * * * * * * * * * * * * * * * * * * * * * * * * * * * * * * * * * * * * //

dimensions      [0 0 0 0 0 0 0];

internalField   nonuniform List<scalar> 
8000
(
1
0.999999
0.999997
0.999998
0.999998
0.999999
0.999999
0.999999
0.999999
0.999999
0.999999
0.999999
0.999999
0.999999
0.999998
0.999999
1
1.00023
0.435172
0.0319097
0.000505906
3.20403e-06
1.77506e-06
4.68659e-07
7.32992e-08
1.57638e-08
3.081e-09
5.20701e-10
9.23246e-11
4.23742e-11
5.25157e-11
7.45822e-11
1.02728e-10
1.36765e-10
1.77243e-10
2.24877e-10
2.80518e-10
3.45244e-10
4.20261e-10
5.06907e-10
6.06749e-10
7.21606e-10
8.5357e-10
1.00507e-09
1.17894e-09
1.37847e-09
1.60748e-09
1.8704e-09
2.17239e-09
2.51942e-09
1
0.999999
0.999997
0.999998
0.999998
0.999999
0.999999
0.999999
0.999999
0.999999
0.999999
0.999999
0.999999
0.999999
0.999998
0.999999
0.999999
0.999996
1
0.569109
0.0736195
0.00132032
1.07639e-05
2.21257e-06
2.25368e-07
4.56432e-08
9.05051e-09
1.51657e-09
2.3763e-10
6.81186e-11
6.72985e-11
9.21042e-11
1.24246e-10
1.6201e-10
2.05735e-10
2.5607e-10
3.13771e-10
3.79899e-10
4.55552e-10
5.41838e-10
6.40064e-10
7.51754e-10
8.78589e-10
1.0225e-09
1.1857e-09
1.37075e-09
1.58056e-09
1.81846e-09
2.08825e-09
2.39422e-09
1
0.999999
0.999997
0.999998
0.999999
0.999999
0.999999
0.999999
0.999999
0.999999
0.999999
0.999999
0.999999
0.999999
0.999999
0.999999
0.999999
0.999998
1
0.999935
0.716594
0.0944363
0.00249736
1.4158e-05
5.80832e-07
1.19025e-07
2.41355e-08
4.01642e-09
5.99661e-10
1.3061e-10
9.985e-11
1.27991e-10
1.66312e-10
2.09701e-10
2.5827e-10
3.12817e-10
3.74179e-10
4.43613e-10
5.22234e-10
6.10974e-10
7.10974e-10
8.23612e-10
9.50298e-10
1.09263e-09
1.25244e-09
1.43181e-09
1.6331e-09
1.85898e-09
2.11246e-09
2.39688e-09
1
0.999999
0.999997
0.999998
0.999999
0.999999
0.999999
0.999999
0.999999
0.999999
0.999999
0.999999
0.999999
0.999999
0.999999
0.999999
0.999999
0.999999
1
0.999995
0.999928
0.721684
0.0523999
0.000388592
7.98316e-07
2.50045e-07
5.22851e-08
8.68285e-09
1.27993e-09
2.54493e-10
1.66602e-10
1.97908e-10
2.44004e-10
2.94023e-10
3.47984e-10
4.0718e-10
4.72849e-10
5.46692e-10
6.29826e-10
7.23043e-10
8.27364e-10
9.44072e-10
1.07436e-09
1.21956e-09
1.38123e-09
1.56111e-09
1.7612e-09
1.98373e-09
2.23117e-09
2.50629e-09
1
0.999999
0.999998
0.999998
0.999999
0.999999
1
0.999999
0.999999
0.999999
0.999999
0.999999
0.999999
0.999999
0.999999
0.999999
0.999999
0.999998
0.999999
0.999998
0.999998
0.999994
0.187311
0.00139356
1.50915e-06
3.60662e-07
7.48939e-08
1.26347e-08
1.90823e-09
4.18426e-10
2.86716e-10
3.2251e-10
3.74992e-10
4.29364e-10
4.863e-10
5.47985e-10
6.16494e-10
6.93872e-10
7.81005e-10
8.78658e-10
9.87712e-10
1.1092e-09
1.24406e-09
1.39334e-09
1.5583e-09
1.74038e-09
1.94123e-09
2.1627e-09
2.40684e-09
2.67592e-09
1
0.999999
0.999998
0.999998
0.999999
0.999999
1
0.999999
0.999999
0.999999
0.999999
1
0.999999
0.999999
0.999999
0.999999
0.999999
0.999999
0.999998
0.999998
0.999936
0.925947
0.0699169
0.000618101
1.12006e-06
2.51898e-07
4.85661e-08
7.68767e-09
1.25904e-09
4.91261e-10
4.66961e-10
5.16263e-10
5.67452e-10
6.17434e-10
6.69588e-10
7.2726e-10
7.92987e-10
8.68539e-10
9.5499e-10
1.05291e-09
1.16277e-09
1.28508e-09
1.42036e-09
1.56929e-09
1.73276e-09
1.91181e-09
2.1077e-09
2.32184e-09
2.55584e-09
2.81142e-09
1
0.999999
0.999998
0.999999
0.999999
0.999999
1
0.999999
0.999999
0.999999
0.999999
0.999999
0.999999
0.999999
0.999999
1
0.999997
0.999999
0.999977
0.999408
0.750784
0.103411
0.00217209
2.44702e-06
1.44931e-07
1.94983e-08
2.24898e-09
6.66867e-10
6.24891e-10
6.87459e-10
7.39899e-10
7.78589e-10
8.09381e-10
8.38799e-10
8.72377e-10
9.14137e-10
9.66632e-10
1.03121e-09
1.10839e-09
1.1982e-09
1.30047e-09
1.41503e-09
1.54184e-09
1.68105e-09
1.83305e-09
1.99842e-09
2.17793e-09
2.37252e-09
2.58326e-09
2.81131e-09
1
0.999999
0.999999
0.999999
0.999999
1
1
0.999999
0.999999
0.999999
0.999999
0.999999
0.999998
1
0.999999
0.999999
0.99997
0.999324
0.85647
0.269634
0.00565199
0.00106897
4.3412e-05
3.32583e-09
1.21488e-09
6.95691e-10
8.18373e-10
9.38637e-10
1.02139e-09
1.06802e-09
1.08448e-09
1.07969e-09
1.06423e-09
1.04813e-09
1.03927e-09
1.04282e-09
1.0616e-09
1.09659e-09
1.14749e-09
1.21336e-09
1.29296e-09
1.38513e-09
1.48894e-09
1.60375e-09
1.72923e-09
1.86534e-09
2.01226e-09
2.17037e-09
2.34016e-09
2.52225e-09
1
1
0.999999
0.999999
0.999999
1
1
0.999999
0.999999
0.999999
0.999998
0.999998
0.999998
0.999998
0.999937
0.999016
0.833645
0.207761
0.0123053
0.0096857
2.34317e-07
6.79496e-07
9.55158e-08
1.30342e-09
1.35225e-09
1.46107e-09
1.56941e-09
1.64964e-09
1.69369e-09
1.69271e-09
1.64553e-09
1.56141e-09
1.45731e-09
1.35151e-09
1.25811e-09
1.18578e-09
1.13864e-09
1.1173e-09
1.12013e-09
1.14434e-09
1.18683e-09
1.24466e-09
1.31539e-09
1.39711e-09
1.48841e-09
1.58834e-09
1.69631e-09
1.81203e-09
1.93542e-09
2.06652e-09
1
1
0.999999
0.999999
0.999999
1
0.999999
0.999999
0.999998
0.999998
0.999998
0.999998
0.999068
0.998752
0.770161
0.0693793
0.0179008
0.00214565
0.000206001
0.00011961
9.03214e-08
8.20969e-08
1.92605e-08
1.68869e-09
1.93792e-09
2.18514e-09
2.40526e-09
2.64165e-09
2.84125e-09
2.9282e-09
2.86746e-09
2.672e-09
2.39085e-09
2.08228e-09
1.78955e-09
1.53698e-09
1.33545e-09
1.18651e-09
1.08592e-09
1.02677e-09
1.00142e-09
1.00284e-09
1.02512e-09
1.06348e-09
1.11419e-09
1.17448e-09
1.24236e-09
1.31649e-09
1.39594e-09
1.4801e-09
1
1
1
1
0.999999
0.999999
0.999999
0.999999
0.99999
0.99901
0.996237
0.965079
0.235866
0.0436919
0.00750486
0.000307165
0.000145025
3.34648e-05
1.00156e-06
8.45899e-07
1.14236e-07
3.69613e-08
1.56608e-08
2.68853e-09
1.48824e-09
1.35859e-09
2.17139e-09
3.34745e-09
4.3467e-09
4.96849e-09
5.12953e-09
4.87027e-09
4.33194e-09
3.68588e-09
3.0521e-09
2.48904e-09
2.02138e-09
1.65265e-09
1.37447e-09
1.17327e-09
1.03445e-09
9.44838e-10
8.93433e-10
8.71106e-10
8.70402e-10
8.85525e-10
9.12197e-10
9.47304e-10
9.8856e-10
1.03431e-09
1
1
1
0.999999
0.999998
0.999999
0.999668
0.99874
0.908897
0.114147
0.0277729
0.00822513
0.000103473
5.46775e-05
2.08625e-06
6.84042e-07
5.27511e-07
4.09174e-07
3.55927e-07
2.21997e-07
5.00556e-08
1.41334e-08
6.48861e-09
3.72174e-09
4.65571e-09
6.04841e-09
7.16093e-09
7.8562e-09
8.16999e-09
8.0898e-09
7.64946e-09
6.9363e-09
6.06864e-09
5.16678e-09
4.32393e-09
3.57952e-09
2.94621e-09
2.42091e-09
1.99328e-09
1.65065e-09
1.38099e-09
1.17396e-09
1.02003e-09
9.09585e-10
8.33524e-10
7.84212e-10
7.55651e-10
7.42984e-10
7.42214e-10
7.50143e-10
1
1
0.999999
0.999997
0.999998
0.998897
0.425852
0.0235689
0.0269516
0.000151864
9.67217e-05
1.96804e-06
2.94894e-07
2.85691e-07
2.65009e-07
1.48157e-07
1.01262e-07
6.84266e-08
4.51421e-08
2.69421e-08
1.70262e-08
1.56432e-08
1.58125e-08
1.58929e-08
1.56797e-08
1.52364e-08
1.45692e-08
1.37169e-08
1.27388e-08
1.16927e-08
1.06229e-08
9.56127e-09
8.5314e-09
7.55115e-09
6.63187e-09
5.77868e-09
4.99189e-09
4.26806e-09
3.60572e-09
3.00842e-09
2.48355e-09
2.03726e-09
1.66895e-09
1.37079e-09
1.13298e-09
9.47137e-10
8.06446e-10
7.03767e-10
6.31923e-10
5.84331e-10
1
1
0.999998
0.999998
0.946344
0.0212052
0.0107937
0.000363128
0.000266964
3.14919e-07
3.08058e-07
4.04271e-07
1.50518e-07
1.10125e-07
7.06215e-08
4.11736e-08
2.95063e-08
2.511e-08
2.41728e-08
2.45333e-08
2.51534e-08
2.53776e-08
2.571e-08
2.61799e-08
2.66336e-08
2.66696e-08
2.60454e-08
2.48883e-08
2.34696e-08
2.20251e-08
2.06664e-08
1.94038e-08
1.81853e-08
1.69445e-08
1.56319e-08
1.42455e-08
1.28221e-08
1.13707e-08
9.89374e-09
8.42368e-09
7.02439e-09
5.75969e-09
4.66129e-09
3.71826e-09
2.91623e-09
2.24599e-09
1.70672e-09
1.28793e-09
9.73533e-10
7.44106e-10
1
0.999999
0.999997
0.999292
0.11648
0.000185664
0.000312276
9.67953e-05
2.04738e-06
4.33141e-07
2.96876e-07
2.66361e-07
2.38489e-07
2.32566e-07
1.85813e-07
1.84577e-07
1.7522e-07
1.41974e-07
1.04519e-07
7.92079e-08
5.20118e-08
3.36146e-08
2.73496e-08
2.78369e-08
3.47919e-08
4.25997e-08
4.61564e-08
4.57481e-08
4.30329e-08
3.98467e-08
3.73921e-08
3.62414e-08
3.62492e-08
3.66986e-08
3.66184e-08
3.55598e-08
3.39079e-08
3.18189e-08
2.91639e-08
2.59551e-08
2.24816e-08
1.90646e-08
1.5971e-08
1.30896e-08
1.04741e-08
8.11842e-09
6.10838e-09
4.48383e-09
3.23534e-09
2.28965e-09
1
0.999999
0.999999
0.950026
1.38915e-05
1.09357e-05
1.09336e-05
2.97668e-05
1.48452e-05
5.14048e-06
1.38444e-06
8.27772e-07
5.56649e-07
4.32985e-07
6.11207e-07
2.93157e-07
2.11215e-07
2.76191e-07
7.7153e-07
4.19072e-07
3.58564e-07
4.27169e-07
2.07021e-07
2.1917e-07
2.13288e-07
1.96922e-07
1.79567e-07
1.59416e-07
1.33043e-07
1.01583e-07
7.22381e-08
5.49112e-08
5.57617e-08
6.97241e-08
8.41297e-08
9.0309e-08
9.20945e-08
9.24408e-08
9.03586e-08
8.51413e-08
7.8411e-08
6.94905e-08
6.23273e-08
5.31599e-08
4.4587e-08
3.62056e-08
2.75063e-08
2.03784e-08
1.4853e-08
1.09382e-08
1
0.999994
0.999938
0.527913
0.000959966
0.00116823
4.94364e-05
2.06885e-05
2.88715e-06
2.5042e-06
1.23286e-06
6.55437e-07
4.72425e-07
3.93461e-07
4.02825e-07
3.43038e-07
3.87542e-07
3.06192e-07
3.3123e-07
3.15879e-07
2.98024e-07
3.18061e-07
3.32872e-07
3.56181e-07
3.7878e-07
4.00865e-07
4.22078e-07
4.41699e-07
4.58935e-07
4.73323e-07
4.85067e-07
4.91662e-07
4.86442e-07
4.73217e-07
4.54176e-07
4.29926e-07
4.00897e-07
3.67258e-07
3.40421e-07
3.28942e-07
3.64961e-07
3.06803e-07
3.07667e-07
2.76658e-07
2.37719e-07
2.26181e-07
1.46829e-07
1.07854e-07
6.70382e-08
5.1912e-08
1
0.999992
1
0.727965
0.0435327
0.049803
0.00567442
0.00456916
0.000134211
9.74331e-05
9.28871e-07
1.03321e-06
1.83279e-06
2.74866e-07
2.68672e-07
2.66375e-07
2.62117e-07
2.59979e-07
2.60666e-07
2.6112e-07
2.61182e-07
2.61928e-07
2.84774e-07
5.34492e-07
6.11388e-07
5.743e-07
7.59705e-07
9.42696e-07
1.10691e-06
1.24641e-06
1.35954e-06
1.45109e-06
1.56894e-06
1.68477e-06
1.73877e-06
1.68146e-06
1.51451e-06
1.19723e-06
1.05375e-06
3.01575e-06
5.78091e-06
6.20656e-06
3.59646e-06
3.05107e-06
1.86228e-06
3.12567e-06
1.44077e-06
1.29748e-06
4.46005e-07
3.2831e-07
1
0.999993
0.999994
0.999991
0.99965
0.999915
0.887453
0.41356
0.228127
0.233638
0.122849
0.0739529
0.0223463
0.00960501
0.0045791
0.00434793
0.00509532
0.00425726
0.00262227
0.00128902
0.000591698
0.000268483
0.000123861
4.31848e-05
5.88515e-05
7.74806e-05
7.32698e-05
6.50831e-05
5.58902e-05
4.75627e-05
4.05289e-05
3.4434e-05
2.98748e-05
3.05843e-05
3.15723e-05
2.73495e-05
1.78669e-05
1.42009e-05
1.96717e-05
1.73925e-05
8.20119e-06
2.42141e-05
4.78738e-05
4.75338e-05
1.80318e-05
3.14334e-06
1.23855e-05
1.26166e-05
4.35617e-06
1.19687e-06
1
0.999999
0.999995
0.999997
1
1.00001
1
0.999998
0.999975
0.999939
0.999697
1.00052
0.99875
0.998483
0.889812
0.646515
0.576873
0.524967
0.478055
0.425833
0.361835
0.275398
0.170104
0.0841529
0.039866
0.0242942
0.018592
0.0144954
0.0106196
0.00716054
0.00449603
0.00267818
0.00166147
0.00113371
0.000790164
0.000996663
0.00100447
0.00064106
0.000321582
0.000411821
0.000343965
0.000152213
4.78152e-05
4.03489e-05
5.01924e-05
4.36166e-05
2.21788e-05
1.28909e-05
4.74942e-05
6.87403e-05
2.91845e-09
3.37759e-09
3.90632e-09
4.51574e-09
5.21892e-09
6.03128e-09
6.97108e-09
8.06004e-09
9.32407e-09
1.07941e-08
1.25072e-08
1.45074e-08
1.68475e-08
1.95894e-08
2.28058e-08
2.658e-08
3.10058e-08
3.61852e-08
4.22255e-08
4.92324e-08
5.73034e-08
6.65174e-08
7.69267e-08
8.85495e-08
1.0137e-07
1.15345e-07
1.30425e-07
1.46585e-07
1.63879e-07
1.82517e-07
2.02981e-07
2.26142e-07
2.53259e-07
2.85597e-07
3.23363e-07
3.64004e-07
4.00689e-07
4.22883e-07
4.29385e-07
4.84691e-07
5.60207e-07
1.16591e-06
4.55499e-07
6.28098e-07
6.95537e-07
8.39513e-07
8.88257e-07
8.12333e-07
7.60406e-07
1.02984e-06
2.74127e-09
3.13496e-09
3.58159e-09
4.08833e-09
4.66334e-09
5.3159e-09
6.05663e-09
6.89767e-09
7.85294e-09
8.93846e-09
1.01727e-08
1.15768e-08
1.31755e-08
1.49972e-08
1.70747e-08
1.94457e-08
2.21536e-08
2.52473e-08
2.87818e-08
3.28178e-08
3.74205e-08
4.2658e-08
4.85989e-08
5.53085e-08
6.28447e-08
7.12535e-08
8.05652e-08
9.07916e-08
1.01926e-07
1.13952e-07
1.26851e-07
1.4064e-07
1.55409e-07
1.714e-07
1.89077e-07
2.09192e-07
2.32742e-07
2.60654e-07
2.92699e-07
3.24497e-07
3.42241e-07
3.24448e-07
4.51713e-07
4.80664e-07
5.11037e-07
5.45425e-07
5.56759e-07
5.12362e-07
4.64715e-07
5.02609e-07
2.71599e-09
3.07395e-09
3.4754e-09
3.92549e-09
4.42993e-09
4.99506e-09
5.62793e-09
6.33636e-09
7.12904e-09
8.01562e-09
9.00684e-09
1.01146e-08
1.13523e-08
1.27347e-08
1.42782e-08
1.60014e-08
1.79247e-08
2.00711e-08
2.24657e-08
2.51368e-08
2.8115e-08
3.14338e-08
3.51292e-08
3.92389e-08
4.38018e-08
4.88568e-08
5.44408e-08
6.05875e-08
6.7325e-08
7.46745e-08
8.2649e-08
9.12537e-08
1.00489e-07
1.10357e-07
1.20878e-07
1.32122e-07
1.44254e-07
1.57604e-07
1.72712e-07
1.9028e-07
2.10875e-07
2.34272e-07
2.5858e-07
2.79882e-07
2.93793e-07
2.99894e-07
3.06371e-07
3.24773e-07
3.4863e-07
3.55864e-07
2.81211e-09
3.15197e-09
3.52949e-09
3.94868e-09
4.41387e-09
4.92982e-09
5.50167e-09
6.13506e-09
6.83608e-09
7.61137e-09
8.46811e-09
9.41409e-09
1.04577e-08
1.16081e-08
1.28751e-08
1.42693e-08
1.58021e-08
1.74857e-08
1.93333e-08
2.1359e-08
2.35777e-08
2.60056e-08
2.86595e-08
3.15572e-08
3.47172e-08
3.81588e-08
4.19012e-08
4.59638e-08
5.03653e-08
5.51233e-08
6.02533e-08
6.57685e-08
7.16788e-08
7.79904e-08
8.4706e-08
9.18249e-08
9.93443e-08
1.07261e-07
1.15576e-07
1.24295e-07
1.3344e-07
1.43055e-07
1.53221e-07
1.64073e-07
1.7581e-07
1.88647e-07
2.02644e-07
2.17419e-07
2.31924e-07
2.44662e-07
2.97238e-09
3.29891e-09
3.6584e-09
4.05397e-09
4.489e-09
4.96711e-09
5.49219e-09
6.06843e-09
6.70028e-09
7.39254e-09
8.15032e-09
8.97904e-09
9.88449e-09
1.08728e-08
1.19505e-08
1.31243e-08
1.44016e-08
1.57899e-08
1.72971e-08
1.89316e-08
2.0702e-08
2.26172e-08
2.46865e-08
2.69194e-08
2.93255e-08
3.19146e-08
3.46965e-08
3.76809e-08
4.08773e-08
4.42947e-08
4.79416e-08
5.18257e-08
5.59536e-08
6.03306e-08
6.49609e-08
6.98467e-08
7.49889e-08
8.03867e-08
8.60375e-08
9.19376e-08
9.80817e-08
1.04464e-07
1.11075e-07
1.17905e-07
1.24942e-07
1.32171e-07
1.39582e-07
1.47178e-07
1.54996e-07
1.63122e-07
3.09047e-09
3.39501e-09
3.72722e-09
4.08941e-09
4.48405e-09
4.91378e-09
5.38137e-09
5.88978e-09
6.44214e-09
7.04172e-09
7.69202e-09
8.39665e-09
9.15944e-09
9.98437e-09
1.08756e-08
1.18375e-08
1.28744e-08
1.39911e-08
1.51923e-08
1.6483e-08
1.78681e-08
1.93527e-08
2.0942e-08
2.26413e-08
2.44558e-08
2.63907e-08
2.84511e-08
3.06421e-08
3.29686e-08
3.54351e-08
3.80461e-08
4.08055e-08
4.37168e-08
4.67831e-08
5.00069e-08
5.33901e-08
5.69336e-08
6.06381e-08
6.45032e-08
6.85279e-08
7.27106e-08
7.70487e-08
8.15392e-08
8.61783e-08
9.09611e-08
9.58811e-08
1.0093e-07
1.06094e-07
1.11356e-07
1.1669e-07
3.05797e-09
3.32458e-09
3.61261e-09
3.92359e-09
4.25913e-09
4.62093e-09
5.01075e-09
5.43046e-09
5.88198e-09
6.36732e-09
6.88856e-09
7.44784e-09
8.04738e-09
8.68946e-09
9.37641e-09
1.01106e-08
1.08945e-08
1.17305e-08
1.26212e-08
1.3569e-08
1.45764e-08
1.5646e-08
1.67802e-08
1.79815e-08
1.92522e-08
2.05946e-08
2.20109e-08
2.35033e-08
2.50737e-08
2.67238e-08
2.84552e-08
3.02694e-08
3.21675e-08
3.41503e-08
3.62184e-08
3.83722e-08
4.06114e-08
4.29356e-08
4.53439e-08
4.78351e-08
5.04074e-08
5.30585e-08
5.57856e-08
5.85853e-08
6.14535e-08
6.43852e-08
6.73748e-08
7.0416e-08
7.35021e-08
7.6626e-08
2.71732e-09
2.92611e-09
3.14944e-09
3.38812e-09
3.64303e-09
3.91507e-09
4.20519e-09
4.51432e-09
4.84345e-09
5.19358e-09
5.56572e-09
5.96089e-09
6.38014e-09
6.82451e-09
7.29503e-09
7.79276e-09
8.31873e-09
8.87395e-09
9.45945e-09
1.00762e-08
1.07251e-08
1.14071e-08
1.2123e-08
1.28737e-08
1.36598e-08
1.4482e-08
1.53409e-08
1.62368e-08
1.71702e-08
1.81412e-08
1.915e-08
2.01964e-08
2.12804e-08
2.24015e-08
2.35593e-08
2.47532e-08
2.59822e-08
2.72454e-08
2.85417e-08
2.98698e-08
3.1228e-08
3.26147e-08
3.4028e-08
3.54658e-08
3.69255e-08
3.84046e-08
3.99003e-08
4.141e-08
4.2931e-08
4.4461e-08
2.2055e-09
2.35256e-09
2.50798e-09
2.67205e-09
2.8451e-09
3.02744e-09
3.21941e-09
3.42134e-09
3.63357e-09
3.85642e-09
4.09019e-09
4.33521e-09
4.59175e-09
4.8601e-09
5.14052e-09
5.43324e-09
5.73849e-09
6.05645e-09
6.38728e-09
6.7311e-09
7.08801e-09
7.45803e-09
7.84118e-09
8.23739e-09
8.64654e-09
9.06848e-09
9.50295e-09
9.94968e-09
1.04083e-08
1.08784e-08
1.13595e-08
1.18511e-08
1.23526e-08
1.28634e-08
1.33828e-08
1.39101e-08
1.44445e-08
1.49853e-08
1.55315e-08
1.60821e-08
1.66362e-08
1.71924e-08
1.77495e-08
1.83062e-08
1.88609e-08
1.94121e-08
1.99582e-08
2.0498e-08
2.10299e-08
2.15527e-08
1.56857e-09
1.66112e-09
1.7576e-09
1.85795e-09
1.96215e-09
2.07019e-09
2.18211e-09
2.29791e-09
2.41763e-09
2.54126e-09
2.6688e-09
2.80026e-09
2.9356e-09
3.07479e-09
3.21778e-09
3.36449e-09
3.51484e-09
3.66873e-09
3.82604e-09
3.98661e-09
4.15029e-09
4.31689e-09
4.48619e-09
4.65794e-09
4.8319e-09
5.00777e-09
5.18526e-09
5.36403e-09
5.54377e-09
5.72412e-09
5.90474e-09
6.08528e-09
6.26542e-09
6.44479e-09
6.62309e-09
6.79997e-09
6.97513e-09
7.14822e-09
7.31892e-09
7.48689e-09
7.65178e-09
7.81321e-09
7.97083e-09
8.12427e-09
8.27318e-09
8.41728e-09
8.55631e-09
8.69011e-09
8.81854e-09
8.94149e-09
1.08334e-09
1.1348e-09
1.18807e-09
1.24273e-09
1.29851e-09
1.35523e-09
1.41278e-09
1.47107e-09
1.53003e-09
1.58962e-09
1.64977e-09
1.71041e-09
1.77149e-09
1.83293e-09
1.89465e-09
1.95658e-09
2.01862e-09
2.0807e-09
2.14272e-09
2.20457e-09
2.26616e-09
2.32739e-09
2.38814e-09
2.4483e-09
2.50778e-09
2.56645e-09
2.62422e-09
2.68098e-09
2.73665e-09
2.79112e-09
2.84434e-09
2.89621e-09
2.94667e-09
2.99566e-09
3.0431e-09
3.08894e-09
3.13309e-09
3.17547e-09
3.21599e-09
3.25454e-09
3.291e-09
3.32526e-09
3.35719e-09
3.38666e-09
3.41358e-09
3.43787e-09
3.45948e-09
3.47838e-09
3.49455e-09
3.508e-09
7.64247e-10
7.82526e-10
8.03439e-10
8.25868e-10
8.49059e-10
8.7254e-10
8.96038e-10
9.19398e-10
9.42532e-10
9.65387e-10
9.87924e-10
1.01012e-09
1.03194e-09
1.05336e-09
1.07436e-09
1.09492e-09
1.115e-09
1.13459e-09
1.15365e-09
1.17216e-09
1.19008e-09
1.2074e-09
1.22408e-09
1.2401e-09
1.25543e-09
1.27003e-09
1.28389e-09
1.29698e-09
1.30927e-09
1.32074e-09
1.33138e-09
1.34116e-09
1.35007e-09
1.35811e-09
1.36525e-09
1.37149e-09
1.37683e-09
1.38125e-09
1.38474e-09
1.38729e-09
1.38887e-09
1.38947e-09
1.38907e-09
1.38766e-09
1.38522e-09
1.38175e-09
1.37727e-09
1.37177e-09
1.36529e-09
1.35782e-09
5.55359e-10
5.39971e-10
5.33854e-10
5.33613e-10
5.36809e-10
5.41857e-10
5.47799e-10
5.5408e-10
5.60383e-10
5.66535e-10
5.7244e-10
5.78053e-10
5.83351e-10
5.88324e-10
5.92965e-10
5.97269e-10
6.01229e-10
6.0484e-10
6.08096e-10
6.10992e-10
6.13524e-10
6.15688e-10
6.17483e-10
6.18905e-10
6.19956e-10
6.20636e-10
6.20947e-10
6.20891e-10
6.20471e-10
6.19688e-10
6.18544e-10
6.17042e-10
6.15183e-10
6.1297e-10
6.10403e-10
6.07484e-10
6.04214e-10
6.00594e-10
5.96622e-10
5.92297e-10
5.87614e-10
5.82571e-10
5.77164e-10
5.71393e-10
5.65259e-10
5.58767e-10
5.51927e-10
5.44752e-10
5.37258e-10
5.29462e-10
5.83809e-10
4.77419e-10
4.10409e-10
3.70294e-10
3.47344e-10
3.34865e-10
3.28559e-10
3.25732e-10
3.24757e-10
3.24693e-10
3.24969e-10
3.25252e-10
3.25402e-10
3.25373e-10
3.25156e-10
3.24754e-10
3.2417e-10
3.23405e-10
3.22462e-10
3.21343e-10
3.2005e-10
3.18585e-10
3.16949e-10
3.15144e-10
3.13171e-10
3.11034e-10
3.08736e-10
3.06279e-10
3.03668e-10
3.00906e-10
2.97996e-10
2.94942e-10
2.91745e-10
2.88409e-10
2.84937e-10
2.81332e-10
2.77598e-10
2.7374e-10
2.69763e-10
2.65674e-10
2.6148e-10
2.57189e-10
2.52808e-10
2.48349e-10
2.43819e-10
2.39231e-10
2.34595e-10
2.29923e-10
2.25225e-10
2.2051e-10
1.5877e-09
1.08841e-09
7.48767e-10
5.28529e-10
3.9002e-10
3.05047e-10
2.5386e-10
2.22887e-10
2.04149e-10
1.94021e-10
1.89325e-10
1.86857e-10
1.85102e-10
1.83431e-10
1.81705e-10
1.79912e-10
1.78054e-10
1.76135e-10
1.74157e-10
1.72125e-10
1.70041e-10
1.67908e-10
1.65728e-10
1.63505e-10
1.61241e-10
1.58939e-10
1.56601e-10
1.54231e-10
1.51831e-10
1.49405e-10
1.46956e-10
1.44487e-10
1.42003e-10
1.39508e-10
1.37004e-10
1.34495e-10
1.31984e-10
1.29473e-10
1.26963e-10
1.24456e-10
1.2195e-10
1.19445e-10
1.1694e-10
1.14433e-10
1.11924e-10
1.09412e-10
1.06895e-10
1.04372e-10
1.01843e-10
9.93069e-11
7.86321e-09
5.47716e-09
3.68391e-09
2.44823e-09
1.63562e-09
1.11543e-09
7.7756e-10
5.29097e-10
3.26263e-10
1.95628e-10
1.41785e-10
1.22646e-10
1.17491e-10
1.15272e-10
1.13356e-10
1.11422e-10
1.0946e-10
1.07476e-10
1.05475e-10
1.03462e-10
1.01443e-10
9.94247e-11
9.74116e-11
9.54091e-11
9.34224e-11
9.1456e-11
8.95134e-11
8.75969e-11
8.57076e-11
8.3845e-11
8.20078e-11
8.01941e-11
7.84021e-11
7.663e-11
7.48761e-11
7.31386e-11
7.14153e-11
6.97042e-11
6.80034e-11
6.63122e-11
6.46296e-11
6.29545e-11
6.12854e-11
5.96242e-11
5.79929e-11
5.63915e-11
5.48194e-11
5.32761e-11
5.17613e-11
5.02743e-11
4.12191e-08
3.19032e-08
2.284e-08
1.6214e-08
1.20904e-08
9.76102e-09
8.33777e-09
6.61945e-09
3.89842e-09
1.51739e-09
5.26861e-10
1.54676e-10
7.89798e-11
6.95341e-11
6.79851e-11
6.68004e-11
6.56254e-11
6.44541e-11
6.32863e-11
6.21216e-11
6.09591e-11
5.97972e-11
5.86345e-11
5.74697e-11
5.63019e-11
5.5131e-11
5.39569e-11
5.27794e-11
5.15989e-11
5.04165e-11
4.92343e-11
4.80539e-11
4.68759e-11
4.56987e-11
4.45204e-11
4.33497e-11
4.21956e-11
4.10582e-11
3.99373e-11
3.88327e-11
3.7745e-11
3.66759e-11
3.56281e-11
3.46011e-11
3.35743e-11
3.2549e-11
3.15262e-11
3.05074e-11
2.94939e-11
2.84871e-11
2.87135e-07
2.72101e-07
2.0276e-07
1.39548e-07
1.03588e-07
9.22849e-08
1.02525e-07
1.1389e-07
8.30914e-08
3.20185e-08
1.13723e-08
2.23698e-09
2.89417e-10
6.2464e-11
5.08954e-11
4.94417e-11
4.82282e-11
4.70651e-11
4.5934e-11
4.48279e-11
4.37414e-11
4.26712e-11
4.1615e-11
4.05706e-11
3.95327e-11
3.8501e-11
3.74783e-11
3.64656e-11
3.54637e-11
3.44737e-11
3.34964e-11
3.25322e-11
3.15828e-11
3.06518e-11
2.97433e-11
2.88483e-11
2.79581e-11
2.70738e-11
2.61965e-11
2.53267e-11
2.44653e-11
2.36129e-11
2.27701e-11
2.19376e-11
2.11158e-11
2.03053e-11
1.95066e-11
1.872e-11
1.7946e-11
1.71853e-11
1.03817e-06
1.99458e-06
1.93405e-06
1.3251e-06
9.22657e-07
8.28153e-07
1.40939e-06
3.07048e-06
3.60228e-06
1.15577e-06
5.00805e-07
9.95467e-08
1.11082e-08
5.51461e-10
6.41865e-11
5.16359e-11
4.84002e-11
4.60429e-11
4.39723e-11
4.2106e-11
4.03878e-11
3.87784e-11
3.72548e-11
3.58047e-11
3.44237e-11
3.31056e-11
3.18409e-11
3.06228e-11
2.94467e-11
2.83093e-11
2.72078e-11
2.61402e-11
2.51045e-11
2.40994e-11
2.31237e-11
2.2176e-11
2.12555e-11
2.03611e-11
1.94922e-11
1.86479e-11
1.78276e-11
1.70308e-11
1.62571e-11
1.55059e-11
1.47772e-11
1.40707e-11
1.33861e-11
1.27231e-11
1.20817e-11
1.14617e-11
5.61595e-05
1.21578e-05
1.88022e-06
1.72521e-06
4.51351e-06
9.41192e-06
9.4216e-06
5.1099e-06
1.81167e-06
1.20829e-06
8.36326e-07
9.46687e-07
1.26645e-06
2.24711e-06
2.31187e-07
2.09288e-07
2.76068e-08
6.12624e-10
4.48365e-11
4.20295e-11
3.97154e-11
3.75723e-11
3.55854e-11
3.37381e-11
3.20144e-11
3.03998e-11
2.88814e-11
2.7448e-11
2.60907e-11
2.48019e-11
2.35757e-11
2.24071e-11
2.12919e-11
2.02268e-11
1.92088e-11
1.82356e-11
1.7305e-11
1.6415e-11
1.55639e-11
1.47501e-11
1.3972e-11
1.32281e-11
1.25173e-11
1.18383e-11
1.11901e-11
1.05716e-11
9.982e-12
9.4202e-12
8.88525e-12
8.37625e-12
2.02629e-06
2.16147e-06
1.60958e-06
1.03237e-06
1.04965e-06
1.10557e-06
1.34791e-06
7.71107e-07
8.21496e-07
8.39702e-07
7.17177e-07
7.32315e-07
2.4468e-06
3.45555e-06
1.58799e-06
7.64702e-07
6.77229e-07
6.44418e-07
7.19403e-07
2.95176e-06
4.26325e-06
4.10513e-06
1.19173e-06
7.95874e-07
7.6339e-07
9.94831e-07
2.52327e-06
2.58509e-06
1.28828e-06
7.45465e-07
7.44767e-07
7.45347e-07
1.45167e-06
3.28807e-06
1.80608e-06
8.18509e-07
1.4653e-06
5.20455e-06
5.82154e-06
4.95681e-06
8.68774e-07
6.54332e-07
6.58063e-07
6.65622e-07
1.72161e-06
5.28754e-06
7.16157e-06
1.4774e-06
6.45918e-07
6.45725e-07
6.45773e-07
6.55439e-07
2.25174e-06
5.70233e-06
4.54797e-06
6.48706e-07
6.44384e-07
6.53761e-07
6.45333e-07
6.53329e-07
1.70131e-06
3.39106e-06
3.41861e-06
2.20497e-06
5.98438e-07
5.93631e-07
5.89669e-07
5.73438e-07
7.37628e-07
1.90747e-06
1.76132e-06
5.71359e-07
5.8724e-07
5.88088e-07
5.8235e-07
5.74531e-07
5.69167e-07
5.61196e-07
5.64473e-07
5.80494e-07
5.85997e-07
5.80942e-07
7.31484e-07
1.5836e-06
2.68469e-06
2.68279e-06
2.67755e-06
1.02396e-06
5.97391e-07
5.55956e-07
5.34392e-07
5.22207e-07
5.13983e-07
5.07202e-07
5.00156e-07
4.86331e-07
4.47501e-07
6.33174e-07
4.36361e-07
5.05515e-07
2.05695e-06
3.25597e-06
1.5164e-06
5.21487e-07
6.67633e-07
7.21491e-07
7.47969e-07
7.64443e-07
7.76904e-07
7.87327e-07
7.96727e-07
8.0613e-07
8.17331e-07
8.3067e-07
8.46802e-07
8.65187e-07
8.71299e-07
9.09831e-07
9.28438e-07
9.4171e-07
1.45396e-06
8.67476e-07
9.89341e-07
1.11374e-06
1.02597e-06
1.06924e-06
1.12554e-06
1.07152e-06
1.09467e-06
1.0981e-06
1.09364e-06
1.09339e-06
1.10627e-06
1.1762e-06
1.08872e-06
1.11942e-06
1.14004e-06
1.1906e-06
1.23864e-06
1.29688e-06
1.1445e-06
1.15295e-06
1.26338e-06
1.2496e-06
2.4997e-06
1.14601e-06
1.32942e-06
1.28148e-06
2.31035e-06
1.06899e-06
1.22518e-06
1.73853e-06
1.42335e-06
1.24372e-06
1.20257e-06
1.17303e-06
1.58018e-06
1.38443e-06
1.51333e-06
1.11041e-06
1.03711e-06
9.22434e-07
1.14712e-06
1.09823e-06
1.05133e-06
1.13148e-06
1.05283e-06
9.99959e-07
7.15868e-07
1.7758e-06
9.34725e-07
8.2263e-07
8.18251e-07
6.18283e-07
1.61711e-06
8.06308e-07
7.75519e-07
7.49842e-07
7.27738e-07
7.101e-07
6.60909e-07
6.51911e-07
6.51334e-07
6.53521e-07
6.57176e-07
6.61325e-07
6.58989e-07
6.63663e-07
6.70279e-07
6.79859e-07
6.93596e-07
7.11993e-07
7.34793e-07
7.61741e-07
7.92535e-07
8.22495e-07
8.31854e-07
6.54234e-07
1.45015e-06
9.3709e-07
9.46818e-07
9.09278e-07
8.49313e-07
7.91762e-07
7.3357e-07
6.8504e-07
6.45556e-07
6.1587e-07
5.9299e-07
5.75451e-07
5.66767e-07
5.64818e-07
5.63179e-07
5.56907e-07
5.48786e-07
5.4149e-07
5.36035e-07
5.32957e-07
5.32206e-07
5.33305e-07
5.36118e-07
5.40845e-07
5.47568e-07
5.56708e-07
5.68365e-07
5.80819e-07
5.9331e-07
6.07502e-07
5.50988e-07
7.88128e-07
5.85457e-07
4.13157e-07
1.17412e-06
6.09222e-07
4.26614e-07
9.32109e-07
6.71067e-07
5.85545e-07
5.70351e-07
4.72684e-07
1.55573e-06
1.39072e-06
5.22216e-07
5.1615e-07
5.68456e-07
5.71855e-07
1.51284e-06
3.20579e-06
3.20507e-06
1.72223e-06
3.46347e-07
3.17741e-07
3.13236e-07
3.06997e-07
2.98989e-07
2.66391e-07
5.55505e-07
1.12424e-06
5.14008e-07
4.13028e-07
3.36276e-07
2.7637e-07
2.31107e-07
1.93176e-07
1.55964e-07
1.33578e-07
1.14216e-07
9.61582e-08
8.03406e-08
6.68188e-08
5.54201e-08
4.58523e-08
3.77981e-08
3.09792e-08
2.51828e-08
2.02578e-08
1.60972e-08
1.26197e-08
9.75426e-09
7.43194e-09
5.58271e-09
4.13621e-09
3.02427e-09
2.1836e-09
1.55786e-09
1.09885e-09
7.66675e-10
5.29313e-10
3.61707e-10
2.44685e-10
1.63861e-10
1.08628e-10
7.12746e-11
4.62778e-11
2.97266e-11
1.88858e-11
1.18637e-11
7.36668e-12
4.52022e-12
2.73988e-12
5.62785e-07
6.51513e-07
7.96761e-07
9.7753e-07
1.14597e-06
1.2451e-06
1.35569e-06
9.70271e-07
8.72874e-07
7.88356e-07
7.32503e-07
6.99562e-07
6.66139e-07
6.46032e-07
6.5266e-07
6.64868e-07
6.7178e-07
6.03114e-07
6.08292e-07
5.95263e-07
6.14835e-07
6.8035e-07
8.2685e-07
1.1042e-06
1.57059e-06
2.29858e-06
2.17351e-06
1.13042e-06
8.53346e-07
8.18387e-07
9.00509e-07
1.26211e-06
2.72295e-06
3.13801e-06
1.73791e-06
8.12986e-07
6.70324e-07
6.21907e-07
6.17567e-07
6.17144e-07
6.24089e-07
6.36401e-07
6.75688e-07
6.7065e-07
1.64506e-06
5.50351e-06
7.19455e-06
4.08682e-06
8.9785e-07
7.86849e-07
7.33175e-07
6.63124e-07
1.83169e-06
5.85131e-06
6.5433e-06
5.67076e-06
1.10889e-06
8.49115e-07
8.33825e-07
8.42146e-07
8.5063e-07
8.53294e-07
1.1818e-06
3.21676e-06
3.24425e-06
5.96878e-07
6.02041e-07
1.42171e-06
3.05107e-06
3.05045e-06
1.77619e-06
8.25896e-07
8.20822e-07
8.29777e-07
1.54819e-06
5.78238e-07
7.53166e-07
7.33389e-07
7.20956e-07
9.22522e-07
5.87385e-07
6.5047e-07
6.70704e-07
1.54315e-06
2.15148e-06
8.38789e-07
2.23721e-06
2.25333e-06
1.56637e-06
7.3792e-07
6.88067e-07
6.56438e-07
6.33826e-07
6.18343e-07
6.07383e-07
5.8266e-07
5.82969e-07
6.34292e-07
7.5913e-07
6.04904e-07
2.26716e-06
3.27666e-06
1.98201e-06
8.24881e-07
8.56501e-07
8.68613e-07
8.78445e-07
8.89237e-07
8.99032e-07
9.06531e-07
9.12171e-07
9.16556e-07
9.20128e-07
9.23122e-07
9.25647e-07
9.27879e-07
1.69147e-06
8.09043e-07
9.41863e-07
9.79908e-07
9.41046e-07
9.51555e-07
9.65298e-07
9.73123e-07
9.77276e-07
9.85246e-07
9.91037e-07
9.94744e-07
1.00004e-06
1.00261e-06
1.00244e-06
1.00142e-06
1.00143e-06
1.00554e-06
1.00294e-06
1.00826e-06
1.01353e-06
1.81049e-06
1.1084e-06
1.13926e-06
1.17418e-06
2.41702e-06
1.01051e-06
1.26629e-06
1.36067e-06
1.14477e-06
1.21984e-06
1.2371e-06
1.43553e-06
1.06682e-06
1.19953e-06
1.4645e-06
1.34975e-06
1.25659e-06
1.20857e-06
1.17002e-06
1.29352e-06
1.28901e-06
9.75727e-07
2.51304e-06
1.20992e-06
1.11944e-06
1.06787e-06
1.05324e-06
1.03641e-06
1.01966e-06
1.01356e-06
9.15696e-07
1.95282e-06
1.03712e-06
9.35672e-07
2.04688e-06
1.00975e-06
9.56389e-07
9.69526e-07
1.67979e-06
1.12313e-06
9.13602e-07
8.81675e-07
7.3126e-07
1.59351e-06
9.55806e-07
8.56453e-07
8.43288e-07
8.36189e-07
6.66531e-07
1.09824e-06
8.50259e-07
8.43149e-07
8.4639e-07
8.58226e-07
8.76379e-07
8.95483e-07
9.10599e-07
9.81105e-07
1.33257e-06
8.96993e-07
7.15532e-07
1.45059e-06
8.0605e-07
7.67167e-07
9.36401e-07
8.54715e-07
8.2828e-07
8.79345e-07
8.79227e-07
6.94336e-07
6.03762e-07
5.76861e-07
6.1019e-07
5.86136e-07
7.5086e-07
8.70782e-07
7.95544e-07
7.05111e-07
6.60682e-07
6.28059e-07
6.05635e-07
5.93136e-07
5.85538e-07
5.84786e-07
5.94878e-07
6.12663e-07
6.40785e-07
6.9331e-07
7.29261e-07
7.39512e-07
7.68348e-07
7.9767e-07
7.87628e-07
7.46394e-07
4.11758e-07
1.17733e-06
6.61144e-07
6.26318e-07
5.8755e-07
5.68421e-07
5.46178e-07
5.17175e-07
4.81605e-07
4.38722e-07
4.29507e-07
4.91407e-07
6.49019e-07
1.43143e-06
1.43187e-06
8.68314e-07
5.97781e-07
4.15016e-07
3.11991e-07
2.55909e-07
2.13482e-07
1.79447e-07
1.50319e-07