/*--------------------------------*- C++ -*----------------------------------*\
| =========                 |                                                 |
| \\      /  F ield         | OpenFOAM: The Open Source CFD Toolbox           |
|  \\    /   O peration     | Version:  2.4.0                                 |
|   \\  /    A nd           | Web:      www.OpenFOAM.org                      |
|    \\/     M anipulation  |                                                 |
\*---------------------------------------------------------------------------*/
FoamFile
{
    version     2.0;
    format      ascii;
    class       volScalarField;
    location    "3.5";
    object      p;
}
// * * * * * * * * * * * * * * * * * * * * * * * * * * * * * * * * * * * * * //

dimensions      [1 -1 -2 0 0 0 0];

internalField   nonuniform List<scalar> 
8000
(
-0.968521
-0.949353
-0.927662
-0.907884
-0.889611
-0.872291
-0.85598
-0.841197
-0.827791
-0.816232
-0.807641
-0.802311
-0.798885
-0.789818
-0.762098
-0.757533
-0.896805
-1.31341
-1.9954
-0.989121
-0.905991
-0.905776
-0.906061
-0.90631
-0.906517
-0.9067
-0.906867
-0.907019
-0.907158
-0.907284
-0.907398
-0.907502
-0.907596
-0.907681
-0.907759
-0.90783
-0.907894
-0.907952
-0.908005
-0.908053
-0.908097
-0.908136
-0.908172
-0.908205
-0.908234
-0.908261
-0.908286
-0.908308
-0.908327
-0.908346
-0.706577
-0.689185
-0.670046
-0.65238
-0.635795
-0.619414
-0.603529
-0.587844
-0.572476
-0.556846
-0.541272
-0.525665
-0.510526
-0.495814
-0.466921
-0.406304
-0.358874
-0.590252
-1.52289
-2.15535
-0.994322
-0.929216
-0.930402
-0.930602
-0.930646
-0.930665
-0.930687
-0.930711
-0.930736
-0.930759
-0.930781
-0.930802
-0.930822
-0.930841
-0.930859
-0.930875
-0.930891
-0.930905
-0.930918
-0.930931
-0.930942
-0.930953
-0.930962
-0.930971
-0.930979
-0.930987
-0.930994
-0.931
-0.931006
-0.931012
-0.164742
-0.153964
-0.141507
-0.129925
-0.118658
-0.107324
-0.0958844
-0.0847399
-0.0735432
-0.0624495
-0.0513326
-0.0403443
-0.0291916
-0.0192446
-0.00974079
0.00121962
0.0313657
0.0985798
0.072802
-0.510217
-1.93183
-0.967915
-0.951551
-0.954433
-0.954502
-0.954437
-0.95437
-0.954312
-0.954262
-0.954217
-0.954176
-0.954138
-0.954103
-0.954071
-0.954041
-0.954014
-0.953988
-0.953965
-0.953942
-0.953922
-0.953902
-0.953884
-0.953867
-0.953852
-0.953837
-0.953824
-0.953811
-0.953799
-0.953789
-0.953779
0.357002
0.364255
0.373345
0.38151
0.389779
0.398272
0.407015
0.415785
0.424772
0.434006
0.443409
0.453198
0.463101
0.473455
0.483106
0.492127
0.505515
0.537927
0.59128
0.507274
-0.0969216
-1.18585
-1.01479
-0.977603
-0.977303
-0.977247
-0.977179
-0.977102
-0.977029
-0.976962
-0.9769
-0.976844
-0.976791
-0.976742
-0.976697
-0.976655
-0.976616
-0.976581
-0.976548
-0.976517
-0.976489
-0.976463
-0.976439
-0.976418
-0.976398
-0.97638
-0.976363
-0.976349
-0.976335
-0.976323
0.733149
0.739756
0.747525
0.753609
0.759381
0.764752
0.769875
0.774327
0.778382
0.781877
0.784792
0.787034
0.788429
0.788949
0.788429
0.786522
0.783431
0.780559
0.780415
0.776913
0.733861
0.602978
-1.12184
-1.00087
-0.999126
-0.999084
-0.999102
-0.999096
-0.999083
-0.999069
-0.999055
-0.99904
-0.999025
-0.99901
-0.998995
-0.998981
-0.998967
-0.998953
-0.99894
-0.998927
-0.998916
-0.998905
-0.998895
-0.998886
-0.998877
-0.99887
-0.998863
-0.998857
-0.998852
-0.998847
1.43901
1.43962
1.44163
1.44339
1.44583
1.44877
1.45234
1.45611
1.46043
1.46526
1.47059
1.47659
1.48258
1.48908
1.49555
1.50362
1.51916
1.54862
1.56174
1.42228
0.810926
-0.262134
-1.06705
-1.02107
-1.02042
-1.02051
-1.02055
-1.02057
-1.02058
-1.02059
-1.02061
-1.02063
-1.02064
-1.02066
-1.02068
-1.0207
-1.02072
-1.02074
-1.02076
-1.02077
-1.02079
-1.02081
-1.02083
-1.02085
-1.02087
-1.02089
-1.02091
-1.02092
-1.02094
-1.02096
1.89721
1.89065
1.88533
1.88188
1.88097
1.88237
1.88578
1.89129
1.89872
1.9083
1.91964
1.93287
1.94727
1.96343
1.98554
2.02687
2.08662
2.07121
1.52282
-0.117888
-1.24741
-1.49153
-1.05874
-1.04408
-1.04276
-1.04306
-1.04319
-1.0432
-1.04319
-1.04319
-1.04319
-1.0432
-1.04321
-1.04322
-1.04324
-1.04325
-1.04327
-1.04328
-1.0433
-1.04332
-1.04334
-1.04335
-1.04337
-1.04339
-1.04341
-1.04343
-1.04344
-1.04346
-1.04348
-1.04349
2.0784
2.08133
2.08593
2.0902
2.09462
2.09887
2.10312
2.10685
2.11037
2.11288
2.11432
2.11512
2.12055
2.14178
2.17912
2.13073
1.46333
-0.514993
-3.4414
-3.2599
-1.41688
-1.04862
-1.06338
-1.06562
-1.06552
-1.06558
-1.06557
-1.06554
-1.06551
-1.0655
-1.06549
-1.06548
-1.06548
-1.06549
-1.0655
-1.06551
-1.06552
-1.06554
-1.06556
-1.06558
-1.06559
-1.06561
-1.06563
-1.06565
-1.06567
-1.06569
-1.06571
-1.06573
-1.06575
-1.06577
1.62651
1.64064
1.65666
1.67527
1.69698
1.72276
1.75124
1.78366
1.8197
1.86346
1.91776
1.98896
2.04447
1.96913
0.819838
-2.35334
-6.37132
-4.29058
-0.99431
-0.880341
-1.09034
-1.08593
-1.08701
-1.08744
-1.0875
-1.08751
-1.08754
-1.08759
-1.08763
-1.08767
-1.0877
-1.08774
-1.08777
-1.0878
-1.08783
-1.08786
-1.08789
-1.08792
-1.08795
-1.08798
-1.088
-1.08803
-1.08805
-1.08807
-1.0881
-1.08812
-1.08814
-1.08816
-1.08818
-1.0882
2.64443
2.65549
2.6811
2.71913
2.77134
2.83415
2.91226
3.00822
3.15043
3.34613
3.48761
2.87206
0.0883967
-2.06926
-8.68967
-4.79022
-1.82627
-1.0808
-1.1116
-1.10252
-1.11132
-1.11137
-1.11123
-1.11122
-1.11128
-1.11133
-1.11137
-1.11138
-1.11139
-1.11138
-1.11136
-1.11133
-1.11129
-1.11125
-1.11121
-1.11117
-1.11113
-1.11109
-1.11105
-1.11101
-1.11098
-1.11094
-1.11091
-1.11089
-1.11086
-1.11084
-1.11082
-1.1108
-1.11078
-1.11077
-1.01756
-0.946754
-0.863567
-0.773916
-0.669957
-0.536416
-0.383469
-0.360791
-1.25432
-4.13504
-5.67477
-10.4679
-8.82806
-4.26567
-1.2407
-1.14228
-1.12663
-1.12773
-1.13298
-1.13333
-1.13333
-1.1333
-1.13331
-1.13335
-1.13338
-1.1334
-1.13341
-1.13341
-1.13341
-1.1334
-1.13339
-1.13338
-1.13337
-1.13335
-1.13333
-1.13331
-1.13329
-1.13327
-1.13325
-1.13324
-1.13322
-1.13321
-1.13319
-1.13318
-1.13317
-1.13316
-1.13315
-1.13314
-1.13313
-1.13313
-4.70699
-4.69214
-4.67141
-4.6052
-4.49765
-4.68108
-6.23458
-9.783
-19.0399
-13.4832
-5.59943
-1.68967
-1.12783
-1.14554
-1.15621
-1.156
-1.15587
-1.15561
-1.15544
-1.15531
-1.15516
-1.15505
-1.15496
-1.15488
-1.15483
-1.15479
-1.15477
-1.15476
-1.15476
-1.15476
-1.15477
-1.15478
-1.15479
-1.15481
-1.15482
-1.15484
-1.15486
-1.15487
-1.15489
-1.15491
-1.15492
-1.15494
-1.15495
-1.15496
-1.15497
-1.15499
-1.155
-1.155
-1.15501
-1.15502
-8.33104
-8.39781
-8.45648
-8.7315
-10.0799
-13.0484
-11.7716
-1.75142
-1.54848
-1.226
-1.19329
-1.17973
-1.17894
-1.17902
-1.17901
-1.17889
-1.17879
-1.17871
-1.17864
-1.17857
-1.17851
-1.17846
-1.17842
-1.17839
-1.17837
-1.17835
-1.17834
-1.17834
-1.17833
-1.17833
-1.17834
-1.17834
-1.17834
-1.17835
-1.17835
-1.17835
-1.17834
-1.17834
-1.17834
-1.17833
-1.17832
-1.17831
-1.17829
-1.17828
-1.17826
-1.17825
-1.17823
-1.17821
-1.17819
-1.17816
-4.56092
-4.51857
-5.17224
-8.32244
-12.6318
-2.53518
-1.36472
-1.23059
-1.19555
-1.20028
-1.20164
-1.20199
-1.20227
-1.20249
-1.20268
-1.20283
-1.20292
-1.20296
-1.20297
-1.20295
-1.20289
-1.20281
-1.20271
-1.2026
-1.20247
-1.20234
-1.20221
-1.20209
-1.20196
-1.20184
-1.20173
-1.20161
-1.20151
-1.20141
-1.20131
-1.20122
-1.20113
-1.20104
-1.20096
-1.20088
-1.20081
-1.20074
-1.20067
-1.2006
-1.20054
-1.20048
-1.20042
-1.20037
-1.20031
-1.20026
-2.21695
-2.38609
-3.07906
-4.28465
-2.48806
-1.17431
-1.19612
-1.2087
-1.22406
-1.22446
-1.22479
-1.22524
-1.22569
-1.22605
-1.22632
-1.22653
-1.22667
-1.22676
-1.2268
-1.22681
-1.2268
-1.22677
-1.22673
-1.22668
-1.22662
-1.22655
-1.22647
-1.22639
-1.2263
-1.2262
-1.2261
-1.226
-1.22589
-1.22577
-1.22566
-1.22554
-1.22542
-1.2253
-1.22518
-1.22506
-1.22493
-1.22481
-1.22469
-1.22457
-1.22445
-1.22433
-1.22421
-1.22409
-1.22397
-1.22386
-1.44852
-2.30994
-5.9858
-11.3546
-1.25049
-1.24737
-1.25031
-1.24616
-1.2522
-1.25238
-1.25228
-1.25196
-1.25154
-1.25111
-1.25068
-1.2503
-1.24988
-1.24955
-1.24896
-1.24882
-1.24852
-1.24824
-1.24799
-1.24776
-1.24753
-1.24732
-1.24712
-1.24693
-1.24674
-1.24656
-1.24639
-1.24623
-1.24609
-1.24597
-1.24585
-1.24574
-1.24563
-1.24554
-1.24545
-1.24536
-1.24528
-1.2452
-1.24512
-1.24504
-1.24497
-1.24489
-1.24482
-1.24475
-1.24467
-1.2446
-3.12182
-3.90835
-6.22542
-8.16586
-1.35746
-1.33526
-1.27611
-1.2753
-1.27607
-1.27539
-1.27471
-1.27451
-1.27443
-1.27431
-1.27419
-1.27413
-1.27412
-1.27417
-1.27428
-1.27444
-1.2746
-1.27474
-1.27483
-1.27487
-1.27485
-1.27478
-1.27466
-1.27449
-1.27428
-1.27405
-1.27381
-1.27356
-1.27331
-1.27306
-1.27281
-1.27256
-1.27231
-1.27205
-1.27179
-1.27154
-1.2713
-1.27106
-1.2708
-1.27054
-1.27028
-1.27001
-1.26975
-1.2695
-1.26925
-1.269
-12.2592
-12.9159
-16.4
-21.484
-7.15578
-7.26803
-1.82686
-1.7536
-1.5192
-1.50097
-1.47264
-1.3827
-1.30847
-1.29721
-1.30038
-1.30295
-1.30325
-1.29807
-1.29322
-1.29088
-1.28987
-1.28955
-1.28982
-1.29069
-1.29178
-1.29231
-1.29248
-1.2926
-1.29275
-1.29289
-1.29295
-1.29297
-1.29294
-1.29289
-1.29281
-1.29269
-1.29254
-1.29228
-1.29198
-1.292
-1.29145
-1.29106
-1.29146
-1.29115
-1.29082
-1.29034
-1.29036
-1.29013
-1.28993
-1.2897
-2.79757
-2.54332
-2.18313
-1.80175
-2.10558
-4.944
-22.1472
-19.3779
-11.2009
-9.62828
-6.41655
-6.43147
-3.02178
-1.74918
-1.36332
-1.36519
-1.34101
-1.37093
-1.40743
-1.42325
-1.43666
-1.44785
-1.42941
-1.38768
-1.36347
-1.36002
-1.35118
-1.33638
-1.32572
-1.31964
-1.31616
-1.31585
-1.31916
-1.32385
-1.32635
-1.32624
-1.32438
-1.32272
-1.32246
-1.32256
-1.32052
-1.32467
-1.31591
-1.31567
-1.3168
-1.30976
-1.31256
-1.31159
-1.31319
-1.31185
-3.29073
-3.1813
-3.03964
-2.9103
-2.83792
-2.78345
-2.89246
-3.14998
-3.602
-4.12081
-4.28596
-2.14685
1.06784
0.68671
-13.3451
-11.5361
-8.87095
-5.29425
-3.77744
-3.51212
-4.18156
-5.6406
-6.91264
-6.19135
-3.40735
-1.70309
-1.2028
-1.11778
-1.17293
-1.22198
-1.245
-1.27637
-1.30969
-1.3205
-1.30727
-1.31086
-1.30102
-1.31954
-1.29936
-1.29646
-1.3096
-1.33817
-1.33773
-1.33409
-1.33559
-1.3354
-1.33274
-1.32885
-1.3318
-1.32333
-0.908362
-0.908377
-0.90839
-0.908402
-0.908413
-0.908423
-0.908431
-0.908439
-0.908447
-0.908453
-0.908459
-0.908465
-0.908469
-0.908474
-0.908478
-0.908482
-0.908485
-0.908488
-0.908492
-0.908494
-0.908497
-0.9085
-0.908503
-0.908506
-0.908509
-0.908512
-0.908515
-0.908518
-0.908522
-0.908526
-0.90853
-0.908535
-0.90854
-0.908545
-0.908551
-0.908556
-0.908562
-0.908568
-0.908575
-0.908587
-0.908596
-0.908293
-0.908646
-0.908735
-0.908774
-0.908781
-0.908766
-0.908789
-0.908775
-0.908825
-0.931017
-0.931022
-0.931026
-0.931031
-0.931035
-0.931039
-0.931043
-0.931047
-0.931051
-0.931055
-0.931059
-0.931063
-0.931067
-0.931071
-0.931075
-0.931079
-0.931083
-0.931088
-0.931093
-0.931098
-0.931103
-0.931108
-0.931114
-0.93112
-0.931126
-0.931133
-0.93114
-0.931147
-0.931155
-0.931164
-0.931172
-0.931182
-0.931191
-0.931201
-0.931212
-0.931224
-0.931236
-0.931249
-0.931262
-0.931274
-0.931288
-0.931302
-0.931326
-0.931343
-0.931359
-0.931371
-0.931385
-0.931414
-0.931416
-0.931453
-0.95377
-0.953761
-0.953754
-0.953747
-0.953741
-0.953736
-0.953731
-0.953727
-0.953723
-0.95372
-0.953717
-0.953715
-0.953714
-0.953713
-0.953712
-0.953712
-0.953712
-0.953713
-0.953714
-0.953715
-0.953717
-0.953719
-0.953722
-0.953724
-0.953727
-0.953731
-0.953734
-0.953738
-0.953743
-0.953747
-0.953752
-0.953757
-0.953763
-0.953768
-0.953774
-0.953781
-0.953787
-0.953794
-0.953801
-0.953809
-0.953817
-0.953825
-0.953833
-0.953841
-0.953848
-0.953857
-0.953867
-0.953877
-0.953887
-0.953896
-0.976313
-0.976303
-0.976295
-0.976288
-0.976282
-0.976277
-0.976273
-0.976269
-0.976266
-0.976265
-0.976263
-0.976263
-0.976262
-0.976263
-0.976264
-0.976265
-0.976267
-0.976269
-0.976272
-0.976274
-0.976278
-0.976281
-0.976285
-0.976288
-0.976292
-0.976297
-0.976301
-0.976305
-0.97631
-0.976315
-0.976319
-0.976324
-0.976329
-0.976334
-0.976338
-0.976343
-0.976348
-0.976353
-0.976357
-0.976362
-0.976366
-0.97637
-0.976374
-0.976378
-0.976382
-0.976386
-0.976389
-0.976392
-0.976394
-0.976396
-0.998844
-0.998841
-0.998838
-0.998837
-0.998835
-0.998835
-0.998835
-0.998835
-0.998836
-0.998838
-0.998839
-0.998842
-0.998844
-0.998847
-0.99885
-0.998854
-0.998858
-0.998862
-0.998866
-0.99887
-0.998875
-0.99888
-0.998885
-0.99889
-0.998895
-0.9989
-0.998906
-0.998911
-0.998917
-0.998922
-0.998928
-0.998934
-0.998939
-0.998945
-0.99895
-0.998956
-0.998962
-0.998967
-0.998973
-0.998978
-0.998984
-0.99899
-0.998995
-0.999
-0.999006
-0.999011
-0.999017
-0.999022
-0.999028
-0.999033
-1.02098
-1.02099
-1.02101
-1.02103
-1.02104
-1.02106
-1.02107
-1.02109
-1.0211
-1.02112
-1.02113
-1.02114
-1.02116
-1.02117
-1.02118
-1.0212
-1.02121
-1.02122
-1.02123
-1.02124
-1.02126
-1.02127
-1.02128
-1.02129
-1.0213
-1.02131
-1.02132
-1.02133
-1.02134
-1.02135
-1.02135
-1.02136
-1.02137
-1.02138
-1.02139
-1.0214
-1.0214
-1.02141
-1.02142
-1.02142
-1.02143
-1.02143
-1.02144
-1.02145
-1.02145
-1.02146
-1.02146
-1.02147
-1.02147
-1.02147
-1.04351
-1.04353
-1.04354
-1.04356
-1.04357
-1.04359
-1.0436
-1.04362
-1.04363
-1.04365
-1.04366
-1.04367
-1.04369
-1.0437
-1.04371
-1.04372
-1.04374
-1.04375
-1.04376
-1.04377
-1.04378
-1.0438
-1.04381
-1.04382
-1.04383
-1.04384
-1.04385
-1.04386
-1.04387
-1.04388
-1.04389
-1.0439
-1.04391
-1.04391
-1.04392
-1.04393
-1.04394
-1.04395
-1.04396
-1.04396
-1.04397
-1.04398
-1.04399
-1.04399
-1.044
-1.04401
-1.04401
-1.04402
-1.04403
-1.04403
-1.06579
-1.06581
-1.06583
-1.06584
-1.06586
-1.06588
-1.06589
-1.06591
-1.06593
-1.06594
-1.06596
-1.06597
-1.06599
-1.066
-1.06601
-1.06603
-1.06604
-1.06606
-1.06607
-1.06608
-1.06609
-1.06611
-1.06612
-1.06613
-1.06614
-1.06615
-1.06617
-1.06618
-1.06619
-1.0662
-1.06621
-1.06622
-1.06623
-1.06624
-1.06625
-1.06626
-1.06627
-1.06628
-1.06629
-1.0663
-1.0663
-1.06631
-1.06632
-1.06633
-1.06634
-1.06634
-1.06635
-1.06636
-1.06637
-1.06637
-1.08822
-1.08824
-1.08825
-1.08827
-1.08829
-1.0883
-1.08832
-1.08833
-1.08835
-1.08836
-1.08838
-1.08839
-1.0884
-1.08842
-1.08843
-1.08844
-1.08845
-1.08847
-1.08848
-1.08849
-1.0885
-1.08851
-1.08852
-1.08853
-1.08854
-1.08855
-1.08856
-1.08857
-1.08858
-1.08859
-1.0886
-1.08861
-1.08862
-1.08863
-1.08864
-1.08865
-1.08866
-1.08867
-1.08867
-1.08868
-1.08869
-1.0887
-1.08871
-1.08871
-1.08872
-1.08873
-1.08873
-1.08874
-1.08875
-1.08876
-1.11076
-1.11075
-1.11074
-1.11073
-1.11072
-1.11072
-1.11071
-1.11071
-1.11071
-1.11071
-1.11071
-1.11071
-1.11071
-1.11071
-1.11071
-1.11071
-1.11072
-1.11072
-1.11072
-1.11073
-1.11073
-1.11074
-1.11074
-1.11075
-1.11075
-1.11076
-1.11077
-1.11077
-1.11078
-1.11078
-1.11079
-1.1108
-1.1108
-1.11081
-1.11082
-1.11082
-1.11083
-1.11084
-1.11084
-1.11085
-1.11086
-1.11086
-1.11087
-1.11088
-1.11089
-1.11089
-1.1109
-1.11091
-1.11091
-1.11092
-1.13312
-1.13312
-1.13311
-1.13311
-1.1331
-1.1331
-1.1331
-1.13309
-1.13309
-1.13309
-1.13309
-1.13309
-1.13309
-1.13308
-1.13308
-1.13308
-1.13308
-1.13308
-1.13308
-1.13308
-1.13308
-1.13308
-1.13308
-1.13308
-1.13308
-1.13308
-1.13309
-1.13309
-1.13309
-1.13309
-1.13309
-1.13309
-1.13309
-1.13309
-1.1331
-1.1331
-1.1331
-1.1331
-1.1331
-1.13311
-1.13311
-1.13311
-1.13311
-1.13312
-1.13312
-1.13312
-1.13313
-1.13313
-1.13313
-1.13314
-1.15503
-1.15503
-1.15504
-1.15504
-1.15505
-1.15505
-1.15506
-1.15506
-1.15506
-1.15506
-1.15507
-1.15507
-1.15507
-1.15507
-1.15507
-1.15507
-1.15507
-1.15507
-1.15507
-1.15507
-1.15507
-1.15507
-1.15507
-1.15507
-1.15507
-1.15507
-1.15507
-1.15507
-1.15507
-1.15507
-1.15507
-1.15507
-1.15507
-1.15507
-1.15507
-1.15507
-1.15507
-1.15507
-1.15507
-1.15508
-1.15508
-1.15508
-1.15508
-1.15508
-1.15509
-1.15509
-1.15509
-1.15509
-1.1551
-1.1551
-1.17814
-1.17812
-1.17809
-1.17807
-1.17804
-1.17801
-1.17799
-1.17796
-1.17793
-1.1779
-1.17788
-1.17785
-1.17782
-1.1778
-1.17777
-1.17774
-1.17772
-1.17769
-1.17767
-1.17764
-1.17762
-1.17759
-1.17757
-1.17755
-1.17752
-1.1775
-1.17748
-1.17746
-1.17744
-1.17742
-1.1774
-1.17739
-1.17737
-1.17735
-1.17734
-1.17732
-1.17731
-1.17729
-1.17728
-1.17727
-1.17726
-1.17725
-1.17724
-1.17723
-1.17722
-1.17721
-1.17721
-1.1772
-1.17719
-1.17719
-1.20021
-1.20016
-1.20011
-1.20006
-1.20002
-1.19997
-1.19993
-1.19989
-1.19984
-1.19981
-1.19977
-1.19973
-1.19969
-1.19966
-1.19962
-1.19959
-1.19956
-1.19952
-1.19949
-1.19946
-1.19943
-1.19941
-1.19938
-1.19935
-1.19933
-1.1993
-1.19928
-1.19926
-1.19923
-1.19921
-1.19919
-1.19917
-1.19916
-1.19914
-1.19912
-1.19911
-1.19909
-1.19908
-1.19906
-1.19905
-1.19904
-1.19903
-1.19902
-1.19901
-1.199
-1.199
-1.19899
-1.19898
-1.19898
-1.19898
-1.22375
-1.22364
-1.22353
-1.22342
-1.22331
-1.22321
-1.22311
-1.22301
-1.22291
-1.22282
-1.22273
-1.22264
-1.22255
-1.22247
-1.22238
-1.2223
-1.22222
-1.22215
-1.22207
-1.222
-1.22193
-1.22187
-1.2218
-1.22174
-1.22168
-1.22162
-1.22156
-1.22151
-1.22146
-1.22141
-1.22136
-1.22132
-1.22127
-1.22123
-1.22119
-1.22116
-1.22112
-1.22109
-1.22106
-1.22103
-1.221
-1.22098
-1.22095
-1.22093
-1.22091
-1.22089
-1.22087
-1.22086
-1.22085
-1.22083
-1.24453
-1.24446
-1.24439
-1.24433
-1.24426
-1.24419
-1.24412
-1.24406
-1.24399
-1.24393
-1.24386
-1.2438
-1.24374
-1.24367
-1.24361
-1.24355
-1.2435
-1.24344
-1.24338
-1.24333
-1.24328
-1.24323
-1.24318
-1.24313
-1.24308
-1.24304
-1.24299
-1.24295
-1.24291
-1.24287
-1.24284
-1.2428
-1.24277
-1.24274
-1.24271
-1.24268
-1.24265
-1.24263
-1.2426
-1.24258
-1.24256
-1.24254
-1.24252
-1.24251
-1.2425
-1.24248
-1.24247
-1.24247
-1.24246
-1.24245
-1.26876
-1.26852
-1.2683
-1.26808
-1.26787
-1.26766
-1.26746
-1.26727
-1.26709
-1.26692
-1.26675
-1.26658
-1.26643
-1.26627
-1.26613
-1.26599
-1.26585
-1.26572
-1.2656
-1.26548
-1.26537
-1.26526
-1.26515
-1.26506
-1.26496
-1.26487
-1.26479
-1.26471
-1.26463
-1.26456
-1.26449
-1.26443
-1.26437
-1.26431
-1.26426
-1.26421
-1.26417
-1.26413
-1.26409
-1.26405
-1.26402
-1.264
-1.26397
-1.26395
-1.26393
-1.26391
-1.2639
-1.26389
-1.26388
-1.26388
-1.28947
-1.28926
-1.28905
-1.28885
-1.28866
-1.28847
-1.2883
-1.28813
-1.28797
-1.28782
-1.28766
-1.28752
-1.28738
-1.28724
-1.28711
-1.28699
-1.28687
-1.28675
-1.28665
-1.28655
-1.28645
-1.28636
-1.28628
-1.2862
-1.28613
-1.28606
-1.28599
-1.28593
-1.28588
-1.28583
-1.28578
-1.28574
-1.2857
-1.28566
-1.28563
-1.2856
-1.28558
-1.28556
-1.28554
-1.28552
-1.28551
-1.2855
-1.28549
-1.28549
-1.28549
-1.28549
-1.28549
-1.28549
-1.2855
-1.28551
-1.31118
-1.31069
-1.31016
-1.30983
-1.30928
-1.30883
-1.30861
-1.30809
-1.30752
-1.30813
-1.30787
-1.30763
-1.3074
-1.30721
-1.30704
-1.30688
-1.30674
-1.30661
-1.30649
-1.30638
-1.30628
-1.30619
-1.30611
-1.30603
-1.30597
-1.30591
-1.30586
-1.30582
-1.30578
-1.30575
-1.30573
-1.30571
-1.30569
-1.30568
-1.30568
-1.30568
-1.30568
-1.30569
-1.3057
-1.30571
-1.30573
-1.30575
-1.30578
-1.30581
-1.30584
-1.30587
-1.30591
-1.30595
-1.30599
-1.30603
-1.32798
-1.32794
-1.32743
-1.32699
-1.32804
-1.32769
-1.32737
-1.32924
-1.32897
-1.32871
-1.32839
-1.32824
-1.32808
-1.32746
-1.32804
-1.32792
-1.32779
-1.3277
-1.32763
-1.32757
-1.32752
-1.32748
-1.32745
-1.32744
-1.32742
-1.32742
-1.32742
-1.32743
-1.32745
-1.32747
-1.32749
-1.32751
-1.32754
-1.32758
-1.32761
-1.32765
-1.32769
-1.32773
-1.32777
-1.32781
-1.32786
-1.3279
-1.32795
-1.328
-1.32805
-1.3281
-1.32815
-1.3282
-1.32825
-1.32831
-0.908822
-0.908707
-0.90922
-0.909175
-0.909202
-0.909213
-0.909025
-0.909055
-0.909065
-0.909071
-0.908976
-0.908995
-0.908994
-0.908128
-0.909734
-0.90973
-0.909707
-0.909679
-0.909727
-0.909748
-0.908666
-0.908796
-0.908793
-0.908771
-0.908732
-0.908906
-0.908865
-0.908797
-0.909795
-0.909771
-0.90975
-0.90973
-0.909715
-0.908288
-0.909394
-0.908614
-0.909097
-0.909149
-0.908648
-0.909292
-0.909271
-0.909244
-0.909225
-0.909211
-0.909196
-0.909156
-0.907786
-0.911835
-0.911818
-0.91181
-0.911808
-0.911811
-0.911819
-0.909458
-0.910274
-0.910301
-0.910308
-0.910319
-0.910323
-0.91033
-0.910333
-0.910306
-0.910283
-0.91107
-0.911062
-0.911062
-0.911065
-0.911063
-0.911078
-0.910438
-0.910545
-0.910641
-0.91066
-0.910674
-0.910686
-0.910697
-0.910706
-0.910709
-0.910716
-0.910721
-0.910724
-0.910725
-0.910726
-0.910723
-0.910708
-0.910708
-0.910718
-0.910731
-0.910729
-0.910727
-0.910723
-0.910719
-0.910715
-0.91071
-0.910705
-0.910692
-0.910664
-0.910559
-0.91055
-0.910574
-0.91055
-0.90988
-0.910814
-0.910802
-0.910862
-0.910873
-0.910855
-0.910839
-0.910823
-0.910807
-0.910791
-0.910776
-0.910761
-0.910745
-0.91073
-0.910713
-0.910697
-0.910684
-0.910669
-0.910652
-0.910381
-0.910653
-0.910692
-0.910685
-0.910672
-0.910669
-0.910631
-0.910629
-0.910619
-0.910603
-0.910587
-0.910571
-0.910558
-0.910514
-0.910522
-0.91052
-0.91051
-0.910495
-0.910472
-0.910436
-0.910434
-0.910421
-0.910439
-0.910425
-0.909851
-0.910443
-0.910504
-0.910467
-0.910019
-0.910526
-0.910574
-0.910556
-0.910673
-0.910662
-0.910637
-0.910615
-0.910596
-0.910668
-0.910611
-0.910602
-0.910592
-0.910543
-0.910601
-0.910612
-0.910614
-0.91061
-0.910634
-0.910619
-0.91052
-0.910135
-0.910438
-0.910438
-0.910442
-0.910381
-0.910022
-0.910326
-0.910327
-0.910328
-0.91033
-0.910332
-0.910331
-0.910332
-0.910334
-0.910337
-0.910339
-0.910342
-0.910346
-0.91035
-0.910354
-0.910359
-0.910365
-0.910371
-0.910378
-0.910385
-0.910392
-0.910395
-0.910406
-0.910374
-0.910159
-0.910346
-0.910355
-0.910365
-0.910376
-0.910389
-0.9104
-0.910411
-0.910422
-0.910434
-0.910446
-0.910457
-0.910468
-0.910481
-0.910493
-0.910506
-0.91052
-0.910534
-0.910549
-0.910564
-0.910579
-0.910596
-0.910612
-0.91063
-0.910648
-0.910667
-0.910686
-0.910707
-0.910727
-0.91075
-0.910767
-0.910733
-0.910761
-0.910743
-0.910567
-0.91075
-0.91073
-0.910756
-0.910853
-0.910883
-0.910906
-0.910908
-0.910744
-0.910814
-0.910918
-0.910941
-0.910974
-0.910997
-0.911016
-0.910861
-0.910875
-0.911149
-0.911176
-0.911197
-0.911222
-0.911248
-0.911274
-0.911296
-0.911324
-0.911225
-0.911393
-0.91142
-0.911449
-0.911479
-0.911508
-0.911537
-0.911566
-0.911596
-0.911625
-0.911654
-0.911684
-0.911713
-0.911742
-0.911772
-0.911801
-0.91183
-0.911859
-0.911888
-0.911917
-0.911945
-0.911974
-0.912003
-0.912031
-0.912059
-0.912087
-0.912115
-0.912143
-0.91217
-0.912198
-0.912225
-0.912252
-0.912279
-0.912305
-0.912332
-0.912358
-0.912384
-0.91241
-0.912437
-0.912463
-0.912489
-0.912516
-0.912543
-0.931475
-0.931493
-0.931513
-0.931532
-0.93155
-0.931493
-0.931409
-0.931487
-0.9315
-0.931512
-0.931523
-0.931531
-0.931531
-0.931535
-0.931545
-0.931546
-0.931548
-0.931552
-0.931558
-0.931556
-0.931565
-0.931581
-0.931601
-0.931608
-0.931608
-0.931028
-0.93113
-0.931136
-0.931131
-0.931099
-0.931157
-0.931151
-0.931133
-0.930795
-0.931875
-0.931854
-0.931821
-0.931793
-0.931783
-0.931765
-0.931748
-0.931732
-0.931711
-0.931688
-0.931665
-0.931618
-0.930364
-0.932595
-0.932571
-0.932542
-0.932477
-0.932401
-0.932376
-0.932341
-0.93184
-0.93242
-0.932406
-0.932384
-0.932362
-0.932353
-0.932344
-0.932338
-0.932353
-0.931099
-0.931077
-0.931161
-0.931154
-0.931668
-0.931633
-0.931607
-0.9324
-0.932375
-0.932348
-0.932329
-0.931863
-0.932412
-0.932485
-0.932448
-0.932423
-0.932281
-0.932429
-0.93244
-0.932426
-0.932397
-0.932027
-0.932001
-0.932771
-0.93273
-0.933107
-0.933082
-0.933057
-0.933032
-0.933009
-0.932986
-0.932965
-0.932938
-0.932918
-0.932904
-0.932887
-0.932862
-0.932836
-0.932261
-0.93296
-0.932946
-0.932945
-0.932934
-0.932917
-0.932902
-0.932886
-0.932871
-0.932856
-0.932842
-0.932828
-0.932815
-0.932802
-0.932789
-0.932392
-0.932825
-0.932877
-0.932871
-0.932872
-0.932866
-0.93286
-0.932852
-0.932845
-0.932837
-0.93283
-0.932823
-0.932816
-0.93281
-0.932803
-0.932797
-0.932792
-0.932786
-0.93278
-0.932775
-0.932771
-0.932418
-0.932724
-0.932734
-0.932744
-0.93218
-0.93281
-0.932904
-0.932903
-0.93297
-0.932996
-0.932998
-0.932917
-0.932872
-0.932928
-0.932853
-0.932903
-0.932917
-0.932913
-0.932903
-0.932884
-0.932888
-0.932775
-0.932157
-0.932696
-0.9327
-0.932702
-0.932706
-0.932711
-0.932717
-0.932719
-0.932687
-0.932295
-0.932588
-0.932554
-0.932429
-0.93283
-0.932814
-0.932822
-0.932565
-0.932779
-0.932782
-0.932777
-0.932733
-0.932435
-0.932671
-0.932673
-0.932678
-0.932683
-0.932633
-0.932544
-0.932635
-0.932638
-0.932643
-0.932646
-0.932649
-0.932651
-0.932652
-0.932651
-0.932529
-0.932668
-0.932609
-0.932585
-0.932799
-0.932784
-0.932797
-0.932825
-0.932823
-0.932824
-0.93283
-0.93284
-0.932848
-0.93285
-0.932867
-0.932876
-0.932885
-0.932858
-0.932896
-0.932912
-0.932927
-0.932942
-0.932957
-0.932972
-0.932988
-0.933004
-0.933021
-0.933039
-0.933056
-0.933074
-0.933091
-0.933112
-0.933132
-0.933147
-0.933174
-0.933194
-0.933135
-0.932981
-0.933149
-0.933174
-0.933196
-0.933218
-0.933242
-0.933265
-0.933286
-0.933304
-0.933322
-0.933349
-0.933373
-0.93336
-0.933375
-0.933522
-0.933538
-0.933561
-0.933588
-0.933618
-0.933646
-0.933672
-0.933699
-0.933726
-0.933754
-0.933783
-0.933813
-0.933842
-0.933871
-0.9339
-0.933929
-0.933958
-0.933987
-0.934017
-0.934046
-0.934076
-0.934107
-0.934137
-0.934167
-0.934197
-0.934228
-0.934258
-0.934288
-0.934319
-0.934349
-0.934379
-0.934409
-0.934438
-0.934468
-0.934497
-0.934527
-0.934556
-0.934584
-0.934613
-0.934641
-0.934669
-0.934696
-0.934724
-0.934751
-0.934778
-0.934805
-0.934831
-0.934857
-0.934884
-0.93491
-0.934936
-0.934962
-0.934988
-0.935015
-0.953904
-0.953911
-0.953917
-0.953923
-0.953929
-0.953935
-0.953942
-0.95395
-0.953956
-0.95396
-0.95396
-0.953966
-0.953977
-0.953984
-0.953976
-0.953972
-0.953562
-0.954089
-0.954187
-0.954191
-0.954196
-0.954202
-0.954208
-0.954213
-0.954219
-0.954227
-0.954237
-0.954252
-0.954263
-0.954272
-0.954282
-0.95429
-0.9543
-0.954311
-0.953752
-0.954709
-0.954716
-0.954755
-0.954788
-0.954805
-0.954823
-0.954842
-0.954863
-0.954885
-0.954904
-0.954931
-0.954962
-0.954991
-0.955025
-0.955056
-0.955083
-0.95511
-0.955136
-0.955165
-0.955187
-0.954205
-0.954956
-0.954993
-0.955019
-0.955045
-0.955062
-0.955081
-0.95511
-0.95389
-0.954082
-0.954115
-0.954139
-0.954158
-0.954158
-0.954193
-0.954227
-0.954256
-0.954274
-0.954161
-0.954171
-0.954785
-0.9548
-0.954813
-0.954824
-0.954834
-0.954808
-0.954725
-0.954728
-0.954751
-0.954348
-0.95484
-0.954959
-0.954968
-0.95465
-0.955034
-0.955023
-0.95502
-0.955016
-0.955017
-0.954566
-0.95513
-0.95524
-0.955243
-0.955237
-0.95523
-0.955226
-0.955223
-0.955218
-0.955217
-0.955212
-0.95515
-0.955211
-0.955218
-0.95522
-0.955213
-0.955205
-0.955197
-0.95519
-0.955183
-0.955175
-0.955166
-0.954732
-0.955175
-0.955189
-0.955185
-0.95518
-0.955174
-0.955169
-0.955165
-0.955161
-0.955156
-0.95515
-0.955144
-0.955134
-0.955122
-0.954906
-0.955107
-0.955135
-0.955134
-0.955126
-0.95512
-0.955114
-0.955107
-0.954641
-0.955186
-0.955284
-0.955283
-0.955325
-0.955334
-0.955335
-0.955345
-0.95535
-0.955351
-0.955347
-0.95524
-0.955349
-0.955381
-0.955301
-0.955115
-0.955305
-0.955314
-0.955281
-0.954888
-0.955279
-0.955287
-0.955274
-0.9551
-0.954567
-0.954963
-0.954807
-0.954791
-0.955149
-0.955147
-0.955173
-0.955173
-0.954798
-0.95517
-0.955175
-0.955178
-0.955183
-0.955194
-0.955085
-0.954638
-0.955034
-0.955051
-0.954979
-0.955014
-0.954954
-0.955033
-0.955044
-0.955038
-0.955075
-0.955118
-0.955079
-0.955093
-0.955047
-0.955113
-0.955133
-0.955142
-0.955041
-0.954909
-0.955104
-0.955124
-0.955138
-0.955036
-0.954785
-0.955028
-0.955043
-0.955057
-0.955073
-0.955087
-0.955102
-0.955117
-0.955131
-0.955138
-0.955148
-0.955153
-0.955161
-0.955193
-0.955123
-0.955224
-0.955251
-0.955287
-0.955301
-0.955314
-0.955325
-0.955343
-0.95536
-0.955371
-0.955387
-0.955377
-0.95544
-0.95546
-0.955479
-0.9555
-0.955521
-0.955543
-0.955562
-0.955582
-0.955604
-0.955627
-0.95565
-0.955673
-0.955697
-0.955721
-0.955746
-0.955772
-0.9558
-0.95583
-0.955862
-0.955896
-0.955926
-0.955956
-0.955986
-0.956016
-0.956044
-0.956073
-0.956101
-0.956129
-0.956158
-0.956187
-0.956217
-0.956247
-0.956276
-0.956306
-0.956336
-0.956366
-0.956397
-0.956427
-0.956457
-0.956488
-0.956518
-0.956549
-0.95658
-0.956611
-0.956642
-0.956673
-0.956704
-0.956735
-0.956765
-0.956796
-0.956826
-0.956857
-0.956887
-0.956917
-0.956947
-0.956976
-0.957005
-0.957034
-0.957063
-0.957091
-0.957119
-0.957147
-0.957175
-0.957202
-0.957229
-0.957256
-0.957282
-0.957309
-0.957335
-0.957361
-0.957387
-0.957413
-0.957439
-0.957465
-0.976397
-0.976398
-0.976398
-0.976399
-0.976399
-0.9764
-0.9764
-0.9764
-0.9764
-0.976399
-0.976399
-0.976398
-0.976397
-0.976395
-0.976393
-0.976392
-0.97639
-0.976393
-0.97639
-0.976388
-0.976386
-0.976383
-0.97638
-0.976377
-0.976375
-0.976371
-0.976367
-0.976364
-0.97636
-0.976019
-0.976447
-0.97655
-0.976544
-0.976551
-0.976538
-0.976539
-0.976537
-0.976531
-0.976524
-0.976518
-0.976511
-0.976503
-0.976495
-0.976487
-0.976479
-0.97647
-0.976459
-0.976443
-0.976431
-0.976412
-0.976403
-0.97639
-0.976372
-0.976157
-0.976385
-0.976379
-0.976377
-0.976354
-0.976333
-0.976307
-0.976279
-0.976254
-0.976226
-0.976137
-0.975569
-0.977096
-0.97707
-0.97704
-0.977553
-0.977689
-0.977658
-0.977633
-0.977608
-0.977586
-0.977567
-0.97755
-0.977533
-0.977518
-0.977503
-0.977316
-0.977271
-0.977486
-0.977477
-0.977468
-0.977049
-0.977507
-0.977634
-0.977735
-0.976961
-0.977246
-0.977268
-0.977271
-0.977206
-0.977228
-0.97681
-0.977379
-0.977525
-0.977521
-0.97752
-0.97747
-0.977522
-0.977517
-0.977509
-0.977501
-0.977494
-0.977487
-0.97748
-0.977472
-0.977464
-0.977455
-0.977445
-0.977436
-0.977426
-0.977415
-0.977406
-0.977395
-0.97725
-0.977383
-0.977389
-0.97739
-0.977375
-0.97736
-0.976902
-0.9775
-0.977655
-0.977629
-0.977614
-0.977534
-0.977606
-0.977605
-0.977589
-0.977572
-0.977522
-0.977507
-0.977493
-0.977395
-0.977439
-0.977422
-0.977404
-0.97738
-0.977361
-0.976972
-0.977384
-0.977451
-0.977432
-0.97714
-0.977461
-0.977516
-0.977497
-0.977474
-0.977042
-0.977523
-0.977589
-0.977571
-0.977153
-0.977636
-0.977715
-0.977695
-0.977671
-0.97765
-0.977243
-0.977234
-0.977395
-0.977018
-0.977529
-0.977688
-0.977664
-0.977647
-0.977637
-0.977623
-0.977602
-0.977607
-0.977558
-0.977546
-0.977591
-0.977595
-0.9776
-0.977604
-0.977534
-0.977228
-0.977518
-0.97752
-0.97753
-0.977444
-0.977208
-0.977413
-0.977417
-0.977409
-0.97742
-0.977422
-0.977439
-0.977442
-0.977445
-0.977452
-0.977458
-0.977468
-0.977475
-0.977483
-0.977492
-0.977501
-0.977509
-0.977518
-0.977526
-0.977536
-0.977545
-0.977555
-0.977566
-0.977576
-0.977587