/*--------------------------------*- C++ -*----------------------------------*\
| =========                 |                                                 |
| \\      /  F ield         | OpenFOAM: The Open Source CFD Toolbox           |
|  \\    /   O peration     | Version:  2.4.0                                 |
|   \\  /    A nd           | Web:      www.OpenFOAM.org                      |
|    \\/     M anipulation  |                                                 |
\*---------------------------------------------------------------------------*/
FoamFile
{
    version     2.0;
    format      ascii;
    class       surfaceScalarField;
    location    "3.5";
    object      phi;
}
// * * * * * * * * * * * * * * * * * * * * * * * * * * * * * * * * * * * * * //

dimensions      [0 3 -1 0 0 0 0];

internalField   nonuniform List<scalar> 
15580
(
1.75231e-13
-1.75342e-12
6.98821e-13
-5.08359e-12
1.55891e-12
-8.23391e-12
2.73754e-12
-1.12019e-11
4.2163e-12
-1.39874e-11
5.9782e-12
-1.65912e-11
8.00712e-12
-1.90142e-11
1.02878e-11
-2.12573e-11
1.28052e-11
-2.33209e-11
1.55445e-11
-2.52056e-11
1.84907e-11
-2.69118e-11
2.1629e-11
-2.84396e-11
2.49436e-11
-2.97892e-11
2.84184e-11
-3.09605e-11
3.20403e-11
-3.19542e-11
3.58028e-11
-3.27701e-11
3.96981e-11
-3.3406e-11
4.60317e-11
-3.38502e-11
4.38114e-12
-3.41422e-11
7.77294e-12
-3.40561e-11
3.40032e-12
-3.45858e-11
-8.9738e-12
-3.61481e-11
-2.89609e-11
-4.59795e-11
-4.82663e-11
-6.38034e-11
-6.60965e-11
-8.19638e-11
-8.24494e-11
-9.95326e-11
-9.74624e-11
-1.16321e-10
-1.1126e-10
-1.32325e-10
-1.2395e-10
-1.47549e-10
-1.35625e-10
-1.61994e-10
-1.46365e-10
-1.75655e-10
-1.56249e-10
-1.88528e-10
-1.6535e-10
-2.00605e-10
-1.73743e-10
-2.11883e-10
-1.81499e-10
-2.22358e-10
-1.88692e-10
-2.3203e-10
-1.95393e-10
-2.40902e-10
-2.01674e-10
-2.48982e-10
-2.07601e-10
-2.56281e-10
-2.13237e-10
-2.62812e-10
-2.18645e-10
-2.68595e-10
-2.23877e-10
-2.7365e-10
-2.28984e-10
-2.78002e-10
-2.3401e-10
-2.81679e-10
-2.38994e-10
-2.84708e-10
-2.43969e-10
-2.87122e-10
-2.48963e-10
-2.88952e-10
-2.53998e-10
-2.9023e-10
-2.59091e-10
-2.90991e-10
-2.91266e-10
-2.64257e-10
1.65866e-13
-1.91929e-12
6.41925e-13
-5.55965e-12
1.41319e-12
-9.00518e-12
2.46774e-12
-1.22565e-11
3.79422e-12
-1.53139e-11
5.38219e-12
-1.81792e-11
7.22192e-12
-2.0854e-11
9.30378e-12
-2.33391e-11
1.16184e-11
-2.56355e-11
1.41566e-11
-2.77438e-11
1.69093e-11
-2.96645e-11
1.98678e-11
-3.13981e-11
2.30236e-11
-3.2945e-11
2.63684e-11
-3.43053e-11
2.98933e-11
-3.5479e-11
3.3589e-11
-3.64659e-11
3.74517e-11
-3.72686e-11
4.15002e-11
-3.78988e-11
3.78398e-11
-3.83656e-11
-5.69345e-12
-3.86562e-11
-1.75755e-12
-3.85217e-11
8.36029e-13
-3.87417e-11
-5.62168e-12
-3.95217e-11
-2.07849e-11
-4.86402e-11
-3.58161e-11
-6.69326e-11
-4.95485e-11
-8.58003e-11
-6.1992e-11
-1.03878e-10
-7.32076e-11
-1.2111e-10
-8.32677e-11
-1.37489e-10
-9.22519e-11
-1.5301e-10
-1.00247e-10
-1.6766e-10
-1.07346e-10
-1.81428e-10
-1.1365e-10
-1.94302e-10
-1.1926e-10
-2.06273e-10
-1.24281e-10
-2.17337e-10
-1.28813e-10
-2.27498e-10
-1.32953e-10
-2.36762e-10
-1.36792e-10
-2.45144e-10
-1.40411e-10
-2.52662e-10
-1.43883e-10
-2.59339e-10
-1.47274e-10
-2.65204e-10
-1.50637e-10
-2.70287e-10
-1.54017e-10
-2.74622e-10
-1.57451e-10
-2.78244e-10
-1.60968e-10
-2.81192e-10
-1.64586e-10
-2.83504e-10
-1.6832e-10
-2.85218e-10
-1.72177e-10
-2.86374e-10
-1.76158e-10
-2.87009e-10
-2.87163e-10
-1.80261e-10
9.60664e-14
-2.01536e-12
3.85693e-13
-5.84928e-12
8.68732e-13
-9.48822e-12
1.54484e-12
-1.29326e-11
2.41336e-12
-1.61824e-11
3.47261e-12
-1.92385e-11
4.72024e-12
-2.21016e-11
6.15354e-12
-2.47724e-11
7.76963e-12
-2.72516e-11
9.56557e-12
-2.95398e-11
1.15387e-11
-3.16376e-11
1.36864e-11
-3.35458e-11
1.60067e-11
-3.52653e-11
1.84981e-11
-3.67967e-11
2.11602e-11
-3.81411e-11
2.39941e-11
-3.92998e-11
2.69984e-11
-4.0273e-11
3.01611e-11
-4.10615e-11
3.34582e-11
-4.16627e-11
3.90861e-11
-4.20955e-11
-5.81103e-12
-4.23969e-11
-2.25907e-12
-4.22936e-11
5.50961e-13
-4.23318e-11
-5.27817e-12
-4.28111e-11
-1.79646e-11
-5.42462e-11
-2.87294e-11
-7.50355e-11
-3.77272e-11
-9.48798e-11
-4.51413e-11
-1.13696e-10
-5.1177e-11
-1.31454e-10
-5.60397e-11
-1.48147e-10
-5.99268e-11
-1.63773e-10
-6.30242e-11
-1.78331e-10
-6.55063e-11
-1.9182e-10
-6.75339e-11
-2.04245e-10
-6.92534e-11
-2.15618e-10
-7.07949e-11
-2.25956e-10
-7.22718e-11
-2.35285e-10
-7.37804e-11
-2.43635e-10
-7.54004e-11
-2.51042e-10
-7.71952e-11
-2.57545e-10
-7.92138e-11
-2.63186e-10
-8.14912e-11
-2.6801e-10
-8.40502e-11
-2.72063e-10
-8.69032e-11
-2.75392e-10
-9.00527e-11
-2.78043e-10
-9.34936e-11
-2.80063e-10
-9.72139e-11
-2.81497e-10
-1.01196e-10
-2.82391e-10
-1.05418e-10
-2.82787e-10
-2.82726e-10
-1.09855e-10
5.93008e-14
-2.07466e-12
2.4517e-13
-6.03515e-12
5.59609e-13
-9.80266e-12
1.00241e-12
-1.33754e-11
1.57312e-12
-1.67531e-11
2.27026e-12
-1.99356e-11
3.09134e-12
-2.29227e-11
4.03332e-12
-2.57144e-11
5.09251e-12
-2.83108e-11
6.26498e-12
-3.07122e-11
7.54624e-12
-3.29189e-11
8.93175e-12
-3.49313e-11
1.04165e-11
-3.675e-11
1.19955e-11
-3.83758e-11
1.36638e-11
-3.98094e-11
1.54161e-11
-4.10521e-11
1.72479e-11
-4.21047e-11
1.91554e-11
-4.29689e-11
2.11376e-11
-4.3645e-11
2.31787e-11
-4.41366e-11
2.36466e-11
-4.44537e-11
-1.582e-11
-4.46364e-11
-1.3615e-11
-4.45367e-11
-1.18389e-11
-4.45873e-11
-1.82146e-11
-4.78705e-11
-2.26317e-11
-7.06183e-11
-2.51994e-11
-9.23121e-11
-2.63154e-11
-1.1258e-10
-2.63611e-11
-1.31408e-10
-2.56768e-11
-1.48831e-10
-2.45557e-11
-1.64894e-10
-2.32462e-11
-1.7964e-10
-2.19541e-11
-1.93112e-10
-2.08462e-11
-2.05353e-10
-2.00541e-11
-2.1641e-10
-1.96782e-11
-2.26332e-10
-1.97916e-11
-2.35172e-10
-2.0444e-11
-2.42983e-10
-2.16653e-11
-2.49821e-10
-2.34687e-11
-2.55741e-10
-2.58535e-11
-2.60801e-10
-2.88075e-11
-2.65056e-10
-3.23092e-11
-2.68561e-10
-3.63295e-11
-2.71371e-10
-4.08333e-11
-2.73539e-10
-4.5781e-11
-2.75115e-10
-5.11294e-11
-2.76149e-10
-5.68332e-11
-2.76688e-10
-6.28455e-11
-2.76775e-10
-2.76453e-10
-6.91192e-11
6.94869e-14
-2.14415e-12
2.56169e-13
-6.22183e-12
5.47964e-13
-1.00945e-11
9.37901e-13
-1.37653e-11
1.41962e-12
-1.72348e-11
1.98664e-12
-2.05026e-11
2.63237e-12
-2.35684e-11
3.34954e-12
-2.64316e-11
4.13053e-12
-2.90918e-11
4.96664e-12
-3.15483e-11
5.84869e-12
-3.38009e-11
6.76594e-12
-3.58486e-11
7.70705e-12
-3.76911e-11
8.65846e-12
-3.93272e-11
9.60589e-12
-4.07568e-11
1.05317e-11
-4.19779e-11
1.14177e-11
-4.29907e-11
1.22419e-11
-4.37932e-11
1.29874e-11
-4.43904e-11
1.36378e-11
-4.4787e-11
1.41545e-11
-4.49704e-11
1.42242e-11
-4.49743e-11
-4.43726e-12
-4.49531e-11
-4.26753e-12
-4.4757e-11
-4.86623e-12
-4.72718e-11
-4.03852e-12
-7.14461e-11
-2.60152e-12
-9.37491e-11
-8.88556e-13
-1.14293e-10
8.25574e-13
-1.33122e-10
2.32173e-12
-1.50327e-10
3.4263e-12
-1.65999e-10
4.00856e-12
-1.80223e-10
3.97644e-12
-1.9308e-10
3.27088e-12
-2.04647e-10
1.8598e-12
-2.14999e-10
-2.67786e-13
-2.24205e-10
-3.10688e-12
-2.32333e-10
-6.64058e-12
-2.39449e-10
-1.08431e-11
-2.45618e-10
-1.56822e-11
-2.50902e-10
-2.11206e-11
-2.55363e-10
-2.71171e-11
-2.59059e-10
-3.36276e-11
-2.62051e-10
-4.06055e-11
-2.64393e-10
-4.80023e-11
-2.66142e-10
-5.57686e-11
-2.67349e-10
-6.38539e-11
-2.68064e-10
-7.22079e-11
-2.68334e-10
-8.07807e-11
-2.68202e-10
-2.6771e-10
-8.95235e-11
-1.70137e-15
-2.14244e-12
1.01979e-14
-6.23373e-12
4.65506e-14
-1.01308e-11
1.13901e-13
-1.38327e-11
2.17466e-13
-1.73384e-11
3.61596e-13
-2.06467e-11
5.49877e-13
-2.37567e-11
7.85581e-13
-2.66673e-11
1.0712e-12
-2.93774e-11
1.40971e-12
-3.18868e-11
1.80291e-12
-3.41941e-11
2.25445e-12
-3.63001e-11
2.7659e-12
-3.82025e-11
3.34271e-12
-3.9904e-11
3.98635e-12
-4.14004e-11
4.70706e-12
-4.26986e-11
5.51458e-12
-4.37983e-11
6.44568e-12
-4.47243e-11
7.14567e-12
-4.50904e-11
7.64263e-12
-4.5284e-11
5.01923e-12
-4.51146e-11
-2.58358e-11
-4.5077e-11
-2.62189e-11
-4.457e-11
-2.63482e-11
-4.46277e-11
-1.7485e-11
-5.61349e-11
-1.14229e-11
-7.75082e-11
-7.46035e-12
-9.77116e-11
-5.3103e-12
-1.16443e-10
-4.76665e-12
-1.33666e-10
-5.66469e-12
-1.49429e-10
-7.84846e-12
-1.63815e-10
-1.11683e-11
-1.76903e-10
-1.54851e-11
-1.88763e-10
-2.06745e-11
-1.99458e-10
-2.66283e-11
-2.09045e-10
-3.32551e-11
-2.17578e-10
-4.04781e-11
-2.2511e-10
-4.82336e-11
-2.31694e-10
-5.64674e-11
-2.37384e-10
-6.51323e-11
-2.42237e-10
-7.41856e-11
-2.46309e-10
-8.35869e-11
-2.49658e-10
-9.3297e-11
-2.52341e-10
-1.03277e-10
-2.54413e-10
-1.13488e-10
-2.55931e-10
-1.23889e-10
-2.56947e-10
-1.34442e-10
-2.5751e-10
-1.45108e-10
-2.57668e-10
-1.55847e-10
-2.57463e-10
-2.56934e-10
-1.66623e-10
-7.8929e-14
-2.06351e-12
-2.81155e-13
-6.0315e-12
-5.72772e-13
-9.83919e-12
-9.17984e-13
-1.34875e-11
-1.28611e-12
-1.69703e-11
-1.64251e-12
-2.02904e-11
-1.95968e-12
-2.34395e-11
-2.20243e-12
-2.64245e-11
-2.34557e-12
-2.92343e-11
-2.35153e-12
-3.18809e-11
-2.19658e-12
-3.43491e-11
-1.8385e-12
-3.66582e-11
-1.25331e-12
-3.87877e-11
-3.88526e-13
-4.07688e-11
7.97671e-13
-4.25866e-11
2.41102e-12
-4.4312e-11
4.13493e-12
-4.55222e-11
5.93e-12
-4.65194e-11
8.05931e-12
-4.82011e-11
-1.63258e-11
-4.66275e-11
-3.43496e-11
-4.40542e-11
-1.18336e-10
3.89098e-11
-1.48556e-10
-1.43502e-11
-1.70962e-10
-2.22215e-11
-1.79033e-10
-4.80643e-11
-1.8461e-10
-7.19317e-11
-1.89266e-10
-9.30551e-11
-1.93854e-10
-1.11855e-10
-1.98745e-10
-1.28775e-10
-2.04032e-10
-1.44142e-10
-2.09681e-10
-1.58166e-10
-2.15616e-10
-1.70967e-10
-2.21767e-10
-1.82612e-10
-2.28084e-10
-1.93141e-10
-2.34548e-10
-2.02582e-10
-2.41159e-10
-2.10967e-10
-2.47935e-10
-2.18333e-10
-2.549e-10
-2.24729e-10
-2.62076e-10
-2.30209e-10
-2.6948e-10
-2.34833e-10
-2.77124e-10
-2.38665e-10
-2.8501e-10
-2.41772e-10
-2.93132e-10
-2.44218e-10
-3.01478e-10
-2.46068e-10
-3.10029e-10
-2.47381e-10
-3.18761e-10
-2.48215e-10
-3.27649e-10
-2.48622e-10
-3.36666e-10
-2.48651e-10
-3.45782e-10
-2.48346e-10
-2.47747e-10
-3.54969e-10
1.29744e-14
-2.07649e-12
8.99573e-14
-6.10848e-12
2.52007e-13
-1.00012e-11
5.10399e-13
-1.37458e-11
8.82065e-13
-1.73419e-11
1.37908e-12
-2.07874e-11
2.01891e-12
-2.40793e-11
2.80812e-12
-2.72137e-11
3.75836e-12
-3.01845e-11
4.86339e-12
-3.29859e-11
6.12253e-12
-3.56082e-11
7.51815e-12
-3.80538e-11
9.06261e-12
-4.03322e-11
1.07444e-11
-4.24505e-11
1.20827e-11
-4.3925e-11
1.28587e-11
-4.50879e-11
1.3556e-11
-4.75338e-11
-1.54427e-11
-4.69065e-11
-4.19151e-11
-4.11847e-11
-7.41704e-11
-1.45906e-11
-8.9737e-11
-2.84876e-11
-1.60808e-10
1.0998e-10
-2.65107e-10
8.99494e-11
-3.19594e-10
3.22649e-11
-3.57231e-10
-1.04269e-11
-3.84216e-10
-4.49464e-11
-4.03989e-10
-7.32825e-11
-4.18672e-10
-9.7172e-11
-4.29618e-10
-1.17829e-10
-4.37739e-10
-1.36022e-10
-4.43705e-10
-1.522e-10
-4.48055e-10
-1.66617e-10
-4.51251e-10
-1.79416e-10
-4.53694e-10
-1.90698e-10
-4.55725e-10
-2.00551e-10
-4.5763e-10
-2.09062e-10
-4.59635e-10
-2.16328e-10
-4.61915e-10
-2.2245e-10
-4.6459e-10
-2.27533e-10
-4.67743e-10
-2.3168e-10
-4.71419e-10
-2.34989e-10
-4.75636e-10
-2.37555e-10
-4.8039e-10
-2.39464e-10
-4.85663e-10
-2.40795e-10
-4.91425e-10
-2.41619e-10
-4.97641e-10
-2.41999e-10
-5.0427e-10
-2.41993e-10
-5.11271e-10
-2.4165e-10
-5.18602e-10
-2.41015e-10
-2.40127e-10
-5.26222e-10
1.34083e-13
-2.21057e-12
4.99419e-13
-6.47382e-12
1.13457e-12
-1.06364e-11
2.13336e-12
-1.47446e-11
3.57835e-12
-1.87869e-11
5.57996e-12
-2.2789e-11
8.22076e-12
-2.67201e-11
1.16243e-11
-3.06173e-11
1.58807e-11
-3.44409e-11
2.11645e-11
-3.82697e-11
2.75718e-11
-4.20155e-11
3.53547e-11
-4.58367e-11
4.28015e-11
-4.77791e-11
5.02103e-11
-4.98593e-11
5.57954e-11
-5.22156e-11
1.82988e-11
-5.04061e-11
-3.5036e-11
-1.16888e-11
-2.32671e-11
-5.88796e-11
-5.04434e-11
-1.40083e-11
-2.66244e-10
2.0121e-10
-4.36499e-10
1.41767e-10
-5.10148e-10
1.83629e-10
-5.74608e-10
1.5441e-10
-6.3453e-10
9.21869e-11
-6.85274e-10
4.03172e-11
-7.26105e-10
-4.11569e-12
-7.5739e-10
-4.19975e-11
-7.79573e-10
-7.49889e-11
-7.93753e-10
-1.03649e-10
-8.0128e-10
-1.28495e-10
-8.0356e-10
-1.4992e-10
-8.01926e-10
-1.6825e-10
-7.97562e-10
-1.83779e-10
-7.9147e-10
-1.96791e-10
-7.84458e-10
-2.07562e-10
-7.7716e-10
-2.1636e-10
-7.70051e-10
-2.23437e-10
-7.63474e-10
-2.29027e-10
-7.57664e-10
-2.33342e-10
-7.52772e-10
-2.36572e-10
-7.48882e-10
-2.38879e-10
-7.4603e-10
-2.40408e-10
-7.44214e-10
-2.4128e-10
-7.4341e-10
-2.41599e-10
-7.43575e-10
-2.41454e-10
-7.44654e-10
-2.4092e-10
-7.46587e-10
-2.40059e-10
-7.49312e-10
-2.38925e-10
-7.52764e-10
-2.37563e-10
-2.3601e-10
-7.56881e-10
-8.80533e-14
-2.12252e-12
-8.05921e-15
-6.55381e-12
5.05076e-13
-1.11495e-11
1.61736e-12
-1.58569e-11
3.56649e-12
-2.0736e-11
6.48901e-12
-2.57115e-11
1.06749e-11
-3.09061e-11
1.62571e-11
-3.61994e-11
2.37207e-11
-4.19045e-11
3.29064e-11
-4.74555e-11
4.3292e-11
-5.2401e-11
5.48539e-11
-5.74806e-11
3.74339e-11
-7.07673e-11
-6.86105e-12
-5.99838e-11
-6.22433e-11
-7.99361e-13
-1.80182e-11
-9.47223e-11
-2.03334e-10
1.73627e-10
-3.16512e-10
5.42985e-11
-4.09843e-10
7.93225e-11
-3.82179e-10
1.73546e-10
-4.69021e-10
2.2861e-10
-4.76395e-10
1.91003e-10
-4.71658e-10
1.49673e-10
-4.86038e-10
1.06567e-10
-5.09329e-10
6.36083e-11
-5.35613e-10
2.2169e-11
-5.60805e-10
-1.68062e-11
-5.83191e-10
-5.2602e-11
-6.02083e-10
-8.47567e-11
-6.17505e-10
-1.13073e-10
-6.29876e-10
-1.3755e-10
-6.39786e-10
-1.5834e-10
-6.47865e-10
-1.75701e-10
-6.54699e-10
-1.89958e-10
-6.60796e-10
-2.01465e-10
-6.66573e-10
-2.10582e-10
-6.72357e-10
-2.17653e-10
-6.78389e-10
-2.22995e-10
-6.84839e-10
-2.26892e-10
-6.9182e-10
-2.29591e-10
-6.99395e-10
-2.31304e-10
-7.07593e-10
-2.3221e-10
-7.16415e-10
-2.32458e-10
-7.25842e-10
-2.32172e-10
-7.35843e-10
-2.31454e-10
-7.46376e-10
-2.30386e-10
-7.57398e-10
-2.29038e-10
-7.68859e-10
-2.27464e-10
-7.80713e-10
-2.25709e-10
-2.23811e-10
-7.92912e-10
5.74154e-13
-2.69667e-12
2.34398e-12
-8.32364e-12
5.37669e-12
-1.41822e-11
9.78635e-12
-2.02666e-11
1.56479e-11
-2.65975e-11
2.31055e-11
-3.31691e-11
3.12449e-11
-3.90455e-11
3.89386e-11
-4.38931e-11
4.54021e-11
-4.87723e-11
1.07577e-11
-5.58653e-11
-2.42237e-11
-1.06739e-10
-9.02282e-11
7.00391e-12
-1.33716e-11
-1.47844e-10
-9.12209e-11
1.78472e-11
-1.26131e-10
3.41103e-11
-2.83523e-10
6.267e-11
-2.20616e-10
1.1072e-10
-3.27713e-10
1.61396e-10
-3.89034e-10
1.40643e-10
-3.57538e-10
1.4205e-10
-2.64081e-10
1.35152e-10
-1.87488e-10
1.1441e-10
-1.27453e-10
8.96385e-11
-8.30269e-11
6.21404e-11
-5.26812e-11
3.32626e-11
-3.48932e-11
4.38087e-12
-2.77461e-11
-2.39533e-11
-2.98191e-11
-5.0529e-11
-3.96954e-11
-7.48805e-11
-5.60646e-11
-9.67037e-11
-7.77462e-11
-1.15868e-10
-1.03694e-10
-1.32392e-10
-1.32994e-10
-1.46401e-10
-1.64859e-10
-1.58092e-10
-1.98621e-10
-1.67703e-10
-2.33718e-10
-1.75485e-10
-2.69687e-10
-1.81684e-10
-3.06148e-10
-1.86534e-10
-3.42796e-10
-1.90244e-10
-3.79387e-10
-1.93e-10
-4.15729e-10
-1.94961e-10
-4.51676e-10
-1.96263e-10
-4.87113e-10
-1.9702e-10
-5.21959e-10
-1.97327e-10
-5.5615e-10
-1.97262e-10
-5.89647e-10
-1.9689e-10
-6.22422e-10
-1.96263e-10
-6.5446e-10
-1.95426e-10
-6.85756e-10
-1.94413e-10
-1.93255e-10
-7.16313e-10
2.37177e-13
-2.93385e-12
8.78974e-13
-8.96544e-12
1.70408e-12
-1.50073e-11
2.67058e-12
-2.12331e-11
3.32069e-12
-2.72477e-11
3.56849e-12
-3.34169e-11
-5.88713e-12
-4.39848e-11
-4.68902e-11
-5.80345e-11
-1.72926e-10
1.95566e-11
-1.27627e-10
-1.01832e-10
-5.68594e-10
3.34211e-10
-6.13204e-10
5.16137e-11
-8.52562e-10
9.15139e-11
-9.02066e-10
6.73509e-11
-9.62755e-10
9.47994e-11
-1.00524e-09
1.05159e-10
-9.91578e-10
9.70542e-11
-9.18609e-10
8.8426e-11
-8.52447e-10
7.44817e-11
-7.69531e-10
5.9135e-11
-6.77087e-10
4.27081e-11
-5.88059e-10
2.53811e-11
-5.05919e-10
7.49882e-12
-4.33321e-10
-1.04578e-11
-3.72021e-10
-2.80374e-11
-3.22736e-10
-4.49036e-11
-2.85966e-10
-6.07232e-11
-2.6121e-10
-7.52856e-11
-2.47615e-10
-8.84757e-11
-2.44063e-10
-1.00256e-10
-2.49284e-10
-1.10647e-10
-2.6196e-10
-1.19716e-10
-2.80804e-10
-1.27556e-10
-3.04621e-10
-1.34276e-10
-3.32335e-10
-1.3999e-10
-3.63009e-10
-1.4481e-10
-3.95848e-10
-1.48845e-10
-4.30191e-10
-1.52191e-10
-4.65499e-10
-1.54936e-10
-5.01341e-10
-1.57158e-10
-5.37377e-10
-1.58925e-10
-5.73344e-10
-1.60295e-10
-6.09045e-10
-1.6132e-10
-6.4433e-10
-1.62042e-10
-6.79093e-10
-1.62499e-10
-7.1326e-10
-1.62723e-10
-7.46781e-10
-1.62742e-10
-7.79628e-10
-1.62579e-10
-8.11787e-10
-1.62255e-10
-1.61787e-10
-8.43255e-10
-7.77492e-13
-2.15636e-12
-3.67064e-12
-6.07229e-12
-9.11212e-12
-9.56586e-12
-1.75841e-11
-1.27611e-11
-2.91251e-11
-1.58068e-11
-9.17708e-11
-1.87312e-11
-2.45664e-10
2.90031e-11
-3.20057e-10
1.55493e-11
-8.11551e-10
5.11051e-10
-1.25441e-09
3.41026e-10
-1.23856e-09
3.18366e-10
-1.51118e-09
3.24226e-10
-1.64945e-09
2.29784e-10
-1.75718e-09
1.75088e-10
-1.79174e-09
1.29356e-10
-1.77787e-09
9.12906e-11
-1.74091e-09
6.00928e-11
-1.68649e-09
3.4001e-11
-1.62348e-09
1.14725e-11
-1.55599e-09
-8.34707e-12
-1.48732e-09
-2.59624e-11
-1.42015e-09
-4.17929e-11
-1.3566e-09
-5.60524e-11
-1.29819e-09
-6.88641e-11
-1.24591e-09
-8.03194e-11
-1.20031e-09
-9.05052e-11
-1.16152e-09
-9.95079e-11
-1.12939e-09
-1.07417e-10
-1.10354e-09
-1.14326e-10
-1.08347e-09
-1.20329e-10
-1.0686e-09
-1.25517e-10
-1.05834e-09
-1.29979e-10
-1.0521e-09
-1.33794e-10
-1.04934e-09
-1.37035e-10
-1.04956e-09
-1.39767e-10
-1.05233e-09
-1.42045e-10
-1.05726e-09
-1.43918e-10
-1.06402e-09
-1.45428e-10
-1.07234e-09
-1.46613e-10
-1.08199e-09
-1.47506e-10
-1.09278e-09
-1.48135e-10
-1.10455e-09
-1.48527e-10
-1.11717e-09
-1.48705e-10
-1.13052e-09
-1.4869e-10
-1.14451e-09
-1.48503e-10
-1.15908e-09
-1.4816e-10
-1.17414e-09
-1.47678e-10
-1.18965e-09
-1.47069e-10
-1.20556e-09
-1.46348e-10
-1.45525e-10
-1.22182e-09
-1.15402e-12
-1.00234e-12
-4.61151e-12
-2.6148e-12
-1.02885e-11
-3.88889e-12
-1.81638e-11
-4.9683e-12
-2.39952e-10
-6.06544e-12
-2.54921e-10
-5.19706e-12
-4.50051e-10
2.24134e-10
-6.35606e-10
2.01104e-10
-4.73081e-10
3.48525e-10
-6.70515e-10
5.3846e-10
-8.10879e-10
4.5873e-10
-8.73239e-10
3.86586e-10
-9.59547e-10
3.16093e-10
-1.03708e-09
2.52625e-10
-1.10446e-09
1.96735e-10
-1.16106e-09
1.47891e-10
-1.20615e-09
1.05176e-10
-1.2399e-09
6.77561e-11
-1.26336e-09
3.4936e-11
-1.27783e-09
6.11428e-12
-1.28491e-09
-1.88793e-11
-1.28618e-09
-4.05264e-11
-1.28318e-09
-5.90502e-11
-1.27735e-09
-7.46927e-11
-1.26993e-09
-8.77344e-11
-1.26196e-09
-9.84784e-11
-1.25417e-09
-1.07302e-10
-1.24705e-09
-1.14532e-10
-1.24092e-09
-1.20459e-10
-1.23592e-09
-1.25325e-10
-1.23212e-09
-1.29325e-10
-1.22948e-09
-1.32616e-10
-1.22796e-09
-1.35315e-10
-1.22748e-09
-1.37512e-10
-1.22797e-09
-1.39276e-10
-1.22936e-09
-1.40654e-10
-1.2316e-09
-1.41682e-10
-1.23464e-09
-1.42388e-10
-1.23845e-09
-1.42797e-10
-1.24303e-09
-1.42931e-10
-1.24835e-09
-1.4281e-10
-1.25442e-09
-1.42457e-10
-1.26123e-09
-1.41894e-10
-1.26878e-09
-1.41145e-10
-1.27705e-09
-1.40233e-10
-1.28603e-09
-1.39178e-10
-1.29571e-09
-1.37999e-10
-1.30607e-09
-1.36713e-10
-1.31708e-09
-1.35334e-10
-1.33876e-10
-1.32873e-09
-6.57419e-13
-3.4492e-13
-2.46813e-12
-8.04088e-13
-5.35536e-12
-1.00167e-12
-4.01835e-11
-9.30012e-13
-1.85993e-10
-1.48238e-12
-1.41167e-10
-5.00224e-11
-1.4958e-11
9.79247e-11
4.38194e-12
1.81764e-10
1.23126e-10
2.29781e-10
3.81009e-10
2.80578e-10
5.4474e-10
2.94998e-10
6.39295e-10
2.9203e-10
6.79078e-10
2.76311e-10
6.79211e-10
2.52492e-10
6.51822e-10
2.24123e-10
6.05992e-10
1.93721e-10
5.48102e-10
1.63066e-10
4.82207e-10
1.3365e-10
4.10833e-10
1.06311e-10
3.35599e-10
8.13477e-11
2.57477e-10
5.92429e-11
1.76898e-10
4.00531e-11
9.42414e-11
2.3606e-11
9.8418e-12
9.70683e-12
-7.58603e-11
-2.03223e-12
-1.60856e-10
-1.34823e-11
-2.44808e-10
-2.335e-11
-3.27009e-10
-3.23315e-11
-4.06774e-10
-4.06939e-11
-4.83517e-10
-4.85814e-11
-5.5678e-10
-5.60626e-11
-6.26254e-10
-6.31419e-11
-6.91786e-10
-6.97834e-11
-7.53353e-10
-7.59456e-11
-8.11028e-10
-8.16e-11
-8.64959e-10
-8.67229e-11
-9.1535e-10
-9.12917e-11
-9.62444e-10
-9.52939e-11
-1.00651e-09
-9.87307e-11
-1.04782e-09
-1.01625e-10
-1.08662e-09
-1.04004e-10
-1.12317e-09
-1.05909e-10
-1.15769e-09
-1.07376e-10
-1.19039e-09
-1.08442e-10
-1.22147e-09
-1.09153e-10
-1.2511e-09
-1.09554e-10
-1.27941e-09
-1.09681e-10
-1.30657e-09
-1.09561e-10
-1.33268e-09
-1.09221e-10
-1.08682e-10
-1.35787e-09
-7.08822e-13
3.63901e-13
-2.49631e-12
9.83397e-13
-4.88006e-12
1.34707e-12
-2.65237e-10
1.29716e-12
-2.68173e-10
1.45415e-12
-1.76736e-10
-1.4146e-10
4.11096e-11
-1.19921e-10
2.51715e-10
-2.88413e-11
3.60121e-10
1.21376e-10
3.9276e-10
2.47938e-10
3.88371e-10
2.99387e-10
3.85434e-10
2.94967e-10
3.96133e-10
2.65612e-10
4.17439e-10
2.31186e-10
4.40575e-10
2.00987e-10
4.60079e-10
1.74217e-10
4.74406e-10
1.4874e-10
4.83707e-10
1.2435e-10
4.88425e-10
1.01593e-10
4.87565e-10
8.22069e-11
4.79219e-10
6.75895e-11
4.61246e-10
5.80255e-11
4.32245e-10
5.26076e-11
3.92485e-10
4.94666e-11
3.43747e-10
4.67059e-11
2.87227e-10
4.30378e-11
2.25901e-10
3.79757e-11
1.62064e-10
3.15057e-11
9.74662e-11
2.39039e-11
3.335e-11
1.55348e-11
-2.93526e-11
6.64003e-12
-9.02797e-11
-2.21485e-12
-1.5062e-10
-9.443e-12
-2.09915e-10
-1.66506e-11
-2.67988e-10
-2.3527e-11
-3.24702e-10
-3.00093e-11
-3.79965e-10
-3.60287e-11
-4.33804e-10
-4.1455e-11
-4.863e-10
-4.62346e-11
-5.37536e-10
-5.03884e-11
-5.87366e-10
-5.41741e-11
-6.3546e-10
-5.78152e-11
-6.81612e-10
-6.12245e-11
-7.25751e-10
-6.43024e-11
-7.68077e-10
-6.68272e-11
-8.08709e-10
-6.89217e-11
-8.47777e-10
-7.06129e-11
-8.85338e-10
-7.2e-11
-9.21518e-10
-7.30415e-11
-7.37351e-11
-9.56465e-10
-1.16995e-12
1.53385e-12
-4.27041e-12
4.08386e-12
-1.22537e-11
6.62619e-12
-2.50221e-10
9.96439e-12
-2.5853e-10
9.76348e-12
-2.20024e-10
-1.79966e-10
-2.96905e-10
-4.30395e-11
-2.34251e-10
-9.14958e-11
-2.37374e-10
1.24499e-10
-2.05788e-10
2.16353e-10
-1.802e-10
2.73799e-10
-1.47431e-10
2.62198e-10
-9.89229e-11
2.17104e-10
-3.26228e-11
1.64885e-10
2.08236e-11
1.47541e-10
3.40489e-11
1.60992e-10
1.98823e-12
1.808e-10
-8.49474e-11
2.11285e-10
-2.3693e-10
2.53576e-10
-4.53736e-10
2.99013e-10
-7.18748e-10
3.32601e-10
-1.00335e-09
3.42624e-10
-1.27719e-09
3.26446e-10
-1.51903e-09
2.91311e-10
-1.71965e-09
2.47326e-10
-1.87675e-09
2.00138e-10
-1.99112e-09
1.52342e-10
-2.06477e-09
1.05156e-10
-2.10233e-09
6.14716e-11
-2.11112e-09
2.43263e-11
-2.09984e-09
-4.64355e-12
-2.07623e-09
-2.58308e-11
-2.04643e-09
-3.92397e-11
-2.01539e-09
-4.76881e-11
-1.98495e-09
-5.39678e-11
-1.95509e-09
-5.98676e-11
-1.92542e-09
-6.56968e-11
-1.89659e-09
-7.02901e-11
-1.87043e-09
-7.23974e-11
-1.84921e-09
-7.16032e-11
-1.83447e-09
-6.8919e-11
-1.82498e-09
-6.73027e-11
-1.81658e-09
-6.96239e-11
-1.80712e-09
-7.37648e-11
-1.79501e-09
-7.89299e-11
-1.78282e-09
-8.11123e-11
-1.77059e-09
-8.28479e-11
-1.75939e-09
-8.32031e-11
-1.74908e-09
-8.33492e-11
-8.32401e-11
-1.73957e-09
1.52144e-12
1.24077e-14
4.92384e-12
6.81462e-13
9.64873e-12
1.92036e-12
-2.51669e-10
3.23065e-12
-2.63894e-10
1.94854e-11
-4.42117e-10
-4.79084e-12
-5.20367e-10
3.52105e-11
-6.03052e-10
-8.81061e-12
-4.81737e-10
3.18378e-12
-2.96704e-10
3.13195e-11
-3.73906e-10
3.51001e-10
-3.93713e-10
2.82005e-10
-2.66752e-10
9.01426e-11
-1.13082e-10
1.12157e-11
-1.84351e-11
5.28937e-11
4.80659e-11
9.44905e-11
6.76483e-11
1.61218e-10
7.48437e-11
2.0409e-10
5.69387e-11
2.71481e-10
2.75444e-11
3.28408e-10
-2.92665e-12
3.63072e-10
-3.37824e-11
3.7348e-10
-7.06067e-11
3.6327e-10
-1.14284e-10
3.34989e-10
-1.60743e-10
2.93785e-10
-1.49047e-10
1.88441e-10
-1.40507e-10
1.43802e-10
-1.56043e-10
1.20692e-10
-1.91094e-10
9.65221e-11
-2.36493e-10
6.97256e-11
-2.84316e-10
4.31791e-11
-3.3093e-10
2.07834e-11
-3.71105e-10
9.35817e-13
-4.042e-10
-1.45937e-11
-4.30051e-10
-2.81164e-11
-4.51922e-10
-3.79962e-11
-4.66654e-10
-5.09652e-11
-4.6953e-10
-6.74141e-11
-4.60243e-10
-8.1684e-11
-4.45317e-10
-8.65295e-11
-4.30937e-10
-8.3299e-11
-4.26773e-10
-7.14666e-11
-4.32034e-10
-6.43634e-11
-4.3106e-10
-7.47384e-11
-4.30941e-10
-7.90492e-11
-4.29455e-10
-8.25981e-11
-4.34091e-10
-7.82118e-11
-4.4657e-10
-7.07244e-11
-4.65742e-10
-6.41766e-11
-5.79724e-11
-4.9101e-10
1.9336e-12
-1.92119e-12
8.15431e-12
-5.53925e-12
1.8787e-11
-8.71228e-12
3.33818e-11
-1.14785e-11
5.08454e-11
-1.54206e-11
6.48414e-11
-1.92151e-11
-5.43339e-11
-2.51932e-11
-5.80498e-11
-3.07251e-11
-4.08166e-11
-3.66627e-11
9.60219e-12
-3.61441e-11
3.83168e-10
-3.35301e-11
6.91398e-10
-3.21169e-11
7.4207e-10
3.91761e-11
7.05882e-10
4.65103e-11
7.27858e-10
3.09176e-11
7.9282e-10
2.95291e-11
9.53977e-10
6.08682e-14
1.10885e-09
4.92123e-11
1.30133e-09
7.90019e-11
1.5118e-09
1.17941e-10
1.70691e-09
1.67958e-10
1.85734e-09
2.2305e-10
1.94053e-09
2.80082e-10
2.06052e-09
2.15002e-10
2.40361e-09
-4.93052e-11
2.68094e-09
-8.88862e-11
2.83102e-09
-6.28389e-12
2.89234e-09
5.93696e-11
2.88816e-09
1.00711e-10
2.83672e-09
1.21162e-10
2.74797e-09
1.3193e-10
2.63619e-09
1.32562e-10
2.52301e-09
1.14111e-10
2.42006e-09
8.83649e-11
2.35003e-09
4.19117e-11
2.26867e-09
4.33596e-11
2.14816e-09
6.95453e-11
2.02562e-09
5.51297e-11
1.87545e-09
6.84828e-11
1.73243e-09
5.64901e-11
1.59633e-09
5.27982e-11
1.46468e-09
6.01853e-11
1.34604e-09
5.42798e-11
1.21356e-09
5.77432e-11
1.05178e-09
8.27278e-11
8.52806e-10
1.16376e-10
6.30994e-10
1.436e-10
4.61447e-10
9.8823e-11
3.40706e-10
5.65641e-11
5.12558e-11
2.31478e-10
9.07894e-13
3.51935e-12
7.99384e-12
1.44839e-11
2.1593e-11
2.92324e-11
3.47808e-11
3.81355e-11
3.69195e-11
3.35439e-11
2.37949e-11
2.87613e-11
7.34369e-11
1.1246e-10
9.19338e-11
1.57007e-10
1.91626e-10
2.71863e-10
3.77315e-10
5.16135e-10
6.98755e-10
9.32087e-10
1.21986e-09
1.42444e-09
1.33892e-09
1.23456e-09
1.17849e-09
1.15174e-09
1.14533e-09
1.13667e-09
1.10817e-09
1.05597e-09
1.0076e-09
1.0427e-09
1.07514e-09
1.06604e-09
1.03524e-09
8.95839e-10
8.20716e-10
7.08742e-10
5.95948e-10
5.21546e-10
4.83211e-10
5.13419e-10
4.66847e-10
3.84635e-10
2.19635e-10
1.97243e-10
1.56862e-10
1.0886e-10
-2.69504e-10
-2.91089e-10
-2.74839e-10
-2.90491e-10
-2.80265e-10
-2.89504e-10
-2.85782e-10
-2.88159e-10
-2.91388e-10
-2.86483e-10
-2.97081e-10
-2.84504e-10
-3.02857e-10
-2.8225e-10
-3.08711e-10
-2.79744e-10
-3.14639e-10
-2.7701e-10
-3.20637e-10
-2.74071e-10
-3.267e-10
-2.70947e-10
-3.32826e-10
-2.67658e-10
-3.39014e-10
-2.64223e-10
-3.45263e-10
-2.60658e-10
-3.51576e-10
-2.56981e-10
-3.57956e-10
-2.53207e-10
-3.64411e-10
-2.49352e-10
-3.70949e-10
-2.4543e-10
-3.77582e-10
-2.41455e-10
-3.84326e-10
-2.3744e-10
-3.91196e-10
-2.33398e-10
-3.98216e-10
-2.29344e-10
-4.05408e-10
-2.25289e-10
-4.128e-10
-2.21246e-10
-4.20423e-10
-2.17227e-10
-4.28312e-10
-2.13244e-10
-4.36503e-10
-2.09311e-10
-4.4504e-10
-2.05437e-10
-4.53968e-10
-2.01636e-10
-4.63339e-10
-1.97919e-10
-4.7321e-10
-1.94296e-10
-4.83642e-10
-1.9078e-10
-4.94706e-10
-1.87379e-10
-5.06476e-10
-1.84106e-10
-5.19035e-10
-1.80969e-10
-5.3247e-10
-1.77976e-10
-5.46863e-10
-1.75139e-10
-5.62195e-10
-1.72461e-10
-5.78522e-10
-1.69938e-10
-5.95653e-10
-1.67623e-10
-6.13599e-10
-1.6547e-10
-6.32421e-10
-1.63525e-10
-6.52073e-10
-1.61677e-10
-6.72057e-10
-1.60136e-10
-6.92968e-10
-1.58832e-10
-7.14413e-10
-1.57701e-10
-7.36261e-10
-1.5668e-10
-7.58959e-10
-1.55339e-10
-7.82078e-10
-1.54397e-10
-1.54017e-10
-8.05156e-10
-1.84478e-10
-2.86871e-10
-1.888e-10
-2.8617e-10
-1.93213e-10
-2.85091e-10
-1.97702e-10
-2.83669e-10
-2.02252e-10
-2.81933e-10
-2.06846e-10
-2.79911e-10
-2.11465e-10
-2.77631e-10
-2.16092e-10
-2.75117e-10
-2.20709e-10
-2.72393e-10
-2.25301e-10
-2.69479e-10
-2.29852e-10
-2.66397e-10
-2.34346e-10
-2.63164e-10
-2.38772e-10
-2.59797e-10
-2.43118e-10
-2.56312e-10
-2.47376e-10
-2.52724e-10
-2.51537e-10
-2.49046e-10
-2.55597e-10
-2.45292e-10
-2.59553e-10
-2.41474e-10
-2.63406e-10
-2.37602e-10
-2.67158e-10
-2.33688e-10
-2.70814e-10
-2.29743e-10
-2.74382e-10
-2.25776e-10
-2.77873e-10
-2.21798e-10
-2.813e-10
-2.17818e-10
-2.8468e-10
-2.13847e-10
-2.88031e-10
-2.09893e-10
-2.91376e-10
-2.05966e-10
-2.94736e-10
-2.02077e-10
-2.98139e-10
-1.98234e-10
-3.01612e-10
-1.94446e-10
-3.05184e-10
-1.90724e-10
-3.08887e-10
-1.87077e-10
-3.12751e-10
-1.83515e-10
-3.16811e-10
-1.80046e-10
-3.21098e-10
-1.76681e-10
-3.25646e-10
-1.73428e-10
-3.30486e-10
-1.70299e-10
-3.35644e-10
-1.67304e-10
-3.41124e-10
-1.64457e-10
-3.46979e-10
-1.61768e-10
-3.53214e-10
-1.59235e-10
-3.5987e-10
-1.56869e-10
-3.6684e-10
-1.54707e-10
-3.74266e-10
-1.5271e-10
-3.82231e-10
-1.50867e-10
-3.90755e-10
-1.49177e-10
-3.9988e-10
-1.47554e-10
-4.09162e-10
-1.46057e-10
-4.18821e-10
-1.44738e-10
-1.43728e-10
-4.29109e-10
-1.14479e-10
-2.82248e-10
-1.1926e-10
-2.81389e-10
-1.24167e-10
-2.80184e-10
-1.29171e-10
-2.78666e-10
-1.34239e-10
-2.76864e-10
-1.39342e-10
-2.74808e-10
-1.4445e-10
-2.72522e-10
-1.49536e-10
-2.70031e-10
-1.54573e-10
-2.67356e-10
-1.59537e-10
-2.64516e-10
-1.64404e-10
-2.6153e-10
-1.69154e-10
-2.58414e-10
-1.73767e-10
-2.55183e-10
-1.78229e-10
-2.51851e-10
-1.82523e-10
-2.48429e-10
-1.86639e-10
-2.4493e-10
-1.90567e-10
-2.41364e-10
-1.943e-10
-2.37741e-10
-1.97833e-10
-2.34068e-10
-2.01166e-10
-2.30356e-10
-2.04297e-10
-2.26611e-10
-2.07232e-10
-2.22841e-10
-2.09976e-10
-2.19054e-10
-2.12538e-10
-2.15256e-10
-2.1493e-10
-2.11455e-10
-2.17167e-10
-2.07656e-10
-2.19266e-10
-2.03867e-10
-2.21249e-10
-2.00094e-10
-2.23137e-10
-1.96345e-10
-2.24958e-10
-1.92625e-10
-2.26741e-10
-1.88942e-10
-2.28516e-10
-1.85302e-10
-2.30318e-10
-1.81713e-10
-2.32182e-10
-1.78182e-10
-2.34147e-10
-1.74716e-10
-2.36253e-10
-1.71322e-10
-2.38545e-10
-1.68008e-10
-2.41068e-10
-1.64781e-10
-2.43876e-10
-1.61649e-10
-2.47027e-10
-1.58617e-10
-2.50566e-10
-1.55696e-10
-2.54541e-10
-1.52893e-10
-2.59038e-10
-1.50211e-10
-2.64094e-10
-1.47653e-10
-2.69741e-10
-1.4522e-10
-2.76014e-10
-1.42905e-10
-2.82846e-10
-1.40722e-10
-2.90214e-10
-1.38689e-10
-2.98145e-10
-1.36807e-10
-1.35066e-10
-3.06808e-10
-7.56071e-11
-2.7576e-10
-8.22629e-11
-2.74733e-10
-8.90416e-11
-2.73405e-10
-9.59001e-11
-2.71807e-10
-1.02797e-10
-2.69967e-10
-1.09694e-10
-2.67911e-10
-1.16554e-10
-2.65662e-10
-1.23344e-10
-2.63241e-10
-1.30033e-10
-2.60667e-10
-1.36592e-10
-2.57957e-10
-1.42995e-10
-2.55127e-10
-1.4922e-10
-2.52189e-10
-1.55245e-10
-2.49158e-10
-1.61053e-10
-2.46043e-10
-1.66627e-10
-2.42855e-10
-1.71954e-10
-2.39603e-10
-1.77022e-10
-2.36296e-10
-1.81823e-10
-2.32939e-10
-1.8635e-10
-2.29542e-10
-1.90597e-10
-2.26109e-10
-1.94562e-10
-2.22646e-10
-1.98243e-10
-2.1916e-10
-2.01642e-10
-2.15655e-10
-2.04763e-10
-2.12136e-10
-2.07609e-10
-2.08608e-10
-2.1019e-10
-2.05075e-10
-2.12515e-10