/*--------------------------------*- C++ -*----------------------------------*\
| =========                 |                                                 |
| \\      /  F ield         | OpenFOAM: The Open Source CFD Toolbox           |
|  \\    /   O peration     | Version:  2.4.0                                 |
|   \\  /    A nd           | Web:      www.OpenFOAM.org                      |
|    \\/     M anipulation  |                                                 |
\*---------------------------------------------------------------------------*/
FoamFile
{
    version     2.0;
    format      ascii;
    class       volScalarField;
    location    "2.6";
    object      alpha1;
}
// * * * * * * * * * * * * * * * * * * * * * * * * * * * * * * * * * * * * * //

dimensions      [0 0 0 0 0 0 0];

internalField   nonuniform List<scalar> 
8000
(
1
1
1
1
1
1
1
1
1
1
1
1
1
1
1
1
1
1
1
1
0.999999
0.999999
0.999999
0.999998
0.999998
0.999998
0.999998
0.999997
0.999997
0.999742
0.205131
1.02631e-07
3.42229e-08
1.34327e-08
8.75889e-09
5.79674e-09
3.79545e-09
2.45523e-09
1.56962e-09
9.92066e-10
6.20058e-10
3.8332e-10
2.34446e-10
1.41922e-10
8.50779e-11
5.0533e-11
2.97497e-11
1.73629e-11
1.00479e-11
5.76773e-12
1
1
1
1
1
1
1
1
1
1
1
1
1
1
1
1
1
1
1
1
0.999999
0.999999
0.999999
0.999998
0.999998
0.999998
0.999998
0.999997
0.999875
0.603098
0.0115598
1.27991e-07
2.87657e-08
1.12949e-08
7.31609e-09
4.78091e-09
3.07918e-09
1.95472e-09
1.22444e-09
7.57478e-10
4.63021e-10
2.79808e-10
1.67256e-10
9.89531e-11
5.79818e-11
3.36696e-11
1.93855e-11
1.10712e-11
6.27566e-12
3.53417e-12
1
1
1
1
1
1
1
1
1
1
1
1
1
1
1
1
1
1
1
1
0.999999
0.999999
0.999999
0.999998
0.999998
0.999998
0.999998
0.999786
0.726123
0.0620206
0.000437128
2.66496e-07
2.62625e-08
8.84508e-09
5.55649e-09
3.55098e-09
2.22794e-09
1.37335e-09
8.34598e-10
5.004e-10
2.96267e-10
1.73391e-10
1.0041e-10
5.75962e-11
3.27626e-11
1.85064e-11
1.03995e-11
5.83033e-12
3.27711e-12
1.86188e-12
1
1
1
1
1
1
1
1
1
1
1
1
1
1
1
1
1
1
1
1
0.999999
0.999999
0.999999
0.999999
0.999998
0.999998
0.999392
0.637205
0.0814874
0.00285311
2.16189e-05
6.71037e-07
2.5356e-08
5.76162e-09
3.39561e-09
2.06993e-09
1.23658e-09
7.24433e-10
4.17314e-10
2.37063e-10
1.331e-10
7.40665e-11
4.09949e-11
2.26862e-11
1.26577e-11
7.21881e-12
4.29781e-12
2.74514e-12
1.92895e-12
1.50492e-12
1
1
1
1
1
1
1
1
1
1
1
1
1
1
1
1
1
1
1
0.999999
0.999999
0.999999
0.999998
0.999999
0.999866
0.968401
0.386503
0.0472143
0.00297395
0.000110618
3.13049e-06
1.77792e-07
7.50209e-09
2.19301e-09
1.23578e-09
6.97134e-10
3.844e-10
2.08514e-10
1.12023e-10
6.02603e-11
3.3031e-11
1.89836e-11
1.1903e-11
8.45371e-12
6.87146e-12
6.23323e-12
6.05984e-12
6.10409e-12
6.23944e-12
6.40189e-12
1
1
1
1
1
1
1
1
1
1
1
1
1
1
1
1
1
0.999999
0.999999
0.999999
0.999999
0.999999
0.999986
0.999298
0.717953
0.16401
0.0165981
0.000525881
1.86252e-06
1.19091e-07
2.60595e-08
1.0786e-09
1.98957e-10
9.13964e-11
4.63591e-11
2.62463e-11
1.78505e-11
1.51156e-11
1.51745e-11
1.66282e-11
1.87685e-11
2.12203e-11
2.37751e-11
2.63109e-11
2.87537e-11
3.10575e-11
3.31946e-11
3.51492e-11
3.6914e-11
3.84882e-11
1
1
1
1
1
1
1
1
1
1
1
1
1
1
1
1
0.999999
0.999999
0.999999
0.999999
0.999999
0.999588
0.909694
0.33722
0.0444812
0.000552741
6.67705e-05
4.48497e-06
1.68858e-07
3.27258e-09
9.04574e-11
1.49583e-11
9.81563e-12
1.17962e-11
1.73691e-11
2.54053e-11
3.53187e-11
4.66736e-11
5.90843e-11
7.21983e-11
8.56996e-11
9.93137e-11
1.1281e-10
1.26e-10
1.38738e-10
1.50913e-10
1.62444e-10
1.7328e-10
1.8339e-10
1.92762e-10
1
1
1
1
1
1
1
1
1
1
1
1
1
1
1
0.999999
0.999999
0.999999
0.999999
0.999703
0.9739
0.482697
0.0688099
0.00144009
0.000953245
1.0627e-05
4.55689e-07
7.06043e-07
2.26256e-08
5.57092e-10
2.69956e-11
2.20397e-11
4.2715e-11
7.47391e-11
1.1341e-10
1.57088e-10
2.04684e-10
2.55212e-10
3.07777e-10
3.61578e-10
4.15917e-10
4.70197e-10
5.23918e-10
5.76671e-10
6.28128e-10
6.78032e-10
7.26192e-10
7.72469e-10
8.16772e-10
8.59046e-10
1
1
1
1
1
1
1
1
1
1
1
1
1
0.999999
0.999999
0.999999
0.999993
0.999459
0.98884
0.569695
0.049518
0.00285004
0.00102421
3.01096e-06
2.12877e-06
1.8526e-07
1.0713e-07
6.54078e-08
1.84287e-09
3.04341e-10
3.77911e-10
5.00301e-10
6.44155e-10
8.11334e-10
9.81273e-10
1.15238e-09
1.32398e-09
1.49554e-09
1.66663e-09
1.83685e-09
2.00583e-09
2.17321e-09
2.33866e-09
2.50189e-09
2.66263e-09
2.82064e-09
2.97572e-09
3.12771e-09
3.27645e-09
3.42186e-09
1
1
1
1
1
1
1
1
1
1
1
0.999999
0.999999
0.999999
0.999961
0.998864
0.937959
0.454024
0.0194742
0.0115131
3.129e-05
2.64486e-06
1.53365e-06
2.47228e-07
2.75131e-07
3.95035e-08
1.52227e-08
5.931e-09
1.60361e-09
1.83919e-09
2.20367e-09
2.61723e-09
3.051e-09
3.472e-09
3.89642e-09
4.32367e-09
4.75323e-09
5.18469e-09
5.61775e-09
6.05214e-09
6.48762e-09
6.92395e-09
7.36089e-09
7.79819e-09
8.23558e-09
8.67282e-09
9.10965e-09
9.54583e-09
9.98114e-09
1.04154e-08
1
1
1
1
1
1
0.999999
0.999999
0.999999
0.999999
0.999999
0.999997
0.999618
0.998504
0.843628
0.173211
0.0160819
0.00750991
2.99105e-05
4.29537e-05
2.14124e-07
2.57677e-07
3.90428e-07
6.20278e-08
4.16012e-08
8.85015e-09
4.25526e-09
3.64891e-09
4.04611e-09
4.74989e-09
5.51153e-09
6.30244e-09
7.10384e-09
7.92925e-09
8.77876e-09
9.64965e-09
1.054e-08
1.14485e-08
1.2374e-08
1.33157e-08
1.4273e-08
1.52454e-08
1.62323e-08
1.72334e-08
1.82482e-08
1.92763e-08
2.03175e-08
2.13714e-08
2.24378e-08
2.35167e-08
1
1
1
1
1
0.999999
0.999999
0.999999
0.999999
0.999936
0.998349
0.999054
0.502424
0.0305578
0.0226551
0.000201424
7.60845e-05
3.71788e-05
1.34627e-07
1.39294e-07
1.39096e-07
8.64873e-08
7.79389e-08
1.7375e-08
9.44172e-09
4.75951e-09
4.51338e-09
5.27083e-09
6.27382e-09
7.38741e-09
8.58677e-09
9.87653e-09
1.12102e-08
1.258e-08
1.39875e-08
1.54343e-08
1.69212e-08
1.84489e-08
2.00178e-08
2.16278e-08
2.32791e-08
2.49714e-08
2.67045e-08
2.84781e-08
3.02921e-08
3.21461e-08
3.40401e-08
3.5974e-08
3.79481e-08
3.99627e-08
1
1
1
1
0.999999
0.999998
0.999998
0.999907
0.999083
0.775468
0.0482719
0.0254605
0.00152463
0.000111917
0.000113936
2.45607e-07
2.15949e-07
1.4752e-07
1.03041e-07
8.65006e-08
5.92014e-08
2.53196e-08
1.63952e-08
8.06953e-09
6.73176e-09
7.01913e-09
8.10432e-09
9.42931e-09
1.08361e-08
1.22814e-08
1.37392e-08
1.5189e-08
1.6698e-08
1.82784e-08
1.99332e-08
2.16635e-08
2.34702e-08
2.53531e-08
2.7312e-08
2.93466e-08
3.14563e-08
3.36403e-08
3.5898e-08
3.82286e-08
4.06311e-08
4.3105e-08
4.56495e-08
4.82643e-08
5.09489e-08
5.37034e-08
1
1
1
1
0.999998
0.999997
0.999728
0.672309
0.032608
0.0190365
0.000233011
0.000130992
1.68004e-05
2.33426e-07
2.79045e-07
2.0826e-07
1.37855e-07
9.45481e-08
5.86125e-08
4.01738e-08
2.46692e-08
1.20183e-08
8.60835e-09
7.63034e-09
8.15997e-09
9.15694e-09
1.02908e-08
1.14669e-08
1.2667e-08
1.38937e-08
1.51506e-08
1.64379e-08
1.77704e-08
1.91936e-08
2.0737e-08
2.24e-08
2.41799e-08
2.60735e-08
2.80788e-08
3.01948e-08
3.24221e-08
3.47617e-08
3.72143e-08
3.97794e-08
4.2456e-08
4.52425e-08
4.81376e-08
5.11402e-08
5.42475e-08
5.74542e-08
1
1
1
0.999999
0.999998
0.999671
0.416623
0.000941414
0.000529205
0.000197704
1.08318e-05
4.53602e-07
3.79512e-07
2.22093e-07
2.42552e-07
2.25768e-07
1.11371e-07
8.2916e-08
5.29463e-08
3.03041e-08
1.73947e-08
9.27536e-09
6.1079e-09
5.31153e-09
5.52261e-09
5.9659e-09
6.42334e-09
6.89492e-09
7.41767e-09
8.03481e-09
8.78751e-09
9.72462e-09
1.09295e-08
1.23705e-08
1.40948e-08
1.60905e-08
1.82801e-08
2.0588e-08
2.29677e-08
2.54019e-08
2.78963e-08
3.04766e-08
3.31769e-08
3.60222e-08
3.90209e-08
4.21769e-08
4.55004e-08
4.90194e-08
5.27633e-08
5.67388e-08
1
1
1
0.999998
0.999997
0.871864
0.000498341
1.97825e-05
4.39377e-06
1.07622e-06
8.88221e-07
7.25244e-07
5.38178e-07
3.14377e-07
2.35894e-07
2.03187e-07
1.53559e-07
1.20167e-07
9.50645e-08
7.54069e-08
6.06661e-08
4.98139e-08
4.21788e-08
3.6919e-08
3.32333e-08
3.0417e-08
2.79111e-08
2.53253e-08
2.24529e-08
1.92696e-08
1.59066e-08
1.26782e-08
1.0285e-08
1.07444e-08
1.50055e-08
2.15312e-08
2.87922e-08
3.57197e-08
4.17748e-08
4.67937e-08
5.08345e-08
5.40769e-08
5.68099e-08
5.93655e-08
6.19125e-08
6.44245e-08
6.68831e-08
6.93841e-08
7.21456e-08
7.54532e-08
1
1
0.999999
0.999997
0.999994
0.711874
3.02874e-06
3.21682e-06
3.26539e-06
2.17916e-06
1.51467e-06
1.1373e-06
8.73462e-07
6.66748e-07
5.26802e-07
4.3152e-07
3.5399e-07
2.91737e-07
2.5156e-07
2.27746e-07
2.10333e-07
1.96998e-07
1.86604e-07
1.78382e-07
1.71504e-07
1.64553e-07
1.5671e-07
1.50687e-07
1.48768e-07
1.50373e-07
1.53507e-07
1.57811e-07
1.63958e-07
1.71403e-07
1.78936e-07
1.8611e-07
1.92419e-07
1.97269e-07
2.00749e-07
2.02739e-07
2.03318e-07
2.02608e-07
2.01061e-07
2.00049e-07
1.99809e-07
1.98998e-07
1.96851e-07
1.93555e-07
1.89668e-07
1.85962e-07
1
1
0.999999
0.999997
1
0.704019
7.15798e-06
1.60563e-05
9.47581e-06
3.95795e-06
2.89869e-06
2.40177e-06
2.0416e-06
1.65097e-06
1.21077e-06
7.92749e-07
2.46817e-06
5.21264e-06
2.38964e-06
5.20935e-07
5.31541e-07
5.60486e-07
5.63942e-07
5.44063e-07
4.76749e-07
6.4072e-07
2.05885e-06
2.04063e-06
9.37467e-07
2.34089e-07
2.72458e-07
3.3922e-07
4.33837e-07
4.81053e-07
4.93847e-07
5.05951e-07
5.13046e-07
5.04806e-07
5.04632e-07
4.97249e-07
4.8925e-07
4.81305e-07
4.75949e-07
4.95227e-07
5.20312e-07
5.20175e-07
4.98338e-07
4.77849e-07
4.57856e-07
4.59045e-07
1
1
0.999999
0.999996
1
0.759983
0.000601752
0.00139149
0.000671653
0.000404352
0.00024263
0.000144383
8.81199e-05
5.41353e-05
3.35354e-05
2.0479e-05
1.28248e-05
8.74315e-06
6.24887e-06
4.50423e-06
3.30305e-06
2.57348e-06
2.11508e-06
2.05438e-06
2.5887e-06
2.69358e-06
2.1164e-06
1.44047e-06
9.85999e-07
7.42504e-07
6.26114e-07
1.32486e-06
6.71802e-06
3.88709e-06
9.89677e-07
1.05336e-06
1.02211e-06
6.32691e-07
1.20189e-06
7.76228e-07
7.56183e-07
7.61011e-07
7.82365e-07
1.26472e-06
1.47613e-06
1.20227e-06
6.68405e-07
6.89729e-07
6.83746e-07
7.08217e-07
1
1
0.999999
0.999995
1
0.99936
0.0501698
0.0342553
0.0200731
0.0175745
0.012913
0.0100938
0.0077892
0.00606446
0.00470296
0.00362888
0.00280878
0.00219314
0.00168854
0.00125627
0.000938691
0.000731541
0.000563813
0.000407276
0.000290685
0.000216459
0.00016074
0.000113733
7.76042e-05
5.30939e-05
3.568e-05
2.28809e-05
1.39875e-05
8.16474e-06
5.16118e-06
3.314e-06
2.2615e-06
1.55844e-06
1.19629e-06
1.00781e-06
9.78961e-07
1.27954e-06
1.36141e-06
1.46147e-06
1.21047e-06
9.41946e-07
6.42167e-07
1.67299e-06
1.03164e-06
1.06133e-06
3.28559e-12
1.85823e-12
1.04389e-12
5.82783e-13
3.2357e-13
1.78878e-13
9.86657e-14
5.44915e-14
3.03098e-14
1.71392e-14
9.99154e-15
6.11627e-15
4.00616e-15
2.84132e-15
2.17929e-15
1.78329e-15
1.52761e-15
1.34604e-15
1.20408e-15
1.08399e-15
9.76865e-16
8.78431e-16
7.86773e-16
7.01167e-16
6.21435e-16
5.47614e-16
4.79785e-16
4.17998e-16
3.6223e-16
3.12377e-16
2.68231e-16
2.29486e-16
1.95742e-16
1.66536e-16
1.41377e-16
1.19784e-16
1.01306e-16
8.55296e-17
7.2081e-17
6.06274e-17
5.08762e-17
4.25761e-17
3.55135e-17
2.95102e-17
2.44184e-17
2.0114e-17
1.64894e-17
1.34497e-17
1.09102e-17
8.79696e-18
1.98016e-12
1.10614e-12
6.18087e-13
3.47341e-13
1.98004e-13
1.1601e-13
7.11102e-14
4.65029e-14
3.2921e-14
2.52913e-14
2.08572e-14
1.81305e-14
1.63131e-14
1.49791e-14
1.3902e-14
1.29619e-14
1.20956e-14
1.12699e-14
1.04684e-14
9.6841e-15
8.91554e-15
8.16461e-15
7.43514e-15
6.7318e-15
6.05936e-15
5.42218e-15
4.82395e-15
4.2676e-15
3.75523e-15
3.28802e-15
2.86608e-15
2.48845e-15
2.15309e-15
1.85716e-15
1.59735e-15
1.37025e-15
1.1725e-15
1.00095e-15
8.52542e-16
7.24462e-16
6.1408e-16
5.19053e-16
4.37311e-16
3.6709e-16
3.06909e-16
2.55521e-16
2.11814e-16
1.74778e-16
1.43483e-16
1.17081e-16
1.08311e-12
6.57113e-13
4.24994e-13
2.98543e-13
2.29205e-13
1.90478e-13
1.68012e-13
1.54103e-13
1.44651e-13
1.37495e-13
1.31505e-13
1.2609e-13
1.20942e-13
1.15893e-13
1.10847e-13
1.05748e-13
1.00561e-13
9.52681e-14
8.98682e-14
8.43736e-14
7.88112e-14
7.32201e-14
6.76474e-14
6.21445e-14
5.67626e-14
5.15498e-14
4.65498e-14
4.18012e-14
3.73368e-14
3.3182e-14
2.93533e-14
2.58568e-14
2.26886e-14
1.98365e-14
1.72828e-14
1.50077e-14
1.29908e-14
1.12116e-14
9.64888e-15
8.28172e-15
7.08873e-15
6.04994e-15
5.14659e-15
4.36234e-15
3.6833e-15
3.09791e-15
2.59535e-15
2.16549e-15
1.79848e-15
1.48484e-15
1.28698e-12
1.17551e-12
1.11765e-12
1.08573e-12
1.06544e-12
1.0496e-12
1.03472e-12
1.01919e-12
1.00236e-12
9.84003e-13
9.64078e-13
9.42573e-13
9.19457e-13
8.94665e-13
8.68097e-13
8.39646e-13
8.09221e-13
7.76781e-13
7.42362e-13
7.06093e-13
6.68207e-13
6.29028e-13
5.88947e-13
5.48393e-13
5.07804e-13
4.67606e-13
4.28207e-13
3.89991e-13
3.53314e-13
3.1848e-13
2.85725e-13
2.55202e-13
2.26981e-13
2.01058e-13
1.77381e-13
1.55876e-13
1.36457e-13
1.1903e-13
1.03483e-13
8.96919e-14
7.75045e-14
6.677e-14
5.73324e-14
4.90507e-14
4.18057e-14
3.55017e-14
3.00429e-14
2.53347e-14
2.12789e-14
1.77717e-14
6.55989e-12
6.6987e-12
6.81226e-12
6.89902e-12
6.95965e-12
6.99585e-12
7.00969e-12
7.00321e-12
6.97817e-12
6.93592e-12
6.87734e-12
6.80276e-12
6.71204e-12
6.60464e-12
6.47973e-12
6.33638e-12
6.17378e-12
5.99142e-12
5.78937e-12
5.56833e-12
5.32978e-12
5.07584e-12
4.8092e-12
4.53282e-12
4.24984e-12
3.9634e-12
3.67665e-12
3.39273e-12
3.11471e-12
2.84539e-12
2.58709e-12
2.34156e-12
2.10996e-12
1.89291e-12
1.69068e-12
1.50337e-12
1.33099e-12
1.17351e-12
1.03072e-12
9.02228e-13
7.87163e-13
6.84609e-13
5.93401e-13
5.12438e-13
4.40809e-13
3.77878e-13
3.22915e-13
2.7515e-13
2.33698e-13
1.97489e-13
3.98753e-11
4.10822e-11
4.21181e-11
4.29933e-11
4.37188e-11
4.43054e-11
4.47632e-11
4.51006e-11
4.53244e-11
4.54389e-11
4.54457e-11
4.53439e-11
4.51297e-11
4.47973e-11
4.4339e-11
4.37466e-11
4.30125e-11
4.21311e-11
4.10999e-11
3.99208e-11
3.86005e-11
3.715e-11
3.55839e-11
3.39191e-11
3.21736e-11
3.03665e-11
2.85177e-11
2.66486e-11
2.47811e-11
2.29359e-11
2.11304e-11
1.9379e-11
1.76929e-11
1.608e-11
1.45459e-11
1.30953e-11
1.1733e-11
1.04639e-11
9.2923e-12
8.22142e-12
7.24801e-12
6.36903e-12
5.57708e-12
4.8646e-12
4.22565e-12
3.65782e-12
3.15709e-12
2.71853e-12
2.33562e-12
1.99849e-12
2.014e-10
2.09317e-10
2.16534e-10
2.2308e-10
2.28983e-10
2.34274e-10
2.3898e-10
2.43122e-10
2.46716e-10
2.49766e-10
2.52264e-10
2.54189e-10
2.55509e-10
2.56176e-10
2.56134e-10
2.55321e-10
2.53676e-10
2.51146e-10
2.47693e-10
2.43302e-10
2.37983e-10
2.31771e-10
2.24723e-10
2.16909e-10
2.08406e-10
1.99302e-10
1.89698e-10
1.79714e-10
1.69479e-10
1.59115e-10
1.48722e-10
1.3839e-10
1.28201e-10
1.18219e-10
1.08494e-10
9.90733e-11
9.00059e-11
8.13544e-11
7.31891e-11
6.55838e-11
5.85382e-11
5.20739e-11
4.61555e-11
4.07392e-11
3.57917e-11
3.13261e-11
2.73367e-11
2.38074e-11
2.07082e-11
1.79658e-11
8.99269e-10
9.37447e-10
9.73602e-10
1.00777e-09
1.03999e-09
1.07031e-09
1.09876e-09
1.12536e-09
1.15009e-09
1.1729e-09
1.19371e-09
1.21237e-09
1.22866e-09
1.24234e-09
1.25307e-09
1.2605e-09
1.26427e-09
1.26402e-09
1.25945e-09
1.25037e-09
1.23667e-09
1.21835e-09
1.19552e-09
1.16832e-09
1.13695e-09
1.10167e-09
1.06285e-09
1.02103e-09
9.76849e-10
9.30832e-10
8.83328e-10
8.3468e-10
7.85357e-10
7.35713e-10
6.86014e-10
6.36522e-10
5.87459e-10
5.39251e-10
4.92481e-10
4.4796e-10
4.05684e-10
3.66145e-10
3.29236e-10
2.94742e-10
2.62444e-10
2.32664e-10
2.05571e-10
1.81252e-10
1.59749e-10
1.40728e-10
3.56386e-09
3.70241e-09
3.83747e-09
3.96903e-09
4.09708e-09
4.2216e-09
4.34252e-09
4.45972e-09
4.57302e-09
4.68209e-09
4.78647e-09
4.88551e-09
4.97835e-09
5.06389e-09
5.14082e-09
5.20762e-09
5.2627e-09
5.30443e-09
5.33129e-09
5.34204e-09
5.33571e-09
5.31168e-09
5.26956e-09
5.20908e-09
5.13006e-09
5.03272e-09
4.91814e-09
4.78859e-09
4.64683e-09
4.49451e-09
4.33143e-09
4.15779e-09
3.97582e-09
3.78701e-09
3.59207e-09
3.39195e-09
3.18599e-09
2.97592e-09
2.76468e-09
2.55889e-09
2.35675e-09
2.16321e-09
1.97824e-09
1.80112e-09
1.62969e-09
1.46692e-09
1.31502e-09
1.17554e-09
1.05067e-09
9.40661e-10
1.08484e-08
1.12801e-08
1.17103e-08
1.2139e-08
1.2566e-08
1.29913e-08
1.34146e-08
1.38357e-08
1.4254e-08
1.46688e-08
1.50788e-08
1.54826e-08
1.58776e-08
1.62608e-08
1.66285e-08
1.69762e-08
1.72986e-08
1.75904e-08
1.78462e-08
1.80607e-08
1.82294e-08
1.8348e-08
1.84126e-08
1.84189e-08
1.83627e-08
1.82416e-08
1.80585e-08
1.78241e-08
1.75517e-08
1.72454e-08
1.68938e-08
1.64885e-08
1.60409e-08
1.55571e-08
1.50358e-08
1.44829e-08
1.38762e-08
1.32221e-08
1.25239e-08
1.18319e-08
1.11141e-08
1.04048e-08
9.70485e-09
9.01663e-09
8.31927e-09
7.62878e-09
6.96038e-09
6.32384e-09
5.73892e-09
5.22625e-09
2.46078e-08
2.57114e-08
2.68274e-08
2.79561e-08
2.90977e-08
3.02526e-08
3.14211e-08
3.26031e-08
3.37987e-08
3.50071e-08
3.62269e-08
3.7456e-08
3.86905e-08
3.99251e-08
4.11528e-08
4.23644e-08
4.35493e-08
4.46953e-08
4.57895e-08
4.68181e-08
4.77668e-08
4.86199e-08
4.93599e-08
4.99655e-08
5.0414e-08
5.06908e-08
5.08063e-08
5.08095e-08
5.07669e-08
5.06981e-08
5.05187e-08
5.0161e-08
4.96893e-08
4.91263e-08
4.84504e-08
4.77341e-08
4.67383e-08
4.55398e-08
4.40564e-08
4.26279e-08
4.09748e-08
3.92559e-08
3.74513e-08
3.56285e-08
3.36526e-08
3.15665e-08
2.94399e-08
2.72942e-08
2.52159e-08
2.336e-08
4.20184e-08
4.41162e-08
4.62572e-08
4.84429e-08
5.06753e-08
5.29565e-08
5.5289e-08
5.76757e-08
6.01192e-08
6.26219e-08
6.51856e-08
6.78112e-08
7.04975e-08
7.32408e-08
7.60353e-08
7.88716e-08
8.17373e-08
8.46175e-08
8.74945e-08
9.03462e-08
9.31429e-08
9.58459e-08
9.84048e-08
1.00752e-07
1.02814e-07
1.04536e-07
1.05935e-07
1.07165e-07
1.08494e-07
1.10106e-07
1.11616e-07
1.12726e-07
1.13769e-07
1.14782e-07
1.15597e-07
1.16986e-07
1.17079e-07
1.16752e-07
1.15586e-07
1.14862e-07
1.13371e-07
1.11611e-07
1.09214e-07
1.06717e-07
1.03589e-07
9.98099e-08
9.56213e-08
9.09455e-08
8.59492e-08
8.10802e-08
5.65281e-08
5.94239e-08
6.23921e-08
6.54343e-08
6.85528e-08
7.17515e-08
7.5035e-08
7.84093e-08
8.18836e-08
8.54645e-08
8.9159e-08
9.29799e-08
9.69359e-08
1.01027e-07
1.05258e-07
1.09634e-07
1.14155e-07
1.18822e-07
1.23633e-07
1.28584e-07
1.33648e-07
1.38762e-07
1.43829e-07
1.48678e-07
1.5315e-07
1.57157e-07
1.60646e-07
1.6382e-07
1.6723e-07
1.72141e-07
1.7698e-07
1.81413e-07
1.86534e-07
1.92127e-07
1.96574e-07
2.05748e-07
2.08581e-07
2.08247e-07
2.16486e-07
2.2075e-07
2.24133e-07
2.2783e-07
2.29462e-07
2.30831e-07
2.30962e-07
2.29359e-07
2.26697e-07
2.22414e-07
2.16657e-07
2.09274e-07
6.07547e-08
6.41439e-08
6.76191e-08
7.1173e-08
7.47901e-08
7.84746e-08
8.22079e-08
8.59831e-08
8.98384e-08
9.37614e-08
9.7712e-08
1.01768e-07
1.05992e-07
1.10335e-07
1.14762e-07
1.19276e-07
1.23996e-07
1.28952e-07
1.3418e-07
1.39763e-07
1.4578e-07
1.52232e-07
1.59079e-07
1.65774e-07
1.7186e-07
1.7754e-07
1.82621e-07
1.87092e-07
1.90247e-07
1.99749e-07
2.04924e-07
2.13472e-07
2.23545e-07
2.36042e-07
2.37022e-07
2.58428e-07
2.56963e-07
2.97994e-07
2.80481e-07
2.92411e-07
3.04054e-07
3.19002e-07
3.32318e-07
3.45287e-07
3.57226e-07
3.66917e-07
3.7533e-07
3.81594e-07
3.8642e-07
3.88148e-07
6.09293e-08
6.53043e-08
6.98629e-08
7.46373e-08
7.94664e-08
8.45608e-08
8.96456e-08
9.44843e-08
9.95575e-08
1.0483e-07
1.09354e-07
1.13558e-07
1.1824e-07
1.23345e-07
1.28451e-07
1.31891e-07
1.35473e-07
1.39002e-07
1.42864e-07
1.47148e-07
1.5206e-07
1.57839e-07
1.65359e-07
1.73578e-07
1.80559e-07
1.86935e-07
1.91887e-07
1.93916e-07
1.92796e-07
2.1805e-07
2.05701e-07
2.53104e-07
2.45371e-07
2.58105e-07
2.56134e-07
2.66193e-07
2.58951e-07
2.57919e-07
3.76085e-07
2.86554e-07
2.92856e-07
3.0847e-07
3.27366e-07
3.50143e-07
3.75059e-07
4.00025e-07
4.25255e-07
4.50417e-07
4.72378e-07
5.1029e-07
7.94781e-08
8.40338e-08
8.90358e-08
9.44414e-08
9.97437e-08
1.07273e-07
1.1513e-07
1.21807e-07
1.29632e-07
1.41425e-07
1.49873e-07
1.54742e-07
1.597e-07
1.67575e-07
1.81861e-07
1.82034e-07
1.9196e-07
1.92885e-07
1.92906e-07
1.94779e-07
1.9843e-07
2.03362e-07
2.1009e-07
2.18699e-07
2.28281e-07
2.43589e-07
2.83885e-07
2.77045e-07
2.52285e-07
2.32388e-07
2.29641e-07
2.35384e-07
2.46211e-07
2.60739e-07
2.76711e-07
2.93512e-07
3.18563e-07
3.78986e-07
3.49442e-07
2.87851e-07
2.7669e-07
2.72821e-07
2.78263e-07
2.89727e-07
3.06771e-07
3.28376e-07
3.5574e-07
3.88819e-07
3.25812e-07
5.97468e-07
1.8493e-07
1.81957e-07
1.86364e-07
1.84569e-07
1.76846e-07
1.96204e-07
2.03237e-07
1.98424e-07
1.98606e-07
2.43664e-07
2.61085e-07
2.5248e-07
2.45991e-07
2.40835e-07
2.3652e-07
6.84654e-07
3.39452e-07
3.07406e-07
2.92125e-07
2.8217e-07
2.78103e-07
2.80677e-07
2.89658e-07
3.03771e-07
3.13537e-07
2.87356e-07
3.10022e-07
2.57496e-06
1.84393e-06
4.75326e-07
2.5512e-07
2.75946e-07
2.85305e-07
2.94022e-07
3.03553e-07
3.14417e-07
3.33018e-07
6.46746e-07
3.95365e-06
2.8147e-06
7.19589e-07
2.78833e-07
2.88197e-07
2.95216e-07
3.04291e-07
3.04334e-07
3.07573e-07
3.18599e-07
3.23917e-07
3.51478e-07
4.13599e-07
2.93494e-07
8.47851e-07
3.91578e-07
2.21093e-07
7.97043e-07
8.73503e-07
3.19378e-07
2.42347e-07
4.85313e-07
1.27518e-06
4.92976e-07
4.11729e-07
5.06548e-07
2.51474e-06
1.78232e-06
7.63361e-07
3.13134e-07
3.34449e-07
3.37842e-07
3.27851e-07
3.33843e-07
3.64835e-07
4.45835e-07
5.32933e-07
8.39701e-07
1.54112e-06
1.0586e-05
6.63254e-06
2.04467e-06
3.06693e-07
2.83683e-07
2.98392e-07
3.0307e-07
3.14105e-07
3.35123e-07
3.36545e-07
3.95141e-07
4.58736e-06
2.76053e-05
1.50538e-05
4.61746e-06
1.55625e-06
1.08357e-06
6.3973e-07
3.09384e-07
3.05286e-07
3.052e-07
3.06195e-07
3.13062e-07
9.24788e-07
1.03677e-06
1.02619e-06
6.7144e-07
6.57314e-07
1.3722e-06
1.23384e-06
5.07313e-07
5.32909e-07
8.52065e-07
1.83308e-06
2.36002e-06
8.59247e-06
6.18775e-06
3.11301e-06
1.0807e-06
7.23394e-07
7.2488e-07
1.00289e-06
5.71305e-07
8.16179e-07
1.84131e-06
3.48468e-06
4.74506e-06
1.0659e-05
1.1376e-05
1.13808e-05
1.13766e-05
9.18155e-06
4.22182e-06
2.09031e-06
7.56746e-07
3.06784e-07
5.72663e-07
2.10575e-06
4.77133e-06
4.24669e-06
4.5168e-06
1.07588e-05
3.07848e-05
3.09763e-05
3.09737e-05
3.09833e-05
1.41082e-05
2.20358e-06
3.13153e-07
3.05787e-07
3.12921e-07
3.30716e-07
4.4721e-07
1.04418e-06
9.81853e-07
1.37517e-06
1.32311e-06
1.32533e-06
1.36974e-06
2.35005e-06
3.62778e-06
4.76965e-06
5.6398e-06
1.21594e-05
1.21686e-05
1.14812e-05
5.19107e-06
2.80999e-06
2.81567e-06
4.79284e-06
8.97268e-06
1.46261e-05
5.83808e-06
7.21576e-06
1.73753e-05
2.62705e-05
2.63063e-05
1.91694e-05
5.91622e-06
4.31185e-06
4.33302e-06
5.86165e-06
2.49644e-05
1.895e-05
8.5186e-06
2.34413e-06
5.34531e-06
2.31487e-05
2.79305e-05
2.79971e-05
1.27701e-05
2.44915e-05
3.09782e-05
3.09719e-05
3.0977e-05
2.81887e-05
1.10363e-05
2.2783e-06
3.46943e-07
4.87696e-07
1.07403e-06
2.01811e-06
2.26427e-05
7.06107e-18
6.26968e-18
5.56355e-18
4.93485e-18
4.37672e-18
3.88298e-18
3.44795e-18
3.06633e-18
2.73305e-18
2.44321e-18
2.19213e-18
1.97529e-18
1.78839e-18
1.62742e-18
1.4887e-18
1.36893e-18
1.26516e-18
1.17486e-18
1.09582e-18
1.02618e-18
9.64364e-19
9.09037e-19
8.59074e-19
8.13521e-19
7.71571e-19
7.32551e-19
6.95907e-19
6.61207e-19
6.2813e-19
5.96468e-19
5.6611e-19
5.37019e-19
5.09209e-19
4.82713e-19
4.57557e-19
4.3374e-19
4.11224e-19
3.89935e-19
3.6978e-19
3.50665e-19
3.32512e-19
3.15277e-19
2.98946e-19
2.83531e-19
2.69042e-19
2.55468e-19
2.42751e-19
2.30782e-19
2.19414e-19
2.08489e-19
1.9788e-19
1.87523e-19
1.77443e-19
1.67752e-19
1.58626e-19
1.50267e-19
1.42857e-19
1.36513e-19
1.31264e-19
1.27047e-19
1.23727e-19
1.21129e-19
1.19078e-19
1.17423e-19
1.16052e-19
1.14888e-19
1.13882e-19
1.12996e-19
1.12198e-19
1.11453e-19
1.10734e-19
1.1003e-19
1.09355e-19
1.08755e-19
1.08295e-19
1.08041e-19
1.08052e-19
1.08375e-19
1.09046e-19
1.10096e-19
1.11539e-19
1.13362e-19
1.155e-19
1.17817e-19
1.2011e-19
1.22172e-19
1.23893e-19
1.25323e-19
1.26642e-19
1.28027e-19
1.29542e-19
1.31133e-19
1.32739e-19
1.34385e-19
1.3611e-19
1.3779e-19
1.39075e-19
1.3955e-19
1.39094e-19
1.38056e-19
1.37074e-19
1.36637e-19
1.3683e-19
1.37446e-19
1.38094e-19
1.38012e-19
1.36272e-19
1.3267e-19
1.28147e-19
1.23876e-19
1.20131e-19
1.16279e-19
1.12058e-19
1.0774e-19
1.03013e-19
9.74996e-20
9.13726e-20
8.49073e-20
7.8604e-20
7.31254e-20
6.85345e-20
6.4306e-20
6.06688e-20
5.76409e-20
5.49119e-20
5.27149e-20
5.12405e-20
5.04889e-20
5.03723e-20
5.07406e-20
5.14871e-20
5.27594e-20
5.45925e-20
5.71027e-20
6.03101e-20
6.41099e-20
6.85674e-20
7.36887e-20
7.94563e-20
8.58848e-20
9.29954e-20
1.00821e-19
1.0937e-19
1.18675e-19
1.28778e-19
1.39717e-19
1.51521e-19
1.64215e-19
1.77831e-19
1.92393e-19
2.07919e-19
2.24425e-19
2.41916e-19
2.6037e-19
2.79751e-19
3.00011e-19
3.2107e-19
3.42811e-19
3.65109e-19
3.87821e-19
4.10804e-19
4.3388e-19
4.56855e-19
4.79527e-19
5.01685e-19
5.2311e-19
5.43581e-19
5.62876e-19
5.80785e-19
5.97105e-19
6.11653e-19
6.24263e-19
6.34796e-19
6.43141e-19
6.49211e-19
6.52947e-19
6.54318e-19
6.53315e-19
6.49953e-19
6.4427e-19
6.36323e-19
6.26183e-19
6.13936e-19
5.99688e-19
5.83554e-19
5.65667e-19
5.46171e-19
5.25222e-19
5.0299e-19
4.79659e-19
4.55427e-19
4.30498e-19
4.05078e-19
3.79377e-19
3.53604e-19
3.27968e-19
3.02669e-19
2.779e-19
2.53837e-19
2.30638e-19
2.0844e-19
1.87357e-19
1.6748e-19
1.48875e-19
1.31588e-19
1.15641e-19
1.01035e-19
8.77545e-20
7.57652e-20
6.50193e-20
5.5457e-20
4.70091e-20
3.95994e-20
3.31473e-20
2.75696e-20
2.27829e-20
1.8705e-20
1.52563e-20
1.23613e-20
9.94894e-21
7.95372e-21
6.31569e-21
4.98086e-21
3.90115e-21
3.03427e-21
2.34342e-21
1.79697e-21
1.36797e-21
1.03374e-21
7.75342e-22
5.77118e-22
4.26257e-22
3.12364e-22
2.27081e-22
1.63752e-22
1.17122e-22
8.30824e-23
5.84496e-23
4.07806e-23
2.82189e-23
1.93676e-23
1.31862e-23
8.90748e-24
5.97173e-24
3.97477e-24
2.6278e-24
1.72664e-24
1.12845e-24
7.3428e-25
4.76325e-25
3.08554e-25
2.00026e-25
1.3013e-25
8.52574e-26
5.64984e-26
3.80631e-26
2.62164e-26
1.85635e-26
1.35772e-26
1.02875e-26
8.07993e-27
6.56515e-27
5.49613e-27
4.71528e-27
4.12122e-27
3.64818e-27
3.25308e-27
2.90771e-27
2.59394e-27
2.30069e-27
2.02194e-27
1.75536e-27
1.50119e-27
1.26142e-27
1.039e-27
8.37076e-28
6.5831e-28
5.04419e-28
3.75895e-28
2.71966e-28
1.90731e-28
1.29444e-28
8.48756e-29
5.36766e-29
3.26837e-29
1.91271e-29
1.0739e-29
5.7743e-30
2.96806e-30
1.45581e-30
6.80163e-31
3.02145e-31
1.27389e-31
5.08839e-32
1.9222e-32
6.85592e-33
2.30537e-33
7.29981e-34
2.17526e-34
6.10034e-35
9.49849e-17
8.48532e-17
7.5743e-17
6.75677e-17
6.02508e-17
5.37232e-17
4.79213e-17
4.27853e-17
3.82577e-17
3.42828e-17
3.08068e-17
2.7777e-17
2.51426e-17
2.28553e-17
2.08699e-17
1.91451e-17
1.76438e-17
1.63328e-17
1.51834e-17
1.41703e-17
1.3272e-17
1.247e-17
1.17483e-17
1.10935e-17
1.04939e-17
9.93955e-18
9.42233e-18
8.93561e-18
8.47433e-18
8.03491e-18
7.61515e-18
7.21397e-18
6.83107e-18
6.46655e-18
6.12058e-18
5.79309e-18
5.48362e-18
5.19128e-18
4.9149e-18
4.65325e-18
4.40528e-18
4.17029e-18
3.94798e-18
3.73836e-18
3.54148e-18
3.35716e-18
3.18467e-18
3.02265e-18
2.86923e-18
2.72236e-18
2.5803e-18
2.44211e-18
2.30795e-18
2.17909e-18
2.05771e-18
1.94639e-18
1.84749e-18
1.76263e-18
1.69231e-18
1.6358e-18
1.5914e-18
1.55686e-18
1.52987e-18
1.50842e-18
1.49095e-18
1.47643e-18
1.46412e-18
1.45352e-18
1.44415e-18
1.43556e-18
1.42737e-18
1.41943e-18
1.41193e-18
1.40547e-18
1.40091e-18
1.39912e-18
1.40092e-18
1.40694e-18
1.41773e-18
1.43369e-18
1.45498e-18
1.48139e-18
1.51198e-18
1.54488e-18
1.5774e-18
1.60685e-18
1.63191e-18
1.6534e-18
1.67383e-18
1.69566e-18
1.71969e-18
1.74502e-18
1.77055e-18
1.79645e-18
1.82312e-18
1.84878e-18
1.8687e-18
1.87751e-18
1.87438e-18
1.86481e-18
1.85745e-18
1.8579e-18
1.86597e-18
1.87824e-18
1.88969e-18
1.89042e-18
1.86788e-18
1.81955e-18
1.75904e-18
1.70291e-18
1.6546e-18
1.60474e-18
1.54943e-18
1.4921e-18
1.42782e-18
1.35092e-18
1.26394e-18
1.17131e-18
1.08031e-18
9.99955e-19
9.30662e-19
8.65374e-19
8.07632e-19
7.57579e-19
7.10575e-19
6.7009e-19
6.391e-19
6.17397e-19
6.0324e-19
5.94261e-19
5.89145e-19
5.90208e-19
5.97681e-19
6.13271e-19
6.37283e-19
6.67857e-19
7.05878e-19
7.51305e-19
8.03606e-19
8.62776e-19
9.28901e-19
1.0022e-18
1.0825e-18
1.17009e-18
1.26543e-18
1.36881e-18
1.48043e-18
1.60038e-18
1.72885e-18
1.86598e-18
2.01185e-18
2.16658e-18
2.33018e-18
2.50228e-18
2.68236e-18
2.86986e-18
3.06384e-18
3.26299e-18
3.46584e-18
3.67079e-18
3.87629e-18
4.08045e-18
4.28124e-18
4.47659e-18
4.66433e-18
4.84228e-18
5.00826e-18
5.16016e-18
5.29603e-18
5.41406e-18
5.51269e-18
5.59065e-18
5.64694e-18
5.68094e-18
5.6923e-18
5.68102e-18
5.6474e-18
5.592e-18
5.51562e-18
5.41928e-18
5.30414e-18
5.1715e-18
5.02273e-18
4.85932e-18
4.68278e-18
4.49471e-18
4.29673e-18
4.09047e-18
3.87762e-18
3.65991e-18
3.4391e-18
3.21693e-18
2.99509e-18
2.77524e-18
2.55895e-18
2.34772e-18
2.14294e-18
1.94589e-18
1.75765e-18
1.57914e-18
1.4111e-18
1.25403e-18
1.10827e-18
9.73971e-19
8.51092e-19
7.39455e-19
6.38742e-19
5.48517e-19
4.68251e-19
3.9734e-19
3.35127e-19
2.80925e-19
2.3403e-19
1.93741e-19
1.59369e-19
1.30254e-19
1.05767e-19
8.53195e-20
6.83704e-20
5.44235e-20
4.30316e-20
3.37955e-20
2.63627e-20
2.04253e-20
1.57176e-20
1.20123e-20
9.11754e-21
6.87256e-21
5.14434e-21
3.82371e-21
2.82202e-21
2.06787e-21
1.50433e-21
1.0864e-21
7.78803e-22
5.54155e-22
3.91361e-22
2.74318e-22
1.90834e-22
1.31764e-22
9.0303e-23
6.14364e-23
4.14997e-23
2.78401e-23
1.85546e-23
1.2291e-23
8.09709e-24
5.30894e-24
3.46774e-24
2.25939e-24
1.47079e-24
9.58626e-25
6.27307e-25
4.13589e-25
2.75939e-25
1.87273e-25
1.30039e-25
9.29289e-26
6.86878e-26
5.26788e-26
4.19428e-26
3.45913e-26
2.94154e-26
2.56372e-26
2.27521e-26
2.043e-26
1.84543e-26
1.66837e-26
1.50292e-26
1.34391e-26
1.18895e-26
1.03763e-26
8.90981e-27
7.50952e-27
6.19915e-27
5.00225e-27
3.93834e-27
3.0201e-27
2.25202e-27
1.63035e-27
1.14415e-27
7.77196e-28
5.10231e-28
3.23233e-28
1.97279e-28
1.15811e-28
6.52839e-29
3.52803e-29
1.82479e-29
9.01856e-30
4.25206e-30
1.90943e-30
8.15386e-31
3.30601e-31
1.27079e-31
4.62455e-32
1.59137e-32
5.17357e-33
1.58869e-33
4.61023e-34
1.21767e-15
1.09414e-15
9.82206e-16
8.80983e-16
7.8967e-16
7.07532e-16
6.33891e-16
5.68109e-16
5.09568e-16
4.57668e-16
4.11831e-16
3.71486e-16
3.36072e-16
3.05044e-16
2.77887e-16
2.54123e-16
2.3331e-16
2.15053e-16
1.98994e-16
1.8482e-16
1.72254e-16
1.61057e-16
1.51019e-16
1.41957e-16
1.33714e-16
1.26154e-16
1.19161e-16
1.1264e-16
1.06514e-16
1.00725e-16
9.52315e-17
9.00095e-17
8.50452e-17
8.03325e-17
7.58686e-17
7.16501e-17
6.76701e-17
6.39178e-17
6.03788e-17
5.70377e-17
5.38805e-17
5.08967e-17
4.80803e-17
4.54291e-17
4.29421e-17
4.06164e-17
3.8444e-17
3.64093e-17
3.44908e-17
3.26639e-17
3.09065e-17
2.9205e-17
2.75579e-17
2.59774e-17
2.44869e-17
2.31156e-17
2.18922e-17
2.08373e-17
1.99589e-17
1.92507e-17
1.86937e-17
1.8262e-17