/*--------------------------------*- C++ -*----------------------------------*\
| =========                 |                                                 |
| \\      /  F ield         | OpenFOAM: The Open Source CFD Toolbox           |
|  \\    /   O peration     | Version:  2.4.0                                 |
|   \\  /    A nd           | Web:      www.OpenFOAM.org                      |
|    \\/     M anipulation  |                                                 |
\*---------------------------------------------------------------------------*/
FoamFile
{
    version     2.0;
    format      ascii;
    class       volScalarField;
    location    "2.6";
    object      H;
}
// * * * * * * * * * * * * * * * * * * * * * * * * * * * * * * * * * * * * * //

dimensions      [0 2 -2 0 0 0 0];

internalField   nonuniform List<scalar> 
8000
(
-12014.1
-11582.6
-11151.8
-10722.1
-10293.6
-9866.57
-9440.96
-9016.75
-8593.88
-8172.23
-7751.71
-7332.23
-6913.76
-6496.31
-6079.98
-5664.94
-5251.44
-4839.83
-4430.51
-4023.98
-3620.75
-3221.36
-2826.37
-2436.43
-2052.43
-1675.86
-1308.98
-954.652
-614.823
-286.927
-8.12922
-5.80254
-5.38535
-5.03191
-4.73395
-4.48373
-4.2742
-4.099
-3.95252
-3.82983
-3.7267
-3.63949
-3.56512
-3.50101
-3.44502
-3.39535
-3.35054
-3.30939
-3.27095
-3.23442
-12014.1
-11582.4
-11150.9
-10719.7
-10288.8
-9858.23
-9427.82
-8997.44
-8566.94
-8136.18
-7705.09
-7273.63
-6841.87
-6409.96
-5978.18
-5546.91
-5116.64
-4687.97
-4261.54
-3838.09
-3418.3
-3002.83
-2592.24
-2187.09
-1788.23
-1397.32
-1017.42
-653.241
-310.146
-4.07205
-3.46312
-3.00475
-2.97511
-2.9448
-2.91537
-2.88781
-2.86271
-2.84035
-2.82077
-2.80385
-2.78937
-2.77703
-2.76648
-2.75733
-2.74919
-2.74169
-2.73446
-2.72716
-2.71948
-2.71115
-12012.5
-11577.2
-11141.7
-10705.6
-10268.6
-9830.55
-9391.15
-8950.17
-8507.43
-8062.8
-7616.27
-7167.94
-6718.04
-6266.92
-5815.1
-5363.23
-4912.09
-4462.55
-4015.58
-3572.19
-3133.38
-2700.12
-2273.38
-1854.19
-1444
-1045.19
-661.368
-297.622
-3.56257
-3.37899
-2.62106
-2.54467
-2.49696
-2.45521
-2.4193
-2.38893
-2.36375
-2.34336
-2.32735
-2.3153
-2.30677
-2.30132
-2.29847
-2.29776
-2.29867
-2.30075
-2.3035
-2.30649
-2.3093
-2.31157
-12008.7
-11565.8
-11121.6
-10675.6
-10227.4
-9776.38
-9322.24
-8864.71
-8403.61
-7938.91
-7470.7
-6999.26
-6525.06
-6048.73
-5571.09
-5093.14
-4615.99
-4140.92
-3669.25
-3202.37
-2741.67
-2288.51
-1844.11
-1409.53
-985.912
-574.453
-170.355
-2.1045
-2.21383
-1.86746
-1.82328
-1.85465
-1.87717
-1.89273
-1.90333
-1.91054
-1.9156
-1.91948
-1.92293
-1.92649
-1.93055
-1.9353
-1.94081
-1.94703
-1.95382
-1.96096
-1.96819
-1.97525
-1.98184
-1.98771
-12002.8
-11547.6
-11090.5
-10630.5
-10166.8
-9698.67
-9225.72
-8747.55
-8263.97
-7775
-7280.86
-6782
-6279.09
-5773.06
-5265.05
-4756.4
-4248.63
-3743.38
-3242.38
-2747.33
-2259.92
-1781.58
-1313.09
-853.524
-404.787
-3.94329
-0.0879692
-0.250543
-0.411704
-0.580682
-0.749883
-0.901836
-1.03557
-1.15157
-1.25077
-1.33453
-1.4045
-1.4625
-1.51035
-1.54976
-1.58229
-1.60926
-1.63175
-1.65065
-1.66661
-1.68011
-1.6915
-1.70103
-1.70883
-1.71501
-11995
-11524.2
-11050.8
-10573.7
-10091.4
-9603.24
-9108.3
-8606.09
-8096.35
-7579.07
-7054.57
-6523.46
-5986.7
-5445.55
-4901.57
-4356.51
-3812.38
-3271.23
-2735.11
-2206.01
-1686.39
-1180.07
-692.746
-213.323
-2.48021
-1.88854
-1.34059
-0.964634
-0.851371
-0.81753
-0.832539
-0.877903
-0.93907
-1.00579
-1.07156
-1.13275
-1.18769
-1.23588
-1.27753
-1.31318
-1.34348
-1.36907
-1.39057
-1.40851
-1.42333
-1.43541
-1.44506
-1.45253
-1.45802
-1.46171
-11985.3
-11494.5
-11000.2
-10500.3
-9993.17
-9477.47
-8952.07
-8416.25
-7869.67
-7312.47
-6745.25
-6169.1
-5585.63
-4996.97
-4405.48
-3813.65
-3224.17
-2639.37
-2061.08
-1490.93
-932.452
-390.696
-3.82938
-0.0972456
-0.211525
-0.298949
-0.420754
-0.524565
-0.620705
-0.708118
-0.786414
-0.85554
-0.915764
-0.967676
-1.01214
-1.05009
-1.08245
-1.11007
-1.13367
-1.15385
-1.17108
-1.18572
-1.19806
-1.20832
-1.21665
-1.22321
-1.2281
-1.23143
-1.23329
-1.23375
-11971.3
-11451.8
-10926.7
-10393.2
-9848.76
-9291.37
-8719.71
-8133.1
-7531.68
-6916.32
-6288.71
-5651.17
-5006.61
-4358.22
-3709.48
-3063.51
-2423.37
-1789.95
-1163.91
-547.686
-5.67749
-0.120491
-0.206467
-0.24252
-0.324774
-0.398178
-0.471902
-0.54003
-0.602564
-0.65956
-0.711245
-0.757941
-0.800005
-0.837747
-0.871413
-0.90125
-0.927507
-0.950427
-0.97025
-0.987203
-1.00151
-1.01337
-1.02298
-1.03052
-1.03616
-1.04006
-1.04237
-1.04321
-1.04272
-1.04101
-11947.8
-11380.1
-10803.8
-10214.2
-9607.82
-8982.27
-8336.44
-7670.53
-6986.12
-6286.08
-5574.45
-4856.05
-4136.12
-3419.94
-2712.23
-2012.61
-1331.27
-630.799
-6.77901
-0.138489
-0.202698
-0.222091
-0.27751
-0.335752
-0.399576
-0.463026
-0.524034
-0.580818
-0.632407
-0.6784
-0.718816
-0.753942
-0.784212
-0.810125
-0.832153
-0.850743
-0.866302
-0.879194
-0.889737
-0.898204
-0.904829
-0.909815
-0.913334
-0.915535
-0.916548
-0.916485
-0.915446
-0.913517
-0.910776
-0.907293
-11908.7
-11260.3
-10597.1
-9912.32
-9201.4
-8462.21
-7694.95
-6902.28
-6089.26
-5263.18
-4433.48
-3610.83
-2803.71
-2021.67
-1275.48
-456.52
-4.41802
-0.127498
-0.0789311
-0.149308
-0.226827
-0.313338
-0.388849
-0.454483
-0.511707
-0.562961
-0.609215
-0.650588
-0.687285
-0.719627
-0.748038
-0.77298
-0.794789
-0.813809
-0.830377
-0.844776
-0.857244
-0.867986
-0.877173
-0.884954
-0.891453
-0.896778
-0.90102
-0.904259
-0.906564
-0.907994
-0.908603
-0.908436
-0.907535
-0.905938
-11847.3
-11073.5
-10277.2
-9449.11
-8583.89
-7680.15
-6740.67
-5772.24
-4785.79
-3796.15
-2826.22
-1911.15
-1007.19
-156.513
-1.66721
-0.142585
-0.215653
-0.252289
-0.277408
-0.324121
-0.383586
-0.444181
-0.501665
-0.555118
-0.604223
-0.649155
-0.690309
-0.72813
-0.763073
-0.79559
-0.826124
-0.854838
-0.881877
-0.907337
-0.931281
-0.953756
-0.974794
-0.994425
-1.01268
-1.02957
-1.04514
-1.05942
-1.07242
-1.08419
-1.09474
-1.10411
-1.11233
-1.11942
-1.12541
-1.13031
-11765.1
-10824.2
-9853.65
-8840.72
-7778.16
-6664.67
-5505.63
-4313.54
-3106.9
-1898.35
-662.96
-145.852
-2.16047
-0.281167
-0.44799
-0.38949
-0.401955
-0.422436
-0.449325
-0.481516
-0.522629
-0.570891
-0.621676
-0.672835
-0.723431
-0.77314
-0.821948
-0.869968
-0.917343
-0.964198
-1.01061
-1.0569
-1.10276
-1.14786
-1.19197
-1.23489
-1.27647
-1.31657
-1.35511
-1.392
-1.4272
-1.46066
-1.49236
-1.52229
-1.55043
-1.57678
-1.60133
-1.62407
-1.645
-1.66413
-11647.7
-10467.2
-9244.48
-7961.41
-6608.38
-5185.55
-3707.64
-2215.71
-844.779
-9.14739
-1.01397
-1.56886
-1.19874
-0.964048
-0.792239
-0.68602
-0.637681
-0.630643
-0.651779
-0.691297
-0.742605
-0.801337
-0.864528
-0.930462
-0.998195
-1.0672
-1.13716
-1.20786
-1.27911
-1.35074
-1.42262
-1.49453
-1.56644
-1.63801
-1.70894
-1.77895
-1.8478
-1.9153
-1.98125
-2.04551
-2.10794
-2.16843
-2.22687
-2.28318
-2.33727
-2.38906
-2.43847
-2.48543
-2.52988
-2.57172
-11482.2
-9965.95
-8396.26
-6755.81
-5047.92
-3307.2
-1609.85
-19.0169
-2.18546
-2.71476
-2.07416
-1.82738
-1.59367
-1.39214
-1.23333
-1.12486
-1.06748
-1.05029
-1.06382
-1.10007
-1.15295
-1.21819
-1.29279
-1.37452
-1.46172
-1.55312
-1.64772
-1.7447
-1.84341
-1.94327
-2.04379
-2.14454
-2.24583
-2.34783
-2.44999
-2.55183
-2.65296
-2.75304
-2.85177
-2.9489
-3.04423
-3.13755
-3.22869
-3.31749
-3.40382
-3.48751
-3.56845
-3.64648
-3.72146
-3.79326
-11298.9
-9421.67
-7511.44
-5579.39
-3674.54
-1877.59
-30.9644
-21.1716
-16.9434
-13.5147
-10.7049
-8.42891
-6.66247
-5.35662
-4.3751
-3.64665
-3.1191
-2.74408
-2.4846
-2.31354
-2.21078
-2.16118
-2.15301
-2.17711
-2.22624
-2.29468
-2.37799
-2.47268
-2.57603
-2.68623
-2.80197
-2.92234
-3.04672
-3.17512
-3.30732
-3.44151
-3.57628
-3.71053
-3.84346
-3.97447
-4.10313
-4.22913
-4.35229
-4.47245
-4.58955
-4.70352
-4.81431
-4.92188
-5.02615
-5.12707
-11171.9
-9038.65
-6861.45
-4633.54
-2377.77
-23.9561
-17.5204
-15.9377
-14.5394
-13.1399
-11.7752
-10.4956
-9.34135
-8.32919
-7.45983
-6.7263
-6.11824
-5.62323
-5.22819
-4.92027
-4.68729
-4.51801
-4.40223
-4.33083
-4.29584
-4.29039
-4.30874
-4.34626
-4.39935
-4.46539
-4.54271
-4.63042
-4.72839
-4.83712
-4.95644
-5.08271
-5.21286
-5.34437
-5.47524
-5.60398
-5.72956
-5.85134
-5.96901
-6.08252
-6.19199
-6.29767
-6.39986
-6.49889
-6.59503
-6.68851
-11130
-8932.29
-6742.23
-4567.97
-2419.01
-27.52
-20.059
-18.9951
-17.9503
-16.9487
-15.9961
-15.0897
-14.2318
-13.4305
-12.6959
-12.0341
-11.4449
-10.9273
-10.4792
-10.0974
-9.77761
-9.51467
-9.30311
-9.13734
-9.01182
-8.92122
-8.86062
-8.82548
-8.81177
-8.81591
-8.83489
-8.86634
-8.90865
-8.95444
-8.99767
-9.03704
-9.07161
-9.10078
-9.12429
-9.14217
-9.1547
-9.1624
-9.16587
-9.1659
-9.16331
-9.15896
-9.15364
-9.14803
-9.14268
-9.13802
-11139.4
-8959.87
-6785.27
-4618.86
-2462.87
-28.2245
-20.7626
-20.116
-19.5036
-18.9524
-18.456
-18.0125
-17.6086
-17.2352
-16.8826
-16.5474
-16.2311
-15.934
-15.6561
-15.4007
-15.1686
-14.9591
-14.7715
-14.6048
-14.4575
-14.3279
-14.2139
-14.1128
-14.022
-13.9387
-13.8594
-13.7797
-13.6944
-13.6033
-13.5065
-13.4046
-13.2977
-13.1864
-13.071
-12.9519
-12.8296
-12.7044
-12.5769
-12.4473
-12.316
-12.1834
-12.0497
-11.9153
-11.7804
-11.6451
-11146.2
-8978.96
-6811.89
-4642.86
-2465.28
-27.3544
-20.1396
-19.1795
-17.9429
-16.9794
-16.1876
-15.5329
-15.0114
-14.6048
-14.2927
-14.0571
-13.8834
-13.7572
-13.6639
-13.5939
-13.5435
-13.5081
-13.4799
-13.4536
-13.429
-13.4038
-13.3727
-13.3337
-13.2877
-13.2371
-13.1846
-13.1315
-13.0757
-13.0102
-12.9387
-12.8621
-12.7787
-12.6871
-12.5866
-12.4755
-12.3533
-12.2193
-12.073
-11.914
-11.7422
-11.5578
-11.3618
-11.1554
-10.94
-10.7167
-11157.6
-9015.62
-6874.66
-4712.54
-2482.54
-292.082
-31.7895
-15.5846
-13.1409
-12.0008
-10.7101
-9.62099
-8.81069
-8.26066
-7.91697
-7.72616
-7.64299
-7.62923
-7.65874
-7.72092
-7.80595
-7.89778
-7.98845
-8.08218
-8.18065
-8.27302
-8.35305
-8.42272
-8.48814
-8.54987
-8.60262
-8.64228
-8.66915
-8.68447
-8.68771
-8.67642
-8.64867
-8.60287
-8.53753
-8.45152
-8.34443
-8.21626
-8.06694
-7.8972
-7.70903
-7.5059
-7.29088
-7.06771
-6.83887
-6.60753
-3.1992
-3.1648
-3.13084
-3.09705
-3.0632
-3.02914
-2.99477
-2.96001
-2.92481
-2.88915
-2.85302
-2.81644
-2.77941
-2.74195
-2.70409
-2.66585
-2.62726
-2.58835
-2.54915
-2.50969
-2.47
-2.43012
-2.39006
-2.34986
-2.30955
-2.26916
-2.22872
-2.18826
-2.14781
-2.10739
-2.06704
-2.02677
-1.98663
-1.94663
-1.9068
-1.86716
-1.82775
-1.78858
-1.74968
-1.71106
-1.67276
-1.63478
-1.59715
-1.55988
-1.523
-1.48651
-1.45044
-1.41479
-1.37959
-1.34483
-2.70194
-2.69167
-2.68017
-2.66735
-2.65314
-2.63748
-2.62037
-2.60181
-2.58184
-2.56049
-2.53782
-2.5139
-2.48879
-2.46255
-2.43527
-2.40701
-2.37785
-2.34784
-2.31706
-2.28557
-2.25343
-2.22069
-2.18743
-2.15368
-2.1195
-2.08495
-2.05006
-2.0149
-1.9795
-1.94391
-1.90817
-1.87232
-1.83641
-1.80047
-1.76454
-1.72866
-1.69285
-1.65716
-1.62162
-1.58625
-1.55108
-1.51614
-1.48146
-1.44706
-1.41296
-1.37918
-1.34575
-1.31268
-1.27998
-1.24768
-2.31299
-2.31327
-2.31221
-2.30963
-2.30543
-2.29952
-2.29186
-2.28245
-2.27131
-2.25847
-2.244
-2.22796
-2.21042
-2.19148
-2.17121
-2.14969
-2.12701
-2.10326
-2.07851
-2.05284
-2.02632
-1.99902
-1.97102
-1.94238
-1.91316
-1.88341
-1.85321
-1.82261
-1.79165
-1.76039
-1.72889
-1.69718
-1.66532
-1.63334
-1.60129
-1.56922
-1.53714
-1.50512
-1.47316
-1.44132
-1.40962
-1.37809
-1.34675
-1.31564
-1.28476
-1.25416
-1.22385
-1.19384
-1.16416
-1.13482
-1.99261
-1.99634
-1.99871
-1.9996
-1.9989
-1.99656
-1.99253
-1.98681
-1.97943
-1.97041
-1.95981
-1.94768
-1.93411
-1.91916
-1.90292
-1.88546
-1.86686
-1.8472
-1.82656
-1.80501
-1.78262
-1.75947
-1.73562
-1.71114
-1.68608
-1.66051
-1.63448
-1.60805
-1.58126
-1.55417
-1.52683
-1.49927
-1.47155
-1.4437
-1.41577
-1.38778
-1.35978
-1.3318
-1.30386
-1.276
-1.24825
-1.22063
-1.19317
-1.16588
-1.13879
-1.11193
-1.0853
-1.05893
-1.03284
-1.00703
-1.71962
-1.72268
-1.72422
-1.72426
-1.7228
-1.71986
-1.71548
-1.70968
-1.70251
-1.694
-1.68423
-1.67323
-1.66107
-1.64782
-1.63352
-1.61825
-1.60207
-1.58504
-1.56722
-1.54867
-1.52945
-1.50962
-1.48922
-1.46831
-1.44694
-1.42516
-1.40301
-1.38054
-1.35779
-1.3348
-1.3116
-1.28824
-1.26475
-1.24115
-1.2175
-1.1938
-1.17009
-1.1464
-1.12275
-1.09917
-1.07567
-1.05228
-1.02901
-1.00589
-0.982931
-0.960149
-0.937559
-0.915175
-0.89301
-0.871077
-1.46374
-1.46421
-1.46325
-1.46092
-1.45732
-1.45252
-1.44657
-1.43955
-1.43151
-1.42251
-1.4126
-1.40184
-1.39026
-1.37793
-1.3649
-1.3512
-1.33688
-1.32198
-1.30655
-1.29063
-1.27426
-1.25748
-1.24031
-1.22281
-1.20499
-1.1869
-1.16857
-1.15003
-1.1313
-1.11241
-1.09339
-1.07427
-1.05506
-1.0358
-1.0165
-0.997182
-0.977869
-0.958576
-0.939323
-0.920123
-0.900994
-0.88195
-0.863004
-0.844168
-0.825456
-0.806878
-0.788445
-0.770167
-0.752055
-0.734116
-1.23292
-1.23086
-1.22766
-1.2234
-1.21814
-1.21195
-1.2049
-1.19705
-1.18846
-1.17919
-1.16928
-1.15878
-1.14775
-1.13621
-1.12422
-1.1118
-1.09899
-1.08583
-1.07235
-1.05857
-1.04453
-1.03025
-1.01575
-1.00106
-0.986205
-0.971202
-0.956072
-0.940836
-0.925512
-0.910116
-0.894666
-0.879177
-0.863664
-0.848141
-0.832622
-0.817117
-0.801641
-0.786202
-0.770812
-0.755481
-0.740218
-0.72503
-0.709928
-0.694917
-0.680007
-0.665202
-0.650511
-0.635938
-0.621491
-0.607174
-1.0382
-1.03438
-1.02965
-1.02408
-1.01776
-1.01076
-1.00313
-0.994946
-0.98625
-0.977091
-0.967514
-0.957559
-0.947261
-0.936653
-0.925766
-0.914627
-0.903263
-0.891696
-0.879949
-0.868043
-0.855996
-0.843827
-0.831552
-0.819186
-0.806744
-0.794241
-0.781689
-0.7691
-0.756486
-0.743858
-0.731225
-0.718598
-0.705986
-0.693396
-0.680837
-0.668317
-0.655842
-0.643418
-0.631052
-0.61875
-0.606517
-0.594358
-0.582277
-0.570279
-0.558368
-0.546549
-0.534824
-0.523198
-0.511674
-0.500256
-0.903129
-0.89834
-0.892976
-0.887084
-0.880705
-0.873877
-0.866634
-0.859009
-0.851032
-0.842728
-0.834124
-0.825242
-0.816106
-0.806735
-0.797148
-0.787364
-0.777401
-0.767274
-0.757
-0.746593
-0.736068
-0.725437
-0.714716
-0.703915
-0.693047
-0.682125
-0.671158
-0.660158
-0.649135
-0.638099
-0.62706
-0.616027
-0.605008
-0.594012
-0.583047
-0.57212
-0.561239
-0.55041
-0.53964
-0.528936
-0.518301
-0.507743
-0.497267
-0.486875
-0.476574
-0.466367
-0.456259
-0.446251
-0.436349
-0.426555
-0.903677
-0.900785
-0.897289
-0.893216
-0.88859
-0.883435
-0.877772
-0.871623
-0.865008
-0.857947
-0.850459
-0.842563
-0.834278
-0.825622
-0.816613
-0.80727
-0.797612
-0.787655
-0.777419
-0.766921
-0.75618
-0.745213
-0.73404
-0.722678
-0.711145
-0.699458
-0.687637
-0.675698
-0.663659
-0.651538
-0.63935
-0.627114
-0.614845
-0.60256
-0.590274
-0.578002
-0.56576
-0.553562
-0.541421
-0.529352
-0.517366
-0.505475
-0.493692
-0.482026
-0.470489
-0.459089
-0.447836
-0.436737
-0.425802
-0.415036
-1.13415
-1.13695
-1.13872
-1.13949
-1.13928
-1.13809
-1.13595
-1.13287
-1.12888
-1.12398
-1.11821
-1.11157
-1.1041
-1.09581
-1.08673
-1.07688
-1.06629
-1.05499
-1.04301
-1.03037
-1.01712
-1.00327
-0.988868
-0.973944
-0.958533
-0.942672
-0.926394
-0.909738
-0.892738
-0.875432
-0.857857
-0.840049
-0.822045
-0.803881
-0.785593
-0.767217
-0.748787
-0.730337
-0.7119
-0.693508
-0.675193
-0.656984
-0.638909
-0.620998
-0.603276
-0.585769
-0.568501
-0.551495
-0.534773
-0.518356
-1.68143
-1.69691
-1.71057
-1.7224
-1.7324
-1.74056
-1.7469
-1.7514
-1.75409
-1.75496
-1.75403
-1.75132
-1.74684
-1.74064
-1.73272
-1.72314
-1.71192
-1.69911
-1.68475
-1.66891
-1.65162
-1.63295
-1.61296
-1.59172
-1.56928
-1.54572
-1.52111
-1.49551
-1.469
-1.44165
-1.41354
-1.38474
-1.35532
-1.32537
-1.29494
-1.26412
-1.23298
-1.20159
-1.17001
-1.13832
-1.10659
-1.07487
-1.04324
-1.01174
-0.98045
-0.949411
-0.918681
-0.888315
-0.858364
-0.828882
-2.61091
-2.64736
-2.68101
-2.7118
-2.73966
-2.76455
-2.78642
-2.80521
-2.8209
-2.83345
-2.84286
-2.84911
-2.8522
-2.85214
-2.84896
-2.84269
-2.83337
-2.82106
-2.80581
-2.7877
-2.76682
-2.74325
-2.71708
-2.68843
-2.6574
-2.62411
-2.58867
-2.5512
-2.51183
-2.47068
-2.42789
-2.38357
-2.33786
-2.29088
-2.24276
-2.19363
-2.14361
-2.09282
-2.04139
-1.98945
-1.93711
-1.88448
-1.83168
-1.77882
-1.72598
-1.67326
-1.62076
-1.56855
-1.51672
-1.46549
-3.86173
-3.92673
-3.9881
-4.04569
-4.09935
-4.14895
-4.19432
-4.23536
-4.27192
-4.30391
-4.33123
-4.35379
-4.37155
-4.38445
-4.39247
-4.39563
-4.39393
-4.38743
-4.37617
-4.36026
-4.33978
-4.31486
-4.28564
-4.25226
-4.21489
-4.1737
-4.12886
-4.08056
-4.02898
-3.97432
-3.91677
-3.85652
-3.79376
-3.72868
-3.66146
-3.59227
-3.52124
-3.4486
-3.37465
-3.29956
-3.22352
-3.14668
-3.06921
-2.99126
-2.91298
-2.83451
-2.75599
-2.67754
-2.59931
-2.52141
-5.22455
-5.31845
-5.40851
-5.49454
-5.57632
-5.65361
-5.72616
-5.79372
-5.85601
-5.91281
-5.96387
-6.00899
-6.04797
-6.08065
-6.10691
-6.12667
-6.13987
-6.14648
-6.14652
-6.14005
-6.12714
-6.10793
-6.08258
-6.05127
-6.01422
-5.97166
-5.92385
-5.87104
-5.81348
-5.75144
-5.68513
-5.61484
-5.54081
-5.46333
-5.38268
-5.29914
-5.21299
-5.12447
-5.03387
-4.94136
-4.84717
-4.75145
-4.65436
-4.5561
-4.45685
-4.35682
-4.25619
-4.15515
-4.05391
-3.95262
-6.77948
-6.86804
-6.95418
-7.0378
-7.11873
-7.19669
-7.27137
-7.34239
-7.40933
-7.47178
-7.52931
-7.58153
-7.62803
-7.66847
-7.70254
-7.73002
-7.75072
-7.76448
-7.77118
-7.77078
-7.7633
-7.74882
-7.72746
-7.69941
-7.66487
-7.62412
-7.57745
-7.52521
-7.46769
-7.40516
-7.33778
-7.26576
-7.18935
-7.10881
-7.02443
-6.93652
-6.84543
-6.75153
-6.65523
-6.55686
-6.45662
-6.35458
-6.25074
-6.14521
-6.03814
-5.92977
-5.82035
-5.71015
-5.59945
-5.48864
-9.13437
-9.13189
-9.13067
-9.13063
-9.13154
-9.13303
-9.13473
-9.13614
-9.13669
-9.13582
-9.13299
-9.12767
-9.11937
-9.10763
-9.09209
-9.07255
-9.04867
-9.02045
-8.98783
-8.95084
-8.90958
-8.86423
-8.81495
-8.76197
-8.70551
-8.64581
-8.58306
-8.51774
-8.44911
-8.37791
-8.30478
-8.2299
-8.15348
-8.07563
-7.99637
-7.9156
-7.83312
-7.74876
-7.66257
-7.57333
-7.48164
-7.3883
-7.2936
-7.1979
-7.10148
-7.00454
-6.90726
-6.80983
-6.71248
-6.61553
-11.5097
-11.3741
-11.2386
-11.1028
-10.967
-10.8312
-10.6952
-10.5588
-10.4223
-10.2857
-10.1488
-10.0113
-9.8736
-9.73611
-9.5994
-9.46293
-9.32765
-9.19426
-9.06328
-8.93525
-8.81057
-8.6897
-8.57257
-8.45925
-8.3498
-8.24471
-8.14376
-8.04758
-7.95304
-7.86209
-7.77591
-7.695
-7.61992
-7.55096
-7.48781
-7.42937
-7.37453
-7.32203
-7.2709
-7.22076
-7.16384
-7.10423
-7.04398
-6.98426
-6.9255
-6.86824
-6.81287
-6.75955
-6.70837
-6.6593
-10.4871
-10.2525
-10.0144
-9.77447
-9.53435
-9.29556
-9.05889
-8.82533
-8.59602
-8.3719
-8.1534
-7.94132
-7.7355
-7.53443
-7.34078
-7.15601
-6.98072
-6.81484
-6.65748
-6.50763
-6.36773
-6.23717
-6.11514
-5.9997
-5.89208
-5.792
-5.70073
-5.61847
-5.54418
-5.47724
-5.41716
-5.3642
-5.31899
-5.28232
-5.25284
-5.22907
-5.20708
-5.18816
-5.17372
-5.16226
-5.15087
-5.14067
-5.13193
-5.12379
-5.11866
-5.11729
-5.11978
-5.12654
-5.13747
-5.15143
-6.37648
-6.14851
-5.92617
-5.71147
-5.50612
-5.31132
-5.12756
-4.95477
-4.79233
-4.63862
-4.49491
-4.35977
-4.23376
-4.11651
-4.00847
-3.90945
-3.81878
-3.73343
-3.65303
-3.57596
-3.50478
-3.44004
-3.38042
-3.32527
-3.27418
-3.22781
-3.18812
-3.15493
-3.1281
-3.10659
-3.08725
-3.07109
-3.05849
-3.04974
-3.04463
-3.04073
-3.03959
-3.03977
-3.0432
-3.04834
-3.05502
-3.06386
-3.07437
-3.08619
-3.10065
-3.11826
-3.13939
-3.1643
-3.19286
-3.22563
-1.31845
-1.30012
-1.28183
-1.26358
-1.24539
-1.22724
-1.20915
-1.19112
-1.17315
-1.15524
-1.1374
-1.11963
-1.10194
-1.08433
-1.0668
-1.04935
-1.032
-1.01473
-0.997567
-0.980499
-0.963532
-0.946672
-0.929921
-0.913282
-0.896759
-0.880355
-0.864072
-0.847914
-0.831885
-0.815986
-0.800221
-0.784593
-0.769104
-0.753757
-0.738555
-0.723501
-0.708597
-0.693845
-0.679247
-0.664806
-0.650525
-0.636405
-0.622447
-0.608655
-0.595029
-0.581572
-0.568285
-0.55517
-0.542227
-0.529459
-0.516866
-0.50445
-0.492212
-0.480151
-0.46827
-0.456569
-0.445049
-0.433709
-0.422551
-0.411574
-0.40078
-0.390167
-0.379736
-0.369487
-0.35942
-0.349534
-0.339829
-0.330304
-0.32096
-0.311794
-0.302808
-0.293999
-0.285367
-0.276911
-0.26863
-0.260522
-0.252588
-0.244824
-0.237231
-0.229806
-0.222549
-0.215457
-0.208529
-0.201764
-0.195159
-0.188713
-0.182425
-0.176292
-0.170312
-0.164484
-0.158806
-0.153274
-0.147889
-0.142646
-0.137546
-0.132586
-0.127763
-0.123075
-0.11852
-0.114096
-0.1098
-0.105631
-0.101586
-0.0976624
-0.0938583
-0.0901713
-0.0865992
-0.0831395
-0.0797901
-0.0765485
-0.0734126
-0.0703799
-0.0674482
-0.0646152
-0.0618786
-0.0592362
-0.0566857
-0.0542249
-0.0518516
-0.0495634
-0.0473584
-0.0452342
-0.0431888
-0.0412201
-0.0393258
-0.037504
-0.0357527
-0.0340696
-0.032453
-0.0309008
-0.029411
-0.0279819
-0.0266113
-0.0252977
-0.024039
-0.0228335
-0.0216796
-0.0205754
-0.0195192
-0.0185095
-0.0175446
-0.016623
-0.015743
-0.0149032
-0.0141021
-0.0133383
-0.0126103
-0.0119169
-0.0112566
-0.0106282
-0.0100304
-0.009462
-0.0089218
-0.00840865
-0.00792142
-0.00745902
-0.0070204
-0.00660453
-0.00621043
-0.00583715
-0.00548374
-0.00514933
-0.00483304
-0.00453404
-0.00425153
-0.00398473
-0.0037329
-0.00349531
-0.00327128
-0.00306013
-0.00286123
-0.00267397
-0.00249776
-0.00233203
-0.00217623
-0.00202985
-0.0018924
-0.00176339
-0.00164237
-0.00152891
-0.00142258
-0.00132301
-0.0012298
-0.0011426
-0.00106106
-0.000984863
-0.00091369
-0.000847247
-0.000785255
-0.000727446
-0.000673568
-0.00062338
-0.000576657
-0.000533181
-0.00049275
-0.00045517
-0.00042026
-0.000387848
-0.00035777
-0.000329875
-0.000304018
-0.000280062
-0.000257879
-0.00023735
-0.000218361
-0.000200806
-0.000184584
-0.000169603
-0.000155774
-0.000143015
-0.00013125
-0.000120406
-0.000110416
-0.000101217
-9.27503e-05
-8.49617e-05
-7.77998e-05
-7.12172e-05
-6.51696e-05
-5.9616e-05
-5.45181e-05
-4.98404e-05
-4.555e-05
-4.16163e-05
-3.8011e-05
-3.47079e-05
-3.16828e-05
-2.89131e-05
-2.63781e-05
-2.40587e-05
-2.19372e-05
-1.99972e-05
-1.82238e-05
-1.66031e-05
-1.51222e-05
-1.37696e-05
-1.25344e-05
-1.14065e-05
-1.03771e-05
-9.43768e-06
-8.58053e-06
-7.79865e-06
-7.08557e-06
-6.43537e-06
-5.84264e-06
-5.30241e-06
-4.81013e-06
-4.36164e-06
-3.95316e-06
-3.58117e-06
-3.24253e-06
-2.9343e-06
-2.65387e-06
-2.39875e-06
-2.16676e-06
-1.95587e-06
-1.76424e-06
-1.59015e-06
-1.43208e-06
-1.28862e-06
-1.15849e-06
-1.0405e-06
-9.3357e-07
-8.36752e-07
-7.49122e-07
-6.69879e-07
-5.98279e-07
-5.33618e-07
-4.75294e-07
-4.22735e-07
-3.75411e-07
-3.32866e-07
-2.9464e-07
-2.60351e-07
-2.29627e-07
-2.02159e-07
-1.77602e-07
-1.55714e-07
-1.36227e-07
-1.18914e-07
-1.03542e-07
-8.99452e-08
-7.79274e-08
-6.73664e-08
-5.80262e-08
-4.98558e-08
-4.27088e-08
-3.64466e-08
-3.10118e-08
-2.62712e-08
-2.21503e-08
-1.85758e-08
-1.54785e-08
-1.27708e-08
-1.03926e-08
-8.29164e-09
-6.3694e-09
-4.58205e-09
-2.8313e-09
-9.81398e-10
-1.22312
-1.20606
-1.18902
-1.17202
-1.15507
-1.13815
-1.12129
-1.10447
-1.08771
-1.07101
-1.05437
-1.03779
-1.02128
-1.00485
-0.988492
-0.972213
-0.956017
-0.939906
-0.923886
-0.907959
-0.892128
-0.876396
-0.860768
-0.845246
-0.829833
-0.814532
-0.799347
-0.784281
-0.769336
-0.754515
-0.739821
-0.725257
-0.710826
-0.696529
-0.682371
-0.668352
-0.654476
-0.640744
-0.62716
-0.613724
-0.600439
-0.587307
-0.57433
-0.561509
-0.548846
-0.536343
-0.524001
-0.511821
-0.499804
-0.487953
-0.476267
-0.464748
-0.453396
-0.442213
-0.431198
-0.420353
-0.409678
-0.399174
-0.38884
-0.378676
-0.368684
-0.358862
-0.349211
-0.33973
-0.33042
-0.321279
-0.312308
-0.303506
-0.294872
-0.286405
-0.278106
-0.269972
-0.262004
-0.254199
-0.246558
-0.239078
-0.23176
-0.224601
-0.2176
-0.210756
-0.204067
-0.197532
-0.19115
-0.184919
-0.178836
-0.172902
-0.167113
-0.161468
-0.155966
-0.150604
-0.14538
-0.140293
-0.13534
-0.13052
-0.125832
-0.121272
-0.116839
-0.112532
-0.108348
-0.104284
-0.10034
-0.0965119
-0.0927984
-0.0891973
-0.0857064
-0.0823236
-0.0790467
-0.0758736
-0.0728021
-0.0698302
-0.0669555
-0.064176
-0.0614896
-0.0588942
-0.0563876
-0.0539676
-0.0516324
-0.0493797
-0.0472074
-0.0451137
-0.0430964
-0.0411535
-0.039283
-0.037483
-0.0357516
-0.0340868
-0.0324867
-0.0309494
-0.0294731
-0.028056
-0.0266963
-0.0253922
-0.024142
-0.022944
-0.0217964
-0.0206977
-0.0196462
-0.0186404
-0.0176787
-0.0167595
-0.0158814
-0.0150429
-0.0142426
-0.0134791
-0.012751
-0.0120571
-0.011396
-0.0107665
-0.0101672
-0.00959719
-0.00905511
-0.00853989
-0.00805043
-0.00758566
-0.00714455
-0.0067261
-0.00632933
-0.00595332
-0.00559714
-0.00525991
-0.00494079
-0.00463895
-0.0043536
-0.00408397
-0.00382933
-0.00358895
-0.00336217
-0.00314831
-0.00294674
-0.00275685
-0.00257806
-0.00240981
-0.00225154
-0.00210276
-0.00196295
-0.00183165
-0.0017084
-0.00159277
-0.00148434
-0.00138271
-0.00128752
-0.00119838
-0.00111497
-0.00103696
-0.000964025
-0.000895877
-0.000832232
-0.000772822
-0.000717392
-0.000665702
-0.000617523
-0.000572637
-0.000530839
-0.000491936
-0.000455742
-0.000422086
-0.000390802
-0.000361737
-0.000334745
-0.000309688
-0.000286438
-0.000264871
-0.000244876
-0.000226342
-0.000209171
-0.000193268
-0.000178543
-0.000164913
-0.000152302
-0.000140635
-0.000129846
-0.000119871
-0.00011065
-0.000102129
-9.42552e-05
-8.69812e-05
-8.02624e-05
-7.40572e-05
-6.8327e-05
-6.3036e-05
-5.8151e-05
-5.3641e-05
-4.94775e-05
-4.56341e-05
-4.20861e-05
-3.88109e-05
-3.57874e-05
-3.29963e-05
-3.04197e-05
-2.80409e-05
-2.58448e-05
-2.38171e-05
-2.1945e-05
-2.02163e-05
-1.862e-05
-1.7146e-05
-1.57847e-05
-1.45277e-05
-1.33668e-05
-1.22948e-05
-1.13048e-05
-1.03906e-05
-9.54653e-06
-8.76718e-06
-8.04771e-06
-7.38357e-06
-6.77064e-06
-6.20504e-06
-5.68328e-06
-5.20203e-06
-4.75832e-06
-4.34932e-06
-3.97247e-06
-3.62536e-06
-3.3058e-06
-3.01173e-06
-2.74127e-06
-2.49265e-06
-2.26426e-06
-2.05457e-06
-1.8622e-06
-1.68585e-06
-1.52431e-06
-1.37648e-06
-1.24129e-06
-1.1178e-06
-1.00512e-06
-9.02409e-07
-8.08883e-07
-7.23836e-07
-6.46608e-07
-5.76574e-07
-5.13132e-07
-4.55792e-07
-4.04023e-07
-3.57357e-07
-3.15399e-07
-2.77705e-07
-2.43952e-07
-2.13756e-07
-1.86806e-07
-1.62833e-07
-1.41526e-07
-1.22662e-07
-1.05974e-07
-9.12838e-08
-7.83519e-08
-6.70201e-08
-5.71177e-08
-4.84642e-08
-4.09296e-08
-3.43713e-08
-2.86755e-08
-2.36912e-08
-1.93175e-08
-1.54223e-08
-1.18872e-08
-8.57173e-09
-5.30782e-09
-1.89628e-09
-1.11247
-1.09695
-1.08144
-1.06597
-1.05053
-1.03513
-1.01977
-1.00446
-0.989189
-0.973971
-0.958807
-0.943702
-0.928657
-0.913677
-0.898765
-0.883924
-0.869158
-0.854469
-0.839862
-0.825339
-0.810903
-0.796558
-0.782307
-0.768152
-0.754097
-0.740145
-0.726299
-0.712561
-0.698934
-0.685422
-0.672025
-0.658748
-0.645593
-0.632561
-0.619656
-0.60688
-0.594234
-0.581722
-0.569344
-0.557103
-0.545001
-0.53304
-0.52122
-0.509545
-0.498015
-0.486631
-0.475395
-0.464308
-0.453372
-0.442586
-0.431953
-0.421473
-0.411146
-0.400974
-0.390956
-0.381094
-0.371388
-0.361838
-0.352444
-0.343206
-0.334124
-0.325199
-0.31643
-0.307817
-0.299359
-0.291057
-0.282909
-0.274915
-0.267076
-0.259389
-0.251854
-0.244471
-0.237238
-0.230155
-0.223221
-0.216434
-0.209794
-0.203299
-0.196948
-0.19074
-0.184673
-0.178747
-0.172959
-0.167308
-0.161793
-0.156413
-0.151164
-0.146047
-0.141059
-0.136199
-0.131464
-0.126854
-0.122365
-0.117997
-0.113749
-0.109618
-0.105602
-0.1017
-0.0979101
-0.0942296
-0.090657
-0.0871903
-0.0838275
-0.0805668
-0.0774061
-0.0743435
-0.071377
-0.0685047
-0.0657247
-0.0630349
-0.0604334
-0.0579184
-0.0554877
-0.0531396
-0.0508721
-0.0486832
-0.0465712
-0.044534
-0.0425699
-0.0406769
-0.0388533
-0.0370972
-0.0354067
-0.0337803
-0.0322159
-0.030712
-0.0292668
-0.0278786
-0.0265457
-0.0252664
-0.0240392
-0.0228623
-0.0217344
-0.0206537
-0.0196188
-0.0186281
-0.0176802
-0.0167737
-0.0159071
-0.0150791
-0.0142883
-0.0135333
-0.0128129
-0.0121259
-0.0114709
-0.0108468
-0.0102523
-0.00968645
-0.009148
-0.0086359
-0.00814909
-0.00768654
-0.00724726
-0.00683027
-0.00643464
-0.00605946
-0.00570383
-0.00536691
-0.00504788
-0.00474591
-0.00446026
-0.00419016
-0.00393489
-0.00369376
-0.00346611
-0.00325127
-0.00304863
-0.00285759
-0.00267758
-0.00250803
-0.00234843
-0.00219825
-0.00205701
-0.00192425
-0.00179951
-0.00168236
-0.00157239
-0.00146921
-0.00137245
-0.00128174
-0.00119675
-0.00111714
-0.00104262
-0.000972876
-0.000907639
-0.000846639
-0.000789623
-0.000736349
-0.000686592
-0.000640133
-0.00059677
-0.000556307
-0.000518563
-0.000483363
-0.000450546
-0.000419956
-0.00039145
-0.000364889
-0.000340145
-0.000317097
-0.000295631
-0.00027564
-0.000257025
-0.000239691
-0.000223549
-0.000208519
-0.000194522
-0.000181486
-0.000169344
-0.000158034
-0.000147497
-0.000137678
-0.000128526
-0.000119994
-0.000112039
-0.000104619
-9.76958e-05
-9.12353e-05
-8.52043e-05
-7.95726e-05
-7.43122e-05
-6.93971e-05
-6.48031e-05
-6.05081e-05
-5.64915e-05
-5.27341e-05
-4.92184e-05
-4.59281e-05
-4.28479e-05
-3.99641e-05
-3.72635e-05
-3.47344e-05
-3.23655e-05
-3.01466e-05
-2.80682e-05
-2.61214e-05
-2.42979e-05
-2.25902e-05
-2.09911e-05
-1.9494e-05
-1.80927e-05
-1.67813e-05
-1.55546e-05
-1.44075e-05
-1.33352e-05
-1.23332e-05
-1.13975e-05
-1.0524e-05
-9.70918e-06
-8.94943e-06
-8.24148e-06
-7.58227e-06
-6.96886e-06
-6.3985e-06
-5.86858e-06
-5.37662e-06
-4.92029e-06
-4.49739e-06
-4.10584e-06
-3.74364e-06
-3.40895e-06
-3.09998e-06
-2.81508e-06
-2.55265e-06
-2.31122e-06
-2.08937e-06
-1.88577e-06
-1.69917e-06
-1.52838e-06
-1.37229e-06
-1.22986e-06
-1.10008e-06
-9.82023e-07
-8.74815e-07
-7.77631e-07
-6.89707e-07
-6.10299e-07
-5.38748e-07
-4.74386e-07
-4.16644e-07
-3.64944e-07
-3.18773e-07
-2.77638e-07
-2.41082e-07
-2.08698e-07
-1.80064e-07
-1.54823e-07
-1.32651e-07
-1.13209e-07
-9.62069e-08
-8.13636e-08
-6.8433e-08
-5.71488e-08
-4.73026e-08
-3.86313e-08
-3.0914e-08
-2.38838e-08
-1.72793e-08
-1.07406e-08
-3.86874e-09
-0.987342
-0.973656
-0.95999
-0.946348
-0.932733
-0.919147
-0.905593
-0.892076
-0.878597
-0.86516
-0.851768
-0.838423
-0.82513
-0.811891
-0.798709
-0.785587
-0.772528
-0.759536
-0.746612
-0.73376
-0.720984
-0.708285
-0.695667
-0.683132
-0.670683
-0.658324
-0.646055
-0.633881
-0.621804
-0.609825
-0.597948
-0.586175
-0.574509
-0.56295
-0.551503
-0.540168
-0.528947
-0.517843
-0.506858
-0.495993
-0.48525
-0.474631
-0.464136
-0.453768
-0.443529
-0.433418
-0.423437
-0.413589
-0.403872
-0.394289
-0.384841
-0.375527
-0.36635
-0.357308
-0.348404
-0.339636
-0.331007
-0.322515
-0.314162
-0.305947
-0.29787
-0.289931
-0.282131
-0.274469
-0.266944
-0.259557
-0.252306
-0.245193
-0.238215
-0.231374
-0.224666
-0.218094