/*--------------------------------*- C++ -*----------------------------------*\
| =========                 |                                                 |
| \\      /  F ield         | OpenFOAM: The Open Source CFD Toolbox           |
|  \\    /   O peration     | Version:  2.4.0                                 |
|   \\  /    A nd           | Web:      www.OpenFOAM.org                      |
|    \\/     M anipulation  |                                                 |
\*---------------------------------------------------------------------------*/
FoamFile
{
    version     2.0;
    format      ascii;
    class       volScalarField;
    location    "4";
    object      H;
}
// * * * * * * * * * * * * * * * * * * * * * * * * * * * * * * * * * * * * * //

dimensions      [0 2 -2 0 0 0 0];

internalField   nonuniform List<scalar> 
125
(
-20.5524
-20.5823
-20.5727
-20.5657
-20.5293
-19.5996
-19.6299
-19.6224
-19.6146
-19.5773
-18.65
-18.6805
-18.675
-18.6665
-18.6286
-17.7052
-17.7357
-17.732
-17.7229
-17.6846
-16.7665
-16.7969
-16.7947
-16.7852
-16.7468
-15.8352
-15.8653
-15.8646
-15.8547
-15.8165
-14.9126
-14.9423
-14.9428
-14.9327
-14.8948
-13.9998
-14.0289
-14.0305
-14.0202
-13.983
-13.0978
-13.1261
-13.1286
-13.1183
-13.0819
-12.2073
-12.2347
-12.238
-12.2277
-12.1925
-11.3293
-11.3556
-11.3594
-11.3494
-11.3153
-10.4641
-10.4892
-10.4935
-10.4837
-10.4511
-9.61219
-9.63598
-9.64062
-9.63115
-9.60025
-8.77389
-8.79623
-8.80104
-8.79201
-8.76293
-7.94925
-7.97004
-7.97489
-7.96637
-7.93928
-7.13822
-7.15733
-7.16211
-7.15417
-7.12922
-6.34055
-6.3579
-6.36249
-6.3552
-6.33252
-5.55585
-5.57136
-5.57565
-5.56908
-5.54879
-4.78356
-4.79715
-4.80106
-4.79526
-4.77747
-4.02297
-4.03457
-4.03802
-4.03303
-4.01783
-3.27322
-3.28278
-3.28569
-3.28156
-3.26903
-2.53329
-2.54076
-2.54309
-2.53984
-2.53004
-1.80205
-1.80741
-1.8091
-1.80677
-1.79973
-1.07824
-1.08146
-1.08249
-1.08108
-1.07685
-0.360493
-0.361573
-0.361919
-0.361447
-0.360029
)
;

boundaryField
{
    BotWall
    {
        type            zeroGradient;
    }
    FreeStream
    {
        type            zeroGradient;
    }
    FrontNBack
    {
        type            empty;
    }
    LeftSide
    {
        type            symmetryPlane;
    }
    RightSide
    {
        type            symmetryPlane;
    }
    procBoundary3to2
    {
        type            processor;
        value           nonuniform List<scalar> 5(-21.5067 -21.536 -21.5242 -21.5181 -21.4828);
    }
}


// ************************************************************************* //
