/*--------------------------------*- C++ -*----------------------------------*\
| =========                 |                                                 |
| \\      /  F ield         | OpenFOAM: The Open Source CFD Toolbox           |
|  \\    /   O peration     | Version:  2.4.0                                 |
|   \\  /    A nd           | Web:      www.OpenFOAM.org                      |
|    \\/     M anipulation  |                                                 |
\*---------------------------------------------------------------------------*/
FoamFile
{
    version     2.0;
    format      ascii;
    class       volScalarField;
    location    "4";
    object      p;
}
// * * * * * * * * * * * * * * * * * * * * * * * * * * * * * * * * * * * * * //

dimensions      [1 -1 -2 0 0 0 0];

internalField   nonuniform List<scalar> 
125
(
-0.0577036
-0.0577036
-0.0577036
-0.0577036
-0.0577036
-0.0588383
-0.0588383
-0.0588383
-0.0588383
-0.0588383
-0.0599857
-0.0599857
-0.0599857
-0.0599857
-0.0599857
-0.0611459
-0.0611459
-0.0611459
-0.0611459
-0.0611459
-0.0623191
-0.0623191
-0.062319
-0.0623191
-0.0623191
-0.0635053
-0.0635053
-0.0635053
-0.0635053
-0.0635053
-0.0647048
-0.0647048
-0.0647048
-0.0647048
-0.0647048
-0.0659176
-0.0659176
-0.0659176
-0.0659176
-0.0659176
-0.067144
-0.067144
-0.067144
-0.067144
-0.067144
-0.0683841
-0.0683841
-0.0683841
-0.0683841
-0.0683841
-0.069638
-0.069638
-0.069638
-0.069638
-0.069638
-0.0709059
-0.0709059
-0.0709059
-0.0709059
-0.0709059
-0.072188
-0.072188
-0.072188
-0.072188
-0.072188
-0.0734844
-0.0734844
-0.0734843
-0.0734843
-0.0734844
-0.0747952
-0.0747952
-0.0747952
-0.0747952
-0.0747952
-0.0761206
-0.0761206
-0.0761206
-0.0761206
-0.0761206
-0.0774609
-0.0774609
-0.0774609
-0.0774609
-0.0774609
-0.0788161
-0.0788161
-0.0788161
-0.0788161
-0.0788161
-0.0801864
-0.0801864
-0.0801864
-0.0801864
-0.0801864
-0.081572
-0.081572
-0.081572
-0.081572
-0.081572
-0.0829731
-0.0829731
-0.0829731
-0.0829731
-0.0829731
-0.0843898
-0.0843898
-0.0843898
-0.0843898
-0.0843898
-0.0858224
-0.0858224
-0.0858224
-0.0858224
-0.0858224
-0.0872709
-0.0872709
-0.0872709
-0.0872709
-0.0872709
-0.0887355
-0.0887355
-0.0887355
-0.0887355
-0.0887355
)
;

boundaryField
{
    BotWall
    {
        type            calculated;
        value           nonuniform 0();
    }
    FreeStream
    {
        type            calculated;
        value           nonuniform List<scalar> 5(-0.0894719 -0.0894719 -0.0894719 -0.0894719 -0.0894719);
    }
    FrontNBack
    {
        type            empty;
    }
    LeftSide
    {
        type            symmetryPlane;
    }
    RightSide
    {
        type            symmetryPlane;
    }
    procBoundary3to2
    {
        type            processor;
        value           nonuniform List<scalar> 5(-0.0565814 -0.0565814 -0.0565814 -0.0565814 -0.0565814);
    }
}


// ************************************************************************* //
