/*--------------------------------*- C++ -*----------------------------------*\
| =========                 |                                                 |
| \\      /  F ield         | OpenFOAM: The Open Source CFD Toolbox           |
|  \\    /   O peration     | Version:  2.4.0                                 |
|   \\  /    A nd           | Web:      www.OpenFOAM.org                      |
|    \\/     M anipulation  |                                                 |
\*---------------------------------------------------------------------------*/
FoamFile
{
    version     2.0;
    format      ascii;
    class       volScalarField;
    location    "4";
    object      p_rgh;
}
// * * * * * * * * * * * * * * * * * * * * * * * * * * * * * * * * * * * * * //

dimensions      [1 -1 -2 0 0 0 0];

internalField   nonuniform List<scalar> 
125
(
-6.46399e-06
-6.45628e-06
-6.44734e-06
-6.45258e-06
-6.46513e-06
-6.40221e-06
-6.39479e-06
-6.38619e-06
-6.39123e-06
-6.40325e-06
-6.33975e-06
-6.33262e-06
-6.32435e-06
-6.3292e-06
-6.34072e-06
-6.27661e-06
-6.26976e-06
-6.26182e-06
-6.26649e-06
-6.27751e-06
-6.21278e-06
-6.20621e-06
-6.19859e-06
-6.20308e-06
-6.21362e-06
-6.14825e-06
-6.14195e-06
-6.13466e-06
-6.13897e-06
-6.14904e-06
-6.08302e-06
-6.07699e-06
-6.07001e-06
-6.07415e-06
-6.08375e-06
-6.01707e-06
-6.01131e-06
-6.00464e-06
-6.0086e-06
-6.01775e-06
-5.95039e-06
-5.94489e-06
-5.93854e-06
-5.94233e-06
-5.95102e-06
-5.88298e-06
-5.87775e-06
-5.8717e-06
-5.87532e-06
-5.88357e-06
-5.81484e-06
-5.80986e-06
-5.80411e-06
-5.80757e-06
-5.81538e-06
-5.74594e-06
-5.74121e-06
-5.73577e-06
-5.73906e-06
-5.74643e-06
-5.67628e-06
-5.67181e-06
-5.66667e-06
-5.66979e-06
-5.67673e-06
-5.60586e-06
-5.60164e-06
-5.5968e-06
-5.59976e-06
-5.60627e-06
-5.53467e-06
-5.53069e-06
-5.52614e-06
-5.52894e-06
-5.53503e-06
-5.46269e-06
-5.45895e-06
-5.4547e-06
-5.45734e-06
-5.46301e-06
-5.38992e-06
-5.38642e-06
-5.38246e-06
-5.38494e-06
-5.39019e-06
-5.31634e-06
-5.31308e-06
-5.30941e-06
-5.31173e-06
-5.31657e-06
-5.24196e-06
-5.23893e-06
-5.23556e-06
-5.23772e-06
-5.24214e-06
-5.16675e-06
-5.16396e-06
-5.16088e-06
-5.16288e-06
-5.16689e-06
-5.09072e-06
-5.08816e-06
-5.08536e-06
-5.08721e-06
-5.09081e-06
-5.01387e-06
-5.0115e-06
-5.00896e-06
-5.01067e-06
-5.01393e-06
-4.93622e-06
-4.93397e-06
-4.93163e-06
-4.93325e-06
-4.93625e-06
-4.85761e-06
-4.85563e-06
-4.85361e-06
-4.85505e-06
-4.85758e-06
-4.7773e-06
-4.77662e-06
-4.77578e-06
-4.77642e-06
-4.77715e-06
)
;

boundaryField
{
    BotWall
    {
        type            fixedFluxPressure;
        gradient        nonuniform 0();
        value           nonuniform 0();
    }
    FreeStream
    {
        type            totalPressure;
        rho             rho;
        psi             none;
        gamma           1;
        p0              uniform 0;
        value           nonuniform List<scalar> 5(-4.73635e-06 -4.73703e-06 -4.73738e-06 -4.7372e-06 -4.73609e-06);
    }
    FrontNBack
    {
        type            empty;
    }
    LeftSide
    {
        type            symmetryPlane;
    }
    RightSide
    {
        type            symmetryPlane;
    }
    procBoundary3to2
    {
        type            processor;
        value           nonuniform List<scalar> 5(-6.52511e-06 -6.5171e-06 -6.50783e-06 -6.51325e-06 -6.52635e-06);
    }
}


// ************************************************************************* //
