/*--------------------------------*- C++ -*----------------------------------*\
| =========                 |                                                 |
| \\      /  F ield         | OpenFOAM: The Open Source CFD Toolbox           |
|  \\    /   O peration     | Version:  2.4.0                                 |
|   \\  /    A nd           | Web:      www.OpenFOAM.org                      |
|    \\/     M anipulation  |                                                 |
\*---------------------------------------------------------------------------*/
FoamFile
{
    version     2.0;
    format      ascii;
    class       surfaceScalarField;
    location    "4";
    object      phi;
}
// * * * * * * * * * * * * * * * * * * * * * * * * * * * * * * * * * * * * * //

dimensions      [0 3 -1 0 0 0 0];

internalField   nonuniform List<scalar> 
220
(
2.74805e-17
-2.03826e-10
-4.719e-18
-2.03849e-10
-7.46631e-19
-2.03862e-10
1.04748e-18
-2.03853e-10
-2.0382e-10
4.70037e-17
-2.03826e-10
1.0138e-17
-2.03848e-10
-1.25099e-17
-2.03862e-10
-2.17732e-17
-2.03853e-10
-2.0382e-10
6.70062e-17
-2.03826e-10
2.5525e-17
-2.03848e-10
-2.44924e-17
-2.03862e-10
-4.51403e-17
-2.03853e-10
-2.0382e-10
8.73991e-17
-2.03826e-10
4.13641e-17
-2.03848e-10
-3.66437e-17
-2.03862e-10
-6.89498e-17
-2.03853e-10
-2.0382e-10
1.08094e-16
-2.03826e-10
5.75774e-17
-2.03848e-10
-4.89144e-17
-2.03861e-10
-9.30999e-17
-2.03853e-10
-2.0382e-10
1.29004e-16
-2.03826e-10
7.40873e-17
-2.03848e-10
-6.12559e-17
-2.03861e-10
-1.1749e-16
-2.03853e-10
-2.0382e-10
1.50043e-16
-2.03826e-10
9.08163e-17
-2.03848e-10
-7.36207e-17
-2.03861e-10
-1.42021e-16
-2.03853e-10
-2.0382e-10
1.71125e-16
-2.03826e-10
1.07687e-16
-2.03848e-10
-8.5962e-17
-2.03861e-10
-1.66596e-16
-2.03853e-10
-2.0382e-10
1.92167e-16
-2.03827e-10
1.24623e-16
-2.03848e-10
-9.82342e-17
-2.03861e-10
-1.91117e-16
-2.03853e-10
-2.03821e-10
2.13085e-16
-2.03827e-10
1.41547e-16
-2.03848e-10
-1.10392e-16
-2.0386e-10
-2.1549e-16
-2.03853e-10
-2.03821e-10
2.33797e-16
-2.03827e-10
1.58381e-16
-2.03848e-10
-1.22391e-16
-2.0386e-10
-2.39619e-16
-2.03853e-10
-2.03821e-10
2.54221e-16
-2.03827e-10
1.75049e-16
-2.03848e-10
-1.34187e-16
-2.0386e-10
-2.63409e-16
-2.03853e-10
-2.03821e-10
2.74271e-16
-2.03828e-10
1.91471e-16
-2.03848e-10
-1.45735e-16
-2.0386e-10
-2.86764e-16
-2.03852e-10
-2.03822e-10
2.93864e-16
-2.03828e-10
2.07566e-16
-2.03848e-10
-1.56989e-16
-2.03859e-10
-3.09585e-16
-2.03852e-10
-2.03822e-10
3.12912e-16
-2.03828e-10
2.23252e-16
-2.03848e-10
-1.67903e-16
-2.03859e-10
-3.3177e-16
-2.03852e-10
-2.03822e-10
3.31324e-16
-2.03828e-10
2.38442e-16
-2.03848e-10
-1.78427e-16
-2.03858e-10
-3.53213e-16
-2.03852e-10
-2.03823e-10
3.49004e-16
-2.03829e-10
2.53044e-16
-2.03847e-10
-1.88511e-16
-2.03858e-10
-3.73801e-16
-2.03852e-10
-2.03823e-10
3.6585e-16
-2.03829e-10
2.66964e-16
-2.03847e-10
-1.98099e-16
-2.03857e-10
-3.93411e-16
-2.03852e-10
-2.03823e-10
3.81751e-16
-2.0383e-10
2.80097e-16
-2.03847e-10
-2.0713e-16
-2.03857e-10
-4.11913e-16
-2.03851e-10
-2.03824e-10
3.96586e-16
-2.0383e-10
2.92332e-16
-2.03847e-10
-2.15538e-16
-2.03856e-10
-4.29159e-16
-2.03851e-10
-2.03824e-10
4.10223e-16
-2.0383e-10
3.03546e-16
-2.03847e-10
-2.23249e-16
-2.03856e-10
-4.44989e-16
-2.03851e-10
-2.03825e-10
4.22512e-16
-2.03831e-10
3.13603e-16
-2.03847e-10
-2.30181e-16
-2.03855e-10
-4.59217e-16
-2.03851e-10
-2.03825e-10
4.33299e-16
-2.03831e-10
3.22363e-16
-2.03847e-10
-2.36246e-16
-2.03855e-10
-4.71653e-16
-2.0385e-10
-2.03826e-10
4.42464e-16
-2.03832e-10
3.29717e-16
-2.03847e-10
-2.4138e-16
-2.03854e-10
-4.82153e-16
-2.0385e-10
-2.03826e-10
4.49882e-16
3.35469e-16
-2.45423e-16
-4.90588e-16
)
;

boundaryField
{
    BotWall
    {
        type            calculated;
        value           nonuniform 0();
    }
    FreeStream
    {
        type            calculated;
        value           nonuniform List<scalar> 5(-2.03832e-10 -2.03847e-10 -2.03854e-10 -2.0385e-10 -2.03827e-10);
    }
    FrontNBack
    {
        type            empty;
        value           nonuniform 0();
    }
    LeftSide
    {
        type            symmetryPlane;
        value           uniform 0;
    }
    RightSide
    {
        type            symmetryPlane;
        value           uniform 0;
    }
    procBoundary3to2
    {
        type            processor;
        value           nonuniform List<scalar> 5(2.03826e-10 2.03849e-10 2.03862e-10 2.03853e-10 2.0382e-10);
    }
}


// ************************************************************************* //
