/*--------------------------------*- C++ -*----------------------------------*\
| =========                 |                                                 |
| \\      /  F ield         | OpenFOAM: The Open Source CFD Toolbox           |
|  \\    /   O peration     | Version:  2.4.0                                 |
|   \\  /    A nd           | Web:      www.OpenFOAM.org                      |
|    \\/     M anipulation  |                                                 |
\*---------------------------------------------------------------------------*/
FoamFile
{
    version     2.0;
    format      ascii;
    class       volVectorField;
    location    "4";
    object      U;
}
// * * * * * * * * * * * * * * * * * * * * * * * * * * * * * * * * * * * * * //

dimensions      [0 1 -1 0 0 0 0];

internalField   nonuniform List<vector> 
125
(
(6.03569e-09 -0.00101913 0)
(2.7616e-09 -0.00101924 0)
(-4.06248e-09 -0.00101931 0)
(3.7385e-09 -0.00101927 0)
(-3.65852e-09 -0.0010191 0)
(8.03898e-09 -0.00101913 0)
(6.78366e-09 -0.00101924 0)
(-3.4116e-09 -0.00101931 0)
(-5.9854e-10 -0.00101927 0)
(-6.47649e-09 -0.0010191 0)
(1.00264e-08 -0.00101913 0)
(1.08361e-08 -0.00101924 0)
(-2.72987e-09 -0.00101931 0)
(-4.95285e-09 -0.00101927 0)
(-9.28876e-09 -0.0010191 0)
(1.199e-08 -0.00101913 0)
(1.4897e-08 -0.00101924 0)
(-2.02306e-09 -0.00101931 0)
(-9.30228e-09 -0.00101927 0)
(-1.20825e-08 -0.0010191 0)
(1.39219e-08 -0.00101913 0)
(1.89455e-08 -0.00101924 0)
(-1.29677e-09 -0.00101931 0)
(-1.36259e-08 -0.00101927 0)
(-1.48459e-08 -0.0010191 0)
(1.58152e-08 -0.00101913 0)
(2.29619e-08 -0.00101924 0)
(-5.56485e-10 -0.00101931 0)
(-1.79039e-08 -0.00101927 0)
(-1.75676e-08 -0.0010191 0)
(1.76632e-08 -0.00101913 0)
(2.69271e-08 -0.00101924 0)
(1.92506e-10 -0.00101931 0)
(-2.21175e-08 -0.00101927 0)
(-2.02374e-08 -0.0010191 0)
(1.94599e-08 -0.00101913 0)
(3.08235e-08 -0.00101924 0)
(9.45049e-10 -0.00101931 0)
(-2.62489e-08 -0.00101927 0)
(-2.28455e-08 -0.0010191 0)
(2.11996e-08 -0.00101913 0)
(3.46339e-08 -0.00101924 0)
(1.69615e-09 -0.0010193 0)
(-3.02815e-08 -0.00101926 0)
(-2.53827e-08 -0.0010191 0)
(2.28772e-08 -0.00101913 0)
(3.83424e-08 -0.00101924 0)
(2.44094e-09 -0.0010193 0)
(-3.41994e-08 -0.00101926 0)
(-2.78407e-08 -0.0010191 0)
(2.44877e-08 -0.00101913 0)
(4.19335e-08 -0.00101924 0)
(3.17469e-09 -0.0010193 0)
(-3.79876e-08 -0.00101926 0)
(-3.02113e-08 -0.00101911 0)
(2.60267e-08 -0.00101914 0)
(4.53927e-08 -0.00101924 0)
(3.89279e-09 -0.0010193 0)
(-4.16316e-08 -0.00101926 0)
(-3.24871e-08 -0.00101911 0)
(2.74899e-08 -0.00101914 0)
(4.87059e-08 -0.00101924 0)
(4.59071e-09 -0.0010193 0)
(-4.51177e-08 -0.00101926 0)
(-3.46606e-08 -0.00101911 0)
(2.88731e-08 -0.00101914 0)
(5.18592e-08 -0.00101924 0)
(5.26396e-09 -0.0010193 0)
(-4.84323e-08 -0.00101926 0)
(-3.67247e-08 -0.00101911 0)
(3.01723e-08 -0.00101914 0)
(5.48391e-08 -0.00101924 0)
(5.90811e-09 -0.00101929 0)
(-5.1562e-08 -0.00101926 0)
(-3.86721e-08 -0.00101911 0)
(3.13833e-08 -0.00101914 0)
(5.7632e-08 -0.00101924 0)
(6.51873e-09 -0.00101929 0)
(-5.44935e-08 -0.00101926 0)
(-4.04957e-08 -0.00101911 0)
(3.25019e-08 -0.00101914 0)
(6.02241e-08 -0.00101924 0)
(7.09134e-09 -0.00101929 0)
(-5.72129e-08 -0.00101926 0)
(-4.21875e-08 -0.00101911 0)
(3.35235e-08 -0.00101915 0)
(6.26013e-08 -0.00101924 0)
(7.6214e-09 -0.00101929 0)
(-5.97061e-08 -0.00101926 0)
(-4.37396e-08 -0.00101912 0)
(3.44432e-08 -0.00101915 0)
(6.47485e-08 -0.00101924 0)
(8.10421e-09 -0.00101929 0)
(-6.19579e-08 -0.00101926 0)
(-4.5143e-08 -0.00101912 0)
(3.52555e-08 -0.00101915 0)
(6.66501e-08 -0.00101924 0)
(8.53496e-09 -0.00101928 0)
(-6.3952e-08 -0.00101926 0)
(-4.63877e-08 -0.00101912 0)
(3.59541e-08 -0.00101915 0)
(6.82888e-08 -0.00101924 0)
(8.90855e-09 -0.00101928 0)
(-6.56709e-08 -0.00101926 0)
(-4.74629e-08 -0.00101912 0)
(3.65322e-08 -0.00101915 0)
(6.96462e-08 -0.00101923 0)
(9.21967e-09 -0.00101928 0)
(-6.70953e-08 -0.00101925 0)
(-4.83562e-08 -0.00101912 0)
(3.6983e-08 -0.00101916 0)
(7.07042e-08 -0.00101923 0)
(9.46294e-09 -0.00101928 0)
(-6.8206e-08 -0.00101925 0)
(-4.9055e-08 -0.00101913 0)
(3.73007e-08 -0.00101916 0)
(7.14467e-08 -0.00101923 0)
(9.63313e-09 -0.00101927 0)
(-6.8986e-08 -0.00101925 0)
(-4.9548e-08 -0.00101913 0)
(3.74776e-08 -0.00101916 0)
(7.18535e-08 -0.00101923 0)
(9.72438e-09 -0.00101927 0)
(-6.94134e-08 -0.00101925 0)
(-4.98204e-08 -0.00101913 0)
)
;

boundaryField
{
    BotWall
    {
        type            fixedValue;
        value           nonuniform 0();
    }
    FreeStream
    {
        type            zeroGradient;
    }
    FrontNBack
    {
        type            empty;
    }
    LeftSide
    {
        type            symmetryPlane;
    }
    RightSide
    {
        type            symmetryPlane;
    }
    procBoundary3to2
    {
        type            processor;
        value           nonuniform List<vector> 5((4.02522e-09 -0.00101913 0) (-1.20728e-09 -0.00101924 0) (-4.67661e-09 -0.00101931 0) (8.03541e-09 -0.00101927 0) (-8.4805e-10 -0.0010191 0));
    }
}


// ************************************************************************* //
