/*--------------------------------*- C++ -*----------------------------------*\
| =========                 |                                                 |
| \\      /  F ield         | OpenFOAM: The Open Source CFD Toolbox           |
|  \\    /   O peration     | Version:  2.4.0                                 |
|   \\  /    A nd           | Web:      www.OpenFOAM.org                      |
|    \\/     M anipulation  |                                                 |
\*---------------------------------------------------------------------------*/
FoamFile
{
    version     2.0;
    format      ascii;
    class       volScalarField;
    location    "0.004";
    object      H;
}
// * * * * * * * * * * * * * * * * * * * * * * * * * * * * * * * * * * * * * //

dimensions      [0 2 -2 0 0 0 0];

internalField   nonuniform List<scalar> 
125
(
-10288.4
-6385.78
-379.381
-289.93
-291.015
-290.851
-289.49
-286.992
-283.424
-278.856
-273.368
-267.04
-259.957
-252.205
-243.872
-235.046
-225.814
-216.26
-206.467
-196.515
-186.478
-176.428
-166.431
-156.547
-146.832
-137.334
-128.096
-119.157
-110.548
-102.293
-94.4143
-86.9258
-79.8379
-73.1558
-66.8808
-61.0103
-55.5383
-50.4558
-45.7514
-41.4114
-37.4205
-33.762
-30.4183
-27.371
-24.6014
-22.0906
-19.8201
-17.7716
-15.9271
-14.2696
-2.50401e-39
-3.80239e-40
-2.40592e-41
-4.29947e-42
-1.29798e-42
-1.95358e-43
-2.0553e-44
-3.6648e-45
-6.80384e-46
-5.82534e-47
-7.34184e-48
-3.59692e-48
-4.84928e-49
5.39e-50
3.88412e-51
-4.67448e-51
-4.61887e-52
1.23753e-52
8.20572e-54
-5.00827e-54
-3.73026e-55
1.22841e-55
6.10954e-57
-3.74919e-57
-2.18912e-58
7.5971e-59
2.53444e-60
-1.97849e-60
-9.74867e-62
3.14393e-62
5.05692e-64
-7.71079e-64
-3.66132e-65
8.70294e-66
-8.69671e-68
-2.36588e-67
-1.28979e-68
1.38605e-69
-1.21772e-70
-6.22771e-71
-4.43279e-72
-4.27337e-74
-6.15821e-74
-1.54663e-74
-1.43784e-75
-1.12724e-76
-2.23679e-77
-3.81633e-78
-4.20021e-79
-4.52452e-80
-6.54264e-81
-9.1457e-82
-1.07449e-82
-1.25238e-83
-1.60076e-84
-2.01792e-85
-2.3797e-86
-2.78153e-87
-3.3294e-88
-3.94608e-89
-4.5482e-90
-5.19307e-91
-5.936e-92
-6.72389e-93
-7.5038e-94
-8.29655e-95
-9.11829e-96
-9.93237e-97
-1.07041e-97
-1.14314e-98
-1.21103e-99
-1.27166e-100
-1.32302e-101
-1.37184e-102
-1.79875e-103
)
;

boundaryField
{
    BotWall
    {
        type            zeroGradient;
    }
    FreeStream
    {
        type            zeroGradient;
    }
    FrontNBack
    {
        type            empty;
    }
    LeftSide
    {
        type            symmetryPlane;
    }
    RightSide
    {
        type            symmetryPlane;
    }
    procBoundary2to0
    {
        type            processor;
        value           nonuniform List<scalar> 
75
(
-4.26446e-33
-5.99329e-34
-8.72449e-35
-1.25571e-35
-1.73296e-36
-2.37165e-37
-3.33485e-38
-4.70717e-39
-6.435e-40
-8.62307e-41
-1.17283e-41
-1.61246e-42
-2.17243e-43
-2.86382e-44
-3.78939e-45
-5.05821e-46
-6.67619e-47
-8.65865e-48
-1.11951e-48
-1.45241e-49
-1.87188e-50
-2.38295e-51
-3.01568e-52
-3.81188e-53
-4.79382e-54
-5.97672e-55
-7.40353e-56
-9.13543e-57
-1.12162e-57
-1.36783e-58
-1.65776e-59
-1.99899e-60
-2.39782e-61
-2.8592e-62
-3.3894e-63
-3.99609e-64
-4.6859e-65
-5.46392e-66
-6.33531e-67
-7.3054e-68
-8.37818e-69
-9.55574e-70
-1.0839e-70
-1.22278e-71
-1.37198e-72
-1.53103e-73
-1.69926e-74
-1.87578e-75
-2.05945e-76
-2.24884e-77
-2.44234e-78
-2.63806e-79
-2.83393e-80
-3.02764e-81
-3.21678e-82
-3.39878e-83
-3.57102e-84
-3.73089e-85
-3.87579e-86
-4.00327e-87
-4.11106e-88
-4.19712e-89
-4.25974e-90
-4.29758e-91
-4.3097e-92
-4.29563e-93
-4.25538e-94
-4.18944e-95
-4.09879e-96
-3.98486e-97
-3.8495e-98
-3.69496e-99
-3.5239e-100
-3.34947e-101
-3.83637e-102
)
;
    }
    procBoundary2to1
    {
        type            processor;
        value           uniform -12.783;
    }
    procBoundary2to3
    {
        type            processor;
        value           uniform -3.22683e-32;
    }
    procBoundary2to4
    {
        type            processor;
        value           nonuniform List<scalar> 
75
(
-10275.5
-6347.78
-355.005
-270.753
-271.805
-271.761
-270.664
-268.564
-265.515
-261.577
-256.816
-251.3
-245.098
-238.285
-230.933
-223.118
-214.912
-206.39
-197.622
-188.677
-179.62
-170.515
-161.42
-152.39
-143.474
-134.717
-126.161
-117.842
-109.789
-102.029
-94.5838
-87.4694
-80.6987
-74.28
-68.218
-62.5138
-57.1655
-52.1682
-47.5146
-43.1953
-39.1989
-35.5128
-32.1228
-29.0143
-26.1716
-23.5789
-21.2203
-19.0797
-17.1413
-15.3898
-1.99077e-86
-2.39462e-87
-1.39025e-88
-2.77362e-89
-4.54082e-90
-3.01211e-91
-8.34959e-92
-1.79635e-92
4.64802e-94
1.93229e-94
-7.03533e-95
-9.2602e-96
1.29269e-96
8.27131e-98
-4.31899e-98
-2.43031e-99
6.1236e-100
-5.08859e-102
-1.46222e-101
-2.5919e-103
1.34981e-103
-1.00506e-104
-3.07383e-105
-1.3709e-107
1.05225e-107
)
;
    }
    procBoundary2to5
    {
        type            processor;
        value           nonuniform List<scalar> 
50
(
-2.78799e-33
-3.86201e-34
-5.57208e-35
-8.49786e-36
-1.26256e-36
-1.7731e-37
-2.47147e-38
-3.56415e-39
-5.16072e-40
-7.21206e-41
-9.86541e-42
-1.36631e-42
-1.90617e-43
-2.6103e-44
-3.509e-45
-4.71591e-46
-6.35121e-47
-8.46873e-48
-1.11486e-48
-1.45988e-49
-1.90688e-50
-2.47387e-51
-3.18088e-52
-4.06326e-53
-5.16515e-54
-6.52669e-55
-8.18929e-56
-1.0209e-56
-1.26543e-57
-1.55937e-58
-1.90966e-59
-2.32425e-60
-2.81227e-61
-3.38311e-62
-4.04589e-63
-4.81005e-64
-5.6855e-65
-6.68194e-66
-7.80821e-67
-9.07217e-68
-1.04809e-68
-1.20402e-69
-1.37535e-70
-1.56222e-71
-1.76448e-72
-1.98173e-73
-2.21319e-74
-2.45769e-75
-2.71238e-76
-2.90324e-77
)
;
    }
}


// ************************************************************************* //
