/*--------------------------------*- C++ -*----------------------------------*\
| =========                 |                                                 |
| \\      /  F ield         | OpenFOAM: The Open Source CFD Toolbox           |
|  \\    /   O peration     | Version:  2.4.0                                 |
|   \\  /    A nd           | Web:      www.OpenFOAM.org                      |
|    \\/     M anipulation  |                                                 |
\*---------------------------------------------------------------------------*/
FoamFile
{
    version     2.0;
    format      ascii;
    class       surfaceScalarField;
    location    "0.012";
    object      phi;
}
// * * * * * * * * * * * * * * * * * * * * * * * * * * * * * * * * * * * * * //

dimensions      [0 3 -1 0 0 0 0];

internalField   nonuniform List<scalar> 
123
(
1.83203e-16
7.90236e-16
1.79914e-15
-4.47087e-09
-4.47086e-09
-4.47086e-09
-4.47086e-09
-4.47085e-09
-4.47085e-09
-4.47084e-09
-4.47083e-09
-4.47082e-09
-4.47081e-09
-4.4708e-09
-4.47079e-09
-4.47078e-09
-4.47077e-09
-4.47075e-09
-4.47074e-09
-4.47073e-09
-4.47071e-09
-4.4707e-09
-4.47068e-09
-4.47066e-09
-4.46756e-09
-4.46756e-09
-4.46756e-09
-4.46756e-09
-4.46757e-09
-4.46757e-09
-4.46757e-09
-4.46757e-09
-4.46757e-09
-4.46758e-09
-4.46758e-09
-4.46758e-09
-4.46758e-09
-4.46758e-09
-4.46758e-09
-4.46758e-09
-4.46759e-09
-4.46759e-09
-4.46759e-09
-4.46759e-09
-4.46759e-09
-4.46759e-09
-4.46759e-09
-4.46759e-09
-4.46759e-09
-4.46759e-09
-4.46759e-09
-4.46759e-09
-4.46759e-09
-4.46758e-09
-4.46758e-09
-4.46758e-09
-4.46758e-09
-4.46758e-09
-4.46758e-09
-4.46757e-09
-4.46757e-09
-4.46757e-09
-4.46757e-09
-4.46756e-09
-4.46756e-09
-4.46756e-09
-4.46755e-09
-4.46755e-09
-4.46755e-09
-4.46754e-09
-4.46754e-09
-4.46753e-09
-4.46753e-09
-4.46752e-09
-4.46752e-09
-4.46751e-09
-4.46751e-09
-4.4675e-09
-4.46749e-09
-4.46749e-09
-4.46748e-09
-4.46747e-09
-4.46747e-09
-4.46746e-09
-4.46745e-09
-4.46744e-09
-4.46743e-09
-4.46743e-09
-4.46742e-09
-4.46741e-09
-4.4674e-09
-4.46739e-09
-4.46738e-09
-4.46737e-09
-4.46736e-09
-4.46735e-09
-4.46734e-09
-4.46732e-09
-4.46731e-09
-4.4673e-09
-4.46729e-09
-4.46728e-09
-4.46726e-09
-4.46725e-09
-4.46724e-09
-4.46722e-09
-4.46721e-09
-4.4672e-09
-4.46718e-09
-4.46717e-09
-4.46716e-09
-4.46714e-09
-4.46713e-09
-4.46711e-09
-4.4671e-09
-4.46708e-09
-4.46707e-09
-4.46705e-09
-4.46704e-09
-4.46702e-09
-4.46701e-09
-4.46699e-09
-4.46698e-09
)
;

boundaryField
{
    BotWall
    {
        type            calculated;
        value           uniform 0;
    }
    FreeStream
    {
        type            calculated;
        value           uniform -4.46696e-09;
    }
    FrontNBack
    {
        type            empty;
        value           nonuniform 0();
    }
    LeftSide
    {
        type            symmetryPlane;
        value           nonuniform 0();
    }
    RightSide
    {
        type            symmetryPlane;
        value           nonuniform 0();
    }
    procBoundary7to4
    {
        type            processor;
        value           nonuniform List<scalar> 
50
(
-2.65609e-17
-8.01021e-17
-1.33714e-16
-2.02983e-16
-2.09217e-16
-2.01069e-16
-2.15482e-16
-2.32224e-16
-2.48973e-16
-2.65181e-16
-2.81155e-16
-2.96959e-16
-3.12533e-16
-3.27804e-16
-3.42709e-16
-3.57198e-16
-3.71228e-16
-3.8476e-16
-3.97761e-16
-4.10202e-16
-4.22061e-16
-4.33319e-16
-4.43961e-16
-4.53978e-16
-4.63365e-16
-8.87584e-15
-9.11315e-15
-9.34345e-15
-9.56623e-15
-9.78101e-15
-9.98737e-15
-1.01849e-14
-1.03734e-14
-1.05525e-14
-1.07221e-14
-1.08819e-14
-1.10321e-14
-1.11726e-14
-1.13034e-14
-1.14249e-14
-1.15371e-14
-1.16404e-14
-1.17352e-14
-1.18218e-14
-1.19008e-14
-1.19727e-14
-1.20379e-14
-1.2097e-14
-1.21509e-14
-1.2194e-14
)
;
    }
    procBoundary7to5
    {
        type            processor;
        value           nonuniform List<scalar> 
75
(
4.28841e-15
4.2227e-15
4.156e-15
4.0882e-15
4.01921e-15
3.94893e-15
3.87725e-15
3.80407e-15
3.72927e-15
3.65276e-15
3.5744e-15
3.4941e-15
3.41174e-15
3.32719e-15
3.24034e-15
3.15107e-15
3.05926e-15
2.96479e-15
2.86755e-15
2.7674e-15
2.66423e-15
2.55793e-15
2.44837e-15
2.33544e-15
2.21903e-15
2.09901e-15
1.97529e-15
1.84774e-15
1.71627e-15
1.58078e-15
1.44116e-15
1.29732e-15
1.14917e-15
9.96631e-16
8.39607e-16
6.78025e-16
5.11812e-16
3.409e-16
1.65227e-16
-1.52595e-17
-2.00443e-16
-3.90518e-16
-5.85506e-16
-7.8542e-16
-9.9026e-16
-1.20002e-15
-1.41467e-15
-1.63418e-15
-1.8585e-15
-2.08755e-15
-2.32123e-15
-2.55945e-15
-2.80207e-15
-3.04892e-15
-3.29984e-15
-3.5546e-15
-3.81298e-15
-4.0747e-15
-4.33947e-15
-4.60696e-15
-4.87682e-15
-5.14864e-15
-5.42201e-15
-5.69646e-15
-5.97153e-15
-6.24668e-15
-6.52139e-15
-6.79509e-15
-7.06719e-15
-7.3371e-15
-7.60419e-15
-7.86786e-15
-8.12747e-15
-8.38242e-15
-8.63207e-15
)
;
    }
    procBoundary7to6
    {
        type            processor;
        value           uniform -4.47065e-09;
    }
    procBoundary7to8
    {
        type            processor;
        value           uniform 4.46755e-09;
    }
    procBoundary7to9
    {
        type            processor;
        value           nonuniform List<scalar> 
75
(
-1.56642e-16
-5.2693e-16
-8.75191e-16
-1.62217e-15
-1.66604e-15
-2.45624e-15
-3.58851e-15
-4.66511e-15
-5.67079e-15
-6.62513e-15
-7.53995e-15
-8.41698e-15
-9.25615e-15
-1.00578e-14
-1.08228e-14
-1.15517e-14
-1.22455e-14
-1.29049e-14
-1.35306e-14
-1.41235e-14
-1.46842e-14
-1.52136e-14
-1.57125e-14
-1.61816e-14
-1.66216e-14
-3.01477e-15
-3.02209e-15
-3.0284e-15
-3.03371e-15
-3.03807e-15
-3.04151e-15
-3.04408e-15
-3.04581e-15
-3.04676e-15
-3.04697e-15
-3.0465e-15
-3.04541e-15
-3.04374e-15
-3.04157e-15
-3.03896e-15
-3.03596e-15
-3.03265e-15
-3.02909e-15
-3.02536e-15
-3.02152e-15
-3.01764e-15
-3.01379e-15
-3.01004e-15
-3.00647e-15
-3.00312e-15
-3.00008e-15
-2.99739e-15
-2.99512e-15
-2.99332e-15
-2.99204e-15
-2.99133e-15
-2.99122e-15
-2.99175e-15
-2.99296e-15
-2.99485e-15
-2.99746e-15
-3.00078e-15
-3.00483e-15
-3.0096e-15
-3.01509e-15
-3.02127e-15
-3.02814e-15
-3.03565e-15
-3.0438e-15
-3.05253e-15
-3.06182e-15
-3.07158e-15
-3.08172e-15
-3.09244e-15
-3.09914e-15
)
;
    }
    procBoundary7to10
    {
        type            processor;
        value           nonuniform List<scalar> 
50
(
-1.39725e-15
-1.44426e-15
-1.49116e-15
-1.53792e-15
-1.58451e-15
-1.63091e-15
-1.67709e-15
-1.72301e-15
-1.76864e-15
-1.81396e-15
-1.85892e-15
-1.9035e-15
-1.94767e-15
-1.99138e-15
-2.03461e-15
-2.07732e-15
-2.11947e-15
-2.16103e-15
-2.20197e-15
-2.24225e-15
-2.28183e-15
-2.32068e-15
-2.35876e-15
-2.39605e-15
-2.43251e-15
-2.46811e-15
-2.50281e-15
-2.53659e-15
-2.56942e-15
-2.60127e-15
-2.63211e-15
-2.66192e-15
-2.69068e-15
-2.71837e-15
-2.74496e-15
-2.77044e-15
-2.79479e-15
-2.81801e-15
-2.84007e-15
-2.86098e-15
-2.88072e-15
-2.8993e-15
-2.91671e-15
-2.93295e-15
-2.94803e-15
-2.96196e-15
-2.97474e-15
-2.9864e-15
-2.99694e-15
-3.00639e-15
)
;
    }
}


// ************************************************************************* //
