/*--------------------------------*- C++ -*----------------------------------*\
| =========                 |                                                 |
| \\      /  F ield         | OpenFOAM: The Open Source CFD Toolbox           |
|  \\    /   O peration     | Version:  2.4.0                                 |
|   \\  /    A nd           | Web:      www.OpenFOAM.org                      |
|    \\/     M anipulation  |                                                 |
\*---------------------------------------------------------------------------*/
FoamFile
{
    version     2.0;
    format      ascii;
    class       volVectorField;
    location    "0.004";
    object      U;
}
// * * * * * * * * * * * * * * * * * * * * * * * * * * * * * * * * * * * * * //

dimensions      [0 1 -1 0 0 0 0];

internalField   nonuniform List<vector> 
125
(
(2.81971e-05 -0.0257508 0)
(2.79066e-05 -0.0257508 0)
(2.76165e-05 -0.0257508 0)
(2.73268e-05 -0.0257508 0)
(2.70376e-05 -0.0257508 0)
(2.67488e-05 -0.0257507 0)
(2.64606e-05 -0.0257507 0)
(2.6173e-05 -0.0257507 0)
(2.5886e-05 -0.0257507 0)
(2.55996e-05 -0.0257507 0)
(2.5314e-05 -0.0257506 0)
(2.50291e-05 -0.0257506 0)
(2.47451e-05 -0.0257506 0)
(2.44619e-05 -0.0257506 0)
(2.41795e-05 -0.0257506 0)
(2.38981e-05 -0.0257505 0)
(2.36177e-05 -0.0257505 0)
(2.33383e-05 -0.0257505 0)
(2.306e-05 -0.0257505 0)
(2.27827e-05 -0.0257505 0)
(2.25067e-05 -0.0257504 0)
(2.22318e-05 -0.0257504 0)
(2.19582e-05 -0.0257504 0)
(2.16858e-05 -0.0257504 0)
(2.14147e-05 -0.0257504 0)
(2.1145e-05 -0.0257503 0)
(2.08767e-05 -0.0257503 0)
(2.06098e-05 -0.0257503 0)
(2.03443e-05 -0.0257503 0)
(2.00803e-05 -0.0257503 0)
(1.98178e-05 -0.0257503 0)
(1.95568e-05 -0.0257502 0)
(1.92974e-05 -0.0257502 0)
(1.90396e-05 -0.0257502 0)
(1.87834e-05 -0.0257502 0)
(1.85288e-05 -0.0257502 0)
(1.82759e-05 -0.0257501 0)
(1.80246e-05 -0.0257501 0)
(1.7775e-05 -0.0257501 0)
(1.7527e-05 -0.0257501 0)
(1.72808e-05 -0.0257501 0)
(1.70363e-05 -0.0257501 0)
(1.67934e-05 -0.0257501 0)
(1.65523e-05 -0.02575 0)
(1.63129e-05 -0.02575 0)
(1.60753e-05 -0.02575 0)
(1.58394e-05 -0.02575 0)
(1.56052e-05 -0.02575 0)
(1.53727e-05 -0.02575 0)
(1.51419e-05 -0.02575 0)
(1.49129e-05 -0.0257499 0)
(1.46856e-05 -0.0257499 0)
(1.446e-05 -0.0257499 0)
(1.42361e-05 -0.0257499 0)
(1.40138e-05 -0.0257499 0)
(1.37933e-05 -0.0257499 0)
(1.35745e-05 -0.0257499 0)
(1.33574e-05 -0.0257499 0)
(1.31419e-05 -0.0257498 0)
(1.29281e-05 -0.0257498 0)
(1.27159e-05 -0.0257498 0)
(1.25054e-05 -0.0257498 0)
(1.22966e-05 -0.0257498 0)
(1.20894e-05 -0.0257498 0)
(1.18838e-05 -0.0257498 0)
(1.16798e-05 -0.0257498 0)
(1.14775e-05 -0.0257498 0)
(1.12768e-05 -0.0257498 0)
(1.10777e-05 -0.0257498 0)
(1.08803e-05 -0.0257497 0)
(1.06844e-05 -0.0257497 0)
(1.04902e-05 -0.0257497 0)
(1.02976e-05 -0.0257497 0)
(1.01066e-05 -0.0257497 0)
(9.91714e-06 -0.0257497 0)
(9.72934e-06 -0.0257497 0)
(9.54314e-06 -0.0257497 0)
(9.35855e-06 -0.0257497 0)
(9.17556e-06 -0.0257497 0)
(8.99416e-06 -0.0257497 0)
(8.81436e-06 -0.0257497 0)
(8.63615e-06 -0.0257497 0)
(8.45953e-06 -0.0257497 0)
(8.28449e-06 -0.0257497 0)
(8.11102e-06 -0.0257497 0)
(7.93912e-06 -0.0257497 0)
(7.76878e-06 -0.0257497 0)
(7.59998e-06 -0.0257497 0)
(7.43271e-06 -0.0257497 0)
(7.26696e-06 -0.0257497 0)
(7.1027e-06 -0.0257497 0)
(6.93993e-06 -0.0257497 0)
(6.77861e-06 -0.0257497 0)
(6.61872e-06 -0.0257497 0)
(6.46023e-06 -0.0257497 0)
(6.30312e-06 -0.0257497 0)
(6.14735e-06 -0.0257497 0)
(5.99288e-06 -0.0257497 0)
(5.83967e-06 -0.0257497 0)
(5.68768e-06 -0.0257497 0)
(5.53687e-06 -0.0257497 0)
(5.38718e-06 -0.0257497 0)
(5.23857e-06 -0.0257497 0)
(5.09099e-06 -0.0257497 0)
(4.94437e-06 -0.0257497 0)
(4.79867e-06 -0.0257497 0)
(4.65381e-06 -0.0257497 0)
(4.50974e-06 -0.0257497 0)
(4.36639e-06 -0.0257497 0)
(4.2237e-06 -0.0257497 0)
(4.0816e-06 -0.0257497 0)
(3.94003e-06 -0.0257497 0)
(3.79892e-06 -0.0257497 0)
(3.65822e-06 -0.0257497 0)
(3.51785e-06 -0.0257498 0)
(3.37776e-06 -0.0257498 0)
(3.2379e-06 -0.0257498 0)
(3.09822e-06 -0.0257498 0)
(2.95867e-06 -0.0257498 0)
(2.81922e-06 -0.0257498 0)
(2.67983e-06 -0.0257498 0)
(2.54051e-06 -0.0257498 0)
(2.40123e-06 -0.0257498 0)
(2.26201e-06 -0.0257498 0)
(2.12288e-06 -0.0257499 0)
)
;

boundaryField
{
    BotWall
    {
        type            fixedValue;
        value           nonuniform 0();
    }
    FreeStream
    {
        type            zeroGradient;
    }
    FrontNBack
    {
        type            empty;
    }
    LeftSide
    {
        type            symmetryPlane;
    }
    RightSide
    {
        type            symmetryPlane;
    }
    procBoundary10to7
    {
        type            processor;
        value           nonuniform List<vector> 
50
(
(-8.52493e-06 -0.0257421 0)
(-8.41336e-06 -0.0257422 0)
(-8.3029e-06 -0.0257423 0)
(-8.19351e-06 -0.0257424 0)
(-8.08517e-06 -0.0257425 0)
(-7.97786e-06 -0.0257426 0)
(-7.87154e-06 -0.0257426 0)
(-7.76621e-06 -0.0257427 0)
(-7.66185e-06 -0.0257428 0)
(-7.55845e-06 -0.0257429 0)
(-7.45598e-06 -0.0257429 0)
(-7.35445e-06 -0.025743 0)
(-7.25384e-06 -0.0257431 0)
(-7.15415e-06 -0.0257432 0)
(-7.05537e-06 -0.0257432 0)
(-6.95751e-06 -0.0257433 0)
(-6.86057e-06 -0.0257434 0)
(-6.76455e-06 -0.0257434 0)
(-6.66945e-06 -0.0257435 0)
(-6.57528e-06 -0.0257436 0)
(-6.48204e-06 -0.0257436 0)
(-6.38974e-06 -0.0257437 0)
(-6.29839e-06 -0.0257438 0)
(-6.208e-06 -0.0257438 0)
(-6.11856e-06 -0.0257439 0)
(-6.03008e-06 -0.0257439 0)
(-5.94258e-06 -0.025744 0)
(-5.85604e-06 -0.025744 0)
(-5.77048e-06 -0.0257441 0)
(-5.68589e-06 -0.0257441 0)
(-5.60226e-06 -0.0257442 0)
(-5.5196e-06 -0.0257442 0)
(-5.43789e-06 -0.0257443 0)
(-5.35711e-06 -0.0257443 0)
(-5.27727e-06 -0.0257444 0)
(-5.19833e-06 -0.0257444 0)
(-5.12028e-06 -0.0257445 0)
(-5.04309e-06 -0.0257445 0)
(-4.96675e-06 -0.0257446 0)
(-4.89122e-06 -0.0257446 0)
(-4.81647e-06 -0.0257447 0)
(-4.74249e-06 -0.0257447 0)
(-4.66923e-06 -0.0257447 0)
(-4.59668e-06 -0.0257448 0)
(-4.52479e-06 -0.0257448 0)
(-4.45356e-06 -0.0257448 0)
(-4.38296e-06 -0.0257449 0)
(-4.31297e-06 -0.0257449 0)
(-4.24358e-06 -0.0257449 0)
(-4.17478e-06 -0.025745 0)
)
;
    }
    procBoundary10to8
    {
        type            processor;
        value           nonuniform List<vector> 
75
(
(-2.23782e-05 -0.0257317 0)
(-2.21003e-05 -0.0257319 0)
(-2.18252e-05 -0.0257321 0)
(-2.1553e-05 -0.0257323 0)
(-2.12837e-05 -0.0257325 0)
(-2.10172e-05 -0.0257327 0)
(-2.07535e-05 -0.0257329 0)
(-2.04927e-05 -0.0257331 0)
(-2.02347e-05 -0.0257333 0)
(-1.99795e-05 -0.0257334 0)
(-1.97272e-05 -0.0257336 0)
(-1.94777e-05 -0.0257338 0)
(-1.9231e-05 -0.025734 0)
(-1.89871e-05 -0.0257342 0)
(-1.8746e-05 -0.0257343 0)
(-1.85077e-05 -0.0257345 0)
(-1.82721e-05 -0.0257347 0)
(-1.80393e-05 -0.0257348 0)
(-1.78092e-05 -0.025735 0)
(-1.75818e-05 -0.0257352 0)
(-1.73572e-05 -0.0257353 0)
(-1.71352e-05 -0.0257355 0)
(-1.69159e-05 -0.0257357 0)
(-1.66992e-05 -0.0257358 0)
(-1.64851e-05 -0.025736 0)
(-1.62736e-05 -0.0257362 0)
(-1.60648e-05 -0.0257363 0)
(-1.58585e-05 -0.0257365 0)
(-1.56547e-05 -0.0257366 0)
(-1.54535e-05 -0.0257368 0)
(-1.52547e-05 -0.0257369 0)
(-1.50585e-05 -0.0257371 0)
(-1.48647e-05 -0.0257372 0)
(-1.46734e-05 -0.0257374 0)
(-1.44845e-05 -0.0257375 0)
(-1.4298e-05 -0.0257376 0)
(-1.41139e-05 -0.0257378 0)
(-1.39322e-05 -0.0257379 0)
(-1.37528e-05 -0.0257381 0)
(-1.35758e-05 -0.0257382 0)
(-1.34011e-05 -0.0257383 0)
(-1.32286e-05 -0.0257385 0)
(-1.30585e-05 -0.0257386 0)
(-1.28905e-05 -0.0257387 0)
(-1.27248e-05 -0.0257388 0)
(-1.25613e-05 -0.025739 0)
(-1.24e-05 -0.0257391 0)
(-1.22408e-05 -0.0257392 0)
(-1.20838e-05 -0.0257393 0)
(-1.19288e-05 -0.0257395 0)
(-1.17759e-05 -0.0257396 0)
(-1.16251e-05 -0.0257397 0)
(-1.14762e-05 -0.0257398 0)
(-1.13293e-05 -0.0257399 0)
(-1.11844e-05 -0.0257401 0)
(-1.10414e-05 -0.0257402 0)
(-1.09003e-05 -0.0257403 0)
(-1.0761e-05 -0.0257404 0)
(-1.06235e-05 -0.0257405 0)
(-1.04877e-05 -0.0257406 0)
(-1.03537e-05 -0.0257407 0)
(-1.02214e-05 -0.0257408 0)
(-1.00908e-05 -0.0257409 0)
(-9.96175e-06 -0.025741 0)
(-9.83428e-06 -0.0257411 0)
(-9.70836e-06 -0.0257412 0)
(-9.58392e-06 -0.0257413 0)
(-9.46095e-06 -0.0257414 0)
(-9.33938e-06 -0.0257415 0)
(-9.2192e-06 -0.0257416 0)
(-9.10035e-06 -0.0257417 0)
(-8.98281e-06 -0.0257418 0)
(-8.86653e-06 -0.0257419 0)
(-8.75148e-06 -0.025742 0)
(-8.63762e-06 -0.0257421 0)
)
;
    }
    procBoundary10to9
    {
        type            processor;
        value           uniform (1.98387e-06 -0.0257499 0);
    }
    procBoundary10to11
    {
        type            processor;
        value           uniform (2.84879e-05 -0.0257509 0);
    }
}


// ************************************************************************* //
