/*--------------------------------*- C++ -*----------------------------------*\
| =========                 |                                                 |
| \\      /  F ield         | OpenFOAM: The Open Source CFD Toolbox           |
|  \\    /   O peration     | Version:  2.4.0                                 |
|   \\  /    A nd           | Web:      www.OpenFOAM.org                      |
|    \\/     M anipulation  |                                                 |
\*---------------------------------------------------------------------------*/
FoamFile
{
    version     2.0;
    format      ascii;
    class       volScalarField;
    location    "0.014";
    object      p_rgh;
}
// * * * * * * * * * * * * * * * * * * * * * * * * * * * * * * * * * * * * * //

dimensions      [1 -1 -2 0 0 0 0];

internalField   nonuniform List<scalar> 
125
(
0.0336719
0.0456587
0.0152817
0.0796582
-0.441378
-0.0561771
0.016727
0.004766
-0.00467692
-0.00651433
-0.0060434
-0.00567342
-0.00559612
-0.0056056
-0.00561069
-0.00560438
-0.00559472
-0.00558521
-0.00557612
-0.00556711
-0.00555807
-0.00554897
-0.00553984
-0.00553067
-0.00552147
-0.00551224
-0.00550297
-0.00549367
-0.00548433
-0.00547496
-0.00546556
-0.00545612
-0.00544665
-0.00543714
-0.0054276
-0.00541802
-0.00540841
-0.00539876
-0.00538907
-0.00537936
-0.0053696
-0.00535981
-0.00534998
-0.00534012
-0.00533022
-0.00532029
-0.00531032
-0.00530031
-0.00529025
-0.00528016
-0.00277788
-0.0027586
-0.00273925
-0.00271983
-0.00270035
-0.00268079
-0.00266116
-0.00264146
-0.00262168
-0.00260183
-0.00258191
-0.00256192
-0.00254185
-0.00252171
-0.00250149
-0.00248121
-0.00246084
-0.0024404
-0.00241989
-0.0023993
-0.00237863
-0.00235789
-0.00233708
-0.00231618
-0.00229521
-0.00227416
-0.00225304
-0.00223184
-0.00221055
-0.0021892
-0.00216776
-0.00214624
-0.00212465
-0.00210297
-0.00208122
-0.00205938
-0.00203747
-0.00201547
-0.0019934
-0.00197124
-0.001949
-0.00192668
-0.00190428
-0.00188179
-0.00185923
-0.00183658
-0.00181384
-0.00179103
-0.00176812
-0.00174514
-0.00172207
-0.00169892
-0.00167568
-0.00165235
-0.00162894
-0.00160544
-0.00158186
-0.00155819
-0.00153443
-0.00151059
-0.00148666
-0.00146264
-0.00143853
-0.00141434
-0.00139005
-0.00136568
-0.00134121
-0.00131666
-0.00129201
-0.00126728
-0.00124245
-0.00121754
-0.00119254
-0.00116744
-0.00114211
)
;

boundaryField
{
    BotWall
    {
        type            fixedFluxPressure;
        gradient        uniform 0;
        value           uniform 0.0336719;
    }
    FreeStream
    {
        type            totalPressure;
        rho             rho;
        psi             none;
        gamma           1;
        p0              uniform 0;
        value           uniform -0.00112936;
    }
    FrontNBack
    {
        type            empty;
    }
    LeftSide
    {
        type            symmetryPlane;
    }
    RightSide
    {
        type            symmetryPlane;
    }
    procBoundary2to0
    {
        type            processor;
        value           nonuniform List<scalar> 
75
(
-0.00277926
-0.00275996
-0.00274058
-0.00272113
-0.00270161
-0.00268202
-0.00266236
-0.00264263
-0.00262282
-0.00260294
-0.00258299
-0.00256296
-0.00254286
-0.00252269
-0.00250244
-0.00248212
-0.00246172
-0.00244125
-0.0024207
-0.00240008
-0.00237938
-0.00235861
-0.00233776
-0.00231684
-0.00229583
-0.00227475
-0.00225359
-0.00223236
-0.00221104
-0.00218965
-0.00216818
-0.00214663
-0.002125
-0.0021033
-0.00208151
-0.00205964
-0.00203769
-0.00201566
-0.00199356
-0.00197136
-0.00194909
-0.00192674
-0.0019043
-0.00188178
-0.00185918
-0.0018365
-0.00181373
-0.00179087
-0.00176794
-0.00174492
-0.00172181
-0.00169862
-0.00167535
-0.00165199
-0.00162854
-0.00160501
-0.00158139
-0.00155768
-0.00153389
-0.00151001
-0.00148604
-0.00146198
-0.00143783
-0.0014136
-0.00138928
-0.00136486
-0.00134036
-0.00131577
-0.00129108
-0.00126631
-0.00124144
-0.00121649
-0.00119143
-0.00116629
-0.00114104
)
;
    }
    procBoundary2to1
    {
        type            processor;
        value           uniform -0.00527002;
    }
    procBoundary2to3
    {
        type            processor;
        value           uniform -0.00279708;
    }
    procBoundary2to4
    {
        type            processor;
        value           nonuniform List<scalar> 
75
(
0.0346279
0.0468824
0.0154615
0.0842252
-0.452035
-0.0579076
0.0171186
0.00497097
-0.00464302
-0.00652035
-0.00604284
-0.00566633
-0.00558759
-0.00559736
-0.00560273
-0.00559649
-0.00558684
-0.00557735
-0.00556827
-0.00555929
-0.00555027
-0.0055412
-0.00553208
-0.00552294
-0.00551376
-0.00550455
-0.0054953
-0.00548602
-0.00547671
-0.00546736
-0.00545798
-0.00544856
-0.00543911
-0.00542962
-0.0054201
-0.00541054
-0.00540095
-0.00539132
-0.00538166
-0.00537196
-0.00536223
-0.00535245
-0.00534265
-0.00533281
-0.00532293
-0.00531301
-0.00530306
-0.00529307
-0.00528304
-0.00527298
-0.0017216
-0.00169847
-0.00167525
-0.00165194
-0.00162855
-0.00160508
-0.00158151
-0.00155786
-0.00153413
-0.0015103
-0.00148639
-0.00146239
-0.00143831
-0.00141413
-0.00138987
-0.00136551
-0.00134107
-0.00131654
-0.00129191
-0.0012672
-0.00124239
-0.0012175
-0.00119253
-0.00116744
-0.00114212
)
;
    }
    procBoundary2to5
    {
        type            processor;
        value           nonuniform List<scalar> 
50
(
-0.00277646
-0.0027572
-0.00273787
-0.00271847
-0.002699
-0.00267946
-0.00265985
-0.00264016
-0.00262041
-0.00260058
-0.00258068
-0.0025607
-0.00254065
-0.00252053
-0.00250033
-0.00248006
-0.00245971
-0.00243929
-0.0024188
-0.00239823
-0.00237758
-0.00235686
-0.00233606
-0.00231518
-0.00229423
-0.0022732
-0.0022521
-0.00223091
-0.00220965
-0.00218831
-0.00216689
-0.0021454
-0.00212382
-0.00210217
-0.00208043
-0.00205862
-0.00203672
-0.00201475
-0.00199269
-0.00197055
-0.00194834
-0.00192604
-0.00190365
-0.00188119
-0.00185864
-0.00183601
-0.0018133
-0.0017905
-0.00176762
-0.00174465
)
;
    }
}


// ************************************************************************* //
