/*--------------------------------*- C++ -*----------------------------------*\
| =========                 |                                                 |
| \\      /  F ield         | OpenFOAM: The Open Source CFD Toolbox           |
|  \\    /   O peration     | Version:  2.4.0                                 |
|   \\  /    A nd           | Web:      www.OpenFOAM.org                      |
|    \\/     M anipulation  |                                                 |
\*---------------------------------------------------------------------------*/
FoamFile
{
    version     2.0;
    format      ascii;
    class       volVectorField;
    location    "0.014";
    object      U;
}
// * * * * * * * * * * * * * * * * * * * * * * * * * * * * * * * * * * * * * //

dimensions      [0 1 -1 0 0 0 0];

internalField   nonuniform List<vector> 
125
(
(1.40051e-07 -1.14704e-05 0)
(4.45936e-07 3.14016e-05 0)
(7.89072e-07 -8.22154e-05 0)
(1.13159e-06 0.000325951 0)
(1.90128e-06 -0.00206215 0)
(2.75314e-06 -0.018479 0)
(4.03207e-06 -0.0192376 0)
(5.5322e-06 -0.0162007 0)
(7.02924e-06 -0.0155314 0)
(8.47826e-06 -0.0155948 0)
(9.86592e-06 -0.0157004 0)
(1.11951e-05 -0.0157273 0)
(1.24668e-05 -0.0157245 0)
(1.368e-05 -0.0157204 0)
(1.48332e-05 -0.0157195 0)
(1.59249e-05 -0.0157197 0)
(1.69537e-05 -0.0157199 0)
(1.79183e-05 -0.0157201 0)
(1.88174e-05 -0.0157202 0)
(1.96498e-05 -0.0157203 0)
(2.04143e-05 -0.0157204 0)
(2.111e-05 -0.0157205 0)
(2.17361e-05 -0.0157206 0)
(2.2292e-05 -0.0157208 0)
(2.27775e-05 -0.0157209 0)
(2.31925e-05 -0.015721 0)
(2.35371e-05 -0.0157212 0)
(2.38121e-05 -0.0157213 0)
(2.40183e-05 -0.0157215 0)
(2.4157e-05 -0.0157216 0)
(2.42297e-05 -0.0157217 0)
(2.42384e-05 -0.0157219 0)
(2.41854e-05 -0.015722 0)
(2.40733e-05 -0.0157222 0)
(2.3905e-05 -0.0157223 0)
(2.36837e-05 -0.0157225 0)
(2.34128e-05 -0.0157226 0)
(2.30961e-05 -0.0157228 0)
(2.27374e-05 -0.0157229 0)
(2.23408e-05 -0.015723 0)
(2.19102e-05 -0.0157232 0)
(2.145e-05 -0.0157233 0)
(2.09642e-05 -0.0157234 0)
(2.04572e-05 -0.0157236 0)
(1.99329e-05 -0.0157237 0)
(1.93954e-05 -0.0157238 0)
(1.88486e-05 -0.0157239 0)
(1.82961e-05 -0.0157241 0)
(1.77415e-05 -0.0157242 0)
(1.7188e-05 -0.0157243 0)
(1.02011e-06 -0.0157366 0)
(9.40741e-07 -0.0157366 0)
(8.597e-07 -0.0157366 0)
(7.76977e-07 -0.0157365 0)
(6.92561e-07 -0.0157365 0)
(6.06447e-07 -0.0157365 0)
(5.18635e-07 -0.0157365 0)
(4.29126e-07 -0.0157365 0)
(3.37931e-07 -0.0157365 0)
(2.45062e-07 -0.0157365 0)
(1.5054e-07 -0.0157365 0)
(5.43892e-08 -0.0157365 0)
(-4.3357e-08 -0.0157365 0)
(-1.4266e-07 -0.0157364 0)
(-2.43475e-07 -0.0157364 0)
(-3.45747e-07 -0.0157364 0)
(-4.49417e-07 -0.0157364 0)
(-5.54416e-07 -0.0157364 0)
(-6.60667e-07 -0.0157364 0)
(-7.68087e-07 -0.0157364 0)
(-8.76581e-07 -0.0157364 0)
(-9.86049e-07 -0.0157364 0)
(-1.09638e-06 -0.0157364 0)
(-1.20746e-06 -0.0157364 0)
(-1.31916e-06 -0.0157364 0)
(-1.43135e-06 -0.0157364 0)
(-1.54388e-06 -0.0157364 0)
(-1.65662e-06 -0.0157364 0)
(-1.76941e-06 -0.0157364 0)
(-1.8821e-06 -0.0157365 0)
(-1.99453e-06 -0.0157365 0)
(-2.10654e-06 -0.0157365 0)
(-2.218e-06 -0.0157365 0)
(-2.32874e-06 -0.0157365 0)
(-2.43865e-06 -0.0157365 0)
(-2.5476e-06 -0.0157365 0)
(-2.6555e-06 -0.0157365 0)
(-2.7623e-06 -0.0157365 0)
(-2.86797e-06 -0.0157366 0)
(-2.97253e-06 -0.0157366 0)
(-3.07606e-06 -0.0157366 0)
(-3.1787e-06 -0.0157366 0)
(-3.28066e-06 -0.0157366 0)
(-3.38222e-06 -0.0157366 0)
(-3.48376e-06 -0.0157367 0)
(-3.58572e-06 -0.0157367 0)
(-3.68862e-06 -0.0157367 0)
(-3.79306e-06 -0.0157367 0)
(-3.89966e-06 -0.0157368 0)
(-4.00907e-06 -0.0157368 0)
(-4.12195e-06 -0.0157368 0)
(-4.23887e-06 -0.0157368 0)
(-4.36033e-06 -0.0157369 0)
(-4.48665e-06 -0.0157369 0)
(-4.61796e-06 -0.0157369 0)
(-4.75415e-06 -0.015737 0)
(-4.8948e-06 -0.015737 0)
(-5.03919e-06 -0.015737 0)
(-5.18626e-06 -0.0157371 0)
(-5.33466e-06 -0.0157371 0)
(-5.48275e-06 -0.0157372 0)
(-5.62871e-06 -0.0157372 0)
(-5.77057e-06 -0.0157372 0)
(-5.90634e-06 -0.0157373 0)
(-6.03414e-06 -0.0157373 0)
(-6.15224e-06 -0.0157374 0)
(-6.25921e-06 -0.0157374 0)
(-6.35397e-06 -0.0157375 0)
(-6.43582e-06 -0.0157375 0)
(-6.50447e-06 -0.0157376 0)
(-6.56e-06 -0.0157376 0)
(-6.60282e-06 -0.0157377 0)
(-6.6336e-06 -0.0157377 0)
(-6.65323e-06 -0.0157378 0)
(-6.66268e-06 -0.0157378 0)
)
;

boundaryField
{
    BotWall
    {
        type            fixedValue;
        value           uniform (0 0 0);
    }
    FreeStream
    {
        type            zeroGradient;
    }
    FrontNBack
    {
        type            empty;
    }
    LeftSide
    {
        type            symmetryPlane;
    }
    RightSide
    {
        type            symmetryPlane;
    }
    procBoundary2to0
    {
        type            processor;
        value           nonuniform List<vector> 
75
(
(3.73321e-06 -0.015732 0)
(3.69878e-06 -0.0157321 0)
(3.66285e-06 -0.0157321 0)
(3.6254e-06 -0.0157321 0)
(3.58642e-06 -0.0157321 0)
(3.54589e-06 -0.0157322 0)
(3.50381e-06 -0.0157322 0)
(3.46019e-06 -0.0157322 0)
(3.41502e-06 -0.0157322 0)
(3.36831e-06 -0.0157322 0)
(3.32006e-06 -0.0157323 0)
(3.2703e-06 -0.0157323 0)
(3.21905e-06 -0.0157323 0)
(3.16632e-06 -0.0157323 0)
(3.11216e-06 -0.0157323 0)
(3.0566e-06 -0.0157323 0)
(2.99968e-06 -0.0157324 0)
(2.94146e-06 -0.0157324 0)
(2.88198e-06 -0.0157324 0)
(2.82131e-06 -0.0157324 0)
(2.75952e-06 -0.0157324 0)
(2.69667e-06 -0.0157324 0)
(2.63286e-06 -0.0157324 0)
(2.56817e-06 -0.0157324 0)
(2.50269e-06 -0.0157324 0)
(2.43652e-06 -0.0157325 0)
(2.36977e-06 -0.0157325 0)
(2.30254e-06 -0.0157325 0)
(2.23494e-06 -0.0157325 0)
(2.1671e-06 -0.0157325 0)
(2.09912e-06 -0.0157325 0)
(2.03113e-06 -0.0157325 0)
(1.96323e-06 -0.0157325 0)
(1.89554e-06 -0.0157325 0)
(1.82815e-06 -0.0157325 0)
(1.76116e-06 -0.0157325 0)
(1.69463e-06 -0.0157325 0)
(1.62861e-06 -0.0157324 0)
(1.56312e-06 -0.0157324 0)
(1.49815e-06 -0.0157324 0)
(1.43366e-06 -0.0157324 0)
(1.36954e-06 -0.0157324 0)
(1.30564e-06 -0.0157324 0)
(1.24176e-06 -0.0157324 0)
(1.17764e-06 -0.0157324 0)
(1.11294e-06 -0.0157324 0)
(1.0473e-06 -0.0157323 0)
(9.80273e-07 -0.0157323 0)
(9.11404e-07 -0.0157323 0)
(8.40209e-07 -0.0157323 0)
(7.6621e-07 -0.0157323 0)
(6.88964e-07 -0.0157322 0)
(6.08101e-07 -0.0157322 0)
(5.23351e-07 -0.0157322 0)
(4.34594e-07 -0.0157322 0)
(3.41883e-07 -0.0157321 0)
(2.45483e-07 -0.0157321 0)
(1.45885e-07 -0.0157321 0)
(4.38186e-08 -0.0157321 0)
(-5.97609e-08 -0.015732 0)
(-1.63695e-07 -0.015732 0)
(-2.66664e-07 -0.0157319 0)
(-3.67246e-07 -0.0157319 0)
(-4.63987e-07 -0.0157319 0)
(-5.55474e-07 -0.0157318 0)
(-6.40414e-07 -0.0157318 0)
(-7.17699e-07 -0.0157317 0)
(-7.86464e-07 -0.0157317 0)
(-8.46117e-07 -0.0157316 0)
(-8.96351e-07 -0.0157316 0)
(-9.37135e-07 -0.0157315 0)
(-9.68681e-07 -0.0157315 0)
(-9.91414e-07 -0.0157314 0)
(-1.00594e-06 -0.0157314 0)
(-1.01295e-06 -0.0157313 0)
)
;
    }
    procBoundary2to1
    {
        type            processor;
        value           uniform (1.66387e-05 -0.0157244 0);
    }
    procBoundary2to3
    {
        type            processor;
        value           uniform (1.09784e-06 -0.0157366 0);
    }
    procBoundary2to4
    {
        type            processor;
        value           nonuniform List<vector> 
75
(
(1.69138e-07 -1.18406e-05 0)
(5.3154e-07 3.24235e-05 0)
(9.29869e-07 -8.57507e-05 0)
(1.32382e-06 0.000338706 0)
(2.17751e-06 -0.00207198 0)
(3.25332e-06 -0.0184504 0)
(5.13431e-06 -0.0193437 0)
(7.23026e-06 -0.0162377 0)
(9.30361e-06 -0.0155567 0)
(1.1306e-05 -0.0156203 0)
(1.32225e-05 -0.0157276 0)
(1.50553e-05 -0.015755 0)
(1.68047e-05 -0.015752 0)
(1.84692e-05 -0.0157477 0)
(2.00465e-05 -0.0157466 0)
(2.15347e-05 -0.0157466 0)
(2.29321e-05 -0.0157467 0)
(2.4237e-05 -0.0157467 0)
(2.54479e-05 -0.0157466 0)
(2.65637e-05 -0.0157465 0)
(2.75832e-05 -0.0157464 0)
(2.85056e-05 -0.0157463 0)
(2.93306e-05 -0.0157461 0)
(3.0058e-05 -0.015746 0)
(3.06879e-05 -0.0157459 0)
(3.1221e-05 -0.0157458 0)
(3.16583e-05 -0.0157457 0)
(3.20013e-05 -0.0157455 0)
(3.22517e-05 -0.0157454 0)
(3.24119e-05 -0.0157453 0)
(3.24846e-05 -0.0157451 0)
(3.2473e-05 -0.015745 0)
(3.23806e-05 -0.0157449 0)
(3.22113e-05 -0.0157448 0)
(3.19695e-05 -0.0157446 0)
(3.16597e-05 -0.0157445 0)
(3.12868e-05 -0.0157444 0)
(3.08559e-05 -0.0157442 0)
(3.03723e-05 -0.0157441 0)
(2.98414e-05 -0.015744 0)
(2.92687e-05 -0.0157439 0)
(2.86598e-05 -0.0157437 0)
(2.802e-05 -0.0157436 0)
(2.7355e-05 -0.0157435 0)
(2.66699e-05 -0.0157434 0)
(2.59699e-05 -0.0157433 0)
(2.52598e-05 -0.0157432 0)
(2.45445e-05 -0.015743 0)
(2.38281e-05 -0.0157429 0)
(2.31149e-05 -0.0157428 0)
(5.17752e-06 -0.0157364 0)
(5.26509e-06 -0.0157365 0)
(5.35539e-06 -0.0157365 0)
(5.44862e-06 -0.0157366 0)
(5.54486e-06 -0.0157366 0)
(5.64398e-06 -0.0157367 0)
(5.7457e-06 -0.0157367 0)
(5.8495e-06 -0.0157368 0)
(5.95464e-06 -0.0157368 0)
(6.06021e-06 -0.0157369 0)
(6.16509e-06 -0.0157369 0)
(6.26805e-06 -0.015737 0)
(6.36778e-06 -0.015737 0)
(6.46295e-06 -0.0157371 0)
(6.55229e-06 -0.0157372 0)
(6.6347e-06 -0.0157372 0)
(6.70921e-06 -0.0157373 0)
(6.77514e-06 -0.0157374 0)
(6.83205e-06 -0.0157374 0)
(6.87977e-06 -0.0157375 0)
(6.91837e-06 -0.0157376 0)
(6.94815e-06 -0.0157376 0)
(6.96958e-06 -0.0157377 0)
(6.98331e-06 -0.0157378 0)
(6.99001e-06 -0.0157378 0)
)
;
    }
    procBoundary2to5
    {
        type            processor;
        value           nonuniform List<vector> 
50
(
(1.08649e-06 -0.0157358 0)
(1.15135e-06 -0.0157358 0)
(1.21755e-06 -0.0157358 0)
(1.28509e-06 -0.0157358 0)
(1.35399e-06 -0.0157358 0)
(1.42423e-06 -0.0157358 0)
(1.49581e-06 -0.0157358 0)
(1.56873e-06 -0.0157358 0)
(1.64296e-06 -0.0157358 0)
(1.71848e-06 -0.0157358 0)
(1.79528e-06 -0.0157358 0)
(1.87333e-06 -0.0157358 0)
(1.95259e-06 -0.0157358 0)
(2.03303e-06 -0.0157357 0)
(2.1146e-06 -0.0157357 0)
(2.19725e-06 -0.0157357 0)
(2.28093e-06 -0.0157357 0)
(2.36558e-06 -0.0157358 0)
(2.45114e-06 -0.0157358 0)
(2.53752e-06 -0.0157358 0)
(2.62466e-06 -0.0157358 0)
(2.71247e-06 -0.0157358 0)
(2.80086e-06 -0.0157358 0)
(2.88973e-06 -0.0157358 0)
(2.97899e-06 -0.0157358 0)
(3.06853e-06 -0.0157358 0)
(3.15824e-06 -0.0157358 0)
(3.248e-06 -0.0157358 0)
(3.3377e-06 -0.0157358 0)
(3.42723e-06 -0.0157359 0)
(3.51645e-06 -0.0157359 0)
(3.60526e-06 -0.0157359 0)
(3.69353e-06 -0.0157359 0)
(3.78116e-06 -0.0157359 0)
(3.86805e-06 -0.015736 0)
(3.95411e-06 -0.015736 0)
(4.03926e-06 -0.015736 0)
(4.12346e-06 -0.015736 0)
(4.20669e-06 -0.015736 0)
(4.28895e-06 -0.0157361 0)
(4.37028e-06 -0.0157361 0)
(4.45079e-06 -0.0157361 0)
(4.53061e-06 -0.0157362 0)
(4.60992e-06 -0.0157362 0)
(4.68897e-06 -0.0157362 0)
(4.76807e-06 -0.0157363 0)
(4.84756e-06 -0.0157363 0)
(4.92782e-06 -0.0157363 0)
(5.00929e-06 -0.0157364 0)
(5.09238e-06 -0.0157364 0)
)
;
    }
}


// ************************************************************************* //
