/*--------------------------------*- C++ -*----------------------------------*\
| =========                 |                                                 |
| \\      /  F ield         | OpenFOAM: The Open Source CFD Toolbox           |
|  \\    /   O peration     | Version:  2.4.0                                 |
|   \\  /    A nd           | Web:      www.OpenFOAM.org                      |
|    \\/     M anipulation  |                                                 |
\*---------------------------------------------------------------------------*/
FoamFile
{
    version     2.0;
    format      ascii;
    class       volScalarField;
    location    "0.01";
    object      H;
}
// * * * * * * * * * * * * * * * * * * * * * * * * * * * * * * * * * * * * * //

dimensions      [0 2 -2 0 0 0 0];

internalField   nonuniform List<scalar> 
125
(
-7.08623
-6.62365
-6.18671
-5.77445
-5.38587
-5.01999
-4.67583
-4.35242
-4.04881
-3.76405
-3.49722
-3.24741
-3.01374
-2.79536
-2.59143
-2.40115
-2.22374
-2.05847
-1.9046
-1.76145
-1.62836
-1.50471
-1.38989
-1.28334
-1.18451
-1.0929
-1.00801
-0.929404
-0.856635
-0.789303
-0.727025
-0.669445
-0.616228
-0.567058
-0.521644
-0.479711
-0.441004
-0.405285
-0.372331
-0.341938
-0.313913
-0.288078
-0.264268
-0.242331
-0.222124
-0.203516
-0.186385
-0.170619
-0.156112
-0.142769
-0.130501
-0.119224
-0.108862
-0.099345
-0.0906074
-0.0825888
-0.0752334
-0.0684894
-0.0623092
-0.0566485
-0.0514665
-0.0467255
-0.0423904
-0.038429
-0.0348114
-0.0315099
-0.0284991
-0.0257551
-0.0232563
-0.0209824
-0.0189149
-0.0170364
-0.015331
-0.0137842
-0.0123823
-0.0111129
-0.00996441
-0.00892635
-0.00798891
-0.00714313
-0.00638078
-0.00569427
-0.00507666
-0.00452158
-0.0040232
-0.00357617
-0.00317561
-0.00281705
-0.00249643
-0.00221002
-0.00195445
-0.00172663
-0.00152377
-0.00134333
-0.00118301
-0.00104071
-0.000914547
-0.000802816
-0.000703974
-0.000616633
-0.000539539
-0.000471567
-0.000411706
-0.000359046
-0.000312775
-0.000272164
-0.000236561
-0.000205385
-0.000178116
-0.000154294
-0.000133505
-0.000115386
-9.96117e-05
-8.5895e-05
-7.39817e-05
-6.36467e-05
-5.46918e-05
-4.69418e-05
-4.02426e-05
-3.44588e-05
-2.94712e-05
-2.51754e-05
-2.14799e-05
-1.83048e-05
-1.558e-05
)
;

boundaryField
{
    BotWall
    {
        type            zeroGradient;
    }
    FreeStream
    {
        type            zeroGradient;
    }
    FrontNBack
    {
        type            empty;
    }
    LeftSide
    {
        type            symmetryPlane;
    }
    RightSide
    {
        type            symmetryPlane;
    }
    procBoundary8to5
    {
        type            processor;
        value           nonuniform List<scalar> 
50
(
-0.0113214
-0.0101541
-0.00909883
-0.0081456
-0.00728535
-0.00650974
-0.00581111
-0.00518241
-0.0046172
-0.00410956
-0.00365409
-0.00324583
-0.00288027
-0.00255328
-0.00226108
-0.00200025
-0.00176767
-0.0015605
-0.00137616
-0.00121231
-0.00106683
-0.0009378
-0.000823492
-0.000722335
-0.000632915
-0.000553959
-0.000484321
-0.00042297
-0.000368982
-0.000321527
-0.000279862
-0.000243323
-0.000211317
-0.000183312
-0.000158839
-0.000137476
-0.000118849
-0.000102629
-8.85193e-05
-7.62613e-05
-6.56242e-05
-5.64048e-05
-4.84237e-05
-4.15229e-05
-3.55633e-05
-3.04229e-05
-2.59945e-05
-2.2184e-05
-1.89093e-05
-1.60985e-05
)
;
    }
    procBoundary8to6
    {
        type            processor;
        value           nonuniform List<scalar> 
75
(
-7.13779
-6.67551
-6.23853
-5.82591
-5.43668
-5.06992
-4.72467
-4.39999
-4.09495
-3.80864
-3.54017
-3.28864
-3.05321
-2.83302
-2.62727
-2.43517
-2.25595
-2.08889
-1.93326
-1.7884
-1.65364
-1.52838
-1.412
-1.30396
-1.20371
-1.11074
-1.02457
-0.944739
-0.870819
-0.802403
-0.739109
-0.680577
-0.626471
-0.576473
-0.530289
-0.487641
-0.448272
-0.411941
-0.378423
-0.347509
-0.319005
-0.292731
-0.268518
-0.246212
-0.225667
-0.20675
-0.189336
-0.173312
-0.15857
-0.145013
-0.132548
-0.121093
-0.110569
-0.100903
-0.0920309
-0.0838892
-0.0764214
-0.0695751
-0.0633014
-0.0575554
-0.0522955
-0.0474832
-0.0430831
-0.0390621
-0.0353899
-0.0320385
-0.0289818
-0.0261959
-0.0236586
-0.0213494
-0.0192494
-0.0173411
-0.0156085
-0.0140365
-0.0126116
)
;
    }
    procBoundary8to7
    {
        type            processor;
        value           uniform -1.32452e-05;
    }
    procBoundary8to9
    {
        type            processor;
        value           uniform -7.57554;
    }
    procBoundary8to10
    {
        type            processor;
        value           nonuniform List<scalar> 
75
(
-0.131274
-0.119928
-0.109505
-0.0999311
-0.0911421
-0.0830769
-0.075679
-0.0688964
-0.0626811
-0.0569884
-0.0517773
-0.0470097
-0.0426504
-0.0386668
-0.035029
-0.031709
-0.0286811
-0.0259217
-0.0234086
-0.0211217
-0.0190422
-0.0171527
-0.0154372
-0.0138811
-0.0124707
-0.0111935
-0.0100378
-0.00899319
-0.00804971
-0.00719838
-0.00643094
-0.00573976
-0.00511788
-0.0045589
-0.00405694
-0.00360664
-0.0032031
-0.00284183
-0.00251872
-0.00223006
-0.00197244
-0.00174277
-0.00153823
-0.00135626
-0.00119455
-0.00105101
-0.000923721
-0.000810978
-0.000711226
-0.000623066
-0.000545239
-0.000476611
-0.000416162
-0.000362978
-0.000316239
-0.000275212
-0.000239239
-0.000207734
-0.000180174
-0.000156094
-0.000135078
-0.000116758
-0.000100807
-8.69352e-05
-7.48854e-05
-6.44309e-05
-5.53713e-05
-4.75299e-05
-4.0751e-05
-3.48978e-05
-2.98499e-05
-2.55017e-05
-2.1761e-05
-1.85466e-05
-1.57881e-05
)
;
    }
    procBoundary8to11
    {
        type            processor;
        value           nonuniform List<scalar> 
50
(
-7.10769
-6.64534
-6.20847
-5.79613
-5.40733
-5.04112
-4.69654
-4.37262
-4.06842
-3.78302
-3.51549
-3.26496
-3.03054
-2.81139
-2.60668
-2.41562
-2.23744
-2.07139
-1.91676
-1.77288
-1.63907
-1.51472
-1.39923
-1.29204
-1.1926
-1.1004
-1.01496
-0.93583
-0.862567
-0.794769
-0.732056
-0.674068
-0.62047
-0.570947
-0.525204
-0.482967
-0.443978
-0.407999
-0.374806
-0.344192
-0.315964
-0.289943
-0.265964
-0.243871
-0.223522
-0.204784
-0.187534
-0.171659
-0.157054
-0.143621
)
;
    }
}


// ************************************************************************* //
