/*--------------------------------*- C++ -*----------------------------------*\
| =========                 |                                                 |
| \\      /  F ield         | OpenFOAM: The Open Source CFD Toolbox           |
|  \\    /   O peration     | Version:  2.4.0                                 |
|   \\  /    A nd           | Web:      www.OpenFOAM.org                      |
|    \\/     M anipulation  |                                                 |
\*---------------------------------------------------------------------------*/
FoamFile
{
    version     2.0;
    format      ascii;
    class       volScalarField;
    location    "0.012";
    object      H;
}
// * * * * * * * * * * * * * * * * * * * * * * * * * * * * * * * * * * * * * //

dimensions      [0 2 -2 0 0 0 0];

internalField   nonuniform List<scalar> 
125
(
-0.00156695
-0.00139278
-0.00123691
-0.00109752
-0.000972976
-0.000861793
-0.000762623
-0.000674246
-0.000595557
-0.000525557
-0.000463345
-0.000408105
-0.000359102
-0.000315673
-0.000277221
-0.00024321
-0.000213156
-0.000186625
-0.000163228
-0.000142616
-0.000124476
-0.000108529
-9.4524e-05
-8.22378e-05
-7.1471e-05
-6.2046e-05
-5.38047e-05
-4.66063e-05
-4.03259e-05
-3.48526e-05
-3.0088e-05
-2.59452e-05
-2.23471e-05
-1.92258e-05
-1.65212e-05
-1.41805e-05
-1.21571e-05
-1.041e-05
-8.90344e-06
-7.60575e-06
-6.48936e-06
-5.53015e-06
-4.70696e-06
-4.00137e-06
-3.39741e-06
-2.88099e-06
-2.44004e-06
-2.06398e-06
-1.74369e-06
-1.47123e-06
-1.23976e-06
-1.04337e-06
-8.76963e-07
-7.36142e-07
-6.17124e-07
-5.16679e-07
-4.32003e-07
-3.6073e-07
-3.0082e-07
-2.50529e-07
-2.08356e-07
-1.7304e-07
-1.43527e-07
-1.18895e-07
-9.83398e-08
-8.12193e-08
-6.70029e-08
-5.51887e-08
-4.5392e-08
-3.72927e-08
-3.05788e-08
-2.50477e-08
-2.0485e-08
-1.67272e-08
-1.36403e-08
-1.11102e-08
-9.0343e-09
-7.31672e-09
-5.94882e-09
-4.80841e-09
-3.87776e-09
-3.13404e-09
-2.53732e-09
-2.02142e-09
-1.63087e-09
-1.29061e-09
-1.05628e-09
-8.31131e-10
-6.74731e-10
-5.29104e-10
-4.19859e-10
-3.61463e-10
-2.56747e-10
-2.22207e-10
-1.58943e-10
-1.51459e-10
-1.08403e-10
-4.9111e-11
-5.64554e-11
-4.98244e-11
-5.46051e-11
-4.79209e-11
-5.46327e-11
-5.10695e-11
-2.71892e-11
-8.60124e-13
1.70877e-12
3.24818e-13
-5.79253e-14
-2.9647e-14
-1.09282e-15
1.65931e-15
3.26211e-16
-4.95304e-17
-2.67638e-17
-1.05822e-18
1.3882e-18
2.57485e-19
-4.19858e-20
-2.00679e-20
-4.19388e-22
1.03127e-21
1.59152e-22
-3.30747e-23
-1.49288e-23
)
;

boundaryField
{
    BotWall
    {
        type            zeroGradient;
    }
    FreeStream
    {
        type            zeroGradient;
    }
    FrontNBack
    {
        type            empty;
    }
    LeftSide
    {
        type            symmetryPlane;
    }
    RightSide
    {
        type            symmetryPlane;
    }
    procBoundary0to1
    {
        type            processor;
        value           uniform -0.00176143;
    }
    procBoundary0to2
    {
        type            processor;
        value           nonuniform List<scalar> 
75
(
-1.27751e-06
-1.07534e-06
-9.03987e-07
-7.58942e-07
-6.36343e-07
-5.32856e-07
-4.4559e-07
-3.72136e-07
-3.10362e-07
-2.58526e-07
-2.15014e-07
-1.78606e-07
-1.48144e-07
-1.22746e-07
-1.01523e-07
-8.38629e-08
-6.91786e-08
-5.69956e-08
-4.68816e-08
-3.85091e-08
-3.15895e-08
-2.58652e-08
-2.11633e-08
-1.7279e-08
-1.4094e-08
-1.14686e-08
-9.32893e-09
-7.56807e-09
-6.14504e-09
-4.96527e-09
-4.00107e-09
-3.248e-09
-2.5965e-09
-2.10131e-09
-1.69894e-09
-1.31704e-09
-1.08275e-09
-8.83205e-10
-6.72018e-10
-5.67036e-10
-4.43802e-10
-3.59915e-10
-2.57704e-10
-2.41094e-10
-1.55823e-10
-1.54578e-10
-1.19716e-10
-4.90425e-11
-5.48374e-11
-5.28353e-11
-5.12519e-11
-5.10924e-11
-5.13562e-11
-5.09199e-11
-3.38457e-11
-2.21637e-12
1.86571e-12
4.47045e-13
-4.82577e-14
-3.56551e-14
-2.57091e-15
1.79773e-15
4.3509e-16
-4.16674e-17
-3.2128e-17
-2.32397e-18
1.51974e-18
3.51653e-19
-3.56768e-20
-2.45266e-20
-1.42819e-21
1.12954e-21
2.27267e-22
-2.89973e-23
-1.94911e-23
)
;
    }
    procBoundary0to3
    {
        type            processor;
        value           nonuniform List<scalar> 
50
(
-0.00159673
-0.00141951
-0.00126088
-0.001119
-0.000992214
-0.000879008
-0.000778015
-0.000687997
-0.000607832
-0.000536506
-0.000473102
-0.000416792
-0.00036683
-0.000322541
-0.000283319
-0.000248619
-0.000217949
-0.000190868
-0.00016698
-0.00014593
-0.000127401
-0.000111107
-9.67937e-05
-8.42338e-05
-7.32243e-05
-6.35844e-05
-5.51528e-05
-4.77862e-05
-4.13574e-05
-3.57531e-05
-3.08733e-05
-2.66291e-05
-2.29419e-05
-1.97424e-05
-1.69694e-05
-1.45687e-05
-1.24929e-05
-1.07001e-05
-9.15371e-06
-7.82134e-06
-6.67482e-06
-5.68943e-06
-4.84357e-06
-4.11839e-06
-3.4974e-06
-2.9664e-06
-2.51281e-06
-2.12591e-06
-1.79627e-06
-1.5158e-06
)
;
    }
}


// ************************************************************************* //
