/*--------------------------------*- C++ -*----------------------------------*\
| =========                 |                                                 |
| \\      /  F ield         | OpenFOAM: The Open Source CFD Toolbox           |
|  \\    /   O peration     | Version:  2.4.0                                 |
|   \\  /    A nd           | Web:      www.OpenFOAM.org                      |
|    \\/     M anipulation  |                                                 |
\*---------------------------------------------------------------------------*/
FoamFile
{
    version     2.0;
    format      ascii;
    class       volScalarField;
    location    "0.012";
    object      p;
}
// * * * * * * * * * * * * * * * * * * * * * * * * * * * * * * * * * * * * * //

dimensions      [1 -1 -2 0 0 0 0];

internalField   nonuniform List<scalar> 
125
(
-0.0455052
-0.0457986
-0.0460931
-0.0463887
-0.0466854
-0.0469831
-0.047282
-0.047582
-0.047883
-0.0481852
-0.0484885
-0.0487929
-0.0490984
-0.0494051
-0.0497128
-0.0500218
-0.0503318
-0.050643
-0.0509553
-0.0512688
-0.0515835
-0.0518993
-0.0522162
-0.0525343
-0.0528536
-0.0531741
-0.0534958
-0.0538186
-0.0541426
-0.0544679
-0.0547943
-0.0551219
-0.0554507
-0.0557808
-0.056112
-0.0564445
-0.0567782
-0.0571131
-0.0574493
-0.0577866
-0.0581253
-0.0584652
-0.0588063
-0.0591487
-0.0594923
-0.0598372
-0.0601834
-0.0605309
-0.0608796
-0.0612297
-0.061581
-0.0619336
-0.0622875
-0.0626427
-0.0629992
-0.063357
-0.0637162
-0.0640766
-0.0644384
-0.0648015
-0.065166
-0.0655318
-0.0658989
-0.0662674
-0.0666373
-0.0670085
-0.0673811
-0.0677551
-0.0681304
-0.0685071
-0.0688852
-0.0692647
-0.0696456
-0.0700279
-0.0704116
-0.0707967
-0.0711832
-0.0715712
-0.0719606
-0.0723514
-0.0727436
-0.0731373
-0.0735325
-0.0739291
-0.0743271
-0.0747267
-0.0751277
-0.0755301
-0.0759341
-0.0763395
-0.0767465
-0.0771549
-0.0775648
-0.0779763
-0.0783892
-0.0788037
-0.0792197
-0.0796373
-0.0800563
-0.0804769
-0.0808991
-0.0813228
-0.0817481
-0.0821749
-0.0826034
-0.0830334
-0.0834649
-0.0838981
-0.0843328
-0.0847692
-0.0852072
-0.0856467
-0.0860879
-0.0865308
-0.0869752
-0.0874213
-0.087869
-0.0883184
-0.0887694
-0.0892221
-0.0896765
-0.0901325
-0.0905902
-0.0910496
-0.0915106
)
;

boundaryField
{
    BotWall
    {
        type            calculated;
        value           nonuniform 0();
    }
    FreeStream
    {
        type            calculated;
        value           uniform -0.0917415;
    }
    FrontNBack
    {
        type            empty;
    }
    LeftSide
    {
        type            symmetryPlane;
    }
    RightSide
    {
        type            symmetryPlane;
    }
    procBoundary0to1
    {
        type            processor;
        value           uniform -0.0452129;
    }
    procBoundary0to2
    {
        type            processor;
        value           nonuniform List<scalar> 
75
(
-0.061581
-0.0619337
-0.0622876
-0.0626428
-0.0629993
-0.0633572
-0.0637163
-0.0640768
-0.0644386
-0.0648018
-0.0651663
-0.0655321
-0.0658992
-0.0662678
-0.0666376
-0.0670089
-0.0673815
-0.0677555
-0.0681308
-0.0685076
-0.0688857
-0.0692652
-0.0696461
-0.0700284
-0.0704121
-0.0707973
-0.0711838
-0.0715718
-0.0719612
-0.072352
-0.0727443
-0.073138
-0.0735332
-0.0739298
-0.0743279
-0.0747275
-0.0751285
-0.075531
-0.0759349
-0.0763404
-0.0767474
-0.0771558
-0.0775658
-0.0779773
-0.0783902
-0.0788047
-0.0792208
-0.0796383
-0.0800574
-0.0804781
-0.0809003
-0.081324
-0.0817493
-0.0821762
-0.0826046
-0.0830346
-0.0834662
-0.0838994
-0.0843342
-0.0847706
-0.0852086
-0.0856482
-0.0860894
-0.0865323
-0.0869768
-0.0874229
-0.0878706
-0.08832
-0.0887711
-0.0892238
-0.0896782
-0.0901343
-0.090592
-0.0910514
-0.0915124
)
;
    }
    procBoundary0to3
    {
        type            processor;
        value           nonuniform List<scalar> 
50
(
-0.0455046
-0.0457981
-0.0460926
-0.0463882
-0.0466849
-0.0469826
-0.0472815
-0.0475815
-0.0478826
-0.0481848
-0.0484881
-0.0487925
-0.049098
-0.0494047
-0.0497125
-0.0500214
-0.0503315
-0.0506427
-0.050955
-0.0512685
-0.0515832
-0.051899
-0.0522159
-0.0525341
-0.0528534
-0.0531739
-0.0534955
-0.0538184
-0.0541424
-0.0544677
-0.0547941
-0.0551217
-0.0554506
-0.0557806
-0.0561119
-0.0564444
-0.0567781
-0.057113
-0.0574492
-0.0577866
-0.0581252
-0.0584651
-0.0588063
-0.0591487
-0.0594923
-0.0598373
-0.0601835
-0.0605309
-0.0608797
-0.0612297
)
;
    }
}


// ************************************************************************* //
