/*--------------------------------*- C++ -*----------------------------------*\
| =========                 |                                                 |
| \\      /  F ield         | OpenFOAM: The Open Source CFD Toolbox           |
|  \\    /   O peration     | Version:  2.4.0                                 |
|   \\  /    A nd           | Web:      www.OpenFOAM.org                      |
|    \\/     M anipulation  |                                                 |
\*---------------------------------------------------------------------------*/
FoamFile
{
    version     2.0;
    format      ascii;
    class       volVectorField;
    location    "0.012";
    object      U;
}
// * * * * * * * * * * * * * * * * * * * * * * * * * * * * * * * * * * * * * //

dimensions      [0 1 -1 0 0 0 0];

internalField   nonuniform List<vector> 
125
(
(5.3322e-06 -0.022331 0)
(5.32501e-06 -0.022331 0)
(5.31803e-06 -0.0223311 0)
(5.31123e-06 -0.0223311 0)
(5.30461e-06 -0.0223312 0)
(5.29814e-06 -0.0223312 0)
(5.29183e-06 -0.0223312 0)
(5.28564e-06 -0.0223313 0)
(5.27958e-06 -0.0223313 0)
(5.27361e-06 -0.0223314 0)
(5.26773e-06 -0.0223314 0)
(5.26192e-06 -0.0223315 0)
(5.25615e-06 -0.0223315 0)
(5.2504e-06 -0.0223316 0)
(5.24466e-06 -0.0223316 0)
(5.2389e-06 -0.0223317 0)
(5.23309e-06 -0.0223317 0)
(5.22721e-06 -0.0223318 0)
(5.22124e-06 -0.0223318 0)
(5.21514e-06 -0.0223318 0)
(5.20888e-06 -0.0223319 0)
(5.20243e-06 -0.0223319 0)
(5.19576e-06 -0.022332 0)
(5.18884e-06 -0.022332 0)
(5.18162e-06 -0.0223321 0)
(5.17408e-06 -0.0223321 0)
(5.16616e-06 -0.0223322 0)
(5.15784e-06 -0.0223322 0)
(5.14907e-06 -0.0223322 0)
(5.1398e-06 -0.0223323 0)
(5.13e-06 -0.0223323 0)
(5.11961e-06 -0.0223324 0)
(5.10859e-06 -0.0223324 0)
(5.09689e-06 -0.0223325 0)
(5.08446e-06 -0.0223325 0)
(5.07125e-06 -0.0223326 0)
(5.05721e-06 -0.0223326 0)
(5.0423e-06 -0.0223326 0)
(5.02644e-06 -0.0223327 0)
(5.00961e-06 -0.0223327 0)
(4.99173e-06 -0.0223328 0)
(4.97275e-06 -0.0223328 0)
(4.95263e-06 -0.0223328 0)
(4.9313e-06 -0.0223329 0)
(4.90872e-06 -0.0223329 0)
(4.88483e-06 -0.022333 0)
(4.85958e-06 -0.022333 0)
(4.83291e-06 -0.022333 0)
(4.80478e-06 -0.0223331 0)
(4.77512e-06 -0.0223331 0)
(4.7439e-06 -0.0223332 0)
(4.71106e-06 -0.0223332 0)
(4.67655e-06 -0.0223332 0)
(4.64032e-06 -0.0223333 0)
(4.60234e-06 -0.0223333 0)
(4.56256e-06 -0.0223333 0)
(4.52093e-06 -0.0223334 0)
(4.47741e-06 -0.0223334 0)
(4.43197e-06 -0.0223335 0)
(4.38457e-06 -0.0223335 0)
(4.33518e-06 -0.0223335 0)
(4.28376e-06 -0.0223336 0)
(4.23029e-06 -0.0223336 0)
(4.17474e-06 -0.0223336 0)
(4.11709e-06 -0.0223336 0)
(4.05731e-06 -0.0223337 0)
(3.99541e-06 -0.0223337 0)
(3.93136e-06 -0.0223337 0)
(3.86516e-06 -0.0223338 0)
(3.79681e-06 -0.0223338 0)
(3.72632e-06 -0.0223338 0)
(3.6537e-06 -0.0223338 0)
(3.57897e-06 -0.0223338 0)
(3.50216e-06 -0.0223339 0)
(3.42331e-06 -0.0223339 0)
(3.34246e-06 -0.0223339 0)
(3.25966e-06 -0.0223339 0)
(3.17498e-06 -0.0223339 0)
(3.0885e-06 -0.022334 0)
(3.00031e-06 -0.022334 0)
(2.91051e-06 -0.022334 0)
(2.81921e-06 -0.022334 0)
(2.72654e-06 -0.022334 0)
(2.63265e-06 -0.022334 0)
(2.53768e-06 -0.022334 0)
(2.44182e-06 -0.022334 0)
(2.34524e-06 -0.022334 0)
(2.24814e-06 -0.022334 0)
(2.15074e-06 -0.022334 0)
(2.05327e-06 -0.022334 0)
(1.95595e-06 -0.022334 0)
(1.85903e-06 -0.022334 0)
(1.76278e-06 -0.022334 0)
(1.66745e-06 -0.022334 0)
(1.57331e-06 -0.022334 0)
(1.48064e-06 -0.022334 0)
(1.38972e-06 -0.022334 0)
(1.3008e-06 -0.022334 0)
(1.21416e-06 -0.022334 0)
(1.13007e-06 -0.022334 0)
(1.04876e-06 -0.0223339 0)
(9.70486e-07 -0.0223339 0)
(8.95457e-07 -0.0223339 0)
(8.23879e-07 -0.0223339 0)
(7.55934e-07 -0.0223339 0)
(6.91777e-07 -0.0223338 0)
(6.3154e-07 -0.0223338 0)
(5.75326e-07 -0.0223338 0)
(5.23205e-07 -0.0223338 0)
(4.75219e-07 -0.0223337 0)
(4.31377e-07 -0.0223337 0)
(3.91655e-07 -0.0223337 0)
(3.55996e-07 -0.0223337 0)
(3.24313e-07 -0.0223336 0)
(2.96485e-07 -0.0223336 0)
(2.72363e-07 -0.0223336 0)
(2.51771e-07 -0.0223335 0)
(2.34505e-07 -0.0223335 0)
(2.2034e-07 -0.0223335 0)
(2.09029e-07 -0.0223335 0)
(2.00311e-07 -0.0223334 0)
(1.9391e-07 -0.0223334 0)
(1.8953e-07 -0.0223334 0)
(1.86847e-07 -0.0223333 0)
(1.8554e-07 -0.0223333 0)
)
;

boundaryField
{
    BotWall
    {
        type            fixedValue;
        value           nonuniform 0();
    }
    FreeStream
    {
        type            zeroGradient;
    }
    FrontNBack
    {
        type            empty;
    }
    LeftSide
    {
        type            symmetryPlane;
    }
    RightSide
    {
        type            symmetryPlane;
    }
    procBoundary0to1
    {
        type            processor;
        value           uniform (5.33959e-06 -0.0223309 0);
    }
    procBoundary0to2
    {
        type            processor;
        value           nonuniform List<vector> 
75
(
(2.54531e-06 -0.0223411 0)
(2.46392e-06 -0.0223411 0)
(2.38072e-06 -0.022341 0)
(2.29565e-06 -0.022341 0)
(2.20866e-06 -0.022341 0)
(2.1197e-06 -0.022341 0)
(2.02873e-06 -0.0223409 0)
(1.93569e-06 -0.0223409 0)
(1.84055e-06 -0.0223409 0)
(1.74325e-06 -0.0223409 0)
(1.64377e-06 -0.0223409 0)
(1.54207e-06 -0.0223408 0)
(1.43811e-06 -0.0223408 0)
(1.33187e-06 -0.0223408 0)
(1.22332e-06 -0.0223408 0)
(1.11244e-06 -0.0223408 0)
(9.99217e-07 -0.0223408 0)
(8.83638e-07 -0.0223407 0)
(7.65701e-07 -0.0223407 0)
(6.45407e-07 -0.0223407 0)
(5.22766e-07 -0.0223407 0)
(3.97798e-07 -0.0223407 0)
(2.70528e-07 -0.0223407 0)
(1.40994e-07 -0.0223407 0)
(9.24508e-09 -0.0223407 0)
(-1.2466e-07 -0.0223406 0)
(-2.60649e-07 -0.0223406 0)
(-3.98633e-07 -0.0223406 0)
(-5.38513e-07 -0.0223406 0)
(-6.8017e-07 -0.0223406 0)
(-8.23471e-07 -0.0223406 0)
(-9.68264e-07 -0.0223406 0)
(-1.11438e-06 -0.0223406 0)
(-1.26163e-06 -0.0223406 0)
(-1.4098e-06 -0.0223406 0)
(-1.55868e-06 -0.0223406 0)
(-1.70801e-06 -0.0223406 0)
(-1.85752e-06 -0.0223406 0)
(-2.00695e-06 -0.0223407 0)
(-2.15598e-06 -0.0223407 0)
(-2.3043e-06 -0.0223407 0)
(-2.45158e-06 -0.0223407 0)
(-2.59748e-06 -0.0223407 0)
(-2.74164e-06 -0.0223407 0)
(-2.8837e-06 -0.0223407 0)
(-3.02331e-06 -0.0223407 0)
(-3.16008e-06 -0.0223408 0)
(-3.29366e-06 -0.0223408 0)
(-3.42369e-06 -0.0223408 0)
(-3.54981e-06 -0.0223408 0)
(-3.6717e-06 -0.0223409 0)
(-3.78903e-06 -0.0223409 0)
(-3.90151e-06 -0.0223409 0)
(-4.00886e-06 -0.0223409 0)
(-4.11084e-06 -0.022341 0)
(-4.20724e-06 -0.022341 0)
(-4.29789e-06 -0.022341 0)
(-4.38263e-06 -0.022341 0)
(-4.46139e-06 -0.0223411 0)
(-4.5341e-06 -0.0223411 0)
(-4.60075e-06 -0.0223411 0)
(-4.66137e-06 -0.0223412 0)
(-4.71603e-06 -0.0223412 0)
(-4.76485e-06 -0.0223412 0)
(-4.80799e-06 -0.0223413 0)
(-4.84565e-06 -0.0223413 0)
(-4.87806e-06 -0.0223414 0)
(-4.90549e-06 -0.0223414 0)
(-4.92825e-06 -0.0223414 0)
(-4.94665e-06 -0.0223415 0)
(-4.96105e-06 -0.0223415 0)
(-4.97181e-06 -0.0223415 0)
(-4.97931e-06 -0.0223416 0)
(-4.984e-06 -0.0223416 0)
(-4.98628e-06 -0.0223416 0)
)
;
    }
    procBoundary0to3
    {
        type            processor;
        value           nonuniform List<vector> 
50
(
(5.52442e-06 -0.0223426 0)
(5.46793e-06 -0.0223426 0)
(5.41174e-06 -0.0223426 0)
(5.35584e-06 -0.0223425 0)
(5.30023e-06 -0.0223425 0)
(5.24488e-06 -0.0223425 0)
(5.18978e-06 -0.0223424 0)
(5.13492e-06 -0.0223424 0)
(5.08028e-06 -0.0223424 0)
(5.02584e-06 -0.0223423 0)
(4.97158e-06 -0.0223423 0)
(4.91749e-06 -0.0223423 0)
(4.86353e-06 -0.0223422 0)
(4.8097e-06 -0.0223422 0)
(4.75596e-06 -0.0223422 0)
(4.70229e-06 -0.0223421 0)
(4.64865e-06 -0.0223421 0)
(4.59503e-06 -0.0223421 0)
(4.54138e-06 -0.022342 0)
(4.48768e-06 -0.022342 0)
(4.4339e-06 -0.022342 0)
(4.37999e-06 -0.0223419 0)
(4.32592e-06 -0.0223419 0)
(4.27165e-06 -0.0223419 0)
(4.21713e-06 -0.0223418 0)
(4.16233e-06 -0.0223418 0)
(4.1072e-06 -0.0223418 0)
(4.05169e-06 -0.0223417 0)
(3.99576e-06 -0.0223417 0)
(3.93936e-06 -0.0223417 0)
(3.88242e-06 -0.0223416 0)
(3.82491e-06 -0.0223416 0)
(3.76677e-06 -0.0223416 0)
(3.70794e-06 -0.0223416 0)
(3.64837e-06 -0.0223415 0)
(3.588e-06 -0.0223415 0)
(3.52676e-06 -0.0223415 0)
(3.46461e-06 -0.0223414 0)
(3.40148e-06 -0.0223414 0)
(3.3373e-06 -0.0223414 0)
(3.27203e-06 -0.0223414 0)
(3.2056e-06 -0.0223413 0)
(3.13794e-06 -0.0223413 0)
(3.06899e-06 -0.0223413 0)
(2.9987e-06 -0.0223412 0)
(2.92701e-06 -0.0223412 0)
(2.85384e-06 -0.0223412 0)
(2.77915e-06 -0.0223412 0)
(2.70287e-06 -0.0223411 0)
(2.62494e-06 -0.0223411 0)
)
;
    }
}


// ************************************************************************* //
