/*--------------------------------*- C++ -*----------------------------------*\
| =========                 |                                                 |
| \\      /  F ield         | OpenFOAM: The Open Source CFD Toolbox           |
|  \\    /   O peration     | Version:  2.4.0                                 |
|   \\  /    A nd           | Web:      www.OpenFOAM.org                      |
|    \\/     M anipulation  |                                                 |
\*---------------------------------------------------------------------------*/
FoamFile
{
    version     2.0;
    format      ascii;
    class       volVectorField;
    location    "0.6";
    object      U;
}
// * * * * * * * * * * * * * * * * * * * * * * * * * * * * * * * * * * * * * //

dimensions      [0 1 -1 0 0 0 0];

internalField   nonuniform List<vector> 
8000
(
(-5.71236e-08 -0.000246498 0)
(-6.42767e-07 -0.000725341 0)
(-1.86921e-06 -0.00119 0)
(-3.73652e-06 -0.00164043 0)
(-6.23265e-06 -0.0020766 0)
(-9.35127e-06 -0.00249846 0)
(-1.30925e-05 -0.00290598 0)
(-1.74553e-05 -0.00329913 0)
(-2.24406e-05 -0.00367786 0)
(-2.8046e-05 -0.00404215 0)
(-3.42727e-05 -0.00439196 0)
(-4.11176e-05 -0.00472725 0)
(-4.85825e-05 -0.00504799 0)
(-5.6663e-05 -0.00535414 0)
(-6.53619e-05 -0.00564568 0)
(-7.46733e-05 -0.00592256 0)
(-8.46015e-05 -0.00618476 0)
(-9.51382e-05 -0.00643225 0)
(-0.00010629 -0.00666498 0)
(-0.000118045 -0.00688294 0)
(-0.000130414 -0.00708608 0)
(-0.000143381 -0.0072744 0)
(-0.000156959 -0.00744784 0)
(-0.000171128 -0.0076064 0)
(-0.000185907 -0.00775003 0)
(-0.000201277 -0.00787873 0)
(-0.000217265 -0.00799245 0)
(-0.000233805 -0.00809121 0)
(-0.000250806 -0.00817493 0)
(-0.000268129 -0.00824364 0)
(-0.000286634 -0.00829732 0)
(-0.000309465 -0.00833627 0)
(-0.00033852 -0.00836161 0)
(-0.000367687 -0.00837481 0)
(-0.000389211 -0.00838028 0)
(-0.000420158 -0.0083855 0)
(-0.000455924 -0.00839427 0)
(-0.000479058 -0.00841948 0)
(-0.000481187 -0.00845139 0)
(-0.000495323 -0.0084785 0)
(-0.000514936 -0.0084999 0)
(-0.000535213 -0.00851526 0)
(-0.000555078 -0.00852449 0)
(-0.000574744 -0.00852761 0)
(-0.000594384 -0.00852468 0)
(-0.000614013 -0.0085158 0)
(-0.000633598 -0.00850106 0)
(-0.000653106 -0.00848057 0)
(-0.000672513 -0.00845448 0)
(-0.000691799 -0.00842292 0)
(-5.80449e-08 -0.000242611 0)
(-6.37124e-07 -0.000713676 0)
(-1.84639e-06 -0.00117056 0)
(-3.68648e-06 -0.00161321 0)
(-6.14565e-06 -0.00204161 0)
(-9.21914e-06 -0.0024557 0)
(-1.29066e-05 -0.00285546 0)
(-1.72085e-05 -0.00324085 0)
(-2.21245e-05 -0.00361183 0)
(-2.76543e-05 -0.00396837 0)
(-3.3797e-05 -0.00431043 0)
(-4.05521e-05 -0.00463798 0)
(-4.79182e-05 -0.00495099 0)
(-5.58949e-05 -0.00524943 0)
(-6.44804e-05 -0.00553325 0)
(-7.36744e-05 -0.00580242 0)
(-8.34742e-05 -0.00605691 0)
(-9.38802e-05 -0.0062967 0)
(-0.000104889 -0.00652174 0)
(-0.000116501 -0.006732 0)
(-0.000128712 -0.00692745 0)
(-0.000141523 -0.00710805 0)
(-0.000154928 -0.00727378 0)
(-0.000168932 -0.0074246 0)
(-0.00018353 -0.00756048 0)
(-0.000198743 -0.00768139 0)
(-0.000214546 -0.00778728 0)
(-0.000230802 -0.00787814 0)
(-0.000247159 -0.00795391 0)
(-0.000263978 -0.00801455 0)
(-0.000285019 -0.00806007 0)
(-0.000319075 -0.0080907 0)
(-0.00035412 -0.00810928 0)
(-0.000378489 -0.00811702 0)
(-0.000405715 -0.00812099 0)
(-0.000437907 -0.00812664 0)
(-0.000472467 -0.00814182 0)
(-0.000478229 -0.00817454 0)
(-0.000485464 -0.00820595 0)
(-0.000502296 -0.00823226 0)
(-0.000521582 -0.00825293 0)
(-0.000540716 -0.00826777 0)
(-0.00055954 -0.00827675 0)
(-0.000578306 -0.00827992 0)
(-0.000597098 -0.00827735 0)
(-0.0006159 -0.00826912 0)
(-0.000634676 -0.00825532 0)
(-0.0006534 -0.00823605 0)
(-0.000672048 -0.00821145 0)
(-0.000690599 -0.00818164 0)
(-5.49335e-08 -0.000238854 0)
(-6.26184e-07 -0.000702376 0)
(-1.824e-06 -0.00115169 0)
(-3.65044e-06 -0.00158676 0)
(-6.09279e-06 -0.00200756 0)
(-9.14666e-06 -0.00241406 0)
(-1.281e-05 -0.00280621 0)
(-1.70846e-05 -0.003184 0)
(-2.19677e-05 -0.00354739 0)
(-2.74612e-05 -0.00389635 0)
(-3.35612e-05 -0.00423084 0)
(-4.02704e-05 -0.00455084 0)
(-4.75832e-05 -0.0048563 0)
(-5.55039e-05 -0.00514722 0)
(-6.40248e-05 -0.00542354 0)
(-7.31521e-05 -0.00568524 0)
(-8.28755e-05 -0.00593229 0)
(-9.32039e-05 -0.00616467 0)
(-0.000104124 -0.00638233 0)
(-0.000115647 -0.00658526 0)
(-0.000127756 -0.00677342 0)
(-0.000140468 -0.00694678 0)
(-0.000153757 -0.00710533 0)
(-0.00016765 -0.00724902 0)
(-0.000182119 -0.00737785 0)
(-0.000197208 -0.00749177 0)
(-0.000212843 -0.00759079 0)
(-0.000228917 -0.00767484 0)
(-0.000245156 -0.00774394 0)
(-0.00026234 -0.00779806 0)
(-0.000284382 -0.00783737 0)
(-0.000316257 -0.00786245 0)
(-0.000349107 -0.00787601 0)
(-0.000370374 -0.00788114 0)
(-0.000399948 -0.00788571 0)
(-0.000433632 -0.00789417 0)
(-0.000456794 -0.00791985 0)
(-0.000458282 -0.00795398 0)
(-0.000471302 -0.00798395 0)
(-0.000489861 -0.00800879 0)
(-0.000509152 -0.00802813 0)
(-0.000528066 -0.00804187 0)
(-0.000546806 -0.00805003 0)
(-0.000565549 -0.00805264 0)
(-0.000584315 -0.00804978 0)
(-0.000603072 -0.00804154 0)
(-0.000621791 -0.00802801 0)
(-0.000640448 -0.00800931 0)
(-0.000659021 -0.00798554 0)
(-0.000677491 -0.00795683 0)
(-5.96008e-08 -0.00023497 0)
(-6.4347e-07 -0.000690745 0)
(-1.85778e-06 -0.00113233 0)
(-3.70126e-06 -0.00155969 0)
(-6.1603e-06 -0.0019728 0)
(-9.22926e-06 -0.00237161 0)
(-1.2906e-05 -0.0027561 0)
(-1.71908e-05 -0.00312624 0)
(-2.20812e-05 -0.00348199 0)
(-2.75774e-05 -0.00382331 0)
(-3.36761e-05 -0.00415019 0)
(-4.03776e-05 -0.00446258 0)
(-4.76783e-05 -0.00476045 0)
(-5.5579e-05 -0.00504377 0)
(-6.40753e-05 -0.00531252 0)
(-7.31686e-05 -0.00556665 0)
(-8.28537e-05 -0.00580614 0)
(-9.31328e-05 -0.00603096 0)
(-0.000104 -0.00624107 0)
(-0.000115458 -0.00643645 0)
(-0.0001275 -0.00661706 0)
(-0.000140131 -0.00678288 0)
(-0.000153341 -0.00693387 0)
(-0.00016714 -0.00707 0)
(-0.000181527 -0.00719123 0)
(-0.000196505 -0.00729755 0)
(-0.000211977 -0.00738891 0)
(-0.000227742 -0.00746527 0)
(-0.000243909 -0.00752657 0)
(-0.000262645 -0.00757283 0)
(-0.000289413 -0.00760438 0)
(-0.000319743 -0.00762381 0)
(-0.000347428 -0.00763175 0)
(-0.000374853 -0.00763518 0)
(-0.000407244 -0.00764012 0)
(-0.000441089 -0.0076541 0)
(-0.000446441 -0.00768685 0)
(-0.000452499 -0.00771965 0)
(-0.000468576 -0.00774819 0)
(-0.000487268 -0.00777182 0)
(-0.00050585 -0.00779027 0)
(-0.000524136 -0.00780344 0)
(-0.000542383 -0.00781133 0)
(-0.000560679 -0.00781398 0)
(-0.000579003 -0.00781144 0)
(-0.00059732 -0.0078038 0)
(-0.000615602 -0.00779113 0)
(-0.000633827 -0.00777356 0)
(-0.000651972 -0.00775118 0)
(-0.000670018 -0.0077241 0)
(-5.34928e-08 -0.000231173 0)
(-6.14239e-07 -0.000679355 0)
(-1.79185e-06 -0.00111335 0)
(-3.58654e-06 -0.00153313 0)
(-5.98778e-06 -0.00193866 0)
(-8.98762e-06 -0.00232991 0)
(-1.25874e-05 -0.00270686 0)
(-1.67831e-05 -0.00306948 0)
(-2.15775e-05 -0.00341773 0)
(-2.69642e-05 -0.00375158 0)
(-3.29473e-05 -0.004071 0)
(-3.95182e-05 -0.00437597 0)
(-4.66832e-05 -0.00466646 0)
(-5.44308e-05 -0.00494242 0)
(-6.27703e-05 -0.00520384 0)
(-7.16866e-05 -0.00545068 0)
(-8.1193e-05 -0.00568292 0)
(-9.12697e-05 -0.00590051 0)
(-0.000101936 -0.00610344 0)
(-0.000113164 -0.00629168 0)
(-0.000124983 -0.00646519 0)
(-0.000137353 -0.00662395 0)
(-0.00015032 -0.00676792 0)
(-0.000163833 -0.00689709 0)
(-0.000177972 -0.00701142 0)
(-0.00019264 -0.00711089 0)
(-0.000207693 -0.00719547 0)
(-0.000222689 -0.00726512 0)
(-0.000238447 -0.00731984 0)
(-0.000260349 -0.00735969 0)
(-0.00029719 -0.00738499 0)
(-0.000335292 -0.00739919 0)
(-0.000356509 -0.00740415 0)
(-0.000384545 -0.00740796 0)
(-0.000415774 -0.00741548 0)
(-0.000438977 -0.00744015 0)
(-0.000439854 -0.00747516 0)
(-0.000451537 -0.0075066 0)
(-0.000468869 -0.00753342 0)
(-0.000487058 -0.00755532 0)
(-0.00050494 -0.00757221 0)
(-0.000522696 -0.0075841 0)
(-0.000540497 -0.00759104 0)
(-0.000558359 -0.00759307 0)
(-0.000576248 -0.00759024 0)
(-0.000594128 -0.00758263 0)
(-0.000611974 -0.00757031 0)
(-0.000629765 -0.00755336 0)
(-0.000647477 -0.00753186 0)
(-0.000665094 -0.00750593 0)
(-5.96136e-08 -0.000227442 0)
(-6.41611e-07 -0.000668163 0)
(-1.84983e-06 -0.0010947 0)
(-3.6811e-06 -0.00150703 0)
(-6.12118e-06 -0.00190512 0)
(-9.16233e-06 -0.00228895 0)
(-1.28028e-05 -0.00265848 0)
(-1.70405e-05 -0.00301368 0)
(-2.18744e-05 -0.00335454 0)
(-2.73017e-05 -0.00368101 0)
(-3.33217e-05 -0.00399307 0)
(-3.99308e-05 -0.0042907 0)
(-4.71293e-05 -0.00457385 0)
(-5.49126e-05 -0.0048425 0)
(-6.3282e-05 -0.00509662 0)
(-7.22316e-05 -0.00533618 0)
(-8.17641e-05 -0.00556114 0)
(-9.18716e-05 -0.00577149 0)
(-0.000102559 -0.00596717 0)
(-0.000113816 -0.00614817 0)
(-0.000125649 -0.00631444 0)
(-0.000138045 -0.00646595 0)
(-0.000151017 -0.00660268 0)
(-0.000164554 -0.00672457 0)
(-0.000178677 -0.0068316 0)
(-0.000193304 -0.00692373 0)
(-0.000208278 -0.00700089 0)
(-0.000223496 -0.00706301 0)
(-0.000240352 -0.0071101 0)
(-0.000263419 -0.00714263 0)
(-0.000293985 -0.00716306 0)
(-0.000326668 -0.00717136 0)
(-0.000353942 -0.00717405 0)
(-0.000385824 -0.00717796 0)
(-0.000418158 -0.00719028 0)
(-0.000423522 -0.00722305 0)
(-0.000428454 -0.00725664 0)
(-0.000443645 -0.00728611 0)
(-0.000461571 -0.00731107 0)
(-0.000479414 -0.00733138 0)
(-0.000496959 -0.00734705 0)
(-0.000514466 -0.00735812 0)
(-0.000532028 -0.00736461 0)
(-0.00054963 -0.00736655 0)
(-0.000567237 -0.00736396 0)
(-0.000584824 -0.00735689 0)
(-0.000602371 -0.00734539 0)
(-0.000619858 -0.00732951 0)
(-0.000637266 -0.00730933 0)
(-0.000654578 -0.00728493 0)
(-5.34482e-08 -0.000223503 0)
(-5.99387e-07 -0.000656419 0)
(-1.74204e-06 -0.00107522 0)
(-3.48276e-06 -0.00147986 0)
(-5.80936e-06 -0.00187032 0)
(-8.71767e-06 -0.00224655 0)
(-1.22056e-05 -0.00260854 0)
(-1.62746e-05 -0.00295623 0)
(-2.09217e-05 -0.00328961 0)
(-2.61484e-05 -0.00360864 0)
(-3.195e-05 -0.00391329 0)
(-3.83287e-05 -0.00420353 0)
(-4.5278e-05 -0.00447934 0)
(-5.28012e-05 -0.00474067 0)
(-6.0889e-05 -0.00498751 0)
(-6.95466e-05 -0.00521982 0)
(-7.87611e-05 -0.00543758 0)
(-8.85405e-05 -0.00564076 0)
(-9.88665e-05 -0.00582932 0)
(-0.000109751 -0.00600324 0)
(-0.000121167 -0.0061625 0)
(-0.000133134 -0.00630705 0)
(-0.000145627 -0.00643689 0)
(-0.000158699 -0.00655197 0)
(-0.000172275 -0.00665228 0)
(-0.000186103 -0.00673778 0)
(-0.000199462 -0.00680843 0)
(-0.000213069 -0.00686419 0)
(-0.000234283 -0.00690512 0)
(-0.000279907 -0.00693146 0)
(-0.000329584 -0.0069469 0)
(-0.000356569 -0.00695203 0)
(-0.000386178 -0.00695526 0)
(-0.000414141 -0.00696183 0)
(-0.000433481 -0.00698475 0)
(-0.000433136 -0.00701982 0)
(-0.000443448 -0.0070519 0)
(-0.000459288 -0.00707987 0)
(-0.000475961 -0.00710346 0)
(-0.000492359 -0.00712261 0)
(-0.000508661 -0.00713732 0)
(-0.000525035 -0.00714764 0)
(-0.000541499 -0.00715357 0)
(-0.000558024 -0.00715516 0)
(-0.00057458 -0.00715245 0)
(-0.000591146 -0.00714547 0)
(-0.000607701 -0.00713428 0)
(-0.000624227 -0.00711895 0)
(-0.000640705 -0.00709955 0)
(-0.000657116 -0.00707616 0)
(-5.28586e-08 -0.000220178 0)
(-6.0155e-07 -0.000646359 0)
(-1.75057e-06 -0.00105835 0)
(-3.5008e-06 -0.00145613 0)
(-5.83899e-06 -0.00183968 0)
(-8.76012e-06 -0.00220897 0)
(-1.22614e-05 -0.00256399 0)
(-1.6344e-05 -0.0029047 0)
(-2.10046e-05 -0.00323108 0)
(-2.62447e-05 -0.00354312 0)
(-3.20598e-05 -0.00384079 0)
(-3.84524e-05 -0.00412406 0)
(-4.54166e-05 -0.00439291 0)
(-5.29562e-05 -0.00464732 0)
(-6.10634e-05 -0.00488726 0)
(-6.97441e-05 -0.00511272 0)
(-7.89877e-05 -0.00532368 0)
(-8.88033e-05 -0.0055201 0)
(-9.91761e-05 -0.00570199 0)
(-0.000110119 -0.0058693 0)
(-0.000121612 -0.00602205 0)
(-0.000133676 -0.00616018 0)
(-0.000146292 -0.00628373 0)
(-0.000159497 -0.00639263 0)
(-0.000173219 -0.00648693 0)
(-0.000187293 -0.00656656 0)
(-0.000201398 -0.00663157 0)
(-0.00021654 -0.00668195 0)
(-0.000237796 -0.00671804 0)
(-0.000271643 -0.00674082 0)
(-0.000310463 -0.0067513 0)
(-0.000337515 -0.00675512 0)
(-0.000368646 -0.00675956 0)
(-0.000399344 -0.00677046 0)
(-0.00040497 -0.0067995 0)
(-0.000408758 -0.00683056 0)
(-0.000423015 -0.00685863 0)
(-0.000440134 -0.00688323 0)
(-0.000457199 -0.00690411 0)
(-0.000473956 -0.00692115 0)
(-0.000490669 -0.00693427 0)
(-0.000507436 -0.00694341 0)
(-0.000524247 -0.00694855 0)
(-0.000541072 -0.00694966 0)
(-0.000557886 -0.00694675 0)
(-0.000574673 -0.00693985 0)
(-0.000591413 -0.00692899 0)
(-0.000608092 -0.00691423 0)
(-0.00062469 -0.00689564 0)
(-0.000641191 -0.00687329 0)
(-5.95244e-08 -0.000216147 0)
(-6.19326e-07 -0.000634388 0)
(-1.77812e-06 -0.00103854 0)
(-3.53345e-06 -0.00142858 0)
(-5.87241e-06 -0.00180445 0)
(-8.7897e-06 -0.00216613 0)
(-1.22835e-05 -0.00251359 0)
(-1.63537e-05 -0.00284679 0)
(-2.09983e-05 -0.0031657 0)
(-2.62166e-05 -0.00347029 0)
(-3.2006e-05 -0.00376054 0)
(-3.8366e-05 -0.00403642 0)
(-4.52938e-05 -0.00429789 0)
(-5.27889e-05 -0.00454494 0)
(-6.08484e-05 -0.00477752 0)
(-6.94721e-05 -0.00499562 0)
(-7.86571e-05 -0.00519921 0)
(-8.84036e-05 -0.00538826 0)
(-9.87085e-05 -0.00556274 0)
(-0.000109572 -0.00572263 0)
(-0.000120992 -0.00586789 0)
(-0.000132974 -0.00599852 0)
(-0.000145533 -0.00611447 0)
(-0.000158659 -0.00621572 0)
(-0.000172208 -0.00630224 0)
(-0.000185829 -0.00637399 0)
(-0.000199757 -0.0064309 0)
(-0.000217695 -0.00647304 0)
(-0.000248625 -0.00650083 0)
(-0.000285326 -0.0065178 0)
(-0.000317296 -0.00652312 0)
(-0.000351496 -0.0065257 0)
(-0.00038492 -0.00653121 0)
(-0.000407269 -0.00655161 0)
(-0.000403526 -0.00658568 0)
(-0.000412715 -0.00661764 0)
(-0.000428552 -0.00664615 0)
(-0.000445287 -0.0066709 0)
(-0.000461573 -0.0066918 0)
(-0.000477656 -0.00670881 0)
(-0.000493764 -0.00672192 0)
(-0.000509932 -0.00673115 0)
(-0.000526136 -0.00673648 0)
(-0.00054235 -0.00673794 0)
(-0.000558553 -0.00673555 0)
(-0.000574729 -0.00672934 0)
(-0.000590861 -0.00671937 0)
(-0.000606931 -0.0067057 0)
(-0.000622923 -0.00668839 0)
(-0.00063882 -0.00666751 0)
(-4.33796e-08 -0.000212914 0)
(-5.51696e-07 -0.00062457 0)
(-1.63417e-06 -0.00102204 0)
(-3.29448e-06 -0.00140533 0)
(-5.52433e-06 -0.00177439 0)
(-8.31586e-06 -0.00212923 0)
(-1.16713e-05 -0.00246983 0)
(-1.55859e-05 -0.00279615 0)
(-2.00637e-05 -0.00310819 0)
(-2.5097e-05 -0.00340592 0)
(-3.06915e-05 -0.00368931 0)
(-3.68367e-05 -0.00395835 0)
(-4.3541e-05 -0.00421302 0)
(-5.07902e-05 -0.00445328 0)
(-5.85965e-05 -0.00467912 0)
(-6.6941e-05 -0.00489051 0)
(-7.58415e-05 -0.00508744 0)
(-8.52725e-05 -0.00526987 0)
(-9.52586e-05 -0.00543778 0)
(-0.000105766 -0.00559115 0)
(-0.00011683 -0.00572995 0)
(-0.000128417 -0.00585418 0)
(-0.000140596 -0.00596379 0)
(-0.000153271 -0.00605878 0)
(-0.000166233 -0.0061391 0)
(-0.000178916 -0.00620476 0)
(-0.000192348 -0.00625571 0)
(-0.000213566 -0.00629211 0)
(-0.000253994 -0.0063144 0)
(-0.000300307 -0.00632561 0)
(-0.000327012 -0.00632878 0)
(-0.000356961 -0.00633207 0)
(-0.000385578 -0.00634165 0)
(-0.000391509 -0.00637031 0)
(-0.000393967 -0.00640243 0)
(-0.000406951 -0.00643183 0)
(-0.000422926 -0.006458 0)
(-0.000438917 -0.0064807 0)
(-0.000454632 -0.00649987 0)
(-0.000470332 -0.00651548 0)
(-0.000486119 -0.00652752 0)
(-0.00050198 -0.00653595 0)
(-0.000517881 -0.00654078 0)
(-0.000533795 -0.00654201 0)
(-0.0005497 -0.00653965 0)
(-0.000565578 -0.00653372 0)
(-0.000581408 -0.00652427 0)
(-0.000597173 -0.00651133 0)
(-0.000612854 -0.00649497 0)
(-0.000628436 -0.00647525 0)
(-6.80641e-08 -0.000209123 0)
(-6.6474e-07 -0.000613288 0)
(-1.88137e-06 -0.00100335 0)
(-3.70769e-06 -0.00137929 0)
(-6.12588e-06 -0.00174107 0)
(-9.12567e-06 -0.00208868 0)
(-1.27034e-05 -0.00242208 0)
(-1.68546e-05 -0.00274125 0)
(-2.15772e-05 -0.00304617 0)
(-2.68661e-05 -0.00333682 0)
(-3.27202e-05 -0.00361315 0)
(-3.91342e-05 -0.00387516 0)
(-4.61079e-05 -0.00412282 0)
(-5.36354e-05 -0.00435609 0)
(-6.17181e-05 -0.00457496 0)
(-7.03486e-05 -0.0047794 0)
(-7.95303e-05 -0.00496937 0)
(-8.92537e-05 -0.00514486 0)
(-9.95245e-05 -0.00530583 0)
(-0.00011033 -0.00545225 0)
(-0.000121683 -0.0055841 0)
(-0.000133578 -0.00570134 0)
(-0.000146033 -0.00580394 0)
(-0.00015895 -0.00589186 0)
(-0.000172094 -0.00596504 0)
(-0.000185349 -0.0060234 0)
(-0.000200686 -0.00606695 0)
(-0.000224442 -0.00609635 0)
(-0.00025866 -0.00611487 0)
(-0.000297778 -0.00612043 0)
(-0.000334164 -0.00612209 0)
(-0.000368764 -0.00612622 0)
(-0.000390837 -0.00614416 0)
(-0.000384543 -0.00617721 0)
(-0.000392275 -0.0062086 0)
(-0.000407223 -0.00623687 0)
(-0.00042313 -0.00626175 0)
(-0.000438545 -0.00628321 0)
(-0.00045374 -0.00630128 0)
(-0.000468963 -0.00631599 0)
(-0.000484255 -0.00632738 0)
(-0.00049959 -0.00633542 0)
(-0.000514942 -0.00634014 0)
(-0.000530293 -0.00634151 0)
(-0.000545627 -0.00633955 0)
(-0.000560929 -0.00633427 0)
(-0.000576183 -0.00632569 0)
(-0.000591372 -0.00631386 0)
(-0.000606481 -0.00629881 0)
(-0.000621495 -0.00628059 0)
(-3.94351e-08 -0.000205296 0)
(-5.10809e-07 -0.000601894 0)
(-1.51683e-06 -0.000984472 0)
(-3.06456e-06 -0.001353 0)
(-5.14409e-06 -0.00170744 0)
(-7.75337e-06 -0.00204777 0)
(-1.08894e-05 -0.00237396 0)
(-1.45552e-05 -0.00268597 0)
(-1.8746e-05 -0.00298379 0)
(-2.3465e-05 -0.00326738 0)
(-2.87045e-05 -0.00353671 0)
(-3.44692e-05 -0.00379177 0)
(-4.07476e-05 -0.00403252 0)
(-4.75467e-05 -0.00425894 0)
(-5.48503e-05 -0.004471 0)
(-6.26687e-05 -0.00466867 0)
(-7.09792e-05 -0.00485194 0)
(-7.97962e-05 -0.00502078 0)
(-8.90867e-05 -0.00517515 0)
(-9.88743e-05 -0.00531505 0)
(-0.000109129 -0.00544043 0)
(-0.000119918 -0.00555129 0)
(-0.000131147 -0.00564758 0)
(-0.000142476 -0.00572929 0)
(-0.000152971 -0.00579637 0)
(-0.00016356 -0.00584877 0)
(-0.000184046 -0.00588656 0)
(-0.000235778 -0.00591008 0)
(-0.000296761 -0.0059234 0)
(-0.00033027 -0.00592672 0)
(-0.000363614 -0.00592942 0)
(-0.000388942 -0.00593803 0)
(-0.000389871 -0.00596643 0)
(-0.000389816 -0.0059997 0)
(-0.000401088 -0.00603025 0)
(-0.000415372 -0.00605759 0)
(-0.000429641 -0.0060816 0)
(-0.000443661 -0.0061023 0)
(-0.000457713 -0.00611973 0)
(-0.000471897 -0.00613394 0)
(-0.000486193 -0.00614493 0)
(-0.000500566 -0.00615271 0)
(-0.000514988 -0.00615729 0)
(-0.00052944 -0.00615867 0)
(-0.000543904 -0.00615686 0)
(-0.000558362 -0.00615188 0)
(-0.000572796 -0.00614378 0)
(-0.000587188 -0.00613261 0)
(-0.000601521 -0.00611839 0)
(-0.000615778 -0.0061012 0)
(-5.5957e-08 -0.0002026 0)
(-5.8509e-07 -0.000593652 0)
(-1.67713e-06 -0.000970553 0)
(-3.32775e-06 -0.00133329 0)
(-5.52218e-06 -0.00168186 0)
(-8.25403e-06 -0.00201625 0)
(-1.15198e-05 -0.00233644 0)
(-1.53194e-05 -0.00264242 0)
(-1.96495e-05 -0.00293418 0)
(-2.45105e-05 -0.0032117 0)
(-2.98983e-05 -0.00347497 0)
(-3.58148e-05 -0.00372398 0)
(-4.22546e-05 -0.00395871 0)
(-4.92214e-05 -0.00417914 0)
(-5.67078e-05 -0.00438527 0)
(-6.47199e-05 -0.00457709 0)
(-7.32475e-05 -0.00475459 0)
(-8.22995e-05 -0.00491774 0)
(-9.18607e-05 -0.00506657 0)
(-0.000101947 -0.00520104 0)
(-0.000112549 -0.00532118 0)
(-0.000123704 -0.00542696 0)
(-0.000135337 -0.00551843 0)
(-0.000147205 -0.00559552 0)
(-0.000158857 -0.00565832 0)
(-0.000171495 -0.00570684 0)
(-0.000192027 -0.00574143 0)
(-0.000230388 -0.00576307 0)
(-0.000278815 -0.00577161 0)
(-0.000314652 -0.00577479 0)
(-0.000348461 -0.00577938 0)
(-0.000369763 -0.00579287 0)
(-0.000361836 -0.00581947 0)
(-0.000367942 -0.00584594 0)
(-0.000381677 -0.00587063 0)
(-0.000396484 -0.00589308 0)
(-0.000410824 -0.00591308 0)
(-0.000424966 -0.00593053 0)
(-0.000439169 -0.00594537 0)
(-0.000453477 -0.00595754 0)
(-0.000467861 -0.00596699 0)
(-0.000482292 -0.00597365 0)
(-0.000496751 -0.00597749 0)
(-0.000511221 -0.00597846 0)
(-0.000525686 -0.00597654 0)
(-0.000540127 -0.00597174 0)
(-0.000554527 -0.0059641 0)
(-0.000568866 -0.00595363 0)
(-0.000583128 -0.00594037 0)
(-0.000597296 -0.00592435 0)
(-5.1987e-08 -0.000198378 0)
(-5.53112e-07 -0.000581255 0)
(-1.59205e-06 -0.000950209 0)
(-3.16684e-06 -0.00130519 0)
(-5.26385e-06 -0.00164617 0)
(-7.87805e-06 -0.00197309 0)
(-1.10052e-05 -0.00228592 0)
(-1.46456e-05 -0.00258463 0)
(-1.87946e-05 -0.00286919 0)
(-2.34528e-05 -0.00313956 0)
(-2.86147e-05 -0.00339571 0)
(-3.42822e-05 -0.00363762 0)
(-4.0449e-05 -0.00386525 0)
(-4.71187e-05 -0.00407859 0)
(-5.42844e-05 -0.00427759 0)
(-6.1952e-05 -0.00446226 0)
(-7.01136e-05 -0.00463254 0)
(-7.87774e-05 -0.00478844 0)
(-8.79354e-05 -0.0049299 0)
(-9.76062e-05 -0.00505694 0)
(-0.000107796 -0.0051695 0)
(-0.000118518 -0.00526759 0)
(-0.000129614 -0.00535116 0)
(-0.000140725 -0.00542018 0)
(-0.000151989 -0.00547456 0)
(-0.000167211 -0.00551439 0)
(-0.000195886 -0.00554032 0)
(-0.000234836 -0.00555675 0)
(-0.000275008 -0.0055606 0)
(-0.000318192 -0.00556284 0)
(-0.000356286 -0.00557025 0)
(-0.000359167 -0.00559663 0)
(-0.000352297 -0.00562966 0)
(-0.000362428 -0.00566013 0)
(-0.000377075 -0.00568752 0)
(-0.000391619 -0.00571169 0)
(-0.000405598 -0.00573271 0)
(-0.000419447 -0.00575072 0)
(-0.000433349 -0.00576582 0)
(-0.000447305 -0.0057781 0)
(-0.000461286 -0.00578759 0)
(-0.000475272 -0.00579431 0)
(-0.000489253 -0.00579825 0)
(-0.000503219 -0.00579942 0)
(-0.000517157 -0.00579784 0)
(-0.000531053 -0.00579356 0)
(-0.000544891 -0.00578661 0)
(-0.000558658 -0.00577703 0)
(-0.000572338 -0.00576486 0)
(-0.000585915 -0.00575012 0)
(-3.14096e-08 -0.000196035 0)
(-4.27302e-07 -0.000573993 0)
(-1.28052e-06 -0.000937841 0)
(-2.59495e-06 -0.00128758 0)
(-4.36747e-06 -0.0016232 0)
(-6.58875e-06 -0.00194469 0)
(-9.2639e-06 -0.00225204 0)
(-1.2383e-05 -0.00254524 0)
(-1.59532e-05 -0.00282428 0)
(-1.99593e-05 -0.00308914 0)
(-2.4411e-05 -0.00333979 0)
(-2.92873e-05 -0.00357624 0)
(-3.46018e-05 -0.00379844 0)
(-4.0327e-05 -0.00400639 0)
(-4.64819e-05 -0.00420005 0)
(-5.30305e-05 -0.00437941 0)
(-5.99989e-05 -0.00454445 0)
(-6.7339e-05 -0.00469513 0)
(-7.50895e-05 -0.00483143 0)
(-8.32053e-05 -0.00495333 0)
(-9.17716e-05 -0.00506078 0)
(-0.000100667 -0.00515377 0)
(-0.000109555 -0.00523224 0)
(-0.000117495 -0.00529617 0)
(-0.000125638 -0.00534548 0)
(-0.000144416 -0.00538025 0)
(-0.000193741 -0.00540075 0)
(-0.000255238 -0.00541051 0)
(-0.000287938 -0.00541215 0)
(-0.000317049 -0.00541462 0)
(-0.000333049 -0.00542522 0)
(-0.000324526 -0.00545009 0)
(-0.000329189 -0.00547581 0)
(-0.000341305 -0.00550021 0)
(-0.000354734 -0.00552282 0)
(-0.000368012 -0.00554347 0)
(-0.000381316 -0.00556203 0)
(-0.000394827 -0.00557841 0)
(-0.000408538 -0.00559252 0)
(-0.00042239 -0.00560428 0)
(-0.000436335 -0.0056136 0)
(-0.000450338 -0.00562042 0)
(-0.000464373 -0.00562466 0)
(-0.000478416 -0.00562632 0)
(-0.000492443 -0.00562542 0)
(-0.00050643 -0.00562202 0)
(-0.000520354 -0.00561614 0)
(-0.000534194 -0.00560781 0)
(-0.000547932 -0.00559705 0)
(-0.000561549 -0.0055839 0)
(-6.50819e-08 -0.000192837 0)
(-6.1406e-07 -0.000564529 0)
(-1.71759e-06 -0.000922231 0)
(-3.3591e-06 -0.00126593 0)
(-5.51512e-06 -0.00159561 0)
(-8.17174e-06 -0.00191125 0)
(-1.13202e-05 -0.00221285 0)
(-1.49542e-05 -0.00250038 0)
(-1.90671e-05 -0.00277383 0)
(-2.36537e-05 -0.00303319 0)
(-2.87088e-05 -0.00327845 0)
(-3.42278e-05 -0.00350958 0)
(-4.02069e-05 -0.00372657 0)
(-4.66416e-05 -0.00392941 0)
(-5.35291e-05 -0.00411809 0)
(-6.08638e-05 -0.00429259 0)
(-6.86441e-05 -0.0044529 0)
(-7.68615e-05 -0.004599 0)
(-8.5519e-05 -0.0047309 0)
(-9.46171e-05 -0.00484856 0)
(-0.000104177 -0.00495201 0)
(-0.000114124 -0.0050412 0)
(-0.000124159 -0.00511616 0)
(-0.000133836 -0.00517685 0)
(-0.000144616 -0.00522337 0)
(-0.000164237 -0.00525592 0)
(-0.000203156 -0.00527599 0)
(-0.000255439 -0.00528206 0)
(-0.000300973 -0.00528461 0)
(-0.00033905 -0.00528909 0)
(-0.000341834 -0.00530274 0)
(-0.000329061 -0.00532187 0)
(-0.000336119 -0.00534001 0)
(-0.000348462 -0.0053572 0)
(-0.000360829 -0.00537344 0)
(-0.000372665 -0.00538864 0)
(-0.000384472 -0.00540263 0)
(-0.000396461 -0.00541525 0)
(-0.000408634 -0.00542629 0)
(-0.000420952 -0.0054356 0)
(-0.000433389 -0.00544302 0)
(-0.000445929 -0.00544838 0)
(-0.000458554 -0.00545159 0)
(-0.000471242 -0.00545266 0)
(-0.000483969 -0.0054516 0)
(-0.000496709 -0.00544841 0)
(-0.000509437 -0.00544311 0)
(-0.000522131 -0.00543568 0)
(-0.000534767 -0.00542612 0)
(-0.000547325 -0.00541444 0)
(-2.85099e-08 -0.000189039 0)
(-3.62276e-07 -0.000553419 0)
(-1.07823e-06 -0.000904045 0)
(-2.18367e-06 -0.00124087 0)
(-3.67733e-06 -0.00156383 0)
(-5.55977e-06 -0.0018729 0)
(-7.83566e-06 -0.00216802 0)
(-1.05076e-05 -0.00244917 0)
(-1.35807e-05 -0.0027163 0)
(-1.70562e-05 -0.00296939 0)
(-2.09397e-05 -0.0032084 0)
(-2.52317e-05 -0.00343331 0)
(-2.99388e-05 -0.00364408 0)
(-3.5061e-05 -0.00384069 0)
(-4.06068e-05 -0.00402312 0)
(-4.6575e-05 -0.00419135 0)
(-5.29763e-05 -0.00434535 0)
(-5.98091e-05 -0.0044851 0)
(-6.70943e-05 -0.00461059 0)
(-7.48453e-05 -0.00472181 0)
(-8.30793e-05 -0.00481872 0)
(-9.16443e-05 -0.00490133 0)
(-0.000100165 -0.00496959 0)
(-0.000108727 -0.00502347 0)
(-0.000121188 -0.00506302 0)
(-0.000147296 -0.00508881 0)
(-0.000187004 -0.0051051 0)
(-0.000233341 -0.00510888 0)
(-0.000284206 -0.00511208 0)
(-0.000325635 -0.00512157 0)
(-0.000306894 -0.00514453 0)
(-0.000301929 -0.00516825 0)
(-0.000312607 -0.00519004 0)
(-0.000326093 -0.00520983 0)
(-0.000338859 -0.00522773 0)
(-0.000351109 -0.00524384 0)
(-0.000363336 -0.00525817 0)
(-0.000375673 -0.00527071 0)
(-0.000388098 -0.00528142 0)
(-0.000400582 -0.00529021 0)
(-0.000413113 -0.00529697 0)
(-0.000425686 -0.00530163 0)
(-0.000438287 -0.00530421 0)
(-0.000450897 -0.0053048 0)
(-0.000463494 -0.00530346 0)
(-0.000476056 -0.00530024 0)
(-0.000488561 -0.00529512 0)
(-0.000500991 -0.00528812 0)
(-0.000513324 -0.00527923 0)
(-0.000525541 -0.00526848 0)
(-1.39031e-08 -0.000188278 0)
(-2.10744e-07 -0.000550685 0)
(-6.53161e-07 -0.000898951 0)
(-1.35595e-06 -0.00123308 0)
(-2.32667e-06 -0.00155308 0)
(-3.57399e-06 -0.00185894 0)
(-5.10523e-06 -0.00215065 0)
(-6.92831e-06 -0.00242822 0)
(-9.04767e-06 -0.00269162 0)
(-1.14692e-05 -0.00294085 0)
(-1.41947e-05 -0.00317589 0)
(-1.72291e-05 -0.00339672 0)
(-2.05717e-05 -0.00360332 0)
(-2.42273e-05 -0.00379568 0)
(-2.81931e-05 -0.00397377 0)
(-3.24737e-05 -0.00413755 0)
(-3.70629e-05 -0.00428702 0)
(-4.19685e-05 -0.00442212 0)
(-4.71968e-05 -0.00454284 0)
(-5.27871e-05 -0.00464914 0)
(-5.86989e-05 -0.00474097 0)
(-6.45954e-05 -0.00481829 0)
(-6.97058e-05 -0.00488105 0)
(-7.48236e-05 -0.00492913 0)
(-8.90228e-05 -0.0049626 0)
(-0.000130193 -0.00498187 0)
(-0.000186156 -0.00499111 0)
(-0.000230333 -0.00499146 0)
(-0.000272845 -0.0049932 0)
(-0.000288201 -0.00500079 0)
(-0.000265748 -0.00501537 0)
(-0.000268145 -0.00503048 0)
(-0.00027889 -0.00504531 0)
(-0.000290534 -0.00505961 0)
(-0.000301749 -0.00507324 0)
(-0.000313021 -0.00508607 0)
(-0.000324604 -0.00509793 0)
(-0.000336486 -0.00510867 0)
(-0.000348595 -0.00511808 0)
(-0.00036088 -0.00512595 0)
(-0.000373307 -0.00513207 0)
(-0.000385845 -0.00513639 0)
(-0.000398456 -0.00513899 0)
(-0.000411102 -0.00513997 0)
(-0.000423744 -0.00513937 0)
(-0.000436348 -0.0051372 0)
(-0.000448879 -0.00513342 0)
(-0.000461309 -0.00512802 0)
(-0.000473611 -0.00512099 0)
(-0.000485761 -0.00511232 0)
(-4.49309e-08 -0.000186354 0)
(-4.39648e-07 -0.000544924 0)
(-1.23483e-06 -0.000889364 0)
(-2.41805e-06 -0.00121968 0)
(-3.96932e-06 -0.00153587 0)
(-5.87709e-06 -0.00183793 0)
(-8.1313e-06 -0.00212586 0)
(-1.07267e-05 -0.00239965 0)
(-1.36538e-05 -0.00265931 0)
(-1.69089e-05 -0.00290482 0)
(-2.04817e-05 -0.00313617 0)
(-2.43702e-05 -0.00335335 0)
(-2.85624e-05 -0.00355635 0)
(-3.30577e-05 -0.00374516 0)
(-3.7841e-05 -0.00391977 0)
(-4.29127e-05 -0.00408016 0)
(-4.82519e-05 -0.00422631 0)
(-5.38637e-05 -0.0043582 0)
(-5.9738e-05 -0.00447583 0)
(-6.59111e-05 -0.00457917 0)
(-7.22952e-05 -0.0046682 0)
(-7.84858e-05 -0.00474289 0)
(-8.36778e-05 -0.00480325 0)
(-8.92024e-05 -0.00484923 0)
(-0.000105781 -0.00488093 0)
(-0.000150595 -0.00489866 0)
(-0.000212739 -0.00490391 0)
(-0.000259316 -0.00490446 0)
(-0.000296264 -0.00490689 0)
(-0.000282831 -0.00491218 0)
(-0.000269012 -0.00491935 0)
(-0.000274565 -0.00492656 0)
(-0.00028413 -0.00493381 0)
(-0.000293404 -0.00494112 0)
(-0.000302329 -0.00494848 0)
(-0.00031143 -0.0049558 0)
(-0.000320857 -0.00496291 0)
(-0.000330579 -0.00496957 0)
(-0.000340549 -0.00497549 0)
(-0.000350741 -0.00498035 0)
(-0.000361128 -0.00498398 0)
(-0.000371674 -0.0049864 0)
(-0.000382341 -0.0049877 0)
(-0.000393091 -0.00498798 0)
(-0.000403888 -0.00498723 0)
(-0.000414692 -0.00498545 0)
(-0.000425462 -0.00498257 0)
(-0.00043616 -0.00497851 0)
(-0.000446752 -0.0049732 0)
(-0.000457214 -0.00496656 0)
(-3.58587e-08 -0.000183148 0)
(-3.78336e-07 -0.000535667 0)
(-1.07871e-06 -0.000874371 0)
(-2.12896e-06 -0.00119922 0)
(-3.51317e-06 -0.00151019 0)
(-5.22124e-06 -0.00180725 0)
(-7.24535e-06 -0.00209036 0)
(-9.58022e-06 -0.00235951 0)
(-1.22187e-05 -0.00261468 0)
(-1.51566e-05 -0.00285584 0)
(-1.83864e-05 -0.00308297 0)
(-2.19053e-05 -0.00329606 0)
(-2.57051e-05 -0.0034951 0)
(-2.97843e-05 -0.00368008 0)
(-3.41334e-05 -0.00385097 0)
(-3.87518e-05 -0.00400779 0)
(-4.36268e-05 -0.00415051 0)
(-4.87634e-05 -0.00427915 0)
(-5.41597e-05 -0.00439369 0)
(-5.98412e-05 -0.00449413 0)
(-6.57256e-05 -0.00458049 0)
(-7.14766e-05 -0.00465277 0)
(-7.65734e-05 -0.00471099 0)
(-8.26336e-05 -0.00475518 0)
(-9.82742e-05 -0.00478545 0)
(-0.000136775 -0.00480325 0)
(-0.000193831 -0.00480784 0)
(-0.000251408 -0.00481082 0)
(-0.00029652 -0.0048156 0)
(-0.000261158 -0.00482158 0)
(-0.000251583 -0.00482733 0)
(-0.000258572 -0.00483268 0)
(-0.000267865 -0.00483782 0)
(-0.000276102 -0.00484291 0)
(-0.000283815 -0.00484799 0)
(-0.000291563 -0.00485303 0)
(-0.000299467 -0.00485787 0)
(-0.000307503 -0.00486223 0)
(-0.000315655 -0.00486577 0)
(-0.000323915 -0.00486834 0)
(-0.000332253 -0.00487003 0)
(-0.000340632 -0.00487088 0)
(-0.000349026 -0.00487092 0)
(-0.000357425 -0.00487024 0)
(-0.000365817 -0.0048689 0)
(-0.000374182 -0.00486702 0)
(-0.000382481 -0.00486453 0)
(-0.000390671 -0.00486136 0)
(-0.000398715 -0.00485732 0)
(-0.000406604 -0.00485212 0)
(-0.000710942 -0.00838604 0)
(-0.000729922 -0.00834401 0)
(-0.000748722 -0.008297 0)
(-0.000767322 -0.00824519 0)
(-0.000785705 -0.00818877 0)
(-0.000803857 -0.00812793 0)
(-0.000821761 -0.00806287 0)
(-0.000839405 -0.0079938 0)
(-0.000856776 -0.00792092 0)
(-0.000873861 -0.00784444 0)