/*--------------------------------*- C++ -*----------------------------------*\
| =========                 |                                                 |
| \\      /  F ield         | OpenFOAM: The Open Source CFD Toolbox           |
|  \\    /   O peration     | Version:  2.4.0                                 |
|   \\  /    A nd           | Web:      www.OpenFOAM.org                      |
|    \\/     M anipulation  |                                                 |
\*---------------------------------------------------------------------------*/
FoamFile
{
    version     2.0;
    format      ascii;
    class       volScalarField;
    location    "0.008";
    object      p_rgh;
}
// * * * * * * * * * * * * * * * * * * * * * * * * * * * * * * * * * * * * * //

dimensions      [1 -1 -2 0 0 0 0];

internalField   nonuniform List<scalar> 
125
(
0.0290706
0.000895396
0.037662
-0.456987
-0.0587445
0.0112678
-0.00188032
-0.0118746
-0.0137218
-0.0131883
-0.0127868
-0.0126964
-0.0126949
-0.0126877
-0.0126684
-0.0126457
-0.0126231
-0.0126009
-0.0125788
-0.0125565
-0.0125342
-0.0125118
-0.0124893
-0.0124667
-0.012444
-0.0124213
-0.0123985
-0.0123756
-0.0123526
-0.0123295
-0.0123063
-0.0122831
-0.0122598
-0.0122364
-0.0122129
-0.0121893
-0.0121656
-0.0121419
-0.012118
-0.0120941
-0.0120701
-0.012046
-0.0120218
-0.0119975
-0.0119732
-0.0119487
-0.0119242
-0.0118996
-0.0118748
-0.01185
-0.00570116
-0.00565424
-0.00560715
-0.00555989
-0.00551245
-0.00546484
-0.00541706
-0.00536909
-0.00532095
-0.00527263
-0.00522414
-0.00517546
-0.00512661
-0.00507757
-0.00502835
-0.00497895
-0.00492937
-0.00487961
-0.00482966
-0.00477953
-0.00472921
-0.0046787
-0.00462801
-0.00457714
-0.00452607
-0.00447482
-0.00442337
-0.00437174
-0.00431992
-0.0042679
-0.00421569
-0.00416329
-0.0041107
-0.00405791
-0.00400493
-0.00395175
-0.00389838
-0.00384481
-0.00379104
-0.00373707
-0.00368291
-0.00362854
-0.00357398
-0.00351921
-0.00346424
-0.00340907
-0.0033537
-0.00329812
-0.00324233
-0.00318634
-0.00313015
-0.00307375
-0.00301713
-0.00296032
-0.00290329
-0.00284605
-0.0027886
-0.00273094
-0.00267307
-0.00261498
-0.00255668
-0.00249817
-0.00243944
-0.00238049
-0.00232133
-0.00226195
-0.00220235
-0.00214253
-0.00208249
-0.00202223
-0.00196175
-0.00190106
-0.00184015
-0.00177898
-0.00171733
)
;

boundaryField
{
    BotWall
    {
        type            fixedFluxPressure;
        gradient        uniform 0;
        value           uniform 0.0290706;
    }
    FreeStream
    {
        type            totalPressure;
        rho             rho;
        psi             none;
        gamma           1;
        p0              uniform 0;
        value           uniform -0.00168632;
    }
    FrontNBack
    {
        type            empty;
    }
    LeftSide
    {
        type            symmetryPlane;
    }
    RightSide
    {
        type            symmetryPlane;
    }
    procBoundary2to0
    {
        type            processor;
        value           nonuniform List<scalar> 
75
(
-0.00571965
-0.00567243
-0.00562505
-0.00557749
-0.00552976
-0.00548185
-0.00543377
-0.00538551
-0.00533708
-0.00528847
-0.00523968
-0.00519071
-0.00514157
-0.00509224
-0.00504274
-0.00499305
-0.00494319
-0.00489314
-0.0048429
-0.00479249
-0.00474189
-0.0046911
-0.00464013
-0.00458897
-0.00453763
-0.0044861
-0.00443437
-0.00438246
-0.00433036
-0.00427807
-0.00422559
-0.00417291
-0.00412005
-0.00406698
-0.00401373
-0.00396028
-0.00390663
-0.00385279
-0.00379875
-0.00374451
-0.00369007
-0.00363544
-0.0035806
-0.00352556
-0.00347032
-0.00341488
-0.00335924
-0.00330339
-0.00324733
-0.00319107
-0.0031346
-0.00307793
-0.00302105
-0.00296396
-0.00290666
-0.00284915
-0.00279143
-0.00273349
-0.00267535
-0.00261699
-0.00255841
-0.00249962
-0.00244062
-0.0023814
-0.00232196
-0.0022623
-0.00220242
-0.00214232
-0.002082
-0.00202146
-0.0019607
-0.00189971
-0.00183851
-0.00177705
-0.00171525
)
;
    }
    procBoundary2to1
    {
        type            processor;
        value           uniform -0.0118251;
    }
    procBoundary2to3
    {
        type            processor;
        value           uniform -0.00574792;
    }
    procBoundary2to4
    {
        type            processor;
        value           nonuniform List<scalar> 
75
(
0.0309785
0.000744066
0.045428
-0.474209
-0.0616365
0.0120165
-0.00141123
-0.0117103
-0.0136341
-0.0130912
-0.0126787
-0.012586
-0.0125854
-0.0125791
-0.0125604
-0.0125382
-0.0125161
-0.0124944
-0.0124727
-0.012451
-0.0124292
-0.0124072
-0.0123852
-0.0123632
-0.012341
-0.0123187
-0.0122964
-0.012274
-0.0122515
-0.0122289
-0.0122062
-0.0121835
-0.0121606
-0.0121377
-0.0121147
-0.0120916
-0.0120684
-0.0120451
-0.0120218
-0.0119983
-0.0119748
-0.0119512
-0.0119275
-0.0119037
-0.0118798
-0.0118558
-0.0118318
-0.0118076
-0.0117834
-0.011759
-0.00312706
-0.00307078
-0.00301429
-0.0029576
-0.00290069
-0.00284358
-0.00278625
-0.00272872
-0.00267097
-0.00261301
-0.00255484
-0.00249645
-0.00243785
-0.00237903
-0.00232
-0.00226075
-0.00220128
-0.0021416
-0.00208169
-0.00202156
-0.00196121
-0.00190065
-0.00183988
-0.00177885
-0.00171731
)
;
    }
    procBoundary2to5
    {
        type            processor;
        value           nonuniform List<scalar> 
50
(
-0.00569254
-0.00564573
-0.00559874
-0.00555158
-0.00550424
-0.00545673
-0.00540905
-0.00536118
-0.00531314
-0.00526493
-0.00521653
-0.00516796
-0.00511921
-0.00507028
-0.00502116
-0.00497187
-0.00492239
-0.00487273
-0.00482289
-0.00477287
-0.00472265
-0.00467226
-0.00462168
-0.00457091
-0.00451995
-0.00446881
-0.00441748
-0.00436596
-0.00431424
-0.00426234
-0.00421025
-0.00415796
-0.00410548
-0.00405281
-0.00399994
-0.00394688
-0.00389362
-0.00384017
-0.00378652
-0.00373267
-0.00367862
-0.00362438
-0.00356993
-0.00351528
-0.00346044
-0.00340538
-0.00335013
-0.00329467
-0.00323901
-0.00318314
)
;
    }
}


// ************************************************************************* //
