/*--------------------------------*- C++ -*----------------------------------*\
| =========                 |                                                 |
| \\      /  F ield         | OpenFOAM: The Open Source CFD Toolbox           |
|  \\    /   O peration     | Version:  2.4.0                                 |
|   \\  /    A nd           | Web:      www.OpenFOAM.org                      |
|    \\/     M anipulation  |                                                 |
\*---------------------------------------------------------------------------*/
FoamFile
{
    version     2.0;
    format      ascii;
    class       surfaceScalarField;
    location    "0.008";
    object      phi;
}
// * * * * * * * * * * * * * * * * * * * * * * * * * * * * * * * * * * * * * //

dimensions      [0 3 -1 0 0 0 0];

internalField   nonuniform List<scalar> 
123
(
-3.09153e-16
-1.34538e-15
-1.26835e-14
-3.8378e-09
-3.83781e-09
-3.83782e-09
-3.83784e-09
-3.83786e-09
-3.83789e-09
-3.83793e-09
-3.83797e-09
-3.83801e-09
-3.83806e-09
-3.83812e-09
-3.83818e-09
-3.83824e-09
-3.83831e-09
-3.83838e-09
-3.83845e-09
-3.83853e-09
-3.8386e-09
-3.83868e-09
-3.83876e-09
-3.83884e-09
-3.83892e-09
-3.839e-09
-3.83908e-09
-3.83916e-09
-3.83924e-09
-3.83932e-09
-3.83939e-09
-3.83947e-09
-3.83954e-09
-3.83961e-09
-3.83968e-09
-3.83975e-09
-3.83981e-09
-3.83987e-09
-3.83993e-09
-3.83999e-09
-3.84004e-09
-3.84009e-09
-3.84014e-09
-3.84019e-09
-3.84024e-09
-3.84028e-09
-3.84033e-09
-3.84037e-09
-3.84041e-09
-3.84638e-09
-3.84638e-09
-3.84637e-09
-3.84636e-09
-3.84635e-09
-3.84634e-09
-3.84634e-09
-3.84633e-09
-3.84632e-09
-3.84631e-09
-3.8463e-09
-3.8463e-09
-3.84629e-09
-3.84628e-09
-3.84628e-09
-3.84627e-09
-3.84626e-09
-3.84625e-09
-3.84625e-09
-3.84624e-09
-3.84623e-09
-3.84623e-09
-3.84622e-09
-3.84621e-09
-3.84621e-09
-3.8462e-09
-3.8462e-09
-3.84619e-09
-3.84618e-09
-3.84618e-09
-3.84617e-09
-3.84617e-09
-3.84616e-09
-3.84616e-09
-3.84616e-09
-3.84615e-09
-3.84615e-09
-3.84614e-09
-3.84614e-09
-3.84614e-09
-3.84614e-09
-3.84613e-09
-3.84613e-09
-3.84613e-09
-3.84613e-09
-3.84613e-09
-3.84613e-09
-3.84613e-09
-3.84613e-09
-3.84613e-09
-3.84613e-09
-3.84613e-09
-3.84613e-09
-3.84613e-09
-3.84613e-09
-3.84614e-09
-3.84614e-09
-3.84614e-09
-3.84615e-09
-3.84615e-09
-3.84615e-09
-3.84616e-09
-3.84617e-09
-3.84617e-09
-3.84618e-09
-3.84619e-09
-3.8462e-09
-3.84621e-09
-3.84622e-09
-3.84623e-09
-3.84624e-09
-3.84626e-09
-3.84627e-09
-3.84628e-09
)
;

boundaryField
{
    BotWall
    {
        type            calculated;
        value           uniform 2.93222e-21;
    }
    FreeStream
    {
        type            calculated;
        value           uniform -3.8463e-09;
    }
    FrontNBack
    {
        type            empty;
        value           nonuniform 0();
    }
    LeftSide
    {
        type            symmetryPlane;
        value           uniform 0;
    }
    RightSide
    {
        type            symmetryPlane;
        value           nonuniform 0();
    }
    procBoundary2to0
    {
        type            processor;
        value           nonuniform List<scalar> 
75
(
-1.1797e-14
-1.17485e-14
-1.16992e-14
-1.16488e-14
-1.15971e-14
-1.15438e-14
-1.14885e-14
-1.14309e-14
-1.13707e-14
-1.13073e-14
-1.12404e-14
-1.11696e-14
-1.10942e-14
-1.10138e-14
-1.09279e-14
-1.0836e-14
-1.07374e-14
-1.06316e-14
-1.05181e-14
-1.03962e-14
-1.02656e-14
-1.01255e-14
-9.97562e-15
-9.8154e-15
-9.64446e-15
-9.46244e-15
-9.26905e-15
-9.06407e-15
-8.84737e-15
-8.61891e-15
-8.37874e-15
-8.12703e-15
-7.86406e-15
-7.59022e-15
-7.30603e-15
-7.01212e-15
-6.70927e-15
-6.39835e-15
-6.08034e-15
-5.75633e-15
-5.42747e-15
-5.09496e-15
-4.76e-15
-4.42376e-15
-4.08727e-15
-3.75135e-15
-3.41649e-15
-3.08271e-15
-2.74937e-15
-2.41502e-15
-2.07713e-15
-1.73198e-15
-1.37447e-15
-9.98073e-16
-5.94891e-16
-1.55937e-16
3.28995e-16
8.69326e-16
1.47313e-15
2.14674e-15
2.89291e-15
3.70962e-15
4.58913e-15
5.51754e-15
6.47504e-15
7.43695e-15
8.37553e-15
9.26248e-15
1.00716e-14
1.07814e-14
1.1377e-14
1.18511e-14
1.2204e-14
1.24424e-14
1.25699e-14
)
;
    }
    procBoundary2to1
    {
        type            processor;
        value           uniform -3.84044e-09;
    }
    procBoundary2to3
    {
        type            processor;
        value           uniform 3.84639e-09;
    }
    procBoundary2to4
    {
        type            processor;
        value           nonuniform List<scalar> 
75
(
3.09149e-16
1.03623e-15
1.64184e-15
3.78322e-15
7.13463e-15
1.22874e-14
1.83772e-14
2.43886e-14
3.0161e-14
3.56881e-14
4.09786e-14
4.60189e-14
5.07874e-14
5.5262e-14
5.9422e-14
6.32478e-14
6.67215e-14
6.98275e-14
7.25528e-14
7.48876e-14
7.6826e-14
7.83658e-14
7.95091e-14
8.02621e-14
8.06354e-14
8.06435e-14
8.03048e-14
7.96412e-14
7.86775e-14
7.74411e-14
7.59616e-14
7.42697e-14
7.23971e-14
7.03757e-14
6.82371e-14
6.60121e-14
6.37301e-14
6.14187e-14
5.91036e-14
5.6808e-14
5.45526e-14
5.23555e-14
5.02317e-14
4.8194e-14
4.6252e-14
4.44131e-14
4.26822e-14
4.1062e-14
3.95533e-14
3.8155e-14
2.61888e-15
2.58332e-15
2.54562e-15
2.50454e-15
2.45856e-15
2.40594e-15
2.34475e-15
2.27305e-15
2.18906e-15
2.09138e-15
1.97927e-15
1.85287e-15
1.71345e-15
1.56348e-15
1.40662e-15
1.24755e-15
1.09159e-15
9.44237e-16
8.10578e-16
6.9479e-16
5.99719e-16
5.26686e-16
4.75524e-16
4.44794e-16
4.30818e-16
)
;
    }
    procBoundary2to5
    {
        type            processor;
        value           nonuniform List<scalar> 
50
(
3.75144e-15
3.73887e-15
3.72648e-15
3.71425e-15
3.70218e-15
3.69024e-15
3.67843e-15
3.6667e-15
3.65504e-15
3.64339e-15
3.63171e-15
3.61996e-15
3.60807e-15
3.59599e-15
3.58365e-15
3.57098e-15
3.5579e-15
3.54434e-15
3.53022e-15
3.51545e-15
3.49996e-15
3.48366e-15
3.46647e-15
3.44833e-15
3.42915e-15
3.40888e-15
3.38747e-15
3.36486e-15
3.34101e-15
3.31592e-15
3.28957e-15
3.26197e-15
3.23314e-15
3.20313e-15
3.172e-15
3.13982e-15
3.1067e-15
3.07276e-15
3.03812e-15
3.00295e-15
2.96739e-15
2.93163e-15
2.89583e-15
2.86017e-15
2.82477e-15
2.78977e-15
2.7552e-15
2.72104e-15
2.68716e-15
2.65326e-15
)
;
    }
}


// ************************************************************************* //
