/*--------------------------------*- C++ -*----------------------------------*\
| =========                 |                                                 |
| \\      /  F ield         | OpenFOAM: The Open Source CFD Toolbox           |
|  \\    /   O peration     | Version:  2.4.0                                 |
|   \\  /    A nd           | Web:      www.OpenFOAM.org                      |
|    \\/     M anipulation  |                                                 |
\*---------------------------------------------------------------------------*/
FoamFile
{
    version     2.0;
    format      ascii;
    class       volVectorField;
    location    "0.008";
    object      U;
}
// * * * * * * * * * * * * * * * * * * * * * * * * * * * * * * * * * * * * * //

dimensions      [0 1 -1 0 0 0 0];

internalField   nonuniform List<vector> 
125
(
(3.14443e-07 3.21898e-05 0)
(1.00664e-06 -6.59754e-05 0)
(1.68545e-06 0.00028024 0)
(3.22655e-06 -0.00248082 0)
(6.39153e-06 -0.0231648 0)
(1.13697e-05 -0.0227735 0)
(1.66266e-05 -0.019684 0)
(2.17924e-05 -0.0189807 0)
(2.67744e-05 -0.0190594 0)
(3.15366e-05 -0.0191706 0)
(3.60712e-05 -0.0191982 0)
(4.03668e-05 -0.019195 0)
(4.44075e-05 -0.0191909 0)
(4.81764e-05 -0.0191901 0)
(5.16568e-05 -0.0191905 0)
(5.4833e-05 -0.019191 0)
(5.76907e-05 -0.0191914 0)
(6.02175e-05 -0.0191917 0)
(6.24034e-05 -0.0191921 0)
(6.42415e-05 -0.0191924 0)
(6.57279e-05 -0.0191928 0)
(6.68624e-05 -0.0191932 0)
(6.76483e-05 -0.0191936 0)
(6.8093e-05 -0.019194 0)
(6.82071e-05 -0.0191944 0)
(6.80052e-05 -0.0191948 0)
(6.75048e-05 -0.0191952 0)
(6.67267e-05 -0.0191956 0)
(6.56939e-05 -0.019196 0)
(6.44318e-05 -0.0191964 0)
(6.29669e-05 -0.0191968 0)
(6.13273e-05 -0.0191972 0)
(5.95411e-05 -0.0191975 0)
(5.76368e-05 -0.0191979 0)
(5.56421e-05 -0.0191982 0)
(5.35838e-05 -0.0191986 0)
(5.14874e-05 -0.0191989 0)
(4.93767e-05 -0.0191992 0)
(4.72735e-05 -0.0191995 0)
(4.51973e-05 -0.0191998 0)
(4.31654e-05 -0.0192001 0)
(4.11926e-05 -0.0192003 0)
(3.92912e-05 -0.0192006 0)
(3.74711e-05 -0.0192008 0)
(3.57401e-05 -0.0192011 0)
(3.41034e-05 -0.0192013 0)
(3.25645e-05 -0.0192015 0)
(3.11248e-05 -0.0192017 0)
(2.97843e-05 -0.0192019 0)
(2.85413e-05 -0.0192021 0)
(5.05349e-06 -0.0192319 0)
(4.98112e-06 -0.0192319 0)
(4.90866e-06 -0.0192319 0)
(4.83599e-06 -0.0192318 0)
(4.76297e-06 -0.0192318 0)
(4.68946e-06 -0.0192317 0)
(4.61532e-06 -0.0192317 0)
(4.54035e-06 -0.0192317 0)
(4.4644e-06 -0.0192316 0)
(4.38726e-06 -0.0192316 0)
(4.30874e-06 -0.0192315 0)
(4.22862e-06 -0.0192315 0)
(4.14668e-06 -0.0192315 0)
(4.06269e-06 -0.0192314 0)
(3.97641e-06 -0.0192314 0)
(3.88762e-06 -0.0192314 0)
(3.79607e-06 -0.0192313 0)
(3.70152e-06 -0.0192313 0)
(3.60374e-06 -0.0192312 0)
(3.5025e-06 -0.0192312 0)
(3.39758e-06 -0.0192312 0)
(3.28878e-06 -0.0192311 0)
(3.17592e-06 -0.0192311 0)
(3.05882e-06 -0.0192311 0)
(2.93735e-06 -0.0192311 0)
(2.8114e-06 -0.019231 0)
(2.6809e-06 -0.019231 0)
(2.5458e-06 -0.019231 0)
(2.40612e-06 -0.0192309 0)
(2.26189e-06 -0.0192309 0)
(2.11321e-06 -0.0192309 0)
(1.96023e-06 -0.0192309 0)
(1.80315e-06 -0.0192308 0)
(1.64221e-06 -0.0192308 0)
(1.47773e-06 -0.0192308 0)
(1.31006e-06 -0.0192308 0)
(1.13961e-06 -0.0192307 0)
(9.6685e-07 -0.0192307 0)
(7.92276e-07 -0.0192307 0)
(6.16429e-07 -0.0192307 0)
(4.39877e-07 -0.0192307 0)
(2.63196e-07 -0.0192307 0)
(8.69573e-08 -0.0192307 0)
(-8.83026e-08 -0.0192307 0)
(-2.62113e-07 -0.0192307 0)
(-4.34111e-07 -0.0192306 0)
(-6.04099e-07 -0.0192306 0)
(-7.721e-07 -0.0192306 0)
(-9.38445e-07 -0.0192306 0)
(-1.10384e-06 -0.0192306 0)
(-1.26947e-06 -0.0192306 0)
(-1.43705e-06 -0.0192306 0)
(-1.60892e-06 -0.0192306 0)
(-1.78801e-06 -0.0192307 0)
(-1.97785e-06 -0.0192307 0)
(-2.18241e-06 -0.0192307 0)
(-2.40588e-06 -0.0192307 0)
(-2.65234e-06 -0.0192307 0)
(-2.92533e-06 -0.0192307 0)
(-3.22729e-06 -0.0192307 0)
(-3.55904e-06 -0.0192308 0)
(-3.91924e-06 -0.0192308 0)
(-4.30408e-06 -0.0192308 0)
(-4.70704e-06 -0.0192308 0)
(-5.11916e-06 -0.0192309 0)
(-5.52948e-06 -0.0192309 0)
(-5.92592e-06 -0.019231 0)
(-6.29638e-06 -0.019231 0)
(-6.62992e-06 -0.0192311 0)
(-6.91781e-06 -0.0192311 0)
(-7.15441e-06 -0.0192312 0)
(-7.3374e-06 -0.0192313 0)
(-7.46775e-06 -0.0192313 0)
(-7.54903e-06 -0.0192314 0)
(-7.58656e-06 -0.0192314 0)
)
;

boundaryField
{
    BotWall
    {
        type            fixedValue;
        value           uniform (0 0 0);
    }
    FreeStream
    {
        type            zeroGradient;
    }
    FrontNBack
    {
        type            empty;
    }
    LeftSide
    {
        type            symmetryPlane;
    }
    RightSide
    {
        type            symmetryPlane;
    }
    procBoundary2to0
    {
        type            processor;
        value           nonuniform List<vector> 
75
(
(6.2641e-06 -0.0192184 0)
(6.2485e-06 -0.0192184 0)
(6.2327e-06 -0.0192185 0)
(6.21662e-06 -0.0192185 0)
(6.20012e-06 -0.0192186 0)
(6.18309e-06 -0.0192186 0)
(6.16539e-06 -0.0192187 0)
(6.14688e-06 -0.0192188 0)
(6.1274e-06 -0.0192188 0)
(6.10679e-06 -0.0192189 0)
(6.08488e-06 -0.0192189 0)
(6.06148e-06 -0.019219 0)
(6.03641e-06 -0.019219 0)
(6.00947e-06 -0.0192191 0)
(5.98046e-06 -0.0192192 0)
(5.94918e-06 -0.0192192 0)
(5.91542e-06 -0.0192193 0)
(5.87899e-06 -0.0192193 0)
(5.83967e-06 -0.0192194 0)
(5.79728e-06 -0.0192194 0)
(5.75163e-06 -0.0192195 0)
(5.70255e-06 -0.0192195 0)
(5.64985e-06 -0.0192196 0)
(5.59342e-06 -0.0192196 0)
(5.5331e-06 -0.0192197 0)
(5.46881e-06 -0.0192197 0)
(5.40047e-06 -0.0192198 0)
(5.32802e-06 -0.0192198 0)
(5.25146e-06 -0.0192199 0)
(5.1708e-06 -0.0192199 0)
(5.0861e-06 -0.0192199 0)
(4.99745e-06 -0.01922 0)
(4.905e-06 -0.01922 0)
(4.80893e-06 -0.0192201 0)
(4.70945e-06 -0.0192201 0)
(4.60683e-06 -0.0192201 0)
(4.50137e-06 -0.0192202 0)
(4.39343e-06 -0.0192202 0)
(4.28338e-06 -0.0192202 0)
(4.17163e-06 -0.0192203 0)
(4.05861e-06 -0.0192203 0)
(3.94476e-06 -0.0192203 0)
(3.83053e-06 -0.0192203 0)
(3.71632e-06 -0.0192204 0)
(3.60252e-06 -0.0192204 0)
(3.48941e-06 -0.0192204 0)
(3.37718e-06 -0.0192204 0)
(3.26585e-06 -0.0192204 0)
(3.15521e-06 -0.0192205 0)
(3.04478e-06 -0.0192205 0)
(2.93375e-06 -0.0192205 0)
(2.8209e-06 -0.0192205 0)
(2.70458e-06 -0.0192205 0)
(2.58269e-06 -0.0192205 0)
(2.45269e-06 -0.0192205 0)
(2.31171e-06 -0.0192205 0)
(2.15671e-06 -0.0192205 0)
(1.98472e-06 -0.0192205 0)
(1.79311e-06 -0.0192205 0)
(1.58006e-06 -0.0192205 0)
(1.34485e-06 -0.0192205 0)
(1.08833e-06 -0.0192205 0)
(8.13133e-07 -0.0192204 0)
(5.23812e-07 -0.0192204 0)
(2.26748e-07 -0.0192204 0)
(-7.02079e-08 -0.0192203 0)
(-3.58325e-07 -0.0192203 0)
(-6.28759e-07 -0.0192203 0)
(-8.73401e-07 -0.0192202 0)
(-1.08566e-06 -0.0192202 0)
(-1.26107e-06 -0.0192201 0)
(-1.39753e-06 -0.0192201 0)
(-1.49531e-06 -0.01922 0)
(-1.55665e-06 -0.0192199 0)
(-1.58514e-06 -0.0192198 0)
)
;
    }
    procBoundary2to1
    {
        type            processor;
        value           uniform (2.73932e-05 -0.0192023 0);
    }
    procBoundary2to3
    {
        type            processor;
        value           uniform (5.12587e-06 -0.019232 0);
    }
    procBoundary2to4
    {
        type            processor;
        value           nonuniform List<vector> 
75
(
(3.94772e-07 3.41098e-05 0)
(1.24721e-06 -7.22164e-05 0)
(2.08031e-06 0.000302236 0)
(3.88039e-06 -0.00249315 0)
(8.05753e-06 -0.0231394 0)
(1.53785e-05 -0.022978 0)
(2.29038e-05 -0.0197704 0)
(3.02365e-05 -0.0190444 0)
(3.72719e-05 -0.0191227 0)
(4.3966e-05 -0.0192369 0)
(5.03053e-05 -0.0192652 0)
(5.6273e-05 -0.0192615 0)
(6.18491e-05 -0.0192569 0)
(6.7013e-05 -0.0192556 0)
(7.17454e-05 -0.0192555 0)
(7.60292e-05 -0.0192554 0)
(7.98496e-05 -0.0192551 0)
(8.31952e-05 -0.0192548 0)
(8.60581e-05 -0.0192545 0)
(8.84341e-05 -0.0192542 0)
(9.0324e-05 -0.0192538 0)
(9.17326e-05 -0.0192535 0)
(9.26697e-05 -0.0192531 0)
(9.31497e-05 -0.0192528 0)
(9.31914e-05 -0.0192524 0)
(9.28179e-05 -0.0192521 0)
(9.20561e-05 -0.0192517 0)
(9.09361e-05 -0.0192513 0)
(8.94908e-05 -0.019251 0)
(8.77555e-05 -0.0192506 0)
(8.57668e-05 -0.0192503 0)
(8.3562e-05 -0.01925 0)
(8.11788e-05 -0.0192496 0)
(7.86545e-05 -0.0192493 0)
(7.60251e-05 -0.019249 0)
(7.33253e-05 -0.0192487 0)
(7.05875e-05 -0.0192484 0)
(6.78418e-05 -0.0192481 0)
(6.51155e-05 -0.0192478 0)
(6.24331e-05 -0.0192476 0)
(5.98155e-05 -0.0192473 0)
(5.7281e-05 -0.0192471 0)
(5.48443e-05 -0.0192468 0)
(5.2517e-05 -0.0192466 0)
(5.03081e-05 -0.0192464 0)
(4.82234e-05 -0.0192462 0)
(4.62664e-05 -0.019246 0)
(4.44383e-05 -0.0192458 0)
(4.2738e-05 -0.0192456 0)
(4.11631e-05 -0.0192454 0)
(3.3697e-06 -0.0192305 0)
(3.50098e-06 -0.0192305 0)
(3.63508e-06 -0.0192305 0)
(3.77398e-06 -0.0192305 0)
(3.92003e-06 -0.0192306 0)
(4.07589e-06 -0.0192306 0)
(4.2443e-06 -0.0192306 0)
(4.42792e-06 -0.0192306 0)
(4.62898e-06 -0.0192307 0)
(4.84896e-06 -0.0192307 0)
(5.08821e-06 -0.0192307 0)
(5.34565e-06 -0.0192308 0)
(5.61851e-06 -0.0192308 0)
(5.90228e-06 -0.0192309 0)
(6.19084e-06 -0.0192309 0)
(6.47681e-06 -0.019231 0)
(6.75212e-06 -0.019231 0)
(7.00874e-06 -0.0192311 0)
(7.23943e-06 -0.0192312 0)
(7.43848e-06 -0.0192312 0)
(7.60217e-06 -0.0192313 0)
(7.72898e-06 -0.0192314 0)
(7.81956e-06 -0.0192315 0)
(7.87628e-06 -0.0192316 0)
(7.90266e-06 -0.0192316 0)
)
;
    }
    procBoundary2to5
    {
        type            processor;
        value           nonuniform List<vector> 
50
(
(-1.43659e-06 -0.0192316 0)
(-1.38948e-06 -0.0192316 0)
(-1.34197e-06 -0.0192316 0)
(-1.29396e-06 -0.0192315 0)
(-1.24532e-06 -0.0192315 0)
(-1.19594e-06 -0.0192314 0)
(-1.14568e-06 -0.0192314 0)
(-1.0944e-06 -0.0192313 0)
(-1.04196e-06 -0.0192313 0)
(-9.88191e-07 -0.0192313 0)
(-9.32943e-07 -0.0192312 0)
(-8.76049e-07 -0.0192312 0)
(-8.17339e-07 -0.0192312 0)
(-7.56641e-07 -0.0192311 0)
(-6.93778e-07 -0.0192311 0)
(-6.28575e-07 -0.019231 0)
(-5.60857e-07 -0.019231 0)
(-4.90452e-07 -0.019231 0)
(-4.17193e-07 -0.0192309 0)
(-3.4092e-07 -0.0192309 0)
(-2.61481e-07 -0.0192309 0)
(-1.7874e-07 -0.0192308 0)
(-9.25719e-08 -0.0192308 0)
(-2.87078e-09 -0.0192308 0)
(9.04492e-08 -0.0192308 0)
(1.87451e-07 -0.0192307 0)
(2.88172e-07 -0.0192307 0)
(3.9262e-07 -0.0192307 0)
(5.00774e-07 -0.0192306 0)
(6.12578e-07 -0.0192306 0)
(7.2794e-07 -0.0192306 0)
(8.46733e-07 -0.0192306 0)
(9.68791e-07 -0.0192306 0)
(1.09391e-06 -0.0192305 0)
(1.22184e-06 -0.0192305 0)
(1.3523e-06 -0.0192305 0)
(1.48498e-06 -0.0192305 0)
(1.61951e-06 -0.0192305 0)
(1.75552e-06 -0.0192305 0)
(1.89258e-06 -0.0192305 0)
(2.03028e-06 -0.0192305 0)
(2.16818e-06 -0.0192305 0)
(2.30584e-06 -0.0192305 0)
(2.44287e-06 -0.0192305 0)
(2.57891e-06 -0.0192305 0)
(2.71369e-06 -0.0192305 0)
(2.84704e-06 -0.0192305 0)
(2.97897e-06 -0.0192305 0)
(3.10968e-06 -0.0192305 0)
(3.23966e-06 -0.0192305 0)
)
;
    }
}


// ************************************************************************* //
