/*--------------------------------*- C++ -*----------------------------------*\
| =========                 |                                                 |
| \\      /  F ield         | OpenFOAM: The Open Source CFD Toolbox           |
|  \\    /   O peration     | Version:  2.4.0                                 |
|   \\  /    A nd           | Web:      www.OpenFOAM.org                      |
|    \\/     M anipulation  |                                                 |
\*---------------------------------------------------------------------------*/
FoamFile
{
    version     2.0;
    format      ascii;
    class       volScalarField;
    location    "4.2";
    object      H;
}
// * * * * * * * * * * * * * * * * * * * * * * * * * * * * * * * * * * * * * //

dimensions      [0 2 -2 0 0 0 0];

internalField   nonuniform List<scalar> 
500
(
-11992.5
-11992.5
-11992.5
-11992.5
-11992.5
-11514.8
-11514.8
-11514.7
-11514.8
-11514.8
-11031.8
-11031.7
-11031.6
-11031.7
-11031.8
-10543.3
-10543.2
-10543.1
-10543.2
-10543.3
-10049.4
-10049.2
-10049.1
-10049.2
-10049.4
-9549.79
-9549.59
-9549.43
-9549.6
-9549.78
-9044.52
-9044.29
-9044.09
-9044.3
-9044.52
-8533.48
-8533.21
-8532.98
-8533.23
-8533.48
-8016.57
-8016.27
-8016
-8016.29
-8016.57
-7493.72
-7493.37
-7493.07
-7493.39
-7493.71
-6964.81
-6964.42
-6964.08
-6964.45
-6964.81
-6429.77
-6429.33
-6428.95
-6429.36
-6429.76
-5888.48
-5888
-5887.58
-5888.03
-5888.48
-5340.86
-5340.32
-5339.86
-5340.35
-5340.85
-4786.8
-4786.2
-4785.7
-4786.24
-4786.79
-4226.19
-4225.54
-4224.98
-4225.58
-4226.18
-3658.93
-3658.22
-3657.61
-3658.26
-3658.93
-3084.92
-3084.13
-3083.47
-3084.18
-3084.91
-2504.04
-2503.18
-2502.45
-2503.23
-2504.03
-1916.19
-1915.24
-1914.45
-1915.3
-1916.18
-1321.24
-1320.2
-1319.33
-1320.27
-1321.23
-719.089
-717.946
-717.001
-718.024
-719.075
-15.1428
-15.0649
-15.0015
-15.0702
-15.1418
-11.2869
-11.2289
-11.1819
-11.2329
-11.2862
-11.2917
-11.235
-11.189
-11.2388
-11.2911
-11.2945
-11.2389
-11.1941
-11.2426
-11.2939
-11.2951
-11.2407
-11.197
-11.2443
-11.2945
-11.2935
-11.2402
-11.1976
-11.2437
-11.293
-11.2896
-11.2374
-11.1958
-11.2408
-11.289
-11.2832
-11.2322
-11.1916
-11.2355
-11.2827
-11.2743
-11.2244
-11.1849
-11.2276
-11.2738
-11.2627
-11.2139
-11.1755
-11.217
-11.2623
-11.2484
-11.2008
-11.1633
-11.2038
-11.2481
-11.2314
-11.1848
-11.1483
-11.1877
-11.231
-11.2113
-11.1658
-11.1303
-11.1686
-11.211
-11.1883
-11.1438
-11.1093
-11.1466
-11.188
-11.1621
-11.1187
-11.0851
-11.1214
-11.1619
-11.1327
-11.0903
-11.0576
-11.0929
-11.1325
-11.1
-11.0586
-11.0268
-11.0611
-11.0998
-11.0638
-11.0234
-10.9925
-11.0258
-11.0636
-11.024
-10.9847
-10.9546
-10.987
-11.0238
-10.9806
-10.9422
-10.913
-10.9445
-10.9804
-10.9334
-10.896
-10.8677
-10.8982
-10.9333
-10.8823
-10.8459
-10.8184
-10.848
-10.8822
-10.8272
-10.7918
-10.7651
-10.7938
-10.8271
-10.768
-10.7336
-10.7076
-10.7355
-10.768
-10.7047
-10.6711
-10.646
-10.673
-10.7046
-10.637
-10.6043
-10.58
-10.6062
-10.637
-10.5649
-10.5331
-10.5095
-10.5349
-10.5649
-10.4882
-10.4574
-10.4345
-10.4591
-10.4883
-10.407
-10.377
-10.3549
-10.3786
-10.407
-10.321
-10.2919
-10.2705
-10.2935
-10.321
-10.2302
-10.202
-10.1812
-10.2035
-10.2302
-10.1344
-10.1071
-10.087
-10.1085
-10.1345
-10.0337
-10.0071
-9.98775
-10.0085
-10.0338
-9.92782
-9.90209
-9.88335
-9.90342
-9.92791
-9.81675
-9.79183
-9.77373
-9.79311
-9.81685
-9.7004
-9.67627
-9.65881
-9.6775
-9.70051
-9.57869
-9.55534
-9.5385
-9.55653
-9.5788
-9.45154
-9.42896
-9.41272
-9.4301
-9.45166
-9.31888
-9.29707
-9.28141
-9.29815
-9.31901
-9.18065
-9.15958
-9.14451
-9.16062
-9.18078
-9.03679
-9.01646
-9.00195
-9.01745
-9.03692
-8.88724
-8.86763
-8.85368
-8.86859
-8.88738
-8.73197
-8.71307
-8.69966
-8.71398
-8.73211
-8.57093
-8.55273
-8.53984
-8.5536
-8.57107
-8.40409
-8.38658
-8.37421
-8.38741
-8.40423
-8.23143
-8.2146
-8.20274
-8.21539
-8.23158
-8.05294
-8.03678
-8.02541
-8.03753
-8.05309
-7.86862
-7.85311
-7.84223
-7.85383
-7.86876
-7.67846
-7.6636
-7.6532
-7.66428
-7.67861
-7.4825
-7.46827
-7.45833
-7.46892
-7.48265
-7.28076
-7.26715
-7.25767
-7.26777
-7.2809
-7.07327
-7.06027
-7.05123
-7.06086
-7.07342
-6.8601
-6.8477
-6.8391
-6.84825
-6.86024
-6.6413
-6.62949
-6.62131
-6.63001
-6.64144
-6.41695
-6.40572
-6.39796
-6.40622
-6.41709
-6.18716
-6.1765
-6.16915
-6.17697
-6.18729
-5.95201
-5.94192
-5.93496
-5.94236
-5.95215
-5.71165
-5.7021
-5.69554
-5.70252
-5.71178
-5.4662
-5.45719
-5.45101
-5.45758
-5.46632
-5.21582
-5.20735
-5.20154
-5.20771
-5.21594
-4.96068
-4.95273
-4.94729
-4.95306
-4.96079
-4.70097
-4.69353
-4.68844
-4.69384
-4.70107
-4.43688
-4.42995
-4.42522
-4.43024
-4.43698
-4.16865
-4.16221
-4.15783
-4.16248
-4.16875
-3.89652
-3.89056
-3.88652
-3.89081
-3.89661
-3.62073
-3.61526
-3.61155
-3.61549
-3.62082
-3.34158
-3.33658
-3.33319
-3.33679
-3.34166
-3.05936
-3.05483
-3.05175
-3.05501
-3.05943
-2.77438
-2.7703
-2.76755
-2.77047
-2.77444
-2.48698
-2.48336
-2.4809
-2.4835
-2.48704
-2.19751
-2.19433
-2.19219
-2.19446
-2.19756
-1.90635
-1.90361
-1.90176
-1.90372
-1.9064
-1.61389
-1.61159
-1.61003
-1.61168
-1.61393
-1.32054
-1.31867
-1.3174
-1.31874
-1.32057
-1.02673
-1.02528
-1.0243
-1.02534
-1.02676
-0.732915
-0.731883
-0.731187
-0.731924
-0.732933
-0.439553
-0.438936
-0.438519
-0.43896
-0.439564
-0.14713
-0.146924
-0.146785
-0.146932
-0.147134
)
;

boundaryField
{
    BotWall
    {
        type            zeroGradient;
    }
    FreeStream
    {
        type            zeroGradient;
    }
    FrontNBack
    {
        type            empty;
    }
    LeftSide
    {
        type            symmetryPlane;
    }
    RightSide
    {
        type            symmetryPlane;
    }
}


// ************************************************************************* //
