/*--------------------------------*- C++ -*----------------------------------*\
| =========                 |                                                 |
| \\      /  F ield         | OpenFOAM: The Open Source CFD Toolbox           |
|  \\    /   O peration     | Version:  2.4.0                                 |
|   \\  /    A nd           | Web:      www.OpenFOAM.org                      |
|    \\/     M anipulation  |                                                 |
\*---------------------------------------------------------------------------*/
FoamFile
{
    version     2.0;
    format      ascii;
    class       volScalarField;
    location    "4.2";
    object      p;
}
// * * * * * * * * * * * * * * * * * * * * * * * * * * * * * * * * * * * * * //

dimensions      [1 -1 -2 0 0 0 0];

internalField   nonuniform List<scalar> 
500
(
0.730988
0.732662
0.732453
0.732705
0.731035
0.701162
0.702842
0.702637
0.702883
0.701207
0.671021
0.67271
0.672511
0.672749
0.671066
0.640534
0.642232
0.64204
0.64227
0.640579
0.609717
0.611425
0.611241
0.611462
0.609762
0.578546
0.580263
0.580087
0.580299
0.578591
0.547038
0.548765
0.548597
0.548801
0.547083
0.515166
0.516904
0.516744
0.516938
0.515212
0.482949
0.484698
0.484547
0.484732
0.482995
0.45035
0.452111
0.451968
0.452143
0.450396
0.417398
0.41917
0.419036
0.419202
0.417444
0.384124
0.385909
0.385783
0.385939
0.384171
0.35071
0.352508
0.352393
0.352537
0.350757
0.317001
0.318814
0.31871
0.318843
0.317048
0.281371
0.283196
0.283097
0.283224
0.281418
0.239912
0.241721
0.241615
0.241749
0.239959
0.195656
0.197431
0.19729
0.197461
0.195702
0.190732
0.192603
0.192515
0.192666
0.19078
0.322512
0.325115
0.325485
0.325077
0.322569
0.512493
0.516442
0.518365
0.516369
0.512573
-0.315288
-0.312759
-0.312092
-0.312946
-0.3152
-4.5821
-4.59575
-4.60687
-4.59482
-4.58225
-10.2937
-10.3382
-10.3754
-10.3351
-10.2942
-0.0171381
-0.0171364
-0.0171352
-0.0171365
-0.0171381
-0.0125575
-0.0125586
-0.0125594
-0.0125586
-0.0125575
-0.0139586
-0.0139587
-0.0139588
-0.0139587
-0.0139586
-0.0150283
-0.0150282
-0.0150281
-0.0150282
-0.0150283
-0.0157509
-0.0157508
-0.0157508
-0.0157508
-0.0157509
-0.0163898
-0.0163898
-0.0163897
-0.0163898
-0.0163898
-0.0170473
-0.0170473
-0.0170473
-0.0170473
-0.0170473
-0.0177261
-0.0177261
-0.0177261
-0.0177261
-0.0177261
-0.0184159
-0.0184159
-0.0184159
-0.0184159
-0.0184159
-0.019113
-0.0191129
-0.0191129
-0.0191129
-0.019113
-0.0198172
-0.0198172
-0.0198172
-0.0198172
-0.0198172
-0.0205292
-0.0205292
-0.0205292
-0.0205292
-0.0205292
-0.0212492
-0.0212491
-0.0212491
-0.0212492
-0.0212492
-0.0219772
-0.0219772
-0.0219771
-0.0219772
-0.0219772
-0.0227133
-0.0227133
-0.0227133
-0.0227133
-0.0227133
-0.0234577
-0.0234576
-0.0234576
-0.0234577
-0.0234577
-0.0242103
-0.0242103
-0.0242103
-0.0242103
-0.0242103
-0.0249714
-0.0249714
-0.0249713
-0.0249714
-0.0249714
-0.0257409
-0.0257409
-0.0257409
-0.0257409
-0.0257409
-0.0265191
-0.026519
-0.026519
-0.026519
-0.0265191
-0.0273059
-0.0273059
-0.0273059
-0.0273059
-0.0273059
-0.0281015
-0.0281015
-0.0281015
-0.0281015
-0.0281015
-0.028906
-0.0289059
-0.0289059
-0.0289059
-0.028906
-0.0297194
-0.0297194
-0.0297194
-0.0297194
-0.0297194
-0.0305419
-0.0305419
-0.0305419
-0.0305419
-0.0305419
-0.0313737
-0.0313736
-0.0313736
-0.0313736
-0.0313737
-0.0322146
-0.0322146
-0.0322146
-0.0322146
-0.0322146
-0.033065
-0.033065
-0.033065
-0.033065
-0.033065
-0.0339249
-0.0339249
-0.0339249
-0.0339249
-0.0339249
-0.0347943
-0.0347943
-0.0347943
-0.0347943
-0.0347943
-0.0356735
-0.0356735
-0.0356735
-0.0356735
-0.0356735
-0.0365625
-0.0365625
-0.0365625
-0.0365625
-0.0365625
-0.0374614
-0.0374614
-0.0374613
-0.0374614
-0.0374614
-0.0383703
-0.0383703
-0.0383703
-0.0383703
-0.0383703
-0.0392894
-0.0392893
-0.0392893
-0.0392893
-0.0392894
-0.0402187
-0.0402187
-0.0402187
-0.0402187
-0.0402187
-0.0411584
-0.0411584
-0.0411583
-0.0411584
-0.0411584
-0.0421085
-0.0421085
-0.0421085
-0.0421085
-0.0421085
-0.0430693
-0.0430693
-0.0430693
-0.0430693
-0.0430693
-0.0440408
-0.0440408
-0.0440408
-0.0440408
-0.0440408
-0.0450232
-0.0450232
-0.0450232
-0.0450232
-0.0450232
-0.0460165
-0.0460165
-0.0460165
-0.0460165
-0.0460165
-0.0470209
-0.0470209
-0.0470208
-0.0470209
-0.0470209
-0.0480365
-0.0480365
-0.0480364
-0.0480365
-0.0480365
-0.0490634
-0.0490634
-0.0490634
-0.0490634
-0.0490634
-0.0501018
-0.0501018
-0.0501018
-0.0501018
-0.0501018
-0.0511518
-0.0511517
-0.0511517
-0.0511517
-0.0511518
-0.0522134
-0.0522134
-0.0522134
-0.0522134
-0.0522134
-0.053287
-0.053287
-0.053287
-0.053287
-0.053287
-0.0543725
-0.0543725
-0.0543725
-0.0543725
-0.0543725
-0.0554701
-0.0554701
-0.0554701
-0.0554701
-0.0554701
-0.05658
-0.05658
-0.05658
-0.05658
-0.05658
-0.0577023
-0.0577023
-0.0577023
-0.0577023
-0.0577023
-0.0588371
-0.0588371
-0.0588371
-0.0588371
-0.0588371
-0.0599845
-0.0599845
-0.0599845
-0.0599845
-0.0599845
-0.0611448
-0.0611448
-0.0611448
-0.0611448
-0.0611448
-0.062318
-0.062318
-0.062318
-0.062318
-0.062318
-0.0635043
-0.0635043
-0.0635043
-0.0635043
-0.0635043
-0.0647038
-0.0647038
-0.0647038
-0.0647038
-0.0647038
-0.0659167
-0.0659167
-0.0659167
-0.0659167
-0.0659167
-0.0671432
-0.0671432
-0.0671432
-0.0671432
-0.0671432
-0.0683833
-0.0683833
-0.0683833
-0.0683833
-0.0683833
-0.0696373
-0.0696373
-0.0696373
-0.0696373
-0.0696373
-0.0709053
-0.0709053
-0.0709053
-0.0709053
-0.0709053
-0.0721874
-0.0721874
-0.0721874
-0.0721874
-0.0721874
-0.0734838
-0.0734838
-0.0734838
-0.0734838
-0.0734838
-0.0747947
-0.0747947
-0.0747947
-0.0747947
-0.0747947
-0.0761202
-0.0761202
-0.0761202
-0.0761202
-0.0761202
-0.0774605
-0.0774605
-0.0774605
-0.0774605
-0.0774605
-0.0788158
-0.0788158
-0.0788158
-0.0788158
-0.0788158
-0.0801862
-0.0801862
-0.0801862
-0.0801862
-0.0801862
-0.0815719
-0.0815719
-0.0815719
-0.0815719
-0.0815719
-0.082973
-0.082973
-0.082973
-0.082973
-0.082973
-0.0843898
-0.0843898
-0.0843898
-0.0843898
-0.0843898
-0.0858224
-0.0858224
-0.0858224
-0.0858224
-0.0858224
-0.087271
-0.087271
-0.087271
-0.087271
-0.087271
-0.0887357
-0.0887357
-0.0887357
-0.0887357
-0.0887357
)
;

boundaryField
{
    BotWall
    {
        type            calculated;
        value           nonuniform List<scalar> 5(0.745809 0.747482 0.747273 0.747525 0.745855);
    }
    FreeStream
    {
        type            calculated;
        value           nonuniform List<scalar> 5(-0.0894722 -0.0894722 -0.0894722 -0.0894722 -0.0894722);
    }
    FrontNBack
    {
        type            empty;
    }
    LeftSide
    {
        type            symmetryPlane;
    }
    RightSide
    {
        type            symmetryPlane;
    }
}


// ************************************************************************* //
