/*--------------------------------*- C++ -*----------------------------------*\
| =========                 |                                                 |
| \\      /  F ield         | OpenFOAM: The Open Source CFD Toolbox           |
|  \\    /   O peration     | Version:  2.4.0                                 |
|   \\  /    A nd           | Web:      www.OpenFOAM.org                      |
|    \\/     M anipulation  |                                                 |
\*---------------------------------------------------------------------------*/
FoamFile
{
    version     2.0;
    format      ascii;
    class       volScalarField;
    location    "4.2";
    object      p_rgh;
}
// * * * * * * * * * * * * * * * * * * * * * * * * * * * * * * * * * * * * * //

dimensions      [1 -1 -2 0 0 0 0];

internalField   nonuniform List<scalar> 
500
(
0.745809
0.747482
0.747273
0.747525
0.745855
0.745789
0.747469
0.747264
0.74751
0.745834
0.745786
0.747475
0.747276
0.747514
0.745831
0.745773
0.747471
0.74728
0.747509
0.745818
0.745772
0.74748
0.747296
0.747517
0.745817
0.745759
0.747476
0.7473
0.747513
0.745804
0.745758
0.747486
0.747318
0.747521
0.745803
0.745744
0.747482
0.747323
0.747517
0.74579
0.745741
0.74749
0.747339
0.747524
0.745787
0.745715
0.747476
0.747333
0.747508
0.745761
0.7457
0.747472
0.747337
0.747503
0.745746
0.74573
0.747514
0.747389
0.747545
0.745777
0.745991
0.747789
0.747674
0.747818
0.746038
0.746334
0.748147
0.748043
0.748175
0.746381
0.745135
0.746961
0.746861
0.746988
0.745182
0.738492
0.740302
0.740195
0.740329
0.738539
0.72944
0.731215
0.731074
0.731246
0.729487
0.760114
0.761985
0.761896
0.762048
0.760161
0.927887
0.93049
0.93086
0.930452
0.927945
1.15426
1.15821
1.16014
1.15814
1.15434
0.363285
0.365815
0.366481
0.365628
0.363373
-3.86631
-3.87997
-3.89109
-3.87903
-3.86646
-9.78692
-9.82874
-9.86371
-9.82578
-9.78747
-0.0040285
-0.00402684
-0.00402562
-0.00402693
-0.00402848
0.00118937
0.00118821
0.0011874
0.00118827
0.00118936
0.000432571
0.000432471
0.000432364
0.000432479
0.00043257
1.4425e-05
1.45472e-05
1.46158e-05
1.45409e-05
1.44266e-05
-4.93268e-05
-4.92626e-05
-4.92145e-05
-4.92672e-05
-4.93256e-05
-2.20474e-05
-2.20239e-05
-2.20015e-05
-2.20264e-05
-2.20466e-05
-5.97386e-06
-5.95444e-06
-5.93838e-06
-5.95644e-06
-5.9731e-06
-3.65706e-06
-3.63401e-06
-3.61737e-06
-3.63605e-06
-3.6563e-06
-4.74205e-06
-4.71783e-06
-4.7005e-06
-4.7199e-06
-4.7413e-06
-5.37597e-06
-5.35227e-06
-5.33503e-06
-5.35433e-06
-5.37522e-06
-5.46158e-06
-5.4386e-06
-5.42171e-06
-5.44061e-06
-5.46085e-06
-5.41334e-06
-5.39091e-06
-5.37438e-06
-5.39288e-06
-5.41263e-06
-5.38352e-06
-5.36155e-06
-5.34534e-06
-5.36348e-06
-5.38283e-06
-5.37551e-06
-5.35399e-06
-5.3381e-06
-5.35588e-06
-5.37484e-06
-5.37274e-06
-5.35168e-06
-5.33609e-06
-5.35353e-06
-5.37208e-06
-5.36916e-06
-5.34856e-06
-5.33327e-06
-5.35037e-06
-5.36852e-06
-5.36467e-06
-5.34452e-06
-5.32954e-06
-5.34629e-06
-5.36404e-06
-5.35992e-06
-5.34022e-06
-5.32554e-06
-5.34195e-06
-5.35931e-06
-5.35516e-06
-5.3359e-06
-5.32152e-06
-5.3376e-06
-5.35456e-06
-5.35039e-06
-5.33156e-06
-5.31748e-06
-5.33322e-06
-5.3498e-06
-5.34557e-06
-5.32718e-06
-5.3134e-06
-5.3288e-06
-5.345e-06
-5.34071e-06
-5.32274e-06
-5.30926e-06
-5.32433e-06
-5.34015e-06
-5.3358e-06
-5.31825e-06
-5.30506e-06
-5.31981e-06
-5.33526e-06
-5.33083e-06
-5.31371e-06
-5.30081e-06
-5.31523e-06
-5.33031e-06
-5.32582e-06
-5.30911e-06
-5.2965e-06
-5.3106e-06
-5.32531e-06
-5.32076e-06
-5.30446e-06
-5.29213e-06
-5.30592e-06
-5.32027e-06
-5.31565e-06
-5.29976e-06
-5.28771e-06
-5.30118e-06
-5.31517e-06
-5.31049e-06
-5.295e-06
-5.28323e-06
-5.29638e-06
-5.31002e-06
-5.30528e-06
-5.29018e-06
-5.27869e-06
-5.29153e-06
-5.30482e-06
-5.30001e-06
-5.28531e-06
-5.2741e-06
-5.28663e-06
-5.29957e-06
-5.2947e-06
-5.28038e-06
-5.26944e-06
-5.28166e-06
-5.29427e-06
-5.28933e-06
-5.27539e-06
-5.26473e-06
-5.27664e-06
-5.28891e-06
-5.2839e-06
-5.27034e-06
-5.25995e-06
-5.27157e-06
-5.2835e-06
-5.27843e-06
-5.26524e-06
-5.25511e-06
-5.26643e-06
-5.27804e-06
-5.27289e-06
-5.26008e-06
-5.25022e-06
-5.26124e-06
-5.27252e-06
-5.26731e-06
-5.25485e-06
-5.24526e-06
-5.25599e-06
-5.26695e-06
-5.26166e-06
-5.24957e-06
-5.24024e-06
-5.25067e-06
-5.26132e-06
-5.25596e-06
-5.24423e-06
-5.23515e-06
-5.2453e-06
-5.25563e-06
-5.25021e-06
-5.23882e-06
-5.23e-06
-5.23987e-06
-5.24989e-06
-5.24439e-06
-5.23336e-06
-5.22479e-06
-5.23437e-06
-5.24408e-06
-5.23852e-06
-5.22783e-06
-5.21952e-06
-5.22881e-06
-5.23822e-06
-5.23259e-06
-5.22224e-06
-5.21417e-06
-5.22319e-06
-5.2323e-06
-5.2266e-06
-5.21658e-06
-5.20877e-06
-5.21751e-06
-5.22632e-06
-5.22055e-06
-5.21086e-06
-5.20329e-06
-5.21176e-06
-5.22028e-06
-5.21443e-06
-5.20507e-06
-5.19775e-06
-5.20595e-06
-5.21418e-06
-5.20826e-06
-5.19922e-06
-5.19214e-06
-5.20007e-06
-5.20802e-06
-5.20202e-06
-5.19331e-06
-5.18646e-06
-5.19412e-06
-5.20179e-06
-5.19572e-06
-5.18732e-06
-5.18072e-06
-5.18811e-06
-5.1955e-06
-5.18936e-06
-5.18127e-06
-5.1749e-06
-5.18203e-06
-5.18915e-06
-5.18293e-06
-5.17515e-06
-5.16902e-06
-5.17589e-06
-5.18273e-06
-5.17643e-06
-5.16896e-06
-5.16306e-06
-5.16967e-06
-5.17625e-06
-5.16987e-06
-5.1627e-06
-5.15703e-06
-5.16338e-06
-5.16969e-06
-5.16324e-06
-5.15637e-06
-5.15093e-06
-5.15703e-06
-5.16308e-06
-5.15654e-06
-5.14997e-06
-5.14475e-06
-5.1506e-06
-5.15639e-06
-5.14977e-06
-5.1435e-06
-5.13851e-06
-5.1441e-06
-5.14963e-06
-5.14294e-06
-5.13695e-06
-5.13218e-06
-5.13753e-06
-5.14281e-06
-5.13603e-06
-5.13033e-06
-5.12579e-06
-5.13089e-06
-5.13591e-06
-5.12905e-06
-5.12364e-06
-5.11931e-06
-5.12417e-06
-5.12894e-06
-5.122e-06
-5.11687e-06
-5.11276e-06
-5.11738e-06
-5.1219e-06
-5.11487e-06
-5.11002e-06
-5.10614e-06
-5.11051e-06
-5.11478e-06
-5.10768e-06
-5.1031e-06
-5.09944e-06
-5.10356e-06
-5.10759e-06
-5.1004e-06
-5.0961e-06
-5.09265e-06
-5.09654e-06
-5.10033e-06
-5.09305e-06
-5.08903e-06
-5.08579e-06
-5.08944e-06
-5.09298e-06
-5.08562e-06
-5.08187e-06
-5.07885e-06
-5.08226e-06
-5.08556e-06
-5.07811e-06
-5.07464e-06
-5.07183e-06
-5.075e-06
-5.07807e-06
-5.07053e-06
-5.06732e-06
-5.06473e-06
-5.06766e-06
-5.07049e-06
-5.06286e-06
-5.05992e-06
-5.05754e-06
-5.06024e-06
-5.06283e-06
-5.05511e-06
-5.05244e-06
-5.05028e-06
-5.05273e-06
-5.05509e-06
-5.04728e-06
-5.04488e-06
-5.04293e-06
-5.04515e-06
-5.04727e-06
-5.03936e-06
-5.03724e-06
-5.03549e-06
-5.03748e-06
-5.03936e-06
-5.03136e-06
-5.0295e-06
-5.02798e-06
-5.02972e-06
-5.03137e-06
-5.02327e-06
-5.02169e-06
-5.02037e-06
-5.02188e-06
-5.02329e-06
-5.0151e-06
-5.01378e-06
-5.01268e-06
-5.01395e-06
-5.01513e-06
-5.00681e-06
-5.0058e-06
-5.00493e-06
-5.00594e-06
-5.00685e-06
-4.99841e-06
-4.99773e-06
-4.99713e-06
-4.99785e-06
-4.99846e-06
-4.98998e-06
-4.98956e-06
-4.98915e-06
-4.98965e-06
-4.99004e-06
-4.98193e-06
-4.98112e-06
-4.9805e-06
-4.98122e-06
-4.98198e-06
)
;

boundaryField
{
    BotWall
    {
        type            fixedFluxPressure;
        gradient        uniform 0;
        value           nonuniform List<scalar> 5(0.745809 0.747482 0.747273 0.747525 0.745855);
    }
    FreeStream
    {
        type            totalPressure;
        rho             rho;
        psi             none;
        gamma           1;
        p0              uniform 0;
        value           nonuniform List<scalar> 5(-4.97822e-06 -4.97676e-06 -4.97575e-06 -4.97688e-06 -4.97824e-06);
    }
    FrontNBack
    {
        type            empty;
    }
    LeftSide
    {
        type            symmetryPlane;
    }
    RightSide
    {
        type            symmetryPlane;
    }
}


// ************************************************************************* //
