/*--------------------------------*- C++ -*----------------------------------*\
| =========                 |                                                 |
| \\      /  F ield         | OpenFOAM: The Open Source CFD Toolbox           |
|  \\    /   O peration     | Version:  2.4.0                                 |
|   \\  /    A nd           | Web:      www.OpenFOAM.org                      |
|    \\/     M anipulation  |                                                 |
\*---------------------------------------------------------------------------*/
FoamFile
{
    version     2.0;
    format      ascii;
    class       surfaceScalarField;
    location    "4.2";
    object      phi;
}
// * * * * * * * * * * * * * * * * * * * * * * * * * * * * * * * * * * * * * //

dimensions      [0 3 -1 0 0 0 0];

internalField   nonuniform List<scalar> 
895
(
2.23061e-17
-2.23067e-17
1.55949e-17
6.71022e-18
-1.83548e-17
3.39482e-17
-2.17186e-17
3.36254e-18
-2.17195e-17
6.96251e-17
-9.19401e-17
4.7612e-17
2.87092e-17
-5.59628e-17
1.37503e-16
-6.78241e-17
1.52081e-17
-8.95552e-17
1.19889e-16
-2.11839e-16
8.11256e-17
6.74572e-17
-9.52083e-17
3.13815e-16
-1.16816e-16
3.67993e-17
-2.06384e-16
1.7305e-16
-3.849e-16
1.16348e-16
1.24142e-16
-1.36312e-16
5.66452e-16
-1.68638e-16
6.91073e-17
-3.75034e-16
2.29245e-16
-6.14157e-16
1.5337e-16
1.99998e-16
-1.79369e-16
8.99166e-16
-2.23423e-16
1.13143e-16
-5.9847e-16
2.88652e-16
-9.02821e-16
1.92289e-16
2.96343e-16
-2.2448e-16
1.31591e-15
-2.81343e-16
1.69987e-16
-8.79825e-16
3.51421e-16
-1.25425e-15
2.33194e-16
4.14551e-16
-2.71739e-16
1.82082e-15
-3.42541e-16
2.4077e-16
-1.22238e-15
4.17754e-16
-1.67202e-15
2.762e-16
5.56086e-16
-3.21267e-16
2.41826e-15
-4.07212e-16
3.26695e-16
-1.6296e-15
4.87816e-16
-2.15985e-15
3.21405e-16
7.22478e-16
-3.73166e-16
3.11281e-15
-4.75514e-16
4.29025e-16
-2.10513e-15
5.61835e-16
-2.7217e-15
3.68938e-16
9.15356e-16
-4.27571e-16
3.90929e-15
-5.47667e-16
5.49103e-16
-2.65281e-15
6.39993e-16
-3.36171e-15
4.18906e-16
1.13642e-15
-4.84595e-16
4.81277e-15
-6.23847e-16
6.88336e-16
-3.27667e-15
7.22548e-16
-4.08427e-15
4.71456e-16
1.3875e-15
-5.44392e-16
5.82859e-15
-7.04298e-16
8.48225e-16
-3.98098e-15
8.09703e-16
-4.89398e-15
5.26707e-16
1.67048e-15
-6.07085e-16
6.96236e-15
-7.89218e-16
1.03034e-15
-4.77021e-15
9.01745e-16
-5.79574e-15
5.84824e-16
1.98738e-15
-6.72851e-16
8.22001e-15
-8.78882e-16
1.23636e-15
-5.6491e-15
9.9891e-16
-6.79466e-15
6.45947e-16
2.34033e-15
-7.41832e-16
9.60777e-15
-9.73514e-16
1.46802e-15
-6.62262e-15
1.10153e-15
-7.8962e-15
7.10257e-16
2.73158e-15
-8.14221e-16
1.11322e-14
-1.07343e-15
1.72722e-15
-7.69606e-15
1.20983e-15
-9.10604e-15
7.77908e-16
3.16349e-15
-8.9018e-16
1.28003e-14
-1.17885e-15
2.01588e-15
-8.87492e-15
1.32406e-15
-1.04301e-14
8.49082e-16
3.63846e-15
-9.69954e-16
1.46193e-14
-1.28996e-15
2.33588e-15
-1.01649e-14
1.44425e-15
-1.18744e-14
9.23826e-16
4.15888e-15
-1.05268e-15
1.65958e-14
-1.40694e-15
2.69013e-15
-1.15718e-14
1.57107e-15
-1.34454e-14
1.00203e-15
4.72791e-15
-1.1412e-15
1.8739e-14
-1.53053e-15
3.07946e-15
-1.31024e-14
1.70938e-15
-1.51548e-14
1.08325e-15
5.35404e-15
-1.23323e-15
2.10555e-14
-1.66473e-15
3.51095e-15
-1.47671e-14
1.86539e-15
-1.9094e-14
1.18612e-15
6.0333e-15
-1.34373e-15
2.35853e-14
-1.81547e-15
3.98269e-15
-1.86024e-14
2.04781e-15
-2.08938e-10
1.31863e-15
-2.08952e-10
-1.48745e-15
-2.08964e-10
-1.98759e-15
-2.08951e-10
-2.08938e-10
2.06049e-15
-2.0894e-10
1.30395e-15
-2.08951e-10
-1.47135e-15
-2.08962e-10
-2.00543e-15
-2.0895e-10
-2.0894e-10
2.04168e-15
-2.08942e-10
1.2943e-15
-2.0895e-10
-1.45985e-15
-2.08959e-10
-1.98771e-15
-2.0895e-10
-2.08942e-10
1.95999e-15
-2.08944e-10
1.24169e-15
-2.08949e-10
-1.40194e-15
-2.08956e-10
-1.91112e-15
-2.08949e-10
-2.08944e-10
1.88789e-15
-2.08946e-10
1.1953e-15
-2.08949e-10
-1.35091e-15
-2.08954e-10
-1.84305e-15
-2.08949e-10
-2.08946e-10
1.82182e-15
-2.08947e-10
1.15328e-15
-2.08948e-10
-1.30464e-15
-2.08951e-10
-1.78044e-15
-2.08948e-10
-2.08947e-10
1.75708e-15
-2.08949e-10
1.11256e-15
-2.08947e-10
-1.25974e-15
-2.08949e-10
-1.71902e-15
-2.08948e-10
-2.08949e-10
1.69249e-15
-2.08951e-10
1.07203e-15
-2.08947e-10
-1.21505e-15
-2.08947e-10
-1.65769e-15
-2.08947e-10
-2.08951e-10
1.62839e-15
-2.08952e-10
1.03175e-15
-2.08946e-10
-1.17062e-15
-2.08944e-10
-1.59678e-15
-2.08947e-10
-2.08952e-10
1.56505e-15
-2.08954e-10
9.91884e-16
-2.08946e-10
-1.12665e-15
-2.08942e-10
-1.53652e-15
-2.08946e-10
-2.08954e-10
1.50252e-15
-2.08956e-10
9.52514e-16
-2.08945e-10
-1.08321e-15
-2.0894e-10
-1.47698e-15
-2.08946e-10
-2.08955e-10
1.44081e-15
-2.08957e-10
9.13655e-16
-2.08945e-10
-1.04032e-15
-2.08938e-10
-1.41815e-15
-2.08946e-10
-2.08957e-10
1.37993e-15
-2.08958e-10
8.75321e-16
-2.08944e-10
-9.97994e-16
-2.08936e-10
-1.36007e-15
-2.08945e-10
-2.08958e-10
1.31992e-15
-2.0896e-10
8.37525e-16
-2.08944e-10
-9.56253e-16
-2.08935e-10
-1.30274e-15
-2.08945e-10
-2.08959e-10
1.2608e-15
-2.08961e-10
8.00286e-16
-2.08943e-10
-9.15113e-16
-2.08933e-10
-1.24622e-15
-2.08944e-10
-2.08961e-10
1.2026e-15
-2.08962e-10
7.63621e-16
-2.08943e-10
-8.74593e-16
-2.08931e-10
-1.19051e-15
-2.08944e-10
-2.08962e-10
1.14536e-15
-2.08963e-10
7.27548e-16
-2.08942e-10
-8.34713e-16
-2.0893e-10
-1.13566e-15
-2.08944e-10
-2.08963e-10
1.08908e-15
-2.08964e-10
6.92083e-16
-2.08942e-10
-7.9549e-16
-2.08928e-10
-1.08168e-15
-2.08944e-10
-2.08964e-10
1.03381e-15
-2.08965e-10
6.57242e-16
-2.08941e-10
-7.5694e-16
-2.08927e-10
-1.0286e-15
-2.08943e-10
-2.08965e-10
9.79556e-16
-2.08966e-10
6.23041e-16
-2.08941e-10
-7.19082e-16
-2.08925e-10
-9.7645e-16
-2.08943e-10
-2.08966e-10
9.26351e-16
-2.08967e-10
5.89494e-16
-2.08941e-10
-6.81932e-16
-2.08924e-10
-9.25249e-16
-2.08943e-10
-2.08967e-10
8.74215e-16
-2.08968e-10
5.56615e-16
-2.0894e-10
-6.45503e-16
-2.08923e-10
-8.75022e-16
-2.08943e-10
-2.08968e-10
8.2317e-16
-2.08969e-10
5.24419e-16
-2.0894e-10
-6.09813e-16
-2.08922e-10
-8.2579e-16
-2.08942e-10
-2.08969e-10
7.73235e-16
-2.0897e-10
4.92918e-16
-2.0894e-10
-5.74874e-16
-2.08921e-10
-7.77575e-16
-2.08942e-10
-2.08969e-10
7.2443e-16
-2.08971e-10
4.62124e-16
-2.0894e-10
-5.407e-16
-2.0892e-10
-7.30396e-16
-2.08942e-10
-2.0897e-10
6.76773e-16
-2.08971e-10
4.3205e-16
-2.08939e-10
-5.07305e-16
-2.08919e-10
-6.84274e-16
-2.08942e-10
-2.08971e-10
6.30282e-16
-2.08972e-10
4.02707e-16
-2.08939e-10
-4.747e-16
-2.08918e-10
-6.39227e-16
-2.08942e-10
-2.08971e-10
5.84971e-16
-2.08972e-10
3.74103e-16
-2.08939e-10
-4.42896e-16
-2.08917e-10
-5.95271e-16
-2.08941e-10
-2.08972e-10
5.40857e-16
-2.08973e-10
3.4625e-16
-2.08939e-10
-4.11905e-16
-2.08916e-10
-5.52424e-16
-2.08941e-10
-2.08973e-10
4.97953e-16
-2.08973e-10
3.19156e-16
-2.08939e-10
-3.81735e-16
-2.08916e-10
-5.107e-16
-2.08941e-10
-2.08973e-10
4.5627e-16
-2.08974e-10
2.92829e-16
-2.08938e-10
-3.52397e-16
-2.08915e-10
-4.70114e-16
-2.08941e-10
-2.08974e-10
4.15822e-16
-2.08974e-10
2.67277e-16
-2.08938e-10
-3.23897e-16
-2.08914e-10
-4.30677e-16
-2.08941e-10
-2.08974e-10
3.76617e-16
-2.08975e-10
2.42505e-16
-2.08938e-10
-2.96244e-16
-2.08914e-10
-3.92403e-16
-2.08941e-10
-2.08974e-10
3.38664e-16
-2.08975e-10
2.18519e-16
-2.08938e-10
-2.69443e-16
-2.08913e-10
-3.553e-16
-2.08941e-10
-2.08975e-10
3.0197e-16
-2.08975e-10
1.95325e-16
-2.08938e-10
-2.43501e-16
-2.08913e-10
-3.1938e-16
-2.08941e-10
-2.08975e-10
2.66542e-16
-2.08976e-10
1.72926e-16
-2.08938e-10
-2.18422e-16
-2.08913e-10
-2.84648e-16
-2.08941e-10
-2.08975e-10
2.32384e-16
-2.08976e-10
1.51325e-16
-2.08938e-10
-1.94209e-16
-2.08912e-10
-2.51112e-16
-2.08941e-10
-2.08976e-10
1.995e-16
-2.08976e-10
1.30524e-16
-2.08938e-10
-1.70866e-16
-2.08912e-10
-2.18778e-16
-2.08941e-10
-2.08976e-10
1.67891e-16
-2.08976e-10
1.10526e-16
-2.08938e-10
-1.48394e-16
-2.08912e-10
-1.87648e-16
-2.08941e-10
-2.08976e-10
1.37557e-16
-2.08976e-10
9.13291e-17
-2.08938e-10
-1.26795e-16
-2.08911e-10
-1.57726e-16
-2.0894e-10
-2.08976e-10
1.08498e-16
-2.08976e-10
7.29341e-17
-2.08937e-10
-1.06067e-16
-2.08911e-10
-1.29013e-16
-2.0894e-10
-2.08976e-10
8.07113e-17
-2.08977e-10
5.53391e-17
-2.08937e-10
-8.62105e-17
-2.08911e-10
-1.01508e-16
-2.0894e-10
-2.08976e-10
5.4192e-17
-2.08977e-10
3.85416e-17
-2.08937e-10
-6.72229e-17
-2.08911e-10
-7.52093e-17
-2.0894e-10
-2.08977e-10
2.89348e-17
-2.08977e-10
2.25382e-17
-2.08937e-10
-4.9101e-17
-2.08911e-10
-5.01134e-17
-2.0894e-10
-2.08977e-10
4.93243e-18
-2.08977e-10
7.32433e-18
-2.08937e-10
-3.18406e-17
-2.08911e-10
-2.62156e-17
-2.0894e-10
-2.08977e-10
-1.78241e-17
-2.08977e-10
-7.10553e-18
-2.08937e-10
-1.54362e-17
-2.08911e-10
-3.50919e-18
-2.0894e-10
-2.08977e-10
-3.93454e-17
-2.08977e-10
-2.0758e-17
-2.08937e-10
1.18459e-19
-2.08911e-10
1.8014e-17
-2.0894e-10
-2.08977e-10
-5.96438e-17
-2.08976e-10
-3.36407e-17
-2.08937e-10
1.48311e-17
-2.08911e-10
3.83637e-17
-2.08941e-10
-2.08977e-10
-7.87333e-17
-2.08976e-10
-4.57625e-17
-2.08938e-10
2.87104e-17
-2.08911e-10
5.75516e-17
-2.08941e-10
-2.08976e-10
-9.66298e-17
-2.08976e-10
-5.71333e-17
-2.08938e-10
4.17663e-17
-2.08911e-10
7.5591e-17
-2.08941e-10
-2.08976e-10
-1.13351e-16
-2.08976e-10
-6.77642e-17
-2.08938e-10
5.40101e-17
-2.08911e-10
9.2497e-17
-2.08941e-10
-2.08976e-10
-1.28917e-16
-2.08976e-10
-7.76676e-17
-2.08938e-10
6.54542e-17
-2.08911e-10
1.08287e-16
-2.08941e-10
-2.08976e-10
-1.43349e-16
-2.08976e-10
-8.68571e-17
-2.08938e-10
7.61124e-17
-2.08912e-10
1.22979e-16
-2.08941e-10
-2.08976e-10
-1.5667e-16
-2.08976e-10
-9.53475e-17
-2.08938e-10
8.59998e-17
-2.08912e-10
1.36595e-16
-2.08941e-10
-2.08976e-10
-1.68907e-16
-2.08976e-10
-1.03155e-16
-2.08938e-10
9.51331e-17
-2.08912e-10
1.49158e-16
-2.08941e-10
-2.08976e-10
-1.80089e-16
-2.08975e-10
-1.10298e-16
-2.08938e-10
1.0353e-16
-2.08912e-10
1.60693e-16
-2.08941e-10
-2.08976e-10
-1.90244e-16
-2.08975e-10
-1.16794e-16
-2.08938e-10
1.11211e-16
-2.08912e-10
1.71228e-16
-2.08941e-10
-2.08975e-10
-1.99407e-16
-2.08975e-10
-1.22665e-16
-2.08938e-10
1.18197e-16
-2.08913e-10
1.80792e-16
-2.08941e-10
-2.08975e-10
-2.07613e-16
-2.08975e-10
-1.27933e-16
-2.08938e-10
1.24511e-16
-2.08913e-10
1.89419e-16
-2.08941e-10
-2.08975e-10
-2.149e-16
-2.08975e-10
-1.32622e-16
-2.08938e-10
1.30177e-16
-2.08913e-10
1.97144e-16
-2.08941e-10
-2.08975e-10
-2.21309e-16
-2.08974e-10
-1.36758e-16
-2.08938e-10
1.35222e-16
-2.08913e-10
2.04004e-16
-2.08941e-10
-2.08975e-10
-2.26886e-16
-2.08974e-10
-1.40369e-16
-2.08938e-10
1.39676e-16
-2.08914e-10
2.1004e-16
-2.08941e-10
-2.08974e-10
-2.31677e-16
-2.08974e-10
-1.43485e-16
-2.08938e-10
1.43569e-16
-2.08914e-10
2.15298e-16
-2.08941e-10
-2.08974e-10
-2.35735e-16
-2.08974e-10
-1.46137e-16
-2.08939e-10
1.46935e-16
-2.08914e-10
2.19825e-16
-2.08941e-10
-2.08974e-10
-2.39114e-16
-2.08973e-10
-1.4836e-16
-2.08939e-10
1.49809e-16
-2.08915e-10
2.23673e-16
-2.08941e-10
-2.08974e-10
-2.41874e-16
-2.08973e-10
-1.50191e-16
-2.08939e-10
1.5223e-16
-2.08915e-10
2.26896e-16
-2.08942e-10
-2.08974e-10
-2.44078e-16
-2.08973e-10
-1.51671e-16
-2.08939e-10
1.54239e-16
-2.08915e-10
2.29555e-16
-2.08942e-10
-2.08973e-10
-2.45796e-16
-2.08973e-10
-1.52841e-16
-2.08939e-10
1.55882e-16
-2.08916e-10
2.31714e-16
-2.08942e-10
-2.08973e-10
-2.47103e-16
-2.08972e-10
-1.53748e-16
-2.08939e-10
1.57206e-16
-2.08916e-10
2.33443e-16
-2.08942e-10
-2.08973e-10
-2.48077e-16
-2.08972e-10
-1.54441e-16
-2.08939e-10
1.58264e-16
-2.08916e-10
2.34816e-16
-2.08942e-10
-2.08973e-10
-2.48807e-16
-2.08972e-10
-1.54975e-16
-2.08939e-10
1.59112e-16
-2.08916e-10
2.35916e-16
-2.08942e-10
-2.08972e-10
-2.49384e-16
-2.08972e-10
-1.55407e-16
-2.08939e-10
1.5981e-16
-2.08917e-10
2.3683e-16
-2.08942e-10
-2.08972e-10
-2.49912e-16
-2.08971e-10
-1.55799e-16
-2.08939e-10
1.60425e-16
-2.08917e-10
2.37652e-16
-2.08942e-10
-2.08972e-10
-2.50498e-16
-2.08971e-10
-1.56218e-16
-2.0894e-10
1.61027e-16
-2.08917e-10
2.38485e-16
-2.08942e-10
-2.08972e-10
-2.51259e-16
-2.08971e-10
-1.56735e-16
-2.0894e-10
1.61691e-16
-2.08918e-10
2.39438e-16
-2.08942e-10
-2.08971e-10
-2.5233e-16
-2.08971e-10
-1.57433e-16
-2.0894e-10
1.62503e-16
-2.08918e-10
2.40636e-16
-2.08942e-10
-2.08971e-10
-2.53887e-16
-2.0897e-10
-1.58421e-16
-2.0894e-10
1.63581e-16
-2.08918e-10
2.42245e-16
-2.08942e-10
-2.08971e-10
-2.56245e-16
-1.59942e-16
1.65192e-16
2.44541e-16
)
;

boundaryField
{
    BotWall
    {
        type            calculated;
        value           nonuniform List<scalar> 5(4.51491e-22 8.63027e-22 1.31189e-21 1.05928e-21 8.17883e-22);
    }
    FreeStream
    {
        type            calculated;
        value           nonuniform List<scalar> 5(-2.0897e-10 -2.0894e-10 -2.08919e-10 -2.08942e-10 -2.08971e-10);
    }
    FrontNBack
    {
        type            empty;
        value           nonuniform 0();
    }
    LeftSide
    {
        type            symmetryPlane;
        value           uniform 0;
    }
    RightSide
    {
        type            symmetryPlane;
        value           uniform 0;
    }
}


// ************************************************************************* //
