/*--------------------------------*- C++ -*----------------------------------*\
| =========                 |                                                 |
| \\      /  F ield         | OpenFOAM: The Open Source CFD Toolbox           |
|  \\    /   O peration     | Version:  2.4.0                                 |
|   \\  /    A nd           | Web:      www.OpenFOAM.org                      |
|    \\/     M anipulation  |                                                 |
\*---------------------------------------------------------------------------*/
FoamFile
{
    version     2.0;
    format      ascii;
    class       volVectorField;
    location    "4.2";
    object      U;
}
// * * * * * * * * * * * * * * * * * * * * * * * * * * * * * * * * * * * * * //

dimensions      [0 1 -1 0 0 0 0];

internalField   nonuniform List<vector> 
500
(
(4.48753e-09 1.0086e-10 0)
(1.2068e-08 1.28742e-10 0)
(-8.95919e-10 1.55991e-10 0)
(-1.22847e-08 1.25556e-10 0)
(-3.84557e-09 1.01424e-10 0)
(1.39339e-08 -5.44021e-10 0)
(3.67115e-08 -2.48306e-10 0)
(-2.68734e-09 3.29994e-11 0)
(-3.7352e-08 -2.83036e-10 0)
(-1.19993e-08 -5.37953e-10 0)
(2.39175e-08 -1.62208e-10 0)
(6.20205e-08 7.69428e-10 0)
(-4.48921e-09 1.58834e-09 0)
(-6.30776e-08 6.67477e-10 0)
(-2.06732e-08 -1.44125e-10 0)
(3.44607e-08 -2.16422e-09 0)
(8.8026e-08 -3.03459e-10 0)
(-6.30284e-09 1.34495e-09 0)
(-8.94921e-08 -5.08548e-10 0)
(-2.98875e-08 -2.12766e-09 0)
(4.55801e-08 -1.464e-09 0)
(1.14756e-07 1.77759e-09 0)
(-8.12878e-09 4.55728e-09 0)
(-1.16622e-07 1.43167e-09 0)
(-3.96573e-08 -1.40177e-09 0)
(5.73023e-08 -4.92216e-09 0)
(1.42248e-07 -1.93417e-11 0)
(-9.96823e-09 4.20009e-09 0)
(-1.44505e-07 -5.4284e-10 0)
(-5.00069e-08 -4.82737e-09 0)
(6.96441e-08 -3.86488e-09 0)
(1.70529e-07 3.24193e-09 0)
(-1.1822e-08 9.22813e-09 0)
(-1.73168e-07 2.50059e-09 0)
(-6.09512e-08 -3.72947e-09 0)
(8.26361e-08 -8.92702e-09 0)
(1.99643e-07 6.62135e-10 0)
(-1.36912e-08 8.75031e-09 0)
(-2.02652e-07 -3.35726e-10 0)
(-7.25184e-08 -8.74342e-09 0)
(9.62957e-08 -7.46378e-09 0)
(2.29619e-07 5.25161e-09 0)
(-1.55768e-08 1.57993e-08 0)
(-2.32987e-07 3.95382e-09 0)
(-8.47241e-08 -7.22286e-09 0)
(1.10658e-07 -1.44991e-08 0)
(2.60506e-07 1.6221e-09 0)
(-1.74802e-08 1.49926e-08 0)
(-2.64219e-07 -1.6259e-11 0)
(-9.76001e-08 -1.41924e-08 0)
(1.25741e-07 -1.30696e-08 0)
(2.92334e-07 7.20766e-09 0)
(-1.94025e-08 2.37904e-08 0)
(-2.96379e-07 5.18191e-09 0)
(-1.11163e-07 -1.26869e-08 0)
(1.41585e-07 -2.24722e-08 0)
(3.25159e-07 2.24359e-09 0)
(-2.13452e-08 2.24369e-08 0)
(-3.29521e-07 -2.13632e-10 0)
(-1.25449e-07 -2.20041e-08 0)
(1.58209e-07 -1.67724e-08 0)
(3.59014e-07 1.32532e-08 0)
(-2.33096e-08 3.75077e-08 0)
(-3.63678e-07 1.03097e-08 0)
(-1.40475e-07 -1.62074e-08 0)
(1.75657e-07 -1.53366e-08 0)
(3.9396e-07 2.03366e-08 0)
(-2.52975e-08 4.91258e-08 0)
(-3.98908e-07 1.68626e-08 0)
(-1.56282e-07 -1.46638e-08 0)
(1.93954e-07 -1.89254e-09 0)
(4.30035e-07 4.04763e-08 0)
(-2.73101e-08 7.42375e-08 0)
(-4.35249e-07 3.64191e-08 0)
(-1.7289e-07 -1.097e-09 0)
(2.13145e-07 -9.93931e-08 0)
(4.67306e-07 -5.03744e-08 0)
(-2.93496e-08 -1.13997e-08 0)
(-4.72766e-07 -5.50472e-08 0)
(-1.90343e-07 -9.84664e-08 0)
(2.33254e-07 -4.31147e-07 0)
(5.05805e-07 -3.75547e-07 0)
(-3.1417e-08 -3.3171e-07 0)
(-5.11491e-07 -3.80819e-07 0)
(-2.08659e-07 -4.3009e-07 0)
(2.54317e-07 -7.06723e-07 0)
(5.45579e-07 -6.44639e-07 0)
(-3.35139e-08 -5.96146e-07 0)
(-5.51469e-07 -6.50502e-07 0)
(-2.27874e-07 -7.05534e-07 0)
(2.7637e-07 1.48736e-06 0)
(5.86681e-07 1.56594e-06 0)
(-3.55482e-08 1.62593e-06 0)
(-5.92643e-07 1.55889e-06 0)
(-2.48003e-07 1.4888e-06 0)
(2.99579e-07 1.03104e-05 0)
(6.29227e-07 1.04342e-05 0)
(-3.79163e-08 1.05294e-05 0)
(-6.35571e-07 1.04239e-05 0)
(-2.69257e-07 1.03125e-05 0)
(3.24397e-07 1.64438e-05 0)
(6.73913e-07 1.66383e-05 0)
(-4.02941e-08 1.67939e-05 0)
(-6.80561e-07 1.66226e-05 0)
(-2.92026e-07 1.64469e-05 0)
(3.51047e-07 -3.83262e-05 0)
(7.22507e-07 -3.83313e-05 0)
(-4.21145e-08 -3.83294e-05 0)
(-7.28844e-07 -3.83341e-05 0)
(-3.1656e-07 -3.83253e-05 0)
(3.78591e-07 -0.000291791 0)
(7.72784e-07 -0.000292286 0)
(-4.40111e-08 -0.000292687 0)
(-7.78786e-07 -0.000292254 0)
(-3.41867e-07 -0.000291796 0)
(3.82943e-07 -0.000768197 0)
(7.80658e-07 -0.000767994 0)
(-4.4289e-08 -0.000767855 0)
(-7.86611e-07 -0.000768007 0)
(-3.45891e-07 -0.000768194 0)
(3.73777e-07 -0.00177523 0)
(7.60292e-07 -0.00177489 0)
(-4.28798e-08 -0.00177463 0)
(-7.66421e-07 -0.00177491 0)
(-3.38376e-07 -0.00177523 0)
(3.56273e-07 -0.00108343 0)
(7.25882e-07 -0.00108355 0)
(-4.10339e-08 -0.00108364 0)
(-7.32255e-07 -0.00108355 0)
(-3.23016e-07 -0.00108343 0)
(3.3945e-07 -0.00100706 0)
(6.92524e-07 -0.00100712 0)
(-3.92334e-08 -0.00100718 0)
(-6.99121e-07 -0.00100712 0)
(-3.08264e-07 -0.00100706 0)
(3.23617e-07 -0.00102305 0)
(6.60882e-07 -0.00102307 0)
(-3.75071e-08 -0.00102309 0)
(-6.67679e-07 -0.00102307 0)
(-2.94394e-07 -0.00102305 0)
(3.08392e-07 -0.00104252 0)
(6.30419e-07 -0.00104251 0)
(-3.58419e-08 -0.00104252 0)
(-6.37394e-07 -0.00104251 0)
(-2.81041e-07 -0.00104252 0)
(2.93554e-07 -0.00104646 0)
(6.00766e-07 -0.00104645 0)
(-3.42255e-08 -0.00104645 0)
(-6.07899e-07 -0.00104645 0)
(-2.68e-07 -0.00104646 0)
(2.79101e-07 -0.00104562 0)
(5.71892e-07 -0.0010456 0)
(-3.26556e-08 -0.00104559 0)
(-5.79167e-07 -0.0010456 0)
(-2.55271e-07 -0.00104562 0)
(2.65055e-07 -0.00104486 0)
(5.43827e-07 -0.00104482 0)
(-3.11321e-08 -0.00104481 0)
(-5.51225e-07 -0.00104482 0)
(-2.42879e-07 -0.00104486 0)
(2.51423e-07 -0.0010447 0)
(5.16578e-07 -0.00104466 0)
(-2.9655e-08 -0.00104463 0)
(-5.24081e-07 -0.00104466 0)
(-2.30829e-07 -0.0010447 0)
(2.38198e-07 -0.00104475 0)
(4.90137e-07 -0.00104469 0)
(-2.82236e-08 -0.00104466 0)
(-4.97729e-07 -0.00104469 0)
(-2.19119e-07 -0.00104474 0)
(2.25376e-07 -0.00104478 0)
(4.64495e-07 -0.00104472 0)
(-2.68374e-08 -0.00104468 0)
(-4.72159e-07 -0.00104472 0)
(-2.07744e-07 -0.00104478 0)
(2.12952e-07 -0.0010448 0)
(4.39642e-07 -0.00104472 0)
(-2.54955e-08 -0.00104468 0)
(-4.47363e-07 -0.00104473 0)
(-1.96703e-07 -0.0010448 0)
(2.00922e-07 -0.0010448 0)
(4.15571e-07 -0.00104472 0)
(-2.41974e-08 -0.00104467 0)
(-4.23334e-07 -0.00104472 0)
(-1.85991e-07 -0.0010448 0)
(1.89282e-07 -0.00104481 0)
(3.92274e-07 -0.00104471 0)
(-2.29424e-08 -0.00104466 0)
(-4.00063e-07 -0.00104472 0)
(-1.75608e-07 -0.00104481 0)
(1.78028e-07 -0.00104481 0)
(3.6974e-07 -0.00104471 0)
(-2.17297e-08 -0.00104465 0)
(-3.77543e-07 -0.00104472 0)
(-1.6555e-07 -0.00104481 0)
(1.67154e-07 -0.00104482 0)
(3.47961e-07 -0.00104471 0)
(-2.05587e-08 -0.00104464 0)
(-3.55763e-07 -0.00104472 0)
(-1.55813e-07 -0.00104482 0)
(1.56656e-07 -0.00104482 0)
(3.26927e-07 -0.00104471 0)
(-1.94287e-08 -0.00104464 0)
(-3.34716e-07 -0.00104472 0)
(-1.46395e-07 -0.00104482 0)
(1.4653e-07 -0.00104483 0)
(3.06629e-07 -0.00104471 0)
(-1.83389e-08 -0.00104463 0)
(-3.14392e-07 -0.00104472 0)
(-1.37293e-07 -0.00104483 0)
(1.36769e-07 -0.00104483 0)
(2.87056e-07 -0.0010447 0)
(-1.72887e-08 -0.00104462 0)
(-2.94781e-07 -0.00104471 0)
(-1.28503e-07 -0.00104483 0)
(1.27369e-07 -0.00104484 0)
(2.68198e-07 -0.0010447 0)
(-1.62772e-08 -0.00104462 0)
(-2.75874e-07 -0.00104471 0)
(-1.20021e-07 -0.00104484 0)
(1.18325e-07 -0.00104484 0)
(2.50044e-07 -0.0010447 0)
(-1.53038e-08 -0.00104461 0)
(-2.5766e-07 -0.00104471 0)
(-1.11844e-07 -0.00104484 0)
(1.09631e-07 -0.00104485 0)
(2.32584e-07 -0.0010447 0)
(-1.43677e-08 -0.00104461 0)
(-2.40129e-07 -0.00104471 0)
(-1.03968e-07 -0.00104485 0)
(1.01281e-07 -0.00104485 0)
(2.15806e-07 -0.0010447 0)
(-1.34682e-08 -0.0010446 0)
(-2.23271e-07 -0.00104471 0)
(-9.63882e-08 -0.00104485 0)
(9.32695e-08 -0.00104485 0)
(1.99699e-07 -0.0010447 0)
(-1.26044e-08 -0.0010446 0)
(-2.07075e-07 -0.00104471 0)
(-8.91014e-08 -0.00104485 0)
(8.55914e-08 -0.00104486 0)
(1.84251e-07 -0.0010447 0)
(-1.17758e-08 -0.00104459 0)
(-1.91529e-07 -0.00104471 0)
(-8.21031e-08 -0.00104486 0)
(7.82403e-08 -0.00104486 0)
(1.6945e-07 -0.0010447 0)
(-1.09814e-08 -0.00104459 0)
(-1.76623e-07 -0.00104471 0)
(-7.53889e-08 -0.00104486 0)
(7.12102e-08 -0.00104486 0)
(1.55286e-07 -0.00104469 0)
(-1.02206e-08 -0.00104458 0)
(-1.62345e-07 -0.00104471 0)
(-6.89542e-08 -0.00104486 0)
(6.4495e-08 -0.00104487 0)
(1.41744e-07 -0.00104469 0)
(-9.49259e-09 -0.00104458 0)
(-1.48684e-07 -0.00104471 0)
(-6.27945e-08 -0.00104486 0)
(5.80884e-08 -0.00104487 0)
(1.28814e-07 -0.00104469 0)
(-8.79658e-09 -0.00104458 0)
(-1.35627e-07 -0.00104471 0)
(-5.69049e-08 -0.00104487 0)
(5.19843e-08 -0.00104487 0)
(1.16482e-07 -0.00104469 0)
(-8.13183e-09 -0.00104457 0)
(-1.23163e-07 -0.00104471 0)
(-5.12808e-08 -0.00104487 0)
(4.61762e-08 -0.00104487 0)
(1.04737e-07 -0.00104469 0)
(-7.49759e-09 -0.00104457 0)
(-1.11279e-07 -0.0010447 0)
(-4.59171e-08 -0.00104487 0)
(4.06576e-08 -0.00104487 0)
(9.35639e-08 -0.00104469 0)
(-6.89308e-09 -0.00104457 0)
(-9.99631e-08 -0.0010447 0)
(-4.08088e-08 -0.00104487 0)
(3.5422e-08 -0.00104488 0)
(8.29514e-08 -0.00104469 0)
(-6.31754e-09 -0.00104457 0)
(-8.9203e-08 -0.0010447 0)
(-3.59507e-08 -0.00104487 0)
(3.04627e-08 -0.00104488 0)
(7.28859e-08 -0.00104469 0)
(-5.77023e-09 -0.00104456 0)
(-7.8986e-08 -0.0010447 0)
(-3.13377e-08 -0.00104488 0)
(2.57732e-08 -0.00104488 0)
(6.33542e-08 -0.00104469 0)
(-5.25039e-09 -0.00104456 0)
(-6.92993e-08 -0.0010447 0)
(-2.69643e-08 -0.00104488 0)
(2.13467e-08 -0.00104488 0)
(5.43431e-08 -0.00104469 0)
(-4.75726e-09 -0.00104456 0)
(-6.013e-08 -0.0010447 0)
(-2.28253e-08 -0.00104488 0)
(1.71764e-08 -0.00104488 0)
(4.58391e-08 -0.00104469 0)
(-4.2901e-09 -0.00104456 0)
(-5.14652e-08 -0.0010447 0)
(-1.89151e-08 -0.00104488 0)
(1.32555e-08 -0.00104488 0)
(3.78287e-08 -0.00104469 0)
(-3.84816e-09 -0.00104456 0)
(-4.32919e-08 -0.0010447 0)
(-1.52282e-08 -0.00104488 0)
(9.57702e-09 -0.00104488 0)
(3.02983e-08 -0.00104469 0)
(-3.4307e-09 -0.00104456 0)
(-3.55968e-08 -0.0010447 0)
(-1.17589e-08 -0.00104488 0)
(6.13409e-09 -0.00104488 0)
(2.32342e-08 -0.00104469 0)
(-3.03699e-09 -0.00104456 0)
(-2.83667e-08 -0.0010447 0)
(-8.50149e-09 -0.00104488 0)
(2.91975e-09 -0.00104488 0)
(1.66228e-08 -0.00104469 0)
(-2.6663e-09 -0.00104456 0)
(-2.15884e-08 -0.0010447 0)
(-5.45028e-09 -0.00104488 0)
(-7.30118e-11 -0.00104488 0)
(1.04503e-08 -0.00104469 0)
(-2.3179e-09 -0.00104455 0)
(-1.52483e-08 -0.0010447 0)
(-2.59942e-09 -0.00104488 0)
(-2.85123e-09 -0.00104488 0)
(4.70269e-09 -0.00104469 0)
(-1.99107e-09 -0.00104455 0)
(-9.33312e-09 -0.0010447 0)
(5.69801e-11 -0.00104488 0)
(-5.42198e-09 -0.00104488 0)
(-6.33771e-10 -0.00104469 0)
(-1.68511e-09 -0.00104455 0)
(-3.82925e-09 -0.0010447 0)
(2.52487e-09 -0.00104488 0)
(-7.79234e-09 -0.00104488 0)
(-5.57305e-09 -0.00104469 0)
(-1.3993e-09 -0.00104455 0)
(1.27684e-09 -0.0010447 0)
(4.81024e-09 -0.00104488 0)
(-9.96943e-09 -0.00104488 0)
(-1.01291e-08 -0.00104469 0)
(-1.13294e-09 -0.00104455 0)
(5.99876e-09 -0.0010447 0)
(6.91914e-09 -0.00104488 0)
(-1.19604e-08 -0.00104488 0)
(-1.43159e-08 -0.00104469 0)
(-8.85341e-10 -0.00104456 0)
(1.03502e-08 -0.0010447 0)
(8.85765e-09 -0.00104488 0)
(-1.37724e-08 -0.00104488 0)
(-1.81475e-08 -0.00104469 0)
(-6.55811e-10 -0.00104456 0)
(1.43447e-08 -0.0010447 0)
(1.06319e-08 -0.00104488 0)
(-1.54126e-08 -0.00104488 0)
(-2.1638e-08 -0.00104469 0)
(-4.4367e-10 -0.00104456 0)
(1.79962e-08 -0.0010447 0)
(1.22481e-08 -0.00104488 0)
(-1.68882e-08 -0.00104488 0)
(-2.48013e-08 -0.00104469 0)
(-2.4824e-10 -0.00104456 0)
(2.13183e-08 -0.0010447 0)
(1.37125e-08 -0.00104488 0)
(-1.82064e-08 -0.00104488 0)
(-2.76517e-08 -0.00104469 0)
(-6.88528e-11 -0.00104456 0)
(2.43249e-08 -0.0010447 0)
(1.50314e-08 -0.00104488 0)
(-1.93746e-08 -0.00104488 0)
(-3.02031e-08 -0.00104469 0)
(9.51572e-11 -0.00104456 0)
(2.70297e-08 -0.0010447 0)
(1.6211e-08 -0.00104488 0)
(-2.03999e-08 -0.00104488 0)
(-3.24698e-08 -0.00104469 0)
(2.44449e-10 -0.00104456 0)
(2.94467e-08 -0.0010447 0)
(1.72577e-08 -0.00104488 0)
(-2.12896e-08 -0.00104488 0)
(-3.44659e-08 -0.00104469 0)
(3.79676e-10 -0.00104456 0)
(3.15897e-08 -0.0010447 0)
(1.8178e-08 -0.00104488 0)
(-2.20511e-08 -0.00104488 0)
(-3.62056e-08 -0.00104469 0)
(5.01489e-10 -0.00104456 0)
(3.34727e-08 -0.0010447 0)
(1.89783e-08 -0.00104488 0)
(-2.26918e-08 -0.00104488 0)
(-3.77033e-08 -0.00104469 0)
(6.10535e-10 -0.00104456 0)
(3.51097e-08 -0.0010447 0)
(1.96651e-08 -0.00104488 0)
(-2.3219e-08 -0.00104487 0)
(-3.89731e-08 -0.00104469 0)
(7.07456e-10 -0.00104456 0)
(3.65147e-08 -0.00104471 0)
(2.0245e-08 -0.00104488 0)
(-2.36402e-08 -0.00104487 0)
(-4.00295e-08 -0.00104469 0)
(7.92895e-10 -0.00104457 0)
(3.77019e-08 -0.00104471 0)
(2.07247e-08 -0.00104488 0)
(-2.3963e-08 -0.00104487 0)
(-4.08869e-08 -0.00104469 0)
(8.67492e-10 -0.00104457 0)
(3.86855e-08 -0.00104471 0)
(2.11107e-08 -0.00104487 0)
(-2.41949e-08 -0.00104487 0)
(-4.15598e-08 -0.00104469 0)
(9.31888e-10 -0.00104457 0)
(3.94798e-08 -0.00104471 0)
(2.141e-08 -0.00104487 0)
(-2.43435e-08 -0.00104487 0)
(-4.2063e-08 -0.00104469 0)
(9.86727e-10 -0.00104457 0)
(4.00992e-08 -0.00104471 0)
(2.16293e-08 -0.00104487 0)
(-2.44166e-08 -0.00104487 0)
(-4.24112e-08 -0.00104469 0)
(1.03266e-09 -0.00104457 0)
(4.05584e-08 -0.00104471 0)
(2.17757e-08 -0.00104487 0)
(-2.44222e-08 -0.00104487 0)
(-4.26194e-08 -0.00104469 0)
(1.07032e-09 -0.00104457 0)
(4.0872e-08 -0.00104471 0)
(2.18561e-08 -0.00104487 0)
(-2.43681e-08 -0.00104487 0)
(-4.27027e-08 -0.00104469 0)
(1.10039e-09 -0.00104457 0)
(4.1055e-08 -0.00104471 0)
(2.18777e-08 -0.00104487 0)
(-2.42626e-08 -0.00104487 0)
(-4.26766e-08 -0.00104469 0)
(1.12353e-09 -0.00104458 0)
(4.11226e-08 -0.00104471 0)
(2.1848e-08 -0.00104487 0)
(-2.41138e-08 -0.00104486 0)
(-4.25566e-08 -0.00104469 0)
(1.14042e-09 -0.00104458 0)
(4.10901e-08 -0.00104471 0)
(2.17743e-08 -0.00104487 0)
(-2.39304e-08 -0.00104486 0)
(-4.23588e-08 -0.00104469 0)
(1.15175e-09 -0.00104458 0)
(4.09733e-08 -0.00104471 0)
(2.16643e-08 -0.00104487 0)
(-2.37211e-08 -0.00104486 0)
(-4.20994e-08 -0.0010447 0)
(1.15824e-09 -0.00104458 0)
(4.07881e-08 -0.00104471 0)
(2.15258e-08 -0.00104486 0)
(-2.34948e-08 -0.00104486 0)
(-4.17951e-08 -0.0010447 0)
(1.16063e-09 -0.00104458 0)
(4.05512e-08 -0.00104471 0)
(2.1367e-08 -0.00104486 0)
(-2.32608e-08 -0.00104486 0)
(-4.14632e-08 -0.0010447 0)
(1.15968e-09 -0.00104458 0)
(4.02794e-08 -0.00104471 0)
(2.11961e-08 -0.00104486 0)
(-2.30288e-08 -0.00104486 0)
(-4.11213e-08 -0.0010447 0)
(1.15618e-09 -0.00104458 0)
(3.99901e-08 -0.00104471 0)
(2.10217e-08 -0.00104486 0)
(-2.28087e-08 -0.00104486 0)
(-4.07877e-08 -0.0010447 0)
(1.15096e-09 -0.00104459 0)
(3.97012e-08 -0.00104471 0)
(2.08526e-08 -0.00104486 0)
(-2.26108e-08 -0.00104486 0)
(-4.04813e-08 -0.0010447 0)
(1.14489e-09 -0.00104459 0)
(3.94314e-08 -0.00104471 0)
(2.06983e-08 -0.00104486 0)
(-2.24467e-08 -0.00104485 0)
(-4.0223e-08 -0.0010447 0)
(1.13891e-09 -0.00104459 0)
(3.92011e-08 -0.00104471 0)
(2.05687e-08 -0.00104486 0)
(-2.23299e-08 -0.00104485 0)
(-4.00367e-08 -0.0010447 0)
(1.13409e-09 -0.00104459 0)
(3.90337e-08 -0.00104471 0)
(2.0476e-08 -0.00104486 0)
(-2.22732e-08 -0.00104485 0)
(-3.99456e-08 -0.0010447 0)
(1.13152e-09 -0.00104459 0)
(3.8952e-08 -0.00104471 0)
(2.04315e-08 -0.00104485 0)
)
;

boundaryField
{
    BotWall
    {
        type            fixedValue;
        value           uniform (0 0 0);
    }
    FreeStream
    {
        type            zeroGradient;
    }
    FrontNBack
    {
        type            empty;
    }
    LeftSide
    {
        type            symmetryPlane;
    }
    RightSide
    {
        type            symmetryPlane;
    }
}


// ************************************************************************* //
