/*--------------------------------*- C++ -*----------------------------------*\
| =========                 |                                                 |
| \\      /  F ield         | OpenFOAM: The Open Source CFD Toolbox           |
|  \\    /   O peration     | Version:  2.4.0                                 |
|   \\  /    A nd           | Web:      www.OpenFOAM.org                      |
|    \\/     M anipulation  |                                                 |
\*---------------------------------------------------------------------------*/
FoamFile
{
    version     2.0;
    format      ascii;
    class       volScalarField;
    location    "3.6";
    object      p_rgh;
}
// * * * * * * * * * * * * * * * * * * * * * * * * * * * * * * * * * * * * * //

dimensions      [1 -1 -2 0 0 0 0];

internalField   nonuniform List<scalar> 
8000
(
27.0702
27.0848
27.1009
27.1161
27.1311
27.1445
27.158
27.169
27.1819
27.1937
27.2051
27.216
27.2264
27.2364
27.246
27.2551
27.2641
27.2727
27.2791
27.2861
27.2927
27.2985
27.3038
27.3081
27.3121
27.3169
27.3239
27.326
27.3063
27.2774
27.1586
26.8313
25.9765
20.249
13.6246
9.65973
1.36576
-1.17969
-0.933303
-0.259942
-0.215003
-0.2142
-0.21729
-0.21604
-0.215522
-0.215108
-0.215061
-0.214738
-0.214451
-0.214253
27.8284
27.8376
27.8481
27.8582
27.8686
27.8777
27.8868
27.8954
27.9038
27.9118
27.9193
27.9264
27.9332
27.9396
27.9455
27.9512
27.9564
27.9614
27.9658
27.9701
27.9737
27.9775
27.9822
27.9895
27.9929
27.9804
27.9743
27.8466
27.3033
25.7256
18.731
12.2011
6.13158
-2.46132
-2.28961
-0.169123
-0.0479911
-0.231564
-0.216731
-0.225631
-0.225794
-0.225745
-0.225274
-0.225508
-0.225298
-0.225084
-0.224841
-0.224695
-0.224487
-0.224282
28.324
28.3479
28.3731
28.3955
28.4154
28.4334
28.4492
28.4639
28.4768
28.4876
28.497
28.5049
28.511
28.5156
28.5183
28.5196
28.5189
28.5167
28.5122
28.5061
28.4979
28.4901
28.4891
28.5069
28.3998
27.5628
25.2722
16.4942
11.9202
-1.31013
-2.88924
-0.102379
0.256054
-0.235302
-0.227574
-0.236898
-0.235302
-0.234885
-0.235389
-0.235302
-0.235187
-0.235096
-0.235007
-0.234913
-0.234804
-0.234679
-0.234546
-0.234408
-0.234263
-0.234116
29.2478
29.2738
29.3014
29.3261
29.3485
29.3692
29.3885
29.4061
29.4226
29.4376
29.4512
29.4636
29.4749
29.485
29.494
29.5018
29.508
29.5122
29.5173
29.5352
29.5825
29.6028
29.1497
27.3147
20.4746
10.2384
-3.92706
-3.25789
-0.728634
-0.218651
-0.226836
-0.24512
-0.243325
-0.243765
-0.245158
-0.245676
-0.245324
-0.244891
-0.244744
-0.244641
-0.244544
-0.244441
-0.244333
-0.244219
-0.244104
-0.243988
-0.243873
-0.243757
-0.24364
-0.243523
30.8711
30.8623
30.8539
30.8476
30.8433
30.8407
30.8398
30.84
30.8418
30.8452
30.8495
30.8557
30.8634
30.8726
30.8823
30.892
30.907
30.9498
31.0407
31.0473
30.4027
28.3002
21.0849
4.62627
-0.443147
-0.256794
-0.302129
-0.272808
-0.259483
-0.259945
-0.259831
-0.259941
-0.259676
-0.259132
-0.258701
-0.25829
-0.257921
-0.2576
-0.257309
-0.257045
-0.256802
-0.256574
-0.256358
-0.256154
-0.255953
-0.25576
-0.255566
-0.255378
-0.255186
-0.254996
31.8884
31.8731
31.8571
31.8426
31.8295
31.8172
31.8054
31.7944
31.7837
31.7738
31.7641
31.755
31.7453
31.7349
31.728
31.7431
31.7933
31.7617
31.1928
29.5796
23.5109
2.60209
0.0788805
0.19929
-0.290381
-0.260163
-0.266488
-0.267773
-0.268033
-0.268032
-0.267954
-0.267872
-0.267816
-0.267635
-0.267592
-0.267524
-0.267422
-0.266732
-0.266665
-0.266729
-0.265974
-0.266585
-0.266371
-0.266208
-0.266142
-0.265949
-0.265602
-0.265434
-0.265235
-0.265035
32.2374
32.2586
32.2793
32.2952
32.3069
32.3149
32.3194
32.3207
32.3185
32.313
32.3038
32.2898
32.2711
32.2555
32.2694
32.3166
32.1878
31.2292
29.0799
6.4259
-0.734687
-0.220043
-0.258105
-0.259512
-0.274929
-0.276452
-0.276349
-0.276395
-0.276507
-0.276685
-0.276831
-0.276876
-0.276797
-0.276828
-0.276862
-0.276832
-0.27659
-0.275809
-0.276076
-0.275937
-0.275784
-0.275624
-0.275456
-0.275201
-0.274991
-0.274943
-0.274763
-0.274583
-0.274403
-0.274225
33.7532
33.7671
33.7797
33.7878
33.7918
33.7919
33.7883
33.7812
33.7706
33.756
33.7369
33.7136
33.6946
33.6975
33.7068
33.5186
32.6683
27.356
0.608529
-0.265031
-0.261112
-0.268
-0.281843
-0.282072
-0.281854
-0.28158
-0.281964
-0.282012
-0.282149
-0.282234
-0.282312
-0.282345
-0.282281
-0.281768
-0.281768
-0.281849
-0.281884
-0.281839
-0.281795
-0.281743
-0.281686
-0.281627
-0.281566
-0.281502
-0.281436
-0.281366
-0.281297
-0.281227
-0.281156
-0.281086
36.1194
36.1024
36.0837
36.066
36.0489
36.032
36.0152
35.9987
35.9815
35.9625
35.9418
35.934
35.9774
36.0608
35.8138
34.2504
31.6668
5.36172
-0.2788
-0.288271
-0.288279
-0.288227
-0.287777
-0.287964
-0.287848
-0.28778
-0.28774
-0.287713
-0.2877
-0.287698
-0.287704
-0.287715
-0.287728
-0.287745
-0.287763
-0.287791
-0.287824
-0.287855
-0.287883
-0.287911
-0.287939
-0.287967
-0.287995
-0.288022
-0.288048
-0.288074
-0.288099
-0.288124
-0.288148
-0.288171
38.1201
38.0945
38.067
38.0421
38.02
37.9993
37.9809
37.9633
37.9474
37.932
37.9176
37.9128
37.9375
37.9756
37.8107
36.9475
31.9346
1.48464
-0.295335
-0.295895
-0.295907
-0.295934
-0.295926
-0.295913
-0.295902
-0.295895
-0.295892
-0.295895
-0.295902
-0.295915
-0.295931
-0.295951
-0.295974
-0.295998
-0.296025
-0.296052
-0.29608
-0.296109
-0.29614
-0.296171
-0.296202
-0.296234
-0.296267
-0.2963
-0.296333
-0.296366
-0.2964
-0.296433
-0.296467
-0.296501
39.8479
39.823
39.7964
39.7723
39.7508
39.7303
39.7125
39.6951
39.6795
39.6645
39.651
39.6467
39.666
39.6857
39.512
38.782
29.6725
0.26171
-0.30566
-0.305086
-0.305229
-0.305278
-0.305255
-0.305218
-0.305184
-0.305154
-0.305125
-0.305099
-0.305075
-0.305054
-0.305035
-0.30502
-0.305008
-0.304999
-0.304993
-0.304989
-0.304989
-0.304991
-0.304996
-0.305004
-0.305013
-0.305025
-0.305039
-0.305055
-0.305073
-0.305092
-0.305113
-0.305135
-0.305158
-0.305183
41.2339
41.2166
41.198
41.1808
41.1657
41.1505
41.1381
41.125
41.1134
41.1018
41.0916
41.0902
41.109
41.1172
40.9259
40.2529
25.474
-0.222757
-0.314496
-0.314043
-0.314142
-0.314168
-0.314145
-0.314114
-0.314086
-0.314062
-0.314041
-0.314021
-0.314003
-0.313987
-0.313973
-0.313962
-0.313952
-0.313945
-0.31394
-0.313937
-0.313937
-0.313938
-0.313941
-0.313946
-0.313953
-0.313962
-0.313972
-0.313984
-0.313998
-0.314012
-0.314029
-0.314046
-0.314064
-0.314084
42.4871
42.4793
42.4707
42.4625
42.4553
42.4467
42.4408
42.433
42.426
42.4183
42.4112
42.4115
42.4292
42.4357
42.258
41.648
21.8443
-0.316807
-0.322746
-0.322817
-0.322879
-0.322882
-0.322867
-0.322851
-0.322838
-0.322827
-0.322817
-0.322808
-0.3228
-0.322794
-0.322789
-0.322785
-0.322783
-0.322783
-0.322784
-0.322786
-0.32279
-0.322796
-0.322803
-0.322811
-0.322821
-0.322832
-0.322844
-0.322858
-0.322872
-0.322888
-0.322905
-0.322922
-0.322941
-0.32296
43.6825
43.6822
43.6816
43.6806
43.6799
43.6768
43.6766
43.6737
43.6711
43.6674
43.6634
43.6645
43.6816
43.699
43.575
43.0432
20.8262
-0.331904
-0.331136
-0.331354
-0.331426
-0.331433
-0.331432
-0.331435
-0.33144
-0.331446
-0.331453
-0.33146
-0.331469
-0.331479
-0.331489
-0.331501
-0.331514
-0.331528
-0.331542
-0.331558
-0.331575
-0.331592
-0.33161
-0.331629
-0.331649
-0.33167
-0.331691
-0.331712
-0.331734
-0.331757
-0.33178
-0.331803
-0.331827
-0.33185
45.019
45.0237
45.029
45.0339
45.039
45.0419
45.0466
45.0502
45.0538
45.0566
45.0588
45.0671
45.0978
45.1392
45.017
44.3321
26.0555
-0.339937
-0.339535
-0.33976
-0.339858
-0.339894
-0.339918
-0.339945
-0.339973
-0.340001
-0.34003
-0.340059
-0.340088
-0.340118
-0.340149
-0.34018
-0.340211
-0.340243
-0.340275
-0.340308
-0.340341
-0.340374
-0.340407
-0.340441
-0.340475
-0.340509
-0.340542
-0.340576
-0.34061
-0.340644
-0.340677
-0.34071
-0.340743
-0.340776
46.3286
46.3383
46.3494
46.36
46.3709
46.38
46.3909
46.4017
46.4121
46.4213
46.4293
46.4465
46.501
46.5848
46.4316
45.3285
39.8243
0.295621
-0.348373
-0.347947
-0.348187
-0.34832
-0.348382
-0.348438
-0.348493
-0.348548
-0.348602
-0.348657
-0.348712
-0.348767
-0.348822
-0.348877
-0.348932
-0.348987
-0.349042
-0.349096
-0.34915
-0.349203
-0.349257
-0.349309
-0.349361
-0.349412
-0.349463
-0.349512
-0.349561
-0.349609
-0.349656
-0.349703
-0.349748
-0.349792
47.6224
47.6382
47.6553
47.6726
47.687
47.701
47.7143
47.7271
47.7391
47.7507
47.761
47.7709
47.7877
47.8277
47.8771
47.7581
47.0843
22.6418
0.0461433
-0.355808
-0.356247
-0.356561
-0.356716
-0.356816
-0.356911
-0.357004
-0.357096
-0.35719
-0.357284
-0.357378
-0.357471
-0.357565
-0.357657
-0.357748
-0.357839
-0.357927
-0.358014
-0.3581
-0.358184
-0.358266
-0.358346
-0.358424
-0.3585
-0.358574
-0.358646
-0.358716
-0.358784
-0.35885
-0.358914
-0.358975
49.0901
49.1114
49.1344
49.1559
49.1741
49.1909
49.2062
49.22
49.2318
49.2421
49.25
49.2554
49.2597
49.2718
49.3061
49.3205
49.1673
48.6662
19.6993
1.05988
-0.341725
-0.36369
-0.364246
-0.364646
-0.364921
-0.365165
-0.36539
-0.365604
-0.365807
-0.366001
-0.366185
-0.366361
-0.366528
-0.366688
-0.36684
-0.366986
-0.367125
-0.367257
-0.367384
-0.367505
-0.367621
-0.367732
-0.367838
-0.367939
-0.368036
-0.368129
-0.368218
-0.368303
-0.368384
-0.368462
50.8415
50.8619
50.8846
50.9066
50.9265
50.9464
50.9654
50.9838
51.0013
51.018
51.0336
51.0471
51.0582
51.0678
51.087
51.1327
51.1613
50.9896
50.339
27.8473
3.86676
-0.193466
-0.373081
-0.374506
-0.374889
-0.375194
-0.375442
-0.375669
-0.375883
-0.376083
-0.376272
-0.37645
-0.376618
-0.376776
-0.376926
-0.377068
-0.377202
-0.37733
-0.377451
-0.377566
-0.377675
-0.377779
-0.377878
-0.377972
-0.378062
-0.378148
-0.37823
-0.378308
-0.378382
-0.378454
52.5756
52.5883
52.6022
52.6148
52.6261
52.6372
52.6477
52.6577
52.6675
52.6772
52.6871
52.6974
52.7086
52.7196
52.7313
52.7494
52.7968
52.8851
52.8143
52.0001
38.639
8.85567
0.0484188
-0.382217
-0.387757
-0.387892
-0.387914
-0.387926
-0.387946
-0.387972
-0.388004
-0.388041
-0.388081
-0.388125
-0.388171
-0.388218
-0.388267
-0.388317
-0.388367
-0.388418
-0.388468
-0.388518
-0.388568
-0.388617
-0.388665
-0.388713
-0.388759
-0.388805
-0.38885
-0.388893
-0.214008
-0.213768
-0.213537
-0.213323
-0.213109
-0.212901
-0.212697
-0.212498
-0.212304
-0.212114
-0.211927
-0.211743
-0.211562
-0.211384
-0.211208
-0.211035
-0.210865
-0.210697
-0.210532
-0.21037
-0.21021
-0.210052
-0.209897
-0.209744
-0.209594
-0.209446
-0.209301
-0.209158
-0.209017
-0.208879
-0.208743
-0.208609
-0.208477
-0.208348
-0.20822
-0.208095
-0.207972
-0.207851
-0.207732
-0.207615
-0.2075
-0.207386
-0.207275
-0.207166
-0.207058
-0.206952
-0.206848
-0.206745
-0.206645
-0.206546
-0.224085
-0.223885
-0.223689
-0.223497
-0.223308
-0.223122
-0.22294
-0.22276
-0.222582
-0.222407
-0.222234
-0.222063
-0.221895
-0.221728
-0.221564
-0.221402
-0.221241
-0.221083
-0.220927
-0.220772
-0.22062
-0.22047
-0.220322
-0.220175
-0.220031
-0.219889
-0.219748
-0.21961
-0.219474
-0.219339
-0.219207
-0.219076
-0.218948
-0.218821
-0.218696
-0.218573
-0.218452
-0.218333
-0.218216
-0.2181
-0.217986
-0.217873
-0.217763
-0.217654
-0.217547
-0.217441
-0.217337
-0.217234
-0.217133
-0.217033
-0.233968
-0.233818
-0.233667
-0.233515
-0.233363
-0.233209
-0.233056
-0.232903
-0.232749
-0.232596
-0.232444
-0.232292
-0.23214
-0.23199
-0.23184
-0.231691
-0.231544
-0.231397
-0.231252
-0.231108
-0.230966
-0.230824
-0.230685
-0.230546
-0.23041
-0.230274
-0.230141
-0.230009
-0.229878
-0.22975
-0.229623
-0.229497
-0.229373
-0.229251
-0.22913
-0.229011
-0.228894
-0.228778
-0.228663
-0.22855
-0.228439
-0.228329
-0.22822
-0.228113
-0.228007
-0.227903
-0.2278
-0.227699
-0.227597
-0.227494
-0.243405
-0.243286
-0.243166
-0.243045
-0.242923
-0.242801
-0.242677
-0.242553
-0.242428
-0.242303
-0.242178
-0.242052
-0.241926
-0.241801
-0.241675
-0.241549
-0.241424
-0.2413
-0.241175
-0.241052
-0.240929
-0.240807
-0.240686
-0.240566
-0.240446
-0.240328
-0.240211
-0.240094
-0.239979
-0.239865
-0.239753
-0.239641
-0.239531
-0.239421
-0.239313
-0.239207
-0.239101
-0.238997
-0.238893
-0.238791
-0.238689
-0.23859
-0.238491
-0.238394
-0.238298
-0.238204
-0.238112
-0.23802
-0.237929
-0.237776
-0.254807
-0.254621
-0.254436
-0.254253
-0.254071
-0.253892
-0.253715
-0.25354
-0.253368
-0.253198
-0.253032
-0.252867
-0.252706
-0.252548
-0.252392
-0.25224
-0.25209
-0.251944
-0.2518
-0.25166
-0.251522
-0.251388
-0.251257
-0.251129
-0.251004
-0.250881
-0.250762
-0.250646
-0.250532
-0.250422
-0.250314
-0.250209
-0.250107
-0.250008
-0.249912
-0.249819
-0.249729
-0.249642
-0.249555
-0.249465
-0.249385
-0.249309
-0.249237
-0.249168
-0.249102
-0.249039
-0.248978
-0.248922
-0.248865
-0.248446
-0.264837
-0.26464
-0.264445
-0.264251
-0.26406
-0.263871
-0.263685
-0.263503
-0.263323
-0.263148
-0.262977
-0.262809
-0.262645
-0.262486
-0.262331
-0.26218
-0.262033
-0.26189
-0.261752
-0.261617
-0.261487
-0.26136
-0.261237
-0.261118
-0.261003
-0.260891
-0.260783
-0.260678
-0.260576
-0.260477
-0.260382
-0.26029
-0.2602
-0.260112
-0.260028
-0.259947
-0.259868
-0.259794
-0.259728
-0.25912
-0.259335
-0.259312
-0.259274
-0.259225
-0.259172
-0.259123
-0.259079
-0.259039
-0.259003
-0.258944
-0.274048
-0.273872
-0.2737
-0.27353
-0.273362
-0.273198
-0.273037
-0.27288
-0.272726
-0.272577
-0.272431
-0.272289
-0.272152
-0.272019
-0.27189
-0.271765
-0.271645
-0.271529
-0.271418
-0.27131
-0.271206
-0.271106
-0.27101
-0.270918
-0.270829
-0.270744
-0.270662
-0.270584
-0.270508
-0.270436
-0.270368
-0.270303
-0.270242
-0.269899
-0.270067
-0.270014
-0.269964
-0.269903
-0.269839
-0.26883
-0.269394
-0.269398
-0.269355
-0.269318
-0.269268
-0.26915
-0.269118
-0.269062
-0.269022
-0.268925
-0.281016
-0.280946
-0.280877
-0.280809
-0.280742
-0.280676
-0.280612
-0.280549
-0.280488
-0.280429
-0.280371
-0.280316
-0.280262
-0.280211
-0.280161
-0.280114
-0.280069
-0.280026
-0.279985
-0.279946
-0.27991
-0.279875
-0.279843
-0.279813
-0.279786
-0.27976
-0.279738
-0.279718
-0.279696
-0.279672
-0.279662
-0.279656
-0.279185
-0.279331
-0.279366
-0.279364
-0.279359
-0.279356
-0.279292
-0.278963
-0.279479
-0.27953
-0.279536
-0.279549
-0.279556
-0.279565
-0.27957
-0.279554
-0.279448
-0.279241
-0.288193
-0.288215
-0.288236
-0.288257
-0.288277
-0.288297
-0.288317
-0.288337
-0.288357
-0.288377
-0.288398
-0.288418
-0.288439
-0.288461
-0.288484
-0.288507
-0.288531
-0.288556
-0.288583
-0.288611
-0.288641
-0.288672
-0.288704
-0.288739
-0.288775
-0.288809
-0.288851
-0.288889
-0.288666
-0.288729
-0.288722
-0.28871
-0.288851
-0.289241
-0.289302
-0.289416
-0.289472
-0.289526
-0.289133
-0.289232
-0.289409
-0.289511
-0.289648
-0.28985
-0.289974
-0.290043
-0.289625
-0.289766
-0.289985
-0.290175
-0.296534
-0.296568
-0.296602
-0.296635
-0.296669
-0.296703
-0.296737
-0.296771
-0.296805
-0.29684
-0.296875
-0.29691
-0.296946
-0.296982
-0.29702
-0.297058
-0.297097
-0.297137
-0.297178
-0.297221
-0.297265
-0.29731
-0.297357
-0.297407
-0.29746
-0.297512
-0.29757
-0.29763
-0.297566
-0.297639
-0.297645
-0.297186
-0.297579
-0.297648
-0.297734
-0.297802
-0.297848
-0.297734
-0.297908
-0.297999
-0.29807
-0.298169
-0.298167
-0.298231
-0.298753
-0.298653
-0.298699
-0.299116
-0.299186
-0.299196
-0.305208
-0.305235
-0.305262
-0.30529
-0.305319
-0.305349
-0.305379
-0.30541
-0.305441
-0.305472
-0.305504
-0.305537
-0.30557
-0.305603
-0.305637
-0.305672
-0.305707
-0.305742
-0.305778
-0.305816
-0.305851
-0.30589
-0.305929
-0.305969
-0.306014
-0.306046
-0.306102
-0.306131
-0.30619
-0.306173
-0.306338
-0.306391
-0.306473
-0.306527
-0.306581
-0.306638
-0.30629
-0.306577
-0.306656
-0.30672
-0.306758
-0.306838
-0.30689
-0.306946
-0.306608
-0.307274
-0.307361
-0.307418
-0.30744
-0.307355
-0.314104
-0.314126
-0.314148
-0.31417
-0.314194
-0.314218
-0.314242
-0.314267
-0.314292
-0.314318
-0.314344
-0.31437
-0.314397
-0.314423
-0.314451
-0.314478
-0.314506
-0.314534
-0.314562
-0.314592
-0.314615
-0.31465
-0.31468
-0.314712
-0.314744
-0.314779
-0.3148
-0.314849
-0.314867
-0.314911
-0.314955
-0.314995
-0.315033
-0.315062
-0.315113
-0.315152
-0.314867
-0.315457
-0.315562
-0.315642
-0.315692
-0.315731
-0.315712
-0.315636
-0.3162
-0.316263
-0.316269
-0.316387
-0.316435
-0.31648
-0.32298
-0.323001
-0.323022
-0.323043
-0.323066
-0.323088
-0.323111
-0.323134
-0.323157
-0.323181
-0.323204
-0.323228
-0.323252
-0.323276
-0.323301
-0.323325
-0.32335
-0.323374
-0.323399
-0.323426
-0.323432
-0.323471
-0.3235
-0.323529
-0.323557
-0.323586
-0.323619
-0.323652
-0.323687
-0.323719
-0.323754
-0.32379
-0.323823
-0.323821
-0.32386
-0.32393
-0.323783
-0.324024
-0.324123
-0.324205
-0.324258
-0.324271
-0.323867
-0.324564
-0.324646
-0.324698
-0.324776
-0.32483
-0.324885
-0.324368
-0.331874
-0.331898
-0.331922
-0.331946
-0.33197
-0.331993
-0.332017
-0.33204
-0.332063
-0.332086
-0.332108
-0.33213
-0.332152
-0.332173
-0.332193
-0.332214
-0.332234
-0.332253
-0.332272
-0.332291
-0.332306
-0.332328
-0.332347
-0.332365
-0.332384
-0.332402
-0.332421
-0.332439
-0.332458
-0.332474
-0.332492
-0.332511
-0.332514
-0.332268
-0.332546
-0.332617
-0.332655
-0.332675
-0.332696
-0.332503
-0.332556
-0.332816
-0.332031
-0.333098
-0.333116
-0.333149
-0.333179
-0.3332
-0.333187
-0.332788
-0.340808
-0.34084
-0.340871
-0.340902
-0.340932
-0.340961
-0.34099
-0.341019
-0.341046
-0.341073
-0.341099
-0.341125
-0.341149
-0.341173
-0.341196
-0.341219
-0.34124
-0.341261
-0.341282
-0.341301
-0.341228
-0.341268
-0.341329
-0.341347
-0.341363
-0.341379
-0.341394
-0.341408
-0.341423
-0.341437
-0.341436
-0.341438
-0.341423
-0.34145
-0.341474
-0.341485
-0.341495
-0.341509
-0.341524
-0.3412
-0.341534
-0.341546
-0.341592
-0.341456
-0.341663
-0.341672
-0.341694
-0.341701
-0.341686
-0.341099
-0.349835
-0.349877
-0.349918
-0.349957
-0.349996
-0.350033
-0.350069
-0.350104
-0.350137
-0.35017
-0.350201
-0.350231
-0.350259
-0.350287
-0.350313
-0.350337
-0.350361
-0.350383
-0.350404
-0.350424
-0.350444
-0.350461
-0.350477
-0.350492
-0.350506
-0.350519
-0.350531
-0.350541
-0.350551
-0.350561
-0.350569
-0.35038
-0.350618
-0.350711
-0.350698
-0.3507
-0.350702
-0.350693
-0.350696
-0.350687
-0.350404
-0.35069
-0.350739
-0.350731
-0.350635
-0.350667
-0.3507
-0.35069
-0.350685
-0.350293
-0.359035
-0.359093
-0.359148
-0.359202
-0.359254
-0.359304
-0.359352
-0.359398
-0.359442
-0.359485
-0.359526
-0.359565
-0.359602
-0.359638
-0.359672
-0.359704
-0.359734
-0.359764
-0.359791
-0.359817
-0.359841
-0.359864
-0.359885
-0.359905
-0.359923
-0.35994
-0.359956
-0.35997
-0.359983
-0.359993
-0.360004
-0.36001
-0.360021
-0.359887
-0.360031
-0.360092
-0.360087
-0.360084
-0.360082
-0.360081
-0.360068
-0.360068
-0.360059
-0.360042
-0.360031
-0.360048
-0.359685
-0.360073
-0.360113
-0.360084
-0.368537
-0.368609
-0.368677
-0.368743
-0.368806
-0.368866
-0.368924
-0.368979
-0.369032
-0.369083
-0.369132
-0.369179
-0.369223
-0.369266
-0.369307
-0.369346
-0.369383
-0.369419
-0.369453
-0.369486
-0.369517
-0.369546
-0.369575
-0.369601
-0.369627
-0.369651
-0.369674
-0.369696
-0.369717
-0.369736
-0.369754
-0.369771
-0.369788
-0.369801
-0.369817
-0.369808
-0.369826
-0.369856
-0.369866
-0.369867
-0.369879
-0.369897
-0.369905
-0.36974
-0.369937
-0.36998
-0.36997
-0.369974
-0.369985
-0.369991
-0.378522
-0.378587
-0.378649
-0.378709
-0.378766
-0.378821
-0.378873
-0.378923
-0.378971
-0.379016
-0.37906
-0.379102
-0.379142
-0.37918
-0.379217
-0.379252
-0.379285
-0.379317
-0.379347
-0.379376
-0.379404
-0.37943
-0.379454
-0.379478
-0.3795
-0.379521
-0.37954
-0.379559
-0.379576
-0.379592
-0.379607
-0.379621
-0.379635
-0.379647
-0.379658
-0.379669
-0.379678
-0.379686
-0.379693
-0.379661
-0.379693
-0.379712
-0.379716
-0.37972
-0.379725
-0.379727
-0.379727
-0.379728
-0.379727
-0.379724
-0.388936
-0.388977
-0.389017
-0.389057
-0.389095
-0.389132
-0.389167
-0.389202
-0.389236
-0.389268
-0.389299
-0.38933
-0.389359
-0.389387
-0.389414
-0.38944
-0.389465
-0.389489
-0.389512
-0.389534
-0.389555
-0.389575
-0.389594
-0.389612
-0.389629
-0.389645
-0.38966
-0.389674
-0.389688
-0.3897
-0.389712
-0.389723
-0.389732
-0.389742
-0.38975
-0.389757
-0.389764
-0.38977
-0.389775
-0.389781
-0.389785
-0.389788
-0.389791
-0.389793
-0.389794
-0.389795
-0.389796
-0.389796
-0.389795
-0.389793
-0.206469
-0.206415
-0.20636
-0.206305
-0.206251
-0.206196
-0.206143
-0.206089
-0.206036
-0.205983
-0.20593
-0.205877
-0.205824
-0.205772
-0.20572
-0.205668
-0.205617
-0.205566
-0.205515
-0.205464
-0.205413
-0.205363
-0.205313
-0.205263
-0.205213
-0.205164
-0.205114
-0.205065
-0.205016
-0.204968
-0.20492
-0.204871
-0.204823
-0.204776
-0.204728
-0.204681
-0.204634
-0.204588
-0.204541
-0.204495
-0.204449
-0.204403
-0.204357
-0.204312
-0.204267
-0.204222
-0.204177
-0.204132
-0.204088
-0.204044
-0.204001
-0.203957
-0.203914
-0.203871
-0.203828
-0.203785
-0.203743
-0.203701
-0.203659
-0.203618
-0.203576
-0.203535
-0.203494
-0.203454
-0.203413
-0.203373
-0.203334
-0.203294
-0.203255
-0.203216
-0.203177
-0.203139
-0.203101
-0.203063
-0.203025
-0.202988
-0.202951
-0.202914
-0.202878
-0.202841
-0.202805
-0.20277
-0.202734
-0.202699
-0.202664
-0.20263
-0.202596
-0.202562
-0.202528
-0.202494
-0.202461
-0.202429
-0.202396
-0.202364
-0.202332
-0.2023
-0.202269
-0.202238
-0.202207
-0.202177
-0.202147
-0.202117
-0.202087
-0.202058
-0.202029
-0.202001
-0.201972
-0.201944
-0.201917
-0.201889
-0.201862
-0.201836
-0.201809
-0.201783
-0.201757
-0.201732
-0.201706
-0.201682
-0.201657
-0.201633
-0.201609
-0.201585
-0.201561
-0.201538
-0.201515
-0.201493
-0.20147
-0.201448
-0.201426
-0.201405
-0.201384
-0.201364
-0.201343
-0.201323
-0.201301
-0.20128
-0.20126
-0.201239
-0.201218
-0.201196
-0.201178
-0.201141
-0.201118
-0.201112
-0.201111
-0.201094
-0.201077
-0.201059
-0.201043
-0.201027
-0.201012
-0.200996
-0.200982
-0.200967
-0.200953
-0.200939
-0.200925
-0.200911
-0.200898
-0.200885
-0.200872
-0.200859
-0.200847
-0.200835
-0.200824
-0.200812
-0.200801
-0.20079
-0.20078
-0.200769
-0.200759
-0.20075
-0.20074
-0.200731
-0.200722
-0.200713
-0.200705
-0.200696
-0.200688
-0.20068
-0.200672
-0.200665
-0.200657
-0.20065
-0.200643
-0.200637
-0.20063
-0.200624
-0.200617
-0.200611
-0.200605
-0.200599
-0.200594
-0.200588
-0.200583
-0.200578
-0.200572
-0.200567
-0.200563
-0.200558
-0.200553
-0.200549
-0.200544
-0.20054
-0.200536
-0.200532
-0.200528
-0.200524
-0.20052
-0.200517
-0.200513
-0.20051
-0.200506
-0.200503
-0.2005
-0.200497
-0.200494
-0.200491
-0.200488
-0.200485
-0.200483
-0.20048
-0.200478
-0.200475
-0.200473
-0.200471
-0.200468
-0.200466
-0.200464
-0.200463
-0.200461
-0.200459
-0.200457
-0.200456
-0.200455
-0.200453
-0.200452
-0.200451
-0.20045
-0.200449
-0.200448
-0.200448
-0.200447
-0.200447
-0.200446
-0.200446
-0.200446
-0.200446
-0.200446
-0.200446
-0.200447
-0.200447
-0.200448
-0.200449
-0.20045
-0.200451
-0.200452
-0.200453
-0.200455
-0.200457
-0.200459
-0.200461
-0.200463
-0.200465
-0.200468
-0.200471
-0.200474
-0.200477
-0.20048
-0.200484
-0.200487
-0.200491
-0.200496
-0.2005
-0.200505
-0.20051
-0.200515
-0.20052
-0.200526
-0.200532
-0.200539
-0.200545
-0.200552
-0.200559
-0.200567
-0.200575
-0.200583
-0.200592
-0.200601
-0.200611
-0.200621
-0.200631
-0.200642
-0.200654
-0.200666
-0.200678
-0.200691
-0.200705
-0.200719
-0.200734
-0.216956
-0.216902
-0.216846
-0.216792
-0.216738
-0.216684
-0.21663
-0.216577
-0.216524
-0.216471
-0.216418
-0.216366
-0.216313
-0.216261
-0.216209
-0.216157
-0.216105
-0.216053
-0.216001
-0.21595
-0.2159
-0.21585
-0.215799
-0.215749
-0.215699
-0.215649
-0.215599
-0.215549
-0.2155
-0.21545
-0.215401
-0.215352
-0.215303
-0.215254
-0.215206
-0.215159
-0.215112
-0.215065
-0.215018
-0.21497
-0.214923
-0.214877
-0.214831
-0.214784
-0.214738
-0.214693
-0.214647
-0.214601
-0.214556
-0.21451
-0.214465
-0.214422
-0.214379
-0.214335
-0.214291
-0.214247
-0.214204
-0.214162
-0.214119
-0.214077
-0.214035
-0.213993
-0.213952
-0.21391
-0.213868
-0.213827
-0.213787
-0.213746
-0.213706
-0.213666
-0.213626
-0.213586
-0.213547
-0.213508
-0.21347
-0.213431
-0.213394
-0.213356
-0.213318
-0.213281
-0.213244
-0.213207
-0.213171
-0.213135
-0.213099
-0.213063
-0.213027
-0.212992
-0.212957
-0.212922
-0.212888
-0.212854
-0.212819
-0.212786
-0.212752
-0.212719
-0.212686
-0.212653
-0.212621
-0.212588
-0.212556
-0.212525
-0.212493
-0.212462
-0.212431
-0.2124
-0.212369
-0.212339
-0.212309
-0.212279
-0.21225
-0.21222
-0.212191
-0.212162
-0.212134
-0.212105
-0.212077
-0.212049
-0.212022
-0.211994
-0.211967
-0.21194
-0.211913
-0.211886
-0.21186
-0.211834
-0.211808
-0.211782
-0.211756
-0.211731
-0.211705
-0.21168
-0.211655
-0.211629
-0.211605
-0.21158
-0.211555
-0.211531
-0.211507
-0.211483
-0.21146
-0.211437
-0.211413
-0.21139
-0.211368
-0.211346
-0.211321
-0.211147
-0.21122
-0.211177
-0.21115
-0.211203
-0.211179
-0.211163
-0.211144
-0.211125
-0.211107
-0.211089
-0.211071
-0.211053
-0.211035
-0.211018
-0.211
-0.210983
-0.210966
-0.210949
-0.210933
-0.210917
-0.210901
-0.210885
-0.21087
-0.210855
-0.21084
-0.210825
-0.210811
-0.210797
-0.210783
-0.210769
-0.210756
-0.210743
-0.21073
-0.210717
-0.210705
-0.210693
-0.210681
-0.210669
-0.210658
-0.210647
-0.210635
-0.210625
-0.210614
-0.210604
-0.210593
-0.210583
-0.210573
-0.210564
-0.210554
-0.210545
-0.210536
-0.210527
-0.210518
-0.210509
-0.210501
-0.210492
-0.210484
-0.210476
-0.210468
-0.210461
-0.210453
-0.210446
-0.210438
-0.210431
-0.210424
-0.210417
-0.21041
-0.210404
-0.210397
-0.210391
-0.210385
-0.210379
-0.210373
-0.210367
-0.210361
-0.210355
-0.21035
-0.210344
-0.210339
-0.210334
-0.210329
-0.210324
-0.210319
-0.210315
-0.21031
-0.210306
-0.210302
-0.210298
-0.210294
-0.21029
-0.210286
-0.210283
-0.210279
-0.210276
-0.210273
-0.21027
-0.210267
-0.210264
-0.210262
-0.210259
-0.210257
-0.210255
-0.210253
-0.210251
-0.21025
-0.210248
-0.210247
-0.210246
-0.210245
-0.210245
-0.210244
-0.210244
-0.210244
-0.210244
-0.210244
-0.210245
-0.210245
-0.210246
-0.210247
-0.210249
-0.21025
-0.210252
-0.210254
-0.210256
-0.210259
-0.210262
-0.210265
-0.210268
-0.210272
-0.210276
-0.21028
-0.210284
-0.210289
-0.210294
-0.2103
-0.210305
-0.210312
-0.210318
-0.210325
-0.210333
-0.21034
-0.210349
-0.210357
-0.210366
-0.210376
-0.210386
-0.210397
-0.210408
-0.21042
-0.210433
-0.210446
-0.21046
-0.227416
-0.227362
-0.227308
-0.227254
-0.227199
-0.227144
-0.22709
-0.227036
-0.226983
-0.22693
-0.226877
-0.226824
-0.226771
-0.226719
-0.226666
-0.226613
-0.226561
-0.226508
-0.226455
-0.226387
-0.226331
-0.2263
-0.226252
-0.226199
-0.226146
-0.226092
-0.226041
-0.22599
-0.225939
-0.225888
-0.225837
-0.225786
-0.225735
-0.225685
-0.225634
-0.225569
-0.225513
-0.225487
-0.225443
-0.225394
-0.225343
-0.225292
-0.225244
-0.225196
-0.225149
-0.225102
-0.225055
-0.225009
-0.224963
-0.224917
-0.224865
-0.224815
-0.224785
-0.22475
-0.224708
-0.224664
-0.224621
-0.22458
-0.224538
-0.224494
-0.224442
-0.224402
-0.224366
-0.224324
-0.22428
-0.224237
-0.224197
-0.224153
-0.224115
-0.224075
-0.224034
-0.223995
-0.223956
-0.223917
-0.223878
-0.223833
-0.223797
-0.223763
-0.223725
-0.223687
-0.22365
-0.223612
-0.223576
-0.223539
-0.223503
-0.223468
-0.223432
-0.223397
-0.223361
-0.223325
-0.22329
-0.223255
-0.223221
-0.223186
-0.223152
-0.223118
-0.223085
-0.223051
-0.223018
-0.222985
-0.222952
-0.222919
-0.222886
-0.222854
-0.222821
-0.222789
-0.222757
-0.222725
-0.222693
-0.222662
-0.22263
-0.222599
-0.222567
-0.222536
-0.222505
-0.222474
-0.222443
-0.222413
-0.222382
-0.222351
-0.222321
-0.222291
-0.222261
-0.22223
-0.2222
-0.222171
-0.222141
-0.222111
-0.222082
-0.222052
-0.222023
-0.221994
-0.221965
-0.221936
-0.221907
-0.221879
-0.22185
-0.221822
-0.221794
-0.221766
-0.221739
-0.221711
-0.221684
-0.221657
-0.22163
-0.221603
-0.221576
-0.221547
-0.22152
-0.221497
-0.221473
-0.221315
-0.221391
-0.221364
-0.22134
-0.221315
-0.221291
-0.221268
-0.221245
-0.221221
-0.221198
-0.221175
-0.221153
-0.22113
-0.221108
-0.221086
-0.221064
-0.221043
-0.221021
-0.221
-0.220979
-0.220958
-0.220938
-0.220917
-0.220898
-0.220878
-0.220859
-0.22084
-0.220821
-0.220802
-0.220784
-0.220766
-0.220749
-0.220731
-0.220714
-0.220697
-0.220681
-0.220664
-0.220648
-0.220633
-0.220617
-0.220602
-0.220587
-0.220572
-0.220557
-0.220543
-0.220529
-0.220515
-0.220502
-0.220488
-0.220475
-0.220462
-0.220449
-0.220437
-0.220424
-0.220412
-0.2204
-0.220388
-0.220377
-0.220365
-0.220354
-0.220343
-0.220332
-0.220322
-0.220311
-0.220301
-0.220291
-0.220281
-0.220271
-0.220262
-0.220252
-0.220243
-0.220234
-0.220225
-0.220216
-0.220208
-0.220199
-0.220191
-0.220183
-0.220175
-0.220168
-0.22016
-0.220153
-0.220145
-0.220138
-0.220131
-0.220125
-0.220118
-0.220112
-0.220105
-0.220099
-0.220093
-0.220088
-0.220082
-0.220077
-0.220072
-0.220067
-0.220062
-0.220057
-0.220053
-0.220049
-0.220045
-0.220041
-0.220037
-0.220034
-0.220031
-0.220028
-0.220025
-0.220022
-0.22002
-0.220018
-0.220016
-0.220014
-0.220013
-0.220011
-0.22001
-0.22001
-0.220009
-0.220009
-0.220009
-0.220009
-0.22001
-0.220011
-0.220012
-0.220013
-0.220015
-0.220017
-0.220019
-0.220022
-0.220024
-0.220028
-0.220031
-0.220035
-0.220039
-0.220044
-0.220049
-0.220055
-0.220061
-0.220067
-0.220074
-0.220081
-0.220089
-0.220097
-0.220106
-0.220115
-0.220125
-0.220136
-0.220148
-0.22016
-0.220172
-0.237708
-0.237684
-0.23764
-0.23759
-0.237536
-0.237482
-0.237426
-0.23737
-0.237313
-0.237257
-0.2372
-0.237142
-0.237084
-0.237024
-0.236964
-0.236903
-0.23684
-0.236777
-0.236712
-0.236643
-0.236548
-0.236427
-0.23676
-0.236702
-0.236634
-0.236568
-0.236501
-0.236433
-0.236369
-0.236303
-0.236237
-0.23617
-0.236104
-0.236038
-0.235971
-0.235901
-0.235803
-0.235618
-0.235985
-0.235931
-0.235863
-0.2358
-0.235737
-0.235676
-0.235618
-0.23556
-0.235502
-0.235446
-0.235391
-0.235337
-0.235277
-0.235122
-0.235073
-0.23528
-0.235196
-0.235163
-0.235131
-0.235092
-0.235043
-0.235006
-0.234954
-0.234652
-0.234678
-0.234665
-0.23462
-0.234573
-0.234534
-0.234468
-0.23443
-0.234497
-0.234453
-0.23441
-0.234361
-0.234317
-0.234277
-0.234233
-0.233878
-0.234177
-0.234136
-0.234096
-0.234057
-0.234019
-0.233982
-0.233943
-0.233897
-0.233861
-0.233831
-0.233796
-0.233759
-0.233721
-0.233686
-0.23365
-0.233615
-0.23358
-0.233546
-0.233511
-0.233476
-0.233441
-0.233407
-0.233373
-0.233339
-0.233305
-0.233271
-0.233238
-0.233204
-0.233171
-0.233138
-0.233105
-0.233072
-0.233039
-0.233006
-0.232973
-0.232941
-0.232908
-0.232875
-0.232842
-0.232809
-0.232777
-0.232744
-0.232711
-0.232678
-0.232646
-0.232613
-0.23258
-0.232547
-0.232514
-0.232482
-0.232449
-0.232416
-0.232383
-0.23235
-0.232318
-0.232285
-0.232252
-0.232219
-0.232187
-0.232154
-0.232121