/*--------------------------------*- C++ -*----------------------------------*\
| =========                 |                                                 |
| \\      /  F ield         | OpenFOAM: The Open Source CFD Toolbox           |
|  \\    /   O peration     | Version:  2.4.0                                 |
|   \\  /    A nd           | Web:      www.OpenFOAM.org                      |
|    \\/     M anipulation  |                                                 |
\*---------------------------------------------------------------------------*/
FoamFile
{
    version     2.0;
    format      ascii;
    class       surfaceScalarField;
    location    "3.6";
    object      phi;
}
// * * * * * * * * * * * * * * * * * * * * * * * * * * * * * * * * * * * * * //

dimensions      [0 3 -1 0 0 0 0];

internalField   nonuniform List<scalar> 
15580
(
1.32352e-13
-1.38608e-12
5.18829e-13
-4.08028e-12
1.14678e-12
-6.69868e-12
2.00255e-12
-9.24234e-12
3.07233e-12
-1.17111e-11
4.34175e-12
-1.41044e-11
5.79614e-12
-1.64215e-11
7.42016e-12
-1.86613e-11
9.19811e-12
-2.08231e-11
1.11136e-11
-2.29057e-11
1.31502e-11
-2.49093e-11
1.52911e-11
-2.68324e-11
1.75197e-11
-2.86756e-11
1.98183e-11
-3.04374e-11
2.21706e-11
-3.21189e-11
2.45586e-11
-3.37183e-11
2.69661e-11
-3.52376e-11
2.93751e-11
-3.66746e-11
3.17698e-11
-3.80324e-11
3.41314e-11
-3.93085e-11
3.64447e-11
-4.05076e-11
3.86893e-11
-4.16277e-11
4.08509e-11
-4.26746e-11
4.29057e-11
-4.36475e-11
4.48411e-11
-4.45544e-11
4.66376e-11
-4.54057e-11
4.83148e-11
-4.62307e-11
4.99232e-11
-4.70908e-11
5.0929e-11
-4.73866e-11
5.12312e-11
-4.76083e-11
4.94312e-11
-4.73203e-11
4.61512e-11
-4.95349e-11
3.09185e-11
-4.5844e-11
1.4672e-11
-4.057e-11
-2.15313e-11
-1.4607e-11
-4.99887e-11
-2.06006e-11
-1.1025e-10
1.44325e-11
-8.59116e-11
-6.26991e-11
-3.51706e-10
2.71918e-10
-5.30449e-10
1.21683e-10
-5.58991e-10
1.0189e-10
-7.03266e-10
9.87179e-11
-7.4292e-10
6.73363e-11
-7.69435e-10
7.13594e-11
-7.85724e-10
6.65506e-11
-7.60736e-10
6.11831e-11
-7.13015e-10
5.50898e-11
-6.55169e-10
4.78747e-11
-6.02549e-10
3.89043e-11
2.93453e-11
-5.54851e-10
7.54316e-14
-1.46151e-12
3.15868e-13
-4.32072e-12
7.2321e-13
-7.10602e-12
1.29282e-12
-9.81195e-12
2.01806e-12
-1.24364e-11
2.89118e-12
-1.49775e-11
3.90272e-12
-1.7433e-11
5.04261e-12
-1.98012e-11
6.29918e-12
-2.20796e-11
7.66069e-12
-2.42672e-11
9.11352e-12
-2.63621e-11
1.06453e-11
-2.83642e-11
1.22409e-11
-3.02712e-11
1.38881e-11
-3.20846e-11
1.55706e-11
-3.38014e-11
1.7277e-11
-3.54248e-11
1.899e-11
-3.69506e-11
2.06999e-11
-3.83845e-11
2.23874e-11
-3.97199e-11
2.40449e-11
-4.0966e-11
2.56492e-11
-4.21119e-11
2.71943e-11
-4.31727e-11
2.8656e-11
-4.41363e-11
3.00525e-11
-4.5044e-11
3.142e-11
-4.5922e-11
3.21466e-11
-4.61323e-11
3.21345e-11
-4.62186e-11
2.98887e-11
-4.59359e-11
2.71621e-11
-4.79066e-11
-1.36152e-12
-4.44291e-11
-1.62579e-11
-3.64566e-11
-5.87383e-11
-7.20916e-12
-9.88963e-11
-5.73213e-12
-6.7709e-11
-7.17572e-11
-2.32865e-10
1.50549e-10
-3.1438e-10
6.09149e-11
-5.6969e-10
2.69742e-10
-8.45052e-10
2.12663e-10
-7.89056e-10
2.15922e-10
-9.22426e-10
2.55053e-10
-9.9076e-10
1.70224e-10
-1.01729e-09
1.25247e-10
-1.03556e-09
8.56035e-11
-1.02152e-09
5.73274e-11
-9.91562e-10
3.65883e-11
-9.50523e-10
2.01446e-11
-9.0264e-10
7.20662e-12
-8.50928e-10
-3.83738e-12
-7.98167e-10
-1.38574e-11
-2.33345e-11
-7.45487e-10
2.33068e-13
-1.69458e-12
8.93109e-13
-4.98076e-12
1.94675e-12
-8.15966e-12
3.36453e-12
-1.12297e-11
5.11778e-12
-1.41896e-11
7.17986e-12
-1.70396e-11
9.52436e-12
-1.97775e-11
1.21274e-11
-2.24042e-11
1.49648e-11
-2.49169e-11
1.80152e-11
-2.73177e-11
2.12558e-11
-2.96028e-11
2.46681e-11
-3.17765e-11
2.82306e-11
-3.38337e-11
3.19274e-11
-3.57814e-11
3.57379e-11
-3.76119e-11
3.96495e-11
-3.93364e-11
4.3642e-11
-4.09431e-11
4.77063e-11
-4.24488e-11
5.18213e-11
-4.38348e-11
5.59833e-11
-4.51281e-11
6.01783e-11
-4.63069e-11
6.44327e-11
-4.74271e-11
6.85015e-11
-4.82051e-11
7.19947e-11
-4.85371e-11
7.43191e-11
-4.84307e-11
7.48285e-11
-5.08748e-11
4.18347e-11
-4.5894e-11
1.93062e-11
-3.08402e-11
-3.22547e-11
3.43745e-12
-4.24976e-11
-3.42099e-11
-7.60317e-11
-2.92256e-12
-1.20958e-10
3.7717e-11
-3.07116e-10
1.80426e-10
-5.15298e-10
1.36426e-10
-5.29035e-10
1.64285e-10
-7.20986e-10
2.52866e-10
-7.41165e-10
2.89922e-10
-8.21751e-10
2.93248e-10
-8.35839e-10
2.30011e-10
-7.59898e-10
1.79112e-10
-7.20383e-10
1.30709e-10
-6.86314e-10
9.11778e-11
-6.59902e-10
5.91919e-11
-6.36066e-10
3.34917e-11
-6.12136e-10
1.26581e-11
-5.87341e-10
-4.65017e-12
-5.60543e-10
-1.95922e-11
-5.31733e-10
-3.26473e-11
-5.01142e-10
-4.44477e-11
-5.53849e-11
-4.69092e-10
2.58996e-13
-1.95357e-12
9.79284e-13
-5.70105e-12
2.12079e-12
-9.30117e-12
3.6505e-12
-1.27594e-11
5.53618e-12
-1.60753e-11
7.74591e-12
-1.92493e-11
1.02494e-11
-2.2281e-11
1.3017e-11
-2.51718e-11
1.60214e-11
-2.79213e-11
1.92358e-11
-3.05321e-11
2.2637e-11
-3.30039e-11
2.62016e-11
-3.53411e-11
2.99114e-11
-3.75435e-11
3.37479e-11
-3.96178e-11
3.76997e-11
-4.15638e-11
4.17546e-11
-4.33912e-11
4.59109e-11
-4.50994e-11
5.0167e-11
-4.67049e-11
5.45441e-11
-4.82119e-11
5.90666e-11
-4.96506e-11
6.34682e-11
-5.07086e-11
6.75451e-11
-5.1504e-11
7.11205e-11
-5.27176e-11
5.45995e-11
-5.35372e-11
2.64455e-11
-4.89177e-11
-4.01354e-11
1.52481e-11
5.73574e-12
-9.18013e-11
-2.69864e-10
2.4476e-10
-2.82979e-10
1.65522e-11
-4.22807e-10
1.05618e-10
-5.4657e-10
1.20841e-10
-6.65307e-10
1.56454e-10
-6.93894e-10
2.09013e-10
-8.16403e-10
2.58935e-10
-8.96234e-10
2.44116e-10
-8.80112e-10
2.36743e-10
-8.02386e-10
2.12196e-10
-6.89956e-10
1.80817e-10
-6.06381e-10
1.46436e-10
-5.4108e-10
1.13811e-10
-4.94332e-10
8.39609e-11
-4.60325e-10
5.71713e-11
-4.34266e-10
3.31331e-11
-4.12172e-10
1.13978e-11
-3.91329e-10
-8.18563e-12
-3.69941e-10
-2.60373e-11
-3.4681e-10
-4.27234e-11
-3.21059e-10
-5.8399e-11
-2.92336e-10
-7.31705e-11
-8.71409e-11
-2.6058e-10
-1.05355e-13
-1.84822e-12
-3.73954e-13
-5.43245e-12
-7.7464e-13
-8.90049e-12
-1.28512e-12
-1.2249e-11
-1.88822e-12
-1.54722e-11
-2.56847e-12
-1.85691e-11
-3.31595e-12
-2.15336e-11
-4.12085e-12
-2.43669e-11
-4.9796e-12
-2.70626e-11
-5.8869e-12
-2.96248e-11
-6.84474e-12
-3.20461e-11
-7.85115e-12
-3.43347e-11
-8.91289e-12
-3.64818e-11
-1.003e-11
-3.85007e-11
-1.1213e-11
-4.03808e-11
-1.2462e-11
-4.21422e-11
-1.37882e-11
-4.37732e-11
-1.51881e-11
-4.5305e-11
-1.66794e-11
-4.67205e-11
-1.84165e-11
-4.79135e-11
-2.00727e-11
-4.98347e-11
-5.31089e-11
-5.0013e-11
-8.27761e-11
-4.36747e-11
-1.42069e-10
5.48079e-12
-1.73022e-10
-1.7965e-11
-6.39005e-10
4.8123e-10
-1.03683e-09
3.06025e-10
-1.05786e-09
2.65791e-10
-1.34032e-09
2.99014e-10
-1.47485e-09
2.40141e-10
-1.58984e-09
2.35836e-10
-1.65908e-09
2.25688e-10
-1.65838e-09
2.08315e-10
-1.58643e-09
1.86981e-10
-1.50385e-09
1.61544e-10
-1.40107e-09
1.33962e-10
-1.29452e-09
1.0564e-10
-1.19235e-09
7.8648e-11
-1.0976e-09
5.16887e-11
-1.01056e-09
2.67729e-11
-9.3008e-10
3.47925e-12
-8.53877e-10
-1.90322e-11
-7.80434e-10
-4.03103e-11
-7.08573e-10
-6.04628e-11
-6.37299e-10
-7.94598e-11
-5.66206e-10
-9.71307e-11
-4.94692e-10
-1.14237e-10
-4.22843e-10
-1.30247e-10
-3.50664e-10
-1.4535e-10
-1.59559e-10
-2.78245e-10
-1.58091e-13
-1.69013e-12
-5.81827e-13
-5.00871e-12
-1.24036e-12
-8.24195e-12
-2.11021e-12
-1.13791e-11
-3.16996e-12
-1.44125e-11
-4.3966e-12
-1.73424e-11
-5.77107e-12
-2.01591e-11
-7.27208e-12
-2.28659e-11
-8.88403e-12
-2.54506e-11
-1.05881e-11
-2.79207e-11
-1.23729e-11
-3.02613e-11
-1.42225e-11
-3.2485e-11
-1.61304e-11
-3.45739e-11
-1.80843e-11
-3.65469e-11
-2.00818e-11
-3.83832e-11
-2.21142e-11
-4.01099e-11
-2.41878e-11
-4.16996e-11
-2.66204e-11
-4.28724e-11
-2.94831e-11
-4.38578e-11
-5.57002e-11
-4.52877e-11
-9.07865e-11
-4.42462e-11
-1.36675e-10
-4.41497e-12
-1.74777e-10
-5.57308e-12
-4.42086e-10
2.7279e-10
-6.85037e-10
2.24986e-10
-5.89571e-10
3.85764e-10
-8.14629e-10
5.31082e-10
-9.82077e-10
4.33239e-10
-1.04532e-09
3.6226e-10
-1.09985e-09
2.94668e-10
-1.10234e-09
2.38326e-10
-1.06641e-09
1.89755e-10
-1.00503e-09
1.46938e-10
-9.26835e-10
1.08787e-10
-8.39123e-10
7.38323e-11
-7.46641e-10
4.14806e-11
-6.52588e-10
1.15874e-11
-5.5822e-10
-1.57198e-11
-4.65946e-10
-4.05856e-11
-3.75131e-10
-6.40422e-11
-2.85756e-10
-8.58951e-11
-1.9846e-10
-1.06329e-10
-1.1331e-10
-1.2546e-10
-3.02796e-11
-1.43493e-10
5.0653e-11
-1.60392e-10
1.29516e-10
-1.75993e-10
2.05676e-10
-1.90398e-10
2.79477e-10
-2.04049e-10
3.50981e-10
-2.16854e-10
-2.28836e-10
4.20257e-10
2.41646e-13
-1.93177e-12
8.71262e-13
-5.63833e-12
1.82072e-12
-9.19141e-12
3.03431e-12
-1.25927e-11
4.46413e-12
-1.58423e-11
6.06182e-12
-1.89401e-11
7.78864e-12
-2.18859e-11
9.60191e-12
-2.46792e-11
1.1471e-11
-2.73198e-11
1.33574e-11
-2.9807e-11
1.52376e-11
-3.21416e-11
1.70754e-11
-3.43227e-11
1.88539e-11
-3.63524e-11
2.05362e-11
-3.82292e-11
2.2112e-11
-3.9959e-11
2.35488e-11
-4.15466e-11
2.48649e-11
-4.30157e-11
2.63988e-11
-4.51434e-11
-2.43422e-11
-4.4963e-11
-3.82953e-11
-4.08874e-11
-2.08483e-10
1.25941e-10
-2.54221e-10
4.13234e-11
-3.76029e-10
1.16235e-10
-3.42298e-10
2.39059e-10
-4.69536e-10
3.52224e-10
-4.427e-10
3.58929e-10
-2.60796e-10
3.49178e-10
-1.3499e-10
3.07433e-10
-3.12175e-11
2.58487e-10
5.65115e-11
2.06939e-10
1.37963e-10
1.56874e-10
2.17781e-10
1.09937e-10
2.97182e-10
6.75371e-11
3.7632e-10
2.96489e-11
4.56759e-10
-6.60616e-12
5.36978e-10
-3.87386e-11
6.15281e-10
-6.67152e-11
6.91082e-10
-9.15217e-11
7.64339e-10
-1.13843e-10
8.34168e-10
-1.33871e-10
9.00167e-10
-1.51894e-10
9.6206e-10
-1.68222e-10
1.0197e-09
-1.83099e-10
1.07293e-09
-1.96726e-10
1.1222e-09
-2.09663e-10
1.16767e-09
-2.21464e-10
1.2098e-09
-2.32526e-10
1.24868e-09
-2.42924e-10
1.28456e-09
-2.52742e-10
-2.62026e-10
1.31775e-09
1.6923e-13
-2.101e-12
5.98031e-13
-6.06713e-12
1.21883e-12
-9.81221e-12
1.96956e-12
-1.33434e-11
2.79079e-12
-1.66635e-11
3.62333e-12
-1.97726e-11
4.41064e-12
-2.26732e-11
5.09502e-12
-2.53635e-11
5.62137e-12
-2.78461e-11
5.9317e-12
-3.01174e-11
5.97046e-12
-3.21804e-11
5.67787e-12
-3.40301e-11
4.99695e-12
-3.56715e-11
3.86205e-12
-3.70943e-11
2.19424e-12
-3.82912e-11
-1.20409e-13
-3.9232e-11
-3.36221e-12
-3.99723e-11
-6.43923e-11
-4.06595e-11
-6.85555e-11
-4.11665e-11
-7.99274e-11
-2.95155e-11
-3.24266e-11
7.84407e-11
-1.16352e-10
1.25249e-10
-1.28367e-10
1.2825e-10
-4.43898e-11
1.55082e-10
1.3971e-10
1.68124e-10
3.39058e-10
1.59581e-10
5.45276e-10
1.4296e-10
7.32615e-10
1.20094e-10
8.97947e-10
9.31556e-11
1.04101e-09
6.38792e-11
1.16391e-09
3.39738e-11
1.26906e-09
4.7874e-12
1.35962e-09
-2.30294e-11
1.4387e-09
-4.94305e-11
1.50363e-09
-7.15299e-11
1.55742e-09
-9.25322e-11
1.60236e-09
-1.11658e-10
1.63981e-09
-1.28969e-10
1.6707e-09
-1.44734e-10
1.69597e-09
-1.59143e-10
1.71645e-09
-1.72366e-10
1.73281e-09
-1.84589e-10
1.74571e-09
-1.95995e-10
1.75572e-09
-2.06739e-10
1.76298e-09
-2.16917e-10
1.7682e-09
-2.26684e-10
1.77168e-09
-2.36009e-10
1.77371e-09
-2.4496e-10
1.77454e-09
-2.53563e-10
-2.6183e-10
1.77434e-09
-1.60896e-13
-1.94011e-12
-6.21601e-13
-5.60642e-12
-1.37517e-12
-9.05864e-12
-2.42125e-12
-1.22974e-11
-3.76238e-12
-1.53224e-11
-5.40033e-12
-1.81347e-11
-7.34064e-12
-2.07329e-11
-9.58653e-12
-2.31177e-11
-1.21462e-11
-2.52865e-11
-1.50236e-11
-2.724e-11
-1.82296e-11
-2.89744e-11
-2.17695e-11
-3.04903e-11
-2.56596e-11
-3.17814e-11
-2.99042e-11
-3.28497e-11
-3.4498e-11
-3.36974e-11
-3.93781e-11
-3.43519e-11
-1.38403e-10
-3.48276e-11
-1.48818e-10
-3.48977e-11
-1.55084e-10
-3.49005e-11
-1.59298e-10
-2.53013e-11
-9.24262e-11
1.15691e-11
1.31011e-11
1.97213e-11
1.21048e-10
2.03028e-11
2.58078e-10
1.80518e-11
4.1281e-10
1.33922e-11
5.66417e-10
5.97381e-12
7.13067e-10
-3.68989e-12
8.48228e-10
-1.50669e-11
9.69205e-10
-2.78214e-11
1.07447e-09
-4.13881e-11
1.1638e-09
-5.53569e-11
1.23796e-09
-6.93708e-11
1.29819e-09
-8.32564e-11
1.34539e-09
-9.66349e-11
1.38354e-09
-1.09675e-10
1.41298e-09
-1.21972e-10
1.43519e-09
-1.33873e-10
1.45162e-09
-1.45399e-10
1.46349e-09
-1.56608e-10
1.47188e-09
-1.67532e-10
1.47768e-09
-1.78167e-10
1.48161e-09
-1.88514e-10
1.48419e-09
-1.98571e-10
1.48578e-09
-2.08337e-10
1.48667e-09
-2.17804e-10
1.48696e-09
-2.26967e-10
1.48677e-09
-2.35821e-10
1.48616e-09
-2.44356e-10
1.48517e-09
-2.5257e-10
-2.60458e-10
1.4838e-09
-2.44319e-13
-1.69579e-12
-9.46931e-13
-4.90381e-12
-2.0778e-12
-7.92777e-12
-3.60838e-12
-1.07668e-11
-5.51099e-12
-1.34198e-11
-7.75961e-12
-1.58861e-11
-1.03279e-11
-1.81646e-11
-1.31911e-11
-2.02545e-11
-1.63226e-11
-2.21549e-11
-1.96976e-11
-2.3865e-11
-2.32883e-11
-2.53837e-11
-2.70679e-11
-2.67107e-11
-3.10043e-11
-2.78449e-11
-3.50666e-11
-2.87874e-11
-3.92272e-11
-2.95368e-11
-4.3929e-11
-3.00919e-11
-1.08531e-10
-3.04541e-11
-1.12843e-10
-3.05857e-11
-1.17102e-10
-3.06411e-11
-1.10939e-10
-3.14642e-11
-6.66741e-11
-3.26961e-11
-1.19885e-11
-3.49642e-11
4.67058e-11
-3.83916e-11
1.07793e-10
-4.30352e-11
1.69923e-10
-4.87379e-11
2.3139e-10
-5.5493e-11
2.90909e-10
-6.32092e-11
3.47593e-10
-7.17505e-11
4.00729e-10
-8.09575e-11
4.50016e-10
-9.06758e-11
4.95417e-10
-1.00757e-10
5.37128e-10
-1.11082e-10
5.75411e-10
-1.2154e-10
6.10815e-10
-1.32039e-10
6.43643e-10
-1.42503e-10
6.74532e-10
-1.52861e-10
7.03721e-10
-1.63061e-10
7.31384e-10
-1.73062e-10
7.57605e-10
-1.8283e-10
7.82415e-10
-1.92341e-10
8.05824e-10
-2.01576e-10
8.27827e-10
-2.10518e-10
8.4841e-10
-2.19154e-10
8.67551e-10
-2.27478e-10
8.85231e-10
-2.35484e-10
9.01433e-10
-2.43169e-10
9.16146e-10
-2.50535e-10
9.29374e-10
-2.57584e-10
9.41126e-10
-2.64322e-10
-2.70755e-10
9.51423e-10
-2.37475e-13
-1.45831e-12
-9.17401e-13
-4.22389e-12
-2.01079e-12
-6.83438e-12
-3.49089e-12
-9.28667e-12
-5.33172e-12
-1.1579e-11
-7.50819e-12
-1.37096e-11
-9.99574e-12
-1.5677e-11
-1.27706e-11
-1.74797e-11
-1.58094e-11
-1.91161e-11
-1.90895e-11
-2.05849e-11
-2.25883e-11
-2.18849e-11
-2.62844e-11
-2.30146e-11
-3.01559e-11
-2.39734e-11
-3.41835e-11
-2.47599e-11
-3.83464e-11
-2.53739e-11
-4.45339e-11
-2.58151e-11
-1.03485e-10
-2.61092e-11
-1.07861e-10
-2.62098e-11
-1.12228e-10
-2.62735e-11
-1.1009e-10
-3.36022e-11
-1.01549e-10
-4.12373e-11
-8.73096e-11
-4.92037e-11
-6.80907e-11
-5.76104e-11
-4.46911e-11
-6.64348e-11
-1.78048e-11
-7.56242e-11
1.18155e-11
-8.51134e-11
4.34398e-11
-9.48335e-11
7.64023e-11
-1.04713e-10
1.10127e-10
-1.14682e-10
1.44123e-10
-1.24672e-10
1.77991e-10
-1.34625e-10
2.11393e-10
-1.44484e-10
2.44056e-10
-1.54203e-10
2.7576e-10
-1.63743e-10
3.06325e-10
-1.73069e-10
3.35618e-10
-1.82154e-10
3.63534e-10
-1.90977e-10
3.89993e-10
-1.99521e-10
4.14936e-10
-2.07773e-10
4.38318e-10
-2.15723e-10
4.60109e-10
-2.23366e-10
4.80289e-10
-2.30698e-10
4.98853e-10
-2.37718e-10
5.15801e-10
-2.44427e-10
5.31145e-10
-2.50827e-10
5.44901e-10
-2.56925e-10
5.57093e-10
-2.62726e-10
5.67748e-10
-2.68239e-10
5.76899e-10
-2.73473e-10
-2.78439e-10
5.84582e-10
-1.6118e-13
-1.29713e-12
-6.28782e-13
-3.75629e-12
-1.38586e-12
-6.0773e-12
-2.41502e-12
-8.25751e-12
-3.69898e-12
-1.0295e-11
-5.22053e-12
-1.2188e-11
-6.96246e-12
-1.39351e-11
-8.90756e-12
-1.55346e-11
-1.10385e-11
-1.69851e-11
-1.3338e-11
-1.82854e-11
-1.57885e-11
-1.94344e-11
-1.83721e-11
-2.0431e-11
-2.10709e-11
-2.12747e-11
-2.38662e-11
-2.19645e-11
-2.67394e-11
-2.25007e-11
-3.35909e-11
-2.28816e-11
-8.69149e-11
-2.31298e-11
-8.98882e-11
-2.32365e-11
-9.06215e-11
-2.55402e-11
-8.77804e-11
-3.64434e-11
-8.1707e-11
-4.73107e-11
-7.27182e-11
-5.81924e-11
-6.12201e-11
-6.91085e-11
-4.76281e-11
-8.00269e-11
-3.23387e-11
-9.09135e-11
-1.57229e-11
-1.01729e-10
1.87638e-12
-1.12433e-10
2.01479e-11
-1.22985e-10
3.88144e-11
-1.33348e-10
5.76327e-11
-1.43491e-10
7.63924e-11
-1.53384e-10
9.49135e-11
-1.63005e-10
1.13044e-10
-1.72333e-10
1.30655e-10
-1.81354e-10
1.4764e-10
-1.90054e-10
1.63912e-10
-1.98426e-10
1.79398e-10
-2.06463e-10
1.94038e-10
-2.1416e-10
2.07783e-10
-2.21518e-10
2.20594e-10
-2.28535e-10
2.32441e-10
-2.35213e-10
2.43299e-10
-2.41556e-10
2.5315e-10
-2.47569e-10
2.61979e-10
-2.53256e-10
2.69778e-10
-2.58626e-10
2.76539e-10
-2.63686e-10
2.82259e-10
-2.68447e-10
2.86938e-10
-2.72918e-10
2.90577e-10
-2.77111e-10
-2.81039e-10
2.93177e-10
-7.05174e-14
-1.22661e-12
-2.77367e-13
-3.54944e-12
-6.16454e-13
-5.73822e-12
-1.08369e-12
-7.79027e-12
-1.67452e-12
-9.70416e-12
-2.38405e-12
-1.14785e-11
-3.20708e-12
-1.31121e-11
-4.13814e-12
-1.46035e-11
-5.17153e-12
-1.59518e-11
-6.30138e-12
-1.71555e-11
-7.52173e-12
-1.82141e-11
-8.82654e-12
-1.91262e-11
-1.02097e-11
-1.98915e-11
-1.16651e-11
-2.05092e-11
-1.3186e-11
-2.09799e-11
-1.84988e-11
-2.13012e-11
-7.0233e-11
-2.1487e-11
-7.18922e-11
-2.15773e-11
-6.81398e-11
-2.92926e-11
-6.34612e-11
-4.1122e-11
-5.79787e-11
-5.27931e-11
-5.17379e-11
-6.44333e-11
-4.48391e-11
-7.60073e-11
-3.73993e-11
-8.74667e-11
-2.95403e-11
-9.87725e-11
-2.13817e-11
-1.09888e-10
-1.30359e-11
-1.20779e-10
-4.60592e-12
-1.31415e-10
3.81547e-12
-1.41769e-10
1.21459e-11
-1.51821e-10
2.03128e-11
-1.61551e-10
2.82527e-11
-1.70945e-10
3.59102e-11
-1.79991e-10
4.32368e-11
-1.8868e-10
5.019e-11
-1.97007e-10
5.67323e-11
-2.04968e-10
6.28304e-11
-2.12561e-10
6.84542e-11
-2.19784e-10
7.35767e-11
-2.2664e-10
7.81727e-11
-2.33131e-10
8.2219e-11
-2.3926e-10
8.56935e-11
-2.45031e-10
8.85752e-11
-2.5045e-10
9.0844e-11
-2.55525e-10
9.24802e-11
-2.60262e-10
9.34645e-11
-2.6467e-10
9.37777e-11
-2.6876e-10
9.34009e-11
-2.72541e-10
9.2315e-11
-2.76025e-10
-2.79225e-10
9.0501e-11
3.91769e-15
-1.23053e-12
5.61879e-15
-3.55114e-12
-1.23543e-15
-5.73136e-12
-2.08096e-14
-7.77069e-12
-5.67377e-14
-9.66823e-12
-1.12464e-13
-1.14228e-11
-1.91265e-13
-1.30333e-11
-2.96292e-13
-1.44985e-11
-4.30703e-13
-1.58173e-11
-5.97852e-13
-1.69884e-11
-8.01324e-13
-1.80106e-11
-1.04508e-12
-1.88824e-11
-1.3336e-12
-1.96029e-11
-1.67297e-12
-2.01698e-11
-2.0721e-12
-2.05807e-11
-3.33736e-12
-2.08331e-11
-5.77711e-11
-2.09468e-11
-5.83406e-11
-2.10078e-11
-5.61379e-11
-3.14953e-11
-5.42014e-11
-4.30585e-11
-5.23792e-11
-5.46153e-11
-5.07113e-11
-6.61013e-11
-4.91827e-11
-7.75359e-11
-4.77701e-11
-8.88793e-11
-4.6454e-11
-1.00089e-10
-4.52206e-11
-1.11121e-10
-4.40611e-11
-1.21938e-10
-4.29706e-11
-1.32505e-10
-4.19476e-11
-1.42792e-10
-4.09944e-11
-1.52774e-10
-4.01162e-11
-1.62429e-10
-3.93215e-11
-1.7174e-10
-3.86211e-11
-1.80691e-10
-3.80282e-11
-1.89273e-10
-3.7558e-11
-1.97478e-10
-3.72272e-11
-2.05299e-10
-3.70542e-11
-2.12734e-10
-3.70587e-11
-2.1978e-10
-3.72613e-11
-2.26438e-10
-3.7684e-11
-2.32708e-10
-3.83497e-11
-2.38594e-10
-3.92826e-11
-2.44098e-10
-4.05074e-11
-2.49226e-10
-4.20501e-11
-2.53982e-10
-4.39376e-11
-2.58374e-10
-4.61976e-11
-2.6241e-10
-4.8859e-11
-2.66098e-10
-5.19512e-11
-2.69449e-10
-5.55048e-11
-2.72472e-10
-2.75179e-10
-5.9551e-11
4.24756e-14
-1.27301e-12
1.69827e-13
-3.67849e-12
3.79977e-13
-5.94151e-12
6.70544e-13
-8.06126e-12
1.03958e-12
-1.00373e-11
1.4854e-12
-1.18686e-11
2.00637e-12
-1.35542e-11
2.60112e-12
-1.50932e-11
3.26825e-12
-1.64845e-11
4.00686e-12
-1.7727e-11
4.81584e-12
-1.88196e-11
5.69493e-12
-1.97615e-11
6.64411e-12
-2.05521e-11
7.66428e-12
-2.119e-11
8.75129e-12
-2.16677e-11
9.88517e-12
-2.19671e-11
-5.04452e-11
-2.20765e-11
-4.92268e-11
-2.22261e-11
-5.35575e-11
-2.71646e-11
-5.78958e-11
-3.87202e-11
-6.21969e-11
-5.03142e-11
-6.63883e-11
-6.19099e-11
-7.04472e-11
-7.34769e-11
-7.43456e-11
-8.49809e-11
-7.80704e-11
-9.63637e-11
-8.16166e-11
-1.07575e-10
-8.49838e-11
-1.18571e-10
-8.81747e-11
-1.29314e-10
-9.11948e-11
-1.39772e-10
-9.40522e-11
-1.49917e-10
-9.67576e-11
-1.59724e-10
-9.93237e-11
-1.69174e-10
-1.01765e-10
-1.7825e-10
-1.04098e-10
-1.86941e-10
-1.06339e-10
-1.95236e-10
-1.08508e-10
-2.03131e-10
-1.10623e-10
-2.10619e-10
-1.12704e-10
-2.17698e-10
-1.14775e-10
-2.24367e-10
-1.16857e-10
-2.30626e-10
-1.18974e-10
-2.36477e-10
-1.21151e-10
-2.41921e-10
-1.23414e-10
-2.46962e-10
-1.25791e-10
-2.51605e-10
-1.28311e-10
-2.55855e-10
-1.31001e-10
-2.5972e-10
-1.33894e-10
-2.63206e-10
-1.3702e-10
-2.66322e-10
-1.40413e-10
-2.69079e-10
-2.71487e-10
-1.44105e-10
8.48627e-14
-1.35787e-12
3.39671e-13
-3.9333e-12
7.6337e-13
-6.36521e-12
1.35544e-12
-8.65333e-12
2.116e-12
-1.07978e-11
3.04553e-12
-1.27981e-11
4.14453e-12
-1.46532e-11
5.41419e-12
-1.63629e-11
6.8562e-12
-1.79265e-11
8.47332e-12
-1.93441e-11
1.02691e-11
-2.06154e-11
1.22478e-11
-2.17402e-11
1.44136e-11
-2.27179e-11
1.67743e-11
-2.35506e-11
1.93526e-11
-2.42461e-11
2.22033e-11
-2.4818e-11
-5.10994e-11
-2.52471e-11
-4.81251e-11
-2.52005e-11
-5.02134e-11
-2.50763e-11
-5.77364e-11
-3.11972e-11
-6.52348e-11
-4.28158e-11
-7.0704e-11
-5.64407e-11
-7.64436e-11
-6.77373e-11
-8.23281e-11
-7.90964e-11
-8.8247e-11
-9.04449e-11
-9.41128e-11
-1.01709e-10
-9.98596e-11
-1.12824e-10
-1.05436e-10
-1.23738e-10
-1.10801e-10
-1.34407e-10
-1.15924e-10
-1.44794e-10
-1.20782e-10
-1.54866e-10
-1.2536e-10
-1.64595e-10
-1.29649e-10
-1.73961e-10
-1.33647e-10
-1.82943e-10
-1.37356e-10
-1.91527e-10
-1.40784e-10
-1.99702e-10
-1.43944e-10
-2.07459e-10
-1.46852e-10
-2.1479e-10
-1.49528e-10
-2.21691e-10
-1.51995e-10
-2.2816e-10
-1.54278e-10
-2.34194e-10
-1.56404e-10
-2.39795e-10
-1.58403e-10
-2.44963e-10
-1.60304e-10
-2.49704e-10
-1.62139e-10
-2.5402e-10
-1.6394e-10
-2.57919e-10
-1.65738e-10
-2.61407e-10
-1.67568e-10
-2.64493e-10
-1.69461e-10
-2.67186e-10
-2.69497e-10
-1.71451e-10
1.50095e-13
-1.50797e-12
5.85482e-13
-4.36868e-12
1.29379e-12
-7.07352e-12
2.26386e-12
-9.62341e-12
3.48517e-12
-1.20191e-11
4.94722e-12
-1.42602e-11
6.64035e-12
-1.63464e-11
8.55479e-12
-1.82773e-11
1.06817e-11
-2.00534e-11
1.30121e-11
-2.16745e-11
1.55379e-11
-2.31412e-11
1.82511e-11
-2.44534e-11
2.11455e-11
-2.56123e-11
2.42125e-11
-2.66177e-11
2.7435e-11
-2.74685e-11
3.07747e-11
-2.81576e-11
3.4029e-11
-2.86791e-11
-2.25243e-11
-2.90786e-11
-1.85703e-11
-2.90303e-11
-1.98457e-11
-2.99218e-11
-2.40429e-11
-3.86186e-11
-3.66596e-11
-4.38239e-11
-4.55313e-11
-5.88657e-11
-5.41898e-11
-7.04379e-11
-6.25374e-11
-8.20973e-11
-7.05909e-11
-9.36558e-11
-7.8351e-11
-1.05064e-10
-8.58007e-11
-1.16288e-10
-9.29065e-11
-1.27301e-10
-9.96278e-11
-1.38073e-10
-1.05924e-10
-1.4857e-10
-1.1176e-10
-1.5876e-10
-1.17108e-10
-1.68612e-10
-1.21953e-10
-1.78098e-10
-1.26288e-10
-1.87192e-10
-1.30118e-10
-1.95872e-10
-1.33455e-10
-2.04122e-10
-1.3632e-10
-2.11925e-10
-1.38738e-10
-2.19273e-10
-1.40741e-10
-2.26157e-10
-1.42362e-10
-2.32573e-10
-1.43638e-10
-2.38519e-10
-1.44607e-10
-2.43994e-10
-1.45307e-10
-2.49003e-10
-1.45778e-10
-2.53549e-10
-1.46058e-10
-2.5764e-10
-1.46183e-10
-2.61282e-10
-1.4619e-10
-2.64485e-10
-1.46114e-10
-2.67262e-10
-2.69623e-10
-1.45988e-10
2.09554e-13
-1.71753e-12
8.1156e-13
-4.97069e-12
1.78315e-12
-8.04511e-12
3.1021e-12
-1.09424e-11
4.74585e-12
-1.36629e-11
6.69371e-12
-1.6208e-11
8.92601e-12
-1.85787e-11
1.14243e-11
-2.07756e-11
1.41701e-11
-2.27993e-11
1.71459e-11
-2.46503e-11
2.03336e-11
-2.63289e-11
2.37156e-11
-2.78354e-11
2.72729e-11
-2.91696e-11
3.09867e-11
-3.03314e-11
3.48391e-11
-3.13209e-11
3.88189e-11
-3.21375e-11
4.29197e-11
-3.278e-11
4.72519e-11
-3.32486e-11
4.65054e-12
-3.35763e-11
8.19978e-12
-3.3471e-11
3.84766e-12
-3.42665e-11
-9.84576e-14
-3.98778e-11
-1.47321e-11
-4.4232e-11
-2.85871e-11
-5.65829e-11
-4.11321e-11
-6.95523e-11
-5.25785e-11
-8.22094e-11
-6.29461e-11
-9.46964e-11
-7.22861e-11
-1.06948e-10
-8.06508e-11
-1.18937e-10
-8.80855e-11
-1.30638e-10
-9.46311e-11
-1.42024e-10
-1.00326e-10
-1.53065e-10
-1.05208e-10
-1.6373e-10
-1.09318e-10
-1.73988e-10
-1.12696e-10
-1.83813e-10
-1.15389e-10
-1.9318e-10
-1.17442e-10
-2.02069e-10
-1.18904e-10
-2.10463e-10
-1.19828e-10
-2.18349e-10
-1.20265e-10
-2.2572e-10
-1.20269e-10
-2.32569e-10
-1.19892e-10
-2.38896e-10
-1.19186e-10
-2.447e-10
-1.18202e-10
-2.49987e-10
-1.16989e-10
-2.54763e-10
-1.15593e-10
-2.59036e-10
-1.14058e-10
-2.62817e-10
-1.12424e-10
-2.66119e-10
-1.10729e-10
-2.68957e-10
-2.71346e-10
-1.09006e-10
1.84835e-13
-1.90236e-12
7.31303e-13
-5.51716e-12
1.62616e-12
-8.93997e-12
2.85247e-12
-1.21687e-11
4.39327e-12
-1.52037e-11
6.23277e-12
-1.80475e-11
8.3563e-12
-2.07022e-11
1.07497e-11
-2.31689e-11
1.33994e-11
-2.54489e-11
1.62919e-11
-2.75429e-11
1.94144e-11
-2.94513e-11
2.27538e-11
-3.11747e-11
2.62974e-11
-3.27133e-11
3.00327e-11
-3.40667e-11
3.39468e-11
-3.5235e-11
3.80271e-11
-3.62177e-11
4.22643e-11
-3.70172e-11
4.66525e-11
-3.76368e-11
5.07084e-11
-3.80795e-11
6.45313e-12
-3.83611e-11
1.04221e-11
-3.82354e-11
9.06646e-12
-3.85222e-11
3.55935e-12
-3.87249e-11
-8.3481e-12
-4.46754e-11
-2.25097e-11
-5.53908e-11
-3.49946e-11
-6.97245e-11
-4.58827e-11
-8.38083e-11
-5.52533e-11
-9.75776e-11
-6.32033e-11
-1.10987e-10
-6.98381e-11
-1.24003e-10
-7.52621e-11
-1.366e-10
-7.95748e-11
-1.48752e-10
-8.28706e-11
-1.60434e-10
-8.52391e-11
-1.7162e-10
-8.67664e-11
-1.82286e-10
-8.75356e-11
-1.92411e-10
-8.7628e-11
-2.01976e-10
-8.71231e-11
-2.10967e-10
-8.60989e-11
-2.19373e-10
-8.46313e-11
-2.27187e-10
-8.27936e-11
-2.34407e-10
-8.06561e-11
-2.41033e-10
-7.82854e-11
-2.47071e-10
-7.57441e-11
-2.52528e-10
-7.30897e-11
-2.57417e-10
-7.03751e-11
-2.6175e-10
-6.76477e-11
-2.65544e-10
-6.49498e-11
-2.68817e-10
-6.23182e-11
-2.71589e-10
-2.7388e-10
-5.97849e-11
1.27033e-13
4.93858e-13
1.09416e-12
1.92588e-12
2.98689e-12
4.27429e-12
5.78474e-12
7.51457e-12
9.46015e-12
1.16177e-11
1.39837e-11
1.65546e-11
1.93274e-11
2.2299e-11
2.54672e-11
2.88302e-11
3.23836e-11
3.61181e-11
4.00271e-11
4.33185e-11
-5.00237e-12
-9.63069e-13
3.02662e-12
1.06404e-12
-7.52974e-12
-1.84893e-11
-2.73639e-11
-3.44083e-11
-3.98258e-11
-4.3791e-11
-4.64623e-11
-4.79841e-11
-4.84897e-11
-4.81045e-11
-4.69479e-11
-4.51342e-11
-4.27729e-11
-3.99688e-11
-3.68206e-11
-3.3421e-11
-2.98558e-11
-2.6203e-11
-2.25328e-11
-1.89072e-11
-1.53803e-11
-1.19979e-11
-8.79838e-12
-5.81279e-12
-3.06542e-12
-5.74351e-13
-5.12288e-10
1.9156e-11
-4.7566e-10
8.72249e-12
-4.42835e-10
-1.86684e-12
-4.13522e-10
-1.22858e-11
-3.8737e-10
-2.24003e-11
-3.63806e-10
-3.20952e-11
-3.42028e-10
-4.13134e-11
-3.21488e-10
-4.99619e-11
-3.01633e-10
-5.80753e-11
-2.82074e-10
-6.56646e-11
-2.62499e-10
-7.27749e-11
-2.42612e-10
-7.94459e-11
-2.22211e-10
-8.57185e-11
-2.01152e-10
-9.16315e-11
-1.79352e-10
-9.72209e-11
-1.56762e-10
-1.02519e-10
-1.33363e-10
-1.07555e-10
-1.09157e-10
-1.12353e-10
-8.4164e-11
-1.16934e-10
-5.84137e-11
-1.21316e-10
-3.19462e-11
-1.25514e-10
-4.80734e-12
-1.29541e-10
2.29521e-11
-1.33405e-10
5.1279e-11
-1.37117e-10
8.01184e-11
-1.40682e-10
1.09415e-10
-1.44105e-10
1.39113e-10
-1.47391e-10
1.69156e-10
-1.50544e-10
1.99488e-10
-1.53567e-10
2.30057e-10
-1.56461e-10
2.60809e-10
-1.59229e-10
2.91694e-10
-1.61872e-10
3.22661e-10
-1.64392e-10
3.53664e-10
-1.66789e-10
3.84655e-10
-1.69064e-10
4.15593e-10
-1.71219e-10
4.46434e-10
-1.73253e-10
4.77139e-10
-1.75168e-10
5.07671e-10
-1.76964e-10
5.37994e-10
-1.78641e-10
5.68074e-10
-1.80199e-10
5.9788e-10
-1.81637e-10
6.27384e-10
-1.82955e-10
6.56556e-10
-1.84151e-10
6.8537e-10
-1.85224e-10
7.13801e-10
-1.86169e-10
7.41823e-10
-1.86984e-10
7.69412e-10
-1.87663e-10
7.96542e-10
-1.88196e-10
-1.8857e-10
8.23176e-10
-6.93971e-10
-3.23598e-11
-6.44137e-10
-4.11116e-11
-5.96364e-10
-4.96396e-11
-5.50691e-10
-5.79583e-11
-5.07031e-10
-6.60612e-11
-4.65189e-10
-7.39373e-11
-4.24922e-10
-8.15801e-11
-3.85904e-10
-8.898e-11
-3.47846e-10
-9.61329e-11
-3.10475e-10
-1.03036e-10
-2.73559e-10
-1.0969e-10
-2.36908e-10
-1.16097e-10
-2.00366e-10
-1.22261e-10
-1.63812e-10
-1.28186e-10
-1.27155e-10
-1.33877e-10
-9.03336e-11
-1.39341e-10
-5.33072e-11
-1.44582e-10
-1.60559e-11
-1.49604e-10
2.14242e-11
-1.54414e-10
5.91238e-11
-1.59016e-10
9.70232e-11
-1.63414e-10
1.35094e-10
-1.67612e-10
1.73303e-10
-1.71614e-10
2.1161e-10
-1.75424e-10
2.49975e-10
-1.79046e-10
2.88353e-10
-1.82483e-10
3.26699e-10
-1.85738e-10
3.64968e-10
-1.88814e-10
4.03115e-10
-1.91714e-10
4.41096e-10
-1.94441e-10
4.78866e-10
-1.96999e-10
5.16383e-10
-1.99389e-10
5.53605e-10
-2.01614e-10
5.90495e-10
-2.03678e-10
6.27012e-10
-2.05582e-10
6.63122e-10
-2.07329e-10
6.9879e-10
-2.08921e-10
7.33982e-10
-2.1036e-10
7.68667e-10
-2.1165e-10
8.02817e-10
-2.12791e-10
8.36404e-10
-2.13785e-10
8.69401e-10
-2.14634e-10
9.01784e-10
-2.15338e-10
9.33529e-10
-2.15897e-10
9.64615e-10
-2.1631e-10
9.95021e-10
-2.16575e-10
1.02472e-09
-2.16688e-10
1.05371e-09
-2.16646e-10
1.08195e-09
-2.16439e-10
-2.16071e-10
1.10945e-09
-4.35735e-10
-6.57164e-11
-4.01258e-10
-7.55888e-11
-3.65798e-10
-8.50998e-11
-3.29454e-10
-9.43027e-11
-2.9229e-10
-1.03225e-10
-2.5435e-10
-1.11877e-10
-2.15672e-10
-1.20259e-10
-1.76285e-10
-1.28366e-10
-1.36223e-10
-1.36196e-10
-9.55173e-11
-1.43741e-10
-5.42083e-11
-1.50999e-10
-1.23397e-11
-1.57966e-10
3.00385e-11
-1.64639e-10
7.2871e-11
-1.71018e-10
1.16099e-10
-1.77105e-10
1.59661e-10
-1.82903e-10
2.03493e-10
-1.88414e-10
2.47533e-10
-1.93644e-10
2.91715e-10
-1.98597e-10
3.35978e-10
-2.03278e-10
3.80258e-10
-2.07694e-10
4.24497e-10
-2.11851e-10
4.68638e-10
-2.15754e-10
5.12624e-10
-2.1941e-10
5.56403e-10
-2.22825e-10
5.99926e-10
-2.26006e-10
6.43145e-10
-2.28957e-10
6.86017e-10
-2.31685e-10
7.28499e-10
-2.34196e-10
7.70552e-10
-2.36494e-10
8.12138e-10
-2.38585e-10
8.53223e-10
-2.40473e-10
8.93772e-10
-2.42164e-10
9.33754e-10
-2.4366e-10
9.7314e-10
-2.44967e-10
1.0119e-09
-2.46088e-10
1.05001e-09
-2.47027e-10
1.08743e-09
-2.47785e-10
1.12415e-09
-2.48366e-10
1.16013e-09
-2.48775e-10
1.19536e-09
-2.49014e-10
1.22981e-09
-2.4908e-10
1.26344e-09
-2.48971e-10
1.29622e-09
-2.48681e-10
1.32812e-09
-2.48208e-10
1.3591e-09
-2.47552e-10
1.38912e-09
-2.46712e-10
1.41816e-09
-2.45683e-10
1.4462e-09
-2.44475e-10
-2.43179e-10
1.4733e-09
-2.25892e-10
-1.00404e-10
-1.88461e-10
-1.13019e-10
-1.48536e-10
-1.25025e-10
-1.06387e-10
-1.36452e-10
-6.22901e-11
-1.47322e-10
-1.65167e-11
-1.5765e-10
3.0675e-11
-1.6745e-10
7.90445e-11
-1.76736e-10
1.28368e-10
-1.8552e-10
1.78442e-10
-1.93815e-10
2.29079e-10
-2.01636e-10
2.80112e-10
-2.08999e-10
3.31393e-10
-2.1592e-10
3.82789e-10
-2.22414e-10
4.34184e-10
-2.285e-10
4.85475e-10
-2.34194e-10
5.36572e-10
-2.39511e-10
5.87398e-10
-2.4447e-10
6.37884e-10
-2.49084e-10
6.87974e-10
-2.53368e-10
7.37617e-10
-2.57338e-10
7.86772e-10
-2.61005e-10
8.35402e-10
-2.64384e-10
8.83477e-10
-2.67485e-10
9.30972e-10
-2.70321e-10
9.77867e-10
-2.72901e-10
1.02414e-09
-2.75234e-10
1.06979e-09
-2.7733e-10
1.11479e-09
-2.79197e-10
1.15914e-09
-2.80841e-10
1.20282e-09
-2.8227e-10
1.24584e-09