/*--------------------------------*- C++ -*----------------------------------*\
| =========                 |                                                 |
| \\      /  F ield         | OpenFOAM: The Open Source CFD Toolbox           |
|  \\    /   O peration     | Version:  2.4.0                                 |
|   \\  /    A nd           | Web:      www.OpenFOAM.org                      |
|    \\/     M anipulation  |                                                 |
\*---------------------------------------------------------------------------*/
FoamFile
{
    version     2.0;
    format      ascii;
    class       volScalarField;
    location    "4.5";
    object      H;
}
// * * * * * * * * * * * * * * * * * * * * * * * * * * * * * * * * * * * * * //

dimensions      [0 2 -2 0 0 0 0];

internalField   nonuniform List<scalar> 
125
(
-12006.3
-12006.3
-12006.3
-12006.3
-12006.3
-11556.3
-11556.3
-11556.3
-11556.3
-11556.4
-11101.4
-11101.3
-11101.2
-11101.3
-11101.4
-10641.3
-10641.2
-10641
-10641.1
-10641.3
-10175.9
-10175.9
-10175.7
-10175.8
-10176
-9705.36
-9705.31
-9705.02
-9705.14
-9705.38
-9229.4
-9229.34
-9228.99
-9229.14
-9229.43
-8748
-8747.92
-8747.51
-8747.69
-8748.03
-8261.05
-8260.97
-8260.49
-8260.7
-8261.09
-7768.48
-7768.38
-7767.84
-7768.08
-7768.53
-7270.19
-7270.07
-7269.46
-7269.73
-7270.24
-6766.09
-6765.95
-6765.26
-6765.56
-6766.15
-6256.07
-6255.91
-6255.14
-6255.47
-6256.13
-5740.03
-5739.84
-5738.99
-5739.36
-5740.11
-5217.87
-5217.66
-5216.71
-5217.12
-5217.96
-4689.48
-4689.23
-4688.19
-4688.64
-4689.58
-4154.75
-4154.46
-4153.32
-4153.82
-4154.86
-3613.55
-3613.23
-3611.97
-3612.52
-3613.69
-3065.78
-3065.42
-3064.04
-3064.64
-3065.94
-2511.32
-2510.9
-2509.39
-2510.04
-2511.49
-1950.02
-1949.56
-1947.9
-1948.62
-1950.23
-1381.78
-1381.25
-1379.44
-1380.22
-1382.01
-806.454
-805.861
-803.885
-804.732
-806.714
-25.5813
-25.4872
-25.1974
-25.3203
-25.6235
-19.239
-19.1677
-18.9504
-19.0425
-19.27
)
;

boundaryField
{
    BotWall
    {
        type            zeroGradient;
    }
    FreeStream
    {
        type            zeroGradient;
    }
    FrontNBack
    {
        type            empty;
    }
    LeftSide
    {
        type            symmetryPlane;
    }
    RightSide
    {
        type            symmetryPlane;
    }
    procBoundary0to1
    {
        type            processor;
        value           nonuniform List<scalar> 5(-19.3799 -19.3091 -19.0964 -19.1864 -19.4092);
    }
}


// ************************************************************************* //
