/*--------------------------------*- C++ -*----------------------------------*\
| =========                 |                                                 |
| \\      /  F ield         | OpenFOAM: The Open Source CFD Toolbox           |
|  \\    /   O peration     | Version:  2.4.0                                 |
|   \\  /    A nd           | Web:      www.OpenFOAM.org                      |
|    \\/     M anipulation  |                                                 |
\*---------------------------------------------------------------------------*/
FoamFile
{
    version     2.0;
    format      ascii;
    class       volScalarField;
    location    "4.5";
    object      T;
}
// * * * * * * * * * * * * * * * * * * * * * * * * * * * * * * * * * * * * * //

dimensions      [0 0 0 1 0 0 0];

internalField   nonuniform List<scalar> 
125
(
293.091
293.091
293.091
293.091
293.091
293.275
293.275
293.275
293.275
293.275
293.461
293.461
293.461
293.461
293.461
293.65
293.65
293.65
293.65
293.65
293.84
293.84
293.84
293.84
293.84
294.032
294.032
294.032
294.032
294.032
294.227
294.227
294.227
294.227
294.227
294.424
294.424
294.424
294.424
294.424
294.623
294.623
294.623
294.623
294.623
294.824
294.824
294.824
294.824
294.824
295.028
295.028
295.028
295.028
295.028
295.234
295.234
295.234
295.234
295.234
295.442
295.442
295.443
295.443
295.442
295.653
295.653
295.654
295.654
295.653
295.867
295.867
295.867
295.867
295.867
296.083
296.083
296.083
296.083
296.083
296.301
296.302
296.302
296.302
296.301
296.523
296.523
296.523
296.523
296.523
296.747
296.747
296.747
296.747
296.747
296.973
296.973
296.974
296.974
296.973
297.203
297.203
297.204
297.203
297.203
297.435
297.435
297.436
297.436
297.435
297.67
297.671
297.671
297.671
297.67
297.989
297.99
297.99
297.99
297.989
297.989
297.989
297.99
297.99
297.989
)
;

boundaryField
{
    BotWall
    {
        type            fixedValue;
        value           uniform 293;
    }
    FreeStream
    {
        type            fixedValue;
        value           nonuniform 0();
    }
    FrontNBack
    {
        type            empty;
    }
    LeftSide
    {
        type            symmetryPlane;
    }
    RightSide
    {
        type            symmetryPlane;
    }
    procBoundary0to1
    {
        type            processor;
        value           nonuniform List<scalar> 5(297.989 297.989 297.99 297.989 297.989);
    }
}


// ************************************************************************* //
