/*--------------------------------*- C++ -*----------------------------------*\
| =========                 |                                                 |
| \\      /  F ield         | OpenFOAM: The Open Source CFD Toolbox           |
|  \\    /   O peration     | Version:  2.4.0                                 |
|   \\  /    A nd           | Web:      www.OpenFOAM.org                      |
|    \\/     M anipulation  |                                                 |
\*---------------------------------------------------------------------------*/
FoamFile
{
    version     2.0;
    format      ascii;
    class       volVectorField;
    location    "4.5";
    object      U;
}
// * * * * * * * * * * * * * * * * * * * * * * * * * * * * * * * * * * * * * //

dimensions      [0 1 -1 0 0 0 0];

internalField   nonuniform List<vector> 
125
(
(2.22342e-09 -1.85634e-10 0)
(1.31516e-08 -1.7719e-10 0)
(6.22349e-09 -1.39068e-10 0)
(-1.27856e-08 -1.55615e-10 0)
(-7.72229e-09 -1.91195e-10 0)
(6.91048e-09 2.11515e-10 0)
(3.99451e-08 3.84894e-10 0)
(1.8824e-08 8.14757e-10 0)
(-3.89754e-08 6.38673e-10 0)
(-2.36857e-08 1.39619e-10 0)
(1.18705e-08 -1.38892e-09 0)
(6.74026e-08 -9.2957e-10 0)
(3.16576e-08 3.35121e-10 0)
(-6.59609e-08 -1.80048e-10 0)
(-4.02812e-08 -1.60385e-09 0)
(1.71055e-08 -2.9884e-10 0)
(9.55476e-08 7.17315e-10 0)
(4.47357e-08 3.28567e-09 0)
(-9.37732e-08 2.24454e-09 0)
(-5.75318e-08 -7.43613e-10 0)
(2.26275e-08 -3.58045e-09 0)
(1.24415e-07 -1.93569e-09 0)
(5.80707e-08 2.40931e-09 0)
(-1.22456e-07 6.49855e-10 0)
(-7.54719e-08 -4.33926e-09 0)
(2.84357e-08 -1.76983e-09 0)
(1.54028e-07 8.62139e-10 0)
(7.16756e-08 7.48699e-09 0)
(-1.52039e-07 4.80963e-09 0)
(-9.41238e-08 -2.94161e-09 0)
(3.45452e-08 -6.89483e-09 0)
(1.84427e-07 -3.25183e-09 0)
(8.55651e-08 6.16401e-09 0)
(-1.82575e-07 2.35951e-09 0)
(-1.1353e-07 -8.57305e-09 0)
(4.09533e-08 -4.26935e-09 0)
(2.15636e-07 8.4074e-10 0)
(9.97527e-08 1.36018e-08 0)
(-2.14094e-07 8.45132e-09 0)
(-1.33711e-07 -6.56888e-09 0)
(4.76777e-08 -1.14366e-08 0)
(2.47702e-07 -4.88259e-09 0)
(1.14255e-07 1.17816e-08 0)
(-2.46656e-07 5.05563e-09 0)
(-1.54717e-07 -1.44624e-08 0)
(5.4714e-08 -7.87272e-09 0)
(2.80649e-07 6.83815e-10 0)
(1.29087e-07 2.18618e-08 0)
(-2.80293e-07 1.33203e-08 0)
(-1.76569e-07 -1.17579e-08 0)
(6.20823e-08 -1.74712e-08 0)
(3.14529e-07 -6.98287e-09 0)
(1.44268e-07 1.93164e-08 0)
(-3.15071e-07 8.70858e-09 0)
(-1.99322e-07 -2.23336e-08 0)
(6.97771e-08 -1.31063e-08 0)
(3.49368e-07 -2.01986e-11 0)
(1.59813e-07 3.20715e-08 0)
(-3.51025e-07 1.91347e-08 0)
(-2.23002e-07 -1.90993e-08 0)
(7.78201e-08 -2.54376e-08 0)
(3.85225e-07 -9.87347e-09 0)
(1.75745e-07 2.8677e-08 0)
(-3.88229e-07 1.31362e-08 0)
(-2.4767e-07 -3.26936e-08 0)
(8.62054e-08 -1.707e-08 0)
(4.22129e-07 1.75104e-09 0)
(1.92081e-07 4.75319e-08 0)
(-4.26722e-07 2.90879e-08 0)
(-2.73352e-07 -2.57678e-08 0)
(9.49562e-08 -2.42881e-08 0)
(4.60144e-07 -2.35911e-09 0)
(2.08846e-07 5.14434e-08 0)
(-4.66586e-07 2.97696e-08 0)
(-3.00118e-07 -3.45859e-08 0)
(1.04067e-07 -1.29683e-08 0)
(4.99303e-07 1.30035e-08 0)
(2.26061e-07 7.56132e-08 0)
(-5.07866e-07 5.03965e-08 0)
(-3.28e-07 -2.50822e-08 0)
(1.13561e-07 -9.26202e-08 0)
(5.39677e-07 -6.30058e-08 0)
(2.43752e-07 8.74255e-09 0)
(-5.50649e-07 -2.01465e-08 0)
(-3.57071e-07 -1.06654e-07 0)
(1.2343e-07 -2.94122e-07 0)
(5.81291e-07 -2.60403e-07 0)
(2.6194e-07 -1.80103e-07 0)
(-5.94973e-07 -2.12368e-07 0)
(-3.87361e-07 -3.10076e-07 0)
(1.33692e-07 -4.04432e-07 0)
(6.24193e-07 -3.66807e-07 0)
(2.80638e-07 -2.77532e-07 0)
(-6.40867e-07 -3.13357e-07 0)
(-4.18888e-07 -4.22377e-07 0)
(1.44333e-07 1.19035e-06 0)
(6.68426e-07 1.23748e-06 0)
(2.99878e-07 1.34929e-06 0)
(-6.88453e-07 1.30413e-06 0)
(-4.51759e-07 1.16848e-06 0)
(1.55462e-07 6.79611e-06 0)
(7.14376e-07 6.86546e-06 0)
(3.20109e-07 7.04078e-06 0)
(-7.37871e-07 6.96888e-06 0)
(-4.86291e-07 6.76419e-06 0)
(1.67259e-07 8.13397e-06 0)
(7.62122e-07 8.23032e-06 0)
(3.4106e-07 8.48392e-06 0)
(-7.89997e-07 8.37936e-06 0)
(-5.23199e-07 8.08813e-06 0)
(1.79661e-07 -2.77251e-05 0)
(8.12834e-07 -2.77145e-05 0)
(3.62992e-07 -2.77379e-05 0)
(-8.45883e-07 -2.77228e-05 0)
(-5.62574e-07 -2.77376e-05 0)
(1.94392e-07 -0.000217611 0)
(8.73142e-07 -0.000217965 0)
(3.89066e-07 -0.000219123 0)
(-9.12574e-07 -0.000218625 0)
(-6.0992e-07 -0.000217461 0)
(1.97536e-07 -0.000749791 0)
(8.8658e-07 -0.000749612 0)
(3.94932e-07 -0.000749144 0)
(-9.27345e-07 -0.000749339 0)
(-6.20264e-07 -0.000749867 0)
)
;

boundaryField
{
    BotWall
    {
        type            fixedValue;
        value           uniform (0 0 0);
    }
    FreeStream
    {
        type            zeroGradient;
    }
    FrontNBack
    {
        type            empty;
    }
    LeftSide
    {
        type            symmetryPlane;
    }
    RightSide
    {
        type            symmetryPlane;
    }
    procBoundary0to1
    {
        type            processor;
        value           nonuniform List<vector> 5((1.95297e-07 -0.00172927 0) (8.69686e-07 -0.00172903 0) (3.86769e-07 -0.00172828 0) (-9.08082e-07 -0.0017286 0) (-6.06774e-07 -0.00172936 0));
    }
}


// ************************************************************************* //
