/*--------------------------------*- C++ -*----------------------------------*\
| =========                 |                                                 |
| \\      /  F ield         | OpenFOAM: The Open Source CFD Toolbox           |
|  \\    /   O peration     | Version:  2.4.0                                 |
|   \\  /    A nd           | Web:      www.OpenFOAM.org                      |
|    \\/     M anipulation  |                                                 |
\*---------------------------------------------------------------------------*/
FoamFile
{
    version     2.0;
    format      ascii;
    class       volScalarField;
    location    "3.8";
    object      H;
}
// * * * * * * * * * * * * * * * * * * * * * * * * * * * * * * * * * * * * * //

dimensions      [0 2 -2 0 0 0 0];

internalField   nonuniform List<scalar> 
500
(
-11980.1
-11980.1
-11980
-11980.1
-11980.1
-11477.4
-11477.4
-11477.3
-11477.4
-11477.4
-10969.1
-10969
-10969
-10969
-10969.1
-10455
-10455
-10454.9
-10455
-10455
-9935.18
-9935.09
-9935.03
-9935.09
-9935.18
-9409.42
-9409.31
-9409.24
-9409.31
-9409.43
-8877.67
-8877.54
-8877.45
-8877.53
-8877.67
-8339.83
-8339.67
-8339.56
-8339.66
-8339.83
-7795.79
-7795.62
-7795.49
-7795.61
-7795.79
-7245.48
-7245.27
-7245.14
-7245.26
-7245.48
-6688.77
-6688.55
-6688.39
-6688.53
-6688.77
-6125.58
-6125.33
-6125.16
-6125.31
-6125.58
-5555.79
-5555.51
-5555.32
-5555.49
-5555.79
-4979.3
-4978.99
-4978.78
-4978.97
-4979.3
-4395.99
-4395.65
-4395.43
-4395.63
-4395.99
-3805.76
-3805.39
-3805.14
-3805.37
-3805.76
-3208.48
-3208.08
-3207.81
-3208.06
-3208.48
-2604.05
-2603.61
-2603.32
-2603.59
-2604.05
-1992.34
-1991.86
-1991.55
-1991.84
-1992.34
-1373.23
-1372.71
-1372.37
-1372.69
-1373.24
-746.606
-746.035
-745.667
-746.008
-746.609
-15.6478
-15.6094
-15.585
-15.6076
-15.6479
-11.6676
-11.6391
-11.6209
-11.6377
-11.6677
-11.6846
-11.6566
-11.6387
-11.6553
-11.6847
-11.6994
-11.6719
-11.6544
-11.6707
-11.6995
-11.7119
-11.685
-11.6678
-11.6838
-11.712
-11.722
-11.6957
-11.6788
-11.6945
-11.7221
-11.7297
-11.7038
-11.6873
-11.7027
-11.7297
-11.7347
-11.7094
-11.6933
-11.7083
-11.7347
-11.7371
-11.7123
-11.6965
-11.7112
-11.7371
-11.7366
-11.7124
-11.6969
-11.7113
-11.7366
-11.7333
-11.7095
-11.6943
-11.7084
-11.7332
-11.7269
-11.7037
-11.6888
-11.7026
-11.7268
-11.7174
-11.6947
-11.6801
-11.6936
-11.7173
-11.7046
-11.6824
-11.6681
-11.6813
-11.7045
-11.6885
-11.6668
-11.6528
-11.6657
-11.6884
-11.6689
-11.6476
-11.634
-11.6466
-11.6688
-11.6457
-11.6249
-11.6116
-11.6239
-11.6455
-11.6188
-11.5985
-11.5855
-11.5975
-11.6186
-11.5881
-11.5682
-11.5555
-11.5673
-11.5879
-11.5534
-11.534
-11.5216
-11.5331
-11.5532
-11.5146
-11.4957
-11.4836
-11.4948
-11.5144
-11.4717
-11.4532
-11.4413
-11.4523
-11.4714
-11.4244
-11.4064
-11.3948
-11.4055
-11.4242
-11.3727
-11.3552
-11.3439
-11.3543
-11.3725
-11.3165
-11.2994
-11.2883
-11.2985
-11.3162
-11.2556
-11.2389
-11.2282
-11.2381
-11.2553
-11.1899
-11.1737
-11.1632
-11.1728
-11.1896
-11.1193
-11.1035
-11.0933
-11.1027
-11.119
-11.0438
-11.0283
-11.0184
-11.0276
-11.0434
-10.963
-10.948
-10.9384
-10.9473
-10.9627
-10.8771
-10.8625
-10.8531
-10.8617
-10.8768
-10.7858
-10.7716
-10.7624
-10.7709
-10.7855
-10.6891
-10.6753
-10.6663
-10.6746
-10.6887
-10.5868
-10.5734
-10.5647
-10.5727
-10.5864
-10.4788
-10.4658
-10.4574
-10.4651
-10.4785
-10.3652
-10.3526
-10.3444
-10.3519
-10.3648
-10.2457
-10.2334
-10.2255
-10.2328
-10.2453
-10.1203
-10.1084
-10.1007
-10.1077
-10.1199
-9.98886
-9.97735
-9.96987
-9.97671
-9.98849
-9.85138
-9.84024
-9.83299
-9.83961
-9.85102
-9.70778
-9.69699
-9.68997
-9.69638
-9.70741
-9.55799
-9.54755
-9.54076
-9.54696
-9.55762
-9.40195
-9.39186
-9.38529
-9.39128
-9.40158
-9.23962
-9.22988
-9.22353
-9.22931
-9.23925
-9.07097
-9.06157
-9.05544
-9.06102
-9.0706
-8.89597
-8.8869
-8.88098
-8.88636
-8.8956
-8.71459
-8.70586
-8.70016
-8.70534
-8.71423
-8.52685
-8.51844
-8.51294
-8.51793
-8.52649
-8.33273
-8.32464
-8.31935
-8.32415
-8.33237
-8.13225
-8.12448
-8.1194
-8.124
-8.13189
-7.92544
-7.91798
-7.9131
-7.91752
-7.92509
-7.71233
-7.70519
-7.70051
-7.70474
-7.71199
-7.49299
-7.48615
-7.48167
-7.48571
-7.49265
-7.26747
-7.26093
-7.25664
-7.26051
-7.26714
-7.03585
-7.02961
-7.02552
-7.02921
-7.03553
-6.79824
-6.79228
-6.78838
-6.7919
-6.79792
-6.55473
-6.54907
-6.54535
-6.5487
-6.55442
-6.30545
-6.30008
-6.29655
-6.29972
-6.30515
-6.05056
-6.04546
-6.04212
-6.04513
-6.05027
-5.7902
-5.78538
-5.78222
-5.78506
-5.78992
-5.52455
-5.52001
-5.51703
-5.51971
-5.52428
-5.25382
-5.24955
-5.24674
-5.24926
-5.25356
-4.9782
-4.9742
-4.97157
-4.97392
-4.97795
-4.69794
-4.6942
-4.69174
-4.69394
-4.6977
-4.41328
-4.40981
-4.40752
-4.40957
-4.41306
-4.1245
-4.12128
-4.11917
-4.12106
-4.1243
-3.83189
-3.82893
-3.82698
-3.82872
-3.8317
-3.53576
-3.53305
-3.53126
-3.53286
-3.53558
-3.23644
-3.23397
-3.23235
-3.2338
-3.23627
-2.93428
-2.93206
-2.9306
-2.9319
-2.93413
-2.62965
-2.62768
-2.62638
-2.62754
-2.62951
-2.32295
-2.32122
-2.32008
-2.3211
-2.32283
-2.01459
-2.0131
-2.01212
-2.01299
-2.01449
-1.70501
-1.70375
-1.70292
-1.70366
-1.70492
-1.39465
-1.39363
-1.39295
-1.39355
-1.39458
-1.084
-1.0832
-1.08268
-1.08315
-1.08394
-0.773533
-0.772968
-0.772596
-0.772927
-0.773492
-0.463771
-0.463433
-0.46321
-0.463408
-0.463747
-0.15524
-0.155127
-0.155052
-0.155119
-0.155232
)
;

boundaryField
{
    BotWall
    {
        type            zeroGradient;
    }
    FreeStream
    {
        type            zeroGradient;
    }
    FrontNBack
    {
        type            empty;
    }
    LeftSide
    {
        type            symmetryPlane;
    }
    RightSide
    {
        type            symmetryPlane;
    }
}


// ************************************************************************* //
