/*--------------------------------*- C++ -*----------------------------------*\
| =========                 |                                                 |
| \\      /  F ield         | OpenFOAM: The Open Source CFD Toolbox           |
|  \\    /   O peration     | Version:  2.4.0                                 |
|   \\  /    A nd           | Web:      www.OpenFOAM.org                      |
|    \\/     M anipulation  |                                                 |
\*---------------------------------------------------------------------------*/
FoamFile
{
    version     2.0;
    format      ascii;
    class       volScalarField;
    location    "3.8";
    object      p;
}
// * * * * * * * * * * * * * * * * * * * * * * * * * * * * * * * * * * * * * //

dimensions      [1 -1 -2 0 0 0 0];

internalField   nonuniform List<scalar> 
500
(
0.694825
0.695434
0.696245
0.695523
0.694816
0.665026
0.665639
0.666451
0.665727
0.665016
0.63488
0.635495
0.636308
0.635583
0.634869
0.604409
0.605028
0.605843
0.605116
0.604398
0.573584
0.574208
0.575024
0.574295
0.573573
0.542429
0.543057
0.543877
0.543145
0.542418
0.510913
0.511545
0.512367
0.511633
0.510902
0.479057
0.479694
0.480519
0.479782
0.479046
0.44682
0.447463
0.44829
0.447551
0.446809
0.414236
0.414884
0.415714
0.414972
0.414225
0.381337
0.38199
0.382823
0.382078
0.381326
0.348317
0.348977
0.349814
0.349065
0.348306
0.315015
0.315681
0.316522
0.31577
0.315004
0.279694
0.280364
0.281208
0.280453
0.279683
0.238164
0.238824
0.239665
0.238913
0.238153
0.193652
0.194296
0.195123
0.194384
0.193641
0.191157
0.191865
0.192713
0.191954
0.191145
0.334901
0.335971
0.337023
0.336113
0.334888
0.541599
0.54333
0.544765
0.543493
0.541584
-0.338029
-0.33733
-0.336307
-0.337072
-0.338043
-4.89651
-4.90389
-4.90822
-4.9042
-4.8965
-11.0139
-11.0362
-11.0508
-11.0372
-11.0139
-0.0167637
-0.0167627
-0.0167622
-0.0167627
-0.0167637
-0.011846
-0.0118467
-0.0118471
-0.0118467
-0.011846
-0.0132872
-0.0132872
-0.0132873
-0.0132872
-0.0132872
-0.014376
-0.0143759
-0.0143759
-0.0143759
-0.014376
-0.0150954
-0.0150954
-0.0150954
-0.0150954
-0.0150954
-0.0157253
-0.0157252
-0.0157252
-0.0157252
-0.0157253
-0.0163743
-0.0163743
-0.0163743
-0.0163743
-0.0163743
-0.0170455
-0.0170455
-0.0170455
-0.0170455
-0.0170455
-0.0177278
-0.0177277
-0.0177277
-0.0177277
-0.0177278
-0.0184172
-0.0184171
-0.0184171
-0.0184171
-0.0184172
-0.0191137
-0.0191136
-0.0191136
-0.0191136
-0.0191137
-0.0198178
-0.0198178
-0.0198178
-0.0198178
-0.0198178
-0.0205298
-0.0205298
-0.0205298
-0.0205298
-0.0205298
-0.0212498
-0.0212498
-0.0212497
-0.0212498
-0.0212498
-0.0219778
-0.0219778
-0.0219778
-0.0219778
-0.0219778
-0.0227139
-0.0227139
-0.0227139
-0.0227139
-0.0227139
-0.0234583
-0.0234583
-0.0234582
-0.0234583
-0.0234583
-0.0242109
-0.0242109
-0.0242109
-0.0242109
-0.0242109
-0.024972
-0.024972
-0.024972
-0.024972
-0.024972
-0.0257415
-0.0257415
-0.0257415
-0.0257415
-0.0257415
-0.0265197
-0.0265196
-0.0265196
-0.0265196
-0.0265197
-0.0273065
-0.0273065
-0.0273065
-0.0273065
-0.0273065
-0.0281021
-0.0281021
-0.0281021
-0.0281021
-0.0281021
-0.0289065
-0.0289065
-0.0289065
-0.0289065
-0.0289065
-0.02972
-0.02972
-0.02972
-0.02972
-0.02972
-0.0305425
-0.0305425
-0.0305425
-0.0305425
-0.0305425
-0.0313742
-0.0313742
-0.0313742
-0.0313742
-0.0313742
-0.0322152
-0.0322152
-0.0322152
-0.0322152
-0.0322152
-0.0330656
-0.0330656
-0.0330656
-0.0330656
-0.0330656
-0.0339255
-0.0339255
-0.0339255
-0.0339255
-0.0339255
-0.0347949
-0.0347949
-0.0347949
-0.0347949
-0.0347949
-0.0356741
-0.0356741
-0.0356741
-0.0356741
-0.0356741
-0.0365631
-0.0365631
-0.036563
-0.0365631
-0.0365631
-0.0374619
-0.0374619
-0.0374619
-0.0374619
-0.0374619
-0.0383709
-0.0383709
-0.0383709
-0.0383709
-0.0383709
-0.0392899
-0.0392899
-0.0392899
-0.0392899
-0.0392899
-0.0402193
-0.0402193
-0.0402192
-0.0402193
-0.0402193
-0.0411589
-0.0411589
-0.0411589
-0.0411589
-0.0411589
-0.0421091
-0.0421091
-0.0421091
-0.0421091
-0.0421091
-0.0430699
-0.0430699
-0.0430699
-0.0430699
-0.0430699
-0.0440414
-0.0440414
-0.0440414
-0.0440414
-0.0440414
-0.0450237
-0.0450237
-0.0450237
-0.0450237
-0.0450237
-0.046017
-0.046017
-0.046017
-0.046017
-0.046017
-0.0470214
-0.0470214
-0.0470214
-0.0470214
-0.0470214
-0.048037
-0.048037
-0.048037
-0.048037
-0.048037
-0.049064
-0.049064
-0.049064
-0.049064
-0.049064
-0.0501023
-0.0501023
-0.0501023
-0.0501023
-0.0501023
-0.0511523
-0.0511523
-0.0511523
-0.0511523
-0.0511523
-0.052214
-0.052214
-0.052214
-0.052214
-0.052214
-0.0532876
-0.0532875
-0.0532875
-0.0532875
-0.0532876
-0.0543731
-0.0543731
-0.0543731
-0.0543731
-0.0543731
-0.0554707
-0.0554707
-0.0554707
-0.0554707
-0.0554707
-0.0565806
-0.0565806
-0.0565806
-0.0565806
-0.0565806
-0.0577028
-0.0577028
-0.0577028
-0.0577028
-0.0577028
-0.0588376
-0.0588376
-0.0588376
-0.0588376
-0.0588376
-0.0599851
-0.0599851
-0.0599851
-0.0599851
-0.0599851
-0.0611453
-0.0611453
-0.0611453
-0.0611453
-0.0611453
-0.0623185
-0.0623185
-0.0623185
-0.0623185
-0.0623185
-0.0635048
-0.0635048
-0.0635048
-0.0635048
-0.0635048
-0.0647044
-0.0647044
-0.0647044
-0.0647044
-0.0647044
-0.0659173
-0.0659173
-0.0659173
-0.0659173
-0.0659173
-0.0671437
-0.0671437
-0.0671437
-0.0671437
-0.0671437
-0.0683839
-0.0683839
-0.0683839
-0.0683839
-0.0683839
-0.0696379
-0.0696379
-0.0696379
-0.0696379
-0.0696379
-0.0709058
-0.0709058
-0.0709058
-0.0709058
-0.0709058
-0.0721879
-0.0721879
-0.0721879
-0.0721879
-0.0721879
-0.0734844
-0.0734844
-0.0734844
-0.0734844
-0.0734844
-0.0747953
-0.0747953
-0.0747953
-0.0747953
-0.0747953
-0.0761208
-0.0761208
-0.0761208
-0.0761208
-0.0761208
-0.0774611
-0.0774611
-0.0774611
-0.0774611
-0.0774611
-0.0788164
-0.0788164
-0.0788164
-0.0788164
-0.0788164
-0.0801868
-0.0801868
-0.0801868
-0.0801868
-0.0801868
-0.0815724
-0.0815724
-0.0815724
-0.0815724
-0.0815724
-0.0829736
-0.0829736
-0.0829736
-0.0829736
-0.0829736
-0.0843904
-0.0843904
-0.0843904
-0.0843904
-0.0843904
-0.085823
-0.085823
-0.085823
-0.085823
-0.085823
-0.0872715
-0.0872715
-0.0872715
-0.0872715
-0.0872715
-0.0887363
-0.0887363
-0.0887363
-0.0887363
-0.0887363
)
;

boundaryField
{
    BotWall
    {
        type            calculated;
        value           nonuniform List<scalar> 5(0.709646 0.710254 0.711065 0.710343 0.709636);
    }
    FreeStream
    {
        type            calculated;
        value           nonuniform List<scalar> 5(-0.0894727 -0.0894727 -0.0894727 -0.0894727 -0.0894727);
    }
    FrontNBack
    {
        type            empty;
    }
    LeftSide
    {
        type            symmetryPlane;
    }
    RightSide
    {
        type            symmetryPlane;
    }
}


// ************************************************************************* //
