/*--------------------------------*- C++ -*----------------------------------*\
| =========                 |                                                 |
| \\      /  F ield         | OpenFOAM: The Open Source CFD Toolbox           |
|  \\    /   O peration     | Version:  2.4.0                                 |
|   \\  /    A nd           | Web:      www.OpenFOAM.org                      |
|    \\/     M anipulation  |                                                 |
\*---------------------------------------------------------------------------*/
FoamFile
{
    version     2.0;
    format      ascii;
    class       volScalarField;
    location    "3.8";
    object      p_rgh;
}
// * * * * * * * * * * * * * * * * * * * * * * * * * * * * * * * * * * * * * //

dimensions      [1 -1 -2 0 0 0 0];

internalField   nonuniform List<scalar> 
500
(
0.709646
0.710254
0.711065
0.710343
0.709636
0.709653
0.710265
0.711077
0.710353
0.709642
0.709645
0.71026
0.711072
0.710348
0.709634
0.709649
0.710268
0.711083
0.710356
0.709638
0.709639
0.710262
0.711079
0.71035
0.709628
0.709643
0.710271
0.71109
0.710359
0.709632
0.709633
0.710265
0.711087
0.710353
0.709622
0.709635
0.710272
0.711097
0.710361
0.709624
0.709612
0.710254
0.711082
0.710343
0.709601
0.709601
0.710249
0.711079
0.710337
0.70959
0.709638
0.710291
0.711125
0.71038
0.709627
0.709923
0.710582
0.71142
0.710671
0.709912
0.710296
0.710962
0.711803
0.711051
0.710285
0.709027
0.709697
0.710541
0.709786
0.709016
0.701929
0.702589
0.70343
0.702677
0.701918
0.692232
0.692876
0.693703
0.692964
0.692221
0.724941
0.725649
0.726497
0.725738
0.72493
0.904282
0.905353
0.906404
0.905495
0.904269
1.14698
1.14871
1.15014
1.14887
1.14696
0.303742
0.304442
0.305464
0.304699
0.303729
-4.21794
-4.22532
-4.22965
-4.22563
-4.21792
-10.5291
-10.5501
-10.5639
-10.5511
-10.529
-0.00428431
-0.00428336
-0.00428285
-0.00428332
-0.00428432
0.00126355
0.00126286
0.00126253
0.00126283
0.00126355
0.00045966
0.000459622
0.000459577
0.000459619
0.00045966
1.51755e-05
1.52551e-05
1.52815e-05
1.52569e-05
1.51753e-05
-5.26655e-05
-5.26335e-05
-5.26152e-05
-5.26323e-05
-5.26657e-05
-2.36947e-05
-2.36884e-05
-2.36805e-05
-2.36879e-05
-2.36948e-05
-6.61186e-06
-6.60565e-06
-6.60028e-06
-6.60536e-06
-6.61197e-06
-4.14711e-06
-4.13739e-06
-4.13178e-06
-4.13709e-06
-4.14722e-06
-5.29901e-06
-5.28841e-06
-5.28251e-06
-5.28808e-06
-5.29912e-06
-5.97237e-06
-5.96218e-06
-5.9563e-06
-5.96184e-06
-5.97247e-06
-6.06324e-06
-6.05349e-06
-6.04774e-06
-6.05316e-06
-6.06335e-06
-6.01187e-06
-6.00236e-06
-5.99675e-06
-6.00204e-06
-6.01197e-06
-5.98003e-06
-5.97071e-06
-5.96522e-06
-5.97039e-06
-5.98013e-06
-5.97135e-06
-5.96221e-06
-5.95684e-06
-5.9619e-06
-5.97145e-06
-5.96823e-06
-5.95928e-06
-5.95402e-06
-5.95897e-06
-5.96832e-06
-5.96424e-06
-5.95549e-06
-5.95035e-06
-5.95519e-06
-5.96433e-06
-5.95928e-06
-5.95072e-06
-5.94569e-06
-5.95042e-06
-5.95936e-06
-5.95404e-06
-5.94567e-06
-5.94075e-06
-5.94537e-06
-5.95412e-06
-5.94878e-06
-5.94059e-06
-5.93579e-06
-5.9403e-06
-5.94885e-06
-5.9435e-06
-5.9355e-06
-5.9308e-06
-5.93521e-06
-5.94357e-06
-5.93817e-06
-5.93035e-06
-5.92576e-06
-5.93007e-06
-5.93823e-06
-5.93278e-06
-5.92514e-06
-5.92066e-06
-5.92487e-06
-5.93284e-06
-5.92733e-06
-5.91987e-06
-5.9155e-06
-5.9196e-06
-5.92739e-06
-5.92182e-06
-5.91454e-06
-5.91027e-06
-5.91427e-06
-5.92188e-06
-5.91625e-06
-5.90915e-06
-5.90498e-06
-5.90888e-06
-5.9163e-06
-5.91062e-06
-5.90369e-06
-5.89963e-06
-5.90343e-06
-5.91067e-06
-5.90493e-06
-5.89817e-06
-5.89421e-06
-5.89792e-06
-5.90498e-06
-5.89918e-06
-5.89259e-06
-5.88873e-06
-5.89234e-06
-5.89923e-06
-5.89337e-06
-5.88694e-06
-5.88318e-06
-5.8867e-06
-5.89341e-06
-5.88749e-06
-5.88123e-06
-5.87757e-06
-5.88099e-06
-5.88753e-06
-5.88155e-06
-5.87545e-06
-5.87189e-06
-5.87522e-06
-5.88159e-06
-5.87554e-06
-5.86961e-06
-5.86614e-06
-5.86938e-06
-5.87558e-06
-5.86947e-06
-5.8637e-06
-5.86033e-06
-5.86347e-06
-5.8695e-06
-5.86334e-06
-5.85772e-06
-5.85444e-06
-5.8575e-06
-5.86337e-06
-5.85713e-06
-5.85167e-06
-5.84849e-06
-5.85145e-06
-5.85716e-06
-5.85086e-06
-5.84555e-06
-5.84246e-06
-5.84534e-06
-5.85089e-06
-5.84453e-06
-5.83936e-06
-5.83637e-06
-5.83916e-06
-5.84455e-06
-5.83812e-06
-5.83311e-06
-5.8302e-06
-5.8329e-06
-5.83814e-06
-5.83164e-06
-5.82678e-06
-5.82396e-06
-5.82658e-06
-5.83166e-06
-5.8251e-06
-5.82038e-06
-5.81764e-06
-5.82018e-06
-5.82511e-06
-5.81848e-06
-5.8139e-06
-5.81125e-06
-5.81371e-06
-5.81849e-06
-5.81179e-06
-5.80735e-06
-5.80479e-06
-5.80717e-06
-5.8118e-06
-5.80503e-06
-5.80073e-06
-5.79825e-06
-5.80055e-06
-5.80504e-06
-5.79819e-06
-5.79403e-06
-5.79164e-06
-5.79386e-06
-5.7982e-06
-5.79128e-06
-5.78726e-06
-5.78495e-06
-5.78709e-06
-5.79129e-06
-5.7843e-06
-5.78041e-06
-5.77818e-06
-5.78024e-06
-5.7843e-06
-5.77724e-06
-5.77348e-06
-5.77133e-06
-5.77332e-06
-5.77724e-06
-5.7701e-06
-5.76648e-06
-5.7644e-06
-5.76632e-06
-5.7701e-06
-5.76289e-06
-5.75939e-06
-5.7574e-06
-5.75924e-06
-5.76288e-06
-5.75559e-06
-5.75223e-06
-5.75031e-06
-5.75208e-06
-5.75559e-06
-5.74822e-06
-5.74498e-06
-5.74314e-06
-5.74484e-06
-5.74821e-06
-5.74077e-06
-5.73765e-06
-5.73589e-06
-5.73752e-06
-5.74076e-06
-5.73323e-06
-5.73024e-06
-5.72855e-06
-5.73011e-06
-5.73322e-06
-5.72562e-06
-5.72275e-06
-5.72113e-06
-5.72262e-06
-5.72561e-06
-5.71792e-06
-5.71517e-06
-5.71363e-06
-5.71505e-06
-5.71791e-06
-5.71013e-06
-5.70751e-06
-5.70603e-06
-5.70739e-06
-5.71012e-06
-5.70227e-06
-5.69976e-06
-5.69836e-06
-5.69965e-06
-5.70225e-06
-5.69431e-06
-5.69193e-06
-5.69059e-06
-5.69182e-06
-5.6943e-06
-5.68627e-06
-5.684e-06
-5.68274e-06
-5.6839e-06
-5.68626e-06
-5.67814e-06
-5.67599e-06
-5.6748e-06
-5.67589e-06
-5.67813e-06
-5.66993e-06
-5.66789e-06
-5.66676e-06
-5.6678e-06
-5.66991e-06
-5.66162e-06
-5.6597e-06
-5.65864e-06
-5.65961e-06
-5.6616e-06
-5.65322e-06
-5.65142e-06
-5.65042e-06
-5.65133e-06
-5.65321e-06
-5.64473e-06
-5.64304e-06
-5.64211e-06
-5.64296e-06
-5.64472e-06
-5.63615e-06
-5.63457e-06
-5.63371e-06
-5.6345e-06
-5.63613e-06
-5.62748e-06
-5.62601e-06
-5.62521e-06
-5.62594e-06
-5.62746e-06
-5.6187e-06
-5.61735e-06
-5.61662e-06
-5.61728e-06
-5.61869e-06
-5.60984e-06
-5.6086e-06
-5.60793e-06
-5.60853e-06
-5.60982e-06
-5.60087e-06
-5.59975e-06
-5.59914e-06
-5.59969e-06
-5.60085e-06
-5.59181e-06
-5.59079e-06
-5.59026e-06
-5.59074e-06
-5.59179e-06
-5.58265e-06
-5.58174e-06
-5.58127e-06
-5.58169e-06
-5.58263e-06
-5.57338e-06
-5.57259e-06
-5.57219e-06
-5.57255e-06
-5.57336e-06
-5.56402e-06
-5.56334e-06
-5.563e-06
-5.5633e-06
-5.564e-06
-5.55455e-06
-5.55399e-06
-5.55371e-06
-5.55395e-06
-5.55453e-06
-5.54497e-06
-5.54453e-06
-5.54432e-06
-5.5445e-06
-5.54495e-06
-5.53527e-06
-5.53498e-06
-5.53485e-06
-5.53495e-06
-5.53525e-06
-5.52549e-06
-5.5253e-06
-5.52524e-06
-5.52528e-06
-5.52547e-06
-5.5158e-06
-5.51546e-06
-5.51528e-06
-5.51544e-06
-5.51579e-06
)
;

boundaryField
{
    BotWall
    {
        type            fixedFluxPressure;
        gradient        uniform 0;
        value           nonuniform List<scalar> 5(0.709646 0.710254 0.711065 0.710343 0.709636);
    }
    FreeStream
    {
        type            totalPressure;
        rho             rho;
        psi             none;
        gamma           1;
        p0              uniform 0;
        value           nonuniform List<scalar> 5(-5.51107e-06 -5.51046e-06 -5.51009e-06 -5.51043e-06 -5.51106e-06);
    }
    FrontNBack
    {
        type            empty;
    }
    LeftSide
    {
        type            symmetryPlane;
    }
    RightSide
    {
        type            symmetryPlane;
    }
}


// ************************************************************************* //
