/*--------------------------------*- C++ -*----------------------------------*\
| =========                 |                                                 |
| \\      /  F ield         | OpenFOAM: The Open Source CFD Toolbox           |
|  \\    /   O peration     | Version:  2.4.0                                 |
|   \\  /    A nd           | Web:      www.OpenFOAM.org                      |
|    \\/     M anipulation  |                                                 |
\*---------------------------------------------------------------------------*/
FoamFile
{
    version     2.0;
    format      ascii;
    class       surfaceScalarField;
    location    "3.8";
    object      phi;
}
// * * * * * * * * * * * * * * * * * * * * * * * * * * * * * * * * * * * * * //

dimensions      [0 3 -1 0 0 0 0];

internalField   nonuniform List<scalar> 
895
(
9.32722e-18
-9.32687e-18
5.15715e-18
4.17065e-18
-5.08479e-18
1.02429e-17
-9.18201e-18
4.09795e-18
-9.18142e-18
2.91743e-17
-3.84958e-17
1.65252e-17
1.68289e-17
-1.62141e-17
4.2995e-17
-2.88187e-17
1.67127e-17
-3.79927e-17
5.04546e-17
-8.8944e-17
2.89253e-17
3.83684e-17
-2.82973e-17
1.00232e-16
-4.99379e-17
3.83642e-17
-8.7923e-17
7.32169e-17
-1.62154e-16
4.23048e-17
6.92916e-17
-4.12894e-17
1.83841e-16
-7.25756e-17
6.96619e-17
-1.60491e-16
9.75519e-17
-2.59698e-16
5.67274e-17
1.10128e-16
-5.5248e-17
2.95832e-16
-9.68241e-17
1.1125e-16
-2.57307e-16
1.23536e-16
-3.83226e-16
7.22441e-17
1.61432e-16
-7.02198e-17
4.38311e-16
-1.22762e-16
1.63803e-16
-3.80061e-16
1.51277e-16
-5.34495e-16
8.89247e-17
2.23796e-16
-8.62694e-17
6.13521e-16
-1.505e-16
2.28046e-16
-5.30553e-16
1.80854e-16
-7.15341e-16
1.06826e-16
2.97836e-16
-1.03448e-16
8.23811e-16
-1.80121e-16
3.04731e-16
-7.10666e-16
2.12391e-16
-9.27724e-16
1.26026e-16
3.84213e-16
-1.21828e-16
1.07168e-15
-2.11753e-16
3.94667e-16
-9.22411e-16
2.45974e-16
-1.17369e-15
1.46586e-16
4.83613e-16
-1.41467e-16
1.35975e-15
-2.45485e-16
4.98697e-16
-1.16789e-15
2.81743e-16
-1.45543e-15
1.68597e-16
5.96771e-16
-1.62446e-16
1.69081e-15
-2.81461e-16
6.17724e-16
-1.44934e-15
3.19795e-16
-1.77521e-15
1.92125e-16
7.24451e-16
-1.84828e-16
2.06777e-15
-3.19783e-16
7.52689e-16
-1.76912e-15
3.60285e-16
-2.13549e-15
2.17272e-16
8.67475e-16
-2.08706e-16
2.49376e-15
-3.60609e-16
9.04603e-16
-2.12972e-15
4.03327e-16
-2.53881e-15
2.44115e-16
1.0267e-15
-2.34149e-16
2.97204e-15
-4.0406e-16
1.07452e-15
-2.53378e-15
4.49095e-16
-2.9879e-15
2.72764e-16
1.20304e-15
-2.61262e-16
3.50608e-15
-4.50314e-16
1.26358e-15
-2.98409e-15
4.97697e-16
-3.48559e-15
3.03306e-16
1.39744e-15
-2.90121e-16
4.09952e-15
-4.99485e-16
1.47295e-15
-3.48357e-15
5.49262e-16
-4.03485e-15
3.35832e-16
1.61087e-15
-3.20814e-16
4.75617e-15
-5.51704e-16
1.70385e-15
-4.03527e-15
6.03863e-16
-4.63871e-15
3.70466e-16
1.84428e-15
-3.53529e-16
5.48017e-15
-6.06986e-16
1.95731e-15
-4.64225e-15
6.61978e-16
-5.30068e-15
4.07723e-16
2.09854e-15
-3.87999e-16
6.2759e-15
-6.65758e-16
2.23508e-15
-5.30801e-15
7.25253e-16
-6.02593e-15
4.46444e-16
2.37735e-15
-4.24357e-16
7.1467e-15
-7.30331e-16
2.54105e-15
-6.03834e-15
7.97482e-16
-7.62799e-15
4.9346e-16
2.68137e-15
-4.68887e-16
8.10904e-15
-8.04163e-16
2.87633e-15
-7.64937e-15
8.82337e-16
-2.19855e-10
5.48903e-16
-2.19863e-10
-5.20934e-16
-2.19868e-10
-8.91921e-16
-2.19863e-10
-2.19855e-10
8.85073e-16
-2.19856e-10
5.49609e-16
-2.19863e-10
-5.22244e-16
-2.19867e-10
-8.93048e-16
-2.19863e-10
-2.19856e-10
8.83461e-16
-2.19857e-10
5.46329e-16
-2.19862e-10
-5.18538e-16
-2.19866e-10
-8.91788e-16
-2.19863e-10
-2.19857e-10
8.45202e-16
-2.19858e-10
5.26499e-16
-2.19862e-10
-4.99567e-16
-2.19865e-10
-8.52506e-16
-2.19862e-10
-2.19858e-10
8.14168e-16
-2.19859e-10
5.07815e-16
-2.19862e-10
-4.81518e-16
-2.19864e-10
-8.20797e-16
-2.19862e-10
-2.19859e-10
7.86852e-16
-2.19859e-10
4.90651e-16
-2.19861e-10
-4.64866e-16
-2.19863e-10
-7.92974e-16
-2.19862e-10
-2.19859e-10
7.59918e-16
-2.1986e-10
4.74128e-16
-2.19861e-10
-4.48833e-16
-2.19862e-10
-7.65558e-16
-2.19861e-10
-2.1986e-10
7.3278e-16
-2.19861e-10
4.57711e-16
-2.19861e-10
-4.32914e-16
-2.19861e-10
-7.37936e-16
-2.19861e-10
-2.19861e-10
7.05789e-16
-2.19862e-10
4.41354e-16
-2.19861e-10
-4.17059e-16
-2.1986e-10
-7.10467e-16
-2.19861e-10
-2.19862e-10
6.79131e-16
-2.19862e-10
4.25127e-16
-2.1986e-10
-4.01332e-16
-2.1986e-10
-6.8334e-16
-2.1986e-10
-2.19862e-10
6.52817e-16
-2.19863e-10
4.09071e-16
-2.1986e-10
-3.85773e-16
-2.19859e-10
-6.5657e-16
-2.1986e-10
-2.19863e-10
6.26834e-16
-2.19864e-10
3.93198e-16
-2.1986e-10
-3.70395e-16
-2.19858e-10
-6.30143e-16
-2.1986e-10
-2.19864e-10
6.01185e-16
-2.19864e-10
3.77512e-16
-2.1986e-10
-3.55202e-16
-2.19857e-10
-6.04062e-16
-2.1986e-10
-2.19864e-10
5.75883e-16
-2.19865e-10
3.62019e-16
-2.19859e-10
-3.402e-16
-2.19857e-10
-5.78341e-16
-2.19859e-10
-2.19865e-10
5.50943e-16
-2.19865e-10
3.46728e-16
-2.19859e-10
-3.25395e-16
-2.19856e-10
-5.52992e-16
-2.19859e-10
-2.19865e-10
5.26375e-16
-2.19866e-10
3.31645e-16
-2.19859e-10
-3.10797e-16
-2.19855e-10
-5.28028e-16
-2.19859e-10
-2.19866e-10
5.0219e-16
-2.19866e-10
3.16779e-16
-2.19859e-10
-2.96412e-16
-2.19855e-10
-5.0346e-16
-2.19859e-10
-2.19866e-10
4.78401e-16
-2.19867e-10
3.02136e-16
-2.19859e-10
-2.82247e-16
-2.19854e-10
-4.79299e-16
-2.19859e-10
-2.19867e-10
4.55016e-16
-2.19867e-10
2.87725e-16
-2.19858e-10
-2.68311e-16
-2.19853e-10
-4.55555e-16
-2.19858e-10
-2.19867e-10
4.32046e-16
-2.19868e-10
2.73551e-16
-2.19858e-10
-2.54608e-16
-2.19853e-10
-4.32239e-16
-2.19858e-10
-2.19868e-10
4.09502e-16
-2.19868e-10
2.59622e-16
-2.19858e-10
-2.41146e-16
-2.19852e-10
-4.0936e-16
-2.19858e-10
-2.19868e-10
3.87391e-16
-2.19868e-10
2.45944e-16
-2.19858e-10
-2.27932e-16
-2.19852e-10
-3.86927e-16
-2.19858e-10
-2.19869e-10
3.65725e-16
-2.19869e-10
2.32524e-16
-2.19858e-10
-2.14971e-16
-2.19851e-10
-3.64951e-16
-2.19858e-10
-2.19869e-10
3.4451e-16
-2.19869e-10
2.19368e-16
-2.19858e-10
-2.0227e-16
-2.19851e-10
-3.43439e-16
-2.19858e-10
-2.19869e-10
3.23756e-16
-2.1987e-10
2.06481e-16
-2.19858e-10
-1.89834e-16
-2.19851e-10
-3.224e-16
-2.19857e-10
-2.1987e-10
3.0347e-16
-2.1987e-10
1.9387e-16
-2.19858e-10
-1.77669e-16
-2.1985e-10
-3.01841e-16
-2.19857e-10
-2.1987e-10
2.8366e-16
-2.1987e-10
1.81539e-16
-2.19857e-10
-1.65779e-16
-2.1985e-10
-2.81771e-16
-2.19857e-10
-2.1987e-10
2.64333e-16
-2.1987e-10
1.69495e-16
-2.19857e-10
-1.54171e-16
-2.1985e-10
-2.62196e-16
-2.19857e-10
-2.1987e-10
2.45495e-16
-2.19871e-10
1.5774e-16
-2.19857e-10
-1.42848e-16
-2.19849e-10
-2.43122e-16
-2.19857e-10
-2.19871e-10
2.27153e-16
-2.19871e-10
1.46281e-16
-2.19857e-10
-1.31814e-16
-2.19849e-10
-2.24556e-16
-2.19857e-10
-2.19871e-10
2.09312e-16
-2.19871e-10
1.35121e-16
-2.19857e-10
-1.21075e-16
-2.19849e-10
-2.06503e-16
-2.19857e-10
-2.19871e-10
1.91977e-16
-2.19871e-10
1.24265e-16
-2.19857e-10
-1.10634e-16
-2.19849e-10
-1.88968e-16
-2.19857e-10
-2.19871e-10
1.75153e-16
-2.19871e-10
1.13716e-16
-2.19857e-10
-1.00494e-16
-2.19848e-10
-1.71956e-16
-2.19857e-10
-2.19871e-10
1.58844e-16
-2.19872e-10
1.03477e-16
-2.19857e-10
-9.06582e-17
-2.19848e-10
-1.5547e-16
-2.19857e-10
-2.19872e-10
1.43053e-16
-2.19872e-10
9.35515e-17
-2.19857e-10
-8.11299e-17
-2.19848e-10
-1.39514e-16
-2.19857e-10
-2.19872e-10
1.27784e-16
-2.19872e-10
8.3942e-17
-2.19857e-10
-7.19112e-17
-2.19848e-10
-1.24091e-16
-2.19857e-10
-2.19872e-10
1.1304e-16
-2.19872e-10
7.46508e-17
-2.19857e-10
-6.30044e-17
-2.19848e-10
-1.09203e-16
-2.19856e-10
-2.19872e-10
9.8821e-17
-2.19872e-10
6.56799e-17
-2.19857e-10
-5.44113e-17
-2.19848e-10
-9.48525e-17
-2.19856e-10
-2.19872e-10
8.51297e-17
-2.19872e-10
5.70309e-17
-2.19857e-10
-4.61332e-17
-2.19847e-10
-8.104e-17
-2.19856e-10
-2.19872e-10
7.19668e-17
-2.19872e-10
4.8705e-17
-2.19857e-10
-3.81712e-17
-2.19847e-10
-6.77662e-17
-2.19856e-10
-2.19872e-10
5.93323e-17
-2.19872e-10
4.0703e-17
-2.19857e-10
-3.0526e-17
-2.19847e-10
-5.50311e-17
-2.19856e-10
-2.19872e-10
4.72258e-17
-2.19872e-10
3.30254e-17
-2.19857e-10
-2.31979e-17
-2.19847e-10
-4.28342e-17
-2.19856e-10
-2.19872e-10
3.56463e-17
-2.19872e-10
2.56722e-17
-2.19857e-10
-1.61866e-17
-2.19847e-10
-3.11741e-17
-2.19856e-10
-2.19872e-10
2.45923e-17
-2.19872e-10
1.86431e-17
-2.19857e-10
-9.49163e-18
-2.19847e-10
-2.00488e-17
-2.19856e-10
-2.19872e-10
1.40613e-17
-2.19872e-10
1.19373e-17
-2.19857e-10
-3.11204e-18
-2.19847e-10
-9.45593e-18
-2.19856e-10
-2.19872e-10
4.05033e-18
-2.19872e-10
5.55346e-18
-2.19857e-10
2.95359e-18
-2.19847e-10
6.07922e-19
-2.19856e-10
-2.19872e-10
-5.44416e-18
-2.19872e-10
-5.09945e-19
-2.19857e-10
8.70711e-18
-2.19847e-10
1.01467e-17
-2.19856e-10
-2.19872e-10
-1.44266e-17
-2.19872e-10
-6.25509e-18
-2.19857e-10
1.41508e-17
-2.19847e-10
1.9165e-17
-2.19856e-10
-2.19872e-10
-2.2902e-17
-2.19872e-10
-1.16845e-17
-2.19857e-10
1.92875e-17
-2.19847e-10
2.76682e-17
-2.19856e-10
-2.19872e-10
-3.08761e-17
-2.19872e-10
-1.68014e-17
-2.19857e-10
2.41204e-17
-2.19847e-10
3.56625e-17
-2.19856e-10
-2.19872e-10
-3.83556e-17
-2.19872e-10
-2.16092e-17
-2.19857e-10
2.86533e-17
-2.19847e-10
4.31549e-17
-2.19856e-10
-2.19872e-10
-4.53477e-17
-2.19872e-10
-2.6112e-17
-2.19857e-10
3.28904e-17
-2.19847e-10
5.01529e-17
-2.19856e-10
-2.19872e-10
-5.18607e-17
-2.19872e-10
-3.03144e-17
-2.19857e-10
3.68366e-17
-2.19847e-10
5.66651e-17
-2.19856e-10
-2.19872e-10
-5.79034e-17
-2.19872e-10
-3.42216e-17
-2.19857e-10
4.04971e-17
-2.19848e-10
6.27008e-17
-2.19856e-10
-2.19872e-10
-6.34858e-17
-2.19872e-10
-3.78393e-17
-2.19857e-10
4.38778e-17
-2.19848e-10
6.82705e-17
-2.19856e-10
-2.19872e-10
-6.86185e-17
-2.19872e-10
-4.11738e-17
-2.19857e-10
4.69853e-17
-2.19848e-10
7.33851e-17
-2.19856e-10
-2.19872e-10
-7.33133e-17
-2.19872e-10
-4.4232e-17
-2.19857e-10
4.98266e-17
-2.19848e-10
7.80568e-17
-2.19856e-10
-2.19872e-10
-7.75829e-17
-2.19872e-10
-4.70215e-17
-2.19857e-10
5.24095e-17
-2.19848e-10
8.22988e-17
-2.19856e-10
-2.19872e-10
-8.14408e-17
-2.19872e-10
-4.95505e-17
-2.19857e-10
5.47423e-17
-2.19848e-10
8.61252e-17
-2.19857e-10
-2.19872e-10
-8.49021e-17
-2.19872e-10
-5.18279e-17
-2.19857e-10
5.68343e-17
-2.19848e-10
8.95513e-17
-2.19857e-10
-2.19872e-10
-8.79824e-17
-2.19872e-10
-5.38634e-17
-2.19857e-10
5.86951e-17
-2.19848e-10
9.25936e-17
-2.19857e-10
-2.19871e-10
-9.06991e-17
-2.19872e-10
-5.56675e-17
-2.19857e-10
6.03355e-17
-2.19848e-10
9.52697e-17
-2.19857e-10
-2.19871e-10
-9.30705e-17
-2.19871e-10
-5.72515e-17
-2.19857e-10
6.17669e-17
-2.19848e-10
9.75986e-17
-2.19857e-10
-2.19871e-10
-9.51165e-17
-2.19871e-10
-5.86275e-17
-2.19857e-10
6.30015e-17
-2.19849e-10
9.96008e-17
-2.19857e-10
-2.19871e-10
-9.68584e-17
-2.19871e-10
-5.98087e-17
-2.19857e-10
6.40526e-17
-2.19849e-10
1.01298e-16
-2.19857e-10
-2.19871e-10
-9.83189e-17
-2.19871e-10
-6.08091e-17
-2.19857e-10
6.49345e-17
-2.19849e-10
1.02714e-16
-2.19857e-10
-2.19871e-10
-9.95227e-17
-2.19871e-10
-6.1644e-17
-2.19857e-10
6.56624e-17
-2.19849e-10
1.03873e-16
-2.19857e-10
-2.19871e-10
-1.00496e-16
-2.19871e-10
-6.23296e-17
-2.19857e-10
6.62527e-17
-2.19849e-10
1.04804e-16
-2.19857e-10
-2.19871e-10
-1.01267e-16
-2.19871e-10
-6.28836e-17
-2.19857e-10
6.67231e-17
-2.19849e-10
1.05534e-16
-2.19857e-10
-2.19871e-10
-1.01867e-16
-2.19871e-10
-6.33249e-17
-2.19857e-10
6.70926e-17
-2.19849e-10
1.06096e-16
-2.19857e-10
-2.19871e-10
-1.02328e-16
-2.19871e-10
-6.36738e-17
-2.19857e-10
6.73815e-17
-2.19849e-10
1.06522e-16
-2.19857e-10
-2.1987e-10
-1.02685e-16
-2.19871e-10
-6.39524e-17
-2.19857e-10
6.76119e-17
-2.1985e-10
1.06849e-16
-2.19857e-10
-2.1987e-10
-1.02977e-16
-2.1987e-10
-6.41844e-17
-2.19857e-10
6.78075e-17
-2.1985e-10
1.07116e-16
-2.19857e-10
-2.1987e-10
-1.03245e-16
-2.1987e-10
-6.43953e-17
-2.19857e-10
6.79937e-17
-2.1985e-10
1.07366e-16
-2.19857e-10
-2.1987e-10
-1.03533e-16
-2.1987e-10
-6.46123e-17
-2.19858e-10
6.81976e-17
-2.1985e-10
1.07643e-16
-2.19857e-10
-2.1987e-10
-1.03888e-16
-2.1987e-10
-6.48646e-17
-2.19858e-10
6.84484e-17
-2.1985e-10
1.07995e-16
-2.19857e-10
-2.1987e-10
-1.04363e-16
-2.1987e-10
-6.51855e-17
-2.19858e-10
6.8779e-17
-2.1985e-10
1.08478e-16
-2.19857e-10
-2.1987e-10
-1.0503e-16
-2.1987e-10
-6.56201e-17
-2.19858e-10
6.92344e-17
-2.1985e-10
1.09164e-16
-2.19857e-10
-2.1987e-10
-1.06025e-16
-6.62435e-17
6.98865e-17
1.10195e-16
)
;

boundaryField
{
    BotWall
    {
        type            calculated;
        value           nonuniform List<scalar> 5(-2.6552e-22 -4.98608e-22 -7.70798e-22 -6.14921e-22 -4.91946e-22);
    }
    FreeStream
    {
        type            calculated;
        value           nonuniform List<scalar> 5(-2.1987e-10 -2.19858e-10 -2.19851e-10 -2.19857e-10 -2.1987e-10);
    }
    FrontNBack
    {
        type            empty;
        value           nonuniform 0();
    }
    LeftSide
    {
        type            symmetryPlane;
        value           uniform 0;
    }
    RightSide
    {
        type            symmetryPlane;
        value           uniform 0;
    }
}


// ************************************************************************* //
