/*--------------------------------*- C++ -*----------------------------------*\
| =========                 |                                                 |
| \\      /  F ield         | OpenFOAM: The Open Source CFD Toolbox           |
|  \\    /   O peration     | Version:  2.4.0                                 |
|   \\  /    A nd           | Web:      www.OpenFOAM.org                      |
|    \\/     M anipulation  |                                                 |
\*---------------------------------------------------------------------------*/
FoamFile
{
    version     2.0;
    format      ascii;
    class       volVectorField;
    location    "3.8";
    object      U;
}
// * * * * * * * * * * * * * * * * * * * * * * * * * * * * * * * * * * * * * //

dimensions      [0 1 -1 0 0 0 0];

internalField   nonuniform List<vector> 
500
(
(2.94044e-09 -1.5265e-10 0)
(3.8921e-09 -1.43989e-10 0)
(1.16424e-11 -1.39562e-10 0)
(-3.84702e-09 -1.44193e-10 0)
(-2.9035e-09 -1.52449e-10 0)
(9.00747e-09 2.75303e-10 0)
(1.20762e-08 4.25295e-10 0)
(5.73658e-11 4.89629e-10 0)
(-1.19429e-08 4.2466e-10 0)
(-8.92094e-09 2.7676e-10 0)
(1.53042e-08 -9.33464e-10 0)
(2.07207e-08 -5.30556e-10 0)
(1.26132e-10 -3.29892e-10 0)
(-2.0501e-08 -5.31077e-10 0)
(-1.51929e-08 -9.29846e-10 0)
(2.18381e-08 2.86605e-10 0)
(2.984e-08 1.16488e-09 0)
(2.18472e-10 1.58391e-09 0)
(-2.95362e-08 1.16535e-09 0)
(-2.17278e-08 2.93199e-10 0)
(2.86231e-08 -2.18395e-09 0)
(3.94557e-08 -7.51541e-10 0)
(3.35438e-10 -2.36001e-11 0)
(-3.90697e-08 -7.48278e-10 0)
(-2.85403e-08 -2.1739e-09 0)
(3.56658e-08 -1.31156e-10 0)
(4.95825e-08 2.14523e-09 0)
(4.77855e-10 3.27634e-09 0)
(-4.91163e-08 2.15319e-09 0)
(-3.56378e-08 -1.17268e-10 0)
(4.29832e-08 -3.97652e-09 0)
(6.02455e-08 -8.07463e-10 0)
(6.46594e-10 8.33196e-10 0)
(-5.97012e-08 -7.91645e-10 0)
(-4.30383e-08 -3.95873e-09 0)
(5.05812e-08 -9.92124e-10 0)
(7.14593e-08 3.43499e-09 0)
(8.42641e-10 5.69494e-09 0)
(-7.08392e-08 3.46171e-09 0)
(-5.07488e-08 -9.70467e-10 0)
(5.84793e-08 -6.55493e-09 0)
(8.32525e-08 -8.49107e-10 0)
(1.06694e-09 2.15443e-09 0)
(-8.25589e-08 -8.06779e-10 0)
(-5.879e-08 -6.52982e-09 0)
(6.66835e-08 -3.0612e-09 0)
(9.56403e-08 4.3671e-09 0)
(1.32055e-09 8.24112e-09 0)
(-9.48758e-08 4.42934e-09 0)
(-6.71692e-08 -3.03316e-09 0)
(7.52155e-08 -1.07187e-08 0)
(1.08655e-07 -1.57497e-09 0)
(1.60449e-09 3.3166e-09 0)
(-1.07822e-07 -1.48638e-09 0)
(-7.59093e-08 -1.06887e-08 0)
(8.40821e-08 -2.13672e-09 0)
(1.22312e-07 9.25317e-09 0)
(1.91995e-09 1.53199e-08 0)
(-1.21414e-07 9.37418e-09 0)
(-8.50184e-08 -2.10592e-09 0)
(9.33073e-08 2.11686e-09 0)
(1.36648e-07 1.57554e-08 0)
(2.26802e-09 2.31678e-08 0)
(-1.35687e-07 1.59182e-08 0)
(-9.45218e-08 2.14681e-09 0)
(1.02899e-07 1.96491e-08 0)
(1.51681e-07 3.61526e-08 0)
(2.65006e-09 4.50762e-08 0)
(-1.50661e-07 3.63655e-08 0)
(-1.04429e-07 1.96764e-08 0)
(1.12883e-07 -7.99922e-08 0)
(1.67448e-07 -6.08937e-08 0)
(3.06727e-09 -5.03438e-08 0)
(-1.66373e-07 -6.06263e-08 0)
(-1.14768e-07 -7.99693e-08 0)
(1.23265e-07 -4.26895e-07 0)
(1.83967e-07 -4.05086e-07 0)
(3.521e-09 -3.93066e-07 0)
(-1.8284e-07 -4.0478e-07 0)
(-1.25545e-07 -4.26877e-07 0)
(1.34067e-07 -7.16079e-07 0)
(2.01268e-07 -6.91611e-07 0)
(4.01226e-09 -6.7818e-07 0)
(-2.00093e-07 -6.91273e-07 0)
(-1.36784e-07 -7.16067e-07 0)
(1.45306e-07 1.6045e-06 0)
(2.19382e-07 1.63742e-06 0)
(4.54277e-09 1.65491e-06 0)
(-2.18163e-07 1.63797e-06 0)
(-1.48505e-07 1.60449e-06 0)
(1.57088e-07 1.09375e-05 0)
(2.38468e-07 1.09929e-05 0)
(5.21527e-09 1.10237e-05 0)
(-2.37096e-07 1.09943e-05 0)
(-1.60801e-07 1.09374e-05 0)
(1.6955e-07 1.74833e-05 0)
(2.5861e-07 1.75707e-05 0)
(5.83618e-09 1.76247e-05 0)
(-2.57254e-07 1.75736e-05 0)
(-1.73896e-07 1.74831e-05 0)
(1.82867e-07 -4.04037e-05 0)
(2.80527e-07 -4.04264e-05 0)
(6.45029e-09 -4.04323e-05 0)
(-2.79217e-07 -4.04277e-05 0)
(-1.87871e-07 -4.04036e-05 0)
(1.96438e-07 -0.000307746 0)
(3.0294e-07 -0.000308012 0)
(7.08224e-09 -0.000308173 0)
(-3.01681e-07 -0.000308024 0)
(-2.02126e-07 -0.000307745 0)
(1.98746e-07 -0.000808043 0)
(3.0665e-07 -0.000807938 0)
(7.18836e-09 -0.000807886 0)
(-3.054e-07 -0.000807934 0)
(-2.04549e-07 -0.000808043 0)
(1.94346e-07 -0.00186736 0)
(3.00341e-07 -0.00186718 0)
(7.1046e-09 -0.00186707 0)
(-2.99062e-07 -0.00186717 0)
(-2.0002e-07 -0.00186736 0)
(1.85088e-07 -0.00114008 0)
(2.86816e-07 -0.00114016 0)
(6.8449e-09 -0.0011402 0)
(-2.85494e-07 -0.00114017 0)
(-1.90445e-07 -0.00114008 0)
(1.76362e-07 -0.00105972 0)
(2.7388e-07 -0.00105976 0)
(6.58953e-09 -0.00105979 0)
(-2.72518e-07 -0.00105977 0)
(-1.8141e-07 -0.00105972 0)
(1.68246e-07 -0.00107651 0)
(2.61752e-07 -0.00107652 0)
(6.34883e-09 -0.00107653 0)
(-2.60353e-07 -0.00107652 0)
(-1.73006e-07 -0.00107651 0)
(1.60447e-07 -0.00109696 0)
(2.5008e-07 -0.00109696 0)
(6.11831e-09 -0.00109697 0)
(-2.48648e-07 -0.00109696 0)
(-1.64934e-07 -0.00109696 0)
(1.52834e-07 -0.0011011 0)
(2.38676e-07 -0.0011011 0)
(5.89367e-09 -0.00110111 0)
(-2.37213e-07 -0.0011011 0)
(-1.57057e-07 -0.0011011 0)
(1.45418e-07 -0.00110022 0)
(2.27543e-07 -0.00110021 0)
(5.67417e-09 -0.00110021 0)
(-2.26052e-07 -0.00110022 0)
(-1.49386e-07 -0.00110022 0)
(1.3822e-07 -0.00109941 0)
(2.16706e-07 -0.0010994 0)
(5.46e-09 -0.0010994 0)
(-2.15189e-07 -0.0010994 0)
(-1.41942e-07 -0.00109941 0)
(1.31241e-07 -0.00109924 0)
(2.06168e-07 -0.00109923 0)
(5.25127e-09 -0.00109922 0)
(-2.04628e-07 -0.00109923 0)
(-1.34727e-07 -0.00109924 0)
(1.24478e-07 -0.00109928 0)
(1.95928e-07 -0.00109926 0)
(5.04796e-09 -0.00109925 0)
(-1.94367e-07 -0.00109926 0)
(-1.27737e-07 -0.00109928 0)
(1.17927e-07 -0.00109932 0)
(1.85981e-07 -0.00109929 0)
(4.84999e-09 -0.00109928 0)
(-1.84401e-07 -0.0010993 0)
(-1.20967e-07 -0.00109932 0)
(1.11584e-07 -0.00109933 0)
(1.76324e-07 -0.0010993 0)
(4.65731e-09 -0.00109929 0)
(-1.74729e-07 -0.0010993 0)
(-1.14414e-07 -0.00109933 0)
(1.05448e-07 -0.00109933 0)
(1.66956e-07 -0.0010993 0)
(4.46985e-09 -0.00109928 0)
(-1.65347e-07 -0.0010993 0)
(-1.08076e-07 -0.00109933 0)
(9.95148e-08 -0.00109933 0)
(1.57874e-07 -0.0010993 0)
(4.28755e-09 -0.00109928 0)
(-1.56253e-07 -0.0010993 0)
(-1.0195e-07 -0.00109933 0)
(9.37822e-08 -0.00109933 0)
(1.49074e-07 -0.00109929 0)
(4.11034e-09 -0.00109927 0)
(-1.47445e-07 -0.00109929 0)
(-9.60318e-08 -0.00109933 0)
(8.82473e-08 -0.00109933 0)
(1.40555e-07 -0.00109929 0)
(3.93817e-09 -0.00109927 0)
(-1.38919e-07 -0.00109929 0)
(-9.03197e-08 -0.00109933 0)
(8.29071e-08 -0.00109934 0)
(1.32314e-07 -0.00109929 0)
(3.77095e-09 -0.00109927 0)
(-1.30672e-07 -0.00109929 0)
(-8.481e-08 -0.00109934 0)
(7.77586e-08 -0.00109934 0)
(1.24347e-07 -0.00109929 0)
(3.60864e-09 -0.00109927 0)
(-1.22702e-07 -0.00109929 0)
(-7.94995e-08 -0.00109934 0)
(7.27987e-08 -0.00109934 0)
(1.16651e-07 -0.00109929 0)
(3.45116e-09 -0.00109926 0)
(-1.15005e-07 -0.00109929 0)
(-7.4385e-08 -0.00109934 0)
(6.80242e-08 -0.00109934 0)
(1.09223e-07 -0.00109929 0)
(3.29844e-09 -0.00109926 0)
(-1.07577e-07 -0.00109929 0)
(-6.94633e-08 -0.00109934 0)
(6.34321e-08 -0.00109934 0)
(1.02059e-07 -0.00109929 0)
(3.15042e-09 -0.00109926 0)
(-1.00417e-07 -0.00109929 0)
(-6.47308e-08 -0.00109934 0)
(5.90191e-08 -0.00109935 0)
(9.51567e-08 -0.00109929 0)
(3.00702e-09 -0.00109926 0)
(-9.35184e-08 -0.00109929 0)
(-6.01844e-08 -0.00109935 0)
(5.4782e-08 -0.00109935 0)
(8.85116e-08 -0.00109929 0)
(2.86818e-09 -0.00109925 0)
(-8.68793e-08 -0.00109929 0)
(-5.58204e-08 -0.00109935 0)
(5.07175e-08 -0.00109935 0)
(8.21202e-08 -0.00109929 0)
(2.73382e-09 -0.00109925 0)
(-8.04956e-08 -0.00109929 0)
(-5.16356e-08 -0.00109935 0)
(4.68223e-08 -0.00109935 0)
(7.59787e-08 -0.00109929 0)
(2.60388e-09 -0.00109925 0)
(-7.43634e-08 -0.00109929 0)
(-4.76263e-08 -0.00109935 0)
(4.30929e-08 -0.00109935 0)
(7.00833e-08 -0.00109929 0)
(2.47828e-09 -0.00109925 0)
(-6.84787e-08 -0.00109929 0)
(-4.3789e-08 -0.00109935 0)
(3.95261e-08 -0.00109935 0)
(6.44298e-08 -0.00109929 0)
(2.35694e-09 -0.00109925 0)
(-6.28375e-08 -0.00109929 0)
(-4.01203e-08 -0.00109935 0)
(3.61185e-08 -0.00109935 0)
(5.90143e-08 -0.00109929 0)
(2.23981e-09 -0.00109925 0)
(-5.74355e-08 -0.00109928 0)
(-3.66164e-08 -0.00109935 0)
(3.28665e-08 -0.00109935 0)
(5.38326e-08 -0.00109929 0)
(2.1268e-09 -0.00109924 0)
(-5.22687e-08 -0.00109928 0)
(-3.32739e-08 -0.00109935 0)
(2.97668e-08 -0.00109936 0)
(4.88804e-08 -0.00109929 0)
(2.01784e-09 -0.00109924 0)
(-4.73326e-08 -0.00109928 0)
(-3.00889e-08 -0.00109936 0)
(2.68158e-08 -0.00109936 0)
(4.41534e-08 -0.00109929 0)
(1.91286e-09 -0.00109924 0)
(-4.26228e-08 -0.00109928 0)
(-2.7058e-08 -0.00109936 0)
(2.401e-08 -0.00109936 0)
(3.96472e-08 -0.00109928 0)
(1.81179e-09 -0.00109924 0)
(-3.8135e-08 -0.00109928 0)
(-2.41774e-08 -0.00109936 0)
(2.1346e-08 -0.00109936 0)
(3.53572e-08 -0.00109928 0)
(1.71455e-09 -0.00109924 0)
(-3.38644e-08 -0.00109928 0)
(-2.14434e-08 -0.00109936 0)
(1.88202e-08 -0.00109936 0)
(3.1279e-08 -0.00109928 0)
(1.62107e-09 -0.00109924 0)
(-2.98066e-08 -0.00109928 0)
(-1.88523e-08 -0.00109936 0)
(1.64291e-08 -0.00109936 0)
(2.7408e-08 -0.00109928 0)
(1.53128e-09 -0.00109924 0)
(-2.59568e-08 -0.00109928 0)
(-1.64005e-08 -0.00109936 0)
(1.41691e-08 -0.00109936 0)
(2.37393e-08 -0.00109928 0)
(1.4451e-09 -0.00109924 0)
(-2.23103e-08 -0.00109928 0)
(-1.40842e-08 -0.00109936 0)
(1.20366e-08 -0.00109936 0)
(2.02684e-08 -0.00109928 0)
(1.36247e-09 -0.00109924 0)
(-1.88622e-08 -0.00109928 0)
(-1.18997e-08 -0.00109936 0)
(1.00282e-08 -0.00109936 0)
(1.69904e-08 -0.00109928 0)
(1.2833e-09 -0.00109924 0)
(-1.56077e-08 -0.00109928 0)
(-9.84321e-09 -0.00109936 0)
(8.14015e-09 -0.00109936 0)
(1.39004e-08 -0.00109928 0)
(1.20753e-09 -0.00109924 0)
(-1.25419e-08 -0.00109928 0)
(-7.91108e-09 -0.00109936 0)
(6.36898e-09 -0.00109936 0)
(1.09935e-08 -0.00109928 0)
(1.13508e-09 -0.00109924 0)
(-9.65978e-09 -0.00109928 0)
(-6.09955e-09 -0.00109936 0)
(4.71109e-09 -0.00109936 0)
(8.2648e-09 -0.00109928 0)
(1.06589e-09 -0.00109924 0)
(-6.95633e-09 -0.00109928 0)
(-4.40491e-09 -0.00109936 0)
(3.16293e-09 -0.00109936 0)
(5.70929e-09 -0.00109928 0)
(9.99876e-10 -0.00109924 0)
(-4.42648e-09 -0.00109928 0)
(-2.82342e-09 -0.00109936 0)
(1.72092e-09 -0.00109936 0)
(3.32193e-09 -0.00109928 0)
(9.36972e-10 -0.00109924 0)
(-2.06512e-09 -0.00109928 0)
(-1.35137e-09 -0.00109936 0)
(3.81512e-10 -0.00109936 0)
(1.09762e-09 -0.00109928 0)
(8.77106e-10 -0.00109924 0)
(1.32881e-10 -0.00109928 0)
(1.49436e-11 -0.00109936 0)
(-8.5886e-10 -0.00109936 0)
(-9.68758e-10 -0.00109928 0)
(8.20207e-10 -0.00109924 0)
(2.17272e-09 -0.00109928 0)
(1.27924e-09 -0.00109936 0)
(-2.00374e-09 -0.00109936 0)
(-2.88235e-09 -0.00109928 0)
(7.66204e-10 -0.00109924 0)
(4.05962e-09 -0.00109928 0)
(2.4452e-09 -0.00109936 0)
(-3.05668e-09 -0.00109936 0)
(-4.64834e-09 -0.00109928 0)
(7.15026e-10 -0.00109924 0)
(5.79882e-09 -0.00109928 0)
(3.51653e-09 -0.00109936 0)
(-4.02121e-09 -0.00109936 0)
(-6.27196e-09 -0.00109928 0)
(6.66605e-10 -0.00109924 0)
(7.39562e-09 -0.00109928 0)
(4.49689e-09 -0.00109936 0)
(-4.90087e-09 -0.00109936 0)
(-7.75846e-09 -0.00109928 0)
(6.20869e-10 -0.00109924 0)
(8.85533e-09 -0.00109928 0)
(5.38997e-09 -0.00109936 0)
(-5.69917e-09 -0.00109936 0)
(-9.11311e-09 -0.00109928 0)
(5.7775e-10 -0.00109924 0)
(1.01833e-08 -0.00109928 0)
(6.19941e-09 -0.00109936 0)
(-6.41963e-09 -0.00109936 0)
(-1.03412e-08 -0.00109928 0)
(5.37177e-10 -0.00109924 0)
(1.13849e-08 -0.00109928 0)
(6.92887e-09 -0.00109936 0)
(-7.06576e-09 -0.00109936 0)
(-1.14481e-08 -0.00109928 0)
(4.99082e-10 -0.00109924 0)
(1.24655e-08 -0.00109928 0)
(7.582e-09 -0.00109936 0)
(-7.64106e-09 -0.00109936 0)
(-1.24392e-08 -0.00109928 0)
(4.63395e-10 -0.00109924 0)
(1.34305e-08 -0.00109928 0)
(8.16242e-09 -0.00109936 0)
(-8.14903e-09 -0.00109936 0)
(-1.33199e-08 -0.00109928 0)
(4.30047e-10 -0.00109924 0)
(1.42854e-08 -0.00109928 0)
(8.67376e-09 -0.00109936 0)
(-8.59317e-09 -0.00109936 0)
(-1.40955e-08 -0.00109928 0)
(3.9897e-10 -0.00109924 0)
(1.50358e-08 -0.00109928 0)
(9.11966e-09 -0.00109936 0)
(-8.97697e-09 -0.00109936 0)
(-1.47715e-08 -0.00109928 0)
(3.70092e-10 -0.00109924 0)
(1.5687e-08 -0.00109928 0)
(9.50372e-09 -0.00109936 0)
(-9.30392e-09 -0.00109936 0)
(-1.53535e-08 -0.00109928 0)
(3.43346e-10 -0.00109924 0)
(1.62446e-08 -0.00109928 0)
(9.82957e-09 -0.00109936 0)
(-9.57753e-09 -0.00109936 0)
(-1.58469e-08 -0.00109928 0)
(3.18662e-10 -0.00109924 0)
(1.67143e-08 -0.00109928 0)
(1.01008e-08 -0.00109936 0)
(-9.8013e-09 -0.00109936 0)
(-1.62573e-08 -0.00109928 0)
(2.9597e-10 -0.00109924 0)
(1.71016e-08 -0.00109928 0)
(1.03211e-08 -0.00109936 0)
(-9.97874e-09 -0.00109936 0)
(-1.65904e-08 -0.00109929 0)
(2.75199e-10 -0.00109924 0)
(1.74123e-08 -0.00109928 0)
(1.04941e-08 -0.00109936 0)
(-1.01134e-08 -0.00109936 0)
(-1.68517e-08 -0.00109929 0)
(2.56278e-10 -0.00109924 0)
(1.76519e-08 -0.00109928 0)
(1.06234e-08 -0.00109936 0)
(-1.02088e-08 -0.00109936 0)
(-1.70469e-08 -0.00109929 0)
(2.39136e-10 -0.00109924 0)
(1.78263e-08 -0.00109928 0)
(1.07128e-08 -0.00109936 0)
(-1.02686e-08 -0.00109936 0)
(-1.7182e-08 -0.00109929 0)
(2.237e-10 -0.00109924 0)
(1.79414e-08 -0.00109928 0)
(1.07658e-08 -0.00109936 0)
(-1.02963e-08 -0.00109936 0)
(-1.72626e-08 -0.00109929 0)
(2.09896e-10 -0.00109924 0)
(1.80029e-08 -0.00109928 0)
(1.07863e-08 -0.00109936 0)
(-1.02956e-08 -0.00109936 0)
(-1.72947e-08 -0.00109929 0)
(1.97649e-10 -0.00109924 0)
(1.80169e-08 -0.00109928 0)
(1.0778e-08 -0.00109935 0)
(-1.02702e-08 -0.00109935 0)
(-1.72843e-08 -0.00109929 0)
(1.86883e-10 -0.00109925 0)
(1.79895e-08 -0.00109928 0)
(1.07447e-08 -0.00109935 0)
(-1.02239e-08 -0.00109935 0)
(-1.72376e-08 -0.00109929 0)
(1.77519e-10 -0.00109925 0)
(1.79268e-08 -0.00109928 0)
(1.06904e-08 -0.00109935 0)
(-1.01605e-08 -0.00109935 0)
(-1.71607e-08 -0.00109929 0)
(1.69476e-10 -0.00109925 0)
(1.78351e-08 -0.00109928 0)
(1.0619e-08 -0.00109935 0)
(-1.00839e-08 -0.00109935 0)
(-1.70601e-08 -0.00109929 0)
(1.62673e-10 -0.00109925 0)
(1.77209e-08 -0.00109928 0)
(1.05345e-08 -0.00109935 0)
(-9.9982e-09 -0.00109935 0)
(-1.69422e-08 -0.00109929 0)
(1.57022e-10 -0.00109925 0)
(1.75906e-08 -0.00109928 0)
(1.04411e-08 -0.00109935 0)
(-9.90741e-09 -0.00109935 0)
(-1.68138e-08 -0.00109929 0)
(1.52436e-10 -0.00109925 0)
(1.74512e-08 -0.00109929 0)
(1.03431e-08 -0.00109935 0)
(-9.81583e-09 -0.00109935 0)
(-1.66816e-08 -0.00109929 0)
(1.48821e-10 -0.00109925 0)
(1.73094e-08 -0.00109929 0)
(1.02448e-08 -0.00109935 0)
(-9.72781e-09 -0.00109935 0)
(-1.65529e-08 -0.00109929 0)
(1.46082e-10 -0.00109925 0)
(1.71724e-08 -0.00109929 0)
(1.01508e-08 -0.00109935 0)
(-9.64793e-09 -0.00109935 0)
(-1.64348e-08 -0.00109929 0)
(1.44117e-10 -0.00109925 0)
(1.70477e-08 -0.00109929 0)
(1.00658e-08 -0.00109935 0)
(-9.58118e-09 -0.00109935 0)
(-1.63355e-08 -0.00109929 0)
(1.42818e-10 -0.00109925 0)
(1.69433e-08 -0.00109929 0)
(9.99493e-09 -0.00109935 0)
(-9.53335e-09 -0.00109935 0)
(-1.62642e-08 -0.00109929 0)
(1.42068e-10 -0.00109925 0)
(1.68685e-08 -0.00109929 0)
(9.94424e-09 -0.00109935 0)
(-9.51006e-09 -0.00109935 0)
(-1.62298e-08 -0.00109929 0)
(1.41746e-10 -0.00109925 0)
(1.68325e-08 -0.00109929 0)
(9.91951e-09 -0.00109935 0)
)
;

boundaryField
{
    BotWall
    {
        type            fixedValue;
        value           uniform (0 0 0);
    }
    FreeStream
    {
        type            zeroGradient;
    }
    FrontNBack
    {
        type            empty;
    }
    LeftSide
    {
        type            symmetryPlane;
    }
    RightSide
    {
        type            symmetryPlane;
    }
}


// ************************************************************************* //
