/*--------------------------------*- C++ -*----------------------------------*\
| =========                 |                                                 |
| \\      /  F ield         | OpenFOAM: The Open Source CFD Toolbox           |
|  \\    /   O peration     | Version:  2.4.0                                 |
|   \\  /    A nd           | Web:      www.OpenFOAM.org                      |
|    \\/     M anipulation  |                                                 |
\*---------------------------------------------------------------------------*/
FoamFile
{
    version     2.0;
    format      ascii;
    class       volScalarField;
    location    "0.008";
    object      alpha1;
}
// * * * * * * * * * * * * * * * * * * * * * * * * * * * * * * * * * * * * * //

dimensions      [0 0 0 0 0 0 0];

internalField   nonuniform List<scalar> 
125
(
1
1
1
0.120441
6.09124e-107
3.44472e-113
1.9171e-119
1.05745e-125
5.39463e-132
2.37133e-138
8.93419e-145
2.96363e-151
8.16247e-158
1.86483e-164
3.57921e-171
6.10328e-178
1.06371e-184
2.17072e-191
4.7724e-198
9.28802e-205
1.39017e-211
1.42124e-218
8.17026e-226
1.48479e-233
0
0
0
0
0
0
0
0
0
0
0
0
0
0
0
0
0
0
0
0
0
0
0
0
0
0
0
0
0
0
0
0
0
0
0
0
0
0
0
0
0
0
0
0
0
0
0
0
0
0
0
0
0
0
0
0
0
0
0
0
0
0
0
0
0
0
0
0
0
0
0
0
0
0
0
0
0
0
0
0
0
0
0
0
0
0
0
0
0
0
0
0
0
0
0
0
0
0
0
0
0
)
;

boundaryField
{
    BotWall
    {
        type            fixedValue;
        value           uniform 1;
    }
    FreeStream
    {
        type            inletOutlet;
        inletValue      uniform 0;
        value           uniform 0;
    }
    FrontNBack
    {
        type            empty;
    }
    LeftSide
    {
        type            symmetryPlane;
    }
    RightSide
    {
        type            symmetryPlane;
    }
    procBoundary9to6
    {
        type            processor;
        value           uniform 0;
    }
    procBoundary9to7
    {
        type            processor;
        value           nonuniform List<scalar> 
75
(
1
1
1
0.129147
8.53395e-109
9.03648e-115
1.13622e-120
1.44239e-126
1.67628e-132
1.72515e-138
1.5528e-144
1.22094e-150
8.35773e-157
4.96857e-163
2.55547e-169
1.12864e-175
4.23291e-182
1.32635e-188
3.38833e-195
6.81466e-202
1.02225e-208
1.0422e-215
5.97497e-223
1.08335e-230
0
0
0
0
0
0
0
0
0
0
0
0
0
0
0
0
0
0
0
0
0
0
0
0
0
0
0
0
0
0
0
0
0
0
0
0
0
0
0
0
0
0
0
0
0
0
0
0
0
0
0
)
;
    }
    procBoundary9to8
    {
        type            processor;
        value           uniform 0;
    }
    procBoundary9to10
    {
        type            processor;
        value           uniform 0;
    }
    procBoundary9to11
    {
        type            processor;
        value           nonuniform List<scalar> 
75
(
1
1
1
0.124341
8.56496e-110
4.69366e-116
2.57588e-122
1.40474e-128
7.07926e-135
3.07045e-141
1.14093e-147
3.72738e-154
1.00747e-160
2.23571e-167
4.03421e-174
5.88162e-181
7.06621e-188
7.8439e-195
1.01803e-201
1.58061e-208
2.21839e-215
2.21655e-222
1.25687e-229
2.26567e-237
0
0
0
0
0
0
0
0
0
0
0
0
0
0
0
0
0
0
0
0
0
0
0
0
0
0
0
0
0
0
0
0
0
0
0
0
0
0
0
0
0
0
0
0
0
0
0
0
0
0
0
)
;
    }
}


// ************************************************************************* //
