/*--------------------------------*- C++ -*----------------------------------*\
| =========                 |                                                 |
| \\      /  F ield         | OpenFOAM: The Open Source CFD Toolbox           |
|  \\    /   O peration     | Version:  2.4.0                                 |
|   \\  /    A nd           | Web:      www.OpenFOAM.org                      |
|    \\/     M anipulation  |                                                 |
\*---------------------------------------------------------------------------*/
FoamFile
{
    version     2.0;
    format      ascii;
    class       volScalarField;
    location    "0.008";
    object      p;
}
// * * * * * * * * * * * * * * * * * * * * * * * * * * * * * * * * * * * * * //

dimensions      [1 -1 -2 0 0 0 0];

internalField   nonuniform List<scalar> 
125
(
0.0244668
-0.0139121
0.0141665
-0.464361
-0.0599326
0.0104866
-0.00287199
-0.0130822
-0.01511
-0.014744
-0.0145105
-0.0145899
-0.0147595
-0.0149239
-0.0150769
-0.015227
-0.0153779
-0.0155298
-0.0156825
-0.0158356
-0.0159894
-0.0161436
-0.0162985
-0.0164539
-0.0166099
-0.0167665
-0.0169236
-0.0170814
-0.0172397
-0.0173986
-0.017558
-0.0177181
-0.0178787
-0.01804
-0.0182018
-0.0183643
-0.0185273
-0.0186909
-0.0188552
-0.01902
-0.0191855
-0.0193515
-0.0195182
-0.0196855
-0.0198534
-0.0200219
-0.0201911
-0.0203608
-0.0205312
-0.0207022
-0.0208739
-0.0210462
-0.0212191
-0.0213926
-0.0215668
-0.0217416
-0.0219171
-0.0220932
-0.02227
-0.0224474
-0.0226255
-0.0228043
-0.0229837
-0.0231637
-0.0233444
-0.0235258
-0.0237079
-0.0238906
-0.024074
-0.0242581
-0.0244428
-0.0246282
-0.0248143
-0.0250011
-0.0251886
-0.0716668
-0.0720264
-0.0723874
-0.0727496
-0.0731132
-0.0734782
-0.0738444
-0.0742121
-0.0745811
-0.0749514
-0.0753231
-0.0756962
-0.0760706
-0.0764464
-0.0768236
-0.0772022
-0.0775822
-0.0779636
-0.0783464
-0.0787306
-0.0791162
-0.0795033
-0.0798917
-0.0802816
-0.0806729
-0.0810657
-0.0814599
-0.0818556
-0.0822527
-0.0826513
-0.0830513
-0.0834529
-0.0838559
-0.0842603
-0.0846663
-0.0850738
-0.0854828
-0.0858932
-0.0863052
-0.0867187
-0.0871337
-0.0875503
-0.0879684
-0.088388
-0.0888092
-0.0892319
-0.0896562
-0.090082
-0.0905094
-0.0909382
)
;

boundaryField
{
    BotWall
    {
        type            calculated;
        value           uniform 0.0294102;
    }
    FreeStream
    {
        type            calculated;
        value           uniform -0.0911529;
    }
    FrontNBack
    {
        type            empty;
    }
    LeftSide
    {
        type            symmetryPlane;
    }
    RightSide
    {
        type            symmetryPlane;
    }
    procBoundary9to6
    {
        type            processor;
        value           nonuniform List<scalar> 
50
(
-0.01667
-0.0168275
-0.0169855
-0.0171442
-0.0173034
-0.0174632
-0.0176236
-0.0177846
-0.0179461
-0.0181083
-0.0182711
-0.0184345
-0.0185984
-0.018763
-0.0189282
-0.019094
-0.0192604
-0.0194274
-0.019595
-0.0197632
-0.0199321
-0.0201016
-0.0202717
-0.0204424
-0.0206138
-0.0207858
-0.0209584
-0.0211317
-0.0213055
-0.0214801
-0.0216553
-0.0218311
-0.0220076
-0.0221847
-0.0223624
-0.0225409
-0.0227199
-0.0228997
-0.0230801
-0.0232612
-0.0234429
-0.0236253
-0.0238084
-0.0239921
-0.0241765
-0.0243616
-0.0245474
-0.0247339
-0.024921
-0.0251089
)
;
    }
    procBoundary9to7
    {
        type            processor;
        value           nonuniform List<scalar> 
75
(
0.0260181
-0.0142365
0.020926
-0.480132
-0.0625193
0.0111619
-0.00244817
-0.0129312
-0.0150275
-0.014653
-0.0144095
-0.0144869
-0.0146572
-0.0148224
-0.0149759
-0.0151264
-0.0152777
-0.0154301
-0.0155831
-0.0157367
-0.0158909
-0.0160456
-0.0162008
-0.0163567
-0.016513
-0.0716756
-0.0720351
-0.0723958
-0.0727579
-0.0731213
-0.073486
-0.0738521
-0.0742196
-0.0745884
-0.0749585
-0.07533
-0.0757029
-0.0760772
-0.0764528
-0.0768298
-0.0772082
-0.077588
-0.0779692
-0.0783518
-0.0787358
-0.0791212
-0.0795081
-0.0798963
-0.080286
-0.0806772
-0.0810697
-0.0814638
-0.0818592
-0.0822561
-0.0826545
-0.0830544
-0.0834557
-0.0838585
-0.0842628
-0.0846686
-0.0850758
-0.0854846
-0.0858949
-0.0863066
-0.0867199
-0.0871347
-0.0875511
-0.087969
-0.0883884
-0.0888093
-0.0892319
-0.0896559
-0.0900815
-0.0905087
-0.0909374
)
;
    }
    procBoundary9to8
    {
        type            processor;
        value           uniform -0.0253767;
    }
    procBoundary9to10
    {
        type            processor;
        value           uniform -0.0713086;
    }
    procBoundary9to11
    {
        type            processor;
        value           nonuniform List<scalar> 
75
(
0.0251259
-0.0140828
0.0171975
-0.47143
-0.0610886
0.0107977
-0.00267334
-0.0130064
-0.015065
-0.0146952
-0.0144572
-0.0145357
-0.0147056
-0.0148704
-0.0150235
-0.0151738
-0.0153249
-0.015477
-0.0156298
-0.0157832
-0.0159371
-0.0160915
-0.0162466
-0.0164022
-0.0165583
-0.0167151
-0.0168724
-0.0170303
-0.0171888
-0.0173479
-0.0175075
-0.0176678
-0.0178286
-0.01799
-0.0181521
-0.0183147
-0.0184779
-0.0186417
-0.0188061
-0.0189712
-0.0191368
-0.019303
-0.0194699
-0.0196374
-0.0198054
-0.0199741
-0.0201435
-0.0203134
-0.020484
-0.0206552
-0.020827
-0.0209995
-0.0211726
-0.0213463
-0.0215207
-0.0216957
-0.0218714
-0.0220477
-0.0222246
-0.0224023
-0.0225805
-0.0227594
-0.022939
-0.0231193
-0.0233002
-0.0234817
-0.023664
-0.0238469
-0.0240304
-0.0242147
-0.0243996
-0.0245853
-0.0247716
-0.0249585
-0.0251462
)
;
    }
}


// ************************************************************************* //
