/*--------------------------------*- C++ -*----------------------------------*\
| =========                 |                                                 |
| \\      /  F ield         | OpenFOAM: The Open Source CFD Toolbox           |
|  \\    /   O peration     | Version:  2.4.0                                 |
|   \\  /    A nd           | Web:      www.OpenFOAM.org                      |
|    \\/     M anipulation  |                                                 |
\*---------------------------------------------------------------------------*/
FoamFile
{
    version     2.0;
    format      ascii;
    class       volScalarField;
    location    "0.008";
    object      p_rgh;
}
// * * * * * * * * * * * * * * * * * * * * * * * * * * * * * * * * * * * * * //

dimensions      [1 -1 -2 0 0 0 0];

internalField   nonuniform List<scalar> 
125
(
0.0294102
0.000936307
0.0389563
-0.459667
-0.0591909
0.0113948
-0.00179663
-0.0118391
-0.0136986
-0.0131636
-0.0127605
-0.0126697
-0.0126685
-0.0126615
-0.0126423
-0.0126197
-0.0125973
-0.0125752
-0.0125532
-0.0125311
-0.0125089
-0.0124866
-0.0124642
-0.0124418
-0.0124192
-0.0123966
-0.0123739
-0.0123511
-0.0123283
-0.0123053
-0.0122823
-0.0122592
-0.012236
-0.0122127
-0.0121893
-0.0121658
-0.0121423
-0.0121187
-0.0120949
-0.0120711
-0.0120472
-0.0120233
-0.0119992
-0.011975
-0.0119508
-0.0119265
-0.0119021
-0.0118775
-0.0118529
-0.0118283
-0.0118035
-0.0117786
-0.0117536
-0.0117286
-0.0117034
-0.0116782
-0.0116529
-0.0116275
-0.0116019
-0.0115763
-0.0115506
-0.0115248
-0.011499
-0.011473
-0.0114469
-0.0114207
-0.0113945
-0.0113681
-0.0113416
-0.0113151
-0.0112884
-0.0112617
-0.0112348
-0.0112078
-0.0111808
-0.00447571
-0.00442422
-0.00437254
-0.00432067
-0.00426861
-0.00421636
-0.00416392
-0.00411129
-0.00405846
-0.00400544
-0.00395223
-0.00389882
-0.00384521
-0.00379141
-0.0037374
-0.0036832
-0.0036288
-0.0035742
-0.0035194
-0.0034644
-0.0034092
-0.00335379
-0.00329818
-0.00324236
-0.00318634
-0.00313011
-0.00307368
-0.00301704
-0.00296019
-0.00290313
-0.00284586
-0.00278838
-0.00273069
-0.00267279
-0.00261467
-0.00255634
-0.0024978
-0.00243904
-0.00238006
-0.00232087
-0.00226146
-0.00220183
-0.00214198
-0.00208192
-0.00202163
-0.00196112
-0.00190039
-0.00183945
-0.00177825
-0.00171662
)
;

boundaryField
{
    BotWall
    {
        type            fixedFluxPressure;
        gradient        uniform 0;
        value           uniform 0.0294102;
    }
    FreeStream
    {
        type            totalPressure;
        rho             rho;
        psi             none;
        gamma           1;
        p0              uniform 0;
        value           uniform -0.00168567;
    }
    FrontNBack
    {
        type            empty;
    }
    LeftSide
    {
        type            symmetryPlane;
    }
    RightSide
    {
        type            symmetryPlane;
    }
    procBoundary9to6
    {
        type            processor;
        value           nonuniform List<scalar> 
50
(
-0.0123001
-0.0122777
-0.0122553
-0.0122328
-0.0122101
-0.0121874
-0.0121646
-0.0121418
-0.0121188
-0.0120958
-0.0120727
-0.0120494
-0.0120261
-0.0120028
-0.0119793
-0.0119557
-0.0119321
-0.0119084
-0.0118846
-0.0118607
-0.0118367
-0.0118126
-0.0117884
-0.0117642
-0.0117398
-0.0117154
-0.0116908
-0.0116662
-0.0116415
-0.0116167
-0.0115918
-0.0115668
-0.0115418
-0.0115166
-0.0114913
-0.011466
-0.0114405
-0.011415
-0.0113894
-0.0113636
-0.0113378
-0.0113119
-0.0112859
-0.0112597
-0.0112335
-0.0112072
-0.0111808
-0.0111543
-0.0111277
-0.011101
)
;
    }
    procBoundary9to7
    {
        type            processor;
        value           nonuniform List<scalar> 
75
(
0.0309615
0.000611839
0.0457159
-0.475141
-0.0617775
0.0120702
-0.00137281
-0.0116881
-0.013616
-0.0130726
-0.0126595
-0.0125667
-0.0125662
-0.01256
-0.0125414
-0.0125191
-0.0124971
-0.0124755
-0.0124539
-0.0124322
-0.0124104
-0.0123885
-0.0123666
-0.0123445
-0.0123223
-0.00448451
-0.00443284
-0.00438097
-0.00432892
-0.00427668
-0.00422424
-0.00417161
-0.00411879
-0.00406578
-0.00401257
-0.00395916
-0.00390556
-0.00385177
-0.00379777
-0.00374358
-0.00368918
-0.00363459
-0.0035798
-0.0035248
-0.00346961
-0.00341421
-0.00335861
-0.0033028
-0.00324679
-0.00319057
-0.00313415
-0.00307752
-0.00302068
-0.00296363
-0.00290637
-0.0028489
-0.00279122
-0.00273333
-0.00267523
-0.00261691
-0.00255837
-0.00249963
-0.00244066
-0.00238148
-0.00232208
-0.00226247
-0.00220263
-0.00214257
-0.00208229
-0.0020218
-0.00196107
-0.00190013
-0.00183896
-0.00177755
-0.00171584
)
;
    }
    procBoundary9to8
    {
        type            processor;
        value           uniform -0.0111536;
    }
    procBoundary9to10
    {
        type            processor;
        value           uniform -0.00452701;
    }
    procBoundary9to11
    {
        type            processor;
        value           nonuniform List<scalar> 
75
(
0.0300693
0.000765582
0.0419873
-0.466603
-0.0603469
0.0117059
-0.00159797
-0.0117633
-0.0136536
-0.0131149
-0.0127072
-0.0126155
-0.0126146
-0.0126079
-0.012589
-0.0125666
-0.0125443
-0.0125224
-0.0125006
-0.0124786
-0.0124566
-0.0124345
-0.0124123
-0.01239
-0.0123677
-0.0123452
-0.0123227
-0.0123001
-0.0122774
-0.0122546
-0.0122318
-0.0122089
-0.0121858
-0.0121627
-0.0121395
-0.0121163
-0.0120929
-0.0120694
-0.0120459
-0.0120223
-0.0119986
-0.0119748
-0.0119509
-0.0119269
-0.0119029
-0.0118787
-0.0118545
-0.0118301
-0.0118057
-0.0117812
-0.0117566
-0.0117319
-0.0117072
-0.0116823
-0.0116573
-0.0116323
-0.0116071
-0.0115819
-0.0115566
-0.0115311
-0.0115056
-0.01148
-0.0114543
-0.0114285
-0.0114026
-0.0113766
-0.0113505
-0.0113244
-0.0112981
-0.0112717
-0.0112452
-0.0112187
-0.011192
-0.0111652
-0.0111384
)
;
    }
}


// ************************************************************************* //
